/*--------------------------------*- C++ -*----------------------------------*\
| =========                 |                                                 |
| \\      /  F ield         | OpenFOAM: The Open Source CFD Toolbox           |
|  \\    /   O peration     | Version:  2512                                  |
|   \\  /    A nd           | Website:  www.openfoam.com                      |
|    \\/     M anipulation  |                                                 |
\*---------------------------------------------------------------------------*/
FoamFile
{
    version     2.0;
    format      ascii;
    arch        "LSB;label=32;scalar=64";
    class       surfaceScalarField;
    location    "22.5";
    object      phi;
}
// * * * * * * * * * * * * * * * * * * * * * * * * * * * * * * * * * * * * * //

dimensions      [0 3 -1 0 0 0 0];

oriented        oriented;

internalField   nonuniform List<scalar> 
26232
(
4.04573e-05
0.000966899
-0.00100736
0.000324869
0.00190115
-0.00218556
0.000999698
0.00198712
-0.00266195
0.00220501
0.00127967
-0.00248497
0.00408174
-0.000189176
-0.00168756
0.006773
-0.00240303
-0.000288236
0.0104196
-0.00535284
0.00170628
0.0151512
-0.00902846
0.00429684
0.0210738
-0.0134076
0.00748501
0.0282547
-0.018447
0.0112661
0.0367086
-0.0240765
0.0156225
0.0463876
-0.0301981
0.0205192
0.0571762
-0.0366891
0.0259005
0.0688946
-0.0434092
0.0316909
0.081308
-0.0502108
0.0377974
0.0941429
-0.0569496
0.0441147
0.107106
-0.0634946
0.0505311
0.119908
-0.0697388
0.0569371
0.132282
-0.0756012
0.0632273
0.144006
-0.0810475
0.0693237
0.154906
-0.0860363
0.0751365
0.164872
-0.0906764
0.0807097
0.173795
-0.0947677
0.0858445
-0.0989306
0.0914295
0.181297
8.24987e-05
0.0008844
0.000522259
0.00146139
0.00149533
0.00101406
0.0031699
-0.000394913
0.00571168
-0.00273095
0.0092788
-0.00597016
0.0140108
-0.0100848
0.0200112
-0.0150288
0.0273285
-0.0207249
0.03594
-0.0270584
0.0457416
-0.0338781
0.0565481
-0.0410047
0.0681045
-0.0482455
0.0801059
-0.0554106
0.0922245
-0.0623294
0.104139
-0.068864
0.115563
-0.0749189
0.12627
-0.0804454
0.13611
-0.085441
0.145009
-0.0899471
0.152996
-0.094023
0.160123
-0.0978036
0.166592
-0.101236
-0.104861
0.172522
0.000142988
0.000741412
0.000787673
0.000816708
0.00213734
-0.000335607
0.00438391
-0.00264148
0.0077066
-0.00605365
0.0122579
-0.0105214
0.0181417
-0.0159687
0.0253896
-0.0222767
0.0339409
-0.0292763
0.043635
-0.0367525
0.0542177
-0.0444608
0.0653641
-0.0521511
0.0767115
-0.059593
0.0878992
-0.0665982
0.0986057
-0.073036
0.108581
-0.0788397
0.117669
-0.0840064
0.125811
-0.0885874
0.133044
-0.0926742
0.13948
-0.0963834
0.145287
-0.0998297
0.15063
-0.103147
0.155729
-0.106335
-0.10978
0.160648
0.000223655
0.000517757
0.00112494
-8.45749e-05
0.00292735
-0.00213802
0.00583439
-0.00554852
0.0100167
-0.010236
0.0155857
-0.0160904
0.0225628
-0.0229458
0.0308563
-0.0305702
0.0402542
-0.0386742
0.0504397
-0.046938
0.0610267
-0.0550479
0.0716091
-0.0627334
0.0818113
-0.0697952
0.091333
-0.07612
0.0999787
-0.0816817
0.107669
-0.08653
0.114433
-0.0907707
0.120387
-0.0945409
0.125698
-0.0979857
0.130554
-0.101239
0.13513
-0.104406
0.139562
-0.107579
0.143983
-0.110756
-0.114183
0.148386
0.000324539
0.000193219
0.00153046
-0.0012905
0.00384846
-0.00445602
0.007472
-0.00917206
0.0125288
-0.0152928
0.0190428
-0.0226043
0.0269031
-0.0308062
0.0358572
-0.0395243
0.0455338
-0.0483508
0.0554941
-0.0568982
0.0652966
-0.0648504
0.0745609
-0.0719977
0.0830146
-0.0782489
0.0905171
-0.0836224
0.0970571
-0.0882217
0.102729
-0.0922016
0.107694
-0.0957356
0.11214
-0.0989877
0.116249
-0.102094
0.120168
-0.105158
0.124007
-0.108245
0.127831
-0.111403
0.131698
-0.114623
-0.118061
0.135577
0.000444229
-0.00025101
0.0019938
-0.00284007
0.00486594
-0.00732816
0.00921228
-0.0135184
0.0150735
-0.021154
0.0223375
-0.0298683
0.0307263
-0.039195
0.0398247
-0.0486227
0.0491462
-0.0576723
0.0582161
-0.0659681
0.0666476
-0.0732819
0.0741913
-0.0795414
0.0807505
-0.084808
0.0863641
-0.0892361
0.0911681
-0.0930256
0.0953472
-0.0963807
0.0990917
-0.0994801
0.102567
-0.102463
0.105898
-0.105426
0.109172
-0.108431
0.112441
-0.111514
0.115732
-0.114694
0.119078
-0.117968
-0.12142
0.122436
0.000579728
-0.000830738
0.00249716
-0.0047575
0.00592721
-0.0107582
0.0109392
-0.0185304
0.0174404
-0.0276551
0.0251479
-0.0375759
0.0336158
-0.0476629
0.0423132
-0.0573201
0.0507273
-0.0660863
0.0584541
-0.0736949
0.0652525
-0.0800803
0.0710519
-0.0853408
0.0759229
-0.089679
0.0800255
-0.0933387
0.0835547
-0.0965549
0.0866972
-0.0995232
0.0896056
-0.102388
0.0923904
-0.105248
0.095124
-0.10816
0.0978502
-0.111157
0.100594
-0.114258
0.103367
-0.117467
0.106182
-0.120783
-0.124245
0.109007
0.000726103
-0.00155684
0.00301505
-0.00704645
0.00696351
-0.0147067
0.0125151
-0.024082
0.0194073
-0.0345473
0.0271817
-0.0453503
0.0352678
-0.0557489
0.0431047
-0.0651571
0.0502535
-0.0732351
0.0564595
-0.0799009
0.0616577
-0.0852785
0.0659328
-0.0896159
0.0694574
-0.0932037
0.0724321
-0.0963133
0.0750411
-0.0991638
0.0774297
-0.101912
0.0797001
-0.104659
0.0819172
-0.107465
0.0841192
-0.110362
0.0863274
-0.113366
0.0885529
-0.116483
0.0908002
-0.119714
0.0930746
-0.123058
-0.126522
0.0953517
0.000876119
-0.00243296
0.00351487
-0.0096852
0.00789549
-0.0190873
0.0137985
-0.029985
0.0207788
-0.0415276
0.0282363
-0.0528079
0.0355536
-0.0630662
0.0422336
-0.0718371
0.0479816
-0.0789831
0.0527146
-0.0846339
0.0565149
-0.0890788
0.0595597
-0.0926608
0.0620538
-0.0956978
0.0641826
-0.0984421
0.0660898
-0.101071
0.067874
-0.103696
0.0695967
-0.106382
0.0712931
-0.109161
0.0729825
-0.112051
0.0746749
-0.115058
0.0763753
-0.118183
0.0780857
-0.121425
0.0798069
-0.124779
-0.128238
0.0815236
0.00102038
-0.00345334
0.00395952
-0.0126243
0.00864284
-0.0237706
0.0146664
-0.0360086
0.0214221
-0.0482833
0.0282336
-0.0596193
0.0345231
-0.0693557
0.039925
-0.077239
0.0443105
-0.0833686
0.0477414
-0.0880648
0.050391
-0.0917284
0.0524678
-0.0947375
0.0541623
-0.0973922
0.0556215
-0.0999014
0.0569455
-0.102395
0.0581953
-0.104946
0.0594054
-0.107592
0.0605945
-0.11035
0.0617723
-0.113229
0.0629439
-0.11623
0.0641116
-0.119351
0.065276
-0.122589
0.0664356
-0.125939
-0.129385
0.0675821
0.00114865
-0.00460199
0.00431291
-0.0157886
0.0091373
-0.028595
0.0150361
-0.0419074
0.0212871
-0.0545343
0.0272164
-0.0655486
0.0323546
-0.074494
0.0364941
-0.0813785
0.0396521
-0.0865266
0.0419861
-0.0903987
0.0437058
-0.0934481
0.0450098
-0.0960416
0.0460536
-0.098436
0.046943
-0.100791
0.0477421
-0.103194
0.0484869
-0.105691
0.0491961
-0.108301
0.0498798
-0.111034
0.0505433
-0.113892
0.0511895
-0.116876
0.0518195
-0.119981
0.0524329
-0.123203
0.0530265
-0.126532
-0.129955
0.0535965
0.00125375
-0.00585574
0.004548
-0.0190829
0.00933458
-0.0333816
0.0148757
-0.0474485
0.0204034
-0.060062
0.0253172
-0.0704623
0.0292916
-0.0784684
0.0322668
-0.0843537
0.0343649
-0.0886247
0.0357899
-0.0918237
0.0367492
-0.0944075
0.0374112
-0.0967036
0.0378922
-0.098917
0.0382633
-0.101162
0.038564
-0.103495
0.0388145
-0.105941
0.0390251
-0.108512
0.0392015
-0.11121
0.0393471
-0.114038
0.039464
-0.116993
0.0395531
-0.12007
0.0396139
-0.123263
0.0396429
-0.126561
0.0396401
-0.129952
-0.000245402
8.17696e-05
0.000163633
-0.000852542
0.000185049
0.000422091
-0.00174429
0.000258494
0.000633259
-0.00286455
0.000315582
0.000804669
-0.00417145
0.000363318
0.000943586
-0.00563444
0.000405374
0.00105762
-0.00723196
0.000443387
0.00115413
-0.00894951
0.000477899
0.00123965
-0.010778
0.000509115
0.00131935
-0.0127122
0.000537388
0.00139682
-0.0147497
0.000563453
0.0014741
-0.01689
0.000588489
0.00155178
-0.0191334
0.000614106
0.00162927
-0.0214808
0.000642339
0.00170509
-0.0239336
0.000675696
0.00177704
-0.0264932
0.000717286
0.0018424
-0.0291623
0.000771028
0.00189803
-0.0319447
0.000841958
0.00194046
-0.0348474
0.000936613
0.00196607
-0.0378818
0.00106322
0.0019712
-0.0410653
0.00123113
0.00195236
-0.0444225
0.00145121
0.00190602
-0.0479935
0.00174249
0.00182843
0.00213257
-0.0518445
0.00171846
-0.000235388
0.000317158
-0.000819453
0.000769114
-0.00167747
0.00111651
-0.00275376
0.00139188
-0.00400601
0.00161556
-0.00540256
0.00180192
-0.00692035
0.00196118
-0.00854301
0.00210056
-0.0102592
0.00222533
-0.0120613
0.00233944
-0.0139438
0.00244601
-0.0159029
0.00254757
-0.0179351
0.00264629
-0.0200369
0.00274416
-0.0222045
0.00284328
-0.0244334
0.0029462
-0.0267188
0.00305642
-0.0290559
0.00317904
-0.0314409
0.00332166
-0.0338732
0.00349548
-0.0363574
0.00371537
-0.0389056
0.00399937
-0.0415406
0.00437753
0.00491039
-0.0443184
-0.000209745
0.000526903
-0.000734377
0.00129375
-0.0015064
0.00188854
-0.00247287
0.00235835
-0.00359165
0.00273434
-0.00482957
0.00303984
-0.00616078
0.00329239
-0.00756515
0.00350493
-0.00902677
0.00368695
-0.0105326
0.0038453
-0.0120714
0.0039848
-0.0136325
0.00410866
-0.0152051
0.00421887
-0.0167775
0.00431652
-0.0183364
0.00440224
-0.0198668
0.00447657
-0.021351
0.00454065
-0.0227689
0.00459691
-0.0240976
0.0046504
-0.0253129
0.00471079
-0.0263927
0.00479511
-0.0273217
0.00492839
-0.0280916
0.00514746
0.00553896
-0.0287202
-0.000173073
0.000699977
-0.000611463
0.00173214
-0.00125777
0.00253485
-0.00206316
0.00316373
-0.00298614
0.00365733
-0.00399183
0.00404553
-0.00505085
0.00435141
-0.0061382
0.00459228
-0.00723202
0.00478077
-0.00831242
0.00492571
-0.00936044
0.00503282
-0.0103571
0.00510531
-0.0112825
0.00514431
-0.0121154
0.00514936
-0.0128319
0.00511881
-0.0134056
0.00505025
-0.013806
0.00494101
-0.0139978
0.00478879
-0.0139401
0.00459265
-0.0135844
0.0043551
-0.012876
0.00408665
-0.0117599
0.00381234
-0.0101906
0.00357815
0.00350725
-0.0081589
-0.000131414
0.00083139
-0.00046934
0.00207006
-0.000966723
0.00303223
-0.00157899
0.003776
-0.0022654
0.00434374
-0.00298922
0.00476935
-0.00371732
0.00507952
-0.00441945
0.0052944
-0.00506725
0.00542857
-0.00563337
0.00549183
-0.00609053
0.00548998
-0.00641072
0.00542549
-0.00656449
0.00529808
-0.00652034
0.00510521
-0.00624409
0.00484256
-0.00569829
0.00450445
-0.00484141
0.00408413
-0.00362688
0.00357426
-0.00200151
0.00296728
9.71714e-05
0.00225642
0.00274491
0.00143892
0.00603168
0.000525565
0.0100542
-0.000444411
-0.00136273
0.0149242
-9.09268e-05
0.000922317
-0.00032715
0.00230629
-0.000669524
0.0033746
-0.00107654
0.00418302
-0.00150759
0.00477479
-0.00192383
0.00518559
-0.00228821
0.0054439
-0.00256501
0.0055712
-0.00271911
0.00558267
-0.00271524
0.00548795
-0.00251717
0.00529192
-0.00208705
0.00499537
-0.00138473
0.00459576
-0.000367321
0.0040878
0.00101128
0.00346397
0.00280072
0.00271501
0.00505455
0.0018303
0.00783052
0.000798282
0.0111911
-0.000393338
0.0152049
-0.00175729
0.0199495
-0.00330572
0.0255248
-0.00504975
0.032009
-0.00692857
-0.00913725
0.0397835
-5.66151e-05
0.000978932
-0.000200531
0.0024502
-0.000395839
0.00356991
-0.000601548
0.00438873
-0.000775687
0.00494892
-0.000876347
0.00528625
-0.000861772
0.00542932
-0.000689947
0.00539937
-0.000317933
0.00521065
0.000298876
0.00487115
0.00120748
0.00438331
0.0024579
0.00374494
0.00410368
0.00294998
0.00620222
0.00198927
0.00881482
0.000851362
0.0120066
-0.000476772
0.0158461
-0.00200916
0.0204042
-0.00375984
0.0257534
-0.00574258
0.0319666
-0.00797045
0.0391092
-0.0104483
0.0472872
-0.0132278
0.0564461
-0.0160874
-0.0199162
0.067225
-3.12944e-05
0.00101023
-9.82404e-05
0.00251715
-0.000162007
0.00363368
-0.000178391
0.00440511
-0.000101466
0.004872
0.00011591
0.00506887
0.000522341
0.00502289
0.00116852
0.00475319
0.00210803
0.00427114
0.0033981
0.00358107
0.00510023
0.00268119
0.00728057
0.0015646
0.0100099
0.000220682
0.0133633
-0.00136414
0.0174192
-0.00320453
0.0222579
-0.00531552
0.0279597
-0.00771099
0.0346023
-0.0104024
0.0422569
-0.0133972
0.0509887
-0.0167023
0.0608304
-0.02029
0.071883
-0.0242803
0.0839175
-0.0281219
-0.0336767
0.097678
-1.49872e-05
0.00102521
-1.99579e-05
0.00252212
3.34643e-05
0.00358026
0.000197258
0.00424132
0.000525417
0.00454384
0.00107407
0.00452022
0.00190262
0.00419435
0.00307477
0.00358104
0.00465941
0.0026865
0.00673114
0.00150935
0.00937005
4.2274e-05
0.0126615
-0.00172683
0.0166939
-0.00381178
0.0215571
-0.00622726
0.0273386
-0.00898604
0.0341204
-0.0120973
0.0419742
-0.0155648
0.0509572
-0.0193854
0.061107
-0.023547
0.0724412
-0.0280366
0.0849316
-0.0327804
0.0986
-0.0379487
0.113163
-0.0426849
-0.049597
0.129083
-4.90736e-06
0.00103012
4.36376e-05
0.00247357
0.000210194
0.0034137
0.000560016
0.0038915
0.00115994
0.00394391
0.00208043
0.00359973
0.00339719
0.00287759
0.00519236
0.00178587
0.0075548
0.000324056
0.0105793
-0.00151519
0.0143648
-0.00374316
0.0190102
-0.00637223
0.0246109
-0.00941249
0.0312525
-0.0128689
0.0390051
-0.0167386
0.047917
-0.0210093
0.0580098
-0.0256575
0.0692737
-0.0306494
0.0816661
-0.0359393
0.0951085
-0.0414789
0.109493
-0.0471647
0.124668
-0.0531236
0.14048
-0.0584969
-0.0658289
0.156711
4.13634e-06
0.00102599
0.000109957
0.00236775
0.000403837
0.00311982
0.000969571
0.00332576
0.00189281
0.00302068
0.0032641
0.00222844
0.00518066
0.00096103
0.00774649
-0.00077996
0.0110707
-0.00300013
0.0152632
-0.00570768
0.0204291
-0.00890906
0.026661
-0.0126041
0.0340307
-0.0167822
0.0425809
-0.0214191
0.0523182
-0.0264759
0.0632078
-0.0318988
0.0751716
-0.0376214
0.0880895
-0.0435673
0.101804
-0.0496533
0.116125
-0.0558007
0.130866
-0.0619055
0.14575
-0.0680075
0.160806
-0.0735523
-0.0801515
0.175128
1.86295e-05
0.000200818
0.000658686
0.00149947
0.0028326
0.0047728
0.00744011
0.010957
0.0154419
0.0210003
0.0277137
0.0356287
0.044747
0.0550187
0.0663403
0.0785561
0.0914659
0.104836
0.11841
0.131933
0.145164
0.157866
0.170158
0.181436
-0.0547905
0.000856802
0.00208924
-0.0577016
0.00120328
0.00170783
-0.0605354
0.00162496
0.0012088
-0.0632401
0.00212589
0.000578824
-0.0657619
0.00268833
-0.000166551
-0.0680277
0.00329947
-0.0010337
-0.069942
0.00393524
-0.00202094
-0.0714134
0.00455369
-0.00308223
-0.0723325
0.00510642
-0.0041873
-0.0725779
0.00553325
-0.00528786
-0.0720214
0.00576861
-0.00632517
-0.0705363
0.00574822
-0.00723331
-0.0679976
0.00539665
-0.00793537
-0.0642706
0.00461892
-0.00834583
-0.0593014
0.00342841
-0.0083976
-0.0529953
0.00169819
-0.00800431
-0.0453123
-0.000540128
-0.00714294
-0.0363382
-0.00312957
-0.00584447
-0.0260605
-0.00622221
-0.00405549
-0.0147142
-0.00935121
-0.00199508
-0.0024208
-0.0125257
0.000232287
0.0104184
-0.0151354
0.00229619
0.0235647
-0.0171764
0.00403003
0.0366913
-0.0183643
0.00523774
0.0495103
-0.0186079
0.00578891
0.0617965
-0.017926
0.00563976
0.0733969
-0.0164408
0.00484038
0.0842269
-0.0143179
0.00348779
0.0942532
-0.0117718
0.00174557
0.103468
-0.00894863
-0.000266326
0.111887
-0.00606112
-0.00235809
0.119538
-0.00316453
-0.00448579
0.126445
-0.000481506
-0.00642573
0.13267
0.00202107
-0.00824656
0.138242
0.00413016
-0.00970203
0.14322
0.00606211
-0.0110403
0.14765
0.00745711
-0.0118871
0.151588
0.00878005
-0.0127177
0.155085
0.00950383
-0.013001
0.158196
0.010339
-0.0134499
0.160973
0.0105601
-0.0133369
0.16346
0.0111557
-0.0136429
0.165705
0.0110863
-0.013331
0.16775
0.0117013
-0.0137469
0.169642
0.0114803
-0.0133714
0.1714
0.0123795
-0.0141379
0.173026
0.0122055
-0.013832
0.174491
0.0136183
-0.0150824
0.175753
0.0135923
-0.0148545
0.176775
0.0155102
-0.0165322
0.177542
0.0155285
-0.0162957
0.178053
0.0179835
-0.0184943
0.178334
0.0180237
-0.0183052
0.178412
0.0212097
-0.0212868
0.178325
0.0213921
-0.0213058
0.178101
0.0254189
-0.0251948
0.177778
0.0258262
-0.0255031
0.177364
0.0308155
-0.0304014
0.176897
0.0314977
-0.0310305
0.0376169
-0.0370801
-0.046895
0.00343334
-0.0494817
0.00379004
-0.0519833
0.00412654
-0.0543589
0.0045015
-0.0565479
0.00487731
-0.0584778
0.00522933
-0.06006
0.00551745
-0.061198
0.00569165
-0.0617824
0.00569081
-0.0616909
0.00544176
-0.060795
0.00487279
-0.0589751
0.00392828
-0.0561064
0.00252793
-0.0519922
0.000504704
-0.0467563
-0.00180746
-0.0403206
-0.00473748
-0.0326065
-0.00825427
-0.0236146
-0.0121215
-0.0133404
-0.0164964
-0.00210049
-0.0205911
0.00965923
-0.0242854
0.0219484
-0.0274245
0.0343751
-0.0296031
0.0466133
-0.0306025
0.0583914
-0.030386
0.0695181
-0.0290526
0.0798902
-0.0268129
0.0894794
-0.0239071
0.0983076
-0.0205999
0.106413
-0.0170543
0.113847
-0.0134947
0.120659
-0.00997677
0.126906
-0.00672818
0.132602
-0.00367537
0.137788
-0.00105519
0.142511
0.00133881
0.146786
0.00318157
0.150655
0.00491188
0.154139
0.00601953
0.157277
0.00720065
0.160106
0.0077311
0.162659
0.00860327
0.164974
0.00877133
0.167091
0.0095837
0.169054
0.00951717
0.170886
0.0105476
0.172588
0.0105038
0.174127
0.0120789
0.175463
0.012257
0.176551
0.0144215
0.177378
0.0147022
0.177938
0.0174235
0.178261
0.0177002
0.178372
0.0210989
0.178315
0.0214487
0.178115
0.0256191
0.177815
0.0261269
0.177419
0.0312115
0.176969
0.0319469
0.0381402
-0.0304923
0.00520542
-0.0323347
0.00563247
-0.0341091
0.00590092
-0.0357721
0.00616458
-0.0372699
0.00637507
-0.0385256
0.00648502
-0.0394631
0.00645491
-0.0399955
0.00622407
-0.040019
0.00571437
-0.0394168
0.00483947
-0.0380653
0.0035213
-0.0358116
0.00167463
-0.0325704
-0.000713293
-0.0285183
-0.0035474
-0.0232496
-0.00707617
-0.0168132
-0.0111739
-0.00921447
-0.015853
-0.000389249
-0.0209467
0.0089827
-0.0258684
0.0192902
-0.0308985
0.0302607
-0.035256
0.0415303
-0.0386941
0.0527709
-0.0408437
0.0636825
-0.0415142
0.0740223
-0.0407258
0.083632
-0.0386622
0.0924432
-0.0356241
0.100464
-0.0319279
0.107757
-0.0278928
0.114398
-0.0236955
0.120469
-0.0195653
0.126043
-0.0155514
0.131187
-0.0118721
0.135939
-0.00842765
0.140353
-0.00546874
0.144423
-0.00273116
0.148166
-0.00056132
0.151624
0.0014536
0.154787
0.00285664
0.157679
0.00430911
0.160317
0.00509305
0.16272
0.00619971
0.164917
0.00657435
0.16694
0.00756084
0.168826
0.0076307
0.1706
0.00877436
0.172261
0.00884235
0.173779
0.0105606
0.175112
0.0109243
0.176213
0.0133203
0.177065
0.0138506
0.177658
0.0168301
0.178022
0.0173364
0.178176
0.0209451
0.178166
0.0214585
0.178012
0.0257728
0.17776
0.0263789
0.177411
0.0315605
0.177011
0.0323475
0.0386175
-0.00881595
0.00586247
-0.0096656
0.00648212
-0.0105017
0.00673707
-0.0112444
0.00690722
-0.0118622
0.00699285
-0.012297
0.00691984
-0.0124627
0.0066206
-0.012282
0.00604338
-0.0116859
0.00511829
-0.0105599
0.00371345
-0.00876647
0.00172788
-0.0062509
-0.000840931
-0.00302982
-0.00393437
0.00108771
-0.00766494
0.00600764
-0.0119961
0.0118817
-0.0170479
0.0187004
-0.0226716
0.0263903
-0.0286367
0.0350335
-0.0345116
0.0442884
-0.0401534
0.0539996
-0.0449672
0.0638676
-0.048562
0.0736028
-0.0505789
0.0829428
-0.0508542
0.091686
-0.049469
0.0997102
-0.0466864
0.106972
-0.0428855
0.113491
-0.0384473
0.119338
-0.0337397
0.124599
-0.0289568
0.129361
-0.0243266
0.133706
-0.0198969
0.137711
-0.0158766
0.141427
-0.0121443
0.144899
-0.00894074
0.148149
-0.00598084
0.151208
-0.00362036
0.154043
-0.00138132
0.156682
0.000217117
0.159135
0.00185613
0.161406
0.0028224
0.163497
0.00410902
0.165427
0.00464405
0.16722
0.00576808
0.168906
0.00594444
0.170508
0.00717257
0.172028
0.00732202
0.173439
0.00914989
0.174699
0.00966385
0.175762
0.0122575
0.176607
0.0130062
0.177218
0.016219
0.17762
0.0169342
0.177825
0.0207395
0.177879
0.0214051
0.177794
0.0258579
0.177616
0.0265565
0.177343
0.0318339
0.177021
0.0326691
0.0390167
0.0151754
0.0056113
0.0152756
0.00638186
0.0153509
0.0066618
0.0155071
0.00675107
0.0157575
0.00674242
0.0161317
0.00654566
0.0166874
0.00606492
0.0174991
0.00523162
0.0186175
0.00399988
0.0201129
0.00221808
0.022116
-0.000275204
0.0245418
-0.00326671
0.0275967
-0.00698928
0.0313203
-0.0113886
0.0358121
-0.0164879
0.0410479
-0.0222838
0.0470213
-0.028645
0.0536952
-0.0353105
0.0610624
-0.0418789
0.0688991
-0.0479901
0.0770244
-0.0530925
0.0851927
-0.0567303
0.093168
-0.0585542
0.10075
-0.0584362
0.107799
-0.0565177
0.11424
-0.053128
0.120056
-0.0487009
0.125267
-0.0436585
0.129926
-0.0383985
0.134102
-0.0331329
0.137856
-0.0280811
0.141256
-0.0232965
0.144363
-0.0189841
0.14723
-0.0150114
0.149904
-0.0116141
0.152412
-0.0084894
0.154776
-0.00598406
0.157006
-0.00361088
0.15911
-0.00188701
0.161048
-8.25188e-05
0.162892
0.000979114
0.164603
0.00239802
0.166198
0.00304836
0.167693
0.00427306
0.169113
0.00452445
0.170479
0.00580681
0.171797
0.00600397
0.173045
0.00790219
0.174187
0.00852161
0.175177
0.0112675
0.175993
0.0121906
0.176612
0.0155996
0.177054
0.0164922
0.177322
0.0204716
0.177456
0.0212715
0.177461
0.0258524
0.177383
0.0266342
0.177214
0.0320035
0.177001
0.0328817
0.0393058
0.040345
0.00504982
0.0409282
0.00579868
0.0415692
0.00602081
0.0423245
0.00599577
0.043183
0.00588391
0.0441509
0.0055777
0.0452587
0.00495717
0.046542
0.00394827
0.0480542
0.00248772
0.0498489
0.000423347
0.0518394
-0.00226572
0.0542228
-0.00565011
0.0570185
-0.00978493
0.0603089
-0.014679
0.0641465
-0.0203255
0.068537
-0.0266743
0.0734716
-0.0335796
0.0789164
-0.0407553
0.0848212
-0.0477837
0.091021
-0.0541898
0.0973436
-0.0594152
0.103602
-0.0629889
0.109636
-0.0645878
0.115328
-0.0641286
0.120618
-0.0618076
0.125489
-0.0579989
0.129949
-0.0531614
0.134018
-0.0477268
0.13772
-0.0421007
0.141092
-0.0365048
0.144156
-0.0311453
0.14694
-0.0260804
0.149477
-0.0215211
0.1518
-0.0173343
0.153944
-0.0137582
0.155936
-0.0104815
0.157802
-0.00785015
0.159551
-0.00535987
0.161195
-0.00353058
0.162756
-0.00164331
0.164191
-0.000456324
0.165556
0.00103289
0.166839
0.00176563
0.168046
0.0030661
0.169201
0.00336875
0.170326
0.00468233
0.171431
0.00489871
0.172502
0.00683102
0.173513
0.00751095
0.17442
0.0103607
0.175202
0.0114088
0.175831
0.0149704
0.176321
0.0160024
0.176665
0.0201278
0.176897
0.0210391
0.177016
0.0257336
0.177063
0.0265868
0.177026
0.0320412
0.176951
0.0329558
0.0394532
0.0673652
0.0049096
0.0677167
0.00544717
0.0682828
0.00545477
0.0690639
0.00521467
0.0700127
0.00493512
0.0711241
0.00446626
0.0724011
0.00368015
0.0738465
0.00250294
0.0754823
0.000851912
0.0772724
-0.00136676
0.0792553
-0.00424865
0.0814596
-0.0078544
0.0839164
-0.0122417
0.086665
-0.0174276
0.0897369
-0.0233974
0.0931514
-0.0300888
0.0969016
-0.0373298
0.100952
-0.0448055
0.10524
-0.0520718
0.109639
-0.0585893
0.114011
-0.063787
0.118239
-0.0672168
0.122254
-0.0686028
0.126035
-0.0679101
0.129602
-0.0653741
0.132987
-0.0613844
0.136219
-0.0563928
0.139303
-0.050811
0.142236
-0.0450331
0.145012
-0.0392814
0.147619
-0.033752
0.150038
-0.0285
0.15227
-0.0237526
0.154317
-0.0193816
0.156195
-0.0156359
0.15792
-0.0122062
0.159512
-0.00944231
0.160985
-0.00683307
0.162353
-0.00489917
0.163631
-0.00292114
0.164836
-0.00166077
0.16593
-6.15378e-05
0.16699
0.000706204
0.16798
0.00207538
0.16893
0.0024191
0.169859
0.00375298
0.170788
0.00397044
0.171709
0.00590993
0.172607
0.00661232
0.173446
0.00952167
0.174208
0.0106472
0.174861
0.0143173
0.175414
0.0154492
0.175852
0.0196896
0.176204
0.0206872
0.17646
0.025478
0.176658
0.0263887
0.17678
0.0319194
0.176873
0.0328625
0.0394279
0.0968604
0.00572719
0.0963963
0.00591123
0.0962769
0.00557421
0.0964556
0.00503592
0.0968866
0.00450413
0.0975732
0.00377965
0.098492
0.0027614
0.0996147
0.00138023
0.100931
-0.000464407
0.102415
-0.00285064
0.104045
-0.00587923
0.105823
-0.00963211
0.107746
-0.0141648
0.109816
-0.0194978
0.11203
-0.0256107
0.114362
-0.0324212
0.116778
-0.0397461
0.119255
-0.0472818
0.121762
-0.0545793
0.124222
-0.0610492
0.126559
-0.0661234
0.128741
-0.0693993
0.130798
-0.0706592
0.132795
-0.0699073
0.134813
-0.0673919
0.136911
-0.063483
0.139116
-0.0585971
0.141409
-0.0531044
0.143751
-0.0473755
0.146099
-0.0416286
0.148408
-0.0360613
0.150624
-0.0307161
0.152716
-0.0258449
0.154664
-0.0213288
0.156459
-0.0174316
0.158104
-0.013851
0.159609
-0.0109477
0.160986
-0.00820965
0.162247
-0.00616049
0.16341
-0.00408433
0.164481
-0.00273105
0.165491
-0.00107191
0.166409
-0.000211613
0.167286
0.00119881
0.16812
0.00158491
0.168932
0.00294073
0.16975
0.00315232
0.170576
0.00508354
0.171408
0.00578075
0.172215
0.00871442
0.172986
0.00987644
0.173688
0.013615
0.174328
0.0148096
0.174883
0.0191344
0.175378
0.0201929
0.175794
0.0250612
0.176169
0.0260145
0.176477
0.0316107
0.176766
0.0325735
0.0391997
0.127215
0.00759524
0.12578
0.00734681
0.124709
0.00664481
0.123912
0.0058326
0.123434
0.00498291
0.123281
0.00393209
0.123409
0.00263312
0.123778
0.00101194
0.124378
-0.00106428
0.125147
-0.00361998
0.126056
-0.00678837
0.127074
-0.0106498
0.128165
-0.015256
0.129297
-0.0206299
0.130436
-0.0267492
0.131533
-0.0335187
0.132531
-0.0407443
0.13337
-0.0481206
0.13401
-0.0552195
0.134483
-0.0615215
0.134819
-0.0664597
0.135089
-0.0696695
0.135407
-0.070977
0.135897
-0.070397
0.136663
-0.0681584
0.137762
-0.0645814
0.139193
-0.0600286
0.14091
-0.0548213
0.142836
-0.0493018
0.144892
-0.0436844
0.147017
-0.038186
0.149132
-0.0328312
0.15118
-0.0278935
0.153124
-0.0232718
0.15494
-0.019248
0.156616
-0.0155274
0.158155
-0.0124864
0.159559
-0.00961421
0.160841
-0.00744214
0.162012
-0.00525497
0.163088
-0.00380713
0.164082
-0.00206584
0.165012
-0.0011419
0.165858
0.000352903
0.166675
0.000767727
0.167459
0.00215675
0.168247
0.00236469
0.169048
0.00428217
0.169872
0.00495686
0.170697
0.00788959
0.171517
0.00905588
0.172303
0.0128298
0.173058
0.0140544
0.173757
0.0184356
0.174419
0.0195309
0.175022
0.0244578
0.175598
0.0254385
0.176121
0.031088
0.176633
0.0320611
0.0387388
0.15417
0.0101372
0.152069
0.0094472
0.150186
0.00852768
0.148492
0.00752644
0.14713
0.00634546
0.146073
0.00498856
0.145262
0.00344479
0.144729
0.00154495
0.144456
-0.000791864
0.144309
-0.003473
0.144276
-0.00675486
0.144309
-0.0106827
0.144354
-0.0153008
0.144353
-0.0206297
0.144249
-0.0266453
0.143978
-0.0332469
0.143473
-0.0402395
0.142682
-0.0473302
0.141587
-0.0541238
0.140239
-0.0601739
0.138814
-0.0650342
0.137487
-0.0683432
0.136436
-0.0699259
0.135805
-0.0697653
0.135685
-0.0680386
0.136102
-0.0649982
0.137021
-0.0609478
0.138365
-0.0561656
0.140032
-0.0509683
0.141913
-0.0455657
0.143932
-0.0402055
0.146016
-0.0349153
0.148086
-0.029963
0.150083
-0.0252686
0.151976
-0.0211415
0.153744
-0.0172951
0.155382
-0.0141243
0.156887
-0.0111197
0.158268
-0.00882308
0.159532
-0.00651852
0.160695
-0.00497076
0.161775
-0.00314547
0.16278
-0.0021465
0.163707
-0.000574157
0.164574
-9.96101e-05
0.165414
0.00131706
0.16625
0.00152822
0.167098
0.00343404
0.167978
0.00407728
0.168875
0.00699271
0.169791
0.00813979
0.170698
0.0119232
0.171601
0.0131512
0.172472
0.0175641
0.173329
0.0186746
0.174145
0.0236417
0.174948
0.0246353
0.175711
0.0303247
0.176474
0.0312986
0.0380167
0.1727
0.012565
0.17049
0.0116575
0.168256
0.0107615
0.166184
0.00959812
0.164357
0.00817307
0.162753
0.00659196
0.161356
0.00484185
0.160109
0.00279278
0.159035
0.000281877
0.158065
-0.00250313
0.157134
-0.00582422
0.156207
-0.0097556
0.155217
-0.0143111
0.154096
-0.0195078
0.152774
-0.0253236
0.151187
-0.0316601
0.149284
-0.0383363
0.14704
-0.0450868
0.144489
-0.0515721
0.141723
-0.0574081
0.138969
-0.0622798
0.136502
-0.0658771
0.134524
-0.0679478
0.133166
-0.0684071
0.132493
-0.0673658
0.132497
-0.0650017
0.133112
-0.0615636
0.134241
-0.0572942
0.135767
-0.0524938
0.13757
-0.0473689
0.139555
-0.0421902
0.141643
-0.0370036
0.143768
-0.0320876
0.145854
-0.0273549
0.147861
-0.0231486
0.149757
-0.0191917
0.151535
-0.0159017
0.153185
-0.0127699
0.154714
-0.0103523
0.156125
-0.00792888
0.157435
-0.00628061
0.158655
-0.00436579
0.159797
-0.00328872
0.16086
-0.00163705
0.161871
-0.00111017
0.162818
0.000370037
0.16377
0.000575701
0.164729
0.00247497
0.165724
0.0030824
0.166746
0.00597066
0.167804
0.00708201
0.168872
0.0108555
0.169957
0.0120659
0.171031
0.0164898
0.172109
0.0175968
0.173164
0.0225865
0.17422
0.0235791
0.17525
0.0292947
0.176289
0.0302598
0.0370053
0.179983
0.0140183
0.178155
0.0134849
0.176363
0.0125535
0.174606
0.0113552
0.172878
0.00990152
0.171209
0.00826085
0.169615
0.00643579
0.168081
0.00432674
0.166566
0.00179646
0.165148
-0.00108423
0.163629
-0.00430579
0.162006
-0.00813253
0.160222
-0.0125271
0.158225
-0.0175107
0.155963
-0.0230612
0.153397
-0.0290941
0.150517
-0.0354568
0.147354
-0.041924
0.143995
-0.0482126
0.140574
-0.0539879
0.137244
-0.0589494
0.134188
-0.0628211
0.131619
-0.0653788
0.129742
-0.0665296
0.128632
-0.0662558
0.128268
-0.0646378
0.12858
-0.0618761
0.129467
-0.0581812
0.130814
-0.0538404
0.132498
-0.0490536
0.134422
-0.0441135
0.136492
-0.0390742
0.138635
-0.0342303
0.140783
-0.0295033
0.14289
-0.0252553
0.144914
-0.0212155
0.146839
-0.0178273
0.148651
-0.0145819
0.150353
-0.0120536
0.15194
-0.00951605
0.15343
-0.00777055
0.15483
-0.00576542
0.156155
-0.00461456
0.157404
-0.00288585
0.158591
-0.00229665
0.159721
-0.000760436
0.160838
-0.000540994
0.16196
0.00135263
0.163123
0.00191998
0.164318
0.00477547
0.16556
0.00583929
0.166828
0.00958839
0.168128
0.010765
0.169436
0.0151823
0.170763
0.0162702
0.172083
0.0212662
0.173417
0.0222451
0.174739
0.0279724
0.17608
0.0289194
0.035678
0.196996
0.0152195
-0.198197
0.196307
0.0141739
0.195596
0.0132642
0.194913
0.0120381
0.19428
0.0105354
0.193713
0.00882751
0.193255
0.00689385
0.192901
0.0046802
0.192547
0.00215088
0.192198
-0.000735035
0.191984
-0.00409222
0.191735
-0.00788341
0.191412
-0.0122039
0.190944
-0.0170428
0.190242
-0.0223588
0.189215
-0.028068
0.18779
-0.0340312
0.185914
-0.040048
0.183575
-0.045874
0.180814
-0.0512269
0.177708
-0.055843
0.174371
-0.0594846
0.170949
-0.0619568
0.167583
-0.0631627
0.164414
-0.0630875
0.161561
-0.0617848
0.159105
-0.05942
0.15709
-0.0561658
0.155525
-0.0522751
0.154386
-0.0479155
0.153634
-0.0433608
0.153218
-0.038658
0.153086
-0.0340988
0.153184
-0.0296007
0.153453
-0.0255246
0.153839
-0.0216016
0.154297
-0.0182855
0.154788
-0.0150733
0.155286
-0.0125508
0.155765
-0.00999528
0.156214
-0.00821945
0.156624
-0.0061752
0.156989
-0.00498007
0.157303
-0.00319986
0.157559
-0.00255275
0.157761
-0.000962591
0.157921
-0.000701005
0.158047
0.00122661
0.158173
0.00179413
0.158305
0.00464357
0.158462
0.00568199
0.158639
0.00941138
0.158843
0.0105619
0.159054
0.0149705
0.159281
0.0160436
0.159501
0.0210457
0.159728
0.0220182
0.159941
0.0277598
0.160162
0.0286986
0.0354721
0.209724
0.015433
-0.209938
0.209564
0.0143344
0.209535
0.0132931
0.209473
0.0120998
0.209351
0.0106575
0.209204
0.00897413
0.20905
0.00704807
0.208866
0.00486457
0.208639
0.0023778
0.208387
-0.000482707
0.208054
-0.00375997