/*--------------------------------*- C++ -*----------------------------------*\
| =========                 |                                                 |
| \\      /  F ield         | OpenFOAM: The Open Source CFD Toolbox           |
|  \\    /   O peration     | Version:  2512                                  |
|   \\  /    A nd           | Website:  www.openfoam.com                      |
|    \\/     M anipulation  |                                                 |
\*---------------------------------------------------------------------------*/
FoamFile
{
    version     2.0;
    format      ascii;
    arch        "LSB;label=32;scalar=64";
    class       volScalarField;
    location    "12.75";
    object      p;
}
// * * * * * * * * * * * * * * * * * * * * * * * * * * * * * * * * * * * * * //

dimensions      [0 2 -2 0 0 0 0];

internalField   nonuniform List<scalar> 
13248
(
-0.34426
-0.342449
-0.339887
-0.336798
-0.333472
-0.330211
-0.327261
-0.3248
-0.322924
-0.321649
-0.320911
-0.320572
-0.320438
-0.320273
-0.319823
-0.31884
-0.317103
-0.314441
-0.31073
-0.30594
-0.299943
-0.292949
-0.283992
-0.273971
-0.351422
-0.349047
-0.345916
-0.342273
-0.338402
-0.334605
-0.331111
-0.32806
-0.325499
-0.32339
-0.321614
-0.319994
-0.318314
-0.316344
-0.313872
-0.310721
-0.306764
-0.301929
-0.296194
-0.289573
-0.282064
-0.27372
-0.264306
-0.254644
-0.360439
-0.357231
-0.353381
-0.349111
-0.344658
-0.340296
-0.336206
-0.332461
-0.329041
-0.325843
-0.322712
-0.319458
-0.315896
-0.311862
-0.307239
-0.301958
-0.296003
-0.289398
-0.282183
-0.274415
-0.266101
-0.257331
-0.24795
-0.238556
-0.371387
-0.367099
-0.362383
-0.357399
-0.35229
-0.347268
-0.342435
-0.337776
-0.333192
-0.328542
-0.323671
-0.318441
-0.312754
-0.30656
-0.299857
-0.292683
-0.285095
-0.277157
-0.268925
-0.260437
-0.251711
-0.242807
-0.233627
-0.224756
-0.384254
-0.378683
-0.372976
-0.36719
-0.361312
-0.355459
-0.349629
-0.343711
-0.33756
-0.331044
-0.324081
-0.316643
-0.30876
-0.300499
-0.291954
-0.283214
-0.274357
-0.265439
-0.256492
-0.247532
-0.238563
-0.229607
-0.220611
-0.211962
-0.398963
-0.391961
-0.385176
-0.378493
-0.371685
-0.364731
-0.35752
-0.349883
-0.341692
-0.332911
-0.323592
-0.313853
-0.303847
-0.293724
-0.283612
-0.273603
-0.263753
-0.254086
-0.244603
-0.235295
-0.22615
-0.217162
-0.208295
-0.199813
-0.415337
-0.406823
-0.398903
-0.391209
-0.383223
-0.374772
-0.365672
-0.355779
-0.345085
-0.333725
-0.321925
-0.309936
-0.297985
-0.286245
-0.274828
-0.263791
-0.25315
-0.242891
-0.232989
-0.223413
-0.214134
-0.205126
-0.196371
-0.187991
-0.433047
-0.423011
-0.413915
-0.40504
-0.395518
-0.385046
-0.373467
-0.360787
-0.34722
-0.333117
-0.31886
-0.304778
-0.291108
-0.277991
-0.26549
-0.253611
-0.242326
-0.231589
-0.221354
-0.21157
-0.202196
-0.193194
-0.184548
-0.176268
-0.451561
-0.440062
-0.429744
-0.419434
-0.4079
-0.394802
-0.380161
-0.364271
-0.34763
-0.330791
-0.31423
-0.298281
-0.283132
-0.26886
-0.255462
-0.242894
-0.231088
-0.219974
-0.209484
-0.199555
-0.190131
-0.181169
-0.172643
-0.164475
-0.470104
-0.457263
-0.445642
-0.433543
-0.419437
-0.403115
-0.384953
-0.365627
-0.345916
-0.326507
-0.307886
-0.290328
-0.273936
-0.258708
-0.244577
-0.231455
-0.219243
-0.207848
-0.197184
-0.187174
-0.177753
-0.168871
-0.160473
-0.152442
-0.487667
-0.473637
-0.460573
-0.446245
-0.42899
-0.408948
-0.386998
-0.364223
-0.341617
-0.319906
-0.299511
-0.280605
-0.263193
-0.247195
-0.23249
-0.218949
-0.20645
-0.194878
-0.184134
-0.174127
-0.164782
-0.156035
-0.147799
-0.139958
-0.503096
-0.488072
-0.473393
-0.456355
-0.435404
-0.411257
-0.385397
-0.359282
-0.334028
-0.310313
-0.288437
-0.268445
-0.250243
-0.233676
-0.218574
-0.204775
-0.192132
-0.180515
-0.169809
-0.159915
-0.15075
-0.142237
-0.134258
-0.126752
-0.290671
-0.294779
-0.29746
-0.299549
-0.301746
-0.304254
-0.30716
-0.31051
-0.314307
-0.318529
-0.323132
-0.328058
-0.333234
-0.338573
-0.34397
-0.349307
-0.354451
-0.359258
-0.363575
-0.36724
-0.370069
-0.371907
-0.372745
-0.372656
-0.293106
-0.296859
-0.299362
-0.301377
-0.303545
-0.306057
-0.308997
-0.312406
-0.316286
-0.320615
-0.325349
-0.33043
-0.335784
-0.341322
-0.34694
-0.352513
-0.357905
-0.362961
-0.367524
-0.371425
-0.374469
-0.376442
-0.377313
-0.377466
-0.297402
-0.30047
-0.302615
-0.304452
-0.306514
-0.308969
-0.31189
-0.315316
-0.319244
-0.323652
-0.328497
-0.333722
-0.339255
-0.345006
-0.350871
-0.356725
-0.362424
-0.367807
-0.372702
-0.376937
-0.380315
-0.38255
-0.383438
-0.383784
-0.302923
-0.305087
-0.306728
-0.30828
-0.310134
-0.312429
-0.315231
-0.318569
-0.322439
-0.326818
-0.331663
-0.336919
-0.342516
-0.348366
-0.354365
-0.360387
-0.366288
-0.371901
-0.377041
-0.381519
-0.385154
-0.387677
-0.388558
-0.387929
-0.308926
-0.310107
-0.311155
-0.312316
-0.313837
-0.315833
-0.318362
-0.321448
-0.325088
-0.329256
-0.333912
-0.339002
-0.344459
-0.350197
-0.356114
-0.362089
-0.367977
-0.373612
-0.378804
-0.383347
-0.387034
-0.389605
-0.390635
-0.389908
-0.314744
-0.315003
-0.315429
-0.316107
-0.317164
-0.318697
-0.320767
-0.3234
-0.326597
-0.330335
-0.334578
-0.339274
-0.344358
-0.349749
-0.355349
-0.361039
-0.366677
-0.372104
-0.377127
-0.381534
-0.385108
-0.387553
-0.388867
-0.38734
-0.319907
-0.31943
-0.319266
-0.319396
-0.319867
-0.32078
-0.322208
-0.32419
-0.326738
-0.329841
-0.333467
-0.337573
-0.342097
-0.346961
-0.35207
-0.357314
-0.36252
-0.367552
-0.372224
-0.376306
-0.379617
-0.381611
-0.383122
-0.380487
-0.324243
-0.32327
-0.322591
-0.322141
-0.321944
-0.322118
-0.322763
-0.323943
-0.325692
-0.328015
-0.330895
-0.334296
-0.33816
-0.342409
-0.346937
-0.35163
-0.356362
-0.360919
-0.365109
-0.368667
-0.371525
-0.372747
-0.374046
-0.370243
-0.327861
-0.326628
-0.325524
-0.324498
-0.323597
-0.322975
-0.32277
-0.323081
-0.32397
-0.325466
-0.327568
-0.330243
-0.333435
-0.337063
-0.341017
-0.345148
-0.349285
-0.353218
-0.356736
-0.359514
-0.36158
-0.36178
-0.362186
-0.357318
-0.331122
-0.329796
-0.328338
-0.326759
-0.325167
-0.323763
-0.322725
-0.322191
-0.322255
-0.322967
-0.324333
-0.326326
-0.328876
-0.331873
-0.335173
-0.338594
-0.341924
-0.344929
-0.347385
-0.348992
-0.34978
-0.348828
-0.347779
-0.342041
-0.334559
-0.333188
-0.331404
-0.329299
-0.327061
-0.324937
-0.323145
-0.321856
-0.321182
-0.321187
-0.321876
-0.323199
-0.325057
-0.327299
-0.329733
-0.332132
-0.334247
-0.335828
-0.336647
-0.336522
-0.33545
-0.333144
-0.330586
-0.324641
-0.338765
-0.337268
-0.335126
-0.332514
-0.329686
-0.326927
-0.324485
-0.322544
-0.321226
-0.320581
-0.320593
-0.321174
-0.322179
-0.323409
-0.324625
-0.325567
-0.325973
-0.325608
-0.324264
-0.321855
-0.318294
-0.313847
-0.309006
-0.303511
-0.371077
-0.365321
-0.355495
-0.340822
-0.321035
-0.296043
-0.265969
-0.231249
-0.192751
-0.151721
-0.109792
-0.0689887
-0.0311116
0.0022796
0.0299268
0.0511691
0.0660219
0.0750731
0.079286
0.0797612
0.0775708
0.0736785
0.0688085
0.0635041
0.0581297
0.0529168
0.048012
0.0434905
0.0393142
0.0355048
0.0320302
0.0288746
0.0260416
0.0235008
0.0212066
0.0191414
0.0172921
0.0156409
0.0141694
0.0128563
0.0116857
0.0106362
0.00969851
0.00884987
0.00808985
0.00739165
0.00676441
0.00617718
0.00564385
0.00513699
0.00466156
0.00420874
0.00375957
0.00333025
0.00288081
0.00243986
0.00195599
0.00147146
0.000906911
0.000338401
-0.376893
-0.371064
-0.361195
-0.346404
-0.326462
-0.301193
-0.270735
-0.235566
-0.196596
-0.155167
-0.112547
-0.0713465
-0.0329435
0.000697159
0.0285601
0.0499977
0.0650258
0.074247
0.078629
0.0792699
0.0772229
0.0734195
0.0686282
0.0633867
0.0580584
0.0528722
0.0479555
0.0434858
0.0393439
0.0355676
0.0321034
0.0289406
0.0261089
0.0235751
0.0212779
0.0192059
0.0173494
0.0156917
0.0142143
0.012896
0.0117206
0.0106675
0.00972579
0.00887477
0.00811118
0.00741166
0.00678119
0.00619306
0.00565744
0.005149
0.00467303
0.00421733
0.00376908
0.00333639
0.00288817
0.00244366
0.00196195
0.00147202
0.000911353
0.000334568
-0.385672
-0.380432
-0.371217
-0.356956
-0.337462
-0.312508
-0.28221
-0.247022
-0.207901
-0.166583
-0.121691
-0.0802153
-0.0411503
-0.0065815
0.0221836
0.0444771
0.060308
0.07027
0.0753314
0.0765953
0.0750932
0.0717649
0.0673699
0.062453
0.0573943
0.0524407
0.0477361
0.0432191
0.0391065
0.0353773
0.0319671
0.0288471
0.0260729
0.0235794
0.0212967
0.0192317
0.0173786
0.0157221
0.0142441
0.0129246
0.0117472
0.0106924
0.00974819
0.00889591
0.00812954
0.00742936
0.00679612
0.0062075
0.00566986
0.00516011
0.00468383
0.00422541
0.00377825
0.00334234
0.00289545
0.0024475
0.00196803
0.00147277
0.000915923
0.00033088
-0.394853
-0.388465
-0.380865
-0.367259
-0.349007
-0.325085
-0.295667
-0.261134
-0.222301
-0.18046
-0.136808
-0.09424
-0.0542292
-0.0186007
0.0113301
0.0348563
0.0519388
0.0631267
0.069357
0.0717133
0.0711995
0.0686981
0.0649768
0.060603
0.0559714
0.0513385
0.0468487
0.0426129
0.0387101
0.0350873
0.031743
0.0285581
0.0259105
0.0235181
0.0212676
0.0192222
0.0173825
0.0157346
0.0142612
0.0129441
0.0117672
0.0107125
0.00976712
0.0089145
0.00814604
0.00744568
0.00681005
0.00622121
0.0056818
0.00517094
0.00469445
0.00423353
0.00378747
0.00334855
0.00290296
0.00245175
0.0019744
0.00147405
0.000920681
0.000327553
-0.395508
-0.39327
-0.386013
-0.374389
-0.357788
-0.335601
-0.307822
-0.27478
-0.237173
-0.196152
-0.153215
-0.110627
-0.0702495
-0.033883
-0.00290898
0.0218999
0.0404337
0.0531562
0.0609225
0.0647493
0.0656084
0.064283
0.0615259
0.0579319
0.0539197
0.0497695
0.0456669
0.0417281
0.0380251
0.0345696
0.0314181
0.0286216
0.0256027
0.0233794
0.0211881
0.0191767
0.0173603
0.0157285
0.014265
0.0129539
0.0117802
0.0107276
0.00978238
0.0089304
0.00816061
0.00746054
0.00682297
0.00623418
0.00569325
0.00518148
0.00470488
0.00424172
0.00379671
0.00335506
0.00291067
0.00245648
0.00198099
0.00147596
0.000925543
0.000324734
-0.393283
-0.392246
-0.386163
-0.376258
-0.361612
-0.341528
-0.315969
-0.28517
-0.249683
-0.210518
-0.16913
-0.127455
-0.0874355
-0.0508869
-0.0192386
0.00667175
0.0266474
0.0410317
0.0505426
0.0560886
0.0585742
0.0587132
0.0571683
0.0545519
0.051319
0.0477813
0.0441546
0.0405799
0.0371545
0.0339336
0.0309511
0.0282191
0.0258062
0.0232097
0.021057
0.0190958
0.0173121
0.0157036
0.0142551
0.0129537
0.0117859
0.0107373
0.00979368
0.00894333
0.00817301
0.00747376
0.00683472
0.00624626
0.00570407
0.00519165
0.00471497
0.00424992
0.00380582
0.00336185
0.00291843
0.00246169
0.00198768
0.00147856
0.000930388
0.000322575
-0.385714
-0.385172
-0.380575
-0.372647
-0.360079
-0.342204
-0.319071
-0.290882
-0.258133
-0.221699
-0.1828
-0.143055
-0.104266
-0.068221
-0.0363947
-0.00970267
0.0115537
0.0275693
0.0388843
0.0462506
0.0504684
0.0522391
0.0520873
0.0505978
0.0482631
0.0454354
0.042363
0.0392187
0.0361238
0.0331557
0.0303633
0.0277691
0.0253394
0.0230296
0.0208681
0.0189757
0.0172381
0.0156604
0.0142315
0.0129433
0.011784
0.0107414
0.00980089
0.00895316
0.00818316
0.00748519
0.00684522
0.00625733
0.00571418
0.00520138
0.00472462
0.00425811
0.00381469
0.0033689
0.00292614
0.0024674
0.00199434
0.00148193
0.000935098
0.000321274
-0.373744
-0.372801
-0.369569
-0.36361
-0.353011
-0.337389
-0.316952
-0.291716
-0.261991
-0.228652
-0.192962
-0.156122
-0.119517
-0.0847459
-0.0533121
-0.0262398
-0.0039662
0.0135268
0.0265784
0.0357504
0.0417133
0.0451189
0.0464547
0.0461948
0.0448406
0.042791
0.0403326
0.0376687
0.0349443
0.0322603
0.0296815
0.0272434
0.0249312
0.0227039
0.020639
0.0188178
0.0171391
0.0155997
0.0141946
0.0129228
0.0117746
0.0107398
0.00980387
0.00895973
0.00819096
0.00749472
0.00685441
0.00626732
0.00572351
0.00521061
0.00473375
0.00426629
0.00382324
0.00337624
0.00293371
0.00247365
0.00200086
0.00148616
0.000939565
0.000321067
-0.358109
-0.355883
-0.35387
-0.349667
-0.340801
-0.327457
-0.309902
-0.287877
-0.261552
-0.231688
-0.199385
-0.165908
-0.132241
-0.0995
-0.0690705
-0.0420808
-0.0191349
-0.000420167
0.0141845
0.025042
0.0326681
0.0376285
0.040438
0.0414662
0.0411509
0.0399199
0.0381072
0.0359535
0.0336295
0.031256
0.0289142
0.0266541
0.0244836
0.0223556
0.0204995
0.0186225
0.0170126
0.0155212
0.0141441
0.0128919
0.0117575
0.0107324
0.0098026
0.008963
0.00819642
0.00750233
0.00686231
0.00627621
0.00573206
0.00521938
0.00474233
0.00427448
0.0038314
0.00338388
0.00294108
0.00248049
0.00200715
0.00149136
0.000943702
0.000322257
-0.339311
-0.335796
-0.335034
-0.332021
-0.324541
-0.313535
-0.298981
-0.280286
-0.257561
-0.231443
-0.202793
-0.172681
-0.142167
-0.111951
-0.0830902
-0.0566887
-0.033487
-0.0138869
0.00200205
0.014343
0.0234881
0.0298984
0.0340676
0.0364012
0.0372055
0.0368678
0.0357453
0.0341273
0.0322207
0.0301718
0.0280808
0.026012
0.0239928
0.0220234
0.0201768
0.0183827
0.016858
0.015426
0.0140813
0.0128519
0.0117339
0.0107203
0.00979804
0.00896375
0.00820019
0.00750847
0.00686926
0.00628422
0.00573995
0.00522773
0.00475029
0.00428264
0.00383904
0.00339176
0.00294807
0.00248787
0.00201303
0.00149756
0.000947409
0.000325233
-0.319074
-0.315366
-0.315589
-0.312953
-0.306704
-0.298142
-0.286584
-0.27124
-0.252203
-0.229924
-0.205005
-0.17828
-0.150746
-0.123166
-0.0962302
-0.0708477
-0.0477744
-0.0275756
-0.010591
0.00313055
0.0137663
0.0216386
0.0271475
0.030701
0.0326751
0.0333702
0.0330771
0.0321001
0.0306819
0.0290043
0.0271946
0.0253389
0.0234871
0.0216616
0.0198864
0.0183206
0.0166876
0.0153164
0.0140083
0.0128046
0.0117045
0.0107035
0.00978961
0.00896114
0.00820122
0.00751207
0.00687415
0.00629025
0.00574612
0.00523466
0.00475667
0.00428995
0.00384526
0.00339922
0.0029539
0.0024953
0.00201788
0.00150447
0.00095029
0.00033044
-0.30015
-0.2971
-0.296566
-0.292746
-0.287186
-0.280561
-0.271545
-0.259364
-0.24399
-0.225619
-0.204608
-0.181492
-0.156968
-0.131801
-0.106777
-0.0827316
-0.0603089
-0.0400489
-0.0224302
-0.00768259
0.0041984
0.0133875
0.0201759
0.0248949
0.0278703
0.0294446
0.0299514
0.0296523
0.0287847
0.0275444
0.0260774
0.0244874
0.0228423
0.0211833
0.0195589
0.0180077
0.0163864
0.0151421
0.013891
0.0127237
0.0116476
0.0106634
0.00976219
0.00894247
0.0081896
0.00750481
0.00687099
0.00628933
0.00574723
0.0052377
0.00475967
0.00429553
0.00384927
0.00340603
0.00295837
0.00250278
0.00202147
0.00151216
0.000951869
0.000338386
-0.280096
-0.288882
-0.285166
-0.278388
-0.27216
-0.265641
-0.257247
-0.246111
-0.232054
-0.215245
-0.19603
-0.174879
-0.152396
-0.12926
-0.106147
-0.0837512
-0.0627047
-0.0435371
-0.0266697
-0.0123354
-0.000573163
0.0087296
0.015795
0.0209035
0.0243611
0.0264517
0.0274416
0.0275755
0.0270847
0.0261634
0.0249628
0.0235955
0.0221388
0.0206429
0.0191577
0.0177178
0.0164449
0.0149803
0.0137553
0.0126222
0.0115733
0.0106092
0.00972593
0.00891661
0.00817584
0.00749526
0.00687005
0.00629009
0.00575273
0.00524576
0.00476791
0.00430776
0.00385929
0.00341906
0.00296877
0.00251565
0.00202893
0.00152359
0.000954398
0.000348761
-0.257507
-0.268833
-0.266948
-0.259836
-0.252813
-0.246194
-0.238392
-0.228256
-0.215499
-0.200323
-0.18309
-0.164206
-0.144144
-0.123445
-0.102674
-0.0824187
-0.0632382
-0.0455979
-0.0298658
-0.0162769
-0.00491151
0.00428213
0.0114572
0.0168312
0.020645
0.0231317
0.0245265
0.0250586
0.024941
0.0243562
0.0234505
0.0223363
0.0210944
0.0197812
0.0184443
0.017126
0.0158485
0.0145943
0.0134553
0.0123849
0.0113864
0.0104619
0.00961019
0.00882528
0.0081046
0.00743891
0.00682678
0.00625601
0.00572695
0.00522635
0.00475296
0.00429796
0.00385153
0.00341491
0.00296587
0.00251503
0.00202794
0.00152542
0.000953161
0.000353919
-0.236414
-0.248779
-0.248173
-0.241345
-0.234076
-0.227496
-0.220296
-0.211208
-0.199828
-0.186326
-0.171045
-0.154327
-0.136535
-0.118093
-0.0994743
-0.0811818
-0.0637016
-0.0474534
-0.0327774
-0.0199102
-0.00896319
6.87818e-05
0.00728321
0.0128397
0.0169277
0.0197477
0.0215084
0.0224147
0.0226575
0.0224052
0.0217969
0.0209427
0.0199259
0.0188072
0.0176359
0.0164563
0.015305
0.0141665
0.013096
0.0120889
0.0111451
0.0102657
0.00945079
0.00869578
0.0079996
0.00735358
0.00675766
0.0061999
0.00568148
0.00518979
0.00472315
0.00427457
0.00383241
0.00340027
0.00295427
0.0025065
0.00202108
0.00152184
0.000949239
0.00035628
-0.217183
-0.228901
-0.229097
-0.223102
-0.216201
-0.209908
-0.203315
-0.195231
-0.185165
-0.173218
-0.159696
-0.144903
-0.129134
-0.112729
-0.0960802
-0.0796095
-0.0637362
-0.0488357
-0.0352184
-0.0231122
-0.0126454
-0.0038484
0.00332927
0.00899782
0.0133045
0.0164162
0.0185105
0.0197649
0.0203491
0.0204168
0.0200993
0.0195035
0.0187133
0.0177928
0.0167942
0.0157633
0.0147326
0.013697
0.0127079
0.0117696
0.0108837
0.0100517
0.0092762
0.00855312
0.00788345
0.00725865
0.00668049
0.00613699
0.00563026
0.00514853
0.0046893
0.00424796
0.00381055
0.0033835
0.00294081
0.00249675
0.00201309
0.00151767
0.000945116
0.000357833
-0.198452
-0.209496
-0.210391
-0.205364
-0.199105
-0.193256
-0.187261
-0.180095
-0.171241
-0.160726
-0.148807
-0.135759
-0.121832
-0.1073
-0.0924772
-0.0777155
-0.0633717
-0.0497762
-0.0372095
-0.0258872
-0.0159472
-0.00744697
-0.000373306
0.00534348
0.00981242
0.0131662
0.0155513
0.0171195
0.0180198
0.0183909
0.0183545
0.0180129
0.017449
0.0167282
0.015904
0.0150203
0.0141097
0.0131861
0.0122875
0.0114232
0.0105991
0.00981826
0.00908515
0.00839664
0.00775577
0.00715414
0.00659543
0.00606759
0.00557373
0.00510304
0.00465199
0.00421876
0.00378656
0.0033653
0.00292618
0.00248639
0.00200461
0.00151338
0.000941112
0.00035872
-0.180581
-0.191072
-0.192454
-0.188293
-0.182748
-0.177446
-0.172064
-0.165755
-0.158019
-0.148826
-0.138382
-0.126929
-0.114682
-0.101863
-0.0887221
-0.075549
-0.062645
-0.0502979
-0.0387594
-0.0282309
-0.0188536
-0.0107033
-0.0037951
0.00190718
0.00647834
0.0100193
0.0126481
0.014492
0.0156797
0.0163339
0.0165655
0.0164708
0.0161299
0.0156078
0.0149577
0.014224
0.0134422
0.0126342
0.0118302
0.0110444
0.0102863
0.00956042
0.00887315
0.00822231
0.00761289
0.00703683
0.00649953
0.00598917
0.00550963
0.0050513
0.0046095
0.00418535
0.00375911
0.0033444
0.00290937
0.00247441
0.00199495
0.0015082
0.000936831
0.000358729
-0.164053
-0.173725
-0.175373
-0.171966
-0.167152
-0.162456
-0.157707
-0.152206
-0.145498
-0.137517
-0.128421
-0.118419
-0.107696
-0.0964322
-0.0848305
-0.0731254
-0.0615695
-0.0504106
-0.0398723
-0.0301404
-0.0213536
-0.0135989
-0.00691252
-0.00128515
0.00332875
0.00700191
0.00982638
0.011906
0.0133491
0.0142626
0.0147458
0.0148873
0.0147632
0.0144368
0.013961
0.0133807
0.0127319
0.0120406
0.0113349
0.0106319
0.00994379
0.00927652
0.00863848
0.00802843
0.00745319
0.0069052
0.0063914
0.00590044
0.00543678
0.00499225
0.00456087
0.00414685
0.00372746
0.00332009
0.00288981
0.00246027
0.00198377
0.00150172
0.000932106
0.000357897
-0.148595
-0.157374
-0.159195
-0.156471
-0.15237
-0.148296
-0.144173
-0.13943
-0.133658
-0.126776
-0.118904
-0.110215
-0.10087
-0.091017
-0.0808191
-0.0704663
-0.0601677
-0.0501346
-0.0405632
-0.0316221
-0.0234445
-0.0161228
-0.00970758
-0.00421068
0.000389462
0.00414111
0.00711258
0.00938574
0.0110498
0.0121957
0.0129106
0.0132747
0.0133587
0.0132232
0.0129201
0.0124931
0.0119787
0.0114056
0.010802
0.0101855
0.00957094
0.00896583
0.0083803
0.00781411
0.00727578
0.00675839
0.00627022
0.00580067
0.00535451
0.00492531
0.00450559
0.00410282
0.00369125
0.00329204
0.00286728
0.00244375
0.00197093
0.00149381
0.000926928
0.000356379
-0.134074
-0.142091
-0.144036
-0.141899
-0.138445
-0.134964
-0.13144
-0.127396
-0.122473
-0.116582
-0.109812
-0.10231
-0.0942084
-0.0856316
-0.0767107
-0.0675987
-0.0584673
-0.0494947
-0.0408509
-0.0326874
-0.0251288
-0.0182685
-0.0121665
-0.0068498
-0.00231614
0.00146193
0.00453177
0.00695526
0.00880361
0.0101522
0.011076
0.011646
0.0119267
0.0119749
0.01184
0.0115645
0.0111852
0.0107319
0.0102322
0.00970518
0.00916741
0.00862769
0.00809778
0.00757844
0.00707974
0.00659549
0.00613515
0.00568907
0.00526212
0.00484984
0.0044431
0.00405279
0.00365008
0.00325992
0.00284153
0.0024246
0.00195633
0.00148438
0.000921262
0.000354302
-0.120662
-0.127931
-0.129912
-0.128264
-0.125389
-0.122454
-0.119484
-0.116079
-0.11192
-0.106917
-0.101137
-0.0947
-0.087718
-0.0802924
-0.0725291
-0.0645508
-0.0564975
-0.0485179
-0.040758
-0.0333518
-0.0264139
-0.0200352
-0.0142804
-0.00918735
-0.00476844
-0.0010133
0.00210737
0.0046377
0.0066323
0.00815191
0.00925925
0.0100157
0.0104789
0.0107007
0.0107275
0.0106003
0.0103549
0.0100214
0.00962693
0.00919157
0.0087332
0.00826171
0.00779028
0.00732063
0.00686418
0.00641561
0.0059853
0.00556479
0.00515881
0.00476512
0.00437278
0.00399619
0.00360347
0.00322329
0.00281226
0.00240255
0.00193978
0.00147328
0.000915002
0.00035176
-0.108342
-0.114835
-0.116784
-0.115548
-0.113198
-0.110759
-0.108291
-0.105459
-0.101982
-0.0977702
-0.0928733
-0.0873881
-0.0814084
-0.0750172
-0.068299
-0.0613519
-0.0542894
-0.0472344
-0.0403109
-0.0336357
-0.0273124
-0.0214272
-0.0160459
-0.0112131
-0.00695183
-0.00326528
-0.000139149
0.00245523
0.00455755
0.00621494
0.00747828
0.00839927
0.00902802
0.00941114
0.00959132
0.00960689
0.00949244
0.00927733
0.00898837
0.00864595
0.0082689
0.00786798
0.00745752
0.00704015
0.00662843
0.00621797
0.00581988
0.00542704
0.00504385
0.00467046
0.004294
0.00393242
0.00355096
0.00318171
0.00277911
0.00237726
0.00192105
0.00146039
0.000908008
0.000348825
-0.0969697
-0.102753
-0.104653
-0.103777
-0.101867
-0.0998669
-0.0978442
-0.0955192
-0.0926445
-0.0891327
-0.0850175
-0.0803779
-0.0752914
-0.0698251
-0.0640464
-0.0580331
-0.0518764
-0.0456771
-0.0395393
-0.0335636
-0.0278421
-0.0224544
-0.017465
-0.0129217
-0.00885503
-0.00527816
-0.00218892
0.000428288
0.0026001
0.00436126
0.00575153
0.00681306
0.00758837
0.00811823
0.00844099
0.00859187
0.00860341
0.00850404
0.00831971
0.00807043
0.00777575
0.0074471
0.00709963
0.00673679
0.00637205
0.00600199
0.00563823
0.00527512
0.00491655
0.00456516
0.00420613
0.00386093
0.00349203
0.00313471
0.00274174
0.00234845
0.00189992
0.00144557
0.000900128
0.00034555
-0.0865193
-0.0916657
-0.0934887
-0.0928873
-0.0913665
-0.08975
-0.0881214
-0.0862427
-0.0838952
-0.0809962
-0.0775684
-0.0736751
-0.0693798
-0.0647365
-0.0597983
-0.0546263
-0.0492932
-0.0438809
-0.0384758
-0.0331636
-0.0280247
-0.0231313
-0.0185446
-0.0143131
-0.0104714
-0.00704014
-0.00402631
-0.00142506
0.000779122
0.00261009
0.00409736
0.00527399
0.00617487
0.00683475
0.00728726
0.00756401
0.00769499
0.007707
0.00762481
0.0074678
0.00725569
0.00700026
0.00671725
0.00641076
0.00609493
0.00576734
0.00543988
0.00510847
0.00477631
0.00444864
0.00410862
0.00378114
0.00342622
0.00308186
0.00269978
0.0023158
0.00187611
0.00142871
0.000891209
0.000341965
-0.0769901
-0.0815335
-0.0832475
-0.0828694
-0.0816802
-0.0803979
-0.0791071
-0.0776116
-0.0757199
-0.0733534
-0.0705253
-0.0672863
-0.0636876
-0.0597724
-0.0555819
-0.0511637
-0.0465751
-0.0418819
-0.0371551
-0.0324667
-0.027886
-0.0234773
-0.0192969
-0.0153921
-0.0117993
-0.00854383
-0.00563946
-0.00308973
-0.000888314
0.000979287
0.00253346
0.00379881
0.0048029
0.00557434
0.00614185
0.00653314
0.00677527
0.00689267
0.00690861
0.00684176
0.00671139
0.0065293
0.00631153
0.00606267
0.0057973
0.00551393
0.00522455
0.00492667
0.00462266
0.00432036
0.00400094
0.00369256
0.00335307
0.00302273
0.00265286
0.00227905
0.00184936
0.00140969
0.000881101
0.000338074
-0.0683063
-0.0722903
-0.0738849
-0.0736877
-0.0727827
-0.071781
-0.0707777
-0.069608
-0.0681054
-0.0661966
-0.0638875
-0.0612177
-0.0582283
-0.0549533
-0.0514241
-0.0476772
-0.0437573
-0.0397168
-0.0356132
-0.0315064
-0.0274551
-0.0235155
-0.0197385
-0.0161684
-0.0128419
-0.00978648
-0.00702061
-0.00455407
-0.00238786
-0.000515227
0.00107631
0.00240373
0.00348773
0.00435102
0.00501723
0.00550997
0.00585305
0.00606834
0.00617717
0.006197
0.00614635
0.00603676
0.00588422
0.00569365
0.00547981
0.00524204
0.00499225
0.00472952
0.00445527
0.00417991
0.00388266
0.00359474
0.00327214
0.00295695
0.00260062
0.00223792
0.00181941
0.0013884
0.000869671
0.000333863
-0.0603952
-0.0638804
-0.0653538
-0.0652979
-0.0646229
-0.0638598
-0.0630987
-0.0622057
-0.0610346
-0.0595168
-0.0576532
-0.0554748
-0.0530145
-0.0502984
-0.0473504
-0.0441977
-0.0408746
-0.0374223
-0.033887
-0.0303176
-0.0267635
-0.0232726
-0.0198901
-0.0166565
-0.0136071
-0.01077
-0.00816633
-0.00581027
-0.00370837
-0.00186002
-0.000259351
0.00110389
0.00224418
0.00317871
0.00392614
0.00450582
0.00493814
0.00524224
0.00543722
0.00553895
0.00556486
0.0055259
0.00543774
0.00530539
0.00514356
0.00495233
0.00474329
0.00451708
0.00427402
0.00402704
0.00375345
0.00348731
0.00318306
0.00288416
0.00254271
0.00219218
0.001786
0.00136471
0.000856805
0.000329302
-0.0532166
-0.0562547
-0.0576038
-0.0576528
-0.0571683
-0.0566083
-0.0560495
-0.0553846
-0.0544891
-0.0533015
-0.0518177
-0.0500608
-0.0480566
-0.0458254
-0.0433847
-0.0407544
-0.0379603
-0.0350344
-0.0320133
-0.0289364
-0.0258444
-0.022778
-0.019776
-0.0168748
-0.0141073
-0.0115008
-0.00907761
-0.00685459
-0.00484222
-0.00304459
-0.00146112
-8.72191e-05
0.00108608
0.00207088
0.00288124
0.0035323
0.00404086
0.00442322
0.00469622
0.00487382
0.00497195
0.00500071
0.00497516
0.00490017
0.00479019
0.00464588
0.00447835
0.00428968
0.00407902
0.00386169
0.00361313
0.00337004
0.00308552
0.00280409
0.00247885
0.00214161
0.00174891
0.00133852
0.000842413
0.000324357
-0.0467194
-0.0493546
-0.0505802
-0.0507093
-0.0503825
-0.0499843
-0.049589
-0.0491128
-0.0484495
-0.0475397
-0.0463765
-0.0449777
-0.0433636
-0.0415498
-0.0395487
-0.0373746
-0.0350462
-0.0325879
-0.0300283
-0.0273988
-0.0247324
-0.0220628
-0.0194232
-0.0168454
-0.0143589
-0.0119897
-0.00975977
-0.00768739
-0.00578557
-0.00406169
-0.00251925
-0.00115825
2.56319e-05
0.00104004
0.00189472
0.00260083
0.00317169
0.00362067
0.00396231
0.00420852
0.00437341
0.0044659
0.0045002
0.00448087
0.00442187
0.00432426
0.00419851
0.00404802
0.00387065
0.00368402
0.00346169
0.00324281
0.00297933
0.00271655
0.00240877
0.00208603
0.00170794
0.00130969
0.000826425
0.000318996
-0.0408446
-0.0431222
-0.0442293
-0.0444159
-0.0442145
-0.0439523
-0.0436957
-0.0433724
-0.0428957
-0.0422147
-0.0413202
-0.040224
-0.0389415
-0.0374845
-0.0358617
-0.0340829
-0.0321615
-0.0301156
-0.0279669
-0.0257403
-0.023462
-0.0211596
-0.0188608
-0.0165928
-0.0143818
-0.0122513
-0.0102223
-0.00831318
-0.00653846
-0.00490754
-0.00342687
-0.0021001
-0.000926708
9.71832e-05
0.000977603
0.00172216
0.00234083
0.00284404
0.00324406
0.00355053
0.00377563
0.00392683
0.00401726
0.00405101
0.00404133
0.00398954
0.00390528
0.00379318
0.00364963
0.00349448
0.00329932
0.00310572
0.00286444
0.00262144
0.00233234
0.00202531
0.00166297
0.00127815
0.000808796
0.000313191
-0.0355418
-0.037505
-0.0385009
-0.0387285
-0.0386287
-0.0384772
-0.0383299
-0.0381278
-0.0378025
-0.0373105
-0.0366399
-0.0357973
-0.0347943
-0.0336399
-0.0323402
-0.0309015
-0.029333
-0.0276477
-0.0258621
-0.0239951
-0.0220675
-0.0201013
-0.0181193
-0.0161442
-0.0141988
-0.0123037
-0.0104783
-0.00874046
-0.00710499
-0.00558234
-0.0041808
-0.00290668
-0.00176249
-0.000747643
0.0001405
0.000906462
0.00155752
0.00210181
0.00254983
0.00290769
0.00318553
0.00338942
0.00353133
0.00361468
0.00365186
0.00364432
0.00360067
0.00352663
0.003417
0.0032938
0.0031265
0.00295904
0.00274096
0.00251881
0.00224951
0.00195938
0.00161393
0.00124383
0.000789505
0.000306928
-0.0307664
-0.0324534
-0.0333456
-0.0336002
-0.0335805
-0.0335168
-0.0334588
-0.0333585
-0.0331535
-0.0328123
-0.0323242
-0.031692
-0.030923
-0.0300235
-0.0289976
-0.0278493
-0.0265845
-0.0252123
-0.0237446
-0.0221959
-0.0205821
-0.0189205
-0.0172295
-0.0155278
-0.0138345
-0.0121676
-0.0105442
-0.00898109
-0.00749274
-0.00608983
-0.0047816
-0.00357607
-0.00247777
-0.00148826
-0.00060784
0.000164343
0.000832255
0.00140232
0.00188748
0.00228774
0.00261026
0.00285999
0.00304781
0.00317644
0.00325725
0.00329168
0.0032871
0.00325031
0.00317421
0.00308306
0.00294396
0.00280329
0.00260919
0.00240883
0.00216036
0.00188827
0.00156082
0.00120671
0.000768553
0.0003002
-0.0264732
-0.0279185
-0.0287149
-0.0289859
-0.0290286
-0.0290342
-0.0290454
-0.0290236
-0.0289178
-0.0286983
-0.0283584
-0.0278994
-0.0273252
-0.0266391
-0.0258437
-0.0249414
-0.023936
-0.0228336
-0.0216424
-0.0203729
-0.0190372
-0.0176489
-0.0162222
-0.0147724
-0.0133152
-0.0118657
-0.0104387
-0.0090496
-0.00771184
-0.00643583
-0.00523114
-0.00410699
-0.00306965
-0.00212208
-0.00126569
-0.000501785
0.000169672
0.000750027
0.00126668
0.00169997
0.00205801
0.0023456
0.00257276
0.00274144
0.00286183
0.00293522
0.00296753
0.00296657
0.00292312
0.00286371
0.00275278
0.00263927
0.00246968
0.00229188
0.00206514
0.00181211
0.00150373
0.00116683
0.000745968
0.000293013
-0.0226223
-0.0238579
-0.0245675
-0.0248472
-0.0249384
-0.0249984
-0.0250638
-0.0251036
-0.0250755
-0.0249537
-0.0247315
-0.0244122
-0.0239984
-0.0234901
-0.0228874
-0.0221918
-0.0214059
-0.0205339
-0.0195811
-0.0185545
-0.0174632
-0.0163174
-0.0151282
-0.0139076
-0.0126685
-0.0114231
-0.0101837
-0.00896406
-0.0077764
-0.00663009
-0.0055344
-0.00449891
-0.00353086
-0.00263534
-0.00181675
-0.00107888
-0.000424769
0.000123181
0.000690801
0.00115001
0.00153375
0.00185112
0.00211101
0.0023143
0.00246982
0.00257868
0.00264517
0.00267816
0.00266593
0.00263756
0.00255434
0.00246806
0.00232325
0.00216851
0.00196426
0.00173114
0.00144284
0.00112429
0.000721805
0.000285381
-0.0191672
-0.0202204
-0.0208513
-0.0211336
-0.0212617
-0.0213637
-0.0214706
-0.0215574
-0.0215895
-0.0215454
-0.021419
-0.0212136
-0.0209306
-0.0205684
-0.0201261
-0.0196042
-0.0190039
-0.0183273
-0.017578
-0.016761
-0.0158826
-0.0149504
-0.0139728
-0.0129591
-0.0119193
-0.0108633
-0.0098011
-0.00874458
-0.00770453
-0.00668904
-0.00570638
-0.0047658
-0.00387417
-0.0030357
-0.00225375
-0.00153283
-0.000872564
-0.000242719
0.000219353
0.000661027
0.00105388
0.00138907
0.00167229
0.00190274
0.00208743
0.00222715
0.00232413
0.00238844
0.00240539
0.00240684
0.00235041
0.00229107
0.00217097
0.00203954
0.00185835
0.00164575
0.00137844
0.0010793
0.000696145
0.000277311
-0.0161044
-0.0170014
-0.0175612
-0.0178404
-0.0179945
-0.0181276
-0.0182659
-0.0183909
-0.0184753
-0.0185004
-0.0184575
-0.0183425
-0.0181563
-0.0179046
-0.0175908
-0.0172125
-0.016767
-0.0162538
-0.0156758
-0.0150368
-0.0143414
-0.013595
-0.0128032
-0.0119731
-0.0111127
-0.0102295
-0.00933152
-0.00842902
-0.00753143
-0.00664573
-0.00577958
-0.00494211
-0.00414048
-0.0033798
-0.0026641