/*--------------------------------*- C++ -*----------------------------------*\
| =========                 |                                                 |
| \\      /  F ield         | OpenFOAM: The Open Source CFD Toolbox           |
|  \\    /   O peration     | Version:  2512                                  |
|   \\  /    A nd           | Website:  www.openfoam.com                      |
|    \\/     M anipulation  |                                                 |
\*---------------------------------------------------------------------------*/
FoamFile
{
    version     2.0;
    format      ascii;
    arch        "LSB;label=32;scalar=64";
    class       volVectorField;
    location    "12.75";
    object      U;
}
// * * * * * * * * * * * * * * * * * * * * * * * * * * * * * * * * * * * * * //

dimensions      [0 1 -1 0 0 0 0];

internalField   nonuniform List<vector> 
13248
(
(-0.0132562 0.012086 7.3022e-20)
(-0.0257341 0.0264442 0)
(-0.0242792 0.0349005 -1.38022e-19)
(-0.00938147 0.039285 1.30017e-19)
(0.0185864 0.041061 1.21529e-19)
(0.059336 0.0413871 0)
(0.11257 0.0411594 0)
(0.177858 0.0410672 2.93374e-19)
(0.254474 0.0416158 -8.95895e-22)
(0.341238 0.0431275 -2.57282e-19)
(0.436406 0.0457354 2.4063e-19)
(0.53765 0.0493812 -1.50605e-19)
(0.642134 0.0538281 0)
(0.746677 0.05869 -2.6506e-19)
(0.847987 0.0634769 4.97188e-19)
(0.942909 0.0676521 -1.18231e-19)
(1.02867 0.0706991 -2.16437e-19)
(1.1031 0.0721525 2.03183e-19)
(1.16477 0.0717581 0)
(1.21306 0.0690448 0)
(1.24831 0.0648852 0)
(1.27109 0.0563432 0)
(1.28367 0.0514738 6.42931e-20)
(1.28654 0.0289775 2.36526e-19)
(-0.0132697 0.010717 -2.20417e-19)
(-0.0216737 0.0214137 1.5025e-19)
(-0.0125525 0.026584 -1.37784e-21)
(0.0131436 0.0284692 -1.98442e-19)
(0.0548004 0.0287886 -1.21399e-19)
(0.111861 0.0288579 -1.14752e-19)
(0.183553 0.029628 -2.10867e-19)
(0.268651 0.0317426 1.99421e-19)
(0.365273 0.0355607 0)
(0.470763 0.0411555 5.55369e-22)
(0.581746 0.048321 1.07292e-21)
(0.694315 0.0566018 1.50409e-19)
(0.804352 0.0653534 0)
(0.907897 0.0738265 0)
(1.00151 0.0812652 1.8222e-19)
(1.08254 0.0870013 -3.42419e-19)
(1.14938 0.0905324 2.08335e-19)
(1.20145 0.0915712 -1.95594e-19)
(1.23924 0.0900588 -8.72268e-20)
(1.26415 0.0861406 -1.61914e-19)
(1.27808 0.0801881 -6.86518e-20)
(1.28358 0.0723175 -1.29894e-19)
(1.28235 0.0647228 1.8796e-19)
(1.27794 0.0524696 5.43816e-20)
(-0.0123349 0.00902256 0)
(-0.0141509 0.0159938 0)
(0.00581895 0.0184901 7.01805e-20)
(0.0459215 0.0189226 6.46188e-20)
(0.105 0.0191485 -1.59189e-21)
(0.181792 0.0205627 -1.18517e-19)
(0.274452 0.024061 0)
(0.380252 0.0300814 -9.92146e-20)
(0.495473 0.0386287 9.34924e-20)
(0.615527 0.0493014 6.83526e-22)
(0.735319 0.0613571 -1.60851e-19)
(0.849763 0.0738258 -1.48763e-19)
(0.95432 0.0856564 1.66782e-21)
(1.04546 0.0958688 -1.26067e-19)
(1.12096 0.103685 3.00324e-19)
(1.18003 0.108618 0)
(1.2232 0.110504 -2.00185e-19)
(1.2521 0.109474 9.70255e-20)
(1.26915 0.10593 8.71546e-20)
(1.27703 0.100302 0)
(1.27844 0.0934523 7.2806e-20)
(1.27556 0.0851123 -2.52106e-19)
(1.27001 0.078212 2.36666e-19)
(1.26409 0.0666441 1.51413e-19)
(-0.00997393 0.00688643 -7.78363e-20)
(-0.00205831 0.0100672 -8.05052e-20)
(0.0322632 0.0106711 7.28172e-20)
(0.0903657 0.0109728 0)
(0.170105 0.0127756 0)
(0.268877 0.017378 -2.57372e-21)
(0.383 0.0253943 0)
(0.507536 0.03678 -3.03678e-19)
(0.636517 0.0509049 2.82586e-19)
(0.76351 0.0666779 -3.49553e-19)
(0.882387 0.0827411 8.04748e-20)
(0.988069 0.0977035 0)
(1.07708 0.110364 1.36081e-19)
(1.1478 0.119876 -2.52943e-19)
(1.20041 0.125831 6.01899e-20)
(1.23657 0.128245 1.57912e-19)
(1.25896 0.12748 -5.30242e-21)
(1.27071 0.124122 -1.76597e-19)
(1.27488 0.118829 0)
(1.27411 0.112243 0)
(1.27035 0.10494 -6.50856e-20)
(1.2649 0.0970757 5.88751e-20)
(1.25855 0.0901929 2.14597e-19)
(1.25214 0.0801228 -2.01451e-19)
(-0.00573613 0.00435232 -8.20515e-20)
(0.0156108 0.00387166 -8.17724e-20)
(0.0679336 0.00363027 2.29996e-19)
(0.147288 0.00541991 -1.39565e-19)
(0.249926 0.0107119 1.31368e-19)
(0.371108 0.0204093 2.38816e-19)
(0.504559 0.0344905 -1.68893e-19)
(0.642733 0.0520785 -2.06183e-19)
(0.777633 0.0716648 3.56827e-21)
(0.901904 0.0914236 2.64479e-19)
(1.00984 0.109567 0)
(1.09803 0.124655 7.36921e-20)
(1.16549 0.135794 0)
(1.21339 0.14269 -1.2222e-19)
(1.24446 0.145574 1.72097e-19)
(1.26222 0.145039 1.73526e-21)
(1.27031 0.141855 -4.59549e-20)
(1.27195 0.136793 8.70209e-20)
(1.26963 0.130522 7.5456e-20)
(1.26507 0.123542 -6.82601e-20)
(1.25933 0.116245 6.50718e-20)
(1.25297 0.108702 -5.8862e-20)
(1.24627 0.101855 0)
(1.23982 0.0927465 -4.51815e-20)
(0.000780661 0.00161459 8.20397e-20)
(0.0396769 -0.00198662 8.61752e-20)
(0.113559 -0.00164229 -7.70762e-20)
(0.216686 0.00355461 1.43676e-19)
(0.342936 0.0143467 -1.35229e-19)
(0.484631 0.0308039 1.22485e-19)
(0.632473 0.0518351 -5.88092e-20)
(0.776594 0.0754393 1.54766e-19)
(0.908077 0.0992056 -9.74546e-20)
(1.02032 0.120845 1.73877e-19)
(1.10982 0.138619 -4.02294e-19)
(1.17613 0.15157 1.48246e-19)
(1.22136 0.159531 -1.31243e-19)
(1.24918 0.162959 1.23276e-19)
(1.26386 0.162683 1.07966e-19)
(1.26945 0.15965 9.59028e-20)
(1.26929 0.154734 -2.66989e-19)
(1.26579 0.148632 1.66178e-19)
(1.26053 0.141842 -7.54604e-20)
(1.25443 0.134698 1.98801e-19)
(1.24798 0.12741 -6.41095e-20)
(1.2414 0.120076 -1.58691e-19)
(1.2348 0.113173 1.46905e-19)
(1.2284 0.104781 4.51677e-20)
(0.0099139 -0.00101041 0)
(0.0706763 -0.00660381 7.69457e-22)
(0.169251 -0.00380011 1.61377e-19)
(0.297491 0.00692926 -1.51307e-19)
(0.446092 0.0250637 -1.36622e-19)
(0.603925 0.0493123 2.54077e-19)
(0.758928 0.0771513 -1.18068e-19)
(0.900128 0.105427 1.57951e-19)
(1.01953 0.131168 -3.1046e-21)
(1.11315 0.152201 -8.98959e-20)
(1.18087 0.167431 1.97708e-19)
(1.22559 0.176792 -2.92504e-19)
(1.25187 0.18097 0)
(1.26469 0.181043 -5.81926e-20)
(1.26856 0.178151 -1.5674e-19)
(1.267 0.173292 4.91573e-20)
(1.26245 0.167219 1.69526e-21)
(1.25646 0.160453 -1.11211e-19)
(1.24988 0.153322 5.87061e-21)
(1.24314 0.14603 1.29153e-19)
(1.23643 0.138703 -5.84564e-20)
(1.22981 0.131428 -2.26748e-20)
(1.22326 0.124382 6.89315e-20)
(1.21688 0.116515 0)
(0.0219039 -0.00311318 0)
(0.108742 -0.00888365 4.37631e-20)
(0.234317 -0.00135054 -2.10632e-19)
(0.387411 0.0170282 7.66633e-20)
(0.554944 0.0438329 -7.21515e-20)
(0.722463 0.0759403 -6.61013e-20)
(0.876349 0.109314 -1.17104e-19)
(1.00647 0.140027 5.827e-20)
(1.10772 0.165216 5.08482e-20)
(1.1799 0.183481 0)
(1.2265 0.194786 1.17515e-19)
(1.25295 0.200039 -1.75757e-19)
(1.26502 0.200593 1.30984e-19)
(1.2678 0.197831 5.82236e-20)
(1.26514 0.192919 -4.83079e-20)
(1.25964 0.186714 -4.09751e-20)
(1.25288 0.179786 -3.85862e-20)
(1.24571 0.172484 1.14199e-19)
(1.23856 0.165016 0)
(1.23158 0.157505 5.85787e-20)
(1.22481 0.150031 5.01085e-20)
(1.21823 0.142659 -1.235e-19)
(1.21179 0.135409 -8.59064e-20)
(1.20549 0.127889 7.92779e-20)
(0.0368449 -0.00421889 -4.73181e-20)
(0.153493 -0.0076569 -1.84845e-21)
(0.307155 0.00711526 4.28989e-20)
(0.483012 0.0349551 1.20095e-19)
(0.66415 0.0709316 3.50655e-20)
(0.833825 0.109887 -6.76998e-20)
(0.978845 0.146633 6.18233e-20)
(1.09201 0.177214 -5.43626e-20)
(1.17238 0.199618 9.78604e-20)
(1.22371 0.213683 4.19699e-20)
(1.25228 0.220506 -1.19102e-19)
(1.2648 0.221764 3.52819e-20)
(1.26712 0.219155 6.07178e-20)
(1.26363 0.214091 -2.9797e-20)
(1.25724 0.207587 0)
(1.24966 0.200305 4.52314e-20)
(1.2418 0.192636 7.72181e-20)
(1.23409 0.184804 1.371e-20)
(1.22669 0.176937 -6.48159e-20)
(1.21963 0.169111 2.73837e-20)
(1.21288 0.161383 0)
(1.20637 0.153783 -2.18432e-20)
(1.20005 0.146283 -2.09232e-20)
(1.19384 0.138929 0)
(0.0546285 -0.00382033 0)
(0.203946 -0.00180663 2.48146e-20)
(0.385282 0.022716 4.59481e-20)
(0.580054 0.0612245 -1.22616e-19)
(0.768267 0.105889 3.96438e-20)
(0.932768 0.149767 0)
(1.06301 0.187306 5.99259e-20)
(1.15624 0.215384 -8.37316e-20)
(1.21595 0.233407 -4.89239e-20)
(1.24914 0.24257 2.21534e-20)
(1.26361 0.244914 -3.58411e-20)
(1.26627 0.242557 8.68298e-20)
(1.2623 0.23726 4.38752e-20)
(1.25509 0.230283 -3.03069e-20)
(1.24666 0.222431 -2.64858e-21)
(1.23802 0.214171 -8.45644e-20)
(1.22965 0.205759 3.86204e-20)
(1.22171 0.197334 -1.0091e-21)
(1.21424 0.188974 0)
(1.20721 0.180732 -2.74125e-20)
(1.20054 0.172642 0)
(1.19416 0.164706 6.30361e-20)
(1.18799 0.156924 -7.53649e-20)
(1.1819 0.149558 3.44795e-20)
(0.0748985 -0.00141757 -1.29897e-20)
(0.258512 0.00961396 -6.26499e-20)
(0.465506 0.0461304 7.13486e-20)
(0.673999 0.095691 4.19767e-20)
(0.862524 0.147619 -2.00083e-20)
(1.01582 0.193944 3.38118e-20)
(1.1278 0.229751 -1.63827e-20)
(1.20071 0.253484 2.74081e-20)
(1.24192 0.266199 0)
(1.26047 0.270302 6.26065e-20)
(1.26462 0.268451 -2.45439e-21)
(1.26069 0.262904 -5.07772e-20)
(1.25285 0.255288 2.18665e-20)
(1.24355 0.246634 -2.48424e-20)
(1.23406 0.237533 -9.58897e-21)
(1.22493 0.228297 1.09519e-20)
(1.21635 0.219087 -8.54428e-21)
(1.20838 0.209986 -4.67489e-20)
(1.20096 0.201045 2.86706e-20)
(1.19405 0.192298 5.92705e-21)
(1.18754 0.183759 5.25593e-21)
(1.18134 0.175416 4.66408e-21)
(1.17535 0.167334 0)
(1.16942 0.159772 0)
(0.0971077 0.00344801 1.29987e-20)
(0.3152 0.027293 -1.3002e-20)
(0.54439 0.077512 -2.37955e-20)
(0.760699 0.137594 0)
(0.943409 0.194655 -9.9545e-21)
(1.0813 0.240818 -9.00205e-21)
(1.17377 0.272766 -1.54408e-20)
(1.22779 0.290931 0)
(1.25352 0.29796 0)
(1.26093 0.29716 0)
(1.2579 0.291483 0)
(1.24977 0.2831 0)
(1.2397 0.2734 -1.37622e-20)
(1.22932 0.263174 6.2756e-21)
(1.21936 0.252831 1.09804e-20)
(1.21008 0.242568 5.14712e-21)
(1.20153 0.232479 1.28217e-20)
(1.19367 0.222615 0)
(1.18644 0.213006 -3.12283e-21)
(1.17974 0.203672 -3.00462e-21)
(1.17349 0.194609 -5.26433e-21)
(1.16758 0.185809 -4.67155e-21)
(1.16187 0.177411 0)
(1.15621 0.169489 3.41495e-21)
(-0.00287287 0.00469531 7.65968e-21)
(-0.0133438 0.0105426 -8.00191e-21)
(-0.0317442 0.0139787 -1.52193e-20)
(-0.0540595 0.0158071 0)
(-0.0781998 0.0165602 -2.05524e-20)
(-0.103217 0.0166061 6.45386e-21)
(-0.128505 0.0161975 -1.23514e-20)
(-0.15367 0.0154938 0)
(-0.178482 0.0145846 0)
(-0.202801 0.0135125 0)
(-0.226529 0.0122929 0)
(-0.24958 0.0109275 0)
(-0.271865 0.00941379 3.69544e-23)
(-0.293284 0.00775007 -8.73215e-21)
(-0.313728 0.00593783 1.68734e-20)
(-0.333074 0.00398308 2.41666e-20)
(-0.351191 0.0018968 7.76526e-21)
(-0.367946 -0.000304693 0)
(-0.383217 -0.00259947 6.93735e-21)
(-0.396879 -0.00496154 -1.96796e-20)
(-0.408788 -0.00736564 -1.24584e-20)
(-0.418826 -0.00978382 -1.17544e-20)
(-0.427124 -0.0121594 0)
(-0.434088 -0.0144258 0)
(-0.00365149 0.0124679 -2.31229e-20)
(-0.0145289 0.0283598 4.00157e-20)
(-0.0322414 0.0382594 -1.5171e-20)
(-0.053318 0.0442248 -2.9038e-20)
(-0.075916 0.0475544 4.10292e-20)
(-0.0991774 0.0491315 -2.61732e-20)
(-0.12253 0.049571 3.6967e-20)
(-0.145588 0.0492757 2.3648e-20)
(-0.168106 0.0484863 0)
(-0.189926 0.0473281 -2.15649e-20)
(-0.21093 0.0458518 -6.14071e-22)
(-0.231011 0.044064 1.904e-20)
(-0.250064 0.0419503 2.79056e-20)
(-0.267976 0.0394887 3.57371e-20)
(-0.284623 0.0366588 -1.63048e-20)
(-0.29987 0.0334469 -4.81109e-20)
(-0.313576 0.0298501 1.56827e-20)
(-0.325595 0.0258797 -5.86254e-20)
(-0.335791 0.0215661 0)
(-0.344045 0.01696 1.31471e-20)
(-0.350212 0.0121233 1.24394e-20)
(-0.354097 0.00712788 1.1736e-20)
(-0.355752 0.00212745 0)
(-0.356135 -0.00262758 0)
(-0.00498635 0.0189046 0)
(-0.0165001 0.0435236 8.14075e-20)
(-0.0328154 0.0593757 -3.07022e-20)
(-0.0514373 0.0693562 2.92174e-20)
(-0.070972 0.0753112 -8.30477e-20)
(-0.0907281 0.0785227 0)
(-0.110205 0.0799063 -5.01835e-20)
(-0.129034 0.0800819 2.35801e-20)
(-0.146955 0.0794368 -4.54203e-20)
(-0.163777 0.078187 2.18489e-20)
(-0.179351 0.0764309 1.24111e-19)
(-0.193541 0.0741929 -5.83097e-20)
(-0.20622 0.0714567 -9.41891e-20)
(-0.217259 0.0681877 -3.71693e-20)
(-0.226526 0.0643473 -1.14185e-21)
(-0.233882 0.0599026 1.3052e-19)
(-0.239182 0.054834 -6.17745e-20)
(-0.242276 0.0491429 -3.60607e-22)
(-0.243016 0.0428615 0)
(-0.241279 0.0360674 -5.39165e-20)
(-0.236942 0.0288931 0)
(-0.229685 0.0215263 -4.77068e-20)
(-0.219036 0.0142586 1.80252e-19)
(-0.206357 0.00763839 2.15534e-22)
(-0.00660385 0.0233724 0)
(-0.0189092 0.0546699 5.20216e-22)
(-0.0334069 0.075574 3.14392e-20)
(-0.0487745 0.0892543 -2.9913e-20)
(-0.0641757 0.0978013 2.74621e-20)
(-0.0791436 0.102727 1.59622e-19)
(-0.0932912 0.105152 -5.01814e-20)
(-0.106296 0.105865 -4.8135e-20)
(-0.117902 0.105386 9.11739e-20)
(-0.127904 0.104027 -1.30785e-19)
(-0.13613 0.101952 4.10255e-20)
(-0.142429 0.0992207 3.96849e-20)
(-0.146666 0.0958348 0)
(-0.148715 0.0917619 3.59241e-20)
(-0.148459 0.0869565 0)
(-0.145782 0.0813706 6.60245e-20)
(-0.140573 0.0749633 -1.26661e-19)
(-0.132717 0.0677075 2.80607e-20)
(-0.122092 0.0595983 1.1326e-19)
(-0.108589 0.05067 5.38414e-20)
(-0.092151 0.041027 0)
(-0.0726004 0.0309096 -1.45256e-19)
(-0.0487849 0.0209147 4.53849e-20)
(-0.0189702 0.0122455 0)
(-0.00819799 0.025626 0)
(-0.021355 0.0611141 -1.00238e-19)
(-0.033958 0.0857969 -3.19698e-20)
(-0.0457874 0.102576 -6.00001e-20)
(-0.0565626 0.113482 5.64976e-20)
(-0.0660663 0.120078 -5.33592e-20)
(-0.074063 0.12357 1.02243e-19)
(-0.0803194 0.124854 4.91128e-20)
(-0.0846243 0.124553 -1.37132e-19)
(-0.0867914 0.123069 8.8098e-20)
(-0.0866582 0.120638 -1.25069e-19)
(-0.0840845 0.117377 2.7921e-19)
(-0.0789508 0.113323 -1.50633e-19)
(-0.0711556 0.108467 7.24616e-20)
(-0.0606134 0.102776 2.08796e-19)
(-0.0472506 0.0962034 -6.37904e-20)
(-0.0309999 0.0886984 -6.09941e-20)
(-0.0118036 0.0802216 -5.93229e-20)
(0.0104013 0.0707337 0)
(0.0356797 0.0602039 -1.09235e-19)
(0.0640422 0.048626 -1.042e-19)
(0.0955408 0.0361174 1.45482e-19)
(0.130737 0.0233742 1.83007e-19)
(0.174672 0.0118923 -1.72187e-19)
(-0.00951994 0.0258164 0)
(-0.023494 0.0629214 -1.36474e-19)
(-0.0344303 0.0898144 -6.13745e-22)
(-0.0429295 0.108752 1.21003e-19)
(-0.049164 0.121482 0)
(-0.053154 0.129464 0)
(-0.0548383 0.133886 0)
(-0.0541117 0.135673 -4.90019e-20)
(-0.0508519 0.135508 -9.78016e-22)
(-0.0449348 0.133863 8.72262e-20)
(-0.036245 0.131043 -1.26505e-19)
(-0.0246809 0.127224 -8.94939e-22)
(-0.0101578 0.122492 0)
(0.00739295 0.116875 -7.24115e-20)
(0.0280238 0.110367 7.00522e-20)
(0.0517714 0.102935 -1.96209e-19)
(0.0786929 0.0945206 2.51899e-19)
(0.108818 0.0851044 6.21864e-20)
(0.142174 0.0746453 2.85098e-21)
(0.178811 0.0631005 -2.14949e-19)
(0.218681 0.0504307 -1.01691e-19)
(0.262274 0.0366339 3.38281e-19)
(0.30691 0.0218353 -2.2664e-19)
(0.368479 0.00816763 0)
(-0.0104452 0.0244157 6.74742e-20)
(-0.025129 0.060823 6.84521e-20)
(-0.0348194 0.088212 -6.5273e-20)
(-0.0405392 0.108065 -1.22477e-19)
(-0.0427529 0.12175 1.15319e-19)
(-0.0416744 0.130532 -1.09161e-19)
(-0.0374145 0.135502 1.5421e-19)
(-0.0300155 0.137553 -4.90528e-20)
(-0.0194723 0.137378 9.19292e-20)
(-0.00575167 0.135489 0)
(0.011194 0.132238 8.4068e-20)
(0.0314179 0.127853 -1.56705e-19)
(0.0549742 0.122469 1.51714e-19)
(0.0819195 0.116152 -1.4249e-19)
(0.112309 0.108923 0)
(0.146155 0.100762 1.30141e-19)
(0.183545 0.0916803 2.49064e-19)
(0.224568 0.0816452 -2.34637e-19)
(0.269238 0.0706052 -1.11235e-19)
(0.317648 0.0585445 -1.08568e-19)
(0.369221 0.045355 3.02529e-19)
(0.426361 0.0313864 9.48194e-20)
(0.479204 0.0156223 -8.86541e-20)
(0.560574 0.00122827 8.23953e-20)
(-0.0110077 0.0220653 -6.74833e-20)
(-0.0262591 0.0559852 2.09531e-19)
(-0.0351412 0.0822179 -6.61014e-20)
(-0.0387213 0.101585 1.23422e-19)
(-0.0375863 0.115105 -1.16206e-19)
(-0.0320811 0.123836 3.86284e-23)
(-0.0224576 0.128739 5.1498e-20)
(-0.0088903 0.130636 1.95013e-19)
(0.0085167 0.130195 1.14658e-21)
(0.0297166 0.127932 -8.68016e-20)
(0.0547073 0.124226 0)
(0.0835223 0.119341 -7.88651e-20)
(0.116221 0.11345 1.4805e-19)
(0.15288 0.106655 1.42535e-19)
(0.193599 0.0990144 -6.7048e-20)
(0.238495 0.0905657 -1.10918e-21)
(0.287624 0.0813164 -6.1526e-20)
(0.340971 0.071215 1.14748e-19)
(0.398459 0.0602371 1.11206e-19)
(0.460251 0.0484918 -1.05456e-19)
(0.524461 0.0355702 9.73957e-20)
(0.596374 0.0227966 -9.15811e-20)
(0.656752 0.00727495 0)
(0.756384 -0.00537715 -8.23105e-20)
(-0.0113616 0.0194089 6.87144e-20)
(-0.0270209 0.0497103 -7.01582e-20)
(-0.035353 0.0734019 6.65289e-20)
(-0.0372091 0.0909359 0)
(-0.0331655 0.103116 0)
(-0.0236283 0.110844 1.09964e-19)
(-0.00893179 0.114968 -1.03188e-19)
(0.010674 0.116228 9.72354e-20)
(0.0350331 0.115252 -4.57635e-19)
(0.064077 0.112543 -4.12855e-22)
(0.0978108 0.108486 8.13469e-20)
(0.136298 0.103371 0)
(0.17964 0.0973996 -1.47648e-19)
(0.227944 0.0907085 2.78891e-19)
(0.28128 0.0833793 -1.9848e-19)
(0.339653 0.0754551 -3.16742e-19)
(0.402953 0.0669246 -2.76449e-21)
(0.470889 0.0578091 2.23163e-19)
(0.542839 0.048057 0)
(0.618637 0.0379389 0)
(0.694902 0.0266009 -9.73888e-20)
(0.778316 0.0164983 9.15736e-20)
(0.843973 0.00239809 -3.36769e-19)
(0.950985 -0.00602805 3.15605e-19)
(-0.011707 0.0169487 0)
(-0.027555 0.0431293 0)
(-0.0352076 0.063314 -1.99957e-19)
(-0.0352086 0.0779518 6.35239e-20)
(-0.0280472 0.0878136 5.41954e-22)
(-0.0141228 0.0937399 1.10626e-19)
(0.00622872 0.096508 0)
(0.0327693 0.0968054 -9.68381e-20)
(0.0653725 0.0952208 9.13492e-20)
(0.104011 0.0922409 -1.71424e-19)
(0.148724 0.0882528 -4.45775e-22)
(0.199572 0.0835513 1.53674e-19)
(0.256579 0.0783465 1.21992e-21)
(0.319665 0.0727761 1.393e-19)
(0.388582 0.0669154 -1.94564e-19)
(0.462847 0.0607907 0)
(0.541703 0.0543841 2.35182e-19)
(0.62411 0.0476659 -3.32958e-19)
(0.708614 0.0405268 1.03183e-19)
(0.794086 0.0331745 0)
(0.876807 0.0246862 9.10456e-20)
(0.961166 0.0176128 3.47471e-19)
(1.02612 0.00575983 -3.26097e-19)
(1.12026 0.0016016 -3.7249e-19)
(-0.0121827 0.0149454 2.09834e-19)
(-0.0278241 0.0369719 -2.88039e-19)
(-0.0340928 0.053168 7.91034e-22)
(-0.0313003 0.0643067 6.38639e-20)
(-0.0198314 0.0713005 -1.18688e-19)
(-2.26952e-05 0.075028 -1.10331e-19)
(0.0278613 0.0762624 2.06413e-19)
(0.0636566 0.0756731 -6.48271e-22)
(0.107289 0.0738301 -1.81929e-19)
(0.158721 0.0712031 3.41947e-19)
(0.217876 0.0681604 9.66333e-22)
(0.284547 0.0649706 -1.51394e-19)
(0.358301 0.0618064 0)
(0.438403 0.0587483 0)
(0.523768 0.0557917 -6.46167e-20)
(0.612944 0.0528562 -1.20011e-19)
(0.704151 0.0498062 -2.29544e-19)
(0.795342 0.046445 2.15463e-19)
(0.884315 0.0426135 -1.03228e-19)
(0.968946 0.0380684 1.90367e-19)
(1.04659 0.0325917 -9.19848e-20)
(1.11778 0.0268885 1.64431e-19)
(1.17227 0.0175303 -3.85833e-19)
(1.23573 0.0140899 7.3383e-20)
(-0.0127682 0.0133924 7.06755e-20)
(-0.0274588 0.0314724 0)
(-0.0309415 0.0436526 1.36177e-19)
(-0.0234898 0.0512263 -1.28281e-19)
(-0.00542456 0.0553643 1.188e-19)
(0.0229922 0.0570635 0)
(0.061566 0.0571461 0)
(0.110146 0.0562914 -9.68681e-20)
(0.168547 0.0550524 5.60104e-22)
(0.236432 0.0538577 8.54074e-20)
(0.313191 0.0530082 -8.01423e-20)
(0.39783 0.052673 1.50734e-19)
(0.488908 0.0528878 0)
(0.58453 0.0535621 2.68467e-19)
(0.68241 0.0544935 -5.04979e-19)
(0.779979 0.05539 3.57531e-19)
(0.874551 0.0559138 2.23381e-19)
(0.963482 0.0556642 -2.09688e-19)
(1.04442 0.0544191 0)
(1.11529 0.051518 0)
(1.17492 0.0476768 0)
(1.22253 0.0408508 0)
(1.2572 0.0339988 7.49899e-20)
(1.28725 0.0256242 -2.66792e-19)
(-0.44049 -0.0170996 -7.20759e-21)
(-0.446317 -0.0213417 7.22572e-21)
(-0.444784 -0.0245866 -2.13719e-22)
(-0.437537 -0.0275951 0)
(-0.422922 -0.0298769 -5.57188e-21)
(-0.400799 -0.0314109 1.03527e-20)
(-0.370532 -0.031898 -5.52128e-22)
(-0.331775 -0.0311861 -4.12768e-21)
(-0.284378 -0.0292418 0)
(-0.228581 -0.0260103 0)
(-0.164863 -0.0217099 -1.05832e-22)
(-0.0943434 -0.0163768 -6.49223e-23)
(-0.018265 -0.0106075 -2.39813e-22)
(0.0615434 -0.00448656 2.05066e-22)
(0.142805 0.00135961 0)
(0.223601 0.00660483 0)
(0.30196 0.0110153 -9.0428e-22)
(0.376237 0.014463 -8.31405e-23)
(0.445293 0.0169486 8.74893e-22)
(0.508449 0.0185824 5.85081e-23)
(0.565427 0.0196049 0)
(0.616361 0.0201797 0)
(0.661626 0.0204214 0)
(0.701742 0.0204578 0)
(0.737313 0.0203884 0)
(0.768945 0.0202974 0)
(0.797155 0.0202806 -1.62754e-22)
(0.822476 0.020234 2.65208e-22)
(0.845362 0.0202766 0)
(0.866057 0.0204235 0)
(0.884751 0.0206496 1.30941e-22)
(0.901533 0.0209997 -1.27261e-22)
(0.916405 0.021439 -5.29134e-23)
(0.929363 0.0219289 0)
(0.940449 0.022441 0)
(0.949776 0.0229694 -6.79424e-23)
(0.95754 0.0235317 6.60438e-23)
(0.963965 0.0241772 0)
(0.969294 0.0249213 -4.62947e-23)
(0.973715 0.0258285 6.64348e-23)
(0.977426 0.0268088 -1.8935e-23)
(0.980524 0.028028 0)
(0.983174 0.0291404 2.83905e-23)
(0.985398 0.0307354 -2.76068e-23)
(0.987353 0.0317787 0)
(0.989007 0.0339786 0)
(0.990494 0.0346751 8.85851e-24)
(0.991781 0.0378493 -2.5077e-23)
(0.992938 0.0379613 0)
(0.993977 0.0423309 0)
(0.994909 0.0419913 5.43728e-24)
(0.995746 0.0473231 1.72898e-28)
(0.996538 0.0470399 5.09606e-25)
(0.997238 0.0531154 -3.51979e-24)
(0.997867 0.0529162 0)
(0.998583 0.0602815 0)
(0.998988 0.0597849 0)
(0.999791 0.068669 0)
(1.00002 0.0683354 0)
(1.00096 0.0785549 0)
(-0.356235 -0.00834225 -7.19307e-22)
(-0.362689 -0.020078 -2.88237e-20)
(-0.360486 -0.0304748 1.15535e-21)
(-0.353334 -0.0411809 2.59386e-20)
(-0.339532 -0.0512967 3.75516e-22)
(-0.318883 -0.0607041 0)
(-0.290783 -0.0690091 -1.7046e-20)
(-0.254912 -0.0758328 3.12528e-20)
(-0.211164 -0.0808312 -1.41966e-20)
(-0.159793 -0.0837081 8.43383e-21)
(-0.100836 -0.0849779 -8.09103e-21)
(-0.0356449 -0.0827621 3.03767e-21)
(0.0347641 -0.0783386 -2.99667e-21)
(0.108813 -0.0720282 -5.17897e-24)
(0.184003 -0.064201 2.13162e-21)
(0.258895 -0.0553892 -2.07141e-21)
(0.3317 -0.046218 3.57967e-21)
(0.40091 -0.0372737 -3.36554e-21)
(0.465448 -0.029016 3.89561e-21)
(0.524718 -0.0217436 -7.48071e-21)
(0.578471 -0.0154547 3.59037e-21)
(0.626697 -0.0101167 2.02246e-22)
(0.6697 -0.00567925 2.86098e-21)
(0.707961 -0.00202991 -5.3377e-21)
(0.742022 0.000965052 2.48532e-21)
(0.772451 0.00342507 -1.30804e-22)
(0.799676 0.00544498 -1.82509e-21)
(0.824201 0.00738328 1.10692e-22)
(0.846491 0.00910585 2.87883e-21)
(0.866732 0.0107076 -2.52881e-21)
(0.885112 0.0121982 1.16638e-21)
(0.901713 0.0137016 -1.20905e-22)
(0.916495 0.0152175 5.30209e-23)
(0.92943 0.016729 -9.31883e-23)
(0.940535 0.0181783 0)
(0.949897 0.0195263 0)
(0.9577 0.0207744 2.40008e-22)
(0.964161 0.0219742 -1.77886e-22)
(0.969523 0.0231563 -1.37275e-22)
(0.973975 0.0244072 -4.82235e-24)
(0.977714 0.0256559 1.78636e-22)
(0.980842 0.0270881 -3.36508e-23)
(0.98352 0.0283647 0)
(0.985772 0.030095 0)
(0.987754 0.0312361 0)
(0.989434 0.0335265 0)
(0.990952 0.0342788 -3.71903e-23)
(0.992261 0.0375178 1.64772e-23)
(0.993455 0.0376633 0)
(0.994517 0.0420766 0)
(0.995485 0.0417649 0)
(0.996359 0.0471205 9.0164e-24)
(0.997174 0.0468619 -1.03426e-24)
(0.997931 0.0529551 7.52742e-24)
(0.998577 0.0527668 0)
(0.99936 0.0601508 0)
(0.999785 0.0596608 -3.58161e-24)
(1.00067 0.0685529 -8.44783e-24)
(1.00091 0.0682259 0)
(1.00195 0.078453 0)
(-0.196365 0.00102983 2.43225e-22)
(-0.200349 -0.018125 -6.07093e-20)
(-0.195797 -0.0348515 5.70372e-20)
(-0.186741 -0.0524746 -5.3326e-20)
(-0.172169 -0.0694735 -3.77992e-22)
(-0.151845 -0.085941 0)
(-0.125245 -0.101357 -3.67867e-20)
(-0.0920873 -0.115149 3.60029e-20)
(-0.0523545 -0.126706 2.05696e-22)
(-0.0070136 -0.1354 3.43107e-22)
(0.0455324 -0.140426 2.48414e-22)
(0.104046 -0.141605 1.41531e-22)
(0.165534 -0.138729 -2.80183e-21)
(0.229628 -0.132551 2.72793e-21)
(0.294491 -0.123102 0)
(0.358607 -0.111165 -1.32002e-22)
(0.420551 -0.0977421 6.75257e-21)
(0.479161 -0.0838442 -6.67487e-21)
(0.533623 -0.0703462 0)
(0.583544 -0.057904 0)
(0.628831 -0.0468754 6.9904e-21)
(0.669525 -0.0373142 -1.3229e-20)
(0.705896 -0.029158 1.17238e-20)
(0.738358 -0.0222983 -5.84971e-22)
(0.767364 -0.0165759 -9.30762e-21)
(0.793357 -0.0118184 8.5305e-21)
(0.816869 -0.00787052 -7.19797e-21)
(0.838221 -0.00435618 5.28255e-22)
(0.85764 -0.00132952 3.02062e-21)
(0.875405 0.0013318 0)
(0.891695 0.0040073 0)
(0.906591 0.00667192 -6.82247e-22)
(0.920027 0.00920474 8.98318e-22)
(0.931946 0.0116625 1.13731e-25)
(0.942304 0.013995 -6.26045e-22)
(0.951141 0.0161265 6.08411e-22)
(0.958588 0.0180368 0)
(0.964819 0.0197754 -5.5637e-23)
(0.970037 0.0213853 -4.23402e-22)
(0.974408 0.0229734 7.80954e-22)
(0.978106 0.0244863 -3.21221e-22)
(0.98122 0.0261293 -3.39098e-23)
(0.983899 0.0275689 2.8935e-22)
(0.986164 0.0294343 -2.22981e-22)
(0.988165 0.0306731 -4.7279e-23)
(0.989864 0.0330543 -4.20117e-23)
(0.991412 0.0338624 3.72849e-23)
(0.992741 0.0371665 0)
(0.993972 0.037345 0)
(0.995055 0.041803 1.01929e-22)
(0.996059 0.0415178 -4.83877e-23)
(0.996971 0.0468996 4.04135e-23)
(0.997808 0.0466635 -5.26972e-23)
(0.998623 0.052777 -5.84784e-23)
(0.999286 0.0525984 1.37256e-23)
(1.00014 0.0600035 -2.0909e-23)
(1.00058 0.0595191 1.63867e-23)
(1.00154 0.0684229 -6.99437e-24)
(1.0018 0.0681015 0)
(1.00294 0.0783404 0)
(-0.00182268 0.00194346 -1.2864e-19)
(-0.00227711 -0.0183522 3.2158e-21)
(0.00715111 -0.0402749 1.1894e-19)
(0.0190833 -0.0630279 -8.57093e-22)
(0.0355294 -0.0854788 0)
(0.0561226 -0.107619 0)
(0.0816391 -0.12885 -7.82328e-20)
(0.112313 -0.148406 9.38071e-21)
(0.148103 -0.165489 9.06517e-20)
(0.188491 -0.179052 -5.80856e-21)
(0.233551 -0.187159 -1.99969e-20)
(0.282577 -0.19131 -8.61078e-21)
(0.333925 -0.19009 8.74316e-21)
(0.386457 -0.183729 0)
(0.438799 -0.172699 2.53798e-21)
(0.489749 -0.15797 -2.23743e-21)
(0.538306 -0.140845 0)
(0.583747 -0.122705 0)
(0.6256 -0.104753 -6.9598e-21)
(0.663716 -0.0879264 -9.0407e-23)
(0.698229 -0.0728642 6.4443e-21)
(0.729301 -0.0597066 6.25044e-21)
(0.757144 -0.0484082 -6.22701e-21)
(0.78208 -0.0388496 5.14642e-21)
(0.804466 -0.0308482 -5.31435e-22)
(0.824649 -0.0241689 -4.32887e-21)
(0.842993 -0.0185438 -4.5796e-22)
(0.859753 -0.013908 -3.55289e-24)
(0.875123 -0.00992669 0)
(0.889425 -0.00639561 -2.40191e-21)
(0.902765 -0.0030113 2.47128e-21)
(0.915018 0.000291735 -1.2162e-22)
(0.926232 0.00377487 0)
(0.936421 0.00704095 9.41913e-23)
(0.945471 0.0101194 -1.25979e-21)
(0.953351 0.0129264 2.18564e-21)
(0.960125 0.0154205 2.50181e-23)
(0.965904 0.0176436 -8.90951e-23)
(0.970827 0.0196449 -7.33073e-22)
(0.975016 0.0215469 -8.70808e-23)
(0.978605 0.0233094 5.88699e-22)
(0.981663 0.0251549 -5.04053e-22)
(0.984316 0.0267529 1.05653e-25)
(0.986578 0.0287515 -2.0504e-22)
(0.988587 0.030087 2.4678e-22)
(0.990301 0.0325591 2.88607e-22)
(0.991875 0.0334228 -8.21464e-23)
(0.99322 0.0367926 -1.2769e-22)
(0.994489 0.037004 2.37309e-22)
(0.995592 0.0415081 -1.62364e-22)
(0.996631 0.0412481 4.17161e-23)
(0.99758 0.0466586 -4.91944e-23)
(0.99844 0.0464431 -3.95282e-23)
(0.999313 0.0525796 8.89816e-23)
(0.999993 0.0524099 -2.02397e-24)
(1.00091 0.0598384 2.10187e-23)
(1.00137 0.0593592 0)
(1.00242 0.0682781 7.07145e-24)
(1.00268 0.0679617 -9.81781e-24)
(1.00392 0.0782166 0)
(0.195999 -0.00276691 1.31202e-19)
(0.204808 -0.0227914 -2.54927e-19)
(0.216123 -0.0476198 1.22256e-19)
(0.231427 -0.0732243 1.12582e-19)
(0.249732 -0.0994046 -2.13969e-19)
(0.270919 -0.125666 8.01531e-21)
(0.295542 -0.151256 9.15881e-20)
(0.323806 -0.175168 7.03477e-20)
(0.355558 -0.196329 -6.88486e-20)
(0.390362 -0.213545 0)
(0.427869 -0.225432 -3.33187e-20)
(0.467293 -0.231524 5.46545e-20)
(0.507424 -0.231194 -2.15855e-20)
(0.547246 -0.224506 0)
(0.585841 -0.212039 0)
(0.62249 -0.194942 -9.6558e-23)
(0.656714 -0.17478 9.89699e-21)
(0.688292 -0.153232 -9.61456e-21)
(0.717151 -0.131771 0)
(0.743338 -0.111467 -1.30286e-20)
(0.767128 -0.0931512 2.45587e-20)
(0.788786 -0.0771396 -2.34436e-20)
(0.808434 -0.0633866 2.2198e-20)
(0.82623 -0.0517387 -6.57269e-22)
(0.842378 -0.0419829 -1.83929e-20)
(0.857079 -0.0338532 8.71426e-21)
(0.870549 -0.0270684 2.29111e-22)
(0.882958 -0.021409 2.86893e-21)
(0.894449 -0.0165677 -2.67756e-22)
(0.905191 -0.0122765 -2.63793e-21)
(0.915304 -0.00844183 -1.39225e-22)
(0.924906 -0.0047737 1.85914e-21)
(0.933827 -0.000929566 -3.43677e-21)
(0.941991 0.00303018 1.77241e-21)
(0.949486 0.00670075 0)
(0.956199 0.0100394 1.26135e-21)
(0.962131 0.0130073 -1.21168e-21)
(0.967322 0.015636 7.50567e-22)
(0.97185 0.0179743 -9.38564e-22)
(0.975782 0.0201539 8.7924e-23)
(0.979208 0.0221426 0)
(0.982173 0.0241764 6.87455e-23)
(0.984774 0.0259242 -1.82641e-22)
(0.987016 0.0280515 0)
(0.989023 0.0294811 -4.63171e-22)
(0.990744 0.0320431 1.86516e-22)
(0.992341 0.0329619 -7.55859e-23)
(0.9937 0.0363975 -6.72333e-23)
(0.995004 0.0366412 0)
(0.996127 0.0411926 0)
(0.997201 0.0409565 1.3497e-22)
(0.998187 0.0463979 -2.04093e-22)
(0.999068 0.0462016 1.10603e-22)
(1 0.0523633 -3.44493e-23)
(1.0007 0.0522019 -5.53201e-23)
(1.00168 0.0596558 -2.10387e-23)
(1.00216 0.0591812 3.30725e-23)
(1.00329 0.0681186 0)
(1.00357 0.0678069 1.57801e-23)
(1.00491 0.0780818 3.70744e-24)
(0.388429 -0.00671117 1.32966e-19)
(0.402345 -0.0297953 -1.32191e-19)
(0.416975 -0.0559162 9.72002e-22)
(0.434772 -0.082995 -9.16481e-22)
(0.454562 -0.111056 8.55945e-22)
(0.476129 -0.139848 -7.83146e-22)
(0.499828 -0.168397 1.42766e-21)
(0.525662 -0.19544 0)
(0.553295 -0.219615 -1.07833e-21)
(0.582161 -0.239482 8.91919e-22)
(0.611617 -0.253598 7.05742e-22)
(0.640827 -0.261008 -4.63967e-22)
(0.668863 -0.26114 0)
(0.695067 -0.254072 0)
(0.719091 -0.24049 9.97013e-23)
(0.740857 -0.221694 0)
(0.76052 -0.19944 6.40416e-23)
(0.778401 -0.175584 0)
(0.79484 -0.151765 1.05523e-20)
(0.810041 -0.129143 -2.14737e-20)
(0.824253 -0.108531 2.19204e-20)
(0.837752 -0.0904536 -1.09266e-20)
(0.85056 -0.0749103 -1.01112e-20)
(0.862604 -0.0617158 9.81901e-21)
(0.873862 -0.0506333 8.74004e-21)
(0.884352 -0.0413819 -8.4672e-21)
(0.894123 -0.033659 0)
(0.903219 -0.0272014 -1.94768e-22)
(0.911692 -0.0217287 0)
(0.919653 -0.016976 0)
(0.92719 -0.0126724 -3.96056e-21)
(0.9344 -0.00856371 4.11172e-21)
(0.941331 -0.00462072 -2.15516e-22)
(0.9478 -0.000332098 -1.90628e-22)
(0.953769 0.00376167 1.66564e-22)
(0.959319 0.00749483 1.12444e-21)
(0.964386 0.0108258 -1.0918e-21)
(0.968954 0.0137777 9.86637e-22)
(0.973044 0.0163944 -8.47006e-22)
(0.976679 0.0188111 -1.7764e-22)
(0.979908 0.0209985 6.00363e-22)
(0.982751 0.023203 1.79191e-23)
(0.985279 0.0250893 -3.93076e-22)
(0.987484 0.0273389 0)
(0.989479 0.0288587 1.93534e-22)
(0.991199 0.0315088 -2.434e-22)
(0.992813 0.0324814 3.19735e-22)
(0.994183 0.0359827 6.76614e-23)
(0.99552 0.036258 0)
(0.996662 0.0408577 -4.82373e-23)
(0.997768 0.0406442 9.84526e-23)
(0.998792 0.0461186 -7.90795e-26)
(0.999693 0.0459398 3.57759e-23)