/*--------------------------------*- C++ -*----------------------------------*\
| =========                 |                                                 |
| \\      /  F ield         | OpenFOAM: The Open Source CFD Toolbox           |
|  \\    /   O peration     | Version:  2512                                  |
|   \\  /    A nd           | Website:  www.openfoam.com                      |
|    \\/     M anipulation  |                                                 |
\*---------------------------------------------------------------------------*/
FoamFile
{
    version     2.0;
    format      ascii;
    arch        "LSB;label=32;scalar=64";
    class       volScalarField;
    location    "42.25";
    object      p;
}
// * * * * * * * * * * * * * * * * * * * * * * * * * * * * * * * * * * * * * //

dimensions      [0 2 -2 0 0 0 0];

internalField   nonuniform List<scalar> 
13248
(
-0.29207
-0.290472
-0.288383
-0.285968
-0.283418
-0.280921
-0.278626
-0.27661
-0.274896
-0.273456
-0.272224
-0.271096
-0.269946
-0.268635
-0.267024
-0.264986
-0.262414
-0.259235
-0.255402
-0.250933
-0.245757
-0.240104
-0.233294
-0.226349
-0.298828
-0.296648
-0.29396
-0.29094
-0.287782
-0.284708
-0.281845
-0.279258
-0.276943
-0.274843
-0.272856
-0.270851
-0.268687
-0.266228
-0.263356
-0.259982
-0.256052
-0.251547
-0.246479
-0.240883
-0.234788
-0.228268
-0.221183
-0.21424
-0.306964
-0.304018
-0.300621
-0.29694
-0.293149
-0.289455
-0.285975
-0.282738
-0.279696
-0.276752
-0.273775
-0.270628
-0.267184
-0.263342
-0.259041
-0.254254
-0.248996
-0.243307
-0.237241
-0.230868
-0.22422
-0.217396
-0.210307
-0.203396
-0.316652
-0.31275
-0.308534
-0.304132
-0.299656
-0.295283
-0.291088
-0.287041
-0.283048
-0.278981
-0.274708
-0.27012
-0.265145
-0.259754
-0.253961
-0.247811
-0.241372
-0.234716
-0.227912
-0.221018
-0.214065
-0.207123
-0.200111
-0.193493
-0.327986
-0.322947
-0.317811
-0.312627
-0.307394
-0.302227
-0.297136
-0.292028
-0.286771
-0.281243
-0.275356
-0.269077
-0.26242
-0.255443
-0.248231
-0.240873
-0.233455
-0.226046
-0.218695
-0.211434
-0.204279
-0.197259
-0.190325
-0.183798
-0.340962
-0.334636
-0.3285
-0.322467
-0.316365
-0.310214
-0.303946
-0.297421
-0.290516
-0.283169
-0.275392
-0.267258
-0.25888
-0.250386
-0.241894
-0.233501
-0.225277
-0.217262
-0.209476
-0.201924
-0.194602
-0.187511
-0.180615
-0.174141
-0.35546
-0.347747
-0.340555
-0.333588
-0.326438
-0.319008
-0.31117
-0.302791
-0.293828
-0.284348
-0.274497
-0.264462
-0.254428
-0.24455
-0.234942
-0.225673
-0.216777
-0.20826
-0.200113
-0.192316
-0.184849
-0.177692
-0.170819
-0.164357
-0.371207
-0.362071
-0.353784
-0.345756
-0.337288
-0.328171
-0.31828
-0.307582
-0.2962
-0.284373
-0.272389
-0.260514
-0.248956
-0.237855
-0.227285
-0.217273
-0.207809
-0.198868
-0.190414
-0.18241
-0.17482
-0.167611
-0.160765
-0.154309
-0.387747
-0.377219
-0.367802
-0.358522
-0.34836
-0.337057
-0.324603
-0.311178
-0.297133
-0.282891
-0.268838
-0.255266
-0.242358
-0.2302
-0.218812
-0.208171
-0.19823
-0.188934
-0.180229
-0.17206
-0.16438
-0.157149
-0.150342
-0.143907
-0.404404
-0.392582
-0.381978
-0.371168
-0.35885
-0.344837
-0.329378
-0.31296
-0.296181
-0.279605
-0.263654
-0.248584
-0.234513
-0.22146
-0.209386
-0.198223
-0.187892
-0.178315
-0.169419
-0.161137
-0.15341
-0.146193
-0.13944
-0.13305
-0.420289
-0.407308
-0.395415
-0.382714
-0.36774
-0.350548
-0.331786
-0.31229
-0.292871
-0.274155
-0.256533
-0.240183
-0.22514
-0.21135
-0.198721
-0.187147
-0.176522
-0.166749
-0.157738
-0.149411
-0.1417
-0.134549
-0.127883
-0.121591
-0.434372
-0.420414
-0.407105
-0.392108
-0.373981
-0.353218
-0.330973
-0.30843
-0.286542
-0.265924
-0.246876
-0.229473
-0.213656
-0.199303
-0.186273
-0.174425
-0.16363
-0.153774
-0.144753
-0.136479
-0.128877
-0.121879
-0.11538
-0.109313
-0.244831
-0.24666
-0.247843
-0.248656
-0.249346
-0.249976
-0.250572
-0.251151
-0.251721
-0.252275
-0.252807
-0.253302
-0.253748
-0.25413
-0.25443
-0.25463
-0.254716
-0.254672
-0.254487
-0.254154
-0.253671
-0.253047
-0.252315
-0.251536
-0.247357
-0.249043
-0.250151
-0.250937
-0.251631
-0.252294
-0.252956
-0.253633
-0.25433
-0.255043
-0.255763
-0.256477
-0.257168
-0.257818
-0.258407
-0.25891
-0.259301
-0.259551
-0.259633
-0.259521
-0.259195
-0.258633
-0.257841
-0.256938
-0.250492
-0.251952
-0.252931
-0.25365
-0.254313
-0.254981
-0.25568
-0.256428
-0.25723
-0.258082
-0.258972
-0.259887
-0.260809
-0.261716
-0.262582
-0.263375
-0.264057
-0.264583
-0.264908
-0.264982
-0.264752
-0.264161
-0.263161
-0.262053
-0.25408
-0.255251
-0.256053
-0.256664
-0.257257
-0.257889
-0.258587
-0.259369
-0.260239
-0.261192
-0.262217
-0.263299
-0.264417
-0.265548
-0.266659
-0.267711
-0.268653
-0.269426
-0.269956
-0.270171
-0.269992
-0.2693
-0.267943
-0.266383
-0.257948
-0.258791
-0.259377
-0.259839
-0.260315
-0.260859
-0.261504
-0.262265
-0.263148
-0.264146
-0.26525
-0.266441
-0.267698
-0.268993
-0.270289
-0.271538
-0.272681
-0.27364
-0.274322
-0.274623
-0.274442
-0.273603
-0.271825
-0.269407
-0.261927
-0.262434
-0.262775
-0.263043
-0.263347
-0.263743
-0.264266
-0.264936
-0.265757
-0.266726
-0.26783
-0.26905
-0.270362
-0.271735
-0.273123
-0.274475
-0.275718
-0.276765
-0.277504
-0.277804
-0.27752
-0.27647
-0.274308
-0.270872
-0.265892
-0.266077
-0.266154
-0.266183
-0.266254
-0.266428
-0.26675
-0.267243
-0.267916
-0.268764
-0.269776
-0.270929
-0.272195
-0.273536
-0.274904
-0.276235
-0.277448
-0.278444
-0.279097
-0.279261
-0.278771
-0.277399
-0.275109
-0.27032
-0.269781
-0.269675
-0.269472
-0.269216
-0.268987
-0.268863
-0.268897
-0.269123
-0.269553
-0.270187
-0.271009
-0.271995
-0.273112
-0.274314
-0.275543
-0.276725
-0.27777
-0.278564
-0.278977
-0.278847
-0.27805
-0.276167
-0.274007
-0.267998
-0.273617
-0.273257
-0.272757
-0.272166
-0.271573
-0.271073
-0.270737
-0.27061
-0.270712
-0.271043
-0.271589
-0.27232
-0.273194
-0.274158
-0.275139
-0.276051
-0.27679
-0.277235
-0.277254
-0.276674
-0.275491
-0.272994
-0.270941
-0.264356
-0.277522
-0.276925
-0.276105
-0.275129
-0.27411
-0.273167
-0.272392
-0.271842
-0.271545
-0.271505
-0.271704
-0.272105
-0.272654
-0.273282
-0.2739
-0.274404
-0.274678
-0.274597
-0.274042
-0.272854
-0.271145
-0.268146
-0.265903
-0.25951
-0.281709
-0.280859
-0.279677
-0.278263
-0.276761
-0.27532
-0.274051
-0.273026
-0.272277
-0.271809
-0.271597
-0.271591
-0.271718
-0.271888
-0.27199
-0.271902
-0.271497
-0.270652
-0.269267
-0.267249
-0.264712
-0.261282
-0.258481
-0.252798
-0.28646
-0.285291
-0.283687
-0.281781
-0.27975
-0.277769
-0.275971
-0.274436
-0.2732
-0.272259
-0.271571
-0.271065
-0.270645
-0.270191
-0.269574
-0.268658
-0.267314
-0.265433
-0.262928
-0.25978
-0.255978
-0.25166
-0.247407
-0.242433
-0.250587
-0.249139
-0.247526
-0.245761
-0.243883
-0.241956
-0.240058
-0.238279
-0.236704
-0.235407
-0.234428
-0.233743
-0.233235
-0.232658
-0.23162
-0.22967
-0.226823
-0.22218
-0.215462
-0.206715
-0.196424
-0.185564
-0.175468
-0.167479
-0.162387
-0.160276
-0.159367
-0.157036
-0.149811
-0.13619
-0.115579
-0.090498
-0.0643835
-0.0403302
-0.0202317
-0.00486598
0.00568542
0.0119604
0.0151079
0.0166767
0.0178369
0.0190571
0.0202484
0.0211197
0.0214101
0.0210033
0.0199101
0.0182934
0.0163405
0.0144483
0.0126359
0.0111395
0.00973303
0.00855565
0.0072803
0.00612446
0.00474109
0.00353474
0.00201194
0.00086072
-0.255952
-0.253867
-0.251381
-0.248481
-0.245169
-0.241493
-0.237536
-0.233407
-0.229222
-0.225116
-0.221213
-0.217601
-0.214305
-0.211237
-0.208149
-0.204699
-0.201679
-0.197827
-0.193114
-0.187686
-0.181964
-0.176764
-0.173186
-0.172175
-0.173521
-0.177062
-0.179915
-0.179239
-0.171026
-0.154909
-0.130309
-0.10081
-0.0705957
-0.0431174
-0.0202899
-0.00273672
0.00962342
0.0172665
0.0211014
0.0225038
0.0227794
0.0227659
0.0226997
0.0225033
0.0219626
0.0209404
0.0194113
0.0175224
0.0154477
0.0136009
0.0119219
0.010607
0.00937978
0.00836318
0.00721488
0.0061507
0.00482368
0.003637
0.00210299
0.00090835
-0.261408
-0.258683
-0.255361
-0.251394
-0.246719
-0.24136
-0.235406
-0.229002
-0.222283
-0.215448
-0.208704
-0.202247
-0.196242
-0.190774
-0.185735
-0.180432
-0.177587
-0.174385
-0.171522
-0.169306
-0.168016
-0.16826
-0.170808
-0.176339
-0.183189
-0.191531
-0.19767
-0.198264
-0.190012
-0.170927
-0.142861
-0.109651
-0.0760667
-0.0458254
-0.0208322
-0.00155765
0.0122658
0.0211517
0.02585
0.0274928
0.0273265
0.0264135
0.0251926
0.0239412
0.0225164
0.0208193
0.0188226
0.016669
0.0144996
0.0127431
0.011224
0.0100982
0.00904399
0.00817455
0.00713978
0.00615854
0.00488726
0.00372112
0.00218571
0.00094823
-0.266692
-0.263274
-0.259213
-0.254347
-0.248489
-0.241626
-0.233848
-0.225419
-0.216392
-0.207068
-0.197729
-0.188673
-0.180197
-0.172582
-0.166121
-0.161437
-0.156387
-0.153393
-0.152083
-0.152835
-0.155526
-0.160618
-0.168455
-0.179183
-0.191273
-0.203313
-0.211963
-0.213466
-0.204797
-0.184025
-0.153315
-0.117257
-0.0811213
-0.0488083
-0.0221802
-0.00157313
0.0134265
0.0234037
0.029031
0.0312097
0.0310369
0.029596
0.0274755
0.0252845
0.0229991
0.020625
0.0181719
0.015788
0.0135547
0.0119264
0.0105962
0.00963747
0.0087385
0.00799495
0.00705619
0.0061463
0.00492768
0.00378209
0.00225468
0.000977097
-0.271066
-0.26734
-0.262559
-0.256972
-0.25019
-0.242099
-0.232739
-0.222868
-0.211868
-0.200432
-0.188875
-0.177586
-0.16697
-0.157438
-0.149406
-0.14314
-0.138263
-0.135833
-0.135611
-0.139128
-0.144994
-0.153849
-0.165928
-0.180844
-0.196828
-0.21179
-0.222422
-0.224547
-0.215909
-0.19412
-0.161679
-0.123733
-0.0859165
-0.0522205
-0.0244481
-0.00284033
0.0131029
0.0240177
0.0305495
0.0334237
0.033564
0.0319354
0.0292701
0.0263421
0.0233096
0.0203304
0.0174834
0.0149303
0.0126586
0.0111869
0.0100307
0.00923334
0.00846456
0.00782275
0.00696198
0.00611149
0.00494139
0.00381634
0.0023055
0.000992838
-0.273645
-0.270424
-0.264991
-0.258805
-0.251487
-0.242704
-0.232497
-0.221155
-0.208775
-0.195734
-0.182445
-0.169379
-0.157038
-0.145927
-0.136527
-0.129203
-0.124215
-0.122182
-0.123165
-0.127898
-0.136133
-0.147928
-0.163127
-0.180981
-0.199644
-0.216748
-0.229025
-0.232185
-0.223398
-0.20121
-0.167975
-0.129137
-0.0905031
-0.0560684
-0.0275819
-0.00524903
0.0114499
0.023165
0.030528
0.0341486
0.0347871
0.0332715
0.0303792
0.0269654
0.0233724
0.0199243
0.0167874
0.0141409
0.0118332
0.0106034
0.00954771
0.00888298
0.00821642
0.00765272
0.00685379
0.00605208
0.00492643
0.00382241
0.00233543
0.000994947
-0.274136
-0.271601
-0.265809
-0.259308
-0.251822
-0.242773
-0.232148
-0.220153
-0.206987
-0.192982
-0.178574
-0.164281
-0.150672
-0.138326
-0.1278
-0.119584
-0.114284
-0.112471
-0.114069
-0.119632
-0.129244
-0.142815
-0.159915
-0.17954
-0.199814
-0.218284
-0.231977
-0.23557
-0.227247
-0.205329
-0.172248
-0.133501
-0.0948676
-0.0602707
-0.0314351
-0.00859999
0.00870965
0.0211157
0.0292276
0.0335811
0.0348065
0.0336071
0.0307508
0.0271097
0.0231766
0.019428
0.0161221
0.0134576
0.0110816
0.0100843
0.0091449
0.00857745
0.00798587
0.0074793
0.00672905
0.00596747
0.00488287
0.00380092
0.00234372
0.000984459
-0.27218
-0.270057
-0.264418
-0.258116
-0.250855
-0.241968
-0.231416
-0.219377
-0.206052
-0.191742
-0.176867
-0.161955
-0.147607
-0.134452
-0.123127
-0.114237
-0.108495
-0.106457
-0.108123
-0.113929
-0.124051
-0.138343
-0.156253
-0.176644
-0.197594
-0.216621
-0.231852
-0.235204
-0.227605
-0.206558
-0.174527
-0.136803
-0.0989146
-0.064657
-0.0357824
-0.0126338
0.00516324
0.0181675
0.0269535
0.0320078
0.0338529
0.0330907
0.0304702
0.026832
0.0227709
0.0188872
0.015525
0.012896
0.0112427
0.0096819
0.0088107
0.00830564
0.00776555
0.00729873
0.0065871
0.00585893
0.00481278
0.00375427
0.0023314
0.000963521
-0.267895
-0.265879
-0.260243
-0.254617
-0.24806
-0.239865
-0.229969
-0.21848
-0.205589
-0.191583
-0.176856
-0.161913
-0.147351
-0.133808
-0.121959
-0.11255
-0.106301
-0.103699
-0.104928
-0.110398
-0.120284
-0.134423
-0.152219
-0.172499
-0.193314
-0.211942
-0.224134
-0.231304
-0.22487
-0.205206
-0.174931
-0.139007
-0.102514
-0.0690312
-0.0403864
-0.0170895
0.00108651
0.0146075
0.0239968
0.0297122
0.0321902
0.0319371
0.0296865
0.0262352
0.0222257
0.0183467
0.0150178
0.012395
0.010726
0.00935015
0.00852791
0.00805734
0.00755027
0.00710969
0.00642944
0.00572956
0.00471992
0.00368623
0.00230088
0.000934829
-0.261523
-0.259499
-0.255362
-0.249573
-0.243015
-0.235803
-0.227196
-0.216931
-0.205117
-0.192026
-0.178034
-0.163622
-0.149386
-0.135924
-0.123856
-0.114124
-0.107317
-0.103696
-0.104085
-0.108711
-0.117736
-0.131009
-0.147936
-0.167382
-0.187467
-0.205492
-0.218671
-0.225115
-0.219691
-0.20186
-0.173955
-0.14044
-0.105873
-0.0735404
-0.0453346
-0.0219867
-0.00347098
0.0105489
0.02052
0.0268756
0.0300074
0.0303526
0.0285592
0.0254166
0.0215982
0.0178303
0.0145809
0.011997
0.0103285
0.00907907
0.00828317
0.00782541
0.00733719
0.00691279
0.0062588
0.0055834
0.0046089
0.0036013
0.00225567
0.000901041
-0.25273
-0.25066
-0.248418
-0.244779
-0.238885
-0.231182
-0.223213
-0.214343
-0.204037
-0.19231
-0.179446
-0.165925
-0.152365
-0.139274
-0.127148
-0.116284
-0.109444
-0.105631
-0.104973
-0.108356
-0.116032
-0.127914
-0.143466
-0.161629
-0.180617
-0.198175
-0.210706
-0.216688
-0.212479
-0.197031
-0.172146
-0.141573
-0.109315
-0.0784277
-0.050822
-0.0274772
-0.00861049
0.00594729
0.0165407
0.0235626
0.0273718
0.0284063
0.0273635
0.0244415
0.0209242
0.0173482
0.0141588
0.011709
0.0100356
0.00885348
0.00806567
0.0076046
0.00712456
0.00670891
0.00607745
0.00542375
0.00448347
0.00350332
0.00219936
0.000864675
-0.241911
-0.241268
-0.239915
-0.236598
-0.232326
-0.227381
-0.220308
-0.211461
-0.202452
-0.19249
-0.181261
-0.169196
-0.156899
-0.144975
-0.133707
-0.123638
-0.114839
-0.109317
-0.107748
-0.109607
-0.115381
-0.125149
-0.138468
-0.15438
-0.17139
-0.187787
-0.200523
-0.205802
-0.202565
-0.189538
-0.167759
-0.140218
-0.110388
-0.0811905
-0.0546136
-0.0317568
-0.0129685
0.00178115
0.0127367
0.0202332
0.0245946
0.0261823
0.025585
0.0232406
0.0201411
0.0168413
0.013775
0.0114494
0.00977623
0.00863169
0.00784918
0.00738241
0.00690782
0.00649849
0.0058875
0.00525353
0.00434644
0.00339442
0.00213395
0.000846022
-0.229272
-0.233932
-0.232295
-0.228487
-0.22443
-0.219934
-0.214442
-0.20781
-0.199245
-0.18972
-0.179268
-0.167763
-0.156296
-0.145224
-0.134041
-0.124289
-0.116506
-0.111514
-0.109578
-0.110881
-0.115901
-0.124714
-0.13692
-0.151605
-0.167386
-0.182286
-0.193249
-0.197751
-0.194087
-0.181306
-0.160574
-0.134665
-0.106713
-0.0793225
-0.0542697
-0.0325535
-0.0145396
-0.000248528
0.0104987
0.017979
0.0224988
0.0243888
0.0240831
0.0221564
0.019214
0.0161106
0.013205
0.0110161
0.00942911
0.00834919
0.00759936
0.00714691
0.00668922
0.00629243
0.00570375
0.0050881
0.00421211
0.00328503
0.0020655
0.000810292
-0.216383
-0.223337
-0.222064
-0.217702
-0.21333
-0.209066
-0.204068
-0.197691
-0.189892
-0.181187
-0.172066
-0.162842
-0.152964
-0.142742
-0.133431
-0.125038
-0.118319
-0.113826
-0.112016
-0.113219
-0.117731
-0.12558
-0.136382
-0.14927
-0.162962
-0.175361
-0.184238
-0.187278
-0.182863
-0.170502
-0.151305
-0.127621
-0.102089
-0.0769327
-0.0537131
-0.0333582
-0.0162719
-0.00254138
0.00793562
0.0153721
0.0200169
0.022155
0.0221622
0.0205898
0.0180849
0.0152972
0.0126546
0.0106212
0.00911382
0.00808521
0.00735894
0.00690941
0.00646075
0.00606986
0.00550136
0.00490358
0.00406063
0.00316175
0.00198806
0.000770492
-0.203299
-0.211071
-0.210444
-0.206221
-0.201951
-0.198111
-0.193841
-0.188471
-0.181986
-0.174726
-0.166992
-0.15882
-0.150189
-0.141399
-0.133166
-0.125852
-0.11996
-0.116007
-0.114427
-0.115485
-0.119378
-0.126098
-0.135262
-0.14606
-0.157385
-0.167268
-0.17404
-0.175672
-0.170895
-0.159392
-0.142051
-0.120745
-0.0976488
-0.0746693
-0.0532144
-0.0341758
-0.0180013
-0.00484244
0.00533382
0.0126819
0.0174048
0.0197636
0.0201073
0.0189491
0.016853
0.014413
0.0120569
0.0101849
0.00876916
0.00779425
0.007094
0.00664776
0.00620897
0.00582415
0.0052775
0.00469921
0.00389204
0.00302508
0.00190159
0.000728261
-0.190451
-0.198329
-0.198471
-0.194878
-0.191022
-0.187668
-0.184133
-0.179751
-0.174389
-0.168246
-0.161552
-0.15444
-0.147027
-0.139563
-0.132496
-0.126205
-0.121119
-0.117676
-0.116227
-0.117
-0.120143
-0.125615
-0.133052
-0.141758
-0.150658
-0.158493
-0.163419
-0.163967
-0.159114
-0.148583
-0.13305
-0.114003
-0.0932297
-0.0723574
-0.052642
-0.0349269
-0.0196869
-0.00712815
0.00272006
0.00995707
0.0147449
0.0173205
0.0180002
0.0172422
0.0155449
0.0134616
0.0113922
0.00969557
0.00838553
0.00747006
0.00680178
0.00636391
0.00593876
0.00556274
0.00504031
0.00448342
0.00371394
0.00288136
0.0018104
0.000685682
-0.177758
-0.185642
-0.186539
-0.183728
-0.180422
-0.177565
-0.174678
-0.171136
-0.166726
-0.16157
-0.15588
-0.149828
-0.14356
-0.137282
-0.131304
-0.12596
-0.121604
-0.118586
-0.117197
-0.117641
-0.120023
-0.124282
-0.130105
-0.136916
-0.143792
-0.149606
-0.15296
-0.152656
-0.147836
-0.138254
-0.124422
-0.107496
-0.0889177
-0.0700571
-0.052025
-0.0356142
-0.0213152
-0.0093769
0.000118978
0.00722383
0.0120609
0.0148386
0.0158361
0.0154595
0.0141589
0.0124351
0.0106568
0.0091499
0.00795818
0.00710994
0.00648082
0.00605746
0.00565018
0.00528617
0.00479034
0.00425702
0.00352717
0.00273137
0.00171524
0.000642789
-0.165482
-0.173299
-0.174803
-0.172745
-0.170038
-0.16769
-0.165393
-0.162591
-0.15904
-0.154808
-0.15008
-0.145028
-0.1398
-0.134566
-0.129561
-0.125055
-0.121334
-0.118682
-0.117341
-0.117477
-0.119164
-0.122332
-0.126717
-0.131825
-0.136889
-0.140974
-0.143013
-0.142018
-0.137287
-0.128601
-0.116323
-0.101331
-0.0847729
-0.0677917
-0.0513635
-0.0362236
-0.022863
-0.0115604
-0.00243877
0.00451089
0.00937528
0.0123323
0.0136256
0.0136154
0.0127027
0.0113351
0.00984966
0.00854313
0.00748162
0.00670988
0.00612796
0.00572611
0.00534153
0.00499334
0.00452682
0.00401965
0.00333159
0.00257525
0.00161639
0.00059969
-0.153849
-0.161395
-0.163342
-0.161974
-0.159876
-0.158047
-0.156302
-0.154167
-0.151395
-0.14801
-0.144168
-0.140028
-0.135728
-0.131411
-0.12726
-0.123488
-0.120327
-0.118003
-0.116711
-0.11658
-0.117658
-0.119877
-0.123008
-0.126638
-0.130155
-0.132811
-0.133761
-0.132213
-0.127601
-0.119722
-0.108819
-0.0955498
-0.0808193
-0.0655736
-0.0506588
-0.0367458
-0.0243127
-0.0136549
-0.004927
0.0018441
0.00671191
0.00982388
0.0113898
0.0117265
0.0111859
0.0101656
0.00897108
0.0078726
0.00695206
0.00626668
0.00574062
0.00536806
0.0050116
0.00468371
0.0042495
0.00377149
0.00312754
0.00241354
0.00151438
0.00055663
-0.142784
-0.149964
-0.152248
-0.151499
-0.149985
-0.148659
-0.147427
-0.14589
-0.143811
-0.141188
-0.138143
-0.134819
-0.13134
-0.127827
-0.124422
-0.121295
-0.118628
-0.116598
-0.115356
-0.115002
-0.115567
-0.116984
-0.119057
-0.12146
-0.123704
-0.12519
-0.125255
-0.123275
-0.118791
-0.111617
-0.101912
-0.0901601
-0.0770692
-0.0634122
-0.0499133
-0.0371744
-0.0256499
-0.0156407
-0.0073229
-0.00075275
0.00409402
0.00733507
0.00914777
0.00980676
0.00961827
0.00893244
0.00802402
0.00713851
0.00636799
0.00577868
0.00531723
0.00498213
0.00465962
0.00435699
0.00395833
0.00351281
0.00291539
0.00224672
0.00140965
0.000513717
-0.132273
-0.139083
-0.141614
-0.141394
-0.140409
-0.139549
-0.138781
-0.137771
-0.136301
-0.134349
-0.132011
-0.129409
-0.126651
-0.12384
-0.121087
-0.118522
-0.116287
-0.114519
-0.113333
-0.112806
-0.112953
-0.113716
-0.114937
-0.116339
-0.117551
-0.118097
-0.11746
-0.115151
-0.110799
-0.104242
-0.0955749
-0.0851544
-0.0735254
-0.0613128
-0.0491288
-0.037505
-0.0268635
-0.0175011
-0.00960617
-0.00325786
0.00154296
0.00488556
0.00691646
0.00787032
0.00801087
0.0076436
0.00701369
0.00634315
0.00572965
0.0052453
0.00485692
0.00456749
0.00428491
0.00401285
0.00365318
0.00324374
0.00269535
0.00207511
0.00130239
0.000470945
-0.122409
-0.128808
-0.131486
-0.131702
-0.131179
-0.130733
-0.130374
-0.129822
-0.128879
-0.12751
-0.12579
-0.123819
-0.12169
-0.119487
-0.117298
-0.115221
-0.113364
-0.111832
-0.110711
-0.110058
-0.10988
-0.110124
-0.110661
-0.111276
-0.111671
-0.111481
-0.110303
-0.107757
-0.103547
-0.0975329
-0.0897695
-0.0805139
-0.0701832
-0.0592774
-0.0483071
-0.0377349
-0.0279449
-0.0192219
-0.011759
-0.00565164
-0.000921751
0.00249371
0.00471245
0.00593159
0.00637564
0.00630836
0.00594675
0.00549034
0.00503862
0.0046669
0.00435939
0.0041236
0.00388695
0.00365096
0.00333386
0.00296432
0.00246754
0.00189889
0.00119269
0.000428262
-0.113188
-0.119135
-0.121881
-0.122446
-0.122316
-0.122228
-0.122219
-0.122058
-0.121563
-0.120694
-0.119505
-0.118079
-0.116492
-0.114812
-0.113107
-0.111452
-0.109926
-0.108608
-0.107562
-0.106828
-0.106407
-0.106253
-0.106262
-0.106267
-0.106036
-0.105285
-0.103707
-0.101006
-0.0969512
-0.0914226
-0.0844487
-0.0762136
-0.067034
-0.0573056
-0.0474497
-0.0378626
-0.0288878
-0.020792
-0.0137662
-0.00791666
-0.00328211
0.000177076
0.00255207
0.00400524
0.00472516
0.004937
0.00483101
0.00458511
0.0042976
0.00404467
0.00382495
0.00365028
0.00346543
0.00327108
0.00300027
0.00267456
0.00223204
0.00171818
0.00108059
0.000385602
-0.104557
-0.110057
-0.112813
-0.11365
-0.113842
-0.114052
-0.114335
-0.114497
-0.114377
-0.113928
-0.113189
-0.112225
-0.111099
-0.109865
-0.108574
-0.107281
-0.106045
-0.104922
-0.10396
-0.103184
-0.102592
-0.102146
-0.101763
-0.101312
-0.100615
-0.0994551
-0.0975976
-0.0948164
-0.0909313
-0.0858435
-0.0795647
-0.072226
-0.0640662
-0.0553957
-0.046558
-0.0378881
-0.0296882
-0.0222025
-0.0156151
-0.0100377
-0.00552172
-0.00204783
0.000451177
0.002106
0.00307253
0.00354062
0.00367523
0.00363361
0.00351036
0.00338063
0.00325449
0.00314778
0.00302033
0.00287314
0.0026524
0.00237454
0.00198898
0.00153308
0.000966117
0.00034289
-0.0965066
-0.101573
-0.10429
-0.105325
-0.105772
-0.106222
-0.106738
-0.107161
-0.107345
-0.107242
-0.106876
-0.106299
-0.10556
-0.104702
-0.103762
-0.102779
-0.101795
-0.100851
-0.0999788
-0.0991951
-0.0984959
-0.0978487
-0.0971871
-0.0964108
-0.0953843
-0.0939434
-0.0919102
-0.0891132
-0.0854137
-0.0807322
-0.0750708
-0.0685226
-0.0612666
-0.0535443
-0.045633
-0.0378123
-0.0303439
-0.0234474
-0.0172959
-0.0120019
-0.00762602
-0.00416575
-0.00157503
0.00024847
0.00143119
0.00213097
0.00248906
0.00264297
0.00268167
0.00267766
0.00264961
0.00261686
0.002552
0.00245729
0.00229042
0.00206438
0.00173854
0.0013437
0.000849284
0.000300054
-0.0890308
-0.0936669
-0.0963012
-0.0974716
-0.0981135
-0.0987479
-0.0994444
-0.10007
-0.100494
-0.100668
-0.100605
-0.100345
-0.0999264
-0.0993807
-0.0987349
-0.098016
-0.0972525
-0.0964717
-0.0956948
-0.0949324
-0.0941785
-0.0934049
-0.0925605
-0.0915683
-0.0903262
-0.0887108
-0.0865888
-0.0838311
-0.0803327
-0.0760306
-0.0709226
-0.0650746
-0.0586204
-0.0517468
-0.0446754
-0.037637
-0.0308549
-0.0245232
-0.0188013
-0.0137991
-0.00958262
-0.00616297
-0.00351227
-0.00155312
-0.000185317
0.000720277
0.00128286
0.00162121
0.00181726
0.00193952
0.00201265
0.0020588
0.0020612
0.00202394
0.00191467
0.00174435
0.00148098
0.00115019
0.000730153
0.000257034
-0.0820912
-0.0863108
-0.0888322
-0.0900864
-0.0908696
-0.0916395
-0.0924672
-0.0932419
-0.0938489
-0.0942381
-0.0944154
-0.0944099
-0.0942511
-0.0939619
-0.0935604
-0.0930642
-0.0924915
-0.0918597
-0.091182
-0.0904637
-0.0896975
-0.0888598
-0.0879109
-0.0867925
-0.085428
-0.0837255
-0.081586
-0.0789138
-0.0756299
-0.0716861
-0.0670784
-0.0618538
-0.0561123
-0.0499977
-0.0436857
-0.0373646
-0.0312227
-0.0254289
-0.0201271
-0.0154218
-0.0113815
-0.0080276
-0.00534746
-0.00328516
-0.00176355
-0.000678937
6.75679e-05
0.000577202
0.000923768
0.00117085
0.0013467
0.00147555
0.0015492
0.00157388
0.00152578
0.00141485
0.00121666
0.000952733
0.000608825
0.00021379
-0.0756534
-0.0794797
-0.0818676
-0.0831622
-0.0840401
-0.0849019
-0.0858177
-0.0866954
-0.0874337
-0.0879839
-0.0883456
-0.0885394
-0.0885872
-0.0885046
-0.0883033
-0.0879934
-0.0875853
-0.0870888
-0.0865112
-0.0858541
-0.0851095
-0.0842573
-0.0832668
-0.0820939
-0.0806817
-0.0789622
-0.0768629
-0.0743131
-0.0712547
-0.0676515
-0.0634997
-0.0588332
-0.0537269
-0.0482911
-0.0426642
-0.0369985
-0.0314508
-0.0261659
-0.0212717
-0.0168654
-0.0130151
-0.00974981
-0.00706904
-0.00493502
-0.00329052
-0.00205413
-0.00114545
-0.000479526
8.71591e-06
0.000377175
0.000655683
0.00086972
0.00101778
0.00110828
0.00112464
0.00107649
0.000946042
0.000751612
0.000485439
0.000170306
-0.069691
-0.0731466
-0.0753864
-0.0766858
-0.0776194
-0.0785362
-0.0795032
-0.0804443
-0.08127
-0.0819344
-0.0824321
-0.082777
-0.0829847
-0.0830656
-0.0830259
-0.0828701
-0.0826028
-0.0822284
-0.0817496
-0.0811655
-0.0804678
-0.0796395
-0.0786564
-0.0774851
-0.0760835
-0.0744018
-0.0723874
-0.0699887
-0.0671636
-0.0638856
-0.0601519
-0.0559876
-0.0514491
-0.0466207
-0.0416111
-0.0365423
-0.0315437
-0.0267377
-0.0222363
-0.0181279
-0.0144786
-0.011322
-0.00866718
-0.00649125
-0.00475392
-0.00339299
-0.00234465
-0.00153891
-0.000919656
-0.000435179
-5.57108e-05
0.000244612
0.000469321
0.000628739
0.000712438
0.000730103
0.000669777
0.000547206
0.000360192
0.000126581
-0.0641739
-0.0672816
-0.0693642
-0.0706412
-0.071599
-0.0725403
-0.0735282
-0.0744996
-0.0753763
-0.0761152
-0.0767077
-0.0771626
-0.0774904
-0.0776974
-0.0777856
-0.0777558
-0.0776081
-0.0773428
-0.0769591
-0.0764542
-0.0758219
-0.0750461
-0.074107
-0.0729796
-0.0716327
-0.0700302
-0.0681341
-0.0659072
-0.0633197
-0.0603525
-0.0570044
-0.0532941
-0.0492647
-0.0449806
-0.0405268
-0.0360006
-0.0315073
-0.0271498
-0.0230243
-0.0192101
-0.0157696
-0.0127389
-0.010134
-0.0079439
-0.00614242
-0.00468369
-0.00351856
-0.00259057
-0.00185251
-0.00125913
-0.000782022
-0.000395765
-9.3224e-05
0.000137384
0.000290757
0.000376765
0.000388628
0.000340008
0.000233378
8.26458e-05
-0.0590723
-0.0618563
-0.0637784
-0.0650123
-0.0659691
-0.0669105
-0.0678948
-0.0688699
-0.0697679
-0.0705486
-0.0712019
-0.0717322
-0.0721465
-0.0724476
-0.0726351
-0.0727065
-0.0726591
-0.0724902
-0.0721961
-0.0717698
-0.0712176
-0.0705144
-0.0696457
-0.0685924
-0.0673318
-0.0658379
-0.0640835
-0.0620421
-0.0596928
-0.0570224
-0.0540308
-0.0507328
-0.0471613
-0.0433656
-0.0394123
-0.0353781
-0.0313488
-0.0274091
-0.0236414
-0.0201153
-0.0168884
-0.0139976
-0.0114636
-0.00928466
-0.00744591
-0.00591517
-0.00465601
-0.00362404
-0.00278062
-0.00208701
-0.0015171
-0.00104671
-0.000666313
-0.000363195
-0.000138445
1.79076e-05
0.000103578
0.000130594
0.000105331
3.85725e-05
-0.054358
-0.0568431
-0.0586051
-0.0597812
-0.0607178
-0.0616404
-0.0626023
-0.0635605
-0.0644561
-0.0652527
-0.0659389
-0.0665165
-0.0669894
-0.0673582
-0.0676205
-0.067772
-0.0678082
-0.0677246
-0.0675161
-0.067177
-0.0667034
-0.0660814
-0.0652981
-0.0643384
-0.0631851
-0.0618193
-0.0602214
-0.0583728
-0.0562588
-0.0538707
-0.0512095
-0.0482867
-0.0451281
-0.0417715
-0.0382689
-0.0346807
-0.031076
-0.0275243
-0.0240951
-0.0208487
-0.0178376
-0.0150976
-0.0126524
-0.010507
-0.00865572
-0.00707738
-0.00574642
-0.00462902
-0.00369454
-0.00291069
-0.00225423
-0.00170289
-0.00124579
-0.000869902
-0.000572881
-0.000344771
-0.000184089
-8.02038e-05
-2.35419e-05
-5.58521e-06
-0.0500064
-0.0522164
-0.0538217
-0.0549299
-0.0558324
-0.0567224
-0.0576479
-0.0585738
-0.0594493
-0.0602415
-0.0609388
-0.061541
-0.0620498
-0.0624645
-0.0627812
-0.0629946
-0.0630991
-0.063089
-0.0629589
-0.0627027
-0.0623107
-0.0617755
-0.0610868
-0.0602322
-0.0591987
-0.0579721
-0.0565383
-0.0548841
-0.0529994
-0.0508785
-0.0485231
-0.0459426
-0.043157
-0.0401956
-0.037099
-0.0339147
-0.0306978
-0.0275052
-0.0243946
-0.0214179
-0.0186218
-0.0160405
-0.0136988
-0.0116065
-0.00976482
-0.00816153
-0.00678001
-0.00559561
-0.0045849
-0.00372178
-0.00298626
-0.00235849
-0.00182699
-0.00137907
-0.00100978
-0.00070934
-0.000473046
-0.000291405
-0.000152567
-4.968e-05
-0.0459942
-0.0479522
-0.0494066
-0.0504412
-0.0513
-0.0521478
-0.0530273
-0.05391
-0.0547523
-0.055525
-0.0562168
-0.0568259
-0.0573528
-0.0577954
-0.0581496
-0.0584092
-0.0585683
-0.0586206
-0.0585607
-0.0583838
-0.058069
-0.0576217
-0.0570314
-0.0562876
-0.0553796
-0.0542966
-0.0530285
-0.0515658
-0.0499014
-0.0480318
-0.045959
-0.0436905
-0.0412423
-0.038637
-0.0359063
-0.0330873
-0.0302241
-0.0273625
-0.0245505
-0.021832
-0.019248
-0.0168301
-0.0146033
-0.0125806
-0.010768
-0.00916029
-0.00774812
-0.00651458
-0.00544261
-0.00451188
-0.00370576
-0.00300721
-0.00240486
-0.00188671
-0.00144592
-0.00107328
-0.000761611
-0.000502184
-0.000281223
-9.34107e-05
-0.0423002
-0.0440286
-0.0453397
-0.0462982
-0.0471074
-0.0479069
-0.0487346
-0.049567
-0.0503674
-0.0511098
-0.0517837
-0.0523864
-0.0529173
-0.0533739
-0.0537515
-0.0540439
-0.0542446
-0.0543472
-0.0543451
-0.0542313
-0.0539982
-0.0536404
-0.0531498
-0.0525176
-0.0517356
-0.0507955
-0.0496899
-0.0484118
-0.0469564
-0.0453213
-0.0435085
-0.0415244
-0.0393812
-0.0370967
-0.0346956
-0.0322069
-0.0296656
-0.0271084
-0.0245748
-0.0221017
-0.0197247
-0.0174723
-0.0153688
-0.0134289
-0.0116619
-0.010068
-0.00864339
-0.00737765
-0.00625915
-0.00527281
-0.00440532
-0.00364257
-0.00297383
-0.0023884
-0.00187801
-0.00143404
-0.00104755
-0.000710894
-0.000408911
-0.000136784
-0.0389058
-0.0404261
-0.0416027
-0.0424853
-0.0432418
-0.04399
-0.0447628
-0.0455413
-0.0462942
-0.0469994
-0.0476468
-0.0482334
-0.048758
-0.0492177
-0.0496077
-0.0499219
-0.0501539
-0.0502973
-0.0503456
-0.0502918
-0.0501303
-0.0498554
-0.0494597
-0.0489354
-0.0482754
-0.0474731
-0.0465231
-0.0454198
-0.04416
-0.0427419
-0.0411673
-0.0394413
-0.0375736
-0.0355779
-0.0334734
-0.0312828
-0.0290338
-0.0267556
-0.0244805
-0.0222392
-0.0200621
-0.0179748
-0.0159999
-0.0141528
-0.0124451
-0.0108806
-0.00945988
-0.0081776
-0.00702673
-0.00599679
-0.00507759
-0.00425807
-0.00352837
-0.00287927
-0.00230204
-0.00178888
-0.00132926
-0.000916135
-0.000534101
-0.000179392
-0.035795
-0.0371273
-0.0381792
-0.0389879
-0.0396912
-0.0403874
-0.0411046
-0.0418278
-0.0425308
-0.0431946
-0.0438101
-0.0443741
-0.0448849
-0.0453396
-0.0457336
-0.046061
-0.0463157
-0.0464915
-0.0465823
-0.0465817
-0.0464842
-0.0462848
-0.045977
-0.0455535
-0.0450082
-0.0443355
-0.0435311
-0.0425906
-0.0415115
-0.0402922
-0.0389345
-0.0374419
-0.0358223
-0.0340859
-0.032248
-0.0303259
-0.0283415
-0.0263181
-0.0242817
-0.0222578
-0.0202721
-0.018347
-0.0165032
-0.0147562
-0.0131184
-0.0115963
-0.0101935
-0.00890873
-0.00773864
-0.00667676
-0.00571566
-0.00484717
-0.00406276
-0.00335477
-0.00271407
-0.00213411