/*--------------------------------*- C++ -*----------------------------------*\
| =========                 |                                                 |
| \\      /  F ield         | OpenFOAM: The Open Source CFD Toolbox           |
|  \\    /   O peration     | Version:  2512                                  |
|   \\  /    A nd           | Website:  www.openfoam.com                      |
|    \\/     M anipulation  |                                                 |
\*---------------------------------------------------------------------------*/
FoamFile
{
    version     2.0;
    format      ascii;
    arch        "LSB;label=32;scalar=64";
    class       surfaceScalarField;
    location    "159.75";
    object      phi;
}
// * * * * * * * * * * * * * * * * * * * * * * * * * * * * * * * * * * * * * //

dimensions      [0 3 -1 0 0 0 0];

oriented        oriented;

internalField   nonuniform List<scalar> 
26232
(
-4.73526e-05
0.000864819
-0.000817466
3.48387e-05
0.00151895
-0.00160114
0.000455244
0.001302
-0.00172241
0.00141477
0.000284241
-0.00124377
0.00310848
-0.00151048
-0.000183228
0.00572437
-0.00407991
0.00146403
0.00943564
-0.00742744
0.00371617
0.0143896
-0.0115464
0.00659244
0.0206925
-0.0164063
0.0101034
0.0283938
-0.0219434
0.0142422
0.0374728
-0.0280581
0.0189791
0.0478318
-0.0346179
0.0242588
0.059297
-0.0414671
0.0300019
0.0716274
-0.0484395
0.0361091
0.0845313
-0.0553721
0.0424682
0.097688
-0.0621184
0.0489617
0.110772
-0.0685588
0.0554748
0.123477
-0.0746088
0.0619039
0.13554
-0.0802196
0.0681561
0.146754
-0.0853923
0.0741784
0.156993
-0.0901264
0.0798878
0.166165
-0.0945717
0.0853993
0.174241
-0.0985222
0.090447
-0.102758
0.0960524
0.180946
4.1444e-05
0.000823375
0.000383908
0.00117648
0.00124639
0.000439518
0.00284423
-0.0013136
0.00538536
-0.00405162
0.00905994
-0.00775449
0.0140236
-0.0123911
0.0203767
-0.0178996
0.0281441
-0.0241737
0.0372598
-0.0310591
0.0475622
-0.0383605
0.0588028
-0.0458585
0.0706659
-0.0533303
0.0827985
-0.0605721
0.0948439
-0.0674174
0.106475
-0.0737498
0.117425
-0.0795087
0.127506
-0.0846897
0.136623
-0.089337
0.144766
-0.0935353
0.152022
-0.0973823
0.158477
-0.101027
0.164394
-0.104439
-0.108149
0.169786
0.000137125
0.00068625
0.000768893
0.000544714
0.00212579
-0.00091738
0.00443269
-0.0036205
0.00789622
-0.00751514
0.0126829
-0.0125411
0.0188913
-0.0185995
0.0265257
-0.025534
0.0354779
-0.0331259
0.0455259
-0.041107
0.0563516
-0.0491863
0.0675754
-0.0570823
0.0788002
-0.0645551
0.0896576
-0.0714295
0.0998479
-0.0776077
0.109168
-0.0830701
0.117525
-0.0878656
0.124931
-0.0920956
0.131485
-0.0958912
0.137345
-0.0993946
0.142692
-0.102729
0.14769
-0.106025
0.152512
-0.109262
-0.112821
0.157184
0.000240381
0.000445869
0.00118797
-0.000402872
0.00308228
-0.00281169
0.00614589
-0.00668411
0.0105598
-0.011929
0.0164282
-0.0184096
0.0237437
-0.025915
0.0323645
-0.0341548
0.042016
-0.0427774
0.0523191
-0.0514101
0.0628406
-0.0597078
0.0731538
-0.0673954
0.0828949
-0.0742961
0.0918055
-0.0803401
0.0997538
-0.085556
0.106732
-0.0900483
0.112835
-0.0939686
0.118224
-0.0974848
0.123088
-0.100755
0.127605
-0.103912
0.131925
-0.107049
0.136139
-0.110239
0.140344
-0.113467
-0.116973
0.144496
0.000354138
9.17318e-05
0.00164405
-0.00169278
0.00410836
-0.005276
0.00794591
-0.0105217
0.0132759
-0.017259
0.0200925
-0.0252261
0.0282341
-0.0340567
0.0373848
-0.0433054
0.0471124
-0.052505
0.0569368
-0.0612346
0.0664072
-0.0691781
0.0751679
-0.0761562
0.0830006
-0.0821289
0.0898339
-0.0871735
0.095725
-0.0914471
0.100821
-0.095144
0.105311
-0.0984591
0.109387
-0.101561
0.11321
-0.104578
0.116899
-0.107601
0.120533
-0.110682
0.124149
-0.113856
0.127791
-0.117109
-0.120587
0.131404
0.000481183
-0.000389451
0.00213743
-0.00334903
0.00518646
-0.00832503
0.00977071
-0.0151059
0.0159023
-0.0233905
0.0234188
-0.0327427
0.0319782
-0.0426161
0.0411044
-0.0524316
0.0502722
-0.0616728
0.0590032
-0.0699656
0.0669428
-0.0771177
0.0739
-0.0831134
0.0798463
-0.0880752
0.0848817
-0.0922089
0.0891828
-0.0957481
0.0929502
-0.0989115
0.0963687
-0.101878
0.0995839
-0.104776
0.102697
-0.107692
0.105772
-0.110675
0.108843
-0.113753
0.111926
-0.116939
0.115043
-0.120225
-0.123688
0.118144
0.000621614
-0.00101107
0.00265848
-0.00538589
0.00627701
-0.0119436
0.0115215
-0.0203504
0.0182517
-0.0301207
0.026121
-0.040612
0.0346208
-0.051116
0.0431804
-0.0609911
0.0512832
-0.0697756
0.0585588
-0.0772413
0.0648242
-0.0833831
0.0700732
-0.0883624
0.07443
-0.0924319
0.0780869
-0.0958658
0.0812487
-0.0989099
0.0840943
-0.101757
0.0867588
-0.104542
0.0893335
-0.107351
0.0918735
-0.110232
0.0944092
-0.113211
0.0969557
-0.1163
0.0995181
-0.119501
0.102104
-0.122811
-0.126259
0.104675
0.000771626
-0.00178269
0.00318498
-0.00779924
0.00731685
-0.0160754
0.0130697
-0.0261033
0.0201199
-0.0371708
0.0279441
-0.0484363
0.0359268
-0.0590986
0.0434988
-0.0685632
0.0502509
-0.0765277
0.055983
-0.0829733
0.06069
-0.0880902
0.0645052
-0.0921776
0.067629
-0.0955558
0.0702694
-0.0985062
0.0726032
-0.101244
0.0747609
-0.103915
0.0768286
-0.10661
0.0788576
-0.10938
0.0808758
-0.11225
0.0828968
-0.115232
0.0849265
-0.11833
0.0869663
-0.121541
0.0890182
-0.124863
-0.128298
0.0910573
0.000923796
-0.00270649
0.00368432
-0.0105598
0.00822792
-0.020619
0.0142804
-0.0321558
0.0213313
-0.0442217
0.0287281
-0.0558331
0.0358357
-0.0662062
0.0421789
-0.0749064
0.0475119
-0.0818606
0.0518073
-0.0872688
0.0551931
-0.091476
0.0578729
-0.0948573
0.0600587
-0.0977416
0.0619299
-0.100377
0.0636176
-0.102931
0.0652069
-0.105504
0.0667478
-0.108151
0.0682673
-0.110899
0.0697788
-0.113761
0.0712888
-0.116742
0.0727993
-0.11984
0.0743108
-0.123052
0.0758225
-0.126374
-0.129795
0.0773198
0.00106807
-0.00377455
0.0041185
-0.0136102
0.00893128
-0.0254318
0.0150401
-0.0382646
0.0217778
-0.0509594
0.0284377
-0.062493
0.0344521
-0.0722206
0.0394959
-0.0799502
0.0434921
-0.0858568
0.0465467
-0.0903234
0.04886
-0.0937892
0.0506492
-0.0966466
0.0521006
-0.099193
0.0533507
-0.101627
0.0544875
-0.104068
0.0555626
-0.106579
0.0566034
-0.109192
0.0576239
-0.11192
0.058631
-0.114768
0.0596276
-0.117739
0.0606147
-0.120827
0.061592
-0.12403
0.0625576
-0.12734
-0.130743
0.0635048
0.00119372
-0.00496827
0.0044514
-0.0168679
0.00936248
-0.0303429
0.015279
-0.0441811
0.0214349
-0.0571153
0.0271507
-0.0682088
0.0319866
-0.0770565
0.0357814
-0.083745
0.0385961
-0.0886715
0.040617
-0.0923443
0.0420655
-0.0952377
0.0431382
-0.0977193
0.0439819
-0.100037
0.0446918
-0.102337
0.0453235
-0.1047
0.0459067
-0.107162
0.0464563
-0.109741
0.0469798
-0.112443
0.0474813
-0.11527
0.0479624
-0.11822
0.0484234
-0.121288
0.0488635
-0.12447
0.0492795
-0.127756
-0.131133
0.0496695
0.00129359
-0.00626186
0.00465738
-0.0202317
0.00948343
-0.0351689
0.0149796
-0.0496773
0.0203544
-0.0624901
0.0250216
-0.072876
0.0286947
-0.0807296
0.0313566
-0.0864069
0.0331611
-0.0904759
0.0343273
-0.0935105
0.0350642
-0.0959746
0.0355332
-0.0981883
0.0358415
-0.100345
0.0360522
-0.102548
0.0361987
-0.104846
0.0362977
-0.107261
0.0363575
-0.109801
0.0363828
-0.112468
0.0363762
-0.115263
0.0363392
-0.118183
0.0362724
-0.121222
0.0361749
-0.124372
0.0360433
-0.127624
0.0358782
-0.130968
-0.000292213
-0.00210367
0.00239588
-0.00102042
-0.00469456
0.00542277
-0.00209394
-0.00614568
0.0072192
-0.00344432
-0.00674455
0.00809493
-0.00501927
-0.00673759
0.00831254
-0.00678023
-0.00632024
0.0080812
-0.0086989
-0.00562972
0.0075484
-0.0107534
-0.00474569
0.00680024
-0.0129249
-0.00369836
0.00586984
-0.0151947
-0.00248079
0.00475051
-0.0175438
-0.00106122
0.00341033
-0.0199419
0.000595087
0.00180308
-0.0223644
0.00253661
-0.000114111
-0.0247785
0.00479923
-0.00238517
-0.0271395
0.00741446
-0.00505342
-0.0293967
0.0104018
-0.00814462
-0.0314905
0.0137666
-0.0116728
-0.033353
0.017497
-0.0156345
-0.034909
0.0215611
-0.0200051
-0.0360788
0.0259049
-0.0247351
-0.0367829
0.0304521
-0.029748
-0.0369455
0.0351045
-0.0349418
-0.0365071
0.039756
-0.0401944
0.0443278
-0.0354758
-0.0453591
-0.000325882
-0.00177778
-0.00111421
-0.00390623
-0.00224746
-0.00501244
-0.00364085
-0.00535116
-0.00523393
-0.00514451
-0.00698482
-0.00456935
-0.00886399
-0.00375055
-0.0108481
-0.00276155
-0.0129152
-0.00163133
-0.0150406
-0.000355404
-0.0171924
0.00109063
-0.0193384
0.00274112
-0.0214336
0.00463178
-0.023427
0.00679265
-0.0252577
0.00924511
-0.0268546
0.0119987
-0.0281365
0.0150485
-0.0290123
0.0183728
-0.0293824
0.0219311
-0.0291409
0.0256635
-0.0281819
0.029493
-0.0264073
0.0333299
-0.0237302
0.0370789
0.0406781
-0.0200805
-0.000335191
-0.00144259
-0.00112988
-0.00311154
-0.00224852
-0.0038938
-0.00359328
-0.00400639
-0.00509516
-0.00364262
-0.00670649
-0.00295802
-0.00839307
-0.00206398
-0.0101267
-0.00102796
-0.0118788
0.000120829
-0.0136163
0.0013821
-0.0152992
0.00277355
-0.0168793
0.00432115
-0.0182985
0.00605102
-0.0194897
0.00798385
-0.0203756
0.010131
-0.0208689
0.0124919
-0.0208721
0.0150518
-0.020279
0.0177797
-0.0189756
0.0206277
-0.0168423
0.0235302
-0.0137555
0.0264063
-0.00959539
0.0291697
-0.00425391
0.0317374
0.0341518
0.00227234
-0.00032697
-0.00111562
-0.00109008
-0.00234844
-0.00214245
-0.00284142
-0.00337551
-0.00277333
-0.00471113
-0.00230701
-0.00609366
-0.00157549
-0.00748148
-0.000676156
-0.00883896
0.000329507
-0.0101297
0.00141159
-0.0113119
0.00256433
-0.0123356
0.00379723
-0.0131411
0.00512662
-0.0136588
0.00656872
-0.0138094
0.0081345
-0.0135045
0.00982604
-0.0126465
0.011634
-0.0111306
0.0135358
-0.00884477
0.0154939
-0.00567439
0.0174574
-0.00150165
0.0193575
0.00379052
0.0211141
0.0103214
0.0226388
0.0182074
0.0238515
0.0246865
0.0276727
-0.000310016
-0.000805608
-0.00102248
-0.00163598
-0.00198319
-0.00188071
-0.00307445
-0.00168207
-0.0042088
-0.00117266
-0.00532131
-0.000462978
-0.00636132
0.00036386
-0.00728449
0.00125267
-0.00804614
0.00217324
-0.00859643
0.00311462
-0.0088774
0.0040782
-0.00882173
0.00507094
-0.00835259
0.00609959
-0.00738407
0.00716597
-0.00582262
0.00826459
-0.00356854
0.00937989
-0.000517181
0.0104845
0.00343724
0.0115395
0.00840386
0.0124907
0.0144878
0.0132736
0.0217926
0.0138093
0.0304243
0.0140071
0.0404529
0.0138228
0.0128811
0.0522583
-0.000292224
-0.000513384
-0.00095143
-0.00097677
-0.00181765
-0.00101448
-0.00276532
-0.000734404
-0.00369812
-0.00023987
-0.00454173
0.000380636
-0.00523606
0.00105819
-0.00572786
0.00174447
-0.00596446
0.00240984
-0.00588912
0.00303928
-0.00543818
0.00362726
-0.00453978
0.00417254
-0.00311379
0.00467361
-0.00107325
0.00512542
0.00167533
0.00551601
0.00522979
0.00582543
0.00968987
0.00602442
0.0151561
0.0060733
0.0217258
0.00592098
0.0294931
0.00550627
0.0385417
0.00476068
0.0489853
0.00356356
0.0607704
0.00203771
-0.000902489
0.074554
-0.000277948
-0.000235436
-0.000889939
-0.000364779
-0.00167022
-0.000234199
-0.00248643
8.18023e-05
-0.00323426
0.000507959
-0.0038305
0.000976881
-0.00420578
0.00143347
-0.00429775
0.00183644
-0.00404539
0.00215748
-0.00338477
0.00237865
-0.00224628
0.00248877
-0.000553432
0.00247969
0.00177713
0.00234304
0.0048353
0.00206726
0.00871548
0.00163583
0.0135153
0.00102563
0.0193336
0.000206104
0.0262679
-0.000861058
0.0344141
-0.00222522
0.0438634
-0.003943
0.0546813
-0.00605719
0.0670163
-0.00877152
0.0806455
-0.0115914
-0.0166993
0.0964423
-0.000266438
3.10023e-05
-0.000834845
0.000203628
-0.00153321
0.000464168
-0.00222288
0.000771468
-0.00279181
0.00107689
-0.00314754
0.00133261
-0.00321017
0.0014961
-0.00290604
0.00153231
-0.0021625
0.00141395
-0.000904117
0.00112026
0.000949829
0.000634826
0.00348655
-5.70304e-05
0.00679933
-0.00096974
0.0109868
-0.0021202
0.016151
-0.00352838
0.0223951
-0.00521845
0.0298205
-0.00721928
0.0385241
-0.00956468
0.0485913
-0.0122925
0.0601017
-0.0154533
0.0730831
-0.0190386
0.0876672
-0.0233556
0.103523
-0.0274469
-0.0345483
0.121372
-0.000252104
0.000283107
-0.000767681
0.000719205
-0.0013682
0.00106468
-0.00190806
0.00131133
-0.00226589
0.00143472
-0.00233709
0.00140381
-0.00202701
0.00118601
-0.00124502
0.000750325
0.000100119
6.88097e-05
0.00210306
-0.000882681
0.00486332
-0.00212543
0.00848548
-0.00367919
0.0130772
-0.00556148
0.0187462
-0.00778916
0.0255962
-0.0103784
0.0337228
-0.013345
0.0432076
-0.016704
0.054113
-0.0204701
0.0664749
-0.0246543
0.080301
-0.0292794
0.0955435
-0.0342811
0.112161
-0.0399731
0.129912
-0.0451979
-0.0534629
0.148827
-0.000227023
0.00051013
-0.000662122
0.0011543
-0.00112049
0.00152305
-0.00144756
0.0016384
-0.0015088
0.00149596
-0.00118225
0.00107726
-0.000352187
0.000355949
0.0010957
-0.000697562
0.00327657
-0.00211206
0.00630836
-0.00391448
0.0103094
-0.00612647
0.0153944
-0.00876417
0.0216697
-0.0118368
0.0292267
-0.0153462
0.0381349
-0.0192866
0.0484352
-0.0236453
0.060134
-0.0284028
0.0731983
-0.0335344
0.0875516
-0.0390077
0.10307
-0.0447979
0.119596
-0.0508075
0.136843
-0.0572195
0.154761
-0.0631156
-0.071181
0.172479
-0.000184627
0.000694756
-0.000495605
0.00146528
-0.000742276
0.00176972
-0.000758282
0.00165441
-0.000391566
0.00112924
0.000502018
0.00018368
0.00206292
-0.00120496
0.00443008
-0.00306472
0.00774005
-0.00542203
0.0121222
-0.00829659
0.0176925
-0.0116968
0.0245449
-0.0156167
0.0327427
-0.0200345
0.0423093
-0.0249128
0.0532227
-0.0302
0.0654108
-0.0358334
0.0787506
-0.0417427
0.0930707
-0.0478545
0.108154
-0.0540914
0.123751
-0.060395
0.139603
-0.0666586
0.155345
-0.0729616
0.171002
-0.0787729
-0.0854933
0.185314
-0.00012271
-0.000258565
-0.000211251
0.000199392
0.00114541
0.00279311
0.00530433
0.00883205
0.0135134
0.019459
0.0267413
0.0353835
0.0453509
0.0565472
0.0688154
0.0819437
0.0956759
0.109725
0.12379
0.137573
0.150803
0.16324
0.174914
0.185473
-0.0316498
0.0649392
-0.0687651
-0.026547
0.0714955
-0.0765983
-0.0200069
0.076256
-0.0827961
-0.0119078
0.0784674
-0.0865664
-0.00222463
0.0773469
-0.0870301
0.00893314
0.0721774
-0.0833352
0.0212102
0.062455
-0.074732
0.0341118
0.0479096
-0.0608113
0.0471888
0.0285437
-0.0416208
0.0599582
0.00469603
-0.0174654
0.0722356
-0.0230911
0.0108137
0.0839338
-0.0539867
0.0422885
0.0948397
-0.0857111
0.0748052
0.104425
-0.114639
0.105053
0.111946
-0.13703
0.12951
0.11685
-0.150987
0.146082
0.119137
-0.157074
0.154787
0.119017
-0.15736
0.157481
0.116204
-0.155149
0.157962
0.110403
-0.154857
0.160658
0.102888
-0.158349
0.165864
0.0970005
-0.159843
0.165731
0.0962436
-0.146651
0.147408
0.10168
-0.108701
0.103264
0.111879
-0.0478463
0.0376475
0.124109
0.0227696
-0.0349995
0.135777
0.0875687
-0.0992369
0.144883
0.136291
-0.145396
0.150769
0.166709
-0.172596
0.153878
0.181862
-0.184971
0.154238
0.188155
-0.188515
0.151042
0.196862
-0.193667
0.144465
0.212383
-0.205806
0.13713
0.223258
-0.215923
0.132657
0.202848
-0.198375
0.133032
0.137566
-0.137941
0.137729
0.0386714
-0.0433688
0.144509
-0.063065
0.0562856
0.151256
-0.140755
0.134007
0.156126
-0.189116
0.184247
0.157117
-0.210456
0.209464
0.152835
-0.229612
0.233894
0.144605
-0.23921
0.24744
0.136898
-0.237405
0.245112
0.133937
-0.183334
0.186294
0.137195
-0.0881211
0.0848633
0.144254
0.0218143
-0.0288733
0.150338
0.127162
-0.133247
0.151267
0.187111
-0.18804
0.146888
0.263992
-0.259612
0.141294
0.268061
-0.262468
0.139634
0.255962
-0.254302
0.142486
0.151662
-0.154514
0.146259
0.0115911
-0.0153644
0.146983
-0.0754169
0.0746926
0.144753
-0.258181
0.260411
0.142928
-0.252115
0.25394
0.141952
-0.31007
0.311046
0.140637
-0.202141
0.203456
0.0610021
-0.0590358
-0.0140489
0.0589076
-0.00674862
0.0641952
0.00186488
0.0676425
0.0117423
0.0685899
0.0227281
0.0663611
0.0345339
0.0603716
0.0467836
0.0502053
0.0590166
0.0356766
0.0707858
0.0167745
0.0817917
-0.00630985
0.0919841
-0.0332835
0.101289
-0.0632921
0.109498
-0.09392
0.116118
-0.121258
0.120577
-0.141489
0.122547
-0.152957
0.122217
-0.156744
0.120097
-0.15524
0.116134
-0.151187
0.109616
-0.148339
0.100872
-0.149606
0.0927553
-0.151726
0.0894775
-0.143373
0.0933854
-0.112609
0.10354
-0.0580008
0.117034
0.00927553
0.130567
0.074036
0.141759
0.125098
0.149728
0.158741
0.15464
0.17695
0.156342
0.186453
0.154226
0.198979
0.148799
0.21781
0.142594
0.229463
0.138669
0.206773
0.138671
0.137564
0.142231
0.035112
0.147412
-0.0682462
0.15242
-0.145763
0.155826
-0.192522
0.155922
-0.210552
0.151184
-0.224874
0.142595
-0.230622
0.134589
-0.229399
0.131792
-0.180536
0.135699
-0.092028
0.143632
0.0138817
0.150293
0.120501
0.151644
0.185759
0.147548
0.268088
0.141989
0.27362
0.140254
0.257697
0.142994
0.148923
0.146941
0.00764327
0.14763
-0.0761054
0.145191
-0.255741
0.143228
-0.250153
0.142074
-0.308916
0.140612
-0.200679
0.0630336
0.00987426
0.0513057
0.0185365
0.0555329
0.0281985
0.0579804
0.038738
0.0580505
0.0499107
0.0551884
0.0613774
0.048905
0.0727486
0.0388342
0.0836392
0.024786
0.0937242
0.00668947
0.102782
-0.0153674
0.110792
-0.041294
0.117693
-0.0701932
0.123211
-0.0994377
0.126871
-0.124919
0.128315
-0.142932
0.127523
-0.152166
0.124878
-0.154099
0.121035
-0.151398
0.116187
-0.146338
0.109464
-0.141616
0.100266
-0.140408
0.0905268
-0.141988
0.0847029
-0.137549
0.0865052
-0.114411
0.0959264
-0.067422
0.110126
-0.00492455
0.125155
0.059007
0.138304
0.11195
0.148355
0.148689
0.155128
0.170178
0.158327
0.183253
0.157563
0.199743
0.153542
0.221832
0.148545
0.234461
0.145048
0.21027
0.144483
0.138129
0.146718
0.032876
0.15023
-0.0717578
0.153483
-0.149016
0.155433
-0.194473
0.154722
-0.209841
0.149714
-0.219865
0.140963
-0.22187
0.132722
-0.221158
0.129999
-0.177814
0.134383
-0.0964112
0.143058
0.00520652
0.15028
0.113278
0.152133
0.183907
0.148401
0.27182
0.142893
0.279128
0.141041
0.259549
0.143627
0.146337
0.147744
0.00352587
0.148416
-0.0767771
0.145732
-0.253058
0.143608
-0.248029
0.142307
-0.307614
0.140744
-0.199117
0.0651066
0.0360158
0.0429626
0.0452018
0.046347
0.0551103
0.0480719
0.0655534
0.0476073
0.0762342
0.0445076
0.0868081
0.0383311
0.0969276
0.0287147
0.106258
0.0154556
0.114683
-0.00173587
0.121931
-0.0226151
0.127993
-0.047356
0.13271
-0.0749104
0.135698
-0.102425
0.136516
-0.125737
0.135061
-0.141477
0.131709
-0.148814
0.127058
-0.149448
0.12177
-0.146109
0.116213
-0.140781
0.109657
-0.13506
0.100821
-0.131571
0.0903674
-0.131534
0.0822869
-0.129469
0.08142
-0.113544
0.0892866
-0.0752886
0.103376
-0.0190143
0.119525
0.0428585
0.134448
0.0970267
0.146538
0.136599
0.155211
0.161505
0.160064
0.178399
0.160903
0.198904
0.158501
0.224233
0.154759
0.238203
0.151622
0.213407
0.150317
0.139434
0.151086
0.0321076
0.152907
-0.0735794
0.154437
-0.150546
0.154952
-0.194987
0.153485
-0.208374
0.148357
-0.214737
0.139638
-0.213151
0.131241
-0.212761
0.128497
-0.175071
0.133183
-0.101097
0.142481
-0.00409094
0.15027
0.105489
0.152718
0.181459
0.149449
0.275089
0.144032
0.284545
0.142024
0.261557
0.1444
0.143961
0.148649
-0.000723094
0.14933
-0.0774577
0.146371
-0.250099
0.144062
-0.24572
0.142639
-0.306191
0.141019
-0.197497
0.067195
0.0608613
0.0343596
0.070008
0.0372002
0.0796251
0.0384548
0.0895248
0.0377076
0.0993968
0.0346355
0.108919
0.0288085
0.11782
0.0198141
0.125794
0.00748183
0.132854
-0.00879574
0.138704
-0.0284655
0.143197
-0.0518485
0.145959
-0.0776725
0.146503
-0.10297
0.144563
-0.123797
0.140416
-0.13733
0.134823
-0.143221
0.128578
-0.143203
0.12224
-0.139771
0.116159
-0.134701
0.109912
-0.128813
0.102016
-0.123676
0.0918733
-0.121392
0.0822742
-0.11987
0.0785225
-0.109793
0.0839355
-0.0807016
0.0970081
-0.0320869
0.11372
0.0261469
0.13012
0.0806264
0.144117
0.122602
0.154684
0.150938
0.161321
0.171762
0.163981
0.196244
0.163396
0.224819
0.160987
0.240612
0.158135
0.216259
0.156015
0.141554
0.155244
0.0328788
0.155375
-0.0737104
0.155243
-0.150414
0.154358
-0.194102
0.152178
-0.206194
0.147052
-0.209611
0.138544
-0.204644
0.130082
-0.204299
0.127222
-0.172211
0.132042
-0.105917
0.141838
-0.0138869
0.150217
0.0971101
0.153371
0.178305
0.150681
0.277779
0.14542
0.289807
0.143221
0.263756
0.1453
0.141881
0.149658
-0.00508089
0.150357
-0.0781569
0.147102
-0.246844
0.144585
-0.243202
0.14306
-0.304665
0.141424
-0.195861
0.0692701
0.0828677
0.0260459
0.0915403
0.0285277
0.10056
0.0294351
0.109729
0.0285387
0.118735
0.0256299
0.127295
0.0202485
0.135175
0.011934
0.142243
0.00041359
0.148231
-0.0147842
0.152951
-0.033185
0.15602
-0.0549171
0.15689
-0.0785434
0.155081
-0.10116
0.150606
-0.119322
0.14414
-0.130864
0.136738
-0.135819
0.129318
-0.135782
0.122331
-0.132785
0.115952
-0.128322
0.110004
-0.122864
0.103285
-0.116957
0.0943644
-0.112471
0.084367
-0.109872
0.0780481
-0.103474
0.0802597
-0.0829133
0.091352
-0.0431793
0.107852
0.00964668
0.125267
0.063212
0.140921
0.106948
0.153309
0.138549
0.161814
0.163258
0.166465
0.191593
0.167857
0.223426
0.166889
0.24158
0.164362
0.218785
0.161384
0.144533
0.159068
0.0351942
0.157549
-0.0721908
0.155849
-0.148714
0.153623
-0.191876
0.150756
-0.203327
0.145723
-0.204578
0.137586
-0.196507
0.129156
-0.195869
0.126102
-0.169157
0.130881
-0.110696
0.141064
-0.0240703
0.150065
0.0881098
0.154044
0.174325
0.152068
0.279755
0.147049
0.294826
0.144638
0.266167
0.146333
0.140186
0.150746
-0.00949364
0.15148
-0.0788905
0.147915
-0.243279
0.145171
-0.240459
0.143559
-0.303053
0.141942
-0.194244
0.0713012
0.1036
0.0188884
0.111216
0.0209118
0.119261
0.0213897
0.127466
0.0203335
0.135517
0.0175791
0.143182
0.0125839
0.150088
0.00502703
0.156496
-0.00599389
0.161422
-0.0197104
0.164912
-0.0366745
0.166378
-0.056383
0.16521
-0.0773761
0.16109
-0.0970396
0.154373
-0.112605
0.146065
-0.122556
0.137369
-0.127123
0.1292
-0.127614
0.121913
-0.125498
0.115478
-0.121886
0.109781
-0.117167
0.104128
-0.111304
0.0969468
-0.10529
0.0877986
-0.100724
0.0798993
-0.0955744
0.078708
-0.0817219
0.0867715
-0.0512428
0.102118
-0.00569968
0.119887
0.0454426
0.136826
0.0900094
0.150879
0.124496
0.161259
0.152878
0.16801
0.184842
0.17151
0.219927
0.1721
0.24099
0.170038
0.220847
0.166285
0.148286
0.162404
0.0390747
0.159342
-0.0691282
0.156192
-0.145564
0.15271
-0.188394
0.149176
-0.199793
0.144297
-0.199699
0.136661
-0.18887
0.128359
-0.187567
0.125058
-0.165856
0.129628
-0.115266
0.140085
-0.0345272
0.149743
0.0784517
0.154675
0.169393
0.15356
0.28087
0.148893
0.299493
0.146267
0.268792
0.14749
0.138963
0.151892
-0.0138954
0.152673
-0.0796724
0.148798
-0.239403
0.145815
-0.237476
0.144126
-0.301364
0.142559
-0.192677
0.0732544
0.126387
0.0138726
0.132184
0.0151152
0.1386
0.0149736
0.145268
0.0136654
0.151902
0.0109456
0.158216
0.00627002
0.164193
-0.000950128
0.169072
-0.0108731
0.17264
-0.0232779
0.174441
-0.0384758
0.1739
-0.0558424
0.170513
-0.0739887
0.164232
-0.0907583
0.155721
-0.104095
0.146158
-0.112993
0.136725
-0.11769
0.128215
-0.119103
0.120889
-0.118172
0.1146
-0.115597
0.109158
-0.111726
0.104277
-0.106423
0.0988303
-0.0998433
0.0914861
-0.09338
0.0834403
-0.0875286
0.0794274
-0.077709
0.0838982
-0.0557136
0.0967217
-0.0185231
0.114076
0.0280887
0.131775
0.0723105
0.147241
0.10903
0.159432
0.140687
0.168296
0.175979
0.173948
0.214275
0.176204
0.238734
0.174743
0.222307
0.17043
0.1526
0.165194
0.0443105
0.160664
-0.0645988
0.156205
-0.141105
0.151575
-0.183765
0.147386
-0.195604
0.142697
-0.195009
0.13567
-0.181843
0.127585
-0.179483
0.124002
-0.162272
0.128215
-0.119479
0.138828
-0.0451407
0.149177
0.0681028
0.155182
0.163388
0.155087
0.280965
0.150905
0.303676
0.148084
0.271613
0.148756
0.138291
0.153071
-0.0182111
0.153913
-0.0805141
0.149736
-0.235226
0.146509
-0.234249
0.144749
-0.299603
0.143259
-0.191187
0.0750935
0.151381
0.0113183
0.154936
0.0115595
0.159138
0.010772
0.16364
0.00916335
0.168277
0.00630899
0.17265
0.00189707
0.176731
-0.00503129
0.179581
-0.0137228
0.181091
-0.0247882
0.180694
-0.0380789
0.177883
-0.0530313
0.172356
-0.0684617
0.164336
-0.0827389
0.154661
-0.0944197
0.144489
-0.10282
0.134845
-0.108046
0.126338
-0.110597
0.119144
-0.110978
0.113108
-0.10956
0.107974
-0.106592
0.10361
-0.102059
0.099506
-0.0957392
0.0943076
-0.0881816
0.0875298
-0.0807508
0.0820684
-0.0722476
0.0829176
-0.0565627
0.0923044
-0.02791
0.108071
0.0123223
0.125791
0.0545902
0.142293
0.0925275
0.156133
0.126847
0.167095
0.165016
0.175003
0.206366
0.179022
0.234716
0.178251
0.223078
0.173564
0.157287
0.167247
0.0506278
0.161406
-0.0587577
0.155787
-0.135487
0.150146
-0.178123
0.145318
-0.190777
0.140832
-0.190523
0.134516
-0.175527
0.126736
-0.171703
0.122849
-0.158385
0.126579
-0.123209
0.137226
-0.0557879
0.148286
0.0570428
0.15548
0.156195
0.156571
0.279874
0.153018
0.307228
0.150044
0.274588
0.150109
0.138226
0.154258
-0.02236
0.155171
-0.0814267
0.150714
-0.23077
0.147246
-0.230781
0.145415
-0.297772
0.144027
-0.1898
0.0767784
0.173219
0.0105779
0.174833
0.009946
0.176842
0.00876324
0.179089
0.00691589
0.181472
0.00392569
0.183852
-0.000482431
0.185381
-0.00656017
0.185959
-0.0143009
0.185149
-0.0239789
0.182499
-0.0354288
0.177639
-0.0481706
0.170479
-0.0613025
0.161415
-0.0736741
0.151287
-0.0842917
0.14109
-0.0926237
0.131632
-0.0985873
0.123356
-0.102321
0.116387
-0.104009
0.110627
-0.103801
0.105849
-0.101814
0.101905
-0.0981149
0.0986852
-0.0925194
0.0953789
-0.0848754
0.0907406
-0.0761125
0.0855503
-0.0670573
0.0837861
-0.0547986
0.0893243
-0.0334482
0.102321
-0.000674251
0.119053
0.0378583
0.136025
0.0755551
0.151243
0.111629
0.164146
0.152114
0.174207
0.196305
0.180063
0.228859
0.180265
0.222877
0.175534
0.162017
0.168472
0.0576902
0.161518
-0.0518036
0.154873
-0.128842
0.148369
-0.171619
0.142931
-0.185339
0.138631
-0.186223
0.133124
-0.17002
0.125746
-0.164325
0.121535
-0.154174
0.124663
-0.126337
0.135221
-0.0663465
0.146998
0.0452663
0.155469
0.147724
0.157899
0.277443
0.155143
0.309984
0.152105
0.277626
0.151521
0.13881
0.155424
-0.0262636
0.156418
-0.08242
0.15172
-0.226072
0.148015
-0.227077
0.14611
-0.295867
0.144849
-0.188539
0.0782653
0.185346
0.0105459
0.185792
0.00950019
0.186323
0.00823221
0.187025
0.00621385
0.187696
0.00325497
0.188016
-0.000802876
0.187717
-0.00626132
0.186435
-0.0130188
0.183818
-0.021362
0.179539
-0.0311492
0.173399
-0.0420313
0.165473
-0.0533762
0.156201
-0.0644021
0.146312
-0.0744023
0.136578
-0.0828902
0.127597
-0.0896061
0.119703
-0.094427
0.113002
-0.0973084
0.10747
-0.0982683
0.102979
-0.0973226
0.0993662
-0.0945025
0.0966318
-0.0897849
0.094562
-0.0828056
0.0920713
-0.0736218
0.0884607
-0.0634467
0.0857607
-0.0520986
0.0879974
-0.0356849
0.0974313
-0.0101081
0.111986
0.0233039
0.128573
0.0589676
0.144797
0.0954049
0.159636
0.137274
0.172048
0.183894
0.179869
0.221038
0.180972
0.221774
0.176442
0.166548
0.168997
0.065135
0.161191
-0.0439981
0.153629
-0.12128
0.146409
-0.164399
0.140384
-0.179314
0.136179
-0.182018
0.131507
-0.165348
0.124635
-0.157453
0.120077
-0.149615
0.122456
-0.128717
0.13277
-0.076661
0.145225
0.0328116
0.155067
0.137882
0.15901
0.273501
0.157197
0.311797
0.154187
0.280637
0.152976
0.140021
0.156553
-0.0298408
0.157628
-0.0834948
0.152745
-0.22119
0.148804
-0.223135
0.146822
-0.293885
0.145713
-0.18743
0.079509
0.185604
0.0104153
0.185487
0.0096174
0.185434
0.00828483
0.185348
0.00629964
0.185138
0.00346556
0.18458
-0.000245057
0.183207
-0.00488842
0.180944
-0.0107552
0.17748
-0.0178984
0.172614
-0.0262827
0.166268
-0.0356859
0.158593
-0.0457015
0.149989
-0.0557981
0.141014
-0.0654275
0.132224
-0.0740996
0.124044
-0.0814265
0.116739
-0.0871215
0.110421
-0.0909905
0.105113
-0.0929605
0.100793
-0.093002
0.0973543
-0.0910643
0.0947711
-0.0872018
0.0931683
-0.0812028
0.092067
-0.0725205
0.0903171
-0.0616968
0.0881357
-0.0499172
0.0883689
-0.035918
0.0939011
-0.0156403
0.105387
0.0118176
0.120298
0.0440572
0.13637
0.0793331
0.152309
0.121335
0.166793
0.169409
0.176808
0.211023
0.179465
0.219117
0.175932
0.17008
0.168943
0.0721243
0.160422
-0.0354771
0.15209
-0.112948
0.144401
-0.15671
0.137871
-0.172784
0.133628
-0.177775
0.129723
-0.161443
0.123444
-0.151174
0.11852
-0.144692
0.120109
-0.130305
0.129982
-0.0865347
0.14302
0.0197742
0.154126
0.126776
0.159696
0.267931
0.159037
0.312456
0.156228
0.283446
0.154443
0.141806
0.157616
-0.0330134
0.158773
-0.0846522
0.153779
-0.216195
0.149581
-0.218937
0.147549
-0.291853
0.146613
-0.186494
0.0804622
0.202046
0.0102917
-0.201923
0.202763
0.00890062
0.203654
0.0073944
0.20473
0.0052237
0.205826
0.00236919
0.206918
-0.00133707
0.207901
-0.00587121
0.208546
-0.0114003
0.208605
-0.0179574
0.207816
-0.0254937
0.205967
-0.0338372
0.202951
-0.0426857
0.198793
-0.0516399
0.193629
-0.0602634
0.187656
-0.0681266
0.181085
-0.074856
0.174125
-0.0801613
0.166967
-0.0838318
0.159769
-0.085763
0.152676
-0.0859086
0.145764
-0.0841528
0.139037
-0.0804749
0.132647
-0.0748125
0.126676
-0.0665497
0.120466
-0.055487
0.113264
-0.0427147
0.106156
-0.0288097
0.102115
-0.0115992
0.102797
0.0111351
0.107744
0.0391105
0.114807
0.0722699
0.122324
0.113818
0.129943
0.16179
0.138066
0.2029
0.148359
0.208824
0.161418
0.157021
0.172539
0.0610032
0.17803
-0.0409685
0.177146
-0.112064
0.171541
-0.151105
0.163665
-0.164907
0.156176
-0.170286
0.148937
-0.154203
0.140055
-0.142292
0.131751
-0.136388
0.128
-0.126554
0.129898
-0.0884333
0.134262
0.0154101
0.137634
0.123404
0.139311
0.266254
0.140442
0.311326
0.143048
0.280839
0.147254
0.1376
0.152654
-0.0384138
0.15458
-0.0865778
0.149169
-0.210784
0.143215
-0.212983
0.138683
-0.287321
0.134705
-0.182516
0.0824905
0.213545
0.00983843
-0.213092
0.214223
0.00822273
0.215183
0.0064347
0.216191
0.0042158
0.217176
0.00138389
0.218015
-0.00217634
0.218621
-0.00647708
0.218809
-0.0115885
0.218391
-0.0175389
0.217179
-0.0242818
0.215025
-0.0316828
0.211849
-0.0395101
0.207658
-0.0474492
0.202538
-0.0551434
0.196638
-0.0622261
0.190146
-0.0683644
0.18327
-0.0732855
0.176214
-0.0767757
0.169145
-0.0786937
0.162192
-0.0789558
0.155459
-0.0774194
0.148959
-0.073975
0.142743
-0.0685969
0.137015
-0.0608209
0.131579
-0.0500516
0.125577
-0.0367127
0.118955
-0.0221875
0.113514
-0.0061582
0.111984
0.0126651
0.11499
0.0361042
0.121405
0.0658554
0.129574
0.105649
0.138449
0.152915
0.148295
0.193055
0.160893
0.196226
0.175654
0.14226
0.187458
0.0491991
0.192201
-0.0457117
0.190146
-0.110009
0.183394
-0.144353
0.174503
-0.156016
0.166281
-0.162064
0.158851
-0.146773
0.149935
-0.133376
0.141176
-0.127628
0.136672
-0.12205
0.138199
-0.0899607
0.142737
0.0108717
0.146779
0.119362
0.149433
0.263601
0.151616
0.309142
0.154947
0.277508
0.159101
0.133446
0.164324
-0.0436362
0.166018
-0.0882722
0.159817
-0.204583
0.153019
-0.206185
0.147864
-0.282166
0.143557