/*--------------------------------*- C++ -*----------------------------------*\
| =========                 |                                                 |
| \\      /  F ield         | OpenFOAM: The Open Source CFD Toolbox           |
|  \\    /   O peration     | Version:  2512                                  |
|   \\  /    A nd           | Website:  www.openfoam.com                      |
|    \\/     M anipulation  |                                                 |
\*---------------------------------------------------------------------------*/
FoamFile
{
    version     2.0;
    format      ascii;
    arch        "LSB;label=32;scalar=64";
    class       surfaceScalarField;
    location    "91.25";
    object      phi;
}
// * * * * * * * * * * * * * * * * * * * * * * * * * * * * * * * * * * * * * //

dimensions      [0 3 -1 0 0 0 0];

oriented        oriented;

internalField   nonuniform List<scalar> 
26232
(
0.000153391
0.000883634
-0.00103703
0.000700115
0.00141718
-0.0019639
0.0017538
0.000870721
-0.00192441
0.00344413
-0.000684459
-0.00100587
0.00591279
-0.00319887
0.000730207
0.00930377
-0.00663598
0.00324501
0.0137485
-0.0109604
0.00651565
0.0193473
-0.0161221
0.0105233
0.0261489
-0.0220409
0.0152393
0.0341336
-0.0285968
0.0206121
0.043203
-0.0356279
0.0265586
0.0531803
-0.0429388
0.0329615
0.0638224
-0.0503149
0.0396728
0.0748417
-0.0575425
0.0465232
0.0859347
-0.0644281
0.0533352
0.096812
-0.0708158
0.0599384
0.107227
-0.0765986
0.0661833
0.116998
-0.0817242
0.0719533
0.12602
-0.0861918
0.0771704
0.134266
-0.0900516
0.0818056
0.141775
-0.0933669
0.0858577
0.148648
-0.0962829
0.0894097
0.154883
-0.0987451
0.0925106
-0.101191
0.095577
0.160496
0.000194047
0.000689588
0.000912644
0.00069858
0.00230506
-0.000521691
0.00452637
-0.00290577
0.0077326
-0.0064051
0.012065
-0.0109684
0.0176266
-0.016522
0.0244566
-0.0229522
0.0325087
-0.030093
0.0416399
-0.0377279
0.051615
-0.045603
0.0621272
-0.053451
0.0728314
-0.0610192
0.0833836
-0.0680947
0.0934795
-0.074524
0.102887
-0.0802229
0.111464
-0.0851759
0.119168
-0.0894284
0.126047
-0.093071
0.132218
-0.0962226
0.137857
-0.0990059
0.143139
-0.101565
0.148315
-0.103921
-0.106459
0.153583
0.00024857
0.000441018
0.00117412
-0.000226967
0.00295969
-0.00230726
0.00578039
-0.00572647
0.00979223
-0.0104169
0.0151059
-0.016282
0.0217549
-0.0231711
0.0296688
-0.0308661
0.038661
-0.0390852
0.0484387
-0.0475057
0.0586348
-0.0557991
0.0688543
-0.0636706
0.0787265
-0.0708913
0.08795
-0.0773182
0.0963256
-0.0828996
0.103769
-0.0876662
0.110305
-0.0917123
0.116049
-0.095172
0.121172
-0.0981939
0.125871
-0.100922
0.13034
-0.103475
0.13474
-0.105964
0.139224
-0.108405
-0.111046
0.143812
0.000324675
0.000116343
0.00150522
-0.00140751
0.00374756
-0.0045496
0.00723034
-0.00920925
0.0120809
-0.0152675
0.0183376
-0.0225387
0.0259159
-0.0307493
0.0345939
-0.039544
0.0440275
-0.0485188
0.053795
-0.0572732
0.063459
-0.0654631
0.0726308
-0.0728424
0.0810215
-0.079282
0.0884708
-0.0847675
0.0949497
-0.0893785
0.100541
-0.0932573
0.105404
-0.0965752
0.109735
-0.0995032
0.113732
-0.102191
0.117569
-0.104758
0.121382
-0.107289
0.125267
-0.109849
0.129302
-0.112441
-0.115239
0.133494
0.000424846
-0.000308503
0.00190936
-0.00289203
0.00466232
-0.00730255
0.00883726
-0.0133842
0.0144918
-0.0209221
0.0215442
-0.0295911
0.0297518
-0.038957
0.0387295
-0.0485217
0.0480061
-0.0577954
0.0571038
-0.0663709
0.0656163
-0.0739755
0.0732647
-0.0804908
0.0799214
-0.0859387
0.0856009
-0.090447
0.0904259
-0.0942035
0.0945815
-0.0974129
0.098271
-0.100265
0.101681
-0.102913
0.104964
-0.105474
0.10823
-0.108025
0.111556
-0.110615
0.114984
-0.113277
0.118554
-0.116011
-0.118925
0.12224
0.000546893
-0.000855396
0.00237372
-0.00471885
0.00566335
-0.0105922
0.0105053
-0.0182261
0.0168407
-0.0272575
0.0244278
-0.0371781
0.0328547
-0.0473839
0.0416063
-0.0572733
0.0501619
-0.066351
0.0580894
-0.0742984
0.0651086
-0.0809948
0.0711111
-0.0864933
0.0761394
-0.090967
0.080341
-0.0946486
0.0839143
-0.0977767
0.0870617
-0.10056
0.0899589
-0.103162
0.0927412
-0.105696
0.0955036
-0.108236
0.0983079
-0.110829
0.101193
-0.113499
0.104179
-0.116263
0.107288
-0.11912
-0.122129
0.110493
0.000685274
-0.00154067
0.00287304
-0.00690662
0.00668449
-0.0144036
0.0121009
-0.0236425
0.0189061
-0.0340627
0.0266828
-0.0449548
0.0348802
-0.0555813
0.042929
-0.0653222
0.050357
-0.0737789
0.0568639
-0.0808053
0.0623416
-0.0864725
0.0668445
-0.0909961
0.0705328
-0.0946554
0.0736118
-0.0977276
0.0762823
-0.100447
0.0787122
-0.10299
0.0810265
-0.105476
0.0833102
-0.107979
0.0856174
-0.110544
0.0879808
-0.113192
0.0904196
-0.115938
0.0929436
-0.118787
0.0955621
-0.121738
-0.124818
0.0982508
0.000832276
-0.00237295
0.00337417
-0.00944851
0.00764547
-0.0186749
0.013478
-0.0294751
0.0204763
-0.041061
0.0280688
-0.0525473
0.0356336
-0.0631461
0.0426396
-0.0723282
0.0487425
-0.0798818
0.0538115
-0.0858743
0.0578959
-0.0905569
0.0611592
-0.0942594
0.0638104
-0.0973066
0.0660514
-0.0999685
0.0680473
-0.102443
0.0699182
-0.104861
0.0717438
-0.107302
0.0735737
-0.109809
0.0754375
-0.112407
0.0773524
-0.115107
0.0793282
-0.117914
0.0813699
-0.120829
0.083482
-0.12385
-0.126983
0.085647
0.000978718
-0.00335166
0.00383983
-0.0123096
0.00846316
-0.0232983
0.0145027
-0.0355146
0.0213913
-0.0479496
0.0284583
-0.0596143
0.0350959
-0.0697837
0.040887
-0.0781194
0.045651
-0.0846458
0.0494123
-0.0896356
0.0523278
-0.0934724
0.0546086
-0.0965401
0.0564601
-0.0991582
0.0580502
-0.101559
0.059499
-0.103892
0.0608848
-0.106247
0.0622553
-0.108672
0.0636381
-0.111192
0.0650496
-0.113819
0.0664993
-0.116557
0.0679926
-0.119407
0.0695324
-0.122368
0.07112
-0.125438
-0.128607
0.0727444
0.00111427
-0.00446593
0.00423212
-0.0154275
0.00906236
-0.0281285
0.0150742
-0.0415265
0.021567
-0.0544423
0.0278459
-0.0658932
0.0333917
-0.0753295
0.0379407
-0.0826684
0.0414676
-0.0881727
0.0441087
-0.0922768
0.0460734
-0.0954371
0.0475736
-0.0980404
0.0487843
-0.100369
0.0498309
-0.102605
0.050794
-0.104855
0.0517218
-0.107175
0.0526418
-0.109592
0.0535696
-0.11212
0.0545148
-0.114764
0.0554831
-0.117525
0.0564777
-0.120402
0.0575002
-0.123391
0.0585502
-0.126488
-0.12968
0.059623
0.00122872
-0.00569466
0.00451762
-0.0187164
0.0093866
-0.0329975
0.0151383
-0.0472782
0.0209991
-0.0603031
0.0263236
-0.0712177
0.030728
-0.0797338
0.0341033
-0.0860437
0.0365446
-0.090614
0.038251
-0.0939831
0.0394409
-0.096627
0.0403008
-0.0989003
0.0409663
-0.101034
0.0415247
-0.103163
0.0420273
-0.105358
0.0425027
-0.10765
0.0429668
-0.110056
0.0434292
-0.112582
0.0438957
-0.115231
0.0443702
-0.118
0.0448547
-0.120886
0.0453494
-0.123886
0.0458526
-0.126991
-0.13019
0.046363
0.00131581
-0.00701047
0.00467431
-0.0220749
0.00940634
-0.0377295
0.0146905
-0.0525624
0.0197503
-0.0653629
0.0240456
-0.075513
0.0273418
-0.08303
0.0296602
-0.0883622
0.0311728
-0.0921266
0.0320999
-0.0949102
0.0326421
-0.0971692
0.0329503
-0.0992085
0.033123
-0.101207
0.0332182
-0.103259
0.0332672
-0.105407
0.0332871
-0.10767
0.0332873
-0.110057
0.0332739
-0.112569
0.0332513
-0.115208
0.0332224
-0.117971
0.0331888
-0.120853
0.0331505
-0.123847
0.033105
-0.126946
0.0330534
-0.130139
-0.000265908
-0.000702247
0.000968155
-0.000922208
-0.00219373
0.00285003
-0.00188832
-0.00370404
0.00467015
-0.00310597
-0.00514751
0.00636516
-0.00452879
-0.00648279
0.0079056
-0.00611772
-0.00771229
0.00930123
-0.0078389
-0.0088687
0.0105899
-0.00966271
-0.0099988
0.0118226
-0.0115634
-0.0111495
0.0130501
-0.0135182
-0.0123581
0.0143129
-0.0155066
-0.0136476
0.015636
-0.0175086
-0.0150258
0.0170278
-0.0195031
-0.0164869
0.0184814
-0.0214663
-0.0180126
0.0199758
-0.0233707
-0.0195739
0.0214783
-0.0251838
-0.021131
0.0229441
-0.0268681
-0.0226328
0.0243171
-0.0283814
-0.0240158
0.0255291
-0.029678
-0.0252039
0.0265005
-0.0307107
-0.0261092
0.027142
-0.0314338
-0.0266357
0.0273587
-0.031807
-0.0266782
0.0270514
-0.0318132
-0.0261101
0.0261163
-0.0248162
-0.0314812
0.0244841
-0.000321062
-0.000381185
-0.00110345
-0.00141134
-0.00224187
-0.00256562
-0.00366064
-0.00372874
-0.00530189
-0.00484154
-0.00712055
-0.00589363
-0.0090813
-0.00690795
-0.0111565
-0.00792364
-0.0133242
-0.00898171
-0.0155669
-0.0101154
-0.0178689
-0.0113455
-0.020215
-0.0126798
-0.0225882
-0.0141136
-0.0249691
-0.0156318
-0.0273338
-0.0172092
-0.0296543
-0.0188106
-0.0318974
-0.0203896
-0.0340257
-0.0218875
-0.0359988
-0.0232308
-0.0377767
-0.0243313
-0.0393238
-0.0250886
-0.0406105
-0.0253916
-0.041615
-0.0251056
-0.024087
-0.0423442
-0.000350804
-3.03802e-05
-0.00120133
-0.000560814
-0.00243049
-0.00133646
-0.00394993
-0.0022093
-0.00569258
-0.00309888
-0.0076078
-0.00397842
-0.00965776
-0.004858
-0.0118145
-0.0057669
-0.0140572
-0.00673905
-0.0163692
-0.00780331
-0.0187362
-0.00897862
-0.0211431
-0.0102728
-0.0235734
-0.0116833
-0.0260071
-0.013198
-0.0284205
-0.0147958
-0.0307849
-0.0164462
-0.0330664
-0.0181081
-0.0352256
-0.0197282
-0.0372182
-0.0212382
-0.0389983
-0.0225513
-0.0405258
-0.0235611
-0.0417698
-0.0241476
-0.0426992
-0.0241761
-0.02346
-0.0433262
-0.000351051
0.000320671
-0.00120404
0.000292179
-0.00243344
-0.000107062
-0.00394402
-0.000698715
-0.00566189
-0.00138102
-0.0075313
-0.00210901
-0.00951005
-0.00287924
-0.011567
-0.00370996
-0.0136784
-0.00462764
-0.0158248
-0.00565689
-0.0179883
-0.00681519
-0.02015
-0.00811105
-0.0222894
-0.00954397
-0.0243825
-0.0111049
-0.0264019
-0.0127764
-0.0283159
-0.0145322
-0.0300876
-0.0163365
-0.0316734
-0.0181424
-0.0330217
-0.0198899
-0.034072
-0.0215009
-0.0347617
-0.0228715
-0.035037
-0.0238723
-0.0348435
-0.0243696
-0.0241458
-0.0341577
-0.00032199
0.000642661
-0.00111184
0.00108202
-0.00225064
0.00103174
-0.00364255
0.000693197
-0.00520801
0.000184441
-0.0068879
-0.000429122
-0.00863192
-0.00113522
-0.0104026
-0.00193927
-0.012169
-0.00286124
-0.0139038
-0.00392206
-0.0155808
-0.00513825
-0.0171725
-0.00651932
-0.0186496
-0.00806687
-0.0199803
-0.00977425
-0.0211304
-0.0116263
-0.0220637
-0.0135989
-0.0227415
-0.0156587
-0.0231216
-0.0177622
-0.0231555
-0.019856
-0.0227827
-0.0218738
-0.0219261
-0.0237281
-0.0205048
-0.0252936
-0.0184563
-0.0264181
-0.0270012
-0.015601
-0.000267806
0.000910467
-0.00093603
0.00175025
-0.00190143
0.00199714
-0.00307193
0.0018637
-0.00436852
0.00148103
-0.00571987
0.000922224
-0.00706945
0.000214358
-0.0083701
-0.000638616
-0.0095782
-0.00165314
-0.0106535
-0.00284674
-0.0115561
-0.00423567
-0.0122447
-0.00583069
-0.0126764
-0.00763517
-0.0128069
-0.00964379
-0.0125915
-0.0118417
-0.0119866
-0.0142037
-0.010951
-0.0166942
-0.00944616
-0.0192671
-0.00743549
-0.0218667
-0.00488059
-0.0244287
-0.0017281
-0.0268806
0.00211377
-0.0291355
0.00672953
-0.0310338
-0.032373
0.0121014
-0.000196232
0.0011067
-0.000698796
0.00225281
-0.00142481
0.00272315
-0.00228893
0.00272783
-0.00320913
0.00240123
-0.00410913
0.00182223
-0.00492151
0.00102674
-0.00558093
2.08e-05
-0.00603134
-0.00120273
-0.00621424
-0.00266384
-0.00607215
-0.00437777
-0.00554684
-0.00635599
-0.00457942
-0.00860259
-0.00311207
-0.0111111
-0.00109009
-0.0138637
0.00153589
-0.0168297
0.00480762
-0.019966
0.00875774
-0.0232172
0.0134093
-0.0265182
0.0187772
-0.0297966
0.0248717
-0.032975
0.0317298
-0.0359936
0.0393181
-0.0386221
-0.0413015
0.0482465
-0.00011698
0.00122368
-0.000428252
0.00256408
-0.000870499
0.0031654
-0.00136509
0.00322242
-0.00182801
0.00286415
-0.00217526
0.00216948
-0.00232538
0.00117685
-0.00219998
-0.000104598
-0.00172063
-0.00168208
-0.000812048
-0.00357242
0.000601221
-0.00579103
0.00259336
-0.00834813
0.00523432
-0.0112435
0.00858779
-0.0144646
0.0127077
-0.0179836
0.0176348
-0.0217569
0.0233949
-0.0257261
0.0299973
-0.0298196
0.0374356
-0.0339566
0.0456914
-0.0380524
0.0547292
-0.0420128
0.0645471
-0.0458115
0.0750381
-0.0491131
-0.0529347
0.0866714
-4.00289e-05
0.00126371
-0.000153861
0.00267791
-0.000291759
0.0033033
-0.000379104
0.00330977
-0.000328679
0.00281372
-4.7341e-05
0.00188814
0.000560287
0.000569225
0.00158963
-0.00113394
0.00313616
-0.00322861
0.00529224
-0.00572851
0.00814616
-0.00864495
0.0117782
-0.0119801
0.0162566
-0.0157219
0.0216325
-0.0198405
0.0279357
-0.0242868
0.0351716
-0.0289928
0.0433201
-0.0338745
0.0523369
-0.0388364
0.0621575
-0.0437772
0.0727032
-0.0485981
0.083889
-0.0531986
0.0956406
-0.0575631
0.107845
-0.0613178
-0.0657295
0.12064
2.67375e-05
0.00123697
0.000100395
0.00260426
0.000267249
0.00313644
0.000603256
0.00297376
0.0012017
0.00221527
0.00216638
0.000923466
0.00360667
-0.000871066
0.00563361
-0.00316088
0.00835588
-0.00595089
0.0118749
-0.00924752
0.0162789
-0.013049
0.0216363
-0.0173375
0.0279887
-0.0220743
0.0353451
-0.0271969
0.0436782
-0.0326199
0.0529243
-0.0382389
0.0629867
-0.0439369
0.0737424
-0.049592
0.0850518
-0.0550866
0.0967681
-0.0603144
0.108757
-0.0651874
0.120872
-0.0696778
0.133088
-0.0735337
-0.0777979
0.145156
7.94987e-05
0.00115747
0.000322423
0.00236133
0.000784083
0.00267478
0.00154865
0.0022092
0.00271966
0.00104426
0.00441335
-0.000770222
0.00675225
-0.00320997
0.00985788
-0.0062665
0.0138426
-0.00993561
0.0188
-0.0142049
0.0247946
-0.0190436
0.0318523
-0.0243952
0.0399527
-0.0301747
0.0490259
-0.0362701
0.0589544
-0.0425484
0.0695799
-0.0488644
0.0807152
-0.0550723
0.0921599
-0.0610366
0.103716
-0.0666425
0.115206
-0.071805
0.12649
-0.0764708
0.137441
-0.0806294
0.148095
-0.084187
-0.0875945
0.157891
0.000120447
0.000517879
0.00126825
0.00247158
0.00424605
0.00672084
0.0100265
0.0142833
0.019587
0.0259942
0.0335091
0.0420754
0.0515736
0.0618266
0.0726135
0.0836874
0.0947985
0.105715
0.116243
0.126244
0.135631
0.144411
0.152734
0.160717
-0.028623
-0.0321535
0.0292954
-0.0249925
-0.0261614
0.0225309
-0.0205194
-0.0176715
0.0131983
-0.015178
-0.00654187
0.00120043
-0.00916636
0.00693396
-0.0129455
-0.00257475
0.02285
-0.0294416
0.00440715
0.0405356
-0.0475175
0.011521
0.0591694
-0.0662832
0.0181746
0.0780621
-0.0847157
0.0239713
0.0958523
-0.101649
0.0285931
0.111635
-0.116257
0.0318432
0.125066
-0.128316
0.0341974
0.135548
-0.137902
0.0369423
0.14181
-0.144555
0.0418021
0.141459
-0.146318
0.0500131
0.131494
-0.139705
0.0614925
0.109806
-0.121285
0.0749912
0.0762624
-0.0897611
0.0891717
0.0324491
-0.0466295
0.103052
-0.0183697
0.0044891
0.115857
-0.0706206
0.0578156
0.126576
-0.116155
0.105436
0.134232
-0.148573
0.140917
0.138445
-0.166875
0.162662
0.139799
-0.174272
0.172918
0.138993
-0.174649
0.175455
0.135548
-0.173049
0.176493
0.128705
-0.176154
0.182997
0.119901
-0.184467
0.193271
0.1132
-0.184614
0.191315
0.112313
-0.15604
0.156927
0.117823
-0.0917508
0.0862406
0.127356
-0.00569675
-0.00383668
0.137569
0.0780292
-0.0882416
0.146109
0.142838
-0.151378
0.152121
0.181428
-0.18744
0.154791
0.200829
-0.203499
0.152735
0.215736
-0.213679
0.146005
0.23673
-0.23
0.137741
0.249556
-0.241293
0.132414
0.221575
-0.216248
0.132495
0.143373
-0.143454
0.137311
0.0256788
-0.0304948
0.144479
-0.0805974
0.0734295
0.150994
-0.165885
0.15937
0.153188
-0.205869
0.203674
0.149151
-0.239013
0.243051
0.14111
-0.257627
0.265668
0.134612
-0.246027
0.252525
0.134307
-0.193186
0.193491
0.139738
-0.0594974
0.0540657
0.145935
0.0323731
-0.0385698
0.147423
0.171577
-0.173065
0.144035
0.233013
-0.229625
0.140059
0.296157
-0.292181
0.139316
0.303524
-0.302781
0.14124
0.143746
-0.14567
0.141958
0.108396
-0.109114
0.140046
-0.167036
0.168948
-0.240027
0.242168
-0.0406601
-0.0338377
-0.0380062
-0.0288153
-0.0343329
-0.0213447
-0.0294914
-0.0113834
-0.0236566
0.00109914
-0.0169293
0.0161227
-0.00951276
0.0331191
-0.00171593
0.0513725
0.0064326
0.0699135
0.0140177
0.0882673
0.0210255
0.104628
0.0274788
0.118613
0.0339931
0.129034
0.0416033
0.1342
0.0512903
0.131772
0.063332
0.119453
0.0769629
0.0961752
0.090848
0.0623772
0.104046
0.0192513
0.116015
-0.0303392
0.126307
-0.0809124
0.1342
-0.124048
0.139097
-0.153469
0.140889
-0.168668
0.140227
-0.17361
0.137991
-0.172413
0.133846
-0.168903
0.12658
-0.168887
0.116907
-0.174795
0.108814
-0.176522
0.106823
-0.154048
0.112154
-0.0970813
0.122498
-0.016041
0.134108
0.0664195
0.144391
0.132554
0.152088
0.17373
0.156014
0.196904
0.154841
0.216908
0.148976
0.242595
0.141568
0.256964
0.136673
0.22647
0.136378
0.143668
0.140116
0.0219406
0.145832
-0.0863135
0.151175
-0.171227
0.152792
-0.207486
0.148511
-0.234732
0.140376
-0.249492
0.133822
-0.239473
0.133771
-0.193136
0.139437
-0.0651629
0.145793
0.0260169
0.147379
0.169991
0.143991
0.236401
0.140078
0.30007
0.13932
0.304282
0.141594
0.141471
0.142674
0.107317
0.140852
-0.165214
-0.23792
-0.0428429
-0.034321
-0.0413828
-0.0302754
-0.038843
-0.0238845
-0.0350484
-0.015178
-0.0298247
-0.00412464
-0.0234787
0.00977676
-0.0160419
0.0256823
-0.00774747
0.0430781
0.000991722
0.0611743
0.0107256
0.0785334
0.0204486
0.0949044
0.0303156
0.108746
0.0407453
0.118604
0.0523196
0.122625
0.0653698
0.118722
0.079551
0.105271
0.0938575
0.0818687
0.107105
0.0491293
0.118671
0.00768586
0.128425
-0.0400935
0.136083
-0.0885703
0.141129
-0.129094
0.143325
-0.155665
0.14288
-0.168222
0.14046
-0.17119
0.136989
-0.168942
0.132357
-0.164272
0.125083
-0.161613
0.114994
-0.164706
0.105652
-0.167179
0.102255
-0.150651
0.106989
-0.101816
0.117708
-0.0267602
0.130529
0.0535986
0.142478
0.120606
0.151842
0.164365
0.157096
0.19165
0.157013
0.216992
0.152233
0.247375
0.145761
0.263437
0.141219
0.231012
0.140443
0.144443
0.142995
0.0193891
0.147214
-0.0905324
0.151331
-0.175344
0.152414
-0.208569
0.148
-0.230318
0.139863
-0.241355
0.133266
-0.232876
0.133398
-0.193267
0.139217
-0.0709822
0.145734
0.0195
0.147458
0.168267
0.144072
0.239788
0.140189
0.303953
0.139416
0.305054
0.142073
0.138815
0.143555
0.105835
0.141825
-0.163484
-0.235844
-0.034724
-0.0337547
-0.0344183
-0.030581
-0.0330157
-0.0252871
-0.0303471
-0.0178467
-0.026266
-0.00820569
-0.0205308
0.00404152
-0.013446
0.0185976
-0.00530524
0.0349373
0.00461305
0.0512561
0.0155696
0.0675769
0.0273364
0.0831376
0.0397931
0.0962888
0.0530264
0.105371
0.0671327
0.108519
0.0819358
0.103918
0.0967894
0.0904177
0.110647
0.0680106
0.122597
0.0371797
0.132259
-0.00197552
0.139797
-0.0476318
0.144925
-0.0936988
0.147259
-0.131428
0.146887
-0.155292
0.144388
-0.165723
0.140462
-0.167265
0.135924
-0.164403
0.130912
-0.159261
0.123963
-0.154664
0.114034
-0.154777
0.103784
-0.15693
0.0987673
-0.145634
0.102389
-0.105438
0.113012
-0.0373827
0.126815
0.0397954
0.140309
0.107112
0.151301
0.153373
0.157967
0.184984
0.159171
0.215787
0.155672
0.250874
0.150182
0.268927
0.145902
0.235292
0.144536
0.145809
0.145906
0.0180189
0.148597
-0.0932239
0.151451
-0.178198
0.152023
-0.209141
0.147564
-0.22586
0.139503
-0.233293
0.132875
-0.226248
0.133112
-0.193504
0.139039
-0.0769088
0.145735
0.0128034
0.147651
0.166351
0.144286
0.243152
0.140411
0.307828
0.13962
0.305845
0.142679
0.135756
0.1446
0.103913
0.142961
-0.161846
-0.233793
-0.0172716
-0.032084
-0.0182005
-0.0296522
-0.0179615
-0.0255261
-0.0164399
-0.0193683
-0.0135703
-0.0110752
-0.00860507
-0.000923726
-0.00254944
0.012542
0.00609114
0.0262967
0.016233
0.0411142
0.0276797
0.0561302
0.0403747
0.0704426
0.0541087
0.0825548
0.0686862
0.0907935
0.0838197
0.0933856
0.0989992
0.0887389
0.113433
0.0759838
0.126184
0.0552594
0.136566
0.0267977
0.144456
-0.00986554
0.14991
-0.053085
0.152631
-0.0964205
0.152379
-0.131175
0.149602
-0.152515
0.145263
-0.161385
0.140113
-0.162115
0.134738
-0.159029
0.129425
-0.153948
0.122989
-0.148228
0.113748
-0.145537
0.103143
-0.146325
0.0965232
-0.139014
0.0984973
-0.107412
0.108559
-0.0474441
0.122974
0.0253804
0.137816
0.09227
0.150355
0.140833
0.158508
0.176831
0.161189
0.213106
0.159147
0.252917
0.154674
0.2734
0.150575
0.239391
0.14858
0.147804
0.14873
0.0178694
0.149947
-0.0944406
0.15151
-0.179762
0.151585
-0.209215
0.147159
-0.221435
0.139238
-0.225372
0.132576
-0.219587
0.132848
-0.193776
0.138853
-0.0829136
0.145764
0.0058915
0.147943
0.164173
0.144642
0.246453
0.140765
0.311705
0.139944
0.306666
0.14341
0.13229
0.145802
0.101522
0.144256
-0.1603
-0.231763
0.00900704
-0.0289897
0.00637994
-0.0270251
0.00504107
-0.0241873
0.00523989
-0.0195671
0.00720473
-0.0130401
0.0108955
-0.00461446
0.0168201
0.00661731
0.0242697
0.0188471
0.0335997
0.0317843
0.0446191
0.0451108
0.0571584
0.0579033
0.070929
0.0687842
0.0855337
0.0761888
0.100432
0.0784871
0.114933
0.074238
0.128233
0.0626838
0.139556
0.0439366
0.148417
0.0179364
0.154815
-0.0162632
0.158452
-0.0567226
0.158925
-0.0968928
0.156267
-0.128517
0.151346
-0.147594
0.145421
-0.15546
0.139309
-0.156002
0.133339
-0.153059
0.127782
-0.14839
0.121902
-0.142348
0.113765
-0.137399
0.103474
-0.136034
0.09556
-0.1311
0.0955476
-0.107399
0.104457
-0.0563539
0.119027
0.0108105
0.134912
0.0763857
0.148869
0.126876
0.158564
0.167136
0.162897
0.208773
0.162468
0.253346
0.15906
0.276808
0.155093
0.243358
0.152419
0.150478
0.151422
0.018866
0.151218
-0.0942366
0.151479
-0.180023
0.151057
-0.208793
0.146734
-0.217112
0.139008
-0.217646
0.132299
-0.212877
0.132533
-0.19401
0.138601
-0.0889822
0.145779
-0.00128627
0.148311
0.161641
0.145141
0.249623
0.141266
0.31558
0.140401
0.307531
0.144268
0.128423
0.147156
0.0986338
0.145701
-0.158845
-0.22975
0.0435745
-0.0243177
0.0395703
-0.0230209
0.0364462
-0.0210632
0.0346763
-0.0177972
0.0345276
-0.0128914
0.0361348
-0.00622165
0.0400775
0.00267467
0.0458911
0.0130335
0.0537942
0.0238811
0.0636238
0.0352812
0.0751646
0.0463626
0.0880486
0.0559002
0.101753
0.0624841
0.115602
0.0646383
0.128829
0.0610113
0.140676
0.0508366
0.150552
0.0340602
0.158086
0.0104031
0.163175
-0.0213525
0.165158
-0.0587057
0.163555
-0.0952895
0.158746
-0.123708
0.152005
-0.140854
0.144791
-0.148246
0.13796
-0.149172
0.131635
-0.146734
0.125912
-0.142667
0.120499
-0.136934
0.113664
-0.130564
0.104363
-0.126734
0.0957451
-0.122481
0.0936797
-0.105334
0.100858
-0.0635319
0.115014
-0.0033462
0.131527
0.0598732
0.146709
0.111694
0.157961
0.155885
0.164097
0.202636
0.165446
0.251998
0.163174
0.279079
0.159331
0.247201
0.155963
0.153846
0.153868
0.0209609
0.152359
-0.0927272
0.151325
-0.178989
0.150398
-0.207866
0.146238
-0.212953
0.138764
-0.210171
0.131983
-0.206095
0.132098
-0.194125
0.138226
-0.0951101
0.14573
-0.00879038
0.148728
0.158643
0.14578
0.252571
0.141927
0.319433
0.141
0.308457
0.145251
0.124172
0.148652
0.0952336
0.147288
-0.157481
-0.227753
0.081073
-0.0187193
0.0760098
-0.0179577
0.0715462
-0.0165995
0.0679825
-0.0142335
0.0656984
-0.0106073
0.0650134
-0.00553663
0.0664058
0.00128222
0.069842
0.00959737
0.0755127
0.0182104
0.0833367
0.0274571
0.0930817
0.0366176
0.104328
0.0446538
0.116484
0.0503284
0.128809
0.0523128
0.140511
0.0493098
0.150872
0.0404753
0.159402
0.0255301
0.165804
0.00400108
0.169605
-0.0251533
0.169931
-0.0590313
0.166368
-0.0917272
0.159693
-0.117033
0.151511
-0.132672
0.14334
-0.140075
0.136011
-0.141843
0.129531
-0.140255
0.123757
-0.136893
0.118671
-0.131848
0.113086
-0.124979
0.105284
-0.118932
0.0967445
-0.113942
0.0928906
-0.10148
0.0979567
-0.068598
0.110925
-0.0163145
0.12762
0.0431781
0.143768
0.0955466
0.156541
0.143112
0.164571
0.194606
0.167821
0.248748
0.166804
0.280097
0.16315
0.250855
0.159058
0.157938
0.156024
0.0239944
0.153311
-0.0900138
0.151013
-0.176691
0.149556
-0.206409
0.145618
-0.209015
0.13846
-0.203014
0.131581
-0.199217
0.131488
-0.194032
0.137661
-0.101284
0.145561
-0.0166902
0.149157
0.155047
0.146547
0.255182
0.142756
0.323224
0.141749
0.309465
0.146357
0.119564
0.150284
0.0913062
0.149005
-0.156202
-0.225773
0.114992
-0.0130713
0.109754
-0.0127194
0.10494
-0.0117853
0.100698
-0.00999166
0.0973334
-0.00724297
0.095219
-0.00342219
0.0944977
0.0020035
0.0955971
0.00849794
0.0987304
0.0150771
0.103996
0.0221912
0.111268
0.0293458
0.120197
0.0357249
0.130225
0.0403001
0.140624
0.0419139
0.150596
0.039338
0.159413
0.0316587
0.166515
0.0184281
0.171815
-0.00129929
0.174077
-0.0274153
0.172615
-0.0575692
0.167206
-0.0863183
0.158995
-0.108822
0.149776
-0.123453
0.140993
-0.131292
0.133366
-0.134216
0.126878
-0.133767
0.121192
-0.131207
0.116334
-0.12699
0.111763
-0.120408
0.105693
-0.112861
0.0980263
-0.106276
0.0929748
-0.0964285
0.0957062
-0.0713294
0.106931
-0.0275395
0.123193
0.0269163
0.139961
0.0787784
0.154146
0.128927
0.164144
0.184607
0.169459
0.243433
0.169824
0.279732
0.166404
0.254274
0.161692
0.162651
0.157742
0.0279439
0.154
-0.0862711
0.150492
-0.173183
0.148474
-0.204391
0.144808
-0.205349
0.138056
-0.196262
0.131061
-0.192222
0.130652
-0.193622
0.136855
-0.107487
0.145211
-0.0250461
0.149553
0.150705
0.147423
0.257312
0.143754
0.326892
0.142653
0.310566
0.147583
0.114635
0.152039
0.0868497
0.150843
-0.155006
-0.223813
0.140162
-0.00807773
0.135479
-0.00803593
0.131089
-0.00739593
0.127173
-0.00607497
0.123891
-0.00396115
0.121554
-0.00108529
0.120083
0.00347445
0.120078
0.00850287
0.121534
0.0136214
0.124687
0.0190378
0.129562
0.0244708
0.135978
0.0293092
0.143545
0.0327336
0.151668
0.0337908
0.159609
0.0313969
0.166658
0.024609
0.172263
0.0128231
0.175853
-0.00488877
0.176354
-0.0279163
0.172989
-0.0542046
0.165923
-0.0792527
0.156565
-0.099463
0.14671
-0.113598
0.137628
-0.12221
0.129882
-0.126471
0.123481
-0.127366
0.118017
-0.125743
0.113382
-0.122354
0.109536
-0.116562
0.105132
-0.108457
0.0989602
-0.100104
0.0935322
-0.0910005
0.0940906
-0.0718877
0.103092
-0.0365406
0.11829
0.0117184
0.135256
0.0618116
0.150667
0.113517
0.162577
0.172698
0.169998
0.236012
0.17191
0.27782
0.168927
0.257258
0.163718
0.167859
0.159034
0.0326276
0.154376
-0.0816133
0.149738
-0.168545
0.147113
-0.201765
0.143755
-0.201991
0.137518
-0.190025
0.130417
-0.185121
0.129571
-0.192776
0.135758
-0.113674
0.144618
-0.0339062
0.149867
0.145456
0.148376
0.258804
0.144916
0.330352
0.143716
0.311765
0.148926
0.109425
0.153905
0.0818706
0.15279
-0.15389
-0.22188
0.153911
-0.00409711
0.150076
-0.00420179
0.146466
-0.003785
0.14337
-0.00297902
0.141029
-0.00162033
0.139276
0.000667756
0.138412
0.00433799
0.138485
0.00842978
0.139445
0.0126621
0.141651
0.0168311
0.145133
0.0209894
0.149784
0.0246576
0.15532
0.0271975
0.16132
0.0277908
0.167212
0.0255054
0.172325
0.0194963
0.175895
0.00925266
0.177631
-0.00662476
0.176251
-0.0265366
0.171144
-0.0490975
0.162843
-0.0709514
0.152857
-0.0894771
0.142804
-0.103544
0.13372
-0.113126
0.12601
-0.11876
0.119715
-0.121072
0.114504
-0.120532
0.110092
-0.117942
0.106657
-0.113127
0.103561
-0.105361
0.0991524
-0.0956958
0.0941685
-0.0860166
0.0930318
-0.0707511
0.0995041
-0.0430129
0.112995
-0.00177229
0.129628
0.0451781
0.146051
0.0970945
0.159942
0.158806
0.169673
0.226281
0.173223
0.274269
0.170679
0.259801
0.165223
0.173316
0.159896
0.0379543
0.154507
-0.0762244
0.148856
-0.162894
0.14556
-0.19847
0.142491
-0.198921
0.136855
-0.184389
0.129684
-0.17795
0.128286
-0.191377
0.134355
-0.119743
0.143717
-0.0432684
0.150043
0.13913
0.149373
0.259474
0.146222
0.333503
0.144932
0.313055
0.150386
0.103971
0.155864
0.0763933
0.154833
-0.15286
-0.219985
0.158055
-0.00143557
0.155207
-0.0013531
0.15252
-0.00109862
0.150206
-0.000665237
0.14821
0.000376308
0.146789
0.00208861
0.146497
0.00463045
0.147191
0.00773485
0.148764
0.0110893
0.151065
0.0145299
0.154137
0.0179183
0.157939
0.0208548
0.162298
0.0228389
0.166866
0.0232229
0.171156
0.0212152
0.17462
0.0160326
0.176856
0.00701599
0.176524
-0.00629222
0.173342
-0.0233551
0.166982
-0.0427374
0.15821
-0.0621793
0.14837
-0.0796374
0.138713
-0.0938864
0.130009
-0.104423
0.122537
-0.111288
0.116371
-0.114905
0.111349
-0.11551
0.107118
-0.113712
0.103816
-0.109826
0.101482
-0.103027
0.0986811
-0.0928949
0.0947185
-0.0820539
0.0925693
-0.0686019
0.0965912
-0.0470348
0.107587
-0.0127683
0.123257
0.0295081
0.139964
0.0803879
0.155342
0.143428
0.1674
0.214223
0.172958
0.268712
0.171362
0.261397
0.165906
0.178771
0.160397
0.0434635
0.154322
-0.0701493
0.147885
-0.156457
0.143925
-0.19451
0.141081
-0.196077
0.136084
-0.179392
0.128888
-0.170754
0.126887
-0.189377
0.132771
-0.125628
0.142509
-0.0530064
0.150019
0.13162
0.150363
0.25913
0.14766
0.336206
0.146306
0.314409
0.151959
0.0983178
0.157897
0.0704549
0.156975
-0.151938
-0.218112
0.185084
0.00152716
-0.188047
0.182554
0.00117721
0.18011
0.00134534
0.177646
0.00179907
0.175347
0.00267468
0.173321
0.00411509
0.171777
0.00617416
0.170816
0.00869579
0.170454
0.0114512
0.170752
0.0142324
0.171867
0.016803
0.17391
0.0188117
0.17695
0.019799
0.18097
0.0192031
0.185801
0.0163845
0.191064
0.0107695
0.196084
0.0019957
0.200162
-0.0103705
0.202323
-0.0255155
0.20189
-0.0423048
0.198827
-0.0591161
0.193612
-0.0744225
0.1869
-0.0871745
0.179337
-0.0968597
0.171414
-0.103365
0.163507
-0.106998
0.155886
-0.107888
0.148484
-0.10631
0.141308
-0.102649
0.134745
-0.0964638
0.128202
-0.0863527
0.120337
-0.0741881
0.112118
-0.060383
0.107324
-0.042241
0.108779
-0.0142235
0.114783
0.023504
0.122092
0.0730795
0.128346
0.137174
0.133623
0.208946
0.138958
0.263377
0.1465
0.253855
0.156313
0.168958
0.164656
0.0351209
0.167974
-0.0734675
0.165367
-0.153851
0.160415
-0.189557
0.154634
-0.190296
0.147
-0.171758
0.137999
-0.161753
0.132104
-0.183482
0.131985
-0.125508
0.134516
-0.0555374
0.135846
0.130289
0.133991
0.260986
0.132012
0.338185
0.134144
0.312277
0.141262
0.0911998
0.147456
0.0642611
0.145922
-0.150405
-0.21423
0.1962
0.00348455
-0.198157
0.194344
0.00303366
0.192607
0.00308153
0.190924
0.00348217
0.189377
0.0042217
0.188112
0.00538044
0.187291
0.00699465
0.187014
0.00897367
0.187331
0.0111335
0.188304
0.0132595
0.189994
0.0151134
0.192432
0.0163738
0.1956
0.0166301
0.199398
0.015406
0.203579
0.0122028
0.207744
0.00660511
0.211452
-0.0017129
0.213904
-0.0128225
0.214518
-0.0261297
0.212909
-0.0406957
0.2091
-0.0553067
0.203455
-0.0687774
0.1965
-0.0802197
0.188813
-0.0891724
0.180864
-0.0954165
0.172961
-0.099095
0.165349
-0.100276
0.158035
-0.098996
0.150868
-0.0954822
0.144211
-0.0898072
0.138035
-0.0801761
0.131049
-0.0672022
0.12306
-0.0523944
0.117104
-0.0362845
0.116604
-0.0137236
0.121595
0.0185124
0.128926
0.0657485
0.136046
0.130054
0.142617
0.202376
0.149612
0.256382
0.158933
0.244533
0.169768
0.158124
0.17855
0.0263387
0.181387
-0.0763039
0.177759
-0.150223
0.171619
-0.183417
0.165075
-0.183752
0.157147
-0.16383
0.147628
-0.152234
0.141062
-0.176916
0.140414
-0.124861
0.143008
-0.0581305
0.144856
0.128441
0.143525
0.262317
0.141968
0.339742
0.144345
0.3099
0.151884
0.0836603
0.15854