/*--------------------------------*- C++ -*----------------------------------*\
| =========                 |                                                 |
| \\      /  F ield         | OpenFOAM: The Open Source CFD Toolbox           |
|  \\    /   O peration     | Version:  2512                                  |
|   \\  /    A nd           | Website:  www.openfoam.com                      |
|    \\/     M anipulation  |                                                 |
\*---------------------------------------------------------------------------*/
FoamFile
{
    version     2.0;
    format      ascii;
    arch        "LSB;label=32;scalar=64";
    class       volVectorField;
    location    "57.25";
    object      U;
}
// * * * * * * * * * * * * * * * * * * * * * * * * * * * * * * * * * * * * * //

dimensions      [0 1 -1 0 0 0 0];

internalField   nonuniform List<vector> 
13248
(
(-0.012871 0.0120104 7.15477e-20)
(-0.0243272 0.0261048 0)
(-0.0217458 0.0342833 -1.3522e-19)
(-0.00594715 0.0382677 1.27378e-19)
(0.022463 0.0395057 1.19211e-19)
(0.0630156 0.0391857 0)
(0.115262 0.0382357 0)
(0.178657 0.0373672 2.88993e-19)
(0.25241 0.0370996 -7.35953e-22)
(0.33534 0.0377688 -2.53716e-19)
(0.42578 0.0395283 2.37318e-19)
(0.521558 0.0423547 -1.48547e-19)
(0.620063 0.0460632 0)
(0.718399 0.0503356 -2.60304e-19)
(0.813584 0.0547614 4.87661e-19)
(0.902774 0.0588863 -1.15937e-19)
(0.983481 0.0622701 -2.1073e-19)
(1.05375 0.0645116 1.97827e-19)
(1.11232 0.0653872 0)
(1.15859 0.0644723 0)
(1.19294 0.0625234 0)
(1.21538 0.0569114 0)
(1.22912 0.054738 6.16423e-20)
(1.23154 0.0370301 2.24793e-19)
(-0.0124974 0.0103377 -2.15992e-19)
(-0.0196322 0.0206267 1.47179e-19)
(-0.00948027 0.0256466 -1.31396e-21)
(0.0167427 0.0273916 -1.9444e-19)
(0.0581999 0.0274738 -1.19084e-19)
(0.114156 0.0271773 -1.12626e-19)
(0.183712 0.0274467 -2.07395e-19)
(0.265591 0.0289329 1.9604e-19)
(0.357961 0.0320152 0)
(0.458333 0.0368043 5.19927e-22)
(0.563596 0.0431508 9.87098e-22)
(0.670185 0.0506747 1.48212e-19)
(0.774355 0.0588197 0)
(0.872505 0.0669284 0)
(0.961495 0.0743282 1.7852e-19)
(1.0389 0.0804156 -3.35416e-19)
(1.10319 0.0847254 2.03231e-19)
(1.15379 0.0869757 -1.90801e-19)
(1.19104 0.0870847 -8.48924e-20)
(1.21611 0.0851441 -1.56769e-19)
(1.23059 0.0814904 -6.62105e-20)
(1.23678 0.0761043 -1.24911e-19)
(1.23629 0.0712666 1.81493e-19)
(1.23148 0.0615769 5.24558e-20)
(-0.0112363 0.00841335 0)
(-0.0116808 0.0148048 0)
(0.00897469 0.0171251 6.87745e-20)
(0.0489042 0.0174829 6.33816e-20)
(0.106783 0.0175766 -1.47431e-21)
(0.181236 0.0187279 -1.16126e-19)
(0.270393 0.0218041 0)
(0.371633 0.027249 -9.75759e-20)
(0.481485 0.0351068 9.18822e-20)
(0.595729 0.0450456 5.36745e-22)
(0.709706 0.0564163 -1.58294e-19)
(0.818765 0.0683533 -1.46312e-19)
(0.918739 0.0799047 1.75176e-21)
(1.00635 0.0901688 -1.23609e-19)
(1.07947 0.0984138 2.94772e-19)
(1.13726 0.10416 0)
(1.18007 0.107215 -1.95626e-19)
(1.20926 0.107656 9.48067e-20)
(1.22692 0.10581 8.48188e-20)
(1.23544 0.102062 0)
(1.23733 0.0971632 7.05644e-20)
(1.23462 0.0909551 -2.44485e-19)
(1.2291 0.0859889 2.29509e-19)
(1.22266 0.0767886 1.46595e-19)
(-0.00866843 0.0061726 -7.61965e-20)
(0.000539017 0.00867812 -7.87593e-20)
(0.0349988 0.00903359 7.12921e-20)
(0.0920135 0.00922014 0)
(0.169368 0.0108672 0)
(0.264481 0.0151835 -2.40229e-21)
(0.373829 0.022754 0)
(0.492808 0.0335599 -2.98027e-19)
(0.615915 0.0470441 2.77413e-19)
(0.737246 0.0622212 -3.43374e-19)
(0.851156 0.0778498 7.91348e-20)
(0.952929 0.0926412 0)
(1.03926 0.105463 1.33626e-19)
(1.10852 0.115491 -2.48305e-19)
(1.16068 0.122292 5.90855e-20)
(1.19711 0.125829 1.5467e-19)
(1.22014 0.126388 -5.37754e-21)
(1.23258 0.124482 -1.73003e-19)
(1.23728 0.12072 0)
(1.23678 0.115711 0)
(1.23304 0.11004 -6.35973e-20)
(1.22745 0.103857 5.75075e-20)
(1.221 0.0986787 2.09087e-19)
(1.21417 0.0905241 -1.96287e-19)
(-0.0043592 0.003651 -8.01968e-20)
(0.0179998 0.0025102 -7.99438e-20)
(0.0697465 0.0019606 2.24899e-19)
(0.14697 0.00354362 -1.36559e-19)
(0.245998 0.00856987 1.2854e-19)
(0.362314 0.0178646 2.3391e-19)
(0.490057 0.0314067 -1.65378e-19)
(0.622253 0.0483893 -2.01973e-19)
(0.75153 0.0674204 3.41897e-21)
(0.87108 0.0868027 2.59464e-19)
(0.975551 0.104853 0)
(1.06163 0.120186 7.22889e-20)
(1.12821 0.131907 0)
(1.17616 0.13967 -1.19921e-19)
(1.20782 0.143626 1.68849e-19)
(1.22636 0.144286 1.67246e-21)
(1.23515 0.142355 -4.50719e-20)
(1.23725 0.13857 8.5195e-20)
(1.23515 0.133593 7.3974e-20)
(1.23061 0.127942 -6.69104e-20)
(1.22479 0.122024 6.35826e-20)
(1.21835 0.115941 -5.74936e-20)
(1.21163 0.110584 0)
(1.20508 0.103126 -4.43285e-20)
(0.00209892 0.00100566 8.01854e-20)
(0.0415187 -0.00315536 8.41365e-20)
(0.11396 -0.00316329 -7.53472e-20)
(0.213848 0.00169544 1.40438e-19)
(0.33534 0.0120426 -1.32184e-19)
(0.471251 0.0279178 1.19801e-19)
(0.612965 0.0482941 -5.74757e-20)
(0.751361 0.071301 1.51597e-19)
(0.878157 0.0946738 -9.54016e-20)
(0.987126 0.116235 1.70377e-19)
(1.0748 0.13429 -3.94249e-19)
(1.14055 0.147856 1.4527e-19)
(1.18609 0.156687 -1.28742e-19)
(1.21466 0.16114 1.20926e-19)
(1.23018 0.161958 1.05939e-19)
(1.23646 0.16003 9.41072e-20)
(1.23675 0.15621 -2.62029e-19)
(1.23348 0.151204 1.63065e-19)
(1.22829 0.145532 -7.3977e-20)
(1.22217 0.13955 1.95041e-19)
(1.21569 0.133486 -6.28495e-20)
(1.20911 0.127438 -1.5594e-19)
(1.20259 0.121873 1.4439e-19)
(1.19627 0.11493 4.43137e-20)
(0.0110499 -0.00148683 0)
(0.0716385 -0.00750826 7.10269e-22)
(0.167781 -0.00511737 1.57469e-19)
(0.291676 0.00509148 -1.47689e-19)
(0.434574 0.0225498 -1.33412e-19)
(0.586133 0.0460228 2.48148e-19)
(0.735187 0.0731354 -1.15331e-19)
(0.871523 0.10091 1.54446e-19)
(0.987591 0.126507 -2.98024e-21)
(1.07944 0.147793 -8.79424e-20)
(1.14671 0.163628 1.93696e-19)
(1.19184 0.173841 -2.86565e-19)
(1.21893 0.179002 0)
(1.23263 0.180094 -5.70781e-20)
(1.23721 0.178204 -1.53838e-19)
(1.23613 0.174316 4.82511e-20)
(1.23185 0.1692 1.6447e-21)
(1.22598 0.163398 -1.09333e-19)
(1.21945 0.157264 5.70297e-21)
(1.21274 0.151016 1.26981e-19)
(1.20609 0.144789 -5.74525e-20)
(1.19959 0.138667 -2.2422e-20)
(1.19324 0.13283 6.80114e-20)
(1.1871 0.126225 0)
(0.0227342 -0.00344956 0)
(0.108508 -0.00954158 4.26881e-20)
(0.230577 -0.0025349 -2.0531e-19)
(0.37832 0.0150858 7.47415e-20)
(0.539529 0.0409662 -7.0344e-20)
(0.700798 0.0721526 -6.44236e-20)
(0.849454 0.104829 -1.1429e-19)
(0.975946 0.13524 5.67916e-20)
(1.07526 0.160579 4.9662e-20)
(1.14691 0.17939 0)
(1.19392 0.191508 1.15033e-19)
(1.2212 0.197705 -1.72113e-19)
(1.23418 0.199225 1.2832e-19)
(1.2377 0.197397 5.71076e-20)
(1.23556 0.193372 -4.74495e-20)
(1.23039 0.188025 -4.03147e-20)
(1.22381 0.181949 -3.79666e-20)
(1.21676 0.175519 1.12271e-19)
(1.2097 0.168959 0)
(1.20284 0.162402 5.77384e-20)
(1.19623 0.15593 4.94976e-20)
(1.18987 0.149603 -1.21837e-19)
(1.18371 0.143444 -8.49175e-20)
(1.17774 0.137038 7.84157e-20)
(0.0372456 -0.00443313 -4.60334e-20)
(0.151777 -0.00815704 -1.72852e-21)
(0.300855 0.0059 4.17805e-20)
(0.470561 0.0327047 1.16874e-19)
(0.645163 0.0675409 3.41322e-20)
(0.809094 0.10553 -6.58968e-20)
(0.949959 0.141723 6.0229e-20)
(1.0608 0.172265 -5.30426e-20)
(1.1404 0.195097 9.55171e-20)
(1.19204 0.209907 4.1056e-20)
(1.22142 0.217633 -1.16417e-19)
(1.23487 0.219822 3.4543e-20)
(1.23798 0.218104 5.9514e-20)
(1.23507 0.213871 -2.91952e-20)
(1.22906 0.208157 0)
(1.22174 0.201645 4.44308e-20)
(1.21406 0.194755 7.59755e-20)
(1.2065 0.187727 1.35763e-20)
(1.19926 0.1807 -6.38399e-20)
(1.1924 0.173753 2.7035e-20)
(1.18589 0.166941 0)
(1.17968 0.160293 -2.16284e-20)
(1.1737 0.153776 -2.07057e-20)
(1.16787 0.147409 0)
(0.0544808 -0.00395199 0)
(0.200525 -0.00229068 2.4121e-20)
(0.376278 0.0212521 4.46434e-20)
(0.564393 0.058443 -1.19207e-19)
(0.746277 0.10183 3.85019e-20)
(0.90589 0.144814 0)
(1.03317 0.182029 5.83541e-20)
(1.12521 0.210341 -8.15356e-20)
(1.185 0.229003 -4.77309e-20)
(1.21892 0.239017 2.16495e-20)
(1.23434 0.242266 -3.50528e-20)
(1.23785 0.240777 8.49056e-20)
(1.23453 0.23628 4.30036e-20)
(1.22778 0.230048 -2.96587e-20)
(1.21966 0.222909 -2.54633e-21)
(1.21126 0.215359 -8.30988e-20)
(1.20309 0.207672 3.7974e-20)
(1.19536 0.199998 -9.83005e-22)
(1.18812 0.192421 0)
(1.18136 0.184992 -2.70633e-20)
(1.175 0.177745 0)
(1.16897 0.170678 6.24892e-20)
(1.16318 0.163781 -7.48265e-20)
(1.15751 0.157301 3.42646e-20)
(0.0740997 -0.00152589 -1.25886e-20)
(0.253243 0.00896746 -6.08014e-20)
(0.453824 0.0441809 6.91952e-20)
(0.655487 0.0921774 4.07403e-20)
(0.838233 0.142796 -1.94275e-20)
(0.987663 0.1884 3.28601e-20)
(1.09778 0.224148 -1.59217e-20)
(1.17039 0.24835 2.66893e-20)
(1.21219 0.261841 0)
(1.23167 0.266826 6.1105e-20)
(1.23673 0.265836 -2.35383e-21)
(1.23352 0.26108 -4.96353e-20)
(1.22622 0.254185 2.14094e-20)
(1.21731 0.246209 -2.43668e-20)
(1.20811 0.237768 -9.44121e-21)
(1.19923 0.229198 1.0749e-20)
(1.1909 0.220672 -8.41125e-21)
(1.18319 0.212278 -4.61e-20)
(1.17606 0.204068 2.82831e-20)
(1.16947 0.196077 5.86464e-21)
(1.16331 0.188315 5.21053e-21)
(1.1575 0.180763 4.63323e-21)
(1.15193 0.17348 0)
(1.14644 0.166726 0)
(0.0955801 0.00328688 1.25973e-20)
(0.308038 0.0262848 -1.26016e-20)
(0.530212 0.0748493 -2.30661e-20)
(0.739836 0.133191 0)
(0.917541 0.189015 -9.65935e-21)
(1.0526 0.234694 -8.73103e-21)
(1.14414 0.266841 -1.50059e-20)
(1.19844 0.285655 0)
(1.22503 0.293531 0)
(1.2334 0.293599 0)
(1.23119 0.288724 0)
(1.22369 0.281063 0)
(1.21408 0.272025 -1.34742e-20)
(1.20406 0.26243 6.14575e-21)
(1.1944 0.252712 1.07773e-20)
(1.1854 0.243082 5.05541e-21)
(1.17714 0.233643 1.26191e-20)
(1.16958 0.224448 0)
(1.16269 0.215526 -3.08848e-21)
(1.15636 0.206896 -2.97433e-21)
(1.15049 0.198551 -5.21882e-21)
(1.14499 0.190474 -4.64062e-21)
(1.1397 0.1828 0)
(1.13448 0.175623 3.41524e-21)
(-0.00160049 0.0174114 7.42815e-21)
(-0.006531 0.0406916 -7.69984e-21)
(-0.0147584 0.0556933 -1.45698e-20)
(-0.0247041 0.0645086 0)
(-0.035469 0.0688448 -1.94473e-20)
(-0.0465791 0.0700799 6.07641e-21)
(-0.0576971 0.0692666 -1.15663e-20)
(-0.0685849 0.0671445 0)
(-0.0790896 0.0641767 0)
(-0.0891174 0.0606013 0)
(-0.0986115 0.0564901 0)
(-0.107537 0.0518041 0)
(-0.115867 0.0464397 -8.95995e-23)
(-0.12358 0.0402646 -7.56549e-21)
(-0.130648 0.033142 1.44744e-20)
(-0.13704 0.0249468 2.03534e-20)
(-0.142716 0.015578 6.54218e-21)
(-0.147664 0.00496678 0)
(-0.151806 -0.00693213 5.5649e-21)
(-0.155098 -0.0200666 -1.59105e-20)
(-0.157594 -0.0343443 -1.00307e-20)
(-0.159344 -0.0496589 -9.40446e-21)
(-0.160507 -0.0658756 0)
(-0.161343 -0.082828 0)
(-0.0028257 0.020273 -2.24289e-20)
(-0.00898952 0.0476814 3.85844e-20)
(-0.0173362 0.0656 -1.47222e-20)
(-0.0267578 0.0764086 -2.77348e-20)
(-0.0366248 0.0820206 3.9096e-20)
(-0.0466124 0.0839794 -2.47139e-20)
(-0.0564776 0.0834774 3.4808e-20)
(-0.0660387 0.0813692 2.21592e-20)
(-0.0751713 0.0782078 0)
(-0.0837932 0.0742979 -1.94759e-20)
(-0.0918505 0.069757 -1.6309e-22)
(-0.0993071 0.0645734 1.71725e-20)
(-0.106136 0.0586563 2.47934e-20)
(-0.112315 0.0518737 3.11598e-20)
(-0.117816 0.0440807 -1.43138e-20)
(-0.12261 0.0351395 -4.12396e-20)
(-0.126656 0.0249355 1.33384e-20)
(-0.12991 0.0133931 -4.96429e-20)
(-0.132311 0.000512509 0)
(-0.133784 -0.0136706 1.06721e-20)
(-0.134338 -0.0290069 1.00172e-20)
(-0.134016 -0.0452521 9.3917e-21)
(-0.132865 -0.0620563 0)
(-0.131126 -0.0789247 0)
(-0.00427411 0.0223715 0)
(-0.0119154 0.053055 7.89234e-20)
(-0.0203694 0.0734955 -2.97297e-20)
(-0.0290617 0.0861729 2.79575e-20)
(-0.037667 0.09309 -7.97299e-20)
(-0.0460296 0.0958818 0)
(-0.0540169 0.0958351 -4.73686e-20)
(-0.0615146 0.0938945 2.24151e-20)
(-0.0684329 0.0906927 -4.25099e-20)
(-0.0747028 0.0866016 2.04438e-20)
(-0.0802699 0.0817902 1.13547e-19)
(-0.0850911 0.0762835 -5.33737e-20)
(-0.0891305 0.0700119 -8.42239e-20)
(-0.0923546 0.0628521 -3.26723e-20)
(-0.0947292 0.054656 -4.41811e-22)
(-0.0962154 0.0452735 1.1403e-19)
(-0.0967671 0.0345714 -5.37324e-20)
(-0.0963279 0.0224535 -8.49227e-22)
(-0.0948284 0.00888656 0)
(-0.0922007 -0.00607969 -4.62655e-20)
(-0.0884061 -0.0222729 0)
(-0.0834034 -0.0393209 -3.95193e-20)
(-0.0770377 -0.0566306 1.51225e-19)
(-0.0693953 -0.0734112 -9.37477e-23)
(-0.005809 0.0235876 0)
(-0.0150534 0.0565019 5.22613e-22)
(-0.0236035 0.0789182 3.04565e-20)
(-0.0314124 0.0932207 -2.87989e-20)
(-0.0384601 0.101381 2.65857e-20)
(-0.0447636 0.105048 1.52781e-19)
(-0.050308 0.105551 -4.78816e-20)
(-0.0550541 0.103893 -4.56203e-20)
(-0.0589518 0.10077 8.55996e-20)
(-0.0619458 0.0966146 -1.21405e-19)
(-0.0639786 0.091651 3.8392e-20)
(-0.0649927 0.0859468 3.65594e-20)
(-0.0649321 0.0794638 0)
(-0.0637415 0.0720969 3.21887e-20)
(-0.061365 0.0637053 0)
(-0.0577453 0.0541347 5.91051e-20)
(-0.0528215 0.0432364 -1.11388e-19)
(-0.0465268 0.0308879 2.49455e-20)
(-0.0387917 0.0170153 9.90421e-20)
(-0.0295377 0.00162675 4.62173e-20)
(-0.0187194 -0.0151498 0)
(-0.00632571 -0.0329401 -1.24678e-19)
(0.00767635 -0.0509886 3.87289e-20)
(0.0250198 -0.0673475 0)
(-0.00729342 0.0238979 0)
(-0.0181436 0.0578922 -9.73139e-20)
(-0.0267839 0.0816003 -3.09101e-20)
(-0.033619 0.097144 -5.79056e-20)
(-0.0388984 0.10636 5.45237e-20)
(-0.0427994 0.11084 -5.11327e-20)
(-0.0454234 0.111905 9.74065e-20)
(-0.0468097 0.110577 4.60401e-20)
(-0.0469519 0.107594 -1.29656e-19)
(-0.0458107 0.103437 8.24079e-20)
(-0.0433239 0.0983814 -1.16413e-19)
(-0.0394146 0.0925393 2.58848e-19)
(-0.033998 0.0859104 -1.39003e-19)
(-0.0269847 0.0784191 6.66532e-20)
(-0.0182837 0.0699445 1.89666e-19)
(-0.00780577 0.0603437 -5.77664e-20)
(0.00453451 0.049473 -5.58315e-20)
(0.0188171 0.0372022 -5.27623e-20)
(0.0351068 0.0234351 0)
(0.0534213 0.00812708 -9.67492e-20)
(0.073766 -0.00866214 -9.17211e-20)
(0.0961166 -0.0266687 1.28106e-19)
(0.120934 -0.0449697 1.59844e-19)
(0.150651 -0.0610432 -1.51223e-19)
(-0.00861667 0.0233783 0)
(-0.0209622 0.0572937 -1.32469e-19)
(-0.0296831 0.0815009 -4.55278e-22)
(-0.0355036 0.0977557 1.17227e-19)
(-0.0388781 0.107691 0)
(-0.0401177 0.11279 0)
(-0.0394295 0.114315 0)
(-0.0369293 0.113275 -4.64505e-20)
(-0.0326564 0.11042 -5.05984e-22)
(-0.0265893 0.106263 8.27243e-20)
(-0.0186617 0.101118 -1.18041e-19)
(-0.00877552 0.0951381 -4.79789e-22)
(0.00318751 0.0883628 0)
(0.0173564 0.0807508 -6.66205e-20)
(0.033862 0.0722119 6.47812e-20)
(0.0528344 0.0626269 -1.80863e-19)
(0.074384 0.0518806 2.30067e-19)
(0.0985973 0.0398666 5.6602e-20)
(0.125522 0.0265076 1.92848e-21)
(0.155157 0.0117783 -1.94869e-19)
(0.187388 -0.00426206 -9.25591e-20)
(0.222163 -0.0214613 3.0408e-19)
(0.258506 -0.0392134 -2.04217e-19)
(0.305541 -0.054451 0)
(-0.00971493 0.0221941 6.55045e-20)
(-0.0233535 0.0549621 6.64646e-20)
(-0.0321156 0.0788128 -6.33861e-20)
(-0.0368836 0.0951178 -1.18652e-19)
(-0.0382396 0.105286 1.11718e-19)
(-0.0365919 0.110661 -1.05339e-19)
(-0.0322337 0.11242 1.48881e-19)
(-0.0253474 0.111525 -4.65392e-20)
(-0.0160129 0.108713 8.82072e-20)
(-0.00422511 0.104507 0)
(0.0100883 0.0992433 8.00505e-20)
(0.027048 0.0931096 -1.49636e-19)
(0.0468053 0.0861802 1.42893e-19)
(0.0695284 0.0784488 -1.34208e-19)
(0.0953744 0.0698604 0)
(0.124495 0.0603442 1.21441e-19)
(0.15701 0.0498183 2.32353e-19)
(0.192968 0.0382162 -2.17993e-19)
(0.232337 0.0255096 -1.03654e-19)
(0.275018 0.0117329 -9.89906e-20)
(0.320557 -0.00305277 2.77346e-19)
(0.369661 -0.0184668 8.6905e-20)
(0.416615 -0.0350394 -8.17056e-20)
(0.484024 -0.0476708 7.48468e-20)
(-0.0105839 0.0205687 -6.55134e-20)
(-0.0252417 0.0512913 2.03637e-19)
(-0.0339258 0.0739286 -6.42656e-20)
(-0.0375251 0.0895372 1.19869e-19)
(-0.0366727 0.0993311 -1.12863e-19)
(-0.0318343 0.104518 3.20301e-22)
(-0.0233614 0.106177 5.00918e-20)
(-0.0114814 0.105203 1.89117e-19)
(0.00370018 0.102301 7.52988e-22)
(0.0221842 0.0979841 -8.34549e-20)
(0.0440545 0.0925995 0)
(0.0694561 0.0863561 -7.5882e-20)
(0.0985603 0.0793609 1.41781e-19)
(0.131548 0.0716497 1.35739e-19)
(0.168586 0.0632131 -6.35393e-20)
(0.209765 0.0540183 -1.86506e-22)
(0.255096 0.0440243 -5.77026e-20)
(0.304485 0.0332225 1.08786e-19)
(0.357659 0.021634 1.03627e-19)
(0.414341 0.00939172 -9.79161e-20)
(0.473126 -0.00361009 9.10989e-20)
(0.536677 -0.0161461 -8.51639e-20)
(0.591492 -0.0309553 0)
(0.677205 -0.0395062 -7.47549e-20)
(-0.0112696 0.0187379 6.6797e-20)
(-0.0266067 0.0467362 -6.82143e-20)
(-0.0349388 0.0673703 6.48308e-20)
(-0.0370561 0.0815253 0)
(-0.0335822 0.0902916 0)
(-0.0250017 0.0947713 1.07531e-19)
(-0.0116882 0.0959506 -1.00515e-19)
(0.00611825 0.0946584 9.49367e-20)
(0.0283133 0.0915537 -4.45635e-19)
(0.0549102 0.0871314 -2.50028e-22)
(0.0860039 0.0817392 7.93162e-20)
(0.121742 0.07561 0)
(0.16228 0.0688814 -1.4273e-19)
(0.207724 0.0616232 2.69282e-19)
(0.258093 0.0538615 -1.90922e-19)
(0.31328 0.0456025 -3.03426e-19)
(0.372993 0.0368592 -1.85543e-21)
(0.43675 0.0276626 2.14356e-19)
(0.503772 0.0180402 0)
(0.573457 0.00826468 0)
(0.643094 -0.00218612 -9.10905e-20)
(0.717136 -0.0109494 8.51552e-20)
(0.775761 -0.0233457 -3.10973e-19)
(0.869614 -0.0268584 2.91603e-19)
(-0.0118401 0.0169013 0)
(-0.0274222 0.0417197 0)
(-0.0348736 0.0596961 -1.95022e-19)
(-0.0348528 0.0717263 6.19794e-20)
(-0.0279407 0.0788733 4.36964e-22)
(-0.014606 0.0821826 1.08455e-19)
(0.0047939 0.0825748 0)
(0.0300407 0.0808214 -9.49935e-20)
(0.06105 0.077542 8.91848e-20)
(0.0978398 0.0732143 -1.68363e-19)
(0.140481 0.0681897 -2.82568e-22)
(0.189026 0.062711 1.50181e-19)
(0.243448 0.0569321 9.41705e-22)
(0.30358 0.0509465 1.35281e-19)
(0.369048 0.0448041 -1.89287e-19)
(0.439233 0.0385245 0)
(0.513248 0.0321143 2.26627e-19)
(0.58995 0.0255862 -3.20179e-19)
(0.667884 0.0189155 9.89869e-20)
(0.745838 0.0123698 0)
(0.82058 0.00519738 8.63606e-20)
(0.895903 6.33501e-05 3.25413e-19)
(0.952891 -0.00950174 -3.05401e-19)
(1.03795 -0.00880008 -3.4486e-19)
(-0.0123391 0.0151764 2.0485e-19)
(-0.0275653 0.0365467 -2.81358e-19)
(-0.0332398 0.0514049 6.87752e-22)
(-0.0299372 0.0608343 6.24713e-20)
(-0.0181933 0.0659668 -1.1629e-19)
(0.00156061 0.0678492 -1.08014e-19)
(0.029007 0.0673739 2.02734e-19)
(0.0639548 0.0652788 -7.10966e-22)
(0.106309 0.0621587 -1.78876e-19)
(0.156001 0.0584744 3.36399e-19)
(0.212905 0.0545658 5.85853e-22)
(0.276749 0.0506655 -1.48928e-19)
(0.347025 0.0469187 0)
(0.422932 0.043391 0)
(0.503345 0.0400831 -6.29861e-20)
(0.58682 0.0369433 -1.17091e-19)
(0.67164 0.0338858 -2.22327e-19)
(0.75589 0.0307948 2.08693e-19)
(0.837569 0.0275712 -9.90302e-20)
(0.914806 0.0241416 1.81597e-19)
(0.98526 0.0201972 -8.82738e-20)
(1.04997 0.0169449 1.53975e-19)
(1.09833 0.0101484 -3.63636e-19)
(1.1591 0.0116285 6.82005e-20)
(-0.01273 0.0135725 6.90835e-20)
(-0.0267191 0.0313507 0)
(-0.0292443 0.0428685 1.33314e-19)
(-0.0209163 0.049516 -1.25585e-19)
(-0.00226004 0.0525673 1.16398e-19)
(0.0263212 0.0531222 0)
(0.0645211 0.0520793 0)
(0.112095 0.0501626 -9.55687e-20)
(0.168776 0.0479417 3.9889e-22)
(0.234162 0.0458429 8.42802e-20)
(0.307596 0.0441584 -7.90983e-20)
(0.388073 0.0430524 1.4864e-19)
(0.47419 0.0425696 0)
(0.564149 0.0426461 2.63467e-19)
(0.655818 0.0431263 -4.94872e-19)
(0.746841 0.043784 3.49528e-19)
(0.83479 0.044357 2.17027e-19)
(0.917305 0.0445403 -2.03727e-19)
(0.992332 0.0441577 0)
(1.05805 0.0427236 0)
(1.11358 0.0407392 0)
(1.15819 0.036814 0)
(1.19087 0.0326051 7.07042e-20)
(1.22182 0.0292282 -2.50907e-19)
(-0.162111 -0.103281 -5.57703e-21)
(-0.16485 -0.13 5.61174e-21)
(-0.166212 -0.158187 -1.71842e-22)
(-0.16654 -0.186939 0)
(-0.165718 -0.215275 -4.84587e-21)
(-0.163584 -0.241979 9.33536e-21)
(-0.159976 -0.265602 -7.91632e-23)
(-0.154689 -0.28444 -4.29342e-21)
(-0.147472 -0.29659 0)
(-0.137968 -0.299998 0)
(-0.125631 -0.292531 -2.31826e-22)
(-0.109859 -0.272293 -2.24941e-22)
(-0.0900397 -0.237433 -3.99238e-21)
(-0.0655223 -0.186739 3.66635e-21)
(-0.0358719 -0.120192 0)
(-0.00142571 -0.0392077 0)
(0.0371378 0.0531932 3.39729e-21)
(0.0783148 0.152557 -1.46124e-22)
(0.119441 0.250826 -2.89279e-21)
(0.158033 0.339228 -1.5504e-22)
(0.190443 0.413158 0)
(0.211639 0.470756 0)
(0.218495 0.513947 0)
(0.213418 0.543158 0)
(0.207673 0.550191 0)
(0.218226 0.517732 0)
(0.255777 0.431525 6.52803e-22)
(0.315334 0.293323 -1.08003e-21)
(0.385918 0.118381 0)
(0.460151 -0.0694985 0)
(0.531018 -0.239837 -7.54915e-22)
(0.589393 -0.367438 7.33655e-22)
(0.627735 -0.444429 2.74651e-22)
(0.648471 -0.47442 0)
(0.653831 -0.474538 0)
(0.627885 -0.477958 3.10244e-22)
(0.565163 -0.494039 -3.01586e-22)
(0.501091 -0.477099 0)
(0.477729 -0.373469 3.96975e-22)
(0.502112 -0.188534 -5.7627e-22)
(0.554957 0.0212903 1.89368e-22)
(0.612463 0.200513 0)
(0.658421 0.318023 -2.67435e-22)
(0.694727 0.369708 2.60047e-22)
(0.705199 0.38336 0)
(0.668368 0.395779 0)
(0.602293 0.389211 -7.71633e-23)
(0.568049 0.31823 2.41144e-22)
(0.587327 0.173492 0)
(0.642077 0.0138687 0)
(0.698128 -0.113867 -5.63936e-23)
(0.745787 -0.186849 -2.91151e-24)
(0.7737 -0.207876 -1.23355e-23)
(0.787889 -0.20672 1.564e-23)
(0.763633 -0.182325 0)
(0.738197 -0.164814 0)
(0.723745 -0.105555 0)
(0.744637 -0.0566503 0)
(0.780016 0.00669207 0)
(0.824404 0.051035 0)
(-0.129289 -0.0984086 -5.81893e-22)
(-0.133414 -0.126326 -2.34838e-20)
(-0.136093 -0.15573 6.05262e-22)
(-0.138337 -0.185749 2.14479e-20)
(-0.14019 -0.215398 3.25149e-22)
(-0.141582 -0.243484 0)
(-0.142402 -0.268566 -1.75437e-20)
(-0.142487 -0.288941 3.40816e-20)
(-0.141636 -0.302755 -1.65284e-20)
(-0.139545 -0.308061 1.49164e-20)
(-0.135684 -0.302944 -1.42666e-20)
(-0.12931 -0.285516 1.35013e-20)
(-0.119507 -0.254033 -1.3077e-20)
(-0.105194 -0.207175 -3.72022e-22)
(-0.0853579 -0.144536 -1.26125e-20)
(-0.059485 -0.0671485 1.22571e-20)
(-0.0271767 0.0224168 -1.16303e-20)
(0.00952225 0.119743 1.09868e-20)
(0.0470188 0.220296 -1.01341e-20)
(0.0844003 0.311982 1.87341e-20)
(0.118675 0.39259 -8.64829e-21)
(0.145086 0.458714 -4.28018e-22)
(0.162483 0.50939 -6.40424e-21)
(0.175243 0.541051 1.24237e-20)
(0.194509 0.542958 -6.02512e-21)
(0.232729 0.500076 4.21145e-22)
(0.292766 0.404461 7.94894e-21)
(0.36593 0.26138 9.8424e-22)
(0.443622 0.0844149 -1.6299e-20)
(0.520504 -0.103492 1.56748e-20)
(0.589413 -0.270513 -7.42129e-21)
(0.642182 -0.390421 7.39793e-22)
(0.672259 -0.457971 -2.75182e-22)
(0.682028 -0.48012 4.33787e-22)
(0.679619 -0.470667 0)
(0.653725 -0.460363 0)
(0.590444 -0.468059 -1.10957e-21)
(0.51623 -0.457942 8.21467e-22)
(0.477705 -0.371374 1.06793e-21)
(0.489667 -0.201462 3.013e-22)
(0.534663 0.0014386 -1.58087e-21)
(0.589585 0.18116 3.01222e-22)
(0.639395 0.302557 0)
(0.680635 0.361464 0)
(0.689292 0.387525 0)
(0.648679 0.41072 0)
(0.587374 0.402812 3.51987e-22)
(0.564601 0.319826 -1.66261e-22)
(0.595667 0.163406 0)
(0.657062 -0.000671458 0)
(0.716233 -0.126893 0)
(0.761804 -0.196099 -7.52726e-23)
(0.787281 -0.213061 2.79152e-23)
(0.803734 -0.206234 -4.26552e-23)
(0.782687 -0.177285 0)
(0.758235 -0.159837 0)
(0.73091 -0.105137 6.9947e-24)
(0.743558 -0.0612705 1.39125e-23)
(0.767783 -0.000148715 0)
(0.809343 0.0468433 0)
(-0.0635956 -0.090922 3.41648e-23)
(-0.0682982 -0.119533 -5.05273e-20)
(-0.0711411 -0.149682 4.79842e-20)
(-0.0743712 -0.180481 -4.48567e-20)
(-0.078193 -0.211024 -3.27356e-22)
(-0.0826321 -0.240173 0)
(-0.0875864 -0.266483 -3.63926e-20)
(-0.0929005 -0.288222 3.56332e-20)
(-0.0984127 -0.303597 2.48501e-22)
(-0.103874 -0.310705 4.39083e-22)
(-0.10873 -0.307924 3.98807e-22)
(-0.11214 -0.293438 4.08529e-22)
(-0.113033 -0.265595 -2.28736e-20)
(-0.110056 -0.223036 2.26043e-20)
(-0.10173 -0.165089 0)
(-0.0868999 -0.0922124 5.59661e-22)
(-0.0645151 -0.00659745 -1.89871e-20)
(-0.0342014 0.0875499 1.87674e-20)
(-0.00195575 0.187776 0)
(0.0318113 0.281906 0)
(0.0677 0.367684 -1.41726e-20)
(0.100416 0.439968 2.68779e-20)
(0.130413 0.495144 -2.45059e-20)
(0.162426 0.526758 -2.09545e-22)
(0.205458 0.523389 2.50763e-20)
(0.266596 0.473298 -2.8502e-20)
(0.343197 0.373221 3.03654e-20)
(0.425863 0.229371 5.14262e-22)
(0.508318 0.0536469 -1.73978e-20)
(0.58619 -0.132451 0)
(0.651649 -0.295267 0)
(0.697285 -0.407734 3.93547e-21)
(0.718868 -0.46633 -5.29797e-21)
(0.718154 -0.481887 8.69002e-25)
(0.706653 -0.465916 2.44394e-21)
(0.680182 -0.443737 -2.37518e-21)
(0.619013 -0.441325 0)
(0.537526 -0.435736 2.58156e-22)
(0.484097 -0.366544 2.56256e-21)
(0.482957 -0.213156 -5.18036e-21)
(0.51942 -0.0185115 2.36891e-21)
(0.571684 0.16034 2.23061e-22)
(0.624847 0.285298 -2.35187e-21)
(0.668655 0.352876 1.82962e-21)
(0.674088 0.392441 3.88149e-22)
(0.630929 0.425386 3.71867e-22)
(0.576146 0.41454 -3.52899e-22)
(0.564992 0.319246 0)
(0.607221 0.152053 0)
(0.674532 -0.0155881 -1.47576e-21)
(0.736328 -0.139564 6.69621e-22)
(0.779639 -0.204562 -4.47587e-22)
(0.801555 -0.218034 4.35679e-22)
(0.818252 -0.206404 3.05964e-22)
(0.800509 -0.172953 -7.36442e-23)
(0.779448 -0.154065 4.72045e-23)
(0.741995 -0.102813 -2.21545e-23)
(0.747341 -0.0639587 -3.9867e-24)
(0.758575 -0.00552879 0)
(0.796435 0.0429805 0)
(0.0355349 -0.0841757 -1.09385e-19)
(0.0306834 -0.110802 2.98406e-21)
(0.0289347 -0.140519 1.00935e-19)
(0.0260107 -0.171406 -7.28479e-22)
(0.0212245 -0.202173 0)
(0.0145421 -0.231732 0)
(0.00607615 -0.258578 -7.38514e-20)
(-0.0040554 -0.28109 4.42116e-21)
(-0.0157173 -0.297617 9.45975e-20)
(-0.0288368 -0.306228 -2.76317e-21)
(-0.0427596 -0.305677 -2.62222e-20)
(-0.0562903 -0.294316 -2.0711e-20)
(-0.0681703 -0.270407 2.07627e-20)
(-0.076874 -0.23258 0)
(-0.0806584 -0.179991 -1.65997e-20)
(-0.0780038 -0.112667 1.51356e-20)
(-0.0672778 -0.0323398 0)
(-0.0464821 0.0586012 0)
(-0.0210831 0.154303 1.30881e-20)
(0.00836817 0.249132 -5.03556e-22)
(0.0447173 0.337616 -1.14595e-20)
(0.0834003 0.413454 -1.14899e-20)
(0.125461 0.470759 1.14291e-20)
(0.174779 0.501181 -1.25079e-20)
(0.237317 0.493738 -1.52796e-21)
(0.315406 0.440036 1.3326e-20)
(0.403232 0.33989 2.06061e-21)
(0.491992 0.19892 -4.19122e-23)
(0.577086 0.026629 0)
(0.654871 -0.156285 1.72311e-20)
(0.716368 -0.314396 -1.77384e-20)
(0.753885 -0.420023 7.79249e-22)
(0.766537 -0.47035 0)
(0.756243 -0.479929 -4.39772e-22)
(0.734873 -0.460048 4.65458e-21)
(0.706273 -0.428793 -7.73715e-21)
(0.649279 -0.414988 -4.82262e-23)
(0.564426 -0.410427 -1.56421e-22)
(0.497006 -0.358014 2.84371e-21)
(0.482218 -0.223142 5.38901e-22)
(0.50998 -0.0385994 -4.04877e-21)
(0.559424 0.138225 3.40657e-21)
(0.614593 0.266791 5.08058e-23)
(0.658451 0.344379 1.62734e-21)
(0.65989 0.39791 -1.97163e-21)
(0.615621 0.439315 -2.7546e-21)
(0.5687 0.424277 7.08696e-22)
(0.569183 0.316827 1.84201e-21)
(0.621905 0.139739 -3.55878e-21)
(0.694266 -0.0306692 2.5085e-21)
(0.757908 -0.151818 -4.55356e-22)
(0.798907 -0.212169 7.75382e-22)
(0.816754 -0.222493 4.5507e-22)
(0.831769 -0.206982 -4.80169e-22)
(0.816756 -0.169529 3.94307e-23)
(0.800684 -0.148045 -2.96054e-23)
(0.756357 -0.099019 0)
(0.755898 -0.0647102 -6.91146e-24)
(0.753243 -0.00925369 -1.31611e-24)
(0.786833 0.0395075 0)
(0.164618 -0.078072 1.13771e-19)
(0.163354 -0.102162 -2.20214e-19)
(0.161485 -0.130587 1.05263e-19)
(0.159349 -0.160487 9.6812e-20)
(0.154794 -0.190253 -1.84668e-19)
(0.147174 -0.218879 5.71491e-21)
(0.136441 -0.244925 8.05754e-20)
(0.122492 -0.26698 6.61931e-20)
(0.105598 -0.283596 -6.4821e-20)
(0.0854844 -0.293513 0)
(0.0624384 -0.295169 -4.38157e-20)
(0.0384086 -0.286898 8.02461e-20)
(0.0151661 -0.267104 -3.66707e-20)
(-0.0055262 -0.234382 0)
(-0.0216173 -0.187639 0)
(-0.0315297 -0.126585 4.35086e-22)
(-0.0327896 -0.0523458 -2.10594e-20)
(-0.023021 0.0323715 2.04596e-20)
(-0.00628672 0.121576 0)
(0.0179434 0.214425 1.8854e-20)
(0.0530908 0.302787 -3.60306e-20)
(0.0957596 0.379637 3.63859e-20)
(0.146976 0.43735 -3.92101e-20)
(0.209239 0.466481 -3.53563e-21)
(0.285529 0.456917 5.08874e-20)
(0.374655 0.403 -2.75926e-20)
(0.469088 0.306351 -1.05888e-21)
(0.560868 0.170968 -1.85005e-20)
(0.647117 0.00332576 -4.82669e-22)
(0.724489 -0.174928 1.90232e-20)
(0.781948 -0.327568 1.01067e-21)
(0.810868 -0.426718 -1.15655e-20)
(0.814012 -0.469913 1.97593e-20)
(0.795216 -0.474209 -9.15763e-21)
(0.764357 -0.4524 0)
(0.731823 -0.415541 -3.82018e-21)
(0.679844 -0.390563 3.62907e-21)
(0.595914 -0.38325 -2.36139e-21)
(0.516459 -0.345536 2.95144e-21)
(0.487309 -0.230892 -3.33263e-22)
(0.506429 -0.0585512 0)
(0.552763 0.115124 -3.74514e-22)
(0.608055 0.247546 1.16993e-21)
(0.649701 0.336134 0)
(0.647005 0.403513 3.96793e-21)
(0.603118 0.452045 -1.51022e-21)
(0.565039 0.432017 8.51896e-22)
(0.577097 0.312853 1.03437e-21)
(0.639673 0.126788 0)
(0.716219 -0.0456683 0)
(0.78065 -0.163552 -1.87433e-21)
(0.819157 -0.218903 2.46495e-21)
(0.832901 -0.226215 -1.09742e-21)
(0.844667 -0.207677 2.62884e-22)
(0.831357 -0.167049 2.58537e-22)
(0.820943 -0.142261 2.96332e-23)
(0.773135 -0.0942789 1.15033e-23)
(0.768798 -0.0636842 0)
(0.752563 -0.0112574 3.13168e-25)
(0.781666 0.0364516 1.01836e-23)
(0.319628 -0.0707002 1.17237e-19)
(0.321358 -0.0947323 -1.16454e-19)
(0.320315 -0.1219 8.39795e-22)
(0.319105 -0.149677 -7.93747e-22)
(0.315421 -0.17721 7.37088e-22)
(0.307952 -0.203652 -6.78082e-22)
(0.296353 -0.227627 1.22379e-21)
(0.280248 -0.247819 0)
(0.259402 -0.263114 -9.43733e-22)
(0.233688 -0.272864 8.03549e-22)
(0.203374 -0.27545 6.7101e-22)
(0.169919 -0.269442 -6.03042e-22)
(0.135432 -0.253623 0)
(0.102444 -0.226522 0)
(0.073738 -0.186773 2.74978e-22)
(0.0512083 -0.13387 0)
(0.0368141 -0.0679171 -1.8365e-22)
(0.0341131 0.00856913 0)
(0.041922 0.0913752 -1.22933e-20)
(0.0602096 0.179714 2.4419e-20)
(0.091805 0.265217 -2.5468e-20)
(0.135375 0.34073 1.30971e-20)
(0.191509 0.39756 1.80142e-20)
(0.261314 0.425725 -1.74923e-20)
(0.345375 0.41595 -2.77845e-20)
(0.440154 0.36454 2.71541e-20)
(0.537084 0.274046 0)
(0.629337 0.146235 1.19918e-21)
(0.716275 -0.015452 0)
(0.79342 -0.188309 0)
(0.846804 -0.334888 2.83912e-20)
(0.867183 -0.427826 -2.95895e-20)
(0.86043 -0.465348 1.23233e-21)
(0.833974 -0.465282 8.87259e-22)
(0.794885 -0.442738 -6.08012e-22)
(0.756823 -0.403644 -3.03239e-21)
(0.709364 -0.369035 2.94458e-21)
(0.630393 -0.355534 -2.33e-21)
(0.542332 -0.32905 1.98529e-21)
(0.497957 -0.235676 5.81315e-22)
(0.507905 -0.078038 -2.68922e-21)
(0.550693 0.0913367 -4.16897e-22)
(0.604268 0.227874 1.96703e-21)
(0.642091 0.328014 0)
(0.635692 0.408743 -1.52956e-21)
(0.593642 0.463248 2.80692e-21)
(0.565079 0.437831 -3.52128e-21)
(0.588629 0.307556 -1.04098e-21)
(0.660481 0.113624 0)
(0.740353 -0.0602728 7.35079e-22)
(0.80436 -0.174598 -1.67676e-21)
(0.83996 -0.224764 1.95429e-23)
(0.849832 -0.229079 -3.33106e-22)