/*--------------------------------*- C++ -*----------------------------------*\
| =========                 |                                                 |
| \\      /  F ield         | OpenFOAM: The Open Source CFD Toolbox           |
|  \\    /   O peration     | Version:  2512                                  |
|   \\  /    A nd           | Website:  www.openfoam.com                      |
|    \\/     M anipulation  |                                                 |
\*---------------------------------------------------------------------------*/
FoamFile
{
    version     2.0;
    format      ascii;
    arch        "LSB;label=32;scalar=64";
    class       volVectorField;
    location    "8";
    object      U;
}
// * * * * * * * * * * * * * * * * * * * * * * * * * * * * * * * * * * * * * //

dimensions      [0 1 -1 0 0 0 0];

internalField   nonuniform List<vector> 
13248
(
(-0.0140187 0.0127191 8.25029e-20)
(-0.0266586 0.0281419 0)
(-0.0231029 0.0376621 -1.55557e-19)
(-0.00354458 0.0428526 1.46532e-19)
(0.0318234 0.0449793 1.36752e-19)
(0.082794 0.0450592 0)
(0.149011 0.0438952 0)
(0.229789 0.0421211 3.30838e-19)
(0.323884 0.040203 -3.48328e-22)
(0.429285 0.0384217 -2.91254e-19)
(0.543095 0.0368599 2.74037e-19)
(0.661582 0.0354077 -1.71703e-19)
(0.780388 0.0337956 0)
(0.894878 0.0316529 -3.03012e-19)
(1.00058 0.0285831 5.67162e-19)
(1.09361 0.0242433 -1.35923e-19)
(1.1711 0.0184166 -2.41713e-19)
(1.23144 0.011042 2.26931e-19)
(1.27445 0.00229458 0)
(1.30123 -0.00777077 0)
(1.31411 -0.0180356 0)
(1.31549 -0.0309702 0)
(1.30879 -0.0382797 6.35552e-20)
(1.29502 -0.0633965 2.20922e-19)
(-0.013944 0.0111737 -2.48968e-19)
(-0.0214998 0.0219463 1.69506e-19)
(-0.00880007 0.0269568 -1.70187e-21)
(0.0234201 0.0284736 -2.23651e-19)
(0.0746826 0.0281761 -1.36606e-19)
(0.144393 0.0273191 -1.29209e-19)
(0.231459 0.0267816 -2.37503e-19)
(0.333969 0.027125 2.24673e-19)
(0.448954 0.0286067 0)
(0.572326 0.0311777 4.29448e-22)
(0.699078 0.0345021 5.84818e-22)
(0.823704 0.0380181 1.70715e-19)
(0.940763 0.0410377 0)
(1.04547 0.0428695 0)
(1.13421 0.0429404 2.04738e-19)
(1.20487 0.0408911 -3.84969e-19)
(1.25698 0.0366263 2.29115e-19)
(1.29164 0.0303133 -2.15121e-19)
(1.31114 0.022321 -9.33657e-20)
(1.31853 0.0131607 -1.69412e-19)
(1.31698 0.00338039 -6.76756e-20)
(1.30946 -0.00668235 -1.26851e-19)
(1.29791 -0.0149667 1.89069e-19)
(1.2848 -0.0273828 5.25416e-20)
(-0.0127757 0.00933713 0)
(-0.0123555 0.0157059 0)
(0.0132242 0.0172833 7.90952e-20)
(0.0623146 0.0166457 7.27449e-20)
(0.133672 0.0157048 -1.8297e-21)
(0.225652 0.0158437 -1.3374e-19)
(0.335576 0.017881 0)
(0.459409 0.0221177 -1.11867e-19)
(0.591745 0.0283731 1.05549e-19)
(0.726181 0.0360407 6.00506e-22)
(0.855998 0.044203 -1.81816e-19)
(0.974984 0.0518026 -1.6781e-19)
(1.07818 0.057835 2.41891e-21)
(1.16244 0.061522 -1.40171e-19)
(1.22662 0.0624264 3.35995e-19)
(1.27148 0.0604885 0)
(1.29934 0.055987 -2.17616e-19)
(1.31343 0.0494313 1.06486e-19)
(1.31729 0.04147 9.32961e-20)
(1.31415 0.0326599 0)
(1.30665 0.0238016 7.5227e-20)
(1.29644 0.0145654 -2.52605e-19)
(1.28479 0.0076411 2.37137e-19)
(1.27244 -0.00406947 1.44131e-19)
(-0.00991616 0.00698157 -8.79336e-20)
(0.00203644 0.0090268 -9.09415e-20)
(0.0443922 0.00828466 8.21769e-20)
(0.114216 0.00719627 0)
(0.208864 0.00763595 0)
(0.324784 0.0108832 -3.09011e-21)
(0.456786 0.0174186 0)
(0.598015 0.0269693 -3.428e-19)
(0.7405 0.0386346 3.18883e-19)
(0.876159 0.0510882 -3.94323e-19)
(0.997931 0.0628539 9.08042e-20)
(1.10071 0.0725959 0)
(1.18187 0.0793511 1.51772e-19)
(1.24126 0.0826536 -2.81236e-19)
(1.28084 0.0825343 6.71677e-20)
(1.30393 0.0794197 1.71971e-19)
(1.31445 0.0739695 -7.98768e-21)
(1.31615 0.0669163 -1.898e-19)
(1.31214 0.0589247 0)
(1.30469 0.0505526 0)
(1.29526 0.0422126 -6.69165e-20)
(1.2847 0.034006 5.96185e-20)
(1.27353 0.0272316 2.1158e-19)
(1.26221 0.0171686 -1.98662e-19)
(-0.00486885 0.00414389 -9.2744e-20)
(0.022709 0.00207724 -9.24155e-20)
(0.0857 0.000301764 2.5989e-19)
(0.179435 0.00067713 -1.57694e-19)
(0.299076 0.00468118 1.48426e-19)
(0.438218 0.0131163 2.69741e-19)
(0.588429 0.025713 -1.90802e-19)
(0.739929 0.0412643 -2.32567e-19)
(0.882975 0.0579664 4.38532e-21)
(1.00939 0.073848 2.97907e-19)
(1.11375 0.0871934 0)
(1.19385 0.0968468 8.21142e-20)
(1.25044 0.102335 0)
(1.28654 0.103813 -1.34508e-19)
(1.30636 0.101877 1.89399e-19)
(1.31433 0.0973405 2.21174e-21)
(1.31437 0.091032 -4.94157e-20)
(1.30951 0.0836612 9.3043e-20)
(1.30184 0.0757737 7.94797e-20)
(1.29263 0.0677443 -7.10605e-20)
(1.28264 0.0598564 6.69019e-20)
(1.27224 0.0521542 -5.96045e-20)
(1.26168 0.0453987 0)
(1.25115 0.0363948 -4.44828e-20)
(0.00276119 0.00107278 9.27306e-20)
(0.0504106 -0.00445481 9.74178e-20)
(0.137618 -0.00562548 -8.71111e-20)
(0.257394 -0.00163551 1.6248e-19)
(0.401801 0.00811539 -1.52922e-19)
(0.560785 0.0234377 1.38433e-19)
(0.72252 0.0428529 -6.64929e-20)
(0.875161 0.0639899 1.74538e-19)
(1.00895 0.0842508 -1.09799e-19)
(1.11771 0.101431 1.94634e-19)
(1.1994 0.114122 -4.49175e-19)
(1.25552 0.121834 1.64845e-19)
(1.29003 0.124856 -1.4464e-19)
(1.30794 0.123978 1.35866e-19)
(1.31423 0.120189 1.17332e-19)
(1.31306 0.114433 1.02972e-19)
(1.30748 0.107483 -2.85938e-19)
(1.29952 0.0999033 1.77527e-19)
(1.29036 0.0920743 -7.94844e-20)
(1.28068 0.0842497 2.0611e-19)
(1.27078 0.076589 -6.66704e-20)
(1.26082 0.0691861 -1.60437e-19)
(1.25086 0.0623988 1.47892e-19)
(1.24095 0.0541997 4.44703e-20)
(0.0132746 -0.0018418 0)
(0.0855331 -0.00952092 8.95085e-22)
(0.199916 -0.00800945 1.82557e-19)
(0.346395 0.00188436 -1.71145e-19)
(0.513105 0.0192669 -1.54507e-19)
(0.686053 0.0423877 2.87181e-19)
(0.850822 0.0682525 -1.33378e-19)
(0.995348 0.0934417 1.77723e-19)
(1.11207 0.115054 -3.88358e-21)
(1.19858 0.131285 -1.00704e-19)
(1.25687 0.141558 2.19817e-19)
(1.29172 0.14629 -3.24298e-19)
(1.309 0.146491 0)
(1.31433 0.143362 -6.35872e-20)
(1.31222 0.13801 -1.69905e-19)
(1.30592 0.131306 5.33639e-20)
(1.29748 0.123867 2.22211e-21)
(1.28809 0.116095 -1.16886e-19)
(1.27836 0.108245 7.62251e-21)
(1.26858 0.100475 1.35106e-19)
(1.25885 0.0928916 -6.0129e-20)
(1.24922 0.0855763 -2.24975e-20)
(1.23968 0.078625 6.99931e-20)
(1.23022 0.0709703 0)
(0.0268558 -0.00412517 0)
(0.128005 -0.0118924 4.95112e-20)
(0.271486 -0.00523618 -2.38155e-19)
(0.443515 0.0127525 8.67072e-20)
(0.627849 0.0389977 -8.16023e-20)
(0.807162 0.0697573 -7.45839e-20)
(0.96626 0.10059 -1.3176e-19)
(1.0952 0.12757 6.57926e-20)
(1.19045 0.148218 5.72111e-20)
(1.25403 0.161708 0)
(1.29146 0.168541 1.30188e-19)
(1.30951 0.169969 -1.93565e-19)
(1.31462 0.167471 1.4416e-19)
(1.31189 0.162381 6.36223e-20)
(1.3049 0.15573 -5.19623e-20)
(1.29587 0.148223 -4.34017e-20)
(1.28606 0.140311 -4.05944e-20)
(1.27607 0.132263 1.21459e-19)
(1.26619 0.124243 0)
(1.25651 0.116357 6.07064e-20)
(1.24705 0.10868 5.08002e-20)
(1.23778 0.101272 -1.26483e-19)
(1.22865 0.0941172 -8.60453e-20)
(1.21964 0.0868285 7.94987e-20)
(0.0435282 -0.00525324 -5.33955e-20)
(0.177196 -0.0103126 -2.0331e-21)
(0.350283 0.00414942 4.84972e-20)
(0.544779 0.0320112 1.35673e-19)
(0.740362 0.0674187 3.94546e-20)
(0.917983 0.104574 -7.62245e-20)
(1.06408 0.138133 6.96017e-20)
(1.17287 0.164484 -6.09817e-20)
(1.24567 0.182247 1.09182e-19)
(1.28845 0.191875 4.64791e-20)
(1.30903 0.194879 -1.3187e-19)
(1.31486 0.193092 3.88816e-20)
(1.31191 0.188174 6.63228e-20)
(1.3043 0.181394 -3.26465e-20)
(1.2946 0.173606 0)
(1.28418 0.165339 4.8694e-20)
(1.27373 0.156899 8.22228e-20)
(1.26353 0.148462 1.39615e-20)
(1.25367 0.140135 -6.84793e-20)
(1.24415 0.13199 2.85845e-20)
(1.23493 0.124082 0)
(1.22597 0.116439 -2.23771e-20)
(1.21721 0.109017 -2.11346e-20)
(1.20857 0.101865 0)
(0.0630952 -0.004687 0)
(0.231852 -0.00363302 2.7979e-20)
(0.43342 0.0212275 5.18445e-20)
(0.645614 0.0600383 -1.38361e-19)
(0.845284 0.103889 4.46996e-20)
(1.01402 0.145374 0)
(1.14218 0.179149 6.70551e-20)
(1.22923 0.202748 -9.35914e-20)
(1.28111 0.2163 -5.45041e-20)
(1.30661 0.221527 2.46341e-20)
(1.31451 0.220705 -3.93281e-20)
(1.31196 0.215946 9.55561e-20)
(1.30394 0.208872 4.78362e-20)
(1.29353 0.200571 -3.32957e-20)
(1.28239 0.1917 -3.15737e-21)
(1.27131 0.182628 -9.09949e-20)
(1.26062 0.173556 4.14257e-20)
(1.25041 0.164597 -1.05128e-21)
(1.24067 0.155822 0)
(1.23138 0.147281 -2.86143e-20)
(1.22246 0.139011 0)
(1.21384 0.131013 6.44493e-20)
(1.20546 0.123289 -7.6591e-20)
(1.1972 0.116093 3.48682e-20)
(0.0851019 -0.0019134 -1.45873e-20)
(0.290123 0.00906967 -7.06e-20)
(0.51741 0.0465696 8.03356e-20)
(0.741413 0.0965208 4.72328e-20)
(0.938257 0.1472 -2.25671e-20)
(1.09267 0.19052 3.78511e-20)
(1.20051 0.22216 -1.83971e-20)
(1.26659 0.2414 3.05662e-20)
(1.30047 0.249985 0)
(1.31248 0.250685 6.91621e-20)
(1.31135 0.246228 -2.86016e-21)
(1.30333 0.238756 -5.58028e-20)
(1.29229 0.229713 2.38985e-20)
(1.28035 0.219967 -2.69585e-20)
(1.26851 0.209992 -1.02538e-20)
(1.25718 0.200032 1.18484e-20)
(1.24647 0.190216 -9.14852e-21)
(1.23638 0.180614 -4.95738e-20)
(1.22687 0.171274 3.03753e-20)
(1.21786 0.162231 6.21585e-21)
(1.20926 0.153498 5.4677e-21)
(1.20101 0.145066 4.81016e-21)
(1.193 0.137006 0)
(1.18511 0.12956 0)
(0.108905 0.00352076 1.45974e-20)
(0.349811 0.0284134 -1.46228e-20)
(0.598668 0.0801829 -2.67776e-20)
(0.828181 0.140546 0)
(1.01631 0.195823 -1.12048e-20)
(1.15302 0.238461 -1.00761e-20)
(1.24025 0.266037 -1.72295e-20)
(1.28753 0.27987 0)
(1.30677 0.283173 0)
(1.30877 0.279453 0)
(1.30151 0.271602 0)
(1.2901 0.261618 0)
(1.27738 0.250704 -1.502e-20)
(1.26471 0.239511 6.84174e-21)
(1.25264 0.228363 1.18876e-20)
(1.24133 0.217413 5.55357e-21)
(1.2308 0.206739 1.37451e-20)
(1.22097 0.196381 0)
(1.21178 0.186372 -3.29199e-21)
(1.20314 0.176728 -3.13502e-21)
(1.19496 0.167445 -5.4764e-21)
(1.18715 0.158526 -4.81784e-21)
(1.17959 0.150102 0)
(1.17217 0.142248 3.44676e-21)
(-0.00508804 0.00277904 8.2659e-21)
(-0.0232568 0.00550805 -8.70337e-21)
(-0.0544534 0.00643393 -1.66421e-20)
(-0.0912888 0.00637137 0)
(-0.130072 0.00574982 -2.27829e-20)
(-0.169299 0.00479616 7.17162e-21)
(-0.208089 0.00363443 -1.39411e-20)
(-0.245888 0.00232583 0)
(-0.282343 0.000894721 0)
(-0.317164 -0.000652745 0)
(-0.350055 -0.00231664 0)
(-0.380686 -0.00409586 0)
(-0.408682 -0.00598369 5.34392e-23)
(-0.433625 -0.00796535 -1.04842e-20)
(-0.455061 -0.0100166 2.03136e-20)
(-0.472505 -0.0121028 2.88942e-20)
(-0.485451 -0.0141786 9.17903e-21)
(-0.493384 -0.0161866 0)
(-0.495807 -0.0180553 7.76385e-21)
(-0.492278 -0.0196959 -2.18237e-20)
(-0.482445 -0.0210079 -1.31966e-20)
(-0.466178 -0.0218813 -1.18281e-20)
(-0.443828 -0.0223666 0)
(-0.416542 -0.0222764 0)
(-0.0061374 0.0168281 -2.50359e-20)
(-0.0245694 0.0365075 4.35196e-20)
(-0.054397 0.0473895 -1.65305e-20)
(-0.0891553 0.0529584 -3.20603e-20)
(-0.125534 0.0552546 4.53449e-20)
(-0.162132 0.0555361 -2.94083e-20)
(-0.198087 0.0545739 4.16008e-20)
(-0.23283 0.052784 2.7092e-20)
(-0.265977 0.0503403 0)
(-0.297216 0.0472729 -2.54051e-20)
(-0.326241 0.0435386 -1.19873e-21)
(-0.352724 0.0390659 2.24161e-20)
(-0.376311 0.0337787 3.35819e-20)
(-0.396618 0.0276098 4.30718e-20)
(-0.413238 0.0205083 -1.97169e-20)
(-0.425746 0.012447 -5.77849e-20)
(-0.433703 0.00343239 1.83771e-20)
(-0.436654 -0.00648122 -6.91014e-20)
(-0.43414 -0.017165 0)
(-0.425724 -0.0283665 1.45132e-20)
(-0.410996 -0.039729 1.31759e-20)
(-0.389784 -0.050943 1.18093e-20)
(-0.362174 -0.0612303 0)
(-0.329609 -0.0696574 0)
(-0.00806514 0.0284581 0)
(-0.0267736 0.0630087 8.94186e-20)
(-0.0534881 0.0833055 -3.37281e-20)
(-0.0836252 0.094618 3.24229e-20)
(-0.114663 0.100155 -9.24466e-20)
(-0.145424 0.102001 0)
(-0.175092 0.101495 -5.73129e-20)
(-0.203069 0.0994061 2.68514e-20)
(-0.228918 0.0960941 -5.29812e-20)
(-0.25228 0.0916612 2.5954e-20)
(-0.272827 0.08607 1.4824e-19)
(-0.290242 0.0792207 -6.96367e-20)
(-0.30421 0.0709955 -1.14065e-19)
(-0.314418 0.0612806 -4.56484e-20)
(-0.320559 0.049977 -1.32158e-21)
(-0.322334 0.0370078 1.58168e-19)
(-0.319454 0.0223276 -7.46592e-20)
(-0.311629 0.00594016 -1.01383e-21)
(-0.298516 -0.0120671 0)
(-0.279807 -0.0315047 -6.17972e-20)
(-0.255656 -0.0521307 0)
(-0.22542 -0.0732117 -4.60516e-20)
(-0.188057 -0.0933929 1.76955e-19)
(-0.144722 -0.110776 -5.6042e-21)
(-0.0103736 0.0363082 0)
(-0.0293556 0.0822473 9.20178e-22)
(-0.0518666 0.110829 3.50509e-20)
(-0.0756617 0.127841 -3.36991e-20)
(-0.0992554 0.136993 3.0247e-20)
(-0.12181 0.140854 1.80943e-19)
(-0.142631 0.141181 -5.70934e-20)
(-0.161138 0.139061 -5.58178e-20)
(-0.176863 0.135072 1.06654e-19)
(-0.189417 0.129449 -1.55289e-19)
(-0.19847 0.122225 4.87578e-20)
(-0.203736 0.11333 4.81376e-20)
(-0.204961 0.102656 0)
(-0.201932 0.0900894 4.38638e-20)
(-0.194465 0.0755278 0)
(-0.182411 0.0588859 8.14476e-20)
(-0.165649 0.0400993 -1.53892e-19)
(-0.14407 0.0191479 3.55897e-20)
(-0.117576 -0.00395955 1.35709e-19)
(-0.0862757 -0.0292396 6.16959e-20)
(-0.05022 -0.0564753 0)
(-0.00906954 -0.0849715 -1.53246e-19)
(0.037564 -0.113719 4.82508e-20)
(0.093865 -0.140127 0)
(-0.0124974 0.0398464 0)
(-0.0317075 0.092777 -1.11867e-19)
(-0.0497294 0.127817 -3.59606e-20)
(-0.0665302 0.150044 -6.76136e-20)
(-0.0816912 0.162971 6.36681e-20)
(-0.0947996 0.169249 -6.05925e-20)
(-0.105383 0.170829 1.18208e-19)
(-0.11297 0.169028 5.81997e-20)
(-0.117141 0.164637 -1.60507e-19)
(-0.117539 0.158066 1.05411e-19)
(-0.113878 0.149473 -1.50445e-19)
(-0.10594 0.138874 3.39907e-19)
(-0.0935668 0.126215 -1.83912e-19)
(-0.0766586 0.111424 8.94283e-20)
(-0.055164 0.0944212 2.5859e-19)
(-0.0290783 0.0751371 -7.89878e-20)
(0.00160165 0.0535031 -7.63099e-20)
(0.0368234 0.0295117 -7.30344e-20)
(0.0764824 0.00314796 0)
(0.120469 -0.0255381 -1.2718e-19)
(0.168698 -0.0562591 -1.13756e-19)
(0.221275 -0.0887284 1.64709e-19)
(0.275809 -0.1224 1.8703e-19)
(0.346455 -0.154316 -1.76794e-19)
(-0.0139845 0.0393982 0)
(-0.0333066 0.0946621 -1.53876e-19)
(-0.0472906 0.133663 -1.16047e-21)
(-0.0575123 0.15994 1.36532e-19)
(-0.0644314 0.176282 0)
(-0.0680718 0.185058 0)
(-0.068264 0.18817 0)
(-0.0647511 0.187023 -5.77332e-20)
(-0.0572619 0.182562 -2.34324e-21)
(-0.0455572 0.175365 1.03243e-19)
(-0.0294557 0.16574 -1.53478e-19)
(-0.00884275 0.153823 -1.79721e-21)
(0.0163322 0.139651 0)
(0.046068 0.123208 -8.93456e-20)
(0.0803279 0.104446 8.6873e-20)
(0.119002 0.0833165 -2.42961e-19)
(0.162066 0.0598182 3.10464e-19)
(0.209458 0.0339238 7.40214e-20)
(0.261058 0.0056304 -8.24436e-22)
(0.316755 -0.0249151 -2.57955e-19)
(0.375919 -0.0576082 -1.17859e-19)
(0.44014 -0.0916405 3.74646e-19)
(0.500398 -0.12764 -2.48572e-19)
(0.585728 -0.16119 0)
(-0.0146309 0.035958 7.66665e-20)
(-0.0338846 0.0893396 7.72655e-20)
(-0.0447716 0.129375 -7.39211e-20)
(-0.049637 0.157815 -1.39052e-19)
(-0.0494862 0.176491 1.30922e-19)
(-0.044706 0.187266 -1.25279e-19)
(-0.0354508 0.191794 1.77073e-19)
(-0.0217443 0.191415 -5.79097e-20)
(-0.00354233 0.187129 1.07312e-19)
(0.0192136 0.179627 0)
(0.0465628 0.169345 1.01321e-19)
(0.078514 0.156539 -1.87719e-19)
(0.115046 0.141338 1.8546e-19)
(0.156111 0.123791 -1.74177e-19)
(0.201687 0.103919 0)
(0.251778 0.0817311 1.60265e-19)
(0.306374 0.0572143 3.04766e-19)
(0.365356 0.0303284 -2.87622e-19)
(0.428571 0.00111923 -1.33717e-19)
(0.495952 -0.0301129 -1.2644e-19)
(0.56575 -0.0635105 3.53422e-19)
(0.641378 -0.0969961 1.02497e-19)
(0.706749 -0.133368 -9.98208e-20)
(0.802647 -0.16458 8.43852e-20)
(-0.014531 0.0308574 -7.66768e-20)
(-0.0335215 0.0791678 2.3771e-19)
(-0.0423954 0.117316 -7.50767e-20)
(-0.043469 0.145547 1.4012e-19)
(-0.0379302 0.164816 -1.31923e-19)
(-0.0263962 0.176433 -5.44965e-22)
(-0.00929276 0.181711 5.86242e-20)
(0.0130893 0.181815 2.25469e-19)
(0.0405664 0.177698 3.17476e-21)
(0.0730265 0.170085 -1.01597e-19)
(0.110403 0.159488 0)
(0.152666 0.146245 -9.4621e-20)
(0.199822 0.130573 1.77815e-19)
(0.251927 0.112607 1.73331e-19)
(0.309053 0.0924087 -8.18647e-20)
(0.371225 0.069989 -2.24517e-21)
(0.438405 0.0453398 -7.52954e-20)
(0.510353 0.0185539 1.37938e-19)
(0.586432 -0.0102517 1.33672e-19)
(0.666045 -0.040463 -1.246e-19)
(0.746138 -0.0725771 1.11079e-19)
(0.830019 -0.102999 -1.01324e-19)
(0.898655 -0.137336 0)
(0.994601 -0.162211 -8.43356e-20)
(-0.014021 0.0254057 7.82637e-20)
(-0.0325927 0.0667903 -7.96362e-20)
(-0.0403092 0.10061 7.53637e-20)
(-0.0389169 0.12624 0)
(-0.0294958 0.144063 0)
(-0.0127405 0.15495 1.24667e-19)
(0.0107729 0.159889 -1.17467e-19)
(0.0405955 0.159837 1.11812e-19)
(0.0764211 0.155639 -5.2787e-19)
(0.11808 0.147987 -1.28919e-21)
(0.165509 0.137411 9.48768e-20)
(0.218755 0.124306 0)
(0.277922 0.108938 -1.76384e-19)
(0.343087 0.091462 3.34025e-19)
(0.414238 0.071966 -2.39004e-19)
(0.491149 0.0505312 -3.81746e-19)
(0.573233 0.0272619 -2.04351e-21)
(0.659445 0.0023559 2.65347e-19)
(0.748081 -0.0239771 0)
(0.837248 -0.050916 0)
(0.923048 -0.0790885 -1.11075e-19)
(1.00639 -0.104176 1.01324e-19)
(1.07161 -0.133901 -3.48199e-19)
(1.15126 -0.150082 3.26162e-19)
(-0.0135328 0.0205997 0)
(-0.031543 0.0545005 0)
(-0.0383784 0.0823893 -2.26343e-19)
(-0.0350231 0.103521 7.18652e-20)
(-0.0222826 0.118095 5.7586e-22)
(-0.000782317 0.126754 1.2461e-19)
(0.0289201 0.130263 0)
(0.0663955 0.129404 -1.09906e-19)
(0.11138 0.124907 1.04986e-19)
(0.163771 0.117406 -1.9724e-19)
(0.22358 0.107415 -1.32192e-21)
(0.290826 0.0953119 1.802e-19)
(0.365429 0.0813562 2.51102e-21)
(0.447075 0.0657303 1.65862e-19)
(0.535042 0.0485685 -2.3098e-19)
(0.628083 0.0299907 0)
(0.724348 0.0101456 2.77357e-19)
(0.821389 -0.0107553 -3.93231e-19)
(0.916234 -0.0324297 1.18394e-19)
(1.00573 -0.0542639 0)
(1.08611 -0.0765128 9.98746e-20)
(1.15607 -0.0958217 3.67087e-19)
(1.2071 -0.11944 -3.44544e-19)
(1.2566 -0.128361 -3.61426e-19)
(-0.0133944 0.0169509 2.38064e-19)
(-0.0305498 0.0437796 -3.26219e-19)
(-0.035906 0.0651098 1.14716e-21)
(-0.0298121 0.0807131 7.21168e-20)
(-0.012756 0.0909674 -1.337e-19)
(0.0148224 0.0965004 -1.24606e-19)
(0.0525328 0.0979944 2.33279e-19)
(0.100098 0.0961333 5.31626e-22)
(0.157357 0.0915611 -2.06299e-19)
(0.224179 0.0848337 3.91474e-19)
(0.300336 0.0763923 3.00134e-21)
(0.385334 0.0665598 -1.74643e-19)
(0.478228 0.0555558 0)
(0.57749 0.04351 0)
(0.68094 0.0304921 -7.62336e-20)
(0.785766 0.0165449 -1.39412e-19)
(0.888666 0.00173481 -2.6597e-19)
(0.986055 -0.0138617 2.49662e-19)
(1.07443 -0.0299785 -1.18461e-19)
(1.15063 -0.0465056 2.09181e-19)
(1.21229 -0.0628988 -1.06308e-19)
(1.25846 -0.078275 1.6435e-19)
(1.28723 -0.0959416 -3.97101e-19)
(1.3058 -0.102263 7.2379e-20)
(-0.013652 0.0144542 8.0114e-20)
(-0.0292404 0.0351159 0)
(-0.0314771 0.0501359 1.5359e-19)
(-0.0204175 0.0601703 -1.44681e-19)
(0.00369975 0.066007 1.33829e-19)
(0.0406432 0.0684271 0)
(0.0901921 0.0681424 0)
(0.152112 0.0658009 -1.0943e-19)
(0.226046 0.0619682 -1.97457e-22)
(0.311334 0.0570944 9.63877e-20)
(0.406809 0.0514993 -9.17884e-20)
(0.510643 0.0453606 1.72712e-19)
(0.620268 0.0387245 0)
(0.732425 0.0315296 3.10584e-19)
(0.84334 0.023647 -5.83669e-19)
(0.948997 0.0149272 4.13714e-19)
(1.0455 0.00526361 2.54047e-19)
(1.12942 -0.00541577 -2.38489e-19)
(1.19824 -0.0169233 0)
(1.25045 -0.0294442 0)
(1.28618 -0.0417665 0)
(1.3064 -0.0557008 0)
(1.31369 -0.0678122 7.55354e-20)
(1.31235 -0.0783446 -2.51657e-19)
(-0.379993 -0.021719 -5.26689e-21)
(-0.332368 -0.0204909 5.29566e-21)
(-0.273053 -0.018356 -1.21135e-22)
(-0.204434 -0.0156186 0)
(-0.127539 -0.0120918 -1.35277e-21)
(-0.0442302 -0.00859317 1.85406e-21)
(0.0430564 -0.00459433 -6.47806e-22)
(0.13163 -0.000707581 1.20484e-22)
(0.219213 0.00289385 0)
(0.303677 0.00610991 0)
(0.383341 0.00887676 7.63567e-23)
(0.457104 0.0111779 7.98211e-23)
(0.524396 0.0130473 1.33997e-21)
(0.585061 0.0145695 -1.22553e-21)
(0.639264 0.0158183 0)
(0.687325 0.0168591 0)
(0.729785 0.0178467 -8.8205e-22)
(0.767221 0.0187122 7.34604e-23)
(0.800048 0.0194732 7.16332e-22)
(0.828651 0.0201926 3.99418e-23)
(0.853355 0.0209126 0)
(0.874551 0.0214937 0)
(0.892575 0.0220802 0)
(0.907724 0.0226165 0)
(0.920389 0.0231382 0)
(0.930963 0.0236376 0)
(0.93983 0.0241366 -9.3096e-23)
(0.947323 0.0246785 1.51762e-22)
(0.953715 0.0252971 0)
(0.959213 0.0260083 0)
(0.963973 0.0268117 8.01605e-23)
(0.968112 0.0276963 -7.79082e-23)
(0.971724 0.0286489 -3.37656e-23)
(0.974887 0.0296599 0)
(0.97767 0.0307254 0)
(0.980127 0.0318468 -4.87663e-23)
(0.982309 0.0330292 4.74038e-23)
(0.984254 0.0342801 0)
(0.985996 0.0356082 -3.74145e-23)
(0.987562 0.0370233 5.40596e-23)
(0.988975 0.0385352 -1.62797e-23)
(0.990252 0.0401546 0)
(0.991412 0.0418919 2.70096e-23)
(0.992464 0.0437606 -2.62641e-23)
(0.993428 0.0457668 0)
(0.994302 0.0479423 0)
(0.995117 0.0502512 9.83655e-24)
(0.995844 0.052839 -2.81952e-23)
(0.996551 0.0554098 0)
(0.997157 0.0586898 0)
(0.997787 0.0612078 6.89568e-24)
(0.99831 0.065903 -2.22236e-28)
(0.998859 0.0675467 5.22529e-25)
(0.999363 0.074787 -4.82283e-24)
(0.999822 0.0748709 0)
(1.00033 0.084781 0)
(1.00075 0.0844302 0)
(1.00127 0.0955982 0)
(1.00157 0.0957689 0)
(1.00232 0.108804 0)
(-0.289236 -0.077252 -5.81321e-22)
(-0.24705 -0.0877373 -1.8257e-20)
(-0.192349 -0.0959137 3.9348e-21)
(-0.128619 -0.101783 1.33634e-20)
(-0.0573871 -0.103322 1.29541e-22)
(0.0200621 -0.101684 0)
(0.101514 -0.0970853 1.81566e-22)
(0.183632 -0.089972 -2.38582e-21)
(0.264746 -0.0809547 2.2125e-21)
(0.342954 -0.0708012 -4.57276e-21)
(0.4167 -0.0602651 4.36789e-21)
(0.484972 -0.0499802 -5.04274e-21)
(0.547285 -0.0404107 4.89198e-21)
(0.603538 -0.0317748 1.46248e-22)
(0.653892 -0.0241217 4.33052e-21)
(0.698794 -0.0174248 -4.20845e-21)
(0.738653 -0.0115048 3.52009e-21)
(0.773858 -0.00634704 -3.31961e-21)
(0.804903 -0.00183788 2.81511e-21)
(0.832168 0.00212406 -5.16955e-21)
(0.855827 0.00563888 2.36915e-21)
(0.876241 0.00901727 1.2353e-22)
(0.893747 0.0120286 1.66719e-21)
(0.908556 0.0144923 -3.08782e-21)
(0.921018 0.0165809 1.42627e-21)
(0.931454 0.0183425 -7.46636e-23)
(0.940228 0.0198367 -1.04641e-21)
(0.947667 0.0211543 5.45284e-23)
(0.954029 0.0223794 1.67882e-21)
(0.959517 0.023572 -1.4991e-21)
(0.964281 0.0247646 6.98197e-22)
(0.968432 0.0259684 -7.52443e-23)
(0.972061 0.0271847 3.38343e-23)
(0.975244 0.0284138 -6.1323e-23)
(0.978047 0.0296599 0)
(0.980526 0.030931 0)
(0.982729 0.0322379 1.78904e-22)
(0.984696 0.0335928 -1.31732e-22)
(0.986461 0.0350086 -1.11608e-22)
(0.988049 0.0364979 -9.79734e-24)
(0.989486 0.0380732 1.50613e-22)
(0.990788 0.0397469 -3.01244e-23)
(0.991973 0.0415311 0)
(0.993053 0.0434402 0)
(0.994045 0.0454815 0)
(0.994948 0.0476876 0)
(0.995793 0.0500223 -4.05287e-23)
(0.996554 0.0526342 1.86463e-23)
(0.997294 0.0552222 0)
(0.997938 0.0585245 0)
(0.998606 0.0610484 0)
(0.999166 0.0657697 1.19429e-23)
(0.999767 0.067407 -9.86029e-25)
(1.0003 0.0746738 1.01938e-23)
(1.00082 0.0747538 0)
(1.00137 0.0846721 0)
(1.00183 0.0843326 -5.18719e-24)
(1.00243 0.0955003 -1.23867e-23)
(1.00275 0.095673 0)
(1.00358 0.108717 0)
(-0.100278 -0.124919 -5.94351e-21)
(-0.0638459 -0.145138 -4.75914e-20)
(-0.0172384 -0.163446 3.18398e-20)
(0.038555 -0.176348 -2.97561e-20)
(0.101714 -0.183267 -1.30395e-22)
(0.168269 -0.184014 0)
(0.237435 -0.179441 -1.60759e-21)
(0.30702 -0.169701 1.54434e-21)
(0.375195 -0.155883 -4.26042e-23)
(0.440408 -0.139447 -9.89754e-23)
(0.501485 -0.121835 -1.24755e-22)
(0.557694 -0.104275 -1.53277e-22)
(0.60877 -0.0876909 9.48041e-21)
(0.654806 -0.0726519 -9.3604e-21)
(0.696057 -0.0593024 0)
(0.732904 -0.0476001 -2.40367e-22)
(0.765754 -0.0374895 6.90815e-21)
(0.79501 -0.0287024 -6.81457e-21)
(0.821051 -0.0210116 0)
(0.844175 -0.0142497 0)
(0.864753 -0.0082596 4.43672e-21)
(0.882848 -0.00276608 -8.20127e-21)
(0.898366 0.00204279 7.00304e-21)
(0.911698 0.00648778 -3.9243e-22)
(0.923183 0.0101433 -5.3684e-21)
(0.932963 0.0131132 4.89349e-21)
(0.941298 0.01556 -4.13543e-21)
(0.948449 0.0176301 2.85167e-22)
(0.954629 0.0194473 1.76087e-21)
(0.960007 0.021112 0)
(0.964708 0.0226888 0)
(0.968828 0.0242098 -4.32483e-22)
(0.972446 0.0256895 5.67308e-22)
(0.97563 0.0271376 -9.78468e-26)
(0.978441 0.0285653 -4.33157e-22)
(0.980934 0.029987 4.20958e-22)
(0.983153 0.0314191 0)
(0.985139 0.0328786 -4.23426e-23)
(0.986924 0.0343822 -3.41116e-22)
(0.988535 0.0359458 6.43158e-22)
(0.989994 0.0375844 -2.70126e-22)
(0.991321 0.0393124 -3.03419e-23)
(0.992532 0.0411433 2.7381e-22)
(0.993638 0.0430928 -2.11842e-22)
(0.994658 0.045169 -4.77137e-23)
(0.995591 0.0474055 -4.408e-23)
(0.996466 0.0497662 4.06318e-23)
(0.997262 0.0524022 0)
(0.998034 0.0550076 0)
(0.998716 0.0583324 1.24233e-22)
(0.999423 0.0608627 -5.94404e-23)
(1.00002 0.0656104 5.19292e-23)
(1.00067 0.0672424 -6.97632e-23)
(1.00123 0.0745367 -7.95879e-23)
(1.00182 0.0746129 1.86819e-23)
(1.00241 0.0845436 -2.95036e-23)
(1.00291 0.0842134 2.35061e-23)
(1.00358 0.095387 -1.01116e-23)
(1.00392 0.0955609 0)
(1.00485 0.10862 0)
(0.136522 -0.163066 -1.07039e-19)
(0.169471 -0.191175 1.56186e-20)
(0.208699 -0.217215 8.6613e-20)
(0.254481 -0.235927 -4.48252e-22)
(0.304671 -0.247746 0)
(0.357337 -0.251477 0)
(0.411122 -0.247072 -9.08738e-21)
(0.464405 -0.235205 9.60421e-21)
(0.515803 -0.217431 -4.96285e-21)
(0.564308 -0.19577 -2.42228e-21)
(0.609262 -0.172251 6.41113e-21)
(0.650302 -0.148617 8.31338e-21)
(0.687369 -0.126163 -8.30384e-21)
(0.720717 -0.105762 0)
(0.750711 -0.0877661 7.92686e-21)
(0.777664 -0.0721168 -7.23413e-21)
(0.801899 -0.058602 0)
(0.823737 -0.0469011 0)
(0.843469 -0.0367083 -5.3799e-21)
(0.861331 -0.0277359 4.35243e-22)
(0.8775 -0.019755 4.51491e-21)
(0.892041 -0.0127953 3.88178e-21)
(0.90515 -0.00661523 -3.86584e-21)
(0.916681 -0.000996017 3.03297e-21)
(0.926606 0.00401281 -3.3874e-22)
(0.935321 0.00810794 -2.52538e-21)
(0.942957 0.0114077 -2.66877e-22)
(0.949643 0.0141641 -4.1928e-25)
(0.955513 0.0165323 0)
(0.96069 0.0186435 -1.45754e-21)
(0.965266 0.0205891 1.5009e-21)
(0.969311 0.0224193 -7.62827e-23)
(0.972887 0.0241588 0)
(0.97605 0.0258248 6.21578e-23)
(0.978856 0.0274347 -8.7382e-22)
(0.981353 0.029008 1.54197e-21)
(0.983583 0.0305665 4.67755e-23)
(0.985584 0.0321315 -4.1097e-23)
(0.987387 0.0337237 -5.67368e-22)
(0.989018 0.0353622 -7.18414e-23)
(0.990499 0.0370646 5.15717e-22)
(0.99185 0.0388472 -4.40275e-22)
(0.993085 0.0407249 1.0102e-25)
(0.994218 0.042715 -2.02664e-22)
(0.995265 0.0448262 2.44907e-22)
(0.996229 0.0470935 3.05793e-22)
(0.997134 0.04948 -8.61291e-23)
(0.997964 0.0521406 -1.46643e-22)
(0.998769 0.0547634 2.77044e-22)
(0.999489 0.0581112 -1.94053e-22)
(1.00023 0.0606484 5.35936e-23)
(1.00087 0.065423 -6.01981e-23)
(1.00157 0.0670508 -5.07477e-23)
(1.00216 0.0743739 1.20851e-22)
(1.00282 0.0744466 -2.28308e-24)
(1.00344 0.0843938 2.97001e-23)
(1.00399 0.0840714 0)
(1.00474 0.095257 1.02968e-23)
(1.0051 0.0954319 -1.45322e-23)
(1.00611 0.108513 0)
(0.381319 -0.185268 1.15167e-19)
(0.411654 -0.221937 -2.11392e-19)
(0.443461 -0.254797 9.53107e-20)
(0.479126 -0.279644 6.23395e-20)
(0.516356 -0.295243 -1.06073e-19)
(0.553606 -0.301134 1.47129e-20)
(0.590126 -0.297109 2.86916e-20)
(0.625055 -0.283905 5.26744e-21)
(0.657733 -0.263413 -5.10172e-21)
(0.687905 -0.238073 0)
(0.715551 -0.210325 1.21607e-20)
(0.74075 -0.182301 -2.59566e-20)
(0.763623 -0.155569 1.37958e-20)
(0.784418 -0.131129 0)
(0.803497 -0.109558 0)
(0.821097 -0.0908927 -2.2859e-22)
(0.837327 -0.0748491 1.26536e-20)
(0.852307 -0.0610392 -1.22928e-20)
(0.866176 -0.0490802 0)
(0.879066 -0.0386234 -9.66199e-21)
(0.891091 -0.0293721 1.74613e-20)
(0.902267 -0.0211268 -1.55607e-20)
(0.912604 -0.0137272 1.40375e-20)
(0.922181 -0.00736524 -5.54105e-22)
(0.93075 -0.0016945 -1.10478e-20)
(0.938263 0.00337799 5.19413e-21)
(0.945046 0.00744663 1.34641e-22)
(0.951168 0.0108133 1.71793e-21)
(0.956648 0.0136763 -1.42669e-22)
(0.961558 0.0161972 -1.59531e-21)
(0.965956 0.0184879 -8.57602e-23)
(0.969886 0.0206125 1.18978e-21)
(0.973389 0.0226037 -2.22999e-21)
(0.976511 0.0244833 1.16922e-21)
(0.979296 0.0262734 0)
(0.981786 0.0279979 9.07689e-22)
(0.98402 0.0296827 -8.75494e-22)
(0.986031 0.0313536 5.85058e-22)
(0.987849 0.0330349 -7.313e-22)
(0.989498 0.0347487 7.26729e-23)
(0.991 0.0365151 0)
(0.992373 0.0383524 6.1572e-23)
(0.993633 0.0402773 -1.70268e-22)
(0.994792 0.042308 0)
(0.995866 0.0444542 -4.74236e-22)
(0.99686 0.0467524 1.88092e-22)
(0.997795 0.0491648 -8.23084e-23)
(0.998659 0.0518502 -7.59305e-23)
(0.999497 0.0544904 0)
(1.00025 0.0578617 0)
(1.00104 0.0604062 1.69965e-22)
(1.00171 0.0652082 -2.61885e-22)
(1.00247 0.0668328 1.44704e-22)
(1.00309 0.0741856 -4.57566e-23)
(1.0038 0.0742552 -7.57109e-23)
(1.00447 0.084223 -2.97284e-23)
(1.00506 0.0839067 4.75355e-23)
(1.00589 0.0951104 0)
(1.00627 0.0952861 2.32857e-23)
(1.00738 0.108395 5.51116e-24)
(0.611636 -0.195879 1.20367e-19)
(0.637068 -0.238622 -1.19724e-19)
(0.663377 -0.27646 7.25332e-22)
(0.690103 -0.30508 -6.25221e-22)
(0.714704 -0.323576 4.4752e-22)
(0.736407 -0.331439 -3.17568e-22)
(0.755383 -0.328168 5.14544e-22)
(0.771615 -0.314617 0)
(0.785341 -0.292988 -1.599e-22)
(0.797229 -0.265938 3.69776e-23)
(0.807975 -0.236085 -5.24585e-23)
(0.818088 -0.205743 1.79931e-22)
(0.827889 -0.176653 0)
(0.837524 -0.149864 0)
(0.847142 -0.125971 -1.82686e-22)
(0.856859 -0.105222 0)
(0.866584 -0.0874102 1.76941e-22)
(0.876153 -0.0721159 0)
(0.88547 -0.0589092 9.70286e-21)
(0.894507 -0.0473974 -1.85084e-20)
(0.903267 -0.0372429 1.67496e-20)
(0.911728 -0.0281965 -7.94901e-21)
(0.919841 -0.0200581 -6.54745e-21)
(0.927551 -0.0128201 6.35826e-21)
(0.934876 -0.00664492 5.34637e-21)
(0.941496 -0.00119929 -5.17709e-21)
(0.947416 0.00364411 0)
(0.952933 0.00758814 -1.19873e-22)
(0.957986 0.0108956 0)
(0.962592 0.0137883 0)
(0.966775 0.0163984 -2.50051e-21)
(0.970555 0.0188004 2.59592e-21)
(0.973959 0.0210322 -1.40605e-22)
(0.977017 0.0231192 -1.27311e-22)
(0.979765 0.0250859 1.15429e-22)
(0.982237 0.0269599 8.14472e-22)
(0.984466 0.0287705 -7.90832e-22)
(0.986482 0.0305471 7.67291e-22)
(0.98831 0.0323176 -6.6018e-22)
(0.989975 0.0341069 -1.46962e-22)
(0.991496 0.0359375 5.2671e-22)
(0.992891 0.0378297 3.61873e-23)
(0.994174 0.0398017 -3.56603e-22)
(0.995359 0.0418732 0)
(0.99646 0.0440544 1.95354e-22)
(0.997483 0.0463835 -2.61506e-22)
(0.998447 0.0488217 3.41387e-22)
(0.999345 0.0515322 7.64141e-23)
(1.00022 0.0541899 0)
(1.00101 0.057585 -6.01312e-23)
(1.00184 0.0601371 1.20821e-22)
(1.00254 0.0649669 -1.24481e-25)
(1.00336 0.0665892 4.7251e-23)
(1.00401 0.0739729 -7.84958e-23)
(1.00479 0.0740395 7.60415e-23)
(1.0055 0.0840317 0)