/*--------------------------------*- C++ -*----------------------------------*\
| =========                 |                                                 |
| \\      /  F ield         | OpenFOAM: The Open Source CFD Toolbox           |
|  \\    /   O peration     | Version:  2512                                  |
|   \\  /    A nd           | Website:  www.openfoam.com                      |
|    \\/     M anipulation  |                                                 |
\*---------------------------------------------------------------------------*/
FoamFile
{
    version     2.0;
    format      ascii;
    arch        "LSB;label=32;scalar=64";
    class       volVectorField;
    location    "161";
    object      U;
}
// * * * * * * * * * * * * * * * * * * * * * * * * * * * * * * * * * * * * * //

dimensions      [0 1 -1 0 0 0 0];

internalField   nonuniform List<vector> 
13248
(
(-0.0106662 0.00974323 7.2183e-20)
(-0.0169478 0.01702 0)
(-0.0103352 0.0169711 -1.373e-19)
(0.00827049 0.012635 1.29341e-19)
(0.0385577 0.00616231 1.21465e-19)
(0.080393 -0.000914843 0)
(0.133584 -0.00751032 0)
(0.197666 -0.0128521 2.90352e-19)
(0.271723 -0.0163951 -3.40487e-21)
(0.354288 -0.0177801 -2.49941e-19)
(0.443327 -0.0168225 2.24986e-19)
(0.53633 -0.0135131 -1.40137e-19)
(0.630484 -0.00801543 0)
(0.722899 -0.000651129 -2.20942e-19)
(0.810843 0.00813061 4.05544e-19)
(0.891953 0.0177953 -9.5441e-20)
(0.964393 0.0277748 -1.57689e-19)
(1.02695 0.0375059 1.48033e-19)
(1.07905 0.0465198 0)
(1.12074 0.0542916 0)
(1.15267 0.0608681 0)
(1.17554 0.0649974 0)
(1.1916 0.069092 3.98392e-20)
(1.20033 0.0672085 1.39974e-19)
(-0.0102549 0.00865367 -2.18124e-19)
(-0.0122511 0.0142558 1.49117e-19)
(0.00262672 0.0136666 -1.00302e-21)
(0.0329355 0.00955055 -1.97495e-19)
(0.0779027 0.00396612 -1.2133e-19)
(0.136887 -0.00151527 -1.14503e-19)
(0.208988 -0.00577016 -2.09752e-19)
(0.292777 -0.00803648 1.98039e-19)
(0.386123 -0.00785803 0)
(0.48617 -0.0050626 2.15787e-21)
(0.589472 0.000252592 4.63739e-21)
(0.692274 0.0077483 1.40177e-19)
(0.790867 0.0168926 0)
(0.88194 0.0270304 0)
(0.962871 0.0374633 1.46865e-19)
(1.03191 0.0475277 -2.75503e-19)
(1.08826 0.0566603 1.56849e-19)
(1.13202 0.0644386 -1.47255e-19)
(1.16406 0.0706092 -6.33109e-20)
(1.18587 0.0750412 -1.10114e-19)
(1.19918 0.0778649 -4.43788e-20)
(1.20619 0.0788158 -8.20096e-20)
(1.20821 0.0793512 1.23391e-19)
(1.20774 0.0758797 3.51031e-20)
(-0.0086076 0.0068191 0)
(-0.00370226 0.00967221 0)
(0.0221336 0.00808922 6.98848e-20)
(0.0668937 0.00433501 6.45588e-20)
(0.129193 0.000314102 -1.49632e-21)
(0.207561 -0.0024541 -1.17508e-19)
(0.299916 -0.00294681 0)
(0.403303 -0.000603248 -9.81454e-20)
(0.513856 0.00471063 9.10038e-20)
(0.627004 0.0127363 2.89087e-22)
(0.737899 0.0228875 -1.51516e-19)
(0.841945 0.0343533 -1.3497e-19)
(0.935297 0.046227 5.11646e-21)
(1.01523 0.0576365 -1.04144e-19)
(1.08031 0.0678534 2.55286e-19)
(1.13042 0.0763651 0)
(1.16653 0.0829022 -1.55124e-19)
(1.19046 0.0874209 7.54348e-20)
(1.20453 0.0900726 6.32549e-20)
(1.21119 0.0910807 0)
(1.21278 0.0908781 4.9886e-20)
(1.21125 0.0893971 -1.71416e-19)
(1.2079 0.088019 1.60913e-19)
(1.20477 0.083709 1.00019e-19)
(-0.00550083 0.00448837 -7.70069e-20)
(0.0094263 0.00400324 -7.95199e-20)
(0.0493632 0.00146743 7.2182e-20)
(0.111566 -0.00130883 0)
(0.1937 -0.00267246 0)
(0.292944 -0.00131251 -1.89417e-21)
(0.405403 0.00345945 0)
(0.526032 0.0117117 -2.96455e-19)
(0.648938 0.0229621 2.73688e-19)
(0.768 0.0362979 -3.35579e-19)
(0.877633 0.0505554 7.57019e-20)
(0.973462 0.0645312 0)
(1.05276 0.0771748 1.20502e-19)
(1.1146 0.0877275 -2.21052e-19)
(1.15965 0.095784 5.23589e-20)
(1.18984 0.101282 1.27926e-19)
(1.20789 0.104431 -8.5547e-21)
(1.21676 0.105615 -1.41812e-19)
(1.2193 0.105287 0)
(1.21788 0.103872 0)
(1.21433 0.101774 -4.80086e-20)
(1.20983 0.0990355 4.25715e-20)
(1.20509 0.0966409 1.48933e-19)
(1.20068 0.091865 -1.39816e-19)
(-0.000636898 0.00188811 -8.07951e-20)
(0.0279051 -0.00197322 -8.05617e-20)
(0.0853631 -0.00482987 2.26743e-19)
(0.167906 -0.00547271 -1.37725e-19)
(0.271698 -0.00268858 1.29637e-19)
(0.391868 0.0043592 2.35297e-19)
(0.522081 0.0156836 -1.65693e-19)
(0.654918 0.0305179 -1.9913e-19)
(0.78275 0.0475257 5.60563e-21)
(0.898805 0.0650937 2.52964e-19)
(0.998086 0.0816515 0)
(1.07788 0.0959442 6.75774e-20)
(1.13777 0.107194 0)
(1.17929 0.115136 -1.06152e-19)
(1.20531 0.119941 1.48629e-19)
(1.21929 0.122078 9.36269e-22)
(1.2247 0.122152 -3.78314e-20)
(1.22456 0.120767 6.87835e-20)
(1.22121 0.118433 5.94484e-20)
(1.21627 0.115523 -5.26663e-20)
(1.21074 0.1123 4.79971e-20)
(1.20518 0.108793 -4.25611e-20)
(1.19977 0.105577 0)
(1.19495 0.100544 -3.24061e-20)
(0.00633096 -0.000744877 8.07836e-20)
(0.0524425 -0.00741797 8.45123e-20)
(0.130815 -0.00935245 -7.58936e-20)
(0.236012 -0.00622359 1.41085e-19)
(0.361972 0.00241327 -1.32793e-19)
(0.501066 0.0165255 1.19616e-19)
(0.644196 0.035052 -5.73855e-20)
(0.78193 0.0561285 1.49733e-19)
(0.905993 0.0775544 -9.38139e-20)
(1.01051 0.0972772 1.63287e-19)
(1.09263 0.113767 -3.74739e-19)
(1.15241 0.126203 1.36928e-19)
(1.1922 0.134464 -1.16954e-19)
(1.21572 0.138965 1.09855e-19)
(1.22713 0.140431 9.23837e-20)
(1.2303 0.139677 7.93381e-20)
(1.2284 0.137442 -2.21109e-19)
(1.22372 0.134305 1.36366e-19)
(1.21779 0.130664 -5.94503e-20)
(1.21148 0.126765 1.53505e-19)
(1.20526 0.122741 -4.96143e-20)
(1.19933 0.118622 -1.18843e-19)
(1.19376 0.114705 1.0939e-19)
(1.18866 0.109499 3.23961e-20)
(0.0157394 -0.00312517 0)
(0.0835306 -0.0114048 5.75946e-22)
(0.185791 -0.0106261 1.5766e-19)
(0.314844 -0.00178676 -1.48008e-19)
(0.461646 0.0143077 -1.33139e-19)
(0.615391 0.0362822 2.4709e-19)
(0.764557 0.061689 -1.14579e-19)
(0.898897 0.087568 1.51468e-19)
(1.0112 0.111194 -3.92043e-21)
(1.09814 0.130619 -8.50893e-20)
(1.16007 0.144902 1.82718e-19)
(1.20005 0.154034 -2.68583e-19)
(1.22261 0.158669 0)
(1.23261 0.159796 -5.1514e-20)
(1.23435 0.158446 -1.3546e-19)
(1.23119 0.155505 4.29019e-20)
(1.22548 0.151635 1.98592e-21)
(1.2187 0.147274 -8.97253e-20)
(1.21169 0.142686 6.84093e-21)
(1.20487 0.138013 1.03217e-19)
(1.19841 0.133323 -4.50632e-20)
(1.19237 0.128648 -1.69453e-20)
(1.1867 0.124081 5.28178e-20)
(1.18142 0.118731 0)
(0.0278407 -0.00489417 0)
(0.121283 -0.0129142 4.27341e-20)
(0.249565 -0.00721733 -2.05277e-19)
(0.402123 0.00929714 7.45051e-20)
(0.56641 0.0339902 -7.01217e-20)
(0.728649 0.0637343 -6.37247e-20)
(0.876084 0.0946589 -1.12225e-19)
(0.999481 0.123092 5.631e-20)
(1.09446 0.146416 4.86852e-20)
(1.16129 0.163402 0)
(1.20361 0.174079 1.08313e-19)
(1.22677 0.17933 -1.59906e-19)
(1.23638 0.180427 1.18733e-19)
(1.23731 0.178654 5.15404e-20)
(1.23324 0.175082 -4.15016e-20)
(1.22667 0.170486 -3.38518e-20)
(1.21913 0.165374 -3.11963e-20)
(1.21146 0.160042 9.5044e-20)
(1.20406 0.15465 0)
(1.1971 0.149278 4.64876e-20)
(1.19061 0.143961 3.83513e-20)
(1.18456 0.138719 -9.60535e-20)
(1.17887 0.133534 -6.46591e-20)
(1.17348 0.128024 5.98211e-20)
(0.0427333 -0.00562185 -4.59193e-20)
(0.165305 -0.010876 -1.57987e-21)
(0.32053 0.0021614 4.16871e-20)
(0.494482 0.0280238 1.16034e-19)
(0.671127 0.0616862 3.3496e-20)
(0.834761 0.0981185 -6.48565e-20)
(0.973265 0.1324 5.92647e-20)
(1.08032 0.160855 -5.17458e-20)
(1.15552 0.181671 9.20894e-20)
(1.2028 0.194768 3.87865e-20)
(1.22835 0.201223 -1.10121e-19)
(1.23867 0.202631 3.21627e-20)
(1.23938 0.200592 5.42008e-20)
(1.23468 0.196426 -2.67894e-20)
(1.22736 0.191076 0)
(1.21908 0.185146 3.88363e-20)
(1.21073 0.178986 6.48583e-20)
(1.20272 0.172783 1.04704e-20)
(1.19522 0.166629 -5.35585e-20)
(1.18827 0.160568 2.20974e-20)
(1.18182 0.154621 0)
(1.1758 0.148786 -1.70484e-20)
(1.17013 0.143013 -1.59704e-20)
(1.1647 0.137287 0)
(0.0603038 -0.00483627 0)
(0.214614 -0.00426418 2.40302e-20)
(0.396247 0.0185118 4.43469e-20)
(0.587825 0.0548107 -1.18038e-19)
(0.770619 0.0968926 3.80701e-20)
(0.928792 0.138099 0)
(1.05291 0.173211 5.67467e-20)
(1.14093 0.199365 -7.91219e-20)
(1.19661 0.216079 -4.59129e-20)
(1.22687 0.224541 2.06904e-20)
(1.2393 0.226707 -3.24653e-20)
(1.24053 0.224588 7.9161e-20)
(1.23552 0.219847 3.9043e-20)
(1.22755 0.213671 -2.74724e-20)
(1.21852 0.20681 -2.89656e-21)
(1.20945 0.199693 -7.28097e-20)
(1.20079 0.192548 3.30011e-20)
(1.19272 0.185484 -8.30164e-22)
(1.18528 0.178554 0)
(1.17842 0.171784 -2.21205e-20)
(1.17208 0.165181 0)
(1.16616 0.158723 4.90001e-20)
(1.16056 0.152389 -5.79795e-20)
(1.15515 0.146359 2.62974e-20)
(0.0801903 -0.00206761 -1.2455e-20)
(0.267642 0.00779116 -6.02589e-20)
(0.47362 0.0424224 6.84375e-20)
(0.677817 0.0894562 4.01267e-20)
(0.860376 0.138531 -1.92164e-20)
(1.00748 0.182095 3.20285e-20)
(1.11403 0.215583 -1.56073e-20)
(1.18272 0.237622 2.57855e-20)
(1.22093 0.249287 0)
(1.23747 0.252901 5.76443e-20)
(1.24029 0.251002 -2.58991e-21)
(1.23547 0.245736 -4.61125e-20)
(1.22701 0.238643 1.95508e-20)
(1.21725 0.230697 -2.17957e-20)
(1.20741 0.222452 -8.06757e-21)
(1.19805 0.214192 9.55868e-21)
(1.18936 0.206055 -7.22044e-21)
(1.18139 0.198105 -3.88097e-20)
(1.1741 0.190371 2.37366e-20)
(1.16742 0.182866 4.77592e-21)
(1.16125 0.175581 4.16377e-21)
(1.15549 0.168486 3.63088e-21)
(1.15002 0.161622 0)
(1.1447 0.155176 0)
(0.101845 0.00311394 1.24636e-20)
(0.322444 0.0259126 -1.24598e-20)
(0.549342 0.0739854 -2.27734e-20)
(0.760512 0.131183 0)
(0.937082 0.185167 -9.51773e-21)
(1.06924 0.228562 -8.51974e-21)
(1.15712 0.258354 -1.4538e-20)
(1.20787 0.275063 0)
(1.23147 0.281267 0)
(1.23757 0.280142 0)
(1.23374 0.274502 0)
(1.22511 0.266415 0)
(1.21471 0.2572 -1.22222e-20)
(1.2041 0.247603 5.54978e-21)
(1.194 0.238004 9.54622e-21)
(1.18465 0.228583 4.4488e-21)
(1.17613 0.219417 1.08546e-20)
(1.16838 0.210538 0)
(1.16136 0.201961 -2.53159e-21)
(1.15495 0.193687 -2.40673e-21)
(1.14906 0.185694 -4.1704e-21)
(1.14356 0.17796 -3.63668e-21)
(1.13833 0.170588 0)
(1.13322 0.16361 2.52825e-21)
(0.000361911 -0.0478554 9.16606e-21)
(-0.00261116 -0.113284 -9.51173e-21)
(-0.0112522 -0.156627 -1.7999e-20)
(-0.0234203 -0.183053 0)
(-0.0376434 -0.197157 -2.41922e-20)
(-0.0529907 -0.202862 7.67068e-21)
(-0.0687624 -0.203203 -1.4303e-20)
(-0.0844586 -0.200266 0)
(-0.099753 -0.195259 0)
(-0.114438 -0.188683 0)
(-0.128375 -0.180546 0)
(-0.141455 -0.170549 0)
(-0.153573 -0.158247 3.35242e-22)
(-0.164616 -0.143153 -9.86938e-21)
(-0.174453 -0.124807 1.80889e-20)
(-0.182937 -0.102819 2.59075e-20)
(-0.189914 -0.0768989 7.64457e-21)
(-0.19521 -0.0468762 0)
(-0.198494 -0.0127188 7.38284e-21)
(-0.199727 0.0254651 -1.99517e-20)
(-0.198908 0.0672062 -1.20718e-20)
(-0.195766 0.111924 -1.11421e-20)
(-0.190384 0.158945 0)
(-0.183761 0.207349 0)
(0.00250733 -0.0431423 -2.72651e-20)
(0.00138869 -0.101772 4.7218e-20)
(-0.00760144 -0.140411 -1.74053e-20)
(-0.0211791 -0.163733 -3.35241e-20)
(-0.0372476 -0.175974 4.75993e-20)
(-0.0545686 -0.180751 -2.98585e-20)
(-0.0722814 -0.180832 4.23859e-20)
(-0.089822 -0.17809 2.61247e-20)
(-0.106861 -0.173588 0)
(-0.12322 -0.167748 -2.41417e-20)
(-0.138793 -0.160545 -1.18382e-22)
(-0.153503 -0.151689 2.14357e-20)
(-0.167265 -0.140763 2.93415e-20)
(-0.179971 -0.12732 3.70778e-20)
(-0.191482 -0.110946 -1.81323e-20)
(-0.20163 -0.0912912 -4.96501e-20)
(-0.210206 -0.0680913 1.43744e-20)
(-0.216963 -0.0411774 -5.54161e-20)
(-0.221627 -0.0104903 0)
(-0.224034 0.0237312 1.30062e-20)
(-0.224017 0.0612859 1.20578e-20)
(-0.221186 0.101774 1.11288e-20)
(-0.215483 0.144784 0)
(-0.208981 0.189821 0)
(0.00395652 -0.0370655 0)
(0.00406009 -0.0876086 9.10333e-20)
(-0.00516793 -0.121192 -3.44383e-20)
(-0.0195915 -0.141577 3.30205e-20)
(-0.0366465 -0.15236 -9.18474e-20)
(-0.0548597 -0.156678 0)
(-0.0732446 -0.156935 -5.45985e-20)
(-0.0911809 -0.154751 2.52529e-20)
(-0.108328 -0.151041 -4.75423e-20)
(-0.124515 -0.146162 2.14233e-20)
(-0.139655 -0.140083 1.26628e-19)
(-0.153686 -0.132542 -5.93775e-20)
(-0.166533 -0.12317 -9.33369e-20)
(-0.178092 -0.111579 -3.30673e-20)
(-0.18822 -0.0974067 7.33433e-22)
(-0.196734 -0.0803545 1.19599e-19)
(-0.203399 -0.0601964 -5.57446e-20)
(-0.207914 -0.036794 2.70995e-21)
(-0.210051 -0.0101347 0)
(-0.209598 0.0196669 -3.99841e-20)
(-0.206268 0.0524825 0)
(-0.19955 0.0880837 -3.63008e-20)
(-0.188902 0.126244 1.26634e-19)
(-0.176947 0.16673 -1.88323e-21)
(0.0045662 -0.030116 0)
(0.00514692 -0.0718231 -7.41891e-22)
(-0.00423324 -0.100245 3.34248e-20)
(-0.0189434 -0.117944 -3.15135e-20)
(-0.0361441 -0.127682 3.03444e-20)
(-0.0542177 -0.131997 1.69e-19)
(-0.0720934 -0.132865 -5.31663e-20)
(-0.0891055 -0.131628 -4.93068e-20)
(-0.104892 -0.129048 9.36566e-20)
(-0.119275 -0.125424 -1.31702e-19)
(-0.132166 -0.120729 4.0262e-20)
(-0.143503 -0.114739 3.72484e-20)
(-0.153212 -0.107143 0)
(-0.161191 -0.0976074 3.36451e-20)
(-0.167298 -0.0858307 0)
(-0.171347 -0.0715646 5.32669e-20)
(-0.173111 -0.0546334 -9.92317e-20)
(-0.172334 -0.0349504 2.73107e-20)
(-0.168746 -0.0125374 8.45045e-20)
(-0.162083 0.0125667 3.9945e-20)
(-0.152118 0.0402777 0)
(-0.138416 0.0705528 -9.05805e-20)
(-0.119793 0.103531 2.9968e-20)
(-0.0976371 0.139541 0)
(0.00428549 -0.0227803 0)
(0.00455771 -0.055405 -1.05305e-19)
(-0.00491731 -0.0787508 -3.31822e-20)
(-0.0193908 -0.0940474 -6.25368e-20)
(-0.0359534 -0.103121 5.88902e-20)
(-0.0529433 -0.107849 -5.595e-20)
(-0.0692556 -0.109744 1.0378e-19)
(-0.0841973 -0.109853 4.87803e-20)
(-0.0973846 -0.108783 -1.37438e-19)
(-0.108622 -0.106773 8.43548e-20)
(-0.11781 -0.103798 -1.18648e-19)
(-0.124878 -0.099674 2.52755e-19)
(-0.129751 -0.0941394 -1.35872e-19)
(-0.13233 -0.0869169 6.0483e-20)
(-0.132485 -0.0777539 1.66267e-19)
(-0.13005 -0.0664485 -5.68085e-20)
(-0.124829 -0.052868 -4.86681e-20)
(-0.116599 -0.0369616 -4.51469e-20)
(-0.105115 -0.0187573 0)
(-0.0901087 0.00165615 -6.44504e-20)
(-0.0713724 0.0241513 -5.32872e-20)
(-0.0486706 0.0486987 8.23621e-20)
(-0.0205756 0.0758759 9.10012e-20)
(0.0138405 0.107071 -8.26847e-20)
(0.0031545 -0.0154997 0)
(0.00237861 -0.0392392 -1.37917e-19)
(-0.00712988 -0.0577436 1.12753e-22)
(-0.0208596 -0.0709149 1.23296e-19)
(-0.0360288 -0.0796309 0)
(-0.0510326 -0.0850924 0)
(-0.0647879 -0.0883428 0)
(-0.0766 -0.0901331 -4.76997e-20)
(-0.0860709 -0.0909063 9.12523e-22)
(-0.0929876 -0.0908354 8.33545e-20)
(-0.0972341 -0.0898916 -1.14824e-19)
(-0.0987335 -0.0879184 1.06163e-21)
(-0.0974132 -0.0846959 0)
(-0.0931875 -0.0799894 -6.0457e-20)
(-0.0859508 -0.073584 5.02287e-20)
(-0.0755766 -0.0653095 -1.4627e-19)
(-0.0619194 -0.0550576 1.71908e-19)
(-0.0448197 -0.042794 3.06951e-20)
(-0.0241016 -0.0285658 -8.41624e-21)
(0.000438781 -0.0125024 -1.24558e-19)
(0.0289769 0.005178 -5.08684e-20)
(0.0616803 0.0242727 1.57389e-19)
(0.0994248 0.0451991 -1.00429e-19)
(0.147294 0.0697316 0)
(0.0012986 -0.00865827 6.58734e-20)
(-0.00112006 -0.0240931 6.87566e-20)
(-0.0105282 -0.038105 -6.49006e-20)
(-0.0229551 -0.0493914 -1.22505e-19)
(-0.0359167 -0.0579408 1.15359e-19)
(-0.0479551 -0.0643071 -1.08001e-19)
(-0.058059 -0.0690801 1.52203e-19)
(-0.0655574 -0.0727182 -4.7305e-20)
(-0.0700464 -0.0754979 8.84871e-20)
(-0.0712951 -0.0775146 0)
(-0.0691705 -0.0787193 7.28417e-20)
(-0.0635875 -0.0789665 -1.38561e-19)
(-0.0544795 -0.0780604 1.24146e-19)
(-0.0417835 -0.0757922 -1.16601e-19)
(-0.0254355 -0.0719695 0)
(-0.00536918 -0.0664385 9.31685e-20)
(0.0184862 -0.0590999 1.59e-19)
(0.0462 -0.0499254 -1.508e-19)
(0.0778397 -0.0389678 -6.32068e-20)
(0.113482 -0.0263673 -5.32898e-20)
(0.153169 -0.0123771 1.52703e-19)
(0.197283 0.00268584 3.77708e-20)
(0.243713 0.0184959 -3.84911e-20)
(0.308605 0.0364444 3.15561e-20)
(-0.00107924 -0.00258274 -6.58823e-20)
(-0.00548983 -0.0106229 2.06063e-19)
(-0.0145076 -0.0205873 -6.45588e-20)
(-0.0249316 -0.0301829 1.2231e-19)
(-0.0347008 -0.0386267 -1.15174e-19)
(-0.0425687 -0.0458869 4.3834e-22)
(-0.0476309 -0.0521325 5.07116e-20)
(-0.0492542 -0.0575417 1.86968e-19)
(-0.0470307 -0.0622195 -2.48487e-21)
(-0.0407081 -0.0661693 -8.22878e-20)
(-0.0301331 -0.0693006 0)
(-0.0152151 -0.0714559 -6.56879e-20)
(0.00409457 -0.0724414 1.26168e-19)
(0.0278115 -0.0720551 1.1008e-19)
(0.0559209 -0.0701126 -5.30651e-20)
(0.0883778 -0.0664666 -8.46205e-22)
(0.125108 -0.0610252 -4.07044e-20)
(0.16601 -0.0537691 7.03516e-20)
(0.210958 -0.0447604 6.31889e-20)
(0.259839 -0.0341402 -5.52249e-20)
(0.31214 -0.0222452 4.71484e-20)
(0.36974 -0.00906522 -4.10865e-20)
(0.423234 0.00397381 0)
(0.508074 0.0187133 -3.15118e-20)
(-0.00370831 0.00245432 6.63891e-20)
(-0.0101258 0.000609884 -6.87365e-20)
(-0.0182365 -0.00584838 6.54701e-20)
(-0.0257413 -0.0139184 0)
(-0.0310747 -0.0222047 0)
(-0.0332336 -0.0301761 1.08382e-19)
(-0.0314375 -0.0376266 -1.01529e-19)
(-0.0250986 -0.044471 9.30417e-20)
(-0.0138091 -0.0506411 -4.37022e-19)
(0.00269435 -0.0560331 1.2567e-21)
(0.0245613 -0.0604947 7.43146e-20)
(0.0518441 -0.0638351 0)
(0.0845046 -0.0658447 -1.21108e-19)
(0.122415 -0.0663189 2.22854e-19)
(0.16536 -0.0650801 -1.52764e-19)
(0.213039 -0.0619992 -2.18814e-19)
(0.265076 -0.0570128 9.37269e-21)
(0.321029 -0.0501384 1.44148e-19)
(0.38039 -0.0414921 0)
(0.442823 -0.0311983 0)
(0.506641 -0.0199061 -4.71387e-20)
(0.5763 -0.00682196 4.10777e-20)
(0.633471 0.00500053 -1.40256e-19)
(0.732153 0.0199714 1.31583e-19)
(-0.00627861 0.00625176 0)
(-0.0143196 0.00916138 0)
(-0.0207299 0.00555437 -1.97049e-19)
(-0.0241444 -0.00117314 6.2475e-20)
(-0.0235108 -0.00919254 4.20726e-22)
(-0.0180777 -0.0175725 1.10102e-19)
(-0.00719732 -0.0257877 0)
(0.0096505 -0.0335151 -9.50855e-20)
(0.0328319 -0.0405181 8.76372e-20)
(0.0625534 -0.0465788 -1.60662e-19)
(0.0988574 -0.0514726 1.66534e-21)
(0.141614 -0.054969 1.33781e-19)
(0.190518 -0.0568463 -4.47307e-21)
(0.245083 -0.056913 1.04457e-19)
(0.304661 -0.0550299 -1.54768e-19)
(0.368461 -0.0511306 0)
(0.435586 -0.0452364 1.54235e-19)
(0.505077 -0.0374638 -2.1483e-19)
(0.575895 -0.0280549 6.23079e-20)
(0.647381 -0.017171 0)
(0.717062 -0.00575429 4.85398e-20)
(0.789978 0.00740508 1.64663e-19)
(0.846139 0.0182516 -1.54528e-19)
(0.939991 0.0333375 -1.67393e-19)
(-0.0084769 0.00870677 2.04662e-19)
(-0.0173345 0.014751 -2.82517e-19)
(-0.0209561 0.0132143 9.72375e-23)
(-0.0188507 0.00758903 6.31258e-20)
(-0.0104553 -4.14235e-05 -1.18282e-19)
(0.00472621 -0.0084521 -1.09562e-19)
(0.027175 -0.0168623 2.04247e-19)
(0.0572758 -0.024746 -3.23177e-21)
(0.0952375 -0.0317149 -1.78249e-19)
(0.14104 -0.0374475 3.24399e-19)
(0.194397 -0.0416605 -4.30034e-21)
(0.254728 -0.0441079 -1.38681e-19)
(0.321166 -0.044596 0)
(0.392574 -0.0430032 0)
(0.467609 -0.0392989 -5.01858e-20)
(0.544788 -0.0335573 -9.01524e-20)
(0.622576 -0.0259612 -1.55648e-19)
(0.699469 -0.0168 1.461e-19)
(0.774047 -0.00645575 -6.23258e-20)
(0.845217 0.00467955 1.0796e-19)
(0.911229 0.0158663 -5.42115e-20)
(0.97434 0.0275496 8.06497e-20)
(1.0231 0.0368401 -1.99407e-19)
(1.09191 0.0491183 3.40743e-20)
(-0.0100173 0.00982824 6.9099e-20)
(-0.0184443 0.0173116 0)
(-0.0178661 0.0169733 1.35152e-19)
(-0.00854709 0.0121609 -1.27322e-19)
(0.00963115 0.00504905 1.18383e-19)
(0.0368877 -0.00294461 0)
(0.0734552 -0.0108514 0)
(0.119431 -0.0179911 -9.52568e-20)
(0.174642 -0.0238618 3.17547e-21)
(0.238549 -0.028079 8.40849e-20)
(0.310193 -0.0303536 -7.33907e-20)
(0.388193 -0.0304949 1.39491e-19)
(0.470795 -0.0284233 0)
(0.555973 -0.0241832 2.20384e-19)
(0.641569 -0.0179469 -4.04519e-19)
(0.725438 -0.0100084 2.75711e-19)
(0.80559 -0.000762211 1.57087e-19)
(0.880305 0.00930941 -1.47458e-19)
(0.948239 0.0197306 0)
(1.00839 0.0298733 0)
(1.06033 0.0394986 0)
(1.10407 0.0477637 0)
(1.13807 0.0546445 3.9489e-20)
(1.17358 0.0610415 -1.42599e-19)
(-0.176289 0.263546 -6.83445e-21)
(-0.16403 0.330686 6.85522e-21)
(-0.14833 0.395811 -1.79611e-22)
(-0.129769 0.455302 0)
(-0.107916 0.505613 -5.00012e-21)
(-0.0816743 0.542478 9.4625e-21)
(-0.0491245 0.561749 -1.61385e-22)
(-0.00789595 0.558573 -4.19161e-21)
(0.0438332 0.528238 0)
(0.106573 0.467676 0)
(0.178861 0.377033 -2.69668e-22)
(0.257038 0.259882 -2.76492e-22)
(0.336519 0.12156 -4.54879e-21)
(0.413647 -0.031703 4.15021e-21)
(0.487018 -0.190883 0)
(0.554367 -0.340486 0)
(0.611387 -0.460841 2.59399e-21)
(0.653915 -0.538014 -4.75262e-22)
(0.679907 -0.571978 -1.87457e-21)
(0.690519 -0.573258 -8.87233e-23)
(0.69001 -0.555106 0)
(0.680015 -0.53357 0)
(0.65596 -0.525198 0)
(0.616166 -0.529842 0)
(0.573379 -0.516481 0)
(0.551281 -0.43957 0)
(0.564347 -0.280975 6.02284e-22)
(0.607593 -0.0697349 -9.38877e-22)
(0.665321 0.138631 0)
(0.72258 0.300862 0)
(0.767899 0.400614 -4.38149e-22)
(0.798694 0.445976 4.25826e-22)
(0.817188 0.454781 1.52275e-22)
(0.819839 0.458631 0)
(0.798839 0.477358 0)
(0.757872 0.491428 3.10132e-22)
(0.719155 0.449065 -3.01472e-22)
(0.705294 0.311987 0)
(0.719336 0.113438 4.03482e-22)
(0.753815 -0.0946091 -5.91721e-22)
(0.791262 -0.243796 1.63354e-22)
(0.827364 -0.336635 0)
(0.845434 -0.37489 -1.803e-22)
(0.832226 -0.403215 1.75324e-22)
(0.790432 -0.415173 0)
(0.744382 -0.367511 0)
(0.726601 -0.260696 -8.52089e-23)
(0.74546 -0.0661932 2.39902e-22)
(0.784532 0.0764999 0)
(0.820017 0.226898 0)
(0.822663 0.30288 -5.08245e-23)
(0.794821 0.360319 1.3349e-24)
(0.774509 0.367518 -1.3405e-24)
(0.774662 0.219472 4.612e-23)
(0.796891 0.136872 0)
(0.815747 -0.104142 0)
(0.811537 -0.202385 0)
(0.800289 -0.299656 0)
(0.80075 -0.375942 0)
(0.785829 -0.101525 0)
(-0.204576 0.242947 -5.57313e-22)
(-0.189029 0.30631 -2.24012e-20)
(-0.167953 0.367575 1.12226e-21)
(-0.140931 0.423159 1.99832e-20)
(-0.107353 0.469785 2.72604e-22)
(-0.0661521 0.501386 0)
(-0.0159229 0.514615 -1.67117e-20)
(0.0441555 0.504868 3.34692e-20)
(0.114089 0.468314 -1.67645e-20)
(0.192413 0.403413 1.79363e-20)
(0.276071 0.311216 -1.71619e-20)
(0.360831 0.195444 1.85122e-20)
(0.442674 0.0606592 -1.80179e-20)
(0.519407 -0.0883438 -5.79405e-22)
(0.590178 -0.242881 -1.60234e-20)
(0.651905 -0.386366 1.55709e-20)
(0.699152 -0.49753 -1.11106e-20)
(0.728178 -0.562748 1.04893e-20)
(0.739255 -0.584222 -6.8271e-21)
(0.735442 -0.57538 1.19153e-20)
(0.722076 -0.550115 -5.15263e-21)
(0.702876 -0.521431 -2.46033e-22)
(0.674039 -0.504176 -3.78842e-21)
(0.63022 -0.502816 7.64184e-21)
(0.578591 -0.493845 -3.84859e-21)
(0.541543 -0.433098 2.66712e-22)
(0.539067 -0.294392 5.60101e-21)
(0.572042 -0.0978809 2.89185e-22)
(0.626254 0.104907 -1.00675e-20)
(0.685321 0.27046 8.73769e-21)
(0.736642 0.378053 -3.91918e-21)
(0.776178 0.431605 3.39265e-22)
(0.803605 0.44851 -1.52595e-22)
(0.812531 0.461816 2.71623e-22)
(0.796092 0.489514 0)
(0.760932 0.507098 0)
(0.730226 0.460478 -1.58665e-21)
(0.724451 0.314236 1.10387e-21)
(0.743401 0.106568 1.29186e-21)
(0.779221 -0.106583 2.13794e-23)
(0.812451 -0.256435 -1.65257e-21)
(0.842736 -0.345431 2.66256e-22)
(0.855457 -0.37569 0)
(0.840096 -0.394529 0)
(0.795941 -0.401683 0)
(0.746041 -0.357654 0)
(0.725301 -0.260818 2.80008e-22)
(0.741111 -0.0748678 -1.57179e-22)
(0.781043 0.06554 0)
(0.81465 0.221552 0)
(0.818322 0.305342 0)
(0.790439 0.366015 -9.55411e-23)
(0.771196 0.370106 -7.09999e-24)
(0.77446 0.216837 -8.8435e-23)
(0.798592 0.132356 0)
(0.8227 -0.10528 0)
(0.817166 -0.201281 5.57193e-23)
(0.806075 -0.298214 1.35861e-22)
(0.804951 -0.374603 0)
(0.787353 -0.100125 0)
(-0.170822 0.21532 -1.09055e-21)
(-0.152489 0.273755 -3.91042e-20)
(-0.126686 0.329854 3.63755e-20)
(-0.0921757 0.380058 -3.40713e-20)
(-0.0500745 0.420465 -2.74476e-22)
(0.000825652 0.446824 0)
(0.0628372 0.455141 -3.34565e-20)
(0.134277 0.441133 3.27817e-20)
(0.213828 0.401839 2.67329e-22)
(0.299051 0.336538 5.68915e-22)
(0.386429 0.246753 5.96781e-22)
(0.471944 0.135991 5.96369e-22)
(0.552288 0.00772283 -3.92887e-20)
(0.626506 -0.134489 3.87607e-20)
(0.693683 -0.282503 0)
(0.749128 -0.418296 9.7683e-22)
(0.785999 -0.519718 -2.32322e-20)
(0.801172 -0.574228 2.28846e-20)
(0.797555 -0.585889 0)
(0.78049 -0.569888 0)
(0.755761 -0.540503 -8.95706e-21)
(0.728127 -0.507605 1.63448e-20)
(0.695313 -0.482911 -1.41032e-20)
(0.649587 -0.474538 -3.2675e-23)
(0.592154 -0.467792 1.4016e-20)
(0.542205 -0.422532 -1.59939e-20)
(0.523887 -0.30571 1.68895e-20)
(0.544611 -0.126578 -2.23216e-22)
(0.593158 0.0684369 -8.9755e-21)
(0.652242 0.235933 0)
(0.708408 0.350752 0)
(0.755923 0.412817 1.82402e-21)
(0.791693 0.438849 -2.40281e-21)
(0.806828 0.462373 -7.88367e-24)
(0.795599 0.499206 2.41551e-21)
(0.767028 0.520549 -2.34753e-21)
(0.744399 0.470736 0)
(0.74641 0.317101 4.40185e-22)
(0.770089 0.102192 4.24696e-21)
(0.807074 -0.115216 -7.8616e-21)
(0.836087 -0.265652 3.18311e-21)
(0.860138 -0.351683 2.88696e-22)
(0.867248 -0.37524 -1.86896e-21)
(0.849875 -0.385275 1.42035e-21)
(0.80401 -0.387886 2.54038e-22)
(0.750819 -0.34769 2.41876e-22)
(0.727261 -0.261391 -2.80711e-22)
(0.739565 -0.0842784 0)
(0.779789 0.0539565 0)
(0.811133 0.215691 -8.08866e-22)
(0.815832 0.307466 3.98265e-22)
(0.787826 0.371416 -3.73497e-22)
(0.769544 0.372714 5.98169e-22)
(0.77579 0.214031 8.36531e-22)
(0.801841 0.127474 -1.74416e-22)
(0.831079 -0.106403 3.58746e-22)
(0.824056 -0.199952 -2.82046e-22)
(0.812787 -0.296407 1.30756e-22)
(0.809982 -0.372977 0)
(0.789794 -0.098626 0)
(-0.0852872 0.183547 -6.72883e-20)
(-0.0650047 0.234925 1.74558e-21)
(-0.036994 0.284199 6.20305e-20)
(0.000387625 0.328263 -5.07213e-22)
(0.0474395 0.362584 0)
(0.104249 0.384838 0)
(0.171007 0.38978 -6.52099e-20)
(0.246298 0.373767 -6.06573e-21)
(0.328151 0.334611 1.03462e-19)
(0.413687 0.272001 2.52261e-21)
(0.499429 0.187534 -3.79668e-20)
(0.581892 0.0840572 -3.95587e-20)
(0.658992 -0.0362078 3.96493e-20)
(0.73047 -0.17088 0)
(0.794388 -0.311783 -3.45432e-20)
(0.843736 -0.439205 3.1586e-20)
(0.870216 -0.530616 0)
(0.871785 -0.575289 0)
(0.854108 -0.579192 1.40716e-20)
(0.825022 -0.558236 -2.88825e-21)
(0.790558 -0.526808 -1.01862e-20)
(0.755352 -0.492445 -7.27954e-21)
(0.718921 -0.462528 7.22365e-21)
(0.673124 -0.446306 -6.15475e-21)
(0.613534 -0.438339 -2.42351e-22)
(0.553661 -0.406256 6.05596e-21)
(0.519718 -0.312677 9.02111e-22)
(0.526229 -0.154135 1.03751e-22)
(0.566666 0.0304639 0)
(0.623824 0.198052 6.20324e-21)
(0.683474 0.319146 -6.34683e-21)
(0.737922 0.389825 3.10124e-22)
(0.781262 0.425645 0)
(0.802521 0.459734 -2.66983e-22)
(0.797031 0.505666 4.92444e-21)
(0.775529 0.53123 -1.00461e-20)
(0.760943 0.479846 -2.23425e-21)
(0.770548 0.320956 -1.10694e-21)
(0.798647 0.100158 6.79672e-21)
(0.83667 -0.120653 9.2053e-22)
(0.861787 -0.271658 -5.39624e-21)
(0.879417 -0.355581 4.685e-21)
(0.880657 -0.373812 -3.02949e-24)
(0.861236 -0.37579 1.12609e-21)
(0.814255 -0.373889 -1.3497e-21)
(0.758381 -0.337417 -1.604e-21)
(0.732174 -0.262076 4.77978e-22)
(0.740563 -0.0941852 8.55524e-22)
(0.780603 0.0418376 -1.62513e-21)
(0.809409 0.209272 1.17196e-21)
(0.815192 0.309193 -3.95397e-22)
(0.787093 0.376519 2.98162e-22)
(0.769737 0.375419 3.72644e-22)
(0.778781 0.211136 -1.33419e-21)
(0.806654 0.122266 1.1623e-23)
(0.840831 -0.107501 -4.23723e-22)
(0.832164 -0.198369 0)
(0.820413 -0.294222 -1.28368e-22)
(0.815787 -0.371059 1.00099e-22)
(0.793088 -0.0970292 0)
(0.0313558 0.146571 5.83048e-20)
(0.0524738 0.191242 -1.13102e-19)
(0.0820103 0.2341 5.41737e-20)
(0.120679 0.272455 5.49875e-20)
(0.16874 0.302516 -1.10231e-19)
(0.226167 0.320949 -3.84853e-21)
(0.292447 0.323683 5.78923e-20)
(0.366242 0.307584 6.75544e-20)
(0.44544 0.27079 -6.61945e-20)
(0.527236 0.212976 0)
(0.60856 0.135338 -8.03825e-20)
(0.686633 0.0396703 1.60017e-19)
(0.76041 -0.0719401 -7.96121e-20)
(0.829769 -0.198687 0)
(0.890719 -0.331193 0)
(0.933472 -0.44857 1.00261e-21)
(0.949073 -0.529266 -4.79494e-20)
(0.937479 -0.565208 4.65823e-20)
(0.907045 -0.564015 0)
(0.867712 -0.540958 2.23548e-20)
(0.825653 -0.509499 -3.77058e-20)
(0.784357 -0.475875 2.96306e-20)
(0.744551 -0.443634 -2.46936e-20)
(0.699581 -0.420454 7.30772e-22)
(0.641116 -0.4082 2.0414e-20)
(0.575385 -0.385047 -1.01764e-20)
(0.527143 -0.31388 -4.04569e-22)
(0.517723 -0.178824 -5.79049e-21)
(0.547477 -0.00742067 1.24127e-22)
(0.600559 0.15753 5.75359e-21)
(0.662051 0.283566 3.23548e-22)
(0.722063 0.362641 -4.03104e-21)
(0.772007 0.408531 7.88844e-21)
(0.799247 0.45323 -4.33515e-21)
(0.799887 0.508261 0)
(0.785767 0.538858 -6.70578e-21)
(0.779098 0.487892 6.6931e-21)
(0.795868 0.32589 -7.40132e-21)
(0.828255 0.100633 9.21796e-21)
(0.867474 -0.122817 -9.97799e-22)
(0.889099 -0.27434 0)
(0.900261 -0.356935 -5.92423e-22)
(0.895485 -0.371329 1.24943e-21)
(0.873941 -0.366189 0)
(0.826334 -0.359888 2.21691e-21)
(0.768329 -0.326877 -8.9612e-22)
(0.739664 -0.262678 4.25638e-22)
(0.743777 -0.104346 3.4141e-22)
(0.783245 0.029248 0)
(0.809365 0.202214 0)
(0.816355 0.310416 -1.07091e-21)
(0.788324 0.381295 1.88499e-21)
(0.771934 0.378278 -1.2489e-21)
(0.783534 0.208228 4.79908e-22)
(0.813038 0.116788 9.43833e-22)
(0.851878 -0.108551 4.24122e-22)
(0.841432 -0.196482 -6.54918e-22)
(0.828933 -0.291619 0)
(0.822305 -0.368835 -1.84466e-22)
(0.797164 -0.0953384 6.19246e-24)
(0.167075 0.105716 5.25687e-20)
(0.187674 0.146535 -5.21876e-20)
(0.215376 0.1844 4.1068e-22)
(0.252174 0.217396 -3.75693e-22)
(0.29811 0.243254 4.16985e-22)
(0.35272 0.258841 -4.35909e-22)
(0.41527 0.260646 8.81123e-22)
(0.484542 0.245865 0)
(0.558637 0.212764 -1.03364e-21)
(0.635124 0.160724 1.11061e-21)
(0.711271 0.0902002 1.17515e-21)
(0.785815 0.00259763 -1.26141e-21)
(0.857616 -0.101007 0)
(0.925019 -0.219464 0)
(0.981971 -0.341818 1.0952e-21)
(1.0165 -0.447379 0)
(1.02046 -0.517113 -8.02823e-22)
(0.996583 -0.545843 0)
(0.955413 -0.542088 -2.75582e-20)
(0.907934 -0.519498 4.86169e-20)
(0.860311 -0.489651 -3.69753e-20)
(0.814594 -0.458066 1.60424e-20)
(0.771677 -0.425921 1.03676e-20)
(0.727569 -0.397787 -1.00688e-20)
(0.672694 -0.379451 -8.52692e-21)
(0.605728 -0.360201 8.29341e-21)
(0.546197 -0.308355 0)
(0.520216 -0.198357 2.50612e-22)
(0.53649 -0.0440505 0)
(0.582837 0.115207 0)
(0.644301 0.244449 7.01409e-21)
(0.708179 0.331319 -7.22511e-21)
(0.763602 0.387242 3.91662e-22)
(0.796602 0.442355 4.82127e-22)
(0.803584 0.506477 -5.12515e-22)
(0.796942 0.543126 -6.05919e-21)
(0.797964 0.494832 5.88297e-21)
(0.82154 0.332134 -9.6361e-21)
(0.858079 0.103945 8.36858e-21)
(0.898651 -0.121742 2.03206e-21)
(0.917468 -0.273769 -5.77913e-21)
(0.922323 -0.355719 8.44811e-22)
(0.911474 -0.367807 3.19226e-21)
(0.887711 -0.356611 0)
(0.839854 -0.345999 -8.66667e-22)
(0.780196 -0.316032 1.04395e-21)
(0.749274 -0.26298 -1.39403e-21)
(0.748826 -0.114597 -3.43576e-22)
(0.78742 0.0162046 0)
(0.810837 0.1944 3.4613e-22)
(0.81922 0.310991 -5.9567e-22)