/*--------------------------------*- C++ -*----------------------------------*\
| =========                 |                                                 |
| \\      /  F ield         | OpenFOAM: The Open Source CFD Toolbox           |
|  \\    /   O peration     | Version:  2512                                  |
|   \\  /    A nd           | Website:  www.openfoam.com                      |
|    \\/     M anipulation  |                                                 |
\*---------------------------------------------------------------------------*/
FoamFile
{
    version     2.0;
    format      ascii;
    arch        "LSB;label=32;scalar=64";
    class       surfaceScalarField;
    location    "58.75";
    object      phi;
}
// * * * * * * * * * * * * * * * * * * * * * * * * * * * * * * * * * * * * * //

dimensions      [0 3 -1 0 0 0 0];

oriented        oriented;

internalField   nonuniform List<scalar> 
26232
(
3.55373e-05
0.000973763
-0.0010093
0.000345116
0.00191503
-0.00222461
0.00109699
0.00198982
-0.0027417
0.00244349
0.00124018
-0.00258668
0.00453302
-0.000313682
-0.00177585
0.00751299
-0.00266471
-0.00031526
0.011526
-0.00581023
0.00179719
0.0167003
-0.00974221
0.00456796
0.0231349
-0.0144363
0.00800165
0.0308835
-0.0198427
0.0120941
0.039938
-0.0258807
0.0168262
0.0502179
-0.0324381
0.0221582
0.0615663
-0.0393756
0.0280273
0.0737544
-0.0465354
0.0343473
0.0864946
-0.0537518
0.0410116
0.0994608
-0.0608643
0.0478981
0.112313
-0.0677286
0.0548762
0.124725
-0.0742278
0.061816
0.136411
-0.0802763
0.0685902
0.147144
-0.0858414
0.0751086
0.156775
-0.0908817
0.081251
0.165196
-0.0955363
0.0871151
0.172262
-0.0994851
0.0924186
-0.103679
0.0982795
0.177662
7.62917e-05
0.000897472
0.00053516
0.00145616
0.00157575
0.000949231
0.00338118
-0.000565253
0.00612664
-0.00305914
0.00997499
-0.00651306
0.0150644
-0.0108996
0.0214893
-0.0161671
0.0292799
-0.0222269
0.0383848
-0.0289476
0.0486617
-0.0361576
0.0598807
-0.043657
0.0717388
-0.0512337
0.0838858
-0.0586824
0.0959565
-0.0658225
0.107605
-0.0725126
0.118536
-0.0786602
0.128534
-0.0842256
0.137477
-0.0892194
0.145333
-0.093697
0.152185
-0.0977336
0.158112
-0.101464
0.163468
-0.10484
-0.108455
0.168243
0.000141624
0.000755848
0.0008128
0.000784985
0.00223816
-0.000476134
0.00462416
-0.00295125
0.00815807
-0.00659304
0.0129926
-0.0113476
0.019222
-0.0171291
0.0268569
-0.023802
0.0358043
-0.0311743
0.0458623
-0.0390056
0.0567318
-0.0470271
0.0680446
-0.0549699
0.0794036
-0.0625927
0.0904269
-0.0697058
0.10079
-0.0761854
0.110257
-0.0819797
0.118701
-0.0871041
0.126105
-0.0916296
0.132549
-0.0956636
0.138185
-0.099333
0.143204
-0.102752
0.147792
-0.106052
0.152157
-0.109206
-0.112631
0.156333
0.000230274
0.000525574
0.00117276
-0.000157502
0.00306807
-0.00237144
0.00613059
-0.00601376
0.0105335
-0.0109959
0.0163795
-0.0171936
0.0236687
-0.0244183
0.0322759
-0.0324092
0.0419474
-0.0408458
0.052323
-0.0493813
0.0629802
-0.0576843
0.073489
-0.0654787
0.0834682
-0.0725719
0.0926299
-0.0788674
0.100806
-0.0843619
0.107955
-0.0891286
0.114145
-0.0932933
0.119521
-0.0970058
0.124272
-0.100415
0.128589
-0.10365
0.132643
-0.106806
0.136554
-0.109963
0.140451
-0.113103
-0.116491
0.144311
0.000339507
0.000186067
0.00160265
-0.00142064
0.00403127
-0.00480006
0.00782316
-0.00980565
0.0130996
-0.0162723
0.0198644
-0.0239584
0.0279741
-0.032528
0.0371352
-0.0415702
0.0469359
-0.0506466
0.0569066
-0.0593519
0.0665916
-0.0673692
0.0756151
-0.0745023
0.0837273
-0.080684
0.0908206
-0.0859607
0.0969194
-0.0904607
0.102148
-0.0943571
0.106686
-0.0978316
0.110728
-0.101048
0.114447
-0.104135
0.117982
-0.107184
0.121429
-0.110253
0.124846
-0.11338
0.128293
-0.11655
-0.119921
0.131723
0.000466191
-0.000280125
0.00208618
-0.00304064
0.00508126
-0.00779514
0.00959862
-0.014323
0.0156616
-0.0223354
0.0231276
-0.0314243
0.0316792
-0.0410796
0.0408629
-0.050754
0.0501653
-0.059949
0.0591035
-0.0682901
0.0673021
-0.0755678
0.0745383
-0.0817385
0.080749
-0.0868948
0.0860046
-0.0912162
0.0904625
-0.0949187
0.0943172
-0.0982118
0.0977571
-0.101272
0.100939
-0.104229
0.103978
-0.107173
0.106951
-0.110157
0.109907
-0.11321
0.112873
-0.116346
0.115882
-0.119559
-0.122932
0.118894
0.000606738
-0.000886862
0.00260296
-0.00503686
0.00615981
-0.011352
0.0113324
-0.0194956
0.0180004
-0.0290033
0.0258437
-0.0392676
0.034379
-0.049615
0.0430503
-0.0594252
0.0513386
-0.0682373
0.0588541
-0.0758056
0.0653832
-0.0820969
0.0708875
-0.0872428
0.0754642
-0.0914715
0.0792896
-0.0950417
0.0825637
-0.0981927
0.0854689
-0.101117
0.0881495
-0.103952
0.0907071
-0.106787
0.0932075
-0.109674
0.0956907
-0.11264
0.0981806
-0.1157
0.10069
-0.118855
0.103234
-0.122103
-0.125479
0.10578
0.000756214
-0.00164308
0.00312692
-0.00740756
0.00719688
-0.015422
0.0128861
-0.0251849
0.0198972
-0.0360144
0.0277351
-0.0471055
0.0358026
-0.0576825
0.0435321
-0.0671547
0.0504979
-0.0752031
0.056472
-0.0817797
0.0614192
-0.0870441
0.0654481
-0.0912716
0.0687446
-0.094768
0.0715122
-0.0978093
0.0739308
-0.100611
0.0761383
-0.103324
0.078229
-0.106043
0.0802624
-0.10882
0.0822736
-0.111685
0.0842826
-0.11465
0.0863012
-0.117718
0.0883359
-0.12089
0.0903945
-0.124162
-0.12754
0.0924555
0.00090755
-0.00255063
0.00362583
-0.0101258
0.00811428
-0.0199104
0.0141224
-0.0311929
0.0211685
-0.0430606
0.0286234
-0.0545603
0.0358587
-0.0649177
0.0423872
-0.0736833
0.0479385
-0.0807543
0.0524571
-0.0862983
0.0560477
-0.0906348
0.0588999
-0.0941238
0.0612212
-0.0970893
0.0631932
-0.0997813
0.0649531
-0.102371
0.0665928
-0.104964
0.0681688
-0.107619
0.0697137
-0.110365
0.0712456
-0.113217
0.0727752
-0.116179
0.0743085
-0.119251
0.0758497
-0.122431
0.0774019
-0.125714
-0.12909
0.0789525
0.00105148
-0.00360211
0.0040633
-0.0131377
0.00883432
-0.0246814
0.0149259
-0.0372845
0.0216973
-0.0498321
0.0284553
-0.0613183
0.0346262
-0.0710886
0.0398644
-0.0789215
0.0440668
-0.0849567
0.0473167
-0.0895482
0.0498002
-0.0931182
0.0517291
-0.0960528
0.0532912
-0.0986514
0.054628
-0.101118
0.0558336
-0.103577
0.0569648
-0.106095
0.0580534
-0.108708
0.0591172
-0.111429
0.0601659
-0.114266
0.0612058
-0.117219
0.0622404
-0.120286
0.0632724
-0.123463
0.0643022
-0.126744
-0.130113
0.0653245
0.0011779
-0.00478
0.00440431
-0.0163641
0.00929253
-0.0295696
0.0152227
-0.0432146
0.0214485
-0.0560579
0.0272922
-0.067162
0.0322987
-0.0760951
0.036283
-0.0829058
0.0392836
-0.0879573
0.0414717
-0.0917363
0.0430621
-0.0947085
0.0442518
-0.0972425
0.0451916
-0.0995913
0.0459822
-0.101909
0.046684
-0.104279
0.0473303
-0.106742
0.0479389
-0.109316
0.0485197
-0.11201
0.0490787
-0.114825
0.04962
-0.11776
0.0501461
-0.120812
0.050658
-0.123975
0.0511544
-0.12724
-0.130592
0.0516336
0.00127991
-0.00605992
0.00462331
-0.0197075
0.00944896
-0.0343953
0.0149895
-0.0487551
0.0204636
-0.0615321
0.0252768
-0.0719753
0.0291225
-0.0799407
0.0319611
-0.0857445
0.0339298
-0.089926
0.0352393
-0.0930459
0.0360976
-0.0955668
0.0366692
-0.0978141
0.0370663
-0.0999883
0.0373562
-0.102199
0.037576
-0.104498
0.0377448
-0.10691
0.0378727
-0.109444
0.0379657
-0.112103
0.0380282
-0.114887
0.0380633
-0.117795
0.0380731
-0.120822
0.0380586
-0.12396
0.0380178
-0.127199
0.0379524
-0.130526
-0.000178306
0.00106342
-0.000885113
-0.000632264
0.0027256
-0.00227164
-0.00131067
0.00406339
-0.00338498
-0.00217192
0.00512561
-0.00426436
-0.00318101
0.00595927
-0.00495017
-0.00430869
0.00661339
-0.00548572
-0.00553084
0.00713535
-0.0059132
-0.00682792
0.00756662
-0.00626953
-0.00818432
0.00793988
-0.00658349
-0.00958752
0.00827743
-0.00687423
-0.0110273
0.00859101
-0.00715124
-0.0124947
0.00888276
-0.00741532
-0.0139814
0.00914671
-0.00766001
-0.0154787
0.00937043
-0.00787317
-0.0169768
0.00953649
-0.00803831
-0.018465
0.0096237
-0.00813554
-0.0199308
0.00960812
-0.00814231
-0.021361
0.00946401
-0.00803384
-0.0227424
0.00916507
-0.00778368
-0.0240641
0.00868612
-0.00736443
-0.0253202
0.00800497
-0.00674882
-0.0265149
0.00710368
-0.00590903
-0.0276754
0.00597216
-0.00481167
0.00461951
-0.0288736
-0.00342122
-0.000134554
0.00119797
-0.000487658
0.0030787
-0.00102576
0.00460149
-0.00171866
0.00581852
-0.0025384
0.00677901
-0.00345928
0.00753428
-0.00445814
0.00813421
-0.00551452
0.008623
-0.0066107
0.00903605
-0.0077315
0.00939823
-0.00886392
0.00972343
-0.00999653
0.0100154
-0.0111188
0.010269
-0.0122202
0.0104719
-0.0132897
0.010606
-0.0143148
0.0106488
-0.0152809
0.0105743
-0.0161712
0.0103544
-0.0169665
0.00996027
-0.0176455
0.00936518
-0.0181881
0.00854757
-0.01858
0.00749555
-0.0188281
0.00622024
0.0047931
-0.0190017
-8.56183e-05
0.00128359
-0.000323312
0.0033164
-0.000696733
0.00497491
-0.00118651
0.00630829
-0.00177117
0.00736367
-0.0024281
0.0081912
-0.00313443
0.00884055
-0.0038679
0.00935647
-0.0046074
0.00977555
-0.00533333
0.0101242
-0.00602768
0.0104178
-0.00667377
0.0106615
-0.00725578
0.010851
-0.00775811
0.0109742
-0.00816464
0.0110125
-0.00845779
0.0109419
-0.00861758
0.0107341
-0.00862052
0.0103573
-0.00843861
0.00977837
-0.00803726
0.00896383
-0.00737598
0.0078863
-0.0064116
0.00653117
-0.00510499
0.00491363
0.00313841
-0.00345031
-3.68465e-05
0.00132044
-0.000155524
0.00343508
-0.000353944
0.00517333
-0.000621441
0.00657579
-0.00094166
0.00768389
-0.00129416
0.00854371
-0.00165574
0.00920212
-0.00200156
0.00970229
-0.00230617
0.0100802
-0.00254413
0.0103621
-0.00269048
0.0105641
-0.00272079
0.0106918
-0.00261092
0.0107411
-0.00233667
0.0106999
-0.0018731
0.0105489
-0.00119392
0.0102627
-0.000270644
0.00981078
0.000928499
0.00915816
0.00244057
0.0082663
0.00430864
0.00709576
0.00658565
0.0056093
0.00933551
0.0037813
0.0126329
0.0016162
-0.000787368
0.0165587
6.59747e-06
0.00131384
-1.46813e-06
0.00344314
-3.07006e-05
0.00520256
-7.54842e-05
0.00662057
-0.000122309
0.00773071
-0.000151572
0.00857297
-0.000138931
0.00918948
-5.65054e-05
0.00961987
0.000126086
0.00989757
0.00044087
0.0100473
0.000921037
0.010084
0.00160057
0.0100122
0.00251427
0.0098274
0.00369801
0.0095162
0.00518904
0.00905791
0.00702649
0.00842529
0.00925173
0.00758554
0.0119086
0.00650129
0.0150432
0.00513175
0.0187084
0.0034305
0.0229606
0.00135708
0.0278694
-0.00112748
0.033494
-0.00400839
-0.00737755
0.0400842
3.94004e-05
0.00127444
0.000122603
0.00335994
0.000241496
0.00508367
0.000401345
0.00646072
0.000615894
0.00751617
0.000905789
0.00828307
0.00129757
0.0087977
0.00182278
0.00909466
0.00251714
0.00920321
0.00341985
0.00914463
0.00457301
0.0089308
0.00602136
0.00856388
0.00781214
0.00803662
0.00999516
0.00733318
0.012623
0.00643011
0.0157508
0.00529744
0.0194372
0.0038991
0.023743
0.00219553
0.0287211
0.000153693
0.0344481
-0.00229657
0.0409721
-0.00516692
0.0483731
-0.00852847
0.0566291
-0.0122644
-0.0169359
0.0661874
5.86141e-05
0.00121583
0.000205845
0.00321271
0.000440283
0.00484923
0.000772285
0.00612872
0.00121955
0.0070689
0.0018063
0.00769632
0.00256305
0.00804094
0.00352633
0.00813138
0.00473835
0.00799119
0.00624666
0.00763632
0.00810377
0.00707369
0.0103669
0.00630071
0.0130979
0.00530563
0.0163628
0.00406828
0.0202319
0.00256103
0.0247773
0.000752083
0.0300761
-0.00139969
0.0362025
-0.00393092
0.0432376
-0.00688136
0.0512337
-0.0102927
0.0602418
-0.014175
0.0703451
-0.0186317
0.0813822
-0.0233015
-0.0294944
0.0939407
6.30744e-05
0.00115275
0.000244702
0.00303108
0.000558364
0.00453557
0.00102506
0.00566203
0.00167066
0.00642329
0.00252648
0.00684051
0.00363008
0.00693735
0.00502594
0.00673552
0.00676581
0.00625132
0.00890878
0.00549335
0.0115211
0.00446133
0.014676
0.00314586
0.0184524
0.00152918
0.0229341
-0.000413382
0.0282092
-0.00271408
0.034366
-0.00540476
0.0414873
-0.0085209
0.0496502
-0.0120939
0.0589172
-0.0161484
0.0693306
-0.0207061
0.080889
-0.0257334
0.0936303
-0.031373
0.107288
-0.0369595
-0.0445371
0.122331
5.49089e-05
0.00109784
0.000246215
0.00283977
0.000609646
0.00417214
0.00118225
0.00508943
0.00200296
0.00560259
0.00311494
0.00572852
0.00456783
0.00548446
0.00641932
0.00488404
0.00873608
0.00393456
0.011594
0.00263544
0.0150773
0.000977967
0.0192777
-0.00105446
0.024291
-0.00348414
0.0302143
-0.00633673
0.0371392
-0.00963893
0.0451485
-0.0134141
0.0543067
-0.0176791
0.0646539
-0.022441
0.0761966
-0.0276911
0.0889017
-0.0334112
0.102684
-0.0395156
0.117436
-0.0461248
0.132913
-0.052437
-0.060718
0.149094
3.96615e-05
0.00105818
0.000228861
0.00265057
0.000631387
0.00376961
0.00130554
0.00441527
0.00230892
0.0045992
0.00370283
0.00433461
0.00555565
0.00363164
0.007945
0.00249469
0.0109584
0.000921203
0.014692
-0.00109823
0.0192484
-0.00357841
0.0247309
-0.00653698
0.0312379
-0.00999112
0.0388548
-0.0139536
0.0476449
-0.0184291
0.0576411
-0.0234103
0.0688371
-0.0288752
0.0811813
-0.0347852
0.0945729
-0.0410826
0.108859
-0.0476976
0.123848
-0.0545042
0.139256
-0.0615328
0.154927
-0.068108
-0.075996
0.170205
2.57827e-05
0.0010324
0.000220662
0.00245569
0.000680338
0.00330993
0.00148922
0.00360639
0.00272959
0.00335883
0.00448753
0.00257667
0.00685655
0.00126262
0.00993866
-0.000587421
0.0138429
-0.00298308
0.0186803
-0.00593555
0.0245562
-0.00945432
0.0315611
-0.013542
0.0397596
-0.0181895
0.0491787
-0.0233728
0.0597993
-0.0290496
0.0715484
-0.0351594
0.0842964
-0.0416232
0.0978591
-0.048348
0.112003
-0.0552263
0.126463
-0.0621579
0.140962
-0.0690027
0.155191
-0.0757621
0.169052
-0.0819689
-0.0885942
0.18165
2.30983e-05
0.000254186
0.000822426
0.00184214
0.00342513
0.00568654
0.00874634
0.0127269
0.0177454
0.023904
0.0312759
0.0398921
0.0497298
0.0607043
0.0726663
0.085405
0.0986581
0.112126
0.12549
0.138441
0.150689
0.162042
0.172492
0.182177
-0.029336
0.00239503
-0.00193265
-0.0296962
-0.00169577
0.00205598
-0.0299304
-0.00686017
0.00709435
-0.0300125
-0.013111
0.0131931
-0.0299149
-0.0204598
0.0203621
-0.0296122
-0.0288562
0.0285536
-0.0290817
-0.038167
0.0376364
-0.0282997
-0.048157
0.047375
-0.0272403
-0.058484
0.0574246
-0.0258578
-0.0686952
0.0673128
-0.0240541
-0.0782298
0.076426
-0.0216686
-0.0863839
0.0839983
-0.0184808
-0.0922831
0.0890953
-0.0142271
-0.0949269
0.0906732
-0.00865572
-0.0931416
0.0875702
-0.00165134
-0.0857233
0.078719
0.0070779
-0.0718957
0.0631665
0.0169301
-0.0507184
0.0408661
0.027567
-0.0227141
0.0120771
0.038382
0.0109184
-0.0217334
0.0493032
0.0473939
-0.0583152
0.0596995
0.0838208
-0.0942171
0.0686747
0.116506
-0.125481
0.0750469
0.142955
-0.149327
0.077548
0.163316
-0.165817
0.0755838
0.180261
-0.178296
0.070644
0.195366
-0.190427
0.0666983
0.203717
-0.199772
0.0677491
0.193871
-0.194921
0.0745805
0.156596
-0.163427
0.0853618
0.0923644
-0.103146
0.098097
0.0106722
-0.0234075
0.110632
-0.0723308
0.0597961
0.120777
-0.141605
0.13146
0.12728
-0.189551
0.183047
0.13062
-0.215377
0.212038
0.130011
-0.222942
0.22355
0.123177
-0.227191
0.234026
0.11171
-0.239994
0.251461
0.102061
-0.244224
0.253873
0.0996286
-0.206224
0.208657
0.104582
-0.116112
0.111159
0.113396
0.000427832
-0.00924134
0.122389
0.109215
-0.118208
0.129817
0.184824
-0.192252
0.13307
0.224698
-0.227951
0.128871
0.246998
-0.242799
0.119017
0.267148
-0.257293
0.111326
0.259558
-0.251867
0.111499
0.195709
-0.195883
0.11841
0.0863328
-0.0932441
0.127248
-0.0290816
0.0202435
0.13511
-0.109856
0.101994
0.140332
-0.15982
0.154598
0.141608
-0.163448
0.162172
0.138437
-0.166069
0.16924
0.133749
-0.143833
0.148522
0.131627
-0.116864
0.118985
0.135448
-0.0767554
0.0729345
0.00355549
-0.00807274
-0.0193966
0.00278993
-0.0197729
-0.00131942
-0.0201294
-0.0065037
-0.0204473
-0.0127931
-0.0207259
-0.0201812
-0.0209676
-0.0286146
-0.0211788
-0.0379558
-0.0213698
-0.047966
-0.021549
-0.0583047
-0.0217045
-0.0685398
-0.0217646
-0.0781696
-0.0215827
-0.0865658
-0.0209116
-0.0929542
-0.0193379
-0.0965006
-0.0163915
-0.096088
-0.0116565
-0.0904583
-0.0049928
-0.0785595
0.00391298
-0.0596241
0.0147772
-0.0335783
0.0264141
-0.000718484
0.0385373
0.0352708
0.0502524
0.0721057
0.0605178
0.10624
0.0680402
0.135432
0.071735
0.159621
0.0716576
0.180338
0.0699377
0.197086
0.0702079
0.203447
0.0749273
0.189151
0.0836207
0.147903
0.0945313
0.0814538
0.106091
-0.000887579
0.116971
-0.0832104
0.125309
-0.149943
0.129895
-0.194137
0.131475
-0.216957
0.130142
-0.221609
0.123377
-0.220426
0.111478
-0.228095
0.100617
-0.233363
0.0970985
-0.202706
0.101629
-0.120643
0.110753
-0.00869652
0.120742
0.099226
0.129156
0.17641
0.132468
0.221386
0.127804
0.251661
0.11815
0.276802
0.111481
0.266227
0.112741
0.19445
0.120358
0.0787162
0.129319
-0.0380427
0.13694
-0.117477
0.14192
-0.164801
0.143687
-0.165216
0.141178
-0.16356
0.136231
-0.138886
0.132884
-0.113517
0.134803
-0.0786747
-2.52033e-05
-0.00328156
0.00262118
-0.0034175
-0.00118347
-0.00363355
-0.00628766
-0.00394458
-0.0124821
-0.00438337
-0.0197424
-0.0049755
-0.0280224
-0.0057553
-0.037176
-0.00676556
-0.0469557
-0.00803899
-0.0570313
-0.00958756
-0.0669912
-0.0114149
-0.0763423
-0.0134256
-0.0845551
-0.0154156
-0.0909642
-0.0168422
-0.0950739
-0.0170685
-0.0958618
-0.0154587
-0.0920681
-0.011487
-0.0825312
-0.00494728
-0.0661639
0.00450907
-0.0430346
0.0160724
-0.0122818
0.0287585
0.0225847
0.041454
0.0594102
0.0529014
0.094793
0.0617625
0.126571
0.0672317
0.154152
0.0698701
0.1777
0.0719664
0.19499
0.076323
0.199091
0.0839999
0.181474
0.0938184
0.138084
0.104272
0.0710006
0.114376
-0.0109919
0.123279
-0.0921133
0.129674
-0.156339
0.132442
-0.196905
0.132305
-0.216821
0.130198
-0.219502
0.123758
-0.213986
0.11186
-0.216197
0.0999336
-0.221437
0.0951705
-0.197943
0.0991333
-0.124606
0.10852
-0.0180835
0.119433
0.0883136
0.128612
0.167231
0.131855
0.218143
0.126892
0.256624
0.117664
0.28603
0.112046
0.271845
0.114271
0.192224
0.122473
0.0705146
0.131525
-0.047095
0.138872
-0.124824
0.143442
-0.16937
0.14549
-0.167264
0.143693
-0.161763
0.138887
-0.13408
0.134699
-0.109328
0.134751
-0.0787268
-0.0025905
0.0170342
0.00214572
0.0173483
-0.00149754
0.0174533
-0.00639273
0.017376
-0.0124047
0.0170495
-0.0194159
0.0164226
-0.0273955
0.0154393
-0.0361926
0.014021
-0.0455375
0.0120737
-0.055084
0.00948273
-0.0644002
0.00615079
-0.0730104
0.00211952
-0.0805238
-0.0021519
-0.0866928
-0.00639603
-0.0908298
-0.00989204
-0.0923657
-0.0118127
-0.0901474
-0.0114128
-0.082931
-0.00787024
-0.0697065
-0.00137694
-0.0495279
0.0088707
-0.0225295
0.0211097
0.0103457
0.0341479
0.0463719
0.0465287
0.0824123
0.056919
0.116181
0.0646988
0.146372
0.0705916
0.171807
0.0765785
0.189003
0.0844832
0.191186
0.0942933
0.171664
0.104577
0.1278
0.114172
0.0614055
0.122624
-0.0194436
0.129419
-0.0989081
0.133778
-0.160698
0.134829
-0.197956
0.133082
-0.215074
0.130095
-0.216515
0.124108
-0.207998
0.112695
-0.204785
0.0999961
-0.208738
0.0938961
-0.191843
0.0971629
-0.127872
0.106742
-0.0276628
0.118439
0.076617
0.128142
0.157528
0.131261
0.215025
0.126203
0.261682
0.117584
0.294649
0.113
0.276429
0.11605
0.189174
0.124693
0.061872
0.133786
-0.0561884
0.14086
-0.131897
0.144926
-0.173436
0.147045
-0.169383
0.145914
-0.160632
0.141578
-0.129744
0.136965
-0.104716
0.135323
-0.0770848
-0.0041389
0.0407931
0.0014368
0.0415032
-0.00220767
0.0419843
-0.00687385
0.0422007
-0.0126211
0.0420722
-0.0192874
0.0415422
-0.0268655
0.0405523
-0.0352027
0.0390128
-0.043998
0.0367911
-0.0528623
0.0337403
-0.0613495
0.0297453
-0.0690154
0.0247309
-0.0755094
0.0186461
-0.080608
0.0118402
-0.0840239
0.00491275
-0.0854383
-0.000828211
-0.0844065
-0.00406687
-0.0796924
-0.00421953
-0.0695538
-0.00103074
-0.0527167
0.00656793
-0.0301281
0.0172506
-0.000336895
0.0297469
0.0338756
0.0425681
0.0695911
0.054373
0.104376
0.0645705
0.136174
0.0737274
0.16265
0.0832346
0.179496
0.0939553
0.180465
0.105146
0.160474
0.115316
0.117631
0.123803
0.0529181
0.130531
-0.0261715
0.135222
-0.103599
0.137489
-0.162964
0.136901
-0.197368
0.133739
-0.211912
0.129815
-0.21259
0.124281
-0.202465
0.113799
-0.194303
0.100739
-0.195678
0.093282
-0.184386
0.0957123
-0.130303
0.105402
-0.037352
0.117682
0.0643366
0.127692
0.147518
0.130706
0.212011
0.125774
0.266614
0.117906
0.302517
0.114311
0.280024
0.118052
0.185432
0.126986
0.0529383
0.136041
-0.0652442
0.142842
-0.138697
0.146384
-0.176979
0.148391
-0.171389
0.147805
-0.160047
0.144171
-0.12611
0.139551
-0.100095
0.136522
-0.0740565
-0.00475653
0.0669875
0.000636751
0.0678908
-0.00311099
0.0686286
-0.00761164
0.0690201
-0.0130127
0.0689794
-0.0192467
0.0684587
-0.0263448
0.0673758
-0.0341198
0.0656394
-0.0422616
0.0631668
-0.0503897
0.0598672
-0.0580498
0.0556274
-0.0647755
0.0503055
-0.0701875
0.0437595
-0.074062
0.0360474
-0.0763118
0.027574
-0.0769649
0.0191049
-0.0759373
0.011835
-0.0724225
0.00739862
-0.0651174
0.00700385
-0.052322
0.010746
-0.0338703
0.0186673
-0.00825817
0.0295776
0.0229652
0.0420782
0.0570905
0.0547962
0.0916581
0.0669965
0.123974
0.0788766
0.15077
0.0911543
0.167218
0.103901
0.167719
0.115871
0.148504
0.125587
0.107914
0.132789
0.045716
0.137839
-0.0312206
0.140517
-0.106278
0.140697
-0.163144
0.138531
-0.195203
0.134186
-0.207567
0.129332
-0.207735
0.124136
-0.197269
0.114932
-0.185099
0.102033
-0.182778
0.093279
-0.175632
0.0946728
-0.131697
0.104338
-0.047017
0.117011
0.0516631
0.127188
0.13734
0.130195
0.209004
0.125616
0.271194
0.118606
0.309527
0.115941
0.282689
0.120259
0.181114
0.129339
0.0438587
0.138253
-0.0741584
0.144759
-0.145204
0.147806
-0.180027
0.149568
-0.173151
0.149366
-0.159844
0.146556
-0.1233
0.142304
-0.0958433
0.138307
-0.0700591
-0.00461783
0.0947116
-0.000134076
0.0953965
-0.00379594
0.0959294
-0.00814452
0.0960845
-0.0131678
0.0957868
-0.018949
0.0949735
-0.0255315
0.0935479
-0.0326942
0.0914338
-0.0401474
0.088588
-0.0475439
0.0849786
-0.0544405
0.080565
-0.0603619
0.0752693
-0.0648918
0.0689542
-0.0677469
0.0614797
-0.0688374
0.0528394
-0.0683246
0.0433578
-0.0664557
0.0340156
-0.0630803
0.026316
-0.0574178
0.0218902
-0.0478962
0.0215353
-0.0335153
0.0258933
-0.0126162
0.0342941
0.0145644
0.0455895
0.0457952
0.0584098
0.0788379
0.0717995
0.110584
0.0854938
0.137076
0.09957
0.153142
0.113497
0.153791
0.125726
0.136275
0.134862
0.0987776
0.140909
0.0396697
0.144373
-0.0346855
0.145146
-0.10705
0.143296
-0.161294
0.139614
-0.191521
0.134324
-0.202278
0.12864
-0.202051
0.123589
-0.192218
0.115844
-0.177355
0.10369
-0.170623
0.0938218
-0.165764
0.0938879
-0.131763
0.103297
-0.0564265
0.116219
0.0387419
0.126542
0.127017
0.129719
0.205827
0.125718
0.275195
0.119642
0.315602
0.117846
0.284484
0.122657
0.176303
0.131736
0.0347806
0.140398
-0.0828207
0.146561
-0.151367
0.149167
-0.182632
0.150611
-0.174596
0.150618
-0.159851
0.148656
-0.121338
0.145073
-0.0922597
0.14059
-0.0655761
-0.0039711
0.12251
-0.000312799
0.122563
-0.00384904
0.122444
-0.00802578
0.121924
-0.012648
0.120974
-0.0179985
0.119513
-0.0240703
0.11743
-0.030612
0.114668
-0.0373845
0.111212
-0.0440884
0.107081
-0.0503093
0.102311
-0.0555919
0.0969347
-0.0595157
0.0909351
-0.0617473
0.084203
-0.0621052
0.0765408
-0.0606624
0.0678166
-0.0577315
0.0583477
-0.0536115
0.0491305
-0.0482005
0.041808
-0.0405738
0.0378104
-0.0295177
0.0383852
-0.013191
0.0436472
0.00930241
0.0529069
0.0365355
0.0649147
0.06683
0.078513
0.096986
0.0929847
0.122604
0.107868
0.138259
0.122188
0.139472
0.134207
0.124255
0.142683
0.0903017
0.147755
0.0345979
0.149876
-0.0368066
0.1489
-0.106074
0.145179
-0.157573
0.140066
-0.186408
0.134043
-0.196255
0.127715
-0.195722
0.122608
-0.187112
0.116306
-0.171052
0.105458
-0.159775
0.0948377
-0.155144
0.0932591
-0.130184
0.102031
-0.0651988
0.115082
0.0256915
0.125648
0.116451
0.12924
0.202235
0.126037
0.278399
0.120955
0.320685
0.119975
0.285464
0.125195
0.171084
0.134168
0.0258078
0.142457
-0.09111
0.148209
-0.157119
0.15043
-0.184853
0.151538
-0.175704
0.151604
-0.159917
0.15043
-0.120163
0.147714
-0.0895436
0.143241
-0.0611039
-0.00311478
0.148262
0.000519351
0.147415
-0.00300242
0.146255
-0.00686559
0.144706
-0.0110986
0.142781
-0.0160736
0.140375
-0.0216641
0.137381
-0.0276184
0.133764
-0.0337671
0.129533
-0.0398574
0.124738
-0.0455142
0.119469
-0.0503236
0.113842
-0.0538883
0.107957
-0.0558621
0.101846
-0.0559947
0.0953987
-0.054215
0.088353
-0.0506858
0.0804956
-0.0457541
0.0720245
-0.0397294
0.0639097
-0.032459
0.0576232
-0.0232312
0.0549384
-0.0105061
0.0567798
0.00746097
0.0633097
0.0300056
0.0736369
0.0565028
0.086502
0.0841208
0.100788
0.108318
0.115593
0.123453
0.129624
0.125441
0.141074
0.112806
0.1489
0.0824751
0.153225
0.0302738
0.154172
-0.0377537
0.151601
-0.103503
0.146204
-0.152177
0.139778
-0.179981
0.133193
-0.18967
0.126468
-0.188997
0.121168
-0.181812
0.116124
-0.166008
0.107034
-0.150686
0.0962128
-0.144323
0.0927831
-0.126754
0.10041
-0.0728259
0.113422
0.0126795
0.1244
0.105473
0.128714
0.19792
0.126535
0.280578
0.122478
0.324742
0.122254
0.285688
0.127826
0.165512
0.136591
0.0170431
0.144404
-0.0989236
0.149669
-0.162383
0.151555
-0.18674
0.152352
-0.176501
0.152371
-0.159936
0.15187
-0.119663
0.15011
-0.0877836
0.146103
-0.0570975
-0.00236479
0.168503
0.00222118
0.166771
-0.00127089
0.164522
-0.00461645
0.161929
-0.00850575
0.159
-0.0131441
0.15561
-0.0182741
0.151689
-0.0236978
0.147231
-0.0293084
0.14226
-0.0348865
0.136849
-0.0401035
0.131122
-0.044597
0.125239
-0.0480053
0.119368
-0.0499904
0.113648
-0.0502754
0.108133
-0.0486991
0.102707
-0.04526
0.0970659
-0.0401133
0.0908951
-0.0335585
0.0842795
-0.0258434
0.0779536
-0.0169054
0.0735106
-0.00606309
0.0724873
0.00848424
0.0759742
0.0265187
0.0838645
0.0486126
0.0951283
0.072857
0.108404
0.0950431
0.122424
0.109433
0.135647
0.112218
0.146313
0.102139
0.153618
0.0751707
0.157386
0.026506
0.157249
-0.0376167
0.153137
-0.0993906
0.146246
-0.145286
0.138656
-0.172392
0.131637
-0.18265
0.124787
-0.182148
0.119262
-0.176286
0.115177
-0.161923
0.108113
-0.143622
0.0977775
-0.133987
0.0925458
-0.121523
0.0984398
-0.0787198
0.111156
-3.70316e-05
0.122707
0.0939219
0.128041
0.192587
0.127096
0.281522
0.12412
0.327718
0.124621
0.285187
0.130494
0.159638
0.138963
0.00857479
0.14621
-0.106171
0.150919
-0.167092
0.152508
-0.188329
0.153043
-0.177036
0.152962
-0.159855
0.153
-0.1197
0.152182
-0.0869659
0.149011
-0.0539261
-0.00201886
0.179762
0.0041088
0.177437
0.00105465
0.174598
-0.00177745
0.1714
-0.00530746
0.167811
-0.00955535
0.163754
-0.0142167
0.159211
-0.0191549
0.154193
-0.0242904
0.148739
-0.0294333
0.142943
-0.034307
0.136944
-0.0385987
0.130924
-0.041985
0.125088
-0.0441538
0.119654
-0.0448419
0.114815
-0.0438603
0.110588
-0.0410327
0.106779
-0.0363045
0.10304
-0.029819
0.0990515
-0.0218553
0.0948198
-0.0126737
0.0912461
-0.00248933
0.0889987
0.0107316
0.0900977
0.0254197
0.0952867
0.0434236
0.104222
0.0639213
0.115698
0.0835679
0.128268
0.0968623
0.140254
0.100231
0.150097
0.092297
0.157137
0.0681306
0.160508
0.0231353
0.159327
-0.0364365
0.153735
-0.0937982
0.145584
-0.137135
0.137062
-0.16387
0.129687
-0.175275
0.122904
-0.175365
0.117165
-0.170548
0.113621
-0.158378
0.108563
-0.138564
0.0993744
-0.124799
0.092667
-0.114815
0.0962914
-0.0823442
0.1083
-0.0120454
0.120507
0.0817146
0.127193
0.185902
0.127732
0.280983
0.125837
0.329613
0.127003
0.284021
0.133206
0.153435
0.141242
0.000539531
0.147871
-0.1128
0.151969
-0.17119
0.153282
-0.189642
0.153609
-0.177363
0.153421
-0.159667
0.153863
-0.120141
0.153893
-0.0869964
0.15181
-0.0518429
-0.00232365
0.180652
0.00563371
0.178155
0.00355208
0.175577
0.00079986
0.172558
-0.0022879
0.16899
-0.00598728
0.164917
-0.010144
0.16037
-0.0146077
0.155369
-0.01929
0.149978
-0.0240422
0.144317
-0.0286455
0.138551
-0.0328328
0.132878
-0.0363121
0.127507
-0.0387823
0.122628
-0.039963
0.118389
-0.0396218
0.114901
-0.0375446
0.112198
-0.0336015
0.110155
-0.0277762
0.108454
-0.0201539
0.106743
-0.010963
0.104696
-0.000442014
0.103734
0.0116932
0.104272
0.0248822
0.107685
0.0400102
0.114344
0.0572628
0.123621
0.0742906
0.13428
0.0862033
0.144782
0.0897294
0.153818
0.0832609
0.160399
0.06155
0.163185
0.0203495
0.16039
-0.0336415
0.153395
-0.0868035
0.144446
-0.128186
0.135443
-0.154867
0.127843
-0.167676
0.121216
-0.168738
0.115308
-0.16464
0.111855
-0.154925
0.108475
-0.135184
0.100886
-0.117209
0.0932435
-0.107173
0.0944073
-0.083508
0.105026
-0.0226638
0.117716
0.0690244
0.125951
0.177667
0.128167
0.278767
0.127409
0.330371
0.129377
0.282053
0.135897
0.146915
0.143497
-0.00705999
0.149386
-0.118689
0.152848
-0.174652
0.153883
-0.190678
0.154047
-0.177527
0.153779
-0.159399
0.154511
-0.120874
0.155248
-0.087733
0.15438
-0.0509747
-0.0034474
0.200938
0.00682842
-0.202132
0.200265
0.00422493
0.199289
0.001776
0.198194
-0.00119296
0.196875
-0.0046691
0.195194
-0.00846229
0.193105
-0.0125193
0.190539
-0.0167241
0.187436
-0.0209388
0.183776
-0.0249853
0.179583
-0.0286395
0.174918
-0.0316475
0.169878
-0.0337421
0.164581
-0.0346658
0.15915
-0.0341912
0.153712
-0.0321062
0.148367
-0.0282565
0.143151
-0.0225604
0.138021
-0.0150239
0.132912
-0.00585369
0.12758
0.00488983
0.122439
0.0168337
0.11798
0.0293415
0.115379
0.0426111
0.115846
0.0567958
0.120173
0.0699638
0.128192
0.0781838
0.13894
0.0789817
0.151814
0.0703869
0.165875
0.0474889
0.177859
0.00836594
0.184859
-0.0406424
0.185755
-0.0876989
0.181606
-0.124037
0.173989
-0.14725
0.164987
-0.158673
0.155622
-0.159373
0.145922
-0.154941
0.137582
-0.146584
0.130265
-0.127868
0.120124
-0.107068
0.107999
-0.095047
0.100609
-0.0761184
0.10083
-0.0228852
0.103309
0.0665459
0.103749
0.177226
0.102722
0.279795
0.105615
0.327478
0.116666
0.271001
0.132245
0.131336
0.145134
-0.0199493
0.152242
-0.125797
0.154223
-0.176633
0.15269
-0.189145
0.150039
-0.174875
0.147019
-0.156379
0.145365
-0.11922
0.144386
-0.0867535
0.142838
-0.0494273
-0.00380728
0.211713
0.00748335
-0.212368
0.210986
0.00495189
0.210327
0.00243511
0.209481
-0.000346653
0.208254
-0.00344244
0.206639
-0.00684702
0.204585
-0.0104659
0.202051
-0.0141893
0.199005
-0.0178927
0.195445
-0.0214254
0.191403
-0.0245983
0.186948
-0.0271918
0.182175
-0.0289692
0.177204
-0.0296954
0.172169
-0.0291555
0.167207
-0.027145
0.162454
-0.0235028
0.158021
-0.0181277
0.153967
-0.01097
0.150232
-0.00211864
0.14675
0.00837179
0.143576
0.0200077
0.140925
0.0319929
0.139561
0.0439747
0.140597
0.0557598
0.144896
0.0656652
0.152425
0.0706552
0.162553
0.0688535
0.174634
0.0583054
0.187076
0.0350476
0.197006
-0.00156434
0.201618
-0.0452542
0.200449
-0.0865301
0.194589
-0.118177
0.185681
-0.138341
0.175717
-0.14871
0.165885
-0.149541
0.155908
-0.144964
0.147033
-0.13771
0.139802
-0.120637
0.130486
-0.0977523
0.118154