/*--------------------------------*- C++ -*----------------------------------*\
| =========                 |                                                 |
| \\      /  F ield         | OpenFOAM: The Open Source CFD Toolbox           |
|  \\    /   O peration     | Version:  2512                                  |
|   \\  /    A nd           | Website:  www.openfoam.com                      |
|    \\/     M anipulation  |                                                 |
\*---------------------------------------------------------------------------*/
FoamFile
{
    version     2.0;
    format      ascii;
    arch        "LSB;label=32;scalar=64";
    class       volVectorField;
    location    "96.5";
    object      U;
}
// * * * * * * * * * * * * * * * * * * * * * * * * * * * * * * * * * * * * * //

dimensions      [0 1 -1 0 0 0 0];

internalField   nonuniform List<vector> 
13248
(
(-0.014003 0.0123312 7.86565e-20)
(-0.0265797 0.0260008 0)
(-0.0240074 0.0332557 -1.48421e-19)
(-0.00642236 0.0364587 1.39812e-19)
(0.0261131 0.0372593 1.30483e-19)
(0.0734938 0.0368136 0)
(0.135455 0.0359473 0)
(0.211397 0.0352534 3.12067e-19)
(0.300187 0.0351273 -1.3217e-21)
(0.399993 0.0357713 -2.72984e-19)
(0.508213 0.037188 2.55004e-19)
(0.621526 0.0391836 -1.59464e-19)
(0.736076 0.041393 0)
(0.847766 0.0433273 -2.81583e-19)
(0.952591 0.0444417 5.28592e-19)
(1.047 0.0442121 -1.25867e-19)
(1.12818 0.0422124 -2.30711e-19)
(1.19432 0.0381537 2.16595e-19)
(1.24473 0.0320057 0)
(1.27981 0.0235981 0)
(1.30109 0.0140503 0)
(1.31021 0.000466013 0)
(1.31018 -0.00790862 6.71404e-20)
(1.3018 -0.036695 2.43841e-19)
(-0.0142595 0.0113155 -2.3754e-19)
(-0.0221877 0.0215285 1.6194e-19)
(-0.0105007 0.0254511 -1.58965e-21)
(0.0198809 0.0258987 -2.13778e-19)
(0.0684202 0.0248474 -1.3034e-19)
(0.134519 0.0236933 -1.23352e-19)
(0.217148 0.0233755 -2.25602e-19)
(0.31455 0.0244691 2.13845e-19)
(0.42402 0.0272227 0)
(0.541864 0.0315691 6.44442e-22)
(0.663571 0.037146 1.67188e-21)
(0.784178 0.0433481 1.60022e-19)
(0.898747 0.0494161 0)
(1.00286 0.0545491 0)
(1.09307 0.0580223 1.93604e-19)
(1.16715 0.0592884 -3.6393e-19)
(1.22428 0.0580434 2.20901e-19)
(1.26498 0.054251 -2.07403e-19)
(1.2909 0.0481076 -9.20044e-20)
(1.30448 0.0400109 -1.70428e-19)
(1.30844 0.0304472 -7.12734e-20)
(1.30556 0.0197954 -1.34692e-19)
(1.29772 0.0101422 1.9592e-19)
(1.28782 -0.00378829 5.59976e-20)
(-0.0132713 0.00967848 0)
(-0.0136718 0.0161586 0)
(0.0105513 0.0174127 7.56404e-20)
(0.0574822 0.0163429 6.95365e-20)
(0.125751 0.015065 -1.84832e-21)
(0.213714 0.0150844 -1.2811e-19)
(0.31885 0.0172999 0)
(0.437438 0.0220697 -1.0628e-19)
(0.564538 0.0292586 1.0041e-19)
(0.694296 0.0382933 1.10161e-21)
(0.820542 0.0482667 -1.71831e-19)
(0.937506 0.0580929 -1.58608e-19)
(1.04048 0.0666895 2.01444e-21)
(1.12632 0.0731467 -1.33737e-19)
(1.19362 0.0768529 3.19146e-19)
(1.24271 0.0775531 0)
(1.27535 0.0753398 -2.11456e-19)
(1.29426 0.0705722 1.02739e-19)
(1.3026 0.0638125 9.19348e-20)
(1.30336 0.0555732 0)
(1.29919 0.0467254 7.62871e-20)
(1.29179 0.0368973 -2.6148e-19)
(1.28256 0.0291845 2.45468e-19)
(1.27252 0.0163124 1.54398e-19)
(-0.0105552 0.00737684 -8.42584e-20)
(5.97392e-05 0.00987904 -8.72077e-20)
(0.0404732 0.00924429 7.86991e-20)
(0.107513 0.00809671 0)
(0.198462 0.0084468 0)
(0.309887 0.0116801 -3.16962e-21)
(0.436931 0.0183747 0)
(0.573243 0.0283532 -3.27284e-19)
(0.711436 0.0408009 3.04232e-19)
(0.843967 0.0544504 -3.75518e-19)
(0.964146 0.0678362 8.61176e-20)
(1.067 0.0795699 0)
(1.14976 0.0885733 1.4493e-19)
(1.21195 0.0942178 -2.69055e-19)
(1.25503 0.0963548 6.40422e-20)
(1.28187 0.0952464 1.66819e-19)
(1.29601 0.0914309 -6.17156e-21)
(1.30098 0.0855757 -1.85915e-19)
(1.29984 0.0783308 0)
(1.29491 0.0702805 0)
(1.28773 0.0618821 -6.77176e-20)
(1.27919 0.0532859 6.09845e-20)
(1.26987 0.0459254 2.20693e-19)
(1.26027 0.0351797 -2.07207e-19)
(-0.0056913 0.00455579 -8.90652e-20)
(0.0199467 0.00311653 -8.87367e-20)
(0.0802713 0.00165264 2.49435e-19)
(0.170482 0.00214147 -1.51284e-19)
(0.285815 0.00616473 1.42394e-19)
(0.420181 0.0146307 2.58487e-19)
(0.565675 0.0273922 -1.82926e-19)
(0.713135 0.0433684 -2.22904e-19)
(0.853353 0.0608557 4.29557e-21)
(0.978475 0.0779271 2.84767e-19)
(1.0831 0.0928352 0)
(1.16479 0.104321 7.88626e-20)
(1.22389 0.111761 0)
(1.26296 0.115144 -1.29795e-19)
(1.28579 0.114927 1.82692e-19)
(1.29657 0.111829 1.86636e-21)
(1.29911 0.106635 -4.84314e-20)
(1.29646 0.10005 9.15083e-20)
(1.29075 0.0926422 7.90104e-20)
(1.28334 0.0848144 -7.1219e-20)
(1.27501 0.0768885 6.77032e-20)
(1.26616 0.0689211 -6.09706e-20)
(1.25702 0.0617958 0)
(1.24787 0.0523298 -4.62848e-20)
(0.0016813 0.00150188 8.90524e-20)
(0.0467068 -0.00332167 9.36605e-20)
(0.130476 -0.00412246 -8.36394e-20)
(0.246025 1.34033e-05 1.5607e-19)
(0.385703 0.00979494 -1.46891e-19)
(0.539991 0.0251619 1.32924e-19)
(0.697716 0.0447881 -6.39149e-20)
(0.847603 0.0664387 1.67335e-19)
(0.980189 0.0875901 -1.05407e-19)
(1.08928 0.106024 1.87022e-19)
(1.17251 0.120238 -4.32031e-19)
(1.23092 0.129596 1.58963e-19)
(1.26801 0.134239 -1.39806e-19)
(1.28845 0.134836 1.31324e-19)
(1.29703 0.132301 1.14298e-19)
(1.29784 0.127553 1.01055e-19)
(1.294 0.121368 -2.81197e-19)
(1.28759 0.114328 1.74837e-19)
(1.27988 0.106837 -7.90153e-20)
(1.27155 0.0991659 2.07121e-19)
(1.26296 0.0914926 -6.6858e-20)
(1.25425 0.0839272 -1.63927e-19)
(1.24548 0.076888 1.51524e-19)
(1.23674 0.0683722 4.62716e-20)
(0.0118584 -0.00139773 0)
(0.0807429 -0.00836398 9.10156e-22)
(0.190939 -0.00652445 1.75634e-19)
(0.332642 0.00345497 -1.64612e-19)
(0.494507 0.0208291 -1.48605e-19)
(0.663242 0.0440185 2.76228e-19)
(0.825068 0.0701985 -1.283e-19)
(0.968261 0.0960567 1.70996e-19)
(1.08521 0.118697 -3.65877e-21)
(1.17315 0.136227 -9.70148e-20)
(1.23355 0.147926 2.12064e-19)
(1.27074 0.154068 -3.1338e-19)
(1.29026 0.155554 0)
(1.29754 0.153526 -6.19115e-20)
(1.2971 0.149075 -1.6607e-19)
(1.29223 0.143083 5.21426e-20)
(1.28506 0.136186 1.93383e-21)
(1.27686 0.128805 -1.16455e-19)
(1.26827 0.121208 6.66086e-21)
(1.25961 0.113567 1.34999e-19)
(1.25098 0.105997 -6.07413e-20)
(1.24242 0.0985896 -2.32398e-20)
(1.23389 0.0914773 7.12739e-20)
(1.22542 0.0836117 0)
(0.0250346 -0.00368394 0)
(0.122024 -0.0107988 4.76485e-20)
(0.260656 -0.0039321 -2.29329e-19)
(0.42759 0.0140304 8.35023e-20)
(0.607309 0.040227 -7.85867e-20)
(0.783228 0.0711246 -7.19176e-20)
(0.940597 0.102432 -1.27053e-19)
(1.06947 0.130258 6.34321e-20)
(1.16594 0.15204 5.51217e-20)
(1.23149 0.166808 0)
(1.2711 0.174911 1.26066e-19)
(1.29122 0.177498 -1.88058e-19)
(1.29811 0.175991 1.40015e-19)
(1.29685 0.171717 6.19453e-20)
(1.2911 0.165721 -5.11236e-20)
(1.28315 0.158736 -4.30829e-20)
(1.27434 0.151228 -4.04127e-20)
(1.26532 0.143484 1.2019e-19)
(1.2564 0.135673 0)
(1.24767 0.127908 6.10609e-20)
(1.23914 0.120266 5.18034e-20)
(1.23079 0.112816 -1.28159e-19)
(1.22255 0.105558 -8.83816e-20)
(1.21439 0.098127 8.16139e-20)
(0.0412495 -0.00484871 -5.15045e-20)
(0.169976 -0.00939322 -2.02232e-21)
(0.337697 0.0051053 4.67318e-20)
(0.527052 0.0328177 1.30862e-19)
(0.718557 0.0681751 3.81197e-20)
(0.893781 0.105595 -7.36273e-20)
(1.03929 0.139816 6.7195e-20)
(1.14895 0.167163 -5.88909e-20)
(1.22351 0.186101 1.05674e-19)
(1.26836 0.196921 4.50723e-20)
(1.29092 0.201015 -1.28002e-19)
(1.29846 0.200157 3.77715e-20)
(1.29689 0.196 6.47478e-20)
(1.29042 0.189833 -3.1802e-20)
(1.28167 0.18254 0)
(1.27213 0.174673 4.78771e-20)
(1.26252 0.166554 8.14256e-20)
(1.25315 0.158367 1.42177e-20)
(1.24412 0.150221 -6.81352e-20)
(1.23544 0.142192 2.86694e-20)
(1.22706 0.134335 0)
(1.21892 0.126685 -2.27008e-20)
(1.21094 0.119204 -2.16051e-20)
(1.20304 0.111966 0)
(0.0603282 -0.00436534 0)
(0.223417 -0.0030139 2.70018e-20)
(0.419285 0.0216753 5.00515e-20)
(0.626558 0.0602372 -1.33581e-19)
(0.822895 0.104095 4.31888e-20)
(0.990234 0.146013 0)
(1.11871 0.180628 6.4923e-20)
(1.20722 0.205318 -9.06609e-20)
(1.26104 0.220025 -5.28135e-20)
(1.28848 0.226325 2.38562e-20)
(1.29807 0.226416 -3.83874e-20)
(1.29688 0.2224 9.30986e-20)
(1.28995 0.215919 4.6801e-20)
(1.28044 0.208096 -3.24294e-20)
(1.27009 0.199618 -2.94355e-21)
(1.25976 0.190872 -8.96928e-20)
(1.24981 0.18207 4.09072e-20)
(1.24033 0.173329 -1.02895e-21)
(1.23135 0.16472 0)
(1.22281 0.156295 -2.86995e-20)
(1.21463 0.148092 0)
(1.20674 0.140113 6.54847e-20)
(1.19906 0.132362 -7.81171e-20)
(1.19145 0.125119 3.56712e-20)
(0.0818413 -0.00172807 -1.41143e-20)
(0.280567 0.00926121 -6.82179e-20)
(0.502025 0.0463734 7.767e-20)
(0.721542 0.0960241 4.56819e-20)
(0.915878 0.146823 -2.1802e-20)
(1.06978 0.19076 3.66733e-20)
(1.17857 0.22338 -1.78001e-20)
(1.24638 0.243751 2.96399e-20)
(1.28215 0.253427 0)
(1.29587 0.255071 6.73277e-20)
(1.29614 0.251377 -2.71864e-21)
(1.28921 0.244506 -5.44497e-20)
(1.27905 0.235942 2.33829e-20)
(1.26786 0.226588 -2.64859e-20)
(1.25671 0.216942 -1.01683e-20)
(1.24605 0.207264 1.16519e-20)
(1.23601 0.197686 -9.06667e-21)
(1.2266 0.188283 -4.9354e-20)
(1.21776 0.179101 3.02665e-20)
(1.20943 0.170175 6.23829e-21)
(1.20152 0.16152 5.51438e-21)
(1.19392 0.153126 4.87663e-21)
(1.18654 0.145065 0)
(1.17924 0.137606 0)
(0.105171 0.00351409 1.41241e-20)
(0.33929 0.0280621 -1.41439e-20)
(0.582388 0.0792426 -2.58999e-20)
(0.80799 0.13931 0)
(0.994411 0.194857 -1.08359e-20)
(1.13129 0.238281 -9.7687e-21)
(1.21985 0.266933 -1.67176e-20)
(1.26891 0.281889 0)
(1.28989 0.2862 0)
(1.29335 0.283305 0)
(1.28723 0.276099 0)
(1.27672 0.266617 0)
(1.26474 0.256107 -1.4726e-20)
(1.25273 0.245253 6.71447e-21)
(1.24128 0.234397 1.17042e-20)
(1.23059 0.223702 5.474e-21)
(1.22067 0.213247 1.36166e-20)
(1.21146 0.203077 0)
(1.2029 0.193222 -3.29719e-21)
(1.19489 0.183699 -3.15263e-21)
(1.18733 0.174507 -5.52316e-21)
(1.18012 0.165639 -4.88442e-21)
(1.17313 0.157238 0)
(1.16623 0.149396 3.54376e-21)
(-0.00185859 0.0332291 8.9449e-21)
(-0.00691786 0.0853311 -9.24589e-21)
(-0.0149765 0.126017 -1.74604e-20)
(-0.0249423 0.156716 0)
(-0.0360577 0.17908 -2.32838e-20)
(-0.0477925 0.194996 7.29395e-21)
(-0.0596669 0.206325 -1.38417e-20)
(-0.0712678 0.214657 0)
(-0.0822699 0.221173 0)
(-0.0924296 0.226599 0)
(-0.101568 0.231251 0)
(-0.109551 0.235117 0)
(-0.116267 0.237954 -2.97446e-23)
(-0.121612 0.239369 -9.40536e-21)
(-0.12548 0.238876 1.82447e-20)
(-0.127754 0.235941 2.60717e-20)
(-0.128306 0.230009 8.54826e-21)
(-0.127003 0.220528 0)
(-0.123711 0.206979 7.51789e-21)
(-0.118304 0.188914 -2.16977e-20)
(-0.110657 0.166023 -1.40161e-20)
(-0.100711 0.138224 -1.34009e-20)
(-0.0884086 0.105421 0)
(-0.0739843 0.0682703 0)
(-0.0036392 0.0348344 -2.69425e-20)
(-0.0103434 0.0899035 4.62865e-20)
(-0.017768 0.133316 -1.75783e-20)
(-0.0257669 0.166352 -3.30582e-20)
(-0.0341139 0.19053 4.66477e-20)
(-0.042564 0.207656 -2.94389e-20)
(-0.0508219 0.219576 4.15249e-20)
(-0.0585757 0.227924 2.63083e-20)
(-0.0655316 0.233963 0)
(-0.0714303 0.238513 -2.36822e-20)
(-0.0760505 0.241975 -4.85559e-22)
(-0.0792057 0.244403 2.08803e-20)
(-0.080736 0.245595 3.03835e-20)
(-0.0804993 0.245176 3.89415e-20)
(-0.0783647 0.242665 -1.75347e-20)
(-0.0742097 0.237525 -5.23852e-20)
(-0.0679207 0.229196 1.76181e-20)
(-0.0593968 0.217126 -6.51717e-20)
(-0.0485566 0.200797 0)
(-0.0353191 0.179767 1.46156e-20)
(-0.019512 0.153725 1.39921e-20)
(-0.00135541 0.122527 1.33776e-20)
(0.0193376 0.0864024 0)
(0.0431674 0.0464661 0)
(-0.00540774 0.0346746 0)
(-0.0138899 0.0905182 9.37232e-20)
(-0.0208348 0.135419 -3.53071e-20)
(-0.026894 0.170186 3.31722e-20)
(-0.0323014 0.195985 -9.40276e-20)
(-0.0370799 0.214372 0)
(-0.0411352 0.227045 -5.59009e-20)
(-0.044283 0.235589 2.62962e-20)
(-0.0462937 0.241285 -4.99784e-20)
(-0.0469219 0.245025 2.38209e-20)
(-0.0459283 0.247298 1.3568e-19)
(-0.0430926 0.248245 -6.38112e-20)
(-0.0382196 0.247739 -1.02886e-19)
(-0.031141 0.245461 -4.07811e-20)
(-0.0217146 0.240975 -1.6297e-21)
(-0.00982533 0.233779 1.44228e-19)
(0.00461341 0.223347 -6.8515e-20)
(0.0216563 0.20916 -7.13622e-22)
(0.0413241 0.19073 0)
(0.0636049 0.167637 -6.28053e-20)
(0.0884557 0.139546 0)
(0.115749 0.10619 -5.8359e-20)
(0.145621 0.0679251 2.21207e-19)
(0.1799 0.0257326 1.79957e-21)
(-0.00694019 0.032951 0)
(-0.0171511 0.0874288 2.69705e-22)
(-0.0238529 0.132408 3.5603e-20)
(-0.0282176 0.168029 -3.34957e-20)
(-0.0308103 0.194977 3.13613e-20)
(-0.0318683 0.214442 1.77847e-19)
(-0.0314807 0.22787 -5.58187e-20)
(-0.0296133 0.236698 -5.27875e-20)
(-0.0261366 0.242163 9.98886e-20)
(-0.0208611 0.245181 -1.42784e-19)
(-0.0135696 0.246316 4.4635e-20)
(-0.00404317 0.245804 4.29259e-20)
(0.0079201 0.243613 0)
(0.0224939 0.239513 3.92195e-20)
(0.0398169 0.233146 0)
(0.059989 0.224081 7.26858e-20)
(0.0830696 0.211853 -1.42257e-19)
(0.109077 0.196001 2.97327e-20)
(0.137988 0.176087 1.2903e-19)
(0.16974 0.151729 6.27264e-20)
(0.204225 0.12259 0)
(0.241404 0.0884652 -1.77328e-19)
(0.280431 0.0495422 5.52284e-20)
(0.327574 0.00652212 0)
(-0.00809339 0.0300498 0)
(-0.0198381 0.0812967 -1.13683e-19)
(-0.0265824 0.124876 -3.55878e-20)
(-0.0296792 0.16023 -6.70002e-20)
(-0.0298448 0.187539 6.30832e-20)
(-0.0274516 0.207599 -5.92622e-20)
(-0.0227408 0.221536 1.11933e-19)
(-0.0158293 0.230575 5.32581e-20)
(-0.00671525 0.235837 -1.49369e-19)
(0.00469417 0.238213 9.51001e-20)
(0.0185486 0.238306 -1.35132e-19)
(0.0350235 0.236431 3.00195e-19)
(0.054294 0.232654 -1.62301e-19)
(0.0765168 0.226848 7.80329e-20)
(0.101819 0.218753 2.27568e-19)
(0.130291 0.208023 -6.87953e-20)
(0.16199 0.194273 -6.56872e-20)
(0.196934 0.177107 -6.60947e-20)
(0.235129 0.156123 0)
(0.276517 0.130991 -1.28313e-19)
(0.320905 0.101479 -1.27012e-19)
(0.369114 0.0674128 1.73894e-19)
(0.417069 0.0287243 2.27915e-19)
(0.480194 -0.013921 -2.13196e-19)
(-0.00883944 0.0264684 0)
(-0.0218499 0.0730757 -1.52447e-19)
(-0.028922 0.11384 2.89829e-22)
(-0.0312557 0.147641 1.34592e-19)
(-0.0295409 0.174249 0)
(-0.0241968 0.194099 0)
(-0.015569 0.208005 0)
(-0.00390701 0.216942 -5.28923e-20)
(0.0106571 0.221872 -5.77009e-22)
(0.0280962 0.223609 9.34968e-20)
(0.0484628 0.222751 -1.35565e-19)
(0.0718611 0.219659 -9.4896e-22)
(0.0984215 0.214478 0)
(0.128281 0.207173 -7.79921e-20)
(0.161568 0.197578 7.59469e-20)
(0.198405 0.185433 -2.12728e-19)
(0.238895 0.170425 2.7849e-19)
(0.283089 0.152209 7.22247e-20)
(0.331052 0.130494 7.42445e-21)
(0.383041 0.105015 -2.45937e-19)
(0.438267 0.0754483 -1.18821e-19)
(0.499305 0.0420033 4.05986e-19)
(0.556144 0.00395112 -2.72485e-19)
(0.637627 -0.037273 0)
(-0.0092733 0.0227401 7.46913e-20)
(-0.0232903 0.0638677 7.63513e-20)
(-0.030911 0.100609 -7.17485e-20)
(-0.0329248 0.131548 -1.3413e-19)
(-0.029859 0.156221 1.26283e-19)
(-0.0221054 0.174812 -1.17969e-19)
(-0.0100597 0.187871 1.6624e-19)
(0.00593498 0.196143 -5.28366e-20)
(0.0256359 0.200411 9.809e-20)
(0.0489094 0.20138 0)
(0.0757208 0.199601 8.84139e-20)
(0.106117 0.195442 -1.64937e-19)
(0.140206 0.189093 1.60956e-19)
(0.178141 0.180584 -1.51164e-19)
(0.220096 0.16982 0)
(0.26626 0.156619 1.40709e-19)
(0.316819 0.14074 2.7361e-19)
(0.371984 0.121937 -2.58192e-19)
(0.431718 0.099936 -1.24674e-19)
(0.496293 0.0746109 -1.26669e-19)
(0.56392 0.045383 3.50307e-19)
(0.639451 0.013586 1.12644e-19)
(0.705201 -0.0231128 -1.03614e-19)
(0.804008 -0.0606182 9.83536e-20)
(-0.00958862 0.0193484 -7.47017e-20)
(-0.0244159 0.0547414 2.29491e-19)
(-0.0326537 0.086575 -7.22572e-20)
(-0.0345513 0.113489 1.34071e-19)
(-0.0304033 0.13501 -1.26228e-19)
(-0.0205276 0.15121 9.67088e-23)
(-0.00531522 0.162473 5.52149e-20)
(0.0148572 0.169362 2.05949e-19)
(0.0396978 0.172499 2.91338e-22)
(0.0690286 0.17247 -9.18888e-20)
(0.102791 0.169755 0)
(0.14104 0.164697 -8.26757e-20)
(0.183915 0.157495 1.55558e-19)
(0.231627 0.148217 1.51172e-19)
(0.284416 0.136824 -7.09578e-20)
(0.342505 0.12319 -1.50688e-21)
(0.406016 0.107138 -6.70679e-20)
(0.474948 0.0884926 1.26e-19)
(0.548903 0.0669988 1.24656e-19)
(0.627823 0.0429146 -1.20013e-19)
(0.708466 0.0152933 1.11059e-19)
(0.796424 -0.0130171 -1.05515e-19)
(0.869017 -0.0470461 0)
(0.976048 -0.0774141 -9.83278e-20)
(-0.0100187 0.0166443 7.48912e-20)
(-0.0255087 0.0465453 -7.67135e-20)
(-0.0341519 0.0729838 7.20788e-20)
(-0.0356833 0.0950252 0)
(-0.0301658 0.112408 0)
(-0.017819 0.125246 1.16811e-19)
(0.00102779 0.133864 -1.10092e-19)
(0.0260466 0.138716 1.02028e-19)
(0.0569913 0.140307 -4.81371e-19)
(0.0937359 0.139118 -2.38678e-22)
(0.136279 0.135556 8.50416e-20)
(0.18473 0.129922 0)
(0.239262 0.122408 -1.55193e-19)
(0.300047 0.113089 2.94025e-19)
(0.367167 0.101948 -2.10238e-19)
(0.440534 0.0889011 -3.40772e-19)
(0.519775 0.0738358 -5.88462e-21)
(0.604168 0.0566758 2.42244e-19)
(0.692393 0.0372695 0)
(0.783268 0.0160936 0)
(0.872729 -0.0080039 -1.11061e-19)
(0.964175 -0.0311331 1.05518e-19)
(1.03707 -0.0608432 -3.86629e-19)
(1.13418 -0.0819079 3.62081e-19)
(-0.0107466 0.0147762 0)
(-0.0266914 0.039755 0)
(-0.0350854 0.0607246 -2.16035e-19)
(-0.0353226 0.0774866 6.88438e-20)
(-0.0272897 0.0901784 1.1855e-21)
(-0.0110962 0.0990863 1.18082e-19)
(0.013049 0.10458 0)
(0.0449481 0.107082 -1.02207e-19)
(0.0844794 0.107034 9.60064e-20)
(0.131613 0.104848 -1.79363e-19)
(0.186383 0.100869 -4.68235e-22)
(0.248821 0.0953522 1.60922e-19)
(0.318862 0.088454 1.85467e-21)
(0.396238 0.0802341 1.48085e-19)
(0.480362 0.0706764 -2.05404e-19)
(0.570241 0.0597115 0)
(0.664411 0.0472489 2.54927e-19)
(0.760932 0.0332147 -3.61826e-19)
(0.85738 0.0175407 1.12805e-19)
(0.951222 0.000525431 0)
(1.03871 -0.0185556 1.00527e-19)
(1.11981 -0.0365153 3.88726e-19)
(1.18219 -0.0607576 -3.64838e-19)
(1.25092 -0.073949 -4.12083e-19)
(-0.0118051 0.0136528 2.26265e-19)
(-0.027752 0.0343902 -3.10478e-19)
(-0.0346449 0.0501862 1.11602e-21)
(-0.0318183 0.0617629 6.87037e-20)
(-0.0190739 0.0697715 -1.2706e-19)
(0.00358544 0.0747644 -1.17643e-19)
(0.0360932 0.0772357 2.18455e-19)
(0.0783888 0.0776468 -1.73229e-21)
(0.130421 0.0764234 -1.91722e-19)
(0.192097 0.0739337 3.58708e-19)
(0.263186 0.0704657 6.83538e-22)
(0.343202 0.0662087 -1.58692e-19)
(0.43128 0.0612489 0)
(0.526091 0.0555726 0)
(0.625789 0.0490822 -6.85659e-20)
(0.728035 0.0416182 -1.28125e-19)
(0.830082 0.0330066 -2.47585e-19)
(0.928901 0.0230448 2.32399e-19)
(1.02144 0.0117091 -1.12866e-19)
(1.10475 -0.00121099 2.08058e-19)
(1.17633 -0.0153986 -1.01351e-19)
(1.2349 -0.0302539 1.79541e-19)
(1.27662 -0.0489033 -4.20782e-19)
(1.31099 -0.0590652 8.09278e-20)
(-0.0130128 0.0129808 7.61117e-20)
(-0.0280427 0.0300368 0)
(-0.0315136 0.0412222 1.46351e-19)
(-0.0229985 0.0481815 -1.37866e-19)
(-0.00234338 0.0520951 1.2718e-19)
(0.0304943 0.0538235 0)
(0.0755006 0.0540268 0)
(0.132571 0.0532371 -1.0243e-19)
(0.201414 0.0518815 1.07404e-21)
(0.281411 0.0502766 9.03645e-20)
(0.371478 0.0486158 -8.46297e-20)
(0.46996 0.0469569 1.58738e-19)
(0.574593 0.0452223 0)
(0.682554 0.0432124 2.84774e-19)
(0.790593 0.0406354 -5.36681e-19)
(0.895244 0.0371473 3.8105e-19)
(0.993072 0.0324183 2.39563e-19)
(1.08093 0.02612 -2.24886e-19)
(1.15631 0.0182078 0)
(1.21734 0.00818352 0)
(1.26351 -0.00275046 0)
(1.29482 -0.0169363 0)
(1.31294 -0.0300196 8.09807e-20)
(1.32167 -0.0444122 -2.81182e-19)
(-0.0558431 0.0215054 -8.31216e-21)
(-0.035956 -0.0430776 8.37472e-21)
(-0.0136046 -0.116316 -2.6354e-22)
(0.0108553 -0.195015 0)
(0.0367166 -0.275735 -6.89592e-21)
(0.0628263 -0.354558 1.29357e-20)
(0.087309 -0.427243 -5.40848e-22)
(0.10814 -0.490071 -5.36357e-21)
(0.123065 -0.540611 0)
(0.130659 -0.577899 0)
(0.131705 -0.601423 -2.0172e-22)
(0.130462 -0.608429 -1.74844e-22)
(0.134922 -0.592211 -2.81674e-21)
(0.153982 -0.543481 2.58411e-21)
(0.193048 -0.455219 0)
(0.25051 -0.328148 0)
(0.31994 -0.170824 2.83376e-21)
(0.394659 0.00368696 -5.29373e-23)
(0.469593 0.17828 -2.47686e-21)
(0.539738 0.330474 -1.28247e-22)
(0.599541 0.441464 0)
(0.644221 0.505794 0)
(0.672585 0.530409 0)
(0.687613 0.527962 0)
(0.689668 0.517356 0)
(0.673214 0.518831 0)
(0.637933 0.532462 3.75517e-22)
(0.600203 0.52246 -6.13432e-22)
(0.585373 0.440321 0)
(0.605442 0.270946 0)
(0.652775 0.0508745 -7.00071e-22)
(0.710353 -0.158373 6.80356e-22)
(0.762725 -0.314048 2.83029e-22)
(0.798755 -0.402567 0)
(0.820447 -0.436592 0)
(0.828846 -0.437533 2.51346e-22)
(0.818183 -0.443149 -2.44325e-22)
(0.779962 -0.457309 0)
(0.727977 -0.449436 2.60062e-22)
(0.690792 -0.362653 -3.8245e-22)
(0.687321 -0.195361 1.43916e-22)
(0.712855 0.00240838 0)
(0.75627 0.177102 -2.3695e-22)
(0.799135 0.281573 2.30404e-22)
(0.828696 0.354049 0)
(0.819322 0.384933 0)
(0.780171 0.419051 -7.19509e-23)
(0.737842 0.366611 2.22554e-22)
(0.724806 0.246476 0)
(0.746254 0.071948 0)
(0.793989 -0.110813 -6.30539e-23)
(0.817978 -0.19567 -3.86854e-24)
(0.821063 -0.330426 -8.06315e-24)
(0.785012 -0.326612 3.38231e-23)
(0.773185 -0.346022 0)
(0.777336 -0.231165 0)
(0.799888 -0.0308614 0)
(0.793565 0.0383731 0)
(0.798603 0.322312 0)
(0.779584 0.256737 0)
(0.0703465 -0.00173167 -8.80865e-22)
(0.0947978 -0.0675001 -3.64775e-20)
(0.120724 -0.142416 8.97249e-22)
(0.147961 -0.222435 3.33479e-20)
(0.175024 -0.303401 4.98036e-22)
(0.200641 -0.381146 0)
(0.223147 -0.450808 -2.3264e-20)
(0.240334 -0.50815 4.33156e-20)
(0.249642 -0.550853 -2.00348e-20)
(0.248654 -0.579079 1.43438e-20)
(0.236187 -0.595072 -1.37409e-20)
(0.214176 -0.600069 1.02739e-20)
(0.189904 -0.590403 -9.97733e-21)
(0.174792 -0.556109 -2.57077e-22)
(0.179962 -0.485416 -9.13071e-21)
(0.209824 -0.372969 8.8735e-21)
(0.260783 -0.224318 -9.46967e-21)
(0.325905 -0.053513 8.9425e-21)
(0.398393 0.121196 -8.41635e-21)
(0.47156 0.278504 1.52198e-20)
(0.538771 0.399418 -6.85707e-21)
(0.593932 0.476299 -2.94592e-22)
(0.63455 0.512774 -3.95444e-21)
(0.661238 0.52072 7.42488e-21)
(0.67152 0.520868 -3.48103e-21)
(0.660505 0.532729 2.19635e-22)
(0.63232 0.5511 4.36071e-21)
(0.606868 0.535755 1.03909e-21)
(0.607135 0.44068 -1.07388e-20)
(0.639591 0.2576 1.1987e-20)
(0.694099 0.0287909 -6.12132e-21)
(0.752823 -0.183023 7.3651e-22)
(0.801386 -0.334123 -2.83581e-22)
(0.829981 -0.415101 4.57892e-22)
(0.842313 -0.442378 0)
(0.842239 -0.436426 0)
(0.82731 -0.433098 -8.66887e-22)
(0.786377 -0.43966 6.46818e-22)
(0.730127 -0.431897 7.23684e-22)
(0.68523 -0.354123 2.71801e-22)
(0.674958 -0.199275 -1.15488e-21)
(0.69784 -0.0107397 2.47543e-22)
(0.742815 0.160751 0)
(0.790145 0.268585 0)
(0.821884 0.350185 0)
(0.815205 0.391362 0)
(0.777525 0.430348 2.92589e-22)
(0.740168 0.374912 -1.52727e-22)
(0.729887 0.245965 0)
(0.752715 0.0639941 0)
(0.801132 -0.120148 0)
(0.824744 -0.198841 -1.04469e-22)
(0.8297 -0.326627 1.87841e-23)
(0.791055 -0.32139 -7.59742e-23)
(0.779729 -0.345005 0)
(0.780467 -0.23375 0)
(0.799416 -0.0328043 4.37816e-23)
(0.791342 0.0388229 1.11396e-22)
(0.793626 0.323855 0)
(0.776882 0.257728 0)
(0.212152 -0.0236977 1.72204e-21)
(0.24095 -0.0899785 -7.76996e-20)
(0.269189 -0.164919 7.52333e-20)
(0.298077 -0.244565 -7.03413e-20)
(0.325514 -0.324691 -5.01318e-22)
(0.349842 -0.400762 0)
(0.369502 -0.467501 -4.98403e-20)
(0.382468 -0.520031 4.87683e-20)
(0.386599 -0.555392 2.91762e-22)
(0.37978 -0.57373 4.77715e-22)
(0.359851 -0.578832 3.82402e-22)
(0.325714 -0.576059 3.31304e-22)
(0.280951 -0.567104 -1.62965e-20)
(0.235873 -0.544875 1.60977e-20)
(0.20546 -0.495018 0)
(0.201576 -0.404765 3.84751e-22)
(0.226842 -0.272833 -1.49279e-20)
(0.275727 -0.111221 1.47673e-20)
(0.340618 0.0600557 0)
(0.413024 0.220254 0)
(0.484592 0.349785 -1.00967e-20)
(0.548234 0.438789 1.82628e-20)
(0.599816 0.487887 -1.51423e-20)
(0.636981 0.508088 3.74329e-22)
(0.654949 0.520571 1.33773e-20)
(0.650308 0.542759 -1.46524e-20)
(0.631118 0.564782 1.58741e-20)
(0.619154 0.544183 1.45269e-21)
(0.634223 0.438394 -1.0437e-20)
(0.678637 0.245282 0)
(0.739312 0.0103451 0)
(0.797881 -0.202346 4.08339e-21)
(0.841848 -0.348766 -5.4418e-21)
(0.862717 -0.422816 1.48974e-23)
(0.865805 -0.444493 2.48478e-21)
(0.857224 -0.433296 -2.41483e-21)
(0.838187 -0.422243 0)
(0.795442 -0.421433 1.9664e-22)
(0.736126 -0.41359 1.81613e-21)
(0.684108 -0.345166 -3.75881e-21)
(0.666883 -0.2037 1.74942e-21)
(0.686602 -0.0254933 1.78337e-22)
(0.732468 0.142369 -1.91105e-21)
(0.783462 0.253886 1.48841e-21)
(0.816925 0.345199 2.96133e-22)
(0.813084 0.396882 2.83876e-22)
(0.777483 0.44086 -2.93347e-22)
(0.74551 0.383019 0)
(0.738164 0.245978 0)
(0.761929 0.0570695 -1.51643e-21)
(0.810343 -0.128906 6.96026e-22)
(0.833145 -0.201715 -5.31264e-22)
(0.839786 -0.322492 6.0392e-22)
(0.798226 -0.315964 5.62572e-22)
(0.78699 -0.34374 -1.38756e-22)
(0.784482 -0.236145 1.83927e-22)
(0.80019 -0.0343704 -1.52053e-22)
(0.790336 0.0394873 4.08619e-23)
(0.789617 0.325336 0)
(0.775032 0.258641 0)
(0.36121 -0.042906 -1.64307e-19)
(0.393323 -0.109931 1.43981e-21)
(0.424074 -0.184425 1.55023e-19)
(0.454478 -0.262455 -1.13531e-21)
(0.482032 -0.340495 0)
(0.504653 -0.414074 0)
(0.520691 -0.477519 -1.02042e-19)
(0.528305 -0.525587 1.26155e-20)
(0.525934 -0.554923 1.18017e-19)
(0.512603 -0.565047 -6.51295e-21)
(0.487322 -0.559289 -2.73629e-20)
(0.448181 -0.544679 -1.66107e-20)
(0.394313 -0.52841 1.6696e-20)
(0.330381 -0.510345 0)
(0.269826 -0.478679 -1.08252e-20)
(0.230097 -0.415352 9.8592e-21)
(0.222942 -0.309234 0)
(0.248383 -0.165135 0)
(0.299755 -0.00170973 1.02578e-20)
(0.366763 0.157825 -8.22716e-22)
(0.438957 0.293845 -8.58608e-21)
(0.508325 0.393975 -7.07114e-21)
(0.568611 0.456074 6.9799e-21)
(0.614405 0.489818 -6.44976e-21)
(0.639398 0.515374 -4.28704e-22)
(0.641998 0.547264 6.51214e-21)
(0.633254 0.572117 1.0044e-21)
(0.635359 0.547297 -4.31348e-24)
(0.66478 0.434107 0)
(0.720141 0.234721 1.42239e-20)
(0.786562 -0.00435322 -1.47127e-20)
(0.84487 -0.21652 7.82935e-22)
(0.883576 -0.358642 0)
(0.896597 -0.426426 -4.78301e-22)
(0.890748 -0.443326 5.00467e-21)
(0.873687 -0.428425 -8.14593e-21)
(0.850449 -0.411129 2.24374e-22)
(0.80663 -0.403131 2.4739e-22)
(0.745692 -0.394412 2.35315e-21)
(0.687612 -0.335241 3.90951e-22)
(0.663409 -0.208052 -3.20789e-21)
(0.679317 -0.0414747 2.68858e-21)
(0.725195 0.122277 5.5278e-23)
(0.778979 0.237601 1.21037e-21)
(0.813754 0.338974 -1.47391e-21)
(0.812912 0.401227 -2.0354e-21)
(0.779978 0.450357 5.41879e-22)
(0.753717 0.390915 1.59222e-21)
(0.749526 0.246749 -3.24217e-21)
(0.773802 0.0514307 2.45029e-21)
(0.821526 -0.136942 -5.40359e-22)
(0.843054 -0.204348 7.86458e-22)
(0.851192 -0.318068 5.36848e-22)
(0.806438 -0.310242 -8.38498e-22)
(0.794816 -0.342145 2.2922e-23)
(0.789216 -0.238377 -1.3434e-22)
(0.802123 -0.0356052 0)
(0.790494 0.0403764 -7.58084e-23)
(0.786549 0.326785 9.61516e-23)
(0.774044 0.25949 0)
(0.51339 -0.0618283 1.66007e-19)
(0.547326 -0.128086 -3.25236e-19)
(0.580817 -0.200598 1.56824e-19)
(0.612778 -0.275302 1.45395e-19)
(0.639869 -0.349621 -2.75287e-19)
(0.660037 -0.419213 1.20009e-20)
(0.671609 -0.478193 1.15676e-19)
(0.67271 -0.52143 8.52351e-20)
(0.662263 -0.54585 -8.34422e-20)
(0.640453 -0.550824 0)
(0.608188 -0.538464 -4.1653e-20)
(0.565521 -0.514218 7.18188e-20)
(0.510557 -0.486769 -3.04928e-20)
(0.441763 -0.463075 0)
(0.364818 -0.439677 0)
(0.295589 -0.400135 2.75542e-22)
(0.253239 -0.325261 -1.41597e-20)
(0.24814 -0.208261 1.3757e-20)
(0.278307 -0.0606851 0)
(0.334056 0.0933704 1.32829e-20)
(0.403074 0.232952 -2.41838e-20)
(0.474768 0.342647 2.18397e-20)
(0.540644 0.417543 -2.09609e-20)
(0.592762 0.465406 -9.3302e-22)
(0.624071 0.504116 2.33786e-20)
(0.63464 0.544949 -1.24286e-20)
(0.637418 0.572437 -5.0411e-22)
(0.653713 0.545237 -1.06654e-20)
(0.696648 0.428462 -2.50848e-21)
(0.762012 0.226068 1.30828e-20)
(0.834223 -0.014244 9.05753e-22)
(0.892517 -0.225217 -1.20952e-20)
(0.925765 -0.3634 2.11639e-20)
(0.930919 -0.425767 -1.01384e-20)
(0.916638 -0.438815 0)
(0.891422 -0.421717 -4.23798e-21)
(0.863934 -0.399906 4.01058e-21)
(0.819614 -0.385329 -2.1435e-21)
(0.758427 -0.374962 2.68404e-21)
(0.695659 -0.324366 -2.73786e-22)
(0.664666 -0.211981 0)
(0.676028 -0.058243 -2.99347e-22)
(0.720873 0.100784 8.80182e-22)
(0.776515 0.219773 0)
(0.812234 0.331299 2.69489e-21)
(0.814552 0.404083 -1.03268e-21)
(0.784843 0.458624 6.23786e-22)
(0.764505 0.398557 7.97031e-22)
(0.763692 0.2484 0)
(0.788156 0.0472931 0)
(0.834573 -0.144084 -2.05557e-21)
(0.854326 -0.206705 2.8811e-21)
(0.863777 -0.313307 -1.39725e-21)
(0.815628 -0.304124 3.49838e-22)
(0.803083 -0.340161 4.82668e-22)
(0.794495 -0.240492 1.34466e-22)
(0.805108 -0.0365699 -1.48722e-22)
(0.791748 0.0414984 0)
(0.784391 0.328228 -1.52822e-22)
(0.773926 0.260285 -1.36356e-23)
(0.668915 -0.0826159 1.64541e-19)
(0.702729 -0.145848 -1.63932e-19)
(0.73765 -0.213845 1.2353e-21)
(0.76965 -0.283129 -1.12803e-21)
(0.794406 -0.35195 1.0833e-21)
(0.810235 -0.415913 -9.76345e-22)
(0.815687 -0.469217 1.65479e-21)
(0.809079 -0.507179 0)
(0.789895 -0.527106 -1.15877e-21)
(0.759147 -0.5286 9.21803e-22)
(0.718838 -0.513447 7.07638e-22)
(0.671017 -0.485179 -5.4667e-22)
(0.616039 -0.449904 0)
(0.550991 -0.416264 0)
(0.473493 -0.389494 1.6256e-22)
(0.390071 -0.362361 0)
(0.318668 -0.315645 -7.78179e-23)
(0.278975 -0.232048 0)
(0.27978 -0.110611 -7.6618e-21)
(0.316712 0.0309636 1.49023e-20)
(0.376969 0.169327 -1.45964e-20)
(0.446796 0.285981 7.11282e-21)
(0.51483 0.372762 7.77014e-21)
(0.571059 0.434615 -7.54551e-21)
(0.608103 0.486056 -1.12274e-20)
(0.62725 0.535137 1.09744e-20)
(0.642222 0.565514 0)
(0.672439 0.538285 5.79812e-22)
(0.727612 0.421653 0)
(0.802224 0.219987 0)
(0.880651 -0.0194521 2.68867e-20)
(0.939645 -0.228496 -2.78842e-20)
(0.96766 -0.363147 1.34817e-21)
(0.965085 -0.421141 1.00449e-21)
(0.943021 -0.431238 -7.13772e-22)
(0.910176 -0.413239 -3.62008e-21)
(0.878362 -0.388686 3.51519e-21)
(0.833918 -0.368402 -2.48684e-21)
(0.773723 -0.355642 2.11876e-21)
(0.707849 -0.312538 5.01485e-22)
(0.670522 -0.215064 -2.20155e-21)
(0.676644 -0.075251 -1.69584e-22)
(0.71928 0.0782074 1.50598e-21)
(0.775826 0.200403 0)
(0.812173 0.321931 -9.67119e-22)
(0.817786 0.405143 1.82377e-21)
(0.791792 0.465455 -2.29627e-21)
(0.777472 0.405873 -8.02134e-22)
(0.780299 0.250928 0)
(0.804758 0.0446664 7.90449e-22)
(0.849329 -0.150163 -1.73085e-21)
(0.866789 -0.208745 1.81326e-23)
(0.877358 -0.308201 -4.29752e-22)
(0.825739 -0.297517 4.59378e-22)
(0.811703 -0.337696 -4.61753e-22)
(0.800148 -0.242532 0)
(0.809015 -0.0373398 1.4879e-22)
(0.794021 0.0428549 0)
(0.783111 0.329681 0)
(0.774688 0.261031 2.27357e-23)
(0.83027 -0.102874 -1.60546e-19)
(0.860096 -0.161277 1.58871e-19)
(0.892555 -0.222379 -1.14707e-21)