/*--------------------------------*- C++ -*----------------------------------*\
| =========                 |                                                 |
| \\      /  F ield         | OpenFOAM: The Open Source CFD Toolbox           |
|  \\    /   O peration     | Version:  2512                                  |
|   \\  /    A nd           | Website:  www.openfoam.com                      |
|    \\/     M anipulation  |                                                 |
\*---------------------------------------------------------------------------*/
FoamFile
{
    version     2.0;
    format      ascii;
    arch        "LSB;label=32;scalar=64";
    class       volVectorField;
    location    "52";
    object      U;
}
// * * * * * * * * * * * * * * * * * * * * * * * * * * * * * * * * * * * * * //

dimensions      [0 1 -1 0 0 0 0];

internalField   nonuniform List<vector> 
13248
(
(-0.0120162 0.0112456 6.30677e-20)
(-0.0221462 0.0232759 0)
(-0.0195264 0.0289224 -1.19409e-19)
(-0.00519992 0.0302899 1.12486e-19)
(0.0201749 0.0290733 1.05533e-19)
(0.0561548 0.0266094 0)
(0.10237 0.0239111 0)
(0.158392 0.0217309 2.54977e-19)
(0.223588 0.0206165 -1.47622e-21)
(0.297001 0.0209381 -2.22322e-19)
(0.377266 0.0229016 2.04983e-19)
(0.462607 0.0265572 -1.28068e-19)
(0.550892 0.031809 0)
(0.639755 0.0384314 -2.15321e-19)
(0.72676 0.0460939 4.00121e-19)
(0.809574 0.0543936 -9.46456e-20)
(0.886131 0.0628975 -1.65844e-19)
(0.954767 0.0711654 1.55686e-19)
(1.01433 0.0788562 0)
(1.06411 0.0854801 0)
(1.10434 0.0913392 0)
(1.1343 0.0947315 0)
(1.15803 0.0993949 4.62948e-20)
(1.16948 0.0964835 1.67319e-19)
(-0.0116429 0.00975515 -1.90566e-19)
(-0.0179771 0.0189573 1.30014e-19)
(-0.00843335 0.022709 -1.04979e-21)
(0.0155934 0.0230899 -1.71959e-19)
(0.0532004 0.021809 -1.05419e-19)
(0.103673 0.0202343 -9.97133e-20)
(0.166225 0.0193792 -1.83366e-19)
(0.239795 0.0199552 1.73249e-19)
(0.322881 0.0224097 0)
(0.413441 0.0269403 1.00283e-21)
(0.508909 0.0335055 2.1113e-21)
(0.606315 0.041847 1.27922e-19)
(0.702506 0.0515284 0)
(0.794402 0.06199 0)
(0.879254 0.0726155 1.46099e-19)
(0.954855 0.0828002 -2.74306e-19)
(1.01969 0.0920138 1.62468e-19)
(1.07301 0.0998454 -1.52525e-19)
(1.11479 0.106038 -6.72255e-20)
(1.14573 0.11046 -1.21294e-19)
(1.16685 0.113265 -5.08279e-20)
(1.18011 0.114132 -9.51265e-20)
(1.18655 0.114977 1.39702e-19)
(1.18792 0.111109 4.0578e-20)
(-0.0103668 0.00789283 0)
(-0.0106642 0.0138044 0)
(0.00840365 0.0156717 6.08446e-20)
(0.0449682 0.0154891 5.61209e-20)
(0.0977155 0.0149379 -1.29981e-21)
(0.165388 0.0153694 -1.0266e-19)
(0.24638 0.0177109 0)
(0.338506 0.0224949 -8.61095e-20)
(0.438877 0.0298854 8.06424e-20)
(0.543956 0.0396978 3.97446e-22)
(0.649781 0.0514426 -1.37277e-19)
(0.752312 0.0644023 -1.25194e-19)
(0.847822 0.0777346 2.67955e-21)
(0.933251 0.0905871 -1.02398e-19)
(1.00645 0.102203 2.46488e-19)
(1.06632 0.112003 0)
(1.11277 0.119634 -1.58639e-19)
(1.14662 0.124974 7.67952e-20)
(1.16942 0.128131 6.71614e-20)
(1.18307 0.129322 0)
(1.18977 0.129037 5.49659e-20)
(1.1915 0.127285 -1.91667e-19)
(1.18987 0.125636 1.79922e-19)
(1.1875 0.121 1.1555e-19)
(-0.00788167 0.00571457 -6.74416e-20)
(0.000627186 0.00813088 -6.96974e-20)
(0.032243 0.00849805 6.30594e-20)
(0.084423 0.00859632 0)
(0.155135 0.00997961 0)
(0.242126 0.0138627 -1.98224e-21)
(0.342406 0.0209075 0)
(0.452089 0.0312317 -2.61945e-19)
(0.566491 0.0444579 2.43141e-19)
(0.680487 0.0597951 -3.0003e-19)
(0.789045 0.0761733 6.86249e-20)
(0.887783 0.0924177 0)
(0.973421 0.107426 1.13617e-19)
(1.04405 0.120319 -2.10198e-19)
(1.09916 0.130527 4.9874e-20)
(1.13951 0.137829 1.2769e-19)
(1.16683 0.142313 -5.76628e-21)
(1.18346 0.144312 -1.42831e-19)
(1.19194 0.144303 0)
(1.19469 0.142795 0)
(1.1938 0.140354 -5.13329e-20)
(1.19083 0.137111 4.62631e-20)
(1.18702 0.134357 1.66757e-19)
(1.18293 0.129269 -1.56534e-19)
(-0.00382649 0.00330942 -7.10494e-20)
(0.0167649 0.00235892 -7.07365e-20)
(0.0642219 0.00203818 1.98995e-19)
(0.135026 0.00369924 -1.20696e-19)
(0.225953 0.00857998 1.13611e-19)
(0.333127 0.0175329 2.06413e-19)
(0.451546 0.0306646 -1.45759e-19)
(0.575199 0.0473679 -1.77091e-19)
(0.6976 0.0664742 3.62733e-21)
(0.812556 0.0864773 2.26623e-19)
(0.914952 0.105805 0)
(1.00131 0.12308 6.23714e-20)
(1.07005 0.137312 0)
(1.12137 0.147991 -1.0158e-19)
(1.15693 0.155073 1.42694e-19)
(1.17931 0.158888 1.11714e-21)
(1.19152 0.160006 -3.75975e-20)
(1.1965 0.159091 6.99732e-20)
(1.19676 0.156779 6.0956e-20)
(1.19428 0.153601 -5.4858e-20)
(1.19039 0.149976 5.13202e-20)
(1.18597 0.146041 -4.62515e-20)
(1.18139 0.142545 0)
(1.17728 0.137328 -3.5994e-20)
(0.00217811 0.000831869 7.10393e-20)
(0.0385409 -0.00292782 7.45166e-20)
(0.105155 -0.00266328 -6.66573e-20)
(0.197111 0.00223406 1.24059e-19)
(0.309358 0.012376 -1.1677e-19)
(0.435717 0.0278999 1.05525e-19)
(0.568708 0.0479847 -5.06473e-20)
(0.70024 0.0710102 1.3301e-19)
(0.822704 0.0949243 -8.36309e-20)
(0.930051 0.117659 1.48231e-19)
(1.01851 0.137501 -3.42218e-19)
(1.0868 0.153336 1.25872e-19)
(1.13585 0.164726 -1.10199e-19)
(1.16818 0.171829 1.03507e-19)
(1.18717 0.175229 8.95364e-20)
(1.19639 0.175725 7.87083e-20)
(1.19902 0.174144 -2.19392e-19)
(1.19764 0.171206 1.36109e-19)
(1.19406 0.167471 -6.09575e-20)
(1.18947 0.163319 1.60212e-19)
(1.18457 0.158998 -5.16159e-20)
(1.17971 0.154588 -1.27662e-19)
(1.17506 0.150501 1.1813e-19)
(1.17083 0.145222 3.59811e-20)
(0.0104826 -0.00147683 0)
(0.0665385 -0.006963 6.05274e-22)
(0.155322 -0.0043908 1.39231e-19)
(0.270015 0.0056765 -1.3061e-19)
(0.403043 0.0227788 -1.17657e-19)
(0.545396 0.0458889 2.18661e-19)
(0.687145 0.0729112 -1.0154e-19)
(0.818894 0.101115 1.35429e-19)
(0.933292 0.127778 -2.86181e-21)
(1.026 0.150731 -7.68395e-20)
(1.09589 0.168667 1.67929e-19)
(1.14452 0.181195 -2.48091e-19)
(1.17524 0.188678 0)
(1.19217 0.191956 -4.88843e-20)
(1.19941 0.192059 -1.30696e-19)
(1.2004 0.189971 4.11483e-20)
(1.19777 0.186504 1.52319e-21)
(1.19329 0.182246 -9.10717e-20)
(1.18805 0.177588 5.2769e-21)
(1.18266 0.172762 1.05524e-19)
(1.17743 0.167898 -4.73015e-20)
(1.17248 0.163064 -1.85072e-20)
(1.16784 0.158426 5.61673e-20)
(1.16359 0.153058 0)
(0.0213542 -0.00328421 0)
(0.100995 -0.00881798 3.77718e-20)
(0.214286 -0.00183875 -1.81805e-19)
(0.351936 0.0153772 6.60237e-20)
(0.503278 0.0407457 -6.21404e-20)
(0.656408 0.0716371 -5.67905e-20)
(0.79972 0.104537 -1.00435e-19)
(0.924003 0.135848 5.00839e-20)
(1.02386 0.16272 4.35822e-20)
(1.09796 0.183504 0)
(1.14835 0.197781 9.98686e-20)
(1.17914 0.206097 -1.48924e-19)
(1.19524 0.209559 1.10839e-19)
(1.20129 0.209447 4.89085e-20)
(1.20111 0.206934 -4.03051e-20)
(1.19747 0.202947 -3.38212e-20)
(1.19217 0.198136 -3.1636e-20)
(1.18628 0.192916 9.43874e-20)
(1.18038 0.187531 0)
(1.17475 0.182116 4.7989e-20)
(1.16947 0.176744 4.08634e-20)
(1.16456 0.171459 -1.00866e-19)
(1.15998 0.166281 -7.00093e-20)
(1.15572 0.16081 6.46794e-20)
(0.034924 -0.00418042 -4.091e-20)
(0.14168 -0.00746839 -1.57422e-21)
(0.280776 0.00625065 3.70004e-20)
(0.439974 0.032363 1.03344e-19)
(0.605331 0.0666007 3.00592e-20)
(0.762707 0.104482 -5.81223e-20)
(0.900334 0.141295 5.30624e-20)
(1.01099 0.173176 -4.65746e-20)
(1.09262 0.197852 8.36759e-20)
(1.14741 0.214722 3.57176e-20)
(1.18019 0.224465 -1.0142e-19)
(1.19671 0.228468 2.99147e-20)
(1.20233 0.228314 5.11993e-20)
(1.20136 0.225419 -2.51765e-20)
(1.19686 0.220878 0)
(1.19077 0.215439 3.77147e-20)
(1.1842 0.209567 6.40688e-20)
(1.17772 0.20353 1.11461e-20)
(1.1716 0.197474 -5.35856e-20)
(1.16593 0.191474 2.25406e-20)
(1.16069 0.185573 0)
(1.15585 0.179788 -1.79073e-20)
(1.15133 0.17408 -1.71013e-20)
(1.14706 0.168434 0)
(0.0511329 -0.00370918 0)
(0.187812 -0.00189875 2.14508e-20)
(0.352689 0.0209202 3.96218e-20)
(0.530379 0.0571646 -1.05471e-19)
(0.704132 0.0999801 3.41025e-20)
(0.858987 0.143153 0)
(0.984918 0.181394 5.13515e-20)
(1.07823 0.211374 -7.17292e-20)
(1.14079 0.232014 -4.18249e-20)
(1.17798 0.244007 1.89073e-20)
(1.19644 0.249036 -3.03713e-20)
(1.20249 0.249055 7.36859e-20)
(1.20115 0.245816 3.69695e-20)
(1.19595 0.240652 -2.56734e-20)
(1.18908 0.234467 -2.37628e-21)
(1.18177 0.227807 -7.05903e-20)
(1.17465 0.220982 3.21742e-20)
(1.16797 0.214155 -8.43828e-22)
(1.16183 0.207407 0)
(1.15622 0.200785 -2.25641e-20)
(1.15108 0.194311 0)
(1.14634 0.187974 5.16712e-20)
(1.14191 0.181751 -6.17531e-20)
(1.13767 0.175846 2.8236e-20)
(0.0696916 -0.00140827 -1.12255e-20)
(0.238031 0.00878415 -5.4013e-20)
(0.427203 0.0428507 6.14753e-20)
(0.618971 0.0897263 3.60815e-20)
(0.794984 0.139921 -1.72102e-20)
(0.941381 0.186063 2.90022e-20)
(1.05162 0.223187 -1.40626e-20)
(1.12636 0.249249 2.34646e-20)
(1.17117 0.264708 0)
(1.19367 0.271502 5.32983e-20)
(1.20133 0.272044 -2.18876e-21)
(1.2002 0.268541 -4.30406e-20)
(1.19452 0.262682 1.84393e-20)
(1.18691 0.255601 -2.08258e-20)
(1.17883 0.247978 -7.93098e-21)
(1.17099 0.240187 9.17592e-21)
(1.16368 0.232421 -7.07829e-21)
(1.15701 0.224774 -3.86336e-20)
(1.15096 0.217294 2.3673e-20)
(1.14548 0.210007 4.85854e-21)
(1.1405 0.202917 4.29644e-21)
(1.13591 0.195997 3.80402e-21)
(1.1316 0.189282 0)
(1.12741 0.183011 0)
(0.0901293 0.00315657 1.12333e-20)
(0.290573 0.0252605 -1.12133e-20)
(0.50118 0.0722601 -2.04879e-20)
(0.701776 0.129409 0)
(0.874217 0.185046 -8.55533e-21)
(1.00771 0.231606 -7.72789e-21)
(1.10037 0.265382 -1.32334e-20)
(1.15721 0.286126 0)
(1.18672 0.295873 0)
(1.19776 0.297557 0)
(1.19774 0.294 0)
(1.19196 0.287405 0)
(1.18373 0.27926 -1.15691e-20)
(1.17487 0.270456 5.26615e-21)
(1.16626 0.261476 9.17036e-21)
(1.15828 0.252557 4.29568e-21)
(1.15103 0.243814 1.06221e-20)
(1.1445 0.235298 0)
(1.13865 0.227036 -2.55755e-21)
(1.13341 0.219038 -2.4651e-21)
(1.12866 0.211291 -4.30328e-21)
(1.1243 0.20377 -3.8101e-21)
(1.12018 0.196582 0)
(1.11616 0.189833 2.76543e-21)
(-0.00083189 -0.00920912 6.87283e-21)
(-0.00490022 -0.0232248 -7.13669e-21)
(-0.0128354 -0.0339655 -1.35172e-20)
(-0.0227957 -0.0419655 0)
(-0.0337341 -0.0477638 -1.8103e-20)
(-0.045091 -0.0518987 5.69028e-21)
(-0.0564693 -0.0548581 -1.0721e-20)
(-0.0675904 -0.0570444 0)
(-0.078276 -0.0587567 0)
(-0.0884177 -0.0601878 0)
(-0.0979525 -0.0614341 0)
(-0.106845 -0.0625136 0)
(-0.115073 -0.0633862 3.62987e-23)
(-0.122623 -0.0639726 -7.02176e-21)
(-0.12948 -0.0641689 1.31075e-20)
(-0.135632 -0.0638561 1.84806e-20)
(-0.141065 -0.0629061 5.69887e-21)
(-0.145773 -0.0611853 0)
(-0.149763 -0.058556 5.09931e-21)
(-0.153069 -0.0548808 -1.42015e-20)
(-0.155751 -0.0500282 -8.78755e-21)
(-0.157875 -0.0438635 -8.19446e-21)
(-0.159603 -0.0362072 0)
(-0.161499 -0.0268885 0)
(-0.000673453 -0.00558619 -2.06275e-20)
(-0.00462015 -0.0146782 3.56158e-20)
(-0.0126703 -0.0222091 -1.33939e-20)
(-0.0228392 -0.0282112 -2.55113e-20)
(-0.0339994 -0.0328853 3.607e-20)
(-0.0455488 -0.0365259 -2.27043e-20)
(-0.0570632 -0.0394353 3.20737e-20)
(-0.0682481 -0.0418779 2.01204e-20)
(-0.0789175 -0.0440536 0)
(-0.0889605 -0.0460877 -1.78709e-20)
(-0.098314 -0.0480336 -3.35395e-24)
(-0.106942 -0.0498852 1.5801e-20)
(-0.114824 -0.0515913 2.21706e-20)
(-0.121942 -0.0530699 2.77227e-20)
(-0.128278 -0.0542176 -1.31584e-20)
(-0.133813 -0.0549156 -3.66649e-20)
(-0.138525 -0.0550305 1.12242e-20)
(-0.142395 -0.0544133 -4.24042e-20)
(-0.145414 -0.0528957 0)
(-0.147608 -0.0502901 9.40266e-21)
(-0.149017 -0.0463927 8.77643e-21)
(-0.149633 -0.0409798 8.18393e-21)
(-0.149535 -0.0337779 0)
(-0.149772 -0.024566 0)
(-0.000949129 -0.00184233 0)
(-0.00521314 -0.00589299 7.11716e-20)
(-0.0134108 -0.0101841 -2.68587e-20)
(-0.0235689 -0.0142181 2.54761e-20)
(-0.0345653 -0.0178312 -7.2e-20)
(-0.0458006 -0.0210544 0)
(-0.0568534 -0.0239909 -4.2686e-20)
(-0.0674316 -0.0267593 2.00469e-20)
(-0.0773517 -0.0294576 -3.77872e-20)
(-0.0865055 -0.0321444 1.77168e-20)
(-0.0948317 -0.0348333 1.00023e-19)
(-0.102295 -0.0374983 -4.69658e-20)
(-0.108874 -0.0400821 -7.33354e-20)
(-0.11455 -0.0425047 -2.71942e-20)
(-0.119301 -0.0446705 2.52276e-22)
(-0.123101 -0.0464683 9.59784e-20)
(-0.125917 -0.0477702 -4.49205e-20)
(-0.127709 -0.0484245 3.81191e-22)
(-0.128445 -0.0482471 0)
(-0.128112 -0.0470109 -3.5492e-20)
(-0.126718 -0.0444358 0)
(-0.124162 -0.0401782 -3.07661e-20)
(-0.120325 -0.033832 1.13514e-19)
(-0.116672 -0.0250766 -7.18261e-22)
(-0.00164104 0.00178716 0)
(-0.00664198 0.00262221 1.02899e-22)
(-0.015013 0.00146241 2.70237e-20)
(-0.024938 -0.000692664 -2.55457e-20)
(-0.0353812 -0.00332227 2.39312e-20)
(-0.0457911 -0.00619349 1.36009e-19)
(-0.0557773 -0.00920943 -4.26566e-20)
(-0.0650682 -0.012342 -4.02131e-20)
(-0.0734925 -0.0155878 7.55592e-20)
(-0.0809487 -0.0189399 -1.06364e-19)
(-0.0873784 -0.0223736 3.33042e-20)
(-0.0927475 -0.0258445 3.11862e-20)
(-0.0970324 -0.0292911 0)
(-0.100213 -0.0326397 2.73783e-20)
(-0.102267 -0.0358044 0)
(-0.103163 -0.0386897 4.73065e-20)
(-0.102865 -0.0411861 -8.77776e-20)
(-0.101324 -0.0431603 2.16962e-20)
(-0.0984834 -0.0444414 7.63835e-20)
(-0.0942982 -0.0447986 3.54602e-20)
(-0.0887436 -0.0439034 0)
(-0.0816843 -0.04129 -8.87804e-20)
(-0.0726726 -0.0363651 2.83108e-20)
(-0.0627947 -0.0285073 0)
(-0.00269054 0.00509571 0)
(-0.00878892 0.0104131 -8.5865e-20)
(-0.017343 0.0121448 -2.73146e-20)
(-0.0268105 0.0117185 -5.11827e-20)
(-0.03631 0.00997611 4.81956e-20)
(-0.045376 0.00739726 -4.53747e-20)
(-0.0536749 0.00426907 8.55814e-20)
(-0.0609702 0.000760385 4.01656e-20)
(-0.0671099 -0.00302723 -1.13441e-19)
(-0.0720006 -0.0070223 7.09107e-20)
(-0.0755849 -0.011162 -9.9768e-20)
(-0.077826 -0.0153828 2.17994e-19)
(-0.0786966 -0.019617 -1.16825e-19)
(-0.0781694 -0.0237924 5.43726e-20)
(-0.0762171 -0.0278318 1.5148e-19)
(-0.0728109 -0.031657 -4.83109e-20)
(-0.0679146 -0.0351794 -4.47448e-20)
(-0.0614846 -0.0382962 -4.12022e-20)
(-0.0534668 -0.0408779 0)
(-0.0438003 -0.0427414 -6.78888e-20)
(-0.0324588 -0.0436068 -6.06024e-20)
(-0.0194725 -0.0430206 8.82141e-20)
(-0.00439961 -0.0400544 1.03845e-19)
(0.0141838 -0.0325855 -9.71434e-20)
(-0.00400963 0.00792413 0)
(-0.0114713 0.0171132 -1.15659e-19)
(-0.0201833 0.0213738 -3.88001e-22)
(-0.0289536 0.0224591 1.02816e-19)
(-0.037103 0.0214778 0)
(-0.0442806 0.0191259 0)
(-0.0502272 0.0158619 0)
(-0.0547519 0.0119839 -4.02471e-20)
(-0.0577244 0.00768621 1.2887e-22)
(-0.0590567 0.00310249 7.12818e-20)
(-0.0586862 -0.00166521 -9.95996e-20)
(-0.0565644 -0.0065303 2.33237e-22)
(-0.052649 -0.0114127 0)
(-0.0468988 -0.0162345 -5.43506e-20)
(-0.039278 -0.0209233 4.99321e-20)
(-0.0297527 -0.0254011 -1.41296e-19)
(-0.0182882 -0.0295869 1.73128e-19)
(-0.00485762 -0.0333971 3.77201e-20)
(0.0105642 -0.0367387 -3.16279e-21)
(0.0279961 -0.0394994 -1.37042e-19)
(0.0474089 -0.0415284 -6.1539e-20)
(0.0687787 -0.0425051 1.95071e-19)
(0.0928422 -0.0412553 -1.28611e-19)
(0.12196 -0.034821 0)
(-0.00549315 0.010168 5.66045e-20)
(-0.0144579 0.0224598 5.79222e-20)
(-0.0232391 0.0287751 -5.5299e-20)
(-0.031028 0.0310828 -1.03804e-19)
(-0.0373716 0.0306956 9.77428e-20)
(-0.0420491 0.0284881 -9.20085e-20)
(-0.0448854 0.0250652 1.30001e-19)
(-0.0457372 0.020839 -4.0182e-20)
(-0.044493 0.0160879 7.63773e-20)
(-0.0410625 0.0110053 0)
(-0.0353674 0.00573398 6.67524e-20)
(-0.0273362 0.000388286 -1.2573e-19)
(-0.0169024 -0.00493384 1.16323e-19)
(-0.00400788 -0.010143 -1.09256e-19)
(0.0113997 -0.0151512 0)
(0.0293601 -0.0198662 9.37332e-20)
(0.0498882 -0.0241994 1.71614e-19)
(0.0729735 -0.0280603 -1.6119e-19)
(0.0985777 -0.0313577 -7.31858e-20)
(0.126631 -0.0340021 -6.5403e-20)
(0.156984 -0.0359161 1.85716e-19)
(0.189549 -0.0369686 5.30749e-20)
(0.223634 -0.0365784 -5.17335e-20)
(0.269052 -0.0309229 4.46496e-20)
(-0.00703192 0.0117791 -5.66122e-20)
(-0.0174864 0.0262984 1.7716e-19)
(-0.0261449 0.0340994 -5.58012e-20)
(-0.032576 0.0372688 1.04797e-19)
(-0.0365551 0.0372621 -9.86773e-20)
(-0.0379933 0.0350943 4.71957e-22)
(-0.0367984 0.0314884 4.38192e-20)
(-0.0328697 0.0269526 1.64097e-19)
(-0.026106 0.0218399 -4.63539e-22)
(-0.0164054 0.0164003 -7.19747e-20)
(-0.00366569 0.0108187 0)
(0.0122104 0.0052405 -6.24941e-20)
(0.0313086 -0.000210626 1.17615e-19)
(0.0536959 -0.00542082 1.08397e-19)
(0.0794089 -0.0102786 -5.1172e-20)
(0.108443 -0.0146763 -1.89583e-24)
(0.140742 -0.0185062 -4.32782e-20)
(0.176185 -0.0216602 7.95172e-20)
(0.214591 -0.024033 7.31681e-20)
(0.255723 -0.0255194 -6.69101e-20)
(0.299087 -0.0260819 6.05844e-20)
(0.345354 -0.0253951 -5.48563e-20)
(0.388709 -0.0244358 0)
(0.454721 -0.0168863 -4.45803e-20)
(-0.00852196 0.0127578 5.7819e-20)
(-0.0202735 0.0285737 -5.93012e-20)
(-0.0284624 0.0372205 5.66596e-20)
(-0.033004 0.0408306 0)
(-0.033884 0.0409511 0)
(-0.0311372 0.0387046 9.44238e-20)
(-0.0247433 0.0349034 -8.80293e-20)
(-0.0146332 0.030134 8.24971e-20)
(-0.000708593 0.0248152 -3.86598e-19)
(0.0171454 0.0192504 3.30262e-22)
(0.0390442 0.0136679 6.77459e-20)
(0.0650865 0.00825007 0)
(0.0953339 0.00315315 -1.16935e-19)
(0.129789 -0.00148327 2.18398e-19)
(0.16838 -0.00552913 -1.52581e-19)
(0.21094 -0.00886213 -2.32595e-19)
(0.257203 -0.0113672 3.34879e-21)
(0.306792 -0.0129385 1.60306e-19)
(0.359221 -0.0134882 0)
(0.414029 -0.0128856 0)
(0.46985 -0.0113574 -6.05755e-20)
(0.529448 -0.00768765 5.4847e-20)
(0.578773 -0.00547012 -1.93258e-19)
(0.662563 0.00566958 1.81409e-19)
(-0.00986721 0.01314 0)
(-0.0225134 0.02931 0)
(-0.029668 0.0381243 -1.70711e-19)
(-0.0315544 0.0417193 5.42299e-20)
(-0.0283425 0.0417057 2.6823e-22)
(-0.0201658 0.0392764 9.56388e-20)
(-0.00706982 0.0353125 0)
(0.0109925 0.0304657 -8.34031e-20)
(0.0341094 0.0252131 7.75556e-20)
(0.06238 0.0199083 -1.45368e-19)
(0.0958791 0.0148238 4.75897e-22)
(0.134618 0.010179 1.26035e-19)
(0.178509 0.00615574 -1.22869e-21)
(0.227335 0.0029081 1.07278e-19)
(0.280726 0.000566065 -1.53451e-19)
(0.338153 -0.000764925 0)
(0.398934 -0.00100572 1.70515e-19)
(0.462249 -0.000104823 -2.39336e-19)
(0.527139 0.00193468 7.21318e-20)
(0.592854 0.00524907 0)
(0.657097 0.00916334 5.98302e-20)
(0.724167 0.0157828 2.14283e-19)
(0.775065 0.0193053 -2.01099e-19)
(0.863267 0.0332431 -2.21185e-19)
(-0.0109741 0.0129793 1.78847e-19)
(-0.0238647 0.0285877 -2.46288e-19)
(-0.029136 0.0369023 3.275e-22)
(-0.0272775 0.040051 5.49103e-20)
(-0.0186296 0.0396805 -1.02624e-19)
(-0.0034059 0.0370361 -9.51251e-20)
(0.0182966 0.033059 1.78572e-19)
(0.046477 0.0284537 -1.49527e-21)
(0.0811661 0.023745 -1.57039e-19)
(0.122356 0.0193289 2.91861e-19)
(0.169941 0.0155112 -1.32957e-21)
(0.223658 0.0125286 -1.27525e-19)
(0.283039 0.0105595 0)
(0.34739 0.00972922 0)
(0.415791 0.0101106 -5.06189e-20)
(0.487115 0.0117232 -9.29598e-20)
(0.560079 0.0145339 -1.69575e-19)
(0.633306 0.0184586 1.59177e-19)
(0.705381 0.0233537 -7.21566e-20)
(0.775115 0.0291709 1.29046e-19)
(0.840456 0.0352161 -6.37788e-20)
(0.904095 0.0431148 1.02904e-19)
(0.951793 0.0476218 -2.48562e-19)
(1.02555 0.0612733 4.42883e-20)
(-0.0117346 0.0123298 6.04421e-20)
(-0.0239126 0.0265281 0)
(-0.0260844 0.0337493 1.1747e-19)
(-0.0189999 0.0361109 -1.10662e-19)
(-0.00314525 0.0352858 1.02716e-19)
(0.0211781 0.0325687 0)
(0.0537961 0.0289435 0)
(0.0945854 0.0251496 -8.41142e-20)
(0.143379 0.0217399 1.20288e-21)
(0.199867 0.0191302 7.42089e-20)
(0.263501 0.01762 -6.77664e-20)
(0.33344 0.0174068 1.27829e-19)
(0.408524 0.0185921 0)
(0.487296 0.0211852 2.16448e-19)
(0.568061 0.0251075 -4.02757e-19)
(0.648983 0.0302002 2.80339e-19)
(0.728191 0.03624 1.6808e-19)
(0.803893 0.042942 -1.57778e-19)
(0.874521 0.0500407 0)
(0.938675 0.0571311 0)
(0.995572 0.0641017 0)
(1.04482 0.0706183 0)
(1.08339 0.0756022 4.88068e-20)
(1.128 0.0841075 -1.75258e-19)
(-0.16474 -0.0143518 -5.12887e-21)
(-0.16809 0.00284713 5.15062e-21)
(-0.170837 0.0234836 -1.49822e-22)
(-0.173105 0.0474398 0)
(-0.174636 0.07455 -4.59134e-21)
(-0.175191 0.104478 8.8764e-21)
(-0.174523 0.136663 -5.79153e-23)
(-0.17237 0.17026 -4.11423e-21)
(-0.168451 0.204068 0)
(-0.162471 0.23659 0)
(-0.154128 0.266015 -2.20826e-22)
(-0.143091 0.290218 -2.15029e-22)
(-0.128969 0.306749 -3.6006e-21)
(-0.11128 0.312923 3.29403e-21)
(-0.0893807 0.305931 0)
(-0.0627157 0.283351 0)
(-0.0309849 0.243333 3.41095e-21)
(0.00578958 0.184806 1.19682e-22)
(0.0471419 0.108548 -3.1152e-21)
(0.0915238 0.0167817 -2.18875e-22)
(0.137615 -0.0850642 0)
(0.183816 -0.189975 0)
(0.227314 -0.287888 0)
(0.264443 -0.369108 0)
(0.290061 -0.428493 0)
(0.297787 -0.468244 0)
(0.282797 -0.495955 4.629e-22)
(0.248229 -0.514849 -7.44505e-22)
(0.211606 -0.512729 0)
(0.19948 -0.464629 0)
(0.226157 -0.355735 -6.38731e-22)
(0.281773 -0.19829 6.20753e-22)
(0.350872 -0.0212837 2.97828e-22)
(0.422877 0.14469 0)
(0.487513 0.274805 0)
(0.537093 0.35772 3.65107e-22)
(0.570059 0.395071 -3.54895e-22)
(0.577903 0.405601 0)
(0.542481 0.415146 2.07821e-22)
(0.474881 0.418957 -3.08093e-22)
(0.428182 0.373797 1.13573e-22)
(0.443308 0.254772 0)
(0.505218 0.0943953 -2.1707e-22)
(0.582675 -0.0544197 2.11066e-22)
(0.650153 -0.16102 0)
(0.700103 -0.218597 0)
(0.730476 -0.234941 -2.90198e-23)
(0.743428 -0.224905 7.00341e-23)
(0.727478 -0.206859 0)
(0.69512 -0.182283 0)
(0.665658 -0.146571 -2.16556e-24)
(0.673251 -0.0901993 3.47991e-24)
(0.700284 -0.032109 -9.91737e-26)
(0.748808 0.022648 -5.55933e-25)
(0.779213 0.0544331 0)
(0.811132 0.0735953 0)
(0.814471 0.0782231 0)
(0.825972 0.0682905 0)
(0.817526 0.0646381 0)
(0.835851 0.0302309 0)
(-0.152739 -0.0119979 -4.66088e-22)
(-0.155458 0.00434093 -1.919e-20)
(-0.157139 0.0241102 3.59317e-22)
(-0.158271 0.0470683 1.76796e-20)
(-0.158468 0.0730204 2.58364e-22)
(-0.157388 0.101627 0)
(-0.154681 0.132349 -1.5549e-20)
(-0.150016 0.164414 3.05716e-20)
(-0.142992 0.196534 -1.5022e-20)
(-0.133165 0.227267 1.4311e-20)
(-0.120128 0.25481 -1.36891e-20)
(-0.103516 0.277013 1.36365e-20)
(-0.0829774 0.291387 -1.32447e-20)
(-0.0582207 0.295249 -4.31519e-22)
(-0.0287865 0.285838 -1.42301e-20)
(0.00574096 0.260891 1.38287e-20)
(0.0449953 0.218437 -1.48782e-20)
(0.0881712 0.157855 1.39797e-20)
(0.134364 0.0800399 -1.52369e-20)
(0.181911 -0.0124047 2.93902e-20)
(0.229486 -0.11427 -1.41686e-20)
(0.27562 -0.218254 -8.34122e-22)
(0.317735 -0.313708 -1.07254e-20)
(0.352024 -0.389867 1.93607e-20)
(0.373994 -0.44061 -8.68605e-21)
(0.378558 -0.468002 3.95208e-22)
(0.359926 -0.482072 4.88753e-21)
(0.316114 -0.492321 -4.03253e-22)
(0.258971 -0.493677 -7.73947e-21)
(0.216161 -0.461682 7.61554e-21)
(0.213698 -0.371612 -3.80984e-21)
(0.251667 -0.22613 4.80527e-22)
(0.312381 -0.0538015 -2.98439e-22)
(0.381009 0.112537 4.71665e-22)
(0.446336 0.247629 0)
(0.50057 0.33812 0)
(0.537812 0.38587 -1.15005e-21)
(0.543424 0.411232 8.57095e-22)
(0.504353 0.433968 6.91767e-22)
(0.44505 0.437562 1.65396e-22)
(0.420381 0.377167 -1.05127e-21)
(0.456626 0.240838 2.90775e-22)
(0.53096 0.0715077 0)
(0.613678 -0.0775499 0)
(0.681556 -0.179152 0)
(0.728221 -0.230523 0)
(0.754174 -0.241434 1.55954e-22)
(0.766599 -0.225392 -4.18484e-23)
(0.755481 -0.201138 0)
(0.724896 -0.173991 0)
(0.687848 -0.142159 0)
(0.679336 -0.0926781 3.29552e-24)
(0.692683 -0.0396286 3.41437e-24)
(0.731546 0.0142154 -1.67932e-24)
(0.759118 0.0477886 0)
(0.789337 0.0697924 0)
(0.794989 0.0764752 -5.57183e-24)
(0.810461 0.0675354 -1.6756e-23)
(0.806765 0.063235 0)
(0.834637 0.0279494 0)
(-0.117668 -0.0126187 -3.29023e-22)
(-0.119634 0.00259851 -3.68078e-20)
(-0.119734 0.0213247 3.51568e-20)
(-0.119268 0.0431162 -3.29003e-20)
(-0.117705 0.0677488 -2.60137e-22)
(-0.114608 0.0948762 0)
(-0.109512 0.123964 -2.98572e-20)
(-0.102168 0.154456 2.92269e-20)
(-0.0920992 0.184739 2.25228e-22)
(-0.0786772 0.213482 4.19238e-22)
(-0.0614586 0.239003 4.1727e-22)
(-0.0400781 0.259189 4.27379e-22)
(-0.0142279 0.271555 -2.81557e-20)
(0.0162414 0.2734 2.77963e-20)
(0.0515161 0.26225 0)
(0.0916261 0.235887 9.50854e-22)
(0.135838 0.192277 -3.18042e-20)
(0.183083 0.131115 3.13834e-20)
(0.232051 0.0533486 0)
(0.281092 -0.0383907 0)
(0.328924 -0.139228 -3.02424e-20)
(0.37409 -0.241685 5.64601e-20)
(0.413813 -0.334543 -4.80951e-20)
(0.443852 -0.406178 4.03976e-21)
(0.460311 -0.449744 3.21375e-20)
(0.460328 -0.466632 -2.60181e-20)
(0.439757 -0.467266 1.92993e-20)
(0.393065 -0.465545 -1.91752e-21)
(0.323813 -0.464776 -6.92606e-21)
(0.254952 -0.44602 0)
(0.220122 -0.378302 0)
(0.23421 -0.25065 2.67709e-21)
(0.282939 -0.0863363 -3.42768e-21)
(0.346614 0.0791856 -8.67916e-23)
(0.411579 0.218407 2.95412e-21)
(0.468472 0.316765 -2.87086e-21)
(0.50655 0.376746 0)
(0.50864 0.417851 2.6188e-22)
(0.469621 0.451348 2.2962e-21)
(0.424023 0.451066 -4.76406e-21)
(0.422355 0.374817 2.15887e-21)
(0.477332 0.223668 3.76124e-22)
(0.562068 0.0479395 -2.90886e-21)
(0.648211 -0.100167 2.20628e-21)
(0.715048 -0.196098 4.01631e-22)
(0.757848 -0.240993 2.69982e-22)
(0.778497 -0.247049 -1.56344e-22)
(0.788053 -0.226483 0)
(0.780565 -0.196762 0)
(0.754282 -0.16579 1.91296e-23)
(0.714673 -0.135579 -1.36278e-23)
(0.693165 -0.09191 4.21089e-23)
(0.692813 -0.0444121 -3.7859e-23)
(0.71978 0.00733525 -4.3472e-23)
(0.742996 0.0417549 4.12712e-24)
(0.77053 0.0659354 -2.03477e-23)
(0.779175 0.0740353 2.20393e-23)
(0.799315 0.0658171 -1.03137e-23)
(0.80153 0.0604329 0)
(0.838397 0.0248006 0)
(-0.060794 -0.0155979 -7.23771e-20)
(-0.0627515 -0.00164211 2.20469e-21)
(-0.0615501 0.0155753 6.64619e-20)
(-0.0596005 0.0359046 -5.10555e-22)
(-0.0563751 0.0589858 0)
(-0.0513759 0.0844405 0)
(-0.0438821 0.111781 -5.64596e-20)
(-0.0339983 0.140115 -7.29715e-22)
(-0.0214885 0.168287 8.06619e-20)
(-0.00514304 0.195095 2.22232e-22)
(0.0155026 0.218772 -2.65778e-20)
(0.0406742 0.237181 -2.68309e-20)
(0.0705268 0.247905 2.68825e-20)
(0.105122 0.248327 0)
(0.144396 0.236151 -3.09684e-20)
(0.188093 0.209174 2.81479e-20)
(0.235315 0.16573 0)
(0.284817 0.105399 0)
(0.335196 0.0289307 3.3948e-20)
(0.384903 -0.0609101 -7.44417e-23)
(0.432657 -0.159996 -3.09963e-20)
(0.476749 -0.260597 -2.83713e-20)
(0.513731 -0.350753 2.82887e-20)
(0.538706 -0.417996 -1.96185e-20)
(0.548166 -0.455296 4.20217e-21)
(0.54134 -0.46398 1.43239e-20)
(0.517664 -0.453338 1.16833e-21)
(0.47198 -0.438358 4.7064e-23)
(0.399891 -0.429698 0)
(0.314009 -0.417823 4.61216e-21)
(0.248019 -0.372183 -4.71538e-21)
(0.231848 -0.26838 3.70132e-22)
(0.262939 -0.117485 0)
(0.31912 0.0450187 -3.89919e-22)
(0.382102 0.187715 5.09885e-21)
(0.439126 0.294636 -9.08146e-21)
(0.475476 0.368124 -3.46053e-22)
(0.474841 0.424406 -1.06798e-23)
(0.440532 0.465579 3.60211e-21)
(0.412654 0.458842 5.47968e-22)
(0.433459 0.367631 -5.56685e-21)
(0.504974 0.204332 4.73764e-21)
(0.598187 0.0243803 -6.53762e-23)
(0.685795 -0.121757 1.99508e-21)
(0.749977 -0.211639 -2.34238e-21)
(0.788249 -0.249964 -1.75041e-21)
(0.8034 -0.251484 5.38708e-22)
(0.808449 -0.227685 2.3631e-22)
(0.802619 -0.193756 -2.80916e-22)
(0.781595 -0.158539 4.46353e-23)
(0.743809 -0.127924 4.75768e-23)
(0.713609 -0.0884469 -4.11331e-23)
(0.701112 -0.0463456 -6.13541e-23)
(0.715082 0.00235009 9.96246e-23)
(0.732767 0.0365651 -8.05698e-24)
(0.756848 0.0620386 2.96727e-23)
(0.76897 0.0707808 0)
(0.793988 0.0629954 1.38306e-23)
(0.802691 0.0562348 -8.73553e-24)
(0.847007 0.0208862 0)
(0.019886 -0.020282 7.01918e-20)
(0.0157255 -0.00739389 -1.34873e-19)
(0.016458 0.00767552 6.40507e-20)
(0.0188333 0.0259554 6.00004e-20)
(0.0226633 0.0470618 -1.16245e-19)
(0.0286124 0.0705564 9.29751e-22)
(0.0372446 0.0958838 5.42482e-20)
(0.0487158 0.121906 5.27349e-20)
(0.0633338 0.148088 -5.16685e-20)
(0.0818802 0.17311 0)
(0.104797 0.195109 -5.36042e-20)
(0.132394 0.211969 1.07335e-19)
(0.164787 0.221402 -5.36978e-20)
(0.201943 0.220985 0)
(0.243604 0.208513 0)
(0.289317 0.181923 9.94666e-22)
(0.338114 0.139693 -6.88992e-20)
(0.388636 0.0812384 6.69269e-20)
(0.43982 0.00718611 0)
(0.490021 -0.0799545 7.02822e-20)
(0.537764 -0.176672 -1.29766e-19)
(0.580931 -0.274867 1.18471e-19)
(0.614943 -0.361788 -1.0472e-19)
(0.63425 -0.424308 8.03152e-21)
(0.635918 -0.455817 6.81501e-20)
(0.620784 -0.458442 -2.95183e-20)
(0.591649 -0.440156 -5.75562e-22)
(0.547114 -0.413821 -5.01258e-21)
(0.479139 -0.39388 1.36065e-21)
(0.387798 -0.381261 3.79996e-21)
(0.298008 -0.352416 2.36685e-22)
(0.248313 -0.275285 -3.57296e-21)
(0.254182 -0.144396 7.46866e-21)
(0.298004 0.0112565 -4.30365e-21)
(0.356265 0.156268 0)
(0.411016 0.272154 -4.70142e-21)
(0.444689 0.359426 4.55463e-21)
(0.443869 0.429229 -3.79062e-21)
(0.418969 0.475164 4.69951e-21)
(0.411137 0.46086 -6.48763e-22)
(0.452922 0.356576 0)
(0.538908 0.183695 -8.29568e-22)
(0.638792 0.000943067 2.26158e-21)
(0.726032 -0.141838 0)
(0.785896 -0.225452 3.93814e-21)
(0.81875 -0.257374 -1.75095e-21)
(0.82851 -0.254604 3.43973e-22)
(0.828303 -0.228544 1.80912e-22)
(0.822042 -0.191862 0)
(0.80581 -0.152761 0)
(0.772964 -0.120268 1.7843e-22)
(0.738825 -0.0831386 -3.32106e-22)
(0.717169 -0.0456676 1.9763e-22)
(0.718541 -0.000606531 -6.66729e-23)
(0.730112 0.03237 -8.80576e-23)
(0.750254 0.0581231 -2.97011e-23)
(0.765966 0.0666799 5.30955e-23)
(0.795451 0.0590572 0)
(0.810523 0.050801 1.74794e-23)
(0.859934 0.0163956 3.85968e-24)
(0.128088 -0.0242472 6.91336e-20)
(0.121433 -0.0125466 -6.85663e-20)
(0.118044 0.000281742 4.95818e-22)
(0.118338 0.0157944 -4.5375e-22)
(0.120595 0.034258 4.49507e-22)
(0.125283 0.0552517 -4.31434e-22)
(0.133034 0.0781166 8.00427e-22)
(0.144215 0.10198 0)
(0.159128 0.126062 -7.75742e-22)
(0.178227 0.149044 7.79949e-22)
(0.201893 0.169249 7.95538e-22)
(0.230389 0.18468 -8.41604e-22)
(0.263794 0.193162 0)
(0.302012 0.19241 0)
(0.344672 0.180303 9.56863e-22)
(0.391185 0.154896 0)
(0.440573 0.11469 -1.05648e-21)
(0.491531 0.0589311 0)
(0.543243 -0.0117671 -6.94462e-20)
(0.593942 -0.095746 1.36943e-19)
(0.641926 -0.189418 -1.30377e-19)
(0.684193 -0.284397 6.30389e-20)
(0.71477 -0.367316 4.88751e-20)
(0.727614 -0.424873 -4.74594e-20)
(0.720916 -0.451162 -3.07935e-20)
(0.697255 -0.449286 2.96614e-20)
(0.661352 -0.426727 0)
(0.615906 -0.392952 3.53811e-22)
(0.554622 -0.361536 0)
(0.468208 -0.341772 0)
(0.36686 -0.321422 3.25264e-21)
(0.286842 -0.268707 -3.29208e-21)
(0.260767 -0.163218 1.7091e-22)
(0.284812 -0.0203309 4.25515e-22)
(0.333828 0.124756 -3.01099e-22)
(0.384086 0.24897 -3.47947e-21)
(0.415546 0.349285 3.37863e-21)
(0.417936 0.430613 -4.71083e-21)
(0.406303 0.479193 4.08933e-21)
(0.41916 0.457541 1.34433e-21)
(0.479891 0.342548 -6.81785e-21)
(0.578289 0.162639 -1.17762e-21)
(0.683128 -0.0214208 5.07026e-21)
(0.768394 -0.159859 0)
(0.822381 -0.237204 -1.89962e-21)
(0.848847 -0.263163 1.40048e-21)
(0.853309 -0.256424 -1.95155e-21)