/*--------------------------------*- C++ -*----------------------------------*\
| =========                 |                                                 |
| \\      /  F ield         | OpenFOAM: The Open Source CFD Toolbox           |
|  \\    /   O peration     | Version:  2512                                  |
|   \\  /    A nd           | Website:  www.openfoam.com                      |
|    \\/     M anipulation  |                                                 |
\*---------------------------------------------------------------------------*/
FoamFile
{
    version     2.0;
    format      ascii;
    arch        "LSB;label=32;scalar=64";
    class       volVectorField;
    location    "115.25";
    object      U;
}
// * * * * * * * * * * * * * * * * * * * * * * * * * * * * * * * * * * * * * //

dimensions      [0 1 -1 0 0 0 0];

internalField   nonuniform List<vector> 
13248
(
(-0.0116445 0.0118139 8.98415e-20)
(-0.0167108 0.0226604 0)
(-0.00449347 0.0258534 -1.70454e-19)
(0.0229471 0.0233594 1.60565e-19)
(0.0643262 0.0170662 1.51051e-19)
(0.118763 0.00860878 0)
(0.185402 -0.000747865 0)
(0.26314 -0.0100491 3.69385e-19)
(0.350395 -0.0185827 -1.86943e-21)
(0.444956 -0.0258387 -3.22411e-19)
(0.543979 -0.031489 2.9592e-19)
(0.644139 -0.0353737 -1.84991e-19)
(0.741898 -0.0374875 0)
(0.833839 -0.0379556 -3.00532e-19)
(0.916994 -0.0369997 5.53131e-19)
(0.989112 -0.0348982 -1.31691e-19)
(1.04882 -0.0319423 -2.15697e-19)
(1.09565 -0.0284089 2.02504e-19)
(1.13004 -0.0244961 0)
(1.15306 -0.0204768 0)
(1.16647 -0.0160959 0)
(1.17155 -0.0126383 0)
(1.17183 -0.00705168 4.91323e-20)
(1.16465 -0.00796789 1.60912e-19)
(-0.00981668 0.00901646 -2.71189e-19)
(-0.00868737 0.0154111 1.84882e-19)
(0.0127294 0.0159136 -1.25272e-21)
(0.0522592 0.0122521 -2.44793e-19)
(0.108403 0.0061525 -1.50887e-19)
(0.179841 -0.000842065 -1.42687e-19)
(0.264949 -0.00755062 -2.64055e-19)
(0.361493 -0.0131302 2.48798e-19)
(0.466454 -0.0170433 0)
(0.576037 -0.0190424 1.78872e-21)
(0.685913 -0.019146 3.16188e-21)
(0.791619 -0.0175943 1.82971e-19)
(0.889033 -0.0147824 0)
(0.974809 -0.0111793 0)
(1.04668 -0.00724717 1.97244e-19)
(1.10361 -0.00337441 -3.70295e-19)
(1.14573 0.000168041 2.09454e-19)
(1.17421 0.00324219 -1.96655e-19)
(1.19094 0.00583853 -8.29847e-20)
(1.19822 0.00802332 -1.42824e-19)
(1.19843 0.0100401 -5.4566e-20)
(1.19385 0.011654 -9.9946e-20)
(1.18639 0.0145964 1.54659e-19)
(1.17625 0.0134122 4.23489e-20)
(-0.00700871 0.0061283 0)
(0.00291973 0.00782328 0)
(0.0365111 0.00568554 8.66286e-20)
(0.0912346 0.00127124 8.02466e-20)
(0.165079 -0.00382897 -1.43151e-21)
(0.255846 -0.00819579 -1.45751e-19)
(0.360557 -0.0108475 0)
(0.475227 -0.0112499 -1.23775e-19)
(0.594916 -0.00929183 1.15022e-19)
(0.714091 -0.00524312 -4.34331e-22)
(0.827223 0.000333656 -1.94975e-19)
(0.929442 0.00671192 -1.75375e-19)
(1.01709 0.013145 5.81373e-21)
(1.08806 0.0189939 -1.37108e-19)
(1.14184 0.0238154 3.35461e-19)
(1.17937 0.0273986 0)
(1.20267 0.0297533 -2.03248e-19)
(1.21438 0.0310595 9.9631e-20)
(1.21739 0.0316101 8.29138e-20)
(1.21439 0.0317012 0)
(1.20772 0.0317308 6.3868e-20)
(1.19903 0.0315884 -2.13702e-19)
(1.18967 0.0325111 2.00608e-19)
(1.17996 0.0303825 1.19168e-19)
(-0.00287903 0.00319288 -9.49524e-20)
(0.0189948 0.000327497 -9.79116e-20)
(0.0681595 -0.00383094 8.91879e-20)
(0.141344 -0.00798256 0)
(0.235514 -0.010753 0)
(0.346924 -0.0109851 -2.02884e-21)
(0.470546 -0.00812683 0)
(0.600129 -0.00224462 -3.72019e-19)
(0.728735 0.00606714 3.44613e-19)
(0.849585 0.0158412 -4.24765e-19)
(0.956959 0.0259519 9.69505e-20)
(1.0469 0.0353409 0)
(1.11752 0.0431984 1.55296e-19)
(1.16897 0.0490625 -2.85269e-19)
(1.20304 0.0528313 6.79562e-20)
(1.22257 0.0547007 1.65835e-19)
(1.23091 0.0550613 -1.14058e-20)
(1.23128 0.0543861 -1.82204e-19)
(1.22653 0.0531345 0)
(1.21883 0.0516837 0)
(1.20974 0.0503525 -6.07313e-20)
(1.20021 0.0490892 5.34154e-20)
(1.19094 0.0488125 1.83553e-19)
(1.18162 0.0459431 -1.72352e-19)
(0.00299693 0.00025824 -9.89918e-20)
(0.0404473 -0.00663562 -9.901e-20)
(0.108726 -0.011651 2.78835e-19)
(0.203307 -0.0139863 -1.70031e-19)
(0.31942 -0.0127055 1.60043e-19)
(0.450991 -0.00719102 2.92054e-19)
(0.590363 0.00233937 -2.05677e-19)
(0.728964 0.0149065 -2.48454e-19)
(0.858493 0.0290406 6.08964e-21)
(0.972161 0.0431227 3.18277e-19)
(1.06557 0.0557195 0)
(1.13706 0.0658275 8.53739e-20)
(1.18741 0.0729767 0)
(1.21927 0.0771964 -1.35628e-19)
(1.23629 0.078885 1.90334e-19)
(1.24235 0.0786413 1.72301e-21)
(1.241 0.0771061 -4.8268e-20)
(1.2351 0.0748497 8.83478e-20)
(1.22674 0.0723132 7.56474e-20)
(1.2173 0.0697964 -6.68107e-20)
(1.20762 0.0674848 6.07154e-20)
(1.19815 0.0653692 -5.34009e-20)
(1.18912 0.0639291 0)
(1.18045 0.0605821 -4.01465e-20)
(0.0110476 -0.00254748 9.89776e-20)
(0.0680378 -0.0124861 1.03271e-19)
(0.158757 -0.0166964 -9.32732e-20)
(0.2768 -0.0152664 1.73673e-19)
(0.414845 -0.0080827 -1.63462e-19)
(0.56382 0.00451914 1.47963e-19)
(0.713333 0.0211798 -7.07572e-20)
(0.853197 0.0398217 1.86648e-19)
(0.975161 0.0581941 -1.16702e-19)
(1.0741 0.0743746 2.0441e-19)
(1.14837 0.0870995 -4.69584e-19)
(1.19935 0.0958669 1.71351e-19)
(1.23048 0.10084 -1.47798e-19)
(1.24617 0.102627 1.3883e-19)
(1.25088 0.10204 1.1727e-19)
(1.24845 0.0998867 1.01008e-19)
(1.2418 0.0968452 -2.80807e-19)
(1.233 0.0934172 1.73365e-19)
(1.22331 0.089933 -7.56487e-20)
(1.21349 0.0865874 1.94383e-19)
(1.20393 0.0834798 -6.28094e-20)
(1.19481 0.0806176 -1.49341e-19)
(1.18623 0.0782373 1.37278e-19)
(1.17803 0.074562 4.01338e-20)
(0.0216295 -0.00497988 0)
(0.102212 -0.0164444 5.9907e-22)
(0.218096 -0.0177633 1.92789e-19)
(0.360319 -0.0104395 -1.81092e-19)
(0.518275 0.00428733 -1.63613e-19)
(0.679668 0.0246618 3.03956e-19)
(0.832038 0.0479412 -1.41098e-19)
(0.965093 0.0710596 1.87458e-19)
(1.07244 0.0914107 -4.55891e-21)
(1.15211 0.107331 -1.05533e-19)
(1.20585 0.118216 2.28347e-19)
(1.23786 0.12434 -3.35494e-19)
(1.25337 0.126531 0)
(1.25744 0.125831 -6.46711e-20)
(1.2543 0.123232 -1.70889e-19)
(1.24706 0.119541 5.39785e-20)
(1.2378 0.115335 2.53443e-21)
(1.2278 0.110988 -1.13779e-19)
(1.21776 0.106719 8.6931e-21)
(1.20802 0.102644 1.30823e-19)
(1.19876 0.0988163 -5.69677e-20)
(1.19001 0.0952545 -2.13034e-20)
(1.18175 0.0920017 6.68612e-20)
(1.17389 0.0880105 0)
(0.0349648 -0.00667974 0)
(0.142963 -0.0175517 5.21384e-20)
(0.285753 -0.013585 -2.49662e-19)
(0.451196 0.00166846 9.09304e-20)
(0.625039 0.0250181 -8.55799e-20)
(0.792268 0.0529325 -7.77734e-20)
(0.939861 0.0813549 -1.3774e-19)
(1.05935 0.106703 6.87354e-20)
(1.1478 0.12666 5.99613e-20)
(1.20701 0.140368 0)
(1.24187 0.14816 1.34503e-19)
(1.25844 0.151091 -1.98725e-19)
(1.26259 0.15047 1.47932e-19)
(1.25907 0.147523 6.47043e-20)
(1.25133 0.143224 -5.22363e-20)
(1.24161 0.138259 -4.29641e-20)
(1.23122 0.133063 -3.96868e-20)
(1.22087 0.127888 1.20335e-19)
(1.21089 0.122871 0)
(1.20143 0.118081 5.90486e-20)
(1.1925 0.113546 4.8718e-20)
(1.1841 0.109279 -1.21936e-19)
(1.17616 0.105227 -8.181e-20)
(1.16859 0.100933 7.58742e-20)
(0.0510936 -0.00720348 -5.52269e-20)
(0.189736 -0.0147625 -1.58708e-21)
(0.359876 -0.00298582 5.0572e-20)
(0.545827 0.0218448 1.4065e-19)
(0.729965 0.0540721 4.072e-20)
(0.895922 0.0883385 -7.87093e-20)
(1.03213 0.119743 7.21917e-20)
(1.1337 0.144916 -6.34058e-20)
(1.20192 0.162463 1.12871e-19)
(1.24214 0.172657 4.79536e-20)
(1.26138 0.176777 -1.35677e-19)
(1.26646 0.176459 3.99345e-20)
(1.26296 0.17324 6.76137e-20)
(1.25483 0.168329 -3.33532e-20)
(1.24459 0.162563 0)
(1.23371 0.156467 4.89641e-20)
(1.22293 0.150342 8.2179e-20)
(1.21259 0.144348 1.35533e-20)
(1.20282 0.138569 -6.80674e-20)
(1.19366 0.133043 2.82873e-20)
(1.18507 0.127788 0)
(1.17698 0.122796 -2.19331e-20)
(1.16933 0.117996 -2.03619e-20)
(1.162 0.113339 0)
(0.0698339 -0.00607136 0)
(0.241392 -0.00708 2.88202e-20)
(0.437842 0.0149343 5.32637e-20)
(0.640053 0.0503407 -1.42516e-19)
(0.828118 0.0907786 4.57627e-20)
(0.986309 0.12945 0)
(1.10649 0.161407 6.88987e-20)
(1.1884 0.184252 -9.6048e-20)
(1.23742 0.197943 -5.61426e-20)
(1.26155 0.203933 2.54658e-20)
(1.26884 0.204255 -4.01017e-20)
(1.26593 0.200863 9.77226e-20)
(1.2576 0.195301 4.87072e-20)
(1.24685 0.188633 -3.40384e-20)
(1.23538 0.181519 -3.37527e-21)
(1.22405 0.174327 -9.1915e-20)
(1.21324 0.167256 4.17652e-20)
(1.20308 0.160402 -9.63137e-22)
(1.19361 0.153813 0)
(1.18478 0.147514 -2.83165e-20)
(1.17653 0.141509 0)
(1.16877 0.135771 6.33144e-20)
(1.16141 0.130268 -7.51905e-20)
(1.15433 0.125172 3.41596e-20)
(0.0907572 -0.00281874 -1.47476e-20)
(0.29623 0.00631349 -7.2049e-20)
(0.516467 0.0406522 8.16568e-20)
(0.729646 0.0868167 4.81215e-20)
(0.915391 0.133963 -2.30859e-20)
(1.06078 0.17467 3.85857e-20)
(1.16253 0.204865 -1.88134e-20)
(1.22517 0.223719 3.12887e-20)
(1.25744 0.232684 0)
(1.26884 0.234234 7.06197e-20)
(1.26751 0.23088 -2.94002e-21)
(1.25937 0.22465 -5.69128e-20)
(1.24818 0.216951 2.43348e-20)
(1.23607 0.208646 -2.73734e-20)
(1.22409 0.200216 -1.03523e-20)
(1.2127 0.191907 1.20098e-20)
(1.20206 0.183839 -9.24779e-21)
(1.1922 0.17607 -4.9821e-20)
(1.18307 0.168626 3.05366e-20)
(1.17461 0.161518 6.238e-21)
(1.16672 0.154736 5.47239e-21)
(1.1593 0.148245 4.80103e-21)
(1.15226 0.14208 0)
(1.14545 0.136437 0)
(0.113261 0.00296602 1.47578e-20)
(0.352222 0.0259662 -1.48089e-20)
(0.592454 0.0741429 -2.71439e-20)
(0.810879 0.130391 0)
(0.988882 0.182151 -1.14097e-20)
(1.11821 0.222467 -1.01837e-20)
(1.20103 0.24897 -1.75046e-20)
(1.24617 0.262711 0)
(1.26466 0.266548 0)
(1.26653 0.263699 0)
(1.25932 0.256884 0)
(1.24795 0.248027 0)
(1.23522 0.238317 -1.52678e-20)
(1.22254 0.228412 6.95064e-21)
(1.2105 0.218642 1.20609e-20)
(1.19931 0.20916 5.624e-21)
(1.18899 0.200033 1.3904e-20)
(1.17952 0.191289 0)
(1.17082 0.182941 -3.3176e-21)
(1.16279 0.174988 -3.13313e-21)
(1.15533 0.167405 -5.48106e-21)
(1.14833 0.160165 -4.80865e-21)
(1.14168 0.153367 0)
(1.13523 0.14708 3.43428e-21)
(-0.000971491 -0.0185531 8.88614e-21)
(-0.00599723 -0.0534763 -9.2341e-21)
(-0.0162462 -0.0853282 -1.74941e-20)
(-0.0294006 -0.112982 0)
(-0.044134 -0.136217 -2.33951e-20)
(-0.0596822 -0.155595 7.32501e-21)
(-0.0754237 -0.172108 -1.39113e-20)
(-0.0908589 -0.186822 0)
(-0.105619 -0.200636 0)
(-0.119446 -0.214144 0)
(-0.132159 -0.227615 0)
(-0.143633 -0.241034 0)
(-0.153762 -0.254171 1.38888e-23)
(-0.162446 -0.266637 -9.23704e-21)
(-0.169576 -0.277935 1.74575e-20)
(-0.175025 -0.287474 2.47611e-20)
(-0.178648 -0.294596 7.69704e-21)
(-0.180292 -0.298581 0)
(-0.179809 -0.298674 7.04618e-21)
(-0.177079 -0.29413 -1.95466e-20)
(-0.171981 -0.284264 -1.21635e-20)
(-0.164317 -0.268468 -1.14297e-20)
(-0.154075 -0.246174 0)
(-0.142449 -0.217215 0)
(-0.000696519 -0.0131365 -2.67581e-20)
(-0.00560935 -0.0408915 4.61637e-20)
(-0.0166909 -0.0680783 -1.75087e-20)
(-0.0311097 -0.0927536 -3.32236e-20)
(-0.0472732 -0.114232 4.68871e-20)
(-0.0642973 -0.132784 -2.9639e-20)
(-0.0814917 -0.149179 4.17883e-20)
(-0.0983303 -0.164308 2.65458e-20)
(-0.114454 -0.178932 0)
(-0.129634 -0.193543 -2.33997e-20)
(-0.143735 -0.208343 -1.37297e-22)
(-0.156675 -0.223289 2.07001e-20)
(-0.168396 -0.238147 2.9523e-20)
(-0.178844 -0.252549 3.69998e-20)
(-0.187959 -0.266028 -1.7419e-20)
(-0.195664 -0.278033 -4.90918e-20)
(-0.20187 -0.287939 1.51287e-20)
(-0.206474 -0.295052 -5.70518e-20)
(-0.20939 -0.29862 0)
(-0.210569 -0.29787 1.29194e-20)
(-0.209915 -0.292048 1.21516e-20)
(-0.207098 -0.280409 1.14185e-20)
(-0.202127 -0.262178 0)
(-0.19757 -0.23703 0)
(-0.00111738 -0.00680919 0)
(-0.00645609 -0.0263316 9.36891e-20)
(-0.0180971 -0.0483296 -3.53258e-20)
(-0.033046 -0.0698475 3.34044e-20)
(-0.0496225 -0.0895864 -9.5215e-20)
(-0.0669078 -0.107404 0)
(-0.084191 -0.123763 -5.66715e-20)
(-0.100942 -0.139332 2.67826e-20)
(-0.116814 -0.15471 -5.08136e-20)
(-0.131601 -0.170289 2.42915e-20)
(-0.145195 -0.186222 1.34616e-19)
(-0.157542 -0.202449 -6.31857e-20)
(-0.168616 -0.218747 -9.86596e-20)
(-0.178398 -0.234777 -3.69501e-20)
(-0.186869 -0.250108 3.75568e-22)
(-0.194004 -0.264227 1.29209e-19)
(-0.199764 -0.276549 -6.04201e-20)
(-0.204105 -0.286408 7.11849e-22)
(-0.206999 -0.293063 0)
(-0.208474 -0.295713 -4.62837e-20)
(-0.208477 -0.293513 0)
(-0.206541 -0.285588 -4.0278e-20)
(-0.2025 -0.271099 1.44781e-19)
(-0.200389 -0.249848 -1.60652e-21)
(-0.00225019 -0.000186744 0)
(-0.00852119 -0.0110536 6.0446e-22)
(-0.0203431 -0.0276071 3.62522e-20)
(-0.0349598 -0.0458614 -3.4413e-20)
(-0.0508048 -0.0638475 3.16453e-20)
(-0.067015 -0.0809483 1.83061e-19)
(-0.0829064 -0.0972692 -5.73558e-20)
(-0.0979632 -0.113221 -5.48082e-20)
(-0.111848 -0.129234 1.02491e-19)
(-0.124366 -0.145601 -1.44421e-19)
(-0.135415 -0.162427 4.5695e-20)
(-0.144955 -0.179642 4.3001e-20)
(-0.152976 -0.197036 0)
(-0.159487 -0.214294 3.71581e-20)
(-0.164503 -0.231016 0)
(-0.168047 -0.246731 6.44254e-20)
(-0.170143 -0.2609 -1.17432e-19)
(-0.170806 -0.272907 3.03271e-20)
(-0.170062 -0.282058 1.00898e-19)
(-0.167987 -0.287561 4.62439e-20)
(-0.164599 -0.288497 0)
(-0.159374 -0.283811 -1.08451e-19)
(-0.151553 -0.272525 3.56728e-20)
(-0.145633 -0.254534 0)
(-0.003984 0.00608348 0)
(-0.0115837 0.00363353 -1.15511e-19)
(-0.0231451 -0.00747569 -3.72204e-20)
(-0.0365199 -0.0224056 -6.93955e-20)
(-0.0504423 -0.0385743 6.53489e-20)
(-0.0641878 -0.0548861 -6.13816e-20)
(-0.0771415 -0.0710718 1.17369e-19)
(-0.088816 -0.0872748 5.51954e-20)
(-0.0988783 -0.103747 -1.55883e-19)
(-0.107127 -0.120678 9.83436e-20)
(-0.113454 -0.138125 -1.38089e-19)
(-0.117814 -0.156003 3.04275e-19)
(-0.120207 -0.174106 -1.62483e-19)
(-0.120661 -0.192133 7.6012e-20)
(-0.119234 -0.209701 2.08921e-19)
(-0.11601 -0.226367 -6.71587e-20)
(-0.111096 -0.24163 -6.23919e-20)
(-0.104609 -0.254942 -5.56435e-20)
(-0.0966734 -0.265697 0)
(-0.0874338 -0.273205 -8.41199e-20)
(-0.0770526 -0.276615 -6.9028e-20)
(-0.0653086 -0.274809 1.06401e-19)
(-0.0507554 -0.266459 1.1302e-19)
(-0.0346188 -0.250763 -1.04128e-19)
(-0.0060962 0.0114245 0)
(-0.015239 0.0165316 -1.58448e-19)
(-0.0260745 0.0105992 -1.32856e-21)
(-0.0373276 -0.00102 1.40884e-19)
(-0.0481681 -0.0152788 0)
(-0.0580666 -0.0306603 0)
(-0.0665115 -0.0465534 0)
(-0.0730636 -0.0628235 -5.60605e-20)
(-0.0773857 -0.0795416 -2.7816e-22)
(-0.079257 -0.0967862 1.00255e-19)
(-0.0785496 -0.114555 -1.39733e-19)
(-0.075207 -0.132735 2.89828e-22)
(-0.0692315 -0.151111 0)
(-0.0606798 -0.169372 -7.59719e-20)
(-0.0496633 -0.18713 6.95026e-20)
(-0.03635 -0.203938 -1.96379e-19)
(-0.0209619 -0.219305 2.34056e-19)
(-0.00376523 -0.232716 4.59149e-20)
(0.014951 -0.243645 -1.04217e-20)
(0.0348989 -0.251555 -1.73655e-19)
(0.0557365 -0.255871 -7.23741e-20)
(0.0770127 -0.255871 2.1406e-19)
(0.0990232 -0.250133 -1.36534e-19)
(0.128868 -0.234329 0)
(-0.00829914 0.0154114 7.85827e-20)
(-0.0189714 0.0266894 7.95541e-20)
(-0.0286189 0.0253798 -7.70261e-20)
(-0.0369394 0.0169288 -1.44574e-19)
(-0.0436105 0.00463438 1.36137e-19)
(-0.048351 -0.00967783 -1.2941e-19)
(-0.0507588 -0.025089 1.83387e-19)
(-0.0504375 -0.0412218 -5.6129e-20)
(-0.0470718 -0.0579631 1.08579e-19)
(-0.0404174 -0.0752678 0)
(-0.0303264 -0.0930591 9.66608e-20)
(-0.0167402 -0.111181 -1.8179e-19)
(0.000314527 -0.129384 1.66465e-19)
(0.020722 -0.147331 -1.5635e-19)
(0.0442734 -0.164608 0)
(0.0706657 -0.180743 1.30608e-19)
(0.0995077 -0.195224 2.31889e-19)
(0.130338 -0.20753 -2.17554e-19)
(0.162648 -0.217156 -9.39489e-20)
(0.195924 -0.223645 -7.66645e-20)
(0.229602 -0.226652 2.21347e-19)
(0.263418 -0.225821 5.27363e-20)
(0.29589 -0.220429 -5.56942e-20)
(0.341581 -0.204053 4.04089e-20)
(-0.0102975 0.017828 -7.85932e-20)
(-0.0222314 0.0335121 2.48132e-19)
(-0.030232 0.03598 -7.84002e-20)
(-0.0349079 0.0303602 1.47575e-19)
(-0.0364326 0.0199669 -1.3896e-19)
(-0.0347671 0.00681228 8.74433e-22)
(-0.0296649 -0.00795736 6.25372e-20)
(-0.0207884 -0.0237603 2.37364e-19)
(-0.00782999 -0.0403013 3.89629e-22)
(0.00943888 -0.0574102 -1.03407e-19)
(0.0311509 -0.0749199 0)
(0.0573194 -0.0926098 -9.11409e-20)
(0.0878253 -0.110182 1.70743e-19)
(0.122408 -0.12726 1.55349e-19)
(0.160659 -0.143396 -7.36451e-20)
(0.202029 -0.158097 1.99967e-22)
(0.24585 -0.170844 -5.92398e-20)
(0.291365 -0.18113 1.05628e-19)
(0.337778 -0.188489 9.39038e-20)
(0.384339 -0.192513 -8.20705e-20)
(0.430069 -0.193013 6.97277e-20)
(0.475838 -0.189306 -5.8991e-20)
(0.514286 -0.183196 0)
(0.576383 -0.165735 -4.03238e-20)
(-0.0118476 0.0186825 8.15509e-20)
(-0.0245174 0.0368125 -8.32549e-20)
(-0.0303741 0.041947 8.02771e-20)
(-0.0307421 0.0385894 0)
(-0.0262166 0.0298705 0)
(-0.0169844 0.0178547 1.36445e-19)
(-0.00294428 0.00382631 -1.26336e-19)
(0.0161421 -0.0114586 1.20544e-19)
(0.040526 -0.0275562 -5.62651e-19)
(0.0703762 -0.0441653 2.80711e-22)
(0.105727 -0.0610162 9.93285e-20)
(0.146439 -0.077809 0)
(0.192165 -0.0941861 -1.69847e-19)
(0.242342 -0.10973 3.15629e-19)
(0.296193 -0.123976 -2.18821e-19)
(0.352756 -0.136438 -3.23176e-19)
(0.410934 -0.146638 1.11809e-20)
(0.469564 -0.154141 2.15567e-19)
(0.527482 -0.158598 0)
(0.58375 -0.159683 0)
(0.636765 -0.157606 -6.97085e-20)
(0.689096 -0.150961 5.8975e-20)
(0.728143 -0.144106 -1.84121e-19)
(0.795097 -0.125071 1.72796e-19)
(-0.0127965 0.0181767 0)
(-0.0254247 0.0367953 0)
(-0.0285174 0.0432989 -2.4258e-19)
(-0.023854 0.0414175 7.68553e-20)
(-0.0123358 0.0339695 -2.98493e-22)
(0.00566203 0.0229644 1.3776e-19)
(0.0300918 0.00974875 0)
(0.0610627 -0.00480611 -1.21399e-19)
(0.0986903 -0.0201247 1.13094e-19)
(0.142972 -0.0357816 -2.13483e-19)
(0.193694 -0.0514021 7.76121e-22)
(0.250374 -0.0666069 1.84315e-19)
(0.312222 -0.0809901 -3.00088e-21)
(0.378142 -0.0941212 1.52119e-19)
(0.446777 -0.105564 -2.21006e-19)
(0.516582 -0.114904 0)
(0.585927 -0.121781 2.28452e-19)
(0.653218 -0.125916 -3.1921e-19)
(0.71699 -0.127148 9.10014e-20)
(0.776186 -0.125313 0)
(0.829186 -0.120936 6.8423e-20)
(0.878617 -0.112503 2.22707e-19)
(0.913041 -0.105089 -2.09019e-19)
(0.969056 -0.086388 -1.98611e-19)
(-0.0130859 0.0166364 2.54962e-19)
(-0.0246415 0.0339751 -3.5107e-19)
(-0.0241018 0.0405001 1.83617e-22)
(-0.0134553 0.0391921 7.84088e-20)
(0.00621249 0.0325132 -1.473e-19)
(0.0343787 0.0223546 -1.3701e-19)
(0.0708324 0.0100648 2.59428e-19)
(0.115484 -0.00341518 -1.06693e-21)
(0.168181 -0.0174084 -2.29154e-19)
(0.228551 -0.031387 4.27687e-19)
(0.29588 -0.044896 -1.89146e-21)
(0.369053 -0.0575136 -1.8672e-19)
(0.446544 -0.0688399 0)
(0.526479 -0.0785064 0)
(0.606753 -0.0861951 -7.18664e-20)
(0.685186 -0.0916614 -1.28118e-19)
(0.759699 -0.0947508 -2.25273e-19)
(0.828468 -0.0954152 2.11469e-19)
(0.890077 -0.0936984 -9.10371e-20)
(0.943585 -0.089726 1.51533e-19)
(0.988375 -0.0838958 -8.01531e-20)
(1.02573 -0.0755684 1.00876e-19)
(1.05056 -0.0682831 -2.59559e-19)
(1.08455 -0.0524836 4.15751e-20)
(-0.0127089 0.0144153 8.62765e-20)
(-0.0218721 0.0290342 0)
(-0.0164292 0.0343667 1.67855e-19)
(0.00158228 0.0327908 -1.58122e-19)
(0.0309813 0.0264416 1.47428e-19)
(0.0711093 0.017071 0)
(0.121528 0.00599194 0)
(0.181796 -0.00582569 -1.22603e-19)
(0.251248 -0.0176489 1.21086e-21)
(0.328816 -0.0289036 1.08059e-19)
(0.412916 -0.0391272 -9.82656e-20)
(0.50145 -0.0479489 1.86165e-19)
(0.59189 -0.0550867 0)
(0.681464 -0.0603544 3.05829e-19)
(0.767387 -0.0636657 -5.63753e-19)
(0.8471 -0.0650337 3.87889e-19)
(0.918496 -0.0645582 2.21044e-19)
(0.980061 -0.0624219 -2.07511e-19)
(1.03099 -0.0588142 0)
(1.07109 -0.0540875 0)
(1.10104 -0.0482553 0)
(1.12155 -0.041901 0)
(1.13384 -0.0353897 4.99335e-20)
(1.14536 -0.024719 -1.65484e-19)
(-0.12943 -0.177134 -7.67492e-21)
(-0.105091 -0.118037 7.69885e-21)
(-0.0769461 -0.0464848 -2.18801e-22)
(-0.0446143 0.0359942 0)
(-0.00867324 0.126291 -6.75638e-21)
(0.0299079 0.220536 1.2796e-20)
(0.0699914 0.313834 -4.40046e-22)
(0.109997 0.401138 -5.45762e-21)
(0.147349 0.475883 0)
(0.179497 0.535044 0)
(0.203659 0.578355 -1.97715e-22)
(0.218078 0.607576 -1.72732e-22)
(0.22464 0.623319 -2.64278e-21)
(0.230845 0.620581 2.41674e-21)
(0.248211 0.587698 0)
(0.286273 0.512171 0)
(0.34616 0.389804 2.79233e-21)
(0.420241 0.227708 1.8027e-22)
(0.499148 0.0405898 -2.62414e-21)
(0.576101 -0.150663 -1.76845e-22)
(0.644689 -0.318268 0)
(0.698799 -0.438559 0)
(0.735174 -0.504882 0)
(0.753527 -0.527744 0)
(0.75797 -0.522829 0)
(0.753636 -0.505241 0)
(0.738207 -0.494251 2.90558e-22)
(0.704661 -0.501109 -4.61581e-22)
(0.657533 -0.506207 0)
(0.618783 -0.46027 0)
(0.610984 -0.328043 -5.92719e-22)
(0.637158 -0.127508 5.76058e-22)
(0.684621 0.0856251 2.70346e-22)
(0.735306 0.256606 0)
(0.779002 0.364948 0)
(0.811148 0.411081 2.84267e-22)
(0.829846 0.429219 -2.76321e-22)
(0.823664 0.446171 0)
(0.789594 0.470076 2.38443e-22)
(0.744502 0.452696 -3.60279e-22)
(0.716115 0.353312 1.51467e-22)
(0.717573 0.178424 0)
(0.746324 -0.0288148 -2.84783e-22)
(0.78297 -0.186285 2.76913e-22)
(0.824455 -0.299279 0)
(0.838178 -0.341698 0)
(0.8213 -0.389275 -6.61352e-23)
(0.77592 -0.386241 1.8547e-22)
(0.742433 -0.329002 0)
(0.740156 -0.20114 0)
(0.775076 -0.00681517 -5.84929e-23)
(0.80529 0.107149 4.98667e-24)
(0.82115 0.27576 -5.82364e-24)
(0.796984 0.313651 3.64784e-23)
(0.783185 0.361689 0)
(0.781165 0.294265 0)
(0.800502 0.0965022 0)
(0.796627 0.0277114 0)
(0.807371 -0.269512 0)
(0.785701 -0.254099 0)
(-0.196908 -0.201402 -6.31801e-22)
(-0.181343 -0.148061 -2.67523e-20)
(-0.161359 -0.0818904 5.20981e-22)
(-0.135707 -0.00448758 2.46592e-20)
(-0.10478 0.08217 3.30163e-22)
(-0.0691323 0.174388 0)
(-0.0296631 0.267359 -1.89753e-20)
(0.0107167 0.357125 3.58881e-20)
(0.0499144 0.437051 -1.69146e-20)
(0.087315 0.503499 1.31398e-20)
(0.120666 0.555403 -1.25736e-20)
(0.149741 0.591711 1.03038e-20)
(0.177934 0.609507 -9.9973e-21)
(0.212433 0.601606 -2.99139e-22)
(0.261363 0.557753 -1.0546e-20)
(0.328472 0.470426 1.0248e-20)
(0.4097 0.340446 -1.22871e-20)
(0.496177 0.176161 1.15384e-20)
(0.580539 -0.00965949 -1.255e-20)
(0.657779 -0.196948 2.33669e-20)
(0.721494 -0.357414 -1.08615e-20)
(0.765699 -0.467261 -5.28232e-22)
(0.789425 -0.521555 -5.72286e-21)
(0.795072 -0.533704 9.97893e-21)
(0.787696 -0.521515 -4.29302e-21)
(0.77358 -0.498379 1.96028e-22)
(0.752377 -0.479904 2.94328e-21)
(0.7158 -0.47863 2.2453e-22)
(0.663739 -0.482068 -6.04347e-21)
(0.614957 -0.445924 6.84628e-21)
(0.594751 -0.330592 -3.61233e-21)
(0.611461 -0.145139 4.91597e-22)
(0.654537 0.0604553 -2.70903e-22)
(0.706152 0.232034 4.14818e-22)
(0.755084 0.34545 0)
(0.795297 0.398489 0)
(0.820562 0.425714 -9.67731e-22)
(0.819105 0.453001 7.11429e-22)
(0.789085 0.483927 7.78881e-22)
(0.750644 0.466169 3.24751e-22)
(0.729642 0.359438 -1.30356e-21)
(0.736265 0.175395 3.63605e-22)
(0.766546 -0.0384907 0)
(0.799419 -0.198213 0)
(0.837156 -0.307616 0)
(0.846973 -0.341376 0)
(0.829714 -0.380445 2.67844e-22)
(0.781602 -0.375287 -1.21259e-22)
(0.746148 -0.324093 0)
(0.741321 -0.205384 0)
(0.773417 -0.0155699 0)
(0.802965 0.101281 -8.58929e-23)
(0.815739 0.276447 1.41582e-23)
(0.793573 0.317575 -8.00493e-23)
(0.778824 0.36332 0)
(0.779595 0.292683 0)
(0.803071 0.0942931 6.76793e-23)
(0.800807 0.0272475 2.12023e-22)
(0.814324 -0.268054 0)
(0.790197 -0.252843 0)
(-0.208553 -0.219278 -7.78641e-22)
(-0.204793 -0.173194 -4.57485e-20)
(-0.195523 -0.113581 4.28657e-20)
(-0.179852 -0.0426743 -4.01887e-20)
(-0.157207 0.03817 -3.32483e-22)
(-0.128387 0.126694 0)
(-0.0930517 0.217805 -3.1367e-20)
(-0.0540281 0.307786 3.06152e-20)
(-0.0141939 0.39073 2.27216e-22)
(0.0279393 0.461934 3.23661e-22)
(0.0718961 0.519119 2.95383e-22)
(0.117629 0.558734 3.18979e-22)
(0.168288 0.575706 -1.91453e-20)
(0.228905 0.562468 1.89059e-20)
(0.303541 0.511136 0)
(0.39148 0.41835 7.14838e-22)
(0.486146 0.287796 -2.6086e-20)
(0.579274 0.127345 2.57474e-20)
(0.665688 -0.0528284 0)
(0.741347 -0.233261 0)
(0.798998 -0.385011 -2.03855e-20)
(0.832599 -0.484619 3.57617e-20)
(0.843379 -0.528822 -2.69371e-20)
(0.836738 -0.532751 2.80768e-21)
(0.81863 -0.515536 1.55934e-20)
(0.795488 -0.48908 -1.29595e-20)
(0.768928 -0.464839 1.0675e-20)
(0.730559 -0.455587 -2.5718e-22)
(0.675674 -0.456263 -5.0255e-21)
(0.618517 -0.429262 0)
(0.585936 -0.331871 0)
(0.591896 -0.163387 2.72424e-21)
(0.629181 0.0331343 -3.53248e-21)
(0.680686 0.204131 -5.36771e-23)
(0.734066 0.32217 2.38569e-21)
(0.781601 0.382615 -2.31845e-21)
(0.812948 0.419753 0)
(0.816413 0.457802 2.30201e-22)
(0.79119 0.495875 2.38135e-21)
(0.759769 0.478325 -5.20724e-21)
(0.746057 0.365478 2.47152e-21)
(0.757718 0.173959 4.1523e-22)
(0.789528 -0.0455113 -3.41983e-21)
(0.818452 -0.20743 2.60324e-21)
(0.851865 -0.314172 4.69691e-22)
(0.857504 -0.340261 3.46031e-22)
(0.839947 -0.371202 -2.68512e-22)
(0.78946 -0.364209 0)
(0.752252 -0.319223 0)
(0.744783 -0.209983 -7.6613e-22)
(0.773718 -0.0245017 3.822e-22)
(0.802399 0.0952297 -3.27652e-22)
(0.812023 0.27689 4.83315e-22)
(0.791618 0.321392 6.16524e-22)
(0.775584 0.364752 -1.51879e-22)
(0.779157 0.290801 3.11936e-22)
(0.806938 0.0916305 -3.02446e-22)
(0.806316 0.0265779 1.72925e-22)
(0.822382 -0.266432 0)
(0.795588 -0.251454 0)
(-0.157659 -0.227904 -7.88073e-20)
(-0.166521 -0.189699 4.6634e-21)
(-0.168019 -0.137427 6.99908e-20)
(-0.164279 -0.0740579 -5.66677e-22)
(-0.15209 -0.000328909 0)
(-0.132159 0.0815628 0)
(-0.104264 0.169034 -4.70682e-20)
(-0.0695429 0.256122 2.26606e-21)
(-0.0309453 0.336981 6.14109e-20)
(0.0145873 0.409696 -1.3348e-21)
(0.06746 0.468935 -1.77954e-20)
(0.127272 0.509338 -1.66155e-20)
(0.195936 0.524733 1.66059e-20)
(0.275837 0.508062 0)
(0.367612 0.453792 -2.22485e-20)
(0.467676 0.361555 2.01733e-20)
(0.568639 0.236289 0)
(0.663861 0.0837952 0)
(0.750408 -0.0882401 2.68896e-20)
(0.823916 -0.260593 -1.91355e-21)
(0.875313 -0.403106 -2.28314e-20)
(0.898347 -0.492873 -1.64725e-20)
(0.896403 -0.528514 1.63175e-20)
(0.878007 -0.526185 -9.42266e-21)
(0.850301 -0.505533 2.07545e-21)
(0.81904 -0.477626 6.81386e-21)
(0.787242 -0.449778 6.33795e-22)
(0.747859 -0.43305 3.20404e-23)
(0.692551 -0.429075 0)
(0.629517 -0.409217 5.27673e-21)
(0.585117 -0.330319 -5.43935e-21)
(0.579078 -0.180755 4.19968e-22)
(0.609036 0.00499555 0)
(0.659224 0.17346 -3.65757e-22)
(0.716028 0.295463 4.27782e-21)
(0.769941 0.363593 -7.49883e-21)
(0.806853 0.411103 -4.1053e-22)
(0.815403 0.460028 -2.94278e-22)
(0.795552 0.505406 3.25322e-21)
(0.77125 0.488967 5.85839e-22)
(0.764744 0.371694 -6.2209e-21)
(0.781247 0.174191 5.26051e-21)
(0.814664 -0.0498347 -3.99464e-23)
(0.839746 -0.213952 2.27177e-21)
(0.868422 -0.319048 -2.67971e-21)
(0.869606 -0.338581 -2.29529e-21)
(0.851699 -0.361743 6.88496e-22)
(0.799159 -0.352962 8.06494e-22)
(0.760365 -0.314182 -1.51989e-21)
(0.750209 -0.214741 1.08968e-21)
(0.775769 -0.0335446 -3.39623e-22)
(0.803505 0.0889548 3.36323e-22)
(0.80999 0.277069 2.83147e-22)
(0.791172 0.325154 -9.1164e-22)
(0.773596 0.366034 -8.208e-24)
(0.77995 0.288645 -3.59336e-22)
(0.812101 0.0885285 0)
(0.813149 0.0257153 -1.62609e-22)
(0.831516 -0.264626 3.68269e-22)
(0.801843 -0.249908 0)
(-0.0470228 -0.226476 6.64075e-20)
(-0.067999 -0.195746 -1.23423e-19)
(-0.0792973 -0.15128 5.66107e-20)
(-0.0864415 -0.0958648 4.58926e-20)
(-0.0858604 -0.0299928 -8.53985e-20)
(-0.075914 0.0430741 3.88551e-21)
(-0.0562418 0.12298 3.50491e-20)
(-0.0297527 0.202186 3.04846e-20)
(0.0049346 0.278852 -2.99006e-20)
(0.0515491 0.34998 0)
(0.108728 0.408411 -2.76603e-20)
(0.176602 0.448024 5.63736e-20)
(0.255697 0.462248 -2.87448e-20)
(0.346134 0.444766 0)
(0.446142 0.391812 0)
(0.550519 0.304761 7.2935e-22)
(0.652065 0.188539 -5.39175e-20)
(0.746407 0.0464102 5.23685e-20)
(0.832342 -0.115992 0)
(0.903614 -0.278965 5.03687e-20)
(0.948485 -0.41129 -8.82105e-20)
(0.960979 -0.491415 7.18197e-20)
(0.946938 -0.520217 -5.64827e-20)
(0.917727 -0.514078 5.41214e-21)
(0.881821 -0.491835 3.2098e-20)
(0.843843 -0.464038 -1.38357e-20)
(0.807183 -0.434891 -3.09603e-22)
(0.767072 -0.412258 -3.74469e-21)
(0.713261 -0.402342 -5.524e-23)
(0.647367 -0.386713 3.84303e-21)
(0.592667 -0.325099 3.15738e-22)
(0.573935 -0.196224 -5.18298e-21)
(0.594614 -0.0238041 1.00138e-20)
(0.641857 0.140416 -5.35675e-21)
(0.70096 0.265583 0)
(0.760105 0.341366 -3.92985e-21)
(0.802014 0.39936 3.80597e-21)
(0.815762 0.459133 -3.39614e-21)
(0.801717 0.512135 4.21751e-21)
(0.784494 0.498077 -6.19628e-22)
(0.784916 0.37815 0)
(0.806078 0.176119 -8.60263e-22)
(0.841403 -0.0514411 2.4353e-21)
(0.862939 -0.217647 0)
(0.886565 -0.322067 4.49404e-21)
(0.883093 -0.336302 -1.95781e-21)
(0.864737 -0.352127 5.23324e-22)
(0.810403 -0.341578 3.79932e-22)
(0.770092 -0.308906 0)
(0.757231 -0.219532 0)
(0.779309 -0.042668 -8.47808e-22)
(0.806146 0.0823958 1.31578e-21)
(0.809598 0.276941 -7.79591e-22)
(0.792279 0.328887 2.4386e-22)
(0.772993 0.367223 6.04657e-22)
(0.782061 0.286219 3.59682e-22)
(0.818547 0.0849987 -7.32149e-22)
(0.821289 0.0246613 0)
(0.841678 -0.262588 -5.4814e-22)
(0.808918 -0.248175 -9.52499e-23)
(0.116724 -0.214672 5.76751e-20)
(0.0847975 -0.189528 -5.71305e-20)
(0.0635504 -0.154626 3.856e-22)
(0.0460994 -0.109334 -2.55581e-22)
(0.0346375 -0.053921 2.89129e-22)
(0.0327959 0.0100517 -2.47746e-22)
(0.0420131 0.0798327 2.86414e-22)
(0.060434 0.150657 0)
(0.09021 0.222254 -2.41348e-22)
(0.133065 0.288662 2.4663e-22)
(0.188985 0.343864 2.73073e-22)
(0.257948 0.38152 -3.99188e-22)
(0.339442 0.395134 0)
(0.432083 0.379025 0)
(0.532666 0.330383 5.83326e-22)
(0.635334 0.251263 0)
(0.733794 0.145706 -7.66413e-22)
(0.826007 0.0147222 0)
(0.911033 -0.13709 -5.17854e-20)
(0.979405 -0.289182 9.85576e-20)
(1.01698 -0.410356 -8.60877e-20)
(1.01897 -0.481331 3.93845e-20)
(0.993917 -0.505062 2.44127e-20)
(0.955269 -0.497394 -2.37085e-20)
(0.912579 -0.475251 -1.41996e-20)
(0.869366 -0.44861 1.36886e-20)
(0.828366 -0.420009 0)
(0.787407 -0.393603 2.20559e-22)
(0.7364 -0.377347 0)
(0.670892 -0.362727 0)
(0.608399 -0.315779 7.2149e-21)
(0.576741 -0.208528 -7.38178e-21)
(0.586563 -0.0524773 4.54564e-22)
(0.629159 0.105679 5.26884e-22)
(0.68883 0.232837 -3.71196e-22)
(0.751833 0.315892 -3.09637e-21)
(0.798136 0.384179 3.00654e-21)
(0.81711 0.454642 -4.16097e-21)
(0.809123 0.515708 3.61913e-21)
(0.79883 0.505632 1.24967e-21)
(0.80583 0.384838 -6.74404e-21)
(0.831497 0.179969 -1.34734e-21)
(0.869052 -0.0503314 5.12947e-21)
(0.887582 -0.218466 0)
(0.905984 -0.323137 -2.06984e-21)
(0.897735 -0.333452 1.77805e-21)
(0.878799 -0.342431 -2.42473e-21)
(0.822896 -0.330044 -3.82336e-22)
(0.781041 -0.303275 0)
(0.765452 -0.224248 2.58658e-22)
(0.784028 -0.05189 -4.81186e-22)