/*--------------------------------*- C++ -*----------------------------------*\
| =========                 |                                                 |
| \\      /  F ield         | OpenFOAM: The Open Source CFD Toolbox           |
|  \\    /   O peration     | Version:  2512                                  |
|   \\  /    A nd           | Website:  www.openfoam.com                      |
|    \\/     M anipulation  |                                                 |
\*---------------------------------------------------------------------------*/
FoamFile
{
    version     2.0;
    format      ascii;
    arch        "LSB;label=32;scalar=64";
    class       surfaceScalarField;
    location    "115";
    object      phi;
}
// * * * * * * * * * * * * * * * * * * * * * * * * * * * * * * * * * * * * * //

dimensions      [0 3 -1 0 0 0 0];

oriented        oriented;

internalField   nonuniform List<scalar> 
26232
(
0.000155296
0.000850778
-0.00100607
0.000695216
0.00129349
-0.00183341
0.00173142
0.000640855
-0.00167706
0.00339657
-0.00102769
-0.00063745
0.00583642
-0.00365788
0.00121803
0.0091981
-0.00721003
0.00384835
0.013614
-0.0116453
0.00722946
0.0191823
-0.0169088
0.0113405
0.0259476
-0.0229136
0.0161484
0.0338839
-0.0295312
0.0215949
0.0428868
-0.0365916
0.0275886
0.0527754
-0.043892
0.0340035
0.0633055
-0.0512145
0.0406843
0.0741933
-0.0583454
0.0474575
0.0851438
-0.0650962
0.0541458
0.0958803
-0.0713199
0.0605833
0.106172
-0.0769207
0.0666292
0.115851
-0.0818586
0.072179
0.124828
-0.0861447
0.0771682
0.133086
-0.0898385
0.0815804
0.14067
-0.0930126
0.0854282
0.147688
-0.0958117
0.0887945
0.154149
-0.0982093
0.0917482
-0.100586
0.0946662
0.160068
0.000200727
0.000650051
0.000926168
0.000568051
0.00232142
-0.000754394
0.00454155
-0.00324783
0.00774375
-0.00686008
0.0120694
-0.0115357
0.0176196
-0.0171956
0.0244294
-0.0237186
0.0324462
-0.0309304
0.0415209
-0.0386059
0.0514136
-0.0464843
0.0618166
-0.0542951
0.0723884
-0.0617863
0.0827937
-0.0687506
0.0927409
-0.0750434
0.102012
-0.0805911
0.110481
-0.0853896
0.118117
-0.0894941
0.124975
-0.0930029
0.131176
-0.0960398
0.136894
-0.0987302
0.142301
-0.101219
0.147624
-0.103532
-0.106029
0.153067
0.00025693
0.000393121
0.0011962
-0.000371215
0.0029959
-0.0025541
0.00582919
-0.00608112
0.0098506
-0.0108815
0.0151681
-0.0168532
0.0218108
-0.0238382
0.0297018
-0.0316096
0.0386481
-0.0398768
0.0483523
-0.04831
0.058446
-0.056578
0.0685383
-0.0643874
0.0782672
-0.0715152
0.087344
-0.0778275
0.0955835
-0.0832829
0.102915
-0.0879222
0.109373
-0.0918479
0.115078
-0.0951995
0.120204
-0.0981285
0.124944
-0.10078
0.129487
-0.103274
0.133986
-0.105718
0.138587
-0.108133
-0.110753
0.143311
0.000332912
6.02095e-05
0.00152948
-0.00156779
0.00379079
-0.00481541
0.00729211
-0.00958244
0.012157
-0.0157464
0.0184188
-0.0231149
0.025986
-0.0314055
0.03463
-0.0402536
0.0440015
-0.0492483
0.0536777
-0.0579862
0.063225
-0.0661253
0.0722636
-0.073426
0.0805169
-0.0797685
0.0878377
-0.0851483
0.0942087
-0.0896539
0.0997208
-0.0934343
0.104537
-0.0966645
0.108855
-0.0995172
0.112869
-0.102142
0.116747
-0.104658
0.120622
-0.107148
0.124582
-0.109678
0.128701
-0.112252
-0.115035
0.132983
0.0004323
-0.000372091
0.00193277
-0.00306825
0.00470556
-0.0075882
0.00889965
-0.0137765
0.0145669
-0.0214137
0.0216183
-0.0301663
0.0298037
-0.0395909
0.0387321
-0.049182
0.0479307
-0.0584469
0.0569253
-0.0669807
0.065318
-0.074518
0.0728417
-0.0809497
0.0793809
-0.0863076
0.0849601
-0.0907276
0.0897088
-0.0944026
0.0938149
-0.0975403
0.0974807
-0.10033
0.100891
-0.102927
0.104193
-0.105444
0.107494
-0.107959
0.110866
-0.110521
0.114349
-0.113161
0.117979
-0.115882
-0.118787
0.121731
0.000553589
-0.00092568
0.00239531
-0.00490998
0.00570331
-0.0108962
0.0105612
-0.0186345
0.0169029
-0.0277553
0.024478
-0.0377414
0.0328683
-0.0479811
0.0415559
-0.0578696
0.0500229
-0.0669139
0.0578451
-0.074803
0.0647533
-0.0814262
0.07065
-0.0868464
0.0755867
-0.0912443
0.0797163
-0.0948572
0.0832392
-0.0979255
0.0863568
-0.100658
0.0892426
-0.103216
0.0920286
-0.105713
0.094807
-0.108223
0.0976372
-0.110789
0.100555
-0.113439
0.10358
-0.116186
0.10673
-0.119032
-0.122034
0.109978
0.000691408
-0.00161709
0.00289255
-0.00711112
0.00671925
-0.0147229
0.0121456
-0.0240608
0.018947
-0.0345567
0.0266986
-0.045493
0.0348455
-0.0561281
0.0428202
-0.0658443
0.050157
-0.0742507
0.0565659
-0.0812119
0.0619489
-0.0868092
0.0663684
-0.0912658
0.0699894
-0.0948653
0.0730184
-0.0978863
0.0756557
-0.100563
0.0780669
-0.103069
0.0803746
-0.105524
0.0826614
-0.108
0.0849797
-0.110541
0.0873604
-0.11317
0.0898212
-0.1159
0.0923705
-0.118735
0.0950159
-0.121678
-0.124751
0.0977328
0.000837927
-0.00245502
0.00339117
-0.00966436
0.00767315
-0.0190049
0.0135075
-0.0298952
0.0204904
-0.0415396
0.028045
-0.0530475
0.0355492
-0.0636323
0.0424774
-0.0727724
0.0484942
-0.0802676
0.0534783
-0.0861961
0.0574865
-0.0908174
0.0606867
-0.094466
0.0632892
-0.0974678
0.0654951
-0.100092
0.0674677
-0.102535
0.0693251
-0.104927
0.0711452
-0.107344
0.072976
-0.109831
0.0748458
-0.112411
0.0767708
-0.115095
0.0787599
-0.117889
0.0808169
-0.120792
0.0829452
-0.123806
-0.126933
0.0851267
0.000983773
-0.00343879
0.00385356
-0.0125341
0.00848173
-0.023633
0.0145138
-0.0359273
0.0213757
-0.0484015
0.0283948
-0.0600666
0.0349668
-0.0702044
0.0406826
-0.0784882
0.0453703
-0.0849552
0.0490615
-0.0898873
0.0519176
-0.0936735
0.054151
-0.0966994
0.0559667
-0.0992836
0.0575307
-0.101656
0.0589615
-0.103966
0.0603359
-0.106301
0.0617001
-0.108708
0.0630811
-0.111212
0.0644942
-0.113824
0.0659484
-0.116549
0.0674482
-0.119388
0.0689959
-0.12234
0.0705919
-0.125402
-0.128566
0.0722248
0.00111848
-0.00455727
0.00424161
-0.0156573
0.00907003
-0.0284615
0.0150651
-0.0419224
0.0215218
-0.0548582
0.0277468
-0.0662916
0.0332271
-0.0756846
0.0377073
-0.0829684
0.0411692
-0.0884171
0.0437539
-0.092472
0.0456724
-0.095592
0.0471365
-0.0981634
0.0483195
-0.100467
0.0493451
-0.102682
0.0502928
-0.104914
0.0512096
-0.107218
0.052122
-0.109621
0.0530454
-0.112135
0.0539887
-0.114767
0.054957
-0.117517
0.055953
-0.120384
0.0569779
-0.123365
0.0580306
-0.126455
-0.129641
0.059106
0.00123179
-0.00578906
0.00452197
-0.0189475
0.00938222
-0.0333217
0.0151089
-0.047649
0.020927
-0.0606764
0.0261956
-0.0715602
0.030538
-0.0800271
0.0338529
-0.0862832
0.0362401
-0.0908044
0.0379012
-0.0941331
0.0390547
-0.0967455
0.0398858
-0.0989945
0.0405285
-0.101109
0.0410688
-0.103222
0.041557
-0.105402
0.0420211
-0.107682
0.0424764
-0.110076
0.0429322
-0.112591
0.0433939
-0.115229
0.043865
-0.117988
0.044347
-0.120866
0.04484
-0.123858
0.0453417
-0.126957
-0.13015
0.0458508
0.00131746
-0.00710652
0.00467291
-0.0223029
0.0093896
-0.0380384
0.0146422
-0.0529016
0.0196558
-0.0656899
0.0238962
-0.0758006
0.0271361
-0.083267
0.0294025
-0.0885497
0.0308703
-0.0922722
0.0317605
-0.0950233
0.032273
-0.097258
0.032557
-0.0992786
0.0327099
-0.101262
0.0327884
-0.103301
0.0328234
-0.105437
0.0328314
-0.10769
0.0328216
-0.110066
0.0327999
-0.112569
0.0327703
-0.115199
0.0327355
-0.117954
0.0326967
-0.120828
0.0326535
-0.123815
0.0326033
-0.126906
0.032547
-0.130094
-0.000260801
-0.00124005
0.00150085
-0.000914675
-0.0035292
0.00418307
-0.00189033
-0.00563442
0.00661008
-0.00313389
-0.00750411
0.00874768
-0.00459871
-0.00913363
0.0105985
-0.00624212
-0.0105632
0.0122066
-0.00802494
-0.0118588
0.0136416
-0.00991197
-0.0130915
0.0149786
-0.0118723
-0.0143221
0.0162825
-0.0138789
-0.0155914
0.017598
-0.015907
-0.016918
0.0189461
-0.0179322
-0.0182997
0.020325
-0.0199284
-0.0197168
0.0217129
-0.021865
-0.0211352
0.0230718
-0.0237061
-0.0225082
0.0243492
-0.0254086
-0.0237774
0.0254799
-0.0269222
-0.0248726
0.0263862
-0.0281898
-0.0257115
0.0269791
-0.0291492
-0.0262004
0.0271598
-0.0297355
-0.026237
0.0268233
-0.0298842
-0.0257156
0.0258643
-0.0295381
-0.0245279
0.0241818
-0.0286704
-0.0225508
0.0216831
-0.0196898
-0.0273145
0.0183339
-0.000339306
-0.000900743
-0.00116908
-0.00269943
-0.0023811
-0.0044224
-0.00389642
-0.00598879
-0.00565276
-0.00737729
-0.00759997
-0.00861598
-0.0096978
-0.00976093
-0.0119144
-0.010875
-0.0142246
-0.0120119
-0.016608
-0.013208
-0.0190466
-0.0144795
-0.0215221
-0.0158242
-0.0240138
-0.017225
-0.0264969
-0.0186521
-0.0289406
-0.0200644
-0.0313075
-0.0214105
-0.0335525
-0.0226276
-0.0356232
-0.0236407
-0.0374617
-0.0243619
-0.0390079
-0.0246908
-0.0402044
-0.0245191
-0.0409999
-0.0237324
-0.0413559
-0.0221948
-0.0197697
-0.0412759
-0.000390612
-0.000510131
-0.0013336
-0.00175644
-0.00269311
-0.00306289
-0.0043704
-0.0043115
-0.00629033
-0.00545736
-0.00839598
-0.00651034
-0.010645
-0.00751194
-0.0130062
-0.00851373
-0.0154566
-0.00956151
-0.0179779
-0.0106867
-0.0205537
-0.0119037
-0.0231667
-0.0132113
-0.0257969
-0.0145949
-0.0284201
-0.0160289
-0.0310066
-0.0174779
-0.0335206
-0.0188966
-0.0359187
-0.0202294
-0.0381502
-0.0214092
-0.0401572
-0.022355
-0.0418783
-0.0229698
-0.0432568
-0.0231406
-0.0442428
-0.0227464
-0.0447815
-0.0216561
-0.0196897
-0.0448615
-0.00040842
-0.000101711
-0.00139053
-0.000774326
-0.00279609
-0.00165733
-0.00451354
-0.00259405
-0.00645806
-0.00351284
-0.0085663
-0.0044021
-0.010792
-0.00528626
-0.0131015
-0.00620421
-0.0154696
-0.0071934
-0.0178755
-0.00828083
-0.0202992
-0.00947992
-0.0227197
-0.0107908
-0.0251127
-0.0122018
-0.0274501
-0.0136915
-0.0296989
-0.0152291
-0.0318205
-0.016775
-0.0337697
-0.0182802
-0.0354931
-0.0196859
-0.0369267
-0.0209214
-0.0379968
-0.0218997
-0.0386273
-0.0225101
-0.0387511
-0.0226225
-0.0382902
-0.0221171
-0.0207702
-0.0372097
-0.000391259
0.000289548
-0.00133536
0.000169771
-0.0026823
-0.000310395
-0.00431514
-0.000961212
-0.00614252
-0.00168545
-0.00809454
-0.00245008
-0.0101186
-0.00326219
-0.0121748
-0.00414798
-0.0142313
-0.00513696
-0.0162597
-0.00625245
-0.0182321
-0.00750747
-0.020119
-0.00890392
-0.0218876
-0.0104332
-0.023502
-0.0120771
-0.0249231
-0.0138081
-0.026108
-0.0155901
-0.0270098
-0.0173784
-0.0275756
-0.01912
-0.0277433
-0.0207537
-0.0274348
-0.0222081
-0.0265535
-0.0233914
-0.0250045
-0.0241716
-0.0227204
-0.0244012
-0.0241267
-0.0193639
-0.000342054
0.000631602
-0.00117691
0.00100463
-0.00236653
0.000879222
-0.00379583
0.000468084
-0.00536943
-0.000111848
-0.0070101
-0.000809411
-0.00865627
-0.00161603
-0.0102575
-0.00254671
-0.0117704
-0.00362413
-0.013154
-0.00486878
-0.0143677
-0.00629384
-0.0153685
-0.0079031
-0.0161113
-0.00969037
-0.016549
-0.0116394
-0.0166332
-0.0137238
-0.0163156
-0.0159077
-0.0155482
-0.0181458
-0.0142829
-0.0203853
-0.0124702
-0.0225664
-0.0100535
-0.0246248
-0.00695262
-0.0264923
-0.00302896
-0.0280952
0.0018626
-0.0292927
-0.029692
0.00742793
-0.00026835
0.000899952
-0.000935226
0.00167151
-0.00188405
0.00182805
-0.00300598
0.00159001
-0.00420287
0.00108505
-0.00538886
0.000376575
-0.00649149
-0.000513398
-0.00744552
-0.00159268
-0.00819135
-0.0028783
-0.0086713
-0.00438882
-0.00882744
-0.00613771
-0.00860067
-0.00812987
-0.00793122
-0.0103598
-0.00675987
-0.0128107
-0.00502996
-0.0154538
-0.00268918
-0.0182485
0.000308789
-0.0211437
0.00400277
-0.0240793
0.00842636
-0.02699
0.0136096
-0.029808
0.0195843
-0.032467
0.0264085
-0.0349195
0.0340633
-0.0369476
-0.0390037
0.043375
-0.000180551
0.0010805
-0.000640658
0.00213162
-0.00128757
0.00247496
-0.00202034
0.00232278
-0.00273902
0.00180372
-0.00335001
0.000987564
-0.00376462
-9.87851e-05
-0.00390202
-0.00145528
-0.00368368
-0.00309663
-0.00303296
-0.00503955
-0.0018743
-0.00729636
-0.000133892
-0.00987028
0.00225853
-0.0127523
0.00536685
-0.015919
0.00924571
-0.0193326
0.0139379
-0.0229407
0.0194728
-0.0266787
0.0258667
-0.0304731
0.0331228
-0.0342462
0.041236
-0.0379213
0.0501871
-0.0414181
0.059997
-0.0447294
0.0705767
-0.0475272
-0.0509167
0.0824897
-9.03689e-05
0.00117087
-0.000327206
0.00236845
-0.000637784
0.00278554
-0.000927991
0.00261298
-0.00109555
0.00197128
-0.00103681
0.000928823
-0.000649795
-0.000485801
0.00016522
-0.0022703
0.00150472
-0.00443613
0.0034615
-0.00699634
0.00612324
-0.00995809
0.00956919
-0.0133162
0.0138662
-0.0170492
0.0190642
-0.0211171
0.025193
-0.0254614
0.0322595
-0.0300072
0.0402481
-0.0346672
0.0491223
-0.0393474
0.0588293
-0.0439531
0.0693055
-0.0483975
0.0804828
-0.0525954
0.0923104
-0.056557
0.104682
-0.0598991
-0.0640202
0.117786
-8.17224e-06
0.00117904
-2.55622e-05
0.00238584
9.39959e-06
0.00275058
0.000188223
0.00243416
0.000617659
0.00154185
0.00141161
0.000134873
0.0026862
-0.00176039
0.00455634
-0.00414043
0.00713175
-0.00701154
0.0105133
-0.0103779
0.0147872
-0.014232
0.0200189
-0.0185479
0.0262468
-0.0232772
0.0334777
-0.028348
0.0416838
-0.0336675
0.0508038
-0.0391272
0.0607471
-0.0446105
0.0714006
-0.0500009
0.0826386
-0.055191
0.0943301
-0.060089
0.106358
-0.0646235
0.118592
-0.0687908
0.131024
-0.072331
-0.0764162
0.14342
5.97341e-05
0.00111931
0.000244272
0.00220131
0.000617103
0.00237775
0.00127358
0.00177769
0.00232792
0.000487506
0.00390509
-0.0014423
0.00613325
-0.00398855
0.00913664
-0.00714383
0.0130275
-0.0109024
0.017897
-0.0152474
0.0238058
-0.0201407
0.0307748
-0.0255169
0.0387795
-0.031282
0.047748
-0.0373164
0.0575633
-0.0434828
0.0680723
-0.0496362
0.079097
-0.0556352
0.0904501
-0.0613539
0.101949
-0.0666902
0.113434
-0.0715734
0.124776
-0.0759658
0.135853
-0.0798682
0.146714
-0.0831917
-0.0864528
0.156751
0.000113237
0.000481131
0.00118182
0.00232205
0.00402759
0.00643364
0.00967455
0.0138712
0.0191172
0.0254647
0.0329126
0.0413992
0.0508015
0.0609427
0.0716056
0.0825527
0.0935467
0.104372
0.11485
0.124857
0.134319
0.143245
0.151802
0.160015
-0.0230645
-0.0224343
0.0181842
-0.0179852
-0.0129599
0.00788059
-0.012257
-0.000892085
-0.00483614
-0.00573217
0.0133368
-0.0198616
0.00126268
0.0298058
-0.0368006
0.00860135
0.0476421
-0.0549808
0.0159627
0.0660245
-0.0733858
0.0225896
0.0843802
-0.0910071
0.0283787
0.100912
-0.106701
0.0328203
0.115428
-0.119869
0.035837
0.127488
-0.130505
0.038072
0.136521
-0.138756
0.04097
0.14116
-0.144058
0.0462928
0.13889
-0.144213
0.0551303
0.126764
-0.135602
0.0671756
0.102984
-0.115029
0.0810588
0.0677564
-0.0816396
0.0953653
0.0229791
-0.0372856
0.109189
-0.0277109
0.0138871
0.121647
-0.0784589
0.0660007
0.131765
-0.121242
0.111124
0.138703
-0.15051
0.143572
0.142267
-0.166173
0.162609
0.143129
-0.171893
0.171031
0.142045
-0.171709
0.172793
0.138686
-0.170189
0.173548
0.132304
-0.173278
0.179659
0.123973
-0.181405
0.189737
0.117251
-0.182452
0.189173
0.115722
-0.156909
0.158438
0.120289
-0.0963292
0.0917628
0.129112
-0.0132222
0.00439841
0.138984
0.0701634
-0.0800346
0.147563
0.135023
-0.143603
0.153764
0.175851
-0.182053
0.156927
0.195304
-0.198467
0.155832
0.210437
-0.209342
0.15013
0.22917
-0.223468
0.142176
0.245408
-0.237454
0.136002
0.227735
-0.221562
0.134598
0.160297
-0.158893
0.138067
0.0547901
-0.0582584
0.144453
-0.059608
0.0532214
0.151097
-0.141982
0.135338
0.154427
-0.200572
0.197242
0.151873
-0.223864
0.226419
0.144718
-0.255649
0.262803
0.137652
-0.248635
0.255701
0.135694
-0.20373
0.205689
0.139682
-0.107198
0.10321
0.145698
0.0278388
-0.0338552
0.148429
0.110977
-0.113708
0.146173
0.240177
-0.23792
0.142298
0.262927
-0.259052
0.141008
0.296453
-0.295163
0.142245
0.219578
-0.220816
0.143396
0.0522538
-0.0534047
0.142864
-0.0140133
0.0145457
0.140904
-0.28341
0.28537
-0.241596
0.243273
-0.0380264
-0.0256838
-0.0336182
-0.0173681
-0.028018
-0.00649227
-0.0215053
0.00682404
-0.0141198
0.0224203
-0.00614034
0.0396627
0.002145
0.0577391
0.0105407
0.0759845
0.0182961
0.093157
0.0253204
0.108403
0.0318045
0.121004
0.0384796
0.129845
0.0464558
0.133184
0.0566721
0.128674
0.0692394
0.114197
0.0832291
0.0889942
0.0972191
0.0537664
0.110363
0.00983566
0.122058
-0.0394062
0.131841
-0.0882422
0.139011
-0.128411
0.143121
-0.15462
0.144255
-0.167306
0.143139
-0.170778
0.140632
-0.169202
0.136488
-0.166045
0.129585
-0.166375
0.120386
-0.172207
0.112372
-0.174437
0.10983
-0.154367
0.114318
-0.100818
0.123967
-0.0228706
0.135304
0.0588263
0.145649
0.124678
0.153596
0.167904
0.15815
0.19075
0.158087
0.2105
0.153328
0.233928
0.146288
0.252448
0.140604
0.23342
0.138918
0.161983
0.141316
0.0523917
0.146199
-0.0644914
0.151493
-0.147275
0.154041
-0.20312
0.15114
-0.220964
0.143766
-0.248274
0.136655
-0.241524
0.134836
-0.201912
0.139212
-0.111573
0.145431
0.0216195
0.148345
0.108063
0.146247
0.242275
0.142393
0.266781
0.141186
0.29766
0.1426
0.218164
0.144091
0.0507634
0.143689
-0.0136119
0.141712
-0.281433
-0.239934
-0.0429258
-0.0276195
-0.0396715
-0.0206223
-0.0350439
-0.0111199
-0.029036
0.000816129
-0.0218776
0.015262
-0.0136647
0.0314497
-0.00472623
0.0488007
0.00479629
0.066462
0.0148019
0.0831515
0.0248153
0.0983898
0.0349817
0.110838
0.045795
0.119032
0.0578506
0.121129
0.0713966
0.115128
0.0859555
0.0996383
0.100392
0.0745576
0.113568
0.0405901
0.124826
-0.00142186
0.134188
-0.0487686
0.14122
-0.0952737
0.145467
-0.132658
0.146854
-0.156008
0.145772
-0.166224
0.142952
-0.167958
0.139241
-0.165491
0.134549
-0.161353
0.127526
-0.159352
0.11789
-0.162571
0.108721
-0.165268
0.104904
-0.15055
0.108854
-0.104768
0.118944
-0.0329602
0.131494
0.0462764
0.143505
0.112667
0.153177
0.158233
0.159188
0.184739
0.16035
0.209338
0.156771
0.237508
0.150765
0.258454
0.145526
0.238659
0.14344
0.164069
0.144681
0.0511516
0.147991
-0.0678019
0.151876
-0.15116
0.153657
-0.204901
0.150523
-0.21783
0.143036
-0.240787
0.135901
-0.234389
0.134153
-0.200165
0.138835
-0.116254
0.145233
0.0152211
0.148376
0.10492
0.146454
0.244197
0.142584
0.270651
0.141445
0.298799
0.143075
0.216533
0.14494
0.0488987
0.144681
-0.0133532
0.14267
-0.279421
-0.238283
-0.0365365
-0.0282927
-0.0346089
-0.0225499
-0.031307
-0.0144219
-0.0262486
-0.00424229
-0.0197841
0.00879746
-0.0118211
0.0234868
-0.00299065
0.0399702
0.00785207
0.0556193
0.0194754
0.0715281
0.031801
0.0860642
0.0447766
0.097862
0.0585258
0.105283
0.073128
0.106526
0.0883295
0.0999261
0.103372
0.0845953
0.117168
0.0607621
0.128856
0.0289018
0.138156
-0.0107213
0.145181
-0.055794
0.149588
-0.0996805
0.151069
-0.134139
0.149897
-0.154835
0.146807
-0.163134
0.142543
-0.163694
0.137815
-0.160764
0.132706
-0.156243
0.125893
-0.152539
0.116363
-0.153041
0.10638
-0.155285
0.101086
-0.145256
0.103959
-0.107641
0.114034
-0.0430351
0.12752
0.0327912
0.141061
0.0991255
0.15241
0.146883
0.159949
0.177201
0.162528
0.206758
0.160338
0.239698
0.15545
0.263342
0.150622
0.243487
0.148055
0.166636
0.148057
0.0511502
0.149794
-0.0695391
0.152235
-0.153601
0.153249
-0.205916
0.149969
-0.21455
0.142463
-0.23328
0.135319
-0.227245
0.133579
-0.198425
0.138492
-0.121167
0.145077
0.00863591
0.14851
0.101487
0.146797
0.24591
0.142891
0.274557
0.141802
0.299889
0.143674
0.214661
0.14594
0.046633
0.145836
-0.0132494
0.143772
-0.277358
-0.236642
-0.0198999
-0.0277567
-0.019318
-0.0231317
-0.0172596
-0.0164803
-0.0136657
-0.00783623
-0.00815935
0.00329115
-0.00128549
0.0166129
0.00847528
0.0302094
0.019366
0.0447286
0.0316202
0.0592738
0.0450147
0.0726698
0.0593667
0.0835099
0.0744784
0.0901714
0.0900303
0.0909745
0.105454
0.0845023
0.119904
0.0701455
0.132445
0.0482205
0.142491
0.0188566
0.149974
-0.0182047
0.154839
-0.0606593
0.156747
-0.101588
0.155605
-0.132997
0.152076
-0.151306
0.147222
-0.15828
0.141799
-0.158272
0.136294
-0.155258
0.130877
-0.150826
0.124468
-0.14613
0.115543
-0.144116
0.105265
-0.145007
0.0985168
-0.138507
0.0998676
-0.108992
0.109309
-0.0524762
0.123382
0.018718
0.138234
0.0842733
0.151173
0.133945
0.160292
0.168081
0.164467
0.202584
0.163854
0.24031
0.160182
0.267015
0.155716
0.247953
0.152589
0.169762
0.151388
0.0523518
0.151561
-0.0697123
0.152544
-0.154584
0.152785
-0.206157
0.149433
-0.211198
0.141988
-0.225836
0.134842
-0.220099
0.133044
-0.196627
0.138126
-0.12625
0.144926
0.00183676
0.148726
0.0976867
0.147274
0.247362
0.143333
0.278497
0.142275
0.300947
0.144395
0.212541
0.147084
0.0439442
0.147147
-0.0133123
0.145013
-0.275223
-0.235006
0.00554103
-0.0258698
0.00441069
-0.0220014
0.00501969
-0.0170893
0.00742359
-0.0102401
0.012254
-0.00153929
0.0188161
0.0100509
0.0269689
0.0220566
0.0370361
0.0346614
0.0488166
0.0474933
0.0620475
0.0594389
0.0764102
0.0691473
0.0914748
0.0751068
0.106664
0.0757854
0.121249
0.0699169
0.134408
0.0569868
0.145432
0.0371961
0.153946
0.0103424
0.159876
-0.0241344
0.162829
-0.0636116
0.162411
-0.101171
0.158873
-0.129459
0.153283
-0.145716
0.146944
-0.151941
0.140629
-0.151957
0.134581
-0.14921
0.128939
-0.145184
0.123005
-0.140196
0.115069
-0.136181
0.105134
-0.135072
0.09724
-0.130614
0.0967143
-0.108466
0.104967
-0.0607293
0.11911
0.00457515
0.134948
0.0684357
0.14932
0.119573
0.160044
0.157357
0.165965
0.196663
0.167103
0.239173
0.164745
0.269373
0.160638
0.25206
0.156934
0.173466
0.154543
0.0547427
0.153234
-0.0684036
0.152767
-0.154117
0.152224
-0.205614
0.148862
-0.207836
0.141553
-0.218526
0.134406
-0.212951
0.132478
-0.194699
0.137674
-0.131446
0.144731
-0.0052205
0.148991
0.0934262
0.147877
0.248476
0.143923
0.282452
0.142873
0.301997
0.145243
0.210172
0.148362
0.0408245
0.148606
-0.0135555
0.14638
-0.272998
-0.233372
0.0396356
-0.0221303
0.0369127
-0.0192785
0.0354839
-0.0156605
0.0358269
-0.0105831
0.038098
-0.00381037
0.042647
0.00550186
0.0491405
0.015563
0.0576962
0.0261057
0.0681793
0.0370102
0.0803115
0.0473067
0.0936798
0.055779
0.107718
0.061068
0.121718
0.0617856
0.134899
0.0567359
0.14652
0.0453658
0.156042
0.0276745
0.163237
0.00314715
0.167761
-0.0286578
0.168924
-0.0647751
0.166362
-0.0986086
0.160715
-0.123812
0.153418
-0.138419
0.145907
-0.14443
0.138946
-0.144997
0.132586
-0.14285
0.126811
-0.139409
0.121295
-0.13468
0.114536
-0.129422
0.105564
-0.1261
0.097118
-0.122168
0.0946744
-0.106023
0.101152
-0.067207
0.114766
-0.00903911
0.131146
0.0520564
0.146721
0.103997
0.159022
0.145056
0.166806
0.18888
0.169861
0.236117
0.168933
0.270301
0.165222
0.25577
0.160959
0.17773
0.157418
0.0582833
0.154749
-0.0657343
0.152866
-0.152235
0.151525
-0.204273
0.148204
-0.204515
0.141101
-0.211423
0.133951
-0.205801
0.131819
-0.192568
0.137069
-0.136695
0.144439
-0.0125907
0.149267
0.0885987
0.148594
0.249149
0.14467
0.286375
0.143609
0.303058
0.14621
0.207571
0.149767
0.037268
0.1502
-0.0139885
0.147863
-0.270661
-0.231739
0.0773452
-0.0169858
0.0730666
-0.0149999
0.0698217
-0.0124156
0.0679582
-0.00871969
0.0677474
-0.00359948
0.0696777
0.00357151
0.0736989
0.0115418
0.0799325
0.0198721
0.0882895
0.0286533
0.0984946
0.0371017
0.110089
0.0441844
0.122445
0.0487126
0.134799
0.0494308
0.146359
0.0451763
0.156436
0.0352888
0.16455
0.0195609
0.170611
-0.00291379
0.173659
-0.0317067
0.173011
-0.0641266
0.168454
-0.0940519
0.161029
-0.116386
0.152428
-0.129818
0.144084
-0.136087
0.136698
-0.13761
0.130213
-0.136365
0.124421
-0.133617
0.11922
-0.129479
0.113594
-0.123796
0.106042
-0.118547
0.0977908
-0.113917
0.0937295
-0.101961
0.0981054
-0.0715828
0.110396
-0.0213298
0.126825
0.0356279
0.143287
0.0875348
0.157073
0.13127
0.16677
0.179183
0.171853
0.231034
0.172483
0.269671
0.169293
0.25896
0.164513
0.18251
0.159925
0.0628715
0.156032
-0.0618412
0.152796
-0.148999
0.15064
-0.202117
0.1474
-0.201275
0.14058
-0.204602
0.133431
-0.198652
0.131013
-0.190151
0.136255
-0.141937
0.143992
-0.0203285
0.149503
0.0830882
0.1494
0.249252
0.145576
0.290199
0.144489
0.304145
0.147294
0.204766
0.151287
0.033275
0.151916
-0.0146175
0.149448
-0.268194
-0.230107
0.112328
-0.0115276
0.107537
-0.0102091
0.103514
-0.00839299
0.100434
-0.00563992
0.0987173
-0.00188241
0.0984612
0.00382768
0.100039
0.00996405
0.103659
0.0162516
0.109364
0.0229484
0.116985
0.0294809
0.126141
0.0350284
0.136249
0.0386045
0.14657
0.0391104
0.156313
0.0354333
0.16479
0.0268112
0.171484
0.012867
0.176035
-0.00746456
0.177445
-0.0331172
0.174903
-0.0615844
0.16854
-0.0876884
0.159723
-0.107569
0.150242
-0.120338
0.141405
-0.12725
0.133789
-0.129994
0.127314
-0.12989
0.121632
-0.127934
0.116675
-0.124521
0.111979
-0.1191
0.106031
-0.1126
0.098707
-0.106593
0.0936647
-0.0969189
0.0958107
-0.0737288
0.106218
-0.0317369
0.122041
0.0198042
0.138973
0.0706037
0.154057
0.116185
0.16567
0.16757
0.172919
0.223785
0.175259
0.267331
0.172676
0.261543
0.167479
0.187706
0.161969
0.0683816
0.157
-0.0568716
0.152499
-0.144498
0.14951
-0.199128
0.146382
-0.198147
0.139938
-0.198159
0.132813
-0.191526
0.130023
-0.187361
0.135173
-0.147086
0.143332
-0.0284879
0.149643
0.0767779
0.150265
0.24863
0.146635
0.293829
0.145514
0.305266
0.14849
0.20179
0.152908
0.0288573
0.153738
-0.0154478
0.151121
-0.265576
-0.228483
0.138626
-0.00673363
0.134362
-0.00594558
0.130635
-0.0046657
0.12763
-0.00263534
0.125379
0.000368755
0.1244
0.00480701
0.124808
0.00955557
0.126683
0.0143774
0.130213
0.0194175
0.135377
0.0243173
0.141951
0.0284547
0.149519
0.0310359
0.157476
0.0311535
0.165091
0.0278181
0.171695
0.0202072
0.176694
0.00786816
0.179399
-0.0101695
0.178846
-0.0325637
0.174387
-0.0571257
0.166504
-0.0798055
0.156734
-0.0977986
0.14678
-0.110383
0.137747
-0.118217
0.130068
-0.122316
0.123693
-0.123515
0.118239
-0.12248
0.113533
-0.119815
0.109519
-0.115086
0.105092
-0.108173
0.0992327
-0.100733
0.0940173
-0.0917035
0.0941968
-0.0739083
0.102358
-0.0398982
0.116915
0.00524703
0.133804
0.0537147
0.14991
0.100079
0.163315
0.154165
0.172713
0.214387
0.176895
0.263149
0.175144
0.263294
0.169693
0.193157
0.163482
0.0745926
0.157594
-0.050984
0.151941
-0.138845
0.148101
-0.195288
0.14509
-0.195137
0.139136
-0.192204
0.132086
-0.184476
0.128836
-0.184112
0.133779
-0.152029
0.142401
-0.0371099
0.149623
0.0695559
0.151143
0.247109
0.147829
0.297143
0.146682
0.306413
0.149788
0.198684
0.15462
0.0240248
0.155648
-0.0164762
0.152869
-0.262797
-0.226874
0.152997
-0.0029797
0.149641
-0.00258991
0.146709
-0.00173348
0.144599
-0.000525386
0.142927
0.00204102
0.142368
0.00536582
0.142766
0.00915769
0.144078
0.0130653
0.146622
0.0168733
0.150369
0.0205709
0.155161
0.0236619
0.16068
0.025517
0.166486
0.0253482
0.171997
0.0223072
0.176554
0.0156501
0.17936
0.00506137
0.180186
-0.010995
0.177688
-0.0300654
0.17162
-0.0510583
0.162732
-0.070917
0.15255
-0.0876165
0.14254
-0.100374
0.133581
-0.109258
0.125977
-0.114712
0.119722
-0.11726
0.114516
-0.117274
0.11006
-0.11536
0.106462
-0.111488
0.103214
-0.104925
0.0990039
-0.0965235
0.0943631
-0.0870627
0.0931343
-0.0726795
0.0988945
-0.0456584
0.111596
-0.0074545
0.127836
0.0374747
0.144603
0.0833124
0.159758
0.13901
0.171469
0.202676
0.177637
0.256981
0.176724
0.264207
0.171197
0.198684
0.164474
0.0813151
0.157888
-0.0443982
0.151218
-0.132175
0.14652
-0.190591
0.143566
-0.192183
0.13819
-0.186828
0.131277
-0.177563
0.127497
-0.180332
0.132087
-0.156619
0.141138
-0.0461614
0.149369
0.0613258
0.151993
0.244485
0.149133
0.300002
0.147978
0.307568
0.151188
0.195474
0.156398
0.0188144
0.157626
-0.0177035
0.154684
-0.259855
-0.225296
0.157617
-0.000581501
0.155242
-0.000214976
0.152924
0.000584806
0.150868
0.00153029
0.149781
0.00312866
0.149698
0.00544862
0.150588
0.00826776
0.152352
0.0113004
0.154846
0.0143792
0.158077
0.0173399
0.16196
0.0197791
0.166271
0.0212068
0.170627
0.0209919
0.174531
0.0184031
0.177418
0.012763
0.179024
0.00345554
0.177721
-0.00969244
0.173648
-0.0259922
0.166627
-0.0440368
0.157551
-0.0618411
0.147701
-0.0777667
0.13818
-0.0908523
0.129637
-0.100715
0.122293
-0.107368
0.116179
-0.111146
0.111158
-0.112253
0.106903
-0.111104
0.103478
-0.108063
0.100914
-0.102362
0.0981528
-0.0937618
0.0945579
-0.0834678
0.0926112
-0.0707328
0.0961888
-0.0492361
0.106343
-0.0176091
0.121361
0.0224572
0.138006
0.0666672
0.154222
0.122794
0.168035
0.188863
0.176495
0.248521
0.176939
0.263763
0.171761
0.203863
0.164921
0.0881549
0.157795
-0.0372719
0.150325
-0.124705
0.144875
-0.185141
0.141895
-0.189203
0.137135
-0.182068
0.130406
-0.170834
0.126081
-0.176007
0.130218
-0.160756
0.139616
-0.0555591
0.148839
0.0521031
0.152733
0.240591
0.150506
0.30223
0.149397
0.308676
0.152674
0.192197
0.158234
0.0132547
0.159655
-0.0191239
0.156566
-0.256766
-0.223731
0.184092
0.00224003
-0.186914
0.181675
0.002202
0.179519
0.00274114
0.177447
0.00360197
0.175659
0.0049172
0.174355
0.00675218
0.173643
0.00898009
0.173543
0.0114007
0.174114
0.0138082
0.175493
0.0159606
0.177763
0.0175093
0.180957
0.0180121
0.185017
0.0169321
0.189724
0.0136962
0.194649
0.00783756
0.199157
-0.00105238
0.202479
-0.0130145
0.203828
-0.0273403
0.202703
-0.0429127
0.199201
-0.0583389
0.193813
-0.0723786
0.187134
-0.0841735
0.179727
-0.0933074
0.172015
-0.0996569
0.164314
-0.103445
0.156858
-0.104797
0.149601
-0.103847
0.142522
-0.100984
0.135901
-0.0957403
0.129354
-0.0872148
0.12175
-0.0758643
0.11377
-0.0627524
0.108711
-0.0441777
0.109405
-0.0183021
0.114974
0.0168874
0.122541
0.0591007
0.129582
0.115754
0.135641
0.182803
0.141383
0.242778
0.148097
0.25705
0.156919
0.195041
0.165225
0.0798488
0.169492
-0.0415389
0.167918
-0.123131
0.163027
-0.18025
0.157443
-0.183619
0.150102
-0.174726
0.1412
-0.161932
0.133917
-0.168724
0.131983
-0.158822
0.134218
-0.0577944
0.136313
0.0500083
0.136216
0.240688
0.134403
0.304043
0.135791
0.307288
0.14226
0.185728
0.148504
0.00701081
0.149983
-0.0206032
0.145566
-0.252349
-0.219851
0.195474
0.00400636
-0.197241
0.193817
0.00385906
0.192341
0.00421804
0.191014
0.00492862
0.189961
0.00596996
0.189345
0.00736818
0.189264
0.00906147
0.189772
0.0108927
0.190924
0.012656
0.192768
0.0141162
0.195316
0.0149616
0.198524
0.0148046
0.202247
0.0132088
0.206218
0.00972508
0.210041
0.00401501
0.213209
-0.00422124
0.215059
-0.0148639
0.215081
-0.0273624
0.213025
-0.0408567
0.208985
-0.0542988
0.203322
-0.0667161
0.196512
-0.077363
0.189053
-0.0858488
0.181358
-0.0919621
0.173688
-0.0957742
0.166255
-0.0973647
0.159079
-0.0966715
0.152034
-0.0939387
0.145345
-0.0890516
0.139096
-0.0809651
0.132294
-0.0690623
0.124695
-0.0551539
0.118773
-0.0382551
0.117734
-0.0172632
0.122186
0.0124349
0.129547
0.0517403
0.137248
0.108052
0.144472
0.17558
0.15169
0.235561
0.160076
0.248665
0.170079
0.185037
0.178966
0.0709624
0.183003
-0.0455767
0.180616
-0.120743
0.174557
-0.174191
0.168087
-0.177149
0.160347
-0.166987
0.151066
-0.15265
0.143046
-0.160704
0.140584
-0.15636
0.142684
-0.059894
0.145279
0.0474137
0.145874
0.240092
0.144541
0.305376
0.146277
0.305552
0.153088
0.178918
0.159746
0.000353083
0.161117
-0.021974
0.155917