/*--------------------------------*- C++ -*----------------------------------*\
| =========                 |                                                 |
| \\      /  F ield         | OpenFOAM: The Open Source CFD Toolbox           |
|  \\    /   O peration     | Version:  2512                                  |
|   \\  /    A nd           | Website:  www.openfoam.com                      |
|    \\/     M anipulation  |                                                 |
\*---------------------------------------------------------------------------*/
FoamFile
{
    version     2.0;
    format      ascii;
    arch        "LSB;label=32;scalar=64";
    class       volVectorField;
    location    "115";
    object      U;
}
// * * * * * * * * * * * * * * * * * * * * * * * * * * * * * * * * * * * * * //

dimensions      [0 1 -1 0 0 0 0];

internalField   nonuniform List<vector> 
13248
(
(-0.011506 0.0116002 8.77155e-20)
(-0.0165441 0.0219362 0)
(-0.00480011 0.0245642 -1.66502e-19)
(0.0217183 0.0216175 1.56843e-19)
(0.0618012 0.015052 1.47571e-19)
(0.114642 0.0065167 0)
(0.179462 -0.00273044 0)
(0.255239 -0.011749 3.60178e-19)
(0.340481 -0.0198419 -2.10393e-21)
(0.433083 -0.0265123 -3.13868e-19)
(0.530325 -0.0314434 2.87326e-19)
(0.62901 -0.0344871 -1.79543e-19)
(0.725723 -0.0356519 0)
(0.817144 -0.0350815 -2.90109e-19)
(0.900366 -0.0330221 5.33504e-19)
(0.973144 -0.029782 -1.26851e-19)
(1.03406 -0.0256875 -2.07279e-19)
(1.08257 -0.0210536 1.94599e-19)
(1.11897 -0.0161158 0)
(1.1442 -0.0111803 0)
(1.15989 -0.00602869 0)
(1.16722 -0.00191511 0)
(1.16964 0.00403053 4.73102e-20)
(1.16461 0.00378973 1.5556e-19)
(-0.00978928 0.00895554 -2.64809e-19)
(-0.00885194 0.015191 1.80595e-19)
(0.0119456 0.015469 -1.19994e-21)
(0.0504542 0.0116243 -2.39158e-19)
(0.105226 0.00543504 -1.4741e-19)
(0.175011 -0.00153769 -1.39371e-19)
(0.258274 -0.00810844 -2.57712e-19)
(0.35289 -0.0134352 2.42843e-19)
(0.455972 -0.0169824 0)
(0.563874 -0.0185027 1.8708e-21)
(0.672409 -0.0180154 3.41728e-21)
(0.777238 -0.0157642 1.77756e-19)
(0.874322 -0.0121534 0)
(0.960341 -0.00767015 0)
(1.033 -0.00280364 1.90446e-19)
(1.09117 0.00202281 -3.57486e-19)
(1.13488 0.00649866 2.01925e-19)
(1.16514 0.0104454 -1.89584e-19)
(1.1837 0.0138173 -8.00363e-20)
(1.19276 0.0166485 -1.3753e-19)
(1.19462 0.0191624 -5.26822e-20)
(1.19155 0.0211078 -9.64643e-20)
(1.18539 0.0241409 1.49174e-19)
(1.17656 0.0231454 4.09676e-20)
(-0.00706948 0.00615122 0)
(0.00243595 0.00791594 0)
(0.0352 0.00578995 8.46361e-20)
(0.0887223 0.00138509 7.83987e-20)
(0.161048 -0.00367495 -1.4215e-21)
(0.250065 -0.00795348 -1.42366e-19)
(0.35292 -0.010456 0)
(0.465781 -0.010636 -1.20762e-19)
(0.583878 -0.00836939 1.12148e-19)
(0.701839 -0.0039135 -3.75886e-22)
(0.814255 0.00217647 -1.89686e-19)
(0.916317 0.00917204 -1.70331e-19)
(1.00436 0.0163123 5.82147e-21)
(1.0762 0.0229315 -1.32712e-19)
(1.13122 0.02855 3.24985e-19)
(1.17019 0.0329158 0)
(1.19499 0.0359988 -1.96457e-19)
(1.20817 0.0379454 9.62396e-20)
(1.21253 0.0390243 7.99673e-20)
(1.21072 0.039518 0)
(1.20509 0.0398163 6.15948e-20)
(1.19734 0.0398212 -2.06579e-19)
(1.18881 0.0407316 1.93921e-19)
(1.18002 0.0386637 1.15582e-19)
(-0.00302927 0.00326486 -9.27752e-20)
(0.018171 0.000608513 -9.56706e-20)
(0.0662536 -0.0033962 8.71381e-20)
(0.138008 -0.0074246 0)
(0.230488 -0.0100818 0)
(0.340079 -0.0101924 -1.96956e-21)
(0.461924 -0.0071823 0)
(0.589966 -0.00109206 -3.62929e-19)
(0.717441 0.007509 3.36046e-19)
(0.837688 0.0176714 -4.1396e-19)
(0.945029 0.0282738 9.43535e-20)
(1.03546 0.0382455 0)
(1.10699 0.0467487 1.50854e-19)
(1.15962 0.0532835 -2.76993e-19)
(1.19498 0.0577067 6.59433e-20)
(1.21578 0.0601777 1.60659e-19)
(1.22528 0.0610602 -1.11645e-20)
(1.22668 0.0608119 -1.76628e-19)
(1.22281 0.0598874 0)
(1.21588 0.0586654 0)
(1.2075 0.0574718 -5.88156e-20)
(1.19864 0.0562594 5.174e-20)
(1.19001 0.0559397 1.77843e-19)
(1.18137 0.053086 -1.66986e-19)
(0.0027379 0.000365692 -9.67498e-20)
(0.0392422 -0.00624027 -9.67459e-20)
(0.106163 -0.0110341 2.72455e-19)
(0.199083 -0.0131984 -1.661e-19)
(0.313372 -0.0117781 1.56343e-19)
(0.443147 -0.00613135 2.85192e-19)
(0.580963 0.00355775 -2.00818e-19)
(0.718444 0.016346 -2.42411e-19)
(0.847413 0.0307909 6.06109e-21)
(0.961106 0.0452828 3.10291e-19)
(1.05506 0.058377 0)
(1.12745 0.06904 8.3136e-20)
(1.17892 0.0767621 0)
(1.21194 0.0815326 -1.31794e-19)
(1.23004 0.0837186 1.84891e-19)
(1.23706 0.0838992 1.6084e-21)
(1.23652 0.0827084 -4.68529e-20)
(1.23132 0.0807184 8.56084e-20)
(1.22357 0.0783765 7.33688e-20)
(1.21469 0.0759893 -6.47826e-20)
(1.20555 0.0737474 5.88002e-20)
(1.1966 0.0716441 -5.17261e-20)
(1.18809 0.0701593 0)
(1.17997 0.0667938 -3.8943e-20)
(0.0106527 -0.00241055 9.67359e-20)
(0.0664075 -0.0120238 1.00938e-19)
(0.1555 -0.0159982 -9.11388e-20)
(0.271693 -0.0143968 1.69661e-19)
(0.407869 -0.0070773 -1.59686e-19)
(0.5552 0.00566129 1.4448e-19)
(0.703514 0.0225034 -6.91036e-20)
(0.842769 0.0414078 1.82129e-19)
(0.964737 0.0601384 -1.13881e-19)
(1.0642 0.0767613 1.99288e-19)
(1.13936 0.0899803 -4.57715e-19)
(1.19138 0.099252 1.67015e-19)
(1.22357 0.1047 -1.4384e-19)
(1.24022 0.106908 1.35112e-19)
(1.24575 0.106673 1.13988e-19)
(1.244 0.104801 9.80823e-20)
(1.23793 0.101979 -2.72744e-19)
(1.22962 0.0987164 1.68334e-19)
(1.22039 0.0953501 -7.337e-20)
(1.21102 0.092079 1.88534e-19)
(1.2019 0.0890047 -6.09202e-20)
(1.19322 0.0861335 -1.44861e-19)
(1.18507 0.0837054 1.33159e-19)
(1.17733 0.0799893 3.89306e-20)
(0.021073 -0.00482105 0)
(0.100124 -0.0159558 5.85111e-22)
(0.214146 -0.0170616 1.88394e-19)
(0.354404 -0.00959513 -1.76964e-19)
(0.510562 0.00525224 -1.59819e-19)
(0.670586 0.0257761 2.96879e-19)
(0.822196 0.0492793 -1.37799e-19)
(0.955143 0.0727177 1.82981e-19)
(1.06294 0.0934745 -4.4878e-21)
(1.14343 0.109851 -1.02976e-19)
(1.19815 0.121197 2.22594e-19)
(1.23115 0.127749 -3.27016e-19)
(1.24755 0.13031 0)
(1.25235 0.129911 -6.29685e-20)
(1.24981 0.12755 -1.66241e-19)
(1.24307 0.124044 5.25347e-20)
(1.23425 0.119979 2.47493e-21)
(1.22464 0.115736 -1.10478e-19)
(1.21498 0.11154 8.49336e-21)
(1.20562 0.107509 1.27006e-19)
(1.19674 0.103693 -5.52691e-20)
(1.18837 0.100113 -2.06743e-20)
(1.18049 0.0968157 6.48722e-20)
(1.17302 0.0927736 0)
(0.0342282 -0.0065119 0)
(0.140406 -0.0170809 5.09573e-20)
(0.281151 -0.01295 -2.44058e-19)
(0.444609 0.00240459 8.88588e-20)
(0.616835 0.025864 -8.36304e-20)
(0.783053 0.0539565 -7.59936e-20)
(0.930328 0.0826583 -1.34527e-19)
(1.05012 0.108382 6.71655e-20)
(1.13928 0.128772 5.85472e-20)
(1.19941 0.142919 0)
(1.2352 0.151116 1.31175e-19)
(1.25262 0.154389 -1.93754e-19)
(1.25745 0.154042 1.44192e-19)
(1.25449 0.151307 6.30008e-20)
(1.24721 0.147171 -5.08229e-20)
(1.23788 0.14233 -4.17403e-20)
(1.22785 0.137227 -3.85293e-20)
(1.21783 0.132122 1.16944e-19)
(1.20818 0.127152 0)
(1.19905 0.122387 5.73174e-20)
(1.19047 0.117854 4.72572e-20)
(1.1824 0.113565 -1.1832e-19)
(1.17479 0.10947 -7.93575e-20)
(1.16756 0.105119 7.35909e-20)
(0.0501679 -0.00704466 -5.40315e-20)
(0.186726 -0.0143586 -1.57122e-21)
(0.354703 -0.00248336 4.94424e-20)
(0.538744 0.0224075 1.37501e-19)
(0.72153 0.0547486 3.97948e-20)
(0.886855 0.0892368 -7.69332e-20)
(1.02312 0.120977 7.0545e-20)
(1.12526 0.146562 -6.19296e-20)
(1.1943 0.164541 1.10226e-19)
(1.23541 0.175135 4.6786e-20)
(1.25545 0.179593 -1.32409e-19)
(1.26122 0.179542 3.89397e-20)
(1.25825 0.176525 6.58796e-20)
(1.25056 0.171764 -3.25074e-20)
(1.24069 0.166112 0)
(1.23014 0.160104 4.76316e-20)
(1.21966 0.154046 7.98788e-20)
(1.20962 0.148102 1.31275e-20)
(1.20016 0.142356 -6.61256e-20)
(1.1913 0.136845 2.74529e-20)
(1.18301 0.131587 0)
(1.17522 0.126573 -2.12651e-20)
(1.16787 0.121734 -1.97464e-20)
(1.16084 0.11702 0)
(0.0687205 -0.00594268 0)
(0.237969 -0.00679338 2.82015e-20)
(0.432213 0.0152457 5.21079e-20)
(0.632668 0.0506822 -1.39359e-19)
(0.819685 0.0912552 4.47621e-20)
(0.97759 0.130199 0)
(1.0981 0.162537 6.73359e-20)
(1.1807 0.185809 -9.38684e-20)
(1.23055 0.199908 -5.48343e-20)
(1.25547 0.206248 2.48587e-20)
(1.26343 0.206846 -3.91135e-20)
(1.26107 0.20366 9.533e-20)
(1.25317 0.198249 4.74546e-20)
(1.24277 0.191695 -3.31926e-20)
(1.23162 0.184666 -3.31926e-21)
(1.22058 0.177543 -8.9411e-20)
(1.21005 0.170525 4.06136e-20)
(1.20017 0.16371 -9.42719e-22)
(1.19097 0.157148 0)
(1.18242 0.15086 -2.74812e-20)
(1.17444 0.14485 0)
(1.16695 0.139093 6.13621e-20)
(1.15986 0.133556 -7.28392e-20)
(1.15305 0.128406 3.30818e-20)
(0.0894678 -0.00274202 -1.44439e-20)
(0.292458 0.00643655 -7.05071e-20)
(0.510515 0.0407263 7.99188e-20)
(0.722146 0.0869066 4.70761e-20)
(0.907144 0.134223 -2.25821e-20)
(1.05252 0.17525 3.77323e-20)
(1.15476 0.205853 -1.83974e-20)
(1.21813 0.225126 3.05782e-20)
(1.25116 0.234464 0)
(1.26324 0.236314 6.89424e-20)
(1.26247 0.233184 -2.89518e-21)
(1.25476 0.227119 -5.55151e-20)
(1.24393 0.21954 2.37144e-20)
(1.23213 0.211327 -2.6647e-20)
(1.22043 0.202968 -1.00522e-20)
(1.20931 0.194718 1.16899e-20)
(1.19893 0.186697 -8.98182e-21)
(1.18933 0.178963 -4.83657e-20)
(1.18046 0.171542 2.9638e-20)
(1.17225 0.164446 6.04411e-21)
(1.16461 0.157662 5.29817e-21)
(1.15744 0.151156 4.6446e-21)
(1.15064 0.144963 0)
(1.14406 0.139273 0)
(0.111816 0.00297036 1.44539e-20)
(0.34818 0.0258878 -1.44984e-20)
(0.586319 0.0739487 -2.65673e-20)
(0.803428 0.130214 0)
(0.980951 0.182183 -1.11621e-20)
(1.11046 0.222856 -9.96426e-21)
(1.19385 0.249777 -1.71172e-20)
(1.23969 0.263917 0)
(1.25886 0.268088 0)
(1.26129 0.265495 0)
(1.25454 0.258867 0)
(1.24354 0.250146 0)
(1.23112 0.240539 -1.48717e-20)
(1.21872 0.230715 6.76824e-21)
(1.20694 0.221012 1.17329e-20)
(1.19599 0.211584 5.47037e-21)
(1.18593 0.202501 1.35043e-20)
(1.17669 0.193792 0)
(1.16823 0.185469 -3.21388e-21)
(1.16044 0.177529 -3.03631e-21)
(1.15321 0.169948 -5.30656e-21)
(1.14644 0.162699 -4.65198e-21)
(1.14 0.155883 0)
(1.13376 0.149557 3.31252e-21)
(-0.00068763 -0.0240893 8.90505e-21)
(-0.00517551 -0.065772 -9.25112e-21)
(-0.0148622 -0.101387 -1.75224e-20)
(-0.0275398 -0.130668 0)
(-0.041893 -0.154085 -2.34471e-20)
(-0.0571303 -0.172722 7.35429e-21)
(-0.0726033 -0.187929 -1.39305e-20)
(-0.0877953 -0.200988 0)
(-0.102331 -0.212897 0)
(-0.115955 -0.224281 0)
(-0.128495 -0.235395 0)
(-0.139833 -0.246194 0)
(-0.149875 -0.256414 6.46433e-23)
(-0.15853 -0.265639 -9.32257e-21)
(-0.165693 -0.273351 1.7562e-20)
(-0.171242 -0.278957 2.4988e-20)
(-0.175035 -0.281809 7.72021e-21)
(-0.176917 -0.281221 0)
(-0.176736 -0.276496 7.16466e-21)
(-0.174367 -0.266966 -1.98012e-20)
(-0.16968 -0.252049 -1.23041e-20)
(-0.162477 -0.231262 -1.15623e-20)
(-0.152756 -0.204181 0)
(-0.141695 -0.170795 0)
(-8.78985e-05 -0.0188562 -2.6766e-20)
(-0.00418566 -0.053508 4.62014e-20)
(-0.0147223 -0.0844809 -1.74525e-20)
(-0.0288271 -0.110767 -3.31848e-20)
(-0.0448368 -0.132408 4.68714e-20)
(-0.0617986 -0.150215 -2.95965e-20)
(-0.0789738 -0.165313 4.17675e-20)
(-0.0958091 -0.178802 2.64239e-20)
(-0.111936 -0.191533 0)
(-0.127129 -0.20402 -2.34589e-20)
(-0.141261 -0.216451 -1.48167e-22)
(-0.154259 -0.22875 2.07668e-20)
(-0.166077 -0.24065 2.94625e-20)
(-0.176668 -0.251759 3.70143e-20)
(-0.185975 -0.261594 -1.74999e-20)
(-0.193925 -0.269606 -4.9243e-20)
(-0.200422 -0.275186 1.50831e-20)
(-0.205357 -0.277679 -5.70281e-20)
(-0.208631 -0.276393 0)
(-0.210181 -0.270634 1.30627e-20)
(-0.209893 -0.259746 1.22921e-20)
(-0.207435 -0.243102 1.1551e-20)
(-0.20283 -0.220052 0)
(-0.198646 -0.190389 0)
(-0.000199174 -0.0125227 0)
(-0.00448479 -0.0389152 9.30919e-20)
(-0.0156475 -0.0646897 -3.51167e-20)
(-0.0304925 -0.0878331 3.32696e-20)
(-0.0471856 -0.107777 -9.45272e-20)
(-0.0646999 -0.124912 0)
(-0.0822561 -0.140052 -5.62504e-20)
(-0.0992883 -0.15406 2.6508e-20)
(-0.115437 -0.167621 -5.02442e-20)
(-0.130499 -0.181147 2.3837e-20)
(-0.144371 -0.194769 1.33223e-19)
(-0.157011 -0.208398 -6.25214e-20)
(-0.168399 -0.22178 -9.77756e-20)
(-0.178522 -0.234551 -3.63757e-20)
(-0.18736 -0.246268 3.84091e-22)
(-0.194884 -0.256423 1.27863e-19)
(-0.201047 -0.26445 -5.97888e-20)
(-0.20579 -0.269723 1.08164e-21)
(-0.20907 -0.271562 0)
(-0.210891 -0.269242 -4.54847e-20)
(-0.211185 -0.262021 0)
(-0.209476 -0.249131 -4.02075e-20)
(-0.205601 -0.229846 1.43466e-19)
(-0.203571 -0.204069 -1.60471e-21)
(-0.00107215 -0.00568617 0)
(-0.00611369 -0.02322 4.22047e-22)
(-0.0175699 -0.0435047 3.57843e-20)
(-0.0323307 -0.0634307 -3.39398e-20)
(-0.0485981 -0.0817202 3.13928e-20)
(-0.0653673 -0.098265 1.80733e-19)
(-0.0818693 -0.113505 -5.66517e-20)
(-0.0975454 -0.128038 -5.39369e-20)
(-0.112044 -0.142374 1.01045e-19)
(-0.12517 -0.156823 -1.42327e-19)
(-0.136829 -0.171473 4.48336e-20)
(-0.146987 -0.186224 4.20995e-20)
(-0.15564 -0.200837 0)
(-0.162794 -0.214976 3.66026e-20)
(-0.168459 -0.228232 0)
(-0.172645 -0.24014 6.26779e-20)
(-0.175355 -0.25018 -1.14683e-19)
(-0.176577 -0.257776 2.98758e-20)
(-0.176309 -0.262289 9.84575e-20)
(-0.17459 -0.262999 4.54461e-20)
(-0.171413 -0.259078 0)
(-0.166231 -0.249574 -1.06012e-19)
(-0.158281 -0.233615 3.50064e-20)
(-0.152032 -0.211211 0)
(-0.00262905 0.00100741 0)
(-0.00890089 -0.00772281 -1.13849e-19)
(-0.0202415 -0.0224737 -3.66144e-20)
(-0.0340253 -0.0391422 -6.8323e-20)
(-0.0486924 -0.0557558 6.43393e-20)
(-0.0633509 -0.0716868 -6.05114e-20)
(-0.0772874 -0.0869808 1.1528e-19)
(-0.0899665 -0.101955 5.41883e-20)
(-0.101041 -0.116941 -1.53032e-19)
(-0.11031 -0.132147 9.61971e-20)
(-0.117674 -0.147617 -1.35073e-19)
(-0.123094 -0.16324 2.9639e-19)
(-0.12657 -0.178789 -1.58371e-19)
(-0.128128 -0.193943 7.36219e-20)
(-0.127808 -0.208318 2.02227e-19)
(-0.125672 -0.22148 -6.55778e-20)
(-0.121791 -0.232952 -6.02327e-20)
(-0.116236 -0.242223 -5.39962e-20)
(-0.109075 -0.248738 0)
(-0.100397 -0.251867 -8.07679e-20)
(-0.090303 -0.250826 -6.6106e-20)
(-0.0785122 -0.24456 1.02261e-19)
(-0.0635777 -0.231857 1.08712e-19)
(-0.0467512 -0.212138 -9.9737e-20)
(-0.00467058 0.00695591 0)
(-0.0124755 0.0063449 -1.55388e-19)
(-0.0232513 -0.003076 -1.17241e-21)
(-0.0351618 -0.0164933 1.38272e-19)
(-0.0470484 -0.0313605 0)
(-0.0582043 -0.0465695 0)
(-0.0680098 -0.0617821 0)
(-0.0759649 -0.0770371 -5.48071e-20)
(-0.0817216 -0.0924822 -9.59118e-23)
(-0.0850632 -0.108219 9.77919e-20)
(-0.0858698 -0.124237 -1.35953e-19)
(-0.0840917 -0.140409 4.03713e-22)
(-0.0797315 -0.1565 0)
(-0.0728369 -0.172193 -7.35849e-20)
(-0.063498 -0.187105 6.64838e-20)
(-0.0518474 -0.200808 -1.88559e-19)
(-0.0380572 -0.212845 2.24015e-19)
(-0.0223264 -0.222751 4.31681e-20)
(-0.00486444 -0.230053 -1.04056e-20)
(0.0141326 -0.234279 -1.65119e-19)
(0.0344326 -0.234905 -6.82865e-20)
(0.0556652 -0.231267 2.02244e-19)
(0.0780098 -0.222085 -1.28509e-19)
(0.10872 -0.202873 0)
(-0.00691816 0.0116827 7.67597e-20)
(-0.0163234 0.0179579 7.79604e-20)
(-0.0260596 0.0133962 -7.53458e-20)
(-0.0352478 0.00312385 -1.41489e-19)
(-0.0432212 -0.00992999 1.33234e-19)
(-0.0495 -0.0242666 -1.2645e-19)
(-0.053584 -0.039212 1.79118e-19)
(-0.0550242 -0.0545389 -5.47983e-20)
(-0.0534723 -0.0702096 1.05803e-19)
(-0.0486904 -0.086209 0)
(-0.040539 -0.102461 9.33265e-20)
(-0.0289629 -0.1188 -1.7579e-19)
(-0.0139851 -0.134968 1.60285e-19)
(0.00429474 -0.15063 -1.50546e-19)
(0.025699 -0.165385 0)
(0.0499726 -0.178792 1.24856e-19)
(0.0767864 -0.190387 2.20212e-19)
(0.105762 -0.199707 -2.06801e-19)
(0.136486 -0.206316 -8.87472e-20)
(0.168542 -0.209838 -7.21467e-20)
(0.201476 -0.209999 2.08516e-19)
(0.235075 -0.20653 4.89888e-20)
(0.268187 -0.198667 -5.1923e-20)
(0.314571 -0.180107 3.75563e-20)
(-0.00906535 0.014902 -7.677e-20)
(-0.0198746 0.0264098 2.42409e-19)
(-0.0280802 0.025953 -7.65312e-20)
(-0.0337551 0.0185574 1.44205e-19)
(-0.0367444 0.00730676 -1.35787e-19)
(-0.0368209 -0.00603682 8.84796e-22)
(-0.0336162 -0.0205262 6.10128e-20)
(-0.0267375 -0.0356996 2.30872e-19)
(-0.0158572 -0.0513411 -2.68152e-23)
(-0.000735659 -0.0673116 -1.00553e-19)
(0.0187591 -0.0834504 0)
(0.0426441 -0.0995349 -8.76716e-20)
(0.0708148 -0.115267 1.64606e-19)
(0.103039 -0.13028 1.48846e-19)
(0.138957 -0.144148 -7.0677e-20)
(0.178086 -0.156415 1.31874e-22)
(0.21984 -0.166616 -5.63415e-20)
(0.263558 -0.174305 1.0003e-19)
(0.30855 -0.17909 8.87056e-20)
(0.354161 -0.180642 -7.72717e-20)
(0.399531 -0.178836 6.5403e-20)
(0.445502 -0.173127 -5.51687e-20)
(0.485045 -0.165155 0)
(0.548768 -0.146594 -3.74771e-20)
(-0.0108389 0.0165424 7.9518e-20)
(-0.0225785 0.0313742 -8.12979e-20)
(-0.0287163 0.0340025 7.83796e-20)
(-0.0301301 0.0290041 0)
(-0.0271243 0.0194023 0)
(-0.0197096 0.00709368 1.33038e-19)
(-0.00766901 -0.00678224 -1.23214e-19)
(0.00930724 -0.0215756 1.17143e-19)
(0.0314967 -0.0369064 -5.4685e-19)
(0.0590827 -0.0525056 4.42059e-22)
(0.0921134 -0.0681146 9.61582e-20)
(0.130464 -0.0834398 0)
(0.173821 -0.0981322 -1.63245e-19)
(0.221667 -0.111791 3.02897e-19)
(0.273297 -0.12398 -2.09551e-19)
(0.327836 -0.134255 -3.0775e-19)
(0.384292 -0.142191 1.13591e-20)
(0.44161 -0.147416 2.04695e-19)
(0.498733 -0.149645 0)
(0.554811 -0.148624 0)
(0.608311 -0.14461 -6.53842e-20)
(0.66189 -0.136312 5.51529e-20)
(0.70261 -0.127929 -1.71747e-19)
(0.773006 -0.108092 1.61189e-19)
(-0.0120445 0.0167347 0)
(-0.0239657 0.0329159 0)
(-0.0273812 0.0374011 -2.36833e-19)
(-0.0237382 0.0341078 7.50439e-20)
(-0.0137017 0.0258403 -2.47434e-22)
(0.00250821 0.0145129 1.34478e-19)
(0.0249534 0.00137469 0)
(0.053814 -0.0127811 -1.18256e-19)
(0.0892449 -0.0274324 1.09941e-19)
(0.131267 -0.0421823 -2.0704e-19)
(0.179695 -0.0566736 9.49768e-22)
(0.23408 -0.07054 1.77821e-19)
(0.293685 -0.0833915 -3.3468e-21)
(0.357491 -0.0948208 1.45491e-19)
(0.424236 -0.104424 -2.12054e-19)
(0.492482 -0.111831 0)
(0.560716 -0.116729 2.17247e-19)
(0.627447 -0.118894 -3.03282e-19)
(0.691294 -0.118224 8.63561e-20)
(0.751265 -0.114603 0)
(0.805689 -0.108616 6.46796e-20)
(0.857427 -0.0987807 2.09404e-19)
(0.894138 -0.09011 -1.96531e-19)
(0.95479 -0.0707595 -1.86945e-19)
(-0.0125829 0.0157548 2.48663e-19)
(-0.0236628 0.0314353 -3.42564e-19)
(-0.0234716 0.0364609 1.28409e-22)
(-0.0137837 0.0340425 7.65538e-20)
(0.00449161 0.0266875 -1.43849e-19)
(0.0309587 0.0162473 -1.33711e-19)
(0.0655037 0.00401372 2.52919e-19)
(0.108105 -0.00912428 -1.40188e-21)
(0.15866 -0.0225292 -2.23135e-19)
(0.216834 -0.0357 4.15232e-19)
(0.281963 -0.0482013 -2.35173e-21)
(0.352994 -0.0596286 -1.80806e-19)
(0.428487 -0.0696025 0)
(0.506673 -0.07778 0)
(0.58556 -0.0838758 -6.8909e-20)
(0.663085 -0.087684 -1.22831e-19)
(0.737266 -0.0890931 -2.1491e-19)
(0.806352 -0.0880995 2.01739e-19)
(0.868951 -0.0847941 -8.63879e-20)
(0.92412 -0.0793336 1.43754e-19)
(0.971122 -0.0721809 -7.59556e-20)
(1.01132 -0.0626816 9.54187e-20)
(1.03887 -0.0543639 -2.45918e-19)
(1.07716 -0.03815 3.9176e-20)
(-0.0124145 0.0139391 8.4153e-20)
(-0.0213292 0.0275497 0)
(-0.016275 0.0318822 1.63926e-19)
(0.000827133 0.0295307 -1.54422e-19)
(0.0289147 0.0227003 1.43973e-19)
(0.0674263 0.0131388 0)
(0.116007 0.00213315 0)
(0.174283 -0.00937703 -1.19423e-19)
(0.241653 -0.0206857 1.49592e-21)
(0.317113 -0.0312403 1.05274e-19)
(0.399165 -0.0405962 -9.52233e-20)
(0.48581 -0.0483995 1.80483e-19)
(0.574636 -0.054388 0)
(0.662992 -0.0583987 2.94576e-19)
(0.748201 -0.0603737 -5.42438e-19)
(0.827791 -0.060359 3.72504e-19)
(0.899695 -0.0584909 2.11647e-19)
(0.9624 -0.0549901 -1.98687e-19)
(1.01505 -0.0500858 0)
(1.05734 -0.0441582 0)
(1.08984 -0.0372752 0)
(1.11316 -0.0299688 0)
(1.12816 -0.0226907 4.7452e-20)
(1.14299 -0.0115846 -1.58327e-19)
(-0.12935 -0.126114 -7.75108e-21)
(-0.106067 -0.0624142 7.77483e-21)
(-0.0796342 0.0125325 -2.18071e-22)
(-0.0492962 0.0964751 0)
(-0.0153925 0.185884 -6.60039e-21)
(0.02055 0.276617 1.24395e-20)
(0.0572585 0.363657 -4.74012e-22)
(0.092864 0.443092 -5.231e-21)
(0.124562 0.508802 0)
(0.150274 0.559816 0)
(0.168409 0.596369 -1.91277e-22)
(0.179969 0.618454 -1.71163e-22)
(0.190454 0.622513 -2.7248e-21)
(0.209373 0.599511 2.49248e-21)
(0.245954 0.538197 0)
(0.303198 0.432531 0)
(0.375932 0.286407 2.99382e-21)
(0.455154 0.110982 8.79307e-23)
(0.533987 -0.0775134 -2.72246e-21)
(0.607075 -0.255689 -1.70948e-22)
(0.668267 -0.397313 0)
(0.712934 -0.486749 0)
(0.739448 -0.527111 0)
(0.749583 -0.532689 0)
(0.748957 -0.518453 0)
(0.739548 -0.501139 0)
(0.715278 -0.49881 3.05989e-22)
(0.673152 -0.509039 -4.82542e-22)
(0.627253 -0.494837 0)
(0.602886 -0.407361 0)
(0.613958 -0.235671 -6.15936e-22)
(0.653759 -0.0214327 5.98616e-22)
(0.706218 0.177333 2.61639e-22)
(0.754884 0.318892 0)
(0.79361 0.397265 0)
(0.820084 0.423832 2.68501e-22)
(0.82961 0.438151 -2.60998e-22)
(0.811581 0.458287 0)
(0.769905 0.47424 2.56154e-22)
(0.728679 0.427815 -3.9013e-22)
(0.711815 0.294348 1.64476e-22)
(0.724736 0.100435 0)
(0.759322 -0.0992286 -2.76545e-22)
(0.797454 -0.234883 2.68903e-22)
(0.833709 -0.326199 0)
(0.836591 -0.357894 0)
(0.808755 -0.399624 -6.62592e-23)
(0.761999 -0.377085 1.87612e-22)
(0.736155 -0.296956 0)
(0.744895 -0.148077 0)
(0.784619 0.0418664 -5.85443e-23)
(0.811443 0.148441 4.74233e-24)
(0.818589 0.30665 -5.84609e-24)
(0.791251 0.324764 3.69398e-23)
(0.779617 0.357117 0)
(0.783063 0.257807 0)
(0.802841 0.0598253 0)
(0.797896 -0.016041 0)
(0.80673 -0.304641 0)
(0.785405 -0.251958 0)
(-0.198441 -0.149979 -6.32294e-22)
(-0.183015 -0.0916427 -2.65742e-20)
(-0.163473 -0.022002 6.79864e-22)
(-0.13871 0.0576479 2.43417e-20)
(-0.109337 0.144259 3.2272e-22)
(-0.075876 0.233657 0)
(-0.0387851 0.321461 -1.82202e-20)
(-0.00171824 0.404448 3.43848e-20)
(0.0334629 0.475493 -1.61665e-20)
(0.0676851 0.533216 1.2698e-20)
(0.0997072 0.575702 -1.21506e-20)
(0.131725 0.599983 1.05031e-20)
(0.1691 0.600277 -1.01932e-20)
(0.218653 0.567963 -3.27545e-22)
(0.284615 0.495511 -1.16859e-20)
(0.364898 0.38176 1.13555e-20)
(0.451919 0.232792 -1.31495e-20)
(0.538087 0.0585279 1.23558e-20)
(0.618798 -0.126742 -1.23961e-20)
(0.68896 -0.299149 2.26144e-20)
(0.742132 -0.431633 -1.02834e-20)
(0.774786 -0.509357 -4.74473e-22)
(0.788136 -0.537874 -5.11149e-21)
(0.785758 -0.534347 8.98042e-21)
(0.77396 -0.514127 -3.89999e-21)
(0.756596 -0.490511 1.86102e-22)
(0.728375 -0.479696 3.00777e-21)
(0.682811 -0.484103 3.68537e-22)
(0.629262 -0.474086 -6.55908e-21)
(0.592616 -0.401405 7.49202e-21)
(0.591816 -0.24701 -3.93711e-21)
(0.624448 -0.0445026 5.01065e-22)
(0.674959 0.150791 -2.62181e-22)
(0.726786 0.295814 3.8793e-22)
(0.772378 0.38048 0)
(0.807041 0.414818 0)
(0.822224 0.438991 -9.62776e-22)
(0.808551 0.468795 7.01445e-22)
(0.771694 0.48904 8.48123e-22)
(0.737991 0.43913 3.64052e-22)
(0.7281 0.296831 -1.42429e-21)
(0.745018 0.0943364 3.7671e-22)
(0.77946 -0.110414 0)
(0.812799 -0.246343 0)
(0.845385 -0.332135 0)
(0.844844 -0.354379 0)
(0.816712 -0.388992 2.56491e-22)
(0.766691 -0.366881 -1.23283e-22)
(0.738838 -0.294633 0)
(0.744969 -0.154493 0)
(0.782271 0.032876 0)
(0.808501 0.144028 -8.6166e-23)
(0.813058 0.308716 1.33162e-23)
(0.788005 0.328865 -7.99674e-23)
(0.775406 0.357944 0)
(0.782381 0.255601 0)
(0.806145 0.057698 6.91445e-23)
(0.802628 -0.0161566 2.12958e-22)
(0.813676 -0.303089 0)
(0.789759 -0.250736 0)
(-0.211703 -0.168669 -8.21025e-22)
(-0.206653 -0.117112 -4.5279e-20)
(-0.196341 -0.0535249 4.20883e-20)
(-0.179827 0.0197279 -3.94616e-20)
(-0.15726 0.101634 -3.24988e-22)
(-0.129033 0.188056 0)
(-0.0940635 0.275038 -3.02442e-20)
(-0.056463 0.358554 2.95204e-20)
(-0.0176587 0.431958 2.17366e-22)
(0.0255683 0.493231 3.18801e-22)
(0.072531 0.538182 2.995e-22)
(0.125035 0.561914 3.24076e-22)
(0.186675 0.557917 -2.09209e-20)
(0.260828 0.519051 2.06593e-20)
(0.347664 0.441123 0)
(0.442288 0.326091 8.00573e-22)
(0.536986 0.18042 -2.78882e-20)
(0.6258 0.011999 2.75193e-20)
(0.705817 -0.166743 0)
(0.771795 -0.331249 0)
(0.816116 -0.453932 -1.85984e-20)
(0.8363 -0.52118 3.22902e-20)
(0.836551 -0.540314 -2.39812e-20)
(0.822564 -0.530136 2.39445e-21)
(0.800689 -0.50622 1.41856e-20)
(0.775859 -0.478478 -1.21709e-20)
(0.744419 -0.460199 1.044e-20)
(0.69725 -0.458074 -1.03344e-23)
(0.638229 -0.451025 -5.26556e-21)
(0.590302 -0.393254 0)
(0.576905 -0.257862 0)
(0.60077 -0.0691798 2.71554e-21)
(0.647964 0.121421 -3.54368e-21)
(0.702017 0.268985 -4.83427e-23)
(0.753722 0.359923 2.24848e-21)
(0.795876 0.402806 -2.1851e-21)
(0.816488 0.437561 0)
(0.807647 0.477274 2.35399e-22)
(0.776355 0.502031 2.60141e-21)
(0.750261 0.449501 -5.71463e-21)
(0.747195 0.299847 2.71066e-21)
(0.768021 0.0904747 4.29755e-22)
(0.802292 -0.118707 -3.3066e-21)
(0.830549 -0.25524 2.50742e-21)
(0.858924 -0.336599 4.3284e-22)
(0.85483 -0.350244 3.20179e-22)
(0.826625 -0.378012 -2.57131e-22)
(0.773727 -0.356624 0)
(0.744035 -0.292438 0)
(0.747346 -0.161312 -7.79652e-22)
(0.781853 0.0237051 3.89194e-22)
(0.807318 0.139385 -3.32995e-22)
(0.809205 0.310528 4.90748e-22)
(0.786168 0.332884 6.3754e-22)
(0.772337 0.35856 -1.53261e-22)
(0.782899 0.253056 3.24733e-22)
(0.810788 0.0551555 -3.11744e-22)
(0.808681 -0.0163902 1.75942e-22)
(0.821679 -0.30133 0)
(0.79498 -0.24938 0)
(-0.163171 -0.179842 -7.69926e-20)
(-0.169152 -0.135798 4.4545e-21)
(-0.168236 -0.0791487 6.84754e-20)
(-0.161004 -0.0129101 -5.54431e-22)
(-0.146371 0.0618196 0)
(-0.124982 0.142952 0)
(-0.0944848 0.227846 -4.59559e-20)
(-0.0588398 0.306469 2.3233e-21)
(-0.0181468 0.378696 6.00542e-20)
(0.0324131 0.440417 -7.64258e-22)
(0.0911162 0.48538 -1.8102e-20)
(0.159124 0.507636 -1.82593e-20)
(0.237896 0.500723 1.82528e-20)
(0.327859 0.459128 0)
(0.426488 0.381171 -2.52022e-20)
(0.527616 0.27048 2.28647e-20)
(0.624404 0.132656 0)
(0.713203 -0.0274503 0)
(0.791866 -0.198005 2.64822e-20)
(0.853335 -0.353791 -2.87605e-21)
(0.888728 -0.466588 -2.15656e-20)
(0.896622 -0.52437 -1.46736e-20)
(0.884151 -0.536061 1.45265e-20)
(0.859463 -0.521065 -8.39712e-21)
(0.828743 -0.495102 1.72423e-21)
(0.796922 -0.465466 6.19815e-21)
(0.762484 -0.441338 6.06064e-22)
(0.715388 -0.431818 3.96086e-23)
(0.653773 -0.425255 0)
(0.596321 -0.381365 5.69848e-21)
(0.569835 -0.266748 -5.87173e-21)
(0.583283 -0.0939703 4.30808e-22)
(0.62567 0.0899696 0)
(0.680821 0.238864 -3.43926e-22)
(0.737638 0.335882 4.08091e-21)
(0.786436 0.387783 -7.27491e-21)
(0.812251 0.433469 -5.59031e-22)
(0.808628 0.483117 -4.65592e-22)
(0.783404 0.51279 3.46584e-21)
(0.76482 0.458911 6.50588e-22)
(0.768489 0.303727 -6.59851e-21)
(0.79305 0.088696 5.59956e-21)
(0.827265 -0.124138 -3.79649e-23)
(0.850456 -0.261638 2.10979e-21)
(0.874179 -0.33974 -2.48529e-21)
(0.866348 -0.345743 -2.11835e-21)
(0.838156 -0.366831 6.36719e-22)
(0.782761 -0.346197 7.97878e-22)
(0.751364 -0.29014 -1.5183e-21)
(0.751725 -0.168359 1.10263e-21)
(0.783189 0.0143921 -3.46528e-22)
(0.80783 0.134464 3.38813e-22)
(0.807033 0.312075 2.91982e-22)
(0.785823 0.336881 -9.54563e-22)
(0.770554 0.35901 -8.10305e-24)
(0.784702 0.250204 -3.7855e-22)
(0.816753 0.0522119 0)
(0.816044 -0.0167246 -1.66666e-22)
(0.830708 -0.299343 3.49967e-22)
(0.801033 -0.247868 0)
(-0.057099 -0.182924 6.3891e-20)
(-0.0735569 -0.146087 -1.19054e-19)
(-0.0807432 -0.096846 5.47562e-20)
(-0.082948 -0.0380587 4.47852e-20)
(-0.076709 0.028238 -8.35985e-20)
(-0.0607168 0.102141 3.03002e-21)
(-0.0382239 0.178097 3.52015e-20)
(-0.0082108 0.250101 3.04935e-20)
(0.0333639 0.319648 -2.99066e-20)
(0.086712 0.379131 0)
(0.151205 0.422385 -3.10801e-20)
(0.227187 0.44313 6.44299e-20)
(0.314392 0.435301 -3.33245e-20)
(0.411207 0.394623 0)
(0.51357 0.320904 0)
(0.614999 0.218279 8.21946e-22)
(0.71013 0.0907512 -5.78249e-20)
(0.797631 -0.0593532 5.6164e-20)
(0.874875 -0.220656 0)
(0.931658 -0.366539 4.75924e-20)
(0.957892 -0.469003 -8.19599e-20)
(0.953883 -0.518362 6.47986e-20)
(0.929566 -0.524946 -5.01123e-20)
(0.895395 -0.507443 4.72049e-21)
(0.857433 -0.480998 2.86109e-20)
(0.819595 -0.451424 -1.2432e-20)
(0.782236 -0.423785 -2.925e-22)
(0.736218 -0.407132 -3.71975e-21)
(0.674844 -0.398425 -2.5531e-22)
(0.610538 -0.365837 4.00959e-21)
(0.571253 -0.272304 3.38551e-22)
(0.572725 -0.118002 -5.10717e-21)
(0.608472 0.0570437 9.66694e-21)
(0.663374 0.205838 -5.06276e-21)
(0.724026 0.308493 0)
(0.778466 0.369532 -3.93663e-21)
(0.809234 0.426198 3.82982e-21)
(0.811126 0.485803 -3.68381e-21)
(0.792306 0.521049 4.57386e-21)
(0.781032 0.46747 -6.94833e-22)
(0.79111 0.308479 0)
(0.81937 0.0890361 -8.90952e-22)
(0.853942 -0.12665 2.38221e-21)
(0.872208 -0.265372 0)
(0.890911 -0.341413 4.08789e-21)
(0.879211 -0.340888 -1.7824e-21)
(0.851042 -0.355527 4.86402e-22)
(0.793458 -0.335617 3.60964e-22)
(0.760414 -0.287644 0)
(0.757758 -0.175509 0)
(0.786051 0.0049455 -8.69699e-22)
(0.809922 0.129196 1.36276e-21)
(0.806526 0.313323 -8.17094e-22)
(0.787043 0.340888 2.60152e-22)
(0.770203 0.359353 6.47091e-22)
(0.787858 0.247036 3.78913e-22)
(0.824016 0.0488883 -7.58328e-22)
(0.824696 -0.0171505 0)
(0.840714 -0.297077 -5.25633e-22)
(0.807872 -0.246172 -8.00712e-23)
(0.0999683 -0.178175 5.47314e-20)
(0.0732186 -0.147408 -5.42154e-20)
(0.0572017 -0.107513 3.73083e-22)
(0.0454456 -0.0582959 -2.49958e-22)
(0.0423985 -3.25431e-05 2.83566e-22)
(0.0492344 0.0639502 -2.48977e-22)
(0.0642837 0.129451 3.06046e-22)
(0.0899433 0.196456 0)
(0.127884 0.260531 -2.81985e-22)
(0.178845 0.315615 3.02396e-22)
(0.242797 0.355914 3.45157e-22)
(0.31932 0.375298 -4.72371e-22)
(0.407059 0.368197 0)
(0.503294 0.331025 0)
(0.603292 0.264097 6.90546e-22)
(0.700984 0.171229 0)
(0.792807 0.0545515 -8.44841e-22)
(0.87878 -0.0849578 0)
(0.954179 -0.235707 -5.10534e-20)
(1.00537 -0.370269 9.5304e-20)
(1.02196 -0.462179 -8.01384e-20)
(1.00672 -0.504392 3.59812e-20)
(0.971986 -0.508076 2.15631e-20)
(0.929767 -0.490215 -2.09414e-20)
(0.886123 -0.464545 -1.26317e-20)
(0.843433 -0.436329 1.21825e-20)
(0.803143 -0.407494 0)
(0.758547 -0.384942 2.04189e-22)
(0.699889 -0.37195 0)
(0.63224 -0.347065 0)
(0.581405 -0.273409 7.49843e-21)
(0.569717 -0.139807 -7.67562e-21)
(0.597003 0.0236552 4.38676e-22)
(0.649872 0.170448 4.97973e-22)
(0.712732 0.277911 -3.56981e-22)
(0.771676 0.347878 -3.16474e-21)
(0.80712 0.415311 3.07295e-21)
(0.814686 0.484866 -4.54849e-21)
(0.802424 0.526564 3.96659e-21)
(0.798177 0.475224 1.40493e-21)
(0.814334 0.314115 -7.16616e-21)
(0.846291 0.0918062 -1.02341e-21)
(0.881654 -0.126246 5.21684e-21)
(0.895414 -0.266376 0)
(0.908831 -0.341551 -1.87251e-21)
(0.893192 -0.335746 1.60855e-21)
(0.864998 -0.34417 -2.19406e-21)
(0.805482 -0.324838 -3.63247e-22)
(0.770759 -0.284817 0)
(0.765063 -0.182672 2.6618e-22)
(0.790157 -0.00467716 -4.84685e-22)
(0.813435 0.123485 -3.96841e-23)