/*--------------------------------*- C++ -*----------------------------------*\
| =========                 |                                                 |
| \\      /  F ield         | OpenFOAM: The Open Source CFD Toolbox           |
|  \\    /   O peration     | Version:  2512                                  |
|   \\  /    A nd           | Website:  www.openfoam.com                      |
|    \\/     M anipulation  |                                                 |
\*---------------------------------------------------------------------------*/
FoamFile
{
    version     2.0;
    format      ascii;
    arch        "LSB;label=32;scalar=64";
    class       volScalarField;
    location    "120.75";
    object      p;
}
// * * * * * * * * * * * * * * * * * * * * * * * * * * * * * * * * * * * * * //

dimensions      [0 2 -2 0 0 0 0];

internalField   nonuniform List<scalar> 
13248
(
-0.368863
-0.367152
-0.364177
-0.36026
-0.355782
-0.351139
-0.346701
-0.342796
-0.339665
-0.33744
-0.336126
-0.335597
-0.335606
-0.335815
-0.335833
-0.335263
-0.333743
-0.330995
-0.326823
-0.321163
-0.313854
-0.305088
-0.293653
-0.280462
-0.377384
-0.374909
-0.371356
-0.367011
-0.36221
-0.357313
-0.352628
-0.348394
-0.344748
-0.341719
-0.339216
-0.337047
-0.334946
-0.332609
-0.329744
-0.326099
-0.321495
-0.315828
-0.309061
-0.301191
-0.292203
-0.282115
-0.270641
-0.258653
-0.388206
-0.384687
-0.380364
-0.375471
-0.370251
-0.364998
-0.359925
-0.355146
-0.350677
-0.346442
-0.342293
-0.338038
-0.333475
-0.328422
-0.322746
-0.31637
-0.309271
-0.301463
-0.292971
-0.28383
-0.274018
-0.263608
-0.252396
-0.241024
-0.401213
-0.396418
-0.391164
-0.385598
-0.379825
-0.374034
-0.368308
-0.362618
-0.356867
-0.350924
-0.344659
-0.337969
-0.330789
-0.323102
-0.314932
-0.306326
-0.29734
-0.288022
-0.278402
-0.268494
-0.258301
-0.247864
-0.237082
-0.22656
-0.416279
-0.410042
-0.403738
-0.397382
-0.390878
-0.384274
-0.3775
-0.3704
-0.362821
-0.35467
-0.345927
-0.336644
-0.326923
-0.316885
-0.306651
-0.296314
-0.28594
-0.27556
-0.265181
-0.254799
-0.244401
-0.233998
-0.223536
-0.213385
-0.433259
-0.42548
-0.418053
-0.410786
-0.403315
-0.395503
-0.387145
-0.37803
-0.368058
-0.357274
-0.345844
-0.333992
-0.321947
-0.309904
-0.298003
-0.286327
-0.274908
-0.263746
-0.252819
-0.242102
-0.231569
-0.221207
-0.210986
-0.201138
-0.451925
-0.442569
-0.433973
-0.425642
-0.416861
-0.407309
-0.396721
-0.384956
-0.372096
-0.358412
-0.344264
-0.330007
-0.315926
-0.302215
-0.288978
-0.276253
-0.26403
-0.252272
-0.240937
-0.229979
-0.219359
-0.209045
-0.199018
-0.189365
-0.471879
-0.460974
-0.451169
-0.441545
-0.430987
-0.419047
-0.405544
-0.390567
-0.374487
-0.357821
-0.341078
-0.324663
-0.308842
-0.293752
-0.279436
-0.265875
-0.253018
-0.2408
-0.229157
-0.21803
-0.207366
-0.197123
-0.187281
-0.177816
-0.492492
-0.480131
-0.469052
-0.457807
-0.44489
-0.429871
-0.412841
-0.394267
-0.374849
-0.355302
-0.3362
-0.317913
-0.300632
-0.284411
-0.269223
-0.254997
-0.241646
-0.229084
-0.217226
-0.206001
-0.195343
-0.185205
-0.175551
-0.166276
-0.512879
-0.499206
-0.486739
-0.473441
-0.457529
-0.438803
-0.417824
-0.395513
-0.372859
-0.350681
-0.329521
-0.309656
-0.291171
-0.274033
-0.25815
-0.243409
-0.229692
-0.216891
-0.204908
-0.193656
-0.18306
-0.173065
-0.163608
-0.154549
-0.531917
-0.517099
-0.503062
-0.487203
-0.467683
-0.444784
-0.419674
-0.393715
-0.368088
-0.343608
-0.320713
-0.299551
-0.280099
-0.262243
-0.245835
-0.230724
-0.21677
-0.203845
-0.191836
-0.180643
-0.170182
-0.160384
-0.15115
-0.142356
-0.548355
-0.532589
-0.516768
-0.49782
-0.474147
-0.446752
-0.417484
-0.38808
-0.3598
-0.333362
-0.309051
-0.286875
-0.2667
-0.248339
-0.231596
-0.216288
-0.202251
-0.18934
-0.177428
-0.166407
-0.156185
-0.146678
-0.137761
-0.129367
-0.345113
-0.346496
-0.347291
-0.347815
-0.348411
-0.349252
-0.350439
-0.352037
-0.354083
-0.356604
-0.359632
-0.363206
-0.367367
-0.372156
-0.377602
-0.383713
-0.390466
-0.397788
-0.405556
-0.413592
-0.421606
-0.429247
-0.436087
-0.441793
-0.348361
-0.348851
-0.3491
-0.349278
-0.349623
-0.350308
-0.351449
-0.353145
-0.355447
-0.35841
-0.362092
-0.366558
-0.371881
-0.378127
-0.385344
-0.393555
-0.402731
-0.412774
-0.423503
-0.434776
-0.446034
-0.456907
-0.466748
-0.475006
-0.35147
-0.351093
-0.350787
-0.350581
-0.350611
-0.351057
-0.352007
-0.353663
-0.356049
-0.359244
-0.36332
-0.368369
-0.374472
-0.381706
-0.390128
-0.399755
-0.410548
-0.422392
-0.435074
-0.448282
-0.461565
-0.474358
-0.485889
-0.495282
-0.354007
-0.352883
-0.352048
-0.351419
-0.351047
-0.351109
-0.351766
-0.353158
-0.355384
-0.358531
-0.362687
-0.367942
-0.374384
-0.382086
-0.391097
-0.401421
-0.413
-0.425691
-0.439253
-0.453327
-0.467436
-0.480949
-0.493047
-0.502271
-0.355727
-0.354053
-0.352758
-0.351685
-0.350831
-0.350383
-0.350534
-0.351446
-0.35325
-0.356052
-0.359953
-0.365041
-0.371398
-0.379088
-0.388143
-0.398546
-0.410213
-0.422977
-0.436562
-0.450576
-0.464498
-0.477498
-0.489497
-0.497556
-0.356582
-0.354602
-0.352947
-0.35143
-0.350028
-0.348948
-0.348419
-0.348641
-0.349778
-0.351967
-0.355319
-0.359927
-0.365865
-0.373182
-0.381889
-0.391946
-0.403243
-0.415584
-0.428633
-0.441982
-0.455159
-0.467028
-0.477951
-0.483827
-0.356722
-0.354688
-0.352785
-0.350842
-0.348857
-0.347066
-0.345739
-0.345121
-0.34542
-0.346806
-0.349412
-0.353339
-0.358655
-0.365395
-0.373547
-0.383038
-0.393701
-0.405309
-0.417536
-0.429785
-0.441634
-0.451632
-0.460674
-0.46355
-0.356479
-0.354602
-0.352551
-0.350213
-0.34765
-0.345132
-0.342972
-0.341465
-0.340868
-0.341388
-0.343184
-0.34637
-0.351009
-0.357114
-0.364635
-0.373454
-0.383372
-0.394037
-0.405022
-0.41565
-0.425501
-0.432948
-0.439126
-0.438534
-0.356346
-0.354747
-0.352608
-0.349914
-0.346813
-0.343619
-0.340688
-0.338361
-0.336939
-0.336666
-0.337726
-0.340234
-0.344242
-0.349727
-0.35658
-0.364593
-0.373454
-0.382726
-0.39189
-0.400223
-0.407275
-0.411583
-0.41411
-0.410043
-0.35693
-0.355607
-0.353388
-0.35037
-0.346804
-0.343046
-0.339488
-0.336506
-0.334434
-0.333537
-0.334004
-0.335937
-0.339342
-0.344124
-0.350078
-0.356889
-0.364135
-0.3713
-0.377826
-0.383088
-0.386695
-0.38768
-0.386684
-0.379874
-0.35887
-0.357692
-0.355336
-0.352018
-0.348072
-0.343891
-0.339886
-0.336448
-0.333919
-0.332556
-0.332523
-0.333871
-0.336529
-0.340305
-0.344889
-0.349865
-0.354736
-0.358978
-0.362075
-0.363627
-0.363407
-0.361186
-0.357565
-0.349696
-0.362731
-0.361445
-0.358844
-0.355224
-0.350971
-0.346491
-0.342198
-0.338466
-0.335608
-0.333841
-0.333264
-0.333847
-0.335425
-0.337711
-0.340314
-0.342776
-0.344617
-0.34539
-0.344707
-0.342371
-0.338207
-0.332539
-0.325754
-0.317717
-0.447218
-0.448818
-0.444286
-0.432692
-0.41315
-0.385785
-0.35189
-0.313908
-0.275013
-0.23874
-0.208302
-0.186134
-0.173986
-0.172735
-0.181499
-0.196532
-0.211173
-0.217565
-0.210519
-0.189624
-0.16028
-0.130508
-0.106451
-0.0908188
-0.0836169
-0.0835492
-0.0901068
-0.10482
-0.127958
-0.153077
-0.167843
-0.163142
-0.141978
-0.114574
-0.0905215
-0.0742728
-0.0653675
-0.0625731
-0.0675063
-0.0797924
-0.0916223
-0.0930812
-0.0846674
-0.0713779
-0.0600378
-0.0525627
-0.0505067
-0.0543311
-0.0597492
-0.0610447
-0.055333
-0.0488045
-0.0416198
-0.0349086
-0.0317366
-0.0293254
-0.0270227
-0.0256951
-0.0183496
-0.00394183
-0.48361
-0.486494
-0.481977
-0.469183
-0.44707
-0.415698
-0.376531
-0.33234
-0.286825
-0.243844
-0.206744
-0.177979
-0.159061
-0.150843
-0.153073
-0.163147
-0.175465
-0.182637
-0.178638
-0.163455
-0.140391
-0.116422
-0.0972483
-0.0856929
-0.0819642
-0.084949
-0.0945954
-0.112816
-0.139516
-0.167294
-0.18264
-0.176097
-0.151803
-0.121044
-0.093915
-0.0749506
-0.0636848
-0.0585963
-0.0608916
-0.0704869
-0.0806918
-0.082492
-0.0755674
-0.0650214
-0.0566798
-0.051762
-0.0522042
-0.0587114
-0.0659593
-0.0678831
-0.0605465
-0.0521308
-0.0430184
-0.0343375
-0.0296696
-0.0255809
-0.0232376
-0.022006
-0.0158258
-0.00347452
-0.506002
-0.510126
-0.505613
-0.492039
-0.468252
-0.434133
-0.391212
-0.342458
-0.291811
-0.243424
-0.200891
-0.166638
-0.141991
-0.127586
-0.123451
-0.128115
-0.137375
-0.144731
-0.143339
-0.134326
-0.117625
-0.0996421
-0.0856048
-0.078363
-0.0782261
-0.084277
-0.0968868
-0.118236
-0.147929
-0.177945
-0.194059
-0.186345
-0.159575
-0.126036
-0.0962969
-0.0749649
-0.0615803
-0.0544043
-0.0542158
-0.061183
-0.0697732
-0.0717033
-0.0663455
-0.0584045
-0.0529472
-0.0505821
-0.053616
-0.0629137
-0.0720543
-0.0745933
-0.0655677
-0.0551767
-0.0442025
-0.0336961
-0.0276584
-0.0219241
-0.0194865
-0.0182967
-0.0132925
-0.00300915
-0.513776
-0.518616
-0.514509
-0.500894
-0.476464
-0.441021
-0.396144
-0.34487
-0.291228
-0.239491
-0.193264
-0.1549
-0.125605
-0.105891
-0.0958715
-0.0948308
-0.100156
-0.106965
-0.110409
-0.103988
-0.0930069
-0.080813
-0.0718622
-0.0688824
-0.072185
-0.0810468
-0.0962024
-0.120094
-0.15224
-0.184309
-0.201574
-0.193468
-0.165049
-0.12942
-0.0976433
-0.0743911
-0.059198
-0.0501956
-0.0477613
-0.0522463
-0.0592307
-0.0610983
-0.0572202
-0.0516556
-0.0488968
-0.0489995
-0.0546278
-0.0667608
-0.0778533
-0.0810265
-0.0703136
-0.0579015
-0.0451485
-0.03298
-0.0257179
-0.0183862
-0.015806
-0.014604
-0.0107717
-0.00255109
-0.508332
-0.512676
-0.509148
-0.496374
-0.472339
-0.436995
-0.392144
-0.340739
-0.286618
-0.233886
-0.185974
-0.145098
-0.112349
-0.0881896
-0.0728328
-0.0661057
-0.0666355
-0.0710978
-0.0748987
-0.0731361
-0.06753
-0.0606261
-0.0564002
-0.0573062
-0.0636698
-0.074932
-0.0921196
-0.117935
-0.152036
-0.185979
-0.20472
-0.197164
-0.16812
-0.131214
-0.0980289
-0.073333
-0.0566784
-0.0461392
-0.0417423
-0.0439396
-0.0493636
-0.0510099
-0.0484056
-0.0449029
-0.0445726
-0.0469772
-0.0551232
-0.0700759
-0.0831531
-0.0870015
-0.0746918
-0.0602703
-0.0458432
-0.0321859
-0.0238587
-0.0149947
-0.0122298
-0.0109627
-0.00828352
-0.00210551
-0.492223
-0.494645
-0.49165
-0.480239
-0.457421
-0.42353
-0.380612
-0.331334
-0.279133
-0.227718
-0.180168
-0.138483
-0.10366
-0.0761179
-0.0561443
-0.0439578
-0.0391677
-0.0399549
-0.0429226
-0.0439215
-0.0423964
-0.0399183
-0.0397274
-0.043915
-0.0528278
-0.0660232
-0.084711
-0.111809
-0.147272
-0.18288
-0.203368
-0.19732
-0.16874
-0.131458
-0.0975345
-0.0718798
-0.0541191
-0.0423384
-0.0362925
-0.0364465
-0.0403977
-0.0417063
-0.0400875
-0.0382707
-0.0400212
-0.0444963
-0.0550054
-0.0726854
-0.0877454
-0.0923386
-0.0786162
-0.0622572
-0.0462765
-0.0313072
-0.0220816
-0.011773
-0.00878537
-0.00740379
-0.00584457
-0.00167728
-0.467969
-0.467397
-0.464732
-0.454896
-0.433943
-0.402754
-0.363458
-0.318204
-0.269865
-0.221638
-0.176165
-0.135185
-0.0996363
-0.0699434
-0.0464019
-0.0294139
-0.0192623
-0.0154151
-0.015929
-0.0178458
-0.0186662
-0.0196009
-0.0225462
-0.0292639
-0.0401018
-0.0546953
-0.0743329
-0.102088
-0.138306
-0.17528
-0.197792
-0.194013
-0.166929
-0.130229
-0.0962448
-0.0701024
-0.0515841
-0.0388479
-0.0314595
-0.0298412
-0.0324526
-0.0333681
-0.0324205
-0.0318823
-0.0353124
-0.0415649
-0.0541984
-0.0744402
-0.0914438
-0.096874
-0.0820021
-0.0638413
-0.0464444
-0.0303403
-0.0203786
-0.00873487
-0.00549411
-0.00395506
-0.00346718
-0.00127157
-0.437873
-0.433641
-0.431315
-0.423141
-0.404564
-0.377157
-0.342799
-0.302909
-0.259745
-0.215954
-0.173739
-0.134608
-0.0994637
-0.0687914
-0.0429086
-0.0222265
-0.00729673
0.0015376
0.00486775
0.00450203
0.00267857
-0.000397187
-0.00548389
-0.0139305
-0.026021
-0.0414664
-0.0615801
-0.0894684
-0.125876
-0.163869
-0.188511
-0.187519
-0.162815
-0.127604
-0.0942234
-0.0680454
-0.0491081
-0.0356934
-0.0272589
-0.0241408
-0.0255582
-0.0260731
-0.025524
-0.0258649
-0.0305294
-0.0382211
-0.0526653
-0.0752265
-0.0940868
-0.100471
-0.0847772
-0.0650107
-0.0463543
-0.0292936
-0.0187543
-0.00588801
-0.00236873
-0.00064027
-0.00115997
-0.000893931
-0.403892
-0.396598
-0.394993
-0.388337
-0.372437
-0.349537
-0.320814
-0.286901
-0.249494
-0.210701
-0.172331
-0.135725
-0.101782
-0.071083
-0.0440153
-0.020957
-0.00242381
0.0109257
0.0187056
0.021461
0.020658
0.0171135
0.0109912
0.00161626
-0.0110761
-0.0268745
-0.0470929
-0.0748178
-0.111089
-0.149711
-0.17627
-0.178304
-0.156689
-0.123797
-0.091663
-0.0658705
-0.0468199
-0.0329688
-0.0237406
-0.0193656
-0.019718
-0.0198378
-0.0194646
-0.0203279
-0.0257728
-0.0345093
-0.0503831
-0.0749813
-0.0955781
-0.103027
-0.0868941
-0.0657837
-0.0460422
-0.0281889
-0.0172418
-0.00326266
0.000584255
0.00252166
0.00107236
-0.000550452
-0.369161
-0.360749
-0.360071
-0.354343
-0.341121
-0.322892
-0.299761
-0.271722
-0.240004
-0.206203
-0.171774
-0.137937
-0.105626
-0.0755348
-0.0481427
-0.0238272
-0.00298354
0.0137908
0.0257298
0.0324189
0.0342909
0.0321461
0.026334
0.0168879
0.00415595
-0.0116232
-0.0317389
-0.0591023
-0.0947923
-0.133592
-0.16181
-0.166964
-0.149071
-0.119278
-0.0890249
-0.0639738
-0.0450145
-0.0308806
-0.0210117
-0.0155302
-0.014913
-0.0146853
-0.0143098
-0.0153618
-0.0211042
-0.0305373
-0.0474344
-0.0736586
-0.095866
-0.104462
-0.0883177
-0.0662071
-0.0455602
-0.0270431
-0.0158402
-0.000919764
0.00334611
0.00551206
0.003228
-0.000248307
-0.33767
-0.330686
-0.330297
-0.324584
-0.31382
-0.299898
-0.281849
-0.259279
-0.232969
-0.204004
-0.173501
-0.142541
-0.112083
-0.0829136
-0.0555479
-0.0304848
-0.00816135
0.0109578
0.026312
0.037074
0.0429414
0.0435083
0.0394891
0.0311787
0.0191772
0.00387706
-0.0159128
-0.0429503
-0.0784181
-0.117058
-0.145676
-0.154042
-0.139839
-0.113836
-0.0861201
-0.0621761
-0.043472
-0.0292127
-0.0188659
-0.0123944
-0.0108643
-0.0104328
-0.010107
-0.0112067
-0.0166728
-0.0262772
-0.0437144
-0.0713879
-0.0950348
-0.10465
-0.0888676
-0.0662039
-0.0448281
-0.0257915
-0.0144058
0.00119084
0.0058901
0.00829411
0.00531144
5.9392e-06
-0.310421
-0.307669
-0.305587
-0.298316
-0.288875
-0.277812
-0.263565
-0.245525
-0.223986
-0.199571
-0.173061
-0.145315
-0.117196
-0.0895126
-0.062941
-0.0380638
-0.0153678
0.00473297
0.0217961
0.0353687
0.0452014
0.0497168
0.0487315
0.0425816
0.0321311
0.017866
-0.00115677
-0.0272923
-0.0614937
-0.0989053
-0.127195
-0.136659
-0.126745
-0.105032
-0.08038
-0.0581734
-0.0402894
-0.0264524
-0.0161669
-0.00916755
-0.00693118
-0.00634516
-0.00626725
-0.00754786
-0.0126468
-0.0222291
-0.0396236
-0.0680245
-0.0928432
-0.103673
-0.0882198
-0.0653945
-0.0434859
-0.024216
-0.0127236
0.00339472
0.00832516
0.010902
0.00730413
0.000198467
-0.284748
-0.29395
-0.289216
-0.279371
-0.268985
-0.257865
-0.244375
-0.227617
-0.207654
-0.185062
-0.160569
-0.134916
-0.108833
-0.0830017
-0.0580194
-0.0343964
-0.0125799
0.00706056
0.0241899
0.0384266
0.0498035
0.0557016
0.0571785
0.0535283
0.0450633
0.0322578
0.0140246
-0.0126846
-0.0493638
-0.0896486
-0.119234
-0.128239
-0.116636
-0.0954821
-0.0724228
-0.0519126
-0.0353531
-0.0224223
-0.0126687
-0.00573817
-0.00321234
-0.00229785
-0.00198207
-0.00215511
-0.00705889
-0.0164625
-0.0340725
-0.0640468
-0.0910779
-0.103706
-0.0877693
-0.0640057
-0.0416297
-0.0223887
-0.0109868
0.0057258
0.0107583
0.0135114
0.00920533
0.000313414
-0.257835
-0.27054
-0.266621
-0.255818
-0.244699
-0.233822
-0.221456
-0.206358
-0.188411
-0.168151
-0.146237
-0.123269
-0.0998057
-0.0763918
-0.0535474
-0.0317453
-0.0113987
0.00715101
0.0236141
0.0376256
0.0480939
0.0561493
0.0594006
0.0576347
0.0510517
0.0398982
0.0227619
-0.00388131
-0.0409575
-0.0804145
-0.107332
-0.113603
-0.102546
-0.0836996
-0.0635764
-0.0455045
-0.0306173
-0.0187953
-0.00971026
-0.00296479
-0.000263844
0.000756146
0.00097723
0.000813222
-0.00326597
-0.0120856
-0.0294542
-0.0601836
-0.0883779
-0.101627
-0.0857452
-0.0616373
-0.0393293
-0.0203235
-0.00913454
0.00771889
0.0126569
0.0157782
0.0107908
0.000422231
-0.23317
-0.246104
-0.243474
-0.23329
-0.222391
-0.212104
-0.200956
-0.18757
-0.171652
-0.153624
-0.134065
-0.11348
-0.0923201
-0.0710397
-0.0501031
-0.0299486
-0.0109683
0.00650181
0.0221649
0.0356862
0.0464427
0.0544928
0.0584625
0.0577657
0.0523563
0.0422367
0.025792
-0.000121272
-0.0348112
-0.0697144
-0.0925378
-0.0974361
-0.0880607
-0.0722209
-0.0551179
-0.0393819
-0.026072
-0.0152812
-0.00687518
-0.000398118
0.00241127
0.0035371
0.00369015
0.00355254
-0.000254481
-0.00883708
-0.0259779
-0.0564353
-0.0843132
-0.0978662
-0.0826554
-0.0586794
-0.0367058
-0.0180872
-0.00718899
0.00959871
0.0144483
0.0178622
0.0122155
0.000559728
-0.210897
-0.222688
-0.221123
-0.212191
-0.202022
-0.192374
-0.182233
-0.17031
-0.156182
-0.14014
-0.122689
-0.104271
-0.0852645
-0.0660398
-0.0469903
-0.0285064
-0.0109532
0.00534439
0.0200891
0.0329551
0.043437
0.0512925
0.0556317
0.0556946
0.0512081
0.0419987
0.0265819
0.00272501
-0.0278303
-0.0575523
-0.0765794
-0.0809151
-0.0736639
-0.0608904
-0.0467304
-0.0333133
-0.0215965
-0.011846
-0.00415999
0.00197521
0.00484251
0.00612591
0.00629957
0.00625058
0.002661
-0.00579363
-0.022457
-0.0518374
-0.0789719
-0.0928715
-0.0785489
-0.0551275
-0.0337411
-0.015679
-0.00512808
0.0113528
0.0161438
0.0197737
0.0135506
0.000724378
-0.189823
-0.200676
-0.199923
-0.192252
-0.183013
-0.174099
-0.1649
-0.154307
-0.141836
-0.127651
-0.112169
-0.0957775
-0.0787943
-0.0615229
-0.0442933
-0.0274518
-0.0113398
0.00372898
0.0174577
0.0295246
0.0394941
0.0470421
0.0515009
0.052114
0.0484906
0.0403748
0.0266431
0.00590589
-0.0199416
-0.0446493
-0.0604864
-0.0647518
-0.059817
-0.0500727
-0.0387023
-0.027479
-0.0172982
-0.00854928
-0.00157981
0.00416188
0.00703619
0.00849807
0.00875899
0.00887354
0.0055942
-0.00251542
-0.0182253
-0.0461754
-0.0724817
-0.0864896
-0.0733306
-0.0509468
-0.0304546
-0.0131213
-0.00296844
0.0129602
0.0176925
0.0214865
0.0147967
0.000911202
-0.170271
-0.18029
-0.180043
-0.173469
-0.165235
-0.15717
-0.148919
-0.139562
-0.128615
-0.116142
-0.102477
-0.0879539
-0.0728485
-0.0574136
-0.041927
-0.0266923
-0.012022
0.00178616
0.0144464
0.0256457
0.0349877
0.0421386
0.0465601
0.0475934
0.0448236
0.037967
0.0262866
0.00904617
-0.012024
-0.0320721
-0.045369
-0.0498904
-0.0471398
-0.0401008
-0.0311945
-0.0219524
-0.0132191
-0.00542589
0.000853461
0.00616682
0.00899969
0.0106359
0.0110688
0.0113539
0.00853468
0.0010325
-0.0133801
-0.0396511
-0.064826
-0.0787063
-0.0670186
-0.0461554
-0.0268835
-0.0104458
-0.000729072
0.0144029
0.0190638
0.0229582
0.0159123
0.00112349
-0.152485
-0.161444
-0.161499
-0.155908
-0.148688
-0.141521
-0.13421
-0.125997
-0.116431
-0.10552
-0.0935215
-0.0807213
-0.0673584
-0.0536471
-0.0398209
-0.0261419
-0.0128904
-0.000343663
0.0112237
0.0215202
0.0301731
0.0368757
0.0411809
0.0425482
0.0405903
0.0350377
0.0254911
0.0116863
-0.00497705
-0.0210119
-0.0322462
-0.0369985
-0.0359841
-0.0311535
-0.0243228
-0.0168105
-0.00940698
-0.00251415
0.00312279
0.00799538
0.0107533
0.0125466
0.0132395
0.0137101
0.0114535
0.00471825
-0.00818322
-0.0323857
-0.0560926
-0.0696812
-0.0597105
-0.0408073
-0.023078
-0.00769289
0.00156477
0.0156709
0.0202382
0.0241479
0.0168587
0.00137373
-0.136043
-0.144007
-0.144319
-0.139619
-0.133362
-0.127075
-0.120665
-0.113507
-0.105195
-0.0957044
-0.085232
-0.074018
-0.0622683
-0.0501657
-0.0379065
-0.0257153
-0.0138406
-0.00253666
0.00793397
0.0172797
0.0252531
0.0314869
0.0356301
0.0372543
0.0360321
0.0317457
0.0242312
0.0134685
0.000509902
-0.0121817
-0.0215904
-0.0262897
-0.0264633
-0.0233123
-0.01816
-0.0121093
-0.00589503
0.00015843
0.0052108
0.0096539
0.0123203
0.0142431
0.015269
0.0159683
0.0143288
0.00847867
-0.00271749
-0.0245003
-0.0465281
-0.0596787
-0.0515868
-0.0350008
-0.0191013
-0.00490855
0.00388121
0.0167687
0.0212105
0.0250282
0.01762
0.00168228
-0.120841
-0.127997
-0.128521
-0.124595
-0.119212
-0.113753
-0.10819
-0.102002
-0.0948301
-0.0866271
-0.0775458
-0.0677855
-0.0575218
-0.0469104
-0.0361173
-0.0253345
-0.0147793
-0.00467992
0.00472398
0.0131738
0.020424
0.0261739
0.0301256
0.0319427
0.0313654
0.028229
0.0224945
0.0142468
0.00430207
-0.00559727
-0.0133172
-0.0176706
-0.0185309
-0.0165759
-0.0127335
-0.00788581
-0.00270685
0.00257273
0.00709828
0.0111452
0.0137182
0.0157393
0.0171369
0.0181578
0.0171916
0.012365
0.00297695
-0.0162587
-0.0364992
-0.0490577
-0.042911
-0.028882
-0.015027
-0.00213957
0.00618037
0.0177208
0.0220004
0.0255941
0.018206
0.00207766
-0.107016
-0.113385
-0.11403
-0.11077
-0.106177
-0.101485
-0.0967056
-0.0914053
-0.0852638
-0.0782243
-0.0704041
-0.061968
-0.053065
-0.0438273
-0.0343951
-0.0249314
-0.0156238
-0.00667515
0.00170193
0.00927956
0.0158321
0.0211041
0.0248486
0.0268025
0.0267667
0.0246168
0.0203733
0.0141813
0.0066883
-0.000906281
-0.00709349
-0.0108954
-0.0120494
-0.0108912
-0.00803862
-0.00415966
0.00014195
0.00471907
0.00876752
0.0124647
0.0149567
0.0170506
0.0188091
0.0202816
0.0200985
0.0164329
0.00875649
-0.00806667
-0.0264856
-0.0382722
-0.0340075
-0.0226368
-0.0109356
0.000570656
0.00841483
0.018575
0.0226593
0.0258686
0.0186536
0.00259723
-0.0944461
-0.100038
-0.100757
-0.098084
-0.094206
-0.0902125
-0.086147
-0.0816481
-0.0764329
-0.0704386
-0.0637546
-0.0565169
-0.0488513
-0.0408697
-0.0326897
-0.0244481
-0.0163052
-0.00843935
-0.00103571
0.00570856
0.011596
0.0164054
0.0199339
0.0219753
0.0223787
0.0210553
0.0180534
0.0135365
0.00801059
0.00231402
-0.00250572
-0.00566251
-0.00684652
-0.00617785
-0.00404803
-0.000933708
0.00264242
0.00659513
0.0102093
0.0135986
0.0160332
0.0181885
0.0202533
0.0222666
0.023005
0.0205896
0.0143343
-0.000420447
-0.0170031
-0.0278157
-0.0252501
-0.0164821
-0.00691323
0.00318315
0.0105325
0.019395
0.0232629
0.0259077
0.019029
0.00328215
-0.0829439
-0.0878694
-0.0886536
-0.0864923
-0.0832472
-0.0798792
-0.0764536
-0.0726705
-0.0682807
-0.0632184
-0.0575508
-0.0513897
-0.0448406
-0.0379977
-0.0309589
-0.0238381
-0.0167713
-0.00990901
-0.00341292
0.00254684
0.00780404
0.0121712
0.0154793
0.0175669
0.0183211
0.0176807
0.0157001
0.012531
0.00857429
0.00444066
0.00080313
-0.00169593
-0.00274495
-0.00234094
-0.000718075
0.00180433
0.00479265
0.00820174
0.0114247
0.0145331
0.0169291
0.0191456
0.021442
0.0239653
0.0256227
0.0244039
0.0192241
0.0062102
-0.00846445
-0.0181299
-0.0170083
-0.0106422
-0.00305118
0.00565695
0.0124785
0.0202386
0.0238805
0.0258
0.0194157
0.00415783
-0.0725144
-0.0768473
-0.0776582
-0.075926
-0.073234
-0.0704219
-0.067565
-0.0644152
-0.0607547
-0.0565171
-0.0517519
-0.0465504
-0.0410006
-0.0351807
-0.0291718
-0.0230683
-0.0169831
-0.0110421
-0.00538324
-0.000150737
0.0045188
0.00846583
0.0115515
0.0136492
0.0146742
0.0145834
0.0134293
0.0113405
0.0086246
0.00572352
0.00310468
0.00124198
0.000424453
0.000720738
0.00200526
0.00407878
0.00659871
0.00954249
0.0124181
0.0152634
0.0176214
0.0198853
0.0223315
0.0252216
0.027528
0.0272032
0.0228594
0.0115242
-0.0011187
-0.00956204
-0.0095996
-0.00531795
0.000557189
0.00794372
0.0141949
0.0211235
0.0245647
0.0256487
0.0198729
0.005199
-0.0630992
-0.0668743
-0.0676819
-0.0663137
-0.0641041
-0.0617814
-0.0594255
-0.056831
-0.053809
-0.0502949
-0.0463242
-0.0419704
-0.0373067
-0.0323976
-0.0273092
-0.0221189
-0.0169184
-0.0118136
-0.00691961
-0.00235555
0.00177177
0.0053235
0.00818583
0.0102599
0.0114817
0.0118203
0.0113203
0.0100887
0.00834952
0.00639468
0.00463909
0.0033613
0.00281962
0.00311004
0.00418235
0.00592263
0.00807432
0.0106249
0.0131946
0.0157903
0.0180899
0.0203663
0.0228589
0.0258125
0.0283712
0.0285422
0.0249387
0.015417
0.00486524
-0.00237749
-0.00325558
-0.00065289
0.00382509
0.00999346
0.0156272
0.0219854
0.0252813
0.0255412
0.0203834
0.00629113
-0.0545885
-0.0578696
-0.0586531
-0.0575924
-0.0558014
-0.053904
-0.0519832
-0.0498703
-0.0474018
-0.0445168
-0.0412391
-0.0376277
-0.0337425
-0.0296362
-0.0253621
-0.0209821
-0.0165718
-0.0122185
-0.00801652
-0.00406379
-0.000429242
0.00275157
0.00539001
0.00740997
0.00876073
0.0094214
0.00942724
0.00886148
0.00788963
0.0067086
0.0056223
0.00484583
0.00458218
0.00492689
0.00587716
0.00737473
0.00923921
0.0114605
0.0137601
0.0161205
0.0183261
0.0205596
0.0229983
0.0257188
0.0281555
0.0285106
0.0255937
0.0179369
0.00939226
0.00329873
0.00191994
0.00328789
0.00668021
0.0117635
0.0167384
0.022656
0.0259043
0.0255247
0.0208342
0.00722922
-0.0468954
-0.0497486
-0.0505065
-0.0496956
-0.0482584
-0.0467296
-0.045185
-0.043487
-0.0414949
-0.0391518
-0.0364732
-0.0335056
-0.030298
-0.0268929
-0.0233324
-0.0196649
-0.0159511
-0.0122619
-0.00867727
-0.00528708
-0.00209539
0.000736684
0.00315007
0.00508786
0.00650925
0.00739916
0.00778126
0.00771762
0.0073351
0.00675959
0.0062058
0.00584464
0.00583724
0.00626568
0.00715406
0.00847725
0.0101181
0.0120643
0.0141226
0.0162615
0.0183347
0.0204626
0.0227695
0.0251112
0.0271807
0.0275391
0.0252166
0.0192824
0.0125448
0.00753407
0.00595583
0.00650838
0.00907155
0.013219
0.0175236
0.0229293
0.0262315
0.0255081
0.0210152
0.00779988
-0.0399778
-0.0424512
-0.0431784
-0.0425727
-0.0414244
-0.0402072
-0.0389842
-0.03764
-0.0360538
-0.0341731
-0.0320076
-0.0295935
-0.0269701
-0.024171
-0.0212296
-0.0181833
-0.0150779
-0.0119655
-0.00890191
-0.00592749
-0.00323226
-0.000749757
0.00143516
0.00326648
0.00470799
0.00574489
0.00639497
0.00670389
0.0067487
0.00663389
0.00650072
0.00647841
0.00669307
0.00721291
0.00807574
0.00927374
0.0107389
0.0124555
0.0142954
0.016224
0.0181315
0.0200848
0.0220554
0.0241161
0.0257741
0.0260611
0.0242295
0.0197589
0.0145603
0.0105386
0.00898015
0.00905397
0.0109771
0.0143245
0.0179921
0.0227046
0.0259972
0.0251847
0.0206489
0.00789727
-0.0337655
-0.0358993
-0.036588
-0.036163
-0.0352751
-0.0343076
-0.0333454
-0.0322932
-0.0310466
-0.0295566
-0.0278265
-0.0258843
-0.0237604
-0.0214814
-0.0190732
-0.0165646
-0.0139907
-0.0113928
-0.00881928
-0.00632126
-0.00396605
-0.00177485
0.000195719
0.00190497
0.00332506
0.00444262
0.0052694
0.00583429
0.00619216
0.00641308
0.00660046
0.00684369
0.00724096
0.00784568
0.00870147
0.00980787
0.0111319
0.0126563
0.0142978
0.0160254
0.0177499
0.0195065
0.0212222
0.0229063
0.024179
0.0243866
0.0229558
0.0196608
0.0157202
0.0125678
0.0111571
0.0109829
0.0124037
0.0150583
0.0181302
0.0219805
0.0248917
0.0242101
0.0195502
0.00756046
-0.0281848
-0.0300226
-0.0306691
-0.0303866
-0.0297116
-0.0289718
-0.0282285
-0.0274133
-0.0264462
-0.0252809
-0.0239157
-0.0223731
-0.020674
-0.0188382
-0.0168855
-0.0148373
-0.0127213
-0.0105699
-0.00842241
-0.00632042
-0.00431043
-0.00237936
-0.000615713
0.000957847
0.00232203
0.00346286
0.00439581
0.00512765
0.00569931
0.00615886
0.00657864
0.00701954
0.00755766
0.00823197
0.00908633
0.0101222
0.0113293
0.0126909
0.0141527
0.0156897
0.0172246
0.0187738
0.0202404
0.0215953
0.0225504
0.0226983
0.0215959
0.0192088
0.0162739
0.0138492
0.0126384
0.0123566
0.013383
0.0154208
0.0179296
0.0208499
0.023181
0.0225105
0.0177906
0.00690973
-0.0231835
-0.0247638
-0.0253659
-0.0251964
-0.0246967
-0.0241421
-0.0235894
-0.0229802
-0.0222397
-0.0213334
-0.0202572
-0.019059
-0.0177193
-0.0162574
-0.0146898
-0.0130328
-0.0113071
-0.00953635
-0.00774847
-0.00597071
-0.00422366
-0.00258977
-0.00104667
0.00037764
0.00166118
0.00279374
0.00376278
0.00458886
0.00529466
0.00591156
0.00648949
0.00706858
0.00770676
0.00843074
0.00928075
0.0102576
0.0113641
0.012585
0.0138849
0.0152428
0.0165927
0.0179378
0.0191742
0.0202628
0.0209768
0.0210891
0.0202559
0.0185539
0.0164018
0.0145646
0.0135587
0.0132432
0.0139597
0.0154424
0.0174167
0.0194571
0.0210801
0.020292
0.0156466
0.00608345
-0.0187103
-0.020065
-0.0206213
-0.020541
-0.0201852
-0.0197832
-0.0193855
-0.018946
-0.018406
-0.0177352
-0.0169326
-0.0159772
-0.0149174
-0.0137602
-0.0125126
-0.0111848
-0.00979062
-0.00834613
-0.00687302
-0.00539279
-0.00392951
-0.00251093
-0.00115371
0.000122057
0.00130133
0.00237794
0.00334632
0.00421163
0.0049891
0.00569823
0.00637329
0.00703961
0.00774018
0.00849213
0.00932979
0.0102524
0.0112687
0.0123657
0.0135198
0.0147135
0.0158901
0.0170448
0.0180781
0.0189594
0.0195009
0.0195979
0.0189853
0.0177891
0.0162304
0.0148561
0.0140378
0.013715
0.0141853
0.0151814
0.0166464
0.0179344
0.0188221
0.0178482
0.013424
0.00520638
-0.0147127
-0.0158714
-0.0163827
-0.0163719
-0.0161324
-0.0158536
-0.0155798
-0.0152741
-0.0148876
-0.0143923
-0.0137827
-0.0130646
-0.0122508
-0.0113502
-0.0103708
-0.00932046
-0.00820813
-0.00704186
-0.00583953
-0.00461738
-0.00339382
-0.00218618
-0.00101059
0.000118861
0.00118881
0.00219181
0.00312355
0.00398526
0.00478574
0.00553601
0.00625905
0.0069699
0.00769967
0.00845814
0.00927284
0.0101417
0.0110749
0.0120608
0.0130834
0.0141292
0.015148
0.0161331
0.0169944
0.0177162
0.0181394
0.0182348
0.0177998
0.0169705
0.0158522
0.014832
0.0141717
0.0138439
0.0141169
0.0147027
0.0156905
0.0163754
0.0165988
0.0154231
0.0113358
0.00437017
-0.0111459
-0.0121352
-0.012603
-0.0126453
-0.0124987
-0.0123189
-0.0121439
-0.0119449
-0.0116816
-0.01133
-0.0108849
-0.0103515
-0.00973735
-0.00904848
-0.00828992
-0.00746652
-0.00658539
-0.00565793
-0.00469067
-0.00369058
-0.00267616
-0.00165931
-0.000652955
0.000331818
0.00128432
0.00219809
0.00306877
0.00389532
0.00468201
0.00543414
0.0061665
0.00688724
0.00761788
0.00836327
0.00914404
0.00995704
0.0108114
0.0116969
0.0126014
0.0135143
0.0143931
0.0152326
0.015953
0.016551
0.0168945
0.0169949
0.0166991
0.0161313
0.0153349
0.0145743
0.0140366
0.0137026
0.0138131
0.0140698
0.0146226
0.0148396
0.0145303
0.0131742
0.00948601
0.00362622
-0.00797026
-0.00881328
-0.0092393
-0.00932112
-0.00924827
-0.00914747
-0.00905105
-0.00893652
-0.00877117
-0.00853481
-0.00822236
-0.0078371
-0.00738434
-0.00686812
-0.00629151
-0.00565737
-0.00497029
-0.00423622
-0.00346178
-0.00265682
-0.00182766
-0.000983206
-0.000133634
0.000712506
0.0015464
0.00236224
0.00315577
0.00392491
0.00467102
0.00539579
0.00610801
0.00681134
0.00751993
0.00823529
0.00897193
0.00972591
0.010504
0.0112976
0.0120962
0.0128912
0.0136482
0.0143641
0.0149701
0.015471
0.0157606
0.0158676
0.0156769
0.0152901
0.0147241
0.0141477
0.0136941
0.0133541
0.0133324
0.0133341
0.0135066
0.0133684
0.0126768
0.0111853
0.00790471
0.00299318
-0.00514915
-0.00586608
-0.0062527
-0.00636339
-0.00634846
-0.00631007
-0.00627537
-0.00622702
-0.00613864
-0.0059934
-0.00578643
-0.00551969
-0.00519682
-0.00482045
-0.00439234
-0.00391395
-0.00338777
-0.00281742
-0.00220811
-0.00156608
-0.000896203
-0.000204213
0.000503216
0.00121934
0.00193709
0.00265145
0.00335848
0.00405571
0.00474284
0.00541938
0.00608996
0.00675534
0.00742422
0.00809589
0.00877965
0.00947145
0.0101749
0.0108832
0.0115869
0.0122788
0.0129302
0.0135408
0.014054