/*--------------------------------*- C++ -*----------------------------------*\
| =========                 |                                                 |
| \\      /  F ield         | OpenFOAM: The Open Source CFD Toolbox           |
|  \\    /   O peration     | Version:  2512                                  |
|   \\  /    A nd           | Website:  www.openfoam.com                      |
|    \\/     M anipulation  |                                                 |
\*---------------------------------------------------------------------------*/
FoamFile
{
    version     2.0;
    format      ascii;
    arch        "LSB;label=32;scalar=64";
    class       surfaceScalarField;
    location    "185";
    object      phi;
}
// * * * * * * * * * * * * * * * * * * * * * * * * * * * * * * * * * * * * * //

dimensions      [0 3 -1 0 0 0 0];

oriented        oriented;

internalField   nonuniform List<scalar> 
26232
(
2.70722e-05
0.000802803
-0.000829875
0.000247132
0.00125192
-0.00147198
0.00082478
0.00075673
-0.00133438
0.00193562
-0.000593179
-0.000517666
0.00375825
-0.00275491
0.000932289
0.00646622
-0.00570829
0.00300032
0.0102173
-0.00943857
0.00568751
0.0151398
-0.0139194
0.00899686
0.0213177
-0.0190983
0.0129204
0.0287761
-0.0248879
0.0174296
0.0374713
-0.0311643
0.0224691
0.0472882
-0.0377735
0.0279567
0.0580455
-0.0445432
0.0337859
0.0695093
-0.0512979
0.0398341
0.0814122
-0.0578747
0.0459717
0.0934763
-0.0641369
0.0520729
0.105435
-0.0699835
0.0580245
0.117055
-0.0753548
0.063735
0.12815
-0.0802315
0.0691365
0.138592
-0.0846396
0.0741973
0.148314
-0.0886149
0.0788936
0.157308
-0.0922863
0.0832924
0.165586
-0.0956051
0.0873263
-0.0989904
0.0915668
0.17301
0.000108176
0.000694627
0.000582695
0.000777402
0.00160106
-0.00026164
0.00335063
-0.00234274
0.00601762
-0.00542191
0.00977231
-0.00946298
0.0147495
-0.0144158
0.0210273
-0.0201972
0.0286076
-0.0266786
0.0374042
-0.0336845
0.0472424
-0.0410026
0.0578719
-0.048403
0.0689899
-0.0556612
0.0802726
-0.0625806
0.0914079
-0.06901
0.102125
-0.0748543
0.112219
-0.0800773
0.121562
-0.0846978
0.13011
-0.0887796
0.137891
-0.0924209
0.145005
-0.0957281
0.151567
-0.0988487
0.157746
-0.101784
-0.104947
0.163703
0.000189708
0.000504919
0.000930785
3.63248e-05
0.00241861
-0.00174947
0.00485014
-0.00477427
0.00840784
-0.00897961
0.0132349
-0.01429
0.0194064
-0.0205873
0.0269037
-0.0276945
0.0355995
-0.0353744
0.0452611
-0.0433461
0.055572
-0.0513135
0.066169
-0.059
0.0766864
-0.0661786
0.0867993
-0.0726935
0.0962582
-0.0784689
0.10491
-0.083506
0.112703
-0.0878709
0.119681
-0.0916753
0.125957
-0.0950555
0.131689
-0.098153
0.137053
-0.101093
0.142201
-0.103996
0.147293
-0.106876
-0.110022
0.152368
0.000278869
0.000226049
0.00130913
-0.000993931
0.00330154
-0.00374189
0.00645238
-0.00792511
0.0109173
-0.0134446
0.0167755
-0.0201482
0.0239955
-0.0278073
0.0324162
-0.0361152
0.0417527
-0.044711
0.0516291
-0.0532225
0.0616303
-0.0613147
0.071361
-0.0687307
0.080498
-0.0753156
0.0888259
-0.0810214
0.0962508
-0.0858938
0.102793
-0.0900487
0.108564
-0.0936416
0.113729
-0.0968396
0.118471
-0.0997978
0.122963
-0.102645
0.127347
-0.105477
0.131718
-0.108366
0.136154
-0.111313
-0.114509
0.140641
0.000381982
-0.000155932
0.00173123
-0.00234318
0.00426203
-0.00627269
0.0081481
-0.0118112
0.0134828
-0.0187793
0.0202352
-0.0269006
0.0282231
-0.0357952
0.0371194
-0.0450115
0.0464953
-0.0540869
0.0558889
-0.062616
0.0648795
-0.0703053
0.0731487
-0.0769999
0.0805141
-0.0826811
0.0869335
-0.0874407
0.092482
-0.0914424
0.0973141
-0.0948807
0.101619
-0.0979463
0.105582
-0.100803
0.109361
-0.103577
0.113072
-0.106356
0.116792
-0.109196
0.12056
-0.112134
0.124412
-0.115165
-0.11841
0.128313
0.000502059
-0.000657991
0.00219919
-0.0040403
0.00528646
-0.00935996
0.00988148
-0.0164062
0.0159709
-0.0248687
0.0233704
-0.0343001
0.0317253
-0.0441502
0.0405615
-0.0538477
0.0493709
-0.0628963
0.0577038
-0.0709489
0.065239
-0.0778406
0.0718163
-0.0835772
0.0774295
-0.0882942
0.0821903
-0.0922015
0.0862779
-0.0955301
0.0898904
-0.0984932
0.0932076
-0.101264
0.0963715
-0.103967
0.099482
-0.106687
0.102602
-0.109476
0.105767
-0.112362
0.108993
-0.11536
0.112296
-0.118469
-0.121753
0.115639
0.00063776
-0.00129575
0.00270023
-0.00610278
0.00633085
-0.0129906
0.0115492
-0.0216246
0.0181922
-0.0315116
0.0258986
-0.0420065
0.0341594
-0.052411
0.0424188
-0.0621071
0.0501872
-0.0706646
0.0571246
-0.0778863
0.0630747
-0.0837907
0.0680494
-0.0885519
0.0721808
-0.0924256
0.0756615
-0.0956822
0.0786925
-0.0985611
0.081448
-0.101249
0.08406
-0.103876
0.0866184
-0.106525
0.0891784
-0.109247
0.0917713
-0.112069
0.0944124
-0.115003
0.0971069
-0.118054
0.09986
-0.121222
-0.124533
0.10264
0.000783684
-0.00207944
0.00320835
-0.00852744
0.00732684
-0.0171091
0.0130184
-0.0273161
0.0199421
-0.0384354
0.0275711
-0.0496355
0.0353016
-0.0601415
0.0425891
-0.0693945
0.0490525
-0.077128
0.0545163
-0.0833501
0.0589911
-0.0882655
0.062616
-0.0921769
0.0655908
-0.0954004
0.068119
-0.0982104
0.0703728
-0.100815
0.0724795
-0.103355
0.074524
-0.10592
0.0765576
-0.108559
0.0786088
-0.111299
0.0806921
-0.114152
0.0828137
-0.117124
0.0849745
-0.120215
0.0871752
-0.123423
-0.126751
0.0893927
0.000931446
-0.00301088
0.00368871
-0.0112847
0.00819414
-0.0216145
0.014154
-0.0332759
0.0210495
-0.0453309
0.0282358
-0.0568219
0.0350994
-0.067005
0.0411915
-0.0754867
0.04629
-0.0822265
0.0503826
-0.0874427
0.0536027
-0.0914856
0.0561528
-0.0947269
0.0582402
-0.0974879
0.0600397
-0.10001
0.061679
-0.102454
0.0632416
-0.104918
0.0647774
-0.107456
0.066314
-0.110095
0.0678655
-0.11285
0.0694388
-0.115725
0.0710362
-0.118722
0.0726573
-0.121836
0.0743004
-0.125066
-0.128401
0.0759512
0.00107069
-0.00408158
0.00410298
-0.014317
0.00885468
-0.0263662
0.0148462
-0.0392675
0.0214122
-0.0518969
0.0278633
-0.063273
0.0336566
-0.0727983
0.0384907
-0.0803209
0.0423043
-0.0860401
0.0452097
-0.090348
0.0474062
-0.0936821
0.0491067
-0.0964275
0.0504927
-0.0988739
0.0516968
-0.101214
0.0528053
-0.103563
0.0538691
-0.105982
0.0549161
-0.108503
0.0559609
-0.11114
0.0570109
-0.1139
0.0580693
-0.116784
0.0591368
-0.119789
0.0602126
-0.122912
0.0612938
-0.126147
-0.129481
0.0623732
0.00119085
-0.00527242
0.0044159
-0.017542
0.00924646
-0.0311968
0.0150294
-0.0450504
0.02101
-0.0578775
0.0265311
-0.068794
0.0311766
-0.0774439
0.0348028
-0.083947
0.0374786
-0.0887159
0.0393908
-0.0922602
0.0407567
-0.095048
0.0417681
-0.0974389
0.0425675
-0.0996733
0.0432481
-0.101895
0.0438644
-0.104179
0.0444462
-0.106564
0.0450089
-0.109065
0.0455604
-0.111692
0.0461051
-0.114445
0.0466446
-0.117323
0.047179
-0.120323
0.0477068
-0.12344
0.0482241
-0.126664
-0.129985
0.0487283
0.00128506
-0.00655748
0.004603
-0.02086
0.00933388
-0.0359276
0.0146891
-0.0504056
0.0198952
-0.0630835
0.0243892
-0.0732881
0.0279041
-0.0809588
0.0304335
-0.0864764
0.0321334
-0.0904158
0.0332201
-0.0933469
0.0338977
-0.0957257
0.0343235
-0.0978646
0.0346016
-0.0999515
0.0347939
-0.102087
0.0349335
-0.104318
0.0350373
-0.106667
0.0351141
-0.109142
0.0351687
-0.111746
0.035204
-0.11448
0.0352212
-0.117341
0.0352206
-0.120323
0.0352007
-0.12342
0.0351574
-0.126621
0.0350905
-0.129918
-0.000214122
-0.00262497
0.00283909
-0.000792007
-0.00641647
0.00699436
-0.00169186
-0.00915073
0.0100506
-0.0028698
-0.0110272
0.0122051
-0.00428053
-0.0122433
0.0136541
-0.00588167
-0.0129855
0.0145866
-0.00763686
-0.0134096
0.0151648
-0.00951663
-0.013629
0.0155087
-0.0114975
-0.0137111
0.0156919
-0.0135598
-0.0136814
0.0157437
-0.0156853
-0.0135315
0.015657
-0.0178544
-0.0132289
0.0153979
-0.0200442
-0.0127251
0.014915
-0.0222272
-0.0119631
0.0141461
-0.0243697
-0.0108811
0.0130235
-0.0264314
-0.00941648
0.0114782
-0.0283653
-0.00750787
0.00944178
-0.030123
-0.00509212
0.00684982
-0.0316364
-0.00211891
0.00363234
-0.0328313
0.00138812
-0.000193293
-0.0336882
0.00549627
-0.00463935
-0.0341372
0.0101978
-0.00974875
-0.0341607
0.0154797
-0.0154562
0.0213114
-0.0338264
-0.0216457
-0.000304376
-0.00232059
-0.00107362
-0.00564723
-0.00221601
-0.00800834
-0.00365592
-0.00958727
-0.00533036
-0.0105689
-0.00718954
-0.0111263
-0.00919637
-0.0114028
-0.0113242
-0.0115011
-0.0135535
-0.0114818
-0.015868
-0.0113668
-0.0182514
-0.0111481
-0.0206841
-0.0107961
-0.0231412
-0.010268
-0.0255906
-0.00951367
-0.0279919
-0.00847976
-0.0302955
-0.00711292
-0.0324429
-0.00536045
-0.0343615
-0.00317352
-0.0360005
-0.000479899
-0.0372352
0.00262275
-0.0380322
0.00629328
-0.0383203
0.0104859
-0.0380468
0.0152062
0.0204907
-0.037226
-0.000372491
-0.0019481
-0.00128022
-0.0047395
-0.00258877
-0.00669978
-0.00419477
-0.00798127
-0.00601881
-0.00874487
-0.00800253
-0.00914258
-0.0101049
-0.00930036
-0.0122976
-0.0093085
-0.0145594
-0.00921995
-0.016872
-0.00905427
-0.0192152
-0.00880488
-0.0215644
-0.00844697
-0.0238879
-0.00794454
-0.0261458
-0.00725576
-0.0282886
-0.00633695
-0.0302571
-0.0051444
-0.03198
-0.00363761
-0.0333753
-0.00177815
-0.0343103
0.000455057
-0.0347671
0.00307953
-0.0346045
0.00613071
-0.0337399
0.00962123
-0.0320943
0.0135606
0.0180009
-0.0296045
-0.000415997
-0.0015321
-0.00140689
-0.00374861
-0.00280548
-0.0053012
-0.00448597
-0.00630078
-0.00635445
-0.00687638
-0.00834314
-0.00715389
-0.0104042
-0.00723927
-0.0125033
-0.00720938
-0.0146132
-0.00711006
-0.0167082
-0.00695928
-0.01876
-0.00675315
-0.0207343
-0.00647262
-0.0225894
-0.00608942
-0.0242744
-0.00557074
-0.0257288
-0.00488264
-0.0268806
-0.00399256
-0.0276479
-0.00287033
-0.0279313
-0.00149473
-0.0276285
0.000152311
-0.0266312
0.00208222
-0.0248098
0.00430932
-0.0220429
0.00685425
-0.0182283
0.0097461
0.0130654
-0.0132928
-0.000435274
-0.00109683
-0.00145614
-0.00272775
-0.00287384
-0.0038835
-0.00454647
-0.00462814
-0.00636822
-0.00505463
-0.00826182
-0.0052603
-0.0101709
-0.00533018
-0.0120525
-0.00532783
-0.0138699
-0.00529258
-0.0155876
-0.00524163
-0.0171662
-0.00517455
-0.0185602
-0.00507859
-0.0197162
-0.00493349
-0.0205715
-0.00471537
-0.0210545
-0.00439968
-0.0210835
-0.00396353
-0.0205661
-0.00338774
-0.0194017
-0.00265914
-0.0174785
-0.00177093
-0.0146713
-0.000724913
-0.010836
0.000474021
-0.00580502
0.00182324
0.000589232
0.00335184
0.00524371
0.00841089
-0.000431865
-0.000664963
-0.00143325
-0.00172636
-0.00280498
-0.00251177
-0.00439544
-0.00303768
-0.00608987
-0.0033602
-0.00780214
-0.00354802
-0.00946658
-0.00366575
-0.01103
-0.00376436
-0.0124451
-0.00387751
-0.0136645
-0.0040222
-0.0146373
-0.00420175
-0.0153062
-0.00440969
-0.0156064
-0.00463338
-0.0154647
-0.00485704
-0.0148001
-0.00506422
-0.0135239
-0.00523979
-0.0115396
-0.00537206
-0.00874413
-0.00545456
-0.00502745
-0.00548761
-0.000271706
-0.00548065
0.00565583
-0.00545352
0.012911
-0.00543189
0.0216519
-0.00538909
-0.00558129
0.0324769
-0.000407407
-0.000257556
-0.00134277
-0.000790994
-0.00260648
-0.00124807
-0.00404272
-0.00160144
-0.00553023
-0.00187269
-0.00697441
-0.00210385
-0.00829929
-0.00234087
-0.00944001
-0.00262364
-0.0103363
-0.00298119
-0.0109277
-0.00343085
-0.0111497
-0.00397977
-0.0109321
-0.00462724
-0.0101984
-0.00536713
-0.00886527
-0.00619012
-0.00684351
-0.00708599
-0.00403945
-0.00804385
-0.000355379
-0.00905613
0.00430891
-0.0101188
0.0100557
-0.0112344
0.0169879
-0.0124129
0.0252062
-0.0136718
0.0348562
-0.0150818
0.0459198
-0.0164527
-0.0189051
0.0592436
-0.000363404
0.000105848
-0.0011878
3.33992e-05
-0.00228137
-0.000154496
-0.00348746
-0.00039535
-0.00467936
-0.000680787
-0.00575306
-0.00103016
-0.00661998
-0.00147394
-0.00720035
-0.00204327
-0.00741751
-0.00276402
-0.00719387
-0.0036545
-0.00644832
-0.00472532
-0.00509532
-0.00598024
-0.0030451
-0.00741736
-0.000204799
-0.00903042
0.00351889
-0.0108097
0.00822002
-0.012745
0.0139891
-0.0148252
0.0209121
-0.0170418
0.0290681
-0.0193904
0.0385303
-0.0218751
0.0493436
-0.0244851
0.0616261
-0.0273643
0.0751464
-0.0299729
-0.0344931
0.0907344
-0.000301436
0.000407284
-0.000973307
0.00070527
-0.00183343
0.000705623
-0.00272751
0.000498734
-0.00352218
0.000113885
-0.00410175
-0.000450585
-0.0043614
-0.0012143
-0.0042023
-0.00220237
-0.00352753
-0.00343879
-0.0022395
-0.00494252
-0.000239325
-0.0067255
0.00257224
-0.0087918
0.00629249
-0.0111376
0.0110137
-0.0137517
0.0168203
-0.0166163
0.0237847
-0.0197093
0.0319651
-0.0230057
0.041404
-0.0264807
0.0521247
-0.0301111
0.0641345
-0.033885
0.077403
-0.0377537
0.0919442
-0.0419055
0.107511
-0.0455397
-0.0514319
0.12445
-0.000225806
0.000633089
-0.000706667
0.00118613
-0.00127374
0.0012727
-0.00177263
0.000997619
-0.00206224
0.0004035
-0.00201146
-0.00050137
-0.0014968
-0.00172896
-0.000398595
-0.00330058
0.00140023
-0.00523761
0.00401364
-0.00755594
0.00755005
-0.0102619
0.0121082
-0.01335
0.0177724
-0.0168018
0.0246072
-0.0205865
0.0326536
-0.0246627
0.0419257
-0.0289814
0.0524095
-0.0334895
0.0640633
-0.0381345
0.0768188
-0.0428666
0.090582
-0.0476481
0.105243
-0.0524147
0.120639
-0.0573012
0.136705
-0.0616061
-0.0677283
0.153002
-0.0001417
0.00077479
-0.000403298
0.00144773
-0.000626029
0.00149543
-0.000653557
0.00102515
-0.000334419
8.43616e-05
0.000478032
-0.00131382
0.00192604
-0.00317697
0.0041462
-0.00552074
0.00726707
-0.00835847
0.0114041
-0.0116929
0.0166528
-0.0155106
0.0230817
-0.0197789
0.0307256
-0.0244457
0.0395807
-0.0294416
0.0496028
-0.0346847
0.060708
-0.0400866
0.0727772
-0.0455587
0.0856619
-0.0510192
0.0991918
-0.0563965
0.113183
-0.0616392
0.127462
-0.0666937
0.141777
-0.0716158
0.156229
-0.0760584
-0.08134
0.169841
-5.50855e-05
-7.93365e-05
8.1715e-05
0.000589197
0.00160585
0.00329235
0.00580289
0.00927901
0.013841
0.0195776
0.0265361
0.0347138
0.044054
0.0544465
0.0657336
0.0777199
0.0901856
0.102901
0.115641
0.128199
0.140399
0.152076
0.163344
0.173571
-0.0312513
0.036726
-0.0393011
-0.0282359
0.0490112
-0.0520266
-0.0247315
0.0618587
-0.0653632
-0.0207228
0.074626
-0.0786348
-0.0161577
0.0866194
-0.0911845
-0.0107748
0.0969021
-0.102285
-0.00424717
0.104545
-0.111073
0.00397016
0.108221
-0.116438
0.0141423
0.106705
-0.116877
0.0263788
0.0988012
-0.111038
0.040293
0.0837439
-0.0976581
0.0550849
0.0615873
-0.0763792
0.0699069
0.0327961
-0.0476181
0.0840389
-0.001648
-0.012484
0.097412
-0.0403842
0.0270111
0.109546
-0.0803024
0.0681684
0.119796
-0.116006
0.105756
0.127356
-0.142428
0.134869
0.131776
-0.157777
0.153356
0.133355
-0.163887
0.162308
0.132786
-0.163917
0.164486
0.130116
-0.16146
0.16413
0.124744
-0.161313
0.166685
0.117124
-0.166289
0.173908
0.110054
-0.170518
0.177588
0.107297
-0.15886
0.161617
0.110696
-0.118351
0.114952
0.119282
-0.050889
0.0423033
0.130307
0.0268287
-0.0378543
0.140873
0.0966294
-0.107196
0.149019
0.147138
-0.155283
0.154302
0.177045
-0.182328
0.156779
0.190544
-0.193021
0.155706
0.199623
-0.19855
0.150548
0.214973
-0.209815
0.142961
0.231486
-0.223899
0.136571
0.225606
-0.219216
0.134363
0.17234
-0.170132
0.137011
0.0792118
-0.0818603
0.142812
-0.0310958
0.0252948
0.149633
-0.119972
0.113152
0.154961
-0.181659
0.176331
0.156147
-0.211448
0.210262
0.15169
-0.233074
0.237531
0.14358
-0.24918
0.25729
0.136636
-0.234498
0.241442
0.135267
-0.184309
0.185678
0.139672
-0.0660832
0.0616787
0.146539
0.0321344
-0.0390017
0.150315
0.145962
-0.149738
0.148565
0.214434
-0.212684
0.143773
0.269688
-0.264895
0.140873
0.294001
-0.291101
0.141977
0.189163
-0.190267
0.145041
0.130076
-0.13314
0.145697
-0.0688514
0.0681957
0.144358
-0.164977
0.166316
0.142618
-0.259814
0.261555
0.140912
-0.357383
0.359089
-0.110813
0.112655
-0.0337243
0.0332242
-0.0293629
0.0446498
-0.0241058
0.0566016
-0.0178082
0.0683284
-0.0105247
0.0793359
-0.00196542
0.0883429
0.0081146
0.0944652
0.0196742
0.0966613
0.0327112
0.0936681
0.0469142
0.0845982
0.061639
0.0690192
0.0761383
0.047088
0.0896681
0.0192662
0.101925
-0.0139048
0.112861
-0.0513207
0.122192
-0.0896327
0.12935
-0.123165
0.1338
-0.146879
0.135408
-0.159385
0.134616
-0.163095
0.132241
-0.161542
0.128491
-0.15771
0.122522
-0.155344
0.114076
-0.157843
0.105483
-0.161924
0.100988
-0.154365
0.103457
-0.12082
0.112305
-0.0597373
0.124606
0.0145278
0.136913
0.0843223
0.147001
0.13705
0.154167
0.169879
0.158157
0.186554
0.158217
0.199564
0.154098
0.219092
0.147582
0.238002
0.141902
0.231286
0.13961
0.174632
0.141351
0.077471
0.145677
-0.0354215
0.150838
-0.125134
0.154806
-0.185626
0.155241
-0.211883
0.150394
-0.228227
0.142018
-0.240805
0.134916
-0.227395
0.133829
-0.183222
0.138804
-0.0710576
0.146197
0.0247415
0.15035
0.141809
0.148811
0.215973
0.144212
0.274288
0.141231
0.296982
0.1424
0.187994
0.145698
0.126778
0.146422
-0.0695752
0.145028
-0.163583
0.143121
-0.257908
0.14133
-0.355592
-0.108941
-0.0252623
0.028882
-0.0196798
0.0390673
-0.0130537
0.0499755
-0.0050472
0.0603219
0.00465075
0.0696379
0.0156299
0.0773638
0.0277945
0.0823006
0.0411101
0.0833457
0.0552785
0.0794998
0.0697913
0.0700854
0.083982
0.0548285
0.0971625
0.0339075
0.108845
0.0075834
0.118885
-0.0239441
0.1273
-0.0597364
0.133823
-0.0961552
0.137944
-0.127286
0.1394
-0.148335
0.138416
-0.158402
0.135586
-0.160265
0.131712
-0.157668
0.127132
-0.15313
0.120954
-0.149166
0.112226
-0.149115
0.102505
-0.152203
0.0962023
-0.148063
0.0972407
-0.121859
0.105811
-0.0683081
0.118936
0.00140359
0.132723
0.0705354
0.144674
0.125099
0.153729
0.160824
0.159312
0.180971
0.160708
0.198168
0.157888
0.221911
0.152593
0.243297
0.147587
0.236293
0.145062
0.177156
0.145759
0.0767745
0.14854
-0.0382026
0.152002
-0.128597
0.154591
-0.188215
0.15435
-0.211642
0.149277
-0.223155
0.140779
-0.232307
0.133547
-0.220163
0.13264
-0.182315
0.138047
-0.0764645
0.145904
0.0168844
0.150472
0.137241
0.1492
0.217245
0.144804
0.278684
0.141715
0.30007
0.142925
0.186784
0.146486
0.123217
0.147295
-0.0703849
0.145825
-0.162113
0.143741
-0.255824
0.141878
-0.353729
-0.107061
-0.00835077
0.02394
-0.00216804
0.0328846
0.00605466
0.0417528
0.0155633
0.0508132
0.0262499
0.0589513
0.0381533
0.0654605
0.0510972
0.0693566
0.0647806
0.0696623
0.0787509
0.0655296
0.0924481
0.0563881
0.105265
0.0420111
0.116662
0.0225107
0.126343
-0.002097
0.13424
-0.0318411
0.140324
-0.0658207
0.144221
-0.100053
0.145478
-0.128542
0.144126
-0.146983
0.140792
-0.155068
0.136239
-0.155712
0.131151
-0.15258
0.12591
-0.147889
0.119789
-0.143045
0.111372
-0.140697
0.101161
-0.141993
0.0931659
-0.140067
0.0922891
-0.120982
0.0998699
-0.0758888
0.113279
-0.0120055
0.128261
0.0555537
0.141956
0.111403
0.152874
0.149906
0.160129
0.173716
0.163059
0.195238
0.161774
0.223196
0.157815
0.247255
0.153462
0.240646
0.150596
0.180022
0.150109
0.0772613
0.151337
-0.039431
0.153109
-0.130369
0.154314
-0.18942
0.153438
-0.210766
0.148275
-0.217991
0.139793
-0.223825
0.132463
-0.212833
0.131622
-0.181475
0.137346
-0.0821881
0.145624
0.008606
0.150661
0.132204
0.149731
0.218175
0.145567
0.282848
0.142354
0.303283
0.143565
0.185573
0.1474
0.119382
0.148308
-0.0712927
0.146746
-0.16055
0.144474
-0.253551
0.142546
-0.351801
-0.105197
0.0143799
0.017971
0.0214532
0.0258113
0.02961
0.033596
0.0391858
0.0412375
0.0500063
0.0481307
0.0618917
0.0535751
0.0745621
0.0566862
0.0876274
0.0565969
0.100586
0.0525708
0.112899
0.0440755
0.124063
0.0308468
0.133645
0.0129284
0.141599
-0.0100506
0.147711
-0.0379527
0.151727
-0.0698369
0.153127
-0.101453
0.151643
-0.127058
0.147715
-0.143056
0.142339
-0.149692
0.136417
-0.14979
0.130461
-0.146623
0.124748
-0.142177
0.118818
-0.137115
0.111143
-0.133023
0.101187
-0.132036
0.0919652
-0.130846
0.0888578
-0.117874
0.0947492
-0.0817802
0.1077
-0.0249559
0.123516
0.0397378
0.138749
0.0961695
0.151448
0.137208
0.160429
0.164735
0.165074
0.190593
0.165527
0.222743
0.163039
0.249744
0.15932
0.244365
0.156022
0.183321
0.15432
0.0789624
0.153996
-0.0391064
0.154124
-0.130497
0.153949
-0.189245
0.15247
-0.209287
0.147329
-0.21285
0.138987
-0.215483
0.131593
-0.205439
0.130709
-0.180591
0.136638
-0.0881168
0.14531
-6.60665e-05
0.150887
0.126627
0.150397
0.218664
0.146515
0.286731
0.143166
0.306632
0.144331
0.184408
0.148432
0.115281
0.149448
-0.0723091
0.147783
-0.158886
0.145313
-0.251081
0.143323
-0.34981
-0.10337
0.0384063
0.0120415
0.0452245
0.018993
0.0531528
0.0256678
0.0623652
0.032025
0.0727047
0.0377913
0.0839273
0.0423525
0.0957181
0.0448954
0.107668
0.0446475
0.119285
0.040953
0.130084
0.0332767
0.139683
0.021248
0.147791
0.00482074
0.154326
-0.0165858
0.158937
-0.0425636
0.161067
-0.0719667
0.160122
-0.100508
0.156141
-0.123077
0.150001
-0.136916
0.14297
-0.14266
0.136019
-0.142839
0.129507
-0.140111
0.123509
-0.136179
0.117797
-0.131402
0.1111
-0.126326
0.102104
-0.12304
0.0924186
-0.121161
0.0871581
-0.112614
0.0906835
-0.0853056
0.102423
-0.0366949
0.118517
0.0236428
0.134955
0.0797316
0.149273
0.12289
0.159994
0.154015
0.166497
0.18409
0.168868
0.220372
0.167978
0.250634
0.164953
0.247389
0.161206
0.187068
0.158245
0.0819229
0.156428
-0.0372894
0.154994
-0.129062
0.153464
-0.187715
0.151399
-0.207222
0.146371
-0.207821
0.138282
-0.207395
0.130855
-0.198011
0.129826
-0.179562
0.135853
-0.0941443
0.144902
-0.00911474
0.151105
0.120424
0.151175
0.218594
0.147649
0.290256
0.144165
0.310116
0.145226
0.183348
0.14957
0.110937
0.150701
-0.0734409
0.148929
-0.157114
0.146253
-0.248404
0.144196
-0.347753
-0.101603
0.0637459
0.00753918
0.0692737
0.0134653
0.0760491
0.0188923
0.0841513
0.0239229
0.0933582
0.0285843
0.103392
0.0323184
0.113931
0.0343571
0.124561
0.0340166
0.134817
0.0306971
0.144254
0.0238396
0.15246
0.0130426
0.159595
-0.00231423
0.164814
-0.0218055
0.167933
-0.0456822
0.168139
-0.0721727
0.164945
-0.0973136
0.158767
-0.116899
0.150852
-0.129001
0.142599
-0.134408
0.134952
-0.135192
0.128151
-0.13331
0.122061
-0.130089
0.116539
-0.12588
0.110794
-0.120582
0.103258
-0.115503
0.0940564
-0.111959
0.0872024
-0.10576
0.087976
-0.0860792
0.0976939
-0.0464128
0.113353
0.0079841
0.130521
0.0625634
0.146207
0.107203
0.158611
0.141611
0.167058
0.175643
0.171503
0.215927
0.172359
0.249777
0.170129
0.249619
0.165976
0.191222
0.161784
0.0861147
0.158547
-0.0340525
0.155665
-0.12618
0.152824
-0.184875
0.150179
-0.204577
0.145333
-0.202975
0.137596
-0.199657
0.130167
-0.190582
0.128897
-0.178292
0.134922
-0.10017
0.144335
-0.0185272
0.151259
0.113499
0.15203
0.217823
0.14896
0.293326
0.145358
0.313718
0.146251
0.182455
0.1508
0.106388
0.152051
-0.0746919
0.150172
-0.155235
0.147282
-0.245514
0.145152
-0.345623
-0.0999171
0.092574
0.0056996
0.0957488
0.0102905
0.100415
0.0142257
0.106499
0.0178395
0.113752
0.0213315
0.12194
0.0241302
0.130748
0.0255486
0.13976
0.0250046
0.148522
0.021935
0.156628
0.0157344
0.163584
0.00608586
0.169344
-0.0080737
0.173199
-0.0256606
0.174576
-0.047059
0.172708
-0.0703048
0.167389
-0.0919943
0.159408
-0.108919
0.150226
-0.119819
0.141216
-0.125398
0.133183
-0.127159
0.126287
-0.126414
0.120269
-0.124071
0.114936
-0.120547
0.109943
-0.115588
0.103998
-0.109559
0.0961322
-0.104094
0.0886554
-0.0982831
0.0868166
-0.0842403
0.0938267
-0.053423
0.108195
-0.00638407
0.125465
0.0452928
0.14216
0.0905087
0.156114
0.127657
0.166515
0.165242
0.173103
0.209339
0.17582
0.24706
0.174548
0.250892
0.170145
0.195624
0.164807
0.0914529
0.16026
-0.0295062
0.156065
-0.121985
0.151985
-0.180795
0.148757
-0.201349
0.144148
-0.198366
0.136853
-0.192362
0.12945
-0.183179
0.127853
-0.176694
0.133778
-0.106096
0.143538
-0.0282871
0.151285
0.105752
0.15291
0.216199
0.150422
0.295814
0.146735
0.317405
0.147406
0.181785
0.152105
0.101689
0.153477
-0.0760637
0.151498
-0.153256
0.148385
-0.242402
0.146176
-0.343414
-0.0983381
0.123885
0.00626471
0.124737
0.00943862
0.127021
0.0119412
0.13064
0.0142205
0.135432
0.0165393
0.141254
0.0183085
0.147815
0.0189876
0.154728
0.0180917
0.161566
0.0150965
0.167891
0.00940986
0.173253
0.000723364
0.177193
-0.0120137
0.179175
-0.0276423
0.17845
-0.0463339
0.174444
-0.0662986
0.167288
-0.0848381
0.158023
-0.0996543
0.14812
-0.109916
0.138787
-0.116065
0.130641
-0.119012
0.123781
-0.119554
0.117941
-0.118231
0.112842
-0.115449
0.108376
-0.111122
0.103817
-0.104999
0.0977824
-0.0980592
0.0908244
-0.0913251
0.0871116
-0.0805275
0.0911321
-0.0574435
0.103236
-0.0184877
0.119888
0.0286405
0.137108
0.0732891
0.15237
0.112395
0.164663
0.152949
0.17348
0.200522
0.178208
0.242332
0.178006
0.251093
0.173495
0.200135
0.167192
0.0977568
0.161465
-0.0237798
0.156107
-0.116627
0.150885
-0.175572
0.147063
-0.197527
0.142734
-0.194037
0.135984
-0.185612
0.128639
-0.175835
0.126628
-0.174684
0.132363
-0.11183
0.142444
-0.0383682
0.15111
0.097087
0.153754
0.213554
0.151991
0.297577
0.148275
0.321121
0.148677
0.181382
0.153467
0.0968989
0.154959
-0.0775559
0.152889
-0.151185
0.149548
-0.239061
0.147252
-0.341118
-0.0968951
0.151281
0.00798524
0.150861
0.0098581
0.151523
0.0112792
0.15317
0.0125744
0.155847
0.0138617
0.159445
0.0147106
0.163704
0.0147285
0.168306
0.0134899
0.172893
0.0105093
0.176989
0.00531393
0.180488
-0.00277579
0.182138
-0.0136634
0.181861
-0.0273655
0.178941
-0.0434139
0.173042
-0.0603993
0.164562
-0.0763584
0.154613
-0.0897045
0.144496
-0.0997997
0.135185
-0.106753
0.127128
-0.110955
0.120389
-0.112816
0.11478
-0.112621
0.109991
-0.11066
0.10593
-0.107062
0.102391
-0.10146
0.0982268
-0.093895
0.0927218
-0.0858201
0.0882952
-0.0761009
0.0895944
-0.0587426
0.0988309
-0.0277243
0.113991
0.0134807
0.131107
0.056173
0.147329
0.0961735
0.161329
0.138949
0.172275
0.189576
0.179059
0.235549
0.180162
0.24999
0.175823
0.204474
0.168824
0.104756
0.16209
-0.0170453
0.155732
-0.110269
0.149487
-0.169328
0.145055
-0.193096
0.141024
-0.190006
0.134934
-0.179522
0.127699
-0.1686
0.125186
-0.172171
0.130623
-0.117267
0.140988
-0.0487331
0.150658
0.0874169
0.154481
0.209731
0.153608
0.298449
0.149944
0.324785
0.15005
0.181277
0.154863
0.0920858
0.156478
-0.0791707
0.154325
-0.149033
0.150752
-0.235487
0.148367
-0.338733
-0.0956217
0.168183
0.00964282
0.167558
0.0104834
0.167546
0.0112908
0.168185
0.0119353
0.169644
0.0124032
0.171775
0.0125794
0.174357
0.0121464
0.177146
0.0107008
0.179817
0.00783851
0.18186
0.00327089
0.183097
-0.00401269
0.182849
-0.0134156
0.180614
-0.0251309
0.175966
-0.0387654
0.168833
-0.0532661
0.159766
-0.0672918
0.149782
-0.079721
0.139924
-0.0899411
0.130921
-0.0977508
0.123109
-0.103142
0.116542
-0.106249
0.111131
-0.10721
0.106636
-0.106164
0.102889
-0.103314
0.0999514
-0.0985231
0.0972522
-0.0911957
0.0935948
-0.0821627
0.089619
-0.0721251
0.089003
-0.0581267
0.0952205
-0.0339417
0.108061
0.000640457
0.124289
0.0399446
0.141006
0.0794565
0.156589
0.123365
0.169786
0.176379
0.178799
0.226536
0.181212
0.247576
0.177143
0.208544
0.169784
0.112114
0.162268
-0.00952959
0.155057
-0.103058
0.147932
-0.162202
0.142857
-0.188021
0.139071
-0.18622
0.133721
-0.174172
0.126654
-0.161533
0.123566
-0.169083
0.128564
-0.122266
0.139097
-0.0592655
0.149848
0.0766659
0.155022
0.204557
0.155213
0.298258
0.151696
0.328303
0.15151
0.181462
0.156267
0.0873286
0.158013
-0.0809166
0.15579
-0.14681
0.151981
-0.231679
0.149511
-0.336262
-0.0945548
0.172954
0.0102591
0.172553
0.0108852
0.172576
0.0112673
0.173017
0.011494
0.173887
0.0115333
0.175169
0.0112979
0.176715
0.0106
0.178301
0.00911456
0.179681
0.00645845
0.180702
0.00225008
0.18042
-0.00373089
0.178744
-0.0117388
0.175296
-0.0216836
0.169831
-0.0332998
0.162459
-0.0458946
0.153731
-0.0585632
0.144451
-0.0704408
0.135371
-0.0808617
0.127016
-0.0893953
0.11965
-0.0957766
0.113345
-0.0999442
0.108092
-0.101957
0.103784
-0.101856
0.100225
-0.0997556
0.0975098
-0.0958076
0.0956161
-0.0893021
0.0935606
-0.0801071
0.0907392
-0.0693037
0.0892703
-0.0566579
0.0927842
-0.0374556
0.102537
-0.00911235
0.117051
0.0254304
0.133313
0.0631952
0.149624
0.107054
0.164626
0.161377
0.175992
0.215171
0.180223
0.243345
0.17713
0.211636
0.169975
0.11927
0.161991
-0.00154563
0.154052
-0.0951193
0.146303
-0.154453
0.140625
-0.182343
0.136982
-0.182577
0.132384
-0.169573
0.125537
-0.154686
0.12185
-0.165396
0.126333
-0.126748
0.136861
-0.0697941
0.148625
0.0649021
0.155244
0.197938
0.156693
0.296809
0.153489
0.331506
0.153041
0.181911
0.157655
0.082714
0.159541
-0.0828027
0.157253
-0.144522
0.153231
-0.227657
0.150676
-0.333707
-0.0937285
0.191747
0.0110687
-0.192557
0.191505
0.0111274
0.191532
0.0112407
0.191854
0.0111719
0.192553
0.0108344
0.193686
0.0101647
0.195287
0.00899909
0.197331
0.00707079
0.199672
0.00411732
0.202046
-0.000124338
0.204242
-0.00592704
0.205855
-0.0133513
0.20648
-0.0223085
0.205726
-0.0325459
0.203387
-0.0435562
0.199507
-0.0546833
0.194325
-0.0652579
0.188155
-0.0746925
0.181317
-0.0825569
0.1741
-0.0885601
0.166741
-0.0925852
0.159425
-0.0946409
0.152294
-0.0947255
0.14533
-0.0927915
0.13855
-0.089027
0.132179
-0.0829312
0.125903
-0.0738313
0.118742
-0.062143
0.111058
-0.0489736
0.105644
-0.0320416
0.105434
-0.00890203
0.110021
0.0208429
0.117301
0.055915
0.124794
0.0995608
0.131702
0.154469
0.138558
0.208315
0.146381
0.235521
0.156508
0.20151
0.166738
0.10904
0.173158
-0.00796523
0.174028
-0.0959897
0.169471
-0.149895
0.162684
-0.175556
0.155952
-0.175845
0.148315
-0.161936
0.139252
-0.145623
0.131903
-0.158047
0.13028
-0.125125
0.132894
-0.0724081
0.13639
0.0614061
0.137851
0.196477
0.138082
0.296579
0.138845
0.330743
0.14277
0.177986
0.149961
0.0755229
0.152917
-0.0857586
0.149927
-0.141533
0.144762
-0.222492
0.139417
-0.328362
-0.0909167
0.204036
0.0111495
-0.204116
0.204237
0.0109255
0.204722
0.0107559
0.205461
0.0104326
0.206468
0.00982791
0.207774
0.00885886
0.209375
0.00739736
0.211194
0.00525254
0.213089
0.00222205
0.214903
-0.00193828
0.216345
-0.00736915
0.217114
-0.0141203
0.216918
-0.0221122
0.215504
-0.0311317
0.212743
-0.0407959
0.208661
-0.0506015
0.203415
-0.0600114
0.197246
-0.0685241
0.190437
-0.0757479
0.183272
-0.0813942
0.175992
-0.0853059
0.168763
-0.0874115
0.161719
-0.0876818
0.154895
-0.0859676
0.148234
-0.0823662
0.14191
-0.0766069
0.136017
-0.067938
0.129795
-0.0559217
0.122776
-0.0419546
0.116681
-0.0259466
0.114418
-0.00663873
0.117383
0.0178781
0.123969
0.0493288
0.131921
0.0916086
0.139965
0.146426
0.14825
0.20003
0.15793
0.225842
0.169786
0.189654
0.180884
0.0979425
0.187159
-0.0142409
0.187237
-0.0960669
0.181599
-0.144258
0.17369
-0.167647
0.166227
-0.168382
0.158391
-0.154101
0.149034
-0.136265
0.141077
-0.15009
0.138799
-0.122848
0.141272
-0.074881
0.145234
0.0574437
0.147439
0.194272
0.148641
0.295377
0.150055
0.329329
0.154093
0.173948
0.161485
0.0681309
0.164325