/*--------------------------------*- C++ -*----------------------------------*\
| =========                 |                                                 |
| \\      /  F ield         | OpenFOAM: The Open Source CFD Toolbox           |
|  \\    /   O peration     | Version:  2512                                  |
|   \\  /    A nd           | Website:  www.openfoam.com                      |
|    \\/     M anipulation  |                                                 |
\*---------------------------------------------------------------------------*/
FoamFile
{
    version     2.0;
    format      ascii;
    arch        "LSB;label=32;scalar=64";
    class       volScalarField;
    location    "43.75";
    object      p;
}
// * * * * * * * * * * * * * * * * * * * * * * * * * * * * * * * * * * * * * //

dimensions      [0 2 -2 0 0 0 0];

internalField   nonuniform List<scalar> 
13248
(
-0.289365
-0.287834
-0.285741
-0.283258
-0.280587
-0.277933
-0.275457
-0.273256
-0.271383
-0.269839
-0.268585
-0.267546
-0.266619
-0.265685
-0.264613
-0.263276
-0.26156
-0.259373
-0.25664
-0.25335
-0.249395
-0.244978
-0.239371
-0.23362
-0.296043
-0.293932
-0.291255
-0.288192
-0.284951
-0.281751
-0.278746
-0.27602
-0.273596
-0.271444
-0.269488
-0.267623
-0.265725
-0.263668
-0.261334
-0.258625
-0.25547
-0.251825
-0.247675
-0.243025
-0.237874
-0.232268
-0.226043
-0.219922
-0.304164
-0.301282
-0.297902
-0.294197
-0.290347
-0.286566
-0.282989
-0.279661
-0.276563
-0.273621
-0.27073
-0.267769
-0.264621
-0.261187
-0.257397
-0.253212
-0.248625
-0.243654
-0.238331
-0.232704
-0.226781
-0.220647
-0.214195
-0.207902
-0.313879
-0.310028
-0.305831
-0.301419
-0.296908
-0.292482
-0.288231
-0.284145
-0.28015
-0.276141
-0.272002
-0.267635
-0.262971
-0.257974
-0.252648
-0.247023
-0.241148
-0.235081
-0.228873
-0.222566
-0.216178
-0.209768
-0.203246
-0.197102
-0.325262
-0.320263
-0.315143
-0.309957
-0.304709
-0.299523
-0.294418
-0.28932
-0.284115
-0.278693
-0.27298
-0.266943
-0.260594
-0.253984
-0.247183
-0.240272
-0.233323
-0.226393
-0.21952
-0.212726
-0.206018
-0.199417
-0.19287
-0.186715
-0.338301
-0.332003
-0.325882
-0.319854
-0.313756
-0.307616
-0.301375
-0.294908
-0.2881
-0.2809
-0.273321
-0.265435
-0.25735
-0.249184
-0.241049
-0.233033
-0.225196
-0.217571
-0.210172
-0.202995
-0.196031
-0.189277
-0.182691
-0.176512
-0.352875
-0.345181
-0.338001
-0.331047
-0.323921
-0.316532
-0.30876
-0.300479
-0.29165
-0.282341
-0.272699
-0.262905
-0.253139
-0.243551
-0.234248
-0.225295
-0.216719
-0.208522
-0.20069
-0.193198
-0.186021
-0.179136
-0.172517
-0.166292
-0.368715
-0.35959
-0.351315
-0.343311
-0.334886
-0.325838
-0.316046
-0.305477
-0.294251
-0.282607
-0.270829
-0.259178
-0.247861
-0.237012
-0.226702
-0.216954
-0.207757
-0.19908
-0.190884
-0.18313
-0.175778
-0.168793
-0.162154
-0.155892
-0.385369
-0.374847
-0.365443
-0.356197
-0.346099
-0.33489
-0.322559
-0.309281
-0.295402
-0.281342
-0.267484
-0.254116
-0.24142
-0.229479
-0.218313
-0.207894
-0.198175
-0.189098
-0.180607
-0.172644
-0.165161
-0.158114
-0.151479
-0.145202
-0.402165
-0.390344
-0.379757
-0.368993
-0.356757
-0.342856
-0.327534
-0.311269
-0.294656
-0.278253
-0.262479
-0.24759
-0.233704
-0.220838
-0.208951
-0.197976
-0.18783
-0.178436
-0.169718
-0.161607
-0.154043
-0.146979
-0.140369
-0.13411
-0.418216
-0.405231
-0.393359
-0.380716
-0.365837
-0.348768
-0.330147
-0.310803
-0.291539
-0.27298
-0.255515
-0.239324
-0.22444
-0.210809
-0.198339
-0.186923
-0.176454
-0.166833
-0.157971
-0.149786
-0.142211
-0.135189
-0.128642
-0.12246
-0.432489
-0.418524
-0.405241
-0.390312
-0.372287
-0.35165
-0.329542
-0.30714
-0.285392
-0.264913
-0.246002
-0.228736
-0.213054
-0.198836
-0.18594
-0.174225
-0.163561
-0.153832
-0.144936
-0.136781
-0.129293
-0.122402
-0.116004
-0.110029
-0.246378
-0.248145
-0.249288
-0.250073
-0.250742
-0.251356
-0.251945
-0.252527
-0.25311
-0.253691
-0.254264
-0.254819
-0.255344
-0.255829
-0.25626
-0.256624
-0.256907
-0.257097
-0.257184
-0.257162
-0.257032
-0.256802
-0.256478
-0.256109
-0.248786
-0.250352
-0.251381
-0.252108
-0.252753
-0.253376
-0.254008
-0.25467
-0.25537
-0.256108
-0.25688
-0.257679
-0.258497
-0.259322
-0.260143
-0.260946
-0.261713
-0.262426
-0.263066
-0.263616
-0.264061
-0.264387
-0.264595
-0.264747
-0.251735
-0.253027
-0.253892
-0.254524
-0.25511
-0.255708
-0.256352
-0.257063
-0.25785
-0.258716
-0.259659
-0.260673
-0.261753
-0.262888
-0.264066
-0.265272
-0.266483
-0.267672
-0.268807
-0.269854
-0.270778
-0.271523
-0.272042
-0.272568
-0.255047
-0.256018
-0.25668
-0.257179
-0.257666
-0.258198
-0.25881
-0.259525
-0.260354
-0.2613
-0.262365
-0.263544
-0.264832
-0.266221
-0.267697
-0.269241
-0.270826
-0.272414
-0.273958
-0.275402
-0.276687
-0.277711
-0.278309
-0.278784
-0.258544
-0.259177
-0.259607
-0.259935
-0.260277
-0.260691
-0.261213
-0.261871
-0.262677
-0.263638
-0.264755
-0.266026
-0.267445
-0.269004
-0.270688
-0.272475
-0.274331
-0.27621
-0.278046
-0.279761
-0.281266
-0.28242
-0.282939
-0.283103
-0.262072
-0.262378
-0.262558
-0.262677
-0.262822
-0.263054
-0.263417
-0.263941
-0.264645
-0.265537
-0.266618
-0.267888
-0.26934
-0.270965
-0.272744
-0.274651
-0.276647
-0.278674
-0.280655
-0.28249
-0.284059
-0.2852
-0.285613
-0.284992
-0.265527
-0.265543
-0.265463
-0.265332
-0.265224
-0.265205
-0.265329
-0.265635
-0.266147
-0.266876
-0.267825
-0.268993
-0.270373
-0.271949
-0.273701
-0.275596
-0.277586
-0.279604
-0.281559
-0.283336
-0.284797
-0.285717
-0.286142
-0.284305
-0.268884
-0.26865
-0.26831
-0.267893
-0.267471
-0.267128
-0.266933
-0.266936
-0.267166
-0.267641
-0.268367
-0.269339
-0.270548
-0.271975
-0.273588
-0.275347
-0.277195
-0.279051
-0.280813
-0.282346
-0.283547
-0.283966
-0.284493
-0.281386
-0.272203
-0.271765
-0.271154
-0.270409
-0.269618
-0.268885
-0.2683
-0.267924
-0.267798
-0.267946
-0.268373
-0.269075
-0.270035
-0.271226
-0.272609
-0.274127
-0.275706
-0.277253
-0.27866
-0.279761
-0.28057
-0.280313
-0.280801
-0.27691
-0.275644
-0.275022
-0.274119
-0.273004
-0.271792
-0.270617
-0.269586
-0.268778
-0.268244
-0.268012
-0.268089
-0.268465
-0.269115
-0.269995
-0.271048
-0.272197
-0.273351
-0.274402
-0.275245
-0.275712
-0.275919
-0.275026
-0.275097
-0.271083
-0.279453
-0.278621
-0.277387
-0.275855
-0.274178
-0.272518
-0.271004
-0.269731
-0.268754
-0.268106
-0.26779
-0.267784
-0.268043
-0.268504
-0.269081
-0.269676
-0.270175
-0.270461
-0.270432
-0.269977
-0.269193
-0.267653
-0.266855
-0.26318
-0.283927
-0.282809
-0.28118
-0.279181
-0.277001
-0.274828
-0.272811
-0.271052
-0.269617
-0.268527
-0.26777
-0.267303
-0.267058
-0.26694
-0.266836
-0.266624
-0.266178
-0.265382
-0.264129
-0.262378
-0.260084
-0.257359
-0.254753
-0.251509
-0.255619
-0.254598
-0.25328
-0.251618
-0.249587
-0.247192
-0.244473
-0.241504
-0.238397
-0.235315
-0.232473
-0.230104
-0.228407
-0.227514
-0.227427
-0.22797
-0.228667
-0.228691
-0.226645
-0.223384
-0.216477
-0.205842
-0.191909
-0.17577
-0.159519
-0.145589
-0.136009
-0.130892
-0.130832
-0.131401
-0.127758
-0.117383
-0.0994614
-0.0768085
-0.0532295
-0.0318536
-0.014353
-0.00125665
0.00742496
0.0121156
0.0138556
0.014216
0.014463
0.0151259
0.0160609
0.0168904
0.0172549
0.0170173
0.0160896
0.0146984
0.0129373
0.0112456
0.00960861
0.00831081
0.00706226
0.00601968
0.00477222
0.00368024
0.00212452
0.000937367
-0.265007
-0.264221
-0.262946
-0.261079
-0.258522
-0.255231
-0.251196
-0.246459
-0.241102
-0.235269
-0.229204
-0.223213
-0.217567
-0.212549
-0.20835
-0.205013
-0.202343
-0.199837
-0.196727
-0.193042
-0.187654
-0.180225
-0.171157
-0.161053
-0.151816
-0.145532
-0.143947
-0.14502
-0.150161
-0.153122
-0.148845
-0.13585
-0.113851
-0.0867501
-0.059176
-0.0345923
-0.0146442
0.000349608
0.010616
0.0165892
0.0190646
0.0193833
0.018881
0.0184287
0.0182182
0.0180864
0.0177144
0.0169364
0.0156249
0.0139996
0.0121514
0.0105038
0.00900006
0.00786682
0.0067876
0.00587948
0.00474567
0.00371523
0.00219194
0.000983727
-0.27401
-0.273354
-0.272151
-0.270137
-0.267124
-0.263019
-0.257767
-0.251372
-0.243878
-0.235386
-0.226179
-0.216679
-0.207175
-0.198106
-0.189835
-0.182615
-0.176514
-0.171353
-0.166704
-0.162555
-0.158432
-0.153903
-0.149737
-0.14561
-0.143402
-0.144593
-0.150027
-0.158065
-0.167213
-0.172117
-0.166799
-0.151912
-0.126333
-0.0954357
-0.0645312
-0.0373181
-0.0153783
0.00115436
0.0127276
0.0198648
0.0232187
0.0238535
0.0230037
0.0217259
0.020465
0.0193695
0.0181998
0.0168177
0.0150884
0.0132339
0.0113298
0.00976049
0.00841101
0.00744688
0.0065287
0.00574174
0.00471079
0.00373432
0.00224979
0.00101808
-0.282274
-0.281218
-0.280175
-0.278118
-0.274782
-0.270031
-0.263767
-0.255957
-0.246583
-0.235689
-0.223578
-0.210996
-0.197952
-0.185155
-0.17311
-0.162251
-0.152876
-0.1451
-0.138786
-0.134015
-0.131015
-0.128854
-0.129601
-0.130902
-0.135157
-0.143101
-0.155
-0.168643
-0.181292
-0.187936
-0.183866
-0.165499
-0.136896
-0.102974
-0.0694781
-0.0402399
-0.0167508
0.00101017
0.0136549
0.0218124
0.0260815
0.0272875
0.026477
0.02475
0.0226074
0.0206304
0.0186616
0.016655
0.0145064
0.012449
0.0105246
0.00905839
0.00787671
0.00707061
0.00629455
0.00561056
0.00466753
0.003736
0.00229415
0.00103775
-0.287611
-0.28765
-0.286445
-0.284379
-0.280911
-0.275743
-0.26873
-0.259794
-0.24888
-0.235991
-0.221259
-0.206622
-0.190456
-0.174462
-0.159163
-0.145137
-0.132871
-0.122716
-0.114787
-0.109264
-0.107269
-0.106518
-0.11233
-0.117882
-0.127456
-0.14116
-0.158326
-0.176326
-0.191822
-0.199818
-0.195537
-0.176133
-0.145459
-0.109411
-0.0741085
-0.0434417
-0.0188128
-9.43148e-05
0.0134265
0.0224569
0.0275962
0.0294939
0.0290058
0.0270967
0.0244093
0.0217128
0.0190193
0.0164291
0.0139019
0.0116887
0.009779
0.00842812
0.00740622
0.00674451
0.006086
0.00548511
0.00461389
0.00371872
0.00232161
0.00104167
-0.290861
-0.291786
-0.290357
-0.288184
-0.284738
-0.279435
-0.272024
-0.262388
-0.250487
-0.236381
-0.220335
-0.203116
-0.184829
-0.166368
-0.148491
-0.131925
-0.11732
-0.105211
-0.0959313
-0.0897347
-0.0884163
-0.0900299
-0.0968243
-0.106565
-0.120581
-0.138683
-0.159711
-0.18089
-0.198551
-0.207654
-0.203565
-0.18377
-0.151999
-0.114777
-0.0784558
-0.0469206
-0.0215124
-0.0020639
0.0121724
0.0219433
0.0278633
0.0304737
0.0304656
0.028636
0.0256801
0.0224761
0.0192018
0.0161281
0.0133003
0.0109903
0.00912071
0.00789164
0.00700735
0.00646594
0.00589855
0.00536164
0.00454728
0.00368159
0.00232998
0.00103057
-0.291271
-0.293032
-0.291433
-0.289152
-0.285825
-0.280592
-0.273103
-0.263243
-0.250946
-0.236264
-0.21945
-0.200994
-0.181357
-0.161306
-0.141674
-0.123289
-0.106922
-0.0932332
-0.0826847
-0.0754163
-0.0746302
-0.0774603
-0.085325
-0.0976057
-0.114573
-0.135599
-0.159143
-0.182393
-0.201531
-0.211517
-0.208012
-0.18845
-0.156545
-0.119098
-0.0825115
-0.0506166
-0.0247401
-0.00474799
0.0100776
0.0204819
0.027086
0.0303719
0.0309049
0.0293318
0.0263356
0.0228532
0.0191826
0.015763
0.0127323
0.010383
0.00856272
0.00744993
0.0066792
0.00622736
0.00572566
0.00523583
0.00446579
0.00362476
0.00231859
0.00100666
-0.288492
-0.290619
-0.289014
-0.28698
-0.283977
-0.279036
-0.271814
-0.262186
-0.250055
-0.235453
-0.218584
-0.199837
-0.179723
-0.158964
-0.138403
-0.118924
-0.101389
-0.0865833
-0.0751164
-0.067114
-0.0659805
-0.0690287
-0.0773554
-0.0908228
-0.109302
-0.131895
-0.156778
-0.181104
-0.20104
-0.211875
-0.209022
-0.190253
-0.159125
-0.122363
-0.086204
-0.054401
-0.0283288
-0.00795518
0.00735195
0.0183011
0.0255061
0.0294125
0.0304889
0.0292772
0.0264124
0.0228649
0.018987
0.0153667
0.0122293
0.00987996
0.00811876
0.00709832
0.00641203
0.00601928
0.00556133
0.00510454
0.00436908
0.00354969
0.00228838
0.000973
-0.283086
-0.284856
-0.283785
-0.281737
-0.2791
-0.274714
-0.268158
-0.259214
-0.24776
-0.23383
-0.217596
-0.199372
-0.17962
-0.158995
-0.138302
-0.118422
-0.100263
-0.0847315
-0.0726777
-0.064716
-0.0619492
-0.0643159
-0.0723281
-0.0858863
-0.104666
-0.12763
-0.15282
-0.177399
-0.197547
-0.209013
-0.206952
-0.189405
-0.159826
-0.124563
-0.0894576
-0.0581494
-0.032123
-0.0115103
0.0041882
0.0156099
0.023347
0.0278248
0.0294313
0.0286346
0.0260165
0.0225868
0.0186684
0.0149766
0.0118126
0.00947383
0.00780116
0.00682679
0.00619226
0.00583288
0.00540128
0.00496647
0.00425847
0.00345906
0.00224167
0.000933001
-0.275312
-0.275975
-0.275567
-0.274426
-0.271242
-0.267463
-0.261969
-0.254196
-0.243923
-0.231206
-0.216206
-0.199173
-0.180495
-0.160739
-0.140635
-0.121017
-0.102798
-0.0869475
-0.0745642
-0.0675727
-0.0617373
-0.0627775
-0.0697841
-0.0825348
-0.100622
-0.122965
-0.147599
-0.171697
-0.191544
-0.203407
-0.202301
-0.186444
-0.159089
-0.126004
-0.0925075
-0.0620472
-0.0362483
-0.0154726
0.000593607
0.0124781
0.0207256
0.025756
0.0279038
0.0275653
0.0252733
0.0221079
0.0182806
0.0146191
0.0114856
0.00914707
0.00754962
0.00661878
0.00600868
0.0056616
0.00524306
0.00482185
0.00413639
0.00335624
0.00218181
0.000889963
-0.264883
-0.265168
-0.265999
-0.265736
-0.263582
-0.25918
-0.254394
-0.247969
-0.239207
-0.228063
-0.214663
-0.1992
-0.18199
-0.163529
-0.144482
-0.125549
-0.107556
-0.0914571
-0.0782977
-0.068981
-0.063926
-0.0635702
-0.0690524
-0.0803174
-0.0969886
-0.118027
-0.141503
-0.164619
-0.184297
-0.195503
-0.195384
-0.181738
-0.157321
-0.127016
-0.0955623
-0.0662407
-0.0408127
-0.0199191
-0.00347665
0.00889954
0.0176783
0.0232719
0.025975
0.0261546
0.0242697
0.0214975
0.0178621
0.0143115
0.0112349
0.00893861
0.00736903
0.00645953
0.00585196
0.00550074
0.00508533
0.00467143
0.00400514
0.00324414
0.00211191
0.00084671
-0.25262
-0.253933
-0.254774
-0.253942
-0.252351
-0.2499
-0.24516
-0.239464
-0.232364
-0.223241
-0.212072
-0.198916
-0.18394
-0.167505
-0.15016
-0.132581
-0.115545
-0.099839
-0.0862936
-0.0763602
-0.0686234
-0.066984
-0.0704915
-0.0794754
-0.0937549
-0.112392
-0.1336
-0.154866
-0.17294
-0.185393
-0.185649
-0.17427
-0.152937
-0.12555
-0.096328
-0.0684701
-0.0438632
-0.0233099
-0.00687788
0.00568867
0.0147728
0.0207532
0.0239037
0.0245337
0.0228975
0.0207061
0.0173609
0.0139974
0.0110128
0.00879809
0.00722174
0.00631543
0.00570228
0.00534156
0.0049258
0.00451593
0.00386694
0.00312497
0.0020339
0.000804956
-0.239412
-0.245679
-0.245926
-0.244287
-0.242662
-0.240745
-0.23772
-0.232559
-0.225193
-0.216433
-0.206082
-0.193951
-0.180131
-0.164937
-0.148846
-0.132442
-0.116415
-0.101508
-0.0884992
-0.0785745
-0.071776
-0.0696559
-0.0724015
-0.0803955
-0.0934949
-0.110837
-0.130697
-0.150734
-0.168477
-0.178159
-0.177805
-0.166574
-0.146232
-0.120445
-0.0930307
-0.0668492
-0.0435887
-0.023992
-0.0081705
0.00406026
0.0130105
0.0190116
0.0223329
0.0232957
0.0227594
0.0198858
0.0167155
0.0135102
0.0106375
0.00851491
0.00701336
0.00613324
0.00553371
0.00517608
0.00476829
0.00436444
0.00373373
0.00300907
0.00195559
0.000766651
-0.225681
-0.234363
-0.234887
-0.232378
-0.229941
-0.22759
-0.224229
-0.219258
-0.213201
-0.205613
-0.196356
-0.185465
-0.17309
-0.159507
-0.145121
-0.130439
-0.116071
-0.10268
-0.0910003
-0.0819538
-0.0759123
-0.0738777
-0.0763143
-0.0834842
-0.0952219
-0.110705
-0.128335
-0.145953
-0.160678
-0.168446
-0.167164
-0.156248
-0.13745
-0.113922
-0.0888933
-0.0648193
-0.0432016
-0.0247609
-0.00968145
0.00213116
0.0109017
0.0169003
0.0203559
0.0215697
0.021094
0.0187772
0.0159163
0.0129623
0.0102879
0.00827906
0.00684011
0.00597426
0.00537724
0.00501196
0.00460479
0.00420289
0.00358958
0.00288287
0.00187063
0.000724261
-0.211805
-0.22135
-0.22233
-0.219596
-0.216799
-0.214423
-0.211549
-0.207533
-0.202126
-0.19524
-0.186928
-0.177241
-0.166289
-0.1543
-0.141608
-0.12865
-0.115959
-0.104092
-0.0937631
-0.0856291
-0.080275
-0.0784368
-0.0805353
-0.0867586
-0.0969106
-0.110196
-0.125161
-0.1399
-0.151643
-0.157514
-0.155579
-0.145456
-0.128578
-0.107493
-0.0848847
-0.0628781
-0.0428546
-0.0255437
-0.0112064
0.000167245
0.00872373
0.0146781
0.0182278
0.0196574
0.0194043
0.0175431
0.0150156
0.0123513
0.00990039
0.00802183
0.0066498
0.00580073
0.00520621
0.00483203
0.00442532
0.00402578
0.00343127
0.00274531
0.00177779
0.000679329
-0.198317
-0.207748
-0.209253
-0.206852
-0.20414
-0.201941
-0.199533
-0.196114
-0.191328
-0.185203
-0.177851
-0.169348
-0.159783
-0.149328
-0.138258
-0.126944
-0.115837
-0.105448
-0.0963079
-0.0890842
-0.0843126
-0.0825487
-0.0841484
-0.0892524
-0.0976479
-0.108611
-0.120891
-0.13272
-0.142056
-0.146327
-0.144046
-0.134867
-0.119885
-0.101144
-0.0808658
-0.060881
-0.0424462
-0.0262845
-0.012718
-0.00181229
0.00650658
0.0124005
0.016037
0.017681
0.0176817
0.0162236
0.0140485
0.0116858
0.00946718
0.00772702
0.00643047
0.00560458
0.00501701
0.00463708
0.0042336
0.00383851
0.00326474
0.00260214
0.00168131
0.000634404
-0.184918
-0.194122
-0.196167
-0.194316
-0.191897
-0.189913
-0.187837
-0.184909
-0.180778
-0.175458
-0.169064
-0.161687
-0.153418
-0.144388
-0.13482
-0.125026
-0.115388
-0.106343
-0.0983724
-0.0920012
-0.0877062
-0.0859289
-0.0869667
-0.0909193
-0.0975793
-0.106333
-0.116129
-0.125446
-0.132532
-0.135457
-0.132962
-0.124713
-0.111525
-0.0949964
-0.0769322
-0.0588894
-0.0420038
-0.0269858
-0.0142048
-0.00379025
0.00426923
0.0100867
0.0137995
0.015642
0.0158983
0.0148252
0.0130099
0.010956
0.00897844
0.00738754
0.00617673
0.00538237
0.00480791
0.00442666
0.00402978
0.00364168
0.00309088
0.00245421
0.00158209
0.000589704
-0.171868
-0.180844
-0.183304
-0.182
-0.179954
-0.178226
-0.176468
-0.174027
-0.170556
-0.166033
-0.160562
-0.154244
-0.147158
-0.139424
-0.131227
-0.122822
-0.114532
-0.106727
-0.0998087
-0.0942026
-0.0903161
-0.0885059
-0.0890099
-0.0918922
-0.096965
-0.103713
-0.111251
-0.118319
-0.12348
-0.125265
-0.122624
-0.115242
-0.103686
-0.0891741
-0.0731497
-0.0569286
-0.0415291
-0.0276357
-0.0156472
-0.00574265
0.00203651
0.00775853
0.0115294
0.0135516
0.0140661
0.0133579
0.0119005
0.0101581
0.0084283
0.00699735
0.00588282
0.0051298
0.00457596
0.00419895
0.00381273
0.00343475
0.00290957
0.00230163
0.00148049
0.00054534
-0.159509
-0.168045
-0.17076
-0.169959
-0.168327
-0.166909
-0.165495
-0.163534
-0.160694
-0.156927
-0.15232
-0.146972
-0.140968
-0.13441
-0.127451
-0.120301
-0.113226
-0.106532
-0.100552
-0.0956348
-0.0921159
-0.0902792
-0.0903098
-0.0922457
-0.0959191
-0.1009
-0.106459
-0.111586
-0.115138
-0.115967
-0.113219
-0.106593
-0.0964614
-0.0837329
-0.0695512
-0.0550156
-0.0410257
-0.0282265
-0.0170291
-0.00764862
-0.000169154
0.00543741
0.00924731
0.0114324
0.0122002
0.0118341
0.0107255
0.00929303
0.00781408
0.00655203
0.00554426
0.00484325
0.00431851
0.00395239
0.00358164
0.00321755
0.00272097
0.00214482
0.00137701
0.000501554
-0.147756
-0.155747
-0.158632
-0.158291
-0.157083
-0.156006
-0.154946
-0.153441
-0.151187
-0.148118
-0.144306
-0.139846
-0.134823
-0.129324
-0.123474
-0.117444
-0.111451
-0.105746
-0.100603
-0.0963037
-0.093117
-0.0912669
-0.090895
-0.0920217
-0.0945002
-0.0979718
-0.101864
-0.105371
-0.107592
-0.107624
-0.104782
-0.0987861
-0.0898679
-0.0786934
-0.0661567
-0.0531637
-0.0404972
-0.0287523
-0.0183371
-0.0094898
-0.0023271
0.00314463
0.00697446
0.00930436
0.0103128
0.0102657
0.00949227
0.00836369
0.0071358
0.00604984
0.0051586
0.00452039
0.00403374
0.00368588
0.0033359
0.00299002
0.0025253
0.00198419
0.00127203
0.000458467
-0.13656
-0.144037
-0.14703
-0.147088
-0.146281
-0.145544
-0.144825
-0.143743
-0.142021
-0.139589
-0.136502
-0.132849
-0.128707
-0.124153
-0.119289
-0.114251
-0.109216
-0.104387
-0.0999851
-0.0962353
-0.0933503
-0.0915052
-0.0908072
-0.0912657
-0.0927564
-0.0949882
-0.0975002
-0.0996784
-0.100808
-0.100183
-0.0972576
-0.0917815
-0.0838877
-0.0740556
-0.0629746
-0.0513814
-0.0399467
-0.0292086
-0.0195598
-0.0112498
-0.00441807
0.00090042
0.00473028
0.00718483
0.00841622
0.00866452
0.0082092
0.0073752
0.00639592
0.00549116
0.00472496
0.00415989
0.00372035
0.00339852
0.00307497
0.00275201
0.00232264
0.00181996
0.00116571
0.000416063
-0.126047
-0.132991
-0.136015
-0.1364
-0.135954
-0.135534
-0.135135
-0.134436
-0.133192
-0.131333
-0.1289
-0.12597
-0.122613
-0.118895
-0.1149
-0.110736
-0.106543
-0.102483
-0.098734
-0.0954724
-0.0928652
-0.0910473
-0.0900995
-0.0900236
-0.0907136
-0.0919418
-0.0933469
-0.0944516
-0.0947002
-0.0935462
-0.0905565
-0.0855129
-0.0784825
-0.0698047
-0.0600045
-0.0496732
-0.0393768
-0.0295923
-0.020688
-0.0129141
-0.00642448
-0.00127659
0.00253277
0.00509027
0.00652354
0.00704277
0.00688582
0.0063342
0.00559856
0.00487786
0.00424365
0.0037612
0.00337748
0.00308959
0.00279831
0.00250331
0.00211292
0.00165221
0.00105803
0.000374263
-0.116236
-0.122613
-0.125602
-0.126252
-0.126123
-0.125989
-0.125876
-0.125518
-0.124699
-0.123347
-0.121493
-0.119204
-0.116539
-0.113555
-0.11032
-0.106918
-0.10346
-0.100074
-0.0968982
-0.0940715
-0.0917227
-0.0899548
-0.088827
-0.0883368
-0.0883997
-0.0888362
-0.0893668
-0.0896215
-0.0891762
-0.0876095
-0.0845804
-0.0799033
-0.0736036
-0.0659178
-0.0572407
-0.0480412
-0.0387897
-0.0299016
-0.0217142
-0.0144703
-0.00833064
-0.00336925
0.000399032
0.00303666
0.00464814
0.00541276
0.00553235
0.00524843
0.00474906
0.00421302
0.00371599
0.00332449
0.00300473
0.00275859
0.0025055
0.00224373
0.00189608
0.00148096
0.000948925
0.000332952
-0.107061
-0.11289
-0.115809
-0.116667
-0.116805
-0.116919
-0.117055
-0.116993
-0.116541
-0.115631
-0.114283
-0.112553
-0.110491
-0.108146
-0.105569
-0.102829
-0.100009
-0.0972087
-0.0945354
-0.0920962
-0.0899894
-0.088292
-0.087047
-0.0862496
-0.0858371
-0.085666
-0.0855212
-0.0851219
-0.0841463
-0.0822719
-0.0792331
-0.0748753
-0.0691995
-0.0623677
-0.054674
-0.0464851
-0.038187
-0.0301354
-0.0226327
-0.0159081
-0.0101228
-0.00536193
-0.0016549
0.0010393
0.00280348
0.00378695
0.00415955
0.0041265
0.00385378
0.00350069
0.00314414
0.00285058
0.00260214
0.00240528
0.00219626
0.0019731
0.00167202
0.00130617
0.000838304
0.000291994
-0.0985141
-0.103829
-0.106645
-0.107654
-0.108009
-0.10833
-0.108676
-0.108863
-0.108722
-0.108189
-0.107276
-0.106026
-0.104484
-0.102687
-0.100677
-0.0985053
-0.0962352
-0.0939424
-0.0917086
-0.0896152
-0.087736
-0.0861268
-0.0848215
-0.0838145
-0.0830534
-0.0824295
-0.0817809
-0.0808955
-0.0795307
-0.0774424
-0.0744258
-0.0703553
-0.0652185
-0.0591251
-0.0522917
-0.0450025
-0.0375697
-0.0302933
-0.0234396
-0.0172194
-0.0117894
-0.00724084
-0.00361436
-0.000887383
0.00100291
0.00217787
0.00277862
0.00297776
0.00291994
0.00274585
0.00253115
0.00234098
0.00217029
0.00202974
0.00187052
0.00169134
0.00144072
0.00112781
0.000726063
0.000251252
-0.0905986
-0.0954153
-0.0980992
-0.0992109
-0.099737
-0.100225
-0.100739
-0.101128
-0.101245
-0.101027
-0.100479
-0.0996369
-0.0985356
-0.0972057
-0.0956781
-0.0939908
-0.0921912
-0.0903357
-0.0884852
-0.0867005
-0.0850362
-0.0835331
-0.082213
-0.0810764
-0.0800759
-0.0791323
-0.0781248
-0.0768948
-0.0752614
-0.0730416
-0.0700795
-0.0662751
-0.0616106
-0.0561591
-0.0500793
-0.0435891
-0.0369381
-0.0303759
-0.0241325
-0.0183984
-0.0133212
-0.00899429
-0.00546633
-0.00273005
-0.000740635
0.000597951
0.00140107
0.00181212
0.00195557
0.00195436
0.00188087
0.00179791
0.0017103
0.00163244
0.00152848
0.00139851
0.0012022
0.000945848
0.00061213
0.000210591
-0.0832758
-0.0876188
-0.0901517
-0.0913261
-0.0919816
-0.0925978
-0.0932428
-0.0937911
-0.0941139
-0.0941519
-0.0939061
-0.0934029
-0.0926703
-0.0917319
-0.0906103
-0.0893325
-0.087933
-0.0864525
-0.0849354
-0.0834261
-0.0819644
-0.080584
-0.0792905
-0.0780859
-0.0769366
-0.0757841
-0.0745383
-0.0730817
-0.0712811
-0.0690008
-0.0661239
-0.0625725
-0.0583279
-0.0534387
-0.0480204
-0.0422389
-0.0362918
-0.0303838
-0.0247108
-0.0194412
-0.0147113
-0.0106129
-0.00719966
-0.00447671
-0.0024149
-0.000940629
3.848e-05
0.000639969
0.000969337
0.00113284
0.00119798
0.00122432
0.00122392
0.00121427
0.00117062
0.00109486
0.000956611
0.000760291
0.000496469
0.0001699
-0.0765059
-0.0804105
-0.0827831
-0.0839863
-0.0847334
-0.0854432
-0.0861832
-0.0868501
-0.0873316
-0.0875729
-0.0875704
-0.0873436
-0.0869141
-0.0862995
-0.0855155
-0.0845806
-0.0835185
-0.0823577
-0.0811299
-0.0798662
-0.0785946
-0.0773358
-0.0761064
-0.074891
-0.0736691
-0.0723983
-0.0710125
-0.0694262
-0.0675424
-0.0652617
-0.0624979
-0.0591915
-0.0553257
-0.0509331
-0.0460977
-0.0409448
-0.0356298
-0.0303184
-0.0251752
-0.0203464
-0.0159553
-0.0120896
-0.0088053
-0.0061169
-0.00400863
-0.00242624
-0.00129765
-0.00052807
-2.95313e-05
0.000288646
0.000487954
0.000623921
0.000713531
0.000776649
0.000797816
0.000780858
0.000704233
0.000571235
0.000379089
0.000129086
-0.0702615
-0.073761
-0.0759671
-0.0771709
-0.077977
-0.0787491
-0.0795525
-0.080302
-0.0809005
-0.0812972
-0.0814855
-0.081479
-0.0812941
-0.0809431
-0.0804362
-0.0797851
-0.0790053
-0.0781159
-0.0771385
-0.0760944
-0.075003
-0.0738783
-0.0727276
-0.0715429
-0.0703078
-0.0689906
-0.0675438
-0.0659058
-0.0640069
-0.0617753
-0.0591485
-0.0560822
-0.052563
-0.0486129
-0.0442933
-0.0396988
-0.0349504
-0.0301812
-0.0255274
-0.0211143
-0.0170512
-0.0134199
-0.0102763
-0.00764195
-0.0055118
-0.00384802
-0.00259617
-0.0016813
-0.00103142
-0.00057024
-0.000243001
1.14286e-06
0.000182201
0.000321512
0.000411304
0.000457227
0.000445512
0.000378881
0.000260076
8.80865e-05
-0.0645108
-0.0676357
-0.0696731
-0.0708554
-0.0716934
-0.0725014
-0.0733409
-0.0741421
-0.074821
-0.0753314
-0.0756643
-0.075829
-0.0758371
-0.0756968
-0.0754141
-0.0749954
-0.0744497
-0.073789
-0.0730272
-0.072178
-0.0712542
-0.0702644
-0.0692112
-0.0680893
-0.0668862
-0.0655786
-0.0641325
-0.0625041
-0.060644
-0.0585011
-0.0560308
-0.0532014
-0.0500027
-0.0464504
-0.0425899
-0.0384924
-0.0342517
-0.0299738
-0.0257704
-0.0217471
-0.0179992
-0.0146015
-0.0116081
-0.00904503
-0.00691579
-0.00519609
-0.00384649
-0.00280918
-0.00202652
-0.00143537
-0.000988037
-0.000638863
-0.000366371
-0.00014863
1.27802e-05
0.000125033
0.000181088
0.000183529
0.000139589
4.68833e-05
-0.0592185
-0.0620005
-0.0638711
-0.0650153
-0.0658628
-0.0666845
-0.0675372
-0.0683639
-0.0690924
-0.0696808
-0.0701189
-0.0704121
-0.0705686
-0.0705933
-0.0704888
-0.0702577
-0.0699042
-0.0694349
-0.0688576
-0.0681807
-0.0674117
-0.066555
-0.0656108
-0.0645749
-0.0634373
-0.0621813
-0.0607826
-0.0592105
-0.0574303
-0.0554064
-0.0531076
-0.0505118
-0.0476123
-0.0444207
-0.040971
-0.0373172
-0.0335318
-0.0296984
-0.0259079
-0.0222483
-0.0188015
-0.0156344
-0.0127982
-0.0103213
-0.0082136
-0.00646174
-0.00503882
-0.00390156
-0.00300503
-0.00229798
-0.00173979
-0.00129031
-0.000927841
-0.000630714
-0.000395639
-0.000214307
-8.81173e-05
-1.43541e-05
1.78465e-05
5.48483e-06
-0.0543522
-0.0568222
-0.0585308
-0.0596243
-0.0604638
-0.0612812
-0.0621287
-0.0629596
-0.0637122
-0.0643489
-0.0648588
-0.0652447
-0.0655117
-0.0656623
-0.0656968
-0.0656149
-0.0654173
-0.0651066
-0.0646863
-0.0641606
-0.0635331
-0.0628055
-0.0619764
-0.0610413
-0.0599927
-0.0588182
-0.0575009
-0.0560191
-0.054349
-0.0524659
-0.0503488
-0.0479827
-0.0453639
-0.0425016
-0.0394218
-0.0361654
-0.0327887
-0.0293573
-0.0259445
-0.0226228
-0.0194619
-0.0165206
-0.0138461
-0.0114677
-0.00939989
-0.00763763
-0.00616432
-0.00494888
-0.00395736
-0.00314917
-0.00249052
-0.00194689
-0.00149729
-0.00112109
-0.000811374
-0.000559082
-0.000360959
-0.000214047
-0.000104766
-3.60782e-05
-0.049883
-0.0520695
-0.0536224
-0.0546567
-0.0554745
-0.0562739
-0.0571017
-0.0579201
-0.0586764
-0.0593373
-0.0598918
-0.0603405
-0.0606865
-0.0609304
-0.0610708
-0.0611054
-0.0610326
-0.060852
-0.0605642
-0.0601701
-0.059671
-0.0590661
-0.0583529
-0.0575269
-0.0565821
-0.0555093
-0.0542964
-0.0529283
-0.0513888
-0.049661
-0.0477311
-0.0455895
-0.0432349
-0.0406748
-0.0379296
-0.0350305
-0.0320213
-0.0289534
-0.0258855
-0.0228768
-0.019986
-0.0172639
-0.0147534
-0.0124834
-0.0104711
-0.0087179
-0.00721534
-0.00594238
-0.00487438
-0.00398016
-0.00323229
-0.00260189
-0.00206935
-0.00161563
-0.00123133
-0.000907126
-0.000636092
-0.000414798
-0.000227732
-7.76396e-05
-0.0457827
-0.0477126
-0.0491177
-0.0500875
-0.0508739
-0.0516449
-0.0524424
-0.0532356
-0.0539799
-0.054646
-0.0552232
-0.0557108
-0.05611
-0.0564203
-0.0566391
-0.0567629
-0.0567884
-0.0567135
-0.0565365
-0.0562562
-0.0558716
-0.0553808
-0.0547808
-0.0540669
-0.0532338
-0.0522743
-0.0511798
-0.0499398
-0.0485432
-0.0469786
-0.0452374
-0.0433135
-0.0412073
-0.0389254
-0.0364841
-0.0339073
-0.0312293
-0.0284901
-0.0257368
-0.0230173
-0.0203804
-0.0178697
-0.0155234
-0.013369
-0.0114253
-0.00969828
-0.00818558
-0.00687432
-0.00574763
-0.00478246
-0.00395718
-0.00324834
-0.0026382
-0.00210982
-0.0016521
-0.00125589
-0.000911626
-0.000615585
-0.000350651
-0.000119047
-0.0420255
-0.0437242
-0.0449903
-0.0458932
-0.0466415
-0.047377
-0.0481366
-0.0488957
-0.0496164
-0.0502733
-0.0508563
-0.0513637
-0.0517955
-0.0521505
-0.0524253
-0.0526157
-0.0527174
-0.0527271
-0.0526417
-0.0524586
-0.0521753
-0.051789
-0.0512965
-0.0506931
-0.0499738
-0.0491326
-0.0481633
-0.0470583
-0.0458101
-0.0444112
-0.042856
-0.0411411
-0.0392681
-0.0372427
-0.035078
-0.0327928
-0.0304136
-0.0279721
-0.0255054
-0.0230524
-0.0206533
-0.018345
-0.0161611
-0.0141273
-0.0122626
-0.0105761
-0.00907014
-0.00773813
-0.00656951
-0.00554813
-0.00465751
-0.00387931
-0.00319785
-0.00259865
-0.00206987
-0.00160274
-0.00118568
-0.000814853
-0.000472603
-0.000160217
-0.0385887
-0.0400795
-0.0412163
-0.0420518
-0.0427581
-0.0434537
-0.0441708
-0.0448897
-0.0455788
-0.0462161
-0.0467922
-0.0473048
-0.0477533
-0.0481358
-0.0484485
-0.048687
-0.0488465
-0.0489229
-0.0489124
-0.0488115
-0.0486166
-0.0483244
-0.0479317
-0.0474339
-0.046826
-0.0461029
-0.0452596
-0.0442907
-0.0431911
-0.0419555
-0.0405804
-0.0390643
-0.0374091
-0.0356198
-0.0337071
-0.0316858
-0.0295767
-0.0274046
-0.0251989
-0.0229909
-0.0208136
-0.018698
-0.0166731
-0.0147624
-0.0129846
-0.0113505
-0.00986571
-0.00852855
-0.00733341
-0.0062699
-0.00532595
-0.00448788
-0.00374229
-0.00307711
-0.0024804
-0.00194431
-0.00145616
-0.00101164
-0.000592665
-0.000200604
-0.0354521
-0.0367568
-0.037774
-0.0385437
-0.039206
-0.0398595
-0.0405318
-0.0412073
-0.0418597
-0.0424702
-0.0430303
-0.0435374
-0.0439904
-0.044387
-0.0447235
-0.0449953
-0.0451975
-0.0453256
-0.0453755
-0.0453431
-0.0452245
-0.0450159
-0.0447141
-0.0443145
-0.0438123
-0.0432029
-0.0424821
-0.0416459
-0.0406905
-0.0396121
-0.0384086
-0.0370792
-0.0356261
-0.0340536
-0.0323703
-0.0305879
-0.0287229
-0.0267944
-0.0248261
-0.0228428
-0.0208715
-0.018938
-0.0170673