/*--------------------------------*- C++ -*----------------------------------*\
| =========                 |                                                 |
| \\      /  F ield         | OpenFOAM: The Open Source CFD Toolbox           |
|  \\    /   O peration     | Version:  2512                                  |
|   \\  /    A nd           | Website:  www.openfoam.com                      |
|    \\/     M anipulation  |                                                 |
\*---------------------------------------------------------------------------*/
FoamFile
{
    version     2.0;
    format      ascii;
    arch        "LSB;label=32;scalar=64";
    class       volScalarField;
    location    "15";
    object      p;
}
// * * * * * * * * * * * * * * * * * * * * * * * * * * * * * * * * * * * * * //

dimensions      [0 2 -2 0 0 0 0];

internalField   nonuniform List<scalar> 
13248
(
-0.328154
-0.32652
-0.324179
-0.321335
-0.318239
-0.315146
-0.312261
-0.30973
-0.307636
-0.306003
-0.304796
-0.303928
-0.30327
-0.30266
-0.301921
-0.300875
-0.299358
-0.297233
-0.294387
-0.290785
-0.286278
-0.281044
-0.274188
-0.266617
-0.335204
-0.332982
-0.330055
-0.326642
-0.322992
-0.319367
-0.315959
-0.312884
-0.310188
-0.307847
-0.305781
-0.303863
-0.301939
-0.299842
-0.297417
-0.294528
-0.291072
-0.286984
-0.282231
-0.276804
-0.270681
-0.263888
-0.256201
-0.248409
-0.343964
-0.340912
-0.337257
-0.333202
-0.328956
-0.324763
-0.320779
-0.317068
-0.313615
-0.310341
-0.307128
-0.303833
-0.300316
-0.296454
-0.292158
-0.287376
-0.28209
-0.276317
-0.270082
-0.263425
-0.256338
-0.248897
-0.240952
-0.23308
-0.354532
-0.350423
-0.345905
-0.341127
-0.336217
-0.33137
-0.326681
-0.322134
-0.317649
-0.313106
-0.30838
-0.303363
-0.29798
-0.292198
-0.286021
-0.279484
-0.272641
-0.265547
-0.258247
-0.250773
-0.243132
-0.235372
-0.22739
-0.219755
-0.366933
-0.361574
-0.356076
-0.350493
-0.34482
-0.339169
-0.333546
-0.327853
-0.321959
-0.315749
-0.309152
-0.302148
-0.294771
-0.287087
-0.279185
-0.271153
-0.263063
-0.254968
-0.246897
-0.238861
-0.230857
-0.222901
-0.214933
-0.207337
-0.381122
-0.374366
-0.367803
-0.361334
-0.354754
-0.348059
-0.341155
-0.333885
-0.32613
-0.317849
-0.309088
-0.299956
-0.290595
-0.281149
-0.271744
-0.262469
-0.253382
-0.244507
-0.235846
-0.227386
-0.219111
-0.211011
-0.203044
-0.195473
-0.396952
-0.388712
-0.381029
-0.373571
-0.365865
-0.357765
-0.349107
-0.339749
-0.32967
-0.318984
-0.307893
-0.296628
-0.285407
-0.274398
-0.263715
-0.253417
-0.243523
-0.234023
-0.224893
-0.2161
-0.207613
-0.199403
-0.191446
-0.183872
-0.414123
-0.404378
-0.395539
-0.386941
-0.377782
-0.367791
-0.356817
-0.344847
-0.332058
-0.318766
-0.305322
-0.292037
-0.279142
-0.266781
-0.25502
-0.243872
-0.233313
-0.223303
-0.213794
-0.204737
-0.196088
-0.187809
-0.17988
-0.172318
-0.432134
-0.420936
-0.410898
-0.40093
-0.389876
-0.377418
-0.363557
-0.34854
-0.33281
-0.316877
-0.301192
-0.286077
-0.271724
-0.258213
-0.245551
-0.233698
-0.222595
-0.212174
-0.202368
-0.193115
-0.184359
-0.176055
-0.168176
-0.160653
-0.450249
-0.437708
-0.426403
-0.414737
-0.401255
-0.385746
-0.36853
-0.350211
-0.331504
-0.31306
-0.295347
-0.278637
-0.263043
-0.248571
-0.235163
-0.222738
-0.211202
-0.200465
-0.190445
-0.181065
-0.172261
-0.163982
-0.156175
-0.148723
-0.467497
-0.453763
-0.441062
-0.42728
-0.410811
-0.391751
-0.370888
-0.349218
-0.327674
-0.306956
-0.287478
-0.26942
-0.252798
-0.237542
-0.223541
-0.210674
-0.198821
-0.187874
-0.177734
-0.168313
-0.159538
-0.151347
-0.143651
-0.136334
-0.48276
-0.468024
-0.45377
-0.437411
-0.417413
-0.394401
-0.369737
-0.344791
-0.320627
-0.29791
-0.276944
-0.257787
-0.240357
-0.224512
-0.210091
-0.196937
-0.184909
-0.173881
-0.163741
-0.154392
-0.145753
-0.137749
-0.130261
-0.123227
-0.282081
-0.285419
-0.287589
-0.289218
-0.290843
-0.292624
-0.294635
-0.296924
-0.299508
-0.302388
-0.305548
-0.308967
-0.312615
-0.316456
-0.320443
-0.324524
-0.328639
-0.332719
-0.336693
-0.340479
-0.343982
-0.347121
-0.349927
-0.352499
-0.283793
-0.28685
-0.28887
-0.290423
-0.292006
-0.293766
-0.295778
-0.298086
-0.300709
-0.303645
-0.306882
-0.3104
-0.314172
-0.318161
-0.322324
-0.326608
-0.330952
-0.335283
-0.339527
-0.343601
-0.347399
-0.350788
-0.353775
-0.356739
-0.28693
-0.289463
-0.291194
-0.29259
-0.294066
-0.295755
-0.297722
-0.30001
-0.302635
-0.305595
-0.30888
-0.312472
-0.316344
-0.320464
-0.324788
-0.329265
-0.33383
-0.338407
-0.342912
-0.347261
-0.351344
-0.354966
-0.358008
-0.361234
-0.291049
-0.292894
-0.294228
-0.295385
-0.296677
-0.298215
-0.30006
-0.302248
-0.304792
-0.307693
-0.310939
-0.314514
-0.318394
-0.322546
-0.32693
-0.331493
-0.336171
-0.340882
-0.345534
-0.350029
-0.354268
-0.358064
-0.361062
-0.363663
-0.29563
-0.296728
-0.297597
-0.298436
-0.299452
-0.300737
-0.302348
-0.304316
-0.306655
-0.309365
-0.312435
-0.31585
-0.319588
-0.323619
-0.327902
-0.332387
-0.337008
-0.341684
-0.346316
-0.350794
-0.355002
-0.358776
-0.361771
-0.364097
-0.300197
-0.300595
-0.300977
-0.30143
-0.302073
-0.302986
-0.304228
-0.305831
-0.307813
-0.310174
-0.312909
-0.316003
-0.319435
-0.323176
-0.327189
-0.331424
-0.335815
-0.340282
-0.344728
-0.349028
-0.353053
-0.356629
-0.359674
-0.361047
-0.304421
-0.304241
-0.304158
-0.304176
-0.304356
-0.304782
-0.305521
-0.306615
-0.308091
-0.309956
-0.312209
-0.31484
-0.317831
-0.321154
-0.32477
-0.328631
-0.332669
-0.336798
-0.34092
-0.344907
-0.348643
-0.351761
-0.354883
-0.354955
-0.308165
-0.307583
-0.307081
-0.306634
-0.306284
-0.30613
-0.306259
-0.306732
-0.307589
-0.308852
-0.310528
-0.312613
-0.31509
-0.317934
-0.321092
-0.324522
-0.328151
-0.331884
-0.335607
-0.33915
-0.342491
-0.344883
-0.347898
-0.346648
-0.311518
-0.310697
-0.309831
-0.308907
-0.307989
-0.307202
-0.306663
-0.306457
-0.306646
-0.307267
-0.308338
-0.309858
-0.31181
-0.314161
-0.316871
-0.319856
-0.323029
-0.326274
-0.329469
-0.332388
-0.335125
-0.336612
-0.33904
-0.336765
-0.314758
-0.313806
-0.312613
-0.311212
-0.309717
-0.308292
-0.307082
-0.306203
-0.305739
-0.305742
-0.306235
-0.30722
-0.30867
-0.310533
-0.312737
-0.315179
-0.317738
-0.320272
-0.322648
-0.32464
-0.326376
-0.3269
-0.328149
-0.32515
-0.318303
-0.317238
-0.315716
-0.313838
-0.311779
-0.309739
-0.307899
-0.306397
-0.305331
-0.304762
-0.304712
-0.305167
-0.306076
-0.307358
-0.308898
-0.310558
-0.312181
-0.313602
-0.31467
-0.315248
-0.315385
-0.314729
-0.314478
-0.311312
-0.322628
-0.321363
-0.319466
-0.317101
-0.314495
-0.311884
-0.30947
-0.307405
-0.305793
-0.304686
-0.304086
-0.303952
-0.304194
-0.30469
-0.305285
-0.305805
-0.306069
-0.305908
-0.305163
-0.303764
-0.301621
-0.298928
-0.296129
-0.292828
-0.354951
-0.355489
-0.35359
-0.34858
-0.340004
-0.327325
-0.310147
-0.288274
-0.261795
-0.230991
-0.196471
-0.159251
-0.12065
-0.0822604
-0.0457561
-0.0126888
0.0155795
0.0382364
0.055012
0.0661877
0.0724634
0.0747754
0.0740881
0.0713489
0.067306
0.0625576
0.0575312
0.052522
0.0477125
0.0432057
0.0390306
0.0352226
0.0317608
0.0286272
0.0257955
0.0232381
0.0209235
0.018821
0.0169166
0.0151945
0.0136485
0.0122595
0.0110221
0.00991066
0.00892167
0.00802844
0.00722903
0.00650234
0.00584204
0.00523894
0.00467687
0.00415903
0.00366159
0.00319427
0.00272735
0.0022803
0.00180528
0.00134379
0.000821181
0.000303571
-0.360383
-0.36139
-0.359875
-0.354961
-0.346483
-0.333809
-0.316528
-0.294446
-0.267569
-0.236201
-0.200998
-0.163059
-0.123776
-0.0846367
-0.0474179
-0.0138656
0.0147403
0.0376232
0.0545395
0.0658061
0.072157
0.0745407
0.0739372
0.0712293
0.0672189
0.0624989
0.0574935
0.0524947
0.047689
0.0432175
0.0390631
0.0352773
0.0318288
0.0287028
0.0258692
0.02331
0.0209946
0.0188885
0.0169776
0.0152489
0.0136954
0.0123008
0.0110572
0.00994207
0.00894837
0.00805245
0.0072499
0.0065206
0.00585872
0.00525278
0.00469009
0.00416959
0.00367187
0.00320189
0.00273558
0.00228479
0.00181175
0.00134517
0.000825445
0.000300485
-0.367001
-0.368641
-0.367852
-0.363751
-0.355866
-0.343712
-0.326799
-0.304968
-0.278161
-0.246654
-0.211089
-0.172621
-0.132357
-0.0923166
-0.0542824
-0.0198826
0.00954129
0.0331575
0.0507264
0.0625742
0.0694471
0.0723052
0.0721325
0.0698118
0.0661308
0.0616879
0.0569163
0.0521002
0.0474212
0.0429551
0.0388387
0.0350863
0.0316899
0.0286277
0.025834
0.0233007
0.0210041
0.018909
0.0170038
0.0152781
0.0137239
0.0123287
0.0110824
0.00996615
0.00896954
0.00807225
0.0072675
0.00653629
0.00587336
0.00526498
0.004702
0.00417912
0.00368135
0.0032089
0.00274338
0.00228901
0.00181805
0.00134655
0.000829712
0.000297486
-0.372786
-0.374212
-0.374359
-0.371309
-0.364465
-0.353345
-0.337013
-0.316037
-0.289894
-0.258857
-0.223518
-0.184924
-0.144494
-0.103959
-0.0651752
-0.0299046
0.00046496
0.025064
0.0436246
0.0564474
0.0642579
0.0680011
0.0686537
0.0670482
0.0639574
0.0599945
0.0556034
0.0510836
0.0466423
0.0424134
0.038481
0.0348281
0.0314569
0.0284068
0.0256743
0.0232051
0.0209563
0.0188863
0.0169979
0.0152841
0.0137359
0.0123447
0.0110991
0.00998415
0.00898633
0.00808884
0.00728272
0.00655021
0.00588664
0.0052762
0.00471312
0.00418812
0.00369041
0.00321571
0.00275101
0.00229331
0.00182435
0.00134821
0.000834027
0.000294762
-0.373351
-0.376808
-0.377296
-0.375172
-0.36955
-0.359669
-0.344985
-0.325291
-0.300411
-0.270507
-0.236111
-0.198179
-0.158071
-0.117583
-0.0785556
-0.0427516
-0.0116059
0.0139665
0.0336531
0.0476975
0.0567598
0.0617325
0.0635435
0.0629762
0.060752
0.057498
0.0536783
0.0496153
0.0455305
0.0415683
0.0378192
0.0343077
0.0310993
0.0281608
0.0254775
0.0230128
0.0208475
0.0188205
0.0169601
0.0152668
0.0137309
0.0123485
0.0111072
0.00999581
0.00899858
0.00810208
0.00729547
0.00656231
0.00589849
0.00528643
0.00472341
0.00419663
0.00369902
0.00322236
0.00275843
0.00229776
0.00183056
0.00135025
0.000838317
0.00029244
-0.370603
-0.375041
-0.375951
-0.37476
-0.370413
-0.361933
-0.348805
-0.33077
-0.307645
-0.279492
-0.246759
-0.210302
-0.171394
-0.131703
-0.0930551
-0.0572141
-0.0256354
0.00073144
0.0215203
0.0368903
0.0473925
0.053821
0.0570278
0.0577625
0.0566432
0.0542929
0.051202
0.0477175
0.0440816
0.0404637
0.036977
0.0336821
0.0306187
0.027784
0.0251944
0.0228616
0.0206874
0.0187116
0.0168917
0.0152268
0.0137092
0.0123398
0.0111062
0.0100008
0.00900602
0.00811171
0.00730555
0.00657241
0.00590876
0.00529556
0.00473273
0.00420456
0.00370706
0.00322882
0.00276552
0.00230235
0.00183658
0.00135271
0.000842474
0.000290654
-0.364069
-0.368854
-0.370305
-0.36997
-0.366762
-0.359634
-0.34813
-0.331921
-0.310757
-0.284689
-0.254165
-0.219929
-0.183054
-0.144999
-0.107465
-0.0721718
-0.0405885
-0.0137028
0.00805431
0.0247331
0.0367432
0.0447372
0.0494688
0.0516497
0.0518076
0.0505084
0.0482649
0.0454558
0.0423511
0.0391455
0.0359743
0.0329202
0.0300342
0.0273468
0.0248622
0.0225687
0.0204938
0.0185529
0.0167917
0.0151656
0.0136714
0.012319
0.0110962
0.00999912
0.00900857
0.00811761
0.00731284
0.00658042
0.00591732
0.00530352
0.00474096
0.00421186
0.00371444
0.00323506
0.00277216
0.00230711
0.00184229
0.00135564
0.000846397
0.000289576
-0.354481
-0.358739
-0.360543
-0.361031
-0.358738
-0.352769
-0.342839
-0.328547
-0.309551
-0.285853
-0.257819
-0.226174
-0.191994
-0.156409
-0.120784
-0.0866772
-0.0555602
-0.028483
-0.0059639
0.0119128
0.0253933
0.0349646
0.0412549
0.0449047
0.0464294
0.0462803
0.0449645
0.0428983
0.0403841
0.037641
0.0348259
0.0320451
0.029368
0.0268375
0.0244748
0.0222732
0.0202348
0.01837
0.016663
0.0150848
0.0136186
0.0122865
0.0110776
0.00999072
0.00900619
0.00811969
0.00731724
0.00658624
0.00592408
0.00531026
0.00474803
0.00421851
0.00372106
0.00324108
0.00277826
0.00231207
0.00184759
0.00135914
0.000849992
0.000289414
-0.342421
-0.344817
-0.346785
-0.348066
-0.346488
-0.341567
-0.33321
-0.320875
-0.304156
-0.283057
-0.257869
-0.229164
-0.197883
-0.165219
-0.132168
-0.0998788
-0.0697251
-0.042824
-0.0198098
-0.000928437
0.0138851
0.0249462
0.0327357
0.0378085
0.0406876
0.0417439
0.0414101
0.0401242
0.0382303
0.0359792
0.03355
0.0310691
0.0286223
0.0262672
0.024038
0.0219426
0.0199467
0.0182061
0.0165043
0.0149837
0.0135513
0.0122426
0.0110504
0.00997568
0.00899896
0.00811795
0.00731879
0.00658991
0.00592903
0.00531579
0.00475392
0.00422452
0.00372689
0.0032469
0.00278376
0.00231727
0.00185239
0.00136326
0.000853185
0.000290427
-0.32743
-0.327811
-0.329992
-0.331661
-0.330496
-0.326625
-0.319894
-0.309558
-0.295223
-0.276901
-0.254786
-0.229298
-0.201192
-0.171509
-0.141282
-0.111264
-0.08255
-0.056233
-0.0330506
-0.0134261
0.00250964
0.0148988
0.0240727
0.0304832
0.0346224
0.0369028
0.0376268
0.0371869
0.0359513
0.0342142
0.0321869
0.0300195
0.0278156
0.0256472
0.0235607
0.0215756
0.0196919
0.017956
0.0163255
0.0148646
0.0134711
0.0121888
0.011016
0.00995509
0.0089878
0.00811312
0.00731806
0.00659181
0.00593248
0.0053203
0.0047587
0.00422992
0.00373187
0.00325252
0.00278853
0.0023227
0.00185657
0.00136805
0.000855889
0.00029295
-0.310462
-0.310164
-0.312798
-0.313806
-0.312709
-0.309973
-0.304927
-0.296657
-0.284812
-0.269379
-0.250455
-0.228318
-0.203516
-0.176871
-0.149368
-0.121764
-0.0948105
-0.06943
-0.0463739
-0.0262137
-0.00928441
0.00436856
0.0149193
0.022689
0.0280807
0.0315061
0.0333382
0.0338715
0.0334156
0.0322817
0.0307158
0.0289003
0.0269645
0.0249995
0.0230668
0.0212012
0.0194162
0.0177072
0.0162128
0.0147291
0.0133775
0.0121262
0.0109752
0.009929
0.00897233
0.00810439
0.00731416
0.00659093
0.00593342
0.00532285
0.00476144
0.00423397
0.00373518
0.0032573
0.00279186
0.00232789
0.00185954
0.00137323
0.000857757
0.000297372
-0.292328
-0.293726
-0.295469
-0.29411
-0.292605
-0.290552
-0.286846
-0.280529
-0.271196
-0.25874
-0.243162
-0.224593
-0.203365
-0.180014
-0.15526
-0.129883
-0.104693
-0.0805475
-0.0580795
-0.0378521
-0.0203316
-0.00572878
0.00597467
0.0149643
0.0215421
0.026047
0.028809
0.0301777
0.0304786
0.0299827
0.0289339
0.0275287
0.0259138
0.0241976
0.0224566
0.0207388
0.0190684
0.0174705
0.015984
0.0145563
0.0132448
0.012033
0.0109099
0.0098817
0.00893972
0.00808098
0.00729851
0.00658052
0.00592646
0.00531961
0.00475914
0.00423463
0.00373544
0.00326041
0.00279311
0.0023327
0.00186093
0.00137875
0.000858346
0.000304137
-0.274512
-0.283797
-0.28465
-0.282499
-0.279013
-0.275986
-0.272286
-0.266423
-0.257782
-0.246262
-0.23191
-0.214849
-0.195351
-0.173879
-0.151069
-0.127631
-0.104268
-0.0816939
-0.0605431
-0.04135
-0.0245302
-0.0103026
0.00130774
0.0104259
0.0172862
0.0221803
0.0254199
0.0272901
0.0280579
0.0279791
0.0272924
0.0261939
0.024834
0.0233264
0.0217559
0.0201794
0.0186315
0.0171403
0.0157159
0.014555
0.013109
0.0119216
0.0108302
0.00982097
0.00889873
0.00805125
0.00727937
0.00656902
0.00591927
0.00531815
0.00475929
0.00423837
0.0037396
0.00326756
0.00279803
0.00234156
0.00186506
0.00138696
0.000859532
0.000312887
-0.255593
-0.267621
-0.268299
-0.264406
-0.260694
-0.257664
-0.253958
-0.248325
-0.240191
-0.229496
-0.216346
-0.200879
-0.183321
-0.164041
-0.14355
-0.122438
-0.101303
-0.0807553
-0.0613613
-0.0435914
-0.0278146
-0.0142575
-0.00298743
0.00606133
0.0130563
0.0182281
0.0218258
0.024088
0.0252558
0.0255679
0.025245
0.0244725
0.0233976
0.0221343
0.0207698
0.0193652
0.0179603
0.0165811
0.0152427
0.0139009
0.0127978
0.0116859
0.0106452
0.00967633
0.00878544
0.00796275
0.00720991
0.00651535
0.00587678
0.00528608
0.00473392
0.00421965
0.00372525
0.00325754
0.00279024
0.00233744
0.00186109
0.00138644
0.000857266
0.000316964
-0.236733
-0.249508
-0.250821
-0.246946
-0.242943
-0.239666
-0.235939
-0.230584
-0.223055
-0.213297
-0.201432
-0.187595
-0.171959
-0.154799
-0.136511
-0.117577
-0.0985132
-0.079845
-0.0620708
-0.0456166
-0.0308257
-0.0179301
-0.00702952
0.00189499
0.00895555
0.0143257
0.018206
0.0208053
0.0223397
0.0230231
0.0230548
0.0226076
0.0218227
0.0208125
0.0196649
0.0184441
0.0171941
0.0159437
0.0147166
0.0135074
0.0124467
0.0113984
0.010411
0.009487
0.00863219
0.0078394
0.00711007
0.00643534
0.00581186
0.00523436
0.00469199
0.00418644
0.00369865
0.00323677
0.00277378
0.00232548
0.0018515
0.00138092
0.000852525
0.000318567
-0.21894
-0.231223
-0.233192
-0.229777
-0.225712
-0.222287
-0.218652
-0.213696
-0.20686
-0.198067
-0.187435
-0.175095
-0.161192
-0.145935
-0.129634
-0.112687
-0.0955341
-0.0786251
-0.0623932
-0.0472215
-0.0334252
-0.0212307
-0.0107581
-0.0020257
0.00503122
0.0105372
0.0146521
0.0175531
0.0194264
0.0204591
0.02083
0.0206985
0.020199
0.0194408
0.0185119
0.0174785
0.0163887
0.0152762
0.0141691
0.0130743
0.0120686
0.0110881
0.0101577
0.00928073
0.00846442
0.00770343
0.00699951
0.00634621
0.00573923
0.00517618
0.00464467
0.00414878
0.00366834
0.00321313
0.00275487
0.00231178
0.0018405
0.00137457
0.000847439
0.000319391
-0.201519
-0.213209
-0.215679
-0.212826
-0.208965
-0.205583
-0.20213
-0.197619
-0.191484
-0.18362
-0.174135
-0.163162
-0.15083
-0.137303
-0.122825
-0.107718
-0.0923494
-0.0771002
-0.0623443
-0.0484214
-0.0356182
-0.0241515
-0.0141541
-0.00567337
0.00131687
0.00690037
0.0111994
0.0143579
0.0165325
0.017885
0.018574
0.0187448
0.0185232
0.0180143
0.0173048
0.0164619
0.015537
0.0145664
0.0135797
0.0125932
0.011661
0.0107522
0.00988252
0.00905577
0.00828091
0.00755419
0.00687788
0.00624789
0.00565898
0.0051118
0.00459224
0.00410708
0.00363473
0.00318702
0.00273396
0.00229676
0.00182848
0.00136764
0.000842207
0.000319518
-0.184684
-0.195826
-0.19859
-0.196274
-0.192769
-0.189586
-0.186389
-0.18233
-0.176873
-0.169894
-0.161486
-0.151777
-0.140883
-0.128939
-0.116133
-0.102721
-0.089006
-0.0753093
-0.0619515
-0.0492312
-0.0374068
-0.0266833
-0.0171992
-0.00902281
-0.002158
0.00344451
0.0078726
0.0112391
0.013673
0.015312
0.0162945
0.0167508
0.0167969
0.0165323
0.0160411
0.0153902
0.0146326
0.0138065
0.0129447
0.0120693
0.0112205
0.0103864
0.00958077
0.00880778
0.00807755
0.00738802
0.00674187
0.00613743
0.00556855
0.00503893
0.00453275
0.00405961
0.00359637
0.00315711
0.00271002
0.0022794
0.00181475
0.00135942
0.000836457
0.000318766
-0.168876
-0.179222
-0.182096
-0.180276
-0.177201
-0.174315
-0.171422
-0.167817
-0.163011
-0.156873
-0.149475
-0.140936
-0.131359
-0.120855
-0.109571
-0.0977098
-0.085518
-0.0732653
-0.0612248
-0.0496563
-0.0387909
-0.0288188
-0.019879
-0.0120534
-0.00536887
0.000195305
0.00469711
0.0082213
0.0108711
0.0127608
0.0140092
0.014731
0.0150314
0.0150032
0.0147264
0.0142668
0.0136777
0.0129992
0.0122665
0.0115041
0.010745
0.00998903
0.00925088
0.00853507
0.00785268
0.00720328
0.00658995
0.00601341
0.00546665
0.00495639
0.00446516
0.00400541
0.00355244
0.00312267
0.00268246
0.00225914
0.00179897
0.00134953
0.000830028
0.000317175
-0.153953
-0.163406
-0.166319
-0.164957
-0.162329
-0.159783
-0.157225
-0.154071
-0.149887
-0.144539
-0.138081
-0.130617
-0.12224
-0.113042
-0.103139
-0.0926917
-0.0818993
-0.0709856
-0.0601815
-0.0497111
-0.0397788
-0.0305588
-0.0221862
-0.0147505
-0.00829563
-0.00282362
0.00169841
0.00533022
0.00815122
0.0102539
0.0117376
0.0127016
0.0132399
0.0134371
0.0133685
0.0130973
0.0126767
0.0121475
0.0115459
0.0108979
0.0102336
0.00955938
0.00889213
0.00823682
0.00760537
0.00699904
0.00642118
0.00587495
0.00535247
0.00486344
0.00438884
0.00394391
0.00350248
0.00308327
0.00265097
0.0022357
0.00178096
0.00133783
0.000822882
0.000314873
-0.139814
-0.148474
-0.151385
-0.150415
-0.148211
-0.146011
-0.143798
-0.141085
-0.137486
-0.132871
-0.127278
-0.120796
-0.113509
-0.105493
-0.0968415
-0.0876801
-0.078169
-0.0684922
-0.0588433
-0.0494139
-0.0403832
-0.0319084
-0.0241177
-0.0171036
-0.0109217
-0.00559112
-0.00109978
0.00259037
0.00553731
0.00781325
0.00949935
0.0106796
0.0114362
0.0118451
0.0119759
0.0118883
0.0116339
0.0112535
0.0107839
0.0102517
0.00968627
0.00909708
0.00850387
0.00791219
0.00733468
0.00677432
0.0062346
0.00572113
0.00522513
0.0047593
0.00430307
0.00387448
0.00344596
0.00303847
0.00261521
0.00220878
0.00176052
0.00132415
0.000814942
0.000311958
-0.126626
-0.134508
-0.137343
-0.136696
-0.13487
-0.133005
-0.131134
-0.128844
-0.12579
-0.121847
-0.117042
-0.111454
-0.105154
-0.0982062
-0.0906851
-0.0826896
-0.0743475
-0.0658085
-0.0572338
-0.048786
-0.0406202
-0.032877
-0.0256753
-0.0191071
-0.0132345
-0.00808961
-0.00367657
2.43019e-05
0.00305214
0.00546085
0.00731463
0.00868277
0.00963546
0.0102397
0.0105584
0.0106468
0.0105545
0.010321
0.00998307
0.00956744
0.00910362
0.00860205
0.00808571
0.00756053
0.00703981
0.00652819
0.00602924
0.00555099
0.00508373
0.0046431
0.0042071
0.00379643
0.00338231
0.00298772
0.00257476
0.00217801
0.00173741
0.00130832
0.000806073
0.000308498
-0.114415
-0.121489
-0.12419
-0.123807
-0.12233
-0.120784
-0.119234
-0.117335
-0.114779
-0.111446
-0.107357
-0.102576
-0.0971658
-0.0911802
-0.0846775
-0.0777356
-0.0704558
-0.0629593
-0.0553788
-0.0478513
-0.04051
-0.0334786
-0.0268658
-0.0207601
-0.0152265
-0.0103056
-0.00601427
-0.00234766
0.000717274
0.0032182
0.00520386
0.00672963
0.00785397
0.00863452
0.00912705
0.00938186
0.00944518
0.00935494
0.00914697
0.00884741
0.00848341
0.00807479
0.00763777
0.00718159
0.00672021
0.00625996
0.00580431
0.00536367
0.00492742
0.00451403
0.00410016
0.00370905
0.00331091
0.00293048
0.00252918
0.002143
0.00171133
0.00129015
0.000796107
0.000304542
-0.10307
-0.109386
-0.111937
-0.111771
-0.110604
-0.109349
-0.108097
-0.10655
-0.104441
-0.101657
-0.0982095
-0.0941528
-0.0895407
-0.0844173
-0.0788285
-0.072835
-0.0665167
-0.0599709
-0.0533063
-0.0466369
-0.040076
-0.0337314
-0.0277006
-0.0220665
-0.0168944
-0.0122299
-0.0080987
-0.00450784
-0.00144755
0.00110581
0.00318716
0.00483906
0.00610869
0.00704434
0.00769435
0.00810346
0.00831402
0.00836146
0.00828014
0.00809555
0.00783508
0.00751713
0.00716073
0.00677553
0.00637569
0.00596918
0.00555919
0.00515847
0.00475546
0.00437133
0.00398156
0.00361166
0.00323118
0.0028662
0.00247803
0.00210339
0.00168199
0.00126948
0.000784867
0.000300122
-0.0925739
-0.0982055
-0.100595
-0.100599
-0.0996907
-0.0986718
-0.0977085
-0.096479
-0.0947645
-0.0924673
-0.0895901
-0.086178
-0.0822765
-0.0779216
-0.0731491
-0.0680058
-0.0625541
-0.0568715
-0.0510461
-0.0451721
-0.0393449
-0.0336572
-0.0281953
-0.0230352
-0.0182401
-0.0138577
-0.00991968
-0.00644183
-0.00342507
-0.000857505
0.00128375
0.00302968
0.00441693
0.00548467
0.00627371
0.0068229
0.00717015
0.00734785
0.0073883
0.00731597
0.00715776
0.00693091
0.00665586
0.00634301
0.00600647
0.00565571
0.00529351
0.00493487
0.00456724
0.00421434
0.00385064
0.00350363
0.00314254
0.00279435
0.00242085
0.0020588
0.00164905
0.00124614
0.000772176
0.000295246
-0.0829419
-0.08793
-0.0901432
-0.090289
-0.0896344
-0.0888977
-0.0880932
-0.0871135
-0.0857388
-0.0838653
-0.081489
-0.0786456
-0.0753725
-0.0716988
-0.0676518
-0.063267
-0.0585925
-0.0536896
-0.0486291
-0.043488
-0.0383457
-0.0332811
-0.0283695
-0.0236794
-0.0192699
-0.0151889
-0.0114713
-0.00813897
-0.00520105
-0.00265516
-0.000488629
0.00131936
0.00279585
0.00397133
0.00487925
0.00555234
0.00602381
0.00632254
0.00647829
0.00651392
0.00645527
0.00631874
0.00612503
0.00588524
0.00561321
0.0053198
0.00500722
0.00469257
0.00436232
0.00404255
0.00370684
0.00338439
0.00304446
0.00271445
0.0023572
0.0020089
0.00161221
0.00121995
0.000757862
0.000289902
-0.074116
-0.0785002
-0.0805256
-0.0807653
-0.0802932
-0.0797253
-0.0791471
-0.078408
-0.0773328
-0.0758311
-0.0738939
-0.0715494
-0.0688288
-0.0657552
-0.0623494
-0.0586377
-0.0546568
-0.0504544
-0.0460869
-0.0416168
-0.0371094
-0.0326311
-0.0282466
-0.0240164
-0.0199949
-0.0162281
-0.0127521
-0.00959265
-0.00676469
-0.00427334
-0.00211426
-0.00027533
0.00126194
0.00252006
0.00352541
0.00430466
0.00488614
0.00529488
0.0055578
0.00569561
0.00573248
0.00568417
0.00557084
0.00540404
0.00519708
0.00496212
0.00470058
0.00443156
0.00414049
0.00385559
0.00354974
0.00325347
0.00293646
0.00262606
0.00228664
0.00195337
0.00157112
0.00119075
0.000741771
0.000284061
-0.0660325
-0.0698725
-0.0717146
-0.0720222
-0.0717047
-0.0712988
-0.0708949
-0.0703574
-0.0695361
-0.0683519
-0.0667943
-0.064884
-0.0626453
-0.060097
-0.0572544
-0.0541367
-0.0507712
-0.0471946
-0.0434514
-0.0395916
-0.0356686
-0.0317373
-0.0278526
-0.0240674
-0.0204304
-0.0169844
-0.0137652
-0.0108005
-0.00810902
-0.00570144
-0.00357999
-0.0017397
-0.000169493
0.001146
0.00222656
0.00309308
0.00376889
0.00427504
0.00463531
0.00486802
0.00499529
0.00503177
0.00499672
0.00490187
0.00475982
0.00458378
0.00437426
0.00415213
0.00390178
0.0036533
0.00337905
0.00311052
0.00281813
0.00252881
0.00220879
0.00189191
0.00152552
0.00115839
0.00072377
0.000277684
-0.0586583
-0.0620098
-0.0636748
-0.064029
-0.0638417
-0.0635746
-0.0633068
-0.0629294
-0.0623225
-0.061412
-0.0601806
-0.058644
-0.0568223
-0.0547302
-0.052379
-0.049782
-0.0469592
-0.0439384
-0.040754
-0.0374457
-0.0340565
-0.0306314
-0.0272164
-0.0238567
-0.0205952
-0.0174709
-0.0145181
-0.0117644
-0.00923105
-0.00693237
-0.00487557
-0.00306137
-0.00148483
-0.000136824
0.000996523
0.00193069
0.00268413
0.00327385
0.00372015
0.00403898
0.00425024
0.00436688
0.00440682
0.00438192
0.00430377
0.00418647
0.00402938
0.00385498
0.00364654
0.00343579
0.00319467
0.00295535
0.0026892
0.00242242
0.00212333
0.00182428
0.00147514
0.00112269
0.000703749
0.000270731
-0.0519545
-0.0548649
-0.0563595
-0.0567416
-0.0566571
-0.056501
-0.0563478
-0.0561076
-0.0556782
-0.0549935
-0.054038
-0.0528212
-0.0513578
-0.0496593
-0.0477338
-0.0455904
-0.0432432
-0.0407127
-0.0380252
-0.0352118
-0.0323066
-0.0293462
-0.0263683
-0.0234111
-0.0205117
-0.0177048
-0.0150221
-0.0124905
-0.0101319
-0.00796285
-0.00599409
-0.00423064
-0.0026725
-0.00131583
-0.000151903
0.000829925
0.00164362
0.00230217
0.00282234
0.00321732
0.00350462
0.00369542
0.00380598
0.00384801
0.0038319
0.00377239
0.00366754
0.0035412
0.00337547
0.00320346
0.00299677
0.00278797
0.00254953
0.00230672
0.00203003
0.00175029
0.0014198
0.00108353
0.000681625
0.000263164
-0.0458684
-0.0483854
-0.0497208
-0.0501178
-0.0501163
-0.0500529
-0.0499957
-0.0498703
-0.0495801
-0.0490812
-0.0483558
-0.0474083
-0.0462495
-0.0448876
-0.043328
-0.0415769
-0.0396436
-0.0375428
-0.0352943
-0.0329218
-0.0304522
-0.0279146
-0.0253398
-0.0227593
-0.0202047
-0.0177064
-0.0152928
-0.012989
-0.0108167
-0.00879348
-0.00693226
-0.00524101
-0.00372353
-0.00238026
-0.00120693
-0.000197226
0.000658793
0.00137056
0.00195158
0.00241204
0.00276646
0.00302417
0.00319978
0.00330467
0.00334777
0.00334433
0.00329084
0.00321236
0.00308964
0.00295704
0.00278577
0.00260861
0.00239918
0.00218169
0.00192876
0.00166982
0.00135935
0.00104081
0.000657345
0.000254955
-0.0403538
-0.0425241
-0.0437129
-0.0441142
-0.0441776
-0.044187
-0.0442027
-0.0441634
-0.0439906
-0.0436472
-0.0431133
-0.0423925
-0.0414917
-0.0404159
-0.039169
-0.0377546
-0.0361789
-0.0344522
-0.0325885
-0.030606
-0.0285254
-0.0263694
-0.0241629
-0.0219314
-0.0197013
-0.0174986
-0.0153484
-0.0132735
-0.0112943
-0.00942865
-0.0076904
-0.00608946
-0.00463229
-0.00332252
-0.00215934
-0.00114013
-0.000258827
0.000490413
0.00111806
0.00163195
0.00204383
0.00236034
0.0025943
0.00275693
0.00285553
0.00290565
0.00290194
0.0028705
0.0027906
0.00269765
0.00256243
0.00241776
0.00223841
0.00204747
0.00181958
0.00158286
0.00129378
0.000994452
0.000630886
0.000246091
-0.0353701
-0.0372351
-0.0382896
-0.0386876
-0.0388013
-0.0388692
-0.0389448
-0.0389789
-0.0389059
-0.038679
-0.0382987
-0.0377646
-0.0370789
-0.036244
-0.0352619
-0.0341344
-0.0328654
-0.0314616
-0.0299332
-0.0282931
-0.0265569
-0.0247425
-0.0228693
-0.0209578
-0.0190296
-0.0171066
-0.0152102
-0.0133608
-0.0115771
-0.00987616
-0.00827211
-0.00677584
-0.0053956
-0.00413746
-0.00300317
-0.00199253
-0.00110217
-0.000329409
0.000332713
0.000888667
0.00134699
0.00171173
0.00199586
0.00221012
0.0023597
0.00246014
0.00250395
0.00251816
0.00248029
0.0024268
0.00232784
0.00221624
0.00206778
0.00190442
0.00170268
0.0014895
0.00122311
0.000944485
0.000602262
0.000236569
-0.0308752
-0.0324724
-0.0334049
-0.0337938
-0.0339449
-0.0340572
-0.0341765
-0.034263
-0.0342622
-0.0341403
-0.0338875
-0.033507
-0.033
-0.032367
-0.0316082
-0.0307238
-0.029716
-0.0285893
-0.0273505
-0.0260088
-0.0245756
-0.0230643
-0.0214899
-0.0198689
-0.0182185
-0.0165566
-0.0149014
-0.0132705
-0.0116805
-0.0101472
-0.00868436
-0.00730303
-0.00601239
-0.00482027
-0.00373077
-0.00274611
-0.00186513
-0.00108626
-0.000403266
0.000186399
0.000686628
0.00108796
0.00141193
0.00167055
0.00186571
0.00201245
0.00210071
0.00215847
0.00216125
0.00214648
0.00208354
0.00200518
0.00188812
0.00175311
0.00157847
0.00139
0.00114753
0.000890991
0.000571531
0.000226403
-0.0268312
-0.0281954
-0.0290183
-0.0293945
-0.0295735
-0.0297197
-0.0298726
-0.0300001
-0.0300574
-0.0300155
-0.0298654
-0.0296081
-0.0292472
-0.0287818
-0.0282098
-0.0275299
-0.0267431
-0.0258522
-0.0248617
-0.0237778
-0.0226087
-0.0213641
-0.0200554
-0.0186953
-0.0172976
-0.0158766
-0.0144474
-0.0130247
-0.0116231
-0.0102568
-0.00893847
-0.00767874
-0.00648703
-0.00537195
-0.0043387
-0.00339126
-0.00253137
-0.0017612
-0.00107623
-0.000469753
6.55199e-05
0.000488283
0.000843785
0.00114075
0.00137681
0.00156604
0.00169557
0.00179449
0.0018361
0.00185892
0.00183137
0.00178603
0.00170058
0.00159438
0.00144757
0.0012848
0.00106733
0.000834158
0.000538797
0.000215617
-0.0231949
-0.0243564
-0.0250811
-0.025442
-0.0256408
-0.0258122
-0.0259895
-0.0261473
-0.0262487
-0.0262695
-0.0262002
-0.0260427
-0.0258031
-0.0254765
-0.0250592
-0.0245503
-0.02395
-0.0232592
-0.0224803
-0.0216175
-0.0206766
-0.0196648
-0.0185904
-0.0174629
-0.0162928
-0.0150918
-0.0138719
-0.0126452
-0.0114242
-0.0102213
-0.00904794
-0.00791398
-0.00682855
-0.00580056
-0.00483591
-0.00393933
-0.00311253
-0.00235688
-0.00167055
-0.00104979
-0.000449655
-7.26747e-05
0.000303843
0.000634289
0.000904587
0.00113015
0.00129573
0.00143187
0.00150922
0.00156751
0.00157394
0.00156082
0.00150672
0.00142939
0.00131087
0.00117453
0.000982942
0.000774306
0.000504253
0.000204243
-0.0199588
-0.0209464
-0.0215842
-0.0219278
-0.0221393
-0.022328
-0.022522
-0.0227017
-0.0228382
-0.0229121
-0.0229153
-0.0228448
-0.0226965
-0.0224723
-0.0221768
-0.021808
-0.0213622
-0.0208378
-0.0202362
-0.0195606
-0.0188149
-0.018004
-0.0171336
-0.0162108
-0.0152434
-0.0142403
-0.0132111
-0.0121657
-0.0111141
-0.0100673
-0.00903524
-0.00802682
-0.00705074
-0.00611617
-0.00522973
-0.00439736
-0.00362378
-0.00291536
-0.00227131