/*--------------------------------*- C++ -*----------------------------------*\
| =========                 |                                                 |
| \\      /  F ield         | OpenFOAM: The Open Source CFD Toolbox           |
|  \\    /   O peration     | Version:  2512                                  |
|   \\  /    A nd           | Website:  www.openfoam.com                      |
|    \\/     M anipulation  |                                                 |
\*---------------------------------------------------------------------------*/
FoamFile
{
    version     2.0;
    format      ascii;
    arch        "LSB;label=32;scalar=64";
    class       surfaceScalarField;
    location    "191.75";
    object      phi;
}
// * * * * * * * * * * * * * * * * * * * * * * * * * * * * * * * * * * * * * //

dimensions      [0 3 -1 0 0 0 0];

oriented        oriented;

internalField   nonuniform List<scalar> 
26232
(
1.32016e-05
0.00109385
-0.00110705
0.000368781
0.00203453
-0.0023901
0.00131444
0.00189924
-0.0028449
0.00306402
0.000724569
-0.00247415
0.00581623
-0.00148949
-0.00126272
0.00975647
-0.00475646
0.000816222
0.0150474
-0.00908371
0.00379276
0.0218093
-0.0144528
0.00769091
0.0300945
-0.0208016
0.0125163
0.0398627
-0.0280135
0.0182453
0.0509626
-0.0359149
0.0248151
0.0631279
-0.0442837
0.0321184
0.0759904
-0.052866
0.0400035
0.089109
-0.0613985
0.0482799
0.102012
-0.0696328
0.05673
0.114246
-0.0773592
0.065125
0.125428
-0.0844251
0.0732427
0.135287
-0.090748
0.0808899
0.14369
-0.0963166
0.0879131
0.15064
-0.101193
0.0942433
0.156269
-0.105447
0.0998174
0.160693
-0.109296
0.104872
0.16387
-0.112392
0.109215
-0.115968
0.11408
0.165758
7.65497e-05
0.0010173
0.000630666
0.00148041
0.00193727
0.000592637
0.00424201
-0.00158017
0.00776752
-0.005015
0.0127013
-0.00969025
0.0191714
-0.0155538
0.0272157
-0.022497
0.0367543
-0.0303402
0.0475751
-0.0388343
0.0593402
-0.0476799
0.0716137
-0.0565573
0.0839094
-0.0651617
0.0957471
-0.0732362
0.106711
-0.0805966
0.116497
-0.087145
0.124943
-0.0928713
0.132036
-0.0978409
0.137892
-0.102173
0.142709
-0.10601
0.146752
-0.109489
0.150196
-0.112741
0.153538
-0.115734
-0.119047
0.156617
0.000172701
0.000844602
0.00100782
0.000645289
0.00279639
-0.00119593
0.0057983
-0.00458208
0.0102309
-0.00944762
0.0162393
-0.0156986
0.0238582
-0.0231727
0.0329803
-0.0316192
0.0433438
-0.0407036
0.0545491
-0.0500396
0.066105
-0.0592359
0.0774943
-0.0679465
0.0882442
-0.0759117
0.0979885
-0.0829805
0.106507
-0.0891155
0.11374
-0.0943778
0.119768
-0.0988991
0.124774
-0.102847
0.12899
-0.106389
0.132651
-0.109671
0.135954
-0.112793
0.139056
-0.115842
0.142077
-0.118754
-0.121927
0.144957
0.000292273
0.000552328
0.00146969
-0.000532124
0.00382466
-0.00355091
0.00760562
-0.00836304
0.0129838
-0.0148258
0.0200065
-0.0227213
0.0285565
-0.0317227
0.038338
-0.0414007
0.048903
-0.0512686
0.0597148
-0.0608514
0.0702327
-0.0697538
0.0799961
-0.0777099
0.088686
-0.0846016
0.0961544
-0.0904489
0.102416
-0.0953775
0.107613
-0.099574
0.111955
-0.103241
0.115672
-0.106564
0.11897
-0.109686
0.122007
-0.112709
0.124905
-0.11569
0.127734
-0.118671
0.130602
-0.121623
-0.124802
0.133477
0.000428495
0.000123833
0.00198877
-0.0020924
0.00495524
-0.00651738
0.00953032
-0.0129381
0.0157893
-0.0210847
0.0236259
-0.0305579
0.0327301
-0.040827
0.0426181
-0.0512887
0.0527124
-0.0613629
0.062447
-0.0705859
0.0713644
-0.0786712
0.0791785
-0.085524
0.0857914
-0.0912145
0.091268
-0.0959255
0.0957826
-0.0998922
0.0995576
-0.103349
0.102811
-0.106495
0.105725
-0.109478
0.108434
-0.112396
0.111032
-0.115307
0.113582
-0.11824
0.116122
-0.121211
0.118704
-0.124205
-0.127356
0.121257
0.000577332
-0.000453499
0.00254281
-0.00405788
0.00612561
-0.0101002
0.0114394
-0.0182519
0.0184111
-0.0280564
0.0267401
-0.038887
0.0359223
-0.0500092
0.0453418
-0.0607082
0.054398
-0.0704191
0.0626195
-0.0788074
0.0697309
-0.0857827
0.0756613
-0.0914544
0.0805043
-0.0960574
0.0844527
-0.099874
0.0877328
-0.103172
0.0905542
-0.10617
0.093084
-0.109025
0.0954415
-0.111835
0.0977057
-0.11466
0.0999272
-0.117528
0.102139
-0.120452
0.104364
-0.123436
0.106632
-0.126472
-0.12963
0.108906
0.000735616
-0.00118912
0.00310935
-0.00643162
0.00726972
-0.0142605
0.0131944
-0.0241765
0.02062
-0.035482
0.0290436
-0.0473107
0.0378163
-0.0587818
0.0462901
-0.069182
0.0539561
-0.0780851
0.0605226
-0.085374
0.0659211
-0.0911811
0.0702558
-0.0957891
0.073729
-0.0995305
0.0765692
-0.102714
0.0789823
-0.105585
0.0811277
-0.108316
0.0831159
-0.111013
0.0850176
-0.113737
0.0868762
-0.116519
0.0887187
-0.119371
0.0905632
-0.122297
0.0924226
-0.125295
0.0943134
-0.128363
-0.131523
0.0962062
0.000898238
-0.00208735
0.00366034
-0.00919372
0.00831281
-0.018913
0.0146548
-0.0305185
0.0222153
-0.0430425
0.0303256
-0.055421
0.0382807
-0.0667369
0.0455074
-0.0764087
0.0516663
-0.084244
0.0566642
-0.0903718
0.0605985
-0.0951155
0.0636736
-0.0988641
0.0661213
-0.101978
0.068149
-0.104742
0.0699149
-0.107351
0.0715266
-0.109927
0.0730513
-0.112537
0.0745287
-0.115214
0.0759829
-0.117973
0.0774294
-0.120817
0.0788798
-0.123747
0.0803439
-0.12676
0.0818322
-0.129851
-0.133022
0.0833306
0.00105737
-0.00314473
0.0041613
-0.0122976
0.00917548
-0.0239272
0.015694
-0.037037
0.0230567
-0.0504052
0.0305022
-0.0628665
0.0373684
-0.0736031
0.0432327
-0.0822731
0.0479459
-0.0889572
0.0515785
-0.0940044
0.0543279
-0.0978649
0.0564298
-0.100966
0.0580978
-0.103646
0.0594948
-0.106139
0.0607309
-0.108587
0.0618735
-0.11107
0.0629613
-0.113625
0.0640169
-0.11627
0.0650542
-0.11901
0.0660833
-0.121846
0.067112
-0.124776
0.0681477
-0.127795
0.0691965
-0.1309
-0.134077
0.0702521
0.00120283
-0.00434755
0.00457478
-0.0156696
0.00978484
-0.0291373
0.016221
-0.0434732
0.0230862
-0.0572703
0.0296149
-0.0693952
0.0352654
-0.0792536
0.0397945
-0.0868022
0.0432185
-0.0923812
0.0457148
-0.0965007
0.0475203
-0.0996704
0.0488581
-0.102304
0.0499018
-0.10469
0.0507687
-0.107006
0.0515303
-0.109349
0.052227
-0.111767
0.0528811
-0.114279
0.0535058
-0.116895
0.0541104
-0.119615
0.0547019
-0.122438
0.0552865
-0.125361
0.0558702
-0.128379
0.0564571
-0.131487
-0.134669
0.0570488
0.00132401
-0.00567156
0.00486724
-0.0192128
0.0100877
-0.0343577
0.0161946
-0.0495801
0.0223274
-0.0634032
0.0277962
-0.0748639
0.0322203
-0.0836777
0.0355245
-0.0901065
0.0378441
-0.0947008
0.039409
-0.0980655
0.040453
-0.100714
0.0411651
-0.103016
0.0416753
-0.1052
0.0420633
-0.107394
0.0423735
-0.109659
0.0426297
-0.112023
0.0428451
-0.114495
0.0430285
-0.117078
0.0431864
-0.119772
0.0433245
-0.122576
0.0434475
-0.125484
0.0435593
-0.128491
0.0436619
-0.13159
-0.134767
0.0437595
0.00141447
-0.00708603
0.00501754
-0.0228159
0.0100603
-0.0394005
0.0156259
-0.0551457
0.0208692
-0.0686464
0.0252298
-0.0792245
0.028493
-0.086941
0.0307168
-0.0923303
0.0321061
-0.0960902
0.0329016
-0.098861
0.0333107
-0.101123
0.0334819
-0.103187
0.0335077
-0.105226
0.0334399
-0.107326
0.0333056
-0.109525
0.0331188
-0.111836
0.0328881
-0.114264
0.0326194
-0.116809
0.0323183
-0.119471
0.0319893
-0.122247
0.0316372
-0.125131
0.031265
-0.128119
0.0308736
-0.131198
0.0304701
-0.134363
-0.000117
0.00258535
-0.00246835
-0.000470978
0.00670531
-0.00635133
-0.00106533
0.0100522
-0.00945782
-0.00188795
0.0127029
-0.0118802
-0.00291159
0.0147559
-0.0137322
-0.00409878
0.0163348
-0.0151476
-0.00540752
0.0175677
-0.016259
-0.00679584
0.0185658
-0.0171775
-0.00822443
0.0194102
-0.0179816
-0.00965723
0.0201457
-0.0187129
-0.0110605
0.0207824
-0.0193791
-0.0124009
0.0213
-0.0199596
-0.0136437
0.0216554
-0.0204126
-0.014751
0.0217881
-0.0206808
-0.0156807
0.0216253
-0.0206956
-0.0163866
0.0210862
-0.0203803
-0.0168185
0.0200845
-0.0196526
-0.0169227
0.0185314
-0.0184273
-0.0166427
0.0163398
-0.0166198
-0.0159233
0.0134319
-0.0141513
-0.0147065
0.00973576
-0.0109526
-0.0129414
0.00520047
-0.00696558
-0.0106416
-0.000159437
-0.00214034
-0.00622619
-0.00769126
0.00327581
-1.78372e-06
0.00258714
-8.57995e-05
0.00678933
-0.000302497
0.0102689
-0.000671686
0.0130721
-0.0011867
0.0152709
-0.00182007
0.0169682
-0.00253058
0.0182782
-0.00327004
0.0193053
-0.00398849
0.0201286
-0.00463733
0.0207946
-0.00517047
0.0213155
-0.00554405
0.0216736
-0.00571564
0.021827
-0.00564341
0.0217158
-0.00528566
0.0212676
-0.00460103
0.0204016
-0.00354901
0.0190324
-0.0020908
0.0170732
-0.000189803
0.0144388
0.00219686
0.0110452
0.00511042
0.0068222
0.00858354
0.00172735
0.0126506
-0.00422649
-0.0109849
0.0174093
0.000105262
0.00248187
0.000281637
0.00661295
0.000445175
0.0101053
0.000550537
0.0129667
0.000585896
0.0152355
0.000567834
0.0169863
0.000534176
0.0183119
0.000536194
0.0193032
0.000631648
0.0200332
0.000879523
0.0205467
0.00133675
0.0208583
0.00205662
0.0209537
0.00308831
0.0207953
0.00447689
0.0203273
0.00626332
0.0194812
0.00848433
0.0181806
0.0111721
0.0163447
0.0143541
0.0138912
0.0180533
0.0107396
0.0222854
0.00681306
0.0270652
0.0020424
0.0324166
-0.00362406
0.0383644
-0.0101742
-0.0176656
0.0450451
0.00019069
0.00229118
0.000590768
0.00621287
0.00109846
0.00959764
0.00165345
0.0124117
0.00223036
0.0146586
0.00283517
0.0163815
0.00349945
0.0176476
0.0042729
0.0185298
0.00521586
0.0190902
0.00639271
0.0193698
0.00786695
0.019384
0.00969801
0.0191227
0.0119395
0.0185538
0.0146387
0.0176281
0.0178359
0.0162839
0.0215653
0.0144512
0.0258549
0.0120551
0.0307276
0.00901854
0.0362032
0.00526405
0.042285
0.000731242
0.0490112
-0.00468376
0.0563898
-0.0110027
0.064389
-0.0181734
-0.0264916
0.0732149
0.000245847
0.00204534
0.000808459
0.00565026
0.00158756
0.00881854
0.00252048
0.0114788
0.00357561
0.0136035
0.00475081
0.0152062
0.00606993
0.0163285
0.00757689
0.0170228
0.00932888
0.0173382
0.0113896
0.0173091
0.0138238
0.0169499
0.0166929
0.0162535
0.0200531
0.0151936
0.0239539
0.0137273
0.0284384
0.0117994
0.0335445
0.00934519
0.0393065
0.00629302
0.0457489
0.00257618
0.0529158
-0.00190281
0.0608451
-0.00719807
0.069532
-0.0133707
0.079023
-0.0204938
0.0892264
-0.0283768
-0.0376702
0.100405
0.000265728
0.00177961
0.00091414
0.00500185
0.00186475
0.00786792
0.00306558
0.010278
0.00448758
0.0121815
0.00612531
0.0135685
0.00799597
0.0144578
0.010136
0.0148828
0.0125959
0.0148784
0.0154346
0.0144704
0.0187146
0.0136699
0.022498
0.0124701
0.0268446
0.010847
0.0318109
0.00876105
0.0374513
0.00615901
0.0438172
0.00297928
0.0509632
-0.000853003
0.0589534
-0.00541401
0.0678247
-0.0107741
0.0776227
-0.016996
0.0883614
-0.0241094
0.100031
-0.0321631
0.112469
-0.0408146
-0.0510178
0.125816
0.000250157
0.00152945
0.000903629
0.00434838
0.00191485
0.0068567
0.00325378
0.00893903
0.00490281
0.0105325
0.00685968
0.0116117
0.00913929
0.0121782
0.011773
0.0122491
0.0148061
0.0118453
0.0182942
0.0109822
0.0223005
0.00966361
0.0268925
0.00787809
0.0321413
0.00559816
0.0381206
0.00278179
0.0449064
-0.000626803
0.052583
-0.00469735
0.0612237
-0.00949363
0.0708932
-0.0150835
0.0816371
-0.0215181
0.0934553
-0.0288143
0.106304
-0.0369583
0.120024
-0.0458824
0.134396
-0.0551868
-0.0657766
0.149155
0.000204173
0.00132528
0.000791799
0.00376075
0.00176298
0.00588553
0.00311802
0.00758398
0.00485875
0.00879174
0.00699405
0.00947635
0.00954441
0.00962784
0.0125442
0.00924933
0.0160421
0.00834742
0.0201002
0.00692411
0.0247928
0.00497097
0.0302046
0.00246633
0.0364281
-0.000625354
0.0435648
-0.00435489
0.0517123
-0.00877437
0.0609563
-0.0139413
0.0713638
-0.0199011
0.0829582
-0.0266779
0.0957043
-0.0342642
0.109476
-0.0425859
0.124079
-0.0515615
0.139133
-0.0609366
0.154394
-0.070448
-0.0804344
0.169052
0.000138432
0.00118685
0.000614027
0.00328516
0.00147867
0.00502089
0.00276882
0.00629383
0.00451328
0.00704728
0.00674184
0.00724779
0.00949248
0.0068772
0.0128164
0.00592544
0.0167805
0.00438329
0.0214681
0.00223646
0.0269769
-0.00053776
0.0334157
-0.00397253
0.0408958
-0.00810541
0.0495175
-0.0129766
0.0593602
-0.0186171
0.0704595
-0.0250406
0.082789
-0.0322307
0.096241
-0.0401299
0.110611
-0.0486343
0.125593
-0.0575679
0.140794
-0.0667628
0.155696
-0.0758381
0.170009
-0.0847607
-0.0931023
0.182676
6.90225e-05
0.00111783
0.000424528
0.00292965
0.00117194
0.00427348
0.00238816
0.0050776
0.00413691
0.00529853
0.00648033
0.00490438
0.00948802
0.00386951
0.0132429
0.00217054
0.017843
-0.00021677
0.0233992
-0.00331978
0.0300279
-0.00716643
0.0378375
-0.0117821
0.0469136
-0.0171815
0.0572974
-0.0233604
0.0689661
-0.0302858
0.0818145
-0.0378889
0.0956421
-0.0460583
0.110153
-0.0546403
0.124957
-0.0634391
0.139619
-0.0722292
0.153635
-0.0807796
0.166578
-0.088781
0.178089
-0.096271
-0.102507
0.187494
1.53675e-05
0.00110246
0.000287832
0.00265719
0.000974293
0.00358702
0.00219543
0.00385646
0.00405731
0.00343665
0.00666435
0.00229734
0.0101272
0.000406686
0.0145653
-0.00226761
0.0201028
-0.00575421
0.0268567
-0.0100738
0.0349213
-0.015231
0.0443459
-0.0212067
0.0551137
-0.0279494
0.0671236
-0.0353702
0.0801776
-0.0433399
0.0939805
-0.0516918
0.10815
-0.0602279
0.122244
-0.0687337
0.135791
-0.0769862
0.148364
-0.0848029
0.159577
-0.0919922
0.169317
-0.0985213
0.177318
-0.104272
-0.108909
0.18372
-4.59626e-06
0.000262486
0.0010046
0.00238691
0.00456084
0.0076744
0.0118738
0.0172971
0.0240593
0.0322308
0.0418148
0.0527266
0.0647807
0.0776904
0.0910805
0.104514
0.117528
0.129685
0.140612
0.150052
0.157877
0.164228
0.169171
0.174342
-0.00363325
-0.0179503
0.0138923
0.000733036
-0.0311283
0.026762
0.0052052
-0.0458025
0.0413304
0.00970748
-0.0612806
0.0567783
0.0139591
-0.0767151
0.0724634
0.0176042
-0.0913111
0.087666
0.0202662
-0.104348
0.101686
0.0217434
-0.115394
0.113917
0.022306
-0.124335
0.123773
0.0227491
-0.130934
0.130491
0.0245118
-0.13434
0.132577
0.029125
-0.132475
0.127862
0.0374167
-0.122486
0.114195
0.0490314
-0.102103
0.0904879
0.0627847
-0.07098
0.0572267
0.0774652
-0.0309035
0.0162229
0.0921474
0.0148752
-0.0295574
0.106047
0.061605
-0.0755043
0.118106
0.103029
-0.115088
0.127293
0.134302
-0.143489
0.133188
0.15408
-0.159975
0.136193
0.163968
-0.166973
0.136736
0.1675
-0.168044
0.134512
0.170493
-0.16827
0.129351
0.178399
-0.173238
0.122882
0.188553
-0.182084
0.118465
0.186691
-0.182275
0.118804
0.155457
-0.155795
0.12425
0.0904491
-0.0958949
0.133088
0.0051095
-0.0139479
0.142604
-0.0771547
0.0676392
0.15041
-0.139884
0.132077
0.155443
-0.177709
0.172677
0.157835
-0.194447
0.192055
0.157253
-0.199704
0.200286
0.152696
-0.205589
0.210146
0.144652
-0.218541
0.226585
0.136298
-0.219968
0.228321
0.131686
-0.189174
0.193787
0.132601
-0.110712
0.109798
0.138291
-0.0112094
0.00551884
0.146089
0.086739
-0.094537
0.152899
0.157464
-0.164274
0.155296
0.203512
-0.205909
0.15171
0.243389
-0.239803
0.144299
0.261579
-0.254169
0.138155
0.261087
-0.254943
0.136956
0.177695
-0.176495
0.141536
0.0743775
-0.0789578
0.147654
-0.0549677
0.0488499
0.150417
-0.149318
0.146554
0.147849
-0.21006
0.212628
0.143514
-0.291833
0.296167
0.141559
-0.247096
0.249052
0.142965
-0.234062
0.232656
0.144338
-0.065962
0.0645897
0.143981
0.0766126
-0.0762555
0.142533
0.171773
-0.170325
0.140713
0.370451
-0.368631
0.192063
-0.190379
0.021042
-0.021583
0.0246574
-0.0347437
0.0283078
-0.0494529
0.0317849
-0.0647577
0.0348334
-0.0797636
0.0371302
-0.093608
0.0382656
-0.105483
0.0378033
-0.114932
0.0354864
-0.122019
0.0317599
-0.127208
0.028023
-0.130603
0.0264769
-0.130929
0.0291593
-0.125169
0.0368647
-0.109808
0.0488587
-0.082974
0.0636136
-0.0456584
0.0797199
-0.00123113
0.0957725
0.0455524
0.110409
0.0883921
0.122305
0.122405
0.130824
0.145562
0.136112
0.15868
0.138364
0.165249
0.137413
0.171444
0.133628
0.182184
0.128949
0.193232
0.126261
0.18938
0.127445
0.154273
0.132413
0.0854806
0.139709
-0.00218672
0.147281
-0.0847266
0.153058
-0.145661
0.156165
-0.180816
0.156948
-0.19523
0.15532
-0.198076
0.150149
-0.200418
0.14155
-0.209941
0.132592
-0.21101
0.127697
-0.18428
0.129019
-0.112035
0.135818
-0.0180079
0.145037
0.0775203
0.153025
0.149475
0.156249
0.200288
0.153253
0.246386
0.146362
0.26847
0.14039
0.267059
0.138767
0.179318
0.142664
0.0704799
0.148224
-0.0605272
0.150791
-0.151885
0.147978
-0.207246
0.143484
-0.287338
0.141468
-0.245081
0.142745
-0.235339
0.143995
-0.0672116
0.143518
0.0770895
0.142138
0.173153
0.140392
0.372197
0.193713
0.0478553
-0.0243933
0.0506895
-0.0375779
0.0533535
-0.0521169
0.0556483
-0.0670525
0.0574047
-0.0815199
0.0584122
-0.0946155
0.0583345
-0.105405
0.0566838
-0.113281
0.052949
-0.118284
0.0468996
-0.121158
0.03923
-0.122934
0.0320045
-0.123704
0.0281854
-0.121349
0.0301529
-0.111776
0.0384289
-0.09125
0.0517456
-0.0589751
0.0681905
-0.017676
0.0857659
0.027977
0.102575
0.0715832
0.117019
0.107961
0.128174
0.134406
0.135827
0.151027
0.139951
0.161125
0.140589
0.170806
0.13856
0.184213
0.13588
0.195912
0.134834
0.190425
0.136513
0.152595
0.140695
0.0812983
0.146229
-0.00772038
0.151664
-0.0901622
0.155369
-0.149366
0.156622
-0.182069
0.155895
-0.194502
0.153357
-0.195539
0.147817
-0.194879
0.138934
-0.201058
0.129499
-0.201575
0.124222
-0.179003
0.12577
-0.113582
0.133454
-0.0256926
0.143943
0.0670313
0.153072
0.140347
0.157222
0.196138
0.154989
0.248618
0.148761
0.274698
0.143004
0.272816
0.140886
0.181437
0.143973
0.0673924
0.148883
-0.065437
0.151253
-0.154255
0.148216
-0.20421
0.143503
-0.282625
0.141397
-0.242976
0.142593
-0.236535
0.143786
-0.0684044
0.1432
0.0776755
0.141875
0.174478
0.140217
0.373854
0.195301
0.0753715
-0.0265498
0.0774447
-0.0396511
0.0791775
-0.0538498
0.080259
-0.0681339
0.0805666
-0.0818276
0.0799969
-0.0940458
0.0783993
-0.103808
0.0755768
-0.110459
0.0711675
-0.113874
0.0645976
-0.114589
0.0555381
-0.113874
0.0448974
-0.113063
0.035403
-0.111855
0.03069
-0.107063
0.033259
-0.093819
0.0431133
-0.0688293
0.0583031
-0.0328659
0.076408
0.00987217
0.0947461
0.0532451
0.111404
0.0913033
0.125062
0.120749
0.135073
0.141015
0.141211
0.154988
0.143724
0.168292
0.143751
0.184187
0.143175
0.196488
0.143642
0.189958
0.145619
0.150618
0.14873
0.0781869
0.15242
-0.0114098
0.155674
-0.0934165
0.15733
-0.151022
0.156828
-0.181567
0.154691
-0.192365
0.15133
-0.192178
0.145611
-0.189159
0.136735
-0.192182
0.127014
-0.191854
0.121294
-0.173283
0.122832
-0.11512
0.131148
-0.0340084
0.142747
0.0554318
0.152982
0.130112
0.158167
0.190953
0.156877
0.249908
0.151452
0.280124
0.145955
0.278312
0.1433
0.184092
0.14545
0.065242
0.149614
-0.0696011
0.151778
-0.156419
0.148544
-0.200976
0.143554
-0.277635
0.141323
-0.240745
0.142485
-0.237697
0.143695
-0.0696143
0.143018
0.0783525
0.141739
0.175758
0.140193
0.375401
0.196798
0.102311
-0.0284557
0.103778
-0.0411178
0.104508
-0.0545798
0.104245
-0.0678708
0.102943
-0.0805264
0.100602
-0.0917039
0.097226
-0.100432
0.0928751
-0.106108
0.0875652
-0.108565
0.0810167
-0.10804
0.0725188
-0.105376
0.0615792
-0.102124
0.0493093
-0.099585
0.0390399
-0.0967932
0.0348629
-0.089642
0.0390878
-0.0730543
0.0509638
-0.0447419
0.0681654
-0.00732937
0.0871104
0.0343001
0.105426
0.0729879
0.121239
0.104935
0.13346
0.128794
0.141673
0.146775
0.146282
0.163683
0.14858
0.181889
0.150207
0.194861
0.152112
0.188052
0.154205
0.148525
0.156235
0.0761567
0.158088
-0.0132621
0.159214
-0.0945423
0.15887
-0.150678
0.156727
-0.179424
0.153311
-0.188949
0.149219
-0.188085
0.143467
-0.183408
0.134867
-0.183582
0.125103
-0.18209
0.118927
-0.167107
0.120207
-0.1164
0.128868
-0.0426692
0.141377
0.0429231
0.152681
0.118808
0.159015
0.184619
0.15884
0.250082
0.154359
0.284606
0.149173
0.283498
0.14596
0.187305
0.147079
0.0641229
0.150397
-0.072919
0.152336
-0.158358
0.148941
-0.197581
0.143626
-0.27232
0.141226
-0.238345
0.142397
-0.238868
0.143702
-0.0709196
0.142962
0.0790922
0.141724
0.176996
0.140319
0.376805
0.198165
0.127327
-0.0299664
0.128083
-0.0418736
0.127708
-0.0542049
0.125999
-0.0661619
0.123026
-0.0775541
0.1189
-0.0875776
0.113763
-0.0952949
0.107833
-0.100178
0.101357
-0.102088
0.0944635
-0.101147
0.0868391
-0.0977521
0.0775657
-0.0928502
0.0659976
-0.0880169
0.0534688
-0.0842644
0.0437798
-0.079953
0.0411986
-0.070473
0.0476233
-0.0511666
0.0615049
-0.021211
0.0797952
0.0160098
0.0989261
0.053857
0.116377
0.0874848
0.13056
0.11461
0.140847
0.136488
0.147689
0.156841
0.152395
0.177183
0.156257
0.190999
0.15958
0.18473
0.161837
0.146268
0.162895
0.075099
0.163061
-0.0134281
0.162177
-0.0936585
0.159918
-0.14842
0.156271
-0.175778
0.151725
-0.184403
0.146979
-0.183339
0.141293
-0.177722
0.1332
-0.175488
0.123663
-0.172553
0.11709
-0.160534
0.117892
-0.117203
0.126567
-0.0513434
0.139751
0.0297388
0.152076
0.106483
0.159664
0.177031
0.160773
0.248973
0.157368
0.288011
0.152557
0.288308
0.148806
0.191056
0.148818
0.0641113
0.151203
-0.0753037
0.152892
-0.160047
0.149381
-0.19407
0.143708
-0.266647
0.141089
-0.235727
0.142299
-0.240077
0.143786
-0.0724069
0.14302
0.0798588
0.141822
0.178194
0.140597
0.37803
0.199366
0.14975
-0.0305613
0.149359
-0.0414833
0.147526
-0.0523721
0.144144
-0.0627798
0.139401
-0.0728104
0.133495
-0.0816717
0.1267
-0.0884997
0.11938
-0.0928582
0.111886
-0.0945947
0.104492
-0.0937529
0.0972809
-0.0905408
0.089789
-0.0853583
0.0808794
-0.0791073
0.0698409
-0.0732258
0.0582327
-0.0683449
0.0501192
-0.0623595
0.0496439
-0.0506914
0.0580244
-0.0295914
0.0733863
0.000647784
0.0918897
0.0353536
0.110184
0.0691901
0.125988
0.0988065
0.138301
0.124175
0.147462
0.14768
0.154644
0.170001
0.16073
0.184914
0.165424
0.180035
0.167963
0.143729
0.168358
0.0747034
0.16714
-0.0122097
0.164444
-0.0909625
0.160405
-0.144381
0.155402
-0.170775
0.149892
-0.178894
0.144576
-0.178023
0.139
-0.172146
0.131578
-0.168067
0.122537
-0.163512
0.115712
-0.153709
0.115856
-0.117347
0.124202
-0.0596887
0.137788
0.016152
0.151066
0.0932052
0.159999
0.168098
0.162548
0.246424
0.160347
0.290212
0.155986
0.29267
0.151737
0.195305
0.150635
0.0652133
0.152001
-0.0766695
0.153409
-0.161456
0.149836
-0.190496
0.143793
-0.260604
0.140903
-0.232837
0.142166
-0.241341
0.143924
-0.0741643
0.143177
0.0806059
0.142026
0.179344
0.141027
0.379029
0.200357
0.168141
-0.0296499
0.166111
-0.0394538
0.162492
-0.0487527
0.157339
-0.0576268
0.150916
-0.0663871
0.143454
-0.0742099
0.135302
-0.0803482
0.126913
-0.0844683
0.118707
-0.0863895
0.111002
-0.0860475
0.103984
-0.0835232
0.0976059
-0.0789799
0.0912195
-0.0727209
0.0835483
-0.0655547
0.0739277
-0.0587243
0.0640752
-0.0525069
0.0580548
-0.044671
0.0596204
-0.0311569
0.0695284
-0.00926023
0.0851839
0.0196981
0.102918
0.0514563
0.119665
0.0820596
0.133792
0.110048
0.145261
0.136211
0.154929
0.160333
0.163214
0.176629
0.169313
0.173936
0.172283
0.14076
0.172331
0.0746553
0.170111
-0.00999036
0.165894
-0.0867456
0.160258
-0.138744
0.154055
-0.164571
0.147758
-0.172596
0.141962
-0.172227
0.136501
-0.166686
0.129845
-0.161411
0.121536
-0.155203
0.114653
-0.146826
0.114052
-0.116746
0.121743
-0.0673801
0.135425
0.00247042
0.149552
0.0790778
0.159893
0.157757
0.164013
0.242304
0.16314
0.291084
0.159322
0.296488
0.154649
0.199978
0.152464
0.0673985
0.152754
-0.0769595
0.153847
-0.162548
0.150269
-0.186918
0.143873
-0.254209
0.140662
-0.229625
0.141975
-0.242653
0.14409
-0.0762797
0.143419
0.081277
0.142329
0.180435
0.141608
0.37975
0.201094
0.180149
-0.0271227
0.176403
-0.0357077
0.171095
-0.0434444
0.16449
-0.0510223
0.156848
-0.0587444
0.148378
-0.0657402
0.139453
-0.0714238
0.130526
-0.0755408
0.122016
-0.0778793
0.11426
-0.0782923
0.10748
-0.0767425
0.101763
-0.0732635
0.0969387
-0.0678962
0.0922248
-0.0608407
0.086326
-0.0528255
0.0786906
-0.0448716
0.0710721
-0.0370524
0.067283
-0.0273679
0.0705403
-0.0125175
0.0809649
0.00927344
0.0959979
0.0364234
0.112329
0.0657283
0.127597
0.09478
0.141095
0.122713
0.153129
0.148299
0.163542
0.166216
0.171082
0.166396
0.174719
0.137123
0.174725
0.0746497
0.171879
-0.00714447
0.16642
-0.0812868
0.15938
-0.131704
0.152128
-0.157319
0.145223
-0.165691
0.139057
-0.166062
0.133697
-0.161325
0.127841
-0.155554
0.120449
-0.147811
0.113732
-0.140109
0.112407
-0.115421
0.119168
-0.0741405
0.132622
-0.0109839
0.147446
0.0642538
0.159224
0.145979
0.165035
0.236493
0.165606
0.290513
0.162414
0.29968
0.15745
0.204942
0.154234
0.0706145
0.153426
-0.0761509
0.154158
-0.163281
0.15064
-0.1834
0.143941
-0.24751
0.140367
-0.226052
0.1417
-0.243987
0.144262
-0.0788411
0.143733
0.0818057
0.142721
0.181447
0.142338
0.380133
0.201529
0.18395
-0.023579
0.179033
-0.0307906
0.172695
-0.0371065
0.16539
-0.0437174
0.157278
-0.0506326
0.148535
-0.0569965
0.139523
-0.062412
0.130649
-0.0666665
0.122286
-0.0695164
0.114755
-0.0707617
0.108297
-0.0702846
0.103061
-0.0680279
0.0990835
-0.0639182
0.0961198
-0.057877
0.0933494
-0.050055
0.0895261
-0.0410484
0.0842015
-0.0317278
0.0790395
-0.0222059
0.0773631
-0.0108411
0.0816732
0.00496337
0.0918846
0.026212
0.105786
0.0518274
0.120815
0.0797508
0.135545
0.107983
0.149504
0.134341
0.161853
0.153866
0.170852
0.157398
0.17533
0.132644
0.175675
0.0743048
0.17249
-0.00395983
0.165986
-0.074783
0.157705
-0.123423
0.149539
-0.149153
0.142197
-0.158349
0.135797
-0.159662
0.130516
-0.156044
0.125436
-0.150475
0.119099
-0.141474
0.112764
-0.133773
0.110802
-0.11346
0.116451
-0.0797893
0.12937
-0.023903
0.144692
0.0489322
0.157877
0.132794
0.165435
0.228934
0.167549
0.288399
0.165116
0.302114
0.160005
0.210053
0.1559
0.0747195
0.153984
-0.0742351
0.154305
-0.163602
0.150913
-0.180009
0.143993
-0.240589
0.140029
-0.222088
0.141319
-0.245277
0.144413
-0.0819345
0.144103
0.0821157
0.143196
0.182354
0.143216
0.380113
0.201615
0.180068
-0.0199273
0.174821
-0.0255433
0.168368
-0.0306536
0.161195
-0.0365447
0.153335
-0.0427725
0.144978
-0.0486389
0.136452
-0.0538858
0.128091
-0.0583057
0.120222
-0.0616473
0.113144
-0.0636843
0.107109
-0.0642489
0.102297
-0.0632161
0.0987855
-0.060407
0.0965512
-0.0556427
0.0953321
-0.0488359
0.0944183
-0.0401346
0.0928087
-0.0301181
0.0900918
-0.019489
0.0877081
-0.00845742
0.0878673
0.00480414
0.0927729
0.0213064
0.102452
0.0421484
0.115295
0.0669072
0.129779
0.0934988
0.144775
0.119345
0.158555
0.140085
0.168742
0.147211
0.174291
0.127096
0.175433
0.0731624
0.172214
-0.000741383
0.164868
-0.0674366
0.155524
-0.114079
0.146575
-0.140204
0.138921
-0.150695
0.132395
-0.153136
0.127126
-0.150775
0.122696
-0.146044
0.117459
-0.136237
0.111676
-0.12799
0.109172
-0.110955
0.113581
-0.0841984
0.125659
-0.0359814
0.141218
0.033373
0.155784
0.118228
0.165213
0.219505
0.168937
0.284676
0.167313
0.303738
0.162275
0.21509
0.15742
0.0795746
0.154449
-0.0712643
0.154292
-0.163445
0.151077
-0.176793
0.144043
-0.233555
0.139664
-0.217709
0.140833
-0.246446
0.144521
-0.0856229
0.144513
0.0821242
0.143747
0.183119
0.144243
0.379617
0.201302
0.17115
-0.0167348
0.166123
-0.0205162
0.160457
-0.0249885
0.154134
-0.0302211
0.147171
-0.0358097
0.139843
-0.0413109
0.132408
-0.046451
0.12512
-0.051018
0.118252
-0.0547783
0.112051
-0.0574833
0.106704
-0.0589028
0.102334
-0.0588459
0.0990531
-0.057126
0.0969723
-0.0535619
0.0961418
-0.0480054
0.0963854
-0.0403782
0.097068
-0.0308007
0.0972786
-0.0196996
0.0965515
-0.0077304
0.0963711
0.00498458
0.0984685
0.019209
0.104112
0.0365049
0.113405
0.0576139
0.125666
0.0812382
0.139809
0.105202
0.15379
0.126105
0.165118
0.135883
0.172453
0.119761
0.17482
0.0707953
0.171554
0.00252508
0.163153
-0.0590361
0.152978
-0.103903
0.143526
-0.130753
0.135716
-0.142884
0.12915
-0.146571
0.123802
-0.145427
0.11979
-0.142032
0.115581
-0.132028
0.110477
-0.122887
0.107521
-0.107998
0.110715
-0.0873924
0.121672
-0.0469381
0.137152
0.0178927
0.152707
0.102673
0.163932
0.208281
0.169401
0.279206
0.168807
0.304332
0.164079
0.219819
0.158744
0.0849097
0.154783
-0.0673038
0.154124
-0.162786
0.151121
-0.17379
0.144088
-0.226522
0.139265
-0.212885
0.140287
-0.247468
0.144586
-0.0899223
0.144957
0.0817528
0.144366
0.183711
0.145411
0.378571
0.200533
0.205885
-0.0138198
-0.2088
0.203784
-0.0184149
0.201357
-0.0225616
0.19832
-0.0271842
0.194598
-0.0320877
0.190241
-0.0369539
0.185323
-0.0415326
0.179904
-0.0455996
0.174069
-0.0489425
0.16793
-0.051345
0.161619
-0.052592
0.155262
-0.0524888
0.148991
-0.050855
0.142949
-0.0475191
0.137282
-0.0423388
0.132107
-0.0352036
0.127343
-0.0260363
0.122578
-0.0149343
0.117472
-0.00262486
0.111704
0.0107527
0.106398
0.0245146
0.10295
0.0399539
0.102708
0.0578557
0.106466
0.0774797
0.114225
0.0974431
0.125666
0.114664
0.141354
0.120195
0.16083
0.100285
0.178983
0.0526422
0.189746
-0.00823806
0.192459
-0.0617487
0.188546
-0.0999906
0.18113
-0.123337
0.172564
-0.134318
0.163801
-0.137808
0.155413
-0.137039
0.148
-0.134619
0.140627
-0.124655
0.132087
-0.114347
0.124263
-0.100175
0.120747
-0.0838766
0.123431
-0.0496221
0.129607
0.0117169
0.135661
0.0966191
0.139814
0.204127
0.143282
0.275738
0.147531
0.300084
0.152595
0.214754
0.156551
0.080954
0.158307
-0.0690602
0.158166
-0.162645
0.154575
-0.170199
0.146354
-0.218301
0.139252
-0.205782
0.136108
-0.244324
0.135285
-0.0890996
0.132788
0.0842498
0.130538
0.185961
0.132298
0.376811
0.199138
0.214698
-0.011615
-0.216903
0.212279
-0.0159956
0.20983
-0.0201127
0.206887
-0.0242419
0.203317
-0.0285175
0.199156
-0.0327923
0.19446
-0.0368369
0.189292
-0.0404319
0.183733
-0.0433831
0.17789
-0.0455022
0.171894
-0.0465967
0.165885
-0.0464794
0.160004
-0.0449743
0.154398
-0.0419125
0.1492
-0.0371412
0.144551
-0.0305546
0.140549
-0.0220341
0.137089
-0.0114742
0.133622
0.000842707
0.130002
0.0143722
0.126208
0.0283091
0.123257
0.0429046
0.122706
0.0584068
0.125905
0.0742805
0.133418
0.0899296
0.145528
0.102555
0.162453
0.103269
0.181792
0.080946
0.197909
0.0365259
0.206028
-0.0163579
0.206309
-0.0620294
0.200707
-0.0943881
0.192153
-0.114784
0.182927
-0.125091
0.173843
-0.128725
0.165134
-0.12833
0.157452
-0.126937
0.150219
-0.117422
0.141995
-0.106122
0.133899
-0.0920792
0.129528
-0.0795054
0.131469
-0.0515625
0.137619
0.00556606
0.144266
0.0899728
0.149279
0.199113
0.153854
0.271164
0.159331
0.294606
0.165223
0.208863
0.169471
0.0767052
0.170632
-0.0702204
0.169732
-0.161746
0.165506
-0.165973
0.156586
-0.209382
0.14851
-0.197707
0.144866
-0.24068
0.144147
-0.0883804
0.141498
0.086899
0.139099
0.18836
0.14139
0.37452
0.197425
0.223215
-0.00995898
-0.224871
0.221034
-0.0138148
0.21857
-0.0176486
0.215718
-0.0213903
0.212341
-0.0251404
0.208416
-0.028867
0.203986
-0.0324071
0.199116
-0.0355619
0.193882
-0.0381486
0.188379
-0.0399991
0.182726
-0.0409443
0.17706
-0.0408128
0.171524
-0.0394381
0.166271
-0.0366604
0.161456
-0.0323261
0.157225