/*--------------------------------*- C++ -*----------------------------------*\
| =========                 |                                                 |
| \\      /  F ield         | OpenFOAM: The Open Source CFD Toolbox           |
|  \\    /   O peration     | Version:  2512                                  |
|   \\  /    A nd           | Website:  www.openfoam.com                      |
|    \\/     M anipulation  |                                                 |
\*---------------------------------------------------------------------------*/
FoamFile
{
    version     2.0;
    format      ascii;
    arch        "LSB;label=32;scalar=64";
    class       volVectorField;
    location    "66";
    object      U;
}
// * * * * * * * * * * * * * * * * * * * * * * * * * * * * * * * * * * * * * //

dimensions      [0 1 -1 0 0 0 0];

internalField   nonuniform List<vector> 
13248
(
(-0.0120495 0.0115752 7.20952e-20)
(-0.0205377 0.0232367 0)
(-0.0146023 0.0279676 -1.36592e-19)
(0.00436053 0.0279117 1.28671e-19)
(0.0355017 0.0248736 1.2087e-19)
(0.0782638 0.0203118 0)
(0.132151 0.0153301 0)
(0.196546 0.0107463 2.93456e-19)
(0.270525 0.00715187 -1.59044e-21)
(0.352718 0.00494534 -2.56023e-19)
(0.441246 0.00435064 2.35713e-19)
(0.533749 0.00542849 -1.47298e-19)
(0.62752 0.00808967 0)
(0.719695 0.012116 -2.44501e-19)
(0.807487 0.0171908 4.52649e-19)
(0.888413 0.0229378 -1.07399e-19)
(0.960475 0.028965 -1.83141e-19)
(1.02229 0.0348923 1.71928e-19)
(1.07318 0.0404427 0)
(1.11305 0.0452246 0)
(1.14269 0.0495604 0)
(1.16234 0.051864 0)
(1.17558 0.0558468 4.69058e-20)
(1.17875 0.0520046 1.62978e-19)
(-0.0111745 0.00963949 -2.17785e-19)
(-0.0149891 0.0179527 1.4854e-19)
(-0.00121231 0.0205714 -1.1241e-21)
(0.0284762 0.0195146 -1.96553e-19)
(0.0729833 0.0165322 -1.20739e-19)
(0.131416 0.0130702 -1.14225e-19)
(0.202732 0.0102054 -2.10581e-19)
(0.285494 0.00869071 1.98774e-19)
(0.377683 0.00899266 0)
(0.476628 0.011307 1.23612e-21)
(0.57908 0.0155755 2.45414e-21)
(0.681435 0.0215172 1.46604e-19)
(0.780047 0.0286796 0)
(0.871563 0.0365064 0)
(0.953231 0.0444139 1.63663e-19)
(1.02311 0.0518635 -3.07267e-19)
(1.08018 0.0584206 1.78513e-19)
(1.12434 0.0637906 -1.67595e-19)
(1.15631 0.0678384 -7.24325e-20)
(1.1775 0.070545 -1.28209e-19)
(1.18958 0.0721433 -5.15601e-20)
(1.19478 0.0723934 -9.57229e-20)
(1.19465 0.0731905 1.43636e-19)
(1.19065 0.069609 4.05867e-20)
(-0.00933997 0.00739681 0)
(-0.00607713 0.0119225 0)
(0.0182899 0.012416 6.95559e-20)
(0.0616454 0.0107561 6.42645e-20)
(0.122446 0.00861765 -1.34912e-21)
(0.199129 0.0073905 -1.17263e-19)
(0.289634 0.00802508 0)
(0.391145 0.0110491 -9.88338e-20)
(0.500019 0.016593 9.23024e-20)
(0.611931 0.0244185 1.44932e-22)
(0.722228 0.0339794 -1.56878e-19)
(0.826401 0.0445204 -1.42294e-19)
(0.920567 0.0552007 3.73403e-21)
(1.00184 0.0652206 -1.14221e-19)
(1.06855 0.0739269 2.7683e-19)
(1.1203 0.0808829 0)
(1.15779 0.0858952 -1.73555e-19)
(1.18265 0.0889948 8.45598e-20)
(1.19705 0.0904072 7.23672e-20)
(1.20338 0.0904247 0)
(1.20404 0.0895545 5.76734e-20)
(1.20098 0.0877584 -1.97015e-19)
(1.1958 0.0865887 1.84944e-19)
(1.1901 0.082338 1.14532e-19)
(-0.00623524 0.00491702 -7.67977e-20)
(0.00704347 0.00553885 -7.9294e-20)
(0.0451813 0.00434759 7.19139e-20)
(0.105368 0.00297429 0)
(0.18523 0.00292667 0)
(0.282004 0.00540984 -2.03304e-21)
(0.391974 0.0110467 0)
(0.510369 0.019878 -2.99312e-19)
(0.631599 0.0314254 2.77613e-19)
(0.749792 0.0448007 -3.42413e-19)
(0.859479 0.058875 7.8257e-20)
(0.956245 0.0724797 0)
(1.03717 0.0845957 1.27759e-19)
(1.10104 0.094491 -2.35619e-19)
(1.14818 0.101787 5.60346e-20)
(1.18024 0.106453 1.4036e-19)
(1.19968 0.108739 -7.86054e-21)
(1.20935 0.109081 -1.55536e-19)
(1.21203 0.107989 0)
(1.21017 0.105952 0)
(1.20567 0.103451 -5.39465e-20)
(1.19986 0.100545 4.80536e-20)
(1.1937 0.0983954 1.6963e-19)
(1.18742 0.0937705 -1.5925e-19)
(-0.00148133 0.00228717 -8.05981e-20)
(0.0252538 -0.000737263 -8.03683e-20)
(0.0805766 -0.00268771 2.26179e-19)
(0.160605 -0.00239874 -1.3746e-19)
(0.261569 0.00126989 1.29388e-19)
(0.378802 0.00909079 2.35489e-19)
(0.506297 0.0210451 -1.66125e-19)
(0.637006 0.0363672 -2.01385e-19)
(0.763614 0.0537414 4.45919e-21)
(0.879508 0.0715764 2.57795e-19)
(0.979652 0.0883121 0)
(1.06111 0.102687 7.01455e-20)
(1.12314 0.113906 0)
(1.16691 0.121686 -1.12949e-19)
(1.19495 0.126195 1.58613e-19)
(1.2105 0.127915 1.393e-21)
(1.21692 0.127489 -4.10019e-20)
(1.2172 0.125575 7.58392e-20)
(1.21375 0.122749 6.53773e-20)
(1.20831 0.119451 -5.82919e-20)
(1.20199 0.116 5.3933e-20)
(1.19546 0.112463 -4.80413e-20)
(1.18901 0.10949 0)
(1.18298 0.104697 -3.65968e-20)
(0.00531952 -0.000341569 8.05866e-20)
(0.0493379 -0.00630166 8.43573e-20)
(0.125202 -0.0075957 -7.57246e-20)
(0.227458 -0.00386442 1.40965e-19)
(0.350224 0.00532639 -1.32681e-19)
(0.486227 0.0199361 1.19981e-19)
(0.626806 0.0389229 -5.75054e-20)
(0.762921 0.0604569 1.51261e-19)
(0.886512 0.0823629 -9.48904e-20)
(0.991683 0.102584 1.67287e-19)
(1.07534 0.119553 -3.85314e-19)
(1.1372 0.132394 1.41183e-19)
(1.1792 0.140929 -1.2272e-19)
(1.20474 0.145538 1.1527e-19)
(1.21775 0.146941 9.85449e-20)
(1.22201 0.14598 8.57505e-20)
(1.22069 0.143445 -2.38627e-19)
(1.21617 0.139976 1.47724e-19)
(1.21004 0.136036 -6.53789e-20)
(1.2033 0.131923 1.69746e-19)
(1.19649 0.127816 -5.48233e-20)
(1.18988 0.123761 -1.32606e-19)
(1.18359 0.120108 1.22281e-19)
(1.1777 0.115206 3.65844e-20)
(0.0145236 -0.00272341 0)
(0.0798336 -0.010369 6.12167e-22)
(0.179177 -0.0091404 1.57563e-19)
(0.304939 5.03169e-05 -1.47881e-19)
(0.448393 0.0164494 -1.33358e-19)
(0.599212 0.0387386 2.47795e-19)
(0.746345 0.0645378 -1.15048e-19)
(0.879836 0.0909345 1.5315e-19)
(0.992498 0.115201 -3.47243e-21)
(1.08077 0.135335 -8.65786e-20)
(1.14461 0.150306 1.88256e-19)
(1.18667 0.160016 -2.77359e-19)
(1.21117 0.165059 0)
(1.22273 0.166401 -5.40095e-20)
(1.22558 0.16509 -1.43532e-19)
(1.2231 0.162058 4.52464e-20)
(1.2177 0.158022 1.91791e-21)
(1.21095 0.15348 -9.76057e-20)
(1.20375 0.148743 6.61864e-21)
(1.19661 0.143993 1.12673e-19)
(1.18974 0.139323 -4.98213e-20)
(1.18324 0.134781 -1.89395e-20)
(1.17711 0.130488 5.85467e-20)
(1.17134 0.125459 0)
(0.0263848 -0.00451417 0)
(0.116888 -0.0119909 4.26975e-20)
(0.241849 -0.00601616 -2.05112e-19)
(0.390887 0.0106459 7.4566e-20)
(0.551912 0.0354761 -7.01793e-20)
(0.711684 0.0654631 -6.39823e-20)
(0.857835 0.0968253 -1.13169e-19)
(0.981219 0.125912 5.64783e-20)
(1.07724 0.150045 4.91742e-20)
(1.14578 0.167888 0)
(1.19004 0.179351 1.11428e-19)
(1.21503 0.185231 -1.6532e-19)
(1.22615 0.18676 1.23047e-19)
(1.22818 0.185229 5.40369e-20)
(1.22483 0.181745 -4.39707e-20)
(1.21867 0.177138 -3.64637e-20)
(1.21129 0.171965 -3.39377e-20)
(1.2036 0.166568 1.02112e-19)
(1.19607 0.161141 0)
(1.1889 0.15579 5.08597e-20)
(1.18215 0.150569 4.25406e-20)
(1.17581 0.145508 -1.0588e-19)
(1.16984 0.1406 -7.21468e-20)
(1.16419 0.135422 6.67064e-20)
(0.0410021 -0.00528915 -4.58639e-20)
(0.160145 -0.0101278 -1.59609e-21)
(0.311705 0.00301297 4.16701e-20)
(0.482079 0.0288638 1.16188e-19)
(0.655791 0.0625875 3.37148e-20)
(0.817627 0.0993034 -6.51882e-20)
(0.955662 0.134156 5.96142e-20)
(1.06342 0.163428 -5.23056e-20)
(1.14008 0.185186 9.35374e-20)
(1.18916 0.199207 3.97917e-20)
(1.21644 0.206456 -1.12801e-19)
(1.22822 0.208468 3.3214e-20)
(1.23002 0.206836 5.64581e-20)
(1.22606 0.202911 -2.78337e-20)
(1.21919 0.197683 0)
(1.21115 0.191804 4.11734e-20)
(1.20289 0.185665 6.93521e-20)
(1.19488 0.179486 1.16507e-20)
(1.1873 0.173382 -5.76566e-20)
(1.18023 0.167414 2.40198e-20)
(1.17364 0.161613 0)
(1.16747 0.155988 -1.87899e-20)
(1.16165 0.150487 -1.77421e-20)
(1.1561 0.145088 0)
(0.0582694 -0.00458016 0)
(0.208676 -0.00376467 2.40027e-20)
(0.38641 0.0189408 4.43435e-20)
(0.57455 0.0551257 -1.18246e-19)
(0.754935 0.0972895 3.81329e-20)
(0.912064 0.138911 0)
(1.03644 0.174771 5.73233e-20)
(1.12565 0.201887 -7.99887e-20)
(1.18295 0.219615 -4.66493e-20)
(1.21487 0.228999 2.11129e-20)
(1.22873 0.231911 -3.3502e-20)
(1.23105 0.23034 8.15033e-20)
(1.2268 0.22597 4.06742e-20)
(1.2193 0.220031 -2.83945e-20)
(1.21056 0.213319 -2.76825e-21)
(1.20165 0.206305 -7.69624e-20)
(1.19306 0.199244 3.5e-20)
(1.185 0.19227 -9.0341e-22)
(1.17753 0.18545 0)
(1.17062 0.17882 -2.40447e-20)
(1.16422 0.172396 0)
(1.15824 0.166162 5.41147e-20)
(1.1526 0.160093 -6.4328e-20)
(1.14716 0.154384 2.92851e-20)
(0.0778406 -0.00192081 -1.24532e-20)
(0.260973 0.00796844 -6.02694e-20)
(0.462967 0.0423716 6.84801e-20)
(0.664047 0.0892596 4.02408e-20)
(0.844835 0.138525 -1.92439e-20)
(0.991607 0.18269 3.22781e-20)
(1.09896 0.217099 -1.56957e-20)
(1.16909 0.240201 2.61106e-20)
(1.20889 0.252894 0)
(1.22685 0.257383 5.89865e-20)
(1.23078 0.256159 -2.483e-21)
(1.22673 0.25138 -4.75073e-20)
(1.21878 0.244626 2.02939e-20)
(1.20934 0.236917 -2.28178e-20)
(1.19969 0.228845 -8.60577e-21)
(1.19044 0.220728 1.00358e-20)
(1.18181 0.212724 -7.68591e-21)
(1.17387 0.204909 -4.16622e-20)
(1.16659 0.197325 2.55096e-20)
(1.15991 0.189991 5.19413e-21)
(1.15375 0.182904 4.56312e-21)
(1.148 0.176036 4.01065e-21)
(1.14255 0.169427 0)
(1.13725 0.163298 0)
(0.099189 0.0031173 1.24618e-20)
(0.315151 0.0257042 -1.24638e-20)
(0.538141 0.073427 -2.27981e-20)
(0.746654 0.130523 0)
(0.92211 0.184868 -9.5427e-21)
(1.05453 0.229065 -8.5713e-21)
(1.14356 0.259922 -1.46843e-20)
(1.1958 0.277743 0)
(1.22083 0.284946 0)
(1.22808 0.284626 0)
(1.22507 0.27959 0)
(1.21698 0.271939 0)
(1.20692 0.26304 -1.27097e-20)
(1.19652 0.253683 5.7805e-21)
(1.18655 0.24428 1.00302e-20)
(1.17729 0.235033 4.68926e-21)
(1.16882 0.226032 1.15428e-20)
(1.16112 0.217321 0)
(1.15413 0.208919 -2.74519e-21)
(1.14776 0.200834 -2.62505e-21)
(1.14191 0.193047 -4.57037e-21)
(1.13647 0.185535 -4.01705e-21)
(1.1313 0.178412 0)
(1.12624 0.171749 2.85833e-21)
(-0.00081299 -0.0133972 7.61862e-21)
(-0.00506402 -0.0356067 -7.91204e-21)
(-0.0135844 -0.0540143 -1.49859e-20)
(-0.0243845 -0.068813 0)
(-0.0363276 -0.0804267 -2.006e-20)
(-0.0487939 -0.0894767 6.29884e-21)
(-0.06133 -0.096653 -1.18908e-20)
(-0.0736069 -0.102601 0)
(-0.0854068 -0.107847 0)
(-0.0965933 -0.112755 0)
(-0.107086 -0.117528 0)
(-0.116837 -0.122228 0)
(-0.12582 -0.126804 3.34959e-23)
(-0.134014 -0.131129 -7.80727e-21)
(-0.141401 -0.135018 1.46074e-20)
(-0.147956 -0.138254 2.06179e-20)
(-0.153656 -0.140589 6.35927e-21)
(-0.158476 -0.141758 0)
(-0.162406 -0.141476 5.72542e-21)
(-0.165463 -0.139454 -1.59044e-20)
(-0.167678 -0.13541 -9.83361e-21)
(-0.169059 -0.129056 -9.17251e-21)
(-0.169739 -0.120037 0)
(-0.170556 -0.108055 0)
(-0.000536628 -0.00925857 -2.2883e-20)
(-0.00457927 -0.0258821 3.95018e-20)
(-0.0134073 -0.0406585 -1.48871e-20)
(-0.0247519 -0.053192 -2.83268e-20)
(-0.0373264 -0.0635239 4.00312e-20)
(-0.050436 -0.0720063 -2.52227e-20)
(-0.0635788 -0.0791244 3.56126e-20)
(-0.0763973 -0.0853687 2.24107e-20)
(-0.0886613 -0.0911509 0)
(-0.100233 -0.0967571 -1.98549e-20)
(-0.111035 -0.102339 -2.27372e-23)
(-0.121026 -0.107929 1.7559e-20)
(-0.130185 -0.113466 2.47216e-20)
(-0.138494 -0.11882 3.09083e-20)
(-0.145938 -0.123814 -1.46605e-20)
(-0.152495 -0.128232 -4.08881e-20)
(-0.158139 -0.13183 1.24969e-20)
(-0.162846 -0.13433 -4.72226e-20)
(-0.166607 -0.13542 0)
(-0.169454 -0.134761 1.05172e-20)
(-0.171423 -0.131995 9.82192e-21)
(-0.172436 -0.126737 9.16145e-21)
(-0.172569 -0.118537 0)
(-0.173477 -0.107079 0)
(-0.00078192 -0.00472006 0)
(-0.00510854 -0.0153078 7.92416e-20)
(-0.0142157 -0.0262492 -2.9898e-20)
(-0.0257641 -0.0364716 2.83368e-20)
(-0.0384291 -0.0455679 -8.02675e-20)
(-0.0514988 -0.0535718 0)
(-0.0644579 -0.0607286 -4.76267e-20)
(-0.0769408 -0.0673534 2.24059e-20)
(-0.0887139 -0.073735 -4.22956e-20)
(-0.099639 -0.0800802 1.99288e-20)
(-0.10964 -0.0864948 1.11899e-19)
(-0.118678 -0.09299 -5.25348e-20)
(-0.126732 -0.0995012 -8.19529e-20)
(-0.133784 -0.105906 -3.04111e-20)
(-0.139817 -0.112041 3.40637e-22)
(-0.144804 -0.117704 1.07035e-19)
(-0.148715 -0.122661 -5.00552e-20)
(-0.151512 -0.126634 4.98828e-22)
(-0.153164 -0.129297 0)
(-0.153681 -0.130262 -3.89225e-20)
(-0.153076 -0.12908 0)
(-0.151162 -0.125228 -3.34631e-20)
(-0.147783 -0.118128 1.22366e-19)
(-0.145289 -0.107431 -1.25212e-21)
(-0.00155212 -0.000117043 0)
(-0.00664226 -0.0045928 2.18762e-22)
(-0.0159662 -0.0116692 3.02425e-20)
(-0.0273342 -0.0195968 -2.86211e-20)
(-0.0395012 -0.0275037 2.66795e-20)
(-0.0517979 -0.0350857 1.52348e-19)
(-0.0637322 -0.042333 -4.77647e-20)
(-0.07495 -0.0493746 -4.51921e-20)
(-0.0852224 -0.0563728 8.47804e-20)
(-0.0944114 -0.0634542 -1.19321e-19)
(-0.102439 -0.0706809 3.74721e-20)
(-0.109263 -0.0780469 3.51128e-20)
(-0.114858 -0.0854874 0)
(-0.119206 -0.0928917 3.06518e-20)
(-0.122287 -0.100113 0)
(-0.124076 -0.106974 5.29015e-20)
(-0.124542 -0.113264 -9.74504e-20)
(-0.123645 -0.118732 2.45573e-20)
(-0.121339 -0.123072 8.43339e-20)
(-0.117604 -0.125894 3.88881e-20)
(-0.112446 -0.126695 0)
(-0.105627 -0.124798 -9.46419e-20)
(-0.0965042 -0.119337 3.05182e-20)
(-0.0872252 -0.109602 0)
(-0.00278418 0.00421975 0)
(-0.00904813 0.00556378 -9.6156e-20)
(-0.0184894 0.00221398 -3.07137e-20)
(-0.029263 -0.00349053 -5.74544e-20)
(-0.0403106 -0.0102484 5.41023e-20)
(-0.0510605 -0.0174285 -5.08995e-20)
(-0.061075 -0.0247687 9.63601e-20)
(-0.0700281 -0.0322138 4.52265e-20)
(-0.0777007 -0.039797 -1.27768e-19)
(-0.0839525 -0.0475635 8.00316e-20)
(-0.0886968 -0.0555303 -1.125e-19)
(-0.0918806 -0.0636726 2.46319e-19)
(-0.0934691 -0.0719227 -1.3183e-19)
(-0.0934369 -0.0801772 6.14076e-20)
(-0.0917636 -0.0883031 1.70163e-19)
(-0.0884317 -0.096142 -5.44755e-20)
(-0.0834267 -0.103511 -5.04847e-20)
(-0.0767336 -0.110196 -4.58854e-20)
(-0.0683331 -0.115944 0)
(-0.0582224 -0.120431 -7.3178e-20)
(-0.0464677 -0.123215 -6.32806e-20)
(-0.0329998 -0.123576 9.40543e-20)
(-0.0167848 -0.120201 1.06265e-19)
(0.00237274 -0.111256 -9.89868e-20)
(-0.00435817 0.00800321 0)
(-0.0120831 0.0145401 -1.30214e-19)
(-0.0214936 0.0146121 -6.41366e-22)
(-0.0312335 0.0109921 1.15777e-19)
(-0.0405106 0.00533329 0)
(-0.0488917 -0.00144356 0)
(-0.0560206 -0.00884395 0)
(-0.0616087 -0.0166355 -4.55074e-20)
(-0.0654436 -0.0247252 5.79611e-23)
(-0.0673769 -0.0330769 8.0844e-20)
(-0.0673052 -0.0416589 -1.12743e-19)
(-0.0651535 -0.0504202 2.66614e-22)
(-0.0608663 -0.0592813 0)
(-0.0544044 -0.0681344 -6.13809e-20)
(-0.0457442 -0.0768461 5.62612e-20)
(-0.0348792 -0.0852601 -1.59168e-19)
(-0.0218235 -0.0932003 1.93034e-19)
(-0.00661228 -0.100472 4.05311e-20)
(0.0107024 -0.10686 -5.41394e-21)
(0.0300455 -0.112127 -1.49243e-19)
(0.0512669 -0.115984 -6.53229e-20)
(0.0742336 -0.117914 2.01717e-19)
(0.099714 -0.116503 -1.31558e-19)
(0.131173 -0.108648 0)
(-0.00611515 0.0110174 6.39776e-20)
(-0.0154217 0.0218396 6.52612e-20)
(-0.0245889 0.0248628 -6.26025e-20)
(-0.0328211 0.0231019 -1.17499e-19)
(-0.0396363 0.0184577 1.1064e-19)
(-0.0447625 0.0120841 -1.0446e-19)
(-0.0479359 0.00467593 1.47744e-19)
(-0.048912 -0.00337402 -4.54611e-20)
(-0.0474857 -0.0118557 8.6981e-20)
(-0.0434902 -0.0206502 0)
(-0.0367924 -0.0296724 7.64169e-20)
(-0.0272893 -0.038834 -1.43914e-19)
(-0.0149022 -0.0480329 1.32542e-19)
(0.000417197 -0.057143 -1.24489e-19)
(0.0186824 -0.0660144 0)
(0.039865 -0.0744747 1.05775e-19)
(0.0638884 -0.0823316 1.91599e-19)
(0.0906232 -0.0893779 -1.79822e-19)
(0.119888 -0.0953987 -8.02882e-20)
(0.151456 -0.100182 -6.93567e-20)
(0.184997 -0.103537 1.98204e-19)
(0.220351 -0.105204 5.3275e-20)
(0.256234 -0.104581 -5.33834e-20)
(0.305141 -0.0970749 4.33282e-20)
(-0.00788186 0.0131351 -6.39862e-20)
(-0.0186907 0.0271253 2.00926e-19)
(-0.0273086 0.0324716 -6.33498e-20)
(-0.0334971 0.0322393 1.19082e-19)
(-0.0370895 0.0284655 -1.12129e-19)
(-0.0379789 0.022471 6.28298e-22)
(-0.0359963 0.0151081 5.00227e-20)
(-0.0309393 0.00690448 1.88141e-19)
(-0.0226066 -0.00182157 -2.79876e-22)
(-0.0108152 -0.0108699 -8.22531e-20)
(0.00459454 -0.020093 0)
(0.0237435 -0.0293583 -7.1804e-20)
(0.0467043 -0.0385284 1.34865e-19)
(0.0734927 -0.0474471 1.23713e-19)
(0.10405 -0.0559383 -5.84402e-20)
(0.138233 -0.0638051 1.43204e-22)
(0.17581 -0.0708341 -4.85637e-20)
(0.216456 -0.0768028 8.84414e-20)
(0.259756 -0.0814895 8.02612e-20)
(0.305254 -0.0846726 -7.22311e-20)
(0.352163 -0.0862443 6.40221e-20)
(0.401316 -0.0856603 -5.65655e-20)
(0.445455 -0.0843232 0)
(0.514107 -0.0746542 -4.32508e-20)
(-0.0094951 0.0143243 6.57243e-20)
(-0.0215046 0.0302389 -6.73138e-20)
(-0.0291315 0.037143 6.45493e-20)
(-0.0326299 0.0379957 0)
(-0.0321202 0.0348709 0)
(-0.0276473 0.0291901 1.08352e-19)
(-0.0191307 0.0219187 -1.00718e-19)
(-0.00640944 0.0136916 9.49979e-20)
(0.0107066 0.00492181 -4.44446e-19)
(0.0324011 -0.0041095 3.26456e-22)
(0.0588204 -0.013188 7.81133e-20)
(0.0900442 -0.02213 0)
(0.126057 -0.0307534 -1.34299e-19)
(0.166726 -0.0388689 2.5039e-19)
(0.211785 -0.046275 -1.74418e-19)
(0.260821 -0.0527611 -2.62992e-19)
(0.313281 -0.0581145 5.67968e-21)
(0.368483 -0.0621291 1.7932e-19)
(0.425628 -0.0646258 0)
(0.484003 -0.0653754 0)
(0.541902 -0.064611 -6.40084e-20)
(0.602237 -0.0608671 5.65527e-20)
(0.650178 -0.0582602 -1.90582e-19)
(0.731448 -0.0453682 1.78863e-19)
(-0.0108192 0.0146385 0)
(-0.0234869 0.0311963 0)
(-0.0294864 0.0387967 -1.94712e-19)
(-0.0294649 0.0401962 6.18081e-20)
(-0.0237798 0.0374319 1.06202e-22)
(-0.0126044 0.0319716 1.09701e-19)
(0.00406081 0.0248529 0)
(0.0263256 0.0167924 -9.60083e-20)
(0.0543378 0.0082856 8.92566e-20)
(0.0882195 -0.00030969 -1.67898e-19)
(0.128009 -0.00871481 5.73162e-22)
(0.173609 -0.016692 1.45297e-19)
(0.224744 -0.024022 -1.7393e-21)
(0.280934 -0.0304959 1.2237e-19)
(0.341484 -0.0359151 -1.75951e-19)
(0.405498 -0.0400975 0)
(0.471909 -0.0428857 1.90584e-19)
(0.539533 -0.0441547 -2.6702e-19)
(0.607094 -0.0438465 7.88726e-20)
(0.673594 -0.0417766 0)
(0.736714 -0.0385768 6.3068e-20)
(0.800156 -0.0321959 2.17997e-19)
(0.847038 -0.028307 -2.04589e-19)
(0.925149 -0.0136084 -2.12643e-19)
(-0.01175 0.014192 2.04262e-19)
(-0.0242688 0.0301616 -2.81327e-19)
(-0.027733 0.0375713 2.78639e-22)
(-0.0230832 0.0389444 6.27845e-20)
(-0.0108598 0.0362423 -1.17582e-19)
(0.00865828 0.0309426 -1.09078e-19)
(0.0353843 0.0241249 2.0549e-19)
(0.0693363 0.0165654 -1.45677e-21)
(0.110535 0.00882668 -1.81015e-19)
(0.158905 0.00132962 3.36984e-19)
(0.214185 -0.00559691 -1.57148e-21)
(0.275865 -0.011686 -1.47225e-19)
(0.343138 -0.0167186 0)
(0.414903 -0.0205201 0)
(0.48979 -0.0229636 -5.77869e-20)
(0.566227 -0.0239754 -1.05048e-19)
(0.64253 -0.0235372 -1.89023e-19)
(0.717012 -0.0216906 1.77434e-19)
(0.788078 -0.0185337 -7.89001e-20)
(0.854431 -0.0141295 1.37321e-19)
(0.91442 -0.00901013 -6.97152e-20)
(0.969888 -0.00190588 1.02541e-19)
(1.0105 0.00268718 -2.53166e-19)
(1.06913 0.0161475 4.34235e-20)
(-0.0121946 0.0131247 6.9085e-20)
(-0.0234491 0.0274028 0)
(-0.0231037 0.0338071 1.3438e-19)
(-0.0123272 0.0346499 -1.2659e-19)
(0.00819512 0.0318079 1.17686e-19)
(0.0380795 0.0267495 0)
(0.0771067 0.0205733 0)
(0.125095 0.0140913 -9.70188e-20)
(0.181758 0.00790614 1.20391e-21)
(0.246568 0.00246652 8.55678e-20)
(0.318655 -0.00189873 -7.80576e-20)
(0.396754 -0.00496253 1.47403e-19)
(0.479211 -0.00659236 0)
(0.564051 -0.00674754 2.46903e-19)
(0.649093 -0.00547553 -4.57816e-19)
(0.732103 -0.00290433 3.17283e-19)
(0.810953 0.000774633 1.86589e-19)
(0.883762 0.00530824 -1.75157e-19)
(0.949058 0.0104697 0)
(1.00571 0.0158707 0)
(1.05342 0.0215048 0)
(1.09202 0.0268462 0)
(1.12055 0.0313091 4.92755e-20)
(1.15081 0.0390943 -1.71425e-19)
(-0.172949 -0.0910845 -5.86536e-21)
(-0.173491 -0.0661145 5.88601e-21)
(-0.172509 -0.0343559 -1.68238e-22)
(-0.169951 0.00427685 0)
(-0.165637 0.0497382 -5.25781e-21)
(-0.15934 0.101165 1.01196e-20)
(-0.150768 0.157376 -1.43007e-22)
(-0.139845 0.216618 -4.59402e-21)
(-0.126605 0.276614 0)
(-0.11115 0.334338 0)
(-0.093565 0.386649 -2.10051e-22)
(-0.0734964 0.429857 -1.95312e-22)
(-0.0498088 0.46011 -3.1491e-21)
(-0.0205176 0.472991 2.88174e-21)
(0.0167631 0.463474 0)
(0.0637855 0.426721 0)
(0.120805 0.360267 2.93933e-21)
(0.185793 0.265264 1.56979e-22)
(0.255218 0.146229 -2.731e-21)
(0.325454 0.00940878 -1.94197e-22)
(0.394839 -0.135907 0)
(0.461281 -0.274427 0)
(0.520003 -0.387982 0)
(0.565408 -0.464247 0)
(0.594607 -0.501881 0)
(0.608619 -0.508813 0)
(0.605327 -0.502757 3.22608e-22)
(0.577073 -0.504933 -5.1793e-22)
(0.526126 -0.516001 0)
(0.477073 -0.500827 0)
(0.461563 -0.414027 -5.56263e-22)
(0.489407 -0.246597 5.40623e-22)
(0.546954 -0.0361993 2.78283e-22)
(0.614681 0.164176 0)
(0.674417 0.317087 0)
(0.717954 0.409273 3.35738e-22)
(0.74792 0.445375 -3.26349e-22)
(0.759088 0.455904 0)
(0.736244 0.476494 2.45078e-22)
(0.68485 0.497756 -3.65878e-22)
(0.637466 0.45828 1.48727e-22)
(0.627146 0.313894 0)
(0.653113 0.0935787 -3.46277e-22)
(0.696396 -0.12744 3.36706e-22)
(0.740178 -0.283217 0)
(0.77929 -0.363777 0)
(0.785264 -0.401948 -7.89066e-23)
(0.753476 -0.435299 2.16152e-22)
(0.697469 -0.427038 0)
(0.656535 -0.340454 0)
(0.649949 -0.165299 -7.34688e-23)
(0.678733 0.0291645 7.33793e-24)
(0.717001 0.177258 -7.79728e-24)
(0.749203 0.28646 4.37616e-23)
(0.725814 0.32733 0)
(0.696361 0.364942 0)
(0.668592 0.262579 0)
(0.667414 0.157467 0)
(0.705873 -0.00546156 0)
(0.750464 -0.121518 0)
(-0.17873 -0.09072 -5.10152e-22)
(-0.181355 -0.0674511 -2.10505e-20)
(-0.182252 -0.0375998 5.08061e-22)
(-0.181651 -0.00133472 1.92982e-20)
(-0.179213 0.0415961 2.68688e-22)
(-0.174549 0.0903672 0)
(-0.166889 0.143869 -1.61248e-20)
(-0.155702 0.200505 3.12599e-20)
(-0.140625 0.258177 -1.51342e-20)
(-0.121179 0.313661 1.33969e-20)
(-0.0969927 0.364029 -1.28113e-20)
(-0.0673866 0.404758 1.18103e-20)
(-0.0312629 0.431761 -1.14551e-20)
(0.0125805 0.440515 -3.53833e-22)
(0.0651373 0.426122 -1.18946e-20)
(0.126531 0.384803 1.15586e-20)
(0.19537 0.315274 -1.29252e-20)
(0.268451 0.219207 1.21397e-20)
(0.342058 0.100764 -1.35424e-20)
(0.413745 -0.0347617 2.59861e-20)
(0.482587 -0.178212 -1.24612e-20)
(0.545787 -0.313421 -6.94783e-22)
(0.597721 -0.420418 -8.16117e-21)
(0.633138 -0.487032 1.43167e-20)
(0.65021 -0.514447 -6.20592e-21)
(0.652116 -0.511787 2.66158e-22)
(0.641157 -0.494306 3.39379e-21)
(0.610505 -0.483521 -1.04151e-22)
(0.555557 -0.487991 -5.91707e-21)
(0.493539 -0.480557 6.25519e-21)
(0.458202 -0.412978 -3.23421e-21)
(0.468505 -0.264526 4.51758e-22)
(0.515779 -0.0652037 -2.78852e-22)
(0.579839 0.13338 4.50556e-22)
(0.641497 0.291547 0)
(0.692229 0.391037 0)
(0.730791 0.43557 -1.09202e-21)
(0.746965 0.457619 8.081e-22)
(0.726494 0.489604 7.89796e-22)
(0.67949 0.514768 2.87517e-22)
(0.641119 0.468688 -1.2883e-21)
(0.640775 0.312949 3.85203e-22)
(0.67381 0.08397 0)
(0.718742 -0.140517 0)
(0.758199 -0.29586 0)
(0.792542 -0.37056 0)
(0.796012 -0.398422 3.37278e-22)
(0.763217 -0.42336 -1.39535e-22)
(0.704792 -0.414083 0)
(0.661716 -0.333994 0)
(0.650939 -0.168143 0)
(0.678338 0.0204983 -1.0389e-22)
(0.71536 0.168865 2.12382e-23)
(0.743484 0.285433 -9.97865e-23)
(0.719006 0.332921 0)
(0.686618 0.371029 0)
(0.666404 0.265018 5.97796e-23)
(0.667611 0.153781 1.82689e-22)
(0.708638 -0.0132965 0)
(0.756496 -0.126186 0)
(-0.150098 -0.0918096 -7.60111e-22)
(-0.153989 -0.0705123 -3.87535e-20)
(-0.155414 -0.0426226 3.60728e-20)
(-0.155312 -0.00877279 -3.37826e-20)
(-0.153251 0.0312025 -2.70537e-22)
(-0.148987 0.0769314 0)
(-0.141293 0.127104 -2.82643e-20)
(-0.129084 0.180266 2.76289e-20)
(-0.111931 0.234967 2.13677e-22)
(-0.0886909 0.287118 3.49845e-22)
(-0.0589164 0.333894 3.38497e-22)
(-0.02213 0.371161 3.641e-22)
(0.0231988 0.394802 -2.27636e-20)
(0.0772652 0.400071 2.24773e-20)
(0.139731 0.382524 0)
(0.209635 0.339191 7.93481e-22)
(0.284648 0.2694 -2.76469e-20)
(0.361271 0.175013 2.72842e-20)
(0.436112 0.0595923 0)
(0.507496 -0.0726033 0)
(0.574615 -0.212798 -2.57465e-20)
(0.633486 -0.343557 4.69126e-20)
(0.677342 -0.443644 -3.78287e-20)
(0.701789 -0.501198 3.8805e-21)
(0.706791 -0.519683 2.25896e-20)
(0.696687 -0.510055 -1.7776e-20)
(0.677214 -0.484765 1.33136e-20)
(0.64459 -0.462503 -9.93933e-22)
(0.589163 -0.458045 -5.22114e-21)
(0.518733 -0.455031 0)
(0.465414 -0.406359 0)
(0.457018 -0.279719 2.61165e-21)
(0.491673 -0.0942076 -3.33607e-21)
(0.550123 0.100597 -7.07598e-23)
(0.612805 0.262514 2.7319e-21)
(0.669969 0.369007 -2.65492e-21)
(0.715903 0.423076 0)
(0.73636 0.457735 2.5443e-22)
(0.718695 0.501136 2.44011e-21)
(0.677112 0.529794 -5.23485e-21)
(0.648029 0.47751 2.45778e-21)
(0.65702 0.311661 4.47457e-22)
(0.696884 0.0755575 -4.18525e-21)
(0.743809 -0.151094 3.20972e-21)
(0.778821 -0.30596 6.30821e-22)
(0.807546 -0.375959 4.61931e-22)
(0.80838 -0.394367 -3.38118e-22)
(0.774715 -0.411115 0)
(0.714002 -0.401142 0)
(0.66962 -0.327769 -8.24237e-22)
(0.655292 -0.171326 4.19766e-22)
(0.68092 0.0115993 -3.77841e-22)
(0.7156 0.160779 5.71609e-22)
(0.738894 0.284839 6.89538e-22)
(0.713545 0.338811 -1.74632e-22)
(0.678248 0.376762 3.00972e-22)
(0.665596 0.266622 -2.79366e-22)
(0.67033 0.14969 1.66418e-22)
(0.713859 -0.0214906 0)
(0.763557 -0.13111 0)
(-0.0894017 -0.0941704 -7.28133e-20)
(-0.0947622 -0.0752317 3.67654e-21)
(-0.0961363 -0.0495009 6.53982e-20)
(-0.0960638 -0.0182178 -5.02009e-22)
(-0.0935662 0.0188197 0)
(-0.0886138 0.0614412 0)
(-0.0803356 0.107765 -4.83609e-20)
(-0.066517 0.156935 9.14812e-22)
(-0.0474921 0.206849 6.61392e-20)
(-0.0223489 0.254771 -3.02952e-22)
(0.0110142 0.297444 -2.09162e-20)
(0.0527557 0.331395 -2.07154e-20)
(0.103621 0.352145 2.07354e-20)
(0.163222 0.354901 0)
(0.230638 0.335864 -2.53534e-20)
(0.304175 0.292635 2.30209e-20)
(0.38112 0.224881 0)
(0.458074 0.134363 0)
(0.532148 0.0235546 2.99471e-20)
(0.602383 -0.104175 -3.94845e-22)
(0.667572 -0.240291 -2.70378e-20)
(0.721881 -0.365913 -2.28644e-20)
(0.757116 -0.458896 2.27322e-20)
(0.769966 -0.50805 -1.40689e-20)
(0.763058 -0.518674 3.39909e-21)
(0.741687 -0.503823 9.87765e-21)
(0.713199 -0.474153 8.08846e-22)
(0.678079 -0.443218 2.84503e-23)
(0.624935 -0.428161 0)
(0.551452 -0.424789 4.45822e-21)
(0.483379 -0.392802 -4.58349e-21)
(0.455563 -0.290335 3.70119e-22)
(0.47555 -0.122316 0)
(0.52655 0.0663498 -3.84704e-22)
(0.589059 0.230375 4.76883e-21)
(0.651364 0.343577 -8.37835e-21)
(0.703176 0.408034 -3.84532e-22)
(0.727231 0.45591 -1.98717e-22)
(0.71285 0.510494 3.48707e-21)
(0.677501 0.542447 5.83406e-22)
(0.65767 0.484897 -6.47327e-21)
(0.675323 0.310486 5.45155e-21)
(0.721666 0.06877 -5.35633e-23)
(0.770961 -0.159287 2.99305e-21)
(0.801841 -0.313602 -3.54248e-21)
(0.824183 -0.380075 -3.05125e-21)
(0.8221 -0.390045 9.21928e-22)
(0.787731 -0.398692 8.98204e-22)
(0.724793 -0.388139 -1.6378e-21)
(0.679679 -0.321717 1.13718e-21)
(0.662497 -0.174737 -3.88235e-22)
(0.686072 0.00265411 3.71021e-22)
(0.717493 0.153149 3.08575e-22)
(0.735464 0.284682 -9.907e-22)
(0.709398 0.344957 -3.56439e-26)
(0.671468 0.382147 -3.26896e-22)
(0.666171 0.267329 0)
(0.675345 0.145119 -1.4518e-22)
(0.721507 -0.0299069 3.37954e-22)
(0.77173 -0.136152 0)
(0.00335164 -0.0967002 6.77871e-20)
(-0.0053534 -0.0798466 -1.28229e-19)
(-0.00805005 -0.0575551 5.99227e-20)
(-0.00882152 -0.0294073 5.13708e-20)
(-0.00630406 0.00433374 -9.76537e-20)
(-0.00143909 0.0424523 1.83154e-21)
(0.00681386 0.0845846 4.36473e-20)
(0.0209233 0.12949 3.96887e-20)
(0.0410048 0.174437 -3.88964e-20)
(0.0678657 0.218348 0)
(0.102978 0.257527 -3.87709e-20)
(0.146738 0.288372 7.81378e-20)
(0.19948 0.30654 -3.93614e-20)
(0.260683 0.307825 0)
(0.329095 0.288824 0)
(0.402688 0.247438 8.21421e-22)
(0.478709 0.18338 -5.89995e-20)
(0.553966 0.0980234 5.73078e-20)
(0.626404 -0.00707851 0)
(0.695569 -0.129536 6.06955e-20)
(0.759038 -0.260683 -1.10412e-19)
(0.808576 -0.380065 9.70333e-20)
(0.834771 -0.465375 -8.14809e-20)
(0.835751 -0.506962 7.56307e-21)
(0.817292 -0.511442 4.80389e-20)
(0.78612 -0.493032 -2.0411e-20)
(0.749252 -0.461784 -4.00649e-22)
(0.710665 -0.425974 -4.0255e-21)
(0.660932 -0.400923 5.65034e-22)
(0.589479 -0.392657 3.54196e-21)
(0.511609 -0.372746 2.54558e-22)
(0.464722 -0.29493 -4.27448e-21)
(0.468176 -0.147991 8.6724e-21)
(0.510064 0.0313644 -4.8819e-21)
(0.570827 0.195584 0)
(0.636424 0.315041 -4.30658e-21)
(0.692392 0.390372 4.16631e-21)
(0.719434 0.451657 -3.59994e-21)
(0.708869 0.517085 4.47047e-21)
(0.680378 0.552501 -6.21357e-22)
(0.66958 0.49107 0)
(0.695303 0.309857 -9.38528e-22)
(0.747658 0.06316 2.9317e-21)
(0.799617 -0.165268 0)
(0.826931 -0.318631 6.10565e-21)
(0.842276 -0.382682 -2.65761e-21)
(0.83692 -0.385461 6.72098e-22)
(0.802107 -0.386159 4.53511e-22)
(0.736982 -0.375113 0)
(0.691279 -0.315889 0)
(0.671869 -0.178357 -8.86851e-22)
(0.693279 -0.00623547 1.38232e-21)
(0.720797 0.146057 -8.2867e-22)
(0.733195 0.284926 2.74663e-22)
(0.706512 0.351286 6.0562e-22)
(0.666491 0.387177 3.27212e-22)
(0.668115 0.267124 -7.22905e-22)
(0.682321 0.139964 0)
(0.731404 -0.03846 -5.04839e-22)
(0.781029 -0.141196 -1.28235e-22)
(0.132328 -0.0965693 6.48382e-20)
(0.118758 -0.0820656 -6.42786e-20)
(0.110478 -0.0641637 4.4679e-22)
(0.106036 -0.0404364 -3.74293e-22)
(0.104714 -0.0113633 3.68266e-22)
(0.107138 0.0218956 -3.4023e-22)
(0.114203 0.0597795 5.64544e-22)
(0.126809 0.100203 0)
(0.145985 0.141192 -5.1359e-22)
(0.172454 0.181024 5.11276e-22)
(0.207054 0.216525 5.25627e-22)
(0.250236 0.24428 -5.95752e-22)
(0.302106 0.260413 0)
(0.362059 0.261158 0)
(0.428742 0.243386 7.35111e-22)
(0.500127 0.205046 0)
(0.573673 0.145628 -8.7559e-22)
(0.646584 0.0660523 0)
(0.717467 -0.0328207 -5.99719e-20)
(0.785875 -0.14943 1.17485e-19)
(0.847543 -0.274399 -1.09573e-19)
(0.891618 -0.386223 5.2169e-20)
(0.908273 -0.463417 3.66099e-20)
(0.897623 -0.498501 -3.55513e-20)
(0.868323 -0.498911 -2.1317e-20)
(0.828928 -0.478591 2.05237e-20)
(0.785208 -0.447577 0)
(0.742398 -0.410364 2.69661e-22)
(0.695595 -0.377555 0)
(0.630042 -0.361274 0)
(0.548591 -0.34737 5.27363e-21)
(0.484897 -0.292336 -5.38537e-21)
(0.470049 -0.169676 3.38249e-22)
(0.500931 -0.00339661 4.97308e-22)
(0.558154 0.15871 -3.62001e-22)
(0.62487 0.283666 -3.29365e-21)
(0.68324 0.36995 3.19811e-21)
(0.712755 0.444446 -4.39805e-21)
(0.706479 0.520396 3.81734e-21)
(0.685293 0.559929 1.2557e-21)
(0.683324 0.496359 -7.16796e-21)
(0.71652 0.309892 -2.10695e-21)
(0.774497 0.0591311 5.82225e-21)
(0.829347 -0.169114 0)
(0.853719 -0.321045 -2.82299e-21)
(0.861664 -0.383641 2.37208e-21)
(0.852546 -0.380684 -3.25709e-21)
(0.817579 -0.373619 -4.56378e-22)
(0.750423 -0.361979 0)