/*--------------------------------*- C++ -*----------------------------------*\
| =========                 |                                                 |
| \\      /  F ield         | OpenFOAM: The Open Source CFD Toolbox           |
|  \\    /   O peration     | Version:  2512                                  |
|   \\  /    A nd           | Website:  www.openfoam.com                      |
|    \\/     M anipulation  |                                                 |
\*---------------------------------------------------------------------------*/
FoamFile
{
    version     2.0;
    format      ascii;
    arch        "LSB;label=32;scalar=64";
    class       volScalarField;
    location    "30";
    object      p;
}
// * * * * * * * * * * * * * * * * * * * * * * * * * * * * * * * * * * * * * //

dimensions      [0 2 -2 0 0 0 0];

internalField   nonuniform List<scalar> 
13248
(
-0.287131
-0.285684
-0.283658
-0.281222
-0.278572
-0.275897
-0.27334
-0.270987
-0.268882
-0.267026
-0.265385
-0.263898
-0.262482
-0.261045
-0.25949
-0.257727
-0.255679
-0.253291
-0.250521
-0.247385
-0.243805
-0.240004
-0.23536
-0.230921
-0.293926
-0.291868
-0.289235
-0.286207
-0.28298
-0.279759
-0.276683
-0.273823
-0.271198
-0.268778
-0.266495
-0.264261
-0.261975
-0.259537
-0.256861
-0.25388
-0.250551
-0.246857
-0.242802
-0.238405
-0.233676
-0.228667
-0.22324
-0.218071
-0.30215
-0.299294
-0.295937
-0.29225
-0.288403
-0.284598
-0.280955
-0.277513
-0.274246
-0.271085
-0.267932
-0.264685
-0.261249
-0.25755
-0.253542
-0.24921
-0.244565
-0.23964
-0.234476
-0.229125
-0.223597
-0.217973
-0.212152
-0.206596
-0.311956
-0.30811
-0.303916
-0.299504
-0.294984
-0.29053
-0.286221
-0.28204
-0.27791
-0.273729
-0.269394
-0.26482
-0.259959
-0.254794
-0.249347
-0.243663
-0.237804
-0.231832
-0.225804
-0.21976
-0.213717
-0.207727
-0.201698
-0.19611
-0.323426
-0.318415
-0.313282
-0.308081
-0.302814
-0.297597
-0.292443
-0.287269
-0.281961
-0.276413
-0.27056
-0.264383
-0.25791
-0.251205
-0.244353
-0.23744
-0.230547
-0.223733
-0.217038
-0.210481
-0.204065
-0.197808
-0.191654
-0.185937
-0.336562
-0.330238
-0.324089
-0.318036
-0.311912
-0.305741
-0.299459
-0.292933
-0.286049
-0.278759
-0.271086
-0.263112
-0.254956
-0.246747
-0.238604
-0.23062
-0.222858
-0.215354
-0.208118
-0.201149
-0.194432
-0.187961
-0.181691
-0.175863
-0.351252
-0.34352
-0.336302
-0.329314
-0.322157
-0.314738
-0.306929
-0.298602
-0.289716
-0.280345
-0.27064
-0.260794
-0.250994
-0.241395
-0.23211
-0.223205
-0.214711
-0.20663
-0.198945
-0.191632
-0.184663
-0.178013
-0.171653
-0.165712
-0.367233
-0.358058
-0.349736
-0.341692
-0.333233
-0.324154
-0.314325
-0.303715
-0.292443
-0.280752
-0.268933
-0.257253
-0.245924
-0.235083
-0.224804
-0.215111
-0.205994
-0.197422
-0.189356
-0.181755
-0.174579
-0.167789
-0.161364
-0.155333
-0.384054
-0.37347
-0.364012
-0.354722
-0.344584
-0.333336
-0.320964
-0.307642
-0.29372
-0.279621
-0.265733
-0.252349
-0.239652
-0.227729
-0.216598
-0.206234
-0.196589
-0.187607
-0.179228
-0.171396
-0.164061
-0.157177
-0.150719
-0.144632
-0.401038
-0.389144
-0.378496
-0.367681
-0.355396
-0.341443
-0.326069
-0.309752
-0.293093
-0.276652
-0.260853
-0.245954
-0.232071
-0.219225
-0.207373
-0.196448
-0.18637
-0.177057
-0.168436
-0.160436
-0.152997
-0.14607
-0.139606
-0.133503
-0.417289
-0.404223
-0.392284
-0.379579
-0.364635
-0.347496
-0.328806
-0.309397
-0.29008
-0.271482
-0.253992
-0.237791
-0.22291
-0.209297
-0.196859
-0.185487
-0.175076
-0.165526
-0.156747
-0.148658
-0.141188
-0.134281
-0.127857
-0.121804
-0.431765
-0.417712
-0.404354
-0.389347
-0.371235
-0.350505
-0.328308
-0.305828
-0.284018
-0.263494
-0.244556
-0.227277
-0.211597
-0.197393
-0.184524
-0.172847
-0.162234
-0.152566
-0.143742
-0.135669
-0.128272
-0.121481
-0.115187
-0.109324
-0.248663
-0.250575
-0.251808
-0.252652
-0.253368
-0.254021
-0.254643
-0.255254
-0.255862
-0.256466
-0.257061
-0.25764
-0.258194
-0.258714
-0.259191
-0.259619
-0.259991
-0.260304
-0.26056
-0.260765
-0.26093
-0.261077
-0.261259
-0.261572
-0.249996
-0.251741
-0.252875
-0.253659
-0.254333
-0.254962
-0.255576
-0.256197
-0.256832
-0.257484
-0.258147
-0.258816
-0.259484
-0.260143
-0.260787
-0.261407
-0.261999
-0.262555
-0.263074
-0.263559
-0.264015
-0.264447
-0.264898
-0.265562
-0.251993
-0.253489
-0.254468
-0.255153
-0.255751
-0.256324
-0.256901
-0.257504
-0.258142
-0.258816
-0.259522
-0.260257
-0.261014
-0.261787
-0.262568
-0.263348
-0.264118
-0.264867
-0.265586
-0.266268
-0.266911
-0.267486
-0.267993
-0.268822
-0.254494
-0.255685
-0.256466
-0.257013
-0.257497
-0.257975
-0.258477
-0.259024
-0.259626
-0.260285
-0.260998
-0.261761
-0.262568
-0.263414
-0.264288
-0.265182
-0.266081
-0.266967
-0.26782
-0.26862
-0.269355
-0.269972
-0.270354
-0.270874
-0.257328
-0.258188
-0.258741
-0.259113
-0.25944
-0.259776
-0.260153
-0.260594
-0.261109
-0.261701
-0.262369
-0.263109
-0.263915
-0.264779
-0.265693
-0.266644
-0.267614
-0.268578
-0.269506
-0.270361
-0.271112
-0.271681
-0.271871
-0.272095
-0.260338
-0.260875
-0.261179
-0.26134
-0.261463
-0.261602
-0.261795
-0.262068
-0.262434
-0.262897
-0.263458
-0.264112
-0.264853
-0.265675
-0.266565
-0.267509
-0.268485
-0.269464
-0.270405
-0.271259
-0.271968
-0.272448
-0.27248
-0.271913
-0.263417
-0.26366
-0.263707
-0.26362
-0.263487
-0.26337
-0.263314
-0.263348
-0.263496
-0.263762
-0.264148
-0.264651
-0.265264
-0.265977
-0.266779
-0.26765
-0.268564
-0.269487
-0.270371
-0.271153
-0.271762
-0.272055
-0.272135
-0.270384
-0.266529
-0.266518
-0.266301
-0.265929
-0.265489
-0.265053
-0.264679
-0.26441
-0.264271
-0.264275
-0.264424
-0.264716
-0.265143
-0.265693
-0.266348
-0.267086
-0.267874
-0.26867
-0.269417
-0.27004
-0.270499
-0.270424
-0.270767
-0.267857
-0.269723
-0.269492
-0.269001
-0.268306
-0.267506
-0.266694
-0.265944
-0.265311
-0.264829
-0.264517
-0.264381
-0.264417
-0.264614
-0.264955
-0.265418
-0.265966
-0.26656
-0.267147
-0.267668
-0.268016
-0.268269
-0.267704
-0.268238
-0.264714
-0.27314
-0.272701
-0.271911
-0.270851
-0.269643
-0.268405
-0.267232
-0.266192
-0.265328
-0.264666
-0.264211
-0.263957
-0.263887
-0.263973
-0.264178
-0.264453
-0.264743
-0.264987
-0.26513
-0.265054
-0.26494
-0.263963
-0.264303
-0.260877
-0.276999
-0.276321
-0.275188
-0.273714
-0.272052
-0.270348
-0.268717
-0.26724
-0.265967
-0.264927
-0.264121
-0.263535
-0.263138
-0.262883
-0.262714
-0.262563
-0.26236
-0.262034
-0.26153
-0.260784
-0.259939
-0.258576
-0.25826
-0.255434
-0.281573
-0.280574
-0.279031
-0.277088
-0.274929
-0.272727
-0.270614
-0.26868
-0.266982
-0.265539
-0.264341
-0.263357
-0.262532
-0.261797
-0.261071
-0.260269
-0.259305
-0.25811
-0.25662
-0.25483
-0.252734
-0.250454
-0.248558
-0.24634
-0.262125
-0.262634
-0.263204
-0.263749
-0.26427
-0.264724
-0.265038
-0.265126
-0.264884
-0.26419
-0.262901
-0.260854
-0.257862
-0.253716
-0.248183
-0.241011
-0.231909
-0.220568
-0.206705
-0.190101
-0.1707
-0.148775
-0.124701
-0.099139
-0.0729955
-0.047681
-0.0243037
-0.00384116
0.0130806
0.0262452
0.0358687
0.0421981
0.0458241
0.0472653
0.0470685
0.0456786
0.0434528
0.0407042
0.0376526
0.0344838
0.0313059
0.0281792
0.025349
0.0226743
0.0202096
0.0179566
0.0159138
0.0140924
0.0124275
0.010915
0.00952249
0.00825296
0.00707563
0.0060116
0.00500425
0.004092
0.00316668
0.00232262
0.00137561
0.000548996
-0.266851
-0.267737
-0.268641
-0.269499
-0.270238
-0.270776
-0.271025
-0.270869
-0.270176
-0.268799
-0.266577
-0.263339
-0.258903
-0.253085
-0.245714
-0.236622
-0.225644
-0.21263
-0.197465
-0.180095
-0.160578
-0.139154
-0.1162
-0.0922464
-0.0681173
-0.0450584
-0.0236873
-0.00483896
0.0109667
0.0235177
0.0329942
0.0394273
0.043387
0.0453024
0.0455719
0.044607
0.0427506
0.0403061
0.0374931
0.0345017
0.0314461
0.0284233
0.0255957
0.0229226
0.020436
0.0181499
0.0160686
0.0142196
0.0125206
0.0109855
0.00957156
0.00829032
0.00710209
0.0060354
0.00502403
0.00411239
0.00318388
0.00233842
0.00138601
0.000555131
-0.271196
-0.272313
-0.273505
-0.274633
-0.275565
-0.276205
-0.276427
-0.276097
-0.27506
-0.273152
-0.2702
-0.266027
-0.260452
-0.253311
-0.244481
-0.233868
-0.221406
-0.20707
-0.190879
-0.172916
-0.153341
-0.132441
-0.110597
-0.0882536
-0.0661156
-0.044668
-0.0248906
-0.00737292
0.00753998
0.0197288
0.0291368
0.0360122
0.040478
0.04293
0.043727
0.0432336
0.0417782
0.0396614
0.0371088
0.0343171
0.0314101
0.028504
0.0257212
0.0230735
0.0205837
0.0182764
0.0161712
0.0143101
0.0125836
0.0110313
0.00959996
0.00831007
0.00711312
0.00604592
0.00503243
0.0041236
0.00319397
0.00234907
0.0013935
0.000558806
-0.27513
-0.275918
-0.277381
-0.278731
-0.279824
-0.280548
-0.280758
-0.280304
-0.279018
-0.276723
-0.273243
-0.268399
-0.26201
-0.253932
-0.24409
-0.232442
-0.218997
-0.203816
-0.18702
-0.168783
-0.149324
-0.129065
-0.108078
-0.0869821
-0.0665152
-0.0468506
-0.0284714
-0.0117943
0.00281668
0.0150827
0.0247742
0.0320907
0.037139
0.0401895
0.0415528
0.0415615
0.0405285
0.0387581
0.0364861
0.0339159
0.0311824
0.0284112
0.0257062
0.0231107
0.0206418
0.0183968
0.01621
0.0143583
0.0126136
0.0110511
0.00960767
0.0083125
0.00710948
0.00604356
0.0050298
0.00412553
0.00319686
0.00235426
0.00139793
0.00055985
-0.277104
-0.278791
-0.28008
-0.281506
-0.282748
-0.283558
-0.283766
-0.283232
-0.281782
-0.279227
-0.275386
-0.270082
-0.26316
-0.254511
-0.244077
-0.231856
-0.217905
-0.202345
-0.185358
-0.167171
-0.148059
-0.12836
-0.10837
-0.088456
-0.0690443
-0.050448
-0.0329862
-0.0169496
-0.00261427
0.00973769
0.0198582
0.0277319
0.0334082
0.0370831
0.03903
0.0395619
0.0389748
0.0375749
0.0356086
0.0332856
0.0307515
0.0281371
0.02554
0.0230219
0.0206068
0.0183688
0.0161734
0.0143574
0.0126073
0.0110435
0.00959452
0.00829792
0.00709207
0.006029
0.00501683
0.00411835
0.00319266
0.00235381
0.00139917
0.000558195
-0.278176
-0.280548
-0.281575
-0.282867
-0.284188
-0.285082
-0.285285
-0.284697
-0.283144
-0.280432
-0.276379
-0.270826
-0.263636
-0.254719
-0.244035
-0.231611
-0.217536
-0.201965
-0.185114
-0.167249
-0.148668
-0.129692
-0.110574
-0.0916234
-0.0731392
-0.0553682
-0.0385277
-0.0228397
-0.00856002
0.00400532
0.0145786
0.023022
0.0293225
0.0336208
0.036159
0.0372294
0.0371145
0.0361132
0.0344807
0.0324322
0.0301233
0.0276889
0.0252267
0.0228093
0.0204719
0.0182766
0.0163243
0.0143091
0.0125635
0.0110086
0.00956117
0.00826729
0.00706227
0.00600347
0.00499468
0.00410269
0.00318177
0.00234778
0.00139724
0.00055394
-0.277825
-0.280969
-0.281759
-0.282775
-0.284092
-0.28502
-0.285195
-0.284585
-0.282999
-0.280234
-0.276116
-0.270497
-0.263259
-0.254324
-0.243671
-0.231341
-0.217444
-0.20215
-0.185691
-0.168346
-0.150416
-0.132184
-0.11388
-0.0957497
-0.0780139
-0.060865
-0.0444673
-0.0290012
-0.0147095
-0.00191242
0.00907714
0.0180522
0.024946
0.0298514
0.0329791
0.0345992
0.0349795
0.0344029
0.0331297
0.0313809
0.0293203
0.0270869
0.0247817
0.0224852
0.020242
0.0181136
0.0161429
0.0142097
0.0124836
0.0109478
0.00950906
0.00822208
0.00702168
0.00596853
0.00496474
0.00407954
0.00316487
0.00233648
0.00139227
0.000547367
-0.275833
-0.279531
-0.280152
-0.281028
-0.282328
-0.283186
-0.283324
-0.282753
-0.281219
-0.278509
-0.274465
-0.268953
-0.261868
-0.253142
-0.242759
-0.230769
-0.217287
-0.202489
-0.186603
-0.169903
-0.15268
-0.135202
-0.11766
-0.100249
-0.0831407
-0.0664899
-0.0504363
-0.0351409
-0.020838
-0.00785055
0.00348857
0.0129328
0.0203733
0.0258588
0.0295646
0.0317384
0.0326296
0.0324967
0.0316006
0.0301693
0.028374
0.0263581
0.0242268
0.0220672
0.0199317
0.0178829
0.0159352
0.0140794
0.0123717
0.0108641
0.00944001
0.00816392
0.00697182
0.00592567
0.00492836
0.00404999
0.00314274
0.00232042
0.00138448
0.000538907
-0.27216
-0.275682
-0.276269
-0.277315
-0.27863
-0.279399
-0.279361
-0.27898
-0.277628
-0.275127
-0.271315
-0.266079
-0.259334
-0.251017
-0.241112
-0.229668
-0.216798
-0.202666
-0.187489
-0.171521
-0.155032
-0.138284
-0.121457
-0.104696
-0.0881379
-0.0719193
-0.0561703
-0.0410445
-0.026769
-0.0136592
-0.00205162
0.00778687
0.0157154
0.0217419
0.0260013
0.0287181
0.0301264
0.0304534
0.0299469
0.0288431
0.0273223
0.0255336
0.0235868
0.0215748
0.0195569
0.0175972
0.01571
0.0139429
0.012225
0.0107601
0.00935601
0.00809435
0.00691384
0.00587617
0.00488663
0.00401512
0.00311614
0.00230025
0.00137418
0.000529121
-0.266621
-0.26907
-0.270032
-0.27153
-0.272873
-0.273742
-0.274094
-0.27316
-0.271941
-0.269795
-0.26641
-0.261655
-0.255462
-0.247765
-0.238539
-0.22783
-0.215742
-0.202421
-0.188061
-0.172895
-0.157171
-0.141131
-0.124971
-0.108815
-0.0927747
-0.0769747
-0.0615424
-0.0466263
-0.0324434
-0.0192941
-0.00750545
0.00264885
0.0110032
0.0175282
0.0223157
0.0255588
0.0274794
0.0282882
0.0281951
0.0274349
0.0261984
0.0246442
0.0228884
0.0210306
0.0191357
0.017272
0.0154622
0.0137325
0.0120274
0.0106351
0.00925866
0.00801518
0.00684899
0.00582135
0.00484065
0.00397608
0.00308594
0.00227677
0.00136178
0.000518722
-0.258761
-0.260257
-0.261992
-0.26372
-0.265048
-0.266231
-0.267018
-0.266808
-0.265365
-0.263436
-0.260515
-0.256334
-0.250815
-0.243864
-0.235443
-0.225592
-0.2144
-0.20199
-0.188529
-0.174223
-0.159295
-0.143969
-0.128441
-0.112856
-0.0973173
-0.0819406
-0.0668494
-0.0521811
-0.0381373
-0.0249972
-0.013071
-0.00263355
0.00612778
0.0131462
0.0184683
0.0222452
0.024672
0.0259632
0.0263098
0.0259217
0.0249922
0.0236892
0.0221369
0.0204434
0.0186797
0.0169191
0.0151899
0.0135178
0.0120174
0.0104969
0.00914923
0.00792801
0.00677867
0.00576233
0.00479135
0.0039337
0.00305264
0.00225049
0.00134743
0.000508513
-0.248766
-0.250963
-0.252699
-0.253644
-0.254637
-0.255874
-0.256808
-0.256987
-0.256195
-0.254526
-0.25212
-0.248705
-0.24412
-0.238185
-0.230835
-0.222095
-0.212027
-0.200724
-0.188324
-0.175003
-0.16096
-0.146402
-0.131516
-0.116461
-0.101366
-0.0863594
-0.0715768
-0.0571473
-0.0432533
-0.0301542
-0.0181421
-0.0074907
0.00159863
0.00902796
0.0148087
0.0190529
0.0219305
0.0236348
0.0243643
0.0243235
0.0236942
0.0226447
0.0213027
0.0197823
0.0181593
0.016512
0.0148712
0.0132827
0.0117889
0.0103415
0.00902171
0.00782579
0.0066975
0.005694
0.0047347
0.00388508
0.0030141
0.00222033
0.00133007
0.000498873
-0.237802
-0.24386
-0.245143
-0.245333
-0.246124
-0.247405
-0.248546
-0.249144
-0.2489
-0.247405
-0.244661
-0.241294
-0.236985
-0.231424
-0.224526
-0.216312
-0.206836
-0.196182
-0.184473
-0.171868
-0.158545
-0.144691
-0.130478
-0.116058
-0.101559
-0.0871024
-0.0728105
-0.0588222
-0.0453195
-0.0325466
-0.020776
-0.010269
-0.00122032
0.00626531
0.0121854
0.0166283
0.019745
0.0217156
0.0227154
0.0229281
0.0225282
0.0216798
0.0205105
0.0191355
0.0176328
0.016084
0.014522
0.0130008
0.01155
0.0101659
0.00888116
0.00770028
0.00659579
0.00560962
0.00466554
0.00382835
0.00297031
0.00218727
0.00131037
0.000489605
-0.225919
-0.234408
-0.236144
-0.235713
-0.235941
-0.236966
-0.237986
-0.238365
-0.237796
-0.236295
-0.23418
-0.23119
-0.227178
-0.222001
-0.215595
-0.207969
-0.199166
-0.189258
-0.178349
-0.166574
-0.154088
-0.141053
-0.127626
-0.113951
-0.100153
-0.0863544
-0.0726811
-0.0592792
-0.0463282
-0.0340529
-0.0227017
-0.0125125
-0.00366646
0.00373396
0.00967487
0.0142243
0.0175083
0.0196823
0.0209025
0.0213396
0.0211567
0.0205106
0.0195236
0.0183102
0.0169475
0.0155182
0.0140571
0.0126219
0.0112368
0.00990483
0.00866661
0.00753932
0.00646691
0.00550541
0.00458194
0.00375947
0.00291765
0.00214582
0.00128631
0.000476825
-0.21365
-0.223353
-0.225664
-0.225045
-0.224864
-0.225641
-0.226583
-0.226967
-0.226536
-0.225344
-0.223419
-0.220624
-0.216864
-0.212057
-0.206146
-0.199118
-0.191002
-0.181853
-0.171755
-0.160821
-0.149183
-0.136983
-0.124362
-0.111455
-0.0983884
-0.0852838
-0.0722711
-0.0594971
-0.0471352
-0.0353913
-0.0244907
-0.0146493
-0.0060366
0.00124667
0.00717568
0.0117993
0.0152193
0.0175702
0.0189929
0.0196447
0.0196753
0.0192328
0.0184333
0.0173892
0.0161759
0.0148768
0.0135278
0.0121894
0.0108798
0.00962099
0.00843868
0.00735322
0.0063167
0.00538317
0.00448404
0.00367849
0.00285567
0.00209686
0.00125799
0.000461949
-0.201555
-0.211401
-0.214248
-0.21385
-0.213557
-0.214186
-0.215106
-0.215588
-0.215328
-0.214301
-0.212509
-0.209911
-0.206444
-0.202037
-0.196629
-0.190197
-0.182756
-0.174349
-0.165044
-0.154934
-0.144131
-0.132759
-0.120945
-0.108815
-0.0964916
-0.0840972
-0.0717611
-0.0596277
-0.0478625
-0.0366556
-0.0262118
-0.0167273
-0.00836058
-0.00121082
0.00468798
0.0093674
0.0129077
0.0154245
0.0170428
0.0179048
0.0181468
0.0179075
0.0172969
0.0164246
0.0153641
0.0141989
0.0129658
0.0117276
0.0104995
0.00931702
0.00819058
0.00714977
0.00615254
0.00524935
0.00437679
0.00359014
0.00278808
0.002044
0.00122749
0.000446529
-0.189243
-0.199025
-0.202392
-0.2024
-0.202186
-0.202751
-0.203657
-0.20422
-0.204084
-0.203184
-0.201551
-0.199186
-0.196036
-0.192031
-0.187112
-0.181252
-0.174459
-0.166765
-0.158224
-0.148913
-0.138926
-0.128369
-0.117357
-0.106006
-0.0944334
-0.082759
-0.0711098
-0.0596259
-0.0484647
-0.0378021
-0.0278242
-0.0187094
-0.0106054
-0.00360934
0.00223728
0.00695114
0.0105934
0.0132612
0.0150633
0.0161267
0.0165744
0.0165357
0.0161137
0.0154145
0.0145094
0.0134813
0.012368
0.0112332
0.0100916
0.0089859
0.00791954
0.00692807
0.00597341
0.00510338
0.00425979
0.00349433
0.00271487
0.00198738
0.00119477
0.000430671
-0.176951
-0.186651
-0.190408
-0.19082
-0.190774
-0.19134
-0.192241
-0.192866
-0.192847
-0.1921
-0.190661
-0.188547
-0.185714
-0.182099
-0.177648
-0.172334
-0.166158
-0.159144
-0.151335
-0.142794
-0.133598
-0.123839
-0.113617
-0.103041
-0.0922202
-0.0812701
-0.0703137
-0.0594853
-0.0489334
-0.0388205
-0.0293159
-0.0205818
-0.0127559
-0.00593284
-0.000160301
0.00456578
0.00828933
0.0110902
0.0130608
0.014314
0.0149596
0.0151169
0.0148818
0.014356
0.0136083
0.0127204
0.0117307
0.0107029
0.00965257
0.00862631
0.00762475
0.00668661
0.00577767
0.0049438
0.00413182
0.00339008
0.00263528
0.00192644
0.00115944
0.000414353
-0.165106
-0.17447
-0.178442
-0.17921
-0.179372
-0.179992
-0.180909
-0.181599
-0.181707
-0.181137
-0.179911
-0.178047
-0.175522
-0.172282
-0.168279
-0.163484
-0.157895
-0.151529
-0.144419
-0.136615
-0.128182
-0.119198
-0.109752
-0.0999406
-0.0898668
-0.07964
-0.0693773
-0.0592059
-0.0492649
-0.0397038
-0.0306771
-0.0223328
-0.0147987
-0.0081672
-0.00249031
0.00222527
0.00600828
0.00892245
0.0110451
0.0124749
0.0133088
0.0136558
0.0136044
0.0132513
0.0126621
0.0119166
0.0110536
0.0101365
0.00918164
0.00823818
0.00730558
0.00642437
0.00556434
0.0047697
0.00399209
0.00327676
0.00254884
0.00186096
0.00112133
0.00039767
-0.15367
-0.162538
-0.166616
-0.167693
-0.168072
-0.168776
-0.169731
-0.170493
-0.170732
-0.170339
-0.169326
-0.167713
-0.165488
-0.16261
-0.159034
-0.154733
-0.149702
-0.143951
-0.137506
-0.130406
-0.122706
-0.114471
-0.10578
-0.0967192
-0.0873829
-0.0778732
-0.0683002
-0.0587832
-0.0494514
-0.0404422
-0.0318968
-0.02395
-0.016721
-0.0102987
-0.00473868
-5.65017e-05
0.00376345
0.00677027
0.009027
0.0106186
0.0116296
0.0121586
0.0122863
0.0121036
0.0116729
0.0110713
0.0103375
0.00953413
0.0086785
0.00782102
0.00696116
0.00614046
0.00533263
0.00458036
0.00383999
0.00315389
0.00245521
0.00179078
0.00108035
0.000380666
-0.142593
-0.150964
-0.155073
-0.156394
-0.15697
-0.157767
-0.15877
-0.159603
-0.159966
-0.159743
-0.158938
-0.157571
-0.155639
-0.153107
-0.149938
-0.146107
-0.141603
-0.136434
-0.13062
-0.124191
-0.117191
-0.109678
-0.101719
-0.0933892
-0.084776
-0.0759726
-0.0670813
-0.0582126
-0.049486
-0.0410272
-0.032965
-0.0254225
-0.0185105
-0.0123143
-0.00689189
-0.00226583
0.00156821
0.00464617
0.0070178
0.00875501
0.00993038
0.0106319
0.0109325
0.0109167
0.0106431
0.0101859
0.00958302
0.00889585
0.00814271
0.00737422
0.00659069
0.005834
0.00508176
0.00437504
0.00367488
0.00302097
0.00235402
0.00171568
0.00103637
0.000363289
-0.132025
-0.139861
-0.143911
-0.145403
-0.146144
-0.147027
-0.148077
-0.148975
-0.149449
-0.149386
-0.14878
-0.14765
-0.145998
-0.143798
-0.141015
-0.137626
-0.133621
-0.129001
-0.123783
-0.11799
-0.111659
-0.104838
-0.0975828
-0.0899628
-0.0820542
-0.0739424
-0.065721
-0.0574917
-0.0493637
-0.0414518
-0.0338733
-0.0267406
-0.0201563
-0.0142021
-0.00893692
-0.00438926
-0.000564081
0.00256288
0.00502917
0.00689443
0.0082198
0.00908282
0.0095485
0.00969468
0.00957582
0.00926228
0.00879119
0.00822211
0.00757413
0.00689743
0.00619358
0.00550439
0.00481093
0.00415306
0.00349613
0.00287746
0.00224486
0.00163538
0.000989187
0.000345428
-0.122027
-0.129263
-0.133179
-0.134785
-0.135656
-0.136609
-0.137697
-0.13865
-0.139223
-0.139305
-0.138886
-0.137982
-0.136594
-0.134705
-0.132286
-0.129313
-0.125776
-0.121674
-0.117017
-0.111826
-0.10613
-0.0999677
-0.093389
-0.0864527
-0.079227
-0.0717883
-0.0642218
-0.0566196
-0.0490812
-0.0417107
-0.0346146
-0.0278955
-0.0216483
-0.0159505
-0.0108614
-0.00641367
-0.00262013
0.000533339
0.00307328
0.00504792
0.00650755
0.00751961
0.00814105
0.00844278
0.00847473
0.00830316
0.0079637
0.00751383
0.00697304
0.0063906
0.00576945
0.00515101
0.00451966
0.00391378
0.00330316
0.00272283
0.00212732
0.00154959
0.000938623
0.000326939
-0.112548
-0.119185
-0.122927
-0.124594
-0.125559
-0.126564
-0.127677
-0.128671
-0.129325
-0.129536
-0.129287
-0.128592
-0.127451
-0.125853
-0.123773
-0.12119
-0.118091
-0.114473
-0.110344
-0.10572
-0.100624
-0.0950875
-0.0891537
-0.082873
-0.0763051
-0.069518
-0.0625879
-0.0555977
-0.0486373
-0.0418005
-0.0351838
-0.0288804
-0.0229778
-0.0175494
-0.0126536
-0.00832646
-0.00458685
-0.00142938
0.00116269
0.00322712
0.00480408
0.00595125
0.00671762
0.00716703
0.00734453
0.00731194
0.00710292
0.00677248
0.00634022
0.00585406
0.00531827
0.00477354
0.00420738
0.00365666
0.00309546
0.00255662
0.002001
0.00145799
0.000884487
0.000307671
-0.103596
-0.109658
-0.113193
-0.114876
-0.1159
-0.116934
-0.118056
-0.119075
-0.119794
-0.120114
-0.120016
-0.119509
-0.118596
-0.117268
-0.115504
-0.113281
-0.110589
-0.107423
-0.103787
-0.0996935
-0.0951612
-0.0902166
-0.0848948
-0.079239
-0.0733012
-0.0671409
-0.0608257
-0.0544295
-0.0480329
-0.0417198
-0.0355773
-0.0296898
-0.0241377
-0.0189896
-0.0143031
-0.0101158
-0.00645155
-0.00331228
-0.000689824
0.00144416
0.00312047
0.00438755
0.00528659
0.00587433
0.00619074
0.00629283
0.00621193
0.00600022
0.00567702
0.00528856
0.00484031
0.00437194
0.00387383
0.00338134
0.00287262
0.00237843
0.00186554
0.00136031
0.000826604
0.000287471
-0.0952027
-0.100698
-0.103999
-0.105658
-0.106711
-0.107753
-0.10887
-0.109897
-0.110662
-0.111071
-0.111102
-0.110762
-0.110055
-0.108976
-0.107501
-0.10561
-0.103293
-0.100545
-0.0973672
-0.0937688
-0.0897643
-0.0853753
-0.0806307
-0.0755671
-0.070229
-0.0646681
-0.0589437
-0.053121
-0.0472714
-0.0414697
-0.0357941
-0.0303204
-0.0251223
-0.0202638
-0.0158004
-0.0117706
-0.0082022
-0.00510276
-0.00247155
-0.000288629
0.00146829
0.00283898
0.00385715
0.00457246
0.00501972
0.00525088
0.0052946
0.00519985
0.00498538
0.00469535
0.00433629
0.00394648
0.003519
0.00308768
0.00263439
0.00218797
0.00172067
0.00125628
0.000764826
0.000266204
-0.0873506
-0.0922964
-0.0953483
-0.0969559
-0.0980126
-0.0990464
-0.100142
-0.101164
-0.101956
-0.102435
-0.102575
-0.102379
-0.101845
-0.100999
-0.0997882
-0.0982001
-0.0962264
-0.0938622
-0.0911075
-0.0879678
-0.0844543
-0.080584
-0.0763807
-0.0718748
-0.0671041
-0.0621129
-0.0569526
-0.0516801
-0.0463584
-0.0410535
-0.035835
-0.0307709
-0.0259282
-0.0213661
-0.0171376
-0.0132815
-0.00982774
-0.00678882
-0.00417008
-0.0019589
-0.000140627
0.00131651
0.00243912
0.00326998
0.00383866
0.00419195
0.00435554
0.00437491
0.00426789
0.00407626
0.00380736
0.00349786
0.00314325
0.00277577
0.00238071
0.00198509
0.00156617
0.0011457
0.000699037
0.000243758
-0.0800134
-0.0844437
-0.087244
-0.0887797
-0.0898195
-0.0908295
-0.0918925
-0.0928942
-0.0936996
-0.0942307
-0.0944651
-0.0944052
-0.0940556
-0.0933754
-0.0923894
-0.0910733
-0.0894112
-0.087397
-0.0850296
-0.082312
-0.0792521
-0.0758631
-0.0721642
-0.0681802
-0.0639429
-0.0594897
-0.0548647
-0.0501171
-0.0453018
-0.0404767
-0.0357033
-0.0310422
-0.0265539
-0.0222927
-0.0183088
-0.0146401
-0.0113184
-0.00835943
-0.00577361
-0.0035546
-0.00169445
-0.000168647
0.00104281
0.00197605
0.00265551
0.0031227
0.00340016
0.00352965
0.00352778
0.00343371
0.00325523
0.00302724
0.00274727
0.00244599
0.00211172
0.00176977
0.00140199
0.00102845
0.00062917
0.00022005
-0.0731827
-0.077132
-0.0796825
-0.0811309
-0.0821376
-0.0831112
-0.0841311
-0.0851014
-0.0859043
-0.086469
-0.0867722
-0.0868129
-0.0865899
-0.0860928
-0.0853158
-0.0842446
-0.082865
-0.0811687
-0.0791538
-0.0768218
-0.0741783
-0.071233
-0.0680008
-0.0645021
-0.0607628
-0.0568144
-0.0526942
-0.0484442
-0.0441118
-0.0397474
-0.0354048
-0.0311376
-0.0270003
-0.023042
-0.0193098
-0.0158404
-0.0126659
-0.00980479
-0.00727129
-0.00506428
-0.0031816
-0.00160522
-0.000321208
0.000700304
0.00147877
0.00205047
0.00243465
0.00266912
0.00276898
0.00277067
0.0026821
0.00253618
0.00233218
0.00209909
0.0018279
0.00154224
0.00122818
0.000904478
0.00055521
0.000195032
-0.0668429
-0.0703443
-0.0726507
-0.0740026
-0.0749644
-0.0758928
-0.0768616
-0.0777911
-0.0785789
-0.0791612
-0.0795154
-0.0796387
-0.0795307
-0.0791843
-0.0785903
-0.0777351
-0.0766065
-0.0751957
-0.0734991
-0.0715169
-0.0692526
-0.0667133
-0.0639102
-0.0608594
-0.0575821
-0.0541041
-0.0504568
-0.0466754
-0.0428007
-0.0388757
-0.0349475
-0.031063
-0.0272706
-0.0236147
-0.0201389
-0.0168779
-0.0138639
-0.0111167
-0.00865344
-0.00647733
-0.00459103
-0.00298218
-0.00164229
-0.000547304
0.000317455
0.000983147
0.00146575
0.00179902
0.00199626
0.0020909
0.00209076
0.00202674
0.00189943
0.00173617
0.00153004
0.00130293
0.00104497
0.000773882
0.000477211
0.00016869
-0.06097
-0.0640595
-0.0661327
-0.0673836
-0.0682929
-0.0691699
-0.0700826
-0.0709646
-0.0717276
-0.0723147
-0.0727045
-0.0728934
-0.0728801
-0.0726597
-0.0722253
-0.0715598
-0.0706521
-0.0694947
-0.0680828
-0.0664152
-0.0644937
-0.0623229
-0.0599114
-0.0572712
-0.0544195
-0.0513769
-0.0481694
-0.0448264
-0.0413824
-0.037874
-0.0343418
-0.0308263
-0.0273705
-0.024014
-0.0207966
-0.0177508
-0.0149079
-0.0122885
-0.00991191
-0.00778435
-0.00591255
-0.00428899
-0.00291
-0.00175679
-0.000819133
-7.08157e-05
0.000500787
0.000925492
0.00121475
0.0013988
0.00148488
0.00150169
0.00145095
0.00135853
0.00121933
0.00105253
0.000852799
0.000636876
0.000395301
0.00014105
-0.0555425
-0.0582568
-0.0601105
-0.0612597
-0.0621119
-0.062934
-0.0637877
-0.0646181
-0.0653493
-0.0659314
-0.066344
-0.0665823
-0.0666431
-0.0665183
-0.0662286
-0.0657293
-0.0650147
-0.0640799
-0.0629202
-0.0615331
-0.0599188
-0.0580801
-0.0560229
-0.0537564
-0.0512936
-0.0486511
-0.04585
-0.0429144
-0.0398731
-0.0367568
-0.0336002
-0.0304382
-0.0273083
-0.0242455
-0.0212859
-0.0184593
-0.0157958
-0.013316
-0.0110403
-0.00897737
-0.00713708
-0.00551593
-0.00411435
-0.00291833
-0.00192168
-0.00110275
-0.000452231
5.56071e-05
0.000430212
0.000698881
0.00086818
0.00096427
0.000989394
0.000967564
0.000897535
0.00079196
0.000652259
0.000493833
0.00030969
0.000112162
-0.0505402
-0.0529144
-0.0545638
-0.0556131
-0.0564063
-0.0571722
-0.057966
-0.0587427
-0.0594378
-0.0600079
-0.0604353
-0.0607165
-0.0608504
-0.0608343
-0.0606285
-0.0602578
-0.0597062
-0.0589634
-0.0580241
-0.0568845
-0.0555432
-0.0540013
-0.0522625
-0.0503332
-0.0482234
-0.0459459
-0.0435174
-0.0409575
-0.0382899
-0.03554
-0.0327373
-0.0299113
-0.0270945
-0.0243174
-0.0216123
-0.0190064
-0.0165279
-0.0141969
-0.0120342
-0.0100502
-0.00825697
-0.00665434
-0.00524617
-0.00402253
-0.00298094
-0.00210403
-0.00138545
-0.00080328
-0.00035035
-2.81849e-06
0.000245071
0.000417617
0.000517397
0.000566593
0.000567718
0.000522351
0.000444213
0.000345352
0.000220742
8.21403e-05
-0.0459415
-0.0480094
-0.0494704
-0.0504238
-0.0511582
-0.0518681
-0.0526026
-0.0533247
-0.0539798
-0.0545304
-0.0549602
-0.0552648
-0.0554415
-0.0554835
-0.0553819
-0.0551318
-0.0547242
-0.0541499
-0.0534033
-0.0524808
-0.0513803
-0.0501015
-0.0486465
-0.0470194
-0.0452274
-0.0432801
-0.0411908
-0.0389748
-0.0366515
-0.0342415
-0.0317695
-0.0292603
-0.0267418
-0.02424
-0.0217838
-0.0193974
-0.0171069
-0.0149313
-0.0128914
-0.0109985
-0.00926623
-0.00769695
-0.00629727
-0.0050608
-0.00398817
-0.0030659
-0.0022907
-0.00164419
-0.00112095
-0.000700254
-0.000378019
-0.000132866
3.80704e-05
0.000156451
0.000234375
0.000244456
0.000229586
0.000192131
0.000128882
5.11711e-05
-0.0417254
-0.043519
-0.0448084
-0.0456714
-0.0463485
-0.0470041
-0.0476809
-0.0483489
-0.0489622
-0.0494886
-0.0499135
-0.0502324
-0.0504427
-0.0505395
-0.0505154
-0.0503638
-0.0500768
-0.0496462
-0.0490658
-0.0483317
-0.0474415
-0.046394
-0.0451898
-0.0438311
-0.042323
-0.0406724
-0.0388894
-0.0369859
-0.0349773
-0.0328802
-0.0307149
-0.028502
-0.0262651
-0.0240263
-0.0218109
-0.0196401
-0.0175379
-0.0155218
-0.0136121
-0.0118201
-0.0101607
-0.00863802
-0.00726072
-0.00602537
-0.00493529
-0.00398036
-0.00315973
-0.00245876
-0.00187448
-0.00138868
-0.000997657
-0.000682773
-0.000442936
-0.00026164
-0.000148929
-4.33922e-05
9.68088e-06
3.51369e-05
3.46017e-05
1.92408e-05
-0.0378719
-0.0394216
-0.0405557
-0.0413348
-0.0419575
-0.0425614
-0.0431834
-0.0437992
-0.0443706
-0.0448701
-0.0452853
-0.0456116
-0.0458467
-0.0459862
-0.0460238
-0.0459528
-0.0457658
-0.045456
-0.0450173
-0.0444452
-0.0437372
-0.0428911
-0.0419065
-0.0407842
-0.0395276
-0.0381411
-0.0366325
-0.0350104
-0.0332872
-0.0314757
-0.0295926
-0.0276543
-0.0256811
-0.0236911
-0.0217063
-0.0197451
-0.0178289
-0.0159738
-0.0141988
-0.0125154
-0.0109386
-0.0094738
-0.00813126
-0.00690985
-0.00581497
-0.00483967
-0.00398535
-0.00324006
-0.00260257
-0.00205872
-0.00160688
-0.00122924
-0.000923846
-0.000675556
-0.000486308
-0.000328175
-0.000211802
-0.000123641
-6.09157e-05
-1.27253e-05
-0.0343625
-0.0356964
-0.0366912
-0.0373933
-0.0379652
-0.0385209
-0.0390916
-0.039658
-0.0401885
-0.0406601
-0.0410619
-0.0413899
-0.0416416
-0.0418132
-0.0418991
-0.0418941
-0.0417897
-0.0415801
-0.0412606
-0.0408266
-0.0402748
-0.0396023
-0.0388084
-0.0378927
-0.0368569
-0.0357038
-0.0344388
-0.0330682
-0.0316015
-0.0300485
-0.0284225
-0.0267368
-0.0250079
-0.023251
-0.0214847
-0.0197246
-0.0179899
-0.0162947
-0.0146568
-0.0130869
-0.0116002
-0.0102027
-0.00890553
-0.00770946
-0.0066216
-0.00563735
-0.00476
-0.00398104
-0.00330082
-0.00270604
-0.00219642