/*--------------------------------*- C++ -*----------------------------------*\
| =========                 |                                                 |
| \\      /  F ield         | OpenFOAM: The Open Source CFD Toolbox           |
|  \\    /   O peration     | Version:  2512                                  |
|   \\  /    A nd           | Website:  www.openfoam.com                      |
|    \\/     M anipulation  |                                                 |
\*---------------------------------------------------------------------------*/
FoamFile
{
    version     2.0;
    format      ascii;
    arch        "LSB;label=32;scalar=64";
    class       volVectorField;
    location    "4.25";
    object      U;
}
// * * * * * * * * * * * * * * * * * * * * * * * * * * * * * * * * * * * * * //

dimensions      [0 1 -1 0 0 0 0];

internalField   nonuniform List<vector> 
13248
(
(-0.0185381 0.017433 9.81066e-20)
(-0.0331835 0.0393589 0)
(-0.0220589 0.0532029 -1.83137e-19)
(0.0149101 0.0593212 1.72497e-19)
(0.0774498 0.0583264 1.60922e-19)
(0.164721 0.0510203 0)
(0.274839 0.0382755 0)
(0.404387 0.0210414 3.94748e-19)
(0.547984 0.000346355 7.7735e-22)
(0.698223 -0.0227079 -3.49247e-19)
(0.846239 -0.0469624 3.2627e-19)
(0.982886 -0.0712425 -2.04438e-19)
(1.10025 -0.0944284 0)
(1.19301 -0.115544 -3.32281e-19)
(1.25916 -0.133843 6.08159e-19)
(1.29994 -0.148869 -1.46386e-19)
(1.31906 -0.160471 -2.27197e-19)
(1.32147 -0.168764 2.13344e-19)
(1.31225 -0.174033 0)
(1.29574 -0.176725 0)
(1.27536 -0.177 0)
(1.25282 -0.176368 0)
(1.23079 -0.171624 4.45472e-20)
(1.20521 -0.174731 1.37276e-19)
(-0.0172821 0.0143111 -2.96304e-19)
(-0.0230454 0.0279088 2.00818e-19)
(0.00190116 0.0338368 -2.53881e-21)
(0.0568389 0.0336347 -2.64308e-19)
(0.140777 0.028574 -1.60749e-19)
(0.251631 0.0197865 -1.52962e-19)
(0.385398 0.00822396 -2.82142e-19)
(0.535701 -0.00529085 2.66918e-19)
(0.693848 -0.020049 0)
(0.849658 -0.0354555 1.38518e-21)
(0.992943 -0.0510106 1.94061e-21)
(1.11523 -0.0662717 2.00526e-19)
(1.21114 -0.0808204 0)
(1.27902 -0.0942538 0)
(1.32067 -0.106211 2.11075e-19)
(1.34027 -0.116417 -3.96679e-19)
(1.34315 -0.12471 2.16568e-19)
(1.33457 -0.131048 -2.03365e-19)
(1.31892 -0.135484 -8.2791e-20)
(1.2995 -0.138131 -1.38383e-19)
(1.27846 -0.139078 -4.90353e-20)
(1.25711 -0.138727 -8.91544e-20)
(1.23635 -0.135533 1.43117e-19)
(1.21514 -0.137207 3.74432e-20)
(-0.0146061 0.0111309 0)
(-0.00778634 0.017315 0)
(0.0355914 0.0171345 9.35438e-20)
(0.113244 0.0127762 8.58509e-20)
(0.222465 0.00595513 -2.08872e-21)
(0.358693 -0.00197967 -1.59421e-19)
(0.51459 -0.0101697 0)
(0.68011 -0.0181925 -1.33246e-19)
(0.843572 -0.0259843 1.25408e-19)
(0.993528 -0.0337209 -1.8692e-22)
(1.12079 -0.0416475 -2.12802e-19)
(1.21989 -0.049913 -1.90451e-19)
(1.28959 -0.0584728 7.55393e-21)
(1.33229 -0.0670908 -1.44692e-19)
(1.35276 -0.0754158 3.58253e-19)
(1.35667 -0.0830828 0)
(1.34941 -0.0897894 -2.07561e-19)
(1.33531 -0.0953321 1.02928e-19)
(1.31751 -0.0996014 8.27284e-20)
(1.29805 -0.102579 0)
(1.27819 -0.104235 6.099e-20)
(1.25848 -0.104898 -1.96868e-19)
(1.23959 -0.103694 1.84807e-19)
(1.22025 -0.106116 1.03299e-19)
(-0.00975816 0.00753751 -1.0549e-19)
(0.0139492 0.00699873 -1.09082e-19)
(0.0801428 0.00262786 9.78854e-20)
(0.184216 -0.00338535 0)
(0.320606 -0.00927683 0)
(0.481047 -0.0138188 -4.48892e-21)
(0.65409 -0.0166398 0)
(0.826307 -0.0181066 -4.07844e-19)
(0.984598 -0.0190462 3.77456e-19)
(1.11867 -0.0203969 -4.64456e-19)
(1.22268 -0.0228833 1.05705e-19)
(1.29562 -0.0268241 0)
(1.34043 -0.032116 1.65953e-19)
(1.36241 -0.0383552 -3.03218e-19)
(1.36763 -0.0450112 7.24363e-20)
(1.36162 -0.0515734 1.70373e-19)
(1.34879 -0.0576368 -1.4815e-20)
(1.33222 -0.0629261 -1.842e-19)
(1.3139 -0.0672837 0)
(1.29505 -0.0706374 0)
(1.27632 -0.0729668 -5.78327e-20)
(1.25809 -0.0744338 4.98839e-20)
(1.24065 -0.0743901 1.65856e-19)
(1.22322 -0.0773614 -1.55794e-19)
(-0.00217052 0.00354753 -1.11926e-19)
(0.043108 -0.00290573 -1.11225e-19)
(0.135978 -0.00938226 3.1244e-19)
(0.268716 -0.0143441 -1.89208e-19)
(0.431747 -0.0165161 1.78072e-19)
(0.612204 -0.015332 3.22857e-19)
(0.794634 -0.0114118 -2.28463e-19)
(0.963702 -0.0062074 -2.75609e-19)
(1.10733 -0.00139436 7.79055e-21)
(1.21873 0.00167375 3.4943e-19)
(1.2968 0.00227953 0)
(1.34489 0.000373395 9.21043e-20)
(1.36892 -0.00360393 0)
(1.3755 -0.00897622 -1.4253e-19)
(1.37055 -0.015051 1.99809e-19)
(1.35868 -0.0212504 1.99014e-21)
(1.34309 -0.0271552 -4.90281e-20)
(1.32577 -0.0324953 8.8642e-20)
(1.30788 -0.0371158 7.45766e-20)
(1.29007 -0.0409434 -6.48011e-20)
(1.27267 -0.0439646 5.7817e-20)
(1.25583 -0.0462328 -4.98697e-20)
(1.23969 -0.0475433 0)
(1.22371 -0.0508587 -3.61729e-20)
(0.0085347 -0.000529818 1.1191e-19)
(0.0801669 -0.0116108 1.17826e-19)
(0.202773 -0.0178053 -1.04855e-19)
(0.364659 -0.0189026 1.95927e-19)
(0.551285 -0.0148071 -1.84388e-19)
(0.74503 -0.00626578 1.66136e-19)
(0.927708 0.00470311 -8.00032e-20)
(1.08451 0.0155826 2.06942e-19)
(1.20685 0.0242493 -1.29793e-19)
(1.29293 0.0294872 2.23752e-19)
(1.34632 0.0310503 -5.11664e-19)
(1.37359 0.0294148 1.85739e-19)
(1.38207 0.0254197 -1.56777e-19)
(1.37831 0.01996 1.47276e-19)
(1.3673 0.0137998 1.21432e-19)
(1.35245 0.00750574 1.02523e-19)
(1.33583 0.0014547 -2.84417e-19)
(1.31861 -0.00412415 1.74778e-19)
(1.30141 -0.00910463 -7.45777e-20)
(1.28455 -0.013428 1.87613e-19)
(1.26819 -0.0170795 -6.08745e-20)
(1.25241 -0.0200718 -1.39333e-19)
(1.23727 -0.0223472 1.27329e-19)
(1.22244 -0.0258831 3.61634e-20)
(0.0225599 -0.00420147 0)
(0.125086 -0.0179056 1.27932e-21)
(0.279357 -0.021086 2.2126e-19)
(0.468907 -0.0155996 -2.07282e-19)
(0.673809 -0.00331734 -1.86442e-19)
(0.872602 0.0131434 3.45624e-19)
(1.04669 0.0303118 -1.60094e-19)
(1.18442 0.0450394 2.09765e-19)
(1.2824 0.0553874 -6.28058e-21)
(1.34392 0.0607968 -1.16971e-19)
(1.37617 0.0617556 2.4794e-19)
(1.38741 0.0592964 -3.63083e-19)
(1.38505 0.0545623 0)
(1.37474 0.0485423 -6.82367e-20)
(1.36029 0.0419723 -1.77367e-19)
(1.34398 0.0353429 5.62632e-20)
(1.32709 0.0289562 3.19113e-21)
(1.31024 0.0229867 -1.12299e-19)
(1.29375 0.0175294 1.06857e-20)
(1.27776 0.0126305 1.28211e-19)
(1.26233 0.00830659 -5.44341e-20)
(1.24749 0.00456501 -1.93566e-20)
(1.23325 0.00131694 6.2738e-20)
(1.21939 -0.00253657 0)
(0.0399253 -0.00689423 0)
(0.177245 -0.0204301 6.01093e-20)
(0.363661 -0.0176215 -2.8909e-19)
(0.57741 -0.00321352 1.0508e-19)
(0.793639 0.0182312 -9.88915e-20)
(0.989067 0.042015 -8.9616e-20)
(1.14746 0.0636297 -1.56324e-19)
(1.26235 0.0800135 7.91894e-20)
(1.33597 0.0900247 6.76439e-20)
(1.37586 0.094068 0)
(1.39135 0.0933928 1.46458e-19)
(1.39104 0.0894659 -2.14526e-19)
(1.38156 0.0835807 1.59016e-19)
(1.36737 0.0767036 6.82738e-20)
(1.35114 0.0694771 -5.38783e-20)
(1.33431 0.0622945 -4.3033e-20)
(1.31757 0.0553837 -3.91351e-20)
(1.30123 0.048873 1.21299e-19)
(1.28541 0.0428329 0)
(1.27018 0.0373005 5.71509e-20)
(1.25553 0.0322944 4.55792e-20)
(1.24148 0.0278131 -1.15936e-19)
(1.22799 0.0237393 -7.52933e-20)
(1.21493 0.0196016 6.99493e-20)
(0.0604537 -0.00801226 -6.48123e-20)
(0.235427 -0.0178781 -2.46086e-21)
(0.452807 -0.00609459 5.8921e-20)
(0.685607 0.018896 1.64399e-19)
(0.905552 0.0494049 4.70485e-20)
(1.09028 0.0789544 -9.12792e-20)
(1.22837 0.102792 8.31349e-20)
(1.31948 0.118701 -7.17771e-20)
(1.37089 0.126753 1.26602e-19)
(1.39301 0.128386 5.24993e-20)
(1.39596 0.125479 -1.49425e-19)
(1.38773 0.119752 4.32191e-20)
(1.37379 0.112502 7.20372e-20)
(1.35742 0.104591 -3.56788e-20)
(1.34036 0.0965379 0)
(1.32343 0.0886363 5.0526e-20)
(1.30699 0.0810481 8.33091e-20)
(1.29116 0.0738631 1.26472e-20)
(1.27597 0.0671323 -6.80691e-20)
(1.26142 0.0608853 2.77302e-20)
(1.2475 0.0551365 0)
(1.23417 0.0498695 -2.08519e-20)
(1.22141 0.0449901 -1.89588e-20)
(1.20907 0.0404289 0)
(0.083728 -0.00698443 0)
(0.297834 -0.00915869 3.39402e-20)
(0.543342 0.0143122 6.29398e-20)
(0.788942 0.0506648 -1.67392e-19)
(1.00536 0.0891503 5.40822e-20)
(1.17396 0.122306 0)
(1.28967 0.146079 7.8887e-20)
(1.35818 0.159701 -1.09821e-19)
(1.39065 0.164624 -6.3079e-20)
(1.39895 0.163207 2.81978e-20)
(1.39295 0.157752 -4.3692e-20)
(1.37956 0.150048 1.06824e-19)
(1.36299 0.141288 5.19468e-20)
(1.34551 0.132187 -3.68581e-20)
(1.32818 0.123138 -4.21171e-21)
(1.31143 0.114349 -9.53689e-20)
(1.2954 0.105931 4.30537e-20)
(1.28011 0.097945 -9.04535e-22)
(1.26554 0.0904287 0)
(1.25165 0.083404 -2.77584e-20)
(1.2384 0.0768745 0)
(1.22575 0.070813 5.99814e-20)
(1.21366 0.0651952 -7.05298e-20)
(1.20197 0.0601366 3.17866e-20)
(0.109079 -0.0033098 -1.75934e-20)
(0.362187 0.00649069 -8.55697e-20)
(0.631556 0.043823 9.72181e-20)
(0.883338 0.0913706 5.68541e-20)
(1.09015 0.135995 -2.73229e-20)
(1.23931 0.170372 4.48018e-20)
(1.33266 0.192022 -2.19368e-20)
(1.38107 0.201977 3.56707e-20)
(1.39817 0.203024 0)
(1.3962 0.198224 7.85064e-20)
(1.3841 0.190082 -3.76649e-21)
(1.36752 0.180309 -6.23295e-20)
(1.34954 0.169934 2.62429e-20)
(1.33162 0.159511 -2.90371e-20)
(1.31436 0.149321 -1.06166e-20)
(1.29794 0.139504 1.26384e-20)
(1.28239 0.13013 -9.52259e-21)
(1.26766 0.121238 -5.02866e-20)
(1.25371 0.112851 3.07741e-20)
(1.24048 0.104983 6.16116e-21)
(1.22791 0.0976204 5.3244e-21)
(1.21595 0.0907396 4.59866e-21)
(1.20453 0.0843974 0)
(1.1935 0.0786914 0)
(0.135688 0.0034128 1.76056e-20)
(0.426034 0.0294529 -1.7675e-20)
(0.71397 0.0820769 -3.23615e-20)
(0.9656 0.139786 0)
(1.15823 0.188281 -1.34953e-20)
(1.28654 0.221592 -1.19749e-20)
(1.35896 0.239454 -2.02355e-20)
(1.39029 0.244797 0)
(1.39545 0.241552 0)
(1.38616 0.233227 0)
(1.37013 0.222338 0)
(1.35175 0.210427 0)
(1.33316 0.198328 -1.64791e-20)
(1.31526 0.18645 7.48853e-21)
(1.29833 0.174982 1.27365e-20)
(1.2824 0.164006 5.88727e-21)
(1.26743 0.153563 1.43589e-20)
(1.25335 0.143672 0)
(1.24008 0.134344 -3.30745e-21)
(1.22755 0.125579 -3.06564e-21)
(1.21571 0.117349 -5.33277e-21)
(1.20447 0.109648 -4.60591e-21)
(1.19375 0.102614 0)
(1.18342 0.0961671 3.15888e-21)
(-0.00863615 0.00335512 8.67417e-21)
(-0.0380845 0.00653707 -9.23284e-21)
(-0.0863838 0.00728946 -1.77817e-20)
(-0.14031 0.00672777 0)
(-0.193478 0.00547567 -2.47154e-20)
(-0.24344 0.00386763 7.7832e-21)
(-0.288707 0.00208109 -1.52841e-20)
(-0.328176 0.00019579 0)
(-0.36095 -0.00176023 0)
(-0.386199 -0.00377808 0)
(-0.403124 -0.00585075 0)
(-0.410988 -0.00796471 0)
(-0.409169 -0.0100922 -4.28827e-22)
(-0.397186 -0.0121833 -9.28509e-21)
(-0.374969 -0.0141729 1.58247e-20)
(-0.342694 -0.0160367 1.93992e-20)
(-0.300688 -0.017704 5.12538e-21)
(-0.249721 -0.0191005 0)
(-0.190874 -0.0201588 2.61713e-21)
(-0.12548 -0.0208233 -6.79482e-21)
(-0.0550445 -0.0210575 -2.68056e-21)
(0.0188162 -0.0208619 -1.32484e-21)
(0.0945365 -0.0202497 0)
(0.171125 -0.0191841 0)
(-0.0103747 0.02675 -2.642e-20)
(-0.0403348 0.0556301 4.61639e-20)
(-0.0868014 0.0688204 -1.76331e-20)
(-0.138022 0.072671 -3.4727e-20)
(-0.188179 0.070956 4.91411e-20)
(-0.234957 0.0658424 -3.22778e-20)
(-0.276892 0.0584694 4.56434e-20)
(-0.312877 0.0493257 3.00336e-20)
(-0.342008 0.0385659 0)
(-0.363461 0.0262312 -2.60333e-20)
(-0.376463 0.0123718 5.69173e-22)
(-0.380296 -0.0028916 2.28794e-20)
(-0.374367 -0.0193262 3.17976e-20)
(-0.358362 -0.0365823 3.57036e-20)
(-0.332217 -0.0543321 -1.87488e-20)
(-0.296138 -0.0719426 -4.20096e-20)
(-0.250622 -0.0887891 9.58921e-21)
(-0.196545 -0.104224 -3.77522e-20)
(-0.135115 -0.117647 0)
(-0.0677846 -0.128569 4.33244e-21)
(0.00380483 -0.136643 2.67666e-21)
(0.0779552 -0.141751 1.3229e-21)
(0.152899 -0.143927 0)
(0.228896 -0.143669 0)
(-0.013585 0.0464389 0)
(-0.0439905 0.0983858 9.68948e-20)
(-0.0858458 0.123872 -3.65241e-20)
(-0.130557 0.132901 3.54235e-20)
(-0.173533 0.131679 -1.02018e-19)
(-0.212756 0.123959 0)
(-0.24683 0.111812 -6.40864e-20)
(-0.274655 0.0961923 3.02865e-20)
(-0.295337 0.0774454 -5.97242e-20)
(-0.30809 0.0556862 2.96668e-20)
(-0.312215 0.0310304 1.57288e-19)
(-0.307089 0.00370823 -7.38136e-20)
(-0.292212 -0.025895 -1.0784e-19)
(-0.267527 -0.0571999 -3.67095e-20)
(-0.23304 -0.0894058 5.5679e-21)
(-0.189081 -0.121421 1.18266e-19)
(-0.136432 -0.152063 -5.25322e-20)
(-0.0762396 -0.180093 -2.70224e-21)
(-0.0100143 -0.20435 0)
(0.0605418 -0.223912 -2.48145e-20)
(0.133567 -0.238168 0)
(0.207293 -0.246888 -2.77462e-21)
(0.279302 -0.250117 1.88291e-20)
(0.352819 -0.249536 -5.77849e-21)
(-0.0174592 0.0600953 0)
(-0.0482374 0.130447 1.80715e-21)
(-0.0835903 0.1676 3.91608e-20)
(-0.118989 0.182812 -3.81812e-20)
(-0.151533 0.183549 3.30558e-20)
(-0.179692 0.174684 2.05756e-19)
(-0.202244 0.15912 -6.49558e-20)
(-0.218159 0.138336 -6.47149e-20)
(-0.226601 0.112967 1.21898e-19)
(-0.226863 0.083262 -1.73501e-19)
(-0.218362 0.0494379 5.61258e-20)
(-0.200672 0.0118278 5.28512e-20)
(-0.173532 -0.0290274 0)
(-0.136994 -0.0723795 4.11716e-20)
(-0.0912884 -0.116914 0)
(-0.0371043 -0.161143 6.90911e-20)
(0.0244108 -0.203339 -1.04256e-19)
(0.0917588 -0.241677 3.49964e-20)
(0.163001 -0.274472 7.89312e-20)
(0.236018 -0.300369 2.47801e-20)
(0.308689 -0.318549 0)
(0.379518 -0.328743 -3.37587e-20)
(0.445037 -0.3311 1.07151e-20)
(0.512635 -0.328298 0)
(-0.0210508 0.0666454 0)
(-0.0520981 0.149175 -1.25384e-19)
(-0.0802365 0.19646 -4.10167e-20)
(-0.104932 0.218536 -7.70556e-20)
(-0.125134 0.222781 7.25622e-20)
(-0.139987 0.214529 -6.9366e-20)
(-0.148597 0.19728 1.38237e-19)
(-0.150114 0.173038 6.79537e-20)
(-0.143869 0.142835 -1.87536e-19)
(-0.129264 0.107077 1.22165e-19)
(-0.105865 0.0661701 -1.71563e-19)
(-0.0734212 0.020548 3.82122e-19)
(-0.032048 -0.0291505 -2.0267e-19)
(0.0180914 -0.0818294 9.43217e-20)
(0.076486 -0.135905 2.44315e-19)
(0.14191 -0.189495 -8.03869e-20)
(0.212689 -0.24032 -7.72474e-20)
(0.28671 -0.286008 -5.57621e-20)
(0.361533 -0.324411 0)
(0.43471 -0.353839 -5.92029e-20)
(0.503824 -0.373411 -3.22774e-20)
(0.567971 -0.382904 6.25742e-20)
(0.622874 -0.383052 3.77651e-20)
(0.67984 -0.376187 -3.89452e-20)
(-0.023565 0.0663995 0)
(-0.0546838 0.154072 -1.76556e-19)
(-0.0760615 0.208751 -2.55313e-21)
(-0.0902115 0.237443 1.56888e-19)
(-0.0977244 0.246235 0)
(-0.0985333 0.240205 0)
(-0.0922285 0.223083 0)
(-0.078238 0.197281 -6.88964e-20)
(-0.0562025 0.164136 -2.99292e-21)
(-0.0257473 0.124415 1.23829e-19)
(0.0135043 0.0787079 -1.77732e-19)
(0.0615427 0.0275491 5.61067e-22)
(0.11814 -0.0282297 0)
(0.182781 -0.0872475 -9.4225e-20)
(0.254369 -0.14774 8.48945e-20)
(0.331113 -0.207354 -2.38004e-19)
(0.410572 -0.263317 2.59865e-19)
(0.489829 -0.31279 3.88285e-20)
(0.565814 -0.353293 -2.67834e-20)
(0.635841 -0.383041 -1.61777e-19)
(0.697505 -0.401399 -6.08164e-20)
(0.750771 -0.408251 1.44195e-19)
(0.791521 -0.40555 -9.36618e-20)
(0.833405 -0.393781 0)
(-0.0245948 0.0608372 8.93463e-20)
(-0.0554479 0.146821 8.88884e-20)
(-0.0713413 0.205028 -8.60444e-20)
(-0.0764081 0.238721 -1.6254e-19)
(-0.072363 0.252006 1.53035e-19)
(-0.0598469 0.249104 -1.49206e-19)
(-0.0390373 0.233534 2.11382e-19)
(-0.00984454 0.207832 -6.98224e-20)
(0.0278977 0.173592 1.30198e-19)
(0.0743288 0.13194 0)
(0.129603 0.0835934 1.22747e-19)
(0.193608 0.0293249 -2.28928e-19)
(0.265881 -0.0298113 2.12787e-19)
(0.345388 -0.0922673 -1.99826e-19)
(0.430273 -0.155863 0)
(0.517764 -0.217789 1.59099e-19)
(0.604346 -0.274878 2.68631e-19)
(0.686196 -0.324045 -2.50321e-19)
(0.759765 -0.362823 -1.00294e-19)
(0.822507 -0.389659 -6.66979e-20)
(0.872644 -0.404494 2.00289e-19)
(0.911329 -0.407434 4.32699e-20)
(0.935771 -0.401925 -4.95138e-20)
(0.960114 -0.385861 2.99129e-20)
(-0.0242103 0.0521067 -8.93581e-20)
(-0.0543428 0.130788 2.77991e-19)
(-0.0663346 0.188048 -8.80402e-20)
(-0.0644634 0.223824 1.64621e-19)
(-0.0509212 0.24018 -1.54985e-19)
(-0.0268404 0.24016 -1.52292e-21)
(0.00709328 0.226708 6.97675e-20)
(0.0505341 0.202206 2.75017e-19)
(0.103373 0.168378 5.72791e-21)
(0.165591 0.126452 -1.24344e-19)
(0.237163 0.0774291 0)
(0.317752 0.0222959 -1.13915e-19)
(0.406349 -0.0376306 2.14371e-19)
(0.501015 -0.100415 1.95507e-19)
(0.598628 -0.163435 -9.39015e-20)
(0.695009 -0.223531 -2.29908e-22)
(0.785442 -0.277386 -7.02486e-20)
(0.865478 -0.322066 1.20629e-19)
(0.931717 -0.355549 1.00265e-19)
(0.982513 -0.376901 -8.19166e-20)
(1.01754 -0.386822 6.79814e-20)
(1.03947 -0.385724 -5.43446e-20)
(1.04746 -0.378247 0)
(1.05487 -0.359757 -2.99328e-20)
(-0.0228943 0.0424155 9.22601e-20)
(-0.0517886 0.110107 -9.32986e-20)
(-0.0611373 0.16218 8.84621e-20)
(-0.0542865 0.196429 0)
(-0.0333017 0.213341 0)
(0.000511385 0.214811 1.48252e-19)
(0.0461877 0.203049 -1.40048e-19)
(0.103118 0.180069 1.36613e-19)
(0.17099 0.147498 -6.4498e-19)
(0.249643 0.106671 -2.16846e-21)
(0.338676 0.0587492 1.16912e-19)
(0.437014 0.00498096 0)
(0.542511 -0.0528743 -2.09333e-19)
(0.651595 -0.112454 3.89008e-19)
(0.759356 -0.170825 -2.70344e-19)
(0.860143 -0.224777 -3.88405e-19)
(0.948546 -0.271296 2.1483e-20)
(1.02043 -0.30808 2.49317e-19)
(1.07367 -0.333924 0)
(1.10845 -0.348728 0)
(1.12651 -0.353811 -6.79984e-20)
(1.132 -0.349834 5.43619e-20)
(1.12584 -0.341899 -1.63349e-19)
(1.11983 -0.323316 1.53168e-19)
(-0.0213195 0.0335162 0)
(-0.0484021 0.0886333 0)
(-0.0554758 0.132308 -2.65762e-19)
(-0.0444865 0.161627 8.42346e-20)
(-0.0169642 0.176236 1.23538e-22)
(0.0259404 0.177188 1.46347e-19)
(0.0832721 0.166014 0)
(0.15435 0.144295 -1.31969e-19)
(0.238682 0.113493 1.28084e-19)
(0.335583 0.0749287 -2.41735e-19)
(0.443671 0.0299136 -1.74227e-21)
(0.56032 -0.0198993 2.18777e-19)
(0.6813 -0.0724022 -1.68025e-21)
(0.800873 -0.12501 1.827e-19)
(0.912464 -0.174851 -2.66464e-19)
(1.00979 -0.219148 0)
(1.0881 -0.255654 2.60301e-19)
(1.14498 -0.283018 -3.62901e-19)
(1.18072 -0.300916 9.74351e-20)
(1.19778 -0.309963 0)
(1.19995 -0.311625 6.79847e-20)
(1.19205 -0.306718 2.10033e-19)
(1.17605 -0.299847 -1.97166e-19)
(1.16159 -0.283036 -1.75106e-19)
(-0.0200424 0.0263913 2.81554e-19)
(-0.0445327 0.0690994 -3.84886e-19)
(-0.048397 0.102653 1.82977e-21)
(-0.0322968 0.124675 8.47453e-20)
(0.00291944 0.134702 -1.56829e-19)
(0.0564587 0.133363 -1.47014e-19)
(0.127521 0.121726 2.77932e-19)
(0.215286 0.101027 3.8908e-21)
(0.318625 0.072534 -2.4818e-19)
(0.435572 0.0375592 4.77452e-19)
(0.562739 -0.00238234 4.20918e-21)
(0.694995 -0.0454604 -2.12774e-19)
(0.825646 -0.0895053 0)
(0.947228 -0.132131 0)
(1.05276 -0.171004 -8.48182e-20)
(1.13707 -0.204171 -1.44909e-19)
(1.19769 -0.230345 -2.50059e-19)
(1.23512 -0.249057 2.34784e-19)
(1.25227 -0.260575 -9.75207e-20)
(1.25345 -0.26583 1.52822e-19)
(1.24351 -0.265913 -8.4295e-20)
(1.2268 -0.261903 9.11943e-20)
(1.20588 -0.256669 -2.4366e-19)
(1.18743 -0.24283 3.74262e-20)
(-0.0192242 0.0211916 9.49451e-20)
(-0.0398354 0.0527266 0)
(-0.0380866 0.0759628 1.80472e-19)
(-0.01389 0.0898084 -1.6999e-19)
(0.0324412 0.0942204 1.5698e-19)
(0.100378 0.0897789 0)
(0.189001 0.0773434 0)
(0.296742 0.0579364 -1.31343e-19)
(0.420904 0.0327013 -2.12838e-21)
(0.557137 0.00293056 1.15481e-19)
(0.699219 -0.0298857 -1.09675e-19)
(0.839397 -0.0640546 2.08226e-19)
(0.969352 -0.0977608 0)
(1.08158 -0.129234 3.46589e-19)
(1.17073 -0.15696 -6.35871e-19)
(1.23451 -0.17987 4.3654e-19)
(1.27373 -0.197446 2.38702e-19)
(1.2917 -0.209722 -2.24138e-19)
(1.29315 -0.217135 0)
(1.28298 -0.220501 0)
(1.26574 -0.220341 0)
(1.24444 -0.218173 0)
(1.22216 -0.213686 4.59828e-20)
(1.20138 -0.205244 -1.43809e-19)
(0.256437 -0.0139881 1.11128e-21)
(0.34662 -0.00794206 -1.11257e-21)
(0.429273 -0.00265769 4.53571e-23)
(0.504601 0.00186754 0)
(0.572411 0.00578139 1.54036e-21)
(0.632492 0.00916847 -2.93993e-21)
(0.684877 0.0120538 8.2424e-23)
(0.729902 0.0144528 1.28309e-21)
(0.768132 0.0164463 0)
(0.800388 0.0181643 0)
(0.82751 0.0196117 5.43129e-23)
(0.850192 0.0208574 4.80236e-23)
(0.869169 0.0218816 6.93361e-22)
(0.885134 0.0226759 -6.3267e-22)
(0.898643 0.023327 0)
(0.910165 0.0238953 0)
(0.920097 0.0244553 -4.08186e-22)
(0.928741 0.0250445 3.03118e-23)
(0.936317 0.025682 3.34666e-22)
(0.942988 0.0263705 1.93254e-23)
(0.948882 0.027101 0)
(0.954099 0.0278619 0)
(0.958728 0.0286453 0)
(0.962846 0.0294488 0)
(0.966517 0.0302739 0)
(0.9698 0.0311246 0)
(0.972744 0.0320058 -6.15735e-23)
(0.97539 0.0329228 1.00072e-22)
(0.977775 0.0338813 0)
(0.97993 0.034887 0)
(0.981881 0.035946 6.3778e-23)
(0.983651 0.0370644 -6.19861e-23)
(0.985259 0.0382485 -2.88484e-23)
(0.986724 0.0395049 0)
(0.98806 0.0408404 0)
(0.989279 0.0422621 -4.85858e-23)
(0.990395 0.0437776 4.72284e-23)
(0.991417 0.0453949 0)
(0.992354 0.0471225 -4.18801e-23)
(0.993216 0.0489699 6.08732e-23)
(0.994008 0.0509471 -1.91951e-23)
(0.994739 0.0530653 0)
(0.995415 0.0553362 3.43421e-23)
(0.99604 0.0577728 -3.33942e-23)
(0.996621 0.060389 0)
(0.997162 0.0631999 0)
(0.997668 0.0662216 1.37374e-23)
(0.998143 0.0694713 -3.96298e-23)
(0.998591 0.0729675 0)
(0.999015 0.0767314 0)
(0.999423 0.0807756 1.02335e-23)
(0.999806 0.0851552 2.93527e-26)
(1.00019 0.0897698 7.19714e-25)
(1.00054 0.095042 -7.35185e-24)
(1.00092 0.0998259 0)
(1.00124 0.10716 0)
(1.0016 0.110276 0)
(1.00196 0.122201 0)
(1.00222 0.122179 0)
(1.00267 0.137517 0)
(0.308782 -0.129645 6.18811e-23)
(0.3904 -0.111238 5.20434e-21)
(0.464356 -0.0938124 7.856e-22)
(0.532165 -0.0776608 -5.64243e-21)
(0.593752 -0.062641 -8.90577e-23)
(0.648722 -0.0488702 0)
(0.696942 -0.0365514 5.11097e-21)
(0.738689 -0.0258219 -9.75275e-21)
(0.774538 -0.0166552 4.6414e-21)
(0.805044 -0.00889031 -3.74647e-21)
(0.830839 -0.00244016 3.58725e-21)
(0.852586 0.00285197 -2.88835e-21)
(0.870864 0.00722227 2.81035e-21)
(0.886327 0.0108417 7.47721e-23)
(0.899514 0.0137032 2.05319e-21)
(0.910833 0.015931 -1.99543e-21)
(0.92064 0.0177701 1.639e-21)
(0.929197 0.0193844 -1.54519e-21)
(0.936717 0.020864 1.34802e-21)
(0.943359 0.0222521 -2.50895e-21)
(0.949239 0.0235696 1.16656e-21)
(0.954455 0.0248264 6.40318e-23)
(0.959089 0.0260296 9.10671e-22)
(0.963215 0.0271887 -1.72205e-21)
(0.966898 0.0283153 8.13458e-22)
(0.970195 0.0294221 -4.57589e-23)
(0.973153 0.0305213 -6.86211e-22)
(0.975814 0.0316247 6.26034e-24)
(0.978215 0.032743 1.18314e-21)
(0.980387 0.0338863 -1.10865e-21)
(0.982355 0.0350642 5.29302e-22)
(0.984143 0.0362856 -6.13366e-23)
(0.985771 0.0375593 2.89071e-23)
(0.987255 0.0388938 -5.48176e-23)
(0.988612 0.0402975 0)
(0.989853 0.041779 0)
(0.990991 0.0433468 1.85467e-22)
(0.992036 0.0450102 -1.3567e-22)
(0.992998 0.0467785 -1.25565e-22)
(0.993884 0.0486616 -1.68315e-23)
(0.994704 0.0506704 1.7476e-22)
(0.995463 0.0528163 -3.66369e-23)
(0.996167 0.0551116 0)
(0.996824 0.0575698 0)
(0.997437 0.0602051 0)
(0.998012 0.0630327 0)
(0.998553 0.066069 -5.59976e-23)
(0.999065 0.0693317 2.62945e-23)
(0.999552 0.0728392 0)
(1.00002 0.076613 0)
(1.00047 0.0806657 0)
(1.00089 0.0850532 1.79446e-23)
(1.00132 0.0896734 -1.35452e-24)
(1.00172 0.0949541 1.54659e-23)
(1.00214 0.0997373 0)
(1.00251 0.107086 0)
(1.00292 0.110193 -7.93199e-24)
(1.0033 0.122134 -1.87566e-23)
(1.00362 0.122114 0)
(1.00411 0.137458 0)
(0.420797 -0.228302 -4.3486e-21)
(0.485437 -0.200315 4.61039e-21)
(0.542084 -0.173171 -1.00023e-20)
(0.594563 -0.147356 9.38279e-21)
(0.643062 -0.12292 8.96647e-23)
(0.686944 -0.100322 0)
(0.725962 -0.0800273 9.88707e-21)
(0.760277 -0.0622269 -9.67098e-21)
(0.790263 -0.0469207 -6.75989e-23)
(0.816312 -0.0339953 -1.15227e-22)
(0.838825 -0.0231768 -1.03633e-22)
(0.858281 -0.0142391 -9.56403e-23)
(0.875107 -0.00689877 5.15832e-21)
(0.889507 -0.000945219 -5.08848e-21)
(0.90178 0.00385966 0)
(0.912438 0.0078596 -1.17957e-22)
(0.921831 0.0110398 3.28161e-21)
(0.930125 0.0136784 -3.23684e-21)
(0.937467 0.0159886 0)
(0.943985 0.0180738 0)
(0.949784 0.0199811 2.26325e-21)
(0.954947 0.0217377 -4.26024e-21)
(0.959549 0.0233646 3.77703e-21)
(0.963657 0.024883 -1.4969e-22)
(0.967332 0.0263144 -3.14303e-21)
(0.970627 0.0276798 2.99808e-21)
(0.973588 0.0289991 -2.65384e-21)
(0.976257 0.0302902 1.31812e-22)
(0.978668 0.0315692 1.21387e-21)
(0.980852 0.0328508 0)
(0.982834 0.0341479 0)
(0.984638 0.0354726 -3.63285e-22)
(0.986283 0.0368361 4.72914e-22)
(0.987786 0.0382488 -8.74986e-26)
(0.989162 0.0397208 -4.1316e-22)
(0.990424 0.041262 4.01525e-22)
(0.991584 0.0428821 0)
(0.992652 0.0445913 -4.47942e-23)
(0.993637 0.0463999 -3.80472e-22)
(0.994549 0.0483187 7.31248e-22)
(0.995395 0.0503589 -3.12595e-22)
(0.996182 0.0525325 -3.68544e-23)
(0.996916 0.0548524 3.46578e-22)
(0.997603 0.0573322 -2.68885e-22)
(0.998248 0.0599865 -6.30024e-23)
(0.998857 0.0628311 -5.95893e-23)
(0.999434 0.0658825 5.61402e-23)
(0.999983 0.0691585 0)
(1.00051 0.0726779 0)
(1.00101 0.0764624 1.81278e-22)
(1.00151 0.0805246 -8.70029e-23)
(1.00198 0.0849212 7.74369e-23)
(1.00245 0.0895485 -1.04841e-22)
(1.00289 0.0948395 -1.2076e-22)
(1.00336 0.0996243 2.83348e-23)
(1.00377 0.106991 -4.50176e-23)
(1.00424 0.110091 3.59252e-23)
(1.00464 0.122053 -1.54688e-23)
(1.00502 0.122033 0)
(1.00555 0.137394 0)
(0.563472 -0.302362 5.42836e-22)
(0.606793 -0.268652 7.90481e-21)
(0.642196 -0.235195 -8.0889e-21)
(0.675727 -0.202594 1.44358e-22)
(0.707904 -0.17133 0)
(0.737783 -0.14225 0)
(0.765022 -0.116073 1.78534e-20)
(0.789753 -0.093063 -4.52708e-22)
(0.812165 -0.0731536 -2.39556e-20)
(0.832393 -0.0561431 5.93352e-22)
(0.850544 -0.0417638 6.88288e-21)
(0.866748 -0.0297446 5.47381e-21)
(0.881119 -0.0198899 -5.49279e-21)
(0.893848 -0.0119498 0)
(0.90519 -0.00550604 4.06181e-21)
(0.915099 -0.000249095 -3.71112e-21)
(0.923757 0.00420734 0)
(0.93156 0.0079346 0)
(0.938589 0.0110753 -2.67008e-21)
(0.944891 0.0138417 1.71686e-22)
(0.950535 0.0163321 2.28249e-21)
(0.95559 0.0185884 2.07939e-21)
(0.960119 0.0206414 -2.07551e-21)
(0.964178 0.022522 1.7534e-21)
(0.967822 0.0242614 -1.32063e-22)
(0.971099 0.0258888 -1.52404e-21)
(0.974052 0.0274309 -1.72407e-22)
(0.976719 0.028912 1.89498e-26)
(0.979133 0.0303536 0)
(0.981324 0.0317746 -1.10702e-21)
(0.983318 0.0331918 1.14164e-21)
(0.985135 0.0346204 -6.22107e-23)
(0.986795 0.0360741 0)
(0.988314 0.0375654 5.55641e-23)
(0.989708 0.0391061 -8.33439e-22)
(0.99099 0.0407074 1.50109e-21)
(0.992171 0.0423801 7.83476e-23)
(0.993261 0.0441353 -1.54237e-23)
(0.994271 0.0459841 -6.09198e-22)
(0.995207 0.0479383 -8.17677e-23)
(0.99608 0.0500098 6.16427e-22)
(0.996894 0.052211 -5.25027e-22)
(0.997657 0.0545553 9.45268e-26)
(0.998375 0.0570567 -2.64026e-22)
(0.999053 0.0597302 3.19906e-22)
(0.999696 0.0625919 4.15673e-22)
(1.00031 0.0656585 -1.16382e-22)
(1.00089 0.0689483 -2.08113e-22)
(1.00146 0.0724802 3.96317e-22)
(1.00201 0.0762762 -2.80706e-22)
(1.00254 0.080349 7.98839e-23)
(1.00305 0.0847561 -8.81774e-23)
(1.00357 0.0893919 -7.56352e-23)
(1.00406 0.094695 1.83251e-22)
(1.00458 0.0994841 -3.32003e-24)
(1.00502 0.10687 4.53008e-23)
(1.00556 0.109968 0)
(1.00598 0.121954 1.56448e-23)
(1.00641 0.121936 -2.20738e-23)
(1.00699 0.137324 0)
(0.71048 -0.348725 9.61495e-21)
(0.731615 -0.313607 -9.69753e-21)
(0.745781 -0.277788 3.27277e-22)
(0.7603 -0.241833 -1.1425e-20)
(0.776065 -0.206814 2.50712e-20)
(0.791882 -0.174003 1.37759e-21)
(0.807206 -0.144236 -1.46835e-20)
(0.822132 -0.117845 -1.47718e-20)
(0.836718 -0.094837 1.44758e-20)
(0.850827 -0.0750287 0)
(0.864271 -0.058146 1.19281e-20)
(0.876914 -0.0438907 -2.24367e-20)
(0.888666 -0.031986 1.05506e-20)
(0.899454 -0.0221542 0)
(0.909266 -0.014186 0)
(0.918271 -0.00781017 -1.18239e-22)
(0.9264 -0.00248318 6.5053e-21)
(0.933582 0.00213232 -6.31987e-21)
(0.940106 0.00613811 0)
(0.946083 0.00958667 -5.02091e-21)
(0.951502 0.012645 9.16388e-21)
(0.956393 0.015393 -8.37027e-21)
(0.960803 0.0178694 7.78863e-21)
(0.964781 0.0201124 -1.88152e-22)
(0.968371 0.0221612 -6.60344e-21)
(0.971612 0.0240524 3.1728e-21)
(0.974542 0.0258193 8.72141e-23)
(0.977198 0.0274923 1.19417e-21)
(0.979609 0.0290979 -4.52566e-23)
(0.981802 0.0306596 -1.15931e-21)
(0.983802 0.0321978 -6.68269e-23)
(0.985629 0.0337308 9.93636e-22)
(0.987302 0.035275 -1.90405e-21)
(0.988837 0.0368451 1.0245e-21)
(0.990248 0.0384545 0)
(0.991548 0.0401159 9.00998e-22)
(0.99275 0.0418414 -8.73017e-22)
(0.993862 0.0436428 6.3148e-22)
(0.994894 0.0455321 -7.88923e-22)
(0.995856 0.0475216 8.26718e-23)
(0.996754 0.049624 0)
(0.997596 0.0518526 7.47843e-23)
(0.998389 0.0542211 -2.13054e-22)
(0.999137 0.0567441 0)
(0.999847 0.0594369 -6.31475e-22)
(1.00052 0.0623157 2.48112e-22)
(1.00117 0.0653978 -1.1361e-22)
(1.0018 0.0687018 -1.06839e-22)
(1.0024 0.0722466 0)
(1.00299 0.0760548 0)
(1.00356 0.0801389 2.51211e-22)
(1.00412 0.0845577 -3.8981e-22)
(1.00469 0.0892036 2.1677e-22)
(1.00522 0.0945207 -6.91177e-23)
(1.00579 0.0993165 -1.1492e-22)
(1.00628 0.106723 -4.53441e-23)
(1.00687 0.109823 7.27021e-23)
(1.00732 0.121837 0)
(1.00781 0.121822 3.53733e-23)
(1.00843 0.137246 8.3145e-24)
(0.843823 -0.36813 1.97887e-20)
(0.84483 -0.335696 -1.96456e-20)
(0.840639 -0.301437 2.50494e-24)
(0.838557 -0.265711 -8.41916e-24)
(0.839793 -0.230122 -7.90793e-23)
(0.843179 -0.196344 9.63449e-23)
(0.848001 -0.165284 -1.47103e-22)
(0.85414 -0.1373 0)
(0.861522 -0.11254 1.71563e-22)
(0.869882 -0.0909942 -1.70693e-22)
(0.878831 -0.0724479 -1.64756e-22)
(0.888006 -0.0565876 1.71462e-22)
(0.897107 -0.0431334 0)
(0.905899 -0.0318602 0)
(0.914225 -0.0225376 -1.22966e-22)
(0.922003 -0.0148966 0)
(0.9293 -0.00873324 1.02354e-22)
(0.936037 -0.00352564 0)
(0.942073 0.00114881 5.1705e-21)
(0.947585 0.00530346 -9.90983e-21)
(0.95269 0.00893262 9.06381e-21)
(0.957359 0.0121609 -4.33698e-21)
(0.961607 0.0150534 -3.76217e-21)
(0.965469 0.0176565 3.65347e-21)
(0.968978 0.0200152 3.31133e-21)
(0.972164 0.0221716 -3.21087e-21)
(0.975059 0.0241651 0)
(0.977693 0.0260316 -8.22425e-23)
(0.980092 0.027803 0)
(0.982282 0.0295066 0)
(0.984284 0.031167 -2.00192e-21)
(0.986119 0.0328053 2.07547e-21)
(0.987803 0.0344405 -1.20581e-22)
(0.989351 0.0360895 -1.13959e-22)
(0.990778 0.0377677 1.08044e-22)
(0.992097 0.0394891 8.10625e-22)
(0.993317 0.0412672 -7.87098e-22)
(0.994451 0.0431149 8.24375e-22)
(0.995506 0.0450449 -7.10753e-22)
(0.996492 0.0470699 -1.67188e-22)
(0.997416 0.0492033 6.29286e-22)
(0.998286 0.0514591 6.25583e-23)
(0.999107 0.0538517 -4.37154e-22)
(0.999887 0.0563961 0)
(1.00063 0.059108 2.57756e-22)
(1.00134 0.0620041 -3.58135e-22)
(1.00202 0.0651019 4.65903e-22)
(1.00269 0.0684202 1.0752e-22)
(1.00333 0.0719784 0)
(1.00396 0.0757994 -8.85326e-23)
(1.00458 0.0798958 1.76719e-22)
(1.00519 0.0843274 -1.79074e-25)
(1.00579 0.0889846 7.10262e-23)
(1.00638 0.0943174 -1.19155e-22)
(1.00699 0.0991222 1.15411e-22)
(1.00752 0.106552 0)