/*--------------------------------*- C++ -*----------------------------------*\
| =========                 |                                                 |
| \\      /  F ield         | OpenFOAM: The Open Source CFD Toolbox           |
|  \\    /   O peration     | Version:  2512                                  |
|   \\  /    A nd           | Website:  www.openfoam.com                      |
|    \\/     M anipulation  |                                                 |
\*---------------------------------------------------------------------------*/
FoamFile
{
    version     2.0;
    format      ascii;
    arch        "LSB;label=32;scalar=64";
    class       volScalarField;
    location    "18.5";
    object      p;
}
// * * * * * * * * * * * * * * * * * * * * * * * * * * * * * * * * * * * * * //

dimensions      [0 2 -2 0 0 0 0];

internalField   nonuniform List<scalar> 
13248
(
-0.308989
-0.307539
-0.305454
-0.302912
-0.300121
-0.297275
-0.294526
-0.291972
-0.289665
-0.287617
-0.285803
-0.284167
-0.282633
-0.281109
-0.279497
-0.277704
-0.275642
-0.273243
-0.27045
-0.267256
-0.26355
-0.259522
-0.254424
-0.249223
-0.315945
-0.31387
-0.31117
-0.308033
-0.304664
-0.301275
-0.298005
-0.294935
-0.292087
-0.289437
-0.286923
-0.284459
-0.281947
-0.279286
-0.276389
-0.273182
-0.269615
-0.26566
-0.261306
-0.256554
-0.251389
-0.245835
-0.239705
-0.233703
-0.324421
-0.321516
-0.318074
-0.314269
-0.310276
-0.306297
-0.302451
-0.298778
-0.295252
-0.291804
-0.28834
-0.284758
-0.280967
-0.276894
-0.272495
-0.267754
-0.262679
-0.257298
-0.251643
-0.245754
-0.239623
-0.233318
-0.226706
-0.220301
-0.334548
-0.330611
-0.326304
-0.321758
-0.317078
-0.312434
-0.307899
-0.303447
-0.298999
-0.29445
-0.289699
-0.284668
-0.279313
-0.273629
-0.267642
-0.261404
-0.254976
-0.248419
-0.24178
-0.235093
-0.228361
-0.221628
-0.214789
-0.208365
-0.346396
-0.341249
-0.335969
-0.330609
-0.325158
-0.31972
-0.314295
-0.308787
-0.303074
-0.297052
-0.290662
-0.283899
-0.276805
-0.269459
-0.261955
-0.254387
-0.246835
-0.239354
-0.231978
-0.224719
-0.217572
-0.210548
-0.203585
-0.197043
-0.359957
-0.353452
-0.347123
-0.34088
-0.334535
-0.328093
-0.321467
-0.314512
-0.30711
-0.299221
-0.290885
-0.282207
-0.273325
-0.264385
-0.255514
-0.246808
-0.23833
-0.23011
-0.222154
-0.214452
-0.206986
-0.199744
-0.192678
-0.186042
-0.375117
-0.367162
-0.35973
-0.352516
-0.345085
-0.337316
-0.32906
-0.320179
-0.31064
-0.300538
-0.290054
-0.279407
-0.268802
-0.25841
-0.248348
-0.238682
-0.229438
-0.220614
-0.212187
-0.204129
-0.196409
-0.188994
-0.181857
-0.17513
-0.391607
-0.382172
-0.373601
-0.365283
-0.356473
-0.346934
-0.336522
-0.32521
-0.313143
-0.3006
-0.287903
-0.275349
-0.263161
-0.251488
-0.240402
-0.229924
-0.220038
-0.210711
-0.201896
-0.19355
-0.185628
-0.17809
-0.170913
-0.164123
-0.408958
-0.398082
-0.388337
-0.378708
-0.368114
-0.356266
-0.34315
-0.32897
-0.314119
-0.299063
-0.284224
-0.269914
-0.256325
-0.243545
-0.23159
-0.220428
-0.210008
-0.200267
-0.191141
-0.182573
-0.174506
-0.166895
-0.159712
-0.152896
-0.42647
-0.414256
-0.403276
-0.392036
-0.379161
-0.364442
-0.348154
-0.330831
-0.313127
-0.295649
-0.278845
-0.262986
-0.248191
-0.234474
-0.22179
-0.210063
-0.19921
-0.189144
-0.179786
-0.171064
-0.162913
-0.155283
-0.148124
-0.141324
-0.443214
-0.429804
-0.417475
-0.404234
-0.388541
-0.370457
-0.350688
-0.330141
-0.309687
-0.289992
-0.271462
-0.25428
-0.238474
-0.223986
-0.210713
-0.198544
-0.187365
-0.177073
-0.167573
-0.158781
-0.150624
-0.143042
-0.135952
-0.129237
-0.45811
-0.443692
-0.429873
-0.414195
-0.395153
-0.373294
-0.349864
-0.326135
-0.303118
-0.281456
-0.261455
-0.243185
-0.226576
-0.211498
-0.1978
-0.185335
-0.173966
-0.163574
-0.154049
-0.145297
-0.137241
-0.129807
-0.122882
-0.116399
-0.270918
-0.273552
-0.275255
-0.276477
-0.277611
-0.278771
-0.28001
-0.281367
-0.282861
-0.284497
-0.286274
-0.288187
-0.290226
-0.292381
-0.29464
-0.296992
-0.299419
-0.301909
-0.304448
-0.307023
-0.309616
-0.312219
-0.314907
-0.317823
-0.271497
-0.273966
-0.275572
-0.276732
-0.277816
-0.278929
-0.280123
-0.281436
-0.282886
-0.284478
-0.286212
-0.288084
-0.290085
-0.292209
-0.294445
-0.296782
-0.29921
-0.301713
-0.304283
-0.306913
-0.309582
-0.312256
-0.315012
-0.318235
-0.27317
-0.275305
-0.276716
-0.277755
-0.278741
-0.279768
-0.280885
-0.282125
-0.283504
-0.285029
-0.286699
-0.288509
-0.290456
-0.292532
-0.294729
-0.297039
-0.29945
-0.301949
-0.304525
-0.307172
-0.309874
-0.312556
-0.315222
-0.318614
-0.275683
-0.277368
-0.278505
-0.279365
-0.280199
-0.281089
-0.282078
-0.283195
-0.284457
-0.285866
-0.287423
-0.289126
-0.290969
-0.292948
-0.295058
-0.297289
-0.299631
-0.302069
-0.304588
-0.307179
-0.309834
-0.312471
-0.314932
-0.317904
-0.278726
-0.279911
-0.280723
-0.281347
-0.281969
-0.282656
-0.283449
-0.284373
-0.285444
-0.286665
-0.288037
-0.289558
-0.291224
-0.293033
-0.294979
-0.297055
-0.299252
-0.301555
-0.303945
-0.306403
-0.308916
-0.311424
-0.313711
-0.316231
-0.282005
-0.282702
-0.283166
-0.283507
-0.283852
-0.28426
-0.284774
-0.285419
-0.286212
-0.287157
-0.288258
-0.289512
-0.290919
-0.292476
-0.29418
-0.296026
-0.298004
-0.300101
-0.302297
-0.304566
-0.306874
-0.309178
-0.31136
-0.312988
-0.285302
-0.285578
-0.285694
-0.285711
-0.285715
-0.285768
-0.285918
-0.286196
-0.286622
-0.287207
-0.287956
-0.28887
-0.28995
-0.291194
-0.292601
-0.294165
-0.295878
-0.297723
-0.299678
-0.30171
-0.303792
-0.305767
-0.308009
-0.308371
-0.288524
-0.288467
-0.288252
-0.287912
-0.28752
-0.287151
-0.286863
-0.2867
-0.28669
-0.286852
-0.287195
-0.287724
-0.288443
-0.28935
-0.290439
-0.291708
-0.293142
-0.294723
-0.296419
-0.298174
-0.300012
-0.301466
-0.303837
-0.302906
-0.291715
-0.291413
-0.290881
-0.290157
-0.289327
-0.288486
-0.28771
-0.28706
-0.286576
-0.286286
-0.286205
-0.286342
-0.286698
-0.287271
-0.288054
-0.289029
-0.290174
-0.291456
-0.29284
-0.294222
-0.295749
-0.296561
-0.298823
-0.297027
-0.295056
-0.294557
-0.293707
-0.292574
-0.291277
-0.289936
-0.288651
-0.287501
-0.286539
-0.2858
-0.285306
-0.285063
-0.285068
-0.285306
-0.285755
-0.286382
-0.287146
-0.287997
-0.288897
-0.289723
-0.290693
-0.290906
-0.292575
-0.290533
-0.298831
-0.29812
-0.296923
-0.295352
-0.293564
-0.291711
-0.289915
-0.288271
-0.286841
-0.285667
-0.284765
-0.284133
-0.283752
-0.283588
-0.283594
-0.28371
-0.283872
-0.284013
-0.284077
-0.283999
-0.28392
-0.283437
-0.284011
-0.282132
-0.303372
-0.302363
-0.300759
-0.29871
-0.29641
-0.294039
-0.291738
-0.289613
-0.287728
-0.286118
-0.284786
-0.28371
-0.282844
-0.282127
-0.28148
-0.280819
-0.280057
-0.279114
-0.277914
-0.276444
-0.274667
-0.272737
-0.271158
-0.269391
-0.321384
-0.324767
-0.32747
-0.329036
-0.329063
-0.327058
-0.322476
-0.314788
-0.303629
-0.288817
-0.269953
-0.246899
-0.219841
-0.189226
-0.155804
-0.120705
-0.0856869
-0.0520427
-0.0210809
0.00574288
0.0277223
0.0445087
0.0562307
0.0634219
0.0668397
0.0673189
0.065669
0.062584
0.0586452
0.0542708
0.0497875
0.0453442
0.0410865
0.0371032
0.0334212
0.0300511
0.026994
0.0242372
0.021756
0.0195223
0.017511
0.0156886
0.0140329
0.0125208
0.0111446
0.0098947
0.00876541
0.00774921
0.00683341
0.0060102
0.00526257
0.00458649
0.0039592
0.00338697
0.00283605
0.00232659
0.00181046
0.00132331
0.000797121
0.000289666
-0.322803
-0.326753
-0.330098
-0.332372
-0.333158
-0.331921
-0.328019
-0.320737
-0.310557
-0.296205
-0.277577
-0.254561
-0.22731
-0.196286
-0.162343
-0.126059
-0.0900979
-0.0553645
-0.0235256
0.00410941
0.0267198
0.0439552
0.0559722
0.0633406
0.0668628
0.0674067
0.0657748
0.0626954
0.0587371
0.0543408
0.0498385
0.0453801
0.0411308
0.0371583
0.0334823
0.0301134
0.0270539
0.0242958
0.0218111
0.0195775
0.0175649
0.0157429
0.0140829
0.0125679
0.0111854
0.00993084
0.00879615
0.00777586
0.00685609
0.0060296
0.00527951
0.00460036
0.00397209
0.00339662
0.00284571
0.00233275
0.00181746
0.00132586
0.00080141
0.000287646
-0.324838
-0.329425
-0.333483
-0.336582
-0.338288
-0.338056
-0.335255
-0.329424
-0.319633
-0.305996
-0.287885
-0.265185
-0.238024
-0.206873
-0.173006
-0.134352
-0.0979707
-0.062294
-0.0293915
-0.000719067
0.022797
0.0407881
0.053425
0.0612979
0.0652344
0.066125
0.0647726
0.0619267
0.0581727
0.0539441
0.0495129
0.0451214
0.0409017
0.0369577
0.0333312
0.0300159
0.0269938
0.0242658
0.0217937
0.0195721
0.0175692
0.015758
0.0141025
0.012592
0.011209
0.00995441
0.00881764
0.00779573
0.00687371
0.00604522
0.00529354
0.00461199
0.00398321
0.00340493
0.00285433
0.00233816
0.00182393
0.00132814
0.000805529
0.000285638
-0.326435
-0.331248
-0.335981
-0.339928
-0.342503
-0.343281
-0.341477
-0.336638
-0.328127
-0.315288
-0.29801
-0.275963
-0.249253
-0.218214
-0.183649
-0.146096
-0.108504
-0.0718958
-0.0380318
-0.00837099
0.0161136
0.0350248
0.0485218
0.0571871
0.0618465
0.0633864
0.062606
0.0602244
0.0568408
0.0528991
0.0486937
0.0445234
0.0405022
0.0366759
0.033076
0.0297732
0.0267941
0.0241384
0.0217069
0.0195118
0.0175286
0.0157364
0.0140937
0.0125944
0.0112166
0.00996624
0.00883069
0.00780953
0.00688692
0.00605762
0.00530516
0.00462186
0.00399295
0.00341229
0.00286214
0.00234313
0.00183
0.00133037
0.000809518
0.000283792
-0.325543
-0.331424
-0.336393
-0.340929
-0.344345
-0.345957
-0.345124
-0.341401
-0.33399
-0.322505
-0.306384
-0.285408
-0.259586
-0.22922
-0.195009
-0.157957
-0.12014
-0.0831404
-0.0486918
-0.0182888
0.00705707
0.0269183
0.041419
0.0510984
0.0567443
0.0592077
0.0592679
0.0575875
0.0547755
0.0512958
0.0474799
0.0435913
0.0397712
0.036097
0.0326707
0.0295093
0.0265878
0.0238988
0.0215313
0.0193926
0.0174454
0.0156801
0.0140577
0.0125754
0.0112082
0.00996613
0.00883511
0.00781702
0.00689556
0.0060667
0.00531427
0.00462994
0.00400122
0.00341869
0.0028691
0.0023477
0.0018356
0.00133263
0.000813307
0.000282204
-0.322905
-0.329459
-0.334387
-0.339195
-0.343241
-0.345626
-0.345752
-0.342977
-0.336725
-0.326429
-0.311642
-0.292044
-0.267557
-0.238426
-0.205293
-0.169228
-0.131934
-0.0951388
-0.0605921
-0.0298026
-0.00380277
0.0169459
0.0325091
0.0433467
0.0501676
0.0537641
0.0548808
0.0541117
0.05205
0.0491804
0.0458571
0.0423426
0.0388126
0.0353787
0.0321215
0.0290737
0.0262683
0.0236929
0.0213261
0.019214
0.0173218
0.0155923
0.0139967
0.0125361
0.0111843
0.00995416
0.00883083
0.00781804
0.00689944
0.00607227
0.0053207
0.0046361
0.00400788
0.00342409
0.00287508
0.00235185
0.00184063
0.00133493
0.000816807
0.000280982
-0.318567
-0.325448
-0.330147
-0.334902
-0.339243
-0.342109
-0.342879
-0.340982
-0.335808
-0.326759
-0.313359
-0.29527
-0.272392
-0.244959
-0.213521
-0.179057
-0.143017
-0.10708
-0.0729691
-0.0421933
-0.0157988
0.00571268
0.0223232
0.0343834
0.0424879
0.0473474
0.0496526
0.0499498
0.048775
0.0466271
0.0438854
0.0408281
0.037654
0.0344958
0.0314448
0.0285599
0.0258713
0.023371
0.0210907
0.0190208
0.0171545
0.0154734
0.0139139
0.0124786
0.011146
0.00993097
0.00881811
0.00781264
0.00689853
0.00607425
0.00532433
0.00464028
0.00401282
0.00342844
0.00287997
0.00235556
0.00184498
0.00133732
0.000819929
0.000280257
-0.312749
-0.319434
-0.32372
-0.328258
-0.332587
-0.335612
-0.336771
-0.335534
-0.331264
-0.323384
-0.311409
-0.294967
-0.273907
-0.248405
-0.219028
-0.186732
-0.152667
-0.118268
-0.0851415
-0.0547862
-0.0282747
-0.00616508
0.0114167
0.0246886
0.0341091
0.0402798
0.0438259
0.0452769
0.0450801
0.0437296
0.041633
0.0390902
0.0363194
0.0334749
0.0306655
0.0279642
0.025411
0.0230296
0.0208317
0.0188216
0.0169961
0.0153213
0.0138101
0.0124045
0.0110948
0.00989736
0.00879735
0.007801
0.00689284
0.00607261
0.00532509
0.00464241
0.00401594
0.0034317
0.00288368
0.00235884
0.00184857
0.00133985
0.000822591
0.00028019
-0.305544
-0.311084
-0.314864
-0.319198
-0.323244
-0.326111
-0.327518
-0.326791
-0.323278
-0.316474
-0.305908
-0.291189
-0.272135
-0.248863
-0.221839
-0.191937
-0.160315
-0.128051
-0.0964421
-0.0669125
-0.0405746
-0.0180688
0.000346922
0.0147395
0.0254244
0.0328766
0.0376488
0.0402637
0.0411011
0.0405962
0.0391778
0.0371792
0.0348415
0.0323387
0.0297944
0.0272966
0.0249
0.0226389
0.0205315
0.0185841
0.0167942
0.0151526
0.0136885
0.0123159
0.0110322
0.00985428
0.00876908
0.00778344
0.00688258
0.00606747
0.00532302
0.00464256
0.00401722
0.00343391
0.00288616
0.00236171
0.00185132
0.00134256
0.00082473
0.00028098
-0.296619
-0.3002
-0.303772
-0.307919
-0.311249
-0.31372
-0.315281
-0.314956
-0.312123
-0.306371
-0.297245
-0.28434
-0.267454
-0.246636
-0.222244
-0.195
-0.165946
-0.136132
-0.106466
-0.0781608
-0.0523133
-0.0296518
-0.0105875
0.00478066
0.0166218
0.0252824
0.0312257
0.03495
0.0368588
0.0372703
0.0365818
0.0351568
0.0332708
0.0311236
0.0288572
0.026575
0.0243442
0.0222108
0.0201995
0.0183304
0.016585
0.0150264
0.013554
0.0122133
0.0109601
0.00980335
0.00873455
0.00776089
0.00686842
0.00605932
0.00531842
0.00464093
0.00401674
0.00343512
0.00288738
0.00236418
0.00185314
0.00134547
0.000826285
0.000282892
-0.285112
-0.287295
-0.291086
-0.294655
-0.297544
-0.300064
-0.301495
-0.301477
-0.299342
-0.294679
-0.28704
-0.276022
-0.261419
-0.243216
-0.221648
-0.19725
-0.170863
-0.143511
-0.115992
-0.0892066
-0.0641239
-0.0415064
-0.0219144
-0.00562996
0.00735319
0.0172453
0.0243959
0.0292272
0.0321589
0.0335535
0.0337041
0.0329461
0.0315771
0.0298283
0.0278679
0.0258196
0.0237666
0.0217684
0.0198598
0.0180671
0.0163946
0.0148498
0.0134338
0.0120927
0.0108785
0.00974518
0.00869407
0.00773306
0.00684976
0.00604737
0.00531045
0.00463674
0.00401372
0.00343475
0.00288669
0.00236584
0.00185356
0.00134837
0.000826972
0.000286248
-0.27162
-0.274754
-0.277779
-0.279532
-0.281348
-0.283315
-0.284422
-0.284634
-0.283124
-0.279573
-0.273504
-0.264514
-0.252378
-0.237012
-0.218514
-0.197228
-0.173735
-0.148815
-0.123304
-0.0980877
-0.0740741
-0.0519114
-0.032193
-0.0153342
-0.00147893
0.0094477
0.0176777
0.0235473
0.0274125
0.029614
0.0305134
0.0304164
0.0295974
0.0282924
0.0266843
0.0249112
0.0230716
0.0212373
0.0194548
0.0177587
0.0161596
0.0146647
0.0132711
0.0119561
0.0107765
0.00966772
0.00863727
0.00769097
0.0068192
0.0060257
0.0052944
0.00462654
0.00400538
0.00343098
0.00288264
0.00236584
0.0018518
0.00135092
0.000826255
0.000291356
-0.257733
-0.265715
-0.267724
-0.268297
-0.269687
-0.271694
-0.273134
-0.272342
-0.270413
-0.266895
-0.261109
-0.252647
-0.241303
-0.227003
-0.209835
-0.190103
-0.168324
-0.145199
-0.121491
-0.0979675
-0.0754028
-0.054448
-0.0356463
-0.01938
-0.00581289
0.00508292
0.0134782
0.0196455
0.0239027
0.0265658
0.0279265
0.0282534
0.0278109
0.0268289
0.0254936
0.0239448
0.0222915
0.0206061
0.0189456
0.0173439
0.0158242
0.0143991
0.0130514
0.011841
0.0106644
0.00957784
0.00857145
0.00764238
0.00678467
0.00600159
0.00527717
0.0046165
0.00399743
0.00342844
0.00287982
0.00236747
0.00185107
0.00135479
0.000825457
0.000297739
-0.242827
-0.253569
-0.255921
-0.255423
-0.25556
-0.256449
-0.256917
-0.256461
-0.254483
-0.250787
-0.245036
-0.236932
-0.2263
-0.213085
-0.197376
-0.179434
-0.159695
-0.138738
-0.117206
-0.0957556
-0.0750526
-0.0556851
-0.0381319
-0.0227454
-0.0097098
0.000955275
0.00935986
0.015711
0.0202674
0.0232897
0.0250302
0.0257388
0.0256613
0.0250135
0.0239745
0.0226824
0.0212472
0.0197451
0.0182369
0.0167605
0.0153437
0.0139994
0.0127262
0.0115495
0.0104443
0.00940729
0.00843658
0.00753758
0.00670277
0.00593846
0.00522804
0.00457929
0.00396831
0.0034072
0.00286323
0.00235629
0.00184222
0.00135045
0.000821281
0.000300079
-0.227607
-0.239501
-0.242328
-0.24132
-0.240588
-0.240823
-0.241096
-0.240497
-0.238361
-0.234538
-0.228907
-0.221276
-0.211483
-0.199465
-0.18529
-0.169167
-0.151441
-0.132576
-0.113113
-0.0936178
-0.074665
-0.056781
-0.0404036
-0.0258677
-0.0133731
-0.0029776
0.00537934
0.011848
0.0166323
0.0199513
0.0220307
0.0230973
0.023373
0.0230565
0.0223174
0.0212901
0.0200839
0.0187777
0.0174344
0.0160961
0.0147931
0.0135424
0.012353
0.0112388
0.0101876
0.00919718
0.00826537
0.00740001
0.00659239
0.0058507
0.00515817
0.00452434
0.00392476
0.00337358
0.00283693
0.00233684
0.00182746
0.00134118
0.000814654
0.000300291
-0.21279
-0.224518
-0.22775
-0.226801
-0.225716
-0.22557
-0.225605
-0.224806
-0.222586
-0.218812
-0.213443
-0.206359
-0.197419
-0.186556
-0.173816
-0.159361
-0.14347
-0.126521
-0.108968
-0.0912964
-0.074001
-0.0575455
-0.0423279
-0.028661
-0.0167494
-0.00667872
0.00157002
0.00809731
0.0130593
0.0166387
0.0190307
0.0204347
0.0210484
0.0210535
0.0206093
0.0198455
0.0188697
0.0177622
0.0165879
0.0153918
0.0142077
0.0130573
0.0119535
0.0109065
0.00991073
0.00896953
0.00807937
0.00724945
0.00647093
0.00575348
0.00508031
0.00446276
0.00387569
0.00333555
0.00280703
0.0023147
0.00181061
0.00133056
0.000807413
0.000299753
-0.197846
-0.209215
-0.21284
-0.212199
-0.211044
-0.210628
-0.210421
-0.20948
-0.207292
-0.203699
-0.198675
-0.192151
-0.184024
-0.174237
-0.162816
-0.14989
-0.135684
-0.120507
-0.104735
-0.0887797
-0.0730607
-0.0579834
-0.0439055
-0.0311166
-0.0198202
-0.0101222
-0.00203771
0.00449254
0.0095834
0.0133815
0.0160509
0.0177633
0.0186937
0.0190062
0.018849
0.0183452
0.0175999
0.0166934
0.0156916
0.0146424
0.0135826
0.0125369
0.0115204
0.0105449
0.00961036
0.00872244
0.00787699
0.00708503
0.00633778
0.00564649
0.00499431
0.00439456
0.00382118
0.00329324
0.0027737
0.00229003
0.00179187
0.00131868
0.000799619
0.000298479
-0.183055
-0.194095
-0.197975
-0.19765
-0.196546
-0.195966
-0.195583
-0.194617
-0.192554
-0.189214
-0.184575
-0.178613
-0.171264
-0.162483
-0.152286
-0.140771
-0.128118
-0.114577
-0.100458
-0.0861033
-0.0718702
-0.0581096
-0.04514
-0.0332274
-0.0225695
-0.0132856
-0.0054169
0.00106237
0.00623068
0.0102007
0.0131067
0.0150945
0.0163164
0.016919
0.0170378
0.0167886
0.0162721
0.0155677
0.0147417
0.0138436
0.0129125
0.0119756
0.0110508
0.0101527
0.00928377
0.00845239
0.00765467
0.00690346
0.00618997
0.0055271
0.0048979
0.0043177
0.00375956
0.00324516
0.00273578
0.00226177
0.00177051
0.00130485
0.000790897
0.000296313
-0.168929
-0.179368
-0.183316
-0.183271
-0.182298
-0.18168
-0.181231
-0.180299
-0.178402
-0.175353
-0.171129
-0.165732
-0.159132
-0.151297
-0.142233
-0.132015
-0.120785
-0.108745
-0.0961477
-0.0832777
-0.0704375
-0.0579284
-0.046031
-0.0349869
-0.0249849
-0.0161508
-0.00854485
-0.00216858
0.00302537
0.00711923
0.0102196
0.0124474
0.0139332
0.0148053
0.0151863
0.0151833
0.0148918
0.0143888
0.0137401
0.0129961
0.0121973
0.0113736
0.0105452
0.00972918
0.0089294
0.00815777
0.00741087
0.00670323
0.0060261
0.005394
0.0047899
0.00423112
0.0036899
0.00319048
0.00269259
0.00222932
0.00174612
0.00128868
0.000781076
0.000293288
-0.155397
-0.16508
-0.169007
-0.169219
-0.168427
-0.167856
-0.167417
-0.16656
-0.164855
-0.162117
-0.158325
-0.153493
-0.147612
-0.140659
-0.13264
-0.123609
-0.113678
-0.10301
-0.09181
-0.0803137
-0.0687747
-0.0574502
-0.0465847
-0.0363957
-0.0270598
-0.0187045
-0.0114031
-0.00517846
-8.98193e-06
0.00416091
0.00741249
0.00984322
0.0115624
0.0126808
0.0133072
0.0135393
0.0134663
0.0131618
0.0126901
0.0121018
0.0114383
0.0107317
0.0100032
0.00927303
0.00854621
0.00783765
0.00714466
0.00648343
0.00584527
0.00524632
0.00466951
0.00413408
0.00361159
0.00312865
0.00264372
0.00219231
0.00171844
0.00126998
0.00077007
0.000289493
-0.142385
-0.15136
-0.155217
-0.155644
-0.155043
-0.154559
-0.154175
-0.153425
-0.151928
-0.149514
-0.146157
-0.141877
-0.136676
-0.130544
-0.123485
-0.115538
-0.106791
-0.0973746
-0.0874548
-0.0772254
-0.0668977
-0.0566892
-0.0468117
-0.0374581
-0.0287917
-0.0209374
-0.0139766
-0.00794778
-0.00285021
0.00134888
0.00470798
0.00730283
0.0092228
0.0105613
0.0114136
0.0118669
0.0120035
0.0118925
0.0115958
0.0111635
0.010637
0.01005
0.00942472
0.00878372
0.0081334
0.00749117
0.0068551
0.00624308
0.00564653
0.00508315
0.0045359
0.00402582
0.00352395
0.00305907
0.00258867
0.00215031
0.00168719
0.00124853
0.000757749
0.000284988
-0.13008
-0.138337
-0.142052
-0.14264
-0.142218
-0.141841
-0.141536
-0.140914
-0.139635
-0.137542
-0.134611
-0.13086
-0.1263
-0.120929
-0.114748
-0.107789
-0.10012
-0.0918426
-0.0830927
-0.074028
-0.0648234
-0.0556618
-0.0467248
-0.038182
-0.0301821
-0.0228443
-0.0162538
-0.0104601
-0.00547856
-0.00129544
0.00212774
0.00484713
0.00693355
0.00846398
0.00951987
0.010178
0.0105126
0.0105878
0.0104623
0.0101846
0.00979552
0.00932975
0.00881007
0.00826118
0.00769046
0.00711755
0.00654131
0.00598124
0.00542892
0.00490354
0.00438816
0.00390549
0.00342625
0.00298106
0.00252691
0.00210285
0.00165202
0.00122409
0.000743933
0.000279805
-0.118553
-0.126041
-0.129555
-0.130261
-0.130003
-0.129739
-0.129527
-0.129041
-0.127982
-0.1262
-0.123675
-0.120424
-0.116462
-0.111791
-0.106414
-0.100353
-0.0936608
-0.0864188
-0.0787348
-0.0707373
-0.0625702
-0.0543864
-0.04634
-0.0385789
-0.0312363
-0.0244241
-0.0182273
-0.0127025
-0.00787706
-0.00375259
-0.000307603
0.00249668
0.00471419
0.00640644
0.00764152
0.00848547
0.00900422
0.00925614
0.0092957
0.00916945
0.00891676
0.00857279
0.00816037
0.00770578
0.00721731
0.00671633
0.00620262
0.00569713
0.0051916
0.00470662
0.00422548
0.00377228
0.00331774
0.00289396
0.00245786
0.00204946
0.00161254
0.0011964
0.000728418
0.000273962
-0.107728
-0.114474
-0.117767
-0.118557
-0.118444
-0.11829
-0.118174
-0.117826
-0.116971
-0.115484
-0.113339
-0.110554
-0.107146
-0.103116
-0.0984694
-0.0932222
-0.0874141
-0.0811093
-0.0743935
-0.0673707
-0.0601585
-0.0528837
-0.0456763
-0.0386637
-0.0319639
-0.0256797
-0.0198937
-0.0146659
-0.0100319
-0.00600543
-0.00257898
0.000271243
0.00258409
0.00440684
0.00579484
0.00680353
0.00749021
0.00790697
0.00810354
0.00812372
0.00800487
0.00778194
0.00747725
0.00711848
0.00671445
0.00628744
0.0058387
0.0053902
0.00493392
0.00449167
0.00404709
0.00362544
0.00319775
0.00279713
0.00238098
0.00198966
0.00156838
0.00116524
0.000710995
0.000267459
-0.0976072
-0.103667
-0.106726
-0.107565
-0.107571
-0.107517
-0.107492
-0.107262
-0.106597
-0.105384
-0.103595
-0.101241
-0.0983379
-0.0948919
-0.0909059
-0.0863924
-0.0813812
-0.075922
-0.0700827
-0.0639469
-0.0576101
-0.0511765
-0.0447551
-0.0384544
-0.0323778
-0.0266182
-0.0212537
-0.0163448
-0.0119327
-0.00803967
-0.00466941
-0.00181076
0.000561973
0.00248328
0.00399658
0.00514707
0.00598339
0.00655104
0.00689448
0.00705422
0.00706494
0.00696085
0.00676321
0.00650077
0.00618273
0.0058312
0.00544955
0.00506021
0.00465545
0.00425812
0.00385238
0.00346434
0.00306564
0.00268997
0.00229572
0.00192303
0.00151913
0.00113036
0.000691454
0.000260279
-0.0882242
-0.0936267
-0.0964354
-0.0972931
-0.0973961
-0.097428
-0.0974817
-0.0973641
-0.0968724
-0.0959053
-0.094436
-0.0924726
-0.090028
-0.0871083
-0.0837166
-0.0798616
-0.0755655
-0.0708664
-0.0658177
-0.0604858
-0.0549479
-0.0492892
-0.0435999
-0.0379719
-0.0324946
-0.0272505
-0.0223121
-0.0177384
-0.013573
-0.00984428
-0.00656456
-0.00373285
-0.00133464
0.000653278
0.00226348
0.00353148
0.00449739
0.00520001
0.00567822
0.00596877
0.00610312
0.00611417
0.00602174
0.00585478
0.00561958
0.00534841
0.00503562
0.00470721
0.00435599
0.0040056
0.00364089
0.00328844
0.00292085
0.00257196
0.00220158
0.00184914
0.00146442
0.00109155
0.000669598
0.000252388
-0.0795505
-0.08433
-0.0868857
-0.0877411
-0.0879209
-0.0880255
-0.0881477
-0.0881281
-0.0877893
-0.0870427
-0.0858574
-0.0842419
-0.0822071
-0.0797581
-0.0768969
-0.0736295
-0.069972
-0.0659532
-0.0616144
-0.0570081
-0.0521961
-0.0472474
-0.0422362
-0.0372396
-0.0323337
-0.0275914
-0.0230779
-0.0188495
-0.0149501
-0.0114119
-0.00825314
-0.00548094
-0.00308997
-0.00106667
0.000611842
0.00197217
0.00304629
0.00386634
0.0044654
0.00487618
0.00512655
0.00524755
0.00525715
0.00518425
0.00503573
0.0048413
0.00459791
0.00433166
0.00403569
0.00373403
0.00341233
0.00309737
0.00276295
0.00244267
0.00209811
0.00176765
0.0014039
0.00104859
0.000645253
0.000243743
-0.071542
-0.0757523
-0.0780636
-0.0789011
-0.0791398
-0.0793045
-0.0794855
-0.079551
-0.0793494
-0.0787852
-0.0778478
-0.0765391
-0.0748667
-0.0728346
-0.0704435
-0.0676972
-0.0646069
-0.0611938
-0.0574895
-0.0535349
-0.0493791
-0.0450777
-0.040691
-0.0362829
-0.0319178
-0.0276587
-0.0235639
-0.0196852
-0.0160657
-0.0127389
-0.00972729
-0.00704377
-0.00469039
-0.00266162
-0.000942961
0.000484188
0.00164421
0.00256286
0.00326738
0.00378622
0.00414329
0.00436752
0.00447459
0.0044931
0.00442916
0.00431143
0.00413774
0.00393449
0.00369505
0.00344358
0.00316667
0.00289096
0.00259162
0.00230178
0.00198493
0.00167823
0.00133726
0.00100128
0.000618266
0.000234296
-0.0641786
-0.0678715
-0.0699485
-0.0707553
-0.0710363
-0.0712474
-0.0714735
-0.0716055
-0.0715101
-0.0711102
-0.070389
-0.0693498
-0.0679965
-0.0663309
-0.0643535
-0.0620662
-0.0594765
-0.0565998
-0.0534596
-0.0500875
-0.046522
-0.0428072
-0.0389921
-0.0351289
-0.0312714
-0.0274735
-0.0237862
-0.0202567
-0.0169253
-0.0138258
-0.0109828
-0.00841333
-0.00612498
-0.00411864
-0.0023869
-0.000918171
0.000305022
0.00130247
0.00209579
0.00270911
0.0031622
0.00348155
0.0036802
0.00378598
0.00380363
0.0037614
0.00365711
0.00351708
0.00333496
0.00313481
0.00290415
0.00266925
0.00240676
0.00214912
0.0018618
0.00158068
0.00126426
0.000949465
0.00058852
0.000224002
-0.0574339
-0.0606555
-0.0625098
-0.063277
-0.0635871
-0.0638329
-0.0640927
-0.0642756
-0.0642695
-0.0640098
-0.0634733
-0.0626638
-0.0615856
-0.0602395
-0.0586235
-0.0567378
-0.0545873
-0.0521827
-0.0495413
-0.0466869
-0.0436493
-0.0404634
-0.0371681
-0.0338059
-0.0304212
-0.0270593
-0.0237644
-0.0205784
-0.0175384
-0.0146768
-0.0120192
-0.00958503
-0.00738577
-0.00542726
-0.00370786
-0.00222187
-0.000957992
9.80713e-05
0.00096255
0.00165545
0.00219245
0.00259753
0.00288066
0.00306839
0.0031638
0.0031948
0.00315864
0.00308138
0.00295682
0.00280865
0.00262534
0.00243259
0.00220846
0.00198467
0.00172859
0.00147484
0.00118476
0.000893013
0.00055593
0.000212825
-0.0512684
-0.0540658
-0.0557131
-0.0564357
-0.0567641
-0.057035
-0.0573194
-0.0575436
-0.0576111
-0.0574602
-0.0570749
-0.0564631
-0.0556242
-0.0545541
-0.0532508
-0.0517137
-0.0499456
-0.0479538
-0.0457506
-0.0433537
-0.0407855
-0.0380732
-0.0352477
-0.0323428
-0.029395
-0.0264417
-0.0235206
-0.0206681
-0.0179179
-0.0153001
-0.0128399
-0.0105579
-0.00846804
-0.00657984
-0.00489608
-0.00341584
-0.00213307
-0.00103823
-0.000120278
0.000636694
0.0012442
0.00172378
0.00208282
0.00234627
0.0025149
0.00261583
0.00264564
0.00262991
0.00256251
0.00246651
0.00233119
0.00218161
0.0019971
0.00180865
0.00158537
0.00136072
0.00109869
0.000831862
0.000520452
0.000200742
-0.0456458
-0.0480659
-0.0495233
-0.0501989
-0.0505373
-0.0508248
-0.0511252
-0.0513775
-0.0514999
-0.0514405
-0.0511821
-0.0507381
-0.0500995
-0.0492649
-0.0482305
-0.0469939
-0.0455566
-0.0439234
-0.0421027
-0.0401073
-0.037954
-0.0356633
-0.0332593
-0.030769
-0.0282214
-0.0256476
-0.0230788
-0.0205464
-0.01808
-0.0157072
-0.0134518
-0.0113344
-0.00937039
-0.00757161
-0.00594418
-0.00449093
-0.00321018
-0.00209633
-0.00114263
-0.000336813
0.000328174
0.00087076
0.00129539
0.00162616
0.00186212
0.00202897
0.00212185
0.00216575
0.00215444
0.00211023
0.00202308
0.00191729
0.00177335
0.00162148
0.00143239
0.00123844
0.00100614
0.000766029
0.000482091
0.000187746
-0.0405333
-0.0426187
-0.0439033
-0.0445312
-0.0448729
-0.0451707
-0.0454807
-0.0457538
-0.0459223
-0.0459427
-0.0457993
-0.0454803
-0.0450044
-0.0443663
-0.0435589
-0.0425785
-0.0414247
-0.0401005
-0.0386113
-0.0369661
-0.0351769
-0.0332589
-0.0312307
-0.0291132
-0.0269297
-0.0247049
-0.0224649
-0.020236
-0.0180439
-0.015913
-0.0138653
-0.0119206
-0.0100948
-0.00840098
-0.00684744
-0.00543986
-0.00418015
-0.00306612
-0.002095
-0.00125726
-0.000548984
4.58446e-05
0.000527504
0.000917576
0.00121301
0.00143972
0.00159172
0.00169253
0.00173554
0.00174214
0.0017028
0.00164102
0.0015382
0.00142389
0.00127016
0.00110832
0.000907287
0.000695623
0.000440906
0.000173853
-0.0358964
-0.0376865
-0.038815
-0.0393959
-0.0397359
-0.0400382
-0.0403517
-0.0406365
-0.0408357
-0.0409118
-0.0408502
-0.0406502
-0.0403134
-0.0398403
-0.0392251
-0.0384629
-0.0375514
-0.036492
-0.0352883
-0.0339464
-0.0324746
-0.030884
-0.0291883
-0.0274037
-0.0255483
-0.0236419
-0.0217056
-0.0197613
-0.0178306
-0.0159349
-0.014094
-0.0123261
-0.0106469
-0.00906976
-0.00760448
-0.00625848
-0.00503637
-0.00393848
-0.00296565
-0.00211177
-0.00137667
-0.000745333
-0.000218912
0.000223122
0.000573775
0.000855072
0.00106106
0.00121498
0.00130968
0.00136536
0.00137282
0.00135468
0.00129311
0.00121695
0.00109946
0.000970919
0.00080253
0.000620874
0.000397018
0.000159099
-0.031702
-0.0332334
-0.0342224
-0.0347582
-0.0350929
-0.0353954
-0.035708
-0.0359986
-0.0362202
-0.0363411
-0.0363487
-0.0362394
-0.036015
-0.0356779
-0.0352239
-0.0346457
-0.0339395
-0.0331053
-0.0321455
-0.0310642
-0.0298669
-0.0285615
-0.0271579
-0.0256681
-0.024106
-0.0224874
-0.0208288
-0.0191482
-0.0174636
-0.0157932
-0.0141543
-0.0125635
-0.0110355
-0.00958335
-0.00821747
-0.00694633
-0.00577646
-0.00470999
-0.00375015
-0.00289231
-0.00214031
-0.00148345
-0.00092699
-0.000448958
-5.46063e-05
0.000276677
0.000532634
0.00073596
0.000879561
0.000982298
0.00103526
0.0010601
0.00103959
0.00100187
0.000921248
0.000826945
0.000692394
0.00054214
0.000350642
0.000143538
-0.0279152
-0.0292209
-0.0300858
-0.0305789
-0.0309056
-0.0312051
-0.0315132
-0.0318044
-0.0320401
-0.0321939
-0.0322547
-0.0322205
-0.0320915
-0.0318657
-0.0315439
-0.0311184
-0.0305844
-0.0299408
-0.0291885
-0.0283298
-0.0273685
-0.0263099
-0.025161
-0.0239303
-0.0226285
-0.0212676
-0.0198606
-0.0184218
-0.0169661
-0.0155086
-0.0140642
-0.0126474
-0.0112716
-0.00994929
-0.00869079
-0.00750493
-0.00639967
-0.00537821
-0.00444639
-0.00360148
-0.00284841
-0.00217441
-0.00158846
-0.00107583
-0.000649046
-0.000281711
1.79085e-05
0.000265951
0.00045379
0.000599743
0.000695394
0.00076129
0.000780653
0.000780893
0.000737132
0.000677565
0.000577707
0.000459927
0.000302113
0.000127325
-0.0245205
-0.0256313
-0.0263869
-0.0268404
-0.0271575
-0.0274518
-0.0277532
-0.0280414
-0.0282851
-0.0284628
-0.0285655
-0.0285915
-0.0285403
-0.0284087
-0.0281914
-0.0278871
-0.0274951
-0.027011
-0.0264326
-0.0257613
-0.0250003
-0.0241531
-0.0232243
-0.0222197
-0.0211469
-0.0200148
-0.0188337
-0.0176145
-0.016369
-0.0151098
-0.0138492
-0.0125998
-0.0113737
-0.0101818
-0.00903445
-0.00794013
-0.0069076
-0.00594081
-0.00504727
-0.00422513
-0.00348474
-0.00281823