/*--------------------------------*- C++ -*----------------------------------*\
| =========                 |                                                 |
| \\      /  F ield         | OpenFOAM: The Open Source CFD Toolbox           |
|  \\    /   O peration     | Version:  2512                                  |
|   \\  /    A nd           | Website:  www.openfoam.com                      |
|    \\/     M anipulation  |                                                 |
\*---------------------------------------------------------------------------*/
FoamFile
{
    version     2.0;
    format      ascii;
    arch        "LSB;label=32;scalar=64";
    class       volVectorField;
    location    "18.5";
    object      U;
}
// * * * * * * * * * * * * * * * * * * * * * * * * * * * * * * * * * * * * * //

dimensions      [0 1 -1 0 0 0 0];

internalField   nonuniform List<vector> 
13248
(
(-0.0128871 0.0117891 6.55959e-20)
(-0.0251465 0.0254167 0)
(-0.0245707 0.0329593 -1.24087e-19)
(-0.0118213 0.0364298 1.16892e-19)
(0.0126415 0.0374186 1.09399e-19)
(0.0484885 0.0371724 0)
(0.0954362 0.0366433 0)
(0.15313 0.0365511 2.63578e-19)
(0.221008 0.0374229 -1.23463e-21)
(0.298164 0.0396071 -2.30387e-19)
(0.383256 0.0432756 2.14089e-19)
(0.474469 0.0484251 -1.33856e-19)
(0.569565 0.0548845 0)
(0.665997 0.0623337 -2.32221e-19)
(0.761069 0.0703344 4.34754e-19)
(0.852131 0.0783718 -1.0289e-19)
(0.936759 0.0859079 -1.88159e-19)
(1.01292 0.0924038 1.76631e-19)
(1.07911 0.0974758 0)
(1.13436 0.100503 0)
(1.17859 0.102045 0)
(1.21131 0.0995187 0)
(1.23534 0.0990435 5.79406e-20)
(1.24804 0.0851632 2.17522e-19)
(-0.0129116 0.0105093 -1.98111e-19)
(-0.0215819 0.0210842 1.35132e-19)
(-0.0140337 0.0261371 -1.18717e-21)
(0.00864246 0.0278961 -1.78575e-19)
(0.0457438 0.0281052 -1.09281e-19)
(0.0966925 0.0281149 -1.03311e-19)
(0.160805 0.0289119 -1.897e-19)
(0.237088 0.0311849 1.79397e-19)
(0.324052 0.0353491 0)
(0.419599 0.0415539 7.25212e-22)
(0.521023 0.0496888 1.55944e-21)
(0.625135 0.0594038 1.33983e-19)
(0.728495 0.0701523 0)
(0.827688 0.0812552 0)
(0.919609 0.0919788 1.60142e-19)
(1.00172 0.101616 -3.00797e-19)
(1.07221 0.109561 1.83236e-19)
(1.13011 0.11536 -1.72022e-19)
(1.17529 0.118753 -7.73657e-20)
(1.20844 0.119644 -1.4387e-19)
(1.23067 0.118246 -6.24172e-20)
(1.24413 0.114352 -1.18287e-19)
(1.24988 0.110141 1.69669e-19)
(1.25119 0.100888 5.00552e-20)
(-0.0120322 0.00885166 0)
(-0.0147836 0.0160771 0)
(0.00258794 0.018933 6.31638e-20)
(0.0383947 0.0197059 5.81742e-20)
(0.091475 0.0202081 -1.43943e-21)
(0.160679 0.0218321 -1.06652e-19)
(0.244455 0.0255107 0)
(0.340585 0.0317548 -8.91916e-20)
(0.446051 0.0406773 8.39086e-20)
(0.55708 0.0520121 6.65193e-22)
(0.669387 0.0651609 -1.43757e-19)
(0.77856 0.0792793 -1.32491e-19)
(0.88049 0.0933935 1.72814e-21)
(0.971772 0.106531 -1.11729e-19)
(1.04999 0.117843 2.66329e-19)
(1.11387 0.126695 0)
(1.16328 0.132726 -1.77824e-19)
(1.19911 0.135845 8.57845e-20)
(1.22304 0.136239 7.72957e-20)
(1.2372 0.134187 0)
(1.24401 0.130389 6.52119e-20)
(1.24561 0.124688 -2.2949e-19)
(1.24369 0.11956 2.15432e-19)
(1.24132 0.110385 1.41245e-19)
(-0.00985858 0.00678649 -7.01155e-20)
(-0.00377604 0.010485 -7.25259e-20)
(0.0266599 0.0116951 6.55558e-20)
(0.0789477 0.0125433 0)
(0.151119 0.0147659 0)
(0.240933 0.0196562 -2.27857e-21)
(0.345321 0.0278929 0)
(0.46019 0.039558 -2.72757e-19)
(0.580524 0.0541908 2.53623e-19)
(0.70078 0.0708788 -3.13456e-19)
(0.81548 0.0884099 7.19785e-20)
(0.919835 0.105468 0)
(1.01026 0.120833 1.21515e-19)
(1.08468 0.133546 -2.2583e-19)
(1.14255 0.143012 5.35962e-20)
(1.18473 0.149028 1.41037e-19)
(1.21316 0.151745 -4.43625e-21)
(1.23039 0.151578 -1.58668e-19)
(1.2392 0.149094 0)
(1.24219 0.14489 0)
(1.24149 0.139593 -5.91953e-20)
(1.23868 0.133361 5.38564e-20)
(1.23483 0.127769 1.98069e-19)
(1.23092 0.119297 -1.85916e-19)
(-0.00598427 0.0043804 -7.3999e-20)
(0.0123939 0.00462985 -7.3682e-20)
(0.0593706 0.00508411 2.07225e-19)
(0.131332 0.0074336 -1.25636e-19)
(0.224982 0.0131085 1.1826e-19)
(0.336297 0.0230462 2.14808e-19)
(0.459984 0.0373535 -1.51878e-19)
(0.589598 0.0553499 -1.85231e-19)
(0.71813 0.0757384 3.30649e-21)
(0.83887 0.0968571 2.37356e-19)
(0.946278 0.116985 0)
(1.03662 0.13463 6.61735e-20)
(1.10824 0.148743 0)
(1.16143 0.158813 -1.09634e-19)
(1.19808 0.164842 1.5425e-19)
(1.22104 0.167238 1.32751e-21)
(1.23358 0.166656 -4.14324e-20)
(1.2388 0.163832 7.82252e-20)
(1.23934 0.159457 6.83804e-20)
(1.23714 0.154089 -6.2084e-20)
(1.2335 0.148176 5.91822e-20)
(1.22919 0.141833 -5.3844e-20)
(1.22452 0.136001 0)
(1.2203 0.128084 -4.20237e-20)
(-1.62846e-05 0.00180513 7.39885e-20)
(0.0345571 -0.000900397 7.77428e-20)
(0.101556 0.00011037 -6.9447e-20)
(0.19583 0.00573642 1.29364e-19)
(0.312073 0.0167575 -1.21762e-19)
(0.443722 0.0333646 1.10168e-19)
(0.582749 0.0546848 -5.2914e-20)
(0.720419 0.0789659 1.39077e-19)
(0.84851 0.103986 -8.76077e-20)
(0.960515 0.127517 1.56308e-19)
(1.05244 0.147737 -3.61755e-19)
(1.12301 0.163492 1.33467e-19)
(1.17336 0.174366 -1.18099e-19)
(1.20631 0.18059 1.10928e-19)
(1.22556 0.182833 9.73275e-20)
(1.2349 0.181975 8.66073e-20)
(1.23769 0.178897 -2.41492e-19)
(1.23653 0.174352 1.50314e-19)
(1.23321 0.168906 -6.83837e-20)
(1.22886 0.162945 1.81292e-19)
(1.2241 0.156717 -5.83712e-20)
(1.21922 0.150314 -1.46256e-19)
(1.21438 0.144238 1.35632e-19)
(1.20988 0.136743 4.20098e-20)
(0.00839646 -0.000662649 0)
(0.0633078 -0.00527504 6.96594e-22)
(0.153489 -0.00194555 1.45483e-19)
(0.271704 0.00897981 -1.36404e-19)
(0.409878 0.027146 -1.23006e-19)
(0.55833 0.0515049 2.28722e-19)
(0.706342 0.0798279 -1.06269e-19)
(0.843772 0.109193 1.42145e-19)
(0.962737 0.136703 -2.76527e-21)
(1.05867 0.160075 -8.09444e-20)
(1.13052 0.177977 1.78059e-19)
(1.18011 0.190068 -2.63642e-19)
(1.21115 0.196802 0)
(1.22812 0.199114 -5.25873e-20)
(1.23533 0.198111 -1.41738e-19)
(1.23636 0.194821 4.44848e-20)
(1.23385 0.190071 1.43098e-21)
(1.22955 0.18445 -1.01292e-19)
(1.22449 0.178342 4.96854e-21)
(1.21922 0.171978 1.17797e-19)
(1.21399 0.165495 -5.35544e-20)
(1.20892 0.158976 -2.11534e-20)
(1.20398 0.152627 6.36256e-20)
(1.19933 0.145442 0)
(0.0195212 -0.00265448 0)
(0.0988801 -0.00748167 3.94741e-20)
(0.214695 0.000328584 -1.90151e-19)
(0.357028 0.0186154 6.91208e-20)
(0.514408 0.0452925 -6.50541e-20)
(0.673981 0.0775977 -5.96092e-20)
(0.823215 0.111798 -1.05546e-19)
(0.952228 0.144084 5.25325e-20)
(1.05534 0.171477 4.57933e-20)
(1.13131 0.192309 0)
(1.1825 0.20623 1.06088e-19)
(1.21345 0.2139 -1.58897e-19)
(1.22941 0.216533 1.18368e-19)
(1.2353 0.215487 5.26144e-20)
(1.23503 0.211977 -4.38428e-20)
(1.23141 0.20694 -3.72819e-20)
(1.22619 0.201018 -3.51321e-20)
(1.22041 0.194617 1.03794e-19)
(1.21458 0.187975 0)
(1.20893 0.18123 5.36758e-20)
(1.20353 0.174462 4.62805e-20)
(1.19838 0.16773 -1.13635e-19)
(1.19342 0.161069 -7.97636e-20)
(1.18868 0.154082 7.3588e-20)
(0.033488 -0.00372907 -4.2854e-20)
(0.141022 -0.00641605 -1.73149e-21)
(0.283821 0.00829205 3.87446e-20)
(0.448712 0.0357555 1.0845e-19)
(0.620635 0.0715531 3.16564e-20)
(0.784299 0.110947 -6.11509e-20)
(0.92705 0.148955 5.57996e-20)
(1.04125 0.181542 -4.90506e-20)
(1.12487 0.206404 8.84257e-20)
(1.18047 0.223023 3.79314e-20)
(1.21334 0.23221 -1.07732e-19)
(1.22961 0.235484 3.18996e-20)
(1.23494 0.234514 5.49819e-20)
(1.23376 0.230764 -2.69679e-20)
(1.22916 0.225335 0)
(1.22305 0.218968 4.10243e-20)
(1.2165 0.212115 7.02295e-20)
(1.21002 0.205036 1.26061e-20)
(1.20385 0.197873 -5.90674e-20)
(1.19804 0.190705 2.50386e-20)
(1.19258 0.183584 0)
(1.18741 0.176539 -2.01029e-20)
(1.18246 0.169541 -1.93655e-20)
(1.17767 0.162619 0)
(0.0502345 -0.00340283 0)
(0.188903 -0.000996078 2.24922e-20)
(0.358632 0.0230614 4.16053e-20)
(0.542779 0.0609719 -1.10843e-19)
(0.723208 0.105549 3.5878e-20)
(0.883771 0.150225 0)
(1.01378 0.189457 5.42115e-20)
(1.10945 0.21984 -7.57738e-20)
(1.17299 0.240375 -4.42472e-20)
(1.21028 0.251912 2.00179e-20)
(1.22844 0.256291 -3.24876e-20)
(1.23409 0.255575 7.86466e-20)
(1.23243 0.251573 3.97579e-20)
(1.22701 0.245635 -2.74383e-20)
(1.22002 0.238652 -2.37231e-21)
(1.21264 0.231159 -7.67472e-20)
(1.20545 0.223451 3.50679e-20)
(1.19867 0.215686 -9.32557e-22)
(1.19237 0.207949 0)
(1.18653 0.200289 -2.50649e-20)
(1.18108 0.192738 0)
(1.17596 0.185293 5.80472e-20)
(1.17106 0.177945 -6.9559e-20)
(1.16627 0.170949 3.18828e-20)
(0.069459 -0.00118905 -1.18171e-20)
(0.241091 0.00972247 -5.67984e-20)
(0.436146 0.0453575 6.4719e-20)
(0.634822 0.0942053 3.80233e-20)
(0.817234 0.146272 -1.81073e-20)
(0.968483 0.193797 3.0635e-20)
(1.0817 0.231645 -1.48283e-20)
(1.1578 0.257821 2.48216e-20)
(1.20285 0.272954 0)
(1.22505 0.279174 5.6737e-20)
(1.23223 0.279037 -2.23019e-21)
(1.23066 0.274831 -4.60111e-20)
(1.22465 0.26827 1.98089e-20)
(1.21681 0.26048 -2.25111e-20)
(1.20857 0.252127 -8.69057e-21)
(1.20059 0.243571 9.9336e-21)
(1.19313 0.234996 -7.74522e-21)
(1.18626 0.226495 -4.25068e-20)
(1.17996 0.218119 2.60686e-20)
(1.17418 0.2099 5.395e-21)
(1.16883 0.201849 4.79472e-21)
(1.16381 0.193947 4.26622e-21)
(1.15901 0.186248 0)
(1.15427 0.179028 0)
(0.0906701 0.00336821 1.18253e-20)
(0.295731 0.0264542 -1.18095e-20)
(0.513061 0.0754066 -2.15891e-20)
(0.720683 0.134783 0)
(0.898949 0.192294 -9.01599e-21)
(1.03633 0.24003 -8.17054e-21)
(1.13096 0.274245 -1.40045e-20)
(1.18838 0.294856 0)
(1.21767 0.304125 0)
(1.22818 0.305177 0)
(1.22762 0.300949 0)
(1.22139 0.293689 0)
(1.21283 0.28489 -1.24612e-20)
(1.20372 0.275425 5.68074e-21)
(1.19491 0.265762 9.94396e-21)
(1.18671 0.256129 4.66602e-21)
(1.17923 0.246634 1.16171e-20)
(1.17243 0.237329 0)
(1.16627 0.228246 -2.83487e-21)
(1.16066 0.219401 -2.74208e-21)
(1.1555 0.210788 -4.80239e-21)
(1.15069 0.202388 -4.27307e-21)
(1.14607 0.194335 0)
(1.1415 0.186743 3.14119e-21)
(-0.00167185 0.000607939 7.11693e-21)
(-0.00814538 0.00168127 -7.40492e-21)
(-0.0198301 0.00262261 -1.40452e-20)
(-0.0342139 0.00348889 0)
(-0.0499485 0.0042828 -1.88596e-20)
(-0.0663824 0.00500129 5.92433e-21)
(-0.0830811 0.0056551 -1.12251e-20)
(-0.0997571 0.00626716 0)
(-0.116242 0.00686668 0)
(-0.132445 0.00748305 0)
(-0.14832 0.00814097 0)
(-0.163847 0.00885776 0)
(-0.179016 0.00964291 3.10833e-23)
(-0.193818 0.0104994 -7.56932e-21)
(-0.208246 0.0114253 1.43785e-20)
(-0.222289 0.012413 2.04462e-20)
(-0.235932 0.0134529 6.4674e-21)
(-0.249164 0.0145338 0)
(-0.261981 0.0156437 5.80114e-21)
(-0.274389 0.0167699 -1.63834e-20)
(-0.286389 0.017897 -1.03553e-20)
(-0.297991 0.0190099 -9.80335e-21)
(-0.309363 0.0201121 0)
(-0.32091 0.0212124 0)
(-0.00207221 0.00547145 -2.14143e-20)
(-0.00884256 0.0130535 3.69933e-20)
(-0.0203063 0.0183054 -1.39643e-20)
(-0.0341696 0.022002 -2.66179e-20)
(-0.0491873 0.0246023 3.76198e-20)
(-0.0647487 0.0264189 -2.37867e-20)
(-0.0804401 0.0276941 3.35956e-20)
(-0.0959815 0.028617 2.12247e-20)
(-0.111202 0.0293317 0)
(-0.126001 0.0299437 -1.90381e-20)
(-0.140321 0.0305243 -2.2547e-22)
(-0.154125 0.0311166 1.68185e-20)
(-0.167386 0.031741 2.40566e-20)
(-0.180077 0.0324022 3.04497e-20)
(-0.192171 0.0330945 -1.41374e-20)
(-0.203634 0.0338088 -4.06614e-20)
(-0.214428 0.0345357 1.29651e-20)
(-0.224515 0.03527 -4.86253e-20)
(-0.23386 0.0360149 0)
(-0.242447 0.0367845 1.09218e-20)
(-0.250247 0.0375995 1.03404e-20)
(-0.257186 0.0384924 9.78903e-21)
(-0.263334 0.039559 0)
(-0.269479 0.0409319 0)
(-0.00289776 0.00972371 0)
(-0.0102884 0.023142 7.44949e-20)
(-0.0213075 0.0323725 -2.8102e-20)
(-0.0340991 0.0387419 2.66596e-20)
(-0.0476282 0.0430792 -7.55133e-20)
(-0.0613715 0.0459655 0)
(-0.0749615 0.0478448 -4.5042e-20)
(-0.0881378 0.0490551 2.11618e-20)
(-0.10073 0.0498465 -4.0192e-20)
(-0.112625 0.0503965 1.90358e-20)
(-0.123746 0.0508228 1.07823e-19)
(-0.134032 0.0511953 -5.06481e-20)
(-0.143432 0.0515475 -8.03787e-20)
(-0.151893 0.0518871 -3.08008e-20)
(-0.15936 0.0522062 -4.38815e-22)
(-0.165775 0.0524897 1.08676e-19)
(-0.171069 0.052723 -5.12251e-20)
(-0.175169 0.0528996 -1.4368e-23)
(-0.178 0.0530296 0)
(-0.179505 0.0531504 -4.36595e-20)
(-0.179628 0.0533332 0)
(-0.178164 0.0536958 -3.94735e-20)
(-0.174847 0.0544491 1.48276e-19)
(-0.170906 0.0558918 9.6566e-22)
(-0.0040131 0.0130345 0)
(-0.0122846 0.0312205 2.48613e-22)
(-0.0227424 0.0438693 2.84542e-20)
(-0.0340876 0.0526202 -2.69379e-20)
(-0.0455601 0.058546 2.50738e-20)
(-0.0567587 0.0624241 1.43446e-19)
(-0.0673858 0.0648563 -4.50234e-20)
(-0.0772183 0.0663024 -4.26812e-20)
(-0.0860969 0.0671036 8.04595e-20)
(-0.0939049 0.0675038 -1.1416e-19)
(-0.100551 0.0676662 3.5759e-20)
(-0.105955 0.0676903 3.39703e-20)
(-0.110047 0.0676266 0)
(-0.112755 0.0674902 3.03293e-20)
(-0.114007 0.0672728 0)
(-0.113728 0.0669529 5.43071e-20)
(-0.111836 0.0665043 -1.03236e-19)
(-0.108244 0.0659056 2.35282e-20)
(-0.102853 0.0651506 9.17398e-20)
(-0.0955764 0.0642643 4.36085e-20)
(-0.086353 0.0633296 0)
(-0.0749693 0.0625489 -1.17553e-19)
(-0.060644 0.0623686 3.67465e-20)
(-0.0437081 0.0634918 0)
(-0.00525946 0.0152456 0)
(-0.0145914 0.0368814 -9.05713e-20)
(-0.0244963 0.0521888 -2.8776e-20)
(-0.034234 0.0628749 -5.39808e-20)
(-0.0433344 0.0701232 5.08294e-20)
(-0.0515364 0.074829 -4.78794e-20)
(-0.0586329 0.0776999 9.07449e-20)
(-0.0644574 0.0792849 4.29574e-20)
(-0.0688804 0.0799976 -1.2081e-19)
(-0.0717969 0.080138 7.63532e-20)
(-0.0731157 0.0799124 -1.07895e-19)
(-0.0727535 0.0794517 2.38028e-19)
(-0.0706304 0.0788281 -1.28019e-19)
(-0.0666688 0.078071 6.06161e-20)
(-0.0607918 0.0771789 1.72396e-19)
(-0.052922 0.0761303 -5.34825e-20)
(-0.042981 0.0748921 -5.04264e-20)
(-0.0308865 0.0734267 -4.82748e-20)
(-0.0165473 0.0717001 0)
(0.00012728 0.0696902 -8.72625e-20)
(0.0191959 0.0674116 -8.32431e-20)
(0.0407835 0.0650249 1.16233e-19)
(0.0658261 0.0631595 1.47937e-19)
(0.0959166 0.0630945 -1.39093e-19)
(-0.00649787 0.0163811 0)
(-0.0169849 0.0400686 -1.22371e-19)
(-0.0264486 0.0571264 -3.6454e-22)
(-0.0346087 0.0691421 1.08581e-19)
(-0.0412554 0.0773027 0)
(-0.0462692 0.0825526 0)
(-0.0495461 0.0856568 0)
(-0.0509933 0.0872203 -4.2947e-20)
(-0.0505293 0.0877066 -2.45086e-22)
(-0.0480783 0.087459 7.61466e-20)
(-0.0435657 0.0867203 -1.08264e-19)
(-0.036916 0.0856516 -2.30977e-22)
(-0.0280517 0.08435 0)
(-0.016895 0.0828643 -6.05841e-20)
(-0.00336788 0.0812077 5.74454e-20)
(0.0126078 0.0793694 -1.61549e-19)
(0.0311094 0.0773213 2.04511e-19)
(0.0522149 0.0750239 4.91895e-20)
(0.0760028 0.0724324 1.34773e-21)
(0.102548 0.0694949 -1.72004e-19)
(0.131905 0.0661645 -8.12332e-20)
(0.164173 0.0624272 2.70451e-19)
(0.199239 0.0586946 -1.81359e-19)
(0.244598 0.0568653 0)
(-0.00764345 0.0166174 6.01081e-20)
(-0.019302 0.0410401 6.13159e-20)
(-0.028478 0.0588662 -5.83695e-20)
(-0.0351964 0.0714747 -1.09489e-19)
(-0.0394484 0.0799977 1.03093e-19)
(-0.0412438 0.0853834 -9.70722e-20)
(-0.0405828 0.0884174 1.37079e-19)
(-0.0374537 0.0897316 -4.29289e-20)
(-0.0318322 0.0898188 8.09189e-20)
(-0.02368 0.0890511 0)
(-0.0129437 0.0876991 7.20517e-20)
(0.00044328 0.0859502 -1.35045e-19)
(0.0165585 0.0839262 1.28004e-19)
(0.0354872 0.0816979 -1.20224e-19)
(0.0573205 0.0792989 0)
(0.0821495 0.0767372 1.07271e-19)
(0.110061 0.0740008 2.02902e-19)
(0.141137 0.0710649 -1.90868e-19)
(0.175447 0.0678934 -8.99657e-20)
(0.213058 0.0644446 -8.65586e-20)
(0.253847 0.0606516 2.42192e-19)
(0.298608 0.0565182 7.64302e-20)
(0.343143 0.0517217 -7.12101e-20)
(0.407589 0.0488616 6.72034e-20)
(-0.00867827 0.0162202 -6.01163e-20)
(-0.0214526 0.0402681 1.87054e-19)
(-0.0304424 0.0578957 -5.89446e-20)
(-0.0358214 0.0702944 1.10276e-19)
(-0.0377145 0.0785389 -1.03833e-19)
(-0.0362374 0.0835651 2.74417e-22)
(-0.0314822 0.0861595 4.59551e-20)
(-0.0235079 0.0869623 1.72449e-19)
(-0.0123377 0.0864798 4.18453e-23)
(0.00204146 0.0851013 -7.62162e-20)
(0.0196765 0.0831175 0)
(0.0406426 0.0807382 -6.74987e-20)
(0.0650356 0.0781086 1.26908e-19)
(0.0929618 0.0753237 1.19939e-19)
(0.124533 0.0724434 -5.64381e-20)
(0.159853 0.0694976 -4.68406e-22)
(0.199 0.0664952 -5.04334e-20)
(0.242012 0.0634302 9.42305e-20)
(0.288859 0.0602794 8.99464e-20)
(0.339577 0.0570506 -8.49587e-20)
(0.393272 0.0535428 7.91882e-20)
(0.452932 0.0503414 -7.45997e-20)
(0.506008 0.0456457 0)
(0.592197 0.0438415 -6.71236e-20)
(-0.00963575 0.0154724 6.11391e-20)
(-0.023386 0.0383027 -6.2601e-20)
(-0.0321235 0.0548665 5.94833e-20)
(-0.036056 0.0662802 0)
(-0.035387 0.0736047 0)
(-0.0303077 0.0777743 9.83616e-20)
(-0.0209725 0.0795754 -9.2093e-20)
(-0.00748046 0.0796504 8.62083e-20)
(0.0101301 0.0785123 -4.05044e-19)
(0.0318786 0.0765623 6.82079e-23)
(0.0578319 0.0741076 7.13373e-20)
(0.0880903 0.0713787 0)
(0.122768 0.0685439 -1.26449e-19)
(0.161972 0.0657229 2.37792e-19)
(0.205772 0.0629945 -1.67975e-19)
(0.254178 0.0604035 -2.64275e-19)
(0.307116 0.0579709 -8.30296e-22)
(0.364405 0.0556987 1.8591e-19)
(0.425668 0.0535442 0)
(0.490814 0.0516254 0)
(0.557455 0.0493357 -7.91815e-20)
(0.631516 0.0483508 7.45919e-20)
(0.69085 0.044637 -2.79e-19)
(0.793716 0.0459609 2.61646e-19)
(-0.0105679 0.0145986 0)
(-0.0250239 0.0356264 0)
(-0.0331431 0.0504347 -1.78898e-19)
(-0.0351278 0.0602188 5.68511e-20)
(-0.0312253 0.0660947 4.76376e-22)
(-0.0216678 0.0690263 9.9345e-20)
(-0.0066302 0.0698138 0)
(0.0137918 0.069108 -8.65893e-20)
(0.0395818 0.0674315 8.10329e-20)
(0.0707852 0.0651984 -1.51714e-19)
(0.107482 0.0627322 8.1611e-23)
(0.14975 0.0602803 1.33774e-19)
(0.197621 0.0580253 5.23658e-23)
(0.251042 0.0560937 1.18335e-19)
(0.309829 0.0545601 -1.66639e-19)
(0.373637 0.0534554 0)
(0.441934 0.0527682 1.97027e-19)
(0.514012 0.0524574 -2.7811e-19)
(0.588865 0.0523919 8.64684e-20)
(0.665939 0.052718 0)
(0.741813 0.0524687 7.63809e-20)
(0.822916 0.0539509 2.91135e-19)
(0.884519 0.0515185 -2.73218e-19)
(0.987458 0.0559742 -3.20751e-19)
(-0.011488 0.0137135 1.87448e-19)
(-0.0261669 0.0325503 -2.57696e-19)
(-0.0328815 0.0451263 5.62151e-22)
(-0.0318698 0.0528574 5.72689e-20)
(-0.0234128 0.0569852 -1.0663e-19)
(-0.0077534 0.0585409 -9.89372e-20)
(0.0149473 0.0583612 1.85059e-19)
(0.0446189 0.057119 -1.24455e-21)
(0.0812567 0.0553534 -1.62749e-19)
(0.124874 0.0534908 3.03745e-19)
(0.175438 0.051861 -3.19956e-22)
(0.232803 0.0507069 -1.33563e-19)
(0.296648 0.0501904 0)
(0.366426 0.0503956 0)
(0.441332 0.0513305 -5.53501e-20)
(0.520304 0.0529313 -1.03049e-19)
(0.602042 0.0550693 -1.94621e-19)
(0.685064 0.0575561 1.82683e-19)
(0.767728 0.0601561 -8.65015e-20)
(0.84863 0.0627004 1.60942e-19)
(0.925054 0.0645541 -7.65614e-20)
(0.999943 0.0668753 1.41659e-19)
(1.0573 0.0655057 -3.30896e-19)
(1.13886 0.0698402 6.30517e-20)
(-0.0123195 0.012808 6.32104e-20)
(-0.0264137 0.0291713 0)
(-0.0304258 0.0392639 1.22273e-19)
(-0.024734 0.0448044 -1.15186e-19)
(-0.00967374 0.0472056 1.06728e-19)
(0.0145058 0.0475968 0)
(0.0476444 0.0468703 0)
(0.0896382 0.0457284 -8.68927e-20)
(0.140364 0.0447203 9.91519e-22)
(0.199583 0.0442631 7.66549e-20)
(0.266842 0.0446526 -7.09635e-20)
(0.341391 0.0460659 1.33568e-19)
(0.422137 0.048562 0)
(0.507635 0.0520848 2.33579e-19)
(0.596132 0.0564699 -4.38121e-19)
(0.685644 0.0614571 3.08537e-19)
(0.774068 0.066718 1.91768e-19)
(0.859292 0.0718464 -1.80011e-19)
(0.939381 0.0765224 0)
(1.01252 0.0801111 0)
(1.0775 0.0828448 0)
(1.13368 0.0833083 0)
(1.17781 0.0827821 6.50985e-20)
(1.22499 0.0813097 -2.39071e-19)
(-0.334709 0.0223134 -6.31761e-21)
(-0.351558 0.0219893 6.3377e-21)
(-0.365963 0.0212777 -1.96057e-22)
(-0.378672 0.0199243 0)
(-0.388808 0.0178264 -5.92072e-21)
(-0.395924 0.0148806 1.14568e-20)
(-0.399326 0.0110512 -1.04274e-22)
(-0.398349 0.00639131 -5.28635e-21)
(-0.392477 0.00112014 0)
(-0.381226 -0.004889 0)
(-0.363995 -0.0113704 -2.6071e-22)
(-0.340199 -0.018095 -2.32078e-22)
(-0.309413 -0.0247199 -3.14838e-21)
(-0.271383 -0.0308247 2.86433e-21)
(-0.226072 -0.0359364 0)
(-0.173663 -0.0398202 0)
(-0.114876 -0.0415737 8.8731e-22)
(-0.0505972 -0.0414763 -4.03229e-22)
(0.0179897 -0.0388764 -4.29123e-22)
(0.0892662 -0.0343601 3.62573e-24)
(0.161692 -0.0282142 0)
(0.233698 -0.0209701 0)
(0.303773 -0.0132835 0)
(0.370689 -0.00575959 0)
(0.433552 0.00111656 0)
(0.4918 0.0070462 0)
(0.545092 0.011902 -2.2991e-22)
(0.593393 0.0157675 3.73668e-22)
(0.636898 0.0185967 0)
(0.675869 0.0205244 0)
(0.710647 0.0217314 2.04544e-22)
(0.74168 0.0222935 -1.98791e-22)
(0.769442 0.0223768 -8.34304e-23)
(0.794285 0.0222491 0)
(0.816604 0.0218026 0)
(0.836778 0.0214726 -1.06393e-22)
(0.85512 0.0208958 1.03419e-22)
(0.871933 0.0207656 0)
(0.887481 0.020201 -7.07189e-23)
(0.902007 0.0204969 1.01287e-22)
(0.915602 0.0200314 -2.83764e-23)
(0.928281 0.0209157 0)
(0.939882 0.0205563 4.06514e-23)
(0.950246 0.0219186 -3.9529e-23)
(0.959241 0.0215429 0)
(0.966811 0.0232257 0)
(0.973073 0.0228434 1.1307e-23)
(0.978133 0.0250109 -3.16568e-23)
(0.982191 0.0246478 0)
(0.985477 0.0275806 0)
(0.988027 0.0271273 6.03882e-24)
(0.990219 0.0308672 -2.39381e-26)
(0.991844 0.0303461 6.96073e-25)
(0.99341 0.0347587 -3.50595e-24)
(0.994473 0.0342525 0)
(0.995746 0.0394412 0)
(0.9964 0.0389091 0)
(0.997596 0.045023 0)
(0.997924 0.0446585 0)
(0.999185 0.0517101 0)
(-0.277868 0.042383 -6.1303e-22)
(-0.292753 0.0395265 -2.58446e-20)
(-0.304233 0.0360744 -1.9052e-23)
(-0.314032 0.0316344 2.42676e-20)
(-0.321366 0.026084 3.7975e-22)
(-0.325761 0.0193206 0)
(-0.326587 0.0113262 -2.18487e-20)
(-0.323202 0.00226065 4.25923e-20)
(-0.315338 -0.00809625 -2.07392e-20)
(-0.302487 -0.0194625 1.80462e-20)
(-0.28402 -0.0313671 -1.72794e-20)
(-0.259586 -0.0435921 1.40731e-20)
(-0.228828 -0.0556205 -1.37185e-20)
(-0.191611 -0.0668495 -3.53433e-22)
(-0.148115 -0.076545 -7.87656e-21)
(-0.0982085 -0.0847754 7.65418e-21)
(-0.0429315 -0.0892592 -3.75781e-21)
(0.0167911 -0.090659 3.55954e-21)
(0.0800118 -0.088693 -4.98939e-22)
(0.144913 -0.0835767 -2.5537e-22)
(0.210352 -0.07571 6.99691e-22)
(0.275054 -0.065868 1.18087e-22)
(0.337848 -0.0549184 2.58273e-21)
(0.39782 -0.0437296 -5.2497e-21)
(0.454341 -0.0330477 2.66254e-21)
(0.50704 -0.0234014 -1.65896e-22)
(0.555755 -0.0150244 -2.56181e-21)
(0.600391 -0.00790799 5.83681e-23)
(0.641001 -0.00213198 4.2798e-21)
(0.677832 0.00240272 -3.85333e-21)
(0.711086 0.00581139 1.7957e-21)
(0.741082 0.00855758 -1.89375e-22)
(0.76821 0.0105111 8.35999e-23)
(0.792676 0.0119697 -1.46486e-22)
(0.814821 0.0128405 0)
(0.834947 0.0136104 0)
(0.853338 0.013935 3.73048e-22)
(0.870229 0.0145495 -2.7695e-22)
(0.885913 0.014596 -2.09339e-22)
(0.900578 0.0154195 -4.25354e-24)
(0.91437 0.0154311 2.69372e-22)
(0.927248 0.0167989 -4.96287e-23)
(0.939091 0.0169473 0)
(0.94968 0.0188435 0)
(0.958892 0.018998 0)
(0.966647 0.0211743 0)
(0.97305 0.0212222 -4.82472e-23)
(0.978231 0.02375 2.06796e-23)
(0.982366 0.0236679 0)
(0.985727 0.0268267 0)
(0.98832 0.0265367 0)
(0.990569 0.0304039 9.51325e-24)
(0.992216 0.0299745 -1.45366e-24)
(0.99384 0.0344564 7.65948e-24)
(0.994913 0.0339986 0)
(0.99625 0.0392294 0)
(0.99691 0.0387219 -3.27913e-24)
(0.99818 0.0448619 -7.56382e-24)
(0.998511 0.0445095 0)
(0.99986 0.0515811 0)
(-0.170669 0.0579468 1.36697e-21)
(-0.181312 0.0531468 -5.18346e-20)
(-0.187954 0.0472405 5.24397e-20)
(-0.192742 0.0400772 -4.90296e-20)
(-0.195412 0.0314646 -3.82291e-22)
(-0.195461 0.0213632 0)
(-0.192185 0.00965375 -4.61523e-20)
(-0.185549 -0.00348645 4.52168e-20)
(-0.175001 -0.0182544 3.2053e-22)
(-0.15965 -0.0344894 6.14329e-22)
(-0.139421 -0.0510038 5.63091e-22)
(-0.114079 -0.0679991 4.8546e-22)
(-0.0832936 -0.0847425 -2.58713e-20)
(-0.0470418 -0.10049 2.54971e-20)
(-0.00619684 -0.114316 0)
(0.0404547 -0.12506 4.67272e-22)
(0.0919665 -0.132129 -8.32872e-21)
(0.145825 -0.13481 8.18522e-21)
(0.201854 -0.133221 0)
(0.258574 -0.127318 0)
(0.314837 -0.117677 2.97897e-21)
(0.369646 -0.105302 -7.28222e-21)
(0.42221 -0.0913353 9.09214e-21)
(0.471995 -0.0768808 3.45796e-22)
(0.518702 -0.0628696 -1.04438e-20)
(0.562243 -0.0500033 1.06507e-20)
(0.602648 -0.0386069 -9.69847e-21)
(0.639916 -0.0288409 5.36664e-22)
(0.674132 -0.0206432 4.40609e-21)
(0.705452 -0.0139102 0)
(0.734157 -0.00853488 0)
(0.760375 -0.00409411 -1.06933e-21)
(0.784244 -0.000663831 1.40719e-21)
(0.805968 0.00200148 9.59181e-25)
(0.825829 0.00410856 -9.78634e-22)
(0.844024 0.00598501 9.51058e-22)
(0.860792 0.00720376 0)
(0.876276 0.00854331 -8.60124e-23)
(0.890767 0.00915946 -6.45201e-22)
(0.904373 0.010471 1.1825e-21)
(0.917285 0.0109245 -4.83633e-22)
(0.929409 0.012743 -4.97796e-23)
(0.940675 0.0133716 4.15133e-22)
(0.950815 0.0157805 -3.1932e-22)
(0.959715 0.0164513 -6.51447e-23)
(0.96726 0.0191142 -5.62626e-23)
(0.973525 0.0195878 4.83698e-23)
(0.978636 0.022475 0)
(0.982726 0.0226725 0)
(0.986085 0.0260577 1.18448e-22)
(0.988675 0.0259304 -5.57502e-23)
(0.990954 0.0299265 4.41157e-23)
(0.992608 0.0295881 -5.55526e-23)
(0.994281 0.0341411 -5.91534e-23)
(0.99536 0.0337308 1.38584e-23)
(0.996758 0.0390055 -2.0048e-23)
(0.997423 0.038522 1.5259e-23)
(0.998765 0.04469 -6.41941e-24)
(0.999099 0.0443492 0)
(1.00054 0.051443 0)
(-0.0348744 0.0653239 -1.08009e-19)
(-0.0397409 0.060621 -6.99892e-22)
(-0.0406547 0.053169 1.03122e-19)
(-0.0396979 0.0438751 -8.0072e-22)
(-0.0370003 0.0328725 0)
(-0.032247 0.0200195 0)
(-0.0247964 0.0053161 -9.51714e-20)
(-0.0146564 -0.0114456 1.09504e-21)
(-0.00167778 -0.0298141 1.30484e-19)
(0.0156543 -0.04933 -2.54176e-21)
(0.0376239 -0.0697268 -3.86904e-20)
(0.0634608 -0.0906825 -3.06776e-20)
(0.0937902 -0.111357 3.08404e-20)
(0.128534 -0.13089 0)
(0.167153 -0.148127 -1.82986e-20)
(0.209628 -0.160845 1.67959e-20)
(0.255336 -0.169958 0)
(0.302707 -0.173746 0)
(0.350844 -0.172023 2.31266e-21)
(0.398558 -0.16499 -2.60047e-21)
(0.444885 -0.153415 2.86983e-22)
(0.489115 -0.138526 3.87973e-21)
(0.530796 -0.12172 -3.91208e-21)
(0.569725 -0.104326 5.24044e-21)
(0.605866 -0.0874191 9.44346e-23)
(0.639348 -0.0718127 -5.04852e-21)
(0.670386 -0.0579633 -6.10141e-22)
(0.699104 -0.0459715 -1.03424e-23)
(0.725618 -0.0357807 0)
(0.75007 -0.0272543 -3.65125e-21)
(0.772657 -0.0202082 3.75702e-21)
(0.793476 -0.0145435 -1.89941e-22)
(0.812629 -0.0100055 0)
(0.830299 -0.00631453 1.47272e-22)
(0.846673 -0.00333264 -1.95568e-21)
(0.861714 -0.000761051 3.38656e-21)
(0.875694 0.00112589 3.03179e-23)
(0.888699 0.00316871 -1.45191e-22)
(0.901008 0.00429969 -1.1218e-21)
(0.912647 0.00602153 -1.3157e-22)
(0.923832 0.00683267 8.7126e-22)
(0.934428 0.00902073 -7.46567e-22)
(0.944429 0.0100519 -1.38919e-25)
(0.953537 0.0129033 -2.86228e-22)
(0.961654 0.0140312 3.43635e-22)
(0.968627 0.017135 3.83042e-22)
(0.974491 0.0179995 -1.10074e-22)
(0.979352 0.0212229 -1.57697e-22)
(0.983276 0.0216835 2.88328e-22)
(0.986557 0.025286 -1.9258e-22)
(0.989096 0.0253147 4.558e-23)
(0.991377 0.0294378 -5.67916e-23)
(0.993021 0.0291877 -4.31719e-23)
(0.994735 0.0338125 9.0241e-23)
(0.995813 0.033449 -2.4925e-24)
(0.997271 0.0387688 2.00878e-23)
(0.997939 0.0383091 0)
(0.999353 0.0445069 6.42058e-24)
(0.999688 0.0441775 -8.55999e-24)
(1.00121 0.0512958 0)
(0.110854 0.0641737 1.0935e-19)
(0.113459 0.0605387 -2.15387e-19)
(0.117233 0.0527852 1.04758e-19)
(0.123557 0.0425663 1.05356e-19)
(0.131444 0.0303096 -2.06425e-19)
(0.140887 0.0157441 6.66545e-22)
(0.152195 -0.00109538 9.83869e-20)
(0.165516 -0.0203117 9.27531e-20)
(0.181498 -0.0413708 -9.08372e-20)
(0.200498 -0.0632906 0)
(0.22296 -0.0867406 -7.46227e-20)
(0.248799 -0.110762 1.39329e-19)
(0.278088 -0.134495 -6.48936e-20)
(0.310673 -0.156878 0)
(0.34605 -0.176591 0)
(0.383812 -0.191986 5.1853e-22)
(0.423192 -0.202335 -2.16064e-20)
(0.462947 -0.20659 2.09891e-20)
(0.502129 -0.204453 0)
(0.539869 -0.196203 1.27477e-21)
(0.575541 -0.182766 2.08224e-21)
(0.60882 -0.165585 -9.33214e-21)
(0.639627 -0.146278 1.45415e-20)
(0.668059 -0.126356 1.33081e-21)
(0.694272 -0.10702 -1.90721e-20)
(0.718469 -0.0891126 9.747e-21)
(0.740936 -0.0732062 3.01816e-22)
(0.761842 -0.0594082 4.04343e-21)
(0.781262 -0.0476466 -2.34857e-22)
(0.799278 -0.0377539 -3.85385e-21)
(0.81603 -0.0295457 -2.12e-22)
(0.83159 -0.0227925 2.85795e-21)
(0.84604 -0.0172874 -5.30243e-21)
(0.859454 -0.0126848 2.74276e-21)
(0.871969 -0.0091101 0)
(0.883587 -0.00604139 1.938e-21)
(0.894561 -0.00369024 -1.86063e-21)
(0.904774 -0.0013657 1.13703e-21)
(0.914485 0.000195187 -1.42182e-21)
(0.923746 0.00229261 1.31021e-22)
(0.932781 0.00337523 0)
(0.941432 0.00583161 1.00156e-22)
(0.949757 0.00715981 -2.62162e-22)
(0.957461 0.0103524 0)
(0.964472 0.0118464 -6.29411e-22)
(0.970616 0.0153166 2.56323e-22)
(0.97588 0.0165134 -9.79449e-23)
(0.980346 0.0200312 -8.42273e-23)
(0.984004 0.0207252 0)
(0.98714 0.0245267 0)
(0.989584 0.024699 1.50895e-22)
(0.99184 0.0289433 -2.23149e-22)
(0.993458 0.0287769 1.18061e-22)
(0.995204 0.0334729 -3.59549e-23)
(0.996275 0.0331545 -5.55284e-23)
(0.997788 0.0385201 -2.01069e-23)
(0.998457 0.0380838 3.06353e-23)
(0.999942 0.0443129 0)
(1.00028 0.0439949 1.38672e-23)
(1.00189 0.0511395 3.21833e-24)
(0.261439 0.05773 1.10543e-19)
(0.269269 0.0541063 -1.09824e-19)
(0.276584 0.0465271 8.44647e-22)
(0.286739 0.0363856 -8.25234e-22)
(0.298633 0.0239378 8.18362e-22)
(0.31177 0.00885347 -8.0012e-22)
(0.326323 -0.00900226 1.54864e-21)
(0.342489 -0.0293033 0)
(0.360656 -0.0517741 -1.42843e-21)
(0.381085 -0.0759337 1.3481e-21)
(0.404042 -0.101494 1.25334e-21)
(0.429498 -0.127766 -1.12513e-21)
(0.457345 -0.153783 0)
(0.487287 -0.178305 0)
(0.51873 -0.199856 7.48138e-22)
(0.550971 -0.216795 0)
(0.583095 -0.227929 -4.63478e-22)
(0.614041 -0.232301 0)
(0.643053 -0.229624 -8.81687e-21)
(0.669689 -0.220273 1.21853e-20)
(0.693825 -0.205321 -1.97167e-21)
(0.715647 -0.186381 -1.19532e-21)
(0.73552 -0.165211 -6.84843e-21)
(0.753847 -0.143422 6.6505e-21)
(0.77094 -0.122297 9.14786e-21)
(0.786979 -0.102664 -8.89882e-21)
(0.802181 -0.0851406 0)
(0.816675 -0.0699153 -2.5394e-22)
(0.830416 -0.0569073 0)
(0.843353 -0.0459255 0)
(0.855514 -0.0367663 -5.91075e-21)
(0.866903 -0.0291647 6.12865e-21)
(0.87755 -0.0229381 -3.22207e-22)
(0.887471 -0.0177406 -2.92453e-22)
(0.896785 -0.0136064 2.52535e-22)
(0.905464 -0.00999816 1.7093e-21)
(0.913666 -0.00727825 -1.65968e-21)
(0.921371 -0.0047109 1.48404e-21)
(0.928781 -0.00298717 -1.2729e-21)
(0.935765 -0.000669846 -2.63487e-22)
(0.942654 0.000614967 8.77425e-22)
(0.949322 0.00325181 1.37119e-23)
(0.955879 0.00477161 -5.67586e-22)
(0.96206 0.00819896 0)
(0.967832 0.0099581 2.6477e-22)
(0.973021 0.0137083 -3.17845e-22)
(0.977574 0.0151667 4.19861e-22)
(0.981558 0.0189268 8.47633e-23)