/*--------------------------------*- C++ -*----------------------------------*\
| =========                 |                                                 |
| \\      /  F ield         | OpenFOAM: The Open Source CFD Toolbox           |
|  \\    /   O peration     | Version:  2512                                  |
|   \\  /    A nd           | Website:  www.openfoam.com                      |
|    \\/     M anipulation  |                                                 |
\*---------------------------------------------------------------------------*/
FoamFile
{
    version     2.0;
    format      ascii;
    arch        "LSB;label=32;scalar=64";
    class       volScalarField;
    location    "111.25";
    object      p;
}
// * * * * * * * * * * * * * * * * * * * * * * * * * * * * * * * * * * * * * //

dimensions      [0 2 -2 0 0 0 0];

internalField   nonuniform List<scalar> 
13248
(
-0.303211
-0.302474
-0.300657
-0.297961
-0.294558
-0.290546
-0.286007
-0.281034
-0.275729
-0.270209
-0.264595
-0.25901
-0.25357
-0.24837
-0.243476
-0.238917
-0.234682
-0.23073
-0.226983
-0.223371
-0.21972
-0.216068
-0.2117
-0.207158
-0.310841
-0.309168
-0.306617
-0.303343
-0.299469
-0.295092
-0.290279
-0.285087
-0.279579
-0.273822
-0.267894
-0.261876
-0.255846
-0.249869
-0.243993
-0.238243
-0.23262
-0.227106
-0.221665
-0.216249
-0.210774
-0.205178
-0.199204
-0.193318
-0.320155
-0.317368
-0.31393
-0.309949
-0.305491
-0.300641
-0.295435
-0.289878
-0.283969
-0.277722
-0.271173
-0.264374
-0.257396
-0.250313
-0.243196
-0.236105
-0.229087
-0.22217
-0.21536
-0.208651
-0.201977
-0.195333
-0.188528
-0.181956
-0.331127
-0.327076
-0.322629
-0.317838
-0.31269
-0.307236
-0.301458
-0.295287
-0.288659
-0.281546
-0.273968
-0.265998
-0.25774
-0.24932
-0.24086
-0.232469
-0.224229
-0.216192
-0.208378
-0.200776
-0.193346
-0.186078
-0.178835
-0.172027
-0.343773
-0.338339
-0.332801
-0.327125
-0.321175
-0.314939
-0.308321
-0.301178
-0.293404
-0.284974
-0.275956
-0.26649
-0.256754
-0.246935
-0.2372
-0.227677
-0.218451
-0.209564
-0.201021
-0.192803
-0.184872
-0.177206
-0.169714
-0.162681
-0.358098
-0.351194
-0.344517
-0.337891
-0.330995
-0.323716
-0.315873
-0.307283
-0.29786
-0.287661
-0.276858
-0.265692
-0.254417
-0.243258
-0.232386
-0.221915
-0.211901
-0.202358
-0.19327
-0.184604
-0.176319
-0.168379
-0.160721
-0.153537
-0.374005
-0.365582
-0.357744
-0.350083
-0.34202
-0.333315
-0.323743
-0.313156
-0.301588
-0.289247
-0.276448
-0.263523
-0.250765
-0.238392
-0.226543
-0.215285
-0.204636
-0.194577
-0.185071
-0.176073
-0.167535
-0.15941
-0.151658
-0.144363
-0.391214
-0.381279
-0.372261
-0.363422
-0.353859
-0.343227
-0.331344
-0.31822
-0.304104
-0.289399
-0.274544
-0.25992
-0.245804
-0.232365
-0.219682
-0.207769
-0.1966
-0.18613
-0.176302
-0.167059
-0.158347
-0.150113
-0.142326
-0.134976
-0.409218
-0.397836
-0.38761
-0.377363
-0.365849
-0.352707
-0.337942
-0.321851
-0.304953
-0.287834
-0.271003
-0.254824
-0.239511
-0.225157
-0.211772
-0.199317
-0.18773
-0.176939
-0.166875
-0.157467
-0.148653
-0.140381
-0.132612
-0.125263
-0.427253
-0.414548
-0.403046
-0.39106
-0.377063
-0.360835
-0.342739
-0.323443
-0.303735
-0.284317
-0.265693
-0.248152
-0.231817
-0.216695
-0.20273
-0.18984
-0.17793
-0.166909
-0.15669
-0.147194
-0.138351
-0.130103
-0.122392
-0.115097
-0.444317
-0.430449
-0.417543
-0.403398
-0.386368
-0.366579
-0.344888
-0.322362
-0.299988
-0.278495
-0.258314
-0.239623
-0.222443
-0.2067
-0.192284
-0.179072
-0.166945
-0.155793
-0.145514
-0.13602
-0.127231
-0.119081
-0.11148
-0.104314
-0.459268
-0.444434
-0.429966
-0.413206
-0.392619
-0.368899
-0.343494
-0.317832
-0.293013
-0.26971
-0.248224
-0.228609
-0.210779
-0.194589
-0.179876
-0.166486
-0.154276
-0.143118
-0.1329
-0.123523
-0.114903
-0.106961
-0.0995801
-0.0927007
-0.334316
-0.336955
-0.338457
-0.339338
-0.340045
-0.340687
-0.341288
-0.341846
-0.342337
-0.342712
-0.342918
-0.34289
-0.34257
-0.341903
-0.340847
-0.33938
-0.33751
-0.335282
-0.332791
-0.330192
-0.327685
-0.325499
-0.323937
-0.323498
-0.324353
-0.326851
-0.32815
-0.32872
-0.328972
-0.329007
-0.328855
-0.328524
-0.328001
-0.327262
-0.32628
-0.325029
-0.323498
-0.321693
-0.319647
-0.317423
-0.315123
-0.312892
-0.31092
-0.309442
-0.308724
-0.309016
-0.31061
-0.314136
-0.315868
-0.318091
-0.319131
-0.319388
-0.319216
-0.3187
-0.317872
-0.316751
-0.315339
-0.313634
-0.311637
-0.309359
-0.306833
-0.304119
-0.301308
-0.298534
-0.295967
-0.293818
-0.292341
-0.291811
-0.292525
-0.294654
-0.298503
-0.304666
-0.308784
-0.310669
-0.311431
-0.311388
-0.310828
-0.309818
-0.308392
-0.306577
-0.304393
-0.301862
-0.29901
-0.295885
-0.292556
-0.289127
-0.285737
-0.282567
-0.279836
-0.277771
-0.276688
-0.276853
-0.278548
-0.282007
-0.287325
-0.294872
-0.30296
-0.304516
-0.305011
-0.304687
-0.303771
-0.302316
-0.300354
-0.297921
-0.295059
-0.29181
-0.288231
-0.284399
-0.280417
-0.27642
-0.272581
-0.269108
-0.266245
-0.264257
-0.263428
-0.264031
-0.266322
-0.270514
-0.276743
-0.284658
-0.298266
-0.299559
-0.299815
-0.299227
-0.297976
-0.296105
-0.293645
-0.290648
-0.287172
-0.283285
-0.27907
-0.274634
-0.270107
-0.265651
-0.26146
-0.257759
-0.254802
-0.252856
-0.25219
-0.253057
-0.255678
-0.260158
-0.266917
-0.274479
-0.29465
-0.295765
-0.295818
-0.294974
-0.293399
-0.291126
-0.288198
-0.284676
-0.28064
-0.276182
-0.271414
-0.266467
-0.261497
-0.256689
-0.252251
-0.248421
-0.245452
-0.2436
-0.243108
-0.244188
-0.247054
-0.251522
-0.258586
-0.265219
-0.292167
-0.293176
-0.293046
-0.291951
-0.290054
-0.287399
-0.284036
-0.280042
-0.275519
-0.270582
-0.265368
-0.260034
-0.254761
-0.249751
-0.245223
-0.241419
-0.238582
-0.236947
-0.236724
-0.238032
-0.241121
-0.245345
-0.252446
-0.257703
-0.290981
-0.2919
-0.291586
-0.290233
-0.288027
-0.285022
-0.281283
-0.276906
-0.272007
-0.266727
-0.261225
-0.25568
-0.250288
-0.245263
-0.240834
-0.237223
-0.234648
-0.233296
-0.233323
-0.234731
-0.237788
-0.241485
-0.247914
-0.251743
-0.291322
-0.292089
-0.291552
-0.28993
-0.287432
-0.28413
-0.280102
-0.275458
-0.27033
-0.264875
-0.259264
-0.253688
-0.248349
-0.243458
-0.239221
-0.23583
-0.233452
-0.232206
-0.232175
-0.233291
-0.235725
-0.238582
-0.243444
-0.245946
-0.293406
-0.293881
-0.29304
-0.291121
-0.288341
-0.284789
-0.280555
-0.275754
-0.270525
-0.265023
-0.259426
-0.253917
-0.248688
-0.243921
-0.239784
-0.236416
-0.233912
-0.232318
-0.231629
-0.231779
-0.232774
-0.234255
-0.236967
-0.2383
-0.297368
-0.297347
-0.296085
-0.293806
-0.290724
-0.286937
-0.282536
-0.277633
-0.272359
-0.266859
-0.261292
-0.255821
-0.250605
-0.245786
-0.241477
-0.237754
-0.234643
-0.232125
-0.230124
-0.228576
-0.22734
-0.226485
-0.226171
-0.226185
-0.324798
-0.328671
-0.335608
-0.345282
-0.356916
-0.368829
-0.378907
-0.384639
-0.38363
-0.372364
-0.349936
-0.316441
-0.274864
-0.230638
-0.189779
-0.156821
-0.133867
-0.120885
-0.117078
-0.122384
-0.136929
-0.157829
-0.1771
-0.184387
-0.175334
-0.152553
-0.125029
-0.100653
-0.0836241
-0.0747353
-0.0726913
-0.0770011
-0.0894898
-0.110062
-0.130952
-0.139786
-0.130292
-0.108638
-0.0861815
-0.0696298
-0.0594703
-0.0554446
-0.0590218
-0.0685755
-0.075213
-0.0722839
-0.0633652
-0.0536859
-0.04633
-0.042811
-0.0428602
-0.0449138
-0.0447326
-0.0406722
-0.036275
-0.0296294
-0.0201376
-0.0156042
-0.011354
-0.00498186
-0.321569
-0.33197
-0.345567
-0.361397
-0.378276
-0.394347
-0.407305
-0.414559
-0.41365
-0.401518
-0.37669
-0.339488
-0.293242
-0.243924
-0.19803
-0.160295
-0.132825
-0.115515
-0.107413
-0.108083
-0.117581
-0.133946
-0.150758
-0.158938
-0.153068
-0.135331
-0.112822
-0.0927118
-0.0792522
-0.0734209
-0.0740415
-0.0810527
-0.0966217
-0.120237
-0.143213
-0.152166
-0.140806
-0.116264
-0.090685
-0.0712141
-0.0586332
-0.0523091
-0.0534041
-0.0606684
-0.0659011
-0.0636886
-0.0567597
-0.0498406
-0.0447851
-0.0436776
-0.0461696
-0.0497676
-0.0502702
-0.0449132
-0.0393726
-0.0311
-0.0198783
-0.0141855
-0.00902657
-0.00381483
-0.316808
-0.332214
-0.350129
-0.369919
-0.390135
-0.408792
-0.423567
-0.432046
-0.431274
-0.418716
-0.392591
-0.353223
-0.304127
-0.251594
-0.202389
-0.161348
-0.130459
-0.109492
-0.097387
-0.0934632
-0.0978035
-0.109324
-0.123197
-0.131694
-0.128954
-0.116209
-0.098725
-0.0830068
-0.0732913
-0.0706401
-0.0739846
-0.083668
-0.102082
-0.12838
-0.153232
-0.162454
-0.149623
-0.122653
-0.0943411
-0.0722411
-0.0574513
-0.0490475
-0.0478531
-0.0529657
-0.0568495
-0.0552553
-0.0500974
-0.0457789
-0.0429736
-0.0443902
-0.04948
-0.0546802
-0.0557923
-0.0490055
-0.0422505
-0.0324438
-0.0196007
-0.012796
-0.00675685
-0.00268606
-0.310013
-0.328307
-0.348547
-0.370368
-0.392282
-0.412218
-0.428008
-0.437089
-0.436711
-0.424171
-0.397702
-0.357648
-0.307587
-0.253869
-0.203265
-0.160492
-0.127376
-0.103618
-0.0881324
-0.0800934
-0.0794453
-0.0859135
-0.0962712
-0.104292
-0.104151
-0.0959799
-0.0832576
-0.0718528
-0.065859
-0.0663067
-0.0722382
-0.0843378
-0.105209
-0.133847
-0.160503
-0.170318
-0.156525
-0.127651
-0.0970796
-0.0727365
-0.0560094
-0.0457858
-0.0425581
-0.0457107
-0.0483028
-0.0472636
-0.0434946
-0.0415644
-0.0409043
-0.0449002
-0.0527046
-0.0595645
-0.0612285
-0.0529013
-0.0448722
-0.0336324
-0.0193012
-0.0114515
-0.00456178
-0.00160306
-0.301126
-0.320657
-0.341607
-0.363939
-0.386189
-0.406206
-0.422227
-0.431737
-0.431528
-0.419215
-0.393148
-0.353725
-0.304535
-0.251707
-0.2016
-0.158556
-0.12427
-0.0985173
-0.0802922
-0.0687458
-0.0636702
-0.0651552
-0.071532
-0.0782455
-0.0805066
-0.0754002
-0.0669252
-0.059554
-0.057036
-0.0603237
-0.0685718
-0.0827174
-0.105608
-0.13623
-0.16461
-0.175439
-0.161316
-0.131186
-0.0989029
-0.0727593
-0.054402
-0.0426317
-0.0376426
-0.0390553
-0.0404381
-0.0396568
-0.0370623
-0.0372571
-0.0385785
-0.0451508
-0.0557396
-0.0643095
-0.0664855
-0.0565459
-0.0472028
-0.0346412
-0.0189763
-0.0101659
-0.00245697
-0.000572019
-0.291193
-0.310672
-0.331007
-0.352661
-0.374275
-0.393932
-0.4092
-0.418096
-0.417654
-0.405663
-0.380574
-0.342947
-0.296266
-0.246138
-0.198179
-0.15617
-0.121664
-0.0946261
-0.0742776
-0.0598356
-0.0509963
-0.0479468
-0.0501157
-0.0545827
-0.0572503
-0.0550816
-0.0502917
-0.0464868
-0.0470052
-0.0527606
-0.0629861
-0.078764
-0.103153
-0.135328
-0.165329
-0.177503
-0.163836
-0.133217
-0.0998259
-0.0723581
-0.0526974
-0.0396533
-0.0331739
-0.0330878
-0.0333802
-0.0326836
-0.0309117
-0.0329139
-0.0360022
-0.0450821
-0.0584659
-0.0687901
-0.0714605
-0.0598884
-0.0492142
-0.0354456
-0.0186199
-0.00894902
-0.000455891
0.00040306
-0.281647
-0.299881
-0.318356
-0.338284
-0.358354
-0.376495
-0.390678
-0.398072
-0.397038
-0.385437
-0.36191
-0.327171
-0.284394
-0.238386
-0.193824
-0.153865
-0.119925
-0.0922148
-0.0702905
-0.0535373
-0.0416125
-0.0346562
-0.032728
-0.0343365
-0.0363554
-0.0360034
-0.0340313
-0.0331443
-0.0361425
-0.0438958
-0.0556771
-0.0726026
-0.0978905
-0.131118
-0.162632
-0.176369
-0.164039
-0.133735
-0.099874
-0.0715654
-0.0509401
-0.0368871
-0.0291725
-0.0278263
-0.0271826
-0.0264416
-0.0251327
-0.0285975
-0.0331922
-0.0446336
-0.0607646
-0.0728753
-0.0760416
-0.0628803
-0.0508842
-0.0360284
-0.0182256
-0.00780375
0.00143326
0.00132015
-0.273065
-0.288741
-0.304317
-0.321806
-0.34049
-0.355279
-0.367097
-0.372959
-0.371398
-0.360433
-0.339129
-0.308238
-0.270401
-0.229445
-0.18906
-0.15183
-0.119078
-0.0912434
-0.0682501
-0.0497415
-0.0353983
-0.025265
-0.0196406
-0.0180908
-0.0186628
-0.0190525
-0.0187181
-0.0200813
-0.0249312
-0.0341038
-0.0469444
-0.0645299
-0.0901213
-0.123836
-0.156622
-0.172257
-0.161959
-0.132756
-0.0990721
-0.0704042
-0.0491586
-0.0343534
-0.0256379
-0.0232508
-0.0218339
-0.0209753
-0.0197947
-0.0243737
-0.0301789
-0.0437547
-0.0625198
-0.0764382
-0.0801172
-0.0654736
-0.0521972
-0.0363871
-0.0177974
-0.00673529
0.00320695
0.00218023
-0.264551
-0.276315
-0.288598
-0.30312
-0.316936
-0.330436
-0.339743
-0.344349
-0.342494
-0.332664
-0.314274
-0.287919
-0.25557
-0.220052
-0.184155
-0.149994
-0.118858
-0.0913874
-0.0678134
-0.0480702
-0.0319384
-0.0193742
-0.0106722
-0.00600445
-0.00450381
-0.00446401
-0.00469343
-0.00781608
-0.0138503
-0.0237949
-0.0371524
-0.0548563
-0.0802444
-0.114011
-0.147723
-0.165447
-0.157774
-0.130418
-0.0975651
-0.0690092
-0.0474693
-0.0321336
-0.0225946
-0.0193492
-0.0173129
-0.0162948
-0.0149297
-0.0203137
-0.0269972
-0.0423983
-0.0636317
-0.0793609
-0.0835824
-0.0676453
-0.0531527
-0.0365322
-0.0173532
-0.00576813
0.00486
0.00298753
-0.2545
-0.261722
-0.271354
-0.283653
-0.294163
-0.303669
-0.31093
-0.314578
-0.312866
-0.304777
-0.289807
-0.268268
-0.24145
-0.211291
-0.179843
-0.14886
-0.119614
-0.0929065
-0.0691846
-0.0486258
-0.0311759
-0.0167663
-0.00560185
0.00192342
0.00590787
0.00739417
0.0077936
0.00326938
-0.00323982
-0.0133494
-0.0267338
-0.0442144
-0.0690175
-0.102195
-0.136511
-0.156261
-0.151706
-0.126997
-0.095682
-0.0676786
-0.0461106
-0.0303975
-0.0201036
-0.0160875
-0.0135963
-0.0124527
-0.0105299
-0.0164604
-0.0237106
-0.0405669
-0.0640049
-0.0815307
-0.0863429
-0.0693847
-0.0537683
-0.0364601
-0.0168954
-0.00492692
0.00637601
0.00374708
-0.242236
-0.24639
-0.254168
-0.263129
-0.269739
-0.276914
-0.282971
-0.286055
-0.285041
-0.279121
-0.267749
-0.25096
-0.229449
-0.20442
-0.177317
-0.14956
-0.122367
-0.0966604
-0.0730649
-0.0519542
-0.0334659
-0.0175994
-0.00446385
0.0055727
0.0121898
0.0156405
0.01864
0.0127698
0.00659775
-0.00304879
-0.015867
-0.0325971
-0.0565642
-0.0894715
-0.124165
-0.144968
-0.143824
-0.122217
-0.0932008
-0.066178
-0.0448553
-0.0289682
-0.0180196
-0.0132475
-0.0104366
-0.00941547
-0.00676893
-0.0129421
-0.0203083
-0.0381535
-0.0636604
-0.0829134
-0.0882414
-0.0705865
-0.0540179
-0.0360942
-0.0163537
-0.00415628
0.00775477
0.00446213
-0.228485
-0.232488
-0.237124
-0.240227
-0.245865
-0.251187
-0.255507
-0.257802
-0.257195
-0.252949
-0.244522
-0.231717
-0.214753
-0.194267
-0.171207
-0.146688
-0.121821
-0.0975793
-0.0747123
-0.0537385
-0.0349448
-0.0184732
-0.00440053
0.00713979
0.0158271
0.0207619
0.0191165
0.0203001
0.0151442
0.00633732
-0.00565349
-0.0215016
-0.0441955
-0.0756991
-0.109652
-0.131117
-0.132288
-0.114427
-0.0881992
-0.0626349
-0.0421189
-0.0266251
-0.0155786
-0.0103472
-0.00728919
-0.00656474
-0.00692669
-0.00984955
-0.0171244
-0.0353633
-0.0624161
-0.0833373
-0.0892945
-0.0710373
-0.0537502
-0.0352975
-0.015596
-0.00331127
0.00908905
0.00514863
-0.215897
-0.224583
-0.227855
-0.229868
-0.232173
-0.235538
-0.238705
-0.240089
-0.238765
-0.23415
-0.225841
-0.213693
-0.197898
-0.178989
-0.15777
-0.135189
-0.112202
-0.089652
-0.0681929
-0.048284
-0.0301953
-0.0140868
-5.72922e-05
0.0117763
0.0211982
0.0274407
0.0292826
0.0296504
0.0252932
0.0177695
0.00724804
-0.00750671
-0.0302721
-0.0638794
-0.101126
-0.12529
-0.126588
-0.107422
-0.081645
-0.0572084
-0.0378279
-0.0231431
-0.0125782
-0.00745326
-0.00426493
-0.00332399
-0.00255224
-0.00553243
-0.0126083
-0.0313784
-0.0606164
-0.0837864
-0.0908605
-0.0712897
-0.0530182
-0.0342384
-0.0147157
-0.00242033
0.0103801
0.00579266
-0.201623
-0.212621
-0.215394
-0.214671
-0.215922
-0.217952
-0.219768
-0.219991
-0.217758
-0.212655
-0.204466
-0.193134
-0.178815
-0.16191
-0.143026
-0.122895
-0.102272
-0.0818463
-0.062179
-0.043695
-0.0266681
-0.0113001
0.00230061
0.0140747
0.0238544
0.0308839
0.0340992
0.0348001
0.0317476
0.0257668
0.0168654
0.00330935
-0.0193771
-0.0541212
-0.0922381
-0.115655
-0.115615
-0.0972668
-0.073456
-0.0511919
-0.0335083
-0.0199919
-0.0100016
-0.00493631
-0.00176878
-0.000900659
0.000199537
-0.00262456
-0.00920241
-0.0280468
-0.0587151
-0.0832423
-0.0908712
-0.0706719
-0.051573
-0.0328025
-0.0137304
-0.00154305
0.0113703
0.0062464
-0.186643
-0.198509
-0.201452
-0.200429
-0.200011
-0.200615
-0.201233
-0.200582
-0.197839
-0.192674
-0.184979
-0.174728
-0.162004
-0.14706
-0.130327
-0.112365
-0.093788
-0.0751846
-0.0570595
-0.0398196
-0.0237467
-0.00905396
0.00411496
0.0156537
0.0254455
0.0329615
0.0374319
0.038767
0.0366911
0.0319413
0.0241677
0.0111366
-0.0117458
-0.0459213
-0.0818824
-0.103371
-0.103
-0.086419
-0.0651553
-0.0452179
-0.0292135
-0.0168552
-0.00748418
-0.00256358
0.000572082
0.00136842
0.0027993
-0.000221882
-0.00668572
-0.0255249
-0.0566505
-0.0814928
-0.0896665
-0.0693768
-0.049651
-0.0310839
-0.0126375
-0.000668226
0.012195
0.00659985
-0.172229
-0.183718
-0.186896
-0.185762
-0.184411
-0.18399
-0.18377
-0.182573
-0.179604
-0.174561
-0.16738
-0.158061
-0.146659
-0.133346
-0.118441
-0.102384
-0.0856731
-0.0687994
-0.0521958
-0.0362298
-0.0211744
-0.00724489
0.00539421
0.0165817
0.0262363
0.0340287
0.0392242
0.0413704
0.0404823
0.0370631
0.030452
0.0179735
-0.00465167
-0.0372748
-0.0706374
-0.0901168
-0.0894369
-0.0749551
-0.0565242
-0.0390709
-0.024832
-0.0137096
-0.00503896
-0.000331851
0.00278791
0.00358867
0.00527739
0.00209042
-0.00436417
-0.0229172
-0.0537493
-0.0785861
-0.0873677
-0.0673639
-0.0472884
-0.029055
-0.0114137
0.000190084
0.0128584
0.00687228
-0.157762
-0.168688
-0.172022
-0.170949
-0.169203
-0.168164
-0.16737
-0.165806
-0.162742
-0.157891
-0.151214
-0.142739
-0.132518
-0.120673
-0.107435
-0.0931333
-0.0781568
-0.0629086
-0.0477585
-0.0330381
-0.019011
-0.00589623
0.00613763
0.0168952
0.0262793
0.0340884
0.0396327
0.0425226
0.0427461
0.0406688
0.0354307
0.023979
0.00224796
-0.0284825
-0.0588265
-0.0755718
-0.0751131
-0.0631501
-0.0478207
-0.0329473
-0.0204802
-0.0106006
-0.0026784
0.00175953
0.00487286
0.00571663
0.0075506
0.00437094
-0.0019075
-0.0197078
-0.0498201
-0.0744766
-0.0837449
-0.0645244
-0.0444591
-0.0267271
-0.0100574
0.00101631
0.0133382
0.00704914
-0.143397
-0.153858
-0.157254
-0.156316
-0.154454
-0.153076
-0.151914
-0.150133
-0.147086
-0.142506
-0.136364
-0.1287
-0.119567
-0.109049
-0.0973075
-0.0845864
-0.0711906
-0.0574521
-0.0436866
-0.0301889
-0.0172047
-0.00495125
0.00640305
0.0166505
0.0256634
0.033261
0.0389732
0.042352
0.0433944
0.0423825
0.0383605
0.0281195
0.00795676
-0.0199306
-0.0463724
-0.0605651
-0.06067
-0.0514888
-0.0392974
-0.0269685
-0.0162264
-0.00755722
-0.000410003
0.00371108
0.00681178
0.00774225
0.00965044
0.00661425
0.000709595
-0.0159389
-0.044916
-0.069037
-0.0786865
-0.060783
-0.0411729
-0.0241322
-0.00857184
0.00179881
0.0136144
0.00711318
-0.12975
-0.139497
-0.142823
-0.14205
-0.140225
-0.138706
-0.13736
-0.135503
-0.132574
-0.128327
-0.122736
-0.115846
-0.107705
-0.0983778
-0.0879771
-0.0766857
-0.064741
-0.052413
-0.0399676
-0.0276631
-0.0157243
-0.00436143
0.00625683
0.0159232
0.0244915
0.0317409
0.0374712
0.041113
0.0426598
0.0422823
0.0390309
0.0300242
0.0123581
-0.0114847
-0.0336226
-0.0457649
-0.0468472
-0.0404357
-0.0311925
-0.0212588
-0.0121486
-0.00461741
0.00175678
0.00553161
0.0086017
0.00967183
0.0116079
0.00881085
0.00339651
-0.0117768
-0.0390599
-0.0622485
-0.0722041
-0.056118
-0.0374622
-0.0213195
-0.00697021
0.00253114
0.0136742
0.0070543
-0.116782
-0.125662
-0.128868
-0.128293
-0.12661
-0.125091
-0.123699
-0.121875
-0.119132
-0.115253
-0.110211
-0.104052
-0.0968223
-0.0885726
-0.0793846
-0.0693936
-0.0587825
-0.0477686
-0.0365747
-0.0254252
-0.0145231
-0.00406761
0.00577509
0.0148086
0.0228791
0.0297807
0.0353242
0.0390523
0.0408705
0.0408193
0.038058
0.030418
0.0158919
-0.00345933
-0.0215564
-0.0321561
-0.0343345
-0.0303907
-0.0237114
-0.0159194
-0.00830977
-0.00181876
0.00381222
0.00723617
0.0102506
0.0115125
0.0134503
0.0109639
0.00612049
-0.00726903
-0.0323176
-0.0542546
-0.0644313
-0.0505678
-0.0333819
-0.0183554
-0.00527689
0.00321648
0.0135165
0.00687201
-0.104374
-0.112484
-0.11557
-0.115187
-0.11369
-0.112255
-0.110909
-0.10919
-0.10668
-0.103185
-0.0986832
-0.0932162
-0.0868285
-0.079561
-0.0714733
-0.0626656
-0.0532782
-0.0434859
-0.0334735
-0.023435
-0.0135512
-0.00400639
0.00503866
0.013401
0.0209255
0.0274167
0.0326885
0.0363797
0.0383339
0.0384973
0.0362
0.0299968
0.0185498
0.0033345
-0.0112502
-0.0205541
-0.0235918
-0.0215986
-0.0169906
-0.0110227
-0.00475775
0.000801051
0.00574224
0.00883493
0.0117727
0.0132706
0.0152169
0.0131213
0.00894202
-0.00243207
-0.0248858
-0.0453433
-0.0556148
-0.0442402
-0.0290085
-0.0153179
-0.00352688
0.00387347
0.0131569
0.00657798
-0.0927464
-0.100114
-0.103031
-0.102804
-0.101503
-0.100202
-0.0989606
-0.0973953
-0.0951467
-0.0920436
-0.0880654
-0.0832514
-0.077642
-0.0712713
-0.0641835
-0.0564531
-0.0481884
-0.039529
-0.0306276
-0.0216503
-0.0127563
-0.00411242
0.00412868
0.0117952
0.0187377
0.0247726
0.0297193
0.0332906
0.0353049
0.0356534
0.0338325
0.0289298
0.0200822
0.00834216
-0.00325804
-0.0113
-0.0147516
-0.0141305
-0.0110949
-0.0066145
-0.0015252
0.00320769
0.00753013
0.0103254
0.0131776
0.0149446
0.0169656
0.015373
0.0119377
0.00264285
-0.0170855
-0.0359201
-0.0461329
-0.0373343
-0.0244394
-0.0122891
-0.00176371
0.00454191
0.0126349
0.00620034
-0.0819857
-0.0885603
-0.0912637
-0.0911724
-0.0900778
-0.0889387
-0.087835
-0.0864507
-0.0844763
-0.0817604
-0.0782835
-0.0740808
-0.0691892
-0.0636374
-0.057459
-0.0507099
-0.0434736
-0.0358614
-0.0279991
-0.0200271
-0.0120849
-0.00432153
0.00312198
0.0100873
0.0164292
0.021978
0.0265661
0.029962
0.031979
0.0324834
0.0311074
0.0272965
0.0205387
0.0116055
0.00252121
-0.00423817
-0.00769368
-0.00793462
-0.00603236
-0.00271868
0.00136848
0.00537343
0.00915852
0.011698
0.0144595
0.0165083
0.0187343
0.0177901
0.0151483
0.00779093
-0.00933507
-0.0264911
-0.0364747
-0.0301348
-0.0197896
-0.00934491
-3.60242e-05
0.00527878
0.0120163
0.00578973
-0.0719746
-0.0778056
-0.0803012
-0.0803311
-0.0794363
-0.0784664
-0.0775153
-0.0763223
-0.0746212
-0.072278
-0.0692734
-0.0656383
-0.0614058
-0.0566006
-0.0512485
-0.0453918
-0.0390949
-0.0324465
-0.0255496
-0.0185227
-0.011486
-0.00457162
0.00209251
0.00836292
0.0141027
0.0191556
0.0233685
0.0265511
0.0285275
0.0291627
0.0281945
0.0252997
0.020209
0.0134959
0.00650664
0.000992727
-0.00218727
-0.00289629
-0.00177179
0.000658011
0.00391414
0.00728199
0.0106064
0.0129421
0.0156071
0.0178995
0.0204644
0.0203349
0.0185131
0.0127641
-0.0021225
-0.0176037
-0.0271363
-0.0229695
-0.015188
-0.00654875
0.00160707
0.0061411
0.0113856
0.00541906
-0.0627111
-0.0678806
-0.0701724
-0.0702952
-0.069582
-0.0687755
-0.0679782
-0.0669751
-0.0655368
-0.0635443
-0.0609787
-0.0578658
-0.0542354
-0.0501085
-0.0455051
-0.0404574
-0.0350152
-0.029249
-0.0232433
-0.017097
-0.0109128
-0.00480666
0.00110695
0.0067015
0.0118509
0.0164123
0.0202472
0.0231989
0.0251109
0.0258599
0.0252637
0.023145
0.0193813
0.0144147
0.00913543
0.00476599
0.00201501
0.00112128
0.00174282
0.00352377
0.00610952
0.00892995
0.0118519
0.0140364
0.0166075
0.0190582
0.0219928
0.0227377
0.0216914
0.0171345
0.00409411
-0.00968927
-0.0185471
-0.0161796
-0.0107737
-0.00394988
0.00311976
0.00715646
0.0108239
0.00516665
-0.0542372
-0.0587844
-0.0608673
-0.0610712
-0.0605032
-0.0598462
-0.0591966
-0.0583745
-0.0571818
-0.0555131
-0.0533496
-0.0507129
-0.0476285
-0.0441145
-0.0401865
-0.035869
-0.0312005
-0.0262372
-0.0210477
-0.0157144
-0.0103247
-0.00497828
0.000224251
0.0051714
0.00975042
0.0138333
0.0173032
0.0200216
0.0218579
0.0227064
0.0224418
0.0209772
0.0182756
0.0146776
0.0107717
0.0074083
0.00514958
0.0042585
0.00458101
0.00590029
0.0079584
0.0103198
0.0128835
0.0149483
0.017419
0.0199482
0.0231362
0.0245662
0.0240809
0.0203566
0.00902465
-0.0029805
-0.0110168
-0.0100745
-0.00668771
-0.00158438
0.00445992
0.00828366
0.0103871
0.00508399
-0.0464966
-0.0504605
-0.0523323
-0.0525795
-0.0521563
-0.0516445
-0.0511376
-0.0504849
-0.049517
-0.0481422
-0.0463426
-0.0441353
-0.0415421
-0.0385781
-0.0352557
-0.0315934
-0.0276212
-0.0233833
-0.0189357
-0.0143458
-0.00968787
-0.00504646
-0.000508117
0.00382843
0.00786469
0.0114882
0.0146146
0.0171061
0.0188602
0.0197914
0.0198151
0.0188938
0.01704
0.0145105
0.0117006
0.00919446
0.0074277
0.00664996
0.00681827
0.00782014
0.00947122
0.0114548
0.0136971
0.0156509
0.0179869
0.0205065
0.0237503
0.0254714
0.0252247
0.0220999
0.01258
0.00241222
-0.00475036
-0.00487782
-0.00305196
0.000526852
0.00558651
0.00938264
0.0100967
0.00516331
-0.0394304
-0.0428754
-0.0445522
-0.0448373
-0.0445342
-0.0441509
-0.0437705
-0.0432701
-0.0425042
-0.0413921
-0.039917
-0.0380927
-0.0359371
-0.033463
-0.0306799
-0.0276018
-0.0242517
-0.0206646
-0.0168853
-0.0129692
-0.00897774
-0.00498188
-0.00105603
0.00271502
0.00624472
0.00942419
0.0122389
0.0145119
0.0161778
0.0171711
0.0174366
0.0169597
0.0157717
0.0140733
0.0121344
0.0103414
0.00902682
0.00841967
0.00853131
0.00932326
0.0106652
0.0123406
0.0142911
0.0161224
0.0182761
0.0206873
0.0238072
0.0253824
0.0251508
0.0224814
0.0148265
0.00645781
0.00018399
-0.000691242
4.92881e-05
0.00237925
0.00646247
0.0102267
0.00991266
0.00532376
-0.0330161
-0.0360011
-0.0374986
-0.0378134
-0.0376226
-0.0373394
-0.0370647
-0.0366951
-0.0361053
-0.0352242
-0.0340351
-0.0325484
-0.0307792
-0.0287378
-0.0264313
-0.0238701
-0.0210717
-0.0180635
-0.0148812
-0.0115696
-0.00817898
-0.00476803
-0.00139885
0.00185788
0.00493871
0.00778583
0.0102274
0.0122746
0.0138435
0.014875
0.0153312
0.0152091
0.0145429
0.0134814
0.012223
0.011008
0.0100942
0.0096781
0.00979506
0.0104538
0.0115628
0.0129871
0.0146704
0.0163533
0.0182757
0.0204591
0.0234771
0.0244982
0.0242232
0.0219124
0.0159605
0.00924554
0.00387356
0.00251788
0.00257607
0.0039665
0.00706757
0.0106164
0.00971041
0.00541258
-0.027216
-0.0297876
-0.031115
-0.0314425
-0.031334
-0.0311511
-0.0309706
-0.0307154
-0.0302796
-0.0296005
-0.0286611
-0.0274694
-0.026038
-0.0243751
-0.0224862
-0.0203785
-0.0180653
-0.0155678
-0.0129139
-0.0101397
-0.0072858
-0.00440049
-0.00153444
0.00125375
0.00390722
0.00636077
0.00853834
0.0103926
0.0118659
0.0129127
0.0135101
0.013659
0.0133928
0.0128186
0.0120541
0.0113174
0.0107497
0.0105237
0.0106802
0.0112577
0.0121915
0.0134097
0.0148489
0.0163551
0.0180022
0.0197493
0.0211857
0.0229974
0.022817
0.0208233
0.016274
0.0109877
0.0065021
0.00487349
0.00452986
0.00526032
0.00739422
0.0104921
0.00933824
0.00526833
-0.0219797
-0.0241866
-0.0253605
-0.0256957
-0.0256599
-0.0255542
-0.0254516
-0.0252938
-0.0249908
-0.0244854
-0.0237616
-0.022825
-0.021686
-0.0203511
-0.0188245
-0.0171113
-0.0152211
-0.01317
-0.0109799
-0.0086791
-0.00629994
-0.00388161
-0.00146483
0.000901668
0.00316902
0.00528228
0.00719688
0.00886704
0.0102399
0.011279
0.011971
0.0123184
0.0123485
0.0121456
0.0117633
0.0113822
0.0110965
0.0110414
0.0112518
0.0117813
0.0125819
0.0136281
0.0148467
0.0161639
0.0175501
0.018989
0.020275
0.0214345
0.0212346
0.0195256
0.0160619
0.0119402
0.00827344
0.0065298
0.00594623
0.00623243
0.00746289
0.00990449
0.0086907
0.00482655
-0.0172652
-0.0191543
-0.0201904
-0.0205269
-0.0205506
-0.0205154
-0.0204828
-0.0204016
-0.0202052
-0.0198451
-0.0193046
-0.0185862
-0.0176977
-0.0166446
-0.0154297
-0.0140563
-0.0125315
-0.0108672
-0.00908018
-0.00719238
-0.00522923
-0.00322197
-0.00120287
0.000788755
0.00271335
0.00452747
0.00620385
0.00768413
0.00894726
0.00995671
0.0107014
0.0111834
0.0114219
0.0114664
0.0113893
0.0112814
0.0112176
0.0113045
0.011569
0.0120692
0.0127663
0.0136668
0.0146905
0.0158181
0.016965
0.0181274
0.0191546
0.0198788
0.0196426
0.0181925
0.0155454
0.0123316
0.00937714
0.00763793
0.00688989
0.00687386
0.00733288
0.00899833
0.00757882
0.00414594
-0.0130348
-0.0146471
-0.0155596
-0.0158931
-0.0159651
-0.0159872
-0.0160116
-0.0159976
-0.0158878
-0.0156468
-0.0152597
-0.0147257
-0.0140499
-0.0132363
-0.012287
-0.011204
-0.00999199
-0.00865972
-0.00721991
-0.00568929
-0.00408749
-0.0024387
-0.000768391
0.000892274
0.00251424
0.0040609
0.00550258
0.00680926
0.00795592
0.00891848
0.00968167
0.0102469
0.0106279
0.0108596
0.0109846
0.011075
0.0111776
0.0113752
0.011685
0.012164
0.0127782
0.0135534
0.0144079
0.0153536
0.0162852
0.0171967
0.017964
0.018393
0.0181266
0.0169045
0.0148659
0.0123437
0.00997572
0.0083264
0.00744684
0.00721035
0.00707467
0.00797765
0.00653975
0.00340342
-0.00924873
-0.0106211
-0.0114239
-0.0117513
-0.0118618
-0.0119303
-0.0120014
-0.0120424
-0.0120047
-0.0118575
-0.0115977
-0.0112176
-0.0107206
-0.0101091
-0.0093841
-0.00854675
-0.00760021
-0.00655054
-0.00540712
-0.00418258
-0.00289172
-0.00155294
-0.000185789
0.00118551
0.00253833
0.00384462
0.00508139
0.00622109
0.00724758
0.00813922
0.00889045
0.00949704
0.00996366
0.0103164
0.0105799
0.0108075
0.0110279
0.0113047
0.0116466
0.0121059
0.0126509
0.0133166
0.014026
0.0148035
0.0155457
0.0162417
0.0167844
0.0170084
0.0167247
0.0156971
0.0141101
0.0121092
0.0102002
0.00868981
0.00770404
0.00729255
0.00674702
0.00697711
0.0055626
0.00272701
-0.00586902
-0.00703511
-0.00774158
-0.0080607
-0.00820168
-0.0083077
-0.00841692
-0.00850422
-0.0085302
-0.00846768
-0.00830187
-0.00804326
-0.00769213
-0.00724811
-0.00671034
-0.00607891
-0.00535557
-0.00454429
-0.00365165
-0.00268705
-0.00166155
-0.000588948
0.000516118
0.00163535
0.00275157
0.00384319
0.00489242
0.00587754
0.0067855
0.00760012
0.00831307
0.00892105
0.00942737
0.00984788
0.0101968
0.0105116
0.0108085
0.0111356
0.0114949
0.0119316
0.0124161
0.012985
0.0135704
0.0141978
0.0147773
0.0152919
0.0156582
0.0157395
0.0154491
0.014583
0.0133289
0.0117213
0.0101535
0.00879962
0.00773974
0.00718579
0.00638893
0.00608171
0.00468973
0.00216813
-0.00286133
-0.00385085
-0.00447277
-0.00478195
-0.00494597
-0.005081
-0.00521902
-0.00534037
-0.00541329
-0.00541539
-0.00533768
-0.00517925
-0.00494441
-0.00463793
-0.00425526
-0.00379537
-0.00325827
-0.00264637
-0.00196433
-0.00121885
-0.0004181
0.000427814
0.00130811
0.00220918
0.00311812
0.00401863
0.00489704
0.00573696
0.00652738
0.00725518
0.00791349
0.00849823
0.00900978
0.00945804
0.00985008
0.0102117
0.0105506
0.0109027
0.0112648
0.0116739
0.0121034
0.0125862
0.0130662
0.0135638
0.0140066
0.0143733
0.0146048
0.0145888
0.014298
0.0135631
0.0125503
0.0112411
0.00992059
0.00871436
0.00764553
0.00695539
0.00601936
0.00532744
0.00395027
0.00173254
-0.000193605
-0.00103257
-0.00158067
-0.00187892
-0.00206008
-0.00221747
-0.00237755
-0.00252528
-0.00263541
-0.00268996
-0.00268151
-0.00260911
-0.00247384
-0.00227369
-0.00201336
-0.00169322
-0.00130939
-0.000862753
-0.000356052
0.000206123
0.000817943
0.00147214
0.00216082
0.00287412
0.0036026
0.00433421
0.00505859
0.00576304
0.00643865
0.00707519
0.00766669
0.00820882
0.00869997
0.00914573
0.0095484
0.00992525
0.0102785
0.0106339
0.0109853
0.011362
0.01174
0.0121459
0.0125357
0.0129228
0.0132531