/*--------------------------------*- C++ -*----------------------------------*\
| =========                 |                                                 |
| \\      /  F ield         | OpenFOAM: The Open Source CFD Toolbox           |
|  \\    /   O peration     | Version:  2512                                  |
|   \\  /    A nd           | Website:  www.openfoam.com                      |
|    \\/     M anipulation  |                                                 |
\*---------------------------------------------------------------------------*/
FoamFile
{
    version     2.0;
    format      ascii;
    arch        "LSB;label=32;scalar=64";
    class       surfaceScalarField;
    location    "19.75";
    object      phi;
}
// * * * * * * * * * * * * * * * * * * * * * * * * * * * * * * * * * * * * * //

dimensions      [0 3 -1 0 0 0 0];

oriented        oriented;

internalField   nonuniform List<scalar> 
26232
(
3.16931e-05
0.000976159
-0.00100785
0.000301719
0.00193617
-0.0022062
0.000963086
0.00205307
-0.00271444
0.00216002
0.00137861
-0.00257555
0.00403642
-5.81691e-05
-0.00181822
0.00673845
-0.00224463
-0.000457395
0.0104096
-0.00517431
0.0015032
0.0151827
-0.00884018
0.00406702
0.0211671
-0.0132226
0.00723818
0.0284332
-0.0182805
0.0110144
0.0369981
-0.0239456
0.0153808
0.0468144
-0.0301209
0.0203046
0.0577655
-0.0366837
0.0257326
0.0696675
-0.0434931
0.0315911
0.0822792
-0.0504
0.0377883
0.0953172
-0.0572574
0.0442193
0.108477
-0.0639315
0.0507719
0.121454
-0.0703119
0.0573349
0.133968
-0.0763137
0.0637994
0.145782
-0.0819006
0.0700867
0.156712
-0.0870253
0.0760957
0.166627
-0.0918059
0.0818909
0.175404
-0.0960005
0.0872228
-0.100329
0.0931135
0.18262
7.36563e-05
0.000902503
0.000497781
0.00151205
0.00145531
0.00109555
0.00311957
-0.000285649
0.00566075
-0.00259936
0.00924073
-0.00582461
0.0140029
-0.00993653
0.0200543
-0.0148915
0.0274459
-0.0206142
0.0361561
-0.0269907
0.04608
-0.0338696
0.0570293
-0.0410702
0.0687431
-0.0483974
0.0809083
-0.0556584
0.0931872
-0.0626789
0.105248
-0.0693177
0.116792
-0.0754763
0.127584
-0.0811037
0.137467
-0.0861961
0.146361
-0.0907948
0.154295
-0.0949593
0.161316
-0.0988268
0.167653
-0.102338
-0.106065
0.173389
0.000135792
0.000766711
0.000767626
0.000880216
0.00210535
-0.000242181
0.00434649
-0.00252679
0.00767525
-0.00592812
0.0122485
-0.0103978
0.0181738
-0.0158619
0.0254852
-0.0222028
0.0341224
-0.0292515
0.0439231
-0.0367914
0.0546286
-0.0445751
0.0659071
-0.0523488
0.0773877
-0.059878
0.0887
-0.0669707
0.0995139
-0.0734927
0.109572
-0.0793758
0.118712
-0.0846161
0.126874
-0.0892656
0.134095
-0.0934175
0.140491
-0.0971903
0.146231
-0.1007
0.151487
-0.104083
0.15648
-0.107331
-0.110856
0.161271
0.000218687
0.000548024
0.00111176
-1.28602e-05
0.00290865
-0.00203907
0.00581845
-0.00543658
0.0100168
-0.0101265
0.0156192
-0.0160002
0.0226497
-0.0228924
0.031017
-0.0305701
0.0405067
-0.0387413
0.0507972
-0.0470818
0.0614952
-0.0552731
0.0721863
-0.0630398
0.0824867
-0.0701784
0.0920893
-0.0765733
0.100794
-0.0821975
0.10852
-0.0871015
0.115296
-0.0913927
0.121242
-0.095211
0.126528
-0.0987035
0.131343
-0.102005
0.135865
-0.105222
0.140228
-0.108446
0.144568
-0.11167
-0.115155
0.148867
0.000321633
0.000226391
0.00152416
-0.00121538
0.00384378
-0.0043587
0.00747922
-0.00907202
0.0125628
-0.01521
0.0191213
-0.0225587
0.0270448
-0.0308159
0.0360783
-0.0396036
0.0458456
-0.0485086
0.0559006
-0.0571368
0.0657941
-0.0651666
0.0751384
-0.0723841
0.0836562
-0.0786962
0.0912043
-0.0841214
0.0977715
-0.0887647
0.103454
-0.0927838
0.108416
-0.0963547
0.112848
-0.0996433
0.116932
-0.102787
0.120816
-0.105889
0.124608
-0.109015
0.128372
-0.11221
0.132168
-0.115465
-0.118943
0.135955
0.000442939
-0.000216547
0.00199356
-0.002766
0.00487427
-0.00723941
0.00924152
-0.0134393
0.0151395
-0.021108
0.0224576
-0.0298768
0.0309158
-0.0392741
0.040094
-0.0487818
0.0494985
-0.0579131
0.0586473
-0.0662856
0.0671472
-0.0736665
0.0747448
-0.0799818
0.0813422
-0.0852936
0.0869794
-0.0897586
0.0917946
-0.0935799
0.0959749
-0.0969641
0.0997122
-0.100092
0.103172
-0.103104
0.106481
-0.106096
0.109723
-0.109131
0.11295
-0.112242
0.116191
-0.11545
0.119475
-0.11875
-0.122228
0.122759
0.000579759
-0.000796306
0.00250233
-0.00468857
0.00594759
-0.0106847
0.010989
-0.0184807
0.0175359
-0.0276549
0.0253042
-0.0376451
0.0338434
-0.0478133
0.0426158
-0.0575542
0.0511009
-0.0663982
0.0588891
-0.0740737
0.0657357
-0.0805131
0.0715696
-0.0858157
0.0764627
-0.0901868
0.0805775
-0.0938734
0.0841111
-0.0971135
0.0872516
-0.100105
0.0901521
-0.102993
0.092923
-0.105874
0.0956362
-0.108809
0.0983347
-0.111829
0.101043
-0.114951
0.103773
-0.11818
0.106538
-0.121514
-0.124993
0.109302
0.000727412
-0.00152372
0.00302549
-0.00698665
0.00699561
-0.0146548
0.0125844
-0.0240695
0.0195291
-0.0345996
0.0273677
-0.0454836
0.0355226
-0.0559682
0.0434257
-0.0654573
0.0506319
-0.0736045
0.0568834
-0.0803252
0.0621146
-0.0857443
0.0664116
-0.0901128
0.0699496
-0.0937248
0.0729312
-0.0968549
0.0755419
-0.0997242
0.0779279
-0.102491
0.0801912
-0.105256
0.0823962
-0.108079
0.0845808
-0.110994
0.086766
-0.114014
0.0889626
-0.117147
0.0911751
-0.120393
0.0934093
-0.123748
-0.127223
0.0956398
0.000878827
-0.00240254
0.0035308
-0.00963862
0.00793922
-0.0190632
0.0138858
-0.0300161
0.0209229
-0.0416367
0.0284441
-0.0530049
0.0358243
-0.0633484
0.04256
-0.0721929
0.0483526
-0.0793971
0.0531185
-0.0850911
0.0569415
-0.0895672
0.060001
-0.0931723
0.062504
-0.0962278
0.0646375
-0.0989884
0.0665459
-0.101633
0.068328
-0.104273
0.0700449
-0.106973
0.0717317
-0.109766
0.0734073
-0.112669
0.0750817
-0.115689
0.0767598
-0.118825
0.0784438
-0.122077
0.0801347
-0.125439
-0.128906
0.0818171
0.00102465
-0.0034272
0.00398116
-0.0125951
0.0086978
-0.0237799
0.0147697
-0.036088
0.0215835
-0.0484505
0.028455
-0.0598764
0.0347993
-0.0696928
0.0402463
-0.0776399
0.0446659
-0.0838167
0.0481208
-0.088546
0.0507866
-0.0922331
0.0528741
-0.0952598
0.0545755
-0.0979291
0.0560387
-0.100452
0.0573642
-0.102958
0.0586129
-0.105521
0.0598193
-0.108179
0.0610015
-0.110949
0.0621694
-0.113837
0.063328
-0.116847
0.0644797
-0.119977
0.0656255
-0.123222
0.0667638
-0.126578
-0.130028
0.0678866
0.00115462
-0.00458181
0.00434025
-0.0157808
0.00920248
-0.0286421
0.0151521
-0.0420377
0.0214596
-0.054758
0.0274432
-0.0658599
0.0326277
-0.0748773
0.036803
-0.0818152
0.0399869
-0.0870005
0.0423387
-0.0908979
0.0440708
-0.0939651
0.0453836
-0.0965725
0.0464335
-0.0989791
0.0473269
-0.101345
0.0481284
-0.103759
0.0488734
-0.106266
0.0495809
-0.108887
0.0502606
-0.111628
0.0509179
-0.114495
0.0515558
-0.117485
0.0521756
-0.120597
0.0527771
-0.123824
0.0533573
-0.127158
-0.130584
0.0539124
0.00126148
-0.00584329
0.00458071
-0.0191
0.00940831
-0.0334697
0.0150005
-0.0476299
0.0205812
-0.0603387
0.0255424
-0.0708211
0.0295549
-0.0788898
0.0325583
-0.0848187
0.0346763
-0.0891185
0.0361153
-0.0923368
0.0370847
-0.0949346
0.0377543
-0.0972421
0.0382412
-0.099466
0.0386169
-0.101721
0.0389207
-0.104063
0.0391729
-0.106519
0.0393837
-0.109097
0.0395587
-0.111803
0.0397014
-0.114637
0.0398141
-0.117598
0.0398978
-0.120681
0.0399522
-0.123878
0.0399743
-0.12718
0.0399639
-0.130573
-0.000274466
0.000114538
0.000159928
-0.000950207
0.000296574
0.000379167
-0.00194129
0.000460354
0.000530725
-0.0031868
0.00061437
0.000631146
-0.00464236
0.000761678
0.000693878
-0.00627636
0.000904117
0.000729891
-0.00806732
0.00104345
0.000747508
-0.0100015
0.00118177
0.000752395
-0.0120709
0.00132163
0.000747828
-0.014272
0.00146587
0.000735143
-0.0166036
0.00161734
0.000714264
-0.0190665
0.00177871
0.000684205
-0.0216622
0.00195227
0.000643468
-0.0243925
0.00213996
0.000590339
-0.027259
0.0023434
0.000523068
-0.0302631
0.00256408
0.000440008
-0.0334063
0.00280354
0.000339712
-0.0366908
0.00306364
0.000220885
-0.0401196
0.00334681
8.19106e-05
-0.0437021
0.0036558
-7.32617e-05
-0.0474486
0.00399421
-0.000247674
-0.051375
0.00436589
-0.000439501
-0.0555119
0.00478268
-0.000645832
0.00526798
-0.0599189
-0.000860946
-0.000258678
0.000373216
-0.000898194
0.000936091
-0.00183707
0.00139923
-0.00301599
0.00179329
-0.00439065
0.00213633
-0.00592849
0.00244195
-0.0076062
0.00272116
-0.00940753
0.0029831
-0.0113214
0.00323554
-0.0133405
0.00348489
-0.0154594
0.00373627
-0.0176741
0.00399346
-0.0199808
0.00425897
-0.0223752
0.00453428
-0.0248519
0.00482012
-0.0274046
0.00511679
-0.0300257
0.00542465
-0.0327067
0.00574464
-0.035439
0.0060791
-0.038216
0.00643279
-0.0410346
0.00681287
-0.0438966
0.00722789
-0.046812
0.00769808
0.00828352
-0.0498276
-0.000223659
0.000596874
-0.000782621
0.00149505
-0.00160589
0.0022225
-0.00263846
0.00282586
-0.00383687
0.00333474
-0.00516696
0.00377205
-0.006602
0.00415619
-0.00812088
0.00450199
-0.00970654
0.0048212
-0.0113445
0.00512288
-0.0130218
0.00541353
-0.0147256
0.00569724
-0.0164426
0.00597597
-0.0181582
0.00624989
-0.0198558
0.00651773
-0.0215163
0.0067773
-0.0231176
0.00702596
-0.0246343
0.00726134
-0.0260375
0.00748232
-0.0272958
0.00769102
-0.0283783
0.00789547
-0.0292605
0.00811009
-0.0299197
0.00835725
0.00870641
-0.0303426
-0.000175964
0.000772839
-0.00062359
0.00194268
-0.00128557
0.00288447
-0.00211273
0.00365302
-0.00306292
0.00428494
-0.00410017
0.00480929
-0.00519354
0.00524957
-0.00631597
0.00562442
-0.00744302
0.00594825
-0.00855174
0.00623161
-0.00961969
0.00648148
-0.010624
0.00670155
-0.0115407
0.00689262
-0.0123437
0.00705296
-0.0130048
0.00717878
-0.0134921
0.00726465
-0.0137701
0.00730394
-0.0137982
0.00728938
-0.0135296
0.00721378
-0.0129102
0.00707163
-0.011878
0.00686325
-0.010369
0.00660113
-0.00832808
0.00631628
0.00611963
-0.00574129
-0.000123911
0.00089675
-0.000446833
0.0022656
-0.00092486
0.0033625
-0.00151458
0.00424274
-0.00217519
0.00494555
-0.00286892
0.00550303
-0.00356073
0.00594137
-0.00421761
0.0062813
-0.00480782
0.00653845
-0.0053
0.00672379
-0.00566247
0.00684395
-0.00586254
0.00690162
-0.00586588
0.00689596
-0.00563603
0.0068231
-0.00513385
0.0066766
-0.00431698
0.00644778
-0.00313916
0.00612613
-0.00154936
0.00569958
0.000509564
0.00515486
0.00310309
0.0044781
0.00631002
0.00365632
0.0102225
0.00268862
0.01494
0.00159876
0.000423887
0.0206358
-7.57291e-05
0.000972479
-0.000278163
0.00246803
-0.000573149
0.00365749
-0.000921299
0.00459089
-0.0012825
0.00530675
-0.00161717
0.0058377
-0.00188648
0.00621068
-0.00205207
0.00644689
-0.00207555
0.00656193
-0.00191787
0.00656611
-0.00153875
0.00646483
-0.000896165
0.00625903
5.41345e-05
0.00594566
0.00135902
0.00551822
0.00306837
0.00496724
0.00523545
0.00428071
0.0079172
0.00344437
0.0111747
0.00244208
0.0150736
0.00125598
0.0196833
-0.000131582
0.0250852
-0.0017456
0.0313822
-0.00360839
0.0386364
-0.00565549
-0.00821378
0.0472741
-3.78044e-05
0.00101028
-0.000137917
0.00256815
-0.000269738
0.00378931
-0.000394695
0.00471585
-0.000471771
0.00538383
-0.000458912
0.00582484
-0.000313322
0.00606509
8.7149e-06
0.00612486
0.000552292
0.00601835
0.00136446
0.00575394
0.00249474
0.00533455
0.00399563
0.00475814
0.00592299
0.0040183
0.00833638
0.00310483
0.0112992
0.00200438
0.0148787
0.000701262
0.0191456
-0.000822574
0.0241741
-0.00258638
0.0300397
-0.00460965
0.0368216
-0.00691341
0.0445844
-0.00950843
0.0534473
-0.0124713
0.0633286
-0.0155368
-0.0198031
0.0749179
-1.33512e-05
0.00102363
-3.64574e-05
0.00259125
-3.46488e-05
0.0037875
3.39827e-05
0.00464722
0.00021421
0.0052036
0.000552621
0.00548643
0.00109769
0.00552002
0.00190036
0.00532219
0.0030147
0.00490401
0.00449858
0.00427006
0.00641422
0.00341892
0.00882854
0.00234382
0.0118133
0.00103359
0.0154445
-0.00052646
0.0198028
-0.0023539
0.0249709
-0.00446678
0.0310322
-0.00688395
0.0380687
-0.00962287
0.046157
-0.012698
0.0553691
-0.0161255
0.0657401
-0.0198794
0.0773853
-0.0241165
0.0900526
-0.0282041
-0.0342569
0.104506
-1.82029e-06
0.00102546
2.82019e-05
0.00256123
0.000136298
0.0036794
0.000373192
0.00441032
0.000791452
0.00478534
0.00144598
0.0048319
0.00239508
0.00457093
0.0037015
0.00401577
0.00543337
0.00317214
0.00766481
0.00203862
0.010476
0.000607743
0.0139527
-0.00113285
0.0181848
-0.00319858
0.0232646
-0.00560627
0.029283
-0.00837229
0.0363266
-0.0115104
0.0444727
-0.01503
0.0537843
-0.0189345
0.0643045
-0.0232182
0.0760559
-0.0278769
0.0890108
-0.0328342
0.103191
-0.0382967
0.118308
-0.0433209
-0.050726
0.134777
1.50957e-06
0.00102395
7.06169e-05
0.00249212
0.000272712
0.00347731
0.000672708
0.00401033
0.00133656
0.00412149
0.00233342
0.00383504
0.00373764
0.00316671
0.00563018
0.00212323
0.00809923
0.000703085
0.0112396
-0.00110179
0.0151511
-0.00330377
0.0199351
-0.00591681
0.0256901
-0.00895355
0.0325061
-0.0124223
0.0404584
-0.0163246
0.0496008
-0.0206528
0.0599596
-0.0253888
0.071529
-0.0305038
0.0842671
-0.0359563
0.0980935
-0.0417033
0.112894
-0.0476348
0.128498
-0.0539003
0.144758
-0.0595808
-0.0673268
0.161358
3.47267e-06
0.00102047
0.000114456
0.00238114
0.000422587
0.00316918
0.00101285
0.00342006
0.00197093
0.00316341
0.0033869
0.00241907
0.00535748
0.00119613
0.00798655
-0.00050584
0.011384
-0.00269434
0.0156614
-0.00537924
0.0209268
-0.00856917
0.0272766
-0.0122666
0.0347869
-0.0164639
0.0435048
-0.0211403
0.0534406
-0.0262604
0.0645618
-0.0317739
0.0767898
-0.0376169
0.0900012
-0.0437152
0.10403
-0.0499855
0.118678
-0.056351
0.133741
-0.0626979
0.148923
-0.0690818
0.164243
-0.0749009
-0.0818022
0.178718
1.26205e-05
0.000187561
0.0006423
0.00148682
0.002832
0.00479367
0.00749301
0.0110542
0.015598
0.0212332
0.0280448
0.0360828
0.0453516
0.0558023
0.0673302
0.0797757
0.0929308
0.10655
0.120364
0.1341
0.147498
0.160307
0.172629
0.18394
-0.0631546
0.0047423
-0.00150658
-0.0661988
0.00498646
-0.00194228
-0.0690028
0.00518531
-0.00238134
-0.0714866
0.00529424
-0.00281047
-0.0735627
0.00527398
-0.00319787
-0.0751303
0.00508095
-0.00351335
-0.0760776
0.00466567
-0.00371835
-0.0762807
0.00398213
-0.00377901
-0.0756131
0.00300205
-0.00366969
-0.0739487
0.00169967
-0.00336406
-0.0711207
1.93979e-05
-0.00284735
-0.06718
-0.0017521
-0.00218861
-0.0619467
-0.00392442
-0.00130894
-0.0553633
-0.00635196
-0.000231358
-0.0473758
-0.0089177
0.000930157
-0.0380216
-0.0114917
0.00213746
-0.0273772
-0.0139259
0.0032815
-0.0156336
-0.0159241
0.00418047
-0.00294429
-0.0174496
0.00476035
0.0103415
-0.0181241
0.00483826
0.0239598
-0.0180342
0.00441594
0.037604
-0.0171181
0.00347388
0.0509839
-0.0154613
0.00208141
0.0638542
-0.0132261
0.000355731
0.0760233
-0.0106236
-0.00154548
0.0873732
-0.00785704
-0.0034929
0.0978302
-0.0050958
-0.00536119
0.107362
-0.00246601
-0.00706589
0.11596
-5.16137e-05
-0.00854647
0.123689
0.00202199
-0.00975077
0.130582
0.0038007
-0.0106933
0.136705
0.00528959
-0.0114129
0.142143
0.0064248
-0.0118631
0.146962
0.00735886
-0.0121782
0.151233
0.00799799
-0.0122683
0.155029
0.00856395
-0.0123602
0.158412
0.00884262
-0.0122254
0.161439
0.00928432
-0.0123119
0.164167
0.00936987
-0.0120973
0.166644
0.0098682
-0.0123448
0.168915
0.00987413
-0.0121457
0.17101
0.0105742
-0.0126691
0.172934
0.0106554
-0.0125791
0.174667
0.0117141
-0.0134476
0.176177
0.0119541
-0.0134643
0.177432
0.0134024
-0.0146565
0.178417
0.0136684
-0.0146539
0.179134
0.015539
-0.0162555
0.179608
0.0157333
-0.016208
0.179867
0.0181986
-0.0184577
0.179949
0.0184074
-0.0184885
0.179883
0.021573
-0.0215074
0.179701
0.0218955
-0.0217135
0.179423
0.0258453
-0.0255674
0.179074
0.0262434
-0.0258938
0.178659
0.0311818
-0.0307674
0.178198
0.0316991
-0.0312373
0.177688
0.0377662
-0.0372567
0.177147
0.0386258
-0.0380845
0.0460586
-0.0454735
-0.052553
0.00746777
-0.0551332
0.0075666
-0.0574579
0.00750999
-0.0594708
0.00730714
-0.0610913
0.00689455
-0.0622269
0.00621649
-0.062771
0.00520981
-0.0626008
0.00381192
-0.0615744
0.00197565
-0.059561
-0.000313771
-0.0566886
-0.00285292
-0.0526247
-0.00581601
-0.0473707
-0.00917842
-0.0408784
-0.0128443
-0.033119
-0.016677
-0.0241502
-0.0204605
-0.0139725
-0.0241036
-0.00283845
-0.0270582
0.00888774
-0.0291758
0.0211572
-0.0303936
0.0336376
-0.0305146
0.0460385
-0.0295191
0.0581128
-0.0275355
0.069671
-0.0247843
0.0805813
-0.0215339
0.0907727
-0.0180485
0.10021
-0.0145328
0.10888
-0.0111364
0.116808
-0.00797922
0.123989
-0.00515924
0.130484
-0.00269434
0.136321
-0.000547336
0.14158
0.00116535
0.146295
0.00264406
0.150513
0.00378011
0.154301
0.00477631
0.157698
0.00544484
0.160757
0.00622593
0.163523
0.006604
0.166043
0.00734773
0.168363
0.00755473
0.17051
0.0084265
0.172492
0.00867412
0.174287
0.00991908
0.17586
0.0103812
0.177173
0.0120886
0.178213
0.0126286
0.178976
0.0147758
0.179491
0.0152184
0.179783
0.0179063
0.179894
0.0182963
0.179854
0.0216136
0.179696
0.0220535
0.179438
0.026103
0.179109
0.0265725
0.178712
0.031579
0.178268
0.0321431
0.177772
0.0382619
0.177245
0.0391526
0.0466341
-0.032123
0.00924818
-0.0338374
0.00928096
-0.0353407
0.00901332
-0.0365613
0.00852775
-0.0374353
0.00776852
-0.037898
0.00667922
-0.0378549
0.00516668
-0.0371886
0.00314567
-0.0356954
0.000482373
-0.0335591
-0.00244999
-0.0304776
-0.00593441
-0.0263948
-0.00989884
-0.021269
-0.0143042
-0.0150551
-0.0190583
-0.00772408
-0.024008
0.000690948
-0.0288755
0.00977906
-0.0331917
0.0197224
-0.0370015
0.0303052
-0.0397586
0.0412186
-0.041307
0.0521828
-0.0414788
0.0629459
-0.0402822
0.0733024
-0.037892
0.083109
-0.0345909
0.0922854
-0.0307104
0.100807
-0.0265704
0.108687
-0.0224125
0.11594
-0.018389
0.122598
-0.0146376
0.128682
-0.0112431
0.134236
-0.00824803
0.139314
-0.00562576
0.143915
-0.00343572
0.148092
-0.00153245
0.151855
1.69423e-05
0.155283
0.00134793
0.158383
0.00234508
0.161198
0.00341094
0.163758
0.00404345
0.166106
0.00500004
0.16828
0.00538093
0.170308
0.00639826
0.172196
0.00678609
0.173925
0.00818978
0.175459
0.00884777
0.176756
0.0107912
0.177799
0.0115861
0.178578
0.0139962
0.179121
0.0146758
0.179447
0.01758
0.179599
0.0181452
0.1796
0.0216125
0.179487
0.0221662
0.179274
0.0263158
0.178992
0.0268546
0.17864
0.0319311
0.178243
0.0325398
0.177792
0.038713
0.177311
0.0396333
0.0471671
-0.0061677
0.00967459
-0.00680272
0.00991598
-0.00733325
0.00954385
-0.00764668
0.00884118
-0.00769749
0.00781932
-0.00741353
0.00639526
-0.00674436
0.0044975
-0.00555903
0.00196035
-0.00389325
-0.00118341
-0.00152367
-0.00481958
0.00152127
-0.00897935
0.00530847
-0.013686
0.00994198
-0.0189378
0.0154623
-0.0245786
0.0218707
-0.0304164
0.0291246
-0.0361294
0.0372462
-0.0413133
0.045971
-0.0457263
0.0551388
-0.0489264
0.0644933
-0.0506615
0.0737914
-0.0507768
0.0828166
-0.0493074
0.0914024
-0.0464778
0.0994425
-0.0426309
0.106887
-0.0381552
0.113735
-0.0334182
0.120023
-0.0287002
0.125786
-0.0241524
0.131068
-0.0199191
0.135904
-0.016079
0.140337
-0.0126814
0.144403
-0.0096912
0.148122
-0.00715526
0.151525
-0.00493576
0.154661
-0.00311827
0.157497
-0.0014888
0.160081
-0.000239035
0.162464
0.00102828
0.164647
0.00186092
0.166664
0.00298254
0.168547
0.00349848
0.170321
0.00462374
0.171995
0.00511249
0.173553
0.00663195
0.174959
0.00744085
0.176174
0.00957678
0.177173
0.0105869
0.177942
0.0132272
0.178501
0.0141171
0.178862
0.0172188
0.179063
0.017944
0.179123
0.0215531
0.179076
0.0222128
0.178932
0.0264599
0.178723
0.0270637
0.178444
0.0322099
0.178124
0.0328602
0.177748
0.0390891
0.177345
0.0400362
0.0476248
0.0211871
0.00912329
0.0216493
0.00945376
0.0221058
0.00908733
0.0226537
0.00829333
0.0233321
0.00714094
0.0242021
0.00552526
0.0253204
0.00337915
0.0267809
0.000499917
0.0285406
-0.00294311
0.0307754
-0.00705446
0.0335659
-0.0117698
0.0369901
-0.0171102
0.0410723
-0.0230199
0.045844
-0.0293503
0.0513055
-0.035878
0.057438
-0.0422618
0.0642058
-0.0480811
0.0714277
-0.0529482
0.0789378
-0.0564365
0.0865328
-0.0582565
0.0940214
-0.0582654
0.101241
-0.0565275
0.108076
-0.0533126
0.114456
-0.0490107
0.120349
-0.0440484
0.125756
-0.0388247
0.130705
-0.0336498
0.135233
-0.0286804
0.139369
-0.0240551
0.143146
-0.0198559
0.1466
-0.0161355
0.149764
-0.0128545
0.152664
-0.0100553
0.155324
-0.00759568
0.157769
-0.00556335
0.160005
-0.0037249
0.16208
-0.00231396
0.163965
-0.000857085
0.16571
0.000116378
0.167341
0.00135116
0.168875
0.0019644
0.170336
0.00316325
0.171735
0.00371322
0.173064
0.00530246
0.174295
0.00621032
0.175386
0.00848525
0.176314
0.00965884
0.177057
0.0124847
0.177627
0.0135469
0.178027
0.0168185
0.17829
0.0176811
0.178425
0.0214184
0.178465
0.0221723
0.178414
0.0265113
0.178304
0.0271737
0.178126
0.0323878
0.177911
0.0330753
0.17764
0.0393599
0.177346
0.0403303
0.0479746
0.0483368
0.00806064
0.049442
0.00834852
0.0505826
0.00794669
0.0517816
0.00709435
0.0530432
0.00587934
0.0543964
0.00417205
0.0559073
0.00186828
0.0575177
-0.00111045
0.059351
-0.00477646
0.0614524
-0.00915585
0.0639194
-0.0142368
0.0668092
-0.02
0.0701623
-0.026373
0.0740071
-0.0331951
0.078345
-0.0402159
0.0831557
-0.0470725
0.0883841
-0.0533095
0.0938949
-0.0584591
0.0995471
-0.0620886
0.105201
-0.0639103
0.110739
-0.0638035
0.116075
-0.0618633
0.121156
-0.0583938
0.125956
-0.0538105
0.130458
-0.0485506
0.134654
-0.0430205
0.138547
-0.0375428
0.142153
-0.0322863
0.145469
-0.0273714
0.148506
-0.0228926
0.15128
-0.0189099
0.153812
-0.0153867
0.156123
-0.0123655
0.158231
-0.00970378
0.160161
-0.00749362
0.161925
-0.00548944
0.163545
-0.00393396
0.16504
-0.00235135
0.166433
-0.00127648
0.167699
8.46367e-05
0.16892
0.000743528
0.170086
0.0019971
0.17122
0.00257952
0.172321
0.00420091
0.173372
0.00516021
0.174335
0.00752182
0.175189
0.00880524
0.175905
0.0117681
0.176492
0.01296
0.176942
0.0163686
0.177281
0.0173421
0.177509
0.02119
0.177658
0.0220237
0.177723
0.0264463
0.177737
0.0271594
0.177687
0.0324377
0.177606
0.0331569
0.17747
0.0394955
0.177316
0.0404848
0.0481841
0.0757781
0.0072005
0.0768309
0.00729567
0.0780585
0.0067191
0.0794024
0.00575045
0.0808252
0.00445657
0.0823342
0.00266305
0.0839314
0.00027103
0.0856057
-0.00278476
0.0873745
-0.0065452
0.0892761
-0.0110575
0.0913547
-0.0163154
0.09364
-0.0222853
0.0961544
-0.0288874
0.0989235
-0.0359641
0.101965
-0.0432573
0.105264
-0.0503718
0.108773
-0.0568183
0.112399
-0.0620852
0.116047
-0.0657367
0.119652
-0.0675154
0.123184
-0.0673356
0.12664
-0.0653188
0.130031
-0.0617846
0.133367
-0.0571469
0.136643
-0.051826
0.139831
-0.046209
0.142903
-0.0406144
0.145843
-0.0352268
0.148615
-0.0301434
0.151194
-0.0254715
0.153571
-0.0212869
0.155745
-0.0175607
0.157723
-0.014344
0.159519
-0.0114991
0.161151
-0.00912539
0.162629
-0.00696764
0.163979
-0.00528429
0.165214
-0.00358629
0.166353
-0.00241576
0.167413
-0.000974804
0.168388
-0.000231862
0.169339
0.00104655
0.17027
0.00164835
0.171191
0.00327952
0.172097
0.00425449
0.172959
0.00665975
0.173759
0.00800536
0.174467
0.01106
0.175087
0.0123399
0.175603
0.0158523
0.176037
0.0169088
0.176379
0.020848
0.176657
0.0217453
0.176862
0.0262412
0.177026
0.0269957
0.177131
0.0323328
0.177211
0.0330774
0.177239
0.0394666
0.177254
0.0404697
0.0482218
0.104526
0.00718138
0.104892
0.00692969
0.105557
0.00605413
0.106407
0.00490025
0.107408
0.00345479
0.108555
0.00151664
0.109818
-0.000992145
0.111142
-0.00410894
0.112516
-0.00791915
0.113938
-0.0124789
0.115408
-0.0177858
0.116926
-0.0238035
0.118485
-0.0304462
0.120068
-0.0375475
0.121654
-0.0448426
0.123242
-0.0519605
0.124854
-0.0584301
0.126462
-0.0636925
0.128041
-0.0673162
0.129612
-0.0690859
0.131228
-0.0689516
0.132955
-0.0670464
0.134851
-0.0636805
0.136941
-0.059237
0.139212
-0.054097
0.141613
-0.0486097
0.144078
-0.0430792
0.146554
-0.0377036
0.148983
-0.0325721
0.151303
-0.027791
0.15348
-0.0234641
0.155494
-0.0195748
0.157338
-0.0161877
0.159012
-0.0131736
0.160529
-0.0106426
0.161897
-0.00833539
0.163138
-0.00652516
0.164265
-0.00471323
0.165296
-0.00344733
0.16624
-0.00191835
0.167122
-0.00111422
0.167943
0.000225746
0.168763
0.000828478
0.169579
0.00246344
0.170401
0.00343206
0.171211
0.00585043
0.171995
0.0072207
0.172726
0.0103296
0.173405
0.0116609
0.17401
0.0152468
0.17456
0.0163595
0.175037
0.0203704
0.175468
0.0213145
0.175837
0.0258724
0.176174
0.0266582
0.17646
0.032047
0.176728
0.0328097
0.17695
0.0392448
0.177164
0.0402558
0.0480565
0.133696
0.00826244
0.133071
0.0075546
0.132752
0.00637329
0.132626
0.005026
0.132733
0.00334774
0.133049
0.00120018
0.133509
-0.00145197
0.134037
-0.0046367
0.134603
-0.00848483
0.135169
-0.0130448
0.135698
-0.0183155
0.136158
-0.0242634
0.136515
-0.0308035
0.136734
-0.0377664
0.136779
-0.0448871
0.136627
-0.0518087
0.136292
-0.0580957
0.135879
-0.0632792
0.135477
-0.0669143
0.135195
-0.0688036
0.135153
-0.0689094
0.135455
-0.0673485
0.136169
-0.0643951
0.137311
-0.0603783
0.138841
-0.0556278
0.140682
-0.0504505
0.142733
-0.0451299
0.144905
-0.0398757
0.14713
-0.0347969
0.14932
-0.0299815
0.15142
-0.0255635
0.153392
-0.0215474
0.15522
-0.0180155
0.156894
-0.0148477
0.15842
-0.0121679
0.159799
-0.00971453
0.16105
-0.00777687
0.162186
-0.00584859
0.163223
-0.00448431
0.16417
-0.00286592
0.165041
-0.00198448
0.165854
-0.000587936
0.166642
4.05458e-05
0.167437
0.00166895
0.168247
0.00262171
0.169062
0.00503512
0.16988
0.00640331
0.170671
0.00953816
0.171441
0.0108913
0.172163
0.0145247
0.172852
0.0156699
0.173489
0.0197339
0.174095
0.0207087
0.174651
0.0253162
0.175187
0.0261225
0.175679
0.0315549
0.17616
0.0323279
0.176603
0.0388022
0.177044
0.0398148
0.047658
0.159459
0.0101621
0.158007
0.00900614
0.156701
0.00767887
0.155531
0.00619603
0.154603
0.00427598
0.1539
0.00190348
0.153373
-0.000924659
0.152877
-0.00414126
0.152392
-0.00799967
0.15186
-0.0125129
0.151226
-0.0176815
0.150436
-0.0234735
0.14944
-0.0298072
0.148192
-0.0365189
0.146661
-0.0433561
0.144844
-0.0499916
0.142782
-0.0560336
0.140603
-0.0610996
0.138531
-0.0648427
0.136765
-0.0670372
0.135465
-0.0676101
0.134742
-0.0666251
0.134644
-0.0642967
0.135154
-0.0608885
0.136204
-0.0566777
0.13769
-0.0519364
0.139488
-0.0469279
0.141479
-0.0418675
0.14359
-0.0369077
0.145738
-0.0321292
0.147842
-0.0276674
0.149848
-0.0235533
0.15173
-0.0198974
0.153472
-0.0165904
0.155076
-0.0137719
0.15654
-0.0111779
0.157878
-0.00911509
0.159099
-0.00706981
0.160222
-0.00560683
0.161248
-0.00389262
0.162192
-0.00292801
0.163069
-0.0014652
0.163922
-0.000812103
0.164759
0.000831567
0.165626
0.00175459
0.166506
0.00415529
0.167406
0.00550329
0.1683
0.00864411
0.169195
0.00999646
0.170063
0.0136566
0.170919
0.0148141
0.171739
0.0189142
0.172543
0.0199045
0.17331
0.0245492
0.174067
0.0253653
0.174791
0.0308316
0.175512
0.0316067
0.176202
0.038112
0.176897
0.0391197
0.0469971
0.176781
0.0120997
0.174992
0.0107954
0.17312
0.00955067
0.171397
0.00791862
0.169861
0.00581196
0.168392
0.00337313
0.16698
0.000487241
0.16559
-0.00275169
0.164125
-0.00653467
0.162554
-0.0109413
0.160814
-0.0159418
0.158844
-0.0215036
0.156592
-0.027555
0.154019
-0.0339466
0.151116
-0.0404527
0.147912
-0.0467874
0.144499
-0.0526211
0.141028
-0.0576287
0.137775
-0.0615895
0.135008
-0.0642699
0.132897
-0.0654986
0.131532
-0.0652609
0.13094
-0.0637042
0.131074
-0.0610229
0.131843
-0.0574462
0.133125
-0.0532189
0.134788
-0.0485909
0.136704
-0.0437838
0.138773
-0.0389764
0.140919
-0.0342746
0.143071
-0.0298196
0.145158
-0.02564
0.147141
-0.0218813
0.148999
-0.0184484
0.150729
-0.0155013
0.152323
-0.0127725
0.153797
-0.0105883
0.155154
-0.00842669
0.156413
-0.00686645
0.157574
-0.00505361
0.158652
-0.00400563
0.159655
-0.00246846
0.16063
-0.00178683
0.161569
-0.000107529
0.162551
0.000772375
0.16355
0.00315682
0.164579
0.00447359
0.165616
0.00760711
0.166671
0.00894172
0.167715
0.0126123
0.168764
0.0137654
0.169792
0.0178865
0.170818
0.0188785
0.171819
0.0235479
0.172821
0.0243631
0.1738
0.0298529
0.174785
0.0306217
0.175748
0.0371484
0.176724
0.0381442
0.0460456
0.182794
0.0132456
0.181154
0.0124351
0.179533
0.0111723
0.177922
0.00952908
0.17625
0.00748453
0.174519
0.00510369
0.172729
0.00227798
0.170952
-0.000974982
0.168942
-0.0045252
0.166714
-0.00871339
0.164221
-0.0134484
0.161428
-0.0187111
0.15831
-0.0244368
0.154863
-0.0304996
0.151123
-0.0367124
0.147171
-0.0428354
0.143143
-0.0485932
0.139205
-0.0536912
0.135513
-0.0578967
0.132244
-0.0610011
0.129595
-0.0628494
0.127742
-0.0634086
0.126725
-0.0626865
0.126492
-0.0607899
0.12695
-0.0579048
0.127982
-0.0542506
0.129457
-0.0500657
0.131246
-0.045573
0.133245
-0.0409755
0.135364
-0.0363933
0.137523
-0.031979
0.139662
-0.0277787
0.141735
-0.0239544
0.14371
-0.0204232
0.145577
-0.0173681
0.147322
-0.0145178
0.148955
-0.0122218
0.150477
-0.00994864
0.151907
-0.00829644
0.153241
-0.0063875
0.154492
-0.00525698
0.155668
-0.0036441
0.156799
-0.00291749
0.157921
-0.00123014
0.159049
-0.000355511
0.16021
0.00199579
0.161411
0.0032731
0.162628
0.00639036
0.163875
0.00769421
0.165125
0.0113625
0.166393
0.0124974
0.167653
0.016626
0.168924
0.0176075
0.170183
0.0222892
0.171453
0.0230935
0.17271
0.0285955
0.173982
0.0293495
0.175244
0.0358863
0.176525
0.0368633
0.0447763
0.199705
0.014223
-0.200682
0.199298
0.0128415
0.198891
0.0115797
0.198536
0.00988422
0.198239
0.00778094
0.198006
0.00533687
0.197737
0.00254662
0.197366
-0.000603365
0.197086
-0.00424579
0.196671
-0.00829765
0.196077
-0.012855
0.195236
-0.0178702
0.194064
-0.0232649
0.192489
-0.0289247
0.190465
-0.0346884
0.187979
-0.0403493
0.185061
-0.0456751
0.181789
-0.0504185
0.178261
-0.0543691
0.174606
-0.0573462
0.170967
-0.0592099
0.167472
-0.0599142
0.164252
-0.0594661
0.161404
-0.0579425
0.158993
-0.0554938
0.157047
-0.0523043
0.15556
-0.0485788
0.154498
-0.0445114
0.153812
-0.0402886
0.153445
-0.0360269
0.153344
-0.0318776
0.153451
-0.0278862
0.15371
-0.0242135
0.15407
-0.0207829
0.154488
-0.0177866
0.154931
-0.0149609
0.155375
-0.0126651
0.1558
-0.0103741
0.156197
-0.00869294
0.156552
-0.00674314
0.15686
-0.00556492
0.157115
-0.0038984
0.157321
-0.00312375
0.157494
-0.00140328
0.157655
-0.000516543
0.157804
0.00184689
0.157974
0.00310262
0.158161
0.00620405
0.158371
0.0074843
0.15859
0.0111431
0.158824
0.0122636
0.159053
0.0163965
0.159287
0.0173741
0.159508
0.0220684
0.159728
0.0228729
0.159933
0.0283908
0.160141
0.0291416
0.160334
0.0356931
0.160537
0.0366604
0.0445835
0.212168
0.0143267
-0.212272
0.21214
0.0128691
0.212294
0.011426
0.21242
0.009758
0.212459
0.00774258
0.212409
0.00538633
0.212262
0.00269436
0.212034
-0.000375454
0.211645
-0.0038568
0.211069
-0.00772199
0.210232
-0.0120175
0.209076
-0.0167143
0.207547
-0.0217358
0.2056
-0.0269778
0.203212
-0.0323012