/*--------------------------------*- C++ -*----------------------------------*\
| =========                 |                                                 |
| \\      /  F ield         | OpenFOAM: The Open Source CFD Toolbox           |
|  \\    /   O peration     | Version:  2512                                  |
|   \\  /    A nd           | Website:  www.openfoam.com                      |
|    \\/     M anipulation  |                                                 |
\*---------------------------------------------------------------------------*/
FoamFile
{
    version     2.0;
    format      ascii;
    arch        "LSB;label=32;scalar=64";
    class       volVectorField;
    location    "158.5";
    object      U;
}
// * * * * * * * * * * * * * * * * * * * * * * * * * * * * * * * * * * * * * //

dimensions      [0 1 -1 0 0 0 0];

internalField   nonuniform List<vector> 
13248
(
(-0.0128128 0.0109064 6.57678e-20)
(-0.0247141 0.021749 0)
(-0.0240931 0.0259331 -1.24404e-19)
(-0.0108119 0.0264193 1.17192e-19)
(0.0153496 0.0251463 1.09364e-19)
(0.054553 0.0234152 0)
(0.106838 0.0221272 0)
(0.171956 0.0219044 2.57199e-19)
(0.249193 0.0231481 -2.84911e-21)
(0.337233 0.0260646 -2.21794e-19)
(0.4341 0.0306659 2.02423e-19)
(0.537193 0.0367676 -1.26123e-19)
(0.643419 0.0439996 0)
(0.749401 0.051834 -2.13145e-19)
(0.851738 0.0596343 3.9797e-19)
(0.947255 0.0667171 -9.37265e-20)
(1.03324 0.0724262 -1.7084e-19)
(1.10764 0.076175 1.60377e-19)
(1.16916 0.0775976 0)
(1.21737 0.0761873 0)
(1.25263 0.0726752 0)
(1.27609 0.0644536 0)
(1.28897 0.0588246 5.22419e-20)
(1.29457 0.0369788 1.9572e-19)
(-0.0135397 0.0105891 -1.98799e-19)
(-0.0218788 0.0196733 1.35785e-19)
(-0.0130248 0.0223023 -1.28315e-21)
(0.0123067 0.0215791 -1.79346e-19)
(0.0538 0.0196563 -1.09243e-19)
(0.11112 0.01804 -1.03161e-19)
(0.183613 0.0177526 -1.87324e-19)
(0.270031 0.0194359 1.77654e-19)
(0.36833 0.0234033 0)
(0.475595 0.0296578 1.38074e-21)
(0.588149 0.0379071 3.47947e-21)
(0.701822 0.0475981 1.27578e-19)
(0.812316 0.0579817 0)
(0.915611 0.0682026 0)
(1.00833 0.077403 1.47305e-19)
(1.08799 0.0848222 -2.76638e-19)
(1.15322 0.0898793 1.67311e-19)
(1.20372 0.0922232 -1.57079e-19)
(1.24025 0.0917467 -7.03129e-20)
(1.26438 0.0885624 -1.3012e-19)
(1.27821 0.082996 -5.58838e-20)
(1.28428 0.0752174 -1.05787e-19)
(1.28416 0.067072 1.52165e-19)
(1.28213 0.0546386 4.43923e-20)
(-0.0129356 0.00935769 0)
(-0.0149326 0.0158414 0)
(0.00524424 0.0170131 6.34452e-20)
(0.0459451 0.0158418 5.82431e-20)
(0.106082 0.0145178 -1.75335e-21)
(0.184405 0.0146213 -1.07252e-19)
(0.278978 0.0171447 0)
(0.386867 0.0225594 -8.79961e-20)
(0.504054 0.0308604 8.26578e-20)
(0.625622 0.041608 1.19969e-21)
(0.746197 0.0540047 -1.38703e-19)
(0.860527 0.0670184 -1.26169e-19)
(0.964067 0.0795366 2.67095e-21)
(1.05343 0.0905252 -1.037e-19)
(1.12667 0.0991617 2.48926e-19)
(1.18332 0.104922 0)
(1.22427 0.107613 -1.63079e-19)
(1.25146 0.107334 7.88056e-20)
(1.26747 0.104447 7.02561e-20)
(1.27507 0.0993446 0)
(1.2769 0.0928282 5.87971e-20)
(1.27502 0.0846111 -2.04763e-19)
(1.27076 0.0774718 1.92222e-19)
(1.2665 0.0658217 1.23752e-19)
(-0.0106465 0.00732828 -7.09128e-20)
(-0.00295474 0.0105535 -7.34301e-20)
(0.0319377 0.0105642 6.61177e-20)
(0.0913008 0.00993718 0)
(0.172893 0.0107008 0)
(0.273941 0.0143061 -2.66842e-21)
(0.390493 0.0214578 0)
(0.517258 0.0321514 -2.70894e-19)
(0.64789 0.0457603 2.50776e-19)
(0.775645 0.0611764 -3.07868e-19)
(0.894233 0.0770195 6.97257e-20)
(0.998602 0.0918824 0)
(1.08549 0.104558 1.15503e-19)
(1.15361 0.114204 -2.13731e-19)
(1.20354 0.120415 5.06135e-20)
(1.23733 0.123202 1.30502e-19)
(1.25791 0.122908 -5.29377e-21)
(1.26857 0.120074 -1.46193e-19)
(1.27236 0.115301 0)
(1.2718 0.109166 0)
(1.26868 0.102163 -5.31411e-20)
(1.26413 0.0944495 4.79768e-20)
(1.2587 0.0873791 1.74578e-19)
(1.25348 0.077267 -1.63885e-19)
(-0.00634112 0.00473566 -7.52548e-20)
(0.0148872 0.00446317 -7.47634e-20)
(0.0680793 0.00399947 2.10112e-19)
(0.149135 0.00526666 -1.27011e-19)
(0.25408 0.00986938 1.1955e-19)
(0.377851 0.0188147 2.16032e-19)
(0.513754 0.0321418 -1.52731e-19)
(0.653801 0.0489978 -1.84824e-19)
(0.789632 0.0678797 4.4374e-21)
(0.913706 0.0869684 2.34276e-19)
(1.02036 0.104498 0)
(1.10642 0.119067 6.41868e-20)
(1.1713 0.12983 0)
(1.21658 0.136535 -1.03774e-19)
(1.24535 0.139428 1.45679e-19)
(1.26137 0.13909 1.09858e-21)
(1.26837 0.136246 -3.84196e-20)
(1.26951 0.1316 7.17944e-20)
(1.26719 0.125747 6.23593e-20)
(1.26296 0.11912 -5.61492e-20)
(1.25777 0.11206 5.31301e-20)
(1.25207 0.104618 -4.79664e-20)
(1.24608 0.0976565 0)
(1.24042 0.0885203 -3.66674e-20)
(0.000303939 0.00189251 7.5244e-20)
(0.0392936 -0.00151518 7.9226e-20)
(0.114322 -0.00123448 -7.04643e-20)
(0.219443 0.00367225 1.31197e-19)
(0.34819 0.0140069 -1.23484e-19)
(0.492426 0.0298855 1.11169e-19)
(0.642341 0.0502347 -5.35733e-20)
(0.787633 0.0730582 1.38897e-19)
(0.919154 0.0959626 -8.75452e-20)
(1.03033 0.116706 1.53912e-19)
(1.1179 0.133625 -3.54769e-19)
(1.18184 0.14585 1.3047e-19)
(1.22465 0.153285 -1.1319e-19)
(1.25036 0.156426 1.06319e-19)
(1.26342 0.156097 9.15871e-20)
(1.26794 0.153203 8.03449e-20)
(1.26721 0.148552 -2.24006e-19)
(1.26355 0.14277 1.38967e-19)
(1.25841 0.136291 -6.23632e-20)
(1.25262 0.129402 1.63504e-19)
(1.2466 0.122279 -5.28122e-20)
(1.24052 0.115013 -1.29465e-19)
(1.23441 0.108028 1.19672e-19)
(1.22853 0.0995958 3.66569e-20)
(0.00959117 -0.000831161 0)
(0.0707278 -0.00630015 7.91454e-22)
(0.170711 -0.00349811 1.48308e-19)
(0.301112 0.00707462 -1.38978e-19)
(0.452163 0.0248917 -1.24881e-19)
(0.612178 0.0486496 2.31843e-19)
(0.768588 0.0758059 -1.07546e-19)
(0.910112 0.103213 1.42477e-19)
(1.02874 0.127955 -3.37543e-21)
(1.12072 0.147957 -8.05168e-20)
(1.18635 0.16224 1.7425e-19)
(1.2289 0.17084 -2.573e-19)
(1.25327 0.174501 0)
(1.26461 0.174307 -5.03067e-20)
(1.26747 0.171364 -1.33885e-19)
(1.26531 0.166608 4.21903e-20)
(1.26051 0.16073 1.63113e-21)
(1.2545 0.15419 -9.24452e-20)
(1.24806 0.147273 5.63046e-21)
(1.24158 0.140151 1.07045e-19)
(1.23518 0.132932 -4.79839e-20)
(1.2289 0.125692 -1.83335e-20)
(1.22269 0.118584 5.61766e-20)
(1.21664 0.110672 0)
(0.021751 -0.00300957 0)
(0.109274 -0.00871684 4.03099e-20)
(0.236477 -0.00115599 -1.94443e-19)
(0.391755 0.0171386 7.05339e-20)
(0.561464 0.0436813 -6.63827e-20)
(0.730574 0.0752907 -6.06433e-20)
(0.885074 0.107905 -1.06538e-19)
(1.01475 0.13764 5.34978e-20)
(1.11467 0.161736 4.60869e-20)
(1.18504 0.178935 0)
(1.22973 0.189322 1.0404e-19)
(1.25446 0.193885 -1.54739e-19)
(1.26519 0.193998 1.14911e-19)
(1.26702 0.191018 5.03337e-20)
(1.26377 0.18606 -4.12297e-20)
(1.25797 0.179923 -3.42972e-20)
(1.25111 0.173122 -3.20109e-20)
(1.24399 0.165966 9.59936e-20)
(1.23697 0.158633 0)
(1.23019 0.151226 4.82694e-20)
(1.22364 0.143813 4.07135e-20)
(1.2173 0.136452 -1.01033e-19)
(1.2111 0.129153 -6.94858e-20)
(1.205 0.121577 6.40715e-20)
(0.0368728 -0.00416608 -4.40392e-20)
(0.154502 -0.00757261 -1.88499e-21)
(0.309927 0.00724576 3.96785e-20)
(0.487828 0.0350214 1.11024e-19)
(0.670677 0.0707079 3.21833e-20)
(0.84124 0.109074 -6.22951e-20)
(0.986132 0.144941 5.66886e-20)
(1.09829 0.174448 -4.93883e-20)
(1.17711 0.195734 8.84281e-20)
(1.22675 0.208781 3.73393e-20)
(1.25377 0.214787 -1.06338e-19)
(1.26506 0.215464 3.1112e-20)
(1.26651 0.2125 5.2933e-20)
(1.26246 0.20726 -2.60748e-20)
(1.25576 0.20071 0)
(1.24804 0.193458 3.85585e-20)
(1.24018 0.185859 6.5073e-20)
(1.23253 0.178109 1.10096e-20)
(1.22525 0.170317 -5.41776e-20)
(1.21833 0.162546 2.25806e-20)
(1.21174 0.154845 0)
(1.2054 0.14724 -1.77197e-20)
(1.19923 0.139699 -1.69249e-20)
(1.19314 0.132283 0)
(0.0548381 -0.00379483 0)
(0.205382 -0.0017519 2.31311e-20)
(0.388492 0.0228215 4.27834e-20)
(0.585009 0.0612295 -1.1361e-19)
(0.774355 0.105501 3.68446e-20)
(0.939058 0.148648 0)
(1.06861 0.185185 5.47956e-20)
(1.16054 0.21214 -7.65012e-20)
(1.21874 0.229082 -4.42544e-20)
(1.25051 0.237329 1.98708e-20)
(1.26384 0.238979 -3.17052e-20)
(1.26568 0.236151 7.70212e-20)
(1.26118 0.23057 3.82321e-20)
(1.25368 0.223447 -2.67269e-20)
(1.24511 0.215539 -2.6468e-21)
(1.23644 0.207276 -7.21701e-20)
(1.22809 0.19889 3.28082e-20)
(1.22023 0.190499 -8.77489e-22)
(1.21286 0.182171 0)
(1.20594 0.173949 -2.26044e-20)
(1.1994 0.165863 0)
(1.19314 0.157911 5.09114e-20)
(1.18707 0.150092 -6.04687e-20)
(1.18107 0.142659 2.75428e-20)
(0.0752749 -0.00139813 -1.21884e-20)
(0.260271 0.00967955 -5.84809e-20)
(0.468919 0.0462247 6.66537e-20)
(0.678736 0.0955901 3.90081e-20)
(0.867795 0.14697 -1.86079e-20)
(1.02073 0.192406 3.11469e-20)
(1.13167 0.227119 -1.51264e-20)
(1.20323 0.249732 2.49994e-20)
(1.24312 0.261449 0)
(1.26058 0.264757 5.6137e-20)
(1.26394 0.262333 -2.47324e-21)
(1.25951 0.256406 -4.50194e-20)
(1.25139 0.248559 1.91496e-20)
(1.24197 0.239775 -2.14641e-20)
(1.23244 0.230607 -8.04291e-21)
(1.22333 0.221343 9.43181e-21)
(1.21481 0.212125 -7.18755e-21)
(1.20691 0.203025 -3.89485e-20)
(1.19959 0.194087 2.38336e-20)
(1.19277 0.185337 4.83313e-21)
(1.18636 0.176787 4.24075e-21)
(1.18025 0.168419 3.72323e-21)
(1.17434 0.160299 0)
(1.16846 0.152671 0)
(0.0976173 0.00347851 1.21968e-20)
(0.317138 0.0273901 -1.21741e-20)
(0.547738 0.0775768 -2.22331e-20)
(0.76489 0.137316 0)
(0.947595 0.193646 -9.25556e-21)
(1.08473 0.238782 -8.34719e-21)
(1.17602 0.26959 -1.41891e-20)
(1.22878 0.28668 0)
(1.25344 0.292814 0)
(1.26008 0.29134 0)
(1.25656 0.285192 0)
(1.24816 0.276501 0)
(1.23798 0.266606 -1.20094e-20)
(1.22758 0.256259 5.46023e-21)
(1.21766 0.24584 9.42442e-21)
(1.20844 0.23553 4.40169e-21)
(1.19996 0.225412 1.07962e-20)
(1.19219 0.215527 0)
(1.18505 0.205901 -2.54971e-21)
(1.17845 0.196551 -2.44703e-21)
(1.17228 0.187466 -4.24752e-21)
(1.16643 0.178637 -3.72919e-21)
(1.16078 0.170196 0)
(1.15517 0.162215 2.63082e-21)
(-0.0013998 -0.0128108 8.68532e-21)
(-0.00799081 -0.0193226 -9.0186e-21)
(-0.0201704 -0.0136242 -1.70701e-20)
(-0.0350628 -0.000581393 0)
(-0.0511647 0.0162749 -2.29033e-20)
(-0.0677652 0.0347293 7.25985e-21)
(-0.084371 0.0536837 -1.34671e-20)
(-0.100603 0.0728471 0)
(-0.116161 0.0923992 0)
(-0.130793 0.1127 0)
(-0.144272 0.134084 0)
(-0.156386 0.156753 0)
(-0.166924 0.180729 2.1107e-22)
(-0.175668 0.205862 -8.88914e-21)
(-0.182387 0.231835 1.62705e-20)
(-0.186835 0.258176 2.30649e-20)
(-0.188752 0.284262 6.9882e-21)
(-0.187875 0.309322 0)
(-0.183954 0.332461 6.4495e-21)
(-0.176779 0.352691 -1.79884e-20)
(-0.16618 0.368993 -1.12868e-20)
(-0.151989 0.38037 -1.07099e-20)
(-0.134126 0.385927 0)
(-0.113105 0.385151 0)
(-0.0008377 -0.00771661 -2.58794e-20)
(-0.00673035 -0.00783972 4.47808e-20)
(-0.0179629 0.00179325 -1.65371e-20)
(-0.0317285 0.0172336 -3.17514e-20)
(-0.0465121 0.0354882 4.50755e-20)
(-0.0615671 0.0546432 -2.81311e-20)
(-0.076389 0.0737547 3.9922e-20)
(-0.0905964 0.0925991 2.44687e-20)
(-0.10388 0.111384 0)
(-0.115962 0.130485 -2.22488e-20)
(-0.126575 0.150249 9.22641e-23)
(-0.135456 0.170884 1.96872e-20)
(-0.14234 0.192413 2.69122e-20)
(-0.146955 0.214673 3.3792e-20)
(-0.149018 0.237332 -1.62955e-20)
(-0.148245 0.259907 -4.49936e-20)
(-0.144348 0.281769 1.3668e-20)
(-0.137046 0.302165 -5.20405e-20)
(-0.126084 0.32024 0)
(-0.111256 0.335082 1.19143e-20)
(-0.0924262 0.345773 1.12676e-20)
(-0.0694809 0.351486 1.06912e-20)
(-0.042241 0.351629 0)
(-0.0110193 0.346302 0)
(-0.000714916 -0.0034914 0)
(-0.00626787 0.00160365 8.68e-20)
(-0.0164443 0.0143761 -3.28008e-20)
(-0.0286759 0.0316477 3.12446e-20)
(-0.0415133 0.050901 -8.70254e-20)
(-0.0542028 0.070478 0)
(-0.0662463 0.0895427 -5.12354e-20)
(-0.0772775 0.107892 2.37462e-20)
(-0.0869969 0.125719 -4.43844e-20)
(-0.0951243 0.143384 2.0019e-20)
(-0.101377 0.161232 1.17592e-19)
(-0.105464 0.179481 -5.51843e-20)
(-0.10709 0.198173 -8.66481e-20)
(-0.105957 0.217161 -3.15303e-20)
(-0.101751 0.236112 8.94948e-23)
(-0.0941909 0.254602 1.1384e-19)
(-0.0830042 0.272012 -5.34619e-20)
(-0.0679418 0.287643 9.52728e-22)
(-0.0487885 0.300717 0)
(-0.0254043 0.310408 -4.48552e-20)
(0.00224641 0.3159 0)
(0.0341439 0.316474 -4.34158e-20)
(0.0705802 0.311691 1.61611e-19)
(0.112001 0.30191 2.90461e-21)
(-0.000904812 -0.000312345 0)
(-0.00645742 0.00861373 -6.1191e-22)
(-0.0156796 0.0235621 3.18732e-20)
(-0.0262821 0.0419441 -2.98594e-20)
(-0.0369008 0.0616457 2.89285e-20)
(-0.0467854 0.0812296 1.59367e-19)
(-0.055453 0.0999382 -5.00546e-20)
(-0.0625664 0.117558 -4.61259e-20)
(-0.067858 0.134234 8.74149e-20)
(-0.0710747 0.150279 -1.22788e-19)
(-0.071953 0.166019 3.76559e-20)
(-0.0702121 0.181673 3.49621e-20)
(-0.0655612 0.197309 0)
(-0.0577384 0.212812 3.16885e-20)
(-0.0463969 0.227931 0)
(-0.0312753 0.242258 5.35809e-20)
(-0.0122038 0.255254 -1.03212e-19)
(0.0110381 0.266314 2.38262e-20)
(0.0385779 0.274764 9.1837e-20)
(0.0704655 0.279893 4.47994e-20)
(0.106656 0.281007 0)
(0.146985 0.277467 -1.24464e-19)
(0.191252 0.268907 3.88548e-20)
(0.242876 0.255236 0)
(-0.00129509 0.00187861 0)
(-0.00716713 0.0132532 -1.00789e-19)
(-0.0157289 0.0293197 -3.1396e-20)
(-0.0248956 0.0479413 -5.92676e-20)
(-0.033367 0.0673592 5.58061e-20)
(-0.0403952 0.0863447 -5.27224e-20)
(-0.0455143 0.104214 9.71453e-20)
(-0.0484237 0.120738 4.53916e-20)
(-0.0489059 0.135997 -1.28281e-19)
(-0.0467618 0.150239 7.87773e-20)
(-0.0417831 0.163742 -1.11128e-19)
(-0.0337449 0.176714 2.3851e-19)
(-0.0224037 0.189242 -1.28573e-19)
(-0.00751749 0.201265 5.87741e-20)
(0.0111516 0.212604 1.66869e-19)
(0.0338183 0.222891 -5.33669e-20)
(0.0606304 0.231716 -4.80124e-20)
(0.0917024 0.238572 -4.72821e-20)
(0.127083 0.242903 0)
(0.166745 0.244131 -8.64044e-20)
(0.210556 0.241695 -8.56512e-20)
(0.258645 0.235007 1.17405e-19)
(0.308969 0.223879 1.58386e-19)
(0.371087 0.206923 -1.475e-19)
(-0.0018441 0.00332308 0)
(-0.00835666 0.0159611 -1.31731e-19)
(-0.016673 0.032095 6.84854e-22)
(-0.024787 0.0499892 1.17039e-19)
(-0.0314255 0.068235 0)
(-0.0358421 0.0858269 0)
(-0.0375879 0.102178 0)
(-0.0364017 0.117058 -4.44572e-20)
(-0.0321236 0.130493 8.80693e-22)
(-0.0246272 0.142662 7.7362e-20)
(-0.0137831 0.153783 -1.08052e-19)
(0.000553769 0.16404 5.88793e-22)
(0.0185459 0.173525 0)
(0.0403614 0.18222 -5.87444e-20)
(0.0661612 0.189988 5.29212e-20)
(0.0960846 0.196583 -1.51043e-19)
(0.130232 0.201676 1.91257e-19)
(0.168663 0.204873 4.60247e-20)
(0.211399 0.205721 2.99432e-21)
(0.258451 0.203772 -1.63099e-19)
(0.309431 0.198567 -7.81032e-20)
(0.365754 0.189563 2.71075e-19)
(0.421367 0.176971 -1.82389e-19)
(0.496348 0.157328 0)
(-0.00259104 0.00436172 6.30836e-20)
(-0.0100816 0.0174117 6.56932e-20)
(-0.0185794 0.0326838 -6.11937e-20)
(-0.0260475 0.0488965 -1.1497e-19)
(-0.0312157 0.0650296 1.08252e-19)
(-0.0333483 0.0803368 -1.00182e-19)
(-0.0320213 0.0943646 1.40782e-19)
(-0.0270108 0.106918 -4.42047e-20)
(-0.0182085 0.117999 8.14211e-20)
(-0.00555408 0.127731 0)
(0.0110074 0.136282 6.77887e-20)
(0.0315462 0.143802 -1.28201e-19)
(0.0561538 0.150383 1.19479e-19)
(0.0849381 0.156033 -1.1221e-19)
(0.118015 0.160668 0)
(0.155501 0.164122 9.79712e-20)
(0.197497 0.166153 1.83661e-19)
(0.24407 0.166455 -1.73765e-19)
(0.295269 0.164685 -8.20184e-20)
(0.351341 0.16051 -8.28689e-20)
(0.411241 0.153446 2.29611e-19)
(0.478962 0.143177 7.57319e-20)
(0.54121 0.130068 -6.84254e-20)
(0.63429 0.109245 6.85667e-20)
(-0.00363631 0.00533475 -6.30923e-20)
(-0.0124373 0.0183194 1.94062e-19)
(-0.021401 0.0320228 -6.07917e-20)
(-0.0284263 0.0457529 1.13782e-19)
(-0.032256 0.0589461 -1.07133e-19)
(-0.0321862 0.0711585 1.46595e-22)
(-0.0278227 0.0821144 4.64341e-20)
(-0.0189662 0.0917011 1.68894e-19)
(-0.00553269 0.0999348 -2.41166e-21)
(0.0125124 0.106917 -7.52101e-20)
(0.0352 0.112785 0)
(0.0625817 0.117669 -6.14012e-20)
(0.0947398 0.121657 1.17575e-19)
(0.131785 0.124779 1.08327e-19)
(0.173849 0.126989 -5.15211e-20)
(0.221068 0.128174 -1.15595e-21)
(0.273568 0.128154 -4.54245e-20)
(0.331449 0.126705 8.40495e-20)
(0.394641 0.123519 8.2011e-20)
(0.463512 0.118411 -7.85861e-20)
(0.535725 0.110663 7.38464e-20)
(0.618208 0.100724 -7.11417e-20)
(0.688519 0.0878639 0)
(0.801032 0.0690442 -6.85419e-20)
(-0.00508057 0.00647507 6.2538e-20)
(-0.0154353 0.0192301 -6.46531e-20)
(-0.0248211 0.0309448 6.06051e-20)
(-0.0311459 0.0416797 0)
(-0.0332124 0.0513979 0)
(-0.0303691 0.0600009 9.72624e-20)
(-0.0222408 0.0674337 -9.21076e-20)
(-0.00861742 0.0737079 8.27721e-20)
(0.0106173 0.0788974 -3.91177e-19)
(0.035543 0.0831213 1.00995e-21)
(0.0662407 0.0865162 6.65253e-20)
(0.102809 0.0892083 0)
(0.145364 0.0912886 -1.14033e-19)
(0.194018 0.0927943 2.13301e-19)
(0.248859 0.0936989 -1.49939e-19)
(0.309901 0.0939077 -2.3385e-19)
(0.377049 0.0932622 -1.18665e-21)
(0.450074 0.091564 1.64438e-19)
(0.528377 0.0884798 0)
(0.611902 0.0840136 0)
(0.696983 0.0770887 -7.38469e-20)
(0.791027 0.0692782 7.11415e-20)
(0.867313 0.0574266 -2.74133e-19)
(0.986541 0.0438968 2.56785e-19)
(-0.00694011 0.00782838 0)
(-0.0188551 0.0203563 0)
(-0.0281107 0.0299555 -1.81454e-19)
(-0.0327944 0.0375528 5.77578e-20)
(-0.0318341 0.0436835 1.20416e-21)
(-0.0246396 0.048625 9.87497e-20)
(-0.010828 0.052572 0)
(0.00986836 0.0556951 -8.41804e-20)
(0.0376484 0.0581621 7.8029e-20)
(0.0726712 0.0601412 -1.41956e-19)
(0.115062 0.0617914 8.99497e-22)
(0.164898 0.0632442 1.21707e-19)
(0.222171 0.0645833 -1.34161e-21)
(0.286741 0.0658292 1.04381e-19)
(0.358286 0.0669278 -1.48378e-19)
(0.436254 0.0677481 0)
(0.519828 0.0680877 1.74751e-19)
(0.607919 0.067691 -2.46843e-19)
(0.69903 0.0662048 7.78044e-20)
(0.79193 0.0635386 0)
(0.882908 0.058661 7.04805e-20)
(0.975763 0.0533092 2.76409e-19)
(1.05023 0.0429668 -2.59398e-19)
(1.15178 0.0347033 -3.11855e-19)
(-0.00907591 0.00923187 1.88437e-19)
(-0.0221492 0.0215116 -2.59249e-19)
(-0.0301019 0.0290981 7.17492e-22)
(-0.0314188 0.0337827 5.74899e-20)
(-0.0252267 0.0366678 -1.06466e-19)
(-0.0110008 0.0384079 -9.83739e-20)
(0.0116575 0.0394604 1.80784e-19)
(0.0430657 0.040171 -3.30427e-21)
(0.0834505 0.040817 -1.57006e-19)
(0.132921 0.0416272 2.86105e-19)
(0.19142 0.0427805 -2.43792e-21)
(0.258661 0.0443909 -1.23531e-19)
(0.334073 0.0464923 0)
(0.416753 0.0490243 0)
(0.505444 0.0518264 -4.92581e-20)
(0.598544 0.0546394 -9.22769e-20)
(0.694153 0.0571275 -1.73803e-19)
(0.790127 0.0588694 1.63136e-19)
(0.884177 0.0594959 -7.78375e-20)
(0.974051 0.0584779 1.47338e-19)
(1.05712 0.0555793 -6.902e-20)
(1.13311 0.0508204 1.34233e-19)
(1.19354 0.0420779 -3.09797e-19)
(1.25862 0.0351345 6.07589e-20)
(-0.0111744 0.01037 6.33578e-20)
(-0.0244524 0.0221843 0)
(-0.0293051 0.0279743 1.226e-19)
(-0.0248236 0.0302563 -1.15496e-19)
(-0.0104051 0.0306159 1.06563e-19)
(0.0143597 0.0300568 0)
(0.0498112 0.0292834 0)
(0.0961626 0.0288026 -8.36854e-20)
(0.153413 0.0289848 2.85324e-21)
(0.221247 0.0300884 7.39331e-20)
(0.298942 0.0322604 -6.60039e-20)
(0.385303 0.0355259 1.24511e-19)
(0.478652 0.039777 0)
(0.576861 0.0447703 2.11682e-19)
(0.677448 0.050137 -3.9612e-19)
(0.777707 0.0554056 2.7763e-19)
(0.87487 0.060051 1.72761e-19)
(0.966262 0.0634852 -1.62168e-19)
(1.0495 0.0653146 0)
(1.12257 0.0647149 0)
(1.18413 0.0623375 0)
(1.23352 0.0558726 0)
(1.27004 0.0488817 6.07617e-20)
(1.2993 0.0376927 -2.21398e-19)
(-0.0863244 0.37725 -7.0817e-21)
(-0.0502459 0.354093 7.12259e-21)
(-0.00835767 0.314154 -2.33141e-22)
(0.0387417 0.257295 0)
(0.0900701 0.183757 -7.3431e-21)
(0.143881 0.0943247 1.43448e-20)
(0.198556 -0.00784875 -6.19264e-23)
(0.25345 -0.120425 -6.7497e-21)
(0.307715 -0.237958 0)
(0.36033 -0.353121 0)
(0.409785 -0.45598 -3.11218e-22)
(0.453357 -0.536361 -2.59022e-22)
(0.487928 -0.587573 -3.20312e-21)
(0.511426 -0.609028 2.9096e-21)
(0.522678 -0.606975 0)
(0.519019 -0.59441 0)
(0.49734 -0.585145 1.63653e-21)
(0.461625 -0.579813 4.99803e-23)
(0.4279 -0.557163 -1.49796e-21)
(0.417388 -0.48532 -1.04715e-22)
(0.441232 -0.347478 0)
(0.493684 -0.156702 0)
(0.560755 0.0525393 0)
(0.629288 0.240155 0)
(0.689546 0.377211 0)
(0.734682 0.457376 0)
(0.762865 0.491337 3.21396e-22)
(0.777942 0.494384 -5.1693e-22)
(0.781874 0.487112 0)
(0.768476 0.492681 0)
(0.734712 0.511642 -3.80765e-22)
(0.693705 0.506118 3.70076e-22)
(0.670612 0.422338 2.50171e-22)
(0.677583 0.250149 0)
(0.711688 0.0291532 0)
(0.754714 -0.170716 4.56151e-22)
(0.795783 -0.311506 -4.43388e-22)
(0.826383 -0.381475 0)
(0.84559 -0.40817 2.28424e-22)
(0.84131 -0.424438 -3.23923e-22)
(0.808143 -0.437848 9.08845e-23)
(0.757372 -0.429422 0)
(0.721134 -0.33907 -2.32355e-22)
(0.713534 -0.19005 2.25943e-22)
(0.742299 0.00952847 0)
(0.782103 0.159155 0)
(0.82276 0.272119 -7.5003e-23)
(0.828861 0.342559 2.04775e-22)
(0.803848 0.377108 0)
(0.764313 0.38931 0)
(0.75451 0.260534 -6.01624e-23)
(0.766588 0.145905 -8.39495e-24)
(0.810836 -0.0558394 -4.71194e-24)
(0.819446 -0.17685 4.69197e-23)
(0.816212 -0.27979 0)
(0.796948 -0.385763 0)
(0.798615 -0.25328 0)
(0.792232 -0.240892 0)
(0.804157 0.0314501 0)
(0.785657 0.200066 0)
(0.0258557 0.335106 -6.95278e-22)
(0.0693912 0.308087 -3.09092e-20)
(0.117227 0.264952 -1.0498e-21)
(0.168916 0.205843 2.99858e-20)
(0.223021 0.131297 4.96993e-22)
(0.277919 0.0422573 0)
(0.332349 -0.0591862 -2.94784e-20)
(0.385736 -0.170209 5.73067e-20)
(0.437325 -0.28619 -2.78205e-20)
(0.485803 -0.399094 2.26004e-20)
(0.528666 -0.49782 -2.1655e-20)
(0.562454 -0.571238 1.5374e-20)
(0.584222 -0.612949 -1.50082e-20)
(0.592998 -0.623742 -3.42834e-22)
(0.589959 -0.61029 -8.0174e-21)
(0.575586 -0.584483 7.79206e-21)
(0.546858 -0.561741 -6.03599e-21)
(0.502526 -0.549637 5.69734e-21)
(0.452419 -0.533943 -6.15131e-21)
(0.417308 -0.482018 1.25732e-20)
(0.415581 -0.367445 -6.39835e-21)
(0.449492 -0.193835 -4.11477e-22)
(0.507721 0.00706923 -6.89272e-21)
(0.575526 0.19524 1.27213e-20)
(0.640629 0.340083 -5.85314e-21)
(0.694085 0.4315 2.55094e-22)
(0.732566 0.475947 3.38927e-21)
(0.758135 0.487407 -1.99069e-22)
(0.770183 0.488709 -5.58133e-21)
(0.762143 0.503635 5.58662e-21)
(0.734008 0.528607 -2.80996e-21)
(0.701616 0.521073 4.47202e-22)
(0.689099 0.427969 -2.5069e-22)
(0.704578 0.244304 6.1644e-22)
(0.743733 0.0153732 0)
(0.787034 -0.187343 0)
(0.823844 -0.325669 -1.53892e-21)
(0.846635 -0.390783 1.16217e-21)
(0.858461 -0.410432 6.67616e-22)
(0.849645 -0.4175 -2.31127e-23)
(0.813656 -0.423116 -8.39492e-22)
(0.759341 -0.414062 1.67482e-22)
(0.716754 -0.3313 0)
(0.705496 -0.193702 0)
(0.732396 -0.00229744 0)
(0.774782 0.145655 0)
(0.81639 0.264584 2.85211e-22)
(0.823878 0.344513 -1.31959e-22)
(0.800392 0.385223 0)
(0.762233 0.396141 0)
(0.756123 0.26061 0)
(0.7684 0.139373 -1.31227e-22)
(0.817025 -0.0618047 -4.52299e-24)
(0.826199 -0.177826 -9.70905e-23)
(0.823206 -0.277031 0)
(0.802756 -0.383716 0)
(0.801105 -0.253156 3.93564e-23)
(0.794028 -0.241104 9.36873e-23)
(0.801147 0.0324723 0)
(0.783292 0.201453 0)
(0.154335 0.288408 3.72142e-21)
(0.202103 0.259574 -6.05775e-20)
(0.252599 0.21579 6.59973e-20)
(0.305984 0.157152 -6.16985e-20)
(0.360646 0.0841856 -5.00305e-22)
(0.41517 -0.00240847 0)
(0.468602 -0.10091 -6.32224e-20)
(0.52027 -0.209037 6.19343e-20)
(0.569232 -0.32202 4.28945e-22)
(0.61337 -0.431283 7.86739e-22)
(0.649019 -0.52485 6.75984e-22)
(0.672166 -0.591091 5.46869e-22)
(0.680562 -0.624093 -2.56744e-20)
(0.674633 -0.626207 2.52975e-20)
(0.657161 -0.605181 0)
(0.631428 -0.57103 4.24758e-22)
(0.596523 -0.537271 -1.10334e-20)
(0.548004 -0.515914 1.08923e-20)
(0.488376 -0.502044 0)
(0.434099 -0.467418 0)
(0.40762 -0.378805 -1.20044e-20)
(0.420123 -0.227924 2.42661e-20)
(0.465597 -0.0397186 -2.3501e-20)
(0.529363 0.145837 1.31621e-21)
(0.596768 0.296957 1.84549e-20)
(0.656846 0.399219 -1.57826e-20)
(0.704762 0.454641 1.25659e-20)
(0.740237 0.475803 -6.71059e-22)
(0.76015 0.486912 -5.36119e-21)
(0.75803 0.511513 0)
(0.73668 0.542253 0)
(0.713567 0.533294 3.23335e-21)
(0.711423 0.43281 -4.03422e-21)
(0.7352 0.240046 3.6377e-23)
(0.778688 0.00480396 4.96729e-21)
(0.821547 -0.199712 -4.82689e-21)
(0.853936 -0.335544 0)
(0.868843 -0.396617 3.35019e-22)
(0.873049 -0.410573 2.10003e-21)
(0.859798 -0.409617 -3.67293e-21)
(0.821694 -0.407832 1.44375e-21)
(0.764805 -0.398259 1.3279e-22)
(0.716399 -0.323508 -1.75828e-21)
(0.701412 -0.19818 1.39871e-21)
(0.725833 -0.0155627 3.27463e-22)
(0.770024 0.130849 2.91626e-22)
(0.81202 0.256057 -2.85944e-22)
(0.820829 0.345797 0)
(0.799157 0.392768 0)
(0.762645 0.402869 -1.09551e-21)
(0.760243 0.260998 5.41743e-22)
(0.7724 0.133043 -6.02888e-22)
(0.824924 -0.0676564 8.05041e-22)
(0.834539 -0.178645 8.35506e-22)
(0.831514 -0.273728 -1.79686e-22)
(0.809365 -0.381305 2.47794e-22)
(0.804416 -0.252757 -1.69079e-22)
(0.79684 -0.240952 4.77197e-23)
(0.799301 0.0336417 0)
(0.78197 0.202812 0)
(0.286407 0.240562 -1.24706e-19)
(0.335546 0.211137 -5.97404e-21)
(0.386608 0.16828 1.24427e-19)
(0.440027 0.111949 -1.02366e-21)
(0.494268 0.0419255 0)
(0.54818 -0.04046 0)
(0.60094 -0.134954 -1.29106e-19)
(0.651638 -0.239295 2.98138e-21)
(0.698761 -0.348334 1.73016e-19)
(0.738904 -0.452835 -5.97818e-21)
(0.767115 -0.540135 -4.75346e-20)
(0.779068 -0.598699 -3.1856e-20)
(0.773664 -0.623534 3.20517e-20)
(0.753317 -0.618343 0)
(0.722252 -0.592173 -1.55928e-20)
(0.685328 -0.55395 1.43105e-20)
(0.644504 -0.513239 0)
(0.595095 -0.482089 0)
(0.532873 -0.464246 8.36045e-21)
(0.466556 -0.441145 4.7457e-22)
(0.418272 -0.378514 -8.0426e-21)
(0.407599 -0.255423 -9.98503e-21)
(0.436394 -0.0855582 9.90121e-21)
(0.492202 0.0937122 -8.87073e-21)
(0.558898 0.248937 1.27001e-21)
(0.623581 0.361051 7.10529e-21)
(0.679658 0.427595 6.91453e-22)
(0.724096 0.459396 3.70867e-23)
(0.751498 0.481028 0)
(0.755764 0.515203 5.95496e-21)
(0.741987 0.551567 -6.1745e-21)
(0.728479 0.542369 4.7252e-22)
(0.736449 0.437045 0)
(0.76808 0.238122 -6.60495e-22)
(0.81553 -0.00235151 1.04753e-20)
(0.857823 -0.208018 -1.77377e-20)
(0.885658 -0.341603 8.25915e-22)
(0.892842 -0.399323 1.58695e-21)
(0.889253 -0.408888 4.30845e-21)
(0.871495 -0.401239 3.95674e-22)
(0.831821 -0.392392 -2.43054e-21)
(0.77347 -0.381943 2.05964e-21)
(0.719999 -0.315283 4.48637e-23)
(0.701219 -0.203031 1.25429e-21)
(0.722495 -0.0298557 -1.54811e-21)
(0.767678 0.114926 -1.85332e-21)
(0.809574 0.246513 5.59039e-22)
(0.81969 0.346262 9.63318e-22)
(0.800186 0.399596 -1.98381e-21)
(0.765644 0.409476 1.55831e-21)
(0.766995 0.261862 -6.24572e-22)
(0.778677 0.127167 6.18731e-22)
(0.834451 -0.0733137 6.33839e-22)
(0.844362 -0.179322 -1.32073e-21)
(0.84109 -0.269881 4.76835e-23)
(0.816725 -0.378466 -2.42882e-22)
(0.808475 -0.252083 0)
(0.800588 -0.240467 -6.96191e-23)
(0.798556 0.034945 6.42243e-23)
(0.78166 0.204155 0)
(0.413925 0.192585 1.23772e-19)
(0.462821 0.164165 -2.4969e-19)
(0.513663 0.123453 1.23868e-19)
(0.566533 0.0704133 1.33666e-19)
(0.621055 0.00474541 -2.65218e-19)
(0.675345 -0.0729637 -1.02906e-21)
(0.727945 -0.162961 1.29851e-19)
(0.778325 -0.262305 1.20605e-19)
(0.823681 -0.36554 -1.18108e-19)
(0.859118 -0.46299 0)
(0.878812 -0.542038 -8.1405e-20)
(0.878801 -0.59221 1.45214e-19)
(0.859576 -0.61003 -6.42623e-20)
(0.82577 -0.599979 0)
(0.783125 -0.571355 0)
(0.736708 -0.532671 4.18974e-22)
(0.690031 -0.49004 -1.87207e-20)
(0.640753 -0.451978 1.81887e-20)
(0.581309 -0.426717 0)
(0.51128 -0.407354 1.36208e-20)
(0.447077 -0.365853 -2.67076e-20)
(0.413247 -0.272873 2.79576e-20)
(0.421675 -0.12728 -2.91464e-20)
(0.465388 0.0409209 6.37124e-22)
(0.527994 0.197105 2.51797e-20)
(0.594842 0.317416 -1.17329e-20)
(0.657294 0.394776 -3.22029e-22)
(0.709382 0.437755 -4.34376e-21)
(0.743749 0.470257 -5.30632e-22)
(0.754698 0.513777 4.89629e-21)
(0.748999 0.555927 3.93094e-22)
(0.745148 0.548182 -8.84625e-21)
(0.762865 0.440969 1.91669e-20)
(0.801946 0.238765 -1.16687e-20)
(0.853136 -0.00520449 0)
(0.894967 -0.212023 -1.03673e-20)
(0.918378 -0.343696 9.84261e-21)
(0.918196 -0.398753 -4.33105e-21)
(0.906837 -0.405257 5.43577e-21)
(0.884548 -0.392448 -3.76068e-22)
(0.843722 -0.377172 0)
(0.78496 -0.365474 -2.39697e-22)
(0.727319 -0.306593 7.5241e-22)
(0.704744 -0.207905 0)
(0.72216 -0.0449199 2.46437e-21)
(0.767476 0.0980166 -9.95991e-22)
(0.808906 0.235855 4.67634e-22)
(0.820365 0.345692 4.26774e-22)
(0.80344 0.405531 0)
(0.771243 0.415924 0)
(0.776411 0.2633 -2.01664e-21)
(0.787275 0.121778 3.34683e-21)
(0.845513 -0.0787306 -1.90898e-21)
(0.855546 -0.179842 5.78184e-22)
(0.851875 -0.265423 8.36493e-22)
(0.824786 -0.375113 2.43109e-22)
(0.813202 -0.251153 -2.48843e-22)
(0.805187 -0.239685 0)
(0.798833 0.0363713 -1.11872e-22)
(0.782322 0.205487 -1.4832e-23)
(0.538006 0.144624 1.21865e-19)
(0.585871 0.118525 -1.21412e-19)
(0.636272 0.0807705 1.00438e-21)
(0.689379 0.0311833 -9.84902e-22)
(0.744197 -0.028947 1.03726e-21)
(0.798571 -0.102003 -1.03385e-21)
(0.851321 -0.186513 1.93334e-21)
(0.900767 -0.279165 0)
(0.942669 -0.37433 -1.71056e-21)
(0.971152 -0.462324 1.53265e-21)
(0.980396 -0.531495 1.32302e-21)
(0.967724 -0.573151 -1.13848e-21)
(0.935521 -0.585438 0)
(0.890123 -0.573167 0)
(0.838428 -0.544732 5.32429e-22)
(0.785267 -0.507929 0)
(0.733805 -0.46703 -3.03345e-22)
(0.684104 -0.426219 0)
(0.629586 -0.393406 -1.08894e-20)
(0.563196 -0.371004 2.05642e-20)
(0.491536 -0.342315 -1.93226e-20)
(0.437737 -0.277457 9.56767e-21)
(0.423111 -0.1608 1.03766e-20)
(0.450272 -0.00930607 -1.00778e-20)
(0.505026 0.143013 -9.20152e-21)
(0.571118 0.268971 8.89953e-21)
(0.63763 0.35631 0)
(0.695725 0.410637 2.07611e-22)
(0.736382 0.454087 0)
(0.754083 0.506663 0)
(0.756646 0.554968 1.3158e-20)
(0.762221 0.550609 -1.34753e-20)
(0.789117 0.444817 1.1921e-21)
(0.835199 0.241857 1.41647e-21)
(0.890357 -0.0038989 -1.44462e-21)
(0.932146 -0.211764 -9.37566e-21)
(0.95148 -0.341992 9.10248e-21)
(0.944481 -0.395047 -5.85862e-21)
(0.925527 -0.399725 4.97455e-21)
(0.898688 -0.383362 7.47312e-22)
(0.856987 -0.362429 -2.04792e-21)
(0.798738 -0.349055 -9.1312e-24)
(0.737927 -0.297344 1.28193e-21)
(0.711602 -0.212422 0)
(0.724515 -0.0605725 -8.58396e-22)
(0.769143 0.0802024 1.15857e-21)
(0.809817 0.223947 -1.54951e-21)
(0.822688 0.343844 -4.29504e-22)
(0.808787 0.410376 0)
(0.779345 0.422151 7.26642e-22)
(0.788372 0.265357 -1.2971e-21)
(0.798175 0.117059 4.32777e-23)
(0.858008 -0.0837805 -7.0403e-22)
(0.867953 -0.180185 9.24335e-22)
(0.863781 -0.260316 -8.6463e-22)
(0.833491 -0.371154 0)
(0.818521 -0.249977 2.48956e-22)
(0.810544 -0.238645 0)
(0.800046 0.0379047 0)
(0.78391 0.206813 2.16639e-23)
(0.67274 0.0983736 -1.19656e-19)
(0.717089 0.0745602 1.18359e-19)
(0.764677 0.0394115 -9.38449e-22)