/*--------------------------------*- C++ -*----------------------------------*\
| =========                 |                                                 |
| \\      /  F ield         | OpenFOAM: The Open Source CFD Toolbox           |
|  \\    /   O peration     | Version:  2512                                  |
|   \\  /    A nd           | Website:  www.openfoam.com                      |
|    \\/     M anipulation  |                                                 |
\*---------------------------------------------------------------------------*/
FoamFile
{
    version     2.0;
    format      ascii;
    arch        "LSB;label=32;scalar=64";
    class       volVectorField;
    location    "77.5";
    object      U;
}
// * * * * * * * * * * * * * * * * * * * * * * * * * * * * * * * * * * * * * //

dimensions      [0 1 -1 0 0 0 0];

internalField   nonuniform List<vector> 
13248
(
(-0.0114384 0.0107785 7.10226e-20)
(-0.0189514 0.0204846 0)
(-0.0127749 0.023044 -1.3478e-19)
(0.00587045 0.0210124 1.26965e-19)
(0.0363448 0.0163671 1.19278e-19)
(0.0782683 0.0106125 0)
(0.131281 0.00485238 0)
(0.194846 -0.00011154 2.87588e-19)
(0.268067 -0.0037057 -2.38678e-21)
(0.349563 -0.00554533 -2.49375e-19)
(0.437427 -0.00541799 2.2722e-19)
(0.529281 -0.00327714 -1.41779e-19)
(0.62242 0.000765835 0)
(0.714018 0.00645849 -2.29697e-19)
(0.801355 0.0134361 4.23477e-19)
(0.882035 0.0212601 -1.00116e-19)
(0.954155 0.0294644 -1.67973e-19)
(1.01642 0.0375865 1.57688e-19)
(1.06818 0.0452579 0)
(1.10939 0.0520223 0)
(1.14076 0.0580481 0)
(1.16265 0.0619843 0)
(1.17818 0.0666598 4.25328e-20)
(1.18473 0.0651892 1.48381e-19)
(-0.0107694 0.00921349 -2.14603e-19)
(-0.0138313 0.016345 1.46524e-19)
(0.000290552 0.0175412 -1.05316e-21)
(0.0299903 0.0151114 -1.93972e-19)
(0.0742976 0.0109511 -1.19147e-19)
(0.132428 0.00656909 -1.12617e-19)
(0.203414 0.00306906 -2.0701e-19)
(0.285853 0.00121312 1.95431e-19)
(0.377719 0.00146863 0)
(0.476313 0.00402825 1.64595e-21)
(0.578359 0.00882601 3.43396e-21)
(0.680245 0.0155662 1.4142e-19)
(0.778347 0.0237721 0)
(0.869365 0.0328527 0)
(0.950623 0.0421785 1.53151e-19)
(1.02026 0.0511556 -2.8742e-19)
(1.07734 0.0592868 1.65251e-19)
(1.12182 0.06621 -1.55143e-19)
(1.15443 0.0717235 -6.68293e-20)
(1.17656 0.0757403 -1.17182e-19)
(1.18988 0.0784369 -4.71007e-20)
(1.19659 0.0795297 -8.72269e-20)
(1.19806 0.080711 1.31195e-19)
(1.19624 0.0776763 3.71897e-20)
(-0.00902654 0.00715184 0)
(-0.00515496 0.0109823 0)
(0.019619 0.0105921 6.86448e-20)
(0.0632115 0.00802859 6.34167e-20)
(0.124144 0.0050701 -1.39597e-21)
(0.200907 0.00316839 -1.15614e-19)
(0.291463 0.00331151 0)
(0.392989 0.00604909 -9.70257e-20)
(0.501809 0.0115228 9.03132e-20)
(0.61356 0.0194971 2.0437e-22)
(0.723569 0.0294202 -1.52027e-19)
(0.827335 0.0405232 -1.36715e-19)
(0.921015 0.051943 4.35463e-21)
(1.00179 0.0628493 -1.07673e-19)
(1.06808 0.0725509 2.62396e-19)
(1.11954 0.080567 0)
(1.15696 0.0866562 -1.61947e-19)
(1.18198 0.0907999 7.8848e-20)
(1.19679 0.0931745 6.6769e-20)
(1.20378 0.0940301 0)
(1.20532 0.0938227 5.28884e-20)
(1.20334 0.0925171 -1.81172e-19)
(1.19934 0.0915115 1.70071e-19)
(1.19519 0.0876076 1.05566e-19)
(-0.00594144 0.00474359 -7.57648e-20)
(0.00786521 0.00494334 -7.8235e-20)
(0.0464404 0.00321589 7.09587e-20)
(0.107004 0.00126761 0)
(0.187215 0.000670872 0)
(0.284319 0.00268113 -1.9526e-21)
(0.394583 0.00795798 0)
(0.513192 0.0165661 -2.93491e-19)
(0.634505 0.0280396 2.71616e-19)
(0.75261 0.0414936 -3.34088e-19)
(0.862029 0.0557948 7.58888e-20)
(0.958375 0.0697637 0)
(1.0388 0.0823649 1.22391e-19)
(1.10214 0.0928449 -2.25132e-19)
(1.14884 0.100799 5.34424e-20)
(1.18059 0.106166 1.32215e-19)
(1.19991 0.109162 -8.13063e-21)
(1.20967 0.11019 -1.46497e-19)
(1.21266 0.109726 0)
(1.21132 0.108229 0)
(1.20751 0.106146 -5.01841e-20)
(1.20255 0.103527 4.46007e-20)
(1.19729 0.101447 1.56761e-19)
(1.19214 0.0969855 -1.47165e-19)
(-0.00117329 0.00213644 -7.95381e-20)
(0.0260587 -0.00117193 -7.92906e-20)
(0.0818428 -0.00345359 2.23144e-19)
(0.162341 -0.00352437 -1.35549e-19)
(0.263796 -0.000209508 1.2759e-19)
(0.381517 0.00729849 2.31882e-19)
(0.50944 0.0190077 -1.63449e-19)
(0.640449 0.0341687 -1.97328e-19)
(0.767165 0.0514734 4.93367e-21)
(0.882947 0.0693316 2.51673e-19)
(0.982774 0.0861816 0)
(1.06377 0.100758 6.78778e-20)
(1.12526 0.112259 0)
(1.16852 0.120393 -1.07989e-19)
(1.19614 0.125312 1.51433e-19)
(1.21143 0.127479 1.1568e-21)
(1.21776 0.127515 -3.88355e-20)
(1.21814 0.126051 7.12397e-20)
(1.21498 0.123637 6.14661e-20)
(1.20998 0.120688 -5.46265e-20)
(1.20422 0.117499 5.01717e-20)
(1.19833 0.114122 -4.45895e-20)
(1.19258 0.111167 0)
(1.18736 0.106423 -3.39623e-20)
(0.00565242 -0.000482675 7.95268e-20)
(0.0501775 -0.00665894 8.32369e-20)
(0.126542 -0.00816677 -7.47027e-20)
(0.229347 -0.00465553 1.38964e-19)
(0.352703 0.00432207 -1.30797e-19)
(0.489278 0.0187423 1.1804e-19)
(0.630326 0.0375741 -5.66062e-20)
(0.766721 0.0589917 1.48291e-19)
(0.890351 0.0808213 -9.29766e-20)
(0.995321 0.101009 1.62906e-19)
(1.07859 0.117993 -3.74562e-19)
(1.13995 0.130906 1.37054e-19)
(1.18143 0.139573 -1.18115e-19)
(1.20652 0.144374 1.10945e-19)
(1.2192 0.146022 9.40718e-20)
(1.22328 0.145343 8.13184e-20)
(1.22195 0.143108 -2.26438e-19)
(1.21756 0.139935 1.39922e-19)
(1.21169 0.136262 -6.14678e-20)
(1.20531 0.132368 1.59127e-19)
(1.19894 0.128413 -5.14206e-20)
(1.19282 0.124433 -1.23743e-19)
(1.18706 0.120753 1.14007e-19)
(1.18174 0.115818 3.39512e-20)
(0.0148844 -0.0028535 0)
(0.0807455 -0.0106757 5.92089e-22)
(0.180652 -0.00958686 1.55372e-19)
(0.307039 -0.000519688 -1.45837e-19)
(0.451143 0.0157677 -1.31325e-19)
(0.602549 0.0379542 2.43867e-19)
(0.7501 0.0636531 -1.13152e-19)
(0.883766 0.0899462 1.50105e-19)
(0.99634 0.114108 -3.63972e-21)
(1.0843 0.134147 -8.4598e-20)
(1.1477 0.149051 1.82819e-19)
(1.18928 0.15874 -2.6904e-19)
(1.21333 0.163817 0)
(1.22454 0.165251 -5.19856e-20)
(1.22718 0.164082 -1.37423e-19)
(1.22461 0.161225 4.34184e-20)
(1.21925 0.15738 1.92829e-21)
(1.21264 0.153024 -9.22007e-20)
(1.20567 0.148451 6.64907e-21)
(1.19882 0.143826 1.06255e-19)
(1.1923 0.139231 -4.6695e-20)
(1.18617 0.134704 -1.76492e-20)
(1.18043 0.130355 5.47729e-20)
(1.17508 0.125249 0)
(0.0267786 -0.00462854 0)
(0.117905 -0.0122479 4.2115e-20)
(0.243509 -0.0063559 -2.02346e-19)
(0.393235 0.0102545 7.3486e-20)
(0.554923 0.0350422 -6.91628e-20)
(0.715223 0.0649738 -6.29556e-20)
(0.861667 0.0962492 -1.11092e-19)
(0.985071 0.125212 5.55971e-20)
(1.08087 0.149196 4.8229e-20)
(1.14903 0.166889 0)
(1.19284 0.178228 1.08286e-19)
(1.21741 0.18403 -1.60246e-19)
(1.22819 0.185538 1.19129e-19)
(1.22999 0.18404 5.2012e-20)
(1.22652 0.180632 -4.20765e-20)
(1.22034 0.176128 -3.45926e-20)
(1.21304 0.171068 -3.20508e-20)
(1.20549 0.165779 9.7039e-20)
(1.19815 0.160442 0)
(1.19121 0.15515 4.78771e-20)
(1.18472 0.149949 3.97661e-20)
(1.17867 0.144862 -9.92977e-20)
(1.17298 0.139877 -6.72622e-20)
(1.16763 0.134594 6.21939e-20)
(0.0414376 -0.00538332 -4.52857e-20)
(0.161295 -0.0103269 -1.58171e-21)
(0.313578 0.00278284 4.11061e-20)
(0.484675 0.0286357 1.14519e-19)
(0.659007 0.0623542 3.31388e-20)
(0.821248 0.0990222 -6.41268e-20)
(0.959409 0.133765 5.86099e-20)
(1.06703 0.162872 -5.12892e-20)
(1.14338 0.184435 9.14999e-20)
(1.19205 0.198266 3.87226e-20)
(1.21893 0.205359 -1.09858e-19)
(1.23038 0.207267 3.22124e-20)
(1.23195 0.205586 5.45001e-20)
(1.22786 0.201658 -2.69103e-20)
(1.22094 0.196462 0)
(1.21293 0.190635 3.93851e-20)
(1.20475 0.184554 6.60196e-20)
(1.19686 0.178427 1.0855e-20)
(1.18944 0.172359 -5.46904e-20)
(1.18255 0.166402 2.26566e-20)
(1.17616 0.160584 0)
(1.1702 0.154906 -1.75943e-20)
(1.1646 0.149316 -1.65644e-20)
(1.15926 0.143799 0)
(0.0587565 -0.00464971 0)
(0.209977 -0.00389445 2.37031e-20)
(0.388499 0.018828 4.37613e-20)
(0.577352 0.0550495 -1.16547e-19)
(0.75826 0.0972131 3.7596e-20)
(0.915631 0.13876 0)
(1.03997 0.174464 5.62475e-20)
(1.12891 0.201367 -7.84567e-20)
(1.18586 0.218865 -4.56287e-20)
(1.21739 0.228038 2.06042e-20)
(1.23093 0.230784 -3.24929e-20)
(1.23302 0.229099 7.9149e-20)
(1.22862 0.224667 3.9248e-20)
(1.22107 0.218703 -2.75226e-20)
(1.21233 0.211993 -2.80369e-21)
(1.20346 0.204993 -7.36678e-20)
(1.19496 0.19795 3.34405e-20)
(1.18701 0.190987 -8.64298e-22)
(1.17967 0.184165 0)
(1.17291 0.177516 -2.26802e-20)
(1.16666 0.171049 0)
(1.16084 0.164745 5.05961e-20)
(1.15535 0.158581 -5.99851e-20)
(1.15007 0.152748 2.72539e-20)
(0.0783874 -0.00196056 -1.23005e-20)
(0.262428 0.0079201 -5.94853e-20)
(0.465244 0.0423814 6.75809e-20)
(0.666981 0.0893178 3.96549e-20)
(0.848153 0.138557 -1.89757e-20)
(0.994998 0.182597 3.17209e-20)
(1.10217 0.216795 -1.54411e-20)
(1.17197 0.239643 2.55896e-20)
(1.2114 0.252085 0)
(1.22904 0.256358 5.74731e-20)
(1.23273 0.25497 -2.51262e-21)
(1.22854 0.250079 -4.61111e-20)
(1.22051 0.243256 1.96133e-20)
(1.21106 0.235508 -2.19441e-20)
(1.20144 0.227416 -8.18503e-21)
(1.19225 0.219286 9.63944e-21)
(1.1837 0.21127 -7.31838e-21)
(1.17586 0.203439 -3.95093e-20)
(1.16868 0.195828 2.41719e-20)
(1.16212 0.188452 4.88549e-21)
(1.15607 0.181307 4.27345e-21)
(1.15044 0.174361 3.73942e-21)
(1.14511 0.167655 0)
(1.13993 0.161399 0)
(0.0997987 0.00311343 1.2309e-20)
(0.316746 0.0257482 -1.23049e-20)
(0.540554 0.0735582 -2.24944e-20)
(0.749625 0.130689 0)
(0.925308 0.184959 -9.405e-21)
(1.05765 0.228967 -8.43409e-21)
(1.1464 0.259561 -1.44145e-20)
(1.19829 0.2771 0)
(1.22299 0.284045 0)
(1.22998 0.283515 0)
(1.22682 0.278324 0)
(1.21865 0.270566 0)
(1.20856 0.261595 -1.22651e-20)
(1.19818 0.252188 5.57217e-21)
(1.18825 0.242749 9.62258e-21)
(1.17906 0.23347 4.49239e-21)
(1.17067 0.224438 1.09953e-20)
(1.16305 0.21569 0)
(1.15615 0.207245 -2.58444e-21)
(1.14987 0.199105 -2.46684e-21)
(1.14412 0.191251 -4.28025e-21)
(1.13876 0.183657 -3.74539e-21)
(1.13367 0.176437 0)
(1.12871 0.169646 2.6275e-21)
(-0.000302077 -0.0283112 8.12519e-21)
(-0.00395148 -0.0693848 -8.43585e-21)
(-0.0123578 -0.0988541 -1.59723e-20)
(-0.0234816 -0.119006 0)
(-0.0360754 -0.13201 -2.14177e-20)
(-0.0494138 -0.13988 6.75594e-21)
(-0.0629611 -0.144318 -1.26702e-20)
(-0.076336 -0.146618 0)
(-0.0892962 -0.147649 0)
(-0.1017 -0.147891 0)
(-0.113468 -0.147509 0)
(-0.12456 -0.146442 0)
(-0.134947 -0.144486 1.53116e-22)
(-0.144599 -0.141356 -8.47475e-21)
(-0.153474 -0.13673 1.569e-20)
(-0.161519 -0.130275 2.22967e-20)
(-0.168658 -0.12167 6.73513e-21)
(-0.174808 -0.110614 0)
(-0.179878 -0.0968408 6.29144e-21)
(-0.183792 -0.0801369 -1.72477e-20)
(-0.186475 -0.0603607 -1.05802e-20)
(-0.18782 -0.03742 -9.84859e-21)
(-0.187792 -0.0111928 0)
(-0.187442 0.0184146 0)
(0.000805597 -0.0239748 -2.42917e-20)
(-0.00185037 -0.0590646 4.20009e-20)
(-0.0104832 -0.0845638 -1.56622e-20)
(-0.0224252 -0.102193 -2.99768e-20)
(-0.0360787 -0.113745 4.24567e-20)
(-0.0505364 -0.120948 -2.66799e-20)
(-0.0651545 -0.125272 3.77628e-20)
(-0.0794956 -0.12783 2.35185e-20)
(-0.0932967 -0.129359 0)
(-0.106416 -0.130248 -2.1202e-20)
(-0.118787 -0.130612 -3.05569e-23)
(-0.130379 -0.130372 1.87841e-20)
(-0.141176 -0.129323 2.60638e-20)
(-0.151155 -0.127198 3.2717e-20)
(-0.160284 -0.123698 -1.57503e-20)
(-0.168511 -0.11852 -4.35079e-20)
(-0.175768 -0.111367 1.29691e-20)
(-0.181972 -0.101954 -4.94556e-20)
(-0.187042 -0.0900131 0)
(-0.190921 -0.0752996 1.13281e-20)
(-0.193533 -0.0576033 1.05675e-20)
(-0.194671 -0.0367268 9.83655e-21)
(-0.19424 -0.0124109 0)
(-0.194165 0.0153953 0)
(0.00131704 -0.0188494 0)
(-0.00091464 -0.0471574 8.26929e-20)
(-0.00975515 -0.0684147 -3.12392e-20)
(-0.0221408 -0.0835621 2.97675e-20)
(-0.036251 -0.0938642 -8.36149e-20)
(-0.0510612 -0.100667 0)
(-0.0658571 -0.10515 -4.96112e-20)
(-0.0801621 -0.108217 2.31656e-20)
(-0.0936967 -0.110461 -4.36293e-20)
(-0.106315 -0.112189 2.01409e-20)
(-0.117949 -0.113476 1.15591e-19)
(-0.128571 -0.114232 -5.42407e-20)
(-0.138163 -0.114265 -8.47758e-20)
(-0.146706 -0.11333 -3.07594e-20)
(-0.154163 -0.111155 5.2483e-22)
(-0.160481 -0.107467 1.09622e-19)
(-0.16559 -0.101994 -5.11793e-20)
(-0.1694 -0.0944706 1.41961e-21)
(-0.171817 -0.0846302 0)
(-0.172774 -0.0722026 -3.83705e-20)
(-0.172186 -0.0569055 0)
(-0.169716 -0.0384251 -3.39768e-20)
(-0.165019 -0.0164067 1.21414e-19)
(-0.160654 0.00920226 -1.41728e-21)
(0.00116679 -0.013307 0)
(-0.00125496 -0.0344481 -1.8773e-22)
(-0.0102776 -0.051381 3.10102e-20)
(-0.022708 -0.0641489 -2.92958e-20)
(-0.0366492 -0.0733995 2.77217e-20)
(-0.0510346 -0.0800362 1.56434e-19)
(-0.0651217 -0.0849128 -4.91132e-20)
(-0.0784161 -0.0887046 -4.60258e-20)
(-0.0906269 -0.0918613 8.67751e-20)
(-0.1016 -0.0946096 -1.21976e-19)
(-0.111262 -0.0969905 3.78623e-20)
(-0.119578 -0.0989114 3.52263e-20)
(-0.126526 -0.100195 0)
(-0.132079 -0.10062 3.11732e-20)
(-0.136198 -0.0999452 0)
(-0.138828 -0.097926 5.17173e-20)
(-0.139897 -0.0943218 -9.56901e-20)
(-0.139314 -0.0888944 2.51212e-20)
(-0.13697 -0.0814003 8.22001e-20)
(-0.132769 -0.0715728 3.83352e-20)
(-0.126626 -0.0590803 0)
(-0.118182 -0.0434773 -9.03375e-20)
(-0.106609 -0.0242814 2.95496e-20)
(-0.0937062 -0.00116731 0)
(0.000363837 -0.00772028 0)
(-0.00284083 -0.0217101 -9.81843e-20)
(-0.0120005 -0.0344016 -3.11844e-20)
(-0.0240597 -0.0449286 -5.85133e-20)
(-0.0371922 -0.0532974 5.51002e-20)
(-0.0503658 -0.0599462 -5.20527e-20)
(-0.062854 -0.0653896 9.76002e-20)
(-0.0741667 -0.0700698 4.57815e-20)
(-0.0840089 -0.0742917 -1.29265e-19)
(-0.0922182 -0.0782035 8.01562e-20)
(-0.0987103 -0.0818147 -1.1266e-19)
(-0.10344 -0.0850306 2.43541e-19)
(-0.106377 -0.087689 -1.30553e-19)
(-0.107489 -0.0895898 5.95578e-20)
(-0.106736 -0.0905177 1.64277e-19)
(-0.104069 -0.0902555 -5.41768e-20)
(-0.0994256 -0.0885926 -4.8454e-20)
(-0.0927291 -0.0853276 -4.43998e-20)
(-0.0838837 -0.0802633 0)
(-0.0727811 -0.0731884 -6.72404e-20)
(-0.0593543 -0.0638324 -5.68528e-20)
(-0.0435512 -0.0517751 8.61419e-20)
(-0.0245095 -0.0361155 9.56956e-20)
(-5.15591e-05 -0.014657 -8.80913e-20)
(-0.00101133 -0.00242994 0)
(-0.00549931 -0.00965174 -1.31031e-19)
(-0.0147053 -0.0183343 -3.29119e-22)
(-0.0259452 -0.0267852 1.16794e-19)
(-0.0375946 -0.0344026 0)
(-0.048724 -0.0411721 0)
(-0.0586621 -0.0472745 0)
(-0.0669428 -0.0529227 -4.55124e-20)
(-0.0732733 -0.0582776 4.62876e-22)
(-0.0774809 -0.0634082 8.02675e-20)
(-0.0794658 -0.0682896 -1.11147e-19)
(-0.079168 -0.0728206 6.41389e-22)
(-0.0765454 -0.0768473 0)
(-0.0715621 -0.0801847 -5.95332e-20)
(-0.0641832 -0.0826336 5.22474e-20)
(-0.0543732 -0.0839938 -1.49648e-19)
(-0.0420971 -0.0840744 1.78767e-19)
(-0.0273174 -0.0827005 3.49324e-20)
(-0.00998873 -0.0797181 -6.84318e-21)
(0.00994451 -0.074994 -1.34054e-19)
(0.0325069 -0.0684058 -5.68014e-20)
(0.0577572 -0.0597032 1.74983e-19)
(0.0865999 -0.0477755 -1.12883e-19)
(0.122486 -0.0295832 0)
(-0.00281637 0.00227051 6.35951e-20)
(-0.00892649 0.00110873 6.552e-20)
(-0.0180024 -0.00393531 -6.24437e-20)
(-0.0279085 -0.0105014 -1.17474e-19)
(-0.0373217 -0.01746 1.10618e-19)
(-0.0454669 -0.0243839 -1.04025e-19)
(-0.0517559 -0.0311433 1.46908e-19)
(-0.0557585 -0.0377334 -4.5313e-20)
(-0.0571858 -0.0441718 8.59506e-20)
(-0.0558483 -0.0504441 0)
(-0.0516226 -0.056483 7.33007e-20)
(-0.0444268 -0.0621702 -1.38691e-19)
(-0.0342057 -0.0673483 1.25979e-19)
(-0.0209231 -0.0718343 -1.18325e-19)
(-0.00456102 -0.0754324 0)
(0.0148796 -0.0779456 9.77132e-20)
(0.0373772 -0.0791871 1.72315e-19)
(0.0628893 -0.0789904 -1.62389e-19)
(0.0913575 -0.0772201 -7.04769e-20)
(0.122714 -0.0737836 -5.99342e-20)
(0.156842 -0.0686544 1.71703e-19)
(0.193809 -0.0618111 4.41457e-20)
(0.232496 -0.0529764 -4.47383e-20)
(0.28567 -0.038581 3.60775e-20)
(-0.00486113 0.00615368 -6.36037e-20)
(-0.0127066 0.0100707 1.99512e-19)
(-0.0213459 0.00816031 -6.27357e-20)
(-0.0292926 0.00324715 1.18339e-19)
(-0.0355838 -0.00312405 -1.11432e-19)
(-0.0396283 -0.0101747 5.80983e-22)
(-0.0409383 -0.0174998 4.94414e-20)
(-0.03912 -0.0248919 1.84251e-19)
(-0.0338819 -0.0322302 -1.2823e-21)
(-0.0250152 -0.0394114 -8.07e-20)
(-0.0123707 -0.0463136 0)
(0.00414968 -0.0527871 -6.77202e-20)
(0.0245972 -0.0586559 1.28374e-19)
(0.0489749 -0.0637248 1.15093e-19)
(0.0772344 -0.0677899 -5.48315e-20)
(0.109271 -0.0706496 -2.40337e-22)
(0.144925 -0.0721166 -4.3904e-20)
(0.183979 -0.0720304 7.82025e-20)
(0.226168 -0.0702697 7.04552e-20)
(0.271216 -0.0667558 -6.24982e-20)
(0.318547 -0.0615526 5.44111e-20)
(0.369279 -0.054387 -4.76098e-20)
(0.415988 -0.0466615 0)
(0.4893 -0.0329697 -3.60182e-20)
(-0.00693284 0.00906732 6.48413e-20)
(-0.0163536 0.0168659 -6.67217e-20)
(-0.0240717 0.0174537 6.38404e-20)
(-0.0292754 0.0139016 0)
(-0.031378 0.00804254 0)
(-0.0299782 0.000933266 1.06571e-19)
(-0.0246898 -0.00678923 -9.93313e-20)
(-0.015162 -0.0147377 9.25233e-20)
(-0.00110578 -0.0226598 -4.3345e-19)
(0.0176977 -0.0303563 7.52599e-22)
(0.0413918 -0.0376412 7.50806e-20)
(0.0700384 -0.0443206 0)
(0.103606 -0.0501884 -1.2592e-19)
(0.141961 -0.0550315 2.3337e-19)
(0.184856 -0.0586391 -1.61338e-19)
(0.231934 -0.0608152 -2.37634e-19)
(0.282733 -0.061392 7.51795e-21)
(0.336699 -0.0602435 1.59548e-19)
(0.393199 -0.0573043 0)
(0.451717 -0.0524974 0)
(0.510686 -0.0462149 -5.43992e-20)
(0.573553 -0.0373058 4.75987e-20)
(0.624489 -0.029483 -1.6006e-19)
(0.712546 -0.0139155 1.50209e-19)
(-0.00881466 0.01094 0)
(-0.0193419 0.021276 0)
(-0.0254306 0.0236075 -1.9243e-19)
(-0.026902 0.0210522 6.10645e-20)
(-0.0235264 0.0156076 2.31144e-22)
(-0.0150842 0.00853226 1.0812e-19)
(-0.00129234 0.000646651 0)
(0.018143 -0.00750811 -9.40433e-20)
(0.0434703 -0.0155545 8.70241e-20)
(0.0748514 -0.0232001 -1.61952e-19)
(0.112326 -0.0301898 1.07515e-21)
(0.155783 -0.036283 1.37673e-19)
(0.204933 -0.041249 -3.00008e-21)
(0.2593 -0.0448726 1.12033e-19)
(0.318221 -0.0469651 -1.63279e-19)
(0.380863 -0.0473785 0)
(0.446262 -0.0460186 1.70089e-19)
(0.513374 -0.0428541 -2.37627e-19)
(0.581076 -0.0379503 6.94853e-20)
(0.64857 -0.0312725 0)
(0.713541 -0.0236017 5.46538e-20)
(0.780395 -0.0132184 1.86337e-19)
(0.830693 -0.00527628 -1.74872e-19)
(0.916369 0.0110535 -1.8383e-19)
(-0.0103076 0.0117845 2.01043e-19)
(-0.0211382 0.0232483 -2.77215e-19)
(-0.0246159 0.0264853 1.7997e-22)
(-0.0211099 0.0245058 6.19223e-20)
(-0.0107067 0.0193661 -1.16015e-19)
(0.00664192 0.0124575 -1.07511e-19)
(0.0310969 0.00473751 2.01665e-19)
(0.0628415 -0.00312666 -2.26326e-21)
(0.101985 -0.0106509 -1.7691e-19)
(0.148484 -0.0174598 3.25991e-19)
(0.202072 -0.0232433 -2.834e-21)
(0.262218 -0.0277383 -1.41033e-19)
(0.328103 -0.0307275 0)
(0.398631 -0.0320474 0)
(0.472472 -0.0315997 -5.33203e-20)
(0.548131 -0.0293617 -9.63612e-20)
(0.624033 -0.0253915 -1.69986e-19)
(0.69862 -0.0198296 1.59562e-19)
(0.770425 -0.0128977 -6.9507e-20)
(0.8383 -0.00479177 1.20293e-19)
(0.900546 0.00381318 -6.10202e-20)
(0.959403 0.013912 8.88821e-20)
(1.00346 0.0214761 -2.20456e-19)
(1.06803 0.0356133 3.74743e-20)
(-0.0112348 0.0116847 6.79657e-20)
(-0.0212007 0.0228981 0)
(-0.020745 0.0261917 1.32584e-19)
(-0.0106916 0.0243712 -1.249e-19)
(0.00859732 0.0194739 1.16116e-19)
(0.0369912 0.012967 0)
(0.0744673 0.00590036 0)
(0.120972 -0.000968673 -9.4749e-20)
(0.176281 -0.00708143 2.06988e-21)
(0.239877 -0.0120169 8.35966e-20)
(0.310872 -0.0154606 -7.47362e-20)
(0.387976 -0.0171952 1.41533e-19)
(0.469525 -0.0171017 0)
(0.553561 -0.0151653 2.30708e-19)
(0.637958 -0.0114757 -4.25715e-19)
(0.720567 -0.00622235 2.92725e-19)
(0.799367 0.000323231 1.69428e-19)
(0.87259 0.00781357 -1.59045e-19)
(0.938855 0.0159098 0)
(0.997111 0.0241281 0)
(1.04699 0.0323082 0)
(1.08845 0.0398985 0)
(1.12002 0.0462943 4.32218e-20)
(1.15411 0.0547263 -1.52578e-19)
(-0.188266 0.0559064 -6.30813e-21)
(-0.185941 0.105203 6.32653e-21)
(-0.181042 0.159722 -1.74185e-22)
(-0.173655 0.217784 0)
(-0.163556 0.277346 -5.18176e-21)
(-0.150614 0.33578 9.83369e-21)
(-0.134664 0.390086 -2.44887e-22)
(-0.115375 0.43691 -4.29454e-21)
(-0.0918224 0.472207 0)
(-0.0623984 0.491985 0)
(-0.0251567 0.491647 -2.18473e-22)
(0.0216037 0.466751 -2.19044e-22)
(0.0782501 0.413771 -3.76471e-21)
(0.143439 0.332444 3.441e-21)
(0.213978 0.225527 0)
(0.286307 0.0986229 0)
(0.357921 -0.042723 3.4115e-21)
(0.427549 -0.18898 -2.42835e-22)
(0.492862 -0.324926 -2.80126e-21)
(0.549352 -0.43285 -1.51576e-22)
(0.592132 -0.501686 0)
(0.618736 -0.531933 0)
(0.630857 -0.532087 0)
(0.629514 -0.517366 0)
(0.609232 -0.508192 0)
(0.567025 -0.51304 0)
(0.516927 -0.50873 3.93762e-22)
(0.487497 -0.450233 -6.08029e-22)
(0.498283 -0.311569 0)
(0.544731 -0.113666 0)
(0.609394 0.0924733 -5.74431e-22)
(0.67439 0.261265 5.58263e-22)
(0.726272 0.373101 1.97548e-22)
(0.761524 0.428569 0)
(0.783758 0.442588 0)
(0.78756 0.446655 2.31412e-22)
(0.761683 0.466862 -2.2495e-22)
(0.713576 0.48313 0)
(0.673304 0.434541 3.17617e-22)
(0.667705 0.288062 -4.873e-22)
(0.695962 0.0744299 1.87937e-22)
(0.738492 -0.128148 0)
(0.782665 -0.27425 -2.32888e-22)
(0.818329 -0.345341 2.26454e-22)
(0.831721 -0.384723 0)
(0.807108 -0.408857 0)
(0.754453 -0.416539 -6.52194e-23)
(0.71068 -0.350627 1.88922e-22)
(0.703325 -0.197088 0)
(0.733756 -0.0167758 0)
(0.780106 0.162957 -5.5164e-23)
(0.803028 0.260797 4.48344e-24)
(0.787476 0.375681 -5.15003e-24)
(0.755534 0.375995 3.71037e-23)
(0.732181 0.345719 0)
(0.737612 0.191493 0)
(0.768543 -0.0143322 0)
(0.757029 -0.107521 0)
(0.760223 -0.35766 0)
(0.737952 -0.249931 0)
(-0.198488 0.0508584 -5.24749e-22)
(-0.196943 0.0970617 -2.15548e-20)
(-0.192191 0.148287 7.24552e-22)
(-0.184008 0.202928 1.95707e-20)
(-0.171674 0.259179 2.66651e-22)
(-0.154545 0.314236 0)
(-0.1319 0.36515 -1.57007e-20)
(-0.103319 0.408729 3.06147e-20)
(-0.06781 0.439633 -1.49181e-20)
(-0.0241299 0.454476 1.43506e-20)
(0.0283802 0.448727 -1.3729e-20)
(0.0898373 0.41849 1.4622e-20)
(0.159151 0.36162 -1.42161e-20)
(0.233804 0.278697 -4.9669e-22)
(0.310131 0.172454 -1.61034e-20)
(0.384872 0.047428 1.56482e-20)
(0.456519 -0.0916161 -1.49641e-20)
(0.524208 -0.235146 1.40859e-20)
(0.584648 -0.366632 -1.15346e-20)
(0.632438 -0.466787 2.02923e-20)
(0.663413 -0.524875 -8.85387e-21)
(0.676637 -0.544019 -3.81525e-22)
(0.675286 -0.534837 -4.24713e-21)
(0.663738 -0.510596 7.65597e-21)
(0.639009 -0.48968 -3.42917e-21)
(0.59415 -0.485359 1.78474e-22)
(0.535537 -0.483249 3.52376e-21)
(0.489099 -0.440756 6.91433e-22)
(0.480845 -0.323251 -8.08778e-21)
(0.513869 -0.141382 8.57145e-21)
(0.572563 0.0583521 -4.2619e-21)
(0.637632 0.229985 4.30558e-22)
(0.694346 0.349582 -1.97963e-22)
(0.738231 0.413196 2.85605e-22)
(0.769063 0.435784 0)
(0.777964 0.450645 0)
(0.755012 0.480741 -1.00775e-21)
(0.712178 0.499452 7.09379e-22)
(0.681061 0.443733 1.07397e-21)
(0.684523 0.285977 3.75063e-22)
(0.719087 0.0639702 -1.70514e-21)
(0.762496 -0.142099 3.66588e-22)
(0.802645 -0.287079 0)
(0.831771 -0.352956 0)
(0.841755 -0.382909 0)
(0.814854 -0.397724 0)
(0.760888 -0.402555 2.17103e-22)
(0.713193 -0.343133 -1.25606e-22)
(0.702288 -0.200376 0)
(0.731434 -0.0272205 0)
(0.775734 0.15363 0)
(0.799607 0.25936 -8.12191e-23)
(0.782055 0.381061 9.35315e-24)
(0.752608 0.382011 -7.62683e-23)
(0.729486 0.347723 0)
(0.737773 0.18822 0)
(0.77281 -0.0171705 6.83641e-23)
(0.761744 -0.106231 2.04319e-22)
(0.767092 -0.355698 0)
(0.743467 -0.248841 0)
(-0.164014 0.0421541 -8.00694e-22)
(-0.162241 0.0847618 -3.81777e-20)
(-0.156354 0.132166 3.55415e-20)
(-0.146314 0.182636 -3.32927e-20)
(-0.131254 0.234991 -2.68485e-22)
(-0.11015 0.285703 0)
(-0.0814439 0.33218 -2.89753e-20)
(-0.0458416 0.370716 2.83509e-20)
(-0.00219947 0.397297 2.21902e-22)
(0.0512134 0.407949 4.25749e-22)
(0.113228 0.398403 4.43868e-22)
(0.182947 0.3655 4.59722e-22)
(0.258473 0.307859 -3.25988e-20)
(0.336836 0.226283 3.21769e-20)
(0.414616 0.12339 0)
(0.488933 0.00248497 1.07503e-21)
(0.55897 -0.132216 -3.1865e-20)
(0.623692 -0.271387 3.1418e-20)
(0.678306 -0.397138 0)
(0.716325 -0.489271 0)
(0.734623 -0.537683 -1.51998e-20)
(0.734612 -0.547539 2.61104e-20)
(0.720621 -0.531615 -1.92207e-20)
(0.698874 -0.501527 1.69497e-21)
(0.669699 -0.471519 1.21581e-20)
(0.62446 -0.457149 -1.12259e-20)
(0.561627 -0.453914 1.06522e-20)
(0.501506 -0.425465 5.26818e-22)
(0.47431 -0.330761 -6.19122e-21)
(0.491822 -0.168027 0)
(0.542129 0.022821 0)
(0.605399 0.195513 2.16924e-21)
(0.665913 0.321844 -2.88405e-21)
(0.717656 0.393789 -3.03934e-23)
(0.756173 0.426159 1.91799e-21)
(0.769844 0.45276 -1.86396e-21)
(0.75051 0.49269 0)
(0.713886 0.513646 2.71343e-22)
(0.691939 0.45153 3.37774e-21)
(0.704035 0.283997 -7.18822e-21)
(0.744544 0.0552428 3.29054e-21)
(0.788787 -0.15323 4.15611e-22)
(0.824792 -0.296968 -2.71237e-21)
(0.846992 -0.358614 2.04154e-21)
(0.853297 -0.380226 3.21423e-22)
(0.824354 -0.386242 2.38749e-22)
(0.769549 -0.388387 -2.17645e-22)
(0.718549 -0.335651 0)
(0.704084 -0.20404 0)
(0.731525 -0.0382027 -7.60038e-22)
(0.773248 0.143919 3.80218e-22)
(0.797885 0.257572 -3.21055e-22)
(0.77828 0.386221 4.79977e-22)
(0.751095 0.387905 6.82174e-22)
(0.728175 0.349639 -1.51805e-22)
(0.739275 0.18474 3.61417e-22)
(0.778358 -0.0203364 -3.30496e-22)
(0.767898 -0.104975 1.8498e-22)
(0.775093 -0.353647 0)
(0.749638 -0.247753 0)
(-0.092687 0.0303035 -6.83781e-20)
(-0.0902136 0.0689523 2.87121e-21)
(-0.0824941 0.112091 6.19708e-20)
(-0.0698314 0.158008 -4.90786e-22)
(-0.0520584 0.204932 0)
(-0.0285017 0.2505 0)
(0.00336108 0.292178 -5.26619e-20)
(0.0435106 0.32582 -2.10727e-21)
(0.0924205 0.348877 7.83826e-20)
(0.150436 0.356437 1.59031e-21)
(0.216499 0.344819 -2.78706e-20)
(0.289097 0.311494 -3.09007e-20)
(0.3659 0.255453 3.09445e-20)
(0.443986 0.177513 0)
(0.520237 0.0797873 -3.56945e-20)
(0.592653 -0.035536 3.24901e-20)
(0.660802 -0.164923 0)
(0.722578 -0.298995 0)
(0.771287 -0.418293 2.48593e-20)
(0.79925 -0.502205 -4.3817e-21)
(0.804576 -0.541843 -1.86815e-20)
(0.791578 -0.543982 -1.16315e-20)
(0.76608 -0.523079 1.15049e-20)
(0.734638 -0.490132 -6.69493e-21)
(0.700551 -0.454507 1.21004e-21)
(0.656315 -0.430313 5.10784e-21)
(0.593719 -0.421945 5.5647e-22)
(0.524472 -0.403585 7.40332e-23)
(0.479376 -0.332044 0)
(0.479472 -0.191707 5.94662e-21)
(0.51889 -0.0128495 -6.10391e-21)
(0.578404 0.158498 3.68806e-22)
(0.641459 0.29028 0)
(0.699884 0.370626 -2.58455e-22)
(0.744976 0.413662 3.66638e-21)
(0.76313 0.452475 -6.97562e-21)
(0.748054 0.502012 -1.13963e-21)
(0.718274 0.525339 -1.0818e-21)
(0.705345 0.458095 4.45394e-21)
(0.725583 0.282723 8.46214e-22)
(0.771649 0.0481022 -6.98313e-21)
(0.81692 -0.161682 5.99772e-21)
(0.848854 -0.304082 -2.6791e-23)
(0.863864 -0.362481 1.57583e-21)
(0.866153 -0.376946 -1.85447e-21)
(0.835327 -0.374666 -1.55779e-21)
(0.780059 -0.374049 4.75424e-22)
(0.72639 -0.327965 7.20266e-22)
(0.708442 -0.207826 -1.40196e-21)
(0.733847 -0.0495375 1.05245e-21)
(0.772569 0.133857 -3.38996e-22)
(0.797816 0.25538 3.10484e-22)
(0.776189 0.39115 2.91733e-22)
(0.751109 0.393711 -1.05802e-21)
(0.72837 0.351521 -1.1347e-23)
(0.742193 0.18112 -4.52042e-22)
(0.785151 -0.0238249 0)
(0.775462 -0.103769 -1.69497e-22)
(0.784197 -0.351455 3.11715e-22)
(0.756444 -0.246614 0)
(0.0071392 0.0141685 6.11668e-20)
(0.00873395 0.0488718 -1.16688e-19)
(0.0174718 0.0873189 5.49849e-20)
(0.0311951 0.128321 5.06658e-20)
(0.0506367 0.169738 -9.84335e-20)
(0.0764496 0.210607 -1.76853e-22)
(0.110062 0.247937 4.7031e-20)
(0.15187 0.278106 4.95592e-20)
(0.202208 0.297874 -4.85664e-20)
(0.260899 0.303319 0)
(0.326922 0.291207 -5.97254e-20)
(0.398553 0.25928 1.22165e-19)
(0.473444 0.206601 -6.23273e-20)
(0.548937 0.13371 0)
(0.622481 0.0418866 0)
(0.692847 -0.0666945 1.11802e-21)
(0.759492 -0.190102 -6.73448e-20)
(0.81857 -0.317943 6.54142e-20)
(0.861021 -0.429507 0)
(0.878565 -0.504704 4.16277e-20)
(0.871078 -0.536687 -6.97089e-20)
(0.845804 -0.533401 5.24483e-20)
(0.810458 -0.509569 -3.93647e-20)
(0.770899 -0.476049 3.76876e-21)
(0.731646 -0.438467 2.20699e-20)
(0.688434 -0.40674 -9.60702e-21)
(0.629525 -0.390594 -2.53289e-22)
(0.556664 -0.376818 -3.5708e-21)
(0.496418 -0.326141 -5.39061e-22)
(0.477797 -0.210765 4.13743e-21)
(0.503705 -0.0474865 3.2968e-22)
(0.557375 0.119597 -4.08052e-21)
(0.621385 0.255261 7.56336e-21)
(0.684862 0.343817 -3.87619e-21)
(0.735244 0.398019 0)
(0.757619 0.449169 -4.23442e-21)
(0.747389 0.50811 4.1761e-21)
(0.724848 0.534341 -4.96067e-21)
(0.720742 0.463789 6.15854e-21)
(0.748525 0.28232 -9.30901e-22)
(0.79982 0.0432593 0)
(0.846397 -0.167407 -8.63792e-22)
(0.87447 -0.308307 1.98164e-21)
(0.882143 -0.364396 0)
(0.880117 -0.373057 2.87091e-21)
(0.847599 -0.363113 -1.26215e-21)
(0.792112 -0.359676 3.61886e-22)
(0.736299 -0.32008 2.81929e-22)
(0.715 -0.211587 0)
(0.738146 -0.0611037 0)
(0.773559 0.12345 -8.45452e-22)
(0.799317 0.252703 1.37402e-21)
(0.775801 0.395803 -8.61877e-22)
(0.752747 0.399448 2.87126e-22)
(0.730189 0.35342 7.70397e-22)
(0.746602 0.177399 4.52474e-22)
(0.793156 -0.0276385 -8.47706e-22)
(0.784391 -0.10262 0)
(0.794359 -0.349041 -4.7669e-22)
(0.763859 -0.245367 -4.83288e-23)
(0.13094 -0.00415978 5.64473e-20)
(0.13138 0.027129 -5.59831e-20)
(0.137497 0.0606564 4.0917e-22)
(0.149893 0.0965344 -3.50696e-22)
(0.168609 0.13342 3.68416e-22)
(0.194054 0.169811 -3.59907e-22)
(0.226952 0.202919 6.67121e-22)
(0.267778 0.229659 0)
(0.316716 0.246857 -7.31529e-22)
(0.373416 0.251214 7.8761e-22)
(0.436857 0.239816 8.55031e-22)
(0.505382 0.210526 -9.58726e-22)
(0.576878 0.162248 0)
(0.648942 0.0950094 0)
(0.720187 0.00978223 1.09274e-21)
(0.789279 -0.0921242 0)
(0.854562 -0.208917 -1.06121e-21)
(0.910362 -0.328957 0)
(0.945471 -0.431326 -4.90415e-20)
(0.952091 -0.497587 8.83443e-20)
(0.932478 -0.523273 -6.91469e-20)
(0.896258 -0.516979 3.00172e-20)
(0.852791 -0.492318 1.66984e-20)
(0.807153 -0.459711 -1.62172e-20)
(0.76311 -0.422881 -9.28256e-21)
(0.719949 -0.386801 8.94946e-21)
(0.666503 -0.362171 0)
(0.595649 -0.347427 1.43347e-22)
(0.524964 -0.312832 0)
(0.487586 -0.223446 0)
(0.497468 -0.0799918 6.34961e-21)
(0.542932 0.0796276 -6.50168e-21)
(0.605881 0.217262 3.1518e-22)
(0.672396 0.313491 3.84541e-22)
(0.726701 0.378965 -3.33188e-22)
(0.753038 0.442281 -3.63872e-21)
(0.748088 0.510511 3.53327e-21)
(0.733025 0.540593 -6.29954e-21)
(0.737452 0.468771 5.522e-21)
(0.772398 0.2831 1.89895e-21)
(0.82856 0.0406445 -7.64746e-21)
(0.876545 -0.17053 1.50529e-22)
(0.901246 -0.309683 4.82875e-21)
(0.901581 -0.364305 0)
(0.894926 -0.368621 -1.29148e-21)
(0.860939 -0.351716 1.06851e-21)
(0.805394 -0.345308 -1.46832e-21)
(0.747808 -0.311923 -2.83713e-22)
(0.723308 -0.215185 0)