/*--------------------------------*- C++ -*----------------------------------*\
| =========                 |                                                 |
| \\      /  F ield         | OpenFOAM: The Open Source CFD Toolbox           |
|  \\    /   O peration     | Version:  2512                                  |
|   \\  /    A nd           | Website:  www.openfoam.com                      |
|    \\/     M anipulation  |                                                 |
\*---------------------------------------------------------------------------*/
FoamFile
{
    version     2.0;
    format      ascii;
    arch        "LSB;label=32;scalar=64";
    class       surfaceScalarField;
    location    "181.5";
    object      phi;
}
// * * * * * * * * * * * * * * * * * * * * * * * * * * * * * * * * * * * * * //

dimensions      [0 3 -1 0 0 0 0];

oriented        oriented;

internalField   nonuniform List<scalar> 
26232
(
-4.69657e-05
0.00105605
-0.00100909
0.000115597
0.00202425
-0.00218681
0.000732197
0.00203892
-0.00265552
0.00202057
0.00114955
-0.00243793
0.00418634
-0.000635572
-0.00153019
0.00742402
-0.00332795
9.02658e-05
0.011914
-0.00694144
0.00245143
0.0178035
-0.0114763
0.00558679
0.0251898
-0.0169016
0.00951536
0.0340977
-0.0231449
0.0142369
0.0444619
-0.0300873
0.0197231
0.056117
-0.0375676
0.0259125
0.0688
-0.0453927
0.0327098
0.0821641
-0.0533527
0.0399885
0.0958049
-0.0612386
0.0475978
0.109293
-0.0688597
0.0553713
0.122215
-0.0760591
0.063137
0.134209
-0.0827262
0.0707322
0.145006
-0.0888014
0.0780048
0.154435
-0.0942932
0.0848642
0.162471
-0.0992116
0.091176
0.1691
-0.103766
0.0971368
0.174289
-0.107578
0.102389
-0.111935
0.108263
0.177961
3.0361e-05
0.00102569
0.000419883
0.00163472
0.00143273
0.00102607
0.00331181
-0.000729522
0.00628407
-0.00360783
0.0105514
-0.00759523
0.0162716
-0.0126617
0.0235325
-0.0187371
0.0323262
-0.0256954
0.0425317
-0.0333504
0.0539107
-0.0414662
0.0661215
-0.0497785
0.0787495
-0.0580206
0.0913481
-0.0659513
0.103487
-0.0733774
0.114797
-0.0801696
0.125008
-0.0862703
0.133973
-0.0916912
0.141675
-0.0965031
0.148199
-0.100818
0.153746
-0.104758
0.158452
-0.108473
0.162796
-0.111922
-0.115737
0.166598
0.0001306
0.000895094
0.000812528
0.000952795
0.00232194
-0.000483342
0.0049149
-0.00332249
0.00881782
-0.00751075
0.0142031
-0.0129805
0.0211566
-0.0196151
0.029646
-0.0272266
0.0395025
-0.0355519
0.0504233
-0.0442711
0.0619993
-0.0530423
0.0737633
-0.0615425
0.0852481
-0.0695055
0.0960448
-0.076748
0.10585
-0.0831824
0.114493
-0.0888132
0.121945
-0.0937221
0.128296
-0.0980425
0.133723
-0.10193
0.138441
-0.105535
0.142658
-0.108975
0.146551
-0.112366
0.150269
-0.115639
-0.119242
0.153774
0.000247155
0.000647939
0.00126855
-6.85971e-05
0.00334418
-0.00255898
0.00672423
-0.00670253
0.0116014
-0.012388
0.0180706
-0.0194497
0.0260886
-0.0276331
0.0354518
-0.0365899
0.0458051
-0.0459051
0.0566833
-0.0551493
0.0675787
-0.0639377
0.078016
-0.0719797
0.0876173
-0.0791068
0.0961461
-0.0852769
0.103521
-0.0905569
0.109798
-0.0950904
0.115135
-0.099059
0.119738
-0.102646
0.123819
-0.10601
0.127554
-0.10927
0.131082
-0.112503
0.134476
-0.11576
0.137845
-0.119009
-0.122529
0.141131
0.000376358
0.000271581
0.0017706
-0.00146284
0.00445303
-0.00524141
0.00864002
-0.0108895
0.0144471
-0.018195
0.0218373
-0.0268399
0.03059
-0.0363858
0.0403107
-0.0463106
0.0504869
-0.0560813
0.0605746
-0.065237
0.0700901
-0.0734532
0.0786817
-0.0805713
0.0861664
-0.0865915
0.0925271
-0.0916376
0.0978774
-0.0959072
0.102409
-0.0996215
0.106334
-0.102985
0.109848
-0.10616
0.113102
-0.109265
0.116202
-0.11237
0.119215
-0.115516
0.12218
-0.118725
0.125147
-0.121976
-0.125423
0.128042
0.000517413
-0.000245832
0.00230681
-0.00325224
0.00560617
-0.00854077
0.0105605
-0.0158439
0.0171579
-0.0247924
0.0251824
-0.0348643
0.0342171
-0.0454205
0.0437093
-0.0558027
0.0530762
-0.0654482
0.061816
-0.0739768
0.0695872
-0.0812245
0.0762399
-0.087224
0.0817982
-0.0921497
0.0864095
-0.0962489
0.0902819
-0.0997796
0.0936279
-0.102967
0.0966283
-0.105985
0.0994174
-0.108949
0.102085
-0.111932
0.104686
-0.114971
0.107253
-0.118084
0.109806
-0.121277
0.11237
-0.12454
-0.127952
0.114899
0.000669281
-0.000915113
0.00286217
-0.00544513
0.00675196
-0.0124306
0.0123672
-0.0214591
0.0195219
-0.0319472
0.0277999
-0.0431422
0.0366172
-0.0542379
0.045347
-0.0645326
0.0534521
-0.0735533
0.0605779
-0.0811027
0.066583
-0.0872295
0.0715104
-0.0921514
0.0755254
-0.0961647
0.0788446
-0.0995681
0.0816794
-0.102614
0.084203
-0.105491
0.0865396
-0.108322
0.0887697
-0.111179
0.0909413
-0.114104
0.0930819
-0.117112
0.0952072
-0.120209
0.0973259
-0.123396
0.0994514
-0.126666
-0.130048
0.101547
0.000828217
-0.00174333
0.00341294
-0.00802985
0.00782268
-0.0168403
0.0139246
-0.0275611
0.021332
-0.0393546
0.0294474
-0.0512576
0.0375959
-0.0623863
0.0451839
-0.0721206
0.0518155
-0.0801849
0.0573296
-0.0866168
0.0617673
-0.0916672
0.0652991
-0.0956833
0.0681471
-0.0990126
0.0705242
-0.101945
0.0726017
-0.104692
0.0745003
-0.10739
0.0762962
-0.110118
0.0780341
-0.112917
0.0797386
-0.115808
0.0814235
-0.118796
0.0830973
-0.121883
0.0847659
-0.125064
0.0864364
-0.128336
-0.1317
0.0880884
0.000986916
-0.00273025
0.00392608
-0.010969
0.00873933
-0.0216535
0.0150996
-0.0339213
0.0224244
-0.0466793
0.0299962
-0.0588295
0.0371467
-0.0695367
0.0434061
-0.07838
0.0485624
-0.0853412
0.0526314
-0.0906858
0.0557772
-0.094813
0.0582243
-0.0981304
0.0601907
-0.100979
0.0618515
-0.103606
0.0633289
-0.106169
0.0646992
-0.10876
0.0660062
-0.111425
0.0672735
-0.114185
0.0685144
-0.117049
0.0697364
-0.120018
0.0709447
-0.123091
0.0721436
-0.126263
0.0733364
-0.129529
-0.132876
0.0745126
0.00113527
-0.00386552
0.00436353
-0.0141973
0.00942432
-0.0267143
0.015786
-0.040283
0.0227112
-0.0536046
0.0294474
-0.0655656
0.0354197
-0.0755091
0.0403287
-0.083289
0.0441367
-0.0891492
0.0469854
-0.0935345
0.0490975
-0.0969251
0.0506984
-0.0997312
0.0519717
-0.102252
0.0530465
-0.104681
0.0540031
-0.107126
0.0548869
-0.109644
0.0557223
-0.11226
0.0565221
-0.114985
0.057294
-0.117821
0.058043
-0.120767
0.0587726
-0.123821
0.0594864
-0.126977
0.0601859
-0.130229
-0.133559
0.060869
0.00126246
-0.00512798
0.0046896
-0.0176244
0.00981673
-0.0318415
0.0159254
-0.0463917
0.0221906
-0.0598698
0.0279089
-0.071284
0.0326536
-0.0802537
0.036297
-0.0869324
0.0389353
-0.0917875
0.0407796
-0.0953789
0.0420623
-0.0982078
0.0429801
-0.100649
0.0436739
-0.102946
0.0442322
-0.105239
0.0447049
-0.107599
0.0451183
-0.110057
0.045486
-0.112628
0.0458157
-0.115314
0.0461125
-0.118117
0.04638
-0.121035
0.0466211
-0.124062
0.0468378
-0.127194
0.0470302
-0.130421
-0.133729
0.0471997
0.00136142
-0.0064894
0.00487997
-0.021143
0.00988388
-0.0368454
0.0155132
-0.052021
0.0209339
-0.0652904
0.0255553
-0.0759054
0.029115
-0.0838134
0.0316289
-0.0894463
0.0332777
-0.0934362
0.0342953
-0.0963965
0.0348941
-0.0988065
0.0352319
-0.100987
0.0354099
-0.103124
0.0354859
-0.105315
0.0354899
-0.107603
0.0354372
-0.110004
0.0353356
-0.112526
0.0351903
-0.115169
0.0350054
-0.117933
0.0347841
-0.120814
0.0345291
-0.123807
0.0342417
-0.126906
0.0339213
-0.130101
0.0335719
-0.133379
-0.000254317
0.000694985
-0.000440667
-0.000874285
0.00235805
-0.00173808
-0.00178306
0.00420301
-0.00329423
-0.00292874
0.00609921
-0.00495353
-0.00427048
0.00795589
-0.00661415
-0.00577123
0.00973542
-0.00823467
-0.00739398
0.0114448
-0.00982207
-0.00910049
0.0131195
-0.011413
-0.0108515
0.0148055
-0.0130544
-0.0126072
0.0165445
-0.0147889
-0.0143267
0.0183642
-0.0166448
-0.0159672
0.0202736
-0.0186331
-0.0174824
0.0222625
-0.0207472
-0.0188206
0.0243021
-0.0229639
-0.0199235
0.0263467
-0.0252438
-0.0207255
0.0283336
-0.0275316
-0.0211541
0.0301837
-0.0297551
-0.0211315
0.0318016
-0.0318242
-0.0205762
0.0330768
-0.033632
-0.0194069
0.0338879
-0.0350572
-0.01755
0.0341128
-0.0359697
-0.0149343
0.0336184
-0.0362341
-0.0115195
0.0323007
-0.0357155
0.0301422
-0.00733022
-0.0343315
-0.000169876
0.000864861
-0.000589469
0.00277764
-0.00120955
0.0048231
-0.0019959
0.00688556
-0.00291931
0.0088793
-0.00394875
0.0107649
-0.00504757
0.0125436
-0.0061727
0.0142446
-0.00727566
0.0159084
-0.00830426
0.0175731
-0.00920392
0.0192639
-0.00991791
0.0209876
-0.010387
0.0227315
-0.0105485
0.0244636
-0.0103356
0.0261337
-0.0096781
0.0276761
-0.00850319
0.0290088
-0.00673761
0.030036
-0.00431128
0.0306504
-0.00115883
0.0307355
0.00278658
0.0301674
0.00756452
0.0288405
0.0132111
0.0266541
0.0235864
0.0197669
-8.29975e-05
0.000947858
-0.000292209
0.00298685
-0.000602063
0.00513295
-0.000992622
0.00727611
-0.00144418
0.00933086
-0.00193128
0.011252
-0.00241892
0.0130313
-0.00286148
0.0146872
-0.00320403
0.016251
-0.00338486
0.017754
-0.00333794
0.019217
-0.00299478
0.0206445
-0.00228538
0.0220221
-0.0011389
0.0233171
0.00051534
0.0244795
0.00274869
0.0254428
0.00562954
0.026128
0.00922132
0.0264443
0.0135798
0.0262919
0.0187499
0.0255654
0.0247603
0.024157
0.0316369
0.0219639
0.0393778
0.0189132
0.0148541
0.0481101
-7.70995e-06
0.000955568
-2.65983e-05
0.00300574
-4.57422e-05
0.0051521
-5.29014e-05
0.00728327
-3.36708e-05
0.00931163
3.36651e-05
0.0111846
0.00018195
0.012883
0.000456428
0.0144127
0.000914058
0.0157933
0.00162099
0.017047
0.00264941
0.0181885
0.00407451
0.0192194
0.00597213
0.0201245
0.00841692
0.0208723
0.011481
0.0214153
0.0152316
0.0216922
0.0197295
0.0216301
0.0250267
0.021147
0.0311642
0.0201544
0.0381698
0.0185597
0.0460556
0.0162712
0.0548399
0.0131796
0.064465
0.0092881
0.00414417
0.075175
4.56487e-05
0.000909919
0.000170371
0.00288102
0.000383642
0.00493882
0.000699012
0.0069679
0.00113173
0.00887891
0.00170277
0.0106136
0.00244294
0.0121428
0.0033951
0.0134605
0.00461411
0.0145743
0.00616486
0.0154963
0.00811917
0.0162342
0.0105523
0.0167862
0.01354
0.0171368
0.0171555
0.0172569
0.0214673
0.0171036
0.0265373
0.0166221
0.0324195
0.015748
0.0391582
0.0144083
0.0467874
0.0125252
0.0553335
0.0100136
0.0648062
0.0067985
0.0752443
0.0027415
0.0865473
-0.00201491
-0.00850536
0.0991968
6.97021e-05
0.000840217
0.000274569
0.00267615
0.000635284
0.00457811
0.00117525
0.00642794
0.00191661
0.00813755
0.00288376
0.00964642
0.00410759
0.010919
0.0056283
0.0119398
0.00749636
0.0127063
0.00977152
0.0132211
0.0125204
0.0134853
0.0158136
0.013493
0.0197226
0.0132279
0.024317
0.0126625
0.0296628
0.0117577
0.0358209
0.0104641
0.0428462
0.00872264
0.0507926
0.00646194
0.0597033
0.00361445
0.0696143
0.000102653
0.0805767
-0.00416392
0.0926985
-0.00938026
0.10576
-0.015076
-0.0231458
0.1204
6.30986e-05
0.000777119
0.000279206
0.00246005
0.000691799
0.00416552
0.00134126
0.00577848
0.00226186
0.00721695
0.00348551
0.00842277
0.00504629
0.00935823
0.006984
0.0100021
0.0093462
0.0103441
0.0121884
0.0103789
0.0155731
0.0101006
0.0195682
0.0094979
0.0242448
0.0085513
0.029676
0.0072313
0.0359367
0.00549708
0.0431019
0.00329882
0.0512364
0.00058812
0.0604342
-0.00273584
0.0707601
-0.00671143
0.0822977
-0.011435
0.0950638
-0.0169301
0.109168
-0.0234849
0.12437
-0.0302781
-0.0399273
0.141152
3.02477e-05
0.000746871
0.000198508
0.00229179
0.000579594
0.00378443
0.00123581
0.00512226
0.00221771
0.00623505
0.00356906
0.00707141
0.00533223
0.00759507
0.00755267
0.00778165
0.0102822
0.0076146
0.0135806
0.00708049
0.0175166
0.00616461
0.0221673
0.00484716
0.0276178
0.00310081
0.0339583
0.000890766
0.0412876
-0.0018322
0.0497031
-0.00511671
0.059312
-0.00902072
0.0701832
-0.013607
0.0823962
-0.0189245
0.095982
-0.0250207
0.110927
-0.0318751
0.127139
-0.0396971
0.144434
-0.047573
-0.0581274
0.162634
-1.79629e-05
0.000764834
6.88833e-05
0.00220494
0.000371533
0.00348178
0.000977592
0.0045162
0.00195817
0.00525447
0.00337503
0.00565455
0.00528729
0.0056828
0.00775714
0.0053118
0.0108541
0.00451762
0.0146578
0.00327678
0.019259
0.00156347
0.0247585
-0.000652405
0.0312653
-0.00340595
0.0388919
-0.00673585
0.0477432
-0.0106835
0.0579132
-0.0152867
0.0694686
-0.0205762
0.0824312
-0.0265696
0.0967704
-0.0332637
0.112375
-0.0406253
0.129075
-0.048575
0.14649
-0.0571125
0.164501
-0.0655839
-0.0757079
0.182082
-6.4977e-05
0.000829811
-5.49721e-05
0.00219493
0.000178298
0.00324851
0.00075097
0.00394353
0.00176043
0.00424501
0.00329515
0.00411983
0.00544251
0.00353545
0.0082949
0.00245941
0.0119533
0.000859166
0.0165283
-0.00129819
0.0221372
-0.00404538
0.0288983
-0.00741352
0.0369216
-0.0114293
0.0462969
-0.0161111
0.0570783
-0.0214649
0.0692711
-0.0274795
0.0828167
-0.0341218
0.0975821
-0.041335
0.113349
-0.0490311
0.129824
-0.0570997
0.146632
-0.0653832
0.163263
-0.0737432
0.179506
-0.0818269
-0.0902193
0.194017
-9.26257e-05
0.000922437
-0.000113174
0.00221548
0.000122196
0.00301314
0.000760657
0.00330507
0.00193257
0.0030731
0.00376184
0.00229056
0.00637277
0.000924518
0.0098943
-0.00106211
0.0144586
-0.00370512
0.0201953
-0.0070349
0.0272214
-0.0110715
0.0356273
-0.0158194
0.0454608
-0.0212628
0.0567117
-0.027362
0.0692985
-0.0340517
0.0830599
-0.0412409
0.097752
-0.0488139
0.113055
-0.0566379
0.128581
-0.0645574
0.143921
-0.0724396
0.158625
-0.0800874
0.172356
-0.0874738
0.184793
-0.0942634
-0.100627
0.1952
-8.66524e-05
-5.79783e-05
0.000299647
0.00116679
0.0027097
0.00509052
0.00846647
0.0129911
0.0188014
0.0260034
0.034655
0.0447481
0.0561951
0.0688217
0.0823678
0.0964982
0.110821
0.124916
0.138363
0.150787
0.161876
0.171539
0.179665
0.187301
-0.000837487
0.0362148
-0.0427075
0.00627185
0.0283925
-0.0355018
0.0139592
0.0175574
-0.0252447
0.0220616
0.00377074
-0.0118732
0.0304138
-0.0127736
0.00442145
0.0389243
-0.0318311
0.0233206
0.0473779
-0.052796
0.0443425
0.0556177
-0.0745206
0.0662807
0.0633655
-0.095388
0.0876402
0.0702128
-0.113564
0.106717
0.075603
-0.127538
0.122148
0.0788708
-0.136667
0.133399
0.0793046
-0.141588
0.141154
0.0766044
-0.144288
0.146989
0.0717679
-0.146857
0.151694
0.0674565
-0.148733
0.153045
0.0668841
-0.144982
0.145555
0.0718251
-0.128422
0.123481
0.0816712
-0.0947321
0.084886
0.0945952
-0.0456661
0.0327422
0.108587
0.0118334
-0.0258252
0.121868
0.0684673
-0.081748
0.132891
0.115054
-0.126077
0.140628
0.147238
-0.154975
0.145092
0.1658
-0.170264
0.146982
0.173979
-0.175869
0.146401
0.177424
-0.176843
0.142689
0.183938
-0.180226
0.13617
0.196887
-0.190367
0.129464
0.205422
-0.198716
0.12609
0.188094
-0.18472
0.127841
0.131244
-0.132995
0.134026
0.042784
-0.0489695
0.142118
-0.0508575
0.0427658
0.149625
-0.12803
0.120523
0.155182
-0.175762
0.170205
0.1581
-0.199348
0.19643
0.157243
-0.208489
0.209347
0.151744
-0.220612
0.226111
0.143137
-0.231509
0.240116
0.135533
-0.222315
0.229919
0.132741
-0.171853
0.174646
0.135703
-0.0754041
0.072442
0.142705
0.0269929
-0.0339951
0.150088
0.125202
-0.132585
0.153696
0.18204
-0.185648
0.151246
0.237904
-0.235455
0.144584
0.266123
-0.259462
0.138859
0.263453
-0.257728
0.13824
0.206066
-0.205446
0.142706
0.0705791
-0.0750455
0.147828
-0.0215132
0.0163912
0.148719
-0.163517
0.162626
0.145925
-0.218112
0.220906
0.143165
-0.291179
0.293939
0.142574
-0.293763
0.294355
0.143008
-0.141168
0.140733
0.142812
-0.0945892
0.0947851
0.141005
0.19284
-0.191033
0.241836
-0.239998
0.026523
0.0294586
0.0335415
0.0213741
0.0407019
0.0103969
0.0478767
-0.00340401
0.0549462
-0.0198431
0.0618278
-0.0387127
0.0684371
-0.0594053
0.074636
-0.0807194
0.0801654
-0.100917
0.0846614
-0.11806
0.0877221
-0.130599
0.0889523
-0.137897
0.0878444
-0.14048
0.0837763
-0.14022
0.0768116
-0.139893
0.0688451
-0.140767
0.0634712
-0.139609
0.0639818
-0.128932
0.0712094
-0.10196
0.0835693
-0.058026
0.0987064
-0.00330372
0.113975
0.0531989
0.127393
0.101636
0.137563
0.137068
0.144287
0.159076
0.148031
0.170236
0.148799
0.176656
0.146232
0.186505
0.14107
0.202049
0.135823
0.210669
0.133326
0.190591
0.13485
0.12972
0.139891
0.0377436
0.146292
-0.0572591
0.151951
-0.133688
0.155704
-0.179515
0.157179
-0.200823
0.155447
-0.206757
0.149423
-0.214589
0.140337
-0.222423
0.132301
-0.214279
0.129575
-0.169127
0.13328
-0.0791092
0.141484
0.0187889
0.149912
0.116773
0.154214
0.177739
0.152276
0.239842
0.14594
0.27246
0.140319
0.269074
0.139347
0.207039
0.143452
0.066474
0.148427
-0.0264882
0.149179
-0.16427
0.146201
-0.215134
0.143197
-0.288175
0.142553
-0.293119
0.142753
-0.141368
0.142366
-0.0942024
0.14052
0.194687
0.243688
0.0545529
0.0230159
0.0611048
0.0148222
0.0675348
0.00396696
0.0737347
-0.00960399
0.0795105
-0.0256188
0.0848468
-0.0440491
0.089682
-0.0642405
0.0938664
-0.0849038
0.0971481
-0.104199
0.0992121
-0.120124
0.0997791
-0.131166
0.098732
-0.13685
0.0959946
-0.137743
0.0910838
-0.135309
0.0833213
-0.13213
0.0733162
-0.130762
0.0640738
-0.130366
0.059861
-0.12472
0.0633587
-0.105457
0.0740313
-0.0686986
0.0893134
-0.0185859
0.106076
0.0364366
0.121606
0.0861053
0.13415
0.124524
0.143194
0.150032
0.148897
0.164533
0.151218
0.174335
0.15012
0.187603
0.146602
0.205567
0.142873
0.214398
0.14111
0.192353
0.142152
0.128678
0.145718
0.0341773
0.150289
-0.0618298
0.154055
-0.137454
0.156041
-0.181501
0.156136
-0.200918
0.15367
-0.204291
0.147362
-0.20828
0.138018
-0.21308
0.129606
-0.205867
0.126832
-0.166353
0.131086
-0.0833631
0.140309
0.00956596
0.149706
0.107376
0.154763
0.172682
0.153475
0.24113
0.147583
0.278352
0.142092
0.274564
0.140704
0.208427
0.144336
0.0628415
0.149129
-0.0312809
0.149755
-0.164896
0.146566
-0.211945
0.143269
-0.284877
0.142586
-0.292437
0.142619
-0.141401
0.142079
-0.0936624
0.1402
0.196565
0.245543
0.0812385
0.0169523
0.0871869
0.00887377
0.0930747
-0.00192082
0.0983634
-0.0148928
0.103034
-0.030289
0.10704
-0.0480552
0.110259
-0.0674596
0.112486
-0.0871309
0.113481
-0.105194
0.113041
-0.119684
0.111093
-0.129219
0.107754
-0.133511
0.103284
-0.133272
0.097658
-0.129683
0.0900727
-0.124545
0.0798374
-0.120526
0.0684354
-0.118964
0.0600185
-0.116303
0.0589424
-0.104381
0.0665922
-0.0763484
0.080815
-0.0328087
0.098299
0.0189526
0.115514
0.0688903
0.130285
0.109753
0.14165
0.138667
0.1494
0.156784
0.153475
0.170259
0.154121
0.186957
0.152458
0.20723
0.150276
0.21658
0.149098
0.193532
0.149473
0.128302
0.151388
0.0322624
0.154033
-0.0644744
0.155919
-0.13934
0.156207
-0.181789
0.154979
-0.199691
0.15187
-0.201181
0.145479
-0.201889
0.136122
-0.203723
0.127437
-0.197182
0.124483
-0.163399
0.129069
-0.0879494
0.139121
-0.000485864
0.149422
0.0970749
0.15531
0.166794
0.15482
0.24162
0.149502
0.283671
0.144183
0.279883
0.142332
0.210278
0.145356
0.0598169
0.149919
-0.0358435
0.150429
-0.165406
0.147013
-0.208529
0.143372
-0.281236
0.142657
-0.291723
0.142594
-0.141337
0.141939
-0.093007
0.140041
0.198463
0.247391
0.105153
0.0109966
0.110752
0.00327428
0.11616
-0.00732834
0.120787
-0.0195199
0.124603
-0.0341052
0.127468
-0.05092
0.129154
-0.0691464
0.129409
-0.0873856
0.128059
-0.103844
0.125105
-0.11673
0.120756
-0.12487
0.115355
-0.12811
0.109303
-0.12722
0.10291
-0.12329
0.0957811
-0.117416
0.086678
-0.111423
0.0752719
-0.107558
0.0642561
-0.105287
0.0586109
-0.0987361
0.0619395
-0.0796769
0.0737582
-0.0446275
0.0908849
0.00182593
0.109159
0.0506162
0.125845
0.0930666
0.139404
0.125108
0.149223
0.146964
0.155211
0.164272
0.157827
0.184341
0.15819
0.206868
0.157598
0.217172
0.1569
0.19423
0.1565
0.128702
0.156755
0.0320071
0.15743
-0.065149
0.157478
-0.139389
0.15616
-0.180471
0.153688
-0.197219
0.150011
-0.197505
0.143707
-0.195585
0.134577
-0.194593
0.125752
-0.188357
0.122512
-0.160159
0.127187
-0.0926243
0.137854
-0.0111534
0.148997
0.0859319
0.1558
0.159992
0.156265
0.241154
0.15166
0.288276
0.146572
0.28497
0.144215
0.212635
0.146514
0.0575176
0.150774
-0.0401038
0.15118
-0.165812
0.147533
-0.204882
0.143499
-0.277202
0.14275
-0.290974
0.142663
-0.141251
0.141933
-0.0922768
0.140035
0.200361
0.249212
0.126149
0.00524782
0.131859
-0.00243622
0.136753
-0.0122218
0.140783
-0.02355
0.143749
-0.0370715
0.145427
-0.0525975
0.145503
-0.0692227
0.143731
-0.085614
0.140066
-0.100178
0.13473
-0.111394
0.128206
-0.118345
0.121072
-0.120976
0.113811
-0.119959
0.106781
-0.11626
0.099986
-0.110621
0.092453
-0.10389
0.0827627
-0.0978678
0.0714468
-0.0939709
0.0624508
-0.0897401
0.0608761
-0.0781023
0.0687941
-0.0525454
0.0841581
-0.0135381
0.102632
0.0321422
0.120717
0.0749814
0.136199
0.109626
0.148021
0.135142
0.156009
0.156284
0.160747
0.179602
0.163249
0.204366
0.164294
0.216126
0.164135
0.19439
0.162976
0.129861
0.161603
0.0333801
0.160378
-0.0639239
0.158662
-0.137673
0.155855
-0.177664
0.152233
-0.193596
0.148045
-0.193317
0.141949
-0.189489
0.133266
-0.185909
0.124468
-0.179559
0.120868
-0.15656
0.125387
-0.0971432
0.136432
-0.0221986
0.148354
0.0740101
0.156159
0.152187
0.157735
0.239578
0.153988
0.292023
0.149207
0.289752
0.146328
0.215515
0.147794
0.0560517
0.151669
-0.0439789
0.151979
-0.166122
0.148115
-0.201018
0.143646
-0.272732
0.142848
-0.290176
0.14281
-0.141213
0.142046
-0.0915132
0.140173
0.202235
0.250983
0.146419
-1.96449e-05
0.151436
-0.00745253
0.155578
-0.0163642
0.158632
-0.0266034
0.160367
-0.0388071
0.160493
-0.0527231
0.158673
-0.0674034
0.154754
-0.0816943
0.148862
-0.0942866
0.141433
-0.103965
0.133133
-0.110046
0.124683
-0.112526
0.116625
-0.111901
0.109251
-0.108886
0.102673
-0.104043
0.0964502
-0.0976676
0.0891541
-0.0905717
0.0796413
-0.0844581
0.0695972
-0.079696
0.0638367
-0.0723418
0.0667584
-0.0554672
0.0786416
-0.0254212
0.096094
0.0146899
0.114818
0.0562573
0.131818
0.0926269
0.145491
0.121469
0.15549
0.146285
0.16242
0.172672
0.167118
0.199668
0.169831
0.213413
0.170266
0.193955
0.168559
0.131568
0.165782
0.0361568
0.162777
-0.0609182
0.159396
-0.134293
0.155241
-0.173508
0.150581
-0.188936
0.145923
-0.188659
0.14011
-0.183677
0.132054
-0.177853
0.123467
-0.170972
0.119483
-0.152576
0.123605
-0.101264
0.134787
-0.0333814
0.147408
0.0613898
0.156295
0.1433
0.159134
0.236739
0.156398
0.29476
0.152012
0.294138
0.148612
0.218915
0.149182
0.0554812
0.152573
-0.0473693
0.152796
-0.166345
0.148747
-0.19697
0.143805
-0.26779
0.142937
-0.289307
0.143017
-0.141292
0.142262
-0.0907585
0.140447
0.20405
0.252674
0.166525
-0.00391025
0.169941
-0.0108691
0.172507
-0.0189302
0.173828
-0.0279236
0.173701
-0.0386801
0.17179
-0.0508128
0.167823
-0.0634356
0.161786
-0.0756581
0.153972
-0.0864721
0.144955
-0.0949484
0.135479
-0.10057
0.126264
-0.103311
0.117838
-0.103475
0.110437
-0.101486
0.104108
-0.0977142
0.0987256
-0.0922848
0.0934692
-0.0853152
0.0867637
-0.0777527
0.078119
-0.0710512
0.0703049
-0.0645277
0.0683476
-0.0535099
0.0752924
-0.032366
0.0899938
-1.15035e-05
0.108183
0.0380678
0.12609
0.0747203
0.141369
0.106189
0.153331
0.134323
0.162457
0.163547
0.169356
0.192768
0.173765
0.209004
0.174907
0.192814
0.172877
0.133598
0.169004
0.0400298
0.164492
-0.0564068
0.159598
-0.129399
0.15425
-0.16816
0.148686
-0.183373
0.143593
-0.183565
0.138094
-0.178178
0.1308
-0.170559
0.1226
-0.162772
0.118263
-0.148239
0.121787
-0.104789
0.132853
-0.0444479
0.146075
0.0481677
0.156105
0.13327
0.160347
0.232497
0.158771
0.296336
0.154883
0.298026
0.151018
0.22278
0.15063
0.0558694
0.153454
-0.0501936
0.153594
-0.166485
0.149409
-0.192785
0.143969
-0.26235
0.143002
-0.28834
0.143267
-0.141557
0.142563
-0.0900555
0.140845
0.205768
0.254249
0.183842
-0.00567018
0.185168
-0.0121958
0.185439
-0.0192006
0.184486
-0.026971
0.18214
-0.0363341
0.178064
-0.0467373
0.172103
-0.0574745
0.164379
-0.0679332
0.155269
-0.0773626
0.145382
-0.0850614
0.135425
-0.0906134
0.126033
-0.0939191
0.117648
-0.0950897
0.110469
-0.0943068
0.104494
-0.0917385
0.0996559
-0.087447
0.095671
-0.0813303
0.0914893
-0.0735709
0.0856785
-0.0652405
0.078533
-0.0573821
0.0735353
-0.0485123
0.075233
-0.0340637
0.0853453
-0.0101238
0.101293
0.0221206
0.11905
0.0569628
0.135466
0.089773
0.149252
0.120537
0.160577
0.152222
0.169734
0.183611
0.175887
0.20285
0.177814
0.190887
0.175722
0.13569
0.171115
0.0446362
0.16541
-0.0507011
0.15917
-0.123159
0.152781
-0.161771
0.146468
-0.17706
0.140978
-0.178075
0.135793
-0.172993
0.129359
-0.164125
0.121708
-0.155121
0.117087
-0.143618
0.119875
-0.107577
0.130579
-0.0551514
0.14428
0.0344666
0.155483
0.122067
0.16126
0.226719
0.160986
0.29661
0.157713
0.301299
0.153448
0.227045
0.152111
0.0572058
0.154277
-0.0523599
0.154337
-0.166545
0.15008
-0.188528
0.144129
-0.256399
0.143031
-0.287243
0.143543
-0.142068
0.142933
-0.0894458
0.141359
0.207342
0.255667
0.194032
-0.00568544
0.193282
-0.0114456
0.191348
-0.0172666
0.188377
-0.0239998
0.184173
-0.0321296
0.178453
-0.0410178
0.171192
-0.0502135
0.162579
-0.0593201
0.152998
-0.0677815
0.143002
-0.0750651
0.133193
-0.0808048
0.124089
-0.0848153
0.116042
-0.087042
0.109223
-0.0874877
0.103649
-0.0861649
0.099263
-0.0830611
0.0959908
-0.0780581
0.0934404
-0.0710206
0.0904603
-0.0622603
0.0859167
-0.0528386
0.0807901
-0.0433856
0.0787981
-0.0320717
0.0835782
-0.014904
0.0954047
0.0102941
0.111349
0.0410184
0.127948
0.0731746
0.143164
0.105321
0.156531
0.138855
0.167851
0.172291
0.175825
0.194877
0.178804
0.187908
0.176965
0.137528
0.172112
0.0494898
0.1655
-0.0440895
0.158058
-0.115716
0.150753
-0.154467
0.143858
-0.170165
0.138029
-0.172246
0.133125
-0.168089
0.127617
-0.158617
0.120664
-0.148169
0.115842
-0.138797
0.117804
-0.109538
0.127922
-0.06527
0.141962
0.0204272
0.154331
0.109698
0.161726
0.219325
0.162886
0.29545
0.16036
0.303825
0.155824
0.231581
0.153575
0.0594555
0.155012
-0.0537971
0.154989
-0.166521
0.150731
-0.18427
0.144283
-0.249952
0.14302
-0.28598
0.143834
-0.142882
0.143354
-0.0889659
0.14198
0.208716
0.256882
0.194332
-0.00481732
0.192286
-0.00939896
0.189113
-0.0140941
0.185082
-0.019969
0.179946
-0.0269931
0.173557
-0.0346286
0.165972
-0.0426295
0.157378
-0.050726
0.148114
-0.058517
0.138642
-0.0655927
0.129444
-0.0716074
0.12093
-0.0763014
0.113383
-0.0794951
0.10696
-0.0810639
0.101714
-0.0809194
0.0976385
-0.0789856
0.0947233
-0.0751428
0.0929408
-0.0692381
0.0918212
-0.0611408
0.0901831
-0.0512005
0.0872427
-0.0404453
0.08446
-0.029289
0.0853395
-0.0157835
0.0921742
0.00345944
0.104484
0.0287081
0.119675
0.0579838
0.135424
0.0895722
0.150592
0.123687
0.164246
0.158637
0.174151
0.184973
0.178093
0.183965
0.176839
0.138783
0.172131
0.0541974
0.165005
-0.0369634
0.156517
-0.107228
0.148392
-0.146341
0.141061
-0.162834
0.13493
-0.166116
0.130198
-0.163357
0.12559
-0.154008
0.119448
-0.142027
0.114495
-0.133845
0.115545
-0.110587
0.124865
-0.0745894
0.139048
0.00624392
0.15256
0.096186
0.161701
0.210183
0.164405
0.292746
0.162712
0.305517
0.158065
0.236229
0.155012
0.0625083
0.155648
-0.0544329
0.155541
-0.166415
0.151345
-0.180074
0.144441
-0.243047
0.142985
-0.284525
0.144138
-0.144034
0.14381
-0.0886377
0.142699
0.209827
0.257846
0.186108
-0.00362475
0.183558
-0.00684839
0.180339
-0.0108757
0.176336
-0.0159653
0.171304
-0.0219613
0.165276
-0.0286012
0.158332
-0.035685
0.150617
-0.0430106
0.142403
-0.0503032
0.134049
-0.0572392
0.125927
-0.0634856
0.118358
-0.0687321
0.111576
-0.0727133
0.105725
-0.0752125
0.100871
-0.0760655
0.0970415
-0.0751562
0.0942521
-0.0723534
0.0925545
-0.0675405
0.0919595
-0.0605457
0.0919579
-0.0511989
0.0914403
-0.0399277
0.0900308
-0.0278794
0.089358
-0.0151107
0.0922896
0.000527809
0.100228
0.02077
0.112222
0.0459892
0.126615
0.075179
0.142131
0.108171
0.157288
0.14348
0.168994
0.173267
0.174746
0.178213
0.175191
0.138339
0.171636
0.0577515
0.164041
-0.0293682
0.154632
-0.0978192
0.145894
-0.137603
0.138321
-0.15526
0.131936
-0.159731
0.127209
-0.158631
0.123361
-0.150159
0.11809
-0.136756
0.113076
-0.128831
0.113191
-0.110702
0.121565
-0.0829632
0.135671
-0.00786194
0.150059
0.0817973
0.160869
0.199373
0.165253
0.288362
0.164605
0.306165
0.160052
0.240782
0.156393
0.0661668
0.156152
-0.0541919
0.155979
-0.166242
0.151902
-0.175996
0.144603
-0.235748
0.142938
-0.28286
0.144454
-0.145551
0.144296
-0.0884794
0.143509
0.210614
0.258508
0.210302
-0.00270358
-0.211224
0.210045
-0.00659078
0.209627
-0.0104581
0.208779
-0.0151173
0.207343
-0.0205251
0.205221
-0.0264797
0.202352
-0.032816
0.198686
-0.039344
0.194223
-0.0458403
0.18903
-0.0520463
0.18322
-0.0576756
0.17693
-0.0624421
0.170305
-0.0660886
0.163491
-0.0683976
0.15662
-0.0691946
0.149817
-0.0683534
0.143189
-0.0657254
0.136831
-0.0611823
0.130895
-0.0546102
0.125437
-0.0457405
0.119965
-0.0344563
0.113703
-0.0216168
0.106931
-0.00833917
0.10118
0.00627893
0.0984069
0.0235432
0.0995133
0.0448828
0.104088
0.070604
0.111297
0.100962
0.120356
0.134421
0.131209
0.162414
0.145703
0.163719
0.163457
0.120584
0.178207
0.0430024
0.185349
-0.0365112
0.184595
-0.0970643
0.178923
-0.131932
0.170883
-0.147221
0.162133
-0.15098
0.154091
-0.150589
0.146832
-0.1429
0.138576
-0.1285
0.12986
-0.120114
0.124594
-0.105436
0.125296
-0.0836655
0.130481
-0.0130476
0.13566
0.0766191
0.139364
0.195669
0.141907
0.285819
0.14519
0.302882
0.149218
0.236754
0.152748
0.0626363
0.155931
-0.0573743
0.15619
-0.166501
0.151347
-0.171153
0.143197
-0.227598
0.138002
-0.277664
0.135933
-0.143482
0.132512
-0.0850583
0.130429
0.212696
0.25877
0.219797
-0.00205822
-0.220443
0.219113
-0.0059061
0.218507
-0.00985227
0.217539
-0.0141496
0.215994
-0.0189802
0.213808
-0.0242929
0.210927
-0.0299356
0.207315
-0.0357324
0.202969
-0.0414937
0.19793
-0.0470072
0.192288
-0.0520334
0.186168
-0.0563225
0.179718
-0.0596387
0.173093
-0.061773
0.166442
-0.0625436
0.1599
-0.0618109
0.153587
-0.0594125
0.147594
-0.055189
0.142018
-0.0490343
0.137009
-0.0407318
0.132478
-0.0299248
0.127786
-0.0169253
0.122243
-0.002796
0.116559
0.011963
0.112309
0.0277927
0.111244
0.0459483
0.114195
0.0676527
0.120914
0.0942435
0.130645
0.12469
0.143677
0.149382
0.161144
0.146251
0.180281
0.101448
0.194714
0.0285692
0.200248
-0.0420451
0.197812
-0.0946285
0.190712
-0.124831
0.181764
-0.138273
0.172407
-0.141622
0.163851
-0.142034
0.15647
-0.135519
0.148411
-0.120441
0.139553
-0.111256
0.133514
-0.0993963
0.133591
-0.0837425
0.138609
-0.018066
0.144302
0.0709266
0.148856
0.191115
0.152494
0.282181
0.156946
0.298429
0.161698
0.232002
0.165246
0.0590888
0.167859
-0.0599878
0.167569
-0.166212
0.162171
-0.165754
0.152917
-0.218344
0.147072
-0.271819
0.14481
-0.14122
0.141099
-0.081347
0.138956
0.214839
0.258887
0.228747
-0.00171941
-0.229086
0.228142
-0.00530093
0.227373
-0.0090831
0.226284
-0.0130607
0.224697
-0.0173934
0.222515
-0.0221103
0.219691
-0.0271121
0.216204
-0.032245
0.212051
-0.0373405
0.207262
-0.0422181
0.201906
-0.0466781
0.19609
-0.0505063
0.189942
-0.0534903