/*--------------------------------*- C++ -*----------------------------------*\
| =========                 |                                                 |
| \\      /  F ield         | OpenFOAM: The Open Source CFD Toolbox           |
|  \\    /   O peration     | Version:  2512                                  |
|   \\  /    A nd           | Website:  www.openfoam.com                      |
|    \\/     M anipulation  |                                                 |
\*---------------------------------------------------------------------------*/
FoamFile
{
    version     2.0;
    format      ascii;
    arch        "LSB;label=32;scalar=64";
    class       volScalarField;
    location    "150.5";
    object      p;
}
// * * * * * * * * * * * * * * * * * * * * * * * * * * * * * * * * * * * * * //

dimensions      [0 2 -2 0 0 0 0];

internalField   nonuniform List<scalar> 
13248
(
-0.402812
-0.400878
-0.399022
-0.397257
-0.395503
-0.393648
-0.391475
-0.38868
-0.384917
-0.379837
-0.373133
-0.364579
-0.354066
-0.341624
-0.327417
-0.311724
-0.294909
-0.277371
-0.259507
-0.241692
-0.224192
-0.207336
-0.190895
-0.175266
-0.411632
-0.408781
-0.405973
-0.403223
-0.400445
-0.397546
-0.394302
-0.390391
-0.385446
-0.37912
-0.371137
-0.361336
-0.349703
-0.336368
-0.321582
-0.305683
-0.289048
-0.272051
-0.25503
-0.23827
-0.221982
-0.206359
-0.191317
-0.177162
-0.421191
-0.417361
-0.413558
-0.409787
-0.405937
-0.401912
-0.397472
-0.392267
-0.385921
-0.378111
-0.368631
-0.357421
-0.344582
-0.330343
-0.315025
-0.298989
-0.28259
-0.266144
-0.249912
-0.234101
-0.218845
-0.204272
-0.1903
-0.17703
-0.431865
-0.426948
-0.422108
-0.417294
-0.412322
-0.407061
-0.401236
-0.394473
-0.386418
-0.376822
-0.365593
-0.352809
-0.338691
-0.323556
-0.307756
-0.291633
-0.275487
-0.259556
-0.244023
-0.229016
-0.214617
-0.200905
-0.187799
-0.175457
-0.443901
-0.437766
-0.431839
-0.425948
-0.419765
-0.413092
-0.405611
-0.396957
-0.386848
-0.375173
-0.362004
-0.347569
-0.332194
-0.316237
-0.300036
-0.283878
-0.267982
-0.252506
-0.237558
-0.223207
-0.209494
-0.196453
-0.184024
-0.172328
-0.45736
-0.449888
-0.442822
-0.435787
-0.428238
-0.419881
-0.410382
-0.399443
-0.386936
-0.372947
-0.357734
-0.341658
-0.325103
-0.308417
-0.291882
-0.275702
-0.260016
-0.244908
-0.230426
-0.216596
-0.203428
-0.190923
-0.179042
-0.167871
-0.472095
-0.463207
-0.45495
-0.446652
-0.437485
-0.427067
-0.415112
-0.401485
-0.386294
-0.369858
-0.352606
-0.334982
-0.317367
-0.300052
-0.283235
-0.267035
-0.251514
-0.236697
-0.222587
-0.209178
-0.196456
-0.1844
-0.172985
-0.162237
-0.487737
-0.477415
-0.467911
-0.458161
-0.44702
-0.434075
-0.4192
-0.402535
-0.384484
-0.365592
-0.346406
-0.327382
-0.308844
-0.290994
-0.273936
-0.257709
-0.242314
-0.22773
-0.213927
-0.200872
-0.188534
-0.176878
-0.165884
-0.155512
-0.503689
-0.491988
-0.481167
-0.469693
-0.456131
-0.440156
-0.421949
-0.402022
-0.381087
-0.35986
-0.338928
-0.31869
-0.299374
-0.281079
-0.263824
-0.247578
-0.232294
-0.217914
-0.204384
-0.191651
-0.179666
-0.16839
-0.157791
-0.147775
-0.519126
-0.506161
-0.493922
-0.480373
-0.463898
-0.444439
-0.422631
-0.399404
-0.375726
-0.352399
-0.329963
-0.308715
-0.288768
-0.270123
-0.252723
-0.236484
-0.22132
-0.207145
-0.193883
-0.181464
-0.169827
-0.158924
-0.148702
-0.139039
-0.533018
-0.518934
-0.505127
-0.489096
-0.469239
-0.445969
-0.420475
-0.394084
-0.367929
-0.342796
-0.319121
-0.297069
-0.27664
-0.25775
-0.240277
-0.224097
-0.209092
-0.195155
-0.182189
-0.170109
-0.158844
-0.148334
-0.138493
-0.129211
-0.544226
-0.529208
-0.513664
-0.494728
-0.471067
-0.443761
-0.41461
-0.385269
-0.356933
-0.330296
-0.305643
-0.283001
-0.262261
-0.243261
-0.225829
-0.209804
-0.195042
-0.181416
-0.168814
-0.15714
-0.146316
-0.136264
-0.126875
-0.118086
-0.345621
-0.347811
-0.349082
-0.349894
-0.350702
-0.351688
-0.352937
-0.35449
-0.356356
-0.35853
-0.361004
-0.363774
-0.366835
-0.370179
-0.373786
-0.377624
-0.381634
-0.385729
-0.38979
-0.39366
-0.397119
-0.399876
-0.401706
-0.402791
-0.342748
-0.345671
-0.347377
-0.348448
-0.349413
-0.350438
-0.351581
-0.352853
-0.354232
-0.355675
-0.357134
-0.358556
-0.359889
-0.361077
-0.362059
-0.362769
-0.363131
-0.363063
-0.362483
-0.361305
-0.359389
-0.356503
-0.352695
-0.349059
-0.341276
-0.344738
-0.346782
-0.348069
-0.34917
-0.350224
-0.351259
-0.352255
-0.353154
-0.353874
-0.35432
-0.354392
-0.353985
-0.352994
-0.351312
-0.348837
-0.345471
-0.341125
-0.335741
-0.329289
-0.321691
-0.312739
-0.302666
-0.293635
-0.341603
-0.345361
-0.347622
-0.349075
-0.350291
-0.351378
-0.352327
-0.353086
-0.353561
-0.35363
-0.353153
-0.351984
-0.349967
-0.346952
-0.34279
-0.337348
-0.330508
-0.322178
-0.312313
-0.30093
-0.288034
-0.273471
-0.257454
-0.242841
-0.343912
-0.347701
-0.350042
-0.351602
-0.352909
-0.35403
-0.354923
-0.355499
-0.355628
-0.35515
-0.353886
-0.351643
-0.348227
-0.343445
-0.337119
-0.329093
-0.319244
-0.307489
-0.293804
-0.278242
-0.260918
-0.241849
-0.221068
-0.200865
-0.348158
-0.351714
-0.353992
-0.355584
-0.356941
-0.358087
-0.358942
-0.359381
-0.35924
-0.358325
-0.356419
-0.353293
-0.348717
-0.342472
-0.334358
-0.324217
-0.311936
-0.297466
-0.280826
-0.262113
-0.241547
-0.219488
-0.196005
-0.168928
-0.354085
-0.357174
-0.359237
-0.360765
-0.362105
-0.363234
-0.364044
-0.364365
-0.364001
-0.362726
-0.360293
-0.356443
-0.350923
-0.343495
-0.333959
-0.322168
-0.308046
-0.291599
-0.272917
-0.252194
-0.229721
-0.20583
-0.180774
-0.153991
-0.361278
-0.363702
-0.365409
-0.366758
-0.367979
-0.368979
-0.369711
-0.369881
-0.36928
-0.36766
-0.364745
-0.360258
-0.35393
-0.345524
-0.334855
-0.321811
-0.306374
-0.288628
-0.268764
-0.247075
-0.223968
-0.199736
-0.175589
-0.149029
-0.36926
-0.370885
-0.372096
-0.373129
-0.374117
-0.374968
-0.375399
-0.375287
-0.37436
-0.372328
-0.368896
-0.36377
-0.356683
-0.347414
-0.335815
-0.321834
-0.30553
-0.287081
-0.266778
-0.244995
-0.222285
-0.198767
-0.176441
-0.151697
-0.377594
-0.378344
-0.378928
-0.379479
-0.380028
-0.380448
-0.380515
-0.379996
-0.378608
-0.376046
-0.372
-0.366176
-0.358322
-0.348255
-0.335884
-0.321236
-0.304462
-0.285832
-0.265721
-0.244556
-0.222932
-0.200929
-0.180424
-0.158516
-0.385985
-0.385834
-0.385679
-0.385577
-0.385502
-0.385313
-0.384794
-0.383676
-0.381655
-0.378409
-0.373624
-0.367017
-0.358367
-0.347545
-0.334537
-0.319458
-0.302545
-0.284143
-0.264674
-0.244598
-0.224421
-0.204372
-0.185523
-0.166098
-0.394349
-0.393299
-0.392311
-0.391409
-0.390531
-0.389553
-0.388257
-0.386358
-0.383532
-0.379446
-0.373784
-0.366284
-0.356773
-0.345191
-0.33161
-0.316229
-0.299358
-0.281387
-0.262737
-0.243854
-0.225129
-0.206997
-0.19012
-0.174495
-0.403157
-0.400922
-0.393683
-0.380698
-0.361593
-0.336759
-0.307823
-0.277086
-0.246642
-0.220021
-0.200244
-0.189593
-0.189488
-0.199679
-0.217261
-0.236389
-0.249416
-0.249207
-0.232352
-0.201762
-0.165502
-0.132096
-0.1066
-0.0903583
-0.0825594
-0.0817417
-0.0875647
-0.101364
-0.122339
-0.143022
-0.152294
-0.14488
-0.124611
-0.101111
-0.0823624
-0.0711651
-0.0664582
-0.0681382
-0.0784209
-0.0948926
-0.107355
-0.106264
-0.0925218
-0.0755361
-0.0615801
-0.0525112
-0.0494102
-0.0518163
-0.0553333
-0.055126
-0.050276
-0.0452674
-0.0399847
-0.0357444
-0.0346184
-0.0342816
-0.0318701
-0.0294492
-0.0199862
-0.00400165
-0.345351
-0.340394
-0.332351
-0.32076
-0.305162
-0.285675
-0.263844
-0.242121
-0.219876
-0.201983
-0.191129
-0.189413
-0.197774
-0.215089
-0.237589
-0.259102
-0.272192
-0.270375
-0.250532
-0.216075
-0.17581
-0.13878
-0.110107
-0.0909043
-0.0802035
-0.0765212
-0.0791901
-0.0891941
-0.106306
-0.124512
-0.133992
-0.128969
-0.112508
-0.0928707
-0.0776131
-0.0693663
-0.0672124
-0.0714709
-0.0845562
-0.103577
-0.11742
-0.115916
-0.100118
-0.0802763
-0.0634617
-0.0521157
-0.0468561
-0.0470498
-0.0491671
-0.0485501
-0.0452261
-0.0418033
-0.0386035
-0.0365411
-0.0370784
-0.0382659
-0.035607
-0.0328592
-0.0221643
-0.00433932
-0.285984
-0.277322
-0.267094
-0.256138
-0.24343
-0.228892
-0.212069
-0.201215
-0.186809
-0.178259
-0.176838
-0.18417
-0.200473
-0.223797
-0.249934
-0.272981
-0.286164
-0.283443
-0.261814
-0.22503
-0.182291
-0.142885
-0.111945
-0.0904115
-0.0771965
-0.070825
-0.0704606
-0.0767292
-0.0898849
-0.105422
-0.114846
-0.112124
-0.0994094
-0.0836043
-0.0718589
-0.0666026
-0.0670542
-0.073892
-0.0896206
-0.110993
-0.126188
-0.124492
-0.106926
-0.0844599
-0.0649482
-0.0514861
-0.0443016
-0.0425135
-0.0433476
-0.042233
-0.0402086
-0.0381842
-0.0370776
-0.0372731
-0.03952
-0.0421915
-0.0392269
-0.0361132
-0.0242551
-0.00467291
-0.231791
-0.218843
-0.205226
-0.194487
-0.18349
-0.173941
-0.16316
-0.156881
-0.151915
-0.152398
-0.15979
-0.175109
-0.197849
-0.22558
-0.254118
-0.278106
-0.291575
-0.288483
-0.266209
-0.228594
-0.184948
-0.14451
-0.112294
-0.0891348
-0.0739143
-0.0651937
-0.0620309
-0.0647802
-0.0740274
-0.0866819
-0.095654
-0.0949486
-0.0857509
-0.0735999
-0.0652504
-0.0628853
-0.0658479
-0.075104
-0.093222
-0.116794
-0.133362
-0.131735
-0.112779
-0.088014
-0.0660416
-0.0506567
-0.0418009
-0.0382889
-0.0379696
-0.0362645
-0.0352962
-0.0344579
-0.0354231
-0.0379301
-0.0419191
-0.0460244
-0.0426919
-0.039173
-0.0262317
-0.00499758
-0.188372
-0.17188
-0.158805
-0.143331
-0.130623
-0.128349
-0.120981
-0.118383
-0.120346
-0.127992
-0.142322
-0.163617
-0.190802
-0.221237
-0.250997
-0.275371
-0.288938
-0.28605
-0.26417
-0.227201
-0.184224
-0.144094
-0.111528
-0.0873715
-0.0706399
-0.0599807
-0.0544114
-0.0539675
-0.0594417
-0.0690508
-0.0771427
-0.0780569
-0.0719375
-0.0631149
-0.0579068
-0.0581973
-0.0634626
-0.0748797
-0.0951145
-0.120706
-0.138652
-0.137423
-0.117543
-0.0908947
-0.0667687
-0.0496731
-0.0393934
-0.0344149
-0.0330907
-0.0307233
-0.0305597
-0.0306738
-0.0336538
-0.0384979
-0.0442483
-0.0497239
-0.0459583
-0.0419982
-0.0280685
-0.0053085
-0.158192
-0.137395
-0.121881
-0.106943
-0.0965231
-0.0908877
-0.0875561
-0.08884
-0.0952746
-0.107616
-0.126332
-0.151142
-0.180632
-0.21212
-0.241999
-0.266332
-0.27976
-0.277297
-0.25658
-0.221522
-0.180643
-0.142027
-0.109973
-0.0853985
-0.0675895
-0.0553854
-0.0478221
-0.0446978
-0.0467042
-0.0531722
-0.059984
-0.062506
-0.0583315
-0.0524089
-0.0499649
-0.0525832
-0.0598783
-0.0731453
-0.0951642
-0.122521
-0.141871
-0.14145
-0.121121
-0.0930631
-0.0671497
-0.0485704
-0.0370983
-0.0308996
-0.0287374
-0.0256694
-0.026058
-0.0268807
-0.0317792
-0.0389555
-0.0464755
-0.0532456
-0.0489833
-0.0445524
-0.0297396
-0.00559948
-0.141065
-0.119119
-0.0998074
-0.0850467
-0.0739675
-0.0679325
-0.0660791
-0.0692055
-0.0778093
-0.0923433
-0.112876
-0.138831
-0.168676
-0.199779
-0.228792
-0.252066
-0.265427
-0.263518
-0.244614
-0.212521
-0.174882
-0.138746
-0.107926
-0.0834446
-0.0649335
-0.0515241
-0.0423366
-0.037018
-0.0360533
-0.0394602
-0.0445766
-0.0473178
-0.0452239
-0.0417983
-0.0416444
-0.0462012
-0.055184
-0.069906
-0.0933062
-0.12216
-0.142959
-0.143757
-0.12344
-0.0944797
-0.0671938
-0.047373
-0.0349216
-0.0277238
-0.0248956
-0.02114
-0.0218408
-0.0231285
-0.0298037
-0.0392756
-0.0485663
-0.0565453
-0.0517277
-0.0468037
-0.0312227
-0.00586324
-0.135875
-0.114535
-0.0930089
-0.0759019
-0.0636279
-0.0572445
-0.0554351
-0.0586768
-0.067482
-0.0820679
-0.102279
-0.127439
-0.156054
-0.185634
-0.213017
-0.234709
-0.247373
-0.246043
-0.229466
-0.201123
-0.167528
-0.134555
-0.105523
-0.0815756
-0.0627093
-0.0484039
-0.0379353
-0.0308685
-0.0274645
-0.0280766
-0.0312794
-0.0337057
-0.0331032
-0.0316468
-0.0332274
-0.0392645
-0.0495268
-0.0652859
-0.0896032
-0.119681
-0.141946
-0.144323
-0.124442
-0.095118
-0.0669139
-0.0461017
-0.0328698
-0.0248688
-0.0215273
-0.0171393
-0.0179459
-0.0194669
-0.0277276
-0.0394284
-0.0504844
-0.0595797
-0.0541571
-0.0487258
-0.032504
-0.00609364
-0.139052
-0.119279
-0.0967724
-0.0749619
-0.0641124
-0.0568417
-0.0539069
-0.0558351
-0.0632098
-0.0761484
-0.094393
-0.117274
-0.143402
-0.170533
-0.195834
-0.215709
-0.226961
-0.226211
-0.212349
-0.188278
-0.159186
-0.129774
-0.102915
-0.0798786
-0.0609911
-0.0460801
-0.0346392
-0.0262146
-0.0208829
-0.0190681
-0.0202787
-0.0220488
-0.0223462
-0.0222571
-0.0250003
-0.0320361
-0.0431046
-0.059375
-0.0841938
-0.115244
-0.138912
-0.14327
-0.124142
-0.0950314
-0.0664084
-0.0448391
-0.0309827
-0.0223379
-0.0186265
-0.0136609
-0.0143891
-0.0159446
-0.0255419
-0.0393834
-0.0521925
-0.0623085
-0.0562432
-0.0502982
-0.0335744
-0.00628842
-0.146585
-0.129214
-0.108893
-0.0916031
-0.0749941
-0.0647085
-0.0595213
-0.0589614
-0.0636736
-0.0737284
-0.0888071
-0.108309
-0.131
-0.154966
-0.177926
-0.195111
-0.205299
-0.205491
-0.194751
-0.175256
-0.150859
-0.125198
-0.100767
-0.0789416
-0.060313
-0.0450118
-0.032798
-0.0232779
-0.0164003
-0.0125178
-0.0117491
-0.0125394
-0.0131919
-0.0138343
-0.0171952
-0.0247436
-0.0361814
-0.0525923
-0.0774249
-0.108949
-0.133977
-0.141016
-0.122612
-0.0943425
-0.065848
-0.0437486
-0.0293393
-0.0201193
-0.0161872
-0.010758
-0.0111931
-0.0125967
-0.0232464
-0.0391112
-0.0536471
-0.064685
-0.057962
-0.0515049
-0.0344124
-0.00644275
-0.153069
-0.136793
-0.118957
-0.101968
-0.0869543
-0.0759685
-0.069057
-0.0657851
-0.0670593
-0.0733835
-0.0844896
-0.0999472
-0.11869
-0.13912
-0.161327
-0.173601
-0.183053
-0.184551
-0.177274
-0.162546
-0.142946
-0.121168
-0.0993461
-0.0789333
-0.0607604
-0.0452189
-0.032346
-0.0219151
-0.0137963
-0.00816242
-0.00550085
-0.0051723
-0.00565544
-0.00661486
-0.0101235
-0.017668
-0.0288475
-0.0447706
-0.0693733
-0.101506
-0.127437
-0.139498
-0.119605
-0.0927932
-0.0649688
-0.0426968
-0.0278368
-0.0180681
-0.0139972
-0.00838198
-0.00848857
-0.00951884
-0.0207747
-0.0385844
-0.0548352
-0.0666532
-0.0592574
-0.0523272
-0.034968
-0.00652752
-0.164609
-0.151164
-0.134438
-0.118039
-0.10281
-0.0902666
-0.0811381
-0.0757049
-0.0740116
-0.0763273
-0.0828587
-0.093254
-0.10657
-0.1213
-0.133251
-0.151257
-0.159706
-0.161985
-0.15772
-0.147196
-0.131915
-0.113799
-0.0946618
-0.0759729
-0.058735
-0.0435057
-0.0304903
-0.0196768
-0.0109432
-0.00417148
4.57291e-05
0.00141331
0.000960275
-0.00038917
-0.00397242
-0.0112784
-0.0219856
-0.0371245
-0.060768
-0.0924168
-0.118591
-0.128047
-0.113965
-0.0893463
-0.0625069
-0.0406618
-0.0258294
-0.01584
-0.0116515
-0.00595608
-0.00599536
-0.0067609
-0.0182615
-0.0377749
-0.0556482
-0.0682065
-0.0600576
-0.0527466
-0.0352056
-0.00648936
-0.1572
-0.150033
-0.136109
-0.120743
-0.106867
-0.0954638
-0.0867952
-0.0809967
-0.0782388
-0.0790855
-0.0837776
-0.0920281
-0.103059
-0.115705
-0.128882
-0.139939
-0.146738
-0.148172
-0.143721
-0.133858
-0.11988
-0.103406
-0.0859688
-0.0688151
-0.0528153
-0.038469
-0.0259728
-0.0153621
-0.0065851
0.000548113
0.00561048
0.00809208
0.00825923
0.00734671
0.0034939
-0.00296112
-0.0125175
-0.0268318
-0.0507346
-0.0845541
-0.113422
-0.126706
-0.109766
-0.0852236
-0.0587631
-0.037478
-0.023181
-0.0135114
-0.00932917
-0.00313333
-0.00151847
-0.0031407
-0.015041
-0.0365728
-0.056299
-0.0697976
-0.060669
-0.0528094
-0.0352091
-0.00636573
-0.15162
-0.146381
-0.133845
-0.119915
-0.107756
-0.0979044
-0.0902173
-0.0847657
-0.081901
-0.0820569
-0.0853635
-0.0915534
-0.0999942
-0.109728
-0.11933
-0.12731
-0.131993
-0.13221
-0.127696
-0.118864
-0.106672
-0.0923368
-0.0770377
-0.0617697
-0.0472815
-0.0340325
-0.0222486
-0.0120548
-0.0034554
0.00379705
0.00930903
0.0123385
0.0126627
0.011287
0.0084222
0.00301652
-0.00534556
-0.0185988
-0.0422244
-0.0770094
-0.10619
-0.111835
-0.102406
-0.079178
-0.0542604
-0.0342314
-0.0206327
-0.0112867
-0.00719847
-0.000999208
-1.18351e-05
-0.000536406
-0.0125666
-0.0355511
-0.0567009
-0.0707233
-0.0607082
-0.0522679
-0.0348719
-0.00627854
-0.144665
-0.140707
-0.130174
-0.118055
-0.107455
-0.0989418
-0.0922729
-0.0874196
-0.0846269
-0.0841707
-0.0861301
-0.0902879
-0.0961549
-0.102981
-0.109693
-0.115078
-0.117932
-0.117426
-0.113273
-0.105661
-0.0952008
-0.0827716
-0.0692994
-0.0556174
-0.0423961
-0.0300892
-0.0189435
-0.00911023
-0.000689207
0.0065278
0.0122488
0.0157303
0.0164476
0.0152859
0.0127177
0.00795383
0.000233641
-0.0124933
-0.0355196
-0.0691483
-0.0969708
-0.104033
-0.0941304
-0.0725605
-0.0495061
-0.03085
-0.0180369
-0.0090815
-0.00512007
0.000959001
0.000830903
0.00151183
-0.0107153
-0.0347047
-0.0567494
-0.0709959
-0.0602652
-0.0512464
-0.0342525
-0.00620916
-0.13563
-0.133918
-0.125688
-0.115369
-0.106161
-0.0988116
-0.0930575
-0.0887231
-0.0859188
-0.0848505
-0.0856047
-0.0880495
-0.0918288
-0.0963289
-0.100715
-0.104114
-0.105645
-0.104621
-0.100709
-0.0939745
-0.0848328
-0.0739407
-0.0620272
-0.0497739
-0.0377516
-0.0263778
-0.015905
-0.00648742
0.00169867
0.00878352
0.0145787
0.0184728
0.0197308
0.0190182
0.0169429
0.0128717
0.00568063
-0.00657936
-0.0283369
-0.0599328
-0.08674
-0.0948197
-0.0849855
-0.0652802
-0.0443238
-0.0272806
-0.0154003
-0.00689847
-0.00308195
0.00284113
0.00275419
0.0033596
-0.00895639
-0.0335588
-0.0562284
-0.0706268
-0.0593409
-0.049772
-0.0332972
-0.00613125
-0.126373
-0.126578
-0.120344
-0.111691
-0.103763
-0.0974303
-0.0924542
-0.088569
-0.0857934
-0.0842876
-0.0841463
-0.0852843
-0.0874086
-0.0900716
-0.0926644
-0.0945211
-0.0949508
-0.0934064
-0.0895981
-0.0835342
-0.0754864
-0.0659191
-0.0553791
-0.044409
-0.0334879
-0.0229937
-0.0131888
-0.004221
0.00369638
0.0106056
0.0163627
0.0205311
0.0223301
0.0222659
0.020955
0.0178133
0.0114618
0.000101281
-0.0200139
-0.049781
-0.0756615
-0.0841321
-0.0750229
-0.0574589
-0.0388351
-0.0235837
-0.0127525
-0.00475343
-0.0010874
0.00462924
0.00452381
0.00506502
-0.00701279
-0.0318645
-0.0550114
-0.0694633
-0.0578392
-0.0478007
-0.0319733
-0.00602729
-0.117341
-0.11866
-0.114101
-0.107019
-0.1003
-0.0948815
-0.0905963
-0.0871526
-0.0844977
-0.0827382
-0.0819568
-0.0820996
-0.0829628
-0.0842102
-0.0854026
-0.0860198
-0.0855461
-0.0835681
-0.0798396
-0.0743216
-0.0671715
-0.0587086
-0.0493411
-0.0395005
-0.0295864
-0.0199276
-0.0107861
-0.00230337
0.00530209
0.0120063
0.0176529
0.0219665
0.0242654
0.0248922
0.0245308
0.0225756
0.0174596
0.0072697
-0.0113107
-0.0392654
-0.0638397
-0.0723572
-0.064474
-0.0493064
-0.033152
-0.0198033
-0.0101161
-0.00266351
0.000851878
0.00631193
0.00614665
0.00661199
-0.00487382
-0.0295623
-0.0529241
-0.0672984
-0.0556667
-0.0453175
-0.0302609
-0.00587708
-0.108085
-0.110261
-0.107176
-0.101533
-0.0959346
-0.0913499
-0.0876952
-0.0846827
-0.0822062
-0.0803219
-0.0791004
-0.0785205
-0.078451
-0.0786421
-0.0787616
-0.0784315
-0.0772725
-0.0749653
-0.0712985
-0.0662092
-0.0597846
-0.0522441
-0.0438878
-0.0350508
-0.0260608
-0.0171945
-0.0087031
-0.000727387
0.00652412
0.0129953
0.0185012
0.0228703
0.0256069
0.0268241
0.0274264
0.0268164
0.0232016
0.0142238
-0.0029381
-0.0288468
-0.0516526
-0.0599458
-0.0536369
-0.0410538
-0.0274163
-0.0159991
-0.0075156
-0.000644156
0.00272879
0.0078926
0.00765492
0.00797756
-0.00259998
-0.0265751
-0.0497662
-0.0639616
-0.0527591
-0.0423375
-0.0281581
-0.00566117
-0.0988147
-0.101719
-0.0998463
-0.0954395
-0.0908439
-0.087015
-0.0839319
-0.0813263
-0.0790616
-0.0771568
-0.07567
-0.0746045
-0.0738707
-0.0732943
-0.0726341
-0.0716142
-0.0699517
-0.0674012
-0.0637908
-0.0590541
-0.0532344
-0.0464773
-0.0389983
-0.0310521
-0.0229059
-0.0147888
-0.00693137
0.000526323
0.00739012
0.0135956
0.0189422
0.0232933
0.0261418
0.0280534
0.0294772
0.0301151
0.0280364
0.0202999
0.00458658
-0.018976
-0.0394996
-0.0473723
-0.0428723
-0.0329598
-0.021785
-0.0122386
-0.00497125
0.00129495
0.00453951
0.00938157
0.00908698
0.00917662
-0.000189406
-0.0228019
-0.0453991
-0.0593478
-0.0490862
-0.038904
-0.0256874
-0.00536317
-0.0899412
-0.0932371
-0.0922751
-0.0889064
-0.0851945
-0.0820429
-0.079475
-0.0772511
-0.0752217
-0.0733779
-0.0717642
-0.0703965
-0.0692224
-0.0681215
-0.0669205
-0.0654177
-0.0634048
-0.0606985
-0.0571636
-0.052737
-0.0474341
-0.0413487
-0.0346344
-0.0274821
-0.020107
-0.0126973
-0.00545597
0.00148146
0.00793523
0.0138409
0.0190059
0.0233152
0.0263934
0.028656
0.0306258
0.0321555
0.0313194
0.0248274
0.0108022
-0.00992714
-0.0277451
-0.0351787
-0.0325898
-0.0252828
-0.0164146
-0.0085962
-0.00250229
0.00314967
0.00628188
0.0107945
0.0105002
0.0102892
0.00240881
-0.0182127
-0.0397971
-0.0534505
-0.044671
-0.035092
-0.0229003
-0.00497265
-0.0814383
-0.0848754
-0.0846033
-0.0821012
-0.079155
-0.0766004
-0.0744933
-0.0726242
-0.0708408
-0.069115
-0.0674795
-0.0659564
-0.0645185
-0.0630852
-0.0615339
-0.0597198
-0.0574919
-0.0547146
-0.0512832
-0.0471423
-0.0422921
-0.0367925
-0.0307519
-0.024312
-0.017643
-0.010899
-0.00425414
0.00216638
0.00819653
0.0137729
0.0187255
0.0229527
0.0261744
0.028671
0.0309234
0.0328623
0.0327608
0.0274711
0.0155221
-0.00190095
-0.0169083
-0.0239809
-0.0231979
-0.0182476
-0.01144
-0.00514801
-0.000132189
0.00491654
0.00795379
0.0121561
0.0119651
0.0114457
0.00522634
-0.0129036
-0.0330901
-0.0464106
-0.0396054
-0.0310057
-0.0198798
-0.00448783
-0.0732543
-0.0767383
-0.0769869
-0.0751864
-0.0728846
-0.0708455
-0.0691443
-0.0675994
-0.0660623
-0.0644924
-0.0629114
-0.0613432
-0.0597775
-0.058163
-0.0564148
-0.0544301
-0.0521004
-0.0493264
-0.0460291
-0.0421631
-0.0377221
-0.0327435
-0.0273038
-0.021507
-0.0154864
-0.00936731
-0.00329692
0.00261289
0.00821297
0.0134386
0.0181428
0.0222363
0.0255107
0.028137
0.0304755
0.0324367
0.0326278
0.0284559
0.0187795
0.00473981
-0.00763601
-0.0143371
-0.0150141
-0.0120102
-0.00695586
-0.00196184
0.0021097
0.00658319
0.00954201
0.0134945
0.0135454
0.0127857
0.00824815
-0.00711339
-0.0256052
-0.0385459
-0.0340566
-0.0267708
-0.0167379
-0.00391783
-0.0654996
-0.0689296
-0.0695386
-0.0682899
-0.0665208
-0.0649198
-0.0635712
-0.0623177
-0.0610187
-0.0596258
-0.0581517
-0.056619
-0.0550282
-0.0533489
-0.0515232
-0.0494789
-0.0471386
-0.0444313
-0.0412988
-0.0377061
-0.0336447
-0.0291383
-0.0242405
-0.0190282
-0.0136048
-0.00807152
-0.00255115
0.00285725
0.00802457
0.0128845
0.0173078
0.021218
0.0244574
0.0271115
0.0294008
0.031183
0.0314301
0.0282083
0.0206372
0.00964726
-0.000381123
-0.00654661
-0.00817981
-0.00663864
-0.00301067
0.000911422
0.00419316
0.00812764
0.0110111
0.0148022
0.0152564
0.0144223
0.011411
-0.0012216
-0.0178612
-0.0303388
-0.0282584
-0.0225211
-0.0136074
-0.00328477
-0.0582153
-0.0614916
-0.0623333
-0.0615149
-0.0601825
-0.0589488
-0.0579016
-0.0569055
-0.0558296
-0.0546222
-0.0532878
-0.0518463
-0.0503047
-0.0486465
-0.0468331
-0.0448141
-0.0425355
-0.0399471
-0.0370072
-0.03369
-0.0299877
-0.0259157
-0.0215124
-0.0168349
-0.0119629
-0.00697827
-0.0019822
0.0029388
0.00767394
0.0121567
0.0162753
0.0199618
0.023088
0.0256782
0.0278314
0.0293728
0.0295818
0.0270941
0.0212813
0.012848
0.00487297
-0.000571394
-0.00266824
-0.00212779
0.000386434
0.00344018
0.0060892
0.00952837
0.0123158
0.0160003
0.0170128
0.016374
0.0145731
0.00429362
-0.0104788
-0.0223551
-0.0224864
-0.0183859
-0.0106258
-0.0026235
-0.0513811
-0.054454
-0.0554368
-0.0549487
-0.0539687
-0.0530382
-0.0522445
-0.0514715
-0.0505992
-0.0495754
-0.0483984
-0.047084
-0.0456423
-0.0440661
-0.0423302
-0.0404
-0.0382375
-0.0358084
-0.0330835
-0.0300447
-0.0266862
-0.0230192
-0.0190713
-0.014886
-0.0105244
-0.00605291
-0.0015545
0.00289648
0.00720453
0.0113056
0.0151035
0.0185334
0.0214846
0.0239417
0.0259135
0.027225
0.0273782
0.0254543
0.0210532
0.0146846
0.00846021
0.0038446
0.00165199
0.00157266
0.00325225
0.00561141
0.00776922
0.0107634
0.0134252
0.0169787
0.0186084
0.0184189
0.0174217
0.00894187
-0.00401527
-0.0150899
-0.0170039
-0.0144807
-0.00791599
-0.00197675
-0.0450054
-0.0478463
-0.0488976
-0.0486562
-0.0479564
-0.0472731
-0.0466898
-0.0461071
-0.0454162
-0.0445665
-0.0435524
-0.0423855
-0.0410761
-0.0396227
-0.0380092
-0.036212
-0.0342046
-0.0319638
-0.0294699
-0.0267112
-0.023684
-0.0203974
-0.016872
-0.0131414
-0.00925315
-0.00526096
-0.00123275
0.00276814
0.00665952
0.0103813
0.0138487
0.0169998
0.0197357
0.0220171
0.0237963
0.0249191
0.0250425
0.0235772
0.0202943
0.0155522
0.0107799
0.00700286
0.00494905
0.0045346
0.00561674
0.00742755
0.00920911
0.0118032
0.0143159
0.017653
0.019782
0.0200928
0.0194855
0.0123413
0.00118378
-0.00885284
-0.012016
-0.0109022
-0.00557287
-0.00138667
-0.0390883
-0.0416781
-0.0427439
-0.0426833
-0.0422043
-0.0417203
-0.0413093
-0.0408872
-0.0403558
-0.0396649
-0.0388088
-0.037798
-0.0366396
-0.0353336
-0.0338705
-0.0322346
-0.0304075
-0.0283738
-0.0261204
-0.0236406
-0.0209327
-0.0180048
-0.0148729
-0.0115638
-0.00811459
-0.00456909
-0.000983141
0.00258945
0.00607857
0.00942984
0.012566
0.0154287
0.0179283
0.0200147
0.0216126
0.022596
0.0227296
0.0216537
0.0192499
0.0157762
0.012174
0.00917665
0.00738988
0.00684048
0.00751673
0.00890041
0.0103919
0.0126174
0.0149493
0.0179592
0.0201605
0.0209407
0.0204041
0.0143682
0.0050124
-0.00378623
-0.00766867
-0.0077261
-0.00364914
-0.000886001
-0.0336143
-0.0359498
-0.0369933
-0.0370623
-0.0367554
-0.03643
-0.0361581
-0.0358683
-0.0354735
-0.0349271
-0.034222
-0.0333657
-0.0323633
-0.0312158
-0.0299178
-0.0284588
-0.0268258
-0.0250086
-0.0229988
-0.0207932
-0.0183919
-0.0158023
-0.0130375
-0.0101192
-0.00707695
-0.0039467
-0.000774624
0.00239388
0.00549928
0.00849259
0.0113042
0.0138807
0.0161397
0.0180301
0.0194674
0.020356
0.0205325
0.019791
0.0180755
0.0155798
0.0129133
0.0106059
0.00913528
0.00857613
0.00899247
0.0100472
0.011308
0.0131884
0.0152996
0.0179026
0.0199758
0.0208516
0.0202209
0.0152022
0.00755231
8.44672e-05
-0.00406407
-0.005094
-0.00213942
-0.000488718
-0.0285719
-0.0306579
-0.0316533
-0.0318116
-0.031637
-0.0314368
-0.0312757
-0.0310938
-0.0308149
-0.0303962
-0.0298295
-0.0291207
-0.0282724
-0.0272854
-0.026157
-0.0248802
-0.0234457
-0.0218465
-0.0200775
-0.0181379
-0.0160288
-0.0137573
-0.0113344
-0.008778
-0.00611218
-0.00336663
-0.000579276
0.00221152
0.00495455
0.00760658
0.0101056
0.0124056
0.0144307
0.0161368
0.0174363
0.0182629
0.0185015
0.0180442
0.0168685
0.0151213
0.0131991
0.0114773
0.0103233
0.00982552
0.0100868
0.01089
0.011959
0.0135192
0.0153699
0.0175257
0.0192884
0.0200428
0.0192833
0.01518
0.00901416
0.00284238
-0.00122983
-0.00285373
-0.000978408
-0.000186086
-0.0239438
-0.0257902
-0.0267212
-0.0269385
-0.0268649
-0.0267626
-0.0266891
-0.0265944
-0.0264128
-0.0261043
-0.0256606
-0.025088
-0.0243867
-0.023556
-0.0225942
-0.021497
-0.020258
-0.0188722
-0.0173363
-0.0156508
-0.0138176
-0.0118436
-0.00973788
-0.00751572
-0.00519676
-0.00280545
-0.000373403
0.00206657
0.00447112
0.00680332
0.00900791
0.0110472
0.0128568
0.0143869
0.0155681
0.016354
0.0166617
0.0164412
0.0156844
0.0145122
0.0131711
0.0119317
0.0110684
0.0106669
0.0108446
0.0114569
0.0123589
0.0136274
0.0151861
0.0168989
0.0182749
0.0188153
0.017958
0.0146337
0.0096734
0.00466448
0.000881592
-0.00107602
-0.00010145
4.17022e-05
-0.0197081
-0.0213305
-0.0221889
-0.0224431
-0.0224458
-0.0224194
-0.0224144
-0.0223891
-0.0222874
-0.0220741
-0.0217405
-0.0212884
-0.020722
-0.0200381
-0.0192348
-0.0183093
-0.0172573
-0.016075
-0.0147602
-0.013314
-0.0117388
-0.0100408
-0.00822779
-0.0063127
-0.00431169
-0.00224516
-0.000139533
0.00197813
0.00407067
0.00610615
0.00803769
0.00983384
0.0114387
0.012811
0.0138916
0.0146479
0.0150198
0.0149914
0.0145584
0.0138207
0.0129317
0.0120781
0.0114676
0.0111724
0.011311
0.0117809
0.0125307
0.0135375
0.0147954
0.0161024
0.0170958
0.0174056
0.0164984
0.0138126
0.00979719
0.00576502
0.00237979
0.000275846
0.000547733
0.000214161
-0.0158455
-0.0172618
-0.0180442
-0.0183189
-0.0183785
-0.0184102
-0.0184581
-0.0184873
-0.0184506
-0.0183173
-0.0180764
-0.0177311
-0.0172867
-0.0167389
-0.0160832
-0.0153177
-0.0144401
-0.0134479
-0.0123392
-0.0111152
-0.00977835
-0.00833404
-0.00678918
-0.00515446
-0.00344335
-0.0016727
0.000135589
0.00195889
0.00376627
0.00553115
0.00721301
0.00878351
0.0101971
0.011427
0.0124192
0.0131495
0.0135741
0.0136947
0.0135074
0.013093
0.0125528
0.0120004
0.0115999
0.0114061
0.011531
0.0118945
0.0125048
0.0132834
0.014254
0.0152064
0.0158629
0.0159656
0.0150492
0.0128741
0.00959619
0.00633987
0.00339593
0.00126476
0.00101453
0.00034443
-0.0123356
-0.0135645
-0.0142711
-0.0145546
-0.0146562
-0.0147321
-0.01482
-0.0148917
-0.0149067
-0.0148394
-0.0146795
-0.0144285
-0.0140898
-0.0136627
-0.0131412
-0.0125223
-0.0118045
-0.0109863
-0.0100665
-0.00904594
-0.00792668
-0.00671343
-0.00541208
-0.0040315
-0.00258273
-0.00107976
0.00045954
0.00201654
0.00356526
0.00508409
0.00653941
0.00790613
0.0091455
0.0102441
0.0111505
0.0118537
0.012315
0.0125458
0.0125417
0.0123629
0.0120673
0.0117564
0.011528
0.011425
0.0115476
0.0118312
0.0123153
0.0128997
0.0136118
0.0142672
0.0146477
0.0145835
0.0136843
0.0119096
0.00921377
0.00654235
0.00395035
0.00196009
0.00133789
0.000440743
-0.00915655
-0.0102173
-0.0108512
-0.0111356
-0.0112677
-0.0113769
-0.011495
-0.0115992
-0.0116557
-0.0116429
-0.011552
-0.0113813
-0.011133
-0.010811
-0.0104095
-0.00992288
-0.00934907
-0.00868765
-0.00793811
-0.0071011
-0.00617815
-0.00517308
-0.00409082
-0.00293859
-0.00172548
-0.00046276
0.000834947
0.00215228
0.00346842
0.00476503
0.0060145
0.0071986
0.00828306
0.00925242
0.0100749
0.0107466
0.0112302
0.0115371
0.0116633
0.011654
0.0115427
0.0114033
0.0113063
0.0112777
0.0114014
0.0116243
0.0119964
0.0124186
0.0129112
0.013327
0.0134915
0.0133032
0.0124375
0.010969
0.00874325
0.00652043
0.00433062
0.00243695
0.00155124
0.000508791
-0.00628789
-0.00719946
-0.00776544
-0.00804551
-0.0081995
-0.00833335
-0.00847386
-0.00860248
-0.00869163
-0.00872275
-0.00868854
-0.00858767
-0.00842085
-0.00818732
-0.00788807
-0.00751755
-0.00707178
-0.00654986
-0.00595173
-0.00527807
-0.00453
-0.00371044
-0.00282335
-0.00187455
-0.000871325
0.000177293
0.00125952
0.00236304
0.00347092
0.00456841
0.00563353
0.00665117
0.00759442
0.00845027
0.00919435
0.00981818
0.0103045
0.0106574
0.0108711
0.010979
0.0109992
0.0109815
0.0109796
0.0110069
0.0111302
0.0113058
0.0115816
0.0118714
0.0121849
0.0124145
0.0124153
0.0121404
0.0113189
0.0100794
0.00823712
0.00635817
0.00448916
0.00273493
0.00167994
0.000554683
-0.00370995
-0.00449049
-0.00499418
-0.00526656
-0.00543581
-0.00558774
-0.00574448
-0.0058912
-0.0060055
-0.00607205
-0.0060844
-0.00604136
-0.00594252
-0.00578759
-0.0055752
-0.00530431
-0.00497033
-0.00457099
-0.00410599
-0.00357592
-0.00298176
-0.00232569
-0.00161074
-0.00084143
-2.35577e-05
0.000835794
0.00172731
0.0026412