/*--------------------------------*- C++ -*----------------------------------*\
| =========                 |                                                 |
| \\      /  F ield         | OpenFOAM: The Open Source CFD Toolbox           |
|  \\    /   O peration     | Version:  2512                                  |
|   \\  /    A nd           | Website:  www.openfoam.com                      |
|    \\/     M anipulation  |                                                 |
\*---------------------------------------------------------------------------*/
FoamFile
{
    version     2.0;
    format      ascii;
    arch        "LSB;label=32;scalar=64";
    class       volScalarField;
    location    "191";
    object      p;
}
// * * * * * * * * * * * * * * * * * * * * * * * * * * * * * * * * * * * * * //

dimensions      [0 2 -2 0 0 0 0];

internalField   nonuniform List<scalar> 
13248
(
-0.430949
-0.428416
-0.424843
-0.420571
-0.416064
-0.411827
-0.408279
-0.405701
-0.404201
-0.403693
-0.403903
-0.404398
-0.404642
-0.40406
-0.402115
-0.398374
-0.392556
-0.38455
-0.374388
-0.362241
-0.348175
-0.332522
-0.314122
-0.293986
-0.439965
-0.436775
-0.432654
-0.427931
-0.423014
-0.418346
-0.414262
-0.410929
-0.408334
-0.406284
-0.404433
-0.402339
-0.399534
-0.395592
-0.390191
-0.383142
-0.374397
-0.364021
-0.352152
-0.338947
-0.324535
-0.309044
-0.292272
-0.275117
-0.451362
-0.447203
-0.442356
-0.437085
-0.43168
-0.426482
-0.421692
-0.417334
-0.413266
-0.40922
-0.404852
-0.399808
-0.393788
-0.386589
-0.378121
-0.368402
-0.357526
-0.345626
-0.332839
-0.319296
-0.305068
-0.290299
-0.274833
-0.259284
-0.465048
-0.459663
-0.453926
-0.447986
-0.441948
-0.436003
-0.430189
-0.424376
-0.418334
-0.411799
-0.404528
-0.396354
-0.3872
-0.377082
-0.366087
-0.35434
-0.341975
-0.329112
-0.315846
-0.302255
-0.288402
-0.27438
-0.260132
-0.246233
-0.480859
-0.474063
-0.467304
-0.460557
-0.453671
-0.446646
-0.439349
-0.431541
-0.42299
-0.413548
-0.403171
-0.391921
-0.379929
-0.367364
-0.354393
-0.341158
-0.327766
-0.314287
-0.300768
-0.287243
-0.27374
-0.260303
-0.246907
-0.23389
-0.498609
-0.490268
-0.482389
-0.474675
-0.466639
-0.458071
-0.448704
-0.438292
-0.426733
-0.414098
-0.400591
-0.386479
-0.372032
-0.357474
-0.342972
-0.328626
-0.314489
-0.300581
-0.286903
-0.273454
-0.260237
-0.24726
-0.234517
-0.222211
-0.517924
-0.508024
-0.498959
-0.49007
-0.480472
-0.469763
-0.457657
-0.444053
-0.429106
-0.413169
-0.396672
-0.380014
-0.363504
-0.347348
-0.331654
-0.316461
-0.301767
-0.287545
-0.273764
-0.260395
-0.247416
-0.234807
-0.222567
-0.210758
-0.53835
-0.526919
-0.516598
-0.506244
-0.494547
-0.481009
-0.4655
-0.448229
-0.429698
-0.410531
-0.391303
-0.372447
-0.354233
-0.336791
-0.320156
-0.304302
-0.289179
-0.274726
-0.260883
-0.247601
-0.234836
-0.222557
-0.210752
-0.199378
-0.559171
-0.546308
-0.534632
-0.522425
-0.507999
-0.490938
-0.471478
-0.450272
-0.428175
-0.406005
-0.38438
-0.363675
-0.344069
-0.325599
-0.308223
-0.29186
-0.276419
-0.261813
-0.247959
-0.234788
-0.222241
-0.210276
-0.198862
-0.187877
-0.579427
-0.565279
-0.552101
-0.537561
-0.519751
-0.498585
-0.47485
-0.449691
-0.424249
-0.39942
-0.375762
-0.353541
-0.332817
-0.313536
-0.29559
-0.278851
-0.263198
-0.248518
-0.23471
-0.221689
-0.209382
-0.197735
-0.186688
-0.176089
-0.597938
-0.582668
-0.567775
-0.550369
-0.528584
-0.502922
-0.474838
-0.445925
-0.417492
-0.390395
-0.365067
-0.341632
-0.320039
-0.300148
-0.281796
-0.264819
-0.249067
-0.234407
-0.220722
-0.207911
-0.19589
-0.18459
-0.173909
-0.163718
-0.613418
-0.597215
-0.580367
-0.559562
-0.533299
-0.502902
-0.470543
-0.438166
-0.407122
-0.378144
-0.351492
-0.327142
-0.304931
-0.284647
-0.266078
-0.249026
-0.233318
-0.218801
-0.205345
-0.192836
-0.181185
-0.170304
-0.160061
-0.150398
-0.365526
-0.366686
-0.367426
-0.368124
-0.369174
-0.370768
-0.372988
-0.375859
-0.379371
-0.383502
-0.388216
-0.393467
-0.399183
-0.405256
-0.411538
-0.417828
-0.423875
-0.429377
-0.434027
-0.437562
-0.438576
-0.437614
-0.434195
-0.428047
-0.376073
-0.37633
-0.376606
-0.377138
-0.37822
-0.380049
-0.382725
-0.386285
-0.390732
-0.396053
-0.402224
-0.409209
-0.416946
-0.425302
-0.434119
-0.443163
-0.452126
-0.460625
-0.468227
-0.474477
-0.477855
-0.47867
-0.476227
-0.469944
-0.385837
-0.385178
-0.38494
-0.385216
-0.386201
-0.388096
-0.39102
-0.395023
-0.400115
-0.406287
-0.413515
-0.42175
-0.431022
-0.441018
-0.45165
-0.462638
-0.473608
-0.484089
-0.4935
-0.501151
-0.506176
-0.50792
-0.505565
-0.498364
-0.394302
-0.392802
-0.392027
-0.39195
-0.392676
-0.394419
-0.397319
-0.401442
-0.406809
-0.413411
-0.421225
-0.430199
-0.440253
-0.451218
-0.462884
-0.474943
-0.486975
-0.498444
-0.508693
-0.516953
-0.522366
-0.524024
-0.521158
-0.512256
-0.401165
-0.398986
-0.397692
-0.397169
-0.397464
-0.398808
-0.401377
-0.405261
-0.410493
-0.417072
-0.424964
-0.434103
-0.444381
-0.455625
-0.467588
-0.47993
-0.492197
-0.503764
-0.513968
-0.521964
-0.526856
-0.527555
-0.523696
-0.512633
-0.406356
-0.403723
-0.401968
-0.400931
-0.400639
-0.401354
-0.403297
-0.406596
-0.411311
-0.417448
-0.424972
-0.433801
-0.443804
-0.454785
-0.466464
-0.478453
-0.490246
-0.501261
-0.510692
-0.517648
-0.521269
-0.520251
-0.514857
-0.501322
-0.41004
-0.407208
-0.405078
-0.403495
-0.402505
-0.402415
-0.4035
-0.405939
-0.409831
-0.415203
-0.422024
-0.430202
-0.439569
-0.449911
-0.460894
-0.472103
-0.482974
-0.492814
-0.500812
-0.506018
-0.507661
-0.504309
-0.496804
-0.480779
-0.412597
-0.409802
-0.407394
-0.405268
-0.403529
-0.40254
-0.402635
-0.404054
-0.406943
-0.411359
-0.417287
-0.424642
-0.433117
-0.44256
-0.452577
-0.462635
-0.4721
-0.480209
-0.486127
-0.488899
-0.487895
-0.4818
-0.471778
-0.45363
-0.41459
-0.411997
-0.409387
-0.406747
-0.404275
-0.40239
-0.401485
-0.401859
-0.403705
-0.407106
-0.412033
-0.418344
-0.425928
-0.434307
-0.443027
-0.451491
-0.458984
-0.464706
-0.467854
-0.467608
-0.46354
-0.454702
-0.442296
-0.42279
-0.416709
-0.41437
-0.411597
-0.408489
-0.405352
-0.402659
-0.400854
-0.400282
-0.401171
-0.403617
-0.407586
-0.412902
-0.419268
-0.426215
-0.433161
-0.439417
-0.444232
-0.446856
-0.446631
-0.443041
-0.435947
-0.424938
-0.411112
-0.391451
-0.419706
-0.41754
-0.414582
-0.411051
-0.407348
-0.403987
-0.401441
-0.400075
-0.400124
-0.401663
-0.404606
-0.408701
-0.413536
-0.418558
-0.423106
-0.426467
-0.427946
-0.42695
-0.423054
-0.416109
-0.406251
-0.393732
-0.379611
-0.361396
-0.424282
-0.422077
-0.41886
-0.414935
-0.410765
-0.406881
-0.403751
-0.401728
-0.401004
-0.401596
-0.403333
-0.405865
-0.40869
-0.411196
-0.412727
-0.412653
-0.410446
-0.405745
-0.39837
-0.388407
-0.376011
-0.361823
-0.34647
-0.330019
-0.417952
-0.400337
-0.377668
-0.350863
-0.321656
-0.292495
-0.26611
-0.245042
-0.231392
-0.226501
-0.229917
-0.239142
-0.249485
-0.255185
-0.251343
-0.234846
-0.207064
-0.173621
-0.141664
-0.11654
-0.100523
-0.0933783
-0.0937853
-0.10132
-0.117301
-0.14156
-0.167634
-0.183351
-0.179153
-0.157855
-0.128673
-0.101463
-0.0816383
-0.0701041
-0.0652241
-0.0669006
-0.0769258
-0.0928282
-0.10506
-0.104039
-0.0913026
-0.0754417
-0.0627121
-0.055107
-0.053122
-0.0582864
-0.066739
-0.0698243
-0.0641939
-0.055869
-0.0462515
-0.0401438
-0.0354861
-0.0332861
-0.0328145
-0.0313608
-0.0256834
-0.0197204
-0.0109595
-0.00265367
-0.459948
-0.439111
-0.411893
-0.37936
-0.343246
-0.306174
-0.271022
-0.240513
-0.217156
-0.202576
-0.197523
-0.200355
-0.207143
-0.212428
-0.210734
-0.198745
-0.177391
-0.150957
-0.125515
-0.105958
-0.0946013
-0.0913707
-0.0951978
-0.106191
-0.126019
-0.154093
-0.182969
-0.199406
-0.193528
-0.168852
-0.136061
-0.105705
-0.0831473
-0.069181
-0.0620583
-0.0613042
-0.0684421
-0.0817249
-0.0926096
-0.0921823
-0.0819147
-0.0691272
-0.059479
-0.0544305
-0.0550855
-0.0628076
-0.0735926
-0.0775037
-0.0705205
-0.0601185
-0.0481139
-0.0402791
-0.0335396
-0.0298836
-0.0284826
-0.0268973
-0.0224847
-0.0175114
-0.0105836
-0.00310311
-0.487989
-0.465085
-0.433937
-0.396632
-0.354898
-0.311319
-0.26887
-0.230579
-0.199048
-0.176217
-0.16293
-0.158876
-0.161277
-0.165358
-0.165807
-0.158279
-0.143777
-0.124659
-0.106053
-0.092394
-0.0859434
-0.0867017
-0.0938992
-0.108137
-0.131317
-0.162535
-0.193715
-0.211033
-0.204206
-0.177104
-0.141502
-0.108594
-0.0837558
-0.0676615
-0.0585082
-0.0554911
-0.059816
-0.0704673
-0.0800109
-0.0800837
-0.0722395
-0.0624007
-0.0557503
-0.0532677
-0.0566386
-0.0669681
-0.0801001
-0.0848838
-0.0765586
-0.0640562
-0.0497105
-0.0402582
-0.0316454
-0.0266152
-0.0242337
-0.0224434
-0.0192469
-0.0152581
-0.0102025
-0.00356921
-0.5011
-0.477073
-0.443687
-0.403191
-0.357471
-0.309203
-0.261521
-0.217436
-0.179547
-0.149873
-0.129549
-0.118697
-0.115925
-0.117723
-0.119361
-0.115678
-0.108022
-0.09595
-0.0840438
-0.0762176
-0.0745342
-0.0790144
-0.0892134
-0.10617
-0.132053
-0.16585
-0.199115
-0.217715
-0.210842
-0.182345
-0.144834
-0.110087
-0.0835266
-0.0657018
-0.0547915
-0.049749
-0.0514449
-0.0595281
-0.0677271
-0.0692692
-0.0625516
-0.0554091
-0.0515878
-0.0515841
-0.0576379
-0.0705439
-0.0860225
-0.0917531
-0.0821922
-0.0676235
-0.0510196
-0.0400743
-0.0298085
-0.0235027
-0.0201175
-0.0180439
-0.0160029
-0.01298
-0.00981868
-0.00405101
-0.5001
-0.475144
-0.441527
-0.40038
-0.353129
-0.30266
-0.25219
-0.204568
-0.162253
-0.127234
-0.100876
-0.0837202
-0.0752834
-0.0735328
-0.0751551
-0.0764219
-0.072165
-0.0661317
-0.060324
-0.0578333
-0.0603746
-0.0680605
-0.0807509
-0.0998603
-0.127841
-0.163734
-0.198964
-0.21915
-0.213168
-0.18448
-0.146097
-0.110299
-0.0825846
-0.0634523
-0.0510979
-0.0443262
-0.0436301
-0.0492563
-0.0560276
-0.0577211
-0.0529941
-0.0482888
-0.0470361
-0.0493312
-0.0579474
-0.0733339
-0.0911088
-0.0978787
-0.0872866
-0.070768
-0.052031
-0.0397274
-0.0280273
-0.0205614
-0.0161799
-0.0137434
-0.0127854
-0.010696
-0.00943264
-0.00454602
-0.486409
-0.460749
-0.428974
-0.389802
-0.343701
-0.293782
-0.243249
-0.194645
-0.15016
-0.111625
-0.0804325
-0.0574983
-0.0431099
-0.0364678
-0.0355395
-0.0371469
-0.0372095
-0.0363846
-0.0357478
-0.0377274
-0.0437487
-0.0540386
-0.0687084
-0.0894572
-0.118949
-0.156413
-0.193448
-0.215403
-0.211175
-0.1835
-0.145362
-0.109349
-0.0810503
-0.0610276
-0.0475505
-0.0393601
-0.0365937
-0.0399273
-0.04525
-0.0469093
-0.0438201
-0.0411798
-0.0421482
-0.0464921
-0.0574704
-0.0751649
-0.0951233
-0.103041
-0.0917182
-0.0734457
-0.0527389
-0.0392162
-0.0262903
-0.0177992
-0.0124622
-0.0095807
-0.0096229
-0.00842263
-0.00904192
-0.00505062
-0.462854
-0.436703
-0.408291
-0.373137
-0.330488
-0.283627
-0.235575
-0.188426
-0.144054
-0.104095
-0.0698164
-0.0422114
-0.0220652
-0.00962613
-0.00417054
-0.00382951
-0.00569024
-0.00790498
-0.0111198
-0.0165179
-0.0252248
-0.0375049
-0.0536734
-0.0756163
-0.10611
-0.144617
-0.183066
-0.207039
-0.205222
-0.179576
-0.142769
-0.107368
-0.079035
-0.0585123
-0.0442205
-0.0349124
-0.0304195
-0.0316925
-0.0356173
-0.0371152
-0.0352444
-0.0342266
-0.0370159
-0.0430931
-0.056145
-0.0758983
-0.0979021
-0.107062
-0.0953668
-0.0756138
-0.0531383
-0.038544
-0.0245813
-0.0152127
-0.0089965
-0.00558661
-0.0065396
-0.00617466
-0.0086418
-0.00556131
-0.432718
-0.406687
-0.382628
-0.352597
-0.314876
-0.272868
-0.229167
-0.185345
-0.142972
-0.103486
-0.068014
-0.0374788
-0.0127503
0.00538561
0.0165424
0.0211908
0.0210087
0.0179334
0.012678
0.00507252
-0.00549131
-0.0191981
-0.0364876
-0.0593134
-0.0904172
-0.129445
-0.1689
-0.194908
-0.195854
-0.172999
-0.138468
-0.104454
-0.0766108
-0.055954
-0.0411422
-0.0310054
-0.0251267
-0.0246041
-0.0272245
-0.0284804
-0.0274557
-0.0275884
-0.0317525
-0.0391972
-0.053967
-0.0754482
-0.0993567
-0.109806
-0.0981416
-0.0772431
-0.0532323
-0.0377223
-0.0229026
-0.0127995
-0.00580052
-0.00178229
-0.00355572
-0.00396475
-0.00822692
-0.00607546
-0.399641
-0.374955
-0.355585
-0.330662
-0.298366
-0.262093
-0.223683
-0.184191
-0.144988
-0.107354
-0.072286
-0.0406141
-0.0131389
0.00931441
0.0259152
0.0360742
0.0401063
0.0390952
0.034144
0.0259216
0.0145035
-4.66736e-05
-0.0181392
-0.0416481
-0.0731342
-0.112297
-0.15227
-0.179894
-0.183646
-0.164194
-0.132757
-0.100833
-0.0739678
-0.0535065
-0.0384354
-0.0277189
-0.0207623
-0.0187019
-0.020104
-0.0210537
-0.0205756
-0.0214072
-0.0264979
-0.0348807
-0.050933
-0.073811
-0.0994588
-0.111191
-0.100002
-0.0783485
-0.0530662
-0.0367832
-0.0212831
-0.0105898
-0.00290202
0.00182229
-0.000687778
-0.00180353
-0.00779257
-0.00659084
-0.367633
-0.345846
-0.330646
-0.309811
-0.282588
-0.252045
-0.218992
-0.184028
-0.148387
-0.113258
-0.079585
-0.0480654
-0.0195093
0.0053074
0.0257131
0.0408146
0.0499906
0.0534822
0.0510487
0.044212
0.0332197
0.0185251
1.22081e-05
-0.0238928
-0.0553803
-0.0941546
-0.134128
-0.16289
-0.169235
-0.153832
-0.126241
-0.0970426
-0.0715821
-0.0515557
-0.0363839
-0.0252415
-0.0174124
-0.0140072
-0.0142851
-0.0148754
-0.0146814
-0.0157952
-0.0213467
-0.0302799
-0.0471953
-0.0710253
-0.098196
-0.111181
-0.10093
-0.0789582
-0.0527257
-0.0357778
-0.0197263
-0.00861359
-0.000380834
0.00521167
0.00205234
0.000299554
-0.00733356
-0.00710465
-0.339915
-0.322764
-0.310586
-0.292495
-0.269722
-0.244461
-0.21643
-0.18587
-0.153847
-0.121487
-0.0896207
-0.0588329
-0.0298874
-0.00357773
0.0193181
0.0379359
0.0515945
0.0604302
0.0613367
0.0578687
0.049031
0.0353104
0.0169887
-0.00696085
-0.0383126
-0.0766562
-0.115849
-0.14436
-0.153377
-0.14196
-0.118789
-0.0929245
-0.0692915
-0.0499238
-0.0347689
-0.0233508
-0.0148321
-0.0102336
-0.00948988
-0.00981484
-0.00985358
-0.0109969
-0.0165078
-0.0253847
-0.0426318
-0.0672512
-0.09582
-0.109718
-0.100758
-0.0788891
-0.0521086
-0.0346523
-0.0180957
-0.00675504
0.00177155
0.00834536
0.00464371
0.00234192
-0.00684479
-0.00761422
-0.315536
-0.305215
-0.2941
-0.277084
-0.257709
-0.236801
-0.21331
-0.187136
-0.158966
-0.129666
-0.100059
-0.0708675
-0.0428257
-0.016679
0.00693615
0.0273546
0.0440811
0.0557664
0.0636106
0.0642198
0.0588079
0.0475268
0.0307066
0.00793851
-0.0220148
-0.0584075
-0.0955809
-0.122669
-0.133077
-0.126009
-0.107726
-0.0856461
-0.0644043
-0.0463086
-0.0317015
-0.0205248
-0.0118364
-0.00649154
-0.00489817
-0.00507055
-0.00554428
-0.00674973
-0.012169
-0.0207907
-0.0378195
-0.0625231
-0.0919863
-0.10688
-0.0990927
-0.0776677
-0.0506463
-0.0330609
-0.0161031
-0.00475411
0.00395613
0.0113599
0.00707499
0.00429574
-0.00631807
-0.00812767
-0.287175
-0.291016
-0.278387
-0.259774
-0.240592
-0.220841
-0.199154
-0.175067
-0.149054
-0.12192
-0.094415
-0.0671703
-0.0407986
-0.0159162
0.00693002
0.0272122
0.044224
0.0570052
0.0655359
0.0687317
0.0660775
0.0569579
0.0414695
0.0193506
-0.0107896
-0.0483134
-0.086271
-0.113602
-0.122063
-0.113947
-0.0966094
-0.0763621
-0.0570593
-0.0405473
-0.0270246
-0.0165423
-0.00817417
-0.00269452
-0.00054221
-0.000360253
-0.000697204
-0.00109319
-0.00614025
-0.0142125
-0.0313447
-0.057062
-0.088624
-0.105588
-0.0984083
-0.0760868
-0.0484176
-0.0309914
-0.0139266
-0.00276331
0.00640586
0.014529
0.00950915
0.0062483
-0.00573439
-0.00867576
-0.259091
-0.26674
-0.255555
-0.237118
-0.218608
-0.200547
-0.181276
-0.1599
-0.13668
-0.112351
-0.0876009
-0.0629724
-0.0389742
-0.0161434
0.00499725
0.0240086
0.040363
0.0531116
0.0621346
0.0664462
0.0652148
0.0576852
0.0437187
0.0229468
-0.00587046
-0.0413988
-0.0760398
-0.0988854
-0.10561
-0.098208
-0.083325
-0.0661331
-0.0495329
-0.0349858
-0.0227406
-0.0130782
-0.00517077
0.000283316
0.00272796
0.00301195
0.00261141
0.0022298
-0.00199988
-0.00930672
-0.0260476
-0.0521162
-0.0845315
-0.102369
-0.0951311
-0.0730941
-0.0456495
-0.0285485
-0.0116539
-0.000898158
0.0085424
0.0168592
0.0115255
0.00790898
-0.00515085
-0.00908393
-0.23402
-0.241839
-0.232848
-0.216218
-0.19915
-0.182831
-0.165781
-0.146907
-0.126257
-0.104469
-0.0821907
-0.0599188
-0.0380996
-0.0172057
0.00228791
0.0199757
0.0354041
0.0476919
0.0564201
0.0608698
0.0601862
0.0535955
0.0408658
0.0217339
-0.00430436
-0.0351009
-0.0638497
-0.0826978
-0.0883568
-0.0826848
-0.0708069
-0.0566483
-0.0425184
-0.0297579
-0.0186862
-0.00977959
-0.00236086
0.00296431
0.00561703
0.00603839
0.00563302
0.00525247
0.00133191
-0.00566385
-0.0221074
-0.0477643
-0.0792774
-0.0972519
-0.0905107
-0.0693063
-0.0425165
-0.0258669
-0.00931688
0.00100123
0.0105454
0.0188983
0.0133306
0.00937854
-0.00449696
-0.00935228
-0.210909
-0.218249
-0.211277
-0.196867
-0.181457
-0.166689
-0.15151
-0.13484
-0.116551
-0.0971465
-0.0772126
-0.0572084
-0.0375202
-0.0185501
-0.000719398
0.015566
0.0297798
0.0413034
0.0496004
0.0540465
0.0538455
0.0482789
0.0371148
0.0203462
-0.00182613
-0.0272456
-0.0507649
-0.0664757
-0.0716891
-0.0680028
-0.0589343
-0.0475314
-0.0357007
-0.0246702
-0.0147717
-0.00662565
0.000263299
0.00538185
0.00818042
0.00882707
0.00851032
0.00824578
0.00456605
-0.00223389
-0.0182148
-0.0427201
-0.0727599
-0.090863
-0.0848197
-0.0646997
-0.0389774
-0.0229557
-0.00688949
0.00293688
0.0123705
0.0207658
0.0150088
0.0107605
-0.00372517
-0.00948902
-0.189255
-0.196397
-0.191022
-0.178658
-0.164957
-0.151713
-0.138253
-0.123606
-0.107529
-0.0903791
-0.0726678
-0.0548169
-0.0371702
-0.0200782
-0.00392627
0.0108831
0.0238672
0.0345274
0.0423442
0.0467584
0.0470938
0.0427575
0.0335598
0.0196489
0.00149713
-0.0190819
-0.0381744
-0.0513278
-0.0564431
-0.0545406
-0.0479811
-0.039046
-0.0292851
-0.0198507
-0.0110754
-0.00366125
0.0026948
0.00755259
0.0104285
0.0113327
0.0111793
0.0111115
0.00779957
0.0014247
-0.0136221
-0.0366306
-0.0651971
-0.0831761
-0.0779524
-0.0592529
-0.0350451
-0.0198438
-0.00440146
0.0048975
0.0139932
0.0224202
0.0165568
0.0120899
-0.00282521
-0.00947949
-0.16961
-0.176345
-0.172122
-0.161559
-0.149554
-0.137844
-0.126004
-0.113209
-0.0991646
-0.0841117
-0.0684814
-0.0526578
-0.0369546
-0.021681
-0.00717956
0.00617843
0.0179687
0.0277488
0.0350554
0.0394081
0.0402674
0.037173
0.0299698
0.0188541
0.00438567
-0.0119252
-0.0271757
-0.0381825
-0.0432068
-0.0427111
-0.0381926
-0.0313195
-0.0233408
-0.0153376
-0.00762431
-0.000912762
0.00492559
0.00948756
0.0123733
0.0135397
0.0136464
0.0138402
0.0110154
0.00533459
-0.00841963
-0.0297912
-0.0566593
-0.0742055
-0.0699687
-0.0530341
-0.0307546
-0.0165692
-0.00188662
0.00687057
0.0153989
0.0238077
0.0179393
0.0133462
-0.00178921
-0.00928976
-0.151811
-0.157874
-0.154565
-0.145623
-0.135234
-0.125007
-0.114683
-0.103572
-0.0913772
-0.078255
-0.0645608
-0.0506368
-0.0367677
-0.0232239
-0.010304
0.00165852
0.0122888
0.0211957
0.0279764
0.0322292
0.0335322
0.0315403
0.0261405
0.0175462
0.00632561
-0.0063087
-0.0182923
-0.027454
-0.0322041
-0.032629
-0.0296302
-0.0244079
-0.0179296
-0.0111802
-0.00445082
0.00159242
0.00694422
0.0111998
0.0140424
0.0154613
0.0159119
0.0164393
0.0141876
0.00934763
-0.00291419
-0.0223965
-0.0472566
-0.06416
-0.0610443
-0.0461624
-0.0261636
-0.0131782
0.000615233
0.00884128
0.0165872
0.0248934
0.0191301
0.0145144
-0.000587553
-0.00887723
-0.135347
-0.140886
-0.138388
-0.130882
-0.121968
-0.113122
-0.104195
-0.0946146
-0.0840958
-0.0727383
-0.0608305
-0.0486701
-0.0365114
-0.0245922
-0.0131706
-0.00253805
0.00697908
0.0150373
0.0212926
0.0254125
0.0270706
0.0260169
0.0221826
0.0157715
0.00728369
-0.00232301
-0.0114844
-0.0190372
-0.0233092
-0.0242238
-0.0222832
-0.0183342
-0.0130891
-0.00741273
-0.00157441
0.00383775
0.00873942
0.0127027
0.015467
0.0171143
0.017956
0.0189075
0.0172964
0.0133806
0.00279346
-0.0145762
-0.0372719
-0.0533661
-0.0514365
-0.0388143
-0.0213566
-0.00972366
0.00306248
0.0107922
0.0175836
0.0256687
0.0201344
0.0156108
0.000819753
-0.00819306
-0.120283
-0.125402
-0.123564
-0.117291
-0.109695
-0.102111
-0.0944614
-0.0862649
-0.0772585
-0.0675016
-0.0572261
-0.0466868
-0.036108
-0.0256993
-0.0156837
-0.00630742
0.00216197
0.00941538
0.0151604
0.0191258
0.0210611
0.0207858
0.0182611
0.01366
0.00738916
0.000229165
-0.0063345
-0.012644
-0.016282
-0.0173483
-0.0160894
-0.0130852
-0.00883243
-0.00405752
0.000992394
0.00581562
0.0102988
0.0140015
0.0166754
0.0185207
0.0197492
0.0212101
0.020353
0.017484
0.00867656
-0.00661394
-0.0271446
-0.0422546
-0.0414782
-0.0312174
-0.016443
-0.00626249
0.00541531
0.012701
0.0184511
0.026165
0.0209992
0.0166751
0.00246848
-0.00718599
-0.106708
-0.111314
-0.109976
-0.104772
-0.0983548
-0.0919116
-0.0854155
-0.0784624
-0.0708121
-0.0624954
-0.053698
-0.0446349
-0.0355012
-0.0264801
-0.0177674
-0.00957958
-0.00206927
0.00443493
0.00969181
0.0134834
0.015618
0.0159654
0.0145021
0.0113678
0.00687287
0.00152926
-0.00416622
-0.00808629
-0.0108553
-0.0118199
-0.0109544
-0.00862452
-0.00515384
-0.00112466
0.00324261
0.00752656
0.0116151
0.0150902
0.0176856
0.0197024
0.0212671
0.0232739
0.0233451
0.02167
0.0145594
0.00103631
-0.0174029
-0.0313183
-0.031564
-0.0236382
-0.0115519
-0.00285456
0.00763952
0.0145388
0.0192921
0.0264609
0.0218139
0.0177601
0.0043805
-0.00581704
-0.0943484
-0.0984548
-0.0975389
-0.0932725
-0.087901
-0.0824753
-0.0770074
-0.0711601
-0.0647159
-0.0576837
-0.0502107
-0.0424768
-0.0346485
-0.0268842
-0.019364
-0.0123365
-0.00563762
0.000167859
0.00495064
0.00854693
0.0108076
0.0116379
0.0110237
0.00907402
0.00603346
0.0022936
-0.00162037
-0.00464292
-0.00669734
-0.00743885
-0.0067674
-0.00489971
-0.00203215
0.00138867
0.0051744
0.00897584
0.012691
0.0159585
0.0184981
0.0206623
0.0224985
0.0250031
0.026073
0.0256304
0.0199905
0.00785855
-0.00851206
-0.0210137
-0.0221024
-0.0163588
-0.00682503
0.000437282
0.00970803
0.0162692
0.0202316
0.0266712
0.0227017
0.0189217
0.00654419
-0.00408666
-0.0830539
-0.0867626
-0.0862083
-0.0827457
-0.0782834
-0.0737515
-0.0691893
-0.064316
-0.0589348
-0.0530382
-0.046741
-0.0401914
-0.0335269
-0.0268707
-0.0203445
-0.0140396
-0.00842551
-0.00334514
0.000967479
0.00434664
0.00666848
0.0078595
0.00791074
0.00690329
0.00503043
0.00260052
7.67509e-06
-0.0021358
-0.00355745
-0.00402265
-0.00341271
-0.00184709
0.000565395
0.00349649
0.00679218
0.0101703
0.0135368
0.0166031
0.0190989
0.0213764
0.0234286
0.0262111
0.0281622
0.0287128
0.0243012
0.0134476
-0.000760203
-0.011705
-0.0134646
-0.0096457
-0.00240362
0.00354623
0.0115998
0.0178492
0.0213706
0.0269224
0.023789
0.0201925
0.00888214
-0.00206845
-0.072885
-0.0761996
-0.075907
-0.0731135
-0.0694371
-0.0656881
-0.061919
-0.0578957
-0.0534426
-0.0485409
-0.043279
-0.0377774
-0.0321499
-0.026501
-0.0209383
-0.0155844
-0.0106367
-0.00615405
-0.00227352
0.000880241
0.00320876
0.00465329
0.00520697
0.00493206
0.0039748
0.00257691
0.000992191
-0.000368555
-0.0012316
-0.00140613
-0.000775436
0.000604015
0.00267994
0.00522119
0.00810779
0.0111179
0.0141651
0.0170305
0.0194752
0.0218169
0.0240258
0.0268772
0.0292901
0.0303712
0.0269893
0.017612
0.00566962
-0.0036948
-0.0059449
-0.00371115
0.0015919
0.00640437
0.0132976
0.0192317
0.0227104
0.0273257
0.0251402
0.0215399
0.0112238
6.70541e-05
-0.0637117
-0.0666527
-0.0665473
-0.0643159
-0.0613141
-0.0582426
-0.0551595
-0.0518709
-0.0482211
-0.0441834
-0.0398246
-0.0352427
-0.0305319
-0.0257771
-0.0210684
-0.0165055
-0.0122129
-0.00827582
-0.00479866
-0.0018774
0.000409685
0.00201613
0.00293459
0.00321165
0.00295062
0.0023083
0.00152613
0.00082827
0.000451976
0.000557386
0.00125445
0.00252739
0.00435849
0.00659158
0.00913897
0.0118298
0.0145874
0.0172502
0.0196219
0.0219651
0.024246
0.0269724
0.0293936
0.0305711
0.0280389
0.0203453
0.0106274
0.00278869
0.00028125
0.00132498
0.00508241
0.00895341
0.0147872
0.0203715
0.0240992
0.0279215
0.0266829
0.0228353
0.0133107
0.00206403
-0.0553954
-0.0580033
-0.0580702
-0.0563102
-0.0538726
-0.0513766
-0.0488798
-0.0462184
-0.0432574
-0.0399639
-0.0363865
-0.0326025
-0.0286882
-0.0247159
-0.0207566
-0.0168844
-0.0131894
-0.0097508
-0.00665235
-0.00396924
-0.00176346
-7.24458e-05
0.00109345
0.00176769
0.00202635
0.00197386
0.00177909
0.00160911
0.00163858
0.00199615
0.00277946
0.00399683
0.00565128
0.00764154
0.00990789
0.0123205
0.0148155
0.0172749
0.0195456
0.0218161
0.0240771
0.026533
0.0286871
0.0297107
0.0278234
0.021796
0.0141168
0.00770926
0.00518592
0.00544159
0.00803449
0.0111529
0.0160618
0.0212317
0.025252
0.028592
0.0281624
0.0238608
0.0148612
0.00365973
-0.0478855
-0.050201
-0.0503921
-0.0490364
-0.0470906
-0.0450737
-0.0430598
-0.0409163
-0.0385461
-0.0358866
-0.032976
-0.0298772
-0.0266515
-0.0233578
-0.0200514
-0.0167807
-0.0136201
-0.0106345
-0.00789206
-0.00545083
-0.00335965
-0.0016496
-0.000333237
0.000612135
0.00123319
0.00161486
0.00186162
0.00209833
0.00245136
0.00302223
0.00389285
0.0050839
0.00660976
0.00840773
0.0104396
0.0126086
0.014865
0.0171199
0.0192594
0.0213924
0.0235016
0.0256579
0.0274527
0.0282477
0.0268205
0.0222528
0.0163479
0.0112327
0.00888251
0.00869464
0.0104512
0.0129769
0.01711
0.0217855
0.0258881
0.0289403
0.0291577
0.0243591
0.0156776
0.0047045
-0.0411332
-0.0431737
-0.0434471
-0.0424174
-0.0408806
-0.0392848
-0.0376978
-0.0360138
-0.034106
-0.0319661
-0.0296136
-0.0270951
-0.0244582
-0.0217434
-0.0189918
-0.01625
-0.0135665
-0.0109943
-0.00858552
-0.00638576
-0.00443487
-0.00275968
-0.00137415
-0.000260127
0.000608377
0.00128914
0.00185436
0.00239181
0.00299139
0.00373165
0.00467794
0.005856
0.00728475
0.00892755
0.0107619
0.0127165
0.0147549
0.0168043
0.0187877
0.0207436
0.02263
0.0244839
0.0259332
0.0265181
0.0254288
0.0220498
0.0176113
0.0136322
0.0115658
0.0111811
0.0123576
0.0144149
0.0178935
0.0219986
0.0258894
0.0286817
0.0292421
0.0241335
0.0157286
0.00521032
-0.035054
-0.0368425
-0.0371702
-0.0364054
-0.0352071
-0.0339553
-0.0327117
-0.0313883
-0.0298943
-0.028199
-0.0263179
-0.0242871
-0.0221446
-0.019923
-0.0176527
-0.0153676
-0.0131052
-0.0109046
-0.00880511
-0.0068421
-0.00504997
-0.00345371
-0.00205533
-0.000858022
0.000160786
0.00103669
0.00181742
0.0025647
0.00334096
0.00420546
0.00520822
0.00637509
0.00772521
0.00923875
0.0109042
0.0126683
0.0145064
0.0163553
0.0181666
0.019928
0.0215981
0.0231482
0.0243029
0.0247298
0.0239052
0.021459
0.0181895
0.0151688
0.0134294
0.0130018
0.0137911
0.015468
0.0183692
0.0218469
0.0252629
0.0275789
0.0282351
0.0231604
0.0151336
0.00528649
-0.0295786
-0.0311449
-0.0315071
-0.0309557
-0.0300352
-0.0290668
-0.0281076
-0.0270869
-0.0259282
-0.0246002
-0.0231119
-0.0214901
-0.0197639
-0.0179586
-0.0160979
-0.0142061
-0.012311
-0.010441
-0.00862527
-0.00689304
-0.00527411
-0.00377846
-0.00242252
-0.00120094
-0.000108379
0.000879177
0.00179239
0.00267376
0.0035654
0.00451094
0.00554711
0.00669693
0.00797749
0.0093786
0.0108962
0.0124898
0.0141441
0.0158021
0.0174346
0.0189987
0.0204593
0.0217479
0.0226721
0.0229968
0.0223914
0.0206596
0.0182965
0.0160601
0.0146468
0.0142572
0.0147942
0.0161483
0.0185168
0.0213412
0.0241304
0.0258439
0.0263304
0.0215877
0.0140817
0.00505951
-0.024659
-0.0260264
-0.0264047
-0.0260228
-0.0253286
-0.0245923
-0.0238658
-0.023092
-0.022206
-0.0211787
-0.0200142
-0.0187322
-0.0173545
-0.0159003
-0.0143867
-0.0128315
-0.0112548
-0.00967719
-0.00812107
-0.0066111
-0.00516283
-0.00379216
-0.00250789
-0.00131331
-0.000206412
0.000827785
0.00180736
0.00276082
0.00371556
0.00470279
0.00574829
0.00687074
0.0080843
0.00938349
0.0107686
0.012208
0.0136934
0.0151731
0.0166297
0.0180064
0.0192737
0.0203505
0.0211042
0.0213741
0.0209536
0.0197597
0.0180829
0.0164749
0.0153692
0.0150414
0.0154112
0.0164828
0.0183493
0.0205346
0.0226696
0.0237615
0.023895
0.019639
0.0127725
0.00464577
-0.0202433
-0.0214316
-0.021812
-0.0215634
-0.0210525
-0.0205046
-0.0199664
-0.0193919
-0.0187265
-0.0179436
-0.0170441
-0.0160421
-0.0149538
-0.013793
-0.0125722
-0.011304
-0.0100028
-0.00868439
-0.00736666
-0.00605757
-0.00477999
-0.00354278
-0.00235643
-0.00122408
-0.000146384
0.000884899
0.00187932
0.00285538
0.00382993
0.00482451
0.00585627
0.00693924
0.00808409
0.00928756
0.0105514
0.0118504
0.0131805
0.0144964
0.0157868
0.0169929
0.0180891
0.0190005
0.0196329
0.0198813
0.0196159
0.0188232
0.0176565
0.0165348
0.0157035
0.0154373
0.0156885
0.0165076
0.017911
0.0195071
0.0210322
0.0215529
0.0212708
0.0175288
0.0113726
0.00414434
-0.016281
-0.0173104
-0.0176835
-0.0175389
-0.017175
-0.0167789
-0.0163916
-0.0159766
-0.0154881
-0.0149023
-0.014218
-0.013445
-0.0125953
-0.0116784
-0.0107032
-0.00967797
-0.00861259
-0.00751831
-0.00640823
-0.00529209
-0.00418056
-0.00308313
-0.0020095
-0.000962836
5.44384e-05
0.00104626
0.00201664
0.00297687
0.00393655
0.00490976
0.00590717
0.00693846
0.00801082
0.00912161
0.0102727
0.0114433
0.0126315
0.0137983
0.0149366
0.0159918
0.016942
0.017725
0.0182725
0.0185199
0.0183814
0.0178828
0.0170919
0.0163289
0.0157305
0.015514
0.0156765
0.0162684
0.0172613
0.018338
0.0193276
0.0193727
0.0187016
0.015423
0.00999439
0.00362772
-0.0127309
-0.0136198
-0.0139787
-0.0139138
-0.0136667
-0.0133917
-0.0131244
-0.0128359
-0.0124881
-0.0120601
-0.0115493
-0.0109625
-0.0103081
-0.00959301
-0.00882266
-0.00800264
-0.00713954
-0.00624101
-0.00531555
-0.00437338
-0.00341949
-0.00246137
-0.00150709
-0.000560315
0.00037577
0.00130258
0.00222078
0.00313657
0.00405465
0.00498366
0.00592946
0.00689791
0.00789341
0.00891285
0.00995751
0.0110105
0.0120701
0.0131027
0.0141038
0.015028
0.0158557
0.0165388
0.0170266
0.0172812
0.0172425
0.016956
0.0164373
0.0159195
0.0154163
0.01533
0.0154276
0.0158158
0.0164606
0.0170938
0.0176288
0.0173101
0.0163265
0.0134321
0.00870257
0.00313884
-0.00955585
-0.0103205
-0.01066
-0.0106554
-0.0105004
-0.0103213
-0.0101487
-0.00995965
-0.00972286
-0.00942024
-0.00904849
-0.00861208
-0.00811695
-0.00756766
-0.00696756
-0.00631993
-0.00562891
-0.0048996
-0.00413837
-0.00335263
-0.00254486
-0.00172053
-0.000886541
-4.65413e-05
0.000796035
0.00164129
0.00248807
0.00333926
0.0041963
0.00506387
0.00594454
0.00684114
0.00775562
0.00868455
0.00962813
0.0105721
0.0115148
0.0124288
0.0133088
0.0141189
0.0148431
0.0154478
0.015891
0.0161532
0.0161909
0.0160537
0.0157307
0.0154011
0.0150738
0.0149785
0.0149971
0.0152036
0.0155623
0.0158341
0.0159898
0.0154089
0.0142071
0.0116199
0.00753016
0.00269859
-0.00672157
-0.00737688
-0.00769428
-0.00773434
-0.00765142
-0.00754776
-0.00744914
-0.00733768
-0.00718783
-0.0069842
-0.00672316
-0.00640753
-0.00604137
-0.00562766
-0.0051683
-0.00466496
-0.00412012
-0.00353693
-0.00291988
-0.00227249
-0.00159766
-0.000899219
-0.000182295
0.000549673
0.0012932
0.00204765
0.00281119
0.00358468
0.00436755
0.00516175
0.00596762
0.00678582
0.00761648
0.00845565
0.00930261
0.0101452