/*--------------------------------*- C++ -*----------------------------------*\
| =========                 |                                                 |
| \\      /  F ield         | OpenFOAM: The Open Source CFD Toolbox           |
|  \\    /   O peration     | Version:  2512                                  |
|   \\  /    A nd           | Website:  www.openfoam.com                      |
|    \\/     M anipulation  |                                                 |
\*---------------------------------------------------------------------------*/
FoamFile
{
    version     2.0;
    format      ascii;
    arch        "LSB;label=32;scalar=64";
    class       surfaceScalarField;
    location    "191";
    object      phi;
}
// * * * * * * * * * * * * * * * * * * * * * * * * * * * * * * * * * * * * * //

dimensions      [0 3 -1 0 0 0 0];

oriented        oriented;

internalField   nonuniform List<scalar> 
26232
(
5.39912e-05
0.0010679
-0.00112189
0.000517368
0.00192872
-0.0023921
0.00162485
0.0016681
-0.00277557
0.00357803
0.000314489
-0.00226767
0.00656422
-0.00213338
-0.000852817
0.0107574
-0.005685
0.00149182
0.0163068
-0.0103388
0.00478939
0.0233153
-0.0160624
0.00905393
0.0318118
-0.0227748
0.0142783
0.0417258
-0.0303361
0.0204221
0.0528713
-0.0385472
0.0274017
0.0649468
-0.0471603
0.0350847
0.0775544
-0.0558989
0.0432914
0.0902354
-0.0644839
0.0518029
0.102519
-0.0726604
0.0603766
0.113976
-0.080223
0.0687657
0.124269
-0.087034
0.0767411
0.133188
-0.0930339
0.0841152
0.140671
-0.0982374
0.0907547
0.146783
-0.102729
0.0966165
0.151701
-0.106598
0.101681
0.155569
-0.110054
0.106186
0.158331
-0.112787
0.110025
-0.115908
0.114296
0.159942
0.000108576
0.000959327
0.0007527
0.0012846
0.00219988
0.000220915
0.00468623
-0.00217186
0.00842316
-0.0058703
0.013584
-0.0108458
0.0202775
-0.0170324
0.0285162
-0.024301
0.0381886
-0.0324472
0.0490485
-0.041196
0.0607259
-0.0502246
0.0727622
-0.0591965
0.0846629
-0.0677996
0.0959592
-0.0757801
0.106266
-0.0829669
0.115325
-0.0892824
0.123031
-0.0947396
0.129422
-0.0994252
0.134657
-0.103473
0.13896
-0.107032
0.142601
-0.110239
0.145765
-0.113218
0.148922
-0.115944
-0.118958
0.151972
0.000198467
0.00076086
0.00111017
0.000372892
0.00302177
-0.00169068
0.00618481
-0.0053349
0.0108038
-0.0104893
0.0170048
-0.0170468
0.0247964
-0.024824
0.0340391
-0.0335437
0.044437
-0.0428451
0.0555613
-0.0523203
0.0669032
-0.0615666
0.0779448
-0.0702381
0.0882314
-0.0780862
0.097431
-0.0849797
0.105368
-0.0909039
0.112027
-0.0959414
0.117527
-0.100239
0.122074
-0.103973
0.125911
-0.107309
0.129269
-0.11039
0.132339
-0.11331
0.13527
-0.116149
0.138179
-0.118853
-0.121785
0.141006
0.000315284
0.000445576
0.00156131
-0.000873133
0.00402675
-0.00415612
0.00795039
-0.00925854
0.0134866
-0.0160256
0.0206577
-0.0242179
0.0293143
-0.0334806
0.0391274
-0.0433567
0.0496213
-0.053339
0.0602454
-0.0629445
0.0704635
-0.0717846
0.0798363
-0.0796109
0.0880796
-0.0863295
0.0950845
-0.0919846
0.100901
-0.0967208
0.105695
-0.100736
0.109691
-0.104235
0.113117
-0.107399
0.116175
-0.110367
0.119019
-0.113234
0.121764
-0.116055
0.124485
-0.118869
0.127284
-0.121652
-0.124644
0.130143
0.00045137
-5.79364e-06
0.0020762
-0.00249796
0.00514333
-0.00722325
0.00984173
-0.0139569
0.0162242
-0.0224081
0.0241543
-0.0321479
0.0332889
-0.0426153
0.0431179
-0.0531856
0.0530515
-0.0632726
0.0625304
-0.0724234
0.0711199
-0.0803741
0.0785668
-0.0870578
0.0848071
-0.0925698
0.0899329
-0.0971104
0.0941348
-0.100923
0.0976405
-0.104241
0.100666
-0.10726
0.103388
-0.110121
0.105938
-0.112917
0.108405
-0.115701
0.110852
-0.118502
0.113319
-0.121336
0.115855
-0.124189
-0.127187
0.118398
0.000600451
-0.000606245
0.00262815
-0.00452566
0.00630128
-0.0108964
0.0117148
-0.0193705
0.0187682
-0.0294614
0.0271289
-0.0405086
0.0362662
-0.0517526
0.0455521
-0.0624715
0.0543924
-0.072113
0.0623382
-0.0803691
0.0691446
-0.0871805
0.0747702
-0.0926835
0.0793305
-0.0971301
0.0830297
-0.10081
0.0860959
-0.103989
0.0887355
-0.106881
0.0911103
-0.109635
0.0933356
-0.112346
0.0954881
-0.115069
0.0976179
-0.117831
0.099759
-0.120643
0.101935
-0.123512
0.104175
-0.126429
-0.129462
0.106451
0.000759473
-0.00136572
0.00319146
-0.00695765
0.00742846
-0.0151334
0.0134239
-0.025366
0.0208842
-0.0369217
0.0292792
-0.0489036
0.0379454
-0.0604188
0.0462395
-0.0707656
0.053673
-0.0795465
0.0599827
-0.0866788
0.0651265
-0.0923243
0.0692273
-0.0967843
0.072496
-0.100399
0.0751618
-0.103475
0.0774266
-0.106254
0.0794448
-0.108899
0.0813229
-0.111513
0.0831295
-0.114153
0.0849073
-0.116847
0.0866839
-0.119607
0.0884787
-0.122438
0.0903054
-0.125338
0.0921813
-0.128305
-0.131361
0.09408
0.000921769
-0.00228749
0.00373572
-0.0097716
0.00844698
-0.0198446
0.0148267
-0.0317457
0.0223755
-0.0444705
0.0304068
-0.0569349
0.0382161
-0.0682281
0.0452474
-0.0777969
0.0511872
-0.0854864
0.0559672
-0.0914588
0.0597023
-0.0960594
0.0626043
-0.0996862
0.0649055
-0.1027
0.0668092
-0.105379
0.0684687
-0.107913
0.0699877
-0.110418
0.0714311
-0.112957
0.0728379
-0.11556
0.0742327
-0.118242
0.0756319
-0.121007
0.077048
-0.123854
0.0784918
-0.126782
0.0799746
-0.129788
-0.132871
0.0814842
0.0010793
-0.00336679
0.00422583
-0.0129181
0.00927764
-0.0248964
0.0158001
-0.0382682
0.0231109
-0.0517813
0.0304432
-0.0642671
0.0371471
-0.074932
0.0428235
-0.0834733
0.0473469
-0.0900097
0.0508048
-0.0949168
0.053403
-0.0986576
0.0553779
-0.101661
0.0569393
-0.104261
0.0582453
-0.106685
0.0594021
-0.10907
0.0604745
-0.11149
0.0615006
-0.113983
0.0625029
-0.116562
0.0634961
-0.119235
0.064491
-0.122001
0.0654964
-0.12486
0.0665204
-0.127806
0.0675696
-0.130837
-0.13394
0.0686389
0.00122194
-0.00458873
0.00462489
-0.0163211
0.00984992
-0.0301215
0.0162592
-0.0446774
0.0230427
-0.0585648
0.0294406
-0.0706651
0.0349307
-0.0804221
0.0392925
-0.0878351
0.04256
-0.0932773
0.0449203
-0.097277
0.0466119
-0.100349
0.0478551
-0.102904
0.0488187
-0.105225
0.0496163
-0.107483
0.0503166
-0.10977
0.0509587
-0.112133
0.0515649
-0.114589
0.0521489
-0.117146
0.0527204
-0.119806
0.0532875
-0.122569
0.0538569
-0.125429
0.054435
-0.128384
0.0550268
-0.131429
-0.134547
0.055634
0.00133931
-0.00592803
0.00490051
-0.0198823
0.010114
-0.0353349
0.0161689
-0.0507323
0.0222019
-0.0645978
0.0275365
-0.0759997
0.0318131
-0.0846987
0.0349752
-0.0909972
0.0371695
-0.0954715
0.0386292
-0.0987367
0.0395864
-0.101306
0.040226
-0.103544
0.0406741
-0.105673
0.0410073
-0.107816
0.0412686
-0.110032
0.0414814
-0.112345
0.0416592
-0.114767
0.0418111
-0.117298
0.0419443
-0.11994
0.0420649
-0.122689
0.0421783
-0.125542
0.0422887
-0.128495
0.0423986
-0.131539
-0.13466
0.0425119
0.00142528
-0.00735332
0.00503295
-0.02349
0.0100493
-0.0403513
0.0155453
-0.0562284
0.0206812
-0.0697337
0.0249139
-0.0802324
0.0280478
-0.0878326
0.0301542
-0.0931036
0.0314439
-0.0967612
0.0321574
-0.0994502
0.0324988
-0.101648
0.0326126
-0.103658
0.0325885
-0.105649
0.0324762
-0.107704
0.0323021
-0.109858
0.0320802
-0.112124
0.0318195
-0.114506
0.0315263
-0.117005
0.0312064
-0.11962
0.0308652
-0.122348
0.0305073
-0.125185
0.0301364
-0.128124
0.0297537
-0.131156
0.0293655
-0.134272
-0.000123206
0.00295611
-0.0028329
-0.000501945
0.0073697
-0.00699096
-0.0011388
0.0106968
-0.01006
-0.00201706
0.0131117
-0.0122334
-0.00310544
0.0147928
-0.0137044
-0.00436538
0.0159204
-0.0146605
-0.00575722
0.0166547
-0.0152629
-0.00724382
0.0171187
-0.0156321
-0.00879197
0.01739
-0.0158419
-0.010372
0.0175023
-0.0159223
-0.0119564
0.0174512
-0.0158669
-0.0135178
0.0172038
-0.0156424
-0.015028
0.0167076
-0.0151974
-0.0164555
0.0158975
-0.0144699
-0.017766
0.0147025
-0.0133921
-0.0189208
0.013049
-0.0118942
-0.0198778
0.0108647
-0.00990777
-0.0205923
0.00808167
-0.00736717
-0.021016
0.00463682
-0.00421306
-0.0211403
0.00047272
-0.000348475
-0.0208212
-0.00430521
0.0039861
-0.0200676
-0.00982175
0.00906814
-0.0188634
-0.0159597
0.0147555
-0.0225544
-0.0172439
0.0209349
-9.13186e-06
0.00296524
-0.000127141
0.00748771
-0.000406383
0.0109761
-0.000862767
0.013568
-0.00148401
0.015414
-0.00223896
0.0166753
-0.00308629
0.0175021
-0.0039813
0.0180137
-0.00488033
0.0182891
-0.00574281
0.0183648
-0.00653157
0.01824
-0.00721198
0.0178842
-0.00775229
0.0172479
-0.00811965
0.0162649
-0.00828152
0.0148644
-0.0082048
0.0129723
-0.00785525
0.0105152
-0.00719721
0.00742363
-0.00619749
0.0036371
-0.00485338
-0.000871386
-0.00303997
-0.00611862
-0.000755922
-0.0121058
0.00203781
-0.0187535
-0.0258543
0.00533768
0.000101356
0.00286388
0.000246612
0.00734245
0.000343717
0.010879
0.00034858
0.0135632
0.000255187
0.0155074
8.59081e-05
0.0168446
-0.000118576
0.0177066
-0.000308232
0.0182033
-0.000430437
0.0184113
-0.000434405
0.0183688
-0.000273518
0.0180791
9.3934e-05
0.0175168
0.00070817
0.0166336
0.00160227
0.0153708
0.00280774
0.0136589
0.00435423
0.0114258
0.00626899
0.00860043
0.00857678
0.00511583
0.0112991
0.000914764
0.0144676
-0.0040399
0.018119
-0.00976997
0.0222748
-0.0162616
0.026948
-0.0234266
-0.0311541
0.0322477
0.000195043
0.00266884
0.000578645
0.00695885
0.00103371
0.0104239
0.00149637
0.0131005
0.00194515
0.0150586
0.00239248
0.0163973
0.00287504
0.017224
0.0034441
0.0176343
0.00415738
0.017698
0.00507283
0.0174533
0.00624491
0.016907
0.00772279
0.0160389
0.00954852
0.0148079
0.0117603
0.013159
0.0143912
0.011028
0.0174706
0.00834636
0.0210258
0.00504528
0.0250785
0.00106316
0.0296589
-0.00366565
0.0347885
-0.00916955
0.0404844
-0.0154658
0.0467619
-0.0225391
0.0535913
-0.030256
-0.0386504
0.0610877
0.000261547
0.00240729
0.000832316
0.00638808
0.00158908
0.00966715
0.00245948
0.0122301
0.00341199
0.0141061
0.00444969
0.0153596
0.00560256
0.0160711
0.00691862
0.0163182
0.0084556
0.016161
0.0102741
0.0156348
0.012433
0.0147482
0.0149862
0.0134857
0.0179825
0.0118116
0.0214654
0.00967613
0.0254742
0.00701917
0.0300464
0.00377413
0.0352148
-0.000123105
0.0410235
-0.00474555
0.047494
-0.0101361
0.0546544
-0.01633
0.0625102
-0.0233216
0.0710504
-0.0310793
0.0801839
-0.0393895
-0.0484907
0.0900242
0.000294116
0.00211318
0.000981605
0.00570059
0.00195262
0.00869614
0.00313931
0.0110434
0.00450774
0.0127377
0.00605482
0.0138125
0.00780342
0.0143225
0.00979562
0.014326
0.0120857
0.013871
0.0147337
0.0129867
0.0178012
0.0116808
0.021348
0.00993885
0.0254318
0.00772779
0.0301085
0.00499942
0.0354284
0.00169927
0.0414527
-0.00225015
0.0482327
-0.00690306
0.0558086
-0.0123215
0.0642161
-0.0185436
0.073462
-0.025576
0.0835186
-0.0333782
0.0942972
-0.0418579
0.105627
-0.0507197
-0.0603494
0.117486
0.000290854
0.00182232
0.00101619
0.00497526
0.00209694
0.00761538
0.00348229
0.00965809
0.00514494
0.011075
0.00708138
0.0118761
0.00931049
0.0120934
0.0118698
0.0117667
0.014811
0.0109298
0.0181951
0.00960265
0.022089
0.00778686
0.0265629
0.00546499
0.031691
0.00259966
0.0375478
-0.000857341
0.0442145
-0.00496749
0.0517543
-0.00978988
0.0602296
-0.0153784
0.0696755
-0.0217674
0.0800902
-0.0289584
0.091411
-0.0368967
0.103523
-0.0454905
0.116191
-0.0545258
0.129181
-0.0637101
-0.0733107
0.142143
0.000255274
0.00156705
0.000944797
0.00428573
0.00203377
0.00652641
0.00349897
0.00819288
0.005329
0.00924502
0.00752823
0.00967683
0.010119
0.00950262
0.0131416
0.00874412
0.0166521
0.00741927
0.0207205
0.00553425
0.0254288
0.00307852
0.0308591
3.47403e-05
0.0371197
-0.00366097
0.0442971
-0.0080347
0.0524746
-0.013145
0.0617148
-0.0190301
0.0720418
-0.0257054
0.0834222
-0.0331478
0.0957508
-0.0412869
0.108829
-0.0499754
0.122397
-0.0590578
0.13605
-0.0681793
0.149532
-0.0771917
-0.0859011
0.162122
0.000196618
0.00137043
0.000796991
0.00368536
0.00181932
0.00550409
0.00327614
0.00673606
0.0051813
0.00733986
0.00755775
0.00730038
0.0104432
0.00661721
0.0138929
0.00529441
0.0179804
0.00333177
0.022794
0.000720652
0.0284374
-0.00256493
0.0350243
-0.00655219
0.0426441
-0.0112807
0.0513867
-0.0167773
0.0612964
-0.0230547
0.0723618
-0.0300955
0.0844964
-0.03784
0.0975253
-0.0461768
0.11118
-0.0549417
0.125108
-0.0639035
0.138896
-0.0728456
0.152078
-0.0813609
0.164383
-0.0894966
-0.0965423
0.175024
0.000129721
0.00124071
0.000622061
0.00319302
0.00155224
0.00457391
0.00297478
0.00531352
0.00493825
0.00537638
0.00749649
0.00474215
0.0107164
0.00339731
0.0146818
0.00132901
0.0194929
-0.00147935
0.0252622
-0.00504867
0.0320992
-0.00940192
0.0401021
-0.0145551
0.0493305
-0.0205091
0.0597907
-0.0272375
0.0714124
-0.0346764
0.0840345
-0.0427177
0.0974001
-0.0512056
0.111165
-0.0599414
0.124914
-0.068691
0.138215
-0.0772044
0.150617
-0.085248
0.161794
-0.0925371
0.171468
-0.099171
-0.104345
0.179271
7.32468e-05
0.00116746
0.000482053
0.00278421
0.00135819
0.00369778
0.00280272
0.00386898
0.0049074
0.00327171
0.00776727
0.00188227
0.0114874
-0.000322797
0.0161835
-0.00336714
0.0219745
-0.00727029
0.0289684
-0.0120426
0.0372422
-0.0176757
0.0468193
-0.0241322
0.0576467
-0.0313365
0.069579
-0.0391698
0.0823715
-0.0474688
0.0956861
-0.0560322
0.109112
-0.0646312
0.1222
-0.0730294
0.134507
-0.0809982
0.145665
-0.0883628
0.155386
-0.0949691
0.16366
-0.10081
0.170337
-0.105848
-0.109728
0.175719
4.55708e-05
0.000437685
0.00135989
0.0029612
0.00538009
0.00875419
0.0132208
0.0189076
0.0259156
0.034295
0.044021
0.0549736
0.0669284
0.0795615
0.0924693
0.105203
0.117313
0.128398
0.138155
0.146409
0.15312
0.158496
0.162673
0.167241
-0.014989
-0.0406019
0.038347
-0.0125851
-0.053515
0.0511111
-0.0101661
-0.0669456
0.0645267
-0.00788094
-0.0802028
0.0779176
-0.00583228
-0.0926806
0.090632
-0.00393494
-0.103851
0.101954
-0.00180715
-0.113168
0.11104
0.0012235
-0.119827
0.116796
0.00622377
-0.122751
0.117751
0.0137605
-0.120055
0.112518
0.0241322
-0.110126
0.0997539
0.0368633
-0.0917259
0.0789949
0.0509914
-0.0647819
0.0506537
0.0656809
-0.0304523
0.0157629
0.0802331
0.00918714
-0.0237394
0.0942419
0.0511371
-0.065146
0.106939
0.0906405
-0.103338
0.117325
0.12288
-0.133266
0.12467
0.145191
-0.152536
0.12899
0.157768
-0.162088
0.13066
0.162954
-0.164624
0.129571
0.165357
-0.164267
0.125442
0.170624
-0.166495
0.119341
0.179671
-0.173569
0.114278
0.183108
-0.178046
0.113462
0.164742
-0.163926
0.117949
0.114862
-0.11935
0.126509
0.0392323
-0.0477923
0.13674
-0.0428307
0.0326002
0.146067
-0.112609
0.103282
0.152698
-0.159575
0.152945
0.156341
-0.184951
0.181307
0.157456
-0.193907
0.192792
0.155563
-0.196447
0.198339
0.149811
-0.203481
0.209233
0.141311
-0.215104
0.223604
0.133671
-0.213008
0.220647
0.130456
-0.170784
0.173999
0.132837
-0.0897263
0.0873452
0.139224
0.0135293
-0.0199163
0.147206
0.101192
-0.109174
0.153781
0.167393
-0.173968
0.155937
0.206794
-0.208949
0.152233
0.24018
-0.236476
0.144717
0.264576
-0.25706
0.138127
0.249574
-0.242983
0.13661
0.191164
-0.189647
0.140551
0.0628495
-0.0667909
0.147143
-0.0410853
0.0344934
0.15092
-0.149984
0.146207
0.149248
-0.208792
0.210464
0.144291
-0.258463
0.26342
0.141173
-0.289256
0.292374
0.141876
-0.194175
0.193472
0.144512
-0.140344
0.137708
0.145006
0.0624373
-0.0629307
0.143689
0.1644
-0.163083
0.142106
0.260193
-0.258609
0.140587
0.36222
-0.360701
0.117994
-0.116266
0.0073305
-0.0425947
0.0089006
-0.0550851
0.0101936
-0.0682386
0.0109336
-0.0809428
0.0108713
-0.0926183
0.00990337
-0.102883
0.00815212
-0.111416
0.00629264
-0.117968
0.00547542
-0.121934
0.00735215
-0.121931
0.0129215
-0.115695
0.0224656
-0.10127
0.0352902
-0.0776065
0.0501984
-0.0453605
0.0662239
-0.00683835
0.0823155
0.0350455
0.0975243
0.0754317
0.110641
0.109764
0.120752
0.13508
0.127622
0.150898
0.131307
0.159269
0.131668
0.164995
0.128913
0.173379
0.124644
0.18394
0.121734
0.186018
0.122465
0.164011
0.12713
0.110198
0.134677
0.0316852
0.142988
-0.0511417
0.150163
-0.119784
0.154705
-0.164117
0.156457
-0.186703
0.1561
-0.19355
0.153312
-0.193659
0.147
-0.197169
0.13788
-0.205983
0.129608
-0.204736
0.126187
-0.167363
0.129109
-0.0926485
0.136715
0.00592351
0.146174
0.0917334
0.15402
0.159547
0.157035
0.203778
0.154019
0.243196
0.147067
0.271527
0.140749
0.255892
0.138841
0.193072
0.141943
0.0597474
0.147827
-0.046969
0.151207
-0.153365
0.149359
-0.206944
0.144173
-0.253277
0.141052
-0.286134
0.141686
-0.19481
0.144179
-0.142838
0.14463
0.0619864
0.143309
0.165721
0.141858
0.261644
0.140461
0.363617
0.11965
0.0333238
-0.0436707
0.0342679
-0.0560292
0.0347619
-0.0687326
0.034577
-0.0807579
0.0334066
-0.0914479
0.0308927
-0.100369
0.0268089
-0.107333
0.0213452
-0.112504
0.01547
-0.116059
0.0109584
-0.11742
0.010044
-0.114781
0.0141955
-0.105422
0.0235834
-0.0869943
0.0371534
-0.0589305
0.0534173
-0.0231022
0.0709602
0.0175026
0.0882148
0.0581771
0.103802
0.0941769
0.116595
0.122286
0.126019
0.141474
0.131808
0.15348
0.13389
0.162913
0.132937
0.174332
0.130848
0.186029
0.130084
0.186782
0.132083
0.162012
0.136626
0.105655
0.14271
0.0256015
0.148956
-0.0573874
0.153866
-0.124694
0.156343
-0.166594
0.156316
-0.186676
0.154607
-0.191842
0.151095
-0.190146
0.144502
-0.190576
0.135027
-0.196508
0.126184
-0.195893
0.12242
-0.163599
0.125645
-0.0958737
0.134276
-0.0027067
0.145065
0.0809443
0.154154
0.150457
0.158136
0.199796
0.155997
0.245336
0.149762
0.277762
0.143759
0.261895
0.141408
0.195424
0.143526
0.0576287
0.1486
-0.0520427
0.151567
-0.156332
0.149574
-0.204951
0.144139
-0.247842
0.14095
-0.282946
0.141537
-0.195396
0.143955
-0.145255
0.144398
0.0615433
0.143054
0.167065
0.141728
0.262971
0.140489
0.364855
0.121201
0.0614115
-0.0439946
0.0616169
-0.0562346
0.0613517
-0.0684675
0.0602813
-0.0796875
0.0582175
-0.0893841
0.0549046
-0.0970563
0.0499725
-0.1024
0.0430857
-0.105617
0.0343929
-0.107366
0.0250971
-0.108124
0.0176079
-0.107291
0.0146962
-0.10251
0.018213
-0.0905111
0.0281443
-0.0688618
0.0429157
-0.0378737
0.0607488
-0.00033046
0.0792895
0.0396364
0.0968849
0.0765815
0.112086
0.107085
0.123919
0.129641
0.131846
0.145554
0.135905
0.158854
0.137108
0.17313
0.13742
0.185716
0.13875
0.185452
0.141707
0.159055
0.14583
0.101532
0.150405
0.0210264
0.154495
-0.0614773
0.157142
-0.127342
0.157615
-0.167067
0.155937
-0.184998
0.152983
-0.188888
0.148854
-0.186018
0.142215
-0.183937
0.132698
-0.186991
0.123424
-0.186618
0.119171
-0.159346
0.122459
-0.0991621
0.131842
-0.0120893
0.143816
0.0689697
0.154124
0.14015
0.159191
0.19473
0.158111
0.246416
0.152741
0.283132
0.147099
0.267537
0.144261
0.198262
0.145295
0.0565949
0.149447
-0.0561952
0.151976
-0.15886
0.149865
-0.20284
0.144165
-0.242142
0.14084
-0.279621
0.141402
-0.195959
0.143819
-0.147672
0.144299
0.0610632
0.142919
0.168445
0.141714
0.264176
0.140677
0.365892
0.122611
0.0898357
-0.0438061
0.0891913
-0.0555901
0.0878088
-0.067085
0.0854961
-0.0773748
0.0822477
-0.0861357
0.0780421
-0.0928508
0.0727134
-0.0970717
0.0658782
-0.0987818
0.0570374
-0.0985249
0.0461876
-0.0972741
0.0346544
-0.0957582
0.0253082
-0.0931637
0.0214593
-0.0866623
0.0251512
-0.0725537
0.0360482
-0.0487706
0.0522071
-0.0164894
0.0709546
0.0208889
0.089844
0.0576921
0.106959
0.0899695
0.120904
0.115697
0.130927
0.13553
0.137156
0.152624
0.140788
0.169498
0.143653
0.182851
0.147009
0.182096
0.15081
0.155255
0.154368
0.0979738
0.15742
0.017974
0.15945
-0.0635076
0.1599
-0.127792
0.158447
-0.165614
0.155269
-0.18182
0.151208
-0.184826
0.14656
-0.18137
0.140061
-0.177438
0.130805
-0.177736
0.121318
-0.17713
0.116501
-0.154529
0.119549
-0.102211
0.129384
-0.0219242
0.142351
0.0560027
0.153845
0.128656
0.160115
0.18846
0.160274
0.246257
0.155901
0.287505
0.15068
0.272758
0.147337
0.201605
0.147212
0.0567198
0.150346
-0.0593289
0.152403
-0.160917
0.150207
-0.200645
0.144236
-0.236171
0.140696
-0.27608
0.141252
-0.196516
0.143747
-0.150167
0.144319
0.0604915
0.142897
0.169867
0.141815
0.265258
0.141027
0.36668
0.123843
0.116653
-0.0429733
0.115067
-0.0540036
0.112455
-0.0644734
0.108752
-0.0736721
0.104114
-0.0814974
0.0986906
-0.0874273
0.0925822
-0.0909633
0.0857598
-0.0919595
0.0778522
-0.0906173
0.0681814
-0.0876034
0.056483
-0.0840598
0.0440721
-0.0807528
0.0341125
-0.0767027
0.030294
-0.0687352
0.0346681
-0.0531447
0.0465319
-0.0283532
0.0635712
0.00384967
0.0825446
0.0387186
0.100826
0.0716878
0.116499
0.100025
0.128552
0.123477
0.137095
0.144081
0.143331
0.163263
0.148799
0.177383
0.154132
0.176763
0.158723
0.150664
0.16191
0.0947863
0.163522
0.016362
0.163684
-0.0636692
0.162046
-0.126154
0.158779
-0.162347
0.154268
-0.177308
0.14925
-0.179808
0.144157
-0.176277
0.137922
-0.171204
0.129207
-0.16902
0.119777
-0.167701
0.114402
-0.149155
0.116917
-0.104726
0.126871
-0.031878
0.140585
0.0422888
0.153215
0.116026
0.160801
0.180874
0.162361
0.244697
0.159115
0.29075
0.154375
0.277497
0.150547
0.205433
0.149236
0.0580303
0.151267
-0.0613594
0.152811
-0.162461
0.150569
-0.198403
0.144335
-0.229937
0.1405
-0.272245
0.141058
-0.197073
0.143712
-0.152821
0.144441
0.0597632
0.142981
0.171327
0.142028
0.266211
0.141543
0.367165
0.124861
0.140317
-0.0411477
0.13754
-0.0512265
0.133528
-0.0604609
0.128356
-0.0685007
0.12232
-0.0754613
0.115664
-0.0807707
0.108611
-0.0839106
0.101373
-0.0847218
0.0939859
-0.08323
0.0860504
-0.0796679
0.0767136
-0.074723
0.0654712
-0.0695105
0.0534963
-0.0647278
0.0440474
-0.0592863
0.0409111
-0.0500083
0.0460194
-0.0334616
0.0585702
-0.00870109
0.0755652
0.0217237
0.0937445
0.0535085
0.110529
0.0832402
0.124442
0.109564
0.135355
0.133168
0.144268
0.15435
0.152316
0.169335
0.159535
0.169543
0.164934
0.145265
0.167874
0.0918468
0.168506
0.0157291
0.167017
-0.0621801
0.163483
-0.122619
0.15855
-0.157415
0.152876
-0.171635
0.147071
-0.174003
0.141598
-0.170804
0.135685
-0.165291
0.127724
-0.161059
0.118653
-0.15863
0.112819
-0.143321
0.11458
-0.106486
0.12425
-0.0415483
0.138436
0.0281033
0.152125
0.102337
0.161118
0.17188
0.164232
0.241583
0.162237
0.292745
0.158049
0.281686
0.153779
0.209703
0.151306
0.0605025
0.152175
-0.0622275
0.153163
-0.16345
0.150915
-0.196155
0.144448
-0.223469
0.140243
-0.268041
0.140793
-0.197623
0.143682
-0.15571
0.144645
0.0588008
0.143161
0.17281
0.142349
0.267023
0.142226
0.367288
0.125623
0.158993
-0.0380188
0.154819
-0.047052
0.149332
-0.0549744
0.142768
-0.0619364
0.135498
-0.0681917
0.127809
-0.0730814
0.119998
-0.0760989
0.11236
-0.0770846
0.105105
-0.0759752
0.0982291
-0.0727916
0.0912731
-0.067767
0.0832768
-0.0615142
0.0735574
-0.0550084
0.0631031
-0.048832
0.0550108
-0.041916
0.0529198
-0.0313706
0.0586144
-0.0143957
0.0709506
0.00938738
0.0869975
0.0374616
0.103685
0.0665526
0.118887
0.0943622
0.131951
0.120104
0.143424
0.142876
0.153924
0.158836
0.162932
0.160535
0.169187
0.13901
0.172162
0.0888713
0.172121
0.015771
0.169311
-0.0593703
0.164124
-0.117432
0.157699
-0.15099
0.151035
-0.164971
0.14462
-0.167588
0.138834
-0.165018
0.133241
-0.159697
0.126166
-0.153984
0.11774
-0.150204
0.111639
-0.137221
0.112493
-0.10734
0.121513
-0.0505685
0.135837
0.0137792
0.150469
0.0877043
0.160934
0.161416
0.165722
0.236795
0.165088
0.293379
0.161546
0.285228
0.156931
0.214318
0.153338
0.0640954
0.153029
-0.0619177
0.153415
-0.163837
0.151206
-0.193945
0.144554
-0.216818
0.139918
-0.263404
0.140437
-0.198143
0.143625
-0.158897
0.144911
0.0575147
0.14343
0.174291
0.142774
0.267679
0.143075
0.366987
0.126087
0.170706
-0.0337011
0.165286
-0.0416322
0.15861
-0.048298
0.151072
-0.0543982
0.143023
-0.0601425
0.134721
-0.0647799
0.1265
-0.0678775
0.1187
-0.0692849
0.111583
-0.0688579
0.105299
-0.0665081
0.0997937
-0.0622614
0.0945561
-0.0562766
0.0885811
-0.0490334
0.0811141
-0.041365
0.0729275
-0.0337295
0.066741
-0.0251841
0.0658374
-0.013492
0.0716504
0.00357439
0.0831798
0.0259322
0.097834
0.0518983
0.113071
0.0791251
0.12754
0.105635
0.141102
0.129314
0.153709
0.146229
0.164307
0.149936
0.171471
0.131847
0.174748
0.085594
0.174346
0.0161727
0.170471
-0.0554954
0.16386
-0.11082
0.156129
-0.143259
0.148639
-0.157481
0.141796
-0.160745
0.135781
-0.159002
0.130474
-0.154391
0.12434
-0.147849
0.116799
-0.142662
0.110676
-0.131098
0.110597
-0.107261
0.118666
-0.0586371
0.132759
-0.000314364
0.148159
0.0723041
0.160116
0.149458
0.166695
0.230216
0.167526
0.292548
0.164717
0.288037
0.15985
0.219185
0.155282
0.0686633
0.153782
-0.0604177
0.153524
-0.163578
0.151394
-0.191816
0.144634
-0.210059
0.139524
-0.258293
0.139974
-0.198593
0.143508
-0.162432
0.145219
0.0558035
0.143779
0.175732
0.143301
0.268156
0.144092
0.366196
0.126212
0.17441
-0.0288401
0.168329
-0.035551
0.161111
-0.0410807
0.153286
-0.0465732
0.145096
-0.0519521
0.136752
-0.0564365
0.128589
-0.0597137
0.120939
-0.0616353
0.114085
-0.0620042
0.108252
-0.0606752
0.103564
-0.0575735
0.099906
-0.0526182
0.096758
-0.0458854
0.0931793
-0.0377862
0.0883735
-0.0289237
0.0828593
-0.0196699
0.0788528
-0.00948553
0.0790773
0.00334988
0.0848482
0.0201613
0.0954477
0.0412988
0.108864
0.0657091
0.123364
0.091135
0.138061
0.114617
0.152147
0.132143
0.164012
0.138071
0.172056
0.123803
0.175812
0.0818378
0.175286
0.0166984
0.170491
-0.0507001
0.16262
-0.10295
0.153766
-0.134404
0.145602
-0.149317
0.138506
-0.153649
0.132371
-0.152867
0.127301
-0.149322
0.122091
-0.142639
0.115615
-0.136186
0.109726
-0.125209
0.1088
-0.106334
0.115699
-0.0655365
0.129203
-0.013818
0.145141
0.0563661
0.158548
0.136052
0.166959
0.221805
0.169342
0.290166
0.167393
0.289986
0.162436
0.224141
0.157055
0.0740447
0.1544
-0.0577631
0.153454
-0.162632
0.151435
-0.189797
0.144671
-0.203294
0.139077
-0.252699
0.139401
-0.198917
0.143298
-0.166328
0.145548
0.0535527
0.144197
0.177083
0.143925
0.268428
0.145275
0.364846
0.125953
0.17111
-0.0242308
0.165063
-0.0295035
0.158034
-0.034052
0.15057
-0.039109
0.142773
-0.0441557
0.13486
-0.0485232
0.127145
-0.0519983
0.119927
-0.0544177
0.113499
-0.0555759
0.108135
-0.0553114
0.104003
-0.0534418
0.101142
-0.0497568
0.0993911
-0.0441346
0.0982624
-0.0366576
0.0969862
-0.0276475
0.0949678
-0.0176515
0.0926487
-0.00716641
0.091063
0.00493554
0.0924682
0.0187561
0.0983704
0.0353966
0.10827
0.0558093
0.120977
0.0784283
0.135313
0.100281
0.149808
0.117648
0.162303
0.125577
0.171163
0.114943
0.175813
0.0771878
0.175135
0.0173758
0.169642
-0.0452068
0.16069
-0.0939976
0.150922
-0.124636
0.142222
-0.140617
0.134989
-0.146416
0.128818
-0.146696
0.123884
-0.144388
0.119467
-0.138222
0.114136
-0.130855
0.108692
-0.119765
0.107029
-0.104672
0.112611
-0.0711182
0.125177
-0.0263842
0.141352
0.0401909
0.156164
0.12124
0.166534
0.211435
0.170538
0.286161
0.169468
0.291056
0.164622
0.228987
0.158647
0.0800198
0.154902
-0.0540179
0.153235
-0.160965
0.151324
-0.187886
0.144665
-0.196636
0.138616
-0.24665
0.138741
-0.199041
0.142968
-0.170555
0.145875
0.0506461
0.144676
0.178282
0.144647
0.268457
0.146624
0.362869
0.125269
0.163423
-0.0204125
0.157832
-0.0239131
0.151758
-0.0279772
0.145242
-0.0325938
0.138378
-0.0372913
0.131466
-0.0416116
0.124762
-0.0452943
0.118493
-0.0481482
0.112881
-0.049964
0.108105
-0.0505356
0.104319
-0.0496561
0.101683
-0.0471199
0.100304
-0.0427565
0.100125
-0.0364779
0.100777
-0.0282996
0.101566
-0.0184403
0.101709
-0.0073097
0.101812
0.00483278
0.10285
0.0177176
0.106117
0.0321294
0.11261
0.0493162
0.122319
0.0687201
0.134589
0.0880109
0.148006
0.104231
0.160469
0.113114
0.170187
0.105224
0.175463
0.0719122
0.17491
0.0179282
0.168115
-0.0384111
0.158173
-0.084056
0.147846
-0.11431
0.138859
-0.13163
0.131594
-0.139151
0.125439
-0.140541
0.120507
-0.139456
0.116636
-0.134351
0.112409
-0.126628
0.107558
-0.114914
0.105303
-0.102417
0.109573
-0.0753875
0.120893
-0.0377045
0.136905
0.024179
0.152703
0.105441
0.16491
0.199228
0.170687
0.280385
0.170735
0.291008
0.166211
0.233512
0.159988
0.0862429
0.155232
-0.0492626
0.152876
-0.158608
0.151065
-0.186076
0.144608
-0.190179
0.138162
-0.240204
0.138021
-0.198901
0.142535
-0.175069
0.146189
0.046992
0.145204
0.179267
0.145459
0.268202
0.148133
0.360195
0.124105
0.201585
-0.0167157
-0.205282
0.198756
-0.021084
0.195618
-0.0248388
0.191892
-0.0288685
0.18755
-0.0329492
0.182685
-0.0367461
0.177399
-0.0400083
0.171775
-0.0425248
0.165913
-0.044102
0.159929
-0.0445514
0.153954
-0.0436814
0.148138
-0.0413036
0.14263
-0.0372487
0.137557
-0.0314048
0.132961
-0.0237029
0.128675
-0.0141546
0.124484
-0.00311933
0.11988
0.00943759
0.115278
0.0223188
0.111518
0.0358899
0.109989
0.0508452
0.111974
0.0667347
0.118112
0.0818734
0.12829
0.094053
0.142521
0.0988827
0.160464
0.0872816
0.178533
0.0538432
0.190694
0.00576639
0.195358
-0.0430747
0.193127
-0.0818252
0.18662
-0.107803
0.178221
-0.12323
0.169547
-0.130476
0.160967
-0.131962
0.152882
-0.131371
0.145654
-0.127122
0.13825
-0.119224
0.129749
-0.106412
0.122119
-0.0947873
0.1192
-0.0724686
0.122199
-0.0407037
0.128755
0.0176229
0.135125
0.0990717
0.139783
0.19457
0.143319
0.276849
0.147979
0.286348
0.15362
0.22787
0.157904
0.0819591
0.159775
-0.0511336
0.159187
-0.15802
0.156097
-0.182986
0.148909
-0.182991
0.140282
-0.231577
0.136366
-0.194985
0.135575
-0.174278
0.134561
0.0480062
0.131763
0.182065
0.131436
0.268529
0.135351
0.35628
0.122631
0.210383
-0.0139216
-0.213177
0.207357
-0.0180583
0.204288
-0.0217695
0.200749
-0.0253297
0.19665
-0.0288506
0.192066
-0.0321623
0.187086
-0.0350279
0.181795
-0.0372338
0.176292
-0.0385993
0.170696
-0.0389553
0.165143
-0.0381281
0.159783
-0.0359431
0.154771
-0.0322375
0.150256
-0.0268894
0.146369
-0.0198155
0.143158
-0.0109443
0.140354
-0.000314915
0.137928
0.0118634
0.135574
0.0246731
0.133647
0.0378172
0.133204
0.0512875
0.135586
0.0643526
0.141699
0.0757611
0.151904
0.0838475
0.166275
0.0845123
0.183276
0.0702805
0.198573
0.0385462
0.207867
-0.00352819
0.209611
-0.0448181
0.205474
-0.0776889
0.197768
-0.100096
0.188636
-0.114098
0.179568
-0.121408
0.170808
-0.123202
0.16247
-0.123033
0.155031
-0.119684
0.147866
-0.112059
0.139697
-0.0982431
0.1318
-0.0868911
0.127975
-0.0686429
0.130158
-0.0428869
0.136677
0.0111042
0.143611
0.0921377
0.149183
0.188998
0.153797
0.272235
0.159682
0.280463
0.166268
0.221284
0.170924
0.0773039
0.172372
-0.0525819
0.170892
-0.156541
0.167141
-0.179234
0.159301
-0.175151
0.149826
-0.222102
0.145155
-0.190314
0.144327
-0.17345
0.143479
0.0488545
0.140482
0.185061
0.140296
0.268716
0.144989
0.351587
0.120892
0.219022
-0.0117624
-0.221182
0.216291
-0.0153273
0.21328
-0.018758
0.209915
-0.021965
0.206088
-0.0250238
0.201809
-0.0278834
0.197152
-0.0303703
0.192205
-0.0322866
0.187065
-0.0334597
0.181846
-0.0337363
0.176681
-0.0329629
0.171722
-0.0309844
0.167134
-0.0276494
0.163077
-0.0228324
0.159707
-0.0164454
0.157172
-0.00840985
0.155529
0.0013285