/*--------------------------------*- C++ -*----------------------------------*\
| =========                 |                                                 |
| \\      /  F ield         | OpenFOAM: The Open Source CFD Toolbox           |
|  \\    /   O peration     | Version:  2512                                  |
|   \\  /    A nd           | Website:  www.openfoam.com                      |
|    \\/     M anipulation  |                                                 |
\*---------------------------------------------------------------------------*/
FoamFile
{
    version     2.0;
    format      ascii;
    arch        "LSB;label=32;scalar=64";
    class       volScalarField;
    location    "36.25";
    object      p;
}
// * * * * * * * * * * * * * * * * * * * * * * * * * * * * * * * * * * * * * //

dimensions      [0 2 -2 0 0 0 0];

internalField   nonuniform List<scalar> 
13248
(
-0.275544
-0.274235
-0.272432
-0.270278
-0.267925
-0.265501
-0.26309
-0.260722
-0.258393
-0.256068
-0.253694
-0.251206
-0.248535
-0.245622
-0.242417
-0.23889
-0.235034
-0.230863
-0.226405
-0.221736
-0.216848
-0.212005
-0.206753
-0.202166
-0.282384
-0.280419
-0.277974
-0.275195
-0.27223
-0.269229
-0.26627
-0.263376
-0.26052
-0.257644
-0.254673
-0.251524
-0.248122
-0.244412
-0.24036
-0.23596
-0.231232
-0.226215
-0.220967
-0.21555
-0.210021
-0.204461
-0.198791
-0.193583
-0.290469
-0.287693
-0.284499
-0.281026
-0.2774
-0.273771
-0.27021
-0.266709
-0.26321
-0.259625
-0.255857
-0.251822
-0.247456
-0.242731
-0.23765
-0.232247
-0.226581
-0.220724
-0.214749
-0.208735
-0.20272
-0.196793
-0.190888
-0.185353
-0.299975
-0.29622
-0.292178
-0.28795
-0.283611
-0.279291
-0.275031
-0.270777
-0.266432
-0.261885
-0.257041
-0.251838
-0.246257
-0.240321
-0.23409
-0.227643
-0.221073
-0.214467
-0.207902
-0.201437
-0.195102
-0.188958
-0.182925
-0.177396
-0.311022
-0.306128
-0.301145
-0.296107
-0.290988
-0.285874
-0.28075
-0.275511
-0.27003
-0.264203
-0.257973
-0.25134
-0.244358
-0.237118
-0.229729
-0.222302
-0.214937
-0.20771
-0.200675
-0.193865
-0.187292
-0.180979
-0.174875
-0.16926
-0.323646
-0.317472
-0.311478
-0.305573
-0.299578
-0.293497
-0.28725
-0.280694
-0.27371
-0.266249
-0.258343
-0.250085
-0.241611
-0.233067
-0.224588
-0.216284
-0.208232
-0.20048
-0.193052
-0.185952
-0.179176
-0.17272
-0.166542
-0.16085
-0.337762
-0.33021
-0.323156
-0.316313
-0.309282
-0.301964
-0.294226
-0.285935
-0.277045
-0.267626
-0.257831
-0.247857
-0.237901
-0.228129
-0.218666
-0.209592
-0.200947
-0.192745
-0.184977
-0.177627
-0.170673
-0.164092
-0.157855
-0.152079
-0.353129
-0.344161
-0.336013
-0.32812
-0.319806
-0.310869
-0.30118
-0.290698
-0.279534
-0.26792
-0.256142
-0.244467
-0.233114
-0.222229
-0.211896
-0.202151
-0.192991
-0.184395
-0.176332
-0.168766
-0.161659
-0.154979
-0.148702
-0.142857
-0.369315
-0.358958
-0.349687
-0.34057
-0.330621
-0.319588
-0.307451
-0.294368
-0.28067
-0.266763
-0.253029
-0.23976
-0.227145
-0.215279
-0.204192
-0.193867
-0.184264
-0.175334
-0.167022
-0.159279
-0.152056
-0.145313
-0.139022
-0.133134
-0.385668
-0.374014
-0.363572
-0.35297
-0.340945
-0.327308
-0.312281
-0.296319
-0.279992
-0.263844
-0.248292
-0.233596
-0.21988
-0.207173
-0.195442
-0.184628
-0.174656
-0.165453
-0.15695
-0.14908
-0.141785
-0.13502
-0.128739
-0.122844
-0.401321
-0.388503
-0.376795
-0.364364
-0.349777
-0.33307
-0.314847
-0.295902
-0.277012
-0.258791
-0.241624
-0.225697
-0.211051
-0.197643
-0.185386
-0.17418
-0.163927
-0.154531
-0.145906
-0.137976
-0.130674
-0.123945
-0.117714
-0.111872
-0.41526
-0.401459
-0.388369
-0.373718
-0.356079
-0.335906
-0.314293
-0.292374
-0.271072
-0.250993
-0.232439
-0.215491
-0.200099
-0.18615
-0.173508
-0.16204
-0.151622
-0.142141
-0.133499
-0.125607
-0.118392
-0.111788
-0.105691
-0.100033
-0.242546
-0.244464
-0.245693
-0.24652
-0.247202
-0.247803
-0.24835
-0.24886
-0.249339
-0.249784
-0.250184
-0.250528
-0.250804
-0.250998
-0.251098
-0.251091
-0.250967
-0.250719
-0.250344
-0.249848
-0.249237
-0.248523
-0.247777
-0.24713
-0.242173
-0.244072
-0.245281
-0.246085
-0.246734
-0.247288
-0.247773
-0.248202
-0.248581
-0.248901
-0.249153
-0.249322
-0.249394
-0.249354
-0.249186
-0.248876
-0.248414
-0.247791
-0.247005
-0.246064
-0.244976
-0.243746
-0.242444
-0.241404
-0.242581
-0.244373
-0.245508
-0.24625
-0.246836
-0.247319
-0.247722
-0.248056
-0.248323
-0.248513
-0.248614
-0.248609
-0.248482
-0.248214
-0.247788
-0.247188
-0.246399
-0.24541
-0.244216
-0.242823
-0.241242
-0.239459
-0.237527
-0.236017
-0.24371
-0.245321
-0.246333
-0.246978
-0.24747
-0.247856
-0.248155
-0.248377
-0.248519
-0.248571
-0.248518
-0.248341
-0.248022
-0.247539
-0.246874
-0.246006
-0.244917
-0.243591
-0.242017
-0.240196
-0.238139
-0.235819
-0.233213
-0.231022
-0.245463
-0.246841
-0.247688
-0.248201
-0.248565
-0.248824
-0.248993
-0.24908
-0.249081
-0.248984
-0.248771
-0.248423
-0.247918
-0.247234
-0.24635
-0.245242
-0.24389
-0.242272
-0.240372
-0.23818
-0.235703
-0.232918
-0.229689
-0.226562
-0.24773
-0.248845
-0.249492
-0.249837
-0.250037
-0.250132
-0.250138
-0.250062
-0.249898
-0.249634
-0.24925
-0.248726
-0.248039
-0.247165
-0.24608
-0.244761
-0.243182
-0.241317
-0.239164
-0.236683
-0.23387
-0.230694
-0.226968
-0.223004
-0.250412
-0.25125
-0.25167
-0.25181
-0.251803
-0.251693
-0.251496
-0.25122
-0.250861
-0.250405
-0.249833
-0.249123
-0.24825
-0.247191
-0.245919
-0.244412
-0.242646
-0.2406
-0.238226
-0.235522
-0.232466
-0.229011
-0.225129
-0.219948
-0.253446
-0.254002
-0.254169
-0.254062
-0.253802
-0.253437
-0.252991
-0.252475
-0.251884
-0.251207
-0.250424
-0.249511
-0.248444
-0.247196
-0.245741
-0.244053
-0.242107
-0.239879
-0.237342
-0.234471
-0.231265
-0.227544
-0.223972
-0.217633
-0.256818
-0.25709
-0.256972
-0.256571
-0.256006
-0.255333
-0.254588
-0.253785
-0.252924
-0.251993
-0.250973
-0.249839
-0.248562
-0.247115
-0.245469
-0.243594
-0.241467
-0.239062
-0.236363
-0.233336
-0.230072
-0.226084
-0.223059
-0.216269
-0.260577
-0.260548
-0.260107
-0.259355
-0.258429
-0.257394
-0.256298
-0.255162
-0.253991
-0.252773
-0.251486
-0.250103
-0.248592
-0.246918
-0.245049
-0.242953
-0.240604
-0.237985
-0.235091
-0.231887
-0.22858
-0.224503
-0.221837
-0.21557
-0.264836
-0.264465
-0.26364
-0.262483
-0.26113
-0.259673
-0.258171
-0.256655
-0.255129
-0.253582
-0.251988
-0.250311
-0.248513
-0.246552
-0.244387
-0.241985
-0.239319
-0.23638
-0.233176
-0.229712
-0.226187
-0.222219
-0.219494
-0.21442
-0.269763
-0.268974
-0.267696
-0.26606
-0.264215
-0.262277
-0.260319
-0.258375
-0.256451
-0.254529
-0.252573
-0.250537
-0.248369
-0.246017
-0.243433
-0.240581
-0.237439
-0.234004
-0.23029
-0.226355
-0.222261
-0.218126
-0.214582
-0.210737
-0.246556
-0.245747
-0.244941
-0.24414
-0.243363
-0.242644
-0.242019
-0.241537
-0.24125
-0.24121
-0.241459
-0.242012
-0.242839
-0.243834
-0.244786
-0.245346
-0.244982
-0.242909
-0.237772
-0.231303
-0.220557
-0.205744
-0.187047
-0.165131
-0.141183
-0.116628
-0.092742
-0.0705167
-0.0505157
-0.0328528
-0.0171922
-0.00327623
0.00881103
0.0189373
0.0268444
0.0323113
0.0355496
0.0368442
0.0366013
0.0353397
0.0333752
0.031036
0.0285928
0.0261911
0.0238925
0.0216842
0.0195986
0.0175997
0.0156399
0.0137846
0.0119959
0.0103751
0.00884914
0.00751161
0.0062219
0.00512215
0.00393077
0.00293766
0.00170828
0.000734748
-0.240818
-0.239823
-0.238995
-0.238352
-0.237932
-0.237801
-0.238024
-0.238669
-0.239808
-0.241499
-0.243757
-0.24656
-0.249806
-0.253294
-0.256686
-0.259495
-0.261048
-0.260542
-0.257638
-0.249447
-0.237322
-0.220362
-0.198727
-0.173232
-0.145327
-0.116737
-0.0890639
-0.0636458
-0.0413978
-0.0226014
-0.00701232
0.00580582
0.0161664
0.0243101
0.0303484
0.0341589
0.0361206
0.0364907
0.0356229
0.0340777
0.0320295
0.029771
0.0275172
0.0253601
0.0233
0.0213232
0.0194166
0.0175637
0.0157094
0.0139263
0.0121716
0.0105593
0.00901489
0.00765101
0.00632852
0.00520318
0.0039824
0.00297399
0.00172518
0.000747187
-0.235709
-0.234495
-0.233613
-0.233106
-0.233
-0.233393
-0.234375
-0.236029
-0.238443
-0.24168
-0.245716
-0.250499
-0.255858
-0.261496
-0.266962
-0.271629
-0.274701
-0.275229
-0.272452
-0.264313
-0.251243
-0.232508
-0.20845
-0.180059
-0.148999
-0.117201
-0.0865201
-0.0585675
-0.0343994
-0.0144716
0.00133338
0.0134818
0.0225287
0.029006
0.0333958
0.0355843
0.0363065
0.035787
0.034321
0.0325891
0.0305307
0.0284182
0.0264087
0.0245096
0.0226923
0.0209344
0.0191965
0.0174787
0.0157263
0.0140158
0.0123027
0.0107074
0.00915314
0.00776831
0.00642138
0.00527364
0.00402588
0.00300289
0.0017376
0.000754287
-0.231429
-0.229945
-0.22894
-0.228532
-0.228675
-0.229492
-0.231095
-0.233579
-0.237033
-0.241535
-0.246974
-0.253337
-0.260369
-0.267706
-0.274808
-0.28094
-0.285158
-0.286284
-0.283883
-0.275932
-0.262107
-0.242058
-0.216182
-0.185626
-0.152223
-0.118108
-0.0853357
-0.0556152
-0.0300574
-0.0092034
0.00695493
0.0188275
0.0270475
0.0323116
0.0355187
0.0362647
0.0359504
0.0347049
0.0327259
0.0309676
0.0289753
0.0270902
0.0253209
0.0236787
0.0220886
0.0205255
0.0189394
0.0173425
0.0156855
0.0140458
0.0123804
0.0108093
0.00925279
0.0078573
0.00649541
0.00532968
0.00405926
0.00302319
0.0017452
0.00075576
-0.228049
-0.226442
-0.225139
-0.224734
-0.225039
-0.226141
-0.228167
-0.231228
-0.235416
-0.240789
-0.247289
-0.254793
-0.263038
-0.271611
-0.279917
-0.287155
-0.29234
-0.294541
-0.29201
-0.284048
-0.269827
-0.249006
-0.222014
-0.190108
-0.155252
-0.119735
-0.0857192
-0.0549426
-0.0285249
-0.00702701
0.00949382
0.0213676
0.0292055
0.0337353
0.0354373
0.0359608
0.034969
0.0332669
0.0308586
0.0293
0.0274689
0.0257966
0.0242788
0.0228715
0.0214832
0.0200894
0.0186379
0.0171492
0.0155816
0.0140108
0.0123978
0.0108576
0.00931094
0.00791373
0.0065463
0.00536775
0.00408083
0.00303389
0.00174783
0.0007517
-0.225494
-0.224103
-0.222374
-0.221769
-0.222126
-0.223384
-0.225642
-0.229036
-0.233664
-0.239561
-0.246677
-0.254867
-0.263849
-0.273183
-0.282242
-0.290195
-0.296029
-0.29857
-0.296499
-0.288749
-0.274514
-0.253477
-0.2261
-0.193697
-0.158295
-0.122246
-0.087743
-0.0565115
-0.0296619
-0.00775689
0.00910273
0.0211713
0.0289988
0.0333036
0.034815
0.0347685
0.0334421
0.0316071
0.0300506
0.0277047
0.0260061
0.0245666
0.0232772
0.0220761
0.0208634
0.0196161
0.0182848
0.0168948
0.0154124
0.01391
0.0123534
0.0108507
0.00932578
0.00793583
0.00657161
0.00538565
0.00408961
0.00303453
0.00174575
0.000742639
-0.223791
-0.222938
-0.220723
-0.21972
-0.219997
-0.221278
-0.223568
-0.227033
-0.231793
-0.237871
-0.245211
-0.253659
-0.262932
-0.272584
-0.281978
-0.290233
-0.296421
-0.299283
-0.29758
-0.290184
-0.276281
-0.255563
-0.228507
-0.196443
-0.16138
-0.125618
-0.0912913
-0.0600936
-0.0331261
-0.0109641
0.00624249
0.0186703
0.0267914
0.0312781
0.0329359
0.0328038
0.0315099
0.0297342
0.0280627
0.0261091
0.0246156
0.0233906
0.022303
0.0212799
0.0202191
0.0191003
0.0178781
0.0165808
0.015181
0.0137473
0.0122506
0.0107913
0.00929815
0.00792513
0.00657111
0.00538279
0.0040855
0.00302526
0.00173945
0.000729461
-0.222596
-0.222572
-0.219979
-0.218497
-0.218606
-0.219773
-0.221904
-0.225207
-0.22982
-0.235757
-0.242959
-0.251279
-0.260437
-0.270003
-0.279379
-0.287757
-0.293781
-0.296897
-0.295512
-0.288607
-0.275347
-0.255433
-0.229332
-0.198343
-0.164389
-0.129631
-0.0960463
-0.065273
-0.0384196
-0.0160951
0.0014847
0.0144091
0.0230585
0.028034
0.0301295
0.0302964
0.0292698
0.0277241
0.02618
0.0245638
0.0232847
0.0222562
0.0213451
0.0204749
0.0195472
0.0185435
0.0174227
0.016214
0.0148952
0.0135307
0.0120963
0.0106852
0.0092323
0.00788827
0.00654611
0.00536005
0.00406913
0.00300674
0.00172959
0.000713246
-0.221561
-0.222114
-0.219436
-0.217735
-0.21771
-0.218627
-0.220435
-0.223396
-0.227637
-0.233162
-0.239924
-0.24779
-0.256497
-0.265617
-0.27462
-0.283097
-0.288821
-0.291759
-0.29063
-0.284312
-0.271949
-0.253251
-0.228641
-0.199324
-0.167077
-0.13388
-0.101489
-0.0714529
-0.0449026
-0.0225031
-0.00455155
0.00894864
0.0182778
0.0239491
0.0267009
0.0274245
0.0268527
0.0256651
0.02437
0.0230623
0.0220015
0.0211527
0.0203963
0.0196598
0.0188511
0.0179531
0.0169281
0.0158053
0.0145657
0.0132709
0.0118997
0.0105404
0.0091346
0.00789462
0.00649886
0.00531941
0.00404165
0.00298009
0.00171679
0.000695112
-0.220134
-0.220501
-0.218149
-0.216784
-0.21673
-0.217356
-0.218796
-0.221318
-0.225013
-0.229908
-0.235989
-0.243138
-0.25111
-0.259497
-0.267749
-0.274986
-0.281285
-0.284231
-0.283419
-0.277789
-0.266548
-0.249408
-0.226711
-0.199505
-0.169377
-0.138111
-0.107239
-0.0781747
-0.052068
-0.029663
-0.0113576
0.00274679
0.012829
0.019308
0.0228427
0.0242834
0.0243103
0.023578
0.0226049
0.0215965
0.020751
0.0200686
0.0194516
0.0188357
0.0181367
0.0173384
0.0164054
0.0153664
0.0142047
0.0129793
0.0116713
0.0103657
0.00900846
0.0077718
0.0064294
0.00526329
0.00400465
0.00294674
0.00170175
0.000676179
-0.217346
-0.217169
-0.215705
-0.214921
-0.214818
-0.2153
-0.216545
-0.218673
-0.221779
-0.225966
-0.231261
-0.237574
-0.244719
-0.252315
-0.25989
-0.266652
-0.27183
-0.274829
-0.27444
-0.269688
-0.259862
-0.244655
-0.224295
-0.199604
-0.171902
-0.142772
-0.113624
-0.0856869
-0.0600988
-0.037687
-0.0189772
-0.0041876
0.00675051
0.0141575
0.0185943
0.0208259
0.0215645
0.0213906
0.0208148
0.0201204
0.0194973
0.0189791
0.0184959
0.0179948
0.0174011
0.0166998
0.0158573
0.0149017
0.0138172
0.0126619
0.0114174
0.010167
0.00885936
0.00763469
0.00633774
0.00519211
0.00395922
0.00290785
0.00168478
0.000657438
-0.212409
-0.212588
-0.211937
-0.211295
-0.211147
-0.211665
-0.212794
-0.214558
-0.217086
-0.22051
-0.224874
-0.230128
-0.236125
-0.242589
-0.249287
-0.25552
-0.260409
-0.262965
-0.262807
-0.258945
-0.250652
-0.237571
-0.219775
-0.197837
-0.172772
-0.145898
-0.118554
-0.0919803
-0.0672723
-0.0452101
-0.0263905
-0.0111302
0.000535957
0.00882077
0.0141662
0.0172111
0.0186244
0.019028
0.0189014
0.0185527
0.0181785
0.017842
0.0175026
0.0171216
0.0166357
0.0160325
0.0152809
0.014409
0.0134017
0.0123169
0.0111361
0.00994212
0.00868462
0.00749058
0.00622861
0.0051059
0.00390324
0.00286201
0.00166388
0.000638765
-0.205189
-0.208217
-0.207865
-0.207017
-0.206898
-0.207578
-0.208831
-0.210605
-0.21302
-0.216204
-0.22021
-0.224999
-0.230445
-0.236341
-0.242303
-0.24762
-0.251682
-0.25381
-0.253276
-0.249244
-0.241099
-0.228546
-0.211686
-0.191058
-0.167588
-0.142454
-0.116858
-0.0919084
-0.0685784
-0.0476162
-0.0295743
-0.0147634
-0.0032454
0.00514301
0.0107755
0.014205
0.0160375
0.0168381
0.0170544
0.0169966
0.0168558
0.0167037
0.0165163
0.0162633
0.0158904
0.0153869
0.0147257
0.0139348
0.013001
0.0119814
0.0108591
0.00971581
0.00850255
0.00734122
0.00610674
0.00501383
0.00383817
0.0028104
0.00163803
0.000619558
-0.197237
-0.202304
-0.20252
-0.201468
-0.201263
-0.202111
-0.20361
-0.205545
-0.207967
-0.210996
-0.214687
-0.219005
-0.223825
-0.228936
-0.233929
-0.238133
-0.241225
-0.242477
-0.241215
-0.236791
-0.228713
-0.216757
-0.201038
-0.182028
-0.16051
-0.137476
-0.113954
-0.0909154
-0.0692256
-0.0495748
-0.0324764
-0.0182414
-0.00696327
0.00146985
0.00735923
0.0111692
0.0134256
0.0146338
0.0152062
0.0154444
0.0155328
0.0155545
0.0155027
0.0153608
0.0150851
0.0146702
0.0140923
0.0133798
0.0125208
0.0115707
0.0105137
0.00942848
0.00826934
0.00714998
0.00596163
0.00489917
0.003758
0.00274798
0.00160676
0.000598745
-0.188492
-0.194919
-0.195846
-0.194926
-0.194758
-0.19578
-0.19752
-0.199618
-0.202038
-0.204882
-0.208209
-0.211986
-0.21608
-0.220267
-0.224384
-0.227529
-0.229661
-0.230074
-0.228239
-0.22364
-0.215868
-0.204741
-0.19035
-0.173072
-0.153543
-0.132583
-0.111076
-0.0898774
-0.0697657
-0.0513809
-0.0352098
-0.0215632
-0.0105594
-0.00212912
0.00396669
0.00811402
0.0107636
0.012363
0.0132859
0.0138173
0.014135
0.0143317
0.0144167
0.0143872
0.0142103
0.0138862
0.0133944
0.0127638
0.0119836
0.0111076
0.0101214
0.00909974
0.00800102
0.00693114
0.00579709
0.00476656
0.00366428
0.00267531
0.0015702
0.000576805
-0.17938
-0.186487
-0.188173
-0.18768
-0.187687
-0.188845
-0.190736
-0.192924
-0.195292
-0.197912
-0.200847
-0.204072
-0.207454
-0.21078
-0.21372
-0.216351
-0.217715
-0.217492
-0.215289
-0.210681
-0.203329
-0.193077
-0.179989
-0.164361
-0.146711
-0.127716
-0.108133
-0.0887088
-0.0701362
-0.0530022
-0.037764
-0.0247276
-0.0140314
-0.0056451
0.000613214
0.00505812
0.00806985
0.0100394
0.011301
0.0121203
0.0126685
0.0130452
0.0132734
0.0133626
0.0132902
0.0130614
0.0126599
0.0121147
0.0114168
0.0106179
0.00970501
0.00874954
0.00771402
0.00669677
0.00561804
0.00462215
0.00356155
0.00259646
0.00153024
0.000554906
-0.169883
-0.1774
-0.179827
-0.179884
-0.180144
-0.18141
-0.183378
-0.185601
-0.187899
-0.190308
-0.192885
-0.19562
-0.198402
-0.201062
-0.203365
-0.20513
-0.205832
-0.20513
-0.202686
-0.198152
-0.191251
-0.181849
-0.169989
-0.155907
-0.140015
-0.122872
-0.105114
-0.0873873
-0.0703033
-0.0543951
-0.0400893
-0.027683
-0.0173297
-0.00903267
-0.00266127
0.002035
0.00537109
0.00768316
0.00926659
0.0103655
0.0111428
0.0117025
0.0120786
0.0122912
0.0123275
0.0121979
0.01189
0.0114333
0.0108204
0.0101012
0.00926431
0.00837737
0.00740767
0.00644547
0.0054232
0.00446561
0.0034496
0.00251153
0.00148651
0.000532973
-0.160208
-0.168003
-0.171046
-0.171637
-0.172179
-0.173549
-0.175559
-0.177789
-0.180022
-0.182252
-0.184529
-0.18685
-0.189133
-0.191229
-0.192937
-0.194046
-0.194224
-0.193162
-0.190567
-0.186161
-0.17972
-0.17113
-0.160418
-0.147766
-0.133502
-0.118081
-0.102032
-0.0859098
-0.0702506
-0.0555332
-0.0421516
-0.0303907
-0.0204137
-0.0122523
-0.00582029
-0.000923746
0.00269287
0.00531395
0.00719678
0.00856237
0.00956396
0.0103067
0.0108333
0.0111729
0.0113213
0.0112942
0.0110828
0.0107173
0.0101922
0.00955513
0.00879701
0.00798118
0.00708002
0.00617557
0.005212
0.00429644
0.00332773
0.0024201
0.00143839
0.000510821
-0.150676
-0.158502
-0.161982
-0.163043
-0.163867
-0.165347
-0.167385
-0.169606
-0.171778
-0.173861
-0.175891
-0.177872
-0.179738
-0.181362
-0.18258
-0.183201
-0.182979
-0.181656
-0.178989
-0.174756
-0.168776
-0.160954
-0.151302
-0.13996
-0.127188
-0.113351
-0.0988897
-0.0842737
-0.069969
-0.0564013
-0.0439303
-0.0328261
-0.0232565
-0.0152759
-0.00883604
-0.00379246
5.73477e-05
0.0029497
0.00510518
0.00672088
0.00793854
0.00886213
0.00954024
0.0100094
0.0102729
0.010351
0.0102388
0.00996696
0.00953206
0.00897965
0.00830286
0.00756073
0.00673077
0.00588704
0.00498453
0.00411446
0.00319558
0.00232202
0.00138559
0.000488332
-0.141335
-0.148998
-0.15277
-0.154226
-0.155311
-0.156897
-0.158953
-0.161153
-0.163265
-0.165226
-0.167056
-0.16876
-0.170288
-0.17154
-0.172377
-0.172635
-0.172121
-0.170628
-0.167959
-0.163936
-0.158414
-0.151311
-0.142633
-0.132485
-0.121072
-0.108687
-0.0956914
-0.0824814
-0.0694573
-0.0569935
-0.045415
-0.0349741
-0.0258391
-0.018082
-0.0116857
-0.00654845
-0.0025144
0.000608823
0.00300693
0.00485286
0.00627546
0.0073752
0.00820407
0.00880397
0.00918451
0.00936986
0.00935906
0.00918308
0.00884064
0.00837513
0.00778207
0.00711612
0.00635996
0.00557981
0.00474059
0.00391947
0.00305288
0.00221721
0.00132793
0.000465329
-0.132185
-0.139606
-0.143555
-0.145318
-0.146622
-0.148295
-0.150357
-0.152525
-0.154576
-0.156433
-0.158101
-0.159587
-0.160854
-0.161819
-0.162369
-0.162364
-0.161653
-0.16007
-0.157459
-0.153674
-0.148601
-0.142172
-0.134388
-0.125326
-0.115148
-0.104089
-0.0924425
-0.0805391
-0.0687197
-0.0573104
-0.0466014
-0.0368259
-0.0281486
-0.0206537
-0.0143498
-0.00917099
-0.00500196
-0.0016899
0.000918275
0.00297165
0.00458515
0.00585367
0.00683036
0.00756057
0.00805895
0.00835295
0.00844512
0.00836668
0.00811855
0.00774191
0.00723473
0.00664734
0.00596737
0.00525358
0.00447989
0.00371118
0.0028993
0.0021055
0.00126528
0.000441579
-0.123342
-0.130443
-0.134453
-0.136429
-0.137899
-0.139635
-0.141687
-0.143811
-0.145799
-0.147565
-0.149104
-0.150421
-0.151489
-0.152241
-0.152582
-0.152401
-0.151573
-0.149968
-0.147461
-0.143937
-0.139303
-0.133505
-0.126539
-0.118466
-0.109411
-0.0995586
-0.0891492
-0.0784549
-0.0677639
-0.0573569
-0.0474906
-0.0383775
-0.030176
-0.022978
-0.0168119
-0.0116414
-0.00738594
-0.00392785
-0.00114404
0.00109147
0.00287907
0.00430637
0.00542568
0.00628398
0.00689972
0.00730272
0.00749873
0.00751899
0.00736659
0.00708047
0.00666104
0.00615442
0.00555281
0.00490812
0.00420221
0.00348935
0.00273455
0.00198667
0.00119751
0.000416833
-0.114876
-0.121568
-0.125538
-0.127647
-0.129233
-0.131002
-0.133025
-0.135095
-0.137016
-0.138701
-0.140136
-0.141324
-0.142244
-0.142843
-0.143043
-0.142754
-0.141875
-0.140303
-0.137938
-0.134688
-0.130482
-0.125274
-0.119062
-0.111888
-0.10385
-0.0950959
-0.0858176
-0.0762386
-0.0665999
-0.0571414
-0.0480874
-0.0396294
-0.0319169
-0.0250453
-0.0190581
-0.0139429
-0.00964815
-0.00608683
-0.00316303
-0.00077276
0.00116963
0.00274317
0.00399761
0.00497993
0.00571106
0.00622234
0.00652221
0.0066417
0.00658593
0.00639162
0.00606146
0.00563757
0.0051163
0.00454333
0.00390736
0.00325376
0.00255846
0.00186047
0.00112458
0.000390871
-0.106768
-0.113014
-0.116876
-0.11905
-0.120702
-0.122475
-0.124452
-0.126455
-0.128305
-0.129915
-0.131264
-0.132354
-0.133167
-0.133662
-0.133776
-0.133434
-0.132556
-0.131059
-0.128864
-0.125899
-0.122106
-0.117452
-0.11193
-0.105574
-0.0984591
-0.0907014
-0.0824548
-0.0739012
-0.0652404
-0.0566753
-0.0484001
-0.0405853
-0.0333698
-0.0268494
-0.0210776
-0.0160609
-0.0117718
-0.00814928
-0.00512173
-0.00260565
-0.000529952
0.00117493
0.00255481
0.00365515
0.00449814
0.00511577
0.00551857
0.0057371
0.00577824
0.00567656
0.00543678
0.00509731
0.00465807
0.00415928
0.00359531
0.0030043
0.00237088
0.00172667
0.00104645
0.000363512
-0.0990327
-0.104823
-0.108526
-0.110706
-0.112379
-0.114128
-0.11604
-0.117965
-0.119739
-0.121275
-0.122552
-0.123566
-0.124305
-0.124734
-0.124802
-0.124451
-0.123614
-0.122224
-0.120218
-0.117541
-0.114147
-0.110009
-0.105121
-0.0995094
-0.0932308
-0.0863764
-0.0790688
-0.0714551
-0.0636996
-0.0559724
-0.0484401
-0.0412527
-0.0345373
-0.0283872
-0.0228623
-0.0179833
-0.0137417
-0.0100986
-0.00700349
-0.00439157
-0.0022058
-0.000386563
0.00110691
0.00231736
0.00326708
0.00398779
0.00449154
0.00480807
0.00494574
0.00493695
0.0047882
0.00453447
0.00417865
0.00375627
0.00326623
0.00274096
0.00217182
0.00158511
0.000963157
0.000334628
-0.0917033
-0.0970257
-0.100526
-0.102663
-0.10432
-0.106021
-0.107853
-0.109689
-0.111381
-0.112846
-0.114057
-0.115012
-0.115699
-0.116092
-0.116147
-0.115818
-0.115049
-0.113788
-0.111984
-0.109593
-0.10658
-0.102923
-0.0986174
-0.0936815
-0.0881597
-0.082123
-0.0756683
-0.0689137
-0.0619935
-0.0550489
-0.0482215
-0.0416419
-0.0354248
-0.0296589
-0.0244072
-0.0197003
-0.0155448
-0.0119196
-0.00879232
-0.00611497
-0.00384367
-0.00192885
-0.000335535
0.00097524
0.0020249
0.00284407
0.00344563
0.0038582
0.00409121
0.00417498
0.00411735
0.00395025
0.00367889
0.00333484
0.00292049
0.00246389
0.0019614
0.0014357
0.00087477
0.000304148
-0.0847814
-0.0896326
-0.0929025
-0.0949608
-0.0965733
-0.0982062
-0.0999467
-0.101685
-0.103289
-0.104681
-0.105832
-0.106739
-0.107391
-0.107767
-0.107831
-0.107548
-0.106866
-0.105746
-0.104148
-0.102037
-0.0993853
-0.0961748
-0.0924019
-0.0880797
-0.0832422
-0.0779445
-0.0722629
-0.0662915
-0.0601393
-0.0539227
-0.0477609
-0.0417663
-0.0360411
-0.030668
-0.0257103
-0.0212051
-0.0171701
-0.0135986
-0.0104733
-0.00776074
-0.00542922
-0.00343898
-0.00176129
-0.000361671
0.000779525
0.00169111
0.00238614
0.00289178
0.00321812
0.00339337
0.00342638
0.00334627
0.00316002
0.00289586
0.00255874
0.00217343
0.00173993
0.00127851
0.000781411
0.000272054
-0.0782522
-0.0826474
-0.0856733
-0.087628
-0.0891737
-0.0907241
-0.0923631
-0.0939976
-0.0955098
-0.0968266
-0.0979211
-0.0987869
-0.0994161
-0.0997903
-0.0998847
-0.0996515
-0.0990666
-0.0980934
-0.0967004
-0.094859
-0.0925466
-0.0897487
-0.086462
-0.0826959
-0.0784762
-0.0738453
-0.0688629
-0.0636038
-0.0581555
-0.0526134
-0.0470768
-0.0416417
-0.036398
-0.0314211
-0.0267729
-0.0224939
-0.0186095
-0.0151243
-0.0120329
-0.00931461
-0.0069484
-0.00490384
-0.00315859
-0.00168315
-0.000460343
0.000536223
0.00131916
0.00191382
0.00233056
0.00259546
0.00271795
0.00272463
0.00262365
0.00244051
0.00218191
0.00187015
0.00150786
0.00111371
0.00068326
0.000238378
-0.0721148
-0.0760745
-0.0788507
-0.0806844
-0.0821474
-0.083605
-0.0851363
-0.0866628
-0.0880798
-0.0893206
-0.0903587
-0.0911869
-0.0917983
-0.0921765
-0.0922958
-0.0921287
-0.0916493
-0.0908266
-0.0896334
-0.0880474
-0.0860511
-0.0836323
-0.0807878
-0.0775244
-0.0738614
-0.069831
-0.0654798
-0.0608665
-0.0560615
-0.0511418
-0.0461898
-0.0412864
-0.0365099
-0.0319281
-0.0275994
-0.0235658
-0.0198576
-0.0164874
-0.0134595
-0.0107635
-0.00838778
-0.00631047
-0.00451545
-0.0029785
-0.00168535
-0.000612557
0.000251492
0.000930057
0.0014333
0.00178516
0.00199528
0.0020879
0.00207188
0.00197036
0.00179122
0.00155486
0.00126579
0.000941456
0.00058059
0.000203198
-0.0663666
-0.0699122
-0.0724389
-0.0741412
-0.0755114
-0.07687
-0.0782908
-0.0797073
-0.0810278
-0.0821915
-0.0831731
-0.0839651
-0.0845607
-0.0849463
-0.0850997
-0.0849983
-0.0846213
-0.0839437
-0.0829409
-0.0815939
-0.0798889
-0.0778162
-0.0753724
-0.0725619
-0.0693991
-0.0659083
-0.0621255
-0.0580965
-0.0538772
-0.0495297
-0.0451215
-0.0407205
-0.0363937
-0.0322013
-0.0281973
-0.0244231
-0.0209119
-0.0176815
-0.0147435
-0.0120959
-0.00973496
-0.00764639
-0.00581998
-0.00423674
-0.00288569
-0.00174662
-0.000809406
-5.31372e-05
0.000531763
0.00096701
0.00126211
0.00143913
0.00150719
0.0014874
0.00138828
0.0012287
0.00101457
0.000762616
0.000473697
0.000166636
-0.0609944
-0.0641517
-0.0664356
-0.0680025
-0.0692746
-0.070532
-0.071842
-0.073149
-0.0743729
-0.0754593
-0.0763843
-0.0771403
-0.077721
-0.0781145
-0.0783037
-0.0782679
-0.077988
-0.0774446
-0.0766183
-0.0754919
-0.0740531
-0.0722939
-0.0702111
-0.0678072
-0.0650926
-0.0620854
-0.058813
-0.0553109
-0.0516232
-0.0477996
-0.0438951
-0.0399656
-0.0360684
-0.0322558
-0.028577
-0.0250714
-0.0217728
-0.0187028
-0.0158778
-0.0133023
-0.0109789
-0.0089
-0.00706067
-0.00544697
-0.00405131
-0.00285692
-0.00185554
-0.0010288
-0.000368069
0.000146144
0.000522827
0.00078192
0.000932518
0.000993925
0.000974981
0.000893168
0.000755386
0.000577665
0.000362979
0.000128818
-0.0559861
-0.058784
-0.0608362
-0.0622682
-0.0634407
-0.0645972
-0.0657986
-0.0669985
-0.0681274
-0.0691371
-0.0700056
-0.0707253
-0.0712905
-0.0716911
-0.0719125
-0.071938
-0.0717496
-0.0713296
-0.0706629
-0.069736
-0.0685379
-0.0670608
-0.0653014
-0.063261
-0.0609465
-0.0583712
-0.0555558
-0.0525274
-0.0493206
-0.0459747
-0.0425341
-0.0390447
-0.0355546
-0.0321088
-0.0287513
-0.0255186
-0.0224439
-0.0195504
-0.0168578
-0.0143752
-0.0121103
-0.0100609
-0.00822678
-0.00659862
-0.0051722
-0.00393425
-0.00287857
-0.00198949
-0.00125965
-0.00067184
-0.000217754
0.000120446
0.000351437
0.000492777
0.000553484
0.00054986
0.000489522
0.000387577
0.000248978
8.99096e-05
-0.0513314
-0.0537988
-0.0556328
-0.0569335
-0.0580079
-0.0590662
-0.060163
-0.0612598
-0.0622967
-0.0632313
-0.0640438
-0.0647269
-0.0652754
-0.0656803
-0.0659293
-0.0660096
-0.0659018
-0.0655933
-0.0650708
-0.0643228
-0.0633397
-0.0621144
-0.060643
-0.0589255
-0.0569666
-0.0547757
-0.0523679
-0.0497639
-0.0469904
-0.0440781
-0.0410628
-0.0379815
-0.0348744
-0.0317797
-0.0287358
-0.025776
-0.0229317
-0.0202265
-0.0176818
-0.0153098
-0.0131219
-0.0111203
-0.00930865
-0.0076818
-0.00623869
-0.00496942
-0.00387001
-0.00292752
-0.00213602
-0.00148074
-0.000954337
-0.000540904
-0.00023223
-1.25921e-05
0.00012674
0.000200903
0.000218338
0.00019327
0.0001323
5.01635e-05
-0.0470177
-0.0491835
-0.0508144
-0.0519901
-0.0529702
-0.0539349
-0.0549326
-0.0559314
-0.0568803
-0.0577423
-0.0584997
-0.0591459
-0.0596761
-0.0600827
-0.0603545
-0.0604765
-0.0604381
-0.0602293
-0.0598369
-0.0592486
-0.0584561
-0.0574532
-0.0562364
-0.0548044
-0.0531601
-0.0513096
-0.049264
-0.0470385
-0.0446537
-0.0421332
-0.0395056
-0.0368005
-0.034051
-0.0312889
-0.0285478
-0.0258568
-0.0232453
-0.0207359
-0.0183507
-0.0161037
-0.0140087
-0.0120712
-0.010298
-0.00868761
-0.00724168
-0.00595352
-0.00482136
-0.00383501
-0.00299009
-0.00227416
-0.00168099
-0.00119695
-0.000814421
-0.000519062
-0.000302397
-0.000150896
-5.58524e-05
-3.87108e-06
1.35452e-05
9.73318e-06
-0.0430321
-0.0449248
-0.0463691
-0.0474278
-0.0483189
-0.0491957
-0.0501008
-0.0510078
-0.0518735
-0.0526662
-0.0533701
-0.0539792
-0.054489
-0.0548927
-0.0551806
-0.0553412
-0.055364
-0.0552395
-0.0549579
-0.0545091
-0.0538842
-0.0530768
-0.0520833
-0.0509021
-0.0495343
-0.0479839
-0.0462586
-0.0443693
-0.0423315
-0.0401633
-0.037887
-0.0355263
-0.0331081
-0.0306587
-0.0282064
-0.0257769
-0.0233965
-0.0210866
-0.0188685
-0.0167573
-0.0147682
-0.0129088
-0.0111885
-0.00960854
-0.00817308
-0.00687831
-0.00572453
-0.00470414
-0.00381448
-0.00304547
-0.00239195
-0.00184223
-0.00138978
-0.00102225
-0.000731227
-0.000503933
-0.000331346
-0.000201735
-0.000105717
-3.10223e-05
-0.0393625
-0.0410095
-0.0422839
-0.0432346
-0.0440431
-0.0448387
-0.0456583
-0.0464802
-0.0472683
-0.0479955
-0.048648
-0.0492203
-0.0497082
-0.0501058
-0.050405
-0.0505962
-0.0506703
-0.0506197
-0.0504338
-0.050104
-0.0496231
-0.0489851
-0.048186
-0.0472233
-0.0460972
-0.0448097
-0.0433661
-0.0417738
-0.0400443
-0.0381911
-0.0362315
-0.0341841
-0.0320704
-0.0299119
-0.0277324
-0.0255538
-0.0233995
-0.0212886
-0.0192418
-0.0172737
-0.0154003
-0.0136306
-0.0119756
-0.0104387
-0.00902609
-0.00773646
-0.00657201
-0.00552762
-0.00460213
-0.00378776
-0.00308085
-0.00247166
-0.00195402
-0.00151732
-0.00115444
-0.000854172
-0.000606594
-0.000400585
-0.000225632
-7.13272e-05
-0.0359969
-0.0374244
-0.0385455
-0.0393977
-0.0401306
-0.0408521
-0.0415936
-0.0423377
-0.0430542
-0.0437203
-0.0443242
-0.0448608
-0.0453264
-0.0457155
-0.0460207
-0.0462332
-0.0463434
-0.0463597
-0.0462568
-0.0460291
-0.0456717
-0.0451791
-0.0445474
-0.0437737
-0.0428572
-0.0417986
-0.0406011
-0.0392696
-0.0378123
-0.0362389
-0.034563
-0.0327984
-0.0309625
-0.0290723
-0.0271478
-0.025207
-0.0232705
-0.0213551
-0.0194799
-0.0176589
-0.0159078
-0.0142365
-0.0126568
-0.0111738
-0.00979516
-0.00852163
-0.00735704
-0.00629842
-0.00534623
-0.00449481
-0.00374141
-0.00307868
-0.00250192
-0.00200153
-0.00156986
-0.00119764
-0.000876358