/*--------------------------------*- C++ -*----------------------------------*\
| =========                 |                                                 |
| \\      /  F ield         | OpenFOAM: The Open Source CFD Toolbox           |
|  \\    /   O peration     | Version:  2512                                  |
|   \\  /    A nd           | Website:  www.openfoam.com                      |
|    \\/     M anipulation  |                                                 |
\*---------------------------------------------------------------------------*/
FoamFile
{
    version     2.0;
    format      ascii;
    arch        "LSB;label=32;scalar=64";
    class       volScalarField;
    location    "100";
    object      p;
}
// * * * * * * * * * * * * * * * * * * * * * * * * * * * * * * * * * * * * * //

dimensions      [0 2 -2 0 0 0 0];

internalField   nonuniform List<scalar> 
13248
(
-0.306416
-0.305723
-0.304151
-0.301851
-0.298926
-0.295394
-0.29125
-0.286486
-0.281109
-0.275152
-0.268678
-0.261782
-0.254588
-0.247238
-0.239882
-0.232659
-0.225686
-0.219053
-0.212805
-0.206977
-0.201501
-0.196463
-0.19137
-0.186732
-0.314078
-0.31241
-0.310043
-0.307082
-0.303583
-0.299568
-0.295021
-0.289911
-0.284217
-0.277944
-0.271131
-0.263855
-0.256227
-0.248377
-0.240441
-0.232549
-0.224805
-0.21729
-0.21005
-0.203103
-0.196417
-0.189969
-0.183563
-0.177533
-0.323138
-0.320357
-0.317065
-0.313324
-0.30914
-0.304532
-0.299463
-0.293866
-0.287676
-0.280867
-0.273457
-0.265516
-0.257159
-0.248528
-0.23977
-0.231027
-0.222418
-0.214034
-0.205929
-0.198132
-0.190611
-0.183373
-0.176257
-0.169544
-0.333641
-0.329626
-0.325307
-0.320698
-0.315734
-0.310411
-0.304655
-0.298344
-0.291372
-0.283691
-0.275325
-0.266372
-0.256983
-0.247338
-0.237617
-0.227982
-0.218563
-0.209449
-0.200689
-0.192296
-0.184248
-0.176541
-0.169046
-0.162085
-0.345672
-0.340313
-0.334898
-0.329358
-0.323515
-0.317318
-0.310631
-0.30328
-0.295139
-0.28618
-0.276485
-0.266217
-0.255592
-0.244836
-0.234153
-0.223706
-0.213609
-0.203928
-0.194688
-0.185885
-0.177493
-0.169492
-0.161796
-0.154635
-0.359276
-0.352486
-0.345932
-0.339405
-0.332556
-0.325245
-0.317275
-0.30845
-0.298682
-0.288031
-0.276682
-0.264896
-0.252949
-0.241091
-0.229519
-0.218367
-0.207711
-0.197583
-0.187981
-0.178881
-0.170251
-0.162057
-0.154236
-0.146952
-0.374377
-0.366101
-0.358385
-0.350794
-0.342734
-0.33396
-0.324243
-0.313439
-0.301586
-0.288895
-0.275688
-0.262308
-0.249061
-0.236181
-0.223823
-0.21207
-0.200954
-0.190468
-0.180585
-0.171268
-0.162473
-0.154158
-0.14628
-0.138913
-0.39071
-0.380945
-0.372047
-0.363258
-0.353678
-0.342972
-0.33097
-0.317688
-0.303375
-0.288432
-0.2733
-0.258363
-0.243908
-0.230114
-0.217072
-0.204808
-0.193307
-0.18253
-0.172431
-0.162957
-0.154058
-0.145685
-0.137805
-0.130406
-0.407779
-0.396583
-0.386473
-0.376268
-0.364746
-0.351566
-0.336745
-0.320581
-0.303587
-0.286342
-0.26935
-0.25298
-0.23745
-0.222863
-0.209237
-0.196544
-0.184728
-0.173727
-0.163473
-0.153903
-0.144958
-0.136587
-0.128752
-0.121373
-0.42484
-0.412331
-0.400945
-0.389011
-0.375044
-0.358846
-0.340782
-0.321514
-0.301813
-0.282371
-0.263688
-0.246058
-0.229606
-0.214349
-0.200239
-0.1872
-0.175145
-0.163987
-0.153644
-0.144041
-0.13511
-0.126796
-0.119043
-0.111734
-0.440916
-0.427246
-0.414464
-0.400404
-0.383469
-0.363802
-0.342247
-0.319851
-0.297581
-0.276157
-0.256005
-0.23731
-0.220096
-0.204299
-0.189815
-0.176526
-0.164319
-0.153088
-0.142737
-0.133179
-0.124338
-0.116151
-0.108529
-0.101363
-0.454889
-0.440254
-0.425928
-0.409306
-0.388904
-0.365414
-0.340253
-0.31482
-0.290193
-0.267038
-0.245656
-0.226108
-0.208314
-0.192135
-0.177416
-0.164006
-0.151768
-0.140579
-0.130328
-0.120921
-0.112277
-0.104319
-0.0969333
-0.0900598
-0.336137
-0.33858
-0.339981
-0.340854
-0.34165
-0.342494
-0.343412
-0.344397
-0.345413
-0.346406
-0.34731
-0.348041
-0.348502
-0.348611
-0.348261
-0.347342
-0.34576
-0.343437
-0.340327
-0.336435
-0.331816
-0.32659
-0.321024
-0.315634
-0.325368
-0.327972
-0.329358
-0.330042
-0.330476
-0.330769
-0.330942
-0.330988
-0.330873
-0.330546
-0.329949
-0.329016
-0.327687
-0.325898
-0.323604
-0.320771
-0.317392
-0.313492
-0.309142
-0.304469
-0.29965
-0.294884
-0.290495
-0.287387
-0.315962
-0.318576
-0.319879
-0.320361
-0.320447
-0.320229
-0.319721
-0.318912
-0.317773
-0.316261
-0.314329
-0.311935
-0.309042
-0.305632
-0.301707
-0.297298
-0.292474
-0.287343
-0.282064
-0.276854
-0.271985
-0.267733
-0.264335
-0.262681
-0.308049
-0.310565
-0.311739
-0.312018
-0.311786
-0.311112
-0.310002
-0.308445
-0.306416
-0.303883
-0.300817
-0.297196
-0.293016
-0.288295
-0.283083
-0.277466
-0.271574
-0.26558
-0.259704
-0.254218
-0.249438
-0.245669
-0.243129
-0.242792
-0.301657
-0.304014
-0.305035
-0.305115
-0.304592
-0.303514
-0.301879
-0.299674
-0.296884
-0.293491
-0.289484
-0.284865
-0.27966
-0.273924
-0.267745
-0.261257
-0.254635
-0.248096
-0.241901
-0.236349
-0.231775
-0.228514
-0.226767
-0.227083
-0.296767
-0.298946
-0.2998
-0.299681
-0.298884
-0.29744
-0.295339
-0.292572
-0.289132
-0.285016
-0.280235
-0.274816
-0.268813
-0.262314
-0.255442
-0.248363
-0.241289
-0.234468
-0.228183
-0.222742
-0.218471
-0.215692
-0.214752
-0.2152
-0.29337
-0.295367
-0.296043
-0.295717
-0.294653
-0.292868
-0.290349
-0.287092
-0.283099
-0.278386
-0.272981
-0.266939
-0.260341
-0.253304
-0.245981
-0.238568
-0.231298
-0.22444
-0.218282
-0.213129
-0.209292
-0.20693
-0.206849
-0.206956
-0.291488
-0.293292
-0.293772
-0.293224
-0.291893
-0.289789
-0.286901
-0.283229
-0.278788
-0.273607
-0.267738
-0.261257
-0.254273
-0.246928
-0.239404
-0.231916
-0.224714
-0.218071
-0.212268
-0.207568
-0.204305
-0.202246
-0.203001
-0.202484
-0.291183
-0.292747
-0.292995
-0.292205
-0.290607
-0.288213
-0.285013
-0.281015
-0.276243
-0.270745
-0.264587
-0.257866
-0.250715
-0.243296
-0.23581
-0.228485
-0.221572
-0.21533
-0.210016
-0.205808
-0.203093
-0.2012
-0.202367
-0.20145
-0.292521
-0.293753
-0.293707
-0.292644
-0.290776
-0.28812
-0.284669
-0.280439
-0.275461
-0.269786
-0.263499
-0.256712
-0.249569
-0.242247
-0.234951
-0.227905
-0.221344
-0.215494
-0.210572
-0.206685
-0.204178
-0.202339
-0.203122
-0.202148
-0.295535
-0.296295
-0.295862
-0.294471
-0.29231
-0.289397
-0.285732
-0.281327
-0.276216
-0.270456
-0.264133
-0.257365
-0.2503
-0.243114
-0.236002
-0.229169
-0.222813
-0.217114
-0.212225
-0.208235
-0.205322
-0.203206
-0.202918
-0.201936
-0.300196
-0.300315
-0.299373
-0.297566
-0.295049
-0.291844
-0.287947
-0.283369
-0.278136
-0.272298
-0.265937
-0.259165
-0.252123
-0.244972
-0.237887
-0.231039
-0.224579
-0.218635
-0.213285
-0.208601
-0.204582
-0.201337
-0.199133
-0.197731
-0.309814
-0.303771
-0.299784
-0.298753
-0.301421
-0.308002
-0.317961
-0.32979
-0.341264
-0.349132
-0.350185
-0.341387
-0.320635
-0.288182
-0.247574
-0.205012
-0.166862
-0.137367
-0.118009
-0.1082
-0.106917
-0.114259
-0.130475
-0.152156
-0.170486
-0.175282
-0.16314
-0.139329
-0.112983
-0.0911906
-0.0771988
-0.0708943
-0.0708413
-0.0777749
-0.0935072
-0.114276
-0.129028
-0.127124
-0.110372
-0.0886836
-0.0707029
-0.0590864
-0.0529312
-0.0541957
-0.0616521
-0.0680937
-0.0666794
-0.0591913
-0.050356
-0.0437236
-0.039249
-0.0393882
-0.0400836
-0.0384275
-0.0362648
-0.0317804
-0.022433
-0.0157388
-0.00793867
-0.00227549
-0.286232
-0.286428
-0.289628
-0.296349
-0.306807
-0.320672
-0.336867
-0.353535
-0.368201
-0.377839
-0.379214
-0.369306
-0.346096
-0.309891
-0.264643
-0.217171
-0.174306
-0.140407
-0.116869
-0.103028
-0.0977222
-0.100634
-0.112002
-0.129467
-0.145778
-0.151821
-0.143337
-0.124465
-0.102778
-0.0849332
-0.0742982
-0.070846
-0.0733816
-0.0831412
-0.101959
-0.125297
-0.14112
-0.138159
-0.118998
-0.0942462
-0.0732207
-0.0590345
-0.0505852
-0.0495197
-0.0545382
-0.0596074
-0.0584061
-0.0528153
-0.0464415
-0.0420839
-0.0400606
-0.0422601
-0.0450105
-0.0434146
-0.0405848
-0.035017
-0.0239744
-0.0161677
-0.00698179
-0.00147184
-0.266005
-0.271161
-0.279976
-0.292513
-0.308599
-0.327498
-0.347829
-0.367576
-0.384207
-0.39489
-0.396628
-0.386257
-0.361676
-0.323232
-0.275117
-0.224506
-0.178486
-0.141466
-0.114679
-0.0973557
-0.0882372
-0.0867558
-0.0931763
-0.10614
-0.120044
-0.126913
-0.121937
-0.107941
-0.0909348
-0.0771625
-0.0700261
-0.0695123
-0.0746864
-0.0871869
-0.108825
-0.134461
-0.151328
-0.147615
-0.126404
-0.098957
-0.0751716
-0.0586255
-0.0480955
-0.0449141
-0.0476711
-0.0514504
-0.0503321
-0.046467
-0.0423461
-0.0402262
-0.0407604
-0.0451651
-0.0500365
-0.0484194
-0.0447414
-0.0380647
-0.0254302
-0.0165801
-0.00607358
-0.000720371
-0.249186
-0.257917
-0.270363
-0.286544
-0.305993
-0.327774
-0.35037
-0.371731
-0.389376
-0.400744
-0.402824
-0.392439
-0.36744
-0.328218
-0.279063
-0.227215
-0.179755
-0.140958
-0.111922
-0.0918382
-0.0794397
-0.0739571
-0.0755717
-0.083836
-0.0947952
-0.101796
-0.0998407
-0.0903912
-0.0778669
-0.0681059
-0.0644196
-0.0667499
-0.0744192
-0.0893835
-0.113514
-0.141261
-0.159294
-0.155233
-0.132414
-0.102716
-0.0765506
-0.0579198
-0.0455544
-0.0405222
-0.0412468
-0.0438216
-0.0426378
-0.0402526
-0.0381325
-0.0381645
-0.0413132
-0.0480394
-0.055094
-0.0533834
-0.0486896
-0.0408824
-0.0267789
-0.0169699
-0.00521857
-2.12788e-05
-0.235542
-0.246558
-0.260738
-0.278501
-0.299363
-0.322236
-0.345536
-0.367292
-0.385456
-0.397047
-0.399265
-0.38904
-0.364336
-0.325641
-0.277237
-0.226107
-0.178901
-0.139567
-0.109157
-0.0869827
-0.0718594
-0.0629559
-0.0602296
-0.0638053
-0.0713656
-0.0776954
-0.0779486
-0.0724247
-0.0639732
-0.0579712
-0.0574802
-0.0624142
-0.0723084
-0.0893787
-0.115651
-0.14533
-0.164666
-0.160758
-0.136908
-0.105487
-0.07739
-0.0569938
-0.0430492
-0.0364354
-0.0353835
-0.0368631
-0.0354799
-0.0342758
-0.033863
-0.0359074
-0.041674
-0.050805
-0.0600902
-0.058227
-0.0523794
-0.0434337
-0.0280003
-0.017331
-0.00441988
0.000626549
-0.225052
-0.237179
-0.251529
-0.26922
-0.289985
-0.312576
-0.335326
-0.356304
-0.373957
-0.385648
-0.387655
-0.377643
-0.353822
-0.316803
-0.270743
-0.222038
-0.176577
-0.137828
-0.106833
-0.0831645
-0.0658511
-0.0540865
-0.0476685
-0.0468967
-0.0507675
-0.0556987
-0.0579234
-0.0546598
-0.04969
-0.0470067
-0.0493066
-0.0565134
-0.0683072
-0.0870648
-0.115044
-0.146436
-0.1672
-0.164036
-0.139817
-0.107254
-0.0777162
-0.055904
-0.0406377
-0.0327022
-0.0301417
-0.0306619
-0.0289806
-0.0286248
-0.0295988
-0.0334629
-0.0417917
-0.0533672
-0.0649118
-0.0628567
-0.0557692
-0.0456882
-0.0290736
-0.0176535
-0.00367845
0.00122469
-0.21787
-0.230136
-0.243307
-0.25966
-0.27923
-0.300513
-0.32185
-0.341772
-0.357997
-0.368364
-0.369764
-0.360051
-0.337642
-0.303341
-0.260964
-0.21602
-0.173444
-0.136182
-0.105279
-0.0806377
-0.0616142
-0.0475153
-0.0380426
-0.0334624
-0.0336293
-0.0364164
-0.0385696
-0.0375952
-0.0355605
-0.0355978
-0.0401716
-0.0492375
-0.0625217
-0.0824653
-0.111643
-0.144484
-0.166784
-0.164955
-0.1411
-0.10801
-0.0775445
-0.0546854
-0.0383529
-0.0293361
-0.0255215
-0.0252375
-0.0232166
-0.0233691
-0.0254074
-0.0308424
-0.0416119
-0.0556227
-0.0694469
-0.0671705
-0.0588174
-0.0476217
-0.0299812
-0.0179271
-0.00299165
0.00177728
-0.213921
-0.225306
-0.2362
-0.25031
-0.267827
-0.286915
-0.306139
-0.32376
-0.338264
-0.346557
-0.347146
-0.337907
-0.317511
-0.286846
-0.249145
-0.208845
-0.169891
-0.134754
-0.104512
-0.0793815
-0.0591002
-0.0431754
-0.0312682
-0.0235342
-0.0202317
-0.0204468
-0.0217758
-0.0220584
-0.0221809
-0.0242079
-0.0304445
-0.0408595
-0.0551745
-0.0757949
-0.105595
-0.139559
-0.163509
-0.163481
-0.140731
-0.107766
-0.076888
-0.0533619
-0.0362146
-0.0263367
-0.0214967
-0.0205572
-0.018209
-0.0185596
-0.0213589
-0.0280625
-0.0410847
-0.0574678
-0.0735826
-0.0710595
-0.0614954
-0.0492204
-0.0307131
-0.0181507
-0.00235779
0.00229127
-0.212161
-0.221384
-0.229426
-0.240844
-0.25549
-0.271774
-0.290247
-0.303066
-0.314759
-0.321292
-0.321347
-0.312958
-0.295196
-0.268841
-0.236365
-0.201105
-0.166106
-0.133468
-0.104327
-0.0791688
-0.0580689
-0.0407976
-0.0270398
-0.016829
-0.0105147
-0.00800372
-0.00794215
-0.00860382
-0.00996488
-0.0132592
-0.0205176
-0.0317141
-0.0465294
-0.0672762
-0.0972576
-0.131986
-0.157591
-0.159758
-0.138811
-0.106648
-0.0758694
-0.0520501
-0.0343088
-0.0237334
-0.0180545
-0.0165938
-0.0139547
-0.0142114
-0.0175246
-0.0251357
-0.0401605
-0.0588115
-0.077208
-0.0744212
-0.0637948
-0.0504846
-0.0312682
-0.0183333
-0.00178728
0.00277495
-0.210315
-0.216321
-0.221884
-0.230563
-0.241462
-0.253292
-0.264544
-0.279204
-0.288942
-0.294437
-0.294454
-0.287484
-0.272895
-0.251187
-0.224043
-0.193819
-0.162825
-0.132872
-0.105158
-0.0803702
-0.0588312
-0.0405725
-0.0253922
-0.0132377
-0.00440397
0.00078377
0.00273868
0.00251441
0.000837677
-0.00304148
-0.0107182
-0.022144
-0.0370374
-0.0575645
-0.0871503
-0.122133
-0.149382
-0.154068
-0.13557
-0.104931
-0.0747656
-0.0509827
-0.0328133
-0.0216017
-0.0151671
-0.0133113
-0.0104971
-0.0103363
-0.0139481
-0.0220951
-0.0388264
-0.0595555
-0.0802346
-0.0771395
-0.0657116
-0.0514138
-0.031642
-0.0184674
-0.00129349
0.00323498
-0.206346
-0.209432
-0.213524
-0.219597
-0.227091
-0.236125
-0.245919
-0.255523
-0.263332
-0.268138
-0.268547
-0.263478
-0.252355
-0.23534
-0.213408
-0.188094
-0.161086
-0.133924
-0.107827
-0.08365
-0.0619152
-0.0428826
-0.0265377
-0.0128233
-0.00190569
0.00580779
0.0100795
0.0113169
0.00982962
0.00611662
-0.00134927
-0.0123804
-0.0267389
-0.0465636
-0.0758002
-0.111214
-0.139399
-0.146682
-0.130741
-0.102363
-0.0733461
-0.0499142
-0.031556
-0.0198135
-0.0126411
-0.0104682
-0.00774964
-0.00711647
-0.010785
-0.0188916
-0.0369964
-0.0596939
-0.0826238
-0.0791289
-0.0672341
-0.0519575
-0.0317807
-0.0184952
-0.000837554
0.00368452
-0.199854
-0.20225
-0.205038
-0.208164
-0.212486
-0.218615
-0.225459
-0.232613
-0.238112
-0.241644
-0.242099
-0.238518
-0.230293
-0.217272
-0.199854
-0.178927
-0.155676
-0.131383
-0.107228
-0.0841668
-0.0628691
-0.0437424
-0.026941
-0.0125208
-0.00049207
0.00900733
0.0155036
0.0183873
0.0169276
0.0140796
0.00707333
-0.00325353
-0.0169065
-0.0357414
-0.0637767
-0.0983471
-0.127039
-0.134976
-0.122916
-0.0972749
-0.0698611
-0.0472635
-0.0293195
-0.0175982
-0.0100123
-0.00761692
-0.00503728
-0.00500438
-0.00805676
-0.0157917
-0.0348116
-0.0590509
-0.0842355
-0.0801131
-0.0682507
-0.0520098
-0.031563
-0.0183437
-0.000301565
0.00416252
-0.191731
-0.197123
-0.198891
-0.200378
-0.203549
-0.20832
-0.21371
-0.218805
-0.222992
-0.225317
-0.224825
-0.220753
-0.212596
-0.200238
-0.184032
-0.164732
-0.143344
-0.120963
-0.0985993
-0.0770821
-0.0569974
-0.0387174
-0.0224012
-0.0081411
0.00403619
0.0140723
0.0216431
0.0260884
0.0281814
0.023664
0.0173669
0.00838456
-0.00400633
-0.0222906
-0.0514974
-0.0890643
-0.12104
-0.132458
-0.117073
-0.0911549
-0.0645819
-0.0430148
-0.0258894
-0.0147335
-0.0073126
-0.00492418
-0.00195576
-0.00111521
-0.00412763
-0.0115011
-0.0315988
-0.0577729
-0.0859375
-0.0882291
-0.0690246
-0.051715
-0.0310463
-0.0180722
0.000316986
0.00463975
-0.181943
-0.189506
-0.191284
-0.191509
-0.193066
-0.196185
-0.199961
-0.203551
-0.206087
-0.206819
-0.205107
-0.200411
-0.192362
-0.180886
-0.166253
-0.149042
-0.13002
-0.110041
-0.0899082
-0.0703132
-0.0517774
-0.0346562
-0.0191452
-0.00539139
0.00660094
0.0168493
0.0250341
0.0302434
0.0315262
0.0294066
0.0244545
0.0170295
0.00602378
-0.0115874
-0.0414736
-0.0803739
-0.112568
-0.121922
-0.107383
-0.082957
-0.0583805
-0.038566
-0.0227258
-0.0122135
-0.00495223
-0.00261623
0.000381897
0.00108246
-0.00139624
-0.00836204
-0.028901
-0.0563998
-0.0864304
-0.0882069
-0.0687776
-0.0508291
-0.0302287
-0.0175882
0.000862831
0.00490695
-0.170802
-0.179667
-0.18173
-0.181178
-0.181441
-0.18328
-0.18589
-0.188142
-0.189276
-0.188814
-0.186339
-0.181469
-0.173921
-0.163592
-0.150628
-0.135423
-0.118544
-0.100663
-0.0824454
-0.0644946
-0.0472914
-0.0311949
-0.016414
-0.00312053
0.00861738
0.0187987
0.0272121
0.0330587
0.0352857
0.0341224
0.0302422
0.0239713
0.0137353
-0.00385376
-0.0337819
-0.0713316
-0.101456
-0.109777
-0.0965398
-0.0743732
-0.052107
-0.034099
-0.0195412
-0.00972276
-0.00270787
-0.000423975
0.0025404
0.00327739
0.000867612
-0.00609435
-0.0268873
-0.0548763
-0.0856454
-0.0874829
-0.0678678
-0.0494917
-0.0291803
-0.0169514
0.00134038
0.00507401
-0.159276
-0.16842
-0.170781
-0.169997
-0.169549
-0.17044
-0.171986
-0.173188
-0.173378
-0.172173
-0.169276
-0.164408
-0.157343
-0.147971
-0.136369
-0.122822
-0.107768
-0.0917423
-0.0752908
-0.0589213
-0.0430531
-0.0280255
-0.0140492
-0.00130606
0.0100787
0.0200476
0.0284942
0.0348174
0.0379142
0.037877
0.0352908
0.0302851
0.020821
0.00334517
-0.0258559
-0.0613247
-0.0892617
-0.0966406
-0.08483
-0.0652615
-0.0455474
-0.0294725
-0.0163035
-0.00727516
-0.000579331
0.00167117
0.00461657
0.00543772
0.00299285
-0.00400338
-0.0247764
-0.0525604
-0.0836594
-0.0859306
-0.066317
-0.0476894
-0.0278821
-0.0161399
0.00174821
0.00516293
-0.147258
-0.156371
-0.159069
-0.158361
-0.157515
-0.157678
-0.158419
-0.158889
-0.158454
-0.156765
-0.153608
-0.1488
-0.142175
-0.133644
-0.12325
-0.111192
-0.0977976
-0.0834778
-0.0686664
-0.0537864
-0.0392023
-0.0252326
-0.0120928
3.12919e-05
0.0109881
0.0206585
0.028953
0.03537
0.0392527
0.0403265
0.0391058
0.0356088
0.027378
0.0105608
-0.0175981
-0.050954
-0.0761716
-0.0824752
-0.0724236
-0.055853
-0.0389025
-0.0248186
-0.0130665
-0.00488621
0.00143071
0.00366399
0.00658361
0.00746997
0.00503641
-0.00176939
-0.0220962
-0.0492543
-0.0803899
-0.0832797
-0.0640253
-0.0453972
-0.0263211
-0.0151523
0.00208562
0.00516517
-0.135002
-0.144042
-0.146996
-0.146435
-0.145392
-0.14509
-0.145285
-0.145245
-0.144383
-0.142394
-0.139125
-0.134465
-0.128301
-0.120563
-0.111265
-0.100541
-0.0886262
-0.0758383
-0.0625238
-0.0490363
-0.0356905
-0.0227757
-0.0105047
0.000935864
0.0113849
0.0206854
0.0287333
0.0351686
0.03946
0.0413743
0.0412996
0.0392119
0.032371
0.0166033
-0.00994507
-0.040337
-0.0622416
-0.0677265
-0.0598178
-0.0464517
-0.0323235
-0.0202199
-0.00986489
-0.00256461
0.00331926
0.00554213
0.00843736
0.00939641
0.00700035
0.000631155
-0.0188542
-0.0449869
-0.0756672
-0.0793355
-0.0609264
-0.0426261
-0.0245026
-0.0139873
0.00235476
0.00507439
-0.123046
-0.131737
-0.134796
-0.134411
-0.133337
-0.132783
-0.132622
-0.132237
-0.131114
-0.128986
-0.125742
-0.121313
-0.115627
-0.108628
-0.100315
-0.0907755
-0.080183
-0.0687809
-0.0568449
-0.0446661
-0.0325127
-0.020642
-0.0092586
0.00145178
0.0113246
0.0201912
0.0279282
0.0342554
0.0387288
0.0411734
0.0418423
0.040676
0.0349424
0.0206912
-0.00304039
-0.0293995
-0.0479321
-0.0530895
-0.0475532
-0.0373599
-0.0259671
-0.0157713
-0.00674555
-0.000320933
0.00509037
0.00730312
0.0101869
0.0112384
0.00888273
0.00311229
-0.0151638
-0.0397628
-0.0694346
-0.0740106
-0.0569928
-0.0394098
-0.0224478
-0.0126477
0.00256038
0.00489213
-0.111471
-0.119608
-0.122688
-0.122501
-0.121498
-0.120832
-0.120461
-0.119875
-0.118629
-0.116488
-0.113367
-0.109226
-0.104021
-0.0977115
-0.0902913
-0.0818189
-0.0724191
-0.0622777
-0.0516115
-0.0406584
-0.0296459
-0.0188003
-0.00831342
0.001634
0.0108781
0.0192508
0.0266134
0.0327347
0.037234
0.0399597
0.0410075
0.040256
0.0353629
0.023197
0.00330327
-0.0185623
-0.0341166
-0.0393675
-0.0361677
-0.0288673
-0.019973
-0.011553
-0.00375551
0.00183413
0.00675454
0.00895459
0.0118446
0.013013
0.0106958
0.005639
-0.0110392
-0.0336317
-0.0617948
-0.0673262
-0.0522363
-0.035805
-0.0201958
-0.0111415
0.00271263
0.00462855
-0.100255
-0.107835
-0.110891
-0.11089
-0.110003
-0.109313
-0.108843
-0.10817
-0.106902
-0.104836
-0.101905
-0.0980896
-0.0933663
-0.0877084
-0.0811079
-0.073603
-0.0652833
-0.0562898
-0.0467925
-0.0369855
-0.0270603
-0.0172142
-0.00762296
0.00154167
0.0101196
0.0179481
0.024879
0.0307149
0.0351254
0.0379603
0.0391842
0.0386221
0.0345143
0.0246768
0.00880276
-0.0087882
-0.0218355
-0.0272866
-0.0260743
-0.0211903
-0.0144478
-0.00762659
-0.000941287
0.00388515
0.00831865
0.0105088
0.0134267
0.0147467
0.0124973
0.00826989
-0.00647584
-0.026763
-0.0529983
-0.0594329
-0.0467238
-0.0318895
-0.0178013
-0.00948262
0.00282996
0.00430459
-0.0895942
-0.0965935
-0.0995542
-0.0997035
-0.0989521
-0.0982983
-0.0978048
-0.0971195
-0.0959015
-0.0939718
-0.0912776
-0.0878131
-0.0835688
-0.0785279
-0.0726829
-0.0660588
-0.05872
-0.0507737
-0.0423533
-0.0336162
-0.0247229
-0.0158433
-0.00713622
0.00123798
0.00912611
0.0163741
0.0228294
0.0283174
0.0325544
0.0353899
0.036705
0.0363001
0.0329566
0.0252451
0.0129336
-0.000934779
-0.0118409
-0.0172489
-0.0174685
-0.0144448
-0.0094617
-0.00403417
0.00165614
0.00581235
0.00978012
0.0119704
0.0149443
0.0164834
0.0143988
0.0110922
-0.0015429
-0.019439
-0.0434377
-0.0506242
-0.0405886
-0.0277565
-0.0153273
-0.00769445
0.00294122
0.00395447
-0.0796065
-0.0859525
-0.0887551
-0.0890223
-0.0884151
-0.0878358
-0.08737
-0.0867245
-0.0856038
-0.0838511
-0.0814232
-0.0783218
-0.0745466
-0.0700885
-0.0649413
-0.0591217
-0.0526763
-0.0456869
-0.038258
-0.0305169
-0.0225973
-0.0146448
-0.00680077
0.00078816
0.00797741
0.014623
0.0205735
0.0256708
0.0296752
0.0324367
0.033793
0.0335476
0.0308848
0.0249185
0.015518
0.00475939
-0.00419289
-0.00925052
-0.010346
-0.00865925
-0.00505204
-0.000801352
0.00400435
0.00759336
0.011131
0.0133302
0.0163822
0.0182534
0.0165236
0.0141722
0.00361428
-0.0120366
-0.0336267
-0.0413287
-0.0340364
-0.0235078
-0.0128363
-0.00581477
0.00308642
0.00362545
-0.0702365
-0.0759356
-0.0785585
-0.0789199
-0.0784533
-0.0779661
-0.0775582
-0.0769854
-0.0759915
-0.0744387
-0.0722903
-0.0695522
-0.06623
-0.0623198
-0.0578171
-0.0527334
-0.0471026
-0.0409873
-0.0344694
-0.0276521
-0.0206459
-0.0135752
-0.00656414
0.000255723
0.00675085
0.0127867
0.0182182
0.0229009
0.0266321
0.0292657
0.0306269
0.0305412
0.0284726
0.0239082
0.0168093
0.00859532
0.00145084
-0.00306063
-0.00458751
-0.0038012
-0.0012306
0.0020595
0.00608237
0.00920237
0.0123619
0.0145705
0.0176886
0.0200083
0.0189223
0.0175086
0.00877078
-0.00501243
-0.0241434
-0.0320504
-0.027334
-0.0192491
-0.0103798
-0.00390068
0.00330995
0.0033727
-0.0614864
-0.0665892
-0.0690227
-0.0694511
-0.0691097
-0.068717
-0.0683814
-0.0678994
-0.0670473
-0.0657029
-0.0638348
-0.0614509
-0.0585599
-0.0551616
-0.0512528
-0.0468415
-0.0419527
-0.0366344
-0.0309513
-0.0249866
-0.0188318
-0.0125921
-0.00637561
-0.000299088
0.00551728
0.0109493
0.0158624
0.0201235
0.0235585
0.0260333
0.0273815
0.0274586
0.0259147
0.0224792
0.0171896
0.0110243
0.00548096
0.00160888
-3.12253e-05
0.000196521
0.00201087
0.00454482
0.00788295
0.0106131
0.0134551
0.0156682
0.0187934
0.0215991
0.0214153
0.0208487
0.0135462
0.00117813
-0.0155059
-0.0232711
-0.0207817
-0.0150886
-0.00799989
-0.00202648
0.00364297
0.00324365
-0.0534101
-0.0579395
-0.0601659
-0.0606335
-0.0604016
-0.0601016
-0.0598447
-0.05946
-0.0587529
-0.0576149
-0.0560186
-0.0539724
-0.0514862
-0.0485621
-0.0451979
-0.0413992
-0.0371845
-0.032591
-0.0276695
-0.0224876
-0.0171207
-0.0116569
-0.00618954
-0.000821565
0.00434104
0.00918669
0.0135929
0.0174373
0.0205716
0.0228774
0.0242058
0.024443
0.0233647
0.0208497
0.0169774
0.0124174
0.00830042
0.00503915
0.00349345
0.00341643
0.0046978
0.00665632
0.0094081
0.0118087
0.0143811
0.0165825
0.0196387
0.0228306
0.0235263
0.0235744
0.017403
0.0062262
-0.00804968
-0.0153834
-0.0146837
-0.0111341
-0.00574098
-0.000282067
0.00409812
0.00325444
-0.0459865
-0.0499676
-0.0519825
-0.0524715
-0.052335
-0.0521196
-0.0519453
-0.0516567
-0.0510891
-0.0501479
-0.048808
-0.0470772
-0.0449658
-0.0424767
-0.0396085
-0.0363652
-0.0327604
-0.028823
-0.0245932
-0.0201255
-0.0154816
-0.0107358
-0.0059672
-0.00126469
0.00327857
0.00756285
0.011481
0.0149231
0.017766
0.0199034
0.0212087
0.0215979
0.0209308
0.0191651
0.0163886
0.0130447
0.00974363
0.00743341
0.00614543
0.00594999
0.00686975
0.00840278
0.010663
0.0127803
0.0151122
0.0172661
0.0201673
0.0235238
0.0247883
0.0250655
0.0199018
0.0100259
-0.00195071
-0.00866309
-0.00930421
-0.00748634
-0.00365603
0.00122704
0.00465034
0.00337813
-0.0391681
-0.0426525
-0.0444679
-0.0449693
-0.0449215
-0.0448011
-0.0446808
-0.0444744
-0.0440346
-0.0432748
-0.0421711
-0.0407298
-0.0389604
-0.0368663
-0.0344465
-0.0317036
-0.0286476
-0.0253009
-0.0216952
-0.0178745
-0.0138892
-0.00980127
-0.00567661
-0.00159182
0.00237235
0.00612861
0.00958497
0.0126451
0.0152115
0.0171864
0.0184676
0.0189937
0.0186768
0.0175174
0.0155999
0.0132397
0.0108577
0.00910505
0.0080907
0.00789002
0.00857439
0.00979996
0.0116561
0.0135236
0.015624
0.0176817
0.0203319
0.0233729
0.0249459
0.0251585
0.0209707
0.0126092
0.0027232
-0.00330256
-0.00481693
-0.00423342
-0.00179578
0.00240776
0.00520017
0.00354083
-0.0329386
-0.0359749
-0.037599
-0.0380969
-0.0381136
-0.0380537
-0.0380031
-0.0378787
-0.0375588
-0.0369657
-0.0360766
-0.0348971
-0.033436
-0.0316969
-0.0296789
-0.0273835
-0.0248179
-0.0219995
-0.0189532
-0.0157143
-0.0123235
-0.00883211
-0.0052946
-0.00177679
0.00165306
0.00491981
0.00794509
0.0106457
0.0129561
0.0147768
0.0160283
0.016668
0.0166402
0.0159671
0.0147222
0.0131355
0.0114891
0.0102176
0.00946906
0.00932584
0.00986399
0.01087
0.0123984
0.0140396
0.0159084
0.0178139
0.0201514
0.0227521
0.0242221
0.0242171
0.0208846
0.014091
0.00603639
0.000642887
-0.00127254
-0.00144598
-0.000196035
0.00322952
0.00559633
0.00363024
-0.0272756
-0.0299049
-0.0313476
-0.0318331
-0.0319026
-0.0319029
-0.031913
-0.0318565
-0.031639
-0.0311924
-0.0304944
-0.0295484
-0.028362
-0.0269384
-0.025277
-0.0233785
-0.021248
-0.0188985
-0.0163496
-0.0136295
-0.0107707
-0.0078152
-0.00480793
-0.00180384
0.00114128
0.00396098
0.00658777
0.00894001
0.0110279
0.0127006
0.0139125
0.0146378
0.0148397
0.0145478
0.013821
0.012832
0.0117566
0.0108985
0.0103952
0.0103396
0.0107917
0.0116414
0.0129054
0.0143346
0.0159737
0.0176764
0.0196625
0.0217518
0.0229567
0.0227223
0.020056
0.0146805
0.00819637
0.00325174
0.00139464
0.000829421
0.00112664
0.00373332
0.00570179
0.0035464
-0.0221382
-0.0244043
-0.0256804
-0.0261496
-0.026263
-0.0263145
-0.0263705
-0.0263721
-0.0262433
-0.0259254
-0.0253959
-0.0246554
-0.0237104
-0.0225642
-0.0212163
-0.0196665
-0.0179185
-0.0159819
-0.0138717
-0.0116103
-0.00922348
-0.00674515
-0.00421142
-0.00166723
0.000842275
0.00326339
0.00554863
0.0076635
0.00945475
0.0109657
0.0121241
0.012904
0.0132784
0.0132768
0.0129401
0.0123991
0.0117657
0.011251
0.0109643
0.0110045
0.0114103
0.0121455
0.0131968
0.0144267
0.0158376
0.017307
0.0189366
0.020523
0.0214236
0.0210214
0.0188518
0.0146459
0.00951804
0.00532478
0.00334162
0.00257992
0.0021693
0.00397218
0.00546777
0.00326211
-0.0174916
-0.0194384
-0.0205641
-0.021014
-0.0211622
-0.021256
-0.0213551
-0.0214113
-0.0213521
-0.0211396
-0.0207531
-0.0201903
-0.0194552
-0.0185502
-0.0174748
-0.0162287
-0.014814
-0.0132377
-0.0115113
-0.0096521
-0.00768029
-0.0056229
-0.00350859
-0.00137376
0.00074526
0.00280415
0.00475996
0.00656835
0.00817252
0.00954851
0.0106485
0.0114551
0.0119505
0.0121617
0.0121131
0.0118955
0.0115994
0.0113596
0.011256
0.0113865
0.0117692
0.0124167
0.0132961
0.0143413
0.0155298
0.0167536
0.0180484
0.0191934
0.0198119
0.0193107
0.0175196
0.0142237
0.0102126
0.0067012
0.004686
0.00383297
0.00295288
0.00400344
0.00495557
0.00283054
-0.0133044
-0.0149709
-0.0159611
-0.0163894
-0.0165643
-0.0166922
-0.0168248
-0.0169228
-0.0169283
-0.0168039
-0.0165375
-0.0161262
-0.0155715
-0.0148741
-0.0140335
-0.0130492
-0.0119222
-0.0106577
-0.00926377
-0.00775403
-0.00614398
-0.00445483
-0.00270887
-0.000935337
0.000836848
0.00257245
0.00423559
0.00578768
0.00719854
0.00843333
0.00946451
0.0102733
0.0108443
0.0112018
0.0113616
0.011383
0.0113255
0.0112945
0.0113371
0.0115431
0.0119146
0.0124908
0.0132298
0.0141056
0.0150851
0.0160706
0.0170674
0.0178531
0.0182336
0.0176862
0.0161957
0.0135916
0.0104542
0.00754483
0.00554653
0.0046587
0.00351662
0.00389866
0.00430636
0.00234784
-0.00954253
-0.0109645
-0.0118338
-0.0122399
-0.0124351
-0.0125903
-0.0127498
-0.0128822
-0.0129398
-0.0128904
-0.012723
-0.0124381
-0.0120357
-0.0115152
-0.010875
-0.0101142
-0.00923337
-0.00823588
-0.00712774
-0.005919
-0.00462148
-0.00325154
-0.00182633
-0.000368637
0.00109882
0.00254764
0.00395093
0.00527901
0.00650273
0.00759982
0.00854618
0.00933388
0.0099429
0.0103913
0.0106833
0.0108752
0.0109898
0.011111
0.0112631
0.0115253
0.0118892
0.0124036
0.0130256
0.0137492
0.0145391
0.0153076
0.0160505
0.0165572
0.016749
0.016191
0.0149435
0.0128661
0.0103848
0.00799432
0.00610336
0.0051521
0.00389861
0.0037312
0.00365646
0.00189132
-0.00617268
-0.00738316
-0.00814586
-0.00852997
-0.00874012
-0.00891664
-0.00909703
-0.00925662
-0.00935655
-0.00936962
-0.00928487
-0.00910308
-0.00882666
-0.00845418
-0.00798301
-0.00741156
-0.00673951
-0.00596889
-0.00510398
-0.0041522
-0.00312237
-0.00202682
-0.000878556
0.00030496
0.0015063
0.00270381
0.00387661
0.0050015
0.00605581
0.00702183
0.00787843
0.00861843
0.00922983
0.00972476
0.0101011
0.0103982
0.0106275
0.0108516
0.0110796
0.0113778
0.0117321
0.01219
0.0127131
0.0133023
0.0139258
0.0145058
0.015038
0.0153365
0.015386
0.0148401
0.0137856
0.0121124
0.0101153
0.00815591
0.00640162
0.00539266
0.00412786
0.00355142
0.00309052
0.00150522
-0.00316434
-0.00419297
-0.00486226
-0.00522501
-0.00544568
-0.00563839
-0.00583455
-0.00601493
-0.00614822
-0.00621209
-0.00619694
-0.00610068
-0.0059252
-0.00567385
-0.00534338
-0.00493073
-0.00443416
-0.00385468
-0.00319515
-0.00246083
-0.00165829
-0.000796654
0.00011436
0.00106178
0.00203247
0.00301001
0.00397832
0.00491957
0.0058167
0.00665485
0.00741778
0.00809911
0.00868831
0.00919358
0.00961007
0.00996584
0.0102636
0.0105496
0.0108239
0.0111388
0.0114783
0.011883
0.0123209
0.0127937
0.0132756
0.013698
0.0140645
0.0142075
0.0141524
0.0136317
0.012728
0.0113665
0.00972814
0.00810776
0.00650818
0.00545456
0.00422881
0.00338202
0.00264118
0.00120616
-0.000488602
-0.00136166
-0.00194956
-0.00229194
-0.00251955
-0.00272415
-0.00293173
-0.00312741
-0.00328618
-0.00338995
-0.0034307
-0.00340667
-0.00331805
-0.00316398
-0.00294685
-0.00266352
-0.00231189
-0.00189165
-0.00140414
-0.000852562
-0.000241581
0.000422099
0.00113139
0.00187684
0.00264861
0.00343455
0.0042226
0.00499929
0.00575128
0.00646706
0.00713404
0.00774675
0.00829509
0.00878412
0.00920789
0.00958585
0.00991562
0.0102307
0.0105257
0.0108405
0.0111591