/*--------------------------------*- C++ -*----------------------------------*\
| =========                 |                                                 |
| \\      /  F ield         | OpenFOAM: The Open Source CFD Toolbox           |
|  \\    /   O peration     | Version:  2512                                  |
|   \\  /    A nd           | Website:  www.openfoam.com                      |
|    \\/     M anipulation  |                                                 |
\*---------------------------------------------------------------------------*/
FoamFile
{
    version     2.0;
    format      ascii;
    arch        "LSB;label=32;scalar=64";
    class       surfaceScalarField;
    location    "100";
    object      phi;
}
// * * * * * * * * * * * * * * * * * * * * * * * * * * * * * * * * * * * * * //

dimensions      [0 3 -1 0 0 0 0];

oriented        oriented;

internalField   nonuniform List<scalar> 
26232
(
-3.58183e-05
0.000866706
-0.000830888
6.96946e-05
0.00153068
-0.00163619
0.000515822
0.00132543
-0.00177156
0.00149516
0.000321687
-0.00130103
0.00319572
-0.00145408
-0.000246483
0.00579949
-0.00399663
0.00139286
0.00947523
-0.0073069
0.00363116
0.0143675
-0.0113769
0.00648471
0.0205818
-0.0161764
0.00996211
0.0281694
-0.0216435
0.0140559
0.0371142
-0.0276813
0.0187365
0.0473257
-0.0341615
0.02395
0.0586392
-0.0409323
0.0296189
0.0708245
-0.0478313
0.035646
0.0836015
-0.0546985
0.0419215
0.0966607
-0.0613893
0.0483301
0.109687
-0.0677851
0.0547591
0.122381
-0.0738009
0.0611066
0.134486
-0.0793866
0.067282
0.145794
-0.0845409
0.0732322
0.156176
-0.0892612
0.0788794
0.165538
-0.0936897
0.0843276
0.173845
-0.0976372
0.0893303
-0.101828
0.0948788
0.180794
4.79652e-05
0.000818741
0.000402825
0.00117582
0.0012761
0.000452154
0.00287604
-0.00127826
0.00540447
-0.0039825
0.00904684
-0.007639
0.0139561
-0.0122162
0.0202327
-0.0176535
0.027904
-0.0238478
0.0369101
-0.0306495
0.0470979
-0.0378691
0.0582287
-0.0452924
0.0699978
-0.0527014
0.082062
-0.0598954
0.0940722
-0.0667088
0.105707
-0.0730239
0.116699
-0.0787775
0.126859
-0.083961
0.136086
-0.0886137
0.144361
-0.0928155
0.15176
-0.0966599
0.158364
-0.100294
0.164415
-0.103688
-0.107363
0.16995
0.000139379
0.000679362
0.000773659
0.000541538
0.00212766
-0.000901844
0.0044206
-0.0035712
0.00785454
-0.00741645
0.0125934
-0.0123778
0.0187359
-0.0183588
0.0262898
-0.0252073
0.0351534
-0.0327114
0.0451138
-0.04061
0.0558634
-0.0486187
0.0670322
-0.0564611
0.0782306
-0.0638999
0.0890944
-0.0707592
0.0993237
-0.0769381
0.108712
-0.0824118
0.117158
-0.0872234
0.124665
-0.0914682
0.131324
-0.0952725
0.137284
-0.0987756
0.142724
-0.102101
0.147808
-0.105378
0.152714
-0.108594
-0.112123
0.157474
0.000239518
0.000439844
0.00118183
-0.00040077
0.00306221
-0.00278223
0.00609923
-0.00660821
0.0104714
-0.0117886
0.0162831
-0.0181895
0.0235305
-0.0256061
0.0320788
-0.0337556
0.0416628
-0.0422954
0.0519134
-0.0508606
0.062406
-0.0591113
0.072719
-0.0667742
0.0824895
-0.0736704
0.0914555
-0.0797252
0.0994779
-0.0849605
0.10654
-0.0894741
0.112728
-0.0934118
0.118198
-0.0969376
0.123134
-0.100209
0.127716
-0.103357
0.132096
-0.106481
0.136373
-0.109654
0.140644
-0.112865
-0.116351
0.144872
0.000351167
8.86776e-05
0.00163011
-0.00167971
0.00407238
-0.00522451
0.00787462
-0.0104105
0.0131561
-0.01707
0.0199145
-0.0249479
0.0279952
-0.0336869
0.0370917
-0.0428521
0.0467816
-0.0519853
0.0565924
-0.0606714
0.0660766
-0.0685954
0.0748771
-0.0755747
0.0827698
-0.0815631
0.0896749
-0.0866304
0.0956411
-0.0909266
0.100808
-0.0946412
0.105362
-0.0979661
0.109494
-0.101069
0.113368
-0.104082
0.117106
-0.107095
0.120789
-0.110164
0.12446
-0.113325
0.128161
-0.116567
-0.120032
0.131843
0.000476731
-0.000388053
0.00211793
-0.0033209
0.00513944
-0.00824602
0.00968358
-0.0149546
0.0157655
-0.023152
0.0232295
-0.032412
0.0317431
-0.0422004
0.0408396
-0.0519486
0.0500011
-0.0611468
0.0587514
-0.0694218
0.0667332
-0.0765772
0.0737488
-0.0825903
0.0797614
-0.0875756
0.0848629
-0.0917319
0.0892247
-0.0952884
0.0930455
-0.098462
0.0965105
-0.101431
0.0997679
-0.104327
0.102922
-0.107236
0.106039
-0.110212
0.109155
-0.113281
0.112288
-0.116458
0.115458
-0.119737
-0.123193
0.118619
0.000616
-0.00100405
0.00263494
-0.00533985
0.00622283
-0.0118339
0.0114262
-0.020158
0.018111
-0.0298367
0.0259397
-0.0402407
0.0344134
-0.0506742
0.0429685
-0.0605037
0.0510906
-0.0692689
0.0584064
-0.0767375
0.0647257
-0.0828966
0.0700345
-0.0878991
0.0744498
-0.0919909
0.0781599
-0.0954419
0.0813681
-0.0984966
0.0842541
-0.101348
0.0869555
-0.104132
0.0895657
-0.106937
0.0921421
-0.109813
0.0947166
-0.112786
0.0973052
-0.115869
0.0999135
-0.119066
0.102549
-0.122372
-0.12582
0.105175
0.000765046
-0.0017691
0.00315867
-0.00773348
0.00725907
-0.0159343
0.0129736
-0.0258726
0.0199871
-0.0368502
0.0277863
-0.0480398
0.035763
-0.0586509
0.0433512
-0.0680919
0.0501387
-0.0760565
0.0559191
-0.0825179
0.0606797
-0.0876572
0.0645472
-0.0917666
0.0677186
-0.0951622
0.0704004
-0.0981238
0.0727705
-0.100867
0.0749613
-0.103539
0.0770609
-0.106232
0.0791222
-0.108998
0.0811744
-0.111865
0.083232
-0.114844
0.0853012
-0.117939
0.0873836
-0.121149
0.0894812
-0.12447
-0.127907
0.091569
0.000916476
-0.00268558
0.00365657
-0.0104736
0.00817016
-0.0204479
0.0141903
-0.0318927
0.0212163
-0.0438761
0.0286041
-0.0554277
0.0357228
-0.0657696
0.0420955
-0.0744646
0.0474706
-0.0814316
0.0518137
-0.086861
0.0552468
-0.0910903
0.0579697
-0.0944896
0.0601934
-0.0973859
0.0620979
-0.100028
0.0638159
-0.102585
0.0654342
-0.105157
0.0670044
-0.107802
0.0685543
-0.110548
0.0700981
-0.113409
0.0716426
-0.116388
0.0731899
-0.119486
0.0747406
-0.122699
0.0762938
-0.126023
-0.129448
0.0778346
0.00106032
-0.0037459
0.00409082
-0.0135041
0.00887714
-0.0252342
0.0149619
-0.0379775
0.0216872
-0.0506014
0.0283523
-0.0620927
0.0343893
-0.0718067
0.039469
-0.0795442
0.0435075
-0.0854701
0.046605
-0.0899586
0.048958
-0.0934433
0.0507824
-0.096314
0.0522648
-0.0988684
0.0535431
-0.101307
0.0547067
-0.103748
0.0558086
-0.106259
0.0568769
-0.108871
0.0579264
-0.111598
0.058964
-0.114446
0.059993
-0.117417
0.0610143
-0.120507
0.0620276
-0.123712
0.0630306
-0.127026
-0.130434
0.0640163
0.00118594
-0.00493184
0.00442535
-0.0167435
0.00931516
-0.030124
0.0152168
-0.0438792
0.021372
-0.0567566
0.0271035
-0.0678242
0.0319686
-0.0766718
0.0358004
-0.083376
0.0386541
-0.0883238
0.040712
-0.0920165
0.0421935
-0.0949248
0.0432956
-0.097416
0.0441657
-0.0997385
0.0449006
-0.102041
0.0455571
-0.104405
0.0461655
-0.106867
0.0467412
-0.109446
0.0472922
-0.112149
0.0478224
-0.114977
0.0483336
-0.117928
0.0488262
-0.121
0.0492991
-0.124185
0.0497491
-0.127476
-0.130858
0.0501736
0.00128617
-0.006218
0.00463437
-0.0200917
0.00944535
-0.034935
0.0149358
-0.0493696
0.0203192
-0.06214
0.0250088
-0.0725137
0.0287135
-0.0803765
0.0314108
-0.0860732
0.0332498
-0.0901628
0.0344474
-0.0932141
0.0352123
-0.0956897
0.0357066
-0.0979102
0.0360385
-0.10007
0.0362723
-0.102275
0.036442
-0.104575
0.036565
-0.10699
0.0366497
-0.109531
0.0367008
-0.1122
0.0367211
-0.114997
0.036712
-0.117919
0.0366741
-0.120962
0.0366063
-0.124118
0.0365053
-0.127375
0.0363713
-0.130724
-0.000277157
-0.00187081
0.00214796
-0.00096738
-0.00419983
0.00489005
-0.00198415
-0.00552954
0.00654631
-0.00326223
-0.00610757
0.00738565
-0.00475191
-0.00614785
0.00763754
-0.00641663
-0.00582203
0.00748675
-0.00822994
-0.00525276
0.00706607
-0.010172
-0.0045135
0.00645559
-0.0122266
-0.00363452
0.00568906
-0.0143781
-0.00261288
0.0047644
-0.0166099
-0.00142377
0.0036556
-0.0189014
-3.1004e-05
0.00232246
-0.0212233
0.00160539
0.000716546
-0.0235569
0.00352131
-0.00118772
-0.0258606
0.0057511
-0.00344736
-0.028091
0.00831873
-0.00608832
-0.0301964
0.0112376
-0.00913228
-0.0321173
0.0145077
-0.0125868
-0.0337882
0.0181126
-0.0164418
-0.0351404
0.0220185
-0.0206663
-0.0361065
0.0261721
-0.0252059
-0.0366246
0.0305019
-0.0299839
-0.0366489
0.0349309
-0.0349066
0.0394123
-0.0362016
-0.0398596
-0.000305741
-0.00156507
-0.00104729
-0.00345829
-0.00211478
-0.00446204
-0.00342828
-0.00479407
-0.00493016
-0.00464597
-0.00658013
-0.00417207
-0.00834987
-0.00348302
-0.0102177
-0.00264565
-0.0121641
-0.00168817
-0.0141683
-0.000608618
-0.016205
0.000612887
-0.0182444
0.00200835
-0.0202496
0.00361062
-0.0221783
0.00545008
-0.0239783
0.00755104
-0.0255884
0.00992886
-0.0269385
0.0125877
-0.0279495
0.0155186
-0.0285347
0.0186978
-0.0286023
0.0220861
-0.0280604
0.0256302
-0.0268243
0.0292658
-0.0248138
0.0329204
0.0365502
-0.0219517
-0.000313137
-0.00125193
-0.00105881
-0.00271261
-0.0021115
-0.00340936
-0.00337947
-0.0035261
-0.00479704
-0.0032284
-0.0063182
-0.00265091
-0.00790986
-0.00189136
-0.00954541
-0.0010101
-0.0111993
-3.43186e-05
-0.0128424
0.00103454
-0.0144412
0.00221171
-0.015954
0.00352112
-0.0173315
0.00498813
-0.0185162
0.00663472
-0.0194414
0.00847626
-0.0200314
0.0105189
-0.0202011
0.0127574
-0.0198568
0.0151744
-0.0188978
0.0177388
-0.0172172
0.0204054
-0.0147047
0.0231177
-0.011254
0.0258152
-0.0067819
0.0284483
0.0310797
-0.00131133
-0.00030536
-0.000946569
-0.00102188
-0.00199609
-0.0020141
-0.00241714
-0.00318068
-0.00235953
-0.00444762
-0.00196146
-0.0057615
-0.00133703
-0.00708218
-0.000570678
-0.00837595
0.000283668
-0.00960959
0.00119932
-0.010746
0.00217097
-0.0117416
0.00320734
-0.0125447
0.0043242
-0.0130949
0.00553829
-0.0133231
0.00686294
-0.0131517
0.00830487
-0.012495
0.0098621
-0.0112596
0.011522
-0.00934302
0.0132578
-0.00664113
0.0150369
-0.00304267
0.016807
0.00156745
0.0185076
0.00730878
0.0200738
0.0143104
0.0214467
0.0226123
0.0227777
-0.000289925
-0.000656644
-0.000960141
-0.00132587
-0.00186868
-0.0015086
-0.00290613
-0.00132208
-0.00399021
-0.00087738
-0.00505914
-0.000268098
-0.00606454
0.000434717
-0.00696447
0.0011836
-0.00771767
0.00195252
-0.00827911
0.00273241
-0.00859717
0.0035254
-0.00861218
0.00433921
-0.00825607
0.00518218
-0.00745256
0.00605944
-0.00611777
0.00697008
-0.00416105
0.00790538
-0.00148613
0.00884712
0.00200245
0.00976925
0.00641179
0.0106276
0.0118455
0.0113733
0.0184101
0.011943
0.0262191
0.0122648
0.0353704
0.0122953
0.0117763
0.0462065
-0.000273419
-0.000383225
-0.00089393
-0.000705359
-0.00171435
-0.000688173
-0.00261835
-0.000418085
-0.00351582
2.00914e-05
-0.00433663
0.000552713
-0.00502379
0.00112188
-0.00552701
0.00168681
-0.00579709
0.00222261
-0.00578179
0.0027171
-0.005423
0.00316661
-0.0046554
0.00357161
-0.00340608
0.00393286
-0.0015951
0.00424846
0.000863543
0.00451143
0.004061
0.00470792
0.00809165
0.00481647
0.0130543
0.00480656
0.0190445
0.00463747
0.0261586
0.00425916
0.0344886
0.00361298
0.0441526
0.00260084
0.0551413
0.00130666
-0.0011593
0.0680769
-0.000259347
-0.000123878
-0.000833667
-0.00013104
-0.00157047
4.86339e-05
-0.00234731
0.000358752
-0.00306688
0.000739657
-0.0036509
0.00113674
-0.00403372
0.0015047
-0.0041562
0.00180929
-0.00396062
0.00202703
-0.00338676
0.00214325
-0.00236929
0.00214914
-0.000836429
0.00203874
0.00129026
0.00180617
0.00409567
0.00144305
0.00767003
0.000937076
0.0121075
0.00027049
0.0175046
-0.000580615
0.0239589
-0.0016478
0.031567
-0.00297067
0.0404234
-0.00459723
0.0506023
-0.00656587
0.0622507
-0.00904753
0.0751839
-0.0116266
-0.0162395
0.0902641
-0.000246901
0.000123023
-0.000775979
0.000398038
-0.00142899
0.000701646
-0.00207743
0.00100719
-0.00261664
0.00127887
-0.00295944
0.00147954
-0.00302987
0.00157513
-0.00275748
0.0015369
-0.00207254
0.00134209
-0.000902557
0.000973265
0.000830119
0.000416468
0.00320952
-0.000340655
0.00632556
-0.00130987
0.0102738
-0.00250522
0.0151536
-0.00394274
0.021066
-0.00564188
0.0281113
-0.00762587
0.0363856
-0.00992213
0.0459765
-0.0125615
0.0569657
-0.0155865
0.0693881
-0.0189882
0.0833808
-0.0230403
0.0986236
-0.0268694
-0.0334994
0.115884
-0.000231256
0.000354279
-0.00070483
0.000871612
-0.00125612
0.00125294
-0.00174971
0.00150078
-0.00207161
0.00160077
-0.00212264
0.00153057
-0.00181221
0.0012647
-0.00105298
0.000777668
0.000243521
4.55821e-05
0.00216902
-0.000952236
0.00482055
-0.00223506
0.00829975
-0.00381985
0.0127116
-0.00572174
0.0181611
-0.00795474
0.02475
-0.0105316
0.0325722
-0.013464
0.0417089
-0.0167627
0.052224
-0.0204372
0.0641568
-0.0244943
0.077522
-0.0289518
0.0922796
-0.0337458
0.108416
-0.0391766
0.12567
-0.0441239
-0.0520217
0.144193
-0.000205692
0.000559971
-0.000597636
0.00126356
-0.00100469
0.00165999
-0.00128223
0.00177832
-0.00130314
0.00162168
-0.000951105
0.00117853
-0.000114854
0.000428452
0.00131619
-0.000653377
0.00345384
-0.00209207
0.00641309
-0.00391149
0.0103091
-0.00613104
0.0152539
-0.00876472
0.021352
-0.0118197
0.0286931
-0.0152959
0.0373467
-0.0191852
0.0473553
-0.0234726
0.0587291
-0.0281364
0.0714416
-0.0331498
0.0854266
-0.0384792
0.100574
-0.0440994
0.116743
-0.0499142
0.133681
-0.0561147
0.151324
-0.0617668
-0.0696348
0.168937
-0.00016468
0.000724651
-0.000435086
0.00153396
-0.000633374
0.00185828
-0.000602791
0.00174774
-0.000198816
0.0012177
0.000716647
0.000263069
0.00227911
-0.00113401
0.00462317
-0.00299744
0.00788164
-0.00535054
0.0121809
-0.00821071
0.0176347
-0.0115848
0.024336
-0.0154661
0.0323484
-0.0198322
0.041698
-0.0246455
0.0523672
-0.0298545
0.0642913
-0.0353967
0.0773571
-0.0412022
0.0914061
-0.0471988
0.106238
-0.0533108
0.121619
-0.0594807
0.137312
-0.0656075
0.152972
-0.0717745
0.168642
-0.0774363
-0.0840956
0.183102
-0.000106237
-0.000208465
-0.000121743
0.000324966
0.00129619
0.00295211
0.00544927
0.00893654
0.0135481
0.0193933
0.0265449
0.0350289
0.0448156
0.0558161
0.0678831
0.0808165
0.0943734
0.108281
0.122252
0.136004
0.149276
0.161829
0.173723
0.184506
-0.0332912
0.0583493
-0.0612596
-0.0292883
0.0654082
-0.0694112
-0.0240334
0.071194
-0.0764489
-0.0173872
0.0750161
-0.0816623
-0.00925765
0.0761047
-0.0842343
0.000340996
0.0736928
-0.0832914
0.0112473
0.0671188
-0.0780251
0.0230904
0.0559226
-0.0677657
0.035452
0.0399301
-0.0522918
0.0478804
0.0191796
-0.031608
0.0599528
-0.00587585
-0.00619651
0.0716558
-0.0346453
0.0229422
0.082813
-0.0658073
0.0546502
0.0931348
-0.0965991
0.0862773
0.101985
-0.123262
0.114412
0.108629
-0.142637
0.135993
0.112683
-0.153713
0.149659
0.114153
-0.157552
0.156082
0.112798
-0.156767
0.158123
0.108111
-0.155679
0.160366
0.100758
-0.15805
0.165404
0.0936642
-0.161607
0.168701
0.0907954
-0.155752
0.158621
0.0942696
-0.1281
0.124626
0.103311
-0.075395
0.0663537
0.115434
-0.00686178
-0.00526128
0.127944
0.0621867
-0.0746967
0.138503
0.118681
-0.12924
0.145845
0.157108
-0.16445
0.150123
0.178571
-0.182848
0.151661
0.1875
-0.189039
0.149728
0.194241
-0.192308
0.143865
0.207713
-0.20185
0.136054
0.222953
-0.215142
0.130242
0.215914
-0.210102
0.129352
0.164658
-0.163768
0.133443
0.0729249
-0.0770153
0.14032
-0.0333112
0.0264339
0.147597
-0.120948
0.113671
0.153425
-0.179845
0.174016
0.155973
-0.206439
0.203892
0.153347
-0.225422
0.228047
0.145776
-0.23806
0.245631
0.137063
-0.243853
0.252566
0.132156
-0.20857
0.213477
0.133618
-0.120521
0.119059
0.140211
-0.0135245
0.00693182
0.147477
0.10343
-0.110697
0.150594
0.168051
-0.171168
0.147528
0.248063
-0.244996
0.141196
0.271395
-0.265064
0.137247
0.271358
-0.267408
0.138687
0.199089
-0.200529
0.14334
0.0467775
-0.0514303
0.145991
-0.0271406
0.024489
0.144205
-0.212322
0.214108
0.141823
-0.240851
0.243232
0.14069
-0.303854
0.304987
0.13972
-0.276043
0.277013
-0.00573725
0.00733984
-0.0170905
0.053488
-0.0110466
0.0593643
-0.00378215
0.0639295
0.00470096
0.066533
0.0143349
0.0664708
0.0249445
0.0630832
0.0362407
0.0558226
0.047845
0.0443183
0.059344
0.0284311
0.0703776
0.00814599
0.0806991
-0.0161974
0.0903068
-0.044253
0.0991041
-0.0746047
0.106783
-0.104278
0.112782
-0.12926
0.116535
-0.146391
0.117843
-0.155021
0.117009
-0.156718
0.114185
-0.153943
0.108737
-0.150231
0.100399
-0.149712
0.0912326
-0.152441
0.085498
-0.150017
0.0866757
-0.129278
0.0949287
-0.0836481
0.107767
-0.0196997
0.121885
0.0480682
0.134433
0.106133
0.143877
0.147664
0.150103
0.172344
0.153126
0.184477
0.152254
0.195114
0.147434
0.212533
0.140808
0.229579
0.135869
0.220853
0.135009
0.165518
0.138266
0.0696683
0.143749
-0.0387944
0.149348
-0.126548
0.153599
-0.184095
0.155089
-0.20793
0.15195
-0.222282
0.144064
-0.230174
0.135002
-0.234791
0.130046
-0.203614
0.131958
-0.122433
0.139398
-0.0209646
0.147314
0.0955143
0.150847
0.164518
0.148064
0.250846
0.141796
0.277664
0.137804
0.275349
0.139034
0.19786
0.143825
0.0419864
0.146645
-0.0299607
0.144789
-0.210465
0.142334
-0.238396
0.141109
-0.302628
0.140007
-0.274942
-0.0040279
0.00525629
0.0469204
0.0127436
0.0518771
0.0211984
0.0554747
0.0305799
0.0571516
0.0407295
0.0563212
0.0513889
0.0524238
0.0622335
0.0449781
0.072899
0.0336527
0.0830365
0.0182936
0.0923639
-0.00118142
0.100783
-0.0246169
0.108249
-0.0517183
0.114655
-0.0810108
0.119653
-0.109276
0.122767
-0.132374
0.123686
-0.14731
0.122449
-0.153785
0.119546
-0.153814
0.11544
-0.149838
0.109621
-0.144413
0.101092
-0.141182
0.0907142
-0.142064
0.082427
-0.14173
0.0808839
-0.127735
0.0876191
-0.0903833
0.1005
-0.032581
0.115789
0.0327797
0.130113
0.0918088
0.141623
0.136154
0.149827
0.16414
0.154433
0.179871
0.154861
0.194685
0.151377
0.216017
0.146093
0.234863
0.141949
0.224997
0.140895
0.166572
0.143118
0.0674455
0.147099
-0.042776
0.150999
-0.130448
0.153672
-0.186767
0.154155
-0.208413
0.150654
-0.218781
0.142663
-0.222183
0.133377
-0.225505
0.128334
-0.198572
0.130545
-0.124643
0.138672
-0.0290914
0.147176
0.0870099
0.151178
0.160516
0.14877
0.253253
0.142621
0.283814
0.138574
0.279396
0.139539
0.196895
0.144427
0.0370981
0.14744
-0.0329731
0.145498
-0.208523
0.142921
-0.23582
0.141608
-0.301316
0.140422
-0.273755
-0.00224088
0.03009
0.0396081
0.0382511
0.043716
0.0471857
0.04654
0.0567716
0.0475656
0.0667767
0.0463161
0.0769105
0.04229
0.0868594
0.0350292
0.0963083
0.0242038
0.104926
0.00967587
0.11267
-0.0089255
0.119324
-0.0312704
0.124848
-0.0572427
0.129031
-0.0851935
0.131455
-0.111701
0.131751
-0.13267
0.129925
-0.145484
0.126365
-0.150224
0.121663
-0.149112
0.11643
-0.144606
0.110473
-0.138455
0.102455
-0.133164
0.0919435
-0.131552
0.0818053
-0.131592
0.0772869
-0.123216
0.0816769
-0.0947733
0.0937682
-0.0446722
0.109685
0.0168633
0.125515
0.0759786
0.139002
0.122667
0.14918
0.153962
0.155471
0.17358
0.157433
0.192724
0.15554
0.21791
0.151707
0.238695
0.148285
0.228419
0.146889
0.167969
0.147878
0.0664558
0.150303
-0.0452004
0.152529
-0.132673
0.153648
-0.187887
0.153151
-0.207916
0.149399
-0.215029
0.141494
-0.214278
0.132127
-0.216137
0.126967
-0.193412
0.129324
-0.127001
0.13798
-0.0377477
0.14703
0.0779598
0.151569
0.155977
0.149646
0.255176
0.143694
0.289766
0.139588
0.283501
0.140222
0.196261
0.145143
0.0321771
0.148361
-0.036191
0.146325
-0.206487
0.143579
-0.233074
0.14218
-0.299916
0.14095
-0.272525
-0.000406295
0.053976
0.0318386
0.0623235
0.0353685
0.0712311
0.0376324
0.0805712
0.0382256
0.0900818
0.0368055
0.0994646
0.0329071
0.108431
0.0260628
0.116735
0.0159
0.124129
0.00228154
0.130585
-0.0153815
0.135846
-0.0365308
0.139717
-0.0611136
0.141813
-0.0872897
0.141707
-0.111595
0.139269
-0.130233
0.134904
-0.141118
0.129341
-0.144662
0.12324
-0.143012
0.117136
-0.138502
0.111103
-0.132422
0.103971
-0.126032
0.0943221
-0.121903
0.0834373
-0.120707
0.0762109
-0.11599
0.0775247
-0.0960871
0.0878179
-0.0549653
0.103675
0.00100616
0.120618
0.0590356
0.135894
0.107391
0.147981
0.141875
0.156041
0.16552
0.159744
0.189021
0.159665
0.217988
0.157386
0.240974
0.154652
0.231153
0.152782
0.169838
0.152454
0.0667838
0.153279
-0.0460247
0.153886
-0.133281
0.153502
-0.187502
0.15205
-0.206464
0.148134
-0.211113
0.140487
-0.20663
0.131178
-0.206829
0.125881
-0.188114
0.128231
-0.129351
0.137266
-0.0467828
0.146829
0.0683971
0.151987
0.150819
0.150673
0.256491
0.14502
0.29542
0.140864
0.287657
0.141099
0.196026
0.145964
0.0273123
0.149393
-0.03962
0.147261
-0.204355
0.144306
-0.230119
0.142815
-0.298425
0.141577
-0.271286
0.00144462
0.0756685
0.024247
0.0836934
0.0273436
0.0921814
0.0291443
0.100986
0.0294207
0.109829
0.0279626
0.118429
0.024307
0.126529
0.0179628
0.133796
0.00863351
0.140548
-0.00447107
0.1459
-0.0207327
0.149972
-0.0406031
0.152311
-0.0634525
0.15239
-0.0873692
0.149869
-0.109074
0.144948
-0.125312
0.138405
-0.134575
0.131233
-0.13749
0.124147
-0.135926
0.117501
-0.131856
0.111426
-0.126347
0.105201
-0.119807
0.0970957
-0.113798
0.0867369
-0.110348
0.0776546
-0.106907
0.0755639
-0.0939964
0.0830602
-0.0624617
0.0979334
-0.0138671
0.115433
0.0415355
0.132168
0.0906564
0.146016
0.128027
0.155879
0.155658
0.161489
0.183411
0.163403
0.216074
0.162804
0.241573
0.160788
0.233169
0.158429
0.172197
0.15669
0.0685229
0.155938
-0.0452726
0.15501
-0.132353
0.1532
-0.185693
0.150817
-0.204081
0.146796
-0.207092
0.139548
-0.199382
0.130436
-0.197717
0.124995
-0.182673
0.127195
-0.131551
0.136459
-0.0560472
0.146514
0.058342
0.152386
0.144947
0.151819
0.257057
0.146583
0.300656
0.142407
0.291832
0.14217
0.196263
0.146885
0.0225978
0.150514
-0.0432487
0.148293
-0.202134
0.145098
-0.226925
0.143507
-0.296834
0.14229
-0.270069
0.00327926
0.096739
0.017772
0.103757
0.020326
0.111329
0.0215718
0.119239
0.021511
0.127196
0.0200056
0.134942
0.0165606
0.142252
0.0106536
0.148789
0.00209651
0.154532
-0.0102143
0.158959
-0.0251599
0.161769
-0.0434133
0.162429
-0.0641121
0.160414
-0.0853543
0.155598
-0.104257
0.148533
-0.118247
0.140284
-0.126326
0.131964
-0.129169
0.124279
-0.128241
0.117417
-0.124994
0.111382
-0.120311
0.10586
-0.114285
0.0994661
-0.107404
0.0907344
-0.101617
0.0811804
-0.0973534
0.0760541
-0.0888701
0.0800148
-0.0664223
0.0926739
-0.0265262
0.110008
0.0242011
0.127721
0.0729434
0.143095
0.112653
0.15473
0.144023
0.162348
0.175793
0.166403
0.212019
0.167598
0.240378
0.166395
0.234371
0.163575
0.175018
0.160502
0.071595
0.158196
-0.0429663
0.155835
-0.129992
0.152705
-0.182563
0.149416
-0.200792
0.145322
-0.202998
0.138589
-0.192649
0.129794
-0.188921
0.124214
-0.177093
0.126136
-0.133472
0.135484
-0.0653953
0.146019
0.0478066
0.152701
0.138265
0.153032
0.256726
0.148347
0.305341
0.144201
0.295978
0.143437
0.197026
0.147892
0.0181431
0.151701
-0.0470578
0.149405
-0.199838
0.14595
-0.22347
0.144246
-0.295129
0.143073
-0.268897
0.00506333
0.12025
0.0134051
0.125463
0.0151139
0.131418
0.0156165
0.137804
0.0151248
0.144358
0.0134517
0.150837
0.0100812
0.156801
0.00468991
0.162588
-0.0036901
0.166906
-0.0145327
0.169922
-0.0281755
0.171037
-0.0445285
0.169697
-0.0627723
0.165512
-0.0811692
0.158637
-0.0973821
0.149905
-0.109516
0.140518
-0.116939
0.131544
-0.120195
0.1236
-0.120297
0.116776
-0.11817
0.110911
-0.114447
0.105865
-0.109239
0.100893
-0.102432
0.0943308
-0.0950539
0.0858022
-0.0888248
0.0788313
-0.0818992
0.0789718
-0.0665629
0.0883992
-0.0359536
0.104477
0.00812346
0.122503
0.054917
0.139071
0.0960845
0.152379
0.130715
0.162024
0.166148
0.168271
0.205773
0.171336
0.237313
0.171079
0.234629
0.168005
0.178091
0.163718
0.0758827
0.159965
-0.0392134
0.156278
-0.126306
0.151965
-0.17825
0.147804
-0.196631
0.143645
-0.198839
0.137519
-0.186523
0.129147
-0.180549
0.123439
-0.171386
0.12497
-0.135003
0.134269
-0.074695
0.145272
0.0368042
0.15286
0.130676
0.154241
0.255345
0.150255
0.309328
0.146209
0.300024
0.144892
0.198344
0.148964
0.0140709
0.15293
-0.0510231
0.150578
-0.197487
0.146856
-0.219748
0.145024
-0.293297
0.143913
-0.267786
0.00676023
0.146188
0.0114098
0.149227
0.0120745
0.153033
0.0118106
0.157298
0.0108601
0.161856
0.00889372
0.166483
0.00545451
0.170754
0.000418388
0.174503
-0.00743913
0.177033
-0.0170622
0.178057
-0.0292
0.177047
-0.0435185
0.173532
-0.0592568
0.167335
-0.074972
0.158862
-0.0889093
0.149082
-0.099736
0.139154
-0.107011
0.129991
-0.111033
0.122064
-0.11237
0.115421
-0.111527
0.10984
-0.108866
0.105161
-0.104559
0.10114
-0.0984108
0.0966269
-0.0905413
0.0902064
-0.0824043
0.0831108
-0.0748036
0.0801459
-0.063598
0.0855768
-0.0413845
0.0991363
-0.00543605
0.116548
0.0375052
0.133831
0.0788016
0.148622
0.115925
0.160277
0.154493
0.168811
0.19724
0.173854
0.23227
0.174597
0.233885
0.171414
0.181274
0.166195
0.081102
0.161132
-0.0341506
0.156241
-0.121415
0.1509
-0.172909
0.14592
-0.191651
0.141683
-0.194602
0.136244
-0.181084
0.128401
-0.172705
0.122575
-0.165561
0.123624
-0.136052
0.132743
-0.0838136
0.1442
0.0253467
0.15278
0.122097
0.155368
0.252756
0.152234
0.312463
0.148384
0.303874
0.146492
0.200236
0.150099
0.0104629
0.154172
-0.0550957
0.151794
-0.195108
0.147805
-0.215759
0.145828
-0.291319
0.144796
-0.266754
0.00833017
0.169257
0.0110895
0.170495
0.0108362
0.172244
0.0100621
0.174366
0.00873796
0.176778
0.00648134
0.179189
0.00304414
0.181595
-0.00198773
0.182895
-0.00873925
0.183209
-0.017376
0.182003
-0.0279941
0.178837
-0.0403529
0.173389
-0.0538084
0.165689
-0.0672719
0.156283
-0.0795035
0.146113
-0.0895659
0.136166
-0.0970639
0.127159
-0.102025
0.119431
-0.104642
0.113026
-0.105121
0.107777
-0.103617
0.103473
-0.100256
0.100054
-0.094992
0.0970627
-0.08755
0.0930717
-0.0784132
0.0874658
-0.0691977
0.0830408
-0.059173
0.0846679
-0.0430116
0.0945265
-0.0152947
0.110127
0.0219048
0.127384
0.0615442
0.143334
0.0999748
0.156865
0.140962
0.167585
0.18652
0.17463
0.225225
0.176587
0.231928
0.173591
0.18427
0.167817
0.0868762
0.161653
-0.0279866
0.155664
-0.115426
0.149448
-0.166693
0.143727
-0.18593
0.139376
-0.190251
0.134685
-0.176393
0.127491
-0.165512
0.121563
-0.159632
0.12203
-0.136519
0.130837
-0.0926211
0.142735
0.0134489
0.152376
0.112456
0.156309
0.248823
0.154187
0.314585
0.150649
0.307412
0.148219
0.202666
0.151262
0.00741948
0.1554
-0.0592333
0.153033
-0.192741
0.148786
-0.211513
0.146646
-0.289179
0.145708
-0.265816
0.00972981
0.182852
0.0113401
0.183081
0.0106069
0.183493
0.00965042
0.184164
0.00806674
0.184999
0.00564693
0.185642
0.00240099
0.185929
-0.00227541
0.185484
-0.00829421
0.183946
-0.0158372
0.180958
-0.0250065
0.176207
-0.0356024
0.169547
-0.047148
0.161153
-0.0588783
0.151591
-0.0699407
0.14166
-0.0796357
0.132128
-0.0875319
0.123529
-0.0934256
0.116117
-0.0972312
0.10995
-0.0989536
0.104957
-0.0986244
0.100972
-0.0962702
0.0979143
-0.0919346
0.0957724
-0.0854081
0.0937424
-0.0763833
0.0904424
-0.0658977
0.0864357
-0.0551663
0.0854761
-0.0420519
0.0913522
-0.0211709
0.103852
0.00940508
0.119987
0.0454092
0.136547
0.0834145
0.151884
0.125625
0.164993
0.173411
0.17422
0.215998
0.177313
0.228835
0.174619
0.186964
0.168669
0.0928265
0.161721
-0.0210384
0.154722
-0.108427
0.147766
-0.159738
0.141395
-0.179559
0.136843
-0.185699
0.132866
-0.172415
0.126434
-0.15908
0.120421
-0.153619
0.12019
-0.136287
0.128516
-0.100948
0.140795
0.00117001
0.151558
0.101693
0.157005
0.243376
0.156033
0.315557
0.152924
0.31052
0.150038
0.205552
0.152442
0.00501538
0.156588
-0.0633787
0.154282
-0.190435
0.149786
-0.207018
0.147469
-0.286862
0.146641
-0.264988
0.0109142
0.184488
0.0113585
0.184308
0.0107869
0.184263
0.00969536
0.184241
0.00808822
0.184147
0.0057409
0.183985
0.00256387
0.183224
-0.00151447
0.181678
-0.0067481
0.179109
-0.0132692
0.175246
-0.0211434
0.169904
-0.0302601
0.16306
-0.0403043
0.154954
-0.0507719
0.146075
-0.0610617
0.137031
-0.0705917
0.12837
-0.0788706
0.120479
-0.0855345
0.113568
-0.0903209
0.107709
-0.0930941
0.102907
-0.0938224
0.099095
-0.0924584
0.0961729
-0.0890125
0.0942588
-0.083494
0.0932238
-0.0753482
0.0919118
-0.0645858
0.0894343
-0.0526888
0.0875794
-0.040197
0.0899721
-0.0235636
0.0986648
0.000712431
0.112315
0.0317591
0.128156
0.0675735
0.144305
0.109476
0.159383
0.158332
0.170897
0.204484
0.175664
0.224068
0.174143
0.188485
0.168809
0.0981602
0.161352
-0.0135814
0.153436
-0.10051
0.145975
-0.152277
0.139111
-0.172694
0.134268
-0.180857
0.130869
-0.169016
0.125264
-0.153474
0.119197
-0.147553
0.118194
-0.135284
0.125913
-0.108666
0.138463
-0.0113794
0.150237
0.0899191
0.157267
0.236345
0.157619
0.315205
0.155126
0.313013
0.151877
0.208802
0.153658
0.00323391
0.157708
-0.0674286
0.155526
-0.188253
0.15078
-0.202272
0.148298
-0.28438
0.147591
-0.26428
0.0118367
0.200769
0.0113816
-0.200792
0.201349
0.0102065
0.202087
0.0089575
0.203058
0.00711732
0.204199
0.00459971
0.205334
0.00142863
0.206506
-0.00268641
0.207472
-0.00771403
0.208016
-0.0138126
0.207861
-0.0209892
0.206743
-0.029142
0.204465
-0.0380258
0.200957
-0.0472638
0.196293
-0.0563977
0.190652
-0.0649509
0.184259
-0.0724775
0.177344
-0.0786199
0.170129
-0.0831054
0.162802
-0.085768
0.15553
-0.0865494
0.148441
-0.0853699
0.141559
-0.0821308
0.134965
-0.0768994
0.128873
-0.0692563
0.122943
-0.0586563
0.1161
-0.0458454
0.108337
-0.0324346
0.102093
-0.0173191
0.100173
0.00263202
0.103011
0.0289214
0.109064
0.0615202
0.116303
0.102238
0.123859
0.150775
0.131911
0.196432
0.141983
0.213996
0.1556
0.174868
0.168786
0.0849747
0.176464
-0.0212593
0.177357
-0.101403
0.172913
-0.147833
0.165312
-0.165094
0.157485
-0.17303
0.150504
-0.162034
0.142168
-0.145138
0.13314
-0.138525
0.12763
-0.129775
0.128056
-0.109093
0.13223
-0.015553
0.135775
0.086374
0.137421
0.234699
0.137904
0.314722
0.139864
0.311053
0.143264
0.205402
0.148238
-0.00173988
0.153031
-0.0722214
0.150548
-0.185771
0.144359
-0.196083
0.1398
-0.279821
0.135988
-0.260469
0.0142445
0.212528
0.0109734
-0.21212
0.213166
0.00956888
0.214099
0.00802409
0.215131
0.00608483
0.216147
0.0035843
0.217149
0.000426528
0.217971
-0.00350848
0.218492
-0.00823531
0.218514
-0.0138339
0.217834
-0.0203094
0.216265
-0.0275729
0.213672
-0.0354332
0.210005
-0.0435971
0.205307
-0.0516989
0.1997
-0.059344
0.193368
-0.066146
0.186528
-0.0717794
0.179403
-0.0759807
0.172197
-0.0785622
0.165065
-0.0794176
0.15814
-0.0784447
0.151482
-0.0754724
0.145101
-0.0705182
0.139173
-0.0633284
0.133765
-0.0532483
0.128112
-0.040193
0.121404
-0.0257267
0.114587
-0.010502
0.110499
0.00671973
0.110978
0.0284433
0.115726
0.0567714
0.1232
0.0947645
0.131925
0.14205
0.141687
0.18667
0.154213
0.201471
0.16996
0.159121
0.184037
0.0708973
0.191146
-0.0283678
0.190798
-0.101055
0.185094
-0.142129
0.176434
-0.156433
0.167731
-0.164327
0.160395
-0.154699
0.152073
-0.136816
0.142755
-0.129207
0.136474
-0.123495
0.136424
-0.109042
0.140493
-0.0196226
0.144565
0.082303
0.147033
0.232231
0.148503
0.313251
0.151453
0.308103
0.155119
0.201736
0.159844
-0.00646434
0.164479
-0.0768566
0.161487
-0.182779
0.154442
-0.189038