/*--------------------------------*- C++ -*----------------------------------*\
| =========                 |                                                 |
| \\      /  F ield         | OpenFOAM: The Open Source CFD Toolbox           |
|  \\    /   O peration     | Version:  2512                                  |
|   \\  /    A nd           | Website:  www.openfoam.com                      |
|    \\/     M anipulation  |                                                 |
\*---------------------------------------------------------------------------*/
FoamFile
{
    version     2.0;
    format      ascii;
    arch        "LSB;label=32;scalar=64";
    class       volVectorField;
    location    "100";
    object      U;
}
// * * * * * * * * * * * * * * * * * * * * * * * * * * * * * * * * * * * * * //

dimensions      [0 1 -1 0 0 0 0];

internalField   nonuniform List<vector> 
13248
(
(-0.0113543 0.00986796 6.51301e-20)
(-0.0204701 0.0184518 0)
(-0.017714 0.0202619 -1.23608e-19)
(-0.00334808 0.0182862 1.16443e-19)
(0.0226494 0.014544 1.08994e-19)
(0.0603416 0.0104253 0)
(0.109708 0.00691049 0)
(0.170479 0.00469039 2.57805e-19)
(0.241975 0.00423774 -3.2055e-21)
(0.322997 0.00583815 -2.2164e-19)
(0.411779 0.00959656 2.00132e-19)
(0.506041 0.0154356 -1.24608e-19)
(0.603113 0.0230998 0)
(0.700121 0.0321732 -2.01834e-19)
(0.794206 0.0421136 3.73341e-19)
(0.88273 0.0522991 -8.76639e-20)
(0.963459 0.062086 -1.52492e-19)
(1.03469 0.0708472 1.43151e-19)
(1.09534 0.0780928 0)
(1.14496 0.0832222 0)
(1.18373 0.0865011 0)
(1.2122 0.0860431 0)
(1.23194 0.0861605 4.39655e-20)
(1.24384 0.0758969 1.62996e-19)
(-0.0116671 0.00935589 -1.96862e-19)
(-0.0171993 0.0165459 1.34572e-19)
(-0.00657067 0.0175688 -1.0828e-21)
(0.0192451 0.015304 -1.77997e-19)
(0.0597775 0.0118337 -1.08873e-19)
(0.114613 0.00867209 -1.02723e-19)
(0.183087 0.00687903 -1.87157e-19)
(0.264034 0.00715494 1.7709e-19)
(0.355606 0.00989269 0)
(0.455214 0.0151967 1.78611e-21)
(0.559624 0.0228951 4.11065e-21)
(0.665185 0.0325661 1.25472e-19)
(0.768145 0.0435875 0)
(0.864997 0.0552083 0)
(0.952779 0.0666336 1.37112e-19)
(1.0293 0.077111 -2.573e-19)
(1.09327 0.0860038 1.51374e-19)
(1.1443 0.0928419 -1.42113e-19)
(1.18286 0.0973543 -6.27433e-20)
(1.21016 0.0994342 -1.13184e-19)
(1.22777 0.0992465 -4.79536e-20)
(1.23793 0.0966545 -9.00481e-20)
(1.24182 0.0932722 1.31166e-19)
(1.24313 0.0856491 3.8269e-20)
(-0.0107158 0.00797875 0)
(-0.0100359 0.0127622 0)
(0.0112697 0.0127656 6.29701e-20)
(0.0514855 0.0106031 5.79693e-20)
(0.109479 0.00830291 -1.58559e-21)
(0.184026 0.00739535 -1.06107e-19)
(0.273327 0.00888411 0)
(0.374731 0.0132983 -8.76963e-20)
(0.484651 0.02073 8.1759e-20)
(0.598719 0.0308673 7.6253e-22)
(0.712158 0.0430557 -1.36281e-19)
(0.820275 0.0563995 -1.22431e-19)
(0.918964 0.0698927 3.73486e-21)
(1.00511 0.0825566 -9.72904e-20)
(1.07681 0.0935609 2.36019e-19)
(1.13346 0.102309 0)
(1.17564 0.108478 -1.49298e-19)
(1.20487 0.112007 7.21983e-20)
(1.22331 0.11308 6.26887e-20)
(1.2334 0.111957 0)
(1.23756 0.109229 5.14062e-20)
(1.23787 0.104755 -1.79444e-19)
(1.23568 0.100548 1.68451e-19)
(1.23369 0.0927595 1.08239e-19)
(-0.00822359 0.00592887 -6.99254e-20)
(0.00182541 0.0076281 -7.23183e-20)
(0.0369983 0.00671873 6.53511e-20)
(0.0947032 0.00539763 0)
(0.172821 0.00549507 0)
(0.268795 0.00838588 -2.17025e-21)
(0.379043 0.0147836 0)
(0.498813 0.0247594 -2.67348e-19)
(0.622415 0.0378116 2.47013e-19)
(0.743771 0.0529804 -3.02845e-19)
(0.857151 0.069026 6.83333e-20)
(0.957861 0.0846419 0)
(1.04274 0.0986611 1.10853e-19)
(1.11037 0.110211 -2.0422e-19)
(1.16101 0.118795 4.83055e-20)
(1.19625 0.124295 1.21489e-19)
(1.21861 0.126909 -6.33568e-21)
(1.23103 0.127053 -1.35772e-19)
(1.23638 0.125235 0)
(1.23718 0.121963 0)
(1.23533 0.117719 -4.80239e-20)
(1.23211 0.112621 4.31254e-20)
(1.22824 0.107869 1.55028e-19)
(1.22471 0.100501 -1.45527e-19)
(-0.00388827 0.00344263 -7.38517e-20)
(0.0191753 0.00186352 -7.34565e-20)
(0.0716636 0.000634515 2.06585e-19)
(0.149821 0.00134081 -1.25081e-19)
(0.250017 0.00540011 1.17736e-19)
(0.367663 0.0137544 2.13024e-19)
(0.496724 0.0264799 -1.50281e-19)
(0.629982 0.0428369 -1.81063e-19)
(0.759835 0.0614726 4.81539e-21)
(0.87932 0.0807092 2.29521e-19)
(0.983067 0.0988721 0)
(1.06788 0.11458 6.20841e-20)
(1.13289 0.126933 0)
(1.17922 0.135571 -9.8842e-20)
(1.20947 0.140614 1.3852e-19)
(1.22703 0.142524 8.74577e-22)
(1.23537 0.141939 -3.59839e-20)
(1.2376 0.13952 6.63011e-20)
(1.23617 0.135844 5.76259e-20)
(1.2328 0.131346 -5.15709e-20)
(1.22852 0.126356 4.80133e-20)
(1.22393 0.12093 -4.31155e-20)
(1.2192 0.115805 0)
(1.21503 0.108732 -3.30901e-20)
(0.00261809 0.000794519 7.38412e-20)
(0.0427214 -0.00365921 7.75235e-20)
(0.115974 -0.00404431 -6.92159e-20)
(0.216995 0.000320754 1.28701e-19)
(0.339932 0.0101028 -1.21137e-19)
(0.477433 0.0254044 1.08975e-19)
(0.620602 0.0452469 -5.24206e-20)
(0.760021 0.0677874 1.36134e-19)
(0.887185 0.0907788 -8.55718e-20)
(0.995797 0.112064 1.49602e-19)
(1.08249 0.12998 -3.44085e-19)
(1.14684 0.143577 1.26192e-19)
(1.19084 0.152638 -1.08533e-19)
(1.218 0.15753 1.01944e-19)
(1.23244 0.158982 8.68033e-20)
(1.23809 0.157843 7.53893e-20)
(1.23821 0.154908 -2.10284e-19)
(1.23522 0.15081 1.30087e-19)
(1.2307 0.145998 -5.76287e-20)
(1.22558 0.140762 1.50352e-19)
(1.22034 0.135272 -4.85691e-20)
(1.21518 0.129589 -1.18265e-19)
(1.2102 0.124092 1.09181e-19)
(1.2056 0.117242 3.308e-20)
(0.0116147 -0.0016926 0)
(0.0729635 -0.00794696 6.5643e-22)
(0.170061 -0.00576808 1.44808e-19)
(0.29529 0.00419329 -1.35815e-19)
(0.439815 0.0213669 -1.21978e-19)
(0.593024 0.0445229 2.2637e-19)
(0.743406 0.0712796 -1.04968e-19)
(0.880459 0.0986539 1.38824e-19)
(0.996505 0.123819 -3.45519e-21)
(1.08766 0.144687 -7.82142e-20)
(1.15375 0.160178 1.68502e-19)
(1.19751 0.170188 -2.48314e-19)
(1.22329 0.175329 0)
(1.23593 0.176598 -4.80951e-20)
(1.23982 0.175065 -1.27218e-19)
(1.23843 0.171668 4.02018e-20)
(1.23421 0.16712 1.6762e-21)
(1.22871 0.161902 -8.62208e-20)
(1.22279 0.15631 5.78863e-21)
(1.21692 0.150513 9.95821e-20)
(1.21126 0.144605 -4.41763e-20)
(1.20586 0.138641 -1.68364e-20)
(1.20068 0.13276 5.18004e-20)
(1.1958 0.126076 0)
(0.0233502 -0.00363443 0)
(0.11004 -0.00991596 3.93216e-20)
(0.233267 -0.00300667 -1.89397e-19)
(0.382525 0.0145396 6.86595e-20)
(0.545418 0.0403201 -6.46197e-20)
(0.708188 0.0713293 -5.88734e-20)
(0.857819 0.103705 -1.03467e-19)
(0.984569 0.13368 5.19713e-20)
(1.08344 0.158486 4.47957e-20)
(1.15415 0.176746 0)
(1.19996 0.188386 1.00368e-19)
(1.22607 0.194248 -1.48762e-19)
(1.23807 0.195617 1.10428e-19)
(1.24091 0.193819 4.81201e-20)
(1.23841 0.189978 -3.91022e-20)
(1.23317 0.184919 -3.22052e-20)
(1.22678 0.179187 -2.98911e-20)
(1.22012 0.173106 9.03123e-20)
(1.21361 0.166858 0)
(1.20743 0.160541 4.48875e-20)
(1.2016 0.154207 3.75474e-20)
(1.19609 0.147896 -9.35013e-20)
(1.19083 0.141612 -6.38579e-20)
(1.18578 0.135004 5.89354e-20)
(0.0379331 -0.00458575 -4.27304e-20)
(0.153594 -0.00844519 -1.69382e-21)
(0.304045 0.00561472 3.85703e-20)
(0.475375 0.0324671 1.07633e-19)
(0.651559 0.0672971 3.11155e-20)
(0.816656 0.105131 -6.0265e-20)
(0.958014 0.140969 5.49174e-20)
(1.06864 0.170971 -4.78588e-20)
(1.14749 0.193158 8.54588e-20)
(1.19809 0.207327 3.60063e-20)
(1.22642 0.214511 -1.0244e-19)
(1.23897 0.216315 2.99179e-20)
(1.24145 0.214387 5.06428e-20)
(1.23817 0.210103 -2.49967e-20)
(1.23205 0.204458 0)
(1.22481 0.198092 3.65645e-20)
(1.21738 0.191383 6.13748e-20)
(1.21021 0.184535 1.01466e-20)
(1.20346 0.177654 -5.08995e-20)
(1.19715 0.170797 2.10973e-20)
(1.19126 0.163998 0)
(1.18571 0.15727 -1.64357e-20)
(1.18041 0.150577 -1.56141e-20)
(1.17528 0.14394 0)
(0.0552678 -0.00406371 0)
(0.202679 -0.00246656 2.24155e-20)
(0.379984 0.0211702 4.13888e-20)
(0.569713 0.0584782 -1.09898e-19)
(0.752919 0.10186 3.55736e-20)
(0.913243 0.144611 0)
(1.04052 0.181344 5.28845e-20)
(1.13198 0.208991 -7.37923e-20)
(1.19086 0.226921 -4.27086e-20)
(1.22382 0.236255 1.91943e-20)
(1.2384 0.238954 -3.03677e-20)
(1.24131 0.237079 7.3908e-20)
(1.23764 0.232354 3.65225e-20)
(1.23076 0.226022 -2.56385e-20)
(1.22268 0.218874 -2.63872e-21)
(1.21446 0.211367 -6.84296e-20)
(1.20658 0.203744 3.10545e-20)
(1.19921 0.196129 -8.29898e-22)
(1.19239 0.188583 0)
(1.18608 0.181142 -2.11194e-20)
(1.18022 0.173824 0)
(1.17471 0.166617 4.71886e-20)
(1.16945 0.15951 -5.59352e-20)
(1.1643 0.15272 2.54319e-20)
(0.0750104 -0.00158704 -1.17447e-20)
(0.255751 0.00892935 -5.64576e-20)
(0.457979 0.0443089 6.42585e-20)
(0.661113 0.0924289 3.75978e-20)
(0.844801 0.142958 -1.79624e-20)
(0.994459 0.188179 2.99965e-20)
(1.10417 0.223291 -1.45881e-20)
(1.17596 0.246718 2.40866e-20)
(1.21684 0.259432 0)
(1.23551 0.263741 5.38995e-20)
(1.23999 0.262229 -2.42617e-21)
(1.23645 0.257109 -4.31222e-20)
(1.22902 0.249985 1.8288e-20)
(1.22014 0.241879 -2.04143e-20)
(1.21109 0.233373 -7.57451e-21)
(1.20244 0.224773 8.96578e-21)
(1.1944 0.216228 -6.77602e-21)
(1.18702 0.20781 -3.66028e-20)
(1.18026 0.199555 2.23815e-20)
(1.17406 0.191484 4.50867e-21)
(1.1683 0.183597 3.94142e-21)
(1.1629 0.175873 3.44749e-21)
(1.15773 0.168361 0)
(1.15264 0.161277 0)
(0.0966262 0.0032881 1.17528e-20)
(0.310868 0.0264055 -1.17284e-20)
(0.534677 0.0751736 -2.14118e-20)
(0.745507 0.133575 0)
(0.923719 0.189155 -8.91958e-21)
(1.05857 0.234267 -8.02108e-21)
(1.14941 0.26563 -1.36444e-20)
(1.20282 0.283595 0)
(1.22859 0.290688 0)
(1.23635 0.290115 0)
(1.23379 0.28476 0)
(1.22616 0.276765 0)
(1.21658 0.267503 -1.14383e-20)
(1.2067 0.257759 5.19403e-21)
(1.19725 0.247937 8.9399e-21)
(1.18851 0.238226 4.17276e-21)
(1.18054 0.228714 1.01796e-20)
(1.1733 0.21944 0)
(1.16673 0.210423 -2.38002e-21)
(1.16074 0.201672 -2.28136e-21)
(1.15521 0.193172 -3.94771e-21)
(1.15002 0.184906 -3.45301e-21)
(1.14506 0.17699 0)
(1.14016 0.16948 2.40864e-21)
(-0.000438509 -0.0349747 8.67952e-21)
(-0.00526539 -0.0768872 -9.01484e-21)
(-0.0158874 -0.0993591 -1.70672e-20)
(-0.0296081 -0.108065 0)
(-0.0448665 -0.10757 -2.2945e-20)
(-0.0608568 -0.101322 7.28479e-21)
(-0.0770445 -0.091673 -1.3514e-20)
(-0.0930721 -0.0800089 0)
(-0.108709 -0.0669561 0)
(-0.123799 -0.0526214 0)
(-0.138212 -0.0368141 0)
(-0.151826 -0.0192176 0)
(-0.164494 0.000493309 2.89221e-22)
(-0.176098 0.022587 -9.05681e-21)
(-0.186503 0.047194 1.63973e-20)
(-0.19551 0.0743598 2.32564e-20)
(-0.20292 0.103997 6.81375e-21)
(-0.208519 0.135863 0)
(-0.212094 0.169558 6.42028e-21)
(-0.21345 0.204522 -1.74414e-20)
(-0.212415 0.240047 -1.05568e-20)
(-0.208828 0.275315 -9.75231e-21)
(-0.202681 0.309491 0)
(-0.194548 0.341801 0)
(0.00115866 -0.0298095 -2.58047e-20)
(-0.00214237 -0.0648926 4.47148e-20)
(-0.0124092 -0.0830382 -1.64377e-20)
(-0.0263294 -0.0891136 -3.17061e-20)
(-0.0419821 -0.0871363 4.50496e-20)
(-0.0583625 -0.0801752 -2.81566e-20)
(-0.0748282 -0.0703221 3.99946e-20)
(-0.0909713 -0.058803 2.44771e-20)
(-0.106543 -0.0461622 0)
(-0.12138 -0.0324751 -2.2448e-20)
(-0.135343 -0.0175481 9.52662e-23)
(-0.148293 -0.00108337 1.99089e-20)
(-0.160076 0.0172098 2.69329e-20)
(-0.170523 0.0375419 3.37153e-20)
(-0.179435 0.0600469 -1.66265e-20)
(-0.186578 0.0847307 -4.47968e-20)
(-0.191699 0.11147 1.28699e-20)
(-0.19452 0.140011 -4.97164e-20)
(-0.194763 0.169964 0)
(-0.192162 0.200814 1.13982e-20)
(-0.186472 0.231943 1.05415e-20)
(-0.1774 0.262666 9.73773e-21)
(-0.164683 0.292322 0)
(-0.149249 0.320498 0)
(0.00216049 -0.0243079 0)
(-0.000110487 -0.0523975 8.5922e-20)
(-0.00987919 -0.0663775 -3.25036e-20)
(-0.0234866 -0.0701584 3.11412e-20)
(-0.0387821 -0.0670985 -8.64472e-20)
(-0.054614 -0.0598195 0)
(-0.0702531 -0.050124 -5.10998e-20)
(-0.0852472 -0.0390764 2.36092e-20)
(-0.0993281 -0.027153 -4.41741e-20)
(-0.112319 -0.0144199 1.97421e-20)
(-0.124078 -0.000705305 1.1679e-19)
(-0.134456 0.0142536 -5.47696e-20)
(-0.143281 0.0307133 -8.54424e-20)
(-0.150352 0.0488613 -3.00362e-20)
(-0.15544 0.0687903 8.10652e-22)
(-0.158287 0.090477 1.08743e-19)
(-0.158608 0.113779 -5.06557e-20)
(-0.156102 0.138432 1.93159e-21)
(-0.15046 0.164063 0)
(-0.141389 0.190194 -3.77305e-20)
(-0.12864 0.216284 0)
(-0.111944 0.241798 -3.44778e-20)
(-0.0907295 0.266356 1.24433e-19)
(-0.0646681 0.29016 1.21995e-22)
(0.00255019 -0.0188472 0)
(0.00074528 -0.040173 -7.86104e-22)
(-0.0085211 -0.0503321 3.13839e-20)
(-0.0214719 -0.0522384 -2.94937e-20)
(-0.0358468 -0.0485429 2.86213e-20)
(-0.0504015 -0.0413845 1.57953e-19)
(-0.0643457 -0.0322578 -4.96661e-20)
(-0.0771919 -0.0220604 -4.57362e-20)
(-0.0886547 -0.0112055 8.68078e-20)
(-0.0985524 0.000239372 -1.21638e-19)
(-0.106739 0.0124107 3.71374e-20)
(-0.113064 0.0255307 3.41717e-20)
(-0.117353 0.0398167 0)
(-0.119401 0.0554253 3.07684e-20)
(-0.118975 0.0724229 0)
(-0.115816 0.0907713 4.92237e-20)
(-0.109648 0.11032 -9.21859e-20)
(-0.100174 0.130804 2.41787e-20)
(-0.0871107 0.151885 7.94464e-20)
(-0.0701861 0.173105 3.76883e-20)
(-0.0491593 0.193966 0)
(-0.0237725 0.214017 -9.32139e-20)
(0.00681641 0.233123 2.97917e-20)
(0.0429208 0.251889 0)
(0.00235125 -0.0136767 0)
(0.000413094 -0.0287409 -9.88911e-20)
(-0.00848219 -0.0355607 -3.09458e-20)
(-0.020611 -0.0360846 -5.84349e-20)
(-0.0337066 -0.0322512 5.50251e-20)
(-0.0464889 -0.0257041 -5.2209e-20)
(-0.0581373 -0.0176184 9.61633e-20)
(-0.0681443 -0.00871601 4.49649e-20)
(-0.0762144 0.000658264 -1.26985e-19)
(-0.0821659 0.0104365 7.74818e-20)
(-0.0858602 0.0207207 -1.08984e-19)
(-0.0871591 0.0316866 2.31446e-19)
(-0.0859046 0.0435103 -1.24486e-19)
(-0.0819114 0.0563184 5.5521e-20)
(-0.0749683 0.07016 1.53773e-19)
(-0.0648491 0.0849924 -5.15799e-20)
(-0.0513307 0.100671 -4.47677e-20)
(-0.0341352 0.11697 -4.21019e-20)
(-0.0130269 0.133565 0)
(0.0121773 0.150036 -6.63961e-20)
(0.0416735 0.165917 -6.02231e-20)
(0.0755796 0.180723 8.72618e-20)
(0.114478 0.194266 1.08063e-19)
(0.161521 0.207121 -1.00026e-19)
(0.00160113 -0.0089149 0)
(-0.00106898 -0.0183678 -1.28732e-19)
(-0.00981066 -0.0224134 4.6714e-22)
(-0.0210751 -0.0220895 1.14884e-19)
(-0.0326775 -0.0186419 0)
(-0.0433613 -0.013223 0)
(-0.0523123 -0.00668345 0)
(-0.0590235 0.000440818 -4.38806e-20)
(-0.0632007 0.0078855 1.06565e-21)
(-0.0646691 0.0155937 7.62834e-20)
(-0.0633049 0.0236405 -1.05115e-19)
(-0.0589932 0.0321615 1.0451e-21)
(-0.0516067 0.0412954 0)
(-0.040998 0.0511434 -5.54956e-20)
(-0.0269991 0.0617443 4.71097e-20)
(-0.00943048 0.07306 -1.36411e-19)
(0.0118881 0.084971 1.64521e-19)
(0.0371414 0.0972883 3.35194e-20)
(0.0665088 0.109708 -3.54684e-21)
(0.100132 0.121883 -1.27839e-19)
(0.138134 0.133392 -5.68942e-20)
(0.180746 0.143734 1.87939e-19)
(0.226882 0.152618 -1.24375e-19)
(0.286316 0.159614 0)
(0.000338586 -0.00458549 6.12643e-20)
(-0.00361019 -0.00912697 6.41277e-20)
(-0.0124029 -0.0109843 -5.9989e-20)
(-0.0227612 -0.0103351 -1.1314e-19)
(-0.0326611 -0.0077634 1.06535e-19)
(-0.0409273 -0.00394514 -9.90633e-20)
(-0.0467897 0.000591001 1.39324e-19)
(-0.0497624 0.00550294 -4.35532e-20)
(-0.0495606 0.0106224 8.05854e-20)
(-0.0460171 0.0159216 0)
(-0.0390196 0.0214664 6.57692e-20)
(-0.0284722 0.0273675 -1.25082e-19)
(-0.0142733 0.0337393 1.13207e-19)
(0.00369155 0.0406677 -1.06324e-19)
(0.0255495 0.0481898 0)
(0.0514359 0.0562805 8.73435e-20)
(0.0814853 0.0648473 1.54763e-19)
(0.115826 0.0737291 -1.46613e-19)
(0.154577 0.0826869 -6.49838e-20)
(0.197848 0.0914218 -6.01086e-20)
(0.24551 0.0995488 1.69216e-19)
(0.29882 0.106677 5.0524e-20)
(0.352126 0.112465 -4.75327e-20)
(0.428241 0.114952 4.49781e-20)
(-0.00138745 -0.000677867 -6.12727e-20)
(-0.00703464 -0.00100445 1.89957e-19)
(-0.0159344 -0.00122288 -5.94374e-20)
(-0.0251759 -0.000692003 1.12154e-19)
(-0.0329661 0.000628666 -1.05606e-19)
(-0.0382595 0.00251619 2.11399e-22)
(-0.040357 0.00475504 4.60485e-20)
(-0.0388028 0.00720222 1.6807e-19)
(-0.0333159 0.00980117 -2.71495e-21)
(-0.0237211 0.0125757 -7.44793e-20)
(-0.00989596 0.0156062 0)
(0.00826186 0.0190016 -5.9014e-20)
(0.03085 0.0228703 1.13624e-19)
(0.0579669 0.027297 1.00673e-19)
(0.0897096 0.0323265 -4.83641e-20)
(0.126166 0.0379505 -9.19786e-22)
(0.167405 0.044101 -3.90522e-20)
(0.213464 0.0506457 6.96808e-20)
(0.264328 0.0573804 6.49731e-20)
(0.320071 0.0640779 -5.95846e-20)
(0.379702 0.0702524 5.41516e-20)
(0.446926 0.0759597 -5.03251e-20)
(0.507395 0.0803237 0)
(0.604171 0.0815451 -4.49397e-20)
(-0.00348926 0.00278923 6.10283e-20)
(-0.0110291 0.00598066 -6.32688e-20)
(-0.0198009 0.00692558 5.97043e-20)
(-0.027369 0.00703075 0)
(-0.0322301 0.00691336 0)
(-0.0334974 0.00677308 9.71346e-20)
(-0.0305498 0.00669375 -9.16538e-20)
(-0.0229518 0.00673317 8.27707e-20)
(-0.0104059 0.00696107 -3.90266e-19)
(0.007296 0.00747267 1.24176e-21)
(0.0303058 0.00838822 6.59386e-20)
(0.0587387 0.00983731 0)
(0.0926759 0.0119398 -1.08905e-19)
(0.132158 0.0147885 2.0147e-19)
(0.177171 0.0184328 -1.39318e-19)
(0.227637 0.0228681 -2.06291e-19)
(0.283396 0.0280272 4.51202e-21)
(0.344197 0.0337774 1.40118e-19)
(0.409624 0.0398925 0)
(0.479588 0.0462441 0)
(0.551602 0.0520246 -5.4147e-20)
(0.632096 0.0581167 5.03202e-20)
(0.697732 0.0621031 -1.89066e-19)
(0.808956 0.0653158 1.77263e-19)
(-0.00580903 0.00572853 0)
(-0.0151012 0.0116926 0)
(-0.0231042 0.0134008 -1.79143e-19)
(-0.0279661 0.0129304 5.68744e-20)
(-0.0285156 0.0114086 8.13914e-22)
(-0.0240312 0.00941913 9.86324e-20)
(-0.0139626 0.00732571 0)
(0.00211648 0.00538274 -8.4507e-20)
(0.0245209 0.00379205 7.80285e-20)
(0.0534733 0.00273756 -1.41782e-19)
(0.0891055 0.00239547 1.39135e-21)
(0.131448 0.00292466 1.18862e-19)
(0.180411 0.00445482 -3.18786e-21)
(0.235769 0.00707004 9.57975e-20)
(0.297142 0.0107945 -1.3981e-19)
(0.363987 0.0155806 0)
(0.4356 0.0213025 1.49713e-19)
(0.511139 0.0277602 -2.09801e-19)
(0.589524 0.0346343 6.38081e-20)
(0.67013 0.0417786 0)
(0.749686 0.0481725 5.44323e-20)
(0.834203 0.0550885 2.02303e-19)
(0.900248 0.0588735 -1.89849e-19)
(1.00569 0.0642478 -2.25353e-19)
(-0.00810492 0.00798989 1.85664e-19)
(-0.0185803 0.0158707 -2.55962e-19)
(-0.0247138 0.0179845 3.67108e-22)
(-0.0253235 0.0169252 5.69799e-20)
(-0.0195947 0.0142376 -1.06173e-19)
(-0.00697372 0.0108396 -9.8253e-20)
(0.0130087 0.0073454 1.81557e-19)
(0.0407328 0.00419232 -3.30116e-21)
(0.0764562 0.00171313 -1.57837e-19)
(0.120279 0.000178292 2.86294e-19)
(0.172105 -0.000192608 -3.57454e-21)
(0.231607 0.00076683 -1.2249e-19)
(0.298196 0.00315716 0)
(0.371016 0.00699787 0)
(0.448956 0.0122151 -4.5789e-20)
(0.530687 0.018635 -8.40122e-20)
(0.614712 0.0259875 -1.50818e-19)
(0.699438 0.0339096 1.41564e-19)
(0.783203 0.0419816 -6.38295e-20)
(0.864601 0.0497566 1.17213e-19)
(0.941253 0.0566014 -5.57976e-20)
(1.01528 0.062758 1.00762e-19)
(1.07369 0.0658948 -2.3737e-19)
(1.15114 0.0701813 4.4487e-20)
(-0.0100646 0.00940614 6.25314e-20)
(-0.0206603 0.0182022 0)
(-0.0233647 0.0203646 1.21762e-19)
(-0.0177128 0.0187984 -1.14708e-19)
(-0.00326401 0.0153482 1.06267e-19)
(0.0203386 0.0112018 0)
(0.0534119 0.00718335 0)
(0.0961545 0.0038841 -8.41439e-20)
(0.148548 0.00173837 3.13224e-21)
(0.210268 0.00106439 7.43219e-20)
(0.280618 0.00207622 -6.50872e-20)
(0.358499 0.00487882 1.23414e-19)
(0.442413 0.00945704 0)
(0.530529 0.0156676 2.00184e-19)
(0.620775 0.0232401 -3.70486e-19)
(0.71096 0.031788 2.55424e-19)
(0.798903 0.0408378 1.5204e-19)
(0.882553 0.049833 -1.42717e-19)
(0.960123 0.0582836 0)
(1.03009 0.0654375 0)
(1.09146 0.071339 0)
(1.14384 0.074491 0)
(1.18506 0.0764162 4.71442e-20)
(1.22617 0.0752543 -1.75688e-19)
(-0.183705 0.376338 -5.99411e-21)
(-0.167502 0.411036 6.01738e-21)
(-0.144373 0.436181 -1.75652e-22)
(-0.114485 0.448526 0)
(-0.0768907 0.444712 -5.4949e-21)
(-0.0312391 0.42174 1.08298e-20)
(0.0222207 0.377531 1.85491e-22)
(0.0820833 0.311262 -5.36632e-21)
(0.146314 0.224181 0)
(0.212583 0.118562 0)
(0.27834 -0.00140596 -3.46955e-22)
(0.342531 -0.131515 -3.28564e-22)
(0.40466 -0.264041 -4.67965e-21)
(0.463102 -0.38741 4.25682e-21)
(0.514604 -0.487447 0)
(0.555119 -0.553574 0)
(0.582001 -0.583942 1.95371e-21)
(0.595529 -0.584626 -3.05394e-22)
(0.596459 -0.568179 -1.45949e-21)
(0.581572 -0.55242 -7.76996e-23)
(0.548071 -0.548701 0)
(0.504509 -0.544512 0)
(0.472812 -0.503373 0)
(0.473847 -0.392467 0)
(0.510374 -0.213272 0)
(0.569581 -0.00183072 0)
(0.635738 0.194224 5.44902e-22)
(0.696314 0.340686 -8.63221e-22)
(0.742127 0.428468 0)
(0.771323 0.467082 0)
(0.787871 0.471867 -3.18385e-22)
(0.7903 0.469721 3.09439e-22)
(0.770352 0.482806 1.46359e-22)
(0.729114 0.501064 0)
(0.688578 0.472484 0)
(0.673413 0.352833 4.53073e-22)
(0.690566 0.155602 -4.40402e-22)
(0.728863 -0.0617001 0)
(0.770422 -0.231667 3.41328e-22)
(0.808403 -0.338199 -4.84053e-22)
(0.834291 -0.379942 1.1644e-22)
(0.838405 -0.406937 0)
(0.809391 -0.42092 -1.63846e-22)
(0.757767 -0.419082 1.59327e-22)
(0.718335 -0.345594 0)
(0.710194 -0.19024 0)
(0.73792 -0.0156965 -8.61879e-23)
(0.783089 0.159926 2.32886e-22)
(0.818078 0.245689 0)
(0.818706 0.346448 0)
(0.788998 0.365616 -4.81707e-23)
(0.752585 0.356173 -3.10079e-24)
(0.752794 0.256127 -5.37155e-25)
(0.777668 0.0608761 4.80581e-23)
(0.80793 -0.0314651 0)
(0.81348 -0.250258 0)
(0.797415 -0.275547 0)
(0.787682 -0.336112 0)
(0.792463 -0.296237 0)
(0.781597 -0.00711046 0)
(-0.131892 0.35168 -5.36343e-22)
(-0.106576 0.380499 -2.26574e-20)
(-0.0733609 0.399646 -2.01364e-22)
(-0.0327129 0.406024 2.14534e-20)
(0.0154808 0.396557 3.47836e-22)
(0.0707676 0.368725 0)
(0.132106 0.320985 -2.32312e-20)
(0.197662 0.253013 4.69198e-20)
(0.265228 0.166123 -2.36904e-20)
(0.332544 0.0624079 2.37727e-20)
(0.397693 -0.0552735 -2.27576e-20)
(0.459985 -0.182657 2.08604e-20)
(0.518692 -0.312388 -2.03336e-20)
(0.571292 -0.431481 -5.5435e-22)
(0.613456 -0.524238 -1.31378e-20)
(0.641319 -0.580011 1.27675e-20)
(0.65352 -0.598898 -8.10565e-21)
(0.651895 -0.5892 7.65713e-21)
(0.640044 -0.56269 -5.43444e-21)
(0.617529 -0.535197 1.00124e-20)
(0.579432 -0.521153 -4.60622e-21)
(0.527586 -0.515958 -2.60986e-22)
(0.479208 -0.487917 -5.22479e-21)
(0.458537 -0.398866 1.08661e-20)
(0.476765 -0.239371 -5.62533e-21)
(0.525909 -0.0394345 3.46194e-22)
(0.589795 0.15458 5.36339e-21)
(0.653603 0.307101 -6.05796e-22)
(0.706489 0.404718 -7.57982e-21)
(0.745261 0.452631 6.15744e-21)
(0.771465 0.465727 -2.7457e-21)
(0.780545 0.473129 2.93715e-22)
(0.765009 0.495756 -1.46667e-22)
(0.729357 0.518132 3.36719e-22)
(0.697691 0.484858 0)
(0.692041 0.354706 0)
(0.716061 0.147133 -2.02788e-21)
(0.757548 -0.0759005 1.46685e-21)
(0.796973 -0.246262 1.04433e-21)
(0.829052 -0.34948 -1.53124e-22)
(0.847528 -0.384908 -1.20414e-21)
(0.847829 -0.402582 1.85366e-22)
(0.816168 -0.407904 0)
(0.762034 -0.404264 0)
(0.71741 -0.337738 0)
(0.705043 -0.1934 0)
(0.732115 -0.0271812 2.97853e-22)
(0.77705 0.147806 -1.49207e-22)
(0.813707 0.240133 0)
(0.813141 0.349868 0)
(0.785628 0.373553 0)
(0.749486 0.360789 -1.10707e-22)
(0.751964 0.253756 -1.81545e-23)
(0.779958 0.0543423 -9.24201e-23)
(0.812333 -0.0354472 0)
(0.821337 -0.248772 0)
(0.802586 -0.27339 4.19024e-23)
(0.79337 -0.335314 9.19368e-23)
(0.795802 -0.295614 0)
(0.782239 -0.00596222 0)
(-0.0398802 0.316648 1.07601e-21)
(-0.00891714 0.340418 -4.25428e-20)
(0.0310163 0.354774 4.47487e-20)
(0.0782515 0.356723 -4.18478e-20)
(0.132226 0.343633 -3.50181e-22)
(0.192044 0.313451 0)
(0.256327 0.264971 -4.9594e-20)
(0.323175 0.198093 4.8623e-20)
(0.390516 0.11388 3.8234e-22)
(0.456351 0.0138899 7.8588e-22)
(0.519397 -0.099471 7.67443e-22)
(0.579086 -0.222725 7.04907e-22)
(0.633975 -0.348177 -3.97721e-20)
(0.68016 -0.461678 3.92073e-20)
(0.712135 -0.546702 0)
(0.726563 -0.593029 7.51633e-22)
(0.724114 -0.602387 -1.65835e-20)
(0.708242 -0.58518 1.63369e-20)
(0.684115 -0.552719 0)
(0.654119 -0.517178 0)
(0.613317 -0.493053 -8.31704e-21)
(0.557648 -0.483562 1.63981e-20)
(0.497497 -0.465272 -1.65112e-20)
(0.457207 -0.398413 -8.85718e-22)
(0.455755 -0.262438 1.91765e-20)
(0.491848 -0.0777651 -2.01676e-20)
(0.550657 0.111584 1.80689e-20)
(0.615528 0.268723 -1.63614e-21)
(0.674141 0.375595 -7.30318e-21)
(0.721705 0.433213 0)
(0.756893 0.45586 0)
(0.772426 0.47383 1.84307e-21)
(0.762014 0.506127 -2.35635e-21)
(0.733004 0.532512 1.23947e-23)
(0.710488 0.49544 3.7506e-21)
(0.713998 0.356615 -3.64475e-21)
(0.744441 0.14073 0)
(0.78868 -0.0868418 5.06221e-22)
(0.82582 -0.257114 3.53161e-21)
(0.851813 -0.357425 -6.03212e-21)
(0.862587 -0.387773 2.27e-21)
(0.858919 -0.397326 1.82467e-22)
(0.825129 -0.394508 -1.43184e-21)
(0.769321 -0.389063 1.11221e-21)
(0.720138 -0.329885 2.58258e-22)
(0.703513 -0.197136 2.69045e-22)
(0.729378 -0.0397392 -2.98608e-22)
(0.773306 0.134851 0)
(0.81123 0.233976 0)
(0.809394 0.352808 -8.05001e-22)
(0.784282 0.381312 3.97831e-22)
(0.748557 0.365362 -4.4539e-22)
(0.753215 0.25156 7.09567e-22)
(0.78395 0.0476464 8.81756e-22)
(0.818316 -0.0396099 -1.81359e-22)
(0.830539 -0.247037 3.13656e-22)
(0.808764 -0.270968 -2.20331e-22)
(0.799692 -0.334237 8.86361e-23)
(0.799943 -0.294709 0)
(0.783789 -0.00468443 0)
(0.0729115 0.273857 -8.3131e-20)
(0.108898 0.293796 -2.75145e-21)
(0.152005 0.304651 8.15769e-20)
(0.201952 0.303804 -6.85042e-22)
(0.257867 0.28911 0)
(0.31855 0.258827 0)
(0.382507 0.211852 -1.01183e-19)
(0.447997 0.14802 -6.06385e-21)
(0.51316 0.0680042 1.52717e-19)
(0.57669 -0.0269516 7.3803e-23)
(0.63774 -0.13508 -5.06493e-20)
(0.695344 -0.253538 -4.43811e-20)
(0.746993 -0.373919 4.45563e-20)
(0.786896 -0.480876 0)
(0.808461 -0.557596 -2.80578e-20)
(0.809229 -0.595032 2.57428e-20)
(0.792356 -0.596479 0)
(0.763354 -0.573797 0)
(0.72804 -0.53844 1.00663e-20)
(0.690695 -0.49892 -1.56249e-21)
(0.648292 -0.466433 -7.74153e-21)
(0.59295 -0.449438 -6.99238e-21)
(0.526826 -0.4356 6.94606e-21)
(0.470342 -0.389083 -7.87724e-21)
(0.448512 -0.279718 -4.69409e-22)
(0.468699 -0.114659 7.92353e-21)
(0.519369 0.0667201 9.77809e-22)
(0.582834 0.226421 8.45767e-23)
(0.645568 0.341542 0)
(0.700761 0.409032 4.76336e-21)
(0.744 0.44211 -4.89354e-21)
(0.765765 0.471156 2.88781e-22)
(0.761079 0.512964 0)
(0.739421 0.543523 -3.53304e-22)
(0.726139 0.504172 7.91149e-21)
(0.738574 0.358989 -1.56778e-20)
(0.774989 0.13667 -1.6088e-21)
(0.821553 -0.0945292 7.58696e-22)
(0.856468 -0.264531 7.04765e-21)
(0.876458 -0.362317 6.78853e-22)
(0.879369 -0.388767 -3.52591e-21)
(0.871436 -0.391521 3.05608e-21)
(0.83589 -0.381072 1.55976e-23)
(0.779239 -0.373507 9.81907e-22)
(0.726304 -0.321716 -1.21382e-21)
(0.705434 -0.201078 -1.70903e-21)
(0.729542 -0.0531024 5.23142e-22)
(0.771714 0.121179 8.40774e-22)
(0.810574 0.227175 -1.61258e-21)
(0.807486 0.355155 1.17029e-21)
(0.785037 0.388816 -4.70519e-22)
(0.749988 0.369941 3.14462e-22)
(0.756717 0.249697 4.69969e-22)
(0.789687 0.0409437 -1.42894e-21)
(0.825818 -0.0439379 3.83413e-23)
(0.841017 -0.245056 -3.61095e-22)
(0.81592 -0.268222 0)
(0.806618 -0.332865 -9.0635e-23)
(0.804801 -0.293543 3.19106e-23)
(0.786181 -0.00328605 0)
(0.194404 0.226931 8.01244e-20)
(0.232712 0.244009 -1.60815e-19)
(0.27637 0.252404 7.95313e-20)
(0.326289 0.250095 8.87738e-20)
(0.381614 0.235416 -1.79827e-19)
(0.440966 0.206713 -5.98587e-21)
(0.502941 0.162767 9.49993e-20)
(0.566098 0.103131 1.03254e-19)
(0.629134 0.0277933 -1.0115e-19)
(0.691038 -0.0610233 0)
(0.750919 -0.163445 -9.92749e-20)
(0.807141 -0.276094 1.88639e-19)
(0.855543 -0.389649 -8.9589e-20)
(0.88844 -0.488167 0)
(0.898939 -0.555629 0)
(0.88618 -0.585021 7.7207e-22)
(0.85585 -0.581021 -3.379e-20)
(0.815608 -0.555544 3.28292e-20)
(0.771353 -0.519848 0)
(0.727438 -0.480103 1.59647e-20)
(0.683404 -0.442867 -2.77401e-20)
(0.630935 -0.417648 2.36631e-20)
(0.564702 -0.402539 -2.23882e-20)
(0.497435 -0.371224 -9.57999e-22)
(0.456111 -0.288912 2.41843e-20)
(0.457588 -0.147799 -1.24984e-20)
(0.49675 0.0215767 -4.40141e-22)
(0.556236 0.180994 -4.86569e-21)
(0.62116 0.302897 5.4199e-22)
(0.682386 0.380078 4.43348e-21)
(0.732487 0.424063 2.68744e-22)
(0.760198 0.464346 -4.6124e-21)
(0.761699 0.515477 9.85452e-21)
(0.747869 0.550761 -5.93345e-21)
(0.743748 0.511128 0)
(0.764715 0.362175 -1.05406e-20)
(0.806773 0.135367 1.03752e-20)
(0.855498 -0.0987739 -7.40668e-21)
(0.888345 -0.268416 9.26938e-21)
(0.902556 -0.364004 -7.21896e-22)
(0.897626 -0.387737 0)
(0.885184 -0.385175 -3.61495e-22)
(0.848185 -0.367842 7.96214e-22)
(0.791387 -0.357872 0)
(0.735555 -0.313226 2.08142e-21)
(0.710491 -0.204965 -8.0316e-22)
(0.732337 -0.0669966 4.33011e-22)
(0.772073 0.106874 3.38775e-22)
(0.811605 0.21963 0)
(0.807389 0.356752 0)
(0.787913 0.395948 -1.32336e-21)
(0.753901 0.374548 2.45211e-21)
(0.762586 0.248298 -1.61795e-21)
(0.797193 0.0343072 6.00854e-22)
(0.834757 -0.0484263 9.76334e-22)
(0.852681 -0.242785 3.61433e-22)
(0.82402 -0.265069 -4.75642e-22)
(0.814121 -0.33117 0)
(0.810291 -0.292134 -7.9722e-23)
(0.789341 -0.00177485 1.77151e-23)
(0.31973 0.178206 7.82383e-20)
(0.357446 0.193712 -7.78133e-20)
(0.399141 0.200603 6.44842e-22)
(0.446951 0.197787 -6.47218e-22)
(0.500139 0.184137 7.01129e-22)
(0.557149 0.157939 -7.34054e-22)
(0.6167 0.11778 1.4769e-21)
(0.677458 0.0627597 0)
(0.73958 -0.00671345 -1.55321e-21)
(0.801121 -0.0897649 1.55454e-21)
(0.860051 -0.186219 1.51707e-21)
(0.91449 -0.291637 -1.49201e-21)
(0.958162 -0.396191 0)
(0.982233 -0.48438 0)
(0.980745 -0.542128 9.48406e-22)
(0.955149 -0.564754 0)
(0.913229 -0.557848 -5.89211e-22)
(0.864033 -0.532257 0)
(0.813423 -0.498122 -1.86786e-20)
(0.764561 -0.460503 3.30132e-20)
(0.718466 -0.422126 -2.54561e-20)
(0.669355 -0.390124 1.11892e-20)
(0.607696 -0.369533 8.55649e-21)
(0.536413 -0.346345 -8.30995e-21)
(0.478834 -0.288253 -9.40385e-21)
(0.45984 -0.174586 9.16194e-21)
(0.483953 -0.0215135 0)
(0.536475 0.133562 2.24896e-22)
(0.601225 0.260151 0)
(0.666449 0.346421 0)
(0.722025 0.401429 7.16461e-21)
(0.755308 0.452826 -7.34498e-21)
(0.763235 0.513102 5.51442e-22)
(0.757437 0.55392 7.22365e-22)
(0.762235 0.516317 -9.01047e-22)
(0.791357 0.366461 -9.67379e-21)
(0.838797 0.136915 9.39082e-21)
(0.889663 -0.0995753 -1.00326e-20)
(0.92081 -0.268885 8.59312e-21)
(0.929667 -0.362574 1.46733e-21)
(0.917083 -0.384681 -3.56702e-21)
(0.899899 -0.378362 6.11378e-22)
(0.861689 -0.355015 1.90469e-21)
(0.805277 -0.342301 0)
(0.747386 -0.304347 -7.17098e-22)
(0.71825 -0.208549 9.84087e-22)
(0.737407 -0.081152 -1.33253e-21)
(0.774109 0.0919742 -3.40932e-22)
(0.814136 0.211208 0)
(0.80902 0.357406 4.39637e-22)
(0.792851 0.40257 -7.46297e-22)
(0.760332 0.379166 2.32411e-23)
(0.770858 0.24746 -6.73296e-22)
(0.806477 0.0279013 1.16169e-21)