/*--------------------------------*- C++ -*----------------------------------*\
| =========                 |                                                 |
| \\      /  F ield         | OpenFOAM: The Open Source CFD Toolbox           |
|  \\    /   O peration     | Version:  2512                                  |
|   \\  /    A nd           | Website:  www.openfoam.com                      |
|    \\/     M anipulation  |                                                 |
\*---------------------------------------------------------------------------*/
FoamFile
{
    version     2.0;
    format      ascii;
    arch        "LSB;label=32;scalar=64";
    class       volVectorField;
    location    "93";
    object      U;
}
// * * * * * * * * * * * * * * * * * * * * * * * * * * * * * * * * * * * * * //

dimensions      [0 1 -1 0 0 0 0];

internalField   nonuniform List<vector> 
13248
(
(-0.0128477 0.0126907 9.42e-20)
(-0.020534 0.0264815 0)
(-0.00986898 0.0334812 -1.78117e-19)
(0.0175977 0.0350472 1.6778e-19)
(0.0607374 0.0326172 1.57394e-19)
(0.11865 0.027536 0)
(0.190373 0.0209021 0)
(0.274657 0.0135815 3.8614e-19)
(0.369731 0.00622654 -4.08769e-22)
(0.473118 -0.000713937 -3.39878e-19)
(0.581604 -0.00698226 3.17333e-19)
(0.691373 -0.0124903 -1.98783e-19)
(0.798299 -0.0172872 0)
(0.898331 -0.0215158 -3.38367e-19)
(0.987904 -0.025363 6.28308e-19)
(1.06429 -0.0290102 -1.50427e-19)
(1.12582 -0.0325912 -2.56579e-19)
(1.17201 -0.0361773 2.40894e-19)
(1.20347 -0.0397234 0)
(1.22165 -0.043302 0)
(1.22883 -0.0462793 0)
(1.22665 -0.0505215 0)
(1.21906 -0.0504133 6.26297e-20)
(1.20298 -0.0628634 2.10487e-19)
(-0.0112824 0.00991013 -2.84211e-19)
(-0.0124209 0.0181845 1.93495e-19)
(0.00796186 0.0208766 -1.57864e-21)
(0.0480643 0.0196025 -2.55803e-19)
(0.106542 0.0158949 -1.57225e-19)
(0.18207 0.0111125 -1.48848e-19)
(0.272893 0.00629221 -2.75644e-19)
(0.376525 0.00216109 2.60034e-19)
(0.489569 -0.000851642 0)
(0.607738 -0.00260991 9.1438e-22)
(0.726118 -0.00324348 1.24481e-21)
(0.839629 -0.00308788 1.96506e-19)
(0.943574 -0.00259709 0)
(1.03414 -0.00224425 0)
(1.1088 -0.00242963 2.24702e-19)
(1.16645 -0.0034135 -4.22233e-19)
(1.20741 -0.00528435 2.45037e-19)
(1.23316 -0.00796291 -2.30071e-19)
(1.24606 -0.0112374 -9.83593e-20)
(1.24883 -0.0148178 -1.74162e-19)
(1.2442 -0.0183064 -6.79138e-20)
(1.23463 -0.0217111 -1.25937e-19)
(1.22217 -0.0229298 1.91265e-19)
(1.20688 -0.0285114 5.26415e-20)
(-0.00874485 0.00713049 0)
(-0.000631463 0.0101294 0)
(0.0328009 0.00919895 9.05117e-20)
(0.0891448 0.00608953 8.36796e-20)
(0.166419 0.0023848 -1.57917e-21)
(0.262304 -0.000585525 -1.52702e-19)
(0.373532 -0.00195697 0)
(0.495654 -0.00132885 -1.29584e-19)
(0.623135 0.00126245 1.2135e-19)
(0.749785 0.00539643 -2.13652e-22)
(0.869449 0.0103766 -2.0845e-19)
(0.976759 0.015384 -1.90339e-19)
(1.06776 0.0196421 4.33556e-21)
(1.14028 0.0225554 -1.54323e-19)
(1.19395 0.0237936 3.73496e-19)
(1.23005 0.0233113 0)
(1.25101 0.0213111 -2.34385e-19)
(1.25988 0.0181632 1.14892e-19)
(1.25986 0.0143329 9.82804e-20)
(1.25379 0.0102383 0)
(1.24406 0.00642837 7.74918e-20)
(1.23219 0.00271412 -2.59307e-19)
(1.21955 0.000954127 2.43423e-19)
(1.206 -0.00478657 1.45863e-19)
(-0.00475604 0.004237 -9.96071e-20)
(0.0159147 0.00233712 -1.02796e-19)
(0.0660302 -0.00115476 9.34408e-20)
(0.142146 -0.00461825 0)
(0.241031 -0.0065855 0)
(0.358588 -0.00593142 -2.62299e-21)
(0.489247 -0.00221088 0)
(0.626067 0.00435575 -3.92207e-19)
(0.761381 0.0129995 3.64464e-19)
(0.887781 0.0225913 -4.50727e-19)
(0.99913 0.0318903 1.03706e-19)
(1.09132 0.039794 0)
(1.16259 0.0455272 1.6993e-19)
(1.2134 0.0487323 -3.13685e-19)
(1.24596 0.0494549 7.49156e-20)
(1.26355 0.0480531 1.87621e-19)
(1.26979 0.0450647 -1.05958e-20)
(1.26813 0.0410807 -2.06475e-19)
(1.26139 0.0366412 0)
(1.25171 0.0321868 0)
(1.24052 0.0280693 -7.101e-20)
(1.22866 0.0242857 6.28947e-20)
(1.2168 0.0219629 2.19721e-19)
(1.20454 0.0166127 -2.06328e-19)
(0.00117581 0.00122584 -1.04114e-19)
(0.0382149 -0.00496116 -1.04112e-19)
(0.108666 -0.00958385 2.93071e-19)
(0.207523 -0.0115256 -1.78632e-19)
(0.329521 -0.00973553 1.68134e-19)
(0.467933 -0.00361845 3.06935e-19)
(0.614296 0.0064863 -2.16585e-19)
(0.759215 0.0194245 -2.6322e-19)
(0.893725 0.0335509 5.39939e-21)
(1.01066 0.0471191 3.38277e-19)
(1.10561 0.0586473 0)
(1.17715 0.0671667 9.20994e-20)
(1.22653 0.0723067 0)
(1.25685 0.0742288 -1.4926e-19)
(1.27214 0.0734627 2.09961e-19)
(1.27656 0.0707129 2.29774e-21)
(1.27372 0.0666926 -5.41151e-20)
(1.26645 0.0620148 1.00734e-19)
(1.25672 0.0571483 8.61443e-20)
(1.2458 0.0524152 -7.66394e-20)
(1.23446 0.0480325 7.09919e-20)
(1.22309 0.0440203 -6.28779e-20)
(1.21196 0.0409684 0)
(1.2009 0.0358062 -4.71743e-20)
(0.00948619 -0.00175425 1.04099e-19)
(0.0670271 -0.0112239 1.08829e-19)
(0.161156 -0.0151608 -9.81011e-20)
(0.284682 -0.0134224 1.82938e-19)
(0.429452 -0.00582402 -1.72179e-19)
(0.585437 0.00723962 1.56174e-19)
(0.741269 0.0242541 -7.47335e-20)
(0.885995 0.0429625 1.97585e-19)
(1.01097 0.0609801 -1.23782e-19)
(1.11112 0.0763378 2.1864e-19)
(1.18514 0.0878129 -5.03653e-19)
(1.23495 0.0950057 1.84264e-19)
(1.2645 0.0982011 -1.60985e-19)
(1.2786 0.0981163 1.5122e-19)
(1.28189 0.0956353 1.29574e-19)
(1.27825 0.0916048 1.12965e-19)
(1.27055 0.0867192 -3.13772e-19)
(1.26073 0.0814876 1.94399e-19)
(1.24997 0.0762512 -8.61466e-20)
(1.23893 0.0712254 2.22698e-19)
(1.22797 0.066536 -7.1941e-20)
(1.21726 0.0622303 -1.72652e-19)
(1.2069 0.0585908 1.58995e-19)
(1.19671 0.0536053 4.71596e-20)
(0.0205046 -0.00440714 0)
(0.102738 -0.0156102 7.49427e-22)
(0.223213 -0.0166703 2.03574e-19)
(0.371874 -0.00898883 -1.91107e-19)
(0.536951 0.00617297 -1.72925e-19)
(0.704966 0.0269311 3.21471e-19)
(0.862496 0.0503602 -1.49332e-19)
(0.998743 0.0732492 1.99116e-19)
(1.10734 0.092944 -4.45476e-21)
(1.18671 0.107833 -1.12566e-19)
(1.23923 0.117423 2.45496e-19)
(1.26965 0.122113 -3.61433e-19)
(1.28358 0.122827 0)
(1.2863 0.120659 -7.05206e-20)
(1.28206 0.116621 -1.87933e-19)
(1.27391 0.111516 5.91325e-20)
(1.26383 0.105915 2.56202e-21)
(1.25297 0.100192 -1.28096e-19)
(1.24197 0.0945749 8.78467e-21)
(1.23115 0.0892004 1.47772e-19)
(1.22064 0.0841441 -6.51936e-20)
(1.21048 0.0794566 -2.45233e-20)
(1.20066 0.0751915 7.6458e-20)
(1.1911 0.0702283 0)
(0.0344157 -0.00632177 0)
(0.145255 -0.017071 5.50707e-20)
(0.2937 -0.012771 -2.63868e-19)
(0.466213 0.00297192 9.62323e-20)
(0.647104 0.0268191 -9.05685e-20)
(0.820113 0.0550386 -8.25236e-20)
(0.971471 0.0833996 -1.46378e-19)
(1.09261 0.108255 7.28706e-20)
(1.18099 0.127346 6.37411e-20)
(1.23906 0.139941 0)
(1.27233 0.146513 1.44664e-19)
(1.28732 0.148216 -2.14616e-19)
(1.2901 0.146407 1.59977e-19)
(1.2855 0.14232 7.05579e-20)
(1.27689 0.136916 -5.74988e-20)
(1.26641 0.13086 -4.79303e-20)
(1.25528 0.124577 -4.46339e-20)
(1.24413 0.118322 1.33959e-19)
(1.23325 0.112241 0)
(1.22277 0.106422 6.67441e-20)
(1.21272 0.100915 5.56998e-20)
(1.20306 0.0957563 -1.38727e-19)
(1.19375 0.090898 -9.40207e-20)
(1.18471 0.0858896 8.71021e-20)
(0.0512225 -0.00701534 -5.84371e-20)
(0.193925 -0.0144853 -1.77731e-21)
(0.370607 -0.00221905 5.35153e-20)
(0.563907 0.0232705 1.49169e-19)
(0.754612 0.0560444 4.33359e-20)
(0.925241 0.0905052 -8.3688e-20)
(1.06385 0.121638 7.67314e-20)
(1.16586 0.146117 -6.75146e-20)
(1.2332 0.162691 1.2058e-19)
(1.27191 0.171797 5.15188e-20)
(1.28956 0.174835 -1.4573e-19)
(1.29323 0.173499 4.30979e-20)
(1.28859 0.169333 7.34692e-20)
(1.27956 0.163525 -3.61578e-20)
(1.26856 0.156886 0)
(1.25698 0.149921 5.39164e-20)
(1.24547 0.142923 9.11224e-20)
(1.23435 0.136058 1.55012e-20)
(1.22371 0.12942 -7.58769e-20)
(1.21359 0.123064 3.17649e-20)
(1.20395 0.117026 0)
(1.19472 0.111314 -2.48825e-20)
(1.18585 0.105861 -2.32779e-20)
(1.17725 0.100659 0)
(0.0707075 -0.00598256 0)
(0.247507 -0.00681044 3.05135e-20)
(0.451164 0.0159169 5.64912e-20)
(0.660666 0.0521504 -1.51324e-19)
(0.854533 0.0931389 4.86296e-20)
(1.01623 0.131863 0)
(1.13766 0.163363 7.34746e-20)
(1.21918 0.185388 -1.02486e-19)
(1.26691 0.198088 -6.00232e-20)
(1.28948 0.203075 2.72671e-20)
(1.2953 0.202466 -4.33524e-20)
(1.29118 0.198235 1.0543e-19)
(1.28188 0.191905 5.29728e-20)
(1.27032 0.184509 -3.67946e-20)
(1.25814 0.176678 -3.42777e-21)
(1.24611 0.168768 -1.01066e-19)
(1.23457 0.160973 4.60379e-20)
(1.22364 0.153395 -1.0785e-21)
(1.21332 0.146096 0)
(1.20357 0.139111 -3.17976e-20)
(1.19434 0.132461 0)
(1.18554 0.12613 7.18982e-20)
(1.1771 0.120097 -8.56319e-20)
(1.1689 0.114576 3.90058e-20)
(0.0924065 -0.00274423 -1.56584e-20)
(0.304203 0.00678846 -7.64924e-20)
(0.532067 0.0421079 8.67682e-20)
(0.752198 0.0892376 5.11987e-20)
(0.942843 0.136889 -2.4533e-20)
(1.09068 0.177496 4.11468e-20)
(1.19281 0.207092 -2.0033e-20)
(1.25456 0.225067 3.34259e-20)
(1.28539 0.233079 0)
(1.29531 0.233732 7.59423e-20)
(1.29268 0.229583 -3.01734e-21)
(1.28348 0.222651 -6.14811e-20)
(1.27142 0.214308 2.64266e-20)
(1.25854 0.205386 -2.99145e-20)
(1.24585 0.196343 -1.14733e-20)
(1.23376 0.187418 1.31452e-20)
(1.22238 0.178731 -1.02336e-20)
(1.21174 0.170345 -5.54348e-20)
(1.20178 0.162297 3.40071e-20)
(1.19245 0.15461 7.00743e-21)
(1.18364 0.147284 6.17933e-21)
(1.17527 0.140292 5.44965e-21)
(1.16725 0.133687 0)
(1.15943 0.127693 0)
(0.115684 0.00311775 1.56692e-20)
(0.361903 0.0268549 -1.57355e-20)
(0.609939 0.0762992 -2.88648e-20)
(0.834786 0.133607 0)
(1.01678 0.18579 -1.21393e-20)
(1.14766 0.225866 -1.08624e-20)
(1.23027 0.251676 -1.8696e-20)
(1.27427 0.26453 0)
(1.29132 0.267477 0)
(1.29182 0.263831 0)
(1.28345 0.256326 0)
(1.27113 0.246859 0)
(1.25758 0.236585 -1.6621e-20)
(1.24415 0.226134 7.57808e-21)
(1.23139 0.215819 1.3223e-20)
(1.21948 0.205789 6.17673e-21)
(1.20842 0.196114 1.53783e-20)
(1.19817 0.186829 0)
(1.18866 0.177954 -3.72062e-21)
(1.1798 0.169496 -3.5254e-21)
(1.17148 0.16144 -6.18911e-21)
(1.16361 0.153769 -5.45829e-21)
(1.15605 0.146603 0)
(1.1487 0.140011 3.95625e-21)
(-0.00235839 0.0221278 8.8705e-21)
(-0.00939136 0.0436399 -9.21031e-21)
(-0.0210487 0.0500474 -1.7447e-20)
(-0.0349914 0.0466601 0)
(-0.0499866 0.0373873 -2.32757e-20)
(-0.0654584 0.0248629 7.23321e-21)
(-0.0810028 0.0106316 -1.39225e-20)
(-0.0963145 -0.00460276 0)
(-0.111171 -0.0206999 0)
(-0.125405 -0.0378246 0)
(-0.138879 -0.0562448 0)
(-0.151477 -0.0762161 0)
(-0.163085 -0.0979074 -2.43984e-22)
(-0.173588 -0.121375 -9.0359e-21)
(-0.182862 -0.146553 1.74685e-20)
(-0.190772 -0.173252 2.43492e-20)
(-0.197174 -0.201145 7.89233e-21)
(-0.201921 -0.229763 0)
(-0.204879 -0.258491 6.47444e-21)
(-0.205952 -0.286572 -1.85127e-20)
(-0.205062 -0.313142 -1.15275e-20)
(-0.202091 -0.33725 -1.06578e-20)
(-0.197057 -0.357872 0)
(-0.190715 -0.374061 0)
(-0.00409407 0.0267988 -2.69284e-20)
(-0.0126733 0.0546706 4.62893e-20)
(-0.0245339 0.0653299 -1.78724e-20)
(-0.0379607 0.0647265 -3.35363e-20)
(-0.0520604 0.0571915 4.71576e-20)
(-0.0664272 0.0456551 -2.99999e-20)
(-0.0807426 0.0318775 4.21368e-20)
(-0.0947413 0.0167126 2.7268e-20)
(-0.108216 0.000400547 0)
(-0.120997 -0.0171609 -2.35859e-20)
(-0.132966 -0.0362138 -2.6094e-22)
(-0.144032 -0.0569884 2.07697e-20)
(-0.154105 -0.0796589 3.0558e-20)
(-0.163101 -0.104303 3.81419e-20)
(-0.17094 -0.130879 -1.73986e-20)
(-0.17754 -0.159218 -5.00673e-20)
(-0.182821 -0.189011 1.6162e-20)
(-0.18671 -0.219795 -5.9925e-20)
(-0.189155 -0.250936 0)
(-0.190158 -0.281637 1.24197e-20)
(-0.189732 -0.310945 1.15136e-20)
(-0.187756 -0.337787 1.0645e-20)
(-0.184204 -0.360985 0)
(-0.180602 -0.379421 0)
(-0.00618923 0.0306526 0)
(-0.0165512 0.0642104 9.67048e-20)
(-0.0282789 0.0790067 -3.63917e-20)
(-0.0405048 0.0813224 3.41346e-20)
(-0.052783 0.0757433 -9.83013e-20)
(-0.0649243 0.0654217 0)
(-0.07672 0.052312 -5.87646e-20)
(-0.0879515 0.0374287 2.80315e-20)
(-0.098426 0.0211365 -5.35589e-20)
(-0.107986 0.00341871 2.63954e-20)
(-0.116484 -0.0159142 1.43121e-19)
(-0.123818 -0.0370773 -6.72933e-20)
(-0.129938 -0.0602241 -1.05703e-19)
(-0.134777 -0.0854491 -4.14238e-20)
(-0.138282 -0.112729 -2.43632e-22)
(-0.140427 -0.141916 1.42121e-19)
(-0.141203 -0.172725 -6.67392e-20)
(-0.140626 -0.204712 -1.60788e-21)
(-0.138749 -0.237258 0)
(-0.13569 -0.269553 -5.47444e-20)
(-0.131595 -0.300587 0)
(-0.126396 -0.329162 -4.27402e-20)
(-0.119801 -0.353969 1.62866e-19)
(-0.113855 -0.373751 -2.81085e-21)
(-0.00844646 0.0332859 0)
(-0.0206874 0.0713651 1.20728e-21)
(-0.0319622 0.0899128 3.81279e-20)
(-0.0423718 0.0951418 -3.62674e-20)
(-0.0519833 0.0916695 3.27438e-20)
(-0.0608559 0.0827593 1.92271e-19)
(-0.0689129 0.0705134 -6.02292e-20)
(-0.0759942 0.056098 -5.82694e-20)
(-0.0819178 0.040012 1.08874e-19)
(-0.0865153 0.0223458 -1.54806e-19)
(-0.0896409 0.00298933 4.95833e-20)
(-0.0911467 -0.0182357 4.74914e-20)
(-0.090955 -0.0414814 0)
(-0.0890363 -0.0668154 4.09577e-20)
(-0.0853483 -0.0942078 0)
(-0.0799039 -0.123512 7.60184e-20)
(-0.0727691 -0.154444 -1.39519e-19)
(-0.0640646 -0.186567 3.29942e-20)
(-0.053975 -0.219274 1.21932e-19)
(-0.0427657 -0.251778 5.46836e-20)
(-0.0307963 -0.28308 0)
(-0.0183101 -0.31195 -1.36106e-19)
(-0.0046867 -0.336891 4.32632e-20)
(0.00962185 -0.356298 0)
(-0.0106272 0.0344444 0)
(-0.02468 0.0754861 -1.22219e-19)
(-0.0352418 0.097114 -3.92474e-20)
(-0.0433629 0.105062 -7.33128e-20)
(-0.0496277 0.103733 6.90329e-20)
(-0.0543542 0.0963663 -6.46713e-20)
(-0.0576154 0.0851407 1.25096e-19)
(-0.0593247 0.071345 5.945e-20)
(-0.0593187 0.0556088 -1.67098e-19)
(-0.0574122 0.0381371 1.07488e-19)
(-0.0534322 0.0189087 -1.51718e-19)
(-0.0472367 -0.00218737 3.40681e-19)
(-0.0386996 -0.0252818 -1.82431e-19)
(-0.0277458 -0.0503938 8.81301e-20)
(-0.0143769 -0.0774704 2.47901e-19)
(0.00135348 -0.106335 -7.57967e-20)
(0.0193084 -0.136668 -7.40846e-20)
(0.0392531 -0.167995 -6.73762e-20)
(0.0608483 -0.199686 0)
(0.0836489 -0.230956 -1.13376e-19)
(0.107054 -0.260872 -9.88019e-20)
(0.13034 -0.288322 1.45371e-19)
(0.153554 -0.31159 1.61789e-19)
(0.180938 -0.327914 -1.52602e-19)
(-0.0124988 0.0340718 0)
(-0.0281244 0.0762722 -1.6921e-19)
(-0.0377893 0.100046 -1.33713e-21)
(-0.0433195 0.110279 1.49741e-19)
(-0.0457649 0.110952 0)
(-0.0456832 0.105141 0)
(-0.0433051 0.0950149 0)
(-0.0386336 0.0819337 -6.06855e-20)
(-0.0315389 0.0666374 -1.33305e-21)
(-0.0218315 0.0494431 1.08992e-19)
(-0.00931228 0.0304226 -1.56036e-19)
(0.00617881 0.00953281 -7.8615e-22)
(0.0247771 -0.0132676 0)
(0.0465738 -0.0379709 -8.80755e-20)
(0.0715389 -0.0644803 8.56963e-20)
(0.0995507 -0.0925654 -2.38595e-19)
(0.130366 -0.121845 2.9632e-19)
(0.163599 -0.151778 6.7109e-20)
(0.198715 -0.181667 -5.34766e-21)
(0.235043 -0.210682 -2.36878e-19)
(0.271712 -0.237922 -1.0564e-19)
(0.308082 -0.262351 3.25253e-19)
(0.342077 -0.28274 -2.13735e-19)
(0.38559 -0.29396 0)
(-0.0138922 0.032322 8.46611e-20)
(-0.0306792 0.0738328 8.50871e-20)
(-0.0393054 0.0985763 -8.20158e-20)
(-0.0420997 0.110393 -1.53632e-19)
(-0.0404343 0.112695 1.44654e-19)
(-0.0350778 0.10828 -1.37795e-19)
(-0.0264114 0.0992105 1.9521e-19)
(-0.0145354 0.0868612 -6.10058e-20)
(0.000631813 0.0720459 1.16833e-19)
(0.0192664 0.0551789 0)
(0.0415711 0.0364248 1.08433e-19)
(0.0677258 0.015833 -2.02183e-19)
(0.097852 -0.00656031 1.92443e-19)
(0.131981 -0.0306907 -1.80743e-19)
(0.170007 -0.0563934 0)
(0.211664 -0.0833701 1.60469e-19)
(0.256501 -0.111172 2.99377e-19)
(0.303865 -0.139192 -2.80678e-19)
(0.352903 -0.166685 -1.2779e-19)
(0.40265 -0.192773 -1.13123e-19)
(0.451713 -0.216631 3.20795e-19)
(0.500307 -0.236877 8.75679e-20)
(0.541413 -0.254386 -8.7605e-20)
(0.600082 -0.260287 7.00881e-20)
(-0.0147281 0.0295203 -8.46725e-20)
(-0.0321449 0.0686324 2.64644e-19)
(-0.0395638 0.0930168 -8.37277e-20)
(-0.039508 0.105473 1.56428e-19)
(-0.0335228 0.108785 -1.47283e-19)
(-0.0225175 0.105396 3.80528e-22)
(-0.00699551 0.0971937 6.60887e-20)
(0.0128526 0.0855055 2.53266e-19)
(0.0370536 0.0711773 2.44638e-21)
(0.065753 0.0546968 -1.11499e-19)
(0.0991355 0.0363264 0)
(0.137345 0.0162084 -1.03323e-19)
(0.180424 -0.0055421 1.92354e-19)
(0.228261 -0.0287656 1.82911e-19)
(0.280533 -0.0532097 -8.59726e-20)
(0.33667 -0.0784967 -2.63203e-22)
(0.395829 -0.10411 -7.51117e-20)
(0.456911 -0.129398 1.3767e-19)
(0.518571 -0.153613 1.2774e-19)
(0.57949 -0.175859 -1.16143e-19)
(0.637455 -0.19566 1.02133e-19)
(0.694049 -0.210852 -9.03789e-20)
(0.737293 -0.225193 0)
(0.80214 -0.225595 -6.99983e-20)
(-0.0150345 0.0260815 8.73234e-20)
(-0.0324385 0.061385 -8.881e-20)
(-0.0383566 0.0840717 8.49055e-20)
(-0.0352181 0.0960611 0)
(-0.0245936 0.0995598 0)
(-0.00745094 0.0966441 1.43069e-19)
(0.0156334 0.0889892 -1.33187e-19)
(0.0444026 0.0778279 1.28037e-19)
(0.0788285 0.0640028 -5.99631e-19)
(0.119004 0.0480573 -7.94725e-22)
(0.165027 0.0303344 1.07774e-19)
(0.2169 0.0110705 0)
(0.274439 -0.00951247 -1.93645e-19)
(0.337193 -0.0311544 3.64094e-19)
(0.404383 -0.0535137 -2.56901e-19)
(0.474877 -0.0761451 -3.98096e-19)
(0.547214 -0.0984995 4.57446e-21)
(0.619667 -0.119938 2.72903e-19)
(0.69031 -0.139805 0)
(0.75745 -0.157259 0)
(0.818404 -0.172295 -1.02121e-19)
(0.875225 -0.182229 9.03706e-20)
(0.915158 -0.192915 -2.99017e-19)
(0.973284 -0.188418 2.80431e-19)
(-0.0149184 0.0224257 0)
(-0.0315597 0.05291 0)
(-0.0354144 0.0726869 -2.55917e-19)
(-0.0286304 0.0830879 8.1151e-20)
(-0.0126816 0.0858776 -2.56591e-23)
(0.0114843 0.0828097 1.43703e-19)
(0.0432746 0.0753453 0)
(0.0823901 0.0646092 -1.27347e-19)
(0.128727 0.0514195 1.20111e-19)
(0.182238 0.0363533 -2.28466e-19)
(0.242788 0.0198242 -5.94263e-22)
(0.310014 0.00216513 2.04096e-19)
(0.383214 -0.0163117 4.8423e-22)
(0.461267 -0.0352704 1.80002e-19)
(0.542616 -0.0543252 -2.5483e-19)
(0.625307 -0.0730345 0)
(0.707103 -0.0909105 2.86913e-19)
(0.785644 -0.107446 -4.04108e-19)
(0.858628 -0.122162 1.18516e-19)
(0.924157 -0.134492 0)
(0.980108 -0.144609 9.48525e-20)
(1.02779 -0.15028 3.31484e-19)
(1.05861 -0.157508 -3.11131e-19)
(1.09847 -0.150208 -3.12771e-19)
(-0.0145033 0.0188853 2.69657e-19)
(-0.0294763 0.0439559 -3.70212e-19)
(-0.0302828 0.0598844 7.54453e-22)
(-0.0187385 0.0677567 8.22537e-20)
(0.00384651 0.0690721 -1.53696e-19)
(0.0365993 0.065348 -1.43235e-19)
(0.0789368 0.0578732 2.71068e-19)
(0.13049 0.0476711 4.57598e-22)
(0.190965 0.0355256 -2.40407e-19)
(0.259964 0.0220309 4.55292e-19)
(0.336807 0.00764804 1.37855e-21)
(0.420379 -0.00724402 -2.01921e-19)
(0.509046 -0.022308 0)
(0.60066 -0.0372222 0)
(0.692646 -0.0516693 -8.36774e-20)
(0.782177 -0.065337 -1.51097e-19)
(0.866412 -0.0779229 -2.78001e-19)
(0.942739 -0.0891656 2.6097e-19)
(1.00906 -0.098802 -1.18579e-19)
(1.06388 -0.106704 2.03211e-19)
(1.10655 -0.112786 -1.05544e-19)
(1.13779 -0.116284 1.4814e-19)
(1.15515 -0.120856 -3.67735e-19)
(1.17266 -0.114058 6.36842e-20)
(-0.0138413 0.0156368 9.10402e-20)
(-0.0259733 0.0350608 0)
(-0.0221783 0.0465959 1.75648e-19)
(-0.00403123 0.0513782 -1.65458e-19)
(0.0273132 0.0508121 1.53838e-19)
(0.0710484 0.0462825 0)
(0.126532 0.0389555 0)
(0.193153 0.029769 -1.28408e-19)
(0.270139 0.0194635 -3.49275e-22)
(0.356333 0.0086091 1.13124e-19)
(0.450028 -0.00236448 -1.06324e-19)
(0.54889 -0.0131387 2.00447e-19)
(0.650011 -0.0234831 0)
(0.750082 -0.0332365 3.46996e-19)
(0.845656 -0.0422904 -6.46289e-19)
(0.93347 -0.0505752 4.52102e-19)
(1.01075 -0.0580409 2.67745e-19)
(1.07547 -0.0646709 -2.5136e-19)
(1.12655 -0.0703806 0)
(1.16375 -0.0753454 0)
(1.18811 -0.0790539 0)
(1.20065 -0.0825991 0)
(1.20394 -0.0848281 7.00678e-20)
(1.20316 -0.0830764 -2.31016e-19)
(-0.182916 -0.387602 -6.28636e-21)
(-0.170369 -0.395643 6.31593e-21)
(-0.15155 -0.390383 -1.86209e-22)
(-0.126939 -0.3701 0)
(-0.0955598 -0.33268 -5.99731e-21)
(-0.0574471 -0.277094 1.17624e-20)
(-0.0132486 -0.203486 7.18881e-23)
(0.0358081 -0.113462 -5.67581e-21)
(0.0884683 -0.00916033 0)
(0.143266 0.104495 0)
(0.198782 0.221254 -2.76483e-22)
(0.253903 0.332183 -2.46621e-22)
(0.307088 0.428463 -3.60778e-21)
(0.355437 0.50205 3.29926e-21)
(0.395311 0.549153 0)
(0.422641 0.572879 0)
(0.432832 0.583208 1.7275e-21)
(0.424051 0.590331 -6.0716e-23)
(0.403673 0.592403 -1.47242e-21)
(0.389595 0.569623 -1.06724e-22)
(0.400697 0.495543 0)
(0.442823 0.358439 0)
(0.506958 0.1706 0)
(0.580067 -0.0377698 0)
(0.650651 -0.228782 0)
(0.709681 -0.370959 0)
(0.751206 -0.454289 4.01344e-22)
(0.773537 -0.489202 -6.69673e-22)
(0.781135 -0.49077 0)
(0.779177 -0.477285 0)
(0.761964 -0.471827 -3.02516e-22)
(0.72249 -0.484311 2.94025e-22)
(0.671242 -0.482221 1.56453e-22)
(0.635519 -0.412735 0)
(0.635582 -0.253523 0)
(0.667337 -0.0434149 4.45655e-22)
(0.714014 0.153643 -4.33193e-22)
(0.760215 0.295108 0)
(0.799406 0.367323 2.46594e-22)
(0.824569 0.402231 -3.46776e-22)
(0.822322 0.424213 9.50895e-23)
(0.786239 0.452172 0)
(0.740058 0.428809 -2.16085e-22)
(0.70895 0.333453 2.10122e-22)
(0.716248 0.152119 0)
(0.745953 -0.0429125 0)
(0.790963 -0.190459 -8.66201e-23)
(0.82636 -0.293277 2.39549e-22)
(0.828099 -0.329896 0)
(0.794059 -0.389539 0)
(0.755346 -0.341218 -4.76386e-23)
(0.737896 -0.271 4.30416e-24)
(0.767144 -0.101095 -2.5344e-24)
(0.797036 0.0715619 3.24126e-23)
(0.814444 0.16698 0)
(0.795588 0.351154 0)
(0.784624 0.295675 0)
(0.777222 0.326695 0)
(0.793335 0.166313 0)
(0.780155 -0.0979256 0)
(-0.179798 -0.395362 -6.07885e-22)
(-0.180492 -0.409216 -2.41719e-20)
(-0.174975 -0.410102 7.10533e-22)
(-0.164878 -0.396639 2.20241e-20)
(-0.148106 -0.366333 3.12043e-22)
(-0.123846 -0.317696 0)
(-0.0915732 -0.250341 -1.97822e-20)
(-0.0511322 -0.165195 3.88915e-20)
(-0.00404354 -0.0649409 -1.91044e-20)
(0.0477848 0.0462796 1.72714e-20)
(0.102739 0.164265 -1.65101e-20)
(0.159584 0.276919 1.37112e-20)
(0.217009 0.377451 -1.32745e-20)
(0.271452 0.458584 -3.10713e-22)
(0.318509 0.516902 -8.57447e-21)
(0.353174 0.555029 8.33286e-21)
(0.3715 0.580311 -6.80015e-21)
(0.375015 0.597493 6.40952e-21)
(0.374672 0.59931 -7.02084e-21)
(0.387939 0.565439 1.44949e-20)
(0.427417 0.475731 -7.44619e-21)
(0.491279 0.326191 -5.80737e-22)
(0.568179 0.131893 -9.66497e-21)
(0.646585 -0.0777557 1.8448e-20)
(0.715861 -0.265155 -8.80039e-21)
(0.767751 -0.399191 4.40488e-22)
(0.798917 -0.471656 4.8952e-21)
(0.810172 -0.496461 -8.70207e-22)
(0.806684 -0.491134 -6.35892e-21)
(0.795857 -0.47157 5.19626e-21)
(0.774102 -0.457616 -2.3544e-21)
(0.732384 -0.462343 2.57893e-22)
(0.675865 -0.460832 -1.5676e-22)
(0.63034 -0.402877 3.1603e-22)
(0.619746 -0.259292 0)
(0.644532 -0.0606867 0)
(0.689415 0.132307 -1.38066e-21)
(0.738928 0.275552 1.05136e-21)
(0.78489 0.353215 6.92648e-22)
(0.815545 0.397168 1.5988e-23)
(0.817258 0.430006 -8.8526e-22)
(0.784002 0.465387 1.93481e-22)
(0.744166 0.441487 0)
(0.719285 0.338446 0)
(0.731327 0.148189 0)
(0.760846 -0.0533748 0)
(0.802804 -0.201627 4.31233e-22)
(0.836164 -0.298581 -1.55449e-22)
(0.835983 -0.325792 0)
(0.802464 -0.380102 0)
(0.760867 -0.334271 0)
(0.742818 -0.272322 -7.21776e-23)
(0.768422 -0.108107 1.71901e-23)
(0.795512 0.0659824 -7.35742e-23)
(0.811222 0.166893 0)
(0.790475 0.354457 0)
(0.781817 0.297003 3.79901e-23)
(0.774002 0.325738 1.04523e-22)
(0.794915 0.166068 0)
(0.783244 -0.0966234 0)
(-0.117104 -0.390813 -2.34246e-21)
(-0.130971 -0.409753 -4.91712e-20)
(-0.139223 -0.416567 4.33609e-20)
(-0.14521 -0.410285 -4.05912e-20)
(-0.146096 -0.388258 -3.14187e-22)
(-0.140123 -0.348552 0)
(-0.125475 -0.290074 -3.33601e-20)
(-0.100856 -0.212959 3.2589e-20)
(-0.0662667 -0.11956 2.6547e-22)
(-0.0213391 -0.0132917 3.8592e-22)
(0.0284017 0.102153 3.57744e-22)
(0.0814642 0.216189 4.17252e-22)
(0.139212 0.32059 -1.9977e-20)
(0.196328 0.40933 1.97266e-20)
(0.247941 0.479104 0)
(0.289254 0.531034 3.98215e-22)
(0.31806 0.568737 -1.28711e-20)
(0.338495 0.592032 1.27073e-20)
(0.362279 0.590662 0)
(0.403506 0.546516 0)
(0.468035 0.446148 -1.89412e-20)
(0.549087 0.290788 3.92418e-20)
(0.635322 0.095935 -4.01642e-20)
(0.716812 -0.111154 1.42429e-21)
(0.783355 -0.292763 3.44596e-20)
(0.827072 -0.418418 -2.9316e-20)
(0.847152 -0.481404 2.17076e-20)
(0.847456 -0.49789 -2.69538e-21)
(0.833621 -0.48746 -7.14676e-21)
(0.81422 -0.463904 0)
(0.78822 -0.442928 0)
(0.745522 -0.439812 1.53455e-21)
(0.685556 -0.438006 -1.96738e-21)
(0.631173 -0.391427 -5.17152e-23)
(0.609454 -0.264638 2.78332e-21)
(0.626245 -0.0790759 -2.70507e-21)
(0.668555 0.108533 0)
(0.720778 0.252931 2.91882e-22)
(0.772752 0.33636 1.96981e-21)
(0.808286 0.390146 -3.64899e-21)
(0.814026 0.434252 1.53501e-21)
(0.784272 0.477141 2.04828e-22)
(0.751221 0.453081 -2.51645e-21)
(0.732697 0.343401 1.98813e-21)
(0.749359 0.145554 6.20011e-22)
(0.778598 -0.0617619 5.70606e-22)
(0.816967 -0.211007 -4.32315e-22)
(0.847718 -0.303022 0)
(0.845485 -0.321289 0)
(0.81247 -0.370467 -7.40309e-22)
(0.768106 -0.327352 3.48394e-22)
(0.749431 -0.273639 -2.7204e-22)
(0.77131 -0.115156 3.69934e-22)
(0.795525 0.0606085 4.41675e-22)
(0.809558 0.166748 -1.27441e-22)
(0.786529 0.357655 1.92245e-22)
(0.779902 0.298245 -1.66682e-22)
(0.771636 0.324333 8.47853e-23)
(0.797638 0.165428 0)
(0.787418 -0.0953918 0)
(0.00459294 -0.373574 -1.00081e-19)
(-0.019682 -0.395159 8.84702e-21)
(-0.0401868 -0.406393 8.63093e-20)
(-0.0614146 -0.406354 -6.07045e-22)
(-0.0804149 -0.392643 0)
(-0.0947215 -0.362931 0)
(-0.101464 -0.315462 -5.2472e-20)
(-0.0980461 -0.249218 2.03345e-21)
(-0.0832068 -0.165608 6.95092e-20)
(-0.0544216 -0.0671912 -1.46e-21)
(-0.0156444 0.0404889 -2.04647e-20)
(0.0286391 0.153615 -1.69084e-20)
(0.0804522 0.260108 1.68841e-20)
(0.136202 0.355357 0)
(0.190223 0.435154 -1.23897e-20)
(0.238318 0.498348 1.13173e-20)
(0.279741 0.544942 0)
(0.319542 0.571176 0)
(0.367894 0.565887 1.40556e-20)
(0.434259 0.514586 2.78714e-21)
(0.518794 0.409674 -1.54294e-20)
(0.612337 0.254998 -2.15278e-20)
(0.704681 0.0638689 2.16427e-20)
(0.78774 -0.137996 -2.05322e-20)
(0.851147 -0.312645 2.96271e-21)
(0.886536 -0.430052 1.64441e-20)
(0.895332 -0.484824 1.41612e-21)
(0.884902 -0.494477 -1.51109e-24)
(0.861609 -0.480205 0)
(0.834049 -0.454545 4.43564e-21)
(0.80372 -0.42848 -4.54646e-21)
(0.760982 -0.417537 2.32548e-22)
(0.699798 -0.413679 0)
(0.638286 -0.377363 -2.67691e-22)
(0.605305 -0.268422 4.66282e-21)
(0.613014 -0.0978761 -8.65679e-21)
(0.651824 0.0827812 -1.7798e-22)
(0.705873 0.227597 4.83577e-22)
(0.762907 0.31694 3.11336e-21)
(0.802683 0.381032 3.88967e-22)
(0.812524 0.436545 -3.15593e-21)
(0.786824 0.487028 2.66583e-21)
(0.760748 0.463447 -2.06992e-23)
(0.74858 0.348441 2.50131e-21)
(0.76976 0.144603 -3.05371e-21)
(0.798839 -0.0678502 -3.96658e-21)
(0.833263 -0.218543 1.1303e-21)
(0.86088 -0.306689 1.22622e-21)
(0.856427 -0.316558 -2.08937e-21)
(0.823824 -0.360661 1.2556e-21)
(0.776751 -0.320331 -2.74477e-22)
(0.757387 -0.274816 3.41531e-22)
(0.775585 -0.122206 2.24883e-22)
(0.796979 0.0554019 -5.82984e-22)
(0.809415 0.166538 -1.183e-23)
(0.783774 0.360809 -1.70865e-22)
(0.778945 0.299451 0)
(0.770193 0.322462 -7.46819e-23)
(0.801531 0.164392 2.29681e-22)
(0.792687 -0.0942208 0)
(0.174627 -0.345942 9.92332e-20)
(0.145223 -0.366653 -1.83461e-19)
(0.116096 -0.380599 8.35678e-20)
(0.0829025 -0.384769 6.38753e-20)
(0.0483425 -0.377541 -1.16716e-19)
(0.0152842 -0.356928 7.0153e-21)
(-0.0128569 -0.320898 4.51072e-20)
(-0.0328861 -0.267349 3.43554e-20)
(-0.0419731 -0.196268 -3.36984e-20)
(-0.036683 -0.108649 0)
(-0.0159516 -0.0109366 -2.49543e-20)
(0.013693 0.0936313 4.71062e-20)
(0.0534868 0.198817 -2.24007e-20)
(0.103095 0.297545 0)
(0.156465 0.384074 0)
(0.210063 0.454995 3.23409e-22)
(0.263682 0.507334 -1.95889e-20)
(0.32163 0.534945 1.90291e-20)
(0.391264 0.527025 0)
(0.477349 0.472922 3.33548e-20)
(0.575825 0.369429 -6.96888e-20)
(0.676975 0.220637 7.93041e-20)
(0.773262 0.0364947 -8.56431e-20)
(0.857554 -0.158038 1.60394e-21)
(0.917558 -0.324584 7.48034e-20)
(0.944599 -0.433615 -3.43553e-20)
(0.942277 -0.481485 -7.19893e-22)
(0.921543 -0.486233 -6.92212e-21)
(0.889944 -0.469526 1.71607e-21)
(0.855138 -0.443406 5.36477e-21)
(0.820469 -0.414502 2.39388e-22)
(0.778169 -0.396616 -3.06397e-21)
(0.717838 -0.389082 6.0587e-21)
(0.651483 -0.360951 -3.34542e-21)
(0.607789 -0.270013 0)
(0.605444 -0.116142 -4.39501e-21)
(0.639587 0.0556134 4.25624e-21)
(0.694252 0.19988 -2.74677e-21)
(0.755193 0.295 3.41438e-21)
(0.798543 0.369542 -3.30888e-22)
(0.81255 0.436446 0)
(0.791338 0.494711 -4.08341e-22)
(0.772215 0.472585 1.52082e-21)
(0.766316 0.353632 0)
(0.791921 0.145362 6.74004e-21)
(0.821105 -0.0715779 -2.67104e-21)
(0.851434 -0.224069 9.87284e-22)
(0.87545 -0.309478 7.37895e-22)
(0.868637 -0.31161 0)
(0.836332 -0.350667 0)
(0.78653 -0.313149 -7.75278e-22)
(0.76633 -0.275794 1.08087e-21)
(0.780983 -0.129248 -5.30282e-22)
(0.799731 0.0503064 1.47063e-22)
(0.810734 0.166243 3.03327e-22)
(0.782236 0.363967 1.7103e-22)
(0.779015 0.300666 -3.24005e-22)
(0.769738 0.320113 0)
(0.806611 0.162922 -3.32866e-22)
(0.799055 -0.0931077 -1.31645e-22)
(0.375714 -0.311939 9.85465e-20)
(0.3456 -0.330742 -9.78047e-20)
(0.311432 -0.34389 6.14158e-22)
(0.27257 -0.348403 -4.85198e-22)
(0.228364 -0.343827 4.32463e-22)
(0.181475 -0.329141 -3.55815e-22)
(0.135984 -0.302452 4.54118e-22)
(0.0954618 -0.262055 0)
(0.0629069 -0.206437 -2.46422e-22)
(0.0425122 -0.134851 1.75336e-22)
(0.037235 -0.0509108 1.32866e-22)
(0.0465913 0.0415913 -2.80936e-22)
(0.0713869 0.141451 0)
(0.109501 0.238797 0)
(0.157703 0.327509 1.08207e-22)
(0.213049 0.402322 0)
(0.27504 0.457852 -1.71656e-22)
(0.346321 0.486388 0)
(0.431077 0.477949 -2.42731e-20)
(0.52997 0.425194 5.45018e-20)
(0.636172 0.327762 -6.6631e-20)
(0.740954 0.18849 3.62593e-20)
(0.839714 0.0141047 4.29644e-20)
(0.924825 -0.171514 -4.17119e-20)
(0.981164 -0.328955 -3.55901e-20)
(0.999935 -0.429666 3.43689e-20)
(0.987078 -0.471999 0)
(0.956755 -0.473816 5.25015e-22)
(0.918043 -0.456002 0)
(0.877149 -0.430575 0)
(0.838177 -0.400941 5.9096e-21)
(0.796344 -0.377604 -6.14284e-21)
(0.738602 -0.365174 2.78495e-22)
(0.670122 -0.342583 3.55629e-22)
(0.617134 -0.268701 -3.07826e-22)
(0.604031 -0.133127 -3.0866e-21)
(0.632059 0.027675 2.99735e-21)
(0.685841 0.170148 -3.00861e-21)
(0.749376 0.270568 2.55727e-21)
(0.79563 0.355391 6.3221e-22)
(0.813826 0.433527 -3.06994e-21)
(0.797408 0.499938 -1.19288e-21)
(0.785018 0.480445 2.63612e-21)
(0.7852 0.359108 0)
(0.815161 0.147526 -2.86731e-21)
(0.84497 -0.0729663 3.55109e-21)
(0.871206 -0.227458 -4.71015e-21)
(0.891194 -0.311319 -7.42559e-22)
(0.88191 -0.306494 0)
(0.849794 -0.340468 2.60169e-22)
(0.797207 -0.305706 -5.9094e-22)
(0.775922 -0.27649 -2.86932e-23)