/*--------------------------------*- C++ -*----------------------------------*\
| =========                 |                                                 |
| \\      /  F ield         | OpenFOAM: The Open Source CFD Toolbox           |
|  \\    /   O peration     | Version:  2512                                  |
|   \\  /    A nd           | Website:  www.openfoam.com                      |
|    \\/     M anipulation  |                                                 |
\*---------------------------------------------------------------------------*/
FoamFile
{
    version     2.0;
    format      ascii;
    arch        "LSB;label=32;scalar=64";
    class       volScalarField;
    location    "172.75";
    object      p;
}
// * * * * * * * * * * * * * * * * * * * * * * * * * * * * * * * * * * * * * //

dimensions      [0 2 -2 0 0 0 0];

internalField   nonuniform List<scalar> 
13248
(
-0.333247
-0.332452
-0.331086
-0.329222
-0.326856
-0.323896
-0.32021
-0.31565
-0.310084
-0.303419
-0.295619
-0.286719
-0.276831
-0.266135
-0.254866
-0.24329
-0.231672
-0.220259
-0.209257
-0.198832
-0.189054
-0.180072
-0.171625
-0.164097
-0.341375
-0.33952
-0.337244
-0.334576
-0.331463
-0.327824
-0.32352
-0.318387
-0.312275
-0.305082
-0.296774
-0.287402
-0.277098
-0.266064
-0.254544
-0.242797
-0.23107
-0.219575
-0.208478
-0.197897
-0.187888
-0.178493
-0.169581
-0.161356
-0.350512
-0.34752
-0.344239
-0.340663
-0.336698
-0.332267
-0.327218
-0.321361
-0.314525
-0.306599
-0.297564
-0.287496
-0.276564
-0.264997
-0.253056
-0.240996
-0.229047
-0.217396
-0.206176
-0.195479
-0.185327
-0.175759
-0.166646
-0.158131
-0.360826
-0.356614
-0.352258
-0.347709
-0.34281
-0.337469
-0.331506
-0.324699
-0.316859
-0.30789
-0.297814
-0.286764
-0.274964
-0.262682
-0.250193
-0.237748
-0.225552
-0.213755
-0.202456
-0.191706
-0.181515
-0.171899
-0.162742
-0.154245
-0.372497
-0.366971
-0.361492
-0.355926
-0.350007
-0.343599
-0.336481
-0.328405
-0.319198
-0.308824
-0.297388
-0.285112
-0.272283
-0.259202
-0.246143
-0.233327
-0.220916
-0.209013
-0.197674
-0.18692
-0.176744
-0.167138
-0.15802
-0.149547
-0.385619
-0.378694
-0.372059
-0.365428
-0.358364
-0.350654
-0.342039
-0.332284
-0.321294
-0.309153
-0.296093
-0.282432
-0.268507
-0.254622
-0.241017
-0.227863
-0.215265
-0.203277
-0.191916
-0.181175
-0.171035
-0.16147
-0.15242
-0.144
-0.400125
-0.391743
-0.383927
-0.376153
-0.36774
-0.358383
-0.347829
-0.335933
-0.32276
-0.308568
-0.293727
-0.278633
-0.263631
-0.248991
-0.234892
-0.221437
-0.208676
-0.196616
-0.185242
-0.174528
-0.16444
-0.154941
-0.145989
-0.137633
-0.415739
-0.405891
-0.396868
-0.38781
-0.377737
-0.366284
-0.35329
-0.338808
-0.323139
-0.306736
-0.290085
-0.273605
-0.257605
-0.242284
-0.227744
-0.214023
-0.201117
-0.188996
-0.177621
-0.166948
-0.156932
-0.147528
-0.138704
-0.130437
-0.431945
-0.420686
-0.410418
-0.399851
-0.387703
-0.373638
-0.35772
-0.34031
-0.321982
-0.303362
-0.284986
-0.26724
-0.250356
-0.234441
-0.219522
-0.205575
-0.192552
-0.180393
-0.16904
-0.158433
-0.148516
-0.139243
-0.130575
-0.122431
-0.447983
-0.435428
-0.423843
-0.411454
-0.396746
-0.379566
-0.360356
-0.339853
-0.318887
-0.298182
-0.278257
-0.259412
-0.241775
-0.225364
-0.210134
-0.196012
-0.182913
-0.170755
-0.15946
-0.148955
-0.139175
-0.130069
-0.121579
-0.113592
-0.46287
-0.449169
-0.436143
-0.421541
-0.40378
-0.383081
-0.360386
-0.336814
-0.313378
-0.290818
-0.269565
-0.249804
-0.231558
-0.214759
-0.199304
-0.185077
-0.171967
-0.159869
-0.14869
-0.138345
-0.128761
-0.119874
-0.1116
-0.10383
-0.475492
-0.460837
-0.446221
-0.428985
-0.407705
-0.383181
-0.356929
-0.330413
-0.304739
-0.280579
-0.258235
-0.237759
-0.219068
-0.202021
-0.186463
-0.172241
-0.159221
-0.147279
-0.136309
-0.126216
-0.116921
-0.108347
-0.100383
-0.0929735
-0.354817
-0.356916
-0.358108
-0.35892
-0.359854
-0.361086
-0.362673
-0.364612
-0.366866
-0.36938
-0.372085
-0.374895
-0.377708
-0.380397
-0.382811
-0.38477
-0.386055
-0.386415
-0.385554
-0.38341
-0.379722
-0.374347
-0.367346
-0.359122
-0.343434
-0.346116
-0.34755
-0.348341
-0.349039
-0.349805
-0.350671
-0.351622
-0.352606
-0.353551
-0.354375
-0.354983
-0.35527
-0.355121
-0.354409
-0.352999
-0.350748
-0.347427
-0.343072
-0.337571
-0.330881
-0.322977
-0.31415
-0.305586
-0.333212
-0.336307
-0.337901
-0.338644
-0.339101
-0.33941
-0.339583
-0.339587
-0.339356
-0.338805
-0.33784
-0.336361
-0.334267
-0.331454
-0.327823
-0.323274
-0.317715
-0.311182
-0.303629
-0.295123
-0.28577
-0.275641
-0.265023
-0.255652
-0.324597
-0.327934
-0.329611
-0.330286
-0.330519
-0.330415
-0.329964
-0.329118
-0.3278
-0.325915
-0.323364
-0.320049
-0.315876
-0.310763
-0.304645
-0.297482
-0.289264
-0.280053
-0.269936
-0.25908
-0.247725
-0.236076
-0.224266
-0.213744
-0.317884
-0.321306
-0.322992
-0.323586
-0.323612
-0.323146
-0.322156
-0.320579
-0.318329
-0.315307
-0.311417
-0.306567
-0.30068
-0.293702
-0.285608
-0.276411
-0.266184
-0.255037
-0.243149
-0.230767
-0.218222
-0.205838
-0.193759
-0.183288
-0.31324
-0.316604
-0.318231
-0.31872
-0.318553
-0.317771
-0.316321
-0.31413
-0.311104
-0.307147
-0.302167
-0.296087
-0.288852
-0.280439
-0.270868
-0.260206
-0.24858
-0.236175
-0.223238
-0.210075
-0.197072
-0.184632
-0.173027
-0.162886
-0.310721
-0.313896
-0.315389
-0.315746
-0.315388
-0.314328
-0.312493
-0.3098
-0.306152
-0.301456
-0.295629
-0.288611
-0.280374
-0.270928
-0.260336
-0.248718
-0.236253
-0.223188
-0.209825
-0.19652
-0.183674
-0.171682
-0.161159
-0.150981
-0.31029
-0.313143
-0.314425
-0.314612
-0.31406
-0.312753
-0.310603
-0.307517
-0.303397
-0.298155
-0.291719
-0.284047
-0.275138
-0.265038
-0.25385
-0.241743
-0.228947
-0.215751
-0.202498
-0.189561
-0.17737
-0.16606
-0.157046
-0.1469
-0.311831
-0.314222
-0.315205
-0.315173
-0.314409
-0.312874
-0.310468
-0.307087
-0.302632
-0.297019
-0.290187
-0.282114
-0.272824
-0.262398
-0.250979
-0.238776
-0.226059
-0.213148
-0.200402
-0.188166
-0.176936
-0.166436
-0.158856
-0.149461
-0.31514
-0.316928
-0.317509
-0.317189
-0.316175
-0.314404
-0.311767
-0.30815
-0.303451
-0.297588
-0.29051
-0.282213
-0.272745
-0.262219
-0.250813
-0.238768
-0.226381
-0.213983
-0.201928
-0.190514
-0.180228
-0.170673
-0.163912
-0.155926
-0.319971
-0.321016
-0.321073
-0.320362
-0.319013
-0.31695
-0.314048
-0.310188
-0.305261
-0.299184
-0.291916
-0.283466
-0.273908
-0.263383
-0.252097
-0.240311
-0.228328
-0.216467
-0.205045
-0.194333
-0.184664
-0.175937
-0.16933
-0.162694
-0.326073
-0.326247
-0.325646
-0.324411
-0.322602
-0.320135
-0.316879
-0.312704
-0.307493
-0.30116
-0.293669
-0.285046
-0.275383
-0.264844
-0.253652
-0.242075
-0.2304
-0.218915
-0.207872
-0.197503
-0.187962
-0.17942
-0.172222
-0.166054
-0.34806
-0.332672
-0.315421
-0.297533
-0.280882
-0.267541
-0.259451
-0.257992
-0.263365
-0.27431
-0.287872
-0.299926
-0.305444
-0.300354
-0.281282
-0.249112
-0.209233
-0.169471
-0.13627
-0.112708
-0.0989767
-0.0937788
-0.0959254
-0.105777
-0.124011
-0.147034
-0.165243
-0.16831
-0.15425
-0.129881
-0.104622
-0.0851036
-0.073566
-0.0690298
-0.0707234
-0.0805243
-0.0984387
-0.116446
-0.122678
-0.112214
-0.0925098
-0.074027
-0.0605939
-0.053074
-0.0520698
-0.0575741
-0.0631274
-0.0621515
-0.0559505
-0.0491598
-0.0423267
-0.0391623
-0.038011
-0.0377511
-0.0378072
-0.0353975
-0.0269856
-0.0195522
-0.00986844
-0.0024165
-0.296371
-0.285459
-0.274369
-0.264321
-0.256878
-0.253516
-0.255623
-0.26389
-0.277669
-0.295051
-0.3128
-0.32678
-0.332607
-0.325753
-0.303874
-0.267866
-0.223626
-0.179576
-0.142459
-0.115285
-0.0980443
-0.089392
-0.0880324
-0.0938859
-0.107613
-0.126713
-0.143155
-0.147619
-0.137161
-0.117292
-0.0961646
-0.0801687
-0.0716262
-0.0696466
-0.0738678
-0.0864839
-0.107196
-0.127135
-0.1336
-0.121493
-0.0990699
-0.0775761
-0.0614124
-0.0516704
-0.0483033
-0.0516448
-0.055522
-0.0547195
-0.0500544
-0.0452943
-0.0408031
-0.039595
-0.0409008
-0.0418587
-0.0422731
-0.0394509
-0.0295446
-0.0210506
-0.0096877
-0.00182439
-0.248545
-0.242222
-0.236622
-0.233314
-0.234373
-0.239405
-0.24989
-0.265736
-0.285675
-0.307367
-0.327582
-0.342574
-0.348441
-0.340907
-0.317473
-0.279252
-0.23245
-0.185769
-0.14606
-0.116256
-0.0961807
-0.0844415
-0.0796978
-0.0816065
-0.0907578
-0.105713
-0.12012
-0.125737
-0.1187
-0.103292
-0.0863313
-0.073947
-0.068489
-0.0691298
-0.0758832
-0.0911436
-0.114373
-0.136074
-0.14292
-0.129495
-0.104732
-0.0805219
-0.0618282
-0.0500622
-0.044566
-0.0459479
-0.0482603
-0.0475004
-0.0441721
-0.0412678
-0.0390832
-0.0399157
-0.0438114
-0.0459952
-0.0466146
-0.0433159
-0.031966
-0.0224624
-0.00951461
-0.00126748
-0.208134
-0.207569
-0.20599
-0.207925
-0.214445
-0.225891
-0.242338
-0.263157
-0.286827
-0.310931
-0.332388
-0.347887
-0.353819
-0.346133
-0.322222
-0.283333
-0.235779
-0.188215
-0.147351
-0.115948
-0.093786
-0.0794947
-0.0717466
-0.0699794
-0.0747064
-0.085387
-0.0973491
-0.103506
-0.0995577
-0.0883939
-0.0754592
-0.0666113
-0.0641606
-0.067319
-0.0764272
-0.0940244
-0.119501
-0.1429
-0.150352
-0.136012
-0.109363
-0.0828247
-0.0618761
-0.0483164
-0.040963
-0.0406241
-0.0415024
-0.040638
-0.0384012
-0.0371369
-0.0371812
-0.0401018
-0.0467017
-0.0501201
-0.050787
-0.0469407
-0.0342176
-0.0237713
-0.00934928
-0.000746358
-0.18126
-0.180094
-0.181955
-0.187748
-0.19814
-0.213352
-0.233077
-0.256426
-0.281792
-0.306822
-0.328605
-0.344175
-0.350164
-0.342583
-0.319003
-0.28085
-0.234315
-0.18761
-0.146944
-0.114866
-0.0912665
-0.0749505
-0.064664
-0.0597138
-0.0603579
-0.0667691
-0.0758859
-0.0819298
-0.0804338
-0.073089
-0.0638556
-0.0582988
-0.0586161
-0.0640681
-0.0752445
-0.0948265
-0.122277
-0.147303
-0.155567
-0.140861
-0.112886
-0.0844877
-0.0616141
-0.046505
-0.0375634
-0.0357505
-0.0353545
-0.0342569
-0.0328391
-0.0329596
-0.0351063
-0.0401248
-0.0495205
-0.0541765
-0.0547308
-0.0502753
-0.0362686
-0.0249617
-0.00919116
-0.000261318
-0.162658
-0.162681
-0.165826
-0.173249
-0.185356
-0.20207
-0.222848
-0.246724
-0.272157
-0.296921
-0.318501
-0.333668
-0.339283
-0.331831
-0.309197
-0.272958
-0.228972
-0.18462
-0.145342
-0.113433
-0.0889802
-0.071105
-0.0587274
-0.0511155
-0.0482834
-0.0506536
-0.0566264
-0.0618726
-0.0620669
-0.0578737
-0.0518453
-0.0491826
-0.051922
-0.059376
-0.0722849
-0.093446
-0.122508
-0.149035
-0.15843
-0.14396
-0.115254
-0.085512
-0.0610872
-0.0446783
-0.0344053
-0.0313605
-0.0298746
-0.0284409
-0.0275787
-0.0287916
-0.0328659
-0.0399504
-0.0522021
-0.0580887
-0.0583915
-0.0532792
-0.0380903
-0.0260164
-0.00903715
0.000188749
-0.152624
-0.153702
-0.156575
-0.163725
-0.175846
-0.192403
-0.212573
-0.235472
-0.259683
-0.283088
-0.303682
-0.317882
-0.322764
-0.315496
-0.294392
-0.261104
-0.22089
-0.180019
-0.143037
-0.111992
-0.0872023
-0.0681772
-0.0541089
-0.0443023
-0.0385914
-0.0373949
-0.0401685
-0.044078
-0.0460945
-0.0432329
-0.0398254
-0.039556
-0.0442949
-0.0533903
-0.0676188
-0.0898625
-0.12013
-0.14805
-0.158877
-0.145256
-0.116437
-0.0858973
-0.0603239
-0.0428686
-0.0315017
-0.0274419
-0.025069
-0.0232388
-0.0226957
-0.0246871
-0.0304684
-0.0395379
-0.0546709
-0.0617787
-0.0617262
-0.0559146
-0.0396568
-0.0269206
-0.00888162
0.000607188
-0.150164
-0.151782
-0.153165
-0.158614
-0.169414
-0.184507
-0.202817
-0.223621
-0.245697
-0.267294
-0.284916
-0.297888
-0.30198
-0.295143
-0.276145
-0.246647
-0.211052
-0.174373
-0.140284
-0.11063
-0.085962
-0.0661765
-0.0507978
-0.0392403
-0.0312252
-0.0270434
-0.0267647
-0.0288066
-0.0305078
-0.0294754
-0.0282468
-0.0297977
-0.0360279
-0.0463283
-0.0614421
-0.0842418
-0.115256
-0.14444
-0.156878
-0.144712
-0.116426
-0.0856486
-0.0593474
-0.041099
-0.0288575
-0.0239717
-0.0209026
-0.0186586
-0.0182487
-0.0206975
-0.0279254
-0.0388459
-0.0568506
-0.0651716
-0.0646845
-0.0581468
-0.0409485
-0.0276687
-0.00872366
0.000999843
-0.15348
-0.154724
-0.153963
-0.157083
-0.165562
-0.178037
-0.19349
-0.211269
-0.23039
-0.250543
-0.264943
-0.275253
-0.27843
-0.272332
-0.256001
-0.230873
-0.200322
-0.168139
-0.137243
-0.109341
-0.0851986
-0.0650391
-0.0487148
-0.0358197
-0.0260204
-0.019459
-0.0164374
-0.0163491
-0.0172507
-0.0172322
-0.0175325
-0.0202807
-0.027457
-0.0384807
-0.0539485
-0.0767925
-0.108173
-0.138393
-0.152575
-0.142413
-0.115313
-0.0848706
-0.0582723
-0.0394597
-0.02651
-0.0209462
-0.0173567
-0.0146902
-0.0142749
-0.0168715
-0.0252459
-0.0378346
-0.0586727
-0.0681836
-0.0672168
-0.0599524
-0.041956
-0.0282619
-0.00857552
0.00137242
-0.159098
-0.158934
-0.156486
-0.157556
-0.163151
-0.172194
-0.184135
-0.198268
-0.213345
-0.227336
-0.242131
-0.251045
-0.253887
-0.249052
-0.235877
-0.215387
-0.18993
-0.162246
-0.134649
-0.108743
-0.0854612
-0.0652673
-0.0482843
-0.0343382
-0.0231236
-0.014658
-0.00925521
-0.00693904
-0.00664251
-0.00684275
-0.00794588
-0.0112998
-0.0188905
-0.030168
-0.0456229
-0.0680975
-0.0992063
-0.130205
-0.146153
-0.13852
-0.113296
-0.0837807
-0.0573137
-0.0381309
-0.0245421
-0.0183458
-0.0144129
-0.0113656
-0.0107777
-0.0132399
-0.0224588
-0.036484
-0.0600549
-0.0707146
-0.0692896
-0.0613152
-0.042671
-0.0286888
-0.0084439
0.00172896
-0.163477
-0.161432
-0.158574
-0.158287
-0.160923
-0.166454
-0.174862
-0.185419
-0.197305
-0.208969
-0.219419
-0.226981
-0.2299
-0.226771
-0.217033
-0.201206
-0.180728
-0.157464
-0.13321
-0.109445
-0.0872227
-0.0672107
-0.0497521
-0.0349152
-0.0225292
-0.012531
-0.00510619
-0.000590355
0.00120608
0.00131605
0.000251994
-0.00319497
-0.0106461
-0.0215845
-0.036408
-0.0581021
-0.0891333
-0.120734
-0.137728
-0.132957
-0.110138
-0.0821226
-0.0562186
-0.0369526
-0.0228335
-0.0160081
-0.0118274
-0.00862135
-0.00788575
-0.0098796
-0.0195288
-0.0347264
-0.0609889
-0.0726685
-0.070845
-0.0621843
-0.0430442
-0.0289039
-0.00827671
0.00208617
-0.164208
-0.161861
-0.159456
-0.158061
-0.158379
-0.161045
-0.165991
-0.172798
-0.181259
-0.189876
-0.197642
-0.203068
-0.205486
-0.203577
-0.196644
-0.18473
-0.168535
-0.149224
-0.128163
-0.106684
-0.0858861
-0.0665814
-0.0492535
-0.034122
-0.0211941
-0.010427
-0.00174557
0.00454115
0.00784232
0.00850518
0.00728359
0.00378839
-0.00326439
-0.0136182
-0.0276393
-0.0480686
-0.0779456
-0.109135
-0.127035
-0.124407
-0.10463
-0.0784277
-0.0535122
-0.0347515
-0.0206345
-0.0135472
-0.00910886
-0.00590203
-0.00545629
-0.00679804
-0.0166798
-0.0326477
-0.0612868
-0.073991
-0.0718608
-0.0625189
-0.0429711
-0.028857
-0.00795959
0.00248969
-0.160533
-0.160836
-0.15836
-0.156038
-0.155528
-0.157256
-0.160995
-0.166372
-0.17291
-0.179311
-0.185149
-0.189261
-0.19052
-0.187924
-0.180944
-0.169645
-0.154629
-0.136879
-0.117548
-0.0977709
-0.0784879
-0.060407
-0.0439606
-0.0293592
-0.0166404
-0.00581412
0.00322153
0.0102929
0.0148094
0.0164977
0.0158495
0.0121391
0.00591729
-0.00310806
-0.015999
-0.0360784
-0.0674442
-0.101615
-0.122335
-0.12015
-0.0993409
-0.0734423
-0.0493156
-0.0313325
-0.0177555
-0.0110206
-0.00641615
-0.00294761
-0.00200188
-0.00273568
-0.0128738
-0.0296992
-0.0611685
-0.0755513
-0.0728609
-0.0626493
-0.0425428
-0.0286122
-0.00750903
0.00289453
-0.155511
-0.157541
-0.155224
-0.152299
-0.151122
-0.152109
-0.15481
-0.158645
-0.162885
-0.167445
-0.171302
-0.173537
-0.173297
-0.1699
-0.162968
-0.152555
-0.139118
-0.123399
-0.106274
-0.0886324
-0.0712327
-0.054686
-0.0393908
-0.0255729
-0.0133422
-0.00275117
0.00635088
0.0138349
0.0189745
0.0210766
0.0202916
0.0175647
0.0124582
0.00481401
-0.0068638
-0.0263201
-0.0582655
-0.0934762
-0.114235
-0.111483
-0.0913439
-0.0670254
-0.044659
-0.0280108
-0.0151684
-0.0086728
-0.00405
-0.00074019
0.00032779
-2.75618e-05
-0.00997131
-0.0272233
-0.0606397
-0.0764089
-0.0729067
-0.0620486
-0.0416814
-0.0280157
-0.00703077
0.00311485
-0.14821
-0.151727
-0.150087
-0.147057
-0.145399
-0.145686
-0.147399
-0.149913
-0.152718
-0.155466
-0.157496
-0.158184
-0.156929
-0.153212
-0.146716
-0.137417
-0.12559
-0.111756
-0.0965753
-0.0807596
-0.0649533
-0.0497038
-0.0353993
-0.0222839
-0.0104856
-0.000120826
0.00889457
0.0164932
0.0220473
0.024755
0.0245195
0.0222489
0.0179192
0.0111281
1.58534e-05
-0.0190781
-0.0500616
-0.0836353
-0.103583
-0.101219
-0.0825971
-0.0603486
-0.0399025
-0.0246275
-0.0125822
-0.00638443
-0.00180431
0.00132528
0.00248851
0.00212746
-0.00780067
-0.0252918
-0.0596546
-0.0763738
-0.0722301
-0.0608538
-0.0404812
-0.0271554
-0.0065643
0.00324421
-0.139433
-0.144195
-0.143414
-0.140589
-0.138639
-0.138356
-0.139313
-0.140856
-0.142469
-0.143812
-0.144517
-0.144155
-0.142252
-0.138383
-0.132265
-0.123838
-0.113282
-0.100981
-0.0874491
-0.0732557
-0.0589323
-0.0449466
-0.0316509
-0.0192919
-0.00800283
0.00205751
0.0108865
0.0184532
0.0243029
0.0276371
0.0281226
0.0266198
0.023234
0.0172769
0.00663468
-0.0117948
-0.0409283
-0.0726749
-0.0919401
-0.0899386
-0.0731519
-0.0532226
-0.0348783
-0.0211318
-0.0100086
-0.00416394
0.000338367
0.00333052
0.00454415
0.0041342
-0.00579268
-0.0231725
-0.0578353
-0.075424
-0.0708942
-0.0590602
-0.0389322
-0.0260085
-0.00609139
0.00330417
-0.129964
-0.13553
-0.135563
-0.133126
-0.1311
-0.130439
-0.130822
-0.131604
-0.132314
-0.132684
-0.132463
-0.131337
-0.128945
-0.12496
-0.119156
-0.111471
-0.102021
-0.0910823
-0.079036
-0.0663222
-0.0533687
-0.0405729
-0.0282522
-0.0166559
-0.00592412
0.00377194
0.0123601
0.0197905
0.0257445
0.0295734
0.0308564
0.0303626
0.0281985
0.0234623
0.0137672
-0.00367842
-0.0311874
-0.0612596
-0.0793112
-0.0777005
-0.0631444
-0.0458372
-0.0297269
-0.0175869
-0.00747198
-0.00202127
0.00237631
0.00525554
0.00642862
0.0060416
-0.00366125
-0.0204884
-0.0550208
-0.0733868
-0.0687285
-0.056605
-0.0370045
-0.0245688
-0.00560341
0.00329256
-0.120075
-0.126117
-0.126854
-0.124892
-0.122949
-0.122058
-0.122016
-0.122258
-0.12235
-0.122046
-0.121164
-0.119487
-0.116767
-0.112759
-0.107286
-0.100281
-0.09181
-0.0820633
-0.0713206
-0.0599238
-0.0482189
-0.0365425
-0.0251733
-0.014351
-0.00422217
0.00504361
0.0133347
0.0205621
0.0264972
0.0306482
0.0326491
0.0331505
0.0323416
0.0291911
0.0208117
0.00427408
-0.0217547
-0.0495994
-0.0659412
-0.0648657
-0.0528848
-0.0383881
-0.0245516
-0.0140338
-0.0049888
3.41369e-05
0.00429701
0.00709163
0.00815411
0.00783799
-0.00139014
-0.0172749
-0.0511076
-0.0700247
-0.0655546
-0.0534647
-0.0346947
-0.0228406
-0.00508813
0.00321213
-0.110052
-0.1163
-0.117586
-0.116098
-0.114334
-0.113348
-0.113042
-0.112929
-0.112603
-0.111846
-0.110525
-0.108506
-0.105617
-0.101678
-0.0965459
-0.0901566
-0.0825423
-0.0738365
-0.0642466
-0.0540366
-0.0434816
-0.032862
-0.0224183
-0.0123725
-0.00287676
0.0059038
0.0138434
0.0208298
0.0266733
0.0310121
0.0335444
0.0348634
0.0352269
0.0335896
0.0265466
0.0110416
-0.012995
-0.0378403
-0.0517757
-0.0518917
-0.0427077
-0.0310795
-0.0194764
-0.0105276
-0.00257708
0.00199736
0.00609556
0.00884209
0.00974613
0.00951152
0.000944776
-0.0136196
-0.0459949
-0.0651856
-0.0613585
-0.0496551
-0.0320216
-0.0208404
-0.00453292
0.00307262
-0.100137
-0.106343
-0.108019
-0.106971
-0.105445
-0.104472
-0.104026
-0.103692
-0.103106
-0.102075
-0.100506
-0.0983123
-0.0953787
-0.0915746
-0.0867886
-0.0809641
-0.0741159
-0.0663368
-0.0577784
-0.0486424
-0.0391453
-0.0295187
-0.0199696
-0.010698
-0.00185478
0.00639991
0.0139371
0.0206448
0.0263381
0.0307532
0.0336465
0.0355138
0.0366222
0.0360185
0.030182
0.0162679
-0.00494074
-0.0262755
-0.0383468
-0.0394012
-0.0329858
-0.0241148
-0.0146208
-0.0071257
-0.000252145
0.00386999
0.00777381
0.0105134
0.0112369
0.0110713
0.00332959
-0.00954125
-0.0396876
-0.0588477
-0.05611
-0.0452297
-0.0290294
-0.0185996
-0.00392402
0.00289073
-0.0904371
-0.0964558
-0.0983956
-0.0977344
-0.0964674
-0.0955693
-0.0950721
-0.0946234
-0.0939017
-0.0927376
-0.0910605
-0.0888176
-0.0859347
-0.0823203
-0.0778905
-0.0725982
-0.0664472
-0.059501
-0.0518699
-0.0437078
-0.0351852
-0.0264917
-0.0178038
-0.00929811
-0.00111878
0.00658171
0.0136746
0.020056
0.0255474
0.0299477
0.0330532
0.0352244
0.0366516
0.0365334
0.0317881
0.020048
0.00230574
-0.0154091
-0.0259226
-0.0279953
-0.0240687
-0.0176658
-0.0100862
-0.00388735
0.00196862
0.00565482
0.0093382
0.0121127
0.0126769
0.0125758
0.00582504
-0.00508678
-0.0323538
-0.0511506
-0.0498795
-0.0402866
-0.025788
-0.016167
-0.00324692
0.00268931
-0.0810912
-0.0868229
-0.0889093
-0.0885647
-0.087548
-0.0867623
-0.0862739
-0.0857892
-0.0850245
-0.0838285
-0.0821466
-0.0799496
-0.0771927
-0.0738137
-0.0697502
-0.0649641
-0.0594533
-0.0532617
-0.0464699
-0.0391957
-0.0315729
-0.0237553
-0.0158921
-0.00813785
-0.000626103
0.00650168
0.0131191
0.0191268
0.0243662
0.0286704
0.0318612
0.034165
0.0356562
0.035689
0.031923
0.0225362
0.00834659
-0.0060124
-0.0152086
-0.0181444
-0.0162075
-0.0118528
-0.00594498
-0.000868122
0.00406349
0.00734777
0.0107954
0.0136445
0.0141413
0.0141276
0.00849377
-0.000389494
-0.0243296
-0.0424241
-0.0428534
-0.0349651
-0.0223879
-0.0136094
-0.00248593
0.00249595
-0.0722189
-0.0775624
-0.0796904
-0.0795954
-0.0788089
-0.0781527
-0.0777146
-0.0772492
-0.0765051
-0.0753488
-0.0737372
-0.0716563
-0.0690811
-0.0659702
-0.0622785
-0.0579757
-0.053058
-0.047556
-0.0415292
-0.0350674
-0.028276
-0.0212792
-0.0142021
-0.00717823
-0.000329795
0.00621494
0.0123365
0.0179377
0.0228742
0.027006
0.0301786
0.0325022
0.0339444
0.0340034
0.0310609
0.0237876
0.0127628
0.00132535
-0.00664217
-0.0100432
-0.00951141
-0.00673834
-0.00223952
0.00188597
0.00600912
0.00893256
0.0121424
0.0150972
0.0156989
0.0158349
0.0113639
0.00434567
-0.0161026
-0.0331827
-0.0353285
-0.0294367
-0.0189306
-0.0110111
-0.00162835
0.00234086
-0.0638309
-0.0687376
-0.0708396
-0.0709381
-0.0703574
-0.0698341
-0.0694672
-0.0690536
-0.0683733
-0.0673059
-0.0658158
-0.0638984
-0.0615418
-0.0587197
-0.0554
-0.0515597
-0.0471946
-0.0423264
-0.0369996
-0.0312831
-0.0252599
-0.0190302
-0.0126984
-0.00637901
-0.000181095
0.0057802
0.0113925
0.0165622
0.0211578
0.0250581
0.0281275
0.0303886
0.031739
0.031799
0.0295065
0.0239491
0.0155325
0.00656817
-0.000176325
-0.00362586
-0.00396719
-0.00233677
0.00101325
0.00434179
0.00778252
0.0103871
0.0133633
0.0164269
0.0173447
0.0177549
0.0144132
0.00886346
-0.00824449
-0.0240629
-0.0277015
-0.023895
-0.0155182
-0.0084693
-0.000679197
0.00224758
-0.0559412
-0.0604108
-0.0624419
-0.0626829
-0.0622765
-0.0618786
-0.0615919
-0.0612497
-0.0606577
-0.0597081
-0.0583704
-0.056645
-0.0545286
-0.0520054
-0.0490528
-0.0456537
-0.0418042
-0.0375203
-0.0328355
-0.0278034
-0.0224892
-0.0169743
-0.0113452
-0.00569914
-0.000132147
0.00525295
0.0103512
0.0150741
0.0193058
0.0229347
0.0258361
0.0279794
0.0292299
0.0293074
0.0275326
0.0233258
0.0169884
0.0100773
0.00452473
0.00131997
0.000513545
0.00137009
0.00381476
0.0064819
0.00935884
0.0116888
0.0144396
0.0175669
0.0189492
0.0197925
0.0174761
0.0128571
-0.00131262
-0.0156829
-0.0203928
-0.0185349
-0.0122451
-0.00608061
0.000327581
0.00221651
-0.0485998
-0.0526284
-0.054548
-0.0548863
-0.0546243
-0.0543391
-0.0541326
-0.0538704
-0.0533795
-0.0525623
-0.0513923
-0.0498729
-0.0480058
-0.0457821
-0.043186
-0.0402049
-0.0368357
-0.0330904
-0.0289948
-0.0245907
-0.0199299
-0.0150784
-0.0101073
-0.00509948
-0.000138492
0.00468457
0.00927602
0.0135501
0.0174032
0.0207341
0.0234295
0.0254286
0.026592
0.0267155
0.0253772
0.0222362
0.0175248
0.012291
0.00785171
0.00504679
0.00405277
0.0044217
0.00617702
0.0083034
0.0107168
0.0128127
0.01535
0.018457
0.0202954
0.0216034
0.0201383
0.0159747
0.00427352
-0.0084694
-0.0137504
-0.013533
-0.00919637
-0.00392883
0.0013339
0.00221349
-0.0418098
-0.0453982
-0.0471806
-0.0475824
-0.0474388
-0.0472521
-0.0471161
-0.0469416
-0.0465545
-0.0458727
-0.0448739
-0.0435629
-0.041944
-0.0400124
-0.0377571
-0.0351688
-0.0322452
-0.0289954
-0.0254396
-0.0216106
-0.0175499
-0.013311
-0.00895251
-0.00454458
-0.000159018
0.00412429
0.008223
0.0120546
0.0155271
0.0185504
0.0210233
0.0228715
0.023967
0.024164
0.0232069
0.0209162
0.0174714
0.0135772
0.010122
0.00778167
0.00678059
0.0068718
0.00812002
0.00981234
0.0118436
0.013735
0.0160595
0.0190396
0.0211811
0.0227747
0.0218933
0.0179504
0.00834061
-0.00261101
-0.00801569
-0.00904066
-0.00644137
-0.00207952
0.00226
0.00217016
-0.0355403
-0.0387149
-0.0403527
-0.0407953
-0.0407526
-0.0406624
-0.0406188
-0.0404923
-0.0401936
-0.0396401
-0.0388072
-0.0376982
-0.0363184
-0.0346652
-0.0327308
-0.0305081
-0.0279952
-0.0251994
-0.0221364
-0.0188324
-0.0153205
-0.0116442
-0.00785194
-0.00400255
-0.000157089
0.00361406
0.00723936
0.0106429
0.0137436
0.0164602
0.0187121
0.0204151
0.0214609
0.021749
0.0211253
0.0195143
0.0170545
0.014214
0.0115948
0.00972445
0.00882415
0.00878208
0.00967038
0.0110213
0.0127317
0.0144339
0.0165317
0.0192597
0.0214732
0.0230341
0.022492
0.0187942
0.0109751
0.0018591
-0.00333814
-0.00517004
-0.00402175
-0.000568542
0.00301707
0.00271319
-0.0297809
-0.0325734
-0.0340627
-0.0345233
-0.0345549
-0.0345329
-0.0345356
-0.0344842
-0.0342804
-0.0338537
-0.0331799
-0.0322624
-0.0311074
-0.0297145
-0.0280778
-0.0261917
-0.0240546
-0.0216723
-0.019057
-0.0162297
-0.013217
-0.0100542
-0.00678108
-0.00344687
-0.000103052
0.00318895
0.00636743
0.00936384
0.0121049
0.0145156
0.0165662
0.0181372
0.0191462
0.0195282
0.0191919
0.0181208
0.0164196
0.0144052
0.0124822
0.0110482
0.0103007
0.0102177
0.0108603
0.0119456
0.0133806
0.0148945
0.0167485
0.019121
0.0211876
0.0224747
0.0220835
0.0187541
0.0124362
0.00502634
0.000268802
-0.00198272
-0.00195927
0.00061039
0.00346417
0.00249975
-0.0245197
-0.0269582
-0.0282986
-0.0287612
-0.0288498
-0.0288854
-0.0289383
-0.0289448
-0.0288223
-0.028509
-0.0279811
-0.02724
-0.026292
-0.0251379
-0.0237734
-0.0221938
-0.0203975
-0.018389
-0.0161779
-0.0137809
-0.0112193
-0.0085219
-0.00572087
-0.00285745
2.5659e-05
0.00287626
0.00564121
0.00825817
0.0106588
0.012735
0.014642
0.0160915
0.0170662
0.0175324
0.017436
0.01679
0.0156694
0.0142993
0.0129401
0.0118907
0.011314
0.0112447
0.0117254
0.0126036
0.0137997
0.0151195
0.0167161
0.0186801
0.0204466
0.0213797
0.0210106
0.0181333
0.0130473
0.00709631
0.00288306
0.000513588
-0.000259342
0.00148875
0.00360814
0.00223323
-0.0197268
-0.0218432
-0.0230411
-0.0234963
-0.0236293
-0.0237128
-0.0238104
-0.0238696
-0.0238129
-0.0235966
-0.023198
-0.0226157
-0.0218546
-0.0209159
-0.0197967
-0.0184928
-0.0170025
-0.0153292
-0.0134802
-0.011469
-0.00931222
-0.00703328
-0.00465822
-0.00222088
0.000243656
0.00269145
0.00507998
0.00736156
0.00949692
0.0114783
0.0130239
0.0143127
0.0152425
0.0157753
0.0158709
0.0155517
0.0148717
0.0140031
0.013087
0.012363
0.0119537
0.0119262
0.0123035
0.0130183
0.0140071
0.0151278
0.0164669
0.0180167
0.0193825
0.0200072
0.0196005
0.0171831
0.0130968
0.00833413
0.00467048
0.00237224
0.00109367
0.00210531
0.0035064
0.00192385
-0.0153738
-0.0172028
-0.0182682
-0.0187094
-0.018876
-0.0189977
-0.0191301
-0.0192277
-0.0192285
-0.0190971
-0.0188134
-0.0183727
-0.0177779
-0.0170308
-0.0161295
-0.0150706
-0.0138524
-0.0124768
-0.0109497
-0.00928132
-0.00748506
-0.00557956
-0.00358566
-0.001531
0.000555897
0.00263895
0.00468288
0.00664546
0.00848728
0.010166
0.0115969
0.0127805
0.0136731
0.0142537
0.0144948
0.0144236
0.014074
0.0135688
0.013007
0.0125527
0.0122971
0.012321
0.0126339
0.0132185
0.0140268
0.0149522
0.0160405
0.0172077
0.0182113
0.0185537
0.0180872
0.0160789
0.0128023
0.00898529
0.00581628
0.00368515
0.00213188
0.00250707
0.00325401
0.00161797
-0.0114365
-0.0130103
-0.0139536
-0.0143765
-0.0145677
-0.014719
-0.0148785
-0.0150106
-0.0150635
-0.0150004
-0.0148123
-0.0144936
-0.0140444
-0.0134655
-0.0127555
-0.0119118
-0.0109327
-0.00981917
-0.00857543
-0.00720944
-0.00573156
-0.00415659
-0.00250106
-0.000787092
0.000962181
0.00271698
0.00444866
0.00612174
0.0076995
0.00914411
0.0104178
0.0114942
0.0123499
0.0129593
0.013305
0.0134149
0.0133083
0.0130682
0.0127727
0.0125329
0.0124093
0.0124828
0.0127554
0.0132348
0.0138865
0.014627
0.0154796
0.0163169
0.0170133
0.0171316
0.0166102
0.0149378
0.0123062
0.00923595
0.00649122
0.00455927
0.00289826
0.0027479
0.00294597
0.00135155
-0.00788714
-0.00923597
-0.0100684
-0.0104706
-0.0106792
-0.0108533
-0.0110338
-0.0111921
-0.0112844
-0.0112824
-0.0111744
-0.0109598
-0.0106364
-0.0102035
-0.00965969
-0.00900298
-0.00823177
-0.00734653
-0.00635004
-0.00524824
-0.00404911
-0.00276416
-0.00140629
6.89365e-06
0.00145691
0.00292017
0.00437275
0.00578577
0.00713133
0.00837623
0.00948788
0.0104337
0.0112585
0.0118794
0.0122925
0.0125264
0.0125933
0.012549
0.0124433
0.0123642
0.012346
0.0124607
0.0127058
0.0130983
0.0136149
0.0141876
0.0148294
0.0153952
0.0158396
0.0157927
0.0152366
0.0138305
0.0116988
0.00921761
0.00683595
0.0050911
0.00343894
0.00288266
0.0026493
0.0011361
-0.00469772
-0.00585021
-0.0065834
-0.00696418
-0.00718482
-0.007376
-0.00757224
-0.00775076
-0.00787581
-0.00792201
-0.00788154
-0.00775294
-0.00753637
-0.00722869
-0.00682785
-0.00633198
-0.0057398
-0.00505139
-0.00426851
-0.0033954
-0.00243808
-0.00140534
-0.000307151
0.000842837
0.00203015
0.0032361
0.00444189
0.00562501
0.00676337
0.00783401
0.00881584
0.0097027
0.0104079
0.0109992
0.0114444
0.0117546
0.0119314
0.0120264
0.0120572
0.0120937
0.0121541
0.0122977
0.0125208
0.0128403
0.0132419
0.0136682
0.0141286
0.0144843
0.0147246
0.0145606
0.0139903
0.0127934
0.0110428
0.00902297
0.00695156
0.00536064
0.0037963
0.00295095
0.00239541
0.000970975
-0.00184236
-0.00282482
-0.00347013
-0.00382956
-0.00405791
-0.0042615
-0.00446914
-0.00466279
-0.00481364
-0.00490094
-0.00491524
-0.00485721
-0.00472773
-0.00452558
-0.00424633
-0.00388758
-0.00344813
-0.00292781
-0.00232768
-0.0016507
-0.000901256
-8.59242e-05
0.000787693
0.00170927
0.00266769
0.00364853
0.00463714
0.0056159
0.00656745
0.00747397
0.00831735
0.00908202
0.00974258
0.0103
0.0107468
0.0110959
0.0113432
0.0115234
0.0116448
0.0117584
0.0118723
0.012032
0.012234
0.0124913
0.0127958
0.0130986
0.0134082
0.0136028
0.013686
0.0134425
0.0128731
0.0118417
0.0103799
0.00871485
0.00691348
0.00546092
0.00398767
0.00297568
0.00219188
0.000849297
0.000703711
-0.000132427
-0.000700528
-0.00103933
-0.00127209
-0.00148433
-0.00169974
-0.00190429
-0.00207484
-0.00219467
-0.00225605
-0.00225687
-0.00219833
-0.00208086
-0.0019024
-0.00165922
-0.001349
-0.000971004
-0.000525814
-1.55029e-05
0.000556841
0.00118642
0.00186754
0.0025925
0.00335296
0.00413802
0.00493637
0.00573449
0.00651886
0.00727538
0.00798931
0.00864846
0.0092372
0.00975194
0.0101847
0.0105443
0.0108258
0.0110531
0.0112284
0.0113874
0.0115325
0.0116964
0.0118763