/*--------------------------------*- C++ -*----------------------------------*\
| =========                 |                                                 |
| \\      /  F ield         | OpenFOAM: The Open Source CFD Toolbox           |
|  \\    /   O peration     | Version:  2512                                  |
|   \\  /    A nd           | Website:  www.openfoam.com                      |
|    \\/     M anipulation  |                                                 |
\*---------------------------------------------------------------------------*/
FoamFile
{
    version     2.0;
    format      ascii;
    arch        "LSB;label=32;scalar=64";
    class       surfaceScalarField;
    location    "172.75";
    object      phi;
}
// * * * * * * * * * * * * * * * * * * * * * * * * * * * * * * * * * * * * * //

dimensions      [0 3 -1 0 0 0 0];

oriented        oriented;

internalField   nonuniform List<scalar> 
26232
(
4.24679e-06
0.000807649
-0.000811896
0.000176425
0.00129139
-0.00146357
0.000692907
0.000856536
-0.00137302
0.00173659
-0.000410856
-0.000632832
0.00349101
-0.00247254
0.00071813
0.00613382
-0.00531306
0.00267025
0.00982708
-0.00892256
0.00522929
0.0147045
-0.0132801
0.00840267
0.0208567
-0.0183395
0.0121874
0.0283165
-0.0240204
0.0165606
0.0370488
-0.0302066
0.0214742
0.0469464
-0.0367512
0.0268536
0.0578343
-0.0434884
0.0326006
0.0694814
-0.0502473
0.0386002
0.0816192
-0.0568672
0.0447294
0.0939633
-0.0632108
0.0508667
0.106236
-0.069174
0.0569012
0.118187
-0.0746918
0.0627406
0.129612
-0.0797382
0.0683133
0.140361
-0.0843326
0.0735836
0.150347
-0.088502
0.0785159
0.159539
-0.0923774
0.0831857
0.16794
-0.0958814
0.0874804
-0.0994967
0.0920818
0.175355
8.92239e-05
0.000718425
0.000521627
0.00085899
0.0014845
-0.000106335
0.00317238
-0.00209874
0.00577713
-0.00507729
0.00947429
-0.00901022
0.0144045
-0.0138528
0.0206528
-0.0195284
0.0282287
-0.0259155
0.0370544
-0.0328461
0.0469625
-0.0401146
0.0577074
-0.0474962
0.068988
-0.054769
0.080477
-0.0617363
0.0918541
-0.0682443
0.102836
-0.0741928
0.113202
-0.0795394
0.122806
-0.0842961
0.131588
-0.0885207
0.139562
-0.0923067
0.146818
-0.0957571
0.15346
-0.0990194
0.159666
-0.102087
-0.105397
0.165566
0.000175142
0.000543283
0.00088182
0.000152312
0.002323
-0.00154752
0.00470216
-0.0044779
0.00820784
-0.00858297
0.0129896
-0.013792
0.0191298
-0.019993
0.0266179
-0.0270164
0.0353348
-0.0346324
0.0450548
-0.0425661
0.0554655
-0.0505253
0.0662036
-0.0582343
0.0768986
-0.065464
0.0872162
-0.0720539
0.0968939
-0.077922
0.105764
-0.083063
0.113762
-0.0875369
0.120917
-0.0914513
0.127336
-0.0949398
0.133172
-0.0981433
0.138602
-0.101187
0.143776
-0.104193
0.14886
-0.107171
-0.110429
0.153892
0.00026784
0.000275442
0.00127069
-0.000850536
0.00322517
-0.003502
0.00633359
-0.00758631
0.0107582
-0.0130076
0.0165857
-0.0196195
0.0237932
-0.0272005
0.0322279
-0.0354511
0.0416119
-0.0440165
0.0515728
-0.052527
0.0616945
-0.060647
0.0715759
-0.0681156
0.0808837
-0.0747719
0.0893902
-0.0805605
0.0969892
-0.0855209
0.10369
-0.0897642
0.109597
-0.0934432
0.11487
-0.0967242
0.119693
-0.099763
0.124239
-0.10269
0.128653
-0.105601
0.133029
-0.108569
0.137451
-0.111593
-0.114874
0.141896
0.000373168
-9.77255e-05
0.00170022
-0.00217759
0.00420043
-0.00600222
0.00805363
-0.0114395
0.0133606
-0.0183145
0.0200989
-0.0263578
0.0280952
-0.0351968
0.0370294
-0.0443854
0.0464761
-0.0534631
0.0559716
-0.0620226
0.0650892
-0.0697646
0.0735004
-0.0765268
0.0810115
-0.082283
0.0875698
-0.0871187
0.0932427
-0.0911938
0.0981798
-0.0947014
0.102569
-0.0978324
0.106597
-0.100752
0.110422
-0.103588
0.114162
-0.10643
0.117895
-0.109333
0.121659
-0.112334
0.125492
-0.115426
-0.118738
0.129356
0.000494403
-0.000592128
0.00217302
-0.00385621
0.00523604
-0.00906524
0.00980778
-0.0160112
0.0158832
-0.0243899
0.0232868
-0.0337614
0.0316713
-0.0435812
0.0405659
-0.05328
0.0494611
-0.0623583
0.0579009
-0.0704623
0.0655545
-0.0774182
0.0722515
-0.0832238
0.077977
-0.0880084
0.0828368
-0.0919786
0.0870078
-0.0953648
0.0906876
-0.0983812
0.0940575
-0.101202
0.0972608
-0.103955
0.100398
-0.106726
0.103534
-0.109565
0.106702
-0.112502
0.10992
-0.115551
0.113204
-0.118711
-0.122047
0.116513
0.000630765
-0.00122289
0.00267775
-0.00590319
0.0062903
-0.0126778
0.0114956
-0.0212166
0.0181393
-0.0310336
0.0258678
-0.0414899
0.034176
-0.0518895
0.0425071
-0.0616112
0.0503656
-0.0702168
0.0574025
-0.0774993
0.0634524
-0.0834681
0.0685196
-0.088291
0.0727318
-0.0922206
0.0762802
-0.095527
0.0793662
-0.0984508
0.0821653
-0.10118
0.0848111
-0.103848
0.0873942
-0.106539
0.0899702
-0.109302
0.0925703
-0.112165
0.0952098
-0.115141
0.0978935
-0.118235
0.100627
-0.121444
-0.124797
0.103377
0.00077732
-0.00200021
0.00318962
-0.00831549
0.00729676
-0.0167849
0.0129861
-0.026906
0.0199249
-0.0379724
0.0275911
-0.0491561
0.0353808
-0.0596792
0.0427443
-0.0689746
0.0492922
-0.0767648
0.0548407
-0.0830477
0.0593935
-0.0880209
0.0630863
-0.0919838
0.0661176
-0.095252
0.0686918
-0.0981011
0.0709824
-0.100741
0.0731183
-0.103316
0.075185
-0.105915
0.0772342
-0.108588
0.0792945
-0.111362
0.0813801
-0.114251
0.083497
-0.117258
0.0856458
-0.120384
0.0878275
-0.123626
-0.126987
0.090018
0.000925941
-0.00292615
0.00367447
-0.011064
0.00817581
-0.0212863
0.0141443
-0.0328745
0.0210672
-0.0448953
0.0283012
-0.05639
0.0352284
-0.0666064
0.0413931
-0.0751393
0.0465648
-0.0819365
0.050725
-0.0872079
0.0540037
-0.0912996
0.0566023
-0.0945824
0.0587293
-0.097379
0.0605606
-0.0999325
0.0622253
-0.102406
0.063808
-0.104899
0.0653587
-0.107465
0.0669051
-0.110134
0.0684612
-0.112918
0.0700337
-0.115823
0.0716245
-0.118849
0.0732333
-0.121993
0.0748585
-0.125251
-0.128614
0.0764854
0.00106635
-0.00399251
0.00409405
-0.0140917
0.0088491
-0.0260413
0.014859
-0.0388844
0.0214615
-0.0514978
0.0279651
-0.0628935
0.0338206
-0.0724619
0.0387189
-0.0800376
0.0425925
-0.08581
0.0455499
-0.0901653
0.0477896
-0.0935393
0.0495251
-0.0963179
0.0509392
-0.0987931
0.052166
-0.101159
0.0532926
-0.103533
0.0543705
-0.105977
0.0554276
-0.108523
0.0564784
-0.111185
0.0575301
-0.11397
0.0585857
-0.116879
0.0596458
-0.119909
0.0607096
-0.123056
0.0617742
-0.126315
-0.129672
0.0628323
0.00118794
-0.00518045
0.00441282
-0.0173166
0.00925376
-0.0308823
0.0150627
-0.0446933
0.0210851
-0.0575202
0.0266589
-0.0684673
0.0313611
-0.0771641
0.0350413
-0.0837179
0.0377647
-0.0885334
0.0397164
-0.092117
0.0411143
-0.0949371
0.0421513
-0.097355
0.0429714
-0.0996132
0.0436687
-0.101856
0.0442983
-0.104162
0.0448901
-0.106569
0.0454596
-0.109092
0.0460145
-0.11174
0.046559
-0.114514
0.0470947
-0.117414
0.0476215
-0.120436
0.0481379
-0.123573
0.0486401
-0.126818
-0.130158
0.0491255
0.00128375
-0.00646421
0.00460594
-0.0206388
0.00935323
-0.0356296
0.0147397
-0.0500798
0.0199891
-0.0627697
0.0245327
-0.0730109
0.0280969
-0.0807282
0.0306705
-0.0862916
0.0324076
-0.0902704
0.0335243
-0.0932338
0.0342259
-0.0956388
0.034671
-0.0978
0.0349648
-0.099907
0.0351698
-0.102061
0.0353193
-0.104312
0.0354304
-0.10668
0.0355117
-0.109173
0.035568
-0.111796
0.0356018
-0.114548
0.0356147
-0.117427
0.0356066
-0.120428
0.0355762
-0.123542
0.0355195
-0.126761
0.0354362
-0.130074
-0.000226817
-0.00263514
0.00286195
-0.000831151
-0.00633044
0.00693477
-0.00176337
-0.00889283
0.00982504
-0.00297495
-0.0105548
0.0117664
-0.00441898
-0.0115366
0.0129806
-0.00605387
-0.0120361
0.013671
-0.00784539
-0.0122123
0.0140038
-0.00976657
-0.0121759
0.0140971
-0.011796
-0.0119885
0.014018
-0.0139155
-0.0116692
0.0137888
-0.0161075
-0.0112039
0.0133959
-0.0183527
-0.0105562
0.0128014
-0.0206284
-0.00967603
0.0119517
-0.0229067
-0.00850732
0.0107857
-0.0251544
-0.00699168
0.00923938
-0.027333
-0.00507046
0.00724906
-0.0293977
-0.00268871
0.00475341
-0.0312503
0.000176149
0.00167638
-0.0329038
0.00355638
-0.00190289
-0.0342669
0.0074826
-0.00611948
-0.0352795
0.0119438
-0.0109312
-0.0358925
0.0169108
-0.0162978
-0.0360882
0.0223517
-0.0221559
0.0282243
-0.035935
-0.0283776
-0.000308203
-0.00232693
-0.00108238
-0.00555626
-0.00222607
-0.00774913
-0.00366135
-0.00911953
-0.00532531
-0.00987262
-0.00716984
-0.0101915
-0.00916008
-0.0102221
-0.0112712
-0.0100647
-0.0134846
-0.00977516
-0.0157837
-0.00937017
-0.0181506
-0.00883705
-0.0205634
-0.00814332
-0.0229943
-0.00724514
-0.025408
-0.00609366
-0.0277604
-0.00463921
-0.030002
-0.00282886
-0.0320635
-0.000627276
-0.0338656
0.00197828
-0.0353493
0.00504005
-0.0364261
0.00855942
-0.0370161
0.0125338
-0.0370486
0.0169433
-0.0364609
0.021764
0.027025
-0.0352615
-0.000366744
-0.00196019
-0.00125721
-0.00466579
-0.00253586
-0.00647048
-0.00409925
-0.00755614
-0.00586929
-0.00810258
-0.00778968
-0.00827115
-0.00982137
-0.00819038
-0.011937
-0.00794907
-0.0141155
-0.00759674
-0.0163365
-0.00714915
-0.018577
-0.00659653
-0.0208081
-0.00591219
-0.0229932
-0.00506003
-0.0250866
-0.00400026
-0.0270336
-0.00269229
-0.028762
-0.00110044
-0.0301903
0.00080105
-0.0312476
0.0030356
-0.0318256
0.00561803
-0.0318176
0.00855139
-0.0311159
0.0118322
-0.0296249
0.0154524
-0.0272534
0.0193924
0.0236526
-0.0238811
-0.000401994
-0.00155819
-0.00135681
-0.00371097
-0.00269921
-0.00512809
-0.00430497
-0.00595038
-0.00608215
-0.00632541
-0.00796489
-0.00638841
-0.00990681
-0.00624845
-0.0118739
-0.00598194
-0.0138381
-0.0056326
-0.0157712
-0.00521604
-0.0176412
-0.00472655
-0.019409
-0.00414441
-0.0210268
-0.00344223
-0.0224371
-0.00258995
-0.0235708
-0.00155851
-0.0243483
-0.000322964
-0.0246814
0.00113413
-0.0244707
0.0028249
-0.023604
0.00475133
-0.0219591
0.00690651
-0.0194042
0.00927729
-0.0158047
0.0118528
-0.0110582
0.014646
0.017821
-0.00522667
-0.000416268
-0.00114193
-0.00138944
-0.00273779
-0.00273442
-0.00378312
-0.00431163
-0.00437317
-0.00601725
-0.00461978
-0.00777556
-0.00463011
-0.00953097
-0.00449304
-0.0112403
-0.00427262
-0.0128656
-0.00400726
-0.0143687
-0.00371293
-0.0157068
-0.00338853
-0.0168295
-0.00302164
-0.017678
-0.00259377
-0.0181835
-0.00208446
-0.0182673
-0.00147467
-0.017841
-0.000749335
-0.016808
0.00010113
-0.0150611
0.001078
-0.0124838
0.00217409
-0.00894904
0.00337171
-0.00431579
0.00464404
0.00157075
0.00596624
0.00888588
0.00733088
0.00876616
0.0179408
-0.00041252
-0.000729407
-0.00136459
-0.00178573
-0.00266046
-0.00248725
-0.0041507
-0.00288293
-0.00572222
-0.00304826
-0.00729
-0.00306233
-0.00878872
-0.00299432
-0.0101648
-0.0028965
-0.0113697
-0.00280244
-0.0123538
-0.00272873
-0.0130635
-0.00267883
-0.0134379
-0.0026473
-0.0134078
-0.00262383
-0.0128956
-0.00259666
-0.0118153
-0.00255499
-0.0100731
-0.00249149
-0.00756811
-0.0024039
-0.00419346
-0.00229665
0.000164229
-0.0021836
0.00562317
-0.00208722
0.0123121
-0.0020449
0.020384
-0.00210564
0.0299682
-0.00225335
-0.00290061
0.041635
-0.000392752
-0.000336655
-0.00128806
-0.000890418
-0.00248747
-0.00128784
-0.00383651
-0.00153389
-0.00521516
-0.00166961
-0.00652976
-0.00174773
-0.0077048
-0.00181928
-0.00867533
-0.00192597
-0.00938053
-0.00209725
-0.00975865
-0.00235061
-0.00974368
-0.0026938
-0.0092633
-0.00312769
-0.00823805
-0.00364908
-0.00658159
-0.00425312
-0.00420122
-0.00493536
-0.000999166
-0.00569355
0.00312619
-0.00652925
0.00827927
-0.00744974
0.0145652
-0.00846954
0.0220901
-0.0096121
0.0309516
-0.0109064
0.041296
-0.0124501
0.0530567
-0.014014
-0.0169463
0.0671023
-0.000357494
2.08399e-05
-0.00116042
-8.74944e-05
-0.00221378
-0.000234476
-0.00336137
-0.000386296
-0.00447727
-0.000553714
-0.00545841
-0.000766588
-0.0062173
-0.00106039
-0.00667478
-0.00146848
-0.00675452
-0.00201752
-0.00637872
-0.0027264
-0.0054656
-0.00360692
-0.00392818
-0.00466511
-0.00167445
-0.00590281
0.0013916
-0.00731916
0.00536825
-0.00891201
0.010354
-0.0106793
0.0164455
-0.0126207
0.0237348
-0.014739
0.0323068
-0.0170415
0.0422402
-0.0195456
0.05358
-0.0222462
0.0664531
-0.0253231
0.0805929
-0.0281538
-0.0331869
0.0968335
-0.000306805
0.000327645
-0.000979563
0.000585264
-0.00183111
0.000617071
-0.00270468
0.00048727
-0.00346743
0.000209042
-0.00400418
-0.000229843
-0.00421209
-0.000852481
-0.00399313
-0.00168744
-0.00325091
-0.00275974
-0.00188762
-0.00408969
0.000196899
-0.00569144
0.00310441
-0.00757262
0.00693625
-0.00973465
0.0117904
-0.0121733
0.0177579
-0.0148795
0.0249195
-0.017841
0.0333424
-0.0210436
0.0430771
-0.0244737
0.0541541
-0.0281185
0.0665854
-0.0319769
0.0803393
-0.0360001
0.0954293
-0.0404131
0.111592
-0.0443165
-0.0507341
0.129139
-0.000241086
0.000568731
-0.000745508
0.00108969
-0.00133496
0.00120652
-0.00185125
0.00100356
-0.00215236
0.000510154
-0.00210799
-0.000274213
-0.00159532
-0.00136515
-0.000494998
-0.00278776
0.00131059
-0.00456532
0.00393729
-0.0067164
0.00749698
-0.00925112
0.0120937
-0.0121693
0.0178185
-0.0154595
0.0247447
-0.0190995
0.0329226
-0.0230574
0.0423758
-0.0272943
0.0530993
-0.0317671
0.0650578
-0.0364322
0.0781861
-0.0412468
0.0923889
-0.0461797
0.107549
-0.0511604
0.123485
-0.0563485
0.140127
-0.060959
-0.0675685
0.156961
-0.000163707
0.000732438
-0.00046539
0.00139137
-0.000734226
0.00147536
-0.000808374
0.00107771
-0.000534067
0.000235847
0.000235783
-0.00104406
0.00164463
-0.002774
0.0038302
-0.00497332
0.00692373
-0.00765886
0.011045
-0.0108376
0.0162957
-0.0145018
0.022752
-0.0186257
0.0304578
-0.0231653
0.0394187
-0.0280603
0.0495992
-0.0332379
0.0609229
-0.0386179
0.0732745
-0.0441187
0.0865055
-0.0496632
0.10044
-0.0551814
0.114883
-0.0606229
0.129647
-0.0659242
0.144452
-0.0711533
0.159392
-0.0758995
-0.0815848
0.173409
-7.94575e-05
-0.000151659
-4.93203e-05
0.000395553
0.00134953
0.00297572
0.00543101
0.00886036
0.0133889
0.0191119
0.0260843
0.0343122
0.0437475
0.0542874
0.0657789
0.0780276
0.0908101
0.103888
0.117019
0.12998
0.142572
0.154604
0.166185
0.176682
-0.0335647
0.0458684
-0.0482388
-0.0306267
0.0574986
-0.0604366
-0.0270083
0.069217
-0.0728354
-0.0226063
0.0803235
-0.0847256
-0.0171794
0.0899565
-0.0953833
-0.0104452
0.0972172
-0.103951
-0.00202948
0.100959
-0.109375
0.00834191
0.100034
-0.110405
0.0205353
0.0933757
-0.105569
0.0342589
0.080292
-0.0940157
0.0487642
0.0606395
-0.0751448
0.0633612
0.0348356
-0.0494326
0.0774265
0.00355547
-0.0176208
0.0907393
-0.0321389
0.0188261
0.103045
-0.0701733
0.057868
0.113822
-0.106053
0.0952758
0.122277
-0.134617
0.126161
0.127771
-0.152873
0.147379
0.130299
-0.16143
0.158902
0.130459
-0.162993
0.162834
0.128527
-0.1608
0.162732
0.123996
-0.159269
0.163801
0.116875
-0.162406
0.169527
0.109332
-0.16769
0.175233
0.105143
-0.162722
0.166911
0.106918
-0.13267
0.130895
0.114391
-0.0741235
0.0666503
0.125246
0.000851678
-0.0117059
0.136517
0.0736017
-0.0848733
0.145807
0.130572
-0.139862
0.152155
0.166909
-0.173258
0.155721
0.185438
-0.189004
0.156241
0.193767
-0.194287
0.152846
0.205011
-0.201616
0.145996
0.222661
-0.215811
0.138631
0.23064
-0.223274
0.134345
0.202516
-0.19823
0.134884
0.125569
-0.126108
0.13964
0.0216451
-0.0264011
0.146259
-0.0818379
0.0752184
0.152677
-0.153949
0.147532
0.156396
-0.199604
0.195885
0.155082
-0.220397
0.22171
0.148544
-0.240216
0.246755
0.140187
-0.247735
0.256091
0.135044
-0.215649
0.220792
0.136171
-0.143538
0.142411
0.142149
-0.0175804
0.011603
0.148633
0.0744577
-0.0809424
0.150597
0.17994
-0.181904
0.14721
0.235688
-0.232301
0.1423
0.280765
-0.275856
0.140533
0.275408
-0.273641
0.142749
0.153536
-0.155752
0.145791
0.0837452
-0.0867867
0.14574
-0.118676
0.118727
0.144056
-0.193989
0.195673
0.142383
-0.284924
0.286597
0.14079
-0.336314
0.337907
-0.0736602
0.0755361
-0.0314814
0.0420883
-0.0267308
0.052748
-0.0208604
0.0633466
-0.0138777
0.0733408
-0.00552563
0.0816044
0.00434006
0.0873515
0.0156975
0.0896019
0.0284525
0.0872786
0.0422964
0.0795317
0.0566622
0.0659262
0.0708443
0.0464574
0.0842219
0.0214581
0.0964172
-0.00863985
0.107419
-0.0431407
0.117034
-0.0797879
0.124794
-0.113814
0.130102
-0.139924
0.132629
-0.1554
0.132576
-0.161378
0.130668
-0.161085
0.12739
-0.157522
0.122161
-0.15404
0.114338
-0.154583
0.105404
-0.158757
0.0992976
-0.156616
0.0996544
-0.133027
0.106912
-0.0813808
0.118772
-0.0110083
0.131677
0.0606959
0.142894
0.119355
0.15122
0.158584
0.15651
0.180148
0.158314
0.191963
0.155971
0.207355
0.150214
0.228418
0.143822
0.237032
0.139878
0.206459
0.139854
0.125594
0.143414
0.0180845
0.148381
-0.0868052
0.153194
-0.158762
0.155781
-0.202192
0.153909
-0.218524
0.147026
-0.233333
0.138415
-0.239124
0.133234
-0.210468
0.134834
-0.145138
0.141448
-0.0241948
0.148445
0.0674616
0.150767
0.177617
0.147577
0.238878
0.142804
0.285539
0.140918
0.277294
0.143243
0.151211
0.146493
0.0804945
0.146432
-0.118615
0.144646
-0.192202
0.142802
-0.283081
0.141116
-0.334628
-0.0717424
-0.0189154
0.0371227
-0.0127712
0.0466038
-0.00527481
0.0558502
0.0038711
0.0641949
0.0143227
0.0711528
0.0259786
0.0756956
0.0387457
0.0768348
0.0523424
0.0736819
0.0662979
0.0655763
0.0800242
0.0521998
0.092907
0.0335746
0.104474
0.00989129
0.11452
-0.0186861
0.123085
-0.0517061
0.129996
-0.086698
0.134778
-0.118597
0.137023
-0.142168
0.136759
-0.155136
0.134433
-0.159052
0.130792
-0.157444
0.126425
-0.153155
0.120833
-0.148448
0.112851
-0.146601
0.103052
-0.148958
0.0951483
-0.148712
0.0936825
-0.131561
0.100187
-0.0878853
0.112456
-0.0232768
0.126675
0.0464762
0.139681
0.10635
0.149966
0.148298
0.157024
0.17309
0.160263
0.188724
0.159231
0.208387
0.154791
0.232858
0.149421
0.242402
0.145716
0.210164
0.144992
0.126317
0.147162
0.0159145
0.150464
-0.090107
0.153645
-0.161943
0.15512
-0.203667
0.152815
-0.216218
0.145769
-0.226288
0.137014
-0.230369
0.131763
-0.205218
0.133701
-0.147077
0.140826
-0.0313191
0.148304
0.0599828
0.151044
0.174878
0.148104
0.241818
0.143465
0.290177
0.141433
0.279326
0.143843
0.148801
0.147333
0.0770044
0.147267
-0.118549
0.145351
-0.190286
0.143331
-0.28106
0.141575
-0.332872
-0.0698094
0.000846843
0.0310491
0.00837629
0.0390743
0.0172054
0.047021
0.0272007
0.0541997
0.0383904
0.0599631
0.0506043
0.0634817
0.0635456
0.0638935
0.0768046
0.0604229
0.0898749
0.052506
0.102221
0.0398533
0.113341
0.0224553
0.122959
0.000272879
0.130927
-0.0266544
0.137256
-0.0580347
0.141656
-0.0910981
0.143629
-0.12057
0.142983
-0.141523
0.140143
-0.152296
0.135845
-0.154754
0.130792
-0.152392
0.125541
-0.147903
0.119794
-0.142701
0.112167
-0.138974
0.102232
-0.139024
0.092901
-0.13938
0.0892973
-0.127957
0.0943083
-0.0928963
0.10635
-0.0353182
0.121489
0.0313365
0.1361
0.0917391
0.148287
0.136111
0.157146
0.164232
0.161972
0.183898
0.162491
0.207868
0.159551
0.235798
0.155247
0.246706
0.151662
0.213749
0.150102
0.127878
0.150861
0.0151554
0.152471
-0.0917172
0.154029
-0.163501
0.154398
-0.204036
0.151748
-0.213568
0.144702
-0.219242
0.135914
-0.221581
0.130573
-0.199877
0.132699
-0.149202
0.140228
-0.0388489
0.148181
0.0520299
0.151412
0.171647
0.148796
0.244435
0.144309
0.294663
0.142103
0.281533
0.144558
0.146346
0.148301
0.0732617
0.148238
-0.118486
0.146169
-0.188218
0.143964
-0.278855
0.142157
-0.331065
-0.0678868
0.0248329
0.0241571
0.0326189
0.0312883
0.041571
0.0380689
0.0516903
0.0440804
0.0628291
0.0488242
0.0747178
0.051593
0.0870027
0.0516087
0.0992468
0.0481788
0.110967
0.0407857
0.121712
0.0291087
0.131091
0.0130761
0.139028
-0.00766432
0.145299
-0.0329249
0.149706
-0.0624417
0.15175
-0.0931428
0.151014
-0.119833
0.147669
-0.138178
0.142551
-0.147179
0.136636
-0.148839
0.130553
-0.146308
0.124675
-0.142025
0.118887
-0.136914
0.111932
-0.132018
0.102585
-0.129677
0.0925176
-0.129313
0.0867426
-0.122182
0.0895776
-0.0957312
0.10061
-0.0463503
0.116156
0.0157902
0.132088
0.0758071
0.146044
0.122155
0.156696
0.15358
0.163242
0.177352
0.165524
0.205586
0.164268
0.237054
0.161075
0.249898
0.157572
0.217252
0.155111
0.130339
0.15434
0.0159271
0.154342
-0.0917192
0.154317
-0.163476
0.153589
-0.203309
0.150662
-0.210641
0.143757
-0.212337
0.135045
-0.212869
0.129589
-0.19442
0.131767
-0.151381
0.139594
-0.0466757
0.148032
0.0435918
0.151845
0.167834
0.14965
0.24663
0.145354
0.298959
0.142948
0.283939
0.145395
0.143899
0.149383
0.0692738
0.149332
-0.118435
0.147093
-0.18598
0.144697
-0.276459
0.142849
-0.329218
-0.0660003
0.0484886
0.0173035
0.0561254
0.0236516
0.064766
0.0294283
0.0744518
0.0343946
0.0849799
0.0382961
0.0960404
0.0405325
0.107278
0.0403714
0.118272
0.037184
0.128588
0.0304702
0.137882
0.019815
0.145867
0.0050912
0.152449
-0.0142468
0.157318
-0.0377943
0.159989
-0.0651124
0.159811
-0.092965
0.156567
-0.116589
0.150862
-0.132472
0.143871
-0.140188
0.136713
-0.14168
0.129942
-0.139538
0.123696
-0.135779
0.117924
-0.131142
0.111747
-0.125842
0.103571
-0.121501
0.0936623
-0.119404
0.0861344
-0.114654
0.0862977
-0.0958946
0.0954898
-0.0555423
0.110761
0.000518681
0.127592
0.058976
0.143084
0.106663
0.155466
0.141198
0.163825
0.168992
0.168046
0.201365
0.168637
0.236463
0.166659
0.251877
0.163237
0.220674
0.15982
0.133756
0.157571
0.0181762
0.156014
-0.0901625
0.154471
-0.161933
0.152658
-0.201495
0.149502
-0.207485
0.142856
-0.20569
0.13432
-0.204334
0.128732
-0.188831
0.130824
-0.153473
0.138866
-0.0547179
0.147801
0.0346565
0.152302
0.163334
0.15065
0.248282
0.146605
0.303004
0.143982
0.286562
0.146345
0.141536
0.15057
0.0650487
0.150535
-0.1184
0.148117
-0.183562
0.145521
-0.273862
0.143638
-0.327335
-0.0641754
0.0725856
0.0118202
0.0790121
0.017225
0.0865431
0.0218973
0.0951403
0.0257974
0.104528
0.028908
0.114395
0.0306658
0.124399
0.0303672
0.134136
0.0274478
0.143198
0.0214079
0.151199
0.0118141
0.15828
-0.00199016
0.163614
-0.0195804
0.167088
-0.0412681
0.167945
-0.0659701
0.165565
-0.0905848
0.160049
-0.111073
0.1524
-0.124823
0.144007
-0.131795
0.135991
-0.133665
0.128828
-0.132375
0.122457
-0.129408
0.116753
-0.125437
0.111257
-0.120347
0.104533
-0.114777
0.0956914
-0.110562
0.0872821
-0.106245
0.0847401
-0.0933526
0.0913356
-0.0621378
0.105464
-0.0136098
0.12262
0.0418204
0.139295
0.089987
0.153264
0.12723
0.163467
0.158789
0.169758
0.195074
0.172344
0.233877
0.171705
0.252516
0.168463
0.223916
0.164116
0.138103
0.160411
0.0218805
0.157411
-0.0871619
0.154448
-0.15897
0.151569
-0.198617
0.148211
-0.204127
0.14192
-0.199399
0.133651
-0.196065
0.127922
-0.183102
0.129798
-0.155349
0.13797
-0.0628903
0.147424
0.0252032
0.152731
0.158026
0.151764
0.249249
0.148055
0.306713
0.145203
0.289414
0.147412
0.139327
0.15184
0.0606211
0.15183
-0.118389
0.14923
-0.180963
0.146428
-0.27106
0.144511
-0.325419
-0.0624387
0.099731
0.00892272
0.103898
0.0130584
0.109407
0.016388
0.116079
0.019125
0.123622
0.0213651
0.13177
0.0225183
0.140186
0.0219514
0.148458
0.019175
0.156216
0.0136502
0.162999
0.0050309
0.168731
-0.00772152
0.17272
-0.0235694
0.1745
-0.0430485
0.173316
-0.0647863
0.168762
-0.0860312
0.161308
-0.103619
0.152227
-0.115741
0.142944
-0.122513
0.134456
-0.125176
0.127131
-0.12505
0.120817
-0.123093
0.115259
-0.119879
0.110266
-0.115354
0.104914
-0.109424
0.0977714
-0.10342
0.0896165
-0.0980902
0.0849635
-0.0886997
0.0885193
-0.0656936
0.100468
-0.0255582
0.117244
0.0250443
0.134625
0.0726061
0.149955
0.1119
0.161956
0.146788
0.170357
0.186673
0.175024
0.22921
0.175863
0.251677
0.172959
0.22682
0.167838
0.143225
0.162775
0.026943
0.158448
-0.0828349
0.154191
-0.154713
0.150277
-0.194703
0.146727
-0.200577
0.140873
-0.193545
0.132952
-0.188144
0.127077
-0.177227
0.128621
-0.156893
0.13684
-0.0711091
0.146827
0.0152156
0.153066
0.151788
0.152943
0.249372
0.149679
0.309977
0.146605
0.292488
0.148586
0.137346
0.153174
0.0560334
0.153197
-0.118412
0.15042
-0.178186
0.147403
-0.268043
0.145452
-0.323468
-0.060819
0.129518
0.00854401
0.131287
0.0112889
0.134406
0.0132693
0.138646
0.0148851
0.143815
0.0161956
0.149721
0.0166123
0.156033
0.0156401
0.162345
0.0128627
0.16823
0.00776527
0.173489
-0.000228128
0.177303
-0.0115357
0.179397
-0.0256635
0.179063
-0.0427146
0.175691
-0.0614137
0.169179
-0.0795191
0.160284
-0.0947237
0.150351
-0.105808
0.140677
-0.112839
0.132056
-0.116555
0.124742
-0.117735
0.118584
-0.116935
0.113262
-0.114557
0.108641
-0.110733
0.104345
-0.105128
0.0990804
-0.0981554
0.0922269
-0.0912367
0.0865636
-0.0830364
0.0871259
-0.0662558
0.0962039
-0.0346362
0.111651
0.0095975
0.129102
0.055155
0.145449
0.0955528
0.159106
0.13313
0.169634
0.176145
0.176516
0.222328
0.17896
0.249232
0.176512
0.229269
0.170802
0.148935
0.164536
0.033209
0.159023
-0.0773227
0.153622
-0.149312
0.148721
-0.189801
0.144972
-0.196829
0.139634
-0.188206
0.132152
-0.180662
0.126126
-0.171201
0.127229
-0.157996
0.135412
-0.0792922
0.145939
0.00468875
0.153231
0.144495
0.154124
0.248479
0.151436
0.312666
0.148168
0.295756
0.149853
0.135661
0.154548
0.0513383
0.154615
-0.11848
0.15167
-0.175241
0.148432
-0.264805
0.146447
-0.321482
-0.059349
0.155958
0.0095474
0.156204
0.0110433
0.157473
0.0119999
0.159607
0.0127508
0.162588
0.0132149
0.166248
0.0129528
0.170274
0.0116138
0.174348
0.00878856
0.178068
0.00404543
0.181184
-0.00334456
0.182753
-0.0131043
0.182578
-0.0254887
0.180018
-0.0401547
0.174666
-0.0560619
0.166694
-0.0715468
0.156984
-0.0850141
0.14677
-0.095594
0.137111
-0.103181
0.128605
-0.108049
0.12142
-0.110551
0.115461
-0.110976
0.110444
-0.10954
0.106176
-0.106465
0.102602
-0.101554
0.0989758
-0.0945295
0.094049
-0.0863099
0.0886981
-0.0776856
0.0870648
-0.0646225
0.0929277
-0.0404991
0.106136
-0.00361072
0.122851
0.0384394
0.139741
0.0786629
0.154806
0.118065
0.167319
0.163632
0.176363
0.213285
0.180556
0.245039
0.178844
0.230981
0.172803
0.154976
0.165644
0.0403673
0.159078
-0.070756
0.152689
-0.142923
0.146868
-0.183979
0.142891
-0.192852
0.138134
-0.18345
0.131203
-0.173731
0.125028
-0.165026
0.125571
-0.158538
0.133629
-0.0873502
0.144687
-0.00637011
0.153147
0.136036
0.155223
0.246403
0.153263
0.314626
0.149858
0.299161
0.151199
0.134319
0.155934
0.0466036
0.156066
-0.118612
0.152962
-0.172137
0.149498
-0.261341
0.14748
-0.319464
-0.0580653
0.172253
0.0107037
0.172012
0.0112838
0.17232
0.0116916
0.173249
0.0118218
0.174831
0.0116334
0.176876
0.0109073
0.179141
0.00934881
0.181341
0.00658905
0.183007
0.00237925
0.183958
-0.00429533
0.18361
-0.0127568
0.181492
-0.0233702
0.177184
-0.0358473
0.170522
-0.0493996
0.161858
-0.0628827
0.152043
-0.0751992
0.142084
-0.0856346
0.132781
-0.0938778
0.124578
-0.0998461
0.117605
-0.103578
0.111828
-0.105199
0.107076
-0.104789
0.103122
-0.102511
0.0999722
-0.0984037
0.0974487
-0.092006
0.0944399
-0.0833011
0.0904145
-0.0736601
0.0878209
-0.062029
0.0907791
-0.0434572
0.101027
-0.0138586
0.116111
0.0233558
0.132892
0.0618813
0.149083
0.101874
0.163607
0.149109
0.174995
0.201897
0.181028
0.239006
0.18004
0.231969
0.174016
0.161
0.166138
0.0482447
0.158753
-0.0633705
0.151514
-0.135684
0.144871
-0.177336
0.140583
-0.188564
0.136405
-0.179272
0.130123
-0.167449
0.123814
-0.158717
0.123667
-0.158392
0.131457
-0.09514
0.143001
-0.0179149
0.152734
0.126303
0.156174
0.242963
0.155097
0.315702
0.151627
0.302631
0.15261
0.133337
0.157313
0.0419001
0.157531
-0.118829
0.154279
-0.168885
0.150586
-0.257648
0.148543
-0.317421
-0.0570071
0.17631
0.0110759
0.176119
0.0114749
0.17629
0.0115207
0.176796
0.0113154
0.177632
0.010798
0.178697
0.00984161
0.179819
0.00822712
0.180791
0.00561696
0.181515
0.00165537
0.181026
-0.0038063
0.179334
-0.0110651
0.176055
-0.0200907
0.17093
-0.0307226
0.163972
-0.0424416
0.155579
-0.0544895
0.146448
-0.0660685
0.137318
-0.0765041
0.128754
-0.0853139
0.121093
-0.0921852
0.114462
-0.0969467
0.108876
-0.0996134
0.104288
-0.100201
0.100531
-0.0987537
0.0975497
-0.0954221
0.0955026
-0.089959
0.0938387
-0.0816372
0.0914444
-0.0712659
0.0890285
-0.0596131
0.0899222
-0.0443509
0.0967589
-0.0206953
0.109425
0.0106896
0.125074
0.0462319
0.141442
0.0855069
0.157274
0.133277
0.170867
0.188303
0.179086
0.230787
0.17948
0.231575
0.174051
0.16643
0.166172
0.0561239
0.158004
-0.0552028
0.150134
-0.127814
0.142869
-0.170071
0.138204
-0.183899
0.134524
-0.175592
0.128947
-0.161872
0.12252
-0.15229
0.121634
-0.157505
0.129101
-0.102607
0.140884
-0.0296975
0.151884
0.115303
0.156824
0.238023
0.156835
0.315691
0.153445
0.306021
0.154057
0.132725
0.158656
0.0373016
0.158987
-0.119161
0.155594
-0.165492
0.151693
-0.253747
0.149628
-0.315355
-0.0562142
0.194079
0.011596
-0.194599
0.19415
0.0114039
0.194464
0.0112068
0.195068
0.010711
0.196034
0.00983197
0.197387
0.00848915
0.199121
0.0064927
0.201115
0.00362305
0.203137
-0.000366047
0.205027
-0.00569683
0.206435
-0.0124731
0.207004
-0.0206591
0.206368
-0.0300868
0.204294
-0.0403675
0.200755
-0.0509505
0.195917
-0.0612312
0.190053
-0.0706395
0.18345
-0.0787114
0.176386
-0.0851215
0.169102
-0.0896622
0.161786
-0.0922976
0.154599
-0.0930145
0.147605
-0.0917591
0.14076
-0.0885772
0.134237
-0.0834362
0.128081
-0.0754812
0.121492
-0.0646762
0.113907
-0.052029
0.107029
-0.0374728
0.104128
-0.0177939
0.106455
0.00836288
0.11271
0.0399764
0.120252
0.077965
0.127508
0.126021
0.134448
0.181362
0.141884
0.223351
0.151253
0.222205
0.162536
0.155147
0.171321
0.0473391
0.175218
-0.0591003
0.17316
-0.125756
0.166863
-0.163774
0.159805
-0.176841
0.152855
-0.168643
0.144515
-0.153531
0.135613
-0.143388
0.130072
-0.151965
0.130515
-0.10305
0.134014
-0.0331966
0.137191
0.112125
0.138215
0.236998
0.138665
0.315242
0.140317
0.304369
0.145157
0.127885
0.151872
0.0305864
0.152903
-0.120192
0.148603
-0.161191
0.143262
-0.248406
0.138255
-0.310349
-0.053606
0.206296
0.0114737
-0.206174
0.206704
0.0109962
0.207405
0.0105054
0.208339
0.00977674
0.209498
0.00867322
0.210884
0.00710312
0.212444
0.00493286
0.214073
0.00199355
0.215627
-0.00191948
0.21687
-0.00693995
0.217536
-0.0131391
0.217361
-0.0204844
0.216103
-0.0288285
0.21361
-0.0378746
0.209862
-0.047202
0.20496
-0.0563301
0.199103
-0.0647819
0.192536
-0.0721443
0.185524
-0.0781092
0.178314
-0.082453
0.171096
-0.0850791
0.164004
-0.0859223
0.157137
-0.0848921
0.150458
-0.0818982
0.144017
-0.0769953
0.138046
-0.0695107
0.132208
-0.0588379
0.125622
-0.0454435
0.118797
-0.0306479
0.114292
-0.013288
0.114615
0.00803984
0.119535
0.0350558
0.126964
0.0705358
0.13512
0.117866
0.143365
0.173117
0.152478
0.214238
0.163842
0.210841
0.176426
0.142563
0.185728
0.0380368
0.18891
-0.0622815
0.185872
-0.122718
0.178432
-0.156335
0.170378
-0.168787
0.162955
-0.16122
0.154509
-0.145085
0.14519
-0.134068
0.138978
-0.145753
0.138901
-0.102973
0.142468
-0.0367643
0.146258
0.108335
0.148122
0.235134
0.14957
0.313794
0.151755
0.302184
0.156607
0.123033
0.163467
0.0237266