/*--------------------------------*- C++ -*----------------------------------*\
| =========                 |                                                 |
| \\      /  F ield         | OpenFOAM: The Open Source CFD Toolbox           |
|  \\    /   O peration     | Version:  2512                                  |
|   \\  /    A nd           | Website:  www.openfoam.com                      |
|    \\/     M anipulation  |                                                 |
\*---------------------------------------------------------------------------*/
FoamFile
{
    version     2.0;
    format      ascii;
    arch        "LSB;label=32;scalar=64";
    class       surfaceScalarField;
    location    "58";
    object      phi;
}
// * * * * * * * * * * * * * * * * * * * * * * * * * * * * * * * * * * * * * //

dimensions      [0 3 -1 0 0 0 0];

oriented        oriented;

internalField   nonuniform List<scalar> 
26232
(
5.1442e-05
0.000976356
-0.0010278
0.000398363
0.00191312
-0.00226004
0.00120184
0.00196918
-0.00277266
0.00260869
0.00118539
-0.00259224
0.00476307
-0.00041717
-0.00173721
0.00780895
-0.00282964
-0.000216237
0.0118859
-0.00604707
0.00197011
0.0171188
-0.0100588
0.0048259
0.023603
-0.0148376
0.00835347
0.0313869
-0.0203302
0.0125463
0.0404564
-0.026452
0.0173825
0.0507238
-0.0330861
0.0228186
0.0620247
-0.0400884
0.0287875
0.0741231
-0.0472959
0.0351974
0.0867262
-0.0545386
0.0419355
0.0995052
-0.0616521
0.0488732
0.112122
-0.0684899
0.0558735
0.124255
-0.0749345
0.0628012
0.135631
-0.0809018
0.0695258
0.146038
-0.0863611
0.0759543
0.155343
-0.0912767
0.0819712
0.163462
-0.0957869
0.0876682
0.170249
-0.0995843
0.0927972
-0.103598
0.0984156
0.175432
8.87511e-05
0.000887605
0.00057851
0.00142337
0.0016631
0.000884592
0.00352091
-0.000672424
0.00632298
-0.00321924
0.0102283
-0.00673499
0.0153711
-0.0111898
0.0218412
-0.016529
0.0296635
-0.0226599
0.0387803
-0.029447
0.0490429
-0.0367145
0.0602147
-0.0442579
0.071988
-0.0518616
0.0840098
-0.0593176
0.0959152
-0.066444
0.107363
-0.0730995
0.118066
-0.0791932
0.127819
-0.0846881
0.136516
-0.0895985
0.144138
-0.0939827
0.15078
-0.0979191
0.156535
-0.101542
0.161762
-0.104811
-0.108304
0.166468
0.000150841
0.000736764
0.000846332
0.000727875
0.0023074
-0.000576476
0.00473654
-0.00310157
0.00831702
-0.00679971
0.0131971
-0.0116151
0.0194663
-0.017459
0.0271291
-0.0241918
0.0360865
-0.0316173
0.0461302
-0.0394908
0.0569558
-0.04754
0.0681917
-0.0554938
0.0794401
-0.0631101
0.0903222
-0.0701997
0.100519
-0.0766409
0.109805
-0.0823848
0.118061
-0.08745
0.125284
-0.0919104
0.131561
-0.0958755
0.137051
-0.0994726
0.141948
-0.102817
0.146442
-0.106036
0.150738
-0.109108
-0.112435
0.154869
0.000237169
0.000499595
0.00119872
-0.000233675
0.00312261
-0.00250037
0.00621975
-0.0061987
0.0106591
-0.0112391
0.0165383
-0.0174943
0.0238516
-0.0247722
0.0324671
-0.0328074
0.0421252
-0.0412754
0.0524614
-0.0498269
0.0630507
-0.0581294
0.0734645
-0.0659076
0.0833256
-0.0729712
0.0923531
-0.0792272
0.100388
-0.0846754
0.107395
-0.0893925
0.113451
-0.0935059
0.118707
-0.0971662
0.123353
-0.100522
0.127582
-0.103701
0.131563
-0.106798
0.135417
-0.10989
0.139274
-0.112964
-0.116275
0.143114
0.000345116
0.000154479
0.00162376
-0.00151232
0.00407543
-0.00495204
0.00789439
-0.0100177
0.0131971
-0.0165418
0.0199817
-0.0242789
0.0280982
-0.0328887
0.0372472
-0.0419564
0.047013
-0.0510413
0.0569248
-0.0597387
0.0665289
-0.0677335
0.0754548
-0.0748335
0.0834592
-0.0809756
0.0904419
-0.0862099
0.0964337
-0.0906673
0.101563
-0.094522
0.106013
-0.0979557
0.109977
-0.10113
0.11363
-0.104175
0.117108
-0.107178
0.120508
-0.110199
0.12389
-0.113272
0.127313
-0.116387
-0.119696
0.130734
0.000471236
-0.000316758
0.00210438
-0.00314546
0.00511798
-0.00796564
0.00965517
-0.0145549
0.0157339
-0.0226205
0.0232052
-0.0317502
0.0317461
-0.0414296
0.0408994
-0.0511097
0.0501511
-0.060293
0.0590208
-0.0686084
0.0671385
-0.0758512
0.0742879
-0.0819828
0.0804118
-0.0870995
0.0855852
-0.0913833
0.0899685
-0.0950506
0.0937567
-0.0983103
0.0971381
-0.101337
0.100269
-0.104261
0.103263
-0.107169
0.106199
-0.110114
0.109126
-0.113125
0.112071
-0.116217
0.115068
-0.119385
-0.122708
0.118079
0.000611519
-0.000928276
0.00261896
-0.0051529
0.00618996
-0.0115366
0.0113748
-0.0197397
0.0180473
-0.029293
0.0258817
-0.0395846
0.0343913
-0.0499392
0.0430192
-0.0597376
0.0512495
-0.0685233
0.0586975
-0.0760564
0.0651556
-0.0823093
0.0705904
-0.0874176
0.0751027
-0.0916118
0.0788705
-0.095151
0.0820935
-0.0982736
0.0849537
-0.101171
0.0875946
-0.103978
0.0901174
-0.106784
0.092588
-0.10964
0.0950469
-0.112573
0.0975186
-0.115597
0.100017
-0.118715
0.102557
-0.121925
-0.125259
0.105108
0.000760674
-0.00168895
0.00314052
-0.00753275
0.00721987
-0.015616
0.0129133
-0.0254331
0.0199179
-0.0362976
0.0277348
-0.0474015
0.0357658
-0.0579703
0.0434462
-0.067418
0.0503551
-0.0754321
0.05627
-0.0819713
0.0611602
-0.0871995
0.0651371
-0.0913945
0.0683877
-0.0948625
0.0711152
-0.0978785
0.0734986
-0.100657
0.0756749
-0.103347
0.0777382
-0.106041
0.0797478
-0.108793
0.0817391
-0.111631
0.0837329
-0.114567
0.0857412
-0.117605
0.0877715
-0.120746
0.0898318
-0.123985
-0.127329
0.0919019
0.000911463
-0.00260041
0.00363636
-0.0102576
0.00812896
-0.0201086
0.0141332
-0.0314374
0.0211634
-0.0433277
0.0285886
-0.0548266
0.0357825
-0.0651642
0.0422625
-0.0738981
0.0477633
-0.080933
0.0522338
-0.0864418
0.0557812
-0.0907469
0.0585958
-0.094209
0.0608846
-0.0971513
0.0628285
-0.0998224
0.0645635
-0.102392
0.0661814
-0.104965
0.0677383
-0.107598
0.0692671
-0.110322
0.0707863
-0.11315
0.072307
-0.116088
0.0738359
-0.119134
0.0753775
-0.122287
0.0769351
-0.125542
-0.128891
0.078497
0.00105459
-0.003655
0.00407008
-0.0132731
0.00883986
-0.0248784
0.0149204
-0.037518
0.0216688
-0.0500761
0.0283925
-0.0615504
0.0345221
-0.0712937
0.0397166
-0.0790927
0.0438773
-0.0850936
0.04709
-0.0896545
0.0495414
-0.0931983
0.0514433
-0.0961109
0.0529822
-0.0986903
0.0542989
-0.101139
0.0554868
-0.10358
0.0566025
-0.10608
0.057678
-0.108674
0.0587312
-0.111375
0.0597725
-0.114191
0.0608081
-0.117123
0.0618424
-0.120168
0.0628779
-0.123323
0.0639157
-0.12658
-0.129926
0.0649506
0.00117999
-0.00483499
0.0044069
-0.0165
0.00928878
-0.0297602
0.0152022
-0.0434314
0.0214008
-0.0562746
0.0272095
-0.0673591
0.0321779
-0.0762621
0.0361253
-0.0830401
0.0390929
-0.0880613
0.0412529
-0.0918144
0.0428197
-0.0947652
0.0439898
-0.0972809
0.0449128
-0.0996133
0.0456888
-0.101915
0.0463778
-0.104269
0.0470133
-0.106716
0.0476131
-0.109274
0.0481875
-0.11195
0.0487428
-0.114747
0.0492833
-0.117664
0.0498117
-0.120697
0.0503294
-0.12384
0.0508351
-0.127086
-0.130418
0.0513275
0.00128086
-0.00611585
0.0046216
-0.0198408
0.00943654
-0.0345752
0.0149565
-0.0489514
0.0204019
-0.06172
0.0251821
-0.0721393
0.0289947
-0.0800747
0.0318034
-0.0858487
0.0337465
-0.0900044
0.035035
-0.0931029
0.0358759
-0.0956061
0.036433
-0.097838
0.0368177
-0.0999979
0.037097
-0.102194
0.0373077
-0.10448
0.0374691
-0.106877
0.0375915
-0.109396
0.0376811
-0.112039
0.0377426
-0.114808
0.0377791
-0.1177
0.0377932
-0.120711
0.0377858
-0.123833
0.0377552
-0.127055
0.0377029
-0.130366
-0.000181283
0.00113783
-0.00095655
-0.000642807
0.00283356
-0.00237204
-0.00133224
0.00412469
-0.00343526
-0.00220706
0.00508571
-0.00421089
-0.0032318
0.00578392
-0.00475917
-0.00437734
0.00628233
-0.00513679
-0.00562029
0.00663622
-0.00539328
-0.00694231
0.00688988
-0.00556786
-0.00832924
0.0070749
-0.00568796
-0.00977017
0.00721009
-0.00576916
-0.0112564
0.00730251
-0.00581631
-0.0127803
0.0073494
-0.00582543
-0.0143348
0.00734029
-0.00578579
-0.0159121
0.00725904
-0.00568181
-0.017503
0.00708551
-0.00549458
-0.0190969
0.00679695
-0.005203
-0.0206814
0.00636912
-0.00478467
-0.0222425
0.00577757
-0.00421643
-0.0237662
0.0049991
-0.0034754
-0.0252407
0.0040136
-0.00253911
-0.0266623
0.0028055
-0.00138395
-0.0280277
0.00136696
-1.55263e-06
-0.0293605
-0.000292192
0.00162501
-0.0021548
-0.0307378
0.00353208
-0.000140798
0.00127863
-0.000510342
0.0032031
-0.00107362
0.00468797
-0.00179923
0.00581131
-0.00265834
0.00664303
-0.0036251
0.00724909
-0.00467694
0.00768806
-0.0057947
0.00800765
-0.00696259
0.00824279
-0.00816774
0.00841523
-0.00939965
0.00853442
-0.0106495
0.00859921
-0.0119091
0.00859995
-0.0131705
0.00852043
-0.0144246
0.00833962
-0.0156607
0.00803307
-0.0168658
0.0075742
-0.018024
0.00693579
-0.0191169
0.00609202
-0.0201249
0.00502159
-0.0210307
0.00371127
-0.0218221
0.0021583
-0.0224895
0.0003752
-0.00149247
-0.0231518
-9.35553e-05
0.00137219
-0.000353175
0.00346272
-0.000761423
0.00509622
-0.0012978
0.00634769
-0.00193982
0.00728505
-0.00266438
0.00797365
-0.00344892
0.0084726
-0.00427234
0.00883106
-0.00511549
0.00908593
-0.00596139
0.00926113
-0.00679508
0.00936811
-0.0076032
0.00940733
-0.00837334
0.00937009
-0.00909328
0.00924037
-0.00975013
0.00899647
-0.0103294
0.0086123
-0.0108138
0.00805863
-0.0111825
0.00730447
-0.0114094
0.00631895
-0.0114623
0.00507453
-0.0113051
0.00355407
-0.0108982
0.0017514
-0.0102407
-0.000282268
-0.00243121
-0.009302
-4.44004e-05
0.00141659
-0.00018602
0.00360434
-0.000422662
0.00533287
-0.000743189
0.00666822
-0.00113038
0.00767225
-0.00156309
0.00840636
-0.00201798
0.00892749
-0.00247093
0.00928401
-0.00289802
0.00951303
-0.00327619
0.00963929
-0.00358339
0.00967532
-0.00379854
0.00962248
-0.00390107
0.00947262
-0.00387039
0.00920969
-0.00368515
0.00881123
-0.00332251
0.00824966
-0.00275727
0.00749339
-0.00196078
0.00650798
-0.000899588
0.00525775
0.000466315
0.00370862
0.00219093
0.00182946
0.00432533
-0.00038301
0.00694347
-0.0029004
-0.00558556
0.0100978
9.63936e-07
0.00141562
-2.58326e-05
0.00363114
-8.94906e-05
0.00539652
-0.000184964
0.00676369
-0.000298283
0.00778557
-0.000409065
0.00851714
-0.000492394
0.00901082
-0.000520384
0.009312
-0.000463388
0.00945603
-0.000290833
0.00946674
2.83346e-05
0.00935615
0.000525542
0.00912527
0.00123279
0.00876537
0.00218304
0.00825944
0.0034106
0.00758367
0.00495159
0.00670866
0.00684424
0.00560074
0.00912882
0.0042234
0.0118497
0.00253688
0.0150556
0.000502739
0.0187917
-0.00190671
0.0231264
-0.00471765
0.0281187
-0.00789274
-0.0114609
0.033994
3.82473e-05
0.00137738
0.000110921
0.00355847
0.000205818
0.00530163
0.000326091
0.00664342
0.000485123
0.00762654
0.000704198
0.00829807
0.00101082
0.0087042
0.00143732
0.00888549
0.00201977
0.00887359
0.00279713
0.00868938
0.00381077
0.00834251
0.00510428
0.00783177
0.00672344
0.00714621
0.00871646
0.00626643
0.0111341
0.00516608
0.0140296
0.00381312
0.0174589
0.00217139
0.0214745
0.000207827
0.026141
-0.00212958
0.031507
-0.00486329
0.037625
-0.00802468
0.0445603
-0.011653
0.052292
-0.0156244
-0.0203837
0.0612148
6.25952e-05
0.00131478
0.000211125
0.00340994
0.000437532
0.00507522
0.00074857
0.00633238
0.00116067
0.00721443
0.00169838
0.00776036
0.0023934
0.00800918
0.00328374
0.00799515
0.00441302
0.00774431
0.00582985
0.00727254
0.00758747
0.00658489
0.00974338
0.00567585
0.0123592
0.0045304
0.0155005
0.00312514
0.0192359
0.00143067
0.0236365
-0.000587467
0.0287745
-0.00296668
0.0347245
-0.00574214
0.0415437
-0.0089488
0.0492938
-0.0126134
0.0580063
-0.0167371
0.0677445
-0.0213912
0.0783598
-0.0262397
-0.0324034
0.0903795
7.26347e-05
0.00124215
0.000268822
0.00321375
0.000593404
0.00475064
0.00106241
0.00586337
0.00169957
0.00657728
0.00253604
0.00692388
0.00361059
0.00693463
0.00496957
0.00663617
0.00666683
0.00604705
0.00876342
0.00517596
0.0113272
0.00402115
0.0144322
0.0025708
0.0181575
0.000805126
0.0225867
-0.0013041
0.0278048
-0.00378744
0.0338953
-0.00667792
0.0409355
-0.0100069
0.0489933
-0.0137999
0.0581173
-0.0180728
0.0683371
-0.0228332
0.0796379
-0.0280379
0.0920322
-0.0337856
0.105272
-0.0394797
-0.0469007
0.11977
6.94974e-05
0.00117265
0.000287915
0.00299533
0.000681015
0.00435754
0.00127991
0.00526448
0.00212059
0.00573659
0.00324557
0.00579891
0.00470532
0.00547488
0.00655928
0.0047822
0.00887623
0.0037301
0.011734
0.00231822
0.0152179
0.000537219
0.0194202
-0.00163152
0.0244359
-0.00421052
0.0303579
-0.00722612
0.0372736
-0.0107032
0.0452574
-0.0146617
0.0543631
-0.0191125
0.0646169
-0.0240538
0.0760096
-0.0294655
0.0884905
-0.0353142
0.10196
-0.0415074
0.116292
-0.0481178
0.131251
-0.0544385
-0.0624479
0.146798
5.78045e-05
0.00111484
0.000283735
0.0027694
0.000731127
0.00391014
0.00145182
0.00454378
0.00249988
0.00468853
0.00393523
0.00436356
0.00582641
0.00358371
0.00825203
0.00235659
0.0113007
0.000681461
0.0150695
-0.0014506
0.0196608
-0.00405409
0.0251759
-0.00714664
0.0317098
-0.0107444
0.0393415
-0.0148579
0.0481261
-0.0194877
0.058085
-0.0246206
0.0691988
-0.0302263
0.0814012
-0.0362561
0.0945764
-0.0426407
0.108559
-0.0492964
0.123144
-0.0560923
0.138046
-0.0630208
0.153089
-0.0694814
-0.0770048
0.167646
4.53244e-05
0.00106952
0.000281947
0.00253278
0.000795494
0.0033966
0.00166383
0.00367545
0.0029652
0.00338716
0.00478356
0.00254519
0.0072115
0.00115577
0.0103507
-0.000782634
0.0143099
-0.00327773
0.0191987
-0.00633938
0.0251202
-0.00997564
0.0321607
-0.0141871
0.0403782
-0.0189619
0.0497916
-0.0242713
0.0603712
-0.0300673
0.0720325
-0.036282
0.0846342
-0.042828
0.0979814
-0.0496033
0.111833
-0.0564921
0.125921
-0.063385
0.139971
-0.0701417
0.153695
-0.0767447
0.16699
-0.0827771
-0.089073
0.179058
4.17211e-05
0.000314455
0.000938393
0.0020216
0.00367155
0.00600051
0.00912638
0.0131697
0.0182454
0.0244523
0.0318592
0.0404907
0.0503163
0.0612425
0.0731106
0.0857018
0.0987472
0.111945
0.124979
0.137548
0.149378
0.160301
0.170321
0.179664
-0.031343
-0.00757362
0.00817884
-0.0318428
-0.012412
0.0129119
-0.0321868
-0.0181206
0.0184646
-0.0323436
-0.0246302
0.024787
-0.0322796
-0.0318589
0.0317948
-0.0319587
-0.0396597
0.0393388
-0.0313426
-0.0478038
0.0471877
-0.0303863
-0.0559729
0.0550165
-0.0290255
-0.0637587
0.062398
-0.0271704
-0.0706401
0.0687849
-0.0247
-0.0759761
0.0735057
-0.0214488
-0.0790166
0.0757654
-0.0172696
-0.0789239
0.0747447
-0.0119988
-0.0748051
0.0695343
-0.00554924
-0.0657917
0.0593422
0.00212073
-0.0512542
0.0435842
0.0109468
-0.0309806
0.0221545
0.0203579
-0.00504979
-0.00436125
0.0299552
0.0253472
-0.0349445
0.0395324
0.0576679
-0.0672451
0.0484257
0.0895054
-0.0983987
0.0556916
0.118204
-0.12547
0.0601723
0.142318
-0.146798
0.061022
0.162251
-0.163101
0.0586883
0.1791
-0.176766
0.0556849
0.191306
-0.188303
0.0557437
0.192148
-0.192207
0.0610566
0.172795
-0.178108
0.0707607
0.129265
-0.138969
0.0829549
0.064575
-0.0767693
0.0960397
-0.0123008
-0.000783931
0.108397
-0.0879591
0.0756021
0.118078
-0.14935
0.139669
0.124142
-0.190802
0.184738
0.127039
-0.212235
0.209338
0.125759
-0.218044
0.219324
0.118192
-0.222507
0.230073
0.106451
-0.235192
0.246933
0.0973213
-0.237973
0.247103
0.0958538
-0.198752
0.200219
0.101756
-0.11029
0.104387
0.111282
0.00252237
-0.012048
0.120689
0.107232
-0.11664
0.128252
0.181886
-0.189449
0.132072
0.220537
-0.224358
0.128654
0.241675
-0.238257
0.118876
0.260111
-0.250333
0.110096
0.260158
-0.251378
0.109111
0.205807
-0.204822
0.115586
0.103176
-0.109651
0.124928
-0.0103932
0.00105047
0.133261
-0.100527
0.0921946
0.139322
-0.148672
0.142611
0.141668
-0.169399
0.167053
0.139425
-0.158461
0.160704
0.1345
-0.155199
0.160124
0.131374
-0.121989
0.125115
0.132809
-0.0878444
0.0864097
0.138715
-0.0349885
0.0290828
0.0289754
-0.0333563
-0.0239628
-0.00676259
-0.0247966
-0.0115783
-0.0255929
-0.0173243
-0.0263318
-0.0238913
-0.0269982
-0.0311924
-0.0275716
-0.0390863
-0.0280257
-0.0473497
-0.028328
-0.0556706
-0.0284284
-0.0636583
-0.0282405
-0.070828
-0.0276243
-0.0765924
-0.0263723
-0.0802686
-0.0242375
-0.0810587
-0.0209255
-0.078117
-0.0161724
-0.0705449
-0.00982382
-0.0576027
-0.00201728
-0.0387871
0.00768773
-0.0147548
0.0180652
0.0149698
0.0285712
0.0471619
0.0385174
0.0795592
0.0468745
0.109847
0.0526126
0.13658
0.0553414
0.159522
0.056066
0.178376
0.0573285
0.190044
0.0618238
0.187653
0.0701932
0.164426
0.0810037
0.118454
0.0927856
0.0527931
0.104495
-0.0240101
0.115028
-0.0984922
0.122809
-0.157132
0.126902
-0.194894
0.128086
-0.213419
0.126202
-0.21616
0.118749
-0.215053
0.106423
-0.222867
0.0958148
-0.227365
0.0930963
-0.196033
0.0985231
-0.115716
0.108318
-0.00727284
0.1187
0.0968511
0.127372
0.173214
0.131408
0.216501
0.12751
0.245573
0.117826
0.269795
0.110119
0.267865
0.110372
0.205554
0.117635
0.0959134
0.127228
-0.0199868
0.135284
-0.108582
0.141039
-0.154427
0.143586
-0.171946
0.142124
-0.156999
0.137303
-0.150378
0.133036
-0.117721
0.132788
-0.087597
0.13705
-0.0392503
0.025179
-0.00992771
-0.00613688
-0.0108396
-0.0106664
-0.0118603
-0.0163036
-0.0129784
-0.0227733
-0.0142055
-0.0299652
-0.0155369
-0.0377549
-0.0169515
-0.0459352
-0.0184337
-0.0541883
-0.0199813
-0.0621108
-0.0215168
-0.0692925
-0.0228825
-0.0752267
-0.0238261
-0.079325
-0.0240407
-0.0808441
-0.0231404
-0.0790174
-0.0206968
-0.0729884
-0.0163762
-0.0619234
-0.00999542
-0.0451679
-0.00193007
-0.0228201
0.00847088
0.00456883
0.0193391
0.0362937
0.0301631
0.0687351
0.0397724
0.100238
0.0472852
0.129067
0.0526197
0.154188
0.056975
0.17402
0.0624775
0.184541
0.0706564
0.179474
0.0810974
0.153985
0.0922754
0.107276
0.103121
0.0419476
0.113139
-0.0340282
0.12159
-0.106943
0.12737
-0.162912
0.129603
-0.197127
0.129104
-0.21292
0.126566
-0.213622
0.119535
-0.208021
0.107132
-0.210464
0.0951922
-0.215425
0.0910008
-0.191842
0.0957695
-0.120485
0.105759
-0.0172625
0.117069
0.0855411
0.126642
0.163641
0.130724
0.212418
0.126501
0.249796
0.117181
0.279115
0.110613
0.274433
0.11197
0.204198
0.11987
0.0880131
0.129638
-0.029755
0.137405
-0.11635
0.142727
-0.159749
0.145236
-0.174455
0.144515
-0.156278
0.140125
-0.145989
0.135187
-0.112783
0.133444
-0.0858544
0.135919
-0.0417246
0.0220596
0.00986006
-0.00589913
0.00913456
-0.00994089
0.00818786
-0.0153569
0.00701547
-0.0216009
0.00555469
-0.0285045
0.00376584
-0.0359661
0.00160093
-0.0437703
-0.00094583
-0.0516416
-0.00381899
-0.0592376
-0.00697418
-0.0661373
-0.0102621
-0.0719388
-0.013408
-0.076179
-0.016084
-0.0781681
-0.0178617
-0.0772397
-0.0181064
-0.0727437
-0.0163577
-0.063672
-0.0122451
-0.0492805
-0.00585037
-0.0292149
0.00282814
-0.00410968
0.0135127
0.0256091
0.0247716
0.0574762
0.0355587
0.0894506
0.0450878
0.119538
0.0533461
0.145929
0.0613291
0.166037
0.0704845
0.175386
0.0813719
0.168587
0.092988
0.142368
0.103883
0.0963811
0.11351
0.0323209
0.121667
-0.0421856
0.127939
-0.113215
0.131649
-0.166623
0.132143
-0.19762
0.130057
-0.210834
0.126745
-0.210311
0.120298
-0.201575
0.108396
-0.198561
0.0954629
-0.202492
0.0896415
-0.186021
0.0935512
-0.124395
0.103677
-0.0273878
0.115789
0.0734291
0.126013
0.153417
0.130043
0.208388
0.125705
0.254135
0.116981
0.287839
0.111559
0.279854
0.113863
0.201893
0.122237
0.0796398
0.132075
-0.0395932
0.139558
-0.123833
0.144393
-0.164583
0.146662
-0.176724
0.146553
-0.156169
0.142823
-0.142258
0.137694
-0.107654
0.134751
-0.0829122
0.135433
-0.0424064
0.0196587
0.033783
-0.00568808
0.0333502
-0.00950811
0.0326215
-0.0146282
0.0315601
-0.0205395
0.0300928
-0.0270372
0.0281699
-0.0340431
0.0257376
-0.0413381
0.022706
-0.0486099
0.019001
-0.0555326
0.0146237
-0.06176
0.00963546
-0.0669506
0.00421797
-0.0707615
-0.000970661
-0.0729795
-0.00524322
-0.0729671
-0.0082319
-0.069755
-0.00930651
-0.0625974
-0.00790788
-0.0506792
-0.00389202
-0.0332308
0.00304435
-0.0110461
0.0126316
0.0160219
0.0236929
0.0464149
0.0352501
0.0778935
0.0465383
0.10825
0.0574221
0.135045
0.0684799
0.15498
0.0804255
0.16344
0.0930744
0.155938
0.105112
0.130331
0.115316
0.0861776
0.12346
0.024177
0.129779
-0.0485045
0.13389
-0.117326
0.135495
-0.168227
0.134349
-0.196474
0.130876
-0.207362
0.126714
-0.206149
0.120859
-0.195719
0.109983
-0.187685
0.0965588
-0.189068
0.0890545
-0.178516
0.0918891
-0.12723
0.10205
-0.0375489
0.114778
0.060701
0.125415
0.14278
0.129382
0.204421
0.125167
0.25835
0.117229
0.295777
0.112917
0.284166
0.116025
0.198785
0.124707
0.0709579
0.134486
-0.0493716
0.141674
-0.131022
0.14602
-0.168928
0.14791
-0.178615
0.148233
-0.156492
0.145278
-0.139302
0.140398
-0.102774
0.136641
-0.079156
0.135684
-0.0414488
0.0179546
0.0610155
-0.00548879
0.0607475
-0.0092401
0.0602421
-0.0141228
0.0593019
-0.0195992
0.0578652
-0.0256005
0.0558891
-0.032067
0.0533037
-0.0387527
0.050037
-0.0453432
0.0460195
-0.0515151
0.0411957
-0.0569362
0.0355505
-0.0613053
0.0291882
-0.0643993
0.0223016
-0.0660928
0.0153705
-0.066036
0.00928664
-0.0636712
0.00493137
-0.0582421
0.00322418
-0.048972
0.00486938
-0.034876
0.00974158
-0.0159183
0.0174315
0.00833198
0.0275458
0.0363006
0.0391825
0.0662569
0.0515532
0.0958788
0.0642893
0.122309
0.0774884
0.14178
0.0912332
0.149695
0.104831
0.14234
0.116789
0.118373
0.126026
0.0769407
0.132704
0.0174984
0.137229
-0.0530294
0.139275
-0.119373
0.138784
-0.167736
0.13608
-0.19377
0.131464
-0.202746
0.126447
-0.201132
0.121047
-0.190319
0.111599
-0.178237
0.0983279
-0.175797
0.0892241
-0.169412
0.0906918
-0.128697
0.100715
-0.0475724
0.113866
0.0475502
0.124756
0.13189
0.128742
0.200436
0.124902
0.262189
0.117896
0.302783
0.114643
0.287419
0.118423
0.195005
0.127271
0.0621094
0.136841
-0.0589415
0.143694
-0.137875
0.147573
-0.172808
0.149019
-0.18006
0.149576
-0.15705
0.147406
-0.137132
0.143134
-0.0985017
0.139003
-0.0750246
0.136712
-0.039158
0.0168545
0.089989
-0.00509828
0.0895787
-0.00882983
0.0888951
-0.0134392
0.0877558
-0.01846
0.0861152
-0.0239599
0.0839316
-0.0298834
0.0811385
-0.0359596
0.0776847
-0.0418893
0.0735318
-0.0473622
0.0686354
-0.0520398
0.0629417
-0.0556116
0.0564098
-0.0578674
0.0490481
-0.0587312
0.0411389
-0.0581267
0.0333417
-0.055874
0.0266084
-0.0515088
0.0219789
-0.0443424
0.0203578
-0.0332549
0.0221631
-0.0177236
0.027504
0.00299114
0.0359813
0.0278232
0.046922
0.0553162
0.0595077
0.0832931
0.0731194
0.108698
0.0874024
0.127497
0.101952
0.135146
0.115753
0.128539
0.127259
0.106866
0.135569
0.0686309
0.140979
0.0120886
0.143838
-0.0558889
0.143911
-0.119445
0.141401
-0.165226
0.137221
-0.18959
0.131712
-0.197236
0.125938
-0.195359
0.120769
-0.185149
0.112938
-0.170406
0.100529
-0.163389
0.0901064
-0.15899
0.0898381
-0.128429
0.0994102
-0.0571444
0.11281
0.0341502
0.123921
0.120779
0.12811
0.196246
0.124902
0.265397
0.118937
0.308749
0.11668
0.289677
0.121016
0.190668
0.129911
0.0532149
0.139124
-0.0681545
0.145572
-0.144323
0.14901
-0.176246
0.150009
-0.181059
0.150624
-0.157665
0.149163
-0.135671
0.145748
-0.0950875
0.141685
-0.0709609
0.138491
-0.0359645
0.0161979
0.118814
-0.00414247
0.117893
-0.00790916
0.116646
-0.0121924
0.114942
-0.0167553
0.112777
-0.0217953
0.110108
-0.0272141
0.10687
-0.0327216
0.103042
-0.0380617
0.0986337
-0.0429536
0.0936549
-0.047061
0.0881015
-0.0500583
0.0819299
-0.0516958
0.0750496
-0.0518509
0.0674494
-0.0505265
0.0593708
-0.0477953
0.0514535
-0.0435916
0.0446849
-0.0375738
0.0402522
-0.0288221
0.0390313
-0.0165027
0.0416562
0.000366208
0.0479441
0.0215354
0.0574791
0.0457811
0.0694429
0.0713293
0.0829958
0.0951447
0.0974065
0.113087
0.111918
0.120635
0.125317
0.11514
0.136087
0.0960963
0.143529
0.0611887
0.147897
0.00772045
0.149326
-0.0573172
0.14759
-0.11771
0.14324
-0.160876
0.137691
-0.184041
0.131505
-0.19105
0.125165
-0.189019
0.119999
-0.179983
0.113731
-0.164138
0.102837
-0.152494
0.0916195
-0.147773
0.0892906
-0.1261
0.0978976
-0.0657514
0.111363
0.0206849
0.122782
0.10936
0.127442
0.191586
0.12512
0.267718
0.120283
0.313586
0.118958
0.291002
0.123763
0.185863
0.132579
0.0443986
0.141312
-0.0768873
0.147271
-0.150282
0.150284
-0.179259
0.150885
-0.181659
0.151426
-0.158206
0.150541
-0.134786
0.148115
-0.0926616
0.144515
-0.0673606
0.140923
-0.0323725
0.0157684
0.145142
-0.00248592
0.143405
-0.00617264
0.141276
-0.0100636
0.138722
-0.014201
0.135783
-0.0188561
0.132398
-0.0238289
0.128512
-0.0288362
0.124137
-0.033687
0.119318
-0.0381339
0.114113
-0.0418558
0.108587
-0.0445331
0.102782
-0.0458899
0.0966627
-0.0457321
0.0901347
-0.0439985
0.0831232
-0.0407838
0.0757664
-0.0362348
0.0685857
-0.0303931
0.0625955
-0.022832
0.0589638
-0.0128709
0.0587066
0.000623402
0.0623417
0.0179002
0.0697953
0.0383275
0.0803772
0.0607474
0.0930833
0.0824386
0.106864
0.0993057
0.120695
0.106804
0.13325
0.102585
0.143132
0.0862145
0.149838
0.0544827
0.153413
0.00414582
0.153538
-0.0574421
0.150134
-0.114307
0.144155
-0.154897
0.137378
-0.177263
0.130687
-0.184359
0.124034
-0.182366
0.118723
-0.174672
0.113771
-0.159187
0.104868
-0.143591
0.093597
-0.136502
0.0890977
-0.121601
0.0961019
-0.0727557
0.109347
0.00743967
0.121218
0.0974898
0.126686
0.186118
0.125519
0.268885
0.121859
0.317246
0.121394
0.291468
0.126582
0.180675
0.135236
0.0357446
0.143373
-0.0850245
0.148762
-0.155672
0.151353
-0.18185
0.151633
-0.181939
0.152023
-0.158597
0.151565
-0.134328
0.150146
-0.0912425
0.147315
-0.0645298
0.143842
-0.0288991
0.0153169
0.165538
-0.000377469
0.163028
-0.00366254
0.16001
-0.00704579
0.156621
-0.010812
0.152913
-0.0151479
0.148808
-0.0197242
0.144284
-0.0243127
0.139382
-0.0287847
0.134165
-0.0329165
0.128722
-0.0364129
0.123165
-0.0389758
0.1176
-0.0403253
0.112099
-0.040231
0.106659
-0.0385583
0.101182
-0.0353072
0.0955323
-0.0305849
0.089712
-0.0245728
0.0841278
-0.0172477
0.0796113
-0.00835448
0.077269
0.00296569
0.0783371
0.0168322
0.0832261
0.0334385
0.0917011
0.0522725
0.102835
0.0713051
0.115377
0.0867632
0.128069
0.094112
0.139516
0.0911377
0.148512
0.0772187
0.154689
0.0483051
0.157595
0.00124043
0.156431
-0.0562785
0.151414
-0.10929
0.144007
-0.14749
0.13618
-0.169436
0.129111
-0.177291
0.122412
-0.175667
0.116933
-0.169193
0.11294
-0.155194
0.106253
-0.136904
0.0957703
-0.126019
0.0893513
-0.115182
0.094119
-0.0775233
0.106726
-0.0051673
0.119146
0.0850693
0.125733
0.179531
0.125959
0.26866
0.123552
0.319652
0.12391
0.29111
0.129427
0.175158
0.137808
0.0273636
0.145269
-0.0924856
0.150019
-0.160422
0.152187
-0.184018
0.152231
-0.181983
0.15245
-0.158816
0.152283
-0.134161
0.1518
-0.0907591
0.149929
-0.062659
0.147043
-0.0260134
0.0145907
0.176584
0.00209693
0.173834
-0.000912018
0.170403
-0.00361481
0.166622
-0.00703122
0.162491
-0.0110166
0.157963
-0.0151965
0.153069
-0.0194189
0.147866
-0.0235812
0.142428
-0.0274791
0.136867
-0.0308521
0.131323
-0.0334312
0.125952
-0.0349548
0.120925
-0.0352041
0.116366
-0.0339988
0.112244
-0.0311851
0.108402
-0.0267436
0.104651
-0.0208217
0.100954
-0.01355
0.0977121
-0.005113
0.0952315
0.0054463
0.0947872
0.0172764
0.0974462
0.0307795
0.103485
0.0462333
0.112432
0.062359
0.123145
0.0760495
0.134271
0.0829863
0.144436
0.0809725
0.152669
0.0689853
0.15842
0.0425548
0.160695
-0.00103485
0.158212
-0.0537954
0.15167
-0.102748
0.143108
-0.138927
0.134484
-0.160812
0.127116
-0.169923
0.12054
-0.169091
0.114922
-0.163575
0.111427
-0.151699
0.106841
-0.132318
0.0978846
-0.117062
0.0901257
-0.107423
0.0921581
-0.0795557
0.103637
-0.0166464
0.116536
0.0721706
0.124569
0.171498
0.126474
0.266755
0.125332
0.320794
0.126425
0.290017
0.13227
0.169314
0.140288
0.0193454
0.146995
-0.0991926
0.151055
-0.164483
0.152794
-0.185756
0.152674
-0.181863
0.152736
-0.158878
0.152755
-0.13418
0.153076
-0.0910803
0.152236
-0.0618197
0.150308
-0.0240848
0.0133649
0.177657
0.00410416
0.174809
0.00193567
0.171862
-0.000667497
0.168406
-0.00357544
0.164468
-0.00707891
0.160109
-0.0108375
0.155402
-0.0147114
0.150405
-0.0185843
0.145215
-0.022289
0.13997
-0.0256078
0.134834
-0.0282946
0.129972
-0.0300932
0.125537
-0.0307687
0.121652
-0.0301137
0.118415
-0.027949
0.115855
-0.0241831
0.113853
-0.0188192
0.112192
-0.0118898
0.110597
-0.00351789
0.109667
0.00637646
0.109733
0.01721
0.111485
0.029028
0.115753
0.0419648
0.122593
0.0555196
0.131273
0.0673696
0.140618
0.0736412
0.149415
0.0721759
0.156831
0.0615689
0.161903
0.0374827
0.16291
-0.00204213
0.158756
-0.0496415
0.150956
-0.0949472
0.141778
-0.12975
0.132817
-0.151851
0.125277
-0.162383
0.118882
-0.162696
0.113178
-0.157871
0.109724
-0.148245
0.106792
-0.129386
0.0997851
-0.110056
0.0914371
-0.0990748
0.090766
-0.0788846
0.100268
-0.0261481
0.113346
0.0590924
0.122935
0.161909
0.126712
0.262978
0.126893
0.320613
0.128883
0.288026
0.135103
0.163094
0.142708
0.011741
0.148554
-0.105039
0.151901
-0.167829
0.153205
-0.18706
0.152962
-0.181621
0.152902
-0.158818
0.153041
-0.134318
0.154009
-0.092049
0.154168
-0.0619788
0.153435
-0.0233512
0.0114721
0.199243
0.00564139
-0.20078
0.19812
0.00305836
0.196704
0.000748465
0.19524
-0.00211061
0.193453
-0.00529221
0.191295
-0.00867986
0.188741
-0.0121573
0.18575
-0.0155929
0.182299
-0.0188382
0.178404
-0.0217129
0.174116
-0.0240066
0.169515
-0.0254921
0.164697
-0.0259506
0.159765
-0.0251822
0.154824
-0.0230078
0.149949
-0.019308
0.145165
-0.0140357
0.140488
-0.00721237
0.135893
0.0010774
0.131543
0.0107262
0.127644
0.0211085
0.124801
0.0318711
0.123909
0.0428569
0.12581
0.0536183
0.130957
0.0622231
0.138993
0.0656048
0.149154
0.0620148
0.16096
0.0497637
0.173024
0.0254184
0.182519
-0.0115373
0.18702
-0.0541428
0.186124
-0.0940507
0.180972
-0.124598
0.172966
-0.143845
0.163831
-0.153248
0.154554
-0.153419
0.14502
-0.148336
0.136595
-0.13982
0.129428
-0.122219
0.119798
-0.100425
0.107336
-0.086613
0.0983702
-0.069919
0.0971717
-0.0249496
0.0995186
0.0567454
0.100678
0.160749
0.100418
0.263238
0.103537
0.317494
0.11474
0.276823
0.131063
0.146772
0.144974
-0.00216985
0.153004
-0.113069
0.155339
-0.170164
0.154161
-0.185882
0.151091
-0.178551
0.148167
-0.155894
0.14567
-0.131821
0.144631
-0.0910103
0.14357
-0.0609174
0.142372
-0.0221531
0.0104307
0.209827
0.00661654
-0.210802
0.208758
0.00412683
0.207785
0.00172181
0.206552
-0.000877477
0.204939
-0.00367944
0.202936
-0.00667701
0.200524
-0.00974517
0.197686
-0.0127548
0.194421
-0.0155734
0.190757
-0.0180484
0.18675
-0.0199996
0.182484
-0.0212269
0.178064
-0.0215304
0.173605
-0.0207229
0.169229
-0.0186318
0.165053
-0.0151318
0.161177
-0.0101595
0.157664
-0.00370001
0.154507
0.00423475
0.151827
0.0134061
0.149677
0.0232588
0.148363
0.0331845
0.148506
0.0427137
0.150865
0.0512597
0.155913
0.0571751
0.163419
0.0580992
0.17283
0.0526039
0.183456
0.0391375
0.193623
0.0152509
0.20074
-0.0186544
0.203008
-0.0564107
0.200212
-0.0912547
0.193519
-0.117904
0.184391
-0.134717
0.174431
-0.143288
0.164743
-0.143732
0.155026
-0.138619
0.14613
-0.130925
0.138983
-0.115072
0.1303