/*--------------------------------*- C++ -*----------------------------------*\
| =========                 |                                                 |
| \\      /  F ield         | OpenFOAM: The Open Source CFD Toolbox           |
|  \\    /   O peration     | Version:  2512                                  |
|   \\  /    A nd           | Website:  www.openfoam.com                      |
|    \\/     M anipulation  |                                                 |
\*---------------------------------------------------------------------------*/
FoamFile
{
    version     2.0;
    format      ascii;
    arch        "LSB;label=32;scalar=64";
    class       volVectorField;
    location    "72.75";
    object      U;
}
// * * * * * * * * * * * * * * * * * * * * * * * * * * * * * * * * * * * * * //

dimensions      [0 1 -1 0 0 0 0];

internalField   nonuniform List<vector> 
13248
(
(-0.0130753 0.0115752 6.79386e-20)
(-0.0253101 0.0245021 0)
(-0.0241775 0.0313269 -1.28265e-19)
(-0.00992601 0.0343272 1.20828e-19)
(0.0172933 0.035145 1.12797e-19)
(0.0573414 0.0349692 0)
(0.110016 0.0346711 0)
(0.17492 0.0348909 2.69005e-19)
(0.251305 0.036074 -1.61112e-21)
(0.33793 0.0384814 -2.34478e-19)
(0.432978 0.0421856 2.17666e-19)
(0.534057 0.0470689 -1.36008e-19)
(0.638294 0.052834 0)
(0.742513 0.0590337 -2.37614e-19)
(0.843457 0.0651163 4.45758e-19)
(0.938036 0.0704845 -1.05625e-19)
(1.02355 0.0745642 -1.9503e-19)
(1.09789 0.0768385 1.83087e-19)
(1.15969 0.077009 0)
(1.20833 0.0745719 0)
(1.24415 0.0703829 0)
(1.2677 0.0614867 0)
(1.28107 0.0560398 5.98686e-20)
(1.28507 0.0326266 2.23697e-19)
(-0.0133798 0.0106467 -2.05233e-19)
(-0.0217181 0.0206522 1.39956e-19)
(-0.0126695 0.0248122 -1.36532e-21)
(0.0128613 0.0257361 -1.84771e-19)
(0.0543385 0.0253134 -1.12675e-19)
(0.111253 0.0249188 -1.06515e-19)
(0.182843 0.0255113 -1.94575e-19)
(0.267853 0.0277151 1.8434e-19)
(0.36434 0.0318547 0)
(0.469579 0.0379633 7.97969e-22)
(0.58014 0.0457922 1.92563e-21)
(0.6921 0.0548427 1.36665e-19)
(0.801365 0.0644269 0)
(0.904042 0.0737531 0)
(0.996782 0.0820236 1.64359e-19)
(1.07705 0.0885307 -3.08814e-19)
(1.14331 0.0927349 1.88707e-19)
(1.19508 0.0943155 -1.77165e-19)
(1.23286 0.0931837 -7.94884e-20)
(1.25804 0.0894627 -1.4839e-19)
(1.27249 0.0835028 -6.3733e-20)
(1.27867 0.0754268 -1.20954e-19)
(1.27821 0.067392 1.73711e-19)
(1.27473 0.0546749 5.06217e-20)
(-0.0125896 0.0091542 0)
(-0.0144284 0.0158739 0)
(0.0056448 0.0178058 6.53581e-20)
(0.0459026 0.0176175 6.00453e-20)
(0.105158 0.017302 -1.67251e-21)
(0.182112 0.0183172 -1.10538e-19)
(0.274861 0.0215821 0)
(0.380608 0.0275339 -9.15479e-20)
(0.495563 0.0361629 8.63039e-20)
(0.615091 0.0470467 9.9063e-22)
(0.734092 0.0594196 -1.47167e-19)
(0.847525 0.0722885 -1.35564e-19)
(0.950944 0.0845792 1.77754e-21)
(1.04094 0.0952891 -1.14353e-19)
(1.11541 0.103617 2.72586e-19)
(1.17367 0.10905 0)
(1.21633 0.1114 -1.82051e-19)
(1.24505 0.11077 8.80715e-20)
(1.26223 0.107533 7.9423e-20)
(1.27048 0.102097 0)
(1.27243 0.0953085 6.68569e-20)
(1.27016 0.0868811 -2.3256e-19)
(1.26524 0.0797907 2.18317e-19)
(1.25988 0.067945 1.40751e-19)
(-0.0102713 0.00707418 -7.29253e-20)
(-0.00241123 0.010224 -7.54828e-20)
(0.0321104 0.0105419 6.80457e-20)
(0.0905285 0.0104577 0)
(0.170595 0.0118702 0)
(0.269612 0.0161316 -2.69264e-21)
(0.383797 0.0238824 0)
(0.508133 0.0350875 -2.81563e-19)
(0.6366 0.0491169 2.61532e-19)
(0.762766 0.064877 -3.22559e-19)
(0.880561 0.0810072 7.38145e-20)
(0.985015 0.0961139 0)
(1.07279 0.108992 1.24378e-19)
(1.14239 0.118789 -2.31021e-19)
(1.19411 0.125078 5.48748e-20)
(1.22969 0.127858 1.43897e-19)
(1.25182 0.127462 -4.76879e-21)
(1.26358 0.124445 -1.61209e-19)
(1.268 0.119435 0)
(1.26761 0.113051 0)
(1.2643 0.10585 -5.96034e-20)
(1.2593 0.0979944 5.39967e-20)
(1.25337 0.0910184 1.97713e-19)
(1.24735 0.0808473 -1.85604e-19)
(-0.00601985 0.00452678 -7.7223e-20)
(0.0152709 0.00410049 -7.68061e-20)
(0.0678256 0.00372384 2.15901e-19)
(0.147528 0.00527013 -1.30694e-19)
(0.250483 0.0102691 1.23018e-19)
(0.371822 0.0196625 2.22891e-19)
(0.505164 0.0334518 -1.57685e-19)
(0.642898 0.0507757 -1.91908e-19)
(0.777023 0.0701397 3.77806e-21)
(0.900247 0.0897342 2.44878e-19)
(1.00698 0.107788 0)
(1.09395 0.122875 6.79484e-20)
(1.16032 0.134109 0)
(1.20735 0.141191 -1.11951e-19)
(1.23783 0.144333 1.57504e-19)
(1.25528 0.144103 1.47286e-21)
(1.26332 0.141237 -4.20173e-20)
(1.26508 0.136474 7.94454e-20)
(1.26301 0.130458 6.89446e-20)
(1.25877 0.12367 -6.23772e-20)
(1.25336 0.116495 5.95907e-20)
(1.24734 0.109008 -5.39847e-20)
(1.24095 0.102154 0)
(1.23478 0.0930423 -4.13721e-20)
(0.000533244 0.00175318 7.7212e-20)
(0.0393847 -0.00177729 8.1248e-20)
(0.11348 -0.0014991 -7.23947e-20)
(0.216892 0.00352806 1.34897e-19)
(0.343332 0.0140759 -1.26967e-19)
(0.484988 0.0302381 1.14655e-19)
(0.632474 0.0509444 -5.51726e-20)
(0.775908 0.0742178 1.4411e-19)
(0.906432 0.0976775 -9.0839e-20)
(1.01756 0.119068 1.61232e-19)
(1.10592 0.136681 -3.72628e-19)
(1.17122 0.149578 1.37281e-19)
(1.21563 0.157596 -1.20774e-19)
(1.24289 0.161179 1.13443e-19)
(1.25725 0.161129 9.89776e-20)
(1.26273 0.158362 8.76983e-20)
(1.26261 0.15372 -2.44291e-19)
(1.25926 0.147875 1.51975e-19)
(1.25421 0.141308 -6.89486e-20)
(1.24836 0.134344 1.81594e-19)
(1.24216 0.127187 -5.86148e-20)
(1.23583 0.119942 -1.44841e-19)
(1.22947 0.113083 1.3407e-19)
(1.22327 0.104744 4.13596e-20)
(0.00970554 -0.000908105 0)
(0.0704269 -0.00644183 7.92445e-22)
(0.169152 -0.00368307 1.52165e-19)
(0.297542 0.00690045 -1.42612e-19)
(0.446128 0.0247967 -1.28439e-19)
(0.603669 0.0487301 2.38666e-19)
(0.758071 0.0762022 -1.10814e-19)
(0.898407 0.104097 1.47605e-19)
(1.0168 0.12949 -3.1316e-21)
(1.10938 0.15025 -8.37951e-20)
(1.17617 0.165314 1.83199e-19)
(1.22015 0.174627 -2.70923e-19)
(1.2459 0.178866 0)
(1.25841 0.179084 -5.36111e-20)
(1.26214 0.176395 -1.43925e-19)
(1.26057 0.171764 4.51884e-20)
(1.2561 0.165924 1.59089e-21)
(1.25025 0.159376 -1.01482e-19)
(1.24384 0.152439 5.50848e-21)
(1.2373 0.145313 1.17829e-19)
(1.23079 0.13812 -5.33187e-20)
(1.22437 0.13095 -2.05668e-20)
(1.21801 0.123982 6.25943e-20)
(1.21179 0.1162 0)
(0.021726 -0.00304004 0)
(0.108503 -0.00877 4.13235e-20)
(0.23412 -0.00129031 -1.99165e-19)
(0.387174 0.0169281 7.23604e-20)
(0.554446 0.0434645 -6.8102e-20)
(0.721426 0.0752138 -6.23194e-20)
(0.874527 0.108178 -1.09944e-19)
(1.00372 0.138486 5.4937e-20)
(1.10402 0.163327 4.76493e-20)
(1.17536 0.181342 0)
(1.22129 0.192515 1.09134e-19)
(1.24725 0.197747 -1.62925e-19)
(1.25903 0.198373 1.21258e-19)
(1.26166 0.195749 5.36396e-20)
(1.25896 0.191014 -4.4314e-20)
(1.2535 0.185004 -3.73602e-20)
(1.24683 0.178271 -3.51465e-20)
(1.2398 0.171155 1.04362e-19)
(1.23279 0.163858 0)
(1.22597 0.156499 5.32482e-20)
(1.21937 0.149158 4.5395e-20)
(1.21295 0.141899 -1.12106e-19)
(1.20667 0.134746 -7.78193e-20)
(1.20049 0.127328 7.17272e-20)
(0.0366813 -0.0041675 -4.4968e-20)
(0.153209 -0.00758749 -1.86381e-21)
(0.306761 0.00709963 4.06162e-20)
(0.482354 0.034733 1.13702e-19)
(0.662985 0.0703847 3.30813e-20)
(0.831927 0.10893 -6.39606e-20)
(0.976078 0.14524 5.82907e-20)
(1.08836 0.175419 -5.10241e-20)
(1.16794 0.197509 9.1659e-20)
(1.21866 0.211372 3.90566e-20)
(1.24679 0.218107 -1.11002e-19)
(1.25903 0.219372 3.27215e-20)
(1.26121 0.216843 5.60683e-20)
(1.25767 0.211905 -2.75641e-20)
(1.2513 0.205556 0)
(1.24378 0.198437 4.14642e-20)
(1.23602 0.190934 7.04767e-20)
(1.22843 0.183263 1.2308e-20)
(1.22116 0.175546 -5.9004e-20)
(1.21424 0.16786 2.47867e-20)
(1.20763 0.16026 0)
(1.20127 0.152776 -1.96654e-20)
(1.19508 0.145383 -1.88956e-20)
(1.18897 0.138136 0)
(0.0544564 -0.00378599 0)
(0.203549 -0.00178331 2.36043e-20)
(0.384583 0.0226003 4.36848e-20)
(0.578858 0.0608312 -1.16256e-19)
(0.76636 0.105101 3.76572e-20)
(0.930017 0.148525 0)
(1.05941 0.185621 5.64539e-20)
(1.15188 0.21333 -7.88527e-20)
(1.211 0.231091 -4.58535e-20)
(1.24377 0.240106 2.06871e-20)
(1.25799 0.242402 -3.32696e-20)
(1.26052 0.240073 8.06936e-20)
(1.2565 0.234857 4.0484e-20)
(1.24932 0.227994 -2.81053e-20)
(1.24093 0.220274 -2.58315e-21)
(1.23237 0.212154 -7.7389e-20)
(1.2241 0.203884 3.5282e-20)
(1.21627 0.195598 -9.65797e-22)
(1.20893 0.187373 0)
(1.20202 0.179259 -2.48127e-20)
(1.19549 0.171291 0)
(1.18923 0.16347 5.65906e-20)
(1.18318 0.155799 -6.74528e-20)
(1.17719 0.148539 3.08102e-20)
(0.0746902 -0.00139985 -1.24074e-20)
(0.257926 0.00957863 -5.96553e-20)
(0.464404 0.0458798 6.79732e-20)
(0.672184 0.0950753 3.98753e-20)
(0.859859 0.146541 -1.90125e-20)
(1.01229 0.192385 3.19766e-20)
(1.1235 0.227768 -1.55103e-20)
(1.19583 0.25118 2.57925e-20)
(1.23663 0.263691 0)
(1.25494 0.267695 5.84476e-20)
(1.25898 0.265826 -2.42173e-21)
(1.25501 0.260321 -4.7163e-20)
(1.24718 0.252783 2.01992e-20)
(1.23794 0.24423 -2.28124e-20)
(1.22852 0.235243 -8.68825e-21)
(1.21947 0.226127 1.0052e-20)
(1.211 0.21704 -7.75039e-21)
(1.20314 0.208062 -4.23111e-20)
(1.19584 0.199243 2.59146e-20)
(1.18905 0.190615 5.30722e-21)
(1.18266 0.182191 4.68581e-21)
(1.17658 0.173959 4.13983e-21)
(1.1707 0.165986 0)
(1.16486 0.158524 0)
(0.0968318 0.00344429 1.24159e-20)
(0.314351 0.0271742 -1.24034e-20)
(0.542805 0.0770813 -2.26725e-20)
(0.758229 0.136705 0)
(0.940024 0.193248 -9.45877e-21)
(1.0771 0.238927 -8.54359e-21)
(1.16895 0.270488 -1.45859e-20)
(1.22254 0.288389 0)
(1.24803 0.295267 0)
(1.25533 0.294408 0)
(1.25227 0.288735 0)
(1.24417 0.2804 0)
(1.23416 0.270774 -1.26804e-20)
(1.22386 0.260638 5.77282e-21)
(1.21399 0.250394 1.00463e-20)
(1.20481 0.240236 4.70645e-21)
(1.19636 0.230256 1.16307e-20)
(1.18861 0.220502 0)
(1.1815 0.211004 -2.79282e-21)
(1.17493 0.201779 -2.69363e-21)
(1.16881 0.192824 -4.69329e-21)
(1.163 0.184132 -4.14646e-21)
(1.15739 0.175837 0)
(1.15183 0.168005 2.97814e-21)
(-0.0015601 0.0152545 7.83032e-21)
(-0.00667164 0.0417452 -8.1111e-21)
(-0.0152727 0.0646023 -1.53377e-20)
(-0.0257258 0.0837381 0)
(-0.0370932 0.0993433 -2.04928e-20)
(-0.0488563 0.111926 6.43667e-21)
(-0.0606167 0.122182 -1.21351e-20)
(-0.0720649 0.130848 0)
(-0.0829737 0.138574 0)
(-0.0931804 0.14585 0)
(-0.102569 0.152982 0)
(-0.111055 0.160094 0)
(-0.118576 0.167164 1.31029e-23)
(-0.125076 0.174057 -8.03746e-21)
(-0.130502 0.180556 1.52576e-20)
(-0.134797 0.186388 2.16435e-20)
(-0.137899 0.191234 6.90527e-21)
(-0.139742 0.194746 0)
(-0.140265 0.196552 6.10865e-21)
(-0.139415 0.19628 -1.7433e-20)
(-0.137153 0.193579 -1.11332e-20)
(-0.133449 0.188124 -1.06072e-20)
(-0.128357 0.179622 0)
(-0.122185 0.167957 0)
(-0.00248437 0.0179758 -2.35284e-20)
(-0.00843728 0.0483723 4.05218e-20)
(-0.0165828 0.0740416 -1.52855e-20)
(-0.0258196 0.0951639 -2.89334e-20)
(-0.0354948 0.112089 4.08861e-20)
(-0.0452346 0.125432 -2.57162e-20)
(-0.05474 0.135974 3.63184e-20)
(-0.0637645 0.144525 2.28035e-20)
(-0.0721109 0.151806 0)
(-0.0796208 0.158373 -2.03878e-20)
(-0.086166 0.164585 -1.62435e-22)
(-0.0916407 0.17061 1.79948e-20)
(-0.0959554 0.176457 2.56112e-20)
(-0.099029 0.182004 3.24152e-20)
(-0.100783 0.187041 -1.49776e-20)
(-0.101137 0.191289 -4.32482e-20)
(-0.100005 0.194423 1.4002e-20)
(-0.097296 0.19609 -5.22688e-20)
(-0.0929115 0.19592 0)
(-0.0867537 0.19355 1.16803e-20)
(-0.0787299 0.188652 1.11156e-20)
(-0.0687334 0.180982 1.05902e-20)
(-0.0565892 0.170474 0)
(-0.0423667 0.157488 0)
(-0.00358578 0.0195475 0)
(-0.0106237 0.0524287 8.12679e-20)
(-0.0184029 0.080097 -3.06415e-20)
(-0.0263499 0.102776 2.89068e-20)
(-0.034096 0.120838 -8.16748e-20)
(-0.0414184 0.13491 0)
(-0.0481296 0.145785 -4.8356e-20)
(-0.0540618 0.154294 2.27004e-20)
(-0.0590627 0.161192 -4.28494e-20)
(-0.0629919 0.167081 2.01559e-20)
(-0.065718 0.172371 1.14735e-19)
(-0.0671172 0.177276 -5.39223e-20)
(-0.0670763 0.181848 -8.55923e-20)
(-0.0654881 0.185996 -3.28895e-20)
(-0.0622486 0.189524 -6.62023e-22)
(-0.0572556 0.192166 1.16558e-19)
(-0.0504063 0.193598 -5.50685e-20)
(-0.0415948 0.193461 -2.64727e-22)
(-0.0307119 0.191377 0)
(-0.017652 0.186965 -4.87062e-20)
(-0.00232079 0.179881 0)
(0.0154091 0.169884 -4.528e-20)
(0.0359652 0.157023 1.71612e-19)
(0.0596792 0.14206 2.25779e-21)
(-0.00470329 0.019998 0)
(-0.0129475 0.0538859 9.39499e-23)
(-0.020513 0.0826085 3.07223e-20)
(-0.0272491 0.106253 -2.89084e-20)
(-0.0330222 0.12511 2.72251e-20)
(-0.0377433 0.139743 1.53613e-19)
(-0.0413351 0.150894 -4.81913e-20)
(-0.0437171 0.159364 -4.53071e-20)
(-0.0447972 0.165904 8.54837e-20)
(-0.0444693 0.171134 -1.21178e-19)
(-0.0426176 0.175498 3.783e-20)
(-0.0391102 0.179261 3.58612e-20)
(-0.0338185 0.182517 0)
(-0.0266206 0.185216 3.22747e-20)
(-0.0173894 0.187201 0)
(-0.00600499 0.18823 5.82121e-20)
(0.00764716 0.188002 -1.12258e-19)
(0.0236768 0.186171 2.44411e-20)
(0.0421887 0.182365 1.00872e-19)
(0.0632801 0.176197 4.86498e-20)
(0.0870249 0.167291 0)
(0.113483 0.155346 -1.36896e-19)
(0.143085 0.140379 4.24402e-20)
(0.177922 0.123231 0)
(-0.00571525 0.0194982 0)
(-0.0151814 0.0530118 -9.7857e-20)
(-0.0227299 0.0817714 -3.07228e-20)
(-0.0284613 0.105634 -5.77929e-20)
(-0.0323927 0.124757 5.44161e-20)
(-0.0345335 0.139598 -5.11522e-20)
(-0.0349031 0.150811 9.61254e-20)
(-0.0335092 0.159126 4.53405e-20)
(-0.030331 0.165253 -1.27701e-19)
(-0.0253141 0.169799 8.03467e-20)
(-0.0183725 0.173225 -1.1369e-19)
(-0.00939465 0.175826 2.50089e-19)
(0.00174735 0.177736 -1.34782e-19)
(0.0151867 0.178954 6.38429e-20)
(0.0310602 0.179369 1.83433e-19)
(0.0495015 0.178781 -5.63567e-20)
(0.0706379 0.176926 -5.31717e-20)
(0.0945903 0.173493 -5.22558e-20)
(0.121467 0.168144 0)
(0.151362 0.160515 -9.92056e-20)
(0.184355 0.150227 -9.81435e-20)
(0.220584 0.136932 1.34195e-19)
(0.259386 0.120545 1.77969e-19)
(0.307961 0.101634 -1.67042e-19)
(-0.00656686 0.0183244 0)
(-0.0172035 0.0503122 -1.30896e-19)
(-0.024945 0.0780932 1.61477e-22)
(-0.0299437 0.101306 1.15836e-19)
(-0.0322728 0.119986 0)
(-0.031999 0.134488 0)
(-0.0292165 0.145362 0)
(-0.024013 0.15325 -4.51074e-20)
(-0.0164414 0.158794 -5.13683e-23)
(-0.0065089 0.162561 7.95498e-20)
(0.00582473 0.165001 -1.13427e-19)
(0.0206406 0.16642 -2.56516e-22)
(0.0380514 0.166984 0)
(0.0581909 0.166734 -6.3812e-20)
(0.0812059 0.165601 6.09148e-20)
(0.107248 0.163436 -1.71219e-19)
(0.136465 0.160021 2.20554e-19)
(0.169018 0.155077 5.57165e-20)
(0.205044 0.14832 4.72618e-21)
(0.244648 0.139421 -1.91762e-19)
(0.287787 0.128077 -9.27892e-20)
(0.335456 0.11399 3.17479e-19)
(0.383434 0.0968618 -2.14105e-19)
(0.449391 0.0768291 0)
(-0.00728647 0.016811 6.39231e-20)
(-0.0190186 0.0464432 6.55178e-20)
(-0.0271218 0.0723182 -6.16948e-20)
(-0.0316264 0.0939682 -1.15512e-19)
(-0.0325807 0.111378 1.08759e-19)
(-0.0300728 0.124836 -1.01562e-19)
(-0.0242461 0.134809 1.43132e-19)
(-0.0152502 0.141849 -4.50477e-20)
(-0.00319992 0.14652 8.4018e-20)
(0.0118437 0.149335 0)
(0.02988 0.15071 7.41397e-20)
(0.0509659 0.150945 -1.38936e-19)
(0.0752072 0.150221 1.32891e-19)
(0.102748 0.148607 -1.2481e-19)
(0.133764 0.14607 0)
(0.168444 0.142505 1.13297e-19)
(0.206954 0.137732 2.17714e-19)
(0.249492 0.131551 -2.05159e-19)
(0.296221 0.123709 -9.8515e-20)
(0.347387 0.113968 -9.8902e-20)
(0.402264 0.101963 2.74398e-19)
(0.463849 0.0877946 9.01327e-20)
(0.520839 0.070576 -8.22483e-20)
(0.607159 0.0507112 8.02144e-20)
(-0.00797211 0.0152862 -6.39319e-20)
(-0.0207266 0.0420906 1.97155e-19)
(-0.0292401 0.065301 -6.20378e-20)
(-0.0333175 0.0845351 1.15526e-19)
(-0.0329353 0.0998365 -1.08772e-19)
(-0.028178 0.111495 1.90008e-22)
(-0.0192114 0.119931 4.76547e-20)
(-0.00621485 0.125631 1.7699e-19)
(0.0106679 0.12909 -4.5852e-22)
(0.0313563 0.13076 -7.86375e-20)
(0.0558439 0.131018 0)
(0.0841976 0.130145 -6.90309e-20)
(0.116547 0.128322 1.30203e-19)
(0.153064 0.125633 1.24158e-19)
(0.193955 0.122081 -5.84145e-20)
(0.239432 0.117593 -8.87343e-22)
(0.289691 0.112051 -5.3662e-20)
(0.344842 0.105292 1.00907e-19)
(0.404803 0.0970754 9.85001e-20)
(0.469856 0.0873413 -9.46252e-20)
(0.537924 0.075437 8.89517e-20)
(0.614761 0.0624591 -8.51639e-20)
(0.680007 0.045996 0)
(0.78493 0.0288687 -8.01619e-20)
(-0.00875329 0.0140071 6.42309e-20)
(-0.0224372 0.037835 -6.58896e-20)
(-0.0311785 0.0578521 6.2084e-20)
(-0.034553 0.0739891 0)
(-0.0324587 0.0864761 0)
(-0.0249627 0.0956797 1.00971e-19)
(-0.0122192 0.10203 -9.50476e-20)
(0.00560949 0.105983 8.77606e-20)
(0.0284061 0.107986 -4.13566e-19)
(0.0561265 0.108444 1.89331e-22)
(0.088806 0.107698 7.23958e-20)
(0.126551 0.106008 0)
(0.169515 0.10355 -1.29281e-19)
(0.217868 0.10042 2.43814e-19)
(0.271743 0.0966341 -1.73117e-19)
(0.33119 0.0921388 -2.76628e-19)
(0.396132 0.0868356 -3.44702e-21)
(0.466332 0.0805827 1.96422e-19)
(0.54115 0.0731705 0)
(0.620432 0.0647328 0)
(0.700648 0.0542474 -8.89499e-20)
(0.788567 0.0439426 8.51614e-20)
(0.858916 0.0290936 -3.22604e-19)
(0.970054 0.0171041 3.02264e-19)
(-0.00972876 0.0131005 0)
(-0.0241463 0.0340312 0)
(-0.0325668 0.0505863 -1.86226e-19)
(-0.0344373 0.0632186 5.92969e-20)
(-0.0296079 0.0724586 9.30101e-22)
(-0.0181173 0.0788242 1.02143e-19)
(-7.03327e-05 0.0828098 0)
(0.0244397 0.0848833 -8.82598e-20)
(0.0553716 0.0854763 8.25679e-20)
(0.0927463 0.0849693 -1.53471e-19)
(0.13663 0.0836783 6.27395e-23)
(0.187097 0.0818439 1.35694e-19)
(0.244173 0.0796264 5.181e-22)
(0.307774 0.0771047 1.21865e-19)
(0.377643 0.074277 -1.70472e-19)
(0.453282 0.071076 0)
(0.533921 0.0673787 2.07695e-19)
(0.618509 0.0630291 -2.9408e-19)
(0.705573 0.0577888 9.2491e-20)
(0.793938 0.0517402 0)
(0.879858 0.0438732 8.35411e-20)
(0.96745 0.0365243 3.26159e-19)
(1.03606 0.0239369 -3.06094e-19)
(1.13228 0.0169422 -3.61062e-19)
(-0.0108972 0.0125335 1.94816e-19)
(-0.0256093 0.0307338 -2.67585e-19)
(-0.0326692 0.0438105 8.29439e-22)
(-0.0315699 0.0528688 5.9303e-20)
(-0.022171 0.0588128 -1.09871e-19)
(-0.0044811 0.0623686 -1.01735e-19)
(0.021464 0.0641419 1.88831e-19)
(0.0556495 0.0646506 -1.85819e-21)
(0.0980808 0.0643401 -1.6542e-19)
(0.148747 0.0635823 3.07437e-19)
(0.207558 0.0626683 -3.40376e-22)
(0.274265 0.0618006 -1.35071e-19)
(0.348383 0.0610861 0)
(0.429123 0.0605341 0)
(0.515357 0.060058 -5.6817e-20)
(0.605605 0.0594863 -1.06427e-19)
(0.698078 0.058584 -2.04083e-19)
(0.790726 0.0570488 1.91562e-19)
(0.88135 0.054626 -9.25327e-20)
(0.967796 0.0509609 1.73817e-19)
(1.04743 0.0458229 -8.23943e-20)
(1.12056 0.0397136 1.56153e-19)
(1.17739 0.0296037 -3.61805e-19)
(1.24193 0.0240739 7.04997e-20)
(-0.0121114 0.0121168 6.55812e-20)
(-0.0262732 0.0276991 0)
(-0.0303555 0.0374942 1.26428e-19)
(-0.024113 0.0432592 -1.191e-19)
(-0.0074919 0.0462881 1.09973e-19)
(0.019497 0.0475429 0)
(0.0568359 0.0477637 0)
(0.104476 0.0475366 -8.82416e-20)
(0.162265 0.0473254 1.43636e-21)
(0.229845 0.0474782 7.78683e-20)
(0.306545 0.0482237 -7.19404e-20)
(0.391298 0.0496622 1.3526e-19)
(0.482593 0.0517611 0)
(0.578489 0.0543574 2.38789e-19)
(0.67668 0.0571718 -4.4922e-19)
(0.774607 0.0598314 3.1775e-19)
(0.869614 0.061917 1.99989e-19)
(0.959094 0.0629473 -1.87728e-19)
(1.04073 0.0626341 0)
(1.11245 0.0602392 0)
(1.17307 0.056489 0)
(1.22172 0.0491477 0)
(1.2576 0.0415815 7.05778e-20)
(1.28808 0.031114 -2.54151e-19)
(-0.114231 0.150965 -6.77807e-21)
(-0.1054 0.122525 6.82181e-21)
(-0.0940346 0.0848063 -2.21601e-22)
(-0.0800119 0.0382504 0)
(-0.0635775 -0.0173162 -6.4912e-21)
(-0.044589 -0.0808682 1.25297e-20)
(-0.0234712 -0.150592 -1.77811e-22)
(-0.0013482 -0.223754 -5.70459e-21)
(0.0212403 -0.296851 0)
(0.0429817 -0.366062 0)
(0.0614256 -0.427834 -2.63441e-22)
(0.0747932 -0.479442 -2.26677e-22)
(0.0821577 -0.518905 -3.07947e-21)
(0.0847896 -0.544627 2.80556e-21)
(0.0870942 -0.552707 0)
(0.0964456 -0.536426 0)
(0.120253 -0.487777 2.21121e-21)
(0.162507 -0.401561 1.3106e-22)
(0.220781 -0.27981 -2.0854e-21)
(0.28925 -0.131254 -1.32435e-22)
(0.362449 0.0316311 0)
(0.436179 0.19166 0)
(0.5054 0.327888 0)
(0.563729 0.425156 0)
(0.606549 0.480166 0)
(0.634064 0.499285 0)
(0.645979 0.498353 2.78965e-22)
(0.635437 0.500795 -4.52455e-22)
(0.59968 0.516596 0)
(0.555444 0.519232 0)
(0.533525 0.458382 -5.32585e-22)
(0.552059 0.308365 5.17603e-22)
(0.603669 0.0967674 3.17723e-22)
(0.669381 -0.116538 0)
(0.729359 -0.283539 0)
(0.771236 -0.387087 3.29268e-22)
(0.79572 -0.430174 -3.2006e-22)
(0.807634 -0.435541 0)
(0.795836 -0.440231 1.88431e-22)
(0.753031 -0.459813 -2.69708e-22)
(0.695657 -0.45102 9.29954e-23)
(0.65968 -0.357281 0)
(0.663077 -0.173132 -2.63396e-22)
(0.697151 0.0384662 2.56123e-22)
(0.744383 0.207241 0)
(0.790735 0.313203 0)
(0.807212 0.373282 -6.55822e-23)
(0.78597 0.425121 1.8423e-22)
(0.735291 0.423774 0)
(0.69757 0.353265 0)
(0.699608 0.172773 -6.51718e-23)
(0.731819 -0.0131153 -1.07245e-23)
(0.773812 -0.179503 -8.82088e-24)
(0.783668 -0.300582 3.93942e-23)
(0.760025 -0.360131 0)
(0.735235 -0.4036 0)
(0.708762 -0.256265 0)
(0.714659 -0.172584 0)
(0.727294 0.0676266 0)
(0.711007 0.197014 0)
(-0.0254932 0.140122 -7.02249e-22)
(-0.0112945 0.110218 -3.01159e-20)
(0.00594332 0.0705209 -3.38408e-22)
(0.0259225 0.0215542 2.85582e-20)
(0.047627 -0.0360561 4.61975e-22)
(0.0710429 -0.101299 0)
(0.0955586 -0.172284 -2.54108e-20)
(0.120213 -0.245945 4.89886e-20)
(0.143845 -0.318009 -2.35674e-20)
(0.164744 -0.38465 1.90294e-20)
(0.180515 -0.441872 -1.82327e-20)
(0.188648 -0.487176 1.36684e-20)
(0.187044 -0.519968 -1.33287e-20)
(0.175293 -0.54085 -3.2243e-22)
(0.156373 -0.549029 -8.51913e-21)
(0.138019 -0.539803 8.27949e-21)
(0.130609 -0.504025 -7.45345e-21)
(0.143386 -0.432327 7.03933e-21)
(0.178913 -0.321917 -7.83137e-21)
(0.232979 -0.179687 1.53189e-20)
(0.299125 -0.0197121 -7.48496e-21)
(0.371251 0.140829 -3.88716e-22)
(0.443236 0.282223 -5.52992e-21)
(0.508295 0.388834 9.88748e-21)
(0.56108 0.454922 -4.38634e-21)
(0.599389 0.485356 1.98115e-22)
(0.61899 0.497082 3.08899e-21)
(0.612696 0.512554 2.2907e-22)
(0.582941 0.535669 -6.34577e-21)
(0.551462 0.534059 7.29192e-21)
(0.547172 0.459468 -3.89176e-21)
(0.581014 0.294366 6.58234e-22)
(0.6419 0.0729679 -3.1836e-22)
(0.710424 -0.142956 6.42802e-22)
(0.767958 -0.305077 0)
(0.803339 -0.400593 0)
(0.818243 -0.436895 -1.0386e-21)
(0.82196 -0.435046 7.88887e-22)
(0.806353 -0.429921 5.27419e-22)
(0.761945 -0.441562 8.93678e-23)
(0.699952 -0.433779 -7.621e-22)
(0.655821 -0.350541 1.88837e-22)
(0.651584 -0.179119 0)
(0.683276 0.0240283 0)
(0.732664 0.19105 0)
(0.782104 0.302734 0)
(0.801085 0.373272 2.63557e-22)
(0.780659 0.434462 -1.20566e-22)
(0.733377 0.435476 0)
(0.697875 0.358691 0)
(0.704073 0.169225 0)
(0.736755 -0.0220124 -1.29254e-22)
(0.780601 -0.185525 8.513e-24)
(0.791172 -0.299246 -8.58832e-23)
(0.765557 -0.35493 0)
(0.74285 -0.39817 0)
(0.713655 -0.254602 2.78646e-23)
(0.720999 -0.174035 5.49748e-23)
(0.727841 0.0683766 0)
(0.707911 0.198468 0)
(0.0842651 0.124124 2.66899e-21)
(0.10479 0.0941556 -6.23291e-20)
(0.127024 0.0539385 6.47461e-20)
(0.151952 0.00394428 -6.05168e-20)
(0.178321 -0.054375 -4.65056e-22)
(0.205368 -0.120095 0)
(0.232463 -0.191132 -5.57367e-20)
(0.258611 -0.264161 5.46024e-20)
(0.282413 -0.334868 3.63687e-22)
(0.302047 -0.398663 6.70684e-22)
(0.315256 -0.451206 5.75588e-22)
(0.319553 -0.489626 4.74112e-22)
(0.312506 -0.513726 -2.31312e-20)
(0.292233 -0.526101 2.28054e-20)
(0.258878 -0.52971 0)
(0.217879 -0.523699 4.00234e-22)
(0.180199 -0.500273 -1.20251e-20)
(0.159526 -0.447082 1.18908e-20)
(0.165275 -0.354971 0)
(0.197972 -0.225617 0)
(0.251533 -0.0721716 -1.19472e-20)
(0.318224 0.0865774 2.26021e-20)
(0.39013 0.231528 -1.94854e-20)
(0.4596 0.346352 1.43175e-21)
(0.520313 0.423471 1.38915e-20)
(0.567129 0.466696 -1.25837e-20)
(0.592837 0.492734 1.13389e-20)
(0.591529 0.521113 1.77155e-22)
(0.57046 0.549781 -6.06556e-21)
(0.554049 0.543003 0)
(0.567529 0.456393 0)
(0.615858 0.279662 4.35251e-21)
(0.684879 0.0516266 -5.55837e-21)
(0.754642 -0.16512 3.72689e-23)
(0.808461 -0.321928 3.89271e-21)
(0.836989 -0.409582 -3.78288e-21)
(0.842423 -0.440039 0)
(0.837686 -0.43275 2.21561e-22)
(0.818326 -0.419077 1.48865e-21)
(0.77311 -0.422833 -2.77248e-21)
(0.70773 -0.415689 1.18198e-21)
(0.656284 -0.343174 1.27288e-22)
(0.64432 -0.185553 -1.92341e-21)
(0.673083 0.00812475 1.52384e-21)
(0.723815 0.173163 3.11478e-22)
(0.77557 0.290969 2.73485e-22)
(0.796741 0.372364 -2.64238e-22)
(0.777297 0.443092 0)
(0.733901 0.446773 0)
(0.701138 0.364186 -1.3363e-21)
(0.711225 0.166276 6.52258e-22)
(0.743938 -0.0303677 -6.62776e-22)
(0.789036 -0.191294 7.83171e-22)
(0.800274 -0.297557 7.13578e-22)
(0.772489 -0.349513 -1.59569e-22)
(0.751225 -0.392893 1.73209e-22)
(0.719363 -0.252999 -1.05506e-22)
(0.72796 -0.175279 8.55082e-24)
(0.729484 0.0698169 0)
(0.705748 0.200316 0)
(0.207187 0.104641 -1.3272e-19)
(0.233322 0.074544 -3.07286e-21)
(0.259659 0.0344047 1.29163e-19)
(0.2888 -0.0150602 -1.00527e-21)
(0.319155 -0.0726606 0)
(0.349288 -0.137572 0)
(0.378462 -0.207582 -1.16544e-19)
(0.405541 -0.279201 5.3021e-21)
(0.428869 -0.347948 1.51562e-19)
(0.446474 -0.408801 -5.58374e-21)
(0.456308 -0.456936 -4.0701e-20)
(0.456452 -0.488997 -2.74616e-20)
(0.445054 -0.504412 2.76262e-20)
(0.420292 -0.506341 0)
(0.380426 -0.500474 -1.37731e-20)
(0.326629 -0.490965 1.26355e-20)
(0.266277 -0.474685 0)
(0.21385 -0.439703 0)
(0.18513 -0.371333 8.44093e-21)
(0.188764 -0.263089 3.92011e-22)
(0.222673 -0.122732 -8.02963e-21)
(0.27891 0.0307824 -8.30354e-21)
(0.347291 0.17701 8.1662e-21)
(0.418323 0.298716 -6.48389e-21)
(0.484097 0.386762 6.58251e-22)
(0.536642 0.4437 5.4535e-21)
(0.567215 0.484555 6.56691e-22)
(0.572068 0.524757 2.05208e-23)
(0.562121 0.557305 0)
(0.562247 0.54545 9.11034e-21)
(0.593099 0.449593 -9.47921e-21)
(0.654789 0.265346 7.12214e-22)
(0.731029 0.0333594 0)
(0.801261 -0.182839 -6.87961e-22)
(0.850328 -0.334532 8.12382e-21)
(0.871743 -0.414706 -1.29729e-20)
(0.868063 -0.439934 9.17221e-22)
(0.854679 -0.428858 1.01732e-21)
(0.831388 -0.408194 2.70166e-21)
(0.78602 -0.404078 2.84498e-22)
(0.718667 -0.396676 -2.20539e-21)
(0.661115 -0.334723 1.82486e-21)
(0.641562 -0.191999 6.59878e-23)
(0.666713 -0.00883787 1.23841e-21)
(0.717819 0.153855 -1.5166e-21)
(0.771079 0.277972 -1.78721e-21)
(0.794126 0.370431 5.20746e-22)
(0.77589 0.450802 1.08757e-21)
(0.736853 0.457502 -2.34598e-21)
(0.707404 0.369849 1.92047e-21)
(0.721084 0.164107 -6.81107e-22)
(0.753377 -0.0380077 8.32433e-22)
(0.799045 -0.196816 7.00832e-22)
(0.810831 -0.295601 -1.13259e-21)
(0.780793 -0.343845 6.10918e-23)
(0.760214 -0.38766 -1.46605e-22)
(0.725686 -0.2514 0)
(0.735403 -0.176347 -3.94575e-23)
(0.732091 0.0718999 -1.79077e-23)
(0.704499 0.202568 0)
(0.339005 0.0829311 1.35685e-19)
(0.369137 0.0523735 -2.70282e-19)
(0.399077 0.0122885 1.32627e-19)
(0.431536 -0.0351986 1.34838e-19)
(0.464912 -0.0907116 -2.63512e-19)
(0.497404 -0.15346 2.7164e-21)
(0.528073 -0.221065 1.23423e-19)
(0.55546 -0.289956 1.0865e-19)
(0.577591 -0.355594 -1.06387e-19)
(0.592309 -0.412792 0)
(0.597599 -0.45656 -7.01119e-20)
(0.592032 -0.483457 1.24762e-19)
(0.574883 -0.492542 -5.50431e-20)
(0.545819 -0.486103 0)
(0.503685 -0.469851 0)
(0.44688 -0.451229 3.49274e-22)
(0.376705 -0.433574 -1.36838e-20)
(0.302527 -0.410192 1.3295e-20)
(0.241519 -0.365273 0)
(0.210621 -0.284319 1.08146e-20)
(0.21654 -0.165655 -2.11973e-20)
(0.254929 -0.0234047 2.13455e-20)
(0.314741 0.12037 -2.08818e-20)
(0.383713 0.2471 4.70282e-22)
(0.451209 0.345484 1.8174e-20)
(0.506913 0.41616 -8.90701e-21)
(0.541789 0.471319 -3.14064e-22)
(0.554298 0.521868 -5.58621e-21)
(0.557508 0.557193 -1.58406e-21)
(0.574901 0.541435 7.13465e-21)
(0.622265 0.439868 6.35763e-22)
(0.695949 0.251774 -1.26002e-20)
(0.7787 0.0186612 2.46085e-20)
(0.849128 -0.195775 -1.34898e-20)
(0.89282 -0.342546 0)
(0.906875 -0.415854 -6.93924e-21)
(0.894665 -0.436504 6.51105e-21)
(0.872743 -0.423225 -2.5899e-21)
(0.845371 -0.397402 3.25139e-21)
(0.80039 -0.385819 -2.25665e-22)
(0.732383 -0.377269 0)
(0.670057 -0.325254 -2.0754e-22)
(0.643323 -0.198094 7.59275e-22)
(0.664188 -0.026512 0)
(0.714587 0.133369 2.35869e-21)
(0.768502 0.263734 -9.44738e-22)
(0.793123 0.367278 4.77604e-22)
(0.776374 0.457335 4.97643e-22)
(0.742131 0.467489 0)
(0.716557 0.375731 0)
(0.733559 0.162802 -2.43132e-21)
(0.765068 -0.0447839 3.75398e-21)
(0.810554 -0.202009 -1.96357e-21)
(0.82268 -0.293365 5.56477e-22)
(0.790435 -0.337832 6.77907e-22)
(0.769723 -0.382371 1.46742e-22)
(0.732471 -0.249779 -7.59595e-23)
(0.743204 -0.177277 0)
(0.735517 0.0745709 9.43819e-24)
(0.704138 0.205221 1.50027e-23)
(0.480038 0.0589122 1.36435e-19)
(0.511377 0.0283908 -1.35805e-19)
(0.544339 -0.0101118 1.07004e-21)
(0.579402 -0.0550764 -1.03972e-21)
(0.613965 -0.107852 1.04252e-21)
(0.647348 -0.167331 -1.00851e-21)
(0.678199 -0.231169 1.87452e-21)
(0.704558 -0.295877 0)
(0.72408 -0.357043 -1.5751e-21)
(0.734475 -0.409598 1.38274e-21)
(0.733894 -0.448738 1.17389e-21)
(0.721392 -0.471199 -9.81825e-22)
(0.69714 -0.476034 0)
(0.662241 -0.464822 0)
(0.617527 -0.441698 4.08056e-22)
(0.562037 -0.413623 0)
(0.493302 -0.387969 -1.71531e-22)
(0.412575 -0.365891 0)
(0.330855 -0.33685 -4.80187e-21)
(0.267402 -0.283177 9.13021e-21)
(0.239047 -0.193092 -9.38532e-21)
(0.250412 -0.0707605 4.84187e-21)
(0.293773 0.064867 5.61417e-21)
(0.355225 0.193212 -5.45216e-21)
(0.42059 0.3002 -6.47931e-21)
(0.477398 0.383667 6.30799e-21)
(0.516642 0.451906 0)
(0.538329 0.511328 2.63136e-22)
(0.556135 0.54904 0)
(0.590777 0.53135 0)
(0.653113 0.427844 2.18032e-20)
(0.737291 0.239416 -2.2398e-20)
(0.826327 0.00773537 1.62741e-21)
(0.897212 -0.203852 1.49322e-21)
(0.935265 -0.34595 -1.21502e-21)
(0.941767 -0.413297 -6.15127e-21)
(0.921769 -0.429999 5.97276e-21)
(0.891666 -0.415852 -3.35421e-21)
(0.859994 -0.386814 2.83887e-21)
(0.8158 -0.368415 4.28764e-22)
(0.748362 -0.357791 -1.46183e-21)
(0.682607 -0.314777 -2.72723e-22)
(0.649301 -0.203439 1.065e-21)
(0.665316 -0.0444832 0)
(0.713933 0.11192 -7.98074e-22)
(0.767647 0.24821 1.25156e-21)
(0.793563 0.362663 -1.63463e-21)
(0.778603 0.462433 -5.00835e-22)
(0.74952 0.476563 0)
(0.728309 0.381768 9.16027e-22)
(0.74845 0.162648 -1.70331e-21)
(0.778935 -0.0504698 5.64391e-23)
(0.823471 -0.206758 -6.92482e-22)
(0.835631 -0.290861 7.4194e-22)
(0.801349 -0.331407 -6.945e-22)
(0.779681 -0.376896 0)
(0.739598 -0.248103 7.5994e-23)
(0.751246 -0.178107 0)
(0.739606 0.0777647 0)
(0.704641 0.208257 -1.75155e-23)
(0.634622 0.0339158 -1.35972e-19)
(0.664841 0.0047344 1.34417e-19)
(0.697867 -0.0309732 -1.03264e-21)
(0.732221 -0.0733829 1.06442e-21)
(0.765717 -0.122599 0)