/*--------------------------------*- C++ -*----------------------------------*\
| =========                 |                                                 |
| \\      /  F ield         | OpenFOAM: The Open Source CFD Toolbox           |
|  \\    /   O peration     | Version:  2512                                  |
|   \\  /    A nd           | Website:  www.openfoam.com                      |
|    \\/     M anipulation  |                                                 |
\*---------------------------------------------------------------------------*/
FoamFile
{
    version     2.0;
    format      ascii;
    arch        "LSB;label=32;scalar=64";
    class       surfaceScalarField;
    location    "182";
    object      phi;
}
// * * * * * * * * * * * * * * * * * * * * * * * * * * * * * * * * * * * * * //

dimensions      [0 3 -1 0 0 0 0];

oriented        oriented;

internalField   nonuniform List<scalar> 
26232
(
-5.58208e-05
0.0010178
-0.000961979
6.71956e-05
0.00194115
-0.00206416
0.000607509
0.00194431
-0.00248463
0.00178046
0.00108023
-0.00225319
0.00379019
-0.00064008
-0.00136965
0.00683116
-0.00322588
0.000184915
0.0110841
-0.00669029
0.00243737
0.0166998
-0.0110347
0.0054189
0.0237831
-0.0162324
0.00914913
0.0323716
-0.0222184
0.0136299
0.0424191
-0.0288846
0.0188371
0.0537857
-0.0360833
0.0247168
0.0662382
-0.0436364
0.0311838
0.0794619
-0.0513491
0.0381254
0.093082
-0.0590264
0.0454062
0.106694
-0.0664888
0.0528773
0.119895
-0.0735859
0.0603842
0.132324
-0.0802085
0.0677797
0.143693
-0.0862924
0.0749235
0.153799
-0.0918366
0.0817307
0.162572
-0.0968389
0.0880653
0.169964
-0.101497
0.0941056
0.175937
-0.105451
0.0994778
-0.109919
0.105475
0.180381
2.46381e-05
0.000993161
0.000382469
0.00158332
0.00132934
0.000997444
0.00310324
-0.000693666
0.00592831
-0.00346515
0.0100061
-0.00730363
0.0154977
-0.0121819
0.0224996
-0.0180366
0.0310192
-0.024752
0.0409571
-0.0321563
0.0521021
-0.0400296
0.0641419
-0.0481232
0.0766896
-0.056184
0.0893205
-0.06398
0.101616
-0.0713219
0.113206
-0.0780789
0.123806
-0.0841861
0.133242
-0.0896444
0.141462
-0.094512
0.148515
-0.0988899
0.15457
-0.102893
0.159747
-0.106674
0.164485
-0.11019
-0.114071
0.168636
0.000124659
0.000868502
0.000775387
0.00093259
0.00221949
-0.000446661
0.00470756
-0.00318174
0.00846382
-0.00722141
0.0136632
-0.012503
0.0204003
-0.018919
0.0286592
-0.0262955
0.0382941
-0.0343868
0.0490295
-0.0428917
0.060484
-0.0514841
0.0722131
-0.0598523
0.0837635
-0.0677343
0.0947277
-0.0749442
0.104791
-0.0813854
0.113762
-0.0870502
0.121583
-0.0920065
0.128315
-0.0963763
0.13411
-0.100308
0.139172
-0.103952
0.143706
-0.107427
0.14789
-0.110857
0.151883
-0.114183
-0.117847
0.155659
0.000238831
0.000629671
0.0012248
-5.33819e-05
0.00323015
-0.00245201
0.00650092
-0.00645251
0.0112308
-0.0119513
0.0175224
-0.0187946
0.0253488
-0.0267454
0.0345296
-0.0354763
0.0447363
-0.0445936
0.0555293
-0.0536847
0.066419
-0.0623738
0.0769367
-0.0703701
0.0866993
-0.0774969
0.0954535
-0.0836984
0.103094
-0.089026
0.109653
-0.0936095
0.115269
-0.0976217
0.120135
-0.101243
0.12446
-0.104632
0.128423
-0.107915
0.132169
-0.111173
0.135775
-0.114464
0.139348
-0.117756
-0.121327
0.142828
0.00036479
0.000264881
0.00171748
-0.00140607
0.00432299
-0.00505752
0.00839685
-0.0105264
0.0140607
-0.0176151
0.0212923
-0.0260262
0.0298934
-0.0353465
0.0394957
-0.0450786
0.04961
-0.0547079
0.0597071
-0.0637818
0.0693055
-0.0719722
0.0780437
-0.0791083
0.08572
-0.0851731
0.0922951
-0.0902735
0.0978633
-0.0945941
0.102603
-0.0983489
0.106722
-0.101741
0.110417
-0.104937
0.113843
-0.108058
0.11711
-0.111182
0.120289
-0.114352
0.123418
-0.117592
0.126546
-0.120884
-0.124383
0.129602
0.000502653
-0.000237772
0.0022446
-0.00314802
0.00546193
-0.00827485
0.0103037
-0.0153681
0.0167703
-0.0240817
0.0246667
-0.0339227
0.0336015
-0.0442812
0.043044
-0.0545211
0.0524246
-0.0640886
0.0612415
-0.0725987
0.0691416
-0.0798722
0.0759558
-0.0859225
0.0816885
-0.0909058
0.0864717
-0.0950568
0.0905049
-0.0986274
0.0939991
-0.101843
0.0971376
-0.10488
0.100059
-0.107859
0.102857
-0.110856
0.105588
-0.113914
0.108287
-0.117051
0.110971
-0.120276
0.113664
-0.123578
-0.127037
0.116319
0.000651851
-0.000889623
0.002793
-0.00528916
0.00659914
-0.012081
0.0121085
-0.0208775
0.0191539
-0.0311271
0.0273431
-0.0421118
0.0361147
-0.0530528
0.0448548
-0.0632612
0.053026
-0.0722598
0.0602621
-0.0798348
0.0664034
-0.0860135
0.0714752
-0.0909943
0.0756298
-0.0950604
0.0790777
-0.0985046
0.0820298
-0.101579
0.0846623
-0.104475
0.0871034
-0.107321
0.0894369
-0.110192
0.091713
-0.113132
0.0939596
-0.11616
0.0961921
-0.119284
0.098418
-0.122502
0.100649
-0.125809
-0.129235
0.102848
0.000808839
-0.00169846
0.00333983
-0.00782015
0.00766878
-0.0164099
0.0136784
-0.0268871
0.0210045
-0.0384532
0.0290726
-0.05018
0.0372227
-0.0612029
0.0448627
-0.0709012
0.0515863
-0.0789834
0.0572155
-0.085464
0.061775
-0.090573
0.0654237
-0.094643
0.0683781
-0.0980148
0.0708512
-0.100978
0.0730171
-0.103745
0.0750001
-0.106458
0.0768797
-0.1092
0.0787022
-0.112015
0.0804931
-0.114923
0.0822659
-0.117933
0.0840282
-0.121046
0.0857845
-0.124258
0.0875409
-0.127565
-0.13097
0.0892751
0.000966407
-0.00266487
0.00385244
-0.0107062
0.00859222
-0.0211497
0.0148787
-0.0331736
0.0221529
-0.0457274
0.0297148
-0.0577419
0.0369011
-0.0683891
0.0432343
-0.0772345
0.0484875
-0.0842365
0.0526607
-0.0896373
0.0559068
-0.0938191
0.0584448
-0.0971811
0.0604925
-0.100062
0.0622271
-0.102712
0.0637744
-0.105293
0.0652136
-0.107898
0.0665903
-0.110577
0.0679288
-0.113353
0.0692422
-0.116237
0.0705377
-0.119229
0.0718197
-0.122328
0.0730911
-0.125529
0.0743545
-0.128829
-0.132213
0.075598
0.0011145
-0.00377937
0.00429277
-0.0138845
0.00929112
-0.0261481
0.0156004
-0.0394829
0.0225038
-0.0526308
0.0292586
-0.0644967
0.0352866
-0.0744171
0.0402757
-0.0822235
0.0441733
-0.0881341
0.0471098
-0.0925738
0.0493017
-0.096011
0.0509733
-0.0988527
0.0523102
-0.101399
0.0534445
-0.103847
0.054459
-0.106307
0.0554011
-0.10884
0.0562959
-0.111472
0.0571564
-0.114214
0.0579899
-0.11707
0.0588008
-0.12004
0.059592
-0.123119
0.0603657
-0.126303
0.0611229
-0.129586
-0.13295
0.0618601
0.00124229
-0.00502166
0.0046248
-0.017267
0.00970291
-0.0312262
0.0157804
-0.0455604
0.0220476
-0.0588979
0.0278032
-0.0702524
0.0326115
-0.0792254
0.0363314
-0.0859434
0.0390473
-0.09085
0.0409632
-0.0944897
0.0423092
-0.0973571
0.0432833
-0.0998268
0.044029
-0.102145
0.0446371
-0.104455
0.0451594
-0.10683
0.0456231
-0.109304
0.0460421
-0.111891
0.0464239
-0.114596
0.0467733
-0.117419
0.0470933
-0.12036
0.0473861
-0.123412
0.0476528
-0.12657
0.0478928
-0.129826
-0.133164
0.0481064
0.00134263
-0.00636428
0.00482356
-0.0207479
0.00979275
-0.0361954
0.0154099
-0.0511776
0.0208498
-0.0643378
0.0255182
-0.0749208
0.0291415
-0.0828487
0.0317238
-0.0885257
0.0334376
-0.0925638
0.0345132
-0.0955653
0.0351632
-0.098007
0.0355472
-0.100211
0.035769
-0.102367
0.035888
-0.104574
0.0359354
-0.106877
0.0359265
-0.109295
0.0358696
-0.111834
0.0357694
-0.114496
0.0356296
-0.11728
0.0354529
-0.120183
0.0352414
-0.1232
0.034996
-0.126325
0.0347152
-0.129545
0.0344022
-0.132851
-0.000295
-3.92793e-05
0.00033428
-0.00100264
0.000577435
0.000130202
-0.00202285
0.00167249
-0.00065228
-0.0032908
0.00305865
-0.0017907
-0.00476016
0.00459234
-0.00312298
-0.00639419
0.00618781
-0.00455378
-0.00815972
0.00781213
-0.0060466
-0.0100238
0.00947204
-0.00760799
-0.0119521
0.0111972
-0.00926882
-0.0139088
0.0130239
-0.0110673
-0.0158554
0.0149832
-0.0130366
-0.0177504
0.0170934
-0.0151984
-0.0195473
0.0193569
-0.0175599
-0.0211934
0.0217595
-0.0201134
-0.0226282
0.0242701
-0.0228354
-0.0237827
0.0268402
-0.0256857
-0.02458
0.0294031
-0.0286058
-0.024936
0.0318731
-0.0315171
-0.0247621
0.0341462
-0.0343201
-0.023968
0.0361019
-0.036896
-0.0224662
0.0376095
-0.0391113
-0.0201816
0.0385361
-0.0408207
-0.017061
0.0387516
-0.0418722
0.0382156
-0.0131238
-0.0421528
-0.000234083
0.000194804
-0.000791182
0.00113453
-0.00158993
0.00247124
-0.00257546
0.00404418
-0.00370818
0.00572507
-0.00495453
0.00743415
-0.00628049
0.00913809
-0.00764801
0.0108396
-0.00901387
0.012563
-0.01033
0.01434
-0.0115439
0.0161972
-0.0125992
0.0181487
-0.013435
0.0201926
-0.0139851
0.0223096
-0.0141776
0.0244626
-0.0139347
0.0265973
-0.0131737
0.028642
-0.0118092
0.0305086
-0.00975586
0.0320929
-0.00693166
0.0332777
-0.00326006
0.0339379
0.00132857
0.0339475
0.00688056
0.0331996
0.0316674
0.0134287
-0.000162287
0.000357091
-0.000545795
0.00151804
-0.00108574
0.00301119
-0.00173644
0.00469488
-0.00246351
0.00645214
-0.00323564
0.00820628
-0.0040182
0.00992065
-0.00476937
0.0115907
-0.00543893
0.0132326
-0.00596902
0.0148701
-0.00629556
0.0165237
-0.00634922
0.0182023
-0.00605759
0.019901
-0.00534437
0.0215964
-0.00413036
0.0232486
-0.00233444
0.0248014
0.000124315
0.0261833
0.00332535
0.0273076
0.00734272
0.0280755
0.0122416
0.0283788
0.0180764
0.0281031
0.0248873
0.0271366
0.0326998
0.0253872
0.0227324
0.0416348
-9.46304e-05
0.000451721
-0.000310048
0.00173346
-0.00059359
0.00329473
-0.000904306
0.0050056
-0.00120971
0.00675754
-0.00147877
0.00847535
-0.00167651
0.0101184
-0.00175919
0.0116734
-0.00167298
0.0131464
-0.00135453
0.0145516
-0.000732866
0.015902
0.000267483
0.017202
0.0017271
0.0184414
0.00372727
0.0195962
0.00634916
0.0206267
0.00967225
0.0214783
0.0137723
0.0220833
0.0187179
0.022362
0.024568
0.0222254
0.031369
0.0215778
0.039152
0.0203201
0.0479465
0.0183421
0.0577154
0.0156182
0.0117393
0.0687085
-4.27757e-05
0.000494497
-0.00012261
0.00181329
-0.000190197
0.00336231
-0.000203008
0.00501841
-0.000125892
0.00668042
7.36293e-05
0.00827583
0.000432523
0.0097595
0.000994855
0.0111111
0.00181448
0.0123268
0.00295499
0.0134111
0.00448807
0.014369
0.0064914
0.0151987
0.00904472
0.0158881
0.0122285
0.0164125
0.016121
0.0167342
0.0207961
0.0168032
0.0263211
0.0165582
0.0327546
0.0159285
0.0401444
0.0148356
0.0485277
0.0131945
0.0579222
0.0109256
0.0683812
0.007883
0.0797789
0.0042206
-0.00107079
0.0925889
-1.50456e-05
0.000509542
-1.10955e-05
0.00180934
6.79164e-05
0.0032833
0.000272551
0.00481377
0.000645045
0.00630793
0.00122371
0.00769716
0.00204743
0.00893579
0.00316057
0.00999792
0.00461532
0.010872
0.00647225
0.0115542
0.00879934
0.0120419
0.0116698
0.0123282
0.0151596
0.0123983
0.0193445
0.0122275
0.0242984
0.0117803
0.0300908
0.0110107
0.036786
0.00986307
0.0444422
0.00827228
0.0531111
0.00616667
0.0628399
0.00346567
0.0736408
0.000124818
0.0856493
-0.00412559
0.0986574
-0.00878743
-0.0157445
0.113331
-1.41012e-05
0.000523644
1.43589e-05
0.00178088
0.000158368
0.00313929
0.000482134
0.00449001
0.00103872
0.00575134
0.00187414
0.00686174
0.00303226
0.00777767
0.00455924
0.00847094
0.00650657
0.00892469
0.00893243
0.00912834
0.0119017
0.00907262
0.0154847
0.00874515
0.0197558
0.00812722
0.0247916
0.00719175
0.0306698
0.00590214
0.037468
0.00421256
0.0452618
0.00206924
0.0541271
-0.000592998
0.0641381
-0.00384434
0.0753677
-0.0077639
0.0878654
-0.0123729
0.101738
-0.0179981
0.116737
-0.023787
-0.0325246
0.133518
-3.65332e-05
0.000560177
-3.51395e-05
0.00177949
0.000102121
0.00300203
0.000457104
0.00413502
0.00109654
0.0051119
0.00207743
0.00588085
0.00345229
0.00640281
0.00527396
0.00664927
0.00759934
0.00659931
0.0104917
0.00623594
0.014022
0.00554235
0.0182686
0.00449852
0.0233172
0.00307867
0.0292588
0.0012501
0.0361898
-0.0010288
0.0442082
-0.00380589
0.0534114
-0.00713395
0.063889
-0.0110706
0.0757151
-0.0156704
0.0889443
-0.0209931
0.103584
-0.0270125
0.119623
-0.0340371
0.136835
-0.0409996
-0.0510107
0.155322
-7.23569e-05
0.000632534
-0.000125823
0.00183296
-3.30645e-05
0.00290928
0.000308027
0.00379393
0.000981948
0.00443798
0.00206172
0.00480108
0.00361563
0.0048489
0.00571283
0.00455207
0.00842763
0.0038845
0.0118424
0.00282116
0.0160489
0.00133589
0.0211477
-0.000600288
0.0272464
-0.00302002
0.0344557
-0.00595917
0.0428826
-0.00945575
0.0526236
-0.0135469
0.0637548
-0.0182652
0.0763192
-0.023635
0.0903141
-0.0296653
0.105673
-0.0363518
0.122277
-0.043617
0.139837
-0.0515965
0.158239
-0.0594018
-0.0694761
0.176704
-0.000105899
0.000738433
-0.000206687
0.00193374
-0.00014431
0.0028469
0.00020734
0.00344228
0.000955163
0.00369016
0.00219625
0.00356
0.00402505
0.00302009
0.00653915
0.00203797
0.0098428
0.000580855
0.0140478
-0.00138389
0.0192719
-0.00388816
0.0256334
-0.00696181
0.0332439
-0.0106305
0.0421976
-0.0149129
0.0525595
-0.0198176
0.0643526
-0.02534
0.0775461
-0.0314586
0.0920447
-0.0381336
0.107679
-0.0453
0.124207
-0.0528793
0.141321
-0.0607315
0.158542
-0.0688166
0.175738
-0.0765984
-0.0852962
0.191558
-0.000120306
0.000858738
-0.000222384
0.00203582
-0.000118923
0.00274344
0.00034275
0.00298061
0.00129879
0.00273412
0.00287835
0.00198044
0.00521002
0.000688416
0.00842561
-0.00117761
0.0126591
-0.0036526
0.0180417
-0.00676648
0.024693
-0.0105395
0.0327088
-0.0149777
0.0421473
-0.020069
0.0530151
-0.0257807
0.0652554
-0.0320579
0.0787396
-0.0388243
0.0932639
-0.0459829
0.108553
-0.0534225
0.124264
-0.0610115
0.140024
-0.0686389
0.155417
-0.0761249
0.170069
-0.0834681
0.183733
-0.0902624
-0.096989
0.195425
-0.00010324
-0.000131584
0.000127228
0.000854652
0.00221912
0.00438447
0.00751025
0.0117515
0.0172481
0.0241115
0.0324091
0.0421482
0.053263
0.0656077
0.0789561
0.0930091
0.10741
0.121768
0.13568
0.148771
0.160712
0.171349
0.180565
0.189051
-0.0064686
0.0492574
-0.0559125
0.00108016
0.0443455
-0.0518943
0.0094204
0.0363829
-0.0447232
0.0183737
0.0252425
-0.0341958
0.0277078
0.010813
-0.0201472
0.0371036
-0.00671956
-0.00267623
0.0466136
-0.0271429
0.0176329
0.0559627
-0.0498892
0.0405401
0.065011
-0.0737307
0.0646824
0.073514
-0.0967985
0.0882956
0.081026
-0.116865
0.109353
0.0869905
-0.132057
0.126092
0.0908704
-0.141528
0.137648
0.0920637
-0.145818
0.144625
0.0899875
-0.147077
0.149153
0.0849137
-0.148353
0.153426
0.0789179
-0.150691
0.156687
0.0754729
-0.149984
0.153429
0.0773982
-0.137824
0.135899
0.0850333
-0.107273
0.0996382
0.0967279
-0.0584014
0.0467068
0.110201
0.00149927
-0.0149721
0.123417
0.0616978
-0.0749144
0.13458
0.111795
-0.122958
0.142507
0.146749
-0.154676
0.14715
0.167077
-0.17172
0.149193
0.176263
-0.178306
0.148716
0.180135
-0.179658
0.14501
0.187241
-0.183535
0.138395
0.200975
-0.19436
0.13153
0.209666
-0.202801
0.12797
0.19106
-0.1875
0.129475
0.130867
-0.132372
0.135353
0.0399456
-0.0458231
0.14305
-0.0564499
0.0487524
0.150271
-0.132519
0.125298
0.155618
-0.180398
0.175051
0.158144
-0.201714
0.199188
0.156433
-0.213547
0.215258
0.150011
-0.226377
0.232799
0.14123
-0.234374
0.243156
0.134571
-0.217844
0.224502
0.13327
-0.149529
0.150831
0.137723
-0.053653
0.0491997
0.145165
0.0603251
-0.0677668
0.151625
0.138438
-0.144898
0.153003
0.205286
-0.206664
0.148545
0.249714
-0.245257
0.141863
0.270977
-0.264295
0.138231
0.2573
-0.253669
0.140135
0.143629
-0.145533
0.14547
0.0517783
-0.0571131
0.148471
-0.0997301
0.0967288
0.14724
-0.17841
0.17964
0.144239
-0.262597
0.265598
0.142684
-0.321935
0.323491
0.142667
-0.192353
0.19237
0.142593
-0.169087
0.169161
0.140981
0.103269
-0.101657
0.220439
-0.218527
0.0208207
0.0418654
0.028681
0.0364852
0.0368615
0.0282025
0.0451842
0.0169198
0.0534287
0.00256854
0.0614579
-0.0147488
0.069209
-0.034894
0.0765948
-0.057275
0.0834851
-0.080621
0.0896098
-0.102923
0.0945498
-0.121805
0.0978643
-0.135371
0.099269
-0.142932
0.0985454
-0.145095
0.0951887
-0.14372
0.0887658
-0.14193
0.080298
-0.142224
0.0729891
-0.142675
0.0707584
-0.135594
0.0755557
-0.112071
0.0863781
-0.0692238
0.100713
-0.0128354
0.115787
0.0466237
0.129239
0.0983431
0.139518
0.136469
0.146367
0.160227
0.150234
0.172396
0.151089
0.17928
0.148511
0.18982
0.143198
0.206287
0.137694
0.215171
0.134889
0.193865
0.136089
0.129667
0.140809
0.0352256
0.146845
-0.0624858
0.152246
-0.13792
0.155854
-0.184005
0.157077
-0.202938
0.154611
-0.21108
0.147729
-0.219496
0.138477
-0.225122
0.13152
-0.210887
0.130468
-0.148478
0.13583
-0.0590151
0.144393
0.0517626
0.151694
0.131137
0.153648
0.203333
0.149561
0.253801
0.143142
0.277397
0.139365
0.261077
0.140934
0.142061
0.146112
0.0465998
0.149034
-0.102652
0.147684
-0.17706
0.144389
-0.259301
0.142751
-0.320298
0.142543
-0.192144
0.142239
-0.168784
0.140536
0.104973
0.222376
0.0490465
0.0344537
0.0567077
0.028824
0.0643697
0.0205405
0.0717739
0.00951555
0.0788801
-0.00453762
0.0854728
-0.0213414
0.0915424
-0.0409636
0.0970207
-0.0627533
0.101754
-0.0853544
0.105464
-0.106633
0.107792
-0.124134
0.108437
-0.136015
0.107324
-0.14182
0.104617
-0.142387
0.100177
-0.13928
0.0932504
-0.135003
0.0836805
-0.132654
0.0736352
-0.132629
0.0673847
-0.129343
0.0685367
-0.113222
0.077464
-0.0781512
0.0917732
-0.0271446
0.108176
0.0302211
0.123615
0.0829044
0.136175
0.123909
0.145281
0.151122
0.151068
0.166609
0.153449
0.176898
0.152311
0.190958
0.148579
0.210019
0.144504
0.219246
0.1423
0.196069
0.142943
0.129024
0.146243
0.0319252
0.15048
-0.0667219
0.154033
-0.141474
0.155931
-0.185904
0.155918
-0.202925
0.152854
-0.208016
0.145754
-0.212395
0.136217
-0.215585
0.12897
-0.20364
0.128034
-0.147542
0.134102
-0.0650838
0.143637
0.0422277
0.151755
0.123019
0.15438
0.200708
0.150793
0.257388
0.144708
0.283481
0.140773
0.265012
0.141907
0.140927
0.146872
0.041635
0.149712
-0.105492
0.14824
-0.175588
0.144604
-0.255665
0.142863
-0.318556
0.14252
-0.191802
0.142038
-0.168302
0.140261
0.10675
0.224332
0.0758743
0.0272879
0.0830767
0.0216216
0.0900914
0.0135257
0.0966179
0.00298909
0.102696
-0.0106161
0.108065
-0.02671
0.112696
-0.0455942
0.11645
-0.0665077
0.119111
-0.088015
0.12039
-0.107912
0.12005
-0.123794
0.118043
-0.134008
0.114544
-0.138321
0.109931
-0.137774
0.104471
-0.13382
0.0976024
-0.128135
0.0882793
-0.12333
0.0770926
-0.121443
0.0676255
-0.119876
0.0646637
-0.110261
0.0705276
-0.0840151
0.0836863
-0.0403034
0.100684
0.0132233
0.11769
0.0658986
0.132387
0.109212
0.143744
0.139765
0.151532
0.158821
0.155632
0.172798
0.156205
0.190385
0.154268
0.211955
0.151651
0.221863
0.149926
0.197793
0.149815
0.129135
0.151538
0.0302021
0.153886
-0.0690698
0.155617
-0.143204
0.155865
-0.186152
0.154663
-0.201723
0.151109
-0.204462
0.144005
-0.205291
0.134403
-0.205984
0.126897
-0.196134
0.12592
-0.146564
0.132484
-0.071648
0.142843
0.0318688
0.151769
0.114093
0.155174
0.197304
0.152227
0.260335
0.146566
0.289141
0.142474
0.269105
0.143074
0.140327
0.147735
0.0369741
0.150488
-0.108245
0.148897
-0.173997
0.144881
-0.251649
0.143007
-0.316682
0.142587
-0.191382
0.141978
-0.167693
0.140151
0.108577
0.226292
0.0995638
0.020313
0.106336
0.0148491
0.112662
0.00720029
0.118845
-0.00319378
0.124033
-0.0158045
0.128456
-0.0311327
0.131889
-0.0490276
0.134069
-0.0686874
0.134696
-0.0886418
0.133529
-0.106746
0.130545
-0.12081
0.12602
-0.129483
0.120411
-0.132712
0.114197
-0.131561
0.107808
-0.127431
0.101104
-0.121431
0.0928872
-0.115114
0.0822732
-0.110829
0.0711685
-0.108772
0.0643913
-0.103484
0.0662271
-0.0858509
0.0769128
-0.0509891
0.0935346
-0.00339855
0.111494
0.0479394
0.128037
0.0926693
0.141529
0.126272
0.151342
0.149008
0.157318
0.166823
0.159826
0.187877
0.159862
0.211919
0.15874
0.222985
0.157433
0.1991
0.156518
0.13005
0.156497
0.0302232
0.156977
-0.0695493
0.156937
-0.143164
0.155621
-0.184837
0.153292
-0.199393
0.149333
-0.200503
0.142411
-0.198369
0.132963
-0.196536
0.125265
-0.188437
0.124098
-0.145397
0.130914
-0.0784637
0.141947
0.0208353
0.15168
0.10436
0.155983
0.193001
0.15383
0.262488
0.148698
0.294273
0.14446
0.273342
0.144441
0.140346
0.148691
0.0327246
0.151337
-0.110891
0.149643
-0.172303
0.145215
-0.247221
0.143171
-0.314638
0.142729
-0.190941
0.142045
-0.167008
0.140194
0.110428
0.228239
0.120093
0.0135513
0.126601
0.00834091
0.132579
0.0012228
0.13818
-0.00879563
0.14277
-0.0203941
0.14635
-0.0347131
0.148601
-0.0512785
0.149163
-0.0692489
0.147724
-0.0872026
0.144172
-0.103194
0.138737
-0.115375
0.131988
-0.122734
0.124634
-0.125357
0.117242
-0.124169
0.110192
-0.120381
0.103593
-0.114831
0.0966478
-0.108169
0.0878037
-0.101985
0.0770021
-0.0979699
0.0676944
-0.0941759
0.0651916
-0.083348
0.0722161
-0.0580136
0.0868897
-0.0180721
0.105107
0.029722
0.123021
0.0747556
0.138401
0.110892
0.150181
0.137228
0.158127
0.158877
0.162724
0.18328
0.164854
0.209789
0.16531
0.222529
0.164462
0.199949
0.162745
0.131767
0.161004
0.0319638
0.159656
-0.0682015
0.157928
-0.141436
0.155161
-0.18207
0.151774
-0.196007
0.147467
-0.196195
0.140871
-0.191773
0.131788
-0.187453
0.123998
-0.180647
0.122508
-0.143907
0.129329
-0.0852843
0.140874
0.00929029
0.151415
0.0938186
0.156739
0.187677
0.15554
0.263688
0.151055
0.298758
0.146703
0.277694
0.145993
0.141056
0.149725
0.0289926
0.152233
-0.113399
0.15046
-0.170531
0.145599
-0.24236
0.143344
-0.312383
0.142932
-0.19053
0.142222
-0.166297
0.14038
0.11227
0.230151
0.139602
0.0074665
0.145368
0.00257569
0.151237
-0.0046465
0.155825
-0.0133837
0.159476
-0.0240453
0.161868
-0.0371045
0.162585
-0.0519954
0.161243
-0.0679076
0.157615
-0.0835738
0.151779
-0.0973592
0.144219
-0.107815
0.135712
-0.114227
0.127087
-0.116733
0.118955
-0.116037
0.111595
-0.113021
0.105106
-0.108342
0.099158
-0.102222
0.092422
-0.0952487
0.0835348
-0.0890827
0.0737296
-0.0843706
0.0676655
-0.0772839
0.0700803
-0.0604285
0.0814583
-0.0294501
0.0987235
0.0124568
0.117284
0.0561954
0.13417
0.0940057
0.147773
0.123624
0.157701
0.14895
0.164467
0.176514
0.168766
0.20549
0.17085
0.220445
0.170543
0.200256
0.168164
0.134145
0.164952
0.0351765
0.161836
-0.0650857
0.158519
-0.138119
0.154437
-0.177988
0.150077
-0.191647
0.145454
-0.191572
0.139283
-0.185602
0.130749
-0.178919
0.12299
-0.172888
0.121085
-0.142002
0.127663
-0.0918625
0.139547
-0.00259366
0.150891
0.0824748
0.157356
0.181212
0.157276
0.263768
0.153563
0.30247
0.149143
0.282115
0.147714
0.142485
0.150811
0.0258957
0.153143
-0.115731
0.151327
-0.168714
0.146025
-0.237058
0.143516
-0.309874
0.143181
-0.190195
0.142492
-0.165608
0.140698
0.114063
0.232
0.159856
0.00293189
0.164637
-0.00220516
0.16879
-0.00879925
0.171853
-0.0164468
0.173876
-0.026068
0.174439
-0.0376677
0.17311
-0.0506667
0.169581
-0.0643781
0.163773
-0.0777662
0.155964
-0.08955
0.146807
-0.0986592
0.137164
-0.104584
0.127845
-0.107413
0.119407
-0.107599
0.112062
-0.105676
0.105796
-0.102076
0.100495
-0.0969206
0.0954571
-0.0902107
0.0891388
-0.0827644
0.080852
-0.0760837
0.073154
-0.069586
0.0711199
-0.0583943
0.0779655
-0.0362957
0.0927383
-0.00231606
0.110873
0.0380609
0.1287
0.0761782
0.143891
0.108433
0.155745
0.137096
0.16468
0.167579
0.171156
0.199014
0.17491
0.21669
0.175251
0.199916
0.172474
0.136922
0.168051
0.0395993
0.163397
-0.0604312
0.158627
-0.133349
0.153389
-0.17275
0.148157
-0.186416
0.143235
-0.18665
0.137542
-0.179909
0.129706
-0.171083
0.122114
-0.165295
0.119748
-0.139637
0.125856
-0.0979703
0.137896
-0.0146332
0.150019
0.0703515
0.157732
0.173499
0.158929
0.262572
0.156122
0.305276
0.151715
0.286522
0.149559
0.144641
0.151922
0.023533
0.154036
-0.117845
0.152218
-0.166896
0.14648
-0.23132
0.143678
-0.307072
0.14346
-0.189977
0.142837
-0.164985
0.141133
0.115768
0.23375
0.179274
0.000362554
0.181795
-0.00472632
0.183601
-0.0106053
0.184476
-0.0173219
0.184284
-0.0258758
0.18258
-0.0359641
0.179003
-0.0470892
0.173381
-0.0587559
0.165787
-0.070173
0.156627
-0.0803897
0.1466
-0.088632
0.136515
-0.094499
0.12707
-0.0979682
0.118715
-0.0992437
0.11161
-0.0985709
0.105692
-0.0961575
0.100855
-0.0920836
0.0968668
-0.0862228
0.0927708
-0.0786683
0.087127
-0.07044
0.0801484
-0.0626073
0.0753489
-0.0535948
0.0773941
-0.0383409
0.0878315
-0.0127534
0.104119
0.0217731
0.121978
0.0583199
0.138348
0.0920634
0.151994
0.123449
0.163099
0.156474
0.17182
0.190292
0.177298
0.211212
0.178369
0.198845
0.175413
0.139878
0.170153
0.044859
0.164223
-0.0545011
0.158153
-0.127279
0.151918
-0.166515
0.14594
-0.180438
0.140728
-0.181437
0.135539
-0.174719
0.128521
-0.164065
0.121228
-0.158003
0.1184
-0.136809
0.12385
-0.10342
0.135861
-0.0266435
0.14871
0.0575025
0.157763
0.164445
0.160389
0.259946
0.158625
0.30704
0.154317
0.29083
0.151493
0.147465
0.153017
0.0220094
0.154874
-0.119702
0.153102
-0.165125
0.146952
-0.22517
0.143821
-0.303941
0.143759
-0.189914
0.143241
-0.164467
0.141674
0.117335
0.235362
0.192363
-0.000442449
0.192673
-0.00503627
0.192128
-0.0100605
0.19082
-0.0160133
0.188489
-0.0235454
0.184741
-0.032216
0.179352
-0.0417001
0.172274
-0.0516775
0.16367
-0.0615692
0.153977
-0.0706964
0.143832
-0.078487
0.133912
-0.0845793
0.124772
-0.0888282
0.116756
-0.0912283
0.110002
-0.091816
0.104473
-0.0906293
0.100063
-0.087673
0.0966961
-0.0828562
0.0940427
-0.0760149
0.0909928
-0.0673901
0.0864192
-0.0580338
0.0814047
-0.0485803
0.0798572
-0.0367934
0.085358
-0.0182543
0.0979875
0.00914362
0.114421
0.0418867
0.131181
0.0753028
0.146309
0.108321
0.159441
0.143343
0.170303
0.17943
0.177582
0.203933
0.179644
0.196784
0.176852
0.142669
0.171211
0.0505002
0.164284
-0.0475744
0.15704
-0.120036
0.149948
-0.159423
0.143371
-0.17386
0.137882
-0.175949
0.133182
-0.17002
0.127086
-0.157969
0.120222
-0.151139
0.116948
-0.133535
0.121582
-0.108054
0.133398
-0.038459
0.146891
0.0440095
0.157336
0.154
0.161509
0.255773
0.160927
0.307621
0.156853
0.294904
0.153435
0.150882
0.154086
0.0213589
0.155626
-0.121242
0.153946
-0.163445
0.147432
-0.218656
0.143947
-0.300457
0.14407
-0.190037
0.143685
-0.164081
0.142309
0.118712
0.23679
0.195227
-0.000244219
0.194129
-0.0039379
0.19212
-0.00805155
0.189429
-0.0133221
0.18576
-0.019877
0.180854
-0.0273095
0.174611
-0.0354576
0.167046
-0.0441124
0.158352
-0.052875
0.148927
-0.061271
0.139294
-0.0688543
0.129983
-0.0752685
0.121421
-0.080266
0.11388
-0.0836874
0.107487
-0.0854234
0.102265
-0.0854071
0.098168
-0.0835757
0.0951583
-0.0798466
0.0932097
-0.0740663
0.0918842
-0.0660645
0.0900091
-0.0561587
0.0868898
-0.045461
0.0842723
-0.0341759
0.0858425
-0.0198244
0.0938329
0.00115321
0.107134
0.0285855
0.122935
0.0595018
0.138872
0.0923842
0.153926
0.128288
0.167161
0.166196
0.17638
0.194714
0.179334
0.19383
0.17699
0.145014
0.171355
0.056135
0.163814
-0.0400328
0.155523
-0.111745
0.147682
-0.151582
0.140641
-0.166819
0.134865
-0.170172
0.130546
-0.165701
0.125408
-0.152832
0.119084
-0.144814
0.115368
-0.129819
0.11904
-0.111727
0.130461
-0.0498794
0.144473
0.0299975
0.156378
0.142094
0.162238
0.249914
0.162937
0.306922
0.159213
0.298628
0.155375
0.15472
0.15509
0.0216439
0.156285
-0.122436
0.154729
-0.16189
0.147916
-0.211842
0.144072
-0.296612
0.144397
-0.190363
0.144157
-0.163841
0.143028
0.11984
0.237988
0.188405
0.000402347
0.186706
-0.00223923
0.184408
-0.00575316
0.181438
-0.0103527
0.177499
-0.0159377
0.172532
-0.0223429
0.166511
-0.0294367
0.159466
-0.0370673
0.151576
-0.0449846
0.143161
-0.0528562
0.134622
-0.060315
0.126356
-0.0670028
0.118691
-0.0726005
0.111851
-0.0768476
0.105961
-0.0795336
0.101071
-0.0805171
0.0971903
-0.079695
0.0943041
-0.0769603
0.0924554
-0.0722176
0.0916761
-0.0652852
0.0914239
-0.0559065
0.0905657
-0.0446028
0.0889451
-0.0325553
0.0886303
-0.0195096
0.0924107
-0.00262719
0.10165
0.0193457
0.114737
0.0464148
0.129788
0.0773331
0.14555
0.112526
0.16057
0.151176
0.171747
0.183536
0.176401
0.189176
0.175581
0.145833
0.170942
0.0607737
0.162887
-0.0319773
0.153681
-0.102538
0.145302
-0.143203
0.137982
-0.159499
0.131912
-0.164102
0.127783
-0.161572
0.123543
-0.148591
0.117847
-0.139118
0.113693
-0.125666
0.11637
-0.114403
0.127195
-0.0607049
0.141519
0.0156732
0.154682
0.128931
0.162284
0.242313
0.164439
0.304767
0.161292
0.301775
0.157199
0.158813
0.156031
0.0228122
0.156826
-0.123231
0.155431
-0.160495
0.148396
-0.204807
0.144195
-0.292411
0.144727
-0.190895
0.144652
-0.163767
0.143823
0.12067
0.238905
0.209719
0.000989834
-0.210306
0.209902
-0.00242238
0.210042
-0.00589306
0.209861
-0.0101717
0.209212
-0.0152891
0.207963
-0.0210933
0.205999
-0.0274729
0.203213
-0.0342809
0.199547
-0.0413193
0.195025
-0.0483341
0.189736
-0.0550253
0.18381
-0.0610773
0.177398
-0.0661888
0.170655
-0.0701044
0.163731
-0.072609
0.156762
-0.0735485
0.149876
-0.0728085
0.143167
-0.0702521
0.136712
-0.0657622
0.130668
-0.059241
0.125082
-0.0503211
0.119394
-0.0389149
0.112825
-0.025986
0.105877
-0.0125618
0.100651
0.00259958
0.0988751
0.0211212
0.101206
0.044084
0.106668
0.0718707
0.114178
0.105017
0.122957
0.142397
0.133049
0.173444
0.146344
0.175882
0.162953
0.129224
0.176851
0.0468754
0.183527
-0.0386538
0.18265
-0.101662
0.177006
-0.137558
0.168954
-0.151447
0.160309
-0.155457
0.152682
-0.153946
0.145234
-0.141143
0.136503
-0.130387
0.12846
-0.117622
0.125042
-0.110986
0.127744
-0.0634061
0.132911
0.010506
0.13742
0.124422
0.14013
0.239603
0.142612
0.302284
0.145886
0.298502
0.149661
0.155038
0.153511
0.0189628
0.156019
-0.125739
0.154095
-0.158571
0.146758
-0.197471
0.139897
-0.285549
0.137106
-0.188104
0.133667
-0.160328
0.130954
0.123383
0.239696
0.219644
0.00122795
-0.219882
0.219432
-0.00221076
0.219355
-0.00581545
0.219009
-0.00982633
0.218171
-0.0144506
0.216751
-0.0196735
0.214663
-0.0253847
0.211826
-0.0314445
0.208195
-0.0376881
0.203773
-0.0439119
0.198619
-0.0498709
0.192838
-0.055297
0.186572
-0.0599222
0.179977
-0.0635095
0.173217
-0.0658494
0.166443
-0.0667746
0.159787
-0.0661521
0.153362
-0.0638273
0.14724
-0.0596404
0.141511
-0.0535121
0.136333
-0.0451428
0.13157
-0.0341521
0.126499
-0.0209142
0.120567
-0.00663055
0.114797
0.00836987
0.111114
0.0248044
0.111111
0.0440864
0.115118
0.0678644
0.122472
0.0976629
0.13214
0.132729
0.14437
0.161214
0.160627
0.159625
0.1789
0.110951
0.192889
0.0328869
0.198246
-0.044011
0.195815
-0.099231
0.188805
-0.130548
0.179859
-0.142501
0.170531
-0.146128
0.162427
-0.145842
0.154967
-0.133683
0.146372
-0.121792
0.137884
-0.109133
0.133703
-0.106806
0.135915
-0.0656179
0.141243
0.00517855
0.146403
0.119262
0.15005
0.235956
0.153705
0.298629
0.157991
0.294216
0.162096
0.150932
0.165679
0.0153803
0.167601
-0.127662
0.165281
-0.156251
0.156958
-0.189148
0.14922
-0.277812
0.146088
-0.184972
0.142352
-0.156592
0.139485
0.126249
0.24041
0.228908
0.00119993
-0.22888
0.228737
-0.00204018
0.228475
-0.00555294
0.227959
-0.00931066
0.227008
-0.0134995
0.225508
-0.0181735
0.223387
-0.0232636
0.220589
-0.0286464
0.217077
-0.0341762
0.212848
-0.0396832
0.207944
-0.0449663
0.202448
-0.0498012
0.196479