/*--------------------------------*- C++ -*----------------------------------*\
| =========                 |                                                 |
| \\      /  F ield         | OpenFOAM: The Open Source CFD Toolbox           |
|  \\    /   O peration     | Version:  2512                                  |
|   \\  /    A nd           | Website:  www.openfoam.com                      |
|    \\/     M anipulation  |                                                 |
\*---------------------------------------------------------------------------*/
FoamFile
{
    version     2.0;
    format      ascii;
    arch        "LSB;label=32;scalar=64";
    class       volScalarField;
    location    "12";
    object      p;
}
// * * * * * * * * * * * * * * * * * * * * * * * * * * * * * * * * * * * * * //

dimensions      [0 2 -2 0 0 0 0];

internalField   nonuniform List<scalar> 
13248
(
-0.350059
-0.348178
-0.34553
-0.342345
-0.338929
-0.335601
-0.332627
-0.330194
-0.328402
-0.32726
-0.32669
-0.326531
-0.32656
-0.326507
-0.326088
-0.325026
-0.323083
-0.320076
-0.315881
-0.310476
-0.303748
-0.295916
-0.286027
-0.27498
-0.35727
-0.354835
-0.351624
-0.34789
-0.343932
-0.340069
-0.336541
-0.333497
-0.330984
-0.328955
-0.327273
-0.325736
-0.324103
-0.322119
-0.319549
-0.316202
-0.311946
-0.306712
-0.300486
-0.293294
-0.28515
-0.27612
-0.265977
-0.255564
-0.366395
-0.363125
-0.359197
-0.354842
-0.350308
-0.345879
-0.341746
-0.337985
-0.334569
-0.331385
-0.328259
-0.324985
-0.321355
-0.317193
-0.31237
-0.306817
-0.30052
-0.293509
-0.285836
-0.277565
-0.268712
-0.259378
-0.249411
-0.239416
-0.377498
-0.373137
-0.368343
-0.363278
-0.358091
-0.352998
-0.348106
-0.343395
-0.33876
-0.334048
-0.32909
-0.323738
-0.317884
-0.311475
-0.304507
-0.297022
-0.289082
-0.280757
-0.272107
-0.263177
-0.25399
-0.244612
-0.234951
-0.225591
-0.390554
-0.384896
-0.379107
-0.37324
-0.367281
-0.361346
-0.355428
-0.349412
-0.343143
-0.336484
-0.329346
-0.321701
-0.313577
-0.305046
-0.296201
-0.287139
-0.277938
-0.268656
-0.25933
-0.249978
-0.240607
-0.231244
-0.221839
-0.212777
-0.40547
-0.398369
-0.391496
-0.384728
-0.377828
-0.370768
-0.363428
-0.355633
-0.347252
-0.33825
-0.328682
-0.318673
-0.308379
-0.297954
-0.28753
-0.2772
-0.267019
-0.257011
-0.247182
-0.237521
-0.22802
-0.218675
-0.209454
-0.200617
-0.42206
-0.413437
-0.405422
-0.397634
-0.389535
-0.380939
-0.371654
-0.361534
-0.350579
-0.338931
-0.326827
-0.314527
-0.302261
-0.290207
-0.278476
-0.267125
-0.256167
-0.24559
-0.235369
-0.225472
-0.215874
-0.206548
-0.19748
-0.188789
-0.439983
-0.429832
-0.420634
-0.411648
-0.401978
-0.391307
-0.379477
-0.366501
-0.352608
-0.338166
-0.323569
-0.309153
-0.295157
-0.281724
-0.268913
-0.256729
-0.245143
-0.234108
-0.223576
-0.213499
-0.203836
-0.194549
-0.185624
-0.177068
-0.458694
-0.447077
-0.436648
-0.4262
-0.414469
-0.401108
-0.386147
-0.369898
-0.352881
-0.335669
-0.318748
-0.302454
-0.286979
-0.272393
-0.258693
-0.24583
-0.233738
-0.222344
-0.211579
-0.20138
-0.191692
-0.182473
-0.173696
-0.165282
-0.477403
-0.464444
-0.452698
-0.440424
-0.426063
-0.409409
-0.390862
-0.371126
-0.351006
-0.331205
-0.312216
-0.294312
-0.277597
-0.262061
-0.247638
-0.234234
-0.22175
-0.210091
-0.199171
-0.188913
-0.17925
-0.170134
-0.16151
-0.153257
-0.495085
-0.480939
-0.467732
-0.453182
-0.435608
-0.415169
-0.392779
-0.369559
-0.346524
-0.324414
-0.303651
-0.284404
-0.266675
-0.250379
-0.235392
-0.221583
-0.208826
-0.197007
-0.186025
-0.175788
-0.166221
-0.157261
-0.148817
-0.140775
-0.510573
-0.495437
-0.480589
-0.463276
-0.441941
-0.417338
-0.390997
-0.364416
-0.338727
-0.314614
-0.292375
-0.272051
-0.253541
-0.236687
-0.221315
-0.207262
-0.194377
-0.182529
-0.171603
-0.161498
-0.152131
-0.143424
-0.135257
-0.127573
-0.293693
-0.298133
-0.301034
-0.303327
-0.30578
-0.308617
-0.311925
-0.315747
-0.320075
-0.324874
-0.330084
-0.335625
-0.341401
-0.347295
-0.353174
-0.358885
-0.364257
-0.369108
-0.373251
-0.376483
-0.378587
-0.379378
-0.378839
-0.377059
-0.296322
-0.30038
-0.303096
-0.305314
-0.307743
-0.31059
-0.313939
-0.317828
-0.322249
-0.327164
-0.332513
-0.338216
-0.344175
-0.350273
-0.356372
-0.362314
-0.367922
-0.373005
-0.377366
-0.380798
-0.383068
-0.383925
-0.383327
-0.381702
-0.301018
-0.304329
-0.306659
-0.308693
-0.311015
-0.313807
-0.317145
-0.32106
-0.325541
-0.330551
-0.336029
-0.341897
-0.348058
-0.354396
-0.360771
-0.367023
-0.372973
-0.378417
-0.383145
-0.386945
-0.389581
-0.390726
-0.390133
-0.388647
-0.307063
-0.309382
-0.311166
-0.312897
-0.315001
-0.317628
-0.320845
-0.324673
-0.329101
-0.33409
-0.33958
-0.345495
-0.351741
-0.358203
-0.364743
-0.371203
-0.3774
-0.383129
-0.388165
-0.392278
-0.395253
-0.396796
-0.396306
-0.393783
-0.313616
-0.314854
-0.315992
-0.317302
-0.31905
-0.321357
-0.324282
-0.327844
-0.332027
-0.336794
-0.342087
-0.347832
-0.353937
-0.360292
-0.366763
-0.373195
-0.379409
-0.385204
-0.39035
-0.394607
-0.397731
-0.399441
-0.399307
-0.396992
-0.319923
-0.32015
-0.320607
-0.321393
-0.322637
-0.324442
-0.326869
-0.329939
-0.333641
-0.33794
-0.342784
-0.348103
-0.353809
-0.359795
-0.365934
-0.372075
-0.378044
-0.383647
-0.388649
-0.392811
-0.395882
-0.397516
-0.397765
-0.394688
-0.325457
-0.324876
-0.324693
-0.324882
-0.325488
-0.326615
-0.328339
-0.330696
-0.333686
-0.337289
-0.341458
-0.346132
-0.351228
-0.356643
-0.362256
-0.367919
-0.373441
-0.378642
-0.383307
-0.38716
-0.390001
-0.391212
-0.391707
-0.387608
-0.330024
-0.328906
-0.328166
-0.327727
-0.327604
-0.327923
-0.328789
-0.330265
-0.332379
-0.335126
-0.338478
-0.34238
-0.346757
-0.351504
-0.356493
-0.361577
-0.366589
-0.371296
-0.375468
-0.378791
-0.381179
-0.381635
-0.381904
-0.376745
-0.333745
-0.332357
-0.331164
-0.330104
-0.329219
-0.328672
-0.32861
-0.329135
-0.330307
-0.33215
-0.334651
-0.337762
-0.341407
-0.345483
-0.349849
-0.354326
-0.358707
-0.362748
-0.366201
-0.368705
-0.370255
-0.369691
-0.369016
-0.362859
-0.337013
-0.335545
-0.333986
-0.33234
-0.330715
-0.329323
-0.328359
-0.327967
-0.328243
-0.329232
-0.330934
-0.333304
-0.336253
-0.339643
-0.343299
-0.347003
-0.350507
-0.353538
-0.355836
-0.35708
-0.357271
-0.355527
-0.353392
-0.346425
-0.340407
-0.338921
-0.337035
-0.334842
-0.332536
-0.330381
-0.328611
-0.327407
-0.32689
-0.327117
-0.328087
-0.329732
-0.331927
-0.334494
-0.337203
-0.33979
-0.341967
-0.34345
-0.343984
-0.343373
-0.3416
-0.338427
-0.334807
-0.327743
-0.34457
-0.342984
-0.340747
-0.338037
-0.335123
-0.332308
-0.329855
-0.327964
-0.326761
-0.326294
-0.326534
-0.327374
-0.328641
-0.330101
-0.331481
-0.332484
-0.332817
-0.332218
-0.330465
-0.32747
-0.323144
-0.317768
-0.311788
-0.304962
-0.373124
-0.36396
-0.350073
-0.330794
-0.306088
-0.275991
-0.240919
-0.201678
-0.15988
-0.116936
-0.074783
-0.0354253
-0.000582008
0.0283852
0.050744
0.0664699
0.0761458
0.0807595
0.0814513
0.0793376
0.0754508
0.0705275
0.0651381
0.0596674
0.0543557
0.0493514
0.0447047
0.0404346
0.0365292
0.0329668
0.029737
0.026843
0.0242426
0.0219005
0.0198
0.0179244
0.016254
0.0147667
0.013442
0.0122592
0.0112026
0.0102532
0.00940189
0.00862884
0.00793334
0.00729098
0.0067115
0.00616335
0.00566508
0.00518275
0.00473147
0.00429188
0.0038543
0.00343059
0.00297931
0.00253462
0.00203922
0.00153818
0.000950806
0.000355602
-0.37873
-0.369464
-0.355552
-0.336164
-0.311234
-0.280818
-0.245368
-0.205771
-0.163484
-0.120214
-0.0776305
-0.0377262
-0.00258289
0.0266431
0.0492492
0.0652065
0.075105
0.0799344
0.0808406
0.0789241
0.0751326
0.0702983
0.0649845
0.0595698
0.0542952
0.0493132
0.0446858
0.0404568
0.036587
0.0330373
0.0298044
0.0269176
0.0243202
0.0219732
0.0198652
0.0179822
0.0163052
0.0148122
0.0134824
0.0122951
0.0112345
0.0102818
0.00942708
0.00865186
0.0079532
0.00730968
0.00672708
0.00617845
0.00567753
0.00519436
0.00474202
0.00430002
0.00386343
0.00343606
0.00298653
0.00253805
0.00204492
0.00153854
0.000955271
0.000351466
-0.388194
-0.379667
-0.366461
-0.347626
-0.323111
-0.292964
-0.257592
-0.217859
-0.175263
-0.13101
-0.0876157
-0.0468986
-0.0107523
0.0194772
0.0430473
0.0599128
0.0706492
0.0762446
0.077847
0.0765308
0.0732694
0.0688751
0.0639199
0.0587961
0.0537582
0.0489356
0.0444097
0.0402038
0.0363828
0.0328867
0.0297036
0.0268889
0.024326
0.021992
0.0198906
0.018011
0.0163353
0.0148421
0.0135111
0.0123223
0.0112596
0.0103053
0.0094483
0.0086718
0.00797061
0.00732648
0.00674114
0.00619238
0.00568905
0.00520528
0.00475208
0.00430781
0.00387239
0.00344148
0.00299382
0.00254163
0.00205084
0.00153916
0.000959927
0.000347498
-0.399135
-0.388522
-0.377221
-0.359566
-0.336259
-0.307169
-0.272642
-0.233455
-0.190921
-0.146724
-0.102795
-0.0612108
-0.0239524
0.00754314
0.0324665
0.0507091
0.0627936
0.0696709
0.0724644
0.0722311
0.0698835
0.0662312
0.061873
0.0572207
0.052545
0.0480048
0.0437244
0.0397496
0.0360616
0.0326604
0.0293964
0.0267387
0.0242632
0.0219615
0.0198798
0.0180137
0.016347
0.0148589
0.0135304
0.0123427
0.0112799
0.0103252
0.00946689
0.00868981
0.00798663
0.00734227
0.00675451
0.00620585
0.00570033
0.00521611
0.00476217
0.0043158
0.00388156
0.0034473
0.00300147
0.00254574
0.00205716
0.00154039
0.000964829
0.000343924
-0.400969
-0.395223
-0.384161
-0.368283
-0.346912
-0.319692
-0.286888
-0.249191
-0.207736
-0.164094
-0.12032
-0.0784624
-0.0404761
-0.00788831
0.0184037
0.0382052
0.0519436
0.0604782
0.0648594
0.0661109
0.065048
0.0624488
0.0589413
0.0549674
0.0508248
0.046709
0.0427476
0.0390044
0.0355056
0.0322998
0.0294704
0.0264701
0.0241231
0.0218795
0.0198317
0.0179894
0.0163393
0.0148618
0.0135396
0.0123558
0.0112949
0.0103413
0.00948271
0.0087058
0.00800121
0.00735701
0.00676719
0.00621885
0.00571137
0.00522687
0.00477227
0.00432404
0.00389091
0.00345361
0.00300943
0.00255047
0.00206383
0.00154234
0.00096989
0.000340899
-0.398702
-0.394771
-0.385295
-0.371467
-0.35239
-0.327584
-0.297242
-0.261934
-0.222604
-0.180668
-0.138011
-0.0966708
-0.0585943
-0.0253586
0.00205955
0.0233664
0.0388605
0.0492524
0.0554706
0.0584584
0.0589795
0.057699
0.055254
0.0521279
0.0486534
0.0450566
0.0414908
0.0380534
0.0348079
0.031787
0.0290023
0.0264637
0.02394
0.0217434
0.0197461
0.0179377
0.0163121
0.0148504
0.0135384
0.0123612
0.0113042
0.0103532
0.00949548
0.00871952
0.00801416
0.00737051
0.00677904
0.00623121
0.00572204
0.00523743
0.00478226
0.00433246
0.00390029
0.00346037
0.00301758
0.00255582
0.00207071
0.00154507
0.000974982
0.000338583
-0.390789
-0.387652
-0.380131
-0.368744
-0.352141
-0.329876
-0.302296
-0.269933
-0.233601
-0.194419
-0.153989
-0.114151
-0.0767765
-0.0434796
-0.0153287
0.00726496
0.0244438
0.0367288
0.0448722
0.0496979
0.0519541
0.0521807
0.0509578
0.048805
0.0461
0.043105
0.0400057
0.0369289
0.0339585
0.0311455
0.0285102
0.0260102
0.0237046
0.0215403
0.0196182
0.0178588
0.0162656
0.0148248
0.0135266
0.0123588
0.0113077
0.0103608
0.00950509
0.00873084
0.00802538
0.00738266
0.00678998
0.00624284
0.00573226
0.00524773
0.00479203
0.00434104
0.00390959
0.00346759
0.0030258
0.0025618
0.00207768
0.00154866
0.000979984
0.000337181
-0.378125
-0.374682
-0.368981
-0.360088
-0.345928
-0.326374
-0.30192
-0.272853
-0.239818
-0.204038
-0.16684
-0.129562
-0.0937835
-0.0611012
-0.0327016
-0.00914873
0.00951259
0.0235882
0.0336223
0.0402888
0.0442599
0.046076
0.0461827
0.0450919
0.0432278
0.0408967
0.0383171
0.0356431
0.0329823
0.0304034
0.0279444
0.025588
0.0233536
0.0212997
0.0194503
0.0177533
0.0162004
0.014785
0.013504
0.0123483
0.0113053
0.010364
0.00951139
0.00873963
0.00803479
0.00739334
0.00679996
0.00625365
0.005742
0.00525771
0.00480152
0.00434978
0.0039187
0.00347527
0.00303399
0.00256845
0.00208462
0.00155322
0.000984778
0.000336944
-0.361479
-0.356856
-0.352824
-0.346179
-0.334243
-0.317497
-0.29645
-0.271043
-0.241722
-0.209572
-0.17594
-0.141959
-0.108609
-0.077252
-0.049152
-0.0250523
-0.00521539
0.0104279
0.0222038
0.0306109
0.0362186
0.0395702
0.0410547
0.0410904
0.0401141
0.0384807
0.0364517
0.0342108
0.0318874
0.0295683
0.0273075
0.0251148
0.0229644
0.0211027
0.0192384
0.0176176
0.0161161
0.0147307
0.0134704
0.0123297
0.0112968
0.0103626
0.00951437
0.00874586
0.00804241
0.00740254
0.00680903
0.00626363
0.00575127
0.0052674
0.00481069
0.0043587
0.00392758
0.00348347
0.00304209
0.00257583
0.00209146
0.00155884
0.000989275
0.000338189
-0.341572
-0.335913
-0.333524
-0.32845
-0.318386
-0.304551
-0.287058
-0.265455
-0.240083
-0.211852
-0.181858
-0.151253
-0.120775
-0.0913407
-0.0641109
-0.0399462
-0.0193241
-0.00242505
0.0108554
0.0208352
0.0279593
0.032717
0.0355622
0.036797
0.0367926
0.0359127
0.0344658
0.0326777
0.0307069
0.0286616
0.0266122
0.02459
0.0226127
0.0207658
0.0189822
0.0174513
0.0160138
0.0146631
0.0134271
0.0123041
0.0112835
0.0103576
0.00951489
0.00875022
0.00804879
0.00741065
0.00681744
0.00627292
0.00576011
0.00527678
0.00481944
0.00436775
0.00393603
0.0034921
0.00304989
0.00258388
0.002098
0.00156557
0.000993368
0.000341325
-0.32049
-0.315235
-0.314075
-0.309561
-0.301132
-0.290242
-0.276236
-0.258425
-0.237072
-0.212834
-0.186521
-0.159105
-0.131501
-0.104301
-0.0783967
-0.0546112
-0.0335542
-0.0156406
-0.000998519
0.0104978
0.0191388
0.0253089
0.0294188
0.0318622
0.0329566
0.0329801
0.0322377
0.0309874
0.0294255
0.0276911
0.0258786
0.0240447
0.0222272
0.0204483
0.0188882
0.017268
0.0158958
0.0145846
0.0133761
0.0122724
0.0112652
0.0103487
0.0095121
0.00875169
0.00805276
0.00741651
0.00682401
0.00628041
0.00576743
0.00528483
0.00482679
0.00437605
0.00394315
0.00350048
0.00305658
0.00259208
0.0021036
0.00157312
0.000996649
0.000346824
-0.299949
-0.297216
-0.295493
-0.289944
-0.282561
-0.273998
-0.262946
-0.248695
-0.231313
-0.211141
-0.188677
-0.164583
-0.13962
-0.114552
-0.0902003
-0.0673057
-0.0463893
-0.0279761
-0.0123772
0.000348926
0.0103319
0.0178331
0.0231784
0.026694
0.028708
0.0295714
0.0295557
0.0289025
0.0278184
0.0264605
0.0249415
0.0233379
0.0217036
0.0200924
0.0185541
0.0169425
0.0157053
0.0144568
0.0132883
0.0122106
0.0112219
0.0103188
0.00949221
0.00873888
0.00804553
0.00741283
0.00682365
0.00628178
0.00577061
0.00528943
0.00483143
0.00438299
0.00394831
0.0035086
0.00306203
0.0026005
0.00210808
0.00158153
0.000998611
0.000355213
-0.280336
-0.287772
-0.283317
-0.275451
-0.267599
-0.259288
-0.249065
-0.236083
-0.220233
-0.201812
-0.181289
-0.15925
-0.136359
-0.113284
-0.0907019
-0.0692788
-0.0495649
-0.0320226
-0.0169458
-0.00442802
0.00560182
0.0133357
0.019039
0.023011
0.0255425
0.0269051
0.0273416
0.0270851
0.0263402
0.0252687
0.0239916
0.0225936
0.0211349
0.019673
0.0182497
0.0169922
0.0155325
0.0143104
0.0131792
0.0121297
0.0111642
0.0102781
0.00946601
0.00872141
0.00803808
0.00740873
0.00682741
0.006286
0.00578019
0.00529982
0.00484278
0.00439761
0.00396012
0.00352399
0.00307397
0.00261474
0.00211694
0.00159399
0.00100161
0.00036619
-0.2566
-0.267522
-0.26471
-0.256318
-0.247872
-0.239743
-0.230392
-0.218701
-0.204445
-0.18793
-0.169617
-0.149995
-0.129587
-0.108935
-0.0886068
-0.0691753
-0.0511322
-0.0348747
-0.0206804
-0.00867588
0.00115311
0.00892983
0.0148534
0.0191585
0.0220781
0.0238441
0.0246829
0.0248099
0.0244151
0.0236534
0.0226443
0.0214755
0.0202121
0.0189092
0.0176154
0.0163564
0.0151162
0.0139872
0.0129233
0.0119278
0.011005
0.0101525
0.00936723
0.00864347
0.00797739
0.00736076
0.00679098
0.00625717
0.00575912
0.00528374
0.00483111
0.00439023
0.00395436
0.00352181
0.00307239
0.00261528
0.00211703
0.00159651
0.00100072
0.000371738
-0.234948
-0.246905
-0.245355
-0.237382
-0.228928
-0.22112
-0.212647
-0.202274
-0.189656
-0.175044
-0.158857
-0.141502
-0.123389
-0.104958
-0.0866883
-0.0690681
-0.0525369
-0.0374579
-0.024101
-0.0126157
-0.0030311
0.00472238
0.0107853
0.0153374
0.0185726
0.0206949
0.0219067
0.0223999
0.0223475
0.0218952
0.0211593
0.0202291
0.0191731
0.0180471
0.0169012
0.0157763
0.0146586
0.0136026
0.0126059
0.0116686
0.0107939
0.00998061
0.00922752
0.00852977
0.0078851
0.00728553
0.00673009
0.00620749
0.00571907
0.00525126
0.00480485
0.00436953
0.00393739
0.00350902
0.00306209
0.00260779
0.00211104
0.00159343
0.000997034
0.000374356
-0.215214
-0.226533
-0.225942
-0.21898
-0.21107
-0.203743
-0.196083
-0.186923
-0.175823
-0.162945
-0.148655
-0.133312
-0.117253
-0.100838
-0.0844623
-0.0685397
-0.0534573
-0.0395443
-0.0270542
-0.0161456
-0.00687822
0.000773479
0.00690018
0.0116361
0.0151394
0.0175818
0.0191373
0.0199743
0.020249
0.0200974
0.0196314
0.0189403
0.0180943
0.0171516
0.0161636
0.0151664
0.0141573
0.0131875
0.012264
0.0113882
0.0105643
0.00979271
0.00907405
0.0084042
0.00778276
0.00720169
0.00666199
0.00615172
0.00567385
0.0052146
0.00477492
0.004346
0.00391793
0.00349433
0.00305013
0.00259922
0.00210402
0.00158987
0.000993188
0.000376153
-0.196082
-0.20675
-0.20703
-0.201194
-0.194064
-0.18733
-0.180436
-0.172372
-0.162657
-0.151364
-0.138801
-0.125286
-0.111105
-0.0965488
-0.0819399
-0.0676227
-0.0539329
-0.0411653
-0.0295549
-0.019263
-0.0103715
-0.00288946
0.00323373
0.00809295
0.0118109
0.0145269
0.0163874
0.0175389
0.0181207
0.0182574
0.0180549
0.0176005
0.0169647
0.0162063
0.0153739
0.0145035
0.0136125
0.0127384
0.0118936
0.0110834
0.010314
0.00958735
0.0089059
0.00826635
0.00767022
0.00710941
0.00658697
0.00609028
0.00562406
0.00517432
0.00474206
0.00432033
0.00389672
0.00347854
0.00303726
0.00259027
0.00209667
0.00158633
0.000989552
0.0003773
-0.178001
-0.188142
-0.188964
-0.184108
-0.177827
-0.171778
-0.165644
-0.15859
-0.150141
-0.140303
-0.129322
-0.117476
-0.105007
-0.0921544
-0.0791774
-0.0663615
-0.0539941
-0.0423363
-0.0316042
-0.021957
-0.0134903
-0.00623853
-0.00018302
0.00473685
0.00861109
0.0115494
0.0136727
0.0151059
0.0159706
0.0163794
0.0164306
0.0162075
0.0157794
0.0152037
0.0145291
0.0137945
0.0130253
0.012251
0.0114893
0.0107489
0.010038
0.00935985
0.0087188
0.0081124
0.007544
0.00700564
0.00650222
0.00602078
0.00556747
0.00512846
0.00470457
0.00429092
0.00387244
0.00346039
0.00302248
0.00257994
0.00208832
0.00158203
0.000985725
0.000377571
-0.161341
-0.170664
-0.171806
-0.167813
-0.162384
-0.157067
-0.151694
-0.145575
-0.138277
-0.129763
-0.120221
-0.109888
-0.098972
-0.0876695
-0.0761913
-0.0647716
-0.0536533
-0.0430652
-0.0332034
-0.0242206
-0.0162195
-0.00925207
-0.00332478
0.00159436
0.00556692
0.00867587
0.011018
0.0126972
0.0138176
0.0144787
0.0147702
0.0147701
0.0145449
0.0141509
0.0136369
0.0130418
0.0123942
0.0117242
0.0110499
0.0103834
0.00973464
0.00910853
0.00851105
0.0079407
0.00740253
0.00688891
0.0064064
0.00594199
0.00550297
0.00507604
0.00466153
0.00425695
0.00384438
0.00343918
0.00300523
0.00256769
0.0020786
0.00157656
0.000981529
0.000377001
-0.145781
-0.154238
-0.155625
-0.152413
-0.147796
-0.143202
-0.138561
-0.133305
-0.127046
-0.119723
-0.11148
-0.102514
-0.0930033
-0.0831094
-0.0730038
-0.0628777
-0.0529343
-0.0433711
-0.034364
-0.0260562
-0.0185519
-0.011915
-0.00617054
-0.0013095
0.00270549
0.0059336
0.00844927
0.0103362
0.0116819
0.0125723
0.0130876
0.0132994
0.0132705
0.0130553
0.0127007
0.012246
0.0117224
0.0111587
0.0105755
0.00998641
0.00940337
0.00883262
0.00828181
0.00775038
0.00724499
0.00675843
0.00629877
0.00585322
0.00542994
0.00501652
0.00461247
0.00421801
0.00381221
0.00341462
0.00298531
0.00255329
0.00206741
0.00156979
0.000976969
0.000375751
-0.131224
-0.138946
-0.140515
-0.137974
-0.13409
-0.130172
-0.126215
-0.121746
-0.116421
-0.110166
-0.10309
-0.0953559
-0.087113
-0.0784958
-0.0696431
-0.0607102
-0.0518655
-0.0432777
-0.0351021
-0.0274706
-0.0204854
-0.0142168
-0.00870303
-0.00395268
5.15411e-05
0.00334805
0.00599118
0.00804614
0.00958422
0.010678
0.0113976
0.0118074
0.0119654
0.0119228
0.0117249
0.0114102
0.0110112
0.0105561
0.0100665
0.00955786
0.00904369
0.00853144
0.00803027
0.00754056
0.00707047
0.00661334
0.00617854
0.00575375
0.00534773
0.0049493
0.00455688
0.00417367
0.00377557
0.00338639
0.00296252
0.00253656
0.00205466
0.00156165
0.000972021
0.000373962
-0.117834
-0.124833
-0.126496
-0.124492
-0.121257
-0.117959
-0.114629
-0.110872
-0.106382
-0.101079
-0.0950474
-0.0884178
-0.0813156
-0.0738515
-0.0661379
-0.0583003
-0.0504772
-0.0428113
-0.0354378
-0.0284761
-0.0220235
-0.0161526
-0.01091
-0.0063174
-0.00237358
0.000942453
0.0036674
0.00584969
0.00754546
0.00881438
0.00971597
0.010307
0.0106397
0.0107617
0.0107156
0.0105388
0.0102638
0.00991798
0.0095238
0.00909806
0.00865544
0.00820449
0.00775573
0.00731045
0.00687813
0.00645277
0.00604486
0.00564279
0.00525562
0.00487373
0.0044942
0.0041234
0.00373402
0.00335411
0.00293657
0.00251721
0.00204019
0.001552
0.000966594
0.000371736
-0.105555
-0.1118
-0.113466
-0.111934
-0.109282
-0.106548
-0.103785
-0.100665
-0.0969149
-0.0924578
-0.0873531
-0.0817087
-0.0756276
-0.0692006
-0.0625181
-0.0556811
-0.0488027
-0.0420021
-0.0353959
-0.0290901
-0.0231753
-0.017723
-0.0127845
-0.00839053
-0.00455215
-0.00126251
0.00150001
0.00376899
0.00558672
0.00700054
0.00805959
0.00881249
0.00930551
0.00958164
0.00968047
0.00963747
0.0094841
0.00924712
0.00894924
0.00860798
0.00823899
0.00785172
0.00745783
0.00705947
0.00666726
0.00627597
0.00589698
0.00551957
0.0051529
0.00478915
0.00442383
0.00406667
0.00368713
0.00331736
0.00290714
0.00249496
0.0020238
0.00154074
0.000960557
0.000369153
-0.0942386
-0.0997967
-0.101449
-0.100315
-0.0981698
-0.0959301
-0.0936678
-0.0911071
-0.088009
-0.0842957
-0.0800101
-0.075239
-0.0700673
-0.0645685
-0.0588149
-0.0528873
-0.0468773
-0.0408836
-0.0350051
-0.0293349
-0.0239551
-0.0189342
-0.0143249
-0.0101637
-0.00647044
-0.0032493
-0.000491136
0.00182482
0.0037285
0.00525583
0.006446
0.00733942
0.00797594
0.00839362
0.00862828
0.0087129
0.00867734
0.00854737
0.00834544
0.00808933
0.00779532
0.00747354
0.00713658
0.00678733
0.00643742
0.00608236
0.00573425
0.00538344
0.00503893
0.00469493
0.0043452
0.00400294
0.00363445
0.00327572
0.00287393
0.00246952
0.00200529
0.00152774
0.000953768
0.000366273
-0.0838695
-0.0888135
-0.0904201
-0.0896021
-0.0878976
-0.0860872
-0.0842588
-0.0821844
-0.0796532
-0.0765892
-0.0730216
-0.0690201
-0.0646535
-0.0599811
-0.0550602
-0.0499547
-0.0447381
-0.0394912
-0.0342972
-0.0292364
-0.0243819
-0.0197975
-0.015535
-0.0116337
-0.00811926
-0.00500415
-0.00228912
3.5872e-05
0.00199007
0.00359915
0.00489292
0.00590376
0.006665
0.00720948
0.0075689
0.00777311
0.00784988
0.00782356
0.00771592
0.00754457
0.00732604
0.00707091
0.00679242
0.00649412
0.00618839
0.00587155
0.00555618
0.00523383
0.00491313
0.00459047
0.00425778
0.0039317
0.00357552
0.00322878
0.00283659
0.00244063
0.00198441
0.00151291
0.000946082
0.000363135
-0.0744409
-0.0788097
-0.0803498
-0.0798104
-0.0784432
-0.0769931
-0.0755376
-0.0738804
-0.0718369
-0.0693346
-0.0663919
-0.0630638
-0.0594058
-0.055465
-0.0512862
-0.0469193
-0.0424229
-0.0378624
-0.0333068
-0.0288243
-0.0244793
-0.0203293
-0.0164237
-0.0128023
-0.00949422
-0.0065175
-0.00388048
-0.00158176
0.000388923
0.00204829
0.0034176
0.00452164
0.00538729
0.00604201
0.00651316
0.00682715
0.00700911
0.00708153
0.00706514
0.00697697
0.00683348
0.00664537
0.0064263
0.00618029
0.0059203
0.00564339
0.00536247
0.00507031
0.00477504
0.00447528
0.00416108
0.00385245
0.00350992
0.00317615
0.00279479
0.00240802
0.00196092
0.00149615
0.000937358
0.00035975
-0.0658586
-0.0696875
-0.0711305
-0.0707894
-0.0697422
-0.0686085
-0.0674727
-0.0661728
-0.0645469
-0.0625272
-0.0601245
-0.0573817
-0.0543431
-0.0510457
-0.047524
-0.0438167
-0.0399696
-0.0360353
-0.0320701
-0.0281313
-0.0242743
-0.0205503
-0.0170048
-0.0136765
-0.0105958
-0.00778429
-0.00525564
-0.00301516
-0.00105985
0.000619421
0.00203638
0.00320881
0.00415751
0.00490456
0.00547274
0.00588487
0.00616325
0.00632803
0.00639847
0.00639067
0.00632071
0.00619913
0.0060397
0.00584678
0.00563365
0.00539806
0.00515305
0.00489264
0.00462431
0.00434895
0.00405467
0.00376478
0.00343724
0.00311746
0.00274819
0.00237146
0.00193457
0.00147736
0.000927472
0.000356109
-0.0580515
-0.0614005
-0.0627436
-0.0625674
-0.0617823
-0.0609126
-0.0600441
-0.0590428
-0.0577694
-0.0561608
-0.0542209
-0.051983
-0.0494822
-0.046747
-0.0438036
-0.0406813
-0.0374157
-0.0340481
-0.0306244
-0.0271917
-0.0237971
-0.020485
-0.0172965
-0.014268
-0.0114294
-0.00880408
-0.00640923
-0.00425503
-0.00234411
-0.000673465
0.000764127
0.00198022
0.00299
0.00381045
0.00445979
0.00495703
0.00532139
0.00557056
0.00572203
0.00579058
0.00579155
0.00573505
0.00563471
0.00549501
0.00532936
0.00513606
0.00492813
0.00470081
0.00446079
0.0042112
0.00393823
0.00366832
0.00335712
0.00305239
0.00269647
0.00233071
0.00190513
0.00145645
0.000916316
0.000352187
-0.0509787
-0.0538984
-0.055138
-0.0550901
-0.0545143
-0.0538617
-0.0532154
-0.0524658
-0.0514896
-0.0502282
-0.0486818
-0.046876
-0.0448384
-0.0425909
-0.0401529
-0.0375459
-0.0347971
-0.0319388
-0.0290073
-0.0260413
-0.0230799
-0.0201611
-0.0173209
-0.0145926
-0.0120048
-0.00958099
-0.0073402
-0.00529598
-0.00345504
-0.00181912
-0.000386336
0.000849441
0.00189834
0.00277271
0.00348644
0.00405459
0.00449319
0.00481741
0.00504279
0.00518241
0.00525057
0.00525671
0.00521404
0.00512698
0.00500882
0.00485832
0.00468827
0.00449508
0.00428452
0.00406193
0.00381155
0.00356282
0.00326927
0.00298067
0.00263935
0.00228559
0.00187238
0.00143331
0.000903805
0.000347953
-0.0445869
-0.0471195
-0.0482521
-0.0482995
-0.0478972
-0.0474293
-0.0469659
-0.0464206
-0.0456888
-0.044718
-0.0435039
-0.0420654
-0.0404241
-0.0385968
-0.0365972
-0.034441
-0.0321482
-0.0297438
-0.0272562
-0.0247164
-0.0221565
-0.0196084
-0.0171032
-0.0146704
-0.0123363
-0.0101235
-0.00805182
-0.00613663
-0.00438739
-0.00280932
-0.00140475
-0.000171964
0.000894794
0.00180364
0.00256441
0.00318848
0.00368866
0.00407749
0.00436835
0.00457255
0.00470304
0.00476834
0.00478104
0.00474523
0.00467393
0.00456617
0.00443438
0.004276
0.0040958
0.00390125
0.00367459
0.00344818
0.00317348
0.00290211
0.00257658
0.00223591
0.00183616
0.00140783
0.000889877
0.000343377
-0.0388141
-0.0410036
-0.042033
-0.0421536
-0.0418932
-0.041573
-0.0412564
-0.0408771
-0.0403477
-0.0396191
-0.0386833
-0.0375545
-0.0362497
-0.0347814
-0.0331593
-0.0313943
-0.0295009
-0.0274978
-0.0254069
-0.0232528
-0.0210612
-0.0188585
-0.0166708
-0.014524
-0.0124415
-0.0104442
-0.00855149
-0.00677966
-0.00513969
-0.00363911
-0.00228347
-0.00107462
-1.02881e-05
0.000914025
0.00170456
0.00236928
0.00291777
0.00335989
0.00370672
0.0039679
0.00415481
0.00427481
0.00433964
0.00435291
0.00432712
0.00426145
0.00416778
0.00404451
0.00389523
0.00372951
0.0035275
0.00332441
0.00306966
0.00281661
0.00250801
0.00218155
0.00179633
0.00137994
0.000874492
0.000338436
-0.03361
-0.0354981
-0.0364292
-0.0366026
-0.0364547
-0.0362564
-0.0360634
-0.0358169
-0.0354492
-0.0349177
-0.0342127
-0.0333432
-0.0323218
-0.031158
-0.0298586
-0.0284306
-0.0268842
-0.0252331
-0.0234938
-0.0216853
-0.0198282
-0.0179436
-0.0160532
-0.014179
-0.0123415
-0.0105592
-0.00885059
-0.00723182
-0.00571447
-0.00430731
-0.00301809
-0.00185145
-0.000808017
0.000113604
0.000916698
0.00160648
0.00218969
0.00267339
0.00306611
0.00337576
0.00361222
0.00378151
0.00389436
0.00395368
0.00397134
0.00394647
0.00389023
0.00380189
0.00368372
0.00354734
0.00337065
0.00319174
0.0029579
0.00272417
0.00243357
0.00212244
0.00175281
0.00134957
0.00085763
0.000333114
-0.0289285
-0.0305517
-0.0313896
-0.0316
-0.0315415
-0.0314402
-0.0313444
-0.031207
-0.0309693
-0.0305979
-0.0300827
-0.0294286
-0.0286445
-0.0277373
-0.0267114
-0.0255715
-0.0243242
-0.0229792
-0.0215488
-0.0200474
-0.0184907
-0.0168959
-0.0152803
-0.0136623
-0.0120594
-0.0104876
-0.00896374
-0.00750345
-0.00611806
-0.00481679
-0.00360859
-0.00249987
-0.00149324
-0.00058976
0.000210727
0.000910277
0.00151339
0.00202615
0.0024543
0.00280343
0.00308182
0.00329418
0.00345011
0.00355171
0.00361002
0.00362399
0.00360393
0.00354986
0.00346255
0.00335568
0.00320468
0.00305063
0.00283842
0.00262494
0.00235332
0.00205858
0.0017056
0.00131669
0.000839292
0.000327408
-0.0247238
-0.0261152
-0.0268666
-0.0271017
-0.0271134
-0.0270888
-0.0270696
-0.0270176
-0.0268841
-0.0266411
-0.0262807
-0.0258045
-0.0252179
-0.0245255
-0.0237301
-0.0228346
-0.0218433
-0.0207626
-0.0196013
-0.0183699
-0.0170807
-0.0157468
-0.0143821
-0.0130017
-0.0116199
-0.0102503
-0.00890789
-0.00760719
-0.00635889
-0.0051721
-0.00405645
-0.00301967
-0.00206557
-0.00119577
-0.000411527
0.000286093
0.000897102
0.00142748
0.00187984
0.00225869
0.00257062
0.00281902
0.00301231
0.00315162
0.00324706
0.00329726
0.00331151
0.00329054
0.00323336
0.00315581
0.00303051
0.00290175
0.00271169
0.00251923
0.00226746
0.00199007
0.00165478
0.00128134
0.000819501
0.000321322
-0.0209557
-0.0221462
-0.0228187
-0.0230693
-0.0231356
-0.0231716
-0.0232127
-0.0232283
-0.0231767
-0.0230346
-0.0227967
-0.0224655
-0.0220424
-0.0215288
-0.0209259
-0.0202357
-0.0194613
-0.0186069
-0.0176781
-0.0166823
-0.0156287
-0.0145273
-0.013389
-0.0122258
-0.0110494
-0.00987075
-0.00870288
-0.00755889
-0.00644834
-0.00537963
-0.00436254
-0.00340557
-0.0025142
-0.00169249
-0.000942875
-0.000266072
0.000333462
0.000878423
0.00134667
0.00174609
0.00208359
0.00236116
0.00258591
0.002758
0.00288655
0.00296984
0.00301598
0.00302642
0.00299816
0.00294936
0.00284939
0.00274608
0.00257841
0.00240753
0.00217633
0.0019171
0.00160049
0.00124358
0.000798301
0.000314874
-0.0175775
-0.018593
-0.0191935
-0.0194524
-0.0195606
-0.0196437
-0.0197311
-0.0197985
-0.0198122
-0.0197512
-0.0196117
-0.0193975
-0.0191079
-0.0187415
-0.0182988
-0.017781
-0.0171898
-0.0165275
-0.0157978
-0.0150057
-0.0141579
-0.0132621
-0.0123263
-0.0113602
-0.0103726
-0.00937237
-0.00837049
-0.00737852
-0.0064046
-0.00545586
-0.0045414
-0.0036694
-0.00284445
-0.00207024
-0.00135273
-0.000697811
-0.000100822
0.000409434
0.000873043
0.00128043
0.00163247
0.00192988
0.00217841
0.00237702
0.0025336
0.002646
0.0027209
0.00276049
0.00275938
0.00273832
0.00266287
0.00258486
0.00243952
0.00229054
0.00208047
0.00183999
0.001543
0.00120358
0.00077575
0.000308077
-0.0145862
-0.0154519
-0.0159867
-0.0162469
-0.0163852
-0.0165034
-0.0166268
-0.0167375
-0.0168086
-0.016822
-0.0167683
-0.0166437
-0.0164505
-0.0161962
-0.0158833
-0.0155091
-0.0150708
-0.0145691
-0.0140069
-0.0133885
-0.0127183
-0.0120016
-0.0112444
-0.0104541
-0.00963751
-0.0088013
-0.00795489
-0.00710852
-0.00626921
-0.00544332
-0.00463968
-0.00386654
-0.0031291
-0.00243001
-0.00176472