/*--------------------------------*- C++ -*----------------------------------*\
| =========                 |                                                 |
| \\      /  F ield         | OpenFOAM: The Open Source CFD Toolbox           |
|  \\    /   O peration     | Version:  2512                                  |
|   \\  /    A nd           | Website:  www.openfoam.com                      |
|    \\/     M anipulation  |                                                 |
\*---------------------------------------------------------------------------*/
FoamFile
{
    version     2.0;
    format      ascii;
    arch        "LSB;label=32;scalar=64";
    class       surfaceScalarField;
    location    "12";
    object      phi;
}
// * * * * * * * * * * * * * * * * * * * * * * * * * * * * * * * * * * * * * //

dimensions      [0 3 -1 0 0 0 0];

oriented        oriented;

internalField   nonuniform List<scalar> 
26232
(
4.02807e-05
0.00101232
-0.0010526
0.000385574
0.0020009
-0.00234619
0.00121511
0.00208144
-0.00291098
0.0026892
0.00128493
-0.00275902
0.00496477
-0.000377994
-0.00189758
0.00819886
-0.00290909
-0.000324999
0.012544
-0.00631278
0.00196763
0.0181362
-0.0105846
0.00499248
0.0250768
-0.0156985
0.00875786
0.0334124
-0.021596
0.0132603
0.043116
-0.0281805
0.018477
0.0540743
-0.0353172
0.0243589
0.0660849
-0.0428388
0.0308281
0.0788647
-0.0505573
0.0377776
0.0920678
-0.058278
0.0450749
0.105313
-0.0658151
0.0525697
0.118217
-0.0730063
0.0601022
0.130427
-0.0797264
0.0675165
0.141657
-0.0858924
0.0746628
0.151699
-0.0914849
0.0814425
0.160463
-0.0964828
0.0877189
0.167891
-0.101065
0.093638
0.173891
-0.104876
0.0988758
-0.109066
0.10466
0.178297
7.54619e-05
0.000936857
0.000559562
0.0015168
0.00166964
0.000971362
0.00360384
-0.000649268
0.00655144
-0.00332559
0.0106876
-0.00704523
0.0161579
-0.0117831
0.023056
-0.0174827
0.0313986
-0.0240411
0.0411062
-0.0313036
0.0519943
-0.0390686
0.0637797
-0.0471026
0.0761022
-0.0551613
0.0885574
-0.0630125
0.100738
-0.0704583
0.112274
-0.0773511
0.122872
-0.0836043
0.132341
-0.0891952
0.140608
-0.0941597
0.147704
-0.098581
0.153784
-0.102562
0.158974
-0.106256
0.16372
-0.109622
-0.1133
0.167954
0.000143464
0.000793393
0.000846996
0.000813268
0.00235671
-0.000538349
0.00489753
-0.00319009
0.0086718
-0.00709986
0.0138406
-0.012214
0.0204957
-0.0184382
0.0286298
-0.0256168
0.0381158
-0.0335271
0.0487035
-0.0418912
0.0600371
-0.0504022
0.0716928
-0.0587583
0.0832281
-0.0666966
0.0942348
-0.0740193
0.104386
-0.0806092
0.113468
-0.0864332
0.121397
-0.0915339
0.128214
-0.0960119
0.134056
-0.100001
0.139122
-0.103648
0.143632
-0.107072
0.147783
-0.110407
0.151768
-0.113606
-0.117117
0.155585
0.000239181
0.000554212
0.00123131
-0.000178862
0.00323844
-0.00254548
0.00649266
-0.00644431
0.0111776
-0.0117848
0.0173939
-0.0184303
0.0251227
-0.0261671
0.0342016
-0.0346957
0.0443253
-0.0436508
0.0550766
-0.0526426
0.0659813
-0.0613069
0.0765744
-0.0693514
0.0864628
-0.0765851
0.0953727
-0.0829291
0.103172
-0.0884084
0.109867
-0.0931286
0.115578
-0.0972441
0.120491
-0.100925
0.124821
-0.104331
0.128764
-0.107591
0.132485
-0.110793
0.136083
-0.114005
0.139679
-0.117202
-0.120667
0.143229
0.000356709
0.000197504
0.00169018
-0.00151233
0.00426115
-0.00511645
0.0082802
-0.0104634
0.013869
-0.0173736
0.021014
-0.0255753
0.0295342
-0.0346873
0.0390836
-0.0442451
0.0491938
-0.053761
0.0593475
-0.0627962
0.069062
-0.0710215
0.0779611
-0.0782505
0.0858187
-0.0844426
0.0925683
-0.0896787
0.098281
-0.0941212
0.103122
-0.0979693
0.107297
-0.10142
0.111012
-0.10464
0.114436
-0.107755
0.117694
-0.110849
0.120872
-0.11397
0.124016
-0.11715
0.127184
-0.120371
-0.123795
0.130313
0.000491407
-0.000293903
0.00220178
-0.00322271
0.00536658
-0.00828125
0.010137
-0.0152337
0.0165225
-0.0237592
0.0243454
-0.0333982
0.0332364
-0.0435783
0.0426855
-0.0536941
0.0521339
-0.0632094
0.0610766
-0.071739
0.0691439
-0.0790888
0.076142
-0.0852486
0.0820493
-0.0903499
0.0869777
-0.0946071
0.0911168
-0.0982603
0.0946778
-0.10153
0.0978518
-0.104594
0.100789
-0.107577
0.103594
-0.11056
0.106334
-0.113589
0.109051
-0.116688
0.111768
-0.119867
0.114516
-0.123119
-0.126528
0.117249
0.000639346
-0.000933249
0.00274346
-0.00532682
0.00649051
-0.0120283
0.0119273
-0.0206706
0.0189032
-0.0307351
0.0270484
-0.0415434
0.0358229
-0.0523528
0.0446247
-0.0624958
0.0529138
-0.0714985
0.060308
-0.0791332
0.0666239
-0.0854047
0.0718629
-0.0904876
0.0761595
-0.0946465
0.0797159
-0.0981636
0.0827436
-0.101288
0.0854248
-0.104211
0.0878967
-0.107066
0.0902519
-0.109932
0.0925483
-0.112856
0.09482
-0.115861
0.0970873
-0.118955
0.0993608
-0.12214
0.101655
-0.125413
-0.128808
0.103935
0.000795537
-0.00172879
0.0032879
-0.00781918
0.00755913
-0.0162995
0.0135063
-0.0266178
0.0207869
-0.0380157
0.0288489
-0.0496054
0.0370463
-0.0605502
0.0447876
-0.0702371
0.0516524
-0.0783633
0.0574415
-0.0849222
0.0621572
-0.0901205
0.0659425
-0.0942728
0.069006
-0.09771
0.0715605
-0.100718
0.0737849
-0.103512
0.0758105
-0.106237
0.0777236
-0.108979
0.0795767
-0.111785
0.0813999
-0.11468
0.0832104
-0.117671
0.0850184
-0.120763
0.0868303
-0.123952
0.0886539
-0.127237
-0.130621
0.0904675
0.000952652
-0.00268144
0.00380149
-0.010668
0.00849122
-0.0209892
0.0147338
-0.0328604
0.0219928
-0.0452747
0.0295857
-0.0571983
0.036853
-0.0678176
0.0433077
-0.0766917
0.0487036
-0.0837592
0.0530209
-0.0892395
0.0563968
-0.0934964
0.0590426
-0.0969186
0.0611748
-0.0998423
0.0629746
-0.102518
0.0645728
-0.105111
0.0660545
-0.107719
0.0674699
-0.110394
0.0688471
-0.113163
0.0702019
-0.116034
0.0715436
-0.119013
0.072878
-0.122097
0.0742095
-0.125284
0.0755416
-0.128569
-0.131942
0.0768625
0.00110096
-0.0037824
0.0042464
-0.0138135
0.00920739
-0.0259502
0.015496
-0.0391489
0.0224149
-0.0521936
0.0292305
-0.0640139
0.0353593
-0.0739464
0.0404737
-0.0818061
0.0445028
-0.0877883
0.0475618
-0.0922985
0.049859
-0.0957936
0.0516166
-0.0986762
0.0530226
-0.101248
0.0542134
-0.103709
0.0552766
-0.106174
0.0562635
-0.108706
0.057202
-0.111333
0.0581073
-0.114068
0.0589883
-0.116915
0.0598507
-0.119875
0.0606982
-0.122945
0.0615339
-0.12612
0.0623593
-0.129394
-0.132754
0.0631705
0.00122992
-0.00501232
0.0045867
-0.0171702
0.00964351
-0.031007
0.0157245
-0.04523
0.0220337
-0.0585028
0.0278699
-0.0698502
0.0327863
-0.0788627
0.0366252
-0.085645
0.0394563
-0.0906194
0.0414744
-0.0943167
0.0429066
-0.0972258
0.0439521
-0.0997217
0.0447578
-0.102054
0.0454187
-0.104369
0.0459898
-0.106745
0.0465009
-0.109217
0.0469674
-0.111799
0.0473981
-0.114499
0.0477989
-0.117316
0.0481734
-0.12025
0.0485246
-0.123296
0.0488541
-0.126449
0.0491612
-0.129701
-0.133039
0.0494463
0.00133242
-0.00634475
0.00479691
-0.0206347
0.00976231
-0.0359724
0.0154052
-0.0508729
0.0209066
-0.0640042
0.025666
-0.0746096
0.029396
-0.0825927
0.0320862
-0.0883352
0.0338991
-0.0924323
0.0350606
-0.0954782
0.0357832
-0.0979484
0.0362297
-0.100168
0.0365069
-0.102331
0.0366773
-0.10454
0.0367743
-0.106842
0.0368149
-0.109257
0.036808
-0.111792
0.0367592
-0.11445
0.0366729
-0.11723
0.0365524
-0.120129
0.0364003
-0.123144
0.0362177
-0.126267
0.0360034
-0.129487
0.0357598
-0.132795
-0.000517813
0.000527289
-9.47671e-06
-0.00175346
0.00124277
-7.11895e-06
-0.00353189
0.00176129
1.71459e-05
-0.00573712
0.00214532
5.99063e-05
-0.00828952
0.00243551
0.000116887
-0.011136
0.00266171
0.000184788
-0.0142428
0.00284499
0.000261813
-0.0175891
0.00299873
0.0003475
-0.0211614
0.00313012
0.000442245
-0.02495
0.00324181
0.000546751
-0.0289449
0.00333329
0.000661601
-0.033134
0.00340212
0.000787011
-0.0375016
0.00344484
0.000922728
-0.0420271
0.00345753
0.00106801
-0.0466849
0.00343621
0.00122159
-0.0514438
0.00337714
0.00138175
-0.0562671
0.00327706
0.00154624
-0.061113
0.00313357
0.00171236
-0.0659359
0.00294577
0.0018771
-0.0706876
0.00271442
0.00203727
-0.0753175
0.00244048
0.00218947
-0.0797732
0.00212552
0.00233016
-0.0840154
0.00178466
0.00245748
0.00145166
-0.088042
0.00257497
-0.000465084
0.000992374
-0.00158899
0.00236667
-0.00321821
0.00339052
-0.00524668
0.00417378
-0.0075979
0.00478673
-0.0102176
0.00528143
-0.0130681
0.00569548
-0.016123
0.00605366
-0.019363
0.00637007
-0.0227716
0.00665044
-0.0263326
0.00689432
-0.0300276
0.00709706
-0.0338341
0.0072514
-0.0377251
0.00734853
-0.0416679
0.00737892
-0.0456235
0.00733281
-0.0495473
0.00720079
-0.0533881
0.00697441
-0.0570898
0.00664749
-0.0605934
0.00621797
-0.0638408
0.00568786
-0.0667744
0.00505914
-0.0693377
0.00434803
0.00365741
-0.0715435
-0.000362449
0.00135482
-0.00126453
0.00326875
-0.00259313
0.00471912
-0.00426132
0.00584198
-0.00619941
0.00672482
-0.00835162
0.00743364
-0.0106734
0.00801721
-0.0131282
0.00850855
-0.0156853
0.00892712
-0.0183161
0.00928124
-0.0209924
0.00957062
-0.0236841
0.00978881
-0.026358
0.00992523
-0.0289761
0.00996664
-0.0314954
0.00989821
-0.0338668
0.00970423
-0.0360347
0.0093687
-0.0379362
0.00887594
-0.0395004
0.00821165
-0.0406479
0.00736549
-0.0412966
0.00633652
-0.0413727
0.00513531
-0.0407917
0.00376701
0.00225815
-0.0393924
-0.000230602
0.00158542
-0.000840403
0.00387855
-0.00176545
0.00564416
-0.00294334
0.00701988
-0.00431444
0.00809592
-0.00582304
0.00894224
-0.00741792
0.00961209
-0.00905204
0.0101427
-0.0106816
0.0105567
-0.0122648
0.0108644
-0.0137604
0.0110662
-0.0151262
0.0111547
-0.0163184
0.0111174
-0.0172901
0.0109383
-0.0179907
0.0105989
-0.0183658
0.0100793
-0.0183557
0.00935857
-0.0178948
0.00841502
-0.0169099
0.0072268
-0.0153173
0.00577282
-0.0130155
0.00403472
-0.00988712
0.00200697
-0.00584494
-0.000275179
-0.0027003
-0.00088649
-9.46652e-05
0.00168009
-0.000391989
0.00417587
-0.000874209
0.00612638
-0.0015036
0.00764927
-0.00223241
0.00882473
-0.00300779
0.00971762
-0.00377497
0.0103793
-0.00447927
0.010847
-0.00506698
0.0111444
-0.00548562
0.0112831
-0.00568361
0.0112642
-0.00560975
0.0110808
-0.00521243
0.0107201
-0.00443904
0.0101649
-0.00323527
0.00939514
-0.00154451
0.00838856
0.00069269
0.00712137
0.00353905
0.00556866
0.00706395
0.0037019
0.0113416
0.00149516
0.0164559
-0.00107957
0.0225145
-0.00405163
0.029591
-0.00735167
-0.0112656
0.0381563
2.22263e-05
0.00165786
7.69991e-06
0.0041904
-5.89438e-05
0.00619302
-0.000159183
0.00774951
-0.000256512
0.00892205
-0.000303317
0.00976442
-0.000245432
0.0103214
-2.5456e-05
0.010627
0.000415041
0.0107039
0.0011342
0.0105639
0.00218935
0.010209
0.00363695
0.00963321
0.00553309
0.00882396
0.00793407
0.00776391
0.0108972
0.00643204
0.0144815
0.0048042
0.0187504
0.0028525
0.0237641
0.000554985
0.0296005
-0.00213453
0.0363304
-0.00523475
0.044022
-0.00877115
0.0527964
-0.0128261
0.0626168
-0.017172
-0.0227207
0.0740719
0.000102806
0.00155506
0.000302228
0.00399098
0.000569115
0.00592613
0.000911673
0.00740695
0.00135849
0.00847523
0.0019516
0.00917131
0.00274181
0.00953119
0.00378517
0.00958363
0.00514049
0.00934858
0.00686772
0.00883667
0.00902715
0.0080496
0.0116793
0.00698105
0.0148854
0.00561788
0.0187084
0.00394089
0.0232137
0.00192675
0.0284669
-0.000449056
0.0345475
-0.00322805
0.0415332
-0.0064307
0.0494932
-0.0100946
0.058511
-0.0142525
0.068639
-0.0188991
0.0799958
-0.0241829
0.0924004
-0.0295766
-0.0368313
0.106511
0.000140536
0.00141452
0.000465629
0.00366588
0.000952451
0.00543931
0.00161024
0.00674916
0.00246573
0.00761974
0.00355799
0.00807906
0.00493513
0.00815404
0.00665184
0.00786692
0.00876755
0.00723287
0.0113454
0.00625881
0.0144519
0.00494314
0.018157
0.00327593
0.022534
0.00124085
0.0276616
-0.00118672
0.0336236
-0.00403519
0.0405078
-0.00733324
0.0483935
-0.0111138
0.0573661
-0.0154033
0.067493
-0.0202214
0.0788263
-0.0255858
0.091373
-0.0314458
0.105162
-0.0379719
0.119953
-0.0443676
-0.0529526
0.136074
0.000138441
0.00127608
0.000504057
0.00330027
0.00109809
0.00484529
0.00194187
0.00590537
0.00306835
0.00649327
0.0045201
0.00662731
0.00634854
0.0063256
0.00861333
0.00560214
0.0113819
0.00446428
0.0147294
0.00291131
0.0187379
0.000934683
0.0234969
-0.00148311
0.0291016
-0.00436389
0.0356483
-0.00773343
0.043231
-0.0116178
0.0519363
-0.0160386
0.0618316
-0.0210092
0.0729583
-0.02653
0.0853191
-0.0325822
0.0988659
-0.0391326
0.113499
-0.0460794
0.129037
-0.053509
0.145302
-0.0606332
-0.0695759
0.161925
0.0001089
0.00116718
0.000455321
0.00295385
0.00107746
0.00422315
0.00201901
0.00496382
0.00332905
0.00518323
0.00506413
0.00489224
0.00729021
0.00409951
0.0100839
0.00280843
0.0135327
0.00101546
0.0177342
-0.00129019
0.0227937
-0.00412476
0.028818
-0.00750746
0.0359105
-0.0114563
0.0441604
-0.0159833
0.0536324
-0.0210898
0.0643551
-0.0267613
0.0763097
-0.0329638
0.0894217
-0.0396421
0.103555
-0.0467152
0.11851
-0.054088
0.13404
-0.0616092
0.149773
-0.0692425
0.165574
-0.0764335
-0.0844768
0.180475
7.06066e-05
0.00109657
0.000379379
0.00264507
0.00100888
0.00359365
0.00203416
0.00393854
0.00353135
0.00368604
0.00558331
0.00284027
0.00828312
0.00139971
0.011735
-0.000643463
0.0160528
-0.00330232
0.0213536
-0.00659096
0.0277495
-0.0105207
0.0353357
-0.0150936
0.0441764
-0.020297
0.0542913
-0.0260983
0.0656431
-0.0324416
0.0781291
-0.0392472
0.0915774
-0.046412
0.105751
-0.053816
0.120356
-0.06132
0.135069
-0.0688009
0.149544
-0.0760843
0.163457
-0.0831555
0.17663
-0.089606
-0.0960194
0.188172
4.39747e-05
0.000342855
0.00102552
0.00220504
0.0039935
0.00650877
0.00987611
0.0142251
0.0196807
0.02635
0.0343063
0.0435716
0.0541027
0.065782
0.0784152
0.0917377
0.105428
0.119128
0.132471
0.145113
0.156747
0.16723
0.1765
0.18514
-0.0887703
-0.00288813
0.00361643
-0.0881826
-0.00422243
0.00363477
-0.0862676
-0.00538464
0.00346966
-0.0828612
-0.00658381
0.00317734
-0.07788
-0.00770515
0.00272393
-0.0712277
-0.0087053
0.00205307
-0.062832
-0.00952484
0.00112911
-0.0526945
-0.0101116
-2.58859e-05
-0.0409279
-0.0104288
-0.00133775
-0.0276264
-0.0104529
-0.00284858
-0.0131073
-0.0100743
-0.00444486
0.00239073
-0.009438
-0.00605998
0.0183789
-0.00845068
-0.00753747
0.0344538
-0.00725636
-0.00881856
0.0502002
-0.00592433
-0.00982205
0.0652488
-0.00453604
-0.0105125
0.0793226
-0.00317772
-0.0108961
0.0922541
-0.00191828
-0.0110132
0.103952
-0.000759677
-0.0109382
0.11441
0.000276933
-0.010735
0.123695
0.00117363
-0.0104585
0.131896
0.0019674
-0.0101682
0.139129
0.00266543
-0.00989906
0.145515
0.00328986
-0.00967575
0.151164
0.0038644
-0.00951338
0.156177
0.00440959
-0.00942215
0.160644
0.00492678
-0.00939423
0.164625
0.00545169
-0.00943235
0.168159
0.00600546
-0.00953925
0.171268
0.00659452
-0.00970393
0.17396
0.00723248
-0.00992472
0.176246
0.00790665
-0.0101919
0.17814
0.00860489
-0.010499
0.179672
0.00931401
-0.010846
0.180883
0.0100314
-0.0112426
0.181821
0.0107702
-0.011708
0.182531
0.0115529
-0.0122634
0.183054
0.0124041
-0.0129275
0.183424
0.0133359
-0.0137052
0.183665
0.0143663
-0.0146075
0.183799
0.0154764
-0.0156109
0.183844
0.0167167
-0.0167608
0.183812
0.0179928
-0.0179615
0.183714
0.0195121
-0.0194142
0.183563
0.0209095
-0.0207579
0.183358
0.0228902
-0.0226851
0.183114
0.0242798
-0.0240365
0.182823
0.0270598
-0.0267688
0.182504
0.0282201
-0.0279008
0.182143
0.0321931
-0.0318316
0.181754
0.0330369
-0.0326481
0.181333
0.0383191
-0.0378988
0.180881
0.0392083
-0.038756
0.180404
0.0456149
-0.0451378
0.1799
0.0469072
-0.046403
0.179366
0.0548251
-0.0542908
0.178811
0.0562039
-0.0556489
0.178229
0.0663482
-0.0657669
0.177623
0.0680597
-0.0674536
0.0804596
-0.0798278
-0.0723384
-0.00209317
-0.0719165
-0.00464433
-0.0702759
-0.00702531
-0.067279
-0.00958064
-0.0628193
-0.0121649
-0.0568056
-0.014719
-0.049171
-0.0171595
-0.0399043
-0.0193783
-0.0290955
-0.0212376
-0.0167487
-0.0227998
-0.00322351
-0.0235995
0.0110696
-0.0237311
0.0259328
-0.0233138
0.0409379
-0.0222615
0.0556733
-0.0206597
0.0697896
-0.0186523
0.0830248
-0.0164129
0.095215
-0.0141085
0.106286
-0.011831
0.116222
-0.00965918
0.125059
-0.00766274
0.132887
-0.00586078
0.139812
-0.00425909
0.145945
-0.00284345
0.151392
-0.00158287
0.156235
-0.00043367
0.160578
0.000584143
0.164467
0.00156249
0.16794
0.00253304
0.171018
0.0035162
0.173698
0.00455252
0.175987
0.00561735
0.177895
0.00669739
0.179444
0.00776431
0.180675
0.00880111
0.181632
0.00981333
0.182361
0.0108234
0.182904
0.0118615
0.183293
0.012947
0.183554
0.0141051
0.183708
0.0153219
0.183772
0.0166528
0.183761
0.0180043
0.183682
0.0195905
0.18355
0.0210415
0.183364
0.0230761
0.18314
0.0245038
0.182868
0.0273321
0.182568
0.0285203
0.182224
0.0325371
0.181854
0.0334069
0.181449
0.0387238
0.181015
0.039643
0.180551
0.0460788
0.180061
0.0473967
0.179536
0.05535
0.178992
0.0567485
0.178413
0.0669263
0.177811
0.0686619
0.0810972
-0.0398481
-0.00163751
-0.0393555
-0.00513696
-0.0378603
-0.00852052
-0.0352015
-0.0122394
-0.0312988
-0.0160676
-0.0260605
-0.0199572
-0.0194136
-0.0238064
-0.0113209
-0.0274709
-0.00178721
-0.0307713
0.00867121
-0.0332582
0.0202483
-0.0351765
0.0326858
-0.0361687
0.045581
-0.036209
0.058578
-0.0352586
0.0713246
-0.0334063
0.0835137
-0.0308414
0.0949162
-0.0278154
0.105396
-0.0245888
0.114904
-0.0213384
0.123428
-0.0181838
0.131012
-0.0152466
0.137734
-0.0125824
0.143686
-0.0102114
0.148967
-0.00812408
0.153672
-0.00628806
0.157901
-0.00466265
0.161694
-0.00320875
0.165117
-0.0018603
0.168189
-0.000539148
0.170961
0.000744243
0.173406
0.00210754
0.175529
0.00349394
0.177325
0.00490125
0.178807
0.00628228
0.180003
0.00760575
0.180949
0.0088676
0.181684
0.0100881
0.182244
0.0113013
0.182658
0.0125325
0.182951
0.013813
0.18314
0.0151329
0.18324
0.0165521
0.183267
0.0179776
0.183228
0.0196298
0.183136
0.0211336
0.18299
0.0232216
0.182807
0.0246864
0.182577
0.0275631
0.182319
0.0287779
0.182017
0.0328394
0.18169
0.0337332
0.181327
0.0390872
0.180936
0.0400335
0.180513
0.0465023
0.180066
0.0478434
0.17958
0.0558361
0.179076
0.0572528
0.178532
0.0674703
0.177966
0.0692281
0.0817075
9.82948e-05
-0.00262229
0.000649956
-0.00568863
0.00210449
-0.00997504
0.00439976
-0.0145346
0.00762403
-0.0192919
0.011875
-0.0242082
0.0172283
-0.0291597
0.0237049
-0.0339475
0.0312539
-0.0383204
0.039932
-0.0419362
0.0494538
-0.0446984
0.059618
-0.0463328
0.0701229
-0.0467139
0.0806718
-0.0458075
0.090979
-0.0437135
0.1008
-0.0406624
0.109954
-0.0369692
0.118333
-0.0329684
0.125916
-0.0289209
0.132708
-0.024976
0.138747
-0.0212851
0.144097
-0.017933
0.148836
-0.0149504
0.153044
-0.0123324
0.156803
-0.0100461
0.160177
-0.00803726
0.163224
-0.0062556
0.165996
-0.00463218
0.168545
-0.00308804
0.170851
-0.00156214
0.172921
3.7611e-05
0.174772
0.00164309
0.176374
0.00329881
0.17773
0.00492622
0.178853
0.00648272
0.179767
0.00795394
0.180499
0.00935573
0.181077
0.0107233
0.181524
0.0120857
0.181859
0.0134787
0.182096
0.0148951
0.18225
0.0163984
0.182333
0.0178947
0.182352
0.0196108
0.18232
0.0211654
0.182236
0.0233056
0.182117
0.0248059
0.181949
0.0277301
0.181758
0.0289697
0.181521
0.0330759
0.181263
0.0339909
0.180967
0.0393836
0.180647
0.0403534
0.180291
0.0468579
0.179916
0.0482191
0.179498
0.0562544
0.179064
0.0576866
0.178585
0.067949
0.178087
0.0697263
0.082257
0.0386514
-0.0031174
0.0398114
-0.00684858
0.0413157
-0.0114794
0.043314
-0.016533
0.0459183
-0.0218962
0.0492453
-0.0275352
0.0533772
-0.0332916
0.0583411
-0.0389114
0.064123
-0.0441023
0.0707166
-0.0485299
0.0779411
-0.0519228
0.0856139
-0.0540057
0.0935167
-0.0546167
0.101431
-0.0537217
0.109153
-0.0514355
0.116513
-0.0480228
0.123388
-0.0438439
0.1297
-0.0392805
0.135433
-0.034654
0.140609
-0.030152
0.145241
-0.0259169
0.149369
-0.0220604
0.153041
-0.0186226
0.156311
-0.0156027
0.159234
-0.0129686
0.16186
-0.0106641
0.164239
-0.00863372
0.166412
-0.00680585
0.168417
-0.00509276
0.170274
-0.00341893
0.172001
-0.00169005
0.173544
0.000100528
0.174939
0.00190346
0.176155
0.00371057
0.177196
0.00544127
0.178074
0.00707607
0.178805
0.00862488
0.179407
0.010122
0.179895
0.0115977
0.180283
0.0130906
0.180583
0.0145944
0.180806
0.0161755
0.180963
0.017738
0.181059
0.0195147
0.181107
0.0211172
0.181105
0.0233076
0.18107
0.0248408
0.18099
0.0278111
0.180887
0.0290726
0.18074
0.0332229
0.180575
0.0341556
0.180371
0.0395878
0.180148
0.0405766
0.179887
0.0471185
0.17961
0.0484958
0.179289
0.0565757
0.178955
0.0580201
0.178573
0.0683314
0.178175
0.0701246
0.0827124
0.0749175
-0.00396305
0.0761106
-0.00804166
0.0775238
-0.0128926
0.0791159
-0.018125
0.0809947
-0.0237751
0.083303
-0.0298435
0.0861184
-0.036107
0.0894684
-0.0422614
0.0933529
-0.0479867
0.0977488
-0.0529258
0.102547
-0.0567209
0.107615
-0.0590736
0.112819
-0.0598213
0.118041
-0.0589435
0.123175
-0.0565698
0.128139
-0.052986
0.132868
-0.0485734
0.137314
-0.043727
0.141451
-0.0387906
0.145292
-0.0339928
0.148825
-0.0294503
0.152045
-0.0252799
0.15496
-0.0215379
0.157589
-0.0182315
0.159955
-0.0153348
0.162088
-0.0127969
0.164017
-0.0105627
0.165776
-0.00856547
0.167404
-0.00672072
0.168924
-0.00493869
0.170362
-0.00312746
0.171698
-0.00123593
0.172916
0.000685812
0.174021
0.00260547
0.174999
0.00446263
0.175856
0.0062197
0.176597
0.00788336
0.177234
0.00948564
0.177775
0.0110562
0.17823
0.0126352
0.178609
0.0142162
0.178917
0.0158675
0.179164
0.0174902
0.179356
0.0193234
0.179503
0.0209698
0.179603
0.0232073
0.179674
0.0247702
0.179701
0.0277842
0.179709
0.0290642
0.179675
0.033257
0.179628
0.0342031
0.179541
0.0396746
0.17944
0.0406774
0.179301
0.0472573
0.179151
0.0486463
0.178955
0.0567713
0.178751
0.058224
0.178496
0.0685864
0.178229
0.0703914
0.0830405
0.107373
-0.00482488
0.108428
-0.00909687
0.109531
-0.0139952
0.110603
-0.0191975
0.111727
-0.0248991
0.112972
-0.0310888
0.114356
-0.0374902
0.11592
-0.0438262
0.117733
-0.0497996
0.119799
-0.0549919
0.122073
-0.0589942
0.124494
-0.0614951
0.127023
-0.0623503
0.129644
-0.0615641
0.132349
-0.0592753
0.135134
-0.0557701
0.137983
-0.0514227
0.140864
-0.0466083
0.143731
-0.041657
0.146551
-0.0368131
0.149302
-0.0322016
0.151923
-0.0279005
0.154377
-0.0239918
0.156644
-0.0204993
0.158719
-0.0174096
0.160605
-0.0146826
0.162313
-0.0122711
0.163867
-0.0101191
0.165298
-0.00815166
0.166637
-0.00627767
0.167906
-0.00439598
0.169125
-0.00245544
0.170237
-0.000425811
0.171286
0.00155593
0.17224
0.00350849
0.173102
0.00535775
0.173875
0.00711041
0.174564
0.0087973
0.175174
0.0104462
0.175711
0.012098
0.176182
0.0137454
0.17659
0.0154586
0.176946
0.0171347
0.17725
0.019019
0.177516
0.0207043
0.177738
0.0229854
0.177934
0.0245735
0.17809
0.0276284
0.178232
0.0289224
0.178333
0.0331557
0.178426
0.0341101
0.178481
0.0396195
0.178528
0.0406308
0.178538
0.0472479
0.17854
0.0486435
0.178499
0.056813
0.178453
0.0582694
0.178356
0.0686838
0.178252
0.0704957
0.0832084
0.136466
-0.00521609
0.136969
-0.00960072
0.137337
-0.0143629
0.1375
-0.0193601
0.137557
-0.0249562
0.137522
-0.0310542
0.137358
-0.0373259
0.137067
-0.0435355
0.136692
-0.0494241
0.136331
-0.0546317
0.136064
-0.0587269
0.135926
-0.0613568
0.135972
-0.0623961
0.136276
-0.0618681
0.136904
-0.0599041
0.137899
-0.0567645
0.139263
-0.0527874
0.14096
-0.0483049
0.142913
-0.0436095
0.145036
-0.0389368
0.147271
-0.0344368
0.149535
-0.0301637
0.151741
-0.0261984
0.15384
-0.0225976
0.155799
-0.0193692
0.157604
-0.0164878
0.159251
-0.0139182
0.160751
-0.0116183
0.162126
-0.00952733
0.163408
-0.00755969
0.164626
-0.00561367
0.165787
-0.00361651
0.166907
-0.0015458
0.16794
0.000523032
0.168914
0.00253408
0.169814
0.00445811
0.170643
0.00628085
0.171404
0.00803661
0.1721
0.00975017
0.172735
0.011463
0.173314
0.0131665
0.17384
0.014933
0.174319
0.016655
0.174754
0.0185844
0.175155
0.0203029
0.175518
0.0226231
0.17586
0.0242311
0.176165
0.0273234
0.176461
0.028626
0.17672
0.0328967
0.176977
0.0338536
0.177198
0.0393987
0.177416
0.0404123
0.177599
0.0470646
0.177782
0.0484611
0.177922
0.056673
0.178063
0.0581281
0.178153
0.0685935
0.178242
0.0704074
0.0831838
0.161414
-0.00470431
0.160897
-0.00908446
0.160051
-0.013516
0.158905
-0.0182145
0.157566
-0.0236168
0.155977
-0.0294653
0.154091
-0.0354403
0.15193
-0.0413746
0.149538
-0.0470315
0.146979
-0.0520735
0.144421
-0.0561685
0.142059
-0.0589946
0.140046
-0.060383
0.13852
-0.060342
0.137583
-0.0589675
0.137285
-0.0564669
0.137619
-0.0531213
0.138521
-0.0492066
0.139883
-0.0449719
0.141581
-0.0406339
0.143501
-0.036357
0.145559
-0.032222
0.147648
-0.0282873
0.149685
-0.0246348
0.151622
-0.0213057
0.15343
-0.018296
0.155097
-0.0155852
0.156624
-0.013145
0.158027
-0.0109304
0.159333
-0.00886576
0.160571
-0.00685233
0.161761
-0.00480574
0.162916
-0.00270128
0.163993
-0.000554254
0.165028
0.00149984
0.165999
0.00348688
0.166912
0.00536819
0.167766
0.00718181
0.168567
0.00894945
0.169317
0.0107133
0.17002
0.0124634
0.170678
0.0142749
0.171298
0.0160349
0.171879
0.0180031
0.172434
0.019748
0.172955
0.0221026
0.173462
0.0237241
0.173936
0.0268498
0.174407
0.0281545
0.174845
0.0324589
0.175286
0.0334119
0.175696
0.0389891
0.17611
0.0399985
0.176492
0.0466824
0.176879
0.048074
0.177228
0.0563246
0.177583
0.0577727
0.17789
0.0682864
0.1782
0.070097
0.082935
0.179148
-0.00337739
0.177498
-0.00743485
0.175323
-0.0113408
0.172847
-0.0157386
0.170117
-0.0208872
0.167028
-0.0263763
0.163567
-0.0319792
0.159783
-0.0375905
0.155738
-0.042986
0.151535
-0.0478709
0.14733
-0.0519633
0.143387
-0.055052
0.139954
-0.0569495
0.137214
-0.0576018
0.135278
-0.0570317
0.134182
-0.0553714
0.133894
-0.0528331
0.134321
-0.0496339
0.135334
-0.0459844
0.136783
-0.0420826
0.138524
-0.0380981
0.140451
-0.0341495
0.142483
-0.0303187
0.144518
-0.0266697
0.146486
-0.0232746
0.148346
-0.0201555
0.150076
-0.0173154
0.151673
-0.0147415
0.153147
-0.0124045
0.154522
-0.010241
0.155827
-0.00815765
0.157087
-0.00606592
0.158304
-0.00391747
0.159487
-0.00173781
0.160599
0.000387893
0.161673
0.00241341
0.162693
0.00434729
0.163664
0.00621127
0.164589
0.00802477
0.165471
0.00983142
0.166314
0.0116196
0.167121
0.0134683
0.167897
0.0152584
0.168642
0.017259
0.169367
0.019023
0.170063
0.0214066
0.170752
0.0230345
0.171413
0.0261889
0.172079
0.0274885
0.172716
0.0318221
0.173364
0.032764
0.173985
0.0383685
0.174616
0.0393668
0.175221
0.0460775
0.175838
0.0474575
0.17642
0.0557418
0.177016
0.057177
0.177568
0.0677343
0.178129
0.0695362
0.082431
0.186605
-0.00180982
0.184225
-0.00505524
0.18122
-0.00833588
0.177923
-0.0124414
0.174265
-0.0172294
0.170179
-0.0222905
0.165707
-0.0275072
0.160907
-0.0327898
0.155857
-0.0379366
0.150697
-0.0427103
0.145608
-0.0468748
0.140821
-0.0502654
0.13664
-0.0527681
0.133265
-0.0542267
0.130799
-0.0545661
0.129268
-0.0538405
0.12863
-0.0521947
0.128781
-0.049785
0.129583
-0.0467865
0.130883
-0.0433821
0.132531
-0.0397467
0.134405
-0.0360227
0.136403
-0.0323174
0.138452
-0.0287185
0.140481
-0.0253034
0.142428
-0.0221026
0.144261
-0.0191484
0.145967
-0.0164472
0.14755
-0.0139878
0.149031
-0.0117223
0.150439
-0.0095657
0.1518
-0.00742691
0.153127
-0.0052443
0.154421
-0.00303178
0.155653
-0.000844155
0.156846
0.00122073
0.158001
0.00319203
0.159109
0.00510339
0.160177
0.00695667
0.161209
0.00879929
0.162211
0.0106181
0.163182
0.0124968
0.164131
0.0143094
0.165054
0.0163359
0.165966
0.0181114
0.166854
0.0205184
0.167744
0.0221448
0.16861
0.0253228
0.169489
0.0266092
0.170345
0.0309666
0.171219
0.0318899
0.172072
0.0375156
0.172943
0.0384958
0.173794
0.0452267
0.174663
0.0465883
0.175505
0.0548997
0.176366
0.0563157
0.177191
0.0669099
0.178029
0.0686979
0.0816418
0.183615
-0.000285374
0.181114
-0.00255413
0.178221
-0.00544238
0.17493
-0.0091508
0.171122
-0.0134214
0.166872
-0.0180402
0.162249
-0.022884
0.157308
-0.0278493
0.152159
-0.0327875
0.146962
-0.0375134
0.141908
-0.0418208
0.137167
-0.045524
0.132886
-0.0484876
0.129239
-0.0505792
0.1264
-0.0517271
0.124479
-0.0519202
0.123457
-0.0511729
0.123249
-0.0495763
0.123733
-0.0472703
0.124769
-0.0444191
0.126217
-0.0411944
0.12795
-0.0377559
0.129868
-0.0342347
0.131877
-0.0307283
0.133901
-0.0273266
0.135887
-0.0240889
0.137796
-0.0210577
0.139605
-0.0182555
0.141305
-0.0156886
0.142911
-0.0133275
0.144445
-0.0110997
0.145933
-0.00891546
0.147394
-0.00670508
0.14882
-0.00445747
0.15022
-0.0022448
0.151537
-9.64836e-05
0.152847
0.0018826
0.154112
0.00383845
0.155343
0.00572586
0.156544
0.00759834
0.157721
0.00944098
0.158874
0.0113432
0.160013
0.0131708
0.161131
0.0152172
0.162247
0.0169964
0.163343
0.0194215
0.164451
0.0210374
0.165539
0.0242343
0.16665
0.0254983
0.167743
0.0298741
0.168862
0.0307704
0.169968
0.03641
0.171099
0.0373651
0.172217
0.044108
0.173361
0.0454445
0.174486
0.0537746
0.175637
0.0551649
0.17676
0.0657872
0.177901
0.0675565
0.0805387
0.206885
0.00119881
-0.208369
0.206144
-0.00181379
0.205468
-0.00476555
0.204511
-0.00819416
0.203226
-0.012136
0.201584
-0.0163986
0.199557
-0.0208574
0.197113
-0.0254048
0.194242
-0.0299166
0.190977
-0.0342483
0.187392
-0.0382361
0.183586
-0.0417179
0.179662
-0.0445638
0.175741
-0.0466574
0.171937
-0.047923
0.168357
-0.0483407
0.165103
-0.0479189
0.162246
-0.0467197
0.159829
-0.0448528
0.157862
-0.0424524
0.15633
-0.0396622
0.155195
-0.0366211
0.154407
-0.0334467
0.153914
-0.0302354
0.153663
-0.0270752
0.153602
-0.0240278
0.153679
-0.0211349
0.153849
-0.0184251
0.154074
-0.0159141
0.154331
-0.0135847
0.154608
-0.0113764
0.154901
-0.00920849
0.155212
-0.00701567
0.155541
-0.00478663
0.15588
-0.0025841
0.15625
-0.000466693
0.156584
0.00154875
0.156925
0.00349765
0.157258
0.00539251
0.157582
0.0072752
0.157892
0.00913085
0.158188
0.0110471
0.158468
0.0128904
0.158734
0.0149511
0.158984
0.0167467
0.159221
0.0191842
0.159443
0.0208153
0.159655
0.0240222
0.159858
0.0252961
0.160048
0.0296837
0.16024
0.0305787
0.160414
0.0362356
0.1606
0.0371788
0.16077
0.0439386
0.160953
0.045261
0.161124
0.0536034
0.161315
0.0549749
0.16149
0.0656117
0.161691
0.0673553
0.0803496
0.217056
0.00206807
-0.217925
0.216264
-0.00102228
0.215587
-0.00408872
0.214702
-0.00730871
0.213443
-0.0108777
0.211803
-0.0147578
0.209772
-0.0188272
0.20734
-0.0229725
0.20451
-0.0270864
0.201314
-0.0310528
0.197817
-0.0347393
0.194106
-0.0380066
0.190276
-0.0407335
0.186435
-0.0428168
0.182695
-0.0441824
0.179153
-0.0447992
0.175901
-0.0446671
0.173009
-0.0438268
0.170517
-0.0423608
0.168441
-0.0403768
0.166773
-0.0379943
0.165485
-0.0353328
0.164537
-0.0324989
0.163887
-0.0295857
0.163488
-0.0266763
0.163292
-0.0238319
0.163252
-0.0210944
0.163323
-0.0184958
0.163467
-0.0160587
0.163659
-0.0137763
0.163882
-0.0116001
0.164132
-0.00945835
0.164408
-0.00729171
0.164713
-0.00509168