/*--------------------------------*- C++ -*----------------------------------*\
| =========                 |                                                 |
| \\      /  F ield         | OpenFOAM: The Open Source CFD Toolbox           |
|  \\    /   O peration     | Version:  2512                                  |
|   \\  /    A nd           | Website:  www.openfoam.com                      |
|    \\/     M anipulation  |                                                 |
\*---------------------------------------------------------------------------*/
FoamFile
{
    version     2.0;
    format      ascii;
    arch        "LSB;label=32;scalar=64";
    class       volScalarField;
    location    "180.75";
    object      p;
}
// * * * * * * * * * * * * * * * * * * * * * * * * * * * * * * * * * * * * * //

dimensions      [0 2 -2 0 0 0 0];

internalField   nonuniform List<scalar> 
13248
(
-0.359484
-0.357917
-0.355049
-0.351198
-0.346732
-0.34202
-0.337417
-0.333246
-0.329762
-0.327122
-0.325369
-0.324423
-0.324085
-0.324061
-0.323996
-0.323514
-0.322264
-0.319959
-0.316386
-0.311455
-0.304983
-0.297135
-0.286718
-0.274608
-0.36798
-0.365618
-0.362158
-0.357879
-0.353101
-0.34816
-0.343354
-0.338918
-0.335007
-0.331672
-0.328862
-0.326425
-0.324133
-0.321715
-0.318898
-0.315438
-0.311153
-0.305926
-0.2997
-0.292454
-0.284155
-0.274802
-0.264103
-0.252905
-0.378757
-0.375327
-0.371083
-0.36625
-0.361057
-0.355783
-0.350631
-0.345718
-0.341076
-0.336652
-0.332331
-0.327951
-0.323336
-0.318323
-0.312785
-0.306645
-0.299873
-0.29247
-0.284451
-0.275834
-0.266588
-0.256773
-0.246177
-0.235434
-0.391693
-0.386972
-0.381784
-0.37627
-0.370529
-0.364739
-0.358982
-0.353231
-0.347404
-0.34139
-0.335079
-0.328387
-0.321264
-0.313701
-0.305723
-0.297374
-0.288705
-0.279754
-0.270544
-0.261081
-0.251357
-0.241407
-0.231121
-0.221095
-0.406669
-0.400498
-0.39425
-0.387941
-0.381479
-0.374906
-0.368153
-0.361071
-0.353513
-0.345396
-0.336713
-0.327525
-0.317939
-0.30808
-0.298066
-0.287992
-0.277917
-0.267869
-0.25785
-0.24785
-0.23785
-0.227857
-0.217809
-0.208074
-0.423554
-0.415837
-0.408461
-0.401244
-0.393831
-0.386088
-0.377812
-0.368792
-0.358928
-0.348269
-0.336982
-0.325293
-0.313434
-0.301601
-0.289936
-0.27852
-0.267384
-0.256525
-0.245919
-0.235537
-0.225349
-0.215339
-0.20547
-0.195976
-0.442135
-0.432838
-0.424294
-0.416023
-0.407327
-0.397891
-0.387447
-0.37585
-0.363172
-0.349682
-0.335735
-0.321686
-0.307823
-0.29434
-0.281345
-0.268875
-0.256919
-0.245442
-0.234397
-0.223738
-0.213423
-0.203416
-0.193697
-0.184352
-0.462026
-0.451179
-0.441429
-0.431885
-0.421448
-0.409677
-0.396379
-0.381632
-0.365793
-0.349368
-0.332865
-0.316687
-0.301101
-0.28625
-0.272176
-0.258863
-0.246261
-0.234304
-0.222928
-0.212071
-0.20168
-0.19171
-0.182141
-0.172948
-0.48261
-0.470305
-0.459291
-0.448151
-0.4354
-0.420602
-0.403833
-0.385539
-0.366402
-0.347128
-0.328288
-0.310254
-0.293218
-0.277239
-0.262291
-0.248307
-0.235199
-0.222881
-0.21127
-0.200292
-0.189882
-0.17999
-0.170581
-0.161551
-0.503009
-0.48939
-0.477002
-0.463842
-0.448142
-0.429688
-0.409015
-0.387019
-0.364672
-0.342785
-0.321899
-0.302294
-0.284058
-0.267162
-0.251515
-0.237007
-0.223522
-0.210952
-0.199199
-0.188175
-0.177806
-0.168035
-0.1588
-0.149963
-0.522107
-0.507341
-0.493401
-0.477717
-0.458455
-0.435871
-0.4111
-0.385478
-0.360172
-0.335991
-0.313375
-0.292475
-0.273272
-0.255654
-0.239476
-0.224592
-0.210859
-0.198152
-0.186357
-0.175376
-0.165125
-0.155533
-0.146504
-0.137911
-0.538657
-0.522943
-0.507239
-0.488505
-0.465132
-0.438086
-0.409179
-0.380125
-0.352171
-0.326034
-0.302
-0.280083
-0.260153
-0.242026
-0.225507
-0.210416
-0.196591
-0.183886
-0.172177
-0.161354
-0.151327
-0.142011
-0.133282
-0.125072
-0.344087
-0.345638
-0.346512
-0.347042
-0.347582
-0.348304
-0.349311
-0.350668
-0.352416
-0.354588
-0.35722
-0.360361
-0.364064
-0.368388
-0.373387
-0.379102
-0.385546
-0.392696
-0.400478
-0.408754
-0.417299
-0.425791
-0.433818
-0.441059
-0.345693
-0.346353
-0.346668
-0.346819
-0.347044
-0.347535
-0.348405
-0.349741
-0.351611
-0.354074
-0.3572
-0.361068
-0.365766
-0.371384
-0.378004
-0.385683
-0.394441
-0.404238
-0.41496
-0.426428
-0.438288
-0.450127
-0.461334
-0.471379
-0.347373
-0.347166
-0.346918
-0.346674
-0.3465
-0.346698
-0.347336
-0.34853
-0.350372
-0.352948
-0.356345
-0.36066
-0.366007
-0.372486
-0.380189
-0.389176
-0.399457
-0.410971
-0.423568
-0.436992
-0.450859
-0.464655
-0.477678
-0.48908
-0.348687
-0.347732
-0.346945
-0.346253
-0.345698
-0.34547
-0.345725
-0.346598
-0.348203
-0.350644
-0.354025
-0.358453
-0.364042
-0.370896
-0.379102
-0.388706
-0.399701
-0.412
-0.42542
-0.439665
-0.45431
-0.468771
-0.482481
-0.4939
-0.349378
-0.347878
-0.346634
-0.345496
-0.344459
-0.343701
-0.343414
-0.343764
-0.344895
-0.346933
-0.349993
-0.354191
-0.359634
-0.366417
-0.374612
-0.384247
-0.395287
-0.407622
-0.421037
-0.435201
-0.449679
-0.463697
-0.477091
-0.487156
-0.349383
-0.347587
-0.345994
-0.344422
-0.342845
-0.341455
-0.340477
-0.340117
-0.340555
-0.341945
-0.344421
-0.348103
-0.353094
-0.359476
-0.367301
-0.376573
-0.387231
-0.399134
-0.412032
-0.425535
-0.439253
-0.452154
-0.464594
-0.472565
-0.348834
-0.346999
-0.345174
-0.343193
-0.341052
-0.338967
-0.337201
-0.336003
-0.335599
-0.336177
-0.337897
-0.340888
-0.345253
-0.351062
-0.358344
-0.367075
-0.377144
-0.388378
-0.400492
-0.412993
-0.425515
-0.436659
-0.447364
-0.452459
-0.348053
-0.346386
-0.34443
-0.342077
-0.339383
-0.336599
-0.334027
-0.331964
-0.330681
-0.330409
-0.331334
-0.333603
-0.337316
-0.342529
-0.349233
-0.357366
-0.366778
-0.37718
-0.388204
-0.399245
-0.409939
-0.418671
-0.426624
-0.428234
-0.347518
-0.346137
-0.344108
-0.34142
-0.338219
-0.334796
-0.331493
-0.32865
-0.326583
-0.325558
-0.325789
-0.327429
-0.33057
-0.335234
-0.341368
-0.348814
-0.357317
-0.366498
-0.375891
-0.384819
-0.392869
-0.398557
-0.402858
-0.400864
-0.347826
-0.346721
-0.344619
-0.34163
-0.337996
-0.334051
-0.33017
-0.326728
-0.324069
-0.322483
-0.322191
-0.323335
-0.325966
-0.330041
-0.335411
-0.341814
-0.348881
-0.356147
-0.363087
-0.369093
-0.373775
-0.376127
-0.376749
-0.371762
-0.349607
-0.348627
-0.346391
-0.34312
-0.339139
-0.334815
-0.330542
-0.326709
-0.323665
-0.321695
-0.320995
-0.321658
-0.323666
-0.32688
-0.331042
-0.335788
-0.340665
-0.345177
-0.348822
-0.351187
-0.352022
-0.351045
-0.348793
-0.342428
-0.353388
-0.352274
-0.349789
-0.346231
-0.34197
-0.337389
-0.332882
-0.328821
-0.325529
-0.323247
-0.32211
-0.322135
-0.323207
-0.325092
-0.327447
-0.329853
-0.331855
-0.333017
-0.332942
-0.331408
-0.328211
-0.323626
-0.317999
-0.311175
-0.44877
-0.453759
-0.453167
-0.444862
-0.428336
-0.403111
-0.370053
-0.331166
-0.289746
-0.249726
-0.21476
-0.187524
-0.169775
-0.162651
-0.166459
-0.179451
-0.19663
-0.210178
-0.212285
-0.199176
-0.173674
-0.143448
-0.116147
-0.0962233
-0.0848832
-0.0812828
-0.0842229
-0.0942493
-0.113076
-0.138183
-0.159532
-0.165141
-0.15136
-0.12609
-0.0999904
-0.0803107
-0.0684933
-0.0629987
-0.0645019
-0.0743044
-0.0877392
-0.0946714
-0.0889535
-0.0760401
-0.0635067
-0.05457
-0.0505186
-0.0523617
-0.0576553
-0.060455
-0.0563138
-0.0505374
-0.0435235
-0.0363341
-0.0326133
-0.0297563
-0.027589
-0.0265839
-0.0195483
-0.00452142
-0.482554
-0.489326
-0.489106
-0.480596
-0.462421
-0.434066
-0.396435
-0.351924
-0.304273
-0.257813
-0.216476
-0.183115
-0.15934
-0.145965
-0.143345
-0.150482
-0.163624
-0.175987
-0.179954
-0.171085
-0.151432
-0.12716
-0.105027
-0.0893659
-0.0816283
-0.081138
-0.0869746
-0.10018
-0.122541
-0.150849
-0.173947
-0.178769
-0.162685
-0.134152
-0.104838
-0.0822702
-0.0679484
-0.0601985
-0.0592399
-0.0662924
-0.077527
-0.0835912
-0.0791303
-0.0687532
-0.0592497
-0.0529349
-0.0513296
-0.0558262
-0.0631872
-0.0671476
-0.0618256
-0.054334
-0.0454396
-0.0362797
-0.0310469
-0.0263541
-0.023941
-0.0228612
-0.0168603
-0.00396445
-0.502721
-0.510807
-0.510981
-0.502314
-0.483197
-0.452881
-0.412252
-0.363872
-0.311708
-0.260347
-0.214007
-0.175639
-0.146747
-0.127889
-0.11924
-0.120393
-0.128871
-0.139277
-0.144671
-0.139976
-0.126297
-0.108152
-0.091415
-0.0802736
-0.0763282
-0.0790199
-0.0877227
-0.10388
-0.129289
-0.160267
-0.18497
-0.189681
-0.171755
-0.140552
-0.108514
-0.0834421
-0.066882
-0.0570899
-0.0538459
-0.0582464
-0.0673235
-0.0725271
-0.0692371
-0.0612508
-0.0546455
-0.0509077
-0.0518286
-0.0590979
-0.0686094
-0.0737346
-0.0671756
-0.057854
-0.047115
-0.0361132
-0.029496
-0.0230242
-0.0203295
-0.0191213
-0.0141603
-0.00340685
-0.508695
-0.517319
-0.517989
-0.5096
-0.490317
-0.459239
-0.417281
-0.367059
-0.312589
-0.258555
-0.20919
-0.167384
-0.134542
-0.11109
-0.0970936
-0.0923618
-0.0955868
-0.103
-0.108807
-0.10765
-0.0995007
-0.0872197
-0.0757954
-0.0691626
-0.0689234
-0.0746187
-0.085883
-0.104505
-0.132363
-0.165614
-0.192011
-0.197223
-0.178261
-0.145108
-0.110938
-0.083853
-0.0654071
-0.0538373
-0.048558
-0.0504971
-0.0575014
-0.0618184
-0.0595425
-0.0536965
-0.0497758
-0.048496
-0.0519342
-0.0620256
-0.0737516
-0.0800647
-0.0722743
-0.0610511
-0.0485212
-0.0358266
-0.0279713
-0.019796
-0.0167889
-0.0154032
-0.0114722
-0.00285422
-0.500495
-0.509359
-0.510751
-0.503344
-0.484652
-0.453926
-0.412351
-0.362493
-0.308185
-0.253908
-0.203661
-0.160153
-0.12468
-0.0976009
-0.0789624
-0.0687612
-0.0664723
-0.0698889
-0.0747948
-0.0765597
-0.0722437
-0.0652035
-0.0586998
-0.0562475
-0.059368
-0.0677062
-0.0811037
-0.101619
-0.131332
-0.166495
-0.194618
-0.201009
-0.18201
-0.147779
-0.112153
-0.0835845
-0.0636433
-0.0505924
-0.043568
-0.0432803
-0.0483407
-0.0517554
-0.0502875
-0.0462464
-0.0447139
-0.0456944
-0.0515605
-0.0644574
-0.0784239
-0.0859499
-0.0770139
-0.06388
-0.0496401
-0.0354144
-0.0264798
-0.016695
-0.0133505
-0.0117433
-0.00881824
-0.00231199
-0.483617
-0.490248
-0.491888
-0.48563
-0.467986
-0.43862
-0.399043
-0.351599
-0.299723
-0.247463
-0.198382
-0.154885
-0.118174
-0.088591
-0.0661921
-0.0511087
-0.0433726
-0.0420544
-0.044496
-0.0467874
-0.0455414
-0.0431048
-0.0408233
-0.0419158
-0.047872
-0.0583999
-0.0734663
-0.0952817
-0.126185
-0.162789
-0.192674
-0.200932
-0.182922
-0.148549
-0.112216
-0.0827142
-0.061681
-0.0474541
-0.0389861
-0.036757
-0.0400437
-0.0425709
-0.04168
-0.0390407
-0.0395293
-0.0425111
-0.0506413
-0.066243
-0.0824253
-0.0912007
-0.0812926
-0.0663064
-0.0504584
-0.0348695
-0.0250192
-0.0137425
-0.0100395
-0.00817431
-0.00621678
-0.00178515
-0.459776
-0.462847
-0.464217
-0.458967
-0.442673
-0.415617
-0.3795
-0.336205
-0.288593
-0.240128
-0.193835
-0.151775
-0.115064
-0.084113
-0.0590187
-0.0399558
-0.0272573
-0.0209127
-0.0197056
-0.0209208
-0.0206892
-0.0220195
-0.0229624
-0.0268009
-0.0349323
-0.0471
-0.0633116
-0.0858281
-0.117247
-0.154793
-0.186476
-0.197082
-0.180971
-0.147445
-0.111197
-0.0813107
-0.0595839
-0.0444815
-0.0348647
-0.0309865
-0.032701
-0.0344097
-0.0338899
-0.0322101
-0.0343096
-0.0389809
-0.0491291
-0.0672505
-0.085573
-0.0956478
-0.0850132
-0.068301
-0.0509684
-0.0341888
-0.0235808
-0.0109507
-0.0068758
-0.00472485
-0.00368177
-0.00127901
-0.430415
-0.429383
-0.430371
-0.426025
-0.411389
-0.387556
-0.356089
-0.318191
-0.276078
-0.232565
-0.190124
-0.15051
-0.114777
-0.0834435
-0.0567186
-0.0347948
-0.018057
-0.00697618
-0.00149999
-0.000507914
-0.0026836
-0.00300603
-0.00584139
-0.0115575
-0.0211201
-0.0343139
-0.0511521
-0.0738672
-0.105211
-0.143186
-0.176519
-0.189865
-0.176328
-0.144541
-0.109154
-0.0794225
-0.0573892
-0.0417065
-0.031225
-0.0259862
-0.0263293
-0.0273018
-0.0268795
-0.0258798
-0.0291543
-0.0351628
-0.0470096
-0.067384
-0.0877196
-0.0991537
-0.0880822
-0.0698421
-0.0511737
-0.0333795
-0.0221717
-0.00832818
-0.00387122
-0.00141971
-0.00122292
-0.000799207
-0.397296
-0.392615
-0.393616
-0.390026
-0.377322
-0.357422
-0.331287
-0.299355
-0.263255
-0.225168
-0.187054
-0.150428
-0.116324
-0.0853713
-0.0579353
-0.0342666
-0.0146909
0.000258288
0.0100162
0.0146089
0.0150831
0.0140722
0.0101096
0.00335067
-0.00692383
-0.0205371
-0.0375286
-0.0600591
-0.0909898
-0.128965
-0.163669
-0.180014
-0.16934
-0.140043
-0.106276
-0.0772223
-0.0552381
-0.0392397
-0.0281361
-0.0217869
-0.0209364
-0.0212477
-0.0208062
-0.0201362
-0.0241698
-0.031132
-0.044268
-0.0665907
-0.0887774
-0.101614
-0.0904341
-0.0709349
-0.0511073
-0.0324629
-0.0208226
-0.00591036
-0.00103355
0.00172119
0.00115442
-0.000351913
-0.363167
-0.35676
-0.358127
-0.354822
-0.344153
-0.328436
-0.307623
-0.281535
-0.251318
-0.218563
-0.184783
-0.151303
-0.119159
-0.0890927
-0.0616198
-0.0370732
-0.0157369
0.00197045
0.0153706
0.0238829
0.0277518
0.0283505
0.0244023
0.0175738
0.00722238
-0.00632428
-0.0231426
-0.0452995
-0.0754997
-0.112978
-0.14875
-0.168228
-0.16044
-0.134379
-0.103014
-0.0751299
-0.0534592
-0.0373188
-0.0257437
-0.0184318
-0.0165066
-0.0162532
-0.0157329
-0.0150346
-0.0194239
-0.026982
-0.0410022
-0.0648468
-0.0886793
-0.102944
-0.0920218
-0.0716099
-0.0508187
-0.0314612
-0.0195261
-0.00375448
0.00161239
0.00467594
0.0034487
5.56231e-05
-0.33197
-0.326461
-0.327682
-0.323878
-0.315156
-0.30334
-0.287351
-0.266666
-0.241974
-0.214315
-0.184795
-0.154525
-0.124516
-0.0956032
-0.0684159
-0.0433914
-0.0209154
-0.00133823
0.0148934
0.0270299
0.0346967
0.0393653
0.0361597
0.0305056
0.0208983
0.00800066
-0.00826855
-0.0298897
-0.0595664
-0.0968086
-0.132802
-0.157724
-0.14959
-0.127298
-0.0991454
-0.0729647
-0.0518428
-0.0357228
-0.0238443
-0.015706
-0.0127731
-0.0120756
-0.0116329
-0.0108153
-0.0151168
-0.0227547
-0.0370905
-0.0622034
-0.0875573
-0.103079
-0.0926495
-0.071778
-0.050227
-0.0303177
-0.0181489
-0.00178663
0.00405053
0.00740389
0.00566297
0.000416731
-0.304966
-0.303251
-0.302419
-0.296634
-0.288809
-0.279458
-0.266959
-0.250622
-0.230657
-0.207621
-0.182257
-0.155416
-0.127976
-0.100771
-0.0745257
-0.0498224
-0.0271381
-0.00685548
0.0106604
0.024907
0.0352402
0.0393874
0.0440495
0.0406069
0.032566
0.0208921
0.0055243
-0.0152537
-0.0437627
-0.0795211
-0.114172
-0.132293
-0.133764
-0.116553
-0.0922067
-0.0683489
-0.0483657
-0.0328237
-0.0211858
-0.0127365
-0.00910254
-0.00802453
-0.00781615
-0.00819948
-0.011325
-0.0188665
-0.0329986
-0.0586862
-0.0851325
-0.102055
-0.092023
-0.071115
-0.0489843
-0.0288063
-0.0165059
0.000314467
0.00641911
0.00995983
0.00778064
0.000716945
-0.280203
-0.289917
-0.286306
-0.277839
-0.268906
-0.259293
-0.24735
-0.232115
-0.213576
-0.192244
-0.168816
-0.144025
-0.118611
-0.0932841
-0.0686724
-0.0452888
-0.0235671
-0.00386647
0.0135105
0.0282009
0.0397795
0.0485694
0.0519279
0.0506227
0.0446308
0.0346603
0.0206057
0.000278893
-0.0295638
-0.0684102
-0.105619
-0.127568
-0.124161
-0.106736
-0.0836305
-0.0614503
-0.0429543
-0.0284932
-0.017548
-0.0093517
-0.00555417
-0.0041328
-0.00373087
-0.00350538
-0.0061327
-0.0133097
-0.0273709
-0.0542789
-0.0827937
-0.101855
-0.091946
-0.0699973
-0.0472253
-0.0269873
-0.0148007
0.00253931
0.00874453
0.0125403
0.00979475
0.000943357
-0.253948
-0.267085
-0.264197
-0.254625
-0.244757
-0.235154
-0.224097
-0.210303
-0.193591
-0.174439
-0.153483
-0.131319
-0.10851
-0.0856119
-0.0631581
-0.04162
-0.0214041
-0.00284311
0.0137933
0.0282603
0.0402377
0.0488344
0.0540225
0.0545618
0.0504768
0.042358
0.0298559
0.0102385
-0.0201112
-0.059468
-0.0951547
-0.110968
-0.109529
-0.0938171
-0.0735239
-0.0540722
-0.0375867
-0.0244636
-0.0143837
-0.0065644
-0.00268621
-0.00110966
-0.000817554
-0.000605325
-0.00267545
-0.00920541
-0.0228507
-0.0502212
-0.0798697
-0.099811
-0.0900488
-0.0677275
-0.0449298
-0.0248769
-0.0129184
0.00449034
0.0105987
0.0147749
0.0114602
0.00115217
-0.229778
-0.243172
-0.241432
-0.232295
-0.222452
-0.213239
-0.203204
-0.190947
-0.176117
-0.159087
-0.140412
-0.120587
-0.10006
-0.0792879
-0.0587378
-0.0388468
-0.02
-0.00252041
0.0133168
0.0272796
0.0391342
0.0479986
0.0537286
0.055278
0.0524505
0.0455813
0.0340406
0.0148347
-0.0147677
-0.0512406
-0.0823598
-0.0961819
-0.0942386
-0.0809047
-0.0637402
-0.0469924
-0.0324273
-0.0205554
-0.0113185
-0.00393662
-6.42976e-05
0.00164747
0.00185368
0.00227507
0.000231973
-0.00610424
-0.0195196
-0.0466502
-0.0759589
-0.0960092
-0.0869207
-0.064761
-0.0422538
-0.0225615
-0.01091
0.00635021
0.0123531
0.0168331
0.0129484
0.00138427
-0.207982
-0.220183
-0.219367
-0.211324
-0.202059
-0.193327
-0.18414
-0.173192
-0.160017
-0.144861
-0.128204
-0.110482
-0.0920638
-0.0733199
-0.0546406
-0.0364108
-0.0189866
-0.00267716
0.0122417
0.0255181
0.0368033
0.0457156
0.0516944
0.0539541
0.0521033
0.0462302
0.0355659
0.0173612
-0.00987071
-0.0419331
-0.0684744
-0.0804794
-0.0788056
-0.0680768
-0.0540059
-0.0399389
-0.0273127
-0.0167067
-0.00834111
-0.00146463
0.00233381
0.00419
0.00443478
0.00504021
0.00305451
-0.00319944
-0.0162829
-0.042483
-0.0708159
-0.0909178
-0.0827109
-0.0611196
-0.0391794
-0.0200437
-0.00874955
0.00810885
0.0140214
0.0187173
0.0143323
0.00163943
-0.187301
-0.198502
-0.198389
-0.191478
-0.183014
-0.174884
-0.166496
-0.156738
-0.145093
-0.131686
-0.116911
-0.101147
-0.0847041
-0.0678786
-0.0509937
-0.0343868
-0.018387
-0.00329303
0.0106206
0.0230921
0.0337702
0.0423854
0.0483766
0.0510671
0.0499793
0.0450249
0.035473
0.0191473
-0.00460205
-0.0318094
-0.0539533
-0.0643846
-0.0636837
-0.0557155
-0.0446584
-0.0331423
-0.0223812
-0.0129979
-0.00548208
0.000850328
0.00451807
0.00650751
0.00686494
0.00759229
0.0058291
-0.000180692
-0.0125141
-0.0373323
-0.0645568
-0.0844701
-0.0773044
-0.0567471
-0.0357183
-0.017344
-0.00645876
0.00975334
0.0155617
0.0203969
0.0156094
0.00191106
-0.168042
-0.178379
-0.178686
-0.172762
-0.165188
-0.157788
-0.150227
-0.141583
-0.131345
-0.119551
-0.106509
-0.0925449
-0.0779241
-0.0628917
-0.0477156
-0.0326881
-0.0181082
-0.00425709
0.00860028
0.0201996
0.0302163
0.038369
0.0441984
0.0471147
0.0466422
0.0425791
0.0343275
0.0203812
0.000623275
-0.0215831
-0.0397252
-0.0490603
-0.0496653
-0.0443025
-0.035945
-0.0267157
-0.0176884
-0.00947004
-0.00276349
0.00300762
0.00649812
0.00858932
0.0091292
0.00996816
0.00854463
0.00297512
-0.0082518
-0.0314017
-0.0572303
-0.0766289
-0.070706
-0.0516558
-0.0319068
-0.0144958
-0.00406311
0.0112724
0.0169486
0.0218329
0.0167356
0.00219879
-0.150502
-0.159752
-0.16028
-0.15524
-0.148581
-0.141979
-0.135252
-0.127645
-0.118687
-0.108361
-0.0969056
-0.0845948
-0.0716586
-0.0583022
-0.0447479
-0.0312452
-0.0180603
-0.00545335
0.00632151
0.0170046
0.0262991
0.0339247
0.0394946
0.0425168
0.0425599
0.0393643
0.0325036
0.0210987
0.00532782
-0.0122787
-0.0270327
-0.035533
-0.0373165
-0.0341184
-0.0280243
-0.0207611
-0.0132962
-0.00616791
-0.000213277
0.00500521
0.00829032
0.0104479
0.0112326
0.0122023
0.0111888
0.00618481
-0.0037364
-0.02486
-0.0489181
-0.0675477
-0.0630231
-0.0459034
-0.0277965
-0.0115424
-0.00159691
0.0126606
0.0181683
0.0229891
0.0176689
0.00251038
-0.134276
-0.14249
-0.143204
-0.138971
-0.133188
-0.127381
-0.121465
-0.114819
-0.107024
-0.0980327
-0.0880275
-0.0772364
-0.0658562
-0.05406
-0.0420329
-0.0299864
-0.0181544
-0.00677539
0.00391112
0.0136604
0.0222023
0.0292653
0.034522
0.0375706
0.0380432
0.0356818
0.0302259
0.0212333
0.00896369
-0.00478198
-0.0166309
-0.0243069
-0.0268694
-0.0252888
-0.020988
-0.0153507
-0.00924936
-0.00312291
0.00214336
0.00684136
0.00991203
0.0121038
0.0131758
0.0143257
0.0137547
0.00940836
0.000948984
-0.0178026
-0.0398481
-0.0575016
-0.054456
-0.0396019
-0.0234562
-0.00853402
0.000897518
0.0139243
0.0192179
0.0238425
0.0183887
0.00286009
-0.119246
-0.126618
-0.127484
-0.123953
-0.118971
-0.113916
-0.108769
-0.103013
-0.0962756
-0.088496
-0.0798119
-0.070412
-0.060463
-0.0501114
-0.0395119
-0.0288435
-0.0183099
-0.00812516
0.00149137
0.0103119
0.018091
0.0245768
0.029492
0.0325121
0.0333383
0.0317463
0.0275861
0.020657
0.0112448
0.00067515
-0.00857627
-0.0154193
-0.0183114
-0.017811
-0.0148606
-0.0105253
-0.00557957
-0.000357314
0.00428361
0.00851086
0.0113751
0.0135758
0.0149499
0.0163634
0.0162712
0.0127048
0.00580719
-0.0104263
-0.0303675
-0.0468732
-0.0453025
-0.0329232
-0.0189704
-0.00552346
0.00336987
0.0150874
0.0201146
0.02439
0.0188997
0.00326793
-0.105558
-0.112117
-0.113053
-0.110126
-0.105872
-0.101518
-0.0970863
-0.0921463
-0.0863692
-0.079685
-0.0721987
-0.0640656
-0.0554266
-0.0464052
-0.037131
-0.0277549
-0.0184524
-0.00941268
-0.000831605
0.0070837
0.0141108
0.0200233
0.0245866
0.0275395
0.0286457
0.0277198
0.0246743
0.0194445
0.0123208
0.00430123
-0.00247762
-0.00864505
-0.0114788
-0.0116061
-0.00962184
-0.00630077
-0.00230729
0.00211625
0.00619019
0.0100021
0.0126847
0.01488
0.0165409
0.0183094
0.0187901
0.0161592
0.0107771
-0.00306108
-0.0209417
-0.0361489
-0.0359334
-0.0260875
-0.0144359
-0.00256236
0.00576314
0.0161883
0.0208997
0.0246575
0.019235
0.00376002
-0.0931105
-0.098865
-0.0998279
-0.0974335
-0.0938381
-0.0901271
-0.0863511
-0.0821516
-0.0772392
-0.0715402
-0.0651337
-0.0581477
-0.0507005
-0.0428959
-0.0348423
-0.0266661
-0.0185162
-0.0105579
-0.00296479
0.00408065
0.0103812
0.0157379
0.01995
0.0228072
0.0241244
0.0237545
0.0216506
0.0178189
0.0125041
0.00630759
-6.11796e-05
-0.00380025
-0.00615006
-0.00655415
-0.00522244
-0.00267068
0.000557286
0.00429291
0.00785599
0.0112983
0.0138365
0.0160269
0.0179314
0.0200935
0.021299
0.0197514
0.0156804
0.00385597
-0.0121022
-0.0258425
-0.0267546
-0.0193487
-0.00995948
0.000300045
0.0080173
0.0172653
0.0216308
0.0247022
0.0194585
0.00436546
-0.0817161
-0.0867775
-0.0877636
-0.0858332
-0.0828224
-0.0796889
-0.076503
-0.072967
-0.0688269
-0.0640079
-0.0585688
-0.0526142
-0.0462436
-0.0395436
-0.0326042
-0.0255306
-0.0184484
-0.0114978
-0.00483185
0.00138959
0.00699772
0.0118226
0.0156912
0.0184333
0.0199052
0.0199942
0.0186783
0.0159944
0.0121548
0.00759564
0.00302751
-0.000102415
-0.0020343
-0.00250888
-0.00159402
0.000389588
0.00301489
0.00617132
0.00928343
0.0123878
0.0148148
0.0170091
0.0191021
0.0216069
0.0235839
0.0231667
0.0201085
0.00984533
-0.0042798
-0.016389
-0.0181534
-0.0129666
-0.00565652
0.00301363
0.0100756
0.0183362
0.0223586
0.0246022
0.019653
0.00510169
-0.0713667
-0.0758178
-0.0768008
-0.0752616
-0.072762
-0.0701416
-0.0674815
-0.0645343
-0.0610779
-0.0570391
-0.0524603
-0.0474266
-0.0420208
-0.0363152
-0.0303836
-0.024313
-0.0182081
-0.0121878
-0.00638196
-0.000926477
0.00403357
0.00835445
0.0118902
0.0145036
0.016082
0.016542
0.0158735
0.0141245
0.0114876
0.00828899
0.005052
0.00260416
0.00108985
0.000669862
0.00134072
0.00291704
0.00507746
0.00775355
0.0104775
0.0132695
0.0155994
0.0177957
0.0200263
0.0227562
0.0253113
0.0258065
0.0234649
0.0145296
0.00228852
-0.00810038
-0.0104494
-0.00716992
-0.00164518
0.00552355
0.0118898
0.0193746
0.0231023
0.0244409
0.0198809
0.00594596
-0.062035
-0.0659056
-0.0668491
-0.0656395
-0.0635907
-0.0614261
-0.0592304
-0.0568004
-0.0539441
-0.0505913
-0.0467714
-0.0425529
-0.0380046
-0.0331861
-0.0281577
-0.0229901
-0.0177697
-0.0125962
-0.00757906
-0.00282982
0.00152917
0.00537908
0.00859588
0.0110695
0.0127108
0.0134581
0.0133098
0.0123153
0.0106403
0.00853944
0.0062988
0.00451412
0.00340714
0.00311382
0.00366273
0.00495675
0.0067656
0.00904774
0.0114422
0.0139477
0.0161768
0.0183536
0.020645
0.0234413
0.026195
0.0271867
0.0253422
0.0177632
0.00749652
-0.00119783
-0.00387372
-0.0021211
0.0019658
0.00777478
0.013419
0.0202882
0.0238125
0.0242921
0.0201338
0.0068013
-0.0535874
-0.0569461
-0.0578452
-0.056913
-0.0552533
-0.0534872
-0.0516973
-0.0497172
-0.0473822
-0.0446268
-0.0414702
-0.0379672
-0.0341739
-0.0301393
-0.0259124
-0.0215497
-0.0171216
-0.0127098
-0.00840589
-0.00430364
-0.000500306
0.00291417
0.00582928
0.00815334
0.00981741
0.0107762
0.0110295
0.0106242
0.00970047
0.00853875
0.00699115
0.00579378
0.00507308
0.004944
0.00545336
0.00655872
0.00810599
0.0100685
0.0121823
0.0144284
0.0165398
0.0186573
0.0209076
0.0236053
0.0261827
0.0272863
0.0258056
0.0196415
0.0113242
0.00420836
0.00145598
0.00210394
0.00509068
0.00972383
0.0146307
0.0209242
0.024352
0.0241836
0.0203091
0.00749575
-0.0459555
-0.0488716
-0.049725
-0.0490243
-0.0476942
-0.0462693
-0.0448295
-0.0432372
-0.0413513
-0.0391115
-0.0365295
-0.0336484
-0.0305139
-0.0271655
-0.0236426
-0.0199902
-0.0162643
-0.0125311
-0.00886659
-0.00535051
-0.00205881
0.000960171
0.0035893
0.00575525
0.00740538
0.00850602
0.00905462
0.00908114
0.00866745
0.00785132
0.00721789
0.00658104
0.00622107
0.00626982
0.00679107
0.00777545
0.00912991
0.0108346
0.0127072
0.0147183
0.0166888
0.0186998
0.0208111
0.0231995
0.0254608
0.0264575
0.0252497
0.0204232
0.013881
0.00818087
0.00556467
0.0055121
0.00767807
0.0113386
0.0155147
0.0211373
0.0245242
0.0240141
0.0202153
0.00785388
-0.0390963
-0.0416199
-0.0424224
-0.0419052
-0.0408524
-0.039718
-0.0385771
-0.0373161
-0.0358135
-0.0340146
-0.0319258
-0.0295807
-0.0270157
-0.0242623
-0.0213515
-0.0183186
-0.0152077
-0.0120715
-0.00897383
-0.00598385
-0.00318986
-0.000499051
0.00185923
0.00385736
0.00546021
0.00664126
0.00739753
0.00775656
0.0077958
0.00753544
0.00727017
0.00703327
0.00697399
0.00719044
0.00775002
0.00865963
0.00987144
0.0113682
0.0130315
0.0148289
0.0166347
0.0184968
0.0204135
0.0224396
0.0242944
0.0251023
0.024109
0.0204368
0.0154063
0.0109315
0.00859477
0.00816464
0.00971796
0.0125882
0.0160739
0.0208728
0.0241628
0.0235395
0.0196136
0.00779181
-0.032936
-0.0351088
-0.0358561
-0.0354986
-0.034676
-0.0337848
-0.0328937
-0.0319113
-0.0307326
-0.0293082
-0.0276394
-0.0257519
-0.0236746
-0.0214323
-0.0190491
-0.0165517
-0.0139739
-0.0113547
-0.00873833
-0.00616602
-0.00365886
-0.00144241
0.000614363
0.00242852
0.00395364
0.00516365
0.00605177
0.0066353
0.00694364
0.0071043
0.00717561
0.00724817
0.00742964
0.00779187
0.00839848
0.00926217
0.0103659
0.0116943
0.0131743
0.0147747
0.0164019
0.0180858
0.0197782
0.0214634
0.0229082
0.0235238
0.0227081
0.019976
0.0161758
0.0127254
0.010736
0.0101456
0.0112352
0.0134528
0.0163012
0.0201506
0.0231738
0.0224938
0.0183672
0.00734545
-0.0274035
-0.0292714
-0.0299644
-0.0297362
-0.0291154
-0.0284258
-0.0277368
-0.0269853
-0.0260771
-0.0249675
-0.0236533
-0.0221534
-0.0204903
-0.0186835
-0.0167513
-0.0147138
-0.0125966
-0.0104298
-0.0082489
-0.00609359
-0.0040082
-0.00205496
-0.000229218
0.00141173
0.00284419
0.00404521
0.00500321
0.00574491
0.00628359
0.00668129
0.00700023
0.00730268
0.00766813
0.00814787
0.00879805
0.0096313
0.0106496
0.0118397
0.0131571
0.014576
0.0160231
0.0175124
0.0189691
0.0203523
0.0214526
0.0219078
0.0212467
0.0192506
0.0164208
0.0138025
0.0121683
0.0115433
0.0122763
0.0139373
0.0161977
0.0190517
0.0212508
0.0207932
0.0165624
0.00662721
-0.0224476
-0.0240511
-0.0246901
-0.0245646
-0.0241099
-0.0235991
-0.0230899
-0.0225188
-0.0218226
-0.0209736
-0.0199545
-0.018779
-0.0174646
-0.0160259
-0.0144765
-0.0128308
-0.0111081
-0.00933132
-0.00752844
-0.00572966
-0.00396781
-0.00227083
-0.000694777
0.000755603
0.00208762
0.00325557
0.00425161
0.0050671
0.00573974
0.00629886
0.00678994
0.0072553
0.00775363
0.00832058
0.00900345
0.00981211
0.0107588
0.0118316
0.0130046
0.0142575
0.0155295
0.0168233
0.0180514
0.019181
0.0200154
0.020353
0.0198305
0.0183934
0.0163131
0.01435
0.0130411
0.012442
0.0128999
0.0140769
0.0157995
0.01776
0.0192915
0.0186669
0.0144623
0.0057695
-0.0180173
-0.0193897
-0.0199751
-0.0199302
-0.0196108
-0.0192442
-0.0188814
-0.0184767
-0.0179711
-0.0173216
-0.0165363
-0.0156265
-0.0146014
-0.0134703
-0.0122424
-0.0109282
-0.0095412
-0.00809778
-0.00661948
-0.00512845
-0.00364867
-0.00220391
-0.00081857
0.000494724
0.00168365
0.00276352
0.00373018
0.00457932
0.00532275
0.00597893
0.00657909
0.00715102
0.00773726
0.00836164
0.00906241
0.00984597
0.0107281
0.0116989
0.0127434
0.0138447
0.014952
0.0160622
0.017085
0.0180073
0.018646
0.0189039
0.0185047
0.0174837
0.0159712
0.0145092
0.0134748
0.0129241
0.0131688
0.0139279
0.015164
0.0163767
0.0172248
0.0163775
0.0123413
0.00488981
-0.0140608
-0.0152328
-0.0157668
-0.0157843
-0.0155741
-0.0153239
-0.0150779
-0.0147999
-0.0144406
-0.0139713
-0.0133876
-0.0126951
-0.0119061
-0.0110286
-0.0100688
-0.0090327
-0.00792902
-0.00676774
-0.00556626
-0.00434128
-0.00311117
-0.00189369
-0.000707348
0.000431612
0.00150446
0.00250422
0.00342532
0.00426607
0.00503217
0.00573399
0.00639215
0.00702387
0.0076593
0.00831348
0.0090158
0.00977
0.0105911
0.0114707
0.0123995
0.013364
0.0143219
0.0152673
0.016118
0.0168713
0.0173686
0.0175753
0.0172822
0.0165645
0.0154754
0.014387
0.0135673
0.0130649
0.0131466
0.0135561
0.0143524
0.0149713
0.0151999
0.014137
0.0103827
0.00407069
-0.0105334
-0.0115326
-0.0120183
-0.0120833
-0.0119606
-0.0118041
-0.011652
-0.0114758
-0.0112354
-0.0109067
-0.0104842
-0.00997258
-0.00937954
-0.00871105
-0.00797215
-0.00716878
-0.00630976
-0.00537877
-0.00441058
-0.00341415
-0.00240201
-0.00138627
-0.000380619
0.000602185
0.00154928
0.0024527
0.00330674
0.00410898
0.00486148
0.00556921
0.00624494
0.00689863
0.00755082
0.00821027
0.00889847
0.00961687
0.0103779
0.011174
0.0119987
0.0128413
0.0136667
0.0144683
0.0151753
0.0157949
0.016192
0.0163663
0.0161614
0.01566
0.0148776
0.0140601
0.0133827
0.012915
0.0128937
0.0130231
0.0134306
0.0135924
0.0133192
0.0120771
0.00867096
0.00335562
-0.00739575
-0.0082462
-0.00868638
-0.00878668
-0.00873347
-0.00865196
-0.00857447
-0.00847895
-0.00833287
-0.00811586
-0.00782247
-0.00745572
-0.00702059
-0.00652072
-0.00595847
-0.0053356
-0.00465436
-0.00394296
-0.00318357
-0.00238722
-0.00156591
-0.000729322
0.000112149
0.000948812
0.00177077
0.00257106
0.00334425
0.0040873
0.00480003
0.00548399
0.00614643
0.0067924
0.00743515
0.00807907
0.00873907
0.00941475
0.010115
0.0108337
0.0115649
0.0122997
0.0130092
0.0136868
0.0142703
0.0147895
0.0151163
0.0152684
0.0151329
0.0147831
0.0142187
0.0135977
0.0130578
0.012623
0.0124777
0.012382
0.0124558
0.0122761
0.0116348
0.0102646
0.00722402
0.00275695
-0.00461119
-0.00533385
-0.00573186
-0.00585775
-0.00585917
-0.00583694
-0.00581815
-0.00578582
-0.00571379
-0.00558512
-0.0053947
-0.00514427
-0.00483729
-0.00447627
-0.00406284
-0.00359852
-0.00308616
-0.00253096
-0.00193669
-0.00130704
-0.000648819
3.12709e-05
0.000725649
0.00142745
0.00212903
0.00282452
0.00350904
0.00417949
0.00483449
0.00547347
0.00610001
0.00671582
0.00732888
0.00794066
0.00856054
0.00918717
0.00982587
0.0104715
0.0111184
0.0117594
0.0123693
0.0129416
0.0134086
0.0138642