/*--------------------------------*- C++ -*----------------------------------*\
| =========                 |                                                 |
| \\      /  F ield         | OpenFOAM: The Open Source CFD Toolbox           |
|  \\    /   O peration     | Version:  2512                                  |
|   \\  /    A nd           | Website:  www.openfoam.com                      |
|    \\/     M anipulation  |                                                 |
\*---------------------------------------------------------------------------*/
FoamFile
{
    version     2.0;
    format      ascii;
    arch        "LSB;label=32;scalar=64";
    class       volVectorField;
    location    "157.75";
    object      U;
}
// * * * * * * * * * * * * * * * * * * * * * * * * * * * * * * * * * * * * * //

dimensions      [0 1 -1 0 0 0 0];

internalField   nonuniform List<vector> 
13248
(
(-0.0136604 0.0117035 6.95556e-20)
(-0.0265588 0.0239714 0)
(-0.0259369 0.0295552 -1.31356e-19)
(-0.0116551 0.0313129 1.2374e-19)
(0.0164632 0.0311235 1.15413e-19)
(0.0585358 0.0302415 0)
(0.114542 0.0295317 0)
(0.18414 0.0295915 2.72376e-19)
(0.266479 0.0307965 -2.36352e-21)
(0.36005 0.0333266 -2.36079e-19)
(0.462613 0.0371633 2.17576e-19)
(0.571243 0.0420891 -1.35732e-19)
(0.682484 0.0477031 0)
(0.792587 0.0534584 -2.34863e-19)
(0.897807 0.0587199 4.40157e-19)
(0.994703 0.0628356 -1.04101e-19)
(1.08041 0.0652164 -1.91844e-19)
(1.15285 0.0653796 1.80099e-19)
(1.21089 0.0630981 0)
(1.25438 0.0580029 0)
(1.28416 0.0510642 0)
(1.3017 0.0394317 0)
(1.30883 0.0317005 5.82404e-20)
(1.30859 0.00515796 2.16291e-19)
(-0.0143668 0.0112373 -2.10215e-19)
(-0.0233934 0.0212042 1.43481e-19)
(-0.0141545 0.0245837 -1.41704e-21)
(0.012609 0.0245037 -1.89429e-19)
(0.0565419 0.0231174 -1.15285e-19)
(0.11725 0.021916 -1.08993e-19)
(0.193971 0.0218986 -1.98156e-19)
(0.285283 0.0236751 1.88035e-19)
(0.388877 0.0275185 0)
(0.501501 0.0333834 1.08081e-21)
(0.619087 0.0409235 2.87491e-21)
(0.737062 0.0495345 1.37159e-19)
(0.850771 0.0584299 0)
(0.955926 0.0667431 0)
(1.04901 0.0736404 1.62638e-19)
(1.12757 0.078426 -3.05576e-19)
(1.19038 0.0806209 1.85992e-19)
(1.23746 0.0800059 -1.74621e-19)
(1.26994 0.0766126 -7.81115e-20)
(1.28982 0.0707017 -1.4522e-19)
(1.29954 0.0626817 -6.1938e-20)
(1.30182 0.0528738 -1.17332e-19)
(1.29841 0.0431947 1.69068e-19)
(1.29329 0.0292887 4.89768e-20)
(-0.0137313 0.00990951 0)
(-0.0160281 0.0169109 0)
(0.00508303 0.0184065 6.70221e-20)
(0.047857 0.0174664 6.15145e-20)
(0.111116 0.0163247 -1.82289e-21)
(0.193478 0.0165693 -1.13493e-19)
(0.292784 0.0191722 0)
(0.405781 0.0245614 -9.3236e-20)
(0.528035 0.0326703 8.79157e-20)
(0.654178 0.0429868 1.31105e-21)
(0.778412 0.0546434 -1.48622e-19)
(0.895162 0.0665562 -1.36186e-19)
(0.99971 0.0775948 2.24952e-21)
(1.08867 0.0867503 -1.13626e-19)
(1.16028 0.0932696 2.71667e-19)
(1.21437 0.0967337 0)
(1.25222 0.0970733 -1.79807e-19)
(1.27614 0.0945113 8.70368e-20)
(1.28903 0.0895171 7.80508e-20)
(1.29384 0.0825481 0)
(1.29324 0.0744731 6.53502e-20)
(1.28916 0.0649345 -2.26241e-19)
(1.28293 0.0569785 2.12386e-19)
(1.27638 0.0441065 1.35677e-19)
(-0.0113532 0.0077834 -7.49715e-20)
(-0.00347381 0.0112637 -7.76484e-20)
(0.0330275 0.0113376 6.98916e-20)
(0.0952242 0.0107076 0)
(0.180682 0.0114634 0)
(0.286359 0.0150692 -2.96013e-21)
(0.407917 0.0221985 0)
(0.53958 0.0327809 -2.87844e-19)
(0.674486 0.0461039 2.66924e-19)
(0.805447 0.0609745 -3.28315e-19)
(0.925883 0.0759517 7.46955e-20)
(1.03067 0.0896101 0)
(1.11667 0.100775 1.24906e-19)
(1.18291 0.108682 -2.3157e-19)
(1.23035 0.113031 5.49386e-20)
(1.26144 0.113948 1.42783e-19)
(1.27944 0.111873 -5.33148e-21)
(1.2878 0.107417 -1.59745e-19)
(1.28963 0.101212 0)
(1.28737 0.093849 0)
(1.28269 0.0858039 -5.83737e-20)
(1.27661 0.0772406 5.27011e-20)
(1.26962 0.0695571 1.91784e-19)
(1.26268 0.0586424 -1.80047e-19)
(-0.00687401 0.00507485 -7.9575e-20)
(0.0151355 0.00485295 -7.91005e-20)
(0.0706865 0.00430989 2.22266e-19)
(0.155358 0.00547663 -1.34445e-19)
(0.264829 0.0100085 1.26547e-19)
(0.393583 0.0189089 2.28932e-19)
(0.534364 0.0321575 -1.61995e-19)
(0.678591 0.0488073 -1.96667e-19)
(0.817417 0.067258 4.32582e-21)
(0.943032 0.0856233 2.49843e-19)
(1.04977 0.102122 0)
(1.1347 0.115399 6.88659e-20)
(1.19762 0.124693 0)
(1.24056 0.129861 -1.12283e-19)
(1.26697 0.13125 1.57805e-19)
(1.28087 0.129513 1.35903e-21)
(1.28607 0.125412 -4.18018e-20)
(1.28572 0.119657 7.85875e-20)
(1.28211 0.112835 6.8117e-20)
(1.27668 0.105361 -6.14168e-20)
(1.2703 0.0975709 5.83617e-20)
(1.26338 0.0895146 -5.26896e-20)
(1.25612 0.0820862 0)
(1.24906 0.0723863 -4.01499e-20)
(3.69983e-05 0.00210208 7.95636e-20)
(0.0404994 -0.00141424 8.38124e-20)
(0.118662 -0.00126656 -7.45573e-20)
(0.228108 0.00354378 1.38972e-19)
(0.361834 0.0138311 -1.308e-19)
(0.51105 0.0296666 1.17971e-19)
(0.665261 0.049879 -5.684e-20)
(0.813602 0.0723613 1.47731e-19)
(0.946632 0.0946444 -9.31603e-20)
(1.05782 0.114475 1.64429e-19)
(1.1442 0.130248 -3.79429e-19)
(1.20621 0.14119 1.39642e-19)
(1.24683 0.147316 -1.21849e-19)
(1.27043 0.149214 1.14454e-19)
(1.28166 0.147758 9.91239e-20)
(1.28469 0.143869 8.7329e-20)
(1.28274 0.138343 -2.43305e-19)
(1.27803 0.131787 1.51121e-19)
(1.27193 0.124617 -6.81215e-20)
(1.26519 0.117114 1.78729e-19)
(1.25819 0.109452 -5.77163e-20)
(1.25108 0.101734 -1.4164e-19)
(1.24389 0.0943904 1.3095e-19)
(1.23683 0.0855726 4.01386e-20)
(0.00967632 -0.000747322 0)
(0.0730531 -0.00643126 8.66176e-22)
(0.17692 -0.00374199 1.57076e-19)
(0.312202 0.00681013 -1.47167e-19)
(0.468387 0.0246464 -1.32453e-19)
(0.632985 0.0483615 2.46018e-19)
(0.792744 0.0752852 -1.14178e-19)
(0.936014 0.102178 1.51591e-19)
(1.05481 0.126108 -3.45101e-21)
(1.14571 0.145069 -8.5824e-20)
(1.20953 0.158194 1.86449e-19)
(1.25002 0.165637 -2.75495e-19)
(1.27244 0.168227 0)
(1.28212 0.167087 -5.41338e-20)
(1.28364 0.163328 -1.44576e-19)
(1.28041 0.157864 4.54855e-20)
(1.27471 0.151359 1.71274e-21)
(1.26787 0.144254 -1.00642e-19)
(1.26064 0.136824 5.90565e-21)
(1.25333 0.129238 1.16624e-19)
(1.24606 0.12161 -5.2429e-20)
(1.23887 0.114024 -2.00453e-20)
(1.2317 0.106629 6.14087e-20)
(1.22463 0.098448 0)
(0.0222606 -0.00302794 0)
(0.112833 -0.00898817 4.26792e-20)
(0.244587 -0.00145464 -2.0581e-19)
(0.405084 0.0169373 7.47594e-20)
(0.579755 0.0435659 -7.03589e-20)
(0.752722 0.0750945 -6.43557e-20)
(0.909454 0.107338 -1.13234e-19)
(1.03967 0.136379 5.67634e-20)
(1.13879 0.159529 4.90155e-20)
(1.20753 0.175656 0)
(1.25029 0.184977 1.11245e-19)
(1.27318 0.188568 -1.65722e-19)
(1.28233 0.187845 1.23167e-19)
(1.28291 0.184162 5.41632e-20)
(1.27866 0.178607 -4.45412e-20)
(1.27203 0.171947 -3.72694e-20)
(1.26444 0.164675 -3.48673e-20)
(1.25661 0.157086 1.04156e-19)
(1.24887 0.149352 0)
(1.24133 0.141582 5.26488e-20)
(1.234 0.133847 4.45491e-20)
(1.22684 0.126212 -1.1038e-19)
(1.21978 0.118687 -7.60591e-20)
(1.2128 0.110929 7.01585e-20)
(0.0378601 -0.00424661 -4.65407e-20)
(0.159346 -0.00786298 -1.98106e-21)
(0.319859 0.00706813 4.20033e-20)
(0.503066 0.035071 1.17644e-19)
(0.690411 0.0708763 3.41773e-20)
(0.863919 0.109074 -6.60989e-20)
(1.00997 0.144412 6.01814e-20)
(1.12176 0.173085 -5.25175e-20)
(1.19923 0.193371 9.41465e-20)
(1.2471 0.205402 3.98862e-20)
(1.27235 0.210484 -1.1353e-19)
(1.28211 0.210379 3.33092e-20)
(1.28233 0.206772 5.68599e-20)
(1.27731 0.201001 -2.7971e-20)
(1.2698 0.193996 0)
(1.26139 0.186338 4.16749e-20)
(1.25287 0.178366 7.05776e-20)
(1.24456 0.170266 1.21112e-20)
(1.2366 0.162149 -5.88942e-20)
(1.22899 0.154083 2.46474e-20)
(1.22167 0.14612 0)
(1.21459 0.138293 -1.94207e-20)
(1.20765 0.130569 -1.85392e-20)
(1.20077 0.123021 0)
(0.0563341 -0.00388576 0)
(0.211492 -0.00192359 2.44389e-20)
(0.40006 0.0229412 4.52545e-20)
(0.601724 0.0616903 -1.20362e-19)
(0.794903 0.106064 3.90172e-20)
(0.961618 0.14892 0)
(1.09145 0.184785 5.82147e-20)
(1.18245 0.210826 -8.12905e-20)
(1.23909 0.226786 -4.71131e-20)
(1.26917 0.234121 2.11849e-20)
(1.28099 0.234998 -3.39542e-20)
(1.28159 0.231545 8.24082e-20)
(1.27611 0.22546 4.10969e-20)
(1.26781 0.217918 -2.86275e-20)
(1.25855 0.209643 -2.74166e-21)
(1.24924 0.201046 -7.80543e-20)
(1.24028 0.192345 3.55305e-20)
(1.23179 0.183659 -9.27949e-22)
(1.22378 0.175056 0)
(1.21621 0.166584 -2.46733e-20)
(1.20899 0.158277 0)
(1.20205 0.150138 5.58831e-20)
(1.19529 0.142168 -6.64924e-20)
(1.18858 0.134639 3.03203e-20)
(0.0772858 -0.00144119 -1.28651e-20)
(0.267563 0.00976626 -6.18374e-20)
(0.48185 0.0468001 7.04824e-20)
(0.696457 0.0965847 4.13144e-20)
(0.888603 0.148004 -1.97035e-20)
(1.04272 0.193017 3.30472e-20)
(1.15333 0.226955 -1.60413e-20)
(1.22366 0.248633 2.65749e-20)
(1.26199 0.259432 0)
(1.27796 0.261945 5.99235e-20)
(1.28006 0.258877 -2.56214e-21)
(1.27461 0.252442 -4.8201e-20)
(1.26567 0.244184 2.05749e-20)
(1.25555 0.235049 -2.3156e-20)
(1.2454 0.225567 -8.76106e-21)
(1.23568 0.21601 1.01783e-20)
(1.22657 0.206515 -7.82232e-21)
(1.21807 0.197155 -4.24627e-20)
(1.21014 0.187974 2.60071e-20)
(1.2027 0.179004 5.30898e-21)
(1.19566 0.17026 4.67253e-21)
(1.18892 0.161728 4.11469e-21)
(1.18237 0.153475 0)
(1.17587 0.145766 0)
(0.100125 0.00354329 1.2874e-20)
(0.325469 0.0278642 -1.28639e-20)
(0.56171 0.0787356 -2.35145e-20)
(0.783163 0.13893 0)
(0.968228 0.195209 -9.80242e-21)
(1.1059 0.239805 -8.84538e-21)
(1.19646 0.269778 -1.5063e-20)
(1.2479 0.285957 0)
(1.27112 0.291256 0)
(1.27646 0.289093 0)
(1.27188 0.282402 0)
(1.26263 0.273281 0)
(1.25173 0.26303 -1.293e-20)
(1.2407 0.252371 5.88588e-21)
(1.23017 0.241666 1.01945e-20)
(1.22038 0.231086 4.76316e-21)
(1.21132 0.220713 1.17495e-20)
(1.20297 0.210589 0)
(1.19525 0.200742 -2.80281e-21)
(1.18806 0.191191 -2.68601e-21)
(1.18131 0.181929 -4.67999e-21)
(1.17487 0.172949 -4.12128e-21)
(1.16864 0.164381 0)
(1.16246 0.156331 2.94098e-21)
(-0.00173511 0.00683452 8.74519e-21)
(-0.00813424 0.0273253 -9.06526e-21)
(-0.0191584 0.0511782 -1.71422e-20)
(-0.0325271 0.0756082 0)
(-0.0470214 0.0988624 -2.29364e-20)
(-0.0620054 0.120239 7.24167e-21)
(-0.0769747 0.139826 -1.35204e-20)
(-0.0914993 0.158159 0)
(-0.105221 0.175901 0)
(-0.11784 0.193612 0)
(-0.129103 0.211631 0)
(-0.138789 0.230043 0)
(-0.146695 0.248705 1.26287e-22)
(-0.152624 0.267283 -9.00036e-21)
(-0.15637 0.285292 1.68782e-20)
(-0.157723 0.302119 2.40632e-20)
(-0.156467 0.317041 7.57487e-21)
(-0.15239 0.329241 0)
(-0.145302 0.33784 6.91009e-21)
(-0.135056 0.341941 -1.96241e-20)
(-0.12156 0.340705 -1.25879e-20)
(-0.104726 0.333393 -1.20871e-20)
(-0.0845133 0.319451 0)
(-0.0613802 0.298872 0)
(-0.00211207 0.0106729 -2.61549e-20)
(-0.00866237 0.0361945 4.51347e-20)
(-0.0185913 0.0634243 -1.68282e-20)
(-0.0301394 0.0901532 -3.20545e-20)
(-0.0423323 0.114918 4.5412e-20)
(-0.0546386 0.137143 -2.84165e-20)
(-0.0666301 0.156969 4.02426e-20)
(-0.0779226 0.174959 2.49214e-20)
(-0.088167 0.19181 0)
(-0.0970412 0.208129 -2.25686e-20)
(-0.104247 0.224304 -1.0916e-22)
(-0.109511 0.240463 1.99376e-20)
(-0.112575 0.256492 2.79167e-20)
(-0.113196 0.272068 3.54176e-20)
(-0.111136 0.286709 -1.65541e-20)
(-0.106165 0.299803 -4.74731e-20)
(-0.0980703 0.310648 1.52213e-20)
(-0.0866623 0.318456 -5.71246e-20)
(-0.0717872 0.322403 0)
(-0.053349 0.32167 1.31148e-20)
(-0.0313549 0.315503 1.25656e-20)
(-0.00585271 0.303298 1.20654e-20)
(0.0232933 0.284757 0)
(0.0560632 0.260376 0)
(-0.00274434 0.0130374 0)
(-0.00972718 0.0417345 8.88279e-20)
(-0.0186067 0.0712165 -3.35249e-20)
(-0.0281616 0.0995766 3.17411e-20)
(-0.0376687 0.125493 -8.89498e-20)
(-0.0467095 0.148411 0)
(-0.0549501 0.168432 -5.24565e-20)
(-0.0620774 0.186066 2.44425e-20)
(-0.067785 0.201992 -4.59131e-20)
(-0.0717632 0.216826 2.11257e-20)
(-0.0736999 0.230999 1.22815e-19)
(-0.0732923 0.244695 -5.76894e-20)
(-0.070253 0.257856 -9.17315e-20)
(-0.0643149 0.270211 -3.47505e-20)
(-0.055235 0.281323 -7.35303e-22)
(-0.0427853 0.29063 1.24697e-19)
(-0.0267858 0.297481 -5.8963e-20)
(-0.00711252 0.301165 3.12506e-22)
(0.0163135 0.30095 0)
(0.043491 0.296119 -5.25617e-20)
(0.0743125 0.286008 0)
(0.108569 0.2701 -5.1254e-20)
(0.146286 0.248171 1.92248e-19)
(0.188827 0.220619 3.35419e-21)
(-0.00344191 0.0139716 0)
(-0.0110453 0.0439369 -3.18383e-22)
(-0.0191079 0.0743816 3.29893e-20)
(-0.0268166 0.103485 -3.09097e-20)
(-0.0336363 0.129962 2.96364e-20)
(-0.0392374 0.153214 1.64539e-19)
(-0.0433815 0.173239 -5.16519e-20)
(-0.0458405 0.19044 -4.79784e-20)
(-0.0463795 0.205412 9.0873e-20)
(-0.0447506 0.218738 -1.28509e-19)
(-0.0406717 0.230868 3.96747e-20)
(-0.0338539 0.24204 3.73784e-20)
(-0.0240182 0.252265 0)
(-0.0109071 0.261356 3.41375e-20)
(0.0057046 0.268958 0)
(0.0260005 0.274599 6.03656e-20)
(0.0501095 0.277712 -1.18089e-19)
(0.0780923 0.277699 2.5496e-20)
(0.109939 0.273943 1.06631e-19)
(0.145558 0.265851 5.24954e-20)
(0.184767 0.252882 0)
(0.227374 0.234563 -1.49757e-19)
(0.27244 0.210742 4.66363e-20)
(0.325463 0.181079 0)
(-0.00407409 0.0137495 0)
(-0.0124126 0.0432744 -1.04734e-19)
(-0.0200329 0.0733352 -3.26234e-20)
(-0.0263072 0.102095 -6.15258e-20)
(-0.0307821 0.128279 5.79303e-20)
(-0.0331713 0.151232 -5.45624e-20)
(-0.0333047 0.170835 1.01289e-19)
(-0.0310532 0.187352 4.75951e-20)
(-0.0262792 0.201252 -1.34203e-19)
(-0.0188194 0.213048 8.3526e-20)
(-0.00847324 0.223171 -1.18236e-19)
(0.00498093 0.231888 2.57349e-19)
(0.0217668 0.23928 -1.39006e-19)
(0.0420915 0.245244 6.50192e-20)
(0.0661288 0.249531 1.87717e-19)
(0.0940054 0.251775 -5.8295e-20)
(0.12579 0.25153 -5.38376e-20)
(0.161488 0.248313 -5.42663e-20)
(0.201036 0.241628 0)
(0.24432 0.230996 -1.04152e-19)
(0.291045 0.215969 -1.04701e-19)
(0.341754 0.196107 1.42326e-19)
(0.392777 0.171435 1.92726e-19)
(0.457637 0.14036 -1.79584e-19)
(-0.00461069 0.0127998 0)
(-0.013775 0.0405735 -1.38094e-19)
(-0.0214008 0.0689769 6.4943e-22)
(-0.0267986 0.0961942 1.22293e-19)
(-0.0294869 0.121009 0)
(-0.0291781 0.142755 0)
(-0.0257452 0.161225 0)
(-0.0191403 0.176552 -4.68385e-20)
(-0.00932885 0.189077 4.22362e-22)
(0.00374505 0.199215 8.19268e-20)
(0.0201724 0.207344 -1.16301e-19)
(0.0400738 0.213731 1.74838e-24)
(0.0635845 0.2185 0)
(0.0908369 0.221628 -6.4986e-20)
(0.121945 0.222962 6.08533e-20)
(0.156989 0.222247 -1.72142e-19)
(0.196014 0.219155 2.23026e-19)
(0.239036 0.213305 5.67047e-20)
(0.286014 0.204309 6.02789e-21)
(0.336981 0.191775 -1.9599e-19)
(0.391273 0.175325 -9.51122e-20)
(0.451422 0.154605 3.31232e-19)
(0.508574 0.129798 -2.22902e-19)
(0.58866 0.0977709 0)
(-0.00513706 0.0116124 6.67074e-20)
(-0.0152474 0.036841 6.89789e-20)
(-0.0232996 0.0625239 -6.43603e-20)
(-0.0283516 0.0870279 -1.20574e-19)
(-0.0298182 0.109307 1.13524e-19)
(-0.0273835 0.128769 -1.05184e-19)
(-0.0209412 0.145181 1.47907e-19)
(-0.0105011 0.158592 -4.66421e-20)
(0.00388745 0.169238 8.60361e-20)
(0.0221835 0.177433 0)
(0.0443787 0.18349 7.38246e-20)
(0.0705031 0.187653 -1.38789e-19)
(0.100621 0.190065 1.32369e-19)
(0.134818 0.190755 -1.24315e-19)
(0.173199 0.189647 0)
(0.215866 0.186573 1.12553e-19)
(0.26291 0.181297 2.16036e-19)
(0.314443 0.173538 -2.0427e-19)
(0.370496 0.162971 -9.82248e-20)
(0.431498 0.149353 -1.01061e-19)
(0.495878 0.132134 2.79058e-19)
(0.568963 0.111406 9.22719e-20)
(0.633966 0.0869207 -8.34254e-20)
(0.733231 0.0555279 8.26956e-20)
(-0.00582288 0.0106342 -6.67167e-20)
(-0.0170456 0.0330528 2.04752e-19)
(-0.0257851 0.0552733 -6.42647e-20)
(-0.0307732 0.0760928 1.19674e-19)
(-0.0313022 0.0947822 -1.12677e-19)
(-0.0270256 0.11092 1.5361e-22)
(-0.0178391 0.124334 4.88892e-20)
(-0.00377462 0.135054 1.78944e-19)
(0.0150832 0.143252 -1.62166e-21)
(0.0386536 0.149172 -7.97985e-20)
(0.066895 0.153068 0)
(0.0998208 0.155154 -6.77088e-20)
(0.137502 0.155573 1.2876e-19)
(0.180056 0.154378 1.21899e-19)
(0.227642 0.151541 -5.75939e-20)
(0.280435 0.146952 -1.36935e-21)
(0.338595 0.140441 -5.30367e-20)
(0.402248 0.13179 9.9223e-20)
(0.471237 0.120677 9.82167e-20)
(0.546022 0.10708 -9.49617e-20)
(0.623703 0.0900608 8.90763e-20)
(0.711658 0.0709147 -8.58491e-20)
(0.7855 0.0475031 0)
(0.900873 0.0202904 -8.26767e-20)
(-0.00685222 0.0101682 6.62972e-20)
(-0.0193377 0.0299401 -6.82962e-20)
(-0.0286948 0.0483376 6.39817e-20)
(-0.033398 0.0648579 0)
(-0.032657 0.0792316 0)
(-0.0261052 0.0913048 1.02609e-19)
(-0.0136134 0.101045 -9.70669e-20)
(0.00482235 0.108531 8.79187e-20)
(0.0291631 0.11393 -4.1546e-19)
(0.059384 0.117454 6.11485e-22)
(0.0955071 0.119322 7.16259e-20)
(0.137612 0.119723 0)
(0.185823 0.118786 -1.26411e-19)
(0.240286 0.116573 2.38081e-19)
(0.301113 0.113063 -1.68965e-19)
(0.368326 0.108163 -2.7e-19)
(0.441794 0.101721 -3.98137e-21)
(0.521186 0.0935493 1.91827e-19)
(0.605677 0.0833433 0)
(0.694887 0.0712813 0)
(0.784903 0.0561114 -8.90789e-20)
(0.88173 0.0403958 8.58512e-20)
(0.960477 0.0191359 -3.25952e-19)
(1.07514 -0.000699719 3.05236e-19)
(-0.00832598 0.0102945 0)
(-0.0220595 0.0278219 0)
(-0.0314463 0.0424137 -1.91545e-19)
(-0.034904 0.0544757 6.10543e-20)
(-0.0316358 0.0643032 1.31875e-21)
(-0.0212616 0.0720823 1.04121e-19)
(-0.00358897 0.0779857 0)
(0.0214881 0.0822024 -8.8995e-20)
(0.054049 0.0849442 8.28408e-20)
(0.0941775 0.086432 -1.52091e-19)
(0.141963 0.086872 4.01418e-22)
(0.197471 0.0864304 1.32988e-19)
(0.260691 0.085212 2.04899e-23)
(0.331463 0.0832464 1.18436e-19)
(0.409407 0.0804814 -1.65985e-19)
(0.493843 0.0767907 0)
(0.583738 0.0719882 2.0299e-19)
(0.677692 0.0658527 -2.87647e-19)
(0.773829 0.0581009 9.08991e-20)
(0.870306 0.0487634 0)
(0.963403 0.0368472 8.26673e-20)
(1.05473 0.0247474 3.25203e-19)
(1.128 0.00655742 -3.05201e-19)
(1.21776 -0.0064676 -3.59192e-19)
(-0.0101689 0.0108447 1.99587e-19)
(-0.0247706 0.0265359 -2.74265e-19)
(-0.0329462 0.0376406 9.15204e-22)
(-0.0333327 0.0455468 6.07399e-20)
(-0.0252176 0.0511483 -1.12262e-19)
(-0.00821668 0.0550105 -1.03691e-19)
(0.0179389 0.0575504 1.90908e-19)
(0.0534578 0.0591024 -2.97603e-21)
(0.0984872 0.0599563 -1.66265e-19)
(0.153079 0.0603604 3.05765e-19)
(0.217129 0.0605102 -1.35821e-21)
(0.290294 0.0605295 -1.33332e-19)
(0.371909 0.0604541 0)
(0.460918 0.0602212 0)
(0.555842 0.0596692 -5.53901e-20)
(0.654775 0.0585471 -1.04175e-19)
(0.755442 0.0565485 -1.99779e-19)
(0.855274 0.0532962 1.87519e-19)
(0.951564 0.0485339 -9.09425e-20)
(1.04159 0.041801 1.71373e-19)
(1.12267 0.0331183 -8.12493e-20)
(1.19354 0.0226833 1.54463e-19)
(1.24841 0.00800192 -3.57358e-19)
(1.30013 -0.0024167 7.00579e-20)
(-0.0120936 0.0114545 6.71045e-20)
(-0.0266365 0.0255065 0)
(-0.031683 0.0336131 1.29443e-19)
(-0.0263687 0.0380327 -1.21941e-19)
(-0.0101753 0.0402108 1.12366e-19)
(0.0172359 0.0410875 0)
(0.0561247 0.0413182 0)
(0.106627 0.0413867 -8.87623e-20)
(0.168669 0.0416555 2.32408e-21)
(0.241845 0.0423767 7.83901e-20)
(0.325305 0.043689 -7.13659e-20)
(0.417679 0.0456041 1.34169e-19)
(0.517044 0.0479982 0)
(0.620964 0.0506142 2.34625e-19)
(0.7266 0.0530794 -4.4113e-19)
(0.830861 0.0549365 3.11574e-19)
(0.930605 0.0557036 1.96263e-19)
(1.02284 0.0548605 -1.84231e-19)
(1.10496 0.0521455 0)
(1.17488 0.0468202 0)
(1.23143 0.0398645 0)
(1.27411 0.0287872 0)
(1.30333 0.0178884 6.94855e-20)
(1.323 0.00352033 -2.48114e-19)
(-0.0327621 0.268432 -8.03797e-21)
(0.00359826 0.218823 8.0925e-21)
(0.0433855 0.154046 -2.64779e-22)
(0.0864424 0.0754122 0)
(0.131514 -0.015574 -7.81274e-21)
(0.177917 -0.115834 1.49815e-20)
(0.225039 -0.221799 -3.67874e-22)
(0.271644 -0.327452 -6.62252e-21)
(0.316538 -0.425275 0)
(0.357773 -0.506878 0)
(0.392809 -0.565657 -2.57372e-22)
(0.418953 -0.599156 -2.09088e-22)
(0.433329 -0.61084 -2.68505e-21)
(0.432418 -0.610113 2.44502e-21)
(0.41434 -0.606954 0)
(0.384771 -0.601 0)
(0.35933 -0.575312 1.95711e-21)
(0.356603 -0.505013 2.10718e-22)
(0.385581 -0.376403 -1.92818e-21)
(0.440901 -0.1981 -1.32944e-22)
(0.510349 0.00413331 0)
(0.582331 0.197236 0)
(0.647763 0.350233 0)
(0.699837 0.448481 0)
(0.734925 0.496927 0)
(0.754575 0.509144 0)
(0.763219 0.501865 2.85168e-22)
(0.758937 0.496717 -4.60935e-22)
(0.735379 0.50941 0)
(0.696252 0.522922 0)
(0.662115 0.487558 -5.31774e-22)
(0.654389 0.363457 5.16828e-22)
(0.67817 0.161429 3.24689e-22)
(0.720839 -0.0588525 0)
(0.768081 -0.242165 0)
(0.805398 -0.354849 3.66512e-22)
(0.832916 -0.406832 -3.56263e-22)
(0.845632 -0.420159 0)
(0.836575 -0.434341 2.11286e-22)
(0.798832 -0.447961 -3.02912e-22)
(0.748921 -0.428152 1.0211e-22)
(0.71361 -0.337218 0)
(0.712962 -0.164277 -2.6233e-22)
(0.737725 0.0176919 2.55086e-22)
(0.783514 0.186881 0)
(0.819752 0.276966 0)
(0.833156 0.353541 -6.9768e-23)
(0.806468 0.388435 1.97255e-22)
(0.76828 0.383033 0)
(0.744639 0.309718 0)
(0.763287 0.1246 -6.51287e-23)
(0.792367 -0.00137512 -7.61221e-24)
(0.828284 -0.189713 -7.14964e-24)
(0.815324 -0.262316 4.24092e-23)
(0.803862 -0.347119 0)
(0.789768 -0.356142 0)
(0.800053 -0.176879 0)
(0.794903 -0.126739 0)
(0.806063 0.181327 0)
(0.785578 0.245568 0)
(0.0938038 0.227813 -8.12302e-22)
(0.13534 0.176289 -3.55905e-20)
(0.178609 0.109839 -5.69941e-22)
(0.223925 0.029943 3.39175e-20)
(0.270072 -0.0613162 5.4148e-22)
(0.31606 -0.161422 0)
(0.361252 -0.266849 -2.88914e-20)
(0.404639 -0.371377 5.48111e-20)
(0.444455 -0.466619 -2.59064e-20)
(0.478103 -0.543494 1.90082e-20)
(0.502867 -0.595018 -1.82181e-20)
(0.516916 -0.618844 1.22439e-20)
(0.519478 -0.618257 -1.19442e-20)
(0.509138 -0.602633 -2.73405e-22)
(0.482878 -0.585144 -7.22478e-21)
(0.441064 -0.572821 7.0219e-21)
(0.394379 -0.55493 -6.73723e-21)
(0.362432 -0.504927 6.35564e-21)
(0.361914 -0.399561 -7.80061e-21)
(0.395334 -0.238494 1.55434e-20)
(0.453296 -0.0449912 -7.72678e-21)
(0.522657 0.14719 -4.17411e-22)
(0.591829 0.306608 -5.75716e-21)
(0.651862 0.416021 1.02427e-20)
(0.697226 0.476418 -4.51695e-21)
(0.728109 0.498351 2.01629e-22)
(0.746614 0.499404 3.11119e-21)
(0.749105 0.503457 2.07013e-22)
(0.730749 0.524536 -6.28868e-21)
(0.699007 0.540308 7.12574e-21)
(0.675687 0.498432 -3.78153e-21)
(0.678845 0.362684 6.41711e-22)
(0.710457 0.149663 -3.25346e-22)
(0.756293 -0.0769071 6.71653e-22)
(0.802135 -0.259879 0)
(0.833437 -0.368154 0)
(0.852694 -0.414349 -1.18189e-21)
(0.857675 -0.420346 8.93774e-22)
(0.844509 -0.42536 6.02467e-22)
(0.803749 -0.431919 8.7336e-23)
(0.749445 -0.412578 -8.57231e-22)
(0.708014 -0.330323 2.04242e-22)
(0.702186 -0.168691 0)
(0.726848 0.00490255 0)
(0.773958 0.172675 0)
(0.813595 0.268504 0)
(0.827502 0.354775 2.7475e-22)
(0.803254 0.396953 -1.29529e-22)
(0.767217 0.391277 0)
(0.746068 0.311351 0)
(0.767544 0.11882 0)
(0.796879 -0.00907825 -1.27545e-22)
(0.836504 -0.192288 6.77616e-24)
(0.822001 -0.259825 -9.13918e-23)
(0.810388 -0.344042 0)
(0.794183 -0.355603 0)
(0.801096 -0.177653 4.44704e-23)
(0.794505 -0.127007 1.12892e-22)
(0.801671 0.182559 0)
(0.78298 0.246828 0)
(0.23046 0.186926 3.83161e-21)
(0.274944 0.134918 -7.15412e-20)
(0.3198 0.0690496 7.51996e-20)
(0.366232 -0.00951182 -7.0306e-20)
(0.412881 -0.0987985 -5.45071e-22)
(0.458346 -0.197009 0)
(0.501941 -0.3004 -6.20595e-20)
(0.542298 -0.402408 6.07612e-20)
(0.576828 -0.494027 3.88031e-22)
(0.602276 -0.565636 6.70996e-22)
(0.615953 -0.610232 5.47303e-22)
(0.616857 -0.626176 4.32019e-22)
(0.605938 -0.617191 -1.98885e-20)
(0.584681 -0.591301 1.96051e-20)
(0.551745 -0.561065 0)
(0.503857 -0.538602 3.54911e-22)
(0.444519 -0.522217 -1.12534e-20)
(0.389632 -0.489458 1.11294e-20)
(0.360438 -0.410572 0)
(0.368512 -0.273397 0)
(0.40999 -0.0942343 -1.31026e-20)
(0.472538 0.0930632 2.47489e-20)
(0.542414 0.256758 -2.11761e-20)
(0.608117 0.376549 1.713e-21)
(0.662493 0.449076 1.45306e-20)
(0.70394 0.481811 -1.28721e-20)
(0.731823 0.492743 1.13899e-20)
(0.741216 0.506884 9.00378e-23)
(0.729077 0.536132 -5.9606e-21)
(0.705889 0.554047 0)
(0.693642 0.506868 0)
(0.707393 0.361987 4.31841e-21)
(0.746287 0.140677 -5.48124e-21)
(0.794478 -0.0906371 3.44097e-23)
(0.838288 -0.272831 4.23397e-21)
(0.863375 -0.377029 -4.11449e-21)
(0.874272 -0.418443 0)
(0.871408 -0.418568 2.56091e-22)
(0.854325 -0.415462 1.75105e-21)
(0.811408 -0.415309 -3.25694e-21)
(0.753709 -0.396483 1.37887e-21)
(0.706626 -0.323449 1.5012e-22)
(0.695442 -0.174023 -1.99951e-21)
(0.719454 -0.00949082 1.57599e-21)
(0.767066 0.156895 3.21974e-22)
(0.809479 0.258912 2.83345e-22)
(0.823797 0.355124 -2.75459e-22)
(0.802298 0.40486 0)
(0.768838 0.399212 0)
(0.750292 0.313308 -1.3198e-21)
(0.774286 0.113574 6.36651e-22)
(0.803351 -0.016545 -6.16793e-22)
(0.84633 -0.194593 7.63786e-22)
(0.830155 -0.256955 7.45815e-22)
(0.817905 -0.340445 -1.68034e-22)
(0.79931 -0.354848 2.23182e-22)
(0.803145 -0.178115 -1.68458e-22)
(0.795282 -0.126978 4.67557e-23)
(0.798429 0.183801 0)
(0.781386 0.248016 0)
(0.367269 0.147533 -1.48454e-19)
(0.412856 0.0959267 -4.5461e-21)
(0.458743 0.0312564 1.45745e-19)
(0.50613 -0.044057 -1.15452e-21)
(0.553503 -0.130035 0)
(0.599057 -0.225234 0)
(0.641804 -0.325538 -1.26895e-19)
(0.679559 -0.42389 9.19934e-21)
(0.708695 -0.510763 1.58192e-19)
(0.725413 -0.576264 -7.53563e-21)
(0.727452 -0.613688 -3.95036e-20)
(0.714997 -0.622383 -2.4393e-20)
(0.690383 -0.607245 2.45522e-20)
(0.657233 -0.575525 0)
(0.617416 -0.536665 -1.21814e-20)
(0.567565 -0.503146 1.11602e-20)
(0.504326 -0.481539 0)
(0.435501 -0.459036 0)
(0.381644 -0.405872 9.55102e-21)
(0.362655 -0.298275 7.66591e-22)
(0.383208 -0.140681 -9.40067e-21)
(0.434225 0.0372003 -9.69649e-21)
(0.500931 0.202243 9.56451e-21)
(0.56952 0.330865 -7.13836e-21)
(0.631209 0.415195 9.71495e-22)
(0.682058 0.459484 5.75812e-21)
(0.718557 0.48138 6.60445e-22)
(0.734885 0.505939 2.07916e-23)
(0.729755 0.542946 0)
(0.71578 0.563231 8.50095e-21)
(0.714603 0.512826 -8.83841e-21)
(0.738587 0.361889 6.8316e-22)
(0.784315 0.134578 0)
(0.834511 -0.100022 -7.14302e-22)
(0.875944 -0.281453 8.83279e-21)
(0.894867 -0.382029 -1.42816e-20)
(0.897514 -0.419467 8.65889e-22)
(0.886726 -0.415152 1.07085e-21)
(0.86569 -0.405161 3.19982e-21)
(0.821371 -0.398509 3.40332e-22)
(0.761476 -0.379726 -2.59172e-21)
(0.709484 -0.316107 2.16181e-21)
(0.692786 -0.179793 5.77727e-23)
(0.715466 -0.025128 1.29491e-21)
(0.762694 0.139753 -1.58207e-21)
(0.807297 0.248181 -1.85891e-21)
(0.822023 0.354415 5.4246e-22)
(0.803591 0.411965 1.12937e-21)
(0.773176 0.406772 -2.39831e-21)
(0.757389 0.315728 1.93138e-21)
(0.783564 0.109136 -6.32902e-22)
(0.811738 -0.0236453 7.57246e-22)
(0.857624 -0.196657 6.39595e-22)
(0.839707 -0.253712 -1.15918e-21)
(0.826375 -0.336274 4.24567e-23)
(0.805057 -0.35383 -1.93877e-22)
(0.806107 -0.1783 0)
(0.797165 -0.126673 -7.81602e-23)
(0.796289 0.185059 9.52951e-23)
(0.780782 0.249148 0)
(0.498679 0.108451 1.47872e-19)
(0.544241 0.058674 -2.95771e-19)
(0.592239 -0.00303718 1.45471e-19)
(0.641885 -0.0743338 1.4903e-19)
(0.690081 -0.156343 -2.9043e-19)
(0.735981 -0.24727 4.68906e-21)
(0.777886 -0.342641 1.33974e-19)
(0.812427 -0.435098 1.12366e-19)
(0.835061 -0.515117 -1.1002e-19)
(0.8419 -0.573277 0)
(0.831599 -0.603773 -6.44387e-20)
(0.806011 -0.606757 1.12977e-19)
(0.768987 -0.587756 -4.89494e-20)
(0.724978 -0.554045 0)
(0.677834 -0.512237 0)
(0.626941 -0.471195 3.23541e-22)
(0.56622 -0.440915 -1.509e-20)
(0.494045 -0.419757 1.46613e-20)
(0.423857 -0.385662 0)
(0.379064 -0.309039 1.49656e-20)
(0.374956 -0.179664 -2.90925e-20)
(0.409562 -0.0170946 2.87004e-20)
(0.468756 0.144787 -2.69807e-20)
(0.537015 0.279753 1.31896e-21)
(0.603713 0.374941 2.07934e-20)
(0.662234 0.43109 -9.81149e-21)
(0.706299 0.464608 -3.16883e-22)
(0.729452 0.499639 -5.41541e-21)
(0.731863 0.544104 -1.2897e-21)
(0.727423 0.567473 6.68375e-21)
(0.737043 0.516408 5.85978e-22)
(0.770572 0.362753 -1.21442e-20)
(0.82293 0.132087 2.42743e-20)
(0.875326 -0.104708 -1.36325e-20)
(0.914336 -0.285504 0)
(0.927288 -0.38299 -7.78032e-21)
(0.921993 -0.417286 7.32532e-21)
(0.903423 -0.410007 -3.12909e-21)
(0.878411 -0.394603 3.92524e-21)
(0.833313 -0.38198 -2.90692e-22)
(0.772394 -0.362714 0)
(0.716431 -0.308215 -2.59507e-22)
(0.694112 -0.185618 8.67709e-22)
(0.714691 -0.0417255 0)
(0.76063 0.121407 2.51578e-21)
(0.806872 0.236215 -1.01198e-21)
(0.822087 0.352408 4.9439e-22)
(0.807033 0.418041 5.14794e-22)
(0.780164 0.413885 0)
(0.767315 0.318689 0)
(0.795339 0.105576 -2.21433e-21)
(0.821988 -0.0302858 3.40616e-21)
(0.870228 -0.198447 -1.80751e-21)
(0.85056 -0.250046 5.08015e-22)
(0.835763 -0.331436 7.08315e-22)
(0.811338 -0.352519 1.94058e-22)
(0.809882 -0.178262 -2.10939e-22)
(0.800069 -0.126117 0)
(0.795189 0.18634 -1.54223e-22)
(0.78115 0.250233 -1.9348e-23)
(0.628748 0.0684104 1.45641e-19)
(0.674469 0.0213297 -1.45155e-19)
(0.724001 -0.0353283 1.16657e-21)
(0.775043 -0.102152 -1.11023e-21)
(0.823918 -0.17906 1.13715e-21)
(0.869252 -0.264 -1.08998e-21)
(0.908591 -0.352175 1.94641e-21)
(0.937663 -0.436298 0)
(0.951594 -0.507489 -1.55264e-21)
(0.947135 -0.557446 1.31738e-21)
(0.92428 -0.581657 1.08081e-21)
(0.88646 -0.580953 -8.81705e-22)
(0.838958 -0.560575 0)
(0.786639 -0.527433 0)
(0.733352 -0.486818 3.77715e-22)
(0.680745 -0.443449 0)
(0.624516 -0.405461 -2.0436e-22)
(0.557388 -0.378803 0)
(0.482007 -0.353625 -9.36911e-21)
(0.417552 -0.303467 1.87016e-20)
(0.387392 -0.206107 -1.92193e-20)
(0.400286 -0.0664151 9.72135e-21)
(0.446985 0.0865751 9.00761e-21)
(0.511424 0.224361 -8.74777e-21)
(0.580239 0.328726 -7.88271e-21)
(0.644175 0.39657 7.64835e-21)
(0.694494 0.442016 0)
(0.724167 0.487382 2.72063e-22)
(0.734349 0.539138 0)
(0.739438 0.566638 0)
(0.759277 0.517656 1.98513e-20)
(0.801583 0.364847 -2.03644e-20)
(0.860452 0.133484 1.56759e-21)
(0.915623 -0.104675 1.53139e-21)
(0.952654 -0.285076 -1.29796e-21)
(0.960053 -0.380124 -6.92941e-21)
(0.947302 -0.412067 6.72821e-21)
(0.921244 -0.403194 -4.09162e-21)
(0.8922 -0.38394 3.47395e-21)
(0.846776 -0.366027 5.63493e-22)
(0.785912 -0.345683 -1.94669e-21)
(0.727086 -0.299636 -2.63918e-22)
(0.699146 -0.191057 1.37382e-21)
(0.716832 -0.0588439 0)
(0.760612 0.101992 -8.84967e-22)
(0.807968 0.222887 1.30804e-21)
(0.823819 0.348838 -1.71414e-21)
(0.812431 0.42285 -5.18093e-22)
(0.789607 0.420437 0)
(0.779869 0.322239 8.27248e-22)
(0.809485 0.103021 -1.58484e-21)
(0.83404 -0.0363136 3.71448e-23)
(0.883956 -0.199923 -6.20477e-22)
(0.862591 -0.24594 7.48902e-22)
(0.846028 -0.325845 -7.15423e-22)
(0.81807 -0.350863 0)
(0.814366 -0.178055 2.11035e-22)
(0.8039 -0.125337 0)
(0.79506 0.187642 0)
(0.782465 0.251276 2.88464e-23)
(0.769627 0.0286082 -1.41009e-19)
(0.813494 -0.0140326 1.39551e-19)
(0.862322 -0.0657834 -1.07294e-21)
(0.911192 -0.12698 1.13662e-21)