/*--------------------------------*- C++ -*----------------------------------*\
| =========                 |                                                 |
| \\      /  F ield         | OpenFOAM: The Open Source CFD Toolbox           |
|  \\    /   O peration     | Version:  2512                                  |
|   \\  /    A nd           | Website:  www.openfoam.com                      |
|    \\/     M anipulation  |                                                 |
\*---------------------------------------------------------------------------*/
FoamFile
{
    version     2.0;
    format      ascii;
    arch        "LSB;label=32;scalar=64";
    class       volVectorField;
    location    "114";
    object      U;
}
// * * * * * * * * * * * * * * * * * * * * * * * * * * * * * * * * * * * * * //

dimensions      [0 1 -1 0 0 0 0];

internalField   nonuniform List<vector> 
13248
(
(-0.0109619 0.0105465 7.84427e-20)
(-0.0164216 0.0189153 0)
(-0.00737171 0.0196701 -1.49121e-19)
(0.0146924 0.0155381 1.40474e-19)
(0.0490247 0.00864083 1.32124e-19)
(0.0951929 0.000590758 0)
(0.152759 -0.00743911 0)
(0.221035 -0.0145997 3.19156e-19)
(0.298886 -0.0202778 -2.90122e-21)
(0.384611 -0.0240507 -2.76251e-19)
(0.475937 -0.0256698 2.5041e-19)
(0.570126 -0.0250567 -1.56194e-19)
(0.664178 -0.0222982 0)
(0.755085 -0.0176297 -2.48149e-19)
(0.840097 -0.0114058 4.55445e-19)
(0.916941 -0.00406023 -1.07676e-19)
(0.983978 0.00394255 -1.75953e-19)
(1.04028 0.0121419 1.65183e-19)
(1.08564 0.0201589 0)
(1.12044 0.0275603 0)
(1.14574 0.0344188 0)
(1.16238 0.0396175 0)
(1.17324 0.0453121 4.17603e-20)
(1.17663 0.0461497 1.41357e-19)
(-0.00991884 0.00873698 -2.36962e-19)
(-0.0103862 0.0144686 1.61843e-19)
(0.00719147 0.0140721 -1.04403e-21)
(0.0409775 0.00986294 -2.144e-19)
(0.0898674 0.00379839 -1.31977e-19)
(0.152951 -0.00253759 -1.24682e-19)
(0.229071 -0.00798397 -2.29492e-19)
(0.316539 -0.0117361 2.16448e-19)
(0.412958 -0.0132946 0)
(0.515206 -0.0124435 2.07577e-21)
(0.619603 -0.00923279 4.21716e-21)
(0.722224 -0.0039461 1.55458e-19)
(0.819285 0.00295234 0)
(0.907517 0.0108887 0)
(0.984458 0.0192583 1.63689e-19)
(1.04862 0.0274987 -3.07126e-19)
(1.09952 0.0351477 1.73569e-19)
(1.13763 0.0418757 -1.62955e-19)
(1.16414 0.047505 -6.92894e-20)
(1.18081 0.0519576 -1.19257e-19)
(1.18958 0.0553985 -4.67197e-20)
(1.19266 0.0575305 -8.5766e-20)
(1.19161 0.0599013 1.31204e-19)
(1.18792 0.0582754 3.6665e-20)
(-0.0077481 0.00643723 0)
(-0.000641573 0.00871062 0)
(0.0281955 0.00680532 7.58786e-20)
(0.0764979 0.0026717 7.0217e-20)
(0.142618 -0.00191225 -1.42929e-21)
(0.224823 -0.00545756 -1.276e-19)
(0.320746 -0.00694502 0)
(0.42713 -0.00580806 -1.07438e-19)
(0.53981 -0.00190133 9.96339e-20)
(0.653971 0.00453529 -2.76617e-23)
(0.764611 0.0129471 -1.67023e-19)
(0.867104 0.0225736 -1.49179e-19)
(0.957711 0.0325804 5.52704e-21)
(1.03394 0.0421859 -1.15233e-19)
(1.09466 0.0507639 2.82651e-19)
(1.1401 0.057903 0)
(1.17157 0.0634225 -1.70576e-19)
(1.19114 0.0673455 8.32545e-20)
(1.20131 0.0698582 6.92281e-20)
(1.20459 0.0712009 0)
(1.20332 0.0717644 5.37653e-20)
(1.19937 0.0714957 -1.8259e-19)
(1.19406 0.0715735 1.71401e-19)
(1.18879 0.0688819 1.04293e-19)
(-0.00420516 0.0038422 -8.3353e-20)
(0.0135666 0.00232737 -8.60075e-20)
(0.05686 -0.000885804 7.82218e-20)
(0.122732 -0.00424489 0)
(0.208607 -0.00622613 0)
(0.311374 -0.00557829 -1.86497e-21)
(0.426812 -0.00165314 0)
(0.54955 0.00558745 -3.23483e-19)
(0.673433 0.0156449 2.99015e-19)
(0.792201 0.0276117 -3.67406e-19)
(0.900284 0.0403589 8.32597e-20)
(0.993481 0.0527487 0)
(1.06936 0.0638217 1.32547e-19)
(1.12732 0.0729226 -2.43141e-19)
(1.16839 0.0797456 5.77223e-20)
(1.19479 0.0843091 1.40421e-19)
(1.20939 0.0868759 -9.78268e-21)
(1.21527 0.087851 -1.54999e-19)
(1.21522 0.0876805 0)
(1.2116 0.0867636 0)
(1.20612 0.0854697 -5.18439e-20)
(1.19992 0.0837942 4.57538e-20)
(1.19373 0.0826641 1.58338e-19)
(1.18774 0.0791587 -1.48655e-19)
(0.00104709 0.00111394 -8.71664e-20)
(0.0330507 -0.00400526 -8.70436e-20)
(0.0942454 -0.00772344 2.45067e-19)
(0.180599 -0.00904556 -1.49148e-19)
(0.288003 -0.00688918 1.40389e-19)
(0.411253 -0.000502331 2.5548e-19)
(0.543663 0.0100565 -1.79869e-19)
(0.677534 0.0239662 -2.16561e-19)
(0.805103 0.0398679 5.81365e-21)
(0.919657 0.056167 2.76118e-19)
(1.01643 0.0713546 0)
(1.09304 0.084268 7.37836e-20)
(1.14946 0.094234 0)
(1.18756 0.101082 -1.16215e-19)
(1.21042 0.105054 1.62835e-19)
(1.22162 0.106655 1.18559e-21)
(1.22465 0.106496 -4.12857e-20)
(1.22247 0.105164 7.50951e-20)
(1.21734 0.103143 6.46515e-20)
(1.21082 0.100776 -5.71346e-20)
(1.20387 0.0982927 5.1831e-20)
(1.19701 0.0957046 -4.5742e-20)
(1.19045 0.0935267 0)
(1.18444 0.0895467 -3.46688e-20)
(0.0083884 -0.00156104 8.7154e-20)
(0.0585441 -0.00955138 9.10391e-20)
(0.141004 -0.0123877 -8.19964e-20)
(0.250086 -0.00994395 1.5252e-19)
(0.379398 -0.00191722 -1.43555e-19)
(0.520944 0.0115517 1.29592e-19)
(0.665318 0.0293127 -6.20683e-20)
(0.802949 0.0494496 1.62783e-19)
(0.925643 0.0697651 -1.01868e-19)
(1.0278 0.088264 1.7769e-19)
(1.10697 0.103511 -4.07866e-19)
(1.1636 0.114792 1.48899e-19)
(1.20037 0.122073 -1.27567e-19)
(1.22119 0.125829 1.19825e-19)
(1.23028 0.126808 1.0079e-19)
(1.23149 0.125817 8.65327e-20)
(1.22791 0.123573 -2.4092e-19)
(1.22177 0.120627 1.48581e-19)
(1.21451 0.117352 -6.46531e-20)
(1.20698 0.113973 1.66445e-19)
(1.19963 0.110609 -5.37875e-20)
(1.19267 0.107274 -1.28281e-19)
(1.18617 0.104233 1.1798e-19)
(1.18013 0.0999226 3.46578e-20)
(0.0181698 -0.00392562 0)
(0.0905348 -0.0134607 5.63651e-22)
(0.197146 -0.013523 1.69844e-19)
(0.330021 -0.00532018 -1.59503e-19)
(0.479736 0.01018 -1.43757e-19)
(0.635141 0.0314794 2.66915e-19)
(0.784542 0.0560495 -1.23829e-19)
(0.917773 0.0809152 1.64046e-19)
(1.02794 0.103405 -4.15131e-21)
(1.11214 0.12167 -9.22152e-20)
(1.17117 0.134876 1.98572e-19)
(1.2084 0.143103 -2.91757e-19)
(1.22856 0.147053 0)
(1.23654 0.147728 -5.60108e-20)
(1.2366 0.146141 -1.47462e-19)
(1.23201 0.14315 4.66704e-20)
(1.22506 0.13939 2.19451e-21)
(1.21714 0.135276 -9.76132e-20)
(1.20907 0.131056 7.54776e-21)
(1.20126 0.126861 1.12216e-19)
(1.19388 0.12275 -4.88438e-20)
(1.18698 0.118745 -1.83221e-20)
(1.18052 0.114919 5.73182e-20)
(1.17449 0.110327 0)
(0.0306397 -0.0056321 0)
(0.129108 -0.0147586 4.59857e-20)
(0.261873 -0.00978252 -2.2056e-19)
(0.418019 0.00616021 8.017e-20)
(0.584613 0.030248 -7.54533e-20)
(0.747649 0.0592363 -6.85578e-20)
(0.89441 0.0892158 -1.21054e-19)
(1.01599 0.116561 6.05923e-20)
(1.10847 0.138759 5.26012e-20)
(1.17259 0.154697 0)
(1.21236 0.164496 1.17357e-19)
(1.23331 0.169085 -1.73242e-19)
(1.24108 0.169739 1.28769e-19)
(1.2405 0.167721 5.60394e-20)
(1.23517 0.164066 -4.51273e-20)
(1.22751 0.159522 -3.68891e-20)
(1.21898 0.154573 -3.39964e-20)
(1.21037 0.1495 1.03482e-19)
(1.2021 0.144454 0)
(1.1943 0.13951 5.05979e-20)
(1.18703 0.134697 4.16893e-20)
(1.18025 0.130028 -1.04437e-19)
(1.17389 0.125472 -7.01199e-20)
(1.16788 0.120612 6.49572e-20)
(0.0458811 -0.00625323 -4.90804e-20)
(0.173826 -0.0124014 -1.55117e-21)
(0.333517 6.12613e-05 4.47306e-20)
(0.510658 0.0254026 1.2443e-19)
(0.688909 0.0584106 3.59616e-20)
(0.852526 0.0939764 -6.95783e-20)
(0.989677 0.127209 6.36949e-20)
(1.09454 0.154543 -5.57658e-20)
(1.16723 0.174299 9.92322e-20)
(1.2121 0.186498 4.19437e-20)
(1.23554 0.192272 -1.18891e-19)
(1.24413 0.193217 3.48328e-20)
(1.24343 0.190908 5.87813e-20)
(1.23757 0.186625 -2.90358e-20)
(1.22926 0.181279 0)
(1.22008 0.175447 4.22594e-20)
(1.21089 0.169464 7.06778e-20)
(1.2021 0.16351 1.14799e-20)
(1.19385 0.15767 -5.8409e-20)
(1.18618 0.151986 2.41583e-20)
(1.17905 0.146475 0)
(1.17241 0.141129 -1.86606e-20)
(1.16616 0.13589 -1.73925e-20)
(1.1602 0.130721 0)
(0.0637609 -0.00531917 0)
(0.223668 -0.00538387 2.56496e-20)
(0.409598 0.0169632 4.73545e-20)
(0.60385 0.05276 -1.26333e-19)
(0.787544 0.0941058 4.06589e-20)
(0.945043 0.134333 0)
(1.06741 0.16833 6.08835e-20)
(1.15316 0.193384 -8.4879e-20)
(1.20654 0.209144 -4.94161e-20)
(1.23476 0.216867 2.23354e-20)
(1.2455 0.218518 -3.50651e-20)
(1.24537 0.216082 8.54972e-20)
(1.23927 0.211181 4.23363e-20)
(1.23036 0.20496 -2.97171e-20)
(1.22051 0.198141 -3.06797e-21)
(1.21067 0.191136 -7.92812e-20)
(1.20129 0.184161 3.59654e-20)
(1.19253 0.177323 -8.69931e-22)
(1.18443 0.170672 0)
(1.17695 0.164229 -2.41834e-20)
(1.17002 0.157999 0)
(1.16355 0.151958 5.37371e-20)
(1.15745 0.146077 -6.36743e-20)
(1.15158 0.140524 2.8894e-20)
(0.0838983 -0.00236507 -1.32139e-20)
(0.277034 0.00714 -6.42064e-20)
(0.487011 0.0414695 7.28445e-20)
(0.693313 0.0879842 4.2806e-20)
(0.876151 0.136226 -2.05174e-20)
(1.02213 0.178722 3.42374e-20)
(1.12677 0.211077 -1.66896e-20)
(1.19332 0.232083 2.7654e-20)
(1.22954 0.242918 0)
(1.2444 0.245934 6.20565e-20)
(1.24588 0.243648 -2.70688e-21)
(1.23998 0.238161 -4.97875e-20)
(1.23062 0.23097 2.11785e-20)
(1.22008 0.223012 -2.36902e-20)
(1.20953 0.21482 -8.84074e-21)
(1.19949 0.206666 1.03906e-20)
(1.19017 0.198682 -7.90694e-21)
(1.18158 0.19093 -4.25237e-20)
(1.17371 0.183436 2.60307e-20)
(1.16648 0.176211 5.2686e-21)
(1.15979 0.169245 4.60396e-21)
(1.15355 0.162502 4.02381e-21)
(1.14763 0.156021 0)
(1.1419 0.149981 0)
(0.105732 0.00303049 1.32231e-20)
(0.331964 0.0257651 -1.32392e-20)
(0.562472 0.0736337 -2.42262e-20)
(0.775191 0.130267 0)
(0.951551 0.183326 -1.01514e-20)
(1.08233 0.225603 -9.07373e-21)
(1.16833 0.254291 -1.55351e-20)
(1.21716 0.27006 0)
(1.23909 0.275555 0)
(1.24383 0.273945 0)
(1.23892 0.268007 0)
(1.22941 0.259757 0)
(1.21825 0.250473 -1.32559e-20)
(1.20696 0.240872 6.02497e-21)
(1.19623 0.231321 1.03996e-20)
(1.18628 0.221991 4.84729e-21)
(1.17718 0.212955 1.18876e-20)
(1.16889 0.204244 0)
(1.16135 0.19587 -2.79723e-21)
(1.15445 0.187833 -2.65078e-21)
(1.1481 0.180107 -4.61127e-21)
(1.14217 0.172668 -4.03022e-21)
(1.13653 0.165618 0)
(1.13106 0.158987 2.83269e-21)
(0.000143702 -0.0404345 8.99888e-21)
(-0.00287216 -0.100126 -9.33939e-21)
(-0.0111425 -0.143698 -1.76762e-20)
(-0.0227066 -0.174068 0)
(-0.0362307 -0.194179 -2.37105e-20)
(-0.0508394 -0.206888 7.48546e-21)
(-0.0658339 -0.214667 -1.40459e-20)
(-0.0806884 -0.219396 0)
(-0.0950476 -0.222305 0)
(-0.108687 -0.224031 0)
(-0.121468 -0.224735 0)
(-0.133296 -0.224251 0)
(-0.144091 -0.222203 2.33381e-22)
(-0.153767 -0.218107 -9.61663e-21)
(-0.16222 -0.21143 1.78579e-20)
(-0.169322 -0.201635 2.55786e-20)
(-0.174924 -0.188209 7.70605e-21)
(-0.178862 -0.170686 0)
(-0.180968 -0.148686 7.38482e-21)
(-0.181088 -0.121948 -2.01376e-20)
(-0.179065 -0.0903835 -1.23552e-20)
(-0.174726 -0.0540625 -1.15209e-20)
(-0.168127 -0.0131154 0)
(-0.160393 0.0320472 0)
(0.00178504 -0.0358077 -2.68732e-20)
(0.000123625 -0.0888863 4.6473e-20)
(-0.00879035 -0.127874 -1.72973e-20)
(-0.0219568 -0.155191 -3.31375e-20)
(-0.0374778 -0.173459 4.69507e-20)
(-0.054203 -0.185278 -2.95306e-20)
(-0.0712848 -0.192876 4.18207e-20)
(-0.0881355 -0.197925 2.60532e-20)
(-0.104398 -0.201493 0)
(-0.119877 -0.204106 -2.37268e-20)
(-0.134479 -0.205869 -1.59917e-22)
(-0.148155 -0.206598 2.10465e-20)
(-0.160865 -0.205935 2.92585e-20)
(-0.17256 -0.203433 3.69727e-20)
(-0.183162 -0.198608 -1.78003e-20)
(-0.192565 -0.190975 -4.9489e-20)
(-0.20063 -0.180066 1.47216e-20)
(-0.207192 -0.165448 -5.62568e-20)
(-0.212084 -0.146743 0)
(-0.215158 -0.123654 1.31913e-20)
(-0.216227 -0.0959958 1.23422e-20)
(-0.214926 -0.0636652 1.15087e-20)
(-0.21129 -0.0265385 0)
(-0.207767 0.0152426 0)
(0.0027161 -0.0297376 0)
(0.00175505 -0.0747382 9.11555e-20)
(-0.00771378 -0.108621 -3.44462e-20)
(-0.0219397 -0.132904 3.28716e-20)
(-0.038622 -0.149618 -9.22162e-20)
(-0.0564181 -0.160924 0)
(-0.0743772 -0.168703 -5.48536e-20)
(-0.0918676 -0.17437 2.5564e-20)
(-0.108526 -0.178815 -4.82751e-20)
(-0.124174 -0.182466 2.22272e-20)
(-0.138735 -0.185385 1.28464e-19)
(-0.152186 -0.187391 -6.02599e-20)
(-0.164509 -0.188155 -9.46777e-20)
(-0.175676 -0.187275 -3.4283e-20)
(-0.185632 -0.184324 5.16839e-22)
(-0.194293 -0.178869 1.22681e-19)
(-0.201542 -0.170495 -5.72955e-20)
(-0.207232 -0.158806 2.19153e-21)
(-0.211205 -0.143435 0)
(-0.213333 -0.124051 -4.21489e-20)
(-0.213435 -0.100364 0)
(-0.210975 -0.0721114 -3.81067e-20)
(-0.205566 -0.0390388 1.33479e-19)
(-0.200898 -0.0012209 -1.89979e-21)
(0.00279967 -0.0227319 0)
(0.00181108 -0.0587522 -2.81942e-22)
(-0.0080675 -0.0872622 3.41029e-20)
(-0.0227173 -0.108609 -3.22352e-20)
(-0.0396409 -0.124038 3.05276e-20)
(-0.0574043 -0.135152 1.72386e-19)
(-0.0750058 -0.143418 -5.41506e-20)
(-0.0917885 -0.14996 -5.07813e-20)
(-0.10738 -0.155492 9.59133e-20)
(-0.121599 -0.160344 -1.35003e-19)
(-0.134371 -0.16455 4.17763e-20)
(-0.145672 -0.167934 3.89061e-20)
(-0.15549 -0.170202 0)
(-0.163802 -0.170997 3.46514e-20)
(-0.170566 -0.169939 0)
(-0.175715 -0.166651 5.66112e-20)
(-0.179152 -0.160768 -1.04889e-19)
(-0.180751 -0.151943 2.82749e-20)
(-0.180362 -0.139845 8.96407e-20)
(-0.177855 -0.124139 4.21116e-20)
(-0.173099 -0.104466 0)
(-0.165536 -0.0803987 -9.58076e-20)
(-0.154044 -0.0514681 3.19021e-20)
(-0.142143 -0.0177223 0)
(0.00201181 -0.0153512 0)
(0.000283403 -0.0420629 -1.07863e-19)
(-0.0098058 -0.0651425 -3.43133e-20)
(-0.0241863 -0.0836667 -6.4364e-20)
(-0.0403855 -0.0980117 6.06114e-20)
(-0.0569837 -0.109158 -5.73429e-20)
(-0.0729832 -0.118126 1.07582e-19)
(-0.0877235 -0.125738 5.05677e-20)
(-0.100824 -0.132526 -1.4262e-19)
(-0.11209 -0.138734 8.84246e-20)
(-0.121436 -0.144365 -1.24273e-19)
(-0.128826 -0.149254 2.68078e-19)
(-0.134244 -0.153135 -1.43738e-19)
(-0.137668 -0.155687 6.51447e-20)
(-0.139066 -0.15657 1.78964e-19)
(-0.138388 -0.155448 -5.99539e-20)
(-0.135571 -0.152002 -5.27494e-20)
(-0.130524 -0.145938 -4.83109e-20)
(-0.123131 -0.136984 0)
(-0.113271 -0.124868 -6.96582e-20)
(-0.100898 -0.109271 -5.66523e-20)
(-0.0857639 -0.0896626 8.84118e-20)
(-0.0663677 -0.0649953 9.40813e-20)
(-0.0428749 -0.0340743 -8.54466e-20)
(0.000446875 -0.00814937 0)
(-0.00262175 -0.0257764 -1.4383e-19)
(-0.0126585 -0.0435537 -4.42373e-22)
(-0.0260305 -0.0593644 1.28359e-19)
(-0.0404949 -0.07273 0)
(-0.0547443 -0.0840053 0)
(-0.0678362 -0.0937597 0)
(-0.0791283 -0.102514 -5.01596e-20)
(-0.0882343 -0.110623 5.22869e-22)
(-0.0949438 -0.118238 8.84978e-20)
(-0.0991515 -0.125332 -1.22262e-19)
(-0.100808 -0.131745 7.90156e-22)
(-0.0998909 -0.137229 0)
(-0.0963848 -0.141491 -6.51166e-20)
(-0.090278 -0.144215 5.59465e-20)
(-0.0815572 -0.145092 -1.61187e-19)
(-0.070206 -0.143834 1.89858e-19)
(-0.0561981 -0.140184 3.45156e-20)
(-0.0394855 -0.133931 -9.65138e-21)
(-0.0199974 -0.124905 -1.37517e-19)
(0.00231079 -0.112955 -5.57791e-20)
(0.027551 -0.0977429 1.67745e-19)
(0.0568954 -0.0780366 -1.06089e-19)
(0.0941462 -0.0508656 0)
(-0.00169595 -0.00162611 6.97292e-20)
(-0.00650153 -0.0108996 7.19077e-20)
(-0.0161349 -0.0236824 -6.86816e-20)
(-0.0277039 -0.036888 -1.29319e-19)
(-0.0393554 -0.049287 1.21776e-19)
(-0.0499715 -0.0606536 -1.14724e-19)
(-0.0587053 -0.0711295 1.62092e-19)
(-0.0649486 -0.080944 -4.98864e-20)
(-0.0683117 -0.0902712 9.4866e-20)
(-0.0685636 -0.0991672 0)
(-0.0655761 -0.107564 8.0481e-20)
(-0.0592867 -0.11529 -1.52486e-19)
(-0.0496749 -0.122104 1.3735e-19)
(-0.0367512 -0.127722 -1.29005e-19)
(-0.0205514 -0.131843 0)
(-0.00113438 -0.134169 1.04439e-19)
(0.0214218 -0.134428 1.80041e-19)
(0.0470265 -0.13239 -1.69989e-19)
(0.0755904 -0.12788 -7.15394e-20)
(0.107037 -0.120803 -5.84941e-20)
(0.141271 -0.111165 1.68844e-19)
(0.178386 -0.0989865 3.93269e-20)
(0.217553 -0.0839621 -4.14457e-20)
(0.271906 -0.0623308 3.11553e-20)
(-0.00413796 0.00381225 -6.97385e-20)
(-0.0107976 0.00171784 2.19453e-19)
(-0.0195648 -0.00656296 -6.90017e-20)
(-0.0284645 -0.0173029 1.30473e-19)
(-0.0361336 -0.0286912 -1.2286e-19)
(-0.0416898 -0.0400077 7.14645e-22)
(-0.0444086 -0.0510076 5.46543e-20)
(-0.0437263 -0.0616463 2.03939e-19)
(-0.0392524 -0.0719188 -1.52787e-21)
(-0.0307369 -0.0817739 -8.91393e-20)
(-0.0180377 -0.0910844 0)
(-0.00109813 -0.0996506 -7.40649e-20)
(0.0200645 -0.107217 1.40695e-19)
(0.0453641 -0.113496 1.24441e-19)
(0.0746486 -0.118184 -5.95573e-20)
(0.107705 -0.120994 -3.66547e-22)
(0.144266 -0.121666 -4.61842e-20)
(0.184028 -0.119995 8.06112e-20)
(0.226661 -0.115846 7.15126e-20)
(0.27186 -0.109166 -6.19816e-20)
(0.319087 -0.100075 5.22311e-20)
(0.369454 -0.0884029 -4.43118e-20)
(0.41576 -0.0756451 0)
(0.489332 -0.0565789 -3.10989e-20)
(-0.00656533 0.00789322 7.12984e-20)
(-0.0148616 0.0114521 -7.34018e-20)
(-0.0221569 0.00698076 7.04369e-20)
(-0.0274343 -0.00152106 0)
(-0.0298515 -0.0118632 0)
(-0.0287769 -0.022937 1.18213e-19)
(-0.0236197 -0.0341743 -1.09975e-19)
(-0.0138799 -0.0452841 1.0262e-19)
(0.00081445 -0.0560858 -4.80235e-19)
(0.0207008 -0.0664108 9.52249e-22)
(0.0458853 -0.0760569 8.29567e-20)
(0.0763445 -0.084778 0)
(0.111923 -0.0922923 -1.37284e-19)
(0.152335 -0.0983001 2.53385e-19)
(0.197168 -0.102505 -1.74159e-19)
(0.245898 -0.10464 -2.51274e-19)
(0.297914 -0.104487 1.07569e-20)
(0.352551 -0.1019 1.65789e-19)
(0.409109 -0.0968261 0)
(0.467043 -0.0892438 0)
(0.524899 -0.079609 -5.22168e-20)
(0.586007 -0.0669526 4.42994e-20)
(0.635152 -0.0549374 -1.41973e-19)
(0.720675 -0.0354327 1.33238e-19)
(-0.00867787 0.0105034 0)
(-0.0180416 0.0179525 0)
(-0.0230887 0.0163949 -2.12513e-19)
(-0.0236771 0.00977021 6.73748e-20)
(-0.019455 0.000448543 8.81027e-23)
(-0.0100445 -0.010194 1.19956e-19)
(0.00499535 -0.021337 0)
(0.0260703 -0.0324765 -1.04461e-19)
(0.0534712 -0.0432685 9.64983e-20)
(0.0873309 -0.0534246 -1.79403e-19)
(0.127593 -0.0626609 1.44027e-21)
(0.173991 -0.0706819 1.51193e-19)
(0.226038 -0.0771861 -4.20673e-21)
(0.283035 -0.0818832 1.20072e-19)
(0.344092 -0.0845173 -1.76888e-19)
(0.408176 -0.0848911 0)
(0.474167 -0.0828864 1.76911e-19)
(0.540925 -0.078478 -2.46402e-19)
(0.607319 -0.0717641 7.04642e-20)
(0.672571 -0.0627965 0)
(0.734668 -0.0523727 5.31573e-20)
(0.797643 -0.0390878 1.73532e-19)
(0.8449 -0.0276761 -1.62856e-19)
(0.925117 -0.00844834 -1.63552e-19)
(-0.0102279 0.0116864 2.21915e-19)
(-0.0197301 0.0211673 -3.06188e-19)
(-0.0215332 0.0214717 4.11006e-23)
(-0.0162062 0.0162318 6.84902e-20)
(-0.00382192 0.00782868 -1.28613e-19)
(0.0157555 -0.00220445 -1.1925e-19)
(0.0427802 -0.0128645 2.24068e-19)
(0.0774842 -0.0234795 -2.57193e-21)
(0.119952 -0.0335633 -1.96563e-19)
(0.170034 -0.0427218 3.61324e-19)
(0.227284 -0.0506054 -3.71365e-21)
(0.29093 -0.0568966 -1.55701e-19)
(0.359877 -0.0613166 0)
(0.432752 -0.0636447 0)
(0.507978 -0.0637379 -5.73899e-20)
(0.583877 -0.0615493 -1.02576e-19)
(0.658776 -0.0571361 -1.77187e-19)
(0.731121 -0.0506632 1.66322e-19)
(0.799548 -0.0423947 -7.04854e-20)
(0.863062 -0.0326123 1.18899e-19)
(0.92038 -0.0219968 -6.15841e-20)
(0.973423 -0.00986932 8.21609e-20)
(1.01296 0.000213645 -2.08864e-19)
(1.06984 0.0159749 3.39317e-20)
(-0.0110329 0.011616 7.50559e-20)
(-0.0193736 0.0213356 0)
(-0.016632 0.0223938 1.46726e-19)
(-0.00390648 0.0179824 -1.38223e-19)
(0.0183797 0.0103788 1.28722e-19)
(0.0501141 0.00118365 0)
(0.0912889 -0.00848699 0)
(0.141812 -0.0178424 -1.05248e-19)
(0.201337 -0.0262962 2.50889e-21)
(0.269141 -0.0333926 9.28451e-20)
(0.344056 -0.0387733 -8.22721e-20)
(0.42447 -0.0421727 1.5617e-19)
(0.508397 -0.0434264 0)
(0.593602 -0.0424832 2.49508e-19)
(0.677766 -0.0394107 -4.58174e-19)
(0.758664 -0.0343925 3.12844e-19)
(0.834326 -0.0277103 1.7706e-19)
(0.903157 -0.0197331 -1.66211e-19)
(0.964044 -0.0108392 0)
(1.01629 -0.00153563 0)
(1.05989 0.00793594 0)
(1.09507 0.0170398 0)
(1.12125 0.0250632 4.09003e-20)
(1.1487 0.0351249 -1.42074e-19)
(-0.151971 0.0875932 -7.4182e-21)
(-0.136303 0.159021 7.43991e-21)
(-0.117938 0.234879 -1.9878e-22)
(-0.0973068 0.311734 0)
(-0.0750186 0.386129 -5.61976e-21)
(-0.0520135 0.454143 1.04928e-20)
(-0.0292869 0.512597 -4.1889e-22)
(-0.00683022 0.558234 -4.34581e-21)
(0.0170395 0.587279 0)
(0.0457216 0.595592 0)
(0.0837209 0.577217 -2.06637e-22)
(0.134954 0.526209 -2.09867e-22)
(0.200331 0.439838 -3.68695e-21)
(0.276386 0.320246 3.3707e-21)
(0.356993 0.174058 0)
(0.436758 0.00977195 0)
(0.512919 -0.161232 3.19631e-21)
(0.582315 -0.319837 -3.63012e-22)
(0.639877 -0.444009 -2.50676e-21)
(0.681529 -0.520587 -1.24907e-22)
(0.705748 -0.552518 0)
(0.714497 -0.552501 0)
(0.712792 -0.534632 0)
(0.701551 -0.515814 0)
(0.675011 -0.512438 0)
(0.632294 -0.519688 0)
(0.589004 -0.500367 4.57433e-22)
(0.569974 -0.408317 -7.08482e-22)
(0.586867 -0.235018 0)
(0.632015 -0.019769 0)
(0.688717 0.179519 -5.79867e-22)
(0.741593 0.325018 5.63552e-22)
(0.781793 0.407751 1.94336e-22)
(0.808995 0.438323 0)
(0.822724 0.445659 0)
(0.813854 0.45829 2.51616e-22)
(0.779132 0.482234 -2.44591e-22)
(0.735183 0.466599 0)
(0.70703 0.372308 3.5402e-22)
(0.711115 0.189371 -5.36846e-22)
(0.737533 -0.0157711 1.86716e-22)
(0.776477 -0.191279 0)
(0.815237 -0.301977 -2.19192e-22)
(0.839226 -0.353399 2.13138e-22)
(0.834375 -0.393166 0)
(0.793987 -0.398238 0)
(0.748526 -0.385171 -7.40363e-23)
(0.727795 -0.257146 2.13784e-22)
(0.742796 -0.10582 0)
(0.783298 0.0709222 0)
(0.817513 0.207232 -5.47066e-23)
(0.815278 0.284508 3.25565e-24)
(0.793732 0.384406 -4.03607e-24)
(0.770842 0.311703 4.05883e-23)
(0.776437 0.274366 0)
(0.798429 0.0773298 0)
(0.809265 -0.0881964 0)
(0.799031 -0.181324 0)
(0.801588 -0.389653 0)
(0.783747 -0.202278 0)
(-0.208113 0.0673773 -5.95276e-22)
(-0.195598 0.135219 -2.44067e-20)
(-0.17964 0.207742 1.15396e-21)
(-0.159439 0.282013 2.18511e-20)
(-0.135029 0.354871 2.81652e-22)
(-0.106538 0.422292 0)
(-0.0741006 0.481034 -1.57186e-20)
(-0.0374268 0.5253 3.02271e-20)
(0.00549764 0.551399 -1.45143e-20)
(0.0573747 0.55441 1.36327e-20)
(0.120006 0.528837 -1.30429e-20)
(0.194055 0.470633 1.42189e-20)
(0.277435 0.379428 -1.38234e-20)
(0.365134 0.258917 -4.91769e-22)
(0.451529 0.115118 -1.58618e-20)
(0.532949 -0.045459 1.54132e-20)
(0.607682 -0.211763 -1.38689e-20)
(0.671956 -0.363871 1.30677e-20)
(0.719903 -0.478395 -9.69152e-21)
(0.748375 -0.542867 1.67856e-20)
(0.758464 -0.562712 -7.18849e-21)
(0.753797 -0.553443 -3.0886e-22)
(0.740337 -0.529184 -3.77559e-21)
(0.7211 -0.503341 7.07851e-21)
(0.690657 -0.491157 -3.31327e-21)
(0.643955 -0.493329 1.95488e-22)
(0.591541 -0.479953 4.16374e-21)
(0.558231 -0.404568 8.07303e-22)
(0.561674 -0.249872 -9.3542e-21)
(0.598731 -0.0470001 9.48999e-21)
(0.653315 0.149019 -4.60021e-21)
(0.709011 0.298941 4.3902e-22)
(0.756062 0.389008 -1.94745e-22)
(0.792096 0.427277 2.92447e-22)
(0.813043 0.443658 0)
(0.809012 0.466328 0)
(0.778636 0.496995 -1.14419e-21)
(0.741952 0.480554 8.0078e-22)
(0.72156 0.378479 1.1771e-21)
(0.732166 0.186231 2.93902e-22)
(0.7607 -0.0260082 -1.75168e-21)
(0.797409 -0.203785 3.43674e-22)
(0.83063 -0.312175 0)
(0.849697 -0.356248 0)
(0.842995 -0.386439 0)
(0.799965 -0.38556 0)
(0.7528 -0.375357 2.46678e-22)
(0.727267 -0.256237 -1.4191e-22)
(0.741478 -0.113957 0)
(0.779862 0.0608204 0)
(0.81332 0.202518 0)
(0.810972 0.287069 -8.72276e-23)
(0.788658 0.389497 5.01856e-24)
(0.768533 0.3136 -8.15874e-23)
(0.774159 0.271308 0)
(0.801939 0.0741222 0)
(0.814725 -0.0887733 6.67621e-23)
(0.804872 -0.18016 1.86892e-22)
(0.807764 -0.388119 0)
(0.787155 -0.201118 0)
(-0.205048 0.046167 -1.17929e-21)
(-0.195926 0.108812 -4.12826e-20)
(-0.182148 0.176706 3.76565e-20)
(-0.162321 0.246501 -3.53029e-20)
(-0.135888 0.315926 -2.83615e-22)
(-0.101856 0.380644 0)
(-0.0612684 0.435608 -2.80832e-20)
(-0.0133396 0.476348 2.74581e-20)
(0.0449302 0.498969 2.11481e-22)
(0.113598 0.497698 3.99306e-22)
(0.19237 0.467859 4.22084e-22)
(0.279716 0.406998 4.44221e-22)
(0.372086 0.316182 -3.21201e-20)
(0.464255 0.199613 3.17059e-20)
(0.551512 0.0621874 0)
(0.631708 -0.0914984 1.03702e-21)
(0.703541 -0.250994 -2.9225e-20)
(0.761799 -0.395005 2.88072e-20)
(0.799462 -0.499519 0)
(0.814413 -0.553363 0)
(0.810635 -0.563792 -1.21334e-20)
(0.793721 -0.547984 2.11073e-20)
(0.769776 -0.520013 -1.62213e-20)
(0.743098 -0.489654 9.6894e-22)
(0.709612 -0.469627 1.20731e-20)
(0.661085 -0.465597 -1.22334e-20)
(0.602189 -0.456426 1.24968e-20)
(0.555878 -0.397696 6.82856e-22)
(0.545058 -0.26364 -7.52721e-21)
(0.572155 -0.0753816 0)
(0.622849 0.115625 0)
(0.680023 0.268839 2.22075e-21)
(0.733081 0.365961 -2.95973e-21)
(0.777223 0.412606 -2.42564e-23)
(0.804951 0.438993 2.06813e-21)
(0.806053 0.472106 -2.0099e-21)
(0.780833 0.509582 0)
(0.751766 0.492952 3.12725e-22)
(0.739014 0.384524 3.72221e-21)
(0.755825 0.18448 -7.61682e-21)
(0.786491 -0.0335127 3.37258e-21)
(0.820848 -0.213075 3.86962e-22)
(0.848219 -0.319874 -2.4921e-21)
(0.86193 -0.357767 1.88039e-21)
(0.853413 -0.379189 3.07495e-22)
(0.808204 -0.372585 2.46392e-22)
(0.759865 -0.36545 -2.47294e-22)
(0.729661 -0.255678 0)
(0.742778 -0.122573 0)
(0.778495 0.0502274 -8.01291e-22)
(0.810949 0.197541 3.97866e-22)
(0.808415 0.289278 -3.45143e-22)
(0.785191 0.394452 5.24147e-22)
(0.767634 0.315482 7.35751e-22)
(0.773254 0.267902 -1.60716e-22)
(0.806851 0.0705879 3.57257e-22)
(0.821584 -0.0894609 -3.16749e-22)
(0.811874 -0.178793 1.65843e-22)
(0.814798 -0.386314 0)
(0.791379 -0.199843 0)
(-0.144384 0.0253516 -6.83575e-20)
(-0.13814 0.0818824 3.36191e-21)
(-0.126032 0.144627 6.13973e-20)
(-0.10676 0.208114 -4.98378e-22)
(-0.0789001 0.2713 0)
(-0.043216 0.330021 0)
(0.00176236 0.379563 -4.86102e-20)
(0.057499 0.416941 -1.78629e-21)
(0.124398 0.43631 7.22861e-20)
(0.201615 0.432296 1.86287e-21)
(0.287718 0.401169 -2.62169e-20)
(0.379951 0.341528 -3.00446e-20)
(0.474165 0.255087 3.00768e-20)
(0.565469 0.145848 0)
(0.650449 0.0169598 -3.45667e-20)
(0.728398 -0.128554 3.14823e-20)
(0.79733 -0.280436 0)
(0.849623 -0.415741 0)
(0.877018 -0.510196 2.04668e-20)
(0.878722 -0.554517 -4.13796e-21)
(0.861654 -0.557616 -1.48841e-20)
(0.833662 -0.537258 -9.42779e-21)
(0.800653 -0.50749 9.33782e-21)
(0.767068 -0.475188 -6.22363e-21)
(0.73088 -0.449012 6.27971e-22)
(0.682552 -0.437486 5.24743e-21)
(0.620565 -0.429401 6.64523e-22)
(0.563411 -0.386007 8.10344e-23)
(0.537889 -0.274465 0)
(0.552964 -0.103705 6.85055e-21)
(0.597699 0.0801455 -7.02528e-21)
(0.654971 0.235249 3.86831e-22)
(0.712956 0.338944 0)
(0.764259 0.394388 -2.71563e-22)
(0.79827 0.431344 4.01811e-21)
(0.804774 0.474975 -7.7131e-21)
(0.785298 0.519376 -1.38473e-21)
(0.763977 0.503587 -1.22046e-21)
(0.758663 0.390648 5.07419e-21)
(0.78133 0.184522 9.00368e-22)
(0.814263 -0.0381741 -6.68737e-21)
(0.846376 -0.219251 5.76241e-21)
(0.867828 -0.325202 -2.15323e-23)
(0.875786 -0.358187 1.47132e-21)
(0.865351 -0.3717 -1.73891e-21)
(0.81834 -0.359447 -1.63807e-21)
(0.769341 -0.355278 4.89571e-22)
(0.734651 -0.255192 8.13643e-22)
(0.746408 -0.131458 -1.55888e-21)
(0.779039 0.0392028 1.13994e-21)
(0.810331 0.192263 -3.63576e-22)
(0.807619 0.291093 3.23085e-22)
(0.783442 0.3993 3.23789e-22)
(0.768314 0.317424 -1.1509e-21)
(0.773847 0.264195 -1.77156e-24)
(0.813163 0.0667901 -4.25995e-22)
(0.82979 -0.090231 0)
(0.820025 -0.177203 -1.6065e-22)
(0.822659 -0.384217 2.27461e-22)
(0.796366 -0.198441 0)
(-0.0385666 0.00648346 5.47847e-20)
(-0.0337223 0.0560344 -1.04696e-19)
(-0.023631 0.109818 4.94224e-20)
(-0.00725417 0.165916 4.48368e-20)
(0.0198678 0.221883 -8.65547e-20)
(0.0561772 0.274281 2.34204e-23)
(0.102966 0.31961 4.09253e-20)
(0.16074 0.353123 4.39083e-20)
(0.229463 0.369546 -4.30361e-20)
(0.308028 0.364384 0)
(0.394333 0.334516 -5.67086e-20)
(0.485151 0.278919 1.16977e-19)
(0.576367 0.199306 -6.01414e-20)
(0.663679 0.0989123 0)
(0.745222 -0.020561 0)
(0.821098 -0.157295 1.06738e-21)
(0.887337 -0.300417 -6.04753e-20)
(0.933319 -0.425646 5.87431e-20)
(0.95016 -0.509644 0)
(0.939155 -0.545731 3.29564e-20)
(0.909955 -0.544115 -5.49966e-20)
(0.872442 -0.521726 4.15777e-20)
(0.832248 -0.491897 -3.22674e-20)
(0.792825 -0.459854 2.3328e-21)
(0.754018 -0.430129 2.10391e-20)
(0.707084 -0.411237 -9.69142e-21)
(0.645375 -0.400954 -3.0396e-22)
(0.580625 -0.369623 -4.73642e-21)
(0.540659 -0.280878 -5.95311e-22)
(0.54188 -0.130492 5.36258e-21)
(0.578617 0.0435232 3.73269e-22)
(0.634263 0.198678 -4.52941e-21)
(0.695716 0.308169 8.36623e-21)
(0.752985 0.372487 -4.28224e-21)
(0.792702 0.420216 0)
(0.804817 0.474304 -4.75829e-21)
(0.791511 0.525955 4.70254e-21)
(0.777917 0.512441 -5.60926e-21)
(0.779802 0.396979 6.96817e-21)
(0.807967 0.186551 -9.79086e-22)
(0.843301 -0.0399954 0)
(0.873483 -0.22224 -8.03438e-22)
(0.889134 -0.327976 1.79249e-21)
(0.891052 -0.357406 0)
(0.878595 -0.364032 2.76651e-21)
(0.830075 -0.346294 -1.18536e-21)
(0.780816 -0.344872 4.0885e-22)
(0.741844 -0.254629 3.30705e-22)
(0.752012 -0.140453 0)
(0.78128 0.0277854 0)
(0.811342 0.186609 -9.51331e-22)
(0.808564 0.292436 1.57001e-21)
(0.783505 0.404041 -9.95265e-22)
(0.770723 0.319492 3.61094e-22)
(0.776057 0.260257 8.20122e-22)
(0.82086 0.0626344 4.264e-22)
(0.839275 -0.0910789 -7.67478e-22)
(0.829298 -0.17535 0)
(0.831295 -0.381781 -3.63055e-22)
(0.80206 -0.196897 -2.30883e-23)
(0.0997103 -0.0144546 4.91488e-20)
(0.0989787 0.0286233 -4.87089e-20)
(0.106741 0.0742062 3.5768e-22)
(0.121909 0.123605 -2.76157e-22)
(0.146417 0.173095 3.10308e-22)
(0.180635 0.219957 -3.02153e-22)
(0.225211 0.260272 5.33593e-22)
(0.280496 0.289733 0)
(0.346252 0.303934 -6.27421e-22)
(0.421215 0.298971 7.01684e-22)
(0.503106 0.272029 7.86952e-22)
(0.588818 0.222033 -9.14374e-22)
(0.67466 0.150151 0)
(0.757253 0.0586055 0)
(0.835835 -0.0515976 1.04038e-21)
(0.909983 -0.17919 0)
(0.972819 -0.312008 -9.57984e-22)
(1.01123 -0.425645 0)
(1.01702 -0.499142 -3.98073e-20)
(0.994246 -0.528559 7.0815e-20)
(0.954699 -0.52467 -5.43353e-20)
(0.909417 -0.502551 2.34763e-20)
(0.863834 -0.474006 1.38404e-20)
(0.819867 -0.443608 -1.34415e-20)
(0.778398 -0.412837 -9.10595e-21)
(0.733209 -0.387922 8.80998e-21)
(0.674653 -0.372902 0)
(0.606507 -0.349159 2.01427e-22)
(0.553893 -0.281569 0)
(0.539777 -0.15384 0)
(0.566156 0.00762381 7.66988e-21)
(0.618202 0.159805 -7.90857e-21)
(0.681309 0.273885 3.84217e-22)
(0.743131 0.346808 4.3489e-22)
(0.787924 0.405209 -3.91007e-22)
(0.805745 0.469564 -4.14093e-21)
(0.798851 0.528958 4.0209e-21)
(0.792827 0.519385 -7.12293e-21)
(0.801619 0.403733 6.23346e-21)
(0.834899 0.190615 1.992e-21)
(0.872899 -0.0390064 -7.28367e-21)
(0.901642 -0.222091 3.86004e-22)
(0.911791 -0.328145 4.45087e-21)
(0.907471 -0.355411 0)
(0.892881 -0.356285 -1.20273e-21)
(0.843092 -0.333226 1.15248e-21)
(0.793839 -0.33418 -1.55532e-21)
(0.750797 -0.253827 -3.32799e-22)
(0.759179 -0.149432 0)