/*--------------------------------*- C++ -*----------------------------------*\
| =========                 |                                                 |
| \\      /  F ield         | OpenFOAM: The Open Source CFD Toolbox           |
|  \\    /   O peration     | Version:  2512                                  |
|   \\  /    A nd           | Website:  www.openfoam.com                      |
|    \\/     M anipulation  |                                                 |
\*---------------------------------------------------------------------------*/
FoamFile
{
    version     2.0;
    format      ascii;
    arch        "LSB;label=32;scalar=64";
    class       surfaceScalarField;
    location    "66";
    object      phi;
}
// * * * * * * * * * * * * * * * * * * * * * * * * * * * * * * * * * * * * * //

dimensions      [0 3 -1 0 0 0 0];

oriented        oriented;

internalField   nonuniform List<scalar> 
26232
(
9.00278e-05
0.000906325
-0.000996353
0.000475698
0.00160119
-0.00198686
0.00128525
0.00134372
-0.00215327
0.00265457
0.000204514
-0.00157384
0.00472682
-0.00177272
-0.000299533
0.00764709
-0.00456029
0.00164002
0.0115533
-0.00813723
0.004231
0.0165629
-0.0124761
0.00746655
0.0227568
-0.0175301
0.0113363
0.0301639
-0.0232232
0.0158161
0.0387489
-0.0294458
0.0208607
0.0484067
-0.0360565
0.0263988
0.0589647
-0.0428913
0.0323333
0.0701943
-0.0497749
0.0385453
0.0818291
-0.0565362
0.0449015
0.0935875
-0.0630218
0.0512634
0.105198
-0.0691079
0.0574977
0.11642
-0.0747087
0.0634864
0.127066
-0.0797785
0.0691325
0.137011
-0.0843203
0.0743749
0.146189
-0.0883471
0.0791696
0.154612
-0.0919759
0.0835533
0.162225
-0.0951183
0.0875049
-0.0982207
0.0915072
0.168939
0.000137582
0.000768742
0.000700656
0.00103811
0.00184602
0.000198354
0.00373319
-0.00168265
0.00652203
-0.00456155
0.0103627
-0.00840099
0.0153785
-0.013153
0.0216447
-0.0187423
0.029169
-0.0250545
0.037877
-0.0319312
0.0476082
-0.039177
0.0581251
-0.0465734
0.0691334
-0.0538996
0.0803112
-0.0609527
0.0913415
-0.0675666
0.101944
-0.0736242
0.1119
-0.0790643
0.121072
-0.0838802
0.129407
-0.0881132
0.136929
-0.0918432
0.143746
-0.095164
0.149986
-0.0982155
0.155865
-0.100998
-0.103938
0.161583
0.000196838
0.000571904
0.000970541
0.00026441
0.00250644
-0.00133755
0.00498373
-0.00415994
0.00856817
-0.008146
0.0133922
-0.013225
0.0195286
-0.0192894
0.0269654
-0.0261791
0.035589
-0.0336781
0.0451835
-0.0415257
0.0554474
-0.0494409
0.0660268
-0.0571528
0.0765567
-0.0644294
0.0867037
-0.0710997
0.0962027
-0.0770656
0.104881
-0.0823029
0.11267
-0.0868529
0.119596
-0.0908061
0.125766
-0.0942832
0.131339
-0.0974163
0.136502
-0.100327
0.141422
-0.103136
0.146291
-0.105866
-0.108803
0.151155
0.000273779
0.000298125
0.00130111
-0.000762923
0.00328869
-0.00332512
0.00642301
-0.00729426
0.0108521
-0.0125751
0.016654
-0.0190269
0.0238049
-0.0264403
0.0321586
-0.0345329
0.0414492
-0.0429686
0.0513169
-0.0513934
0.061356
-0.05948
0.0711698
-0.0669666
0.0804228
-0.0736824
0.0888791
-0.0795561
0.0964213
-0.0846077
0.103047
-0.088929
0.108851
-0.0926569
0.113992
-0.0959462
0.118654
-0.0989462
0.123024
-0.101785
0.127259
-0.104562
0.131477
-0.107355
0.135781
-0.11017
-0.113201
0.140179
0.000371292
-7.3167e-05
0.00169708
-0.00208871
0.00419032
-0.00581836
0.00802142
-0.0111254
0.0132847
-0.0178383
0.0199579
-0.0257001
0.0278755
-0.0343578
0.0367308
-0.0433883
0.0461132
-0.0523509
0.0555699
-0.0608502
0.0646776
-0.0685877
0.0731028
-0.0753918
0.0806398
-0.0812194
0.0872201
-0.0861365
0.0928965
-0.0902841
0.0978081
-0.0938406
0.102139
-0.0969878
0.106079
-0.0998866
0.109798
-0.102664
0.113425
-0.105413
0.117056
-0.108193
0.120745
-0.111043
0.12454
-0.113965
-0.117081
0.128419
0.000488816
-0.000561983
0.00215077
-0.00375066
0.0051813
-0.0088489
0.00970067
-0.0156447
0.0157051
-0.0238428
0.023028
-0.0330231
0.0313373
-0.0426671
0.040179
-0.0522299
0.0490556
-0.0612275
0.0575144
-0.069309
0.065218
-0.0762914
0.0719816
-0.0821554
0.0777729
-0.0870106
0.0826819
-0.0910455
0.0868749
-0.0944771
0.0905466
-0.0975123
0.0938814
-0.100323
0.0970315
-0.103037
0.100109
-0.105742
0.103188
-0.108493
0.106317
-0.111321
0.109521
-0.114247
0.112824
-0.117269
-0.120454
0.116197
0.000622787
-0.00118477
0.00264295
-0.00577082
0.00620677
-0.0124127
0.0113429
-0.0207809
0.017906
-0.0304058
0.0255589
-0.0406759
0.0338153
-0.0509236
0.0421328
-0.0605474
0.0500201
-0.0691148
0.0571216
-0.0764105
0.0632568
-0.0824265
0.0684121
-0.0873107
0.0726994
-0.0912979
0.0762998
-0.0946459
0.0794117
-0.0975891
0.0822137
-0.100314
0.0848461
-0.102955
0.0874081
-0.105599
0.0899645
-0.108298
0.0925545
-0.111083
0.0952009
-0.113968
0.097915
-0.116961
0.100708
-0.120061
-0.123299
0.103553
0.000766995
-0.00195176
0.00314513
-0.00814895
0.00719414
-0.0164617
0.012809
-0.0263957
0.0196731
-0.0372699
0.0272847
-0.0482876
0.0350572
-0.0586961
0.0424476
-0.0679378
0.0490616
-0.0757287
0.0547006
-0.0820495
0.059351
-0.0870769
0.0631326
-0.0910924
0.0662344
-0.0943997
0.0688574
-0.0972688
0.0711772
-0.0999089
0.0733281
-0.102465
0.0754024
-0.105029
0.0774587
-0.107655
0.0795319
-0.110371
0.081642
-0.113193
0.0837997
-0.116126
0.0860101
-0.119171
0.0882777
-0.122329
-0.125604
0.0905824
0.000913224
-0.00286499
0.00362262
-0.0108583
0.00806278
-0.0209019
0.0139619
-0.0322948
0.0208279
-0.0441359
0.0280375
-0.0554972
0.0349834
-0.065642
0.0412076
-0.074162
0.0464671
-0.0809882
0.0507264
-0.0863089
0.0541004
-0.0904509
0.0567804
-0.0937724
0.058971
-0.0965903
0.0608493
-0.0991472
0.0625488
-0.101608
0.0641594
-0.104076
0.0657366
-0.106607
0.0673131
-0.109231
0.0689071
-0.111965
0.0705289
-0.114814
0.0721839
-0.117781
0.0738746
-0.120862
0.0756016
-0.124056
-0.127355
0.077352
0.00105162
-0.0039166
0.00403805
-0.0138448
0.00873509
-0.0255989
0.0146892
-0.0382489
0.02126
-0.0507067
0.0277708
-0.0620081
0.0336749
-0.0715461
0.0386535
-0.0791406
0.0426232
-0.084958
0.0456776
-0.0893633
0.0480046
-0.0927779
0.0498131
-0.0955809
0.0512861
-0.0980633
0.0525611
-0.100422
0.0537297
-0.102777
0.0548477
-0.105194
0.055947
-0.107706
0.0570453
-0.11033
0.0581526
-0.113073
0.0592747
-0.115937
0.0604143
-0.11892
0.0615724
-0.12202
0.0627476
-0.125231
-0.12854
0.0639332
0.00117199
-0.0050886
0.00435675
-0.0170295
0.0091485
-0.0303907
0.014921
-0.0440214
0.0209389
-0.0567246
0.0265478
-0.067617
0.0313194
-0.0763177
0.0350898
-0.0829109
0.0379089
-0.0877771
0.0399507
-0.0914051
0.0414273
-0.0942545
0.0425312
-0.0966847
0.0434085
-0.0989407
0.0441572
-0.101171
0.0448362
-0.103456
0.0454785
-0.105836
0.046102
-0.108329
0.046717
-0.110945
0.0473293
-0.113685
0.0479423
-0.11655
0.0485576
-0.119535
0.0491751
-0.122637
0.0497916
-0.125848
-0.129153
0.0504042
0.00126768
-0.00635628
0.00455419
-0.020316
0.00926553
-0.035102
0.0146375
-0.0493934
0.0199077
-0.0619948
0.0245076
-0.0722169
0.0281531
-0.0799632
0.030819
-0.0855768
0.032647
-0.0896051
0.0338463
-0.0926044
0.0346202
-0.0950284
0.0351286
-0.0971932
0.0354803
-0.0992924
0.0357407
-0.101431
0.0359462
-0.103661
0.0361158
-0.106006
0.03626
-0.108474
0.0363847
-0.111069
0.0364942
-0.113794
0.0365908
-0.116646
0.0366758
-0.11962
0.0367487
-0.12271
0.0368064
-0.125905
0.0368486
-0.129195
-0.000222562
-0.00065195
0.000874512
-0.000777843
-0.00180943
0.00236471
-0.00159678
-0.00284555
0.00366448
-0.00262657
-0.00374886
0.00477865
-0.00382503
-0.00452458
0.00572304
-0.00515823
-0.00519407
0.00652728
-0.006599
-0.00578828
0.00722904
-0.00812567
-0.00634062
0.00786729
-0.00972111
-0.00688117
0.00847661
-0.0113716
-0.0074328
0.00908329
-0.0130657
-0.00800944
0.00970359
-0.0147934
-0.00861599
0.0103436
-0.0165445
-0.00924936
0.0110004
-0.0183083
-0.00989966
0.0116635
-0.0200727
-0.0105512
0.0123157
-0.0218241
-0.0111832
0.0129346
-0.0235475
-0.0117695
0.0134929
-0.0252272
-0.0122786
0.0139582
-0.0268486
-0.0126727
0.0142941
-0.0284008
-0.0129081
0.0144603
-0.0298793
-0.012936
0.0144145
-0.0312893
-0.0127017
0.0141117
-0.032655
-0.0121343
0.0135
-0.0111573
-0.0340297
0.012532
-0.00025548
-0.00039647
-0.000884905
-0.00118001
-0.00180339
-0.00192706
-0.00294696
-0.00260529
-0.00426592
-0.00320561
-0.00572192
-0.00373807
-0.00728567
-0.00422453
-0.00893499
-0.00469129
-0.0106531
-0.00516308
-0.0124268
-0.00565909
-0.0142451
-0.00619116
-0.0160975
-0.00676355
-0.0179732
-0.00737371
-0.0198596
-0.00801325
-0.0217422
-0.00866866
-0.0236039
-0.00932146
-0.0254255
-0.0099479
-0.0271861
-0.0105179
-0.0288651
-0.0109937
-0.030445
-0.0113282
-0.0319162
-0.0114649
-0.0332795
-0.0113384
-0.0345482
-0.0108656
-0.00994317
-0.0357623
-0.00027248
-0.00012399
-0.000938937
-0.000513551
-0.00190419
-0.000961802
-0.00309615
-0.00141333
-0.00445915
-0.00184262
-0.00595065
-0.00224657
-0.00753865
-0.00263653
-0.00919918
-0.00303076
-0.010914
-0.00344825
-0.0126685
-0.00390458
-0.0144498
-0.00440987
-0.016245
-0.00496833
-0.0180401
-0.00557863
-0.0198187
-0.00623468
-0.0215613
-0.00692602
-0.0232449
-0.00763782
-0.0248425
-0.00835035
-0.0263227
-0.00903771
-0.0276508
-0.00966568
-0.0287907
-0.0101882
-0.0297116
-0.010544
-0.030393
-0.010657
-0.0308265
-0.0104321
-0.0097115
-0.0310582
-0.000272184
0.000148194
-0.000936094
0.000150359
-0.00189257
-5.3249e-06
-0.00306485
-0.000241048
-0.00439282
-0.000514655
-0.00583
-0.000809393
-0.0073408
-0.00112573
-0.00889802
-0.00147355
-0.01048
-0.00186624
-0.0120686
-0.00231606
-0.0136466
-0.00283184
-0.0151967
-0.00341822
-0.0166997
-0.00407566
-0.0181336
-0.00480075
-0.0194731
-0.00558654
-0.0206884
-0.00642248
-0.0217449
-0.00729389
-0.0226015
-0.00818106
-0.02321
-0.00905723
-0.0235136
-0.00988462
-0.0234511
-0.0106065
-0.022968
-0.01114
-0.0220204
-0.0113798
-0.0111658
-0.0205661
-0.000255209
0.000403403
-0.000878081
0.00077323
-0.00177128
0.000887873
-0.00285663
0.000844303
-0.0040709
0.000699619
-0.00536358
0.000483281
-0.00669412
0.000204808
-0.00803044
-0.000137226
-0.00934486
-0.000551819
-0.0106127
-0.00104825
-0.0118098
-0.0016347
-0.0129112
-0.00231683
-0.0138896
-0.00309721
-0.0147151
-0.00397529
-0.0153542
-0.00494742
-0.01577
-0.00600666
-0.0159215
-0.00714249
-0.0157623
-0.00834016
-0.0152398
-0.00957974
-0.0142907
-0.0108338
-0.0128362
-0.0120609
-0.0107852
-0.013191
-0.0080633
-0.0141017
-0.0145285
-0.0047006
-0.000223831
0.000627234
-0.000771105
0.0013205
-0.00155094
0.00166771
-0.00248597
0.00177934
-0.00351052
0.00172417
-0.00456929
0.00154205
-0.0056159
0.00125142
-0.0066095
0.000856374
-0.00751369
0.00035237
-0.00829361
-0.00026833
-0.00891429
-0.00101403
-0.0093386
-0.00189252
-0.00952693
-0.00290887
-0.00943677
-0.00406545
-0.0090228
-0.00536139
-0.00823734
-0.00679212
-0.00703088
-0.00834895
-0.00535243
-0.0100186
-0.0031491
-0.0117831
-0.000363515
-0.0136193
0.00307292
-0.0154974
0.00724964
-0.0173678
0.0122639
-0.019116
-0.0206708
0.0184063
-0.000181612
0.000808847
-0.000625352
0.00176424
-0.0012489
0.00229125
-0.00197663
0.00250707
-0.00274015
0.00248769
-0.00347817
0.00228008
-0.00413537
0.00190862
-0.00466035
0.00138136
-0.00500391
0.000695923
-0.00511637
-0.000155867
-0.00494744
-0.00118296
-0.00444361
-0.00239635
-0.00354871
-0.00380377
-0.00220421
-0.00540994
-0.000350157
-0.00721544
0.00207344
-0.00921572
0.00512479
-0.0114003
0.00885862
-0.0137524
0.0133246
-0.016249
0.0185664
-0.0188612
0.0246223
-0.0215532
0.0315575
-0.024303
0.0393582
-0.0269167
-0.0298829
0.0485703
-0.000132981
0.000941828
-0.000453379
0.00208464
-0.00088672
0.00272459
-0.00135829
0.00297864
-0.00179573
0.00292512
-0.00212975
0.0026141
-0.0022936
0.00207247
-0.00222181
0.00130956
-0.00184853
0.000322645
-0.00110711
-0.000897287
7.26584e-05
-0.00236273
0.00176226
-0.00408595
0.00403447
-0.00607598
0.00696186
-0.00833734
0.0106142
-0.0108678
0.0150559
-0.0136574
0.0203428
-0.0166872
0.02652
-0.0199296
0.0336194
-0.0233484
0.0416598
-0.0269017
0.0506356
-0.030529
0.0605803
-0.0342477
0.0713379
-0.0376743
-0.0420414
0.0834963
-8.25244e-05
0.00102435
-0.000268221
0.00227034
-0.000486881
0.00294325
-0.000662161
0.00315392
-0.000715371
0.00297833
-0.000566744
0.00246547
-0.000135448
0.00164117
0.000660923
0.000513189
0.00190653
-0.000922958
0.00368779
-0.00267855
0.00609196
-0.00476691
0.00920507
-0.00719905
0.0131093
-0.0099802
0.0178789
-0.013107
0.0235764
-0.0165653
0.0302481
-0.0203291
0.0379214
-0.0243605
0.0466023
-0.0286105
0.0562745
-0.0330207
0.0669015
-0.0375286
0.0784204
-0.0420479
0.0907879
-0.0466152
0.103801
-0.0506872
-0.0560079
0.117767
-3.40634e-05
0.00105842
-8.06546e-05
0.00231693
-6.7875e-05
0.00293047
8.6263e-05
0.00299978
0.000470068
0.00259453
0.00117665
0.00175889
0.00230318
0.000514651
0.00395002
-0.00113366
0.00621945
-0.00319238
0.00921301
-0.00567212
0.0130277
-0.00858158
0.0177508
-0.0119222
0.0234545
-0.0156838
0.0301893
-0.0198418
0.0379794
-0.0243554
0.0468189
-0.0291687
0.0566705
-0.034212
0.067466
-0.0394061
0.0791111
-0.0446657
0.0914878
-0.0499053
0.104471
-0.0550311
0.117905
-0.0600491
0.131691
-0.0644737
-0.069928
0.145612
1.03609e-05
0.00104805
0.000103754
0.00222354
0.000361292
0.00267294
0.000875809
0.00248526
0.001749
0.00172134
0.0030898
0.000418087
0.00501256
-0.00140811
0.00763372
-0.00375482
0.0110672
-0.00662584
0.0154178
-0.0100228
0.0207737
-0.0139375
0.0271975
-0.018346
0.0347184
-0.0232048
0.0433265
-0.0284498
0.052969
-0.0339979
0.0635513
-0.0397509
0.0749409
-0.0456016
0.0869759
-0.0514412
0.0994758
-0.0571656
0.112255
-0.0626843
0.125145
-0.0679212
0.137953
-0.0728571
0.150732
-0.0772525
-0.0820232
0.162827
5.17023e-05
0.000288381
0.000808047
0.00171948
0.00314128
0.00519938
0.00802227
0.011734
0.0164444
0.0222378
0.029161
0.0372138
0.0463423
0.0564378
0.0673414
0.0788539
0.0907499
0.102795
0.114762
0.126453
0.137701
0.148397
0.15865
0.168134
-0.0341103
-0.0146731
0.0147536
-0.0339417
-0.0111307
0.0109621
-0.0334412
-0.00620908
0.00570863
-0.0325927
0.000166351
-0.00101485
-0.0313952
0.00816037
-0.00935789
-0.0297768
0.01777
-0.0193884
-0.0277137
0.0288927
-0.0309558
-0.0252095
0.0413039
-0.0438081
-0.0222749
0.0546237
-0.0575583
-0.01892
0.0682642
-0.0716191
-0.0151371
0.0815289
-0.0853118
-0.0107611
0.0934424
-0.0978184
-0.0055173
0.10293
-0.108174
0.00100296
0.108653
-0.115173
0.00918
0.109051
-0.117228
0.0191305
0.102564
-0.112515
0.0306815
0.0880627
-0.0996137
0.0432532
0.0651604
-0.0777321
0.0561945
0.0343358
-0.0472772
0.0689832
-0.00328655
-0.0095021
0.0814665
-0.0456268
0.0331434
0.0931199
-0.0884538
0.0768004
0.103035
-0.125708
0.115793
0.11027
-0.152784
0.145549
0.114483
-0.168569
0.164356
0.115487
-0.174802
0.173798
0.112381
-0.176312
0.179418
0.104799
-0.180397
0.187979
0.0953598
-0.189029
0.198468
0.089268
-0.190528
0.196619
0.0902943
-0.165466
0.16444
0.0981649
-0.10528
0.097409
0.110049
-0.0213128
0.00942887
0.122352
0.0655386
-0.0778422
0.132416
0.137766
-0.147829
0.139476
0.1865
-0.19356
0.143169
0.211454
-0.215147
0.14178
0.225899
-0.22451
0.134731
0.246137
-0.239088
0.125391
0.265832
-0.256493
0.119388
0.250908
-0.244904
0.119703
0.175085
-0.175399
0.125153
0.0514047
-0.056855
0.132777
-0.0787413
0.0711174
0.140314
-0.176243
0.168706
0.144237
-0.230692
0.226768
0.141561
-0.259373
0.26205
0.133302
-0.286998
0.295257
0.124188
-0.289891
0.299005
0.119353
-0.23958
0.244414
0.121004
-0.121913
0.120263
0.126938
0.0191439
-0.0250778
0.133006
0.135264
-0.141332
0.133463
0.230111
-0.230568
0.128458
0.273747
-0.268742
0.122626
0.314478
-0.308646
0.119684
0.232536
-0.229594
0.122401
0.141625
-0.144342
0.128956
-0.00821072
0.00165543
-0.118771
0.115007
-0.0358709
-0.0145644
-0.0356685
-0.011333
-0.0350929
-0.0067847
-0.0340596
-0.000866953
-0.0326094
0.00671015
-0.0305966
0.0157571
-0.027932
0.0262282
-0.0245522
0.0379241
-0.0204522
0.0505237
-0.0155294
0.0633414
-0.00980968
0.0758092
-0.00311943
0.0867522
0.00471781
0.0950926
0.0138195
0.099551
0.0242549
0.0986157
0.0358638
0.0909555
0.0482058
0.0757206
0.0606376
0.0527286
0.0726496
0.0223238
0.0839784
-0.0146153
0.0945834
-0.0562318
0.104059
-0.0979289
0.111603
-0.133253
0.116423
-0.157604
0.118382
-0.170528
0.117793
-0.174213
0.114061
-0.172579
0.106054
-0.172391
0.0951557
-0.17813
0.0864764
-0.181848
0.0851817
-0.164171
0.0921091
-0.112207
0.104344
-0.0335481
0.117832
0.0520514
0.129643
0.125954
0.138578
0.177565
0.143624
0.206409
0.142998
0.226525
0.13669
0.252445
0.128378
0.274144
0.123261
0.256025
0.123757
0.174589
0.128521
0.0466401
0.134789
-0.0850093
0.140964
-0.182417
0.144149
-0.233877
0.141185
-0.256409
0.132741
-0.278555
0.123584
-0.280734
0.118872
-0.234868
0.120813
-0.123854
0.127053
0.0129039
0.132973
0.129344
0.133043
0.230042
0.127696
0.279094
0.122048
0.320126
0.119693
0.234892
0.122672
0.138645
0.129651
-0.0151895
-0.122917
-0.0310088
-0.0146138
-0.0306069
-0.011735
-0.0297957
-0.00759592
-0.0283913
-0.00227135
-0.0265241
0.00484298
-0.0240269
0.01326
-0.0207343
0.0229355
-0.0164811
0.033671
-0.0113504
0.0453929
-0.00517178
0.0571628
0.00230022
0.0683372
0.0108865
0.0781659
0.0205011
0.085478
0.0311851
0.0888671
0.0427838
0.0870169
0.0549372
0.0788022
0.0671127
0.0635451
0.0787261
0.0411152
0.0893729
0.0116771
0.0989652
-0.0242076
0.107513
-0.0647798
0.114653
-0.105068
0.119721
-0.138321
0.12216
-0.160043
0.121984
-0.170352
0.119841
-0.17207
0.115621
-0.16836
0.107788
-0.164558
0.0962728
-0.166615
0.0854009
-0.170976
0.0814461
-0.160216
0.0868416
-0.117602
0.098948
-0.0456545
0.11339
0.0376093
0.126861
0.112483
0.1376
0.166826
0.143987
0.200022
0.144291
0.22622
0.138978
0.257758
0.131811
0.281311
0.127472
0.260364
0.127943
0.174118
0.131985
0.0425988
0.136893
-0.0899173
0.141636
-0.18716
0.144069
-0.23631
0.140927
-0.253268
0.132386
-0.270014
0.123258
-0.271606
0.118745
-0.230355
0.120958
-0.126068
0.127374
0.00648799
0.133033
0.123686
0.132732
0.230342
0.127093
0.284733
0.121648
0.325571
0.119977
0.236563
0.123328
0.135294
0.130628
-0.0224897
-0.127345
-0.0203989
-0.0147809
-0.0198221
-0.0123119
-0.018727
-0.00869093
-0.0170454
-0.00395297
-0.0146276
0.00242519
-0.0116524
0.0102848
-0.00782599
0.0191091
-0.00301681
0.0288618
0.00332906
0.0390471
0.0108306
0.0496613
0.0193567
0.059811
0.0289031
0.0686196
0.0394359
0.0749452
0.0507736
0.0775293
0.0626121
0.0751785
0.0745005
0.0669137
0.0859036
0.052142
0.0963088
0.03071
0.105416
0.00256989
0.113241
-0.0320326
0.119763
-0.0713014
0.124587
-0.109893
0.127175
-0.140909
0.127289
-0.160157
0.125159
-0.168222
0.121549
-0.16846
0.116845
-0.163655
0.109599
-0.157312
0.098414
-0.15543
0.0860956
-0.158658
0.0793481
-0.153469
0.0825471
-0.120801
0.0939657
-0.0570732
0.109081
0.0224937
0.124062
0.0975029
0.136486
0.154402
0.144208
0.1923
0.145626
0.224802
0.141543
0.261841
0.135599
0.287256
0.131876
0.264086
0.132145
0.173848
0.135414
0.0393303
0.139038
-0.0935412
0.142321
-0.190444
0.143965
-0.237954
0.140737
-0.250039
0.132185
-0.261461
0.123125
-0.262546
0.118863
-0.226092
0.121342
-0.128547
0.12784
-9.80841e-06
0.133168
0.118358
0.132534
0.230977
0.126665
0.290601
0.121441
0.330795
0.120514
0.23749
0.124345
0.131462
0.131893
-0.0300374
-0.131963
-0.00469075
-0.0147907
-0.00441845
-0.0125842
-0.00342375
-0.00968564
-0.001807
-0.00556972
0.00106345
-0.000445257
0.00472311
0.00662511
0.00933966
0.0144925
0.0150413
0.0231601
0.0217383
0.0323502
0.029567
0.0418325
0.0384914
0.0508866
0.0484293
0.0586816
0.059211
0.0641635
0.0705434
0.066197
0.0820261
0.0636958
0.093185
0.0557548
0.103524
0.0418034
0.112581
0.0216528
0.120235
-0.00508422
0.1264
-0.0381973
0.130996
-0.0758981
0.133553
-0.11245
0.133678
-0.141034
0.131552
-0.15803
0.127712
-0.164382
0.122867
-0.163616
0.117662
-0.158451
0.111138
-0.150788
0.101074
-0.145365
0.0883373
-0.145922
0.079067
-0.144199
0.0794779
-0.121212
0.0896039
-0.0671993
0.104985
0.00711213
0.121216
0.0812724
0.135146
0.140472
0.144201
0.183245
0.146917
0.222086
0.144285
0.264473
0.139605
0.291936
0.136362
0.267329
0.136273
0.173937
0.138709
0.0368943
0.141164
-0.0959966
0.143
-0.19228
0.143805
-0.238759
0.14057
-0.246804
0.132101
-0.252992
0.123112
-0.253557
0.119104
-0.222084
0.12185
-0.131293
0.128379
-0.00653918
0.133358
0.113378
0.132442
0.231893
0.126424
0.296619
0.121437
0.335783
0.12127
0.237657
0.125674
0.127059
0.13343
-0.0377938
-0.136695
0.0175649
-0.0139494
0.0171626
-0.0121819
0.0175137
-0.0100367
0.0188228
-0.0068788
0.0210415
-0.00266396
0.0243892
0.00327742
0.0287183
0.0101633
0.0342294
0.0176491
0.0408917
0.0256878
0.0487037
0.0340206
0.0575858
0.0420045
0.0674062
0.0488612
0.0779275
0.0536422
0.0888011
0.0553234
0.099587
0.0529098
0.109812
0.0455303
0.119044
0.032571
0.126895
0.0138014
0.13332
-0.0115093
0.138086
-0.0429628
0.140879
-0.0786917
0.141205
-0.112775
0.138963
-0.138792
0.134768
-0.153836
0.129473
-0.159088
0.123694
-0.157836
0.118029
-0.152786
0.112131
-0.144891
0.103681
-0.136915
0.0916529
-0.133894
0.0805942
-0.13314
0.07789
-0.118508
0.0859812
-0.0752905
0.10111
-0.00801645
0.118224
0.0641584
0.13344
0.125255
0.143835
0.17285
0.148034
0.217886
0.147048
0.265459
0.143689
0.295294
0.14083
0.270189
0.140211
0.174556
0.141831
0.0352745
0.143203
-0.0973684
0.143646
-0.192723
0.143554
-0.238668
0.140369
-0.24362
0.132092
-0.244714
0.123152
-0.244617
0.119345
-0.218278
0.122355
-0.134302
0.128915
-0.0131
0.133577
0.108717
0.132449
0.233021
0.126379
0.302689
0.121647
0.340514
0.122209
0.237094
0.127262
0.122005
0.135214
-0.0457455
-0.141487
0.0462268
-0.0116059
0.0444553
-0.0104103
0.0433953
-0.00897677
0.0432701
-0.0067536
0.0440971
-0.00349097
0.0462696
0.00110488
0.0495602
0.00687273
0.0541716
0.0130377
0.0600892
0.0197702
0.0672613
0.0268485
0.0755589
0.0337069
0.0847839
0.0396362
0.0946453
0.0437808
0.104761
0.0452077
0.114678
0.0429926
0.123938
0.0362708
0.132175
0.0243336
0.138987
0.00698987
0.144383
-0.0169055
0.147898
-0.0464778
0.148986
-0.0797798
0.147197
-0.110986
0.142802
-0.134397
0.136809
-0.147842
0.130327
-0.152606
0.12392
-0.151429
0.117927
-0.146793
0.112438
-0.139402
0.105684
-0.13016
0.0953478
-0.123558
0.0836496
-0.121442
0.0779232
-0.112782
0.0832184
-0.0805856
0.0973705
-0.0221686
0.114919
0.0466102
0.131186
0.108988
0.142925
0.161111
0.148798
0.212013
0.149665
0.264592
0.147706
0.297254
0.145176
0.272719
0.143974
0.175758
0.144663
0.0345857
0.145082
-0.097787
0.144224
-0.191864
0.143183
-0.237627
0.140073
-0.24051
0.13211
-0.236752
0.123198
-0.235706
0.119482
-0.214561
0.122738
-0.137559
0.12937
-0.0197316
0.133793
0.104294
0.132542
0.234272
0.126528
0.308703
0.122075
0.344967
0.123311
0.235859
0.129061
0.116255
0.137215
-0.0538991
-0.146302
0.0797552
-0.00786473
0.0765557
-0.00721076
0.0739753
-0.00639638
0.0721415
-0.00491987
0.0712524
-0.00260186
0.0714754
0.000881931
0.0729745
0.00537357
0.0758547
0.0101576
0.0801778
0.015447
0.0859094
0.0211169
0.0929126
0.0267037
0.100953
0.0315956
0.109705
0.0350291
0.118763
0.0361496
0.12766
0.0340952
0.135927
0.0280043
0.143189
0.0170718
0.14918
0.000998572
0.153545
-0.0212702
0.155764
-0.0486971
0.155114
-0.0791295
0.151315
-0.107187
0.145043
-0.128126
0.137606
-0.140405
0.130227
-0.145228
0.123453
-0.144654
0.11733
-0.140671
0.112059
-0.134131
0.106724
-0.124826
0.0986439
-0.115477
0.0876369
-0.110435
0.0795775
-0.104722
0.081461
-0.0824692
0.0937131
-0.0344206
0.111108
0.0292158
0.128187
0.0919089
0.141284
0.148014
0.148976
0.204322
0.151852
0.261716
0.151432
0.297673
0.149292
0.274859
0.147452
0.177598
0.147197
0.0348405
0.146724
-0.0973138
0.144685
-0.189826
0.14266
-0.235603
0.139617
-0.237467
0.132102
-0.229236
0.123219
-0.226823
0.119444
-0.210787
0.122894
-0.141008
0.129666
-0.0265036
0.133973
0.0999868
0.132706
0.235539
0.126865
0.314544
0.122726
0.349105
0.124569
0.234016
0.131042
0.109783
0.139403
-0.0622607
-0.151116
0.113311
-0.00340837
0.109339
-0.0032391
0.105832
-0.00288916
0.102837
-0.00192467
0.100647
-0.000411966
0.0990986
0.00243035
0.0987882
0.00568398
0.0997168
0.00922905
0.102035
0.0131286
0.105777
0.0173753
0.110873
0.0216072
0.117134
0.0253345
0.124255
0.0279084
0.131842
0.0285629
0.13943
0.0265069
0.14652
0.0209147
0.152571
0.0110209
0.157736
-0.0041668
0.160807
-0.0243408
0.161505
-0.0493958
0.159026
-0.0766505
0.153363
-0.101523
0.14556
-0.120323
0.137087
-0.131933
0.129117
-0.137258
0.122169
-0.137706
0.116116
-0.134617
0.110995
-0.12901
0.106638
-0.120469
0.10086
-0.109699
0.0916966
-0.101271
0.0825477
-0.0955734
0.0809225
-0.080844
0.0902498
-0.0437479
0.10668
0.012786
0.124253
0.0743351
0.138707
0.133561
0.148388
0.194641
0.153485
0.256619
0.154726
0.296433
0.153047
0.276537
0.15059
0.180056
0.14937
0.0360602
0.148043
-0.0959864
0.144952
-0.186735
0.141941
-0.232591
0.13893
-0.234456
0.131999
-0.222304
0.12319
-0.218014
0.119193
-0.20679
0.122745
-0.144561
0.129732
-0.03349
0.134081
0.095638
0.132923
0.236697
0.127372
0.320096
0.123599
0.352878
0.126
0.231614
0.133186
0.102597
0.141756
-0.0708303
-0.155911
0.141182
0.00102118
0.137201
0.000742327
0.133495
0.000816431
0.130056
0.00151449
0.12695
0.002694
0.124838
0.00454208
0.123603
0.00691877
0.123293
0.00953977
0.124072
0.0123494
0.126045
0.0154019
0.129222
0.0184303
0.13351
0.0210466
0.138696
0.0227222
0.144458
0.0228007
0.150372
0.0205935
0.155983
0.0153032
0.160765
0.00623964
0.164335
-0.00773695
0.165909
-0.0259154
0.164815
-0.0483012
0.160456
-0.0722917
0.153164
-0.0942317
0.144228
-0.111386
0.13512
-0.122825
0.126846
-0.128984
0.119863
-0.130723
0.114026
-0.12878
0.109125
-0.124108
0.10536
-0.116704
0.101519
-0.105858
0.0948805
-0.0946326
0.0861354
-0.0868283
0.081676
-0.0763846
0.0873335
-0.0494054
0.101764
-0.00164433
0.119312
0.0567867
0.135024
0.117849
0.146729
0.182935
0.154104
0.249243
0.157166
0.293371
0.156197
0.277507
0.153344
0.182909
0.151159
0.0382456
0.148991
-0.0938186
0.144971
-0.182715
0.141005
-0.228625
0.137967
-0.231418
0.131741
-0.216079
0.123104
-0.209376
0.118732
-0.202418
0.122243
-0.148072
0.129515
-0.0407619
0.134082
0.0910713
0.133171
0.237607
0.128023
0.325244
0.12469
0.356211
0.127622
0.228683
0.135497
0.0947225
0.144252
-0.0795855
-0.160672
0.158999
0.00484901
0.155317
0.00442425
0.151742
0.00439152
0.148605
0.0046519
0.145999
0.00530004
0.144035
0.00650537
0.142754
0.00820053
0.142122
0.0101716
0.142256
0.0122155
0.14331
0.0143475
0.145281
0.0164592
0.148114
0.0182139
0.151664
0.0191725
0.1557
0.0187644
0.159897
0.0163967
0.163807
0.0113926
0.166754
0.00329299
0.168681
-0.00966413
0.168517
-0.025751
0.165561
-0.0453456
0.159526
-0.0662568
0.151066
-0.085771
0.141523
-0.101844
0.132211
-0.113513
0.123915
-0.120688
0.116989
-0.123796
0.111379
-0.12317
0.106736
-0.119465
0.10325
-0.113219
0.100689
-0.103298
0.0966038
-0.0905469
0.0895172
-0.0797416
0.083522
-0.0703894
0.0853461
-0.0512295
0.0968016
-0.0130999
0.113457
0.0401317
0.130221
0.101084
0.144129
0.169028
0.154034
0.239338
0.158979
0.288426
0.158658
0.277828
0.155671
0.185896
0.152696
0.0412199
0.149682
-0.0908046
0.144844
-0.177877
0.139985
-0.223766
0.136808
-0.228242
0.131334
-0.210605
0.122984
-0.201027
0.118132
-0.197566
0.121402
-0.151342
0.128961
-0.0483206
0.133931
0.0861012
0.133426
0.238112
0.128792
0.329878
0.125985
0.359018
0.129459
0.225209
0.137972
0.0862097
0.146875
-0.088489
-0.165386
0.1658
0.00718262
0.16309
0.00713375
0.160443
0.00703942
0.158044
0.00705027
0.155997
0.00734691
0.154453
0.00804953
0.153511
0.00914241
0.153183
0.0104996
0.153426
0.0119726
0.154248
0.0135255
0.155698
0.0150088
0.157744
0.0161688
0.160265
0.0166512
0.163055
0.0159743
0.16584
0.0136112
0.168249
0.00898408
0.170087
0.00145533
0.169976
-0.00955358
0.168
-0.0237753
0.163466
-0.0408116
0.156423
-0.0592135
0.147648
-0.0769958
0.138287
-0.0924833
0.129346
-0.104571
0.121384
-0.112727
0.114653
-0.117065
0.109223
-0.11774
0.104788
-0.11503
0.101348
-0.109778
0.0993054
-0.101255
0.0971676
-0.0884092
0.0923021
-0.0748761
0.0861404
-0.0642277
0.0848095
-0.0498986
0.0923881
-0.0206784
0.107045
0.0254746
0.123901
0.0842281
0.139513
0.153415
0.151983
0.226869
0.159084
0.281325
0.15993
0.276982
0.157287
0.188538
0.153999
0.0445082
0.150077
-0.0868819
0.144616
-0.172417
0.13901
-0.218159
0.135577
-0.224809
0.130802
-0.20583
0.122834
-0.193059
0.117473
-0.192204
0.120344
-0.154213
0.128091
-0.0560667
0.133612
0.0805801
0.133678
0.238045
0.129649
0.333907
0.127472
0.361195
0.131534
0.221147
0.140617
0.077127
0.149616
-0.0974886
-0.17003
0.187569
0.00945065
-0.189837
0.185715
0.00898797
0.183855
0.00889971
0.181974
0.00893108
0.180162
0.00915884
0.178532
0.00967979
0.177184
0.0104905
0.17618
0.0115033
0.175553
0.0125996
0.175403
0.0136753
0.175849
0.0145635
0.176989
0.0150281
0.17889
0.0147507
0.181549
0.0133151
0.184895
0.0102654
0.188694
0.00518438
0.19259
-0.0024402
0.195956
-0.0129196
0.198198
-0.0260172
0.198557
-0.041171
0.19662
-0.0572759
0.192457
-0.0728324
0.186477
-0.086504
0.179236
-0.0973302
0.171268
-0.104758
0.163012
-0.108809
0.154875
-0.109604
0.146986
-0.107141
0.139299
-0.102091
0.132305
-0.0942614
0.125856
-0.08196
0.117883
-0.0669034
0.107469
-0.0538129
0.0980566
-0.0404866
0.0946093
-0.0172312
0.097321
0.022763
0.103215
0.0783342
0.109393
0.147237
0.115565
0.220697
0.123024
0.273866
0.134078
0.265928
0.148239
0.174377
0.159961
0.0327861
0.165861
-0.0927821
0.164462
-0.171018
0.158268
-0.211964
0.151449
-0.21799
0.143554
-0.197935
0.133301
-0.182806
0.12429
-0.183194
0.121081
-0.151003
0.121841
-0.0568276
0.121109
0.0813127
0.117709
0.241445
0.113848
0.337768
0.114963
0.36008
0.122057
0.214053
0.131993
0.0671914
0.139537
-0.105033
-0.172215
0.199634
0.0106024
-0.200786
0.198489
0.0101331
0.197402
0.00998615
0.19632
0.0100139
0.195292
0.0101863
0.194422
0.0105498
0.193796
0.0111163
0.193474
0.0118252
0.193506
0.0125683
0.193957
0.013224
0.194892
0.0136288
0.196357
0.0135629
0.198367
0.0127409
0.20087
0.0108118
0.203723
0.00741269
0.206693
0.00221405
0.209465
-0.00521205
0.211485
-0.0149395
0.212242
-0.0267747
0.211257
-0.0401852
0.208273
-0.0542926
0.203369
-0.0679282
0.196874
-0.0800093
0.189275
-0.0897315
0.181097
-0.09658
0.17275
-0.100461
0.164571
-0.101425
0.156749
-0.0993192
0.149164
-0.0945059
0.14208
-0.0871772
0.135852
-0.0757317
0.129002
-0.0600538
0.119601
-0.0444118
0.109383
-0.0302685
0.103114
-0.010962
0.103577
0.0222994
0.108812
0.0730998
0.11593
0.140119
0.123823
0.212804
0.133579
0.264111
0.147241
0.252266
0.162966
0.158651
0.175051
0.020702
0.180031
-0.0977631
0.177409
-0.168395
0.169827
-0.204382
0.161854
-0.210017
0.153494