/*--------------------------------*- C++ -*----------------------------------*\
| =========                 |                                                 |
| \\      /  F ield         | OpenFOAM: The Open Source CFD Toolbox           |
|  \\    /   O peration     | Version:  2512                                  |
|   \\  /    A nd           | Website:  www.openfoam.com                      |
|    \\/     M anipulation  |                                                 |
\*---------------------------------------------------------------------------*/
FoamFile
{
    version     2.0;
    format      ascii;
    arch        "LSB;label=32;scalar=64";
    class       surfaceScalarField;
    location    "5";
    object      phi;
}
// * * * * * * * * * * * * * * * * * * * * * * * * * * * * * * * * * * * * * //

dimensions      [0 3 -1 0 0 0 0];

oriented        oriented;

internalField   nonuniform List<scalar> 
26232
(
0.000109471
0.00122886
-0.00133833
0.000805239
0.00232337
-0.00301914
0.00235151
0.00210616
-0.00365244
0.00496381
0.000518085
-0.00313038
0.00883751
-0.00250593
-0.00136778
0.0141461
-0.00701401
0.00170544
0.0210179
-0.0130096
0.00613782
0.0294954
-0.0204212
0.0119437
0.03949
-0.0290755
0.0190808
0.0507481
-0.0386849
0.0274269
0.0628471
-0.0488584
0.0367593
0.0752327
-0.0591366
0.046751
0.0872927
-0.0690494
0.0569894
0.0984552
-0.0781811
0.0670187
0.108284
-0.0862297
0.076401
0.116546
-0.0930433
0.0847813
0.123231
-0.0986246
0.0919392
0.12852
-0.103102
0.097813
0.132714
-0.106677
0.102484
0.136149
-0.109577
0.106142
0.139134
-0.111987
0.109002
0.141873
-0.114102
0.111362
0.144328
-0.115775
0.11332
-0.117717
0.115436
0.146609
0.000140039
0.00108882
0.000970967
0.00149244
0.00281447
0.000262661
0.00593863
-0.00260607
0.0105674
-0.00713474
0.016857
-0.0133036
0.0248525
-0.0210051
0.0344419
-0.0300106
0.0453268
-0.0399604
0.0570312
-0.0503893
0.0689548
-0.060782
0.0804644
-0.0706461
0.0909987
-0.0795838
0.100161
-0.0873439
0.107774
-0.0938422
0.113876
-0.0991459
0.118681
-0.103429
0.122496
-0.106917
0.125651
-0.109832
0.128435
-0.112361
0.131091
-0.114643
0.133772
-0.116783
0.136765
-0.118768
-0.121064
0.140112
0.000231805
0.000857017
0.00133295
0.000391293
0.00365042
-0.0020548
0.00746848
-0.00642414
0.0129887
-0.0126549
0.0202823
-0.0205972
0.0292386
-0.0299615
0.0395362
-0.0403082
0.0506611
-0.0510852
0.061977
-0.0617052
0.0728344
-0.0716394
0.0826852
-0.0804969
0.0911712
-0.0880698
0.0981631
-0.0943358
0.103743
-0.0994218
0.108142
-0.103545
0.111662
-0.10695
0.114607
-0.109861
0.117231
-0.112456
0.119731
-0.114861
0.122244
-0.117155
0.124859
-0.119398
0.127661
-0.12157
-0.123937
0.130534
0.000365092
0.000491926
0.00183059
-0.0010742
0.00473592
-0.00496014
0.00933557
-0.0110238
0.0157475
-0.0190669
0.0238909
-0.0287405
0.0334487
-0.0395193
0.0438882
-0.0507478
0.054546
-0.061743
0.0647546
-0.0719139
0.0739695
-0.0808543
0.0818558
-0.0883832
0.0883146
-0.0945287
0.0934502
-0.0994714
0.0974982
-0.10347
0.100746
-0.106792
0.103467
-0.109671
0.105888
-0.112282
0.108177
-0.114746
0.110452
-0.117136
0.112795
-0.119499
0.115263
-0.121866
0.117922
-0.124228
-0.126779
0.120763
0.000521458
-2.95325e-05
0.00240201
-0.00295475
0.00594012
-0.00849826
0.0113098
-0.0163934
0.0184843
-0.0262414
0.0271801
-0.0374363
0.0368667
-0.0492059
0.046859
-0.06074
0.0564629
-0.0713468
0.0651183
-0.0805693
0.0724914
-0.0882274
0.0784934
-0.0943851
0.0832364
-0.0992717
0.0869549
-0.10319
0.089924
-0.106439
0.0924001
-0.109268
0.0945895
-0.111861
0.0966425
-0.114335
0.098662
-0.116765
0.100716
-0.11919
0.102852
-0.121634
0.105097
-0.124111
0.107487
-0.126618
-0.129258
0.109966
0.000688623
-0.000718155
0.00300055
-0.00526667
0.00715526
-0.012653
0.0131944
-0.0224325
0.0208958
-0.0339429
0.0297568
-0.0462973
0.0390791
-0.0585282
0.048131
-0.069792
0.0563143
-0.0795301
0.0632697
-0.0875247
0.0688971
-0.0938548
0.0733048
-0.0987928
0.0767231
-0.10269
0.0794197
-0.105886
0.0816403
-0.10866
0.083579
-0.111207
0.0853739
-0.113655
0.0871169
-0.116078
0.0888673
-0.118516
0.0906645
-0.120988
0.092536
-0.123506
0.0945026
-0.126077
0.096589
-0.128705
-0.131441
0.0987729
0.000860956
-0.00157911
0.00359139
-0.00799711
0.00829233
-0.0173539
0.0148248
-0.028965
0.022745
-0.0418631
0.0313597
-0.054912
0.0398936
-0.0670621
0.047685
-0.0775834
0.0543189
-0.086164
0.0596589
-0.0928646
0.0637941
-0.09799
0.0669467
-0.101945
0.0693806
-0.105124
0.0713376
-0.107843
0.0730069
-0.110329
0.0745212
-0.112721
0.0759666
-0.115101
0.0773973
-0.117509
0.0788481
-0.119966
0.0803433
-0.122483
0.0819007
-0.125063
0.0835341
-0.127711
0.0852581
-0.130429
-0.133235
0.0870515
0.00103123
-0.00261034
0.0041411
-0.011107
0.00926962
-0.0224824
0.0160636
-0.035759
0.023867
-0.0496665
0.0318675
-0.0629125
0.0393188
-0.0745134
0.0457162
-0.0839808
0.0508551
-0.0913029
0.0547859
-0.0967954
0.0577151
-0.100919
0.059904
-0.104134
0.0615971
-0.106817
0.0629863
-0.109233
0.064205
-0.111548
0.0653383
-0.113855
0.066438
-0.116201
0.0675364
-0.118608
0.0686551
-0.121085
0.0698102
-0.123638
0.0710147
-0.126268
0.07228
-0.128976
0.0736165
-0.131765
-0.134634
0.0750154
0.00119114
-0.00380149
0.00461444
-0.0145303
0.0100123
-0.0278803
0.016808
-0.0425547
0.0241804
-0.0570389
0.031291
-0.0700231
0.0375111
-0.0807336
0.04253
-0.0889996
0.0463306
-0.0951035
0.0490895
-0.0995544
0.0510636
-0.102893
0.0525042
-0.105575
0.0536125
-0.107925
0.0545285
-0.110149
0.0553407
-0.11236
0.0561014
-0.114615
0.0568419
-0.116941
0.057582
-0.119348
0.0583363
-0.121839
0.0591164
-0.124418
0.0599322
-0.127084
0.0607927
-0.129836
0.0617045
-0.132677
-0.135594
0.0626647
0.00133051
-0.005132
0.00497639
-0.0181761
0.0104601
-0.033364
0.0170014
-0.049096
0.0236877
-0.0637252
0.0297421
-0.0760776
0.0347042
-0.0856956
0.0384502
-0.0927456
0.0411026
-0.097756
0.0429043
-0.101356
0.0441147
-0.104104
0.0449496
-0.10641
0.0455621
-0.108538
0.0460488
-0.110635
0.0464659
-0.112777
0.0468455
-0.114995
0.0472069
-0.117302
0.0475636
-0.119704
0.047926
-0.122202
0.0483034
-0.124795
0.0487037
-0.127484
0.0491342
-0.130267
0.0496002
-0.133143
-0.136098
0.0501046
0.00143931
-0.00657131
0.00519843
-0.0219353
0.0105769
-0.0387424
0.016638
-0.0551571
0.022459
-0.0695462
0.0273892
-0.0810078
0.0311484
-0.0894548
0.0337666
-0.0953638
0.0354527
-0.0994421
0.0364691
-0.102373
0.0370498
-0.104684
0.037367
-0.106727
0.0375308
-0.108702
0.0376052
-0.11071
0.0376254
-0.112797
0.0376112
-0.114981
0.0375754
-0.117267
0.0375275
-0.119656
0.0374757
-0.12215
0.0374272
-0.124747
0.0373886
-0.127445
0.037365
-0.130243
0.0373594
-0.133138
-0.136116
0.0373767
0.00151238
-0.00808369
0.00526626
-0.0256891
0.010357
-0.0438332
0.0157579
-0.060558
0.0206104
-0.0743987
0.0244235
-0.0848209
0.0270807
-0.092112
0.0287214
-0.0970045
0.0295953
-0.100316
0.0299533
-0.10273
0.0299916
-0.104723
0.0298406
-0.106576
0.0295767
-0.108438
0.0292412
-0.110374
0.0288562
-0.112412
0.0284344
-0.114559
0.0279846
-0.116817
0.0275142
-0.119186
0.0270296
-0.121666
0.026537
-0.124254
0.0260421
-0.12695
0.0255492
-0.129751
0.0250605
-0.132649
0.0245827
-0.135638
-0.00129506
0.000825779
0.000469283
-0.00418174
0.00184037
0.00104631
-0.00809338
0.00249792
0.00141372
-0.0126642
0.00292613
0.00164471
-0.0176531
0.0032027
0.00178614
-0.0228984
0.00337732
0.00186804
-0.0282802
0.00347565
0.00190609
-0.0336901
0.00350465
0.00190528
-0.0390134
0.00345922
0.00186409
-0.0441191
0.00332782
0.00177786
-0.0488561
0.00309622
0.00164079
-0.053053
0.00274974
0.00144713
-0.0565195
0.00227458
0.00119194
-0.0590496
0.00165882
0.000871312
-0.0604278
0.000895531
0.000482649
-0.0604224
-1.40287e-05
8.60281e-06
-0.0588927
-0.00105416
-0.000475563
-0.0556313
-0.00222899
-0.0010324
-0.0504981
-0.00350685
-0.00162631
-0.0434024
-0.00485568
-0.00224
-0.0343093
-0.00623825
-0.00285481
-0.0232433
-0.00761184
-0.00345416
-0.0102952
-0.00892118
-0.004027
-0.010018
0.00428407
-0.00456127
-0.00117917
0.00200495
-0.00384536
0.00450655
-0.00748942
0.00614198
-0.0117683
0.00720504
-0.0164454
0.00787978
-0.0213549
0.00828678
-0.0263697
0.00849049
-0.0313757
0.00851061
-0.0362539
0.00833749
-0.0408717
0.00794559
-0.0450781
0.00730262
-0.0487034
0.00637509
-0.051561
0.00513213
-0.0534491
0.00354694
-0.0541438
0.00159021
-0.0534677
-0.000690128
-0.0512408
-0.00328101
-0.047288
-0.00618184
-0.0414837
-0.00931114
-0.0337584
-0.0125809
-0.0241041
-0.0158926
-0.0125764
-0.0191396
0.000706151
-0.0222037
-0.0248987
0.0155869
-0.000911364
0.00291632
-0.00305733
0.00665251
-0.00606105
0.00914571
-0.00963595
0.0107799
-0.01356
0.0118038
-0.0176608
0.0123876
-0.0217983
0.012628
-0.0258467
0.012559
-0.0296809
0.0121716
-0.0331675
0.0114322
-0.0361605
0.0102956
-0.0384999
0.00871456
-0.0400122
0.00664442
-0.0405133
0.00404803
-0.0397768
0.000853694
-0.0377124
-0.00275457
-0.0340814
-0.00691202
-0.0287607
-0.0115025
-0.0216555
-0.0164163
-0.0127407
-0.0214957
-0.00206021
-0.0265731
0.010268
-0.0314678
0.0240532
-0.0359889
-0.0401051
0.0392595
-0.000549559
0.00346588
-0.00196789
0.00807084
-0.00405368
0.0112315
-0.00660378
0.01333
-0.00942584
0.0146259
-0.0123473
0.0153091
-0.0152159
0.0154966
-0.0178939
0.015237
-0.0202505
0.0145283
-0.0221548
0.0133364
-0.0234708
0.0116117
-0.0240553
0.00929909
-0.0237573
0.00634634
-0.0224076
0.00269837
-0.0199228
-0.00163114
-0.0160459
-0.00663143
-0.0106838
-0.0122742
-0.00373878
-0.0184475
0.00482271
-0.0249778
0.0149853
-0.0316583
0.0266449
-0.0382327
0.0396207
-0.0444436
0.0536383
-0.0500065
-0.0550917
0.0686249
-0.000168552
0.00363443
-0.00078003
0.00868232
-0.00181014
0.0122616
-0.00315249
0.0146724
-0.00466086
0.0161342
-0.00617775
0.016826
-0.00754742
0.0168662
-0.00862744
0.016317
-0.00928422
0.015185
-0.00939312
0.0134453
-0.00883295
0.0110515
-0.00748235
0.00794849
-0.00521656
0.00408054
-0.00192388
-0.000594307
0.00252622
-0.00608124
0.00826263
-0.0123678
0.015364
-0.0193756
0.0238699
-0.0269534
0.0337634
-0.0348713
0.0449379
-0.0428328
0.0572129
-0.0505078
0.0703327
-0.0575634
0.0840049
-0.0636786
-0.0690706
0.0979838
0.000159801
0.00347463
0.000296479
0.00854564
0.000296644
0.0122614
0.000175266
0.0147938
2.04152e-05
0.0162891
-3.75987e-05
0.016884
0.000140043
0.0166886
0.00069343
0.0157637
0.00174757
0.0141309
0.00341864
0.0117742
0.00581435
0.00865579
0.00903728
0.00472557
0.0131879
-7.01081e-05
0.0183651
-0.00577151
0.0246656
-0.0123817
0.0321577
-0.01986
0.0408681
-0.0280859
0.0507577
-0.036843
0.0617064
-0.04582
0.0735061
-0.0546325
0.0858879
-0.0628895
0.0985226
-0.0701981
0.111164
-0.0763203
-0.0813183
0.123412
0.00038451
0.00309012
0.00109502
0.00783514
0.00194602
0.0114104
0.00288768
0.0138521
0.00395389
0.0152229
0.00522983
0.0156081
0.00682938
0.015089
0.00887117
0.0137219
0.0114716
0.0115304
0.0147382
0.00850769
0.0187715
0.00462253
0.0236591
-0.000162101
0.0295141
-0.00592506
0.0364045
-0.0126619
0.0443911
-0.0203683
0.0534824
-0.0289513
0.0636113
-0.0382148
0.0746167
-0.0478484
0.0862446
-0.0574478
0.0981681
-0.0665561
0.110047
-0.0747684
0.121537
-0.0816885
0.132493
-0.0872757
-0.0913399
0.142514
0.000485223
0.00260489
0.0015293
0.00679106
0.00294464
0.0099951
0.00465439
0.0121424
0.00665398
0.0132233
0.00899112
0.0132709
0.0117469
0.0123332
0.0150196
0.0104492
0.0189136
0.00763637
0.0235349
0.00388644
0.0289857
-0.000828325
0.0353889
-0.00656529
0.0428081
-0.0133443
0.0513079
-0.0211617
0.0608779
-0.0299383
0.0714145
-0.0394879
0.0827017
-0.049502
0.0944171
-0.0595638
0.106168
-0.069199
0.117552
-0.0779398
0.12823
-0.0854468
0.137965
-0.0914236
0.146761
-0.0960714
-0.0989949
0.154416
0.000472276
0.00213262
0.00160725
0.00565609
0.00327312
0.00832922
0.00540567
0.0100098
0.00798989
0.0106391
0.0110538
0.010207
0.0146603
0.00872665
0.0188983
0.0062113
0.0238738
0.00266081
0.029706
-0.00194575
0.0365184
-0.00764075
0.0443994
-0.0144463
0.053402
-0.0223468
0.063493
-0.0312527
0.0745221
-0.0409674
0.0862069
-0.0511727
0.0981487
-0.0614438
0.109883
-0.0712983
0.120957
-0.0802724
0.131012
-0.0879948
0.139842
-0.0942776
0.147438
-0.0990188
0.153972
-0.102605
-0.104569
0.159546
0.000380102
0.00175252
0.00142243
0.00461376
0.00308733
0.00666432
0.00535645
0.00774069
0.00823651
0.00775901
0.0117661
0.00667747
0.0160174
0.00447534
0.0210914
0.00113727
0.0271131
-0.00336081
0.0342052
-0.00903791
0.0424642
-0.0158998
0.0519227
-0.0239048
0.0625079
-0.032932
0.0740088
-0.0427536
0.0860692
-0.0530278
0.098216
-0.0633195
0.109925
-0.0731529
0.120712
-0.082085
0.13022
-0.0897805
0.138291
-0.0960661
0.144962
-0.100948
0.15048
-0.104537
0.155121
-0.107246
-0.108677
0.159228
0.000257659
0.00149486
0.00112576
0.00374565
0.00267137
0.00511871
0.00494524
0.00546683
0.00800512
0.00469912
0.0119303
0.00275225
0.0168256
-0.000419958
0.0228163
-0.00485337
0.0300197
-0.0105642
0.0385168
-0.017535
0.0483039
-0.0256869
0.0592513
-0.0348521
0.0710768
-0.0447575
0.0833507
-0.0550276
0.0955394
-0.0652165
0.107084
-0.0748638
0.117496
-0.0835651
0.126449
-0.0910381
0.133829
-0.0971606
0.139744
-0.101981
0.144459
-0.105663
0.148389
-0.108467
0.151808
-0.110665
-0.112077
0.155209
0.000156524
0.000883041
0.00234932
0.00468576
0.0080171
0.0124748
0.0181927
0.0252829
0.0337995
0.0436914
0.0547639
0.0666628
0.0788947
0.0908857
0.10207
0.111988
0.120362
0.127137
0.13246
0.136621
0.13996
0.142855
0.14551
0.148869
0.0232088
-0.0121758
-0.00674895
0.0415145
-0.0110879
-0.00721779
0.0590135
-0.00993985
-0.00755915
0.0754894
-0.00870505
-0.00777078
0.0907284
-0.00738042
-0.00785866
0.104582
-0.00600714
-0.0078466
0.116981
-0.00463159
-0.00776708
0.127924
-0.0032938
-0.00764887
0.137457
-0.00202038
-0.00751324
0.145653
-0.000821147
-0.00737487
0.152631
0.000262719
-0.00724037
0.158518
0.00124339
-0.00713082
0.163437
0.00214796
-0.00706681
0.167521
0.00297091
-0.00705443
0.170904
0.0037054
-0.00708872
0.173705
0.00436521
-0.00716582
0.176026
0.00496206
-0.00728338
0.177961
0.00550371
-0.00743884
0.179587
0.00601073
-0.00763665
0.180962
0.00650832
-0.00788316
0.182128
0.0070157
-0.00818223
0.183118
0.00754364
-0.00853372
0.183956
0.00809669
-0.00893471
0.184662
0.00867608
-0.0093816
0.185251
0.00928223
-0.00987166
0.185739
0.0099164
-0.0104039
0.186137
0.0105812
-0.0109789
0.186455
0.0112803
-0.0115988
0.186703
0.0120183
-0.0122666
0.186889
0.0128005
-0.0129862
0.187019
0.0136327
-0.0137622
0.187097
0.014521
-0.0145998
0.18713
0.0154724
-0.015505
0.18712
0.0164941
-0.0164845
0.187072
0.0175942
-0.0175456
0.186987
0.0187812
-0.0186964
0.186868
0.0200645
-0.019946
0.186718
0.0214546
-0.0213043
0.186538
0.0229627
-0.0227825
0.186329
0.0246015
-0.0243928
0.186094
0.0263849
-0.0261492
0.185832
0.0283285
-0.0280668
0.185545
0.0304496
-0.0301629
0.185234
0.0327674
-0.0324566
0.1849
0.0353033
-0.0349691
0.184543
0.0380813
-0.0377242
0.184164
0.0411278
-0.0407483
0.183762
0.0444726
-0.0440713
0.183339
0.0481471
-0.0477241
0.182895
0.0521945
-0.0517502
0.18243
0.056628
-0.0561628
0.181943
0.0615847
-0.0610977
0.181437
0.0668244
-0.0663185
0.180905
0.0732131
-0.0726812
0.180361
0.0787508
-0.0782067
0.179782
0.0881167
-0.0875376
0.179194
0.0923309
-0.0917432
0.178576
0.106628
-0.106011
0.177933
0.109617
-0.108974
0.127249
-0.12658
0.0328611
-0.02945
0.0496461
-0.0278729
0.065749
-0.0260428
0.0809406
-0.0238966
0.0950147
-0.0214546
0.107841
-0.0188337
0.119367
-0.0161576
0.12959
-0.0135166
0.138551
-0.0109812
0.146329
-0.0085989
0.152997
-0.00640575
0.158656
-0.0044151
0.163422
-0.00261863
0.167394
-0.00100124
0.170709
0.000390738
0.173474
0.00159984
0.17578
0.0026565
0.177708
0.00357525
0.179335
0.00438397
0.180716
0.00512747
0.181893
0.00583901
0.182896
0.00654019
0.18375
0.00724317
0.184472
0.00795389
0.185079
0.00867561
0.185583
0.00941164
0.185998
0.0101662
0.186334
0.0109447
0.186599
0.011753
0.186802
0.0125978
0.186949
0.013486
0.187045
0.0144249
0.187095
0.0154223
0.187103
0.0164861
0.187072
0.0176248
0.187006
0.0188477
0.186906
0.0201646
0.186774
0.0215861
0.186613
0.023124
0.186423
0.024791
0.186207
0.0266014
0.185965
0.0285709
0.185697
0.0307169
0.185406
0.0330589
0.185091
0.0356185
0.184752
0.0384196
0.184391
0.0414889
0.184007
0.0448564
0.183601
0.0485533
0.183172
0.0526233
0.182721
0.0570792
0.182246
0.0620599
0.18175
0.0673208
0.181224
0.0737386
0.180683
0.0792921
0.180102
0.0886979
0.179508
0.0929242
0.178874
0.107262
0.178214
0.110277
0.127952
0.0532769
-0.0434674
0.0670416
-0.0416376
0.0803196
-0.0393209
0.0928837
-0.0364607
0.104549
-0.0331195
0.115213
-0.029498
0.124853
-0.0257978
0.133483
-0.0221466
0.141134
-0.0186322
0.147856
-0.0153205
0.153708
-0.0122577
0.158761
-0.00946888
0.163101
-0.00695807
0.166822
-0.00472218
0.169968
-0.00275533
0.172597
-0.00102913
0.174826
0.000427205
0.176712
0.00168962
0.178326
0.00276927
0.179708
0.00374557
0.180896
0.00465127
0.181918
0.00551841
0.182795
0.00636632
0.183543
0.00720525
0.184178
0.00804073
0.184712
0.0088776
0.185157
0.00972146
0.185523
0.0105788
0.185819
0.0114571
0.186052
0.0123641
0.186231
0.0133079
0.186358
0.014297
0.186441
0.0153397
0.186482
0.016445
0.186485
0.0176218
0.186453
0.01888
0.186388
0.0202297
0.186292
0.021682
0.186167
0.0232489
0.186014
0.0249434
0.185836
0.0267801
0.185632
0.0287748
0.185404
0.0309452
0.185152
0.0333109
0.184876
0.0358936
0.184578
0.0387176
0.184258
0.0418095
0.183914
0.0451996
0.183549
0.0489192
0.183159
0.0530124
0.182747
0.0574915
0.18231
0.0624973
0.181849
0.0677811
0.181358
0.0742302
0.180848
0.0798022
0.180294
0.0892518
0.179725
0.0934927
0.179107
0.107881
0.178463
0.110921
0.128654
0.078369
-0.0532115
0.0882304
-0.0514991
0.0979146
-0.049005
0.107182
-0.0457284
0.115872
-0.0418089
0.123898
-0.0375247
0.131242
-0.0331409
0.137924
-0.0288287
0.143964
-0.0246726
0.149387
-0.0207435
0.154226
-0.0170967
0.158519
-0.013762
0.162307
-0.0107453
0.165623
-0.00803851
0.168507
-0.00563949
0.171018
-0.00354012
0.173168
-0.00172321
0.174969
-0.000110729
0.176565
0.00117284
0.177945
0.00236544
0.179145
0.00345138
0.18019
0.00447387
0.181097
0.00545909
0.181881
0.00642121
0.182555
0.00736721
0.183129
0.00830286
0.183616
0.00923465
0.184025
0.01017
0.184365
0.0111174
0.184643
0.0120858
0.184866
0.0130846
0.18504
0.0141229
0.18517
0.0152101
0.185259
0.0163558
0.185311
0.0175698
0.185329
0.0188621
0.185315
0.0202435
0.185272
0.0217254
0.185201
0.0233201
0.185103
0.025041
0.18498
0.0269027
0.184834
0.0289214
0.184664
0.031115
0.184472
0.0335033
0.184257
0.0361081
0.184021
0.0389539
0.183763
0.0420677
0.183483
0.0454797
0.18318
0.0492215
0.182855
0.0533375
0.182507
0.0578398
0.182133
0.0628712
0.181736
0.0681785
0.181306
0.0746602
0.180855
0.0802525
0.180358
0.0897489
0.179845
0.0940061
0.179273
0.108453
0.178678
0.111516
0.129322
0.103079
-0.0583069
0.108679
-0.0570987
0.114504
-0.0548298
0.120313
-0.0515379
0.125969
-0.0474644
0.131387
-0.0429433
0.136516
-0.0382693
0.141333
-0.0336463
0.145847
-0.0291865
0.150047
-0.0249437
0.153927
-0.0209764
0.157488
-0.0173226
0.160734
-0.0139921
0.163673
-0.0109774
0.166306
-0.00827264
0.168638
-0.00587175
0.170689
-0.003774
0.172524
-0.00194534
0.174049
-0.000352499
0.175431
0.000982889
0.176647
0.00223559
0.177719
0.00340159
0.178664
0.0045144
0.179492
0.00559315
0.180214
0.00664515
0.180841
0.00767647
0.181381
0.00869404
0.181845
0.0097058
0.182242
0.010721
0.182578
0.0117497
0.18286
0.0128022
0.183095
0.0138885
0.183286
0.015019
0.183438
0.0162038
0.183554
0.0174533
0.183638
0.0187783
0.183692
0.0201899
0.183717
0.0216998
0.183717
0.0233206
0.183692
0.0250661
0.183643
0.0269511
0.183573
0.0289921
0.183481
0.0312071
0.183368
0.0336162
0.183234
0.0362415
0.183081
0.0391075
0.182907
0.0422415
0.182713
0.045674
0.182497
0.0494367
0.18226
0.0535746
0.182001
0.0580992
0.181716
0.0631558
0.181408
0.0684863
0.181067
0.0750013
0.180705
0.0806145
0.180294
0.0901599
0.179867
0.0944338
0.179373
0.108947
0.178859
0.11203
0.129922
0.124191
-0.0590863
0.125747
-0.0586545
0.1279
-0.0569829
0.130463
-0.0541003
0.133335
-0.0503367
0.136428
-0.0460359
0.139642
-0.0414835
0.142894
-0.0368984
0.146131
-0.0324236
0.149323
-0.0281358
0.152423
-0.0240759
0.155391
-0.020291
0.158202
-0.0168028
0.160832
-0.013608
0.16326
-0.0107001
0.165468
-0.00807963
0.167448
-0.00575387
0.16922
-0.00371746
0.170815
-0.00194819
0.172167
-0.000368639
0.173409
0.000993079
0.174517
0.0022939
0.175507
0.0035247
0.176387
0.00471252
0.177168
0.00586492
0.177856
0.00698782
0.178462
0.00808825
0.178994
0.00917419
0.179459
0.0102554
0.179866
0.0113427
0.180221
0.0124473
0.18053
0.0135801
0.180797
0.0147521
0.181026
0.0159743
0.181222
0.0172576
0.181387
0.0186134
0.181524
0.020053
0.181635
0.0215888
0.181722
0.0232337
0.181786
0.0250015
0.18183
0.0269076
0.181853
0.0289685
0.181858
0.0312026
0.181844
0.0336301
0.181812
0.0362735
0.181762
0.0391575
0.181694
0.0423094
0.181607
0.0457603
0.181502
0.0495419
0.181377
0.0536999
0.181231
0.0582451
0.181061
0.0633257
0.180869
0.0686784
0.180644
0.0752262
0.180399
0.08086
0.180103
0.0904557
0.179791
0.0947457
0.179407
0.109332
0.179006
0.11243
0.13042
0.139864
-0.0564356
0.13812
-0.0569112
0.137215
-0.0560774
0.137062
-0.0539473
0.137622
-0.0508969
0.1388
-0.0472143
0.140458
-0.0431412
0.142465
-0.0389058
0.144715
-0.0346728
0.14712
-0.030541
0.14962
-0.0265756
0.152144
-0.0228157
0.154635
-0.019293
0.157044
-0.0160171
0.15933
-0.0129866
0.161458
-0.0102079
0.163406
-0.00770103
0.165167
-0.00547929
0.166752
-0.00353256
0.168201
-0.0018174
0.169438
-0.000244614
0.170594
0.00113826
0.171639
0.00247947
0.172581
0.0037706
0.173429
0.00501715
0.17419
0.00622664
0.174872
0.00740629
0.175482
0.0085636
0.176029
0.00970841
0.17652
0.0108523
0.17696
0.0120069
0.177356
0.0131842
0.177713
0.0143957
0.178034
0.0156531
0.178323
0.0169681
0.178584
0.0183522
0.17882
0.0198176
0.179032
0.0213767
0.179223
0.0230429
0.179394
0.0248304
0.179547
0.0267547
0.179682
0.0288327
0.179802
0.031083
0.179906
0.033526
0.179995
0.0361845
0.180069
0.0390835
0.180128
0.0422505
0.180171
0.0457169
0.180199
0.0495146
0.180209
0.0536901
0.1802
0.0582534
0.18017
0.0633559
0.18012
0.0687286
0.180038
0.0753082
0.179937
0.080961
0.179785
0.0906074
0.179619
0.0949117
0.179376
0.109575
0.17912
0.112686
0.130781
0.149503
-0.051522
0.145501
-0.0529098
0.142403
-0.0529795
0.140252
-0.0517956
0.139079
-0.0497245
0.138794
-0.0469291
0.139242
-0.0435889
0.140275
-0.0399394
0.141761
-0.0361587
0.143576
-0.032356
0.145615
-0.0286148
0.147803
-0.0250031
0.150061
-0.0215514
0.152319
-0.018275
0.154518
-0.0151859
0.156609
-0.0122991
0.158555
-0.00964705
0.160339
-0.00726284
0.161959
-0.00515291
0.163429
-0.00328698
0.164791
-0.00160717
0.165963
-3.32462e-05
0.167079
0.00136353
0.168092
0.0027576
0.169016
0.00409266
0.16986
0.00538306
0.170629
0.00663764
0.171329
0.00786297
0.171969
0.00906856
0.172555
0.0102664
0.173093
0.0114687
0.173589
0.012688
0.174048
0.0139367
0.174475
0.0152269
0.174872
0.0165708
0.175244
0.0179806
0.175593
0.0194688
0.175921
0.0210482
0.176231
0.0227326
0.176525
0.0245365
0.176804
0.0264757
0.17707
0.0285674
0.177322
0.0308303
0.177563
0.0332854
0.177792
0.0359554
0.17801
0.0388657
0.178216
0.0420442
0.178411
0.0455225
0.178592
0.0493327
0.17876
0.0535224
0.178913
0.0581004
0.179047
0.063222
0.179164
0.0686116
0.179251
0.075221
0.179322
0.08089
0.179343
0.0905869
0.179352
0.0949025
0.179281
0.109646
0.179201
0.112765
0.130974
0.153568
-0.0455442
0.148368
-0.0477096
0.143962
-0.0485738
0.140537
-0.0483705
0.138193
-0.0473803
0.136854
-0.0455901
0.136388
-0.0431231
0.136663
-0.040215
0.137544
-0.0370392
0.138892
-0.0337044
0.140582
-0.0303044
0.142505
-0.0269257
0.14458
-0.0236265
0.146727
-0.0204223
0.148873
-0.0173322
0.150956
-0.0143819
0.152927
-0.0116179
0.154756
-0.00909165
0.156434
-0.00683075
0.157968
-0.00482099
0.159374
-0.00301366
0.16068
-0.00133943
0.161843
0.000200804
0.162941
0.00165977
0.163953
0.00308032
0.16489
0.00444673
0.165755
0.00577185
0.166557
0.00706164
0.1673
0.00832492
0.167993
0.00957382
0.16864
0.0108211
0.169249
0.0120797
0.169823
0.0133626
0.170367
0.0146826
0.170885
0.0160524
0.171381
0.0174847
0.171858
0.0189924
0.172317
0.0205887
0.172762
0.0222877
0.173194
0.0241043
0.173615
0.0260545
0.174027
0.0281558
0.17443
0.0304274
0.174825
0.0328903
0.175213
0.0355676
0.175594
0.0384849
0.175967
0.0416706
0.176333
0.0451566
0.176691
0.0489751
0.177038
0.0531747
0.177376
0.0577632
0.177697
0.0629003
0.178006
0.0683026
0.178288
0.0749392
0.178558
0.0806202
0.178778
0.0903666
0.178992
0.0946893
0.179122
0.109515
0.17925
0.112638
0.130963
0.153156
-0.0394719
0.147572
-0.0421255
0.14255
-0.0435517
0.138438
-0.0442591
0.135373
-0.0443152
0.133309
-0.043526
0.132171
-0.0419853
0.131864
-0.039907
0.132261
-0.0374365
0.133228
-0.0346718
0.134632
-0.031708
0.136345
-0.0286394
0.138263
-0.0255445
0.140313
-0.0224718
0.142421
-0.0194407
0.144516
-0.0164769
0.146537
-0.0136389
0.14844
-0.0109945
0.150202
-0.00859262
0.151824
-0.00644261
0.153318
-0.00450753
0.15471
-0.0027322
0.155975
-0.00106426
0.157152
0.000483596
0.158265
0.00196692
0.159306
0.00340581
0.16028
0.00479797
0.161192
0.00614905
0.16205
0.00746712
0.16286
0.00876422
0.163627
0.0100534
0.164359
0.0113482
0.165059
0.0126622
0.165733
0.0140087
0.166385
0.015401
0.167017
0.0168521
0.167634
0.0183754
0.168239
0.0199846
0.168832
0.0216941
0.169417
0.023519
0.169996
0.0254758
0.17057
0.0275823
0.171139
0.0298578
0.171706
0.0323237
0.17227
0.0350035
0.172832
0.037923
0.173392
0.0411108
0.173949
0.0445994
0.174503
0.0484212
0.175052
0.0526258
0.175595
0.0572199
0.176127
0.0623678
0.176652
0.0677776
0.177154
0.074438
0.177648
0.0801254
0.178095
0.0899199
0.17854
0.094244
0.178903
0.109153
0.179267
0.112274
0.130717
0.149594
-0.0338575
0.144042
-0.036573
0.138793
-0.0383024
0.134359
-0.0398257
0.130854
-0.0408102
0.12829
-0.0409622
0.126659
-0.040354
0.125897
-0.039145
0.125901
-0.0374403
0.126548
-0.0353189
0.127708
-0.0328676
0.12925
-0.0301815
0.131058
-0.0273526
0.133038
-0.0244521
0.135118
-0.0215206
0.137233
-0.0185917
0.139319
-0.0157247
0.141322
-0.0129983
0.143204
-0.010474
0.144948
-0.00818705
0.146563
-0.00612218
0.148062
-0.00423095
0.149468
-0.0024703
0.150752
-0.000801024
0.151974
0.000744825
0.153134
0.00224651
0.154227
0.00370473
0.155262
0.00511442
0.156244
0.0064846
0.157181
0.00782707
0.15808
0.00915513
0.158945
0.0104829
0.159782
0.0118246
0.160597
0.0131939
0.161393
0.0146047
0.162175
0.0160706
0.162945
0.0176053
0.163707
0.019223
0.164462
0.0209383
0.165215
0.0227668
0.165965
0.0247253
0.166716
0.0268318
0.167467
0.029106
0.168221
0.0315696
0.168979
0.0342464
0.169739
0.0371625
0.170503
0.0403468
0.17127
0.0438324
0.17204
0.0476516
0.17281
0.0518556
0.173581
0.0564492
0.174346
0.0616027
0.17511
0.0670138
0.175854
0.073694
0.176598
0.0793806
0.177297
0.0892213
0.178001
0.0935398
0.178624
0.10853
0.179252
0.111646
0.130203
0.144446
-0.029435
0.139263
-0.03139
0.13445
-0.0334894
0.130154
-0.0355294
0.126464
-0.0371205
0.123541
-0.0380394
0.121473
-0.0382858
0.120242
-0.037914
0.119779
-0.0369768
0.119993
-0.0355329
0.120778
-0.0336526
0.122016
-0.0314202
0.123594
-0.0289304
0.125414
-0.0262715
0.127397
-0.023504
0.129474
-0.0206685
0.131574
-0.0178245
0.13363
-0.0150543
0.135596
-0.0124404
0.137447
-0.0100385
0.139181
-0.00785561
0.140807
-0.00585759
0.142333
-0.00399612
0.143777
-0.00224474
0.145102
-0.000580513
0.146389
0.000959577
0.147616
0.00247771
0.148787
0.00394364
0.149907
0.00536455
0.150984
0.00675043
0.152024
0.00811491
0.153034
0.00947275
0.15402
0.0108387
0.154987
0.0122271
0.155939
0.0136525
0.156881
0.0151288
0.157816
0.0166703
0.158747
0.0182916
0.159678
0.0200077
0.16061
0.0218347
0.161546
0.0237894
0.162487
0.0258904
0.163436
0.0281576
0.164392
0.030613
0.165358
0.0332807
0.166333
0.0361872
0.167318
0.0393617
0.168313
0.0428379
0.169316
0.046648
0.170327
0.050845
0.171345
0.0554315
0.172363
0.0605845
0.173387
0.0659896
0.174396
0.072685
0.175415
0.0783621
0.176389
0.0882466
0.177378
0.0925509
0.178289
0.107619
0.179208
0.110727
0.129391
0.192539
-0.024723
-0.197251
0.188753
-0.0276041
0.185007
-0.0297432
0.181131
-0.0316535
0.177219
-0.0332082
0.173422
-0.0342421
0.169846
-0.0347099
0.166559
-0.0346272
0.163611
-0.0340286
0.161038
-0.0329608
0.158865
-0.0314788
0.157092
-0.0296471
0.155702
-0.0275408
0.154664
-0.0252334
0.15394
-0.0227802
0.153494
-0.0202226
0.153286
-0.0176165
0.153274
-0.0150418
0.153413
-0.0125803
0.153662
-0.0102876
0.153983
-0.00817618
0.154346
-0.00622043
0.15473
-0.00438028
0.155122
-0.00263623
0.155533
-0.000992166
0.155904
0.000588455
0.156269
0.00211262
0.156623
0.00359047
0.156963
0.00502454
0.157288
0.00642547
0.157596
0.00780625
0.157888
0.00918069
0.158164
0.010563
0.158424
0.0119671
0.158669
0.0134073
0.158901
0.0148974
0.159119
0.0164516
0.159327
0.0180843
0.159523
0.0198108
0.159711
0.0216469
0.159891
0.0236097
0.160064
0.0257176
0.160231
0.0279906
0.160393
0.0304509
0.160551
0.0331224
0.160707
0.0360318
0.16086
0.0392084
0.161012
0.0426857
0.161164
0.0464963
0.161316
0.0506929
0.161469
0.0552788
0.161623
0.06043
0.161777
0.0658352
0.161936
0.0725261
0.162093
0.0782057
0.162251
0.0880882
0.162417
0.0923848
0.162557
0.107479
0.162732
0.110552
0.129265
0.201919
-0.0211762
-0.205466
0.198323
-0.0240075
0.194788
-0.0262082
0.191164
-0.0280295
0.187497
-0.0295415
0.183912
-0.030657
0.180502
-0.0313001
0.177328
-0.0314533
0.174438
-0.0311379
0.171867
-0.0303904
0.169642
-0.0292532
0.16777
-0.0277757
0.166246
-0.0260165
0.165049
-0.0240361
0.164152
-0.021884
0.16353
-0.0196003
0.163152
-0.0172386
0.162985
-0.0148742
0.162989
-0.0125847
0.163125
-0.0104233
0.163354
-0.00840511
0.163645
-0.00651187
0.163979
-0.00471443
0.16434
-0.0029968
0.164702
-0.00135395
0.165064
0.000226627
0.165421
0.00175526
0.165772
0.00323974
0.166112
0.004684
0.16644
0.00609772
0.166753
0.00749283
0.167052
0.00888234
0.167335
0.0102798
0.167603
0.0116987
0.167858
0.013153
0.168099
0.0146563
0.168328
0.0162227
0.168546
0.0178665
0.168753
0.019603
0.168952
0.021448
0.169144
0.0234185
0.169328
0.025533
0.169507
0.0278116
0.169682
0.0302764
0.169853
0.0329514
0.170021
0.0358634
0.170188
0.0390415
0.170354
0.0425196
0.17052
0.0463302
0.170687
0.0505261
0.170855
0.0551108
0.171025
0.0602597
0.171196
0.0656641
0.171371
0.0723511
0.171546
0.0780309
0.17172
0.0879144
0.171905
0.0921993
0.172061
0.107323
0.172253
0.11036
0.129122