/*--------------------------------*- C++ -*----------------------------------*\
| =========                 |                                                 |
| \\      /  F ield         | OpenFOAM: The Open Source CFD Toolbox           |
|  \\    /   O peration     | Version:  2512                                  |
|   \\  /    A nd           | Website:  www.openfoam.com                      |
|    \\/     M anipulation  |                                                 |
\*---------------------------------------------------------------------------*/
FoamFile
{
    version     2.0;
    format      ascii;
    arch        "LSB;label=32;scalar=64";
    class       surfaceScalarField;
    location    "32";
    object      phi;
}
// * * * * * * * * * * * * * * * * * * * * * * * * * * * * * * * * * * * * * //

dimensions      [0 3 -1 0 0 0 0];

oriented        oriented;

internalField   nonuniform List<scalar> 
26232
(
2.78309e-05
0.000964437
-0.000992268
0.000279653
0.00193139
-0.00218321
0.000903142
0.0020857
-0.00270919
0.00203708
0.00148043
-0.00261437
0.00381938
0.000146299
-0.00192859
0.00638925
-0.00190133
-0.000668543
0.00988386
-0.00465474
0.00116012
0.0144312
-0.00810624
0.00355887
0.0201386
-0.0122381
0.00653072
0.0270793
-0.0170143
0.0100736
0.0352788
-0.0223745
0.0141749
0.0447051
-0.0282328
0.0188065
0.0552622
-0.0344794
0.0239223
0.0667916
-0.0409868
0.0294573
0.0790797
-0.0476183
0.0353302
0.0918703
-0.0542371
0.0414465
0.104883
-0.0607164
0.0477039
0.117832
-0.0669485
0.0539994
0.130448
-0.0728472
0.0602313
0.142498
-0.0783698
0.0663199
0.153788
-0.0834645
0.0721741
0.164193
-0.0882246
0.0778195
0.173594
-0.0924603
0.0830593
-0.0967277
0.088747
0.181575
6.95536e-05
0.000894883
0.000472913
0.00152803
0.0013856
0.00117301
0.00297358
-0.000107547
0.00539943
-0.00227955
0.00881851
-0.00532042
0.0133696
-0.00920582
0.0191592
-0.0138959
0.0262443
-0.0193232
0.034616
-0.0253859
0.0441891
-0.0319476
0.0548008
-0.0388445
0.0662184
-0.045897
0.0781566
-0.052925
0.0903014
-0.059763
0.102337
-0.0662727
0.113973
-0.0723529
0.12497
-0.0779452
0.135157
-0.0830341
0.144435
-0.0876478
0.152803
-0.0918327
0.160294
-0.095715
0.167069
-0.0992358
-0.102921
0.173262
0.000129702
0.000765181
0.000734286
0.000923442
0.00201488
-0.000107584
0.00416063
-0.0022533
0.00734835
-0.00546728
0.0117305
-0.00970254
0.0174153
-0.0148907
0.0244446
-0.0209252
0.0327745
-0.0276531
0.0422658
-0.0348773
0.0526887
-0.0423705
0.0637404
-0.0498961
0.0750752
-0.0572318
0.0863406
-0.0641904
0.0972131
-0.0706356
0.107431
-0.0764904
0.116815
-0.0817374
0.125283
-0.0864131
0.132845
-0.0905955
0.139587
-0.0943908
0.145663
-0.0979082
0.151228
-0.10128
0.156502
-0.10451
-0.107982
0.161564
0.00020951
0.000555671
0.00106627
6.66823e-05
0.00279061
-0.00183192
0.00558352
-0.00504621
0.00961566
-0.00949941
0.0150032
-0.0150901
0.0217792
-0.0216667
0.0298706
-0.0290166
0.0390892
-0.0368717
0.0491435
-0.0449315
0.0596689
-0.0528959
0.0702728
-0.0605
0.0805824
-0.0675414
0.0902883
-0.0738964
0.0991766
-0.0795239
0.107143
-0.0844567
0.114191
-0.0887852
0.120413
-0.0926351
0.125962
-0.0961449
0.131018
-0.0994467
0.135759
-0.102649
0.140325
-0.105847
0.144859
-0.109044
-0.112485
0.149363
0.00030877
0.000246901
0.00146472
-0.00108927
0.0036954
-0.0040626
0.0071936
-0.0085444
0.0120914
-0.0143972
0.0184244
-0.0214231
0.0261017
-0.029344
0.034896
-0.0378109
0.0444622
-0.0464379
0.0543823
-0.0548515
0.0642254
-0.0627391
0.073609
-0.0698837
0.0822471
-0.0761794
0.0899769
-0.0816262
0.0967619
-0.0863089
0.102673
-0.0903682
0.107857
-0.0939684
0.112492
-0.0972704
0.116759
-0.100412
0.120811
-0.103499
0.124766
-0.106604
0.128695
-0.109776
0.132662
-0.113011
-0.116464
0.136641
0.000426125
-0.000179224
0.00191958
-0.00258273
0.00469599
-0.00683901
0.00890997
-0.0127584
0.0146129
-0.0201002
0.0217125
-0.0285226
0.029957
-0.0375885
0.0389582
-0.0468121
0.0482504
-0.0557301
0.0573677
-0.0639688
0.0659182
-0.0712896
0.0736361
-0.0776015
0.0804012
-0.0829446
0.086229
-0.0874539
0.0912361
-0.091316
0.0955962
-0.0947282
0.099496
-0.0978682
0.103103
-0.100878
0.10655
-0.103859
0.109928
-0.106877
0.113295
-0.109971
0.116682
-0.113163
0.120121
-0.11645
-0.119917
0.123574
0.000558855
-0.000738079
0.00241425
-0.00443812
0.00574264
-0.0101674
0.010622
-0.0176377
0.0169777
-0.0264558
0.0245533
-0.0360982
0.0329309
-0.0459661
0.0416014
-0.0554826
0.0500605
-0.0641892
0.0578983
-0.0718065
0.0648558
-0.0782471
0.0708395
-0.0835853
0.0758982
-0.0880033
0.0801761
-0.0917317
0.0838601
-0.0950001
0.0871361
-0.0980042
0.0901602
-0.100892
0.0930483
-0.103766
0.0958777
-0.106688
0.098696
-0.109695
0.10153
-0.112805
0.104394
-0.116026
0.107301
-0.119357
-0.122836
0.11022
0.000702481
-0.00144056
0.00292478
-0.00666042
0.00676997
-0.0140126
0.0121971
-0.0230649
0.0189687
-0.0332274
0.0266555
-0.0437851
0.0347106
-0.0540212
0.0425837
-0.0633557
0.0498304
-0.0714359
0.0561789
-0.078155
0.061542
-0.0836102
0.0659838
-0.0880272
0.0696634
-0.0916828
0.0727749
-0.0948432
0.0755026
-0.0977278
0.0779957
-0.100497
0.0803608
-0.103258
0.0826673
-0.106072
0.0849565
-0.108977
0.0872517
-0.11199
0.089565
-0.115118
0.0919014
-0.118363
0.0942666
-0.121722
-0.125206
0.0966361
0.00085021
-0.00229077
0.00342013
-0.00923034
0.00770144
-0.0182939
0.0134969
-0.0288604
0.0203908
-0.0401212
0.0278094
-0.0512037
0.0351494
-0.0613612
0.0419112
-0.0701175
0.0477846
-0.0773093
0.0526652
-0.0830357
0.056616
-0.087561
0.0598011
-0.0912123
0.0624196
-0.0943013
0.064657
-0.0970806
0.0666606
-0.0997314
0.0685335
-0.10237
0.0703407
-0.105065
0.0721203
-0.107852
0.0738933
-0.11075
0.0756706
-0.113767
0.0774575
-0.116905
0.0792562
-0.120161
0.0810673
-0.123533
-0.127013
0.0828751
0.000993038
-0.00328381
0.00386437
-0.0121017
0.00845828
-0.0228878
0.0143986
-0.0348007
0.0211062
-0.0468289
0.0279241
-0.0580215
0.0342768
-0.0677139
0.0397863
-0.0756271
0.044304
-0.0818269
0.0478725
-0.0866041
0.0506518
-0.0903403
0.0528445
-0.093405
0.0546408
-0.0960976
0.0561909
-0.0986308
0.0575989
-0.101139
0.0589295
-0.103701
0.0602196
-0.106355
0.0614893
-0.109122
0.0627491
-0.11201
0.0640045
-0.115023
0.065258
-0.118159
0.0665099
-0.121413
0.0677586
-0.124782
-0.12825
0.0689952
0.00112101
-0.00440481
0.00422199
-0.0152027
0.00897223
-0.0276381
0.0148162
-0.0406447
0.0210565
-0.0530692
0.0270286
-0.0639936
0.0322556
-0.0729409
0.0365122
-0.0798836
0.0397967
-0.0851114
0.0422525
-0.08906
0.0440824
-0.0921702
0.0454838
-0.0948064
0.0466148
-0.0972286
0.0475849
-0.0996009
0.0484618
-0.102016
0.0492837
-0.104522
0.0500709
-0.107142
0.0508339
-0.109885
0.0515786
-0.112755
0.0523079
-0.115752
0.0530229
-0.118874
0.0537231
-0.122114
0.0544051
-0.125464
-0.128909
0.0550642
0.00122705
-0.00563186
0.00446593
-0.0184415
0.00919751
-0.0323696
0.0147132
-0.0461603
0.0202624
-0.0586185
0.0252444
-0.0689755
0.0293199
-0.0770165
0.032411
-0.0829747
0.0346245
-0.087325
0.0361557
-0.0905912
0.0372099
-0.0932243
0.0379568
-0.0955533
0.0385163
-0.0977881
0.0389629
-0.100047
0.0393383
-0.102392
0.0396643
-0.104848
0.0399519
-0.10743
0.040207
-0.11014
0.0404333
-0.112981
0.0406327
-0.115952
0.040806
-0.119047
0.0409524
-0.12226
0.0410686
-0.12558
0.0411538
-0.128994
-0.000206177
0.000244203
-3.80265e-05
-0.000720085
0.000659614
-0.000145705
-0.0014763
0.0010324
-0.000276187
-0.00242493
0.00136746
-0.000418825
-0.00352711
0.00166789
-0.000565701
-0.00475286
0.00193829
-0.000712541
-0.00607932
0.00218484
-0.000858381
-0.00748925
0.00241472
-0.00100479
-0.00896962
0.00263531
-0.00115494
-0.0105104
0.00285346
-0.00131264
-0.0121037
0.00307489
-0.00148162
-0.0137425
0.00330372
-0.00166494
-0.0154205
0.00354248
-0.00186445
-0.0171313
0.00379216
-0.00208138
-0.0188681
0.00405247
-0.00231564
-0.0206242
0.00432212
-0.00256606
-0.022393
0.00459926
-0.00283043
-0.0241695
0.00488193
-0.00310544
-0.0259516
0.0051687
-0.00338664
-0.0277424
0.00545935
-0.00366854
-0.0295528
0.00575519
-0.00394476
-0.0314041
0.00605924
-0.00420793
-0.0333355
0.00638042
-0.00444907
0.00673693
-0.035413
-0.00465939
-0.000189328
0.000433532
-0.000663626
0.00113391
-0.00136283
0.0017316
-0.00223994
0.00224457
-0.00325755
0.00268549
-0.004386
0.00306674
-0.00560195
0.0034008
-0.00688699
0.00369975
-0.00822638
0.0039747
-0.00960807
0.00423515
-0.0110217
0.00448851
-0.0124578
0.00473986
-0.0139073
0.00499196
-0.0153607
0.00524554
-0.0168079
0.00549967
-0.018238
0.00575228
-0.0196396
0.00600083
-0.0210009
0.00624318
-0.0223109
0.00647876
-0.0235618
0.00671025
-0.0247516
0.00694497
-0.0258878
0.00719545
-0.0269942
0.00748683
0.00788433
-0.0281416
-0.000163184
0.000596716
-0.000575461
0.00154619
-0.00118456
0.0023407
-0.00194755
0.00300756
-0.0028288
0.00356674
-0.00379886
0.0040368
-0.00483334
0.00443528
-0.0059118
0.00477821
-0.00701679
0.00507969
-0.00813293
0.00535129
-0.0092461
0.00560169
-0.0103428
0.00583657
-0.0114095
0.00605866
-0.0124321
0.00626809
-0.0133952
0.00646279
-0.014282
0.00663909
-0.0150735
0.00679238
-0.0157484
0.00691807
-0.0162827
0.00701306
-0.0166506
0.00707809
-0.0168272
0.00712161
-0.0167956
0.0071638
-0.0165495
0.00724074
0.00742092
-0.0160861
-0.000131392
0.000728107
-0.000466834
0.00188163
-0.000962553
0.00283642
-0.00157982
0.00362482
-0.0022847
0.00427162
-0.00304757
0.00479968
-0.00384247
0.00523018
-0.00464625
0.00558199
-0.00543783
0.00587127
-0.00619745
0.00611091
-0.00690608
0.00631032
-0.00754479
0.00647528
-0.00809428
0.00660815
-0.00853431
0.00670812
-0.00884317
0.00677166
-0.0089971
0.00679302
-0.00896945
0.00676472
-0.00872968
0.00667831
-0.00824215
0.00652552
-0.00746446
0.00630041
-0.00634643
0.00600358
-0.00483263
0.00565
-0.00288221
0.00529033
0.00509927
-0.000560558
-9.8198e-05
0.000826305
-0.000350993
0.00213443
-0.000721807
0.00320723
-0.00117517
0.00407818
-0.0016781
0.00477454
-0.00220018
0.00532177
-0.00271323
0.00574323
-0.00319072
0.00605948
-0.0036071
0.00628765
-0.00393728
0.00644109
-0.00415602
0.00652906
-0.00423752
0.00655678
-0.00415495
0.00652558
-0.00388007
0.00643323
-0.00338277
0.00627436
-0.0026306
0.00604085
-0.0015881
0.00572222
-0.000215892
0.0053061
0.00153081
0.00477881
0.0037048
0.00412642
0.0063702
0.00333817
0.00960339
0.00241681
0.0134978
0.0013959
0.000390821
0.0182063
-6.77672e-05
0.000894073
-0.000240963
0.00230762
-0.000487034
0.00345331
-0.000771735
0.00436289
-0.00106162
0.00506442
-0.00132443
0.00558458
-0.00152889
0.00594769
-0.00164413
0.00617472
-0.00163913
0.00628265
-0.00148213
0.00628409
-0.0011401
0.00618703
-0.000578284
0.00599497
0.000240141
0.00570716
0.00135445
0.00531892
0.00280666
0.00482216
0.00464174
0.00420577
0.00690786
0.0034561
0.0096567
0.00255726
0.0129438
0.00149172
0.0168295
0.000240744
0.0213822
-0.00121451
0.0266892
-0.00289019
0.0328244
-0.00473938
-0.00691291
0.0401282
-4.3381e-05
0.000937454
-0.000146968
0.00241121
-0.000277598
0.00358394
-0.000399286
0.00448457
-0.000476013
0.00514115
-0.000472029
0.0055806
-0.000351429
0.00582709
-7.74676e-05
0.00590076
0.000388135
0.00581705
0.00108595
0.00558627
0.00205935
0.00521363
0.00335503
0.00469929
0.00502331
0.00403888
0.0071183
0.00322393
0.00969826
0.0022422
0.0128249
0.00107916
0.016563
-0.000282013
0.0209802
-0.00186001
0.0261452
-0.00367325
0.0321266
-0.0057406
0.0389863
-0.0080743
0.046821
-0.0107249
0.0555824
-0.0135008
-0.0172019
0.0658714
-2.66891e-05
0.000964143
-7.39566e-05
0.00245848
-0.00010248
0.00361246
-7.08812e-05
0.00445298
6.22442e-05
0.00500803
0.000338733
0.00530411
0.000801698
0.00536412
0.00149654
0.00520592
0.00247198
0.00484161
0.00378086
0.00427739
0.00548076
0.00351372
0.00763434
0.00254572
0.0103093
0.00136391
0.0135772
-4.4007e-05
0.0175155
-0.00169606
0.0222019
-0.00360728
0.0277159
-0.00579597
0.0341343
-0.00827842
0.0415291
-0.0110681
0.0499662
-0.0141776
0.059481
-0.0175891
0.0701724
-0.0214163
0.0818232
-0.0251516
-0.0305514
0.0951727
-1.71502e-05
0.000981293
-1.96443e-05
0.00246097
4.36098e-05
0.00354921
0.000223597
0.00427299
0.000571029
0.00466059
0.00113751
0.00473762
0.0019773
0.00452433
0.00314883
0.00403439
0.00471584
0.00327459
0.00674813
0.0022451
0.00932162
0.000940236
0.0125178
-0.000650452
0.0164224
-0.00254071
0.0211242
-0.00474578
0.0267092
-0.00728111
0.0332614
-0.0101595
0.0408555
-0.01339
0.0495534
-0.0169764
0.0593992
-0.0209138
0.0704182
-0.0251966
0.0825902
-0.0297611
0.0959484
-0.0347745
0.110204
-0.0394076
-0.0462237
0.125877
-1.18729e-05
0.000993166
2.58462e-05
0.00242325
0.000181526
0.00339353
0.000520412
0.0039341
0.00110692
0.00407408
0.00200745
0.0038371
0.00329269
0.00323909
0.00503934
0.00228774
0.00733095
0.000982986
0.0102574
-0.000681329
0.0139134
-0.00271577
0.0183956
-0.00513271
0.0237987
-0.00794379
0.0302101
-0.0111571
0.037704
-0.014775
0.0463362
-0.0187917
0.0561381
-0.0231919
0.0671122
-0.0279505
0.079229
-0.0330306
0.0924242
-0.0383918
0.106601
-0.0439375
0.121626
-0.0498002
0.137325
-0.0551066
-0.062468
0.15357
-6.01404e-06
0.00099918
7.93039e-05
0.00233793
0.000345927
0.0031269
0.00087792
0.00340211
0.00175871
0.00319329
0.0030749
0.00252091
0.00491871
0.00139527
0.0073886
-0.000182143
0.010589
-0.00221744
0.0146261
-0.00471835
0.019603
-0.00769276
0.0256137
-0.0111434
0.0327344
-0.0150644
0.0410159
-0.0194386
0.0504765
-0.0242357
0.0610966
-0.0294118
0.0728151
-0.0349104
0.0855294
-0.0406648
0.0990988
-0.0466
0.113349
-0.0526416
0.1281
-0.0586893
0.143082
-0.0647822
0.158313
-0.0703373
-0.0770744
0.172919
6.91197e-06
0.000161637
0.000579354
0.00136709
0.00263179
0.00448416
0.00703956
0.0104163
0.0147296
0.0200848
0.026567
0.0342301
0.043088
0.0531067
0.0642012
0.0762359
0.0890294
0.102364
0.115995
0.129673
0.143158
0.156196
0.168918
0.18059
-0.0367183
0.00785071
-0.00654539
-0.0380601
0.00803744
-0.00669565
-0.0394276
0.00804068
-0.0066732
-0.0408266
0.00782631
-0.00642732
-0.0422593
0.00734146
-0.00590876
-0.0437239
0.00652795
-0.00506335
-0.0452146
0.00532865
-0.00383796
-0.0467264
0.00369047
-0.00217865
-0.0482299
0.00156113
-5.76036e-05
-0.0496868
-0.00103452
0.00249143
-0.0510886
-0.00414115
0.00554295
-0.0523874
-0.0077353
0.00903405
-0.0535312
-0.0117452
0.0128891
-0.0544565
-0.0160577
0.0169829
-0.0550841
-0.0205061
0.0211337
-0.0553174
-0.024864
0.0250973
-0.0550361
-0.0288483
0.028567
-0.0540913
-0.0321254
0.0311806
-0.0523162
-0.0343215
0.0325464
-0.0495355
-0.0350559
0.0322751
-0.0455793
-0.0339949
0.0300387
-0.0402892
-0.0309195
0.0256295
-0.0335931
-0.0258216
0.0191254
-0.0254949
-0.0188347
0.0107366
-0.0161287
-0.0104583
0.00109214
-0.00578847
-0.00139136
-0.00894887
0.00525382
0.00755306
-0.0185954
0.0165962
0.0154464
-0.0267888
0.0279301
0.0213496
-0.0326835
0.03901
0.0248173
-0.0358972
0.0497252
0.0255809
-0.0362961
0.0600669
0.0238506
-0.0341923
0.070038
0.0199859
-0.029957
0.0796466
0.0146632
-0.0242718
0.0888317
0.00843943
-0.0176245
0.0974932
0.00217097
-0.0108325
0.1055
-0.0037772
-0.0042296
0.112757
-0.0086666
0.00140978
0.119211
-0.0125662
0.0061122
0.124891
-0.0149116
0.00923124
0.129876
-0.0161939
0.0112094
0.13429
-0.0158724
0.0114582
0.138271
-0.0147586
0.0107777
0.141938
-0.0121784
0.00851088
0.145381
-0.00927689
0.00583389
0.148635
-0.00520389
0.00195021
0.151696
-0.00149831
-0.00156245
0.154531
0.00297882
-0.00581433
0.157115
0.00629273
-0.0088764
0.15942
0.0100711
-0.0123764
0.161461
0.0121007
-0.0141411
0.163228
0.014716
-0.016483
0.164779
0.0153644
-0.0169158
0.166107
0.017005
-0.0183332
0.167344
0.0166626
-0.0178994
0.16843
0.0178976
-0.0189841
0.16956
0.0173531
-0.018483
0.17049
0.0188523
-0.0197824
0.171492
0.0187725
-0.0197744
0.0207491
-0.0213769
-0.0290835
0.00879253
-0.0300569
0.00901084
-0.0310556
0.00903944
-0.0320787
0.00884942
-0.03313
0.00839277
-0.034211
0.00760886
-0.0353207
0.0064384
-0.0364558
0.00482554
-0.0376191
0.00272448
-0.038752
9.83557e-05
-0.0398788
-0.00301434
-0.040963
-0.00665115
-0.0419745
-0.0107337
-0.042873
-0.0151592
-0.043605
-0.0197741
-0.0441051
-0.0243639
-0.0442857
-0.0286677
-0.0440263
-0.0323848
-0.0431758
-0.035172
-0.0415591
-0.0366725
-0.0389788
-0.0365752
-0.0352229
-0.0346755
-0.0301301
-0.0309144
-0.0236062
-0.0253586
-0.0156783
-0.0183863
-0.00652676
-0.0105429
0.00378011
-0.00275381
0.0147754
0.00445114
0.0262184
0.00990651
0.0378359
0.0131999
0.0494391
0.0139777
0.0608967
0.012393
0.0720291
0.00885349
0.0827101
0.00398226
0.0927472
-0.0015977
0.10198
-0.00706144
0.110259
-0.0120566
0.117506
-0.0159141
0.123714
-0.0187741
0.128958
-0.0201551
0.133365
-0.0206009
0.137107
-0.0196143
0.140366
-0.0180179
0.143312
-0.0151238
0.146078
-0.0120431
0.148743
-0.00786882
0.151334
-0.00408984
0.153828
0.000484731
0.1562
0.0039214
0.158404
0.00786654
0.160432
0.0100726
0.162248
0.0129001
0.163887
0.013726
0.165318
0.0155731
0.166668
0.0153131
0.167864
0.0167016
0.169108
0.0161088
0.17014
0.0178204
0.17125
0.0176633
0.0200376
-0.0165618
0.0092683
-0.0169532
0.00940219
-0.0174357
0.00952195
-0.0179145
0.00932823
-0.0184168
0.0088951
-0.0189434
0.00813543
-0.0194964
0.00699142
-0.0200748
0.00540391
-0.0206787
0.00332837
-0.0213053
0.000725007
-0.0219295
-0.00239022
-0.0225533
-0.00602734
-0.0231587
-0.0101283
-0.0237209
-0.0145969
-0.0242025
-0.0192926
-0.0245675
-0.0239989
-0.024765
-0.0284702
-0.0247131
-0.0324366
-0.0242951
-0.0355901
-0.0233695
-0.0375981
-0.0217501
-0.0381945
-0.0192021
-0.0372236
-0.0155171
-0.0345993
-0.0105145
-0.0303612
-0.00411066
-0.0247901
0.00375931
-0.0184129
0.012843
-0.0118375
0.0230534
-0.00575927
0.0341136
-0.00115369
0.0456349
0.00167862
0.0573907
0.00222198
0.0691508
0.000632806
0.0805532
-0.00254884
0.0913897
-0.00685427
0.101424
-0.0116325
0.110446
-0.0160829
0.11833
-0.0199406
0.125036
-0.0226205
0.130602
-0.02434
0.135136
-0.0246891
0.13879
-0.0242544
0.141749
-0.0225735
0.144209
-0.0204776
0.146357
-0.0172725
0.148355
-0.014041
0.150315
-0.00982807
0.152296
-0.0060716
0.154294
-0.00151314
0.156294
0.00192114
0.158246
0.00591476
0.160124
0.00819474
0.161869
0.0111553
0.163493
0.0121022
0.164944
0.0141217
0.166334
0.0139228
0.16758
0.0154559
0.168883
0.0148056
0.169976
0.0167276
0.171154
0.0164855
0.0192576
-8.47515e-06
0.00871622
5.10138e-06
0.00938861
0.000123628
0.00940342
0.000227184
0.00922468
0.000329819
0.00879247
0.000408472
0.00805678
0.000463994
0.0069359
0.000494695
0.00537321
0.000498875
0.00332419
0.000468066
0.000755817
0.00042007
-0.00234223
0.000351858
-0.00595912
0.000265681
-0.0100421
0.000164349
-0.0144956
4.73724e-05
-0.0191756
-3.53127e-05
-0.0239162
-2.06885e-05
-0.0284848
0.000134983
-0.0325923
0.000500818
-0.0359559
0.00122992
-0.0383273
0.00248084
-0.0394454
0.0044182
-0.0391609
0.00724041
-0.0374215
0.0111594
-0.0342802
0.0163257
-0.0299565
0.0228022
-0.0248893
0.0305862
-0.0196215
0.0396128
-0.0147859
0.0495899
-0.0111308
0.0603229
-0.00905441
0.0714236
-0.00887872
0.0825061
-0.0104497
0.0933099
-0.0133527
0.10345
-0.0169946
0.112681
-0.0208631
0.120822
-0.0242239
0.127788
-0.0269065
0.133582
-0.0284147
0.138274
-0.0290323
0.141989
-0.0284038
0.144876
-0.0271411
0.147106
-0.024804
0.148857
-0.0222289
0.150306
-0.018721
0.151613
-0.0153477
0.152905
-0.011121
0.15427
-0.00743571
0.155733
-0.00297615
0.157285
0.000369075
0.158891
0.00430859
0.160518
0.0065673
0.162095
0.00957887
0.163614
0.0105831
0.165006
0.0127299
0.166365
0.0125632
0.1676
0.0142212
0.168904
0.0135013
0.170014
0.0156172
0.171218
0.0152817
0.0184273
0.0187921
0.00813038
0.0193722
0.00880853
0.019887
0.00888857
0.0204505
0.00866121
0.0210197
0.00822325
0.0215759
0.00750064
0.0221147
0.00639701
0.0226367
0.00485123
0.0231403
0.00282064
0.0236125
0.000283593
0.024071
-0.0028007
0.0245044
-0.00639257
0.0249214
-0.010459
0.025333
-0.0149072
0.0257573
-0.0196
0.0262017
-0.0243606
0.0266785
-0.0289616
0.0272263
-0.0331401
0.0279058
-0.0366354
0.0287889
-0.0392104
0.0299893
-0.0406458
0.0316508
-0.0408223
0.0339326
-0.0397034
0.0370326
-0.0373802
0.041152
-0.0340759
0.0464284
-0.0301657
0.0529259
-0.026119
0.0605952
-0.0224552
0.0692476
-0.0197832
0.0786293
-0.0184361
0.0884009
-0.0186503
0.0981741
-0.0202228
0.107622
-0.0228006
0.116402
-0.0257744
0.124276
-0.0287375
0.131109
-0.0310568
0.13686
-0.032657
0.141566
-0.0331208
0.145316
-0.0327823
0.148233
-0.031321
0.150448
-0.0293567
0.152102
-0.0264578
0.153334
-0.0234605
0.154285
-0.019672
0.155093
-0.0161563
0.155882
-0.0119097
0.156748
-0.00830116
0.15774
-0.00396897
0.158869
-0.000759965
0.160115
0.00306263
0.161453
0.00522941
0.162809
0.00822341
0.164166
0.0092262
0.165442
0.0114533
0.166717
0.0112881
0.167894
0.0130451
0.169152
0.0122432
0.170244
0.0145251
0.171437
0.0140883
0.0175623
0.0407424
0.00751613
0.0413901
0.00816084
0.0420856
0.00819311
0.0428664
0.00788034
0.043691
0.00739865
0.0445309
0.00666078
0.0453783
0.00554964
0.0462255
0.00400401
0.0470613
0.00198487
0.0478993
-0.0005544
0.0487024
-0.00360387
0.0494825
-0.00717264
0.0502373
-0.0112139
0.0509692
-0.015639
0.0516848
-0.0203156
0.0523934
-0.0250692
0.0531128
-0.029681
0.0538751
-0.0339024
0.0547235
-0.0374839
0.0557137
-0.0402005
0.0569288
-0.041861
0.058465
-0.0423585
0.0604522
-0.0416906
0.0630589
-0.0399869
0.0664613
-0.0374783
0.0707872
-0.0344916
0.0761083
-0.03144
0.0824101
-0.028757
0.0895547
-0.0269278
0.0973231
-0.0262045
0.105408
-0.0267353
0.113462
-0.0282765
0.12117
-0.0305088
0.12825
-0.0328548
0.134514
-0.0350012
0.139875
-0.0364182
0.144333
-0.0371148
0.147948
-0.0367352
0.150811
-0.0356455
0.153033
-0.0335431
0.154719
-0.0310431
0.155973
-0.027711
0.15689
-0.0243777
0.157568
-0.0203503
0.158109
-0.0166974
0.158611
-0.0124119
0.159167
-0.00885719
0.159833
-0.00463502
0.160649
-0.00157514
0.161592
0.0021189
0.162667
0.00415461
0.163804
0.00708697
0.164985
0.00804474
0.166126
0.0103119
0.167292
0.0101222
0.168386
0.0119511
0.169571
0.0110583
0.170625
0.013471
0.171786
0.0129281
0.01667
0.0659936
0.00739392
0.0662833
0.00787112
0.0667464
0.00773005
0.0673704
0.00725633
0.0680914
0.00667761
0.0688871
0.00586508
0.0697431
0.00469364
0.070634
0.00311311
0.0715393
0.00107955
0.0724512
-0.00146623
0.0733462
-0.00449893
0.0742106
-0.00803695
0.0750375
-0.0120408
0.0758247
-0.0164263
0.0765757
-0.0210666
0.0773002
-0.0257936
0.0780156
-0.0303964
0.0787499
-0.0346366
0.079541
-0.038275
0.0804384
-0.0410979
0.0815109
-0.0429335
0.082841
-0.0436887
0.0845353
-0.0433849
0.0867148
-0.0421664
0.0895034
-0.0402669
0.0929983
-0.0379866
0.0972554
-0.0356971
0.102262
-0.0337639
0.10791
-0.0325752
0.114014
-0.0323084
0.120317
-0.0330389
0.126536
-0.0344954
0.132414
-0.0363871
0.137745
-0.0381853
0.142401
-0.0396577
0.146347
-0.0403634
0.149607
-0.0403751
0.152251
-0.0393797
0.154364
-0.0377576
0.156033
-0.0352125
0.157338
-0.0323481
0.158347
-0.0287197
0.159119
-0.0251504
0.159712
-0.0209429
0.160187
-0.0171722
0.160609
-0.0128346
0.161055
-0.00930247
0.161574
-0.00515397
0.162217
-0.00221857
0.162972
0.00136394
0.163862
0.00326459
0.16483
0.00611865
0.165867
0.00700809
0.166891
0.00928763
0.167957
0.00905683
0.168974
0.0109343
0.170084
0.0099478
0.171101
0.0124541
0.172224
0.0118047
0.015746
0.094415
0.00815161
0.0939466
0.00833952
0.093761
0.00791564
0.0937919
0.00722545
0.0939886
0.00648088
0.0943421
0.00551158
0.0948218
0.00421395
0.0953857
0.00254924
0.0960062
0.00045907
0.0966575
-0.00211752
0.097316
-0.00515743
0.0979529
-0.00867391
0.0985518
-0.0126397
0.0991012
-0.0169757
0.0995983
-0.0215637
0.10005
-0.0262456
0.100474
-0.03082
0.100897
-0.0350593
0.101357
-0.0387357
0.101907
-0.0416472
0.102611
-0.0436381
0.103551
-0.044629
0.104814
-0.0446479
0.106486
-0.0438379
0.108646
-0.0424271
0.111352
-0.0406921
0.114626
-0.0389717
0.118442
-0.0375794
0.1227
-0.0368332
0.127244
-0.0368526
0.131871
-0.0376661
0.136369
-0.0389927
0.140555
-0.0405732
0.144301
-0.0419311
0.147541
-0.0428981
0.150276
-0.0430982
0.152547
-0.0426459
0.154418
-0.0412514
0.155957
-0.0392964
0.157229
-0.0364843
0.158288
-0.033407
0.159175
-0.0296068
0.159923
-0.0258988
0.160558
-0.0215772
0.161108
-0.0177225
0.161607
-0.0133339
0.162106
-0.00980115
0.162641
-0.00568953
0.163261
-0.00283808
0.163958
0.000666805
0.164769
0.00245318
0.165653
0.00523518
0.166609
0.00605237
0.167566
0.00833061
0.168569
0.00805357
0.169541
0.00996263
0.170601
0.00888709
0.171603
0.0114521
0.172707
0.0107014
0.0147731
0.124121
0.00990678
0.122745
0.00971577
0.121666
0.00899532
0.120803
0.00808789
0.120171
0.00711323
0.119768
0.00591475
0.119537
0.00444413
0.11944
0.00264664
0.119457
0.000441894
0.119527
-0.00218742
0.119625
-0.00525576
0.119721
-0.00876995
0.11979
-0.0127084
0.11981
-0.0169957
0.119771
-0.021525
0.119677
-0.0261516
0.119544
-0.0306862
0.119399
-0.0349147
0.119287
-0.0386237
0.119263
-0.0416237
0.119398
-0.0437731
0.119771
-0.0450013
0.120461
-0.0453377
0.121532
-0.0449095
0.12303
-0.0439253
0.124973
-0.0426351
0.12735
-0.0413485
0.13011
-0.0403394
0.133155
-0.0398782
0.136351
-0.0400479
0.139542
-0.0408576
0.142584
-0.0420346
0.145367
-0.0433566
0.14783
-0.044394
0.149956
-0.045024
0.151767
-0.0449087
0.153306
-0.0441858
0.15463
-0.0425748
0.155783
-0.0404496
0.156808
-0.0375091
0.157739
-0.0343381
0.158598
-0.0304655
0.1594
-0.0267017
0.160152
-0.0223288
0.160861
-0.0184312
0.161533
-0.0140063
0.162197
-0.0104647
0.162871
-0.00636411
0.163591
-0.00355816
0.164351
-9.30194e-05
0.165194
0.00161083
0.166088
0.00434121
0.167044
0.00509635
0.168003
0.00737134
0.169004
0.00705286
0.169982
0.00898371
0.171039
0.00783079
0.172066
0.010425
0.173184
0.009583
0.0137215
0.151111
0.012366
0.149036
0.0117904
0.147144
0.0108875
0.145415
0.00981662
0.143944
0.00858452
0.142708
0.0071501
0.141639
0.00551356
0.140714
0.00357148
0.139972
0.00118405
0.139328
-0.00154309
0.138691
-0.00461919
0.138054
-0.00813249
0.137392
-0.0120471
0.136682
-0.0162855
0.135911
-0.0207534
0.13508
-0.0253209
0.134207
-0.0298128
0.133324
-0.0340322
0.132483
-0.037783
0.131749
-0.0408894
0.131199
-0.0432227
0.130913
-0.0447155
0.13097
-0.0453944
0.131418
-0.0453581
0.132277
-0.0447843
0.133532
-0.0438903
0.135142
-0.0429584
0.137034
-0.0422314
0.139107
-0.0419509
0.141243
-0.0421836
0.143327
-0.0429422
0.14527
-0.0439777
0.14702
-0.0451067
0.148564
-0.0459375
0.149916
-0.0463761
0.151107
-0.0461
0.152177
-0.0452553
0.153166
-0.0435639
0.154107
-0.0413906
0.155019
-0.0384215
0.155923
-0.035242
0.156827
-0.0313689
0.157737
-0.027612
0.158648
-0.0232399
0.159556
-0.0193396
0.160452
-0.0149015
0.161343
-0.011356
0.162233
-0.00725447
0.163139
-0.0044636
0.164064
-0.00101806
0.165027
0.000647496
0.166022
0.00334604
0.167062
0.00405684
0.168099
0.0063338
0.169167
0.00598524
0.170217
0.00793391
0.171327
0.00672006
0.172432
0.00932044
0.173614
0.00840065
0.0125514
0.170473
0.0148122
0.168209
0.0140545
0.165947
0.01315
0.163798
0.0119657
0.161843
0.0105392
0.160056
0.00893704
0.15843
0.00713922
0.156935
0.00506668
0.155474
0.00264547
0.154119
-0.000188394
0.152762
-0.0032617
0.151388
-0.0067586
0.14998
-0.0106391
0.148507
-0.0148131
0.14696
-0.0192063
0.145344
-0.0237049
0.143683
-0.0281514
0.14202
-0.0323695
0.14042
-0.0361827
0.138959
-0.0394286
0.137724
-0.0419875
0.136798
-0.0437899
0.136262
-0.0448584
0.136155
-0.0452514
0.136476
-0.0451047
0.137184
-0.0445983
0.138214
-0.0439889
0.139477
-0.0434945
0.140868
-0.0433413
0.142279
-0.0435951
0.143626
-0.0442892
0.144856
-0.0452073
0.145955
-0.0462053
0.146937
-0.0469195
0.147834
-0.0472734
0.148679
-0.0469452
0.149505
-0.0460815
0.150339
-0.0443976
0.151205
-0.0422565
0.152111
-0.0393279
0.153067
-0.0361979
0.154072
-0.0323736
0.155128
-0.0286681
0.156224
-0.024336
0.157352
-0.0204675
0.158491
-0.0160406
0.15964
-0.0125045
0.160786
-0.0084014
0.161936
-0.00561288
0.163087
-0.00216907
0.164243
-0.000509099
0.165415
0.00217457
0.166612
0.00285958
0.1678
0.00514616
0.169004
0.00478113
0.170191
0.00674704
0.17142
0.00549047
0.172661
0.00807991
0.173964
0.00709746
0.0112168
0.178996
0.0164063
0.177139
0.0159115
0.175289
0.0150003
0.173427
0.0138268
0.171569
0.012398
0.169737
0.010769
0.167938
0.0089382
0.166141
0.006863
0.164345
0.00444136
0.162561
0.00159649
0.160779
-0.00147983
0.158885
-0.00486513
0.156891
-0.00864465
0.154794
-0.0127166
0.152606
-0.0170181
0.150347
-0.0214454
0.148056
-0.0258611
0.145795
-0.0301082
0.143639
-0.0340263
0.141671
-0.0374614
0.139978
-0.0402944
0.138631
-0.0424428
0.137674
-0.0439007
0.137128
-0.0447063
0.136997
-0.0449729
0.137254
-0.0448556
0.137836
-0.0445706
0.138644
-0.0443027
0.139573
-0.04427
0.140522
-0.0445446
0.141422
-0.0451894
0.142238
-0.0460227
0.142972
-0.0469403
0.143652
-0.0475994
0.144316
-0.0479372
0.144996
-0.0476252
0.145723
-0.0468081
0.146515
-0.0451897
0.14739
-0.0431313
0.148351
-0.0402889
0.149404
-0.0372515
0.150543
-0.0335121
0.151766
-0.0298912
0.153059
-0.0256292
0.154412
-0.0218208
0.1558
-0.0174286
0.157215
-0.0139188
0.158635
-0.00982174
0.160058
-0.00703561
0.161468
-0.00357907
0.162878
-0.0019197
0.164277
0.000775858
0.165692
0.00144422
0.167091
0.0037475
0.168495
0.00337743
0.169881
0.005361
0.171293
0.00407841
0.172728
0.00664486
0.174211
0.0056139
0.00966945
0.194833
0.017618
-0.196045
0.194088
0.0166567
0.193311
0.0157771
0.19255
0.0145873
0.191831
0.0131178
0.191158
0.0114421
0.190545
0.0095507
0.190005
0.00740258
0.189498
0.0049491
0.188886
0.00220864
0.188246
-0.000839816
0.18762
-0.00423993
0.186875
-0.00789958
0.185995
-0.011836
0.184944
-0.015967
0.183691
-0.0201926
0.182226
-0.0243959
0.180559
-0.0284419
0.178725
-0.0321922
0.176777
-0.0355131
0.174784
-0.0383019
0.172828
-0.040486
0.170983
-0.0420566
0.169321
-0.0430439
0.167895
-0.0435466
0.166731
-0.0436912
0.165827
-0.0436675
0.165153
-0.0436279
0.164645
-0.0437621
0.164222
-0.0441216
0.163801
-0.0447684
0.163313
-0.045535
0.16272
-0.0463469
0.162012
-0.0468912
0.161206
-0.047132
0.160338
-0.0467568
0.159448
-0.0459182
0.158579
-0.0443206
0.157772
-0.0423244
0.157061
-0.0395776
0.156469
-0.03666
0.156011
-0.033054
0.155694
-0.0295738
0.155515
-0.0254506
0.155468
-0.0217736
0.155534
-0.0174948
0.155697
-0.0140818
0.155933
-0.0100576
0.156223
-0.007325
0.15654
-0.003897
0.156873
-0.00225185
0.1572
0.000448512
0.157526
0.00111812
0.157825
0.00344842
0.158098
0.00310406
0.158328
0.00513128
0.15853
0.0038771
0.158717
0.00645704
0.158901
0.00543008
0.00944284
0.207953
0.0177664
-0.208101
0.207831
0.0167779
0.207798
0.0158102
0.207707
0.0146783
0.207529
0.0132957
0.207296
0.0116752
0.207021