/*--------------------------------*- C++ -*----------------------------------*\
| =========                 |                                                 |
| \\      /  F ield         | OpenFOAM: The Open Source CFD Toolbox           |
|  \\    /   O peration     | Version:  2512                                  |
|   \\  /    A nd           | Website:  www.openfoam.com                      |
|    \\/     M anipulation  |                                                 |
\*---------------------------------------------------------------------------*/
FoamFile
{
    version     2.0;
    format      ascii;
    arch        "LSB;label=32;scalar=64";
    class       surfaceScalarField;
    location    "116";
    object      phi;
}
// * * * * * * * * * * * * * * * * * * * * * * * * * * * * * * * * * * * * * //

dimensions      [0 3 -1 0 0 0 0];

oriented        oriented;

internalField   nonuniform List<scalar> 
26232
(
0.000192768
0.000887448
-0.00108022
0.00086884
0.00138361
-0.00205968
0.00214047
0.000725303
-0.00199693
0.00413093
-0.00103284
-0.000957631
0.0069749
-0.00384767
0.00100371
0.0108088
-0.00768172
0.0038478
0.0157536
-0.0124914
0.00754657
0.0218922
-0.0182106
0.0120721
0.0292455
-0.0247351
0.0173818
0.0377537
-0.0319125
0.0234042
0.0472675
-0.0395436
0.0300298
0.0575527
-0.0473934
0.0371082
0.0683101
-0.0552117
0.0444542
0.0792059
-0.0627568
0.051861
0.089908
-0.0698196
0.0591175
0.100123
-0.0762424
0.0660276
0.109626
-0.0819301
0.0724274
0.118279
-0.086853
0.0781995
0.126042
-0.0910396
0.0832771
0.132957
-0.0945695
0.0876539
0.139132
-0.0975318
0.0913566
0.144712
-0.100086
0.0945069
0.149684
-0.102155
0.0971828
-0.104235
0.0997971
0.154122
0.000221833
0.000665616
0.00104515
0.000560287
0.00262645
-0.000855998
0.00512057
-0.00352695
0.00867905
-0.00740615
0.0134329
-0.0124356
0.0194659
-0.0185244
0.0267858
-0.0255306
0.0353016
-0.0332508
0.044815
-0.0414259
0.0550323
-0.0497609
0.065594
-0.0579551
0.0761175
-0.0657352
0.0862447
-0.072884
0.095684
-0.0792588
0.104241
-0.0847993
0.111832
-0.0895213
0.118482
-0.0935027
0.124304
-0.0968624
0.129473
-0.0997378
0.134202
-0.102261
0.138686
-0.10457
0.143218
-0.106687
-0.108994
0.147977
0.000273044
0.000392572
0.00129452
-0.000461191
0.0032583
-0.00281977
0.00634144
-0.0066101
0.0106932
-0.0117579
0.0164058
-0.0181482
0.0234798
-0.0255984
0.0317968
-0.0338476
0.0411127
-0.0425666
0.0510759
-0.0513891
0.0612711
-0.0599561
0.071276
-0.06796
0.0807192
-0.0751784
0.0893264
-0.0814912
0.0969475
-0.0868799
0.10356
-0.0914115
0.109251
-0.0952122
0.114186
-0.0984383
0.118573
-0.101249
0.122623
-0.103788
0.126529
-0.106167
0.130442
-0.108484
0.134502
-0.110746
-0.113194
0.138701
0.000352017
4.05544e-05
0.00163163
-0.0017408
0.00405419
-0.00524234
0.00779726
-0.0103532
0.0129735
-0.0169342
0.01959
-0.0247646
0.0275142
-0.0335225
0.0364655
-0.0427989
0.0460421
-0.0521433
0.0557787
-0.0611257
0.0652186
-0.0693961
0.0739832
-0.0767246
0.0818199
-0.083015
0.0886215
-0.0882929
0.0944173
-0.0926757
0.0993406
-0.0963348
0.103586
-0.0994577
0.107367
-0.102219
0.11088
-0.104763
0.114291
-0.107198
0.117724
-0.1096
0.121263
-0.112023
0.124984
-0.114468
-0.117105
0.128896
0.000458041
-0.000417487
0.00205041
-0.00333317
0.00498951
-0.00818144
0.00941974
-0.0147834
0.015372
-0.0228864
0.0227189
-0.0321116
0.0311605
-0.0419641
0.0402545
-0.0518929
0.0494889
-0.0613776
0.058372
-0.0700088
0.0665138
-0.0775379
0.0736759
-0.0838867
0.0797834
-0.0891225
0.0849023
-0.0934118
0.089195
-0.0969683
0.0928687
-0.100009
0.0961323
-0.102721
0.0991667
-0.105253
0.102113
-0.107709
0.10507
-0.110156
0.108109
-0.112638
0.111267
-0.115181
0.114586
-0.117787
-0.120557
0.118038
0.000586262
-0.00100375
0.00252948
-0.00527638
0.00600723
-0.0116592
0.0110882
-0.0198644
0.0176735
-0.0294716
0.0254657
-0.0399039
0.0339968
-0.0504952
0.0427109
-0.0606071
0.0510751
-0.0697418
0.0586757
-0.0776094
0.0652736
-0.0841358
0.0708103
-0.0894234
0.0753737
-0.0936859
0.0791425
-0.0971805
0.0823293
-0.100155
0.0851369
-0.102816
0.0877329
-0.105317
0.0902422
-0.107763
0.0927509
-0.110217
0.0953155
-0.112721
0.097972
-0.115294
0.100742
-0.117951
0.103647
-0.120692
-0.123572
0.106662
0.000729457
-0.00173321
0.00303807
-0.007585
0.00703081
-0.0156519
0.0126553
-0.0254889
0.0196442
-0.0364606
0.0275241
-0.0477838
0.0357011
-0.0586722
0.0435913
-0.0684973
0.0507391
-0.0768896
0.0568836
-0.0837539
0.0619634
-0.0892156
0.0660737
-0.0935337
0.0694009
-0.0970131
0.0721604
-0.09994
0.0745513
-0.102546
0.0767331
-0.104998
0.0788212
-0.107405
0.0808928
-0.109834
0.0829973
-0.112322
0.0851652
-0.114889
0.0874154
-0.117545
0.0897588
-0.120294
0.0922059
-0.123139
-0.126101
0.0947346
0.000879203
-0.00261241
0.00354044
-0.0102462
0.00797569
-0.0200872
0.0139717
-0.0314849
0.0210776
-0.0435665
0.0286745
-0.0553807
0.0361197
-0.0661175
0.0428936
-0.0752711
0.048687
-0.082683
0.0534132
-0.08848
0.0571593
-0.0929618
0.060113
-0.0964874
0.062492
-0.0993922
0.064496
-0.101944
0.0662821
-0.104332
0.0679616
-0.106678
0.0696071
-0.109051
0.0712638
-0.111491
0.0729592
-0.114017
0.0747103
-0.11664
0.0765279
-0.119362
0.0784186
-0.122185
0.0803882
-0.125109
-0.128135
0.082422
0.00102612
-0.00363853
0.00399872
-0.0132188
0.008759
-0.0248474
0.0149086
-0.0376345
0.0218288
-0.0504866
0.0288188
-0.0623707
0.035273
-0.0725717
0.0408037
-0.0808018
0.0452708
-0.0871501
0.0487357
-0.0919449
0.0513789
-0.095605
0.0534209
-0.0985294
0.0550658
-0.101037
0.056474
-0.103352
0.0577574
-0.105616
0.0589877
-0.107908
0.0602082
-0.110271
0.0614447
-0.112727
0.0627132
-0.115286
0.0640237
-0.11795
0.0653829
-0.120721
0.0667951
-0.123597
0.068263
-0.126576
-0.12965
0.0697777
0.00115989
-0.00479842
0.00437557
-0.0164345
0.00930878
-0.0297807
0.0153751
-0.0437008
0.0218333
-0.0569448
0.0279783
-0.0685157
0.0333109
-0.0779043
0.0376037
-0.0850947
0.0408677
-0.0904141
0.0432643
-0.0943415
0.0450141
-0.0973548
0.046329
-0.0998443
0.0473778
-0.102086
0.0482782
-0.104253
0.0491046
-0.106442
0.0499007
-0.108704
0.0506921
-0.111063
0.051494
-0.113529
0.0523161
-0.116108
0.0531649
-0.118799
0.054045
-0.121601
0.0549592
-0.124512
0.0559087
-0.127526
-0.130632
0.0568906
0.00127046
-0.00606888
0.00463893
-0.019803
0.00957354
-0.0347153
0.0153281
-0.0494554
0.0211037
-0.0627204
0.0262623
-0.0736743
0.0304493
-0.0820913
0.033591
-0.0882364
0.0358095
-0.0926326
0.037318
-0.09585
0.0383374
-0.0983742
0.0390495
-0.100556
0.039583
-0.102619
0.0400189
-0.104688
0.0404043
-0.106827
0.0407654
-0.109065
0.0411175
-0.111415
0.04147
-0.113882
0.0418296
-0.116467
0.0422008
-0.11917
0.0425866
-0.121987
0.0429885
-0.124914
0.0434059
-0.127943
-0.131065
0.0438394
0.00135193
-0.00742081
0.00476883
-0.0232199
0.00952943
-0.0394759
0.0147733
-0.0546993
0.0197147
-0.0676618
0.0238323
-0.0777918
0.0269232
-0.0851822
0.0290376
-0.0903508
0.030365
-0.09396
0.0311316
-0.0966165
0.0315356
-0.0987782
0.0317218
-0.100743
0.0317826
-0.10268
0.0317716
-0.104677
0.0317178
-0.106773
0.0316368
-0.108984
0.0315381
-0.111316
0.0314283
-0.113772
0.031312
-0.116351
0.0311931
-0.119051
0.031074
-0.121868
0.0309556
-0.124795
0.0308364
-0.127824
0.0307192
-0.130948
-0.000318739
0.000178337
0.000140402
-0.00108678
-0.000218956
0.000987
-0.00219867
-0.00108793
0.00219981
-0.0035834
-0.00222092
0.00360564
-0.00518925
-0.00347871
0.00508457
-0.00697583
-0.00478971
0.0065763
-0.00890919
-0.00613728
0.00807064
-0.010959
-0.00754116
0.00959102
-0.0130975
-0.00903826
0.0111767
-0.015298
-0.0106671
0.0128677
-0.0175342
-0.0124582
0.0146944
-0.0197785
-0.0144292
0.0166735
-0.022
-0.0165843
0.0188058
-0.0241632
-0.018914
0.0210772
-0.0262267
-0.0213951
0.0234586
-0.0281421
-0.0239899
0.0259054
-0.0298543
-0.0266441
0.0283562
-0.0313015
-0.029285
0.0307322
-0.0324175
-0.0318204
0.0329363
-0.0331342
-0.0341389
0.0348556
-0.0333852
-0.0361145
0.0363656
-0.0331111
-0.0376073
0.0373331
-0.0322771
-0.038453
0.037619
-0.0385019
-0.0309011
0.0371259
-0.000349417
0.000527753
-0.0011947
0.000626332
-0.0024192
0.000136574
-0.00394215
-0.000697969
-0.0057036
-0.00171726
-0.00765846
-0.00283485
-0.00977185
-0.00402389
-0.0120162
-0.00529677
-0.0143692
-0.00668532
-0.0168113
-0.00822502
-0.0193243
-0.00994521
-0.021889
-0.0118646
-0.0244834
-0.0139899
-0.0270815
-0.0163159
-0.0296519
-0.0188248
-0.0321572
-0.0214846
-0.0345534
-0.0242478
-0.0367905
-0.027048
-0.038813
-0.0297978
-0.0405639
-0.032388
-0.0419887
-0.0346897
-0.0430376
-0.0365583
-0.0436685
-0.037822
-0.0382946
-0.0438758
-0.000347312
0.000875065
-0.00119689
0.00147591
-0.00243323
0.00137291
-0.00397049
0.000839292
-0.00574335
5.55931e-05
-0.00770176
-0.000876444
-0.00980806
-0.00191759
-0.0120342
-0.00307061
-0.014359
-0.0043605
-0.0167655
-0.00581852
-0.0192385
-0.0074723
-0.0217621
-0.00934092
-0.0243189
-0.0114332
-0.026888
-0.0137468
-0.029445
-0.0162678
-0.0319607
-0.0189689
-0.0344007
-0.0218078
-0.0367245
-0.0247242
-0.038885
-0.0276373
-0.040831
-0.0304421
-0.0425143
-0.0330064
-0.0438929
-0.0351798
-0.0449174
-0.0367975
-0.0376331
-0.0455789
-0.00031125
0.00118632
-0.00108937
0.00225404
-0.00223202
0.00251556
-0.0036559
0.00226318
-0.00529203
0.00169172
-0.00708433
0.000915855
-0.00899063
-1.12958e-05
-0.0109779
-0.00108334
-0.013021
-0.00231739
-0.0150993
-0.00374027
-0.017194
-0.00537758
-0.0192865
-0.00724841
-0.021357
-0.00936268
-0.023384
-0.0117198
-0.0253444
-0.0143073
-0.0272136
-0.0170997
-0.0289648
-0.0200566
-0.0305679
-0.0231211
-0.0319866
-0.0262186
-0.0331768
-0.029252
-0.0340903
-0.0320929
-0.0346853
-0.0345847
-0.034911
-0.0365718
-0.0378572
-0.0346869
-0.000246016
0.00143233
-0.000884902
0.00289292
-0.00183793
0.00346859
-0.00302944
0.00345469
-0.0043894
0.00305168
-0.00585732
0.00238377
-0.00738145
0.00151283
-0.00891885
0.00045406
-0.0104372
-0.00079908
-0.0119048
-0.00227263
-0.0132931
-0.00398931
-0.0145734
-0.00596804
-0.0157169
-0.00821923
-0.0166943
-0.0107424
-0.0174774
-0.0135242
-0.0180406
-0.0165366
-0.0183614
-0.0197358
-0.0184211
-0.0230614
-0.018203
-0.0264367
-0.0176827
-0.0297723
-0.016827
-0.0329487
-0.0155956
-0.0358161
-0.01397
-0.0381974
-0.0399775
-0.0118497
-0.000161195
0.00159353
-0.000610751
0.00334248
-0.0012989
0.00415674
-0.00216136
0.00431715
-0.00312914
0.00401946
-0.00413554
0.00339017
-0.00511957
0.00249686
-0.00602801
0.00136249
-0.00680951
-1.75735e-05
-0.00742115
-0.001661
-0.00781825
-0.00359221
-0.00795728
-0.00582901
-0.00779512
-0.00838139
-0.00729011
-0.0112474
-0.00640416
-0.0144101
-0.00510542
-0.0178353
-0.00337067
-0.0214705
-0.00118691
-0.0252452
0.00144835
-0.0290719
0.00452093
-0.0328449
0.00802879
-0.0364565
0.0119988
-0.0397861
0.0164312
-0.0426298
-0.0448994
0.021353
-6.92953e-05
0.00166282
-0.000303502
0.00357668
-0.000680648
0.00453389
-0.0011487
0.00478521
-0.00164064
0.00451139
-0.0020843
0.00383383
-0.00240826
0.00282083
-0.0025443
0.00149854
-0.00242742
-0.00013446
-0.00199415
-0.00209426
-0.00118404
-0.00440232
6.24174e-05
-0.00707547
0.00180217
-0.0101211
0.00408696
-0.0135322
0.0069604
-0.0172835
0.0104548
-0.0213297
0.0145884
-0.0256041
0.0193632
-0.03002
0.0247647
-0.0344734
0.0307687
-0.0388489
0.0373362
-0.0430241
0.0444493
-0.0468992
0.0520442
-0.0502247
-0.0533844
0.0605293
1.69312e-05
0.00164589
-1.5995e-06
0.00359522
-5.41464e-05
0.00458643
-9.78117e-05
0.00482888
-6.7084e-05
0.00448066
0.000115355
0.00365139
0.000531685
0.0024045
0.00126462
0.000765598
0.00239587
-0.0012657
0.0040053
-0.00370369
0.00616908
-0.00656611
0.00895849
-0.00986488
0.0124364
-0.013599
0.0166531
-0.017749
0.0216425
-0.0222729
0.0274175
-0.0271047
0.0339684
-0.032155
0.0412627
-0.0373143
0.0492486
-0.0424592
0.0578608
-0.0474611
0.0670252
-0.0521885
0.0766859
-0.0565598
0.0867656
-0.0603044
-0.0641484
0.0975295
8.68751e-05
0.00155902
0.000261898
0.00342019
0.000519504
0.00432883
0.00089882
0.00444956
0.00146661
0.00391288
0.00230651
0.00281149
0.00351137
0.00119964
0.00517797
-0.000901004
0.00740303
-0.00349077
0.0102796
-0.0065803
0.0138929
-0.0101793
0.0183148
-0.0142867
0.0235981
-0.0188823
0.0297704
-0.0239213
0.0368289
-0.0293314
0.0447376
-0.0350134
0.0534279
-0.0408453
0.0628034
-0.0466898
0.0727479
-0.0524038
0.083135
-0.0578481
0.0938474
-0.0629009
0.104772
-0.0674848
0.11585
-0.0713822
-0.0753493
0.127051
0.000135421
0.00142359
0.000469705
0.00308591
0.00100532
0.00379321
0.0017868
0.00366808
0.00288716
0.00281252
0.00439899
0.00129967
0.00642681
-0.000828182
0.00908008
-0.00355428
0.012466
-0.00687665
0.0166819
-0.0107962
0.0218068
-0.0153043
0.0278921
-0.020372
0.0349525
-0.0259427
0.0429599
-0.0319288
0.0518406
-0.038212
0.061477
-0.0446499
0.0717164
-0.0510847
0.0823826
-0.057356
0.0932923
-0.0633135
0.104271
-0.0688267
0.115173
-0.0738027
0.125865
-0.0781768
0.136353
-0.0818706
-0.0853622
0.146366
0.000163664
0.00125993
0.000623363
0.00262621
0.00140496
0.00301161
0.00256829
0.00250476
0.00419942
0.00118139
0.00640374
-0.000904656
0.00929778
-0.00372222
0.0129986
-0.00725506
0.0176126
-0.0114906
0.0232221
-0.0164058
0.0298723
-0.0219544
0.0375584
-0.0280581
0.0462188
-0.0346031
0.0557326
-0.0414426
0.0659256
-0.048405
0.0765832
-0.0553075
0.087469
-0.0619705
0.0983472
-0.0682342
0.109004
-0.0739703
0.119272
-0.0790951
0.129038
-0.0835688
0.138256
-0.0873949
0.14698
-0.0905942
-0.093281
0.154899
0.000179714
0.000746245
0.00176093
0.00330805
0.00549315
0.00843629
0.0122606
0.0170777
0.0229688
0.0299672
0.0380426
0.0470927
0.0569438
0.0673622
0.0780747
0.0887948
0.0992517
0.109217
0.118524
0.127083
0.13487
0.141983
0.148571
0.155087
-0.0263468
-0.0525041
0.0479498
-0.0206827
-0.0482862
0.0426221
-0.0139595
-0.0409913
0.0342681
-0.00625505
-0.0304513
0.0227468
0.00234226
-0.0165805
0.00798323
0.0116073
0.000343989
-0.00960902
0.0212615
0.0202234
-0.0298776
0.0310201
0.0421845
-0.0519431
0.0406088
0.0648819
-0.0744705
0.0498073
0.0865127
-0.0957112
0.0580081
0.105768
-0.113969
0.0644368
0.121652
-0.128081
0.0683178
0.134057
-0.137939
0.0693016
0.143779
-0.144763
0.0681763
0.151382
-0.150257
0.0671659
0.155369
-0.154358
0.06907
0.151381
-0.153286
0.0755271
0.134176
-0.140633
0.0860463
0.101022
-0.111541
0.0988864
0.0532146
-0.0660547
0.112316
-0.00423888
-0.00919081
0.124998
-0.063147
0.050465
0.135578
-0.113685
0.103105
0.143023
-0.14887
0.141425
0.147008
-0.168365
0.16438
0.148192
-0.176288
0.175104
0.14738
-0.17716
0.177973
0.144218
-0.176164
0.179326
0.137869
-0.180048
0.186397
0.129379
-0.189378
0.197867
0.122352
-0.190024
0.197051
0.120397
-0.161304
0.163259
0.124375
-0.0947277
0.0907498
0.132422
-0.00647972
-0.00156769
0.141508
0.0802788
-0.089364
0.149533
0.144386
-0.152412
0.155231
0.18311
-0.188807
0.157228
0.203433
-0.20543
0.154251
0.223289
-0.220312
0.147079
0.244972
-0.2378
0.139327
0.247207
-0.239455
0.135112
0.207771
-0.203556
0.136086
0.111701
-0.112675
0.141475
0.000414074
-0.00580253
0.148401
-0.110214
0.103287
0.153158
-0.173489
0.168733
0.152321
-0.220441
0.221277
0.146228
-0.249023
0.255116
0.139253
-0.255689
0.262664
0.136689
-0.23253
0.235094
0.139827
-0.115798
0.11266
0.145315
-0.0257276
0.0202399
0.147577
0.124931
-0.127193
0.14552
0.204213
-0.202155
0.142452
0.280088
-0.27702
0.141425
0.316461
-0.315434
0.142176
0.171961
-0.172712
0.142495
0.139843
-0.140162
0.140973
-0.129782
0.131305
-0.225149
0.226962
-0.041264
-0.0551158
-0.0372595
-0.0522907
-0.031859
-0.0463917
-0.0250026
-0.0373078
-0.0167664
-0.0248167
-0.00733531
-0.00908711
0.00319963
0.00968846
0.014762
0.0306221
0.0259156
0.0537282
0.0368309
0.0755974
0.0467103
0.0958891
0.0548346
0.113528
0.0606648
0.128227
0.0643337
0.14011
0.0670572
0.148659
0.070901
0.151525
0.0776866
0.144596
0.0877714
0.124091
0.0998989
0.0888944
0.112461
0.0406527
0.124308
-0.0160866
0.13459
-0.0734286
0.1424
-0.121495
0.147145
-0.153615
0.148793
-0.170012
0.148053
-0.175548
0.145836
-0.174943
0.141885
-0.172213
0.135025
-0.173189
0.125752
-0.180105
0.117643
-0.181914
0.114935
-0.158596
0.119009
-0.0988022
0.128004
-0.0154747
0.138575
0.0697079
0.14832
0.134642
0.155586
0.175844
0.158751
0.200268
0.156698
0.225342
0.150396
0.251274
0.143361
0.254242
0.139254
0.211878
0.139498
0.111457
0.143565
-0.00365249
0.149148
-0.115797
0.153089
-0.17743
0.151855
-0.219207
0.145598
-0.242767
0.138516
-0.248607
0.13612
-0.230133
0.139456
-0.119135
0.145057
-0.0313286
0.147425
0.122562
0.145438
0.206199
0.142505
0.283022
0.141518
0.317448
0.142567
0.170912
0.143204
0.139206
0.141785
-0.128363
-0.223368
-0.0453632
-0.0553315
-0.043776
-0.053878
-0.0406252
-0.0495425
-0.0357218
-0.0422112
-0.0289683
-0.0315702
-0.0204547
-0.0176007
-0.0102821
-0.000484194
0.000752233
0.0195878
0.0132888
0.0411917
0.025526
0.0633601
0.0370672
0.0843479
0.0472593
0.103336
0.0557758
0.119711
0.0630022
0.132884
0.070123
0.141538
0.0786285
0.14302
0.0893592
0.133865
0.101773
0.111677
0.11439
0.0762776
0.125923
0.0291203
0.135794
-0.0259577
0.143519
-0.0811539
0.148527
-0.126503
0.150632
-0.15572
0.150111
-0.169492
0.14768
-0.173117
0.144248
-0.171511
0.139728
-0.167693
0.132726
-0.166187
0.123048
-0.170427
0.113944
-0.17281
0.11024
-0.154892
0.114043
-0.102605
0.123644
-0.0250757
0.135519
0.0578328
0.146899
0.123262
0.155726
0.167016
0.160171
0.195824
0.159261
0.226252
0.154026
0.256509
0.147754
0.260514
0.143692
0.215939
0.143112
0.112037
0.145772
-0.0063125
0.149921
-0.119946
0.153029
-0.180537
0.151473
-0.217651
0.145136
-0.23643
0.137968
-0.241438
0.135682
-0.227847
0.139157
-0.122611
0.144882
-0.0370536
0.147398
0.120046
0.145478
0.20812
0.142638
0.285861
0.141697
0.31839
0.143087
0.169521
0.144085
0.138208
0.142772
-0.12705
-0.221615
-0.0369056
-0.0531128
-0.0380509
-0.0527327
-0.0376769
-0.0499165
-0.0355028
-0.0443853
-0.0312824
-0.0357906
-0.0248729
-0.0240102
-0.0163389
-0.00901815
-0.00599546
0.00924434
0.00566109
0.0295352
0.01846
0.0505612
0.0313238
0.0714842
0.0435931
0.0910667
0.0550069
0.108297
0.0658946
0.121996
0.0770677
0.130365
0.0893222
0.130765
0.102716
0.120471
0.116235
0.0981572
0.128441
0.0640723
0.13853
0.0190311
0.146319
-0.033747
0.151555
-0.0863897
0.153884
-0.128832
0.153474
-0.15531
0.150959
-0.166976
0.147063
-0.169222
0.142581
-0.167029
0.137614
-0.162725
0.130772
-0.159345
0.121163
-0.160819
0.111327
-0.162974
0.106413
-0.149979
0.109507
-0.105699
0.11933
-0.0348988
0.132294
0.0448696
0.145193
0.110363
0.155565
0.156644
0.161406
0.189983
0.161844
0.225813
0.157849
0.260504
0.152372
0.265991
0.148286
0.220026
0.146834
0.113489
0.148047
-0.00752627
0.150704
-0.122603
0.152955
-0.182788
0.151135
-0.215831
0.144788
-0.230083
0.137545
-0.234196
0.135305
-0.225607
0.138885
-0.126191
0.144764
-0.042932
0.147485
0.117325
0.14564
0.209965
0.142864
0.288638
0.141972
0.319281
0.143737
0.167756
0.145137
0.136808
0.143933
-0.125847
-0.219885
-0.0162406
-0.0487219
-0.0200141
-0.0489592
-0.0224422
-0.0474884
-0.0232045
-0.0436231
-0.0220914
-0.0369036
-0.0185603
-0.0275413
-0.0126502
-0.0149283
-0.0043919
0.000986064
0.00618698
0.0189563
0.018462
0.0382861
0.0317759
0.0581702
0.0454214
0.0774212
0.0590714
0.0946469
0.0727938
0.108274
0.0869049
0.116254
0.10157
0.1161
0.116318
0.105723
0.129961
0.084514
0.141301
0.052733
0.14985
0.0104818
0.155655
-0.0395521
0.158517
-0.0892512
0.158294
-0.12861
0.155531
-0.152547
0.151221
-0.162666
0.146114
-0.164115
0.140793
-0.161708
0.135481
-0.157414
0.128994
-0.152857
0.119898
-0.151722
0.109752
-0.152828
0.103595
-0.143822
0.105527
-0.107631
0.115136
-0.0445083
0.128872
0.0311344
0.143111
0.096123
0.154983
0.144772
0.162327
0.182639
0.16431
0.22383
0.161703
0.263111
0.157047
0.270648
0.152903
0.224169
0.150545
0.115848
0.150335
-0.00731651
0.151467
-0.123735
0.152837
-0.184158
0.1508
-0.213793
0.144506
-0.22379
0.137192
-0.226882
0.134927
-0.223342
0.138588
-0.129852
0.144665
-0.0490089
0.147665
0.114326
0.145925
0.211704
0.143193
0.29137
0.142352
0.320123
0.144517
0.16559
0.146356
0.134969
0.145262
-0.124753
-0.218174
0.0151089
-0.0424777
0.00890778
-0.0427581
0.0035018
-0.0420824
-0.000553199
-0.0395681
-0.00231786
-0.035139
-0.00204517
-0.027814
0.00100994
-0.0179834
0.00743698
-0.00544098
0.0160998
0.0102935
0.0268117
0.0275742
0.0393557
0.0456262
0.053153
0.063624
0.0677592
0.0800406
0.0829268
0.0931061
0.0984925
0.100688
0.114119
0.100473
0.12902
0.0908226
0.142034
0.0715004
0.152264
0.0425028
0.159458
0.00328741
0.163505
-0.043599
0.164159
-0.0899049
0.161574
-0.126025
0.156704
-0.147676
0.150834
-0.156796
0.14476
-0.158041
0.138817
-0.155765
0.133236
-0.151833
0.127191
-0.146812
0.118969
-0.143501
0.109035
-0.142894
0.101825
-0.136612
0.102281
-0.108087
0.111127
-0.0533539
0.125235
0.0170264
0.140552
0.0808058
0.153839
0.131486
0.162772
0.173706
0.166474
0.220127
0.165393
0.264192
0.161607
0.274433
0.157371
0.228405
0.154143
0.119076
0.152562
-0.00573528
0.152176
-0.12335
0.152637
-0.184619
0.150421
-0.211577
0.144244
-0.217612
0.136857
-0.219495
0.134489
-0.220974
0.138209
-0.133571
0.14454
-0.0553399
0.147912
0.110954
0.146331
0.213285
0.143636
0.294064
0.142845
0.320913
0.145424
0.163012
0.147735
0.132658
0.146752
-0.123769
-0.216478
0.0535611
-0.0355095
0.0467072
-0.0359041
0.040093
-0.0354683
0.0342493
-0.0337243
0.0295311
-0.0304208
0.0268285
-0.0251113
0.0265629
-0.0177179
0.028988
-0.00786603
0.0343676
0.00491391
0.0424661
0.0194757
0.053097
0.0349953
0.0657647
0.0509564
0.0799381
0.0658672
0.0951012
0.0779429
0.110704
0.0850853
0.126053
0.0851245
0.140201
0.0766741
0.152124
0.0595776
0.161181
0.0334462
0.167159
-0.00269101
0.169627
-0.0460669
0.168269
-0.0885471
0.163574
-0.12133
0.156898
-0.141
0.149738
-0.149636
0.142927
-0.151229
0.136584
-0.149422
0.130816
-0.146064
0.125185
-0.141182
0.118052
-0.136367
0.108867
-0.133709
0.101019
-0.128764
0.0998601
-0.106928
0.107426
-0.0609194
0.121388
0.00306392
0.137432
0.0647621
0.151993
0.116925
0.162561
0.163138
0.168134
0.214555
0.168724
0.263602
0.165874
0.277283
0.161539
0.23274
0.157509
0.123106
0.154649
-0.00287503
0.152788
-0.121488
0.152316
-0.184147
0.149952
-0.209213
0.143956
-0.211617
0.136498
-0.212037
0.133942
-0.218418
0.137692
-0.137321
0.144341
-0.0619887
0.148193
0.107102
0.146848
0.21463
0.144203
0.29671
0.143457
0.321659
0.146455
0.160014
0.149268
0.129845
0.148392
-0.122893
-0.214793
0.090723
-0.028703
0.0840198
-0.0292009
0.0773545
-0.028803
0.0708719
-0.0272417
0.0649462
-0.0244951
0.0601953
-0.0203604
0.0571361
-0.0146587
0.0563481
-0.00707801
0.0583389
0.0029231
0.0632493
0.0145653
0.0710965
0.0271481
0.0815563
0.0404965
0.0941004
0.0533231
0.108046
0.0639972
0.12258
0.0705516
0.136775
0.0709287
0.149632
0.0638176
0.160276
0.0489332
0.168179
0.0255434
0.173
-0.00751203
0.173949
-0.0470155
0.17072
-0.0853188
0.164186
-0.114796
0.15605
-0.132865
0.1479
-0.141486
0.140562
-0.143891
0.134015
-0.142875
0.128162
-0.140211
0.12286
-0.13588
0.116839
-0.130346
0.108844
-0.125713
0.100936
-0.120857
0.0982641
-0.104256
0.104153
-0.0668087
0.117375
-0.0101572
0.133708
0.0484286
0.149336
0.101297
0.161529
0.150945
0.169067
0.207017
0.171458
0.26121
0.169637
0.279104
0.165271
0.237106
0.160519
0.127858
0.156514
0.00113019
0.153255
-0.11823
0.151828
-0.182721
0.149337
-0.206721
0.143601
-0.205882
0.13608
-0.204516
0.133248
-0.215586
0.13699
-0.141064
0.144006
-0.0690039
0.148471
0.102636
0.147465
0.215636
0.144898
0.299277
0.144193
0.322364
0.147608
0.156599
0.150944
0.126509
0.150172
-0.122121
-0.213117
0.12074
-0.022392
0.114584
-0.0230446
0.108517
-0.0227358
0.102602
-0.0213274
0.0970218
-0.0189147
0.0920687
-0.0154073
0.0881197
-0.0107097
0.0857439
-0.00470224
0.0852312
0.00343582
0.087169
0.0126275
0.0919179
0.0223992
0.0994594
0.032955
0.109444
0.0433385
0.121207
0.052234
0.133839
0.0579197
0.146292
0.0584762
0.15754
0.0525695
0.166795
0.0396785
0.173508
0.0188299
0.177041
-0.0110446
0.176384
-0.0463584
0.171382
-0.0803174
0.163297
-0.10671
0.154067
-0.123635
0.145241
-0.13266
0.137567
-0.136218
0.130971
-0.136278
0.125159
-0.1344
0.120107
-0.130828
0.115073
-0.125312
0.108522
-0.119162
0.101167
-0.113502
0.0973748
-0.100464
0.101387
-0.0708211
0.113254
-0.0220243
0.129387
0.0322958
0.145784
0.0848997
0.159517
0.137212
0.169107
0.197427
0.173455
0.256862
0.17276
0.2798
0.168441
0.241424
0.163072
0.133228
0.158061
0.00614101
0.153519
-0.113688
0.151119
-0.180321
0.148512
-0.204114
0.14313
-0.200499
0.135577
-0.196963
0.132379
-0.212388
0.136062
-0.144746
0.14348
-0.0764216
0.1487
0.0974158
0.148163
0.216173
0.145724
0.301716
0.145055
0.323033
0.148879
0.152775
0.152755
0.122633
0.152082
-0.121448
-0.211452
0.140813
-0.0168394
0.135407
-0.0176388
0.130118
-0.0174462
0.125187
-0.0163961
0.120748
-0.0144763
0.116855
-0.0115144
0.113626
-0.00748003
0.1113
-0.00237638
0.110137
0.00459835
0.110746
0.0120185
0.113367
0.019778
0.118312
0.0280106
0.125506
0.036144
0.134549
0.0431916
0.144695
0.0477734
0.154946
0.0482257
0.164283
0.0432317
0.171953
0.032009
0.177284
0.0134991
0.179241
-0.0130021
0.176798
-0.0439152
0.170137
-0.0736564
0.160825
-0.0973983
0.150868
-0.113679
0.141662
-0.123454
0.133822
-0.128378
0.127288
-0.129744
0.121651
-0.128763
0.116826
-0.126004
0.112574
-0.12106
0.107512
-0.1141
0.101235
-0.107224
0.0968937
-0.0961231
0.0990669
-0.0729944
0.109153
-0.0321104
0.124527
0.0169215
0.14132
0.0681075
0.156416
0.122115
0.168011
0.185832
0.174384
0.250489
0.174995
0.279189
0.170877
0.245542
0.165089
0.139016
0.159228
0.0120023
0.153548
-0.108008
0.150159
-0.176932
0.147429
-0.201384
0.142499
-0.195569
0.134982
-0.189446
0.131338
-0.208744
0.134878
-0.148286
0.142706
-0.0842498
0.148831
0.0912906
0.148913
0.216091
0.146675
0.303954
0.146044
0.323664
0.150262
0.148556
0.154685
0.118211
0.154109
-0.120872
-0.209801
0.15033
-0.0122704
0.145748
-0.0130569
0.141286
-0.0129841
0.137355
-0.0124656
0.134066
-0.0111866
0.131436
-0.0088849
0.129561
-0.00560505
0.12874
-0.00155472
0.128684
0.00465418
0.129461
0.0112416
0.131437
0.0178021
0.135054
0.024393
0.140351
0.0308468
0.147129
0.0364143
0.15486
0.0400417
0.162785
0.0403009
0.17004
0.0359772
0.175858
0.0261912
0.179179
0.0101776
0.179451
-0.0132737
0.17526
-0.0397245
0.167265
-0.0656612
0.15718
-0.087313
0.146899
-0.103398
0.1376
-0.114154
0.129737
-0.120515
0.123299
-0.123306
0.117889
-0.123352
0.113269
-0.121383
0.109527
-0.117318
0.105756
-0.110329
0.100859
-0.102327
0.0965528
-0.0918166
0.0971146
-0.0735562
0.105175
-0.0401705
0.119218
0.00287836
0.135936
0.0513897
0.152191
0.10586
0.165875
0.172147
0.174459
0.241906
0.176419
0.277229
0.172525
0.249435
0.166603
0.144938
0.160017
0.0185879
0.153423
-0.101414
0.14903
-0.172539
0.146135
-0.198488
0.141715
-0.19115
0.134317
-0.182049
0.130182
-0.204609
0.133459
-0.151562
0.141629
-0.0924203
0.148806
0.0841142
0.149684
0.215213
0.147743
0.305895
0.147157
0.32425
0.151756
0.143957
0.156717
0.11325
0.15624
-0.120394
-0.20817
0.15195
-0.00913306
0.148269
-0.00937635
0.144772
-0.00948665
0.14168
-0.00937381
0.139131
-0.00863697
0.137294
-0.0070479
0.136225
-0.00453668
0.135818
-0.00114753
0.13672
0.00375211
0.138736
0.0092252
0.141642
0.0148964
0.145361
0.0206739
0.150032
0.0261765
0.155611
0.0308344
0.161797
0.033856
0.167972
0.0341257
0.173407
0.0305423
0.177381
0.0222176
0.179301
0.00825763
0.177311
-0.0112837
0.171602
-0.0340159
0.162826
-0.0568848
0.152661
-0.0771489
0.142635
-0.093372
0.133626
-0.105146
0.12594
-0.112829
0.119619
-0.116985
0.114406
-0.11814
0.109947
-0.116924
0.106432
-0.113804
0.103561
-0.107457
0.100059
-0.0988256
0.0962613
-0.088019
0.0956415
-0.0729364
0.10157
-0.0460993
0.113783
-0.00933445
0.129807
0.0353661
0.146508
0.0891586
0.161822
0.156833
0.172731
0.230997
0.176457
0.273503
0.17319
0.252703
0.167301
0.150827
0.160492
0.0253967
0.153081
-0.0940028
0.147796
-0.167254
0.144706
-0.195398
0.140804
-0.187248
0.133596
-0.174841
0.128974
-0.199987
0.131911
-0.154499
0.140298
-0.100807
0.148586
0.0758255
0.150431
0.213368
0.148908
0.307419
0.148396
0.324761
0.153351
0.139002
0.158838
0.107763
0.158474
-0.12003
-0.206544
0.184044
-0.00539464
-0.187783
0.180906
-0.0062385
0.177829
-0.0064095
0.174672
-0.00621708
0.171517
-0.00548185
0.16849
-0.0040204
0.165695
-0.00174155
0.16327
0.0012773
0.16167
0.00535152
0.160855
0.0100403
0.160801
0.0149508
0.161672
0.0198025
0.163659
0.0241893
0.166933
0.0275605
0.171592
0.029197
0.177514
0.0282042
0.184331
0.0237256
0.191422
0.0151265
0.1976
0.00207969
0.201694
-0.0153778
0.202639
-0.034961
0.200319
-0.0545653
0.195366
-0.0721954
0.188664
-0.0866703
0.181022
-0.0975038
0.173019
-0.104826
0.16509
-0.109056
0.157475
-0.110525
0.150034
-0.109483
0.142892
-0.106661
0.136254
-0.10082
0.129246
-0.0918176
0.121082
-0.0798545
0.113673
-0.0655279
0.110751
-0.0431771
0.113907
-0.0124908
0.120702
0.0285714
0.128126
0.0817349
0.134492
0.150468
0.139712
0.225776
0.144924
0.268292
0.151849
0.245778
0.160367
0.142309
0.165909
0.0198546
0.166534
-0.0946276
0.163301
-0.164021
0.158513
-0.190611
0.151973
-0.180707
0.143152
-0.166019
0.135482
-0.192317
0.133184
-0.152202
0.13459
-0.102213
0.136289
0.0741265
0.135041
0.214616
0.13315
0.309309
0.135412
0.322499
0.141973
0.132441
0.148062
0.101674
0.14727
-0.119238
-0.202962
0.19456
-0.00273646
-0.197219
0.191919
-0.00359728
0.189365
-0.00385562
0.186799
-0.0036506
0.184299
-0.00298191
0.182014
-0.00173526
0.180079
0.000192735
0.178558
0.0027985
0.177748
0.00616214
0.177739
0.010049
0.178578
0.0141118
0.180334
0.0180467
0.183068
0.0214546
0.186816
0.0238127
0.19153
0.0244838
0.196991
0.0227429
0.202764
0.0179523
0.20822
0.00967053
0.212575
-0.0022755
0.21468
-0.0174822
0.214079
-0.0343608
0.210789
-0.051275
0.205298
-0.0667045
0.198307
-0.0796788
0.190527
-0.089724
0.182488
-0.0967865
0.174534
-0.101102
0.166919
-0.10291
0.15953
-0.102094
0.152315
-0.0994454
0.145619
-0.0941246
0.139076
-0.0852738
0.13158
-0.0723592
0.124036
-0.0579839
0.119949
-0.03909
0.121657
-0.0141987
0.127933
0.0222953
0.135614
0.0740542
0.142909
0.143173
0.149381
0.219304
0.15605
0.261623
0.164288
0.23754
0.17353
0.133067
0.179512
0.0138724
0.179499
-0.0946149
0.175205
-0.159726
0.169426
-0.184832
0.162405
-0.173687
0.153077
-0.156691
0.144743
-0.183982
0.141791
-0.14925
0.143126
-0.103549
0.145316
0.071936
0.144528
0.215405
0.142938
0.310899
0.145524
0.319913
0.152611
0.125354
0.159247
0.0950388
0.158079
-0.11807
-0.198919
0.205232
-0.000588559
-0.20738
0.202964
-0.00132919
0.200742
-0.00163382