/*--------------------------------*- C++ -*----------------------------------*\
| =========                 |                                                 |
| \\      /  F ield         | OpenFOAM: The Open Source CFD Toolbox           |
|  \\    /   O peration     | Version:  2512                                  |
|   \\  /    A nd           | Website:  www.openfoam.com                      |
|    \\/     M anipulation  |                                                 |
\*---------------------------------------------------------------------------*/
FoamFile
{
    version     2.0;
    format      ascii;
    arch        "LSB;label=32;scalar=64";
    class       volScalarField;
    location    "112";
    object      p;
}
// * * * * * * * * * * * * * * * * * * * * * * * * * * * * * * * * * * * * * //

dimensions      [0 2 -2 0 0 0 0];

internalField   nonuniform List<scalar> 
13248
(
-0.306939
-0.306291
-0.304735
-0.302424
-0.29946
-0.295853
-0.291594
-0.286676
-0.28111
-0.274936
-0.268227
-0.261093
-0.25367
-0.246115
-0.238587
-0.231232
-0.224171
-0.217487
-0.211224
-0.205407
-0.199957
-0.19495
-0.189883
-0.185239
-0.314644
-0.313
-0.310641
-0.307668
-0.304134
-0.300053
-0.295405
-0.290159
-0.284297
-0.27783
-0.270809
-0.263321
-0.255489
-0.247454
-0.23936
-0.231339
-0.223499
-0.215915
-0.20863
-0.201656
-0.194954
-0.188494
-0.182071
-0.17601
-0.323758
-0.320982
-0.317687
-0.313931
-0.309713
-0.305045
-0.299886
-0.294167
-0.287827
-0.280845
-0.273247
-0.265114
-0.256572
-0.247769
-0.238861
-0.229991
-0.221278
-0.212812
-0.204643
-0.196796
-0.189235
-0.181962
-0.174808
-0.168053
-0.334317
-0.330291
-0.32596
-0.32133
-0.31633
-0.310951
-0.305112
-0.29869
-0.29158
-0.283739
-0.2752
-0.26607
-0.256509
-0.246703
-0.236838
-0.227078
-0.217553
-0.208351
-0.199517
-0.191062
-0.18296
-0.175203
-0.167661
-0.16065
-0.346404
-0.341024
-0.335587
-0.33002
-0.32414
-0.317887
-0.311119
-0.303661
-0.295388
-0.286278
-0.276419
-0.265984
-0.255198
-0.24429
-0.233471
-0.222904
-0.212703
-0.202931
-0.193613
-0.184742
-0.176288
-0.168232
-0.160483
-0.15327
-0.360066
-0.353246
-0.346664
-0.340106
-0.333216
-0.325845
-0.317792
-0.308858
-0.298958
-0.288158
-0.276652
-0.264708
-0.252609
-0.24061
-0.228911
-0.217645
-0.206889
-0.196672
-0.18699
-0.17782
-0.169125
-0.160873
-0.152998
-0.14566
-0.375227
-0.366916
-0.359167
-0.351541
-0.343434
-0.334592
-0.324783
-0.313864
-0.301875
-0.289036
-0.275676
-0.262147
-0.248758
-0.235748
-0.223272
-0.211412
-0.2002
-0.189628
-0.179668
-0.17028
-0.161421
-0.153047
-0.145115
-0.137695
-0.391622
-0.381819
-0.372885
-0.364054
-0.354417
-0.343632
-0.331526
-0.318118
-0.303663
-0.288573
-0.273294
-0.258217
-0.243631
-0.229717
-0.216566
-0.204202
-0.19261
-0.181752
-0.171578
-0.162036
-0.153074
-0.144644
-0.136711
-0.129261
-0.408752
-0.397516
-0.387366
-0.377113
-0.365521
-0.352244
-0.337304
-0.321004
-0.303866
-0.286475
-0.269344
-0.252842
-0.237192
-0.222493
-0.208766
-0.19598
-0.18408
-0.173001
-0.162676
-0.153041
-0.144037
-0.135611
-0.127726
-0.1203
-0.425867
-0.413317
-0.401888
-0.389895
-0.375842
-0.35953
-0.341333
-0.32192
-0.302073
-0.28249
-0.263675
-0.245923
-0.229359
-0.214
-0.199796
-0.186671
-0.174537
-0.163306
-0.152897
-0.143233
-0.134247
-0.125882
-0.118081
-0.110729
-0.441984
-0.428274
-0.415444
-0.401312
-0.384274
-0.364476
-0.342776
-0.32023
-0.297816
-0.276257
-0.255981
-0.237173
-0.219856
-0.203964
-0.189393
-0.176025
-0.163745
-0.152447
-0.142035
-0.132421
-0.123529
-0.115294
-0.107628
-0.100422
-0.455982
-0.441308
-0.426927
-0.410218
-0.389694
-0.366059
-0.340744
-0.315161
-0.290395
-0.267111
-0.245615
-0.225962
-0.208072
-0.191807
-0.177008
-0.163526
-0.151221
-0.139971
-0.129665
-0.120207
-0.111516
-0.103515
-0.0960903
-0.089183
-0.341538
-0.344029
-0.345449
-0.34634
-0.347177
-0.34809
-0.349105
-0.350209
-0.35136
-0.352497
-0.353543
-0.354402
-0.354961
-0.355114
-0.354752
-0.353751
-0.352
-0.34941
-0.345932
-0.341576
-0.336417
-0.330609
-0.324467
-0.318575
-0.329938
-0.332613
-0.33402
-0.334704
-0.335144
-0.335455
-0.335657
-0.335738
-0.335658
-0.33536
-0.334777
-0.333835
-0.332459
-0.330576
-0.328135
-0.325102
-0.321463
-0.317244
-0.312522
-0.307436
-0.302185
-0.297002
-0.292279
-0.289069
-0.319752
-0.322449
-0.323773
-0.324241
-0.324304
-0.32406
-0.32352
-0.322671
-0.321478
-0.319892
-0.317861
-0.315336
-0.312276
-0.308657
-0.304482
-0.299785
-0.29464
-0.289165
-0.28353
-0.277963
-0.272741
-0.268124
-0.264281
-0.261986
-0.311132
-0.313737
-0.314931
-0.315186
-0.314909
-0.314174
-0.312984
-0.311326
-0.309171
-0.306484
-0.303231
-0.299388
-0.29495
-0.289939
-0.284408
-0.278455
-0.272219
-0.265892
-0.259717
-0.253988
-0.249043
-0.24522
-0.242785
-0.242834
-0.304116
-0.306564
-0.307604
-0.307654
-0.307073
-0.30591
-0.30416
-0.30181
-0.298842
-0.295235
-0.290977
-0.286074
-0.280553
-0.274476
-0.267944
-0.261102
-0.254144
-0.247306
-0.240882
-0.235195
-0.230604
-0.227476
-0.226043
-0.226824
-0.29869
-0.300958
-0.301832
-0.301681
-0.300818
-0.299273
-0.297034
-0.294091
-0.290435
-0.286064
-0.28099
-0.275246
-0.268893
-0.262029
-0.254791
-0.247364
-0.239979
-0.232907
-0.226457
-0.220964
-0.216773
-0.214221
-0.21369
-0.214636
-0.294841
-0.296928
-0.297626
-0.297268
-0.296133
-0.294237
-0.291565
-0.28811
-0.283877
-0.27888
-0.273156
-0.266766
-0.2598
-0.25239
-0.244707
-0.236964
-0.229417
-0.222356
-0.216095
-0.210956
-0.207267
-0.205182
-0.205554
-0.206186
-0.292595
-0.29449
-0.294993
-0.294415
-0.293012
-0.290792
-0.287741
-0.283858
-0.279159
-0.27368
-0.267478
-0.260639
-0.253285
-0.245574
-0.237707
-0.22992
-0.222483
-0.215691
-0.209843
-0.205212
-0.202149
-0.200398
-0.201605
-0.201616
-0.292015
-0.29367
-0.293942
-0.293125
-0.291456
-0.288945
-0.285579
-0.281366
-0.27633
-0.270532
-0.26404
-0.256967
-0.249458
-0.241697
-0.2339
-0.226317
-0.219219
-0.212881
-0.207573
-0.203479
-0.20099
-0.199412
-0.20098
-0.200546
-0.293166
-0.294485
-0.294464
-0.293378
-0.291445
-0.288677
-0.285067
-0.280628
-0.275398
-0.269429
-0.262821
-0.255701
-0.248228
-0.240598
-0.233032
-0.225775
-0.219075
-0.213173
-0.20829
-0.204533
-0.202237
-0.200686
-0.201776
-0.201185
-0.296077
-0.296915
-0.296507
-0.295098
-0.292879
-0.289865
-0.286053
-0.281454
-0.276107
-0.270076
-0.263459
-0.256388
-0.249028
-0.241572
-0.234233
-0.227228
-0.220768
-0.215038
-0.21019
-0.206309
-0.203557
-0.201653
-0.201568
-0.200839
-0.300704
-0.300886
-0.299966
-0.298146
-0.295581
-0.292288
-0.288261
-0.283509
-0.278062
-0.27198
-0.265355
-0.258314
-0.251012
-0.243628
-0.236349
-0.229356
-0.222807
-0.21683
-0.211499
-0.206876
-0.202948
-0.199815
-0.197716
-0.196432
-0.312308
-0.305857
-0.301715
-0.300875
-0.304071
-0.311354
-0.321909
-0.333966
-0.344991
-0.351793
-0.35095
-0.338853
-0.314532
-0.278935
-0.236573
-0.194147
-0.157719
-0.130774
-0.114062
-0.10661
-0.107438
-0.116842
-0.134819
-0.157062
-0.174037
-0.176041
-0.161145
-0.135985
-0.109753
-0.0889421
-0.0761365
-0.0707991
-0.0716463
-0.0798409
-0.0968107
-0.117646
-0.130702
-0.126378
-0.108203
-0.0865884
-0.0693823
-0.0584739
-0.0532484
-0.0557307
-0.0636842
-0.069368
-0.0669727
-0.0588808
-0.0501515
-0.043735
-0.0398085
-0.0402801
-0.0409729
-0.0391989
-0.0369243
-0.031838
-0.0218967
-0.0152686
-0.00859547
-0.00327056
-0.288429
-0.288791
-0.292284
-0.29954
-0.310712
-0.325274
-0.341903
-0.358509
-0.372394
-0.380343
-0.379386
-0.366048
-0.338961
-0.299382
-0.252341
-0.205145
-0.164221
-0.13307
-0.112313
-0.10092
-0.0977478
-0.102674
-0.115831
-0.13412
-0.149526
-0.153178
-0.142283
-0.122025
-0.100276
-0.0832328
-0.0736273
-0.0710227
-0.0744235
-0.0854576
-0.105463
-0.128711
-0.142632
-0.137083
-0.116418
-0.0917317
-0.0715541
-0.0581475
-0.0506351
-0.0507598
-0.0563307
-0.0608331
-0.0588411
-0.0528651
-0.0465369
-0.0423851
-0.0408968
-0.0433869
-0.045928
-0.0439525
-0.0410367
-0.0347438
-0.0230556
-0.0152424
-0.00720891
-0.00230634
-0.268952
-0.273879
-0.283075
-0.296318
-0.313186
-0.332719
-0.353314
-0.372775
-0.388421
-0.397403
-0.396242
-0.382221
-0.353607
-0.31171
-0.261846
-0.211653
-0.167736
-0.133574
-0.109612
-0.094744
-0.0877172
-0.0881747
-0.0963713
-0.110379
-0.12385
-0.128907
-0.121733
-0.106363
-0.0891645
-0.0760228
-0.0697485
-0.0699562
-0.07594
-0.0896897
-0.112433
-0.137832
-0.152642
-0.146194
-0.123438
-0.0960532
-0.073175
-0.0574757
-0.0478917
-0.0458673
-0.0492239
-0.0526112
-0.0509448
-0.0468334
-0.0427102
-0.0408133
-0.0418815
-0.0465255
-0.0509513
-0.0486573
-0.0449555
-0.0374644
-0.0241389
-0.015207
-0.00587144
-0.00139023
-0.250421
-0.26006
-0.273365
-0.290434
-0.310691
-0.33303
-0.355752
-0.376658
-0.393232
-0.402629
-0.401737
-0.387618
-0.358571
-0.315961
-0.26519
-0.213905
-0.168643
-0.132708
-0.106454
-0.0887683
-0.0783868
-0.0747108
-0.0780399
-0.0875135
-0.0984799
-0.104171
-0.100315
-0.0896077
-0.076813
-0.0675193
-0.0645176
-0.0674363
-0.0758382
-0.0919924
-0.117135
-0.144536
-0.160382
-0.153465
-0.129091
-0.0994624
-0.0742509
-0.0565248
-0.0451183
-0.0412063
-0.0425678
-0.0448989
-0.0433464
-0.040884
-0.0387288
-0.0390267
-0.042722
-0.0496319
-0.0559791
-0.0532523
-0.048638
-0.0399602
-0.0251298
-0.0151635
-0.00459246
-0.000525316
-0.236119
-0.248171
-0.26336
-0.282063
-0.303705
-0.327063
-0.350403
-0.371606
-0.388513
-0.3981
-0.397356
-0.383461
-0.354852
-0.312991
-0.263195
-0.21275
-0.167716
-0.131127
-0.103374
-0.083494
-0.0702936
-0.0630732
-0.0619277
-0.0668004
-0.074736
-0.0802546
-0.0789141
-0.0723679
-0.063595
-0.0579013
-0.0579209
-0.0633087
-0.0738441
-0.0920206
-0.11921
-0.148431
-0.165489
-0.158695
-0.133278
-0.101932
-0.0748224
-0.0553754
-0.042404
-0.0368731
-0.0364848
-0.0378412
-0.0362385
-0.0351185
-0.0346489
-0.0370259
-0.0433671
-0.0526275
-0.060929
-0.0576587
-0.0520349
-0.0421958
-0.0260123
-0.0151116
-0.00338034
0.000286193
-0.225194
-0.238298
-0.253621
-0.272195
-0.293652
-0.316636
-0.33945
-0.360318
-0.376316
-0.3857
-0.384879
-0.371424
-0.343972
-0.304134
-0.256963
-0.209015
-0.165586
-0.129354
-0.100811
-0.0792915
-0.0637925
-0.0535975
-0.0486318
-0.0491509
-0.0536768
-0.0582311
-0.0583791
-0.0552451
-0.0499204
-0.047395
-0.0500519
-0.0575861
-0.0699192
-0.0896771
-0.118473
-0.149303
-0.167756
-0.161699
-0.135926
-0.103449
-0.0749219
-0.0540872
-0.0398066
-0.0329194
-0.0310406
-0.0315293
-0.0297422
-0.0296249
-0.0305268
-0.0348118
-0.0437581
-0.0554168
-0.0657031
-0.0618014
-0.0551087
-0.0441408
-0.0267692
-0.0150468
-0.00224142
0.0010437
-0.217692
-0.230794
-0.244804
-0.261914
-0.28203
-0.303488
-0.324664
-0.344872
-0.359458
-0.367456
-0.366199
-0.353325
-0.327706
-0.291036
-0.247832
-0.203641
-0.162864
-0.127805
-0.0990882
-0.0764156
-0.0590879
-0.046455
-0.0383178
-0.0349821
-0.0360219
-0.039028
-0.0413253
-0.0388981
-0.0363048
-0.0363754
-0.041181
-0.0504642
-0.0641766
-0.084989
-0.114892
-0.147103
-0.167083
-0.16238
-0.136997
-0.104013
-0.0745692
-0.0526981
-0.0373584
-0.0293581
-0.0262387
-0.0259918
-0.0239397
-0.0244753
-0.0264258
-0.0323871
-0.0438331
-0.0578959
-0.0701916
-0.0658019
-0.0578412
-0.0457727
-0.0273857
-0.0149623
-0.00117736
0.00174887
-0.213525
-0.225539
-0.237091
-0.251807
-0.26966
-0.288635
-0.307378
-0.323718
-0.337806
-0.344569
-0.342918
-0.33091
-0.30782
-0.275263
-0.236963
-0.197326
-0.159865
-0.126575
-0.0982176
-0.0748531
-0.0561433
-0.0415894
-0.0309189
-0.0243564
-0.0220435
-0.0227984
-0.0242418
-0.0236549
-0.0232944
-0.0252998
-0.0316739
-0.0422189
-0.0568529
-0.0781949
-0.108622
-0.141884
-0.16355
-0.160762
-0.136492
-0.103635
-0.0737792
-0.0512344
-0.0350791
-0.0261874
-0.0220531
-0.0212016
-0.018865
-0.0197314
-0.022413
-0.0297605
-0.0435344
-0.0599577
-0.0742813
-0.0700968
-0.0602111
-0.0470785
-0.0278557
-0.01486
-0.000188513
0.00240637
-0.211582
-0.221193
-0.229727
-0.241631
-0.256389
-0.272124
-0.288501
-0.302561
-0.313318
-0.318537
-0.316665
-0.305986
-0.286083
-0.258261
-0.225321
-0.190556
-0.156713
-0.12556
-0.0980022
-0.0743953
-0.0547368
-0.0387493
-0.0261439
-0.0170218
-0.0117153
-0.00993454
-0.010112
-0.0102443
-0.011357
-0.0146031
-0.0219278
-0.0331917
-0.0482201
-0.0695453
-0.10003
-0.134027
-0.157439
-0.156985
-0.134509
-0.102443
-0.0726743
-0.049813
-0.0330486
-0.0234316
-0.0184701
-0.0171328
-0.0145167
-0.0154291
-0.0185596
-0.0269351
-0.0428059
-0.0615064
-0.0778372
-0.0735006
-0.0621738
-0.0480567
-0.0281826
-0.0147557
0.000714543
0.00302314
-0.209495
-0.215687
-0.221636
-0.230747
-0.24201
-0.254396
-0.266954
-0.278879
-0.287178
-0.291355
-0.28969
-0.280894
-0.264644
-0.241782
-0.21421
-0.184271
-0.154098
-0.125292
-0.0988787
-0.0754278
-0.0551874
-0.0381251
-0.0240232
-0.0128805
-0.00501581
-0.000650089
0.000844793
0.00059391
-0.000788764
-0.00459599
-0.0122893
-0.0237412
-0.0387624
-0.0597286
-0.0896692
-0.123955
-0.149082
-0.151276
-0.13128
-0.100712
-0.0715229
-0.0486621
-0.0314347
-0.0211511
-0.0154558
-0.0137638
-0.0109404
-0.0116031
-0.0149086
-0.0239445
-0.0416218
-0.0624384
-0.0807507
-0.0763655
-0.06372
-0.0487027
-0.0283609
-0.014649
0.00151376
0.00360502
-0.205248
-0.208421
-0.212819
-0.21921
-0.226979
-0.236329
-0.246
-0.254606
-0.261385
-0.264993
-0.26404
-0.257554
-0.245138
-0.227171
-0.204779
-0.179522
-0.153015
-0.126679
-0.101612
-0.0785619
-0.0579757
-0.0400483
-0.0247222
-0.0119585
-0.00195077
0.00491257
0.00851209
0.00942659
0.00815977
0.00438904
-0.0030752
-0.0141035
-0.0285183
-0.0486654
-0.0781573
-0.112819
-0.138855
-0.143816
-0.126531
-0.0981907
-0.0700882
-0.0475415
-0.0300771
-0.0192145
-0.0128028
-0.01086
-0.00807668
-0.00842213
-0.0115985
-0.0207201
-0.0399109
-0.0627532
-0.0829564
-0.0785983
-0.0648102
-0.0489595
-0.0283306
-0.0144764
0.00223724
0.00416135
-0.198517
-0.201007
-0.203987
-0.207239
-0.211736
-0.218198
-0.225028
-0.231108
-0.235826
-0.238487
-0.237927
-0.233279
-0.22405
-0.21022
-0.192306
-0.171253
-0.148243
-0.124508
-0.101147
-0.0790263
-0.0587355
-0.0406148
-0.0247737
-0.0112523
-4.64072e-05
0.00866633
0.0143543
0.016634
0.0156337
0.0121561
0.00516313
-0.00514455
-0.0188039
-0.0378299
-0.0659731
-0.0997309
-0.126312
-0.132353
-0.118866
-0.0932115
-0.066649
-0.0449077
-0.0278163
-0.0169069
-0.0100644
-0.00793641
-0.00525658
-0.0055427
-0.00867352
-0.0175424
-0.0377732
-0.0622529
-0.0843329
-0.0798449
-0.0653246
-0.048725
-0.027969
-0.0141448
0.00300133
0.0047249
-0.190303
-0.195836
-0.197699
-0.199286
-0.202665
-0.207963
-0.212415
-0.216956
-0.220523
-0.222048
-0.22065
-0.215646
-0.206627
-0.19359
-0.176976
-0.157587
-0.136424
-0.114542
-0.0928837
-0.0722018
-0.0530151
-0.0356381
-0.0201924
-0.00675667
0.00466788
0.0140023
0.0208317
0.0244898
0.0252016
0.0214249
0.015229
0.00629332
-0.00609594
-0.0245583
-0.0538612
-0.0905273
-0.120291
-0.128869
-0.112898
-0.0871445
-0.0614666
-0.0407323
-0.024425
-0.0140399
-0.00731781
-0.00514835
-0.00200711
-0.000166397
-0.0045151
-0.0131821
-0.0346668
-0.0612425
-0.0858147
-0.0815711
-0.0654705
-0.0481695
-0.0273493
-0.0137166
0.00380865
0.00526531
-0.180391
-0.188076
-0.189883
-0.190038
-0.191382
-0.193747
-0.197906
-0.20124
-0.20326
-0.20333
-0.20088
-0.19544
-0.186721
-0.174729
-0.1598
-0.142543
-0.123726
-0.104173
-0.0846399
-0.0657616
-0.0480062
-0.031681
-0.0169531
-0.00394942
0.0073641
0.0169709
0.0244359
0.0288137
0.0294626
0.0271585
0.0222158
0.0148047
0.00377222
-0.013997
-0.043892
-0.0817308
-0.111602
-0.118542
-0.103293
-0.0791266
-0.0554362
-0.036416
-0.0213277
-0.011508
-0.00490787
-0.0027877
0.000386957
0.000792869
-0.00165306
-0.00993972
-0.0319954
-0.0600022
-0.0861585
-0.0818989
-0.0646955
-0.0470517
-0.0264568
-0.0131346
0.00447714
0.00559633
-0.169113
-0.178045
-0.180077
-0.179385
-0.179431
-0.180981
-0.183528
-0.185509
-0.186228
-0.185251
-0.182204
-0.176764
-0.168702
-0.157973
-0.144774
-0.129527
-0.11281
-0.0952756
-0.0775591
-0.0602201
-0.0436968
-0.0283058
-0.0142275
-0.00162112
0.00948055
0.019058
0.0268024
0.0318597
0.0334083
0.031898
0.0279452
0.0216207
0.0113089
-0.00635345
-0.036003
-0.0722851
-0.100255
-0.106501
-0.0926502
-0.0707833
-0.0493511
-0.0320819
-0.018213
-0.00901759
-0.00261975
-0.000545636
0.00260484
0.00292187
0.000650501
-0.00759743
-0.0299189
-0.0584073
-0.0852731
-0.0813176
-0.0633026
-0.0455039
-0.025357
-0.0124417
0.00504655
0.00581897
-0.157476
-0.166639
-0.168944
-0.168031
-0.167406
-0.168076
-0.169429
-0.170382
-0.170243
-0.168635
-0.165287
-0.15997
-0.152499
-0.142809
-0.13102
-0.117441
-0.102522
-0.0867889
-0.0707621
-0.0549168
-0.039639
-0.0252335
-0.011884
0.000234501
0.0110223
0.0204265
0.0282708
0.0338466
0.0362808
0.0358214
0.0330796
0.0279397
0.018338
0.000904772
-0.0277297
-0.0618843
-0.0879065
-0.0935121
-0.0812197
-0.0619577
-0.0430002
-0.0275995
-0.0150593
-0.00658251
-0.000451458
0.00160065
0.00472703
0.0051152
0.00280527
-0.00543204
-0.027644
-0.0559221
-0.0832348
-0.0798505
-0.061344
-0.0435163
-0.0240268
-0.011622
0.00551169
0.00595544
-0.145379
-0.154479
-0.157111
-0.156277
-0.15526
-0.155225
-0.155769
-0.156014
-0.155302
-0.153285
-0.149771
-0.144608
-0.137666
-0.128891
-0.118354
-0.10628
-0.0930011
-0.0789258
-0.0644714
-0.0500375
-0.0359631
-0.0225401
-0.00995899
0.001602
0.0120053
0.0211435
0.0288985
0.0347017
0.0379243
0.0385597
0.0371607
0.033507
0.0251023
0.00837468
-0.0191173
-0.0511896
-0.0747119
-0.0795788
-0.06917
-0.0528772
-0.0365792
-0.023092
-0.0119152
-0.00421656
0.00159317
0.00364512
0.00673398
0.00718174
0.00488162
-0.00308967
-0.0247278
-0.0524101
-0.0799202
-0.0773009
-0.0587337
-0.0410749
-0.0224564
-0.0106781
0.00586641
0.00599508
-0.13307
-0.142074
-0.14495
-0.144264
-0.143062
-0.142588
-0.142601
-0.142356
-0.141258
-0.139002
-0.135451
-0.130515
-0.124108
-0.116184
-0.10678
-0.0960477
-0.0842321
-0.0716489
-0.0586353
-0.0455281
-0.0326219
-0.0201861
-0.00841134
0.00252365
0.0124671
0.0212689
0.0288262
0.0347164
0.038441
0.0399586
0.0397406
0.0375543
0.0305529
0.0148329
-0.0111154
-0.0403114
-0.0607672
-0.0651374
-0.0569655
-0.0438235
-0.0302312
-0.0186375
-0.00881195
-0.00192783
0.00350865
0.00557572
0.00862321
0.00913061
0.00687796
-0.000552978
-0.0212039
-0.0478703
-0.0751428
-0.0735054
-0.0554245
-0.0382018
-0.0206511
-0.00961067
0.0061076
0.00592812
-0.121084
-0.129721
-0.132695
-0.132193
-0.130977
-0.130267
-0.129939
-0.129374
-0.128052
-0.12571
-0.122243
-0.117601
-0.111728
-0.104587
-0.0961962
-0.086657
-0.0761506
-0.0649219
-0.0532405
-0.0413857
-0.0296107
-0.0181578
-0.00721293
0.00304458
0.0124606
0.0208715
0.0281622
0.0340062
0.0380019
0.0401116
0.0406915
0.0395155
0.0336725
0.0194141
-0.00386932
-0.0292131
-0.0465166
-0.0508252
-0.0451019
-0.0350776
-0.0241061
-0.0143278
-0.00579082
0.000275042
0.00529726
0.00738925
0.0104042
0.0109852
0.00878568
0.00207246
-0.0171805
-0.0422847
-0.0688436
-0.0683945
-0.0514076
-0.0349414
-0.018632
-0.00842123
0.00623646
0.0057532
-0.1095
-0.11757
-0.120563
-0.120268
-0.119138
-0.118332
-0.117813
-0.117073
-0.115662
-0.113347
-0.11005
-0.105742
-0.100393
-0.0939779
-0.0865028
-0.0780375
-0.0687142
-0.0587205
-0.0482699
-0.0375928
-0.0269052
-0.0164228
-0.00632194
0.00322245
0.0120574
0.0200205
0.0269832
0.0326808
0.0367782
0.0392248
0.0402139
0.0395072
0.0345687
0.0223769
0.00277839
-0.0182775
-0.0327582
-0.0374183
-0.0340877
-0.0269075
-0.018336
-0.0102423
-0.00289418
0.00238476
0.00696972
0.00908929
0.0120908
0.0127683
0.0106134
0.00474677
-0.0126746
-0.0357198
-0.0611259
-0.0619975
-0.046711
-0.0313609
-0.0164383
-0.00711173
0.00626058
0.00547866
-0.0982921
-0.105798
-0.108767
-0.108666
-0.107667
-0.106858
-0.10626
-0.105454
-0.104049
-0.101841
-0.0987705
-0.0948253
-0.0899929
-0.0842567
-0.077619
-0.0701266
-0.0618752
-0.053008
-0.0436938
-0.0341218
-0.0244754
-0.0149437
-0.00569029
0.0031185
0.0113327
0.0187964
0.0253748
0.030845
0.0349162
0.0375169
0.0386874
0.0381785
0.0340718
0.0242199
0.00854374
-0.00841406
-0.0204703
-0.0256318
-0.024323
-0.0195175
-0.0130218
-0.00644354
-0.00016573
0.004389
0.00853694
0.0106838
0.0136991
0.0145163
0.0124217
0.00752508
-0.00771551
-0.0283854
-0.0522501
-0.0544648
-0.0414096
-0.0275467
-0.0141244
-0.00568456
0.00619695
0.00512485
-0.0876558
-0.0945771
-0.0974537
-0.0975113
-0.0966614
-0.095906
-0.0953046
-0.0945068
-0.0931741
-0.0911298
-0.0883251
-0.0847602
-0.0804333
-0.0753355
-0.0694668
-0.0628589
-0.0555813
-0.0477437
-0.0394793
-0.0309423
-0.0222876
-0.0136792
-0.00526584
0.00279701
0.0103653
0.0172917
0.0234367
0.0286108
0.0325636
0.0352007
0.0364572
0.0360895
0.0327674
0.0250666
0.012896
-0.000517572
-0.0107734
-0.0158703
-0.0160012
-0.0130212
-0.00822982
-0.00297479
0.00235451
0.00626902
0.0099995
0.0121774
0.0152427
0.016284
0.014323
0.0104776
-0.00242679
-0.0206155
-0.0426246
-0.0460864
-0.0356332
-0.023598
-0.0117548
-0.00414516
0.0060774
0.00472719
-0.0777083
-0.0839745
-0.0866956
-0.0868776
-0.0861808
-0.085521
-0.0849663
-0.0842269
-0.0830114
-0.0811658
-0.0786504
-0.0754712
-0.0716339
-0.067135
-0.0619741
-0.0561731
-0.049783
-0.0428874
-0.0355915
-0.0280208
-0.020305
-0.0125852
-0.00499519
0.00232293
0.00923408
0.0155989
0.021277
0.0261064
0.0298725
0.0324638
0.0337551
0.0335224
0.0308831
0.024943
0.0156372
0.00519803
-0.00335117
-0.00810523
-0.00912269
-0.00744995
-0.00399482
0.000137984
0.00463393
0.00800423
0.0113461
0.0135583
0.016716
0.0181185
0.0164318
0.0136418
0.00298608
-0.0128419
-0.0327858
-0.0372802
-0.0295676
-0.0196175
-0.00939387
-0.00250958
0.00594915
0.00433822
-0.0683906
-0.0740112
-0.0765576
-0.0768399
-0.0762816
-0.0757449
-0.0752648
-0.0746122
-0.0735392
-0.0719108
-0.0696928
-0.0668945
-0.0635257
-0.0595868
-0.0550779
-0.0500142
-0.0444331
-0.038399
-0.0319947
-0.0253222
-0.0184895
-0.0116175
-0.00482462
0.00176144
0.00801431
0.0138054
0.0190037
0.0234598
0.0269879
0.0294713
0.0307618
0.0306646
0.0286079
0.0240647
0.0170315
0.00905762
0.00235867
-0.00210517
-0.0035771
-0.00277719
-0.000327375
0.0028834
0.00664948
0.00957232
0.0125653
0.0147987
0.0180601
0.0199975
0.0187896
0.0169897
0.00824643
-0.00556656
-0.023331
-0.0285322
-0.0234413
-0.0157039
-0.00709853
-0.000815226
0.00586598
0.00402254
-0.0597032
-0.0647351
-0.0671076
-0.0674858
-0.0671122
-0.0666292
-0.0662152
-0.0656588
-0.0647374
-0.0633302
-0.0614065
-0.058976
-0.0560502
-0.0526323
-0.0487225
-0.0443316
-0.0394874
-0.0342395
-0.0286533
-0.0228117
-0.0168043
-0.0107335
-0.00470356
0.0011723
0.00678009
0.0120016
0.0167135
0.02078
0.0240415
0.0263824
0.0276546
0.0277003
0.0261509
0.0227209
0.0174591
0.0114327
0.00643725
0.00235945
0.000786793
0.00105841
0.00278076
0.0052606
0.00839105
0.0109471
0.0136427
0.0158697
0.0191724
0.0218107
0.0212169
0.0202672
0.0129627
0.000743287
-0.0147775
-0.0203066
-0.0175076
-0.0119488
-0.00491576
0.000869367
0.00587234
0.00383821
-0.0516933
-0.0561557
-0.0583253
-0.0587435
-0.058464
-0.058108
-0.0577907
-0.0573451
-0.0565805
-0.0553915
-0.0537513
-0.0516693
-0.0491577
-0.0462207
-0.0428591
-0.0390805
-0.0349057
-0.030373
-0.0255343
-0.0204567
-0.0152145
-0.0098943
-0.00458571
0.000611781
0.00559695
0.0102621
0.0144926
0.0181681
0.0211537
0.023339
0.0245884
0.0247797
0.0236786
0.0211463
0.0172413
0.0125959
0.00779201
0.00546671
0.00413615
0.00413871
0.00535475
0.00727442
0.00986014
0.0121096
0.0145471
0.0167325
0.0199438
0.023428
0.0232198
0.0228943
0.0166678
0.00580671
-0.00745345
-0.0129727
-0.0120163
-0.00843471
-0.00288877
0.00244281
0.00598836
0.00380833
-0.0443369
-0.0482544
-0.0502166
-0.0506612
-0.0504819
-0.0502257
-0.0499987
-0.0496616
-0.0490486
-0.0480667
-0.0466925
-0.0449349
-0.0428053
-0.0403085
-0.0374452
-0.0342212
-0.0306519
-0.026767
-0.0226077
-0.0182282
-0.0136898
-0.00906538
-0.004431
0.000126738
0.00451896
0.00864877
0.0124141
0.0157095
0.0184237
0.0204523
0.0216795
0.0220121
0.0213052
0.0195066
0.016682
0.0132713
0.00985664
0.00781538
0.00667804
0.00656171
0.00743393
0.00893536
0.0110627
0.0130507
0.0152495
0.0173393
0.0202
0.0222759
0.0242153
0.0242997
0.0190364
0.00956667
-0.00151608
-0.0067788
-0.00717981
-0.00523233
-0.00106446
0.00378001
0.00619751
0.00389942
-0.0375866
-0.0410114
-0.0427773
-0.0432365
-0.043146
-0.0429768
-0.042832
-0.0425933
-0.0421194
-0.0413283
-0.0401984
-0.0387372
-0.0369553
-0.0348573
-0.032444
-0.0297192
-0.0266945
-0.023393
-0.0198473
-0.0161011
-0.0122047
-0.0082186
-0.00420725
-0.000245598
0.00358986
0.00721327
0.0105377
0.0134704
0.0159249
0.0178019
0.0190068
0.0194711
0.0191045
0.0179033
0.0159429
0.0135397
0.0111353
0.00948815
0.00855991
0.00841892
0.00906519
0.0102605
0.0120075
0.0137653
0.0157331
0.0176969
0.020266
0.0225949
0.0242998
0.0243842
0.0200761
0.0121092
0.00300706
-0.00185938
-0.00313623
-0.00239723
0.000512242
0.00476245
0.0064233
0.00402122
-0.0314278
-0.0344102
-0.0359909
-0.0364542
-0.03644
-0.036354
-0.0362724
-0.0361179
-0.0357678
-0.0351481
-0.0342382
-0.0330438
-0.0315743
-0.029834
-0.0278233
-0.0255447
-0.0230067
-0.0202271
-0.0172317
-0.0140555
-0.0107393
-0.00733342
-0.00389135
-0.00047747
0.00284256
0.00599458
0.0089052
0.0114918
0.0137084
0.0154418
0.0166202
0.0171963
0.0171164
0.0163982
0.0151128
0.0134923
0.0118388
0.0106117
0.00990321
0.00979485
0.0102987
0.0112724
0.0127079
0.0142543
0.0159949
0.0177964
0.0200462
0.0222021
0.0235961
0.0234982
0.0200618
0.0135927
0.00621911
0.00181004
7.1737e-05
2.47404e-05
0.0018132
0.00534335
0.0065359
0.00404951
-0.025836
-0.028417
-0.0298218
-0.0302787
-0.0303235
-0.0302979
-0.030279
-0.0302016
-0.0299629
-0.0294965
-0.0287822
-0.0278248
-0.0266327
-0.0252096
-0.0235558
-0.0216726
-0.0195661
-0.0172499
-0.0147441
-0.0120767
-0.00928045
-0.00639661
-0.00346932
-0.000552363
0.00230023
0.00502262
0.00754718
0.00977743
0.0118058
0.0134027
0.0145456
0.0152076
0.0153565
0.0150194
0.0142536
0.0132336
0.0121471
0.0113024
0.0108103
0.0107664
0.0111851
0.0119986
0.0131811
0.0145281
0.0160429
0.017644
0.0195427
0.0213374
0.0223998
0.0220915
0.0193612
0.0142368
0.00833564
0.00439222
0.00248948
0.00199548
0.00282556
0.00557025
0.00641567
0.00388497
-0.0207692
-0.0229925
-0.0242358
-0.0246806
-0.0247733
-0.0248046
-0.024843
-0.0248267
-0.0246798
-0.0243448
-0.0238012
-0.0230516
-0.0221027
-0.020958
-0.0196175
-0.0180816
-0.0163545
-0.0144464
-0.0123726
-0.0101555
-0.00782103
-0.00540246
-0.00293531
-0.000463381
0.00197006
0.00431294
0.00652461
0.00858413
0.0102712
0.0116999
0.0127896
0.0135076
0.0138296
0.013781
0.013406
0.0128337
0.0121828
0.0116621
0.0113688
0.0114029
0.0117742
0.0124698
0.0134468
0.0146049
0.0158997
0.0172753
0.0188175
0.0202021
0.0209564
0.0204924
0.0183005
0.0142867
0.00960457
0.00604305
0.00421664
0.00350293
0.00356536
0.00551397
0.00601449
0.00351239
-0.0161912
-0.0181002
-0.0191974
-0.0196265
-0.0197573
-0.0198339
-0.019915
-0.0199545
-0.0198844
-0.0196616
-0.0192657
-0.0186964
-0.0179589
-0.017056
-0.0159878
-0.0147541
-0.0133575
-0.0118055
-0.0101098
-0.00828774
-0.00635957
-0.00435195
-0.00229307
-0.000218457
0.0018369
0.00382954
0.00572039
0.0074642
0.00899494
0.0102996
0.0113362
0.0120841
0.0125284
0.0126921
0.0126046
0.0123535
0.0120341
0.0117764
0.0116553
0.0117664
0.0121131
0.0127185
0.013529
0.0145099
0.0155943
0.0167329
0.0179433
0.0189495
0.0194397
0.0188879
0.0171038
0.0139574
0.0102679
0.00719343
0.00539459
0.00457224
0.00407317
0.00526397
0.0053929
0.00300269
-0.0120706
-0.0137042
-0.0146699
-0.0150809
-0.0152415
-0.0153551
-0.0154722
-0.0155531
-0.0155432
-0.0154163
-0.0151474
-0.0147334
-0.0141775
-0.0134825
-0.0126485
-0.0116751
-0.0105639
-0.00931984
-0.00795186
-0.00647326
-0.00489967
-0.00325203
-0.00155234
0.000170646
0.00188901
0.0035682
0.00517434
0.00666718
0.00801708
0.00919012
0.0101645
0.0109188
0.011441
0.0117522
0.0118721
0.0118581
0.0117732
0.0117163
0.0117344
0.0119122
0.0122462
0.0127791
0.013454
0.0142711
0.0151592
0.016069
0.0169876
0.0176775
0.0179538
0.0173672
0.015897
0.0134108
0.0105061
0.00792611
0.00613727
0.00526492
0.00439897
0.00490853
0.00467887
0.0024642
-0.00837291
-0.00976665
-0.0106153
-0.0110075
-0.0111916
-0.0113362
-0.0114848
-0.0116067
-0.0116556
-0.0115921
-0.0114244
-0.0111391
-0.0107364
-0.0102179
-0.00958328
-0.00883192
-0.00796445
-0.0069844
-0.00589805
-0.00471543
-0.00344846
-0.00211325
-0.000726764
0.000688431
0.00211042
0.00351102
0.00486447
0.00614038
0.00731176
0.00835534
0.00925061
0.00998835
0.0105521
0.0109563
0.0112097
0.0113641
0.0114478
0.0115378
0.0116607
0.0118896
0.0122148
0.0126858
0.0132489
0.0139182
0.0146295
0.0153325
0.0160035
0.016442
0.0165539
0.0159674
0.0147429
0.0127575
0.0104513
0.00829486
0.00659059
0.00565918
0.00458698
0.00452493
0.0039884
0.00197758
-0.00506394
-0.00625044
-0.00699593
-0.00736878
-0.00757041
-0.00773895
-0.00791145
-0.00806388
-0.00815807
-0.00816716
-0.00807398
-0.0078897
-0.00761351
-0.00724333
-0.00677706
-0.00621333
-0.00555234
-0.00479641
-0.00394985
-0.00301995
-0.00201567
-0.000949222
0.000166495
0.00131418
0.00247695
0.00363312
0.00476288
0.00584261
0.00685162
0.00777111
0.00858276
0.00927701
0.00984587
0.0102987
0.0106373
0.0108969
0.0110933
0.0112832
0.0114792
0.0117414
0.0120566
0.0124719
0.0129412
0.0134802
0.0140371
0.0145612
0.0150277
0.015277
0.0152666
0.0147001
0.0136683
0.0120649
0.010201
0.00840054
0.00680173
0.00582215
0.00466507
0.00416607
0.00338912
0.00157881
-0.00211269
-0.00312106
-0.00377597
-0.00412949
-0.00434331
-0.00452953
-0.00471908
-0.00489301
-0.00502054
-0.00507953
-0.00506036
-0.00496217
-0.00478935
-0.00454124
-0.00421526
-0.0038089
-0.00332147
-0.00275422
-0.00211003
-0.00139411
-0.000613047
0.000224066
0.00110765
0.0020248
0.00296272
0.00390498
0.00483631
0.0057385
0.00659602
0.00739318
0.00811575
0.00875596
0.00930603
0.00977191
0.010152
0.0104709
0.0107351
0.0109858
0.0112266
0.0115047
0.0118056
0.012169
0.0125582
0.0129851
0.0134104
0.0137863
0.0141005
0.014201
0.0140998
0.0135634
0.0126801
0.011369
0.00983009
0.00831782
0.00683973
0.0058201
0.0046529
0.00385302
0.00290937
0.0012753
0.000509918
-0.00034613
-0.000922009
-0.00125678
-0.0014788
-0.00167811
-0.00188025
-0.00207063
-0.00222476
-0.00232488
-0.00236298
-0.00233735
-0.00224824
-0.00209711
-0.00188606
-0.0016098
-0.00126685
-0.000857201
-0.000382432
0.00015381
0.000746765
0.00138984
0.00207599
0.00279575
0.00353964
0.00429548
0.00505173
0.00579462
0.00651198
0.00719166
0.0078227
0.00839839
0.00891083
0.00936325
0.00975235
0.0100947
0.0103911
0.0106711
0.0109323
0.0112106
0.0114919
0.0118061
0.0121258
0.0124569
0.0127719
0.013026
0.013214