/*--------------------------------*- C++ -*----------------------------------*\
| =========                 |                                                 |
| \\      /  F ield         | OpenFOAM: The Open Source CFD Toolbox           |
|  \\    /   O peration     | Version:  2512                                  |
|   \\  /    A nd           | Website:  www.openfoam.com                      |
|    \\/     M anipulation  |                                                 |
\*---------------------------------------------------------------------------*/
FoamFile
{
    version     2.0;
    format      ascii;
    arch        "LSB;label=32;scalar=64";
    class       surfaceScalarField;
    location    "112";
    object      phi;
}
// * * * * * * * * * * * * * * * * * * * * * * * * * * * * * * * * * * * * * //

dimensions      [0 3 -1 0 0 0 0];

oriented        oriented;

internalField   nonuniform List<scalar> 
26232
(
-4.10264e-05
0.000863998
-0.000822971
5.33219e-05
0.0015182
-0.00161255
0.000486564
0.00130171
-0.00173496
0.00145526
0.000285512
-0.0012542
0.00315084
-0.00150495
-0.000190637
0.00575824
-0.00406568
0.00145827
0.00944832
-0.00739865
0.00370857
0.0143668
-0.0114963
0.00657782
0.0206194
-0.016328
0.0100754
0.0282562
-0.0218306
0.0141938
0.0372588
-0.0279056
0.0189031
0.047533
-0.0344225
0.0241483
0.0589098
-0.0412274
0.0298506
0.071154
-0.048156
0.0359118
0.0839804
-0.0550471
0.0422206
0.097075
-0.0617554
0.0486608
0.110118
-0.0681623
0.0551189
0.122809
-0.0741835
0.0614927
0.134888
-0.0797702
0.067691
0.146149
-0.0849226
0.0736614
0.156465
-0.0896397
0.0793245
0.165743
-0.0940671
0.0847891
0.173951
-0.09801
0.0898018
-0.102213
0.0953636
0.180801
4.53912e-05
0.000818606
0.000394994
0.0011686
0.0012635
0.000433205
0.00286241
-0.00131339
0.00539636
-0.0040389
0.00905298
-0.0077223
0.0139863
-0.012332
0.0202966
-0.0178066
0.0280099
-0.0240412
0.0370629
-0.0308836
0.0472985
-0.0381413
0.0584735
-0.0455974
0.070278
-0.0530319
0.0823646
-0.0602427
0.0943814
-0.0670639
0.106005
-0.073379
0.116969
-0.0791265
0.127086
-0.0843002
0.136258
-0.0889421
0.14447
-0.0931346
0.151803
-0.0969734
0.158343
-0.100606
0.164337
-0.104004
-0.10769
0.169814
0.000138872
0.000679734
0.000772832
0.000534642
0.00212898
-0.000922947
0.004429
-0.00361341
0.00787694
-0.00748684
0.0126377
-0.0124831
0.0188099
-0.0185042
0.0263992
-0.0253959
0.0353007
-0.0329427
0.045297
-0.0408799
0.0560756
-0.0489199
0.0672622
-0.0567841
0.0784642
-0.0642339
0.0893158
-0.0710943
0.0995181
-0.0772662
0.108867
-0.0827276
0.117265
-0.0875247
0.124721
-0.0917559
0.131329
-0.0955501
0.137242
-0.0990479
0.142641
-0.102373
0.147689
-0.105654
0.152562
-0.108877
-0.112417
0.157288
0.000240418
0.000439316
0.00118607
-0.000411009
0.00307387
-0.00281075
0.006124
-0.00666354
0.0105159
-0.0118787
0.0163536
-0.0183208
0.0236313
-0.0257819
0.0322108
-0.0339753
0.0418221
-0.0425539
0.0520915
-0.0511493
0.0625906
-0.059419
0.0728958
-0.0670892
0.0826443
-0.0739824
0.0915765
-0.0800265
0.0995573
-0.0852469
0.106575
-0.0897449
0.112719
-0.0936692
0.118149
-0.0971857
0.123051
-0.100452
0.127603
-0.1036
0.131958
-0.106727
0.136209
-0.109905
0.140454
-0.113122
-0.116614
0.144651
0.000352964
8.63523e-05
0.0016378
-0.00169584
0.00409117
-0.00526412
0.00791046
-0.0104828
0.0132146
-0.0171828
0.0199993
-0.0251055
0.0281065
-0.0338891
0.0372248
-0.0430936
0.0469274
-0.0522566
0.0567385
-0.0609604
0.0662092
-0.0688897
0.0749839
-0.0758639
0.0828416
-0.0818401
0.089707
-0.0868919
0.095633
-0.0911729
0.100763
-0.094875
0.105285
-0.0981914
0.10939
-0.10129
0.11324
-0.104302
0.116957
-0.107317
0.120619
-0.110389
0.124267
-0.113554
0.127944
-0.116799
-0.120268
0.131598
0.000479141
-0.000392789
0.00212799
-0.00334469
0.00516296
-0.00829909
0.00972609
-0.015046
0.0158308
-0.0232875
0.0233179
-0.0325927
0.0318501
-0.0424213
0.0409565
-0.0522
0.0501157
-0.0614158
0.0588509
-0.0696957
0.0668066
-0.0768455
0.0737888
-0.0828461
0.079765
-0.0878163
0.0848312
-0.0919581
0.0891612
-0.095503
0.0929549
-0.0986686
0.0963969
-0.101633
0.0996343
-0.104528
0.10277
-0.107438
0.105868
-0.110415
0.108965
-0.113486
0.112077
-0.116665
0.115225
-0.119946
-0.123404
0.118361
0.000618894
-0.00101168
0.00264667
-0.00537246
0.00624922
-0.0119016
0.0114717
-0.0202684
0.0181767
-0.0299925
0.0260223
-0.0404382
0.0345049
-0.050904
0.0430576
-0.0607526
0.0511655
-0.0695237
0.0584569
-0.0769871
0.0647457
-0.0831342
0.0700218
-0.0881222
0.0744058
-0.0922002
0.0780879
-0.0956402
0.0812723
-0.0986873
0.084138
-0.101534
0.0868215
-0.104317
0.0894151
-0.107121
0.0919749
-0.109998
0.0945323
-0.112972
0.0971026
-0.116057
0.0996911
-0.119254
0.102305
-0.122561
-0.126007
0.104908
0.000768343
-0.00178003
0.00317149
-0.00777561
0.00728663
-0.0160168
0.0130185
-0.0260003
0.0200476
-0.0370216
0.0278558
-0.0482465
0.0358315
-0.0588797
0.0434076
-0.0683288
0.0501737
-0.0762898
0.0559268
-0.0827402
0.0606582
-0.0878656
0.0644977
-0.0919617
0.067644
-0.0953466
0.0703044
-0.0983006
0.072656
-0.101039
0.0748305
-0.103709
0.0769148
-0.106401
0.078961
-0.109168
0.0809977
-0.112034
0.083039
-0.115013
0.0850908
-0.118108
0.0871546
-0.121318
0.0892324
-0.124638
-0.128074
0.0912992
0.000920067
-0.00270009
0.00366983
-0.0105254
0.00819714
-0.0205441
0.0142313
-0.0320345
0.0212668
-0.0440571
0.0286558
-0.0556354
0.0357654
-0.0659893
0.04212
-0.0746834
0.0474712
-0.081641
0.0517882
-0.0870572
0.0551959
-0.0912733
0.0578961
-0.0946618
0.0601001
-0.0975505
0.0619875
-0.100188
0.0636903
-0.102742
0.0652945
-0.105313
0.0668507
-0.107957
0.0683864
-0.110703
0.0699155
-0.113563
0.0714443
-0.116542
0.0729753
-0.119639
0.0745086
-0.122851
0.0760436
-0.126173
-0.129596
0.0775654
0.00106405
-0.00376414
0.00410377
-0.0135651
0.0089018
-0.0253421
0.0149963
-0.038129
0.0217249
-0.0507857
0.0283842
-0.0622947
0.0344069
-0.072012
0.039466
-0.0797425
0.0434812
-0.0856562
0.0465556
-0.0901317
0.0488876
-0.0936053
0.0506936
-0.0964679
0.0521601
-0.099017
0.053424
-0.101452
0.0545744
-0.103892
0.0556633
-0.106402
0.0567185
-0.109013
0.0577544
-0.111739
0.058778
-0.114587
0.0597922
-0.117557
0.0607981
-0.120645
0.0617953
-0.123848
0.0627816
-0.12716
-0.130564
0.0637503
0.00118961
-0.00495375
0.00443724
-0.0168127
0.00933599
-0.0302409
0.0152427
-0.0440357
0.0213955
-0.0569385
0.0271163
-0.0680156
0.0319643
-0.07686
0.0357755
-0.0835537
0.0386081
-0.0884888
0.0406463
-0.0921699
0.0421105
-0.0950695
0.0431974
-0.0975547
0.044054
-0.0998736
0.0447764
-0.102174
0.0454207
-0.104536
0.0460169
-0.106998
0.0465801
-0.109576
0.0471182
-0.112277
0.0476351
-0.115104
0.0481325
-0.118054
0.0486108
-0.121123
0.0490688
-0.124306
0.0495035
-0.127594
-0.130973
0.0499125
0.00128958
-0.00624333
0.00464452
-0.0201677
0.00946123
-0.0350576
0.0149522
-0.0495267
0.0203287
-0.062315
0.0250047
-0.0726915
0.0286916
-0.0805469
0.0313696
-0.0862317
0.0331901
-0.0903093
0.0343712
-0.093351
0.0351215
-0.0958198
0.0356028
-0.098036
0.0359228
-0.100194
0.036145
-0.102397
0.0363033
-0.104695
0.0364147
-0.107109
0.0364876
-0.109649
0.0365265
-0.112316
0.0365342
-0.115112
0.0365122
-0.118032
0.0364611
-0.121072
0.0363797
-0.124225
0.0362648
-0.127479
0.0361166
-0.130825
-0.000283616
-0.00201071
0.00229433
-0.000991024
-0.00451051
0.00521792
-0.00203439
-0.00593514
0.0069785
-0.00334722
-0.00655237
0.00786521
-0.00487861
-0.00659304
0.00812442
-0.00659097
-0.00624171
0.00795407
-0.00845694
-0.00562955
0.00749552
-0.0104558
-0.00483429
0.00683312
-0.01257
-0.00388711
0.00600135
-0.0147828
-0.0027838
0.0049966
-0.0170768
-0.00149586
0.00378983
-0.0194291
1.25422e-05
0.00233976
-0.0217976
0.00178715
0.000581369
-0.0241812
0.00385988
-0.00147635
-0.0265236
0.0062692
-0.00392672
-0.0287791
0.00903736
-0.00678185
-0.0308926
0.0121748
-0.0100613
-0.0328008
0.0156769
-0.0137688
-0.0344335
0.0195212
-0.0178885
-0.0357168
0.0236651
-0.0223817
-0.0365777
0.0280453
-0.0271845
-0.0369474
0.0325782
-0.0322084
-0.036774
0.0371731
-0.0373465
0.0417685
-0.0360743
-0.0424682
-0.000316005
-0.00169471
-0.00108197
-0.00374454
-0.0021844
-0.00483271
-0.0035409
-0.00519587
-0.00509232
-0.00504162
-0.00679745
-0.00453657
-0.00862739
-0.00379961
-0.0105598
-0.0029019
-0.0125741
-0.00187281
-0.0146481
-0.00070976
-0.0167535
0.000609545
-0.0188594
0.00211844
-0.0209238
0.00385158
-0.0229035
0.00583958
-0.024741
0.00810669
-0.0263703
0.0106666
-0.0277158
0.0135203
-0.0286926
0.0166537
-0.0292077
0.0200363
-0.0291623
0.0236197
-0.0284573
0.0273403
-0.0270004
0.0311213
-0.0247067
0.0348795
0.0385606
-0.0214987
-0.000325583
-0.00136912
-0.0010995
-0.00297062
-0.00219085
-0.00374136
-0.00350448
-0.00388224
-0.00497273
-0.00357337
-0.00654855
-0.00296076
-0.00819825
-0.00214991
-0.00989456
-0.00120559
-0.0116108
-0.000156603
-0.0133163
0.000995717
-0.0149745
0.00226782
-0.016541
0.00368488
-0.0179624
0.00527305
-0.0191771
0.0070543
-0.0201135
0.00904303
-0.02069
0.0112431
-0.0208155
0.0136458
-0.02039
0.0162283
-0.019306
0.0189522
-0.0174499
0.0217636
-0.0147052
0.0245955
-0.0109596
0.0273758
-0.00611992
0.0300397
0.0326421
-0.000201455
-0.000318636
-0.00105049
-0.00106451
-0.00222475
-0.00209562
-0.00271026
-0.00330635
-0.00267151
-0.00462015
-0.00225957
-0.00598219
-0.00159872
-0.00735149
-0.000780608
-0.00869348
0.000136399
-0.0099736
0.00112352
-0.0111528
0.00217494
-0.0121847
0.00329974
-0.013014
0.00451416
-0.0135761
0.00583513
-0.0137972
0.0072754
-0.0135944
0.00884018
-0.012876
0.0105248
-0.0115427
0.0123125
-0.00948777
0.0141734
-0.00660023
0.0160647
-0.00276473
0.0179281
0.00213666
0.0196942
0.00822517
0.0212873
0.0156271
0.0226378
0.02371
0.0245593
-0.000303211
-0.000747277
-0.00100232
-0.00152564
-0.00194809
-0.00176448
-0.00302613
-0.00159347
-0.00415098
-0.00113473
-0.0052589
-0.000490797
-0.00630021
0.000260698
-0.00723177
0.00106797
-0.0080108
0.00190255
-0.00859011
0.00275425
-0.00891524
0.00362486
-0.00892298
0.0045219
-0.00854111
0.00545327
-0.00768883
0.00642312
-0.00627745
0.0074288
-0.00421163
0.00845894
-0.00139097
0.00949182
0.00228791
0.0104945
0.00693183
0.0114207
0.0126467
0.0122133
0.0195392
0.0128017
0.0277211
0.0131053
0.0372803
0.0130786
0.0124142
0.0485761
-0.000286466
-0.00046081
-0.000935017
-0.000877093
-0.00179079
-0.000908713
-0.00273192
-0.000652339
-0.00366456
-0.000202081
-0.00451608
0.000360725
-0.00522771
0.000972322
-0.00574758
0.00158784
-0.00602482
0.00217979
-0.00600506
0.00273449
-0.00562757
0.00324738
-0.00482393
0.00371825
-0.00351772
0.00414706
-0.0016253
0.00453071
0.000943098
0.00486039
0.00428224
0.0051198
0.00848994
0.00528412
0.0136656
0.00531886
0.0199074
0.00517893
0.0273115
0.00480915
0.0359672
0.00414598
0.0459911
0.00308142
0.0573559
0.00171375
-0.000930405
0.0707006
-0.000272284
-0.000188526
-0.000874157
-0.00027522
-0.00164526
-0.000137606
-0.0024573
0.000159701
-0.00320886
0.000549474
-0.00381876
0.000970632
-0.00421922
0.00137277
-0.00434932
0.00171794
-0.00414963
0.00198011
-0.00355806
0.00214292
-0.00250713
0.00219644
-0.000922629
0.00213376
0.00127632
0.00194811
0.00417721
0.00162982
0.00787265
0.00116495
0.0124588
0.000533598
0.0180338
-0.000290846
0.0246959
-0.00134318
0.0325415
-0.00266672
0.0416644
-0.00431377
0.0521355
-0.00632507
0.0641026
-0.00888568
0.0773638
-0.0115475
-0.0163559
0.0927893
-0.000259882
7.13564e-05
-0.000816497
0.000281395
-0.00150364
0.000549533
-0.00218697
0.000843032
-0.00275757
0.00112008
-0.0031252
0.00133826
-0.0032116
0.00145918
-0.00294451
0.00145084
-0.00225252
0.00128812
-0.0010616
0.000952007
0.000707555
0.000427283
0.00314087
-0.000299557
0.00632975
-0.00124077
0.0103716
-0.00241202
0.0153672
-0.00383067
0.0214188
-0.00551799
0.0286275
-0.00749955
0.0370898
-0.00980548
0.0468927
-0.0124696
0.058117
-0.0155381
0.0707947
-0.0190027
0.0850609
-0.0231519
0.100589
-0.0270761
-0.0338968
0.11813
-0.000244139
0.000315496
-0.000744981
0.000782236
-0.00133021
0.00113476
-0.00185871
0.00137153
-0.0022123
0.00147367
-0.00228868
0.00141464
-0.00199491
0.00116541
-0.00124176
0.000697697
6.11077e-05
-1.47536e-05
0.00200656
-0.000993449
0.00469337
-0.00225952
0.00822442
-0.00383061
0.0127064
-0.00572275
0.0182454
-0.00795101
0.0249441
-0.0105294
0.0328972
-0.013471
0.042186
-0.0167884
0.0528738
-0.0204932
0.0649982
-0.024594
0.0785711
-0.0291111
0.0935491
-0.0339807
0.109907
-0.0395099
0.127392
-0.0445612
-0.0526076
0.146103
-0.000217875
0.00053337
-0.000635643
0.0012
-0.00107495
0.00157407
-0.00138578
0.00168236
-0.0014369
0.00152479
-0.00110881
0.00108655
-0.0002877
0.000344296
0.00113909
-0.000729093
0.003285
-0.00216066
0.00626704
-0.00397549
0.0102016
-0.00619404
0.015202
-0.00883101
0.0213734
-0.0118942
0.0288064
-0.015384
0.0375701
-0.0192931
0.0477062
-0.0236071
0.059223
-0.0283051
0.0720911
-0.0333613
0.0862397
-0.0387427
0.101553
-0.0444246
0.117883
-0.0503107
0.134963
-0.0565897
0.152736
-0.0623339
-0.070278
0.170406
-0.000175249
0.00070862
-0.000468168
0.00149292
-0.000694487
0.00180039
-0.000692438
0.00168031
-0.000313459
0.00114581
0.000583822
0.000189269
0.00213755
-0.00120943
0.00448465
-0.00307619
0.00775973
-0.00543574
0.0120906
-0.00830639
0.0175921
-0.0116955
0.0243573
-0.0155962
0.0324493
-0.0199863
0.041893
-0.0248276
0.0526683
-0.0300684
0.064707
-0.0356459
0.0778918
-0.0414899
0.0920583
-0.0475279
0.106999
-0.0536837
0.122475
-0.0598999
0.138238
-0.0660738
0.153936
-0.0722874
0.169604
-0.0780026
-0.0846789
0.184005
-0.000114351
-0.000233981
-0.000168548
0.000257563
0.00121273
0.00286028
0.00535942
0.00886105
0.0135007
0.019388
0.0265956
0.0351477
0.0450121
0.0560963
0.0682485
0.0812634
0.0948924
0.108857
0.122865
0.136626
0.149877
0.162378
0.174178
0.184862
-0.0327582
0.0616222
-0.0649384
-0.0282644
0.0686096
-0.0731034
-0.0224261
0.0740923
-0.0799306
-0.0151064
0.0773438
-0.0846635
-0.0062347
0.0775737
-0.0864454
0.00413858
0.0740253
-0.0843985
0.0157804
0.0660938
-0.0777356
0.0282139
0.0533766
-0.0658101
0.041042
0.0358264
-0.0486545
0.0537599
0.0135625
-0.0262804
0.0660079
-0.012864
0.000615905
0.0777748
-0.0428159
0.031049
0.0888996
-0.0745626
0.0634378
0.0989813
-0.104915
0.0948337
0.10731
-0.129979
0.12165
0.113203
-0.147041
0.141148
0.116445
-0.155819
0.152578
0.11718
-0.157907
0.157172
0.115193
-0.156243
0.15823
0.110044
-0.155254
0.160403
0.102584
-0.158078
0.165538
0.0958765
-0.161094
0.167802
0.0937324
-0.152667
0.154811
0.09789
-0.121015
0.116857
0.107315
-0.0647748
0.0553497
0.119463
0.00505431
-0.0172017
0.131615
0.0728023
-0.0849548
0.141559
0.126298
-0.136242
0.148274
0.161407
-0.168121
0.152052
0.180133
-0.183911
0.153107
0.18773
-0.188785
0.150656
0.195168
-0.192717
0.144486
0.209628
-0.203458
0.136852
0.22344
-0.215806
0.131569
0.211146
-0.205863
0.13117
0.153967
-0.153568
0.135445
0.0590257
-0.0633012
0.142229
-0.045721
0.0389374
0.149274
-0.129158
0.122114
0.154711
-0.183743
0.178306
0.156609
-0.207869
0.20597
0.153245
-0.227146
0.23051
0.145343
-0.238671
0.246573
0.137047
-0.241224
0.24952
0.133029
-0.198024
0.202042
0.135334
-0.105684
0.103379
0.142193
0.00199069
-0.00884987
0.148923
0.114581
-0.121311
0.150954
0.176525
-0.178556
0.147184
0.255584
-0.251813
0.14118
0.271054
-0.26505
0.138381
0.263671
-0.260872
0.140621
0.17694
-0.17918
0.144835
0.0290313
-0.0332452
0.146323
-0.051337
0.0498485
0.144181
-0.235936
0.238079
0.142111
-0.249065
0.251134
0.141057
-0.307981
0.309036
0.139825
-0.238107
0.239338
0.0291438
-0.0273518
-0.0161087
0.0562321
-0.00947493
0.0619759
-0.00156117
0.0661785
0.00761387
0.0681688
0.0179444
0.0672432
0.0292061
0.0627636
0.0410669
0.054233
0.053089
0.0413545
0.0648558
0.0240596
0.0759944
0.0024239
0.086339
-0.0232085
0.0958759
-0.0523528
0.104479
-0.0831658
0.11175
-0.112187
0.1171
-0.135328
0.120051
-0.149993
0.120578
-0.156346
0.119119
-0.156447
0.115789
-0.152913
0.109913
-0.149377
0.101402
-0.149568
0.0925978
-0.15229
0.0877611
-0.147831
0.0899642
-0.123218
0.0989136
-0.0737242
0.112047
-0.00807865
0.125914
0.0589349
0.137895
0.114316
0.146709
0.152593
0.152378
0.174465
0.154855
0.185252
0.153473
0.19655
0.148395
0.214706
0.141938
0.229897
0.137391
0.215693
0.136838
0.154519
0.140148
0.0557152
0.145436
-0.0510082
0.150767
-0.134489
0.154669
-0.187646
0.155585
-0.208784
0.151734
-0.223295
0.143499
-0.230436
0.134869
-0.232594
0.130899
-0.194054
0.133753
-0.108538
0.141475
-0.00573073
0.148816
0.10724
0.151258
0.174083
0.147776
0.259065
0.141825
0.277005
0.138958
0.266537
0.14104
0.174859
0.145425
0.0246461
0.146984
-0.0528962
0.144689
-0.233641
0.142505
-0.246881
0.141326
-0.306802
0.13996
-0.236741
0.031023
0.00688592
0.0491447
0.0149588
0.053903
0.0240279
0.0571095
0.0340192
0.0581774
0.0447378
0.0565245
0.0558871
0.0516144
0.0671085
0.0430116
0.0780132
0.0304498
0.0882443
0.0138285
0.0975439
-0.00687572
0.105855
-0.0315193
0.113128
-0.0596261
0.119198
-0.0892355
0.123644
-0.116633
0.126018
-0.137703
0.126137
-0.150111
0.124205
-0.154414
0.120817
-0.15306
0.116371
-0.148467
0.110204
-0.14321
0.101421
-0.140785
0.0912671
-0.142136
0.0839052
-0.140469
0.0836605
-0.122973
0.0914663
-0.08153
0.104907
-0.0215195
0.120101
0.0437408
0.133942
0.100476
0.144834
0.141701
0.152433
0.166866
0.156457
0.181229
0.156396
0.196611
0.152698
0.218403
0.147525
0.235071
0.143635
0.219584
0.142711
0.155443
0.144863
0.0535628
0.148565
-0.05471
0.152161
-0.138085
0.15453
-0.190015
0.154529
-0.208783
0.150362
-0.219128
0.141997
-0.222072
0.133131
-0.223728
0.129147
-0.19007
0.132388
-0.111778
0.140822
-0.0141653
0.148737
0.0993254
0.151657
0.171163
0.14855
0.262173
0.142687
0.282869
0.139722
0.269502
0.141594
0.172986
0.146133
0.0201075
0.147788
-0.0545517
0.145312
-0.231165
0.142976
-0.244545
0.141694
-0.30552
0.140241
-0.235289
0.0329642
0.0323672
0.0413368
0.041046
0.0452243
0.0504956
0.0476598
0.0605624
0.0481107
0.0709819
0.046105
0.0814337
0.0411625
0.0915826
0.0328628
0.101114
0.0209187
0.109719
0.00522286
0.117327
-0.014483
0.123776
-0.0379685
0.128997
-0.0648476
0.132702
-0.0929408
0.134438
-0.118369
0.133929
-0.137193
0.131357
-0.14754
0.127235
-0.150291
0.122205
-0.14803
0.116808
-0.14307
0.110634
-0.137037
0.10232
-0.132471
0.0918183
-0.131634
0.0824545
-0.131105
0.0793824
-0.119901
0.0852214
-0.0873689
0.0981056
-0.0344038
0.114179
0.0276677
0.129649
0.0850059
0.142552
0.128798
0.152096
0.157322
0.157791
0.175533
0.159297
0.195106
0.157212
0.220488
0.153419
0.238864
0.150088
0.222914
0.148679
0.156852
0.14946
0.0527825
0.151552
-0.0568027
0.153441
-0.139973
0.154299
-0.190873
0.153416
-0.2079
0.149061
-0.214773
0.140762
-0.213773
0.131777
-0.214742
0.127712
-0.186006
0.131178
-0.115244
0.140182
-0.0231694
0.148654
0.0908534
0.152135
0.167683
0.149506
0.264801
0.14379
0.288585
0.140703
0.272589
0.142302
0.171387
0.146949
0.0154602
0.148723
-0.0563259
0.146046
-0.228487
0.143519
-0.242018
0.142149
-0.304151
0.140655
-0.233795
0.0349403
0.0567671
0.0331457
0.0655342
0.0364571
0.0748359
0.0383582
0.0845164
0.0384302
0.0942878
0.0363337
0.103833
0.0316169
0.112855
0.0238407
0.121051
0.0127234
0.128515
-0.00224109
0.134706
-0.0206743
0.139674
-0.0429363
0.143112
-0.0682856
0.144566
-0.0943952
0.143647
-0.117449
0.140394
-0.13394
0.135396
-0.142542
0.129451
-0.144346
0.123189
-0.141767
0.117073
-0.136954
0.110983
-0.130946
0.103587
-0.125076
0.09374
-0.121787
0.0833253
-0.12069
0.0774653
-0.114041
0.0804787
-0.0903823
0.091954
-0.0458791
0.108229
0.0113925
0.124975
0.0682598
0.139724
0.114049
0.151175
0.145871
0.158644
0.168064
0.161933
0.191816
0.161667
0.220754
0.159347
0.241184
0.156546
0.225715
0.154506
0.158893
0.153877
0.053411
0.15432
-0.057246
0.154562
-0.140215
0.153951
-0.190262
0.152218
-0.206167
0.147777
-0.210332
0.139721
-0.205716
0.130735
-0.205756
0.126535
-0.181806
0.130059
-0.118768
0.139498
-0.032608
0.148521
0.08183
0.152661
0.163543
0.150631
0.266831
0.145144
0.294072
0.141922
0.275812
0.143165
0.170144
0.147865
0.0107605
0.149773
-0.0582338
0.146882
-0.225596
0.14413
-0.239267
0.142683
-0.302704
0.141186
-0.232298
0.0369229
0.0786668
0.0251795
0.0870419
0.0280821
0.095838
0.0295621
0.104885
0.0293832
0.113885
0.0273338
0.122551
0.0229511
0.130653
0.0157379
0.137908
0.00546909
0.144314
-0.00864719
0.149474
-0.0258339
0.153173
-0.0466355
0.15493
-0.070043
0.154207
-0.0936727
0.150793
-0.114035
0.145106
-0.128253
0.138085
-0.135521
0.13073
-0.136991
0.123648
-0.134685
0.117104
-0.13041
0.111107
-0.124949
0.104732
-0.118701
0.096313
-0.113368
0.086055
-0.110432
0.0780399
-0.106026
0.0777222
-0.0900646
0.0867672
-0.0549241
0.102409
-0.00424933
0.119905
0.0507639
0.136205
0.0977491
0.149447
0.132628
0.158748
0.158764
0.163983
0.186581
0.165711
0.219027
0.164984
0.241911
0.162737
0.227962
0.16003
0.161599
0.157963
0.055478
0.156782
-0.0560651
0.155467
-0.1389
0.153454
-0.188249
0.150895
-0.203608
0.146442
-0.205879
0.138778
-0.198052
0.129912
-0.19689
0.125538
-0.177432
0.128959
-0.122189
0.138698
-0.0423471
0.14828
0.0722487
0.153187
0.158635
0.151892
0.268126
0.146737
0.299227
0.143384
0.279165
0.1442
0.169328
0.148857
0.00610312
0.150917
-0.060294
0.147809
-0.222488
0.144806
-0.236263
0.143286
-0.301184
0.14182
-0.230832
0.0388814
0.0996141
0.0183547
0.106952
0.0207443
0.114797
0.0217169
0.122908
0.0212723
0.130979
0.0192633
0.138744
0.0151857
0.145908
0.00857383
0.15256
-0.00118306
0.157929
-0.0140155
0.162013
-0.0299185
0.164302
-0.0489241
0.164214
-0.0699551
0.161278
-0.0907366
0.155564
-0.108321
0.147852
-0.12054
0.13931
-0.126979
0.130995
-0.128677
0.123463
-0.127154
0.116786
-0.123732
0.11091
-0.119074
0.105377
-0.113167
0.0986921
-0.106684
0.0897601
-0.1015
0.0808133
-0.0970792
0.0772933
-0.0865446
0.0830351
-0.060666
0.0968849
-0.0180991
0.114467
0.0331824
0.131885
0.0803308
0.146716
0.117796
0.157835
0.147645
0.165119
0.179297
0.168982
0.215164
0.169961
0.240932
0.168389
0.229534
0.165106
0.164882
0.161567
0.0590173
0.158851
-0.0533491
0.156089
-0.136138
0.152773
-0.184933
0.149408
-0.200243
0.144988
-0.201459
0.137838
-0.190903
0.129204
-0.188256
0.124632
-0.17286
0.127803
-0.12536
0.137709
-0.052253
0.147862
0.0620958
0.153652
0.152845
0.15324
0.268538
0.148541
0.303926
0.145079
0.282627
0.145387
0.169021
0.14992
0.0015694
0.152132
-0.0625057
0.148816
-0.219172
0.14554
-0.232988
0.143948
-0.299592
0.142542
-0.229425
0.0407832
0.122816
0.0136687
0.128329
0.0152319
0.13454
0.0155057
0.141111
0.0147008
0.147768
0.0126063
0.154291
0.00866302
0.160252
0.00261252
0.165689
-0.00661991
0.169756
-0.0180825
0.17231
-0.0324724
0.172766
-0.0493805
0.170564
-0.0677523
0.165433
-0.0856058
0.157756
-0.100645
0.148557
-0.111341
0.139068
-0.11749
0.130254
-0.119863
0.122574
-0.119473
0.115991
-0.117149
0.110318
-0.113401
0.105366
-0.108216
0.100232
-0.10155
0.0933402
-0.0946081
0.0849433
-0.0886823
0.0791477
-0.080749
0.0811432
-0.0626615
0.092087
-0.0290429
0.108783
0.0164865
0.126716
0.0623977
0.142839
0.101673
0.15569
0.134794
0.165038
0.169949
0.171082
0.209119
0.173859
0.238155
0.173088
0.230305
0.169418
0.168553
0.164621
0.0638139
0.160436
-0.0491646
0.156356
-0.132058
0.15186
-0.180437
0.14771
-0.196093
0.143342
-0.197091
0.136808
-0.184368
0.128503
-0.179952
0.123722
-0.168079
0.126516
-0.128153
0.136457
-0.0621945
0.147194
0.0513591
0.153979
0.14606
0.154606
0.26791
0.1505
0.308032
0.14698
0.286147
0.146714
0.169287
0.151035
-0.0027514
0.153391
-0.0648623
0.149885
-0.215665
0.146327
-0.22943
0.144659
-0.297924
0.143336
-0.228103
0.0425931
0.148363
0.0114089
0.15166
0.0119353
0.155682
0.0114833
0.1601
0.0102832
0.164725
0.00798053
0.169236
0.00415209
0.173677
-0.00182868
0.17699
-0.00993242
0.179137
-0.0202291
0.179595
-0.0329312
0.177841
-0.0476267
0.173449
-0.0633602
0.166402
-0.0785586
0.157312
-0.0915551
0.14727
-0.101299
0.137406
-0.107626
0.128505
-0.110963
0.1209
-0.111867
0.114533
-0.110783
0.109154
-0.108022
0.104616
-0.103677
0.100583
-0.0975174
0.0957977
-0.0898225
0.0891818
-0.0820665
0.0826946
-0.0742618
0.0813278
-0.0612947
0.0885176
-0.0362327
0.103117
0.00188689
0.120732
0.0447828
0.137713
0.084692
0.152116
0.120391
0.163507
0.158557
0.171827
0.200799
0.176498
0.233484
0.176607
0.230196
0.172726
0.172434
0.166917
0.0696227
0.161426
-0.0436737
0.156163
-0.126794
0.150637
-0.174911
0.145737
-0.191193
0.141419
-0.192773
0.135592
-0.178541
0.127714
-0.172073
0.122719
-0.163084
0.125025
-0.130459
0.134878
-0.0720478
0.146199
0.0400382
0.154081
0.138178
0.15591
0.266082
0.152548
0.311393
0.149043
0.289653
0.148159
0.170171
0.152179
-0.00677142
0.154667
-0.0673507
0.150998
-0.211997
0.147158
-0.225589
0.145404
-0.29617
0.144187
-0.226885
0.044272
0.170924
0.0108912
0.172351
0.0105082
0.174251
0.0095836
0.176475
0.00805862
0.17895
0.0055059
0.181369
0.00173316
0.18341
-0.00387042
0.184469
-0.0109908
0.184349
-0.0201092
0.182557
-0.0311388
0.17867
-0.0437402
0.172453
-0.0571428
0.164093
-0.0701992
0.154291
-0.0817527
0.144041
-0.091049
0.134269
-0.0978537
0.12557
-0.102264
0.118178
-0.104475
0.112065
-0.10467
0.107028
-0.102984
0.102876
-0.0995253
0.0995448
-0.0941865
0.0964364
-0.0867141
0.0921557
-0.0777857
0.0866521
-0.0687582
0.0832978
-0.0579404
0.0866398
-0.0395747
0.0979751
-0.00944842
0.114157
0.0286009
0.131341
0.0675077
0.146994
0.104739
0.16028
0.145271
0.170767
0.190312
0.177374
0.226877
0.178608
0.228962
0.174812
0.17623
0.168387
0.076048
0.161776
-0.0370633
0.15545
-0.120469
0.149049
-0.168509
0.143452
-0.185596
0.139154
-0.188475
0.134112
-0.173499
0.126772
-0.164734
0.12156
-0.157872
0.12327
-0.132169
0.132908
-0.0816857
0.144808
0.0281381
0.153869
0.129117
0.157044
0.262906
0.154593
0.313844
0.151201
0.293045
0.149701
0.171671
0.153324
-0.0103951
0.15593
-0.069956
0.152141
-0.208208
0.148023
-0.221472
0.146172
-0.294319
0.145082
-0.225795
0.0457773
0.18389
0.0110063
0.184237
0.0101615
0.184731
0.00908914
0.185453
0.00733643
0.186276
0.00468338
0.186798
0.00121142
0.186864
-0.00393657
0.1861
-0.010227
0.184132
-0.0181415
0.180606
-0.027612
0.175248
-0.0383832
0.168004
-0.0498979
0.15917
-0.0613657
0.149405
-0.0719873
0.139516
-0.0811605
0.130203
-0.0885403
0.121907
-0.0939677
0.11481
-0.0973778
0.108925
-0.0987855
0.104156
-0.0982155
0.100328
-0.0956968
0.0973973
-0.0912559
0.0952889
-0.0846058
0.0930633
-0.0755601
0.0895823
-0.0652772
0.086059
-0.0544171
0.0864712
-0.0399869
0.0939815
-0.0169587
0.1075
0.0150824
0.123908
0.0510995
0.140348
0.0882994
0.155488
0.130131
0.16834
0.17746
0.177043
0.218174
0.179327
0.226678
0.175791
0.179767
0.169102
0.0827368
0.161678
-0.02964
0.154385
-0.113175
0.147254
-0.161378
0.141018
-0.17936
0.136649
-0.184106
0.132388
-0.169238
0.125697
-0.158042
0.120266
-0.152441
0.121254
-0.133158
0.130503
-0.0909338
0.142936
0.0157049
0.153254
0.118799
0.15795
0.25821
0.156549
0.315244
0.153385
0.296209
0.151305
0.173751
0.154464
-0.0135533
0.157152
-0.0726445
0.153304
-0.20436
0.14891
-0.217078
0.146952
-0.292361
0.146009
-0.224853
0.0470643
0.18492
0.0109487
0.184788
0.0102935
0.184764
0.00911282
0.184735
0.00736618
0.184588
0.0048303
0.184377
0.00142236
0.183332
-0.00289201
0.18151
-0.00840447
0.178572
-0.0152043
0.174282
-0.0233217
0.168494
-0.0325951
0.16126
-0.0426637
0.152897
-0.0530028
0.143939
-0.0630293
0.13498
-0.0722015
0.126516
-0.0800764
0.118877
-0.0863286
0.112226
-0.0907266
0.106607
-0.0931667
0.102014
-0.0936227
0.0983603
-0.0920431
0.0955683
-0.0884638
0.0937751
-0.0828126
0.0927142
-0.0744991
0.0911944
-0.0637574
0.0887788
-0.0520015
0.0877818
-0.0389899
0.091588
-0.0207649
0.101634
0.00503638
0.115936
0.0367972
0.131927
0.0723089
0.148
0.114058
0.162857
0.162602
0.173816
0.207216
0.177734
0.22276
0.175302
0.182199
0.16915
0.0888884
0.161135
-0.0216245
0.152993
-0.105034
0.145377
-0.153762
0.138628
-0.172612
0.134074
-0.179553
0.130489
-0.165653
0.124526
-0.152079
0.118885
-0.1468
0.119086
-0.133359
0.127791
-0.0996386
0.140656
0.00283983
0.152119
0.107336
0.158428
0.251901
0.158272
0.315401
0.155521
0.29896
0.152947
0.176325
0.155573
-0.0161793
0.158305
-0.0753768
0.154471
-0.200525
0.149791
-0.212397
0.147741
-0.290311
0.146964
-0.224075
0.048086
0.201266
0.010902
-0.201219
0.201912
0.00964704
0.202725
0.00830015
0.203761
0.00632954
0.20493
0.00366135
0.20602
0.000332826
0.207148
-0.00402064
0.208002
-0.00925846
0.20836
-0.0155623
0.207949
-0.0229102
0.206522
-0.0311683
0.203921
-0.0400628
0.200121
-0.0492025
0.195227
-0.0581359
0.189432
-0.0664063
0.182956
-0.0735998
0.176018
-0.0793914
0.168828
-0.0835361
0.16156
-0.0858988
0.154369
-0.0864313
0.147363
-0.0850375
0.140549
-0.0816501
0.134038
-0.0763014
0.128005
-0.0684657
0.121966
-0.0577192
0.114944
-0.0449793
0.107411
-0.0314567
0.102122
-0.0154763
0.101397
0.00576202
0.105286
0.0329077
0.111883
0.0657121
0.119279
0.106662
0.126842
0.155039
0.134858
0.1992
0.14489
0.212727
0.158132
0.168957
0.170384
0.0766371
0.177128
-0.0283693
0.177303
-0.105208
0.172369
-0.148828
0.164645
-0.164888
0.15699
-0.171897
0.149923
-0.158585
0.141316
-0.143472
0.132544
-0.138028
0.127869
-0.128683
0.128962
-0.100732
0.133223
-0.00142171
0.136682
0.103878
0.138278
0.250304
0.139071
0.314608
0.141289
0.296742
0.145043
0.17257
0.150389
-0.0215252
0.153849
-0.0788366
0.149716
-0.196393
0.143455
-0.206136
0.139087
-0.285943
0.135237
-0.220225
0.0503798
0.212912
0.01047
-0.21248
0.213574
0.00898546
0.214528
0.0073457
0.215562
0.00529571
0.216562
0.00266152
0.217544
-0.000649545
0.21828
-0.00475616
0.218673
-0.00965151
0.21852
-0.0154092
0.217622
-0.0220126
0.215806
-0.0293524
0.212962
-0.0372183
0.209064
-0.045305
0.204177
-0.0532487
0.198437
-0.0606665
0.192032
-0.0671947
0.185174
-0.0725334
0.17808
-0.0764416
0.170936
-0.0787547
0.163884
-0.0793796
0.157045
-0.0781988
0.150457
-0.0750619
0.14414
-0.0699845
0.138291
-0.0626161
0.132876
-0.0523047
0.127065
-0.0391681
0.120348
-0.0247403
0.114102
-0.00923017
0.11117
0.00869398
0.112871
0.0312067
0.118467
0.0601163
0.126303
0.0988267
0.135079
0.146264
0.144788
0.18949
0.157182
0.200334
0.172377
0.153763
0.18545
0.0635639
0.191569
-0.0344886
0.190553
-0.104192
0.184418
-0.142693
0.17565
-0.15612
0.167174
-0.163422
0.159831
-0.151242
0.15122
-0.134861
0.142073
-0.128882
0.136633
-0.123243
0.137284
-0.101383
0.141586
-0.00572318
0.145645
0.0998188
0.148139
0.24781
0.149959
0.312788
0.153038
0.293663
0.156889
0.168719
0.162
-0.0266365
0.165307
-0.0821433
0.160524
-0.19161
0.153378
-0.198989
0.148341
-0.280906
0.144168
-0.216053