/*--------------------------------*- C++ -*----------------------------------*\
| =========                 |                                                 |
| \\      /  F ield         | OpenFOAM: The Open Source CFD Toolbox           |
|  \\    /   O peration     | Version:  2512                                  |
|   \\  /    A nd           | Website:  www.openfoam.com                      |
|    \\/     M anipulation  |                                                 |
\*---------------------------------------------------------------------------*/
FoamFile
{
    version     2.0;
    format      ascii;
    arch        "LSB;label=32;scalar=64";
    class       volScalarField;
    location    "149.5";
    object      p;
}
// * * * * * * * * * * * * * * * * * * * * * * * * * * * * * * * * * * * * * //

dimensions      [0 2 -2 0 0 0 0];

internalField   nonuniform List<scalar> 
13248
(
-0.357054
-0.35592
-0.354484
-0.352781
-0.35075
-0.34827
-0.345151
-0.341174
-0.336116
-0.329787
-0.322053
-0.312863
-0.302263
-0.290396
-0.277493
-0.263847
-0.249779
-0.235611
-0.221633
-0.208099
-0.195165
-0.183045
-0.17156
-0.161078
-0.365511
-0.363339
-0.360955
-0.35836
-0.355464
-0.352154
-0.348241
-0.343488
-0.337657
-0.330554
-0.322062
-0.312167
-0.300962
-0.288642
-0.275472
-0.261759
-0.247814
-0.233924
-0.220327
-0.207216
-0.19471
-0.182917
-0.171742
-0.161401
-0.374784
-0.371519
-0.368113
-0.364547
-0.360697
-0.356455
-0.351621
-0.345933
-0.339141
-0.331058
-0.321602
-0.310812
-0.298845
-0.285948
-0.272418
-0.258564
-0.244675
-0.230993
-0.21771
-0.204963
-0.192824
-0.181369
-0.170494
-0.160301
-0.385137
-0.380697
-0.376218
-0.371635
-0.366761
-0.361474
-0.355547
-0.348691
-0.340657
-0.331293
-0.320587
-0.308663
-0.295755
-0.282161
-0.268197
-0.254157
-0.24029
-0.226786
-0.213779
-0.201353
-0.189549
-0.178407
-0.167824
-0.157963
-0.396797
-0.391084
-0.385487
-0.379851
-0.373873
-0.367383
-0.360116
-0.351774
-0.342146
-0.331169
-0.318942
-0.305698
-0.291746
-0.277418
-0.263019
-0.248803
-0.234958
-0.221613
-0.208846
-0.196698
-0.185183
-0.174309
-0.164
-0.154387
-0.409867
-0.402784
-0.396034
-0.389296
-0.382083
-0.374148
-0.365199
-0.354974
-0.343367
-0.330463
-0.316507
-0.301839
-0.286819
-0.271774
-0.256966
-0.242583
-0.228748
-0.215527
-0.202954
-0.191035
-0.179762
-0.16912
-0.159056
-0.149666
-0.424263
-0.415744
-0.407809
-0.399879
-0.391217
-0.381489
-0.370425
-0.357882
-0.343939
-0.328877
-0.31309
-0.296993
-0.280951
-0.265246
-0.250067
-0.23553
-0.22169
-0.208564
-0.196147
-0.184421
-0.173359
-0.162932
-0.153102
-0.143908
-0.439682
-0.429713
-0.420557
-0.411282
-0.400851
-0.388881
-0.375222
-0.359955
-0.343415
-0.326088
-0.308483
-0.291034
-0.274061
-0.257766
-0.242256
-0.227574
-0.213718
-0.200665
-0.18838
-0.176826
-0.165961
-0.155748
-0.146155
-0.137155
-0.455586
-0.44422
-0.433795
-0.422938
-0.410318
-0.395602
-0.378895
-0.360607
-0.341356
-0.3218
-0.302494
-0.283831
-0.266043
-0.249239
-0.233445
-0.218639
-0.204772
-0.19179
-0.179636
-0.168253
-0.157591
-0.147603
-0.138256
-0.129464
-0.471196
-0.458548
-0.446772
-0.434011
-0.41872
-0.40078
-0.380696
-0.359267
-0.337367
-0.315748
-0.294935
-0.275231
-0.25676
-0.239538
-0.223517
-0.208622
-0.19477
-0.181879
-0.169872
-0.158679
-0.148237
-0.138496
-0.129401
-0.120836
-0.485519
-0.471734
-0.458478
-0.44342
-0.42498
-0.403442
-0.379827
-0.35532
-0.330972
-0.307538
-0.285452
-0.264894
-0.245881
-0.228342
-0.21217
-0.197246
-0.183459
-0.170705
-0.15889
-0.147931
-0.137755
-0.1283
-0.119482
-0.111194
-0.497438
-0.482706
-0.467815
-0.450044
-0.428007
-0.402596
-0.375414
-0.347984
-0.32144
-0.29646
-0.273342
-0.252131
-0.232739
-0.215018
-0.198808
-0.183957
-0.170327
-0.157796
-0.146254
-0.135609
-0.125781
-0.116694
-0.10824
-0.100361
-0.353051
-0.355017
-0.356137
-0.356895
-0.357775
-0.358966
-0.360543
-0.362525
-0.364894
-0.367617
-0.370652
-0.373951
-0.37745
-0.381067
-0.38469
-0.38818
-0.39136
-0.394018
-0.395916
-0.396796
-0.396369
-0.39435
-0.39065
-0.385515
-0.344138
-0.346819
-0.348292
-0.349152
-0.349949
-0.350855
-0.35192
-0.353139
-0.354472
-0.355859
-0.357234
-0.358519
-0.35963
-0.360467
-0.360919
-0.360862
-0.360156
-0.358656
-0.356229
-0.352741
-0.348067
-0.341723
-0.334254
-0.326757
-0.33635
-0.339578
-0.34132
-0.342245
-0.34294
-0.343553
-0.344106
-0.344571
-0.344883
-0.344959
-0.344702
-0.344013
-0.342783
-0.340904
-0.338263
-0.334751
-0.330263
-0.324706
-0.318006
-0.310118
-0.300969
-0.290709
-0.279441
-0.269237
-0.330198
-0.333778
-0.335695
-0.336652
-0.337242
-0.337582
-0.337666
-0.337441
-0.336821
-0.335698
-0.333955
-0.33147
-0.328124
-0.323801
-0.318394
-0.311816
-0.303997
-0.294897
-0.284512
-0.272901
-0.260174
-0.246481
-0.231898
-0.218774
-0.326029
-0.329758
-0.331751
-0.332707
-0.333193
-0.333291
-0.332966
-0.332143
-0.330714
-0.328552
-0.325525
-0.321498
-0.316348
-0.30996
-0.302247
-0.293146
-0.282634
-0.27073
-0.2575
-0.243075
-0.22767
-0.211486
-0.194202
-0.176236
-0.324024
-0.327698
-0.329665
-0.330581
-0.330959
-0.330846
-0.330177
-0.328855
-0.326754
-0.323734
-0.31965
-0.314364
-0.307753
-0.299718
-0.290193
-0.279157
-0.266641
-0.252733
-0.237585
-0.221421
-0.204556
-0.187333
-0.169903
-0.153287
-0.324189
-0.327613
-0.329448
-0.330275
-0.330535
-0.330235
-0.329283
-0.327562
-0.324929
-0.321235
-0.316327
-0.310068
-0.302344
-0.293075
-0.282228
-0.269826
-0.25596
-0.24079
-0.224546
-0.207532
-0.19012
-0.172712
-0.155763
-0.138726
-0.326378
-0.329365
-0.330956
-0.331635
-0.331753
-0.331276
-0.33009
-0.328055
-0.325017
-0.320817
-0.3153
-0.308334
-0.299817
-0.289696
-0.277975
-0.264727
-0.250104
-0.234331
-0.21771
-0.2006
-0.183431
-0.166461
-0.150941
-0.133886
-0.330318
-0.332702
-0.333934
-0.334385
-0.334308
-0.333637
-0.33223
-0.329932
-0.326575
-0.321989
-0.316023
-0.308551
-0.299491
-0.28882
-0.276585
-0.262912
-0.248012
-0.23217
-0.215737
-0.199096
-0.182766
-0.166672
-0.152909
-0.137109
-0.33566
-0.337301
-0.338049
-0.338167
-0.33781
-0.336879
-0.335214
-0.332642
-0.328983
-0.324058
-0.317717
-0.309848
-0.300393
-0.289366
-0.276862
-0.26306
-0.248224
-0.232684
-0.216824
-0.201009
-0.185783
-0.170951
-0.158552
-0.144883
-0.342055
-0.342842
-0.342975
-0.342623
-0.34185
-0.340542
-0.33852
-0.335595
-0.331573
-0.326274
-0.31955
-0.311307
-0.301517
-0.290235
-0.277606
-0.263859
-0.249294
-0.234263
-0.21914
-0.204282
-0.190103
-0.176632
-0.165086
-0.15349
-0.349233
-0.349087
-0.348469
-0.347497
-0.34615
-0.344307
-0.341787
-0.338384
-0.333894
-0.328131
-0.320956
-0.312294
-0.302153
-0.29063
-0.277915
-0.264273
-0.250023
-0.23551
-0.221067
-0.207016
-0.193605
-0.181075
-0.169853
-0.159599
-0.377694
-0.365002
-0.348101
-0.327411
-0.304226
-0.280665
-0.258927
-0.241526
-0.230888
-0.228713
-0.235138
-0.24827
-0.264054
-0.276941
-0.280997
-0.271393
-0.246941
-0.211357
-0.172459
-0.137924
-0.112111
-0.095999
-0.0886012
-0.0884755
-0.0954068
-0.110559
-0.132496
-0.153316
-0.161948
-0.15348
-0.132058
-0.107167
-0.0866023
-0.0738098
-0.0680962
-0.0685163
-0.0768823
-0.093389
-0.110762
-0.116973
-0.107027
-0.0887668
-0.0709765
-0.0586034
-0.0514014
-0.0511335
-0.0562647
-0.0600587
-0.0577007
-0.0524344
-0.0453753
-0.0405417
-0.0372458
-0.035985
-0.0363643
-0.0356168
-0.0299704
-0.0238252
-0.0129489
-0.00225568
-0.318241
-0.307186
-0.293707
-0.278382
-0.262281
-0.247309
-0.235232
-0.228278
-0.228057
-0.235717
-0.250396
-0.269423
-0.288531
-0.302463
-0.305731
-0.293995
-0.266153
-0.22645
-0.183356
-0.144981
-0.115713
-0.0963164
-0.085684
-0.0823499
-0.0857411
-0.0967104
-0.114531
-0.132804
-0.141818
-0.136058
-0.118869
-0.0981113
-0.0811557
-0.0714303
-0.0683321
-0.0712406
-0.0823968
-0.101663
-0.12101
-0.127588
-0.116079
-0.095182
-0.0743312
-0.0593798
-0.0498701
-0.0474459
-0.050343
-0.0528027
-0.0509591
-0.0471244
-0.0423374
-0.0393396
-0.0384638
-0.0390616
-0.0404596
-0.0400429
-0.0332878
-0.0262852
-0.0137623
-0.00202666
-0.26044
-0.250618
-0.240041
-0.229702
-0.220249
-0.213258
-0.210543
-0.213066
-0.222225
-0.238075
-0.259056
-0.282143
-0.30326
-0.317717
-0.320644
-0.30772
-0.277915
-0.235784
-0.190143
-0.149276
-0.117554
-0.095572
-0.0821282
-0.0757552
-0.0756974
-0.0825026
-0.0960644
-0.111582
-0.120654
-0.117463
-0.104461
-0.0878228
-0.074528
-0.0679396
-0.0675186
-0.0729354
-0.0867481
-0.108522
-0.129665
-0.13676
-0.123976
-0.100786
-0.0771453
-0.0597862
-0.0481763
-0.0438231
-0.0447009
-0.0459025
-0.0444071
-0.041792
-0.0391331
-0.0379597
-0.0396364
-0.0421661
-0.0444974
-0.0443266
-0.0364551
-0.028618
-0.014548
-0.00181831
-0.211061
-0.201939
-0.193505
-0.186506
-0.1837
-0.183337
-0.187735
-0.19795
-0.214172
-0.23575
-0.2608
-0.286286
-0.308425
-0.32314
-0.326034
-0.312739
-0.282283
-0.239386
-0.1929
-0.150999
-0.117892
-0.0940883
-0.0783853
-0.0693557
-0.0661098
-0.0689689
-0.078273
-0.0907584
-0.0994244
-0.0983955
-0.089363
-0.0766443
-0.0669097
-0.0633741
-0.0655368
-0.0733095
-0.0895045
-0.113529
-0.136402
-0.144184
-0.130497
-0.105447
-0.0793856
-0.0598539
-0.0463794
-0.0403535
-0.0394621
-0.0394826
-0.0381633
-0.0365183
-0.0358069
-0.036408
-0.0407429
-0.0452666
-0.0484403
-0.0484223
-0.0394334
-0.0307958
-0.0152952
-0.00162918
-0.175511
-0.165095
-0.158435
-0.154502
-0.154511
-0.158998
-0.168655
-0.183862
-0.204399
-0.229244
-0.256374
-0.282868
-0.305262
-0.320088
-0.323007
-0.309872
-0.27991
-0.237854
-0.192222
-0.150703
-0.117192
-0.0922339
-0.0747972
-0.0635563
-0.0575732
-0.0568591
-0.0620364
-0.0712579
-0.079046
-0.0795394
-0.0740554
-0.0648883
-0.0584638
-0.0577368
-0.062269
-0.0721341
-0.0903905
-0.116409
-0.140943
-0.149566
-0.135471
-0.109085
-0.0810539
-0.0596364
-0.0445409
-0.0370914
-0.034692
-0.0336297
-0.0323319
-0.0313865
-0.0324017
-0.0346874
-0.0417562
-0.0483219
-0.0522398
-0.0522785
-0.0421831
-0.0327913
-0.0159936
-0.00145781
-0.148176
-0.139461
-0.133857
-0.131866
-0.134237
-0.141459
-0.153818
-0.171394
-0.193752
-0.219707
-0.247221
-0.273537
-0.295772
-0.310285
-0.313084
-0.300431
-0.271879
-0.232045
-0.188756
-0.148861
-0.115842
-0.0903418
-0.071631
-0.058601
-0.0503343
-0.0466282
-0.0480297
-0.0538707
-0.0603488
-0.0635981
-0.0590211
-0.0528721
-0.0493736
-0.0511002
-0.0577144
-0.0693622
-0.0893024
-0.116993
-0.143052
-0.152751
-0.138817
-0.11165
-0.0821486
-0.059175
-0.0427032
-0.034062
-0.0304161
-0.0283928
-0.0269952
-0.0264709
-0.028957
-0.0327993
-0.0426411
-0.0512761
-0.055846
-0.0558463
-0.0446671
-0.0345786
-0.0166299
-0.0013014
-0.134201
-0.126173
-0.120268
-0.118651
-0.12188
-0.130016
-0.143057
-0.160931
-0.183141
-0.2085
-0.235022
-0.260107
-0.281349
-0.29528
-0.297756
-0.285879
-0.259557
-0.223085
-0.18329
-0.145979
-0.114183
-0.0886746
-0.0690927
-0.0546429
-0.0445015
-0.0383308
-0.0364983
-0.0390393
-0.0435869
-0.0465055
-0.0443944
-0.0409681
-0.0399146
-0.0436657
-0.0520097
-0.0650519
-0.0862154
-0.115206
-0.142637
-0.153665
-0.140473
-0.113103
-0.0826632
-0.0584964
-0.0408931
-0.0312684
-0.0266164
-0.023775
-0.0222084
-0.0218385
-0.0255126
-0.0307444
-0.0433559
-0.054063
-0.0592103
-0.0590809
-0.046852
-0.0361356
-0.0171912
-0.00115499
-0.130712
-0.123326
-0.116247
-0.113559
-0.116193
-0.123782
-0.135957
-0.152588
-0.173203
-0.196686
-0.221223
-0.244463
-0.263663
-0.27634
-0.278422
-0.267679
-0.244275
-0.212
-0.176464
-0.142372
-0.112338
-0.0872802
-0.0672047
-0.0516798
-0.0400492
-0.0319082
-0.0274254
-0.0269509
-0.0292904
-0.0315159
-0.0308633
-0.0296257
-0.030433
-0.0357074
-0.0453516
-0.059367
-0.0812637
-0.111098
-0.139765
-0.152305
-0.140404
-0.113429
-0.0825984
-0.0576235
-0.0391308
-0.0287103
-0.0232632
-0.0197451
-0.0179901
-0.0175454
-0.0221068
-0.0285261
-0.0438532
-0.0566121
-0.0622841
-0.0619427
-0.0487099
-0.0374477
-0.0176729
-0.0010124
-0.135
-0.128121
-0.119483
-0.11517
-0.116145
-0.121853
-0.131873
-0.1461
-0.164044
-0.184628
-0.206336
-0.227831
-0.244425
-0.254933
-0.256542
-0.247274
-0.227334
-0.199758
-0.168853
-0.138304
-0.110387
-0.0861657
-0.0659651
-0.0496966
-0.0369326
-0.027263
-0.0206921
-0.0176147
-0.0176878
-0.0189371
-0.0189116
-0.0192244
-0.0212717
-0.0275396
-0.0380029
-0.0524742
-0.0745889
-0.104901
-0.134646
-0.148779
-0.13867
-0.112704
-0.0820495
-0.0566646
-0.0374973
-0.0264129
-0.0203514
-0.0162876
-0.0143424
-0.0136235
-0.0187759
-0.0261442
-0.0440867
-0.0588514
-0.0650198
-0.0643983
-0.0502222
-0.0385058
-0.0180816
-0.000869597
-0.142593
-0.135936
-0.126745
-0.121132
-0.119962
-0.122871
-0.129849
-0.14086
-0.155348
-0.172281
-0.190272
-0.207852
-0.223147
-0.232095
-0.233709
-0.226432
-0.210363
-0.187673
-0.161465
-0.134571
-0.108994
-0.085919
-0.0659119
-0.0491628
-0.0355062
-0.0246121
-0.016372
-0.0111013
-0.00896429
-0.0089844
-0.00996085
-0.0100348
-0.0127051
-0.0194401
-0.0302423
-0.0447997
-0.0667112
-0.0969112
-0.127501
-0.143227
-0.13541
-0.111094
-0.0812023
-0.0558203
-0.036154
-0.0244332
-0.0178538
-0.0133992
-0.0113163
-0.0101053
-0.0155411
-0.0236218
-0.0440076
-0.0606999
-0.0673666
-0.0664143
-0.0513732
-0.0392966
-0.0184104
-0.000722877
-0.149741
-0.142846
-0.134367
-0.128245
-0.125243
-0.125254
-0.128925
-0.136292
-0.146959
-0.160162
-0.174959
-0.189514
-0.200954
-0.208879
-0.211104
-0.20625
-0.194268
-0.176479
-0.154936
-0.131744
-0.108648
-0.0869077
-0.0672989
-0.0502438
-0.0358296
-0.0239067
-0.0143215
-0.00722343
-0.00298686
-0.00147628
-0.00165659
-0.00218653
-0.00506114
-0.0117208
-0.022265
-0.036283
-0.0575382
-0.0877684
-0.119091
-0.135718
-0.13056
-0.108364
-0.0797842
-0.0548629
-0.0349548
-0.0226728
-0.0155724
-0.0108818
-0.00888093
-0.00714519
-0.0124618
-0.0209069
-0.0435762
-0.0621096
-0.0692698
-0.0679197
-0.0521135
-0.0397904
-0.0185996
-0.000548531
-0.154168
-0.147886
-0.140847
-0.134419
-0.130027
-0.128273
-0.129229
-0.133004
-0.139508
-0.148439
-0.159388
-0.16967
-0.179371
-0.185455
-0.187662
-0.184701
-0.176147
-0.162564
-0.145149
-0.125418
-0.104868
-0.0847711
-0.0660413
-0.0492592
-0.0346528
-0.0222721
-0.0120251
-0.0038215
0.00206662
0.00505503
0.00545506
0.00437454
0.00152551
-0.00483938
-0.0148685
-0.0281785
-0.0482746
-0.0774691
-0.108629
-0.126054
-0.122921
-0.103448
-0.0764429
-0.0524356
-0.0328416
-0.0205453
-0.0131115
-0.00828864
-0.00644571
-0.00442991
-0.00961358
-0.0182033
-0.042742
-0.0629406
-0.07069
-0.0688859
-0.0523601
-0.039955
-0.0185568
-0.000294793
-0.151394
-0.148467
-0.142058
-0.135558
-0.130981
-0.128777
-0.128872
-0.131375
-0.136301
-0.143418
-0.152463
-0.160061
-0.167365
-0.172163
-0.173294
-0.169812
-0.161475
-0.148794
-0.132783
-0.114717
-0.0958642
-0.0773106
-0.0598445
-0.0439871
-0.0299499
-0.0178117
-0.0075413
0.000964815
0.00758499
0.0117406
0.0131468
0.0133333
0.00944807
0.00377612
-0.00501302
-0.0172175
-0.0369312
-0.0674898
-0.101619
-0.121773
-0.119138
-0.098707
-0.0718975
-0.0485913
-0.0296153
-0.0179029
-0.0106047
-0.00575144
-0.00355611
-0.00032667
-0.00588917
-0.0145938
-0.0412212
-0.0637708
-0.0721056
-0.0698221
-0.0522449
-0.0398364
-0.018327
-9.21833e-06
-0.147902
-0.146561
-0.140642
-0.134234
-0.129686
-0.127417
-0.127196
-0.128892
-0.132374
-0.137261
-0.142404
-0.149011
-0.154137
-0.156986
-0.156696
-0.152671
-0.144763
-0.133356
-0.119211
-0.103291
-0.0865748
-0.0699318
-0.0540317
-0.0393503
-0.0261097
-0.0144594
-0.00443309
0.00411647
0.0111169
0.0158742
0.0176526
0.0167761
0.0144831
0.00986209
0.00237101
-0.00862174
-0.0276486
-0.0587258
-0.0939319
-0.114374
-0.111083
-0.0913283
-0.0659959
-0.0443019
-0.0265377
-0.0154331
-0.00826994
-0.00359781
-0.00131805
0.00188314
-0.00326302
-0.0117694
-0.0397661
-0.0642942
-0.0727553
-0.0698784
-0.0516068
-0.0392377
-0.0179439
0.000141516
-0.141914
-0.142021
-0.137184
-0.131296
-0.126973
-0.124757
-0.1243
-0.125252
-0.127395
-0.13048
-0.134066
-0.138066
-0.141075
-0.142297
-0.141092
-0.136997
-0.129841
-0.119826
-0.107459
-0.0934474
-0.0785626
-0.0635331
-0.0489507
-0.0352738
-0.022743
-0.011525
-0.00171906
0.00675077
0.0138618
0.019017
0.021336
0.0209894
0.0189255
0.0149775
0.0082786
-0.00213704
-0.0207356
-0.0509054
-0.0845469
-0.104446
-0.101474
-0.0831442
-0.0597855
-0.0398735
-0.0233906
-0.0129475
-0.00601578
-0.00152104
0.000770164
0.00385673
-0.00121126
-0.00967778
-0.0384728
-0.0642737
-0.0726518
-0.069257
-0.0505432
-0.0382734
-0.0174718
0.000226531
-0.133874
-0.135791
-0.132333
-0.127173
-0.123131
-0.120921
-0.120193
-0.120507
-0.121626
-0.123378
-0.125477
-0.127601
-0.12903
-0.129116
-0.127309
-0.123203
-0.11662
-0.107666
-0.0967028
-0.0842706
-0.0709771
-0.0574207
-0.0441003
-0.0314293
-0.0196497
-0.00893116
0.00058557
0.00888564
0.0159683
0.0214163
0.0243292
0.0246646
0.023151
0.0200281
0.0140865
0.00410904
-0.0137612
-0.0420878
-0.073906
-0.0934136
-0.0908593
-0.074214
-0.0530829
-0.035155
-0.0201407
-0.0104649
-0.0038372
0.000500127
0.00274948
0.00578817
0.000678934
-0.00770854
-0.0367752
-0.0634497
-0.0718459
-0.0679845
-0.0490552
-0.0369357
-0.0168688
0.00026744
-0.12522
-0.128488
-0.126278
-0.121913
-0.118214
-0.116039
-0.115114
-0.11498
-0.11536
-0.116097
-0.117004
-0.117821
-0.118083
-0.117285
-0.114975
-0.11083
-0.104697
-0.0966336
-0.0868893
-0.0758572
-0.0639962
-0.0517842
-0.0396381
-0.0279264
-0.0168934
-0.00671252
0.00246273
0.0105478
0.0175097
0.0230871
0.0264783
0.0275581
0.0269069
0.0248757
0.0200306
0.0109164
-0.00582659
-0.032449
-0.0626456
-0.0812907
-0.0792617
-0.0646564
-0.0460557
-0.030265
-0.016841
-0.00800643
-0.00174322
0.00245753
0.0046129
0.00758139
0.00251189
-0.00554022
-0.034367
-0.0616793
-0.0701904
-0.06594
-0.0470888
-0.0352055
-0.0161178
0.000269848
-0.116264
-0.120323
-0.119185
-0.115648
-0.112372
-0.11031
-0.109283
-0.108843
-0.108695
-0.108704
-0.108744
-0.108617
-0.108
-0.106525
-0.103851
-0.0997224
-0.0940065
-0.0867213
-0.0780254
-0.0682009
-0.0575942
-0.0465882
-0.0355306
-0.0247418
-0.0144563
-0.0048495
0.00392452
0.0117478
0.0185304
0.0241167
0.0278699
0.0296231
0.0299003
0.0291502
0.0257934
0.017937
0.00227488
-0.0228912
-0.051058
-0.0683399
-0.0669914
-0.0547579
-0.0388867
-0.025294
-0.013527
-0.00558744
0.000253347
0.0043361
0.00636681
0.00921918
0.00428964
-0.0031786
-0.0312112
-0.0587758
-0.0674737
-0.0630273
-0.0446196
-0.0330877
-0.0151994
0.000244223
-0.106992
-0.111585
-0.111353
-0.108608
-0.105799
-0.103911
-0.102855
-0.102229
-0.101741
-0.101254
-0.100681
-0.0998848
-0.0986496
-0.096713
-0.0938186
-0.0897636
-0.0844301
-0.0778127
-0.0700136
-0.0612365
-0.0517418
-0.0418302
-0.0317869
-0.0218849
-0.0123407
-0.00332989
0.00499291
0.0125063
0.0190752
0.0245949
0.0286004
0.0308877
0.0319771
0.0324379
0.0306764
0.0241919
0.009571
-0.0139261
-0.0394524
-0.0549507
-0.0544454
-0.0448244
-0.0317759
-0.0203567
-0.0102445
-0.0032242
0.00214481
0.00612725
0.00802996
0.0107089
0.00599446
-0.00071865
-0.0272824
-0.0545566
-0.0635467
-0.0592021
-0.0416513
-0.0306052
-0.0140994
0.000204825
-0.0977092
-0.102606
-0.103072
-0.101027
-0.0986832
-0.0970118
-0.0959959
-0.095284
-0.0945935
-0.0937918
-0.0928164
-0.091584
-0.0899511
-0.0877305
-0.0847295
-0.0807899
-0.0758141
-0.0697872
-0.0627743
-0.0549202
-0.0464177
-0.0374995
-0.0283976
-0.0193432
-0.0105308
-0.00212908
0.00570566
0.0128618
0.0191885
0.0245888
0.0286741
0.0314005
0.0331006
0.034449
0.0339696
0.0287621
0.0154833
-0.00576924
-0.0280865
-0.0415115
-0.042116
-0.0352009
-0.02493
-0.0155726
-0.00704141
-0.000929882
0.00393234
0.00782584
0.00962579
0.0120742
0.00764047
0.0018195
-0.0225447
-0.0489472
-0.0583443
-0.0544714
-0.0382179
-0.0278039
-0.0128114
0.0001686
-0.0886423
-0.0935989
-0.094568
-0.0931205
-0.0912184
-0.0897868
-0.0888587
-0.0881324
-0.0873451
-0.0863712
-0.0851657
-0.0836796
-0.081819
-0.0794527
-0.0764395
-0.0726596
-0.0680347
-0.0625461
-0.0562337
-0.0491991
-0.041585
-0.033571
-0.0253441
-0.0170978
-0.00900401
-0.00121786
0.00610578
0.0128638
0.0189109
0.0241486
0.028253
0.0312464
0.033334
0.0351297
0.0353865
0.0312646
0.01981
0.00149239
-0.0173079
-0.0289182
-0.0305978
-0.0262348
-0.0185345
-0.0110529
-0.003969
0.00127976
0.00562298
0.00943018
0.0111816
0.0133622
0.00930322
0.004471
-0.0170572
-0.0420306
-0.051909
-0.0489095
-0.0343892
-0.0247523
-0.0113394
0.000153503
-0.079861
-0.0847213
-0.086037
-0.0850824
-0.08358
-0.08239
-0.0815782
-0.0808892
-0.0800849
-0.0790472
-0.0777401
-0.0761373
-0.0741806
-0.0717811
-0.068837
-0.0652586
-0.0609839
-0.0559942
-0.0503137
-0.0440146
-0.0372025
-0.0300152
-0.0226024
-0.0151241
-0.00773069
-0.000561128
0.00623792
0.0125662
0.0182897
0.0233175
0.0273846
0.0305058
0.0327967
0.0346995
0.035218
0.0319812
0.0226501
0.00765138
-0.00772064
-0.0177596
-0.0204224
-0.0182102
-0.0127292
-0.00688682
-0.0010786
0.00338115
0.00722094
0.0109415
0.0127288
0.0146505
0.0110934
0.00725297
-0.0110167
-0.0340735
-0.044435
-0.0426722
-0.0302696
-0.0215403
-0.00969976
0.000176518
-0.0714504
-0.0761059
-0.0776344
-0.0770707
-0.0759162
-0.0749563
-0.0742763
-0.0736589
-0.0728932
-0.0718685
-0.0705541
-0.0689378
-0.0669869
-0.0646422
-0.0618313
-0.0584878
-0.054564
-0.0500436
-0.0449418
-0.0393102
-0.0332272
-0.0267985
-0.0201431
-0.0133924
-0.00667668
-0.00011867
0.00614792
0.0120261
0.0173901
0.0221589
0.0261166
0.0292575
0.0316167
0.0334439
0.0339757
0.0314503
0.0241567
0.0123426
2.85523e-05
-0.00861713
-0.0119093
-0.0112873
-0.00759469
-0.00313376
0.0015837
0.00534479
0.00871806
0.0123517
0.0142833
0.01603
0.0131074
0.0101454
-0.00473779
-0.0255423
-0.0362887
-0.0359964
-0.0259887
-0.0182723
-0.00792655
0.000250961
-0.0634687
-0.0678387
-0.0694751
-0.0692145
-0.068356
-0.0676063
-0.06706
-0.0665345
-0.0658463
-0.0648864
-0.0636298
-0.0620742
-0.060203
-0.0579779
-0.0553478
-0.0522645
-0.0486923
-0.0446182
-0.0400521
-0.0350316
-0.029615
-0.0238842
-0.0179333
-0.0118701
-0.00580548
0.00015294
0.00588493
0.0112991
0.0162811
0.020749
0.0245284
0.0275968
0.0299238
0.0316002
0.0320632
0.0300876
0.024489
0.015402
0.00570223
-0.00162994
-0.00509886
-0.00549702
-0.00315702
0.00017623
0.00398076
0.00714294
0.0100981
0.0136319
0.015804
0.0175541
0.0153847
0.0131018
0.00137475
-0.0170698
-0.0279733
-0.0291793
-0.0216885
-0.0150567
-0.00607845
0.000381274
-0.0559369
-0.0599821
-0.0616518
-0.0616202
-0.0610074
-0.0604439
-0.0600276
-0.0596054
-0.0590102
-0.0581463
-0.0569905
-0.0555454
-0.0538045
-0.0517437
-0.0493278
-0.0465219
-0.0432998
-0.0396517
-0.0355847
-0.0311269
-0.0263224
-0.0212348
-0.0159388
-0.0105225
-0.0050794
0.000296727
0.00549988
0.0104437
0.0150253
0.0191639
0.0227133
0.0256365
0.0278572
0.0293658
0.0297545
0.0282022
0.0239369
0.0170601
0.00954201
0.00345547
0.000168526
-0.000779579
0.000596117
0.00303662
0.00608621
0.00875071
0.0113451
0.0147447
0.0171787
0.019166
0.017829
0.0159954
0.00686235
-0.0093231
-0.0200296
-0.0225385
-0.0175086
-0.0119919
-0.00424024
0.000556549
-0.0488896
-0.0525871
-0.0542303
-0.0543644
-0.0539512
-0.0535478
-0.0532506
-0.0529325
-0.0524367
-0.0516861
-0.050657
-0.0493531
-0.0477746
-0.045907
-0.0437258
-0.0412061
-0.0383288
-0.035087
-0.0314864
-0.0275487
-0.0233077
-0.0188135
-0.0141253
-0.00931511
-0.00446134
0.000354522
0.0050412
0.00951744
0.0136893
0.0174802
0.0207656
0.0234934
0.0255653
0.0269189
0.0272615
0.0260612
0.022841
0.0177071
0.0119735
0.00704666
0.00413812
0.0029725
0.00369995
0.00545693
0.00788726
0.0101445
0.0124396
0.0156559
0.0182815
0.0206673
0.0200992
0.018506
0.0112749
-0.00280049
-0.0129
-0.016362
-0.0135752
-0.00915865
-0.00251435
0.000748904
-0.0423397
-0.045675
-0.0472479
-0.0474974
-0.0472438
-0.0469745
-0.0467807
-0.0465547
-0.0461639
-0.0455357
-0.0446467
-0.043501
-0.0421025
-0.0404432
-0.0385062
-0.0362736
-0.0337315
-0.0308757
-0.0277109
-0.0242543
-0.0205325
-0.0165852
-0.0124596
-0.00821487
-0.00391609
0.000366175
0.00455408
0.00857223
0.012336
0.0157728
0.0187743
0.0212803
0.0231871
0.0244131
0.0247476
0.0238599
0.0214728
0.0176949
0.0133917
0.00950761
0.00705474
0.00588377
0.00620389
0.00745551
0.00938423
0.0113061
0.0133491
0.0163183
0.0190149
0.0218436
0.0217087
0.0201887
0.0142898
0.00227895
-0.00685531
-0.0108775
-0.00998896
-0.00661888
-0.00100803
0.000920083
-0.0362694
-0.0392502
-0.040728
-0.0410549
-0.0409272
-0.0407683
-0.0406626
-0.04052
-0.0402282
-0.039721
-0.0389749
-0.0379927
-0.0367801
-0.0353335
-0.0336409
-0.0316895
-0.0294692
-0.0269774
-0.0242185
-0.0212064
-0.0179623
-0.014518
-0.0109113
-0.00719126
-0.00341124
0.000367507
0.00407859
0.00765447
0.0110202
0.0141075
0.0168211
0.019098
0.0208398
0.021967
0.0223267
0.0217236
0.0200057
0.0172767
0.0141025
0.0111278
0.00913531
0.00807989
0.00816648
0.00905727
0.0105855
0.012224
0.0140382
0.0166731
0.0192511
0.0226155
0.0222832
0.0207935
0.015879
0.0059348
-0.00202669
-0.00624414
-0.0068154
-0.00441628
0.000187123
0.00103415
-0.0306701
-0.033315
-0.0346834
-0.0350577
-0.0350273
-0.0349581
-0.034927
-0.0348568
-0.0346531
-0.0342595
-0.0336524
-0.0328311
-0.0318015
-0.0305632
-0.029108
-0.0274262
-0.0255103
-0.023359
-0.020976
-0.0183731
-0.015567
-0.0125837
-0.00945378
-0.00621748
-0.00291895
0.000389143
0.00365051
0.00680614
0.00978956
0.012538
0.0149677
0.0170252
0.018612
0.0196646
0.0200708
0.0197221
0.0185391
0.0166208
0.0143329
0.0121253
0.0105603
0.00967868
0.00965112
0.0102927
0.0115041
0.0128933
0.0144842
0.0167063
0.0188164
0.0198857
0.021678
0.0204358
0.0163166
0.00832636
0.00157606
-0.00253665
-0.00409314
-0.00256668
0.00103038
0.0010718
-0.0255344
-0.0278623
-0.0291124
-0.0295113
-0.0295551
-0.0295571
-0.0295869
-0.0295803
-0.0294552
-0.0291648
-0.0286859
-0.0280162
-0.0271607
-0.0261204
-0.0248899
-0.0234616
-0.0218297
-0.0199935
-0.0179564
-0.0157279
-0.0133217
-0.0107591
-0.00806446
-0.00527138
-0.00241624
0.000456621
0.00329994
0.00606129
0.00868338
0.0111121
0.0132809
0.0151205
0.0165648
0.0175588
0.0180186
0.0178906
0.0171331
0.0158388
0.0142415
0.0126586
0.0114762
0.0107865
0.0107218
0.0111962
0.0121572
0.0133209
0.0146933
0.0165074
0.0182805
0.0194486
0.0205983
0.0194661
0.0159989
0.00969689
0.00407254
0.000275034
-0.00184026
-0.00107518
0.00154923
0.00104024
-0.0208388
-0.0228731
-0.0240038
-0.0244114
-0.0245114
-0.0245702
-0.0246496
-0.0246972
-0.0246437
-0.0244407
-0.0240761
-0.0235453
-0.0228509
-0.0219943
-0.0209719
-0.0197778
-0.0184073
-0.0168597
-0.0151379
-0.0132498
-0.0112065
-0.00902518
-0.00672576
-0.00433584
-0.00188502
0.000589182
0.00304665
0.00544297
0.00772939
0.00985758
0.0117713
0.0134169
0.0147334
0.0156784
0.0161897
0.0162452
0.0158216
0.0150027
0.0139386
0.0128535
0.0120006
0.0114969
0.0114405
0.0118044
0.0125681
0.0135265
0.0146883
0.0161262
0.0175829
0.0185722
0.0192355
0.0181833
0.0152645
0.0103269
0.00567288
0.00230271
-4.88997e-05
7.61824e-05
0.00181479
0.000965843
-0.0165587
-0.018327
-0.0193422
-0.0197476
-0.0198893
-0.0199923
-0.0201106
-0.0202014
-0.0202027
-0.0200773
-0.0198152
-0.0194111
-0.018864
-0.0181748
-0.0173417
-0.0163604
-0.015227
-0.0139408
-0.0125038
-0.0109226
-0.00920598
-0.00736808
-0.00542481
-0.00339874
-0.00131413
0.00079776
0.00290399
0.0049666
0.00694345
0.00879434
0.0104729
0.0119389
0.013138
0.0140367
0.0145875
0.0147874
0.014622
0.0141624
0.0135038
0.0128038
0.0122265
0.0118898
0.0118651
0.0121566
0.012765
0.0135386
0.0144956
0.0156005
0.016744
0.0174721
0.0177759
0.016791
0.01434
0.010465
0.00660311
0.00369073
0.00131741
0.00093532
0.00191414
0.000878819
-0.0126732
-0.0142026
-0.0151085
-0.015504
-0.0156759
-0.0158125
-0.0159604
-0.0160849
-0.0161346
-0.0160778
-0.0159015
-0.0156066
-0.0151901
-0.014651
-0.0139875
-0.0131969
-0.0122758
-0.0112235
-0.0100412
-0.00873423
-0.00730951
-0.00577838
-0.00415365
-0.00245357
-0.000697773
0.00108805
0.00287674
0.00463725
0.00633465
0.00793384
0.00939602
0.010696
0.0117812
0.0126316
0.0132071
0.0135139
0.0135399
0.0133463
0.0129948
0.0125841
0.0122286
0.0120332
0.0120489
0.0122923
0.0127771
0.013388
0.0141525
0.0149707
0.015819
0.0162905
0.0163357
0.0154114
0.0133542
0.0102947
0.007059
0.00446108
0.00231399
0.00155971
0.00192178
0.000797121
-0.00915866
-0.0104751
-0.0112793
-0.0116603
-0.0118534
-0.0120155
-0.0121862
-0.0123374
-0.0124269
-0.0124246
-0.0123208
-0.01212
-0.0118186
-0.0114125
-0.0108992
-0.0102769
-0.00954336
-0.00869775
-0.00774087
-0.00667655
-0.00551025
-0.00425093
-0.00290875
-0.00149821
-3.52347e-05
0.00145963
0.00296441
0.00445313
0.00589813
0.00727171
0.00853843
0.00967577
0.0106508
0.0114502
0.0120358
0.0124144
0.0125771
0.0125735
0.0124301
0.0122449
0.0120659
0.0119854
0.0120404
0.0122501
0.0126353
0.0131058
0.0136949
0.0142742
0.0148518
0.0151118
0.0149777
0.014112
0.0123776
0.00994274
0.00722506
0.0050285
0.00302899
0.00200651
0.00188772
0.000734422
-0.00599006
-0.00711896
-0.0078308
-0.00819468
-0.00840256
-0.00858355
-0.00877122
-0.00894285
-0.0090639
-0.00911047
-0.0090729
-0.00894738
-0.00874056
-0.00844833
-0.0080659
-0.00759055
-0.00702069
-0.00635574
-0.00559607
-0.00474436
-0.00380468
-0.00278398
-0.00169023
-0.000534838
0.00066966
0.00190692
0.00315922
0.00440619
0.0056251
0.00679336
0.00788405
0.00887687
0.00974654
0.0104794
0.0110564
0.0114768
0.0117317
0.01186
0.0118703
0.0118368
0.0117892
0.0117956
0.0118829
0.0120668
0.0123706
0.0127225
0.0131566
0.0135437
0.0139049
0.0139882
0.0137312
0.0129245
0.0114483
0.00948941
0.00720329
0.00531686
0.00350229
0.00231724
0.00184075
0.000687558
-0.00314424
-0.00410945
-0.00473828
-0.0050839
-0.00530131
-0.00549585
-0.00569547
-0.00588218
-0.0060277
-0.00611232
-0.00612745
-0.00607114
-0.00594332
-0.00574653
-0.00547629
-0.00512811
-0.00469985
-0.0041911
-0.00360212
-0.00293472
-0.00219186
-0.00137877
-0.000501595
0.000430906
0.00140898
0.0024199
0.00344972
0.00448231
0.00549951
0.00648376
0.0074141
0.00827476
0.00904321
0.00971108
0.0102561
0.0106897
0.0109985
0.011208
0.0113232
0.011394
0.0114386
0.0115055
0.0116148
0.0117765
0.0120131
0.0122668
0.0125689
0.0128031
0.0129908
0.0129428
0.0126057
0.011857
0.0105865
0.00898588
0.00706144
0.00540844
0.00378552
0.00253117
0.00179652
0.000652458
-0.000598834
-0.00142218
-0.00197727
-0.00230446
-0.00252755
-0.00273146
-0.00293922
-0.00313663
-0.00330095
-0.00341597
-0.00347442
-0.00347441
-0.00341586
-0.00329792
-0.00312058
-0.00288003
-0.00257306
-0.0021983
-0.00175566
-0.0012465
-0.000672967
-3.88438e-05
0.000651239
0.00139066
0.002172
0.00298554
0.00382045
0.00466422
0.00550271
0.00632231
0.00710629
0.00784238
0.00851265
0.00911024
0.0096194
0.0100433
0.0103728
0.0106265
0.0108044
0.0109406
0.0110447
0.0111496