/*--------------------------------*- C++ -*----------------------------------*\
| =========                 |                                                 |
| \\      /  F ield         | OpenFOAM: The Open Source CFD Toolbox           |
|  \\    /   O peration     | Version:  2512                                  |
|   \\  /    A nd           | Website:  www.openfoam.com                      |
|    \\/     M anipulation  |                                                 |
\*---------------------------------------------------------------------------*/
FoamFile
{
    version     2.0;
    format      ascii;
    arch        "LSB;label=32;scalar=64";
    class       volVectorField;
    location    "68.25";
    object      U;
}
// * * * * * * * * * * * * * * * * * * * * * * * * * * * * * * * * * * * * * //

dimensions      [0 1 -1 0 0 0 0];

internalField   nonuniform List<vector> 
13248
(
(-0.0129059 0.0125154 7.94288e-20)
(-0.0224078 0.0264975 0)
(-0.0158209 0.0339129 -1.50132e-19)
(0.00548589 0.0363739 1.41423e-19)
(0.0405575 0.0354073 1.32642e-19)
(0.0886866 0.032351 0)
(0.149195 0.0282658 0)
(0.221258 0.0239652 3.2402e-19)
(0.303706 0.0200452 -6.14021e-22)
(0.394858 0.0169022 -2.84773e-19)
(0.492439 0.0147433 2.65732e-19)
(0.593615 0.0136015 -1.66376e-19)
(0.69515 0.0133607 0)
(0.793649 0.0137902 -2.85352e-19)
(0.885845 0.0145887 5.31293e-19)
(0.968893 0.0154333 -1.26784e-19)
(1.0406 0.0160297 -2.20887e-19)
(1.09959 0.0161358 2.07372e-19)
(1.14538 0.0156538 0)
(1.17828 0.01435 0)
(1.19956 0.0128724 0)
(1.21005 0.00917848 0)
(1.21345 0.00905989 5.73399e-20)
(1.20698 -0.00356513 1.98666e-19)
(-0.0118246 0.0101813 -2.39782e-19)
(-0.0159571 0.0195958 1.63301e-19)
(-0.000908741 0.0235377 -1.37096e-21)
(0.031692 0.0237736 -2.15859e-19)
(0.0806949 0.0218926 -1.325e-19)
(0.145074 0.019249 -1.25424e-19)
(0.223568 0.0168631 -2.31788e-19)
(0.314423 0.0154474 2.18816e-19)
(0.415199 0.0154258 0)
(0.522705 0.0169404 7.4205e-22)
(0.63311 0.0198691 1.20495e-21)
(0.742223 0.0238684 1.65125e-19)
(0.845877 0.0284414 0)
(0.940335 0.0330232 0)
(1.02265 0.0370699 1.91762e-19)
(1.0909 0.040137 -3.60264e-19)
(1.1443 0.0419341 2.12046e-19)
(1.18318 0.042349 -1.99084e-19)
(1.20876 0.0414431 -8.62427e-20)
(1.223 0.039403 -1.54759e-19)
(1.22809 0.0366144 -6.20084e-20)
(1.22649 0.033024 -1.15663e-19)
(1.22018 0.0308436 1.73012e-19)
(1.21031 0.0240964 4.84255e-20)
(-0.0098377 0.00773574 0)
(-0.00611342 0.0125753 0)
(0.0204343 0.0134713 7.63723e-20)
(0.0676556 0.0122575 7.05196e-20)
(0.1339 0.0105487 -1.452e-21)
(0.217389 0.00967642 -1.28901e-19)
(0.315694 0.010525 0)
(0.425481 0.0135423 -1.08983e-19)
(0.542469 0.018762 1.02237e-19)
(0.661652 0.0258375 1.1325e-22)
(0.777746 0.0341201 -1.75696e-19)
(0.885765 0.0427805 -1.61033e-19)
(0.981568 0.0509545 3.12555e-21)
(1.06227 0.057882 -1.3226e-19)
(1.12645 0.0630147 3.18548e-19)
(1.17414 0.066073 0)
(1.2066 0.0670519 -2.03446e-19)
(1.226 0.0661733 9.9367e-20)
(1.23499 0.063836 8.617e-20)
(1.23628 0.0604551 0)
(1.2324 0.0566671 6.91309e-20)
(1.22522 0.0523438 -2.34022e-19)
(1.21636 0.0495317 2.19686e-19)
(1.20665 0.0428759 1.34579e-19)
(-0.00652952 0.00512072 -8.43747e-20)
(0.00812408 0.00555892 -8.71199e-20)
(0.0495835 0.00422014 7.90045e-20)
(0.11484 0.00279867 0)
(0.201263 0.00280004 0)
(0.305673 0.00538498 -2.38607e-21)
(0.423752 0.0110856 0)
(0.549981 0.0198137 -3.30895e-19)
(0.677992 0.0309417 3.07645e-19)
(0.801245 0.0434412 -3.80544e-19)
(0.913846 0.0560848 8.75749e-20)
(1.01126 0.067674 0)
(1.09078 0.0772389 1.44919e-19)
(1.1516 0.0841684 -2.68055e-19)
(1.19465 0.0882531 6.39415e-20)
(1.22216 0.0896459 1.62303e-19)
(1.2371 0.0887644 -8.11979e-21)
(1.24263 0.0861709 -1.79462e-19)
(1.24169 0.082453 0)
(1.23666 0.0781386 0)
(1.22931 0.0736997 -6.29405e-20)
(1.22077 0.069192 5.61011e-20)
(1.21188 0.065897 1.98656e-19)
(1.20265 0.059712 -1.86518e-19)
(-0.00144764 0.0023543 -8.85111e-20)
(0.0277314 -0.0011733 -8.83194e-20)
(0.087654 -0.00354368 2.48548e-19)
(0.174021 -0.00351448 -1.5116e-19)
(0.282561 5.65815e-05 1.42281e-19)
(0.407915 0.00787705 2.59309e-19)
(0.543213 0.0197909 -1.83115e-19)
(0.680519 0.0348534 -2.22912e-19)
(0.811795 0.051576 4.30123e-21)
(0.93004 0.068249 2.86352e-19)
(1.03022 0.0832819 0)
(1.10976 0.0954772 7.85654e-20)
(1.16851 0.104179 0)
(1.2083 0.10928 -1.28173e-19)
(1.23226 0.11112 1.80333e-19)
(1.24404 0.110318 1.93072e-21)
(1.24719 0.107596 -4.69258e-20)
(1.24471 0.103643 8.77843e-20)
(1.23888 0.0990317 7.53231e-20)
(1.23128 0.0941812 -6.73206e-20)
(1.22285 0.0893943 6.2925e-20)
(1.21416 0.0847252 -5.60867e-20)
(1.2055 0.0808842 0)
(1.197 0.0750049 -4.23246e-20)
(0.00583628 -0.000426785 8.84984e-20)
(0.0535127 -0.00709202 9.26657e-20)
(0.135287 -0.00888076 -8.32279e-20)
(0.24503 -0.0054168 1.55112e-19)
(0.376051 0.00368602 -1.45993e-19)
(0.520086 0.0182635 1.32305e-19)
(0.667446 0.0370789 -6.33882e-20)
(0.808261 0.0580996 1.67325e-19)
(0.934065 0.0790117 -1.05017e-19)
(1.03904 0.0977284 1.86158e-19)
(1.12059 0.112764 -4.29435e-19)
(1.17912 0.123401 1.5747e-19)
(1.21732 0.129643 -1.38088e-19)
(1.23914 0.132031 1.29707e-19)
(1.24887 0.131389 1.11785e-19)
(1.25039 0.128602 9.79148e-20)
(1.24683 0.124459 -2.72121e-19)
(1.24041 0.119573 1.68816e-19)
(1.23255 0.114376 -7.53255e-20)
(1.22412 0.10915 1.95667e-19)
(1.21559 0.104065 -6.32229e-20)
(1.20717 0.0991848 -1.5285e-19)
(1.19899 0.0948744 1.40966e-19)
(1.19104 0.0892332 4.23108e-20)
(0.0156731 -0.00295581 0)
(0.0859629 -0.0114042 6.99263e-22)
(0.192459 -0.0106006 1.73296e-19)
(0.326583 -0.00155166 -1.62621e-19)
(0.478475 0.0148431 -1.46928e-19)
(0.636601 0.037059 2.73161e-19)
(0.788907 0.0624822 -1.26898e-19)
(0.924926 0.0880317 1.69393e-19)
(1.03755 0.110943 -3.63152e-21)
(1.12379 0.129311 -9.5988e-20)
(1.18439 0.142285 2.09867e-19)
(1.22282 0.149961 -3.09425e-19)
(1.24384 0.153086 0)
(1.25241 0.152712 -6.06515e-20)
(1.25283 0.149905 -1.62049e-19)
(1.24839 0.145573 5.09383e-20)
(1.24136 0.140394 2.09379e-21)
(1.23314 0.134829 -1.11476e-19)
(1.22453 0.129168 7.21843e-21)
(1.21594 0.123586 1.28855e-19)
(1.20756 0.118182 -5.72815e-20)
(1.19947 0.113019 -2.16717e-20)
(1.19165 0.108209 6.7095e-20)
(1.1841 0.102674 0)
(0.028289 -0.00485563 0)
(0.125142 -0.0131155 4.69407e-20)
(0.258335 -0.00738393 -2.25367e-19)
(0.416229 0.00933231 8.20638e-20)
(0.585331 0.0342397 -7.72349e-20)
(0.751153 0.0640459 -7.04973e-20)
(0.900597 0.0947519 -1.24942e-19)
(1.0245 0.122643 6.22062e-20)
(1.11884 0.145144 5.43486e-20)
(1.18437 0.161121 0)
(1.22515 0.170702 1.23996e-19)
(1.24682 0.174843 -1.84302e-19)
(1.2551 0.174857 1.37362e-19)
(1.25485 0.17204 6.06831e-20)
(1.24969 0.167464 -4.95807e-20)
(1.24204 0.161908 -4.1441e-20)
(1.23334 0.155886 -3.87576e-20)
(1.22441 0.149714 1.15934e-19)
(1.21562 0.143578 0)
(1.20714 0.137582 5.80978e-20)
(1.19902 0.13179 4.87548e-20)
(1.19125 0.126244 -1.21188e-19)
(1.18378 0.120933 -8.27012e-20)
(1.17656 0.115415 7.64477e-20)
(0.0437451 -0.00567126 -5.02642e-20)
(0.170582 -0.0111395 -1.71276e-21)
(0.331211 0.00202548 4.57826e-20)
(0.510504 0.0281396 1.27771e-19)
(0.691452 0.061962 3.71581e-20)
(0.857781 0.0983056 -7.17822e-20)
(0.997304 0.132189 6.56958e-20)
(1.10404 0.159978 -5.77641e-20)
(1.17809 0.179967 1.03423e-19)
(1.22389 0.19218 4.4199e-20)
(1.24796 0.19777 -1.2515e-19)
(1.25695 0.198363 3.70048e-20)
(1.25652 0.195559 6.31493e-20)
(1.25079 0.190666 -3.10918e-20)
(1.24249 0.184615 0)
(1.23322 0.178009 4.64568e-20)
(1.2238 0.171207 7.8536e-20)
(1.21465 0.164413 1.34096e-20)
(1.20591 0.157739 -6.54713e-20)
(1.19762 0.151252 2.73802e-20)
(1.18976 0.144994 0)
(1.18228 0.13898 -2.15026e-20)
(1.17511 0.13316 -2.03233e-20)
(1.16816 0.127525 0)
(0.0618918 -0.00491338 0)
(0.221232 -0.00443391 2.62918e-20)
(0.408571 0.0186179 4.86394e-20)
(0.605281 0.0552395 -1.29963e-19)
(0.791737 0.0974362 4.18769e-20)
(0.951773 0.138433 0)
(1.07617 0.173036 6.31841e-20)
(1.16338 0.198491 -8.8177e-20)
(1.21772 0.214446 -5.15593e-20)
(1.24653 0.222178 2.33923e-20)
(1.25761 0.223683 -3.72772e-20)
(1.25767 0.220971 9.06112e-20)
(1.25164 0.215685 4.54968e-20)
(1.24272 0.20899 -3.16296e-20)
(1.23277 0.201625 -2.95357e-21)
(1.22275 0.19402 -8.67318e-20)
(1.21308 0.18641 3.95069e-20)
(1.20395 0.178922 -1.0146e-21)
(1.19537 0.171625 0)
(1.18733 0.164563 -2.74086e-20)
(1.17976 0.157759 0)
(1.17258 0.151201 6.19773e-20)
(1.1657 0.144875 -7.3757e-20)
(1.15902 0.138992 3.36071e-20)
(0.0823375 -0.00210497 -1.36092e-20)
(0.275464 0.00787197 -6.60562e-20)
(0.487279 0.0429632 7.50417e-20)
(0.69625 0.0903929 4.41832e-20)
(0.881814 0.139544 -2.11316e-20)
(1.0301 0.182818 3.55049e-20)
(1.13643 0.215752 -1.72614e-20)
(1.20409 0.237125 2.87901e-20)
(1.24095 0.248134 0)
(1.25613 0.251164 6.53527e-20)
(1.25775 0.248762 -2.64518e-21)
(1.25186 0.243055 -5.28319e-20)
(1.24244 0.235558 2.26673e-20)
(1.23177 0.227225 -2.56094e-20)
(1.22103 0.2186 -9.76544e-21)
(1.21075 0.209972 1.12726e-20)
(1.2011 0.201489 -8.71121e-21)
(1.19212 0.193227 -4.7343e-20)
(1.18379 0.185228 2.90099e-20)
(1.17604 0.177519 5.94577e-21)
(1.16878 0.170102 5.239e-21)
(1.16192 0.162956 4.61728e-21)
(1.15535 0.156134 0)
(1.14892 0.149851 0)
(0.104512 0.00318343 1.36186e-20)
(0.331299 0.0263881 -1.36421e-20)
(0.564018 0.0751263 -2.49842e-20)
(0.779531 0.13279 0)
(0.95851 0.186825 -1.04772e-20)
(1.09134 0.229895 -9.40943e-21)
(1.17871 0.259145 -1.61562e-20)
(1.22835 0.275255 0)
(1.25066 0.280908 0)
(1.25553 0.279314 0)
(1.25059 0.273281 0)
(1.24096 0.264849 0)
(1.22963 0.255314 -1.42211e-20)
(1.21812 0.245407 6.476e-21)
(1.20713 0.235506 1.12884e-20)
(1.19688 0.225793 5.28239e-21)
(1.18742 0.216356 1.30803e-20)
(1.17873 0.207236 0)
(1.17074 0.198459 -3.14361e-21)
(1.16336 0.190036 -3.0038e-21)
(1.15649 0.181952 -5.24731e-21)
(1.15002 0.174195 -4.62463e-21)
(1.14382 0.166885 0)
(1.13775 0.160064 3.32178e-21)
(-0.00173723 0.0116952 7.75087e-21)
(-0.00739841 0.0225562 -8.04735e-21)
(-0.0170995 0.0250411 -1.52425e-20)
(-0.0288184 0.0220981 0)
(-0.0414665 0.0159014 -2.03504e-20)
(-0.0545102 0.00792206 6.34638e-21)
(-0.0675774 -0.000963273 -1.21233e-20)
(-0.0804012 -0.0103406 0)
(-0.0928006 -0.0201152 0)
(-0.104651 -0.0303757 0)
(-0.115861 -0.0412878 0)
(-0.126361 -0.0530218 0)
(-0.136089 -0.0657105 -1.31205e-22)
(-0.144983 -0.07943 -7.8612e-21)
(-0.152977 -0.0941928 1.50282e-20)
(-0.159997 -0.109943 2.10314e-20)
(-0.165967 -0.126553 6.72651e-21)
(-0.170811 -0.143816 0)
(-0.174468 -0.161446 5.6747e-21)
(-0.176914 -0.179076 -1.6131e-20)
(-0.17816 -0.196275 -1.00651e-20)
(-0.178232 -0.21256 -9.3601e-21)
(-0.177285 -0.227394 0)
(-0.17594 -0.240281 0)
(-0.00283445 0.0156991 -2.3447e-20)
(-0.00957296 0.0319971 4.0356e-20)
(-0.0195937 0.0380811 -1.54576e-20)
(-0.0312029 0.0374543 -2.91242e-20)
(-0.0435028 0.0326584 4.10211e-20)
(-0.0560659 0.0254245 -2.59863e-20)
(-0.068579 0.0168211 3.65627e-20)
(-0.0808049 0.00740006 2.34091e-20)
(-0.0925756 -0.00264823 0)
(-0.103772 -0.0133504 -2.03739e-20)
(-0.114311 -0.0248371 -1.30779e-22)
(-0.12413 -0.0372605 1.79631e-20)
(-0.133176 -0.0507488 2.60186e-20)
(-0.141399 -0.0653881 3.24924e-20)
(-0.148746 -0.0812075 -1.49892e-20)
(-0.155155 -0.0981673 -4.27716e-20)
(-0.160558 -0.11615 1.3648e-20)
(-0.164888 -0.134946 -5.08703e-20)
(-0.168088 -0.154242 0)
(-0.17014 -0.17361 1.07907e-20)
(-0.171055 -0.192514 1.00529e-20)
(-0.170797 -0.210321 9.34865e-21)
(-0.169458 -0.226303 0)
(-0.168188 -0.23978 0)
(-0.00430454 0.0192786 0)
(-0.0124352 0.0406478 8.31975e-20)
(-0.022627 0.0502597 -3.13324e-20)
(-0.0336916 0.0520185 2.94616e-20)
(-0.0450111 0.0487484 -8.4391e-20)
(-0.0563054 0.0424006 0)
(-0.067344 0.0342222 -5.02245e-20)
(-0.0779313 0.0249056 2.38529e-20)
(-0.0879164 0.0147464 -4.53253e-20)
(-0.0971869 0.00379118 2.19978e-20)
(-0.105656 -0.00804423 1.20572e-19)
(-0.113252 -0.0208894 -5.66628e-20)
(-0.119925 -0.0348715 -8.88097e-20)
(-0.125637 -0.0500792 -3.4313e-20)
(-0.130341 -0.0665623 -1.21762e-22)
(-0.133987 -0.0843074 1.18763e-19)
(-0.136523 -0.103224 -5.57667e-20)
(-0.137901 -0.123124 -9.33534e-22)
(-0.138077 -0.143702 0)
(-0.137048 -0.164506 -4.60543e-20)
(-0.134837 -0.184912 0)
(-0.131337 -0.204121 -3.74331e-20)
(-0.126383 -0.221176 1.42197e-19)
(-0.121589 -0.235108 -1.55803e-21)
(-0.00602491 0.0221256 0)
(-0.0157574 0.0478324 7.77523e-22)
(-0.025951 0.0607015 3.24525e-20)
(-0.0360445 0.0648113 -3.07834e-20)
(-0.0457627 0.0631428 2.81244e-20)
(-0.0550028 0.0578018 1.63276e-19)
(-0.0636361 0.0501838 -5.11402e-20)
(-0.0715185 0.0411121 -4.90575e-20)
(-0.0785164 0.03099 9.17171e-20)
(-0.084514 0.0199466 -1.2988e-19)
(-0.0894148 0.00795588 4.13464e-20)
(-0.0931378 -0.00507949 3.93374e-20)
(-0.0956037 -0.0192717 0)
(-0.0967608 -0.0347157 3.40719e-20)
(-0.0965747 -0.0514649 0)
(-0.0950019 -0.069522 6.23817e-20)
(-0.0920126 -0.088822 -1.15193e-19)
(-0.0875945 -0.109211 2.70492e-20)
(-0.081754 -0.130419 1.01046e-19)
(-0.0745356 -0.152025 4.60082e-20)
(-0.0660452 -0.1734 0)
(-0.0562901 -0.193651 -1.17311e-19)
(-0.0447155 -0.211568 3.69821e-20)
(-0.032048 -0.225668 0)
(-0.00783226 0.0240115 0)
(-0.0192428 0.0530081 -1.03787e-19)
(-0.0292698 0.0686572 -3.32514e-20)
(-0.0380151 0.0749509 -6.2107e-20)
(-0.0455695 0.0748785 5.84815e-20)
(-0.0520214 0.0706173 -5.47989e-20)
(-0.0573565 0.0636641 1.05133e-19)
(-0.0614897 0.0549512 4.96713e-20)
(-0.0643053 0.0449836 -1.3998e-19)
(-0.0656786 0.0339752 8.92339e-20)
(-0.065488 0.0219644 -1.2579e-19)
(-0.0636228 0.00889982 2.80547e-19)
(-0.0599847 -0.00530117 -1.50213e-19)
(-0.0544881 -0.0207183 7.2064e-20)
(-0.047066 -0.0373906 2.02587e-19)
(-0.0376877 -0.0553166 -6.21535e-20)
(-0.0263485 -0.0744291 -6.03003e-20)
(-0.0130863 -0.0945789 -5.51643e-20)
(0.00201192 -0.115519 0)
(0.0188057 -0.136875 -9.50949e-20)
(0.0370401 -0.158112 -8.52396e-20)
(0.0563278 -0.178445 1.23164e-19)
(0.0769618 -0.196429 1.42688e-19)
(0.101838 -0.209246 -1.34829e-19)
(-0.00955229 0.0248269 0)
(-0.0225675 0.0558438 -1.42711e-19)
(-0.0322667 0.0735942 -9.45967e-22)
(-0.039355 0.0817415 1.26402e-19)
(-0.0442674 0.083138 0)
(-0.0472787 0.0799425 0)
(-0.0484924 0.0736955 0)
(-0.0478876 0.0654047 -5.05249e-20)
(-0.0453695 0.0556603 -7.07331e-22)
(-0.0408031 0.0447563 9.04428e-20)
(-0.0340381 0.0327984 -1.28474e-19)
(-0.0249259 0.019788 -4.41485e-22)
(-0.0133263 0.00568559 0)
(0.000874972 -0.00955388 -7.20255e-20)
(0.0177547 -0.0259425 6.97452e-20)
(0.0373423 -0.0434444 -1.94544e-19)
(0.0596092 -0.0619551 2.42543e-19)
(0.0844476 -0.0812888 5.61732e-20)
(0.111657 -0.101168 -2.54194e-21)
(0.140942 -0.121216 -1.96942e-19)
(0.171849 -0.140973 -8.98783e-20)
(0.203916 -0.159812 2.8229e-19)
(0.236452 -0.176401 -1.87018e-19)
(0.277404 -0.186525 0)
(-0.0110346 0.0245975 7.10417e-20)
(-0.0254306 0.0562608 7.16962e-20)
(-0.0346333 0.0752566 -6.8982e-20)
(-0.0398081 0.0847437 -1.29173e-19)
(-0.0416721 0.0873232 1.21627e-19)
(-0.0406631 0.0850549 -1.1536e-19)
(-0.0369951 0.0794633 1.6333e-19)
(-0.0307121 0.0715906 -5.06979e-20)
(-0.0217425 0.0620875 9.7142e-20)
(-0.0099446 0.0513167 0)
(0.00485759 0.0394495 8.88617e-20)
(0.0228445 0.0265454 -1.66116e-19)
(0.0441715 0.0126114 1.57189e-19)
(0.0689672 -0.00234741 -1.47635e-19)
(0.0973009 -0.0182942 0)
(0.12914 -0.035147 1.31108e-19)
(0.164355 -0.0527498 2.46186e-19)
(0.202693 -0.0708617 -2.30592e-19)
(0.243757 -0.0891514 -1.0663e-19)
(0.287034 -0.107193 -9.61638e-20)
(0.331704 -0.124528 2.72207e-19)
(0.377819 -0.140389 7.81935e-20)
(0.420423 -0.154904 -7.65554e-20)
(0.480563 -0.161264 6.42175e-20)
(-0.0121826 0.0234723 -7.10513e-20)
(-0.0275956 0.054433 2.22292e-19)
(-0.0360814 0.073689 -7.02654e-20)
(-0.0390795 0.0838252 1.31354e-19)
(-0.037497 0.087131 -1.23678e-19)
(-0.0318951 0.0855097 4.89797e-22)
(-0.02258 0.0804191 5.53449e-20)
(-0.00965303 0.0728952 2.10585e-19)
(0.00693437 0.0636206 1.30624e-21)
(0.027323 0.0530121 -9.24482e-20)
(0.0516974 0.0413012 0)
(0.0802415 0.0286083 -8.46899e-20)
(0.113098 0.0150022 1.57762e-19)
(0.150333 0.000551862 1.49645e-19)
(0.191903 -0.0146558 -7.01501e-20)
(0.237612 -0.0304786 1.25772e-22)
(0.287094 -0.0467042 -6.16964e-20)
(0.339798 -0.0630421 1.14639e-19)
(0.39497 -0.0791298 1.06591e-19)
(0.451807 -0.0944845 -9.81212e-20)
(0.508668 -0.108847 8.84749e-20)
(0.567208 -0.120698 -7.97705e-20)
(0.615709 -0.132861 0)
(0.690439 -0.134339 -6.41193e-20)
(-0.0129651 0.0216881 7.31859e-20)
(-0.0289032 0.0507353 -7.45697e-20)
(-0.0363297 0.0692127 7.13386e-20)
(-0.0367709 0.0791794 0)
(-0.031228 0.0826146 0)
(-0.0203345 0.0812404 1.19829e-19)
(-0.00445782 0.0764154 -1.11477e-19)
(0.0162577 0.0691384 1.06463e-19)
(0.0418415 0.0600982 -4.98417e-19)
(0.0724159 0.0497557 -3.77893e-22)
(0.108134 0.0383972 8.91295e-20)
(0.149115 0.0262072 0)
(0.195381 0.0133225 -1.59141e-19)
(0.246802 -0.00012618 2.9926e-19)
(0.303048 -0.0139869 -2.11038e-19)
(0.363551 -0.0280642 -3.28923e-19)
(0.427499 -0.0421092 2.16541e-21)
(0.493842 -0.0558148 2.28209e-19)
(0.561284 -0.068851 0)
(0.628668 -0.0806902 0)
(0.693401 -0.0915229 -8.84612e-20)
(0.7585 -0.0988984 7.97583e-20)
(0.807861 -0.108281 -2.73885e-19)
(0.885116 -0.105008 2.56892e-19)
(-0.013408 0.0195108 0)
(-0.0292431 0.0456536 0)
(-0.0350434 0.0623586 -2.15051e-19)
(-0.032283 0.0713035 6.82722e-20)
(-0.021973 0.0742139 1.01706e-22)
(-0.00476755 0.0726428 1.20757e-19)
(0.0189421 0.0678404 0)
(0.0489801 0.0607501 -1.06456e-19)
(0.0853352 0.0520708 9.99255e-20)
(0.12807 0.0422859 -1.89747e-19)
(0.177202 0.0317283 -2.63461e-22)
(0.232628 0.020644 1.68623e-19)
(0.294042 0.00923103 3.33242e-22)
(0.360863 -0.00232962 1.48993e-19)
(0.432201 -0.0138524 -2.1039e-19)
(0.506848 -0.0251355 0)
(0.583315 -0.0359566 2.40973e-19)
(0.659905 -0.0460736 -3.39393e-19)
(0.734769 -0.055267 1.01581e-19)
(0.806321 -0.0631231 0)
(0.871889 -0.0700847 8.36825e-20)
(0.933873 -0.0736687 2.99341e-19)
(0.978415 -0.0801541 -2.80944e-19)
(1.04277 -0.0737597 -2.94797e-19)
(-0.013557 0.0171743 2.26447e-19)
(-0.0284837 0.0396793 -3.1116e-19)
(-0.0317454 0.0537718 5.89482e-22)
(-0.024708 0.060944 6.92161e-20)
(-0.00834084 0.0627618 -1.29292e-19)
(0.0167187 0.0606497 -1.20222e-19)
(0.0500721 0.0557662 2.27056e-19)
(0.0915109 0.049018 -2.92293e-22)
(0.140901 0.0410856 -2.00933e-19)
(0.198076 0.0324599 3.78975e-19)
(0.26271 0.0235163 5.41181e-22)
(0.334192 0.0145313 -1.67715e-19)
(0.411546 0.00571591 0)
(0.4934 -0.00276288 0)
(0.578005 -0.0107691 -6.94919e-20)
(0.663314 -0.0181913 -1.27046e-19)
(0.747101 -0.0249347 -2.35555e-19)
(0.827113 -0.0309323 2.21116e-19)
(0.901266 -0.0361067 -1.01626e-19)
(0.96778 -0.04041 1.786e-19)
(1.02509 -0.0439834 -9.05653e-20)
(1.07384 -0.0457235 1.372e-19)
(1.10754 -0.0497687 -3.34704e-19)
(1.148 -0.04362 5.9399e-20)
(-0.0134169 0.0148266 7.65072e-20)
(-0.0263642 0.0332111 0)
(-0.0257022 0.0441094 1.47896e-19)
(-0.0127299 0.0490151 -1.39319e-19)
(0.0116304 0.0494347 1.2941e-19)
(0.0467579 0.046721 0)
(0.0922055 0.0419706 0)
(0.1476 0.0360436 -1.07511e-19)
(0.212497 0.0295906 9.52859e-23)
(0.286208 0.0231022 9.47655e-20)
(0.367665 0.016925 -8.87694e-20)
(0.455332 0.0112835 1.67115e-19)
(0.547188 0.00629988 0)
(0.640801 0.00201016 2.9064e-19)
(0.73347 -0.00161936 -5.42625e-19)
(0.822428 -0.00467451 3.80373e-19)
(0.905054 -0.00726697 2.28782e-19)
(0.97908 -0.00954107 -2.1477e-19)
(1.04281 -0.0115492 0)
(1.09509 -0.0135901 0)
(1.13585 -0.0152285 0)
(1.1651 -0.0174792 0)
(1.18367 -0.0194212 6.43416e-20)
(1.19914 -0.0182396 -2.18477e-19)
(-0.17474 -0.253083 -5.61626e-21)
(-0.172671 -0.26533 5.64396e-21)
(-0.168161 -0.27165 -1.67242e-22)
(-0.161577 -0.270688 0)
(-0.152253 -0.26072 -5.21088e-21)
(-0.139758 -0.240312 1.01846e-20)
(-0.123621 -0.207985 5.64745e-23)
(-0.103358 -0.162748 -4.89249e-21)
(-0.0785641 -0.104288 0)
(-0.049018 -0.0335442 0)
(-0.0151442 0.0478781 -2.58133e-22)
(0.0217509 0.13614 -2.42692e-22)
(0.060482 0.226377 -3.95547e-21)
(0.0991984 0.313317 3.62685e-21)
(0.134869 0.389772 0)
(0.164656 0.452771 0)
(0.185291 0.501432 2.10176e-21)
(0.195537 0.536602 -1.99744e-22)
(0.198857 0.557052 -1.68426e-21)
(0.204808 0.555208 -1.04091e-22)
(0.225802 0.517903 0)
(0.269346 0.434566 0)
(0.332353 0.305472 0)
(0.406199 0.141146 0)
(0.483658 -0.0407269 0)
(0.558441 -0.214167 0)
(0.623076 -0.351714 4.96553e-22)
(0.670576 -0.43986 -8.32631e-22)
(0.697937 -0.482037 0)
(0.709925 -0.488566 0)
(0.709014 -0.478094 -3.00776e-22)
(0.685313 -0.47757 2.9233e-22)
(0.634752 -0.492575 1.36779e-22)
(0.579403 -0.48258 0)
(0.554237 -0.392313 0)
(0.573897 -0.212904 4.54965e-22)
(0.623872 0.00557763 -4.42242e-22)
(0.681166 0.201639 0)
(0.729919 0.336469 2.92291e-22)
(0.768591 0.40212 -4.06911e-22)
(0.788773 0.427926 1.0359e-22)
(0.775344 0.453986 0)
(0.727631 0.479538 -1.98597e-22)
(0.677728 0.444585 1.93119e-22)
(0.655958 0.307821 0)
(0.6745 0.0913019 0)
(0.711846 -0.117338 -1.07185e-22)
(0.761659 -0.263579 3.00902e-22)
(0.788507 -0.344912 0)
(0.779589 -0.396806 0)
(0.734395 -0.424583 -4.95698e-23)
(0.692823 -0.369446 8.18269e-24)
(0.665909 -0.247939 6.37804e-25)
(0.691378 -0.0431485 3.714e-23)
(0.71352 0.0994152 0)
(0.744422 0.247173 0)
(0.728664 0.308692 0)
(0.694856 0.315245 0)
(0.663528 0.279109 0)
(0.695371 0.0526364 0)
(-0.169158 -0.252825 -5.45148e-22)
(-0.172736 -0.26729 -2.18906e-20)
(-0.173725 -0.275835 6.08813e-22)
(-0.173612 -0.277378 1.99729e-20)
(-0.171638 -0.270349 2.87312e-22)
(-0.167319 -0.253254 0)
(-0.159981 -0.224698 -1.74358e-20)
(-0.148815 -0.183601 3.42951e-20)
(-0.132985 -0.129461 -1.68523e-20)
(-0.111738 -0.0627447 1.57637e-20)
(-0.0849462 0.0148143 -1.50636e-20)
(-0.0533378 0.100658 1.3744e-20)
(-0.0177752 0.190161 -1.32857e-20)
(0.0188329 0.27938 -3.36389e-22)
(0.0545142 0.359889 -1.00696e-20)
(0.0881199 0.429378 9.78579e-21)
(0.116886 0.485368 -7.7944e-21)
(0.141157 0.525957 7.35818e-21)
(0.165411 0.546804 -7.01022e-21)
(0.198 0.538951 1.39537e-20)
(0.247004 0.491601 -6.93903e-21)
(0.31385 0.399214 -5.19299e-22)
(0.392043 0.265246 -9.13321e-21)
(0.47396 0.099391 1.81096e-20)
(0.554466 -0.0820027 -8.97358e-21)
(0.627578 -0.252059 5.19444e-22)
(0.685627 -0.38221 6.18937e-21)
(0.723485 -0.459727 -1.07937e-21)
(0.739754 -0.491618 -7.92578e-21)
(0.74 -0.490553 6.08953e-21)
(0.730848 -0.471787 -2.63989e-21)
(0.704775 -0.460079 2.52542e-22)
(0.652477 -0.467583 -1.37046e-22)
(0.589143 -0.462485 2.60265e-22)
(0.549985 -0.388483 0)
(0.556451 -0.226127 0)
(0.59862 -0.016907 -1.52307e-21)
(0.654292 0.17839 1.14811e-21)
(0.707517 0.317165 8.00446e-22)
(0.753431 0.389674 -2.49499e-23)
(0.778712 0.42604 -9.7778e-22)
(0.767903 0.463547 1.92612e-22)
(0.723423 0.494786 0)
(0.68065 0.456177 0)
(0.666828 0.309827 0)
(0.690439 0.084565 0)
(0.726883 -0.12932 5.39817e-22)
(0.773957 -0.274253 -1.96842e-22)
(0.798618 -0.347471 0)
(0.788573 -0.390022 0)
(0.742355 -0.41384 0)
(0.699228 -0.361392 -7.7874e-23)
(0.672229 -0.247521 1.45447e-23)
(0.693319 -0.0489953 -8.43779e-23)
(0.715351 0.0937741 0)
(0.739305 0.245809 0)
(0.722658 0.313446 3.72471e-23)
(0.688951 0.321608 8.44265e-23)
(0.656448 0.279392 0)
(0.693802 0.0490342 0)
(-0.122404 -0.247726 -1.25521e-21)
(-0.131607 -0.26435 -4.46651e-20)
(-0.137679 -0.27505 4.05898e-20)
(-0.143546 -0.279051 -3.79805e-20)
(-0.148477 -0.274866 -2.89279e-22)
(-0.151976 -0.261086 0)
(-0.153347 -0.236405 -3.07984e-20)
(-0.151657 -0.199755 3.0105e-20)
(-0.145806 -0.150512 2.37919e-22)
(-0.134648 -0.0888094 3.61884e-22)
(-0.117008 -0.0159554 3.37012e-22)
(-0.0932517 0.0660081 4.02528e-22)
(-0.0631141 0.153585 -2.05188e-20)
(-0.0300899 0.242473 2.02795e-20)
(0.00440339 0.3252 0)
(0.0417657 0.398898 4.36635e-22)
(0.0796528 0.459302 -1.39058e-20)
(0.119101 0.502276 1.37298e-20)
(0.164009 0.521575 0)
(0.220098 0.508343 0)
(0.291026 0.454615 -1.70505e-20)
(0.374165 0.358515 3.55789e-20)
(0.462021 0.224631 -3.762e-20)
(0.548546 0.0611307 -8.08955e-23)
(0.629987 -0.1171 3.72322e-20)
(0.699909 -0.282011 -3.44054e-20)
(0.750015 -0.404426 2.71688e-20)
(0.777156 -0.472315 -3.41135e-21)
(0.782504 -0.495244 -9.27831e-21)
(0.77167 -0.488485 0)
(0.753914 -0.464217 0)
(0.725565 -0.442856 1.41228e-21)
(0.673503 -0.441816 -1.84409e-21)
(0.604733 -0.439727 -4.51767e-23)
(0.552658 -0.381873 2.44113e-21)
(0.545053 -0.238123 -2.3725e-21)
(0.578084 -0.0401212 0)
(0.631381 0.152689 3.33733e-22)
(0.688475 0.294749 2.23096e-21)
(0.740652 0.374755 -4.02115e-21)
(0.770338 0.42258 1.65509e-21)
(0.762221 0.471807 1.96376e-22)
(0.721696 0.508567 -2.2974e-21)
(0.686548 0.466591 1.81666e-21)
(0.680717 0.311795 6.24771e-22)
(0.70938 0.0791433 6.60311e-22)
(0.744862 -0.139243 -5.41174e-22)
(0.788348 -0.283469 0)
(0.810393 -0.349332 0)
(0.79926 -0.382848 -8.69875e-22)
(0.751832 -0.403017 3.99033e-22)
(0.707261 -0.353726 -2.64061e-22)
(0.680859 -0.247368 3.84867e-22)
(0.697359 -0.0548197 4.50219e-22)
(0.718718 0.0885993 -1.36352e-22)
(0.735465 0.245074 1.99453e-22)
(0.71767 0.318261 -1.61158e-22)
(0.684305 0.328019 7.15546e-23)
(0.651437 0.279388 0)
(0.693895 0.0450719 0)
(-0.0313855 -0.237263 -9.2071e-20)
(-0.0460172 -0.255416 5.80463e-21)
(-0.0572262 -0.267878 8.16606e-20)
(-0.0690176 -0.274289 -5.83345e-22)
(-0.0807385 -0.272894 0)
(-0.0918176 -0.262434 0)
(-0.101518 -0.241665 -5.25358e-20)
(-0.108885 -0.209579 2.7759e-21)
(-0.112746 -0.165524 6.82103e-20)
(-0.111851 -0.109405 -1.52812e-21)
(-0.10453 -0.0421038 -1.97419e-20)
(-0.0897943 0.0341399 -1.63341e-20)
(-0.0670252 0.119256 1.63141e-20)
(-0.0392716 0.203783 0)
(-0.00689067 0.285904 -1.3142e-20)
(0.0330978 0.360962 1.19915e-20)
(0.07872 0.423077 0)
(0.131025 0.466434 0)
(0.192506 0.483768 1.32744e-20)
(0.266033 0.467026 2.1302e-21)
(0.351746 0.410808 -1.41068e-20)
(0.444714 0.315659 -1.98568e-20)
(0.537626 0.185956 2.00049e-20)
(0.625907 0.0273892 -2.15063e-20)
(0.706938 -0.145921 1.48601e-21)
(0.773202 -0.304725 1.88484e-20)
(0.814967 -0.419392 1.82539e-21)
(0.830832 -0.478729 -1.15979e-23)
(0.825419 -0.493892 0)
(0.804501 -0.482669 5.28459e-21)
(0.778001 -0.455479 -5.40703e-21)
(0.74684 -0.426772 2.3333e-22)
(0.696626 -0.41629 0)
(0.625592 -0.414287 -2.17843e-22)
(0.562505 -0.371363 3.95425e-21)
(0.540469 -0.247945 -7.77307e-21)
(0.5631 -0.0636098 -6.27531e-22)
(0.613025 0.124913 2.93561e-22)
(0.672985 0.26958 3.44853e-21)
(0.730223 0.357545 4.22403e-22)
(0.76359 0.417388 -3.14562e-21)
(0.758253 0.478367 2.66517e-21)
(0.722284 0.520536 -1.52569e-23)
(0.694921 0.475748 2.41469e-21)
(0.696876 0.313973 -2.97438e-21)
(0.730624 0.0753639 -4.71266e-21)
(0.765489 -0.146963 1.30281e-21)
(0.804723 -0.291206 1.61198e-21)
(0.823649 -0.350672 -2.69829e-21)
(0.81146 -0.375432 1.56078e-21)
(0.762632 -0.392053 -2.63979e-22)
(0.716523 -0.346358 3.62088e-22)
(0.691197 -0.247419 2.0801e-22)
(0.703094 -0.0605283 -5.50925e-22)
(0.723391 0.0839254 -2.71928e-23)
(0.732896 0.244987 -1.54087e-22)
(0.713695 0.323131 0)
(0.680882 0.334375 -6.37697e-23)
(0.648732 0.279052 1.7587e-22)
(0.695791 0.0408125 0)
(0.104008 -0.221246 9.28475e-20)
(0.0853824 -0.238898 -1.74744e-19)
(0.0690611 -0.253456 8.11972e-20)
(0.0510479 -0.262018 6.68307e-20)
(0.0322738 -0.26326 -1.24221e-19)
(0.0131866 -0.256174 6.21681e-21)
(-0.00519376 -0.239481 5.02942e-20)
(-0.0217489 -0.212143 3.88462e-20)
(-0.035159 -0.173458 -3.80736e-20)
(-0.0441628 -0.12323 0)
(-0.0473281 -0.0620263 -2.61482e-20)
(-0.041148 0.00839794 4.85715e-20)
(-0.0269965 0.0860717 -2.26444e-20)
(-0.00677505 0.164323 0)
(0.0227762 0.243693 0)
(0.0630881 0.317308 3.41748e-22)
(0.113072 0.378784 -1.97347e-20)
(0.173518 0.421275 1.91707e-20)
(0.245442 0.43713 0)
(0.329345 0.419196 3.05846e-20)
(0.422986 0.363986 -6.37288e-20)
(0.520183 0.273399 7.32564e-20)
(0.614292 0.150725 -8.20789e-20)
(0.702782 -0.00127416 -1.57322e-21)
(0.783205 -0.168313 8.27549e-20)
(0.845525 -0.32003 -3.98506e-20)
(0.878791 -0.42662 -9.33472e-22)
(0.883246 -0.478504 -9.27885e-21)
(0.867307 -0.487634 2.48793e-21)
(0.837667 -0.473182 7.00711e-21)
(0.803072 -0.445188 2.75536e-22)
(0.768398 -0.412084 -3.01623e-21)
(0.720852 -0.392503 5.56628e-21)
(0.650706 -0.387609 -2.84026e-21)
(0.579314 -0.357075 0)
(0.543192 -0.254788 -3.94959e-21)
(0.554459 -0.0866806 3.8855e-21)
(0.59976 0.0955294 -2.93989e-21)
(0.661148 0.241981 3.65192e-21)
(0.722013 0.338072 -3.35728e-22)
(0.75832 0.410188 0)
(0.755895 0.482802 -3.84525e-22)
(0.724954 0.53044 1.3653e-21)
(0.705233 0.483747 0)
(0.714594 0.316405 7.22774e-21)
(0.753491 0.0731812 -2.70484e-21)
(0.788346 -0.15241 1.25975e-21)
(0.822919 -0.297245 1.00073e-21)
(0.838177 -0.351425 0)
(0.824993 -0.367782 0)
(0.774655 -0.380898 -8.14134e-22)
(0.726695 -0.339262 1.04322e-21)
(0.702622 -0.247669 -4.88457e-22)
(0.71011 -0.0660954 9.49176e-23)
(0.729129 0.0797401 2.59733e-22)
(0.731563 0.245536 1.54235e-22)
(0.710733 0.328043 -2.5237e-22)
(0.678654 0.340551 0)
(0.648414 0.278324 -2.54764e-22)
(0.699516 0.0363147 -8.4437e-23)
(0.277649 -0.199662 9.38201e-20)
(0.257926 -0.216569 -9.30894e-20)
(0.23661 -0.231693 6.17952e-22)
(0.214195 -0.241004 -5.28016e-22)
(0.188973 -0.244101 4.76997e-22)
(0.161884 -0.240026 -4.11481e-22)
(0.134341 -0.227562 6.28539e-22)
(0.107839 -0.205632 0)
(0.0841116 -0.173401 -4.07109e-22)
(0.064761 -0.130488 3.22786e-22)
(0.0510153 -0.0770673 2.588e-22)
(0.0459262 -0.0138702 -3.23209e-22)
(0.050501 0.0544361 0)
(0.0643015 0.127167 0)
(0.0892664 0.201598 1.52289e-22)
(0.126818 0.271346 0)
(0.177016 0.330216 -1.92593e-22)
(0.240183 0.37098 0)
(0.316182 0.386011 -2.2994e-20)
(0.403887 0.368846 5.10268e-20)
(0.499616 0.317177 -6.16408e-20)
(0.596599 0.23351 3.34965e-20)
(0.689297 0.119493 4.26953e-20)
(0.777354 -0.0245202 -4.14518e-20)
(0.857204 -0.184375 -4.15256e-20)
(0.915298 -0.32812 4.02079e-20)
(0.939982 -0.426449 0)
(0.933401 -0.47207 7.14834e-22)
(0.907399 -0.477143 0)
(0.870383 -0.460661 0)
(0.828898 -0.433249 6.78483e-21)
(0.790017 -0.398615 -7.08451e-21)
(0.745114 -0.371329 2.65392e-22)
(0.678676 -0.360979 2.82886e-22)
(0.602413 -0.339361 -2.19683e-22)
(0.553285 -0.257847 -2.62761e-21)
(0.552506 -0.108412 2.55167e-21)
(0.591821 0.0651646 -3.06404e-21)
(0.652883 0.212283 2.59873e-21)
(0.715799 0.316331 6.28967e-22)
(0.75434 0.400642 -2.9261e-21)
(0.754953 0.484705 -9.56082e-22)
(0.729351 0.53817 2.41462e-21)
(0.716922 0.49078 0)
(0.733163 0.319112 -2.91918e-21)
(0.777345 0.0724202 4.41171e-21)
(0.813017 -0.155591 -5.7579e-21)
(0.842761 -0.301423 -1.00705e-21)
(0.853764 -0.351566 0)
(0.839601 -0.35997 2.87492e-22)
(0.787786 -0.369476 -7.02391e-22)
(0.737536 -0.332304 -3.49114e-23)