/*--------------------------------*- C++ -*----------------------------------*\
| =========                 |                                                 |
| \\      /  F ield         | OpenFOAM: The Open Source CFD Toolbox           |
|  \\    /   O peration     | Version:  2512                                  |
|   \\  /    A nd           | Website:  www.openfoam.com                      |
|    \\/     M anipulation  |                                                 |
\*---------------------------------------------------------------------------*/
FoamFile
{
    version     2.0;
    format      ascii;
    arch        "LSB;label=32;scalar=64";
    class       volVectorField;
    location    "56.25";
    object      U;
}
// * * * * * * * * * * * * * * * * * * * * * * * * * * * * * * * * * * * * * //

dimensions      [0 1 -1 0 0 0 0];

internalField   nonuniform List<vector> 
13248
(
(-0.0128014 0.0120959 7.18943e-20)
(-0.0238238 0.0261701 0)
(-0.0205837 0.034197 -1.35911e-19)
(-0.00408052 0.0378568 1.28028e-19)
(0.0249667 0.0386151 1.19927e-19)
(0.0660184 0.0377009 0)
(0.118577 0.0360789 0)
(0.18206 0.0344879 2.91524e-19)
(0.255649 0.0334698 -6.87087e-22)
(0.33814 0.0333795 -2.56027e-19)
(0.427847 0.0343914 2.39287e-19)
(0.522587 0.0365072 -1.49788e-19)
(0.619757 0.0395729 0)
(0.716481 0.0433065 -2.60775e-19)
(0.80982 0.0473375 4.87672e-19)
(0.896997 0.0512528 -1.15993e-19)
(0.975614 0.0546498 -2.08467e-19)
(1.04382 0.0571615 1.95703e-19)
(1.10045 0.0585812 0)
(1.145 0.058519 0)
(1.17795 0.0576618 0)
(1.1993 0.053596 0)
(1.21251 0.0527895 5.92629e-20)
(1.21426 0.0378766 2.13526e-19)
(-0.0122438 0.0102528 -2.17046e-19)
(-0.0188149 0.0204133 1.47887e-19)
(-0.00801071 0.0253207 -1.28292e-21)
(0.0188336 0.026868 -1.95429e-19)
(0.0607923 0.0266409 -1.19799e-19)
(0.117068 0.0259326 -1.13329e-19)
(0.186713 0.0257045 -2.08969e-19)
(0.268419 0.0266265 1.97434e-19)
(0.360336 0.0290981 0)
(0.459971 0.033253 5.61929e-22)
(0.564224 0.0389692 1.01887e-21)
(0.66956 0.0458986 1.49244e-19)
(0.772278 0.0535214 0)
(0.868839 0.0612186 0)
(0.956174 0.0683561 1.7798e-19)
(1.03194 0.0743642 -3.34372e-19)
(1.09468 0.0788045 2.01111e-19)
(1.14389 0.0814117 -1.8881e-19)
(1.17997 0.0821096 -8.35048e-20)
(1.2041 0.080981 -1.53009e-19)
(1.21789 0.078353 -6.39074e-20)
(1.2236 0.0741621 -1.20171e-19)
(1.22286 0.0706492 1.75821e-19)
(1.21767 0.0623469 5.05171e-20)
(-0.0108221 0.00820363 0)
(-0.0106024 0.0143591 0)
(0.0106498 0.0165489 6.91296e-20)
(0.051048 0.0167569 6.37549e-20)
(0.10921 0.0166301 -1.42276e-21)
(0.183716 0.0174779 -1.16693e-19)
(0.272665 0.0201705 0)
(0.373426 0.0251639 -9.82921e-20)
(0.482535 0.0325214 9.24518e-20)
(0.595803 0.0419377 4.1174e-22)
(0.70862 0.0527957 -1.59235e-19)
(0.816397 0.064266 -1.46883e-19)
(0.915034 0.0754342 2.02587e-21)
(1.00132 0.0854345 -1.23237e-19)
(1.0732 0.0935644 2.94574e-19)
(1.12987 0.0993647 0)
(1.17172 0.102654 -1.93673e-19)
(1.20012 0.103508 9.39887e-20)
(1.21713 0.102239 8.34314e-20)
(1.22515 0.0992218 0)
(1.22664 0.0951605 6.88144e-20)
(1.22362 0.0899353 -2.37515e-19)
(1.21788 0.0858764 2.22966e-19)
(1.21118 0.0778447 1.41335e-19)
(-0.00813346 0.00589377 -7.65073e-20)
(0.00179848 0.00809001 -7.90535e-20)
(0.0367654 0.00827961 7.16042e-20)
(0.0940589 0.00832148 0)
(0.171441 0.00978433 0)
(0.266311 0.0138529 -2.31468e-21)
(0.375148 0.0211074 0)
(0.493371 0.0315385 -2.99617e-19)
(0.615526 0.0446099 2.78847e-19)
(0.735772 0.0593659 -3.45169e-19)
(0.848542 0.0746 7.95427e-20)
(0.949191 0.0890595 0)
(1.03448 0.101644 1.33712e-19)
(1.1028 0.111554 -2.48205e-19)
(1.15416 0.118374 5.90817e-20)
(1.18993 0.122066 1.53585e-19)
(1.21242 0.122914 -5.88368e-21)
(1.2244 0.121419 -1.71439e-19)
(1.22871 0.118176 0)
(1.22785 0.113773 0)
(1.2238 0.108786 -6.23781e-20)
(1.21795 0.103349 5.62441e-20)
(1.21132 0.0989185 2.03293e-19)
(1.20429 0.0916254 -1.9085e-19)
(-0.00374642 0.00335238 -8.04407e-20)
(0.0193528 0.00187462 -8.02049e-20)
(0.0714915 0.00113138 2.25665e-19)
(0.148787 0.00255784 -1.37085e-19)
(0.247579 0.00740522 1.29036e-19)
(0.36337 0.0164718 2.34949e-19)
(0.490342 0.0297312 -1.66056e-19)
(0.621587 0.0463887 -2.02705e-19)
(0.749823 0.0650776 3.49609e-21)
(0.868328 0.0841332 2.60518e-19)
(0.971826 0.101905 0)
(1.05705 0.117039 7.23757e-20)
(1.12293 0.128657 0)
(1.17031 0.136423 -1.19651e-19)
(1.20151 0.140488 1.68429e-19)
(1.21967 0.141356 1.67006e-21)
(1.22812 0.13972 -4.47284e-20)
(1.22991 0.136306 8.42886e-20)
(1.2275 0.131768 7.30682e-20)
(1.22269 0.126617 -6.59311e-20)
(1.21662 0.12125 6.23633e-20)
(1.21 0.115769 -5.62301e-20)
(1.20317 0.111016 0)
(1.19653 0.104238 -4.3266e-20)
(0.00275146 0.000722144 8.04292e-20)
(0.0428804 -0.00376362 8.43377e-20)
(0.115575 -0.00397786 -7.55899e-20)
(0.21532 0.00070656 1.40873e-19)
(0.336324 0.0108604 -1.32594e-19)
(0.471467 0.0265015 1.20192e-19)
(0.612227 0.0466051 -5.76343e-20)
(0.749593 0.0693209 1.52149e-19)
(0.875389 0.0924145 -9.56881e-20)
(0.983472 0.11374 1.70714e-19)
(1.07042 0.131628 -3.94823e-19)
(1.13561 0.145108 1.45356e-19)
(1.18073 0.15394 -1.28573e-19)
(1.20898 0.158475 1.20768e-19)
(1.22423 0.159446 1.05454e-19)
(1.23027 0.157735 9.34058e-20)
(1.23032 0.154188 -2.60004e-19)
(1.2268 0.149504 1.61685e-19)
(1.22137 0.144203 -7.30708e-20)
(1.21504 0.138637 1.92152e-19)
(1.20839 0.13303 -6.19332e-20)
(1.20169 0.127474 -1.53046e-19)
(1.1951 0.122412 1.41616e-19)
(1.18874 0.116016 4.32513e-20)
(0.0117101 -0.00173433 0)
(0.0729304 -0.00804292 6.86476e-22)
(0.169162 -0.00586144 1.5779e-19)
(0.292697 0.00414997 -1.48015e-19)
(0.434883 0.021386 -1.33722e-19)
(0.585498 0.044604 2.48718e-19)
(0.733515 0.0714445 -1.15594e-19)
(0.868856 0.0989602 1.54771e-19)
(0.984069 0.124341 -3.02501e-21)
(1.07525 0.145479 -8.80698e-20)
(1.14204 0.161241 1.93791e-19)
(1.18684 0.171455 -2.86535e-19)
(1.2137 0.176683 0)
(1.22721 0.177895 -5.69158e-20)
(1.23162 0.176171 -1.53141e-19)
(1.23035 0.172489 4.806e-20)
(1.22589 0.167616 1.70097e-21)
(1.21984 0.162094 -1.08168e-19)
(1.21313 0.156277 5.89376e-21)
(1.20627 0.150382 1.25508e-19)
(1.19951 0.144538 -5.65761e-20)
(1.19293 0.138824 -2.20035e-20)
(1.18655 0.133411 6.69404e-20)
(1.18041 0.127248 0)
(0.0233735 -0.0036512 0)
(0.109657 -0.00998364 4.27651e-20)
(0.231628 -0.00318963 -2.056e-19)
(0.378803 0.0142026 7.48489e-20)
(0.539123 0.0398231 -7.04453e-20)
(0.699353 0.0707306 -6.4482e-20)
(0.846994 0.103141 -1.14418e-19)
(0.972618 0.133333 5.68536e-20)
(1.07127 0.158522 4.97336e-20)
(1.14248 0.177261 0)
(1.1892 0.189378 1.14978e-19)
(1.21631 0.195631 -1.71847e-19)
(1.22915 0.19725 1.28118e-19)
(1.23256 0.195555 5.6945e-20)
(1.23029 0.191691 -4.71819e-20)
(1.22498 0.186533 -3.99711e-20)
(1.21826 0.180674 -3.7582e-20)
(1.21107 0.17449 1.11377e-19)
(1.20388 0.168205 0)
(1.19691 0.161949 5.703e-20)
(1.19023 0.155802 4.87241e-20)
(1.18383 0.14982 -1.20107e-19)
(1.17767 0.14402 -8.34359e-20)
(1.17173 0.137976 7.70792e-20)
(0.0378368 -0.00458674 -4.60476e-20)
(0.152717 -0.00850842 -1.69199e-21)
(0.301497 0.0053241 4.18204e-20)
(0.470449 0.0318611 1.16923e-19)
(0.644047 0.0663988 3.41299e-20)
(0.806936 0.104094 -6.58956e-20)
(0.946889 0.14004 6.02518e-20)
(1.05704 0.170412 -5.30709e-20)
(1.13618 0.193156 9.54971e-20)
(1.18755 0.207956 4.10246e-20)
(1.21678 0.215727 -1.16291e-19)
(1.23013 0.218 3.44923e-20)
(1.23317 0.216392 5.93373e-20)
(1.23017 0.212292 -2.91248e-20)
(1.22407 0.206729 0)
(1.21663 0.200389 4.41856e-20)
(1.20885 0.193694 7.54214e-20)
(1.20119 0.186884 1.33813e-20)
(1.19387 0.180097 -6.32918e-20)
(1.18695 0.173412 2.67562e-20)
(1.1804 0.166879 0)
(1.17418 0.160524 -2.13482e-20)
(1.16821 0.154312 -2.03828e-20)
(1.16243 0.148244 0)
(0.0549976 -0.00406092 0)
(0.201197 -0.0025683 2.41195e-20)
(0.376455 0.0207252 4.46291e-20)
(0.563669 0.0576043 -1.19189e-19)
(0.744505 0.100661 3.84756e-20)
(0.903146 0.143353 0)
(1.02967 0.180354 5.83151e-20)
(1.1212 0.208548 -8.14684e-20)
(1.1807 0.227176 -4.77006e-20)
(1.21448 0.23722 2.16421e-20)
(1.22982 0.24054 -3.49582e-20)
(1.23328 0.239147 8.47214e-20)
(1.22991 0.234762 4.28574e-20)
(1.2231 0.228656 -2.95936e-20)
(1.21491 0.221658 -2.57601e-21)
(1.20643 0.214265 -8.26418e-20)
(1.19818 0.206754 3.77462e-20)
(1.19039 0.199275 -9.708e-22)
(1.1831 0.19191 0)
(1.1763 0.18471 -2.67841e-20)
(1.16994 0.177704 0)
(1.16392 0.17089 6.16765e-20)
(1.15816 0.164252 -7.38061e-20)
(1.15255 0.158024 3.37755e-20)
(0.0745178 -0.00159797 -1.25675e-20)
(0.253603 0.0087362 -6.07466e-20)
(0.453507 0.0436629 6.91077e-20)
(0.654174 0.0913041 4.06935e-20)
(0.835894 0.141576 -1.94134e-20)
(0.984473 0.186905 3.2817e-20)
(1.09401 0.222482 -1.59072e-20)
(1.16626 0.246614 2.66586e-20)
(1.2079 0.260112 0)
(1.22731 0.265152 6.09811e-20)
(1.23235 0.264246 -2.36309e-21)
(1.22912 0.259588 -4.9506e-20)
(1.22179 0.252801 2.13383e-20)
(1.21283 0.244943 -2.42603e-20)
(1.20358 0.236634 -9.37837e-21)
(1.19465 0.22821 1.06983e-20)
(1.18627 0.219843 -8.35708e-21)
(1.17852 0.211625 -4.57429e-20)
(1.17137 0.203604 2.80605e-20)
(1.16477 0.195813 5.80999e-21)
(1.15863 0.188262 5.15648e-21)
(1.15284 0.180929 4.58016e-21)
(1.14731 0.173868 0)
(1.14188 0.167329 0)
(0.0958786 0.00323983 1.25762e-20)
(0.308058 0.0260654 -1.25819e-20)
(0.5294 0.0742958 -2.30311e-20)
(0.737988 0.132246 0)
(0.914741 0.187722 -9.64802e-21)
(1.0491 0.233158 -8.71355e-21)
(1.1402 0.265179 -1.49798e-20)
(1.19429 0.283964 0)
(1.2208 0.291875 0)
(1.22916 0.292014 0)
(1.22695 0.287226 0)
(1.21944 0.279661 0)
(1.20981 0.270727 -1.34229e-20)
(1.19976 0.261245 6.12091e-21)
(1.19007 0.251649 1.0725e-20)
(1.18104 0.242154 5.02894e-21)
(1.17275 0.232863 1.25395e-20)
(1.16519 0.223827 0)
(1.15829 0.215074 -3.06175e-21)
(1.15197 0.206623 -2.94468e-21)
(1.14613 0.198462 -5.16468e-21)
(1.14065 0.190576 -4.58747e-21)
(1.13542 0.183092 0)
(1.13026 0.176103 3.368e-21)
(-0.00155638 0.0135847 7.33083e-21)
(-0.00654554 0.0302398 -7.6039e-21)
(-0.0150124 0.0395157 -1.43942e-20)
(-0.025255 0.0435202 0)
(-0.0363249 0.0439034 -1.92187e-20)
(-0.0477368 0.0419132 6.00362e-21)
(-0.0591509 0.0384312 -1.14313e-20)
(-0.0703293 0.0340188 0)
(-0.0811187 0.0289792 0)
(-0.0914228 0.0234266 0)
(-0.101181 0.0173514 0)
(-0.110355 0.0106743 0)
(-0.118907 0.00328544 -9.24717e-23)
(-0.126802 -0.00491829 -7.44398e-21)
(-0.134006 -0.0140268 1.42056e-20)
(-0.14048 -0.0241008 1.99366e-20)
(-0.146177 -0.0351605 6.37698e-21)
(-0.151053 -0.0471847 0)
(-0.155067 -0.0601024 5.42028e-21)
(-0.158203 -0.0737856 -1.54427e-20)
(-0.160476 -0.0880543 -9.68705e-21)
(-0.161949 -0.102689 -9.05043e-21)
(-0.16279 -0.117449 0)
(-0.163342 -0.132098 0)
(-0.00263208 0.0167825 -2.21396e-20)
(-0.00871283 0.0379224 3.81028e-20)
(-0.0173889 0.0502662 -1.45427e-20)
(-0.0273304 0.0563015 -2.74182e-20)
(-0.0378055 0.0579426 3.86472e-20)
(-0.0484498 0.0566371 -2.44369e-20)
(-0.058999 0.0534253 3.44129e-20)
(-0.0692592 0.0489912 2.19215e-20)
(-0.0790999 0.0437282 0)
(-0.0884359 0.0378135 -1.92058e-20)
(-0.0972114 0.0312776 -1.27101e-22)
(-0.105389 0.0240644 1.69369e-20)
(-0.112938 0.0160776 2.44165e-20)
(-0.11983 0.00720475 3.05952e-20)
(-0.126035 -0.00265419 -1.41128e-20)
(-0.131507 -0.0135737 -4.03999e-20)
(-0.136203 -0.0255884 1.29532e-20)
(-0.140079 -0.0386734 -4.8285e-20)
(-0.143082 -0.0527431 0)
(-0.145176 -0.06763 1.0341e-20)
(-0.146351 -0.0830751 9.67461e-21)
(-0.146622 -0.0987342 9.03871e-21)
(-0.146091 -0.114166 0)
(-0.145258 -0.128882 0)
(-0.00398901 0.0194079 0)
(-0.0114413 0.0444257 7.80193e-20)
(-0.020286 0.0595885 -2.93904e-20)
(-0.0296678 0.0676079 2.7652e-20)
(-0.0391248 0.0705688 -7.89277e-20)
(-0.0484424 0.0700634 0)
(-0.0574501 0.0672601 -4.68968e-20)
(-0.0660101 0.0629512 2.22087e-20)
(-0.0740204 0.0576183 -4.21134e-20)
(-0.0814069 0.0515056 2.02763e-20)
(-0.0881151 0.0446915 1.12201e-19)
(-0.0941043 0.0371493 -5.27327e-20)
(-0.099341 0.0287949 -8.29213e-20)
(-0.103795 0.0195188 -3.20154e-20)
(-0.107436 0.00921191 -2.67653e-22)
(-0.110226 -0.00221796 1.11498e-19)
(-0.112107 -0.0148301 -5.24507e-20)
(-0.113028 -0.0286292 -7.89945e-22)
(-0.112944 -0.0435385 0)
(-0.111805 -0.0593797 -4.4349e-20)
(-0.109582 -0.0758408 0)
(-0.106205 -0.092444 -3.72353e-20)
(-0.101552 -0.108488 1.42056e-19)
(-0.0964044 -0.123082 -6.35855e-22)
(-0.00550745 0.0212808 0)
(-0.0145062 0.0493264 5.61001e-22)
(-0.0234689 0.0669007 3.01844e-20)
(-0.0320599 0.0767529 -2.85687e-20)
(-0.0401131 0.0810269 2.63116e-20)
(-0.0475776 0.081393 1.51568e-19)
(-0.0543895 0.0791069 -4.7491e-20)
(-0.0604754 0.0750476 -4.53096e-20)
(-0.065765 0.0697757 8.49032e-20)
(-0.0701938 0.0636027 -1.20256e-19)
(-0.0737034 0.0566596 3.80936e-20)
(-0.0762408 0.0489575 3.62127e-20)
(-0.0777573 0.0404344 0)
(-0.0782072 0.0309916 3.16835e-20)
(-0.0775453 0.0205184 0)
(-0.0757267 0.00891168 5.79317e-20)
(-0.0727028 -0.00390856 -1.08305e-19)
(-0.0684204 -0.0179812 2.4758e-20)
(-0.062821 -0.0332729 9.57727e-20)
(-0.055878 -0.0496365 4.43048e-20)
(-0.0475909 -0.0667771 0)
(-0.0378804 -0.0841415 -1.17079e-19)
(-0.0262542 -0.100746 3.65251e-20)
(-0.0131803 -0.115123 0)
(-0.0070518 0.0223016 0)
(-0.0176519 0.0523473 -9.64395e-20)
(-0.0266807 0.0717713 -3.07259e-20)
(-0.034297 0.0831771 -5.74982e-20)
(-0.0406218 0.0886571 5.41408e-20)
(-0.0457676 0.0898899 -5.07649e-20)
(-0.049781 0.0881713 9.68541e-20)
(-0.0526578 0.084438 4.57306e-20)
(-0.0543617 0.0793141 -1.2887e-19)
(-0.0548365 0.0731722 8.18764e-20)
(-0.0540133 0.0661972 -1.15536e-19)
(-0.0518179 0.0584438 2.56871e-19)
(-0.048173 0.0498813 -1.37771e-19)
(-0.043002 0.0404339 6.5972e-20)
(-0.0362312 0.0300041 1.86712e-19)
(-0.0277926 0.0184942 -5.71071e-20)
(-0.0176211 0.0058236 -5.51922e-20)
(-0.00567832 -0.00806364 -5.14711e-20)
(0.00807718 -0.0231567 0)
(0.0236474 -0.0393656 -9.22556e-20)
(0.0409499 -0.0564764 -8.58288e-20)
(0.0599116 -0.0740128 1.21204e-19)
(0.0811403 -0.0908274 1.47651e-19)
(0.106142 -0.104699 -1.39741e-19)
(-0.00849571 0.0224675 0)
(-0.0206301 0.0533943 -1.31644e-19)
(-0.029667 0.0739696 -5.94217e-22)
(-0.0361691 0.0865069 1.16563e-19)
(-0.0405035 0.0929569 0)
(-0.0429301 0.0949434 0)
(-0.043602 0.0937558 0)
(-0.0425842 0.0903545 -4.62579e-20)
(-0.0398754 0.0854053 -4.99023e-22)
(-0.0354266 0.0793297 8.2499e-20)
(-0.0291542 0.0723612 -1.1734e-19)
(-0.0209568 0.0645971 -4.07483e-22)
(-0.0107208 0.0560456 0)
(0.00167213 0.0466625 -6.59397e-20)
(0.0163337 0.0363771 6.3913e-20)
(0.0333607 0.0251157 -1.78458e-19)
(0.0528182 0.012816 2.25179e-19)
(0.0747515 -0.000549649 5.41927e-20)
(0.0991677 -0.0149497 3.581e-22)
(0.125992 -0.0303102 -1.8782e-19)
(0.155036 -0.0464653 -8.81202e-20)
(0.186098 -0.0630908 2.85101e-19)
(0.2188 -0.0792398 -1.90748e-19)
(0.260172 -0.0916683 0)
(-0.00974645 0.0218719 6.52038e-20)
(-0.0232355 0.0525664 6.60725e-20)
(-0.032194 0.0734916 -6.32115e-20)
(-0.0374542 0.0865962 -1.18351e-19)
(-0.0395641 0.0936361 1.11436e-19)
(-0.0389031 0.096135 -1.0526e-19)
(-0.035717 0.0953356 1.48858e-19)
(-0.0301337 0.0921897 -4.63602e-20)
(-0.0221838 0.0873797 8.82453e-20)
(-0.0118235 0.0813587 0)
(0.00104544 0.0743984 8.0129e-20)
(0.0165553 0.0666359 -1.49861e-19)
(0.0348556 0.0581193 1.424e-19)
(0.0560972 0.0488403 -1.33746e-19)
(0.080417 0.0387653 0)
(0.10792 0.0278565 1.20042e-19)
(0.138658 0.0160939 2.28092e-19)
(0.172617 0.00349986 -2.13809e-19)
(0.209693 -0.00986385 -1.00778e-19)
(0.24969 -0.0238677 -9.42522e-20)
(0.292138 -0.0383345 2.65152e-19)
(0.337299 -0.0528443 8.10011e-20)
(0.380835 -0.0675403 -7.71244e-20)
(0.44218 -0.0769621 6.88326e-20)
(-0.01076 0.0206854 -6.52127e-20)
(-0.0253257 0.0501302 2.03259e-19)
(-0.0340482 0.0705514 -6.41747e-20)
(-0.0378816 0.0835445 1.1984e-19)
(-0.0374818 0.0906629 -1.12837e-19)
(-0.033311 0.0933101 3.8824e-22)
(-0.0256844 0.092656 5.02252e-20)
(-0.0147772 0.0896174 1.90017e-19)
(-0.00064195 0.0848709 8.1902e-22)
(0.016766 0.0788839 -8.36442e-20)
(0.0375607 0.0719558 0)
(0.0618966 0.0642595 -7.61147e-20)
(0.089942 0.0558826 1.42069e-19)
(0.121851 0.0468593 1.35408e-19)
(0.157731 0.0371991 -6.3393e-20)
(0.197619 0.0269099 3.18376e-24)
(0.24145 0.0160203 -5.68564e-20)
(0.289031 0.00459576 1.06838e-19)
(0.340006 -0.00725541 1.0075e-19)
(0.393967 -0.0193246 -9.43878e-20)
(0.44965 -0.0315675 8.71766e-20)
(0.508983 -0.042846 -8.06115e-20)
(0.560386 -0.0555931 0)
(0.640121 -0.0606404 -6.87359e-20)
(-0.0115444 0.0191179 6.67376e-20)
(-0.0268146 0.0464584 -6.81191e-20)
(-0.0350034 0.0655356 6.49148e-20)
(-0.0370627 0.0776823 0)
(-0.0336894 0.0842882 0)
(-0.0253889 0.0866429 1.08183e-19)
(-0.0125136 0.0858355 -1.00927e-19)
(0.00473905 0.0827335 9.56579e-20)
(0.0263114 0.0779926 -4.48527e-19)
(0.0522542 0.0720831 -2.47292e-22)
(0.0826869 0.065325 7.99175e-20)
(0.117755 0.0579248 0)
(0.157586 0.050009 -1.43182e-19)
(0.202239 0.041655 2.69768e-19)
(0.251667 0.0329169 -1.90813e-19)
(0.305673 0.0238476 -3.01113e-19)
(0.363878 0.0145146 -5.28435e-22)
(0.425704 0.00501598 2.11665e-19)
(0.490314 -0.00453856 0)
(0.556988 -0.0138358 0)
(0.623266 -0.0232397 -8.71661e-20)
(0.692946 -0.030508 8.06011e-20)
(0.747939 -0.0407899 -2.89505e-19)
(0.83649 -0.0409034 2.71541e-19)
(-0.0121396 0.0173711 0)
(-0.0276287 0.0419495 0)
(-0.0347524 0.0589287 -1.95442e-19)
(-0.0343925 0.0695269 6.20894e-20)
(-0.027239 0.0750409 3.0922e-22)
(-0.0138024 0.076677 1.0912e-19)
(0.00556269 0.0754541 0)
(0.030663 0.0721907 -9.57671e-20)
(0.0614434 0.0675188 8.98408e-20)
(0.0979414 0.0619089 -1.69961e-19)
(0.140227 0.0556974 -2.31286e-22)
(0.188331 0.0491174 1.51244e-19)
(0.242185 0.0423275 6.70057e-22)
(0.301553 0.0354368 1.35211e-19)
(0.365983 0.0285239 -1.89806e-19)
(0.434775 0.0216514 0)
(0.506969 0.0148794 2.23897e-19)
(0.581369 0.00827833 -3.15898e-19)
(0.656514 0.00189022 9.68227e-20)
(0.731171 -0.00398445 0)
(0.802338 -0.0100041 8.30529e-20)
(0.873585 -0.0135496 3.0779e-19)
(0.926928 -0.0210587 -2.88864e-19)
(1.00812 -0.01732 -3.19994e-19)
(-0.0125788 0.0155926 2.05432e-19)
(-0.027632 0.036943 -2.82252e-19)
(-0.0328171 0.0512299 6.12588e-22)
(-0.0289528 0.0597205 6.27299e-20)
(-0.0167014 0.0637034 -1.16945e-19)
(0.0034478 0.0643478 -1.08648e-19)
(0.031159 0.0626273 2.04388e-19)
(0.0662421 0.0593261 -6.13202e-22)
(0.108606 0.0550587 -1.80502e-19)
(0.158176 0.0502905 3.39661e-19)
(0.214807 0.0453616 4.64485e-22)
(0.278184 0.0405112 -1.50306e-19)
(0.347748 0.0358953 0)
(0.42264 0.0316026 0)
(0.501675 0.0276676 -6.30447e-20)
(0.583367 0.0240821 -1.16726e-19)
(0.665982 0.0208095 -2.19826e-19)
(0.747622 0.0177873 2.06347e-19)
(0.826345 0.0149598 -9.68639e-20)
(0.900373 0.0123112 1.75648e-19)
(0.967527 0.00951652 -8.63198e-20)
(1.02897 0.00790075 1.44886e-19)
(1.07429 0.00299493 -3.45359e-19)
(1.13287 0.00720637 6.36209e-20)
(-0.0128371 0.0138417 6.93323e-20)
(-0.026532 0.0316559 0)
(-0.0284533 0.0428808 1.33945e-19)
(-0.0194371 0.048963 -1.26179e-19)
(-0.000135145 0.0512574 1.17052e-19)
(0.0289808 0.050943 0)
(0.0675671 0.0489781 0)
(0.115356 0.0461247 -9.65161e-20)
(0.172062 0.0429738 3.17062e-22)
(0.237259 0.0399655 8.51087e-20)
(0.310258 0.0374041 -7.97917e-20)
(0.390019 0.0354695 1.50012e-19)
(0.475104 0.0342287 0)
(0.563687 0.0336487 2.64191e-19)
(0.65363 0.0336121 -4.95296e-19)
(0.742593 0.0339366 3.48922e-19)
(0.828196 0.0344049 2.14661e-19)
(0.90816 0.0347599 -2.01507e-19)
(0.980541 0.0348511 0)
(1.04366 0.0342618 0)
(1.09676 0.0334057 0)
(1.13924 0.0311615 0)
(1.17018 0.0286214 6.70633e-20)
(1.20027 0.0280706 -2.36351e-19)
(-0.163985 -0.14898 -5.38218e-21)
(-0.165837 -0.169549 5.4132e-21)
(-0.166318 -0.189388 -1.6335e-22)
(-0.165787 -0.207429 0)
(-0.164181 -0.22263 -4.77599e-21)
(-0.161405 -0.233758 9.25794e-21)
(-0.157364 -0.239472 -1.30151e-23)
(-0.151908 -0.238331 -4.34879e-21)
(-0.144795 -0.228837 0)
(-0.135632 -0.209482 0)
(-0.123945 -0.17904 -2.41243e-22)
(-0.109279 -0.136633 -2.35453e-22)
(-0.0912071 -0.081893 -4.16485e-21)
(-0.0694941 -0.0153916 3.82485e-21)
(-0.0444137 0.0615297 0)
(-0.01661 0.144696 0)
(0.0124424 0.229586 3.12833e-21)
(0.0404974 0.311406 -2.32571e-22)
(0.064926 0.384634 -2.57487e-21)
(0.0833295 0.445528 -1.3635e-22)
(0.0950568 0.492584 0)
(0.102808 0.522485 0)
(0.114434 0.527743 0)
(0.139929 0.497237 0)
(0.18556 0.422033 0)
(0.247743 0.303166 0)
(0.317862 0.150577 7.81224e-22)
(0.390351 -0.0206216 -1.29948e-21)
(0.461519 -0.188503 0)
(0.52481 -0.327264 0)
(0.572285 -0.421433 -6.00658e-22)
(0.601054 -0.469429 5.8376e-22)
(0.614207 -0.480559 2.10287e-22)
(0.603889 -0.480298 0)
(0.555979 -0.493085 0)
(0.486711 -0.500197 3.61407e-22)
(0.442396 -0.445002 -3.51317e-22)
(0.448371 -0.299775 0)
(0.493291 -0.0981505 4.42705e-22)
(0.555431 0.101335 -6.29179e-22)
(0.612551 0.256649 1.71722e-22)
(0.655936 0.349177 0)
(0.686442 0.382831 -2.13398e-22)
(0.686966 0.39133 2.07507e-22)
(0.637373 0.401303 0)
(0.572282 0.387162 0)
(0.54696 0.298943 -8.53276e-23)
(0.578836 0.148542 2.66528e-22)
(0.638153 -0.0118539 0)
(0.697755 -0.130123 0)
(0.741542 -0.197051 -4.15835e-23)
(0.773315 -0.214791 2.65501e-25)
(0.778403 -0.206058 -9.89233e-24)
(0.762127 -0.190942 7.22876e-24)
(0.725672 -0.157257 0)
(0.717717 -0.120013 0)
(0.73409 -0.0477055 0)
(0.772244 -0.0044146 0)
(0.809829 0.0486969 0)
(0.837037 0.0648724 0)
(-0.145014 -0.145254 -5.46035e-22)
(-0.149421 -0.166971 -2.19765e-20)
(-0.152342 -0.188115 5.92737e-22)
(-0.154644 -0.20741 2.00541e-20)
(-0.156372 -0.223852 2.98699e-22)
(-0.157433 -0.236207 0)
(-0.15778 -0.243176 -1.6851e-20)
(-0.157305 -0.243385 3.29747e-20)
(-0.155809 -0.235448 -1.61155e-20)
(-0.152932 -0.218003 1.50608e-20)
(-0.148153 -0.189845 -1.43977e-20)
(-0.140801 -0.150044 1.39066e-20)
(-0.13012 -0.0981505 -1.34544e-20)
(-0.115238 -0.0345545 -3.7602e-22)
(-0.0961568 0.0394922 -1.24434e-20)
(-0.0733627 0.121171 1.20928e-20)
(-0.0472426 0.205813 -1.08234e-20)
(-0.0198423 0.289352 1.02259e-20)
(0.0065087 0.366114 -9.06963e-21)
(0.0314107 0.430954 1.68814e-20)
(0.0555217 0.480919 -7.85243e-21)
(0.0816842 0.510331 -4.41817e-22)
(0.116302 0.510578 -7.48563e-21)
(0.16569 0.47215 1.52867e-20)
(0.230869 0.39012 -7.786e-21)
(0.305243 0.268137 5.78016e-22)
(0.381642 0.115006 9.63057e-21)
(0.456866 -0.0560357 3.93773e-23)
(0.527399 -0.22192 -1.63881e-20)
(0.586225 -0.35504 1.39619e-20)
(0.626216 -0.440298 -6.21818e-21)
(0.644727 -0.479429 5.44517e-22)
(0.647779 -0.481702 -2.10694e-22)
(0.63431 -0.468438 3.31723e-22)
(0.587698 -0.468146 0)
(0.51217 -0.474616 0)
(0.451159 -0.43429 -1.38019e-21)
(0.440621 -0.307493 1.01233e-21)
(0.474464 -0.117746 1.18419e-21)
(0.530553 0.0785559 1.19045e-22)
(0.587131 0.236894 -1.54846e-21)
(0.635928 0.334727 2.60514e-22)
(0.670548 0.377231 0)
(0.667782 0.399271 0)
(0.615623 0.41835 0)
(0.557989 0.399662 0)
(0.5468 0.297474 4.09502e-22)
(0.589854 0.135745 -1.8372e-22)
(0.656377 -0.0279174 0)
(0.717427 -0.14366 0)
(0.759591 -0.206471 0)
(0.787977 -0.219666 -4.53308e-23)
(0.795337 -0.205393 2.49475e-23)
(0.783446 -0.18531 -2.38175e-23)
(0.745153 -0.151841 0)
(0.728894 -0.119491 0)
(0.729754 -0.0522602 6.84063e-24)
(0.7627 -0.0113597 1.4477e-23)
(0.792144 0.0429447 0)
(0.8208 0.0620532 0)
(-0.0936264 -0.138285 -4.52609e-22)
(-0.100322 -0.160913 -4.64079e-20)
(-0.105409 -0.183316 4.34791e-20)
(-0.110274 -0.203879 -4.06553e-20)
(-0.115192 -0.221622 -3.00737e-22)
(-0.120016 -0.235292 0)
(-0.124671 -0.243663 -3.31076e-20)
(-0.129033 -0.245379 3.24015e-20)
(-0.132908 -0.239133 2.37755e-22)
(-0.135966 -0.223669 4.04413e-22)
(-0.137706 -0.197881 3.75206e-22)
(-0.13741 -0.160884 4.11839e-22)
(-0.134161 -0.112193 -2.28591e-20)
(-0.126733 -0.0519936 2.25942e-20)
(-0.114337 0.0182517 0)
(-0.0971504 0.0973899 5.47654e-22)
(-0.0748465 0.180835 -1.79992e-20)
(-0.0484846 0.264352 1.77841e-20)
(-0.0199832 0.341644 0)
(0.0115821 0.408397 0)
(0.0479518 0.459171 -1.4624e-20)
(0.091036 0.486847 2.91891e-20)
(0.144954 0.482756 -2.96466e-20)
(0.212372 0.43938 -1.48796e-21)
(0.290763 0.354728 3.48062e-20)
(0.3728 0.23336 -3.8791e-20)
(0.452934 0.0822962 3.83127e-20)
(0.529288 -0.0866128 -1.86001e-21)
(0.597841 -0.249301 -1.84704e-20)
(0.650721 -0.37655 0)
(0.682309 -0.453318 0)
(0.690934 -0.484387 2.82567e-21)
(0.683281 -0.480358 -3.81613e-21)
(0.664988 -0.457269 -1.91594e-23)
(0.620994 -0.443672 2.09283e-21)
(0.543543 -0.446171 -2.03398e-21)
(0.467997 -0.419199 0)
(0.440019 -0.312576 3.30633e-22)
(0.461716 -0.136607 2.9698e-21)
(0.511003 0.0551807 -5.59735e-21)
(0.566979 0.215276 2.40138e-21)
(0.620125 0.318568 2.17511e-22)
(0.656178 0.371694 -2.13564e-21)
(0.649249 0.407974 1.65583e-21)
(0.596547 0.434561 3.93554e-22)
(0.548143 0.409651 4.22213e-22)
(0.550942 0.293642 -4.10555e-22)
(0.604375 0.12173 0)
(0.677122 -0.0442066 0)
(0.73909 -0.156683 -1.18494e-21)
(0.779397 -0.21501 5.25192e-22)
(0.803179 -0.224247 -2.91402e-22)
(0.810853 -0.205516 2.56849e-22)
(0.803233 -0.180342 1.47262e-22)
(0.766007 -0.14577 -4.17911e-23)
(0.744359 -0.116789 2.21714e-23)
(0.730405 -0.0547216 -1.52173e-23)
(0.757297 -0.0168592 -4.06098e-24)
(0.77642 0.0379385 0)
(0.806749 0.0591093 0)
(-0.00714283 -0.12893 -9.884e-20)
(-0.0155013 -0.151393 3.61861e-21)
(-0.0224462 -0.174602 9.02561e-20)
(-0.0295753 -0.196126 -6.50015e-22)
(-0.0375692 -0.214917 0)
(-0.0463371 -0.229749 0)
(-0.0556977 -0.239558 -6.39348e-20)
(-0.0653347 -0.243003 3.39155e-21)
(-0.0749303 -0.238728 8.28822e-20)
(-0.0840488 -0.225523 -1.99713e-21)
(-0.0921406 -0.20235 -2.3679e-20)
(-0.0984784 -0.168405 -1.96145e-20)
(-0.102142 -0.123233 1.96392e-20)
(-0.102058 -0.066937 0)
(-0.0962808 -0.000719234 -1.63262e-20)
(-0.0845693 0.0743795 1.48868e-20)
(-0.0665316 0.155756 0)
(-0.0424072 0.236079 0)
(-0.0126561 0.311609 1.30863e-20)
(0.0247889 0.378377 1.86435e-22)
(0.0708894 0.428513 -1.21128e-20)
(0.126933 0.454199 -1.46735e-20)
(0.194749 0.447158 1.47455e-20)
(0.274095 0.401775 -1.83494e-20)
(0.360443 0.318025 -1.87373e-21)
(0.446553 0.200308 1.92054e-20)
(0.528308 0.0534147 2.64357e-21)
(0.604816 -0.112116 -4.50135e-23)
(0.670892 -0.270905 0)
(0.717117 -0.392379 1.39962e-20)
(0.73944 -0.461374 -1.43559e-20)
(0.738587 -0.484915 5.5844e-22)
(0.720502 -0.476271 0)
(0.695488 -0.446911 -3.1634e-22)
(0.654091 -0.421095 3.63704e-21)
(0.579166 -0.415911 -6.54851e-21)
(0.492906 -0.399011 -7.12493e-22)
(0.446764 -0.313819 -5.35142e-22)
(0.455348 -0.154311 3.48713e-21)
(0.497621 0.0312811 5.89831e-22)
(0.55258 0.192088 -3.90268e-21)
(0.608123 0.301358 3.31109e-21)
(0.643066 0.366557 1.85803e-23)
(0.631875 0.417026 1.65146e-21)
(0.580712 0.4494 -2.00052e-21)
(0.542777 0.4171 -3.25355e-21)
(0.559267 0.287875 8.1339e-22)
(0.622341 0.107004 1.87871e-21)
(0.700131 -0.0604266 -3.38318e-21)
(0.762234 -0.169122 2.16043e-21)
(0.800525 -0.222593 -2.9663e-22)
(0.819169 -0.228222 5.70147e-22)
(0.825325 -0.206155 2.90935e-22)
(0.821052 -0.176272 -2.22217e-22)
(0.787058 -0.139662 2.14045e-23)
(0.763073 -0.112386 -1.66966e-25)
(0.736244 -0.0551596 0)
(0.756674 -0.0206666 -7.25868e-24)
(0.764025 0.0338286 2.21566e-24)
(0.796213 0.0560173 0)
(0.114901 -0.117901 1.02293e-19)
(0.106232 -0.138992 -1.96385e-19)
(0.0975219 -0.161959 9.31468e-20)
(0.0886682 -0.183555 8.31226e-20)
(0.0781356 -0.20261 -1.57405e-19)
(0.0656092 -0.218382 5.56304e-21)
(0.0511464 -0.229606 6.74435e-20)
(0.0355022 -0.234862 5.51041e-20)
(0.0192728 -0.232845 -5.39735e-20)
(0.00310685 -0.222351 0)
(-0.0121632 -0.202301 -3.80073e-20)
(-0.0256006 -0.171851 7.05517e-20)
(-0.0361979 -0.130538 -3.27604e-20)
(-0.0429898 -0.0784423 0)
(-0.0438813 -0.0163858 0)
(-0.037228 0.053329 4.30072e-22)
(-0.0242421 0.128709 -2.2002e-20)
(-0.00374437 0.204305 2.13747e-20)
(0.0265708 0.277734 0)
(0.0673945 0.342656 2.3015e-20)
(0.119485 0.391142 -4.61825e-20)
(0.183511 0.41512 5.13253e-20)
(0.259542 0.406818 -5.95451e-20)
(0.345398 0.361986 -5.58622e-21)
(0.435427 0.281838 7.74157e-20)
(0.522726 0.16998 -4.09341e-20)
(0.604631 0.0286489 -1.36079e-21)
(0.680945 -0.132503 -1.94205e-20)
(0.744545 -0.286555 2.19856e-21)
(0.783894 -0.401967 1.74352e-20)
(0.796297 -0.464046 7.66831e-22)
(0.786194 -0.481058 -7.90692e-21)
(0.758938 -0.468973 1.33575e-20)
(0.726097 -0.436677 -6.08408e-21)
(0.685993 -0.401407 0)
(0.616976 -0.386075 -3.1032e-21)
(0.525268 -0.374466 3.01872e-21)
(0.461247 -0.31036 -2.83728e-21)
(0.455218 -0.170148 3.53012e-21)
(0.490354 0.00705293 -3.8426e-22)
(0.54358 0.167727 0)
(0.599162 0.283626 -3.89573e-22)
(0.631014 0.361795 1.21162e-21)
(0.616147 0.425805 0)
(0.568482 0.462394 4.62713e-21)
(0.541841 0.422125 -1.68134e-21)
(0.571678 0.280557 1.03676e-21)
(0.643716 0.0918199 1.12865e-21)
(0.725298 -0.0763146 0)
(0.786523 -0.180862 0)
(0.82247 -0.229191 -1.29083e-21)
(0.835967 -0.231372 1.58773e-21)
(0.83919 -0.206979 -6.51042e-22)
(0.836791 -0.173155 1.33856e-22)
(0.807295 -0.134036 1.0212e-22)
(0.783782 -0.106879 1.67123e-25)
(0.747081 -0.0538175 3.33927e-23)
(0.76123 -0.0226928 0)
(0.756388 0.0306835 -4.20312e-24)
(0.790454 0.0527614 8.78723e-24)
(0.268994 -0.104971 1.05252e-19)
(0.261642 -0.125202 -1.04483e-19)
(0.251696 -0.146972 7.35437e-22)
(0.241625 -0.167351 -6.80115e-22)
(0.229078 -0.185583 6.24022e-22)
(0.213379 -0.201236 -5.64813e-22)
(0.194682 -0.212909 9.91403e-22)
(0.173402 -0.219286 0)
(0.150195 -0.21928 -7.45786e-22)
(0.126049 -0.211736 6.3287e-22)
(0.102244 -0.195535 5.30646e-22)
(0.0802216 -0.169728 -5.15222e-22)
(0.0614257 -0.133703 0)
(0.0469227 -0.0874236 0)
(0.0383694 -0.0313151 2.63309e-22)
(0.0379086 0.0323149 0)
(0.0459894 0.100777 -2.15744e-22)
(0.0634105 0.172322 0)
(0.0921309 0.242053 -1.68695e-20)
(0.133215 0.303733 3.54705e-20)
(0.18737 0.349922 -4.04517e-20)
(0.254563 0.372623 2.16838e-20)
(0.333699 0.364541 3.14487e-20)
(0.421539 0.322205 -3.05352e-20)
(0.511803 0.247516 -4.25345e-20)
(0.598032 0.143048 4.14558e-20)
(0.679464 0.00821248 0)
(0.755912 -0.147783 1.36604e-21)
(0.817061 -0.296368 0)
(0.849534 -0.405363 0)
(0.851871 -0.46147 2.0461e-20)
(0.832557 -0.473422 -2.13866e-20)
(0.797689 -0.458744 7.99616e-22)
(0.757013 -0.425975 5.76653e-22)
(0.716098 -0.384801 -3.72136e-22)
(0.65473 -0.358527 -2.13913e-21)
(0.563602 -0.346828 2.07718e-21)
(0.483912 -0.301421 -2.61355e-21)
(0.46097 -0.183283 2.23277e-21)
(0.48808 -0.0173588 6.77867e-22)
(0.538667 0.142524 -2.93105e-21)
(0.592198 0.265588 -5.11041e-22)
(0.61987 0.357068 2.17848e-21)
(0.60247 0.433674 0)
(0.560039 0.473238 -1.81767e-21)
(0.5452 0.424927 3.55076e-21)
(0.587965 0.271994 -4.44243e-21)
(0.668379 0.0765582 -1.13582e-21)
(0.752559 -0.0915331 0)
(0.811757 -0.191721 5.15525e-22)