/*--------------------------------*- C++ -*----------------------------------*\
| =========                 |                                                 |
| \\      /  F ield         | OpenFOAM: The Open Source CFD Toolbox           |
|  \\    /   O peration     | Version:  2512                                  |
|   \\  /    A nd           | Website:  www.openfoam.com                      |
|    \\/     M anipulation  |                                                 |
\*---------------------------------------------------------------------------*/
FoamFile
{
    version     2.0;
    format      ascii;
    arch        "LSB;label=32;scalar=64";
    class       volVectorField;
    location    "90.75";
    object      U;
}
// * * * * * * * * * * * * * * * * * * * * * * * * * * * * * * * * * * * * * //

dimensions      [0 1 -1 0 0 0 0];

internalField   nonuniform List<vector> 
13248
(
(-0.011646 0.0115209 8.24366e-20)
(-0.0177298 0.0220095 0)
(-0.00794492 0.0249709 -1.56451e-19)
(0.0159152 0.0226436 1.47377e-19)
(0.0527956 0.0169795 1.38623e-19)
(0.102012 0.00957922 0)
(0.162916 0.00165071 0)
(0.234657 -0.00591205 3.37585e-19)
(0.315957 -0.0124555 -2.04289e-21)
(0.404978 -0.0175245 -2.94076e-19)
(0.499292 -0.0208417 2.69341e-19)
(0.595989 -0.0222965 -1.68271e-19)
(0.691882 -0.0219331 0)
(0.783792 -0.0199294 -2.7333e-19)
(0.868829 -0.0165649 5.03415e-19)
(0.944639 -0.0121812 -1.19555e-19)
(1.00959 -0.00713672 -1.97541e-19)
(1.06282 -0.00177766 1.85453e-19)
(1.10429 0.00363685 0)
(1.13461 0.00876933 0)
(1.15511 0.013848 0)
(1.16672 0.0175506 0)
(1.17287 0.0228414 4.67184e-20)
(1.17091 0.0214654 1.56511e-19)
(-0.0102395 0.00916876 -2.48934e-19)
(-0.0108279 0.0159617 1.69812e-19)
(0.00762067 0.0168179 -1.15378e-21)
(0.0431088 0.0136972 -2.2486e-19)
(0.0943272 0.00840268 -1.38472e-19)
(0.160173 0.00247295 -1.30942e-19)
(0.239306 -0.00293715 -2.41853e-19)
(0.32986 -0.0070152 2.28026e-19)
(0.429263 -0.00925131 0)
(0.534206 -0.00941958 1.70698e-21)
(0.64082 -0.00755733 3.23985e-21)
(0.745001 -0.00392706 1.6694e-19)
(0.84282 0.00104283 0)
(0.930917 0.00683317 0)
(1.00681 0.0129134 1.80455e-19)
(1.06908 0.0188124 -3.38727e-19)
(1.11737 0.0241701 1.92745e-19)
(1.15234 0.0287629 -1.80962e-19)
(1.17539 0.032511 -7.69267e-20)
(1.18849 0.0354263 -1.33254e-19)
(1.19375 0.037734 -5.18598e-20)
(1.19346 0.0391773 -9.53586e-20)
(1.18937 0.0414714 1.4605e-19)
(1.18233 0.03965 4.05034e-20)
(-0.00782177 0.00656923 0)
(-0.000371915 0.00920485 0)
(0.0295819 0.00785799 7.95785e-20)
(0.0796639 0.00426071 7.36683e-20)
(0.148072 7.50038e-05 -1.39473e-21)
(0.232901 -0.00326482 -1.33941e-19)
(0.331591 -0.00477145 0)
(0.440674 -0.00390083 -1.1337e-19)
(0.55577 -0.000525728 1.05429e-19)
(0.671857 0.00510128 -1.83646e-22)
(0.783762 0.0124238 -1.78402e-19)
(0.886747 0.0206978 -1.60538e-19)
(0.97704 0.0291275 5.20256e-21)
(1.05219 0.0369939 -1.25947e-19)
(1.1112 0.043752 3.07635e-19)
(1.15444 0.0490833 0)
(1.18343 0.0529008 -1.877e-19)
(1.20042 0.0553122 9.17836e-20)
(1.20802 0.0565724 7.68595e-20)
(1.20886 0.056968 0)
(1.20531 0.0569235 5.97954e-20)
(1.19917 0.0563646 -2.0183e-19)
(1.19187 0.0565796 1.89463e-19)
(1.18428 0.0538235 1.14349e-19)
(-0.00409079 0.00381844 -8.73945e-20)
(0.0144706 0.00224525 -9.01561e-20)
(0.0592158 -0.000854672 8.20208e-20)
(0.127075 -0.00404487 0)
(0.215311 -0.00588149 0)
(0.32062 -0.0051693 -1.97653e-21)
(0.438549 -0.00131032 0)
(0.563483 0.00568685 -3.4145e-19)
(0.689048 0.0152844 3.16262e-19)
(0.808823 0.0265509 -3.8964e-19)
(0.917163 0.0383565 8.88274e-20)
(1.00989 0.0495906 0)
(1.08466 0.059348 1.42739e-19)
(1.14106 0.0670471 -2.62364e-19)
(1.1803 0.0724652 6.24265e-20)
(1.20475 0.0757003 1.53164e-19)
(1.21743 0.077082 -1.01104e-20)
(1.22147 0.0770635 -1.68808e-19)
(1.2197 0.0761197 0)
(1.21445 0.0746638 0)
(1.2074 0.0730681 -5.68458e-20)
(1.19965 0.0713164 5.01919e-20)
(1.19195 0.0703868 1.73887e-19)
(1.18426 0.0669575 -1.63262e-19)
(0.00134208 0.00100489 -9.13045e-20)
(0.0345758 -0.00440242 -9.12286e-20)
(0.0975987 -0.00825212 2.56867e-19)
(0.186193 -0.00961147 -1.56463e-19)
(0.296042 -0.00745846 1.47273e-19)
(0.421692 -0.00110055 2.68473e-19)
(0.556192 0.00933902 -1.89135e-19)
(0.691603 0.0229785 -2.28538e-19)
(0.820009 0.0384155 5.56814e-21)
(0.934652 0.054041 2.92463e-19)
(1.03083 0.0683647 0)
(1.10633 0.0802724 7.86616e-20)
(1.16132 0.089158 0)
(1.19784 0.0949235 -1.25133e-19)
(1.21913 0.0978751 1.7557e-19)
(1.22885 0.0985662 1.50554e-21)
(1.23052 0.0976377 -4.47248e-20)
(1.22707 0.0956912 8.19422e-20)
(1.22074 0.0932138 7.03699e-20)
(1.21303 0.090551 -6.23006e-20)
(1.20489 0.0879297 5.68313e-20)
(1.19683 0.0853621 -5.01786e-20)
(1.1891 0.0833758 0)
(1.18178 0.0795352 -3.79228e-20)
(0.00888647 -0.00172482 9.12914e-20)
(0.060707 -0.0101123 9.53417e-20)
(0.145359 -0.0131846 -8.59446e-20)
(0.256899 -0.0108673 1.59988e-19)
(0.388652 -0.00291861 -1.50584e-19)
(0.532326 0.0104526 1.3622e-19)
(0.678249 0.0280235 -6.51915e-20)
(0.816681 0.04782 1.71698e-19)
(0.939404 0.0676196 -1.07457e-19)
(1.04093 0.0854403 1.88379e-19)
(1.11899 0.0998924 -4.32964e-19)
(1.17428 0.110323 1.58164e-19)
(1.20965 0.116763 -1.36484e-19)
(1.22914 0.119735 1.28201e-19)
(1.23704 0.12002 1.08502e-19)
(1.23719 0.11844 9.36163e-20)
(1.23264 0.115716 -2.60406e-19)
(1.22557 0.112398 1.60835e-19)
(1.21739 0.108858 -7.03713e-20)
(1.20893 0.105323 1.81361e-19)
(1.20063 0.101916 -5.85946e-20)
(1.19271 0.0986523 -1.40011e-19)
(1.18525 0.0958048 1.28817e-19)
(1.17821 0.0916826 3.79105e-20)
(0.0189005 -0.00412621 0)
(0.09335 -0.0140902 5.90976e-22)
(0.202462 -0.0144036 1.77981e-19)
(0.337913 -0.00634473 -1.67144e-19)
(0.489933 0.00904169 -1.50887e-19)
(0.647057 0.0301794 2.80309e-19)
(0.797388 0.0544719 -1.30117e-19)
(0.930725 0.07891 1.72887e-19)
(1.0403 0.100832 -4.16111e-21)
(1.12345 0.118433 -9.74084e-20)
(1.1812 0.130942 2.10833e-19)
(1.21714 0.138492 -3.09971e-19)
(1.23613 0.141828 0)
(1.24308 0.141968 -5.98475e-20)
(1.24225 0.139931 -1.58236e-19)
(1.23687 0.136571 4.99801e-20)
(1.22916 0.132516 2.29253e-21)
(1.22051 0.128181 -1.05761e-19)
(1.21169 0.123813 7.88108e-21)
(1.20311 0.119549 1.21715e-19)
(1.19495 0.115451 -5.3191e-20)
(1.18725 0.111545 -1.99892e-20)
(1.18001 0.107901 6.24559e-20)
(1.17317 0.103513 0)
(0.0316243 -0.00584958 0)
(0.132566 -0.0153806 4.81661e-20)
(0.268057 -0.010617 -2.30893e-19)
(0.426774 0.00520041 8.40278e-20)
(0.595403 0.0291504 -7.90839e-20)
(0.759665 0.0579081 -7.19322e-20)
(0.906763 0.0875193 -1.27301e-19)
(1.0279 0.114364 6.35566e-20)
(1.11943 0.135975 5.53757e-20)
(1.18236 0.151304 0)
(1.22091 0.160527 1.24414e-19)
(1.24075 0.164608 -1.83974e-19)
(1.24759 0.164834 1.36906e-19)
(1.24622 0.162463 5.98781e-20)
(1.2402 0.158522 -4.84079e-20)
(1.2319 0.153748 -3.98433e-20)
(1.22275 0.14862 -3.68518e-20)
(1.21352 0.143418 1.11622e-19)
(1.20461 0.138298 0)
(1.19616 0.133337 5.49322e-20)
(1.18823 0.128569 4.5462e-20)
(1.18078 0.124012 -1.13649e-19)
(1.17376 0.119628 -7.65527e-20)
(1.16709 0.114979 7.09284e-20)
(0.047126 -0.00646195 -5.12685e-20)
(0.177886 -0.0129433 -1.5772e-21)
(0.34043 -0.000623583 4.68134e-20)
(0.520017 0.0246221 1.30289e-19)
(0.699939 0.0574642 3.77374e-20)
(0.864284 0.0927274 -7.29566e-20)
(1.00129 0.125516 6.68459e-20)
(1.10539 0.15231 -5.86695e-20)
(1.17698 0.171502 1.04557e-19)
(1.22069 0.183175 4.43953e-20)
(1.24307 0.188496 -1.2571e-19)
(1.25076 0.189074 3.69721e-20)
(1.24932 0.186473 6.26166e-20)
(1.24282 0.181961 -3.08923e-20)
(1.23393 0.176431 0)
(1.22421 0.170456 4.53548e-20)
(1.21448 0.164365 7.6134e-20)
(1.20514 0.15834 1.25741e-20)
(1.19633 0.152469 -6.30879e-20)
(1.18809 0.146799 2.62087e-20)
(1.1804 0.14135 0)
(1.17318 0.136118 -2.03497e-20)
(1.16637 0.131039 -1.89848e-20)
(1.15987 0.126072 0)
(0.0652572 -0.00548965 0)
(0.228257 -0.0057758 2.67803e-20)
(0.417068 0.0165133 4.94783e-20)
(0.613546 0.0522396 -1.3221e-19)
(0.798515 0.0933827 4.25162e-20)
(0.95631 0.133241 0)
(1.0782 0.166745 6.39401e-20)
(1.16303 0.191259 -8.91587e-20)
(1.21533 0.206508 -5.20519e-20)
(1.24252 0.213795 2.35831e-20)
(1.25237 0.215101 -3.71835e-20)
(1.25151 0.212402 9.05848e-20)
(1.24478 0.207301 4.5106e-20)
(1.23533 0.200927 -3.15415e-20)
(1.22498 0.193988 -3.14096e-21)
(1.21465 0.18689 -8.50433e-20)
(1.20478 0.179849 3.86379e-20)
(1.19553 0.172974 -9.25285e-22)
(1.18693 0.166317 0)
(1.17895 0.159904 -2.62358e-20)
(1.17153 0.153743 0)
(1.16456 0.14781 5.86822e-20)
(1.15798 0.142076 -6.96752e-20)
(1.15165 0.136712 3.16621e-20)
(0.0856234 -0.00246757 -1.37692e-20)
(0.282053 0.00696038 -6.70382e-20)
(0.494855 0.0413209 7.60415e-20)
(0.703106 0.0877792 4.47595e-20)
(0.886843 0.135777 -2.14513e-20)
(1.03279 0.177856 3.58821e-20)
(1.13677 0.2097 -1.7482e-20)
(1.20238 0.230196 2.90607e-20)
(1.23761 0.240585 0)
(1.25158 0.243249 6.55384e-20)
(1.25232 0.2407 -2.76078e-21)
(1.2458 0.23502 -5.27643e-20)
(1.23591 0.227686 2.25331e-20)
(1.22488 0.21962 -2.53159e-20)
(1.21388 0.211342 -9.54241e-21)
(1.20339 0.203124 1.11132e-20)
(1.19361 0.195098 -8.52583e-21)
(1.18458 0.187328 -4.59847e-20)
(1.17626 0.179841 2.8171e-20)
(1.16858 0.172653 5.7396e-21)
(1.16145 0.165753 5.033e-21)
(1.15478 0.159109 4.41416e-21)
(1.14844 0.152759 0)
(1.14231 0.146888 0)
(0.107652 0.00302295 1.37787e-20)
(0.337302 0.0258477 -1.38086e-20)
(0.570508 0.0738325 -2.52893e-20)
(0.784883 0.130413 0)
(0.961826 0.183193 -1.06134e-20)
(1.09236 0.225026 -9.49147e-21)
(1.17763 0.253214 -1.62908e-20)
(1.22556 0.268518 0)
(1.24662 0.273633 0)
(1.25061 0.271738 0)
(1.24506 0.265594 0)
(1.23501 0.257195 0)
(1.22338 0.247799 -1.41241e-20)
(1.21164 0.238112 6.42633e-21)
(1.20048 0.228495 1.11397e-20)
(1.19011 0.219115 5.19736e-21)
(1.18059 0.210048 1.28149e-20)
(1.17189 0.201326 0)
(1.16393 0.192964 -3.04686e-21)
(1.15664 0.184962 -2.88814e-21)
(1.14989 0.177296 -5.04098e-21)
(1.14357 0.169944 -4.42118e-21)
(1.13757 0.16301 0)
(1.13174 0.156526 3.14491e-21)
(-0.000592994 -0.0236425 8.59404e-21)
(-0.0047742 -0.0628403 -8.92567e-21)
(-0.0138747 -0.0951482 -1.69039e-20)
(-0.025786 -0.120878 0)
(-0.0392494 -0.140826 -2.2628e-20)
(-0.0535201 -0.156188 7.10605e-21)
(-0.0680081 -0.168284 -1.34273e-20)
(-0.0822586 -0.178315 0)
(-0.0959527 -0.187205 0)
(-0.108881 -0.19554 0)
(-0.120914 -0.203584 0)
(-0.131967 -0.211339 0)
(-0.141983 -0.218614 7.70593e-23)
(-0.150908 -0.225087 -8.95742e-21)
(-0.158678 -0.230352 1.68044e-20)
(-0.165216 -0.233942 2.38785e-20)
(-0.170427 -0.23535 7.34717e-21)
(-0.174202 -0.234039 0)
(-0.176433 -0.229456 6.79965e-21)
(-0.177025 -0.221067 -1.87797e-20)
(-0.175876 -0.208393 -1.16384e-20)
(-0.172816 -0.191007 -1.09114e-20)
(-0.16787 -0.168471 0)
(-0.162138 -0.140617 0)
(7.99796e-05 -0.0188156 -2.58013e-20)
(-0.00360006 -0.0514715 4.45488e-20)
(-0.0133543 -0.0794549 -1.67815e-20)
(-0.026466 -0.102408 -3.19486e-20)
(-0.0413523 -0.120725 4.51519e-20)
(-0.0571127 -0.135325 -2.84737e-20)
(-0.0730657 -0.14731 4.02078e-20)
(-0.0887127 -0.1577 2.53401e-20)
(-0.103729 -0.167277 0)
(-0.117921 -0.176525 -2.25536e-20)
(-0.131184 -0.185643 -1.03728e-22)
(-0.143469 -0.194597 1.99653e-20)
(-0.154746 -0.203191 2.81746e-20)
(-0.164993 -0.211117 3.53695e-20)
(-0.174178 -0.217992 -1.6783e-20)
(-0.182256 -0.223383 -4.70156e-20)
(-0.189169 -0.226811 1.43314e-20)
(-0.194845 -0.22776 -5.42589e-20)
(-0.199223 -0.225684 0)
(-0.202276 -0.220029 1.23836e-20)
(-0.203939 -0.210255 1.16261e-20)
(-0.203941 -0.195828 1.08998e-20)
(-0.202311 -0.176155 0)
(-0.20143 -0.15097 0)
(9.25298e-05 -0.0130281 0)
(-0.00366046 -0.0380846 8.93057e-20)
(-0.0139349 -0.0612784 -3.36988e-20)
(-0.0276978 -0.0813512 3.19616e-20)
(-0.0431976 -0.0981297 -9.05732e-20)
(-0.0594559 -0.112142 0)
(-0.0757454 -0.124189 -5.38385e-20)
(-0.0915462 -0.13507 2.5322e-20)
(-0.106531 -0.14541 -4.79049e-20)
(-0.120517 -0.155594 2.25892e-20)
(-0.133413 -0.165766 1.26958e-19)
(-0.145183 -0.175873 -5.95839e-20)
(-0.155812 -0.185723 -9.31448e-20)
(-0.165294 -0.19503 -3.44897e-20)
(-0.173616 -0.203438 3.9957e-22)
(-0.180755 -0.210545 1.21571e-19)
(-0.186675 -0.2159 -5.68359e-20)
(-0.191332 -0.219008 1.05731e-21)
(-0.194691 -0.219324 0)
(-0.196768 -0.216259 -4.32863e-20)
(-0.197531 -0.209192 0)
(-0.196589 -0.197465 -3.81021e-20)
(-0.193769 -0.180426 1.3646e-19)
(-0.19266 -0.157932 -1.55245e-21)
(-0.000608216 -0.00678306 0)
(-0.00501264 -0.0237228 2.65256e-22)
(-0.0155935 -0.0418971 3.41329e-20)
(-0.0293509 -0.0590529 -3.23376e-20)
(-0.0445462 -0.0743641 3.00757e-20)
(-0.0602104 -0.0878953 1.72272e-19)
(-0.0756182 -0.100103 -5.40161e-20)
(-0.09025 -0.111538 -5.12266e-20)
(-0.10378 -0.122662 9.6096e-20)
(-0.116025 -0.133761 -1.35284e-19)
(-0.126897 -0.144934 4.24803e-20)
(-0.136358 -0.156116 3.98126e-20)
(-0.144399 -0.167124 0)
(-0.151017 -0.177694 3.47518e-20)
(-0.156212 -0.187499 0)
(-0.159977 -0.196168 5.92614e-20)
(-0.162299 -0.20329 -1.08783e-19)
(-0.163152 -0.208403 2.82243e-20)
(-0.162511 -0.210992 9.35304e-20)
(-0.160393 -0.210466 4.3249e-20)
(-0.156798 -0.206126 0)
(-0.15127 -0.19713 -1.0165e-19)
(-0.143056 -0.182613 3.34e-20)
(-0.135986 -0.162404 0)
(-0.00196659 -0.000620522 0)
(-0.00752569 -0.0094854 -1.08486e-19)
(-0.0181316 -0.0226284 -3.47783e-20)
(-0.0311627 -0.0368686 -6.49787e-20)
(-0.0450711 -0.0507319 6.11894e-20)
(-0.0589811 -0.0638026 -5.7595e-20)
(-0.072214 -0.0761751 1.09295e-19)
(-0.0842689 -0.088142 5.13375e-20)
(-0.0948219 -0.0999982 -1.44993e-19)
(-0.103683 -0.111934 9.08682e-20)
(-0.110753 -0.124001 -1.27631e-19)
(-0.115986 -0.136124 2.79252e-19)
(-0.119366 -0.148129 -1.49334e-19)
(-0.120898 -0.159766 6.92325e-20)
(-0.120594 -0.170732 1.90586e-19)
(-0.118477 -0.180684 -6.18458e-20)
(-0.114575 -0.189247 -5.66409e-20)
(-0.108913 -0.196011 -5.1078e-20)
(-0.101512 -0.200531 0)
(-0.0924154 -0.202293 -7.73679e-20)
(-0.0817043 -0.200642 -6.42026e-20)
(-0.0691128 -0.194631 9.83673e-20)
(-0.0532434 -0.18294 1.06253e-19)
(-0.0353312 -0.164605 -9.77792e-20)
(-0.00382267 0.00495185 0)
(-0.0108882 0.00358384 -1.47302e-19)
(-0.0211833 -0.00473237 -9.23751e-22)
(-0.0327399 -0.0161018 1.31101e-19)
(-0.0443475 -0.0284948 0)
(-0.0552915 -0.0410477 0)
(-0.0649758 -0.0535028 0)
(-0.0729328 -0.0658971 -5.17257e-20)
(-0.0788384 -0.078357 4.47139e-23)
(-0.0824865 -0.0909723 9.20568e-20)
(-0.0837556 -0.103745 -1.27934e-19)
(-0.0825824 -0.11658 4.15605e-22)
(-0.0789447 -0.129299 0)
(-0.0728522 -0.141657 -6.92e-20)
(-0.0643445 -0.153355 6.23913e-20)
(-0.0534915 -0.16406 -1.77161e-19)
(-0.040392 -0.173414 2.11402e-19)
(-0.0251664 -0.181047 4.14343e-20)
(-0.00794554 -0.186581 -8.92072e-21)
(0.0111353 -0.189633 -1.57492e-19)
(0.0318872 -0.189771 -6.60048e-20)
(0.0541304 -0.186345 1.97888e-19)
(0.0785963 -0.177925 -1.26555e-19)
(0.110232 -0.160945 0)
(-0.00594092 0.00952025 7.24813e-20)
(-0.0146477 0.0145976 7.38486e-20)
(-0.0242423 0.010676 -7.11322e-20)
(-0.0335745 0.00205045 -1.33597e-19)
(-0.041861 -0.00884757 1.25802e-19)
(-0.0485897 -0.0207794 -1.19109e-19)
(-0.0532703 -0.0331736 1.68601e-19)
(-0.05548 -0.0458273 -5.16652e-20)
(-0.0548954 -0.0586987 9.93679e-20)
(-0.0512867 -0.0717702 0)
(-0.0445062 -0.0849814 8.71265e-20)
(-0.0344741 -0.0982036 -1.64238e-19)
(-0.0211702 -0.111238 1.49883e-19)
(-0.00463262 -0.123826 -1.40777e-19)
(0.0150404 -0.135657 0)
(0.0376885 -0.146385 1.17181e-19)
(0.063089 -0.155649 2.07638e-19)
(0.0909705 -0.163079 -1.95048e-19)
(0.121022 -0.168327 -8.4446e-20)
(0.152912 -0.171084 -6.97665e-20)
(0.186256 -0.171112 2.01055e-19)
(0.220879 -0.168135 4.89728e-20)
(0.255671 -0.161461 -5.10907e-20)
(0.303952 -0.145775 3.82789e-20)
(-0.0080528 0.0128151 -7.2491e-20)
(-0.0182819 0.0229115 2.28515e-19)
(-0.026728 0.0227145 -7.20823e-20)
(-0.0330849 0.0165771 1.35805e-19)
(-0.0370246 0.00714563 -1.27878e-19)
(-0.0382591 -0.00406914 8.09185e-22)
(-0.0364172 -0.0162394 5.72852e-20)
(-0.0311246 -0.0289501 2.16035e-19)
(-0.0220663 -0.0419962 -3.07998e-22)
(-0.00900209 -0.0552463 -9.41848e-20)
(0.00822375 -0.0685643 0)
(0.0296761 -0.0817702 -8.17072e-20)
(0.0553234 -0.0946289 1.53594e-19)
(0.0850312 -0.106852 1.39063e-19)
(0.118558 -0.118108 -6.59776e-20)
(0.155553 -0.128036 1.1383e-22)
(0.195569 -0.136267 -5.30178e-20)
(0.238077 -0.142443 9.46606e-20)
(0.282496 -0.146242 8.44101e-20)
(0.328253 -0.147387 -7.41332e-20)
(0.374529 -0.145772 6.35277e-20)
(0.422171 -0.140878 -5.42851e-20)
(0.464045 -0.134258 0)
(0.53063 -0.118057 -3.8202e-20)
(-0.00990382 0.0147352 7.48136e-20)
(-0.0212611 0.0281801 -7.65932e-20)
(-0.0280231 0.0308121 7.37151e-20)
(-0.0306334 0.0267385 0)
(-0.0291858 0.0186368 0)
(-0.023609 0.00817915 1.2462e-19)
(-0.0136621 -0.00361818 -1.15561e-19)
(0.000963804 -0.0161634 1.0941e-19)
(0.0205534 -0.0291003 -5.11129e-19)
(0.0453135 -0.0421826 4.74615e-22)
(0.0753417 -0.0551869 8.96964e-20)
(0.110599 -0.0678682 0)
(0.150886 -0.0799442 -1.52303e-19)
(0.195832 -0.091095 2.82791e-19)
(0.244893 -0.100974 -1.95836e-19)
(0.297366 -0.109225 -2.89084e-19)
(0.352417 -0.115509 9.69155e-21)
(0.409127 -0.119521 1.93449e-19)
(0.466533 -0.121026 0)
(0.523832 -0.119795 0)
(0.579422 -0.116092 -6.35103e-20)
(0.636101 -0.108594 5.42701e-20)
(0.680071 -0.10145 -1.7312e-19)
(0.755679 -0.0834597 1.62476e-19)
(-0.0112943 0.015345 0)
(-0.0231053 0.0303746 0)
(-0.0275028 0.0347564 -2.22617e-19)
(-0.0255054 0.0321475 7.05799e-20)
(-0.0175543 0.0251125 -1.08347e-22)
(-0.00377 0.0153838 1.26113e-19)
(0.0159531 0.00409766 0)
(0.0418226 -0.00801452 -1.10634e-19)
(0.0740289 -0.0204674 1.02742e-19)
(0.112652 -0.0329025 -1.93227e-19)
(0.1576 -0.0450053 9.04836e-22)
(0.208558 -0.0564652 1.65902e-19)
(0.264959 -0.0669609 -2.98738e-21)
(0.325977 -0.0761625 1.36344e-19)
(0.390549 -0.0837466 -1.98217e-19)
(0.45743 -0.0894169 0)
(0.525255 -0.0929264 2.05557e-19)
(0.592638 -0.094097 -2.8714e-19)
(0.658223 -0.092855 8.26064e-20)
(0.721006 -0.0890769 0)
(0.779061 -0.0833823 6.29664e-20)
(0.83558 -0.0741288 2.07402e-19)
(0.876481 -0.0665064 -1.94649e-19)
(0.944275 -0.0484714 -1.90449e-19)
(-0.012097 0.0148388 2.33533e-19)
(-0.0234019 0.0297528 -3.21786e-19)
(-0.0245203 0.0347169 1.50155e-22)
(-0.0168509 0.0328594 7.19062e-20)
(-0.001091 0.0265478 -1.3501e-19)
(0.022473 0.0175014 -1.25378e-19)
(0.0537948 0.00691902 2.36775e-19)
(0.0929123 -0.00437069 -1.59019e-21)
(0.139799 -0.0157779 -2.08683e-19)
(0.194231 -0.026847 3.87859e-19)
(0.255699 -0.0371928 -2.32531e-21)
(0.323344 -0.0464695 -1.68846e-19)
(0.395951 -0.0543626 0)
(0.471979 -0.0605968 0)
(0.549651 -0.0649511 -6.46024e-20)
(0.627063 -0.0672752 -1.15829e-19)
(0.702325 -0.0675007 -2.03833e-19)
(0.773692 -0.065651 1.91338e-19)
(0.83968 -0.0618316 -8.26353e-20)
(0.899203 -0.0561797 1.39322e-19)
(0.951181 -0.049195 -7.27462e-20)
(0.997086 -0.0400461 9.55739e-20)
(1.02953 -0.0325045 -2.43484e-19)
(1.0749 -0.0172029 3.95248e-20)
(-0.0122359 0.0134767 7.90217e-20)
(-0.0217617 0.0267799 0)
(-0.0183306 0.0312128 1.53978e-19)
(-0.00356778 0.0294096 -1.45052e-19)
(0.0216485 0.0235169 1.35127e-19)
(0.0568702 0.0151977 0)
(0.101836 0.00566876 0)
(0.156276 -0.00418613 -1.11781e-19)
(0.219724 -0.0137102 1.52708e-21)
(0.291359 -0.0223992 9.85605e-20)
(0.369909 -0.0298592 -8.91577e-20)
(0.453629 -0.0357897 1.68821e-19)
(0.54037 -0.0399822 0)
(0.627704 -0.0423249 2.76788e-19)
(0.713111 -0.0428056 -5.10451e-19)
(0.794185 -0.0415085 3.51144e-19)
(0.868816 -0.0385993 2.01234e-19)
(0.935341 -0.0343195 -1.88908e-19)
(0.992675 -0.0289074 0)
(1.04022 -0.0227485 0)
(1.07823 -0.0158975 0)
(1.10708 -0.00884076 0)
(1.12708 -0.00207405 4.72267e-20)
(1.14762 0.00848595 -1.61782e-19)
(-0.15633 -0.103096 -7.24681e-21)
(-0.142465 -0.0495653 7.26798e-21)
(-0.125499 0.0143237 -2.03948e-22)
(-0.105072 0.0869116 0)
(-0.0813466 0.165846 -6.26001e-21)
(-0.0549717 0.247524 1.18636e-20)
(-0.0270499 0.328128 -3.81473e-22)
(0.000916932 0.403616 -5.08944e-21)
(0.0270356 0.470398 0)
(0.049797 0.525315 0)
(0.0691184 0.565943 -1.98e-22)
(0.0871652 0.589997 -1.79917e-22)
(0.109022 0.592444 -2.8924e-21)
(0.141489 0.565684 2.64561e-21)
(0.190048 0.502257 0)
(0.254826 0.399694 0)
(0.330319 0.262634 3.06574e-21)
(0.409538 0.100239 7.06619e-23)
(0.487574 -0.0755188 -2.77006e-21)
(0.56076 -0.24546 -1.74657e-22)
(0.62379 -0.385383 0)
(0.671606 -0.478119 0)
(0.701482 -0.523272 0)
(0.714486 -0.53229 0)
(0.71583 -0.51905 0)
(0.70678 -0.501382 0)
(0.680471 -0.498317 3.08099e-22)
(0.635268 -0.507472 -4.85296e-22)
(0.588299 -0.490425 0)
(0.56694 -0.399476 0)
(0.58406 -0.225469 -6.1499e-22)
(0.630164 -0.0121772 5.97693e-22)
(0.687748 0.183733 2.58089e-22)
(0.73955 0.32347 0)
(0.778924 0.401121 0)
(0.805623 0.42717 2.64007e-22)
(0.815392 0.437229 -2.56629e-22)
(0.797146 0.456588 0)
(0.753632 0.474188 2.52023e-22)
(0.710209 0.434683 -3.84239e-22)
(0.694537 0.301176 1.63192e-22)
(0.709139 0.106165 0)
(0.747424 -0.0975331 -2.77191e-22)
(0.786492 -0.236399 2.69531e-22)
(0.826111 -0.326464 0)
(0.833962 -0.358227 0)
(0.80922 -0.395748 -6.39671e-23)
(0.758882 -0.386457 1.80205e-22)
(0.725323 -0.313473 0)
(0.726488 -0.174299 0)
(0.767744 0.0229194 -5.6944e-23)
(0.802523 0.131807 5.30958e-24)
(0.820962 0.288039 -5.78929e-24)
(0.792842 0.321486 3.50076e-23)
(0.773003 0.365186 0)
(0.76614 0.297727 0)
(0.793553 0.0964067 0)
(0.792588 0.035718 0)
(0.803098 -0.26572 0)
(0.77721 -0.262088 0)
(-0.205283 -0.116651 -5.95744e-22)
(-0.198076 -0.0675975 -2.49434e-20)
(-0.187408 -0.00844969 6.39459e-22)
(-0.172638 0.0599412 2.28458e-20)
(-0.153611 0.135479 3.04579e-22)
(-0.130421 0.21502 0)
(-0.103526 0.294893 -1.75931e-20)
(-0.0737017 0.371386 3.34662e-20)
(-0.0423282 0.440799 -1.58748e-20)
(-0.0102149 0.49825 1.29974e-20)
(0.024085 0.540264 -1.24348e-20)
(0.0632595 0.562891 1.11101e-20)
(0.110679 0.560031 -1.07829e-20)
(0.170116 0.525075 -3.51249e-22)
(0.242902 0.453507 -1.23046e-20)
(0.325735 0.346067 1.19567e-20)
(0.41211 0.208351 -1.35177e-20)
(0.496294 0.0479963 1.27026e-20)
(0.575253 -0.124569 -1.26756e-20)
(0.645546 -0.289512 2.31738e-20)
(0.701042 -0.421332 -1.05628e-20)
(0.737295 -0.502957 -4.92556e-22)
(0.754106 -0.536158 -5.2893e-21)
(0.754242 -0.535548 9.26615e-21)
(0.743874 -0.515598 -4.00976e-21)
(0.726879 -0.490557 1.88402e-22)
(0.697199 -0.478005 3.01015e-21)
(0.648787 -0.481348 3.53366e-22)
(0.593179 -0.469868 -6.5198e-21)
(0.557871 -0.395478 7.42783e-21)
(0.561705 -0.239718 -3.89938e-21)
(0.599995 -0.0380774 4.94696e-22)
(0.655355 0.15544 -2.58625e-22)
(0.710132 0.29964 3.80801e-22)
(0.756498 0.384137 0)
(0.791605 0.418074 0)
(0.807022 0.438179 -9.51342e-22)
(0.792439 0.467608 6.92293e-22)
(0.75352 0.489654 8.37894e-22)
(0.717654 0.446012 3.63759e-22)
(0.709967 0.303052 -1.41257e-21)
(0.72928 0.099191 3.77451e-22)
(0.768447 -0.109458 0)
(0.802846 -0.248568 0)
(0.838317 -0.333616 0)
(0.842563 -0.355903 0)
(0.817449 -0.385151 2.49574e-22)
(0.764623 -0.37469 -1.18099e-22)
(0.728345 -0.309016 0)
(0.727102 -0.179843 0)
(0.765691 0.0127073 0)
(0.800206 0.125054 -8.18415e-23)
(0.81587 0.288891 1.38716e-23)
(0.789111 0.326623 -7.64919e-23)
(0.768388 0.368017 0)
(0.763763 0.295944 0)
(0.795294 0.0929248 6.45553e-23)
(0.796528 0.0349544 2.03397e-22)
(0.80992 -0.263792 0)
(0.781725 -0.260462 0)
(-0.20145 -0.127202 -8.59759e-22)
(-0.201365 -0.0833525 -4.29812e-20)
(-0.196775 -0.0293316 3.98002e-20)
(-0.187794 0.0333959 -3.73089e-20)
(-0.173942 0.104164 -3.06704e-22)
(-0.154695 0.179914 0)
(-0.129387 0.256958 -2.93601e-20)
(-0.0979467 0.332629 2.86678e-20)
(-0.061744 0.400864 2.16188e-22)
(-0.0207983 0.457349 3.31049e-22)
(0.0275289 0.498569 3.1799e-22)
(0.0847662 0.518643 3.43105e-22)
(0.152188 0.511362 -2.25407e-20)
(0.230681 0.471528 2.2257e-20)
(0.318702 0.396954 0)
(0.411408 0.290162 8.43524e-22)
(0.502614 0.156679 -2.8797e-20)
(0.587913 0.00198687 2.84134e-20)
(0.665643 -0.164575 0)
(0.731813 -0.322576 0)
(0.778889 -0.445501 -1.92972e-20)
(0.802945 -0.516976 3.35443e-20)
(0.806567 -0.540448 -2.49247e-20)
(0.794709 -0.532559 2.54784e-21)
(0.7737 -0.508392 1.45411e-20)
(0.74906 -0.478582 -1.23265e-20)
(0.716657 -0.45769 1.04472e-20)
(0.667144 -0.454121 -4.94014e-23)
(0.605528 -0.446421 -5.19864e-21)
(0.557466 -0.388445 0)
(0.547184 -0.252862 0)
(0.575817 -0.0649762 2.66216e-21)
(0.62734 0.12452 -3.47621e-21)
(0.68416 0.272098 -4.89988e-23)
(0.736794 0.363334 2.2102e-21)
(0.779542 0.406025 -2.14791e-21)
(0.800263 0.437052 0)
(0.789789 0.476752 2.33428e-22)
(0.75627 0.503284 2.58291e-21)
(0.728074 0.456226 -5.68493e-21)
(0.728113 0.305166 2.69953e-21)
(0.752007 0.0939214 4.3259e-22)
(0.792017 -0.118695 -3.32823e-21)
(0.821589 -0.258119 2.52292e-21)
(0.852356 -0.339177 4.33559e-22)
(0.852804 -0.352958 3.17057e-22)
(0.82748 -0.37427 -2.50197e-22)
(0.772636 -0.362845 0)
(0.734033 -0.304595 0)
(0.730237 -0.185777 -7.46766e-22)
(0.765708 0.00229223 3.72657e-22)
(0.799627 0.118098 -3.13714e-22)
(0.812394 0.289551 4.62668e-22)
(0.786862 0.331722 5.97938e-22)
(0.764986 0.370701 -1.4594e-22)
(0.762544 0.293947 3.04977e-22)
(0.798281 0.0889295 -2.92488e-22)
(0.801753 0.0338941 1.67207e-22)
(0.817831 -0.261711 0)
(0.787109 -0.25871 0)
(-0.144693 -0.134353 -7.46057e-20)
(-0.151042 -0.0959626 4.36465e-21)
(-0.151629 -0.0473272 6.63409e-20)
(-0.147596 0.00921857 -5.27957e-22)
(-0.137802 0.0740245 0)
(-0.122655 0.14484 0)
(-0.099308 0.21716 -4.59033e-20)
(-0.0680891 0.287792 1.42649e-21)
(-0.0299609 0.351586 6.17543e-20)
(0.0175234 0.405711 -3.71337e-22)
(0.0756638 0.444804 -1.93301e-20)
(0.144481 0.462288 -2.00336e-20)
(0.223903 0.452409 2.00361e-20)
(0.312761 0.411197 0)
(0.407827 0.338009 -2.68389e-20)
(0.503754 0.236149 2.43631e-20)
(0.595071 0.110181 0)
(0.679191 -0.0367376 0)
(0.755145 -0.196019 2.73442e-20)
(0.817025 -0.346335 -2.86754e-21)
(0.855609 -0.460122 -2.23634e-20)
(0.867541 -0.522237 -1.53237e-20)
(0.858208 -0.537784 1.51723e-20)
(0.835229 -0.5244 -8.67508e-21)
(0.804848 -0.497757 1.86149e-21)
(0.772894 -0.465778 6.32293e-21)
(0.73785 -0.438443 6.0441e-22)
(0.689131 -0.426827 4.07658e-23)
(0.624855 -0.419814 0)
(0.566077 -0.376936 5.52974e-21)
(0.54107 -0.263249 -5.69562e-21)
(0.558273 -0.0916561 4.21092e-22)
(0.604311 0.0916835 0)
(0.661994 0.241274 -3.3605e-22)
(0.719878 0.339008 4.00653e-21)
(0.769312 0.391039 -7.16936e-21)
(0.795005 0.433463 -5.79774e-22)
(0.789037 0.483427 -4.71921e-22)
(0.761476 0.514646 3.45723e-21)
(0.74085 0.46534 6.4792e-22)
(0.748287 0.307944 -6.62369e-21)
(0.776615 0.090578 5.6204e-21)
(0.817636 -0.125226 -3.96704e-23)
(0.842482 -0.265121 2.12077e-21)
(0.868084 -0.343273 -2.49668e-21)
(0.864508 -0.349631 -2.09131e-21)
(0.838999 -0.363294 6.30772e-22)
(0.782557 -0.350879 7.59573e-22)
(0.741999 -0.30001 -1.44513e-21)
(0.735588 -0.191893 1.05176e-21)
(0.767605 -0.00823193 -3.26563e-22)
(0.800698 0.110917 3.21408e-22)
(0.810523 0.289987 2.71264e-22)
(0.786159 0.336806 -8.88537e-22)
(0.762955 0.373294 -8.74363e-24)
(0.762611 0.29178 -3.59538e-22)
(0.802529 0.0844441 0)
(0.808252 0.0325454 -1.5481e-22)
(0.826799 -0.259461 3.65408e-22)
(0.793339 -0.256808 0)
(-0.0413279 -0.138167 6.37783e-20)
(-0.0539026 -0.104866 -1.19394e-19)
(-0.0588812 -0.0620828 5.51825e-20)
(-0.0590427 -0.011068 4.58107e-20)
(-0.0520806 0.0465454 -8.57788e-20)
(-0.040266 0.109397 2.43104e-21)
(-0.0214681 0.174481 3.69126e-20)
(0.00741037 0.238138 3.33985e-20)
(0.0462755 0.297522 -3.27473e-20)
(0.0964213 0.348299 0)
(0.15825 0.384313 -3.53932e-20)
(0.231506 0.399636 7.31949e-20)
(0.315118 0.389113 -3.77549e-20)
(0.406703 0.34953 0)
(0.502282 0.280932 0)
(0.596519 0.186666 8.71157e-22)
(0.685115 0.0699337 -6.02842e-20)
(0.767326 -0.0679831 5.85535e-20)
(0.841664 -0.219104 0)
(0.899188 -0.360591 4.95927e-20)
(0.929013 -0.464599 -8.5577e-20)
(0.929083 -0.51811 6.78741e-20)
(0.907533 -0.52794 -5.24691e-20)
(0.874601 -0.511401 5.07634e-21)
(0.836564 -0.483903 2.94801e-20)
(0.798233 -0.451944 -1.27119e-20)
(0.760392 -0.420876 -2.91374e-22)
(0.71353 -0.401458 -3.60744e-21)
(0.649888 -0.391933 -2.0421e-22)
(0.583551 -0.361086 3.84911e-21)
(0.544142 -0.269579 3.2628e-22)
(0.548121 -0.11694 -4.89848e-21)
(0.586763 0.0576227 9.28914e-21)
(0.643919 0.20757 -4.87293e-21)
(0.705711 0.311314 0)
(0.760692 0.372927 -3.90007e-21)
(0.791022 0.426895 3.79833e-21)
(0.789901 0.487096 -3.69266e-21)
(0.768668 0.523493 4.58483e-21)
(0.755412 0.473503 -6.98837e-22)
(0.769829 0.311546 0)
(0.802445 0.0891829 -9.00244e-22)
(0.844767 -0.129064 2.40841e-21)
(0.865196 -0.269442 0)
(0.885258 -0.345748 4.09345e-21)
(0.877498 -0.345919 -1.79155e-21)
(0.851778 -0.352309 4.74098e-22)
(0.79405 -0.338859 3.43702e-22)
(0.751805 -0.295205 0)
(0.742783 -0.198043 0)
(0.77113 -0.0188107 -8.05957e-22)
(0.803281 0.103467 1.25542e-21)
(0.810215 0.290143 -7.49519e-22)
(0.787055 0.341869 2.35376e-22)
(0.762449 0.37585 5.97324e-22)
(0.764079 0.289484 3.59883e-22)
(0.80804 0.0794814 -7.18124e-22)
(0.816007 0.0309129 0)
(0.83678 -0.256999 -5.41331e-22)
(0.800381 -0.254726 -9.79464e-23)
(0.105531 -0.138153 5.64735e-20)
(0.0855408 -0.109718 -5.59562e-20)
(0.0741468 -0.0741809 3.86719e-22)
(0.0676486 -0.0305548 -2.79266e-22)
(0.0682608 0.0193187 2.99451e-22)
(0.0762821 0.0740342 -2.68926e-22)
(0.0917015 0.13189 3.8576e-22)
(0.117326 0.189647 0)
(0.153862 0.243892 -3.68825e-22)
(0.202143 0.289949 3.91502e-22)
(0.262485 0.322518 4.35502e-22)
(0.334335 0.336278 -5.49864e-22)
(0.416075 0.326609 0)
(0.504848 0.290632 0)
(0.596585 0.228432 7.61117e-22)
(0.686436 0.142797 0)
(0.771447 0.0353495 -8.92058e-22)
(0.851887 -0.0930587 0)
(0.924482 -0.234885 -5.32778e-20)
(0.976875 -0.366062 9.96319e-20)
(0.997354 -0.459801 -8.40727e-20)
(0.986057 -0.505733 3.78294e-20)
(0.953614 -0.511998 2.26288e-20)
(0.912127 -0.49457 -2.19764e-20)
(0.868105 -0.467559 -1.29716e-20)
(0.82466 -0.437017 1.25044e-20)
(0.783784 -0.40483 0)
(0.738969 -0.379007 1.98471e-22)
(0.678813 -0.364483 0)
(0.608936 -0.341378 0)
(0.556675 -0.270767 7.04214e-21)
(0.54615 -0.139706 -7.20327e-21)
(0.575387 0.0232558 4.09272e-22)
(0.63019 0.171506 4.77944e-22)
(0.694175 0.280415 -3.43319e-22)
(0.753419 0.351515 -3.14209e-21)
(0.788044 0.416887 3.05095e-21)
(0.791986 0.487266 -4.58274e-21)
(0.777283 0.529657 3.99751e-21)
(0.771122 0.480798 1.41694e-21)
(0.792036 0.31597 -7.249e-21)
(0.828873 0.0898707 -1.0468e-21)
(0.872878 -0.130245 5.28263e-21)
(0.889378 -0.271045 0)
(0.903604 -0.34652 -1.88588e-21)
(0.891548 -0.341877 1.58343e-21)
(0.865565 -0.341401 -2.16576e-21)
(0.806782 -0.326782 -3.45877e-22)
(0.76299 -0.290084 0)
(0.751387 -0.204101 2.43185e-22)