/*--------------------------------*- C++ -*----------------------------------*\
| =========                 |                                                 |
| \\      /  F ield         | OpenFOAM: The Open Source CFD Toolbox           |
|  \\    /   O peration     | Version:  2512                                  |
|   \\  /    A nd           | Website:  www.openfoam.com                      |
|    \\/     M anipulation  |                                                 |
\*---------------------------------------------------------------------------*/
FoamFile
{
    version     2.0;
    format      ascii;
    arch        "LSB;label=32;scalar=64";
    class       volScalarField;
    location    "178.25";
    object      p;
}
// * * * * * * * * * * * * * * * * * * * * * * * * * * * * * * * * * * * * * //

dimensions      [0 2 -2 0 0 0 0];

internalField   nonuniform List<scalar> 
13248
(
-0.457574
-0.454618
-0.45089
-0.446732
-0.442595
-0.438969
-0.436209
-0.434476
-0.433723
-0.43369
-0.433936
-0.43389
-0.432925
-0.430438
-0.425935
-0.419086
-0.409759
-0.398008
-0.38403
-0.368128
-0.350492
-0.331501
-0.310122
-0.287304
-0.466658
-0.463103
-0.458816
-0.45413
-0.449446
-0.445193
-0.441639
-0.438842
-0.436642
-0.434693
-0.432516
-0.429574
-0.425361
-0.419475
-0.411671
-0.401872
-0.390157
-0.376717
-0.361796
-0.345642
-0.328454
-0.310416
-0.291373
-0.272182
-0.477994
-0.473538
-0.468534
-0.463249
-0.457961
-0.452991
-0.448475
-0.444333
-0.440303
-0.435996
-0.430979
-0.424857
-0.417336
-0.408264
-0.397634
-0.385554
-0.372211
-0.357819
-0.342582
-0.326686
-0.310252
-0.293455
-0.276174
-0.258955
-0.491562
-0.485941
-0.480065
-0.474074
-0.468046
-0.462144
-0.456343
-0.450428
-0.444082
-0.436965
-0.428797
-0.419406
-0.408749
-0.396896
-0.384
-0.370251
-0.35584
-0.340936
-0.325679
-0.310182
-0.294539
-0.278867
-0.263127
-0.247832
-0.50722
-0.500231
-0.493349
-0.486512
-0.479526
-0.472355
-0.464813
-0.456604
-0.447451
-0.437179
-0.425743
-0.413225
-0.399793
-0.385659
-0.371035
-0.3561
-0.340997
-0.325826
-0.310663
-0.295562
-0.280574
-0.265758
-0.2511
-0.236899
-0.524735
-0.516252
-0.508259
-0.500405
-0.492149
-0.48324
-0.473384
-0.462313
-0.449923
-0.436292
-0.421647
-0.406281
-0.390491
-0.37453
-0.358587
-0.342787
-0.327202
-0.31187
-0.296811
-0.282039
-0.26757
-0.253424
-0.2396
-0.226279
-0.543752
-0.53373
-0.524542
-0.515447
-0.505495
-0.494255
-0.481445
-0.466981
-0.451049
-0.434032
-0.416384
-0.398525
-0.380783
-0.363374
-0.34642
-0.329971
-0.314035
-0.298599
-0.283642
-0.269145
-0.255095
-0.241481
-0.228304
-0.215613
-0.563753
-0.552222
-0.541753
-0.531109
-0.518916
-0.504675
-0.488291
-0.470026
-0.45043
-0.43016
-0.409814
-0.389835
-0.370498
-0.351937
-0.334192
-0.317242
-0.301044
-0.285542
-0.270686
-0.256432
-0.242741
-0.229587
-0.216964
-0.204818
-0.584001
-0.571056
-0.559197
-0.546603
-0.531543
-0.513636
-0.493186
-0.470915
-0.447734
-0.424487
-0.401804
-0.380062
-0.359438
-0.339967
-0.321608
-0.304282
-0.287902
-0.272382
-0.257646
-0.243628
-0.230274
-0.217543
-0.205406
-0.193741
-0.603522
-0.589306
-0.5759
-0.560873
-0.542311
-0.520196
-0.495411
-0.469175
-0.442675
-0.416825
-0.392184
-0.369014
-0.34737
-0.327194
-0.308374
-0.290785
-0.274305
-0.258824
-0.244243
-0.230479
-0.217461
-0.20514
-0.193453
-0.18225
-0.62113
-0.605803
-0.590631
-0.572645
-0.550018
-0.523352
-0.494209
-0.46425
-0.434816
-0.406771
-0.380543
-0.356248
-0.333826
-0.313134
-0.294005
-0.276275
-0.259793
-0.244426
-0.23006
-0.216593
-0.203944
-0.192045
-0.180795
-0.170066
-0.635545
-0.619292
-0.602112
-0.580649
-0.553487
-0.522075
-0.488687
-0.455325
-0.423357
-0.393513
-0.366046
-0.340921
-0.317967
-0.296969
-0.277709
-0.259988
-0.243633
-0.228492
-0.214433
-0.201343
-0.189133
-0.177719
-0.166969
-0.156823
-0.365296
-0.366958
-0.368039
-0.369004
-0.370286
-0.372047
-0.374332
-0.377133
-0.38041
-0.384101
-0.388126
-0.39238
-0.396729
-0.401008
-0.405026
-0.408576
-0.411012
-0.412386
-0.412303
-0.410439
-0.40654
-0.40044
-0.392085
-0.381598
-0.378605
-0.379506
-0.380263
-0.381228
-0.382751
-0.384993
-0.388008
-0.391791
-0.396302
-0.401479
-0.407241
-0.413474
-0.420024
-0.426691
-0.433213
-0.439257
-0.444381
-0.448237
-0.4503
-0.4501
-0.44721
-0.441253
-0.431909
-0.419266
-0.391429
-0.391479
-0.391816
-0.392677
-0.394306
-0.396866
-0.400418
-0.404958
-0.410444
-0.416811
-0.423967
-0.431787
-0.440095
-0.44865
-0.457142
-0.465178
-0.472288
-0.47784
-0.481295
-0.482008
-0.479445
-0.472936
-0.462028
-0.446606
-0.40315
-0.402336
-0.402195
-0.40282
-0.404374
-0.40702
-0.410833
-0.415811
-0.421907
-0.429048
-0.437128
-0.446003
-0.455468
-0.465247
-0.474973
-0.484194
-0.492355
-0.498791
-0.502795
-0.503612
-0.50052
-0.492844
-0.480064
-0.461586
-0.413321
-0.411725
-0.411061
-0.411319
-0.412588
-0.415047
-0.41879
-0.423824
-0.430104
-0.437545
-0.446027
-0.455382
-0.465381
-0.475707
-0.485913
-0.495527
-0.503933
-0.510401
-0.514132
-0.514289
-0.510086
-0.500761
-0.486157
-0.464691
-0.421707
-0.41949
-0.418306
-0.418077
-0.418854
-0.420844
-0.424177
-0.428881
-0.434916
-0.442193
-0.450576
-0.459878
-0.469859
-0.480228
-0.490159
-0.49947
-0.507415
-0.513191
-0.515945
-0.514801
-0.509015
-0.497714
-0.481402
-0.457398
-0.428324
-0.425701
-0.424038
-0.423235
-0.423347
-0.424627
-0.427249
-0.431279
-0.436695
-0.443408
-0.451266
-0.460044
-0.469424
-0.478949
-0.488497
-0.497066
-0.503987
-0.508462
-0.509633
-0.506636
-0.498882
-0.485462
-0.467536
-0.441766
-0.433437
-0.430634
-0.428559
-0.427138
-0.426471
-0.426868
-0.428564
-0.431672
-0.436202
-0.442075
-0.449129
-0.457104
-0.465669
-0.47438
-0.482708
-0.48992
-0.495236
-0.497814
-0.496839
-0.491531
-0.481529
-0.466077
-0.446716
-0.420138
-0.437529
-0.434735
-0.432316
-0.430272
-0.428783
-0.428223
-0.428889
-0.430951
-0.434453
-0.439325
-0.445387
-0.45236
-0.459826
-0.467267
-0.474043
-0.479403
-0.48254
-0.482654
-0.479054
-0.471177
-0.458923
-0.441863
-0.421578
-0.395208
-0.441253
-0.438567
-0.435855
-0.433215
-0.430929
-0.429433
-0.429084
-0.430096
-0.432535
-0.436338
-0.44129
-0.447039
-0.453094
-0.458843
-0.463571
-0.466502
-0.466876
-0.464034
-0.457512
-0.447083
-0.432932
-0.415051
-0.394839
-0.369745
-0.445361
-0.442763
-0.439762
-0.436567
-0.433555
-0.431215
-0.429936
-0.429957
-0.431356
-0.434026
-0.437697
-0.441937
-0.446169
-0.449707
-0.451809
-0.451754
-0.44892
-0.442872
-0.433414
-0.420659
-0.405
-0.386935
-0.367679
-0.345056
-0.450599
-0.447941
-0.444607
-0.440894
-0.437249
-0.434181
-0.432089
-0.431199
-0.431546
-0.432967
-0.435108
-0.437451
-0.439357
-0.440128
-0.439093
-0.43568
-0.429493
-0.420352
-0.408292
-0.393598
-0.376607
-0.358061
-0.338651
-0.318498
-0.367425
-0.34783
-0.32706
-0.306703
-0.28877
-0.275246
-0.267662
-0.266601
-0.27182
-0.279251
-0.28586
-0.287592
-0.280378
-0.262025
-0.233219
-0.198233
-0.16349
-0.13467
-0.114861
-0.104483
-0.102412
-0.107919
-0.121909
-0.144707
-0.171404
-0.19093
-0.192242
-0.174166
-0.14496
-0.115114
-0.0914294
-0.0762581
-0.0686904
-0.0674202
-0.0734283
-0.087772
-0.105126
-0.114365
-0.108563
-0.092405
-0.0753171
-0.063241
-0.0562656
-0.0557358
-0.0626356
-0.0721154
-0.075677
-0.0693083
-0.0586013
-0.0491517
-0.0410433
-0.037816
-0.0357612
-0.0346049
-0.0335678
-0.0305128
-0.0224337
-0.0163163
-0.00996677
-0.00398581
-0.402722
-0.377225
-0.349195
-0.320248
-0.292473
-0.268299
-0.249837
-0.238649
-0.235162
-0.236692
-0.239835
-0.240888
-0.2353
-0.221378
-0.199131
-0.171595
-0.144093
-0.121669
-0.107255
-0.101345
-0.103069
-0.112263
-0.130293
-0.157171
-0.187024
-0.207735
-0.207743
-0.186672
-0.153789
-0.120575
-0.0940431
-0.0763326
-0.066444
-0.0628841
-0.0661616
-0.0774812
-0.0924308
-0.101036
-0.0966761
-0.0834182
-0.0696102
-0.0605466
-0.0562045
-0.0582162
-0.0678955
-0.0794838
-0.0838688
-0.0760925
-0.0629416
-0.0512287
-0.0409765
-0.03607
-0.032031
-0.0302608
-0.0290504
-0.0267771
-0.0204329
-0.0155508
-0.0108922
-0.00488314
-0.428147
-0.397941
-0.363612
-0.327218
-0.290965
-0.257609
-0.229075
-0.207456
-0.196386
-0.190641
-0.189176
-0.189364
-0.18625
-0.175397
-0.160483
-0.140807
-0.120887
-0.105197
-0.0964139
-0.0950325
-0.100483
-0.113175
-0.134807
-0.165095
-0.197518
-0.219395
-0.218875
-0.195727
-0.160121
-0.124296
-0.0954851
-0.0756364
-0.0636818
-0.0580142
-0.0586925
-0.0669983
-0.079488
-0.0874225
-0.0844375
-0.0740097
-0.0633828
-0.0572807
-0.055606
-0.0602121
-0.0726762
-0.0863713
-0.0916101
-0.0825125
-0.0669363
-0.0530092
-0.0407576
-0.034353
-0.0284907
-0.0260695
-0.0245383
-0.0229938
-0.0183822
-0.0147501
-0.01181
-0.00579592
-0.441037
-0.407975
-0.369018
-0.327159
-0.284536
-0.243654
-0.206527
-0.173643
-0.160067
-0.145316
-0.138274
-0.136434
-0.134001
-0.125371
-0.119431
-0.107381
-0.0948201
-0.0856975
-0.082329
-0.085131
-0.093906
-0.10961
-0.134247
-0.167405
-0.202122
-0.225384
-0.225149
-0.20103
-0.16377
-0.126206
-0.095791
-0.0743058
-0.0606209
-0.0530933
-0.0513903
-0.056812
-0.0668343
-0.0739878
-0.0722245
-0.0644332
-0.0567774
-0.0534897
-0.0544095
-0.0615423
-0.0767194
-0.0925135
-0.098676
-0.0884304
-0.0705265
-0.0544723
-0.0403847
-0.0326717
-0.0251686
-0.0220673
-0.0200871
-0.0192012
-0.0163021
-0.0139192
-0.0127112
-0.0067171
-0.442206
-0.407174
-0.366026
-0.321265
-0.27479
-0.229135
-0.186777
-0.150203
-0.123876
-0.103738
-0.0912638
-0.086108
-0.0851071
-0.0871128
-0.0792376
-0.0727552
-0.066726
-0.0635431
-0.064942
-0.071342
-0.0829489
-0.101186
-0.128323
-0.16389
-0.200704
-0.225522
-0.226396
-0.202505
-0.164778
-0.126443
-0.0951125
-0.0724936
-0.0574528
-0.0483647
-0.0445663
-0.0472891
-0.054882
-0.0611447
-0.0604175
-0.0549278
-0.0499251
-0.0492007
-0.052542
-0.0620457
-0.0798076
-0.0976413
-0.104817
-0.0937034
-0.0736623
-0.0556128
-0.0398633
-0.0310261
-0.0220812
-0.0182855
-0.0157515
-0.0154389
-0.014212
-0.0130627
-0.0135847
-0.00763774
-0.432869
-0.397159
-0.356713
-0.312106
-0.26468
-0.217141
-0.172026
-0.13162
-0.098236
-0.0720513
-0.0539122
-0.0436797
-0.0398594
-0.0401517
-0.0383335
-0.0376671
-0.0372552
-0.0391088
-0.044477
-0.0539096
-0.0679501
-0.0883578
-0.117545
-0.15501
-0.193606
-0.220159
-0.222764
-0.200206
-0.163232
-0.12515
-0.0936001
-0.0703333
-0.0543057
-0.043966
-0.0384204
-0.0387187
-0.0439785
-0.0492598
-0.0493914
-0.0456909
-0.0429543
-0.0444568
-0.0499741
-0.0616178
-0.0817657
-0.101513
-0.109827
-0.0981947
-0.0763004
-0.056429
-0.0391971
-0.0294064
-0.0192331
-0.0147474
-0.0115819
-0.0117413
-0.0121292
-0.0121843
-0.0144169
-0.00854812
-0.415356
-0.380106
-0.342814
-0.301218
-0.255683
-0.20907
-0.163815
-0.121731
-0.0845286
-0.053422
-0.0295183
-0.0133357
-0.00453301
-0.00186384
-0.00252982
-0.00408055
-0.00753754
-0.0131487
-0.0216764
-0.033649
-0.049824
-0.0721345
-0.102963
-0.141777
-0.181735
-0.210009
-0.214746
-0.194428
-0.159352
-0.122501
-0.0914026
-0.067938
-0.0512631
-0.039969
-0.0330122
-0.031234
-0.0343284
-0.0385795
-0.0392525
-0.0369077
-0.0360172
-0.0393524
-0.0467256
-0.060201
-0.0824663
-0.103978
-0.113534
-0.101769
-0.0783978
-0.0569198
-0.0383916
-0.0278011
-0.0166119
-0.0114651
-0.0076244
-0.00813513
-0.0100688
-0.011286
-0.0151943
-0.00943898
-0.392378
-0.358669
-0.326149
-0.289412
-0.247863
-0.20446
-0.161381
-0.119986
-0.0816513
-0.0476924
-0.0192933
0.0026075
0.0174421
0.0252772
0.0273705
0.0255083
0.0205203
0.0127792
0.00208699
-0.0118933
-0.029936
-0.0539113
-0.0859789
-0.125574
-0.166359
-0.196022
-0.203026
-0.185625
-0.153394
-0.118639
-0.0886158
-0.0653736
-0.0483667
-0.0363999
-0.028357
-0.0248645
-0.0260138
-0.0292122
-0.030018
-0.0287853
-0.0292919
-0.0340059
-0.0428618
-0.0578068
-0.0818493
-0.104956
-0.11582
-0.104331
-0.0799245
-0.057093
-0.0374573
-0.0262151
-0.0142075
-0.00843686
-0.00391557
-0.00464034
-0.00804497
-0.0103696
-0.0159033
-0.0103016
-0.366958
-0.335984
-0.30888
-0.277496
-0.240889
-0.202056
-0.162702
-0.123745
-0.086331
-0.0516801
-0.0209098
0.00502811
0.0252843
0.0390965
0.0463278
0.0475366
0.0438903
0.0361766
0.0247447
0.00957407
-0.00988883
-0.0351735
-0.0680429
-0.107839
-0.148705
-0.179254
-0.188439
-0.174397
-0.145759
-0.113836
-0.0854487
-0.0628153
-0.0457564
-0.0333634
-0.0245163
-0.0196529
-0.0190899
-0.0212242
-0.0220037
-0.021483
-0.0229464
-0.028569
-0.0384581
-0.0544493
-0.0799395
-0.104427
-0.11664
-0.105855
-0.0808984
-0.0570068
-0.0364331
-0.0246732
-0.0120491
-0.00567361
-0.000479115
-0.00126783
-0.00607048
-0.00943643
-0.0165309
-0.0111282
-0.342255
-0.315227
-0.293164
-0.266411
-0.234678
-0.200787
-0.165707
-0.130012
-0.0947514
-0.0609043
-0.0295422
-0.00167528
0.0218452
0.0403061
0.0528683
0.0593283
0.0593858
0.0541062
0.0437304
0.0285444
0.00845966
-0.0174321
-0.0503348
-0.0895265
-0.12976
-0.16073
-0.171801
-0.161552
-0.137167
-0.108703
-0.0824325
-0.0607195
-0.0437924
-0.0311209
-0.0216502
-0.015662
-0.0135889
-0.0146732
-0.0152943
-0.0150986
-0.0171113
-0.0231493
-0.0336762
-0.0503261
-0.0767804
-0.1024
-0.116014
-0.106332
-0.0813611
-0.0567587
-0.0353908
-0.0231821
-0.0101549
-0.00323156
0.00263525
0.00198422
-0.0041575
-0.00848735
-0.0170642
-0.0119104
-0.320728
-0.299076
-0.281072
-0.257752
-0.230423
-0.20128
-0.170407
-0.138193
-0.105571
-0.07328
-0.0422133
-0.0132983
0.0125366
0.034258
0.0509442
0.0620722
0.0658937
0.0646871
0.0573405
0.0437442
0.0241407
-0.00158562
-0.0339787
-0.0721364
-0.110926
-0.141058
-0.153864
-0.147202
-0.12754
-0.103126
-0.0794261
-0.0589308
-0.0422895
-0.029453
-0.0195246
-0.0126182
-0.00919584
-0.00931941
-0.00985573
-0.00975055
-0.0120278
-0.0179425
-0.028487
-0.0453103
-0.0725934
-0.0991861
-0.113944
-0.105538
-0.0811223
-0.0562154
-0.0342608
-0.0216443
-0.00835246
-0.00107363
0.00532572
0.00510816
-0.00231127
-0.00752008
-0.0174948
-0.0126347
-0.301117
-0.286985
-0.271526
-0.250354
-0.226946
-0.202297
-0.175655
-0.147113
-0.117465
-0.087541
-0.0581708
-0.0301722
-0.00424932
0.0188271
0.0386193
0.0533915
0.0633701
0.0661667
0.0627281
0.0524874
0.0353238
0.0116252
-0.0185341
-0.0539106
-0.0899908
-0.118347
-0.131646
-0.128703
-0.114184
-0.0941902
-0.0735077
-0.0548031
-0.0390214
-0.026519
-0.0166385
-0.00933947
-0.00494904
-0.00426961
-0.00484872
-0.00538207
-0.007565
-0.0132554
-0.0235713
-0.0400503
-0.0673913
-0.0944168
-0.110492
-0.103096
-0.07963
-0.0547103
-0.0325619
-0.019817
-0.00627201
0.00114091
0.0078238
0.00809273
-0.000571508
-0.00654126
-0.0178034
-0.0133012
-0.274049
-0.274203
-0.257935
-0.235801
-0.213219
-0.190265
-0.165793
-0.139567
-0.112173
-0.0843838
-0.0569245
-0.0304907
-0.00570185
0.0168752
0.036473
0.0514668
0.0616768
0.0666149
0.0656675
0.0576279
0.042071
0.0194422
-0.00998891
-0.0450225
-0.0805576
-0.108172
-0.1195
-0.115639
-0.101986
-0.0838081
-0.0651613
-0.0482399
-0.0337655
-0.0221048
-0.012714
-0.00555652
-0.00078793
0.000526311
0.000335972
1.96076e-05
-0.00176949
-0.00674563
-0.0165513
-0.0330208
-0.0615759
-0.0905724
-0.108719
-0.101974
-0.077713
-0.0523757
-0.0302445
-0.0178181
-0.00405369
0.00343001
0.0107449
0.0111933
0.00118724
-0.00552575
-0.0180111
-0.0139386
-0.247936
-0.251832
-0.237183
-0.215774
-0.194527
-0.173845
-0.152212
-0.128964
-0.104495
-0.0795514
-0.0548066
-0.0308507
-0.00825972
0.0124381
0.0305726
0.0450352
0.0553972
0.0609936
0.0610174
0.0543846
0.0405837
0.019932
-0.00715065
-0.0390114
-0.0703412
-0.0925536
-0.102412
-0.0990006
-0.0875055
-0.0723038
-0.0564786
-0.0417977
-0.0288687
-0.0181854
-0.0094174
-0.00253195
0.00236643
0.00400232
0.00393548
0.00342973
0.00189833
-0.00223075
-0.011245
-0.0272485
-0.0562321
-0.0861646
-0.104723
-0.0982518
-0.0742419
-0.0493737
-0.0277123
-0.015597
-0.00193431
0.00528199
0.0131209
0.0135337
0.00265821
-0.00467932
-0.0180491
-0.0143645
-0.224682
-0.22881
-0.216662
-0.197497
-0.178168
-0.159658
-0.140571
-0.120034
-0.0982555
-0.0759183
-0.0536702
-0.0320517
-0.0115715
0.00730527
0.0240078
0.0375799
0.0473758
0.0527924
0.0531067
0.0474266
0.0353153
0.0171166
-0.00639065
-0.0331537
-0.0586062
-0.0768755
-0.0850396
-0.082852
-0.0740331
-0.061801
-0.0485399
-0.0358353
-0.0242977
-0.0145051
-0.00631392
0.000238607
0.00513783
0.0070395
0.00713106
0.00662201
0.00516666
0.00134949
-0.00729601
-0.0229643
-0.051434
-0.0805713
-0.0987501
-0.093088
-0.0699913
-0.0459759
-0.0249795
-0.0132585
0.000168911
0.00707164
0.0152777
0.0154964
0.00393645
-0.00392473
-0.0178714
-0.0146141
-0.202703
-0.206919
-0.19722
-0.180622
-0.163311
-0.146724
-0.129842
-0.111761
-0.0925099
-0.072656
-0.0528003
-0.0334327
-0.0149865
0.00209784
0.0172213
0.0296603
0.0387884
0.0440222
0.0447294
0.0402088
0.0301462
0.0149548
-0.00439708
-0.0260406
-0.0465958
-0.0617207
-0.0688676
-0.0680373
-0.0615793
-0.0519156
-0.040946
-0.0300776
-0.019894
-0.0109976
-0.00339523
0.00277021
0.00757949
0.00971698
0.0100769
0.00968686
0.00836873
0.00483203
-0.00355644
-0.0187013
-0.0458539
-0.0737067
-0.0915846
-0.0867868
-0.0649541
-0.0421154
-0.0220426
-0.0107996
0.00227376
0.00880525
0.0172231
0.017276
0.00514081
-0.00313904
-0.0174649
-0.0146931
-0.182101
-0.186686
-0.178974
-0.164722
-0.149421
-0.134681
-0.119823
-0.104006
-0.0871291
-0.0696263
-0.0520359
-0.0348093
-0.0183442
-0.00305857
0.0105233
0.0218293
0.0303004
0.0354069
0.0366156
0.0334094
0.0255755
0.0134915
-0.00195955
-0.0192263
-0.0357139
-0.0481759
-0.0545857
-0.0548054
-0.0503116
-0.0428593
-0.0339065
-0.0246822
-0.0157552
-0.00772489
-0.00069396
0.00506772
0.00971728
0.0120365
0.0127015
0.0125187
0.0114502
0.00836043
0.000489261
-0.0136477
-0.0391749
-0.0658229
-0.0832005
-0.0792738
-0.0591097
-0.0378236
-0.0189311
-0.00825097
0.00437284
0.0104646
0.018898
0.0188834
0.00632037
-0.00227779
-0.0168124
-0.0145664
-0.163582
-0.168108
-0.161895
-0.149738
-0.136399
-0.123465
-0.110491
-0.0967465
-0.0820596
-0.0667505
-0.0512875
-0.0360876
-0.0215139
-0.00793963
0.0042015
0.0144292
0.0222568
0.027225
0.028902
0.0269158
0.0211226
0.0118276
-0.00021198
-0.0137045
-0.0266735
-0.0368107
-0.042492
-0.043415
-0.0404257
-0.0347477
-0.0274837
-0.0196891
-0.0119065
-0.00470757
0.00176833
0.00713156
0.0115685
0.0140092
0.0149865
0.0151271
0.0144059
0.0119115
0.00486507
-0.00794182
-0.0317199
-0.0569851
-0.0736289
-0.0706551
-0.0525339
-0.0331518
-0.01568
-0.00564437
0.00645015
0.0120418
0.0202639
0.0202676
0.00747089
-0.0013349
-0.0158629
-0.0141891
-0.146717
-0.15092
-0.145968
-0.135711
-0.124227
-0.113007
-0.101775
-0.0899128
-0.0772239
-0.0639391
-0.0504545
-0.0371451
-0.0243376
-0.0123623
-0.0015632
0.00763627
0.0148243
0.0196158
0.0216664
0.0207083
0.0166557
0.00976507
0.000663186
-0.00962631
-0.019593
-0.027717
-0.0326098
-0.033869
-0.031918
-0.0275965
-0.0217151
-0.0151457
-0.00838462
-0.00196918
0.00396918
0.00895893
0.0131562
0.0156677
0.0169434
0.0175053
0.0172339
0.0154296
0.00938276
-0.00193653
-0.0236925
-0.047316
-0.0631073
-0.0611427
-0.045355
-0.0281751
-0.0123343
-0.00301461
0.0084855
0.0135421
0.021296
0.0213838
0.0086001
-0.000274272
-0.0145505
-0.0135156
-0.131043
-0.135088
-0.131255
-0.122676
-0.112875
-0.103236
-0.0935949
-0.0834348
-0.0725537
-0.0611153
-0.0494474
-0.0378773
-0.0267002
-0.0162228
-0.00666086
0.00156607
0.00812986
0.0127147
0.0150489
0.0149399
0.0123431
0.00747083
0.000804229
-0.00685323
-0.0143142
-0.0206907
-0.0247206
-0.0260085
-0.0247158
-0.0213951
-0.0166183
-0.0110803
-0.00521367
0.000479192
0.00589684
0.0105442
0.0145048
0.0170479
0.018586
0.0196214
0.0198885
0.0188625
0.0139395
0.00424435
-0.015259
-0.0371271
-0.0519891
-0.0510378
-0.0377647
-0.0229947
-0.00894654
-0.000396215
0.0104547
0.0149834
0.0219918
0.0222278
0.00976124
0.00097403
-0.0128156
-0.0125014
-0.116756
-0.120649
-0.117721
-0.110585
-0.102287
-0.0940822
-0.0858815
-0.0772503
-0.0679928
-0.0582225
-0.0482057
-0.0382215
-0.0285211
-0.0193381
-0.010993
-0.00368892
0.00227444
0.00663209
0.00916783
0.00974082
0.0083261
0.00508958
0.000393171
-0.00515002
-0.0107864
-0.0154144
-0.0185308
-0.0196358
-0.0187137
-0.0161016
-0.012186
-0.00750301
-0.00240902
0.00263254
0.00755009
0.0118775
0.0156252
0.0181824
0.0199375
0.0214346
0.0223171
0.0221935
0.0185644
0.0105225
-0.00677726
-0.0268914
-0.0407216
-0.0407221
-0.0300094
-0.0177358
-0.00557351
0.0021777
0.0123295
0.0163952
0.0223932
0.0228553
0.011047
0.00249214
-0.0106168
-0.0111141
-0.103886
-0.107466
-0.105245
-0.0993652
-0.0924101
-0.0854958
-0.078586
-0.0713181
-0.0635077
-0.0552302
-0.0467002
-0.0381533
-0.0298043
-0.0218606
-0.0145566
-0.00809064
-0.00269464
0.00141789
0.00407443
0.00516889
0.00468671
0.0027574
-0.000342487
-0.00416051
-0.00812725
-0.0114668
-0.0137351
-0.0145403
-0.0137842
-0.011653
-0.00839433
-0.00440979
2.35432e-05
0.00449024
0.00893689
0.0129562
0.0165123
0.0190873
0.0210269
0.0229182
0.0245876
0.0253483
0.0231338
0.0165829
0.00121736
-0.0171382
-0.0297714
-0.0306021
-0.0223676
-0.0125413
-0.00227477
0.00467537
0.0140798
0.0178107
0.0226042
0.023382
0.0125704
0.00435753
-0.00794709
-0.00935065
-0.0921077
-0.0953709
-0.0937754
-0.0889957
-0.0832201
-0.0774446
-0.0716755
-0.0656106
-0.0590781
-0.0521234
-0.0449173
-0.0376565
-0.0305252
-0.0236905
-0.0173359
-0.0116347
-0.00677356
-0.0029225
-0.000218504
0.00125762
0.0014946
0.000588446
-0.00124516
-0.0036731
-0.00629045
-0.00854942
-0.0100622
-0.0105197
-0.0097946
-0.00797462
-0.00520699
-0.001784
0.00208873
0.0060555
0.0100687
0.0137891
0.0171615
0.0197532
0.0218578
0.0240538
0.0262212
0.0279823
0.0271019
0.0217965
0.0081903
-0.0082602
-0.0195442
-0.0210694
-0.0151225
-0.00756414
0.000887886
0.00706338
0.0156775
0.0192459
0.02279
0.0239684
0.0144414
0.00661499
-0.00485953
-0.00725995
-0.0813668
-0.0844358
-0.0833138
-0.0794439
-0.0746769
-0.0698937
-0.0651227
-0.0601086
-0.0546927
-0.0488982
-0.0428588
-0.0367405
-0.0306973
-0.024846
-0.0193457
-0.014342
-0.00998529
-0.00640823
-0.00371949
-0.00198374
-0.00121077
-0.001333
-0.00219028
-0.00352812
-0.00506455
-0.00642593
-0.00728475
-0.00738998
-0.00661419
-0.00498383
-0.00257712
0.000400257
0.00380105
0.00733605
0.010957
0.0143897
0.0175776
0.0201702
0.0224047
0.024833
0.0273055
0.0297116
0.0297784
0.0255103
0.01378
-0.00049118
-0.0103881
-0.0124875
-0.00853323
-0.00295047
0.00385226
0.00930261
0.0170971
0.0206757
0.0231481
0.0247771
0.0167175
0.0092286
-0.00149991
-0.00496229
-0.0716584
-0.0744778
-0.0737636
-0.0706526
-0.0667423
-0.0628151
-0.058908
-0.0548022
-0.050352
-0.0455648
-0.0405468
-0.0354354
-0.0303202
-0.0253487
-0.0206212
-0.0162575
-0.0123756
-0.00908151
-0.00646219
-0.00457119
-0.00341855
-0.00295461
-0.00306682
-0.00358339
-0.00428209
-0.004909
-0.00521059
-0.00498692
-0.00411837
-0.00259504
-0.000450636
0.00217586
0.00518269
0.0083447
0.0116141
0.0147732
0.0177695
0.0203363
0.0226426
0.025182
0.0277411
0.030313
0.0308537
0.02748
0.0178298
0.00593532
-0.0026238
-0.00513854
-0.00278809
0.00118313
0.00656108
0.0113483
0.018313
0.022022
0.0238419
0.0258966
0.0193315
0.0120324
0.00188318
-0.00264775
-0.0628788
-0.0654248
-0.065014
-0.0625637
-0.0594038
-0.0562035
-0.0530253
-0.0496908
-0.0460661
-0.0421426
-0.0379976
-0.0337297
-0.0294632
-0.0252655
-0.0212286
-0.0174456
-0.014009
-0.0110033
-0.00849805
-0.00653781
-0.005136
-0.00425821
-0.00382551
-0.00372029
-0.00378642
-0.00383424
-0.0036796
-0.00316693
-0.00219137
-0.000723198
0.00123082
0.00358122
0.00626071
0.00910007
0.0120542
0.014954
0.0177519
0.0202561
0.0225652
0.0250254
0.0275366
0.0299122
0.0305711
0.027945
0.0203586
0.0108118
0.00355269
0.000849443
0.00202754
0.0047676
0.0089684
0.013158
0.0193012
0.0231581
0.0248914
0.0272661
0.0220458
0.0147206
0.00496694
-0.000543266
-0.054897
-0.0572014
-0.0570351
-0.0551296
-0.0525972
-0.0500213
-0.0474656
-0.0447838
-0.0418568
-0.0386675
-0.0352743
-0.0317594
-0.0282042
-0.0246776
-0.0212481
-0.0179866
-0.0149642
-0.0122468
-0.00989026
-0.00793151
-0.00638576
-0.00523211
-0.00442015
-0.00386581
-0.00346061
-0.00306839
-0.00255658
-0.00180525
-0.000727801
0.000713644
0.00252697
0.00465876
0.00706532
0.00962451
0.0122955
0.0149498
0.0175441
0.0199434
0.0221928
0.0245092
0.026799
0.0288093
0.0294
0.0273638
0.0215835
0.01416
0.00818019
0.00552132
0.00592574
0.00778192
0.0110423
0.0146975
0.0200493
0.0239597
0.0260778
0.0286187
0.0244714
0.016924
0.00745155
0.00116273
-0.0476735
-0.0497581
-0.0497756
-0.0483135
-0.046304
-0.044251
-0.0422184
-0.0400849
-0.037745
-0.0351763
-0.0324202
-0.029541
-0.0266017
-0.0236574
-0.0207608
-0.0179653
-0.0153256
-0.0128922
-0.0107091
-0.00880797
-0.00720506
-0.00588819
-0.0048274
-0.0039638
-0.00322302
-0.00251023
-0.00173135
-0.000795219
0.000366379
0.00179242
0.00349718
0.0054521
0.00762911
0.00994345
0.0123596
0.0147805
0.0171678
0.019422
0.021556
0.0236739
0.0256746
0.0272949
0.0277543
0.02618
0.0218706
0.0162444
0.0114694
0.00903337
0.00898019
0.0102395
0.0127637
0.0159388
0.0205511
0.0243721
0.0269924
0.0294952
0.0261499
0.0183613
0.00917567
0.00238638
-0.0411605
-0.0430266
-0.0431729
-0.0420697
-0.0404936
-0.0388754
-0.0372771
-0.0355988
-0.0337476
-0.0316979
-0.0294779
-0.0271371
-0.0247241
-0.0222818
-0.0198502
-0.0174695
-0.015181
-0.0130221
-0.0110291
-0.00923143
-0.00763644
-0.00624439
-0.00503635
-0.0039755
-0.00301235
-0.00208043
-0.00111469
-4.7109e-05
0.00117366
0.00258368
0.00419833
0.00600498
0.00798607
0.0100845
0.0122702
0.014469
0.0166487
0.0187304
0.0207063
0.0225968
0.0243052
0.0255865
0.0259245
0.0247232
0.0215703
0.0173942
0.0136898
0.0115862
0.0112952
0.0121717
0.0141247
0.0168614
0.0207898
0.0243728
0.0272608
0.0294683
0.0267222
0.0189429
0.0101497
0.0031505
-0.0352751
-0.036935
-0.0371722
-0.036359
-0.0351393
-0.0338794
-0.0326384
-0.0313342
-0.0298858
-0.0282663
-0.0264939
-0.0246057
-0.0226392
-0.020627
-0.0185991
-0.0165854
-0.0146158
-0.0127201
-0.0109314
-0.00925739
-0.00772257
-0.00632155
-0.00504907
-0.00388124
-0.00278648
-0.00171927
-0.000635977
0.000513127
0.00176503
0.00315066
0.00468347
0.00636063
0.00817079
0.0100761
0.0120522
0.0140418
0.0160171
0.0179115
0.0197046
0.0213645
0.0228114
0.0238292
0.024087
0.0231957
0.0209308
0.0178888
0.0150935
0.0133721
0.0129818
0.0136182
0.0151297
0.0174582
0.0207475
0.0239504
0.0267155
0.0283969
0.0261357
0.018755
0.0104884
0.0035294
-0.0299557
-0.031429
-0.0317279
-0.0311459
-0.0302158
-0.0292484
-0.0282983
-0.0272988
-0.0261796
-0.0249137
-0.0235119
-0.0220016
-0.0204113
-0.0187655
-0.0170862
-0.0153951
-0.0137145
-0.012067
-0.0104707
-0.00894965
-0.0075081
-0.00615087
-0.00487705
-0.00367207
-0.00251749
-0.00138303
-0.000240533
0.000945444
0.00220022
0.0035488
0.00500145
0.00656033
0.00821726
0.00994789
0.0117323
0.0135257
0.0153038
0.0170069
0.0186125
0.0200597
0.0212863
0.0221134
0.0223344
0.0217027
0.0201117
0.0179438
0.0158842
0.0145416
0.0141408
0.0146248
0.0157951
0.0177367
0.0204208
0.0231494
0.0254671
0.0265271
0.0246257
0.0179633
0.0103385
0.00361165
-0.0251593
-0.0264604
-0.026795
-0.0263944
-0.0256978
-0.0249671
-0.0242522
-0.0234987
-0.0226461
-0.0216685
-0.0205715
-0.0193748
-0.0180996
-0.0167642
-0.0153844
-0.0139755
-0.0125552
-0.0111413
-0.0097391
-0.00837086
-0.00704529
-0.0057673
-0.00453765
-0.00334816
-0.00218918
-0.00104127
0.000112681
0.00129721
0.00252854
0.00382578
0.00519567
0.00664223
0.00815883
0.00972946
0.0113377
0.0129477
0.0145394
0.0160584
0.0174845
0.018744
0.0197937
0.0204895
0.0207067
0.0202928
0.0192095
0.0177055
0.0162224
0.0152223
0.0148631
0.0152434
0.0161457
0.0177202
0.0198341
0.0220441
0.0237719
0.0242383
0.0225489
0.0167533
0.00984716
0.00349012
-0.0208373
-0.0219792
-0.0223301
-0.0220707
-0.0215612
-0.0210209
-0.0204945
-0.0199379
-0.0192997
-0.0185555
-0.0177073
-0.0167691
-0.0157565
-0.0146824
-0.013558
-0.0123939
-0.0112019
-0.00999318
-0.00878274
-0.00757502
-0.00638086
-0.00520575
-0.00405228
-0.00291655
-0.00179451
-0.000674399
0.000453254
0.00160477
0.00278957
0.00402149
0.00530394
0.00664078
0.00802629
0.00944896
0.0108949
0.0123357
0.0137545
0.0151024
0.0163627
0.0174622
0.0183735
0.0189814
0.0192159
0.018983
0.0182775
0.0172705
0.0162336
0.0155239
0.0152289
0.0155286
0.0162138
0.0174455
0.0190314
0.0206105
0.0218294
0.0218305
0.0202333
0.0153004
0.00914658
0.00324951
-0.0169441
-0.0179417
-0.0182952
-0.0181446
-0.0177837
-0.0173953
-0.0170187
-0.0166186
-0.0161513
-0.0155948
-0.0149485
-0.0142222
-0.0134271
-0.0125722
-0.0116652
-0.010713
-0.00972403
-0.00870644
-0.00766925
-0.00661776
-0.0055601
-0.00450132
-0.00344484
-0.00238915
-0.00133357
-0.00027156
0.000801156
0.00189488
0.0030142
0.00416836
0.00535814
0.00658633
0.00784722
0.00913209
0.0104294
0.011715
0.0129755
0.0141683
0.01528
0.0162457
0.0170489
0.0175995
0.0178596
0.0177726
0.0173465
0.0167064
0.0160091
0.0155311
0.0153043
0.0155351
0.016039
0.0169592
0.0180893
0.01917
0.0198799
0.0194906
0.0179128
0.0137491
0.00834014
0.00295322
-0.0134426
-0.0143102
-0.0146561
-0.0145879
-0.0143441
-0.014076
-0.0138176
-0.0135408
-0.0132089
-0.0128023
-0.0123188
-0.0117651
-0.0111492
-0.0104771
-0.00975389
-0.00898386
-0.00817239
-0.00732537
-0.00644853
-0.00554645
-0.00462483
-0.00368814
-0.00274026
-0.00178113
-0.000811693
0.000171197
0.00116848
0.00218609
0.00322538
0.00429191
0.00538443
0.00650431
0.00764586
0.00880163
0.00996217
0.0111069
0.0122243
0.0132784
0.0142594
0.015113
0.0158316
0.0163433
0.0166283
0.0166555
0.0164342
0.0160589
0.0156137
0.0153121
0.0151454
0.0153143
0.0156633
0.0163078
0.0170532
0.0176981
0.017994
0.017319
0.0157306
0.0122056
0.00749976
0.00264184
-0.0102993
-0.0110498
-0.0113808
-0.0113742
-0.0112222
-0.0110486
-0.0108829
-0.0107025
-0.010477
-0.0101894
-0.00983648
-0.00942271
-0.00895362
-0.0084332
-0.0078643
-0.00724937
-0.0065914
-0.00589434
-0.00516463
-0.00440275
-0.00361267
-0.00279827
-0.00196363
-0.00110966
-0.000238023
0.00065251
0.00156089
0.00249004
0.00343917
0.00441107
0.00540327
0.00641546
0.00744227
0.00847699
0.00951107
0.010528
0.0115179
0.0124495
0.0133158
0.0140727
0.0147246
0.0152064
0.015511
0.0156231
0.0155482
0.01536
0.0150965
0.0149243
0.0148008
0.0149123
0.0151294
0.0155346
0.015965
0.0162467
0.0162197
0.0153577
0.0137589
0.0107416
0.00667283
0.00233863
-0.00748319
-0.00812939
-0.00844104
-0.00847981
-0.00839903
-0.00829936
-0.00820566
-0.00810014
-0.00795787
-0.00776407
-0.00751539
-0.00721449
-0.00686512
-0.00646984
-0.00603005
-0.005547
-0.00502224
-0.00445799
-0.00385776
-0.00322361
-0.00255746
-0.00186151
-0.00113949
-0.000393093
0.000375666
0.001167
0.00197899
0.00281255
0.00366561
0.00453905
0.00542956
0.00633578
0.00725238