/*--------------------------------*- C++ -*----------------------------------*\
| =========                 |                                                 |
| \\      /  F ield         | OpenFOAM: The Open Source CFD Toolbox           |
|  \\    /   O peration     | Version:  2512                                  |
|   \\  /    A nd           | Website:  www.openfoam.com                      |
|    \\/     M anipulation  |                                                 |
\*---------------------------------------------------------------------------*/
FoamFile
{
    version     2.0;
    format      ascii;
    arch        "LSB;label=32;scalar=64";
    class       surfaceScalarField;
    location    "178.25";
    object      phi;
}
// * * * * * * * * * * * * * * * * * * * * * * * * * * * * * * * * * * * * * //

dimensions      [0 3 -1 0 0 0 0];

oriented        oriented;

internalField   nonuniform List<scalar> 
26232
(
0.000104252
0.00102339
-0.00112764
0.000684239
0.001778
-0.00235799
0.00194912
0.00137205
-0.00263694
0.00407952
-0.000171625
-0.00195877
0.00724531
-0.00285093
-0.000314871
0.0116051
-0.00666616
0.00230635
0.0172927
-0.0116027
0.00591504
0.0243935
-0.0176115
0.0105108
0.0329157
-0.0245928
0.0160706
0.0427656
-0.0323857
0.0225358
0.0537339
-0.0407696
0.0298013
0.0655003
-0.0494777
0.0377113
0.0776578
-0.0582194
0.0460619
0.089753
-0.0667086
0.0546134
0.101338
-0.0746932
0.0631079
0.112024
-0.0819794
0.0712933
0.121526
-0.0884486
0.0789466
0.129693
-0.0940641
0.0858978
0.136514
-0.0988626
0.0920414
0.142097
-0.102944
0.0973608
0.146633
-0.106409
0.101873
0.150285
-0.109455
0.105804
0.15299
-0.111827
0.109122
-0.114474
0.112745
0.154719
0.000147427
0.000875965
0.000886775
0.00103866
0.00246628
-0.000207447
0.00510376
-0.00280911
0.00899307
-0.00674024
0.0142897
-0.0119628
0.0210827
-0.0183957
0.0293627
-0.0258915
0.0389951
-0.0342252
0.0497123
-0.0431029
0.0611294
-0.0521868
0.0727838
-0.0611321
0.0841915
-0.069627
0.0949091
-0.0774263
0.10459
-0.0843739
0.113022
-0.0904114
0.120143
-0.0955702
0.126031
-0.0999513
0.130865
-0.103697
0.13488
-0.106959
0.138342
-0.109872
0.141446
-0.112559
0.144622
-0.115003
-0.117703
0.147851
0.000227342
0.000648623
0.00121374
5.22592e-05
0.00323135
-0.00222506
0.00651572
-0.00609348
0.0112534
-0.0114779
0.01755
-0.0182593
0.025391
-0.0262368
0.0346134
-0.0351138
0.0449005
-0.0445123
0.0558108
-0.0540132
0.0668348
-0.0632108
0.0774679
-0.0717653
0.0872821
-0.0794413
0.0959809
-0.086125
0.103426
-0.0918195
0.109637
-0.0966215
0.114753
-0.100687
0.118994
-0.104193
0.122604
-0.107306
0.125809
-0.110164
0.128798
-0.112861
0.131713
-0.115474
0.134672
-0.117962
-0.120652
0.137621
0.000337519
0.000311104
0.00164223
-0.00125246
0.00419132
-0.00477415
0.00820791
-0.0101101
0.0138271
-0.0170971
0.0210482
-0.0254804
0.029698
-0.0348866
0.0394266
-0.0448425
0.0497467
-0.0548324
0.0601087
-0.0643752
0.0699908
-0.0730928
0.0789798
-0.0807543
0.0868231
-0.0872846
0.0934423
-0.0927442
0.0989113
-0.0972886
0.10341
-0.10112
0.107166
-0.104443
0.110408
-0.107435
0.113334
-0.110232
0.116094
-0.112925
0.118803
-0.11557
0.121536
-0.118207
0.124392
-0.120818
-0.123622
0.127361
0.00046989
-0.000158786
0.0021426
-0.00292517
0.00527484
-0.00790639
0.0100391
-0.0148743
0.016467
-0.023525
0.0243983
-0.0334117
0.0334692
-0.0439576
0.0431576
-0.0545308
0.0528751
-0.0645499
0.0620768
-0.0735769
0.0703527
-0.0813687
0.0774771
-0.0878787
0.0834107
-0.0932182
0.0882627
-0.0975962
0.0922322
-0.101258
0.0955481
-0.104436
0.098424
-0.107319
0.101033
-0.110045
0.103505
-0.112703
0.105928
-0.115348
0.108365
-0.118007
0.110857
-0.120698
0.113451
-0.123411
-0.126263
0.116092
0.000617728
-0.000776514
0.00268469
-0.00499213
0.00640599
-0.0116277
0.0118579
-0.0203262
0.0189175
-0.0305845
0.0272313
-0.0417255
0.0362557
-0.052982
0.0453632
-0.0636383
0.0539731
-0.0731599
0.0616591
-0.0812629
0.0682011
-0.0879107
0.0735781
-0.0932557
0.0779184
-0.0975585
0.0814314
-0.101109
0.0843449
-0.104171
0.0868618
-0.106953
0.0891413
-0.109598
0.0912965
-0.1122
0.0934036
-0.11481
0.095513
-0.117457
0.0976595
-0.120154
0.099867
-0.122906
0.102165
-0.12571
-0.128627
0.104529
0.000775188
-0.0015517
0.00323869
-0.00745563
0.00750659
-0.0158956
0.013512
-0.0263316
0.0209402
-0.0380128
0.0292468
-0.0500321
0.0377665
-0.0615018
0.0458679
-0.0717396
0.053083
-0.080375
0.0591711
-0.0873509
0.064108
-0.0928476
0.0680273
-0.097175
0.0711431
-0.100674
0.0736835
-0.10365
0.0758468
-0.106335
0.0777843
-0.10889
0.0796006
-0.111414
0.0813635
-0.113963
0.0831165
-0.116563
0.0848878
-0.119228
0.0866973
-0.121963
0.0885595
-0.124768
0.090491
-0.127641
-0.130604
0.0924685
0.000935532
-0.00248723
0.00377213
-0.0102922
0.00849585
-0.0206193
0.0148572
-0.032693
0.0223405
-0.045496
0.0302541
-0.0579457
0.0379022
-0.0691499
0.0447474
-0.0785849
0.0504972
-0.0861248
0.0551001
-0.0919538
0.0586806
-0.096428
0.0614533
-0.0999477
0.0636488
-0.10287
0.0654669
-0.105468
0.0670575
-0.107925
0.0685223
-0.110355
0.0699254
-0.112817
0.0713062
-0.115343
0.0726897
-0.117947
0.0740931
-0.120632
0.0755296
-0.1234
0.0770102
-0.126249
0.0785459
-0.129177
-0.132184
0.0801258
0.00109037
-0.0035776
0.00424935
-0.0134512
0.00929456
-0.0256645
0.015773
-0.0391714
0.0229932
-0.0527162
0.0301926
-0.0651451
0.0367374
-0.0756946
0.0422479
-0.0840953
0.0466153
-0.0904923
0.0499372
-0.0952757
0.0524223
-0.0989131
0.0543054
-0.101831
0.0557927
-0.104357
0.057039
-0.106714
0.058148
-0.109034
0.0591836
-0.111391
0.0601839
-0.113818
0.0611717
-0.116331
0.0621625
-0.118937
0.0631677
-0.121637
0.0641964
-0.124429
0.0652568
-0.127309
0.0663556
-0.130276
-0.133316
0.0674879
0.00122957
-0.00480717
0.00463389
-0.0168555
0.00983411
-0.0308648
0.0161787
-0.045516
0.0228564
-0.059394
0.0291193
-0.071408
0.0344633
-0.0810386
0.0386849
-0.0883169
0.0418291
-0.0936365
0.0440869
-0.0975335
0.0456959
-0.100522
0.0468729
-0.103008
0.0477834
-0.105268
0.0485382
-0.107469
0.0492047
-0.109701
0.0498218
-0.112008
0.0504119
-0.114408
0.0509893
-0.116909
0.0515643
-0.119512
0.0521452
-0.122218
0.052739
-0.125022
0.0533522
-0.127922
0.0539897
-0.130913
-0.13398
0.0546531
0.00134298
-0.00615015
0.00489436
-0.0204069
0.0100671
-0.0360375
0.016043
-0.0514918
0.0219647
-0.0653156
0.0271713
-0.0766146
0.0313205
-0.0851877
0.0343681
-0.0913646
0.0364665
-0.0957349
0.0378492
-0.0989162
0.0387454
-0.101418
0.0393363
-0.103599
0.0397451
-0.105677
0.040047
-0.107771
0.0402842
-0.109938
0.04048
-0.112204
0.0406484
-0.114576
0.0407989
-0.117059
0.0409391
-0.119653
0.0410752
-0.122354
0.0412128
-0.12516
0.0413562
-0.128066
0.0415079
-0.131065
-0.134143
0.0416713
0.00142476
-0.00757491
0.00501213
-0.0239943
0.00997529
-0.0410007
0.0153844
-0.056901
0.0204109
-0.0703421
0.0245283
-0.080732
0.0275547
-0.0882142
0.0295694
-0.0933793
0.030785
-0.0969505
0.03144
-0.0995712
0.0317352
-0.101714
0.0318122
-0.103676
0.0317583
-0.105623
0.0316225
-0.107635
0.0314309
-0.109747
0.0311978
-0.11197
0.0309322
-0.114311
0.0306409
-0.116768
0.0303301
-0.119342
0.0300049
-0.122029
0.0296703
-0.124825
0.0293299
-0.127725
0.0289848
-0.13072
0.0286407
-0.133799
-0.000183588
0.00294721
-0.00276362
-0.000693831
0.00703159
-0.00652135
-0.00150082
0.00983334
-0.00902635
-0.00256728
0.0116233
-0.0105569
-0.00385221
0.0126478
-0.0113629
-0.005316
0.0131226
-0.0116588
-0.00692353
0.013217
-0.0116094
-0.00864491
0.0130443
-0.011323
-0.0104547
0.0126637
-0.0108538
-0.0123307
0.012088
-0.010212
-0.0142518
0.0112959
-0.00937485
-0.0161966
0.0102443
-0.0082995
-0.0181419
0.00887797
-0.00693266
-0.0200616
0.00713692
-0.00521719
-0.0219305
0.00495981
-0.00309092
-0.0237223
0.00229201
-0.000500227
-0.0253667
-0.000888831
0.00253321
-0.0268483
-0.00463286
0.00611446
-0.0281198
-0.00895282
0.0102244
-0.0291373
-0.0138323
0.0148498
-0.0298618
-0.0192262
0.0199507
-0.0302655
-0.025056
0.0254598
-0.0303491
-0.0312035
0.031287
-0.0374463
-0.0301957
0.0372929
-8.09491e-05
0.00302815
-0.00036661
0.00731725
-0.000875555
0.0103423
-0.00159964
0.0123474
-0.00251197
0.0135601
-0.0035761
0.0141868
-0.004753
0.0143939
-0.00600533
0.0142967
-0.0072995
0.0139579
-0.00860605
0.0133945
-0.00989888
0.0125887
-0.0111539
0.0114993
-0.0123476
0.0100717
-0.013456
0.0082453
-0.0144557
0.00595952
-0.0153163
0.00315259
-0.0160026
-0.000202547
-0.0164918
-0.00414358
-0.0167498
-0.00869489
-0.016747
-0.0138351
-0.0164603
-0.0195129
-0.0158809
-0.0256354
-0.0150303
-0.0320541
-0.0385775
-0.0138991
2.88052e-05
0.00299935
-6.81409e-06
0.00735287
-0.000171255
0.0105067
-0.00048386
0.01266
-0.000932757
0.014009
-0.00148609
0.0147401
-0.00210181
0.0150096
-0.00273513
0.01493
-0.00334304
0.0145658
-0.00388672
0.0139382
-0.00433188
0.0130339
-0.00464797
0.0118154
-0.00480729
0.010231
-0.00478312
0.00822114
-0.00454951
0.00572592
-0.00408507
0.00268815
-0.00335752
-0.000930092
-0.00233593
-0.00516517
-0.00100142
-0.0100294
0.000666825
-0.0155034
0.0026874
-0.0215335
0.00507079
-0.0280188
0.00781195
-0.0347953
-0.0415825
0.010817
0.000132099
0.00286725
0.000344831
0.00714014
0.000538891
0.0103127
0.000670319
0.0125286
0.000736196
0.0139431
0.000761991
0.0147143
0.00079017
0.0149814
0.000870908
0.0148492
0.00105521
0.0143815
0.00139104
0.0136024
0.00192155
0.0125034
0.0026851
0.0110519
0.00371643
0.00919966
0.00504685
0.00689071
0.00670653
0.00406623
0.00872261
0.000672068
0.0111278
-0.00333527
0.0139489
-0.00798625
0.0172072
-0.0132877
0.0209182
-0.0192144
0.0250857
-0.0257011
0.0297021
-0.0326351
0.0347153
-0.0398084
-0.0470613
0.040194
0.000216658
0.00265059
0.000648536
0.00670826
0.00117607
0.00978513
0.00173923
0.0119654
0.00232255
0.0133598
0.00294373
0.0140931
0.00364257
0.0142826
0.00447091
0.0140209
0.00548491
0.0133675
0.0067398
0.0123475
0.00828715
0.010956
0.0101742
0.00916486
0.0124437
0.00693017
0.0151348
0.00419957
0.0182876
0.000913496
0.0219406
-0.00298102
0.0261274
-0.00752199
0.0308777
-0.0127365
0.0362116
-0.0186217
0.042134
-0.0251367
0.048625
-0.0321921
0.0556448
-0.0396549
0.0631096
-0.0472732
-0.0550137
0.071062
0.000272507
0.00237808
0.000869429
0.00611134
0.00166991
0.00898465
0.00260857
0.0110268
0.00366237
0.012306
0.00484196
0.0129135
0.00618255
0.012942
0.0077348
0.0124686
0.00955719
0.0115451
0.0117105
0.0101942
0.0142548
0.00841176
0.0172481
0.0061715
0.0207475
0.00343081
0.0247903
0.000156787
0.0294579
-0.0037541
0.0347786
-0.00830176
0.040796
-0.0135394
0.0475365
-0.019477
0.0550037
-0.0260889
0.0631695
-0.0333025
0.0719679
-0.0409905
0.0812839
-0.0489709
0.0909676
-0.0569569
-0.065027
0.100981
0.000294316
0.00208377
0.000986514
0.00541914
0.00197371
0.00799745
0.00319756
0.00980293
0.00463494
0.0108687
0.00629313
0.0112553
0.00820385
0.0110313
0.0104165
0.010256
0.0129917
0.00896981
0.0159967
0.00718917
0.0195011
0.00490737
0.0235775
0.00209514
0.0282964
-0.0012881
0.033744
-0.00529085
0.0399558
-0.00996584
0.0469986
-0.0153446
0.0549008
-0.0214415
0.0636583
-0.0282345
0.0732233
-0.035654
0.083492
-0.0435712
0.0943172
-0.0518156
0.105469
-0.0601226
0.116744
-0.068232
-0.0761756
0.127893
0.000282373
0.0018014
0.000997154
0.00470436
0.00207642
0.00691819
0.00348114
0.00839821
0.0051974
0.0091524
0.00723608
0.00921664
0.00963083
0.00863652
0.0124344
0.00745246
0.0157147
0.00568954
0.0195509
0.00335296
0.024022
0.000436293
0.0292298
-0.00311268
0.0352545
-0.0073128
0.0421756
-0.012212
0.0500479
-0.0178382
0.0588977
-0.0241944
0.0687028
-0.0312466
0.0793803
-0.038912
0.0907807
-0.0470544
0.102682
-0.0554728
0.114825
-0.0639579
0.126867
-0.0721647
0.1386
-0.0799655
-0.087104
0.149529
0.000243076
0.00155832
0.000919963
0.00402747
0.00201066
0.00582749
0.00350632
0.00690255
0.00541268
0.00724604
0.00775441
0.00687491
0.0105769
0.00581405
0.0139451
0.00408428
0.0179427
0.0016919
0.0226645
-0.00136888
0.0282196
-0.00511872
0.0346948
-0.00958794
0.0421806
-0.0147986
0.0507289
-0.0207603
0.0603448
-0.027454
0.0709701
-0.0348197
0.0824714
-0.042748
0.0946365
-0.0510771
0.107181
-0.0595987
0.119767
-0.0680586
0.132036
-0.0762273
0.143627
-0.0837553
0.154355
-0.0906939
-0.0964397
0.163691
0.000188833
0.00136949
0.000794729
0.00342158
0.00185367
0.00476855
0.00339605
0.00536017
0.00545815
0.00518394
0.00809065
0.00424241
0.0113635
0.00254124
0.0153604
8.73178e-05
0.0201928
-0.00314044
0.0259651
-0.00714121
0.0327804
-0.011934
0.0407138
-0.0175214
0.0497986
-0.0238833
0.0600027
-0.0309644
0.0712142
-0.0386655
0.0832338
-0.0468393
0.0957788
-0.0552929
0.1085
-0.0637987
0.121012
-0.07211
0.132937
-0.079984
0.143926
-0.0872163
0.153754
-0.0935834
0.162268
-0.0992072
-0.103429
0.169257
0.000136692
0.0012328
0.000677253
0.00288101
0.00171657
0.00372923
0.00333098
0.00374576
0.00559694
0.00291798
0.00860122
0.00123813
0.0124446
-0.00130213
0.017244
-0.00471206
0.0231044
-0.00900088
0.0301268
-0.0141636
0.0383684
-0.0201756
0.0478254
-0.0269784
0.0584127
-0.0344707
0.0699522
-0.0425039
0.0821722
-0.0508855
0.0947216
-0.0593887
0.107198
-0.0677693
0.119188
-0.0757886
0.130311
-0.0832334
0.140282
-0.0899544
0.148911
-0.0958457
0.156252
-0.100925
0.162264
-0.105219
-0.108408
0.167242
0.000105151
0.000628174
0.00172047
0.00350746
0.00611057
0.00965504
0.0142679
0.0200666
0.0271364
0.0355086
0.0451344
0.0558673
0.0674585
0.079568
0.0917905
0.103695
0.114872
0.124982
0.13379
0.141196
0.147223
0.152102
0.156005
0.160343
-0.0292286
-0.060587
0.0596199
-0.0279307
-0.0717386
0.0704407
-0.0261124
-0.0825296
0.0807113
-0.0235458
-0.092224
0.0896575
-0.0198615
-0.100107
0.0964227
-0.014607
-0.10524
0.099986
-0.00738267
-0.106467
0.0992429
0.00212196
-0.10259
0.0930853
0.0138181
-0.0925254
0.0808293
0.0268493
-0.0752528
0.0622216
0.0406665
-0.0513866
0.0375694
0.054749
-0.0218316
0.00774909
0.068668
0.0121522
-0.0260712
0.082208
0.0486153
-0.0621553
0.0948466
0.0841077
-0.0967463
0.105729
0.114647
-0.125529
0.114033
0.137285
-0.145588
0.119465
0.15123
-0.156662
0.122107
0.157866
-0.160508
0.121758
0.160907
-0.160558
0.118202
0.165357
-0.161801
0.112532
0.172834
-0.167164
0.107732
0.176418
-0.171617
0.10709
0.162487
-0.161845
0.111804
0.120888
-0.125602
0.120699
0.0539817
-0.0628773
0.131553
-0.0236612
0.0128074
0.141915
-0.0942296
0.0838675
0.149812
-0.14518
0.137283
0.154438
-0.175059
0.170433
0.156328
-0.188005
0.186116
0.155829
-0.191032
0.19153
0.152129
-0.192955
0.196655
0.144879
-0.202424
0.209674
0.13627
-0.211515
0.220124
0.130264
-0.197766
0.203772
0.129525
-0.142167
0.142906
0.133938
-0.0507166
0.0463036
0.141375
0.0461959
-0.0536329
0.149306
0.127814
-0.135744
0.155197
0.177636
-0.183527
0.156415
0.214742
-0.21596
0.151944
0.240189
-0.235719
0.144203
0.262481
-0.25474
0.137745
0.245755
-0.239297
0.136342
0.172977
-0.171573
0.140475
0.0635998
-0.0677334
0.147103
-0.0657808
0.0591527
0.151513
-0.139173
0.134764
0.150273
-0.220757
0.221996
0.145
-0.248205
0.253478
0.140716
-0.274166
0.278449
0.140872
-0.23133
0.231174
0.14392
-0.0993746
0.0963263
0.145997
-0.0169167
0.0148392
0.144843
0.189408
-0.188253
0.143011
0.231918
-0.230086
0.14182
0.310683
-0.309492
0.140647
0.290392
-0.28922
0.0181598
-0.0163527
-0.0143813
-0.0601048
-0.0150722
-0.0710478
-0.0158734
-0.0817284
-0.0166421
-0.0914553
-0.0170686
-0.0996805
-0.0165158
-0.105793
-0.0141567
-0.108826
-0.00927925
-0.107467
-0.00159424
-0.10021
0.00973895
-0.086586
0.0230089
-0.0646566
0.037732
-0.0365547
0.0533042
-0.00342003
0.0689331
0.0329864
0.0839886
0.0690522
0.0975205
0.101115
0.108595
0.12621
0.116676
0.143148
0.121481
0.153061
0.122725
0.159663
0.120684
0.167398
0.117084
0.176434
0.114865
0.178637
0.116397
0.160955
0.121893
0.115391
0.130133
0.0457419
0.139206
-0.0327344
0.147312
-0.102336
0.152938
-0.150805
0.155495
-0.177616
0.155633
-0.188144
0.153915
-0.189313
0.149525
-0.188566
0.141717
-0.194616
0.132394
-0.202193
0.125774
-0.191146
0.12504
-0.141433
0.130213
-0.0558897
0.139032
0.0373771
0.148496
0.11835
0.155676
0.170457
0.157796
0.212622
0.15404
0.243945
0.146964
0.269557
0.14077
0.251949
0.138963
0.174784
0.14211
0.0604531
0.147841
-0.0715114
0.151753
-0.143086
0.150243
-0.219246
0.144833
-0.242794
0.140451
-0.269785
0.140702
-0.231581
0.14361
-0.102283
0.14563
-0.0189366
0.144557
0.190481
0.142787
0.233688
0.141782
0.311688
0.140805
0.291369
0.0198671
0.00966025
-0.058948
0.00767553
-0.069063
0.00505721
-0.0791101
0.00169607
-0.0880942
-0.00221178
-0.0957727
-0.0061586
-0.101846
-0.00917907
-0.105806
-0.0100337
-0.106613
-0.00767416
-0.10257
-0.00157765
-0.0926825
0.00943329
-0.0756675
0.0232735
-0.050395
0.0393365
-0.019483
0.0565242
0.0157986
0.0735705
0.0520059
0.089461
0.0852245
0.103117
0.112554
0.113713
0.132553
0.120658
0.146116
0.123739
0.156582
0.12371
0.167427
0.122635
0.177509
0.12308
0.178192
0.126431
0.157604
0.132307
0.109515
0.13947
0.0385795
0.146555
-0.0398198
0.152272
-0.108053
0.155604
-0.154138
0.156196
-0.178207
0.154728
-0.186676
0.151932
-0.186518
0.147083
-0.183716
0.139032
-0.186565
0.129208
-0.192369
0.121926
-0.183864
0.120979
-0.140486
0.126681
-0.0615917
0.13668
0.0273776
0.147566
0.107464
0.156032
0.161991
0.159187
0.209467
0.156346
0.246786
0.150082
0.275822
0.14419
0.25784
0.141903
0.177071
0.143949
0.0584068
0.148657
-0.0762192
0.152054
-0.146484
0.150312
-0.217504
0.144767
-0.237249
0.140238
-0.265256
0.140563
-0.231906
0.143385
-0.105105
0.145397
-0.0209483
0.144399
0.191479
0.142664
0.235423
0.141863
0.31249
0.141133
0.292099
0.0214461
0.038201
-0.056955
0.0358273
-0.0666893
0.032536
-0.0758188
0.028062
-0.0836202
0.0222455
-0.0899561
0.0151963
-0.0947972
0.00750814
-0.0981177
0.000610278
-0.0997148
-0.00312539
-0.0988343
-0.00286834
-0.0929395
0.00235799
-0.0808938
0.0133127
-0.0613496
0.0279996
-0.0341699
0.0456063
-0.00180811
0.0638237
0.0337886
0.0815522
0.067496
0.0974072
0.0966988
0.11025
0.119711
0.119293
0.137073
0.12448
0.151395
0.126895
0.165012
0.128642
0.175763
0.1317
0.175134
0.13658
0.152724
0.142417
0.103678
0.148328
0.0326681
0.153371
-0.0448622
0.156721
-0.111404
0.157808
-0.155224
0.156552
-0.176951
0.153629
-0.183752
0.14986
-0.182749
0.144705
-0.178561
0.136719
-0.178579
0.126691
-0.18234
0.118779
-0.175953
0.117382
-0.139089
0.123296
-0.0675062
0.134267
0.0164067
0.146442
0.095289
0.156197
0.152236
0.160529
0.205134
0.158795
0.24852
0.153474
0.281143
0.147913
0.2634
0.145123
0.179862
0.14595
0.0575797
0.149537
-0.079806
0.15239
-0.149337
0.150449
-0.215563
0.144772
-0.231572
0.14004
-0.260524
0.140414
-0.23228
0.143221
-0.107912
0.145284
-0.0230107
0.144363
0.1924
0.14264
0.237146
0.142066
0.313064
0.141638
0.292526
0.022868
0.0686079
-0.054501
0.0656648
-0.0637462
0.0619029
-0.0720568
0.0570654
-0.0787827
0.050961
-0.0838517
0.0433737
-0.08721
0.0342674
-0.0890114
0.0241637
-0.0896111
0.0143688
-0.0890394
0.00752723
-0.086098
0.00582704
-0.0791936
0.0105052
-0.0660278
0.0213859
-0.0450506
0.0367562
-0.0171784
0.0549463
0.0155985
0.0736224
0.0488199
0.0910632
0.079258
0.105785
0.104989
0.116891
0.125967
0.124433
0.143854
0.129625
0.15982
0.134366
0.171022
0.13995
0.16955
0.146103
0.14657
0.151795
0.0979867
0.156369
0.0280931
0.159469
-0.0479621
0.160547
-0.112481
0.15946
-0.154138
0.156494
-0.173985
0.152298
-0.179556
0.147682
-0.178134
0.14234
-0.173218
0.134674
-0.170913
0.124775
-0.172441
0.116354
-0.167531
0.114293
-0.137028
0.120109
-0.0733218
0.131746
0.00476906
0.145044
0.0819914
0.156079
0.141202
0.161726
0.199487
0.16128
0.248966
0.157019
0.285403
0.151831
0.268589
0.148509
0.183184
0.148092
0.0579966
0.150456
-0.0821701
0.152731
-0.151612
0.150625
-0.213457
0.144824
-0.225771
0.139828
-0.255529
0.14022
-0.232671
0.14309
-0.110782
0.145272
-0.025193
0.14444
0.193232
0.142712
0.238874
0.14239
0.313385
0.142322
0.292595
0.0241038
0.0978772
-0.0513973
0.0941674
-0.0600364
0.0896646
-0.067554
0.084299
-0.0734171
0.0780915
-0.0776442
0.0709071
-0.0800256
0.0624043
-0.0805086
0.052271
-0.0794778
0.0407982
-0.0775666
0.0295967
-0.0748965
0.0211132
-0.0707102
0.0179806
-0.0628952
0.021889
-0.048959
0.0324141
-0.0277035
0.0480389
-2.63793e-05
0.0660117
0.0308471
0.0840067
0.0612631
0.100099
0.0888965
0.113183
0.112883
0.123244
0.133792
0.131386
0.151678
0.139116
0.163291
0.147036
0.16163
0.154335
0.139271
0.159896
0.0924254
0.163376
0.0246139
0.164682
-0.0492685
0.163621
-0.11142
0.160489
-0.151006
0.155967
-0.169463
0.150692
-0.174282
0.14536
-0.172802
0.139899
-0.167757
0.132743
-0.163757
0.123312
-0.163011
0.114616
-0.158835
0.111769
-0.134181
0.117123
-0.0786764
0.129071
-0.00717885
0.143275
0.0677874
0.155565
0.128912
0.162652
0.192399
0.163661
0.247957
0.160574
0.288491
0.155796
0.273366
0.151975
0.187005
0.150301
0.0596711
0.151382
-0.0832513
0.153038
-0.153268
0.150801
-0.21122
0.144901
-0.219871
0.139582
-0.25021
0.139945
-0.233034
0.142958
-0.113796
0.14534
-0.0275748
0.144622
0.19395
0.142879
0.240618
0.142838
0.313426
0.143186
0.292247
0.025123
0.123944
-0.047449
0.119308
-0.0554003
0.113833
-0.0620789
0.107625
-0.0672094
0.100914
-0.0709331
0.0938066
-0.0729181
0.0861974
-0.0728993
0.0777033
-0.0709836
0.0678147
-0.0676781
0.0565716
-0.0636534
0.0451614
-0.0593
0.0361095
-0.0538433
0.0323433
-0.0451928
0.0356155
-0.0309757
0.045712
-0.0101229
0.0605253
0.0160339
0.0773723
0.0444161
0.0938918
0.072377
0.108553
0.0982213
0.121012
0.121334
0.132006
0.140684
0.142509
0.152787
0.152493
0.151647
0.160768
0.130995
0.166307
0.0868867
0.168994
0.0219264
0.168783
-0.0490576
0.165811
-0.108448
0.160822
-0.146017
0.154913
-0.163553
0.14876
-0.168129
0.142858
-0.1669
0.137312
-0.162211
0.130765
-0.15721
0.122102
-0.154347
0.113436
-0.15017
0.109801
-0.130546
0.114383
-0.0832586
0.126181
-0.0189765
0.141046
0.0529223
0.15453
0.115428
0.163164
0.183766
0.165785
0.245336
0.163972
0.290303
0.159651
0.277687
0.155401
0.191254
0.152509
0.0625638
0.152279
-0.0830211
0.153272
-0.154261
0.150937
-0.208885
0.14498
-0.213914
0.139288
-0.244518
0.139559
-0.233305
0.142791
-0.117028
0.145461
-0.0302448
0.144897
0.194514
0.143137
0.242378
0.143407
0.313156
0.144231
0.291423
0.0258952
0.144648
-0.0425689
0.13905
-0.0498015
0.132603
-0.0556317
0.125569
-0.060176
0.118282
-0.0636462
0.110946
-0.0655821
0.103682
-0.0656354
0.0964507
-0.063752
0.0888815
-0.0601089
0.0803666
-0.0551385
0.0705746
-0.049508
0.0603351
-0.0436038
0.0519514
-0.0368091
0.0482856
-0.0273099
0.0511576
-0.012995
0.0602519
0.00693958
0.0736854
0.0309826
0.0890061
0.0570563
0.104218
0.0830095
0.118413
0.107138
0.131741
0.127357
0.144537
0.139991
0.156195
0.139989
0.165308
0.121882
0.170993
0.0812016
0.173065
0.0198553
0.171641
-0.0476335
0.167009
-0.103816
0.160391
-0.139399
0.15328
-0.156442
0.146439
-0.161287
0.140124
-0.160585
0.134512
-0.156599
0.128587
-0.151284
0.120908
-0.146668
0.112618
-0.14188
0.108318
-0.126245
0.111854
-0.0867948
0.123105
-0.0302279
0.138292
0.037736
0.152863
0.100857
0.16311
0.173519
0.167465
0.240981
0.167025
0.290743
0.163248
0.281464
0.158666
0.195837
0.154628
0.0666013
0.153102
-0.0814949
0.153388
-0.154547
0.15099
-0.206488
0.145039
-0.207963
0.138937
-0.238416
0.139038
-0.233405
0.142552
-0.120542
0.145605
-0.0332981
0.145256
0.194863
0.143485
0.244149
0.144096
0.312545
0.145456
0.290063
0.0263896
0.158102
-0.03698
0.151759
-0.0434591
0.144606
-0.0484783
0.137048
-0.0526179
0.129434
-0.0560323
0.121976
-0.0581236
0.114879
-0.0585388
0.108309
-0.0571819
0.102251
-0.0540515
0.0963694
-0.0492564
0.0899831
-0.0431217
0.0825761
-0.0361968
0.0746138
-0.0288468
0.0679516
-0.0206476
0.0651599
-0.0102033
0.0676967
0.00440282
0.0757784
0.0229009
0.0878621
0.0449727
0.101959
0.0689131
0.116623
0.0924737
0.131285
0.112695
0.145565
0.125711
0.158339
0.127215
0.168081
0.112139
0.173963
0.0753199
0.175674
0.0181444
0.173194
-0.045154
0.167107
-0.0977288
0.159092
-0.131384
0.150974
-0.148324
0.143621
-0.153934
0.13706
-0.154025
0.131411
-0.150951
0.126057
-0.14593
0.119484
-0.140096
0.111891
-0.134287
0.107167
-0.121521
0.109539
-0.089167
0.119833
-0.040522
0.134977
0.0225916
0.150459
0.0853753
0.16235
0.161627
0.168564
0.234768
0.169589
0.289718
0.166435
0.284618
0.161638
0.200634
0.156589
0.0716505
0.153802
-0.0787075
0.153339
-0.154083
0.150907
-0.204056
0.14505
-0.202105
0.138524
-0.23189
0.138364
-0.233246
0.142206
-0.124383
0.145743
-0.0368353
0.145685
0.19492
0.143919
0.245915
0.144904
0.311559
0.14686
0.288108
0.0265737
0.163547
-0.0312705
0.156961
-0.0368728
0.149619
-0.0411359
0.142047
-0.0450465
0.134516
-0.0485012
0.127213
-0.0508202
0.120393
-0.0517194
0.114315
-0.0511034
0.109149
-0.0488854
0.10485
-0.0449574
0.101068
-0.0393403
0.097196
-0.0323244
0.0926994
-0.0243503
0.087679
-0.0156272
0.0834055
-0.00592978
0.081849
0.00595929
0.0846796
0.0200703
0.0922043
0.037448
0.103396
0.0577217
0.116851
0.079018
0.131455
0.0980914
0.146152
0.111014
0.159353
0.114015
0.169429
0.102063
0.175502
0.0692469
0.176944
0.0167022
0.173458
-0.0416679
0.166035
-0.0903058
0.156843
-0.122192
0.147917
-0.139398
0.140207
-0.146224
0.133567
-0.147384
0.127935
-0.145319
0.123063
-0.141058
0.117625
-0.134658
0.110995
-0.127657
0.106135
-0.116661
0.107356
-0.0903877
0.116409
-0.0495753
0.131111
0.00788947
0.147261
0.0692253
0.160749
0.14814
0.168864
0.226653
0.171444
0.287138
0.169039
0.287023
0.164189
0.205483
0.158326
0.077514
0.154345
-0.0747269
0.15309
-0.152829
0.150647
-0.201614
0.144983
-0.196441
0.138058
-0.224964
0.137538
-0.232726
0.141724
-0.12857
0.145839
-0.04095
0.146173
0.194586
0.144436
0.247652
0.145831
0.310164
0.148439
0.2855
0.0264167
0.16205
-0.0260786
0.155732
-0.030554
0.148726
-0.03413
0.141599
-0.0379195
0.134487
-0.0413893
0.127589
-0.0439227
0.121212
-0.0453418
0.115663
-0.0455546
0.111162
-0.0443841
0.107799
-0.0415951
0.105497
-0.0370376
0.103922
-0.0307493
0.102541
-0.0229699
0.100912
-0.0139978
0.0992818
-0.00429985
0.0978186
0.00742247
0.0981244
0.0197645
0.101859
0.0337135
0.109382
0.0501988
0.120142
0.0682583
0.133109
0.0851235
0.146895
0.0972284
0.15965
0.10126
0.169753
0.0919598
0.176087
0.0629129
0.177101
0.015689
0.17269
-0.0372571
0.164083
-0.0816988
0.153968
-0.112077
0.144451
-0.129881
0.136496
-0.138269
0.12988
-0.140768
0.124295
-0.139733
0.11975
-0.136514
0.115338
-0.130245
0.109827
-0.122146
0.1051
-0.111935
0.105262
-0.0905497
0.112856
-0.0571689
0.126716
-0.00597043
0.143208
0.0527333
0.158267
0.133081
0.168419
0.2165
0.172619
0.282938
0.170975
0.288668
0.166262
0.210196
0.15981
0.0839656
0.154775
-0.0696922
0.152671
-0.150724
0.150222
-0.199165
0.144832
-0.191051
0.137573
-0.217705
0.136601
-0.231755
0.141101
-0.13307
0.145853
-0.0457011
0.146704
0.193734
0.145035
0.249322
0.146876
0.308323
0.150192
0.282183
0.0258879
0.156199
-0.0219352
0.150483
-0.0248375
0.144483
-0.02813
0.138303
-0.0317393
0.132069
-0.0351553
0.126077
-0.0379309
0.120562
-0.0398268
0.115697
-0.0406901
0.111656
-0.0403429
0.10864
-0.0385786
0.106822
-0.0352195
0.106211
-0.0301382
0.106569
-0.0233288
0.10745
-0.0148781
0.108159
-0.0050094
0.109191
0.00639043
0.110735
0.0182206
0.113642
0.0308064
0.118942
0.0448991
0.126996
0.0602039
0.137466
0.0746545
0.149299
0.0853954
0.160905
0.0896532
0.170633
0.0822321
0.176541
0.0570044
0.177026
0.0152039
0.17104
-0.0312708
0.161322
-0.0719803
0.150678
-0.101434
0.14094
-0.120143
0.132895
-0.130224
0.12636
-0.134233
0.120825
-0.134199
0.11641
-0.132099
0.112775
-0.126611
0.108409
-0.117779
0.104039
-0.107564
0.103301
-0.0898121
0.109413
-0.0632806
0.122004
-0.018562
0.138374
0.0363634
0.15453
0.116925
0.166634
0.204396
0.172649
0.276923
0.172007
0.28931
0.167669
0.214534
0.160975
0.0906595
0.155027
-0.0637438
0.152096
-0.147793
0.149658
-0.196727
0.14459
-0.185984
0.137086
-0.2102
0.135611
-0.23028
0.140385
-0.137844
0.145775
-0.0510915
0.14726
0.192249
0.145703
0.250879
0.148034
0.305992
0.152115
0.278103
0.0249506
0.196176
-0.0176589
-0.200453
0.19278
-0.0214412
0.18913
-0.0244803
0.184968
-0.0275774
0.180306
-0.0304934
0.175271
-0.0328957
0.16999
-0.0345455
0.164558
-0.0352578
0.15908
-0.0348652
0.153696
-0.0331947
0.148554
-0.030077
0.143779
-0.0253636
0.139447
-0.0189967
0.135555
-0.0109858
0.132072
-0.00152647
0.128753
0.00970871
0.125621
0.0213532
0.123106
0.0333208
0.122231
0.0457744
0.124177
0.0582583
0.12974
0.069091
0.138968
0.0761679
0.151636
0.0769847
0.167159
0.066709
0.182749
0.0414147
0.193646
0.00430719
0.198089
-0.0357145
0.19627
-0.0701607
0.190337
-0.0955009
0.182263
-0.112069
0.173593
-0.121554
0.165134
-0.125774
0.156916
-0.125981
0.14922
-0.124403
0.14223
-0.11962
0.134668
-0.110217
0.126122
-0.0990187
0.119261
-0.0829508
0.117496
-0.0615151
0.121579
-0.0226458
0.128499
0.0294436
0.135134
0.11029
0.139937
0.199592
0.143864
0.272996
0.148733
0.284441
0.155158
0.208109
0.159855
0.0859628
0.161356
-0.0652451
0.160464
-0.146901
0.156962
-0.193225
0.150335
-0.179357
0.141575
-0.20144
0.136004
-0.224709
0.135609
-0.137448
0.135407
-0.05089
0.133583
0.194073
0.131602
0.25286
0.134393
0.303201
0.139798
0.272699
0.0242711
0.205145
-0.0144323
-0.208372
0.201706
-0.0180019
0.198227
-0.0210017
0.194347
-0.0236968
0.190023
-0.0261693
0.185362
-0.0282353
0.180478
-0.0296616
0.175473
-0.0302525
0.170459
-0.0298507
0.16557
-0.0283058
0.160958
-0.0254652
0.15679
-0.0211954
0.153212
-0.0154185
0.150323
-0.00809704
0.148029
0.000767546
0.146563
0.0111747
0.145636
0.0222801
0.145366
0.0335907
0.146338
0.0448021
0.149466
0.0551305
0.155459
0.0630979
0.16454
0.0670867
0.176572
0.0649527
0.190326
0.0529552
0.202721
0.0290197
0.210487
-0.00345863
0.212018
-0.0372459
0.208343
-0.0664852
0.201283
-0.0884412
0.192575
-0.103361
0.183531
-0.11251
0.174894
-0.117136
0.166586
-0.117673
0.158667
-0.116484
0.151575
-0.112528
0.144379
-0.103021
0.136175
-0.0908148
0.128891
-0.0756666
0.126167
-0.0587905
0.129391
-0.0258699
0.136321
0.0225133
0.143588
0.103023
0.149341
0.193839
0.154398
0.26794
0.160471
0.278367
0.167855
0.200726
0.17302
0.0807973
0.174078
-0.0663026
0.172309
-0.145133
0.167996
-0.188912
0.160839
-0.1722
0.151266
-0.191866
0.144918
-0.218362
0.144261
-0.136791
0.144304
-0.0509336
0.142594
0.195783
0.140511
0.254943
0.143854
0.299858
0.150069
0.266483
0.0234911
0.214114
-0.0118875
-0.216659
0.211004
-0.014892
0.207655
-0.0176521
0.204025
-0.020067
0.200041
-0.0221853
0.195745
-0.0239393
0.191237
-0.0251536
0.186627
-0.0256429
0.182032
-0.0252551
0.177584
-0.0238578
0.173441
-0.0213226
0.169773
-0.0175276
0.16674
-0.0123855
0.164503