/*--------------------------------*- C++ -*----------------------------------*\
| =========                 |                                                 |
| \\      /  F ield         | OpenFOAM: The Open Source CFD Toolbox           |
|  \\    /   O peration     | Version:  2512                                  |
|   \\  /    A nd           | Website:  www.openfoam.com                      |
|    \\/     M anipulation  |                                                 |
\*---------------------------------------------------------------------------*/
FoamFile
{
    version     2.0;
    format      ascii;
    arch        "LSB;label=32;scalar=64";
    class       surfaceScalarField;
    location    "85.25";
    object      phi;
}
// * * * * * * * * * * * * * * * * * * * * * * * * * * * * * * * * * * * * * //

dimensions      [0 3 -1 0 0 0 0];

oriented        oriented;

internalField   nonuniform List<scalar> 
26232
(
-1.95507e-05
0.00102327
-0.00100371
0.000197477
0.00197344
-0.00219047
0.000871527
0.00199946
-0.00267351
0.00219886
0.00114665
-0.00247399
0.00436591
-0.000573913
-0.00159314
0.00754964
-0.00316855
-1.51786e-05
0.0119201
-0.00664554
0.00227507
0.017617
-0.0110033
0.0053065
0.0247391
-0.0162134
0.00909128
0.033322
-0.0222109
0.013628
0.0433204
-0.0288899
0.0188915
0.0545981
-0.0361057
0.0248281
0.0669269
-0.043683
0.0313541
0.0799981
-0.0514288
0.0383575
0.0934432
-0.0591481
0.0457031
0.106863
-0.0666594
0.05324
0.11986
-0.0738083
0.0608106
0.132077
-0.0804806
0.0682634
0.14323
-0.0866058
0.0754531
0.153118
-0.0921771
0.0822894
0.161667
-0.0971844
0.0886352
0.168823
-0.101819
0.0946632
0.174511
-0.105703
0.100015
-0.110065
0.106004
0.178572
4.40848e-05
0.00097918
0.000457739
0.00155979
0.00148662
0.000970577
0.00335521
-0.000721936
0.00627411
-0.00349281
0.0104327
-0.00732716
0.0159835
-0.0121963
0.0230166
-0.0180365
0.0315373
-0.0247341
0.0414471
-0.0321207
0.0525386
-0.0399814
0.0645047
-0.0480719
0.0769643
-0.0561425
0.0894979
-0.0639624
0.101691
-0.0713411
0.113175
-0.0781435
0.123666
-0.0842991
0.132987
-0.0898019
0.141084
-0.0947026
0.148002
-0.0990956
0.153908
-0.10309
0.158923
-0.106834
0.163505
-0.110285
-0.114076
0.167516
0.000132642
0.000846538
0.000811664
0.000880766
0.00229952
-0.000517277
0.00483807
-0.00326049
0.00864236
-0.0072971
0.0138793
-0.0125641
0.0206382
-0.0189551
0.0289004
-0.0262987
0.0385207
-0.0343545
0.0492272
-0.0428272
0.0606432
-0.0513974
0.0723293
-0.059758
0.083836
-0.0676492
0.0947577
-0.0748841
0.104779
-0.0813623
0.113705
-0.0870695
0.121472
-0.0920664
0.128138
-0.096468
0.133852
-0.100416
0.138815
-0.104058
0.143235
-0.107511
0.147298
-0.110897
0.151171
-0.114158
-0.117741
0.154836
0.000241147
0.000605391
0.00123926
-0.00011735
0.00326451
-0.00254252
0.00655758
-0.00655356
0.0113063
-0.0120459
0.0176088
-0.0188666
0.0254354
-0.0267817
0.0346064
-0.0354697
0.0447963
-0.0445444
0.05557
-0.0536009
0.0664425
-0.0622698
0.0769479
-0.0702634
0.086703
-0.0774043
0.0954519
-0.0836329
0.103084
-0.0889943
0.109626
-0.0936114
0.11521
-0.0976503
0.120028
-0.101286
0.124289
-0.104677
0.128177
-0.107946
0.13184
-0.111175
0.135366
-0.114423
0.138868
-0.11766
-0.121166
0.142293
0.000365383
0.000240008
0.00172247
-0.00147443
0.0043347
-0.00515475
0.00841425
-0.0106331
0.0140794
-0.017711
0.0213059
-0.0260931
0.0298962
-0.035372
0.0394849
-0.0450585
0.0495877
-0.0546471
0.0596795
-0.0636927
0.069281
-0.0718713
0.0780298
-0.0790122
0.0857203
-0.0850949
0.0923076
-0.0902202
0.0978797
-0.0945665
0.10261
-0.0983421
0.106707
-0.101747
0.110365
-0.104945
0.113744
-0.108057
0.11696
-0.111161
0.120086
-0.114301
0.123166
-0.117502
0.126252
-0.120746
-0.12419
0.129276
0.000503219
-0.000263211
0.00224616
-0.00321738
0.00546306
-0.00837165
0.0103007
-0.0154707
0.0167582
-0.0241685
0.0246413
-0.0339762
0.0335618
-0.0442925
0.0429941
-0.0544907
0.0523729
-0.064026
0.0611986
-0.0725184
0.0691168
-0.0797896
0.0759544
-0.0858499
0.0817099
-0.0908503
0.0865095
-0.0950198
0.0905487
-0.0986057
0.0940371
-0.101831
0.097159
-0.104868
0.100055
-0.107841
0.102823
-0.110824
0.105522
-0.11386
0.108191
-0.116969
0.110848
-0.12016
0.113524
-0.123422
-0.126837
0.11617
0.000652579
-0.00091579
0.00279285
-0.00535765
0.00659423
-0.012173
0.0120937
-0.0209702
0.0191248
-0.0311996
0.0272986
-0.04215
0.0360589
-0.0530528
0.0447967
-0.0632285
0.0529771
-0.0722063
0.0602329
-0.0797742
0.0664005
-0.0859571
0.0714996
-0.090949
0.0756773
-0.0950279
0.0791403
-0.0984828
0.0820984
-0.101564
0.0847281
-0.10446
0.0871595
-0.1073
0.0894788
-0.11016
0.0917385
-0.113084
0.0939694
-0.116091
0.0961889
-0.119189
0.0984065
-0.122377
0.100636
-0.125652
-0.129042
0.102842
0.000809361
-0.00172515
0.00333791
-0.0078862
0.00765929
-0.0164944
0.0136562
-0.0269671
0.0209674
-0.0385107
0.0290234
-0.050206
0.0371692
-0.0611987
0.0448163
-0.0708756
0.0515579
-0.078948
0.0572128
-0.0854291
0.0618006
-0.0905449
0.0654754
-0.0946238
0.0684504
-0.0980029
0.070937
-0.100969
0.0731095
-0.103736
0.0750936
-0.106444
0.0769703
-0.109177
0.078788
-0.111978
0.0805739
-0.11487
0.0823434
-0.117861
0.0841055
-0.120951
0.0858661
-0.124138
0.0876327
-0.127418
-0.130794
0.0893842
0.000966409
-0.00269156
0.00384863
-0.0107684
0.00857939
-0.0212252
0.0148533
-0.033241
0.0221155
-0.0457729
0.0296716
-0.0577622
0.0368622
-0.0683892
0.0432105
-0.077224
0.048487
-0.0842245
0.0526876
-0.0896297
0.0559606
-0.0938179
0.0585219
-0.0971851
0.0605876
-0.100069
0.062335
-0.102717
0.0638905
-0.105292
0.0653348
-0.107888
0.0667147
-0.110557
0.0680562
-0.11332
0.0693734
-0.116187
0.0706748
-0.119162
0.0719656
-0.122242
0.0732501
-0.125423
0.0745315
-0.1287
-0.132061
0.0757987
0.00111391
-0.00380547
0.00428747
-0.013942
0.00927683
-0.0262145
0.0155759
-0.0395401
0.0224728
-0.0526698
0.0292294
-0.0645188
0.0352692
-0.074429
0.0402786
-0.0822334
0.0442017
-0.0881475
0.0471647
-0.0925927
0.049381
-0.0960343
0.0510732
-0.0988773
0.0524266
-0.101422
0.0535737
-0.103864
0.0545985
-0.106317
0.0555495
-0.108839
0.0564527
-0.11146
0.0573222
-0.114189
0.0581659
-0.117031
0.0589893
-0.119985
0.0597957
-0.123048
0.0605884
-0.126215
0.0613687
-0.12948
-0.132826
0.0621336
0.00124124
-0.00504671
0.00461889
-0.0173196
0.00968951
-0.0312851
0.0157609
-0.0456114
0.022028
-0.058937
0.0277924
-0.0702832
0.0326181
-0.0792547
0.0363612
-0.0859765
0.0391025
-0.0908889
0.041043
-0.0945331
0.0424109
-0.0974022
0.0434037
-0.0998701
0.0441651
-0.102183
0.0447869
-0.104486
0.0453217
-0.106852
0.0457975
-0.109315
0.0462289
-0.111891
0.0466241
-0.114584
0.0469883
-0.117395
0.0473252
-0.120322
0.0476376
-0.123361
0.0479273
-0.126505
0.0481936
-0.129746
-0.13307
0.0484373
0.00134138
-0.00638809
0.00481811
-0.0207964
0.00978255
-0.0362496
0.0153986
-0.0512275
0.0208448
-0.0643831
0.0255276
-0.074966
0.0291717
-0.0828988
0.0317781
-0.0885829
0.0335162
-0.092627
0.0346144
-0.0956314
0.0352844
-0.0980722
0.0356861
-0.100272
0.0359237
-0.102421
0.0360575
-0.10462
0.0361193
-0.106913
0.0361252
-0.109321
0.0360835
-0.111849
0.0359997
-0.1145
0.0358777
-0.117273
0.0357209
-0.120165
0.0355319
-0.123172
0.0353118
-0.126285
0.0350597
-0.129494
0.0347786
-0.132788
-0.000204046
0.00102429
-0.000820243
-0.000716361
0.00296974
-0.00245743
-0.00148042
0.00483608
-0.00407202
-0.00245384
0.00657243
-0.00559901
-0.00360063
0.00815144
-0.00700465
-0.00488776
0.00957862
-0.00829149
-0.00628372
0.010885
-0.00948905
-0.00775818
0.0121153
-0.0106408
-0.00928224
0.0133161
-0.011792
-0.0108285
0.0145268
-0.0129806
-0.0123706
0.0157737
-0.0142316
-0.0138827
0.0170681
-0.015556
-0.0153377
0.018406
-0.0169509
-0.0167063
0.0197699
-0.0184013
-0.0179556
0.02113
-0.0198807
-0.0190479
0.0224449
-0.0213526
-0.0199412
0.0236625
-0.0227693
-0.0205882
0.0247194
-0.0240724
-0.0209379
0.0255423
-0.0251926
-0.0209367
0.0260494
-0.0260506
-0.02053
0.0261542
-0.0265609
-0.0196672
0.0257691
-0.0266319
-0.0183205
0.024818
-0.0261647
0.023287
-0.016522
-0.0250855
-0.000129898
0.00115419
-0.00046723
0.00330707
-0.000981527
0.00535037
-0.00164739
0.0072383
-0.00243986
0.0089439
-0.00333165
0.0104704
-0.00429221
0.0118456
-0.00528806
0.0131111
-0.00628384
0.0143118
-0.00724343
0.0154864
-0.00813063
0.0166609
-0.00890915
0.0178466
-0.00954199
0.0190388
-0.00999053
0.0202184
-0.0102136
0.021353
-0.0101668
0.0223981
-0.00980216
0.0232978
-0.0090683
0.0239855
-0.0079108
0.0243848
-0.00627258
0.0244112
-0.00409455
0.0239761
-0.00131788
0.0229925
0.00211238
0.0213877
0.0191827
0.00621665
-5.50532e-05
0.00120924
-0.000211157
0.00346318
-0.000460002
0.00559922
-0.000790214
0.00756851
-0.00118606
0.00933975
-0.00162547
0.0109098
-0.00207922
0.0122993
-0.00251148
0.0135434
-0.00288129
0.0146817
-0.00314439
0.0157495
-0.00325471
0.0167713
-0.00316534
0.0177572
-0.00282881
0.0187023
-0.00219697
0.0195866
-0.00122065
0.0203767
0.000150506
0.021027
0.00196783
0.0214805
0.00428323
0.0216701
0.00714844
0.0215196
0.0106148
0.0209449
0.0147342
0.0198567
0.019559
0.0181677
0.0251413
0.0158054
0.0127271
0.0315969
1.04575e-05
0.00119878
1.955e-05
0.00345408
2.18099e-05
0.00559696
2.01053e-05
0.00757022
2.42436e-05
0.00933561
5.25734e-05
0.0108815
0.000132849
0.012219
0.000301862
0.0133744
0.00060405
0.0143795
0.0010895
0.015264
0.00181189
0.0160489
0.00282678
0.0167423
0.00419043
0.0173386
0.00595913
0.0178179
0.00818874
0.0181471
0.0109343
0.0182814
0.0142494
0.0181654
0.0181856
0.017734
0.0227912
0.016914
0.0281107
0.0156253
0.034185
0.0137825
0.0410599
0.0112927
0.0487515
0.00811383
0.00398675
0.0574918
5.81996e-05
0.00114058
0.000196879
0.00331541
0.000407254
0.00538658
0.000691157
0.00728631
0.00105739
0.00896938
0.00152303
0.0104159
0.00211474
0.0116273
0.00286902
0.0126201
0.0038313
0.0134172
0.00505416
0.0140412
0.00659522
0.0145078
0.00851505
0.0148225
0.0108754
0.0149782
0.0137381
0.0149552
0.0171638
0.0147214
0.0212115
0.0142338
0.0259378
0.0134391
0.0313969
0.0122748
0.0376394
0.0106716
0.0447133
0.00855139
0.0526582
0.00583756
0.0615311
0.00241981
0.0712952
-0.00165025
-0.00709555
0.0823775
8.28157e-05
0.00105777
0.000301278
0.00309694
0.00065506
0.0050328
0.00115267
0.0067887
0.00180717
0.00831488
0.00263764
0.00958538
0.00367115
0.0105938
0.00494369
0.0113475
0.00650008
0.0118608
0.00839285
0.0121484
0.0106805
0.0122201
0.0134258
0.0120773
0.0166936
0.0117104
0.0205502
0.0110987
0.0250616
0.01021
0.0302934
0.00900193
0.0363098
0.00742268
0.0431784
0.00540622
0.050959
0.00289104
0.0597132
-0.000202865
0.0694955
-0.00394472
0.0804184
-0.00850311
0.0923101
-0.0135419
-0.0205711
0.105786
8.23567e-05
0.000975411
0.000325347
0.00285395
0.000747777
0.00461037
0.00137186
0.00616462
0.00222001
0.00746673
0.0033171
0.00848829
0.0046932
0.00921773
0.00638552
0.00965521
0.00843933
0.009807
0.0109078
0.00967992
0.0138512
0.00927673
0.0173357
0.00859271
0.0214325
0.00761365
0.0262163
0.00631485
0.0317666
0.00465971
0.0381649
0.00260367
0.0454801
0.000107408
0.0538209
-0.00293458
0.0632558
-0.00654382
0.0738662
-0.0108132
0.0856867
-0.0157652
0.0988309
-0.0216473
0.113052
-0.027763
-0.0364422
0.128923
5.94626e-05
0.000915949
0.000277318
0.0026361
0.000700112
0.00418758
0.00136936
0.00549537
0.00232149
0.0065146
0.0035916
0.00721818
0.00521735
0.00759198
0.00724212
0.00763044
0.00971711
0.00733201
0.0127024
0.00669461
0.0162673
0.00571183
0.0204899
0.0043701
0.0254566
0.002647
0.0312578
0.0005136
0.0379956
-0.00207803
0.0457671
-0.00516784
0.0546841
-0.00880962
0.0648107
-0.0130611
0.0762316
-0.0179647
0.0889864
-0.0235681
0.103064
-0.0298432
0.118433
-0.0370163
0.134849
-0.0441783
-0.0539651
0.152372
2.1862e-05
0.000894087
0.000182897
0.00247506
0.00056323
0.00380724
0.00122804
0.00483056
0.00223265
0.00550999
0.00362837
0.00582246
0.00546798
0.00575237
0.00781012
0.0052883
0.0107225
0.00441968
0.0142834
0.00313365
0.0185825
0.00141273
0.0237193
-0.000766661
0.0298006
-0.00343432
0.0369382
-0.006624
0.0452336
-0.0103735
0.0547825
-0.0147167
0.0656556
-0.0196827
0.0778839
-0.0252895
0.0914553
-0.031536
0.10629
-0.0384027
0.122252
-0.0458051
0.139057
-0.053822
0.156559
-0.0616797
-0.0714592
0.174053
-1.79996e-05
0.000912086
8.35392e-05
0.00237352
0.000421157
0.00346963
0.0010875
0.00416421
0.00216265
0.00443484
0.00372228
0.00426283
0.00584431
0.00363034
0.00861397
0.00251864
0.0121265
0.000907172
0.0164872
-0.00122707
0.0218091
-0.00390914
0.028207
-0.00716458
0.0357893
-0.0110166
0.0446476
-0.0154823
0.0548426
-0.0205685
0.0663937
-0.0262678
0.0792649
-0.0325538
0.0933552
-0.0393798
0.108491
-0.0466722
0.124429
-0.0543402
0.140861
-0.0622367
0.157335
-0.0702966
0.173685
-0.07803
-0.0864853
0.188711
-4.51804e-05
0.000957266
2.87894e-05
0.00229955
0.00037442
0.003124
0.00111564
0.003423
0.00236366
0.00318682
0.00422696
0.00239953
0.0068165
0.00104079
0.0102505
-0.000915399
0.0146525
-0.00349479
0.0201458
-0.00672039
0.0268448
-0.0106081
0.0348418
-0.0151616
0.0441933
-0.0203681
0.0549053
-0.0261943
0.066921
-0.0325842
0.0801125
-0.0394593
0.0942772
-0.0467186
0.109143
-0.0542453
0.124372
-0.0619018
0.139602
-0.0695694
0.154432
-0.0770671
0.168518
-0.0843824
0.181607
-0.0911195
-0.0977071
0.192829
-4.64481e-05
6.26355e-05
0.000513119
0.00146213
0.00305581
0.00544016
0.00875602
0.0131471
0.0187436
0.0256512
0.0339346
0.0436011
0.0545871
0.0667503
0.0798692
0.0936498
0.107742
0.12176
0.135311
0.148031
0.159599
0.16988
0.178776
0.187073
-0.0131056
0.027663
-0.0310794
-0.00911061
0.02165
-0.025645
-0.00450724
0.0132078
-0.0178112
0.000640472
0.00228419
-0.00743191
0.00622958
-0.0109424
0.00535333
0.0122103
-0.0264835
0.0205028
0.0184031
-0.0438058
0.037613
0.0245814
-0.0621232
0.0559449
0.0304272
-0.0803802
0.0745345
0.035411
-0.0973789
0.092395
0.0390473
-0.112027
0.10839
0.0408316
-0.123799
0.122015
0.0405755
-0.132909
0.133165
0.0389382
-0.139912
0.141549
0.0376475
-0.144515
0.145806
0.0389817
-0.144354
0.14302
0.0445429
-0.135213
0.129652
0.0542861
-0.113298
0.103555
0.0669084
-0.0777809
0.0651586
0.0810342
-0.031207
0.0170812
0.0954234
0.0213849
-0.0357741
0.108962
0.0730898
-0.0866281
0.120277
0.116461
-0.127777
0.128367
0.147324
-0.155413
0.133211
0.165511
-0.170355
0.135215
0.17365
-0.175655
0.133982
0.177796
-0.176563
0.128913
0.185897
-0.180827
0.121402
0.198529
-0.191018
0.115321
0.201644
-0.195563
0.114358
0.17408
-0.173117
0.119344
0.107802
-0.112788
0.128439
0.0164634
-0.0255579
0.138383
-0.0732396
0.063296
0.146496
-0.142756
0.134643
0.151823
-0.185057
0.179729
0.154339
-0.203395
0.200879
0.153025
-0.209604
0.210918
0.146836
-0.218565
0.224754
0.137567
-0.232107
0.241376
0.129882
-0.22282
0.230505
0.12781
-0.17039
0.172462
0.131811
-0.0696028
0.0656018
0.139679
0.0369395
-0.044808
0.147904
0.131185
-0.139409
0.152445
0.189957
-0.194498
0.150454
0.236471
-0.23448
0.143265
0.273073
-0.265884
0.135882
0.271726
-0.264343
0.133716
0.224941
-0.222775
0.138018
0.0858766
-0.0901784
0.144608
-0.0181235
0.0115329
0.147623
-0.152499
0.149484
0.145023
-0.218746
0.221347
0.140266
-0.285989
0.290746
0.138141
-0.322681
0.324805
0.138877
-0.178673
0.177937
0.13907
-0.139104
0.138911
0.136575
0.139819
-0.137323
0.235991
-0.233428
0.010452
0.0234276
0.0148698
0.0172323
0.0195577
0.00851981
0.0244789
-0.00263694
0.0296079
-0.0160714
0.0347865
-0.0316621
0.0399106
-0.0489299
0.0448246
-0.0670372
0.0492815
-0.0848371
0.0529112
-0.101009
0.0552288
-0.114344
0.0556059
-0.124176
0.0534491
-0.130752
0.0487876
-0.13525
0.0429533
-0.138681
0.0386102
-0.140011
0.0386327
-0.135235
0.0444352
-0.119101
0.0553058
-0.0886515
0.0694913
-0.0453926
0.0851886
0.00568756
0.10069
0.0575884
0.114313
0.102838
0.124824
0.136813
0.131944
0.15839
0.13569
0.169905
0.135598
0.177888
0.13161
0.189885
0.125672
0.204466
0.121387
0.205929
0.121517
0.173951
0.126336
0.102983
0.134321
0.00847839
0.142606
-0.0815243
0.148917
-0.149067
0.152441
-0.188581
0.153541
-0.204495
0.151479
-0.207542
0.144915
-0.212001
0.135173
-0.222365
0.126913
-0.214559
0.124678
-0.168155
0.129265
-0.0741898
0.138292
0.0279124
0.147631
0.121846
0.152903
0.184685
0.151386
0.237988
0.144553
0.279906
0.137396
0.278882
0.134978
0.227359
0.138812
0.0820432
0.145128
-0.0244394
0.148039
-0.15541
0.14536
-0.216068
0.140403
-0.281033
0.138315
-0.320593
0.138836
-0.179195
0.138812
-0.13908
0.136236
0.142394
0.23864
0.0360692
0.0189554
0.0406829
0.0126186
0.0452911
0.00391159
0.0499175
-0.00726338
0.0543739
-0.0205279
0.0586039
-0.0358921
0.0625356
-0.0528617
0.0660585
-0.07056
0.0689975
-0.0877762
0.0710942
-0.103105
0.071984
-0.115234
0.0711732
-0.123365
0.0680369
-0.127616
0.0620115
-0.129225
0.0534295
-0.130099
0.0444205
-0.131002
0.0385618
-0.129377
0.0389842
-0.119523
0.0464687
-0.0961359
0.0594352
-0.0583591
0.0756693
-0.0105465
0.092614
0.0406437
0.10828
0.0871714
0.121144
0.12395
0.130537
0.148998
0.136078
0.164364
0.137368
0.176598
0.134876
0.192377
0.130819
0.208523
0.128321
0.208426
0.129286
0.172986
0.133682
0.0985867
0.140089
0.00207169
0.146598
-0.0880332
0.151079
-0.153548
0.152865
-0.190368
0.152611
-0.204241
0.149928
-0.204859
0.143232
-0.205305
0.133254
-0.212387
0.124489
-0.205795
0.121974
-0.16564
0.12695
-0.0791655
0.136951
0.0179114
0.147312
0.111485
0.153353
0.178644
0.152447
0.238894
0.146115
0.286238
0.139251
0.285747
0.136541
0.230069
0.139775
0.0788093
0.145747
-0.030411
0.148557
-0.15822
0.145806
-0.213317
0.140602
-0.275828
0.13852
-0.318511
0.138886
-0.179561
0.138708
-0.138902
0.13607
0.145032
0.241372
0.0619685
0.0144788
0.0665131
0.00807399
0.0710833
-0.000658663
0.0753259
-0.011506
0.0791542
-0.0243561
0.0825215
-0.0392593
0.0853514
-0.0556916
0.0875252
-0.0727338
0.0888802
-0.0891313
0.0892148
-0.10344
0.0883397
-0.114359
0.0860927
-0.121118
0.0821775
-0.1237
0.0759547
-0.123002
0.0667992
-0.120943
0.0553988
-0.119602
0.0447543
-0.118732
0.0391708
-0.11394
0.0415727
-0.0985377
0.0517315
-0.0685179
0.0671833
-0.0259983
0.0849189
0.022908
0.102238
0.069852
0.117259
0.108929
0.128827
0.137429
0.136211
0.15698
0.139141
0.173669
0.138498
0.19302
0.136531
0.210489
0.135738
0.209219
0.137291
0.171433
0.140958
0.0949197
0.145732
-0.00270227
0.150298
-0.0925998
0.15296
-0.15621
0.153101
-0.190508
0.151549
-0.20269
0.148315
-0.201625
0.141691
-0.198681
0.131746
-0.202443
0.122609
-0.196657
0.119698
-0.162729
0.124847
-0.0843142
0.135619
0.00713913
0.146908
0.100196
0.153764
0.171787
0.153613
0.239045
0.147933
0.291918
0.141436
0.292244
0.138399
0.233106
0.140913
0.0762954
0.146453
-0.035951
0.149159
-0.160926
0.14635
-0.210508
0.140853
-0.270332
0.138733
-0.316391
0.139012
-0.179839
0.138745
-0.138635
0.136068
0.147709
0.244183
0.0869805
0.00987577
0.0914519
0.00360256
0.0959526
-0.0051593
0.0998351
-0.0153885
0.103108
-0.0276292
0.105677
-0.0418285
0.107411
-0.057425
0.108162
-0.073485
0.107804
-0.0887738
0.10625
-0.101885
0.103477
-0.111586
0.0995543
-0.117195
0.0945652
-0.118711
0.0882974
-0.116734
0.0799385
-0.112584
0.0687734
-0.108437
0.0559761
-0.105935
0.0454166
-0.10338
0.0417578
-0.0948788
0.0472199
-0.0739801
0.0603043
-0.0390827
0.0778051
0.0054072
0.0961878
0.0514694
0.112992
0.092125
0.126519
0.123902
0.135756
0.147743
0.140563
0.168862
0.142066
0.191517
0.142351
0.210204
0.143197
0.208373
0.145146
0.169484
0.147926
0.0921407
0.151032
-0.00580867
0.15362
-0.0951876
0.154489
-0.157079
0.153098
-0.189118
0.150334
-0.199925
0.146605
-0.197896
0.140219
-0.192295
0.130573
-0.192796
0.121235
-0.18732
0.117861
-0.159355
0.122934
-0.0893871
0.134252
-0.00417946
0.146362
0.0880862
0.154088
0.164062
0.154841
0.238293
0.149961
0.296798
0.143911
0.298293
0.140527
0.23649
0.142216
0.0746059
0.147229
-0.0409641
0.149821
-0.163517
0.146977
-0.207665
0.141151
-0.264506
0.138941
-0.314181
0.139198
-0.180096
0.13891
-0.138348
0.136221
0.150398
0.247062
0.110393
0.00526797
0.114988
-0.000992253
0.119135
-0.00930617
0.122582
-0.0188352
0.125223
-0.0302701
0.126913
-0.0435183
0.127459
-0.0579715
0.1267
-0.0727263
0.124565
-0.0866385
0.121096
-0.098416
0.11646
-0.106951
0.110916
-0.111651
0.104753
-0.112548
0.0981502
-0.110131
0.090744
-0.105178
0.0814044
-0.0990971
0.0694343
-0.0939648
0.0566595
-0.0906055
0.0476884
-0.0859077
0.0470524
-0.0733442
0.0557913
-0.0478216
0.0714732
-0.0102747
0.0899947
0.0329478
0.108026
0.0740937
0.123227
0.108701
0.134304
0.136666
0.141183
0.161982
0.145068
0.187632
0.147715
0.207557
0.150178
0.205911
0.152429
0.167233
0.154334
0.090235
0.155821
-0.00729517
0.156477
-0.0958437
0.155596
-0.156197
0.152809
-0.186331
0.148938
-0.196054
0.144747
-0.193705
0.138716
-0.186264
0.129612
-0.183692
0.120281
-0.177988
0.116412
-0.155487
0.121187
-0.0941619
0.13279
-0.0157823
0.14561
0.0752659
0.154257
0.155415
0.156061
0.236489
0.152123
0.300736
0.146609
0.303808
0.142886
0.240213
0.143666
0.0738263
0.148058
-0.0453564
0.150514
-0.165973
0.147672
-0.204823
0.141491
-0.258324
0.139132
-0.311822
0.139427
-0.180392
0.139185
-0.138105
0.136518
0.153065
0.249993
0.133067
0.00112403
0.137282
-0.00520753
0.140753
-0.0127769
0.14341
-0.0214919
0.145086
-0.0319463
0.145587
-0.0440197
0.144676
-0.0570599
0.142211
-0.0702617
0.1382
-0.0826277
0.132818
-0.093034
0.126412
-0.100544
0.119425
-0.104665
0.112274
-0.105397
0.105268
-0.103125
0.098445
-0.0983553
0.0910986
-0.0917507
0.0818085
-0.0846747
0.0701145
-0.0789116
0.0585737
-0.0743669
0.0522143
-0.0669847
0.0549408
-0.0505481
0.0665723
-0.0219063
0.0837072
0.015813
0.102091
0.0557103
0.118593
0.0921981
0.131481
0.123779
0.140585
0.152878
0.147007
0.18121
0.152064
0.2025
0.15612
0.201855
0.158747
0.164605
0.159902
0.0890796
0.159953
-0.00734628
0.158777
-0.0946673
0.15621
-0.15363
0.152175
-0.182296
0.147333
-0.191213
0.142699
-0.189071
0.137083
-0.180648
0.128727
-0.175335
0.119618
-0.168879
0.11528
-0.151149
0.119542
-0.098424
0.131165
-0.0274049
0.144574
0.0618561
0.15419
0.145799
0.157187
0.233492
0.154325
0.303597
0.14944
0.308693
0.1454
0.244252
0.145245
0.0739823
0.148916
-0.0490281
0.151207
-0.168264
0.148414
-0.20203
0.141867
-0.251777
0.139296
-0.309251
0.139684
-0.18078
0.139553
-0.137974
0.136948
0.15567
0.252954
0.155566
-0.00207041
0.158359
-0.00800004
0.160524
-0.014942
0.161763
-0.0227313
0.161937
-0.0321205
0.160796
-0.0428786
0.158102
-0.0543653
0.153775
-0.0659355
0.147914
-0.0767661
0.140805
-0.085925
0.132914
-0.0926533
0.124793
-0.0965442
0.116945
-0.0975488
0.109706
-0.0958859
0.103229
-0.0918781
0.0972868
-0.0858089
0.0908242
-0.0782121
0.0823159
-0.0704032
0.0717392
-0.0637903
0.0622856
-0.0575311
0.0589645
-0.047227
0.0647027
-0.0276444
0.0782142
0.00230143
0.0954713
0.0384533
0.112569
0.0751008
0.12708
0.109267
0.138459
0.1415
0.147494
0.172176
0.154974
0.19502
0.160598
0.196231
0.163647
0.161556
0.164332
0.0883943
0.163233
-0.00624722
0.160414
-0.0918484
0.156264
-0.14948
0.151129
-0.177161
0.145477
-0.185561
0.140419
-0.184013
0.135223
-0.175452
0.127771
-0.167884
0.119094
-0.160202
0.114344
-0.146399
0.117919
-0.101999
0.129315
-0.0388007
0.143179
0.047992
0.153798
0.13518
0.158111
0.229179
0.156452
0.305256
0.152292
0.312854
0.147999
0.248544
0.146902
0.0750793
0.149778
-0.0519038
0.151867
-0.170353
0.149178
-0.199341
0.142272
-0.24487
0.139427
-0.306407
0.139952
-0.181305
0.139997
-0.138019
0.137497
0.158171
0.255917
0.175339
-0.00335665
0.176375
-0.00903588
0.176624
-0.0151908
0.175947
-0.0220548
0.174229
-0.0304027
0.171184
-0.0398337
0.166631
-0.0498115
0.160569
-0.0598737
0.153168
-0.0693648
0.144785
-0.0775419
0.135931
-0.0837995
0.127169
-0.0877822
0.118999
-0.0893787
0.11176
-0.0886475
0.105608
-0.085726
0.100519
-0.0807198
0.0960317
-0.0737246
0.0908697
-0.0652413
0.0836152
-0.0565357
0.0747547
-0.0486706
0.0678501
-0.0403223
0.0674522
-0.0272466
0.0753698
-0.00561613
0.0894394
0.0243837
0.105798
0.0587424
0.121308
0.0937569
0.134749
0.128059
0.146339
0.160586
0.156197
0.185162
0.163365
0.189063
0.16695
0.157972
0.167414
0.0879303
0.165498
-0.00433194
0.161273
-0.0876233
0.155662
-0.143869
0.149566
-0.171066
0.143288
-0.179283
0.137842
-0.178567
0.133028
-0.170637
0.126596
-0.161452
0.118548
-0.152154
0.113472
-0.141323
0.116234
-0.104761
0.127168
-0.0497349
0.141348
0.0338124
0.152987
0.123541
0.158736
0.22343
0.158395
0.305597
0.155045
0.316204
0.150583
0.253006
0.148599
0.0770624
0.150615
-0.0539192
0.152458
-0.172196
0.149934
-0.196817
0.142698
-0.237634
0.139522
-0.303231
0.140219
-0.182002
0.140498
-0.138298
0.138155
0.160513
0.258848
0.188552
-0.00319758
0.187802
-0.00828512
0.186103
-0.0134917
0.183601
-0.0195528
0.180141
-0.0269434
0.175451
-0.0351434
0.16944
-0.0438008
0.162171
-0.0526041
0.153848
-0.0610422
0.144848
-0.0685414
0.135662
-0.0746134
0.126801
-0.0789212
0.118703
-0.0812811
0.111676
-0.0816207
0.105883
-0.0799324
0.101368
-0.076205
0.098017
-0.0703738
0.0952067
-0.0624311
0.0915768
-0.0529058
0.0859393
-0.0430332
0.0792181
-0.0336011
0.0749884
-0.023017
0.0770342
-0.00766189
0.0860489
0.015369
0.0997775
0.0450138
0.115017
0.0785171
0.129824
0.113252
0.143594
0.146817
0.155658
0.173097
0.164396
0.180325
0.168687
0.153681
0.169187
0.0874303
0.166743
-0.00188771
0.161303
-0.0821835
0.154342
-0.136908
0.1474
-0.164123
0.140695
-0.172577
0.134931
-0.172804
0.130422
-0.166128
0.125073
-0.156103
0.117849
-0.14493
0.112546
-0.136021
0.114397
-0.106611
0.124659
-0.059997
0.139016
0.0194552
0.151674
0.110883
0.158929
0.216175
0.159995
0.304532
0.157567
0.318631
0.153055
0.257519
0.150288
0.0798292
0.151401
-0.0550321
0.152951
-0.173746
0.150649
-0.194515
0.14314
-0.230125
0.139587
-0.299678
0.140477
-0.182892
0.141038
-0.138859
0.138913
0.162639
0.26171
0.191948
-0.00231692
0.190038
-0.0063752
0.187168
-0.0106216
0.183601
-0.0159855
0.179115
-0.0224573
0.173542
-0.0295705
0.166875
-0.0371339
0.159197
-0.044926
0.150722
-0.0525672
0.141804
-0.0596237
0.132877
-0.0656861
0.124373
-0.070417
0.116658
-0.0735667
0.110002
-0.0749642
0.104574
-0.0745042
0.100447
-0.0720786
0.0976069
-0.0675333
0.0959032
-0.0607274
0.094722
-0.0517246
0.0927872
-0.0410984
0.0891097
-0.0299236
0.0848471
-0.0187544
0.0833416
-0.00615632
0.0870354
0.0116751
0.096474
0.0355753
0.109636
0.0653554
0.124517
0.0983702
0.139781
0.131553
0.153697
0.159181
0.163733
0.17029
0.168834
0.14858
0.169882
0.0863829
0.167185
0.000808634
0.160754
-0.0757517
0.152576
-0.12873
0.144876
-0.156424
0.137902
-0.165604
0.131887
-0.166788
0.127527
-0.161768
0.123209
-0.151785
0.116963
-0.138684
0.111537
-0.130595
0.112378
-0.107451
0.121742
-0.0693612
0.136099
0.00509838
0.149772
0.0972097
0.158658
0.207289
0.161217
0.301973
0.159748
0.320101
0.155322
0.261945
0.151954
0.083197
0.152136
-0.0552138
0.153348
-0.174958
0.151306
-0.192473
0.143598
-0.222416
0.139646
-0.295727
0.140733
-0.183979
0.141602
-0.139728
0.139759
0.164481
0.264464
0.185916
-0.00116026
0.183579
-0.00403823
0.180642
-0.00768395
0.177017
-0.0123608
0.172468
-0.0179085
0.167002
-0.0241038
0.160649
-0.0307811
0.153488
-0.0377655
0.14572
-0.0447989
0.137651
-0.0515547
0.129642
-0.057677
0.122046
-0.0628213
0.11516
-0.0666803
0.109191
-0.0689957
0.104257
-0.0695705
0.100426
-0.0682473
0.0977624
-0.0648695
0.0963185
-0.0592835
0.0959836
-0.0513897
0.0961083
-0.0412232
0.0955067
-0.029322
0.0935981
-0.0168458
0.0914277
-0.0039859
0.0922438
0.010859
0.097431
0.0303881
0.107065
0.0557209
0.120063
0.0853727
0.135055
0.116561
0.1497
0.144536
0.16105
0.158939
0.167881
0.141749
0.170005
0.0842591
0.167211
0.00360296
0.15965
-0.0681904
0.15051
-0.11959
0.142273
-0.148187
0.135186
-0.158517
0.12898
-0.160582
0.124567
-0.157355
0.121092
-0.14831
0.115907
-0.133499
0.110477
-0.125165
0.110261
-0.107235
0.118564
-0.0776648
0.132698
-0.0090355
0.147173
0.0827342
0.157634
0.196828
0.161782
0.297825
0.16142
0.320462
0.157285
0.26608
0.153549
0.0869325
0.152789
-0.0544536
0.153645
-0.175814
0.151887
-0.190715
0.144063
-0.214592
0.13971
-0.291374
0.140985
-0.185254
0.142184
-0.140926
0.140687
0.165978
0.267069
0.208681
-0.000145557
-0.209695
0.208397
-0.00375435
0.208017
-0.00730446
0.207259
-0.0116024
0.205988
-0.0166373
0.204102
-0.0222182
0.201519
-0.028198
0.19816
-0.0344071
0.193997
-0.0406353
0.189067
-0.0466251
0.18347
-0.05208
0.177342
-0.056693
0.170838
-0.0601763
0.164119
-0.0622769
0.157336
-0.062787
0.150628
-0.0615395
0.144131
-0.0583727
0.13798
-0.0531325
0.132309
-0.0457187
0.127078
-0.0359919
0.121755
-0.0239991
0.115562
-0.0106531
0.108402
0.00317404
0.101487
0.0177748
0.0968126
0.0350621
0.0959241
0.0566095
0.0995209
0.0817759
0.107403
0.108679
0.118875
0.133063
0.134262
0.143553
0.153581
0.12243
0.172219
0.0656206
0.183805
-0.00798257
0.187161
-0.071547
0.18359
-0.116019
0.176512
-0.14111
0.168064
-0.150069
0.159155
-0.151673
0.151162
-0.149362
0.144179
-0.141327
0.136093
-0.125413
0.127058
-0.11613
0.121342
-0.101519
0.122073
-0.0783956
0.127453
-0.0144154
0.132676
0.0775112
0.135639
0.193865
0.137298
0.296166
0.1405
0.317259
0.145147
0.261433
0.149711
0.0823684
0.153126
-0.0578682
0.154356
-0.177043
0.151261
-0.187621
0.142772
-0.206103
0.135585
-0.284187
0.133347
-0.183016
0.131131
-0.13871
0.128014
0.169095
0.269271
0.218484
0.000445998
-0.219076
0.217849
-0.00311875
0.217317
-0.00677304
0.216469
-0.0107545
0.215089
-0.0152576
0.213112
-0.0202406
0.210476
-0.0255624
0.20713
-0.031061
0.203053
-0.0365578
0.19827
-0.0418427
0.19286
-0.0466703
0.186943
-0.0507754
0.180665
-0.0538982
0.174188
-0.0558005
0.167675
-0.0562738
0.161278
-0.0551429
0.155145
-0.052239
0.149399
-0.0473863
0.144161
-0.0404811
0.139545
-0.0313755
0.135398
-0.0198523
0.131026
-0.00628087
0.125817
0.00838292
0.120055
0.0235362
0.115203
0.0399138
0.113328
0.0584852
0.116008
0.0790958
0.123602
0.101085
0.135897
0.120768
0.153112
0.126338
0.173341
0.102201
0.19086
0.0481019
0.200403
-0.0175259
0.201564
-0.0727086
0.19623
-0.110684
0.187839
-0.132719
0.17865
-0.14088
0.169283
-0.142306
0.160791
-0.14087
0.153682
-0.134217
0.145902
-0.117633
0.136812
-0.107041
0.130228
-0.0949348
0.130145
-0.0783132
0.135239
-0.019509
0.140885
0.0718654
0.144536
0.190215
0.147143
0.293559
0.151599
0.312803
0.157247
0.255785
0.162152
0.0774633
0.165129
-0.0608456
0.16564
-0.177554
0.162098
-0.184079
0.152669
-0.196674
0.144598
-0.276116
0.142033
-0.18045
0.139731
-0.136408
0.136475
0.172351
0.271579
0.227614
0.000712858
-0.227881
0.227076
-0.00258087
0.226407
-0.0061038
0.225448
-0.00979541
0.224024
-0.0138332
0.222036
-0.0182533
0.219436
-0.0229625