/*--------------------------------*- C++ -*----------------------------------*\
| =========                 |                                                 |
| \\      /  F ield         | OpenFOAM: The Open Source CFD Toolbox           |
|  \\    /   O peration     | Version:  2512                                  |
|   \\  /    A nd           | Website:  www.openfoam.com                      |
|    \\/     M anipulation  |                                                 |
\*---------------------------------------------------------------------------*/
FoamFile
{
    version     2.0;
    format      ascii;
    arch        "LSB;label=32;scalar=64";
    class       volScalarField;
    location    "185";
    object      p;
}
// * * * * * * * * * * * * * * * * * * * * * * * * * * * * * * * * * * * * * //

dimensions      [0 2 -2 0 0 0 0];

internalField   nonuniform List<scalar> 
13248
(
-0.344862
-0.343918
-0.342538
-0.340772
-0.338584
-0.335864
-0.332449
-0.328151
-0.322792
-0.316231
-0.308385
-0.299248
-0.288902
-0.277515
-0.265325
-0.252613
-0.23968
-0.226812
-0.214258
-0.202231
-0.190845
-0.180282
-0.170331
-0.161365
-0.353151
-0.351153
-0.348839
-0.346222
-0.343227
-0.339752
-0.335631
-0.33066
-0.324645
-0.317439
-0.308969
-0.299255
-0.288416
-0.276652
-0.264224
-0.251417
-0.238514
-0.225766
-0.213377
-0.201502
-0.19023
-0.179638
-0.169613
-0.160359
-0.362342
-0.359224
-0.355893
-0.352333
-0.348433
-0.344095
-0.33914
-0.333342
-0.32649
-0.318436
-0.30913
-0.298636
-0.287118
-0.274819
-0.26202
-0.249007
-0.23604
-0.223335
-0.211056
-0.199316
-0.188165
-0.177658
-0.16768
-0.15835
-0.372651
-0.368332
-0.363925
-0.359367
-0.354486
-0.349169
-0.343212
-0.336358
-0.328388
-0.319181
-0.308743
-0.297206
-0.2848
-0.271812
-0.25854
-0.245257
-0.232192
-0.219515
-0.207343
-0.195745
-0.184745
-0.17437
-0.164513
-0.155352
-0.384284
-0.378671
-0.373142
-0.367547
-0.361601
-0.355149
-0.347946
-0.339719
-0.330277
-0.31957
-0.307704
-0.294907
-0.28148
-0.26774
-0.253978
-0.240434
-0.227283
-0.214641
-0.202576
-0.191118
-0.180272
-0.170037
-0.160334
-0.151305
-0.397343
-0.390346
-0.383661
-0.376981
-0.369845
-0.36202
-0.35323
-0.343228
-0.331912
-0.319368
-0.305837
-0.291647
-0.277149
-0.26266
-0.248432
-0.234645
-0.221413
-0.208797
-0.196822
-0.185489
-0.174783
-0.164685
-0.155136
-0.146244
-0.411755
-0.403312
-0.395443
-0.387596
-0.37906
-0.369518
-0.358705
-0.346479
-0.332911
-0.318272
-0.302944
-0.287333
-0.271796
-0.256608
-0.241955
-0.227948
-0.214637
-0.202038
-0.190139
-0.178917
-0.168345
-0.158386
-0.149004
-0.140239
-0.427232
-0.417332
-0.408249
-0.399087
-0.388839
-0.37713
-0.363805
-0.34893
-0.332823
-0.315954
-0.29882
-0.281848
-0.265353
-0.249537
-0.234505
-0.220297
-0.206911
-0.194321
-0.18249
-0.171378
-0.16094
-0.151137
-0.141936
-0.133312
-0.443248
-0.431945
-0.421605
-0.410899
-0.398521
-0.384137
-0.367832
-0.349989
-0.331204
-0.312118
-0.293277
-0.275072
-0.257733
-0.241372
-0.226013
-0.211634
-0.198188
-0.185617
-0.173865
-0.162873
-0.152587
-0.142962
-0.133962
-0.125502
-0.459036
-0.446443
-0.43477
-0.422202
-0.407214
-0.389665
-0.370031
-0.349077
-0.327653
-0.306499
-0.286136
-0.266865
-0.248813
-0.231999
-0.216375
-0.201867
-0.188393
-0.175871
-0.164223
-0.153378
-0.143272
-0.133854
-0.125069
-0.116801
-0.473606
-0.459872
-0.446739
-0.431921
-0.413835
-0.392734
-0.369596
-0.345574
-0.321697
-0.298712
-0.277052
-0.2569
-0.238276
-0.221113
-0.205303
-0.190732
-0.177288
-0.164866
-0.153374
-0.142727
-0.132852
-0.123687
-0.115148
-0.107126
-0.485846
-0.471161
-0.456418
-0.438929
-0.41729
-0.392345
-0.365651
-0.338699
-0.312609
-0.288055
-0.265336
-0.244504
-0.225471
-0.208095
-0.192218
-0.177688
-0.164369
-0.152138
-0.140888
-0.130525
-0.120969
-0.112145
-0.103943
-0.0963068
-0.355015
-0.357023
-0.358165
-0.358946
-0.359862
-0.361098
-0.362721
-0.364737
-0.367121
-0.369827
-0.372799
-0.375969
-0.379253
-0.382544
-0.385704
-0.388568
-0.390937
-0.392573
-0.393192
-0.392379
-0.390288
-0.386456
-0.38086
-0.37384
-0.344686
-0.347357
-0.348803
-0.349627
-0.350382
-0.351238
-0.352235
-0.353364
-0.354576
-0.355807
-0.356979
-0.358006
-0.35879
-0.359221
-0.359179
-0.358532
-0.357147
-0.354921
-0.351846
-0.346856
-0.340878
-0.333607
-0.325199
-0.3168
-0.335476
-0.338641
-0.340308
-0.341142
-0.341724
-0.342198
-0.342582
-0.342844
-0.342919
-0.342718
-0.342147
-0.341103
-0.339479
-0.337163
-0.334045
-0.330015
-0.324962
-0.318748
-0.311177
-0.303216
-0.294006
-0.283646
-0.272464
-0.262344
-0.327877
-0.331353
-0.333156
-0.333973
-0.334387
-0.334511
-0.334337
-0.333814
-0.332856
-0.331363
-0.329223
-0.326324
-0.322557
-0.317821
-0.312025
-0.305101
-0.297003
-0.287721
-0.277314
-0.266032
-0.253945
-0.241153
-0.227829
-0.215854
-0.322226
-0.325831
-0.327683
-0.328459
-0.328715
-0.32853
-0.327871
-0.326666
-0.324817
-0.32221
-0.318728
-0.314257
-0.308694
-0.301954
-0.293978
-0.284743
-0.274267
-0.262623
-0.249949
-0.236466
-0.222459
-0.208252
-0.194071
-0.179226
-0.318711
-0.322272
-0.324085
-0.32479
-0.324892
-0.324437
-0.323365
-0.321589
-0.318998
-0.315471
-0.310889
-0.305143
-0.298143
-0.289828
-0.280175
-0.269209
-0.257008
-0.243714
-0.229535
-0.214747
-0.199685
-0.184731
-0.170056
-0.156394
-0.317379
-0.320726
-0.322411
-0.323006
-0.322952
-0.32226
-0.320845
-0.318607
-0.315424
-0.311171
-0.305732
-0.299007
-0.290924
-0.281449
-0.270599
-0.258448
-0.245133
-0.230858
-0.215901
-0.20059
-0.185309
-0.170461
-0.156558
-0.142778
-0.318143
-0.321114
-0.322576
-0.323015
-0.322792
-0.321886
-0.320192
-0.317594
-0.313962
-0.309172
-0.30311
-0.295687
-0.286855
-0.276611
-0.265011
-0.252178
-0.238307
-0.22366
-0.208561
-0.193381
-0.178549
-0.164268
-0.151857
-0.138115
-0.320813
-0.323255
-0.324386
-0.324604
-0.324181
-0.323066
-0.321134
-0.318254
-0.314292
-0.309119
-0.302628
-0.294746
-0.285444
-0.274755
-0.262777
-0.249681
-0.23571
-0.221173
-0.206428
-0.191842
-0.177924
-0.164503
-0.153719
-0.14101
-0.325106
-0.326868
-0.327559
-0.327471
-0.326789
-0.325429
-0.323255
-0.320123
-0.315889
-0.310421
-0.30362
-0.295426
-0.285839
-0.274922
-0.262819
-0.249742
-0.235977
-0.221859
-0.207761
-0.194018
-0.181149
-0.168859
-0.159213
-0.148336
-0.330713
-0.331668
-0.33179
-0.331275
-0.330221
-0.328531
-0.326051
-0.322625
-0.318098
-0.312339
-0.305253
-0.296799
-0.287004
-0.275967
-0.26387
-0.250963
-0.237551
-0.223975
-0.210585
-0.197696
-0.185685
-0.174516
-0.165396
-0.15626
-0.337359
-0.3374
-0.33682
-0.335732
-0.334164
-0.332008
-0.329106
-0.325286
-0.320386
-0.31427
-0.306852
-0.298108
-0.288092
-0.27694
-0.264862
-0.25213
-0.239052
-0.225948
-0.213115
-0.20083
-0.189297
-0.178717
-0.169471
-0.161216
-0.363889
-0.349131
-0.331209
-0.310978
-0.290083
-0.270645
-0.255043
-0.245387
-0.243236
-0.248819
-0.260679
-0.2754
-0.287973
-0.292808
-0.285511
-0.263768
-0.229677
-0.189983
-0.152691
-0.123277
-0.103685
-0.0934119
-0.090992
-0.0956526
-0.108285
-0.128815
-0.151552
-0.165675
-0.162619
-0.144127
-0.118697
-0.0952912
-0.0789671
-0.0704477
-0.0682543
-0.072914
-0.0864006
-0.105123
-0.118282
-0.11585
-0.100031
-0.0809153
-0.0652077
-0.0552721
-0.0510591
-0.0540815
-0.0602775
-0.0623104
-0.0576842
-0.0512358
-0.0440014
-0.0397872
-0.0375264
-0.0369173
-0.0372667
-0.035784
-0.028661
-0.0216488
-0.0111712
-0.00223012
-0.307349
-0.295507
-0.282393
-0.268701
-0.256114
-0.246254
-0.241007
-0.241801
-0.249592
-0.263679
-0.281804
-0.300203
-0.314178
-0.318753
-0.309584
-0.284689
-0.246555
-0.202545
-0.161184
-0.128101
-0.105082
-0.0914449
-0.085711
-0.0868807
-0.0954081
-0.111549
-0.130944
-0.144263
-0.143364
-0.129025
-0.107951
-0.0883958
-0.0753736
-0.0696354
-0.0699307
-0.0772178
-0.093579
-0.114753
-0.1291
-0.125911
-0.107922
-0.0859101
-0.0672657
-0.0549734
-0.0484587
-0.049282
-0.0534179
-0.0547296
-0.0512264
-0.0466219
-0.0417211
-0.0394013
-0.0396089
-0.0405759
-0.0416176
-0.0400791
-0.0316312
-0.0236479
-0.0114814
-0.00181335
-0.25376
-0.244396
-0.235831
-0.228095
-0.22299
-0.222314
-0.226074
-0.235857
-0.25167
-0.272083
-0.294428
-0.315039
-0.329755
-0.334238
-0.324102
-0.297397
-0.256899
-0.210314
-0.166389
-0.130795
-0.105177
-0.088715
-0.0799166
-0.0776897
-0.0821528
-0.0937949
-0.109627
-0.121925
-0.123034
-0.112669
-0.0958712
-0.0802141
-0.0705837
-0.0676993
-0.0705358
-0.0803954
-0.0993971
-0.122793
-0.138291
-0.134619
-0.114811
-0.0902185
-0.0688558
-0.0543822
-0.0457907
-0.0446342
-0.0468813
-0.0474707
-0.0448794
-0.0419047
-0.039246
-0.038863
-0.0416815
-0.0442694
-0.0458768
-0.0442043
-0.034454
-0.0255381
-0.0117824
-0.00142504
-0.209036
-0.201245
-0.196038
-0.193824
-0.195021
-0.200708
-0.211634
-0.228021
-0.249248
-0.273607
-0.298376
-0.32012
-0.335215
-0.339695
-0.329269
-0.301976
-0.260747
-0.213366
-0.168488
-0.131626
-0.104289
-0.0856448
-0.0742336
-0.0689153
-0.0695566
-0.0767827
-0.0888576
-0.0997551
-0.10299
-0.095629
-0.0828685
-0.0710081
-0.0647022
-0.064584
-0.0698464
-0.0820473
-0.103395
-0.128837
-0.145537
-0.141726
-0.120526
-0.0937565
-0.0699834
-0.0535485
-0.0431343
-0.0402545
-0.0408135
-0.0406665
-0.0387539
-0.0371546
-0.036607
-0.0381639
-0.0437126
-0.0479583
-0.050003
-0.0481115
-0.0370937
-0.0272973
-0.0120691
-0.0010647
-0.17555
-0.169525
-0.166741
-0.167561
-0.17283
-0.183005
-0.198328
-0.218533
-0.242687
-0.268977
-0.294739
-0.316753
-0.331932
-0.336402
-0.326078
-0.299187
-0.258761
-0.212344
-0.168105
-0.131127
-0.102848
-0.0825967
-0.0690546
-0.061104
-0.0583611
-0.0614054
-0.0696144
-0.0785733
-0.0826181
-0.0783197
-0.069327
-0.0610112
-0.0577929
-0.0602168
-0.0676739
-0.0819035
-0.105279
-0.132558
-0.15053
-0.147016
-0.124947
-0.0964839
-0.0706826
-0.0525372
-0.0405551
-0.0362057
-0.0353024
-0.0344178
-0.0329499
-0.0324444
-0.0338311
-0.0372916
-0.0456625
-0.051592
-0.0539444
-0.0517482
-0.0395145
-0.0289041
-0.0123363
-0.000731801
-0.153196
-0.148463
-0.146887
-0.149559
-0.156967
-0.169313
-0.186525
-0.208144
-0.233142
-0.259715
-0.285303
-0.307067
-0.321834
-0.326028
-0.315981
-0.290263
-0.25194
-0.20802
-0.165793
-0.129737
-0.101231
-0.0798808
-0.0646458
-0.0545039
-0.0489437
-0.0483068
-0.0526751
-0.0592296
-0.0632695
-0.0613754
-0.0556659
-0.0504834
-0.0499743
-0.0546293
-0.0639942
-0.0798845
-0.104898
-0.133774
-0.153097
-0.150335
-0.127988
-0.0983707
-0.0709792
-0.0513971
-0.0380927
-0.0325146
-0.0303902
-0.0287901
-0.0275525
-0.0278414
-0.0309439
-0.0362301
-0.0474797
-0.0551097
-0.0576468
-0.0550658
-0.0416828
-0.0303366
-0.0125759
-0.000424444
-0.141103
-0.137543
-0.135925
-0.138688
-0.146558
-0.15931
-0.176537
-0.197741
-0.221987
-0.247553
-0.27199
-0.292677
-0.306517
-0.310114
-0.300516
-0.276688
-0.241573
-0.201349
-0.162177
-0.127858
-0.0997346
-0.0777379
-0.0611922
-0.0492603
-0.0413761
-0.0376627
-0.0384751
-0.0423689
-0.0457746
-0.0454727
-0.042341
-0.0397594
-0.0414917
-0.0480018
-0.0589102
-0.0760118
-0.102211
-0.132431
-0.153155
-0.151584
-0.129597
-0.0993934
-0.0708857
-0.0501609
-0.0357674
-0.029176
-0.0260654
-0.023808
-0.0226281
-0.0234102
-0.0279715
-0.0349597
-0.0491071
-0.0584392
-0.0610579
-0.0580219
-0.0435687
-0.0315767
-0.0127785
-0.00013852
-0.138033
-0.135353
-0.132548
-0.133935
-0.140877
-0.152633
-0.16845
-0.187895
-0.21019
-0.233866
-0.25695
-0.274641
-0.287053
-0.290022
-0.281201
-0.259911
-0.228853
-0.193129
-0.157683
-0.125668
-0.098421
-0.076194
-0.0586987
-0.0453569
-0.0356142
-0.0294234
-0.0271525
-0.0283421
-0.030625
-0.0312559
-0.0297587
-0.0292261
-0.0326758
-0.0405785
-0.0526055
-0.0704659
-0.0973306
-0.128585
-0.150757
-0.150729
-0.12975
-0.099546
-0.0704148
-0.048854
-0.0335927
-0.026178
-0.0222913
-0.019455
-0.0182364
-0.0192102
-0.0249414
-0.033463
-0.0504828
-0.0614986
-0.0641303
-0.0605832
-0.0451488
-0.0326144
-0.0129416
0.000132054
-0.141921
-0.139318
-0.134788
-0.134224
-0.139195
-0.148685
-0.161932
-0.178584
-0.197868
-0.218723
-0.24172
-0.254919
-0.264898
-0.267227
-0.25954
-0.24136
-0.214901
-0.18407
-0.152657
-0.123274
-0.0972846
-0.0752193
-0.0571312
-0.0427351
-0.0315603
-0.0234392
-0.0186386
-0.0172644
-0.0180489
-0.0188946
-0.0182024
-0.0192704
-0.0238803
-0.0326628
-0.045316
-0.063393
-0.0904813
-0.122483
-0.146081
-0.147838
-0.128513
-0.0989194
-0.0696733
-0.0475798
-0.0316285
-0.0235283
-0.0190556
-0.0157127
-0.0143913
-0.015289
-0.0218808
-0.031719
-0.0515478
-0.064208
-0.0668218
-0.0627243
-0.0464093
-0.0334454
-0.0130755
0.000392227
-0.148842
-0.145418
-0.139765
-0.137666
-0.140109
-0.146423
-0.156315
-0.169432
-0.184749
-0.200677
-0.21411
-0.231577
-0.241029
-0.243399
-0.237418
-0.222807
-0.201171
-0.17528
-0.147955
-0.121376
-0.0969285
-0.0753607
-0.0569832
-0.0417893
-0.0294748
-0.0198182
-0.0129617
-0.00923791
-0.00821332
-0.00828455
-0.00790634
-0.0102191
-0.015399
-0.0245407
-0.0373958
-0.0553352
-0.0821127
-0.114366
-0.139365
-0.143161
-0.12608
-0.0977094
-0.0688659
-0.0465363
-0.0300008
-0.0212416
-0.0163252
-0.0126028
-0.0111409
-0.0116691
-0.0188164
-0.0297324
-0.0522352
-0.0664814
-0.069087
-0.0644159
-0.0473384
-0.034057
-0.0131803
0.000645578
-0.154834
-0.150322
-0.14483
-0.141932
-0.141819
-0.144815
-0.151177
-0.160565
-0.172112
-0.184938
-0.19737
-0.209111
-0.217246
-0.220019
-0.216144
-0.205339
-0.188533
-0.1675
-0.144247
-0.12057
-0.0978369
-0.0769733
-0.0585059
-0.042669
-0.0293836
-0.0184789
-0.00995586
-0.00412807
-0.00117068
-0.00022287
0.000859114
-0.00242865
-0.00755766
-0.0164865
-0.0289204
-0.046147
-0.0724758
-0.105155
-0.131084
-0.137116
-0.12225
-0.0956636
-0.0677198
-0.0455301
-0.0285836
-0.0191964
-0.0138644
-0.00997778
-0.00855263
-0.00847134
-0.0157588
-0.0274314
-0.05253
-0.0682499
-0.070861
-0.0655915
-0.047886
-0.0344121
-0.0131983
0.000911918
-0.157528
-0.153258
-0.148666
-0.144969
-0.143158
-0.143735
-0.146923
-0.152463
-0.160025
-0.169379
-0.178734
-0.187625
-0.193602
-0.196082
-0.193764
-0.186096
-0.173379
-0.156578
-0.137041
-0.116227
-0.0954402
-0.0757081
-0.0577115
-0.0418264
-0.0281428
-0.0166473
-0.00722027
7.95187e-05
0.0047195
0.00637085
0.00461952
0.00404933
-0.000739532
-0.00915145
-0.0209663
-0.0372143
-0.0623194
-0.0942581
-0.120814
-0.126508
-0.115902
-0.0915011
-0.0647807
-0.0432718
-0.0264725
-0.01693
-0.0112528
-0.00731028
-0.00609393
-0.00554294
-0.0128766
-0.0249801
-0.0522999
-0.069402
-0.0721212
-0.0662318
-0.0479584
-0.0344705
-0.0130236
0.00124061
-0.154651
-0.153296
-0.148941
-0.14468
-0.142292
-0.14218
-0.144284
-0.148447
-0.154419
-0.161748
-0.168898
-0.175543
-0.180124
-0.181446
-0.178508
-0.170919
-0.158963
-0.14346
-0.125545
-0.106452
-0.087293
-0.0689513
-0.0520249
-0.0368597
-0.0235521
-0.0121426
-0.00254457
0.00526846
0.0108805
0.0136442
0.0131874
0.0119652
0.00757397
0.000313867
-0.0102315
-0.0256344
-0.0511883
-0.0855538
-0.1156
-0.128603
-0.111425
-0.0865905
-0.0604073
-0.0396609
-0.0234479
-0.0143901
-0.00867268
-0.00459162
-0.00297515
-0.00161078
-0.00907457
-0.021628
-0.051493
-0.0706867
-0.0733725
-0.0667379
-0.047664
-0.0342881
-0.0126867
0.00158488
-0.150662
-0.150921
-0.146856
-0.142304
-0.13957
-0.139065
-0.140488
-0.143498
-0.147733
-0.152508
-0.157714
-0.162162
-0.164763
-0.164583
-0.16095
-0.153589
-0.142715
-0.128943
-0.113128
-0.0962172
-0.0790864
-0.062468
-0.0468927
-0.0326913
-0.0200072
-0.00895915
0.000534275
0.00856413
0.0146945
0.0179992
0.0180056
0.0167895
0.0132533
0.00724284
-0.00199287
-0.0163725
-0.0418585
-0.0772867
-0.108014
-0.118239
-0.103335
-0.0796546
-0.0551596
-0.0359205
-0.0206744
-0.0120178
-0.00632531
-0.00242671
-0.000667081
0.000911464
-0.00628514
-0.0189228
-0.0505104
-0.0714668
-0.073754
-0.0664408
-0.0468876
-0.0336873
-0.0122604
0.00176797
-0.144191
-0.145932
-0.142731
-0.138371
-0.135502
-0.134677
-0.135471
-0.137389
-0.140091
-0.143208
-0.146394
-0.148856
-0.149833
-0.148655
-0.144807
-0.13803
-0.128408
-0.116336
-0.102424
-0.0874057
-0.0719959
-0.0568308
-0.0423994
-0.029042
-0.0169191
-0.00618479
0.00315587
0.0111783
0.0175548
0.0214001
0.0222145
0.0211753
0.0181117
0.0129204
0.00439577
-0.0095431
-0.0344844
-0.0685604
-0.0977947
-0.107348
-0.0940741
-0.0722258
-0.0497331
-0.0320858
-0.0178641
-0.00966924
-0.0040825
-0.000359966
0.00146272
0.0029953
-0.00416508
-0.016898
-0.0493956
-0.0714956
-0.0733712
-0.0654972
-0.0457262
-0.0327703
-0.0118003
0.00187234
-0.135922
-0.139213
-0.137125
-0.133216
-0.130325
-0.129195
-0.129436
-0.130516
-0.132078
-0.133825
-0.135438
-0.13645
-0.136314
-0.13449
-0.130542
-0.12423
-0.11557
-0.104834
-0.0924824
-0.0790869
-0.0652267
-0.0514339
-0.0381328
-0.0256494
-0.0141507
-0.0038039
0.00530716
0.0132055
0.0196941
0.0240553
0.0256445
0.0251321
0.0228213
0.0185087
0.0105961
-0.00290733
-0.0265917
-0.0585575
-0.0864261
-0.0956526
-0.083906
-0.0641959
-0.0439302
-0.0280557
-0.0150146
-0.00736012
-0.00193324
0.00164752
0.00347673
0.0049631
-0.00222269
-0.0148688
-0.0476514
-0.070639
-0.072297
-0.0639223
-0.0441764
-0.0315202
-0.0112758
0.00191934
-0.126979
-0.131361
-0.130299
-0.126966
-0.12419
-0.122867
-0.122708
-0.123167
-0.123865
-0.124567
-0.125065
-0.125036
-0.124065
-0.121732
-0.117693
-0.111753
-0.103902
-0.094328
-0.0833591
-0.0714253
-0.058978
-0.0464565
-0.0342264
-0.0225968
-0.0117458
-0.00184065
0.0069918
0.014706
0.0211675
0.0258539
0.0281197
0.0284147
0.0271312
0.0240016
0.0171219
0.00449936
-0.0177842
-0.0480052
-0.0743192
-0.0829854
-0.0729085
-0.0557262
-0.0379139
-0.0239192
-0.0121626
-0.00510448
0.000118189
0.00358399
0.00534132
0.00680071
-0.000265945
-0.0124628
-0.045042
-0.0687514
-0.0703708
-0.0616248
-0.0421977
-0.0299251
-0.0106737
0.00191046
-0.117649
-0.122676
-0.122501
-0.119808
-0.117272
-0.115879
-0.115439
-0.115447
-0.115536
-0.115511
-0.115213
-0.114417
-0.112827
-0.110138
-0.106086
-0.100512
-0.0933862
-0.0848232
-0.0750537
-0.0643992
-0.0532134
-0.041859
-0.0306481
-0.0198616
-0.00968189
-0.000273582
0.00822119
0.015707
0.0220548
0.0269128
0.0297241
0.0308209
0.0306557
0.0289847
0.0235871
0.0120312
-0.0090965
-0.0375038
-0.0616374
-0.0696137
-0.0614353
-0.0470672
-0.031824
-0.0197379
-0.00933199
-0.00291294
0.00205841
0.00543788
0.00706681
0.00849256
0.00171642
-0.00969947
-0.0415049
-0.0656112
-0.0674152
-0.0585507
-0.0397787
-0.0279904
-0.0099776
0.0018524
-0.108077
-0.113486
-0.114037
-0.111969
-0.109744
-0.108375
-0.107772
-0.107489
-0.107178
-0.106655
-0.105804
-0.104481
-0.102487
-0.0995983
-0.0956119
-0.0903939
-0.0839049
-0.0762155
-0.0674888
-0.057966
-0.0479208
-0.0376466
-0.0274063
-0.0174476
-0.00795071
0.000920215
0.00902078
0.0162385
0.0224315
0.027355
0.0305484
0.0323105
0.0331227
0.0328552
0.0290202
0.0185489
-0.00127679
-0.0273137
-0.0487113
-0.055988
-0.0498875
-0.0384771
-0.0258198
-0.0155933
-0.00655186
-0.000794193
0.00388089
0.00720654
0.00867813
0.0100398
0.00367866
-0.00668118
-0.0369683
-0.0610443
-0.0633181
-0.0546897
-0.0369329
-0.025737
-0.00917267
0.00175754
-0.0985448
-0.10409
-0.105183
-0.103678
-0.101794
-0.100527
-0.0998613
-0.0994114
-0.0988497
-0.0980111
-0.0968154
-0.0951728
-0.0929486
-0.0899808
-0.0861155
-0.081245
-0.07533
-0.0684137
-0.0606102
-0.0520979
-0.043086
-0.0338094
-0.0244881
-0.0153381
-0.00652943
0.00177659
0.00943761
0.0163423
0.0223387
0.027253
0.0306992
0.0329339
0.0344148
0.035138
0.0325558
0.0233094
0.00541155
-0.0175552
-0.0359239
-0.0426542
-0.0387205
-0.0302292
-0.0200592
-0.0115707
-0.00385078
0.00124746
0.00558857
0.00888968
0.010205
0.0114601
0.00561872
-0.00342647
-0.0314102
-0.0550025
-0.058042
-0.050077
-0.0337018
-0.0232052
-0.00824707
0.00164317
-0.0892164
-0.0947016
-0.0961767
-0.095158
-0.0936162
-0.0924985
-0.0918382
-0.0913086
-0.0906154
-0.0896099
-0.0882316
-0.0864255
-0.0841041
-0.0811539
-0.0774608
-0.072941
-0.0675586
-0.0613386
-0.0543596
-0.0467534
-0.0386798
-0.0303257
-0.0218738
-0.0135097
-0.00538943
0.00233479
0.00952235
0.0160696
0.0218261
0.0266594
0.0302455
0.032776
0.0346043
0.035778
0.0340049
0.0261983
0.0109301
-0.00842643
-0.0238562
-0.0302809
-0.0284074
-0.0225737
-0.0146778
-0.00775288
-0.00125975
0.00320627
0.00719007
0.0104887
0.0116886
0.0128059
0.00760831
6.68196e-05
-0.0249484
-0.0475949
-0.0516503
-0.0448076
-0.0301577
-0.0204556
-0.00719398
0.00153038
-0.0801976
-0.0854953
-0.0872157
-0.0865969
-0.0853734
-0.084425
-0.0838175
-0.0832766
-0.0825417
-0.0814773
-0.0800345
-0.078183
-0.0758692
-0.0730159
-0.0695399
-0.0653768
-0.0604952
-0.0549092
-0.0486736
-0.0418861
-0.0346688
-0.0271696
-0.0195385
-0.0119334
-0.00449512
0.00263769
0.00932813
0.0154804
0.0209554
0.0256292
0.0292479
0.0319344
0.0338946
0.035135
0.0338345
0.0275496
0.0152136
-0.00045829
-0.0132749
-0.0194936
-0.0193254
-0.0156977
-0.00977342
-0.00421089
0.00118761
0.00506907
0.00869185
0.0120038
0.0131831
0.0141678
0.00974491
0.00374364
-0.0178545
-0.0391275
-0.0443402
-0.0390312
-0.0263995
-0.0175678
-0.00601201
0.00144206
-0.0715959
-0.076599
-0.0784446
-0.0781416
-0.0772017
-0.0764262
-0.0759023
-0.0753999
-0.0746858
-0.0736371
-0.072216
-0.0704077
-0.0681815
-0.065486
-0.0622612
-0.0584585
-0.0540522
-0.0490505
-0.0434922
-0.03745
-0.0310172
-0.0243103
-0.0174521
-0.0105759
-0.00380633
0.00273182
0.00891045
0.0146386
0.0197879
0.024241
0.0278024
0.0305276
0.0324916
0.0336279
0.0326261
0.0277197
0.0181036
0.00577212
-0.00476091
-0.0106477
-0.0116609
-0.0096995
-0.00540171
-0.000997
0.00345758
0.00681417
0.0100901
0.0134225
0.0147285
0.0156483
0.0121027
0.00749505
-0.0105326
-0.0301117
-0.0364518
-0.0329451
-0.0225421
-0.0146384
-0.0047099
0.00140032
-0.0634457
-0.0680881
-0.0699727
-0.0699142
-0.0692202
-0.0686112
-0.0681851
-0.0677494
-0.0670968
-0.0661166
-0.0647777
-0.0630751
-0.060993
-0.0584981
-0.055548
-0.0521069
-0.0481546
-0.0436961
-0.0387593
-0.0333989
-0.0276864
-0.0217142
-0.0155819
-0.00940117
-0.00328122
0.00266675
0.0083267
0.0136084
0.0183948
0.0225901
0.0260169
0.0286816
0.0305687
0.0315622
0.0307699
0.0269729
0.0196165
0.0101103
0.00161058
-0.00373314
-0.00540788
-0.00459755
-0.00158289
0.0018573
0.00551974
0.00841753
0.0113714
0.0147107
0.0162963
0.0173148
0.0147043
0.0111773
-0.00348849
-0.0212004
-0.0284327
-0.0267881
-0.0187056
-0.0117716
-0.0033186
0.00141996
-0.0557643
-0.0600264
-0.0618904
-0.0620143
-0.0615267
-0.0610695
-0.0607433
-0.0603869
-0.05982
-0.0589415
-0.057724
-0.0561676
-0.0542666
-0.0520002
-0.049339
-0.0462566
-0.042738
-0.0387863
-0.0344224
-0.0296879
-0.0246382
-0.0193465
-0.0138936
-0.0083727
-0.0028784
0.00249138
0.00763287
0.0124579
0.0168623
0.0207557
0.0239882
0.0265247
0.0282941
0.0291605
0.0285336
0.0256114
0.0200554
0.0128379
0.00612782
0.00148743
-0.000441937
-0.000356841
0.00168731
0.00433981
0.0073481
0.00985697
0.0125199
0.0158186
0.0177618
0.0191183
0.0174304
0.0145744
0.00274698
-0.0130518
-0.0207534
-0.0208012
-0.015003
-0.00906528
-0.00189905
0.00149817
-0.0485958
-0.0524637
-0.0542571
-0.0545098
-0.0541907
-0.0538659
-0.0536346
-0.0533631
-0.0528938
-0.0521344
-0.0510599
-0.0496733
-0.0479748
-0.0459521
-0.0435847
-0.0408535
-0.0377474
-0.0342689
-0.0304341
-0.026275
-0.0218352
-0.0171728
-0.0123534
-0.00745473
-0.00255734
0.00225275
0.00688398
0.0112523
0.0152638
0.0188292
0.0218268
0.0241942
0.0258319
0.0266092
0.0261389
0.0239243
0.0197874
0.0143818
0.00918414
0.00531001
0.00340475
0.00308775
0.00442873
0.00645434
0.00892301
0.0111102
0.0135176
0.016702
0.0189552
0.020718
0.0198955
0.0173402
0.00773549
-0.00612097
-0.01381
-0.015214
-0.0115371
-0.00659936
-0.000537353
0.00160884
-0.0419488
-0.0454153
-0.0471032
-0.0474428
-0.0472603
-0.04705
-0.0469048
-0.0467147
-0.0463452
-0.0457122
-0.0447904
-0.043584
-0.0420967
-0.0403219
-0.0382452
-0.0358528
-0.0331366
-0.0300989
-0.0267524
-0.0231222
-0.0192427
-0.0151606
-0.0109292
-0.00661305
-0.00228013
0.00199397
0.00612973
0.0100496
0.0136672
0.0169005
0.0196414
0.021819
0.0233284
0.0240565
0.0237497
0.0221193
0.0190911
0.0151094
0.0111548
0.00802902
0.00631012
0.00581713
0.00667156
0.00821246
0.0102355
0.0121546
0.014335
0.0173234
0.0197454
0.0217713
0.0215854
0.0191125
0.0112438
-0.000594923
-0.00786249
-0.0102225
-0.00839103
-0.00443208
0.00066494
0.00170745
-0.0357995
-0.0388811
-0.0404473
-0.0408428
-0.0407688
-0.0406544
-0.0405849
-0.0404695
-0.0401964
-0.0396879
-0.0389189
-0.0378928
-0.0366155
-0.035084
-0.0332882
-0.0312178
-0.028867
-0.0262379
-0.0233407
-0.0201955
-0.0168295
-0.0132805
-0.00959175
-0.00581699
-0.00201345
0.00175343
0.00541523
0.0089009
0.012134
0.0150386
0.017519
0.0195047
0.0208987
0.0216086
0.0214693
0.0203251
0.0181572
0.0152851
0.0123466
0.00990485
0.00844448
0.00791903
0.00845409
0.00962931
0.0112859
0.0129716
0.0149368
0.0176415
0.0200394
0.0220089
0.0221929
0.019782
0.0133213
0.0035247
-0.00305428
-0.00596621
-0.00561495
-0.00259796
0.00160811
0.00174809
-0.0301393
-0.0328618
-0.034298
-0.0347247
-0.034735
-0.0346986
-0.034693
-0.03464
-0.0344611
-0.03407
-0.033446
-0.0325928
-0.0315169
-0.0302175
-0.0286873
-0.0269186
-0.0249068
-0.022654
-0.0201682
-0.0174657
-0.0145683
-0.0115067
-0.00831581
-0.00504066
-0.00172876
0.00156367
0.00477794
0.00785015
0.0107143
0.0133018
0.0155291
0.0173318
0.0186239
0.0193353
0.0193569
0.0186157
0.0171176
0.0150998
0.0129856
0.0111352
0.00995559
0.00948124
0.00982018
0.0107247
0.0120811
0.0135525
0.0152976
0.0176442
0.0198398
0.021514
0.0218118
0.0195495
0.0142471
0.00635882
0.000593005
-0.00251539
-0.00323403
-0.00109794
0.00223131
0.00170307
-0.0249589
-0.027346
-0.0286484
-0.0290884
-0.0291653
-0.0291967
-0.0292539
-0.0292764
-0.0291557
-0.0288621
-0.0283693
-0.0276761
-0.0267877
-0.0257044
-0.0244208
-0.0229306
-0.02123
-0.0193208
-0.0172094
-0.0149089
-0.0124368
-0.00981799
-0.00708092
-0.00426284
-0.00140308
0.0014498
0.00424687
0.00693265
0.0094488
0.0117361
0.0137238
0.0153555
0.0165566
0.0172774
0.0174441
0.0170313
0.0160532
0.0146887
0.0132359
0.0118683
0.0109658
0.0105882
0.010817
0.0115241
0.0126337
0.0138989
0.015416
0.0173651
0.0192456
0.0205335
0.0207623
0.0187305
0.0143803
0.00812561
0.00318532
0.00014516
-0.00125737
7.95585e-05
0.00254421
0.00157805
-0.0202309
-0.0223101
-0.0234808
-0.0239205
-0.0240464
-0.0241279
-0.0242271
-0.0242892
-0.0242418
-0.024044
-0.0236747
-0.0231299
-0.0224139
-0.0215285
-0.0204701
-0.0192335
-0.0178155
-0.0162172
-0.0144438
-0.0125058
-0.0104171
-0.00819806
-0.00587149
-0.00346818
-0.00102055
0.0014306
0.00384405
0.00617143
0.00836364
0.0103717
0.012137
0.0136101
0.0147276
0.0154559
0.0157438
0.0155909
0.0150094
0.0141273
0.0130999
0.012215
0.0115797
0.0113172
0.0114933
0.0120573
0.0129615
0.0140268
0.0153101
0.0168621
0.0183871
0.0192947
0.0193666
0.0175949
0.014034
0.00909529
0.00491277
0.00210071
0.000324439
0.000960986
0.00261238
0.00139666
-0.0159289
-0.0177311
-0.0187771
-0.0192076
-0.0193697
-0.0194901
-0.0196236
-0.0197263
-0.0197385
-0.0196192
-0.0193559
-0.018943
-0.0183823
-0.0176751
-0.0168191
-0.0158104
-0.0146459
-0.0133263
-0.0118554
-0.0102417
-0.00849623
-0.00663524
-0.00467715
-0.00264716
-0.000571588
0.0015157
0.00358006
0.00558099
0.00747655
0.0092258
0.0107874
0.0121098
0.0131478
0.0138756
0.0142583
0.0143051
0.0140233
0.0135149
0.0128747
0.0123066
0.0118909
0.0117399
0.0118972
0.0123558
0.0130882
0.0139626
0.0150154
0.0161987
0.0173426
0.0179505
0.0178574
0.016332
0.0134236
0.00951649
0.00598478
0.00347034
0.00154321
0.00159572
0.00252887
0.00120236
-0.0120304
-0.0135852
-0.0145148
-0.0149302
-0.0151185
-0.0152695
-0.0154307
-0.0155667
-0.0156243
-0.0155709
-0.0153989
-0.0151026
-0.0146798
-0.0141307
-0.0134542
-0.0126473
-0.0117075
-0.0106349
-0.00943235
-0.00810624
-0.00666528
-0.00512245
-0.00349249
-0.00179557
-5.3047e-05
0.00170707
0.00345697
0.00516352
0.00679119
0.00830413
0.00966752
0.0108507
0.011813
0.0125319
0.0129797
0.0131727
0.0131158
0.0128876
0.0125351
0.0122105
0.0119733
0.0119189
0.0120743
0.0124528
0.0130416
0.0137403
0.0145775
0.0154441
0.0162641
0.0166064
0.016375
0.0150597
0.0126827
0.00957944
0.00658675
0.00436989
0.00244618
0.00204006
0.00237828
0.00103718
-0.00851003
-0.00984567
-0.0106684
-0.0110655
-0.0112725
-0.0114469
-0.011629
-0.0117905
-0.0118887
-0.011895
-0.0117967
-0.0115969
-0.0112927
-0.0108816
-0.010362
-0.00973169
-0.00898873
-0.00813282
-0.00716574
-0.00609234
-0.0049193
-0.00365686
-0.00231654
-0.000914395
0.000532381
0.00200172
0.0034708
0.00491201
0.00629841
0.00760015
0.00878411
0.00983279
0.0107119
0.0114091
0.0118962
0.0121891
0.0122899
0.0122543
0.0121205
0.0119828
0.0118852
0.011908
0.0120676
0.0123832
0.0128519
0.0133944
0.0140352
0.0146406
0.0151888
0.0153236
0.0149902
0.0138465
0.0118934
0.00941322
0.00686332
0.0048991
0.00308657
0.0023413
0.00221423
0.000904266
-0.00534148
-0.00648498
-0.00721146
-0.00758865
-0.00780825
-0.0079999
-0.00819759
-0.00837864
-0.00850817
-0.0085615
-0.00852904
-0.00840966
-0.00820573
-0.00791355
-0.00752982
-0.00705247
-0.00647998
-0.005812
-0.00504956
-0.00419608
-0.0032566
-0.00223899
-0.0011522
-8.71059e-06
0.001178
0.00239034
0.00361009
0.00481576
0.00598497
0.00709429
0.00811848
0.00903828
0.00983098
0.0104894
0.0109918
0.0113476
0.0115548
0.0116549
0.0116697
0.0116676
0.0116744
0.0117539
0.0119172
0.0121811
0.0125492
0.0129565
0.0134248
0.0138205
0.0141508
0.0141325
0.0137311
0.0127277
0.0111042
0.00910253
0.00692572
0.00519577
0.0035183
0.00254165
0.00206576
0.000804011
-0.00250029
-0.00347675
-0.0041174
-0.00447427
-0.00470194
-0.00490598
-0.00511476
-0.00531032
-0.00546413
-0.00555617
-0.00557729
-0.00552644
-0.00540469
-0.00521244
-0.004945
-0.00459891
-0.00417273
-0.00366613
-0.00307967
-0.0024157
-0.00167789
-0.000872141
-5.30787e-06
0.000913116
0.00187271
0.00285983
0.00386022
0.00485696
0.00583224
0.00676812
0.00764511
0.00844752
0.00915596
0.00976265
0.0102533
0.0106377
0.0109082
0.011096
0.0112096
0.0112995
0.0113793
0.0114964
0.0116591
0.011879
0.0121625
0.0124565
0.0127797
0.0130069
0.013171
0.0130437
0.0126023
0.0117146
0.0103453
0.00870755
0.0068489
0.00530997
0.00377953
0.00267189
0.0019447
0.00072954
3.70432e-05
-0.000795163
-0.00136002
-0.00169694
-0.00192916
-0.00214172
-0.00235793
-0.00256373
-0.00273623
-0.00285899
-0.00292457
-0.00293097
-0.00287848
-0.00276713
-0.00259585
-0.00236076
-0.00205908
-0.00168984
-0.0012533
-0.000751105
-0.000185858
0.000438187
0.00111588
0.0018401
0.00260294
0.00339409
0.00420252
0.00501518
0.0058183
0.00659797
0.00733862
0.00802824
0.00865086
0.00920076
0.00966579
0.0100517
0.0103517
0.0105872
0.0107603