/*--------------------------------*- C++ -*----------------------------------*\
| =========                 |                                                 |
| \\      /  F ield         | OpenFOAM: The Open Source CFD Toolbox           |
|  \\    /   O peration     | Version:  2512                                  |
|   \\  /    A nd           | Website:  www.openfoam.com                      |
|    \\/     M anipulation  |                                                 |
\*---------------------------------------------------------------------------*/
FoamFile
{
    version     2.0;
    format      ascii;
    arch        "LSB;label=32;scalar=64";
    class       volVectorField;
    location    "185";
    object      U;
}
// * * * * * * * * * * * * * * * * * * * * * * * * * * * * * * * * * * * * * //

dimensions      [0 1 -1 0 0 0 0];

internalField   nonuniform List<vector> 
13248
(
(-0.0106636 0.00982395 7.32667e-20)
(-0.0167098 0.0171472 0)
(-0.00963411 0.0170821 -1.39369e-19)
(0.00956485 0.0126388 1.3129e-19)
(0.0405102 0.00597462 1.23335e-19)
(0.0830283 -0.00136213 0)
(0.136892 -0.00827104 0)
(0.201601 -0.0139678 2.95308e-19)
(0.276207 -0.0178966 -3.36724e-21)
(0.359199 -0.0196874 -2.54378e-19)
(0.448506 -0.0191446 2.29127e-19)
(0.541581 -0.0162474 -1.42742e-19)
(0.635584 -0.0111464 0)
(0.727612 -0.00414978 -2.24969e-19)
(0.814937 0.00430759 4.12787e-19)
(0.895221 0.0137056 -9.72065e-20)
(0.966668 0.0234904 -1.60016e-19)
(1.02812 0.0331122 1.50218e-19)
(1.07907 0.0421124 0)
(1.11963 0.0499792 0)
(1.1505 0.0567522 0)
(1.17241 0.0612259 0)
(1.18772 0.0656913 3.98698e-20)
(1.19573 0.0645416 1.39088e-19)
(-0.0101477 0.00862773 -2.21386e-19)
(-0.011797 0.0141603 1.51332e-19)
(0.00359285 0.0135036 -1.00333e-21)
(0.0345114 0.00927589 -2.00447e-19)
(0.0801341 0.00352562 -1.23198e-19)
(0.139779 -0.00217083 -1.16279e-19)
(0.212508 -0.00668249 -2.13172e-19)
(0.296849 -0.00923946 2.01223e-19)
(0.390628 -0.00937763 0)
(0.490946 -0.00691663 2.17099e-21)
(0.59432 -0.00194494 4.62514e-21)
(0.696971 0.0052081 1.42657e-19)
(0.795186 0.014022 0)
(0.885666 0.0238547 0)
(0.965825 0.0340221 1.49261e-19)
(1.03397 0.0438754 -2.8e-19)
(1.08935 0.0528652 1.59029e-19)
(1.13213 0.0605812 -1.49302e-19)
(1.16324 0.0667787 -6.40293e-20)
(1.18421 0.0713316 -1.11026e-19)
(1.19682 0.0743722 -4.44898e-20)
(1.20325 0.0756267 -8.20811e-20)
(1.20484 0.0765543 1.23944e-19)
(1.20394 0.0734889 3.5146e-20)
(-0.0084085 0.00671968 0)
(-0.00304887 0.00941052 0)
(0.0233468 0.00770744 7.09312e-20)
(0.0687283 0.00382554 6.55492e-20)
(0.131669 -0.00034914 -1.48561e-21)
(0.210657 -0.00330023 -1.19254e-19)
(0.303565 -0.0040039 0)
(0.407391 -0.00189694 -9.97444e-20)
(0.518219 0.00315812 9.24634e-20)
(0.631442 0.0109074 2.31204e-22)
(0.742191 0.020771 -1.54057e-19)
(0.845871 0.0319475 -1.37222e-19)
(0.938661 0.0435425 5.23425e-21)
(1.01788 0.0546984 -1.05752e-19)
(1.08216 0.0647027 2.59373e-19)
(1.13143 0.0730575 0)
(1.16673 0.0795054 -1.57191e-19)
(1.18992 0.0840107 7.64909e-20)
(1.20334 0.0867271 6.39726e-20)
(1.20945 0.0878778 0)
(1.21061 0.0878838 5.02668e-20)
(1.20873 0.0866821 -1.72371e-19)
(1.20511 0.0856015 1.61809e-19)
(1.2017 0.0816383 1.00175e-19)
(-0.00522327 0.00434593 -7.8101e-20)
(0.0102613 0.00363759 -8.06367e-20)
(0.0508097 0.000942641 7.32289e-20)
(0.113648 -0.00197489 0)
(0.196403 -0.0034837 0)
(0.296209 -0.00228182 -1.87631e-21)
(0.409119 0.00231399 0)
(0.530035 0.0103688 -3.01043e-19)
(0.653026 0.0213995 2.77952e-19)
(0.771953 0.034496 -3.4089e-19)
(0.881236 0.048502 7.69389e-20)
(0.976536 0.0622259 0)
(1.05519 0.0746326 1.22368e-19)
(1.11631 0.0849798 -2.24431e-19)
(1.16064 0.0928778 5.31759e-20)
(1.19016 0.0982751 1.29688e-19)
(1.20761 0.101388 -8.80106e-21)
(1.21598 0.102603 -1.43647e-19)
(1.21809 0.102366 0)
(1.21632 0.101098 0)
(1.21247 0.0991938 -4.84647e-20)
(1.20773 0.0966871 4.29276e-20)
(1.20279 0.0945452 1.49794e-19)
(1.19817 0.0900333 -1.40625e-19)
(-0.000290187 0.00172583 -8.18847e-20)
(0.0289074 -0.00238821 -8.16725e-20)
(0.0870304 -0.00542311 2.29888e-19)
(0.170221 -0.00621097 -1.39689e-19)
(0.274603 -0.00356232 1.31486e-19)
(0.395252 0.0033456 2.3876e-19)
(0.52578 0.014515 -1.68112e-19)
(0.658724 0.0291719 -2.02055e-19)
(0.786439 0.045978 5.67246e-21)
(0.902167 0.0633249 2.56815e-19)
(1.00095 0.079654 0)
(1.08014 0.0937263 6.85699e-20)
(1.1394 0.104782 0)
(1.1803 0.11257 -1.07681e-19)
(1.20576 0.117272 1.50775e-19)
(1.21925 0.119363 9.65383e-22)
(1.22425 0.119444 -3.83267e-20)
(1.22376 0.118117 6.96426e-20)
(1.22012 0.115883 6.01524e-20)
(1.21493 0.113112 -5.3251e-20)
(1.20919 0.110057 4.84531e-20)
(1.20344 0.106743 -4.2917e-20)
(1.19787 0.103733 0)
(1.1929 0.0989139 -3.26531e-20)
(0.00674206 -0.000911182 8.1873e-20)
(0.0536008 -0.0078403 8.56221e-20)
(0.132686 -0.00995272 -7.69389e-20)
(0.238532 -0.00696262 1.43036e-19)
(0.365027 0.00154863 -1.34629e-19)
(0.504488 0.0155301 1.21309e-19)
(0.64777 0.0339068 -5.81789e-20)
(0.785423 0.0548074 1.51928e-19)
(0.909191 0.0760338 -9.51613e-20)
(1.01325 0.0955445 1.65641e-19)
(1.09481 0.111827 -3.80113e-19)
(1.15401 0.124078 1.38855e-19)
(1.19326 0.132191 -1.18607e-19)
(1.2163 0.13659 1.11408e-19)
(1.2273 0.138003 9.36416e-20)
(1.23013 0.137242 8.03768e-20)
(1.22794 0.135041 -2.23971e-19)
(1.22302 0.131973 1.38112e-19)
(1.21687 0.12843 -6.01543e-20)
(1.21036 0.124653 1.55204e-19)
(1.20397 0.120773 -5.01619e-20)
(1.1979 0.116815 -1.20018e-19)
(1.1922 0.11307 1.10447e-19)
(1.18698 0.108041 3.26429e-20)
(0.0162126 -0.0032846 0)
(0.0848327 -0.0118038 5.7033e-22)
(0.18784 -0.0111882 1.59722e-19)
(0.31752 -0.00247544 -1.49956e-19)
(0.464774 0.0134998 -1.34933e-19)
(0.618747 0.0353416 2.50434e-19)
(0.767895 0.0605895 -1.16136e-19)
(0.901989 0.0862829 1.53563e-19)
(1.01388 0.109707 -3.97071e-21)
(1.10031 0.128932 -8.62619e-20)
(1.1617 0.143035 1.85271e-19)
(1.20119 0.152021 -2.72293e-19)
(1.22332 0.156555 0)
(1.23296 0.157624 -5.22106e-20)
(1.2344 0.156257 -1.37277e-19)
(1.231 0.153333 4.34784e-20)
(1.22508 0.149508 2.02433e-21)
(1.21811 0.145217 -9.08367e-20)
(1.21093 0.140718 6.97113e-21)
(1.20395 0.136152 1.04469e-19)
(1.19736 0.131585 -4.55611e-20)
(1.19119 0.127045 -1.7121e-20)
(1.18541 0.122622 5.34152e-20)
(1.18003 0.117418 0)
(0.0283735 -0.00503827 0)
(0.122712 -0.0132672 4.32834e-20)
(0.251753 -0.00771007 -2.07851e-19)
(0.404889 0.00869063 7.54571e-20)
(0.569519 0.033264 -7.10177e-20)
(0.731837 0.062863 -6.45305e-20)
(0.879102 0.093612 -1.13692e-19)
(1.00214 0.121848 5.7026e-20)
(1.09665 0.144973 4.93355e-20)
(1.16299 0.161779 0)
(1.20485 0.172309 1.09765e-19)
(1.22762 0.177454 -1.62023e-19)
(1.2369 0.178488 1.20321e-19)
(1.23756 0.176688 5.22373e-20)
(1.23327 0.173119 -4.20493e-20)
(1.22652 0.168552 -3.42947e-20)
(1.21881 0.163487 -3.15939e-20)
(1.21099 0.15822 9.62786e-20)
(1.20345 0.152908 0)
(1.19636 0.147628 4.7061e-20)
(1.18975 0.142415 3.87978e-20)
(1.18359 0.137287 -9.71946e-20)
(1.1778 0.132223 -6.53697e-20)
(1.17234 0.126836 6.04959e-20)
(0.0433211 -0.00574319 -4.6447e-20)
(0.166838 -0.0111655 -1.571e-21)
(0.322809 0.00175857 4.21974e-20)
(0.497263 0.027516 1.17433e-19)
(0.674128 0.0610501 3.39028e-20)
(0.837703 0.0973187 -6.56369e-20)
(0.975927 0.131407 5.99987e-20)
(1.08257 0.159661 -5.24089e-20)
(1.15731 0.18029 9.32553e-20)
(1.20416 0.193232 3.92945e-20)
(1.22933 0.199573 -1.11531e-19)
(1.23934 0.200908 3.25873e-20)
(1.23981 0.198833 5.49166e-20)
(1.2349 0.194658 -2.71422e-20)
(1.22741 0.189322 0)
(1.21898 0.183423 3.93535e-20)
(1.21049 0.17731 6.57232e-20)
(1.20235 0.171165 1.06093e-20)
(1.19474 0.165081 -5.42695e-20)
(1.18767 0.159099 2.2395e-20)
(1.18112 0.15324 0)
(1.17501 0.147501 -1.72749e-20)
(1.16926 0.14183 -1.61621e-20)
(1.16376 0.136207 0)
(0.0609389 -0.00492813 0)
(0.216222 -0.00447698 2.42997e-20)
(0.398562 0.0182108 4.48454e-20)
(0.590548 0.0544069 -1.19413e-19)
(0.77344 0.0963455 3.8497e-20)
(0.931445 0.137368 0)
(1.05522 0.172277 5.74234e-20)
(1.14282 0.198233 -8.00617e-20)
(1.19808 0.214779 -4.64828e-20)
(1.22798 0.223113 2.09573e-20)
(1.24011 0.225193 -3.28762e-20)
(1.2411 0.223025 8.01681e-20)
(1.23591 0.218264 3.9557e-20)
(1.22777 0.212089 -2.78275e-20)
(1.2186 0.205246 -2.92868e-21)
(1.2094 0.19816 -7.37957e-20)
(1.20063 0.191056 3.34502e-20)
(1.19245 0.184043 -8.34486e-22)
(1.1849 0.177173 0)
(1.17795 0.170471 -2.24183e-20)
(1.17152 0.163942 0)
(1.16552 0.157565 4.96674e-20)
(1.15985 0.151317 -5.87781e-20)
(1.15438 0.145374 2.66592e-20)
(0.0808619 -0.00212435 -1.25792e-20)
(0.26929 0.00766373 -6.09094e-20)
(0.475916 0.0422274 6.91609e-20)
(0.680419 0.0891535 4.05661e-20)
(0.862969 0.138067 -1.94308e-20)
(1.00983 0.181432 3.23886e-20)
(1.11602 0.214713 -1.57847e-20)
(1.18432 0.236566 2.60892e-20)
(1.22217 0.248085 0)
(1.23841 0.251596 5.835e-20)
(1.24101 0.249632 -2.6114e-21)
(1.236 0.244332 -4.66947e-20)
(1.22738 0.237228 1.9806e-20)
(1.21749 0.229288 -2.20891e-20)
(1.20753 0.22106 -8.18453e-21)
(1.19806 0.212827 9.68683e-21)
(1.18927 0.204726 -7.32461e-21)
(1.1812 0.19682 -3.93645e-20)
(1.17382 0.189137 2.40793e-20)
(1.16706 0.181688 4.84872e-21)
(1.16081 0.174466 4.22822e-21)
(1.15497 0.167439 3.68788e-21)
(1.14944 0.160647 0)
(1.14406 0.154274 0)
(0.10254 0.00309637 1.25879e-20)
(0.324095 0.0258742 -1.25873e-20)
(0.551567 0.073894 -2.30111e-20)
(0.762945 0.130973 0)
(0.939424 0.184778 -9.62164e-21)
(1.0713 0.227965 -8.60956e-21)
(1.15883 0.257556 -1.46996e-20)
(1.20923 0.274096 0)
(1.23254 0.280174 0)
(1.2384 0.278965 0)
(1.23439 0.273275 0)
(1.22561 0.265164 0)
(1.21508 0.255942 -1.23838e-20)
(1.20436 0.24635 5.62389e-21)
(1.19415 0.236767 9.67787e-21)
(1.18471 0.227369 4.50991e-21)
(1.17609 0.218232 1.10116e-20)
(1.16826 0.20939 0)
(1.16115 0.200856 -2.57118e-21)
(1.15468 0.19263 -2.44247e-21)
(1.14871 0.184689 -4.23495e-21)
(1.14315 0.177012 -3.69377e-21)
(1.13786 0.1697 0)
(1.13269 0.162784 2.57182e-21)
(0.00038439 -0.0476846 9.18066e-21)
(-0.00247989 -0.113647 -9.52633e-21)
(-0.0109504 -0.158032 -1.80263e-20)
(-0.0229446 -0.18574 0)
(-0.037014 -0.201187 -2.4223e-20)
(-0.0522268 -0.208209 7.67646e-21)
(-0.0678728 -0.209818 -1.43271e-20)
(-0.0834395 -0.20811 0)
(-0.0985905 -0.204324 0)
(-0.113112 -0.198997 0)
(-0.126863 -0.192158 0)
(-0.139735 -0.183522 0)
(-0.151626 -0.172644 3.27354e-22)
(-0.162423 -0.159024 -9.89581e-21)
(-0.171998 -0.142176 1.81785e-20)
(-0.180204 -0.121674 2.60546e-20)
(-0.186881 -0.0971829 7.71247e-21)
(-0.191854 -0.0684788 0)
(-0.194939 -0.0354721 7.45136e-21)
(-0.195932 0.00170763 -2.016e-20)
(-0.194735 0.0427925 -1.22231e-20)
(-0.19127 0.0872105 -1.1299e-20)
(-0.185558 0.134336 0)
(-0.17861 0.18328 0)
(0.00250391 -0.0430218 -2.73204e-20)
(0.00145701 -0.102224 4.73045e-20)
(-0.00743047 -0.141904 -1.74576e-20)
(-0.0209169 -0.166487 -3.36021e-20)
(-0.0369209 -0.180052 4.76975e-20)
(-0.0542004 -0.186138 -2.99342e-20)
(-0.071883 -0.187493 4.24813e-20)
(-0.0893917 -0.185999 2.6223e-20)
(-0.106389 -0.182747 0)
(-0.122691 -0.178184 -2.42078e-20)
(-0.138196 -0.172307 -1.37833e-22)
(-0.152832 -0.164833 2.14934e-20)
(-0.16652 -0.155346 2.94916e-20)
(-0.179161 -0.143387 3.72945e-20)
(-0.190624 -0.128517 -1.81929e-20)
(-0.200745 -0.110354 -4.99692e-20)
(-0.209323 -0.0885948 1.45355e-20)
(-0.216118 -0.0630327 -5.59433e-20)
(-0.220966 -0.033586 0)
(-0.223607 -0.000235119 1.31504e-20)
(-0.223784 0.0366926 1.22092e-20)
(-0.221248 0.0768922 1.12859e-20)
(-0.215939 0.120023 0)
(-0.210011 0.165609 0)
(0.00392144 -0.0369337 0)
(0.00404903 -0.0880115 9.13818e-20)
(-0.00515203 -0.122592 -3.45661e-20)
(-0.0195704 -0.144197 3.31269e-20)
(-0.0366506 -0.156274 -9.22354e-20)
(-0.0549153 -0.161889 0)
(-0.0733668 -0.163424 -5.48496e-20)
(-0.0913731 -0.162505 2.53907e-20)
(-0.108586 -0.160065 -4.7834e-20)
(-0.124835 -0.156481 2.16148e-20)
(-0.140036 -0.151736 1.27459e-19)
(-0.154135 -0.145575 -5.977e-20)
(-0.16707 -0.137627 -9.40067e-20)
(-0.178749 -0.127491 -3.34105e-20)
(-0.189044 -0.114784 6.94457e-22)
(-0.197789 -0.0991777 1.20701e-19)
(-0.204775 -0.0804116 -5.62781e-20)
(-0.209749 -0.0583097 2.71032e-21)
(-0.212331 -0.0327699 0)
(-0.212419 -0.00378167 -4.04628e-20)
(-0.20987 0.0284735 0)
(-0.204045 0.0638715 -3.68147e-20)
(-0.194459 0.102255 1.28288e-19)
(-0.183955 0.143357 -1.94923e-21)
(0.00448733 -0.0299159 0)
(0.00503577 -0.0720524 -6.91519e-22)
(-0.00438533 -0.101389 3.36279e-20)
(-0.0191602 -0.120243 -3.17183e-20)
(-0.0364562 -0.131232 3.04759e-20)
(-0.0546544 -0.136821 1.70059e-19)
(-0.0726754 -0.13896 -5.34923e-20)
(-0.0898443 -0.138992 -4.96864e-20)
(-0.105794 -0.137688 9.43276e-20)
(-0.120345 -0.13536 -1.32693e-19)
(-0.133416 -0.13199 4.06195e-20)
(-0.144953 -0.127357 3.76216e-20)
(-0.154896 -0.121144 0)
(-0.163155 -0.113007 3.39466e-20)
(-0.169607 -0.102623 0)
(-0.174087 -0.0897155 5.39225e-20)
(-0.176391 -0.0740712 -1.00415e-19)
(-0.176264 -0.0555464 2.76063e-20)
(-0.173433 -0.034078 8.55249e-20)
(-0.167665 -0.0097437 4.0424e-20)
(-0.158779 0.0175135 0)
(-0.146284 0.0477325 -9.15431e-20)
(-0.129041 0.0811034 3.03318e-20)
(-0.108781 0.117609 0)
(0.00414899 -0.0224729 0)
(0.00433044 -0.0553714 -1.0599e-19)
(-0.00522963 -0.079515 -3.34425e-20)
(-0.0198026 -0.0958772 -6.29895e-20)
(-0.0364914 -0.106135 5.93167e-20)
(-0.0536383 -0.112091 -5.63332e-20)
(-0.0701344 -0.115227 1.04655e-19)
(-0.0852805 -0.116585 4.92076e-20)
(-0.0986887 -0.116773 -1.38637e-19)
(-0.110164 -0.116037 8.52154e-20)
(-0.11961 -0.114356 -1.19854e-19)
(-0.126966 -0.111544 2.55731e-19)
(-0.132168 -0.107333 -1.37436e-19)
(-0.13513 -0.101431 6.13046e-20)
(-0.135739 -0.0935669 1.68505e-19)
(-0.133846 -0.0835096 -5.74828e-20)
(-0.129273 -0.0710903 -4.93606e-20)
(-0.121809 -0.0562126 -4.57353e-20)
(-0.111217 -0.0388631 0)
(-0.0972488 -0.0190871 -6.51682e-20)
(-0.0797041 0.00306582 -5.36506e-20)
(-0.0583006 0.0276674 8.31955e-20)
(-0.0320254 0.0552351 9.10492e-20)
(0.000658403 0.0873912 -8.26079e-20)
(0.00295193 -0.0150739 0)
(0.00203479 -0.0389073 -1.39125e-19)
(-0.00756611 -0.0580643 3.72e-23)
(-0.021381 -0.0721821 1.24361e-19)
(-0.0366521 -0.0819853 0)
(-0.0517869 -0.0885959 0)
(-0.0657026 -0.0930222 0)
(-0.0777011 -0.0960032 -4.81943e-20)
(-0.0873811 -0.0979801 8.6192e-22)
(-0.0945294 -0.0991265 8.43294e-20)
(-0.0990328 -0.0994128 -1.16218e-19)
(-0.100821 -0.0986779 1.02957e-21)
(-0.0998293 -0.0966924 0)
(-0.095985 -0.0932065 -6.12783e-20)
(-0.0891961 -0.0879847 5.10629e-20)
(-0.0793521 -0.0808292 -1.48555e-19)
(-0.0663238 -0.0716001 1.74498e-19)
(-0.0499646 -0.0602287 3.10555e-20)
(-0.0301096 -0.0467231 -8.74971e-21)
(-0.00657399 -0.0311747 -1.26106e-19)
(0.0208083 -0.0137525 -5.12438e-20)
(0.0522157 0.00541092 1.57632e-19)
(0.0886137 0.0268215 -1.00202e-19)
(0.134703 0.0527846 0)
(0.00103356 -0.00813515 6.65719e-20)
(-0.00155685 -0.0234895 6.93833e-20)
(-0.0110215 -0.0379908 -6.56051e-20)
(-0.0234654 -0.0500764 -1.23803e-19)
(-0.0364439 -0.0595823 1.16581e-19)
(-0.0485195 -0.0669812 -1.09254e-19)
(-0.0586855 -0.0728238 1.54027e-19)
(-0.0662689 -0.0775525 -4.78071e-20)
(-0.0708628 -0.0814375 8.96354e-20)
(-0.0722351 -0.0845714 0)
(-0.0702538 -0.0869009 7.40723e-20)
(-0.0648385 -0.0882732 -1.40836e-19)
(-0.0559304 -0.0884807 1.26221e-19)
(-0.0434784 -0.0872987 -1.1855e-19)
(-0.0274304 -0.084515 0)
(-0.00773811 -0.0799464 9.47755e-20)
(0.0156481 -0.0734688 1.61672e-19)
(0.0427802 -0.0650219 -1.53273e-19)
(0.0737115 -0.0546252 -6.41053e-20)
(0.108501 -0.0423889 -5.36525e-20)
(0.147182 -0.02853 1.53985e-19)
(0.19008 -0.0133346 3.73869e-20)
(0.235383 0.00295007 -3.84333e-20)
(0.298602 0.0221657 3.09265e-20)
(-0.00138761 -0.00201024 -6.65809e-20)
(-0.00597182 -0.00982783 2.08475e-19)
(-0.0149693 -0.0201176 -6.53447e-20)
(-0.0252955 -0.0303471 1.23793e-19)
(-0.0349442 -0.0395896 -1.16571e-19)
(-0.0426958 -0.0477339 4.81498e-22)
(-0.0476538 -0.0549085 5.14083e-20)
(-0.0491842 -0.0612718 1.89879e-19)
(-0.0468762 -0.06692 -2.37364e-21)
(-0.0404762 -0.0718504 -8.34763e-20)
(-0.0298323 -0.0759658 0)
(-0.0148595 -0.0790993 -6.69693e-20)
(0.00447973 -0.0810437 1.28451e-19)
(0.0281823 -0.081582 1.12181e-19)
(0.0562188 -0.0805056 -5.40415e-20)
(0.0885209 -0.0776438 -8.00091e-22)
(0.124982 -0.0728828 -4.14207e-20)
(0.165478 -0.0661729 7.15535e-20)
(0.209858 -0.0575498 6.40862e-20)
(0.257986 -0.0471305 -5.58275e-20)
(0.309366 -0.0352219 4.74072e-20)
(0.365721 -0.0218017 -4.10318e-20)
(0.418114 -0.00832751 0)
(0.501213 0.007599 -3.08809e-20)
(-0.00402262 0.00301204 6.72386e-20)
(-0.0105817 0.00147116 -6.95673e-20)
(-0.0185737 -0.00516557 6.63464e-20)
(-0.0258394 -0.0136995 0)
(-0.0308863 -0.0226141 0)
(-0.0327435 -0.0313057 1.1009e-19)
(-0.030642 -0.0395275 -1.03012e-19)
(-0.0239952 -0.047173 9.46568e-20)
(-0.0123955 -0.0541627 -4.4434e-19)
(0.00441848 -0.0603849 1.22639e-21)
(0.0265896 -0.0656786 7.57174e-20)
(0.0541574 -0.069842 0)
(0.0870641 -0.0726518 -1.23543e-19)
(0.125156 -0.0738864 2.27364e-19)
(0.168187 -0.0733458 -1.55848e-19)
(0.215824 -0.0708827 -2.23094e-19)
(0.267657 -0.0664101 9.76527e-21)
(0.323213 -0.0599228 1.46776e-19)
(0.381962 -0.0515148 0)
(0.443538 -0.041296 0)
(0.506319 -0.0298889 -4.73967e-20)
(0.574552 -0.0164864 4.10225e-20)
(0.630479 -0.00424304 -1.3817e-19)
(0.72722 0.0118146 1.29635e-19)
(-0.00655823 0.00672982 0)
(-0.0146729 0.00995444 0)
(-0.0208559 0.00628352 -1.9977e-19)
(-0.023895 -0.000756372 6.3334e-20)
(-0.0228174 -0.00924442 3.66157e-22)
(-0.0169077 -0.0181867 1.11828e-19)
(-0.00553496 -0.0270204 0)
(0.0118132 -0.0354021 -9.66991e-20)
(0.035496 -0.0430827 8.9138e-20)
(0.0657097 -0.0498349 -1.63743e-19)
(0.10248 -0.0554238 1.65786e-21)
(0.145653 -0.0596072 1.36494e-19)
(0.194891 -0.062149 -4.51437e-21)
(0.249675 -0.0628408 1.06637e-19)
(0.309316 -0.0615248 -1.57999e-19)
(0.372988 -0.0581155 0)
(0.439763 -0.052615 1.57003e-19)
(0.508659 -0.0451214 -2.18626e-19)
(0.578631 -0.0358593 6.31518e-20)
(0.649007 -0.0249808 0)
(0.717406 -0.013411 4.87753e-20)
(0.788707 7.6748e-05 1.63852e-19)
(0.843454 0.0113259 -1.53767e-19)
(0.935307 0.0273173 -1.64127e-19)
(-0.00868342 0.00906142 2.07635e-19)
(-0.0175234 0.0153696 -2.86624e-19)
(-0.020819 0.0138324 7.69475e-23)
(-0.018229 0.00800871 6.40629e-20)
(-0.00926869 4.05209e-05 -1.20098e-19)
(0.00651793 -0.00879818 -1.1126e-19)
(0.0295888 -0.0176967 2.07681e-19)
(0.0603121 -0.0261105 -3.16404e-21)
(0.09888 -0.0336386 -1.81382e-19)
(0.145251 -0.0399487 3.30522e-19)
(0.199111 -0.0447466 -4.28085e-21)
(0.259845 -0.047774 -1.41422e-19)
(0.326548 -0.0488226 0)
(0.398044 -0.0477547 0)
(0.472955 -0.0445226 -5.1213e-20)
(0.54977 -0.0391834 -9.18519e-20)
(0.62694 -0.0319028 -1.58303e-19)
(0.702961 -0.0229545 1.48593e-19)
(0.776431 -0.0127075 -6.31698e-20)
(0.846285 -0.00154088 1.08742e-19)
(0.910852 0.00980557 -5.49654e-20)
(0.972355 0.0218117 7.98389e-20)
(1.01967 0.0314833 -1.98625e-19)
(1.08678 0.0445248 3.35493e-20)
(-0.0101244 0.0100417 7.01246e-20)
(-0.0184283 0.017691 0)
(-0.0174457 0.0173657 1.37179e-19)
(-0.00757068 0.0124224 -1.29231e-19)
(0.0112409 0.00506477 1.202e-19)
(0.0391687 -0.00325607 0)
(0.0764151 -0.0115504 0)
(0.123051 -0.0191223 -9.69626e-20)
(0.178877 -0.0254579 3.11245e-21)
(0.243322 -0.0301612 8.55818e-20)
(0.315391 -0.0329318 -7.48132e-20)
(0.393663 -0.0335661 1.4219e-19)
(0.476346 -0.0319707 0)
(0.561385 -0.0281746 2.24669e-19)
(0.646598 -0.0223346 -4.1225e-19)
(0.729836 -0.0147289 2.80892e-19)
(0.809122 -0.00573703 1.59585e-19)
(0.882766 0.00417371 -1.49804e-19)
(0.949471 0.0145378 0)
(1.00829 0.0247449 0)
(1.05887 0.0345421 0)
(1.10126 0.0431499 0)
(1.13407 0.0503932 3.9276e-20)
(1.16839 0.0575525 -1.40923e-19)
(-0.170838 0.240514 -6.97239e-21)
(-0.157963 0.309608 6.99353e-21)
(-0.141999 0.377651 -1.82841e-22)
(-0.123606 0.440938 0)
(-0.102616 0.495961 -5.05964e-21)
(-0.0782658 0.538796 9.53148e-21)
(-0.0489411 0.565528 -2.16102e-22)
(-0.0121324 0.57115 -4.14896e-21)
(0.0345983 0.550668 0)
(0.0927419 0.500163 0)
(0.161916 0.418232 -2.58098e-22)
(0.238992 0.307423 -2.66162e-22)
(0.319246 0.172843 -4.44575e-21)
(0.397951 0.020947 4.05752e-21)
(0.473193 -0.140374 0)
(0.543249 -0.296784 0)
(0.603916 -0.428524 2.69484e-21)
(0.650741 -0.518769 -4.79957e-22)
(0.681102 -0.563793 -1.95971e-21)
(0.695274 -0.572625 -9.24607e-23)
(0.697107 -0.558414 0)
(0.68987 -0.536168 0)
(0.670331 -0.523397 0)
(0.634401 -0.526724 0)
(0.590105 -0.523407 0)
(0.55968 -0.467744 0)
(0.56228 -0.330177 5.93544e-22)
(0.598069 -0.12771 -9.23491e-22)
(0.652834 0.0865578 0)
(0.711046 0.263589 0)
(0.759654 0.379174 -4.60521e-22)
(0.793872 0.437017 4.47568e-22)
(0.815437 0.452327 1.56612e-22)
(0.82259 0.455344 0)
(0.807172 0.471219 0)
(0.769107 0.490063 2.96547e-22)
(0.727581 0.464122 -2.88268e-22)
(0.70727 0.34614 0)
(0.715408 0.15726 4.00911e-22)
(0.746928 -0.0549309 -5.90948e-22)
(0.783961 -0.216621 1.68253e-22)
(0.821685 -0.321866 0)
(0.84408 -0.36733 -1.84522e-22)
(0.836982 -0.397389 1.79429e-22)
(0.798947 -0.414794 0)
(0.751222 -0.378128 0)
(0.728033 -0.28507 -8.38453e-23)
(0.741727 -0.0955041 2.37307e-22)
(0.778826 0.0514705 0)
(0.816884 0.207734 0)
(0.824311 0.291091 -5.13647e-23)
(0.799054 0.353498 1.68111e-24)
(0.777284 0.375251 -1.67847e-24)
(0.774148 0.235972 4.54531e-23)
(0.794696 0.158746 0)
(0.8148 -0.0806469 0)
(0.812351 -0.188689 0)
(0.801191 -0.287897 0)
(0.801584 -0.383659 0)
(0.786242 -0.116295 0)
(-0.206538 0.219777 -5.66127e-22)
(-0.191501 0.285279 -2.27433e-20)
(-0.171496 0.349933 1.20877e-21)
(-0.146087 0.409784 2.02253e-20)
(-0.11461 0.461714 2.70792e-22)
(-0.0759447 0.500268 0)
(-0.029098 0.521543 -1.62632e-20)
(0.0271809 0.520832 3.23867e-20)
(0.0938131 0.493773 -1.61307e-20)
(0.169879 0.437816 1.71267e-20)
(0.25295 0.35295 -1.63867e-20)
(0.338849 0.242331 1.79195e-20)
(0.423067 0.11063 -1.74382e-20)
(0.502421 -0.0372684 -5.71851e-22)
(0.575983 -0.193813 -1.61923e-20)
(0.641442 -0.34453 1.57349e-20)
(0.693558 -0.467833 -1.15649e-20)
(0.727735 -0.546619 1.09159e-20)
(0.743374 -0.578994 -7.15558e-21)
(0.743023 -0.576908 1.24412e-20)
(0.731587 -0.555089 -5.35515e-21)
(0.71405 -0.52625 -2.50912e-22)
(0.688742 -0.505049 -3.73729e-21)
(0.64921 -0.500835 7.46556e-21)
(0.597969 -0.498379 -3.72558e-21)
(0.554241 -0.455922 2.55013e-22)
(0.541085 -0.33805 5.48229e-21)
(0.565086 -0.152254 4.18902e-22)
(0.614751 0.0538864 -1.02193e-20)
(0.67351 0.232216 9.03856e-21)
(0.727116 0.354799 -4.0877e-21)
(0.76952 0.420816 3.52794e-22)
(0.80022 0.444073 -1.56941e-22)
(0.81424 0.456268 2.71446e-22)
(0.803516 0.481615 0)
(0.770751 0.50554 0)
(0.736797 0.476988 -1.51027e-21)
(0.72481 0.350549 1.04888e-21)
(0.738463 0.152172 1.29104e-21)
(0.77219 -0.0660854 6.1767e-23)
(0.805854 -0.229402 -1.68599e-21)
(0.837977 -0.331664 2.775e-22)
(0.854723 -0.369812 0)
(0.845172 -0.390246 0)
(0.804996 -0.401699 0)
(0.753637 -0.367248 0)
(0.727484 -0.283581 2.74731e-22)
(0.737764 -0.103072 -1.55909e-22)
(0.775564 0.0404302 0)
(0.811669 0.20143 0)
(0.81991 0.292616 0)
(0.794597 0.359018 -9.40243e-23)
(0.773697 0.378344 -5.30411e-24)
(0.773618 0.233916 -8.75098e-23)
(0.795891 0.15426 0)
(0.82148 -0.0821144 0)
(0.818049 -0.187774 5.7661e-23)
(0.807054 -0.286448 1.43221e-22)
(0.80605 -0.382274 0)
(0.787975 -0.114904 0)
(-0.17987 0.192917 -1.2043e-21)
(-0.162811 0.253188 -3.9482e-20)
(-0.139035 0.313527 3.62787e-20)
(-0.107318 0.36807 -3.39893e-20)
(-0.0675953 0.414328 -2.72657e-22)
(-0.0192474 0.447706 0)
(0.0397091 0.463913 -3.20536e-20)
(0.108627 0.458677 3.13988e-20)
(0.186576 0.428136 2.54817e-22)
(0.271463 0.370701 5.39215e-22)
(0.360014 0.287147 5.69286e-22)
(0.448018 0.180742 5.74193e-22)
(0.531606 0.0553442 -3.85324e-20)
(0.608939 -0.0854972 3.8018e-20)
(0.679412 -0.235439 0)
(0.739536 -0.378806 9.97384e-22)
(0.782451 -0.492762 -2.42095e-20)
(0.803546 -0.560852 2.38488e-20)
(0.804501 -0.583007 0)
(0.790545 -0.572967 0)
(0.767372 -0.546443 -9.25781e-21)
(0.740517 -0.51396 1.67644e-20)
(0.710073 -0.486282 -1.4218e-20)
(0.668612 -0.474185 1.03457e-22)
(0.61327 -0.470593 1.36065e-20)
(0.558658 -0.440102 -1.54026e-20)
(0.530052 -0.343302 1.63957e-20)
(0.540598 -0.176718 -1.03212e-23)
(0.583047 0.019049 -8.98287e-21)
(0.640485 0.197051 0)
(0.697807 0.325817 0)
(0.74759 0.400097 1.86702e-21)
(0.786782 0.43223 -2.46773e-21)
(0.807445 0.454476 -1.00476e-23)
(0.801923 0.489567 2.32807e-21)
(0.775287 0.518719 -2.26255e-21)
(0.749132 0.488431 0)
(0.745183 0.355178 4.20864e-22)
(0.764172 0.149186 4.22012e-21)
(0.799927 -0.0740725 -7.92178e-21)
(0.830245 -0.23874 3.2491e-21)
(0.856381 -0.338735 3.03259e-22)
(0.867163 -0.370869 -1.94441e-21)
(0.855195 -0.382466 1.47544e-21)
(0.813469 -0.388279 2.58293e-22)
(0.759057 -0.356208 2.39725e-22)
(0.730163 -0.282449 -2.75421e-22)
(0.736647 -0.111343 0)
(0.774588 0.0287751 0)
(0.80832 0.194615 -8.09393e-22)
(0.817354 0.293801 3.98858e-22)
(0.791899 0.364216 -3.68052e-22)
(0.771745 0.381436 5.85844e-22)
(0.774593 0.231701 8.24497e-22)
(0.798617 0.1494 -1.72828e-22)
(0.82959 -0.0836139 3.61427e-22)
(0.825032 -0.186664 -2.89258e-22)
(0.813875 -0.28464 1.36612e-22)
(0.811344 -0.380595 0)
(0.790613 -0.11341 0)
(-0.0996852 0.162715 -6.74463e-20)
(-0.0805664 0.216597 2.55241e-21)
(-0.0546131 0.26934 6.13867e-20)
(-0.0210538 0.317633 -4.99148e-22)
(0.0234199 0.357846 0)
(0.0776737 0.386689 0)
(0.142267 0.399257 -6.1616e-20)
(0.216138 0.39137 -5.57e-21)
(0.297631 0.360079 9.75835e-20)
(0.384075 0.304382 2.5941e-21)
(0.471992 0.225355 -3.60698e-20)
(0.557538 0.1259 -3.83273e-20)
(0.637909 0.0086809 3.84076e-20)
(0.712379 -0.124207 0)
(0.779978 -0.266939 -3.4959e-20)
(0.835049 -0.40229 3.19477e-20)
(0.86876 -0.506476 0)
(0.876938 -0.564421 0)
(0.863744 -0.578184 1.4829e-20)
(0.837218 -0.562456 -3.08338e-21)
(0.803908 -0.533223 -1.0699e-20)
(0.768874 -0.499581 -7.48719e-21)
(0.733606 -0.467991 7.42865e-21)
(0.691459 -0.448133 -6.10892e-21)
(0.635248 -0.440469 -1.25709e-22)
(0.573099 -0.419035 5.89527e-21)
(0.529986 -0.343712 8.73306e-22)
(0.525573 -0.1993 1.03195e-22)
(0.558404 -0.0164797 0)
(0.612443 0.158949 6.41956e-21)
(0.67205 0.292717 -6.56882e-21)
(0.72813 0.375131 3.2042e-22)
(0.774955 0.416746 0)
(0.802002 0.449492 -2.64623e-22)
(0.802109 0.494326 4.71848e-21)
(0.782153 0.528982 -9.55981e-21)
(0.763848 0.498329 -2.13803e-21)
(0.767758 0.360375 -1.20601e-21)
(0.791795 0.148324 6.57239e-21)
(0.829414 -0.0789639 9.30382e-22)
(0.8567 -0.244825 -5.61795e-21)
(0.876717 -0.343262 4.87442e-21)
(0.881269 -0.370748 -5.6413e-24)
(0.866755 -0.374387 1.16296e-21)
(0.823982 -0.374688 -1.38981e-21)
(0.767137 -0.344851 -1.59409e-21)
(0.735752 -0.281343 4.74358e-22)
(0.738103 -0.120065 8.51785e-22)
(0.775717 0.01661 -1.61946e-21)
(0.806769 0.187255 1.1699e-21)
(0.816631 0.294589 -3.89456e-22)
(0.791055 0.369085 3.01407e-22)
(0.771605 0.384593 3.64135e-22)
(0.777216 0.229408 -1.31194e-21)
(0.802907 0.144207 9.01354e-24)
(0.83908 -0.0851358 -4.27674e-22)
(0.833255 -0.185333 0)
(0.821642 -0.28246 -1.33872e-22)
(0.817414 -0.378616 1.14366e-22)
(0.794093 -0.111816 0)
(0.0159231 0.128165 5.75146e-20)
(0.0343225 0.175434 -1.109e-19)
(0.0612421 0.220498 5.28019e-20)
(0.0967641 0.263066 5.23331e-20)
(0.142205 0.298466 -1.04441e-19)
(0.197365 0.323189 -3.29465e-21)
(0.262002 0.332938 5.42889e-20)
(0.335017 0.324129 6.32732e-20)
(0.414509 0.294332 -6.20016e-20)
(0.497737 0.242686 0)
(0.581494 0.170052 -7.69897e-20)
(0.662476 0.0785756 1.54143e-19)
(0.739011 -0.0299308 -7.71063e-20)
(0.811062 -0.15456 0)
(0.876238 -0.28905 0)
(0.925956 -0.414723 1.02391e-21)
(0.949887 -0.508093 -4.99627e-20)
(0.945318 -0.556515 4.85373e-20)
(0.919098 -0.564228 0)
(0.881628 -0.545753 2.35504e-20)
(0.840225 -0.515995 -3.96307e-20)
(0.798774 -0.483137 3.09355e-20)
(0.759161 -0.450432 -2.55125e-20)
(0.716787 -0.424534 9.31446e-22)
(0.662284 -0.410781 2.03757e-20)
(0.596699 -0.394107 -1.00479e-20)
(0.54127 -0.338334 -3.92195e-22)
(0.520902 -0.218213 -5.7743e-21)
(0.541546 -0.0516887 4.78964e-24)
(0.58983 0.118642 5.84855e-21)
(0.650115 0.255899 3.35451e-22)
(0.711088 0.346016 -4.07338e-21)
(0.764457 0.397341 7.88366e-21)
(0.797564 0.440705 -4.27857e-21)
(0.80362 0.495235 0)
(0.790722 0.535961 -6.32521e-21)
(0.780222 0.506713 6.30957e-21)
(0.791598 0.36624 -7.18194e-21)
(0.820485 0.149722 8.94061e-21)
(0.860054 -0.0806938 -1.00922e-21)
(0.884733 -0.247566 0)
(0.898649 -0.345058 -6.23994e-22)
(0.896831 -0.369342 1.31898e-21)
(0.87963 -0.366092 0)
(0.836211 -0.361113 2.2665e-21)
(0.777479 -0.333251 -9.25258e-22)
(0.743867 -0.280103 4.21898e-22)
(0.741795 -0.12898 3.404e-22)
(0.778696 0.00402287 0)
(0.80689 0.179286 0)
(0.817683 0.294875 -1.0509e-21)
(0.792135 0.373592 1.83202e-21)
(0.77343 0.387869 -1.20841e-21)
(0.781598 0.227117 4.62722e-22)
(0.808776 0.138717 9.30583e-22)
(0.849879 -0.0866633 4.28078e-22)
(0.842657 -0.183734 -6.76691e-22)
(0.830333 -0.279865 0)
(0.824201 -0.376318 -2.05258e-22)
(0.798348 -0.110119 3.7835e-24)
(0.152233 0.0896251 5.11933e-20)
(0.169735 0.132304 -5.08101e-20)
(0.19464 0.172619 3.94756e-22)
(0.228652 0.209346 -3.52807e-22)
(0.272069 0.23993 3.92404e-22)
(0.324597 0.261108 -4.07507e-22)
(0.385726 0.269114 8.16304e-22)
(0.454425 0.260772 0)
(0.528902 0.233908 -9.66308e-22)
(0.606718 0.187504 1.04641e-21)
(0.685132 0.121805 1.11685e-21)
(0.76174 0.0378717 -1.21463e-21)
(0.835466 -0.0619826 0)
(0.905738 -0.178192 0)
(0.967888 -0.302981 1.0998e-21)
(1.0107 -0.41706 0)
(1.02376 -0.49889 -8.30559e-22)
(1.00689 -0.538902 0)
(0.969449 -0.542906 -2.90516e-20)
(0.923134 -0.524323 5.12691e-20)
(0.875614 -0.495931 -3.89832e-20)
(0.829577 -0.465049 1.68968e-20)
(0.786265 -0.433294 1.07907e-20)
(0.7435 -0.403785 -1.04796e-20)
(0.692352 -0.383352 -8.58273e-21)
(0.627553 -0.366979 8.34111e-21)
(0.563532 -0.326783 0)
(0.527258 -0.231485 2.47635e-22)
(0.53334 -0.0849678 0)
(0.573391 0.0771913 0)
(0.63227 0.215908 7.16293e-21)
(0.69636 0.312887 -7.38026e-21)
(0.754985 0.373824 3.85309e-22)
(0.793756 0.427653 4.69996e-22)
(0.805925 0.491761 -4.8839e-22)
(0.800243 0.539298 -5.69432e-21)
(0.797386 0.513485 5.52884e-21)
(0.815858 0.372945 -9.31077e-21)
(0.849409 0.153701 8.09797e-21)
(0.891015 -0.0792657 2.05499e-21)
(0.913752 -0.247035 -6.04038e-21)
(0.921805 -0.344103 8.26382e-22)
(0.913584 -0.366644 3.37332e-21)
(0.893553 -0.357701 0)
(0.84979 -0.347678 -9.02596e-22)
(0.789632 -0.321398 1.05221e-21)
(0.754043 -0.278527 -1.40536e-21)
(0.747329 -0.137924 -3.42559e-22)
(0.783212 -0.00895762 0)
(0.808507 0.170601 3.38755e-22)
(0.820402 0.294513 -5.83445e-22)