/*--------------------------------*- C++ -*----------------------------------*\
| =========                 |                                                 |
| \\      /  F ield         | OpenFOAM: The Open Source CFD Toolbox           |
|  \\    /   O peration     | Version:  2512                                  |
|   \\  /    A nd           | Website:  www.openfoam.com                      |
|    \\/     M anipulation  |                                                 |
\*---------------------------------------------------------------------------*/
FoamFile
{
    version     2.0;
    format      ascii;
    arch        "LSB;label=32;scalar=64";
    class       volScalarField;
    location    "99.25";
    object      p;
}
// * * * * * * * * * * * * * * * * * * * * * * * * * * * * * * * * * * * * * //

dimensions      [0 2 -2 0 0 0 0];

internalField   nonuniform List<scalar> 
13248
(
-0.302698
-0.301928
-0.300115
-0.297455
-0.294118
-0.290203
-0.285791
-0.280968
-0.275828
-0.270474
-0.265016
-0.259567
-0.25423
-0.249097
-0.244232
-0.239669
-0.235406
-0.231411
-0.227621
-0.223979
-0.220323
-0.216704
-0.212425
-0.208058
-0.310282
-0.308593
-0.306052
-0.30281
-0.298992
-0.294696
-0.289989
-0.284924
-0.279554
-0.27394
-0.268149
-0.262253
-0.256323
-0.250424
-0.244603
-0.238888
-0.233287
-0.22779
-0.222369
-0.216983
-0.211553
-0.206026
-0.200153
-0.194404
-0.319523
-0.316738
-0.313317
-0.309368
-0.30496
-0.30018
-0.295062
-0.289611
-0.283821
-0.277701
-0.271277
-0.264598
-0.257727
-0.250738
-0.243701
-0.236678
-0.229719
-0.222857
-0.216103
-0.209452
-0.202846
-0.196282
-0.189574
-0.183116
-0.330406
-0.326374
-0.321953
-0.317197
-0.312094
-0.306701
-0.300999
-0.294922
-0.288402
-0.281407
-0.273954
-0.266106
-0.257967
-0.249656
-0.241296
-0.232994
-0.224835
-0.216874
-0.209133
-0.201604
-0.194251
-0.187066
-0.179913
-0.173202
-0.342953
-0.337552
-0.332047
-0.326408
-0.320502
-0.314322
-0.307776
-0.300722
-0.293054
-0.284746
-0.275857
-0.266521
-0.256912
-0.247213
-0.237588
-0.228165
-0.219031
-0.21023
-0.201769
-0.19363
-0.18578
-0.178195
-0.170788
-0.163842
-0.357171
-0.350309
-0.343672
-0.337085
-0.330234
-0.323012
-0.315243
-0.306747
-0.297439
-0.287368
-0.276702
-0.265674
-0.254531
-0.243496
-0.232739
-0.222372
-0.212454
-0.203
-0.193997
-0.185413
-0.177209
-0.169348
-0.161769
-0.154665
-0.372962
-0.364589
-0.356794
-0.349175
-0.341161
-0.332521
-0.323035
-0.312556
-0.301115
-0.288915
-0.276259
-0.263475
-0.25085
-0.238601
-0.226865
-0.215712
-0.20516
-0.195191
-0.185771
-0.176855
-0.168395
-0.160346
-0.152669
-0.145447
-0.390049
-0.380167
-0.371197
-0.362405
-0.3529
-0.342348
-0.33057
-0.317573
-0.303599
-0.289043
-0.274335
-0.259852
-0.245868
-0.23255
-0.219978
-0.208168
-0.197095
-0.186713
-0.176969
-0.167806
-0.159169
-0.151008
-0.14329
-0.136008
-0.40793
-0.396603
-0.386427
-0.376235
-0.364796
-0.351755
-0.337118
-0.321173
-0.304431
-0.287467
-0.270784
-0.254744
-0.239559
-0.225322
-0.212045
-0.199689
-0.188195
-0.177491
-0.167506
-0.158175
-0.149433
-0.141228
-0.133524
-0.126237
-0.425847
-0.413198
-0.40175
-0.389831
-0.37593
-0.359829
-0.341883
-0.32275
-0.303207
-0.283947
-0.265469
-0.248064
-0.231852
-0.216842
-0.202982
-0.190187
-0.178366
-0.167427
-0.157285
-0.147861
-0.139085
-0.1309
-0.123248
-0.11601
-0.442807
-0.428993
-0.416147
-0.402086
-0.385176
-0.365539
-0.34402
-0.321669
-0.299464
-0.278129
-0.258091
-0.239531
-0.222469
-0.206834
-0.192518
-0.179397
-0.167354
-0.15628
-0.146074
-0.136646
-0.12792
-0.119828
-0.112281
-0.105167
-0.457673
-0.442892
-0.428493
-0.411836
-0.391395
-0.367852
-0.342634
-0.317155
-0.292507
-0.269357
-0.24801
-0.22852
-0.210803
-0.194716
-0.180098
-0.166794
-0.154662
-0.143578
-0.133427
-0.124112
-0.11555
-0.107661
-0.10033
-0.0934978
-0.329383
-0.331943
-0.333409
-0.33427
-0.334951
-0.335557
-0.336113
-0.336621
-0.33706
-0.337392
-0.337567
-0.337532
-0.337233
-0.336622
-0.335662
-0.334331
-0.332635
-0.330612
-0.328345
-0.325966
-0.323654
-0.321614
-0.32013
-0.319674
-0.320157
-0.322579
-0.323854
-0.324429
-0.324694
-0.324745
-0.324611
-0.324303
-0.323812
-0.323115
-0.32219
-0.321015
-0.319578
-0.317886
-0.315967
-0.313877
-0.311707
-0.309585
-0.307683
-0.306214
-0.305422
-0.305545
-0.306854
-0.309987
-0.312332
-0.314489
-0.315521
-0.315804
-0.315676
-0.315218
-0.314461
-0.313423
-0.312108
-0.310515
-0.308644
-0.306505
-0.304126
-0.30156
-0.29889
-0.296233
-0.293746
-0.291617
-0.290076
-0.289381
-0.289805
-0.291584
-0.294902
-0.300458
-0.305831
-0.307665
-0.308431
-0.30843
-0.307938
-0.307019
-0.305703
-0.304017
-0.301981
-0.299613
-0.296937
-0.293994
-0.290845
-0.287583
-0.284333
-0.281257
-0.278555
-0.276448
-0.275201
-0.275083
-0.276369
-0.279294
-0.283957
-0.290815
-0.300521
-0.30204
-0.302548
-0.302277
-0.301445
-0.300103
-0.29828
-0.296011
-0.293333
-0.290285
-0.286916
-0.283294
-0.279512
-0.275689
-0.271982
-0.268583
-0.265714
-0.263622
-0.262569
-0.262821
-0.264632
-0.268224
-0.273728
-0.280932
-0.296284
-0.297547
-0.297821
-0.297291
-0.296135
-0.294391
-0.292092
-0.289284
-0.286019
-0.28236
-0.27838
-0.274172
-0.269856
-0.265575
-0.261508
-0.257861
-0.254869
-0.252782
-0.251854
-0.252334
-0.254445
-0.258316
-0.264342
-0.271194
-0.29307
-0.294157
-0.294229
-0.293447
-0.291971
-0.289838
-0.287085
-0.28377
-0.279966
-0.275756
-0.271239
-0.266533
-0.261779
-0.257143
-0.252818
-0.249023
-0.245993
-0.243971
-0.243191
-0.243864
-0.246206
-0.250076
-0.256425
-0.262383
-0.290938
-0.291913
-0.2918
-0.290766
-0.288973
-0.286464
-0.283286
-0.279513
-0.275235
-0.270559
-0.265606
-0.260518
-0.255457
-0.250608
-0.246176
-0.242384
-0.239458
-0.237625
-0.237092
-0.237985
-0.240553
-0.244208
-0.250672
-0.255311
-0.290043
-0.290919
-0.290617
-0.289324
-0.287222
-0.284365
-0.280817
-0.276664
-0.272017
-0.266999
-0.261756
-0.256449
-0.251256
-0.246375
-0.242014
-0.238383
-0.23569
-0.23412
-0.233828
-0.234833
-0.237413
-0.240599
-0.246526
-0.249854
-0.290604
-0.291321
-0.290791
-0.289225
-0.286827
-0.28367
-0.279827
-0.275403
-0.270517
-0.265312
-0.259944
-0.254584
-0.24942
-0.244642
-0.240444
-0.237008
-0.234497
-0.233035
-0.232712
-0.233477
-0.235529
-0.237984
-0.242513
-0.244684
-0.29283
-0.293252
-0.292415
-0.290545
-0.287857
-0.284439
-0.280375
-0.275777
-0.270768
-0.265494
-0.260112
-0.254791
-0.249704
-0.245023
-0.240905
-0.237484
-0.234859
-0.233085
-0.232171
-0.23207
-0.232817
-0.234056
-0.236603
-0.237803
-0.296856
-0.29679
-0.295529
-0.293291
-0.29029
-0.286618
-0.282368
-0.277642
-0.272561
-0.267258
-0.261875
-0.256562
-0.251464
-0.246713
-0.24242
-0.238659
-0.235466
-0.232832
-0.2307
-0.229021
-0.227677
-0.226746
-0.226421
-0.226484
-0.320801
-0.324301
-0.330652
-0.339726
-0.350912
-0.36288
-0.373661
-0.380858
-0.381632
-0.373564
-0.354835
-0.324983
-0.286069
-0.242772
-0.200975
-0.165716
-0.139847
-0.12395
-0.117443
-0.120173
-0.132394
-0.15198
-0.171898
-0.182105
-0.176182
-0.155667
-0.128716
-0.103634
-0.0853373
-0.0752228
-0.0721981
-0.0754084
-0.086425
-0.105943
-0.127429
-0.138631
-0.131715
-0.111313
-0.0885174
-0.0710917
-0.0601791
-0.0551985
-0.0575431
-0.0667178
-0.0744331
-0.073027
-0.0647065
-0.0548245
-0.046939
-0.0426333
-0.0420749
-0.0442016
-0.0442398
-0.0402455
-0.0361172
-0.0298308
-0.0201082
-0.0146934
-0.00943759
-0.00401316
-0.316775
-0.326683
-0.33942
-0.354586
-0.371178
-0.38756
-0.401545
-0.410605
-0.412081
-0.403356
-0.382557
-0.349288
-0.305854
-0.257416
-0.210399
-0.17014
-0.139575
-0.119242
-0.108401
-0.106535
-0.113718
-0.128581
-0.145595
-0.155972
-0.152979
-0.137344
-0.115539
-0.0949507
-0.0804237
-0.0735263
-0.0732644
-0.0791747
-0.0932707
-0.115928
-0.139714
-0.151295
-0.142658
-0.119414
-0.0934669
-0.0730405
-0.0596248
-0.052364
-0.0522423
-0.0590571
-0.065156
-0.0642528
-0.0577331
-0.0506234
-0.0451121
-0.0431823
-0.0451274
-0.0489755
-0.0499851
-0.0447938
-0.0395136
-0.031733
-0.0202839
-0.0137639
-0.00749959
-0.00293801
-0.311767
-0.326279
-0.34336
-0.362579
-0.3827
-0.401911
-0.417936
-0.42817
-0.430226
-0.421301
-0.39939
-0.364088
-0.31783
-0.266081
-0.215586
-0.171856
-0.13779
-0.113783
-0.0989899
-0.0926287
-0.0947143
-0.104589
-0.11822
-0.128248
-0.128059
-0.117142
-0.100466
-0.0844927
-0.0739145
-0.0703677
-0.0729373
-0.0815472
-0.098538
-0.123996
-0.149858
-0.161892
-0.151879
-0.126239
-0.097535
-0.0744123
-0.0587106
-0.0493881
-0.0470011
-0.0516011
-0.056155
-0.0556292
-0.0507567
-0.0462406
-0.0430209
-0.0435636
-0.048174
-0.0538331
-0.0557688
-0.0492463
-0.0426995
-0.0334865
-0.0204361
-0.0128653
-0.00562712
-0.00190958
-0.305031
-0.322327
-0.341754
-0.363103
-0.385099
-0.405871
-0.423193
-0.433972
-0.43638
-0.42755
-0.405347
-0.369339
-0.322015
-0.268931
-0.216894
-0.171376
-0.135108
-0.10838
-0.0903006
-0.0799793
-0.077211
-0.0819427
-0.0916627
-0.100566
-0.102716
-0.0958085
-0.0840394
-0.0726082
-0.0659572
-0.065684
-0.0709567
-0.0820472
-0.101566
-0.12949
-0.157304
-0.170045
-0.159169
-0.131631
-0.100639
-0.0752209
-0.0575147
-0.0463866
-0.0419956
-0.0445835
-0.0476682
-0.0473823
-0.0439083
-0.0417452
-0.0406824
-0.0437361
-0.0511298
-0.0586841
-0.0615123
-0.0535533
-0.0456372
-0.0350593
-0.0205554
-0.0120062
-0.00383271
-0.000932939
-0.296538
-0.315104
-0.335265
-0.357162
-0.379604
-0.400755
-0.41933
-0.429506
-0.431962
-0.42335
-0.401476
-0.365928
-0.31924
-0.266855
-0.215258
-0.169555
-0.132264
-0.103689
-0.0830064
-0.0693222
-0.0623024
-0.0620613
-0.0674733
-0.0743697
-0.0775515
-0.0740232
-0.0668322
-0.0596516
-0.0566631
-0.0593923
-0.0670992
-0.0803274
-0.101954
-0.131978
-0.161615
-0.175425
-0.164328
-0.135511
-0.102772
-0.0755169
-0.0561265
-0.043464
-0.0373422
-0.0381518
-0.0398791
-0.0396882
-0.0373185
-0.0372028
-0.0381059
-0.04365
-0.0538959
-0.0634142
-0.0671107
-0.0576546
-0.0482896
-0.0364242
-0.0206327
-0.0111934
-0.00212662
-1.19192e-05
-0.287185
-0.305808
-0.32538
-0.346555
-0.368197
-0.388251
-0.403614
-0.415944
-0.418714
-0.410433
-0.389366
-0.355296
-0.310779
-0.2609
-0.211491
-0.167037
-0.12979
-0.100154
-0.0775208
-0.0610908
-0.0504645
-0.0457776
-0.046773
-0.0509437
-0.0540409
-0.052726
-0.0495469
-0.0460455
-0.0462293
-0.0515593
-0.0613567
-0.0763295
-0.0995684
-0.131246
-0.162548
-0.177773
-0.167187
-0.137827
-0.103941
-0.0753426
-0.0546122
-0.0406868
-0.0331048
-0.0323857
-0.0329093
-0.03268
-0.0311085
-0.0326723
-0.035305
-0.0432536
-0.0563591
-0.0678882
-0.072447
-0.0614931
-0.0506265
-0.0375567
-0.0206568
-0.0104298
-0.000516489
0.000851981
-0.278257
-0.295815
-0.313592
-0.33303
-0.353023
-0.372561
-0.386874
-0.396902
-0.398901
-0.390801
-0.370923
-0.33927
-0.298262
-0.252356
-0.206481
-0.164396
-0.128067
-0.0980409
-0.0740315
-0.0554446
-0.0418773
-0.0334029
-0.030216
-0.0312077
-0.0333503
-0.0327263
-0.0329425
-0.0323173
-0.0350378
-0.0424577
-0.0539167
-0.0701619
-0.0944405
-0.127259
-0.160063
-0.176933
-0.167636
-0.138551
-0.104168
-0.0747269
-0.0530135
-0.0380917
-0.0293041
-0.0272989
-0.0267987
-0.0264412
-0.0253798
-0.0282139
-0.032304
-0.0424954
-0.0584021
-0.0719675
-0.0774001
-0.065014
-0.0526233
-0.03844
-0.0206174
-0.00971334
0.000993838
0.00165969
-0.270314
-0.285547
-0.300558
-0.317517
-0.335023
-0.350569
-0.364792
-0.372963
-0.374099
-0.366247
-0.348057
-0.319697
-0.283248
-0.242327
-0.200857
-0.161881
-0.127133
-0.0972994
-0.0724377
-0.0522488
-0.0363963
-0.0248709
-0.0180041
-0.0156708
-0.0163632
-0.0188188
-0.0178285
-0.0190278
-0.0235635
-0.0324562
-0.0450646
-0.0620977
-0.0868415
-0.120228
-0.154336
-0.173019
-0.165656
-0.137677
-0.103478
-0.0736912
-0.051357
-0.0357
-0.0259402
-0.0228718
-0.0215245
-0.020994
-0.0202148
-0.023887
-0.0291394
-0.041335
-0.0599143
-0.0755181
-0.0818515
-0.0681613
-0.0542607
-0.0390697
-0.0205145
-0.00904673
0.00240402
0.0024149
-0.262549
-0.274126
-0.285911
-0.300046
-0.315181
-0.32841
-0.339201
-0.345494
-0.345912
-0.338659
-0.322769
-0.298403
-0.267143
-0.231687
-0.194992
-0.159485
-0.126741
-0.0975896
-0.0723716
-0.0510977
-0.0335769
-0.0197386
-0.00986526
-0.00431346
-0.00262482
-0.00346569
-0.00400842
-0.00658021
-0.0122347
-0.0219471
-0.0351471
-0.0524326
-0.0771364
-0.110679
-0.145765
-0.166315
-0.16146
-0.135351
-0.102017
-0.0723717
-0.0497609
-0.0335991
-0.0230442
-0.0190932
-0.0170597
-0.0163225
-0.0156684
-0.0197478
-0.0258539
-0.0397319
-0.0608044
-0.0784181
-0.0856839
-0.0708942
-0.0555355
-0.0394551
-0.020359
-0.0084507
0.00370876
0.00312401
-0.253371
-0.260654
-0.269843
-0.281422
-0.292768
-0.303348
-0.311557
-0.316589
-0.316694
-0.310597
-0.297551
-0.277557
-0.251642
-0.221644
-0.189701
-0.157749
-0.127249
-0.0991552
-0.0740142
-0.0520789
-0.0333522
-0.0177717
-0.00552047
0.00292868
0.00739472
0.00854275
0.00790824
0.00476122
-0.00133576
-0.0112806
-0.0245707
-0.0417558
-0.0660617
-0.0991493
-0.134815
-0.15725
-0.155355
-0.131857
-0.100115
-0.0710778
-0.0484706
-0.0319703
-0.020694
-0.0159364
-0.013368
-0.0124368
-0.0117458
-0.0158227
-0.0225069
-0.0377035
-0.0609856
-0.0805512
-0.0887842
-0.0731788
-0.0564635
-0.0395982
-0.0201483
-0.00793763
0.00489114
0.00379365
-0.242022
-0.246242
-0.253581
-0.261765
-0.269672
-0.277463
-0.284309
-0.288528
-0.288879
-0.284449
-0.274537
-0.25897
-0.238263
-0.21353
-0.186225
-0.157849
-0.129733
-0.102916
-0.0781182
-0.0557884
-0.0361288
-0.0191731
-0.00502157
0.00594009
0.0132635
0.0168673
0.017438
0.0146867
0.00884215
-0.000726736
-0.0135125
-0.0300663
-0.0537019
-0.0866249
-0.122716
-0.146098
-0.147423
-0.12691
-0.0975473
-0.0695838
-0.0472541
-0.0306282
-0.0187464
-0.0132022
-0.0101949
-0.00922429
-0.00721386
-0.0122154
-0.0191119
-0.03513
-0.060465
-0.0818993
-0.0910097
-0.0748836
-0.0570138
-0.0394364
-0.0198173
-0.00744502
0.00596295
0.00443021
-0.229085
-0.233239
-0.238167
-0.242442
-0.247175
-0.252693
-0.257502
-0.260545
-0.260894
-0.257726
-0.250396
-0.238572
-0.222348
-0.202267
-0.179238
-0.154388
-0.128882
-0.103774
-0.0798983
-0.0578515
-0.037987
-0.0204899
-0.00546184
0.00694987
0.0164878
0.0225878
0.0247542
0.0232002
0.0178081
0.0089645
-0.0030455
-0.0188201
-0.0413716
-0.0730541
-0.108427
-0.132475
-0.135712
-0.118879
-0.0923858
-0.0659776
-0.0444801
-0.0282949
-0.0163746
-0.0103939
-0.0070345
-0.00615269
-0.00459519
-0.00895775
-0.0159708
-0.032257
-0.0591045
-0.0822432
-0.0923846
-0.0757958
-0.0570172
-0.0388365
-0.0192409
-0.00685127
0.00702833
0.00505746
-0.216897
-0.225456
-0.228845
-0.230981
-0.23404
-0.237538
-0.241042
-0.243085
-0.242595
-0.238908
-0.231534
-0.220217
-0.20504
-0.186463
-0.165256
-0.142375
-0.118821
-0.0955032
-0.0731491
-0.052284
-0.0332328
-0.01619
-0.00127375
0.0113877
0.02166
0.0290851
0.0330532
0.0328379
0.0282896
0.020687
0.0101105
-0.00459104
-0.0272296
-0.0610508
-0.0997865
-0.12655
-0.130313
-0.111887
-0.0857087
-0.0604199
-0.0400862
-0.0247561
-0.0133491
-0.00752872
-0.00402736
-0.00293314
-0.000897839
-0.00458972
-0.0115068
-0.0281475
-0.0570381
-0.0824881
-0.0941418
-0.0765675
-0.0565289
-0.0379369
-0.018498
-0.00620082
0.00809165
0.00565492
-0.203026
-0.214002
-0.217138
-0.217378
-0.218304
-0.220422
-0.222563
-0.223324
-0.221765
-0.217403
-0.209947
-0.199253
-0.185399
-0.168732
-0.149832
-0.129437
-0.108332
-0.0872537
-0.0668164
-0.0474988
-0.0296183
-0.0134048
0.00100811
0.0135517
0.024151
0.0323138
0.0371239
0.0378367
0.0347945
0.028782
0.0198519
0.00636684
-0.0162146
-0.0512962
-0.09108
-0.117132
-0.11924
-0.101532
-0.0772689
-0.0541991
-0.0356155
-0.0215176
-0.0107555
-0.0050429
-0.00151975
-0.000504835
0.00156077
-0.00172571
-0.00818097
-0.0247979
-0.0549822
-0.0819114
-0.0943604
-0.0763476
-0.0553135
-0.0366266
-0.0175975
-0.00550284
0.00892648
0.00605365
-0.188382
-0.200275
-0.203474
-0.202847
-0.20254
-0.203372
-0.204302
-0.204074
-0.201853
-0.197258
-0.190123
-0.180362
-0.168001
-0.153248
-0.136508
-0.118337
-0.0993644
-0.0802132
-0.061428
-0.0434591
-0.026627
-0.0111701
0.00275377
0.0150286
0.0255928
0.03409
0.039753
0.0415238
0.0396331
0.0349215
0.0271774
0.0142496
-0.00864343
-0.0434543
-0.0811749
-0.104991
-0.106399
-0.0903639
-0.0686687
-0.0480103
-0.031174
-0.0182897
-0.00821012
-0.00269343
0.000823492
0.00175086
0.00385743
0.000644462
-0.00569813
-0.0223335
-0.0529807
-0.0802562
-0.0932642
-0.0753701
-0.0536085
-0.0350032
-0.0165622
-0.00477006
0.00963024
0.0063495
-0.174154
-0.185679
-0.189019
-0.188149
-0.187061
-0.186894
-0.18695
-0.186097
-0.183543
-0.178949
-0.17221
-0.163278
-0.152163
-0.139
-0.124086
-0.107853
-0.0908086
-0.0734692
-0.0562986
-0.0396972
-0.0239697
-0.00935379
0.00398043
0.0158632
0.0262237
0.0348314
0.0409907
0.043731
0.0431215
0.0397924
0.0332553
0.0209053
-0.0018492
-0.0352781
-0.0702691
-0.091763
-0.0925813
-0.0785267
-0.0597033
-0.0416308
-0.0266382
-0.0150403
-0.0057264
-0.000480382
0.00302657
0.00392951
0.00609427
0.00293834
-0.00340537
-0.0198715
-0.0502798
-0.0774475
-0.0910318
-0.0736018
-0.0514415
-0.0330473
-0.0153683
-0.00400466
0.0101994
0.00656483
-0.1598
-0.170782
-0.174261
-0.173407
-0.171906
-0.171111
-0.170573
-0.169305
-0.166579
-0.162085
-0.155754
-0.147579
-0.137577
-0.125844
-0.11259
-0.0981381
-0.0828819
-0.067241
-0.0516067
-0.0363354
-0.0217153
-0.00798587
0.00467957
0.0160816
0.0261175
0.0345998
0.0409456
0.0444257
0.0449417
0.042942
0.037749
0.0264275
0.00458359
-0.0268919
-0.0586893
-0.0772376
-0.0779431
-0.0662995
-0.0506398
-0.0352652
-0.0221332
-0.0118212
-0.00331948
0.00159718
0.00508616
0.00600973
0.00819344
0.00519278
-0.00101539
-0.0168814
-0.0466083
-0.073466
-0.0874589
-0.0708971
-0.0487717
-0.0307666
-0.014012
-0.00321605
0.0106186
0.00668543
-0.145514
-0.15604
-0.159568
-0.158818
-0.157172
-0.15602
-0.155093
-0.153564
-0.150791
-0.146494
-0.14062
-0.133186
-0.124219
-0.113783
-0.102022
-0.0891732
-0.0755427
-0.0614722
-0.0472928
-0.0333181
-0.0198128
-0.00701175
0.00491089
0.015746
0.0253627
0.0335915
0.0399132
0.0438094
0.0451051
0.0441162
0.0400669
0.0299437
0.0097721
-0.0187007
-0.046379
-0.062036
-0.0631184
-0.0542011
-0.0417556
-0.0290433
-0.0177306
-0.00866632
-0.000998813
0.00354184
0.00698972
0.0079858
0.0101674
0.00740671
0.00150342
-0.0133735
-0.04203
-0.0682111
-0.08241
-0.0671629
-0.0455923
-0.0281912
-0.0124974
-0.00241012
0.0108744
0.00669528
-0.131898
-0.141722
-0.145173
-0.144567
-0.142934
-0.141614
-0.140473
-0.138829
-0.136122
-0.132099
-0.126717
-0.120004
-0.111989
-0.102719
-0.0922961
-0.0808946
-0.068751
-0.0561416
-0.0433428
-0.0306267
-0.0182327
-0.00638529
0.00473944
0.0149355
0.0240509
0.0319431
0.0380893
0.0421619
0.043919
0.0435309
0.040201
0.0312816
0.0136716
-0.010589
-0.0337093
-0.0470219
-0.048902
-0.0427325
-0.0333093
-0.0230967
-0.0135106
-0.00561947
0.00122338
0.00536254
0.0087382
0.00986478
0.0120349
0.00958137
0.0040857
-0.0095107
-0.0365841
-0.0616655
-0.0758924
-0.0623622
-0.0419182
-0.0253675
-0.0108414
-0.00158933
0.010959
0.006586
-0.118932
-0.127902
-0.131226
-0.130795
-0.129278
-0.127933
-0.126717
-0.125071
-0.12251
-0.118808
-0.11393
-0.107906
-0.10077
-0.0925595
-0.0833461
-0.0732588
-0.0624785
-0.051226
-0.0397308
-0.0282275
-0.01693
-0.00604875
0.00424103
0.0137397
0.0222731
0.0296101
0.0356245
0.0397313
0.0417356
0.0416766
0.0388318
0.0312355
0.0167643
-0.00286778
-0.0217088
-0.0332208
-0.0360393
-0.0323205
-0.0255223
-0.0175337
-0.00953665
-0.00272308
0.00333429
0.00707151
0.0103451
0.0116552
0.0138131
0.0117235
0.00670823
-0.00533738
-0.0303117
-0.0539583
-0.0680315
-0.056529
-0.037789
-0.0223572
-0.00907358
-0.000749536
0.0108737
0.00635806
-0.10651
-0.114712
-0.117906
-0.117648
-0.116294
-0.115009
-0.113812
-0.112242
-0.109879
-0.106526
-0.102151
-0.0967875
-0.0904683
-0.0832254
-0.0751104
-0.0662181
-0.0566864
-0.0466915
-0.0364226
-0.0260809
-0.0158557
-0.00594023
0.00349568
0.0122622
0.0201837
0.0270522
0.0327168
0.0367335
0.0388583
0.0390335
0.0366715
0.0304726
0.0190524
0.00364688
-0.0114806
-0.0214703
-0.0250097
-0.0232198
-0.0185382
-0.012432
-0.00585614
-1.74022e-05
0.0053176
0.00867411
0.0118269
0.0133648
0.0155347
0.0138722
0.00943697
-0.000839162
-0.0233585
-0.0453436
-0.0590749
-0.0497871
-0.0332712
-0.0192336
-0.00723528
0.000124161
0.0106337
0.00602403
-0.0948448
-0.102304
-0.105322
-0.105206
-0.104028
-0.102852
-0.101736
-0.100294
-0.0981649
-0.0951741
-0.0912948
-0.0865587
-0.0809988
-0.0746418
-0.0675258
-0.0597209
-0.0513327
-0.0425012
-0.0333818
-0.0241456
-0.0149584
-0.00599459
0.00258426
0.0106006
0.0178864
0.0242494
0.0295192
0.0333655
0.0355359
0.035917
0.034055
0.0291372
0.0202864
0.00840159
-0.00356845
-0.0121018
-0.0159402
-0.0154996
-0.0124218
-0.00784138
-0.00250213
0.00246359
0.00715451
0.0101667
0.0131919
0.0149859
0.0172491
0.0161104
0.0123672
0.00394016
-0.0159834
-0.0361878
-0.0493945
-0.0423576
-0.0284594
-0.0160733
-0.0053756
0.00105917
0.0102722
0.00561444
-0.0840321
-0.0906981
-0.0934937
-0.0934902
-0.0925092
-0.0914757
-0.0904753
-0.0891921
-0.0873141
-0.0846869
-0.0812865
-0.0771423
-0.0722856
-0.0667396
-0.0605329
-0.053718
-0.0463757
-0.0386174
-0.0305703
-0.0223784
-0.0141859
-0.00614841
0.00158516
0.00885018
0.0154881
0.021321
0.026178
0.0298038
0.0319634
0.032516
0.0311225
0.0272955
0.0205159
0.0114736
0.0021427
-0.00497045
-0.00871405
-0.00910225
-0.00717659
-0.00378739
0.0005046
0.00469499
0.00882329
0.0115422
0.0144393
0.0164844
0.0189734
0.0185117
0.0155669
0.00888535
-0.0085459
-0.0269558
-0.0394636
-0.0345593
-0.023478
-0.0129478
-0.00354442
0.00209002
0.00984327
0.00518145
-0.0739639
-0.0798872
-0.0824769
-0.08261
-0.0817803
-0.0808871
-0.0800171
-0.0789053
-0.0772814
-0.0750081
-0.0720624
-0.0684709
-0.0642624
-0.0594574
-0.0540777
-0.0481629
-0.0417751
-0.0350028
-0.0279497
-0.0207366
-0.0134878
-0.00634054
0.000571374
0.00709838
0.0130918
0.0183884
0.0228264
0.0262032
0.0283096
0.0290036
0.0280394
0.025138
0.0200217
0.0132269
0.00606394
0.000295999
-0.00308599
-0.00390468
-0.00276565
-0.000276797
0.00315283
0.00666436
0.0102993
0.012789
0.0155631
0.0178123
0.0206353
0.0210349
0.018987
0.0137789
-0.00149701
-0.0181596
-0.0297829
-0.0267662
-0.0184777
-0.00991903
-0.00178358
0.00324347
0.00941803
0.00479731
-0.0646283
-0.0698838
-0.0722572
-0.0724571
-0.0718022
-0.071062
-0.0703347
-0.0693995
-0.0680239
-0.0660866
-0.0635662
-0.0604857
-0.0568711
-0.0527405
-0.048111
-0.0430122
-0.0374922
-0.0316212
-0.0254836
-0.0191805
-0.0128176
-0.00651453
-0.000390641
0.00542144
0.0107872
0.0155568
0.0195828
0.0226996
0.0247295
0.0255454
0.0249706
0.0228541
0.0190681
0.0140421
0.00864405
0.00410051
0.00120904
0.000238824
0.000872636
0.00270089
0.00543805
0.00837056
0.0115632
0.0138825
0.0165446
0.01893
0.0220826
0.0233929
0.0222618
0.0181676
0.00469452
-0.010226
-0.0207949
-0.0193528
-0.0136275
-0.00704135
-0.000122912
0.00451807
0.00906298
0.00454289
-0.0560709
-0.0606948
-0.0628435
-0.0630976
-0.0625898
-0.0619939
-0.0614067
-0.060643
-0.059502
-0.0578772
-0.0557486
-0.0531357
-0.0500613
-0.0465413
-0.0425888
-0.0382266
-0.0334918
-0.0284399
-0.0231397
-0.0176749
-0.0121347
-0.00662235
-0.00124306
0.00388724
0.00865045
0.0129115
0.0165441
0.0194038
0.0213467
0.0222661
0.0220343
0.0205809
0.0178663
0.0142307
0.0102483
0.00676741
0.00441427
0.00347432
0.00381153
0.00517088
0.007363
0.0098154
0.0126081
0.0147928
0.0173397
0.0197967
0.0231483
0.0251593
0.0247452
0.0214236
0.00966895
-0.00340047
-0.0128383
-0.0126676
-0.00910414
-0.00436055
0.00140891
0.00586132
0.00883255
0.00447366
-0.0482468
-0.0522803
-0.0542098
-0.054506
-0.0541252
-0.0536666
-0.0532095
-0.0526042
-0.0516787
-0.050339
-0.0485661
-0.0463759
-0.0437884
-0.040817
-0.0374723
-0.0337713
-0.0297427
-0.0254304
-0.02089
-0.0161905
-0.0114067
-0.00662643
-0.00193954
0.00255228
0.00674594
0.0105234
0.0137853
0.0163975
0.0182477
0.0192491
0.0193127
0.0184154
0.01656
0.0140086
0.0111526
0.00857489
0.00674703
0.0059425
0.00613026
0.00716881
0.00893908
0.0110014
0.0134327
0.0154958
0.0179041
0.0203504
0.0236801
0.0259992
0.0259453
0.02314
0.0132548
0.0021659
-0.00615606
-0.00696883
-0.00506321
-0.00190769
0.0027726
0.00713391
0.00875914
0.00459194
-0.0410984
-0.0446086
-0.0463408
-0.0466757
-0.0464242
-0.046064
-0.0457158
-0.0452502
-0.0445168
-0.0434323
-0.0419776
-0.0401654
-0.0380126
-0.0355306
-0.0327275
-0.029616
-0.0262182
-0.0225688
-0.0187123
-0.014705
-0.0106092
-0.00649826
-0.00244761
0.00145421
0.00512015
0.00845462
0.0113608
0.0137347
0.015487
0.0165487
0.0168587
0.0164137
0.0152373
0.0135305
0.011574
0.0097373
0.00838896
0.00777161
0.00790867
0.00873689
0.0101846
0.0119334
0.0140397
0.0159722
0.018205
0.0205482
0.0236109
0.0258421
0.0258721
0.023418
0.0154764
0.00637792
-0.000862972
-0.00237548
-0.00161356
0.000297682
0.00392623
0.00812904
0.00880141
0.00483089
-0.0345998
-0.0376425
-0.0391856
-0.0395355
-0.0393711
-0.0391179
-0.0388754
-0.0385371
-0.0379762
-0.0371182
-0.0359452
-0.0344673
-0.032699
-0.0306495
-0.0283251
-0.0257353
-0.0228967
-0.0198366
-0.0165903
-0.0132034
-0.00972662
-0.00622071
-0.00274915
0.000613458
0.0037975
0.00672848
0.00929507
0.0114424
0.0130936
0.0141922
0.0146959
0.01461
0.0139623
0.0129089
0.0116488
0.0104131
0.00948697
0.00907622
0.00922395
0.00992123
0.0111235
0.01262
0.0144353
0.0162161
0.018234
0.0203866
0.0230191
0.0249236
0.0249062
0.022707
0.0165323
0.00927753
0.00310362
0.00114916
0.0011954
0.00222844
0.00483606
0.00868816
0.00882419
0.00503583
-0.0287173
-0.0313403
-0.0327082
-0.0330675
-0.0329875
-0.0328311
-0.0326691
-0.0324358
-0.0320218
-0.0313601
-0.0304329
-0.0292476
-0.0278157
-0.0261449
-0.0242402
-0.0221081
-0.0197613
-0.0172205
-0.0145138
-0.0116775
-0.00875261
-0.00578909
-0.00283879
3.69237e-05
0.00277849
0.00531713
0.00758647
0.00952684
0.011075
0.0121861
0.0128319
0.0130205
0.0127771
0.0122173
0.0114488
0.0107254
0.0101653
0.00995717
0.010149
0.010769
0.0117846
0.0130758
0.0146292
0.0162359
0.0180146
0.0199066
0.0220651
0.0235424
0.0234473
0.0214749
0.0167422
0.0110631
0.0059316
0.00375448
0.0033718
0.00384004
0.00548386
0.00877634
0.00864334
0.00502275
-0.0234007
-0.0256527
-0.0268612
-0.0272221
-0.0272086
-0.0271266
-0.0270453
-0.0269026
-0.0266136
-0.0261207
-0.025406
-0.0244739
-0.0233337
-0.0219917
-0.0204514
-0.0187176
-0.0167992
-0.0147123
-0.0124785
-0.0101266
-0.00768908
-0.00520637
-0.00272004
-0.000280808
0.0020613
0.00425074
0.00624115
0.0079848
0.00942345
0.0105222
0.0112621
0.0116503
0.0117088
0.0115287
0.0111602
0.0107986
0.010531
0.0105023
0.010751
0.0113268
0.0122003
0.0133198
0.0146401
0.0160557
0.0175826
0.0191757
0.0207752
0.021927
0.021778
0.0200433
0.016422
0.0120096
0.00784208
0.00561784
0.00496411
0.00508619
0.00586902
0.0084492
0.00813527
0.00469871
-0.0186087
-0.0205371
-0.0216026
-0.0219606
-0.0220024
-0.0219848
-0.0219685
-0.021902
-0.0217167
-0.0213656
-0.0208317
-0.0201166
-0.0192269
-0.0181674
-0.0169407
-0.01555
-0.0140018
-0.012308
-0.0104851
-0.00855539
-0.00654432
-0.00448398
-0.00240728
-0.000354724
0.00163352
0.00351282
0.00525377
0.00679646
0.00811764
0.00918157
0.00997195
0.0104953
0.0107669
0.0108409
0.0107876
0.0107056
0.0106668
0.0107866
0.0110911
0.0116407
0.0124034
0.0133761
0.0144915
0.0157114
0.0169873
0.0182606
0.0194812
0.0202706
0.0200802
0.0185868
0.0158043
0.0123678
0.00903996
0.00690346
0.00605324
0.00594846
0.00603049
0.00781407
0.00732204
0.00411804
-0.0143044
-0.0159505
-0.0168881
-0.0172393
-0.0173258
-0.0173618
-0.0174
-0.0173986
-0.017298
-0.0170631
-0.0166798
-0.0161477
-0.0154707
-0.0146517
-0.0136925
-0.012595
-0.0113638
-0.0100072
-0.0085379
-0.00697297
-0.00533187
-0.00363943
-0.00192136
-0.000209653
0.00146572
0.00306685
0.00456342
0.00592485
0.00712322
0.00813504
0.00894185
0.0095486
0.00996564
0.0102313
0.0103849
0.010506
0.0106386
0.0108732
0.011224
0.0117537
0.0124279
0.0132723
0.01421
0.0152397
0.0162847
0.0172926
0.0181827
0.018678
0.0184542
0.0171876
0.0150376
0.0123387
0.00969531
0.00773751
0.00673292
0.00645412
0.00603007
0.00701945
0.00632972
0.00342274
-0.0104482
-0.0118496
-0.0126736
-0.0130154
-0.0131375
-0.0132171
-0.0132994
-0.0133514
-0.0133238
-0.0131836
-0.0129229
-0.0125416
-0.0120423
-0.0114258
-0.0106927
-0.00984364
-0.00888144
-0.00781208
-0.00664467
-0.00539203
-0.00406898
-0.00269438
-0.00128774
0.00012601
0.0015235
0.00287615
0.00415999
0.00534697
0.00641883
0.00735574
0.00814833
0.00879573
0.00929849
0.00968712
0.00998257
0.0102444
0.010498
0.0108142
0.0111973
0.011707
0.0123076
0.013038
0.013822
0.014675
0.0155126
0.0162889
0.0169205
0.0171968
0.0169488
0.0158827
0.0142077
0.0120663
0.00995013
0.0082129
0.00709587
0.00666392
0.00592205
0.00621097
0.0053222
0.00274164
-0.00700274
-0.00819347
-0.00891756
-0.00924839
-0.00939835
-0.0095127
-0.00963004
-0.00972454
-0.00975605
-0.00969703
-0.00953613
-0.00927533
-0.00892134
-0.00847287
-0.00792929
-0.00728898
-0.00655339
-0.00572649
-0.00481471
-0.00382746
-0.00277571
-0.00167358
-0.000535842
0.000618729
0.00177253
0.00290358
0.0039932
0.00501959
0.0059682
0.00682371
0.00757527
0.00822176
0.00876364
0.0092204
0.00960297
0.00995377
0.0102854
0.0106529
0.0110531
0.0115387
0.0120749
0.0127033
0.013355
0.0140491
0.0147075
0.0152883
0.0157228
0.0158432
0.0155817
0.0146845
0.0133612
0.0116452
0.00992112
0.00840149
0.00722848
0.00665661
0.00574272
0.00547582
0.00444605
0.0021596
-0.00393393
-0.00494426
-0.00558092
-0.00589972
-0.00607101
-0.00621279
-0.00635749
-0.00648503
-0.00656312
-0.00656916
-0.00649392
-0.00633642
-0.00609646
-0.00577806
-0.005392
-0.00492496
-0.00437929
-0.00375593
-0.00305899
-0.00229539
-0.00147327
-0.000603055
0.000304314
0.00123496
0.00217563
0.0031097
0.00402292
0.00489893
0.00572538
0.00648993
0.00718389
0.00780492
0.00835093
0.0088348
0.0092607
0.00965866
0.0100329
0.0104248
0.010827
0.0112827
0.0117603
0.0122972
0.0128354
0.0133911
0.0138992
0.0143205
0.0146061
0.0146197
0.0143519
0.0135934
0.0125273
0.0111378
0.00970103
0.00838364
0.00721412
0.00650801
0.00551087
0.0048472
0.0037177
0.00170413
-0.00120981
-0.00206629
-0.00262677
-0.00293301
-0.0031202
-0.0032832
-0.00344889
-0.00360189
-0.00371649
-0.0037744
-0.00376803
-0.0036965
-0.00356082
-0.00336129
-0.00308646
-0.00274656
-0.00236112
-0.00190716
-0.00138918
-0.000812437
-0.000183052
0.000491378
0.00120287
0.00194116
0.00269648
0.00345677
0.00421127
0.00494729
0.00565487
0.00632444
0.00694862
0.00752452
0.0080485
0.00852848
0.00896436
0.00937672
0.00976481
0.0101589
0.0105489
0.0109691
0.0113915
0.0118462
0.0122871
0.0127252
0.0131093