/*--------------------------------*- C++ -*----------------------------------*\
| =========                 |                                                 |
| \\      /  F ield         | OpenFOAM: The Open Source CFD Toolbox           |
|  \\    /   O peration     | Version:  2512                                  |
|   \\  /    A nd           | Website:  www.openfoam.com                      |
|    \\/     M anipulation  |                                                 |
\*---------------------------------------------------------------------------*/
FoamFile
{
    version     2.0;
    format      ascii;
    arch        "LSB;label=32;scalar=64";
    class       volVectorField;
    location    "151";
    object      U;
}
// * * * * * * * * * * * * * * * * * * * * * * * * * * * * * * * * * * * * * //

dimensions      [0 1 -1 0 0 0 0];

internalField   nonuniform List<vector> 
13248
(
(-0.0115044 0.0116946 9.01668e-20)
(-0.0162225 0.0221748 0)
(-0.00368605 0.0249234 -1.71129e-19)
(0.0240153 0.0219682 1.61201e-19)
(0.0655947 0.0152356 1.51674e-19)
(0.120177 0.00638191 0)
(0.18691 -0.00331686 0)
(0.264685 -0.0128997 3.70696e-19)
(0.351904 -0.021649 -2.03191e-21)
(0.446335 -0.0290486 -3.23266e-19)
(0.545119 -0.0347635 2.96186e-19)
(0.644921 -0.038628 -1.85119e-19)
(0.742212 -0.040633 0)
(0.833597 -0.0409034 -2.99299e-19)
(0.916151 -0.0396648 5.50347e-19)
(0.987667 -0.0372037 -1.30966e-19)
(1.04682 -0.0338232 -2.13547e-19)
(1.09321 -0.0298149 2.00485e-19)
(1.12728 -0.0253941 0)
(1.15013 -0.020847 0)
(1.16351 -0.0159493 0)
(1.16873 -0.0119406 0)
(1.16925 -0.00595809 4.82508e-20)
(1.16251 -0.0060699 1.57549e-19)
(-0.00965117 0.0089026 -2.72175e-19)
(-0.00816087 0.0150171 1.85579e-19)
(0.0136032 0.0152 -1.23577e-21)
(0.0534395 0.0112023 -2.45745e-19)
(0.109838 0.00477158 -1.51509e-19)
(0.181475 -0.00253249 -1.43251e-19)
(0.266715 -0.00951716 -2.65048e-19)
(0.36331 -0.0153306 2.49709e-19)
(0.468221 -0.0194279 0)
(0.577636 -0.0215542 1.89074e-21)
(0.687219 -0.0217217 3.37358e-21)
(0.792514 -0.0201658 1.83099e-19)
(0.889424 -0.0172788 0)
(0.974641 -0.0135299 0)
(1.04595 -0.00938467 1.9615e-19)
(1.10235 -0.00523825 -3.68213e-19)
(1.14403 -0.00137147 2.07683e-19)
(1.17218 0.00206517 -1.94991e-19)
(1.1887 0.0050483 -8.21538e-20)
(1.19589 0.00762885 -1.40958e-19)
(1.19613 0.0100363 -5.37142e-20)
(1.19168 0.0120227 -9.82552e-20)
(1.18442 0.0152695 1.5237e-19)
(1.17456 0.0144386 4.16861e-20)
(-0.006807 0.00600611 0)
(0.00350306 0.00746495 0)
(0.0374553 0.0050871 8.69661e-20)
(0.0925018 0.000424948 8.0571e-20)
(0.166619 -0.0049236 -1.43445e-21)
(0.257592 -0.00952868 -1.46274e-19)
(0.362429 -0.012399 0)
(0.477121 -0.0129918 -1.24204e-19)
(0.596712 -0.0111886 1.15328e-19)
(0.71566 -0.00725237 -4.57938e-22)
(0.828443 -0.0017396 -1.95202e-19)
(0.930216 0.004628 -1.75291e-19)
(1.01736 0.0111068 6.00852e-21)
(1.08781 0.0170586 -1.36495e-19)
(1.14111 0.0220376 3.34374e-19)
(1.17822 0.0258271 0)
(1.20119 0.0284284 -2.01803e-19)
(1.21269 0.0300103 9.89305e-20)
(1.21558 0.0308532 8.20835e-20)
(1.21254 0.0312418 0)
(1.2059 0.0315578 6.30602e-20)
(1.19732 0.031692 -2.10939e-19)
(1.18811 0.0328293 1.98013e-19)
(1.17861 0.0309686 1.17461e-19)
(-0.00263944 0.00306204 -9.52778e-20)
(0.0196406 -1.70897e-05 -9.82399e-20)
(0.0691716 -0.0043675 8.951e-20)
(0.142677 -0.00870797 0)
(0.237109 -0.0116668 0)
(0.348704 -0.0120822 -1.99194e-21)
(0.472411 -0.00939622 0)
(0.601961 -0.00366903 -3.7306e-19)
(0.730406 0.00451126 3.45451e-19)
(0.85097 0.014184 -4.25623e-19)
(0.95796 0.02423 9.70572e-20)
(1.04745 0.0335969 0)
(1.11761 0.041479 1.55068e-19)
(1.16863 0.0474158 -2.84696e-19)
(1.20231 0.051303 6.78032e-20)
(1.22155 0.0533309 1.64982e-19)
(1.22966 0.0538819 -1.1572e-20)
(1.22989 0.053419 -1.81219e-19)
(1.22506 0.0523913 0)
(1.21735 0.0511661 0)
(1.2083 0.0500529 -6.01888e-20)
(1.19885 0.0489942 5.28926e-20)
(1.18969 0.0488847 1.81398e-19)
(1.18051 0.0462093 -1.70329e-19)
(0.00327098 0.00012485 -9.92984e-20)
(0.041153 -0.00696728 -9.9326e-20)
(0.109799 -0.012144 2.79737e-19)
(0.204688 -0.0146285 -1.70596e-19)
(0.321035 -0.0134937 1.60574e-19)
(0.452747 -0.00812251 2.93004e-19)
(0.592144 0.00126931 -2.06301e-19)
(0.730642 0.0137064 -2.49022e-19)
(0.859946 0.0277248 6.22682e-21)
(0.973287 0.0417126 3.18867e-19)
(1.06631 0.0542446 0)
(1.13739 0.0643243 8.53788e-20)
(1.18735 0.071486 0)
(1.21887 0.0757596 -1.35332e-19)
(1.2356 0.0775406 1.89871e-19)
(1.24145 0.0774212 1.68309e-21)
(1.23995 0.0760347 -4.80623e-20)
(1.23397 0.0739427 8.78126e-20)
(1.22557 0.0715783 7.51932e-20)
(1.21612 0.069234 -6.63536e-20)
(1.20647 0.0670885 6.0173e-20)
(1.19706 0.0651289 -5.28783e-20)
(1.18811 0.0638211 0)
(1.17954 0.060616 -3.9751e-20)
(0.0113511 -0.00267592 9.92843e-20)
(0.0687968 -0.0127959 1.03569e-19)
(0.159882 -0.0171446 -9.35688e-20)
(0.278212 -0.0158359 1.74201e-19)
(0.416449 -0.00876899 -1.63959e-19)
(0.565505 0.00371569 1.48376e-19)
(0.714971 0.0202581 -7.09509e-20)
(0.854664 0.0387837 1.87091e-19)
(0.976354 0.0570485 -1.16951e-19)
(1.07496 0.0731392 2.04627e-19)
(1.14887 0.0858012 -4.69926e-19)
(1.19949 0.0945393 1.71419e-19)
(1.23031 0.0995195 -1.4764e-19)
(1.24575 0.10135 1.38682e-19)
(1.25027 0.100838 1.16957e-19)
(1.24769 0.098783 1.00604e-19)
(1.24095 0.0958583 -2.79708e-19)
(1.23208 0.092558 1.7262e-19)
(1.22236 0.0892068 -7.51944e-20)
(1.21254 0.0859938 1.93074e-19)
(1.203 0.0830143 -6.23879e-20)
(1.19393 0.0802718 -1.48165e-19)
(1.1854 0.0779956 1.36166e-19)
(1.17728 0.0744249 3.97384e-20)
(0.0219577 -0.00509702 0)
(0.103016 -0.0167219 5.89012e-22)
(0.219261 -0.0181584 1.93312e-19)
(0.36174 -0.0109355 -1.81595e-19)
(0.519836 0.00369257 -1.64045e-19)
(0.68124 0.0239632 3.04732e-19)
(0.833492 0.0471325 -1.41445e-19)
(0.96632 0.0701394 1.87824e-19)
(1.07338 0.0903868 -4.61662e-21)
(1.15271 0.106222 -1.0568e-19)
(1.20614 0.117049 2.28443e-19)
(1.23787 0.123147 -3.35551e-19)
(1.25315 0.125345 0)
(1.25704 0.124681 -6.45929e-20)
(1.25376 0.122142 -1.70522e-19)
(1.24642 0.11853 5.38853e-20)
(1.2371 0.114415 2.55239e-21)
(1.22706 0.110167 -1.1324e-19)
(1.21699 0.106001 8.75292e-21)
(1.20726 0.102029 1.30153e-19)
(1.198 0.0983001 -5.65895e-20)
(1.18928 0.0948307 -2.11429e-20)
(1.18106 0.0916605 6.64202e-20)
(1.17326 0.0877479 0)
(0.0353136 -0.00678094 0)
(0.1438 -0.0177879 5.22768e-20)
(0.286939 -0.0139195 -2.50295e-19)
(0.452599 0.00124736 9.11526e-20)
(0.62652 0.0245064 -8.57891e-20)
(0.793691 0.0523195 -7.79358e-20)
(0.941105 0.0806314 -1.37998e-19)
(1.06034 0.105868 6.88865e-20)
(1.14849 0.125726 6.00718e-20)
(1.20741 0.139354 0)
(1.24201 0.147096 1.34548e-19)
(1.25838 0.150006 -1.98699e-19)
(1.26235 0.149391 1.4789e-19)
(1.2587 0.146475 6.46261e-20)
(1.25087 0.142226 -5.21219e-20)
(1.24108 0.137323 -4.28086e-20)
(1.23065 0.132198 -3.95046e-20)
(1.22026 0.1271 1.19921e-19)
(1.21027 0.122163 0)
(1.2008 0.117451 5.87443e-20)
(1.19188 0.112993 4.84014e-20)
(1.1835 0.108798 -1.21214e-19)
(1.17559 0.104811 -8.1221e-20)
(1.16805 0.100576 7.53416e-20)
(0.051459 -0.00728548 -5.53476e-20)
(0.190595 -0.0149515 -1.57548e-21)
(0.36106 -0.00325564 5.06918e-20)
(0.54718 0.0214962 1.40947e-19)
(0.731333 0.0536326 4.07874e-20)
(0.897168 0.0877927 -7.88477e-20)
(1.03316 0.119082 7.23236e-20)
(1.13446 0.144143 -6.35061e-20)
(1.20241 0.161595 1.12998e-19)
(1.24239 0.171718 4.79757e-20)
(1.26142 0.175795 -1.35743e-19)
(1.26635 0.175462 3.99325e-20)
(1.26273 0.17225 6.75616e-20)
(1.2545 0.167364 -3.33343e-20)
(1.2442 0.161637 0)
(1.23327 0.15559 4.88561e-20)
(1.22245 0.14952 8.1941e-20)
(1.21209 0.143586 1.34699e-20)
(1.20231 0.137868 -6.78314e-20)
(1.19314 0.132404 2.81695e-20)
(1.18455 0.127208 0)
(1.17648 0.122273 -2.18167e-20)
(1.16884 0.117524 -2.02309e-20)
(1.16154 0.112913 0)
(0.070211 -0.00613191 0)
(0.242258 -0.00721879 2.88801e-20)
(0.439 0.0147288 5.33676e-20)
(0.641325 0.0500579 -1.42788e-19)
(0.829344 0.0903978 4.5843e-20)
(0.987367 0.128954 0)
(1.10731 0.160791 6.89885e-20)
(1.18896 0.183526 -9.61654e-20)
(1.23775 0.197129 -5.61992e-20)
(1.26168 0.203056 2.5487e-20)
(1.26882 0.203343 -4.00939e-20)
(1.2658 0.199938 9.77243e-20)
(1.25738 0.194382 4.8668e-20)
(1.24656 0.187735 -3.40307e-20)
(1.23504 0.180651 -3.39472e-21)
(1.22368 0.173498 -9.17424e-20)
(1.21284 0.166469 4.16763e-20)
(1.20266 0.159661 -9.55878e-22)
(1.19318 0.15312 0)
(1.18434 0.146868 -2.81985e-20)
(1.17609 0.140909 0)
(1.16834 0.135215 6.2977e-20)
(1.16099 0.129753 -7.47682e-20)
(1.15393 0.124691 3.3958e-20)
(0.0911405 -0.00285645 -1.47698e-20)
(0.297086 0.00622531 -7.21755e-20)
(0.517574 0.0405066 8.17892e-20)
(0.73081 0.086589 4.8196e-20)
(0.916457 0.133627 -2.31263e-20)
(1.06165 0.174208 3.86337e-20)
(1.16316 0.20428 -1.88409e-20)
(1.22557 0.223028 3.13217e-20)
(1.25764 0.231912 0)
(1.26889 0.233408 7.06444e-20)
(1.26745 0.230024 -2.95342e-21)
(1.25923 0.223785 -5.69082e-20)
(1.24798 0.216091 2.43211e-20)
(1.23581 0.207801 -2.73425e-20)
(1.2238 0.199394 -1.03281e-20)
(1.21238 0.191114 1.19933e-20)
(1.20172 0.183079 -9.22761e-21)
(1.19184 0.175346 -4.96774e-20)
(1.18271 0.167938 3.04472e-20)
(1.17424 0.160867 6.21547e-21)
(1.16635 0.154121 5.44983e-21)
(1.15893 0.147664 4.7787e-21)
(1.15189 0.141531 0)
(1.1451 0.135915 0)
(0.113644 0.00295161 1.478e-20)
(0.35305 0.0259262 -1.48316e-20)
(0.593484 0.0740491 -2.71852e-20)
(0.811913 0.130205 0)
(0.989781 0.181843 -1.14273e-20)
(1.11889 0.222026 -1.01952e-20)
(1.20149 0.248407 -1.75223e-20)
(1.24644 0.262047 0)
(1.26477 0.265811 0)
(1.26652 0.262916 0)
(1.25923 0.256076 0)
(1.2478 0.24721 0)
(1.23503 0.237503 -1.52574e-20)
(1.22231 0.227609 6.94523e-21)
(1.21024 0.217856 1.20448e-20)
(1.19903 0.208396 5.61501e-21)
(1.1887 0.199293 1.38749e-20)
(1.17921 0.190577 0)
(1.1705 0.182257 -3.30676e-21)
(1.16247 0.174332 -3.12075e-21)
(1.15501 0.166778 -5.45846e-21)
(1.14801 0.159564 -4.78629e-21)
(1.14136 0.15279 0)
(1.13491 0.146525 3.41405e-21)
(-0.000842658 -0.0218783 8.98457e-21)
(-0.00567016 -0.0614421 -9.33575e-21)
(-0.0158004 -0.0964462 -1.76852e-20)
(-0.0289409 -0.126089 0)
(-0.0437512 -0.150452 -2.36563e-20)
(-0.0594359 -0.170372 7.41172e-21)
(-0.0753391 -0.187058 -1.40646e-20)
(-0.0909315 -0.201725 0)
(-0.105823 -0.215351 0)
(-0.119741 -0.228551 0)
(-0.132497 -0.24158 0)
(-0.143958 -0.254382 0)
(-0.154013 -0.266681 3.91775e-23)
(-0.162554 -0.278036 -9.38808e-21)
(-0.169459 -0.2879 1.77284e-20)
(-0.174591 -0.295638 2.51994e-20)
(-0.17779 -0.300552 7.81307e-21)
(-0.178889 -0.301896 0)
(-0.177728 -0.298904 7.21513e-21)
(-0.174176 -0.290838 -1.99736e-20)
(-0.168106 -0.277047 -1.24261e-20)
(-0.159323 -0.256991 -1.16831e-20)
(-0.147821 -0.230204 0)
(-0.134811 -0.19667 0)
(-0.000403303 -0.0164295 -2.7035e-20)
(-0.00499024 -0.0487436 4.66522e-20)
(-0.016018 -0.0789966 -1.7667e-20)
(-0.0305793 -0.105585 -3.35522e-20)
(-0.0470136 -0.128141 4.73655e-20)
(-0.0643803 -0.147216 -2.99334e-20)
(-0.081943 -0.163795 4.22186e-20)
(-0.099143 -0.178916 2.6785e-20)
(-0.115602 -0.193407 0)
(-0.131084 -0.207779 -2.36879e-20)
(-0.14545 -0.222217 -1.54857e-22)
(-0.158617 -0.236637 2.09636e-20)
(-0.170524 -0.250761 2.98507e-20)
(-0.181115 -0.264176 3.74671e-20)
(-0.190322 -0.276371 -1.76672e-20)
(-0.198057 -0.286756 -4.97969e-20)
(-0.204215 -0.294672 1.53079e-20)
(-0.208677 -0.299402 -5.77965e-20)
(-0.211336 -0.300182 0)
(-0.21212 -0.296244 1.31879e-20)
(-0.210911 -0.286857 1.24143e-20)
(-0.207364 -0.271323 1.16719e-20)
(-0.201492 -0.248933 0)
(-0.195912 -0.219461 0)
(-0.000684082 -0.00992223 0)
(-0.00559121 -0.03378 9.44278e-20)
(-0.0172407 -0.0587138 -3.56106e-20)
(-0.0324699 -0.082076 3.36999e-20)
(-0.0494829 -0.102871 -9.59539e-20)
(-0.0672832 -0.121227 0)
(-0.0851045 -0.137813 -5.71214e-20)
(-0.102382 -0.153432 2.69666e-20)
(-0.118753 -0.168747 -5.11606e-20)
(-0.134006 -0.184166 2.43925e-20)
(-0.148034 -0.199821 1.35606e-19)
(-0.160786 -0.215617 -6.3643e-20)
(-0.172238 -0.23129 -9.94587e-20)
(-0.182372 -0.246459 -3.71463e-20)
(-0.191165 -0.260655 3.83619e-22)
(-0.198584 -0.273332 1.30178e-19)
(-0.204584 -0.283877 -6.08712e-20)
(-0.209103 -0.291605 9.34209e-22)
(-0.2121 -0.295767 0)
(-0.21358 -0.295564 -4.64021e-20)
(-0.213469 -0.290174 0)
(-0.211267 -0.278753 -4.08031e-20)
(-0.206808 -0.260506 1.4587e-19)
(-0.204219 -0.235318 -1.61112e-21)
(-0.00171976 -0.00299092 0)
(-0.00748401 -0.0178491 5.48289e-22)
(-0.0193636 -0.037172 3.64594e-20)
(-0.0343664 -0.0572069 -3.46056e-20)
(-0.0507743 -0.0762527 3.18779e-20)
(-0.0676304 -0.0939337 1.84175e-19)
(-0.0841882 -0.110546 -5.77143e-20)
(-0.0998961 -0.126623 -5.50962e-20)
(-0.114402 -0.142654 1.03093e-19)
(-0.127507 -0.158944 -1.4525e-19)
(-0.139115 -0.175582 4.58835e-20)
(-0.149189 -0.192464 4.31429e-20)
(-0.157726 -0.209342 0)
(-0.164734 -0.225864 3.73619e-20)
(-0.170232 -0.241595 0)
(-0.174238 -0.256037 6.43722e-20)
(-0.176768 -0.268626 -1.17456e-19)
(-0.177828 -0.278733 3.05396e-20)
(-0.17743 -0.285658 1.00811e-19)
(-0.175631 -0.288612 4.63627e-20)
(-0.172427 -0.286692 0)
(-0.167252 -0.278871 -1.08133e-19)
(-0.159339 -0.264239 3.57018e-20)
(-0.153316 -0.242799 0)
(-0.003412 0.00368237 0)
(-0.0104668 -0.00231668 -1.16106e-19)
(-0.0221131 -0.0159876 -3.74094e-20)
(-0.0359333 -0.0326401 -6.9752e-20)
(-0.0504971 -0.0498862 6.5685e-20)
(-0.0649715 -0.0668347 -6.17291e-20)
(-0.078675 -0.0833893 1.17916e-19)
(-0.0910825 -0.0998005 5.54463e-20)
(-0.101847 -0.116375 -1.56589e-19)
(-0.110768 -0.133317 9.8662e-20)
(-0.117741 -0.150668 -1.38517e-19)
(-0.12273 -0.168314 3.04709e-19)
(-0.125741 -0.186016 -1.6273e-19)
(-0.126808 -0.203437 7.58952e-20)
(-0.12599 -0.220165 2.08353e-19)
(-0.123371 -0.23573 -6.73188e-20)
(-0.119052 -0.249616 -6.21684e-20)
(-0.113138 -0.261263 -5.54985e-20)
(-0.105736 -0.270062 0)
(-0.0969641 -0.275328 -8.30259e-20)
(-0.0869485 -0.276211 -6.77337e-20)
(-0.0754468 -0.271617 1.04938e-19)
(-0.0610133 -0.260349 1.11007e-19)
(-0.044725 -0.241784 -1.01925e-19)
(-0.00553371 0.00947795 0)
(-0.0141205 0.0115435 -1.59059e-19)
(-0.0250536 0.00328451 -1.31973e-21)
(-0.0367717 -0.00998127 1.41486e-19)
(-0.0482655 -0.0253274 0)
(-0.0589166 -0.0414081 0)
(-0.0681452 -0.0577433 0)
(-0.075462 -0.0743 -5.62434e-20)
(-0.0805204 -0.0911988 -2.13119e-22)
(-0.0831012 -0.108532 1.00522e-19)
(-0.083084 -0.126287 -1.39895e-19)
(-0.0804225 -0.144327 3.60514e-22)
(-0.0751298 -0.162404 0)
(-0.0672711 -0.180179 -7.58555e-20)
(-0.0569638 -0.197236 6.89144e-20)
(-0.0443769 -0.213108 -1.95087e-19)
(-0.0297283 -0.227296 2.31722e-19)
(-0.0132686 -0.239282 4.47327e-20)
(0.00473425 -0.248545 -1.08951e-20)
(0.0240329 -0.25456 -1.70667e-19)
(0.0443462 -0.256763 -7.05184e-20)
(0.065177 -0.254494 2.07947e-19)
(0.0865227 -0.246483 -1.32085e-19)
(0.116531 -0.22787 0)
(-0.00779569 0.013925 7.87917e-20)
(-0.0179339 0.0226936 7.98425e-20)
(-0.0276502 0.0193255 -7.72981e-20)
(-0.036398 0.00933879 -1.45119e-19)
(-0.0436914 -0.00403786 1.36651e-19)
(-0.0491435 -0.0190907 -1.29867e-19)
(-0.0522947 -0.0350067 1.84026e-19)
(-0.0527145 -0.0514894 -5.62845e-20)
(-0.0500592 -0.0684706 1.08877e-19)
(-0.04409 -0.0859213 0)
(-0.0346696 -0.103757 9.65542e-20)
(-0.0217519 -0.1218 -1.81717e-19)
(-0.00537832 -0.139774 1.65914e-19)
(0.0143232 -0.157317 -1.55833e-19)
(0.0371351 -0.173991 0)
(0.0627507 -0.18931 1.29446e-19)
(0.0907796 -0.20276 2.28575e-19)
(0.12078 -0.213823 -2.14552e-19)
(0.152272 -0.22201 -9.20576e-20)
(0.18477 -0.226895 -7.45776e-20)
(0.217767 -0.228174 2.15649e-19)
(0.25102 -0.225567 5.04192e-20)
(0.283237 -0.218303 -5.36127e-20)
(0.328546 -0.199644 3.84241e-20)
(-0.00988369 0.0167668 -7.88022e-20)
(-0.0213245 0.0304695 2.48925e-19)
(-0.0293429 0.0311778 -7.86336e-20)
(-0.034358 0.0241598 1.48108e-19)
(-0.0364076 0.0127246 -1.39462e-19)
(-0.0353628 -0.00118238 9.02583e-22)
(-0.0309051 -0.016495 6.27582e-20)
(-0.0226662 -0.0326872 2.37998e-19)
(-0.010327 -0.049507 2.27521e-22)
(0.00634671 -0.0667953 -1.03642e-19)
(0.0274765 -0.0843788 0)
(0.05306 -0.102019 -9.08723e-20)
(0.0829597 -0.119395 1.70413e-19)
(0.116899 -0.136109 1.544e-19)
(0.15446 -0.151694 -7.32885e-20)
(0.195091 -0.165646 1.63854e-22)
(0.23813 -0.177451 -5.84824e-20)
(0.28284 -0.186607 1.03837e-19)
(0.328457 -0.192676 9.20129e-20)
(0.374271 -0.195284 -8.00624e-20)
(0.419369 -0.194281 6.76353e-20)
(0.464603 -0.189066 -5.69074e-20)
(0.502873 -0.181365 0)
(0.56491 -0.16249 -3.83421e-20)
(-0.0115329 0.0179778 8.17659e-20)
(-0.0237583 0.0346124 -8.35125e-20)
(-0.0295626 0.0382989 8.05569e-20)
(-0.030146 0.0337171 0)
(-0.0260006 0.0240355 0)
(-0.0172371 0.0112889 1.36963e-19)
(-0.00369629 -0.00328648 -1.26794e-19)
(0.0148997 -0.0189795 1.2086e-19)
(0.0388125 -0.0353715 -5.64057e-19)
(0.0682081 -0.0521716 3.68681e-22)
(0.10311 -0.0691038 9.93912e-20)
(0.143358 -0.0858533 0)
(0.188586 -0.102044 -1.69196e-19)
(0.238213 -0.117241 3.1406e-19)
(0.291452 -0.130966 -2.17387e-19)
(0.347343 -0.142727 -3.19468e-19)
(0.404804 -0.152054 1.18197e-20)
(0.4627 -0.158528 2.12352e-19)
(0.51991 -0.161826 0)
(0.575543 -0.16166 0)
(0.628067 -0.158269 -6.7616e-20)
(0.680068 -0.150335 5.68914e-20)
(0.719029 -0.142123 -1.76174e-19)
(0.786363 -0.122018 1.65343e-19)
(-0.0125694 0.0177402 0)
(-0.024799 0.0352783 0)
(-0.0277607 0.0406411 -2.43453e-19)
(-0.0231701 0.0377353 7.71243e-20)
(-0.0118623 0.0294377 -3.10363e-22)
(0.00584712 0.0177568 1.38329e-19)
(0.0299586 0.00401665 0)
(0.0606118 -0.0109368 -1.21828e-19)
(0.0979318 -0.0265464 1.13394e-19)
(0.141908 -0.0423905 -2.13808e-19)
(0.192313 -0.0580885 8.95702e-22)
(0.248637 -0.0732489 1.84026e-19)
(0.310071 -0.0874513 -3.32784e-21)
(0.375503 -0.100253 1.50876e-19)
(0.443572 -0.11121 -2.19796e-19)
(0.512742 -0.119909 0)
(0.581411 -0.126001 2.2517e-19)
(0.648026 -0.129224 -3.14395e-19)
(0.711172 -0.129448 8.93074e-20)
(0.769848 -0.126542 0)
(0.822485 -0.12106 6.66701e-20)
(0.871773 -0.111559 2.15248e-19)
(0.906228 -0.10302 -2.02017e-19)
(0.962853 -0.0835227 -1.90586e-19)
(-0.0129203 0.0163774 2.55784e-19)
(-0.0241101 0.0329631 -3.52279e-19)
(-0.0233629 0.0386285 1.45512e-22)
(-0.012652 0.0365018 7.87058e-20)
(0.00697402 0.0291095 -1.47909e-19)
(0.0350326 0.0183588 -1.37561e-19)
(0.0713466 0.00559311 2.60421e-19)
(0.115845 -0.00825816 -1.20656e-21)
(0.168379 -0.0225251 -2.29926e-19)
(0.228562 -0.0366797 4.2851e-19)
(0.295659 -0.0502609 -2.17646e-21)
(0.368531 -0.0628366 -1.8679e-19)
(0.445633 -0.0739969 0)
(0.525084 -0.0833659 0)
(0.604787 -0.0906238 -7.13812e-20)
(0.682586 -0.0955317 -1.2703e-19)
(0.756443 -0.0979481 -2.22327e-19)
(0.824584 -0.0978445 2.08703e-19)
(0.885649 -0.0952904 -8.93417e-20)
(0.938749 -0.0904375 1.48166e-19)
(0.983301 -0.0837168 -7.85584e-20)
(1.02062 -0.0745256 9.75805e-20)
(1.04559 -0.0663435 -2.52161e-19)
(1.08011 -0.0499708 4.00324e-20)
(-0.012572 0.0142554 8.65619e-20)
(-0.0213866 0.0283567 0)
(-0.0156714 0.0330648 1.68515e-19)
(0.00251985 0.0308638 -1.58744e-19)
(0.0320199 0.023944 1.48037e-19)
(0.0721915 0.014079 0)
(0.122615 0.00258732 0)
(0.182854 -0.00956101 -1.23007e-19)
(0.252238 -0.0216325 1.3749e-21)
(0.329678 -0.0330491 1.08418e-19)
(0.413569 -0.0433415 -9.82675e-20)
(0.501794 -0.0521308 1.86277e-19)
(0.591816 -0.0591285 0)
(0.68087 -0.0641452 3.04403e-19)
(0.766195 -0.0670969 -5.60525e-19)
(0.845273 -0.0680047 3.85026e-19)
(0.916046 -0.0669818 2.18494e-19)
(0.977055 -0.0642281 -2.05117e-19)
(1.02755 -0.0599558 0)
(1.06735 -0.054533 0)
(1.09719 -0.0480118 0)
(1.11778 -0.0409531 0)
(1.13028 -0.033789 4.85527e-20)
(1.14222 -0.0225573 -1.60928e-19)
(-0.120124 -0.1514 -7.84502e-21)
(-0.0935148 -0.0861803 7.86993e-21)
(-0.0635834 -0.00914982 -2.21903e-22)
(-0.0295965 0.0776004 0)
(0.00764423 0.170531 -6.73559e-21)
(0.0471099 0.265183 1.26977e-20)
(0.0875859 0.357051 -4.8811e-22)
(0.126829 0.439747 -5.33705e-21)
(0.162496 0.508021 0)
(0.191932 0.560201 0)
(0.212523 0.59709 -1.91292e-22)
(0.223579 0.620553 -1.69067e-22)
(0.229041 0.629513 -2.64743e-21)
(0.238357 0.616192 2.42152e-21)
(0.263095 0.567592 0)
(0.310197 0.473396 0)
(0.376909 0.333824 2.91246e-21)
(0.45421 0.159329 1.33666e-22)
(0.53342 -0.0329999 -2.69057e-21)
(0.608105 -0.219399 -1.73312e-22)
(0.671809 -0.372041 0)
(0.719337 -0.472313 0)
(0.748706 -0.520759 0)
(0.761088 -0.53148 0)
(0.761768 -0.520037 0)
(0.754319 -0.502186 0)
(0.73403 -0.49666 2.98982e-22)
(0.695716 -0.506823 -4.72989e-22)
(0.649003 -0.502387 0)
(0.617993 -0.432659 0)
(0.620283 -0.276236 -6.07627e-22)
(0.653552 -0.0652316 5.90544e-22)
(0.702974 0.140609 2.66057e-22)
(0.751882 0.294699 0)
(0.792297 0.384535 0)
(0.82113 0.41842 2.75683e-22)
(0.834426 0.434529 -2.67978e-22)
(0.821255 0.453735 0)
(0.782743 0.473655 2.50299e-22)
(0.740185 0.437712 -3.79996e-22)
(0.718176 0.318834 1.60232e-22)
(0.726538 0.13075 0)
(0.757698 -0.0706089 -2.81586e-22)
(0.795448 -0.216184 2.73804e-22)
(0.833072 -0.315354 0)
(0.839583 -0.351282 0)
(0.815673 -0.397354 -6.69899e-23)
(0.76982 -0.378537 1.89246e-22)
(0.742373 -0.310456 0)
(0.748272 -0.163599 0)
(0.785846 0.023445 -5.9494e-23)
(0.812687 0.135203 4.67895e-24)
(0.821321 0.299288 -5.92324e-24)
(0.795845 0.31961 3.75565e-23)
(0.786002 0.362518 0)
(0.788022 0.26289 0)
(0.806116 0.0678269 0)
(0.801475 -0.0109926 0)
(0.810828 -0.305872 0)
(0.788358 -0.251616 0)
(-0.193983 -0.178814 -6.41873e-22)
(-0.17565 -0.119296 -2.71396e-20)
(-0.153089 -0.0476256 6.34042e-22)
(-0.124865 0.0345769 2.49164e-20)
(-0.091744 0.124546 3.30359e-22)
(-0.0538578 0.218035 0)
(-0.0133302 0.309942 -1.8638e-20)
(0.026724 0.397109 3.51091e-20)
(0.0656308 0.471105 -1.64732e-20)
(0.101961 0.531463 1.27485e-20)
(0.133829 0.576862 -1.21997e-20)
(0.162266 0.605897 1.02553e-20)
(0.192277 0.614194 -9.95192e-21)
(0.231898 0.592989 -3.10601e-22)
(0.288173 0.532266 -1.11079e-20)
(0.362036 0.427284 1.0794e-20)
(0.446742 0.282229 -1.27828e-20)
(0.533586 0.107389 1.2008e-20)
(0.616238 -0.0826379 -1.24549e-20)
(0.689333 -0.26391 2.28848e-20)
(0.746101 -0.407916 -1.0488e-20)
(0.782228 -0.496721 -4.91929e-22)
(0.798532 -0.533181 -5.31134e-21)
(0.79839 -0.534281 9.30771e-21)
(0.787743 -0.516632 -4.02933e-21)
(0.771628 -0.493113 1.89489e-22)
(0.746649 -0.479641 2.97797e-21)
(0.705112 -0.482908 3.09473e-22)
(0.652034 -0.480012 -6.34367e-21)
(0.609853 -0.422858 7.23165e-21)
(0.600332 -0.283594 -3.80926e-21)
(0.625667 -0.0858841 5.00479e-22)
(0.672307 0.114899 -2.66608e-22)
(0.723555 0.271163 4.00231e-22)
(0.770268 0.366689 0)
(0.807232 0.407947 0)
(0.826584 0.433577 -9.672e-22)
(0.818028 0.462687 7.07459e-22)
(0.784057 0.488033 8.2338e-22)
(0.748736 0.449945 3.51314e-22)
(0.733635 0.322906 -1.38247e-21)
(0.746416 0.126107 3.73359e-22)
(0.777752 -0.0810727 0)
(0.811187 -0.227716 0)
(0.845016 -0.322074 0)
(0.848009 -0.348832 0)
(0.823731 -0.387428 2.63731e-22)
(0.774606 -0.368266 -1.24207e-22)
(0.7454 -0.307502 0)
(0.748431 -0.169322 0)
(0.783703 0.0147345 0)
(0.80962 0.130625 -8.79961e-23)
(0.815768 0.300933 1.36965e-23)
(0.792662 0.323261 -8.15998e-23)
(0.78192 0.363265 0)
(0.787752 0.261006 0)
(0.809508 0.0658866 7.08331e-23)
(0.806391 -0.0111835 2.17925e-22)
(0.817817 -0.304264 0)
(0.792555 -0.250257 0)
(-0.211811 -0.200144 -7.74613e-22)
(-0.205262 -0.148073 -4.61078e-20)
(-0.193212 -0.0828579 4.30751e-20)
(-0.174207 -0.00691775 -4.03896e-20)
(-0.148529 0.0779428 -3.32685e-22)
(-0.116901 0.168383 0)
(-0.0784485 0.259137 -3.09235e-20)
(-0.038773 0.347961 3.01817e-20)
(0.00149545 0.425473 2.2068e-22)
(0.0453925 0.491277 3.17683e-22)
(0.0903245 0.541513 2.9331e-22)
(0.137968 0.572429 3.16866e-22)
(0.192415 0.578013 -1.98269e-20)
(0.258733 0.550149 1.95795e-20)
(0.339496 0.482148 0)
(0.4316 0.373378 7.58355e-22)
(0.527095 0.229787 -2.70825e-20)
(0.618542 0.0598888 2.67277e-20)
(0.70178 -0.123876 0)
(0.771736 -0.297479 0)
(0.820605 -0.431833 -1.91716e-20)
(0.844805 -0.510089 3.33982e-20)
(0.847998 -0.53692 -2.49214e-20)
(0.83607 -0.530904 2.51975e-21)
(0.815216 -0.509271 1.46508e-20)
(0.791042 -0.482208 -1.24413e-20)
(0.761971 -0.462064 1.05217e-20)
(0.718777 -0.45811 -1.06999e-22)
(0.661447 -0.455662 -5.17069e-21)
(0.609317 -0.410949 0)
(0.587563 -0.290269 0)
(0.603556 -0.107671 2.74268e-21)
(0.646057 0.0865646 -3.56877e-21)
(0.698665 0.243999 -5.0219e-23)
(0.750904 0.345061 2.3082e-21)
(0.795284 0.394345 -2.24314e-21)
(0.820385 0.430245 0)
(0.816826 0.469556 2.33674e-22)
(0.788144 0.500555 2.51718e-21)
(0.760241 0.461119 -5.5236e-21)
(0.751962 0.327324 2.62275e-21)
(0.769051 0.123376 4.25203e-22)
(0.80058 -0.088718 -3.36595e-21)
(0.8294 -0.236611 2.55674e-21)
(0.858882 -0.327214 4.49205e-22)
(0.858176 -0.345679 3.33084e-22)
(0.833715 -0.377108 -2.6439e-22)
(0.781675 -0.357903 0)
(0.750862 -0.304647 0)
(0.750839 -0.175441 -7.90847e-22)
(0.783469 0.00585967 3.94732e-22)
(0.808326 0.125807 -3.39382e-22)
(0.811897 0.302298 4.998e-22)
(0.790863 0.326785 6.43104e-22)
(0.778956 0.363751 -1.56262e-22)
(0.78868 0.258784 3.27677e-22)
(0.814227 0.0635362 -3.16768e-22)
(0.812619 -0.0114784 1.78712e-22)
(0.825874 -0.30242 0)
(0.797654 -0.24875 0)
(-0.165318 -0.21206 -7.83467e-20)
(-0.171883 -0.168372 4.5605e-21)
(-0.170827 -0.110661 6.96433e-20)
(-0.163557 -0.0424171 -5.66348e-22)
(-0.148015 0.0348198 0)
(-0.124738 0.120042 0)
(-0.0923349 0.209011 -4.65116e-20)
(-0.055643 0.292981 2.51472e-21)
(-0.0150051 0.371054 6.02935e-20)
(0.0347719 0.438844 -1.07866e-21)
(0.0907818 0.490798 -1.77038e-20)
(0.1544 0.521628 -1.71866e-20)
(0.227851 0.524734 1.71768e-20)
(0.313132 0.493268 0)
(0.409435 0.423378 -2.36903e-20)
(0.511399 0.317097 2.14843e-20)
(0.611264 0.180352 0)
(0.703812 0.0187579 0)
(0.786489 -0.156711 2.65449e-20)
(0.852895 -0.321624 -2.53322e-21)
(0.893729 -0.4461 -2.19408e-20)
(0.906147 -0.514637 -1.52254e-20)
(0.896569 -0.533686 1.50753e-20)
(0.873627 -0.522461 -8.72716e-21)
(0.843784 -0.498422 1.82637e-21)
(0.812215 -0.469841 6.4072e-21)
(0.779218 -0.444847 6.16902e-22)
(0.73565 -0.433377 3.62532e-23)
(0.676714 -0.429163 0)
(0.616677 -0.395547 5.56135e-21)
(0.582589 -0.294673 -5.73215e-21)
(0.587773 -0.129366 4.30035e-22)
(0.624647 0.0563805 0)
(0.677459 0.213704 -3.54482e-22)
(0.734213 0.319963 4.16885e-21)
(0.785136 0.377659 -7.37638e-21)
(0.815662 0.424193 -4.95368e-22)
(0.81742 0.473775 -3.94308e-22)
(0.794546 0.510728 3.37825e-21)
(0.774055 0.471138 6.25395e-22)
(0.772505 0.332375 -6.466e-21)
(0.793734 0.122743 5.47878e-21)
(0.825603 -0.093485 -3.83127e-23)
(0.849809 -0.242906 2.18228e-21)
(0.874517 -0.330906 -2.57217e-21)
(0.86989 -0.342074 -2.20695e-21)
(0.8453 -0.366556 6.62428e-22)
(0.790691 -0.34735 8.17023e-22)
(0.758382 -0.301658 -1.55079e-21)
(0.755187 -0.181779 1.12164e-21)
(0.784961 -0.00314363 -3.5244e-22)
(0.808739 0.1207 3.46816e-22)
(0.809711 0.303384 2.97008e-22)
(0.790516 0.330239 -9.58739e-22)
(0.777235 0.364018 -8.12888e-24)
(0.790881 0.256231 -3.77995e-22)
(0.820264 0.0608311 0)
(0.820149 -0.0118549 -1.70515e-22)
(0.834962 -0.300323 3.54606e-22)
(0.803616 -0.247075 0)
(-0.0571483 -0.213489 6.48449e-20)
(-0.0764361 -0.177965 -1.20572e-19)
(-0.0856974 -0.128355 5.53277e-20)
(-0.0903231 -0.0683919 4.49602e-20)
(-0.0853319 0.00121851 -8.38564e-20)
(-0.0702307 0.0778737 3.45591e-21)
(-0.0477787 0.158375 3.48672e-20)
(-0.0180083 0.235425 2.98698e-20)
(0.0218632 0.311074 -2.92976e-20)
(0.0734828 0.377491 0)
(0.135421 0.428734 -2.87216e-20)
(0.208282 0.458622 5.91782e-20)
(0.292505 0.460568 -3.04597e-20)
(0.387666 0.428926 0)
(0.490753 0.36179 0)
(0.595365 0.262475 7.75536e-22)
(0.694822 0.135818 -5.59045e-20)
(0.786496 -0.0154039 5.42984e-20)
(0.86829 -0.181257 0)
(0.930957 -0.336212 4.8343e-20)
(0.963472 -0.450176 -8.37236e-20)
(0.964374 -0.509781 6.68541e-20)
(0.942843 -0.523221 -5.20169e-20)
(0.910009 -0.509179 4.90188e-21)
(0.872705 -0.484365 2.97448e-20)
(0.834902 -0.455999 -1.29064e-20)
(0.798173 -0.428455 -2.99247e-22)
(0.754914 -0.410267 -3.74452e-21)
(0.696792 -0.40226 -1.84645e-22)
(0.631641 -0.377056 3.96659e-21)
(0.58591 -0.295754 3.32152e-22)
(0.578972 -0.149902 -5.15408e-21)
(0.608509 0.0251059 9.8264e-21)
(0.660136 0.180726 -5.18861e-21)
(0.720116 0.291587 0)
(0.776542 0.357732 -3.9352e-21)
(0.812128 0.414947 3.82099e-21)
(0.819439 0.474803 -3.55979e-21)
(0.802741 0.518245 4.42021e-21)
(0.789547 0.480045 -6.63275e-22)
(0.794453 0.338053 0)
(0.819716 0.124254 -8.80186e-22)
(0.852288 -0.0953328 2.40938e-21)
(0.87207 -0.246444 0)
(0.891678 -0.332992 4.26614e-21)
(0.882963 -0.338014 -1.85677e-21)
(0.85823 -0.35584 5.06299e-22)
(0.801338 -0.336624 3.75684e-22)
(0.767564 -0.298441 0)
(0.76113 -0.188206 0)
(0.787945 -0.0122738 -8.88887e-22)
(0.810743 0.115237 1.38768e-21)
(0.809186 0.304164 -8.28233e-22)
(0.791684 0.333666 2.6107e-22)
(0.776883 0.364112 6.44117e-22)
(0.794421 0.253365 3.78358e-22)
(0.827594 0.0577398 -7.64444e-22)
(0.828954 -0.0123128 0)
(0.845029 -0.297927 -5.33258e-22)
(0.810394 -0.245207 -8.11252e-23)
(0.105281 -0.204524 5.52766e-20)
(0.0744471 -0.175187 -5.47506e-20)
(0.0552787 -0.135801 3.73799e-22)
(0.0400211 -0.0862033 -2.41552e-22)
(0.0322581 -0.026564 2.81287e-22)
(0.0348604 0.0394974 -2.43875e-22)
(0.0481646 0.109756 2.75505e-22)
(0.0714552 0.181156 0)
(0.106858 0.251243 -2.44452e-22)
(0.15544 0.313486 2.58515e-22)
(0.217066 0.362027 2.94474e-22)
(0.291592 0.390458 -4.24846e-22)
(0.378199 0.392507 0)
(0.474934 0.363355 0)
(0.577575 0.302024 6.32541e-22)
(0.679615 0.21205 0)
(0.775993 0.0966509 -8.0381e-22)
(0.866109 -0.0434998 0)
(0.946608 -0.198518 -5.10102e-20)
(1.00465 -0.342018 9.58676e-20)
(1.02824 -0.445002 -8.16871e-20)
(1.01809 -0.496735 3.69099e-20)
(0.985954 -0.506655 2.23989e-20)
(0.94465 -0.492003 -2.1753e-20)
(0.901376 -0.467797 -1.31525e-20)
(0.858636 -0.440779 1.26839e-20)
(0.818386 -0.412786 0)
(0.775579 -0.389498 2.11553e-22)
(0.720219 -0.376298 0)
(0.6533 -0.35605 0)
(0.597683 -0.292717 7.48458e-21)
(0.577778 -0.16793 -7.66088e-21)
(0.598171 -0.00603891 4.50342e-22)
(0.646867 0.145645 5.1337e-22)
(0.708474 0.260143 -3.64888e-22)
(0.769212 0.334439 -3.13614e-21)
(0.809465 0.402117 3.04517e-21)
(0.822441 0.472154 -4.37476e-21)
(0.812122 0.522842 3.81094e-21)
(0.805977 0.487803 1.33857e-21)
(0.81707 0.34439 -6.99832e-21)
(0.846292 0.127812 -1.16156e-21)
(0.879979 -0.0943358 5.1883e-21)
(0.895767 -0.247169 0)
(0.910068 -0.333397 -1.95423e-21)
(0.897163 -0.333557 1.69027e-21)
(0.872227 -0.345031 -2.30426e-21)
(0.813297 -0.325683 -3.78061e-22)
(0.778006 -0.294865 0)
(0.768293 -0.194621 2.7346e-22)
(0.792135 -0.0216065 -5.00728e-22)
(0.814175 0.109321 -4.04733e-23)