/*--------------------------------*- C++ -*----------------------------------*\
| =========                 |                                                 |
| \\      /  F ield         | OpenFOAM: The Open Source CFD Toolbox           |
|  \\    /   O peration     | Version:  2512                                  |
|   \\  /    A nd           | Website:  www.openfoam.com                      |
|    \\/     M anipulation  |                                                 |
\*---------------------------------------------------------------------------*/
FoamFile
{
    version     2.0;
    format      ascii;
    arch        "LSB;label=32;scalar=64";
    class       surfaceScalarField;
    location    "98.5";
    object      phi;
}
// * * * * * * * * * * * * * * * * * * * * * * * * * * * * * * * * * * * * * //

dimensions      [0 3 -1 0 0 0 0];

oriented        oriented;

internalField   nonuniform List<scalar> 
26232
(
-4.78668e-05
0.000981823
-0.000933956
7.81064e-05
0.00186609
-0.00199206
0.000602124
0.00185807
-0.00238209
0.00172825
0.00101237
-0.0021385
0.00365116
-0.000656298
-0.00126661
0.00655769
-0.00315294
0.000246411
0.0106227
-0.00648744
0.00242242
0.0159953
-0.0106599
0.00528729
0.0227835
-0.0156461
0.00885793
0.0310349
-0.021387
0.0131356
0.0407209
-0.0277848
0.0180988
0.0517267
-0.0347049
0.0236991
0.0638502
-0.0419841
0.0298605
0.0768114
-0.049443
0.0364818
0.0902703
-0.0569009
0.043442
0.103852
-0.0641892
0.0506074
0.117177
-0.0711647
0.0578395
0.129892
-0.0777204
0.0650061
0.1417
-0.0837882
0.0719796
0.152377
-0.0893585
0.0786813
0.161812
-0.0944159
0.0849817
0.169914
-0.0991408
0.0910385
0.176624
-0.103194
0.0964835
-0.107696
0.102578
0.181742
2.85625e-05
0.000953261
0.000381234
0.00151342
0.00130024
0.000939062
0.00301227
-0.000699665
0.00573226
-0.00337628
0.00965549
-0.00707618
0.0149414
-0.0117733
0.021691
-0.0174096
0.0299243
-0.0238793
0.0395623
-0.031025
0.0504212
-0.0386437
0.0622202
-0.0465039
0.0746038
-0.0543676
0.0871745
-0.0620138
0.0995318
-0.0692582
0.111312
-0.0759689
0.122221
-0.082074
0.132063
-0.0875626
0.140753
-0.0924784
0.148303
-0.0969088
0.154845
-0.100958
0.160479
-0.104774
0.165602
-0.108317
-0.112202
0.170108
0.000123424
0.000829837
0.000757567
0.000879274
0.00215791
-0.000461285
0.00456505
-0.0031068
0.00819625
-0.00700749
0.0132244
-0.0121044
0.0197494
-0.0182983
0.0277687
-0.0254289
0.0371587
-0.0332693
0.0476719
-0.0415382
0.0589571
-0.0499289
0.0705967
-0.0581435
0.0821559
-0.0659269
0.0932342
-0.0730921
0.10351
-0.0795343
0.112773
-0.0852321
0.120937
-0.0902374
0.128032
-0.0946575
0.134183
-0.0986298
0.139575
-0.102301
0.144408
-0.10579
0.148862
-0.109229
0.153111
-0.112565
-0.116242
0.15715
0.000232604
0.000597233
0.00119045
-7.85765e-05
0.00313621
-0.00240704
0.00630857
-0.00627916
0.0108986
-0.0115975
0.0170136
-0.0182194
0.0246402
-0.0259248
0.0336203
-0.034409
0.0436534
-0.0433024
0.0543279
-0.0522127
0.0651764
-0.0607774
0.0757418
-0.0687089
0.0856388
-0.0758239
0.0945996
-0.0820529
0.102495
-0.0874299
0.109331
-0.092068
0.115221
-0.0961271
0.120344
-0.0997806
0.124902
-0.103188
0.12908
-0.106478
0.133027
-0.109738
0.136833
-0.113034
0.140604
-0.116337
-0.119921
0.144284
0.000354339
0.000242894
0.00166889
-0.00139313
0.0042016
-0.00493975
0.0081647
-0.0102423
0.0136833
-0.0171161
0.0207478
-0.0252839
0.0291817
-0.0343587
0.0386439
-0.0438712
0.0486717
-0.0533302
0.0587545
-0.0622955
0.0684171
-0.07044
0.0772905
-0.0775823
0.0851546
-0.083688
0.0919465
-0.0888447
0.0977372
-0.0932207
0.102689
-0.0970194
0.107001
-0.10044
0.110872
-0.103651
0.114461
-0.106778
0.117887
-0.109903
0.121225
-0.113076
0.124514
-0.116323
0.127806
-0.119628
-0.123147
0.131032
0.000488752
-0.000245858
0.00218457
-0.00308895
0.00531986
-0.00807504
0.0100456
-0.014968
0.016373
-0.0234435
0.0241274
-0.0330383
0.0329436
-0.043175
0.0423167
-0.0532444
0.0516939
-0.0627074
0.0605769
-0.0711784
0.0686023
-0.0784655
0.075582
-0.084562
0.0814978
-0.0896039
0.0864629
-0.0938098
0.090665
-0.0974228
0.0943114
-0.100666
0.0975883
-0.103717
0.10064
-0.106702
0.103564
-0.109702
0.106423
-0.112762
0.109253
-0.115906
0.11207
-0.119141
0.114902
-0.12246
-0.125942
0.117697
0.000635117
-0.000880974
0.00272438
-0.00517821
0.00644397
-0.0117946
0.0118403
-0.0203643
0.0187641
-0.0303673
0.0268484
-0.0411226
0.0355574
-0.051884
0.044294
-0.061981
0.052524
-0.0709373
0.0598706
-0.078525
0.0661553
-0.0847502
0.0713829
-0.0897896
0.0756895
-0.0939105
0.0792766
-0.0973969
0.0823534
-0.1005
0.0850988
-0.103411
0.0876461
-0.106264
0.0900836
-0.10914
0.0924648
-0.112083
0.0948198
-0.115117
0.0971647
-0.11825
0.0995066
-0.121483
0.101857
-0.12481
-0.128263
0.104177
0.00078985
-0.00167082
0.00326568
-0.00765405
0.00750875
-0.0160377
0.0134164
-0.0262719
0.0206478
-0.0375987
0.0286542
-0.0491291
0.0367939
-0.0600237
0.04448
-0.069667
0.0512968
-0.0777541
0.057049
-0.0842773
0.0617423
-0.0894435
0.065521
-0.0935683
0.0685939
-0.0969833
0.0711725
-0.0999755
0.0734336
-0.102761
0.0755059
-0.105484
0.0774728
-0.108231
0.0793836
-0.111051
0.0812656
-0.113965
0.083133
-0.116985
0.0849931
-0.12011
0.0868497
-0.12334
0.0887081
-0.126668
-0.1301
0.0905448
0.000945857
-0.00261668
0.00377619
-0.0104844
0.00843599
-0.0206975
0.0146384
-0.0324744
0.0218498
-0.0448101
0.0293913
-0.0566705
0.0366077
-0.0672402
0.0430159
-0.0760752
0.0483731
-0.0831113
0.0526621
-0.0885662
0.0560215
-0.0928029
0.058663
-0.0962098
0.0608025
-0.0991228
0.0626196
-0.101793
0.0642438
-0.104385
0.0657579
-0.106998
0.06721
-0.109683
0.0686262
-0.112467
0.0700201
-0.115359
0.0713989
-0.118364
0.0727664
-0.121478
0.0741252
-0.124698
0.0754768
-0.12802
-0.131431
0.0768083
0.00109324
-0.00370992
0.00421811
-0.0136092
0.00914697
-0.0256263
0.0153943
-0.0387217
0.0222668
-0.0516825
0.0290348
-0.0634385
0.0351187
-0.0733241
0.0401939
-0.0811504
0.0441916
-0.0871091
0.0472284
-0.0916029
0.0495126
-0.0950872
0.0512662
-0.0979634
0.0526763
-0.100533
0.0538782
-0.102995
0.0549581
-0.105465
0.0559658
-0.108005
0.0569277
-0.110645
0.0578576
-0.113397
0.0587628
-0.116264
0.0596474
-0.119248
0.0605138
-0.122344
0.0613636
-0.125548
0.0621969
-0.128853
-0.132243
0.063009
0.00122127
-0.00493119
0.00455532
-0.0169433
0.00957776
-0.0306488
0.0156167
-0.0447606
0.0218806
-0.0579465
0.0276729
-0.0692309
0.0325497
-0.0782008
0.0363553
-0.084956
0.0391603
-0.0899141
0.0411599
-0.0936025
0.0425807
-0.0965079
0.0436212
-0.0990039
0.0444277
-0.101339
0.0450938
-0.103661
0.0456739
-0.106045
0.0461963
-0.108528
0.0466757
-0.111124
0.0471198
-0.113841
0.0475332
-0.116678
0.0479187
-0.119634
0.0482778
-0.122704
0.0486113
-0.125882
0.0489176
-0.12916
-0.132522
0.0491964
0.00132275
-0.00625394
0.00476231
-0.0203829
0.00969135
-0.0355778
0.0152917
-0.0503609
0.0207495
-0.0634043
0.0254684
-0.0739497
0.0291632
-0.0818956
0.0318245
-0.0876173
0.0336149
-0.0917045
0.0347599
-0.0947475
0.0354714
-0.0972194
0.0359112
-0.0994438
0.0361855
-0.101614
0.0363561
-0.103831
0.0364555
-0.106144
0.0365
-0.108572
0.0364977
-0.111122
0.0364535
-0.113797
0.036371
-0.116595
0.0362524
-0.119515
0.0360996
-0.122551
0.0359129
-0.125695
0.0356904
-0.128937
0.0354343
-0.132266
-0.000283723
-0.000251611
0.000535334
-0.00096593
-3.70667e-05
0.000719273
-0.00195037
0.000678481
0.000305957
-0.00317239
0.00171734
-0.000495314
-0.00458613
0.00294068
-0.00152694
-0.00615683
0.00425922
-0.00268852
-0.00785528
0.00563065
-0.00393221
-0.00965417
0.00705019
-0.0052513
-0.0115261
0.00853755
-0.00666561
-0.0134426
0.0101236
-0.00820709
-0.0153732
0.0118391
-0.00990846
-0.0172847
0.0137077
-0.0117961
-0.0191401
0.0157419
-0.0138865
-0.0208967
0.0179414
-0.0161847
-0.0225059
0.0202924
-0.0186833
-0.0239115
0.0227669
-0.0213612
-0.0250505
0.0253215
-0.0241824
-0.0258533
0.0278962
-0.0270935
-0.0262455
0.0304145
-0.0300223
-0.0261508
0.0327839
-0.0328785
-0.0254942
0.0348992
-0.0355558
-0.0242077
0.0366467
-0.0379332
-0.0222472
0.0379165
-0.0398771
0.0386462
-0.0196192
-0.0412741
-0.000237415
-1.41965e-05
-0.000805467
0.000530985
-0.00161849
0.0014915
-0.00261823
0.00271707
-0.00376294
0.0040854
-0.00501964
0.00551592
-0.00635802
0.00696903
-0.00774656
0.00843872
-0.00915052
0.00994151
-0.0105314
0.0115044
-0.0118468
0.0131545
-0.0130506
0.0149115
-0.0140922
0.0167835
-0.0149161
0.0187652
-0.0154611
0.0208375
-0.0156604
0.0229661
-0.0154411
0.0251022
-0.014726
0.0271811
-0.0134335
0.029122
-0.0114831
0.0308335
-0.0087948
0.0322108
-0.00529374
0.0331456
-0.000915699
0.0335385
0.033387
0.00434345
-0.000180484
0.000166287
-0.000608606
0.000959108
-0.00121162
0.00209452
-0.00193717
0.00344262
-0.00274642
0.00489465
-0.00360702
0.00637652
-0.00448711
0.00784913
-0.00535119
0.00930281
-0.00615804
0.0107484
-0.00686031
0.0122067
-0.00740499
0.0136992
-0.00773423
0.0152407
-0.00778582
0.0168351
-0.00749263
0.0184721
-0.00678477
0.0201296
-0.00558792
0.0217693
-0.00382485
0.0233391
-0.0014171
0.0247733
0.00171105
0.0259938
0.00563721
0.0269074
0.0104329
0.0274152
0.0161622
0.0274163
0.0228834
0.0268173
0.0255586
0.0307118
-0.00012407
0.000290358
-0.000411632
0.00124667
-0.00079959
0.00248248
-0.00123871
0.00388174
-0.00169062
0.00534656
-0.00212199
0.00680789
-0.00249894
0.00822607
-0.00278283
0.00958669
-0.0029279
0.0108934
-0.00288085
0.0121596
-0.00258131
0.0133996
-0.00196311
0.0146225
-0.000955708
0.0158276
0.000513239
0.0170031
0.00252103
0.0181218
0.0051446
0.0191457
0.00846044
0.0200233
0.0125429
0.0206908
0.0174632
0.0210735
0.0232837
0.0210869
0.0300601
0.0206388
0.0378461
0.0196303
0.0466612
0.0180022
0.0154861
0.0567337
-7.87082e-05
0.000369066
-0.000248091
0.00141605
-0.000448357
0.00268274
-0.000628864
0.00406225
-0.000748361
0.00546606
-0.000770389
0.00682991
-0.000658343
0.00811403
-0.000371196
0.00929955
0.000138995
0.0103833
0.000928225
0.0113704
0.00205977
0.0122681
0.00360284
0.0130794
0.00563091
0.0137996
0.00822069
0.0144133
0.0114485
0.0148941
0.0153902
0.0152039
0.0201195
0.015294
0.0257054
0.0151049
0.0322114
0.0145676
0.0396931
0.0136053
0.0481933
0.0121385
0.0577776
0.010046
0.0683901
0.00738966
0.0034254
0.0804508
-5.19497e-05
0.000421016
-0.000142811
0.00150691
-0.000207873
0.00274781
-0.000189984
0.00404436
-4.16621e-05
0.00531774
0.000278693
0.00650956
0.000811679
0.00758104
0.00160063
0.0085106
0.0026946
0.00928928
0.00414956
0.00991543
0.00602843
0.0103892
0.00839989
0.010708
0.0113369
0.0108626
0.0149146
0.0108356
0.0192089
0.0105997
0.0242948
0.0101181
0.0302444
0.00934436
0.0371259
0.00822344
0.0450075
0.00668596
0.0539501
0.00466271
0.0639904
0.00209822
0.0752466
-0.00121022
0.0875551
-0.0049188
-0.010616
0.101596
-4.69159e-05
0.000467932
-0.000106217
0.00156621
-9.98947e-05
0.00274148
4.00477e-05
0.00390442
0.000370404
0.00498738
0.000940276
0.00593969
0.00179554
0.00672577
0.00298313
0.00732301
0.004554
0.00771841
0.00656497
0.00790446
0.00907925
0.00787495
0.0121661
0.00762117
0.0158996
0.00712905
0.020358
0.0063772
0.0256221
0.00533565
0.0317744
0.00396574
0.0388986
0.00222017
0.0470618
6.0205e-05
0.0563703
-0.00262255
0.0668897
-0.00585665
0.0786715
-0.0096836
0.0918578
-0.0143964
0.106185
-0.0192456
-0.0268428
0.122411
-6.11232e-05
0.000529055
-0.000130158
0.00163525
-0.000108865
0.00272019
8.53715e-05
0.00371018
0.000521167
0.00455158
0.00125762
0.00520323
0.00234931
0.00563409
0.00385074
0.00582158
0.0058199
0.00574925
0.00832066
0.0054037
0.0114241
0.00477154
0.0152087
0.00383653
0.0197603
0.00257749
0.0251703
0.000967129
0.0315355
-0.00102952
0.0389546
-0.00345335
0.0475248
-0.00635001
0.0573546
-0.00976958
0.068499
-0.013767
0.0810413
-0.018399
0.0949964
-0.0236387
0.110425
-0.0298251
0.127052
-0.0358727
-0.0450431
0.145252
-8.61558e-05
0.000615211
-0.000186795
0.00173589
-0.000178904
0.0027123
3.78256e-05
0.00349345
0.000547266
0.00404214
0.0014232
0.0043273
0.00273514
0.00432214
0.00455345
0.00400328
0.00695321
0.00334949
0.0100169
0.00234
0.0138356
0.00095282
0.0185087
-0.00083656
0.024142
-0.00305578
0.0308445
-0.0057354
0.038723
-0.00890802
0.0478758
-0.0126062
0.0583855
-0.0168597
0.0703095
-0.0216935
0.0836635
-0.027121
0.0984187
-0.0331542
0.114493
-0.0397125
0.131697
-0.0470294
0.149875
-0.0540513
-0.0637253
0.168558
-0.000108933
0.000724144
-0.000233151
0.00186011
-0.000223036
0.00270219
4.26634e-05
0.00322775
0.000668183
0.00341662
0.00174922
0.00324627
0.00337935
0.00269201
0.00565519
0.00172744
0.00867959
0.000325092
0.0125623
-0.00154272
0.0174185
-0.00390342
0.0233646
-0.00678262
0.0305112
-0.0102024
0.0389548
-0.014179
0.0487673
-0.0187206
0.0599858
-0.0238246
0.0726019
-0.0294758
0.0865534
-0.035645
0.101715
-0.042283
0.117897
-0.0493356
0.134858
-0.0566741
0.152185
-0.064356
0.169799
-0.0716649
-0.0804313
0.186505
-0.000115261
0.000839405
-0.000222534
0.00196738
-0.000146233
0.00262588
0.000258959
0.00282256
0.00112387
0.00255171
0.00257346
0.00179669
0.00473264
0.000532821
0.00772957
-0.00126949
0.0116947
-0.00364006
0.0167567
-0.00660469
0.0230342
-0.0101809
0.0306254
-0.0143739
0.039596
-0.019173
0.0499668
-0.0245498
0.0617031
-0.0304569
0.0747074
-0.0368289
0.0888151
-0.0435835
0.103797
-0.050627
0.119363
-0.0578486
0.135184
-0.065157
0.150903
-0.0723928
0.166133
-0.079586
0.180723
-0.0862555
-0.0932357
0.193528
-9.45512e-05
-0.000119233
0.000124564
0.000808627
0.00209372
0.00413682
0.00709207
0.0111099
0.0163277
0.0228587
0.0307766
0.0401019
0.0507894
0.0627214
0.0757065
0.089485
0.103741
0.11812
0.132251
0.145776
0.158364
0.169817
0.180045
0.189387
-0.0144783
0.051645
-0.056786
-0.00836536
0.049657
-0.0557699
-0.00131324
0.0450101
-0.0520622
0.00655254
0.0374145
-0.0452803
0.0150852
0.0265832
-0.0351159
0.0240733
0.0123766
-0.0213647
0.0332079
-0.0050855
-0.0040491
0.0425225
-0.0254998
0.0161852
0.0517187
-0.0483056
0.0391095
0.0606255
-0.0722679
0.0633611
0.0690123
-0.0955099
0.0871231
0.0764336
-0.115814
0.108392
0.082298
-0.131302
0.125438
0.0859608
-0.14113
0.137467
0.0866846
-0.145956
0.145232
0.0839565
-0.148147
0.150876
0.0784804
-0.150568
0.156045
0.072867
-0.153283
0.158896
0.0706967
-0.150987
0.153158
0.0742493
-0.135125
0.131573
0.0831693
-0.100155
0.0912348
0.0956103
-0.047913
0.035472
0.109322
0.0133312
-0.0270427
0.122407
0.0727942
-0.0858792
0.133124
0.120824
-0.131541
0.140468
0.153478
-0.160822
0.144632
0.171795
-0.175959
0.14618
0.179536
-0.181084
0.144718
0.18389
-0.182427
0.139587
0.193747
-0.188617
0.132093
0.208021
-0.200527
0.12589
0.209657
-0.203453
0.124363
0.175141
-0.173615
0.12829
0.0997497
-0.103676
0.135766
0.00126561
-0.00874231
0.14397
-0.0905117
0.0823079
0.150764
-0.157369
0.150575
0.155234
-0.194013
0.189543
0.156205
-0.209066
0.208094
0.152273
-0.221023
0.224956
0.144048
-0.2328
0.241025
0.135416
-0.23628
0.244912
0.1309
-0.193417
0.197933
0.13269
-0.112005
0.110214
0.139215
0.00380808
-0.0103324
0.147121
0.100972
-0.108878
0.151726
0.174878
-0.179484
0.150099
0.232428
-0.2308
0.143578
0.262247
-0.255726
0.137307
0.2853
-0.27903
0.135934
0.200797
-0.199425
0.140417
0.114013
-0.118496
0.145734
-0.0336357
0.0283193
0.147124
-0.13828
0.13689
0.144227
-0.209325
0.212222
0.14117
-0.327275
0.330331
0.14075
-0.233654
0.234074
0.141081
-0.239089
0.238758
0.140017
-0.028554
0.0296182
0.168324
-0.166468
0.0106693
0.0453192
0.0175782
0.0427482
0.025014
0.0375743
0.0328587
0.0295698
0.0408972
0.0185447
0.0489614
0.00431242
0.0568455
-0.0129696
0.064512
-0.0331664
0.0718497
-0.0556433
0.0787247
-0.0791429
0.0848808
-0.101666
0.0899057
-0.120839
0.0933424
-0.134739
0.0948267
-0.142614
0.0939495
-0.145079
0.0900571
-0.144255
0.0829514
-0.143463
0.074293
-0.144624
0.0678005
-0.144495
0.0671977
-0.134523
0.0736489
-0.106606
0.0855599
-0.0598241
0.100357
-0.00146563
0.115337
0.0578142
0.128296
0.107865
0.137935
0.143839
0.144218
0.165512
0.147409
0.176345
0.147093
0.184206
0.143047
0.197793
0.136913
0.214155
0.132003
0.214567
0.130974
0.17617
0.134316
0.0964082
0.140511
-0.00492943
0.147057
-0.097058
0.152066
-0.162377
0.154962
-0.196909
0.154915
-0.209019
0.150477
-0.216585
0.14185
-0.224173
0.132778
-0.227208
0.128107
-0.188746
0.130392
-0.11429
0.137958
-0.00375751
0.146812
0.092118
0.152081
0.16961
0.150815
0.233693
0.144612
0.26845
0.138393
0.29152
0.13674
0.20245
0.140983
0.10977
0.146209
-0.038861
0.147688
-0.13976
0.144628
-0.206265
0.141481
-0.324128
0.140986
-0.233159
0.141069
-0.239172
0.139772
-0.0272575
0.170277
0.0375377
0.0384933
0.0447508
0.0355351
0.052161
0.0301641
0.0596007
0.0221301
0.0668535
0.0112918
0.0738436
-0.00267769
0.0803971
-0.0195231
0.0864683
-0.0392375
0.0919919
-0.0611669
0.0968299
-0.083981
0.100717
-0.105553
0.103289
-0.12341
0.104209
-0.135659
0.103359
-0.141764
0.100772
-0.142492
0.0960642
-0.139547
0.0884345
-0.135833
0.0782231
-0.134413
0.0683673
-0.134639
0.0634255
-0.129581
0.066397
-0.109577
0.0767837
-0.0702108
0.0918758
-0.0165577
0.108262
0.0414282
0.123231
0.0928958
0.135134
0.131935
0.143582
0.157065
0.148513
0.171414
0.14958
0.183138
0.146959
0.200415
0.142412
0.218702
0.138753
0.218226
0.137995
0.176928
0.140494
0.0939099
0.145167
-0.00960231
0.149966
-0.101857
0.153199
-0.16561
0.154557
-0.198267
0.153579
-0.208041
0.148829
-0.211835
0.140038
-0.215381
0.130647
-0.217817
0.125766
-0.183865
0.128384
-0.116908
0.136785
-0.0121586
0.146498
0.0824042
0.152462
0.163646
0.151676
0.234479
0.145906
0.27422
0.139785
0.297641
0.137796
0.204439
0.141702
0.105864
0.146794
-0.043953
0.148373
-0.141339
0.145131
-0.203022
0.14183
-0.320827
0.141278
-0.232607
0.141181
-0.239075
0.139689
-0.0257658
0.172316
0.0636612
0.0315658
0.0708022
0.0283941
0.0779405
0.0230257
0.0848533
0.0152173
0.0913192
0.00482598
0.0973701
-0.00872858
0.102761
-0.0249141
0.10745
-0.0439269
0.111328
-0.0650448
0.114206
-0.0868585
0.115804
-0.107151
0.115857
-0.123463
0.114254
-0.134057
0.111118
-0.138627
0.106779
-0.138153
0.101328
-0.134096
0.0939587
-0.128464
0.08379
-0.124244
0.0721695
-0.123018
0.0634051
-0.120816
0.0621493
-0.108322
0.0698299
-0.0778914
0.0840723
-0.0308001
0.101258
0.0242429
0.117909
0.0762442
0.131974
0.11787
0.142585
0.146454
0.149353
0.164646
0.152039
0.180453
0.151122
0.201331
0.14832
0.221504
0.145874
0.220672
0.145192
0.17761
0.146641
0.0924609
0.149634
-0.0125962
0.152646
-0.104868
0.154158
-0.167122
0.154029
-0.198137
0.152171
-0.206184
0.147254
-0.206918
0.138536
-0.206663
0.128988
-0.208269
0.123852
-0.17873
0.126602
-0.119657
0.135661
-0.0212182
0.146137
0.0719282
0.152843
0.15694
0.152668
0.234654
0.147459
0.279429
0.141496
0.303604
0.139121
0.206813
0.142581
0.102404
0.147476
-0.0488479
0.149164
-0.143027
0.145729
-0.199588
0.142207
-0.317305
0.141612
-0.232011
0.141403
-0.238866
0.139757
-0.0241202
0.17443
0.087374
0.0246427
0.0942973
0.0214707
0.101062
0.016261
0.107416
0.00886371
0.113472
-0.00123041
0.118716
-0.0139723
0.123198
-0.0293968
0.126726
-0.0474544
0.129086
-0.0674049
0.130013
-0.0877857
0.129265
-0.106403
0.126777
-0.120975
0.12275
-0.130031
0.117566
-0.133443
0.111678
-0.132265
0.105467
-0.127885
0.0985585
-0.121556
0.0895975
-0.115283
0.0781398
-0.111561
0.0670045
-0.109681
0.0614692
-0.102786
0.0652109
-0.0816332
0.0774168
-0.0430059
0.0945024
0.00715726
0.112341
0.0584053
0.12832
0.101892
0.140995
0.133779
0.149659
0.155982
0.154164
0.175947
0.155192
0.200303
0.154271
0.222426
0.152998
0.221945
0.152292
0.178316
0.152561
0.0921916
0.153809
-0.0138438
0.155027
-0.106087
0.154894
-0.166989
0.153351
-0.196595
0.150662
-0.203494
0.145697
-0.201953
0.137266
-0.198233
0.127737
-0.198739
0.122336
-0.173329
0.125014
-0.122335
0.134518
-0.0307221
0.145672
0.060774
0.153176
0.149437
0.153755
0.234075
0.149247
0.283937
0.143507
0.309344
0.140723
0.209596
0.143617
0.0995108
0.148239
-0.0534697
0.150038
-0.144826
0.146414
-0.195964
0.142605
-0.313496
0.141975
-0.231381
0.141718
-0.23861
0.139964
-0.0223657
0.1766
0.108345
0.017894
0.114992
0.0148241
0.121446
0.00980654
0.127367
0.00294293
0.132956
-0.0068195
0.137572
-0.0185885
0.141236
-0.0330609
0.143638
-0.0498557
0.144466
-0.0682333
0.143423
-0.0867429
0.140371
-0.10335
0.135481
-0.116086
0.129258
-0.123807
0.122346
-0.126531
0.115284
-0.125203
0.108467
-0.121068
0.101902
-0.114991
0.0945182
-0.107899
0.0847755
-0.101818
0.0733276
-0.0982332
0.0645071
-0.0939658
0.0636291
-0.0807552
0.0723884
-0.0517652
0.088226
-0.00868036
0.106542
0.040089
0.124014
0.0844195
0.138546
0.119247
0.149101
0.145427
0.15557
0.169479
0.158722
0.197151
0.159788
0.221359
0.159735
0.221998
0.158966
0.179086
0.158061
0.0930963
0.15757
-0.0133524
0.157031
-0.105548
0.155349
-0.165307
0.152495
-0.19374
0.149015
-0.200015
0.14408
-0.197018
0.13612
-0.190273
0.126796
-0.189416
0.121144
-0.167677
0.123565
-0.124756
0.13329
-0.0404474
0.145035
0.0490288
0.153397
0.141075
0.154879
0.232593
0.151219
0.287597
0.145781
0.314782
0.14258
0.212798
0.144808
0.0972826
0.149061
-0.0577231
0.150973
-0.146739
0.147174
-0.192165
0.143018
-0.309341
0.142355
-0.230718
0.14211
-0.238364
0.140294
-0.0205499
0.178804
0.128472
0.0118331
0.134521
0.00877553
0.140274
0.00405364
0.145939
-0.00272205
0.150601
-0.011482
0.154387
-0.0223743
0.156956
-0.0356298
0.157942
-0.0508414
0.156993
-0.067285
0.15386
-0.0836093
0.148573
-0.0980637
0.141553
-0.109066
0.133527
-0.115781
0.1253
-0.118304
0.117469
-0.117372
0.110334
-0.113933
0.103998
-0.108655
0.0979382
-0.10184
0.0905651
-0.094445
0.0807669
-0.088435
0.0706663
-0.0838651
0.065571
-0.0756599
0.0697473
-0.0559416
0.0827332
-0.0216662
0.100544
0.0222781
0.118906
0.0660573
0.134992
0.103161
0.147367
0.133052
0.155875
0.16097
0.161261
0.191765
0.164399
0.218222
0.1656
0.220797
0.164872
0.179813
0.162933
0.0950354
0.160808
-0.0112277
0.158581
-0.103321
0.155462
-0.162188
0.151421
-0.1897
0.147194
-0.195787
0.142329
-0.192153
0.134981
-0.182925
0.126041
-0.180476
0.120183
-0.161819
0.122171
-0.126744
0.131915
-0.0501907
0.14415
0.0367933
0.153432
0.131794
0.155967
0.230057
0.153304
0.29026
0.148251
0.319835
0.144656
0.216394
0.146135
0.0958033
0.149921
-0.061509
0.151941
-0.148759
0.147993
-0.188217
0.143443
-0.304791
0.142743
-0.230018
0.14256
-0.238181
0.140733
-0.0187227
0.181016
0.149803
0.00728292
0.154554
0.00402446
0.159209
-0.000601296
0.163451
-0.00696395
0.166725
-0.0147562
0.16904
-0.0246893
0.169931
-0.0365216
0.169026
-0.0499365
0.166007
-0.0642659
0.160745
-0.0783471
0.153462
-0.0907806
0.144767
-0.100371
0.135502
-0.106515
0.126487
-0.109289
0.118296
-0.109181
0.111148
-0.106785
0.105061
-0.102567
0.0998615
-0.0966401
0.0945747
-0.0891581
0.0874939
-0.0813543
0.0784257
-0.0747969
0.0708505
-0.0680847
0.0701545
-0.0552456
0.0787711
-0.0302828
0.0945627
0.00648646
0.112898
0.0477225
0.13011
0.0859486
0.144179
0.118984
0.154743
0.150406
0.162401
0.184107
0.167629
0.212993
0.170134
0.218292
0.169618
0.18033
0.166884
0.0977689
0.163391
-0.00773436
0.159583
-0.0995132
0.155159
-0.157763
0.150082
-0.184623
0.145154
-0.190859
0.140369
-0.187368
0.133735
-0.17629
0.125336
-0.172078
0.119339
-0.155822
0.120763
-0.128167
0.130313
-0.0597413
0.14294
0.0241663
0.153191
0.121543
0.156923
0.226325
0.155402
0.291782
0.150833
0.324404
0.146901
0.220326
0.147571
0.0951327
0.150795
-0.0647322
0.15291
-0.150874
0.148852
-0.184158
0.143875
-0.299814
0.14313
-0.229273
0.143054
-0.238105
0.141266
-0.0169354
0.183202
0.171087
0.00475385
0.173894
0.00121683
0.176706
-0.00341264
0.17867
-0.00892878
0.179943
-0.0160286
0.180161
-0.0249073
0.1789
-0.0352611
0.175834
-0.0468697
0.170738
-0.0591704
0.163631
-0.0712397
0.154878
-0.0820278
0.145166
-0.0906588
0.13532
-0.0966694
0.12607
-0.100039
0.117892
-0.101003
0.110957
-0.0998506
0.105211
-0.0968209
0.100558
-0.0919874
0.0966313
-0.0852315
0.0921673
-0.0768903
0.0857192
-0.0683488
0.0781817
-0.0605473
0.0738802
-0.0509442
0.0773598
-0.0337624
0.0893377
-0.00549145
0.106213
0.0308477
0.123797
0.0683642
0.139288
0.103493
0.151878
0.137816
0.161881
0.174104
0.169276
0.205598
0.173121
0.214447
0.172901
0.18055
0.169701
0.100969
0.165146
-0.00317866
0.159939
-0.094306
0.154336
-0.152161
0.148391
-0.178677
0.142832
-0.1853
0.13811
-0.182647
0.132261
-0.170441
0.124547
-0.164363
0.118486
-0.149761
0.11925
-0.128931
0.128422
-0.0689133
0.141332
0.0112562
0.152585
0.11029
0.157649
0.22126
0.157411
0.29202
0.153424
0.328391
0.149234
0.224515
0.149091
0.095276
0.151655
-0.0672961
0.153846
-0.153066
0.149728
-0.18004
0.144309
-0.294394
0.143512
-0.228476
0.143574
-0.238167
0.14188
-0.0152414
0.185326
0.187229
0.00402996
0.188182
0.000263194
0.188595
-0.00382565
0.188375
-0.00870874
0.187542
-0.0151954
0.185626
-0.0229913
0.182313
-0.0319483
0.177371
-0.0419276
0.170689
-0.0524882
0.162398
-0.0629485
0.152923
-0.0725533
0.142918
-0.0806541
0.133098
-0.0868487
0.124054
-0.0909943
0.116155
-0.0931052
0.109547
-0.0932418
0.10419
-0.0914637
0.0999834
-0.0877812
0.0968335
-0.0820815
0.0942016
-0.0742584
0.0906893
-0.0648365
0.0853358
-0.0551938
0.0800172
-0.0456255
0.0792115
-0.0329567
0.0861339
-0.0124139
0.0997512
0.0172303
0.116402
0.0517135
0.132693
0.0872013
0.147095
0.123414
0.159336
0.161863
0.168883
0.196051
0.174233
0.209097
0.17459
0.180193
0.171292
0.104267
0.166039
0.00207389
0.159608
-0.0878743
0.152923
-0.145476
0.146274
-0.172028
0.140183
-0.179209
0.135487
-0.177952
0.130462
-0.165416
0.123571
-0.157472
0.117524
-0.143713
0.117551
-0.128958
0.126174
-0.0775361
0.139262
-0.00183225
0.151527
0.0980245
0.158023
0.214765
0.159193
0.29085
0.155909
0.331675
0.15159
0.228834
0.150643
0.0962228
0.152481
-0.0691341
0.154714
-0.155299
0.150601
-0.175927
0.144749
-0.288543
0.14389
-0.227616
0.144108
-0.238385
0.142562
-0.0136959
0.187346
0.193514
0.00404318
0.192986
0.00079188
0.191813
-0.00265317
0.190175
-0.00707017
0.187817
-0.0128373
0.184428
-0.0196027
0.17981
-0.0273309
0.173817
-0.0359337
0.166425
-0.0450966
0.157826
-0.0543496
0.148428
-0.0631552
0.138785
-0.0710108
0.129465
-0.0775289
0.120927
-0.0824561
0.113458
-0.0856362
0.107187
-0.0869716
0.102133
-0.0864092
0.0982433
-0.0838917
0.0954928
-0.0793311
0.0937991
-0.0725646
0.0924539
-0.0634913
0.0900496
-0.0527895
0.0862415
-0.0418175
0.0835545
-0.0302697
0.0859909
-0.0148503
0.0949956
0.00822568
0.108987
0.0377217
0.124876
0.071313
0.140596
0.107694
0.155125
0.147334
0.167044
0.184132
0.173857
0.202285
0.174792
0.179258
0.171903
0.107155
0.166175
0.007802
0.158831
-0.0805309
0.151139
-0.137784
0.143923
-0.164813
0.137401
-0.172686
0.132632
-0.173183
0.128367
-0.161151
0.122409
-0.151514
0.116441
-0.137745
0.115645
-0.128163
0.123531
-0.0854217
0.136662
-0.0149628
0.149932
0.0847537
0.157991
0.206706
0.160679
0.288163
0.158183
0.334171
0.153884
0.233133
0.152208
0.0978985
0.153269
-0.0701948
0.155499
-0.157529
0.151453
-0.171882
0.145205
-0.282294
0.144265
-0.226676
0.144643
-0.238763
0.143301
-0.0123534
0.189216
0.189041
0.00438975
0.187906
0.00192705
0.186336
-0.00108316
0.184258
-0.00499293
0.181349
-0.00992786
0.177515
-0.0157688
0.172652
-0.0224674
0.166664
-0.0299461
0.159584
-0.0380167
0.151608
-0.0463735
0.14308
-0.0546277
0.134434
-0.0623647
0.126098
-0.0691924
0.118416
-0.0747746
0.111621
-0.0788413
0.105833
-0.0811835
0.101095
-0.0816714
0.09741
-0.0802062
0.0947618
-0.0766829
0.0932146
-0.0710174
0.0926968
-0.0629735
0.0923438
-0.0524365
0.0909107
-0.0403843
0.0887393
-0.0280983
0.0884647
-0.0145756
0.0931381
0.00355224
0.103142
0.0277175
0.116784
0.0576713
0.132191
0.0922867
0.147973
0.131553
0.161869
0.170235
0.170498
0.193656
0.173093
0.176662
0.171391
0.108858
0.166034
0.0131587
0.15765
-0.0721467
0.149124
-0.129257
0.141552
-0.157242
0.134725
-0.16586
0.129759
-0.168217
0.126077
-0.157469
0.121099
-0.146536
0.115265
-0.131911
0.113621
-0.126519
0.120692
-0.0924926
0.133605
-0.0278765
0.147705
0.0706542
0.157314
0.197097
0.161637
0.28384
0.160113
0.335695
0.156034
0.237212
0.15374
0.100193
0.153995
-0.0704506
0.156182
-0.159716
0.152268
-0.167968
0.145674
-0.2757
0.144618
-0.22562
0.145182
-0.239326
0.14409
-0.0112619
0.190888
0.208435
0.00445469
-0.2085
0.208715
0.00164764
0.2091
-0.00146891
0.209334
-0.00522633
0.209252
-0.0098465
0.208725
-0.0152414
0.207595
-0.0213371
0.205695
-0.0280466
0.202899
-0.0352202
0.199155
-0.0426294
0.194498
-0.0499711
0.189036
-0.0569029
0.182921
-0.0630766
0.17632
-0.0681736
0.169405
-0.0719265
0.16234
-0.0741183
0.155271
-0.0746022
0.14833
-0.0732659
0.141609
-0.0699613
0.135199
-0.0646082
0.129282
-0.0570562
0.12375
-0.0469041
0.117776
-0.0344106
0.110651
-0.0209737
0.10343
-0.00735387
0.0982621
0.0087197
0.0970212
0.0289585
0.0998543
0.0548382
0.105802
0.0863386
0.113893
0.123462
0.1235
0.160628
0.135471
0.181685
0.151572
0.160561
0.168719
0.091711
0.1797
0.0021784
0.182936
-0.0753826
0.179584
-0.125906
0.172678
-0.150336
0.164051
-0.157233
0.155798
-0.159964
0.14859
-0.15026
0.140593
-0.138539
0.131619
-0.122937
0.125193
-0.120093
0.12508
-0.0923793
0.129503
-0.0322994
0.13433
0.0658274
0.137123
0.194303
0.138908
0.282055
0.141156
0.333447
0.144796
0.233572
0.149045
0.0959434
0.152574
-0.0739796
0.154255
-0.161396
0.149993
-0.163706
0.141776
-0.267484
0.13787
-0.221714
0.135208
-0.236665
0.131616
-0.0076698
0.192896
0.218628
0.00446566
-0.218639
0.218767
0.00150898
0.219013
-0.00171575
0.219117
-0.00532968
0.218833
-0.00956305
0.218058
-0.0144664
0.216687
-0.0199656
0.214602
-0.0259621
0.211711
-0.0323288
0.207967
-0.0388857
0.203387
-0.0453912
0.198047
-0.0515624
0.19207
-0.0570994
0.185612
-0.0617163
0.178849
-0.0651635
0.171957
-0.0672257
0.165092
-0.0677369
0.158392
-0.0665668
0.15197
-0.0635393
0.145892
-0.0585298
0.140282
-0.0514462
0.135266
-0.0418878
0.130474
-0.0296191
0.124988
-0.0154872
0.118441
-0.000807382
0.112414
0.0147471
0.109
0.0323723
0.109702
0.054136
0.114677
0.0813641
0.123061
0.115077
0.134145
0.149544
0.148904
0.166927
0.167529
0.141935
0.185196
0.0740438
0.195604
-0.00822932
0.197118
-0.076897
0.192152
-0.120939
0.184066
-0.14225
0.17466
-0.147827
0.165756
-0.151061
0.15825
-0.142754
0.15043
-0.130719
0.141342
-0.113849
0.1342
-0.112951
0.133389
-0.091568
0.137597
-0.0365076
0.142855
0.0605693
0.146344
0.190815
0.149153
0.279245
0.152538
0.330063
0.156944
0.229167
0.161355
0.0915318
0.164276
-0.0769003
0.165587
-0.162707
0.1607
-0.158819
0.151478
-0.258262
0.146947
-0.217184
0.144021
-0.233739
0.14017
-0.00381853
0.195012
0.228229
0.00425069
-0.228015
0.228394
0.00134461
0.228493
-0.00181478