/*--------------------------------*- C++ -*----------------------------------*\
| =========                 |                                                 |
| \\      /  F ield         | OpenFOAM: The Open Source CFD Toolbox           |
|  \\    /   O peration     | Version:  2512                                  |
|   \\  /    A nd           | Website:  www.openfoam.com                      |
|    \\/     M anipulation  |                                                 |
\*---------------------------------------------------------------------------*/
FoamFile
{
    version     2.0;
    format      ascii;
    arch        "LSB;label=32;scalar=64";
    class       volScalarField;
    location    "94";
    object      p;
}
// * * * * * * * * * * * * * * * * * * * * * * * * * * * * * * * * * * * * * //

dimensions      [0 2 -2 0 0 0 0];

internalField   nonuniform List<scalar> 
13248
(
-0.441325
-0.438403
-0.434957
-0.431276
-0.427724
-0.424704
-0.422477
-0.421124
-0.420544
-0.420461
-0.420461
-0.420029
-0.418616
-0.415708
-0.410885
-0.403872
-0.394565
-0.38302
-0.36942
-0.354049
-0.33708
-0.318886
-0.298518
-0.276857
-0.449917
-0.446427
-0.442384
-0.438083
-0.43387
-0.430107
-0.427
-0.424549
-0.422569
-0.420713
-0.41853
-0.415532
-0.411267
-0.405381
-0.397662
-0.388052
-0.376631
-0.363584
-0.349146
-0.333562
-0.317028
-0.299739
-0.281539
-0.263269
-0.460482
-0.456156
-0.451388
-0.446425
-0.441517
-0.436951
-0.43283
-0.429048
-0.425333
-0.421305
-0.416549
-0.410691
-0.403459
-0.394713
-0.384449
-0.372779
-0.359885
-0.345983
-0.331283
-0.315971
-0.300179
-0.284081
-0.267567
-0.251152
-0.473107
-0.467693
-0.462064
-0.456358
-0.450657
-0.44512
-0.439716
-0.434231
-0.428345
-0.421719
-0.414068
-0.405214
-0.395103
-0.383799
-0.371448
-0.35824
-0.344371
-0.330019
-0.315332
-0.300428
-0.285405
-0.270383
-0.255315
-0.240694
-0.48773
-0.481018
-0.474403
-0.467839
-0.461168
-0.454374
-0.447293
-0.439639
-0.431127
-0.421558
-0.41086
-0.399082
-0.386371
-0.372925
-0.358952
-0.344639
-0.330137
-0.315559
-0.300986
-0.286482
-0.272101
-0.257901
-0.243864
-0.230286
-0.504163
-0.49601
-0.488306
-0.480737
-0.472825
-0.464368
-0.455099
-0.444755
-0.433199
-0.420465
-0.406728
-0.392242
-0.377281
-0.362091
-0.346865
-0.331738
-0.316793
-0.30208
-0.287627
-0.273453
-0.259576
-0.246017
-0.232771
-0.220023
-0.522081
-0.512426
-0.503548
-0.494774
-0.485246
-0.474593
-0.46255
-0.449009
-0.434098
-0.418133
-0.401512
-0.384621
-0.367771
-0.351181
-0.334983
-0.319239
-0.303969
-0.289168
-0.274824
-0.260922
-0.247451
-0.234401
-0.221773
-0.209627
-0.540999
-0.529852
-0.519722
-0.509467
-0.49783
-0.484361
-0.468955
-0.45181
-0.433395
-0.414291
-0.395048
-0.376084
-0.357674
-0.339961
-0.322995
-0.30677
-0.291251
-0.276393
-0.26215
-0.248483
-0.235357
-0.222747
-0.210646
-0.199014
-0.560219
-0.547664
-0.536181
-0.524081
-0.509754
-0.492838
-0.47358
-0.452605
-0.430725
-0.408718
-0.387179
-0.366479
-0.3468
-0.32819
-0.310623
-0.294031
-0.278335
-0.263458
-0.24933
-0.235889
-0.223082
-0.210874
-0.199238
-0.188062
-0.578813
-0.564986
-0.55201
-0.537617
-0.519995
-0.499098
-0.475699
-0.450894
-0.425777
-0.401209
-0.377733
-0.355614
-0.334922
-0.315612
-0.297588
-0.280734
-0.264936
-0.250091
-0.236108
-0.222906
-0.210419
-0.198599
-0.187389
-0.176649
-0.595646
-0.580701
-0.566034
-0.548851
-0.527384
-0.502147
-0.474548
-0.446116
-0.418111
-0.391367
-0.366308
-0.343065
-0.321593
-0.301765
-0.283427
-0.266425
-0.250616
-0.235875
-0.222091
-0.209171
-0.197034
-0.185615
-0.17482
-0.164528
-0.609478
-0.593601
-0.577021
-0.556549
-0.530766
-0.500967
-0.469242
-0.437467
-0.40695
-0.378407
-0.352102
-0.328018
-0.306004
-0.285859
-0.267378
-0.250372
-0.234675
-0.220142
-0.206648
-0.194086
-0.182368
-0.171411
-0.161097
-0.151367
-0.342806
-0.344872
-0.34619
-0.347211
-0.348335
-0.34968
-0.351277
-0.353121
-0.355183
-0.357412
-0.359744
-0.3621
-0.364377
-0.366449
-0.368156
-0.369353
-0.36986
-0.369496
-0.368087
-0.36549
-0.361611
-0.356418
-0.349974
-0.342488
-0.354668
-0.356241
-0.357389
-0.358493
-0.359899
-0.361724
-0.364001
-0.366723
-0.369857
-0.373351
-0.377132
-0.38111
-0.385168
-0.389144
-0.392829
-0.395988
-0.398382
-0.399701
-0.399641
-0.397896
-0.39422
-0.388403
-0.380294
-0.370143
-0.366678
-0.367621
-0.3685
-0.369602
-0.371198
-0.373404
-0.376253
-0.379734
-0.383808
-0.388419
-0.393487
-0.398904
-0.404526
-0.410164
-0.415567
-0.42043
-0.424405
-0.427087
-0.428072
-0.426824
-0.42298
-0.416181
-0.406056
-0.392892
-0.378293
-0.378523
-0.379043
-0.380034
-0.381688
-0.384116
-0.387352
-0.391382
-0.396162
-0.401623
-0.407675
-0.414189
-0.420995
-0.427865
-0.434505
-0.440547
-0.445521
-0.4489
-0.450628
-0.449234
-0.444699
-0.436529
-0.424197
-0.407649
-0.389023
-0.38853
-0.388622
-0.389377
-0.390916
-0.393352
-0.396727
-0.401025
-0.406195
-0.412156
-0.418798
-0.425973
-0.43348
-0.441053
-0.448349
-0.454944
-0.460324
-0.463914
-0.465114
-0.463173
-0.457533
-0.44767
-0.433256
-0.413497
-0.39851
-0.397357
-0.396977
-0.397371
-0.398606
-0.40081
-0.40404
-0.408287
-0.413493
-0.419566
-0.426376
-0.43375
-0.441453
-0.449181
-0.456542
-0.463058
-0.46816
-0.471207
-0.471516
-0.468391
-0.461245
-0.44948
-0.433381
-0.410882
-0.406581
-0.404896
-0.404034
-0.403953
-0.404702
-0.406435
-0.409239
-0.413117
-0.418015
-0.423831
-0.430416
-0.437564
-0.445008
-0.452399
-0.459303
-0.465187
-0.469436
-0.471373
-0.470307
-0.465563
-0.456684
-0.442984
-0.425529
-0.401157
-0.413285
-0.41123
-0.409904
-0.409264
-0.409375
-0.410434
-0.412567
-0.415803
-0.420099
-0.42535
-0.431392
-0.437957
-0.44477
-0.451426
-0.457432
-0.46221
-0.465111
-0.465456
-0.462594
-0.455924
-0.4452
-0.429763
-0.411218
-0.386055
-0.418894
-0.416627
-0.414869
-0.413618
-0.412987
-0.413231
-0.414521
-0.416924
-0.420405
-0.424855
-0.430078
-0.435833
-0.441721
-0.447291
-0.451998
-0.455223
-0.456313
-0.454631
-0.449639
-0.440898
-0.428387
-0.411664
-0.392418
-0.367483
-0.423873
-0.421506
-0.419346
-0.417462
-0.416046
-0.41541
-0.415779
-0.417259
-0.419796
-0.423309
-0.427569
-0.432245
-0.436903
-0.441019
-0.443995
-0.4452
-0.444024
-0.439946
-0.432607
-0.421838
-0.40783
-0.39051
-0.371318
-0.347552
-0.428833
-0.426391
-0.423835
-0.421319
-0.419123
-0.41761
-0.417038
-0.417525
-0.419097
-0.421568
-0.424669
-0.428008
-0.431083
-0.433316
-0.434094
-0.43283
-0.429023
-0.42233
-0.412601
-0.399946
-0.384715
-0.36731
-0.348912
-0.327359
-0.434447
-0.43185
-0.428866
-0.425735
-0.422802
-0.420467
-0.419012
-0.41856
-0.419078
-0.420362
-0.422069
-0.423734
-0.424804
-0.424691
-0.422834
-0.418765
-0.41216
-0.402878
-0.390959
-0.376658
-0.360274
-0.342472
-0.323929
-0.304669
-0.332949
-0.320761
-0.309128
-0.299122
-0.291967
-0.288621
-0.289432
-0.293786
-0.300215
-0.305873
-0.307941
-0.303234
-0.288927
-0.264486
-0.232074
-0.196472
-0.163393
-0.137321
-0.120331
-0.112346
-0.112786
-0.12221
-0.141161
-0.166196
-0.187954
-0.194933
-0.182585
-0.155941
-0.125197
-0.0986257
-0.0800845
-0.0698577
-0.0663409
-0.0692373
-0.0802936
-0.0977504
-0.112595
-0.114118
-0.102098
-0.0840441
-0.0686989
-0.0592153
-0.0547646
-0.0573646
-0.0670923
-0.0763873
-0.0769794
-0.0678972
-0.0557997
-0.0462886
-0.0387385
-0.0364127
-0.0348233
-0.0331303
-0.0313792
-0.0281355
-0.0210575
-0.015742
-0.00887878
-0.00282535
-0.357345
-0.339029
-0.319921
-0.301158
-0.284399
-0.271073
-0.262189
-0.258042
-0.257881
-0.25909
-0.260184
-0.256417
-0.2451
-0.225995
-0.200506
-0.172519
-0.146813
-0.127237
-0.115609
-0.112044
-0.116613
-0.130497
-0.154029
-0.182769
-0.20624
-0.21239
-0.197158
-0.166669
-0.132175
-0.102415
-0.0810846
-0.068297
-0.0623948
-0.062697
-0.0706302
-0.0851842
-0.0985149
-0.100585
-0.0912241
-0.0764773
-0.0644815
-0.0578579
-0.0560026
-0.0612162
-0.0736613
-0.0847036
-0.0854231
-0.0743981
-0.0595171
-0.0477182
-0.038041
-0.0340447
-0.0305326
-0.0283732
-0.0267701
-0.0244187
-0.0190884
-0.0149411
-0.00964572
-0.00363167
-0.377766
-0.353848
-0.327839
-0.300861
-0.275211
-0.252207
-0.23344
-0.220061
-0.212394
-0.208627
-0.205689
-0.204189
-0.196006
-0.182615
-0.164391
-0.144293
-0.126166
-0.113185
-0.106922
-0.107762
-0.11647
-0.134664
-0.162326
-0.194177
-0.219099
-0.224984
-0.207741
-0.17442
-0.137061
-0.104792
-0.081192
-0.0661858
-0.0581103
-0.0559946
-0.0608865
-0.0724959
-0.0842859
-0.0879354
-0.0799518
-0.0684004
-0.0596902
-0.055923
-0.056729
-0.0645909
-0.0797061
-0.0924875
-0.0934329
-0.0805385
-0.0629108
-0.0488919
-0.0372566
-0.0317931
-0.0265272
-0.0238517
-0.0222031
-0.0206596
-0.0170824
-0.0141324
-0.0104331
-0.0044687
-0.39085
-0.36277
-0.330865
-0.296803
-0.264716
-0.233271
-0.205321
-0.182672
-0.167795
-0.15802
-0.151648
-0.147546
-0.144836
-0.13592
-0.124791
-0.112369
-0.101552
-0.0948807
-0.0937017
-0.0987302
-0.111394
-0.133589
-0.16495
-0.199557
-0.22596
-0.232152
-0.213976
-0.178979
-0.139763
-0.105778
-0.0805126
-0.0637254
-0.0537639
-0.0494706
-0.0515227
-0.0602107
-0.0702664
-0.0741024
-0.0684809
-0.060007
-0.0544205
-0.0534059
-0.0568272
-0.0672556
-0.0849564
-0.0994786
-0.100771
-0.086175
-0.0659341
-0.0498002
-0.0363886
-0.0296661
-0.0228337
-0.0195986
-0.0177304
-0.016897
-0.0150611
-0.013324
-0.0112371
-0.00533286
-0.39495
-0.364462
-0.328881
-0.290998
-0.252518
-0.214787
-0.179474
-0.147638
-0.128673
-0.111774
-0.100683
-0.093121
-0.0928047
-0.0875194
-0.0827771
-0.0771843
-0.073038
-0.0721556
-0.0756641
-0.084719
-0.101219
-0.127145
-0.161776
-0.198803
-0.226682
-0.233764
-0.21579
-0.180379
-0.140421
-0.105555
-0.0792093
-0.0610893
-0.0495734
-0.0434136
-0.0428867
-0.0487408
-0.0569358
-0.060757
-0.057159
-0.051486
-0.0487512
-0.0502815
-0.0561762
-0.0690156
-0.0891808
-0.105415
-0.107125
-0.0911659
-0.0685531
-0.0504494
-0.0354446
-0.0276609
-0.0194632
-0.01564
-0.0134045
-0.0131711
-0.0130444
-0.0125238
-0.0120511
-0.00621858
-0.390519
-0.358814
-0.322267
-0.282756
-0.241356
-0.199861
-0.160224
-0.12454
-0.0960471
-0.0733558
-0.0572018
-0.0469932
-0.0436914
-0.04143
-0.0404636
-0.040146
-0.0415912
-0.0456982
-0.0535609
-0.0665795
-0.0868238
-0.116115
-0.153416
-0.192381
-0.221705
-0.230088
-0.213291
-0.178714
-0.139195
-0.104297
-0.0774385
-0.0584067
-0.0456714
-0.0379721
-0.0352269
-0.038428
-0.0447017
-0.0482964
-0.0463022
-0.0430275
-0.0427641
-0.046553
-0.0547087
-0.0697413
-0.0921813
-0.110077
-0.11231
-0.0954053
-0.0707429
-0.0508463
-0.0344289
-0.0257638
-0.0164129
-0.0119924
-0.00927461
-0.00951713
-0.0110502
-0.0117384
-0.012866
-0.00711959
-0.378986
-0.347307
-0.312353
-0.273963
-0.232588
-0.190227
-0.148867
-0.110377
-0.0766931
-0.0486656
-0.02711
-0.0122974
-0.0044508
-0.00124312
-0.0014624
-0.00436558
-0.00961117
-0.0176322
-0.029341
-0.0460861
-0.0697707
-0.101839
-0.14102
-0.181252
-0.211825
-0.221776
-0.206899
-0.174274
-0.136297
-0.10218
-0.0753386
-0.0557719
-0.0421274
-0.0331986
-0.0286183
-0.0294462
-0.0338335
-0.0370217
-0.0361946
-0.0348304
-0.0365834
-0.0422807
-0.0524033
-0.0693489
-0.0938346
-0.113296
-0.11626
-0.0988282
-0.07248
-0.0509955
-0.0333455
-0.0239568
-0.0136608
-0.00865982
-0.00538544
-0.00596315
-0.00909381
-0.0109722
-0.013673
-0.00802955
-0.362442
-0.331754
-0.300347
-0.26537
-0.226443
-0.185755
-0.145169
-0.106111
-0.0701022
-0.0384562
-0.0122838
0.00764031
0.0208101
0.0278315
0.0293849
0.0260598
0.019281
0.00891404
-0.005647
-0.025438
-0.0518767
-0.0858688
-0.126001
-0.166711
-0.198122
-0.20962
-0.197183
-0.167417
-0.131919
-0.0993148
-0.0729837
-0.0532273
-0.0389629
-0.0290959
-0.0230519
-0.0218362
-0.024452
-0.0271126
-0.0270612
-0.0270866
-0.0303643
-0.0375563
-0.0493002
-0.0678164
-0.0940945
-0.114979
-0.11894
-0.101365
-0.0737497
-0.050909
-0.032202
-0.0222361
-0.011184
-0.00563174
-0.00177382
-0.00252936
-0.00718841
-0.0102289
-0.0144646
-0.00894178
-0.343024
-0.31434
-0.287563
-0.257103
-0.222073
-0.184842
-0.146964
-0.109408
-0.0734037
-0.040275
-0.0111969
0.0128842
0.031124
0.0431354
0.0486504
0.0474521
0.0415851
0.0308798
0.0150198
-0.00658994
-0.0346924
-0.0695615
-0.109663
-0.150024
-0.18166
-0.194455
-0.184821
-0.158642
-0.126389
-0.0959221
-0.0705522
-0.050919
-0.0362883
-0.0257355
-0.0185547
-0.0156281
-0.0166055
-0.0186372
-0.01905
-0.0199543
-0.0242807
-0.0325069
-0.0454185
-0.0651553
-0.0929975
-0.115134
-0.120176
-0.102972
-0.0745881
-0.0506528
-0.0310347
-0.0206161
-0.00899641
-0.00290428
0.00153578
0.000773578
-0.0053444
-0.00951209
-0.0152319
-0.00984944
-0.323145
-0.297609
-0.275564
-0.249411
-0.218644
-0.185699
-0.151555
-0.116786
-0.0823918
-0.0495143
-0.0193878
0.0069335
0.0285114
0.0446208
0.0544266
0.0579537
0.0550945
0.0460915
0.0307457
0.00891067
-0.0194287
-0.0538901
-0.0929025
-0.132073
-0.163325
-0.177145
-0.170724
-0.148766
-0.120394
-0.0925838
-0.0685518
-0.0492733
-0.0344257
-0.0233434
-0.0152435
-0.0108596
-0.0103217
-0.011646
-0.0122038
-0.0135578
-0.0184562
-0.027253
-0.0409485
-0.0615152
-0.0905362
-0.113798
-0.119971
-0.103642
-0.0750675
-0.0503389
-0.0299123
-0.0190963
-0.00710673
-0.000514211
0.00450763
0.00394741
-0.00357209
-0.00882396
-0.015962
-0.0107449
-0.305046
-0.284127
-0.266133
-0.243288
-0.216523
-0.187937
-0.15773
-0.126267
-0.0942226
-0.062553
-0.032311
-0.00450821
0.0196933
0.0392217
0.0529297
0.0591695
0.060032
0.0543808
0.0413767
0.0209325
-0.00640333
-0.0395885
-0.0768455
-0.113976
-0.144092
-0.15851
-0.155094
-0.137786
-0.113897
-0.0892193
-0.0668649
-0.0481494
-0.0331865
-0.0217066
-0.0128883
-0.00725066
-0.00529412
-0.00595996
-0.00659902
-0.00812439
-0.0131534
-0.0218969
-0.0357344
-0.0568365
-0.0870726
-0.111164
-0.118279
-0.103174
-0.0749881
-0.0498347
-0.0287613
-0.017581
-0.00534153
0.0015729
0.00703865
0.00699516
-0.00187114
-0.00816273
-0.0166468
-0.0116176
-0.288247
-0.274229
-0.259046
-0.238456
-0.21554
-0.191364
-0.165264
-0.137337
-0.108347
-0.0791807
-0.0507107
-0.0236927
0.0010275
0.0229679
0.0399338
0.0519158
0.0563914
0.0544199
0.045245
0.0283424
0.00423703
-0.0256952
-0.0594114
-0.0933737
-0.12174
-0.136205
-0.135538
-0.12313
-0.103965
-0.0827293
-0.0625369
-0.0449752
-0.030426
-0.0190377
-0.0100366
-0.00366499
-0.000556376
-0.000654616
-0.00156358
-0.00335445
-0.00845992
-0.0169395
-0.0305384
-0.0515672
-0.0822578
-0.106917
-0.11512
-0.101135
-0.0736296
-0.0483983
-0.0270912
-0.0158384
-0.00332988
0.0036856
0.00936042
0.00990582
-0.000280496
-0.00753025
-0.0172634
-0.0124676
-0.263579
-0.263089
-0.247284
-0.225955
-0.204078
-0.181714
-0.157826
-0.132241
-0.10552
-0.0784272
-0.0517438
-0.026193
-0.00238581
0.019154
0.035401
0.0469917
0.0530426
0.0531712
0.0461448
0.031148
0.00868646
-0.0196578
-0.0518465
-0.0842216
-0.111609
-0.123345
-0.122008
-0.110361
-0.0929065
-0.0737285
-0.0554326
-0.0393552
-0.0257855
-0.0149723
-0.00623992
0.000229353
0.00395568
0.00450358
0.00386865
0.00329631
-0.00214251
-0.00982071
-0.0230641
-0.0446907
-0.077435
-0.104304
-0.11412
-0.0997052
-0.0715083
-0.0460315
-0.0248248
-0.0139614
-0.00118742
0.00586658
0.0121101
0.0129625
0.00134138
-0.00689422
-0.0178168
-0.0133109
-0.239718
-0.242719
-0.228415
-0.207845
-0.187367
-0.167285
-0.146203
-0.123559
-0.0997564
-0.0755347
-0.051605
-0.0286208
-0.00722919
0.011499
0.0273498
0.0387255
0.0451246
0.0459119
0.0401125
0.0270473
0.00714215
-0.0181131
-0.0465455
-0.0743036
-0.0941861
-0.106215
-0.105133
-0.0952718
-0.0805794
-0.0642513
-0.0483597
-0.0340554
-0.0216329
-0.0115315
-0.00321463
0.0032197
0.00728875
0.00815442
0.00750523
0.00620421
0.00210084
-0.00461824
-0.0171409
-0.0388208
-0.0727072
-0.100546
-0.110283
-0.0961002
-0.0681352
-0.0431921
-0.0224702
-0.0119246
0.000839726
0.00759836
0.0143156
0.0152513
0.00266217
-0.00644403
-0.0182402
-0.0139626
-0.218154
-0.221475
-0.209548
-0.191123
-0.172531
-0.154618
-0.136083
-0.116158
-0.0950858
-0.0735448
-0.0522093
-0.0316813
-0.0125271
0.0045474
0.0189101
0.0294649
0.0355229
0.0365005
0.0316724
0.020584
0.00367614
-0.0176063
-0.0410657
-0.063348
-0.0799031
-0.0892664
-0.0888347
-0.0812484
-0.0693764
-0.0556773
-0.0418961
-0.0291564
-0.0177793
-0.00831314
-0.000397733
0.00588874
0.0101528
0.0113368
0.010786
0.00916567
0.00574685
-0.000524068
-0.0127233
-0.0343312
-0.0679115
-0.0951488
-0.104702
-0.0912643
-0.0641498
-0.0400399
-0.0199564
-0.00979228
0.00284098
0.00926505
0.0163017
0.0171419
0.00375126
-0.0061257
-0.0185105
-0.0144697
-0.197538
-0.20115
-0.191623
-0.175668
-0.159062
-0.143091
-0.126788
-0.109342
-0.0908283
-0.0718176
-0.0529301
-0.0346977
-0.0176168
-0.00230629
0.0105679
0.0202105
0.0259636
0.0273019
0.0236857
0.0148437
0.00121654
-0.0159046
-0.0346444
-0.0524103
-0.066149
-0.0738227
-0.0741032
-0.0684494
-0.0589494
-0.0475475
-0.0356894
-0.024437
-0.0141039
-0.00528737
0.00220181
0.00826071
0.0126273
0.014169
0.0139105
0.012664
0.00945943
0.00352939
-0.00845052
-0.0295703
-0.0620052
-0.088533
-0.0979895
-0.0852747
-0.0594499
-0.0365008
-0.0172817
-0.0075667
0.0048303
0.010885
0.0180843
0.0188462
0.00474034
-0.0058115
-0.0186103
-0.014838
-0.178132
-0.182267
-0.174721
-0.16104
-0.146403
-0.132283
-0.118019
-0.102851
-0.0867239
-0.0700847
-0.0534866
-0.0374162
-0.0223341
-0.00875185
0.0027472
0.0115459
0.0170745
0.0188713
0.0165411
0.00992874
-0.000592293
-0.013989
-0.0287113
-0.042614
-0.0539395
-0.0603499
-0.0610761
-0.056958
-0.049459
-0.0400603
-0.0299141
-0.0200151
-0.0106777
-0.00250243
0.00456813
0.0103555
0.0147414
0.0166174
0.0167604
0.0159974
0.0132352
0.00784933
-0.00355904
-0.0237026
-0.0549093
-0.0807941
-0.0899286
-0.0781085
-0.054038
-0.0326108
-0.0144726
-0.00526967
0.00680322
0.0124431
0.0196051
0.0203887
0.0056923
-0.00544442
-0.0185147
-0.0150297
-0.160621
-0.164816
-0.158783
-0.147153
-0.134441
-0.122115
-0.109741
-0.0966505
-0.0827156
-0.0682724
-0.0538018
-0.0397485
-0.026538
-0.0145355
-0.00428247
0.00373236
0.00903189
0.0112304
0.0100384
0.00537016
-0.00247625
-0.0126913
-0.0239918
-0.0342974
-0.043711
-0.0489822
-0.0499098
-0.0469345
-0.041017
-0.0332736
-0.0246043
-0.0159152
-0.00751642
2.25888e-05
0.00668569
0.012185
0.0165149
0.0186768
0.0192943
0.019144
0.0170157
0.0124272
0.0019745
-0.0169545
-0.0468308
-0.0718464
-0.0804794
-0.0698645
-0.0479751
-0.0284103
-0.0115567
-0.00292356
0.00874589
0.0139362
0.0208292
0.0217222
0.00660963
-0.00499602
-0.0181532
-0.0149877
-0.144567
-0.148559
-0.143816
-0.134058
-0.123167
-0.112539
-0.101902
-0.0906896
-0.0787424
-0.0663067
-0.0537861
-0.0415692
-0.0300018
-0.0195055
-0.0104115
-0.00314671
0.00189347
0.00439492
0.0041424
0.00109473
-0.00450592
-0.012056
-0.0206742
-0.0295457
-0.0356477
-0.0396827
-0.0405611
-0.0383399
-0.0336118
-0.0272051
-0.0197967
-0.012177
-0.00464503
0.00226981
0.00853386
0.0137582
0.0179819
0.0203748
0.0214824
0.0220566
0.0207296
0.0171305
0.00784579
-0.0096815
-0.0378743
-0.0617886
-0.0699273
-0.0607322
-0.0413709
-0.0239604
-0.00856974
-0.000552291
0.0106419
0.0153724
0.0217364
0.0227993
0.00750704
-0.00439568
-0.0174267
-0.0146485
-0.129566
-0.133498
-0.129902
-0.121802
-0.112562
-0.103492
-0.0944322
-0.0849063
-0.0747439
-0.0641218
-0.0533727
-0.0428375
-0.0328158
-0.0236351
-0.015597
-0.00903859
-0.00427608
-0.00156071
-0.00105399
-0.00277206
-0.00652532
-0.0118618
-0.0180991
-0.0243849
-0.0291373
-0.0321644
-0.0328274
-0.0310631
-0.0272069
-0.0218587
-0.0155093
-0.00882401
-0.00207824
0.00423515
0.0101
0.0150754
0.019176
0.0217477
0.0232908
0.0246366
0.0242733
0.0218202
0.0138753
-0.00205454
-0.0282824
-0.0509305
-0.05868
-0.0509942
-0.0343937
-0.0193419
-0.00555216
0.00182035
0.0124745
0.0167682
0.022328
0.023609
0.00845205
-0.00352602
-0.0162312
-0.0139474
-0.115875
-0.119714
-0.117023
-0.110338
-0.102571
-0.0949113
-0.0872725
-0.0792518
-0.0706802
-0.0616831
-0.0525332
-0.0435188
-0.0348727
-0.0268867
-0.0198103
-0.0139101
-0.00943688
-0.0065899
-0.00549304
-0.00615386
-0.00842614
-0.0119627
-0.0162244
-0.0205591
-0.024011
-0.0261392
-0.0264962
-0.0249753
-0.0217398
-0.0172137
-0.0117419
-0.0058669
0.000173844
0.0059215
0.0113835
0.0161262
0.0201111
0.0228308
0.0247203
0.0267768
0.0274767
0.0263564
0.0199331
0.00562619
-0.0185469
-0.0397127
-0.0470764
-0.0410008
-0.0272623
-0.0146539
-0.00254679
0.00417081
0.0142253
0.0181513
0.0226496
0.0241976
0.00956042
-0.00224761
-0.0144708
-0.0128293
-0.103477
-0.107074
-0.105098
-0.0996329
-0.093171
-0.0867707
-0.0803934
-0.0737018
-0.0665341
-0.0589766
-0.051259
-0.0435522
-0.0361629
-0.0292596
-0.0230582
-0.0177722
-0.0136003
-0.0107007
-0.00917093
-0.00901465
-0.0101204
-0.012225
-0.0149041
-0.0177229
-0.0200149
-0.0213469
-0.0213595
-0.0199353
-0.0171299
-0.0132345
-0.00848239
-0.00330463
0.00210749
0.00733474
0.012395
0.0169043
0.0207813
0.0236337
0.0258011
0.0283948
0.0300871
0.0303782
0.0255213
0.0127489
-0.00923535
-0.0285729
-0.0355478
-0.0311449
-0.0202291
-0.0100115
0.000402168
0.00647692
0.0158759
0.0195521
0.0228122
0.0246722
0.0109772
-0.000423275
-0.0120797
-0.0112683
-0.0920802
-0.0954351
-0.0940855
-0.0896944
-0.0843643
-0.0790569
-0.0737799
-0.0682484
-0.0623053
-0.055996
-0.0494838
-0.0430175
-0.0367293
-0.030794
-0.0253854
-0.0206719
-0.0168108
-0.0139275
-0.0120997
-0.0113319
-0.0115424
-0.0125317
-0.0140202
-0.0156176
-0.0169226
-0.0175557
-0.0172223
-0.015803
-0.0132895
-0.00987448
-0.00570792
-0.00112566
0.00372696
0.00848146
0.0131502
0.0174155
0.0211772
0.0241421
0.0265452
0.029459
0.0318892
0.0332955
0.0297999
0.018617
-0.000776375
-0.0179013
-0.0245619
-0.0218329
-0.0135542
-0.00553972
0.00324657
0.00871447
0.0174121
0.0209874
0.0229954
0.0251944
0.0128551
0.00204538
-0.00905694
-0.00929359
-0.0816286
-0.0847925
-0.0839526
-0.0804572
-0.0761051
-0.0717501
-0.0674264
-0.0628948
-0.058008
-0.052796
-0.0473899
-0.0419541
-0.0366299
-0.0315528
-0.0268572
-0.0226752
-0.0191299
-0.0163203
-0.0143097
-0.0131051
-0.0126465
-0.0127866
-0.0133425
-0.0140208
-0.0145235
-0.0145657
-0.013911
-0.0124461
-0.0101281
-0.00707837
-0.00338713
0.000689206
0.00504499
0.0093706
0.0136649
0.0176742
0.0212983
0.0243393
0.026937
0.0299555
0.0327311
0.0346882
0.0322198
0.0228244
0.00649444
-0.00818209
-0.0146058
-0.0134364
-0.00746615
-0.00135754
0.0059341
0.0108477
0.0188221
0.0224447
0.0234265
0.0259557
0.0153108
0.00516299
-0.00551056
-0.0070094
-0.0721587
-0.0750956
-0.074637
-0.0718851
-0.0683667
-0.0648311
-0.0613274
-0.0576553
-0.0536793
-0.0494077
-0.0449421
-0.0404101
-0.0359302
-0.0316098
-0.0275533
-0.0238629
-0.0206346
-0.0179461
-0.0158493
-0.0143538
-0.0134189
-0.0129526
-0.0127981
-0.0127695
-0.0126427
-0.0122057
-0.0112724
-0.00974152
-0.00755535
-0.004786
-0.00148191
0.00216517
0.00608119
0.0100153
0.0139546
0.0176984
0.0211536
0.0242132
0.0269763
0.0298812
0.0326417
0.0346225
0.0328689
0.0253407
0.0122229
1.80704e-05
-0.00610739
-0.00621412
-0.00212002
0.00243952
0.00841555
0.0128273
0.0200829
0.0238636
0.02431
0.0271272
0.0183616
0.00877562
-0.00168652
-0.00459411
-0.0635637
-0.0662429
-0.0660739
-0.0639423
-0.0611308
-0.0582915
-0.055483
-0.0525386
-0.0493341
-0.0458638
-0.0422031
-0.0384522
-0.0347062
-0.0310499
-0.0275641
-0.0243273
-0.0214132
-0.0188824
-0.0167775
-0.0151108
-0.0138589
-0.0129553
-0.0122957
-0.0117439
-0.0111414
-0.010332
-0.00917246
-0.00757654
-0.0054844
-0.0029349
5.08242e-05
0.00333227
0.0068595
0.0104344
0.0140362
0.0175069
0.0207602
0.0237508
0.0267233
0.0292507
0.0317756
0.033498
0.032209
0.0263727
0.0162091
0.00633808
0.000710628
-0.000258924
0.00242019
0.00578897
0.0106505
0.0146035
0.0211571
0.0251336
0.0256969
0.028772
0.0218649
0.0125366
0.0020493
-0.00227149
-0.0557214
-0.0581648
-0.0582228
-0.0566023
-0.0543809
-0.0521253
-0.0498991
-0.0475639
-0.045007
-0.0422128
-0.0392356
-0.0361533
-0.0330409
-0.0299646
-0.0269863
-0.0241654
-0.0215586
-0.0192123
-0.0171616
-0.01542
-0.0139767
-0.0127858
-0.0117772
-0.0108554
-0.00990953
-0.00882557
-0.00749603
-0.0058501
-0.00383311
-0.0014625
0.00125685
0.00422404
0.00740688
0.0106516
0.0139325
0.0171236
0.0201411
0.0228979
0.0251437
0.0280573
0.0303343
0.03173
0.0307335
0.0262923
0.0186152
0.0108287
0.00588604
0.00448583
0.00616666
0.00866184
0.0126052
0.016138
0.0220143
0.0261373
0.0273601
0.0306791
0.0254356
0.0159765
0.00532474
-0.000244837
-0.0485947
-0.0508176
-0.0510409
-0.0498324
-0.0480972
-0.0463256
-0.0445821
-0.0427516
-0.040733
-0.038504
-0.0361025
-0.0335881
-0.0310192
-0.0284467
-0.0259175
-0.0234762
-0.0211648
-0.0190197
-0.0170745
-0.0153336
-0.0137969
-0.0124353
-0.0112047
-0.0100387
-0.00886102
-0.00758936
-0.00614552
-0.00447288
-0.00252553
-0.000308158
0.00218281
0.00487666
0.00775248
0.0106927
0.0136724
0.0165858
0.0193653
0.0219354
0.0241916
0.0266261
0.0285549
0.029646
0.0288529
0.0255198
0.0198265
0.0138126
0.009522
0.00816443
0.00917792
0.0110557
0.0142518
0.0174051
0.0226316
0.0267942
0.0288231
0.0322312
0.0284075
0.0186641
0.0079017
0.00136715
-0.04214
-0.0441412
-0.0444751
-0.0435956
-0.0422588
-0.0408854
-0.0395383
-0.0381219
-0.0365466
-0.0347861
-0.0328656
-0.0308301
-0.0287243
-0.026587
-0.024453
-0.0223556
-0.0203261
-0.0183925
-0.0165773
-0.014897
-0.013345
-0.0119067
-0.0105557
-0.00924698
-0.00792982
-0.00654565
-0.00503951
-0.00336721
-0.00149297
0.000585527
0.00287506
0.0053269
0.00792727
0.0105874
0.0132853
0.0159294
0.0184687
0.0208383
0.0229636
0.0250214
0.0266201
0.0274698
0.0268506
0.0243868
0.0202347
0.0157
0.0123121
0.0109767
0.011533
0.0129826
0.0155712
0.0183804
0.0229697
0.0270388
0.029617
0.0327575
0.0300801
0.0203512
0.0097024
0.00252834
-0.0362831
-0.0380725
-0.0384783
-0.0378603
-0.0368472
-0.0357984
-0.0347734
-0.0336935
-0.0324798
-0.0311045
-0.0295829
-0.0279485
-0.0262351
-0.0244717
-0.0226838
-0.0208953
-0.0191312
-0.0174146
-0.0157554
-0.0141681
-0.0126563
-0.0112122
-0.00981956
-0.00844837
-0.00706664
-0.00563324
-0.00411125
-0.00246695
-0.000674518
0.00127175
0.00337814
0.00561182
0.00796343
0.0103653
0.0127989
0.0151849
0.0174873
0.0196385
0.0215781
0.0233322
0.0246599
0.0253382
0.0248867
0.023105
0.0201301
0.0167961
0.0142157
0.0130411
0.0133079
0.014461
0.0165564
0.0190459
0.0229924
0.0267975
0.0294727
0.0319181
0.0301242
0.0209893
0.0107474
0.00325257
-0.0309687
-0.032563
-0.0330113
-0.0325978
-0.0318447
-0.0310575
-0.0302917
-0.0294827
-0.0285614
-0.0275
-0.0263069
-0.0250061
-0.0236232
-0.0221793
-0.0206929
-0.0191811
-0.0176618
-0.0161497
-0.0146595
-0.0131964
-0.0117678
-0.0103701
-0.0089951
-0.00762347
-0.00623632
-0.00480537
-0.00330725
-0.00171689
-1.72454e-05
0.00179834
0.00373403
0.00576765
0.00789203
0.0100553
0.0122426
0.0143846
0.0164573
0.0183872
0.0201272
0.0216352
0.022757
0.0233274
0.0230391
0.0217942
0.0197073
0.0173269
0.0154092
0.0144672
0.0145761
0.0155171
0.0172101
0.0193951
0.0226983
0.0259946
0.0284346
0.0300001
0.0287404
0.0206755
0.0111166
0.00359479
-0.026157
-0.0275689
-0.0280348
-0.0277786
-0.0272322
-0.0266543
-0.0260952
-0.0255021
-0.0248153
-0.0240078
-0.0230832
-0.0220586
-0.0209525
-0.0197804
-0.0185552
-0.0172885
-0.0159933
-0.0146798
-0.0133587
-0.0120355
-0.010717
-0.00940228
-0.00808814
-0.00676245
-0.00541518
-0.00402743
-0.00258574
-0.001072
0.000523712
0.00220739
0.00398063
0.00582826
0.00774349
0.0096864
0.0116453
0.0135595
0.0154125
0.017131
0.0186787
0.0199896
0.0209609
0.021474
0.0213397
0.0205149
0.0190929
0.0174499
0.0160646
0.0153687
0.0154085
0.0161885
0.0175485
0.019431
0.0221047
0.0247822
0.026755
0.027516
0.026422
0.0196107
0.0109483
0.00364754
-0.0218032
-0.0230455
-0.0235109
-0.0233742
-0.0229912
-0.0225793
-0.0221837
-0.0217612
-0.0212608
-0.0206573
-0.0199507
-0.0191531
-0.0182777
-0.0173354
-0.0163349
-0.0152838
-0.0141911
-0.0130643
-0.0119107
-0.0107344
-0.00954175
-0.00833355
-0.00710985
-0.00586312
-0.00458894
-0.00327516
-0.00191521
-0.000496582
0.000985238
0.00253499
0.00415161
0.0058243
0.00754637
0.009286
0.0110338
0.0127378
0.0143861
0.0159105
0.0172834
0.0184367
0.0193004
0.0197886
0.0197906
0.0192945
0.0183696
0.0172818
0.0163183
0.0158465
0.0158699
0.0165199
0.0175985
0.0191711
0.0212522
0.0233
0.0247444
0.0248481
0.0236743
0.0180533
0.0104074
0.00351202
-0.0178664
-0.0189538
-0.019406
-0.0193589
-0.0191038
-0.0188225
-0.0185549
-0.0182662
-0.0179127
-0.0174718
-0.0169412
-0.016329
-0.0156448
-0.0148957
-0.0140875
-0.0132248
-0.0123131
-0.0113582
-0.0103652
-0.00933669
-0.00827759
-0.00718964
-0.0060749
-0.00492902
-0.0037508
-0.00253283
-0.00127307
3.6613e-05
0.00139695
0.002811
0.00427579
0.00578276
0.00732526
0.00887826
0.0104329
0.0119451
0.0134056
0.0147558
0.0159754
0.0170018
0.0177866
0.0182679
0.0183845
0.018142
0.0175845
0.0169098
0.0162747
0.0159887
0.0160196
0.0165583
0.0173957
0.0186541
0.0202047
0.0216557
0.0226086
0.0222283
0.0208737
0.0162473
0.00963739
0.00327162
-0.0143126
-0.0152593
-0.0156896
-0.0157081
-0.0155522
-0.0153728
-0.0152047
-0.0150198
-0.0147815
-0.0144692
-0.0140798
-0.0136183
-0.0130916
-0.0125041
-0.0118594
-0.01116
-0.0104088
-0.00960969
-0.00876696
-0.00788194
-0.00695767
-0.00599596
-0.00500002
-0.00396775
-0.00289976
-0.00179168
-0.000644213
0.000547341
0.00178142
0.00305927
0.00437663
0.00572657
0.00710208
0.00848314
0.00986171
0.0112013
0.012493
0.0136885
0.0147768
0.0156955
0.0164194
0.0169025
0.0171107
0.0170576
0.0167676
0.0163952
0.0160108
0.0158674
0.0159121
0.0163501
0.0169799
0.0179314
0.0190266
0.0199506
0.0204771
0.0197755
0.0182411
0.0143818
0.00874543
0.0029821
-0.0111107
-0.0119303
-0.0123329
-0.0123985
-0.012319
-0.0122187
-0.0121272
-0.0120223
-0.0118733
-0.0116624
-0.0113856
-0.0110461
-0.0106484
-0.0101954
-0.00968878
-0.00912967
-0.00851936
-0.00785987
-0.00715474
-0.0064051
-0.00561219
-0.00477702
-0.00390305
-0.00298992
-0.0020392
-0.00104851
-1.9921e-05
0.00104884
0.00215475
0.00329777
0.00447291
0.00567398
0.00689419
0.00811701
0.00933497
0.0105193
0.0116604
0.0127193
0.0136904
0.0145191
0.0151934
0.0156786
0.0159554
0.01604
0.0159412
0.0157817
0.0155806
0.0155404
0.0155977
0.0159404
0.0163927
0.0170601
0.0177758
0.0182648
0.018427
0.0175309
0.0158773
0.0125868
0.00780958
0.00267593
-0.00823266
-0.00893848
-0.00931048
-0.00940897
-0.00938778
-0.00934818
-0.00931536
-0.00927154
-0.00919149
-0.00905984
-0.00887247
-0.00863114
-0.00833874
-0.00799697
-0.00760635
-0.00716696
-0.0066793
-0.00614354
-0.00556189
-0.0049366
-0.004268
-0.00355558
-0.002802
-0.00200798
-0.00117586
-0.00030457
0.000603348
0.00154859
0.0025275
0.00353901
0.0045779
0.0056385
0.00671409
0.00779158
0.00886328
0.00990677
0.0109141
0.0118524
0.0127146
0.0134675