/*--------------------------------*- C++ -*----------------------------------*\
| =========                 |                                                 |
| \\      /  F ield         | OpenFOAM: The Open Source CFD Toolbox           |
|  \\    /   O peration     | Version:  2512                                  |
|   \\  /    A nd           | Website:  www.openfoam.com                      |
|    \\/     M anipulation  |                                                 |
\*---------------------------------------------------------------------------*/
FoamFile
{
    version     2.0;
    format      ascii;
    arch        "LSB;label=32;scalar=64";
    class       volScalarField;
    location    "84";
    object      p;
}
// * * * * * * * * * * * * * * * * * * * * * * * * * * * * * * * * * * * * * //

dimensions      [0 2 -2 0 0 0 0];

internalField   nonuniform List<scalar> 
13248
(
-0.369713
-0.367769
-0.364813
-0.361115
-0.357041
-0.352977
-0.349262
-0.346166
-0.34386
-0.342406
-0.34175
-0.341723
-0.34206
-0.342428
-0.342459
-0.341787
-0.340092
-0.337127
-0.332724
-0.326836
-0.319315
-0.310364
-0.298802
-0.285566
-0.377722
-0.375126
-0.371603
-0.367428
-0.362933
-0.358478
-0.354358
-0.350771
-0.347805
-0.345436
-0.343531
-0.341865
-0.340158
-0.338107
-0.335429
-0.331888
-0.327321
-0.321641
-0.314821
-0.306873
-0.297797
-0.287629
-0.276094
-0.264092
-0.387885
-0.384353
-0.380097
-0.375351
-0.37037
-0.365457
-0.360825
-0.356567
-0.35267
-0.349026
-0.345452
-0.341729
-0.337635
-0.332978
-0.327619
-0.321482
-0.31455
-0.306846
-0.298409
-0.289288
-0.279479
-0.269067
-0.257863
-0.246515
-0.400164
-0.395454
-0.390312
-0.384891
-0.379315
-0.373793
-0.368421
-0.363172
-0.357934
-0.352555
-0.346875
-0.340756
-0.334106
-0.326888
-0.319111
-0.310821
-0.302077
-0.292936
-0.283445
-0.27363
-0.263505
-0.253124
-0.24239
-0.231914
-0.414468
-0.408391
-0.40224
-0.396034
-0.389706
-0.383332
-0.37687
-0.370181
-0.363108
-0.355532
-0.3474
-0.338723
-0.329569
-0.320035
-0.31023
-0.300247
-0.290157
-0.280002
-0.269802
-0.259563
-0.249281
-0.238976
-0.228595
-0.218522
-0.430652
-0.423087
-0.415841
-0.408733
-0.401433
-0.393848
-0.385812
-0.377132
-0.367699
-0.357528
-0.346739
-0.335513
-0.324047
-0.312518
-0.301058
-0.289753
-0.278643
-0.267736
-0.257023
-0.246483
-0.2361
-0.225865
-0.215749
-0.205997
-0.448482
-0.439374
-0.430977
-0.422817
-0.414227
-0.404942
-0.394734
-0.383471
-0.371212
-0.358184
-0.344699
-0.331073
-0.317567
-0.304363
-0.291567
-0.279219
-0.267318
-0.255837
-0.244736
-0.233978
-0.22353
-0.213361
-0.203457
-0.193915
-0.467564
-0.456926
-0.447333
-0.437902
-0.427586
-0.415994
-0.402967
-0.388584
-0.373173
-0.3572
-0.341131
-0.325341
-0.310082
-0.295489
-0.281608
-0.268425
-0.255897
-0.243964
-0.232569
-0.221655
-0.211175
-0.201089
-0.191381
-0.182035
-0.487289
-0.475204
-0.464349
-0.453339
-0.440748
-0.42619
-0.409754
-0.391869
-0.373179
-0.35435
-0.335921
-0.318247
-0.301513
-0.285777
-0.271016
-0.257165
-0.244145
-0.231871
-0.220265
-0.209259
-0.198791
-0.188815
-0.1793
-0.170149
-0.506803
-0.493406
-0.481184
-0.468185
-0.452709
-0.434576
-0.414311
-0.392771
-0.370888
-0.34944
-0.328946
-0.30968
-0.291728
-0.275062
-0.259598
-0.245227
-0.231837
-0.219323
-0.207591
-0.196558
-0.186151
-0.176319
-0.167002
-0.158066
-0.525021
-0.510473
-0.496713
-0.48124
-0.462286
-0.440114
-0.415822
-0.390697
-0.365868
-0.342119
-0.31988
-0.299303
-0.280369
-0.262973
-0.246974
-0.232226
-0.218593
-0.20595
-0.194188
-0.18321
-0.172935
-0.163296
-0.1542
-0.145522
-0.540727
-0.525223
-0.509724
-0.491269
-0.4683
-0.441757
-0.413392
-0.384867
-0.357395
-0.331682
-0.308012
-0.286404
-0.266732
-0.248817
-0.232471
-0.217514
-0.203788
-0.191152
-0.179481
-0.16867
-0.158631
-0.149281
-0.140499
-0.132212
-0.327804
-0.329214
-0.330086
-0.330713
-0.331402
-0.332288
-0.333443
-0.334907
-0.336699
-0.338827
-0.341301
-0.344129
-0.347318
-0.350871
-0.354779
-0.359017
-0.363537
-0.368262
-0.373082
-0.377852
-0.382386
-0.386468
-0.389877
-0.392455
-0.333167
-0.333875
-0.334344
-0.334756
-0.335337
-0.336226
-0.33751
-0.339242
-0.341456
-0.344177
-0.347431
-0.351248
-0.355656
-0.360675
-0.366312
-0.372549
-0.379337
-0.386581
-0.394136
-0.401794
-0.409292
-0.416287
-0.422341
-0.427196
-0.338402
-0.338395
-0.338426
-0.338573
-0.338979
-0.339784
-0.341091
-0.342965
-0.345454
-0.348596
-0.352431
-0.356999
-0.362342
-0.368492
-0.375459
-0.383228
-0.391741
-0.400877
-0.410455
-0.420211
-0.429796
-0.438762
-0.446496
-0.452578
-0.343117
-0.342447
-0.342037
-0.341868
-0.342013
-0.342617
-0.343799
-0.34564
-0.348202
-0.351533
-0.35568
-0.360691
-0.366609
-0.373467
-0.381276
-0.390008
-0.39959
-0.409881
-0.420661
-0.431615
-0.442324
-0.452252
-0.460726
-0.466771
-0.347053
-0.345838
-0.345012
-0.344481
-0.344271
-0.344537
-0.34542
-0.347022
-0.349419
-0.352673
-0.356834
-0.36195
-0.368062
-0.375194
-0.383345
-0.392475
-0.402489
-0.413221
-0.424416
-0.43572
-0.446643
-0.456559
-0.465033
-0.470021
-0.350103
-0.348513
-0.347319
-0.346393
-0.34574
-0.345533
-0.345939
-0.347092
-0.349088
-0.352002
-0.355892
-0.360803
-0.366768
-0.373799
-0.381877
-0.390941
-0.400871
-0.411468
-0.422423
-0.433344
-0.44378
-0.452823
-0.460624
-0.463698
-0.35233
-0.350553
-0.34906
-0.347723
-0.346557
-0.345762
-0.345545
-0.346071
-0.347466
-0.349826
-0.353217
-0.357685
-0.363253
-0.369915
-0.377633
-0.38631
-0.395786
-0.405823
-0.416099
-0.426104
-0.435425
-0.442842
-0.449211
-0.449697
-0.353965
-0.352178
-0.350453
-0.348702
-0.346982
-0.345533
-0.344599
-0.344387
-0.345058
-0.346732
-0.349489
-0.353376
-0.358405
-0.364545
-0.371724
-0.37981
-0.38859
-0.397749
-0.406894
-0.415439
-0.423027
-0.428203
-0.432291
-0.429879
-0.355393
-0.353718
-0.351811
-0.349653
-0.347375
-0.345258
-0.343589
-0.342615
-0.342536
-0.343495
-0.345587
-0.34885
-0.35328
-0.35882
-0.365334
-0.372618
-0.38038
-0.388234
-0.395727
-0.402233
-0.407425
-0.40993
-0.411039
-0.405799
-0.357126
-0.355597
-0.35352
-0.350968
-0.348159
-0.345417
-0.343068
-0.341397
-0.34063
-0.340929
-0.342389
-0.345039
-0.348826
-0.353628
-0.359235
-0.365354
-0.371609
-0.377555
-0.38272
-0.386572
-0.388836
-0.388583
-0.386738
-0.379279
-0.359742
-0.358281
-0.356
-0.353063
-0.34977
-0.346485
-0.34356
-0.341302
-0.339949
-0.339663
-0.340515
-0.342489
-0.345471
-0.349255
-0.353541
-0.357954
-0.36206
-0.365407
-0.367564
-0.368198
-0.367152
-0.364207
-0.360083
-0.351843
-0.3638
-0.362221
-0.359653
-0.356329
-0.352603
-0.348864
-0.345476
-0.342741
-0.340886
-0.340038
-0.340222
-0.341349
-0.343227
-0.345566
-0.348
-0.350116
-0.35149
-0.351736
-0.350522
-0.347689
-0.343092
-0.337055
-0.329995
-0.321756
-0.394511
-0.393305
-0.388029
-0.377898
-0.362533
-0.34211
-0.317516
-0.290392
-0.263108
-0.236801
-0.217176
-0.204441
-0.200212
-0.204139
-0.213721
-0.224098
-0.229325
-0.225695
-0.209831
-0.183405
-0.152617
-0.124333
-0.103204
-0.0908546
-0.0865944
-0.0894309
-0.100194
-0.119984
-0.144773
-0.1638
-0.165846
-0.149816
-0.123627
-0.0972723
-0.0773075
-0.0654146
-0.0600917
-0.0609293
-0.0699451
-0.0846738
-0.0951215
-0.0928097
-0.0801026
-0.0657234
-0.0553393
-0.0489898
-0.0484456
-0.0543945
-0.0606511
-0.06131
-0.0537715
-0.0458102
-0.0381333
-0.0316089
-0.0288212
-0.0266682
-0.0234065
-0.0224053
-0.0162937
-0.00337242
-0.432549
-0.432046
-0.426843
-0.415482
-0.397501
-0.373055
-0.343135
-0.309557
-0.274789
-0.24139
-0.212825
-0.191175
-0.178131
-0.174251
-0.177948
-0.185206
-0.190522
-0.18851
-0.177668
-0.157583
-0.133544
-0.111495
-0.0957345
-0.0878559
-0.0873036
-0.0935981
-0.108204
-0.132062
-0.160175
-0.180498
-0.181064
-0.161767
-0.131816
-0.102068
-0.0791292
-0.0646132
-0.0569949
-0.0554031
-0.0616071
-0.0738111
-0.0831603
-0.0817406
-0.0716393
-0.0604222
-0.0529958
-0.0491669
-0.0510916
-0.0597
-0.0676676
-0.0685983
-0.0590995
-0.0488726
-0.0391755
-0.0306331
-0.0263624
-0.0224765
-0.0192993
-0.0183916
-0.01344
-0.00282593
-0.459746
-0.46031
-0.454512
-0.44193
-0.421691
-0.393834
-0.359439
-0.320487
-0.279599
-0.23967
-0.203897
-0.174753
-0.154056
-0.142683
-0.140131
-0.143603
-0.148436
-0.149928
-0.142479
-0.128679
-0.111536
-0.0959657
-0.0858053
-0.0825027
-0.0856482
-0.0953544
-0.113587
-0.141073
-0.172053
-0.193575
-0.193221
-0.171285
-0.138204
-0.105606
-0.0801513
-0.0633313
-0.0536351
-0.0498055
-0.0532985
-0.0629687
-0.0711788
-0.0705391
-0.0629551
-0.0547768
-0.0502448
-0.0489783
-0.0534648
-0.0648023
-0.0745203
-0.0757264
-0.0642291
-0.0516671
-0.0400187
-0.0296097
-0.0240102
-0.0184433
-0.0152538
-0.0143653
-0.0105857
-0.0022869
-0.475129
-0.476406
-0.470096
-0.45651
-0.434682
-0.404442
-0.366846
-0.323901
-0.278405
-0.233489
-0.192236
-0.157162
-0.130143
-0.112223
-0.103481
-0.102388
-0.10544
-0.108095
-0.105415
-0.0978708
-0.0874081
-0.0781745
-0.0734764
-0.074505
-0.0810582
-0.0938405
-0.115262
-0.145944
-0.17951
-0.202389
-0.201769
-0.178062
-0.14264
-0.107833
-0.080411
-0.061693
-0.0501896
-0.0443719
-0.0453571
-0.0525578
-0.0595652
-0.0595563
-0.0542603
-0.0488978
-0.0471201
-0.0483724
-0.055421
-0.0694975
-0.0810091
-0.082538
-0.0690744
-0.054158
-0.0406457
-0.0285358
-0.0217741
-0.0145934
-0.0113069
-0.010364
-0.00775374
-0.00176099
-0.478434
-0.479738
-0.473367
-0.459488
-0.436971
-0.405595
-0.366452
-0.321531
-0.273559
-0.225649
-0.180783
-0.141402
-0.109337
-0.0857708
-0.0711682
-0.0649365
-0.0649305
-0.0676682
-0.0687929
-0.066331
-0.0618943
-0.058476
-0.0587111
-0.0635456
-0.0730694
-0.0885177
-0.112696
-0.146181
-0.182136
-0.206524
-0.206361
-0.181938
-0.145124
-0.108838
-0.080009
-0.0598204
-0.0468144
-0.0392962
-0.0380268
-0.0428826
-0.0486741
-0.0495399
-0.0457554
-0.0428915
-0.0436412
-0.0472844
-0.0568186
-0.0735934
-0.0869136
-0.0888451
-0.0735451
-0.0563178
-0.0410499
-0.0274097
-0.0196575
-0.0109476
-0.00749199
-0.00642344
-0.00496529
-0.00125377
-0.470648
-0.470837
-0.464837
-0.451688
-0.429555
-0.398469
-0.359684
-0.315006
-0.266912
-0.21831
-0.171963
-0.130117
-0.0944597
-0.0662157
-0.0461548
-0.0344235
-0.0300654
-0.0308956
-0.0335224
-0.0350208
-0.0356515
-0.0371992
-0.0415545
-0.0495916
-0.0616542
-0.0794044
-0.105921
-0.14177
-0.17987
-0.205869
-0.206938
-0.18287
-0.145681
-0.108719
-0.0790448
-0.057807
-0.0436087
-0.0346815
-0.0314696
-0.0341645
-0.038723
-0.0396997
-0.0375933
-0.0368591
-0.0398335
-0.0456726
-0.0575391
-0.07691
-0.0920133
-0.0944694
-0.0775566
-0.0581266
-0.0412277
-0.0262274
-0.0176549
-0.00752261
-0.00383573
-0.00257668
-0.00223788
-0.000770515
-0.453537
-0.451701
-0.446386
-0.434695
-0.4139
-0.384481
-0.347843
-0.305462
-0.259449
-0.212374
-0.166659
-0.124279
-0.0867255
-0.0551394
-0.0304184
-0.0132092
-0.0035524
-0.0005476
-0.00207021
-0.00537857
-0.0094906
-0.0147352
-0.0223352
-0.0329911
-0.0472051
-0.0669332
-0.0953864
-0.133106
-0.173013
-0.200793
-0.203633
-0.180886
-0.144384
-0.107581
-0.0776085
-0.0557162
-0.0406279
-0.0305724
-0.0257341
-0.0265034
-0.0298871
-0.0308279
-0.0299703
-0.030915
-0.0357516
-0.04352
-0.0574953
-0.0792889
-0.0961219
-0.0992402
-0.0810236
-0.0595669
-0.0411795
-0.0249881
-0.0157527
-0.00432603
-0.000357641
0.00114658
0.000415148
-0.000316535
-0.429444
-0.424884
-0.42044
-0.410618
-0.391905
-0.365375
-0.332379
-0.293909
-0.251673
-0.20786
-0.164516
-0.123301
-0.0855004
-0.0521343
-0.0240823
-0.00216675
0.0129561
0.0210963
0.0230409
0.0206304
0.0153958
0.0080766
-0.0017632
-0.0144445
-0.0304711
-0.0519038
-0.0819147
-0.120987
-0.162313
-0.191855
-0.19682
-0.176178
-0.141341
-0.105498
-0.0757587
-0.0535804
-0.037896
-0.0269792
-0.0208237
-0.0199187
-0.0222251
-0.0230401
-0.0230299
-0.0251837
-0.0314669
-0.0408454
-0.0566391
-0.0806168
-0.0991063
-0.103024
-0.0838794
-0.0606317
-0.0409159
-0.0237017
-0.0139508
-0.00136036
0.00293182
0.00472024
0.00298403
0.00010285
-0.40054
-0.393446
-0.390171
-0.382211
-0.365988
-0.343228
-0.314854
-0.281279
-0.243827
-0.204309
-0.164417
-0.125549
-0.0888144
-0.0551336
-0.0253123
-0.000147322
0.0195436
0.0329845
0.039841
0.0407752
0.0370752
0.0296765
0.0189062
0.00494614
-0.0124971
-0.0353571
-0.0665973
-0.106573
-0.148789
-0.179799
-0.187022
-0.169118
-0.1368
-0.102672
-0.073676
-0.0515425
-0.035522
-0.023972
-0.016766
-0.0144183
-0.0157383
-0.0163606
-0.0168532
-0.0197834
-0.0270702
-0.0376615
-0.0549406
-0.0808643
-0.10088
-0.105734
-0.0860938
-0.061353
-0.040481
-0.0223922
-0.0122752
0.00134772
0.00602889
0.00812294
0.00546278
0.000482214
-0.369698
-0.361483
-0.359499
-0.352832
-0.339143
-0.320535
-0.297091
-0.268694
-0.236344
-0.201455
-0.1654
-0.129396
-0.0944839
-0.0615152
-0.0312277
-0.00440759
0.018258
0.0359377
0.0477474
0.0533083
0.0532749
0.0479216
0.0378345
0.0235643
0.00526567
-0.0185746
-0.0504951
-0.0907091
-0.133222
-0.165385
-0.174838
-0.160286
-0.1313
-0.0996066
-0.0718207
-0.0499687
-0.0337684
-0.0217282
-0.0136353
-0.00999548
-0.0104007
-0.0108074
-0.0114779
-0.0147933
-0.022624
-0.0340793
-0.0524694
-0.0799841
-0.101395
-0.107285
-0.0876372
-0.061793
-0.0399401
-0.0210829
-0.0107176
0.00374308
0.00891655
0.0113342
0.00784792
0.000814765
-0.340613
-0.333534
-0.332245
-0.32593
-0.314636
-0.300091
-0.281389
-0.258075
-0.230807
-0.200574
-0.168438
-0.135482
-0.102751
-0.0709397
-0.0407514
-0.0129791
0.0116096
0.0322288
0.0480372
0.0586812
0.0627705
0.0607838
0.0532019
0.0400094
0.0217148
-0.00253316
-0.0347263
-0.0749457
-0.117104
-0.149235
-0.160824
-0.149669
-0.124714
-0.0961492
-0.0700372
-0.0486795
-0.0324137
-0.0200426
-0.0112297
-0.00639499
-0.00593333
-0.00624578
-0.00672492
-0.0104277
-0.0182226
-0.0299958
-0.049145
-0.0781624
-0.100731
-0.107593
-0.0883131
-0.0618485
-0.0392058
-0.0197128
-0.00914416
0.00589067
0.0115686
0.0143119
0.0101452
0.00109456
-0.314684
-0.311482
-0.308921
-0.301351
-0.291504
-0.27991
-0.265048
-0.246284
-0.223862
-0.198336
-0.170427
-0.14096
-0.110825
-0.0808467
-0.051801
-0.0244551
0.000489571
0.022393
0.0406098
0.054966
0.0639306
0.0665602
0.0623678
0.0517015
0.0348157
0.0115164
-0.0195436
-0.0581896
-0.0987857
-0.13012
-0.142398
-0.135069
-0.114597
-0.0895655
-0.0656996
-0.0454629
-0.0296621
-0.017485
-0.00849138
-0.00287035
-0.00167404
-0.00197312
-0.00290588
-0.00660844
-0.014142
-0.0259432
-0.0452861
-0.0751279
-0.0986917
-0.106647
-0.0877414
-0.0610322
-0.0378498
-0.0180415
-0.00736898
0.00812481
0.0141141
0.0170908
0.0123318
0.00130963
-0.28938
-0.298053
-0.292984
-0.282973
-0.272378
-0.2609
-0.246908
-0.229515
-0.208763
-0.185166
-0.159398
-0.132176
-0.104241
-0.0763072
-0.0490523
-0.0231384
0.000836585
0.0223436
0.0408673
0.0560835
0.0657411
0.0704567
0.0691304
0.0607444
0.045171
0.0224379
-0.00869749
-0.0483063
-0.0899077
-0.120974
-0.132425
-0.123791
-0.104018
-0.0807072
-0.0587505
-0.040072
-0.0253184
-0.0137795
-0.00509596
0.000673225
0.00231429
0.00236648
0.00163061
-0.00131402
-0.00830598
-0.0200182
-0.0399625
-0.0716974
-0.0973841
-0.107025
-0.0872172
-0.0595155
-0.0359109
-0.0161146
-0.00558269
0.0104653
0.0166382
0.0198705
0.0144069
0.00144378
-0.262903
-0.275041
-0.27082
-0.259924
-0.248696
-0.237542
-0.22471
-0.208992
-0.190282
-0.169073
-0.14598
-0.121581
-0.0964465
-0.071161
-0.0463125
-0.0224876
-0.000244985
0.0199459
0.0376475
0.0518018
0.0624363
0.0682381
0.0682628
0.0613664
0.0472169
0.0257527
-0.00415831
-0.0420781
-0.080829
-0.108246
-0.116886
-0.108599
-0.0910854
-0.0707881
-0.0515603
-0.0348429
-0.0213318
-0.0106041
-0.00233016
0.00349048
0.00541549
0.00556425
0.0046835
0.00212048
-0.00412355
-0.0153438
-0.0354029
-0.0682229
-0.0949403
-0.104921
-0.0852014
-0.0571376
-0.0336235
-0.0140358
-0.00369932
0.0124997
0.0186428
0.0222806
0.0161218
0.00155981
-0.238518
-0.250971
-0.248036
-0.23774
-0.226734
-0.21619
-0.204594
-0.190612
-0.173971
-0.155074
-0.134464
-0.112623
-0.0900157
-0.0671327
-0.044498
-0.0226485
-0.00209862
0.0167031
0.0333178
0.046926
0.0571476
0.0629701
0.0633938
0.0572709
0.0442079
0.024176
-0.00340276
-0.0371565
-0.07018
-0.0928992
-0.0999179
-0.0930751
-0.0785556
-0.0614011
-0.0447538
-0.029873
-0.0175234
-0.00753891
0.000286672
0.00604114
0.00820043
0.00848891
0.00760606
0.00522949
-0.000755011
-0.0118124
-0.0319155
-0.0646496
-0.0910288
-0.101305
-0.0821893
-0.054242
-0.0310575
-0.0118194
-0.00173604
0.0144239
0.0205407
0.0244892
0.0176279
0.00168998
-0.216358
-0.227795
-0.225946
-0.216876
-0.206597
-0.196727
-0.186199
-0.173747
-0.158974
-0.142165
-0.123799
-0.104302
-0.0840606
-0.0634823
-0.0430171
-0.0231387
-0.00431676
0.0130195
0.0284085
0.0411507
0.0507298
0.0563522
0.0570605
0.0517759
0.0400994
0.0221338
-0.00204026
-0.0306194
-0.0580065
-0.0768194
-0.0829509
-0.0779576
-0.0664034
-0.0522204
-0.0380441
-0.0249844
-0.013813
-0.00457802
0.0027482
0.00835433
0.0107204
0.0112777
0.0105265
0.00840026
0.00263065
-0.00838142
-0.0282405
-0.0601416
-0.085941
-0.0965419
-0.0781408
-0.0507763
-0.0281875
-0.00946894
0.000318287
0.016222
0.0223426
0.0265045
0.019001
0.00183374
-0.195306
-0.205913
-0.204921
-0.197109
-0.187763
-0.178662
-0.169136
-0.158083
-0.145045
-0.130189
-0.113919
-0.0966122
-0.0785956
-0.0602066
-0.0418258
-0.0238719
-0.00677921
0.00903284
0.0231144
0.0348744
0.0437746
0.049149
0.050166
0.0459164
0.0360437
0.0207426
0.000448254
-0.0231185
-0.0455523
-0.0611604
-0.0668544
-0.0637132
-0.0549587
-0.0435366
-0.0316411
-0.0202994
-0.0102755
-0.00176327
0.00505186
0.0104488
0.0129764
0.0138781
0.0133596
0.0115966
0.00625266
-0.00446458
-0.0236619
-0.0545723
-0.0797476
-0.0904406
-0.0729842
-0.0467143
-0.0250372
-0.00700759
0.00243877
0.0178743
0.0239898
0.0282954
0.0202432
0.00198404
-0.175719
-0.185571
-0.185137
-0.178435
-0.170101
-0.161876
-0.15335
-0.143602
-0.132166
-0.119122
-0.104795
-0.0895165
-0.0735687
-0.0572348
-0.0408379
-0.0247468
-0.00935515
0.00494025
0.0177088
0.0284716
0.036693
0.0418077
0.0431425
0.0399891
0.0320454
0.0195194
0.00299539
-0.015987
-0.0340477
-0.0469832
-0.0524206
-0.0508917
-0.0445412
-0.0355108
-0.0256263
-0.0158581
-0.00693902
0.000876705
0.0071933
0.0123359
0.0149724
0.0162529
0.0161035
0.0148031
0.0101219
9.94765e-06
-0.0182785
-0.0480832
-0.0723663
-0.0830149
-0.0667239
-0.0420676
-0.0216395
-0.00446539
0.00459727
0.0193615
0.0254408
0.0298107
0.021304
0.0021396
-0.157848
-0.166703
-0.166618
-0.16092
-0.153612
-0.14631
-0.138772
-0.130235
-0.120265
-0.108881
-0.0963421
-0.0829328
-0.0689005
-0.0544858
-0.0399629
-0.0256507
-0.0118978
0.000929911
0.0124381
0.0221988
0.0297471
0.0345978
0.0362205
0.034084
0.0279558
0.0180403
0.00495977
-0.0099842
-0.0243
-0.034983
-0.0401028
-0.0397477
-0.035282
-0.028231
-0.0200761
-0.0117131
-0.00383639
0.00331037
0.0091634
0.0140275
0.0167301
0.0183912
0.0187479
0.0179943
0.0141848
0.00487854
-0.0123309
-0.0407226
-0.063827
-0.0729281
-0.0594052
-0.0368798
-0.0180391
-0.00188009
0.00676031
0.0206694
0.0266609
0.0309957
0.022127
0.00230857
-0.141262
-0.149187
-0.149405
-0.144623
-0.138293
-0.131898
-0.125307
-0.11789
-0.109253
-0.0993825
-0.0884807
-0.0767892
-0.0645232
-0.0518882
-0.0391159
-0.0264798
-0.0142851
-0.00286035
0.00743768
0.0162332
0.0231279
0.0277141
0.0295778
0.0283322
0.0238185
0.01623
0.00613288
-0.00542132
-0.0166063
-0.0253165
-0.0299376
-0.0302979
-0.0272158
-0.0217434
-0.0150409
-0.00790341
-0.000988512
0.00551458
0.0109487
0.0155361
0.0182741
0.0202847
0.0212499
0.0211381
0.0183734
0.0100391
-0.0058856
-0.0325842
-0.0544116
-0.0631225
-0.0512524
-0.03124
-0.0142919
0.00070619
0.00889129
0.0217929
0.0276213
0.0318032
0.0226748
0.00250869
-0.125942
-0.133071
-0.133528
-0.129543
-0.124106
-0.118568
-0.112867
-0.106479
-0.0990532
-0.0905559
-0.0811447
-0.0710227
-0.0603747
-0.0493766
-0.0382239
-0.0271493
-0.016418
-0.00631919
0.0028346
0.0107176
0.016991
0.0213175
0.0233766
0.02289
0.0197566
0.0141445
0.00652865
-0.00223929
-0.0107841
-0.0177558
-0.0217362
-0.0224373
-0.0203093
-0.0160529
-0.0105464
-0.00445893
0.00158959
0.00747515
0.0125278
0.0168664
0.0196249
0.0219297
0.023534
0.0242694
0.0226537
0.0154901
0.000983974
-0.0239084
-0.0443672
-0.0525411
-0.0424932
-0.0252824
-0.010463
0.00325134
0.0109532
0.0227406
0.0283095
0.0322041
0.0229392
0.00276807
-0.111931
-0.118304
-0.118915
-0.11562
-0.110996
-0.106251
-0.101374
-0.0959265
-0.0895967
-0.0823385
-0.0742754
-0.0655769
-0.0564008
-0.0468966
-0.0372294
-0.0275945
-0.0182179
-0.00935357
-0.00126876
0.00576183
0.0114528
0.0155253
0.017731
0.0178688
0.015878
0.0118969
0.00631487
-0.000184559
-0.00647685
-0.0119766
-0.015235
-0.0160006
-0.0144864
-0.0111377
-0.00659827
-0.00139917
0.0038873
0.0091884
0.0138805
0.0180057
0.0207879
0.0233327
0.0255153
0.0273225
0.026941
0.021134
0.00801365
-0.015086
-0.0340383
-0.041578
-0.0334438
-0.0191835
-0.00662412
0.00571762
0.0129134
0.023539
0.0287413
0.0321989
0.0229471
0.00312725
-0.0991655
-0.104793
-0.105489
-0.102796
-0.0989107
-0.0948946
-0.0907689
-0.0861697
-0.0808229
-0.0746749
-0.0678218
-0.0604046
-0.0525571
-0.0444053
-0.036087
-0.0277662
-0.0196332
-0.0119016
-0.0047984
0.00144315
0.00658709
0.0104071
0.0127087
0.0133458
0.012283
0.00963273
0.00570009
0.000980327
-0.00389544
-0.00769826
-0.0101631
-0.0108039
-0.00965009
-0.00695881
-0.00318646
0.00126837
0.00589673
0.0106567
0.0149984
0.0189299
0.0217456
0.0244901
0.0271259
0.0298203
0.0308751
0.0265101
0.0146886
-0.00657028
-0.023805
-0.0306875
-0.0244721
-0.013152
-0.00285183
0.00807414
0.0147478
0.0242345
0.0289712
0.031831
0.0227746
0.00363923
-0.0874584
-0.0924382
-0.0932174
-0.0910509
-0.0878113
-0.0844433
-0.0809911
-0.0771496
-0.0726768
-0.067516
-0.0617404
-0.0554671
-0.0488087
-0.0418708
-0.0347666
-0.0276319
-0.0206254
-0.0139245
-0.00771794
-0.00220179
0.00243198
0.00599993
0.00835018
0.00937478
0.00905368
0.00747514
0.00487512
0.00162931
-0.00174856
-0.00448884
-0.0062458
-0.00666388
-0.00569345
-0.00346401
-0.000289056
0.00354822
0.00761384
0.0118826
0.0158845
0.0196213
0.0224681
0.0253663
0.0283453
0.0316556
0.0338528
0.0307999
0.0203532
0.00126609
-0.0140199
-0.0203466
-0.0159763
-0.0074117
0.000773441
0.0102948
0.0164407
0.0248888
0.0290966
0.0312036
0.0225586
0.00436032
-0.0768116
-0.0812231
-0.0820558
-0.0803186
-0.0776406
-0.0748429
-0.0719858
-0.068813
-0.0651104
-0.0608193
-0.0559954
-0.0507346
-0.0451309
-0.0392718
-0.0332505
-0.0271769
-0.0211818
-0.01541
-0.0100169
-0.00516184
-0.00100219
0.00231437
0.00466935
0.00598118
0.00623595
0.00550137
0.00396293
0.00190877
-0.00028924
-0.00212399
-0.00325709
-0.00341196
-0.00250733
-0.000592548
0.00212469
0.00545426
0.0090409
0.0128681
0.0165452
0.0200746
0.0229306
0.0259146
0.0290746
0.0326352
0.0354005
0.0333569
0.0245057
0.00809485
-0.0051089
-0.0110192
-0.0083308
-0.00216845
0.00416924
0.012352
0.0179775
0.0255541
0.0292442
0.030486
0.0224854
0.00532842
-0.0671776
-0.07105
-0.071897
-0.0705457
-0.0683433
-0.0660423
-0.0637034
-0.0611129
-0.058081
-0.054549
-0.0505579
-0.0461856
-0.0415093
-0.0366008
-0.0315358
-0.0264032
-0.0213075
-0.0163668
-0.0117033
-0.00744905
-0.00372935
-0.000663538
0.00165459
0.00316236
0.00385068
0.00376825
0.0030557
0.00193754
0.000663232
-0.00041582
-0.00101024
-0.000896431
1.47673e-05
0.00172141
0.00409233
0.0070072
0.0101868
0.0136187
0.0169866
0.0202951
0.0231215
0.026105
0.0292461
0.0327086
0.0354674
0.0341239
0.0269893
0.0135456
0.00242675
-0.00311813
-0.00180015
0.00243398
0.00725932
0.0142118
0.0193383
0.0262385
0.0295366
0.0299023
0.0227399
0.0065263
-0.0584406
-0.0618251
-0.0626692
-0.061639
-0.0598736
-0.0579962
-0.0560981
-0.0540049
-0.0515506
-0.0486756
-0.0454065
-0.0418057
-0.0379375
-0.0338603
-0.0296334
-0.0253268
-0.0210242
-0.0168196
-0.0128074
-0.00909565
-0.00578466
-0.00296935
-0.000723762
0.000901334
0.00189842
0.00230591
0.0022264
0.00180576
0.00125038
0.000789068
0.00065222
0.0010172
0.00197384
0.00354589
0.00565602
0.00823312
0.0110664
0.0141445
0.0172181
0.0202933
0.0230378
0.0259299
0.0289146
0.0320146
0.0344135
0.0335035
0.0279565
0.017376
0.00824723
0.00292891
0.00352553
0.00633467
0.00998297
0.0158407
0.0204938
0.0268756
0.0300287
0.0296981
0.0234366
0.00783143
-0.0505261
-0.0534852
-0.054314
-0.0535494
-0.0521489
-0.0506533
-0.0491343
-0.0474565
-0.0454895
-0.0431742
-0.0405247
-0.0375892
-0.0344183
-0.0310591
-0.0275596
-0.0239738
-0.020367
-0.0168138
-0.0133743
-0.0101498
-0.00721701
-0.0046513
-0.00250977
-0.000833161
0.000369583
0.001126
0.00151031
0.0016175
0.0015999
0.00162444
0.00186086
0.00244588
0.00346328
0.00494845
0.00686076
0.00916172
0.0116988
0.0144608
0.0172528
0.020084
0.022693
0.0254105
0.0281299
0.0307637
0.0326794
0.032014
0.0277899
0.0197017
0.0124332
0.00782635
0.00774845
0.00953997
0.0122962
0.0172126
0.021408
0.0273028
0.03061
0.0300492
0.024532
0.00900746
-0.0433874
-0.0459655
-0.046764
-0.0462152
-0.0451204
-0.0439431
-0.0427551
-0.0414426
-0.039884
-0.0380339
-0.0359041
-0.0335346
-0.0309588
-0.028214
-0.0253389
-0.0223782
-0.0193907
-0.0163724
-0.0134488
-0.0106662
-0.00808652
-0.00576814
-0.00375667
-0.00208392
-0.000761029
0.000228353
0.000932977
0.00142392
0.00180645
0.00219889
0.00272588
0.00349117
0.00456793
0.00599409
0.00775257
0.00982587
0.0121071
0.014585
0.0171089
0.0196904
0.0221187
0.0245974
0.0269928
0.0291658
0.0306193
0.0300977
0.0269299
0.0208862
0.0152585
0.0114206
0.0109715
0.0120881
0.0141785
0.0182939
0.0220551
0.0273413
0.0310004
0.0307288
0.0256403
0.00978857
-0.0369552
-0.0391914
-0.0399499
-0.0395764
-0.0387373
-0.0378269
-0.0369128
-0.0359017
-0.0346923
-0.0332403
-0.0315514
-0.0296506
-0.0275736
-0.0253479
-0.0229989
-0.0205548
-0.0180426
-0.0155557
-0.0130941
-0.0107123
-0.00846072
-0.00638561
-0.00452404
-0.00290101
-0.00152976
-0.000401913
0.000515215
0.00127018
0.00193657
0.00259529
0.00333742
0.00423988
0.0053636
0.00674375
0.00837761
0.0102595
0.0123167
0.0145391
0.0168104
0.0191382
0.021352
0.0235645
0.0256267
0.0273958
0.0284729
0.0280587
0.0257174
0.0212895
0.0170301
0.0139528
0.0133438
0.0140327
0.0156319
0.0190412
0.0223984
0.0269286
0.0308089
0.0309607
0.0260238
0.0100073
-0.0311597
-0.033096
-0.033811
-0.0335785
-0.0329509
-0.0322619
-0.0315737
-0.0308109
-0.029888
-0.0287643
-0.0274407
-0.0259385
-0.0242823
-0.0224932
-0.0205911
-0.0185995
-0.0165465
-0.0144691
-0.0123971
-0.0103668
-0.00841355
-0.00657255
-0.00487958
-0.00333899
-0.00197411
-0.000779679
0.000263645
0.00118613
0.00203932
0.00287827
0.00376838
0.004765
0.00591696
0.00725371
0.00878065
0.0104976
0.0123561
0.014347
0.0163816
0.0184607
0.0204445
0.0223884
0.0241395
0.0255786
0.0263803
0.0260685
0.024362
0.0211803
0.0180239
0.0156414
0.0150066
0.0154263
0.016668
0.0194289
0.0223765
0.0260492
0.029561
0.0300392
0.0250955
0.00966057
-0.025948
-0.0276215
-0.0282895
-0.0281682
-0.0277135
-0.0272063
-0.0267029
-0.0261427
-0.0254538
-0.0245997
-0.0235787
-0.0224064
-0.0211011
-0.0196785
-0.0181536
-0.0165432
-0.0148676
-0.013151
-0.0114189
-0.00969757
-0.00801292
-0.00639562
-0.00485603
-0.00343675
-0.00212395
-0.00092347
0.000173752
0.00118638
0.00214868
0.00309673
0.00407668
0.00512707
0.00628556
0.00757509
0.00900424
0.0105747
0.0122549
0.0140363
0.0158501
0.0176924
0.0194477
0.0211373
0.0226149
0.0237964
0.0244124
0.0242036
0.0229831
0.0207495
0.0184532
0.0166602
0.0160772
0.0163244
0.0173018
0.0194547
0.0219526
0.0247566
0.0275608
0.0278607
0.0229084
0.00886681
-0.0212692
-0.022711
-0.0233296
-0.0232946
-0.02298
-0.0226208
-0.0222669
-0.0218702
-0.0213705
-0.0207355
-0.0199617
-0.0190603
-0.0180447
-0.0169266
-0.0157163
-0.0144253
-0.0130679
-0.0116612
-0.0102238
-0.00877538
-0.00733535
-0.00592423
-0.00456294
-0.00326182
-0.00202706
-0.00086382
0.000234156
0.00127715
0.00228709
0.00328657
0.00430746
0.00537545
0.00651845
0.00775316
0.00908815
0.0105251
0.0120433
0.0136348
0.0152448
0.0168671
0.0184065
0.0198659
0.021114
0.0220994
0.0225984
0.0224905
0.0216426
0.0201148
0.0184726
0.0171577
0.0166633
0.0167909
0.017555
0.0191468
0.021154
0.023159
0.0250562
0.0248916
0.0199993
0.00779821
-0.0170722
-0.0183113
-0.0188804
-0.0189113
-0.018709
-0.0184688
-0.0182348
-0.0179685
-0.01762
-0.0171612
-0.0165876
-0.0159066
-0.0151284
-0.014261
-0.0133112
-0.0122868
-0.0111972
-0.0100544
-0.0088717
-0.00766382
-0.00644608
-0.00523134
-0.00403347
-0.00286278
-0.00172686
-0.000630572
0.000429281
0.00145753
0.00246772
0.00347314
0.004495
0.00554957
0.00665665
0.00782728
0.00906843
0.0103812
0.0117504
0.0131691
0.0145941
0.0160174
0.017359
0.0186142
0.0196782
0.0205149
0.0209438
0.0209296
0.0203656
0.0193494
0.0181993
0.0172566
0.0168553
0.0168916
0.0174611
0.0185577
0.0200622
0.0213732
0.022341
0.0216448
0.0169257
0.00663084
-0.0133128
-0.0143752
-0.0148957
-0.0149758
-0.0148625
-0.0147171
-0.0145778
-0.0144144
-0.0141855
-0.013867
-0.0134538
-0.0129509
-0.0123654
-0.011703
-0.0109678
-0.0101645
-0.0092992
-0.00837996
-0.00741595
-0.00641789
-0.00539658
-0.00436243
-0.00332291
-0.00228726
-0.00126229
-0.000253197
0.000740893
0.00172151
0.00269658
0.00367306
0.00466443
0.00568016
0.00673352
0.00783092
0.00897712
0.0101722
0.0114038
0.012666
0.0139241
0.0151707
0.0163382
0.0174178
0.018333
0.0190556
0.0194435
0.0195078
0.0191578
0.0185061
0.0177193
0.0170506
0.0167274
0.0166817
0.017075
0.017752
0.0187173
0.0193651
0.0196362
0.018483
0.0140497
0.00550331
-0.00995188
-0.0108604
-0.0113338
-0.0114492
-0.0114056
-0.0113348
-0.0112696
-0.0111863
-0.011051
-0.0108432
-0.0105576
-0.0101973
-0.0097672
-0.00927112
-0.00871146
-0.00809078
-0.00741249
-0.00668175
-0.00590467
-0.00508879
-0.00424206
-0.00337083
-0.00248079
-0.0015788
-0.000670479
0.000239068
0.0011492
0.00205944
0.00297412
0.00389605
0.00483322
0.00579034
0.00677551
0.00779192
0.00884171
0.00992373
0.0110279
0.0121486
0.0132573
0.014349
0.0153686
0.0163183
0.017094
0.0177234
0.0180851
0.0182088
0.0180178
0.0176194
0.0170914
0.0166177
0.016351
0.016252
0.0164657
0.0168035
0.0173172
0.0174743
0.0171179
0.0156176
0.0115412
0.00449751
-0.00695335
-0.0077281
-0.00815664
-0.00829678
-0.00830704
-0.00829428
-0.00828625
-0.0082645
-0.00820158
-0.00808016
-0.00789508
-0.00764813
-0.00734257
-0.00698075
-0.00656384
-0.00609294
-0.00556975
-0.00499716
-0.00437901
-0.00372022
-0.00302602
-0.00230126
-0.00154999
-0.000776964
1.38427e-05
0.000817862
0.00163351
0.00245906
0.00329652
0.00414625
0.00501241
0.00589659
0.00680299
0.00773236
0.00868479
0.00965807
0.0106434
0.0116358
0.0126107
0.0135645
0.0144528
0.0152774
0.0159547
0.0165107
0.0168533
0.0170177
0.0169405
0.016712
0.0163629