/*--------------------------------*- C++ -*----------------------------------*\
| =========                 |                                                 |
| \\      /  F ield         | OpenFOAM: The Open Source CFD Toolbox           |
|  \\    /   O peration     | Version:  2512                                  |
|   \\  /    A nd           | Website:  www.openfoam.com                      |
|    \\/     M anipulation  |                                                 |
\*---------------------------------------------------------------------------*/
FoamFile
{
    version     2.0;
    format      ascii;
    arch        "LSB;label=32;scalar=64";
    class       surfaceScalarField;
    location    "84";
    object      phi;
}
// * * * * * * * * * * * * * * * * * * * * * * * * * * * * * * * * * * * * * //

dimensions      [0 3 -1 0 0 0 0];

oriented        oriented;

internalField   nonuniform List<scalar> 
26232
(
2.17379e-05
0.00103994
-0.00106168
0.000359673
0.00198366
-0.00232159
0.00122968
0.00194433
-0.00281434
0.00282047
0.000957834
-0.00254862
0.00531042
-0.000969305
-0.00152065
0.00887051
-0.00384375
0.000283662
0.0136582
-0.00767095
0.00288326
0.0198019
-0.0124401
0.00629633
0.0273807
-0.0181092
0.0105304
0.0364014
-0.0245946
0.0155739
0.0467806
-0.0317667
0.0213874
0.0583356
-0.0394535
0.0278984
0.0707877
-0.0474509
0.0349989
0.0837787
-0.055539
0.042548
0.0968998
-0.0634996
0.0503785
0.109728
-0.0711353
0.0583073
0.121867
-0.0782859
0.0661471
0.132985
-0.0848416
0.073723
0.142855
-0.0907474
0.0808778
0.151353
-0.0960174
0.0875188
0.158491
-0.10067
0.0935324
0.164293
-0.104906
0.0991043
0.168686
-0.108357
0.103964
-0.112256
0.109356
0.171585
7.3833e-05
0.000966106
0.000586022
0.00147147
0.00178282
0.000747531
0.00388583
-0.00114517
0.00710024
-0.00418372
0.0116068
-0.00835029
0.0175427
-0.0136069
0.0249757
-0.0198731
0.0338786
-0.027012
0.0441114
-0.0348274
0.0554196
-0.0430748
0.0674492
-0.051483
0.0797794
-0.0597811
0.0919662
-0.0677258
0.103591
-0.0751243
0.114306
-0.0818501
0.123869
-0.0878496
0.132167
-0.0931393
0.139213
-0.0977937
0.145121
-0.101925
0.150106
-0.105655
0.154327
-0.109127
0.158276
-0.112306
-0.1158
0.16182
0.000156885
0.000809221
0.000921184
0.000707172
0.00256016
-0.000891446
0.00531486
-0.00389987
0.00939405
-0.00826291
0.0149508
-0.0139071
0.0220504
-0.0207064
0.0306395
-0.0284623
0.0405295
-0.0369021
0.0514016
-0.0456995
0.0628368
-0.05451
0.0743659
-0.0630121
0.0855285
-0.0709438
0.095931
-0.0781284
0.105291
-0.0844846
0.113464
-0.0900228
0.120442
-0.0948278
0.126336
-0.0990334
0.131334
-0.102792
0.135659
-0.10625
0.139523
-0.109519
0.143105
-0.112709
0.146559
-0.11576
-0.119092
0.149851
0.000264643
0.000544578
0.00134424
-0.00037242
0.00351402
-0.00306123
0.0070126
-0.00739845
0.0120168
-0.0132671
0.018602
-0.0204923
0.0267038
-0.0288082
0.0360984
-0.0378569
0.0464148
-0.0472185
0.0571798
-0.0564645
0.0678869
-0.0652171
0.0780704
-0.0731956
0.0873694
-0.0802427
0.0955669
-0.0863259
0.1026
-0.0915178
0.108541
-0.0959637
0.113556
-0.0998431
0.117857
-0.103334
0.121656
-0.10659
0.125131
-0.109725
0.128423
-0.112811
0.131615
-0.115901
0.134821
-0.118966
-0.122273
0.138002
0.00039133
0.000153248
0.00183203
-0.00181312
0.00458741
-0.00581662
0.00886263
-0.0116737
0.0147566
-0.0191611
0.0222124
-0.0279481
0.0309894
-0.0375851
0.0406778
-0.0475453
0.0507585
-0.0572991
0.0606907
-0.0663967
0.0700023
-0.0745287
0.0783584
-0.0815517
0.0855934
-0.0874777
0.0917043
-0.0924368
0.0968138
-0.0966272
0.101117
-0.100266
0.104827
-0.103553
0.108137
-0.106645
0.1112
-0.109654
0.114124
-0.112648
0.116981
-0.115668
0.119814
-0.118734
0.122677
-0.121829
-0.125102
0.125505
0.000532763
-0.000379514
0.00236313
-0.00364348
0.00572121
-0.0091747
0.0107388
-0.0166913
0.0173861
-0.0258084
0.025428
-0.03599
0.0344331
-0.0465902
0.0438423
-0.0569545
0.0530774
-0.0665342
0.0616491
-0.0749684
0.0692324
-0.082112
0.0756924
-0.0880118
0.081064
-0.0928493
0.0854996
-0.0968724
0.0892077
-0.100335
0.0923992
-0.103458
0.0952529
-0.106407
0.0979027
-0.109295
0.10044
-0.11219
0.102922
-0.115131
0.105388
-0.118133
0.107859
-0.121205
0.110367
-0.124337
-0.127606
0.112871
0.000685352
-0.00106487
0.00291506
-0.00587319
0.00685065
-0.0131103
0.0125049
-0.0223455
0.019674
-0.0329775
0.0279267
-0.0442427
0.0366729
-0.0553364
0.0452899
-0.0655716
0.0532533
-0.0744976
0.0602245
-0.0819396
0.0660757
-0.0879632
0.0708587
-0.0927949
0.0747419
-0.0967324
0.0779406
-0.100071
0.0806635
-0.103058
0.083081
-0.105875
0.0853164
-0.108642
0.0874509
-0.111429
0.0895347
-0.114274
0.0915983
-0.117194
0.0936606
-0.120196
0.0957338
-0.123278
0.0978337
-0.126437
-0.129701
0.0999285
0.000844047
-0.00190891
0.00346023
-0.00848937
0.0079018
-0.0175519
0.0140187
-0.0284625
0.0214087
-0.0403675
0.0294662
-0.0523003
0.0375193
-0.0633895
0.0449865
-0.0730387
0.0514872
-0.0809982
0.0568736
-0.087326
0.0611949
-0.0922845
0.0646239
-0.0962239
0.0673808
-0.0994893
0.0696752
-0.102366
0.0716754
-0.105058
0.0735006
-0.107701
0.075227
-0.110369
0.0769006
-0.113103
0.0785482
-0.115922
0.0801862
-0.118832
0.0818256
-0.121835
0.0834746
-0.124927
0.0851429
-0.128105
-0.131371
0.0868131
0.00100134
-0.00291025
0.00396486
-0.0114529
0.00879488
-0.0223819
0.0151477
-0.0348152
0.02243
-0.0476498
0.0299243
-0.0597946
0.0369721
-0.0704373
0.0431188
-0.0791853
0.0481655
-0.086045
0.0521365
-0.091297
0.0551982
-0.0953461
0.0575735
-0.0985992
0.0594771
-0.101393
0.0610807
-0.103969
0.0625045
-0.106482
0.0638245
-0.109021
0.0650849
-0.111629
0.066311
-0.114329
0.0675177
-0.117129
0.0687147
-0.120029
0.069909
-0.123029
0.0711067
-0.126125
0.0723128
-0.129311
-0.132577
0.0735184
0.00114735
-0.0040576
0.0043916
-0.0146971
0.00945425
-0.0274445
0.0157897
-0.0411507
0.0226561
-0.0545162
0.0293075
-0.066446
0.0351826
-0.0763124
0.0399954
-0.0839982
0.0437175
-0.0897671
0.0464941
-0.0940736
0.0485469
-0.0973989
0.0500979
-0.10015
0.0513276
-0.102623
0.0523628
-0.105004
0.0532827
-0.107402
0.0541331
-0.109871
0.0549389
-0.112435
0.0557146
-0.115105
0.056469
-0.117883
0.0572088
-0.120769
0.057939
-0.12376
0.0586643
-0.12685
0.0593877
-0.130035
-0.133297
0.0601082
0.0012716
-0.0053292
0.00470598
-0.0181315
0.00982162
-0.0325602
0.0158905
-0.0472196
0.0220893
-0.060715
0.0277253
-0.072082
0.032385
-0.0809722
0.0359513
-0.0875644
0.0385252
-0.0923409
0.0403178
-0.0958662
0.0415589
-0.09864
0.0424421
-0.101033
0.0431058
-0.103286
0.043637
-0.105536
0.0440856
-0.107851
0.0444781
-0.110263
0.044829
-0.112786
0.0451472
-0.115423
0.0454387
-0.118175
0.0457084
-0.121039
0.0459601
-0.124011
0.0461969
-0.127087
0.0464197
-0.130258
-0.133508
0.0466305
0.00136739
-0.00669659
0.00488484
-0.021649
0.00986659
-0.0375419
0.0154483
-0.0528013
0.0208022
-0.0660689
0.0253498
-0.0766295
0.0288397
-0.084462
0.0312943
-0.0900191
0.0328961
-0.0939427
0.0338771
-0.0968473
0.034447
-0.0992098
0.0347609
-0.101347
0.0349184
-0.103444
0.0349768
-0.105594
0.0349661
-0.10784
0.034902
-0.110199
0.0347931
-0.112677
0.0346456
-0.115275
0.0344642
-0.117993
0.034253
-0.120828
0.0340156
-0.123774
0.0337541
-0.126825
0.0334684
-0.129972
0.0331628
-0.133202
-0.000154373
0.00195517
-0.0018008
-0.000572853
0.00506078
-0.0046423
-0.00122871
0.00758482
-0.00692896
-0.00209377
0.00959428
-0.00872922
-0.0031369
0.0111664
-0.0101233
-0.00432559
0.0123928
-0.0112041
-0.00562829
0.0133676
-0.0120649
-0.00701608
0.0141742
-0.0127864
-0.00846367
0.0148768
-0.0134292
-0.00994926
0.0155157
-0.0140301
-0.0114537
0.0161074
-0.014603
-0.0129591
0.0166471
-0.0151417
-0.0144471
0.0171126
-0.0156247
-0.0158973
0.0174681
-0.0160178
-0.017286
0.017667
-0.0162783
-0.0185852
0.0176548
-0.0163557
-0.0197617
0.0173702
-0.0161937
-0.0207766
0.0167463
-0.0157314
-0.0215861
0.0157139
-0.0149043
-0.0221424
0.0142043
-0.013648
-0.0223953
0.0121546
-0.0119017
-0.0223003
0.00951364
-0.00960868
-0.0218405
0.00625014
-0.00670995
0.00242666
-0.021096
-0.0031711
-6.90556e-05
0.00202422
-0.000289779
0.0052815
-0.000669847
0.00796489
-0.00120437
0.0101288
-0.00187666
0.0118387
-0.00266123
0.0131774
-0.00352727
0.0142337
-0.00444193
0.0150889
-0.0053728
0.0158077
-0.00628936
0.0164322
-0.00716324
0.0169813
-0.00796771
0.0174516
-0.00867663
0.0178216
-0.0092632
0.0180546
-0.00969877
0.0181026
-0.00995183
0.0179079
-0.00998836
0.0174067
-0.00976915
0.0165271
-0.00925055
0.0151952
-0.00838338
0.0133371
-0.00711254
0.0108837
-0.00537767
0.00777876
-0.00313081
0.00400328
-0.000348358
-0.000355791
1.52403e-05
0.00200898
-3.39451e-06
0.00530014
-9.26376e-05
0.00805413
-0.000266573
0.0103027
-0.000521438
0.0120935
-0.000838574
0.0134945
-0.0011884
0.0145835
-0.00153457
0.0154351
-0.00183762
0.0161107
-0.00205763
0.0166523
-0.00215576
0.0170794
-0.00209475
0.0173906
-0.00183868
0.0175655
-0.0013524
0.0175684
-0.000600909
0.0173511
0.000451139
0.0168558
0.00184205
0.0160158
0.00360855
0.0147606
0.00578924
0.0130146
0.00842527
0.0107011
0.0115623
0.00774667
0.0152513
0.00408981
0.0195426
-0.000288057
-0.00536226
0.0245565
8.85346e-05
0.00192045
0.000254911
0.00513376
0.000444458
0.00786458
0.000629393
0.0101178
0.000803794
0.0119191
0.000980358
0.013318
0.00118666
0.0143772
0.00146089
0.0151608
0.00184776
0.0157238
0.00239501
0.016105
0.0031509
0.0163235
0.00416271
0.0163788
0.00547613
0.0162521
0.00713521
0.0159093
0.00918259
0.0153037
0.0116598
0.0143787
0.0146062
0.0130694
0.0180611
0.0113057
0.0220622
0.00901348
0.0266465
0.00611683
0.0318478
0.00254528
0.037711
-0.00177335
0.0442523
-0.00682932
-0.0127949
0.0516849
0.000143075
0.00177737
0.000458498
0.00481834
0.0008859
0.00743718
0.00139286
0.00961084
0.00196856
0.0113434
0.00262149
0.0126651
0.0033767
0.013622
0.00427224
0.0142653
0.00535516
0.0146409
0.00667792
0.0147822
0.00829536
0.0147061
0.0102625
0.0144116
0.0126334
0.0138811
0.0154606
0.0130821
0.0187948
0.0119695
0.0226854
0.0104881
0.0271801
0.00857466
0.0323262
0.0061596
0.0381671
0.0031725
0.0447472
-0.000463244
0.0521051
-0.00481261
0.0602896
-0.00995789
0.0692465
-0.0157861
-0.0228646
0.0793162
0.000173003
0.00160437
0.000586063
0.00440528
0.00118712
0.00683613
0.00194833
0.00884963
0.00285996
0.0104318
0.00392942
0.0115956
0.00517994
0.0123714
0.00664826
0.012797
0.00838154
0.0129076
0.0104342
0.0127295
0.0128652
0.0122751
0.0157356
0.0115413
0.0191072
0.0105095
0.0230422
0.00914714
0.0276025
0.00740924
0.0328508
0.00523975
0.038848
0.00257746
0.0456563
-0.000648639
0.0533396
-0.00451081
0.06195
-0.00907373
0.0715171
-0.0143796
0.0820986
-0.0205394
0.0935466
-0.0272342
-0.0355898
0.106272
0.000175938
0.00142843
0.000627827
0.00395339
0.00132486
0.00613909
0.00225278
0.00792172
0.00340936
0.00927523
0.00480526
0.0101997
0.00646446
0.0107122
0.00842363
0.0108378
0.0107305
0.0106008
0.0134419
0.0100182
0.0166215
0.00909547
0.0203385
0.00782428
0.0246659
0.00618213
0.029681
0.00413202
0.0354611
0.00162913
0.0420897
-0.00138889
0.0496482
-0.00498105
0.058211
-0.00921141
0.0678388
-0.0141386
0.0785754
-0.0198103
0.0904228
-0.026227
0.10337
-0.033487
0.117192
-0.0410562
-0.0505002
0.132103
0.000153698
0.00127474
0.000588533
0.00351856
0.00130566
0.00542196
0.00231206
0.00691532
0.00361948
0.00796781
0.00524747
0.0085717
0.00722595
0.00873375
0.00959654
0.00846723
0.0124127
0.00778457
0.0157393
0.0066916
0.0196512
0.0051836
0.0242329
0.00324261
0.0295733
0.000841726
0.0357722
-0.00206689
0.0429273
-0.00552595
0.0511293
-0.0095909
0.0604597
-0.0143115
0.0709762
-0.0197278
0.0826998
-0.0258623
0.0955976
-0.0327081
0.109583
-0.0402124
0.12447
-0.0483738
0.140029
-0.0566154
-0.0664208
0.15595
0.000112936
0.0011618
0.000489913
0.00314158
0.0011717
0.00474017
0.0021927
0.00589432
0.0035852
0.0065753
0.0053851
0.0067718
0.00763671
0.00648215
0.010396
0.00570797
0.0137322
0.00444837
0.0177283
0.00269548
0.0224779
0.000434022
0.0280873
-0.0023668
0.0346656
-0.00573658
0.0423144
-0.00971569
0.0511275
-0.0143391
0.0611708
-0.0196342
0.072471
-0.0256117
0.085001
-0.0322578
0.0986663
-0.0395276
0.11329
-0.0473319
0.128632
-0.0555539
0.1443
-0.0640426
0.160094
-0.0724089
-0.081464
0.175137
6.52052e-05
0.00109659
0.0003705
0.00283628
0.00100051
0.00411016
0.00202223
0.00487261
0.00349562
0.00510191
0.0054822
0.00478522
0.00805147
0.00391288
0.0112851
0.00247431
0.0152781
0.000455396
0.0201375
-0.00216394
0.0259781
-0.00540652
0.032909
-0.00929776
0.0410299
-0.0138575
0.0504099
-0.0190957
0.0610757
-0.0250049
0.0729956
-0.031554
0.0860668
-0.038683
0.100109
-0.0463004
0.114862
-0.0542806
0.13
-0.0624698
0.145133
-0.0706864
0.159815
-0.0787249
0.173784
-0.086378
-0.093746
0.186066
2.5565e-05
0.00107103
0.000280263
0.00258159
0.000893433
0.00349699
0.00196896
0.00379709
0.00360172
0.00346914
0.00588782
0.00249912
0.00893075
0.000869953
0.0128437
-0.00143861
0.0177466
-0.00444757
0.023758
-0.0081753
0.0309831
-0.0126317
0.039497
-0.0178116
0.0493283
-0.0236887
0.0604421
-0.0302095
0.0727282
-0.0372909
0.085994
-0.0448199
0.0999667
-0.0526557
0.114305
-0.0606388
0.128616
-0.0685917
0.142506
-0.0763594
0.15557
-0.0837507
0.167562
-0.0907165
0.178192
-0.0970084
-0.102606
0.187052
9.35259e-06
0.000269344
0.000951989
0.00220046
0.00414895
0.00693173
0.0106849
0.0155427
0.0216255
0.0290241
0.0377799
0.0478667
0.0591768
0.0715153
0.0846028
0.0980903
0.111582
0.124666
0.136952
0.148111
0.157893
0.166281
0.173236
0.179987
-0.019339
-0.00380554
0.0020485
-0.0171552
-0.0134648
0.0112809
-0.0146436
-0.0248084
0.0222969
-0.0118666
-0.0376095
0.0348324
-0.00895647
-0.0514538
0.0485437
-0.0060938
-0.0658103
0.0629476
-0.003485
-0.0800467
0.0774379
-0.00130015
-0.0935056
0.0913208
0.000463559
-0.105611
0.103848
0.00205966
-0.115796
0.114199
0.00427372
-0.123386
0.121172
0.00818439
-0.127149
0.123238
0.0145965
-0.125094
0.118682
0.0239536
-0.11519
0.105833
0.0358152
-0.0959205
0.0840589
0.0492463
-0.0671121
0.053681
0.0633743
-0.0301877
0.0160597
0.0775656
0.0122901
-0.0264813
0.0913046
0.0567069
-0.070446
0.103667
0.0975832
-0.109946
0.113553
0.130065
-0.139951
0.120367
0.151888
-0.158702
0.124162
0.163655
-0.167451
0.124751
0.16899
-0.169579
0.121517
0.174395
-0.171161
0.115034
0.184148
-0.177665
0.108375
0.192264
-0.185605
0.105657
0.182299
-0.17958
0.108954
0.139906
-0.143203
0.117363
0.0665863
-0.074996
0.128299
-0.0200453
0.00910981
0.138808
-0.0981397
0.0876302
0.146601
-0.154521
0.146729
0.151175
-0.187002
0.182427
0.152998
-0.20017
0.198346
0.151412
-0.202867
0.204454
0.145283
-0.209655
0.215783
0.136046
-0.222125
0.231361
0.12818
-0.219492
0.227359
0.125783
-0.174068
0.176465
0.129461
-0.0825206
0.0788425
0.137079
0.0237811
-0.0313993
0.145697
0.118164
-0.126781
0.15206
0.177288
-0.183651
0.15294
0.222709
-0.22359
0.147466
0.252966
-0.247493
0.139058
0.278627
-0.270218
0.13333
0.2492
-0.243472
0.133875
0.159365
-0.15991
0.140023
0.0327617
-0.0389095
0.14675
-0.0997686
0.0930419
0.148409
-0.16631
0.16465
0.144581
-0.265826
0.269654
0.139116
-0.274725
0.280191
0.13722
-0.293679
0.295575
0.138859
-0.193081
0.191442
0.140152
-0.0215377
0.0202449
0.1385
0.0599888
-0.0583376
0.135317
0.325089
-0.321905
0.247573
-0.245335
0.00207327
-0.0062346
0.00424247
-0.0156339
0.00654603
-0.027112
0.00888293
-0.0399464
0.0110874
-0.0536583
0.0129643
-0.0676872
0.014242
-0.0813244
0.014626
-0.0938896
0.0139117
-0.104897
0.0121765
-0.11406
0.00996361
-0.121173
0.00851926
-0.125704
0.00951805
-0.126093
0.01424
-0.119912
0.0230723
-0.104753
0.0353066
-0.0793464
0.0497106
-0.0445918
0.0652636
-0.00326291
0.0808546
0.0411159
0.0954441
0.0829937
0.107782
0.117727
0.117072
0.142598
0.122965
0.157763
0.124988
0.166967
0.122898
0.176485
0.118032
0.189015
0.11366
0.196636
0.113061
0.182898
0.1173
0.135667
0.125229
0.058658
0.134658
-0.0294743
0.143263
-0.106745
0.1491
-0.160358
0.151797
-0.189699
0.152142
-0.200515
0.149776
-0.200501
0.143281
-0.203159
0.133534
-0.212378
0.124948
-0.210905
0.122169
-0.17129
0.126234
-0.0865853
0.134981
0.0150343
0.144934
0.10821
0.152351
0.169872
0.153882
0.221178
0.148915
0.257933
0.140964
0.286577
0.135348
0.254816
0.135452
0.159262
0.140881
0.0273327
0.14722
-0.106108
0.148687
-0.167777
0.144722
-0.26186
0.139187
-0.269191
0.137254
-0.291746
0.13885
-0.194676
0.139831
-0.0225195
0.13813
0.0616898
0.134922
0.328297
0.249917
0.0268255
-0.00850362
0.0290847
-0.0178931
0.0312157
-0.029243
0.0331577
-0.0418884
0.0347696
-0.0552702
0.0358902
-0.0688078
0.0363004
-0.0817347
0.0356858
-0.0932749
0.0336316
-0.102843
0.0298222
-0.110251
0.0243906
-0.115742
0.0182659
-0.11958
0.0133519
-0.121179
0.0119501
-0.11851
0.0157071
-0.10851
0.0248169
-0.0884562
0.0381099
-0.0578847
0.0540416
-0.0191946
0.0710026
0.024155
0.0874826
0.0665137
0.102079
0.10313
0.113717
0.13096
0.121626
0.149853
0.125218
0.163374
0.124714
0.176989
0.121968
0.191761
0.120074
0.19853
0.1214
0.181572
0.126171
0.130896
0.13324
0.0515891
0.140887
-0.0371216
0.147406
-0.113264
0.151272
-0.164224
0.152189
-0.190616
0.151142
-0.199468
0.148127
-0.197486
0.141524
-0.196557
0.131538
-0.202392
0.122314
-0.201682
0.119018
-0.167994
0.123263
-0.09083
0.132945
0.00535272
0.14411
0.0970448
0.15257
0.161411
0.154863
0.218886
0.150578
0.262217
0.143217
0.293939
0.137729
0.260304
0.1373
0.159691
0.141883
0.0227495
0.14776
-0.111984
0.149064
-0.169081
0.14496
-0.257757
0.139313
-0.263544
0.137317
-0.28975
0.138922
-0.196281
0.139658
-0.0232556
0.137923
0.0634248
0.134679
0.331541
0.252359
0.0538064
-0.0106251
0.055918
-0.0200046
0.0578143
-0.0311393
0.0593008
-0.043375
0.0602745
-0.0562439
0.0606389
-0.0691722
0.060223
-0.0813188
0.0587661
-0.091818
0.0559424
-0.100019
0.0513457
-0.105654
0.0446092
-0.109005
0.0358886
-0.110859
0.0264613
-0.111752
0.0188687
-0.110918
0.0159873
-0.105628
0.0196966
-0.0921655
0.0298278
-0.068016
0.0445801
-0.0339469
0.0620228
0.00671231
0.0798531
0.0486834
0.0963612
0.0866223
0.110088
0.117234
0.119911
0.14003
0.12527
0.158015
0.12678
0.175479
0.12654
0.192001
0.127184
0.197887
0.13015
0.178606
0.13509
0.125955
0.141084
0.0455955
0.146812
-0.0428495
0.151176
-0.117628
0.153098
-0.166145
0.152355
-0.189873
0.149999
-0.197112
0.1464
-0.193887
0.139898
-0.190055
0.129987
-0.192481
0.120296
-0.19199
0.116366
-0.164064
0.120555
-0.0950192
0.130944
-0.0050357
0.14318
0.084809
0.152675
0.151916
0.155847
0.215714
0.152421
0.265643
0.14577
0.30059
0.140436
0.265638
0.139408
0.160718
0.143015
0.0191422
0.148352
-0.11732
0.149517
-0.170247
0.14528
-0.25352
0.139474
-0.257738
0.137382
-0.287657
0.139051
-0.19795
0.13962
-0.0238247
0.137867
0.065177
0.134587
0.334822
0.254888
0.0813789
-0.0126878
0.0833393
-0.021965
0.0849167
-0.0327167
0.0858179
-0.0442761
0.085961
-0.056387
0.0852935
-0.0685047
0.083727
-0.0797523
0.0811754
-0.0892664
0.0775327
-0.0963764
0.0725819
-0.100703
0.0658951
-0.102319
0.0569774
-0.101941
0.0459348
-0.100709
0.0343245
-0.0993074
0.0252053
-0.0965092
0.0219612
-0.0889214
0.0264322
-0.072487
0.0378992
-0.0454139
0.0542337
-0.0096222
0.0724916
0.0304255
0.0903299
0.068784
0.105768
0.101796
0.117405
0.128393
0.124753
0.150668
0.128672
0.17156
0.131221
0.189452
0.134401
0.194707
0.138775
0.174231
0.14368
0.12105
0.148402
0.0408733
0.152259
-0.0467061
0.154478
-0.119847
0.154493
-0.16616
0.152234
-0.187615
0.14869
-0.193568
0.144563
-0.18976
0.138322
-0.183813
0.128788
-0.182948
0.118861
-0.182063
0.114263
-0.159466
0.118134
-0.0988904
0.128947
-0.0158485
0.142088
0.071668
0.152606
0.141398
0.156778
0.211542
0.154381
0.268041
0.148549
0.306422
0.143393
0.270794
0.141733
0.162378
0.144263
0.016612
0.148974
-0.122031
0.150021
-0.171294
0.145667
-0.249166
0.139659
-0.25173
0.137425
-0.285423
0.139213
-0.199738
0.139703
-0.0243144
0.137954
0.0669262
0.134642
0.338133
0.257487
0.108256
-0.0146725
0.109922
-0.0236306
0.110935
-0.0337295
0.111034
-0.0443757
0.11017
-0.0555222
0.108315
-0.0666498
0.105443
-0.0768808
0.101591
-0.0854144
0.0968407
-0.0916258
0.0912485
-0.0951113
0.0847056
-0.0957756
0.0767487
-0.0939844
0.0667144
-0.0906746
0.0545811
-0.0871741
0.0420738
-0.0840019
0.0326736
-0.0795212
0.0300156
-0.0698291
0.0356883
-0.0510866
0.0484768
-0.0224107
0.0655894
0.0133129
0.0837696
0.0506037
0.100402
0.0851633
0.113753
0.115042
0.123291
0.14113
0.12991
0.164941
0.135402
0.18396
0.141075
0.189033
0.146731
0.168576
0.151502
0.116279
0.154998
0.0373767
0.157072
-0.0487794
0.157221
-0.119996
0.155388
-0.164327
0.151768
-0.183994
0.147185
-0.188985
0.142566
-0.185141
0.136681
-0.177928
0.127798
-0.174065
0.11792
-0.172186
0.112673
-0.154218
0.116001
-0.102218
0.126922
-0.0267703
0.140767
0.0578237
0.152284
0.12988
0.157576
0.20625
0.15636
0.269256
0.151453
0.311329
0.146511
0.275737
0.144219
0.16467
0.1456
0.0152305
0.149601
-0.126031
0.150544
-0.172237
0.146101
-0.244723
0.139857
-0.245485
0.137428
-0.282994
0.139385
-0.201695
0.13989
-0.0248195
0.13817
0.068646
0.134841
0.341462
0.260133
0.13358
-0.0161496
0.134589
-0.0246397
0.134702
-0.0338424
0.133689
-0.0433631
0.131566
-0.0533993
0.128335
-0.0634182
0.124026
-0.0725726
0.118785
-0.0801733
0.112826
-0.0856665
0.106372
-0.0886572
0.0995848
-0.0889885
0.0923834
-0.086783
0.084221
-0.0825122
0.0742291
-0.0771822
0.0622561
-0.0720289
0.0501052
-0.0673702
0.0414794
-0.0612033
0.0399865
-0.0495937
0.0468281
-0.0292523
0.0603857
-0.000244723
0.0772554
0.0337341
0.0942138
0.0682048
0.108991
0.100264
0.12076
0.129361
0.130182
0.155518
0.138605
0.175538
0.146611
0.181026
0.153412
0.161775
0.158116
0.111575
0.160661
0.0348319
0.161105
-0.049223
0.159305
-0.118196
0.155719
-0.160742
0.150895
-0.17917
0.14545
-0.18354
0.140372
-0.180063
0.13487
-0.172427
0.126855
-0.166049
0.117323
-0.162654
0.111535
-0.148431
0.114108
-0.104791
0.124827
-0.0374889
0.139142
0.043509
0.151622
0.1174
0.158142
0.199729
0.158253
0.269145
0.154361
0.315222
0.14967
0.280428
0.146797
0.167543
0.146994
0.015034
0.150207
-0.129244
0.151049
-0.173079
0.146562
-0.240236
0.140065
-0.238988
0.137376
-0.280306
0.13954
-0.203859
0.140162
-0.025441
0.138504
0.0703035
0.13518
0.344786
0.262798
0.156324
-0.0165235
0.15612
-0.0244367
0.15484
-0.032562
0.152352
-0.0408755
0.148733
-0.0497794
0.143987
-0.0586727
0.138204
-0.0667894
0.131618
-0.0735872
0.12454
-0.0785882
0.117291
-0.0814085
0.110151
-0.0818488
0.103273
-0.0799048
0.0965132
-0.0757526
0.0891861
-0.0698551
0.0802707
-0.0631136
0.0695176
-0.0566171
0.0587468
-0.0504325
0.0516152
-0.042462
0.051491
-0.0291281
0.0591881
-0.00794181
0.0725661
0.020356
0.0883773
0.0523937
0.103796
0.0848454
0.117435
0.115723
0.129447
0.143506
0.140572
0.164414
0.150671
0.170928
0.158505
0.153941
0.163255
0.106824
0.165052
0.0330356
0.164158
-0.0483288
0.160621
-0.11466
0.155422
-0.155542
0.149548
-0.173297
0.143435
-0.177426
0.137946
-0.174575
0.132794
-0.167274
0.125786
-0.159042
0.116888
-0.153756
0.110718
-0.142261
0.112397
-0.10647
0.122598
-0.0476906
0.137139
0.0289682
0.150528
0.104012
0.158366
0.191891
0.159927
0.267584
0.157124
0.318024
0.152749
0.284803
0.149386
0.170906
0.148395
0.0160244
0.150763
-0.131612
0.151495
-0.173812
0.147024
-0.235764
0.14028
-0.232244
0.137261
-0.277287
0.139655
-0.206253
0.140498
-0.0262841
0.138944
0.0718584
0.135654
0.348075
0.265451
0.174095
-0.0154817
0.172335
-0.022676
0.169392
-0.0296197
0.165331
-0.0368143
0.160241
-0.0446896
0.154116
-0.0525473
0.147095
-0.0597684
0.139464
-0.065956
0.131569
-0.0706935
0.123777
-0.0736166
0.116421
-0.0744931
0.10974
-0.0732232
0.103814
-0.0698264
0.0983936
-0.064435
0.0926784
-0.0573984
0.0855697
-0.0495083
0.0768008
-0.0416636
0.0680956
-0.0337568
0.0628712
-0.0239037
0.0641152
-0.00918575
0.0720921
0.0123791
0.0848334
0.0396523
0.0994896
0.0701892
0.114074
0.101138
0.128029
0.129552
0.141343
0.151099
0.153158
0.159112
0.161886
0.145214
0.166805
0.101905
0.168143
0.0316979
0.16612
-0.0463061
0.161057
-0.109597
0.154403
-0.148888
0.147623
-0.166517
0.141043
-0.170846
0.135224
-0.168756
0.130348
-0.162398
0.124416
-0.15311
0.11641
-0.145749
0.11006
-0.135911
0.110773
-0.107183
0.120175
-0.0570926
0.134694
0.0144499
0.148909
0.0897969
0.158141
0.182658
0.161267
0.264458
0.159621
0.319671
0.155626
0.288798
0.151869
0.174663
0.149778
0.0181151
0.151236
-0.13307
0.151841
-0.174417
0.147457
-0.231381
0.140502
-0.225289
0.137075
-0.27386
0.139707
-0.208885
0.14088
-0.0274571
0.139475
0.0732635
0.136258
0.351291
0.268057
0.183936
-0.0133517
0.18082
-0.0195595
0.176498
-0.025298
0.171265
-0.0315809
0.165149
-0.0385737
0.158138
-0.0455369
0.15042
-0.0520499
0.142284
-0.0578202
0.134066
-0.0624757
0.126125
-0.0656757
0.118797
-0.0671651
0.112354
-0.0667801
0.106979
-0.0644511
0.102684
-0.0601398
0.0991317
-0.0538463
0.0954832
-0.0458598
0.0906389
-0.0368194
0.0843178
-0.0274356
0.0780762
-0.0176621
0.074998
-0.00610761
0.0773462
0.010031
0.0854759
0.0315226
0.0976272
0.0580379
0.111723
0.0870419
0.126535
0.11474
0.14124
0.136394
0.154264
0.146088
0.163705
0.135773
0.168902
0.096708
0.169989
0.0306108
0.166976
-0.0432931
0.160536
-0.103157
0.152591
-0.140943
0.145035
-0.158961
0.138184
-0.163995
0.132157
-0.162729
0.127467
-0.157708
0.122598
-0.148241
0.115709
-0.13886
0.109405
-0.129608
0.109134
-0.106912
0.117493
-0.0654517
0.131748
0.000195788
0.14669
0.0748549
0.157351
0.171997
0.162107
0.259703
0.161688
0.320089
0.15817
0.292316
0.154193
0.17864
0.151075
0.0212334
0.151603
-0.133597
0.152049
-0.174863
0.147835
-0.227168
0.140729
-0.218182
0.136821
-0.269952
0.139675
-0.211739
0.141285
-0.0290676
0.140084
0.0744652
0.136989
0.354386
0.270578
0.184592
-0.010892
0.180793
-0.0157607
0.175888
-0.0203931
0.170256
-0.0259485
0.163822
-0.0321397
0.15663
-0.0383449
0.148885
-0.0443052
0.140844
-0.0497787
0.13281
-0.0544417
0.125116
-0.057982
0.118085
-0.0601337
0.112008
-0.0607034
0.107114
-0.0595575
0.103482
-0.0565069
0.101024
-0.0513882
0.0993654
-0.0442017
0.0977527
-0.0352067
0.0953107
-0.0249936
0.0918217
-0.0141731
0.0886638
-0.0029497
0.0875644
0.0111303
0.09116
0.0279271
0.099515
0.0496829
0.111448
0.0751088
0.125626
0.100562
0.140579
0.121442
0.154045
0.132622
0.163989
0.125829
0.169813
0.0908836
0.170836
0.029588
0.166984
-0.0394411
0.159316
-0.0954887
0.150284
-0.131912
0.142075
-0.150752
0.135084
-0.157004
0.128961
-0.156606
0.124318
-0.153065
0.120362
-0.144285
0.114729
-0.133227
0.108692
-0.12357
0.107439
-0.105659
0.114526
-0.072539
0.128241
-0.0135188
0.143778
0.0593179
0.155954
0.15982
0.162455
0.253202
0.16328
0.319264
0.160297
0.295299
0.15629
0.182646
0.152292
0.0252313
0.151891
-0.133196
0.152118
-0.17509
0.148156
-0.223205
0.140959
-0.210986
0.136529
-0.265521
0.139562
-0.214772
0.141699
-0.0312042
0.140755
0.0754091
0.137842
0.357299
0.272973
0.177674
-0.0085786
0.173804
-0.0118905
0.16931
-0.0159
0.164129
-0.0207675
0.158171
-0.0261817
0.151604
-0.0317774
0.144608
-0.037309
0.137389
-0.0425597
0.130216
-0.047269
0.123384
-0.0511496
0.117164
-0.0539139
0.111769
-0.0553087
0.107341
-0.0551293
0.10401
-0.053176
0.101886
-0.0492647
0.100965
-0.0432805
0.100971
-0.0352126
0.101232
-0.0252549
0.100948
-0.0138893
0.099569
-0.00157025
0.0991194
0.01158
0.100685
0.026361
0.105796
0.0445719
0.114657
0.0662482
0.12664
0.0885791
0.140336
0.107745
0.153455
0.119503
0.163969
0.115315
0.170423
0.0844293
0.171444
0.0285668
0.166277
-0.0342738
0.157457
-0.0866693
0.147714
-0.122169
0.139102
-0.14214
0.132077
-0.149978
0.125937
-0.150466
0.121188
-0.148316
0.117859
-0.140956
0.113491
-0.128859
0.107925
-0.118005
0.105752
-0.103485
0.111457
-0.0782441
0.124316
-0.0263777
0.140139
0.0434951
0.153645
0.146314
0.161943
0.244904
0.164132
0.317074
0.161852
0.297579
0.158005
0.186494
0.153418
0.0298182
0.152089
-0.131867
0.152054
-0.175055
0.148412
-0.219564
0.141173
-0.203746
0.136229
-0.260578
0.139395
-0.217938
0.142116
-0.0339249
0.141482
0.0760431
0.138815
0.359966
0.275202
0.206102
-0.00647546
-0.208205
0.204732
-0.01052
0.20312
-0.0142883
0.200986
-0.0186333
0.198226
-0.0234222
0.194827
-0.0283782
0.190801
-0.0332826
0.186162
-0.0379215
0.180965
-0.0420712
0.175306
-0.0454911
0.16932
-0.0479273
0.163149
-0.0491385
0.156935
-0.0489147
0.150823
-0.0470641
0.144966
-0.0434076
0.139496
-0.0378108
0.13448
-0.030196
0.129784
-0.0205593
0.125047
-0.00915272
0.119752
0.00372562
0.114079
0.0172521
0.108947
0.0314935
0.105925
0.0475938
0.106582
0.0655911
0.111833
0.0833285
0.121488
0.0980901
0.135082
0.105909
0.152429
0.0979682
0.170945
0.0659131
0.184757
0.0147552
0.191178
-0.0406948
0.190316
-0.0858073
0.184513
-0.116366
0.176367
-0.133994
0.167733
-0.141344
0.158969
-0.141703
0.150747
-0.140094
0.14376
-0.133969
0.136345
-0.121444
0.127358
-0.109018
0.119907
-0.0960342
0.118205
-0.076542
0.122605
-0.030778
0.12892
0.0371803
0.133485
0.141748
0.13604
0.24235
0.138503
0.314611
0.14349
0.292592
0.149835
0.180149
0.153851
0.0258026
0.155833
-0.133849
0.155314
-0.174536
0.150316
-0.214566
0.141689
-0.195119
0.13439
-0.253279
0.132721
-0.216269
0.131779
-0.0329822
0.128559
0.0792629
0.125902
0.362623
0.276533
0.215356
-0.00492976
-0.216902
0.213678
-0.00884239
0.212016
-0.0126261
0.209923
-0.0165403
0.207234
-0.0207329
0.203946
-0.0250906
0.200074
-0.0294102
0.19564
-0.0334877
0.190695
-0.0371264
0.185326
-0.0401221
0.179654
-0.0422553
0.173821
-0.0433057
0.167976
-0.043069
0.16227
-0.0413586
0.156863
-0.038
0.151899
-0.0328467
0.147509
-0.0258062
0.143752
-0.0168027
0.140417
-0.00581771
0.137212
0.00693078
0.133866
0.0205975
0.130656
0.0347044
0.128741
0.0495082
0.129752
0.0645802
0.134871
0.0782101
0.144349
0.0886114
0.15809
0.0921683
0.175086
0.0809727
0.191577
0.0494216
0.202829
0.00350303
0.206416
-0.044281
0.203489
-0.082881
0.196251
-0.109127
0.187134
-0.124877
0.177956
-0.132166
0.168941
-0.132687
0.160359
-0.131512
0.153123
-0.126733
0.146023
-0.114344
0.13733
-0.100325
0.129284
-0.0879882
0.126511
-0.0737696
0.130185
-0.0344515
0.136698
0.0306676
0.141863
0.136583
0.145249
0.238963
0.148811
0.31105
0.155059
0.286344
0.16233
0.172877
0.166538
0.0215953
0.167827
-0.135139
0.166498
-0.173207
0.160923
-0.208991
0.151546
-0.185742
0.143224
-0.244957
0.141325
-0.21437
0.140423
-0.0320796
0.137046
0.0826393
0.134324
0.365346
0.277875
0.224166
-0.00383535
-0.225261
0.222676
-0.00735197
0.220958
-0.0109084
0.218887
-0.0144695
0.216313
-0.0181584
0.213185
-0.0219622
0.209513
-0.0257388
0.20533
-0.0293043
0.200682
-0.0324785
0.195643
-0.0350838
0.190321
-0.0369325
0.184845
-0.0378302