/*--------------------------------*- C++ -*----------------------------------*\
| =========                 |                                                 |
| \\      /  F ield         | OpenFOAM: The Open Source CFD Toolbox           |
|  \\    /   O peration     | Version:  2512                                  |
|   \\  /    A nd           | Website:  www.openfoam.com                      |
|    \\/     M anipulation  |                                                 |
\*---------------------------------------------------------------------------*/
FoamFile
{
    version     2.0;
    format      ascii;
    arch        "LSB;label=32;scalar=64";
    class       surfaceScalarField;
    location    "19.25";
    object      phi;
}
// * * * * * * * * * * * * * * * * * * * * * * * * * * * * * * * * * * * * * //

dimensions      [0 3 -1 0 0 0 0];

oriented        oriented;

internalField   nonuniform List<scalar> 
26232
(
3.07863e-05
0.000979134
-0.00100992
0.000300748
0.0019448
-0.00221476
0.000964303
0.00206644
-0.00273
0.00216654
0.00139502
-0.00259726
0.0040519
-4.10302e-05
-0.00184433
0.00676726
-0.00223002
-0.000485343
0.0104565
-0.0051658
0.00147653
0.0152532
-0.00884189
0.00404525
0.0212667
-0.0132389
0.00722535
0.0285677
-0.0183158
0.0110149
0.0371725
-0.0240041
0.0153992
0.047033
-0.0302061
0.0203457
0.0580305
-0.0367986
0.0258011
0.069979
-0.0436398
0.0316914
0.0826339
-0.0505793
0.0379244
0.0957086
-0.0574691
0.0443944
0.108895
-0.0641746
0.0509884
0.121885
-0.0705841
0.057594
0.134396
-0.0766125
0.0641013
0.146188
-0.0822228
0.0704306
0.157077
-0.0873675
0.0764785
0.16693
-0.0921669
0.082314
0.175623
-0.0963698
0.0876775
-0.100721
0.093616
0.182727
7.25275e-05
0.000906606
0.000495927
0.0015214
0.00145477
0.0011076
0.00312354
-0.000273752
0.00567347
-0.00259096
0.00926707
-0.00582362
0.0140484
-0.00994716
0.0201246
-0.0149181
0.0275466
-0.0206609
0.0362918
-0.027061
0.0462536
-0.0339659
0.0572414
-0.041194
0.0689916
-0.0485488
0.0811881
-0.0558363
0.09349
-0.0628812
0.105562
-0.0695416
0.117107
-0.0757187
0.127884
-0.0813616
0.137739
-0.0864669
0.146592
-0.0910767
0.154476
-0.0952513
0.161438
-0.0991286
0.167717
-0.102649
-0.10639
0.173386
0.000134959
0.000771648
0.000766567
0.000889793
0.00210629
-0.000232123
0.00435296
-0.00252042
0.00769183
-0.00592984
0.0122804
-0.0104122
0.0182266
-0.0158933
0.0255638
-0.0222553
0.0342308
-0.0293279
0.0440629
-0.0368932
0.0547993
-0.0447023
0.0661053
-0.0524999
0.0776069
-0.0600505
0.0889316
-0.067161
0.0997477
-0.0736973
0.109797
-0.0795913
0.118919
-0.08484
0.127053
-0.0894964
0.134241
-0.0936548
0.140599
-0.0974347
0.1463
-0.100952
0.151516
-0.104345
0.156469
-0.107601
-0.111139
0.161218
0.000218386
0.000553261
0.00111238
-4.20376e-06
0.00291277
-0.00203251
0.00582993
-0.00543759
0.0100404
-0.0101403
0.0156598
-0.0160316
0.0227119
-0.0229454
0.031104
-0.0306474
0.0406197
-0.0388435
0.0509345
-0.047208
0.0616527
-0.0554205
0.0723572
-0.0632045
0.082663
-0.0703563
0.0922624
-0.0767603
0.100956
-0.0823906
0.108663
-0.0872988
0.115417
-0.0915938
0.121337
-0.0954162
0.126596
-0.098914
0.131384
-0.102222
0.135879
-0.105447
0.140213
-0.108679
0.144523
-0.111911
-0.115406
0.14879
0.000321931
0.000231331
0.00152654
-0.00120881
0.00385142
-0.00435739
0.00749613
-0.0090823
0.0125934
-0.0152376
0.0191698
-0.022608
0.0271139
-0.0308896
0.0361687
-0.0397022
0.0459555
-0.0486302
0.0560255
-0.057278
0.0659276
-0.0653226
0.0752733
-0.0725502
0.0837854
-0.0788683
0.0913218
-0.0842967
0.0978731
-0.0889419
0.103537
-0.0929628
0.10848
-0.0965364
0.112892
-0.099829
0.116957
-0.102978
0.12082
-0.106086
0.124591
-0.109218
0.128331
-0.11242
0.132101
-0.11568
-0.119164
0.135859
0.000443716
-0.000212385
0.00199761
-0.0027627
0.00488506
-0.00724484
0.00926305
-0.0134603
0.0151756
-0.0211501
0.0225109
-0.0299433
0.030987
-0.0393657
0.0401812
-0.0488964
0.0495975
-0.0580466
0.0587522
-0.0664327
0.0672517
-0.0738221
0.0748431
-0.0801417
0.0814299
-0.0854551
0.0870538
-0.0899206
0.0918544
-0.0937425
0.09602
-0.0971283
0.0997426
-0.100259
0.103188
-0.103274
0.106481
-0.106271
0.109706
-0.109311
0.112915
-0.112427
0.116134
-0.115639
0.119396
-0.118942
-0.122424
0.122656
0.000580926
-0.000793311
0.00250771
-0.00468949
0.00596085
-0.010698
0.0110139
-0.0185133
0.0175751
-0.0277113
0.0253587
-0.0377269
0.0339118
-0.0479187
0.0426941
-0.0576788
0.0511841
-0.0665365
0.0589715
-0.0742201
0.0658124
-0.080663
0.0716373
-0.0859665
0.0765195
-0.0903373
0.0806226
-0.0940238
0.0841446
-0.0972645
0.0872736
-0.100257
0.0901626
-0.103148
0.0929213
-0.106033
0.0956211
-0.108971
0.098305
-0.111995
0.100997
-0.115119
0.103709
-0.118351
0.106454
-0.121687
-0.125168
0.109198
0.000728899
-0.00152221
0.0030319
-0.0069925
0.00701062
-0.0146767
0.0126111
-0.0241138
0.019569
-0.0346692
0.02742
-0.0455778
0.0355842
-0.0560829
0.043492
-0.0655867
0.050698
-0.0737425
0.0569449
-0.080467
0.0621686
-0.0858868
0.0664568
-0.0902546
0.0699854
-0.0938659
0.0729577
-0.0969961
0.0755594
-0.0998662
0.0779362
-0.102634
0.0801898
-0.105402
0.0823844
-0.108228
0.0845575
-0.111144
0.0867299
-0.114167
0.0889123
-0.117302
0.0911096
-0.120548
0.0933271
-0.123905
-0.12738
0.0955399
0.000880579
-0.00240279
0.00353798
-0.0096499
0.00795527
-0.019094
0.013913
-0.0300715
0.0209614
-0.0417176
0.0284917
-0.0531082
0.0358771
-0.0634683
0.0426136
-0.0723231
0.0484031
-0.079532
0.0531632
-0.0852271
0.056979
-0.0897026
0.0600309
-0.0933066
0.0625264
-0.0963615
0.0646526
-0.0991223
0.0665537
-0.101767
0.0683282
-0.104409
0.070037
-0.10711
0.0717147
-0.109905
0.0733804
-0.11281
0.0750438
-0.11583
0.0767098
-0.118968
0.0783809
-0.122219
0.0800581
-0.125582
-0.129048
0.0817258
0.00102662
-0.00342941
0.00398884
-0.0126121
0.00871421
-0.0238194
0.0147961
-0.0361535
0.0216189
-0.0485404
0.0284964
-0.0599857
0.0348429
-0.0698148
0.0402884
-0.0777685
0.0447037
-0.0839473
0.0481529
-0.0886763
0.0508126
-0.0923622
0.052894
-0.095388
0.0545896
-0.098057
0.0560471
-0.10058
0.0573666
-0.103087
0.0586089
-0.105651
0.0598083
-0.10831
0.0609828
-0.11108
0.0621422
-0.113969
0.0632916
-0.11698
0.0644334
-0.120109
0.0655686
-0.123355
0.0666958
-0.126709
-0.130159
0.0678071
0.00115674
-0.00458615
0.00434817
-0.0158035
0.00921865
-0.0286898
0.0151769
-0.0421117
0.0214912
-0.0548547
0.0274783
-0.0659728
0.0326628
-0.0749994
0.0368355
-0.0819412
0.0400151
-0.0871269
0.0423621
-0.0910233
0.0440893
-0.0940894
0.0453973
-0.096696
0.0464427
-0.0991024
0.0473315
-0.101469
0.048128
-0.103883
0.0488678
-0.106391
0.0495694
-0.109011
0.0502427
-0.111753
0.0508931
-0.11462
0.0515235
-0.11761
0.0521354
-0.120721
0.0527287
-0.123948
0.0533003
-0.127281
-0.130706
0.0538467
0.00126371
-0.00584986
0.00458864
-0.0191285
0.00942374
-0.0335249
0.015023
-0.047711
0.0206085
-0.0604402
0.0255714
-0.0709357
0.0295829
-0.0790109
0.0325835
-0.0849417
0.0346978
-0.0892412
0.0361328
-0.0924583
0.0370985
-0.0950551
0.0377644
-0.097362
0.0382477
-0.0995857
0.0386197
-0.101841
0.0389195
-0.104183
0.0391674
-0.106639
0.0393735
-0.109217
0.0395434
-0.111923
0.0396808
-0.114757
0.0397878
-0.117717
0.0398655
-0.120799
0.0399138
-0.123996
0.0399296
-0.127297
0.0399131
-0.130689
-0.000281583
0.000139328
0.000142256
-0.000974076
0.000360805
0.000331687
-0.00198931
0.0005576
0.000457634
-0.00326512
0.000739362
0.000536453
-0.00475639
0.000910123
0.000581147
-0.00643117
0.00107279
0.000601982
-0.00826783
0.00123023
0.000606434
-0.0102527
0.00138554
0.000599324
-0.012378
0.00154208
0.000583197
-0.0146401
0.00170326
0.000558862
-0.0170383
0.00187223
0.000525944
-0.0195733
0.00205165
0.000483379
-0.0222467
0.00224364
0.000429787
-0.0250602
0.00244973
0.000363711
-0.028015
0.00267105
0.000283783
-0.0311122
0.00290847
0.000188759
-0.0343522
0.00316275
7.71935e-05
-0.0377374
0.00343452
-4.92586e-05
-0.0412706
0.00372534
-0.000192168
-0.0449574
0.00403734
-0.00035057
-0.0488071
0.00437254
-0.000522786
-0.0528337
0.00473328
-0.000706695
-0.0570654
0.00513015
-0.000898416
0.00558609
-0.0615603
-0.00109124
-0.00026406
0.000403388
-0.000916501
0.00101325
-0.00187434
0.00151544
-0.00307741
0.00194243
-0.00448088
0.00231359
-0.00605188
0.00264379
-0.00776691
0.00294526
-0.00960961
0.00322824
-0.0115688
0.00350131
-0.0136371
0.00377148
-0.0158089
0.0040441
-0.0180802
0.0043229
-0.0204467
0.00461011
-0.0229036
0.00490671
-0.0254453
0.00521275
-0.0280646
0.00552772
-0.0307528
0.005851
-0.0335007
0.00618238
-0.0362983
0.00652298
-0.0391372
0.0068762
-0.0420123
0.00724767
-0.0449232
0.00764412
-0.0478772
0.00808415
0.0086287
-0.0509198
-0.000226445
0.000629833
-0.000792589
0.00157939
-0.00162694
0.00234979
-0.00267418
0.00298967
-0.00389057
0.00352998
-0.00524166
0.00399489
-0.00670042
0.00440401
-0.00824538
0.0047732
-0.00985908
0.00511502
-0.0115266
0.00543904
-0.0132345
0.00575195
-0.0149693
0.00605774
-0.0167172
0.006358
-0.0184628
0.0066523
-0.0201887
0.00693859
-0.0218747
0.00721373
-0.0234976
0.00747397
-0.0250309
0.00771567
-0.0264442
0.00793627
-0.0277043
0.00813626
-0.0287785
0.00832192
-0.0296403
0.00850584
-0.030264
0.00870792
0.00899432
-0.0306296
-0.000175774
0.000805607
-0.00062388
0.0020275
-0.00128759
0.0030135
-0.00211799
0.00382007
-0.00307292
0.00448491
-0.00411616
0.00503813
-0.00521638
0.00550423
-0.00634594
0.00590276
-0.00747972
0.0062488
-0.00859403
0.00655335
-0.00966559
0.00682351
-0.0106707
0.00706283
-0.0115844
0.00727169
-0.0123798
0.00744773
-0.0130276
0.00758636
-0.013495
0.00768115
-0.0137454
0.00772435
-0.0137371
0.00770741
-0.0134225
0.00762165
-0.0127461
0.0074599
-0.0116446
0.00722036
-0.0100521
0.00691334
-0.00791167
0.00656752
0.00629201
-0.00520935
-0.000120917
0.000926524
-0.000437819
0.0023444
-0.000908293
0.00348397
-0.00148967
0.00440145
-0.0021414
0.00513664
-0.00282558
0.00572231
-0.00350671
0.00618536
-0.00415113
0.00654718
-0.00472626
0.00682393
-0.00519984
0.00702693
-0.0055392
0.00716287
-0.00571066
0.00723429
-0.00567893
0.00723995
-0.0054066
0.00717541
-0.00485366
0.00703341
-0.00397691
0.0068044
-0.00272935
0.0064768
-0.00105932
0.00603737
0.00109079
0.00547155
0.0037867
0.00476399
0.00710748
0.00389959
0.0111454
0.00287544
0.0159994
0.00171354
0.000435227
0.0218561
-7.06069e-05
0.000997131
-0.000261841
0.00253563
-0.0005416
0.00376373
-0.000871572
0.00473142
-0.00121211
0.00547719
-0.00152365
0.00603384
-0.00176699
0.00642871
-0.00190319
0.00668337
-0.00189306
0.00681381
-0.0016967
0.00683057
-0.00127294
0.00673911
-0.000578885
0.00654023
0.000430508
0.00623056
0.00180283
0.00580308
0.00358861
0.00524764
0.00584159
0.00455142
0.00861917
0.00369921
0.0119828
0.00267371
0.0159985
0.00145588
0.0207346
2.79156e-05
0.0262738
-0.00163961
0.0327184
-0.00356923
0.0401256
-0.00569363
-0.00837093
0.0489318
-3.15787e-05
0.00102871
-0.000117471
0.00262152
-0.000229249
0.00387551
-0.000329521
0.00483169
-0.00037795
0.00552561
-0.000332631
0.00598853
-0.000150621
0.0062467
0.000212164
0.00632059
0.000801349
0.00622462
0.00166456
0.00596735
0.00285191
0.00555176
0.00441643
0.00497571
0.00641445
0.00423254
0.00890589
0.00331164
0.0119545
0.00219898
0.0156278
0.000878159
0.0199967
-0.000669665
0.0251357
-0.00246528
0.0311205
-0.00452897
0.0380317
-0.00688329
0.0459319
-0.00953973
0.0549427
-0.0125801
0.0649753
-0.0157262
-0.0201233
0.0767277
-7.24966e-06
0.00103596
-1.55014e-05
0.00262978
7.72044e-06
0.00385229
0.000103166
0.00473624
0.000315085
0.0053137
0.000689631
0.00561398
0.00127515
0.00566118
0.00212264
0.0054731
0.00328633
0.00506093
0.0048243
0.00442939
0.00679897
0.00357709
0.0092775
0.00249719
0.0123318
0.00117823
0.0160382
-0.000394724
0.0204775
-0.00224034
0.0257328
-0.00437711
0.0318881
-0.00682501
0.0390255
-0.00960272
0.0472224
-0.0127258
0.0565512
-0.0162121
0.0670464
-0.020035
0.0788248
-0.0243585
0.0916294
-0.0285308
-0.0347161
0.106222
3.4972e-06
0.00103246
4.62722e-05
0.002587
0.000173705
0.00372486
0.000435563
0.00447439
0.000883633
0.00486563
0.00157235
0.00492526
0.00255966
0.00467387
0.0039081
0.00412466
0.00568567
0.00328336
0.00796646
0.0021486
0.0108307
0.000712854
0.0143643
-0.00103641
0.0186575
-0.00311501
0.0238031
-0.0055403
0.0298922
-0.00832948
0.0370123
-0.0114971
0.045241
-0.0150537
0.054642
-0.0190037
0.0652584
-0.0233422
0.0771124
-0.028066
0.0901749
-0.0330975
0.104465
-0.0386482
0.119694
-0.0437603
-0.0512797
0.136258
4.87271e-06
0.00102759
8.35248e-05
0.00250835
0.00030063
0.00350775
0.000720591
0.00405442
0.00140882
0.0041774
0.00243399
0.0039001
0.00387005
0.0032378
0.0057977
0.00219701
0.008305
0.000776057
0.0114869
-0.00103325
0.0154432
-0.00324352
0.0202759
-0.00586908
0.0260839
-0.00892305
0.032958
-0.0124144
0.0409739
-0.0163453
0.0501857
-0.0207089
0.0606197
-0.0254877
0.0722693
-0.0306534
0.0850914
-0.0361643
0.099003
-0.0419777
0.113887
-0.0479817
0.129565
-0.0543264
0.145895
-0.0600896
-0.067915
0.16253
5.02451e-06
0.00102256
0.00012155
0.00239182
0.000439426
0.00318988
0.00104353
0.00345032
0.00201931
0.00320162
0.00345656
0.00246284
0.00545183
0.00124253
0.00810896
-0.000460118
0.011538
-0.00265295
0.0158509
-0.00534614
0.021156
-0.00854868
0.0275504
-0.0122634
0.0351105
-0.0164832
0.0438837
-0.0211876
0.0538799
-0.0263415
0.0650656
-0.0318946
0.0773607
-0.0377829
0.0906391
-0.0439317
0.104732
-0.0502568
0.119435
-0.056681
0.134541
-0.0630878
0.149749
-0.0695338
0.165073
-0.0754142
-0.0823581
0.179516
1.26446e-05
0.000189707
0.000649588
0.00150265
0.00285994
0.00483744
0.0075565
0.0111416
0.015714
0.0213828
0.0282333
0.0363156
0.0456335
0.0561372
0.0677201
0.0802199
0.0934254
0.107088
0.120932
0.134682
0.148072
0.160853
0.173116
0.184374
-0.0648192
0.00502902
-0.00177016
-0.0678486
0.00516093
-0.00213144
-0.0705996
0.00522392
-0.00247294
-0.0729866
0.00516646
-0.00277951
-0.0749161
0.0049493
-0.00301975
-0.0762831
0.00452809
-0.0031611
-0.0769703
0.00385715
-0.00316993
-0.076851
0.00290244
-0.00302176
-0.0757893
0.00163723
-0.00269891
-0.0736327
3.79162e-05
-0.00219455
-0.0704085
-0.00165732
-0.00156693
-0.065944
-0.00371154
-0.000752944
-0.0601423
-0.00600677
0.000205078
-0.0529506
-0.00845222
0.00126057
-0.044359
-0.0109286
0.00233698
-0.0344106
-0.013304
0.00335569
-0.0232358
-0.0153249
0.00415011
-0.0110035
-0.0168553
0.00462295
0.00206425
-0.0177554
0.00468763
0.0156435
-0.0178373
0.004258
0.0294416
-0.0171281
0.00333009
0.0431512
-0.0156712
0.00196154
0.0564914
-0.0136001
0.000259905
0.0692219
-0.011111
-0.00161949
0.0811819
-0.00840875
-0.00355124
0.0922648
-0.00568162
-0.00540131
0.102412
-0.00306485
-0.007082
0.111596
-0.000646059
-0.00853824
0.119863
0.00144661
-0.0097134
0.127245
0.00325364
-0.0106354
0.133809
0.00473724
-0.0113022
0.139631
0.00594257
-0.0117644
0.144792
0.00684327
-0.0120045
0.149365
0.00757424
-0.0121466
0.153422
0.00806022
-0.0121175
0.157033
0.00851966
-0.0121302
0.160259
0.00874972
-0.0119759
0.163159
0.00915669
-0.0120563
0.165785
0.00925314
-0.0118801
0.168185
0.00977575
-0.012175
0.170393
0.00983618
-0.0120443
0.172422
0.0106307
-0.0126594
0.174259
0.0107945
-0.0126317
0.175875
0.0119714
-0.0135874
0.177238
0.0122628
-0.0136257
0.178327
0.0137801
-0.0148698
0.179147
0.0140813
-0.0149007
0.17971
0.0160063
-0.0165698
0.180053
0.0162649
-0.016608
0.180205
0.0188287
-0.0189799
0.180202
0.0190865
-0.0190838
0.180073
0.0223931
-0.022264
0.179843
0.0227369
-0.0225076
0.179532
0.0268267
-0.0265151
0.179158
0.0272601
-0.0268861
0.178726
0.0323561
-0.0319239
0.178251
0.0328993
-0.0324246
0.177732
0.039188
-0.0386691
0.177183
0.0400808
-0.0395315
0.0477781
-0.0471874
-0.053653
0.0077622
-0.056206
0.007714
-0.058469
0.00748686
-0.0603836
0.00708105
-0.061864
0.00642977
-0.0628147
0.00547874
-0.0631235
0.00416592
-0.0626657
0.00244464
-0.061214
0.000185592
-0.0590045
-0.0021716
-0.0556427
-0.00501912
-0.0511414
-0.00821287
-0.0454266
-0.0117216
-0.0384505
-0.0154283
-0.0302084
-0.0191707
-0.0207488
-0.0227636
-0.0101823
-0.0258914
0.00125917
-0.0282968
0.0132829
-0.0297791
0.0257392
-0.0302935
0.038316
-0.0297049
0.0507321
-0.0280873
0.062756
-0.025624
0.0742098
-0.0225648
0.0849791
-0.0191781
0.0950013
-0.0157038
0.104241
-0.0123049
0.112705
-0.00910961
0.120385
-0.00623305
0.127329
-0.00369038
0.133577
-0.00151066
0.139183
0.000335954
0.144214
0.00181215
0.148715
0.00307363
0.152743
0.0040316
0.156355
0.00490785
0.1596
0.00550524
0.16253
0.00622689
0.165193
0.00659012
0.167633
0.00733506
0.169888
0.00758173
0.171969
0.00854946
0.173864
0.00889967
0.17554
0.0102954
0.176962
0.010841
0.178105
0.0126362
0.178973
0.013214
0.179577
0.0154025
0.179955
0.0158867
0.180135
0.0186482
0.18016
0.0190622
0.180054
0.0224993
0.179847
0.0229435
0.179555
0.027119
0.1792
0.0276145
0.178785
0.0327718
0.178327
0.0333568
0.177822
0.0396936
0.177286
0.0406161
0.0483599
-0.0324063
0.00953891
-0.0340862
0.00939382
-0.0355267
0.00892737
-0.0366527
0.00820709
-0.0374077
0.00718474
-0.0377177
0.00578873
-0.037472
0.00392024
-0.0364921
0.00146471
-0.0349116
-0.00139491
-0.0324427
-0.00464049
-0.0289938
-0.00846802
-0.0245634
-0.0126433
-0.0190733
-0.0172116
-0.0124852
-0.0220164
-0.00478058
-0.0268753
0.00383958
-0.0313838
0.0132892
-0.035341
0.0234899
-0.0384975
0.0342369
-0.040526
0.0452198
-0.0412765
0.0561795
-0.0406646
0.0668798
-0.0387876
0.0771353
-0.0358795
0.0868203
-0.0322498
0.0958695
-0.0282273
0.104268
-0.0241019
0.112019
-0.0200563
0.11914
-0.0162302
0.125647
-0.0127402
0.131579
-0.00962305
0.136981
-0.00691234
0.141888
-0.00457087
0.146322
-0.00262203
0.150324
-0.000928596
0.153943
0.000413363
0.15722
0.00163047
0.160184
0.00254096
0.162883
0.00352832
0.165348
0.00412452
0.167622
0.0050614
0.169737
0.00546688
0.171707
0.00657906
0.17352
0.00708705
0.175142
0.00867296
0.176536
0.00944685
0.177674
0.0114991
0.178551
0.0123363
0.179177
0.0147766
0.179587
0.0154771
0.179804
0.0184314
0.179869
0.0189962
0.179806
0.0225631
0.179645
0.0231045
0.179397
0.0273666
0.17909
0.027922
0.178719
0.0331425
0.178308
0.0337674
0.177847
0.0401552
0.177357
0.0411057
0.0488999
-0.00559543
0.00992498
-0.00620198
0.0100004
-0.00668344
0.00940883
-0.0069238
0.00844745
-0.00687484
0.00713578
-0.00648605
0.00539994
-0.00570438
0.00313857
-0.00433101
9.13343e-05
-0.00247096
-0.00325496
0.000139676
-0.00725113
0.00332492
-0.0116533
0.00735525
-0.0166736
0.0122552
-0.0221115
0.0180489
-0.0278102
0.0247221
-0.0335485
0.0322615
-0.0389232
0.0405687
-0.0436482
0.0494413
-0.0473701
0.058675
-0.0497597
0.0680187
-0.0506202
0.0772422
-0.0498881
0.0861482
-0.0476936
0.0945918
-0.0443231
0.102485
-0.0401428
0.109791
-0.0355338
0.116519
-0.0308293
0.1227
-0.0262376
0.128364
-0.021894
0.133543
-0.0179199
0.13828
-0.0143597
0.142608
-0.0112403
0.146561
-0.00852356
0.150163
-0.00622477
0.153456
-0.00422096
0.156455
-0.00258624
0.159181
-0.00109475
0.161657
6.42113e-05
0.163945
0.00124118
0.166048
0.00202129
0.168002
0.00310706
0.169837
0.00363243
0.171568
0.00484775
0.173185
0.00546968
0.174659
0.00719914
0.175951
0.00815489
0.177028
0.010422
0.177883
0.0114818
0.178514
0.0141456
0.178951
0.0150393
0.179212
0.0181714
0.179333
0.0188747
0.179331
0.0225652
0.179238
0.0231973
0.17906
0.0275445
0.178826
0.0281559
0.178529
0.03344
0.178194
0.0341017
0.177807
0.0405422
0.177395
0.0415181
0.0493652
0.0224294
0.00935171
0.0229284
0.00950136
0.0234237
0.00891352
0.0240124
0.00785881
0.0247416
0.00640653
0.0256851
0.00445648
0.0269029
0.00192076
0.0283313
-0.00133711
0.030228
-0.0051516
0.0325823
-0.00960546
0.0355612
-0.0146321
0.0391511
-0.0202635
0.0434106
-0.026371
0.0483659
-0.0327655
0.054003
-0.0391856
0.0603153
-0.0452355
0.0671962
-0.050529
0.0744827
-0.0546566
0.0819932
-0.0572702
0.0895312
-0.0581581
0.0969177
-0.0572747
0.104008
-0.0547841
0.110703
-0.051018
0.116944
-0.0463839
0.122708
-0.0412977
0.128
-0.0361211
0.132854
-0.0310916
0.137292
-0.0263322
0.141342
-0.0219703
0.145037
-0.0180548
0.14841
-0.0146125
0.151489
-0.0116028
0.154304
-0.00903941
0.156874
-0.00679171
0.159224
-0.00493635
0.161376
-0.0032466
0.163369
-0.00192823
0.165173
-0.00056271
0.16686
0.00033438
0.16844
0.00152685
0.169937
0.00213529
0.17137
0.00341448
0.172735
0.00410465
0.174009
0.00592577
0.175156
0.00700784
0.176141
0.00943636
0.176953
0.0106701
0.177581
0.0135174
0.178049
0.014572
0.178361
0.017859
0.178553
0.0186826
0.178632
0.0224865
0.178629
0.0231997
0.178546
0.027628
0.178412
0.02829
0.178216
0.0336363
0.177987
0.0343307
0.177705
0.0408241
0.177401
0.0418218
0.0497231
0.0500371
0.00824636
0.051189
0.00834946
0.0523706
0.00773189
0.0535991
0.00663036
0.0548826
0.00512298
0.056258
0.00308108
0.0577791
0.000399662
0.0594019
-0.00295991
0.0612599
-0.00700953
0.0634126
-0.0117582
0.0659584
-0.0171779
0.0689317
-0.0232369
0.0723756
-0.0298149
0.0763138
-0.0367037
0.0807383
-0.04361
0.085625
-0.0501223
0.0908836
-0.0557876
0.0963807
-0.0601537
0.101978
-0.0628673
0.107548
-0.0637279
0.112986
-0.0627132
0.11822
-0.0600176
0.123204
-0.0560028
0.127915
-0.0510945
0.132333
-0.0457154
0.136448
-0.0402361
0.140271
-0.0349147
0.143803
-0.0298649
0.147045
-0.0252118
0.150007
-0.0210169
0.152707
-0.017313
0.155165
-0.0140606
0.157401
-0.0112755
0.159436
-0.00882602
0.161291
-0.00679203
0.162985
-0.00494047
0.164543
-0.00348647
0.165982
-0.00200092
0.16731
-0.00099444
0.168548
0.000289434
0.169738
0.000945479
0.170889
0.00226287
0.172008
0.00298584
0.17308
0.00485349
0.174079
0.00600906
0.17497
0.00854516
0.175739
0.00990099
0.176369
0.012888
0.176875
0.0140663
0.177252
0.0174812
0.177532
0.0184033
0.177711
0.0223069
0.177822
0.0230893
0.177857
0.0275924
0.177849
0.0282982
0.177781
0.0337039
0.177686
0.034426
0.177539
0.0409709
0.177375
0.0419862
0.0499414
0.077669
0.0073051
0.0787939
0.00722453
0.080079
0.00644683
0.0814589
0.00525047
0.0829005
0.00368132
0.0844169
0.00156474
0.086002
-0.00118541
0.0876516
-0.00460952
0.0893976
-0.00875558
0.0912828
-0.0136434
0.0933505
-0.0192456
0.0956224
-0.0255088
0.0981219
-0.0323144
0.10088
-0.0394614
0.103905
-0.0466352
0.107175
-0.0533929
0.110629
-0.0592408
0.114172
-0.0636971
0.117725
-0.0664205
0.121242
-0.0672444
0.124704
-0.0661754
0.128114
-0.0634274
0.13148
-0.0593693
0.134804
-0.0544181
0.138065
-0.048976
0.141229
-0.0434007
0.144272
-0.0379574
0.147171
-0.0327643
0.149887
-0.0279277
0.152402
-0.023532
0.154711
-0.0196216
0.156814
-0.0161639
0.158722
-0.0131837
0.16045
-0.0105534
0.162014
-0.00835663
0.163432
-0.00635796
0.164729
-0.00478406
0.165914
-0.00318585
0.167011
-0.00209078
0.168027
-0.000727329
0.168982
-8.60806e-06
0.169926
0.00131843
0.170855
0.00205642
0.171769
0.00393995
0.172651
0.00512689
0.173472
0.00772453
0.174217
0.00915535
0.174865
0.0122402
0.175426
0.0135056
0.175887
0.0170203
0.176272
0.0180177
0.176574
0.0220055
0.176819
0.0228439
0.176998
0.0274136
0.177141
0.0281553
0.177229
0.0336157
0.177295
0.0343597
0.177313
0.0409533
0.177318
0.0419811
0.0499881
0.106357
0.00717007
0.106827
0.00675525
0.107572
0.00570113
0.108474
0.00434885
0.109504
0.00265135
0.110663
0.000405761
0.111902
-0.00242485
0.113182
-0.00588939
0.114495
-0.0100688
0.115844
-0.0149921
0.11723
-0.0206316
0.118649
-0.0269276
0.120092
-0.0337575
0.121542
-0.0409112
0.122984
-0.0480776
0.124442
-0.054851
0.125926
-0.060725
0.12741
-0.0651806
0.128889
-0.0679
0.130403
-0.068758
0.132011
-0.0677832
0.133774
-0.065191
0.135735
-0.06133
0.137899
-0.0565822
0.140233
-0.0513099
0.142673
-0.045841
0.145155
-0.0404386
0.147629
-0.035239
0.150026
-0.0303248
0.152297
-0.025803
0.154415
-0.0217395
0.156364
-0.0181123
0.15814
-0.01496
0.159749
-0.0121618
0.161202
-0.00980959
0.162512
-0.0076683
0.163703
-0.00597472
0.164784
-0.00426727
0.165771
-0.00307804
0.166676
-0.00163169
0.167536
-0.000869147
0.168353
0.000501719
0.169177
0.00123253
0.169998
0.0031183
0.170818
0.00430723
0.171611
0.00693184
0.172367
0.00839942
0.17306
0.0115467
0.1737
0.0128662
0.174265
0.0164545
0.174778
0.0175046
0.175223
0.0215606
0.175627
0.0224407
0.175972
0.0270678
0.176291
0.0278364
0.176561
0.0333455
0.176816
0.0341047
0.177027
0.0407426
0.177231
0.0417773
0.0498323
0.1353
0.00812811
0.134788
0.00726687
0.134556
0.00593321
0.134486
0.00441835
0.134624
0.00251404
0.134967
6.23507e-05
0.135384
-0.00284208
0.135848
-0.00635269
0.13632
-0.0105413
0.136765
-0.0154374
0.137148
-0.0210137
0.137433
-0.0272133
0.137591
-0.0339157
0.137589
-0.0409087
0.1374
-0.0478884
0.137016
-0.0544675
0.136499
-0.0602078
0.135962
-0.0646432
0.135502
-0.0674399
0.135234
-0.0684908
0.135274
-0.0678229
0.135708
-0.0656248
0.136579
-0.062201
0.137875
-0.0578785
0.139539
-0.0529732
0.141475
-0.047777
0.143582
-0.0425461
0.145786
-0.0374426
0.148006
-0.0325456
0.150165
-0.0279615
0.152215
-0.02379
0.154129
-0.0200261
0.155893
-0.0167243
0.157504
-0.0137721
0.158966
-0.0112722
0.160288
-0.00899041
0.16149
-0.0071765
0.16258
-0.00535702
0.163573
-0.00407143
0.164479
-0.00253745
0.165329
-0.00171862
0.166121
-0.000290509
0.166924
0.000429091
0.167731
0.00231204
0.168551
0.00348654
0.169368
0.00611538
0.170176
0.0075914
0.170949
0.0107736
0.171695
0.0121198
0.172391
0.0157589
0.173055
0.0168409
0.173666
0.0209493
0.174249
0.0218573
0.174786
0.0265313
0.175305
0.0273174
0.175783
0.0328678
0.176252
0.0336349
0.176684
0.040311
0.177115
0.0413464
0.0494435
0.160734
0.00992441
0.159378
0.00862249
0.158138
0.00717307
0.156998
0.0055587
0.156087
0.00342448
0.15542
0.000729743
0.154829
-0.00225147
0.154246
-0.00576977
0.153632
-0.0099268
0.152936
-0.0147412
0.152103
-0.0201806
0.151082
-0.0261927
0.149828
-0.0326622
0.148306
-0.0393861
0.146498
-0.0460804
0.144426
-0.052396
0.142161
-0.0579423
0.139893
-0.0623758
0.13784
-0.0653867
0.136186
-0.0668363
0.135068
-0.0667051
0.134567
-0.0651244
0.134703
-0.0623362
0.13543
-0.0586061
0.136664
-0.0542065
0.138286
-0.0493995
0.140171
-0.0444315
0.142214
-0.0394849
0.144348
-0.0346797
0.146482
-0.0300954
0.148547
-0.0258551
0.1505
-0.0219794
0.152323
-0.0185468
0.154004
-0.0154534
0.155547
-0.0128149
0.156953
-0.0103967
0.15824
-0.00846401
0.159415
-0.00653203
0.160493
-0.00514879
0.161477
-0.00352121
0.162388
-0.00263013
0.163255
-0.00115716
0.164101
-0.000417226
0.164962
0.00145142
0.165845
0.00260296
0.166738
0.00522267
0.167642
0.00668737
0.168531
0.00988431
0.169415
0.0112357
0.170268
0.0149066
0.171106
0.0160025
0.171907
0.0201485
0.172693
0.0210708
0.173444
0.0257808
0.174187
0.0265747
0.174897
0.0321576
0.175607
0.0329249
0.176286
0.0396314
0.176972
0.0406611
0.0487924
0.177665
0.0117753
0.175937
0.010351
0.174102
0.00900761
0.172417
0.00724429
0.170885
0.00495593
0.169335
0.00227959
0.167875
-0.000791236
0.166347
-0.00424117
0.164728
-0.00830787
0.162968
-0.0129812
0.161
-0.018213
0.158772
-0.0239646
0.15624
-0.0301302
0.153381
-0.0365275
0.150206
-0.0429049
0.146775
-0.0489649
0.143209
-0.0543764
0.1397
-0.0588668
0.136552
-0.062239
0.133987
-0.0642709
0.132137
-0.0648553
0.131063
-0.0640501
0.130757
-0.0620302
0.13115
-0.058999
0.132134
-0.0551906
0.13358
-0.0508461
0.135355
-0.0462058
0.137338
-0.0414677
0.139439
-0.0367814
0.14159
-0.0322467
0.143717
-0.0279817
0.145759
-0.0240213
0.147688
-0.0204757
0.149487
-0.0172528
0.151157
-0.0144844
0.152694
-0.0119341
0.154116
-0.00988555
0.155426
-0.00784189
0.156639
-0.00636251
0.157755
-0.00463673
0.158797
-0.0036721
0.159777
-0.00213725
0.160746
-0.00138675
0.16171
0.000487558
0.162712
0.00160166
0.163728
0.00420591
0.16477
0.00564554
0.165811
0.00884309
0.166864
0.010183
0.1679
0.0138703
0.168938
0.0149646
0.169952
0.0191345
0.170964
0.0200588
0.171952
0.0247934
0.172941
0.0255853
0.173908
0.0311908
0.174882
0.0319504
0.175836
0.0386779
0.176802
0.0396953
0.0478507
0.183286
0.0128635
0.181665
0.011972
0.180049
0.0106232
0.178431
0.00886205
0.176701
0.00668669
0.17488
0.00410004
0.173091
0.000997605
0.171141
-0.00229057
0.168962
-0.00612911
0.166521
-0.0105404
0.16379
-0.0154816
0.160742
-0.0209167
0.157362
-0.0267509
0.153668
-0.0328333
0.149718
-0.0389551
0.14562
-0.0448668
0.141531
-0.0502869
0.137613
-0.0549487
0.134022
-0.0586483
0.130944
-0.0611931
0.128575
-0.0624858
0.12704
-0.0625154
0.126332
-0.0613221
0.126378
-0.0590455
0.127073
-0.0558855
0.128291
-0.0520639
0.129899
-0.0478139
0.131776
-0.0433444
0.133825
-0.0388308
0.13596
-0.0343813
0.138109
-0.0301308
0.140216
-0.0261285
0.142244
-0.0225039
0.144167
-0.0191758
0.145979
-0.0162956
0.147669
-0.0136241
0.149251
-0.0114679
0.150726
-0.00931706
0.152111
-0.00774683
0.153398
-0.00592383
0.154609
-0.00488341
0.155759
-0.00328703
0.156889
-0.00251721
0.158012
-0.000635412
0.159171
0.000442777
0.160353
0.00302398
0.16157
0.00442829
0.162797
0.00761656
0.164048
0.00893174
0.165295
0.012623
0.166557
0.0137026
0.167808
0.0178837
0.169068
0.0187987
0.170315
0.0235463
0.171574
0.0243268
0.17282
0.0299442
0.174083
0.030688
0.175335
0.0374256
0.176606
0.038424
0.0465911
0.200279
0.0138005
-0.201216
0.19992
0.0123302
0.199563
0.0109805
0.199256
0.00916892
0.199018
0.00692525
0.198805
0.00431217
0.198406
0.00139724
0.198105
-0.00198972
0.197741
-0.00576514
0.197214
-0.0100137
0.196476
-0.0147429
0.195445
-0.0198861
0.194045
-0.0253503
0.192216
-0.0310046
0.18993
-0.0366696
0.187195
-0.0421318
0.184065
-0.0471566
0.18063
-0.0515137
0.176999
-0.0550176
0.173309
-0.0575033
0.169696
-0.0588723
0.166286
-0.0591056
0.163197
-0.0582333
0.160513
-0.0563608
0.15828
-0.0536527
0.156513
-0.0502966
0.155193
-0.046494
0.154278
-0.0424295
0.153714
-0.0382669
0.153447
-0.0341145
0.153422
-0.0301058
0.153582
-0.0262887
0.153873
-0.0227945
0.154247
-0.0195499
0.154666
-0.0167146
0.1551
-0.014058
0.155527
-0.0118954
0.155933
-0.00972248
0.156305
-0.0081187
0.156632
-0.00625086
0.156909
-0.00516111
0.157138
-0.00351547
0.157325
-0.00270414
0.157495
-0.000805827
0.157657
0.00028109
0.157824
0.00285718
0.158013
0.00423878
0.158218
0.00741141
0.158443
0.00870706
0.158672
0.0123936
0.158912
0.0134634
0.159142
0.0176532
0.159374
0.0185664
0.159592
0.0233288
0.159809
0.0241101
0.160009
0.0297434
0.160214
0.0304834
0.160404
0.0372353
0.160605
0.0382231
0.0463996
0.212641
0.0138943
-0.212735
0.212624
0.0123466
0.212798
0.0108073
0.212937
0.0090298
0.212973
0.00688938
0.212879
0.00440526
0.212712
0.00156493
0.212407
-0.00168473
0.211941
-0.00529919
0.211242
-0.00931436
0.210245
-0.0137469
0.208901
-0.0185412
0.207158
-0.0236082
0.204986
-0.0288318
0.202375
-0.0340586
0.199349
-0.0391061
0.195967
-0.0437751