/*--------------------------------*- C++ -*----------------------------------*\
| =========                 |                                                 |
| \\      /  F ield         | OpenFOAM: The Open Source CFD Toolbox           |
|  \\    /   O peration     | Version:  2512                                  |
|   \\  /    A nd           | Website:  www.openfoam.com                      |
|    \\/     M anipulation  |                                                 |
\*---------------------------------------------------------------------------*/
FoamFile
{
    version     2.0;
    format      ascii;
    arch        "LSB;label=32;scalar=64";
    class       surfaceScalarField;
    location    "182.5";
    object      phi;
}
// * * * * * * * * * * * * * * * * * * * * * * * * * * * * * * * * * * * * * //

dimensions      [0 3 -1 0 0 0 0];

oriented        oriented;

internalField   nonuniform List<scalar> 
26232
(
-6.01971e-05
0.000970819
-0.000910622
3.34762e-05
0.00182592
-0.0019196
0.000511874
0.00178841
-0.00226681
0.00158771
0.000915034
-0.00199087
0.00346238
-0.000780343
-0.00109433
0.00632946
-0.00330424
0.000437167
0.0103686
-0.00666797
0.00262885
0.0157321
-0.0108722
0.00550871
0.0225287
-0.015892
0.00909538
0.0308048
-0.0216665
0.0133904
0.0405283
-0.0280946
0.0183711
0.0515794
-0.0350383
0.0239872
0.0637501
-0.0423309
0.0301602
0.0767547
-0.0497908
0.0367862
0.0902478
-0.0572355
0.0437423
0.103851
-0.0644971
0.0508937
0.117183
-0.071434
0.0581018
0.129891
-0.0779422
0.065235
0.141681
-0.0839579
0.0721677
0.152333
-0.0894756
0.0788236
0.161743
-0.0944861
0.0850759
0.169831
-0.099172
0.0910835
0.176555
-0.103206
0.0964827
-0.107699
0.102509
0.181744
2.33631e-05
0.000947456
0.000360195
0.00148909
0.00125661
0.000891998
0.00294468
-0.000773041
0.00564457
-0.00348023
0.00955579
-0.00721547
0.0148403
-0.0119525
0.0215998
-0.0176317
0.0298523
-0.0241445
0.0395152
-0.0313294
0.0503996
-0.038979
0.0622193
-0.0468579
0.0746135
-0.0547251
0.0871813
-0.0623586
0.0995209
-0.0695751
0.111269
-0.0762456
0.122138
-0.0823023
0.131935
-0.0877394
0.140583
-0.0926061
0.148102
-0.0969944
0.154627
-0.101012
0.160265
-0.104809
0.165406
-0.108347
-0.112235
0.169943
0.000122785
0.000824671
0.000752506
0.000859373
0.00214636
-0.000501857
0.00454817
-0.00317485
0.00817828
-0.00711034
0.0132115
-0.0122487
0.0197479
-0.0184889
0.0277831
-0.0256669
0.0371895
-0.0335509
0.047715
-0.0418548
0.059003
-0.050267
0.070632
-0.0584869
0.0821654
-0.0662585
0.0932036
-0.0733968
0.103429
-0.0798004
0.112636
-0.085453
0.120746
-0.0904121
0.127796
-0.0947898
0.133918
-0.0987272
0.139296
-0.102373
0.144132
-0.105847
0.148602
-0.10928
0.152874
-0.11262
-0.116303
0.156942
0.000234149
0.000590522
0.00119409
-0.00010057
0.00314307
-0.00245083
0.00632134
-0.00635313
0.0109211
-0.0117101
0.0170494
-0.0183771
0.0246909
-0.0261303
0.0336836
-0.0346596
0.0437222
-0.0435895
0.0543904
-0.052523
0.0652177
-0.0610944
0.0757465
-0.0690157
0.0855939
-0.076106
0.0944973
-0.0823001
0.102334
-0.0876373
0.109117
-0.0922359
0.114965
-0.0962597
0.12006
-0.0998848
0.124604
-0.103272
0.12878
-0.106549
0.132735
-0.109803
0.136553
-0.113097
0.140336
-0.116403
-0.119993
0.144027
0.000356577
0.000233945
0.00167637
-0.00142036
0.00421741
-0.00499187
0.00819223
-0.010328
0.0137253
-0.0172432
0.0208049
-0.0254566
0.0292505
-0.0345759
0.0387163
-0.0441253
0.0487349
-0.0536081
0.0587932
-0.0625814
0.0684164
-0.0707176
0.0772388
-0.0778381
0.085046
-0.0839131
0.0917814
-0.0890356
0.0975223
-0.0933783
0.102434
-0.0971479
0.10672
-0.100545
0.110575
-0.103739
0.114158
-0.106855
0.117583
-0.109974
0.120924
-0.113144
0.124219
-0.116391
0.127515
-0.1197
-0.123224
0.130746
0.000491109
-0.000257164
0.00219352
-0.00312277
0.00533948
-0.00813783
0.0100791
-0.0150676
0.0164215
-0.0235855
0.0241878
-0.033223
0.0330081
-0.0433962
0.0423729
-0.0534901
0.0517268
-0.0629621
0.0605721
-0.0714267
0.0685493
-0.0786948
0.0754758
-0.0847645
0.0813396
-0.0897769
0.0862587
-0.0939547
0.090424
-0.0975436
0.0940436
-0.100768
0.0973027
-0.103805
0.100343
-0.10678
0.103262
-0.109774
0.106119
-0.11283
0.108948
-0.115972
0.111765
-0.119209
0.114595
-0.12253
-0.126016
0.117387
0.000637532
-0.000894696
0.00273397
-0.00521921
0.00646489
-0.0118687
0.0118747
-0.0204774
0.0188105
-0.0305213
0.0269002
-0.0413127
0.0356033
-0.0520993
0.0443199
-0.0622067
0.0525164
-0.0711585
0.0598196
-0.0787298
0.0660561
-0.0849313
0.0712364
-0.0899448
0.0755009
-0.0940414
0.0790535
-0.0975073
0.0821039
-0.100594
0.0848302
-0.103494
0.087364
-0.106338
0.0897922
-0.109208
0.0921667
-0.112148
0.0945164
-0.11518
0.0968565
-0.118312
0.0991933
-0.121546
0.101537
-0.124874
-0.128329
0.10385
0.000792387
-0.00168708
0.00327552
-0.00770234
0.0075293
-0.0161225
0.0134479
-0.026396
0.0206857
-0.0377591
0.0286891
-0.0493161
0.0368132
-0.0602233
0.0444708
-0.0698644
0.0512495
-0.0779372
0.0569588
-0.0844391
0.0616094
-0.0895819
0.0653495
-0.0936849
0.06839
-0.0970819
0.0709429
-0.10006
0.0731842
-0.102835
0.0752412
-0.105551
0.0771962
-0.108293
0.0790974
-0.111109
0.080971
-0.114022
0.0828306
-0.11704
0.0846829
-0.120165
0.0865312
-0.123394
0.0883804
-0.126723
-0.130155
0.0902068
0.000948498
-0.00263558
0.00378577
-0.0105396
0.00845448
-0.0207913
0.0146637
-0.0326052
0.0218746
-0.04497
0.0294047
-0.0568462
0.036598
-0.0674166
0.0429734
-0.0762398
0.0482928
-0.0832566
0.0525432
-0.0886896
0.0558671
-0.0929059
0.0584781
-0.096296
0.0605927
-0.0991964
0.0623897
-0.101857
0.0639977
-0.104443
0.0654983
-0.107051
0.0669389
-0.109734
0.0683446
-0.112515
0.0697287
-0.115406
0.0710978
-0.118409
0.0724556
-0.121522
0.073804
-0.124742
0.0751444
-0.128064
-0.131475
0.0764639
0.00109585
-0.00373143
0.00422669
-0.0136705
0.00916164
-0.0257262
0.0154105
-0.0388541
0.0222756
-0.0518351
0.0290255
-0.0635962
0.0350819
-0.073473
0.0401238
-0.0812817
0.0440866
-0.0872194
0.0470905
-0.0916934
0.049346
-0.0951613
0.0510754
-0.0980254
0.0524656
-0.100587
0.0536508
-0.103042
0.0547164
-0.105509
0.0557113
-0.108046
0.0566615
-0.110684
0.0575802
-0.113434
0.0584745
-0.1163
0.0593482
-0.119283
0.0602035
-0.122378
0.0610417
-0.125581
0.0618627
-0.128885
-0.132274
0.0626619
0.00122363
-0.00495506
0.0045621
-0.0170089
0.00958704
-0.0307511
0.015622
-0.044889
0.0218726
-0.0580857
0.0276423
-0.0693659
0.0324901
-0.0783207
0.0362641
-0.0850557
0.0390386
-0.0899939
0.0410107
-0.0936656
0.042408
-0.0965586
0.0434288
-0.0990462
0.0442185
-0.101376
0.0448699
-0.103694
0.0454366
-0.106075
0.0459466
-0.108556
0.0464141
-0.111152
0.0468466
-0.113866
0.0472485
-0.116702
0.0476223
-0.119656
0.0479695
-0.122725
0.0482907
-0.125902
0.0485841
-0.129178
-0.132539
0.0488494
0.00132464
-0.0062797
0.00476656
-0.0204508
0.00969415
-0.0356787
0.0152855
-0.0504804
0.0207256
-0.0635259
0.0254197
-0.07406
0.0290859
-0.081987
0.0317186
-0.0876884
0.0334827
-0.091758
0.0346047
-0.0947876
0.0352967
-0.0972505
0.0357196
-0.0994692
0.0359791
-0.101636
0.0361361
-0.103851
0.0362227
-0.106162
0.0362548
-0.108588
0.0362405
-0.111137
0.0361845
-0.11381
0.0360901
-0.116608
0.0359595
-0.119526
0.0357944
-0.12256
0.035595
-0.125702
0.0353592
-0.128942
0.0350893
-0.132269
-0.000318034
-0.000770011
0.00108805
-0.00107847
-0.00123365
0.00199409
-0.00217112
-0.000947773
0.00204042
-0.00352293
-0.000150733
0.00150254
-0.0050832
0.000967955
0.000592319
-0.00681564
0.00227857
-0.000546137
-0.0086902
0.00371028
-0.00183571
-0.0106794
0.00524087
-0.00325164
-0.0127552
0.00688212
-0.00480639
-0.0148872
0.00866353
-0.00653145
-0.0170425
0.0106184
-0.00846321
-0.0191834
0.0127744
-0.0106335
-0.0212671
0.0151478
-0.0130641
-0.0232434
0.0177411
-0.0157647
-0.0250538
0.020541
-0.0187306
-0.0266306
0.0235178
-0.021941
-0.0278966
0.0266224
-0.0253565
-0.028766
0.029786
-0.0289166
-0.0291463
0.0329178
-0.0325375
-0.0289415
0.0359076
-0.0361124
-0.0280572
0.0386299
-0.0395142
-0.0264073
0.0409481
-0.042598
-0.0239308
0.0427289
-0.0452055
0.0438935
-0.0206234
-0.0472008
-0.000284224
-0.000485787
-0.000956142
-0.000561727
-0.00190934
5.42211e-06
-0.00307283
0.00101276
-0.00439797
0.00229309
-0.00584881
0.00372941
-0.00739393
0.00525539
-0.00900098
0.00684792
-0.0106336
0.00851474
-0.0122502
0.0102801
-0.0138037
0.0121719
-0.0152412
0.0142119
-0.0165037
0.0164104
-0.0175252
0.0187625
-0.0182317
0.0212476
-0.0185418
0.0238279
-0.0183667
0.0264473
-0.0176119
0.0290311
-0.0161799
0.0314858
-0.0139684
0.0336961
-0.0108871
0.0355485
-0.00684854
0.0369095
-0.00178037
0.0376608
0.0377876
0.00432552
-0.000233869
-0.000251918
-0.000780188
-1.54084e-05
-0.00154078
0.000766013
-0.00244738
0.00191937
-0.00345211
0.00329781
-0.00451806
0.00479537
-0.00561118
0.00634852
-0.00669423
0.00793097
-0.00772333
0.00954384
-0.00864679
0.0112036
-0.00940532
0.0129304
-0.00993273
0.0147393
-0.0101566
0.0166342
-0.00999865
0.0186046
-0.00937347
0.0206224
-0.0081932
0.0226476
-0.00636487
0.024619
-0.00379403
0.0264603
-0.000387852
0.0280796
0.00393213
0.0293762
0.00925542
0.0302252
0.0156484
0.0305166
0.0231661
0.0301431
0.0290217
0.031932
-0.000179573
-7.23444e-05
-0.000590405
0.000395423
-0.00114186
0.00131747
-0.00176661
0.00254411
-0.00241507
0.00394628
-0.00304759
0.00542788
-0.00362665
0.00692758
-0.00411077
0.00841509
-0.00445076
0.00988384
-0.00458821
0.011341
-0.00445579
0.012798
-0.0039787
0.0142622
-0.00307577
0.0157313
-0.00166123
0.01719
0.00035082
0.0186104
0.00305308
0.0199453
0.00653483
0.0211373
0.0108817
0.0221135
0.0161725
0.0227888
0.0224809
0.0230678
0.0298597
0.0228464
0.0383611
0.0220152
0.0479907
0.0205135
0.0180264
0.058986
-0.000133459
6.11144e-05
-0.00042517
0.000687135
-0.000787656
0.00167995
-0.00115075
0.00290721
-0.00146023
0.00425575
-0.00167151
0.00563916
-0.00174276
0.00699883
-0.00162892
0.00830125
-0.00127794
0.00953286
-0.000628802
0.0106919
0.00038827
0.0117809
0.00185075
0.0127998
0.00384128
0.0137408
0.00644563
0.0145857
0.00975201
0.015304
0.0138448
0.0158525
0.0188059
0.0161762
0.0247106
0.0162088
0.0316254
0.015874
0.0396058
0.0150874
0.048689
0.0137632
0.0589322
0.011772
0.0702573
0.00918837
0.00519373
0.0830899
-0.000104502
0.000165617
-0.000313997
0.000896629
-0.000536765
0.00190272
-0.000695719
0.00306617
-0.000729141
0.00428918
-0.000585624
0.00549564
-0.000218126
0.00663133
0.000421425
0.0076617
0.00138671
0.00856757
0.00273854
0.00934007
0.00454538
0.0099741
0.00688214
0.010463
0.00982846
0.0107945
0.0134664
0.0109478
0.017878
0.0108924
0.023143
0.0105874
0.029337
0.00998221
0.0365291
0.00901664
0.0447831
0.00762004
0.0541553
0.00571512
0.0646764
0.00324213
0.0764459
2.59815e-06
0.0892897
-0.00365548
-0.00940789
0.103891
-9.69769e-05
0.000262594
-0.000270271
0.00106992
-0.000416316
0.00204877
-0.000447463
0.00309731
-0.000292389
0.0041341
0.000108554
0.0050947
0.000808747
0.00593114
0.00186078
0.00660967
0.00332009
0.00710827
0.00524767
0.00741249
0.00771088
0.00751089
0.0107831
0.00739083
0.0145423
0.00703519
0.0190701
0.00642
0.0244494
0.00551304
0.0307636
0.00427331
0.0380945
0.00265131
0.0465173
0.000593785
0.056115
-0.00197761
0.0669584
-0.00512831
0.0790875
-0.00888696
0.0926548
-0.0135647
0.107368
-0.0183682
-0.0260447
0.124004
-0.000108513
0.000371107
-0.000286094
0.0012475
-0.000410919
0.00217359
-0.000381948
0.00306834
-0.000116541
0.00386869
0.000455403
0.00452276
0.00139611
0.00499043
0.0027661
0.00523968
0.00462789
0.00524647
0.00704903
0.00499136
0.0101036
0.0044563
0.0138728
0.00362164
0.0184443
0.0024637
0.0239111
0.000953239
0.0303701
-0.000946033
0.0379201
-0.0032767
0.0466577
-0.00608621
0.0566784
-0.00942697
0.068054
-0.0133532
0.0808539
-0.0179282
0.0950921
-0.0231252
0.110828
-0.0293009
0.127788
-0.0353275
-0.0445939
0.146337
-0.000129994
0.000501101
-0.000331545
0.00144905
-0.000460541
0.00230259
-0.000399953
0.00300775
-5.25051e-05
0.00352125
0.000664993
0.00380526
0.00183099
0.00382443
0.00352189
0.00354877
0.00581761
0.00295075
0.00880424
0.00200473
0.0125758
0.00068474
0.0172338
-0.00103638
0.0228855
-0.00318804
0.0296408
-0.00580199
0.0376064
-0.00891164
0.04688
-0.0125504
0.0575429
-0.0167491
0.0696499
-0.0215339
0.0832168
-0.0269201
0.0982107
-0.0329222
0.114548
-0.0394622
0.132027
-0.0467806
0.150506
-0.0538057
-0.0635486
0.16946
-0.000147385
0.000648486
-0.000360826
0.00166249
-0.000472645
0.00241441
-0.000347052
0.00288216
0.000132548
0.00304164
0.00107177
0.00286604
0.00257197
0.00232423
0.00473642
0.00138433
0.00767365
1.35139e-05
0.0114967
-0.00181837
0.0163243
-0.0041428
0.0222744
-0.00698648
0.0294586
-0.0103722
0.0379729
-0.0143164
0.0478881
-0.0188268
0.0592388
-0.023901
0.0720133
-0.0295236
0.0861453
-0.035666
0.101505
-0.04228
0.117896
-0.0493127
0.135071
-0.0566379
0.152602
-0.0643113
0.170421
-0.0716241
-0.0803983
0.18727
-0.000146041
0.000794527
-0.000325958
0.00184241
-0.000349812
0.00243826
-5.87297e-05
0.00259108
0.00068736
0.00229555
0.00202375
0.00152965
0.00408327
0.000264709
0.00700044
-0.00153284
0.0109103
-0.00389635
0.0159456
-0.00685372
0.0222266
-0.0104237
0.0298514
-0.0146114
0.0388844
-0.0194052
0.0493434
-0.0247753
0.0611896
-0.030673
0.0743202
-0.0370317
0.0885651
-0.0437685
0.103689
-0.0507896
0.119394
-0.0579849
0.135345
-0.0652643
0.151177
-0.0724693
0.166495
-0.0796293
0.181147
-0.0862763
-0.0932175
0.193966
-0.000116095
-0.000193282
-2.1828e-05
0.000578381
0.0017796
0.00374642
0.00663998
0.0106158
0.0158149
0.0223515
0.0302989
0.0396748
0.0504298
0.0624407
0.07551
0.089372
0.103705
0.118151
0.132334
0.145893
0.158499
0.169954
0.18016
0.189451
-0.0143016
0.0592459
-0.0655678
-0.0067963
0.0576961
-0.0652013
0.00179496
0.0531967
-0.0617879
0.0113189
0.045434
-0.054958
0.0215227
0.0341455
-0.0443492
0.0320069
0.0191919
-0.0296761
0.0426004
0.000683296
-0.0112768
0.0530633
-0.0211055
0.0106425
0.0632624
-0.0456715
0.0354725
0.0730899
-0.0717327
0.0619052
0.0822924
-0.0971755
0.087973
0.0903558
-0.119327
0.111264
0.0966753
-0.1359
0.12958
0.10081
-0.145919
0.141784
0.102417
-0.149943
0.148336
0.100975
-0.15012
0.151562
0.0962451
-0.150011
0.15474
0.0895281
-0.152082
0.158799
0.0840419
-0.15354
0.159027
0.083291
-0.145504
0.146255
0.08863
-0.118574
0.113235
0.0988801
-0.0706052
0.0603551
0.111693
-0.00877624
-0.00403639
0.124738
0.0548442
-0.0678897
0.13598
0.108505
-0.119746
0.144073
0.146237
-0.15433
0.148889
0.168435
-0.173251
0.151082
0.178553
-0.180746
0.150672
0.182958
-0.182547
0.14691
0.190849
-0.187088
0.140172
0.20532
-0.198582
0.133221
0.213951
-0.207
0.129587
0.192466
-0.188833
0.130986
0.129028
-0.130427
0.136636
0.0336969
-0.0393467
0.144028
-0.0628811
0.0554893
0.150961
-0.1393
0.132367
0.15607
-0.184181
0.179072
0.157998
-0.205593
0.203665
0.155248
-0.218873
0.221623
0.147934
-0.231244
0.238558
0.1393
-0.238
0.246634
0.133847
-0.203609
0.209062
0.134388
-0.131761
0.13122
0.14003
-0.0172796
0.0116374
0.147622
0.0807378
-0.0883302
0.152434
0.16328
-0.168092
0.151368
0.222866
-0.2218
0.145572
0.258935
-0.253139
0.139938
0.283948
-0.278314
0.138805
0.204992
-0.203859
0.142869
0.126424
-0.130488
0.147181
-0.0265553
0.0222438
0.147898
-0.128727
0.12801
0.145425
-0.217672
0.220144
0.143136
-0.326836
0.329126
0.142506
-0.229911
0.230541
0.142325
-0.232116
0.232297
0.1409
0.00680143
-0.00537617
0.183979
-0.182017
0.0119332
0.0516383
0.0202967
0.0493326
0.0292763
0.044217
0.0386685
0.0360418
0.048192
0.0246219
0.0575963
0.00978764
0.0666534
-0.0083738
0.0753033
-0.0297554
0.0834572
-0.0538255
0.0910142
-0.0792896
0.097695
-0.103856
0.103026
-0.124658
0.106515
-0.139388
0.107915
-0.147319
0.107263
-0.149291
0.104363
-0.14722
0.0986205
-0.144268
0.0902909
-0.143752
0.0818844
-0.145134
0.0774884
-0.141108
0.0799986
-0.121085
0.0891653
-0.0797718
0.102629
-0.0222398
0.117389
0.0400842
0.130811
0.0950829
0.141178
0.135871
0.14815
0.161463
0.152133
0.174569
0.153035
0.182056
0.15038
0.193504
0.144904
0.210796
0.139215
0.21964
0.136211
0.195471
0.137215
0.128024
0.141693
0.0292183
0.147433
-0.068621
0.152566
-0.144433
0.156031
-0.187646
0.156803
-0.206365
0.153433
-0.215503
0.145686
-0.223496
0.136636
-0.22895
0.131022
-0.197996
0.13203
-0.13277
0.138656
-0.0239048
0.147203
0.0721907
0.152704
0.157779
0.152044
0.223526
0.146596
0.264383
0.141003
0.289541
0.139628
0.206367
0.143522
0.122529
0.147783
-0.0308159
0.148487
-0.129431
0.14573
-0.214914
0.143293
-0.3244
0.142515
-0.229133
0.142102
-0.231702
0.140541
0.00836227
0.185983
0.0399906
0.0435797
0.0485336
0.0407895
0.0573104
0.0354403
0.0660774
0.0272748
0.0745869
0.0161123
0.0826422
0.00173241
0.0901417
-0.0158733
0.0969797
-0.0365935
0.103107
-0.0599533
0.108381
-0.0845636
0.112494
-0.107969
0.11505
-0.127214
0.115741
-0.140079
0.114527
-0.146105
0.111716
-0.14648
0.1075
-0.143004
0.101279
-0.138047
0.0923986
-0.134872
0.082164
-0.134899
0.0745001
-0.133444
0.0736324
-0.120217
0.0808483
-0.0869878
0.0941278
-0.0355193
0.110073
0.0241392
0.125368
0.0797874
0.137929
0.12331
0.147095
0.152297
0.152956
0.168709
0.155359
0.179653
0.154115
0.194748
0.150171
0.214741
0.145793
0.224017
0.143273
0.197992
0.14369
0.127606
0.146687
0.0262216
0.150697
-0.0726309
0.154012
-0.147748
0.155859
-0.189493
0.155548
-0.206054
0.151735
-0.21169
0.143789
-0.21555
0.134462
-0.219622
0.128656
-0.19219
0.129969
-0.134083
0.137393
-0.0313289
0.146786
0.0627977
0.153004
0.151561
0.15286
0.223669
0.147859
0.269384
0.142337
0.295064
0.140657
0.208047
0.14431
0.118876
0.148499
-0.0350053
0.1492
-0.130132
0.146131
-0.211846
0.143503
-0.321771
0.142609
-0.228239
0.14202
-0.231113
0.140354
0.0100279
0.188017
0.0670265
0.0355393
0.0752987
0.0325172
0.0835494
0.0271896
0.0915156
0.0193086
0.0988981
0.00872987
0.10584
-0.00520983
0.111939
-0.0219721
0.117211
-0.0418649
0.121523
-0.0642654
0.124643
-0.0876836
0.126227
-0.109554
0.125993
-0.12698
0.123924
-0.13801
0.120279
-0.14246
0.115518
-0.141719
0.110105
-0.13759
0.10375
-0.131692
0.0952892
-0.126411
0.0845976
-0.124208
0.0745688
-0.123416
0.0701094
-0.115758
0.0743901
-0.0912685
0.0864446
-0.0475737
0.102865
0.00771849
0.11963
0.0630223
0.134241
0.108699
0.145591
0.140947
0.153401
0.160899
0.157494
0.175561
0.15793
0.194311
0.155724
0.216947
0.152692
0.227049
0.15053
0.200154
0.150136
0.128001
0.151583
0.0247748
0.153759
-0.0748075
0.155293
-0.149282
0.155566
-0.189766
0.154218
-0.204706
0.150089
-0.207561
0.142169
-0.20763
0.132732
-0.210186
0.126714
-0.186172
0.128146
-0.135515
0.136182
-0.0393649
0.146327
0.0526533
0.153303
0.144585
0.1538
0.223173
0.149362
0.273821
0.143959
0.300468
0.141919
0.210087
0.145234
0.115562
0.149315
-0.0390864
0.150023
-0.13084
0.146625
-0.208448
0.143754
-0.318901
0.142776
-0.227261
0.142067
-0.230404
0.140331
0.011764
0.190066
0.0909507
0.0276784
0.0987834
0.0246846
0.106423
0.0195502
0.113665
0.0120662
0.120244
0.00215079
0.126231
-0.0111969
0.131312
-0.0270525
0.135339
-0.0458927
0.138056
-0.0669817
0.139111
-0.0887389
0.138189
-0.108631
0.135233
-0.124025
0.13058
-0.133357
0.124808
-0.136688
0.11848
-0.135391
0.112083
-0.131194
0.105663
-0.125272
0.0981531
-0.118902
0.0883156
-0.11437
0.0773543
-0.112454
0.0697759
-0.108179
0.0703521
-0.0918447
0.0800038
-0.0572253
0.0959602
-0.00823794
0.113622
0.0453603
0.130007
0.0923147
0.143431
0.127522
0.153215
0.151114
0.15915
0.169625
0.161494
0.191968
0.161194
0.217247
0.159569
0.228674
0.157727
0.201996
0.156427
0.1293
0.156164
0.0250374
0.156535
-0.0751787
0.156351
-0.149097
0.155124
-0.18854
0.152789
-0.202372
0.148445
-0.203217
0.140748
-0.199933
0.131383
-0.20082
0.125156
-0.179945
0.126522
-0.136881
0.134951
-0.0477939
0.145764
0.0418399
0.153553
0.136796
0.154828
0.221898
0.151086
0.277563
0.145861
0.305693
0.143426
0.212522
0.146293
0.112695
0.150211
-0.043004
0.150938
-0.131568
0.147203
-0.204713
0.144041
-0.315738
0.143005
-0.226226
0.142228
-0.229626
0.140458
0.0135336
0.192109
0.111429
0.0201404
0.118819
0.0172951
0.125949
0.0124196
0.132478
0.00553758
0.138832
-0.00420294
0.143962
-0.0163268
0.148148
-0.0312388
0.150995
-0.0487395
0.152109
-0.068096
0.151088
-0.0877174
0.147738
-0.105282
0.142294
-0.11858
0.135409
-0.126472
0.127915
-0.129193
0.120461
-0.127937
0.113427
-0.12416
0.106966
-0.118811
0.100444
-0.112379
0.0922849
-0.106211
0.0819889
-0.102158
0.0725257
-0.098716
0.0692661
-0.0885852
0.0754529
-0.0634122
0.0895226
-0.0223076
0.107412
0.0274704
0.125126
0.0746009
0.140394
0.112255
0.152104
0.139404
0.159979
0.16175
0.164387
0.18756
0.166135
0.215499
0.16601
0.228799
0.164527
0.203479
0.162317
0.13151
0.160337
0.027018
0.158942
-0.0737837
0.157129
-0.147284
0.1545
-0.18591
0.151227
-0.199099
0.146735
-0.198725
0.139424
-0.192622
0.130312
-0.191709
0.123906
-0.173539
0.12502
-0.137995
0.13364
-0.0564136
0.145025
0.0304539
0.153687
0.128134
0.155888
0.219697
0.152985
0.280466
0.148016
0.310663
0.145166
0.215371
0.147481
0.110379
0.151164
-0.0466866
0.151924
-0.132328
0.147857
-0.200645
0.144354
-0.312236
0.143285
-0.225157
0.142487
-0.228828
0.140724
0.0152965
0.194124
0.130731
0.0134134
0.137423
0.0106037
0.143858
0.00598474
0.149933
-0.000538005
0.155306
-0.00957526
0.159631
-0.0206523
0.162695
-0.034303
0.164069
-0.0501137
0.163314
-0.0673409
0.160092
-0.084495
0.154425
-0.0996154
0.146839
-0.110994
0.13822
-0.117854
0.12951
-0.120483
0.121375
-0.119802
0.114075
-0.11686
0.107667
-0.112403
0.101897
-0.106609
0.095557
-0.0998713
0.0871605
-0.0937617
0.0775748
-0.0891302
0.071272
-0.0822825
0.0731946
-0.0653347
0.0842064
-0.0333194
0.101194
0.0104827
0.119563
0.0562321
0.136311
0.0955066
0.149811
0.125905
0.159645
0.151915
0.166207
0.180998
0.170098
0.211608
0.171545
0.227352
0.170498
0.204526
0.167524
0.134484
0.164008
0.0305336
0.160893
-0.0706678
0.157561
-0.143953
0.153652
-0.182001
0.149496
-0.194944
0.144894
-0.194122
0.138089
-0.185817
0.1294
-0.18302
0.122872
-0.16701
0.123576
-0.138698
0.132177
-0.0650148
0.144034
0.0185973
0.153627
0.118541
0.156904
0.216419
0.154991
0.282379
0.150368
0.315286
0.147118
0.218621
0.14878
0.108717
0.152149
-0.0500554
0.152955
-0.133134
0.148571
-0.196261
0.144687
-0.308352
0.143602
-0.224072
0.142827
-0.228052
0.141112
0.0170109
0.196079
0.151423
0.00832726
0.156765
0.00526162
0.161772
0.000977286
0.166709
-0.00547436
0.170503
-0.0133695
0.173311
-0.0234599
0.174618
-0.0356107
0.173994
-0.0494894
0.171047
-0.0643939
0.165603
-0.0790507
0.157921
-0.0919333
0.148729
-0.101802
0.139006
-0.10813
0.129653
-0.11113
0.121258
-0.111408
0.114
-0.109602
0.107802
-0.106204
0.102541
-0.101348
0.0976188
-0.0949489
0.0915533
-0.0876962
0.0835187
-0.0810956
0.0758975
-0.0746613
0.0737993
-0.0632366
0.080598
-0.0401181
0.0953184
-0.00423771
0.11337
0.0381801
0.131074
0.0778026
0.146136
0.110843
0.157876
0.140175
0.166592
0.172281
0.172641
0.205559
0.175712
0.224282
0.175247
0.20499
0.171765
0.137966
0.166938
0.0353608
0.162279
-0.0660091
0.157564
-0.139238
0.152526
-0.176963
0.147552
-0.18997
0.142851
-0.189421
0.136636
-0.179602
0.128516
-0.1749
0.121942
-0.160436
0.12212
-0.138876
0.130495
-0.0733902
0.142711
0.00638161
0.153281
0.107971
0.15778
0.21192
0.157008
0.283151
0.152845
0.319449
0.149232
0.222234
0.150165
0.107784
0.153137
-0.053027
0.154002
-0.133999
0.149327
-0.191586
0.145032
-0.304057
0.143948
-0.222988
0.143232
-0.227337
0.14161
0.0186331
0.19794
0.172341
0.00544683
0.175536
0.00206653
0.178876
-0.00236328
0.181317
-0.00791443
0.18299
-0.0150427
0.18358
-0.0240504
0.182604
-0.0346345
0.179687
-0.0465722
0.174559
-0.0592664
0.167233
-0.0717244
0.158135
-0.0828353
0.148054
-0.0917215
0.137905
-0.0979816
0.128453
-0.101678
0.120154
-0.103108
0.113133
-0.102582
0.10727
-0.100341
0.102418
-0.0964958
0.0983816
-0.0909127
0.0942915
-0.0836061
0.0887178
-0.0755219
0.0818341
-0.0677776
0.077194
-0.0585964
0.0795312
-0.0424553
0.0903096
-0.015016
0.106802
0.0216877
0.124659
0.0599451
0.140913
0.0945901
0.154423
0.126665
0.165294
0.16141
0.173581
0.197272
0.178342
0.219521
0.17854
0.204792
0.174781
0.141725
0.168964
0.0411779
0.162991
-0.0600361
0.157039
-0.133285
0.151033
-0.170957
0.145326
-0.184264
0.140523
-0.184618
0.134952
-0.174031
0.127532
-0.16748
0.120996
-0.1539
0.12057
-0.138451
0.128538
-0.0813577
0.140986
-0.00606649
0.152558
0.0963983
0.158414
0.206064
0.158938
0.282628
0.155349
0.323038
0.151457
0.226126
0.151602
0.107639
0.154097
-0.0555223
0.155029
-0.134931
0.150108
-0.186665
0.145382
-0.299331
0.144314
-0.221919
0.143686
-0.226709
0.142201
0.0201174
0.199666
0.188244
0.00447347
0.189483
0.000826973
0.190289
-0.00316929
0.190388
-0.00801366
0.189855
-0.0145094
0.18819
-0.0223854
0.185049
-0.0314934
0.180167
-0.0416906
0.173416
-0.0525151
0.164943
-0.0632515
0.15523
-0.0731224
0.144999
-0.0814899
0.135007
-0.0879901
0.125852
-0.0925229
0.117873
-0.0951293
0.111175
-0.0958831
0.105679
-0.094845
0.101234
-0.0920511
0.0977584
-0.0874371
0.0949697
-0.0808175
0.0917971
-0.0723493
0.087137
-0.0631174
0.0822036
-0.0536631
0.0810799
-0.0413316
0.0872637
-0.0211999
0.100583
0.0083681
0.117334
0.0431944
0.134122
0.0778018
0.149136
0.111652
0.162019
0.148527
0.172437
0.186855
0.178965
0.212993
0.180104
0.203653
0.1764
0.145429
0.170045
0.0475323
0.162992
-0.0529829
0.155922
-0.126215
0.149101
-0.164135
0.142773
-0.177936
0.137847
-0.179692
0.132945
-0.169129
0.126351
-0.160886
0.119938
-0.147487
0.118848
-0.137361
0.126237
-0.0887469
0.138815
-0.0186444
0.151373
0.0838406
0.158686
0.198751
0.160641
0.280673
0.157774
0.325905
0.153709
0.230192
0.153063
0.108285
0.155003
-0.0574619
0.156002
-0.13593
0.150893
-0.181556
0.145736
-0.294174
0.144698
-0.220881
0.144173
-0.226184
0.142875
0.0214154
0.201212
0.194133
0.00430622
0.193824
0.00113617
0.192902
-0.0022473
0.191505
-0.00661639
0.189369
-0.0123734
0.186162
-0.0191779
0.181664
-0.0269962
0.175714
-0.0357402
0.168286
-0.0450874
0.159591
-0.0545563
0.150073
-0.0636041
0.14032
-0.0717374
0.130917
-0.0785872
0.122314
-0.0839193
0.114774
-0.0875898
0.108401
-0.0895104
0.10319
-0.0896335
0.0990603
-0.0879214
0.0959381
-0.0843149
0.0938086
-0.078688
0.0922623
-0.070803
0.0901248
-0.0609799
0.0868195
-0.0503578
0.0843958
-0.038908
0.0866654
-0.0234694
0.0957988
-0.000765336
0.109884
0.0291097
0.126086
0.0615989
0.142106
0.0956319
0.156981
0.133652
0.169777
0.174059
0.178199
0.204571
0.180171
0.201681
0.176803
0.148797
0.170309
0.0540264
0.162509
-0.0451823
0.154428
-0.118135
0.146914
-0.156621
0.140079
-0.171101
0.134962
-0.174575
0.130661
-0.164828
0.124979
-0.155204
0.118759
-0.141267
0.116948
-0.135549
0.123592
-0.0953907
0.136113
-0.0311656
0.149634
0.070319
0.158528
0.189857
0.162049
0.277152
0.160011
0.327943
0.155926
0.234276
0.154513
0.109697
0.155845
-0.0587942
0.1569
-0.136985
0.151671
-0.176327
0.146104
-0.288607
0.145099
-0.219876
0.144682
-0.225767
0.143618
0.022479
0.202532
0.18924
0.00451793
0.18826
0.0021163
0.186874
-0.000861495
0.184978
-0.0047203
0.182238
-0.0096337
0.178548
-0.0154881
0.173792
-0.02224
0.167866
-0.0298146
0.160803
-0.0380239
0.152807
-0.0465607
0.14424
-0.0550367
0.135545
-0.0630425
0.127151
-0.0701937
0.119396
-0.0761637
0.112497
-0.080691
0.106564
-0.0835772
0.101631
-0.0847009
0.0976933
-0.0839834
0.094706
-0.0813276
0.092704
-0.076686
0.0917332
-0.0698322
0.0912131
-0.0604598
0.0900061
-0.0491507
0.0882224
-0.0371243
0.08835
-0.0235971
0.093119
-0.00553438
0.10356
0.0186689
0.117546
0.0476128
0.133089
0.080089
0.148941
0.1178
0.163714
0.159286
0.174172
0.194113
0.177759
0.198094
0.17569
0.150866
0.170028
0.0596889
0.161583
-0.0367381
0.152631
-0.109182
0.144642
-0.148633
0.137464
-0.163923
0.13208
-0.169191
0.128209
-0.160957
0.12346
-0.150455
0.117488
-0.135296
0.114943
-0.133005
0.120775
-0.101222
0.133005
-0.0433957
0.147284
0.0560399
0.157713
0.179428
0.162914
0.271951
0.161917
0.32894
0.158024
0.23817
0.155915
0.111806
0.156596
-0.0594753
0.157696
-0.138085
0.152426
-0.171057
0.14648
-0.282662
0.145494
-0.21889
0.145211
-0.225483
0.144423
0.0232664
0.203576
0.20844
0.00445747
-0.20838
0.208844
0.00171218
0.209348
-0.00136483
0.209722
-0.00509445
0.209791
-0.0097027
0.209415
-0.0151124
0.208433
-0.0212574
0.206672
-0.0280543
0.204004
-0.0353557
0.200378
-0.0429348
0.195832
-0.050491
0.190476
-0.0576859
0.184458
-0.0641762
0.177944
-0.0696498
0.1711
-0.0738464
0.164083
-0.0765602
0.157034
-0.0776523
0.150083
-0.0770319
0.143312
-0.0745572
0.136779
-0.0701527
0.130646
-0.0636992
0.124946
-0.05476
0.119039
-0.0432435
0.112186
-0.0302711
0.105194
-0.0166057
0.100611
-0.000951038
0.099942
0.0193381
0.103453
0.0441022
0.109684
0.0738573
0.11734
0.110144
0.125821
0.150804
0.135247
0.184688
0.147636
0.185704
0.163107
0.135395
0.175896
0.0468994
0.181838
-0.0426798
0.180673
-0.108018
0.174963
-0.142922
0.166793
-0.155754
0.158493
-0.160891
0.151153
-0.153617
0.143298
-0.1426
0.134365
-0.126362
0.12739
-0.12603
0.126387
-0.100219
0.130193
-0.0472011
0.13516
0.0510727
0.13855
0.176038
0.14075
0.269751
0.143071
0.326618
0.146324
0.234917
0.150484
0.107647
0.154392
-0.0633837
0.155457
-0.13915
0.150221
-0.165821
0.142443
-0.274884
0.138558
-0.215004
0.135
-0.221925
0.131825
0.0264414
0.204829
0.218633
0.00438101
-0.218557
0.218869
0.00147667
0.219218
-0.00171398
0.219436
-0.0053124
0.21928
-0.00954661
0.218639
-0.0144721
0.217404
-0.0200223
0.215454
-0.0261038
0.212691
-0.0325926
0.209067
-0.0393113
0.204598
-0.0460213
0.199356
-0.0524436
0.193462
-0.0582825
0.18707
-0.0632583
0.180352
-0.0671278
0.173479
-0.0696872
0.166603
-0.0707765
0.159853
-0.0702824
0.153337
-0.0680403
0.147104
-0.0639201
0.14124
-0.057835
0.135914
-0.0494338
0.130928
-0.0382582
0.125493
-0.0248354
0.119307
-0.0104198
0.113559
0.00479705
0.110764
0.0221329
0.111997
0.0428692
0.117092
0.0687622
0.124972
0.102264
0.134544
0.141232
0.146024
0.173207
0.161205
0.170524
0.178378
0.118222
0.19151
0.0337678
0.196333
-0.0475027
0.193723
-0.105408
0.186741
-0.13594
0.177668
-0.146681
0.168641
-0.151863
0.160907
-0.145883
0.153149
-0.134842
0.144126
-0.11734
0.136533
-0.118437
0.13483
-0.0985159
0.138378
-0.0507491
0.143758
0.0456927
0.147896
0.1719
0.151157
0.26649
0.154632
0.323144
0.158572
0.230977
0.162736
0.103483
0.166129
-0.0667769
0.166906
-0.139927
0.160893
-0.159808
0.152122
-0.266113
0.147704
-0.210586
0.143804
-0.218025
0.140413
0.0298324
0.206067
0.22827
0.00410465
-0.227994
0.228512
0.00123473
0.2287
-0.00190178
0.228715
-0.0053271
0.228388
-0.00921923
0.227589
-0.013674
0.226226