/*--------------------------------*- C++ -*----------------------------------*\
| =========                 |                                                 |
| \\      /  F ield         | OpenFOAM: The Open Source CFD Toolbox           |
|  \\    /   O peration     | Version:  2512                                  |
|   \\  /    A nd           | Website:  www.openfoam.com                      |
|    \\/     M anipulation  |                                                 |
\*---------------------------------------------------------------------------*/
FoamFile
{
    version     2.0;
    format      ascii;
    arch        "LSB;label=32;scalar=64";
    class       surfaceScalarField;
    location    "196";
    object      phi;
}
// * * * * * * * * * * * * * * * * * * * * * * * * * * * * * * * * * * * * * //

dimensions      [0 3 -1 0 0 0 0];

oriented        oriented;

internalField   nonuniform List<scalar> 
26232
(
-3.13019e-05
0.000833622
-0.00080232
7.40808e-05
0.00140873
-0.00151411
0.000513144
0.00110127
-0.00154034
0.00148061
-1.16487e-05
-0.00095582
0.00316763
-0.00190105
0.000214038
0.00575903
-0.00455954
0.00196814
0.00942389
-0.00798595
0.00432108
0.0143049
-0.0121685
0.00728748
0.0205032
-0.0170713
0.0108729
0.0280635
-0.0226251
0.0150649
0.0369617
-0.0287252
0.019827
0.0470996
-0.0352353
0.0250974
0.0583065
-0.0419978
0.0307908
0.0703493
-0.0488464
0.0368036
0.0829494
-0.0556212
0.0430211
0.0958037
-0.0621809
0.0493266
0.108608
-0.0684132
0.055609
0.121079
-0.074242
0.0617712
0.132976
-0.0796279
0.0677309
0.144111
-0.0845785
0.0734429
0.154371
-0.0891038
0.0788446
0.163681
-0.0933439
0.0840337
0.172025
-0.0971494
0.0888047
-0.101166
0.0940507
0.179141
5.75911e-05
0.000776031
0.00042657
0.00103975
0.00131351
0.000214328
0.00292599
-0.00162412
0.00546582
-0.00444089
0.00911798
-0.0082117
0.0140328
-0.0129008
0.0203059
-0.0184416
0.0279581
-0.0247234
0.0369212
-0.0315882
0.0470351
-0.038839
0.0580561
-0.0462563
0.0696778
-0.0536195
0.0815608
-0.0607293
0.0933646
-0.067425
0.10478
-0.0735967
0.115558
-0.0791906
0.125524
-0.0842079
0.134593
-0.088697
0.142759
-0.0927445
0.150104
-0.0964491
0.156719
-0.0999587
0.162822
-0.103252
-0.10682
0.168475
0.000150255
0.000625776
0.000804458
0.000385543
0.00218174
-0.00116295
0.00449853
-0.00394091
0.00795453
-0.00789688
0.0127102
-0.0129674
0.0188591
-0.0190497
0.0264018
-0.0259843
0.0352287
-0.0335503
0.04512
-0.0414796
0.0557637
-0.0494827
0.0667897
-0.0572823
0.0778139
-0.0646437
0.0884819
-0.0713974
0.0985081
-0.0774512
0.107701
-0.0827897
0.115975
-0.0874648
0.123346
-0.0915786
0.129911
-0.0952622
0.135823
-0.0986563
0.141259
-0.101885
0.146377
-0.105077
0.151348
-0.108223
-0.111675
0.156203
0.000249541
0.000376235
0.0012124
-0.000577313
0.00311837
-0.00306893
0.00618192
-0.00700446
0.0105771
-0.012292
0.0164024
-0.0187927
0.0236466
-0.0262939
0.0321667
-0.0345043
0.0416904
-0.043074
0.0518447
-0.0516339
0.0622062
-0.0598441
0.0723594
-0.0674355
0.0819525
-0.0742368
0.0907376
-0.0801825
0.0985898
-0.0853034
0.105505
-0.0897049
0.111578
-0.0935375
0.116967
-0.0969678
0.121857
-0.100153
0.126426
-0.103225
0.130819
-0.106279
0.135131
-0.109389
0.139454
-0.112545
-0.115973
0.143752
0.000359786
1.64482e-05
0.00165762
-0.00187514
0.00412396
-0.00553527
0.00795026
-0.0108308
0.0132495
-0.0175912
0.0200113
-0.0255546
0.0280727
-0.0343553
0.0371196
-0.0435512
0.0467258
-0.0526803
0.0564203
-0.0613284
0.0657624
-0.0691862
0.0744063
-0.0760795
0.0821412
-0.0819717
0.0888999
-0.0869412
0.0947408
-0.0911442
0.0998093
-0.0947734
0.104293
-0.0980215
0.108381
-0.101056
0.112234
-0.104006
0.115971
-0.106961
0.119671
-0.109978
0.123371
-0.11309
0.127114
-0.116288
-0.119709
0.13085
0.000484146
-0.000467698
0.00214201
-0.00353301
0.00518418
-0.00857744
0.00974662
-0.0153932
0.0158365
-0.0236811
0.0232891
-0.0330072
0.0317639
-0.0428301
0.0407902
-0.0525775
0.0498511
-0.0617412
0.0584775
-0.0699548
0.0663228
-0.0770315
0.0732018
-0.0829585
0.0790886
-0.0878585
0.0840829
-0.0919355
0.0883597
-0.095421
0.0921178
-0.0985315
0.0955405
-0.101444
0.0987732
-0.104289
0.101918
-0.10715
0.105037
-0.110081
0.108168
-0.113108
0.111324
-0.116246
0.114526
-0.11949
-0.122911
0.117728
0.000622638
-0.00109034
0.00265582
-0.00556619
0.00625963
-0.0121812
0.011473
-0.0206066
0.0181527
-0.0303608
0.0259528
-0.0408073
0.0343694
-0.0512467
0.0428392
-0.0610473
0.0508544
-0.0697564
0.0580518
-0.0771522
0.0642527
-0.0832324
0.0694527
-0.0881585
0.073775
-0.0921808
0.0774104
-0.0955709
0.080562
-0.0985725
0.0834074
-0.101377
0.0860819
-0.104119
0.0886767
-0.106883
0.0912476
-0.109721
0.0938254
-0.112659
0.0964252
-0.115708
0.0990516
-0.118873
0.101711
-0.122149
-0.125567
0.104368
0.000771027
-0.00186136
0.0031761
-0.00797126
0.00728638
-0.0162915
0.0130006
-0.0263208
0.0199946
-0.0373547
0.0277489
-0.0485617
0.0356548
-0.0591526
0.0431514
-0.0685439
0.0498362
-0.0764411
0.0555131
-0.0828291
0.0601783
-0.0878976
0.0639638
-0.091944
0.0670685
-0.0952855
0.0696986
-0.098201
0.0720298
-0.100904
0.0741928
-0.10354
0.0762736
-0.1062
0.078324
-0.108934
0.0803723
-0.11177
0.0824324
-0.114719
0.0845099
-0.117785
0.0866058
-0.120968
0.0887216
-0.124265
-0.127678
0.0908323
0.00092165
-0.00278301
0.00366971
-0.0107193
0.00818593
-0.0208077
0.0141944
-0.0323293
0.021187
-0.0443473
0.0285175
-0.0558922
0.0355587
-0.0661937
0.041842
-0.0748273
0.0471258
-0.0817249
0.0513838
-0.0870871
0.0547431
-0.0912569
0.0574055
-0.0946063
0.0595813
-0.0974613
0.0614487
-0.100068
0.0631387
-0.102594
0.0647363
-0.105138
0.0662921
-0.107755
0.0678333
-0.110475
0.0693736
-0.11331
0.0709194
-0.116265
0.0724726
-0.119339
0.0740332
-0.122529
0.0755998
-0.125832
-0.129236
0.0771578
0.00106438
-0.00384739
0.0040986
-0.0137535
0.00887951
-0.0255886
0.0149415
-0.0383913
0.0216224
-0.0510282
0.0282229
-0.0624928
0.0341825
-0.0721533
0.0391808
-0.0798255
0.0431422
-0.0856863
0.046172
-0.090117
0.0484689
-0.0935538
0.0502482
-0.0963857
0.0516951
-0.0989082
0.0529455
-0.101319
0.0540875
-0.103736
0.0551728
-0.106223
0.0562292
-0.108812
0.057271
-0.111517
0.058305
-0.114344
0.0593341
-0.117294
0.0603591
-0.120364
0.0613793
-0.123549
0.0623921
-0.126844
-0.130235
0.0633906
0.00118853
-0.00503592
0.00442682
-0.0169918
0.00930309
-0.0304649
0.0151725
-0.0442607
0.0212757
-0.0571315
0.0269408
-0.0681578
0.0317332
-0.0769458
0.0354943
-0.0835866
0.0382849
-0.0884768
0.0402896
-0.0921218
0.0417281
-0.0949922
0.0427957
-0.0974532
0.0436382
-0.0997507
0.0443509
-0.102032
0.0449895
-0.104374
0.0455839
-0.106817
0.0461491
-0.109377
0.0466929
-0.112061
0.0472192
-0.11487
0.0477296
-0.117804
0.0482241
-0.120858
0.0487015
-0.124027
0.0491583
-0.127301
-0.130668
0.049592
0.001287
-0.00632292
0.00462896
-0.0203338
0.00941886
-0.0352548
0.0148699
-0.0497116
0.0201979
-0.0624595
0.0248231
-0.072783
0.0284627
-0.0805854
0.0311002
-0.0862241
0.032888
-0.0902647
0.0340437
-0.0932775
0.0347747
-0.0957232
0.0352415
-0.09792
0.0355509
-0.10006
0.035766
-0.102247
0.0359203
-0.104529
0.0360307
-0.106928
0.0361058
-0.109452
0.0361499
-0.112105
0.036166
-0.114886
0.0361552
-0.117793
0.0361178
-0.120821
0.0360527
-0.123961
0.0359561
-0.127205
0.0358282
-0.13054
-0.000264417
-0.00243231
0.00269673
-0.000942072
-0.00562483
0.00630249
-0.00196006
-0.00762966
0.00864764
-0.00325788
-0.00872417
0.010022
-0.00478502
-0.00915455
0.0106817
-0.00650159
-0.00912566
0.0108422
-0.0083773
-0.00878984
0.0106656
-0.0103891
-0.00824347
0.0102553
-0.0125181
-0.0075317
0.00966075
-0.0147472
-0.00665861
0.00888764
-0.0170581
-0.00559975
0.00791067
-0.0194301
-0.0043139
0.00668595
-0.021839
-0.00275206
0.00516089
-0.024254
-0.000863546
0.00327862
-0.0266117
0.0013896
0.00096803
-0.0289153
0.00404377
-0.00174011
-0.0310888
0.00713019
-0.00495666
-0.033073
0.0106603
-0.00867619
-0.0348024
0.0146282
-0.0128988
-0.0362088
0.0190083
-0.0176019
-0.0372252
0.0237518
-0.0227353
-0.0377901
0.0287871
-0.0282222
-0.0378619
0.0340361
-0.0339643
0.0394346
-0.0374753
-0.0398213
-0.000321058
-0.00211125
-0.00111075
-0.00483514
-0.00225927
-0.00648113
-0.00368356
-0.00729988
-0.0053214
-0.00751671
-0.00712827
-0.00731879
-0.00907307
-0.00684504
-0.011133
-0.00618357
-0.0132886
-0.00537609
-0.0155199
-0.00442731
-0.0178033
-0.00331629
-0.02011
-0.00200721
-0.0224045
-0.000457614
-0.0246367
0.00136865
-0.0267576
0.00351052
-0.0287073
0.00599353
-0.0304115
0.0088343
-0.0317865
0.0120353
-0.0327411
0.0155828
-0.0331786
0.0194458
-0.0330034
0.0235766
-0.0321277
0.0279114
-0.0304705
0.0323789
0.0369453
-0.0279812
-0.000353305
-0.00175794
-0.00120007
-0.00398838
-0.0024024
-0.0052788
-0.00385828
-0.00584401
-0.00549382
-0.00588116
-0.00725755
-0.00555506
-0.00911375
-0.00498884
-0.0110356
-0.00426174
-0.0129988
-0.00341286
-0.014977
-0.00244916
-0.016938
-0.00135529
-0.0188416
-0.000103584
-0.0206374
0.00133815
-0.0222689
0.00300023
-0.0236663
0.0049079
-0.0247501
0.00707729
-0.0254296
0.00951379
-0.0256035
0.0122092
-0.0251611
0.0151405
-0.0239846
0.0182693
-0.0219532
0.0215453
-0.0189527
0.0249108
-0.0148719
0.0282981
0.0317809
-0.00970749
-0.000364997
-0.00139295
-0.00122392
-0.00312945
-0.00241898
-0.00408374
-0.00383264
-0.00443035
-0.00537951
-0.00433429
-0.00699908
-0.00393548
-0.00864789
-0.00334004
-0.0102916
-0.00261804
-0.0118981
-0.00180636
-0.0134321
-0.000915138
-0.0148514
6.40317e-05
-0.0161049
0.00114991
-0.0171314
0.00236467
-0.0178598
0.00372861
-0.0182082
0.00525628
-0.0180846
0.00695373
-0.0173872
0.00881631
-0.0160047
0.0108267
-0.0138177
0.0129535
-0.0106987
0.0151503
-0.00651369
0.0173603
-0.00112387
0.019521
0.00558013
0.0215941
0.0235765
0.0137845
-0.000362456
-0.00103049
-0.00120252
-0.00228939
-0.00234919
-0.00293707
-0.00367279
-0.00310675
-0.00507714
-0.00292995
-0.00649174
-0.00252088
-0.00786349
-0.00196829
-0.00914858
-0.00133294
-0.0103055
-0.000649457
-0.0112895
6.88686e-05
-0.012049
0.000823497
-0.0125233
0.00162424
-0.0126421
0.00248351
-0.0123253
0.00341181
-0.0114834
0.00441436
-0.0100184
0.00548867
-0.00782446
0.00662242
-0.00479022
0.00779249
-0.000799661
0.00896293
0.00426553
0.0100851
0.0105306
0.0110952
0.0181257
0.0119259
0.0271921
0.0125277
0.0127052
0.0380634
-0.000351763
-0.000678727
-0.00115464
-0.00148651
-0.00222938
-0.00186234
-0.0034373
-0.00189882
-0.00467296
-0.0016943
-0.00585614
-0.00133769
-0.00692374
-0.000900692
-0.00782192
-0.000434759
-0.00849948
2.80961e-05
-0.00890253
0.000471928
-0.00897117
0.000892128
-0.00863742
0.00129049
-0.00782465
0.00167074
-0.00644781
0.00203497
-0.00441433
0.00238088
-0.00162528
0.00269962
0.0020229
0.00297425
0.00663747
0.00317791
0.0123269
0.00327346
0.0191997
0.00321237
0.0273605
0.00293429
0.0369391
0.00234736
0.0479607
0.00150608
-0.00038913
0.0610551
-0.000336386
-0.000342341
-0.00109049
-0.000732408
-0.00207823
-0.000874592
-0.0031548
-0.000822247
-0.00420713
-0.000641969
-0.00514611
-0.000398718
-0.0058987
-0.000148101
-0.00640079
6.73273e-05
-0.00659079
0.000218101
-0.00640519
0.000286329
-0.00577526
0.000262198
-0.00462535
0.000140572
-0.00287241
-8.21961e-05
-0.000426556
-0.000410881
0.00280796
-0.000853636
0.00693145
-0.00142388
0.012047
-0.00214127
0.018258
-0.00303313
0.025667
-0.00413557
0.0343741
-0.0054947
0.0444607
-0.00715228
0.0560736
-0.00926557
0.0690481
-0.0114684
-0.0156079
0.0842668
-0.000315934
-2.64074e-05
-0.00100792
-4.04205e-05
-0.0018896
7.08431e-06
-0.0028118
9.99501e-05
-0.00365459
0.000200824
-0.00431966
0.000266352
-0.00472285
0.000255088
-0.00478728
0.00013176
-0.00443805
-0.000131128
-0.00359819
-0.000553531
-0.00218579
-0.0011502
-0.000112664
-0.00193255
0.00271518
-0.00291004
0.00639682
-0.00409252
0.0110347
-0.00549148
0.016732
-0.00712124
0.0235906
-0.00899989
0.0317076
-0.0111501
0.0411711
-0.0135991
0.0520625
-0.016386
0.0644181
-0.0195079
0.0783735
-0.023221
0.093611
-0.0267059
-0.0329185
0.110922
-0.000286682
0.000260275
-0.000894322
0.000567219
-0.0016358
0.000748561
-0.00235791
0.00082206
-0.0029326
0.000775512
-0.00324964
0.0005834
-0.00320973
0.000215174
-0.00271789
-0.000360079
-0.00168141
-0.00116761
-2.56116e-06
-0.00223238
0.00241954
-0.0035723
0.00568918
-0.00520219
0.00991265
-0.00713351
0.0151952
-0.00937504
0.0216372
-0.0119335
0.0293303
-0.0148143
0.0383523
-0.018022
0.0487637
-0.0215615
0.0606009
-0.0254363
0.0738772
-0.0296623
0.0885528
-0.0341835
0.10462
-0.0392882
0.121815
-0.0439006
-0.0514164
0.140313
-0.000244104
0.000504378
-0.000733499
0.00105662
-0.00128155
0.00129661
-0.00172939
0.00126991
-0.0019376
0.000983717
-0.00177953
0.000425335
-0.00113525
-0.000429108
0.000111108
-0.00160644
0.00207839
-0.00313488
0.00488375
-0.00503774
0.00864384
-0.0073324
0.0134703
-0.0100287
0.0194648
-0.013128
0.026713
-0.0166232
0.0352788
-0.0204993
0.0451987
-0.0247342
0.0564777
-0.0293009
0.0690854
-0.0341692
0.0829541
-0.039305
0.0979762
-0.0446845
0.114015
-0.0502218
0.130831
-0.0561051
0.148367
-0.0614366
-0.0689625
0.165914
-0.000185628
0.000690006
-0.000515257
0.00138624
-0.00080266
0.00158401
-0.000880897
0.00134814
-0.000595537
0.000698357
0.00020007
-0.000370272
0.00164776
-0.0018768
0.00388767
-0.00384634
0.00705463
-0.00630185
0.0112751
-0.00925822
0.0166604
-0.0127177
0.0232989
-0.0166672
0.0312477
-0.0210768
0.0405257
-0.0259012
0.0511084
-0.031082
0.0629256
-0.0365514
0.0758616
-0.0422369
0.0897586
-0.0480661
0.104421
-0.0539674
0.119624
-0.059888
0.135143
-0.0657404
0.150645
-0.0716066
0.166191
-0.076983
-0.0833517
0.18058
-0.000112314
-0.000240177
-0.000196502
0.00019582
0.00110821
0.00270609
0.00515037
0.0085915
0.0131626
0.0189692
0.0260784
0.0345087
0.0442227
0.0551251
0.0670642
0.0798393
0.0932114
0.106917
0.12068
0.134235
0.147339
0.159766
0.171588
0.182287
-0.0346034
0.0598171
-0.062689
-0.0307475
0.0690245
-0.0728804
-0.0256818
0.0771701
-0.0822358
-0.0191924
0.0834802
-0.0899696
-0.01108
0.0870809
-0.0951932
-0.00123331
0.0870322
-0.0968789
0.0103106
0.0824525
-0.0939964
0.0231648
0.0727191
-0.0855734
0.0368676
0.0575183
-0.0712211
0.0507716
0.0368776
-0.0507816
0.0642596
0.0112387
-0.0247267
0.0772177
-0.0187141
0.00575593
0.0894754
-0.0520659
0.0398082
0.100774
-0.0862118
0.0749132
0.110527
-0.116949
0.107197
0.117956
-0.140148
0.132719
0.122554
-0.154037
0.149439
0.124455
-0.159678
0.157777
0.124064
-0.159533
0.159924
0.121201
-0.157051
0.159913
0.115457
-0.156794
0.162538
0.107853
-0.160821
0.168426
0.101579
-0.163049
0.169323
0.10023
-0.149876
0.151224
0.105089
-0.110384
0.105525
0.114853
-0.0469082
0.0371441
0.126709
0.0261042
-0.0379609
0.137981
0.0921682
-0.103439
0.146671
0.140893
-0.149584
0.152247
0.170812
-0.176388
0.155103
0.184828
-0.187684
0.154976
0.191802
-0.191675
0.151058
0.202321
-0.198403
0.144025
0.219567
-0.212535
0.136917
0.225419
-0.218311
0.133252
0.194753
-0.191088
0.134439
0.118015
-0.119202
0.139649
0.0133335
-0.0185439
0.146458
-0.0842642
0.0774549
0.152835
-0.157718
0.151342
0.156739
-0.195831
0.191927
0.155959
-0.220337
0.221117
0.14988
-0.233556
0.239636
0.14135
-0.246346
0.254876
0.135209
-0.222846
0.228987
0.13497
-0.150793
0.151032
0.140365
-0.0474172
0.042022
0.14742
0.0733527
-0.080408
0.151221
0.146342
-0.150143
0.149205
0.235259
-0.233243
0.143762
0.263392
-0.257948
0.140179
0.278799
-0.275216
0.141191
0.212254
-0.213266
0.144861
0.0717705
-0.0754406
0.146862
-0.0109512
0.00895044
0.145378
-0.207603
0.209087
0.143417
-0.236613
0.238573
0.142098
-0.311614
0.312934
0.140699
-0.267684
0.269083
0.00556535
-0.00362718
-0.0229614
0.0547973
-0.0168008
0.0628639
-0.00926019
0.0696295
-0.000297141
0.0745171
0.0100766
0.0767071
0.0217326
0.0753762
0.0343822
0.0698029
0.0476081
0.0594932
0.0608758
0.0442506
0.0736108
0.0241426
0.0854383
-0.000588758
0.0962799
-0.0295557
0.10608
-0.0618656
0.114596
-0.0947282
0.121295
-0.123648
0.125614
-0.144467
0.127304
-0.155727
0.126671
-0.159045
0.124356
-0.157218
0.120387
-0.153081
0.113992
-0.1504
0.105324
-0.152153
0.0970964
-0.154821
0.0935421
-0.146322
0.0971226
-0.113964
0.107006
-0.0567911
0.120152
0.0129576
0.133255
0.0790654
0.143983
0.130166
0.151573
0.163222
0.156131
0.180271
0.157258
0.190674
0.154403
0.205176
0.148512
0.225458
0.142404
0.231527
0.139057
0.1981
0.139654
0.117418
0.143592
0.0093956
0.148746
-0.0894182
0.153456
-0.162428
0.156116
-0.198491
0.15467
-0.218891
0.148228
-0.227114
0.139353
-0.237472
0.133114
-0.216607
0.133224
-0.150903
0.139394
-0.0535868
0.147099
0.0656481
0.151356
0.142085
0.149665
0.23695
0.144344
0.268713
0.140769
0.282374
0.141645
0.211378
0.14549
0.0679254
0.147575
-0.0130361
0.145938
-0.205966
0.143835
-0.23451
0.142344
-0.310123
0.14082
-0.26616
0.00756471
-0.00317798
0.0482678
0.00482619
0.0548598
0.0140129
0.0604428
0.0243379
0.0641922
0.0356875
0.0653575
0.0478219
0.0632418
0.0603732
0.0572515
0.0728865
0.0469799
0.0848743
0.0322628
0.0959136
0.0131033
0.105741
-0.010416
0.114343
-0.0381578
0.121666
-0.0691887
0.127419
-0.100481
0.1311
-0.12733
0.132391
-0.145758
0.131376
-0.154712
0.128537
-0.156206
0.124598
-0.153279
0.119788
-0.148271
0.113206
-0.143817
0.10415
-0.143097
0.0944801
-0.145151
0.0886613
-0.140503
0.0904294
-0.115732
0.0997588
-0.0661206
0.113696
-0.00097909
0.128304
0.0644567
0.140965
0.117505
0.150575
0.153612
0.156897
0.173949
0.159454
0.188117
0.157938
0.206692
0.153408
0.229988
0.148332
0.236603
0.145178
0.201254
0.145002
0.117594
0.1475
0.00689804
0.150963
-0.0928817
0.153989
-0.165453
0.155429
-0.199932
0.153437
-0.216899
0.14683
-0.220506
0.137754
-0.228396
0.131412
-0.210265
0.13174
-0.151232
0.13853
-0.0603766
0.146809
0.0573688
0.151565
0.137329
0.150279
0.238237
0.145116
0.273875
0.141524
0.285966
0.142229
0.210673
0.146236
0.0639189
0.14843
-0.0152306
0.146621
-0.204157
0.144344
-0.232233
0.142694
-0.308473
0.141087
-0.264552
0.00959783
0.0215425
0.0405098
0.0302422
0.0461601
0.0399877
0.0506973
0.050672
0.0535079
0.0620464
0.0539832
0.0737729
0.0515152
0.0854605
0.045564
0.0966881
0.0357524
0.10706
0.0218907
0.116292
0.00387167
0.124215
-0.0183388
0.130773
-0.0447161
0.135837
-0.0742529
0.138998
-0.103642
0.139806
-0.128137
0.138222
-0.144174
0.134734
-0.151225
0.130015
-0.151486
0.124741
-0.148005
0.119268
-0.142799
0.112834
-0.137383
0.104119
-0.134382
0.0937909
-0.134823
0.0859052
-0.132617
0.0853018
-0.115129
0.0933012
-0.0741199
0.107333
-0.0150113
0.123101
0.0486891
0.137543
0.103063
0.149137
0.142018
0.157276
0.16581
0.161439
0.183954
0.16151
0.206621
0.15853
0.232967
0.154494
0.24064
0.151417
0.204331
0.150314
0.118696
0.151327
0.00588551
0.153074
-0.0946289
0.154436
-0.166815
0.154671
-0.200166
0.152211
-0.21444
0.145613
-0.213908
0.136488
-0.219272
0.130041
-0.203817
0.130457
-0.151649
0.13771
-0.0676293
0.146515
0.0485643
0.151828
0.132015
0.151042
0.239023
0.146098
0.27882
0.142477
0.289587
0.142959
0.21019
0.147093
0.0597851
0.149415
-0.0175528
0.147422
-0.202163
0.144941
-0.229752
0.143142
-0.306675
0.141487
-0.262897
0.0116361
0.0462739
0.0322994
0.0552216
0.0372124
0.0649472
0.0409716
0.0753548
0.0431003
0.0861619
0.043176
0.0970121
0.0406651
0.107535
0.0350414
0.117372
0.0259155
0.126185
0.013077
0.133973
-0.00391653
0.140342
-0.0247073
0.145243
-0.0496174
0.148288
-0.0772975
0.148956
-0.10431
0.146992
-0.126174
0.142763
-0.139945
0.137133
-0.145595
0.130937
-0.14529
0.124712
-0.141779
0.118765
-0.136852
0.112623
-0.131241
0.104775
-0.126535
0.094704
-0.124752
0.0853583
-0.123271
0.0820871
-0.111858
0.0879393
-0.079972
0.101222
-0.0282943
0.117669
0.0322419
0.133634
0.0870982
0.147101
0.128551
0.157071
0.15584
0.162992
0.178033
0.16487
0.204743
0.163607
0.23423
0.160671
0.243576
0.157604
0.207399
0.155484
0.120816
0.154925
0.00644396
0.155012
-0.0947156
0.154766
-0.166569
0.153816
-0.199216
0.15095
-0.211573
0.144509
-0.207467
0.135482
-0.210246
0.128938
-0.197273
0.129306
-0.152016
0.136874
-0.0751973
0.146165
0.0392733
0.152109
0.12607
0.151938
0.239194
0.147297
0.283461
0.143647
0.293237
0.143847
0.20999
0.148054
0.0555787
0.150516
-0.0200149
0.148331
-0.199978
0.145622
-0.227043
0.14368
-0.304732
0.142006
-0.261223
0.0136502
0.0690866
0.0242679
0.0776853
0.0286136
0.0869196
0.0317373
0.0966719
0.033348
0.106637
0.0332112
0.116479
0.0308226
0.125872
0.0256483
0.134537
0.0172506
0.142178
0.00543664
0.14875
-0.0104892
0.153924
-0.0298805
0.157371
-0.0530644
0.1585
-0.0784273
0.156793
-0.102603
0.152304
-0.121685
0.145814
-0.133455
0.138468
-0.138249
0.131193
-0.138015
0.124386
-0.134973
0.118171
-0.130637
0.112324
-0.125394
0.105594
-0.119805
0.0966213
-0.115779
0.0867872
-0.113437
0.081051
-0.106122
0.0840222
-0.0829432
0.0956062
-0.0398784
0.112075
0.0157733
0.129161
0.0700125
0.144288
0.113424
0.15605
0.144078
0.163836
0.170247
0.167696
0.200883
0.168309
0.233617
0.166573
0.245312
0.163537
0.210434
0.160335
0.124018
0.158229
0.00855039
0.15671
-0.0931965
0.154938
-0.164797
0.152833
-0.197111
0.149598
-0.208339
0.143435
-0.201304
0.134643
-0.201454
0.128023
-0.190653
0.128213
-0.152206
0.135948
-0.0829322
0.145699
0.0295226
0.152358
0.119411
0.152934
0.238618
0.148705
0.28769
0.145044
0.296898
0.144903
0.210132
0.149101
0.0513799
0.151712
-0.0226259
0.149336
-0.197602
0.146381
-0.224087
0.144297
-0.302649
0.142631
-0.259557
0.0156099
0.0910478
0.0174869
0.0985081
0.0211534
0.106688
0.0235574
0.115384
0.024652
0.124269
0.0243259
0.13304
0.0220519
0.141382
0.0173059
0.148944
0.00968895
0.155858
-0.00147694
0.161297
-0.0159287
0.165255
-0.033838
0.167116
-0.0549263
0.166216
-0.0775271
0.162204
-0.0985903
0.155502
-0.114982
0.147227
-0.12518
0.138655
-0.129678
0.13069
-0.130049
0.123617
-0.1279
0.117352
-0.124372
0.111754
-0.119796
0.10607
-0.114121
0.0987324
-0.108441
0.0895555
-0.104261
0.0821398
-0.0987058
0.0819068
-0.0827102
0.0908574
-0.048829
0.106472
0.000159078
0.124103
0.0523814
0.140566
0.0969605
0.154001
0.130643
0.163689
0.160559
0.16966
0.194911
0.172295
0.230983
0.171865
0.245741
0.16896
0.21334
0.164775
0.128203
0.161087
0.012238
0.15809
-0.0901988
0.154905
-0.161613
0.151686
-0.193891
0.148103
-0.204756
0.142311
-0.195511
0.133872
-0.193015
0.127202
-0.183984
0.127107
-0.152111
0.134859
-0.0906843
0.145049
0.0193326
0.152512
0.111948
0.153979
0.237151
0.150294
0.291375
0.146661
0.300531
0.146112
0.21068
0.150234
0.0472586
0.152982
-0.0253746
0.150423
-0.195043
0.14721
-0.220875
0.144986
-0.300424
0.143346
-0.257917
0.017483
0.115354
0.0130541
0.120792
0.0157162
0.127165
0.0171836
0.134155
0.0176628
0.141454
0.0170265
0.148788
0.0147177
0.155855
0.0102392
0.162203
0.0033405
0.167816
-0.00708965
0.171931
-0.0200432
0.174272
-0.0361799
0.174184
-0.0548381
0.17109
-0.0744324
0.164932
-0.0924323
0.156462
-0.106513
0.146971
-0.115689
0.137695
-0.120402
0.129404
-0.121757
0.122293
-0.12079
0.116159
-0.118238
0.110804
-0.114441
0.105907
-0.109224
0.100271
-0.102805
0.0927028
-0.0966923
0.0848772
-0.0908802
0.0817971
-0.0796301
0.0874309
-0.0544628
0.101095
-0.0135054
0.118527
0.0349499
0.135867
0.0796206
0.150768
0.115742
0.16232
0.149008
0.170436
0.186795
0.175154
0.226265
0.176164
0.244731
0.173557
0.215947
0.168553
0.133207
0.163455
0.0173354
0.159063
-0.0858067
0.154608
-0.157158
0.150331
-0.189615
0.146404
-0.200829
0.141055
-0.190162
0.133072
-0.185032
0.126384
-0.177296
0.125912
-0.151638
0.133538
-0.0983102
0.144143
0.00872735
0.152493
0.103598
0.155006
0.234638
0.152017
0.294364
0.148473
0.304076
0.147469
0.211684
0.151425
0.0433024
0.154301
-0.0282504
0.151573
-0.192315
0.148103
-0.217404
0.145735
-0.298056
0.144136
-0.256319
0.0192347
0.142194
0.0111728
0.145286
0.0126241
0.149352
0.0131172
0.154057
0.0129585
0.1592
0.0118835
0.164511
0.00940639
0.169571
0.00517873
0.174395
-0.00148258
0.177927
-0.0106219
0.180096
-0.0222127
0.180301
-0.0363841
0.177966
-0.0525032
0.172726
-0.0691927
0.164821
-0.084527
0.155188
-0.0968802
0.145092
-0.105593
0.135596
-0.110907
0.127285
-0.113446
0.120281
-0.113786
0.11438
-0.112337
0.109311
-0.109372
0.104947
-0.104861
0.100699
-0.098556
0.0951792
-0.0911729
0.0882927
-0.0839937
0.083486
-0.0748234
0.0856678
-0.0566446
0.0963203
-0.0241579
0.112604
0.0186664
0.130193
0.0620313
0.146239
0.0996955
0.159525
0.135722
0.169806
0.176515
0.176729
0.219342
0.179296
0.242165
0.177107
0.218136
0.171485
0.138829
0.165167
0.0236535
0.159524
-0.0801635
0.153959
-0.151594
0.148706
-0.184361
0.144425
-0.196548
0.139577
-0.185313
0.132157
-0.177612
0.125484
-0.170623
0.124554
-0.150709
0.131924
-0.10568
0.142912
-0.00225982
0.152221
0.0942881
0.155938
0.230922
0.153811
0.296491
0.150441
0.307446
0.148957
0.213168
0.15265
0.0396099
0.155642
-0.0312423
0.152769
-0.189442
0.149046
-0.213681
0.146529
-0.29554
0.144987
-0.254777
0.0208271
0.166101
0.0109853
0.167366
0.0113594
0.169323
0.0111604
0.171803
0.0104778
0.174717
0.00896972
0.177813
0.00631058
0.180729
0.00226252
0.183165
-0.00391892
0.184436
-0.0118925
0.184306
-0.0220823
0.182239
-0.0343178
0.177801
-0.0480652
0.170862
-0.0622539
0.16186
-0.0755241
0.15174
-0.0867602
0.141587
-0.0954408
0.132238
-0.101557
0.124113
-0.105321
0.117298
-0.106971
0.111657
-0.106696
0.106931
-0.104646
0.102988
-0.100918
0.0996929
-0.0952608
0.0960981
-0.087578
0.0911072
-0.0790028
0.0861204
-0.0698366
0.0855152
-0.0560394
0.0926296
-0.0312723
0.106675
0.00462084
0.123665
0.0450416
0.140388
0.0829719
0.155175
0.120936
0.167472
0.164217
0.176541
0.210273
0.180802
0.237903
0.179316
0.219622
0.173385
0.14476
0.166181
0.0308575
0.159422
-0.0734052
0.152898
-0.14507
0.146771
-0.178234
0.142116
-0.191892
0.137802
-0.181
0.131063
-0.170873
0.124448
-0.164008
0.122983
-0.149243
0.129952
-0.11265
0.141294
-0.0136017
0.151611
0.0839707
0.156675
0.225858
0.155586
0.297579
0.152503
0.310529
0.150544
0.215127
0.153888
0.0362659
0.156975
-0.0343293
0.153992
-0.186459
0.150025
-0.209714
0.147354
-0.292869
0.145883
-0.253306
0.0222186
0.180252
0.0113138
0.18057
0.0110406
0.181207
0.0105234
0.182213
0.0094723
0.183512
0.0076709
0.18483
0.00499253
0.185751
0.00134167
0.186143
-0.004311
0.185526
-0.0112761
0.1835
-0.0200564
0.179688
-0.0305058
0.17384
-0.0422165
0.166019
-0.0544332
0.156729
-0.0662341
0.146793
-0.076824
0.137053
-0.0857015
0.128128
-0.0926324
0.120335
-0.0975273
0.113749
-0.100386
0.108322
-0.101268
0.103887
-0.100211
0.100273
-0.0973039
0.0975101
-0.0924975
0.0952656
-0.0853336
0.0923652
-0.0761024
0.0885288
-0.0660002
0.0865009
-0.0540115
0.0902586
-0.0350299
0.101221
-0.00634204
0.116564
0.0296988
0.133284
0.0662524
0.149311
0.104909
0.163674
0.149853
0.175087
0.19886
0.181105
0.231885
0.180299
0.220429
0.174457
0.150602
0.16654
0.0387749
0.158921
-0.0657863
0.151567
-0.137716
0.144685
-0.171353
0.139607
-0.186814
0.135771
-0.177163
0.12981
-0.164913
0.1233
-0.157498
0.121215
-0.147158
0.1276
-0.119034
0.13922
-0.0252222
0.15057
0.0726212
0.157155
0.219273
0.157268
0.297467
0.154589
0.313207
0.152196
0.21752
0.15513
0.0333324
0.158274
-0.0374738
0.155232
-0.183417
0.151024
-0.205506
0.148197
-0.290041
0.146815
-0.251923
0.0233659
0.182288
0.011313
0.182263
0.0110651
0.182455
0.0103314
0.182772
0.00915544
0.183091
0.0073523
0.18331
0.00477333
0.183455
0.00119691
0.18259
-0.00344652
0.180812
-0.00949772
0.177754
-0.0169983
0.17317
-0.025922
0.166956
-0.0360029
0.159275
-0.0467513
0.150583
-0.0575425
0.141512
-0.0677534
0.132665
-0.0768543
0.124482
-0.0844494
0.117217
-0.0902622
0.110962
-0.0941302
0.105725
-0.096031
0.10146
-0.0959469
0.0980272
-0.0938707
0.0954368
-0.0899071
0.0937873
-0.0836841
0.0924079
-0.074723
0.090229
-0.0638213
0.088159
-0.0519415
0.0895274
-0.0363983
0.0966911
-0.0135057
0.109519
0.0168709
0.125078
0.0506935
0.141323
0.0886643
0.157058
0.134118
0.17069
0.185228
0.178812
0.223763
0.179406
0.219834
0.174243
0.155765
0.166505
0.0465135
0.157998
-0.057279
0.150023
-0.129741
0.142596
-0.163926
0.137081
-0.1813
0.133581
-0.173664
0.128439
-0.159771
0.122079
-0.151138
0.119325
-0.144404
0.125058
-0.124767
0.136768
-0.0369319
0.14904
0.0603492
0.15719
0.211123
0.158696
0.295961
0.156621
0.315282
0.153873
0.220268
0.15636
0.0308456
0.159507
-0.0406211
0.156472
-0.180382
0.152016
-0.20105
0.149056
-0.287081
0.147774
-0.250642
0.0242228
0.198848
0.0113797
-0.198915
0.199382
0.0105313
0.20011
0.00960373
0.201103
0.0081619
0.202357
0.0060987
0.203772
0.00335788
0.205191
-0.000222122
0.206566
-0.00482092
0.207604
-0.0105357
0.208033
-0.0174277
0.20755
-0.0254391
0.205907
-0.0343603
0.202985
-0.0438285
0.198822
-0.0533799
0.193588
-0.0625195
0.187513
-0.0707789
0.180834
-0.0777707
0.173781
-0.0832092
0.166555
-0.0869048
0.159322
-0.0887972
0.152224
-0.0888491
0.145308
-0.0869548
0.138572
-0.0831715
0.132201
-0.0773128
0.126172
-0.0686942
0.119644
-0.0572934
0.112167
-0.0444645
0.1055
-0.0297311
0.102778
-0.0107835
0.105019
0.01463
0.111064
0.0446486
0.118488
0.0812404
0.125882
0.126724
0.133241
0.177868
0.141235
0.215769
0.151653
0.209417
0.163959
0.143458
0.173238
0.0372343
0.177008
-0.0610483
0.174814
-0.127547
0.168378
-0.157489
0.160705
-0.173627
0.153735
-0.166694
0.145735
-0.151771
0.136665
-0.142068
0.130016
-0.137755
0.12895
-0.123702
0.132469
-0.0404507
0.136282
0.0565364
0.138511
0.208894
0.139259
0.295212
0.140834
0.313707
0.144245
0.216857
0.149902
0.025189
0.154341
-0.0450601
0.151327
-0.177368
0.145503
-0.195226
0.14047
-0.282048
0.136105
-0.246276
0.0264818
0.210714
0.0109926
-0.210327
0.211361
0.00988421
0.212312
0.00865257
0.213422
0.00705191
0.214599
0.00492197
0.215799
0.00215768
0.216939
-0.00136188
0.217849
-0.00573122
0.218335
-0.0110215
0.21818
-0.0172723
0.217169
-0.0244287
0.215135
-0.0323262
0.211994
-0.0406868
0.207761
-0.0491472
0.202545
-0.0573037
0.196522
-0.0647562
0.189907
-0.0711555
0.182927
-0.0762293
0.175797
-0.0797748
0.16868
-0.0816802
0.161705
-0.081874
0.154956
-0.0802052
0.148418
-0.0766336
0.14217
-0.0710654
0.13642
-0.0629437
0.130764
-0.0516378
0.124361
-0.0380616
0.11773
-0.0230995
0.113224
-0.00627821
0.113336
0.0145179
0.117879
0.0401063
0.12514
0.0739786
0.133453
0.118411
0.142153
0.169168
0.151934
0.205988
0.164507
0.196844
0.178147
0.129819
0.187915
0.0274656
0.190805
-0.0639382
0.187505
-0.124247
0.179952
-0.149937
0.171285
-0.16496
0.163775
-0.159184
0.155694
-0.143689
0.146404
-0.132777
0.139066
-0.130418
0.137438
-0.122073
0.14078
-0.0437935
0.145086
0.0522313
0.148144
0.205836
0.149898
0.293458
0.152385
0.31122
0.155986
0.213255
0.161546
0.0196298
0.165911