/*--------------------------------*- C++ -*----------------------------------*\
| =========                 |                                                 |
| \\      /  F ield         | OpenFOAM: The Open Source CFD Toolbox           |
|  \\    /   O peration     | Version:  2512                                  |
|   \\  /    A nd           | Website:  www.openfoam.com                      |
|    \\/     M anipulation  |                                                 |
\*---------------------------------------------------------------------------*/
FoamFile
{
    version     2.0;
    format      ascii;
    arch        "LSB;label=32;scalar=64";
    class       volScalarField;
    location    "53.5";
    object      p;
}
// * * * * * * * * * * * * * * * * * * * * * * * * * * * * * * * * * * * * * //

dimensions      [0 2 -2 0 0 0 0];

internalField   nonuniform List<scalar> 
13248
(
-0.316306
-0.314651
-0.312689
-0.310544
-0.308337
-0.306186
-0.304136
-0.302163
-0.300188
-0.298093
-0.295731
-0.292945
-0.289581
-0.285507
-0.280627
-0.274891
-0.268297
-0.260896
-0.252773
-0.244068
-0.234842
-0.225386
-0.215203
-0.205167
-0.323556
-0.321233
-0.318584
-0.315742
-0.31283
-0.30998
-0.307237
-0.304559
-0.301841
-0.298938
-0.295682
-0.291909
-0.287477
-0.282289
-0.276299
-0.269514
-0.261994
-0.253836
-0.245163
-0.236107
-0.226781
-0.217328
-0.207657
-0.198365
-0.331948
-0.328814
-0.325388
-0.321795
-0.318134
-0.314537
-0.311031
-0.307541
-0.303928
-0.300017
-0.295636
-0.290639
-0.284928
-0.278466
-0.271279
-0.26344
-0.255062
-0.246277
-0.237216
-0.228012
-0.218748
-0.209555
-0.200364
-0.191504
-0.341715
-0.337609
-0.333316
-0.328923
-0.324467
-0.320051
-0.315662
-0.31118
-0.306428
-0.301227
-0.295431
-0.28895
-0.281766
-0.273926
-0.265527
-0.256701
-0.247587
-0.23832
-0.229017
-0.219771
-0.210644
-0.201723
-0.192938
-0.184647
-0.353004
-0.347762
-0.342518
-0.337273
-0.33195
-0.326592
-0.321126
-0.315383
-0.309178
-0.302364
-0.29487
-0.286705
-0.27795
-0.268734
-0.259209
-0.249528
-0.239824
-0.230202
-0.22074
-0.211493
-0.202494
-0.193781
-0.185311
-0.177336
-0.365846
-0.359324
-0.353059
-0.346899
-0.340594
-0.334092
-0.327257
-0.319897
-0.311868
-0.303118
-0.293697
-0.283735
-0.273405
-0.262894
-0.252368
-0.241962
-0.231774
-0.221866
-0.212276
-0.203021
-0.19411
-0.18555
-0.177307
-0.169565
-0.380124
-0.372228
-0.364886
-0.357724
-0.350249
-0.342298
-0.3337
-0.324302
-0.314075
-0.303121
-0.29164
-0.279873
-0.268053
-0.256374
-0.244979
-0.23396
-0.223365
-0.213214
-0.203506
-0.194234
-0.185382
-0.176935
-0.168872
-0.16129
-0.395557
-0.38625
-0.377789
-0.36949
-0.360563
-0.350752
-0.339921
-0.328053
-0.315313
-0.301996
-0.28844
-0.274953
-0.261778
-0.249074
-0.236932
-0.225388
-0.214443
-0.204078
-0.194263
-0.184967
-0.176161
-0.167814
-0.159909
-0.152458
-0.411665
-0.400981
-0.391358
-0.381716
-0.370955
-0.358794
-0.345248
-0.330549
-0.315109
-0.299407
-0.283871
-0.268822
-0.254456
-0.240873
-0.228096
-0.216108
-0.204867
-0.194321
-0.18442
-0.175115
-0.166359
-0.158117
-0.150364
-0.143041
-0.427749
-0.415785
-0.404937
-0.393665
-0.380609
-0.365595
-0.348936
-0.331194
-0.313034
-0.295066
-0.27774
-0.261326
-0.245948
-0.231626
-0.218322
-0.205969
-0.19449
-0.18381
-0.173858
-0.16457
-0.155888
-0.147769
-0.140168
-0.132982
-0.4429
-0.429792
-0.417608
-0.404341
-0.388502
-0.370204
-0.350184
-0.329366
-0.308618
-0.288603
-0.269722
-0.252159
-0.235945
-0.221024
-0.207303
-0.194675
-0.183034
-0.172285
-0.162339
-0.153118
-0.144556
-0.136598
-0.12917
-0.122161
-0.456077
-0.442006
-0.428353
-0.412688
-0.393592
-0.371656
-0.348142
-0.324319
-0.301185
-0.279373
-0.259186
-0.240693
-0.22383
-0.208471
-0.194471
-0.181689
-0.169994
-0.159272
-0.149421
-0.140352
-0.131991
-0.124271
-0.117086
-0.110373
-0.266752
-0.268678
-0.269903
-0.27072
-0.271387
-0.27197
-0.272496
-0.272984
-0.273436
-0.273849
-0.274211
-0.274509
-0.27473
-0.27486
-0.274885
-0.274793
-0.274576
-0.274226
-0.273743
-0.273134
-0.272409
-0.27157
-0.270667
-0.269896
-0.267752
-0.269766
-0.271053
-0.271921
-0.272638
-0.273268
-0.273833
-0.274346
-0.274802
-0.27519
-0.27549
-0.275677
-0.275724
-0.275604
-0.275286
-0.27474
-0.273935
-0.272843
-0.271443
-0.269724
-0.267671
-0.265247
-0.262505
-0.259894
-0.269598
-0.271596
-0.272881
-0.273761
-0.274499
-0.275154
-0.275743
-0.276272
-0.276728
-0.277096
-0.277341
-0.277429
-0.277321
-0.276972
-0.276335
-0.27536
-0.273994
-0.272183
-0.269883
-0.267059
-0.263676
-0.259656
-0.255029
-0.250549
-0.272266
-0.274142
-0.275361
-0.27621
-0.276936
-0.277592
-0.278188
-0.278723
-0.279181
-0.279527
-0.279728
-0.279736
-0.279499
-0.278958
-0.278048
-0.2767
-0.274837
-0.272383
-0.269261
-0.265413
-0.260788
-0.25528
-0.248812
-0.242304
-0.275664
-0.277324
-0.278413
-0.279185
-0.279861
-0.280485
-0.281063
-0.281586
-0.28203
-0.282357
-0.28252
-0.282463
-0.282121
-0.281424
-0.280291
-0.278633
-0.276355
-0.273355
-0.269532
-0.264792
-0.259071
-0.252265
-0.244087
-0.234863
-0.279659
-0.281025
-0.281924
-0.282568
-0.283145
-0.283695
-0.284217
-0.284696
-0.285102
-0.285389
-0.285502
-0.285376
-0.284937
-0.2841
-0.282771
-0.280847
-0.278218
-0.274764
-0.270365
-0.264903
-0.258287
-0.250394
-0.240901
-0.230056
-0.284093
-0.285111
-0.285763
-0.286222
-0.286643
-0.287058
-0.287468
-0.287852
-0.288173
-0.288378
-0.288405
-0.288178
-0.287614
-0.286615
-0.285077
-0.282884
-0.279916
-0.276044
-0.271141
-0.265084
-0.25777
-0.249079
-0.238929
-0.2264
-0.288824
-0.289459
-0.289813
-0.290023
-0.290214
-0.290421
-0.290644
-0.29086
-0.291025
-0.291082
-0.290956
-0.290566
-0.289814
-0.288594
-0.286789
-0.284277
-0.280929
-0.276621
-0.271232
-0.264652
-0.256822
-0.247526
-0.237476
-0.22374
-0.293752
-0.293987
-0.293993
-0.293881
-0.293759
-0.293669
-0.293615
-0.293572
-0.293494
-0.293315
-0.292953
-0.292311
-0.291285
-0.289756
-0.287598
-0.284686
-0.280895
-0.276111
-0.270242
-0.263204
-0.255065
-0.245381
-0.235808
-0.221872
-0.298855
-0.298675
-0.29828
-0.297771
-0.297246
-0.296762
-0.296332
-0.295932
-0.295513
-0.295001
-0.294303
-0.293311
-0.291907
-0.289963
-0.287348
-0.283938
-0.279624
-0.274319
-0.267978
-0.260565
-0.252287
-0.242655
-0.233691
-0.221023
-0.304197
-0.30358
-0.302727
-0.301737
-0.300716
-0.29974
-0.298835
-0.297976
-0.297115
-0.296166
-0.295024
-0.293569
-0.291667
-0.289182
-0.285985
-0.281961
-0.277026
-0.271133
-0.264287
-0.256535
-0.248108
-0.238843
-0.230276
-0.219358
-0.309939
-0.30884
-0.30746
-0.305908
-0.304305
-0.302748
-0.301276
-0.299876
-0.298481
-0.296997
-0.295301
-0.293256
-0.290715
-0.287539
-0.283606
-0.278823
-0.273142
-0.266559
-0.259117
-0.250934
-0.242136
-0.232963
-0.224053
-0.214688
-0.269294
-0.268639
-0.268051
-0.26743
-0.26666
-0.265554
-0.263872
-0.26169
-0.258514
-0.254096
-0.248305
-0.241254
-0.233342
-0.225251
-0.218287
-0.213848
-0.213318
-0.217591
-0.226749
-0.239464
-0.253055
-0.263388
-0.266512
-0.258719
-0.239144
-0.210357
-0.178061
-0.14822
-0.124788
-0.109508
-0.103624
-0.108778
-0.12345
-0.140222
-0.14869
-0.143782
-0.126979
-0.105271
-0.0853797
-0.0705214
-0.0607968
-0.0573709
-0.0616018
-0.0685493
-0.0705669
-0.0642316
-0.0519105
-0.038024
-0.0256199
-0.0156209
-0.00858032
-0.00452352
-0.00378145
-0.00383594
-0.00371898
-0.00280209
-0.0011102
0.000378405
0.000659398
0.00118716
-0.257437
-0.254276
-0.251189
-0.248064
-0.244884
-0.241559
-0.237984
-0.234386
-0.230563
-0.226368
-0.221777
-0.217082
-0.21287
-0.209581
-0.208394
-0.210479
-0.216976
-0.228052
-0.243303
-0.260823
-0.277536
-0.289349
-0.291993
-0.281896
-0.258193
-0.224057
-0.185981
-0.150554
-0.122065
-0.102201
-0.0916221
-0.091717
-0.101932
-0.116366
-0.125869
-0.124522
-0.113013
-0.0969547
-0.0822671
-0.0716327
-0.0653175
-0.0653858
-0.0726384
-0.0808334
-0.0815451
-0.0724251
-0.0570898
-0.0407157
-0.026546
-0.0154306
-0.00758059
-0.00280283
-0.00151113
-0.00148473
-0.00184827
-0.00151342
-0.000419853
0.000720499
0.000684858
0.00114007
-0.246594
-0.240926
-0.23542
-0.229888
-0.224418
-0.219045
-0.213727
-0.20873
-0.20442
-0.200496
-0.196977
-0.194338
-0.19374
-0.194707
-0.198656
-0.206379
-0.218812
-0.235634
-0.255807
-0.27712
-0.296263
-0.309151
-0.311577
-0.299731
-0.272736
-0.234241
-0.191405
-0.151286
-0.118437
-0.0944788
-0.0796447
-0.0748954
-0.080655
-0.092523
-0.102586
-0.104569
-0.0981861
-0.0877957
-0.0783952
-0.0720617
-0.0694345
-0.0733061
-0.0836796
-0.0929892
-0.092079
-0.0801522
-0.0619162
-0.0432481
-0.0274872
-0.0153677
-0.00680989
-0.00138649
0.000511125
0.000745497
5.64098e-05
-0.000106334
0.00036287
0.00112021
0.000728888
0.00105458
-0.237573
-0.229457
-0.22173
-0.214014
-0.20646
-0.199247
-0.192412
-0.185909
-0.181459
-0.177811
-0.175191
-0.17381
-0.177041
-0.181242
-0.189193
-0.201492
-0.21854
-0.239702
-0.263565
-0.287684
-0.308637
-0.322404
-0.324876
-0.311951
-0.28265
-0.240963
-0.194547
-0.150847
-0.114529
-0.087096
-0.068548
-0.0593541
-0.0605436
-0.0694861
-0.0794819
-0.0843771
-0.0828225
-0.0779108
-0.0736555
-0.0715849
-0.0728809
-0.0808086
-0.0944211
-0.104773
-0.101967
-0.0873456
-0.0663623
-0.0456081
-0.028444
-0.0154455
-0.00627605
-0.000292913
0.00222436
0.002772
0.00192394
0.00137242
0.00121954
0.00156698
0.000794287
0.000934861
-0.231092
-0.220396
-0.210734
-0.201138
-0.191742
-0.182914
-0.174675
-0.166648
-0.163018
-0.159298
-0.157359
-0.157807
-0.161844
-0.168987
-0.180166
-0.195837
-0.216072
-0.24016
-0.266484
-0.292472
-0.314676
-0.329158
-0.331917
-0.318577
-0.288049
-0.244473
-0.195799
-0.149745
-0.110912
-0.0806825
-0.0589528
-0.0458313
-0.0424431
-0.0479706
-0.0571667
-0.064435
-0.0671163
-0.0672821
-0.067849
-0.0699074
-0.0753274
-0.0875617
-0.104549
-0.11589
-0.111067
-0.0939572
-0.070407
-0.0477896
-0.0294125
-0.0156639
-0.0059729
0.000481254
0.00358938
0.00451948
0.00367008
0.00285095
0.00211088
0.00203555
0.0008766
0.000789287
-0.22612
-0.214635
-0.20283
-0.191761
-0.181006
-0.170888
-0.16174
-0.153613
-0.148111
-0.144583
-0.143237
-0.144732
-0.149795
-0.158672
-0.171846
-0.189564
-0.211682
-0.237387
-0.265029
-0.292039
-0.315002
-0.330017
-0.333075
-0.31984
-0.289099
-0.244989
-0.195523
-0.148358
-0.107962
-0.0756545
-0.0512852
-0.0347819
-0.0270834
-0.0286712
-0.0361963
-0.0446647
-0.0511368
-0.0557718
-0.0606927
-0.0667289
-0.0764591
-0.0932528
-0.113725
-0.126048
-0.120299
-0.0999535
-0.0740312
-0.0497877
-0.030385
-0.016011
-0.00588293
0.000957675
0.00459452
0.00593449
0.00521357
0.00424283
0.00298214
0.00249025
0.000965865
0.000629877
-0.22298
-0.211473
-0.198193
-0.185845
-0.174118
-0.163039
-0.15312
-0.144987
-0.13814
-0.134364
-0.133175
-0.135096
-0.140693
-0.150339
-0.164387
-0.182952
-0.205761
-0.231951
-0.259923
-0.287237
-0.310553
-0.325742
-0.329044
-0.316304
-0.286243
-0.242921
-0.194076
-0.146979
-0.105901
-0.0722058
-0.0457536
-0.0264086
-0.0148457
-0.0122311
-0.0171413
-0.02565
-0.0349271
-0.0431512
-0.0519065
-0.0618227
-0.0760339
-0.0976055
-0.121627
-0.134908
-0.127971
-0.105177
-0.0771986
-0.0515915
-0.0313474
-0.016465
-0.00597856
0.00117154
0.00525474
0.00699309
0.00649033
0.00546434
0.00377506
0.00289397
0.00105083
0.000470881
-0.220873
-0.210133
-0.196391
-0.183311
-0.171064
-0.159421
-0.148714
-0.13926
-0.132442
-0.128344
-0.126982
-0.128795
-0.13432
-0.14395
-0.157955
-0.176378
-0.198879
-0.2246
-0.252047
-0.279021
-0.302746
-0.317244
-0.32063
-0.308665
-0.28007
-0.238691
-0.191682
-0.145686
-0.10471
-0.070253
-0.0422964
-0.0206639
-0.00582169
0.000946202
-0.000558661
-0.00782325
-0.0185228
-0.0292964
-0.0413388
-0.0550501
-0.0738853
-0.100371
-0.127966
-0.142205
-0.134221
-0.109502
-0.0798661
-0.0531825
-0.032281
-0.0169985
-0.00622587
0.00116602
0.0056075
0.00770341
0.00746469
0.00645326
0.00444228
0.0032184
0.00112365
0.000326661
-0.21864
-0.208801
-0.195612
-0.182678
-0.170466
-0.158729
-0.1477
-0.137652
-0.130811
-0.126185
-0.124353
-0.125606
-0.130507
-0.139446
-0.152649
-0.170129
-0.191527
-0.216006
-0.242134
-0.268027
-0.293189
-0.305272
-0.308612
-0.297675
-0.27123
-0.232737
-0.188516
-0.144445
-0.104244
-0.0695724
-0.0406561
-0.0173008
0.000176279
0.0106977
0.0130699
0.00824379
-0.00227866
-0.0143822
-0.0290417
-0.0463586
-0.069949
-0.101447
-0.132537
-0.147741
-0.138994
-0.112868
-0.0820362
-0.0545845
-0.0332014
-0.0176093
-0.00660574
0.000977315
0.00569917
0.00809887
0.00813404
0.00718177
0.00495827
0.00345135
0.00118283
0.000209323
-0.217587
-0.207949
-0.195346
-0.183003
-0.171319
-0.160204
-0.149708
-0.140541
-0.132746
-0.127419
-0.124812
-0.125108
-0.128927
-0.136637
-0.148435
-0.164333
-0.183983
-0.206565
-0.23065
-0.253998
-0.272546
-0.289583
-0.293784
-0.284383
-0.260783
-0.22598
-0.185297
-0.143799
-0.104922
-0.0704632
-0.0409668
-0.0163266
0.00327227
0.0169835
0.0233341
0.0218487
0.0131652
0.00105201
-0.0153699
-0.0359466
-0.0641974
-0.100627
-0.135135
-0.151359
-0.142272
-0.115322
-0.0838219
-0.0559129
-0.0341928
-0.0183447
-0.00713564
0.000615078
0.00556287
0.00821839
0.00851907
0.00765627
0.00532213
0.00359838
0.00123345
0.000126958
-0.21505
-0.207159
-0.19769
-0.187162
-0.175881
-0.164595
-0.153923
-0.144566
-0.136691
-0.13086
-0.127526
-0.126628
-0.12898
-0.135028
-0.144979
-0.158876
-0.17641
-0.196836
-0.21879
-0.240406
-0.258858
-0.272222
-0.276845
-0.26948
-0.249508
-0.219238
-0.182811
-0.144427
-0.107281
-0.0733383
-0.0434953
-0.0178961
0.00338937
0.0197715
0.0299217
0.0324423
0.0278024
0.0160488
-0.000919052
-0.02402
-0.0567722
-0.0982768
-0.135909
-0.152803
-0.143918
-0.116769
-0.0851461
-0.0570905
-0.0351858
-0.0191513
-0.00777432
0.00011483
0.00523859
0.00810444
0.00864884
0.00790111
0.00554841
0.00367612
0.00128331
8.23056e-05
-0.210289
-0.204672
-0.197582
-0.188522
-0.178756
-0.169093
-0.159602
-0.150531
-0.142439
-0.135969
-0.131638
-0.129836
-0.130691
-0.134734
-0.142299
-0.153457
-0.168004
-0.185269
-0.204122
-0.22333
-0.239771
-0.252656
-0.256763
-0.251148
-0.234746
-0.208922
-0.176738
-0.141679
-0.106751
-0.0740276
-0.044612
-0.0189336
0.00291775
0.02079
0.0339047
0.0403419
0.0368953
0.0292143
0.0129009
-0.0116375
-0.0478133
-0.0934964
-0.134117
-0.152033
-0.143141
-0.116343
-0.0849902
-0.0571954
-0.0354766
-0.0195396
-0.0081864
-0.000293574
0.00489088
0.00787459
0.00859814
0.00795842
0.00565512
0.00369889
0.00133313
6.92483e-05
-0.200129
-0.200062
-0.193545
-0.1848
-0.176036
-0.167513
-0.159078
-0.150937
-0.143602
-0.137644
-0.133505
-0.131438
-0.131789
-0.135093
-0.141659
-0.151578
-0.164682
-0.180339
-0.197474
-0.214621
-0.229111
-0.239529
-0.242368
-0.235941
-0.219655
-0.194961
-0.164671
-0.131859
-0.0991244
-0.0682612
-0.0402083
-0.0153854
0.00607621
0.0241429
0.0383678
0.047293
0.0514002
0.0425517
0.0278093
0.00257674
-0.0374589
-0.0888861
-0.133774
-0.152673
-0.142527
-0.114507
-0.0831358
-0.0558871
-0.0347574
-0.019255
-0.00815493
-0.000409733
0.0047167
0.00770985
0.00851423
0.00793263
0.00568308
0.0036838
0.00137507
7.46422e-05
-0.190338
-0.192323
-0.186567
-0.178243
-0.170317
-0.163059
-0.156061
-0.149301
-0.143151
-0.138088
-0.134509
-0.132761
-0.133234
-0.136309
-0.142214
-0.150996
-0.16246
-0.175995
-0.190566
-0.204731
-0.216402
-0.223939
-0.224724
-0.217371
-0.201675
-0.178913
-0.151384
-0.121577
-0.0916173
-0.0630328
-0.0366716
-0.013008
0.00773589
0.0256758
0.0405709
0.0510636
0.0553892
0.0505433
0.0377923
0.0125649
-0.030107
-0.0851701
-0.131886
-0.149911
-0.138336
-0.110419
-0.0801053
-0.0540874
-0.0339078
-0.0190071
-0.00824112
-0.000680849
0.0043698
0.00735749
0.00824568
0.00774347
0.00561636
0.00363177
0.00141567
0.000107042
-0.180047
-0.182962
-0.178414
-0.171077
-0.164153
-0.158122
-0.152489
-0.147039
-0.142019
-0.137859
-0.134967
-0.133684
-0.134305
-0.137099
-0.142233
-0.149711
-0.159308
-0.170428
-0.182155
-0.193232
-0.202135
-0.20709
-0.206311
-0.198776
-0.184341
-0.163933
-0.139287
-0.112386
-0.0850076
-0.0585216
-0.0337539
-0.0112008
0.00881688
0.0263786
0.0413847
0.0526056
0.0580162
0.0553327
0.0438799
0.0183138
-0.0263561
-0.0826099
-0.128201
-0.144363
-0.132077
-0.10516
-0.0765232
-0.0520364
-0.0329444
-0.0187173
-0.00833552
-0.000990576
0.00395391
0.00690972
0.00786958
0.00745052
0.00548585
0.00355624
0.00146181
0.000168834
-0.16925
-0.173073
-0.169942
-0.163857
-0.15799
-0.153045
-0.148584
-0.144286
-0.140285
-0.136952
-0.134661
-0.133698
-0.134295
-0.13665
-0.140878
-0.146953
-0.154636
-0.163422
-0.172592
-0.181046
-0.187463
-0.190421
-0.188633
-0.181256
-0.168112
-0.149857
-0.12783
-0.103627
-0.0787284
-0.0543296
-0.0312129
-0.00987008
0.00931288
0.0262892
0.041025
0.0523921
0.0585504
0.0574251
0.0471155
0.0215196
-0.0238305
-0.079186
-0.122267
-0.136419
-0.124038
-0.0988373
-0.07237
-0.0496968
-0.0318481
-0.0183811
-0.00843545
-0.00133081
0.00348977
0.006402
0.00742183
0.00708895
0.00531135
0.00346635
0.00150914
0.000232342
-0.158516
-0.163117
-0.161291
-0.156459
-0.151623
-0.147634
-0.144167
-0.140867
-0.137767
-0.135154
-0.133347
-0.132597
-0.133093
-0.13498
-0.13833
-0.143095
-0.14906
-0.155822
-0.162752
-0.168919
-0.173252
-0.174676
-0.172167
-0.165019
-0.153067
-0.136787
-0.117185
-0.0955058
-0.0729598
-0.0505797
-0.0291092
-0.00904276
0.00920364
0.0254542
0.0396324
0.0507078
0.0570602
0.0569073
0.0476615
0.0228503
-0.0213696
-0.0740843
-0.113808
-0.125993
-0.114316
-0.0915681
-0.0677363
-0.0471166
-0.0306351
-0.0180002
-0.00853791
-0.00170001
0.00298099
0.00583972
0.00691022
0.00666913
0.00509469
0.00335941
0.00154823
0.000297908
-0.148158
-0.15321
-0.152472
-0.148809
-0.144955
-0.141827
-0.139213
-0.136768
-0.134447
-0.132456
-0.131061
-0.130484
-0.130876
-0.132341
-0.134915
-0.138541
-0.143034
-0.148049
-0.153037
-0.157273
-0.159931
-0.160141
-0.157086
-0.150212
-0.139366
-0.124866
-0.107441
-0.0880543
-0.0676957
-0.0472529
-0.0274177
-0.00868491
0.00852164
0.0239338
0.0373608
0.0478613
0.0539826
0.0542099
0.0458178
0.0225436
-0.018778
-0.0671599
-0.102783
-0.113412
-0.103294
-0.0836268
-0.0627613
-0.04435
-0.0293204
-0.0175741
-0.00863685
-0.00209257
0.00243334
0.00522918
0.00634512
0.00619955
0.00483564
0.00323078
0.00157019
0.000357691
-0.138113
-0.143401
-0.143567
-0.140958
-0.138015
-0.135662
-0.133784
-0.132064
-0.130409
-0.128958
-0.127925
-0.127498
-0.127799
-0.128899
-0.13081
-0.133469
-0.136713
-0.140251
-0.143643
-0.146321
-0.147634
-0.146888
-0.14345
-0.136878
-0.127023
-0.114082
-0.0985839
-0.0812689
-0.0629393
-0.0443489
-0.0261262
-0.00876056
0.00732083
0.0217918
0.0343523
0.0441213
0.0497779
0.0499982
0.0422679
0.0211082
-0.0158162
-0.058451
-0.0896657
-0.099406
-0.0915594
-0.0753531
-0.0576015
-0.0414589
-0.027923
-0.0171044
-0.0087262
-0.00250138
0.00185469
0.00457966
0.00573745
0.00568691
0.00453589
0.00307711
0.00156821
0.000405505
-0.128385
-0.133804
-0.134699
-0.133
-0.13087
-0.129202
-0.127952
-0.126841
-0.125749
-0.12476
-0.124041
-0.123743
-0.123966
-0.124758
-0.126116
-0.127975
-0.130193
-0.13253
-0.134649
-0.136091
-0.136346
-0.134876
-0.131188
-0.124926
-0.115947
-0.104372
-0.0905808
-0.0751367
-0.058682
-0.0418517
-0.0252078
-0.00922374
0.00567219
0.0191186
0.0307374
0.039703
0.0448164
0.0448952
0.0378076
0.019237
-0.012339
-0.0485984
-0.0755702
-0.085015
-0.0797965
-0.067107
-0.0524181
-0.0385075
-0.0264642
-0.0165935
-0.00880026
-0.00291825
0.00125401
0.00390078
0.00509674
0.00514442
0.00419864
0.00289678
0.00153826
0.000437474
-0.119097
-0.124514
-0.12596
-0.125019
-0.123589
-0.122512
-0.121791
-0.121184
-0.120559
-0.119958
-0.119503
-0.119318
-0.119481
-0.120024
-0.120934
-0.122152
-0.123557
-0.124947
-0.126061
-0.126542
-0.125995
-0.123997
-0.120167
-0.11422
-0.106027
-0.0956582
-0.083384
-0.0696281
-0.0549013
-0.0397351
-0.024626
-0.010021
0.00365589
0.0160239
0.0266587
0.0348001
0.0393803
0.0393505
0.0330201
0.017283
-0.00879621
-0.0388525
-0.0619536
-0.0713309
-0.0686424
-0.0592033
-0.0473532
-0.0355562
-0.0249658
-0.0160453
-0.008854
-0.00333446
0.000640796
0.00320239
0.00443186
0.00457726
0.00382767
0.00268996
0.00147934
0.00045201
-0.110282
-0.115572
-0.117411
-0.117085
-0.116242
-0.11566
-0.115375
-0.115178
-0.114934
-0.114651
-0.114419
-0.114333
-0.114455
-0.114805
-0.115367
-0.116086
-0.116859
-0.117526
-0.117867
-0.117624
-0.116485
-0.114124
-0.110246
-0.104625
-0.0971492
-0.0878555
-0.0769337
-0.0647025
-0.051566
-0.0379656
-0.0243361
-0.0110913
0.00135866
0.0126252
0.0222686
0.0296008
0.0336936
0.0336422
0.0281658
0.0151679
-0.00589982
-0.0303692
-0.049949
-0.0591288
-0.0585295
-0.0518608
-0.0425161
-0.0326574
-0.02345
-0.0154652
-0.00888344
-0.00374134
2.49482e-05
0.00249478
0.00375176
0.00399291
0.00342789
0.00245778
0.00139027
0.000449347
-0.101908
-0.107001
-0.109107
-0.109265
-0.108899
-0.108719
-0.108783
-0.108912
-0.108972
-0.108947
-0.108899
-0.108901
-0.109
-0.109209
-0.109508
-0.109848
-0.110142
-0.110264
-0.110042
-0.109274
-0.107723
-0.105139
-0.101295
-0.0960143
-0.0892022
-0.0808744
-0.0711648
-0.0603132
-0.048638
-0.0365037
-0.0242877
-0.0123667
-0.00112795
0.0090431
0.017717
0.024278
0.0279365
0.0279308
0.0233158
0.0127435
-0.00405711
-0.0237123
-0.0400732
-0.0487551
-0.0496521
-0.045199
-0.0379821
-0.0298554
-0.0219381
-0.0148593
-0.00888577
-0.0041307
-0.00058353
0.00178829
0.00306531
0.0033992
0.00300573
0.00220306
0.00127828
0.000431121
-0.0939812
-0.0988297
-0.101096
-0.101617
-0.101625
-0.101761
-0.102097
-0.102478
-0.102773
-0.102952
-0.103054
-0.103134
-0.103225
-0.103335
-0.103444
-0.103507
-0.103455
-0.103186
-0.102567
-0.10144
-0.0996265
-0.096937
-0.0931977
-0.0882709
-0.0820795
-0.0746278
-0.0660106
-0.056409
-0.0460737
-0.0353043
-0.024426
-0.0137765
-0.00371311
0.00539554
0.0131403
0.0189813
0.0222575
0.0223384
0.0185403
0.0100355
-0.00323842
-0.0188399
-0.0322997
-0.0402151
-0.0420379
-0.0392639
-0.0337998
-0.0271865
-0.0204512
-0.0142353
-0.0088595
-0.00449521
-0.00117501
0.00109301
0.00238147
0.0028034
0.0025676
0.00192904
0.00114497
0.000399665
-0.0865117
-0.0910725
-0.0934064
-0.0941885
-0.0944802
-0.0948562
-0.0953945
-0.0959617
-0.0964335
-0.0967696
-0.0969913
-0.0971371
-0.0972326
-0.0972801
-0.0972604
-0.0971343
-0.0968436
-0.0963092
-0.0954286
-0.0940802
-0.0921268
-0.0894273
-0.0858499
-0.0812893
-0.075684
-0.069033
-0.0614045
-0.0529362
-0.043826
-0.0343193
-0.0246943
-0.01525
-0.00630984
0.00178662
0.0086602
0.0138414
0.0167869
0.0169842
0.0139454
0.00719166
-0.00319576
-0.0154445
-0.0263453
-0.0333294
-0.0356177
-0.0340568
-0.0299981
-0.0246806
-0.019009
-0.0136017
-0.00880453
-0.00482878
-0.00174067
0.000418383
0.001709
0.00221216
0.00212008
0.00164022
0.000994889
0.000357581
-0.0794865
-0.083731
-0.0860618
-0.0870205
-0.0875185
-0.0880677
-0.0887485
-0.0894463
-0.0900447
-0.0904967
-0.0908107
-0.0910131
-0.0911218
-0.0911359
-0.0910375
-0.0907923
-0.0903512
-0.0896529
-0.0886203
-0.0871591
-0.0851646
-0.0825315
-0.0791619
-0.0749762
-0.069927
-0.0640117
-0.0572808
-0.0498397
-0.0418459
-0.0335
-0.0250373
-0.0167201
-0.00883606
-0.00168946
0.00437916
0.00896723
0.0116331
0.011968
0.00962693
0.0043539
-0.00368366
-0.0131918
-0.0218642
-0.0278608
-0.0302819
-0.0295521
-0.0265909
-0.0223611
-0.0176302
-0.012968
-0.00872219
-0.00512688
-0.00227285
-0.000227091
0.00105619
0.00163212
0.00167017
0.00134139
0.000832385
0.000307388
-0.0728902
-0.0768057
-0.0790797
-0.0801456
-0.080785
-0.0814514
-0.0822247
-0.0830064
-0.0836891
-0.0842224
-0.0846053
-0.0848548
-0.0849828
-0.0849863
-0.0848483
-0.0845392
-0.0840179
-0.0832365
-0.0821381
-0.0806493
-0.0786903
-0.0761829
-0.0730554
-0.0692489
-0.0647282
-0.0594909
-0.0535759
-0.0470654
-0.0400846
-0.0327982
-0.0254034
-0.0181258
-0.0112185
-0.00495166
0.000382046
0.0044445
0.00687751
0.00735893
0.00564945
0.00162642
-0.00450879
-0.0117987
-0.0185537
-0.0235858
-0.0259094
-0.0257098
-0.0235807
-0.0202452
-0.0163312
-0.0123439
-0.00861522
-0.00538668
-0.00276532
-0.000836138
0.000430654
0.00106968
0.00122447
0.00103739
0.000661638
0.000251481
-0.0667119
-0.0702946
-0.0724717
-0.0735896
-0.0743177
-0.0750556
-0.0758803
-0.076708
-0.0774403
-0.0780263
-0.0784582
-0.0787458
-0.0788967
-0.0789063
-0.0787585
-0.0784281
-0.0778808
-0.0770783
-0.0759795
-0.0745278
-0.0726622
-0.0703244
-0.0674626
-0.0640345
-0.0600148
-0.055403
-0.0502298
-0.0445604
-0.0384951
-0.0321684
-0.0257455
-0.0194163
-0.0133995
-0.00793364
-0.00326531
0.000333441
0.00257445
0.00320071
0.00204821
-0.000925785
-0.00551954
-0.0110427
-0.0164072
-0.0203224
-0.0223801
-0.0224786
-0.0209598
-0.0183434
-0.0151257
-0.0117393
-0.00848764
-0.00560716
-0.00321357
-0.00140288
-0.000160947
0.000530671
0.000789144
0.000733181
0.000486633
0.000192033
-0.0609371
-0.0641904
-0.0662428
-0.0673708
-0.0681459
-0.0689192
-0.0697634
-0.070607
-0.0713616
-0.071977
-0.0724411
-0.0727588
-0.0729339
-0.0729611
-0.0728253
-0.0725051
-0.0719721
-0.0711949
-0.0701436
-0.0687756
-0.0670445
-0.0649066
-0.0623244
-0.0592687
-0.0557224
-0.0516867
-0.047187
-0.0422757
-0.0370337
-0.0315704
-0.026023
-0.0205512
-0.0153371
-0.0105878
-0.00651485
-0.00332529
-0.00124625
-0.000486706
-0.00115889
-0.00326018
-0.00660782
-0.0106942
-0.0147468
-0.0178359
-0.0195684
-0.0198006
-0.018712
-0.0166605
-0.0140249
-0.0111638
-0.00834453
-0.00578904
-0.00361487
-0.00192298
-0.000713142
2.03322e-05
0.000369808
0.00043364
0.000311073
0.000130965
-0.0555516
-0.0584848
-0.0603948
-0.0615015
-0.0622922
-0.0630733
-0.0639126
-0.0647496
-0.0655051
-0.0661316
-0.0666144
-0.0669547
-0.0671538
-0.067206
-0.0670975
-0.0668096
-0.0663197
-0.0656044
-0.0646297
-0.0633762
-0.0618066
-0.059887
-0.0575902
-0.054896
-0.0517938
-0.0482871
-0.0443972
-0.0401667
-0.0356612
-0.0309696
-0.0262042
-0.0214984
-0.0170028
-0.0128882
-0.00933672
-0.00651052
-0.00457766
-0.00370272
-0.00397054
-0.00535751
-0.00770313
-0.0106311
-0.0136088
-0.0159731
-0.0173601
-0.0176144
-0.016814
-0.0151949
-0.013036
-0.0106258
-0.0081917
-0.0059346
-0.00396831
-0.00239369
-0.00122179
-0.000456898
-2.85932e-05
0.000143354
0.000138325
6.99322e-05
-0.0505413
-0.0531681
-0.054926
-0.0559895
-0.0567725
-0.0575413
-0.058358
-0.0591718
-0.0599126
-0.0605361
-0.0610267
-0.0613831
-0.0616047
-0.0616857
-0.0616137
-0.0613723
-0.0609424
-0.0603008
-0.0594287
-0.0583131
-0.0569228
-0.0552303
-0.0532164
-0.0508681
-0.0481798
-0.0451564
-0.0418165
-0.0381949
-0.0343447
-0.030338
-0.0262661
-0.022238
-0.0183785
-0.0148234
-0.0117214
-0.00920812
-0.00742649
-0.00646281
-0.00639814
-0.00720959
-0.00875886
-0.0107728
-0.0128768
-0.01461
-0.0156549
-0.0158584
-0.0152377
-0.01394
-0.0121632
-0.0101325
-0.00803528
-0.00604743
-0.00427469
-0.00281385
-0.00168415
-0.000897507
-0.000401924
-0.000133555
-2.86185e-05
1.03333e-05
-0.0458907
-0.0482288
-0.0498317
-0.0508374
-0.0515965
-0.052339
-0.0531211
-0.0539003
-0.0546153
-0.0552257
-0.0557158
-0.0560826
-0.0563246
-0.0564358
-0.0564054
-0.0562184
-0.0558579
-0.0553047
-0.0545385
-0.0535781
-0.0523723
-0.0509066
-0.0491669
-0.0471448
-0.0448387
-0.0422543
-0.0394079
-0.0363279
-0.0330576
-0.0296549
-0.0261935
-0.0227613
-0.0194591
-0.0163969
-0.0136915
-0.0114607
-0.00980096
-0.00878612
-0.00846227
-0.0088146
-0.00973516
-0.0110415
-0.0124488
-0.0136411
-0.0143618
-0.0144715
-0.0139506
-0.0128842
-0.0114069
-0.00968935
-0.00788128
-0.00613205
-0.00453629
-0.0031838
-0.00209888
-0.001299
-0.000746941
-0.000393591
-0.000187186
-4.66824e-05
-0.0415861
-0.0436551
-0.045105
-0.0460444
-0.046769
-0.0474762
-0.0482162
-0.0489537
-0.0496356
-0.0502258
-0.0507091
-0.0510816
-0.0513412
-0.0514824
-0.0514956
-0.0513688
-0.051089
-0.050644
-0.0500234
-0.0491809
-0.0481444
-0.0468936
-0.0454122
-0.0436929
-0.0417359
-0.0395473
-0.037141
-0.0345405
-0.0317804
-0.0289072
-0.0259797
-0.0230681
-0.0202525
-0.0176209
-0.0152648
-0.0132739
-0.0117272
-0.0106878
-0.0101761
-0.0101785
-0.0106247
-0.0113752
-0.0122337
-0.0129741
-0.0134021
-0.0133966
-0.0129188
-0.0120123
-0.0107642
-0.00929988
-0.00773517
-0.00619351
-0.00475656
-0.00350524
-0.00246597
-0.00165998
-0.00106133
-0.000633989
-0.000335289
-0.000100202
-0.0376138
-0.0394346
-0.0407371
-0.0416063
-0.0422901
-0.0429568
-0.0436509
-0.0443429
-0.0449875
-0.0455529
-0.0460247
-0.046399
-0.046673
-0.0468417
-0.0468967
-0.0468274
-0.0466222
-0.0462693
-0.0457566
-0.045072
-0.0442094
-0.0431633
-0.0419234
-0.0404832
-0.038843
-0.0370087
-0.0349926
-0.0328139
-0.0305004
-0.0280888
-0.0256257
-0.0231663
-0.0207739
-0.0185173
-0.0164679
-0.0146951
-0.0132608
-0.0122108
-0.0115651
-0.0113106
-0.0113966
-0.0117247
-0.0121557
-0.0125311
-0.0127057
-0.0125796
-0.0121075
-0.0113065
-0.0102292
-0.00896542
-0.00760155
-0.00623697
-0.0049398
-0.00378097
-0.00278664
-0.00198016
-0.00134373
-0.000852751
-0.000471342
-0.000149553
-0.0339599
-0.0355542
-0.0367176
-0.0375162
-0.0381564
-0.0387805
-0.0394272
-0.0400726
-0.0406781
-0.0412159
-0.0416733
-0.0420459
-0.0423311
-0.0425241
-0.0426177
-0.0426026
-0.0424689
-0.0422067
-0.0418066
-0.0412591
-0.0405577
-0.0397007
-0.038681
-0.0374938
-0.0361382
-0.0346188
-0.0329461
-0.0311363
-0.0292114
-0.0272002
-0.025139
-0.0230708
-0.0210449
-0.0191147
-0.0173352
-0.0157599
-0.0144362
-0.0133992
-0.0126654
-0.0122268
-0.0120474
-0.0120585
-0.012163
-0.0122501
-0.0122126
-0.0119714
-0.0114823
-0.0107467
-0.00979373
-0.00868524
-0.00748381
-0.00626737
-0.00509076
-0.00401466
-0.00306311
-0.00226024
-0.00159377
-0.00104871
-0.000594254
-0.000194269
-0.0306112
-0.0320006
-0.033035
-0.0337651
-0.0343613
-0.0349428
-0.035543
-0.0361424
-0.0367086
-0.0372178
-0.0376587
-0.0380272
-0.0383205
-0.0385345
-0.0386628
-0.0386974
-0.0386301
-0.0384525
-0.0381572
-0.0377369
-0.0371858
-0.0364975
-0.0356735
-0.0347101
-0.033606
-0.0323639
-0.0309916
-0.0295022
-0.0279134
-0.0262476
-0.0245326
-0.0228015
-0.0210923
-0.0194458
-0.0179042
-0.0165084
-0.0152944
-0.0142895
-0.0135075
-0.0129446
-0.0125763
-0.0123559
-0.0122165
-0.0120811
-0.0118719
-0.0115282
-0.0110105
-0.0103124
-0.00944729
-0.00845668
-0.00738401
-0.00628903
-0.0052143
-0.00421055
-0.00329848
-0.00250187
-0.00181188
-0.00122148
-0.000703482
-0.000234078
-0.027555
-0.0287608
-0.0296772
-0.0303425
-0.0308961
-0.0314366
-0.0319923
-0.0325477
-0.0330758
-0.0335566
-0.0339801
-0.0343424
-0.0346411
-0.0348725
-0.0350308
-0.0351095
-0.0351015
-0.0349999
-0.0347984
-0.0344911
-0.0340727
-0.0335392
-0.0328887
-0.0321213
-0.0312363
-0.0302354
-0.0291238
-0.0279112
-0.0266114
-0.0252419
-0.0238239
-0.0223825
-0.0209463
-0.0195464
-0.0182148
-0.0169824