/*--------------------------------*- C++ -*----------------------------------*\
| =========                 |                                                 |
| \\      /  F ield         | OpenFOAM: The Open Source CFD Toolbox           |
|  \\    /   O peration     | Version:  2512                                  |
|   \\  /    A nd           | Website:  www.openfoam.com                      |
|    \\/     M anipulation  |                                                 |
\*---------------------------------------------------------------------------*/
FoamFile
{
    version     2.0;
    format      ascii;
    arch        "LSB;label=32;scalar=64";
    class       volScalarField;
    location    "194";
    object      p;
}
// * * * * * * * * * * * * * * * * * * * * * * * * * * * * * * * * * * * * * //

dimensions      [0 2 -2 0 0 0 0];

internalField   nonuniform List<scalar> 
13248
(
-0.315466
-0.31449
-0.312274
-0.30907
-0.305133
-0.300669
-0.295878
-0.290971
-0.286147
-0.281586
-0.277431
-0.273778
-0.27066
-0.268048
-0.26585
-0.263921
-0.262081
-0.26014
-0.257901
-0.25523
-0.251886
-0.247924
-0.242393
-0.23593
-0.323361
-0.321503
-0.318619
-0.314915
-0.310603
-0.305879
-0.300913
-0.295859
-0.290853
-0.286001
-0.281373
-0.276998
-0.272858
-0.268896
-0.26502
-0.261121
-0.257084
-0.252806
-0.248197
-0.243179
-0.237651
-0.231553
-0.224579
-0.217369
-0.333244
-0.330279
-0.326549
-0.322215
-0.317418
-0.312327
-0.30706
-0.301691
-0.296268
-0.290814
-0.285335
-0.279823
-0.274258
-0.268613
-0.262858
-0.256971
-0.250933
-0.24473
-0.238344
-0.231754
-0.224886
-0.217748
-0.210123
-0.202532
-0.345026
-0.340772
-0.336055
-0.330975
-0.325574
-0.319967
-0.314191
-0.308219
-0.302004
-0.295509
-0.28872
-0.281653
-0.274345
-0.266855
-0.259245
-0.251576
-0.243896
-0.236233
-0.22859
-0.220949
-0.213268
-0.205545
-0.197644
-0.190072
-0.358659
-0.35298
-0.347181
-0.341262
-0.335124
-0.328791
-0.322193
-0.315203
-0.307711
-0.29968
-0.291148
-0.282218
-0.273032
-0.263739
-0.25447
-0.245328
-0.236374
-0.227633
-0.219098
-0.210745
-0.202534
-0.194447
-0.186401
-0.178729
-0.374092
-0.3669
-0.359965
-0.353127
-0.346079
-0.338713
-0.330851
-0.322305
-0.312985
-0.302939
-0.292331
-0.281387
-0.270343
-0.259404
-0.248721
-0.238387
-0.228442
-0.218885
-0.209692
-0.200822
-0.192235
-0.183897
-0.175752
-0.168018
-0.391188
-0.382444
-0.374345
-0.366487
-0.358268
-0.349433
-0.339741
-0.329037
-0.317361
-0.304932
-0.292072
-0.279115
-0.266345
-0.253968
-0.242106
-0.23081
-0.220083
-0.209894
-0.2002
-0.190948
-0.182091
-0.173582
-0.165387
-0.157596
-0.409635
-0.399354
-0.390073
-0.381026
-0.371259
-0.360394
-0.348233
-0.334798
-0.320359
-0.305348
-0.290223
-0.275371
-0.261062
-0.247453
-0.234608
-0.222526
-0.211171
-0.200485
-0.190406
-0.180873
-0.171827
-0.16322
-0.155021
-0.147217
-0.428888
-0.417148
-0.406648
-0.396151
-0.384336
-0.370806
-0.355571
-0.338963
-0.321544
-0.303938
-0.286674
-0.270117
-0.254475
-0.239827
-0.226168
-0.213447
-0.201591
-0.190521
-0.18016
-0.170434
-0.161278
-0.15264
-0.144481
-0.136711
-0.448141
-0.435077
-0.423277
-0.410964
-0.396524
-0.379718
-0.360945
-0.34094
-0.320543
-0.300494
-0.28131
-0.26328
-0.246512
-0.231
-0.216677
-0.203447
-0.191208
-0.179859
-0.16931
-0.159476
-0.150283
-0.141676
-0.133594
-0.125907
-0.466349
-0.452124
-0.43888
-0.424297
-0.406645
-0.386072
-0.363508
-0.340104
-0.316906
-0.294671
-0.273833
-0.254566
-0.236874
-0.22067
-0.205831
-0.192224
-0.179722
-0.168208
-0.157574
-0.147727
-0.138586
-0.130082
-0.122123
-0.114589
-0.482324
-0.467139
-0.452272
-0.434928
-0.41352
-0.388811
-0.362355
-0.335678
-0.309928
-0.285797
-0.263583
-0.243326
-0.224925
-0.20822
-0.193038
-0.179214
-0.166596
-0.155051
-0.144461
-0.134722
-0.125747
-0.117456
-0.109728
-0.102494
-0.334384
-0.336897
-0.338304
-0.339072
-0.339615
-0.34005
-0.340431
-0.340789
-0.341129
-0.341445
-0.341729
-0.341982
-0.342217
-0.342468
-0.342792
-0.343274
-0.344024
-0.345177
-0.34689
-0.349334
-0.352662
-0.356969
-0.362305
-0.368862
-0.327828
-0.32981
-0.330804
-0.331168
-0.331244
-0.331145
-0.330941
-0.330681
-0.330399
-0.330123
-0.329884
-0.329729
-0.329729
-0.329981
-0.33061
-0.331768
-0.333629
-0.336377
-0.340204
-0.345279
-0.351735
-0.359613
-0.368838
-0.379518
-0.322514
-0.323889
-0.324437
-0.3244
-0.32403
-0.323432
-0.322685
-0.321859
-0.321015
-0.320208
-0.319506
-0.318995
-0.318785
-0.319026
-0.319885
-0.321557
-0.32425
-0.328165
-0.333506
-0.340416
-0.348984
-0.359194
-0.370839
-0.38387
-0.318126
-0.318914
-0.319029
-0.318604
-0.317805
-0.316725
-0.315453
-0.314078
-0.312686
-0.311361
-0.310204
-0.309332
-0.308852
-0.309002
-0.309939
-0.31188
-0.315046
-0.319641
-0.325841
-0.333764
-0.343451
-0.354841
-0.367725
-0.381524
-0.314385
-0.314692
-0.314427
-0.313637
-0.31242
-0.310859
-0.309053
-0.307113
-0.30515
-0.303277
-0.301618
-0.300316
-0.29953
-0.299454
-0.300289
-0.30225
-0.305547
-0.310369
-0.316862
-0.325109
-0.335111
-0.34672
-0.35996
-0.373379
-0.31111
-0.311102
-0.310535
-0.309407
-0.307776
-0.305723
-0.303361
-0.300822
-0.298245
-0.295775
-0.293562
-0.291771
-0.290579
-0.290182
-0.290783
-0.292588
-0.295789
-0.30055
-0.306983
-0.315127
-0.324971
-0.336138
-0.349107
-0.361214
-0.30827
-0.30813
-0.307346
-0.305906
-0.303864
-0.30131
-0.298375
-0.295215
-0.291999
-0.288904
-0.28611
-0.283801
-0.282171
-0.28142
-0.281748
-0.283347
-0.286389
-0.291005
-0.297255
-0.305117
-0.314618
-0.325013
-0.337376
-0.347574
-0.306005
-0.305886
-0.30495
-0.303218
-0.300778
-0.297734
-0.294241
-0.290481
-0.286657
-0.282975
-0.279645
-0.276873
-0.274869
-0.273836
-0.273966
-0.275431
-0.278368
-0.282858
-0.288929
-0.296406
-0.305343
-0.314572
-0.325729
-0.333475
-0.304611
-0.304588
-0.30353
-0.301522
-0.298707
-0.295219
-0.291235
-0.286966
-0.282643
-0.278501
-0.274774
-0.271691
-0.269467
-0.2683
-0.268363
-0.269788
-0.272649
-0.276947
-0.282616
-0.289368
-0.297204
-0.304792
-0.313759
-0.31879
-0.304496
-0.304534
-0.303336
-0.30106
-0.297914
-0.294062
-0.289705
-0.285078
-0.280432
-0.276022
-0.272096
-0.268884
-0.266594
-0.265393
-0.265404
-0.266689
-0.269236
-0.272949
-0.277665
-0.283062
-0.289016
-0.294498
-0.300464
-0.302727
-0.306082
-0.306034
-0.304624
-0.302073
-0.298641
-0.29452
-0.289925
-0.285103
-0.280311
-0.275805
-0.271823
-0.268577
-0.266233
-0.264907
-0.264644
-0.265417
-0.267116
-0.269564
-0.272519
-0.275719
-0.278969
-0.281877
-0.284889
-0.285357
-0.309694
-0.309321
-0.307578
-0.304718
-0.301022
-0.296697
-0.291965
-0.287062
-0.282231
-0.277705
-0.273688
-0.270345
-0.267781
-0.266037
-0.265076
-0.264789
-0.264998
-0.265479
-0.265972
-0.266277
-0.266148
-0.265682
-0.26505
-0.264065
-0.3784
-0.390745
-0.403196
-0.414207
-0.421711
-0.42342
-0.417095
-0.401001
-0.374326
-0.337856
-0.294683
-0.249748
-0.208345
-0.174546
-0.150432
-0.136339
-0.132029
-0.137653
-0.152662
-0.173083
-0.190575
-0.195681
-0.184168
-0.159721
-0.131029
-0.105777
-0.0879867
-0.0784535
-0.0760488
-0.07994
-0.0915584
-0.111884
-0.135179
-0.149549
-0.145408
-0.125702
-0.100984
-0.0804026
-0.0671802
-0.0601299
-0.0599479
-0.0679564
-0.0790105
-0.0839957
-0.0783093
-0.0667351
-0.0566259
-0.0492272
-0.0466374
-0.0489825
-0.051414
-0.0511861
-0.0477639
-0.0409831
-0.0353238
-0.0286773
-0.0228384
-0.0221343
-0.0186193
-0.00652958
-0.394626
-0.411896
-0.428388
-0.442596
-0.45233
-0.455226
-0.448849
-0.43136
-0.401868
-0.361325
-0.313154
-0.262767
-0.215889
-0.176841
-0.147795
-0.128997
-0.119941
-0.120445
-0.130154
-0.146228
-0.161793
-0.168183
-0.160452
-0.141333
-0.11789
-0.0970667
-0.0829351
-0.0765344
-0.0768664
-0.0834512
-0.0981365
-0.121701
-0.14753
-0.162679
-0.157083
-0.13466
-0.106817
-0.0832083
-0.0673844
-0.0580222
-0.0554828
-0.0608522
-0.0698078
-0.0740389
-0.0695444
-0.0605776
-0.0530787
-0.0482579
-0.0479015
-0.0528414
-0.0568817
-0.0566686
-0.0522685
-0.0435861
-0.0365587
-0.0278777
-0.0207649
-0.0191335
-0.0155051
-0.00542767
-0.402808
-0.423236
-0.442082
-0.458207
-0.469395
-0.4732
-0.467045
-0.448939
-0.417918
-0.37496
-0.323687
-0.2698
-0.219256
-0.176512
-0.143658
-0.12083
-0.107344
-0.102771
-0.107004
-0.118285
-0.131312
-0.138501
-0.134456
-0.120674
-0.102562
-0.0863335
-0.0760646
-0.072941
-0.0760703
-0.0853161
-0.102832
-0.129194
-0.157246
-0.173235
-0.166641
-0.142036
-0.111531
-0.085256
-0.0670851
-0.0556263
-0.0509262
-0.0537968
-0.0607467
-0.064233
-0.0608085
-0.0542611
-0.0492275
-0.0469924
-0.0489732
-0.0566441
-0.0623616
-0.0620705
-0.0565693
-0.0459645
-0.0376253
-0.0270677
-0.0187157
-0.0161546
-0.0124134
-0.00433707
-0.402308
-0.424243
-0.444257
-0.461497
-0.473414
-0.477803
-0.471943
-0.453819
-0.422406
-0.378678
-0.326327
-0.27111
-0.218992
-0.174299
-0.138976
-0.113075
-0.0958463
-0.0867016
-0.0855388
-0.0916369
-0.101335
-0.108464
-0.107544
-0.0986738
-0.0856471
-0.0739396
-0.0675204
-0.0675945
-0.0733683
-0.0850058
-0.1049
-0.133613
-0.163702
-0.180746
-0.173798
-0.147631
-0.115011
-0.0865341
-0.0663568
-0.0530647
-0.0464609
-0.0470517
-0.0521258
-0.0548584
-0.0523023
-0.047907
-0.0451318
-0.0454228
-0.0497753
-0.0602747
-0.0677362
-0.067311
-0.0606081
-0.0480835
-0.0385031
-0.026247
-0.0167057
-0.0132318
-0.00937142
-0.00326683
-0.394132
-0.416057
-0.436258
-0.454556
-0.466432
-0.470789
-0.465093
-0.447382
-0.416539
-0.37358
-0.322176
-0.267855
-0.216203
-0.1712
-0.13464
-0.106595
-0.0863535
-0.0732911
-0.0672704
-0.0681185
-0.0738203
-0.0798273
-0.0813429
-0.0761938
-0.0677399
-0.0602504
-0.0574206
-0.0604149
-0.0685377
-0.0821787
-0.103938
-0.134549
-0.166406
-0.18478
-0.17829
-0.151343
-0.117245
-0.0870898
-0.065292
-0.0504596
-0.0422271
-0.0407949
-0.0441523
-0.04614
-0.0442124
-0.0416357
-0.0408454
-0.0435304
-0.0502243
-0.0636034
-0.0728617
-0.072277
-0.0643178
-0.0499121
-0.0391756
-0.0254137
-0.014748
-0.0103958
-0.00640462
-0.0022255
-0.380826
-0.401424
-0.420703
-0.437308
-0.450053
-0.454171
-0.448577
-0.431553
-0.402076
-0.361267
-0.312627
-0.261154
-0.211761
-0.167909
-0.131222
-0.101897
-0.0793865
-0.0631107
-0.0528998
-0.048857
-0.0501896
-0.0539681
-0.0562075
-0.0540565
-0.0495359
-0.0457377
-0.0460139
-0.0515237
-0.0616305
-0.0768447
-0.099899
-0.131825
-0.165159
-0.185139
-0.179906
-0.153092
-0.118239
-0.0869709
-0.0639622
-0.0478928
-0.0383077
-0.0351337
-0.0369664
-0.0382452
-0.0366878
-0.0355582
-0.0364234
-0.0413028
-0.0502383
-0.0664896
-0.0775793
-0.07685
-0.0676354
-0.0514244
-0.0396273
-0.0245589
-0.0128526
-0.00767445
-0.00353439
-0.00122026
-0.365052
-0.382976
-0.400836
-0.416424
-0.427161
-0.430194
-0.424562
-0.408495
-0.381174
-0.343784
-0.299432
-0.25233
-0.206545
-0.164969
-0.129058
-0.0991855
-0.0750849
-0.0563125
-0.0426776
-0.0343577
-0.0313174
-0.0320849
-0.0337042
-0.0334037
-0.0318603
-0.0310034
-0.03377
-0.0412821
-0.0529283
-0.0692164
-0.0929414
-0.125538
-0.160084
-0.181868
-0.178589
-0.152847
-0.118027
-0.0862204
-0.0624166
-0.0454145
-0.0347439
-0.0301028
-0.0306199
-0.0312653
-0.0298487
-0.0297762
-0.0319333
-0.03874
-0.04974
-0.0687982
-0.0817189
-0.0809243
-0.0705155
-0.0526009
-0.0398495
-0.0236717
-0.0110236
-0.00509036
-0.000777048
-0.000257133
-0.347784
-0.361951
-0.376291
-0.390308
-0.398677
-0.400608
-0.39508
-0.380439
-0.356109
-0.3232
-0.284224
-0.242469
-0.201129
-0.162567
-0.12812
-0.0983284
-0.0732454
-0.0526562
-0.0363924
-0.0245891
-0.017544
-0.0148797
-0.0148843
-0.0153463
-0.0154215
-0.0166945
-0.0212598
-0.0301556
-0.0428161
-0.0596838
-0.0835073
-0.116133
-0.15151
-0.175237
-0.174493
-0.150654
-0.116648
-0.0848725
-0.0606861
-0.0430556
-0.0315533
-0.0257083
-0.0251024
-0.02521
-0.0237405
-0.0243864
-0.0274504
-0.0358579
-0.048674
-0.070408
-0.0851175
-0.084411
-0.0729267
-0.0534302
-0.0398449
-0.0227578
-0.00926622
-0.00265852
0.00185645
0.00065909
-0.328435
-0.336901
-0.348933
-0.360232
-0.366443
-0.36751
-0.362503
-0.349901
-0.329275
-0.301508
-0.268412
-0.232365
-0.195775
-0.160575
-0.128033
-0.0988469
-0.073337
-0.0515505
-0.0334126
-0.0189889
-0.00861543
-0.00253179
-0.000130516
3.33286e-05
-0.000653319
-0.00334266
-0.00900386
-0.0186195
-0.0317308
-0.0486752
-0.0721059
-0.104334
-0.140144
-0.16575
-0.167928
-0.146696
-0.114266
-0.0830859
-0.0589051
-0.0409271
-0.0288006
-0.0219709
-0.0204033
-0.0200644
-0.0184132
-0.0194643
-0.0230588
-0.0326724
-0.0470001
-0.0712346
-0.0876621
-0.0872131
-0.0748354
-0.0539221
-0.0396265
-0.0218456
-0.00760504
-0.000397751
0.00436053
0.00152516
-0.306382
-0.311369
-0.320784
-0.32904
-0.333272
-0.333928
-0.329984
-0.319917
-0.303363
-0.280867
-0.253566
-0.223068
-0.191139
-0.159365
-0.128973
-0.100791
-0.0753288
-0.0528461
-0.033413
-0.0170777
-0.00410114
0.00507849
0.010345
0.0123678
0.0120626
0.00872413
0.00266362
-0.00709316
-0.0201572
-0.0368356
-0.0596138
-0.0909142
-0.126675
-0.153993
-0.159242
-0.141304
-0.111243
-0.0812277
-0.0573719
-0.0392539
-0.0266238
-0.0189212
-0.016487
-0.0158273
-0.0139263
-0.015075
-0.0188095
-0.029249
-0.0447448
-0.0711974
-0.0892556
-0.0892245
-0.0762124
-0.0541071
-0.0392048
-0.0209338
-0.00606865
0.00164946
0.00673029
0.00233901
-0.284974
-0.286559
-0.293961
-0.299499
-0.302177
-0.302955
-0.300389
-0.29304
-0.280545
-0.263076
-0.24122
-0.215968
-0.188549
-0.160221
-0.132126
-0.105185
-0.0800638
-0.0571997
-0.0368228
-0.0190361
-0.00402086
0.00783035
0.0160865
0.0206966
0.022211
0.0191761
0.013439
0.00413476
-0.00832003
-0.024263
-0.0461197
-0.0767491
-0.112505
-0.140514
-0.148862
-0.134239
-0.107311
-0.0790864
-0.0558631
-0.0378116
-0.0248517
-0.0163713
-0.0131057
-0.0122694
-0.0102841
-0.0114347
-0.0148405
-0.0255365
-0.041839
-0.0703697
-0.0898366
-0.0903037
-0.076957
-0.0539317
-0.0385382
-0.0198953
-0.00460286
0.00347556
0.00895428
0.00309758
-0.264193
-0.266124
-0.270616
-0.272418
-0.273374
-0.27375
-0.271814
-0.266414
-0.25709
-0.243703
-0.226437
-0.205807
-0.182585
-0.157717
-0.132202
-0.10697
-0.0827877
-0.0602265
-0.0396684
-0.0213412
-0.00541511
0.00792619
0.0184007
0.0255551
0.0288889
0.0278075
0.0226561
0.0141976
0.00267449
-0.0124077
-0.0331071
-0.0622227
-0.096673
-0.12478
-0.134074
-0.123717
-0.100434
-0.0745368
-0.052504
-0.0350665
-0.0223654
-0.0135852
-0.00976246
-0.00874163
-0.00686582
-0.00819682
-0.0112748
-0.0219143
-0.0385303
-0.0685432
-0.0892754
-0.0904683
-0.0768887
-0.0531311
-0.0374955
-0.0185114
-0.00305373
0.0052455
0.0110645
0.00379542
-0.24604
-0.256784
-0.257855
-0.256603
-0.255779
-0.254873
-0.252279
-0.246748
-0.237692
-0.225007
-0.208907
-0.189839
-0.168454
-0.145543
-0.121962
-0.0985149
-0.075873
-0.0545358
-0.034851
-0.0170464
-0.00129729
0.012236
0.0233667
0.0317713
0.0381295
0.037086
0.0330682
0.0259342
0.0159214
0.0020927
-0.018277
-0.0490572
-0.0867316
-0.117675
-0.128994
-0.115994
-0.0927327
-0.0679909
-0.0472932
-0.03091
-0.0189293
-0.0104262
-0.00657735
-0.00528114
-0.00304876
-0.0028614
-0.00629934
-0.0169012
-0.034018
-0.0660886
-0.0891394
-0.0911775
-0.0767664
-0.0518277
-0.0361632
-0.0169499
-0.00153105
0.00704545
0.0130386
0.00443222
-0.225462
-0.238787
-0.240685
-0.237785
-0.235058
-0.232893
-0.229702
-0.224059
-0.215339
-0.203524
-0.188877
-0.17178
-0.152724
-0.132304
-0.111181
-0.0900026
-0.0693389
-0.0496419
-0.0312463
-0.0143975
0.000726152
0.0140069
0.0252891
0.0340375
0.038163
0.0411924
0.0390194
0.0335509
0.0252655
0.0128371
-0.00710511
-0.0388697
-0.0775881
-0.107773
-0.116553
-0.104175
-0.0827976
-0.0605316
-0.0418726
-0.0269584
-0.0159081
-0.00776875
-0.00390393
-0.00250485
-0.000385575
-0.000361109
-0.0029364
-0.0131019
-0.0302173
-0.0633533
-0.0879613
-0.0901712
-0.0755076
-0.0499448
-0.0343132
-0.0152672
-0.000175301
0.00864725
0.0145616
0.00494541
-0.205976
-0.220032
-0.222339
-0.218846
-0.215021
-0.21201
-0.208508
-0.203065
-0.195013
-0.18433
-0.171259
-0.156099
-0.139202
-0.121004
-0.102022
-0.0828023
-0.0638484
-0.0455836
-0.028339
-0.0123648
0.00214286
0.0150294
0.0261377
0.0350684
0.0406778
0.043898
0.0429319
0.038811
0.0318252
0.0202044
0.000225011
-0.0312969
-0.0679423
-0.0951866
-0.102486
-0.0914806
-0.0727464
-0.0531883
-0.0365699
-0.0230659
-0.0129367
-0.00523795
-0.00141087
5.96806e-05
0.00201706
0.00102647
-0.000316766
-0.01029
-0.0273045
-0.0603116
-0.0854007
-0.0878908
-0.0734097
-0.047637
-0.0321395
-0.0134914
0.00119297
0.0101461
0.0158466
0.00540489
-0.18829
-0.201189
-0.203664
-0.200356
-0.19621
-0.192745
-0.189081
-0.183907
-0.176525
-0.166868
-0.155145
-0.14162
-0.126568
-0.110322
-0.0932911
-0.0759202
-0.0586397
-0.0418253
-0.0257876
-0.0107726
0.00301403
0.0153852
0.0261857
0.0351711
0.0414334
0.0450997
0.0452787
0.0424699
0.0367336
0.0259195
0.00632313
-0.0237533
-0.0574322
-0.0816381
-0.0876805
-0.0782785
-0.0624169
-0.0457012
-0.0312101
-0.0191618
-0.01001
-0.00283596
0.000911255
0.00246661
0.00435993
0.00367138
0.00218747
-0.0076624
-0.024262
-0.0563223
-0.081584
-0.0845405
-0.0704512
-0.0449091
-0.0296564
-0.0115751
0.00257103
0.0115008
0.0169426
0.0058235
-0.170814
-0.182732
-0.185437
-0.182535
-0.178429
-0.174778
-0.171062
-0.166177
-0.159445
-0.150752
-0.140273
-0.128238
-0.114873
-0.100428
-0.0852124
-0.0695813
-0.0538971
-0.0384935
-0.0236622
-0.00964621
0.00334701
0.0151115
0.0254792
0.0343516
0.0407538
0.0448322
0.0459212
0.0442577
0.0397396
0.03002
0.0115896
-0.0162137
-0.0463925
-0.0671884
-0.0722866
-0.0648804
-0.0521294
-0.0383175
-0.0259517
-0.0153335
-0.00715845
-0.000565697
0.003063
0.00471169
0.00659187
0.00612559
0.00465742
-0.00481949
-0.0205519
-0.0512656
-0.0764851
-0.0799186
-0.0665479
-0.0417405
-0.0268824
-0.00952483
0.00394456
0.0126797
0.0178223
0.00618754
-0.154012
-0.165191
-0.167977
-0.165454
-0.161565
-0.157951
-0.154323
-0.149779
-0.143698
-0.135934
-0.126618
-0.115948
-0.10411
-0.091294
-0.0777363
-0.06372
-0.0495494
-0.0355185
-0.0218946
-0.00891251
0.00322378
0.0142977
0.0240945
0.0322668
0.0390062
0.0433452
0.0450373
0.0441983
0.0406226
0.0320417
0.015446
-0.00903979
-0.0348136
-0.0522115
-0.057028
-0.0519193
-0.0422475
-0.0312037
-0.020875
-0.0116323
-0.00440176
0.00157182
0.00504546
0.00678144
0.00869686
0.00840867
0.00708194
-0.0017351
-0.0162724
-0.0452432
-0.0700093
-0.0739703
-0.0616786
-0.0381419
-0.0238596
-0.00735112
0.0053022
0.0136566
0.0184394
0.00648053
-0.138502
-0.14864
-0.151325
-0.149176
-0.145631
-0.142221
-0.138806
-0.134651
-0.129208
-0.122319
-0.114077
-0.10465
-0.0941913
-0.0828529
-0.0708159
-0.0583043
-0.0455703
-0.0328685
-0.0204399
-0.00850661
0.00273169
0.013063
0.0222761
0.0301203
0.0365612
0.0409499
0.0429988
0.0426858
0.0397332
0.0322718
0.0181273
-0.00217141
-0.0232558
-0.0376879
-0.0427969
-0.0399526
-0.0330679
-0.0245136
-0.0160647
-0.00811645
-0.00176679
0.00357586
0.00687045
0.0086794
0.0106811
0.0105606
0.00943529
0.00146698
-0.0116199
-0.038321
-0.0621997
-0.06677
-0.0558891
-0.0341468
-0.0206425
-0.00507722
0.00663316
0.0144104
0.0187565
0.00669352
-0.123953
-0.133012
-0.135599
-0.133829
-0.130682
-0.127566
-0.124438
-0.120698
-0.11587
-0.109796
-0.102544
-0.0942513
-0.0850489
-0.0750572
-0.0644167
-0.0533037
-0.0419249
-0.0304989
-0.0192407
-0.00835595
0.00196213
0.0115139
0.0201036
0.0275073
0.0335929
0.0379024
0.0401447
0.04019
0.0377498
0.0315081
0.0200774
0.00397404
-0.0128802
-0.0250204
-0.0303455
-0.0293824
-0.0248081
-0.0183669
-0.0115851
-0.0048318
0.000718819
0.00544722
0.00855499
0.0104182
0.0125514
0.012612
0.0117111
0.00473569
-0.00664996
-0.0306352
-0.0532641
-0.0584929
-0.0492915
-0.0298133
-0.0172963
-0.00274022
0.00792949
0.0149334
0.0187558
0.00682555
-0.110241
-0.118417
-0.120924
-0.119492
-0.116737
-0.11395
-0.111146
-0.107829
-0.103587
-0.0982724
-0.0919313
-0.0846776
-0.0766202
-0.0678565
-0.058496
-0.0486779
-0.0385711
-0.0283614
-0.0182382
-0.00838931
0.0010046
0.00975651
0.0176837
0.0245757
0.0302694
0.0344163
0.0367504
0.0370885
0.035179
0.0301756
0.0212204
0.00872208
-0.00456566
-0.0147505
-0.0200244
-0.0203834
-0.0175743
-0.012839
-0.00748237
-0.00181255
0.00302594
0.00718454
0.0101094
0.0120101
0.014313
0.0146052
0.0139617
0.00812361
-0.00141223
-0.0224606
-0.0435555
-0.0494139
-0.0420611
-0.0252234
-0.0138912
-0.000392246
0.00918708
0.0152413
0.0184481
0.00688391
-0.097604
-0.104931
-0.107293
-0.106151
-0.103776
-0.101329
-0.0988624
-0.0959657
-0.0922797
-0.0876681
-0.0821629
-0.0758575
-0.0688427
-0.0611975
-0.0530084
-0.0443857
-0.0354667
-0.0264082
-0.0173748
-0.00853527
-5.44968e-05
0.007893
0.0151353
0.021478
0.0267537
0.0306859
0.0330437
0.0336293
0.0322351
0.0283353
0.02142
0.0118456
0.00151313
-0.00689336
-0.0117951
-0.0129328
-0.0113798
-0.00796692
-0.00378731
0.000919132
0.00512734
0.00878336
0.0115329
0.0134594
0.0159606
0.0165938
0.0162855
0.0116826
0.00394459
-0.0141754
-0.0335459
-0.039913
-0.0344489
-0.020482
-0.0104963
0.00190117
0.0104057
0.0153819
0.0178844
0.00688657
-0.086024
-0.092486
-0.0946742
-0.0937904
-0.0917789
-0.0896682
-0.0875354
-0.0850419
-0.081876
-0.0779116
-0.0731695
-0.0677264
-0.0616586
-0.0550305
-0.0479108
-0.0403869
-0.0325703
-0.0245923
-0.0165945
-0.0087257
-0.00113529
0.00601725
0.0125729
0.0183539
0.0231985
0.0268829
0.0292107
0.0299923
0.0290606
0.0261023
0.0208457
0.0136048
0.00568461
-0.00109392
-0.00540803
-0.0068987
-0.00617872
-0.0037564
-0.000517702
0.00335235
0.00700105
0.0102332
0.0128187
0.0147655
0.0174605
0.018581
0.0187546
0.015403
0.00919548
-0.00623615
-0.0237868
-0.0304588
-0.0267813
-0.0157154
-0.00717639
0.00406488
0.0115851
0.0154379
0.0171608
0.00686351
-0.0753418
-0.081033
-0.0830628
-0.0824075
-0.0807273
-0.0789337
-0.0771185
-0.0750022
-0.0723146
-0.0689399
-0.0648898
-0.0602274
-0.0550164
-0.0493098
-0.0431622
-0.0366429
-0.0298424
-0.0228694
-0.0158451
-0.00889942
-0.00216514
0.00421555
0.0100984
0.0153213
0.0197344
0.0231535
0.0254145
0.0263496
0.0258296
0.0236755
0.0197685
0.0143778
0.00840042
0.00307304
-0.000558847
-0.00210697
-0.00189273
-0.000188316
0.00231979
0.00548461
0.00863515
0.0115147
0.0139561
0.015925
0.018751
0.0204599
0.0213015
0.0191237
0.0140136
0.000869268
-0.0148014
-0.0215187
-0.0194065
-0.0110641
-0.00399281
0.00602141
0.0127105
0.015517
0.0164079
0.00685247
-0.065556
-0.0705574
-0.0724267
-0.0719633
-0.0705832
-0.069083
-0.0675628
-0.0657925
-0.0635388
-0.0606961
-0.0572692
-0.0533092
-0.0488695
-0.0439936
-0.0387248
-0.0331184
-0.0272471
-0.0212009
-0.015082
-0.0090027
-0.00308001
0.00256229
0.00779625
0.0124758
0.0164696
0.0196213
0.0217943
0.0228503
0.0226927
0.0212221
0.0184074
0.0144824
0.0100587
0.00598603
0.00304581
0.0016236
0.00157144
0.00277491
0.00473006
0.00731708
0.0100282
0.0126086
0.0149225
0.0169147
0.019782
0.0220481
0.0235836
0.0223821
0.0179447
0.00674959
-0.00694828
-0.0134514
-0.0126315
-0.00667183
-0.00100935
0.00770313
0.0137389
0.0157156
0.0157554
0.00688547
-0.0566668
-0.0610319
-0.0627305
-0.0624196
-0.061303
-0.0600702
-0.0588193
-0.0573613
-0.0554962
-0.0531288
-0.0502585
-0.0469263
-0.0431764
-0.0390446
-0.0345655
-0.0297826
-0.0247545
-0.0195548
-0.0142693
-0.00899285
-0.00382736
0.00111884
0.00573549
0.00989657
0.0134906
0.0163802
0.0184538
0.0196016
0.0197523
0.0188543
0.016925
0.0141544
0.0109701
0.00794706
0.00566319
0.00446522
0.00431198
0.00518284
0.00672894
0.00885434
0.0111836
0.0135018
0.0156895
0.0176897
0.0205054
0.0231614
0.0251456
0.0245899
0.0205923
0.0112098
-0.00040426
-0.00650677
-0.00670032
-0.0026748
0.00170746
0.00906253
0.0145927
0.0160751
0.0152787
0.00696658
-0.0485953
-0.0523813
-0.0539218
-0.0537382
-0.0528493
-0.0518518
-0.0508409
-0.0496605
-0.0481392
-0.046192
-0.0438143
-0.0410385
-0.0379009
-0.0344309
-0.0306561
-0.0266103
-0.0223407
-0.0179066
-0.0133795
-0.00883893
-0.00437082
-6.99066e-05
0.00396883
0.00763988
0.0108592
0.0134955
0.015461
0.0166721
0.0170764
0.0166485
0.0154268
0.0135656
0.0113697
0.00920201
0.0075053
0.00657438
0.00642703
0.00709167
0.00834103
0.0101052
0.0121071
0.0141867
0.016236
0.0182104
0.0208674
0.0236035
0.0256647
0.0254583
0.0218885
0.0142539
0.00474587
-0.000831432
-0.00175744
0.000817194
0.0040971
0.0100826
0.0151653
0.0165303
0.0149518
0.00705518
-0.0412765
-0.0445563
-0.0459422
-0.0458587
-0.0451679
-0.0443808
-0.0435822
-0.0426444
-0.041423
-0.039843
-0.0378968
-0.0356096
-0.0330111
-0.0301249
-0.026973
-0.0235818
-0.0199883
-0.0162402
-0.0123959
-0.00852116
-0.00468842
-0.00097684
0.00253179
0.00574771
0.00861419
0.0110059
0.012856
0.0141009
0.0147042
0.014651
0.0139834
0.0128288
0.0114411
0.0099321
0.00874493
0.00808871
0.00801024
0.00856001
0.009598
0.011082
0.0128059
0.014664
0.016556
0.0184544
0.0208504
0.023293
0.0252203
0.0251737
0.0220923
0.0160437
0.00850416
0.00356452
0.00218081
0.00373439
0.00611431
0.0107858
0.0153682
0.0168828
0.0146402
0.00706769
-0.0346675
-0.0374974
-0.038742
-0.0387426
-0.0382174
-0.0376081
-0.0369927
-0.0362651
-0.035303
-0.0340407
-0.032469
-0.0306072
-0.0284792
-0.0261038
-0.0234982
-0.0206828
-0.0176865
-0.0145471
-0.0113115
-0.00803315
-0.0047716
-0.00159083
0.00144434
0.00427638
0.00677571
0.00892586
0.0106535
0.0119045
0.0126514
0.0128852
0.0126436
0.0120069
0.0111048
0.0102528
0.00951977
0.00912808
0.00914968
0.00964612
0.0105359
0.0118024
0.0132904
0.0149412
0.0166578
0.0184226
0.0205034
0.0225868
0.0241557
0.0241432
0.0215726
0.0168618
0.011022
0.00679233
0.00519482
0.00604927
0.00772778
0.011214
0.0151729
0.0168744
0.0141478
0.00689571
-0.0287208
-0.0311513
-0.032263
-0.0323267
-0.031938
-0.0314819
-0.0310239
-0.0304773
-0.0297376
-0.0287475
-0.0274977
-0.0260026
-0.0242813
-0.0223487
-0.0202181
-0.0179048
-0.015431
-0.0128263
-0.0101279
-0.00737878
-0.00462748
-0.00192587
0.000670514
0.00310377
0.00531102
0.0072437
0.00884742
0.0100793
0.0109208
0.0113661
0.0114473
0.0112204
0.0107916
0.0103363
0.00995627
0.00979664
0.00992593
0.0104063
0.0111925
0.0122885
0.0135764
0.0150311
0.0165565
0.0181457
0.0198945
0.0215959
0.0227761
0.0227344
0.02065
0.0170173
0.0125557
0.00903441
0.00741014
0.00777753
0.00892564
0.0113968
0.0145999
0.0163175
0.0133073
0.00645915
-0.0233748
-0.0254574
-0.0264503
-0.0265687
-0.0263044
-0.0259655
-0.025634
-0.0252383
-0.0246863
-0.0239273
-0.0229514
-0.0217695
-0.0203966
-0.0188444
-0.0171228
-0.0152432
-0.0132224
-0.0110831
-0.00885451
-0.00657042
-0.00426959
-0.00199399
0.000209716
0.00229477
0.00422036
0.00594399
0.00741876
0.00860917
0.00950315
0.0100929
0.0104059
0.0104847
0.0103986
0.010254
0.0101479
0.0101806
0.0104103
0.0108936
0.0116066
0.0125667
0.0136834
0.0149527
0.0162805
0.0176708
0.0191059
0.0204444
0.0212852
0.0211966
0.0195447
0.016754
0.0133667
0.0104967
0.00896729
0.00897688
0.00971779
0.0113612
0.0137257
0.0151919
0.012089
0.005771
-0.0185782
-0.0203584
-0.0212419
-0.0213981
-0.0212315
-0.0210035
-0.0207754
-0.0205044
-0.0201095
-0.0195451
-0.0188007
-0.017884
-0.0168069
-0.0155784
-0.0142058
-0.0126973
-0.0110656
-0.00932778
-0.00750613
-0.00562673
-0.00372018
-0.00181907
4.03582e-05
0.00181959
0.00348651
0.00499769
0.00633759
0.00746632
0.00837571
0.00905596
0.00952743
0.00981377
0.00997202
0.010064
0.0101668
0.0103514
0.0106655
0.0111578
0.0118165
0.0126653
0.0136342
0.0147311
0.0158663
0.0170518
0.0182069
0.0192279
0.019803
0.019673
0.0183845
0.01624
0.0136726
0.0113637
0.00998918
0.00972846
0.0101399
0.0111339
0.0126557
0.0136583
0.0106311
0.00493928
-0.0142879
-0.0158056
-0.0165905
-0.0167755
-0.0166923
-0.0165586
-0.0164262
-0.0162483
-0.0159768
-0.0155714
-0.0150195
-0.0143247
-0.0134959
-0.0125403
-0.0114629
-0.0102694
-0.00896885
-0.00757392
-0.00610139
-0.00457116
-0.00300654
-0.00143287
0.000121711
0.00162832
0.00305729
0.00438192
0.00557267
0.00661181
0.00751401
0.00824114
0.00880813
0.009232
0.0095544
0.00981525
0.0100695
0.010367
0.0107453
0.0112446
0.0118589
0.0126138
0.0134541
0.0143946
0.0153498
0.0163332
0.0172136
0.0180082
0.0183929
0.0182356
0.0172371
0.0155852
0.0136359
0.0117835
0.010574
0.010118
0.0102496
0.0107431
0.0114962
0.011964
0.0091258
0.00409727
-0.0104577
-0.0117485
-0.0124448
-0.0126496
-0.0126322
-0.0125725
-0.0125148
-0.0124251
-0.0122544
-0.0119765
-0.0115812
-0.0110701
-0.0104485
-0.00972111
-0.00889124
-0.00796259
-0.00694151
-0.00583707
-0.00466181
-0.00343039
-0.00216031
-0.00087087
0.000416517
0.00168021
0.00289836
0.0040498
0.00511729
0.00608581
0.00691911
0.00763711
0.00824571
0.00874862
0.00917345
0.00954454
0.00990025
0.0102746
0.0106958
0.0111951
0.0117692
0.0124423
0.0131704
0.013971
0.014765
0.0155694
0.0162588
0.016841
0.0170859
0.0169141
0.016138
0.0148592
0.013367
0.0118706
0.0108036
0.0102285
0.010115
0.0102271
0.0103468
0.0102854
0.00770543
0.00333565
-0.00704569
-0.00814201
-0.00875964
-0.00897757
-0.00901303
-0.00901315
-0.00901622
-0.00899583
-0.0089119
-0.00873725
-0.00846592
-0.00810349
-0.00765205
-0.00711334
-0.0064891
-0.00578152
-0.00499443
-0.00413417
-0.0032099
-0.00223224
-0.00121421
-0.000170162
0.000884129
0.00193237
0.00295773
0.00394294
0.00487312
0.00573348
0.00651348
0.00720913
0.00782521
0.00836386
0.00884307
0.00927746
0.00969311
0.0101126
0.0105555
0.011046
0.0115805
0.0121801
0.0128095
0.0134865
0.0141403
0.0147894
0.0153221
0.0157436
0.0158895
0.015713
0.0151035
0.0141044
0.0129454
0.0117194
0.010774
0.0101311
0.00980573
0.00962697
0.00927308
0.00878217
0.00644654
0.00269492
-0.0040149
-0.00494494
-0.00549292
-0.00571859
-0.00579562
-0.00584339
-0.00589416
-0.00592749
-0.0059113
-0.00582411
-0.00565857
-0.00541435
-0.00509726
-0.00471137
-0.00425615
-0.00373115
-0.00313833
-0.00248176
-0.00176783
-0.00100423
-0.000200433
0.000633177
0.00148508
0.0023431
0.00319435
0.00402552
0.00482514
0.00558188
0.00628864
0.00693873
0.00753403
0.00807442
0.0085709
0.00903162
0.00947346
0.00991098
0.0103569
0.0108286
0.0113221
0.0118546
0.0123968
0.0129653
0.0135003
0.0140177
0.0144239
0.0147238
0.0148015
0.014626
0.0141384
0.0133455
0.0124273
0.0114104
0.0105758
0.00988245
0.00937816
0.00897711
0.00830532
0.00749722
0.00538516
0.00218082
-0.00133055
-0.0021189
-0.0026054
-0.00283459
-0.00294386
-0.00302905
-0.00311701
-0.00319209
-0.00322875
-0.00320941
-0.0031275
-0.00298322
-0.00277895
-0.00251522
-0.00219411
-0.00181674
-0.00138353
-0.000895603
-0.000356852
0.000227321
0.000850219
0.00150453
0.00218184
0.00287324
0.00356928
0.00425996
0.00493636
0.00558957
0.00621396
0.00680326
0.0073572
0.00787402
0.00835979
0.00881842
0.00925997
0.00969338
0.010126
0.0105696
0.0110198
0.0114899
0.0119548
0.0124287
0.0128633
0.0132708
0.0135772
0.0137852
0.0138148
0.0136426