/*--------------------------------*- C++ -*----------------------------------*\
| =========                 |                                                 |
| \\      /  F ield         | OpenFOAM: The Open Source CFD Toolbox           |
|  \\    /   O peration     | Version:  2512                                  |
|   \\  /    A nd           | Website:  www.openfoam.com                      |
|    \\/     M anipulation  |                                                 |
\*---------------------------------------------------------------------------*/
FoamFile
{
    version     2.0;
    format      ascii;
    arch        "LSB;label=32;scalar=64";
    class       surfaceScalarField;
    location    "194";
    object      phi;
}
// * * * * * * * * * * * * * * * * * * * * * * * * * * * * * * * * * * * * * //

dimensions      [0 3 -1 0 0 0 0];

oriented        oriented;

internalField   nonuniform List<scalar> 
26232
(
-5.66518e-05
0.00101241
-0.000955763
6.19907e-05
0.00192842
-0.00204706
0.000593533
0.00192802
-0.00245956
0.00175297
0.00106465
-0.00222409
0.00374422
-0.000650286
-0.00134097
0.0067617
-0.00322572
0.000208245
0.0109861
-0.00667464
0.00245028
0.0165685
-0.0109984
0.00541593
0.0236144
-0.0161707
0.00912481
0.0321628
-0.0221272
0.0135788
0.0421696
-0.028761
0.0187542
0.0534977
-0.0359258
0.0245977
0.0659173
-0.0434449
0.0310252
0.0791177
-0.0511256
0.0379253
0.0927278
-0.0587746
0.0451645
0.106346
-0.0662136
0.0525956
0.119573
-0.0732935
0.0600665
0.132046
-0.0799054
0.0674319
0.143478
-0.085985
0.0745533
0.153661
-0.0915305
0.0813469
0.162523
-0.0965386
0.0876774
0.170007
-0.101205
0.0937211
0.176075
-0.105174
0.099106
-0.109652
0.105122
0.180605
2.42226e-05
0.000988192
0.000378758
0.00157388
0.00131829
0.000988479
0.00308014
-0.000697194
0.005888
-0.00345815
0.00994326
-0.00728098
0.0154073
-0.0121387
0.0223775
-0.0179685
0.0308628
-0.024656
0.0407662
-0.0320306
0.0518795
-0.0398744
0.0638941
-0.0479404
0.0764263
-0.0559771
0.0890546
-0.0637539
0.101362
-0.0710821
0.112979
-0.0778309
0.123621
-0.0839348
0.133109
-0.0893938
0.141389
-0.0942646
0.148505
-0.098647
0.154622
-0.102655
0.159858
-0.106441
0.164646
-0.109962
-0.113848
0.168842
0.000124202
0.00086399
0.00077169
0.000926395
0.00220856
-0.000448389
0.00468461
-0.00317325
0.00842368
-0.00719722
0.0136008
-0.0124581
0.0203115
-0.0188494
0.0285416
-0.0261987
0.0381478
-0.0342622
0.0488579
-0.0427407
0.0602938
-0.0513102
0.0720138
-0.0596604
0.0835665
-0.0675299
0.0945454
-0.0747328
0.104635
-0.0811717
0.113642
-0.0868375
0.121503
-0.0917967
0.12828
-0.0961699
0.134119
-0.100104
0.139223
-0.103751
0.143796
-0.107228
0.148016
-0.110661
0.152044
-0.11399
-0.11766
0.155857
0.000238047
0.000625943
0.0012202
-5.57615e-05
0.00321763
-0.00244581
0.00647571
-0.00643133
0.0111881
-0.0119096
0.0174582
-0.0187282
0.0252607
-0.0266519
0.0344179
-0.0353558
0.0446044
-0.0444487
0.0553837
-0.05352
0.0662686
-0.0621951
0.0767916
-0.0701834
0.0865692
-0.0773075
0.0953467
-0.0835103
0.103016
-0.0888412
0.109607
-0.0934286
0.115255
-0.0974441
0.120152
-0.101067
0.124506
-0.104459
0.128498
-0.107742
0.13227
-0.111001
0.135903
-0.114294
0.139503
-0.11759
-0.121166
0.143008
0.000363574
0.000262368
0.00171163
-0.00140381
0.00430827
-0.00504246
0.00836878
-0.0104918
0.0140153
-0.0175561
0.0212272
-0.0259401
0.0298088
-0.0352335
0.0393947
-0.0449417
0.0494987
-0.0545527
0.0595935
-0.0636148
0.0691983
-0.0717999
0.0779507
-0.0789358
0.085647
-0.0850038
0.0922456
-0.0901089
0.0978384
-0.0944339
0.102602
-0.0981921
0.106744
-0.101586
0.11046
-0.104783
0.113907
-0.107905
0.117195
-0.11103
0.120395
-0.114201
0.123545
-0.117444
0.126694
-0.120739
-0.124242
0.129771
0.000501021
-0.000238653
0.00223753
-0.00314032
0.00544522
-0.00825015
0.0102734
-0.01532
0.0167239
-0.0240066
0.0246039
-0.0338202
0.0335249
-0.0441545
0.0429591
-0.0543759
0.0523385
-0.0639322
0.0611617
-0.072438
0.0690744
-0.0797125
0.0759057
-0.0857671
0.0816575
-0.0907557
0.0864601
-0.0949114
0.0905118
-0.0984856
0.0940231
-0.101703
0.097178
-0.104741
0.100116
-0.107721
0.102929
-0.110719
0.105677
-0.113778
0.108392
-0.116917
0.111093
-0.120144
0.113803
-0.12345
-0.126913
0.116474
0.00064987
-0.000888522
0.00278496
-0.00527541
0.0065811
-0.0120463
0.0120775
-0.0208165
0.019109
-0.0310381
0.0272861
-0.0419972
0.0360502
-0.0529186
0.0447892
-0.0631149
0.0529659
-0.0721089
0.0602129
-0.079685
0.0663686
-0.0858683
0.0714562
-0.0908547
0.0756265
-0.0949259
0.079089
-0.098374
0.0820547
-0.101451
0.0847
-0.104349
0.0871535
-0.107195
0.0894996
-0.110067
0.0917885
-0.113008
0.0940484
-0.116037
0.0962945
-0.119163
0.0985342
-0.122384
0.100779
-0.125695
-0.129126
0.102992
0.000806595
-0.00169512
0.00333119
-0.00780001
0.0076503
-0.0163654
0.0136483
-0.0268144
0.0209635
-0.0383534
0.0290244
-0.0500582
0.0371727
-0.0610668
0.0448168
-0.0707591
0.0515494
-0.0788415
0.0571908
-0.0853264
0.0617636
-0.0904411
0.0654253
-0.0945164
0.0683919
-0.0978924
0.070876
-0.100858
0.0730522
-0.103627
0.0750452
-0.106342
0.0769349
-0.109084
0.0787677
-0.1119
0.0805693
-0.11481
0.0823531
-0.117821
0.0841267
-0.120936
0.0858945
-0.124151
0.0876622
-0.127462
-0.130871
0.0894076
0.000963994
-0.00265911
0.0038436
-0.0106796
0.00857423
-0.021096
0.0148511
-0.0330913
0.0221179
-0.0456201
0.029677
-0.0576172
0.0368657
-0.0682555
0.0432061
-0.0770994
0.0484694
-0.0841047
0.0526539
-0.089511
0.0559111
-0.0936983
0.0584595
-0.0970648
0.0605164
-0.0999494
0.0622596
-0.102601
0.0638152
-0.105183
0.0652626
-0.107789
0.0666477
-0.110469
0.0679949
-0.113247
0.0693174
-0.116132
0.0706223
-0.119126
0.0719137
-0.122228
0.0731946
-0.125432
0.0744674
-0.128735
-0.132124
0.07572
0.00111202
-0.00377113
0.00428413
-0.0138517
0.00927448
-0.0260864
0.0155765
-0.0393934
0.022476
-0.0525196
0.0292315
-0.0643727
0.0352646
-0.0742886
0.0402618
-0.0820967
0.0441691
-0.088012
0.0471153
-0.0924571
0.0493162
-0.0958992
0.0509959
-0.0987444
0.0523401
-0.101294
0.0534813
-0.103743
0.0545027
-0.106204
0.0554518
-0.108738
0.0563538
-0.111371
0.0572219
-0.114115
0.0580631
-0.116973
0.0588819
-0.119945
0.059681
-0.123027
0.0604627
-0.126214
0.0612276
-0.1295
-0.132868
0.0619721
0.00123984
-0.00501097
0.00461673
-0.0172286
0.00968832
-0.0311579
0.015761
-0.0454661
0.0220271
-0.0587857
0.0277858
-0.0701314
0.0326004
-0.0791033
0.0363285
-0.0858247
0.0390529
-0.0907364
0.0409767
-0.094381
0.0423299
-0.0972524
0.0433105
-0.099725
0.0440622
-0.102045
0.0446761
-0.104356
0.0452043
-0.106733
0.0456741
-0.109208
0.0460994
-0.111797
0.0464878
-0.114504
0.0468438
-0.117329
0.0471706
-0.120272
0.0474701
-0.123326
0.0477435
-0.126487
0.0479898
-0.129747
-0.133088
0.0482096
0.0013403
-0.00635127
0.00481635
-0.0207047
0.00978063
-0.0361222
0.0153952
-0.0510807
0.0208362
-0.0642266
0.025509
-0.0748043
0.0291389
-0.0827332
0.0317286
-0.0884144
0.0334496
-0.0924574
0.0345318
-0.0954632
0.0351876
-0.0979082
0.035577
-0.100114
0.0358039
-0.102272
0.035928
-0.104481
0.0359805
-0.106785
0.035977
-0.109205
0.0359256
-0.111745
0.0358311
-0.114409
0.035697
-0.117195
0.035526
-0.120101
0.0353202
-0.123121
0.0350804
-0.126248
0.034805
-0.129471
0.0344971
-0.13278
-0.000299547
-0.000133658
0.000433205
-0.00101611
0.000344269
0.000372296
-0.00204834
0.0013383
-0.000306069
-0.00332987
0.00265308
-0.00137155
-0.00481372
0.00413874
-0.0026549
-0.00646315
0.00570359
-0.00405415
-0.00824548
0.00730966
-0.00552733
-0.0101284
0.00895999
-0.00707704
-0.0120785
0.010682
-0.0087319
-0.0140604
0.0125113
-0.0105294
-0.0160363
0.0144792
-0.0125034
-0.0179648
0.0166053
-0.0146767
-0.0197999
0.0188936
-0.0170585
-0.0214888
0.0213321
-0.0196432
-0.0229709
0.0238916
-0.0224095
-0.0241773
0.0265259
-0.0253194
-0.0250305
0.0291698
-0.0283167
-0.0254457
0.0317397
-0.0313244
-0.0253336
0.0341326
-0.0342447
-0.024603
0.0362289
-0.0369595
-0.0231655
0.0378978
-0.0393354
-0.0209429
0.0390039
-0.0412265
-0.0178822
0.0394189
-0.0424796
0.0390967
-0.0140008
-0.0429781
-0.000241156
0.000107498
-0.000815031
0.000918144
-0.00163568
0.00215894
-0.00264599
0.00366339
-0.00380516
0.00529791
-0.0050793
0.00697773
-0.00643474
0.00866511
-0.00783413
0.0103594
-0.00923505
0.0120829
-0.0105901
0.0138663
-0.0118473
0.0157365
-0.0129506
0.0177085
-0.0138388
0.0197818
-0.0144457
0.021939
-0.0146988
0.0241448
-0.0145197
0.0263467
-0.0138246
0.0284748
-0.0125258
0.0304408
-0.0105371
0.0321438
-0.00777363
0.0334654
-0.0041564
0.0342806
0.000383805
0.0344637
0.00589886
0.0339038
0.0325751
0.0124205
-0.000172021
0.000279519
-0.000577571
0.00132369
-0.001147
0.00272837
-0.00183147
0.00434787
-0.00259478
0.00606122
-0.0034049
0.00778785
-0.00422723
0.00948743
-0.00502048
0.0111526
-0.00573517
0.0127976
-0.00631402
0.0144452
-0.00669337
0.0161158
-0.00680443
0.0178196
-0.00657377
0.0195512
-0.00592508
0.0212903
-0.00477818
0.0229979
-0.00305059
0.0246191
-0.000659324
0.0260835
0.00247469
0.0273068
0.00643011
0.0281884
0.0112744
0.0286211
0.017065
0.02849
0.0238464
0.0276823
0.0316466
0.0261036
0.0236356
0.040586
-0.000105816
0.000385335
-0.000346744
0.00156462
-0.000664975
0.0030466
-0.00101596
0.00469885
-0.00136489
0.00641015
-0.0016798
0.00810275
-0.00192508
0.00973272
-0.00205735
0.0112849
-0.0020233
0.0127635
-0.00176008
0.0141819
-0.00119698
0.0155527
-0.000257716
0.0168803
0.0011369
0.0181566
0.00306998
0.0193572
0.00562373
0.0204441
0.00887903
0.0213638
0.0129132
0.0220494
0.0177982
0.0224219
0.0235944
0.0223922
0.0303511
0.0218644
0.0381024
0.0207387
0.0468802
0.0189045
0.056652
0.0163318
0.0126224
0.0676652
-5.44312e-05
0.000439767
-0.00016132
0.00167151
-0.000266357
0.00315164
-0.00032337
0.00475586
-0.00029471
0.00638149
-0.000145865
0.00795391
0.000160211
0.00942665
0.000667965
0.0107772
0.00143113
0.0120004
0.00251308
0.0131
0.00398541
0.0140804
0.00592556
0.0149401
0.00841454
0.0156676
0.0115331
0.0162386
0.0153609
0.0166164
0.0199733
0.0167514
0.0254394
0.0165832
0.03182
0.0160413
0.0391648
0.0150473
0.0475127
0.0135165
0.0568828
0.0113686
0.0673301
0.00845722
0.0787362
0.00492572
-0.000197388
0.0915561
-2.62831e-05
0.00046605
-4.92353e-05
0.00169446
-8.10367e-06
0.0031105
0.000151179
0.00459658
0.000473448
0.00605922
0.000998551
0.0074288
0.00176671
0.00865849
0.00282273
0.00972113
0.004219
0.0106041
0.00601619
0.0113028
0.00828242
0.0118142
0.0110912
0.0121314
0.014519
0.0122398
0.0186426
0.0121151
0.0235367
0.0117222
0.0292724
0.0110158
0.0359149
0.00994064
0.043524
0.00843225
0.0521526
0.0064187
0.0618492
0.00381989
0.0726206
0.000597209
0.0846108
-0.00353296
0.097602
-0.00806546
-0.0148727
0.112277
-2.4428e-05
0.000490478
-2.12297e-05
0.00169126
8.66008e-05
0.00300267
0.000366292
0.00431689
0.000873312
0.0055522
0.00165545
0.00664667
0.00275788
0.00755606
0.0042276
0.00825141
0.00611662
0.00871508
0.00848351
0.0089359
0.0113934
0.00890424
0.0149172
0.00860761
0.0191295
0.00802743
0.0241077
0.00713693
0.0299298
0.00590004
0.0366742
0.00427143
0.0444172
0.00219765
0.0532337
-0.000384239
0.0631992
-0.0035468
0.0743854
-0.00736636
0.0868474
-0.0118648
0.100686
-0.0173714
0.115654
-0.0230339
-0.0316439
0.132425
-4.55374e-05
0.000536015
-6.6481e-05
0.00171221
3.80588e-05
0.00289813
0.000352465
0.00400248
0.000945584
0.00495908
0.00187611
0.00571614
0.00319787
0.0062343
0.00496469
0.00648459
0.00723419
0.00644558
0.0100702
0.00609991
0.0135439
0.00543052
0.0177341
0.00441738
0.0227266
0.00303495
0.0286127
0.00125087
0.0354884
-0.000975734
0.0434521
-0.00369227
0.0526006
-0.00695084
0.0630249
-0.0108085
0.0747981
-0.01532
0.0879779
-0.0205461
0.102573
-0.0264602
0.118582
-0.03338
0.135774
-0.0402256
-0.0501546
0.154284
-7.9621e-05
0.000615636
-0.000151737
0.00178432
-8.68666e-05
0.00283326
0.000218996
0.00369662
0.000852034
0.00432605
0.00188673
0.00468145
0.00339257
0.00472846
0.00543966
0.0044375
0.008103
0.00378224
0.0114654
0.00273749
0.0156189
0.00127709
0.020664
-0.000627779
0.0267084
-0.0030094
0.0338624
-0.00590319
0.0422334
-0.00934666
0.0519177
-0.0133766
0.0629925
-0.0180256
0.0755025
-0.0233185
0.0894479
-0.0292654
0.104767
-0.035865
0.121346
-0.0430396
0.138907
-0.0509405
0.157334
-0.0586533
-0.0687027
0.175882
-0.000111235
0.000726871
-0.000226463
0.00189955
-0.000186371
0.00279317
0.000136475
0.00337377
0.000850176
0.00361234
0.00205295
0.00347868
0.00384018
0.00294122
0.00631017
0.0019675
0.00956766
0.00052475
0.0137247
-0.00141958
0.018899
-0.00389723
0.0252091
-0.00693779
0.0327663
-0.0105667
0.0416655
-0.0148024
0.0519726
-0.0196537
0.0637123
-0.0251163
0.0768566
-0.0311699
0.0913145
-0.0377764
0.106922
-0.0448731
0.123442
-0.0523852
0.140577
-0.0601743
0.157849
-0.0682127
0.175136
-0.0759403
-0.0846561
0.19109
-0.00012376
0.000850631
-0.000236129
0.00201192
-0.000149381
0.00270642
0.000289949
0.00293444
0.00121868
0.00268361
0.00276666
0.0019307
0.00506306
0.000644813
0.00824008
-0.00120951
0.0124319
-0.00366705
0.0177699
-0.00675759
0.0243739
-0.0105013
0.0323403
-0.0149041
0.041728
-0.0199544
0.0525456
-0.0256199
0.0647387
-0.0318468
0.0781826
-0.0385602
0.092678
-0.0456653
0.107955
-0.0530532
0.123677
-0.060595
0.139474
-0.0681827
0.154938
-0.0756386
0.16969
-0.0829648
0.183495
-0.0897449
-0.0965015
0.195341
-0.000105132
-0.000140274
0.000106592
0.000816948
0.00215959
0.00429854
0.00739363
0.0116001
0.0170578
0.023879
0.032132
0.0418255
0.0528964
0.0652017
0.0785194
0.0925548
0.106956
0.121335
0.135293
0.148457
0.160496
0.171252
0.180613
0.189233
-0.00735275
0.0507319
-0.05738
0.000227536
0.046222
-0.0538023
0.00863198
0.0386634
-0.0470679
0.0176902
0.0278941
-0.0369524
0.0271227
0.0138323
-0.0232647
0.0366954
-0.00343932
-0.00613334
0.0463274
-0.0236963
0.0140644
0.0558135
-0.0464308
0.0369446
0.0650111
-0.0705005
0.0613029
0.0736968
-0.0940846
0.0853989
0.0814416
-0.114915
0.10717
0.0876881
-0.130976
0.12473
0.0919106
-0.141245
0.137023
0.0935515
-0.146065
0.144425
0.0919954
-0.147384
0.14894
0.0872635
-0.148326
0.153058
0.0810895
-0.150594
0.156768
0.0768334
-0.150977
0.155233
0.0776347
-0.141298
0.140497
0.0843034
-0.113736
0.107067
0.095385
-0.0670482
0.0559666
0.108674
-0.00775724
-0.0055317
0.122008
0.0534999
-0.0668337
0.133527
0.105758
-0.117277
0.141917
0.143066
-0.151456
0.146967
0.165343
-0.170392
0.149333
0.175826
-0.178192
0.149224
0.179983
-0.179874
0.145957
0.186343
-0.183075
0.139599
0.199632
-0.193274
0.132548
0.210144
-0.203093
0.128394
0.195998
-0.191844
0.129213
0.140613
-0.141432
0.134634
0.0518808
-0.057302
0.142183
-0.0456611
0.038112
0.14953
-0.125082
0.117736
0.155134
-0.176546
0.170941
0.158037
-0.200299
0.197396
0.15682
-0.212698
0.213916
0.150812
-0.225429
0.231437
0.142079
-0.234576
0.243308
0.135042
-0.221767
0.228805
0.133179
-0.157739
0.159602
0.137193
-0.0640486
0.060035
0.1445
0.0509842
-0.0582908
0.15121
0.1319
-0.13861
0.153068
0.200516
-0.202374
0.148994
0.246798
-0.242724
0.142325
0.27041
-0.26374
0.13837
0.262088
-0.258133
0.139896
0.152287
-0.153814
0.145144
0.0613721
-0.0666196
0.148368
-0.0909048
0.0876807
0.147373
-0.172604
0.173598
0.144398
-0.257726
0.260702
0.142733
-0.323859
0.325524
0.142643
-0.197942
0.198032
0.142569
-0.177826
0.1779
0.140983
0.0913036
-0.0897175
0.216619
-0.214699
0.0198705
0.043282
0.0278224
0.0382701
0.0361266
0.0303592
0.0445924
0.0194283
0.0530156
0.00540903
0.0612115
-0.0116352
0.0691165
-0.0316014
0.0766522
-0.0539665
0.0837035
-0.0775517
0.0900201
-0.100401
0.0951906
-0.120085
0.0987578
-0.134544
0.100419
-0.142907
0.100003
-0.145649
0.0970844
-0.144465
0.0911293
-0.142371
0.0827934
-0.142258
0.0749493
-0.143133
0.0716042
-0.137953
0.0751936
-0.117325
0.0851302
-0.0769848
0.0990606
-0.0216876
0.114141
0.0384199
0.127907
0.0919914
0.138644
0.132328
0.145925
0.158062
0.150172
0.171578
0.151448
0.178707
0.149305
0.188485
0.144215
0.204722
0.138541
0.215818
0.135239
0.1993
0.135888
0.139964
0.140214
0.0475546
0.146152
-0.0515988
0.151692
-0.130622
0.155536
-0.18039
0.157085
-0.201848
0.155066
-0.210679
0.14859
-0.218954
0.139392
-0.225377
0.132028
-0.214403
0.130354
-0.156066
0.135226
-0.0689203
0.14365
0.0425603
0.151219
0.124331
0.153665
0.198069
0.149967
0.250497
0.143575
0.276801
0.1395
0.266163
0.140698
0.15109
0.145792
0.0562779
0.148939
-0.0940523
0.147838
-0.171502
0.144565
-0.254453
0.14281
-0.322104
0.142536
-0.197668
0.14223
-0.17752
0.140546
0.0929874
0.218566
0.0481042
0.0357637
0.0558965
0.0304778
0.0637065
0.0225493
0.0712994
0.0118353
0.0785858
-0.00187736
0.085354
-0.0184034
0.0915889
-0.0378362
0.0972307
-0.0596083
0.102141
-0.0824619
0.106053
-0.104313
0.108608
-0.12264
0.109484
-0.13542
0.108574
-0.141997
0.10605
-0.143125
0.101893
-0.140309
0.0954191
-0.135897
0.0862141
-0.133053
0.0759861
-0.132905
0.0688091
-0.130776
0.0686394
-0.117156
0.0764246
-0.08477
0.0901114
-0.0353744
0.106356
0.0221748
0.122031
0.076317
0.135018
0.119341
0.144568
0.148512
0.150784
0.165362
0.153621
0.17587
0.152905
0.189201
0.149379
0.208249
0.145163
0.220034
0.142601
0.201861
0.142849
0.139717
0.145791
0.0446129
0.149976
-0.0557839
0.153668
-0.134315
0.155778
-0.1825
0.156031
-0.2021
0.153358
-0.208007
0.14665
-0.212246
0.137185
-0.215912
0.12952
-0.206738
0.127907
-0.154453
0.133445
-0.0744579
0.142827
0.0331789
0.151219
0.115939
0.154341
0.194947
0.151144
0.253694
0.145108
0.282837
0.140907
0.270363
0.141683
0.150314
0.146555
0.051406
0.149627
-0.0971239
0.148417
-0.170292
0.144802
-0.250839
0.142933
-0.320235
0.142527
-0.197262
0.142042
-0.177034
0.14028
0.0947492
0.220533
0.0749596
0.0284693
0.0823123
0.0231251
0.0894934
0.0153682
0.0961899
0.00513884
0.102453
-0.00814085
0.107999
-0.0239494
0.112811
-0.0426478
0.116757
-0.0635543
0.119629
-0.0853339
0.121138
-0.105822
0.121024
-0.122526
0.119213
-0.133609
0.115864
-0.138648
0.111345
-0.138606
0.106005
-0.134968
0.0994466
-0.129339
0.0905781
-0.124185
0.0795569
-0.121884
0.069521
-0.12074
0.0653129
-0.112948
0.0698693
-0.0893263
0.0821204
-0.0476255
0.0987623
0.00553285
0.115889
0.0591904
0.130955
0.104275
0.142757
0.13671
0.151009
0.15711
0.155586
0.171293
0.156563
0.188224
0.154825
0.209986
0.152126
0.222733
0.150183
0.203805
0.149858
0.140041
0.151232
0.0432385
0.153575
-0.0581271
0.155438
-0.136178
0.155873
-0.182935
0.154876
-0.201103
0.151645
-0.204776
0.144912
-0.205514
0.135404
-0.206403
0.127493
-0.198828
0.125808
-0.152768
0.131781
-0.0804305
0.141974
0.0229862
0.15117
0.106743
0.155068
0.191048
0.152515
0.256247
0.146927
0.288425
0.142606
0.274685
0.142868
0.150051
0.14743
0.0468447
0.150411
-0.100105
0.149098
-0.168979
0.145105
-0.246845
0.143088
-0.318218
0.142606
-0.19678
0.141994
-0.176421
0.140178
0.096565
0.222506
0.0986566
0.0213688
0.10557
0.0162119
0.11211
0.00882843
0.118355
-0.00110631
0.123755
-0.0135408
0.128377
-0.0285715
0.132026
-0.0462965
0.134447
-0.0659759
0.135339
-0.0862261
0.134437
-0.104919
0.131674
-0.119764
0.1273
-0.129235
0.121774
-0.133123
0.11559
-0.132421
0.109205
-0.128583
0.102623
-0.122757
0.0947765
-0.116338
0.0845457
-0.111653
0.0733001
-0.109494
0.0655826
-0.10523
0.0660544
-0.0897981
0.0756076
-0.0571786
0.0915855
-0.010445
0.109531
0.041245
0.126357
0.0874488
0.140279
0.122788
0.150574
0.146816
0.157029
0.164838
0.159923
0.18533
0.160158
0.209751
0.159058
0.223833
0.157672
0.205191
0.156625
0.141088
0.156416
0.0434479
0.156863
-0.0585742
0.156942
-0.136257
0.155785
-0.181778
0.153601
-0.198918
0.149889
-0.201065
0.143306
-0.198931
0.133977
-0.197074
0.125903
-0.190753
0.124007
-0.150873
0.13019
-0.0866128
0.141026
0.0121502
0.151014
0.0967538
0.155801
0.186262
0.154045
0.258004
0.149012
0.293458
0.144591
0.279106
0.144256
0.150386
0.148402
0.0426987
0.151269
-0.102972
0.149869
-0.16758
0.145468
-0.242444
0.143264
-0.316014
0.142758
-0.196275
0.14207
-0.175733
0.14023
0.0984058
0.224467
0.119146
0.0144998
0.125771
0.00958754
0.131881
0.00271839
0.13769
-0.00691516
0.142442
-0.0182932
0.146245
-0.0323741
0.14876
-0.0488116
0.149623
-0.0668392
0.1485
-0.0851029
0.145233
-0.101652
0.140005
-0.114536
0.133359
-0.122589
0.12602
-0.125784
0.118595
-0.124996
0.111483
-0.121471
0.104861
-0.116135
0.0981014
-0.109579
0.0896583
-0.10321
0.0790669
-0.0989029
0.0692663
-0.0954294
0.0655551
-0.086087
0.0712621
-0.0628856
0.0851016
-0.0242845
0.103064
0.0232826
0.121142
0.0693712
0.136911
0.107018
0.149171
0.134556
0.157584
0.156426
0.162547
0.180367
0.164896
0.207402
0.165471
0.223258
0.164682
0.20598
0.162918
0.142851
0.161153
0.0452137
0.159743
-0.0571645
0.158111
-0.134625
0.155473
-0.179139
0.152175
-0.195621
0.148036
-0.196925
0.141734
-0.19263
0.132794
-0.188133
0.124672
-0.182631
0.122456
-0.148658
0.128601
-0.0927579
0.139911
0.000840763
0.150681
0.0859838
0.156471
0.180471
0.155672
0.258803
0.151318
0.297812
0.146832
0.283591
0.145842
0.151376
0.149453
0.0390876
0.152174
-0.105693
0.150712
-0.166118
0.145886
-0.237618
0.143451
-0.313579
0.142969
-0.195793
0.142256
-0.17502
0.140424
0.100238
0.226394
0.138602
0.00832286
0.144515
0.00367454
0.150429
-0.00319537
0.155266
-0.0117525
0.159136
-0.0221632
0.161796
-0.0350341
0.162829
-0.0498442
0.161836
-0.0658465
0.158548
-0.081815
0.152991
-0.0960949
0.145601
-0.107146
0.137145
-0.114133
0.128476
-0.117115
0.120253
-0.116773
0.112791
-0.114009
0.106203
-0.109547
0.100263
-0.103639
0.0937821
-0.0967287
0.08525
-0.0903707
0.0753985
-0.0855779
0.0685212
-0.0792097
0.0696274
-0.0639919
0.0799841
-0.0346412
0.0967145
0.00655219
0.115283
0.0508029
0.132484
0.0898171
0.146539
0.120501
0.156907
0.146058
0.164016
0.173258
0.168558
0.202859
0.170862
0.220954
0.17076
0.206082
0.168509
0.145103
0.165238
0.0484838
0.162115
-0.0540415
0.158867
-0.131377
0.154885
-0.175158
0.150565
-0.191301
0.146032
-0.192392
0.140099
-0.186697
0.131726
-0.17976
0.123693
-0.174598
0.121085
-0.14605
0.126951
-0.0986243
0.138553
-0.0107605
0.150085
0.0744511
0.156995
0.173561
0.157316
0.258482
0.153771
0.301357
0.149281
0.288082
0.147602
0.153056
0.15056
0.0361294
0.153095
-0.108228
0.151604
-0.164627
0.146348
-0.232363
0.143639
-0.310871
0.143225
-0.195378
0.142534
-0.17433
0.140749
0.102023
0.228258
0.158926
0.00368137
0.163741
-0.00114104
0.168102
-0.00755623
0.171377
-0.015027
0.173653
-0.0244398
0.174519
-0.0359001
0.173535
-0.0488597
0.170363
-0.0626743
0.164878
-0.0763301
0.157303
-0.0885206
0.148261
-0.098104
0.138615
-0.104487
0.129207
-0.107706
0.12064
-0.108206
0.113164
-0.106534
0.106773
-0.103156
0.101375
-0.0982409
0.0963959
-0.0917495
0.0903619
-0.0843368
0.0823049
-0.0775209
0.0742843
-0.0711891
0.0712538
-0.0609614
0.0769578
-0.0403451
0.0909087
-0.00739874
0.108858
0.0328538
0.12688
0.0717944
0.142462
0.104919
0.154717
0.133803
0.163966
0.164009
0.170704
0.196121
0.174768
0.21689
0.175458
0.205393
0.172899
0.147661
0.168524
0.0528592
0.163859
-0.0493763
0.159132
-0.12665
0.153961
-0.169987
0.148729
-0.186068
0.14382
-0.187483
0.138303
-0.181181
0.130637
-0.172094
0.122835
-0.166795
0.119809
-0.143024
0.125178
-0.103994
0.136881
-0.0224637
0.149141
0.0621913
0.157271
0.165431
0.15887
0.256883
0.156275
0.303951
0.151852
0.292505
0.149493
0.155415
0.151705
0.0339167
0.153999
-0.110521
0.152519
-0.163146
0.146842
-0.226686
0.14382
-0.307848
0.14351
-0.195069
0.142886
-0.173706
0.14119
0.103719
0.230025
0.178511
0.0010532
0.181194
-0.00382469
0.18318
-0.00954242
0.184254
-0.0161001
0.184321
-0.024507
0.182919
-0.0344987
0.179669
-0.0456093
0.174365
-0.0573698
0.167034
-0.0689998
0.158041
-0.0795275
0.148067
-0.0881299
0.137934
-0.0943541
0.128373
-0.0981453
0.11987
-0.0997026
0.112617
-0.0992814
0.106563
-0.0971019
0.101594
-0.0932717
0.0975263
-0.0876816
0.0935306
-0.0803411
0.0881454
-0.0721357
0.0812229
-0.0642666
0.0758807
-0.0556193
0.0769026
-0.041367
0.0864274
-0.0169236
0.102255
0.0170261
0.120118
0.0539319
0.13677
0.0882668
0.150753
0.11982
0.16213
0.152633
0.171126
0.187125
0.177013
0.211003
0.178555
0.203851
0.175921
0.150295
0.170757
0.0580241
0.164847
-0.0434665
0.158801
-0.120604
0.152601
-0.163787
0.146589
-0.180056
0.141322
-0.182216
0.136238
-0.176098
0.129394
-0.165249
0.121957
-0.159359
0.118526
-0.139593
0.123223
-0.10869
0.134839
-0.0340803
0.147763
0.0492679
0.157197
0.155997
0.160227
0.253853
0.158715
0.305463
0.154457
0.296763
0.151461
0.158411
0.152854
0.0325229
0.154851
-0.112517
0.153425
-0.161721
0.147354
-0.220616
0.143985
-0.304479
0.143814
-0.194898
0.143295
-0.173186
0.141736
0.105278
0.231654
0.192013
0.000130031
0.19243
-0.00424195
0.192045
-0.00915687
0.190934
-0.014989
0.188839
-0.022413
0.185356
-0.0310149
0.180237
-0.0404907
0.173405
-0.0505373
0.164987
-0.060582
0.155392
-0.0699328
0.145251
-0.0779891
0.135256
-0.0843593
0.12599
-0.0888789
0.117825
-0.0915373
0.110917
-0.0923735
0.105245
-0.0914299
0.100694
-0.088721
0.097189
-0.0841763
0.0944718
-0.0776239
0.0915392
-0.0692031
0.0871553
-0.0598827
0.0820294
-0.0504933
0.0798365
-0.0391741
0.0844327
-0.0215198
0.096453
0.0050059
0.112648
0.0377372
0.129526
0.0713884
0.144891
0.104455
0.158247
0.139277
0.16939
0.175982
0.177145
0.203248
0.179788
0.201208
0.177381
0.152701
0.17192
0.0634853
0.165054
-0.0366011
0.157825
-0.113374
0.150728
-0.15669
0.144089
-0.173418
0.138488
-0.176615
0.133819
-0.171428
0.127889
-0.15932
0.12095
-0.152419
0.117139
-0.135782
0.121023
-0.112574
0.132378
-0.0454348
0.145879
0.0357665
0.156663
0.145213
0.16124
0.249277
0.160953
0.305749
0.15699
0.300726
0.153463
0.161938
0.153962
0.0320247
0.155619
-0.114174
0.154288
-0.16039
0.147875
-0.214203
0.144135
-0.300739
0.144132
-0.194895
0.143744
-0.172798
0.142375
0.106646
0.233102
0.195202
0.000268958
0.194218
-0.0032582
0.192352
-0.00729113
0.189829
-0.0124662
0.186354
-0.0189378
0.181655
-0.0263155
0.175614
-0.0344503
0.168223
-0.0431457
0.159649
-0.052008
0.150274
-0.0605576
0.140619
-0.0683347
0.131228
-0.0749678
0.122546
-0.0801973
0.114866
-0.0838576
0.108329
-0.0858358
0.102962
-0.0860634
0.098723
-0.0844817
0.0955625
-0.0810159
0.0934653
-0.0755267
0.0920855
-0.0678233
0.0903177
-0.0581149
0.0872934
-0.0474689
0.0844311
-0.0363118
0.0853185
-0.0224072
0.0927619
-0.00243748
0.105597
0.0249017
0.121305
0.0556808
0.13732
0.0884395
0.152505
0.124092
0.16601
0.162477
0.175807
0.193451
0.17946
0.197555
0.177504
0.154657
0.172114
0.0688758
0.164706
-0.029194
0.156436
-0.105103
0.148545
-0.1488
0.141421
-0.166294
0.135493
-0.170687
0.131126
-0.167061
0.126134
-0.154328
0.119804
-0.146088
0.115629
-0.131607
0.118559
-0.115505
0.129462
-0.0563375
0.143402
0.0218267
0.155594
0.13302
0.161858
0.243013
0.162897
0.30471
0.159351
0.304273
0.15545
0.165839
0.155022
0.0324525
0.156296
-0.115449
0.155088
-0.159182
0.148398
-0.207513
0.144286
-0.296627
0.144465
-0.195074
0.144219
-0.172551
0.143096
0.107769
0.234319
0.188547
0.000955734
0.186989
-0.00170016
0.184813
-0.00511532
0.181981
-0.0096348
0.178191
-0.0151477
0.173377
-0.0215011
0.167499
-0.0285724
0.160571
-0.0362178
0.152756
-0.0441929
0.144364
-0.0521662
0.135796
-0.0597667
0.127459
-0.06663
0.11969
-0.0724291
0.112729
-0.0768967
0.10671
-0.0798163
0.101687
-0.0810404
0.097672
-0.0804668
0.0946473
-0.0779912
0.0926417
-0.0735211
0.0917137
-0.0668954
0.091422
-0.0578231
0.090646
-0.046693
0.0890257
-0.0346915
0.0884524
-0.0218339
0.0916377
-0.0056228
0.100436
0.0161038
0.113272
0.0428443
0.128238
0.0734741
0.14399
0.108339
0.159219
0.147248
0.171016
0.181654
0.17638
0.192191
0.175971
0.155065
0.17166
0.0731877
0.163894
-0.0214289
0.1547
-0.0959086
0.146223
-0.140323
0.138808
-0.158878
0.132571
-0.16445
0.128322
-0.162812
0.124189
-0.150195
0.118554
-0.140453
0.114023
-0.127076
0.115971
-0.117452
0.126239
-0.0666059
0.140414
0.00765128
0.153801
0.119634
0.161794
0.23502
0.164331
0.302173
0.161422
0.307182
0.157318
0.169942
0.156019
0.0337519
0.156858
-0.116287
0.155803
-0.158127
0.148916
-0.200626
0.144437
-0.292148
0.1448
-0.195437
0.144716
-0.172467
0.143891
0.108594
0.235258
0.209619
0.0014394
-0.210103
0.209815
-0.0018956
0.210015
-0.00531587
0.209912
-0.00953137
0.209361
-0.0145968
0.208225
-0.0203646
0.206383
-0.0267303
0.203719
-0.0335543
0.200169
-0.0406431
0.195748
-0.0477447
0.190539
-0.0545581
0.184674
-0.0607644
0.178301
-0.0660567
0.171578
-0.0701733
0.164656
-0.0728941
0.157674
-0.0740589
0.150762
-0.0735542
0.144018
-0.0712479
0.137513
-0.0670162
0.131394
-0.0607764
0.125752
-0.0521811
0.120103
-0.0410441
0.113626
-0.0282136
0.106615
-0.0148232
0.101107
-0.000115208
0.0989515
0.0182596
0.100963
0.0408331
0.106212
0.0682246
0.113547
0.101005
0.122162
0.138633
0.131929
0.171888
0.144562
0.179558
0.160822
0.138806
0.17532
0.0586899
0.182925
-0.029034
0.182843
-0.0958273
0.177648
-0.135128
0.169795
-0.151026
0.161133
-0.155787
0.153416
-0.155095
0.14603
-0.14281
0.137387
-0.13181
0.129123
-0.118813
0.125193
-0.113522
0.127475
-0.0688877
0.132562
0.00256437
0.137157
0.115039
0.139933
0.232244
0.142348
0.299758
0.145504
0.304025
0.149253
0.166194
0.153157
0.0298473
0.155895
-0.119025
0.154357
-0.156589
0.147222
-0.193491
0.140192
-0.285117
0.137277
-0.192522
0.133831
-0.169021
0.131053
0.111372
0.236109
0.219562
0.00163952
-0.219762
0.21941
-0.00174318
0.219393
-0.00529883
0.219124
-0.00926222
0.218374
-0.0138472
0.217054
-0.0190441
0.215071
-0.024748
0.212342
-0.0308248
0.208813
-0.0371138
0.204482
-0.0434137
0.199403
-0.0494794
0.193679
-0.0550409
0.187449
-0.0598264
0.18087
-0.0635941
0.174107
-0.066131
0.167313
-0.0672651
0.160622
-0.0668629
0.15415
-0.0647762
0.147972
-0.0608377
0.142166
-0.0549705
0.136895
-0.04691
0.132084
-0.0362334
0.127057
-0.0231869
0.121207
-0.00897319
0.115233
0.00585861
0.11129
0.0222027
0.110931
0.0411924
0.114597
0.0645586
0.121672
0.0939301
0.131079
0.129226
0.142802
0.160164
0.158377
0.163983
0.176568
0.120615
0.191365
0.0438924
0.197801
-0.0354703
0.196193
-0.0942184
0.189592
-0.128527
0.180796
-0.14223
0.171428
-0.146419
0.163196
-0.146863
0.155754
-0.135368
0.147262
-0.123317
0.138603
-0.110154
0.133914
-0.108833
0.13567
-0.0706439
0.140864
-0.00262896
0.146085
0.109818
0.149774
0.228555
0.153354
0.296178
0.157545
0.299834
0.161666
0.162073
0.165353
0.0261602
0.167501
-0.121173
0.165584
-0.154672
0.157484
-0.185391
0.149556
-0.277189
0.146277
-0.189244
0.14253
-0.165273
0.139588
0.114313
0.236891
0.228872
0.00157663
-0.228809
0.228756
-0.00162714
0.228553
-0.00509674
0.228108
-0.0088173
0.227238
-0.0129767
0.225827
-0.0176328
0.2238
-0.0227208
0.221096
-0.0281215
0.217675