/*--------------------------------*- C++ -*----------------------------------*\
| =========                 |                                                 |
| \\      /  F ield         | OpenFOAM: The Open Source CFD Toolbox           |
|  \\    /   O peration     | Version:  2512                                  |
|   \\  /    A nd           | Website:  www.openfoam.com                      |
|    \\/     M anipulation  |                                                 |
\*---------------------------------------------------------------------------*/
FoamFile
{
    version     2.0;
    format      ascii;
    arch        "LSB;label=32;scalar=64";
    class       volScalarField;
    location    "71.25";
    object      p;
}
// * * * * * * * * * * * * * * * * * * * * * * * * * * * * * * * * * * * * * //

dimensions      [0 2 -2 0 0 0 0];

internalField   nonuniform List<scalar> 
13248
(
-0.352107
-0.35014
-0.347344
-0.343967
-0.340329
-0.336773
-0.333585
-0.330974
-0.329059
-0.327865
-0.327318
-0.327258
-0.327448
-0.327603
-0.327412
-0.32657
-0.32481
-0.321924
-0.317766
-0.312296
-0.305372
-0.297194
-0.286666
-0.274725
-0.35972
-0.357142
-0.353773
-0.349868
-0.345732
-0.341695
-0.338011
-0.334838
-0.332232
-0.330144
-0.328437
-0.3269
-0.325279
-0.323308
-0.320739
-0.31737
-0.313058
-0.307728
-0.301357
-0.293958
-0.285532
-0.276124
-0.265469
-0.254456
-0.369282
-0.365834
-0.361745
-0.357238
-0.352556
-0.347989
-0.343727
-0.339847
-0.336316
-0.333019
-0.329774
-0.32637
-0.322599
-0.318282
-0.313293
-0.307564
-0.30108
-0.293868
-0.28597
-0.27744
-0.268282
-0.258583
-0.248167
-0.237664
-0.380833
-0.376279
-0.371329
-0.366133
-0.36082
-0.355602
-0.350575
-0.34571
-0.340894
-0.335971
-0.330775
-0.325164
-0.31904
-0.312359
-0.305125
-0.297382
-0.289192
-0.280616
-0.271706
-0.262498
-0.253006
-0.243291
-0.233253
-0.223488
-0.394331
-0.388479
-0.382547
-0.376565
-0.370489
-0.364414
-0.358318
-0.352072
-0.345523
-0.33854
-0.331049
-0.323041
-0.31456
-0.30569
-0.296528
-0.28717
-0.277688
-0.268135
-0.258535
-0.248902
-0.239235
-0.229558
-0.219815
-0.21039
-0.409663
-0.402375
-0.395374
-0.3885
-0.381468
-0.374222
-0.366625
-0.358498
-0.349725
-0.340292
-0.330283
-0.319844
-0.309146
-0.298352
-0.28759
-0.276948
-0.266476
-0.256188
-0.246082
-0.236143
-0.226357
-0.216718
-0.207193
-0.198033
-0.426609
-0.417815
-0.409685
-0.401784
-0.393513
-0.384654
-0.37501
-0.364449
-0.352999
-0.340842
-0.328243
-0.315481
-0.302796
-0.290363
-0.27829
-0.266625
-0.255374
-0.244516
-0.234021
-0.223854
-0.213984
-0.204383
-0.195033
-0.186046
-0.444796
-0.434496
-0.425191
-0.416065
-0.406158
-0.395128
-0.38283
-0.369314
-0.354854
-0.339858
-0.324744
-0.309861
-0.295448
-0.281641
-0.268493
-0.255999
-0.244123
-0.232813
-0.222015
-0.211677
-0.201755
-0.192209
-0.183024
-0.174196
-0.463649
-0.451912
-0.441373
-0.43074
-0.418688
-0.404865
-0.38934
-0.37248
-0.354858
-0.337079
-0.319645
-0.302896
-0.287017
-0.27207
-0.258043
-0.24488
-0.232506
-0.220846
-0.209825
-0.199376
-0.189444
-0.179982
-0.170961
-0.162295
-0.482351
-0.469304
-0.457436
-0.444917
-0.430144
-0.412938
-0.393758
-0.373377
-0.352645
-0.332289
-0.312809
-0.294472
-0.277373
-0.261493
-0.246757
-0.233064
-0.220311
-0.208398
-0.197234
-0.186739
-0.176845
-0.1675
-0.158649
-0.150163
-0.499862
-0.48566
-0.472309
-0.457447
-0.43938
-0.418322
-0.395268
-0.371401
-0.347774
-0.325139
-0.303916
-0.284264
-0.266175
-0.249554
-0.234272
-0.22019
-0.207178
-0.195118
-0.183904
-0.173443
-0.163658
-0.154482
-0.145825
-0.137568
-0.515009
-0.499845
-0.484827
-0.467137
-0.445245
-0.419989
-0.392984
-0.365782
-0.33954
-0.314944
-0.292282
-0.271585
-0.252742
-0.235587
-0.21994
-0.205631
-0.192506
-0.180431
-0.169286
-0.158969
-0.149395
-0.140484
-0.132114
-0.124227
-0.302413
-0.303984
-0.304978
-0.305683
-0.30638
-0.307176
-0.308119
-0.309239
-0.310544
-0.312034
-0.313707
-0.315556
-0.317573
-0.319748
-0.322058
-0.324475
-0.326955
-0.329442
-0.331863
-0.334132
-0.336153
-0.337827
-0.339056
-0.339719
-0.307826
-0.308871
-0.309574
-0.310141
-0.310798
-0.31165
-0.312759
-0.31416
-0.315873
-0.317909
-0.320278
-0.322986
-0.326042
-0.329444
-0.333183
-0.337233
-0.34155
-0.346062
-0.350668
-0.355238
-0.359614
-0.363611
-0.366998
-0.369635
-0.313338
-0.313812
-0.314179
-0.314562
-0.31512
-0.315963
-0.317159
-0.318755
-0.320778
-0.323248
-0.326185
-0.329607
-0.33353
-0.337963
-0.342903
-0.348324
-0.354175
-0.360365
-0.366762
-0.373183
-0.379397
-0.385125
-0.389958
-0.393742
-0.318606
-0.318513
-0.31852
-0.318666
-0.319055
-0.319795
-0.320968
-0.32263
-0.324817
-0.327556
-0.330874
-0.334794
-0.339337
-0.344515
-0.350325
-0.356737
-0.363687
-0.371064
-0.378701
-0.386366
-0.393762
-0.400504
-0.406042
-0.409999
-0.323363
-0.322762
-0.322405
-0.322265
-0.322399
-0.322923
-0.323934
-0.325499
-0.327666
-0.330468
-0.333936
-0.338095
-0.342964
-0.348553
-0.354851
-0.361818
-0.369374
-0.377385
-0.385652
-0.393899
-0.401764
-0.40879
-0.414483
-0.417647
-0.32745
-0.326446
-0.325742
-0.325272
-0.325063
-0.325247
-0.325942
-0.327233
-0.329181
-0.331828
-0.335206
-0.33934
-0.344243
-0.349917
-0.356337
-0.363448
-0.371148
-0.379276
-0.387589
-0.395779
-0.403464
-0.410023
-0.415418
-0.417023
-0.330843
-0.329569
-0.328553
-0.327715
-0.327083
-0.326811
-0.327046
-0.327895
-0.329438
-0.331728
-0.334803
-0.338683
-0.343375
-0.348866
-0.355115
-0.362038
-0.369502
-0.377313
-0.385209
-0.392802
-0.399744
-0.40513
-0.409696
-0.409217
-0.333665
-0.332258
-0.330968
-0.329736
-0.328618
-0.3278
-0.327459
-0.327736
-0.328731
-0.330515
-0.333129
-0.336593
-0.340903
-0.346022
-0.351884
-0.358377
-0.365325
-0.37248
-0.379531
-0.386025
-0.391699
-0.395345
-0.398394
-0.395622
-0.336187
-0.334752
-0.333218
-0.331575
-0.329933
-0.328516
-0.327537
-0.32717
-0.327542
-0.32874
-0.330812
-0.333767
-0.337587
-0.342212
-0.347527
-0.353366
-0.359496
-0.365617
-0.371378
-0.376285
-0.380145
-0.381703
-0.382556
-0.377603
-0.338807
-0.337388
-0.335616
-0.333552
-0.331375
-0.329351
-0.32773
-0.326716
-0.32646
-0.327058
-0.32856
-0.330965
-0.334214
-0.338196
-0.34274
-0.347612
-0.352517
-0.35711
-0.36103
-0.363849
-0.365419
-0.364831
-0.363307
-0.356627
-0.342011
-0.340566
-0.338526
-0.33603
-0.333329
-0.330727
-0.328504
-0.326885
-0.326034
-0.326051
-0.326964
-0.328735
-0.331258
-0.334355
-0.337783
-0.341242
-0.344391
-0.346874
-0.348356
-0.348572
-0.347427
-0.344677
-0.341162
-0.333879
-0.346303
-0.344699
-0.342322
-0.339379
-0.336174
-0.333042
-0.33028
-0.328119
-0.326716
-0.326146
-0.3264
-0.327386
-0.328928
-0.330783
-0.332648
-0.334189
-0.335064
-0.33496
-0.333606
-0.330874
-0.32664
-0.321192
-0.314958
-0.30772
-0.33971
-0.337422
-0.332748
-0.325263
-0.314738
-0.301263
-0.285342
-0.267978
-0.250649
-0.235093
-0.223167
-0.216182
-0.214619
-0.220084
-0.226892
-0.233571
-0.235768
-0.229578
-0.214634
-0.190268
-0.161074
-0.132956
-0.110613
-0.096236
-0.0898242
-0.0911796
-0.101533
-0.121199
-0.144969
-0.161828
-0.161679
-0.144509
-0.118291
-0.0924203
-0.073049
-0.0619022
-0.057472
-0.0595206
-0.0701731
-0.0866731
-0.0984369
-0.096178
-0.0823505
-0.0667556
-0.0555932
-0.0488626
-0.0481483
-0.0547642
-0.0620151
-0.0616975
-0.0554777
-0.0462233
-0.0377927
-0.0308241
-0.0277283
-0.0266032
-0.0235152
-0.0222328
-0.0148442
-0.00293967
-0.372257
-0.370919
-0.3665
-0.358267
-0.345808
-0.329122
-0.308688
-0.285572
-0.261353
-0.237824
-0.217463
-0.201615
-0.191682
-0.188742
-0.190566
-0.194405
-0.196159
-0.190698
-0.181449
-0.163203
-0.140844
-0.119408
-0.102949
-0.0933843
-0.0909459
-0.0961847
-0.110895
-0.134925
-0.161871
-0.179477
-0.1773
-0.15646
-0.126264
-0.0968704
-0.0743852
-0.0604609
-0.0536211
-0.0531069
-0.0607784
-0.0746618
-0.0853599
-0.084334
-0.0734929
-0.0615429
-0.053647
-0.0497113
-0.0517787
-0.0612914
-0.070418
-0.0695202
-0.0617016
-0.0497479
-0.0388026
-0.0294245
-0.0241415
-0.0211329
-0.0179564
-0.0173919
-0.0116499
-0.00217221
-0.398782
-0.398022
-0.393524
-0.384493
-0.370245
-0.350686
-0.326278
-0.298075
-0.267643
-0.236674
-0.209428
-0.185365
-0.167005
-0.155971
-0.151866
-0.152302
-0.15403
-0.154713
-0.145655
-0.133011
-0.117509
-0.102831
-0.0922796
-0.0875012
-0.0890582
-0.0982812
-0.117301
-0.145391
-0.175098
-0.193373
-0.189702
-0.165875
-0.132366
-0.100033
-0.0749454
-0.0585846
-0.0495459
-0.0466601
-0.0514408
-0.062667
-0.0722052
-0.0722656
-0.0643063
-0.0559109
-0.0512332
-0.0501648
-0.0551425
-0.0676397
-0.0787011
-0.0769687
-0.0677672
-0.0530372
-0.0396265
-0.0280218
-0.020783
-0.0160209
-0.0127066
-0.012658
-0.00850525
-0.00143254
-0.416545
-0.41671
-0.411738
-0.401876
-0.386177
-0.36432
-0.336753
-0.304509
-0.269165
-0.232941
-0.198667
-0.167948
-0.142289
-0.123188
-0.113822
-0.110013
-0.109782
-0.110346
-0.106742
-0.100161
-0.0913222
-0.0831505
-0.0782504
-0.0780316
-0.0834609
-0.0965843
-0.119718
-0.151565
-0.1838
-0.202878
-0.198422
-0.172496
-0.136487
-0.101887
-0.0747838
-0.0564186
-0.0454474
-0.040439
-0.0425241
-0.0511317
-0.0593888
-0.0603227
-0.0550106
-0.0499694
-0.0483769
-0.0501577
-0.0580704
-0.0735916
-0.0866816
-0.0838019
-0.0736144
-0.0560572
-0.0402501
-0.0266136
-0.0176573
-0.0112711
-0.00777845
-0.00805629
-0.00543564
-0.000729172
-0.424953
-0.425715
-0.420409
-0.409885
-0.393205
-0.369818
-0.340099
-0.305097
-0.266451
-0.226352
-0.187252
-0.151218
-0.12006
-0.095709
-0.0793904
-0.0702062
-0.0669784
-0.0671468
-0.0670878
-0.0653569
-0.0624659
-0.0602425
-0.0605326
-0.0645605
-0.0737615
-0.0907037
-0.117737
-0.153024
-0.187562
-0.207592
-0.203186
-0.176223
-0.138672
-0.102552
-0.0740145
-0.0540969
-0.0414963
-0.0346549
-0.0342898
-0.0403904
-0.0472957
-0.0488578
-0.0458164
-0.0438223
-0.0450858
-0.0496041
-0.0603946
-0.0789313
-0.0941754
-0.0898423
-0.0792017
-0.0587816
-0.0406686
-0.025197
-0.0147581
-0.00687725
-0.00317625
-0.00360868
-0.00246383
-6.95425e-05
-0.424008
-0.424458
-0.419097
-0.408564
-0.391618
-0.367723
-0.337307
-0.301319
-0.261279
-0.21924
-0.177458
-0.138041
-0.102904
-0.0738215
-0.0519342
-0.0374591
-0.029849
-0.0276727
-0.0284907
-0.0299819
-0.0318153
-0.0345545
-0.039344
-0.0473512
-0.0602847
-0.0809505
-0.111555
-0.14983
-0.186425
-0.207449
-0.20397
-0.177049
-0.13899
-0.102159
-0.0727512
-0.0517176
-0.0378007
-0.0294199
-0.0269179
-0.0306907
-0.0362358
-0.03824
-0.0369198
-0.0375658
-0.0413742
-0.048441
-0.061974
-0.0834407
-0.101046
-0.0977091
-0.0845244
-0.061183
-0.0408754
-0.023763
-0.0120684
-0.00282692
0.001104
0.000666929
0.00039236
0.000540046
-0.414335
-0.413565
-0.408647
-0.398943
-0.382556
-0.35926
-0.32964
-0.294455
-0.255004
-0.213125
-0.170835
-0.130068
-0.0926063
-0.0600566
-0.0336586
-0.0141312
-0.00155474
0.00453667
0.00545588
0.00314538
-0.0013392
-0.00748882
-0.0159184
-0.0275471
-0.0440615
-0.0681813
-0.101816
-0.142455
-0.18078
-0.202794
-0.200966
-0.17505
-0.137555
-0.100837
-0.0710956
-0.049345
-0.0344179
-0.0247787
-0.0204663
-0.0221442
-0.0263842
-0.0284148
-0.0284904
-0.0313141
-0.0372891
-0.0466321
-0.0626931
-0.0869388
-0.107078
-0.107647
-0.089455
-0.0632241
-0.0408641
-0.0223041
-0.00956304
0.000901913
0.00507396
0.00475697
0.00312092
0.0010939
-0.397488
-0.394806
-0.39068
-0.382382
-0.367279
-0.345665
-0.318224
-0.285424
-0.2483
-0.208438
-0.167566
-0.127345
-0.08932
-0.0548985
-0.0252874
-0.00145167
0.0160188
0.026884
0.031477
0.0309298
0.0262162
0.0185259
0.00765349
-0.00692951
-0.026582
-0.0536096
-0.0895173
-0.131751
-0.171386
-0.194942
-0.194642
-0.170464
-0.134498
-0.0986782
-0.0691142
-0.0470099
-0.0313705
-0.0207405
-0.014935
-0.014768
-0.0178068
-0.0197168
-0.0206652
-0.0251974
-0.0328991
-0.0441856
-0.0624796
-0.0892904
-0.111921
-0.115874
-0.0937412
-0.0648734
-0.0406399
-0.0208267
-0.00722948
0.00433433
0.00875369
0.00865229
0.00571607
0.00158659
-0.375378
-0.370552
-0.367514
-0.360808
-0.34746
-0.32842
-0.304226
-0.274949
-0.241384
-0.204865
-0.16682
-0.128625
-0.0915683
-0.0568568
-0.0255918
0.00123412
0.0227879
0.0383787
0.047618
0.0508273
0.0480315
0.0407659
0.0290081
0.012566
-0.00939809
-0.0385145
-0.0758072
-0.11879
-0.159175
-0.18489
-0.185504
-0.163673
-0.130086
-0.095897
-0.0669981
-0.044861
-0.0287733
-0.0173779
-0.0103553
-0.0085722
-0.010506
-0.0122023
-0.0135064
-0.0193522
-0.0282957
-0.041083
-0.0612861
-0.0904467
-0.115334
-0.124202
-0.0972277
-0.0661508
-0.0402513
-0.019363
-0.00508551
0.007468
0.0121665
0.0123492
0.00817901
0.00201328
-0.350268
-0.344112
-0.342331
-0.336827
-0.325363
-0.309445
-0.289056
-0.263867
-0.23448
-0.201958
-0.167444
-0.132083
-0.0969815
-0.063185
-0.0316448
-0.00336544
0.0208013
0.0400554
0.0536336
0.0616122
0.0621378
0.0570613
0.0461112
0.0291959
0.00608246
-0.0240032
-0.0615734
-0.104355
-0.144714
-0.171241
-0.174052
-0.155294
-0.124899
-0.0930245
-0.0652293
-0.043281
-0.0269023
-0.0148824
-0.00680782
-0.00354476
-0.00445068
-0.00591564
-0.00698352
-0.0138704
-0.0235511
-0.0374419
-0.0591668
-0.0903055
-0.11705
-0.126054
-0.0996875
-0.0671071
-0.0397697
-0.017941
-0.00312972
0.0102726
0.0153147
0.0158442
0.0105173
0.00236956
-0.325291
-0.319633
-0.318672
-0.313535
-0.303938
-0.291321
-0.274842
-0.253906
-0.228912
-0.200607
-0.16986
-0.137651
-0.105023
-0.0727277
-0.041594
-0.0125894
0.0133528
0.0352726
0.0523249
0.0642668
0.0680745
0.0665283
0.0580987
0.0422745
0.0192423
-0.0108363
-0.0479318
-0.0898065
-0.129345
-0.156244
-0.160415
-0.145252
-0.118848
-0.0899306
-0.0636577
-0.042082
-0.0255209
-0.013051
-0.00409327
0.000581735
0.000669166
-0.000778336
-0.00115465
-0.00897098
-0.0187247
-0.0330852
-0.0560167
-0.0891243
-0.117285
-0.12569
-0.100983
-0.0675622
-0.0390661
-0.0164494
-0.00122354
0.0128301
0.0181972
0.0191111
0.012747
0.00265214
-0.302192
-0.299478
-0.297509
-0.291191
-0.282766
-0.272723
-0.259621
-0.242761
-0.222248
-0.198468
-0.171972
-0.143457
-0.113748
-0.0836908
-0.0541339
-0.0259723
3.07464e-05
0.0230529
0.0423839
0.0562836
0.066449
0.0684601
0.06337
0.0502874
0.0292143
0.000923527
-0.0340384
-0.0734897
-0.111081
-0.134688
-0.142722
-0.13158
-0.109436
-0.0837713
-0.0595562
-0.0389594
-0.0227373
-0.0103736
-0.0011126
0.00454809
0.00554893
0.00389717
-0.000603566
-0.00473589
-0.0141752
-0.0285757
-0.0521037
-0.0865032
-0.115849
-0.123907
-0.100767
-0.0668612
-0.037579
-0.0145359
0.000903741
0.0154546
0.0209717
0.0221984
0.0148647
0.00285285
-0.279213
-0.287468
-0.283094
-0.274436
-0.265358
-0.255445
-0.243121
-0.2275
-0.20852
-0.186544
-0.162094
-0.135781
-0.108297
-0.0803601
-0.0527005
-0.0260782
-0.00120201
0.0212509
0.0404984
0.0551019
0.0651776
0.0691372
0.0662547
0.0549913
0.0350919
0.00762125
-0.0266292
-0.0656318
-0.102427
-0.127764
-0.131551
-0.119904
-0.0988732
-0.0750493
-0.0527217
-0.0336068
-0.0183197
-0.00649895
0.00252412
0.00841873
0.010099
0.0088906
0.00539434
0.00119812
-0.00760862
-0.0218992
-0.046455
-0.0833332
-0.115223
-0.124423
-0.100358
-0.0652306
-0.0353371
-0.01228
0.00311841
0.0181481
0.0237163
0.025289
0.0168844
0.00296048
-0.254542
-0.266113
-0.262654
-0.253158
-0.243433
-0.233737
-0.222369
-0.208169
-0.19097
-0.171143
-0.149184
-0.125587
-0.100887
-0.0756719
-0.0505668
-0.0262324
-0.00333927
0.0174817
0.0355722
0.0497391
0.059693
0.0641902
0.0621627
0.0521754
0.0338922
0.00830751
-0.0236066
-0.0594704
-0.0923895
-0.112974
-0.115882
-0.105039
-0.0864539
-0.065552
-0.045787
-0.0284893
-0.014331
-0.00323501
0.00549276
0.0115785
0.013719
0.0126447
0.00943187
0.00537218
-0.00257222
-0.0164001
-0.0414828
-0.0800605
-0.113281
-0.121685
-0.0981897
-0.0626689
-0.0327173
-0.00989778
0.00533095
0.0205545
0.0260217
0.0280201
0.0185774
0.00301815
-0.23167
-0.243769
-0.241487
-0.232431
-0.222773
-0.213509
-0.203164
-0.190461
-0.175106
-0.157411
-0.137821
-0.116751
-0.0946257
-0.0719373
-0.0492367
-0.0271234
-0.00621603
0.0129127
0.0296592
0.0430363
0.0523442
0.0566254
0.0548629
0.0458386
0.0292938
0.00620903
-0.0221062
-0.0529438
-0.0803136
-0.0969427
-0.0992843
-0.0902063
-0.0745836
-0.0566391
-0.039265
-0.0236667
-0.0105509
-9.24431e-05
0.00829471
0.0144289
0.016986
0.0161803
0.0133827
0.00929353
0.00166629
-0.0121244
-0.0377464
-0.0767712
-0.109748
-0.118018
-0.0948935
-0.0595173
-0.0297777
-0.00736167
0.00761817
0.0229175
0.0282737
0.0306143
0.0200831
0.00305043
-0.211007
-0.222057
-0.220716
-0.212719
-0.203641
-0.194921
-0.185503
-0.174172
-0.160528
-0.144792
-0.127363
-0.108609
-0.0888855
-0.0685998
-0.0482264
-0.0282921
-0.00934557
0.0080813
0.0233461
0.0356633
0.0442671
0.0483435
0.0469926
0.039232
0.0248885
0.00493066
-0.0191338
-0.0447508
-0.0671594
-0.0808341
-0.0831004
-0.0759615
-0.0631408
-0.0479598
-0.0328646
-0.0189496
-0.00689552
0.0029207
0.0109085
0.0170003
0.0199522
0.0196356
0.0173579
0.0134477
0.00603795
-0.00792111
-0.0338507
-0.0724709
-0.104927
-0.112987
-0.090392
-0.0556578
-0.0264664
-0.00465125
0.00998885
0.0252246
0.0304911
0.0331019
0.0214729
0.00306178
-0.190916
-0.201324
-0.200802
-0.193919
-0.185635
-0.17757
-0.169039
-0.158977
-0.146931
-0.133031
-0.117618
-0.101023
-0.0835497
-0.0655339
-0.0473768
-0.0295373
-0.01251
0.00319194
0.0169753
0.0281832
0.0361198
0.0400756
0.0393033
0.0330633
0.0212439
0.00469278
-0.0151608
-0.0360792
-0.0542542
-0.0655796
-0.0679394
-0.0626368
-0.0524072
-0.0397764
-0.0267791
-0.0144529
-0.00343938
0.00575947
0.0133296
0.0193104
0.0225981
0.0228882
0.0212356
0.0178138
0.0108315
-0.00305549
-0.0288679
-0.0669097
-0.0988131
-0.106442
-0.0846044
-0.0510659
-0.0228096
-0.00179367
0.0124211
0.02746
0.0326315
0.0354625
0.022757
0.00304918
-0.172148
-0.181916
-0.181937
-0.176047
-0.168646
-0.161343
-0.153705
-0.144835
-0.134279
-0.12209
-0.108552
-0.0939571
-0.0785697
-0.0626708
-0.0465995
-0.0307552
-0.0155792
-0.00154464
0.0108269
0.0209704
0.0282803
0.0321522
0.031994
0.0272741
0.0179238
0.00463392
-0.0113293
-0.028058
-0.0425971
-0.051929
-0.0543795
-0.0506456
-0.0426285
-0.0322116
-0.0210731
-0.0102087
-0.000208488
0.00839168
0.0155516
0.0213627
0.0249046
0.0258475
0.0249921
0.0223125
0.0160433
0.00260219
-0.0228202
-0.0601717
-0.0912339
-0.0983074
-0.0775267
-0.0457519
-0.0188405
0.00118068
0.0148883
0.0296015
0.0346598
0.0376556
0.0239025
0.00301514
-0.154953
-0.163837
-0.164145
-0.159157
-0.152675
-0.146195
-0.13945
-0.131697
-0.122512
-0.111901
-0.10009
-0.0873366
-0.0738712
-0.0599327
-0.0458079
-0.0318393
-0.0184129
-0.00595006
0.00509715
0.0142352
0.0209498
0.0247406
0.0251487
0.0218044
0.0146811
0.00433892
-0.00815351
-0.021245
-0.0327224
-0.0403202
-0.0427158
-0.0401489
-0.0338925
-0.0253329
-0.0158127
-0.00626395
0.00276636
0.0107812
0.0175631
0.0231644
0.0268776
0.0284499
0.0285548
0.0268235
0.0215449
0.00883251
-0.0159796
-0.0522421
-0.0821238
-0.0886055
-0.0692198
-0.0397667
-0.0146122
0.00422891
0.017356
0.0316241
0.0365418
0.0396353
0.0248741
0.00297327
-0.138896
-0.146888
-0.147486
-0.143341
-0.137743
-0.13208
-0.126199
-0.119486
-0.111556
-0.102386
-0.0921577
-0.0810908
-0.0693873
-0.0572508
-0.0449219
-0.0326921
-0.0208969
-0.009904
-8.97783e-05
0.00810788
0.0142621
0.0179663
0.0188684
0.0167188
0.0115278
0.00374183
-0.00578561
-0.0158235
-0.0247291
-0.0307789
-0.0329286
-0.0311373
-0.0262202
-0.0191756
-0.0110405
-0.00265281
0.00546727
0.0129021
0.0193442
0.0247259
0.0285356
0.0306488
0.031811
0.0311847
0.0271342
0.0154082
-0.00844845
-0.0431421
-0.0715584
-0.0774618
-0.059834
-0.0332139
-0.0101968
0.00729974
0.0197853
0.0335007
0.0382413
0.0413589
0.0256593
0.00294914
-0.123952
-0.131221
-0.132044
-0.128611
-0.123821
-0.118941
-0.113881
-0.108128
-0.10134
-0.0934808
-0.0846915
-0.0751597
-0.0650602
-0.0545665
-0.0438792
-0.033245
-0.0229526
-0.0133277
-0.00464222
0.00268704
0.00831889
0.0119276
0.0132447
0.0121021
0.00853237
0.00288441
-0.00417772
-0.0116848
-0.0184241
-0.0230899
-0.0248514
-0.023519
-0.0195811
-0.0137414
-0.00677684
0.000597756
0.00788251
0.0147414
0.0208651
0.026045
0.0298994
0.0324338
0.0346409
0.0351914
0.0326019
0.0221909
-0.000337765
-0.0331012
-0.0597688
-0.0651444
-0.0496259
-0.0262538
-0.00568339
0.0103366
0.0221351
0.0352036
0.0397277
0.0427948
0.0262785
0.00298086
-0.110248
-0.116792
-0.117751
-0.114947
-0.11089
-0.106729
-0.10243
-0.0975571
-0.0918054
-0.0851276
-0.0776372
-0.0694921
-0.0608419
-0.0518341
-0.0426365
-0.0334516
-0.0245169
-0.0160935
-0.00848681
-0.00196298
0.00318049
0.00667807
0.00832508
0.00800626
0.00576181
0.00186578
-0.00316705
-0.00858792
-0.0135239
-0.016972
-0.0182662
-0.0171575
-0.0139119
-0.00901198
-0.00302523
0.00346996
0.0100037
0.0163001
0.0221009
0.0271006
0.0309709
0.033805
0.0369892
0.0385802
0.0376847
0.0289198
0.00798069
-0.0225864
-0.0471491
-0.0520687
-0.0389548
-0.0191004
-0.00117544
0.013282
0.0243665
0.0367109
0.0409853
0.0439328
0.0267912
0.0031195
-0.0976908
-0.103514
-0.104561
-0.102319
-0.0989184
-0.0954111
-0.0917992
-0.0877188
-0.082896
-0.0772761
-0.0709488
-0.0640463
-0.0566958
-0.0490219
-0.041164
-0.0332869
-0.0255858
-0.0182722
-0.0116126
-0.00581989
-0.00113377
0.00223363
0.00412522
0.00446203
0.00328616
0.000806992
-0.00257621
-0.00631443
-0.00975589
-0.0121485
-0.0129502
-0.0119041
-0.00913299
-0.00495509
0.000224377
0.00595775
0.0118245
0.0175853
0.0230438
0.0278667
0.0317303
0.0347194
0.0374857
0.0410403
0.0418997
0.0349474
0.0158538
-0.0121263
-0.0341649
-0.0387653
-0.0282614
-0.0120073
0.00321441
0.0160806
0.0264444
0.0380143
0.0420233
0.044798
0.0273068
0.00342638
-0.0861428
-0.0913293
-0.0924381
-0.0906806
-0.0878825
-0.0849496
-0.0819448
-0.0785629
-0.0745631
-0.0698821
-0.0645884
-0.0587908
-0.0525965
-0.0461096
-0.0394456
-0.0327426
-0.0261617
-0.0198362
-0.0140182
-0.00888758
-0.00463095
-0.00141332
0.00064401
0.00148474
0.00114956
-0.000192148
-0.00222242
-0.00468236
-0.00689487
-0.00837769
-0.00869554
-0.00761162
-0.00515632
-0.00152749
0.00299175
0.00806685
0.0133422
0.0186039
0.0237016
0.0283266
0.0321735
0.035352
0.0386064
0.042565
0.0446682
0.0394172
0.0226138
-0.00213462
-0.0213433
-0.0258689
-0.018035
-0.00524282
0.0073707
0.0186807
0.0283353
0.03912
0.042884
0.0454658
0.0279896
0.00396489
-0.0755853
-0.0802011
-0.0813358
-0.0799833
-0.0777039
-0.0753027
-0.0728306
-0.0700512
-0.0667683
-0.0629054
-0.0585252
-0.0537029
-0.0485271
-0.0430855
-0.0374737
-0.0318149
-0.0262908
-0.0207836
-0.015717
-0.0111893
-0.00733787
-0.00429031
-0.00214103
-0.000930961
-0.000626684
-0.00107949
-0.00192858
-0.00347796
-0.00472914
-0.00544638
-0.0053191
-0.00414202
-0.00189095
0.00132185
0.00530397
0.00981238
0.014561
0.0193611
0.0240899
0.0284839
0.0322858
0.0356191
0.0390511
0.0430496
0.0456819
0.041872
0.0278355
0.00692969
-0.00941417
-0.0140736
-0.0087467
0.000949879
0.0111884
0.0210314
0.030003
0.0400373
0.0436352
0.0460658
0.0290435
0.00478489
-0.065985
-0.0700621
-0.071188
-0.0701741
-0.0683451
-0.0664063
-0.0644218
-0.0621832
-0.059495
-0.0563015
-0.052743
-0.0487738
-0.0444846
-0.0399498
-0.0352398
-0.0304322
-0.0255894
-0.0210631
-0.0167305
-0.0127653
-0.00930069
-0.00644168
-0.00426444
-0.00280524
-0.0020498
-0.00192926
-0.00240626
-0.00269571
-0.00309319
-0.00317451
-0.00265894
-0.00136732
0.000753383
0.00364928
0.00719398
0.011216
0.0154936
0.0198641
0.0242259
0.028357
0.0320535
0.0354711
0.0388502
0.0425884
0.0451396
0.0424544
0.0313236
0.0144355
0.000809527
-0.0039635
-0.000738165
0.00639408
0.0145882
0.0230836
0.0313983
0.0407594
0.0444083
0.0467587
0.0306576
0.00588925
-0.0572473
-0.0608336
-0.0619336
-0.0612031
-0.0597606
-0.0582193
-0.0566498
-0.0548841
-0.0527694
-0.0502658
-0.0472945
-0.044021
-0.0404854
-0.0367347
-0.0328232
-0.0288184
-0.024797
-0.0208907
-0.0171545
-0.0136871
-0.0105833
-0.00792465
-0.005772
-0.00415688
-0.00306803
-0.00244644
-0.00219006
-0.00200077
-0.00181366
-0.00140522
-0.000573142
0.000829088
0.00286386
0.00551385
0.0086997
0.0123035
0.0161591
0.0201292
0.0241279
0.0279686
0.0314795
0.0346593
0.0380365
0.0413488
0.043506
0.0415974
0.0330792
0.0199163
0.00881469
0.00417652
0.00585672
0.0110008
0.0175151
0.0248013
0.0324578
0.041215
0.0454319
0.0475842
0.0328298
0.00721475
-0.0493025
-0.0524546
-0.0535167
-0.0530179
-0.0519007
-0.0506955
-0.0494735
-0.0480963
-0.0464271
-0.0444104
-0.0420518
-0.0394082
-0.0365279
-0.0334538
-0.0302319
-0.0269145
-0.0235608
-0.0202471
-0.0170433
-0.0140225
-0.011256
-0.00880606
-0.00672054
-0.0050259
-0.0037124
-0.00274134
-0.00202211
-0.0014115
-0.00079346
-1.9023e-05
0.00105748
0.00255109
0.00452256
0.00697523
0.00986234
0.0131047
0.0165806
0.0201775
0.0238193
0.0273577
0.030651
0.0336818
0.0367448
0.0395441
0.041226
0.039803
0.0334196
0.0234339
0.0146323
0.0104077
0.0110804
0.0147602
0.0199326
0.0261529
0.0331285
0.0412442
0.0458969
0.0481056
0.035078
0.00865854
-0.0421042
-0.0448654
-0.0458762
-0.0455631
-0.044717
-0.0437936
-0.0428621
-0.0418088
-0.040516
-0.0389331
-0.0370676
-0.0349554
-0.0326346
-0.0301396
-0.0275052
-0.0247704
-0.0219822
-0.0191946
-0.016463
-0.0138443
-0.0113933
-0.00915721
-0.00717351
-0.00546992
-0.00402223
-0.00282363
-0.00180703
-0.0008832
4.30409e-05
0.00107965
0.00233256
0.00388988
0.00580515
0.00809199
0.0107249
0.0136514
0.0167849
0.0200346
0.0233299
0.0265574
0.0295981
0.0324038
0.0350991
0.0373971
0.0386519
0.037542
0.0328302
0.0254193
0.0186151
0.0149653
0.015066
0.0177088
0.0218293
0.0270996
0.03336
0.0407339
0.0455295
0.0475332
0.036427
0.0100275
-0.0355903
-0.0379993
-0.0389503
-0.0387847
-0.0381628
-0.0374737
-0.036783
-0.035998
-0.0350185
-0.0337983
-0.0323408
-0.0306722
-0.0288216
-0.026815
-0.0246781
-0.0224401
-0.0201355
-0.0178041
-0.015488
-0.0132305
-0.0110724
-0.00904938
-0.00719064
-0.00550894
-0.00402875
-0.00270638
-0.00150789
-0.000377044
0.000755419
0.00196705
0.00333458
0.00492428
0.00678036
0.00892004
0.0113306
0.0139778
0.0168007
0.0197268
0.0226917
0.025606
0.0283681
0.0309054
0.0332332
0.0350987
0.0360252
0.0351522
0.0317221
0.0263246
0.0211775
0.0180849
0.0179891
0.019907
0.0232047
0.0276137
0.0330936
0.0395834
0.0441042
0.0453888
0.0360043
0.0109709
-0.0296977
-0.0317947
-0.0326824
-0.0326323
-0.0321935
-0.0316969
-0.0312031
-0.0306372
-0.0299141
-0.0289921
-0.0278709
-0.0265696
-0.0251103
-0.0235122
-0.0217938
-0.0199759
-0.0180836
-0.0161456
-0.0141935
-0.0122595
-0.0103736
-0.00856365
-0.00685489
-0.0052586
-0.0037801
-0.00240609
-0.00111364
0.000135717
0.00139004
0.00270364
0.00413126
0.00572165
0.00750955
0.00951156
0.0117223
0.014119
0.0166582
0.0192834
0.0219371
0.0245448
0.0270185
0.0292736
0.031266
0.0327845
0.0334858
0.0328226
0.0303669
0.026503
0.0227015
0.0202549
0.0200436
0.0214333
0.0240637
0.027683
0.0323164
0.0377422
0.0414982
0.0417722
0.0336252
0.0111735
-0.0243759
-0.0261969
-0.027019
-0.0270571
-0.0267659
-0.0264252
-0.0260903
-0.0257007
-0.0251846
-0.0245047
-0.023658
-0.0226583
-0.021522
-0.0202629
-0.0188939
-0.0174293
-0.0158867
-0.0142867
-0.0126523
-0.0110071
-0.00937416
-0.00777398
-0.00622187
-0.00473157
-0.00330591
-0.00194117
-0.00062285
0.000674053
0.00198162
0.00333679
0.0047776
0.00633886
0.00804657
0.00991444
0.0119408
0.0141099
0.0163897
0.0187356
0.0210982
0.0234138
0.0256053
0.027587
0.029289
0.0305422
0.0311062
0.0306378
0.0289197
0.0262041
0.023471
0.0216424
0.0213737
0.0223664
0.0244336
0.0273233
0.0310699
0.0353108
0.0380255
0.0372995
0.0298886
0.0106013
-0.0195767
-0.0211531
-0.0219087
-0.0220123
-0.0218386
-0.0216226
-0.0214141
-0.0211645
-0.0208133
-0.0203277
-0.019703
-0.0189487
-0.0180767
-0.0170969
-0.0160177
-0.0148485
-0.0136012
-0.0122901
-0.0109315
-0.00954255
-0.0081416
-0.00674805
-0.00535297
-0.00398494
-0.00264556
-0.00133382
-4.10775e-05
0.00124819
0.00255471
0.00390268
0.00531755
0.00682317
0.00843794
0.010172
0.0120246
0.013984
0.0160261
0.018115
0.0202085
0.0222515
0.0241772
0.0259072
0.0273669
0.028424
0.0289145
0.0286233
0.0274612
0.0255949
0.0236809
0.022347
0.0220914
0.0227841
0.0243633
0.0265791
0.0294396
0.0324936
0.0341212
0.0325803
0.0256292
0.00949236
-0.0152531
-0.0166139
-0.0173039
-0.0174547
-0.0173732
-0.0172558
-0.0171463
-0.0170061
-0.0167847
-0.0164533
-0.0160062
-0.0154498
-0.0147925
-0.0140411
-0.0132008
-0.0122773
-0.0112781
-0.0102124
-0.00909149
-0.00792678
-0.00672975
-0.00550945
-0.00429167
-0.00306483
-0.00183627
-0.000608776
0.000620909
0.00186137
0.00312535
0.00442796
0.00578546
0.00721319
0.00872328
0.0103222
0.0120089
0.0137734
0.0155969
0.0174507
0.0192988
0.0210932
0.0227757
0.0242825
0.0255439
0.0264566
0.0269124
0.0267768
0.0260298
0.0247832
0.0234783
0.0225233
0.0223026
0.0227639
0.0239139
0.0255212
0.0275467
0.0294862
0.0301376
0.0280141
0.0214709
0.00814843
-0.0113636
-0.0125349
-0.0131615
-0.0133447
-0.0133346
-0.0132938
-0.0132608
-0.0132049
-0.0130841
-0.0128736
-0.0125673
-0.0121691
-0.0116848
-0.011119
-0.0104745
-0.00975445
-0.008963
-0.00810597
-0.00719059
-0.00622486
-0.00521721
-0.0041766
-0.00311128
-0.00202339
-0.000916291
0.00020751
0.00134867
0.00251123
0.00370247
0.00493125
0.00620731
0.00753962
0.00893544
0.0103978
0.0119246
0.0135071
0.0151302
0.0167694
0.0183953
0.0199667
0.0214375
0.0227474
0.0238451
0.0246487
0.0250901
0.0250839
0.0246421
0.0238385
0.0229715
0.0222958
0.0220862
0.0223827
0.0231594
0.0242319
0.0255048
0.0265083
0.02633
0.0238319
0.0177471
0.00680034
-0.00787119
-0.00887633
-0.00944219
-0.00964614
-0.00969024
-0.00970825
-0.00973332
-0.00974123
-0.00969748
-0.00958073
-0.00938487
-0.00911214
-0.00876645
-0.00835046
-0.00786556
-0.00731295
-0.00669469
-0.00601402
-0.0052752
-0.00448355
-0.0036447
-0.00276443
-0.00184795
-0.000898651
8.12059e-05
0.0010897
0.00212613
0.00319157
0.00428954
0.00542457
0.00660196
0.00782616
0.00910071
0.0104258
0.0117987
0.0132109
0.0146494
0.0160937
0.0175197
0.0188921
0.0201751
0.0213177
0.0222796
0.0229983
0.0234327
0.0235262
0.0233031
0.0228097
0.0222471
0.0217709
0.0215949
0.0217179
0.022167
0.0227764
0.0234094
0.0236643
0.022851
0.0201448
0.0145794
0.00558088
-0.00474215
-0.00560195
-0.00611062
-0.00632635
-0.00641095
-0.00647335
-0.00654172
-0.00659711
-0.00661137
-0.00656644
-0.0064565
-0.00628252
-0.00604698
-0.0057513
-0.00539574
-0.00498035
-0.00450566
-0.00397316
-0.00338513
-0.00274458
-0.00205502
-0.00131985
-0.000542637
0.000273101
0.00112555
0.00201365
0.0029365
0.0038935
0.00488559
0.00591436
0.0069821
0.00809019
0.00923962
0.0104286
0.0116535
0.0129059
0.0141746
0.0154419
0.0166885
0.0178853
0.0190035
0.0200014
0.0208488
0.0214976
0.0219233
0.0220867
0.0220141
0.021731
0.0213733
0.0210305
0.0208603
0.0208501