/*--------------------------------*- C++ -*----------------------------------*\
| =========                 |                                                 |
| \\      /  F ield         | OpenFOAM: The Open Source CFD Toolbox           |
|  \\    /   O peration     | Version:  2512                                  |
|   \\  /    A nd           | Website:  www.openfoam.com                      |
|    \\/     M anipulation  |                                                 |
\*---------------------------------------------------------------------------*/
FoamFile
{
    version     2.0;
    format      ascii;
    arch        "LSB;label=32;scalar=64";
    class       volScalarField;
    location    "18";
    object      p;
}
// * * * * * * * * * * * * * * * * * * * * * * * * * * * * * * * * * * * * * //

dimensions      [0 2 -2 0 0 0 0];

internalField   nonuniform List<scalar> 
13248
(
-0.311101
-0.309634
-0.30752
-0.304941
-0.302111
-0.299228
-0.296455
-0.293895
-0.291605
-0.289601
-0.287857
-0.286319
-0.284904
-0.283514
-0.282045
-0.280392
-0.278458
-0.276167
-0.273449
-0.270295
-0.266583
-0.2625
-0.257275
-0.251868
-0.318066
-0.315978
-0.313254
-0.310084
-0.306679
-0.303258
-0.299966
-0.29689
-0.294056
-0.291441
-0.288985
-0.286597
-0.284175
-0.281611
-0.27881
-0.27569
-0.272194
-0.268287
-0.263952
-0.259189
-0.253976
-0.248337
-0.242078
-0.235916
-0.326575
-0.323658
-0.320193
-0.316359
-0.312335
-0.308329
-0.304465
-0.300785
-0.297268
-0.293845
-0.29042
-0.286888
-0.283153
-0.279137
-0.274789
-0.270088
-0.265037
-0.259661
-0.25399
-0.248061
-0.241866
-0.235472
-0.228743
-0.222203
-0.336755
-0.332803
-0.328474
-0.323902
-0.319196
-0.314528
-0.309975
-0.305515
-0.301067
-0.296528
-0.291794
-0.286784
-0.281452
-0.275787
-0.269813
-0.263578
-0.257141
-0.250561
-0.243885
-0.237144
-0.230341
-0.22352
-0.216576
-0.210037
-0.34867
-0.343503
-0.338201
-0.332817
-0.327342
-0.321882
-0.316437
-0.310914
-0.305189
-0.299158
-0.292762
-0.285992
-0.27889
-0.271532
-0.264012
-0.256421
-0.248837
-0.241316
-0.233889
-0.226568
-0.219348
-0.21224
-0.205181
-0.198536
-0.362309
-0.355779
-0.349426
-0.34316
-0.336791
-0.330324
-0.323674
-0.316692
-0.309262
-0.301343
-0.292977
-0.284266
-0.275352
-0.266377
-0.257468
-0.248721
-0.240197
-0.231925
-0.223911
-0.216143
-0.208603
-0.201279
-0.194124
-0.187395
-0.377553
-0.369569
-0.362111
-0.354872
-0.347415
-0.339616
-0.331324
-0.322401
-0.312815
-0.302663
-0.292127
-0.281427
-0.270771
-0.260327
-0.250213
-0.240493
-0.231193
-0.22231
-0.21382
-0.205693
-0.197899
-0.190406
-0.183186
-0.176371
-0.39413
-0.384663
-0.376064
-0.367719
-0.358877
-0.349296
-0.338833
-0.32746
-0.315327
-0.302714
-0.289948
-0.277326
-0.265073
-0.253336
-0.242188
-0.231648
-0.2217
-0.212308
-0.203427
-0.195011
-0.187016
-0.179403
-0.172147
-0.165275
-0.411569
-0.400659
-0.390884
-0.381222
-0.370586
-0.358681
-0.345495
-0.331235
-0.316299
-0.301158
-0.286236
-0.271847
-0.258183
-0.245332
-0.233307
-0.222078
-0.211591
-0.201782
-0.192588
-0.18395
-0.175812
-0.168129
-0.160871
-0.153979
-0.429165
-0.416916
-0.405904
-0.394623
-0.38169
-0.366896
-0.350518
-0.333097
-0.315293
-0.297717
-0.280821
-0.264875
-0.249998
-0.236205
-0.223447
-0.211649
-0.200725
-0.19059
-0.181163
-0.172372
-0.164152
-0.156452
-0.149222
-0.14235
-0.445987
-0.432541
-0.420176
-0.406883
-0.391114
-0.372935
-0.353056
-0.332396
-0.311829
-0.292028
-0.273399
-0.256124
-0.240233
-0.225664
-0.212314
-0.200071
-0.188821
-0.178459
-0.16889
-0.16003
-0.151806
-0.144157
-0.137
-0.130217
-0.460949
-0.446497
-0.432634
-0.416889
-0.397753
-0.375778
-0.352221
-0.328365
-0.305227
-0.283452
-0.263348
-0.244982
-0.228284
-0.213123
-0.199347
-0.186807
-0.175367
-0.164904
-0.155312
-0.146494
-0.138372
-0.130874
-0.123885
-0.117338
-0.272291
-0.274999
-0.276751
-0.278014
-0.279198
-0.280419
-0.281736
-0.283187
-0.284793
-0.286559
-0.288482
-0.290557
-0.292773
-0.29512
-0.297582
-0.300144
-0.302787
-0.305493
-0.308244
-0.311022
-0.3138
-0.316565
-0.319385
-0.322398
-0.272997
-0.275524
-0.27717
-0.278369
-0.279501
-0.280677
-0.281953
-0.283366
-0.284937
-0.28667
-0.288565
-0.290617
-0.292818
-0.295158
-0.297627
-0.300211
-0.302894
-0.305659
-0.308491
-0.311376
-0.314286
-0.317179
-0.320123
-0.323495
-0.274828
-0.276998
-0.278437
-0.279509
-0.280541
-0.281631
-0.282832
-0.284177
-0.285684
-0.28736
-0.289204
-0.291212
-0.293379
-0.295696
-0.298156
-0.300746
-0.303451
-0.306254
-0.309138
-0.312091
-0.315088
-0.318042
-0.320944
-0.324533
-0.277511
-0.279204
-0.280354
-0.281238
-0.282113
-0.283063
-0.284135
-0.285359
-0.286752
-0.288319
-0.290059
-0.29197
-0.294048
-0.296287
-0.29868
-0.301216
-0.303882
-0.306657
-0.30952
-0.312455
-0.315444
-0.318399
-0.321134
-0.3243
-0.280713
-0.281877
-0.282686
-0.283325
-0.283979
-0.28472
-0.285589
-0.286617
-0.287817
-0.289195
-0.290751
-0.292484
-0.29439
-0.296467
-0.298707
-0.301102
-0.303638
-0.306296
-0.30905
-0.311874
-0.314744
-0.317591
-0.320182
-0.322932
-0.28412
-0.284773
-0.285218
-0.285561
-0.285927
-0.286378
-0.286958
-0.287696
-0.288608
-0.289702
-0.290979
-0.29244
-0.294083
-0.295906
-0.297903
-0.300068
-0.302387
-0.304843
-0.307408
-0.310049
-0.31272
-0.315367
-0.317872
-0.319716
-0.287501
-0.287717
-0.287802
-0.287809
-0.28782
-0.287901
-0.288101
-0.288455
-0.288985
-0.289703
-0.290614
-0.291721
-0.293024
-0.294523
-0.296213
-0.298087
-0.300133
-0.302328
-0.304645
-0.307039
-0.309477
-0.311778
-0.314345
-0.314914
-0.290763
-0.290638
-0.290384
-0.290022
-0.289623
-0.289264
-0.289007
-0.2889
-0.288973
-0.289247
-0.289732
-0.290437
-0.291362
-0.292509
-0.293866
-0.29543
-0.297182
-0.2991
-0.301141
-0.303239
-0.305413
-0.307162
-0.309825
-0.309088
-0.293951
-0.293586
-0.29301
-0.292255
-0.291404
-0.290555
-0.289791
-0.289175
-0.288752
-0.288552
-0.288595
-0.288887
-0.289433
-0.290227
-0.291264
-0.292518
-0.293964
-0.295561
-0.297265
-0.29896
-0.300786
-0.301856
-0.304345
-0.30271
-0.297262
-0.29671
-0.295817
-0.294647
-0.293317
-0.291953
-0.290662
-0.289527
-0.288607
-0.287942
-0.287553
-0.287449
-0.287627
-0.288072
-0.288757
-0.289643
-0.290682
-0.291817
-0.292997
-0.294089
-0.295301
-0.295721
-0.297537
-0.295599
-0.300995
-0.300245
-0.299009
-0.297397
-0.29557
-0.293684
-0.29187
-0.290228
-0.288827
-0.287711
-0.286901
-0.286395
-0.286173
-0.286198
-0.286416
-0.286763
-0.287163
-0.28754
-0.287826
-0.287946
-0.288029
-0.287675
-0.288309
-0.286431
-0.305501
-0.304465
-0.302827
-0.300738
-0.298396
-0.295988
-0.293664
-0.291533
-0.289669
-0.288109
-0.286858
-0.285895
-0.285171
-0.284619
-0.284155
-0.283684
-0.28311
-0.282341
-0.28129
-0.279934
-0.278228
-0.276327
-0.274723
-0.272896
-0.32601
-0.329309
-0.331766
-0.332877
-0.332206
-0.329204
-0.323327
-0.314042
-0.301246
-0.284417
-0.263394
-0.238197
-0.209124
-0.176803
-0.142214
-0.106634
-0.0716039
-0.0383935
-0.00876205
0.0163672
0.0363636
0.0510788
0.0608497
0.0663308
0.0683485
0.06775
0.0653099
0.0617163
0.0574558
0.0529131
0.0483436
0.0439248
0.0397296
0.0358303
0.0322651
0.0290095
0.0260622
0.0234053
0.0210199
0.0188677
0.0169259
0.015162
0.013558
0.0120948
0.0107681
0.00956805
0.00848738
0.00751699
0.00664237
0.00585583
0.00513979
0.00449054
0.00388624
0.00333291
0.0027976
0.0023009
0.0017945
0.00131475
0.000793496
0.000289016
-0.328179
-0.332079
-0.335196
-0.337008
-0.337052
-0.334736
-0.329477
-0.320863
-0.308474
-0.291904
-0.270957
-0.245612
-0.216154
-0.183237
-0.147882
-0.111322
-0.0753772
-0.0408327
-0.0105286
0.0152332
0.0357089
0.0507476
0.0607128
0.0663061
0.0683924
0.0678275
0.0654133
0.0617968
0.057521
0.0529595
0.0483649
0.0439641
0.0397745
0.0358758
0.0323284
0.0290747
0.026124
0.0234631
0.0210768
0.0189241
0.0169804
0.0152163
0.0136072
0.0121403
0.0108073
0.00960244
0.00851677
0.00754233
0.00666417
0.00587447
0.00515618
0.00450401
0.00389884
0.00334228
0.00280715
0.00230688
0.00180144
0.00131718
0.000797805
0.000286855
-0.330978
-0.33554
-0.339389
-0.342043
-0.342988
-0.341572
-0.337033
-0.32955
-0.318
-0.302018
-0.281478
-0.2563
-0.226741
-0.193451
-0.157392
-0.119629
-0.0825976
-0.0473576
-0.0158726
0.0108519
0.032131
0.0478367
0.0583488
0.0643941
0.0668588
0.0666169
0.0644656
0.0610825
0.0570024
0.0525957
0.048132
0.0437198
0.039561
0.0356659
0.0321954
0.0289935
0.0260766
0.0234365
0.0210655
0.0189233
0.0169893
0.0152354
0.0136297
0.012166
0.0108318
0.00962617
0.0085383
0.0075619
0.00668161
0.0058898
0.00516999
0.00451548
0.00390986
0.00335044
0.00281575
0.00231219
0.0018079
0.00131937
0.00080197
0.000284719
-0.333214
-0.337979
-0.342552
-0.346067
-0.347946
-0.34765
-0.344542
-0.337768
-0.32717
-0.311774
-0.292027
-0.267424
-0.238195
-0.204916
-0.168593
-0.130573
-0.0927153
-0.0566652
-0.024191
0.00350984
0.0257277
0.0423244
0.0536695
0.0604844
0.0636497
0.0640464
0.0624315
0.0594858
0.0557542
0.0516232
0.0473759
0.0431954
0.0392218
0.0355137
0.0319538
0.0287614
0.0259004
0.0233162
0.0209911
0.0188703
0.0169562
0.0152215
0.0136273
0.0121731
0.0108429
0.00964014
0.00855283
0.00757641
0.00669534
0.00590243
0.00518175
0.00452544
0.00391967
0.00335779
0.00282366
0.00231714
0.00181402
0.00132157
0.000806029
0.000282761
-0.332542
-0.338517
-0.343351
-0.347502
-0.350249
-0.350885
-0.348757
-0.343152
-0.333661
-0.319703
-0.301019
-0.277407
-0.249011
-0.21634
-0.180339
-0.142416
-0.104341
-0.0678841
-0.0347662
-0.00627154
0.0168525
0.0344375
0.0468128
0.0546549
0.0588089
0.0601231
0.0593109
0.05703
0.05384
0.0501492
0.0462486
0.0423348
0.0385485
0.0349591
0.0316045
0.0285308
0.0256875
0.023076
0.0208419
0.0187658
0.0168842
0.0151761
0.0136005
0.0121618
0.0108404
0.00964408
0.00856015
0.00758568
0.00670524
0.00591226
0.00519137
0.00453387
0.00392822
0.00336434
0.00283082
0.00232178
0.00181974
0.00132384
0.000809912
0.000281081
-0.329891
-0.336573
-0.341415
-0.345904
-0.349341
-0.350752
-0.349597
-0.345134
-0.336852
-0.324235
-0.306928
-0.284712
-0.25766
-0.226217
-0.191255
-0.154107
-0.11647
-0.0801388
-0.046817
-0.0178209
0.00607119
0.0246449
0.038159
0.0472039
0.052554
0.0550002
0.0552192
0.0538047
0.0513225
0.0482027
0.044752
0.0411893
0.0376725
0.0342952
0.0310997
0.0281284
0.0254144
0.0229629
0.0206375
0.0185998
0.0167748
0.0151014
0.013551
0.0121326
0.0108245
0.00963795
0.0085601
0.0075895
0.00671109
0.0059191
0.00519868
0.00454065
0.00393535
0.00337002
0.0028371
0.00232609
0.00182495
0.00132621
0.000813525
0.000279791
-0.325267
-0.332256
-0.336932
-0.341452
-0.345257
-0.347261
-0.346829
-0.343374
-0.336294
-0.325046
-0.309229
-0.288617
-0.263273
-0.233601
-0.200347
-0.164699
-0.128205
-0.0925991
-0.0595545
-0.0303995
-0.00593895
0.0135506
0.0282283
0.0385664
0.0452311
0.0489397
0.0503433
0.0499464
0.0482989
0.0458541
0.0429422
0.0398038
0.0366138
0.0334854
0.0304833
0.0276677
0.0250597
0.0226597
0.0204362
0.0183503
0.0166166
0.0149988
0.0134811
0.0120872
0.0107961
0.00962213
0.00855281
0.00758786
0.00671283
0.00592288
0.00520356
0.00454572
0.00394096
0.00337482
0.0028424
0.00233006
0.00182954
0.00132873
0.000816781
0.000279028
-0.318954
-0.32567
-0.329984
-0.334381
-0.338263
-0.340541
-0.340621
-0.337961
-0.331943
-0.322031
-0.3078
-0.288983
-0.265579
-0.237953
-0.206878
-0.173408
-0.138789
-0.104541
-0.0722667
-0.0433073
-0.0185091
0.00177001
0.0175633
0.0292039
0.0372237
0.0422522
0.0448962
0.0456112
0.0448848
0.0431864
0.0408752
0.0382138
0.0353949
0.0325532
0.0297754
0.0271281
0.0246429
0.0223426
0.0202072
0.0183354
0.0164114
0.014866
0.013393
0.0120273
0.0107562
0.00959716
0.00853853
0.00758083
0.00671043
0.00592354
0.00520593
0.00454903
0.00394495
0.00337869
0.00284663
0.00233369
0.00183342
0.00133143
0.000819593
0.000278958
-0.311111
-0.316563
-0.320398
-0.324661
-0.328336
-0.330623
-0.331085
-0.329084
-0.324001
-0.315361
-0.302742
-0.285848
-0.264635
-0.239382
-0.210746
-0.17976
-0.147571
-0.115275
-0.0842586
-0.055856
-0.0309765
-0.0100852
0.0067025
0.0195681
0.0289013
0.0352235
0.0390883
0.0409543
0.041206
0.0402959
0.0386165
0.0364613
0.0340432
0.0315156
0.0289821
0.0265214
0.0241783
0.0219857
0.0199462
0.0180747
0.0163938
0.014715
0.013288
0.0119543
0.0107057
0.0095637
0.0085176
0.00756863
0.00670401
0.00592115
0.00520581
0.0045506
0.00394728
0.00338168
0.00284973
0.00233702
0.00183653
0.00133439
0.000821898
0.000279789
-0.301464
-0.304866
-0.30852
-0.312586
-0.315603
-0.317588
-0.31836
-0.316949
-0.312759
-0.305407
-0.294472
-0.279633
-0.260807
-0.238184
-0.212282
-0.183979
-0.154389
-0.124421
-0.0950945
-0.0676229
-0.0429539
-0.0216739
-0.00406658
0.00988714
0.020436
0.0279805
0.0330044
0.0359999
0.0372883
0.0372349
0.0362296
0.0346047
0.032604
0.0304038
0.0281266
0.0258638
0.0236726
0.0215954
0.0196433
0.0178415
0.0161533
0.0145335
0.0131649
0.0118694
0.0106465
0.00952316
0.00849113
0.00755208
0.00669418
0.00591613
0.00520345
0.00455062
0.00394802
0.00338381
0.00285165
0.00234004
0.00183876
0.00133763
0.00082363
0.000281795
-0.289082
-0.291176
-0.295122
-0.298693
-0.301215
-0.302989
-0.303993
-0.303174
-0.299919
-0.293906
-0.284707
-0.272005
-0.255693
-0.235868
-0.212894
-0.187442
-0.160449
-0.132894
-0.105512
-0.0792735
-0.0550715
-0.0335781
-0.0152524
-0.00025633
0.0115057
0.0203034
0.0265227
0.030592
0.0329148
0.0338145
0.0335933
0.0325836
0.0310578
0.0292227
0.0272259
0.0251767
0.0231477
0.0211922
0.0193334
0.0176001
0.0159716
0.0145143
0.0130284
0.0117727
0.01058
0.0094761
0.00845915
0.00753067
0.00668019
0.00590766
0.005198
0.00454831
0.00394638
0.00338452
0.00285175
0.00234234
0.00183964
0.0013409
0.000824496
0.000285306
-0.274922
-0.278053
-0.281108
-0.282658
-0.284107
-0.285775
-0.286599
-0.286026
-0.283617
-0.278986
-0.271622
-0.261217
-0.247624
-0.230833
-0.211047
-0.188708
-0.164489
-0.139203
-0.113684
-0.0888354
-0.0654746
-0.0441916
-0.0255349
-0.00981438
0.00291766
0.0128007
0.0201118
0.0252041
0.0284238
0.0301133
0.0306242
0.0302437
0.0292341
0.0278123
0.0261419
0.0243467
0.0225136
0.0207074
0.0189642
0.0173172
0.015766
0.0143168
0.0129625
0.0116542
0.0104927
0.00941021
0.00841115
0.00749558
0.00665486
0.00589
0.00518495
0.00454039
0.00393976
0.00338212
0.00284868
0.00234318
0.00183844
0.00134393
0.000823978
0.000290652
-0.260484
-0.268718
-0.270699
-0.271124
-0.272343
-0.273889
-0.274309
-0.273079
-0.27055
-0.266098
-0.259141
-0.249401
-0.236748
-0.22117
-0.202846
-0.182168
-0.159732
-0.136277
-0.112553
-0.0893265
-0.0673296
-0.0471573
-0.0292987
-0.0140528
-0.0015049
0.00843074
0.0159668
0.0213973
0.0250449
0.0272095
0.0281752
0.0282063
0.0275578
0.0264428
0.0250302
0.0234463
0.0217879
0.0201194
0.01849
0.0169312
0.0154572
0.0140689
0.0127579
0.0115253
0.0103916
0.00933317
0.00835479
0.00745468
0.00662612
0.00587028
0.00517125
0.00453295
0.00393384
0.00338136
0.00284714
0.00234592
0.00183853
0.00134847
0.000823472
0.000297369
-0.245051
-0.256083
-0.258393
-0.257659
-0.257454
-0.257881
-0.257908
-0.256843
-0.254197
-0.249636
-0.242855
-0.233642
-0.221884
-0.207581
-0.190893
-0.172151
-0.151851
-0.130604
-0.10905
-0.0878432
-0.0676228
-0.0489267
-0.0321857
-0.0176897
-0.00555726
0.0042437
0.0118618
0.0175276
0.0215039
0.0240418
0.0253926
0.0258045
0.0255142
0.0247228
0.0235947
0.0222555
0.0208041
0.0193085
0.0178227
0.0163805
0.0150004
0.0136878
0.0124421
0.0112752
0.0101926
0.00917783
0.00823219
0.00735965
0.00655187
0.00581306
0.00512672
0.00449921
0.0039074
0.00336222
0.00283208
0.00233595
0.00183055
0.00134477
0.000819609
0.000299975
-0.229348
-0.241482
-0.244242
-0.242972
-0.241897
-0.241774
-0.241671
-0.240512
-0.237712
-0.233121
-0.226622
-0.218055
-0.20731
-0.194375
-0.179372
-0.162564
-0.144345
-0.125209
-0.105704
-0.0863949
-0.0678375
-0.0505193
-0.0348372
-0.0210763
-0.0093809
0.000237963
0.0078763
0.013707
0.0179409
0.0207957
0.0224974
0.0232706
0.0233295
0.0228613
0.0220228
0.0209375
0.0197045
0.0183947
0.0170646
0.0157513
0.0144769
0.0132531
0.0120882
0.0109873
0.00995297
0.00898244
0.00807365
0.00723258
0.00644994
0.00573202
0.00506212
0.00444832
0.00386698
0.00333101
0.00280756
0.00231785
0.00181674
0.00133616
0.00081332
0.000300415
-0.214113
-0.226016
-0.229177
-0.22799
-0.226607
-0.226142
-0.225789
-0.224479
-0.221666
-0.217233
-0.211133
-0.203259
-0.193513
-0.181872
-0.168426
-0.153381
-0.137054
-0.119855
-0.102247
-0.0847153
-0.067741
-0.0517595
-0.0371344
-0.0241376
-0.0129281
-0.00355049
0.004046
0.00998373
0.0144293
0.017568
0.019596
0.020711
0.0211056
0.0209522
0.0203996
0.0195676
0.0185548
0.0174339
0.0162637
0.0150839
0.0139216
0.0127937
0.0117108
0.0106746
0.00969364
0.00877031
0.00790089
0.00709307
0.00633744
0.00564197
0.00498993
0.00439116
0.00382132
0.00329563
0.00277963
0.00229722
0.00180095
0.00132629
0.000806462
0.000300103
-0.198805
-0.210302
-0.213857
-0.213004
-0.211574
-0.210838
-0.210245
-0.208874
-0.206185
-0.202028
-0.196378
-0.189184
-0.180375
-0.169929
-0.157908
-0.144476
-0.129891
-0.114487
-0.0986526
-0.0827987
-0.0673374
-0.0526532
-0.0390759
-0.026862
-0.0161778
-0.00709398
0.000402806
0.00639294
0.0110034
0.0143858
0.0167061
0.018136
0.0188468
0.0189959
0.0187226
0.0181417
0.01735
0.0164207
0.0154144
0.0143733
0.0133287
0.0122999
0.0112991
0.0103337
0.00941224
0.00853972
0.00771249
0.00694037
0.00621386
0.0055427
0.00491008
0.00432778
0.00377057
0.00325626
0.00274849
0.00227424
0.00178341
0.00131527
0.000799113
0.000299062
-0.183706
-0.194836
-0.19864
-0.198116
-0.196751
-0.195875
-0.195157
-0.193815
-0.191317
-0.187488
-0.182314
-0.175785
-0.167862
-0.158526
-0.147822
-0.135876
-0.122895
-0.10915
-0.094963
-0.0806787
-0.0666496
-0.0532119
-0.040662
-0.0292393
-0.0191116
-0.0103683
-0.00302513
0.00296319
0.00768787
0.0112682
0.0138418
0.0155556
0.0165599
0.0169961
0.0169928
0.0166586
0.0160873
0.0153515
0.0145127
0.0136147
0.0126919
0.0117661
0.0108528
0.00996361
0.00910537
0.00828687
0.00750488
0.00677121
0.00607626
0.00543161
0.00482033
0.0042562
0.00371308
0.00321143
0.00271302
0.00224788
0.00176339
0.00130239
0.000790903
0.000297133
-0.169322
-0.179814
-0.183679
-0.183445
-0.182234
-0.181351
-0.180613
-0.179355
-0.177078
-0.173604
-0.168923
-0.163049
-0.155968
-0.147667
-0.138176
-0.127592
-0.116079
-0.103857
-0.0911895
-0.0783657
-0.065685
-0.0534387
-0.0418905
-0.0312611
-0.0217151
-0.0133534
-0.006214
-0.000280666
0.00450666
0.00823796
0.0110243
0.0129886
0.0142607
0.0149654
0.01522
0.0151256
0.0147717
0.0142293
0.0135599
0.0128084
0.0120113
0.0111934
0.0103724
0.00956283
0.00877127
0.00801014
0.0072765
0.00658407
0.00592323
0.0053074
0.00471951
0.00417535
0.00364795
0.00316034
0.00267255
0.00221753
0.0017405
0.00128729
0.000781661
0.000294351
-0.155568
-0.165276
-0.169115
-0.169154
-0.168148
-0.16734
-0.16665
-0.165509
-0.163474
-0.160371
-0.156192
-0.150959
-0.144674
-0.137331
-0.128953
-0.119613
-0.10944
-0.0986103
-0.0873408
-0.075872
-0.0644562
-0.0533437
-0.0427667
-0.0329262
-0.0239797
-0.0160341
-0.00914395
-0.00331588
0.00148383
0.00531907
0.00827623
0.0104557
0.011967
0.0129188
0.013416
0.0135517
0.0134098
0.0130589
0.0125593
0.0119565
0.0112884
0.0105821
0.00985702
0.00913033
0.00840904
0.00770864
0.00702642
0.00637804
0.00575388
0.00516921
0.00460684
0.00408453
0.00357458
0.00310243
0.00262667
0.00218284
0.00171449
0.00126977
0.000771309
0.000290811
-0.142369
-0.151349
-0.155117
-0.155386
-0.154595
-0.153904
-0.153292
-0.15229
-0.150513
-0.147791
-0.144107
-0.139491
-0.133953
-0.127496
-0.120136
-0.111928
-0.102974
-0.0934159
-0.0834296
-0.0732137
-0.0629797
-0.0529408
-0.0432997
-0.034237
-0.0259008
-0.0183994
-0.0117983
-0.00612178
-0.00135778
0.00253484
0.00562011
0.00797731
0.00969691
0.0108715
0.0115935
0.0119468
0.0120092
0.0118456
0.0115145
0.0110611
0.0105241
0.00993224
0.0093061
0.00866564
0.00801795
0.00738147
0.00675366
0.00615211
0.00556726
0.00501612
0.00448149
0.00398297
0.00349229
0.00303713
0.00257492
0.0021434
0.00168509
0.00124962
0.000759724
0.000286577
-0.129911
-0.138157
-0.141785
-0.142229
-0.141636
-0.141074
-0.140567
-0.139724
-0.138207
-0.135857
-0.132651
-0.12862
-0.12378
-0.118137
-0.111705
-0.104527
-0.0966817
-0.0882816
-0.0794693
-0.0704079
-0.0612734
-0.0522462
-0.0435015
-0.0351999
-0.0274779
-0.020442
-0.0141638
-0.00868065
-0.00399762
-9.29386e-05
0.00307764
0.00557415
0.00746925
0.00883998
0.00976619
0.010322
0.0105784
0.0105959
0.0104301
0.0101254
0.00972018
0.00924462
0.00872003
0.00816861
0.00759743
0.00702785
0.00645734
0.00590533
0.00536239
0.00484718
0.00434258
0.00386984
0.00340038
0.00296377
0.00251676
0.00209875
0.00165196
0.00122661
0.000746733
0.000281686
-0.118259
-0.125724
-0.129153
-0.129728
-0.129318
-0.12889
-0.128501
-0.127823
-0.12656
-0.124563
-0.121811
-0.118326
-0.114132
-0.109236
-0.10365
-0.0974053
-0.090564
-0.0832154
-0.075474
-0.0674727
-0.0593571
-0.0512787
-0.0433877
-0.035825
-0.028715
-0.0221589
-0.0162313
-0.0109782
-0.00641775
-0.0025442
0.00066966
0.00326672
0.00530324
0.00684153
0.00794896
0.00868976
0.00912755
0.00931752
0.00931188
0.00915342
0.00887947
0.00852104
0.00809965
0.00763932
0.00714724
0.0066473
0.00613678
0.00563692
0.00513844
0.00466153
0.00418925
0.00374434
0.00329812
0.00288171
0.00245164
0.00204843
0.00161472
0.0012005
0.000732136
0.000276161
-0.107333
-0.114049
-0.117261
-0.117933
-0.117683
-0.117383
-0.11711
-0.11659
-0.115571
-0.113907
-0.111575
-0.108597
-0.104994
-0.100778
-0.095958
-0.0905575
-0.0846236
-0.078227
-0.0714591
-0.0644277
-0.0572525
-0.0500597
-0.0429768
-0.0361264
-0.0296197
-0.0235515
-0.0179958
-0.0130037
-0.0086032
-0.00480103
-0.00158431
0.00107492
0.00321812
0.00489392
0.00615768
0.00706374
0.00766787
0.0080196
0.00816695
0.00815039
0.0080057
0.00776396
0.00744633
0.00707718
0.00666779
0.00623976
0.00579161
0.00534629
0.00489471
0.00445842
0.00402077
0.00360572
0.00318482
0.00279031
0.00237903
0.00199197
0.00157301
0.00117105
0.000715726
0.000270005
-0.0971335
-0.103158
-0.106142
-0.106876
-0.106763
-0.106578
-0.106407
-0.106006
-0.10524
-0.103884
-0.101935
-0.0994189
-0.096355
-0.092754
-0.0886239
-0.0839825
-0.0788654
-0.0733275
-0.0674415
-0.0612942
-0.054983
-0.0486127
-0.0422903
-0.0361213
-0.030204
-0.0246252
-0.0194562
-0.0147505
-0.0105424
-0.00684823
-0.0036667
-0.000982583
0.0012326
0.00301503
0.00440872
0.00545836
0.00621173
0.00671235
0.00700348
0.00712272
0.00710361
0.00697679
0.00676263
0.00648731
0.00616021
0.00580557
0.00542176
0.00503314
0.00463074
0.00423725
0.0038365
0.00345331
0.00305986
0.00268898
0.00229838
0.00192895
0.00152644
0.00113804
0.0006973
0.000263206
-0.0876914
-0.0930568
-0.0957975
-0.0965655
-0.0965701
-0.096503
-0.0964611
-0.0962642
-0.0956092
-0.0944982
-0.0928876
-0.0907837
-0.0882031
-0.085154
-0.0816424
-0.0776808
-0.0732957
-0.0685294
-0.0634392
-0.0580942
-0.0525735
-0.0469629
-0.0413519
-0.03583
-0.0304832
-0.0253895
-0.020616
-0.0162159
-0.0122275
-0.00867374
-0.00556245
-0.00288886
-0.000635647
0.00122232
0.00271858
0.00388865
0.00477233
0.00540697
0.00583072
0.00607781
0.00617897
0.0061639
0.00605184
0.00586966
0.00562554
0.00534547
0.00502761
0.00469748
0.0043463
0.00399763
0.00363594
0.00328659
0.00292266
0.00257719
0.0022092
0.00185896
0.00147463
0.00110126
0.000676662
0.000255731
-0.0789738
-0.0837158
-0.0862099
-0.0869876
-0.0870831
-0.0871014
-0.0871352
-0.08702
-0.0865697
-0.0857061
-0.0844057
-0.0826751
-0.0805274
-0.0779709
-0.0750102
-0.0716542
-0.0679222
-0.0638463
-0.0594708
-0.0548508
-0.0500497
-0.0451372
-0.0401874
-0.0352758
-0.0304762
-0.0258581
-0.0214827
-0.0174017
-0.0136547
-0.0102691
-0.00725942
-0.00462924
-0.00237052
-0.000467669
0.00110344
0.00236976
0.00336341
0.00411552
0.00465888
0.00502408
0.00523859
0.0053306
0.00531782
0.00522721
0.00506584
0.00486081
0.00460995
0.00433969
0.00404146
0.00373941
0.00341878
0.00310514
0.00277276
0.00245449
0.00211101
0.00178164
0.00141724
0.00106049
0.000653637
0.000247539
-0.0709337
-0.0751069
-0.0773626
-0.0781322
-0.0782975
-0.0783857
-0.0784862
-0.0784649
-0.0781673
-0.0775175
-0.0764873
-0.0750844
-0.0733195
-0.0711988
-0.0687257
-0.0659059
-0.0627534
-0.0592919
-0.0555555
-0.0515873
-0.0474378
-0.0431633
-0.0388244
-0.034484
-0.0302049
-0.0260478
-0.0220678
-0.0183135
-0.0148241
-0.0116295
-0.00874881
-0.0061918
-0.00395797
-0.00203978
-0.000421338
0.000916556
0.00199881
0.00285051
0.00349897
0.00397087
0.00429012
0.00448306
0.00456536
0.00456377
0.00448395
0.00435357
0.0041701
0.00396059
0.00371664
0.00346271
0.00318493
0.00290876
0.00260985
0.00232056
0.00200345
0.00169668
0.00135395
0.00101555
0.000628076
0.000238582
-0.0635492
-0.0672063
-0.0692335
-0.0699813
-0.0701993
-0.0703453
-0.0705041
-0.0705657
-0.0703992
-0.0699201
-0.0691209
-0.0680025
-0.0665716
-0.0648326
-0.0627874
-0.0604394
-0.0577979
-0.0548803
-0.0517122
-0.0483271
-0.0447646
-0.0410696
-0.0372915
-0.0334818
-0.0296936
-0.0259789
-0.0223866
-0.0189612
-0.0157402
-0.0127544
-0.0100254
-0.00756769
-0.00538647
-0.00348073
-0.0018416
-0.000456721
0.000692189
0.00162453
0.00236231
0.00292815
0.0033421
0.00362844
0.0038003
0.00388382
0.00388323
0.00382632
0.00370994
0.00356146
0.00337267
0.00316802
0.00293457
0.00269745
0.00243375
0.00217518
0.00188624
0.00160384
0.00128451
0.000966246
0.000599858
0.000228816
-0.0567922
-0.0599798
-0.0617899
-0.0625062
-0.0627625
-0.0629532
-0.0631564
-0.0632814
-0.0632141
-0.0628868
-0.0622857
-0.0614132
-0.0602729
-0.0588663
-0.0571939
-0.0552579
-0.0530643
-0.0506253
-0.0479599
-0.0450933
-0.0420565
-0.0388849
-0.035618
-0.032298
-0.0289687
-0.0256744
-0.0224577
-0.0193583
-0.0164113
-0.0136468
-0.0110878
-0.00875149
-0.00664742
-0.0047796
-0.00314492
-0.00173691
-0.000543237
0.000450226
0.00126042
0.00190609
0.00240346
0.00277443
0.00302921
0.00319286
0.00326798
0.00328234
0.00323192
0.00314411
0.0030108
0.00285616
0.0026682
0.00247146
0.00224452
0.00201832
0.00175922
0.00150296
0.00120877
0.000912464
0.000568896
0.000218203
-0.0506214
-0.0533873
-0.0549956
-0.0556747
-0.0559577
-0.0561821
-0.0564186
-0.0565924
-0.0566078
-0.0564079
-0.0559725
-0.055307
-0.0544137
-0.0532927
-0.0519429
-0.0503643
-0.0485606
-0.0465401
-0.0443164
-0.0419084
-0.0393395
-0.0366375
-0.0338336
-0.0309619
-0.0280582
-0.0251595
-0.0223023
-0.0195215
-0.0168492
-0.0143137
-0.0119382
-0.00974129
-0.00773538
-0.00592823
-0.00432125
-0.00291275
-0.00169553
-0.000660167
0.000205288
0.000915777
0.0014837
0.00192889
0.00225883
0.00249688
0.00264328
0.00272567
0.00273918
0.00271094
0.00263279
0.00252842
0.00238666
0.00223138
0.00204247
0.00185013
0.00162243
0.00139402
0.00112666
0.000854124
0.000535141
0.000206718
-0.0449994
-0.0473905
-0.0488138
-0.0494523
-0.0497523
-0.0500008
-0.0502612
-0.0504727
-0.0505544
-0.0504538
-0.0501548
-0.0496632
-0.0489811
-0.048105
-0.0470318
-0.0457608
-0.044294
-0.0426369
-0.0407989
-0.0387935
-0.0366385
-0.0343551
-0.0319677
-0.0295032
-0.0269908
-0.0244609
-0.0219441
-0.0194708
-0.0170693
-0.0147658
-0.0125826
-0.0105387
-0.00864816
-0.00692124
-0.00536282
-0.00397501
-0.00275482
-0.00169665
-0.000792789
-3.19786e-05
0.000593814
0.00110181
0.00149705
0.00180202
0.00201432
0.00216073
0.00223533
0.00226483
0.0022409
0.00218653
0.00209123
0.0019781
0.0018282
0.001671
0.00147609
0.0012771
0.00103821
0.000791226
0.000498588
0.000194353
-0.0398919
-0.0419511
-0.043206
-0.0438024
-0.0441119
-0.0443767
-0.0446529
-0.0448907
-0.0450221
-0.0450035
-0.0448206
-0.0444725
-0.0439647
-0.0432938
-0.0424557
-0.0414476
-0.04027
-0.0389262
-0.0374226
-0.0357688
-0.0339775
-0.0320646
-0.0300489
-0.0279517
-0.0257959
-0.0236064
-0.0214086
-0.0192282
-0.0170899
-0.0150171
-0.0130306
-0.011149
-0.00938696
-0.0077563
-0.00626428
-0.00491591
-0.00371181
-0.00264967
-0.00172542
-0.000930224
-0.000259254
0.000301897
0.000754026
0.00111751
0.00138779
0.00159272
0.00172457
0.00180923
0.00183788
0.00183265
0.00178358
0.00171287
0.00160263
0.00148157
0.00132064
0.00115251
0.000943605
0.000723861
0.000459288
0.00018112
-0.0352637
-0.0370303
-0.0381332
-0.0386875
-0.0390005
-0.0392753
-0.0395606
-0.0398163
-0.0399858
-0.0400319
-0.0399399
-0.039709
-0.0393461
-0.038848
-0.0382087
-0.0374239
-0.0364927
-0.0354171
-0.0342014
-0.0328521
-0.0313781
-0.0297909
-0.0281048
-0.0263359
-0.0245026
-0.0226245
-0.0207223
-0.0188176
-0.0169313
-0.0150841
-0.0132947
-0.0115806
-0.00995646
-0.00843452
-0.0070236
-0.00573064
-0.00455897
-0.00350892
-0.00258025
-0.00176726
-0.00106791
-0.000467936
3.16749e-05
0.000449827
0.000771654
0.00102808
0.00121222
0.00134853
0.00142735
0.0014697
0.00146599
0.00143749
0.0013671
0.00128284
0.00115679
0.00102072
0.000843188
0.000652231
0.000417349
0.000167052
-0.0310808
-0.0325916
-0.0335586
-0.0340721
-0.0343844
-0.0346644
-0.0349538
-0.0352206
-0.0354179
-0.0355144
-0.035498
-0.0353671
-0.0351202
-0.0347616
-0.0342864
-0.0336886
-0.0329657
-0.032118
-0.0311482
-0.0300607
-0.0288613
-0.0275583
-0.0261619
-0.0246845
-0.02314
-0.0215439
-0.019913
-0.0182647
-0.0166166
-0.0149865
-0.0133909
-0.0118458
-0.010365
-0.0089607
-0.00764254
-0.00641857
-0.00529404
-0.00427099
-0.0033513
-0.00253131
-0.00181398
-0.00118896
-0.000657976
-0.000199471
0.000163132
0.000468807
0.000701006
0.000885543
0.00101195
0.00110005
0.00114056
0.0011537
0.00112307
0.00107597
0.000985456
0.000882412
0.000737456
0.000576666
0.000372969
0.000152197
-0.027307
-0.0285945
-0.0294407
-0.0299153
-0.0302235
-0.0305043
-0.0307933
-0.0310649
-0.0312808
-0.0314147
-0.031456
-0.0314026
-0.0312552
-0.031013
-0.0306742
-0.0302325
-0.0296846
-0.0290301
-0.0282698
-0.0274061
-0.026443
-0.0253861
-0.0242428
-0.0230218
-0.021734
-0.0203912
-0.0190066
-0.0175942
-0.0161685
-0.0147444
-0.0133362
-0.0119581
-0.0106228
-0.00934187
-0.0081251
-0.0069811
-0.00591655
-0.00493467
-0.00404006
-0.00322999
-0.00250673
-0.00185909
-0.00129688
-0.000788966
-0.000408992
-7.24098e-05
0.00020244
0.000429974
0.000599552
0.000729902
0.000812104
0.000865169
0.000873291
0.000862987
0.000808099
0.000738661
0.00062716
0.000497635
0.000326466
0.000136693
-0.0239278
-0.0250228
-0.0257625
-0.0262006
-0.0265023
-0.0267811
-0.0270666
-0.0273386
-0.027566
-0.0277277
-0.0278151
-0.0278267
-0.0277613
-0.0276156
-0.0273794
-0.0270625
-0.0266605
-0.0261679
-0.0255831
-0.024908
-0.0241458
-0.0233001
-0.0223757
-0.0213788
-0.0203171
-0.0191996
-0.0180365
-0.0168387
-0.0156179
-0.0143863
-0.013156
-0.0119393
-0.0107475
-0.00959135
-0.00848029
-0.00742296
-0.0064269
-0.00549623
-0.00463705
-0.00384878
-0.00314091