/*--------------------------------*- C++ -*----------------------------------*\
| =========                 |                                                 |
| \\      /  F ield         | OpenFOAM: The Open Source CFD Toolbox           |
|  \\    /   O peration     | Version:  2512                                  |
|   \\  /    A nd           | Website:  www.openfoam.com                      |
|    \\/     M anipulation  |                                                 |
\*---------------------------------------------------------------------------*/
FoamFile
{
    version     2.0;
    format      ascii;
    arch        "LSB;label=32;scalar=64";
    class       surfaceScalarField;
    location    "18";
    object      phi;
}
// * * * * * * * * * * * * * * * * * * * * * * * * * * * * * * * * * * * * * //

dimensions      [0 3 -1 0 0 0 0];

oriented        oriented;

internalField   nonuniform List<scalar> 
26232
(
2.96707e-05
0.00098644
-0.00101611
0.000303275
0.00196415
-0.00223775
0.000978916
0.00209326
-0.0027689
0.0022039
0.00142245
-0.00264744
0.00412415
-2.16517e-05
-0.0018986
0.00688831
-0.00222974
-0.000534419
0.0106415
-0.00519661
0.00144347
0.0155181
-0.00891693
0.00404025
0.0216282
-0.0133715
0.00726145
0.0290413
-0.0185188
0.0111057
0.0377715
-0.0242887
0.0155586
0.0477657
-0.0305814
0.0205871
0.058899
-0.0372703
0.0261371
0.0709763
-0.0442103
0.0321329
0.0837434
-0.0512471
0.0384801
0.0969028
-0.0582294
0.0450699
0.110136
-0.065019
0.0517858
0.123126
-0.0715022
0.0585119
0.135584
-0.077592
0.0651338
0.147266
-0.0832518
0.0715701
0.157989
-0.0884329
0.0777099
0.167618
-0.0932633
0.0836348
0.176023
-0.0974667
0.0890613
-0.101857
0.0950945
0.182786
7.06263e-05
0.000915813
0.00049561
0.00153917
0.00146399
0.00112487
0.00315343
-0.00026698
0.00573784
-0.00260607
0.00938143
-0.00587333
0.0142296
-0.0100448
0.0203895
-0.0150768
0.02791
-0.0208921
0.0367647
-0.0273735
0.0468409
-0.0343649
0.0579398
-0.0416803
0.0697883
-0.0491188
0.0820606
-0.0564826
0.0944071
-0.0635935
0.106486
-0.070308
0.117993
-0.0765268
0.128691
-0.0822001
0.138426
-0.0873269
0.147126
-0.091952
0.154833
-0.0961394
0.161598
-0.100029
0.167692
-0.103561
-0.107328
0.173163
0.000133801
0.000782013
0.000768265
0.000904702
0.00211945
-0.000226311
0.00438974
-0.00253727
0.00776708
-0.00598341
0.0124104
-0.0105167
0.0184274
-0.0160619
0.0258492
-0.0224985
0.0346094
-0.0296523
0.0445363
-0.0373004
0.05536
-0.0451887
0.0667366
-0.0530568
0.0782837
-0.0606659
0.0896224
-0.0678213
0.100418
-0.0743888
0.110412
-0.0803025
0.119448
-0.0855624
0.127473
-0.0902257
0.134537
-0.0943902
0.140763
-0.0981787
0.146332
-0.101708
0.151421
-0.105118
0.156251
-0.10839
-0.111953
0.160876
0.000218762
0.000563251
0.00111878
4.68271e-06
0.00293499
-0.00204252
0.00588102
-0.0054833
0.0101353
-0.0102377
0.0158135
-0.0161948
0.0229366
-0.023185
0.0314067
-0.0309685
0.0409995
-0.0392451
0.0513817
-0.0476826
0.0621487
-0.0559557
0.0728768
-0.0637849
0.0831771
-0.0709662
0.0927419
-0.0773861
0.101375
-0.0830222
0.109004
-0.087931
0.115667
-0.0922256
0.121492
-0.0960503
0.126656
-0.099555
0.131352
-0.102875
0.135759
-0.106115
0.140005
-0.109364
0.144225
-0.11261
-0.116124
0.148396
0.000324002
0.000239248
0.00153834
-0.00120965
0.00388395
-0.00438814
0.00756271
-0.00916205
0.0127077
-0.0153827
0.019343
-0.0228302
0.0273521
-0.0311941
0.0364701
-0.0400865
0.0463091
-0.0490842
0.0564128
-0.0577863
0.0663247
-0.0658675
0.0756545
-0.0731148
0.0841275
-0.0794392
0.0916068
-0.0848654
0.0980899
-0.0895053
0.103681
-0.0935221
0.108551
-0.0970957
0.112894
-0.100393
0.116891
-0.103552
0.120687
-0.106671
0.124389
-0.109817
0.128056
-0.113031
0.131749
-0.116302
-0.119796
0.135421
0.000447289
-0.00020804
0.00201429
-0.00277665
0.0049267
-0.00730055
0.00934231
-0.0135777
0.0153033
-0.0213437
0.0226929
-0.0302198
0.0312217
-0.0397228
0.0404581
-0.0493229
0.0498989
-0.058525
0.0590562
-0.0669435
0.067536
-0.0743473
0.0750891
-0.0806679
0.0816247
-0.0859748
0.0871911
-0.0904318
0.0919331
-0.0942473
0.096042
-0.097631
0.0997107
-0.100764
0.103104
-0.103786
0.106344
-0.106792
0.109514
-0.109841
0.112664
-0.112967
0.11582
-0.116187
0.119015
-0.119497
-0.122984
0.122202
0.000585721
-0.000793761
0.0025283
-0.00471922
0.00600927
-0.0107815
0.0111011
-0.0186694
0.0177077
-0.0279503
0.0255364
-0.0380485
0.0341256
-0.048312
0.042928
-0.0581254
0.0514181
-0.0670152
0.0591862
-0.0747116
0.0659923
-0.0811534
0.0717726
-0.0864482
0.0766064
-0.0908086
0.0806615
-0.0944869
0.0841379
-0.0977237
0.0872238
-0.100717
0.0900706
-0.103611
0.0927867
-0.106502
0.0954419
-0.109447
0.098078
-0.112477
0.100719
-0.115608
0.103375
-0.118844
0.106061
-0.122183
-0.125663
0.108741
0.000734658
-0.00152842
0.00305531
-0.00703987
0.00706309
-0.0147893
0.0127008
-0.0243072
0.0196978
-0.0349473
0.0275814
-0.045932
0.0357644
-0.056495
0.0436733
-0.0660343
0.0508628
-0.0742047
0.0570797
-0.0809284
0.0622652
-0.086339
0.0665124
-0.0906954
0.0700009
-0.0942971
0.0729354
-0.0974214
0.0755016
-0.10029
0.0778439
-0.103059
0.0800626
-0.10583
0.0822205
-0.10866
0.0843544
-0.111581
0.0864845
-0.114607
0.0886214
-0.117745
0.0907699
-0.120992
0.0929358
-0.124349
-0.127822
0.095094
0.000887064
-0.00241548
0.00356309
-0.0097159
0.00800897
-0.0192352
0.014
-0.0302982
0.0210787
-0.042026
0.0286285
-0.0534819
0.0360178
-0.0638844
0.0427422
-0.0727586
0.048507
-0.0799695
0.0532348
-0.0856562
0.0570157
-0.0901199
0.0600335
-0.0937132
0.0624971
-0.0967607
0.0645935
-0.0995178
0.0664658
-0.102162
0.0682113
-0.104805
0.0698898
-0.107508
0.0715353
-0.110306
0.0731662
-0.113212
0.0747922
-0.116233
0.0764183
-0.119371
0.0780471
-0.122621
0.0796798
-0.125981
-0.129443
0.0813013
0.00103358
-0.00344907
0.00401452
-0.0126968
0.00876646
-0.0239871
0.0148759
-0.0364077
0.0217193
-0.0488693
0.0286046
-0.0603672
0.0349443
-0.0702241
0.0403707
-0.078185
0.0447593
-0.084358
0.0481788
-0.0890757
0.0508091
-0.0927502
0.0528631
-0.0957672
0.0545332
-0.0984308
0.0559664
-0.100951
0.0572617
-0.103457
0.058479
-0.106022
0.0596518
-0.108681
0.0607978
-0.111452
0.0619267
-0.114341
0.0630434
-0.11735
0.0641507
-0.120478
0.0652497
-0.12372
0.0663393
-0.127071
-0.130516
0.0674119
0.00116392
-0.00461298
0.00437332
-0.0159062
0.00926709
-0.0288809
0.0152463
-0.0423869
0.0215721
-0.0551952
0.027558
-0.066353
0.0327294
-0.0753955
0.0368808
-0.0823364
0.0400353
-0.0875126
0.042357
-0.0913974
0.0440603
-0.0944535
0.0453463
-0.0970532
0.0463709
-0.0994554
0.0472394
-0.101819
0.0480151
-0.104233
0.048733
-0.10674
0.0494113
-0.109359
0.0500597
-0.1121
0.0506836
-0.114965
0.0512862
-0.117953
0.0518688
-0.121061
0.0524317
-0.124283
0.0529722
-0.127611
-0.13103
0.0534869
0.00127083
-0.00588382
0.00461228
-0.0192477
0.0094666
-0.0337352
0.0150803
-0.0480005
0.0206699
-0.0607848
0.0256257
-0.0713089
0.0296214
-0.0793912
0.0326013
-0.0853163
0.0346938
-0.089605
0.0361078
-0.0928115
0.0370543
-0.0954
0.0377023
-0.0977013
0.0381684
-0.0999215
0.038523
-0.102174
0.0388048
-0.104515
0.0390337
-0.106969
0.0392196
-0.109545
0.0393683
-0.112249
0.0394833
-0.11508
0.0395669
-0.118036
0.0396205
-0.121114
0.0396442
-0.124307
0.039635
-0.127602
0.0395934
-0.130989
-0.000302645
0.000216129
8.65157e-05
-0.00104461
0.000552854
0.000189111
-0.00213098
0.000840038
0.000246333
-0.00349568
0.00109269
0.000272011
-0.00509124
0.00131923
0.000276325
-0.00688442
0.0015267
0.000266482
-0.00885305
0.00172163
0.000247001
-0.0109834
0.00191014
0.00022017
-0.0132677
0.00209772
0.000186658
-0.0157029
0.00228899
0.000146135
-0.0182881
0.00248747
9.77733e-05
-0.0210241
0.00269546
4.05241e-05
-0.0239123
0.00291409
-2.58622e-05
-0.0269536
0.00314367
-0.000102374
-0.0301482
0.00338374
-0.000189158
-0.0334955
0.00363331
-0.000286011
-0.0369943
0.00389109
-0.000392319
-0.0406431
0.00415574
-0.000506921
-0.0444414
0.00442627
-0.000627991
-0.0483906
0.00470223
-0.000752972
-0.0524948
0.00498294
-0.000878727
-0.0567613
0.00526786
-0.00100141
-0.0612115
0.00556509
-0.00111488
0.00589738
-0.0658979
-0.00121101
-0.000280139
0.000496268
-0.000971237
0.00124395
-0.00198574
0.00185454
-0.00326075
0.00236771
-0.00474969
0.00280816
-0.00641848
0.00319549
-0.00824286
0.003546
-0.0102059
0.00387318
-0.0122961
0.00418787
-0.0145054
0.00449829
-0.0168279
0.00481004
-0.0192588
0.00512629
-0.0217927
0.00544808
-0.0244238
0.00577474
-0.0271444
0.00610431
-0.0299451
0.00643401
-0.0328146
0.00676065
-0.0357401
0.00708123
-0.0387077
0.00739381
-0.041704
0.00769859
-0.0447189
0.00799782
-0.0477455
0.00829449
-0.0507842
0.0086038
0.00899056
-0.0538774
-0.000234994
0.000731262
-0.000823315
0.00183227
-0.00169194
0.00272316
-0.00278446
0.00346023
-0.0040561
0.0040798
-0.00547133
0.00461072
-0.00700199
0.00507666
-0.00862542
0.00549662
-0.0103229
0.00588537
-0.0120783
0.00625363
-0.0138764
0.0066082
-0.0157025
0.00695239
-0.0175408
0.00728638
-0.0193739
0.00760782
-0.021182
0.00791237
-0.0229422
0.00819424
-0.0246283
0.00844677
-0.0262102
0.00866307
-0.0276534
0.00883706
-0.0289202
0.00896539
-0.0299729
0.00905047
-0.0307796
0.00910122
-0.0313079
0.00913208
0.00920071
-0.031518
-0.00017563
0.000906891
-0.000626488
0.00228313
-0.00129759
0.00339427
-0.00214069
0.00430332
-0.00311342
0.00505254
-0.00417873
0.00567603
-0.00530388
0.00620181
-0.0064595
0.00665225
-0.0076185
0.00704437
-0.00875502
0.00739015
-0.00984358
0.00769676
-0.0108582
0.00796697
-0.0117715
0.00819971
-0.0125543
0.00839065
-0.0131748
0.0085328
-0.0135976
0.00861705
-0.0137834
0.00863265
-0.0136882
0.00856779
-0.0132613
0.00841023
-0.0124447
0.00814875
-0.0111711
0.0077769
-0.00937002
0.00730011
-0.00698051
0.00674257
0.00620959
-0.0039894
-0.000112508
0.0010194
-0.000413098
0.00258372
-0.000863899
0.00384507
-0.00142447
0.00486389
-0.00205494
0.00568301
-0.0027169
0.00633798
-0.00337349
0.0068584
-0.00398908
0.00726784
-0.00452875
0.00758404
-0.00495769
0.00781909
-0.00524067
0.00797974
-0.00534148
0.00806778
-0.00522242
0.00808065
-0.00484381
0.00801205
-0.00416355
0.00785253
-0.00313652
0.00759002
-0.00171408
0.0072102
0.000156852
0.00669686
0.0025348
0.00603228
0.00548594
0.00519761
0.00908938
0.00417346
0.0134378
0.00295172
0.0186277
0.00155267
-4.33668e-05
0.0248806
-5.581e-05
0.00107521
-0.000215225
0.00274314
-0.000452465
0.00408231
-0.000732559
0.00514399
-0.00101728
0.00596773
-0.00126705
0.00658776
-0.00144167
0.00703302
-0.00150043
0.0073266
-0.00140201
0.00748561
-0.00110413
0.00752122
-0.000563309
0.00743892
0.000265524
0.00723895
0.00142934
0.00691683
0.00297738
0.00646401
0.00496154
0.00586837
0.00743664
0.00511492
0.0104608
0.00418603
0.0140962
0.00306147
0.0184089
0.00171959
0.0234669
0.000139602
0.0293514
-0.00171099
0.0361659
-0.00386277
0.0439526
-0.00623405
-0.00926707
0.0531763
-1.33679e-05
0.00108858
-5.78174e-05
0.00278759
-0.000112005
0.0041365
-0.00014238
0.00517436
-0.000110457
0.0059358
2.50448e-05
0.00645226
0.00030745
0.00675061
0.00078195
0.0068521
0.00149561
0.00677195
0.00249766
0.00651918
0.00383972
0.00609685
0.0055762
0.00550247
0.0077645
0.00472854
0.0104652
0.00376326
0.0137431
0.00259049
0.0176659
0.00119215
0.0223044
-0.000452508
0.0277346
-0.00236866
0.0340319
-0.00457777
0.0412779
-0.00710634
0.0495328
-0.00996587
0.0589226
-0.0132526
0.0693384
-0.0166499
-0.0214258
0.0814971
1.15069e-05
0.00107707
4.6794e-05
0.0027523
0.000132711
0.00405058
0.000306418
0.00500065
0.00060969
0.00563253
0.00108754
0.00597441
0.00178798
0.00605018
0.00276214
0.00587794
0.00406475
0.00546934
0.00575448
0.00482945
0.00789437
0.00395696
0.0105521
0.00284469
0.0138003
0.00148038
0.0177146
-0.000151033
0.0223782
-0.00207309
0.0278737
-0.00430334
0.0342866
-0.00686543
0.0416988
-0.0097809
0.0501886
-0.0130676
0.059829
-0.0167467
0.0706522
-0.020789
0.0827752
-0.0253756
0.0959302
-0.0298049
-0.0363581
0.110862
1.93249e-05
0.00105775
0.000101666
0.00266996
0.000287701
0.00386455
0.000624134
0.00466422
0.00116065
0.00509602
0.00195012
0.00518493
0.0030495
0.0049508
0.00452071
0.00440672
0.0064315
0.00355856
0.00885592
0.00240503
0.0118744
0.000938492
0.0155732
-0.000854139
0.0200433
-0.00298975
0.0253793
-0.00548703
0.0316718
-0.00836552
0.03901
-0.0116416
0.0474726
-0.015328
0.0571231
-0.0194313
0.0680034
-0.0239479
0.0801325
-0.0288759
0.0934771
-0.0341336
0.108042
-0.0399406
0.123548
-0.0453104
-0.0531264
0.140316
1.6212e-05
0.00104153
0.000125291
0.00256088
0.000389694
0.00360014
0.000871798
0.00418212
0.00163524
0.00433257
0.00274721
0.00407296
0.00428053
0.00341748
0.00631516
0.00237208
0.00893891
0.000934808
0.0122468
-0.000902882
0.0163395
-0.0031542
0.0213197
-0.00583435
0.0272877
-0.00895771
0.0343354
-0.0125347
0.0425388
-0.0165689
0.051952
-0.0210549
0.0625997
-0.0259757
0.0744716
-0.0313032
0.0875184
-0.0369947
0.101648
-0.0430058
0.116734
-0.0492196
0.132576
-0.0557818
0.149042
-0.0617764
-0.0697874
0.165703
1.11205e-05
0.00103041
0.000147229
0.00242477
0.000498216
0.00324915
0.00114827
0.00353206
0.00218192
0.00329893
0.00368813
0.00256675
0.00576292
0.00134269
0.00850998
-0.00037498
0.0120398
-0.00259501
0.0164652
-0.00532824
0.0218955
-0.00858451
0.0284286
-0.0123675
0.0361416
-0.0166707
0.045081
-0.0214741
0.0552544
-0.0267424
0.066624
-0.0324245
0.0791031
-0.0384548
0.0925563
-0.0447564
0.106803
-0.0512412
0.121626
-0.0578294
0.136804
-0.064397
0.152022
-0.0709997
0.16728
-0.0770343
-0.0840487
0.181541
1.43026e-05
0.000201321
0.000681579
0.00156621
0.00296653
0.00499886
0.00778502
0.0114503
0.0161167
0.0218942
0.0288683
0.0370879
0.0465543
0.0572132
0.0689509
0.0815963
0.0949273
0.108683
0.122575
0.136316
0.149629
0.162264
0.174291
0.185337
-0.0691595
0.00501492
-0.00175328
-0.0720838
0.00478563
-0.00186136
-0.0746244
0.00444336
-0.00190276
-0.0766744
0.00391855
-0.00186848
-0.0781235
0.00318131
-0.00173224
-0.0788508
0.00219346
-0.0014662
-0.0787087
0.000919849
-0.00106188
-0.0776202
-0.000546027
-0.000542499
-0.0754969
-0.00219841
7.50748e-05
-0.0721992
-0.00408406
0.000786365
-0.0676225
-0.00615273
0.00157609
-0.0616822
-0.00833329
0.00239298
-0.054322
-0.0105302
0.00316995
-0.0455235
-0.0126169
0.00381837
-0.0353398
-0.0144641
0.00428042
-0.0238921
-0.0158605
0.00441276
-0.0113548
-0.0166775
0.00414026
0.00205795
-0.0168828
0.00346998
0.0159979
-0.0162992
0.0023593
0.030167
-0.0150355
0.000866392
0.044228
-0.0131848
-0.000876243
0.057885
-0.0108958
-0.0027612
0.0708874
-0.00836429
-0.00463805
0.0830575
-0.00578838
-0.00638176
0.0942845
-0.00331728
-0.00790965
0.104502
-0.00103691
-0.00918065
0.11372
0.000945212
-0.0101632
0.121967
0.0026367
-0.0108833
0.129301
0.00403109
-0.0113652
0.1358
0.00515095
-0.01165
0.141551
0.00602064
-0.0117722
0.146642
0.00668845
-0.0117792
0.151152
0.00719452
-0.0117041
0.155156
0.00761798
-0.011622
0.158731
0.00792151
-0.0114965
0.161936
0.00826667
-0.0114719
0.164833
0.00850294
-0.0113996
0.167468
0.0089182
-0.0115538
0.169883
0.00914622
-0.0115615
0.172091
0.00979423
-0.0120018
0.174087
0.0100896
-0.0120856
0.175843
0.0111171
-0.0128732
0.177334
0.0114682
-0.0129595
0.178542
0.0128501
-0.0140576
0.179469
0.0131838
-0.0141106
0.180135
0.0148756
-0.0155415
0.18057
0.0152435
-0.0156793
0.18081
0.0173677
-0.0176074
0.180891
0.0178072
-0.0178878
0.180837
0.0205885
-0.0205346
0.180681
0.0209953
-0.0208391
0.180437
0.024607
-0.0243628
0.180124
0.0249838
-0.0246707
0.179752
0.0294596
-0.0290885
0.179333
0.0299582
-0.0295391
0.178869
0.0354652
-0.0350004
0.178369
0.0361101
-0.035611
0.177832
0.0429702
-0.0424325
0.177266
0.0439485
-0.043383
0.0523499
-0.0517478
-0.0565997
0.00773715
-0.0590502
0.00723616
-0.0611198
0.00651293
-0.0627389
0.00553768
-0.0638087
0.00425108
-0.0642133
0.00259807
-0.0637678
0.000474354
-0.0625255
-0.0017883
-0.0602949
-0.00442896
-0.0569891
-0.00738987
-0.0525204
-0.0106214
-0.0468145
-0.0140392
-0.039823
-0.0175216
-0.0315354
-0.0209045
-0.0220029
-0.0239966
-0.0113119
-0.0265515
0.000321951
-0.0283114
0.0125584
-0.0291192
0.0252888
-0.0290296
0.0381879
-0.0279345
0.0509555
-0.0259525
0.0633419
-0.0232821
0.0751492
-0.0201717
0.0862398
-0.016879
0.0965346
-0.0136121
0.105996
-0.0104985
0.114599
-0.00765759
0.122372
-0.00513653
0.129358
-0.00295458
0.135606
-0.00109691
0.141188
0.000438388
0.146176
0.00170088
0.150625
0.00274486
0.154598
0.00364473
0.158168
0.00435228
0.161381
0.00505383
0.164295
0.00558878
0.166955
0.006258
0.169403
0.00669829
0.171651
0.00754588
0.173695
0.00804568
0.175504
0.00930835
0.177049
0.00992356
0.178306
0.0115923
0.179278
0.0122117
0.179983
0.014171
0.180453
0.0147737
0.180721
0.0170992
0.180829
0.0176998
0.180798
0.0206192
0.180664
0.0211287
0.18044
0.0248314
0.180148
0.0252762
0.179794
0.0298131
0.179394
0.0303586
0.178944
0.0359147
0.178461
0.0365931
0.177935
0.0434959
0.177382
0.0445015
0.052945
-0.0332845
0.00950367
-0.0348647
0.00881635
-0.03613
0.00777816
-0.0370171
0.00642479
-0.0374569
0.00469093
-0.0373336
0.00247475
-0.0365671
-0.00029211
-0.0350583
-0.00329713
-0.0327003
-0.00678698
-0.029395
-0.0106952
-0.0250895
-0.0149269
-0.0197124
-0.0194164
-0.0132208
-0.0240133
-0.00559536
-0.02853
0.00301044
-0.0326024
0.0124521
-0.0359932
0.022689
-0.0385483
0.0335359
-0.0399661
0.0446741
-0.0401678
0.0558507
-0.0391111
0.0668222
-0.036924
0.0773888
-0.0338487
0.0874055
-0.0301883
0.0967836
-0.0262571
0.105488
-0.0223162
0.113502
-0.0185132
0.120826
-0.0149809
0.127482
-0.0117924
0.133508
-0.00898099
0.138957
-0.00654552
0.143865
-0.00447011
0.148274
-0.00270842
0.15224
-0.00122049
0.155796
8.88746e-05
0.159024
0.00112432
0.161946
0.00213171
0.164614
0.00292013
0.167064
0.00380885
0.169334
0.00442752
0.171438
0.00544177
0.173372
0.00611207
0.175104
0.00757615
0.176603
0.00842511
0.17784
0.0103553
0.178811
0.01124
0.17953
0.0134527
0.180025
0.0142786
0.180325
0.0167987
0.180471
0.0175544
0.180481
0.0206095
0.180391
0.0212185
0.18021
0.0250124
0.179963
0.0255227
0.179654
0.0301225
0.1793
0.0307127
0.178894
0.0363202
0.178457
0.0370301
0.177974
0.043979
0.177466
0.0450099
0.0535001
-0.00428605
0.00980032
-0.0048394
0.0093697
-0.00520736
0.00814612
-0.00526331
0.00648074
-0.00499231
0.00441993
-0.00432573
0.00180817
-0.00322423
-0.0013936
-0.0014846
-0.00503677
0.00089962
-0.0091712
0.00394929
-0.0137448
0.0078118
-0.0187894
0.0125482
-0.0241527
0.018191
-0.0296561
0.0247318
-0.0350708
0.0321522
-0.0400227
0.040378
-0.044219
0.0492022
-0.0473725
0.0584367
-0.0492006
0.0678344
-0.0495655
0.0771701
-0.0484468
0.0862442
-0.0459981
0.0949024
-0.0425069
0.103041
-0.0383274
0.110606
-0.033822
0.117587
-0.0292973
0.123999
-0.0249248
0.129853
-0.0208353
0.135181
-0.0171195
0.140019
-0.0138195
0.144404
-0.0109307
0.148373
-0.00843925
0.15196
-0.00629555
0.155208
-0.00446818
0.158168
-0.00287123
0.16084
-0.00154762
0.163267
-0.000295432
0.165513
0.000674342
0.167588
0.00173433
0.169532
0.00248285
0.171354
0.00361987
0.173055
0.00441099
0.174607
0.00602412
0.175977
0.0070551
0.177133
0.00919929
0.178065
0.010308
0.178776
0.012742
0.179289
0.0137651
0.179626
0.0164626
0.17982
0.0173596
0.179887
0.0205428
0.179861
0.0212443
0.179747
0.0251271
0.179571
0.0256985
0.179332
0.0303613
0.179052
0.0309929
0.178719
0.0366528
0.178358
0.0373914
0.177948
0.0443884
0.177516
0.0454421
0.0539823
0.0254587
0.00922229
0.0260082
0.00882015
0.0265621
0.00759221
0.0272217
0.0058212
0.0280557
0.0035859
0.0291116
0.000752216
0.0304117
-0.00269371
0.0321168
-0.00674187
0.034301
-0.0113553
0.0370685
-0.0165124
0.0404536
-0.0221745
0.0445125
-0.0282116
0.0492772
-0.0344207
0.054739
-0.0405327
0.060887
-0.0461708
0.0676306
-0.0509625
0.0748097
-0.0545516
0.0822537
-0.0566446
0.089773
-0.0570848
0.0971922
-0.0558661
0.104364
-0.0531701
0.111181
-0.0493242
0.117574
-0.0447196
0.123503
-0.0397513
0.128962
-0.0347567
0.133975
-0.0299373
0.138549
-0.0254094
0.142708
-0.0212786
0.146481
-0.0175927
0.1499
-0.0143493
0.152995
-0.0115343
0.155798
-0.00909799
0.15834
-0.00701036
0.160651
-0.00518271
0.162754
-0.00365065
0.164697
-0.00223786
0.166473
-0.00110223
0.168117
9.0407e-05
0.169687
0.000912674
0.171174
0.0021335
0.172588
0.00299634
0.17391
0.00470294
0.175108
0.00585655
0.17615
0.0081571
0.177021
0.00943719
0.177714
0.0120494
0.178244
0.0132345
0.178623
0.0160842
0.17888
0.0171027
0.17902
0.020402
0.179079
0.0211856
0.179054
0.0251527
0.178973
0.025779
0.178831
0.0305035
0.178652
0.0311721
0.17842
0.036884
0.178164
0.0376478
0.177859
0.0446938
0.177534
0.0457667
0.0543588
0.0543177
0.00808086
0.0555194
0.00761841
0.0567419
0.00636974
0.0579895
0.00457366
0.0592891
0.00228621
0.0606556
-0.000614228
0.0621504
-0.0041885
0.0638386
-0.00843011
0.0658066
-0.0133233
0.0681355
-0.0188412
0.0708826
-0.0249216
0.0740975
-0.0314265
0.0778097
-0.038133
0.0820165
-0.0447394
0.0866952
-0.0508495
0.0917661
-0.0560334
0.0971037
-0.0598892
0.10258
-0.0621209
0.108075
-0.0625793
0.113485
-0.0612767
0.118733
-0.0584185
0.123767
-0.0543581
0.12855
-0.0495023
0.133052
-0.0442528
0.137253
-0.0389582
0.141161
-0.0338457
0.144768
-0.029016
0.14807
-0.0245802
0.151076
-0.0205987
0.153802
-0.0170759
0.156269
-0.0140006
0.158496
-0.0113254
0.16051
-0.00902429
0.162336
-0.00700898
0.163999
-0.00531339
0.165519
-0.00375773
0.166919
-0.00250286
0.168231
-0.0012212
0.16945
-0.00030609
0.170634
0.000949628
0.171781
0.00184879
0.17288
0.00360437
0.17391
0.00482675
0.174839
0.00722806
0.17565
0.00862587
0.176329
0.0113706
0.176885
0.0126785
0.177317
0.0156516
0.177651
0.0167687
0.177884
0.0201688
0.178048
0.0210221
0.178134
0.0250664
0.178173
0.0257403
0.178153
0.0305234
0.178101
0.0312236
0.177999
0.036986
0.177877
0.0377705
0.177706
0.0448648
0.17752
0.0459528
0.054597
0.0825615
0.00701653
0.0837862
0.0063937
0.0851348
0.00502115
0.0865283
0.00318019
0.0879458
0.000868679
0.0894087
-0.00207714
0.0909149
-0.00569468
0.0924892
-0.0100045
0.0941777
-0.0150118
0.0960221
-0.0206856
0.0980503
-0.0269499
0.10029
-0.0336659
0.102776
-0.0406193
0.105531
-0.0474945
0.108541
-0.0538591
0.111753
-0.0592458
0.115087
-0.0632233
0.118473
-0.0655066
0.121869
-0.0659758
0.125257
-0.0646649
0.128632
-0.0617935
0.131994
-0.0577194
0.135332
-0.0528404
0.138617
-0.0475376
0.141808
-0.0421497
0.14488
-0.0369173
0.147805
-0.0319413
0.150541
-0.0273164
0.153071
-0.0231279
0.155386
-0.0193914
0.157489
-0.0161038
0.159389
-0.0132251
0.161102
-0.0107377
0.162649
-0.00855563
0.164048
-0.00671212
0.16532
-0.00502964
0.166481
-0.00366425
0.167552
-0.00229192
0.168569
-0.00132319
0.169517
1.15977e-06
0.170472
0.000894507
0.171401
0.00267457
0.172303
0.00392563
0.173148
0.00638235
0.173923
0.00785099
0.174607
0.0106865
0.175206
0.01208
0.17571
0.0151478
0.176139
0.0163395
0.176484
0.019824
0.176773
0.020733
0.176993
0.0248461
0.177175
0.0255586
0.177302
0.0303958
0.177404
0.0311215
0.177459
0.0369312
0.177498
0.0377313
0.177491
0.0448717
0.177474
0.0459699
0.0546651
0.111213
0.00666634
0.111858
0.00574844
0.112717
0.00416245
0.113657
0.00224002
0.114681
-0.000155333
0.115768
-0.00316455
0.116879
-0.00680547
0.11799
-0.0111158
0.119108
-0.0161294
0.120236
-0.0218132
0.12137
-0.0280842
0.122507
-0.0348026
0.123636
-0.0417488
0.124754
-0.0486118
0.125895
-0.0550002
0.127088
-0.0604395
0.128322
-0.0644566
0.129601
-0.0667854
0.130965
-0.0673401
0.13247
-0.0661702
0.134168
-0.0634916
0.13609
-0.0596413
0.138233
-0.0549831
0.140555
-0.0498596
0.142987
-0.0445821
0.145463
-0.0393929
0.147935
-0.034413
0.150328
-0.0297094
0.152593
-0.0253936
0.154704
-0.0215023
0.156645
-0.0180449
0.158412
-0.0149915
0.16001
-0.0123356
0.161451
-0.00999667
0.162751
-0.0080121
0.163926
-0.00620483
0.164991
-0.00472941
0.165963
-0.00326428
0.16686
-0.00222009
0.167726
-0.000864351
0.168559
6.13326e-05
0.169398
0.00183527
0.170233
0.00309127
0.171043
0.00557167
0.171819
0.0070748
0.172539
0.00996717
0.173205
0.0114142
0.173802
0.0145508
0.174347
0.0157946
0.174824
0.0193469
0.175259
0.0202972
0.175636
0.0244694
0.175984
0.025211
0.176283
0.0300964
0.176564
0.0308405
0.176802
0.0366931
0.177031
0.0375029
0.177217
0.0446857
0.177398
0.0457887
0.0545315
0.139603
0.00737923
0.139298
0.0060538
0.139195
0.00426488
0.139185
0.0022506
0.139334
-0.000304251
0.139566
-0.00339694
0.139814
-0.00705321
0.140033
-0.0113352
0.140196
-0.0162921
0.140266
-0.0218839
0.140213
-0.0280307
0.140011
-0.0346006
0.139637
-0.0413752
0.139079
-0.0480534
0.138344
-0.0542652
0.13751
-0.0596059
0.136706
-0.0636527
0.136036
-0.0661152
0.135613
-0.0669172
0.135543
-0.0660996
0.1359
-0.0638494
0.136719
-0.0604597
0.137978
-0.0562423
0.139613
-0.0514951
0.141526
-0.0464949
0.143613
-0.0414794
0.145799
-0.0365991
0.148003
-0.031914
0.150147
-0.0275369
0.152182
-0.0235376
0.154083
-0.0199457
0.155834
-0.0167428
0.157434
-0.013935
0.158885
-0.0114481
0.1602
-0.00932718
0.161391
-0.00739532
0.16247
-0.00580853
0.163447
-0.00424161
0.164345
-0.00311788
0.165191
-0.00171045
0.166021
-0.00076899
0.16684
0.00101666
0.167676
0.00225543
0.168506
0.00474102
0.169328
0.00625276
0.170119
0.00917674
0.170881
0.0106517
0.171597
0.0138354
0.17228
0.0151113
0.172911
0.0187158
0.173515
0.0196932
0.17407
0.0239142
0.174606
0.024675
0.175101
0.0296014
0.175586
0.0303563
0.176033
0.0362456
0.176477
0.0370588
0.176884
0.0442786
0.177292
0.0453806
0.0541659
0.164108
0.00897428
0.162925
0.00723614
0.161738
0.00545185
0.160603
0.00338584
0.159779
0.000519439
0.158971
-0.00258823
0.158125
-0.00620745
0.157211
-0.0104214
0.156188
-0.0152696
0.155001
-0.0206962
0.153602
-0.026632
0.151957
-0.0329555
0.150042
-0.0394603
0.147856
-0.0458677
0.145439
-0.0518478
0.142874
-0.0570408
0.140362
-0.0611408
0.13812
-0.0638734
0.136327
-0.0651239
0.13511
-0.0648824
0.134538
-0.0632778
0.134621
-0.0605429
0.135309
-0.0569304
0.136511
-0.0526966
0.138106
-0.0480896
0.139965
-0.0433388
0.141983
-0.0386169
0.144095
-0.0340258
0.146208
-0.0296506
0.148254
-0.0255834
0.150191
-0.0218823
0.151997
-0.0185488
0.153665
-0.015603
0.155193
-0.0129768
0.156591
-0.0107251
0.157867
-0.00867056
0.159031
-0.00697313
0.160089
-0.00529924
0.161062
-0.00409156
0.161971
-0.00261933
0.162863
-0.00166047
0.163733
0.000146394
0.164633
0.00135504
0.165538
0.00383659
0.166451
0.00534002
0.167349
0.00827794
0.16824
0.00976132
0.1691
0.012975
0.169946
0.0142657
0.170753
0.0179084
0.171547
0.0188995
0.172302
0.0231587
0.173049
0.0239285
0.173763
0.0288875
0.174474
0.0296452
0.175156
0.0355638
0.175841
0.0363737
0.176496
0.0436233
0.177159
0.0447181
0.0535385
0.179892
0.0106227
0.178265
0.00886373
0.176491
0.00722577
0.174801
0.00507535
0.173061
0.00226012
0.171406
-0.000933238
0.169618
-0.00441977
0.167708
-0.00851166
0.165625
-0.0131862
0.163306
-0.018377
0.16071
-0.0240364
0.157808
-0.0300529
0.154589
-0.0362417
0.151079
-0.0423583
0.147354
-0.0481228
0.143544
-0.0532308
0.139844
-0.0574403
0.136552
-0.0605816
0.133881
-0.0624524
0.131953
-0.0629544
0.130819
-0.0621446
0.130468
-0.0601912
0.130824
-0.0572864
0.131776
-0.0536492
0.133195
-0.0495079
0.134942
-0.0450858
0.136898
-0.0405736
0.138974
-0.0361017
0.141101
-0.0317777
0.143206
-0.0276878
0.145229
-0.0239052
0.147139
-0.0204588
0.148922
-0.0173866
0.150574
-0.0146283
0.1521
-0.012251
0.153505
-0.0100762
0.154803
-0.00827083
0.155992
-0.0064887
0.157094
-0.0051928
0.158126
-0.00365135
0.159126
-0.00266116
0.160114
-0.000840849
0.161122
0.000346225
0.162149
0.00281026
0.163194
0.00429488
0.164237
0.0072351
0.165286
0.00871228
0.166318
0.0119425
0.16735
0.0132335
0.168357
0.0169019
0.169362
0.0178943
0.17034
0.0221811
0.171318
0.0229498
0.172274
0.0279323
0.173234
0.0286845
0.174174
0.0346237
0.175125
0.0354229
0.176055
0.0426936
0.176998
0.0437749
0.0526208
0.184365
0.0115946
0.182752
0.0104771
0.1811
0.0088775
0.179366
0.00680908
0.177453
0.00417292
0.175512
0.00100837
0.173383
-0.00229092
0.170992
-0.00612057
0.168303
-0.0104973
0.165297
-0.0153708
0.16196
-0.0207001
0.158293
-0.026385
0.154324
-0.0322731
0.150127
-0.0381615
0.145819
-0.0438149
0.141561
-0.0489728
0.137513
-0.0533924
0.133824
-0.056892
0.130669
-0.059298
0.128237
-0.0605224
0.12665
-0.0605578
0.125898
-0.0594384
0.125905
-0.0572934
0.126564
-0.0543081
0.127748
-0.050692
0.129323
-0.0466611
0.131168
-0.0424186
0.133187
-0.0381202
0.135293
-0.0338838
0.137413
-0.029808
0.139495
-0.0259877
0.141499
-0.0224626
0.143402
-0.0192896
0.14519
-0.0164163
0.146865
-0.0139253
0.148426
-0.0116377
0.149887
-0.00973135
0.151242
-0.00784395
0.15251
-0.00646093
0.153704
-0.00484497
0.154862
-0.00381945
0.156012
-0.00199071
0.157174
-0.00081623
0.158358
0.00162691
0.159571
0.00308146
0.16079
0.00601597
0.162027
0.00747536
0.163258
0.0107115
0.164501
0.0119903
0.16573
0.0156736
0.166968
0.0166559
0.168189
0.0209597
0.169421
0.021718
0.17064
0.0267138
0.171872
0.0274521
0.173094
0.0334019
0.174334
0.034183
0.175563
0.0414644
0.176812
0.042526
0.0513853
0.20174
0.012452
-0.202597
0.201482
0.0107347
0.201229
0.00913102
0.20104
0.00699822
0.200826
0.00438673
0.20037
0.00146399
0.200004
-0.00192508
0.199559
-0.0056754
0.198922
-0.00986022
0.198047
-0.0144957
0.19686
-0.0195127
0.19529
-0.0248151
0.193289
-0.0302726
0.190841
-0.0357131
0.187962
-0.0409357
0.184713
-0.0457236
0.181187
-0.0498664
0.177491
-0.0531967
0.173758
-0.0555651
0.170117
-0.0568812
0.166688
-0.0571288
0.163583
-0.0563336
0.160881
-0.0545916
0.158628
-0.0520546
0.156835
-0.0488991
0.155484
-0.0453105
0.154534
-0.0414687
0.153932
-0.0375176
0.153624
-0.0335759
0.153556
-0.0297404
0.153675
-0.0261064
0.153927
-0.0227141
0.154264
-0.0196274
0.15465
-0.0168021
0.155054
-0.0143293
0.155455
-0.0120381
0.155834
-0.010111
0.15618
-0.00818938
0.156481
-0.00676209
0.156737
-0.00510082
0.156954
-0.00403638
0.157146
-0.00218299
0.157337
-0.0010071
0.157518
0.00144594
0.157722
0.00287691
0.157938
0.00580031
0.158173
0.00723989
0.158413
0.0104715
0.158661
0.0117429
0.158902
0.0154324
0.159143
0.0164149
0.159369
0.0207341
0.159593
0.0214933
0.1598
0.0265071
0.160007
0.027245
0.160199
0.03321
0.160397
0.0339856
0.160581
0.0412798
0.160779
0.0423284
0.0511957
0.213801
0.0125435
-0.213893
0.213786
0.0107495
0.213967
0.00895036
0.214079
0.00688666
0.214008
0.00445691
0.213834
0.00163805
0.213499
-0.00159006
0.212986
-0.00516236
0.212223
-0.0090971
0.211145
-0.0134175
0.209704
-0.0180715
0.207859
-0.02297
0.205585
-0.0279984
0.202882
-0.0330105
0.199781
-0.0378348
0.196345
-0.0422874
0.192663
-0.0461846
0.188838
-0.0493722
0.184993