/*--------------------------------*- C++ -*----------------------------------*\
| =========                 |                                                 |
| \\      /  F ield         | OpenFOAM: The Open Source CFD Toolbox           |
|  \\    /   O peration     | Version:  2512                                  |
|   \\  /    A nd           | Website:  www.openfoam.com                      |
|    \\/     M anipulation  |                                                 |
\*---------------------------------------------------------------------------*/
FoamFile
{
    version     2.0;
    format      ascii;
    arch        "LSB;label=32;scalar=64";
    class       surfaceScalarField;
    location    "87";
    object      phi;
}
// * * * * * * * * * * * * * * * * * * * * * * * * * * * * * * * * * * * * * //

dimensions      [0 3 -1 0 0 0 0];

oriented        oriented;

internalField   nonuniform List<scalar> 
26232
(
-3.97184e-05
0.000929617
-0.000889899
8.04533e-05
0.0017372
-0.00185737
0.000567341
0.00168007
-0.00216696
0.00161346
0.000818512
-0.00186463
0.00340438
-0.000826595
-0.000964332
0.0061198
-0.00325421
0.000538796
0.00992848
-0.00646936
0.00266067
0.014977
-0.0104693
0.00542076
0.021375
-0.01523
0.00883202
0.0291784
-0.0206968
0.0128933
0.0383753
-0.02678
0.0175832
0.0488759
-0.0333567
0.0228561
0.060512
-0.0402783
0.0286423
0.0730432
-0.0473816
0.0348503
0.0861727
-0.0545016
0.0413721
0.0995677
-0.0614849
0.0480899
0.112885
-0.0682005
0.0548833
0.125796
-0.0745493
0.0616387
0.138014
-0.0804661
0.068248
0.149307
-0.0859379
0.0746445
0.159532
-0.0909451
0.0807202
0.168573
-0.0956431
0.0866023
0.176362
-0.0997553
0.0919661
-0.104202
0.0979806
0.182583
3.57751e-05
0.000893842
0.000382591
0.00139038
0.00126417
0.000798492
0.0028936
-0.000810926
0.00547522
-0.00340822
0.00919686
-0.00697585
0.0142148
-0.0114873
0.0206335
-0.016888
0.0284844
-0.0230809
0.0377094
-0.0299218
0.048154
-0.0372247
0.0595735
-0.0447762
0.0716507
-0.0523556
0.0840248
-0.0597557
0.0963249
-0.0668017
0.108205
-0.0733651
0.119376
-0.0793713
0.129628
-0.0848013
0.138848
-0.0896866
0.147013
-0.0941021
0.154206
-0.0981384
0.160506
-0.101943
0.166223
-0.105473
-0.109309
0.17133
0.000125897
0.000767945
0.000744941
0.000771338
0.00209533
-0.000551895
0.00440418
-0.00311977
0.00787929
-0.00688333
0.0126896
-0.0117862
0.0189386
-0.0177363
0.0266373
-0.0245866
0.0356851
-0.0321287
0.0458663
-0.0401029
0.0568653
-0.0482237
0.0682993
-0.0562102
0.0797617
-0.063818
0.0908687
-0.0708626
0.101301
-0.0772341
0.110836
-0.0828997
0.119361
-0.0878962
0.126875
-0.0923154
0.13347
-0.0962823
0.139305
-0.0999363
0.144565
-0.103399
0.149425
-0.106803
0.15407
-0.110118
-0.113762
0.158523
0.000228812
0.000539133
0.00115833
-0.000158177
0.00303641
-0.00242998
0.00609065
-0.00617401
0.0105067
-0.0112994
0.0163948
-0.0176743
0.023755
-0.0250965
0.0324533
-0.033285
0.0422212
-0.0418966
0.0526815
-0.0505633
0.063397
-0.0589392
0.0739303
-0.0667436
0.0839021
-0.0737897
0.0930353
-0.0799958
0.10118
-0.0853787
0.108313
-0.0900332
0.114522
-0.0941043
0.119963
-0.0977564
0.124827
-0.101147
0.1293
-0.104409
0.133537
-0.107636
0.137638
-0.110904
0.141711
-0.114191
-0.117759
0.145709
0.000344459
0.000194674
0.00161721
-0.00143093
0.00406475
-0.00487752
0.00789259
-0.0100018
0.0132271
-0.0166339
0.020071
-0.0245181
0.0282711
-0.0332966
0.037518
-0.0425319
0.0473818
-0.0517603
0.0573779
-0.0605594
0.0670449
-0.0686061
0.0760118
-0.0757105
0.0840431
-0.081821
0.0910518
-0.0870045
0.0970833
-0.0914102
0.102279
-0.0952285
0.106827
-0.0986523
0.110921
-0.101851
0.114729
-0.104955
0.118373
-0.108054
0.121939
-0.111202
0.125467
-0.114432
0.129007
-0.117731
-0.121253
0.132501
0.000473646
-0.000278972
0.00211595
-0.00307324
0.00515211
-0.00791368
0.00973244
-0.0145822
0.0158781
-0.0227796
0.0234362
-0.0320762
0.0320721
-0.0419325
0.0413125
-0.0517723
0.0506285
-0.0610763
0.0595315
-0.0694624
0.0676524
-0.076727
0.0747845
-0.0828426
0.0808859
-0.0879225
0.0860474
-0.092166
0.0904415
-0.0958043
0.0942692
-0.0990561
0.0977177
-0.102101
0.100937
-0.10507
0.104032
-0.108049
0.107068
-0.11109
0.110086
-0.114219
0.113103
-0.117449
0.116142
-0.120771
-0.124267
0.119156
0.000615725
-0.000894697
0.00264244
-0.00509995
0.00625421
-0.0115254
0.0115043
-0.0198323
0.0182625
-0.0295377
0.0261907
-0.0400044
0.0347843
-0.0505262
0.0434698
-0.0604578
0.0517215
-0.0693281
0.0591556
-0.0768965
0.0655748
-0.0831461
0.0709611
-0.088229
0.0754314
-0.0923927
0.079175
-0.0959096
0.0823974
-0.0990267
0.0852798
-0.101939
0.0879608
-0.104782
0.0905343
-0.107643
0.093058
-0.110573
0.0955644
-0.113597
0.0980703
-0.116725
0.100583
-0.119961
0.103111
-0.1233
-0.126774
0.105618
0.00076703
-0.00166173
0.00317435
-0.00750727
0.00730715
-0.0156582
0.0130777
-0.0256028
0.0201716
-0.0366316
0.0280712
-0.047904
0.0361597
-0.0586146
0.0438601
-0.0681582
0.0507509
-0.0762188
0.056619
-0.0827646
0.0614487
-0.0879758
0.0653668
-0.0921471
0.0685716
-0.0955974
0.0712716
-0.0986097
0.073646
-0.101401
0.0758281
-0.104121
0.0779063
-0.10686
0.0799336
-0.109671
0.0819394
-0.112579
0.0839387
-0.115596
0.0859385
-0.118725
0.0879416
-0.121964
0.0899518
-0.12531
-0.128766
0.0919443
0.000920498
-0.00258222
0.00367971
-0.0102665
0.00823323
-0.0202118
0.0143166
-0.0316862
0.0214262
-0.0437412
0.0289106
-0.0553884
0.0361286
-0.0658326
0.0425938
-0.0746235
0.0480482
-0.0816733
0.0524546
-0.087171
0.055935
-0.0914562
0.0586907
-0.0949028
0.0609347
-0.0978414
0.0628485
-0.100523
0.0645654
-0.103118
0.0661727
-0.105728
0.0677219
-0.108409
0.069241
-0.11119
0.0707443
-0.114082
0.0722391
-0.117091
0.0737284
-0.120214
0.0752138
-0.12345
0.0766954
-0.126792
-0.13023
0.0781591
0.00106635
-0.00364857
0.00412095
-0.0133211
0.00895345
-0.0250443
0.0151059
-0.0378386
0.0219142
-0.0505496
0.0286681
-0.0621423
0.03479
-0.0719545
0.0399434
-0.0797769
0.0440416
-0.0857714
0.0471844
-0.0903138
0.0495699
-0.0938416
0.0514159
-0.0967488
0.0529107
-0.0993362
0.0541929
-0.101806
0.0553527
-0.104278
0.0564428
-0.106818
0.0574915
-0.109458
0.0585135
-0.112212
0.0595161
-0.115085
0.0605031
-0.118078
0.061476
-0.121187
0.0624354
-0.124409
0.06338
-0.127736
-0.131153
0.0643037
0.00119397
-0.00484254
0.00446194
-0.0165891
0.00940253
-0.0299849
0.0153734
-0.0438095
0.0216075
-0.0567838
0.0274177
-0.0679524
0.0323532
-0.07689
0.0362429
-0.0836667
0.0391413
-0.0886698
0.0412318
-0.0924044
0.0427361
-0.0953459
0.0438527
-0.0978654
0.0447303
-0.100214
0.0454664
-0.102542
0.0461176
-0.104929
0.0467145
-0.107415
0.0472724
-0.110016
0.0477993
-0.112739
0.0482996
-0.115585
0.0487755
-0.118554
0.0492279
-0.12164
0.0496567
-0.124838
0.050059
-0.128139
-0.131528
0.0504332
0.00129614
-0.00613868
0.00467665
-0.0199696
0.00954116
-0.0348494
0.0150996
-0.049368
0.0205556
-0.0622397
0.025313
-0.0727098
0.0290752
-0.0806522
0.0318176
-0.0864091
0.0336902
-0.0905424
0.0349119
-0.0936261
0.0356932
-0.0961272
0.0361976
-0.0983698
0.0365343
-0.100551
0.0367675
-0.102775
0.0369317
-0.105093
0.037044
-0.107527
0.037113
-0.110085
0.0371434
-0.112769
0.0371383
-0.11558
0.0370997
-0.118515
0.0370287
-0.121569
0.0369248
-0.124734
0.0367853
-0.127999
0.0366111
-0.131354
-0.000278264
-0.000825309
0.00110357
-0.000952638
-0.0015561
0.00223047
-0.00192833
-0.00163922
0.00261491
-0.00313938
-0.0012636
0.00247465
-0.00453878
-0.000584394
0.0019838
-0.0060927
0.000285739
0.00126818
-0.0077753
0.00127746
0.000405147
-0.00956596
0.00235987
-0.000569215
-0.0114446
0.0035322
-0.00165352
-0.0133915
0.00481271
-0.00286584
-0.0153849
0.00622885
-0.00423543
-0.0174006
0.00780926
-0.00579355
-0.0194106
0.00957857
-0.0075686
-0.0213818
0.0115543
-0.00958304
-0.0232755
0.0137449
-0.0118513
-0.0250461
0.0161486
-0.014378
-0.0266419
0.0187516
-0.0171559
-0.0280048
0.0215268
-0.0201639
-0.029073
0.0244324
-0.0233642
-0.0297832
0.0274117
-0.0267015
-0.0300742
0.0303945
-0.0301035
-0.0298916
0.0332987
-0.0334813
-0.0291996
0.036041
-0.036733
0.0385736
-0.0280131
-0.0397601
-0.000260968
-0.000564341
-0.000886503
-0.000930565
-0.00178021
-0.000745511
-0.00287446
-0.000169357
-0.00412137
0.000662521
-0.00548622
0.00165058
-0.00694159
0.00273283
-0.00846287
0.00388116
-0.0100248
0.00509411
-0.0115996
0.00638749
-0.0131559
0.00778517
-0.0146582
0.0093116
-0.0160662
0.0109866
-0.0173341
0.0128222
-0.01841
0.0148208
-0.0192353
0.016974
-0.0197451
0.0192615
-0.0198685
0.0216503
-0.0195301
0.0240939
-0.0186514
0.026533
-0.0171543
0.0288974
-0.0149655
0.0311099
-0.0120252
0.0331007
0.0348634
-0.00831504
-0.000229389
-0.000334952
-0.000773772
-0.000386182
-0.0015395
2.02221e-05
-0.0024585
0.000749635
-0.00348145
0.00168547
-0.00457142
0.00274056
-0.00569783
0.00385923
-0.00683144
0.00501476
-0.00794082
0.00620349
-0.00899029
0.00743696
-0.00993898
0.00873387
-0.0107406
0.0101132
-0.0113432
0.0115892
-0.0116894
0.0131684
-0.0117161
0.0148475
-0.0113546
0.0166124
-0.0105305
0.0184373
-0.00916434
0.0202841
-0.00717401
0.0221036
-0.00447365
0.0238326
-0.000976134
0.0253999
0.0034026
0.0267311
0.00874859
0.0277547
0.0284776
0.0151345
-0.00019234
-0.000142612
-0.000642443
6.39215e-05
-0.0012602
0.000637974
-0.00197656
0.001466
-0.00273954
0.00244846
-0.00350861
0.00350962
-0.00424889
0.00459952
-0.00492621
0.00569208
-0.00550335
0.00678063
-0.00593786
0.00787146
-0.00618108
0.00897709
-0.00617812
0.0101102
-0.00586813
0.0112792
-0.00518471
0.012485
-0.00405689
0.0137197
-0.00240917
0.0149647
-0.000163067
0.0161912
0.00276194
0.0173591
0.0064498
0.0184157
0.0109832
0.0192993
0.0164455
0.0199376
0.0229218
0.0202549
0.030493
0.0201835
0.0196241
0.0393465
-0.000158564
1.59517e-05
-0.00052023
0.000425587
-0.000996175
0.00111392
-0.00151459
0.00198441
-0.00201915
0.00295302
-0.00246436
0.00395483
-0.00281027
0.00494543
-0.00301771
0.00589952
-0.0030445
0.00680743
-0.00284316
0.00767012
-0.00235978
0.00849371
-0.00153404
0.00928449
-0.000299794
0.010045
0.00141377
0.0107714
0.0036823
0.0114511
0.00658376
0.0120632
0.0101982
0.0125769
0.0146061
0.0129511
0.0198867
0.0131352
0.0261171
0.0130688
0.0333717
0.012683
0.0417346
0.0118919
0.0512387
0.0106795
0.00860407
0.0622587
-0.000134916
0.000150868
-0.000428949
0.00071962
-0.000790144
0.00147511
-0.00114147
0.00233573
-0.00142064
0.00323219
-0.0015761
0.00411029
-0.00156219
0.00493152
-0.00133465
0.00567197
-0.000846972
0.00631975
-4.79779e-05
0.00687113
0.00111946
0.00732627
0.00271864
0.00768531
0.00481843
0.0079452
0.00749258
0.00809723
0.0108182
0.00812555
0.0148748
0.00800659
0.0197433
0.00770837
0.0255041
0.0071903
0.0322381
0.00640117
0.0400235
0.00528352
0.0489283
0.00377815
0.0590594
0.0017608
0.0703432
-0.000604244
-0.00447171
0.0834189
-0.0001247
0.000275568
-0.000378893
0.000973813
-0.000662245
0.00175847
-0.000890013
0.0025635
-0.000992469
0.00333465
-0.000910927
0.00402875
-0.000593113
0.00461371
1.11392e-05
0.00506772
0.000953576
0.00537732
0.00229005
0.00553465
0.00408196
0.00553436
0.00639674
0.00537054
0.00930768
0.00503426
0.0128931
0.0045118
0.0172365
0.00378217
0.0224238
0.00281933
0.0285432
0.00158889
0.0356801
5.3423e-05
0.0439289
-0.0018476
0.0533744
-0.00416203
0.0640782
-0.00692562
0.0761974
-0.0103584
0.0894982
-0.013905
-0.0197894
0.104816
-0.000126438
0.000402006
-0.000364879
0.00121225
-0.000601808
0.00199539
-0.00074238
0.00270408
-0.000707644
0.00329991
-0.000429913
0.00375102
0.000152078
0.00403171
0.00109769
0.00412211
0.00246804
0.00400697
0.00432869
0.003674
0.00675144
0.00311161
0.00981494
0.00230704
0.0136049
0.0012443
0.0182102
-9.35266e-05
0.0237315
-0.00173911
0.030265
-0.00371417
0.0379098
-0.00605588
0.0467654
-0.00880225
0.0569125
-0.0119946
0.0684351
-0.0156846
0.0813616
-0.0198522
0.0958183
-0.0248151
0.111489
-0.0295752
-0.0373308
0.12903
-0.000133743
0.000535749
-0.000365784
0.00144429
-0.000565963
0.00219557
-0.000626747
0.00276486
-0.000456988
0.00313015
2.3969e-05
0.00327006
0.000891568
0.00316412
0.002221
0.00279267
0.00409077
0.0021372
0.00658513
0.00117964
0.00979563
-9.88951e-05
0.01382
-0.0017173
0.0187616
-0.00369729
0.0247289
-0.00606083
0.0318218
-0.00883207
0.0401408
-0.0120332
0.0497711
-0.0156861
0.060779
-0.0198102
0.073202
-0.0244176
0.0870469
-0.0295295
0.102264
-0.0350692
0.11879
-0.0413411
0.136398
-0.0471834
-0.0559782
0.155045
-0.000136759
0.000672508
-0.000349184
0.00165672
-0.000488688
0.00233508
-0.000431959
0.00270813
-7.07423e-05
0.00276894
0.000694283
0.00250504
0.00196061
0.00189779
0.00382744
0.000925836
0.00639881
-0.000434171
0.00978367
-0.00220522
0.0140949
-0.00441014
0.0194462
-0.00706854
0.0259452
-0.0101963
0.0336879
-0.0138035
0.0427492
-0.0178934
0.0531769
-0.0224609
0.0649826
-0.0274918
0.0781356
-0.0329632
0.0925575
-0.0388395
0.108117
-0.0450886
0.124644
-0.0515964
0.141828
-0.0585252
0.159605
-0.0649603
-0.0734419
0.177069
-0.000125256
0.000797764
-0.000281113
0.00181258
-0.000300311
0.00235428
-4.01105e-05
0.00244793
0.000628961
0.00209987
0.00183265
0.00130135
0.00369574
3.47027e-05
0.00634516
-0.00172358
0.00990918
-0.00399819
0.0145139
-0.00680993
0.0202757
-0.0101719
0.0272929
-0.0140858
0.0356356
-0.018539
0.0453356
-0.0235035
0.0563782
-0.0289361
0.0686963
-0.0347789
0.0821672
-0.0409626
0.0966142
-0.0474103
0.111809
-0.0540347
0.127487
-0.0607662
0.143366
-0.0674759
0.159076
-0.0742348
0.174593
-0.0804773
-0.0875332
0.188684
-9.21345e-05
-0.000136929
5.03902e-05
0.000633692
0.00176923
0.00360937
0.00630474
0.0100019
0.0148358
0.0209192
0.0283304
0.0371007
0.047204
0.0585508
0.0709869
0.0842978
0.0982185
0.112447
0.12666
0.140539
0.153783
0.166151
0.177639
0.188087
-0.0245174
0.0542806
-0.0577763
-0.0200004
0.0567207
-0.0612377
-0.0144625
0.0573485
-0.0628865
-0.007858
0.0555993
-0.0622038
-0.000240156
0.050953
-0.0585709
0.00826218
0.0429652
-0.0514675
0.0174677
0.0313088
-0.0405143
0.0270931
0.015821
-0.0254464
0.0369012
-0.00327146
-0.00653665
0.0467356
-0.0256764
0.015842
0.0563915
-0.0506115
0.0409556
0.0656891
-0.076567
0.0672694
0.0743255
-0.101276
0.0926396
0.081759
-0.122191
0.114758
0.0873578
-0.137371
0.131772
0.0904681
-0.146247
0.143137
0.0903297
-0.150074
0.150212
0.0865175
-0.15196
0.155772
0.0801184
-0.154925
0.161324
0.0742688
-0.157815
0.163665
0.0727197
-0.153267
0.154816
0.0772797
-0.131752
0.127192
0.08704
-0.0891341
0.0793738
0.0999177
-0.0301107
0.0172331
0.113568
0.0346918
-0.0483426
0.125972
0.0933393
-0.105743
0.13545
0.137646
-0.147124
0.141488
0.165848
-0.171886
0.144608
0.179952
-0.183072
0.144784
0.185756
-0.185932
0.141074
0.193143
-0.189433
0.133809
0.207759
-0.200495
0.126193
0.217794
-0.210178
0.122494
0.198333
-0.194634
0.124674
0.134293
-0.136474
0.131535
0.0371403
-0.0440011
0.140005
-0.0625241
0.0540541
0.147535
-0.141814
0.134284
0.152968
-0.188146
0.182713
0.155108
-0.210299
0.208158
0.152247
-0.220459
0.22332
0.144456
-0.236662
0.244453
0.135275
-0.240201
0.249382
0.129934
-0.2104
0.215741
0.13103
-0.127567
0.126471
0.137583
-0.0128659
0.0063123
0.145853
0.0888374
-0.0971073
0.150923
0.176
-0.181069
0.149511
0.222345
-0.220934
0.142919
0.282775
-0.276183
0.136525
0.272745
-0.26635
0.13558
0.229247
-0.228302
0.140036
0.106443
-0.110899
0.145168
-0.0385734
0.0334413
0.145687
-0.117303
0.116783
0.14219
-0.281694
0.285191
0.139345
-0.266026
0.268872
0.138535
-0.313998
0.314808
0.137258
-0.187332
0.188608
0.0755859
-0.0732355
-0.00316033
0.0491259
0.00269664
0.0508637
0.00937349
0.0506716
0.0168128
0.04816
0.024874
0.0428918
0.0333675
0.0344716
0.0420626
0.0226137
0.0507624
0.00712119
0.0592476
-0.0117566
0.0674316
-0.0338604
0.0752188
-0.0583986
0.0824608
-0.0838091
0.0888405
-0.107656
0.0938658
-0.127217
0.0970601
-0.140565
0.0980995
-0.147287
0.0965601
-0.148534
0.0917385
-0.147138
0.0836792
-0.146866
0.0746675
-0.148803
0.0689188
-0.147519
0.0698892
-0.132723
0.0778883
-0.0971332
0.090826
-0.0430484
0.105806
0.0197117
0.120142
0.0790038
0.131783
0.126004
0.139995
0.157637
0.144961
0.174985
0.146396
0.184322
0.143626
0.195912
0.137516
0.21387
0.131257
0.224053
0.128434
0.201156
0.130493
0.132234
0.136423
0.0312104
0.143449
-0.0695499
0.14929
-0.147656
0.153107
-0.191963
0.154163
-0.211355
0.150792
-0.217088
0.142678
-0.228548
0.133087
-0.23061
0.127483
-0.204796
0.128925
-0.12901
0.136348
-0.0202882
0.145531
0.0796537
0.151141
0.17039
0.150097
0.223388
0.143729
0.289144
0.137328
0.279145
0.136228
0.230347
0.140474
0.102197
0.145734
-0.0438341
0.146241
-0.117809
0.142612
-0.278065
0.139675
-0.26309
0.138723
-0.313046
0.137348
-0.185957
0.0780096
0.0212795
0.0429809
0.0280541
0.0440892
0.0353564
0.0433693
0.0430895
0.040427
0.0510728
0.0349085
0.0590972
0.0264472
0.0669536
0.0147573
0.0744892
-0.000414342
0.0815594
-0.0188268
0.0880833
-0.0403843
0.0939999
-0.0643153
0.0991489
-0.0889581
0.103212
-0.111718
0.10577
-0.129775
0.10649
-0.141285
0.105334
-0.146131
0.102351
-0.145552
0.0969911
-0.141778
0.0884541
-0.138329
0.077653
-0.138002
0.068347
-0.138213
0.065258
-0.129634
0.0705295
-0.102405
0.082604
-0.0551229
0.0983264
0.00398926
0.11422
0.0631102
0.127907
0.112316
0.1383
0.147244
0.14515
0.168135
0.147991
0.18148
0.146474
0.197429
0.141825
0.218519
0.136993
0.228885
0.134896
0.203254
0.136544
0.130586
0.141276
0.026478
0.146742
-0.0750153
0.15089
-0.151805
0.153116
-0.194189
0.15314
-0.211379
0.14942
-0.213368
0.141209
-0.220337
0.131364
-0.220765
0.125483
-0.198915
0.127121
-0.130647
0.135223
-0.0283896
0.145217
0.0696596
0.151385
0.164222
0.150814
0.223959
0.144776
0.295183
0.138399
0.285522
0.137091
0.231655
0.141047
0.0982409
0.14641
-0.0491972
0.146931
-0.11833
0.143134
-0.274267
0.140065
-0.260021
0.139003
-0.311984
0.137586
-0.18454
0.0804803
0.0460896
0.0362378
0.0532856
0.0368932
0.060804
0.0358508
0.0684824
0.0327486
0.0761192
0.0272717
0.0835239
0.0190425
0.0904488
0.00783245
0.0969549
-0.00692052
0.102745
-0.0246172
0.10779
-0.0454285
0.111978
-0.0685033
0.11509
-0.0920708
0.116807
-0.113435
0.116841
-0.12981
0.115111
-0.139554
0.111816
-0.142836
0.107349
-0.141084
0.101622
-0.136051
0.093555
-0.130262
0.0825673
-0.127015
0.071008
-0.126653
0.0639385
-0.122564
0.0654955
-0.103962
0.0756182
-0.0652456
0.0912588
-0.0116514
0.108249
0.0461205
0.123791
0.0967737
0.136304
0.134731
0.145057
0.159383
0.149466
0.177072
0.149493
0.197401
0.146541
0.221472
0.143179
0.232247
0.141624
0.204808
0.142672
0.129539
0.146
0.0231496
0.149824
-0.0788389
0.15232
-0.154301
0.153
-0.194869
0.15202
-0.210399
0.148065
-0.209413
0.139971
-0.212243
0.130056
-0.210851
0.123902
-0.192761
0.125577
-0.132322
0.134163
-0.0369756
0.144873
0.0589503
0.15163
0.157465
0.15165
0.223938
0.146063
0.300769
0.139761
0.291824
0.138187
0.233229
0.14176
0.094668
0.147182
-0.0546193
0.147745
-0.118894
0.14375
-0.270272
0.14051
-0.256782
0.139362
-0.310836
0.137959
-0.183136
0.0829699
0.0692398
0.0292566
0.0765005
0.0296325
0.0839481
0.0284032
0.091397
0.0252998
0.0986232
0.0200455
0.105463
0.0122027
0.111707
0.00158793
0.117365
-0.0125779
0.122149
-0.0294014
0.125936
-0.0492157
0.128511
-0.0710785
0.129583
-0.0931428
0.128891
-0.112742
0.126391
-0.12731
0.122339
-0.135502
0.117162
-0.137659
0.111365
-0.135287
0.105233
-0.129919
0.0980053
-0.123035
0.0881956
-0.117205
0.0761888
-0.114647
0.0660813
-0.112457
0.0633944
-0.101275
0.0704223
-0.0722735
0.0847638
-0.0259929
0.102312
0.0285727
0.11938
0.0797052
0.133839
0.120273
0.144467
0.148755
0.150594
0.170945
0.152421
0.195574
0.151363
0.22253
0.149492
0.234118
0.148393
0.205907
0.148692
0.12924
0.150467
0.0213742
0.152617
-0.0809893
0.153522
-0.155206
0.152731
-0.194077
0.150781
-0.208449
0.146678
-0.20531
0.138889
-0.204454
0.129093
-0.201055
0.122695
-0.186363
0.124247
-0.133874
0.133125
-0.0458534
0.144449
0.0476258
0.151837
0.150078
0.152579
0.223196
0.147577
0.305772
0.141411
0.29799
0.139531
0.235109
0.142608
0.0915907
0.148035
-0.0600456
0.148667
-0.119526
0.144455
-0.26606
0.141005
-0.253332
0.13979
-0.309621
0.138452
-0.181798
0.0854476
0.0902465
0.0224291
0.0972525
0.0226265
0.1044
0.0212554
0.111481
0.0182187
0.11827
0.013257
0.124458
0.00601419
0.1305
-0.00445417
0.135339
-0.0174163
0.139226
-0.0332881
0.141829
-0.0518187
0.142813
-0.0720626
0.141854
-0.0921843
0.138823
-0.10971
0.133949
-0.122437
0.127815
-0.129369
0.121092
-0.130935
0.114301
-0.128496
0.107805
-0.123424
0.101325
-0.116554
0.0933479
-0.109228
0.0826425
-0.103941
0.0712371
-0.101051
0.0646178
-0.0946554
0.0674101
-0.0750657
0.0793143
-0.0378971
0.0965132
0.0113738
0.114589
0.0616293
0.13069
0.104172
0.143099
0.136346
0.151052
0.162991
0.154882
0.191745
0.155891
0.221521
0.155573
0.234437
0.154874
0.206605
0.154371
0.129743
0.15459
0.0211557
0.155048
-0.0814478
0.15444
-0.154597
0.152277
-0.191914
0.149389
-0.205561
0.145194
-0.201114
0.137867
-0.197127
0.128371
-0.191559
0.12178
-0.179773
0.123068
-0.135162
0.132043
-0.054828
0.143885
0.0357839
0.151952
0.14201
0.153555
0.221593
0.14928
0.310047
0.14333
0.30394
0.141113
0.237325
0.143594
0.0891095
0.148951
-0.0654024
0.149675
-0.12025
0.145241
-0.261625
0.141548
-0.249639
0.140277
-0.30835
0.139051
-0.180572
0.0878801
0.110822
0.0164227
0.117109
0.0163395
0.123605
0.0147595
0.130041
0.0117831
0.136228
0.00706923
0.141908
0.000334651
0.147085
-0.00963096
0.151171
-0.0215023
0.154006
-0.0361237
0.155226
-0.0530384
0.154443
-0.0712792
0.151389
-0.0891304
0.146133
-0.104454
0.139181
-0.115484
0.131352
-0.12154
0.123472
-0.123056
0.116068
-0.121092
0.109387
-0.116743
0.103413
-0.11058
0.0971849
-0.103
0.0888593
-0.0956156
0.0782223
-0.0904141
0.0690807
-0.0855138
0.0672622
-0.0732472
0.0753373
-0.0459723
0.0909774
-0.00426635
0.1093
0.0433067
0.126636
0.0868359
0.140677
0.122304
0.150513
0.153156
0.156495
0.185763
0.159688
0.218327
0.160977
0.233148
0.160762
0.206819
0.159512
0.130993
0.158214
0.0224543
0.157036
-0.0802702
0.155002
-0.152563
0.151598
-0.18851
0.147816
-0.201779
0.143551
-0.19685
0.136809
-0.190385
0.127776
-0.182526
0.121054
-0.173051
0.12196
-0.136068
0.130845
-0.0637133
0.143109
0.02352
0.151912
0.133208
0.154513
0.218992
0.151113
0.313447
0.145471
0.309582
0.142916
0.239881
0.144705
0.0873203
0.149911
-0.070608
0.150747
-0.121086
0.146098
-0.256977
0.142135
-0.245676
0.140812
-0.307027
0.139741
-0.179502
0.0902313
0.133378
0.0120749
0.138261
0.0114564
0.14345
0.00957009
0.148638
0.00659534
0.153489
0.00221791
0.158466
-0.00464201
0.162194
-0.013359
0.164937
-0.0242456
0.166229
-0.037415
0.16566
-0.0524695
0.162866
-0.0684855
0.157716
-0.0839802
0.150494
-0.0972327
0.14192
-0.10691
0.132926
-0.112546
0.124354
-0.114483
0.116694
-0.113433
0.110068
-0.110117
0.104454
-0.104966
0.0994586
-0.0980045
0.093615
-0.089772
0.0853367
-0.0821358
0.0758861
-0.0760632
0.0703322
-0.0676933
0.0736297
-0.0492698
0.0859764
-0.016613
0.103474
0.0258096
0.121465
0.068844
0.13694
0.10683
0.148671
0.141425
0.15688
0.177554
0.162316
0.212891
0.16526
0.230204
0.165598
0.206482
0.163835
0.132756
0.161258
0.0250317
0.158505
-0.0775173
0.155136
-0.149194
0.150641
-0.184015
0.146024
-0.197161
0.141684
-0.192509
0.135613
-0.184314
0.127189
-0.174103
0.120399
-0.166261
0.12083
-0.136499
0.129455
-0.0723377
0.142048
0.0109263
0.151642
0.123614
0.155373
0.215261
0.152995
0.315826
0.147769
0.314807
0.144903
0.242747
0.145928
0.0862948
0.150892
-0.0755722
0.151854
-0.122048
0.147012
-0.252135
0.142764
-0.241428
0.141386
-0.305649
0.140509
-0.178624
0.0924621
0.157329
0.00979079
0.160312
0.00847407
0.163559
0.00632295
0.166793
0.00336147
0.170161
-0.00115069
0.172963
-0.0074439
0.174887
-0.0152821
0.175691
-0.0250498
0.174961
-0.0366854
0.172309
-0.0498171
0.167469
-0.0636462
0.160478
-0.0769883
0.151785
-0.0885398
0.142202
-0.0973269
0.132644
-0.102989
0.123851
-0.10569
0.11623
-0.105812
0.109843
-0.103729
0.104585
-0.0997081
0.100326
-0.0937455
0.096347
-0.0857932
0.0909528
-0.0767416
0.0832999
-0.0684103
0.076108
-0.0605014
0.0747831
-0.0479449
0.0824994
-0.0243293
0.0974994
0.0108095
0.11516
0.0511838
0.131674
0.0903156
0.145242
0.127857
0.155768
0.167027
0.163557
0.205103
0.168184
0.225576
0.169129
0.205536
0.167095
0.13479
0.163472
0.0286549
0.159345
-0.0733909
0.154739
-0.144588
0.149319
-0.178595
0.143956
-0.191798
0.139513
-0.188066
0.134175
-0.178976
0.126499
-0.166427
0.119701
-0.159463
0.119583
-0.13638
0.127796
-0.0805508
0.140628
-0.00190631
0.151061
0.113181
0.156049
0.210273
0.154837
0.317038
0.150146
0.319498
0.147016
0.245877
0.147242
0.086069
0.15187
-0.0802004
0.152967
-0.123145
0.147969
-0.247136
0.143431
-0.236891
0.14199
-0.304208
0.14134
-0.177974
0.0945307
0.177668
0.00919121
0.178845
0.00729703
0.180097
0.00507111
0.181387
0.00207156
0.182604
-0.00236776
0.18318
-0.00801948
0.182996
-0.0150982
0.181682
-0.0237365
0.178886
-0.0338887
0.174298
-0.0452298
0.16779
-0.057138
0.15953
-0.0687278
0.150043
-0.0790534
0.140111
-0.0873944
0.130527
-0.0934053
0.121886
-0.0970493
0.114501
-0.0984261
0.108431
-0.097659
0.103566
-0.0948436
0.0998072
-0.0899863
0.0969572
-0.0829432
0.0939965
-0.0737809
0.089279
-0.0636929
0.0829683
-0.0541907
0.0788183
-0.0437949
0.0815617
-0.0270726
0.0924161
-4.49195e-05
0.108224
0.035376
0.124967
0.0735729
0.140087
0.112736
0.152837
0.154277
0.16294
0.195
0.169359
0.219157
0.171128
0.203767
0.169079
0.13684
0.164884
0.0328491
0.159529
-0.0680351
0.153752
-0.138812
0.147558
-0.172401
0.141574
-0.185814
0.136989
-0.183481
0.132402
-0.174389
0.125619
-0.159643
0.118879
-0.152723
0.118134
-0.135635
0.125787
-0.0882037
0.138787
-0.0149063
0.150094
0.101873
0.156431
0.203937
0.156519
0.31695
0.152502
0.323515
0.14921
0.24917
0.148612
0.0866669
0.152821
-0.0844097
0.154058
-0.124382
0.148954
-0.242032
0.144132
-0.23207
0.142612
-0.302688
0.142221
-0.177582
0.0963918
0.188587
0.00928822
0.188582
0.00730219
0.188422
0.00523108
0.188195
0.00229843
0.187688
-0.0018608
0.186634
-0.00696503
0.184773
-0.0132374
0.181826
-0.020789
0.177517
-0.0295796
0.171663
-0.0393759
0.164251
-0.049726
0.155523
-0.0600002
0.145992
-0.0695227
0.136324
-0.077726
0.127148
-0.084229
0.118917
-0.0888188
0.111873
-0.0913822
0.106089
-0.0918753
0.101527
-0.0902814
0.0981035
-0.0865625
0.0958027
-0.0806424
0.0943166
-0.0722948
0.092364
-0.0617402
0.0886219
-0.0504486
0.0842946
-0.0394676
0.0834528
-0.0262309
0.0895277
-0.00611978
0.101818
0.0230861
0.117411
0.0579798
0.133419
0.0967281
0.148338
0.139358
0.160989
0.18235
0.169226
0.21092
0.171699
0.201295
0.17002
0.138518
0.165546
0.037323
0.159273
-0.0617613
0.15238
-0.131919
0.145535
-0.165557
0.139063
-0.179342
0.13425
-0.178668
0.130333
-0.170472
0.124547
-0.153857
0.11794
-0.146116
0.116472
-0.134167
0.12339
-0.0951218
0.136441
-0.0279574
0.148658
0.0896562
0.156459
0.196136
0.157977
0.315432
0.154743
0.326749
0.151407
0.252506
0.150027
0.0880471
0.153739
-0.0881216
0.155103
-0.125746
0.14996
-0.236889
0.144859
-0.226969
0.143249
-0.301077
0.143141
-0.177475
0.0979986
0.18804
0.00933514
0.187405
0.00793649
0.186714
0.00592286
0.185933
0.00307885
0.18471
-0.000637468
0.18283
-0.0050851
0.180173
-0.0105801
0.176514
-0.0171303
0.171673
-0.0247385
0.165559
-0.0332623
0.158238
-0.0424047
0.149971
-0.0517336
0.141197
-0.0607482
0.132427
-0.0689564
0.124126
-0.075928
0.116632
-0.0813245
0.110139
-0.0848887
0.104723
-0.0864597
0.100401
-0.0859596
0.0971334
-0.0832949
0.094919
-0.078428
0.0938414
-0.0712172
0.0934157
-0.0613145
0.092202
-0.0492349
0.0895144
-0.03678
0.0874164
-0.0241328
0.0893437
-0.00804713
0.0973751
0.0150547
0.110116
0.0452387
0.125329
0.0815153
0.141258
0.123429
0.155961
0.167647
0.166146
0.200734
0.170207
0.197234
0.169742
0.138983
0.165822
0.0412428
0.158594
-0.0545338
0.150733
-0.124057
0.143435
-0.158259
0.136644
-0.172551
0.131507
-0.17353
0.128075
-0.16704
0.123309
-0.149092
0.116921
-0.139728
0.114671
-0.131917
0.120797
-0.101248
0.133631
-0.0407914
0.146694
0.0765932
0.155935
0.186895
0.159019
0.312348
0.15675
0.329018
0.153526
0.255729
0.151467
0.0901062
0.154601
-0.0912558
0.156081
-0.127226
0.150975
-0.231783
0.145587
-0.221581
0.143905
-0.299395
0.144095
-0.177665
0.0993028
0.204864
0.00931088
-0.20484
0.205495
0.00730546
0.206228
0.00519016
0.206923
0.00238327
0.207536
-0.0012503
0.20805
-0.00559875
0.208256
-0.0107863
0.20797
-0.0168443
0.206966
-0.0237347
0.205047
-0.0313428
0.202084
-0.0394417
0.198049
-0.0476991
0.193021
-0.0557196
0.187154
-0.0630896
0.180643
-0.069417
0.173691
-0.0743723
0.166495
-0.0776927
0.15923
-0.0791948
0.152054
-0.0787837
0.145085
-0.0763264
0.138387
-0.0717298
0.132115
-0.0649451
0.126383
-0.0555822
0.120578
-0.0434297
0.113585
-0.0297873
0.105555
-0.0161028
0.0989143
-0.00140644
0.0957806
0.0181884
0.0972035
0.0438159
0.102213
0.0765054
0.1096
0.116042
0.118564
0.158683
0.129393
0.189906
0.144169
0.182458
0.161674
0.121478
0.174939
0.0279776
0.180496
-0.0600908
0.178895
-0.122456
0.17294
-0.152304
0.16467
-0.164281
0.156352
-0.165212
0.149268
-0.159956
0.1415
-0.141325
0.132302
-0.130529
0.125572
-0.125187
0.125072
-0.100747
0.129397
-0.045117
0.133739
0.072251
0.136169
0.184465
0.137085
0.311432
0.1387
0.327402
0.142341
0.252089
0.146488
0.0859583
0.151279
-0.0960467
0.152661
-0.128608
0.146716
-0.225838
0.139552
-0.214417
0.135277
-0.295119
0.132384
-0.174772
0.101549
0.216075
0.00897313
-0.215737
0.21657
0.006811
0.21728
0.00447963
0.217969
0.00169439
0.218467
-0.00174797
0.218721
-0.00585281
0.218591
-0.0106567
0.217923
-0.016176
0.216557
-0.0223683
0.21435
-0.0291362
0.211211
-0.0363029
0.207118
-0.0436055
0.20212
-0.0507219
0.196335
-0.0573043
0.189927
-0.0630095
0.183091
-0.0675364
0.176031
-0.0706325
0.168933
-0.0720964
0.161954
-0.0718048
0.155228
-0.0696007
0.148828
-0.0653302
0.14283
-0.0589471
0.13742
-0.0501719
0.132462
-0.0384719
0.127034
-0.0243587
0.120319
-0.00938853
0.113074
0.0058388
0.108034
0.0232289
0.107076
0.0447739
0.110741
0.0728402
0.118232
0.108551
0.128441
0.148474
0.141763
0.176583
0.159392
0.164829
0.17805
0.10282
0.191167
0.0148603
0.195213
-0.0641366
0.191966
-0.119208
0.184673
-0.145011
0.175517
-0.155125
0.166429
-0.156125
0.15896
-0.152487
0.151321
-0.133685
0.142027
-0.121236
0.134588
-0.117748
0.133324
-0.0994833
0.137456
-0.0492486
0.142111
0.0675959
0.145206
0.18137
0.147139
0.309499
0.149853
0.324688
0.154281
0.24766
0.158375
0.0818645
0.162791
-0.100462
0.163835
-0.129651
0.157166
-0.219169
0.149085
-0.206337
0.144209
-0.290243
0.141157
-0.17172
0.103895
0.226299