/*--------------------------------*- C++ -*----------------------------------*\
| =========                 |                                                 |
| \\      /  F ield         | OpenFOAM: The Open Source CFD Toolbox           |
|  \\    /   O peration     | Version:  2512                                  |
|   \\  /    A nd           | Website:  www.openfoam.com                      |
|    \\/     M anipulation  |                                                 |
\*---------------------------------------------------------------------------*/
FoamFile
{
    version     2.0;
    format      ascii;
    arch        "LSB;label=32;scalar=64";
    class       volVectorField;
    location    "87";
    object      U;
}
// * * * * * * * * * * * * * * * * * * * * * * * * * * * * * * * * * * * * * //

dimensions      [0 1 -1 0 0 0 0];

internalField   nonuniform List<vector> 
13248
(
(-0.0121395 0.0105046 6.39247e-20)
(-0.023024 0.0208102 0)
(-0.0218104 0.0246032 -1.21036e-19)
(-0.00861761 0.0246829 1.14019e-19)
(0.0165917 0.0229468 1.06543e-19)
(0.0538617 0.0207069 0)
(0.103161 0.0188949 0)
(0.164236 0.0181718 2.51725e-19)
(0.236449 0.0189858 -2.73019e-21)
(0.318658 0.0215986 -2.1717e-19)
(0.409156 0.0260872 1.97864e-19)
(0.505692 0.0323429 -1.23304e-19)
(0.605577 0.0400766 0)
(0.705863 0.0488403 -2.06033e-19)
(0.803554 0.0580645 3.83664e-19)
(0.89582 0.067109 -9.02682e-20)
(0.980198 0.0753257 -1.62452e-19)
(1.05475 0.0820944 1.525e-19)
(1.11815 0.0869673 0)
(1.16978 0.0893379 0)
(1.20972 0.0897 0)
(1.23849 0.0856739 0)
(1.25751 0.0831842 4.94757e-20)
(1.26824 0.0670721 1.86142e-19)
(-0.0126467 0.0100109 -1.93213e-19)
(-0.0200567 0.0185463 1.31981e-19)
(-0.0110796 0.02095 -1.18245e-21)
(0.0134309 0.0200981 -1.74406e-19)
(0.0530465 0.0180417 -1.06426e-19)
(0.107376 0.0162552 -1.00479e-19)
(0.175784 0.0157635 -1.82871e-19)
(0.257149 0.0172358 1.73232e-19)
(0.34967 0.0210332 0)
(0.450792 0.0272253 1.42117e-21)
(0.55728 0.0356011 3.39893e-21)
(0.665433 0.0456971 1.2437e-19)
(0.771395 0.0568489 0)
(0.871499 0.0682676 0)
(0.962588 0.0791296 1.41699e-19)
(1.04226 0.0886671 -2.66038e-19)
(1.10901 0.0962463 1.59915e-19)
(1.1623 0.10142 -1.50131e-19)
(1.20251 0.103959 -6.71322e-20)
(1.23078 0.103822 -1.23623e-19)
(1.24874 0.101234 -5.32944e-20)
(1.2587 0.0961643 -1.00798e-19)
(1.26193 0.0904273 1.45001e-19)
(1.26248 0.0802632 4.2572e-20)
(-0.0119299 0.0087102 0)
(-0.0132407 0.0146692 0)
(0.00642655 0.0157014 6.16959e-20)
(0.0454087 0.0145418 5.6701e-20)
(0.102608 0.0132558 -1.63354e-21)
(0.176836 0.0133686 -1.04164e-19)
(0.266333 0.0158645 0)
(0.368485 0.0212448 -8.58342e-20)
(0.479721 0.0295665 8.04296e-20)
(0.595649 0.0404757 9.70187e-22)
(0.711415 0.0532699 -1.34981e-19)
(0.822202 0.067004 -1.22479e-19)
(0.923737 0.0806249 2.82373e-21)
(1.01271 0.0931165 -9.99853e-20)
(1.08705 0.103626 2.40507e-19)
(1.14599 0.111552 0)
(1.19001 0.116593 -1.56559e-19)
(1.22058 0.118726 7.5585e-20)
(1.2399 0.118193 6.7075e-20)
(1.25043 0.115305 0)
(1.25471 0.11077 5.60526e-20)
(1.25484 0.104381 -1.96322e-19)
(1.25225 0.0986045 1.84296e-19)
(1.24972 0.088738 1.19611e-19)
(-0.00965469 0.00671629 -6.87884e-20)
(-0.00168428 0.00950994 -7.11966e-20)
(0.0319465 0.00943825 6.41931e-20)
(0.088619 0.00887781 0)
(0.16622 0.0097374 0)
(0.262216 0.0134129 -2.40381e-21)
(0.373044 0.020612 0)
(0.493953 0.0313831 -2.63172e-19)
(0.619207 0.045187 2.43586e-19)
(0.742635 0.0610163 -2.99136e-19)
(0.858365 0.077577 6.777e-20)
(0.961536 0.09351 0)
(1.04882 0.107604 1.11841e-19)
(1.11864 0.118958 -2.06816e-19)
(1.17114 0.127069 4.89545e-20)
(1.20788 0.131832 1.25797e-19)
(1.23137 0.133481 -5.27536e-21)
(1.24459 0.132474 -1.4106e-19)
(1.25046 0.129372 0)
(1.25155 0.124734 0)
(1.24979 0.119085 -5.12289e-20)
(1.24647 0.112574 4.62951e-20)
(1.24231 0.106555 1.68608e-19)
(1.23839 0.0976862 -1.58273e-19)
(-0.00548805 0.00423345 -7.28692e-20)
(0.0154498 0.00367856 -7.24211e-20)
(0.0665427 0.00317663 2.03588e-19)
(0.143937 0.00450437 -1.23133e-19)
(0.243969 0.00917586 1.15902e-19)
(0.362039 0.0181698 2.0958e-19)
(0.492085 0.0315653 -1.48064e-19)
(0.626826 0.0486002 -1.79061e-19)
(0.758542 0.0678802 4.31942e-21)
(0.88012 0.0876739 2.27238e-19)
(0.986017 0.106251 0)
(1.07288 0.122181 6.21728e-20)
(1.13971 0.134534 0)
(1.18759 0.142938 -1.004e-19)
(1.21908 0.147526 1.40901e-19)
(1.23759 0.148785 1.00729e-21)
(1.24665 0.147391 -3.71333e-20)
(1.2494 0.144042 6.9214e-20)
(1.24834 0.139352 6.02513e-20)
(1.24517 0.133784 -5.42642e-20)
(1.24095 0.127701 5.1218e-20)
(1.23625 0.121171 -4.62848e-20)
(1.23129 0.115034 0)
(1.22678 0.106819 -3.56105e-20)
(0.000904317 0.00153651 7.28587e-20)
(0.0388858 -0.00198738 7.66348e-20)
(0.110926 -0.00172587 -6.82513e-20)
(0.211488 0.00318042 1.27003e-19)
(0.334642 0.0134962 -1.19538e-19)
(0.472968 0.0293649 1.07613e-19)
(0.617476 0.0498091 -5.18169e-20)
(0.758607 0.0729567 1.34576e-19)
(0.887681 0.0965109 -8.47536e-20)
(0.998222 0.118258 1.49029e-19)
(1.08671 0.136485 -3.43491e-19)
(1.15263 0.150208 1.26296e-19)
(1.19793 0.159199 -1.09575e-19)
(1.22612 0.163834 1.02923e-19)
(1.24137 0.164864 8.86165e-20)
(1.24765 0.163167 7.76966e-20)
(1.24826 0.159564 -2.16704e-19)
(1.24564 0.154717 1.34404e-19)
(1.24137 0.149096 -6.02546e-20)
(1.23639 0.14301 1.58171e-19)
(1.23117 0.136649 -5.1067e-20)
(1.22593 0.130093 -1.25566e-19)
(1.22074 0.123771 1.16118e-19)
(1.21587 0.116038 3.55997e-20)
(0.00983671 -0.00103755 0)
(0.0691256 -0.006484 7.20745e-22)
(0.165229 -0.00372801 1.43325e-19)
(0.290326 0.00673327 -1.34354e-19)
(0.435447 0.0244168 -1.20706e-19)
(0.589838 0.0481241 2.24092e-19)
(0.74181 0.0754608 -1.03951e-19)
(0.880656 0.1034 1.37782e-19)
(0.998497 0.129059 -3.23923e-21)
(1.09129 0.150297 -7.78716e-20)
(1.15878 0.166002 1.6865e-19)
(1.20366 0.176055 -2.48999e-19)
(1.23034 0.18108 0)
(1.24367 0.18209 -4.86894e-20)
(1.2481 0.18018 -1.29591e-19)
(1.24714 0.176311 4.08482e-20)
(1.24326 0.171214 1.5636e-21)
(1.23801 0.165387 -8.95245e-20)
(1.23228 0.159141 5.40706e-21)
(1.22649 0.15266 1.03686e-19)
(1.22083 0.146051 -4.64915e-20)
(1.21534 0.139387 -1.78709e-20)
(1.20998 0.132828 5.45773e-20)
(1.20486 0.125453 0)
(0.021552 -0.00308838 0)
(0.106307 -0.00869861 3.89429e-20)
(0.228798 -0.00127004 -1.87773e-19)
(0.378264 0.016768 6.80909e-20)
(0.542102 0.0430774 -6.40842e-20)
(0.706325 0.0746598 -5.85109e-20)
(0.857665 0.107616 -1.02876e-19)
(0.986142 0.138122 5.16152e-20)
(1.08658 0.163354 4.45224e-20)
(1.15859 0.181898 0)
(1.20543 0.193669 1.0063e-19)
(1.23232 0.199517 -1.49668e-19)
(1.24492 0.200745 1.11171e-19)
(1.24823 0.198702 4.8715e-20)
(1.2461 0.194531 -3.99088e-20)
(1.24116 0.189074 -3.32056e-20)
(1.23501 0.182887 -3.10042e-20)
(1.22853 0.176307 9.295e-20)
(1.22214 0.169525 0)
(1.216 0.162649 4.68106e-20)
(1.21015 0.155745 3.95577e-20)
(1.20455 0.148863 -9.80713e-20)
(1.19913 0.14202 -6.76156e-20)
(1.19388 0.134866 6.2343e-20)
(0.0361561 -0.00415833 -4.24883e-20)
(0.150069 -0.00748112 -1.77849e-21)
(0.30008 0.0070604 3.82904e-20)
(0.471955 0.0344281 1.07043e-19)
(0.649375 0.0698353 3.10197e-20)
(0.816085 0.10828 -6.00525e-20)
(0.959138 0.1447 5.46768e-20)
(1.07131 0.175193 -4.76816e-20)
(1.15145 0.197736 8.53886e-20)
(1.20304 0.212114 3.6099e-20)
(1.23209 0.219367 -1.02749e-19)
(1.24518 0.22112 3.00879e-20)
(1.24805 0.219046 5.11952e-20)
(1.2451 0.214539 -2.52247e-20)
(1.23923 0.208608 0)
(1.2322 0.201905 3.73179e-20)
(1.22494 0.194816 6.29944e-20)
(1.21788 0.187553 1.06772e-20)
(1.21119 0.180231 -5.24676e-20)
(1.20491 0.172914 2.18769e-20)
(1.19898 0.165646 0)
(1.19334 0.158448 -1.71954e-20)
(1.1879 0.151291 -1.64546e-20)
(1.18259 0.144216 0)
(0.0535533 -0.00375548 0)
(0.199465 -0.00173956 2.23102e-20)
(0.376649 0.022369 4.12311e-20)
(0.567234 0.0602435 -1.09472e-19)
(0.751883 0.104265 3.5484e-20)
(0.913865 0.147662 0)
(1.04272 0.184966 5.28413e-20)
(1.13549 0.213055 -7.37732e-20)
(1.19537 0.231276 -4.27207e-20)
(1.22905 0.240758 1.92027e-20)
(1.24413 0.243483 -3.06213e-20)
(1.2474 0.241538 7.43984e-20)
(1.24399 0.23667 3.69562e-20)
(1.23733 0.230138 -2.5833e-20)
(1.22943 0.222743 -2.55104e-21)
(1.22135 0.214949 -6.97812e-20)
(1.21357 0.207006 3.1726e-20)
(1.20626 0.199042 -8.63269e-22)
(1.19947 0.191128 0)
(1.19316 0.183304 -2.18999e-20)
(1.18725 0.175595 0)
(1.18165 0.167997 4.94029e-20)
(1.17626 0.160505 -5.8708e-20)
(1.17096 0.153356 2.67536e-20)
(0.0734003 -0.0013912 -1.1741e-20)
(0.252941 0.00945434 -5.63305e-20)
(0.455374 0.0453271 6.41795e-20)
(0.659623 0.0940847 3.75576e-20)
(0.84487 0.145316 -1.79184e-20)
(0.996129 0.191202 3.00076e-20)
(1.10722 0.22686 -1.45722e-20)
(1.18008 0.250676 2.41083e-20)
(1.22172 0.263623 0)
(1.24089 0.268032 5.41759e-20)
(1.2457 0.266518 -2.38004e-21)
(1.24239 0.26132 -4.346e-20)
(1.23513 0.254062 1.84894e-20)
(1.2264 0.245777 -2.07244e-20)
(1.21745 0.237057 -7.7615e-21)
(1.20889 0.22821 9.1139e-21)
(1.20091 0.219392 -6.93621e-21)
(1.19356 0.210679 -3.76428e-20)
(1.1868 0.202112 2.30302e-20)
(1.18057 0.193718 4.66783e-21)
(1.17476 0.185504 4.09765e-21)
(1.16927 0.17745 3.59976e-21)
(1.16399 0.169616 0)
(1.15876 0.162235 0)
(0.0951618 0.00338519 1.17491e-20)
(0.308543 0.0267789 -1.17223e-20)
(0.532869 0.0760919 -2.14015e-20)
(0.74501 0.135212 0)
(0.924805 0.191545 -8.91021e-21)
(1.06114 0.237322 -8.0355e-21)
(1.15314 0.269194 -1.36707e-20)
(1.20738 0.287495 0)
(1.23369 0.29477 0)
(1.24179 0.294262 0)
(1.23945 0.288888 0)
(1.23195 0.280812 0)
(1.22248 0.271426 -1.15826e-20)
(1.21268 0.261523 5.26429e-21)
(1.2033 0.251512 9.09317e-21)
(1.1946 0.241587 4.25051e-21)
(1.18665 0.231839 1.04152e-20)
(1.17941 0.222311 0)
(1.17281 0.213028 -2.45911e-21)
(1.16677 0.204001 -2.36652e-21)
(1.16118 0.195222 -4.1042e-21)
(1.15591 0.186678 -3.60553e-21)
(1.15084 0.178492 0)
(1.14582 0.170729 2.54463e-21)
(-0.00105287 -0.0167168 8.24605e-21)
(-0.00665589 -0.0319479 -8.56241e-21)
(-0.0174344 -0.0350839 -1.62092e-20)
(-0.0307835 -0.0303195 0)
(-0.0452986 -0.0208465 -2.17506e-20)
(-0.0602999 -0.00885768 6.88822e-21)
(-0.0753353 0.00435077 -1.28022e-20)
(-0.0900888 0.0181929 0)
(-0.104338 0.0325673 0)
(-0.117911 0.0476456 0)
(-0.130662 0.0637016 0)
(-0.142457 0.0809909 0)
(-0.153158 0.0996891 1.89236e-22)
(-0.162625 0.119866 -8.42979e-21)
(-0.170702 0.141475 1.54023e-20)
(-0.177221 0.164358 2.1781e-20)
(-0.182002 0.188237 6.54396e-21)
(-0.184859 0.212716 0)
(-0.185616 0.237283 6.02208e-21)
(-0.184124 0.261322 -1.66642e-20)
(-0.180265 0.284142 -1.03142e-20)
(-0.173927 0.305004 -9.6799e-21)
(-0.165113 0.323185 0)
(-0.154281 0.33812 0)
(-0.000332669 -0.0120173 -2.4583e-20)
(-0.00513688 -0.0212164 4.25376e-20)
(-0.0152486 -0.0206075 -1.57329e-20)
(-0.0279562 -0.013589 -3.02045e-20)
(-0.0417576 -0.00284577 4.28619e-20)
(-0.0558976 0.00974953 -2.67852e-20)
(-0.0698866 0.0230962 3.79919e-20)
(-0.0833918 0.0367149 2.33473e-20)
(-0.0961817 0.0505597 0)
(-0.108074 0.0648266 -2.11569e-20)
(-0.118906 0.079796 1.08712e-22)
(-0.128515 0.0957225 1.87291e-20)
(-0.136736 0.112774 2.55841e-20)
(-0.14339 0.131005 3.20176e-20)
(-0.148287 0.150354 -1.55259e-20)
(-0.151222 0.170643 -4.249e-20)
(-0.151981 0.191585 1.26852e-20)
(-0.150343 0.212787 -4.8449e-20)
(-0.146094 0.23376 0)
(-0.139041 0.25394 1.0994e-20)
(-0.129023 0.272716 1.02979e-20)
(-0.115857 0.289479 9.66423e-21)
(-0.0993351 0.303743 0)
(-0.0799832 0.315344 0)
(-7.22746e-05 -0.00775578 0)
(-0.00448292 -0.011576 8.26385e-20)
(-0.0138693 -0.00773052 -3.12307e-20)
(-0.0255921 0.00112151 2.97742e-20)
(-0.0381378 0.0127878 -8.30323e-20)
(-0.0507124 0.0257058 0)
(-0.0628066 0.0389539 -4.89588e-20)
(-0.0740832 0.0521399 2.27244e-20)
(-0.0843113 0.0652471 -4.24986e-20)
(-0.0933085 0.0784741 1.92303e-20)
(-0.100905 0.092095 1.12332e-19)
(-0.106925 0.106359 -5.27142e-20)
(-0.111183 0.121428 -8.23758e-20)
(-0.113479 0.137355 -2.97009e-20)
(-0.113604 0.154075 3.78235e-22)
(-0.111335 0.171406 1.06898e-19)
(-0.106446 0.189064 -5.00314e-20)
(-0.0987068 0.206668 1.0589e-21)
(-0.087899 0.223758 0)
(-0.0738251 0.239803 -4.0192e-20)
(-0.0563323 0.254246 0)
(-0.0352192 0.266579 -3.76183e-20)
(-0.0100187 0.276496 1.39213e-19)
(0.0190044 0.284264 1.68904e-21)
(-0.000195738 -0.00413966 0)
(-0.00461507 -0.00347372 -5.27953e-22)
(-0.0133657 0.00295201 3.04496e-20)
(-0.0239711 0.0131113 -2.85882e-20)
(-0.0349579 0.025265 2.75755e-20)
(-0.0455193 0.038143 1.52636e-19)
(-0.0551424 0.0509895 -4.79415e-20)
(-0.0634968 0.0634839 -4.42995e-20)
(-0.0703639 0.0756226 8.38426e-20)
(-0.0755741 0.0875901 -1.17645e-19)
(-0.0789675 0.0996411 3.61659e-20)
(-0.0803747 0.112011 3.34885e-20)
(-0.0796107 0.124859 0)
(-0.0764744 0.13824 3.00816e-20)
(-0.0707569 0.152102 0)
(-0.0622435 0.166278 5.02181e-20)
(-0.0507208 0.180506 -9.52664e-20)
(-0.0359692 0.194437 2.30699e-20)
(-0.0178 0.207642 8.36996e-20)
(0.00394498 0.21963 4.01456e-20)
(0.0293896 0.229883 0)
(0.0586244 0.237919 -1.07124e-19)
(0.0922037 0.243489 3.36181e-20)
(0.131314 0.247082 0)
(-0.000625614 -0.00121228 0)
(-0.00544117 0.00296238 -9.62691e-20)
(-0.0137762 0.0112165 -3.01059e-20)
(-0.023327 0.0220544 -5.67881e-20)
(-0.0326814 0.0341517 5.34724e-20)
(-0.0410393 0.0465178 -5.05453e-20)
(-0.0478972 0.0585566 9.34137e-20)
(-0.0529422 0.0700153 4.3652e-20)
(-0.0559786 0.0808971 -1.23376e-19)
(-0.0568635 0.0913631 7.57715e-20)
(-0.0554647 0.101639 -1.06731e-19)
(-0.0516398 0.111937 2.28871e-19)
(-0.0452295 0.122409 -1.23159e-19)
(-0.0360526 0.133119 5.60211e-20)
(-0.0239232 0.144027 1.57367e-19)
(-0.00865624 0.154999 -5.09856e-20)
(0.00993468 0.165812 -4.56325e-20)
(0.0320218 0.176163 -4.38199e-20)
(0.0577564 0.185669 0)
(0.0872605 0.193907 -7.60583e-20)
(0.120621 0.200406 -7.30321e-20)
(0.15788 0.204676 1.01941e-19)
(0.198902 0.206437 1.33371e-19)
(0.248799 0.205743 -1.24346e-19)
(-0.00131642 0.00112246 0)
(-0.00690048 0.00788526 -1.26213e-19)
(-0.0151189 0.0171851 4.56764e-22)
(-0.0238027 0.0280021 1.12273e-19)
(-0.0316054 0.0394069 0)
(-0.0377523 0.0506849 0)
(-0.0417631 0.0614039 0)
(-0.0433518 0.0713851 -4.28708e-20)
(-0.0423538 0.0806435 8.22366e-22)
(-0.0386616 0.0893182 7.47497e-20)
(-0.0321818 0.0976015 -1.03933e-19)
(-0.0228124 0.10568 6.89296e-22)
(-0.0104333 0.113692 0)
(0.00509419 0.121704 -5.5995e-20)
(0.0239208 0.129696 4.97699e-20)
(0.0461989 0.13757 -1.42392e-19)
(0.0720773 0.145146 1.76999e-19)
(0.101693 0.152173 4.03552e-20)
(0.135173 0.158333 2.63322e-22)
(0.172621 0.163269 -1.45956e-19)
(0.214052 0.166577 -6.83276e-20)
(0.259975 0.167787 2.32345e-19)
(0.307836 0.16667 -1.55791e-19)
(0.370738 0.161934 0)
(-0.00226924 0.00304675 6.05245e-20)
(-0.00897188 0.0116359 6.29596e-20)
(-0.017361 0.0212441 -5.88992e-20)
(-0.0253617 0.0313371 -1.10765e-19)
(-0.0317 0.0413863 1.04294e-19)
(-0.0356476 0.0509594 -9.68636e-20)
(-0.0367622 0.0597997 1.36245e-19)
(-0.0347905 0.0678168 -4.26399e-20)
(-0.0295987 0.0750517 7.89623e-20)
(-0.0211114 0.0816322 0)
(-0.00926819 0.0877247 6.57857e-20)
(0.00599995 0.0934919 -1.24548e-19)
(0.0247815 0.0990598 1.14933e-19)
(0.047185 0.104497 -1.07944e-19)
(0.0733409 0.109801 0)
(0.103385 0.114908 9.23748e-20)
(0.137454 0.119684 1.70101e-19)
(0.175669 0.123928 -1.60784e-19)
(0.218152 0.127389 -7.4385e-20)
(0.265068 0.129774 -7.24924e-20)
(0.316052 0.130697 2.02199e-19)
(0.373228 0.129849 6.4786e-20)
(0.428407 0.127056 -5.93555e-20)
(0.509167 0.119595 5.83506e-20)
(-0.00351779 0.00475511 -6.05328e-20)
(-0.0116329 0.0146084 1.8696e-19)
(-0.0203423 0.023904 -5.85926e-20)
(-0.0276648 0.0326577 1.09945e-19)
(-0.0324193 0.0407658 -1.03523e-19)
(-0.0339472 0.0480921 1.94636e-22)
(-0.0318522 0.0545708 4.50857e-20)
(-0.0259087 0.0602183 1.64791e-19)
(-0.0159967 0.0651214 -2.18753e-21)
(-0.00204592 0.0694166 -7.31488e-20)
(0.0160039 0.0732613 0)
(0.038225 0.0768067 -5.96924e-20)
(0.0647113 0.0801726 1.14205e-19)
(0.0955707 0.0834295 1.04047e-19)
(0.130935 0.0866041 -4.95775e-20)
(0.170945 0.0896547 -8.94169e-22)
(0.215713 0.0924782 -4.24086e-20)
(0.265334 0.0949238 7.77447e-20)
(0.319813 0.096772 7.43758e-20)
(0.379363 0.0978255 -7.01651e-20)
(0.442536 0.0975514 6.54181e-20)
(0.514347 0.0961914 -6.22642e-20)
(0.577254 0.0928954 0)
(0.67906 0.0856293 -5.83124e-20)
(-0.00508741 0.00637801 6.03041e-20)
(-0.0147772 0.0171038 -6.23201e-20)
(-0.0236708 0.0256317 5.86568e-20)
(-0.0299439 0.032609 0)
(-0.0325449 0.0383853 0)
(-0.0308999 0.043135 9.49439e-20)
(-0.0246536 0.0469985 -8.96544e-20)
(-0.0135829 0.0501175 8.11304e-20)
(0.00245568 0.0526483 -3.82755e-19)
(0.0235706 0.0547603 9.72025e-22)
(0.0498642 0.0566234 6.52248e-20)
(0.0814424 0.0583915 0)
(0.118412 0.0601883 -1.10744e-19)
(0.160877 0.0620988 2.06456e-19)
(0.208895 0.0641517 -1.44336e-19)
(0.262467 0.066308 -2.21275e-19)
(0.321521 0.068482 9.93191e-22)
(0.385876 0.0705325 1.53892e-19)
(0.455104 0.0722124 0)
(0.529241 0.0734712 0)
(0.605253 0.0734197 -6.5416e-20)
(0.690496 0.0732369 6.22612e-20)
(0.759355 0.070246 -2.38797e-19)
(0.874257 0.0661908 2.23809e-19)
(-0.00693941 0.00792554 0)
(-0.01812 0.0192145 0)
(-0.0266364 0.0266967 -1.75855e-19)
(-0.0309433 0.0316984 5.5918e-20)
(-0.0301614 0.0350338 9.5346e-22)
(-0.0238067 0.0371984 9.63399e-20)
(-0.0115438 0.0385459 0)
(0.00687698 0.0393604 -8.24954e-20)
(0.031652 0.0398886 7.64468e-20)
(0.062939 0.0403522 -1.39527e-19)
(0.100857 0.0409496 9.71471e-22)
(0.145474 0.0418488 1.19062e-19)
(0.196776 0.0431752 -1.83306e-21)
(0.254632 0.0449978 1.00247e-19)
(0.318764 0.0473148 -1.43669e-19)
(0.388711 0.0500613 0)
(0.463819 0.0530973 1.63823e-19)
(0.543249 0.0562225 -2.30739e-19)
(0.625832 0.0591198 7.1874e-20)
(0.710869 0.0617087 0)
(0.794731 0.0629472 6.38913e-20)
(0.88334 0.0643744 2.46224e-19)
(0.952862 0.0619302 -2.31067e-19)
(1.05954 0.0612966 -2.78519e-19)
(-0.00892539 0.00927419 1.8273e-19)
(-0.0211384 0.020781 -2.51549e-19)
(-0.028201 0.0270839 5.66132e-22)
(-0.0289961 0.0301558 5.58713e-20)
(-0.022863 0.0312583 -1.03751e-19)
(-0.00940557 0.0311927 -9.59624e-20)
(0.0116912 0.0305276 1.77082e-19)
(0.0406939 0.0296982 -2.97439e-21)
(0.0777966 0.0290481 -1.54086e-19)
(0.123092 0.0288575 2.81131e-19)
(0.176528 0.0293499 -2.53703e-21)
(0.237855 0.0306859 -1.21254e-19)
(0.306581 0.0329508 0)
(0.381941 0.0361439 0)
(0.462889 0.0401694 -4.74692e-20)
(0.548106 0.0448365 -8.82482e-20)
(0.636046 0.0498671 -1.63637e-19)
(0.724993 0.0548963 1.53595e-19)
(0.813099 0.0595376 -7.19015e-20)
(0.898695 0.063343 1.34993e-19)
(0.979186 0.0658117 -6.33162e-20)
(1.05614 0.0671776 1.21449e-19)
(1.11707 0.065048 -2.81699e-19)
(1.1937 0.0644297 5.44836e-20)
(-0.0107748 0.0102067 6.15011e-20)
(-0.0230764 0.021447 0)
(-0.0270741 0.0265204 1.19252e-19)
(-0.0222141 0.0279211 -1.12342e-19)
(-0.00810943 0.0272814 1.03845e-19)
(0.0155163 0.0256785 0)
(0.0489017 0.0238847 0)
(0.092201 0.0224684 -8.21307e-20)
(0.145397 0.0218533 2.67374e-21)
(0.208209 0.0223486 7.25387e-20)
(0.280015 0.0241546 -6.45863e-20)
(0.359793 0.0273561 1.22049e-19)
(0.446114 0.0319133 0)
(0.53717 0.0376565 2.04779e-19)
(0.630855 0.044291 -3.81882e-19)
(0.724879 0.0514121 2.66314e-19)
(0.816893 0.0585399 1.63432e-19)
(0.904619 0.0651142 -1.5341e-19)
(0.986014 0.0706932 0)
(1.05928 0.074477 0)
(1.12318 0.0767804 0)
(1.17708 0.0756804 0)
(1.21904 0.073652 5.56542e-20)
(1.25879 0.0678123 -2.06454e-19)
(-0.140115 0.351407 -6.21896e-21)
(-0.120172 0.358449 6.25006e-21)
(-0.0945432 0.354053 -1.98329e-22)
(-0.063393 0.33612 0)
(-0.0264959 0.302697 -6.37139e-21)
(0.0157571 0.252663 1.25816e-20)
(0.0626422 0.185825 1.51037e-22)
(0.112809 0.102748 -6.18318e-21)
(0.164772 0.00623195 0)
(0.217668 -0.100987 0)
(0.270377 -0.213381 -3.51878e-22)
(0.321755 -0.323796 -3.15863e-22)
(0.370204 -0.422555 -4.20021e-21)
(0.413064 -0.500118 3.81684e-21)
(0.447149 -0.550249 0)
(0.469777 -0.572859 0)
(0.477978 -0.575549 1.77825e-21)
(0.467606 -0.571804 -1.70342e-22)
(0.438174 -0.570861 -1.42653e-21)
(0.400487 -0.564266 -8.3912e-23)
(0.375783 -0.525269 0)
(0.382476 -0.428003 0)
(0.422637 -0.269663 0)
(0.485155 -0.0731409 0)
(0.556342 0.125578 0)
(0.624759 0.290975 0)
(0.681315 0.40335 4.07946e-22)
(0.720498 0.463923 -6.51071e-22)
(0.743718 0.483593 0)
(0.754869 0.48004 0)
(0.748601 0.47916 -3.11432e-22)
(0.717804 0.49616 3.02689e-22)
(0.672104 0.504671 1.80211e-22)
(0.639264 0.449227 0)
(0.640643 0.299693 0)
(0.674902 0.0865551 4.98924e-22)
(0.723675 -0.122889 -4.84959e-22)
(0.770455 -0.280781 0)
(0.805032 -0.365319 2.68968e-22)
(0.829467 -0.399391 -3.78976e-22)
(0.831039 -0.410494 9.44313e-23)
(0.801516 -0.431549 0)
(0.748741 -0.426048 -1.82159e-22)
(0.704493 -0.359771 1.77135e-22)
(0.696165 -0.207951 0)
(0.721305 -0.0151408 0)
(0.767802 0.143268 -8.08717e-23)
(0.811228 0.26665 2.16481e-22)
(0.825566 0.32108 0)
(0.797673 0.392757 0)
(0.758293 0.367377 -5.04617e-23)
(0.733143 0.302386 -6.80191e-24)
(0.755675 0.13912 -1.88082e-24)
(0.79115 -0.0451412 4.74204e-23)
(0.815462 -0.141736 0)
(0.803404 -0.332575 0)
(0.784508 -0.304438 0)
(0.772611 -0.347127 0)
(0.782691 -0.201458 0)
(0.763795 0.0769379 0)
(-0.0572983 0.325742 -5.95151e-22)
(-0.0294485 0.328615 -2.6077e-20)
(0.00419826 0.319901 -8.32234e-22)
(0.0429816 0.297859 2.52506e-20)
(0.0866116 0.260976 4.23361e-22)
(0.134291 0.20832 0)
(0.184907 0.139805 -2.70675e-20)
(0.237219 0.0562075 5.38607e-20)
(0.289863 -0.0402474 -2.67909e-20)
(0.341939 -0.146552 2.47091e-20)
(0.392572 -0.257881 -2.36634e-20)
(0.440475 -0.36641 1.9492e-20)
(0.483279 -0.461568 -1.90156e-20)
(0.517616 -0.532912 -4.77633e-22)
(0.540454 -0.574304 -1.09498e-20)
(0.550556 -0.586231 1.06415e-20)
(0.547843 -0.575918 -6.98276e-21)
(0.530108 -0.557122 6.59721e-21)
(0.493821 -0.544003 -5.36805e-21)
(0.443067 -0.536317 1.0382e-20)
(0.395509 -0.51105 -5.02071e-21)
(0.374259 -0.436179 -3.15234e-22)
(0.390702 -0.298093 -6.34372e-21)
(0.438802 -0.113841 1.24865e-20)
(0.504657 0.0806329 -6.14333e-21)
(0.574501 0.249913 3.07249e-22)
(0.636957 0.371788 4.13302e-21)
(0.685116 0.443253 -5.30679e-22)
(0.718948 0.472227 -5.89589e-21)
(0.738961 0.47782 5.23771e-21)
(0.73792 0.487582 -2.48664e-21)
(0.711261 0.513066 3.33075e-22)
(0.673098 0.521775 -1.8059e-22)
(0.651338 0.45711 4.72454e-22)
(0.663121 0.294817 0)
(0.704268 0.0716718 0)
(0.75528 -0.141062 -1.89055e-21)
(0.799542 -0.296404 1.40742e-21)
(0.826878 -0.376101 8.02448e-22)
(0.843882 -0.403643 -1.10919e-22)
(0.840405 -0.405509 -9.36434e-22)
(0.809313 -0.41767 1.54741e-22)
(0.753066 -0.409809 0)
(0.70355 -0.350653 0)
(0.689447 -0.210435 0)
(0.712582 -0.0269186 0)
(0.760816 0.129021 2.91666e-22)
(0.804943 0.257904 -1.37964e-22)
(0.821142 0.322166 0)
(0.792633 0.401241 0)
(0.756403 0.375491 0)
(0.732168 0.303108 -1.22172e-22)
(0.757576 0.132853 -1.78992e-23)
(0.79558 -0.0523065 -9.38287e-23)
(0.821495 -0.143039 0)
(0.810861 -0.329016 0)
(0.789077 -0.301694 3.44986e-23)
(0.777232 -0.346616 7.15157e-23)
(0.783978 -0.20054 0)
(0.763594 0.0788263 0)
(0.0488764 0.29199 2.57071e-21)
(0.0828039 0.29221 -5.0645e-20)
(0.121468 0.280871 5.50877e-20)
(0.164941 0.256646 -5.14985e-20)
(0.212385 0.218443 -4.26202e-22)
(0.262716 0.165462 0)
(0.314773 0.0976042 -5.82829e-20)
(0.367481 0.0154824 5.71279e-20)
(0.419712 -0.078889 4.25813e-22)
(0.470586 -0.182935 8.40817e-22)
(0.519071 -0.291866 7.79965e-22)
(0.563271 -0.397393 6.76148e-22)
(0.599824 -0.488137 -3.5135e-20)
(0.624803 -0.553061 3.46254e-20)
(0.63564 -0.586431 0)
(0.632338 -0.589993 6.03604e-22)
(0.61719 -0.57094 -1.36189e-20)
(0.591363 -0.540939 1.34249e-20)
(0.551182 -0.515257 0)
(0.494286 -0.50156 0)
(0.431138 -0.485164 -9.12632e-21)
(0.385003 -0.432868 1.87824e-20)
(0.375964 -0.319915 -1.95901e-20)
(0.40575 -0.153346 -1.38169e-22)
(0.462503 0.0333507 1.95673e-20)
(0.53083 0.204355 -1.81952e-20)
(0.597088 0.334636 1.47496e-20)
(0.65312 0.416804 -1.31468e-21)
(0.69674 0.456051 -5.66913e-21)
(0.724853 0.472341 0)
(0.729145 0.493496 0)
(0.707822 0.527071 2.33274e-21)
(0.67834 0.535811 -2.92473e-21)
(0.667789 0.46322 2.96372e-23)
(0.689539 0.290315 4.80257e-21)
(0.736889 0.0593174 -4.66676e-21)
(0.789319 -0.155689 0)
(0.830686 -0.308123 4.31878e-22)
(0.85071 -0.383405 2.66228e-21)
(0.859973 -0.405718 -4.50929e-21)
(0.851346 -0.399641 1.697e-21)
(0.819154 -0.403409 1.36765e-22)
(0.760431 -0.393131 -1.41256e-21)
(0.706437 -0.341214 1.12068e-21)
(0.686643 -0.213393 2.91031e-22)
(0.70721 -0.0398173 2.83699e-22)
(0.756414 0.113554 -2.92411e-22)
(0.800576 0.248382 0)
(0.81847 0.322648 0)
(0.789544 0.409292 -8.57794e-22)
(0.756834 0.383509 4.27412e-22)
(0.733606 0.303936 -5.19558e-22)
(0.761582 0.126839 7.7846e-22)
(0.801598 -0.0595937 8.72308e-22)
(0.82904 -0.144237 -1.80352e-22)
(0.819525 -0.325087 2.73143e-22)
(0.794465 -0.29867 -1.78284e-22)
(0.782481 -0.345789 6.05274e-23)
(0.786198 -0.199426 0)
(0.764389 0.0807705 0)
(0.165238 0.252693 -1.03618e-19)
(0.20321 0.250877 -4.81047e-21)
(0.24468 0.238333 1.03126e-19)
(0.290536 0.213772 -8.57791e-22)
(0.339792 0.176207 0)
(0.391175 0.124795 0)
(0.443472 0.0592081 -1.19744e-19)
(0.496096 -0.0199284 -2.95934e-21)
(0.548095 -0.111005 1.72075e-19)
(0.598258 -0.211896 -2.52871e-21)
(0.645171 -0.317607 -5.29207e-20)
(0.685894 -0.419254 -4.14308e-20)
(0.715877 -0.504735 4.16381e-20)
(0.730824 -0.562813 0)
(0.729153 -0.588434 -2.27116e-20)
(0.712457 -0.584857 2.08549e-20)
(0.684587 -0.560142 0)
(0.649672 -0.523574 0)
(0.606727 -0.487576 8.35499e-21)
(0.54961 -0.464176 -8.32988e-22)
(0.479504 -0.449534 -6.83765e-21)
(0.414359 -0.416192 -7.61433e-21)
(0.379768 -0.331479 7.55714e-21)
(0.387791 -0.188645 -8.47064e-21)
(0.431513 -0.0137535 4.1267e-22)
(0.494936 0.155652 7.59854e-21)
(0.562606 0.292571 7.85731e-22)
(0.624983 0.384923 6.10299e-23)
(0.677066 0.435157 0)
(0.712339 0.463199 4.83832e-21)
(0.722093 0.49592 -4.99909e-21)
(0.707089 0.537104 3.44873e-22)
(0.687012 0.546232 0)
(0.687627 0.467744 -5.08038e-22)
(0.718939 0.286948 1.02036e-20)
(0.771954 0.0500408 -1.85541e-20)
(0.825188 -0.166788 -3.56859e-23)
(0.863438 -0.316356 1.68993e-21)
(0.876312 -0.387563 5.70161e-21)
(0.877635 -0.405821 4.94361e-22)
(0.863636 -0.393252 -2.64087e-21)
(0.83062 -0.389174 2.27288e-21)
(0.770474 -0.376083 2.92468e-23)
(0.712987 -0.331176 1.05612e-21)
(0.687744 -0.216407 -1.31889e-21)
(0.705139 -0.0535127 -1.76875e-21)
(0.754485 0.0970667 5.45516e-22)
(0.798046 0.238103 8.51929e-22)
(0.81752 0.3224 -1.66704e-21)
(0.788469 0.416764 1.23514e-21)
(0.759671 0.391392 -5.45529e-22)
(0.737609 0.30501 4.01194e-22)
(0.767762 0.121334 5.55713e-22)
(0.809159 -0.0668981 -1.41269e-21)
(0.838009 -0.145368 5.05176e-23)
(0.829343 -0.320777 -3.01282e-22)
(0.800642 -0.295302 0)
(0.788303 -0.344644 -6.93185e-23)
(0.78927 -0.198149 6.24781e-25)
(0.766122 0.0827619 0)
(0.284265 0.210191 1.03014e-19)
(0.324037 0.207268 -2.07658e-19)
(0.366531 0.194423 1.03056e-19)
(0.413152 0.1707 1.13738e-19)
(0.462962 0.135093 -2.28338e-19)
(0.514591 0.0864208 -4.60072e-21)
(0.567175 0.0237339 1.16713e-19)
(0.620138 -0.0508619 1.18593e-19)
(0.672417 -0.137713 -1.16158e-19)
(0.722451 -0.234303 0)
(0.767988 -0.335232 -9.86428e-20)
(0.804781 -0.431135 1.82268e-19)
(0.827299 -0.509735 -8.3991e-20)
(0.831355 -0.560433 0)
(0.816825 -0.579291 0)
(0.787428 -0.570484 6.13358e-22)
(0.748257 -0.542774 -2.60479e-20)
(0.704467 -0.504158 2.53075e-20)
(0.658186 -0.462703 0)
(0.603881 -0.429727 1.2551e-20)
(0.535118 -0.410296 -2.26368e-20)
(0.459821 -0.388169 2.12631e-20)
(0.402846 -0.330347 -2.22949e-20)
(0.386699 -0.216109 -8.96671e-22)
(0.412991 -0.0591009 2.37601e-20)
(0.467684 0.10495 -1.17451e-20)
(0.534351 0.246224 -3.54402e-22)
(0.60099 0.347835 -3.98097e-21)
(0.659682 0.409378 -5.73138e-23)
(0.70102 0.449748 4.09844e-21)
(0.716316 0.493889 3.01686e-22)
(0.708412 0.542375 -6.25925e-21)
(0.698128 0.55279 1.39168e-20)
(0.709717 0.470992 -8.68859e-21)
(0.750196 0.285169 0)
(0.808469 0.0439267 -1.17197e-20)
(0.862137 -0.174188 1.12949e-20)
(0.897182 -0.320988 -5.84273e-21)
(0.903226 -0.388452 7.32948e-21)
(0.896608 -0.403804 -5.03224e-22)
(0.877104 -0.386353 0)
(0.843451 -0.375251 -2.59437e-22)
(0.782824 -0.359044 6.46528e-22)
(0.722858 -0.320635 0)
(0.692558 -0.219182 2.19771e-21)
(0.706185 -0.0676676 -8.65085e-22)
(0.754855 0.0797398 4.34872e-22)
(0.797209 0.227028 3.59099e-22)
(0.818208 0.32124 0)
(0.789406 0.423477 0)
(0.764912 0.399082 -1.59983e-21)
(0.74425 0.306454 2.91888e-21)
(0.776137 0.116437 -1.8425e-21)
(0.818211 -0.0741429 6.29299e-22)
(0.848294 -0.146436 9.3566e-22)
(0.840249 -0.316016 3.01564e-22)
(0.807582 -0.29152 -3.43953e-22)
(0.794647 -0.343186 0)
(0.79311 -0.196741 -3.00479e-23)
(0.76873 0.0847932 1.77694e-23)
(0.405992 0.16626 1.02212e-19)
(0.445433 0.163262 -1.01727e-19)
(0.487314 0.15072 8.41199e-22)
(0.533523 0.128432 -8.42517e-22)
(0.583049 0.0954405 8.95404e-22)
(0.634139 0.0499356 -9.17348e-22)
(0.687582 -0.00823614 1.79766e-21)
(0.741513 -0.0782231 0)
(0.793674 -0.160288 -1.75589e-21)
(0.843055 -0.251196 1.67832e-21)
(0.886015 -0.3454 1.55696e-21)
(0.917121 -0.43344 -1.44164e-21)
(0.93049 -0.503614 0)
(0.922828 -0.546695 0)
(0.895744 -0.560139 7.86806e-22)
(0.854915 -0.548456 0)
(0.80665 -0.520066 -4.54854e-22)
(0.755862 -0.48237 0)
(0.70584 -0.440154 -1.34057e-20)
(0.654197 -0.400696 2.34625e-20)
(0.591971 -0.372983 -1.80566e-20)
(0.516412 -0.353112 8.00737e-21)
(0.444292 -0.315829 7.54853e-21)
(0.403486 -0.232241 -7.33121e-21)
(0.408168 -0.0998049 -8.39465e-21)
(0.450371 0.0540678 8.14693e-21)
(0.5129 0.196515 0)
(0.581131 0.305909 1.72895e-22)
(0.644201 0.37866 0)
(0.690416 0.43149 0)
(0.711241 0.486709 9.30277e-21)
(0.710928 0.542399 -9.52862e-21)
(0.710567 0.55545 8.28218e-22)
(0.732641 0.473092 1.09075e-21)
(0.781711 0.285118 -1.30309e-21)
(0.845323 0.0412885 -1.0715e-20)
(0.899551 -0.17775 1.04017e-20)
(0.931342 -0.322131 -7.99567e-21)
(0.931009 -0.386216 6.80201e-21)
(0.916619 -0.39968 1.01449e-21)
(0.89151 -0.379015 -2.46618e-21)
(0.857303 -0.36186 3.45807e-22)
(0.797007 -0.342252 1.35153e-21)
(0.735516 -0.309583 0)
(0.700698 -0.221456 -7.41302e-22)
(0.710038 -0.0819236 9.96762e-22)
(0.757257 0.0617204 -1.35471e-21)
(0.797868 0.215076 -3.6139e-22)
(0.82039 0.318959 0)
(0.792277 0.429234 5.4598e-22)
(0.772455 0.40649 -9.2846e-22)
(0.753492 0.308313 4.06508e-23)
(0.786685 0.112244 -7.50161e-22)
(0.828716 -0.081207 1.10086e-21)
(0.859772 -0.147435 -9.97729e-22)
(0.852155 -0.310761 0)
(0.815255 -0.287252 3.44108e-22)
(0.80147 -0.341406 0)
(0.797627 -0.195233 0)
(0.772144 0.0868536 -1.73904e-23)