/*--------------------------------*- C++ -*----------------------------------*\
| =========                 |                                                 |
| \\      /  F ield         | OpenFOAM: The Open Source CFD Toolbox           |
|  \\    /   O peration     | Version:  2512                                  |
|   \\  /    A nd           | Website:  www.openfoam.com                      |
|    \\/     M anipulation  |                                                 |
\*---------------------------------------------------------------------------*/
FoamFile
{
    version     2.0;
    format      ascii;
    arch        "LSB;label=32;scalar=64";
    class       volVectorField;
    location    "75";
    object      U;
}
// * * * * * * * * * * * * * * * * * * * * * * * * * * * * * * * * * * * * * //

dimensions      [0 1 -1 0 0 0 0];

internalField   nonuniform List<vector> 
13248
(
(-0.0119269 0.0104822 6.19403e-20)
(-0.0224316 0.0208565 0)
(-0.0209019 0.0247815 -1.17252e-19)
(-0.00765331 0.0249212 1.10455e-19)
(0.0172037 0.0231336 1.03296e-19)
(0.0536126 0.0207371 0)
(0.101476 0.0186823 0)
(0.160517 0.0176537 2.44861e-19)
(0.230126 0.0181269 -2.51759e-21)
(0.309243 0.0203949 -2.11492e-19)
(0.39629 0.0245732 1.92806e-19)
(0.489195 0.0305987 -1.2019e-19)
(0.585474 0.0382353 0)
(0.682398 0.0470912 -2.00142e-19)
(0.777175 0.0566518 3.72238e-19)
(0.86716 0.0663241 -8.76149e-20)
(0.950027 0.0754931 -1.56423e-19)
(1.02392 0.0835532 1.4684e-19)
(1.08755 0.0900451 0)
(1.14024 0.0943457 0)
(1.182 0.0968378 0)
(1.21299 0.0953223 0)
(1.23513 0.0948997 4.71301e-20)
(1.24815 0.0826243 1.77248e-19)
(-0.0122628 0.00981179 -1.87236e-19)
(-0.0192937 0.0182814 1.27869e-19)
(-0.0102688 0.0208035 -1.13353e-21)
(0.0138456 0.0200872 -1.68994e-19)
(0.052524 0.0181107 -1.03182e-19)
(0.105316 0.0163252 -9.74454e-20)
(0.171575 0.0157553 -1.77601e-19)
(0.250229 0.0170841 1.68152e-19)
(0.339598 0.0206989 0)
(0.43731 0.0267072 1.37008e-21)
(0.540362 0.0349469 3.19132e-21)
(0.645305 0.0450103 1.20991e-19)
(0.74852 0.0562909 0)
(0.846536 0.0680523 0)
(0.936327 0.07951 1.37159e-19)
(1.01554 0.0899157 -2.57493e-19)
(1.08265 0.0986317 1.54125e-19)
(1.13701 0.105183 -1.44694e-19)
(1.17882 0.109293 -6.45395e-20)
(1.20905 0.110852 -1.18396e-19)
(1.22906 0.110038 -5.09384e-20)
(1.24105 0.106692 -9.62731e-20)
(1.2461 0.10263 1.38747e-19)
(1.24792 0.0940156 4.07784e-20)
(-0.0114503 0.00842323 0)
(-0.0124822 0.0142394 0)
(0.00687196 0.0153535 5.97838e-20)
(0.0449165 0.0143403 5.49623e-20)
(0.100522 0.0131809 -1.55209e-21)
(0.172512 0.0133627 -1.00918e-19)
(0.259205 0.0158609 0)
(0.358149 0.0211914 -8.33476e-20)
(0.466008 0.0294451 7.80381e-20)
(0.578674 0.0403177 8.31898e-22)
(0.691582 0.0531657 -1.31103e-19)
(0.80016 0.0671016 -1.18885e-19)
(0.9003 0.0811192 2.82363e-21)
(0.988754 0.0942292 -9.67653e-20)
(1.0634 0.10558 2.33013e-19)
(1.12334 0.114549 0)
(1.16883 0.120785 -1.5102e-19)
(1.20113 0.12421 7.29391e-20)
(1.22219 0.125004 6.44826e-20)
(1.2343 0.123431 0)
(1.2399 0.120133 5.3723e-20)
(1.24107 0.114953 -1.88349e-19)
(1.23931 0.110135 1.7681e-19)
(1.23752 0.101505 1.1495e-19)
(-0.00916386 0.00642126 -6.66588e-20)
(-0.0011199 0.00906505 -6.89769e-20)
(0.0317679 0.00904561 6.21923e-20)
(0.0869221 0.00860927 0)
(0.16228 0.00958656 0)
(0.255422 0.0133354 -2.27249e-21)
(0.362988 0.0205606 0)
(0.480515 0.0313374 -2.55108e-19)
(0.602604 0.0451768 2.36136e-19)
(0.723411 0.061132 -2.90096e-19)
(0.837311 0.0779662 6.57688e-20)
(0.939572 0.0943589 0)
(1.02685 0.10911 1.08354e-19)
(1.09743 0.121301 -2.00295e-19)
(1.15124 0.130385 4.74236e-20)
(1.18956 0.1362 1.2153e-19)
(1.21466 0.138921 -5.25794e-21)
(1.22931 0.138958 -1.36182e-19)
(1.23636 0.136842 0)
(1.23833 0.13312 0)
(1.23723 0.128331 -4.93061e-20)
(1.23447 0.122619 4.45406e-20)
(1.23087 0.117334 1.62136e-19)
(1.22747 0.109328 -1.52194e-19)
(-0.00506597 0.00398523 -7.06008e-20)
(0.015637 0.00332875 -7.01472e-20)
(0.0655049 0.00286253 1.97209e-19)
(0.1408 0.00427221 -1.19256e-19)
(0.238014 0.00901331 1.12254e-19)
(0.352792 0.0180429 2.03e-19)
(0.479413 0.0314587 -1.43384e-19)
(0.610994 0.0485498 -1.7337e-19)
(0.740185 0.0679865 4.17417e-21)
(0.860134 0.0880951 2.20161e-19)
(0.965395 0.107176 0)
(1.05254 0.123794 6.01914e-20)
(1.12037 0.136982 0)
(1.16965 0.146306 -9.71344e-20)
(1.20268 0.151834 1.36315e-19)
(1.22263 0.154 9.87012e-22)
(1.23289 0.153448 -3.58537e-20)
(1.23656 0.150865 6.67724e-20)
(1.23617 0.146875 5.80902e-20)
(1.23352 0.141962 -5.22852e-20)
(1.22974 0.136505 4.92952e-20)
(1.2255 0.130585 -4.45305e-20)
(1.22101 0.125028 0)
(1.21703 0.117469 -3.42848e-20)
(0.00118701 0.0013627 7.05907e-20)
(0.03853 -0.00218913 7.4229e-20)
(0.108827 -0.00190772 -6.61063e-20)
(0.206747 0.00301843 1.22968e-19)
(0.326644 0.0133285 -1.15741e-19)
(0.461491 0.0291779 1.04165e-19)
(0.602761 0.049643 -5.01452e-20)
(0.741324 0.0729253 1.30297e-19)
(0.868796 0.0967912 -8.20328e-20)
(0.978787 0.119054 1.44244e-19)
(1.06766 0.13798 -3.32428e-19)
(1.13463 0.15253 1.22186e-19)
(1.18133 0.1624 -1.05992e-19)
(1.21098 0.167896 9.9557e-20)
(1.22752 0.16972 8.56334e-20)
(1.23484 0.168729 7.50042e-20)
(1.23623 0.16575 -2.09169e-19)
(1.23418 0.161465 1.29711e-19)
(1.23035 0.156368 -5.8093e-20)
(1.22575 0.150787 1.52387e-19)
(1.2209 0.144922 -4.92181e-20)
(1.21605 0.13885 -1.20889e-19)
(1.2113 0.133003 1.11788e-19)
(1.20692 0.12578 3.42741e-20)
(0.00991776 -0.00113171 0)
(0.0680845 -0.00653914 6.85547e-22)
(0.161916 -0.00379619 1.38755e-19)
(0.28391 0.00660138 -1.30083e-19)
(0.425529 0.0241933 -1.1681e-19)
(0.576548 0.0478407 2.16842e-19)
(0.72579 0.0752376 -1.00579e-19)
(0.862901 0.103434 1.33302e-19)
(0.980112 0.129578 -3.13595e-21)
(1.07324 0.151501 -7.53302e-20)
(1.14174 0.168016 1.63148e-19)
(1.18796 0.178917 -2.40816e-19)
(1.216 0.18475 0)
(1.23052 0.186482 -4.70354e-20)
(1.2359 0.185195 -1.25136e-19)
(1.23564 0.181862 3.94445e-20)
(1.23228 0.177238 1.52321e-21)
(1.22744 0.171848 -8.62514e-20)
(1.22205 0.16602 5.27169e-21)
(1.2166 0.159949 9.98892e-20)
(1.21129 0.153747 -4.4768e-20)
(1.20618 0.147481 -1.71916e-20)
(1.20125 0.141319 5.24974e-20)
(1.19661 0.134345 0)
(0.0213765 -0.00311406 0)
(0.104469 -0.00865094 3.77049e-20)
(0.224185 -0.00129802 -1.81813e-19)
(0.370216 0.016577 6.58942e-20)
(0.530542 0.0427213 -6.20172e-20)
(0.691778 0.0742459 -5.65961e-20)
(0.841111 0.107354 -9.94961e-20)
(0.968731 0.138269 4.99199e-20)
(1.06934 0.164139 4.30636e-20)
(1.14224 0.183465 0)
(1.19033 0.196059 9.72832e-20)
(1.2185 0.202685 -1.44606e-19)
(1.23222 0.204596 1.07422e-19)
(1.23642 0.20313 4.70597e-20)
(1.23496 0.199444 -3.84728e-20)
(1.23051 0.194406 -3.19582e-20)
(1.22475 0.188598 -2.9858e-20)
(1.2186 0.182377 8.95684e-20)
(1.21252 0.175946 0)
(1.20671 0.169418 4.50242e-20)
(1.20121 0.162858 3.80093e-20)
(1.19598 0.156315 -9.4291e-20)
(1.19097 0.149805 -6.49901e-20)
(1.18617 0.142974 5.98917e-20)
(0.0356781 -0.00413855 -4.11613e-20)
(0.147364 -0.00740296 -1.7208e-21)
(0.294164 0.00696815 3.707e-20)
(0.462444 0.0340721 1.03577e-19)
(0.636573 0.0692763 2.999e-20)
(0.800882 0.107721 -5.80805e-20)
(0.942709 0.144424 5.28784e-20)
(1.05477 0.175472 -4.61071e-20)
(1.13561 0.198752 8.25453e-20)
(1.18832 0.213931 3.48874e-20)
(1.21859 0.221947 -9.92724e-20)
(1.23275 0.22437 2.90679e-20)
(1.2365 0.222853 4.94003e-20)
(1.23419 0.218804 -2.43613e-20)
(1.22881 0.213261 0)
(1.22216 0.206902 3.59703e-20)
(1.21522 0.200133 6.06142e-20)
(1.20847 0.193181 1.02155e-20)
(1.20209 0.186164 -5.04474e-20)
(1.19612 0.17915 2.09871e-20)
(1.19054 0.17218 0)
(1.18527 0.165274 -1.64709e-20)
(1.18023 0.158399 -1.57928e-20)
(1.17534 0.151592 0)
(0.0527394 -0.00372196 0)
(0.195871 -0.00171938 2.16141e-20)
(0.369516 0.0220991 3.99206e-20)
(0.556529 0.0596263 -1.05922e-19)
(0.738297 0.103457 3.43351e-20)
(0.898544 0.146958 0)
(1.02687 0.184686 5.10866e-20)
(1.12006 0.21344 -7.1317e-20)
(1.18091 0.232435 -4.12911e-20)
(1.21572 0.242678 1.85649e-20)
(1.23185 0.246076 -2.95336e-20)
(1.23598 0.24469 7.17947e-20)
(1.23324 0.240276 3.56216e-20)
(1.22707 0.234119 -2.49371e-20)
(1.21955 0.227048 -2.48873e-21)
(1.21179 0.219552 -6.71108e-20)
(1.20431 0.211892 3.04976e-20)
(1.1973 0.204206 -8.58474e-22)
(1.19082 0.196565 0)
(1.18483 0.18901 -2.10092e-20)
(1.17925 0.181565 0)
(1.17401 0.174222 4.72631e-20)
(1.169 0.166972 -5.6106e-20)
(1.16409 0.160056 2.55555e-20)
(0.0722339 -0.00138154 -1.13764e-20)
(0.248489 0.00932294 -5.45415e-20)
(0.447188 0.044775 6.21345e-20)
(0.648057 0.0931352 3.63363e-20)
(0.830939 0.144236 -1.73386e-20)
(0.981105 0.190357 2.9015e-20)
(1.09222 0.226563 -1.40935e-20)
(1.16581 0.251106 2.33015e-20)
(1.20847 0.264813 0)
(1.22868 0.269914 5.22901e-20)
(1.23436 0.268978 -2.32091e-21)
(1.23173 0.264247 -4.19046e-20)
(1.22498 0.257368 1.78051e-20)
(1.21663 0.249403 -1.99226e-20)
(1.20802 0.240968 -7.42639e-21)
(1.19976 0.23239 8.76642e-21)
(1.19207 0.223831 -6.63845e-21)
(1.18501 0.215372 -3.60421e-20)
(1.17855 0.207054 2.20359e-20)
(1.17263 0.198903 4.44841e-21)
(1.16715 0.190925 3.89929e-21)
(1.162 0.183097 3.42044e-21)
(1.15708 0.175475 0)
(1.15222 0.168304 0)
(0.0936447 0.00333056 1.13842e-20)
(0.303316 0.0264069 -1.13522e-20)
(0.523851 0.0751734 -2.07164e-20)
(0.732929 0.133887 0)
(0.910905 0.190187 -8.62037e-21)
(1.04668 0.236329 -7.77153e-21)
(1.13907 0.26884 -1.32149e-20)
(1.19418 0.287887 0)
(1.22148 0.29588 0)
(1.23047 0.295987 0)
(1.22883 0.29111 0)
(1.22188 0.283432 0)
(1.21282 0.274374 -1.11333e-20)
(1.20335 0.264756 5.05599e-21)
(1.19427 0.255008 8.72589e-21)
(1.18586 0.245333 4.08125e-21)
(1.17819 0.235828 9.96529e-21)
(1.17123 0.226536 0)
(1.16493 0.217483 -2.34015e-21)
(1.1592 0.20868 -2.25845e-21)
(1.15392 0.200115 -3.90552e-21)
(1.14898 0.191772 -3.42592e-21)
(1.14425 0.183778 0)
(1.13956 0.176213 2.3999e-21)
(-0.000913649 -0.016141 7.75675e-21)
(-0.00594194 -0.0328532 -8.05446e-21)
(-0.0157625 -0.0390217 -1.52496e-20)
(-0.0280005 -0.0380466 0)
(-0.0413493 -0.0325825 -2.04591e-20)
(-0.0551594 -0.0245339 6.4715e-21)
(-0.0689999 -0.0151094 -1.20548e-20)
(-0.0825768 -0.00494216 0)
(-0.0956947 0.00575811 0)
(-0.108222 0.0170508 0)
(-0.120056 0.0291222 0)
(-0.131101 0.0421931 0)
(-0.141265 0.0564572 1.56989e-22)
(-0.150451 0.0720452 -7.92805e-21)
(-0.15855 0.0890126 1.4525e-20)
(-0.165443 0.107335 2.05238e-20)
(-0.171001 0.126901 6.17722e-21)
(-0.175092 0.147514 0)
(-0.177592 0.168886 5.66058e-21)
(-0.178405 0.190648 -1.56437e-20)
(-0.177467 0.212362 -9.64499e-21)
(-0.174738 0.233543 -9.01262e-21)
(-0.17029 0.253706 0)
(-0.164566 0.272446 0)
(-0.000247986 -0.0118081 -2.31474e-20)
(-0.00455163 -0.0228604 4.00435e-20)
(-0.0138693 -0.0254728 -1.48478e-20)
(-0.0256817 -0.0223519 -2.84771e-20)
(-0.0385709 -0.0156955 4.03874e-20)
(-0.0518086 -0.00710199 -2.52719e-20)
(-0.0649201 0.00242343 3.58214e-20)
(-0.0775914 0.0123739 2.20879e-20)
(-0.08962 0.0226101 0)
(-0.100866 0.0332227 -1.99487e-20)
(-0.111216 0.044417 9.11852e-23)
(-0.120563 0.0564156 1.76585e-20)
(-0.128797 0.069404 2.42057e-20)
(-0.135799 0.0835004 3.02722e-20)
(-0.141439 0.0987452 -1.46526e-20)
(-0.145575 0.115099 -4.01282e-20)
(-0.148053 0.132444 1.19739e-20)
(-0.148716 0.150586 -4.56893e-20)
(-0.147408 0.169263 0)
(-0.143995 0.188158 1.03146e-20)
(-0.138368 0.206914 9.63052e-21)
(-0.130407 0.225166 8.99878e-21)
(-0.120013 0.242609 0)
(-0.107713 0.258988 0)
(-3.36179e-05 -0.00773362 0)
(-0.00403603 -0.0135472 7.81168e-20)
(-0.0128382 -0.0129658 -2.95175e-20)
(-0.0239434 -0.00802802 2.81317e-20)
(-0.0359069 -0.00047212 -7.86067e-20)
(-0.0479606 0.00841065 0)
(-0.0596077 0.0178128 -4.64049e-20)
(-0.0705262 0.0273416 2.158e-20)
(-0.0805127 0.036914 -4.04065e-20)
(-0.0894265 0.0466438 1.83863e-20)
(-0.0971512 0.0567382 1.06782e-19)
(-0.103574 0.0674163 -5.01155e-20)
(-0.108574 0.0788567 -7.82296e-20)
(-0.112019 0.09117 -2.82526e-20)
(-0.113765 0.104388 4.11645e-22)
(-0.113655 0.118465 1.01345e-19)
(-0.111525 0.13328 -4.73931e-20)
(-0.1072 0.148641 9.77118e-22)
(-0.100502 0.164298 0)
(-0.0912663 0.179966 -3.7505e-20)
(-0.0793531 0.195337 0)
(-0.0645877 0.210135 -3.4444e-20)
(-0.0468332 0.224222 1.2681e-19)
(-0.0259612 0.237981 7.71054e-22)
(-0.000217391 -0.00411991 0)
(-0.00434018 -0.00535089 -4.09441e-22)
(-0.0127211 -0.00207545 2.89193e-20)
(-0.0229891 0.00426474 -2.71927e-20)
(-0.0337323 0.0123652 2.61007e-20)
(-0.0441752 0.0212316 1.45148e-19)
(-0.0538188 0.0302453 -4.55828e-20)
(-0.0623459 0.0391182 -4.22584e-20)
(-0.0695605 0.0478134 7.98846e-20)
(-0.0753302 0.0564562 -1.12124e-19)
(-0.0795454 0.0652484 3.45706e-20)
(-0.0820967 0.0743998 3.20381e-20)
(-0.0828646 0.0840812 0)
(-0.0817159 0.094399 2.86407e-20)
(-0.0785039 0.105384 0)
(-0.0730696 0.116988 4.78455e-20)
(-0.0652529 0.129101 -9.01617e-20)
(-0.0548892 0.141534 2.21944e-20)
(-0.0417949 0.15405 7.88258e-20)
(-0.0258018 0.166365 3.74642e-20)
(-0.00679142 0.178172 0)
(0.015408 0.18922 -9.76937e-20)
(0.0414525 0.199547 3.08001e-20)
(0.0716786 0.210039 0)
(-0.000735329 -0.00104622 0)
(-0.00538049 0.00153 -9.14828e-20)
(-0.0135251 0.00690389 -2.8701e-20)
(-0.0229625 0.0141499 -5.40829e-20)
(-0.0323513 0.0223654 5.09255e-20)
(-0.0409354 0.0308396 -4.81225e-20)
(-0.0482318 0.0391355 8.92382e-20)
(-0.0539399 0.0470648 4.17305e-20)
(-0.0578809 0.0546317 -1.17929e-19)
(-0.0599393 0.0619667 7.25983e-20)
(-0.0600219 0.0692608 -1.02216e-19)
(-0.0580343 0.0767095 2.19661e-19)
(-0.0538699 0.0844738 -1.18097e-19)
(-0.0474072 0.0926566 5.37982e-20)
(-0.0385147 0.101291 1.50551e-19)
(-0.0270372 0.110345 -4.88801e-20)
(-0.0128261 0.119714 -4.38436e-20)
(0.00425981 0.12923 -4.16181e-20)
(0.0243802 0.138678 0)
(0.0476858 0.147779 -7.05045e-20)
(0.0742953 0.156224 -6.62738e-20)
(0.104306 0.163717 9.36674e-20)
(0.138223 0.170246 1.19467e-19)
(0.178989 0.176628 -1.11433e-19)
(-0.00154073 0.00151758 0)
(-0.00707821 0.00711704 -1.20449e-19)
(-0.0152148 0.0139455 2.77627e-22)
(-0.0239083 0.0215395 1.07172e-19)
(-0.0319064 0.0293757 0)
(-0.0384971 0.0370166 0)
(-0.0432309 0.0442035 0)
(-0.0458355 0.0508474 -4.11112e-20)
(-0.0461562 0.0569938 6.97376e-22)
(-0.0441003 0.0627786 7.18595e-20)
(-0.0395967 0.0683804 -9.98762e-20)
(-0.0325715 0.0739787 6.3906e-22)
(-0.0229376 0.0797226 0)
(-0.0105917 0.0857116 -5.37744e-20)
(0.00458475 0.0919864 4.77782e-20)
(0.022722 0.0985288 -1.36631e-19)
(0.0439564 0.105251 1.6859e-19)
(0.0684219 0.112015 3.75043e-20)
(0.0962551 0.118629 -9.70686e-22)
(0.127589 0.124848 -1.36756e-19)
(0.162529 0.130382 -6.31164e-20)
(0.201325 0.134883 2.11221e-19)
(0.242989 0.138179 -1.41107e-19)
(0.296835 0.140461 0)
(-0.00261278 0.00367365 5.79319e-20)
(-0.00936606 0.0115857 6.0119e-20)
(-0.0176918 0.0192313 -5.64563e-20)
(-0.0257015 0.0266013 -1.06165e-19)
(-0.0322493 0.0335437 9.99642e-20)
(-0.0366901 0.0398902 -9.30824e-20)
(-0.0386229 0.0455601 1.31033e-19)
(-0.0378103 0.0505671 -4.09082e-20)
(-0.0341224 0.0550043 7.61117e-20)
(-0.0274849 0.0590185 0)
(-0.0178411 0.0627808 6.37998e-20)
(-0.00512976 0.066458 -1.20741e-19)
(0.0107263 0.0701898 1.1116e-19)
(0.0298228 0.0740743 -1.04403e-19)
(0.0522725 0.0781601 0)
(0.0781999 0.0824428 8.88348e-20)
(0.107734 0.0868634 1.6247e-19)
(0.141003 0.0913122 -1.53439e-19)
(0.17813 0.0956282 -7.03001e-20)
(0.219247 0.0996039 -6.69653e-20)
(0.264237 0.102963 1.87598e-19)
(0.314353 0.105462 5.85805e-20)
(0.364172 0.106709 -5.43709e-20)
(0.435898 0.105998 5.22624e-20)
(-0.00394949 0.00553987 -5.79399e-20)
(-0.0121583 0.0151633 1.79475e-19)
(-0.0207335 0.0230503 -5.62907e-20)
(-0.027952 0.0296748 1.05699e-19)
(-0.0327958 0.035262 -9.9525e-20)
(-0.0347059 0.039913 2.4592e-22)
(-0.0333372 0.0437279 4.35049e-20)
(-0.0284823 0.0468304 1.5969e-19)
(-0.0200216 0.0493704 -1.87244e-21)
(-0.00787787 0.0515174 -7.07125e-20)
(0.00801642 0.0534464 0)
(0.027737 0.0553214 -5.8133e-20)
(0.0513753 0.0572807 1.10977e-19)
(0.0790377 0.0594262 1.00907e-19)
(0.11084 0.0618167 -4.80625e-20)
(0.146895 0.0644639 -7.18836e-22)
(0.187304 0.0673312 -4.06655e-20)
(0.232139 0.0703329 7.42798e-20)
(0.281414 0.0733284 7.02899e-20)
(0.335248 0.0761748 -6.56833e-20)
(0.392659 0.0784741 6.0786e-20)
(0.457328 0.0804746 -5.72535e-20)
(0.515192 0.0810118 0)
(0.608486 0.080004 -5.22172e-20)
(-0.00553847 0.00719435 5.79955e-20)
(-0.0152932 0.0180248 -5.98687e-20)
(-0.0239207 0.0256776 5.6531e-20)
(-0.0299144 0.0311515 0)
(-0.0324122 0.0350575 0)
(-0.0309516 0.0377681 9.20379e-20)
(-0.0252361 0.039568 -8.66868e-20)
(-0.0150679 0.040699 7.89306e-20)
(-0.000308682 0.0413805 -3.71868e-19)
(0.0191534 0.0418203 8.64509e-22)
(0.0434237 0.0422125 6.36201e-20)
(0.0726071 0.0427313 0)
(0.106803 0.0435222 -1.0792e-19)
(0.146091 0.0446934 2.01026e-19)
(0.190516 0.0463095 -1.40294e-19)
(0.240064 0.0483862 -2.13719e-19)
(0.294642 0.0508886 1.90977e-21)
(0.354065 0.0537315 1.47866e-19)
(0.417964 0.0567495 0)
(0.486314 0.0599061 0)
(0.556601 0.062448 -6.07824e-20)
(0.635331 0.0655286 5.7249e-20)
(0.699155 0.0662638 -2.17079e-19)
(0.808232 0.0677584 2.03532e-19)
(-0.0073178 0.00863393 0)
(-0.0184669 0.0202071 0)
(-0.0265773 0.027264 -1.6966e-19)
(-0.0304482 0.0313454 5.39412e-20)
(-0.0294037 0.0334454 7.90446e-22)
(-0.023077 0.0342067 9.33858e-20)
(-0.0112028 0.0340998 0)
(0.00642982 0.0334918 -8.02175e-20)
(0.0299961 0.0326843 7.43435e-20)
(0.059642 0.0319366 -1.3626e-19)
(0.095478 0.0314743 9.15542e-22)
(0.137561 0.0314878 1.16317e-19)
(0.185867 0.0321263 -1.87275e-21)
(0.240259 0.0334894 9.74842e-20)
(0.300465 0.0356193 -1.40052e-19)
(0.366051 0.0384951 0)
(0.436414 0.0420302 1.57462e-19)
(0.510795 0.0460798 -2.2148e-19)
(0.588164 0.0503868 6.84054e-20)
(0.667969 0.0549131 0)
(0.746802 0.0586479 5.99021e-20)
(0.831054 0.0632078 2.27516e-19)
(0.896316 0.0643548 -2.13511e-19)
(1.00221 0.0685184 -2.55441e-19)
(-0.00914364 0.00976488 1.7656e-19)
(-0.0211897 0.0215798 -2.43121e-19)
(-0.0277623 0.0277784 4.91139e-22)
(-0.0280733 0.0304051 5.40549e-20)
(-0.0216631 0.0308107 -1.00516e-19)
(-0.00825902 0.0298943 -9.29859e-20)
(0.0123755 0.0283087 1.72142e-19)
(0.0404508 0.0265481 -2.67564e-21)
(0.0761259 0.0250005 -1.50046e-19)
(0.119475 0.0239796 2.74426e-19)
(0.170439 0.023736 -2.38679e-21)
(0.22878 0.0244574 -1.18497e-19)
(0.294039 0.026261 0)
(0.365506 0.0291849 0)
(0.442219 0.0331803 -4.61881e-20)
(0.522979 0.0381087 -8.54986e-20)
(0.606388 0.043747 -1.57379e-19)
(0.690914 0.0497906 1.47723e-19)
(0.774906 0.0558826 -6.84302e-20)
(0.856966 0.0616688 1.27342e-19)
(0.934527 0.0665269 -6.01248e-20)
(1.01012 0.0709714 1.12607e-19)
(1.06926 0.0721805 -2.62756e-19)
(1.14976 0.075751 5.01371e-20)
(-0.0107791 0.010431 5.94873e-20)
(-0.0227832 0.0218866 0)
(-0.0263136 0.027035 1.15452e-19)
(-0.0210931 0.0283157 -1.08763e-19)
(-0.00691571 0.0273746 1.00606e-19)
(0.0163745 0.0253405 0)
(0.0489313 0.0230313 0)
(0.0908536 0.0210548 -8.00424e-20)
(0.142099 0.0198691 2.41392e-21)
(0.202396 0.0198133 7.0676e-20)
(0.271163 0.0211184 -6.30416e-20)
(0.347461 0.0239049 1.19171e-19)
(0.429976 0.0281751 0)
(0.517051 0.0338089 1.99256e-19)
(0.606758 0.0405664 -3.71039e-19)
(0.697001 0.0480994 2.5825e-19)
(0.785633 0.05598 1.57256e-19)
(0.870574 0.0636976 -1.47613e-19)
(0.949962 0.0708206 0)
(1.02214 0.0766197 0)
(1.08597 0.081236 0)
(1.14097 0.0831075 0)
(1.18442 0.0838999 5.20367e-20)
(1.22907 0.0818901 -1.94108e-19)
(-0.157122 0.292293 -5.68997e-21)
(-0.146526 0.311141 5.71681e-21)
(-0.131758 0.323163 -1.76276e-22)
(-0.112777 0.326288 0)
(-0.0890438 0.318444 -5.5914e-21)
(-0.0602833 0.297437 1.10371e-20)
(-0.0264254 0.261498 1.71869e-22)
(0.0124546 0.209601 -5.46048e-21)
(0.0558367 0.141748 0)
(0.102532 0.0588808 0)
(0.151437 -0.0361827 -3.44238e-22)
(0.201703 -0.139631 -3.25138e-22)
(0.251767 -0.245266 -4.66948e-21)
(0.300107 -0.344923 4.24878e-21)
(0.344537 -0.429548 0)
(0.381929 -0.491827 0)
(0.408752 -0.529182 2.12951e-21)
(0.421071 -0.546018 -3.24884e-22)
(0.414602 -0.552728 -1.59952e-21)
(0.388917 -0.557697 -8.2058e-23)
(0.35409 -0.55539 0)
(0.330504 -0.523669 0)
(0.336776 -0.438675 0)
(0.376183 -0.295243 0)
(0.438835 -0.111109 0)
(0.512023 0.0824803 0)
(0.584381 0.25148 4.78217e-22)
(0.646192 0.373105 -7.55476e-22)
(0.690514 0.443937 0)
(0.718168 0.471602 0)
(0.732653 0.471989 -2.84794e-22)
(0.727612 0.472513 2.76793e-22)
(0.694862 0.49086 1.41119e-22)
(0.64629 0.501336 0)
(0.613265 0.446314 0)
(0.619661 0.294074 4.60639e-22)
(0.660291 0.0787143 -4.47748e-22)
(0.71532 -0.132836 0)
(0.763109 -0.289515 3.1245e-22)
(0.799126 -0.374439 -4.40391e-22)
(0.821693 -0.404012 1.02859e-22)
(0.820701 -0.418243 0)
(0.784114 -0.44057 -1.5112e-22)
(0.728357 -0.433532 1.46952e-22)
(0.685193 -0.351734 0)
(0.684825 -0.175613 0)
(0.713489 0.0183336 -8.64947e-23)
(0.765921 0.18896 2.31704e-22)
(0.800075 0.290921 0)
(0.802482 0.370352 0)
(0.765798 0.410785 -4.46386e-23)
(0.724769 0.377993 -3.48118e-24)
(0.709708 0.270503 8.60215e-25)
(0.740974 0.062405 4.95275e-23)
(0.760356 -0.0731205 0)
(0.782462 -0.267438 0)
(0.756329 -0.316045 0)
(0.732641 -0.357084 0)
(0.730994 -0.302679 0)
(0.716684 -0.0222647 0)
(-0.0937637 0.276987 -5.3615e-22)
(-0.0766262 0.292505 -2.3069e-20)
(-0.0550358 0.30093 -4.82891e-22)
(-0.0286688 0.300471 2.21011e-20)
(0.00269928 0.289038 3.65137e-22)
(0.0387471 0.264549 0)
(0.0792112 0.225462 -2.3827e-20)
(0.123575 0.171026 4.78974e-20)
(0.170988 0.101288 -2.40709e-20)
(0.220158 0.0173734 2.37271e-20)
(0.270014 -0.0780268 -2.27165e-20)
(0.31965 -0.181115 2.07308e-20)
(0.367721 -0.28574 -2.02106e-20)
(0.412426 -0.383127 -5.60312e-22)
(0.45099 -0.463364 -1.36501e-20)
(0.480153 -0.518576 1.32653e-20)
(0.497408 -0.546058 -8.71657e-21)
(0.50105 -0.549959 8.23527e-21)
(0.488109 -0.54151 -5.73198e-21)
(0.455204 -0.533887 1.04273e-20)
(0.406228 -0.529317 -4.73092e-21)
(0.358327 -0.509688 -2.53808e-22)
(0.334993 -0.445784 -5.12114e-21)
(0.349149 -0.322009 1.04898e-20)
(0.395868 -0.150225 -5.35753e-21)
(0.462133 0.0381863 3.07372e-22)
(0.534432 0.209764 4.63519e-21)
(0.600919 0.339932 -5.79214e-22)
(0.653578 0.421325 -6.45606e-21)
(0.691714 0.458491 5.31408e-21)
(0.714807 0.46874 -2.40183e-21)
(0.714207 0.48094 2.76297e-22)
(0.684984 0.508315 -1.41417e-22)
(0.644219 0.51833 3.49668e-22)
(0.623359 0.452714 0)
(0.641227 0.286782 0)
(0.689267 0.061869 -2.00117e-21)
(0.747029 -0.151855 1.45823e-21)
(0.792004 -0.305054 9.47941e-22)
(0.820644 -0.384765 -1.69529e-22)
(0.835582 -0.407387 -1.06878e-21)
(0.830423 -0.411816 1.60419e-22)
(0.792115 -0.425509 0)
(0.732919 -0.417488 0)
(0.68432 -0.344178 0)
(0.678028 -0.18002 0)
(0.706067 0.00559118 2.97664e-22)
(0.758547 0.17579 -1.47726e-22)
(0.794794 0.285253 0)
(0.796977 0.374279 0)
(0.761686 0.420198 0)
(0.722605 0.38497 -1.13803e-22)
(0.708696 0.269333 -2.64672e-23)
(0.744248 0.0565183 -9.34095e-23)
(0.764443 -0.0775428 0)
(0.789653 -0.266962 0)
(0.761838 -0.311387 3.19322e-23)
(0.738382 -0.354354 6.25099e-23)
(0.738324 -0.301317 0)
(0.72066 -0.0211545 0)
(-0.00516221 0.25386 1.72263e-21)
(0.0174783 0.266734 -4.47204e-20)
(0.0446476 0.272336 4.76178e-20)
(0.0766579 0.269237 -4.45192e-20)
(0.113291 0.255402 -3.676e-22)
(0.154091 0.228993 0)
(0.198573 0.188627 -5.13738e-20)
(0.24598 0.133609 5.03695e-20)
(0.295278 0.0640737 3.88221e-22)
(0.345325 -0.018982 7.9849e-22)
(0.395142 -0.112979 7.74234e-22)
(0.443654 -0.214386 7.02311e-22)
(0.489402 -0.316889 -4.00812e-20)
(0.529952 -0.411187 3.95139e-20)
(0.561802 -0.486673 0)
(0.581585 -0.53526 7.89384e-22)
(0.587674 -0.554723 -1.76203e-20)
(0.580559 -0.549191 1.73597e-20)
(0.560354 -0.528685 0)
(0.523618 -0.507724 0)
(0.468111 -0.495776 -7.91334e-21)
(0.403726 -0.482999 1.54815e-20)
(0.353862 -0.440091 -1.53879e-20)
(0.340456 -0.340966 -6.71444e-22)
(0.367069 -0.187248 1.72297e-20)
(0.422511 -0.00714191 -1.7624e-20)
(0.491662 0.164475 1.53974e-20)
(0.560655 0.301768 -1.42452e-21)
(0.620488 0.393231 -6.08714e-21)
(0.668026 0.440788 0)
(0.698595 0.462579 0)
(0.702404 0.487206 1.81177e-21)
(0.678071 0.522973 -2.29727e-21)
(0.646537 0.532039 2.00048e-23)
(0.638026 0.456959 3.99581e-21)
(0.666828 0.2794 -3.88292e-21)
(0.721461 0.0469563 0)
(0.780995 -0.167673 4.88797e-22)
(0.822895 -0.316828 3.2178e-21)
(0.84404 -0.39175 -5.40428e-21)
(0.851014 -0.408808 1.99994e-21)
(0.841623 -0.40463 1.51887e-22)
(0.802107 -0.410049 -1.23918e-21)
(0.74039 -0.401021 9.6752e-22)
(0.687173 -0.336453 2.38915e-22)
(0.674961 -0.184977 2.58398e-22)
(0.701781 -0.0081983 -2.9842e-22)
(0.753512 0.161625 0)
(0.791368 0.278865 0)
(0.793279 0.377706 -7.7326e-22)
(0.759454 0.429299 3.81764e-22)
(0.722565 0.391958 -4.47961e-22)
(0.709844 0.268354 7.41057e-22)
(0.74917 0.0505817 9.28918e-22)
(0.770177 -0.0819522 -1.8013e-22)
(0.798264 -0.266341 2.94831e-22)
(0.768637 -0.306537 -1.87297e-22)
(0.744823 -0.351704 7.23318e-23)
(0.746181 -0.299995 0)
(0.725268 -0.0198337 0)
(0.0972654 0.223792 -9.08771e-20)
(0.124652 0.234724 -3.17196e-21)
(0.155694 0.238504 8.93737e-20)
(0.191472 0.233695 -7.3748e-22)
(0.231542 0.218707 0)
(0.275238 0.191916 0)
(0.321922 0.151924 -1.05999e-19)
(0.370833 0.0979579 -5.15196e-21)
(0.420968 0.029831 1.57692e-19)
(0.471426 -0.0505714 -3.40185e-22)
(0.521232 -0.141999 -5.15417e-20)
(0.56894 -0.240866 -4.4874e-20)
(0.612629 -0.340514 4.50588e-20)
(0.648896 -0.431027 0)
(0.673468 -0.501207 -2.92365e-20)
(0.683157 -0.543013 2.68101e-20)
(0.677403 -0.555245 0)
(0.65833 -0.542936 0)
(0.629148 -0.514556 1.00011e-20)
(0.589364 -0.482388 -1.99611e-21)
(0.533557 -0.459545 -7.27404e-21)
(0.462241 -0.446269 -6.02552e-21)
(0.392586 -0.419972 5.95511e-21)
(0.351535 -0.348236 -6.69325e-21)
(0.354274 -0.218808 -2.92866e-22)
(0.394754 -0.0519654 6.62636e-21)
(0.457252 0.116759 7.92325e-22)
(0.526501 0.259283 8.47216e-23)
(0.591818 0.3601 0)
(0.64704 0.418735 4.20099e-21)
(0.68379 0.453201 -4.32448e-21)
(0.692097 0.490348 2.76675e-22)
(0.673882 0.53375 0)
(0.652556 0.541955 -3.74078e-22)
(0.656386 0.459331 8.53215e-21)
(0.69562 0.272844 -1.65958e-20)
(0.756188 0.0345865 -1.20214e-21)
(0.816731 -0.180315 1.1496e-21)
(0.855352 -0.325265 6.69548e-21)
(0.869118 -0.395689 6.02506e-22)
(0.867869 -0.408481 -3.00176e-21)
(0.854041 -0.397067 2.60264e-21)
(0.813702 -0.394546 2.02359e-23)
(0.750408 -0.384132 8.60253e-22)
(0.693537 -0.328237 -1.07615e-21)
(0.675566 -0.190102 -1.62658e-21)
(0.700552 -0.0227196 4.9998e-22)
(0.750744 0.146609 8.18401e-22)
(0.789732 0.271727 -1.56768e-21)
(0.791387 0.380529 1.13251e-21)
(0.759183 0.438003 -4.7537e-22)
(0.72478 0.39898 2.77609e-22)
(0.71331 0.267714 4.83647e-22)
(0.755796 0.0447114 -1.53414e-21)
(0.777532 -0.0863509 5.36224e-23)
(0.808219 -0.26561 -3.48082e-22)
(0.776666 -0.301455 0)
(0.751953 -0.349051 -7.37481e-23)
(0.754443 -0.298692 -3.54667e-23)
(0.730421 -0.018307 0)
(0.207365 0.189003 9.02126e-20)
(0.237631 0.19841 -1.80791e-19)
(0.270647 0.2009 8.92927e-20)
(0.308316 0.195288 9.7842e-20)
(0.350222 0.180318 -1.96902e-19)
(0.395433 0.154378 -5.11051e-21)
(0.443202 0.116015 1.01996e-19)
(0.492642 0.064308 1.0818e-19)
(0.543856 -0.000659982 -1.05969e-19)
(0.595254 -0.0775987 0)
(0.645122 -0.165659 -1.01598e-19)
(0.692303 -0.260832 1.9295e-19)
(0.733844 -0.356213 -9.1568e-20)
(0.765214 -0.441501 0)
(0.781593 -0.505459 0)
(0.780407 -0.540617 8.11852e-22)
(0.762724 -0.546756 -3.53813e-20)
(0.732186 -0.529905 3.43744e-20)
(0.693543 -0.497881 0)
(0.64961 -0.459334 1.44039e-20)
(0.596228 -0.426168 -2.40332e-20)
(0.526802 -0.406197 1.8878e-20)
(0.447561 -0.388173 -1.69792e-20)
(0.383056 -0.341435 -7.57925e-22)
(0.35894 -0.241172 1.81944e-20)
(0.379938 -0.0940909 -9.41961e-21)
(0.432412 0.0678743 -3.44999e-22)
(0.499305 0.21317 -3.70634e-21)
(0.567775 0.322312 2.11367e-22)
(0.628408 0.392332 3.57887e-21)
(0.669967 0.440012 2.45763e-22)
(0.682944 0.489374 -4.64583e-21)
(0.67191 0.539808 1.02163e-20)
(0.661431 0.547855 -6.31862e-21)
(0.677435 0.460195 0)
(0.726642 0.267671 -1.11202e-20)
(0.792644 0.0251958 1.08868e-20)
(0.853572 -0.189579 -6.98001e-21)
(0.888779 -0.330281 8.74532e-21)
(0.895456 -0.396447 -6.33088e-22)
(0.885909 -0.40626 0)
(0.867492 -0.389181 -2.95476e-22)
(0.826681 -0.379286 6.40845e-22)
(0.762622 -0.367142 0)
(0.703028 -0.319564 1.82821e-21)
(0.679614 -0.195141 -6.93928e-22)
(0.702188 -0.0377583 4.18497e-22)
(0.750094 0.130843 3.2251e-22)
(0.78976 0.263756 0)
(0.791256 0.382596 0)
(0.760901 0.446182 -1.33734e-21)
(0.729321 0.406032 2.55777e-21)
(0.719218 0.267497 -1.72843e-21)
(0.764192 0.039109 6.81633e-22)
(0.786452 -0.0907127 1.05711e-21)
(0.819416 -0.264732 3.48408e-22)
(0.785859 -0.296074 -4.22233e-22)
(0.759773 -0.346304 0)
(0.763001 -0.297389 1.65389e-23)
(0.736034 -0.0165818 6.49333e-23)
(0.325822 0.152062 8.98153e-20)
(0.356409 0.16036 -8.93216e-20)
(0.389128 0.161747 7.27757e-22)
(0.426751 0.155768 -7.31717e-22)
(0.468884 0.141446 7.73181e-22)
(0.51437 0.117064 -7.98339e-22)
(0.562448 0.0810577 1.601e-21)
(0.612544 0.0320936 0)
(0.664356 -0.0283668 -1.64592e-21)
(0.71611 -0.101456 1.63105e-21)
(0.766163 -0.185009 1.58104e-21)
(0.812314 -0.274948 -1.53253e-21)
(0.85053 -0.364251 0)
(0.875475 -0.442638 0)
(0.882348 -0.499515 9.99452e-22)
(0.869677 -0.528538 0)
(0.840391 -0.530248 -6.20987e-22)
(0.799791 -0.510903 0)
(0.753083 -0.47814 -1.78936e-20)
(0.704394 -0.437955 3.04519e-20)
(0.652893 -0.398079 -2.11128e-20)
(0.590356 -0.368733 8.62667e-21)
(0.512357 -0.35004 5.17017e-21)
(0.433405 -0.320721 -5.02125e-21)
(0.382869 -0.250505 -5.82918e-21)
(0.379498 -0.129549 5.68469e-21)
(0.417514 0.0198783 0)
(0.47898 0.164427 1.34555e-22)
(0.547852 0.280362 0)
(0.611458 0.361615 0)
(0.656587 0.422492 6.82517e-21)
(0.674462 0.483509 -6.97755e-21)
(0.671431 0.540658 5.76896e-22)
(0.672164 0.549784 7.88696e-22)
(0.699904 0.45974 -1.01384e-21)
(0.758544 0.264111 -1.02714e-20)
(0.829893 0.0192888 9.97065e-21)
(0.890966 -0.19532 -9.51749e-21)
(0.922609 -0.332018 8.12807e-21)
(0.922649 -0.394151 1.28312e-21)
(0.904895 -0.402141 -2.95489e-21)
(0.881705 -0.381081 5.96466e-22)
(0.840732 -0.364495 1.52177e-21)
(0.776615 -0.350205 0)
(0.715096 -0.310393 -5.84842e-22)
(0.686665 -0.199865 8.75371e-22)
(0.706374 -0.0530755 -1.18352e-21)
(0.751361 0.114397 -3.24564e-22)
(0.791275 0.254831 0)
(0.792785 0.38371 4.43068e-22)
(0.764575 0.453706 -7.46762e-22)
(0.736175 0.41305 3.34862e-23)
(0.727617 0.267827 -7.45305e-22)
(0.7744 0.033887 1.29869e-21)
(0.796885 -0.0949866 -1.15528e-21)
(0.831732 -0.263683 0)
(0.796136 -0.290346 4.22424e-22)
(0.768289 -0.343363 0)
(0.771758 -0.296052 0)