/*--------------------------------*- C++ -*----------------------------------*\
| =========                 |                                                 |
| \\      /  F ield         | OpenFOAM: The Open Source CFD Toolbox           |
|  \\    /   O peration     | Version:  2512                                  |
|   \\  /    A nd           | Website:  www.openfoam.com                      |
|    \\/     M anipulation  |                                                 |
\*---------------------------------------------------------------------------*/
FoamFile
{
    version     2.0;
    format      ascii;
    arch        "LSB;label=32;scalar=64";
    class       surfaceScalarField;
    location    "42";
    object      phi;
}
// * * * * * * * * * * * * * * * * * * * * * * * * * * * * * * * * * * * * * //

dimensions      [0 3 -1 0 0 0 0];

oriented        oriented;

internalField   nonuniform List<scalar> 
26232
(
5.54984e-05
0.000967247
-0.00102275
0.000376168
0.00192981
-0.00225048
0.00109907
0.00205831
-0.00278122
0.00235424
0.0014012
-0.00265637
0.00427143
-1.01316e-05
-0.00190705
0.00698529
-0.00216164
-0.000552222
0.0106266
-0.0050402
0.0013989
0.0153177
-0.00863593
0.00394486
0.0211589
-0.0129271
0.00708587
0.0282147
-0.0178729
0.0108171
0.0364994
-0.0234072
0.0151225
0.0459672
-0.0294373
0.0199695
0.0565065
-0.0358451
0.0253058
0.0679421
-0.0424944
0.0310588
0.0800444
-0.0492393
0.037137
0.0925439
-0.0559343
0.0434348
0.105151
-0.0624449
0.0498376
0.117578
-0.0686576
0.0562302
0.129562
-0.0744834
0.0624995
0.140884
-0.0798781
0.0685566
0.15137
-0.084792
0.0743055
0.160923
-0.0893193
0.0797665
0.169399
-0.0932515
0.0847757
-0.0971914
0.0900908
0.1765
9.03728e-05
0.000876875
0.000548775
0.00147141
0.00154343
0.00106365
0.00323302
-0.000288378
0.00577423
-0.00255134
0.00931443
-0.00570184
0.0139863
-0.00971211
0.0198883
-0.0145379
0.0270675
-0.0201062
0.035503
-0.0263084
0.0450965
-0.0330007
0.0556707
-0.0400115
0.0669796
-0.0471539
0.0787267
-0.0542415
0.090591
-0.0611037
0.102256
-0.0675993
0.113438
-0.0736267
0.12391
-0.0791291
0.133521
-0.0840945
0.142197
-0.0885548
0.149967
-0.092562
0.156888
-0.0962395
0.163177
-0.0995411
-0.102985
0.16897
0.000144839
0.000732035
0.000792155
0.00082409
0.00213843
-0.000282629
0.004367
-0.00251694
0.0076484
-0.00583274
0.0121274
-0.0101809
0.0179037
-0.0154884
0.0250083
-0.0216426
0.0333852
-0.0284831
0.0428821
-0.0358053
0.0532563
-0.0433749
0.0641947
-0.0509499
0.0753451
-0.0583044
0.086354
-0.0652504
0.0969032
-0.0716529
0.106742
-0.0774382
0.115709
-0.0825936
0.12374
-0.0871603
0.130866
-0.0912203
0.137193
-0.094882
0.142886
-0.098255
0.148114
-0.101468
0.153101
-0.104528
-0.1078
0.157917
0.000220981
0.000511055
0.00111146
-6.63843e-05
0.00288851
-0.00205969
0.00574797
-0.0053764
0.0098536
-0.00993838
0.0153127
-0.0156399
0.0221474
-0.0223231
0.0302722
-0.0297674
0.0394862
-0.0376971
0.0494865
-0.0458057
0.0599013
-0.0537897
0.0703354
-0.0613839
0.0804193
-0.0683884
0.0898532
-0.0746842
0.0984362
-0.080236
0.10608
-0.0850823
0.112804
-0.0893177
0.118714
-0.0930703
0.123973
-0.0964784
0.128762
-0.0996719
0.133264
-0.102756
0.137619
-0.105823
0.14197
-0.108878
-0.112155
0.146324
0.000318474
0.00019258
0.00150237
-0.00125028
0.00377602
-0.00433334
0.00732657
-0.00892695
0.012278
-0.0148898
0.0186552
-0.0220171
0.026355
-0.0300229
0.035138
-0.0385504
0.0446493
-0.0472084
0.0544657
-0.055622
0.0641569
-0.063481
0.0733469
-0.0705739
0.0817605
-0.076802
0.0892484
-0.0821721
0.0957875
-0.086775
0.10146
-0.0907545
0.106417
-0.0942754
0.110844
-0.0974968
0.114919
-0.100554
0.118795
-0.103548
0.12259
-0.10655
0.126374
-0.109608
0.130215
-0.112719
-0.11603
0.13409
0.000435211
-0.00024263
0.00195281
-0.00276788
0.00476402
-0.00714455
0.00901647
-0.0131794
0.0147518
-0.0206251
0.0218659
-0.0291313
0.0300957
-0.0382527
0.0390443
-0.0474989
0.0482421
-0.0564063
0.0572261
-0.064606
0.0656125
-0.0718673
0.0731464
-0.0781079
0.0797202
-0.0833757
0.0853595
-0.0878114
0.0901879
-0.0916034
0.0943819
-0.0949485
0.0981284
-0.0980219
0.101594
-0.100962
0.104909
-0.103868
0.108164
-0.106804
0.11142
-0.109806
0.114709
-0.112898
0.118066
-0.116076
-0.119422
0.121458
0.000567643
-0.000810273
0.00244378
-0.00464402
0.00579863
-0.0104994
0.0107015
-0.0180822
0.0170668
-0.0269904
0.0246273
-0.0366918
0.032957
-0.0465824
0.041544
-0.0560859
0.0498877
-0.0647499
0.0575865
-0.0723049
0.0643928
-0.0786736
0.0702237
-0.0839388
0.0751357
-0.0882878
0.0792773
-0.0919529
0.0828364
-0.0951625
0.0859976
-0.0981096
0.0889151
-0.100939
0.0917036
-0.103751
0.0944404
-0.106605
0.0971739
-0.109537
0.0999329
-0.112565
0.102733
-0.115698
0.10559
-0.118933
-0.122308
0.108476
0.000710669
-0.00152094
0.00294964
-0.00688298
0.0068118
-0.0143616
0.0122463
-0.0235167
0.0190049
-0.0337491
0.0266507
-0.0443376
0.0346339
-0.0545657
0.042408
-0.06386
0.0495371
-0.071879
0.0557598
-0.0785276
0.0609984
-0.0839122
0.0653235
-0.0882639
0.0688966
-0.0918609
0.0719119
-0.0949682
0.074552
-0.0978026
0.0769641
-0.100522
0.0792537
-0.103229
0.0814898
-0.105987
0.0837145
-0.10883
0.0859523
-0.111775
0.0882169
-0.11483
0.0905155
-0.117996
0.0928549
-0.121272
-0.124667
0.095214
0.000857244
-0.00237819
0.00343868
-0.00946442
0.00772635
-0.0186492
0.0135128
-0.0293032
0.020374
-0.0406103
0.0277329
-0.0516965
0.0349891
-0.0618218
0.0416509
-0.0705219
0.0474182
-0.0776463
0.0521952
-0.0833047
0.0560506
-0.0877675
0.0591503
-0.0913635
0.0616928
-0.0944035
0.0638621
-0.0971375
0.0658033
-0.0997439
0.0676183
-0.102337
0.069372
-0.104983
0.0711026
-0.107718
0.0728322
-0.110559
0.074573
-0.113516
0.0763317
-0.116589
0.0781119
-0.119776
0.0799156
-0.123076
-0.12648
0.0817292
0.000998353
-0.00337654
0.00387511
-0.0123412
0.00846441
-0.0232385
0.0143811
-0.0352198
0.0210414
-0.0472706
0.0277896
-0.0584448
0.0340576
-0.0680898
0.0394765
-0.0759408
0.0439061
-0.0820758
0.0473942
-0.0867928
0.0501029
-0.0904762
0.052234
-0.0934947
0.0539761
-0.0961455
0.0554774
-0.0986388
0.0568407
-0.101107
0.0581301
-0.103626
0.059383
-0.106236
0.06062
-0.108955
0.0618526
-0.111792
0.0630875
-0.114751
0.0643281
-0.117829
0.0655761
-0.121024
0.066831
-0.124331
-0.127734
0.068085
0.00112417
-0.00450071
0.00422407
-0.0154411
0.0089594
-0.0279739
0.0147683
-0.0410287
0.0209527
-0.053455
0.0268536
-0.0643456
0.0320027
-0.0732389
0.0361829
-0.080121
0.039398
-0.0852909
0.0417936
-0.0891884
0.043572
-0.0922546
0.0449292
-0.0948518
0.0460212
-0.0972375
0.0469561
-0.0995738
0.0478013
-0.101952
0.0485947
-0.10442
0.0493572
-0.106998
0.0501001
-0.109698
0.05083
-0.112522
0.0515508
-0.115471
0.0522645
-0.118543
0.0529714
-0.121731
0.053669
-0.125028
-0.128419
0.0543534
0.00122783
-0.00572853
0.00445925
-0.0186725
0.00916731
-0.0326819
0.0146404
-0.0465018
0.0201313
-0.0589459
0.0250465
-0.0692609
0.0290551
-0.0772475
0.0320849
-0.0831508
0.0342456
-0.0874516
0.0357325
-0.0906753
0.0367493
-0.0932714
0.0374642
-0.0955667
0.0379956
-0.097769
0.0384173
-0.0999955
0.0387708
-0.102306
0.0390782
-0.104727
0.0393509
-0.107271
0.0395957
-0.109942
0.0398166
-0.112743
0.0400165
-0.115671
0.0401969
-0.118723
0.0403576
-0.121892
0.0404958
-0.125167
0.0406113
-0.128534
-0.00019921
0.000528917
-0.000329708
-0.000697488
0.00125907
-0.000760787
-0.00143226
0.00176549
-0.00103072
-0.00235528
0.0020993
-0.00117628
-0.0034286
0.00230211
-0.00122879
-0.00462275
0.00240799
-0.00121385
-0.00591515
0.00244311
-0.00115071
-0.00728871
0.00242568
-0.00105212
-0.00873046
0.00236657
-0.00092481
-0.0102304
0.00227038
-0.000770436
-0.0117804
0.00213676
-0.000586805
-0.013373
0.00196175
-0.000369065
-0.0150023
0.00173902
-0.000109815
-0.0166587
0.00146132
0.000195108
-0.0183349
0.00112025
0.000555942
-0.0200214
0.000708137
0.000978375
-0.021708
0.000218147
0.00146845
-0.0233857
-0.000353234
0.00203095
-0.0250465
-0.0010086
0.00266937
-0.0266875
-0.00174435
0.00338544
-0.0283133
-0.00255336
0.00417915
-0.0299391
-0.00342343
0.00504917
-0.0315982
-0.00433521
0.00599429
-0.00526477
-0.0333471
0.00701373
-0.000183049
0.000711967
-0.00064525
0.00172127
-0.00133099
0.00245123
-0.00219612
0.00296443
-0.00320493
0.00331092
-0.00432889
0.00353196
-0.00554562
0.00365984
-0.00683778
0.00371784
-0.00819208
0.00372087
-0.00959828
0.00367658
-0.0110482
0.00358668
-0.0125348
0.00344839
-0.0140516
0.00325576
-0.0155911
0.0030008
-0.0171452
0.00267443
-0.0187046
0.00226746
-0.0202582
0.00177174
-0.0217929
0.00118155
-0.0232956
0.000494087
-0.0247575
-0.000282477
-0.0261735
-0.00113735
-0.0275498
-0.0020471
-0.0289134
-0.0029716
-0.00384596
-0.0303323
-0.000156869
0.000868836
-0.000558877
0.00212327
-0.00116
0.00305235
-0.00192147
0.0037259
-0.00281027
0.00419972
-0.00379869
0.00452038
-0.00486389
0.00472503
-0.00598729
0.00484123
-0.00715392
0.0048875
-0.00835168
0.00487434
-0.00957054
0.00480554
-0.0108017
0.00467959
-0.012037
0.00449098
-0.0132675
0.00423137
-0.0144836
0.00389055
-0.0156736
0.00345746
-0.0168232
0.00292128
-0.0179145
0.00227291
-0.0189276
0.00150716
-0.0198356
0.000625498
-0.0206194
-0.000353582
-0.0212641
-0.00140233
-0.0217723
-0.00246342
-0.00341183
-0.0222064
-0.000123422
0.000992258
-0.000446545
0.0024464
-0.000934062
0.00353987
-0.00155299
0.00434483
-0.00227295
0.00491969
-0.00306665
0.00531408
-0.00390998
0.00556836
-0.00478191
0.00571317
-0.00566419
0.00576979
-0.00654088
0.00575102
-0.0073977
0.00566236
-0.00822147
0.00550335
-0.00899932
0.00526884
-0.00971807
0.00495012
-0.0103634
0.00453586
-0.010919
0.00401304
-0.0113655
0.00336786
-0.0116796
0.002587
-0.011832
0.00165954
-0.0117855
0.000579005
-0.011499
-0.000640129
-0.0109298
-0.00197153
-0.0100437
-0.00334948
-0.00461812
-0.00883742
-8.6502e-05
0.00107876
-0.000319826
0.00267972
-0.000674509
0.00389455
-0.00112258
0.0047929
-0.00163564
0.00543275
-0.00218599
0.00586443
-0.00274729
0.00612966
-0.00329476
0.00626063
-0.0038051
0.00628013
-0.00425625
0.00620217
-0.00462694
0.00603305
-0.00489619
0.0057726
-0.00504275
0.00541539
-0.00504451
0.00495188
-0.00487802
0.00436937
-0.00451785
0.00365287
-0.003936
0.00278601
-0.0031011
0.0017521
-0.0019752
0.000533632
-0.000519947
-0.000876246
0.00132429
-0.00248436
0.00362641
-0.00427366
0.0064578
-0.00618087
-0.00802233
0.00986201
-5.03866e-05
0.00112915
-0.000191896
0.00282123
-0.000405933
0.00410859
-0.000667536
0.0050545
-0.000948817
0.00571403
-0.00122051
0.00613613
-0.00145282
0.00636196
-0.00161573
0.00642355
-0.00167911
0.00634351
-0.00161248
0.00613554
-0.00138466
0.00580523
-0.000963363
0.00535131
-0.000314755
0.00476678
0.000596958
0.00404017
0.00180979
0.00315654
0.00336399
0.00209866
0.00530213
0.000847876
0.00766853
-0.000614303
0.0105074
-0.00230526
0.0138698
-0.00423862
0.0178086
-0.00642313
0.0223894
-0.0088545
0.0276634
-0.0114549
-0.0142935
0.0339345
-1.90994e-05
0.00114825
-7.51395e-05
0.00287727
-0.000151627
0.00418507
-0.000223436
0.00512631
-0.000260948
0.00575154
-0.00023156
0.00610674
-0.00010037
0.00623077
0.000169574
0.0061536
0.000617304
0.00589578
0.00128415
0.00546869
0.00221404
0.00487534
0.00345382
0.00411153
0.00505348
0.00316713
0.00706624
0.0020274
0.00954828
0.000674511
0.0125581
-0.000911149
0.0161553
-0.00274935
0.0203993
-0.00485824
0.0253466
-0.00725256
0.0310496
-0.00994166
0.0375493
-0.0129228
0.0449117
-0.0162169
0.0530802
-0.0196234
-0.0237738
0.0625606
4.66752e-06
0.00114358
2.16631e-05
0.00286028
7.18259e-05
0.00413491
0.000184533
0.0050136
0.000394195
0.00554188
0.000739301
0.00576164
0.00126224
0.00570784
0.00200938
0.00540645
0.00303134
0.00487383
0.00438314
0.00411689
0.0061244
0.00313409
0.00831927
0.00191666
0.0110359
0.000450456
0.0143461
-0.00128278
0.0183232
-0.00330257
0.0230405
-0.00562842
0.0285683
-0.0082772
0.0349709
-0.0112609
0.0423022
-0.0145839
0.0506041
-0.0182435
0.0598869
-0.0222056
0.0702023
-0.0265323
0.0813511
-0.0307722
-0.0363548
0.0939321
1.96042e-05
0.00112397
9.56044e-05
0.00278428
0.000259745
0.00397077
0.000550461
0.00472289
0.00101085
0.00508149
0.00168889
0.0050836
0.00263799
0.00475873
0.00391755
0.0041269
0.00559325
0.00319813
0.00773704
0.00197311
0.0104265
0.000444663
0.0137438
-0.00140065
0.0177737
-0.00357944
0.0226004
-0.00610955
0.0283047
-0.00900684
0.0349589
-0.0122826
0.0426223
-0.0159406
0.0513367
-0.0199752
0.0611207
-0.0243679
0.0719688
-0.0290917
0.0838351
-0.0340719
0.0966979
-0.0393951
0.110305
-0.0443797
-0.0510819
0.125032
2.75591e-05
0.00109642
0.000152352
0.00265948
0.000423832
0.00369929
0.000894671
0.00425205
0.00162147
0.00435468
0.0026664
0.00403867
0.00409853
0.00332661
0.00599452
0.00223091
0.00843855
0.000754095
0.011521
-0.00110936
0.0153362
-0.00337048
0.0199781
-0.00604261
0.0255364
-0.00913775
0.0320899
-0.012663
0.0397002
-0.0166172
0.0484059
-0.0209882
0.0582163
-0.0257511
0.069108
-0.0308669
0.0810224
-0.0362823
0.0938646
-0.0419339
0.107512
-0.0477193
0.121801
-0.0536842
0.13657
-0.0591487
-0.0661355
0.151624
3.25944e-05
0.00106382
0.000205758
0.00248632
0.000592473
0.00331258
0.00126492
0.00357961
0.00229851
0.00332109
0.00377487
0.00256231
0.0057833
0.00131818
0.00842056
-0.000406348
0.0117895
-0.00261481
0.0159938
-0.00531367
0.0211329
-0.00850959
0.0272939
-0.0122036
0.0345433
-0.0163871
0.0429182
-0.0210379
0.0524194
-0.0261183
0.0630055
-0.0315744
0.0745912
-0.0373368
0.0870482
-0.0433238
0.10021
-0.0494442
0.113882
-0.055606
0.127866
-0.0617029
0.141905
-0.0677233
0.155981
-0.0732252
-0.0794789
0.169325
4.10751e-05
0.000276917
0.000808278
0.00173151
0.00314555
0.00515563
0.00787271
0.0114112
0.0158823
0.0213857
0.0279986
0.0357644
0.0446831
0.054704
0.0657227
0.0775831
0.090084
0.10299
0.116046
0.128996
0.141599
0.153642
0.165192
0.175804
-0.0342202
-0.0102748
0.0111479
-0.035054
-0.0123771
0.0132109
-0.0358213
-0.0146106
0.015378
-0.0365283
-0.0168701
0.0175771
-0.0371775
-0.0190752
0.0197244
-0.0377716
-0.0211159
0.02171
-0.0383131
-0.0228562
0.0233978
-0.0388016
-0.0241368
0.0246254
-0.0392338
-0.0247714
0.0252035
-0.0396005
-0.0245532
0.02492
-0.0398858
-0.0232595
0.0235448
-0.040067
-0.0206602
0.0208414
-0.0401138
-0.0165363
0.0165831
-0.0399929
-0.010687
0.0105661
-0.0396288
-0.00297817
0.00261402
-0.0391347
0.00653205
-0.00702615
-0.0384313
0.0178156
-0.0185189
-0.0375386
0.0305439
-0.0314365
-0.0364617
0.0441994
-0.0452764
-0.0351728
0.0580523
-0.0593413
-0.0335716
0.0711431
-0.0727442
-0.0314397
0.0822807
-0.0844126
-0.0283893
0.0899898
-0.0930401
-0.0238986
0.0926076
-0.0970983
-0.0175588
0.0886417
-0.0949815
-0.00908964
0.0767487
-0.0852178
0.0012897
0.056827
-0.0672063
0.0131929
0.0296513
-0.0415544
0.0258804
-0.00223956
-0.010448
0.0384969
-0.0354431
0.0228266
0.0501989
-0.0654144
0.0537123
0.0599501
-0.0885941
0.0788429
0.0668676
-0.103293
0.0963758
0.0704237
-0.109838
0.106282
0.0708741
-0.110019
0.109568
0.0697245
-0.105298
0.106447
0.0694671
-0.0957813
0.0960387
0.0723145
-0.080077
0.0772296
0.0788954
-0.0580692
0.0514883
0.0881431
-0.0317225
0.0224749
0.0982234
-0.00520809
-0.00487223
0.107552
0.0179411
-0.0272697
0.115184
0.035167
-0.0427986
0.120803
0.046298
-0.0519176
0.124667
0.0513548
-0.0552191
0.127345
0.0515336
-0.0542112
0.129628
0.047021
-0.0493037
0.132078
0.0390422
-0.041492
0.135043
0.0281147
-0.0310801
0.138347
0.0161931
-0.019497
0.141768
0.00444411
-0.00786485
0.144875
-0.00538057
0.00227333
0.147578
-0.0126301
0.00992646
0.149786
-0.016848
0.01464
0.151727
-0.0179429
0.0160021
0.153484
-0.0161538
0.0143973
0.155313
-0.0122175
0.010388
0.157042
-0.00560199
0.00387351
0.158931
-0.000678331
-0.00121112
0.00925531
-0.0107845
-0.03141
-0.00919707
-0.0324828
-0.0113043
-0.0335001
-0.0135934
-0.0344654
-0.0159048
-0.0353792
-0.0181614
-0.036241
-0.0202542
-0.0370521
-0.0220451
-0.0378097
-0.0233792
-0.038511
-0.0240702
-0.0391453
-0.0239189
-0.0396923
-0.0227125
-0.0401188
-0.0202338
-0.0403787
-0.0162764
-0.0404018
-0.0106638
-0.0401029
-0.00327709
-0.0395378
0.00596693
-0.0385895
0.0168673
-0.0372107
0.0291651
-0.0353429
0.0423317
-0.0328945
0.055604
-0.0297071
0.0679557
-0.0255502
0.0781237
-0.0201325
0.084572
-0.0131235
0.0855986
-0.00436231
0.0798805
0.00576411
0.0666223
0.0170913
0.0454998
0.0293134
0.0174291
0.0417684
-0.0146946
0.0539048
-0.0475794
0.0650003
-0.0765099
0.0742137
-0.0978076
0.080843
-0.109923
0.0843829
-0.113378
0.0846653
-0.110301
0.082365
-0.102998
0.0793873
-0.0928036
0.0782399
-0.0789295
0.080575
-0.0604043
0.0863129
-0.0374604
0.0940723
-0.0129676
0.102164
0.00984937
0.109415
0.0279159
0.115269
0.0404436
0.119854
0.0467699
0.123647
0.0477406
0.127312
0.043356
0.131203
0.0351514
0.135449
0.0238683
0.139707
0.011936
0.143701
0.000449739
0.147021
-0.0087007
0.14965
-0.0152589
0.151561
-0.0187588
0.153062
-0.019444
0.154306
-0.0173984
0.155626
-0.0135375
0.156936
-0.00691106
0.158488
-0.00223084
0.00785528
-0.0233911
-0.00801242
-0.0246315
-0.0100639
-0.0258425
-0.0123824
-0.0270127
-0.0147346
-0.0281385
-0.0170356
-0.02921
-0.0191826
-0.0302236
-0.0210315
-0.0311651
-0.0224377
-0.0320275
-0.0232078
-0.0327971
-0.0231493
-0.033451
-0.0220585
-0.0339522
-0.0197326
-0.0342456
-0.0159829
-0.034252
-0.0106575
-0.033831
-0.00369811
-0.0330404
0.00517634
-0.0316891
0.0155161
-0.029678
0.027154
-0.0269057
0.0395593
-0.0232463
0.0519446
-0.0185573
0.0632667
-0.0126831
0.0722496
-0.00539671
0.0772856
0.00317822
0.0770237
0.0129351
0.0701236
0.0236977
0.0558597
0.0350482
0.0341493
0.0467209
0.00575641
0.0583047
-0.0262784
0.069435
-0.0587097
0.0794585
-0.0865334
0.0876823
-0.106031
0.0936372
-0.115878
0.0970676
-0.116808
0.0977585
-0.110992
0.0957252
-0.100964
0.0918767
-0.0889551
0.0882273
-0.0752801
0.0869255
-0.0591025
0.0889481
-0.039483
0.0937595
-0.0177789
0.0999672
0.0036416
0.106371
0.0215124
0.112221
0.0345933
0.117457
0.0415337
0.122352
0.0428459
0.127327
0.0383811
0.132472
0.0300065
0.137708
0.018632
0.142589
0.00705469
0.146854
-0.00381472
0.150158
-0.0120053
0.152569
-0.0176695
0.154117
-0.0203071
0.155156
-0.0204824
0.155883
-0.018126
0.156672
-0.0143258
0.157527
-0.00776594
0.158679
-0.00338296
0.00664207
-0.0100301
-0.00681974
-0.0114156
-0.0086784
-0.0128193
-0.0109787
-0.0142034
-0.0133506
-0.0155631
-0.0156759
-0.0168709
-0.0178748
-0.0181324
-0.0197701
-0.0192901
-0.02128
-0.0203249
-0.022173
-0.02121
-0.0222642
-0.0219147
-0.0213538
-0.0223983
-0.019249
-0.022604
-0.0157772
-0.0224547
-0.0108068
-0.0218386
-0.00431425
-0.0206832
0.00402095
-0.0188576
0.0136905
-0.0162158
0.0245122
-0.0126571
0.0360006
-0.00800782
0.0472953
-0.00219544
0.0574544
0.00488651
0.0651676
0.0130831
0.0690891
0.0223518
0.0677549
0.0324681
0.0600073
0.0430601
0.0452676
0.0537959
0.0234135
0.0643408
-0.00478843
0.0747431
-0.0366808
0.0845409
-0.0685074
0.0931542
-0.0951467
0.100025
-0.112903
0.10491
-0.120762
0.107846
-0.119744
0.108844
-0.11199
0.107712
-0.0998328
0.104509
-0.0857519
0.100261
-0.0710318
0.0968337
-0.0556754
0.0958389
-0.0384882
0.097711
-0.0196511
0.101705
-0.000352039
0.106879
0.0163379
0.112412
0.0290601
0.118044
0.0359025
0.123771
0.0371189
0.129711
0.0324405
0.135691
0.0240266
0.141466
0.0128566
0.146563
0.0019581
0.150771
-0.00802268
0.153849
-0.0150828
0.155934
-0.0197552
0.157105
-0.0214774
0.157718
-0.0210955
0.157991
-0.0183989
0.158295
-0.0146303
0.158723
-0.0081936
0.159465
-0.00412555
0.00564404
0.00868052
-0.00563825
0.00715839
-0.00715628
0.0055431
-0.00936338
0.00389396
-0.0117014
0.00219478
-0.0139767
0.000461455
-0.0161415
-0.00115558
-0.0181531
-0.00267628
-0.0197593
-0.00404041
-0.0208088
-0.00519708
-0.0211075
-0.00609156
-0.0204593
-0.00666722
-0.0186733
-0.00686107
-0.0155834
-0.00659787
-0.01107
-0.0058032
-0.00510892
-0.00432139
0.00253914
-0.00217586
0.0115449
0.00108736
0.021249
0.00554592
0.031542
0.0110215
0.0418197
0.0175207
0.0509552
0.0250303
0.057658
0.0335449
0.0605744
0.0428511
0.0584488
0.052625
0.0502334
0.0625075
0.0353851
0.0722124
0.0137086
0.0815305
-0.0141065
0.0905204
-0.0456706
0.0987555
-0.0767426
0.105692
-0.102083
0.110945
-0.118155
0.114497
-0.124313
0.116613
-0.121861
0.117551
-0.112929
0.11724
-0.0995215
0.115357
-0.0838691
0.112011
-0.0676853
0.108254
-0.0519185
0.10565
-0.0358841
0.105291
-0.0192921
0.107245
-0.00230627
0.111016
0.0125674
0.115927
0.0241485
0.121572
0.0302573
0.127679
0.0310125
0.134067
0.0260519
0.140344
0.0177495
0.14616
0.00704102
0.151074
-0.00295543
0.15494
-0.0118891
0.15763
-0.017773
0.159334
-0.0214592
0.160156
-0.0222993
0.160427
-0.0213669
0.160358
-0.0183296
0.160285
-0.0145572
0.160368
-0.0082763
0.160749
-0.00450628
0.00485407
0.0324312
-0.00413495
0.030788
-0.00551301
0.029022
-0.0075974
0.0271482
-0.00982761
0.0251828
-0.0120113
0.0231653
-0.014124
0.0211097
-0.0160975
0.0191038
-0.0177534
0.0172213
-0.0189264
0.0155505
-0.0194367
0.0141867
-0.0190955
0.0132301
-0.0177167
0.0127807
-0.015134
0.0129321
-0.0112215
0.0137586
-0.00593539
0.0154819
0.000815832
0.0180191
0.00900773
0.0215224
0.0177457
0.0260191
0.0270453
0.0316042
0.0362346
0.0382453
0.0443141
0.0458381
0.0500652
0.0542098
0.0522027
0.0631033
0.0495552
0.0721743
0.0411625
0.0810963
0.0264632
0.0896303
0.00517454
0.0976593
-0.0221355
0.105134
-0.0531453
0.111628
-0.0832363
0.116682
-0.107138
0.120143
-0.121616
0.122238
-0.126408
0.123388
-0.123011
0.123978
-0.113519
0.124116
-0.0996601
0.123493
-0.0832459
0.121718
-0.0659102
0.118999
-0.0491995
0.116337
-0.0332219
0.114944
-0.0178994
0.115489
-0.00285099
0.118007
0.0100492
0.122122
0.0200333
0.127404
0.0249755
0.133392
0.0250239
0.139679
0.0197649
0.145728
0.0117008
0.151151
0.00161853
0.155556
-0.00736116
0.158886
-0.015219
0.1611
-0.0199867
0.162417
-0.0227759
0.162953
-0.0228354
0.162992
-0.0214062
0.16272
-0.0180571
0.162411
-0.0142489
0.162271
-0.00813585
0.162385
-0.00462
0.0042296
0.0606096
-0.00218399
0.0586539
-0.00355734
0.0566151
-0.00555852
0.0544362
-0.00764878
0.0521319
-0.00970696
0.0497266
-0.0117187
0.0472412
-0.0136121
0.0447342
-0.0152464
0.0422835
-0.0164757
0.039987
-0.0171403
0.0379601
-0.0170686
0.0363332
-0.0160898
0.0352429
-0.0140437
0.0348166
-0.0107952
0.0351471
-0.00626583
0.0365372
-0.000574258
0.0387804
0.00676449
0.0421034
0.0144227
0.0465077
0.022641
0.0520025
0.0307398
0.0585169
0.0377997
0.0658854
0.0426967
0.0738519
0.0442362
0.0821153
0.0412919
0.0903428
0.0329349
0.0982333
0.0185727
0.105609
-0.00220076
0.112321
-0.0288477
0.118188
-0.0590129
0.122781
-0.0878289
0.125812
-0.110169
0.127411
-0.123215
0.12804
-0.127038
0.128224
-0.123194
0.128359
-0.113654
0.128631
-0.0999327
0.128875
-0.0834893
0.128611
-0.0656465
0.127523
-0.0481112
0.125927
-0.0316265
0.124712
-0.0166835
0.124742
-0.0028811
0.126449
0.00834228
0.129804
0.0166778
0.134478
0.0203015
0.139949
0.019553
0.145688
0.0140263
0.151104
0.00628426
0.155832
-0.00310885
0.159535
-0.0110651
0.162237
-0.0179201
0.16396
-0.0217104
0.16493
-0.0237454
0.165263
-0.0231686
0.165186
-0.0213294
0.164851
-0.0177223
0.164461
-0.0138586
0.164237
-0.00791177
0.16421
-0.00459266
0.00369946
0.0913838
0.000364277
0.0889988
-0.0011723
0.0865272
-0.003087
0.0839021
-0.00502364
0.0811725
-0.00697736
0.0783591
-0.00890531
0.0754632
-0.0107162
0.0725074
-0.0122905
0.0695478
-0.0135161
0.0666647
-0.0142571
0.0639624
-0.0143663
0.0615736
-0.013701
0.0596543
-0.0121244
0.0583688
-0.00950969
0.057877
-0.00577404
0.05832
-0.00101727
0.0598591
0.0052254
0.0625504
0.0117315
0.0664266
0.0187648
0.0714514
0.025715
0.0775001
0.031751
0.0843549
0.0358418
0.0917164
0.0368747
0.0992479
0.0337604
0.106618
0.0255645
0.113515
0.0116763
0.119831
-0.0085168
0.125236
-0.0342534
0.129394
-0.0631706
0.131937
-0.0903716
0.132876
-0.111108
0.132653
-0.122992
0.131915
-0.126299
0.131218
-0.122497
0.13091
-0.113346
0.131153
-0.100176
0.131887
-0.0842228
0.132739
-0.0664989
0.133222
-0.0485938
0.133155
-0.0315598
0.132934
-0.0164622
0.133277
-0.00322474
0.134745
0.00687497
0.137573
0.0138497
0.141591
0.0162833
0.146333
0.0148109
0.151263
0.00909674
0.155834
0.00171257
0.159715
-0.00698895
0.162665
-0.0140159
0.164748
-0.0200027
0.166034
-0.022996
0.166731
-0.0244426
0.166952
-0.0233896
0.166867
-0.0212451
0.166596
-0.0174505
0.166266
-0.0135291
0.166095
-0.00774077
0.166064
-0.00456133
0.00317449
0.121842
0.00355509
0.118785
0.00188479
0.115948
-0.000250009
0.112869
-0.0019448
0.109688
-0.00379638
0.106419
-0.00563697
0.103102
-0.0073988
0.0997536
-0.00894221
0.0964145
-0.010177
0.0931329
-0.0109755
0.089979
-0.0112125
0.0870548
-0.0107768
0.0844953
-0.00956495
0.082464
-0.00747835
0.0811112
-0.00442124
0.0806123
-0.000518374
0.0811188
0.00471885
0.0828117
0.0100386
0.0857434
0.0158331
0.0898855
0.021573
0.0950955
0.0265411
0.10113
0.0298076
0.107664
0.0303407
0.114332
0.0270923
0.120793
0.0191038
0.126684
0.0057848
0.13192
-0.0137532
0.135976
-0.038309
0.138368
-0.0655626
0.138841
-0.0908442
0.13774
-0.110007
0.135852
-0.121104
0.133935
-0.124382
0.132506
-0.121069
0.131826
-0.112666
0.131989
-0.100339
0.132965
-0.085198
0.134511
-0.0680455
0.136185
-0.0502673
0.137579
-0.0329546
0.138663
-0.017546
0.139841
-0.00440194
0.14157
0.00514521
0.144195
0.0112248
0.14768
0.0127982
0.151684
0.0108074
0.155744
0.00503607
0.159449
-0.0019916
0.162491
-0.0100311
0.16475
-0.016275
0.166305
-0.0215574
0.167252
-0.0239433
0.167774
-0.0249642
0.167973
-0.0235894
0.167975
-0.0212466
0.167866
-0.0173416
0.167716
-0.013379
0.167717
-0.00774151
0.167811
-0.00465609
0.00255946
0.148209
0.00696985
0.144843
0.0052508
0.141123
0.00347027
0.137592
0.0015856
0.134281
-0.000485017
0.130815
-0.00217129
0.127256
-0.00383976
0.12364
-0.0053262
0.120064
-0.00660069
0.116576
-0.00748715
0.113231
-0.00786741
0.110102
-0.00764847
0.107288
-0.00675091
0.10491
-0.00510039
0.103112
-0.00262302
0.101844
0.000750075
0.10163
0.00493204
0.102397
0.00927243
0.104287
0.0139424
0.107329
0.0185314
0.111428
0.0224419
0.116374
0.0248619
0.121853
0.0248611
0.127488
0.0214579
0.132949
0.0136423
0.137821
0.000913019
0.141789
-0.017721
0.144272
-0.0407927
0.144751
-0.0660411
0.143201
-0.089294
0.140282
-0.107089
0.137003
-0.117824
0.134161
-0.12154
0.132188
-0.119095
0.131242
-0.111721
0.131342
-0.100439
0.132442
-0.0862982
0.134384
-0.0699879
0.136834
-0.0527172
0.139356
-0.0354762
0.141679
-0.0198696
0.143865
-0.00658754
0.146157
0.00285285
0.148873
0.00850943
0.152034
0.00963711
0.155434
0.00740741
0.158747
0.00172248
0.161676
-0.00492025
0.164019
-0.0123745
0.165729
-0.0179843
0.166897
-0.0227256
0.167632
-0.024678
0.168083
-0.0254161
0.168347
-0.0238529
0.16851
-0.0214098
0.168638
-0.0174695
0.168756
-0.0134973
0.169021
-0.00800632
0.169353
-0.00498748
0.00176388
0.166191
0.0101039
0.162898
0.00854359
0.15933
0.00703799
0.155646
0.00526969
0.151809
0.00335182
0.148208
0.00143018
0.144818
-0.000449581
0.141329
-0.00183714
0.137861
-0.00313259
0.134427
-0.00405405
0.131144
-0.0045835
0.128108
-0.00461269
0.125406
-0.00404946
0.12312
-0.00281419
0.12144
-0.000942508
0.120166
0.00202361
0.119589
0.00550954
0.119846
0.0090146
0.121042
0.0127465
0.123203
0.0163705
0.12627
0.019375
0.130094
0.0210383
0.134425
0.02053
0.138903
0.01698
0.143065
0.00948066
0.14679
-0.00281229
0.149298
-0.0202294
0.15
-0.041494
0.148536
-0.0645775
0.145189
-0.0859467
0.140841
-0.102741
0.136509
-0.113492
0.13298
-0.118012
0.130602
-0.116717
0.12945
-0.110569
0.129485
-0.100474
0.130636
-0.0874485
0.132778
-0.0721302
0.135673
-0.0556125
0.138941
-0.0387441
0.142222
-0.0231507
0.145359
-0.00972426
0.148313
-0.000101509
0.15131
0.0055132
0.154359
0.00658751
0.157349
0.00441761
0.160126
-0.00105427
0.162468
-0.00726271
0.164306
-0.0142125
0.165648
-0.0193261
0.166591
-0.0236682
0.167244
-0.0253316
0.16773
-0.0259017
0.168133
-0.0242562
0.168518
-0.021795
0.168934
-0.017885
0.169381
-0.0139445
0.169975
-0.00860025
0.170628
-0.00563995
0.000709442
0.173697
0.0122114
0.17097
0.0112702
0.168058
0.00995045
0.164987
0.00834095
0.161807
0.00653147
0.158512
0.00472488
0.155021
0.0030413
0.151738
0.0014461
0.1487
-9.46221e-05
0.14564
-0.000994136
0.142727
-0.00167011
0.140049
-0.00193475
0.137688
-0.00168814
0.135735
-0.000861332
0.134079
0.000712834
0.133121
0.00298175
0.132881
0.00575026
0.133202
0.00869324
0.134183
0.0117654
0.135881
0.014672
0.138269
0.0169872
0.141218
0.018089
0.144513
0.0172355
0.147857
0.0136363
0.150902
0.00643492
0.153112
-0.00502159
0.153857
-0.020975
0.152787
-0.0404235
0.149742
-0.061533
0.145252
-0.0814568
0.140216
-0.0977051
0.135458
-0.108735
0.131537
-0.11409
0.128776
-0.113956
0.127323
-0.109116
0.127157
-0.100309
0.128194
-0.0884851
0.130318
-0.0742542
0.133353
-0.0586474
0.136995
-0.0423861
0.140879
-0.0270344
0.14468
-0.0135256
0.148279
-0.0037
0.151594
0.00219735
0.154685
0.0034973
0.157486
0.00161648
0.159925
-0.00349308
0.161909
-0.00924732
0.163454
-0.0157578
0.164618
-0.0204896
0.165494
-0.0245446
0.166191
-0.0260288
0.166805
-0.0265154
0.167413
-0.0248645
0.168068
-0.0224494
0.168804
-0.0186213
0.169618
-0.014758
0.170581
-0.00956402
0.171613
-0.00667162
-0.000665399
0.192077
0.0140168
-0.193883
0.190715
0.0126327
0.189227
0.0114379
0.18759
0.00997864
0.185767
0.00835376
0.183755
0.00673703
0.181628
0.00516847
0.179382
0.00369223
0.176841
0.00244599
0.174296
0.00155163
0.171684
0.000941218
0.169037
0.000712968
0.166403
0.000945068
0.163834
0.00170793
0.161475
0.00307161
0.159444
0.00501281
0.157832
0.00736249
0.156677
0.009848
0.156142
0.0123001
0.15638
0.0144345
0.15753
0.0158376
0.159671
0.015948
0.162792
0.014114
0.166761
0.00966705
0.171221
0.00197568
0.175715
-0.00951625
0.179455
-0.0247144
0.1817
-0.0426686
0.181888
-0.0617209
0.179969
-0.0795379
0.176324
-0.0940605
0.171536
-0.103947
0.166224
-0.108777
0.160945
-0.108677
0.156135
-0.104306
0.152098
-0.096272
0.149031
-0.0854181
0.14705
-0.0722733
0.146196
-0.0577927
0.146394
-0.0425844
0.147462
-0.0281022
0.149154
-0.0152176
0.15124
-0.00578589
0.153489
-5.20624e-05
0.155716
0.00127038
0.157736
-0.000403857
0.159362
-0.00511876
0.160469
-0.0103545
0.161037
-0.0163257
0.161125
-0.0205779
0.160839
-0.0242586
0.160308
-0.0254978
0.159657
-0.025864
0.158983
-0.0241909
0.158369
-0.0218354
0.157858
-0.0181102
0.157463
-0.0143632
0.157229
-0.00932947
0.15708
-0.00652319
-0.000787455
0.204464
0.0147377
-0.205185
0.203653
0.013444
0.20283
0.0122604
0.201804
0.0110053
0.200526
0.00963152
0.199047
0.00821635
0.197385
0.00683025
0.195523
0.00555361
0.193501
0.00446876
0.191416