/*--------------------------------*- C++ -*----------------------------------*\
| =========                 |                                                 |
| \\      /  F ield         | OpenFOAM: The Open Source CFD Toolbox           |
|  \\    /   O peration     | Version:  2512                                  |
|   \\  /    A nd           | Website:  www.openfoam.com                      |
|    \\/     M anipulation  |                                                 |
\*---------------------------------------------------------------------------*/
FoamFile
{
    version     2.0;
    format      ascii;
    arch        "LSB;label=32;scalar=64";
    class       volVectorField;
    location    "51.75";
    object      U;
}
// * * * * * * * * * * * * * * * * * * * * * * * * * * * * * * * * * * * * * //

dimensions      [0 1 -1 0 0 0 0];

internalField   nonuniform List<vector> 
13248
(
(-0.0119785 0.0111758 6.24448e-20)
(-0.0221499 0.0231088 0)
(-0.0197095 0.0286792 -1.18232e-19)
(-0.00566409 0.0300121 1.11377e-19)
(0.0193518 0.028806 1.04482e-19)
(0.0549119 0.0263941 0)
(0.100661 0.0237841 0)
(0.156187 0.0217234 2.52215e-19)
(0.220871 0.0207571 -1.51729e-21)
(0.293777 0.0212528 -2.19811e-19)
(0.373566 0.0234148 2.02546e-19)
(0.458488 0.0272919 -1.26531e-19)
(0.546443 0.0327869 0)
(0.635093 0.0396718 -2.12599e-19)
(0.722027 0.0476126 3.9507e-19)
(0.804927 0.0562014 -9.34096e-20)
(0.881734 0.0649983 -1.63854e-19)
(0.950779 0.0735544 1.53817e-19)
(1.01089 0.0815192 0)
(1.06134 0.0883917 0)
(1.10233 0.0944624 0)
(1.13307 0.0980325 0)
(1.15764 0.102786 4.60389e-20)
(1.16987 0.100058 1.67022e-19)
(-0.0116513 0.00973715 -1.88692e-19)
(-0.0180917 0.0189176 1.28746e-19)
(-0.00877059 0.0226452 -1.0428e-21)
(0.0149406 0.0230224 -1.70279e-19)
(0.0521583 0.0217656 -1.0437e-19)
(0.102184 0.0202429 -9.8714e-20)
(0.164249 0.0194661 -1.81452e-19)
(0.237314 0.0201448 1.71456e-19)
(0.319902 0.0227257 0)
(0.410002 0.0274059 1.01398e-21)
(0.505079 0.0341443 2.15033e-21)
(0.602197 0.0426827 1.26437e-19)
(0.69823 0.052584 0)
(0.790118 0.0632861 0)
(0.87512 0.074168 1.44358e-19)
(0.951025 0.084618 -2.71033e-19)
(1.0163 0.0940964 1.60662e-19)
(1.07017 0.102181 -1.5083e-19)
(1.11256 0.108603 -6.6567e-20)
(1.14416 0.113218 -1.20234e-19)
(1.16593 0.116169 -5.05513e-20)
(1.1798 0.117126 -9.46707e-20)
(1.1868 0.117989 1.38796e-19)
(1.18868 0.114122 4.04128e-20)
(-0.0104171 0.00791106 0)
(-0.010888 0.01386 0)
(0.00790606 0.0157479 6.02499e-20)
(0.0441133 0.0155899 5.55635e-20)
(0.0964364 0.0150759 -1.30131e-21)
(0.163636 0.0155599 -1.01659e-19)
(0.244133 0.0179703 0)
(0.335769 0.0228416 -8.52068e-20)
(0.435694 0.0303399 7.9796e-20)
(0.540409 0.0402833 4.17764e-22)
(0.645984 0.0521845 -1.35756e-19)
(0.748407 0.0653271 -1.23781e-19)
(0.843964 0.0788672 2.6535e-21)
(0.929594 0.0919474 -1.01252e-19)
(1.00313 0.103803 2.43698e-19)
(1.06344 0.113844 0)
(1.1104 0.121704 -1.56998e-19)
(1.1448 0.12725 7.59611e-20)
(1.16813 0.130577 6.65033e-20)
(1.18229 0.131893 0)
(1.18944 0.131685 5.45266e-20)
(1.19156 0.129959 -1.90476e-19)
(1.19025 0.128279 1.78804e-19)
(1.18822 0.123621 1.15181e-19)
(-0.00797093 0.00575632 -6.6806e-20)
(0.00029331 0.00825118 -6.90464e-20)
(0.0315759 0.0086712 6.24566e-20)
(0.0833491 0.00881396 0)
(0.1536 0.0102423 0)
(0.2401 0.0141759 -1.97858e-21)
(0.339896 0.0212812 0)
(0.449142 0.0316816 -2.59275e-19)
(0.563197 0.0450055 2.40635e-19)
(0.676973 0.0604668 -2.96884e-19)
(0.785462 0.0769984 6.78784e-20)
(0.884286 0.0934242 0)
(0.970155 0.108637 1.12398e-19)
(1.04113 0.121746 -2.07954e-19)
(1.09666 0.132171 4.93274e-20)
(1.13748 0.139677 1.26393e-19)
(1.16526 0.144342 -5.64672e-21)
(1.18232 0.146486 -1.41476e-19)
(1.19118 0.146583 0)
(1.19426 0.145139 0)
(1.19365 0.142722 -5.09472e-20)
(1.19093 0.139467 4.5951e-20)
(1.18733 0.136666 1.65874e-19)
(1.18346 0.131542 -1.55703e-19)
(-0.00395498 0.00336557 -7.04055e-20)
(0.0163168 0.00251846 -7.00845e-20)
(0.0633751 0.00226845 1.97153e-19)
(0.133721 0.00398308 -1.19554e-19)
(0.224155 0.00891 1.12536e-19)
(0.33084 0.0179093 2.04405e-19)
(0.44882 0.0310964 -1.44344e-19)
(0.572132 0.0478734 -1.75343e-19)
(0.694327 0.0670798 3.61031e-21)
(0.809236 0.0872138 2.24313e-19)
(0.911742 0.106702 0)
(0.998349 0.124161 6.17444e-20)
(1.06743 0.13859 0)
(1.11915 0.149464 -1.00557e-19)
(1.15511 0.156726 1.41247e-19)
(1.17788 0.160696 1.08671e-21)
(1.19044 0.161938 -3.7248e-20)
(1.19571 0.16111 6.93228e-20)
(1.19623 0.158853 6.04364e-20)
(1.19395 0.155699 -5.44176e-20)
(1.19026 0.152072 5.09347e-20)
(1.18602 0.148111 -4.59394e-20)
(1.18161 0.14457 0)
(1.17768 0.139314 -3.58018e-20)
(0.00200765 0.000896129 7.03954e-20)
(0.0379726 -0.00274928 7.38537e-20)
(0.104122 -0.00240943 -6.60432e-20)
(0.195574 0.00254053 1.22908e-19)
(0.307315 0.0127248 -1.15687e-19)
(0.433217 0.0282922 1.04522e-19)
(0.565853 0.0484343 -5.01743e-20)
(0.697174 0.0715423 1.31703e-19)
(0.819594 0.0955706 -8.28195e-20)
(0.927058 0.118451 1.46775e-19)
(1.01576 0.138462 -3.38866e-19)
(1.08439 0.154477 1.24659e-19)
(1.1338 0.166043 -1.09125e-19)
(1.16649 0.173306 1.02497e-19)
(1.18582 0.176841 8.8688e-20)
(1.19531 0.177442 7.79857e-20)
(1.19819 0.175935 -2.17413e-19)
(1.197 0.173046 1.34888e-19)
(1.1936 0.169335 -6.04379e-20)
(1.18917 0.165188 1.58958e-19)
(1.18442 0.160854 -5.12062e-20)
(1.1797 0.156416 -1.26806e-19)
(1.17519 0.152288 1.17361e-19)
(1.17111 0.146968 3.5789e-20)
(0.0102662 -0.00140946 0)
(0.0658453 -0.00678216 6.04815e-22)
(0.154104 -0.00414083 1.37991e-19)
(0.268263 0.00597117 -1.29442e-19)
(0.400799 0.0231106 -1.16579e-19)
(0.542761 0.0462661 2.16649e-19)
(0.68427 0.0733568 -1.00601e-19)
(0.815955 0.101661 1.34153e-19)
(0.930456 0.128458 -2.83843e-21)
(1.0234 0.151569 -7.61149e-20)
(1.0936 0.169673 1.66322e-19)
(1.14257 0.182364 -2.45741e-19)
(1.17361 0.189991 0)
(1.19084 0.19339 -4.84328e-20)
(1.19832 0.193584 -1.29498e-19)
(1.19951 0.191562 4.07728e-20)
(1.19705 0.188137 1.49899e-21)
(1.19272 0.183904 -9.03124e-20)
(1.18761 0.179254 5.19385e-21)
(1.18235 0.174424 1.04663e-19)
(1.17724 0.169545 -4.69469e-20)
(1.17242 0.164683 -1.83961e-20)
(1.1679 0.160009 5.57715e-20)
(1.16376 0.154602 0)
(0.0210886 -0.00321859 0)
(0.100176 -0.00864981 3.74398e-20)
(0.212894 -0.00161534 -1.80238e-19)
(0.350002 0.0156343 6.54431e-20)
(0.500897 0.0410375 -6.15939e-20)
(0.653731 0.0719834 -5.62924e-20)
(0.796933 0.104971 -9.95297e-20)
(0.921284 0.136404 4.96427e-20)
(1.02135 0.163426 4.31816e-20)
(1.09574 0.184369 0)
(1.14645 0.198801 9.895e-20)
(1.17754 0.207253 -1.47575e-19)
(1.1939 0.210826 1.09825e-19)
(1.20017 0.210798 4.84567e-20)
(1.20017 0.208345 -3.99495e-20)
(1.19667 0.204398 -3.35298e-20)
(1.1915 0.199611 -3.13677e-20)
(1.18573 0.194403 9.35691e-20)
(1.17995 0.189019 0)
(1.17442 0.183597 4.76108e-20)
(1.16925 0.178208 4.05736e-20)
(1.16445 0.172898 -1.00116e-19)
(1.15997 0.167688 -6.95531e-20)
(1.15581 0.16218 6.42515e-20)
(0.0346075 -0.00412186 -4.05803e-20)
(0.140741 -0.00732713 -1.57364e-21)
(0.279233 0.00642858 3.66864e-20)
(0.437907 0.0325645 1.02473e-19)
(0.602888 0.0668399 2.98024e-20)
(0.760079 0.104792 -5.76308e-20)
(0.897715 0.141715 5.26037e-20)
(1.00854 0.173736 -4.6161e-20)
(1.09042 0.198568 8.29413e-20)
(1.14551 0.215589 3.53964e-20)
(1.17858 0.225464 -1.00525e-19)
(1.19534 0.229575 2.96445e-20)
(1.20117 0.229501 5.07413e-20)
(1.20036 0.226665 -2.49505e-20)
(1.19599 0.222162 0)
(1.19002 0.216748 3.73789e-20)
(1.18355 0.210891 6.35111e-20)
(1.17718 0.20486 1.10584e-20)
(1.17116 0.198802 -5.31278e-20)
(1.16558 0.192794 2.23525e-20)
(1.16044 0.186877 0)
(1.15569 0.181069 -1.77674e-20)
(1.15125 0.175333 -1.6981e-20)
(1.14707 0.169653 0)
(0.0507666 -0.00366342 0)
(0.186765 -0.00179782 2.12812e-20)
(0.351027 0.0210375 3.93061e-20)
(0.528236 0.057299 -1.04603e-19)
(0.7017 0.100162 3.38298e-20)
(0.856477 0.143426 0)
(0.98251 0.181797 5.0921e-20)
(1.07605 0.211928 -7.11301e-20)
(1.13888 0.232719 -4.14639e-20)
(1.17633 0.244847 1.87389e-20)
(1.19504 0.249985 -3.01091e-20)
(1.20128 0.250086 7.30447e-20)
(1.2001 0.246905 3.6642e-20)
(1.19502 0.241782 -2.54465e-20)
(1.18826 0.235624 -2.35559e-21)
(1.18105 0.228982 -6.99634e-20)
(1.17402 0.222166 3.18888e-20)
(1.16743 0.215342 -8.38993e-22)
(1.16138 0.208592 0)
(1.15585 0.201961 -2.23758e-20)
(1.1508 0.195473 0)
(1.14614 0.189117 5.12655e-20)
(1.14179 0.182868 -6.12764e-20)
(1.13762 0.176934 2.80224e-20)
(0.0692793 -0.00138102 -1.11441e-20)
(0.236895 0.00883306 -5.35952e-20)
(0.425463 0.0428966 6.10066e-20)
(0.616812 0.0897886 3.57978e-20)
(0.792626 0.140046 -1.7073e-20)
(0.939034 0.1863 2.87698e-20)
(1.04944 0.223567 -1.39487e-20)
(1.12442 0.249782 2.32702e-20)
(1.16948 0.26538 0)
(1.19221 0.27229 5.28473e-20)
(1.20007 0.27292 -2.17431e-21)
(1.19909 0.26948 -4.26694e-20)
(1.19353 0.263665 1.8277e-20)
(1.18603 0.256614 -2.06401e-20)
(1.17804 0.249011 -7.85792e-21)
(1.17028 0.241234 9.09465e-21)
(1.16306 0.233475 -7.01336e-21)
(1.15646 0.225831 -3.82879e-20)
(1.15049 0.218349 2.34603e-20)
(1.14509 0.211054 4.8143e-21)
(1.14019 0.203953 4.25776e-21)
(1.13567 0.197016 3.77033e-21)
(1.13143 0.190279 0)
(1.12731 0.183983 0)
(0.0896774 0.0031601 1.11518e-20)
(0.289373 0.0252484 -1.113e-20)
(0.499405 0.0722288 -2.03329e-20)
(0.699651 0.129399 0)
(0.871978 0.185116 -8.48812e-21)
(1.00555 0.231804 -7.66889e-21)
(1.0984 0.26573 -1.31286e-20)
(1.15548 0.28662 0)
(1.18521 0.296493 0)
(1.19644 0.298275 0)
(1.19658 0.294789 0)
(1.19092 0.288244 0)
(1.18279 0.280134 -1.14667e-20)
(1.17402 0.271355 5.21927e-21)
(1.1655 0.262391 9.08745e-21)
(1.15759 0.253485 4.25711e-21)
(1.15041 0.244749 1.05242e-20)
(1.14396 0.236236 0)
(1.13818 0.227972 -2.53353e-21)
(1.13301 0.219969 -2.44334e-21)
(1.12833 0.212213 -4.26454e-21)
(1.12403 0.204677 -3.77636e-21)
(1.11998 0.197471 0)
(1.11602 0.190702 2.7412e-21)
(-0.000814071 -0.00966288 6.85208e-21)
(-0.00486036 -0.0240398 -7.1151e-21)
(-0.0127792 -0.0347731 -1.34762e-20)
(-0.0227274 -0.0425249 0)
(-0.0336562 -0.0479309 -1.80506e-20)
(-0.0450043 -0.0515947 5.67575e-21)
(-0.0563746 -0.0540427 -1.06875e-20)
(-0.0674894 -0.0556951 0)
(-0.0781716 -0.0568547 0)
(-0.0883144 -0.0577092 0)
(-0.0978558 -0.0583463 0)
(-0.106761 -0.058775 0)
(-0.115009 -0.0589479 4.20001e-23)
(-0.122585 -0.0587809 -7.0031e-21)
(-0.129474 -0.0581686 1.30605e-20)
(-0.135663 -0.0569935 1.84181e-20)
(-0.141137 -0.0551328 5.67199e-21)
(-0.145887 -0.0524614 0)
(-0.149919 -0.0488536 5.08323e-21)
(-0.153265 -0.0441867 -1.41481e-20)
(-0.155981 -0.0383472 -8.75062e-21)
(-0.158129 -0.0312199 -8.15877e-21)
(-0.159861 -0.0226443 0)
(-0.161754 -0.0124673 0)
(-0.000621671 -0.00605164 -2.05585e-20)
(-0.00450794 -0.0155193 3.5501e-20)
(-0.0125143 -0.0230525 -1.33403e-20)
(-0.0226497 -0.0288142 -2.54202e-20)
(-0.0337806 -0.033102 3.59472e-20)
(-0.0453002 -0.0362757 -2.2621e-20)
(-0.0567824 -0.0386759 3.19618e-20)
(-0.0679324 -0.0405848 2.00326e-20)
(-0.078565 -0.0422061 0)
(-0.0885703 -0.0436605 -1.78109e-20)
(-0.0978857 -0.0449935 1.12494e-26)
(-0.106476 -0.0461903 1.57492e-20)
(-0.114319 -0.0471929 2.20707e-20)
(-0.121398 -0.047915 2.76004e-20)
(-0.127694 -0.0482519 -1.3114e-20)
(-0.133186 -0.0480867 -3.65095e-20)
(-0.137851 -0.0472919 1.116e-20)
(-0.141668 -0.0457275 -4.21838e-20)
(-0.144627 -0.0432383 0)
(-0.146751 -0.0396525 9.36428e-21)
(-0.14808 -0.0347847 8.73947e-21)
(-0.148599 -0.0284308 8.1482e-21)
(-0.148385 -0.0203386 0)
(-0.148417 -0.0103069 0)
(-0.000861734 -0.0023258 0)
(-0.00502735 -0.00677842 7.08456e-20)
(-0.0131583 -0.0110934 -2.67379e-20)
(-0.0232682 -0.0149059 2.53707e-20)
(-0.0342233 -0.0181493 -7.16559e-20)
(-0.0454163 -0.0209196 0)
(-0.0564214 -0.0233587 -4.24767e-20)
(-0.0669454 -0.0256032 1.99379e-20)
(-0.0768048 -0.027756 -3.757e-20)
(-0.0858919 -0.0298718 1.75874e-20)
(-0.0941458 -0.0319569 9.94458e-20)
(-0.101532 -0.0339773 -4.66939e-20)
(-0.108027 -0.0358691 -7.29123e-20)
(-0.113612 -0.0375485 -2.69968e-20)
(-0.118264 -0.0389176 2.59218e-22)
(-0.121956 -0.0398668 9.53669e-20)
(-0.124653 -0.0402738 -4.46312e-20)
(-0.126316 -0.0399957 4.15896e-22)
(-0.126909 -0.038861 0)
(-0.12642 -0.0366597 -3.52325e-20)
(-0.12485 -0.033133 0)
(-0.1221 -0.0279622 -3.05975e-20)
(-0.118052 -0.0207676 1.12848e-19)
(-0.114107 -0.0112572 -6.89906e-22)
(-0.00151697 0.0012851 0)
(-0.00638399 0.00168546 7.54549e-23)
(-0.0146742 0.000470412 2.6863e-20)
(-0.0245476 -0.00149314 -2.53888e-20)
(-0.0349508 -0.00378072 2.38138e-20)
(-0.0453201 -0.00622407 1.35199e-19)
(-0.0552589 -0.0087651 -4.24063e-20)
(-0.0644932 -0.0113948 -3.99431e-20)
(-0.0728512 -0.0141157 7.50785e-20)
(-0.0802318 -0.016918 -1.05674e-19)
(-0.086577 -0.0197709 3.30602e-20)
(-0.0918528 -0.0226226 3.09402e-20)
(-0.0960362 -0.0254055 0)
(-0.0991052 -0.0280407 2.71898e-20)
(-0.101034 -0.0304416 0)
(-0.101794 -0.0325106 4.68792e-20)
(-0.101345 -0.034145 -8.70466e-20)
(-0.0996369 -0.0352178 2.15331e-20)
(-0.0966126 -0.0355688 7.57474e-20)
(-0.0922273 -0.0349827 3.52008e-20)
(-0.0864581 -0.0331525 0)
(-0.0791744 -0.0296242 -8.81954e-20)
(-0.0699611 -0.0238196 2.81004e-20)
(-0.0597378 -0.0154054 0)
(-0.00253144 0.00458183 0)
(-0.00846599 0.00943308 -8.53304e-20)
(-0.0169364 0.0110718 -2.71273e-20)
(-0.0263636 0.010797 -5.08471e-20)
(-0.0358411 0.00935749 4.78795e-20)
(-0.0448874 0.00716964 -4.50891e-20)
(-0.0531604 0.00448185 8.497e-20)
(-0.0604203 0.00144292 3.98738e-20)
(-0.0665147 -0.00185255 -1.12616e-19)
(-0.0713509 -0.00533204 7.03387e-20)
(-0.0748727 -0.00892768 -9.89662e-20)
(-0.0770441 -0.0125694 2.16043e-19)
(-0.0778379 -0.0161836 -1.15798e-19)
(-0.0772287 -0.0196936 5.38261e-20)
(-0.0751829 -0.0230192 1.49965e-19)
(-0.0716706 -0.026086 -4.78892e-20)
(-0.0666591 -0.0288062 -4.42679e-20)
(-0.0600956 -0.031082 -4.08207e-20)
(-0.0519207 -0.0327934 0)
(-0.0420682 -0.0337716 -6.72612e-20)
(-0.0304861 -0.0337511 -6.01599e-20)
(-0.0171657 -0.0322953 8.7484e-20)
(-0.00214718 -0.0286568 1.03231e-19)
(0.016569 -0.0205875 -9.65443e-20)
(-0.00382072 0.00741243 0)
(-0.0110977 0.0161141 -1.14799e-19)
(-0.0197361 0.0202421 -3.55645e-22)
(-0.028493 0.0214311 1.02064e-19)
(-0.0366564 0.0207031 0)
(-0.0438559 0.0186938 0)
(-0.0498222 0.0158239 0)
(-0.0543602 0.0123711 -3.99168e-20)
(-0.0573397 0.00852117 1.56316e-22)
(-0.0586746 0.0044074 7.06499e-20)
(-0.0583046 0.000135334 -9.86831e-20)
(-0.0561832 -0.00420342 2.53497e-22)
(-0.0522693 -0.00852384 0)
(-0.0465235 -0.0127441 -5.38045e-20)
(-0.0389133 -0.0167901 4.93273e-20)
(-0.0293969 -0.0205881 -1.39667e-19)
(-0.0179343 -0.0240558 1.71116e-19)
(-0.0044975 -0.0271178 3.72571e-20)
(0.0109471 -0.0296909 -3.08261e-21)
(0.0284275 -0.0316777 -1.35491e-19)
(0.0479243 -0.0329471 -6.08722e-20)
(0.0694294 -0.0332147 1.93383e-19)
(0.0936568 -0.031392 -1.27527e-19)
(0.122902 -0.0243 0)
(-0.0052844 0.00967854 5.61285e-20)
(-0.0140561 0.0214796 5.74806e-20)
(-0.0227864 0.0276263 -5.48365e-20)
(-0.0306021 0.0299862 -1.0295e-19)
(-0.0370116 0.0297952 9.69391e-20)
(-0.0417714 0.0278728 -9.12083e-20)
(-0.0446949 0.0247884 1.28848e-19)
(-0.0456349 0.0209337 -3.98435e-20)
(-0.0444804 0.0165777 7.56581e-20)
(-0.0411443 0.0119117 0)
(-0.0355524 0.00708044 6.59786e-20)
(-0.0276366 0.00220161 -1.24307e-19)
(-0.0173319 -0.00262279 1.14952e-19)
(-0.00458118 -0.00730159 -1.07969e-19)
(0.010666 -0.011747 0)
(0.0284506 -0.0158669 9.25439e-20)
(0.0487978 -0.0195785 1.69331e-19)
(0.0717057 -0.0227986 -1.59092e-19)
(0.0971479 -0.0254461 -7.22173e-20)
(0.12507 -0.0274456 -6.46837e-20)
(0.155344 -0.028735 1.8358e-19)
(0.187904 -0.0292034 5.26354e-20)
(0.222078 -0.0283027 -5.1207e-20)
(0.267611 -0.0222953 4.44285e-20)
(-0.00681768 0.0113343 -5.61361e-20)
(-0.017086 0.025383 1.75607e-19)
(-0.0257259 0.0329891 -5.52997e-20)
(-0.032233 0.0361611 1.03868e-19)
(-0.03634 0.0362918 -9.7802e-20)
(-0.0379332 0.0343474 4.59191e-22)
(-0.0369081 0.0310195 4.34006e-20)
(-0.0331601 0.026797 1.62378e-19)
(-0.026589 0.0220233 -5.31327e-22)
(-0.0170964 0.0169449 -7.12478e-20)
(-0.00458474 0.0117474 0)
(0.0110394 0.00657828 -6.16868e-20)
(0.0298595 0.00156301 1.16178e-19)
(0.0519433 -0.00318426 1.06967e-19)
(0.077332 -0.00755269 -5.05223e-20)
(0.106026 -0.0114368 -3.65771e-23)
(0.137981 -0.0147347 -4.26954e-20)
(0.173093 -0.0173471 7.83954e-20)
(0.211197 -0.0191801 7.22005e-20)
(0.252082 -0.0201431 -6.60637e-20)
(0.295281 -0.020214 5.98539e-20)
(0.341488 -0.0190945 -5.42791e-20)
(0.384945 -0.0177526 0)
(0.451117 -0.0100803 -4.43611e-20)
(-0.00831915 0.0123783 5.7281e-20)
(-0.0199075 0.0277688 -5.87715e-20)
(-0.0281162 0.0362089 5.61286e-20)
(-0.0327847 0.039781 0)
(-0.0338573 0.0399861 0)
(-0.0313411 0.037903 9.34531e-20)
(-0.0252032 0.0343207 -8.71597e-20)
(-0.0153705 0.0298079 8.15749e-20)
(-0.00174519 0.0247742 -3.82359e-19)
(0.015785 0.0195187 3.55352e-22)
(0.0373327 0.0142693 6.69243e-20)
(0.0629951 0.0092088 0)
(0.0928345 0.00449375 -1.15379e-19)
(0.126859 0.000264109 2.15444e-19)
(0.165007 -0.0033524 -1.50486e-19)
(0.207126 -0.00623754 -2.29281e-19)
(0.252967 -0.00828259 3.30416e-21)
(0.302179 -0.0093906 1.58e-19)
(0.354298 -0.00948483 0)
(0.408893 -0.00844869 0)
(0.464618 -0.00652133 -5.98455e-20)
(0.524274 -0.0025234 5.42703e-20)
(0.57378 3.21847e-06 -1.91778e-19)
(0.657961 0.0111421 1.80019e-19)
(-0.00969238 0.0128399 0)
(-0.0222141 0.0286524 0)
(-0.0294292 0.0372666 -1.69085e-19)
(-0.0314881 0.0408008 5.37128e-20)
(-0.0285252 0.0408272 2.84285e-22)
(-0.0206495 0.0385104 9.46702e-20)
(-0.00788711 0.0347151 0)
(0.00981191 0.0300755 -8.24998e-20)
(0.0325366 0.0250615 7.66961e-20)
(0.0603865 0.020022 -1.43611e-19)
(0.0934376 0.0152282 4.98404e-22)
(0.131705 0.0108986 1.24392e-19)
(0.175108 0.00721467 -1.26804e-21)
(0.223443 0.00432912 1.05743e-19)
(0.276357 0.00236887 -1.51321e-19)
(0.333344 0.00143469 0)
(0.393747 0.00159927 1.68089e-19)
(0.456775 0.00290584 -2.35933e-19)
(0.521496 0.00534147 7.11718e-20)
(0.58719 0.00903178 0)
(0.651559 0.0132904 5.91547e-20)
(0.718996 0.0202017 2.12292e-19)
(0.770262 0.0240178 -1.9923e-19)
(0.859426 0.0380264 -2.20123e-19)
(-0.0108394 0.0127633 1.77085e-19)
(-0.023655 0.0280964 -2.43873e-19)
(-0.029028 0.0362399 3.27422e-22)
(-0.0273834 0.0393211 5.43699e-20)
(-0.019029 0.0389621 -1.01598e-19)
(-0.00415751 0.0363964 -9.41633e-20)
(0.0171502 0.0325477 1.76664e-19)
(0.0449001 0.028111 -1.54464e-21)
(0.0791298 0.0236037 -1.55295e-19)
(0.119835 0.0194172 2.88388e-19)
(0.166916 0.0158556 -1.38408e-21)
(0.220121 0.013154 -1.25927e-19)
(0.279 0.0114894 0)
(0.342879 0.0109848 0)
(0.410862 0.0117096 -4.99121e-20)
(0.481852 0.0136785 -9.16916e-20)
(0.554593 0.0168522 -1.67249e-19)
(0.627737 0.0211392 1.56994e-19)
(0.699889 0.0263868 -7.11961e-20)
(0.769882 0.0325404 1.27562e-19)
(0.835638 0.0388895 -6.28987e-20)
(0.899957 0.0470598 1.02227e-19)
(0.948254 0.0518229 -2.46542e-19)
(1.02333 0.0655623 4.40352e-20)
(-0.0116477 0.0121925 5.98406e-20)
(-0.0238056 0.026206 0)
(-0.0261183 0.0333005 1.16311e-19)
(-0.019283 0.035603 -1.09571e-19)
(-0.00375754 0.0347818 1.01689e-19)
(0.0201753 0.0321227 0)
(0.0523575 0.0286006 0)
(0.0926742 0.0249475 -8.31678e-20)
(0.140968 0.0217092 1.25421e-21)
(0.196941 0.0192997 7.33773e-20)
(0.260062 0.018016 -6.69222e-20)
(0.329507 0.0180536 1.26252e-19)
(0.404142 0.0195123 0)
(0.482536 0.0223987 2.13577e-19)
(0.563027 0.0266308 -3.974e-19)
(0.643802 0.0320448 2.76571e-19)
(0.723017 0.0384117 1.65907e-19)
(0.798893 0.0454392 -1.55738e-19)
(0.869871 0.0528529 0)
(0.934545 0.0602406 0)
(0.99211 0.0674763 0)
(1.04219 0.0742299 0)
(1.08157 0.0794115 4.84694e-20)
(1.1274 0.0879914 -1.74758e-19)
(-0.164901 0.00102633 -5.10086e-21)
(-0.16823 0.019208 5.12247e-21)
(-0.170929 0.0405299 -1.49204e-22)
(-0.173005 0.0648169 0)
(-0.174251 0.0918193 -4.56311e-21)
(-0.174438 0.121112 8.82262e-21)
(-0.17333 0.152035 -5.38581e-23)
(-0.170676 0.183626 -4.09328e-21)
(-0.166209 0.214622 0)
(-0.15966 0.243509 0)
(-0.150741 0.268476 -2.23745e-22)
(-0.139132 0.287398 -2.19221e-22)
(-0.124465 0.297893 -3.68124e-21)
(-0.106302 0.297439 3.36708e-21)
(-0.0839746 0.283399 0)
(-0.0570995 0.253978 0)
(-0.025585 0.207525 3.50867e-21)
(0.0105172 0.143654 9.96753e-23)
(0.050612 0.063725 -3.18417e-21)
(0.0932037 -0.0294425 -2.20142e-22)
(0.137042 -0.129546 0)
(0.180166 -0.229445 0)
(0.219382 -0.319273 0)
(0.250467 -0.391234 0)
(0.267895 -0.443021 0)
(0.265791 -0.478775 0)
(0.242669 -0.504165 4.61739e-22)
(0.207714 -0.516024 -7.37673e-22)
(0.182645 -0.496428 0)
(0.189686 -0.423585 0)
(0.231828 -0.294226 -6.68874e-22)
(0.294994 -0.128206 6.50043e-22)
(0.366472 0.0451805 2.99768e-22)
(0.436915 0.197984 0)
(0.496735 0.310283 0)
(0.540695 0.375417 3.43185e-22)
(0.566437 0.400494 -3.33589e-22)
(0.560099 0.409129 0)
(0.509495 0.419985 2.07503e-22)
(0.442915 0.412209 -3.11266e-22)
(0.416798 0.341567 1.1961e-22)
(0.452786 0.202939 0)
(0.523956 0.0417365 -2.10069e-22)
(0.601213 -0.0949382 2.04259e-22)
(0.663635 -0.185377 0)
(0.707939 -0.228488 0)
(0.733034 -0.234787 -2.42123e-23)
(0.738619 -0.220583 5.67088e-23)
(0.714982 -0.201335 0)
(0.681535 -0.173959 0)
(0.659407 -0.133021 -1.76116e-24)
(0.676385 -0.0734011 3.25179e-24)
(0.708471 -0.0164125 -3.57957e-25)
(0.756979 0.0340888 -1.26181e-24)
(0.784617 0.0607663 0)
(0.813028 0.0764192 0)
(0.813644 0.0775552 0)
(0.824353 0.0665048 0)
(0.816556 0.0603046 0)
(0.836755 0.0261287 0)
(-0.151086 0.00316702 -4.63597e-22)
(-0.153616 0.0204761 -1.91258e-20)
(-0.155032 0.0408663 3.41276e-22)
(-0.155724 0.0640987 1.76358e-20)
(-0.155352 0.0898964 2.58853e-22)
(-0.153589 0.117848 0)
(-0.150135 0.147348 -1.56167e-20)
(-0.144662 0.177413 3.07604e-20)
(-0.136775 0.206755 -1.51435e-20)
(-0.12608 0.233911 1.4562e-20)
(-0.112239 0.257053 -1.39301e-20)
(-0.0949333 0.27404 1.40389e-20)
(-0.0738322 0.282458 -1.364e-20)
(-0.0487778 0.279795 -4.49784e-22)
(-0.0191524 0.263539 -1.47923e-20)
(0.015231 0.231847 1.4375e-20)
(0.053691 0.183142 -1.53455e-20)
(0.0955789 0.117447 1.44202e-20)
(0.139916 0.0361655 -1.54048e-20)
(0.185242 -0.0574179 2.95182e-20)
(0.230234 -0.157445 -1.41369e-20)
(0.273071 -0.255922 -8.13011e-22)
(0.31077 -0.34239 -1.02739e-20)
(0.339158 -0.407965 1.84764e-20)
(0.353515 -0.449641 -8.25308e-21)
(0.348245 -0.472436 3.72503e-22)
(0.318843 -0.486225 4.74264e-21)
(0.26892 -0.494715 -2.62026e-22)
(0.217356 -0.484665 -7.89299e-21)
(0.192361 -0.430132 7.9921e-21)
(0.209569 -0.316846 -4.03643e-21)
(0.259401 -0.159251 5.02922e-22)
(0.324899 0.011714 -3.00386e-22)
(0.39363 0.166826 4.65574e-22)
(0.455691 0.285258 0)
(0.504774 0.358894 0)
(0.532525 0.396218 -1.10921e-21)
(0.522139 0.420407 8.22369e-22)
(0.471147 0.440749 7.08216e-22)
(0.419344 0.426501 1.97661e-22)
(0.41747 0.337953 -1.10324e-21)
(0.472125 0.184242 2.98908e-22)
(0.553077 0.0175326 0)
(0.633684 -0.11726 0)
(0.695169 -0.201817 0)
(0.735325 -0.238825 0)
(0.756588 -0.239657 1.30868e-22)
(0.763484 -0.219091 -3.31907e-23)
(0.744946 -0.194199 0)
(0.710766 -0.166044 0)
(0.677988 -0.130481 0)
(0.678163 -0.0776957 4.05988e-24)
(0.697718 -0.0247076 3.4031e-24)
(0.738061 0.0258369 -3.59271e-25)
(0.76383 0.0547423 0)
(0.791115 0.0732213 0)
(0.794844 0.0761201 -6.16495e-24)
(0.80989 0.0657181 -1.73271e-23)
(0.807572 0.0586377 0)
(0.836792 0.0237028 0)
(-0.114569 0.0019974 -2.59798e-22)
(-0.116097 0.0182756 -3.66815e-20)
(-0.115846 0.0376025 3.52004e-20)
(-0.114752 0.0596403 -3.29394e-20)
(-0.112396 0.0840969 -2.60628e-22)
(-0.108334 0.110567 0)
(-0.102289 0.138561 -3.02892e-20)
(-0.0939555 0.167086 2.96558e-20)
(-0.0827914 0.19457 2.28814e-22)
(-0.0682818 0.219851 4.33262e-22)
(-0.0500956 0.241123 4.33743e-22)
(-0.027923 0.256267 4.41582e-22)
(-0.00149581 0.262838 -2.94433e-20)
(0.0292276 0.25832 2.90659e-20)
(0.0644399 0.240644 0)
(0.104058 0.207671 9.94596e-22)
(0.147141 0.158048 -3.28663e-20)
(0.19271 0.0919481 3.2429e-20)
(0.239455 0.0107816 0)
(0.285956 -0.0820625 0)
(0.330948 -0.181078 -2.96908e-20)
(0.372533 -0.277772 5.50019e-20)
(0.40748 -0.361054 -4.61659e-20)
(0.431551 -0.42118 4.03055e-21)
(0.44122 -0.454329 3.02174e-20)
(0.432941 -0.465176 -2.44007e-20)
(0.401553 -0.465731 1.8209e-20)
(0.344618 -0.466087 -1.63122e-21)
(0.273833 -0.460628 -6.75566e-21)
(0.217819 -0.424361 0)
(0.204354 -0.332571 0)
(0.235109 -0.188582 2.77567e-21)
(0.291747 -0.022201 -3.56549e-21)
(0.357381 0.134091 -8.0076e-23)
(0.420406 0.258156 2.87289e-21)
(0.471868 0.341272 -2.79192e-21)
(0.498491 0.392681 0)
(0.484759 0.432086 2.56902e-22)
(0.438673 0.458408 2.37963e-21)
(0.406152 0.434692 -5.00631e-21)
(0.427614 0.329076 2.28431e-21)
(0.498362 0.163204 3.84756e-22)
(0.587099 -0.00720804 -2.82516e-21)
(0.669181 -0.138783 2.13312e-21)
(0.728537 -0.216888 3.62974e-22)
(0.764053 -0.247728 2.35463e-22)
(0.780133 -0.244028 -1.31195e-22)
(0.785907 -0.218608 0)
(0.772246 -0.188273 0)
(0.740976 -0.15757 4.97891e-23)
(0.702615 -0.125219 -2.59209e-23)
(0.688162 -0.078686 4.55241e-23)
(0.69445 -0.030524 -4.11528e-23)
(0.724251 0.018866 -4.99248e-23)
(0.746837 0.0491374 6.29204e-24)
(0.772315 0.0698024 -2.38495e-23)
(0.780051 0.0738595 2.44332e-23)
(0.800146 0.0638668 -1.05689e-23)
(0.804313 0.0555667 0)
(0.841782 0.0204683 0)
(-0.0569536 -0.00173934 -7.21872e-20)
(-0.0581056 0.0132078 1.99504e-21)
(-0.0564549 0.0311288 6.64886e-20)
(-0.0537317 0.0517113 -5.12922e-22)
(-0.0495367 0.0746318 0)
(-0.0432578 0.0995039 0)
(-0.0346249 0.12568 -5.78533e-20)
(-0.0238682 0.152114 -1.17773e-21)
(-0.0100831 0.177784 8.33919e-20)
(0.00766338 0.201341 3.91313e-22)
(0.0294416 0.220951 -2.77001e-20)
(0.0554556 0.234503 -2.82276e-20)
(0.085862 0.239666 2.82839e-20)
(0.120685 0.233998 0)
(0.15977 0.215529 -3.25203e-20)
(0.202777 0.182237 2.95631e-20)
(0.248708 0.132992 0)
(0.296324 0.0678444 0)
(0.34437 -0.0119714 3.43101e-20)
(0.391451 -0.103147 -5.53329e-22)
(0.436148 -0.200551 -3.08841e-20)
(0.47626 -0.295252 -2.7348e-20)
(0.507868 -0.375377 2.72454e-20)
(0.526471 -0.430508 -1.83674e-20)
(0.529532 -0.456627 4.06092e-21)
(0.516263 -0.457858 1.32822e-20)
(0.484045 -0.445765 1.07883e-21)
(0.427098 -0.434354 5.63796e-23)
(0.34728 -0.426801 0)
(0.266543 -0.404481 4.77685e-21)
(0.21956 -0.337111 -4.88711e-21)
(0.224014 -0.213397 3.9103e-22)
(0.267039 -0.0559039 0)
(0.327337 0.100195 -3.90529e-22)
(0.389355 0.229764 5.04656e-21)
(0.44038 0.323463 -8.98971e-21)
(0.464412 0.389716 -3.95926e-22)
(0.450058 0.44257 -1.12411e-22)
(0.414233 0.471393 3.67992e-21)
(0.403473 0.436774 5.82768e-22)
(0.446445 0.316165 -5.79958e-21)
(0.530938 0.140793 4.94684e-21)
(0.62561 -0.0315933 -6.12141e-23)
(0.707286 -0.159018 1.83971e-21)
(0.763003 -0.230448 -2.15258e-21)
(0.793491 -0.255114 -1.51046e-21)
(0.803923 -0.247488 4.698e-22)
(0.806507 -0.218708 1.63907e-22)
(0.796296 -0.183843 -1.61068e-22)
(0.77006 -0.149586 -2.15263e-23)
(0.731042 -0.118272 5.07956e-23)
(0.70569 -0.0767335 -5.22663e-23)
(0.699483 -0.0336241 -6.50188e-23)
(0.717329 0.0135263 1.06697e-22)
(0.735671 0.0441349 -7.1083e-24)
(0.758813 0.0661297 3.16883e-23)
(0.771145 0.070637 0)
(0.79645 0.0608325 1.43817e-23)
(0.807447 0.0511331 -8.09367e-24)
(0.851471 0.016544 0)
(0.0232351 -0.00744966 7.00381e-20)
(0.0203921 0.00630568 -1.34935e-19)
(0.0219443 0.0222638 6.4249e-20)
(0.025185 0.0408326 6.0826e-20)
(0.0302249 0.0618595 -1.1814e-19)
(0.0376059 0.0848744 6.26553e-22)
(0.0475658 0.108993 5.55874e-20)
(0.0602428 0.133364 5.4848e-20)
(0.0762758 0.157386 -5.3738e-20)
(0.0962134 0.179343 0)
(0.120361 0.197452 -5.6653e-20)
(0.148905 0.209657 1.13608e-19)
(0.181915 0.213818 -5.69097e-20)
(0.219317 0.207645 0)
(0.260775 0.189171 0)
(0.305768 0.156562 1.0436e-21)
(0.353297 0.108688 -7.14431e-20)
(0.402047 0.0454319 6.93979e-20)
(0.450893 -0.0319386 0)
(0.498437 -0.120704 7.00363e-20)
(0.542989 -0.215876 -1.28211e-19)
(0.581646 -0.308044 1.15052e-19)
(0.609524 -0.38454 -9.99448e-20)
(0.621924 -0.434607 8.15271e-21)
(0.617209 -0.454841 6.30985e-20)
(0.596838 -0.449378 -2.71289e-20)
(0.562111 -0.427796 -5.26071e-22)
(0.508413 -0.404141 -4.53672e-21)
(0.429579 -0.38872 1.12166e-21)
(0.335281 -0.372828 3.55052e-21)
(0.257955 -0.327709 2.48553e-22)
(0.229798 -0.22951 -3.80789e-21)
(0.251981 -0.0870869 7.8819e-21)
(0.30272 0.0662075 -4.50434e-21)
(0.36097 0.200739 0)
(0.409498 0.305512 -4.74105e-21)
(0.431413 0.386156 4.59631e-21)
(0.420394 0.449959 -3.96803e-21)
(0.399311 0.478633 4.91906e-21)
(0.41092 0.433288 -7.05058e-22)
(0.473123 0.300286 0)
(0.569282 0.117867 -8.44176e-22)
(0.668083 -0.0547255 2.20992e-21)
(0.747505 -0.177466 0)
(0.798028 -0.242253 3.50367e-21)
(0.822949 -0.26095 -1.57491e-21)
(0.827831 -0.249797 2.85709e-22)
(0.825951 -0.218901 1.36349e-22)
(0.817173 -0.18084 0)
(0.796488 -0.142856 0)
(0.76081 -0.110766 2.0616e-22)
(0.729195 -0.072552 -3.61286e-22)
(0.712816 -0.0341105 2.06508e-22)
(0.718648 0.00998992 -6.7359e-23)
(0.73213 0.0398611 -9.09592e-23)
(0.752573 0.062201 -3.17186e-23)
(0.769588 0.066426 5.37452e-23)
(0.799596 0.0566357 0)
(0.817033 0.0455329 1.67498e-23)
(0.865219 0.0121275 3.1793e-24)
(0.129777 -0.0128392 6.90352e-20)
(0.12475 3.51035e-05 -6.84747e-20)
(0.122703 0.0135002 5.00012e-22)
(0.124036 0.0293891 -4.60721e-22)
(0.127769 0.0479271 4.57841e-22)
(0.134129 0.0685686 -4.41947e-22)
(0.143521 0.0904958 8.29898e-22)
(0.156252 0.112946 0)
(0.172735 0.134963 -8.16624e-22)
(0.193345 0.155127 8.26063e-22)
(0.218365 0.171734 8.46415e-22)
(0.247952 0.18283 -8.93666e-22)
(0.282116 0.18637 0)
(0.320697 0.180211 0)
(0.363255 0.162429 1.01434e-21)
(0.409145 0.131284 0)
(0.457404 0.0855273 -1.10335e-21)
(0.506909 0.0246466 0)
(0.556462 -0.0492872 -7.03753e-20)
(0.604551 -0.134917 1.37668e-19)
(0.649085 -0.227096 -1.28858e-19)
(0.686113 -0.315922 6.17434e-20)
(0.709639 -0.388182 4.6147e-20)
(0.715045 -0.433225 -4.48112e-20)
(0.702045 -0.448478 -2.81555e-20)
(0.673821 -0.438623 2.71092e-20)
(0.634517 -0.411511 0)
(0.583485 -0.378159 3.04627e-22)
(0.511973 -0.351761 0)
(0.416793 -0.334259 0)
(0.319091 -0.304724 3.34586e-21)
(0.257008 -0.233145 -3.36665e-21)
(0.250376 -0.112181 1.90698e-22)
(0.284883 0.0336848 4.46761e-22)
(0.33544 0.171389 -3.17928e-22)
(0.380144 0.286579 -3.59111e-21)
(0.401712 0.380284 3.48703e-21)
(0.3981 0.452656 -5.02074e-21)
(0.394681 0.479756 4.37052e-21)
(0.427743 0.425039 1.46857e-21)
(0.506778 0.282376 -7.08244e-21)
(0.612636 0.0953717 -8.88479e-22)
(0.713719 -0.0761399 5.06853e-21)
(0.789238 -0.193662 0)
(0.83318 -0.252041 -1.70434e-21)
(0.851859 -0.265238 1.18639e-21)
(0.851484 -0.250909 -1.6656e-21)