/*--------------------------------*- C++ -*----------------------------------*\
| =========                 |                                                 |
| \\      /  F ield         | OpenFOAM: The Open Source CFD Toolbox           |
|  \\    /   O peration     | Version:  2512                                  |
|   \\  /    A nd           | Website:  www.openfoam.com                      |
|    \\/     M anipulation  |                                                 |
\*---------------------------------------------------------------------------*/
FoamFile
{
    version     2.0;
    format      ascii;
    arch        "LSB;label=32;scalar=64";
    class       volScalarField;
    location    "58.5";
    object      p;
}
// * * * * * * * * * * * * * * * * * * * * * * * * * * * * * * * * * * * * * //

dimensions      [0 2 -2 0 0 0 0];

internalField   nonuniform List<scalar> 
13248
(
-0.327396
-0.32568
-0.323271
-0.320371
-0.317233
-0.314123
-0.311253
-0.308775
-0.306778
-0.305286
-0.304262
-0.303613
-0.303198
-0.302842
-0.30235
-0.301523
-0.300177
-0.298155
-0.295329
-0.291651
-0.28696
-0.281429
-0.274108
-0.265941
-0.334454
-0.332143
-0.329153
-0.325697
-0.322024
-0.318399
-0.315021
-0.312013
-0.309421
-0.307219
-0.305321
-0.303592
-0.301866
-0.299964
-0.297714
-0.294969
-0.291613
-0.287573
-0.282808
-0.277304
-0.271035
-0.26403
-0.256044
-0.247899
-0.343196
-0.340066
-0.336363
-0.332283
-0.328029
-0.32385
-0.319906
-0.316263
-0.312905
-0.309752
-0.306678
-0.303534
-0.30017
-0.296455
-0.292288
-0.28761
-0.282398
-0.276661
-0.270421
-0.263716
-0.256537
-0.248961
-0.240828
-0.232717
-0.353719
-0.349555
-0.345012
-0.340231
-0.335331
-0.330509
-0.325859
-0.321371
-0.316962
-0.312513
-0.307895
-0.302996
-0.297735
-0.292071
-0.286002
-0.279558
-0.272785
-0.265736
-0.258452
-0.250964
-0.24328
-0.23545
-0.227369
-0.219598
-0.366044
-0.360657
-0.355162
-0.3496
-0.343953
-0.338331
-0.332741
-0.32709
-0.32125
-0.315111
-0.3086
-0.301697
-0.294427
-0.286854
-0.279058
-0.27112
-0.26311
-0.255075
-0.247043
-0.239026
-0.23102
-0.223043
-0.215034
-0.207367
-0.380108
-0.373355
-0.366824
-0.360396
-0.353852
-0.347185
-0.340304
-0.333062
-0.325349
-0.31713
-0.308451
-0.299419
-0.290169
-0.280839
-0.271546
-0.262376
-0.253381
-0.244584
-0.235984
-0.22757
-0.219326
-0.211242
-0.203277
-0.195685
-0.395745
-0.387541
-0.379916
-0.372515
-0.36485
-0.356775
-0.348136
-0.338804
-0.328772
-0.318158
-0.307162
-0.296012
-0.284915
-0.274034
-0.263476
-0.253295
-0.243508
-0.234103
-0.225055
-0.216331
-0.2079
-0.199735
-0.191811
-0.184251
-0.41264
-0.402965
-0.394205
-0.385675
-0.376561
-0.366599
-0.355653
-0.343728
-0.331011
-0.317818
-0.304496
-0.291348
-0.278597
-0.266381
-0.25476
-0.243743
-0.233307
-0.223407
-0.213997
-0.205029
-0.196457
-0.188244
-0.180369
-0.172848
-0.430282
-0.419187
-0.409249
-0.399357
-0.388357
-0.375946
-0.362144
-0.34721
-0.331594
-0.3158
-0.300271
-0.285322
-0.271135
-0.257787
-0.24528
-0.233574
-0.222608
-0.212313
-0.202621
-0.193472
-0.184808
-0.176587
-0.16878
-0.161317
-0.447934
-0.435532
-0.424343
-0.412766
-0.399361
-0.383937
-0.36683
-0.348651
-0.330113
-0.311854
-0.294335
-0.277819
-0.262416
-0.248125
-0.23489
-0.222626
-0.21124
-0.200643
-0.19075
-0.181487
-0.172788
-0.164602
-0.15688
-0.149503
-0.464637
-0.451072
-0.438508
-0.424839
-0.408488
-0.389574
-0.36889
-0.347429
-0.326113
-0.305628
-0.286383
-0.268549
-0.252141
-0.237086
-0.223275
-0.210583
-0.198893
-0.188095
-0.178093
-0.168798
-0.160136
-0.152046
-0.144443
-0.13721
-0.479291
-0.464754
-0.45066
-0.434453
-0.414638
-0.391852
-0.367452
-0.342791
-0.318916
-0.296482
-0.275785
-0.256881
-0.239688
-0.224063
-0.209845
-0.19688
-0.185025
-0.174156
-0.16416
-0.154941
-0.14642
-0.138522
-0.13113
-0.124181
-0.283064
-0.284705
-0.285753
-0.286468
-0.287098
-0.287716
-0.28836
-0.28905
-0.289796
-0.290596
-0.291447
-0.292342
-0.293273
-0.294232
-0.295206
-0.296183
-0.297145
-0.298072
-0.298941
-0.299727
-0.300409
-0.300971
-0.301412
-0.301703
-0.286632
-0.287918
-0.288764
-0.289376
-0.289962
-0.290596
-0.29132
-0.292162
-0.293135
-0.294246
-0.295499
-0.296896
-0.298438
-0.300125
-0.301954
-0.303917
-0.305999
-0.308178
-0.31042
-0.312686
-0.314931
-0.317108
-0.319155
-0.32103
-0.290544
-0.291421
-0.292022
-0.292492
-0.292993
-0.293599
-0.294357
-0.295299
-0.296446
-0.297811
-0.299402
-0.301231
-0.303305
-0.305633
-0.308217
-0.311052
-0.314122
-0.317401
-0.320846
-0.324383
-0.327941
-0.331412
-0.334649
-0.337803
-0.294552
-0.295001
-0.295328
-0.295616
-0.295982
-0.2965
-0.297225
-0.298193
-0.299432
-0.300958
-0.302788
-0.304936
-0.307418
-0.310244
-0.31342
-0.316941
-0.320787
-0.324913
-0.32933
-0.333812
-0.338319
-0.342669
-0.346567
-0.350215
-0.298442
-0.298481
-0.298519
-0.298586
-0.298759
-0.299115
-0.299718
-0.300613
-0.301833
-0.303401
-0.305336
-0.307658
-0.310382
-0.313522
-0.317082
-0.321055
-0.325417
-0.330118
-0.33508
-0.340167
-0.345227
-0.350043
-0.354246
-0.357514
-0.302053
-0.30174
-0.301491
-0.301298
-0.301213
-0.301323
-0.301703
-0.302409
-0.303483
-0.304953
-0.306844
-0.309174
-0.31196
-0.315211
-0.318928
-0.323097
-0.327684
-0.332622
-0.337807
-0.343086
-0.348262
-0.353051
-0.357243
-0.359495
-0.305324
-0.304738
-0.304213
-0.303725
-0.303317
-0.303092
-0.303144
-0.303543
-0.304341
-0.305576
-0.307274
-0.309456
-0.312133
-0.31531
-0.318979
-0.323115
-0.327663
-0.332539
-0.337617
-0.342715
-0.347629
-0.351888
-0.355906
-0.356633
-0.308296
-0.307524
-0.306738
-0.30592
-0.30513
-0.304492
-0.304122
-0.304109
-0.30452
-0.305401
-0.306786
-0.308691
-0.311126
-0.314085
-0.317544
-0.32146
-0.325764
-0.330335
-0.33502
-0.339589
-0.343909
-0.347176
-0.350699
-0.349781
-0.311128
-0.310239
-0.3092
-0.308024
-0.306803
-0.305691
-0.304829
-0.30433
-0.304277
-0.304728
-0.305719
-0.307265
-0.309367
-0.312003
-0.315132
-0.318678
-0.322534
-0.326553
-0.330557
-0.334261
-0.337637
-0.339619
-0.342095
-0.339729
-0.314089
-0.313112
-0.31181
-0.310246
-0.30856
-0.306939
-0.305552
-0.304534
-0.303985
-0.30397
-0.304527
-0.305665
-0.307366
-0.30958
-0.312231
-0.315203
-0.31835
-0.321491
-0.324435
-0.326909
-0.328934
-0.329575
-0.330537
-0.32706
-0.317532
-0.316433
-0.314832
-0.312849
-0.310676
-0.308534
-0.306617
-0.305079
-0.304029
-0.303536
-0.30363
-0.304299
-0.305493
-0.307126
-0.309071
-0.31117
-0.313233
-0.315059
-0.316451
-0.317228
-0.317386
-0.316567
-0.315892
-0.31206
-0.32185
-0.320524
-0.318557
-0.316118
-0.313445
-0.310786
-0.308356
-0.306315
-0.304774
-0.303791
-0.30337
-0.303466
-0.303986
-0.304794
-0.30572
-0.306564
-0.307119
-0.307183
-0.306567
-0.305175
-0.302893
-0.299909
-0.296662
-0.292734
-0.30179
-0.300882
-0.29905
-0.296056
-0.291683
-0.285804
-0.278426
-0.269767
-0.260307
-0.250797
-0.242187
-0.235531
-0.231735
-0.231661
-0.235387
-0.24197
-0.249621
-0.255375
-0.25619
-0.249837
-0.234493
-0.211908
-0.185805
-0.160858
-0.140858
-0.128061
-0.124127
-0.130939
-0.148442
-0.171304
-0.188989
-0.191314
-0.176274
-0.150123
-0.122152
-0.0995642
-0.0852871
-0.0784788
-0.0794286
-0.0899762
-0.106042
-0.117239
-0.11538
-0.101919
-0.0848154
-0.0704125
-0.0598903
-0.0538074
-0.0540527
-0.057451
-0.058053
-0.0522203
-0.0423549
-0.031065
-0.0208509
-0.0127256
-0.0067752
-0.00444019
-0.00380998
-0.00104635
-0.323242
-0.323548
-0.3226
-0.319994
-0.315349
-0.308404
-0.299042
-0.287397
-0.273935
-0.259416
-0.244797
-0.231409
-0.220384
-0.212888
-0.209586
-0.210289
-0.213642
-0.217302
-0.218219
-0.21444
-0.203373
-0.186918
-0.167629
-0.149276
-0.13513
-0.127607
-0.129043
-0.141605
-0.164468
-0.191011
-0.209661
-0.209987
-0.190925
-0.159988
-0.127442
-0.100684
-0.0827259
-0.0728127
-0.0705273
-0.0775801
-0.0909206
-0.101504
-0.101692
-0.0920856
-0.0794634
-0.0690695
-0.0615688
-0.0582392
-0.0608987
-0.0654865
-0.0654667
-0.057746
-0.0457049
-0.0325989
-0.0212506
-0.0123517
-0.00589215
-0.00320776
-0.00259124
-0.000471406
-0.342611
-0.343545
-0.343373
-0.341138
-0.33626
-0.328352
-0.317176
-0.302783
-0.285616
-0.266389
-0.24595
-0.226322
-0.208249
-0.193351
-0.18276
-0.177257
-0.175577
-0.176313
-0.176107
-0.175146
-0.167986
-0.157634
-0.145036
-0.133239
-0.125098
-0.12325
-0.130578
-0.149132
-0.177156
-0.206954
-0.226457
-0.225269
-0.202827
-0.16779
-0.131339
-0.101055
-0.0798622
-0.0671127
-0.0618665
-0.0655993
-0.0762225
-0.0859595
-0.0878787
-0.0819676
-0.0737997
-0.0673859
-0.0630117
-0.0626512
-0.0678454
-0.0735653
-0.0727482
-0.0630765
-0.0489149
-0.0340816
-0.0216646
-0.0120565
-0.00515527
-0.00210034
-0.00139049
0.000106791
-0.357027
-0.359149
-0.359418
-0.357498
-0.352491
-0.343828
-0.331183
-0.314514
-0.294147
-0.270689
-0.244785
-0.220529
-0.19597
-0.174181
-0.156395
-0.145094
-0.137863
-0.134967
-0.132264
-0.133503
-0.129262
-0.124466
-0.118126
-0.112739
-0.11074
-0.114897
-0.128332
-0.152733
-0.185499
-0.218241
-0.23871
-0.236661
-0.211708
-0.17343
-0.133832
-0.100733
-0.0768627
-0.0616033
-0.0537302
-0.0543719
-0.0623323
-0.0709753
-0.0742793
-0.0718039
-0.0679144
-0.0653442
-0.0641621
-0.0669454
-0.0747876
-0.0816005
-0.0798215
-0.0681626
-0.0519483
-0.0354969
-0.0220986
-0.0118455
-0.00457346
-0.00113973
-0.000240309
0.000665367
-0.365654
-0.369169
-0.369603
-0.367759
-0.362672
-0.353495
-0.33981
-0.321494
-0.298727
-0.272173
-0.242969
-0.21321
-0.183726
-0.156222
-0.131423
-0.116299
-0.103086
-0.0958023
-0.0904206
-0.0911253
-0.0892948
-0.0888519
-0.0879879
-0.0885598
-0.0926214
-0.1029
-0.122355
-0.152152
-0.189072
-0.224427
-0.246029
-0.243869
-0.217446
-0.176961
-0.135063
-0.0998543
-0.0738834
-0.0564807
-0.0463244
-0.0441242
-0.0495269
-0.0569128
-0.0612279
-0.0618156
-0.061866
-0.0629023
-0.0649318
-0.0710089
-0.0816126
-0.089486
-0.0865804
-0.0729563
-0.0547755
-0.0368299
-0.0225521
-0.011719
-0.00414652
-0.000340846
0.000819602
0.00117861
-0.368496
-0.372934
-0.373424
-0.371492
-0.366328
-0.356855
-0.342553
-0.323256
-0.299117
-0.270748
-0.239263
-0.206247
-0.173146
-0.141598
-0.113257
-0.091018
-0.073236
-0.0614035
-0.0536318
-0.0519626
-0.0510952
-0.0534177
-0.0567751
-0.0624332
-0.0721141
-0.0882269
-0.113225
-0.147666
-0.187976
-0.225543
-0.248385
-0.246833
-0.220019
-0.178442
-0.135184
-0.0985557
-0.0710338
-0.051874
-0.0397676
-0.0350184
-0.0379871
-0.044052
-0.0488915
-0.0521838
-0.0556793
-0.0599992
-0.0652222
-0.0747212
-0.0881906
-0.0971056
-0.0929159
-0.0774129
-0.0573741
-0.0380675
-0.0230181
-0.0116729
-0.00386595
0.000289473
0.00174737
0.00162194
-0.36547
-0.369987
-0.370461
-0.36868
-0.363589
-0.354097
-0.339773
-0.320394
-0.296017
-0.267174
-0.234858
-0.200428
-0.165391
-0.131376
-0.100105
-0.0733737
-0.0514551
-0.0352599
-0.0242387
-0.0194582
-0.0176792
-0.021285
-0.0272579
-0.036748
-0.0511261
-0.0722662
-0.101872
-0.13988
-0.182657
-0.221992
-0.246031
-0.245658
-0.219471
-0.177961
-0.134341
-0.0969568
-0.0683749
-0.0478479
-0.0341031
-0.0271162
-0.0277682
-0.0325359
-0.0376507
-0.0430152
-0.0493475
-0.0565798
-0.0649389
-0.0779635
-0.0943786
-0.104322
-0.0989575
-0.081514
-0.0597243
-0.0391959
-0.0234834
-0.0116978
-0.00371627
0.000752703
0.00250631
0.00197619
-0.357134
-0.360639
-0.361283
-0.359976
-0.355142
-0.345993
-0.332286
-0.3137
-0.290186
-0.262183
-0.230532
-0.196385
-0.16111
-0.126199
-0.0932161
-0.0636653
-0.0384656
-0.0185334
-0.00408788
0.00419093
0.00788243
0.00486769
-0.00201041
-0.0137846
-0.0314988
-0.0564055
-0.0893399
-0.129657
-0.173878
-0.214408
-0.239434
-0.240767
-0.216003
-0.175646
-0.132614
-0.0951156
-0.065913
-0.0444
-0.0293165
-0.0204304
-0.0188636
-0.0223448
-0.0274643
-0.0343291
-0.0428532
-0.0526061
-0.063999
-0.0806103
-0.100022
-0.110967
-0.10486
-0.0852461
-0.06181
-0.0402048
-0.0239339
-0.0117814
-0.00367735
0.00105819
0.00307262
0.00223147
-0.344423
-0.345994
-0.346992
-0.346317
-0.341891
-0.3335
-0.321042
-0.304023
-0.282304
-0.256245
-0.226514
-0.194045
-0.159999
-0.125662
-0.0923807
-0.0614769
-0.0340498
-0.011129
0.00655675
0.0183206
0.0249346
0.0236205
0.0173265
0.0048972
-0.0145351
-0.0416923
-0.0765608
-0.117956
-0.162632
-0.203739
-0.230754
-0.232767
-0.210026
-0.171768
-0.130205
-0.0932167
-0.0637871
-0.0416186
-0.0254557
-0.0149839
-0.011308
-0.0134211
-0.0182672
-0.0260712
-0.0361716
-0.0480261
-0.0623073
-0.0825704
-0.104989
-0.11689
-0.11006
-0.0885542
-0.0636368
-0.0411096
-0.0243717
-0.0119204
-0.00373177
0.00121958
0.00343976
0.00238879
-0.328133
-0.327652
-0.329179
-0.329005
-0.32507
-0.31786
-0.307172
-0.292284
-0.27302
-0.249661
-0.222695
-0.192839
-0.161042
-0.128373
-0.0959791
-0.0650205
-0.0365985
-0.0117657
0.00849151
0.0231145
0.0310562
0.0344409
0.0301652
0.0185666
-0.000988749
-0.0288282
-0.0641991
-0.105455
-0.149654
-0.190545
-0.218257
-0.222173
-0.202178
-0.166953
-0.127712
-0.0918273
-0.0624681
-0.0398351
-0.0227604
-0.0108861
-0.00517629
-0.00575203
-0.0100244
-0.0181311
-0.0292377
-0.0428217
-0.0598337
-0.0836992
-0.109124
-0.121955
-0.114475
-0.0914051
-0.0652422
-0.0419522
-0.0248194
-0.0121253
-0.00387209
0.00124878
0.00361667
0.00245807
-0.310125
-0.3086
-0.310344
-0.310186
-0.306881
-0.301269
-0.292724
-0.280338
-0.26393
-0.243681
-0.219894
-0.193088
-0.16402
-0.13361
-0.102848
-0.072593
-0.0438858
-0.0178074
0.00452314
0.0219906
0.0335961
0.0383976
0.0369
0.0274738
0.00925527
-0.0179645
-0.0528198
-0.0931917
-0.136228
-0.176212
-0.20386
-0.209115
-0.19248
-0.161243
-0.125106
-0.0908564
-0.0618217
-0.0388414
-0.0210733
-0.00798808
-0.000301255
0.000902697
-0.00268356
-0.0106246
-0.0220731
-0.0368399
-0.056359
-0.0840232
-0.112466
-0.126004
-0.118004
-0.0936807
-0.0665374
-0.0426648
-0.0252315
-0.0123664
-0.0040756
0.0011644
0.00362639
0.0024545
-0.291618
-0.291722
-0.291798
-0.290056
-0.286824
-0.282527
-0.275988
-0.266229
-0.253008
-0.236346
-0.216365
-0.193361
-0.167828
-0.140447
-0.112058
-0.0835601
-0.0559196
-0.0300568
-0.00690464
0.0127508
0.0264577
0.036173
0.0372763
0.0307701
0.0154005
-0.00934554
-0.0419128
-0.0798855
-0.12049
-0.158678
-0.184199
-0.19209
-0.179006
-0.151883
-0.119033
-0.0869352
-0.0589347
-0.0362275
-0.0184607
-0.00488301
0.00420787
0.00717189
0.00443853
-0.003639
-0.0148273
-0.0304356
-0.0520786
-0.0831998
-0.114505
-0.128973
-0.120259
-0.0949548
-0.067058
-0.0428685
-0.025357
-0.0124806
-0.00424313
0.00102636
0.00351795
0.00239915
-0.273049
-0.282049
-0.281626
-0.276823
-0.272109
-0.267529
-0.261261
-0.252132
-0.239805
-0.224304
-0.205775
-0.184478
-0.160836
-0.135441
-0.109011
-0.0823205
-0.0561997
-0.0314952
-0.00900806
0.0107866
0.0245971
0.0340062
0.0366783
0.03196
0.0182872
-0.00512193
-0.0366306
-0.0734828
-0.113028
-0.149962
-0.175465
-0.18056
-0.166778
-0.140479
-0.10941
-0.0793165
-0.052976
-0.0313318
-0.0141443
-0.000717412
0.00874358
0.012951
0.0118068
0.00770454
-0.00532707
-0.0215569
-0.045591
-0.0811807
-0.116639
-0.132533
-0.122612
-0.0954489
-0.0667495
-0.0424699
-0.0251095
-0.0123888
-0.00429746
0.000904422
0.00336166
0.00231875
-0.253148
-0.264467
-0.263792
-0.25841
-0.253347
-0.24861
-0.242552
-0.233976
-0.22252
-0.208262
-0.19139
-0.172132
-0.150823
-0.127932
-0.104049
-0.079833
-0.0560111
-0.0333669
-0.0127339
0.00455478
0.0188882
0.0280372
0.0310066
0.0269076
0.0144053
-0.00723536
-0.0365127
-0.070713
-0.107019
-0.140116
-0.161332
-0.164575
-0.151051
-0.12694
-0.0988676
-0.0715991
-0.0473578
-0.0270084
-0.0106238
0.00253639
0.0124025
0.0176767
0.0176968
0.0129949
0.00252965
-0.0137172
-0.0398331
-0.079371
-0.118066
-0.134268
-0.122709
-0.0946081
-0.065758
-0.0418088
-0.0247876
-0.0123233
-0.00440888
0.000713883
0.00312336
0.00218951
-0.23387
-0.24578
-0.245948
-0.240814
-0.235393
-0.230427
-0.224578
-0.216637
-0.206178
-0.193269
-0.178099
-0.160868
-0.141827
-0.121345
-0.0999123
-0.0781069
-0.0565838
-0.0360599
-0.0172741
-0.00115016
0.0118701
0.020271
0.0229775
0.0191202
0.0076211
-0.0120237
-0.0383865
-0.0688335
-0.100405
-0.128276
-0.145278
-0.147124
-0.134901
-0.113718
-0.0888835
-0.0643577
-0.0421171
-0.0230009
-0.00730818
0.00555062
0.0156286
0.0217834
0.0231251
0.0195794
0.0101201
-0.00660937
-0.0353135
-0.078269
-0.118673
-0.134362
-0.12146
-0.0929258
-0.0643339
-0.0409545
-0.0243789
-0.0122488
-0.00453401
0.000480075
0.00282047
0.00202795
-0.215985
-0.227329
-0.22819
-0.223572
-0.218182
-0.213204
-0.207669
-0.200437
-0.19102
-0.17944
-0.165884
-0.150535
-0.133602
-0.115382
-0.096284
-0.0768094
-0.0575346
-0.0390818
-0.0221046
-0.00742127
0.00428873
0.0119104
0.0144442
0.0110761
0.000963145
-0.0161877
-0.0390702
-0.0652162
-0.0918123
-0.114889
-0.128465
-0.129569
-0.118995
-0.100746
-0.0790622
-0.0572306
-0.0370158
-0.019194
-0.00421247
0.00826951
0.0184124
0.0252888
0.0281049
0.0262226
0.0179578
0.000627652
-0.0308945
-0.0766947
-0.118075
-0.133026
-0.118941
-0.0903775
-0.0624353
-0.0398812
-0.0238784
-0.0121627
-0.00466851
0.000212334
0.00247367
0.001847
-0.198622
-0.209333
-0.2107
-0.206708
-0.201641
-0.19687
-0.191732
-0.185218
-0.176819
-0.166515
-0.154477
-0.140884
-0.125916
-0.109816
-0.0929218
-0.0756601
-0.0585314
-0.0420851
-0.0269263
-0.0137519
-0.00327011
0.00364603
0.00613113
0.00347167
-0.0049545
-0.0192911
-0.0384384
-0.0602526
-0.0821879
-0.100616
-0.111814
-0.112584
-0.103759
-0.0883808
-0.0697267
-0.0504604
-0.0321934
-0.0156716
-0.0014056
0.0106673
0.0207521
0.0281395
0.0323574
0.0324108
0.0257792
0.00820177
-0.0258683
-0.0740435
-0.116017
-0.129922
-0.114914
-0.0868745
-0.0600431
-0.0385829
-0.0232844
-0.0120596
-0.00481112
-8.32292e-05
0.00209642
0.00165152
-0.181964
-0.192103
-0.193796
-0.190432
-0.185842
-0.18141
-0.176724
-0.170922
-0.163505
-0.154419
-0.143813
-0.131858
-0.118714
-0.104581
-0.0897386
-0.0745475
-0.0594421
-0.0449089
-0.0314827
-0.0197731
-0.0104141
-0.00412567
-0.00162768
-0.00350808
-0.0102061
-0.0217642
-0.0372943
-0.0550159
-0.0727124
-0.0874504
-0.0962608
-0.0968944
-0.0897415
-0.0769621
-0.061039
-0.044122
-0.0276847
-0.0124586
0.00106347
0.0127148
0.02263
0.0303057
0.0356879
0.0376879
0.033048
0.0157451
-0.020367
-0.0702841
-0.112148
-0.124696
-0.109253
-0.0824111
-0.0571701
-0.0370615
-0.0225958
-0.0119328
-0.00495866
-0.000399306
0.00170096
0.00144593
-0.166407
-0.175766
-0.177633
-0.174855
-0.170807
-0.166811
-0.162614
-0.157508
-0.151029
-0.143097
-0.133834
-0.123397
-0.111933
-0.0996114
-0.086662
-0.0733903
-0.0601694
-0.0474249
-0.0356064
-0.0252558
-0.0169223
-0.0112004
-0.00867073
-0.00979868
-0.0148842
-0.0238961
-0.036118
-0.0501144
-0.0640387
-0.0755831
-0.0824642
-0.0829949
-0.0772321
-0.0666455
-0.0530966
-0.0382943
-0.0235477
-0.00958631
0.00315053
0.0143675
0.0240282
0.0317889
0.0380059
0.0416676
0.0391145
0.0225576
-0.0148393
-0.0653845
-0.106139
-0.117044
-0.101945
-0.077042
-0.0538551
-0.0353286
-0.021814
-0.0117751
-0.00510654
-0.000728165
0.00129873
0.00123454
-0.15179
-0.160313
-0.162297
-0.160072
-0.156586
-0.153073
-0.149348
-0.144937
-0.139344
-0.132489
-0.124473
-0.115436
-0.105511
-0.0948436
-0.0836259
-0.0721124
-0.0606213
-0.0495359
-0.0391792
-0.0300763
-0.0226775
-0.017466
-0.0149026
-0.015347
-0.0189967
-0.0257723
-0.0350995
-0.0458582
-0.0565543
-0.0654228
-0.0706727
-0.0710136
-0.0663008
-0.0574918
-0.0459538
-0.0330223
-0.0198218
-0.00707151
0.00483588
0.0155778
0.0249276
0.0325936
0.0389628
0.0440661
0.0433606
0.0279019
-0.00959626
-0.0592224
-0.0977628
-0.107135
-0.0931471
-0.0708992
-0.050166
-0.0334062
-0.0209426
-0.0115793
-0.00524862
-0.00106183
0.000899966
0.00102125
-0.13802
-0.145812
-0.147877
-0.146146
-0.143204
-0.140202
-0.137062
-0.133186
-0.128407
-0.12254
-0.115668
-0.107911
-0.0993874
-0.0902219
-0.0805741
-0.0706538
-0.0607244
-0.0510743
-0.0421217
-0.0341633
-0.0276094
-0.0228568
-0.0202687
-0.0201186
-0.0225337
-0.0274161
-0.0343103
-0.0423451
-0.0503234
-0.0569525
-0.0607994
-0.0608616
-0.0568945
-0.0494871
-0.0396211
-0.0283252
-0.0165343
-0.00492933
0.00611982
0.0163143
0.0253074
0.0327739
0.0391552
0.0447794
0.0453713
0.0312628
-0.00474369
-0.0516433
-0.0869454
-0.0951837
-0.0831977
-0.0641949
-0.0461987
-0.0313266
-0.0199878
-0.0113395
-0.00537728
-0.0013919
0.000513805
0.000809936
-0.125235
-0.132315
-0.134393
-0.133084
-0.13064
-0.128109
-0.125458
-0.122271
-0.118184
-0.113204
-0.107366
-0.100769
-0.0935119
-0.0856998
-0.0774654
-0.0689845
-0.0604798
-0.0521837
-0.0444236
-0.0374833
-0.0316864
-0.0273492
-0.0247553
-0.0241115
-0.0254986
-0.0288185
-0.0337113
-0.0394956
-0.0451919
-0.0499842
-0.0526279
-0.0523571
-0.0488914
-0.0425711
-0.0340827
-0.0242054
-0.0136967
-0.00317097
0.0070119
0.0165814
0.025151
0.0323304
0.0384582
0.0439713
0.0451551
0.0325905
-0.000195735
-0.0425802
-0.0740064
-0.0818214
-0.0726093
-0.0572045
-0.0420687
-0.0291295
-0.0189581
-0.0110508
-0.00548395
-0.0017094
0.000148298
0.000604756
-0.113427
-0.119782
-0.121825
-0.12088
-0.118891
-0.116797
-0.114605
-0.111965
-0.1086
-0.104433
-0.0995233
-0.0939675
-0.0878464
-0.0812449
-0.0742729
-0.0670749
-0.0598191
-0.0527401
-0.0460589
-0.0400288
-0.0349101
-0.0309536
-0.0283794
-0.0273438
-0.0278969
-0.0299467
-0.0332078
-0.0371644
-0.0411789
-0.0443193
-0.0459142
-0.0452839
-0.0421425
-0.0366611
-0.0293048
-0.0206525
-0.0113062
-0.00179834
0.0075246
0.0164069
0.0244652
0.0312703
0.0370023
0.042001
0.0431849
0.032342
0.00412489
-0.0324976
-0.0599535
-0.0680562
-0.0620109
-0.0502291
-0.0378972
-0.0268585
-0.0178641
-0.0107103
-0.00555986
-0.00200512
-0.000189538
0.00040999
-0.102489
-0.108178
-0.110166
-0.109534
-0.107951
-0.106258
-0.104486
-0.102349
-0.0996063
-0.0961823
-0.0921178
-0.0874851
-0.0823653
-0.0768335
-0.0709775
-0.0649107
-0.0587822
-0.0527618
-0.0470392
-0.0418184
-0.037307
-0.0337029
-0.0311761
-0.029843
-0.0297362
-0.030772
-0.0327158
-0.0351637
-0.037764
-0.039686
-0.0404096
-0.0394329
-0.0364971
-0.0316653
-0.0252409
-0.0176456
-0.00934897
-0.000800933
0.00767558
0.0158296
0.0232984
0.0296487
0.034907
0.0392259
0.0401048
0.0310653
0.00788492
-0.0226408
-0.0463509
-0.0550087
-0.0519976
-0.0435368
-0.0337946
-0.0245567
-0.016718
-0.0103171
-0.0055969
-0.0022701
-0.000493816
0.000229772
-0.092402
-0.0974891
-0.0994023
-0.0990293
-0.0978021
-0.0964664
-0.0950725
-0.0933818
-0.0911863
-0.0884128
-0.0850887
-0.0812773
-0.0770448
-0.0724548
-0.0675789
-0.0625087
-0.0573606
-0.0522714
-0.0473935
-0.0428889
-0.0389215
-0.0356461
-0.0331934
-0.0316507
-0.0310396
-0.0312911
-0.0322056
-0.0333503
-0.0349351
-0.0358827
-0.0358978
-0.0346143
-0.0318114
-0.0274888
-0.0218361
-0.015154
-0.00780343
-0.000156638
0.00749316
0.0148987
0.0217244
0.0275583
0.0322928
0.0359019
0.0363918
0.0290154
0.0105009
-0.0143089
-0.0345266
-0.0434945
-0.0429734
-0.0373136
-0.0298477
-0.0222638
-0.0155334
-0.0098721
-0.00558833
-0.00249627
-0.000759955
6.77104e-05
-0.0831604
-0.0876816
-0.0894975
-0.0893348
-0.0884151
-0.0873941
-0.0863318
-0.0850308
-0.0833108
-0.0811027
-0.0784249
-0.0753295
-0.0718711
-0.0681016
-0.0640783
-0.059874
-0.0555798
-0.0513035
-0.0471652
-0.0432921
-0.0398125
-0.036846
-0.0344926
-0.0328195
-0.0318435
-0.0315198
-0.031739
-0.0323972
-0.032668
-0.0327604
-0.0321993
-0.0306601
-0.0279511
-0.024037
-0.0190295
-0.0131395
-0.0066404
0.000166067
0.00701583
0.0136707
0.019827
0.0251099
0.029284
0.0322013
0.0323128
0.0262849
0.0116768
-0.00812409
-0.025069
-0.0338741
-0.0351101
-0.0316606
-0.0261198
-0.0200157
-0.0143252
-0.00937847
-0.00552946
-0.00267697
-0.000984766
-7.3454e-05
-0.0747004
-0.0786987
-0.0804069
-0.0804146
-0.0797576
-0.0790082
-0.0782314
-0.0772648
-0.0759522
-0.0742297
-0.0721083
-0.0696299
-0.066839
-0.0637771
-0.0604893
-0.0570321
-0.0534758
-0.049904
-0.0464101
-0.0430927
-0.0400506
-0.0373755
-0.0351442
-0.0334069
-0.0321772
-0.0314214
-0.0310462
-0.0309009
-0.0306386
-0.0301467
-0.0291543
-0.0274223
-0.0247933
-0.0212179
-0.0167573
-0.0115571
-0.005823
0.00020361
0.00628909
0.0122089
0.0176916
0.0224185
0.026007
0.0282908
0.0280862
0.023109
0.0116504
-0.00393603
-0.0178872
-0.0261053
-0.0284156
-0.0266182
-0.0226552
-0.0178442
-0.0131092
-0.00884134
-0.00541803
-0.00280741
-0.00116642
-0.00019207
-0.0669627
-0.070492
-0.0720894
-0.0722313
-0.0717941
-0.0712744
-0.0707387
-0.0700537
-0.069085
-0.0677738
-0.0661254
-0.0641724
-0.0619507
-0.0594929
-0.0568337
-0.0540158
-0.0510927
-0.048128
-0.0451931
-0.0423634
-0.039714
-0.0373145
-0.0352229
-0.0334773
-0.0320884
-0.0310282
-0.0302206
-0.0295572
-0.0288471
-0.0279352
-0.026635
-0.0247737
-0.0222268
-0.0189432
-0.0149536
-0.0103578
-0.00530956
-2.42256e-06
0.00536224
0.0105764
0.0153971
0.0195942
0.0225882
0.0243434
0.0239241
0.0197991
0.010855
-0.00128995
-0.0126018
-0.019967
-0.0228142
-0.0221904
-0.0194835
-0.015777
-0.0119019
-0.00826785
-0.00525443
-0.00288498
-0.00130446
-0.000287624
-0.0599092
-0.0630158
-0.0644987
-0.0647424
-0.0644855
-0.0641565
-0.0638207
-0.0633688
-0.0626857
-0.0617178
-0.060466
-0.0589553
-0.0572137
-0.0552664
-0.0531395
-0.0508643
-0.0484807
-0.0460361
-0.0435843
-0.0411817
-0.0388849
-0.036746
-0.0348084
-0.0331007
-0.0316308
-0.0303774
-0.02929
-0.0282855
-0.0272453
-0.0260411
-0.0245367
-0.0226056
-0.0201519
-0.0171299
-0.0135529
-0.0094895
-0.00505527
-0.000405354
0.00428811
0.00883323
0.0129922
0.0164056
0.0191362
0.020508
0.0199834
0.0165841
0.00963746
0.000251251
-0.00880215
-0.0151917
-0.0181971
-0.018359
-0.0166221
-0.0138376
-0.01072
-0.00766691
-0.00504171
-0.00290941
-0.00139976
-0.000360614
-0.0534922
-0.056217
-0.0575841
-0.0579025
-0.0577913
-0.0576179
-0.0574445
-0.0571819
-0.056732
-0.0560465
-0.0551229
-0.0539797
-0.0526386
-0.0511186
-0.0494382
-0.0476202
-0.0456932
-0.0436921
-0.0416561
-0.039627
-0.0376468
-0.0357537
-0.0339801
-0.0323476
-0.0308617
-0.0295078
-0.0282536
-0.0270395
-0.0257845
-0.0243951
-0.0227727
-0.020825
-0.0184803
-0.0157006
-0.0124909
-0.00889952
-0.00501356
-0.000957519
0.00312115
0.00705376
0.0106347
0.0135967
0.0158384
0.0168997
0.0163578
0.0135927
0.00822803
0.00102661
-0.00612669
-0.0115282
-0.0144434
-0.0150916
-0.0140782
-0.0120442
-0.00957957
-0.00704892
-0.00478531
-0.00288285
-0.00145446
-0.000412359
-0.0476589
-0.0500428
-0.0512969
-0.0516674
-0.0516714
-0.0516224
-0.0515781
-0.0514662
-0.0512035
-0.0507466
-0.0500907
-0.0492492
-0.0482385
-0.0470722
-0.0457633
-0.0443275
-0.0427847
-0.0411596
-0.0394805
-0.0377776
-0.0360812
-0.0344196
-0.0328158
-0.0312862
-0.029836
-0.0284562
-0.0271233
-0.025798
-0.0244253
-0.0229396
-0.0212708
-0.0193528
-0.0171337
-0.0145843
-0.0117063
-0.00853532
-0.00513809
-0.00161366
0.00191254
0.00529528
0.00836332
0.0108921
0.0127513
0.013584
0.0130895
0.0108813
0.0067699
0.00129001
-0.00429166
-0.00875869
-0.0114361
-0.0123457
-0.0118497
-0.0104103
-0.00849555
-0.00642531
-0.00449279
-0.00280969
-0.00147183
-0.000444804
-0.0423642
-0.0444452
-0.04559
-0.0459939
-0.0460869
-0.0461349
-0.0461908
-0.0461961
-0.0460805
-0.0458057
-0.0453651
-0.0447682
-0.0440268
-0.0431506
-0.0421481
-0.0410294
-0.0398079
-0.0385004
-0.0371267
-0.035708
-0.0342659
-0.0328204
-0.0313884
-0.0299819
-0.0286058
-0.0272548
-0.0259124
-0.0245526
-0.0231396
-0.0216289
-0.0199717
-0.0181222
-0.016044
-0.0137168
-0.011142
-0.00834656
-0.00538381
-0.00233219
0.000705509
0.00360319
0.00622616
0.0084324
0.00992487
0.0105933
0.0101873
0.00846612
0.00534953
0.00121544
-0.00307198
-0.00670379
-0.00906351
-0.0100732
-0.00992684
-0.00894376
-0.00748099
-0.00580799
-0.0041733
-0.00269623
-0.0014562
-0.000460324
-0.0375661
-0.0393778
-0.0404178
-0.0408398
-0.0409995
-0.0411214
-0.0412529
-0.0413472
-0.0413449
-0.0412124
-0.0409424
-0.0405411
-0.0400168
-0.0393761
-0.0386242
-0.0377669
-0.0368126
-0.0357722
-0.034659
-0.0334875
-0.0322724
-0.0310281
-0.0297661
-0.0284951
-0.0272201
-0.0259379
-0.0246373
-0.0233013
-0.0219075
-0.0204269
-0.0188269
-0.0170768
-0.0151524
-0.0130409
-0.0107451
-0.0082868
-0.00570866
-0.00307479
-0.000467052
0.00200772
0.00423182
0.00607433
0.00735474
0.00793137
0.00764019
0.00634015
0.00401193
0.000925822
-0.00229933
-0.00521781
-0.00722518
-0.00822207
-0.00829315
-0.0076478
-0.00654659
-0.00520873
-0.00383697
-0.00255025
-0.00141266
-0.000461554
-0.0332233
-0.0347967
-0.0357374
-0.0361655
-0.0363737
-0.03655
-0.0367368
-0.0368963
-0.0369791
-0.0369559
-0.0368189
-0.036572
-0.0362209
-0.0357695
-0.0352207
-0.0345774
-0.0338442
-0.0330275
-0.0321359
-0.0311788
-0.0301659
-0.0291068
-0.0280099
-0.0268808
-0.0257238
-0.0245381
-0.0233161
-0.0220465
-0.0207158
-0.0193064
-0.0177978
-0.0161703
-0.0144089
-0.0125069
-0.0104688
-0.00831366
-0.00607548
-0.00380709
-0.00157551
0.000534704
0.00242092
0.00397041
0.00506805
0.00559326
0.00542592
0.00448503
0.00277977
0.000492956
-0.00201642
-0.0041956
-0.00583101
-0.00673966
-0.00692743
-0.00652081
-0.00570031
-0.0046385
-0.00349436
-0.00238045
-0.00134693
-0.00045125
-0.0292985
-0.0306615
-0.0315092
-0.0319342
-0.032176
-0.032391
-0.0326163
-0.0328219
-0.0329668
-0.0330255
-0.0329906
-0.032864
-0.0326492
-0.0323487
-0.0319633
-0.0314939
-0.0309426
-0.0303126
-0.0296089
-0.0288372
-0.0280035
-0.0271139
-0.0261742
-0.0251878
-0.024158
-0.0230862
-0.0219674
-0.0207935
-0.0195568
-0.0182477
-0.0168543
-0.0153652
-0.0137719
-0.0120724
-0.0102727
-0.00838978
-0.00645189
-0.00450168
-0.00259409
-0.000797093
0.000807216
0.00212463
0.0030721
0.0035656
0.0035154
0.00287681
0.00166729
1.8582e-05
-0.00182
-0.00349288
-0.0047924
-0.00557317
-0.00580488
-0.00555705
-0.00494715
-0.00410693
-0.00315572
-0.00219587
-0.00126501
-0.000432169
-0.0257582
-0.0269361
-0.0276972
-0.0281123
-0.0283758
-0.0286168
-0.0288673
-0.0291038
-0.0292922
-0.0294111
-0.029453
-0.0294187
-0.0293103
-0.0291287
-0.0288738
-0.028545
-0.0281425
-0.0276676
-0.0271225
-0.0265103
-0.0258347
-0.0250988
-0.0243064
-0.0234599
-0.0225606
-0.0216108
-0.0206092
-0.0195498
-0.0184272
-0.0172371
-0.015974
-0.0146322
-0.013208
-0.0117026
-0.010123
-0.00848447
-0.00681085
-0.00513674
-0.00350595
-0.0019742
-0.000604116
0.00053115
0.00136826
0.00182978
0.00187474
0.00149061
0.000675184
-0.000472323
-0.00178925
-0.00303716
-0.00403753
-0.00467316
-0.00489875
-0.00474738
-0.00428911
-0.00362178
-0.00283051
-0.00200534
-0.00117287
-0.000406968
-0.0225721
-0.0235875
-0.0242687
-0.0246692
-0.0249451
-0.0252022
-0.0254678
-0.0257232
-0.0259408
-0.0261023
-0.026201
-0.0262365
-0.02621
-0.0261215
-0.0259701
-0.0257542
-0.025473
-0.0251262
-0.0247145
-0.0242391
-0.0237016
-0.0231037
-0.0224474
-0.0217341
-0.020964
-0.0201391
-0.0192602
-0.0183243
-0.0173269