/*--------------------------------*- C++ -*----------------------------------*\
| =========                 |                                                 |
| \\      /  F ield         | OpenFOAM: The Open Source CFD Toolbox           |
|  \\    /   O peration     | Version:  2512                                  |
|   \\  /    A nd           | Website:  www.openfoam.com                      |
|    \\/     M anipulation  |                                                 |
\*---------------------------------------------------------------------------*/
FoamFile
{
    version     2.0;
    format      ascii;
    arch        "LSB;label=32;scalar=64";
    class       volScalarField;
    location    "86";
    object      p;
}
// * * * * * * * * * * * * * * * * * * * * * * * * * * * * * * * * * * * * * //

dimensions      [0 2 -2 0 0 0 0];

internalField   nonuniform List<scalar> 
13248
(
-0.313869
-0.312742
-0.31051
-0.307415
-0.303709
-0.29961
-0.295314
-0.291018
-0.286887
-0.283059
-0.279634
-0.276667
-0.274161
-0.272069
-0.270299
-0.268718
-0.267169
-0.265486
-0.2635
-0.261095
-0.258043
-0.254412
-0.249261
-0.243312
-0.321474
-0.319547
-0.316677
-0.313072
-0.30895
-0.304521
-0.299961
-0.295414
-0.290995
-0.286779
-0.282805
-0.27907
-0.275536
-0.272131
-0.26876
-0.265317
-0.261698
-0.257809
-0.253567
-0.248903
-0.243723
-0.237979
-0.231378
-0.224607
-0.330985
-0.328033
-0.324358
-0.320127
-0.315496
-0.310651
-0.305721
-0.300781
-0.295867
-0.290985
-0.286118
-0.281233
-0.27629
-0.271244
-0.266055
-0.260693
-0.255139
-0.24938
-0.243402
-0.237192
-0.230685
-0.223898
-0.216628
-0.209415
-0.342359
-0.338189
-0.333569
-0.328606
-0.32336
-0.317968
-0.312484
-0.306893
-0.301147
-0.295198
-0.289013
-0.282581
-0.275915
-0.26905
-0.262033
-0.254912
-0.247734
-0.240526
-0.2333
-0.226044
-0.218722
-0.21134
-0.203767
-0.196529
-0.355564
-0.350024
-0.344356
-0.338569
-0.332585
-0.326454
-0.320134
-0.313513
-0.306489
-0.299011
-0.291096
-0.282815
-0.27428
-0.265613
-0.256932
-0.248329
-0.239867
-0.231574
-0.223448
-0.215471
-0.207608
-0.199848
-0.192109
-0.184743
-0.370545
-0.363531
-0.35675
-0.350057
-0.343172
-0.336019
-0.328453
-0.320306
-0.311486
-0.302025
-0.292052
-0.281761
-0.271358
-0.261027
-0.250908
-0.241091
-0.231616
-0.222489
-0.213689
-0.205182
-0.19693
-0.188903
-0.181045
-0.173591
-0.387163
-0.37862
-0.370691
-0.362992
-0.354959
-0.346377
-0.337034
-0.326789
-0.315667
-0.303858
-0.291647
-0.279334
-0.267181
-0.255381
-0.24405
-0.233241
-0.222959
-0.213179
-0.20386
-0.194953
-0.186414
-0.178198
-0.170271
-0.162738
-0.40511
-0.395044
-0.385944
-0.377077
-0.36754
-0.356996
-0.345267
-0.332366
-0.318538
-0.304174
-0.289698
-0.275469
-0.261746
-0.248679
-0.236332
-0.224708
-0.213772
-0.203471
-0.193746
-0.184538
-0.175792
-0.167458
-0.159509
-0.151941
-0.423861
-0.412342
-0.402034
-0.391751
-0.380234
-0.367117
-0.352408
-0.336411
-0.319648
-0.302702
-0.286073
-0.270114
-0.255024
-0.240884
-0.227691
-0.215398
-0.203935
-0.193227
-0.183196
-0.173774
-0.164897
-0.156512
-0.148584
-0.14103
-0.442639
-0.429793
-0.418202
-0.406154
-0.392099
-0.375808
-0.357655
-0.338323
-0.318608
-0.299217
-0.280649
-0.263185
-0.246937
-0.231901
-0.218014
-0.205185
-0.193313
-0.182301
-0.17206
-0.162508
-0.153574
-0.1452
-0.137328
-0.129834
-0.460427
-0.446413
-0.433401
-0.419151
-0.401984
-0.382029
-0.360162
-0.337474
-0.314967
-0.293376
-0.273128
-0.254397
-0.237193
-0.221435
-0.207004
-0.19377
-0.18161
-0.170408
-0.16006
-0.150474
-0.14157
-0.13328
-0.125513
-0.118151
-0.476066
-0.461083
-0.446482
-0.429553
-0.408733
-0.384733
-0.359032
-0.333091
-0.308027
-0.284518
-0.262864
-0.243112
-0.225168
-0.208878
-0.194075
-0.180596
-0.168294
-0.157038
-0.146711
-0.137211
-0.128455
-0.12036
-0.112807
-0.105736
-0.315498
-0.317635
-0.318879
-0.319598
-0.320124
-0.320558
-0.320949
-0.321331
-0.321718
-0.322115
-0.322525
-0.322957
-0.323428
-0.323969
-0.324622
-0.325448
-0.326519
-0.327924
-0.329764
-0.332152
-0.335194
-0.338971
-0.343554
-0.349118
-0.312006
-0.313654
-0.314547
-0.314961
-0.315164
-0.31525
-0.315279
-0.315299
-0.315341
-0.315431
-0.3156
-0.315885
-0.316342
-0.317039
-0.318066
-0.319526
-0.32154
-0.324236
-0.327745
-0.332195
-0.337697
-0.344314
-0.352054
-0.36108
-0.309384
-0.310492
-0.311003
-0.311097
-0.310968
-0.310703
-0.31037
-0.310028
-0.309727
-0.309512
-0.309437
-0.309564
-0.309976
-0.310773
-0.312074
-0.314015
-0.316743
-0.320406
-0.325145
-0.33109
-0.33833
-0.346888
-0.356668
-0.367825
-0.307351
-0.307941
-0.308074
-0.30784
-0.307367
-0.306733
-0.306015
-0.305285
-0.30461
-0.304055
-0.303692
-0.303605
-0.303893
-0.30468
-0.306103
-0.308313
-0.311468
-0.315723
-0.321216
-0.328056
-0.336307
-0.345964
-0.356869
-0.368849
-0.305674
-0.305837
-0.305626
-0.305068
-0.304235
-0.303203
-0.302058
-0.300891
-0.299785
-0.298825
-0.298102
-0.297715
-0.29778
-0.298427
-0.299803
-0.302064
-0.305366
-0.309857
-0.315661
-0.322864
-0.331498
-0.341507
-0.352863
-0.364626
-0.304208
-0.304094
-0.303591
-0.302713
-0.301503
-0.300038
-0.29842
-0.296756
-0.295152
-0.293714
-0.292551
-0.291779
-0.291521
-0.291916
-0.29311
-0.295255
-0.298498
-0.302971
-0.308776
-0.315968
-0.324559
-0.334332
-0.345645
-0.356347
-0.302973
-0.302696
-0.301974
-0.300789
-0.299188
-0.297263
-0.295132
-0.292924
-0.290772
-0.288803
-0.287147
-0.285935
-0.2853
-0.285385
-0.286334
-0.288291
-0.291388
-0.295733
-0.301391
-0.308368
-0.316702
-0.325845
-0.336788
-0.34577
-0.302069
-0.301772
-0.300877
-0.299393
-0.297398
-0.295003
-0.292348
-0.289588
-0.286881
-0.284381
-0.282238
-0.280597
-0.279606
-0.279406
-0.280138
-0.281928
-0.284885
-0.289082
-0.294552
-0.301183
-0.309063
-0.317197
-0.327275
-0.334109
-0.301771
-0.301523
-0.300478
-0.298701
-0.29632
-0.293473
-0.290327
-0.287062
-0.283859
-0.280898
-0.278347
-0.276368
-0.275109
-0.274713
-0.275302
-0.276975
-0.279791
-0.283764
-0.288859
-0.294862
-0.301866
-0.308628
-0.31704
-0.321617
-0.302442
-0.302224
-0.301015
-0.298942
-0.296199
-0.292952
-0.289391
-0.285718
-0.282136
-0.27884
-0.276011
-0.273812
-0.272388
-0.271854
-0.272296
-0.273758
-0.276233
-0.279658
-0.283924
-0.28878
-0.294233
-0.299274
-0.305262
-0.307719
-0.304481
-0.304176
-0.302737
-0.300357
-0.297278
-0.293694
-0.289812
-0.285847
-0.282011
-0.278501
-0.275492
-0.273135
-0.271542
-0.270787
-0.270894
-0.271833
-0.27352
-0.275818
-0.278548
-0.281509
-0.284597
-0.287418
-0.290639
-0.29134
-0.308224
-0.307632
-0.305855
-0.303134
-0.299729
-0.295853
-0.291728
-0.287559
-0.283551
-0.279884
-0.27671
-0.274138
-0.272233
-0.271008
-0.270417
-0.270363
-0.270696
-0.271235
-0.271766
-0.272133
-0.272126
-0.271846
-0.271492
-0.270809
-0.357086
-0.367368
-0.378136
-0.388346
-0.396428
-0.400668
-0.399125
-0.389986
-0.372193
-0.345677
-0.311704
-0.273144
-0.234112
-0.198746
-0.17018
-0.150346
-0.140409
-0.141103
-0.151803
-0.16874
-0.184479
-0.189886
-0.182017
-0.160405
-0.132844
-0.107167
-0.0882497
-0.0776356
-0.0744528
-0.0776196
-0.088314
-0.107748
-0.130853
-0.145921
-0.143258
-0.124774
-0.100125
-0.0787752
-0.0648237
-0.0572511
-0.0556561
-0.0621873
-0.0737495
-0.0810095
-0.0772485
-0.0659781
-0.0550802
-0.0470821
-0.0428067
-0.0444041
-0.0477192
-0.0483965
-0.045206
-0.0383585
-0.0325032
-0.0259103
-0.018923
-0.0164185
-0.0129602
-0.00519944
-0.373957
-0.388642
-0.403385
-0.417014
-0.427764
-0.43362
-0.432522
-0.422559
-0.402468
-0.372165
-0.333187
-0.28886
-0.243733
-0.20233
-0.168053
-0.142806
-0.12739
-0.122287
-0.127245
-0.139603
-0.153244
-0.160143
-0.155446
-0.13932
-0.117547
-0.0970149
-0.0824541
-0.0755325
-0.0754755
-0.0816012
-0.0956469
-0.118624
-0.144501
-0.160304
-0.155882
-0.134315
-0.10634
-0.0818459
-0.0651502
-0.0552472
-0.0513548
-0.0552681
-0.0645256
-0.0707912
-0.0679115
-0.0591976
-0.051107
-0.0457857
-0.0437602
-0.0479202
-0.0533537
-0.0544919
-0.0505408
-0.0416486
-0.0343526
-0.0259145
-0.0173789
-0.0138635
-0.00998936
-0.0039654
-0.384258
-0.402147
-0.419399
-0.43524
-0.447799
-0.454738
-0.454026
-0.443581
-0.422015
-0.389173
-0.346696
-0.298169
-0.248434
-0.202298
-0.163381
-0.133533
-0.113307
-0.102844
-0.102134
-0.109596
-0.120576
-0.128167
-0.126786
-0.11604
-0.100054
-0.0848181
-0.0748294
-0.0717493
-0.0748761
-0.0839642
-0.101189
-0.127354
-0.155687
-0.17227
-0.16648
-0.142264
-0.111393
-0.084148
-0.064999
-0.0529822
-0.0469998
-0.0484435
-0.0554743
-0.0607454
-0.0586366
-0.05232
-0.0468739
-0.0442021
-0.0445104
-0.0513732
-0.0590356
-0.0606018
-0.0557675
-0.0447423
-0.0360108
-0.0258805
-0.015883
-0.0113681
-0.00706941
-0.00275893
-0.387405
-0.407117
-0.425622
-0.44257
-0.456417
-0.463861
-0.463428
-0.452847
-0.430631
-0.396527
-0.352193
-0.301319
-0.248906
-0.199872
-0.157797
-0.124436
-0.100205
-0.0850532
-0.0789496
-0.0812074
-0.0887537
-0.0960202
-0.0974974
-0.0915166
-0.0810045
-0.07096
-0.0655149
-0.0661716
-0.0723116
-0.0841184
-0.104131
-0.133091
-0.163709
-0.181307
-0.174712
-0.148421
-0.115177
-0.0856622
-0.0644383
-0.0505723
-0.0427567
-0.0419579
-0.0468983
-0.051165
-0.0496552
-0.0454829
-0.0424504
-0.0423392
-0.0449942
-0.0546465
-0.0646292
-0.0666253
-0.0608178
-0.0476019
-0.0374547
-0.0257924
-0.0144376
-0.00895704
-0.00422291
-0.00158804
-0.383886
-0.404113
-0.422894
-0.440121
-0.453543
-0.461783
-0.461565
-0.451116
-0.428955
-0.3948
-0.350319
-0.299179
-0.246262
-0.196295
-0.152659
-0.116985
-0.089619
-0.0704442
-0.0594426
-0.0564546
-0.0598398
-0.0655923
-0.0689431
-0.0667028
-0.061097
-0.0558543
-0.0546127
-0.0586629
-0.0674844
-0.0816258
-0.103978
-0.135331
-0.168078
-0.18694
-0.180253
-0.152675
-0.117687
-0.086435
-0.0635528
-0.0481318
-0.0387548
-0.0359781
-0.0390052
-0.0422952
-0.0412053
-0.0388184
-0.0379024
-0.0401937
-0.0451397
-0.0576146
-0.0699791
-0.0724256
-0.0656065
-0.0501916
-0.0386671
-0.0256349
-0.0130449
-0.00665238
-0.00147003
-0.000460315
-0.375102
-0.39459
-0.412698
-0.430294
-0.44316
-0.450621
-0.450114
-0.439882
-0.418335
-0.385235
-0.342227
-0.292774
-0.241388
-0.192355
-0.148709
-0.111951
-0.0824174
-0.0599953
-0.0446942
-0.0366809
-0.0354193
-0.0384956
-0.0420333
-0.0426983
-0.0411314
-0.0399908
-0.0423289
-0.0492672
-0.0603517
-0.0764012
-0.100584
-0.133858
-0.168521
-0.188892
-0.182937
-0.154966
-0.118945
-0.0865171
-0.0624084
-0.0457378
-0.0350697
-0.0306024
-0.0319276
-0.034305
-0.0333985
-0.032446
-0.0332939
-0.0377675
-0.0448811
-0.0601455
-0.0749108
-0.0778562
-0.0700547
-0.0524824
-0.0396342
-0.0253887
-0.0117042
-0.00447332
0.00117326
0.00061863
-0.363057
-0.380529
-0.397088
-0.41258
-0.425514
-0.43184
-0.430897
-0.420972
-0.400548
-0.369519
-0.329427
-0.283335
-0.235159
-0.188583
-0.146225
-0.109458
-0.0786959
-0.0538984
-0.0350899
-0.0225799
-0.0165543
-0.0160187
-0.0183685
-0.0205179
-0.0218294
-0.0238938
-0.0290536
-0.0382566
-0.0511007
-0.0685709
-0.0940376
-0.128712
-0.165042
-0.187142
-0.182713
-0.155266
-0.118987
-0.0859564
-0.0610482
-0.0434365
-0.0317361
-0.0258579
-0.0257097
-0.0272805
-0.0263562
-0.0264711
-0.0287003
-0.0350754
-0.0441601
-0.0621138
-0.0792444
-0.0827759
-0.0740959
-0.0544495
-0.0403475
-0.0250396
-0.0104122
-0.00243246
0.00369552
0.00164568
-0.348769
-0.362825
-0.377619
-0.391674
-0.402168
-0.406948
-0.405605
-0.396223
-0.377518
-0.349512
-0.313515
-0.272034
-0.228254
-0.185198
-0.145078
-0.109162
-0.0779876
-0.0516719
-0.0302729
-0.0140939
-0.00364746
0.00101643
0.00116948
-0.000939289
-0.00375846
-0.00804343
-0.015209
-0.0259875
-0.0400406
-0.0584533
-0.0846899
-0.120217
-0.157959
-0.181977
-0.179604
-0.153564
-0.117856
-0.0847923
-0.0594969
-0.0412534
-0.0287668
-0.0217436
-0.0203386
-0.0212223
-0.0201828
-0.0209869
-0.0242041
-0.0321452
-0.0429406
-0.0634107
-0.0828174
-0.0870629
-0.0776624
-0.0560753
-0.0408048
-0.0245902
-0.00917443
-0.000537588
0.00609099
0.00261989
-0.332354
-0.342481
-0.354291
-0.366259
-0.374026
-0.377642
-0.37617
-0.367751
-0.351404
-0.327182
-0.296053
-0.25989
-0.22112
-0.182133
-0.144805
-0.110345
-0.0794183
-0.0523443
-0.0292674
-0.0104221
0.00366178
0.0124031
0.0159515
0.0155559
0.012516
0.00719453
-0.00112803
-0.0128056
-0.0275226
-0.046432
-0.0730622
-0.109113
-0.147929
-0.173787
-0.173881
-0.150037
-0.115716
-0.0831912
-0.0578896
-0.0392994
-0.0262296
-0.0182784
-0.0157964
-0.0161035
-0.0148902
-0.0160446
-0.0198924
-0.0290046
-0.0411884
-0.0639685
-0.0855046
-0.0906054
-0.0806967
-0.0573685
-0.041019
-0.0240584
-0.00801633
0.00118828
0.00835778
0.00354228
-0.313397
-0.318481
-0.328486
-0.337888
-0.343668
-0.346538
-0.345333
-0.338374
-0.324904
-0.304889
-0.278908
-0.248217
-0.214554
-0.179755
-0.145427
-0.112767
-0.0825627
-0.0553077
-0.031266
-0.0106348
0.00616365
0.0184338
0.0256703
0.0281296
0.0264122
0.02144
0.0128699
0.000896492
-0.0140451
-0.0331651
-0.0599122
-0.0960144
-0.135488
-0.163093
-0.165953
-0.145047
-0.112953
-0.0815517
-0.0565454
-0.0378084
-0.0242791
-0.0155126
-0.012043
-0.0118919
-0.0105118
-0.0116679
-0.0158123
-0.0257016
-0.0389554
-0.063718
-0.087197
-0.0932929
-0.0831497
-0.058357
-0.0410171
-0.0234399
-0.00695136
0.00270293
0.0104878
0.00441513
-0.292241
-0.295361
-0.303363
-0.309909
-0.314047
-0.316575
-0.316045
-0.310937
-0.300627
-0.284927
-0.264052
-0.238733
-0.210104
-0.179506
-0.148281
-0.117596
-0.0883598
-0.0612196
-0.0365806
-0.0147317
0.00404821
0.0192018
0.0299919
0.0360603
0.0378564
0.0339355
0.0261821
0.014683
7.91851e-05
-0.0188793
-0.0456442
-0.0821163
-0.122052
-0.150346
-0.156136
-0.138395
-0.109344
-0.0796882
-0.0552597
-0.0365494
-0.0227369
-0.0132744
-0.00884919
-0.00832958
-0.00697712
-0.00806275
-0.0121319
-0.0222057
-0.0361355
-0.0626906
-0.0879263
-0.0949965
-0.084861
-0.0589447
-0.0407667
-0.0226403
-0.00591037
0.00403542
0.0124723
0.0052388
-0.271715
-0.275483
-0.280496
-0.283175
-0.285389
-0.287209
-0.286839
-0.283098
-0.275404
-0.263399
-0.247022
-0.226574
-0.202692
-0.176286
-0.148418
-0.120159
-0.0924646
-0.0661005
-0.0416329
-0.0194748
7.23553e-05
0.01667
0.0298642
0.0391938
0.0437737
0.043555
0.0374133
0.027114
0.013324
-0.00510663
-0.0312995
-0.0670485
-0.106407
-0.134993
-0.142173
-0.128247
-0.102683
-0.0753183
-0.0520642
-0.0339171
-0.0203955
-0.0107494
-0.00570277
-0.00485174
-0.00363723
-0.00539014
-0.00891302
-0.0188344
-0.0330545
-0.0607801
-0.0874618
-0.0957178
-0.0856443
-0.0588009
-0.0400705
-0.0214902
-0.00476078
0.00536603
0.014373
0.00601686
-0.254394
-0.265369
-0.267799
-0.267285
-0.267669
-0.268197
-0.267067
-0.263024
-0.255394
-0.243885
-0.228503
-0.209521
-0.187478
-0.16314
-0.137412
-0.111219
-0.0853934
-0.0606056
-0.0373572
-0.0160388
0.0030654
0.0196807
0.0334737
0.0440856
0.0513911
0.052729
0.0488779
0.0404861
0.0281304
0.010428
-0.0164481
-0.0549835
-0.0977825
-0.128238
-0.135361
-0.119738
-0.0945945
-0.0686313
-0.0468454
-0.0297856
-0.017001
-0.00770913
-0.00263061
-0.00154287
-4.18669e-05
-0.00118742
-0.00429
-0.0139943
-0.0285907
-0.0579237
-0.0871409
-0.0968798
-0.0865151
-0.0581204
-0.038928
-0.0201436
-0.00361224
0.00672606
0.0162114
0.00674489
-0.234495
-0.248149
-0.25071
-0.248838
-0.247271
-0.246334
-0.244374
-0.239933
-0.23231
-0.22135
-0.207153
-0.189975
-0.170225
-0.148482
-0.125442
-0.101844
-0.0783717
-0.055613
-0.0340368
-0.0140208
0.00415522
0.020269
0.0340924
0.0453039
0.0526616
0.0562021
0.0544584
0.0480426
0.0373851
0.0207188
-0.00637089
-0.046077
-0.089192
-0.117872
-0.122551
-0.107434
-0.0844632
-0.0611653
-0.0414826
-0.0258615
-0.014034
-0.00517475
-8.00223e-05
0.00114722
0.00256227
0.00123915
-0.00113478
-0.0104141
-0.0249257
-0.0550783
-0.0860482
-0.0963982
-0.08591
-0.0567785
-0.0372885
-0.0186023
-0.00250683
0.00796162
0.0175946
0.00730822
-0.215177
-0.229583
-0.232626
-0.2301
-0.227258
-0.225236
-0.222711
-0.218187
-0.210942
-0.200858
-0.188063
-0.172756
-0.15522
-0.135866
-0.115228
-0.093909
-0.0725036
-0.0515444
-0.0314755
-0.0126642
0.00460371
0.0200925
0.0335861
0.044846
0.0528247
0.0571888
0.0567248
0.0516591
0.0421174
0.0259527
-0.00115813
-0.0397033
-0.0794315
-0.104537
-0.10786
-0.0943516
-0.0742833
-0.0538365
-0.0362549
-0.022013
-0.0111098
-0.0027467
0.00228425
0.00363975
0.00497487
0.00378027
0.00153448
-0.00771911
-0.0222425
-0.0524123
-0.0838248
-0.0944781
-0.0842853
-0.0549665
-0.0353133
-0.016915
-0.00136776
0.00911929
0.0187685
0.00778865
-0.197513
-0.210927
-0.214053
-0.211507
-0.208168
-0.205526
-0.202659
-0.198212
-0.191448
-0.182227
-0.170676
-0.156971
-0.14133
-0.124061
-0.105581
-0.0863805
-0.0669598
-0.0477828
-0.0292529
-0.0117164
0.00454124
0.019267
0.0322226
0.043049
0.0513348
0.0562138
0.056711
0.0527267
0.0441189
0.0286058
0.00255913
-0.0329575
-0.0681724
-0.0896979
-0.0922643
-0.0808345
-0.0638833
-0.046385
-0.0309859
-0.0181646
-0.00822224
-0.000431144
0.00447647
0.00597405
0.00734267
0.00632267
0.00417976
-0.00512956
-0.0195695
-0.0490618
-0.0803903
-0.0914212
-0.081671
-0.0526449
-0.0330209
-0.0150508
-0.000190605
0.0101597
0.0197631
0.00820386
-0.180031
-0.192427
-0.195684
-0.19343
-0.190017
-0.187059
-0.183996
-0.179689
-0.173425
-0.165039
-0.154638
-0.142392
-0.128478
-0.113126
-0.0966502
-0.0794374
-0.0619016
-0.0444451
-0.0274341
-0.011197
0.00398378
0.017847
0.03013
0.0404815
0.0485878
0.0536647
0.054793
0.0516765
0.0440167
0.0297024
0.00596845
-0.0254104
-0.0556883
-0.073735
-0.0762208
-0.0672929
-0.0536176
-0.039062
-0.0258262
-0.0144058
-0.00540529
0.0017695
0.00650531
0.0081434
0.00962603
0.00877536
0.00686597
-0.00229865
-0.0162997
-0.0447014
-0.075774
-0.0870726
-0.077932
-0.0497602
-0.0304182
-0.0130297
0.00101377
0.0110546
0.0205437
0.00853598
-0.163058
-0.174692
-0.177981
-0.176023
-0.172723
-0.169683
-0.166584
-0.162492
-0.15676
-0.149199
-0.139896
-0.129001
-0.116662
-0.103053
-0.0884081
-0.073033
-0.0572697
-0.0414657
-0.0259496
-0.0110281
0.00302584
0.0159493
0.0274693
0.0372482
0.0449792
0.0500075
0.0515106
0.0490935
0.0423859
0.0296801
0.00908631
-0.0174153
-0.0425423
-0.0576993
-0.0606356
-0.0543669
-0.0438326
-0.0320234
-0.0208447
-0.0107837
-0.0026837
0.0038536
0.00837951
0.0101351
0.0118105
0.0111655
0.00958867
0.000826691
-0.0124276
-0.0394489
-0.0699148
-0.0813438
-0.0730235
-0.0462894
-0.0275336
-0.01088
0.00223412
0.0117768
0.0210649
0.00875988
-0.147276
-0.157897
-0.161044
-0.159362
-0.156298
-0.153358
-0.150368
-0.146567
-0.141381
-0.134623
-0.126352
-0.116701
-0.105793
-0.0937638
-0.0807928
-0.0671188
-0.0530223
-0.0388005
-0.0247441
-0.0111347
0.00176664
0.0137011
0.024396
0.0335297
0.0407913
0.0456402
0.0473779
0.0455711
0.0398355
0.028989
0.0119387
-0.00952513
-0.029889
-0.0427858
-0.046392
-0.0425502
-0.0347856
-0.0254108
-0.0161172
-0.00734972
-9.01416e-05
0.00581727
0.0101129
0.0119543
0.0138921
0.0135135
0.012337
0.00417961
-0.00812966
-0.0334011
-0.0628233
-0.0742828
-0.0669765
-0.0422344
-0.0244084
-0.00864263
0.00345547
0.0123018
0.0212859
0.00885515
-0.132437
-0.141957
-0.14495
-0.143573
-0.140821
-0.138088
-0.135301
-0.131836
-0.127196
-0.121203
-0.113896
-0.105388
-0.095785
-0.0851954
-0.0737564
-0.061655
-0.0491194
-0.036401
-0.0237552
-0.0114373
0.000306025
0.0112262
0.0210598
0.0295026
0.0362512
0.0408582
0.0427516
0.0415121
0.036802
0.0279226
0.0143187
-0.00262046
-0.0189292
-0.0299338
-0.0340505
-0.0321399
-0.0266465
-0.0193311
-0.0117027
-0.00414167
0.00234361
0.00765738
0.0117169
0.0136164
0.0158624
0.0158308
0.0150983
0.00772013
-0.00345383
-0.0266294
-0.0546486
-0.0660277
-0.0598911
-0.0376302
-0.0210961
-0.00636956
0.00466054
0.0126131
0.0211752
0.00880681
-0.118388
-0.126986
-0.129845
-0.128752
-0.126326
-0.12385
-0.121318
-0.118216
-0.114112
-0.108841
-0.102431
-0.0949752
-0.086565
-0.0772874
-0.067249
-0.0565964
-0.0455144
-0.0342147
-0.0229196
-0.0118584
-0.00125826
0.00864627
0.017605
0.0253367
0.0315558
0.0358907
0.0378868
0.0371779
0.0334954
0.0264659
0.0158384
0.00265969
-0.0102606
-0.0195391
-0.0237919
-0.0232321
-0.0194872
-0.0138499
-0.00764619
-0.00118722
0.00458649
0.00936774
0.0131939
0.0151362
0.0177037
0.0181237
0.0178898
0.0114933
0.00160686
-0.0192961
-0.0456451
-0.0568092
-0.0519446
-0.0325516
-0.017659
-0.0041202
0.00583087
0.0127112
0.0207182
0.00860698
-0.105366
-0.113089
-0.115751
-0.114913
-0.112808
-0.110611
-0.108362
-0.105631
-0.102046
-0.0974539
-0.0918736
-0.0853837
-0.0780618
-0.0699788
-0.0612182
-0.0518957
-0.0421607
-0.0321906
-0.0221768
-0.0123227
-0.00283421
0.00607308
0.0141665
0.021189
0.0268797
0.0309319
0.0329895
0.0327512
0.0300069
0.0245759
0.016396
0.00627972
-0.00381206
-0.0114675
-0.0155094
-0.0157785
-0.0133086
-0.00899905
-0.00398084
0.00149571
0.00661303
0.0109322
0.01454
0.0165238
0.0193904
0.0203809
0.020765
0.015561
0.00697519
-0.0116716
-0.0361624
-0.0469549
-0.0434086
-0.0271192
-0.0141625
-0.00195425
0.00694893
0.0126255
0.0199272
0.00826048
-0.0934068
-0.100257
-0.102761
-0.102073
-0.100262
-0.0983477
-0.0963866
-0.0940215
-0.090927
-0.0869664
-0.0821494
-0.0765419
-0.07021
-0.0632121
-0.0556142
-0.0475078
-0.0390138
-0.0302797
-0.0214692
-0.0127601
-0.00433694
0.0036066
0.0108614
0.0171943
0.0223721
0.0261416
0.0282245
0.0283824
0.0264561
0.022378
0.0161947
0.00854625
0.000797665
-0.00535998
-0.0089604
-0.00965646
-0.00806836
-0.00478262
-0.00072803
0.00389581
0.00840894
0.012324
0.0157427
0.0177826
0.0208874
0.0225336
0.0237507
0.0198965
0.0124462
-0.00414066
-0.0266343
-0.0368756
-0.0346349
-0.0214996
-0.0106719
7.79196e-05
0.00800066
0.0124273
0.0188539
0.00779327
-0.0823221
-0.0883548
-0.090638
-0.0901629
-0.08865
-0.0870184
-0.0853438
-0.0833294
-0.0806938
-0.0773136
-0.0731929
-0.0683867
-0.0629514
-0.0569352
-0.0503906
-0.0433904
-0.0360321
-0.0284375
-0.0207455
-0.0131095
-0.00569098
0.00133611
0.00778862
0.0134617
0.0181509
0.0216445
0.0237261
0.0242134
0.0229889
0.020046
0.0154876
0.0098198
0.00398188
-0.000844158
-0.00387885
-0.00471504
-0.00369997
-0.00118303
0.00210309
0.00600468
0.00996956
0.0135196
0.0167778
0.0188986
0.02215
0.0244444
0.0266769
0.0242052
0.0176005
0.00282141
-0.0174854
-0.0270032
-0.0260163
-0.0158988
-0.00725154
0.00194354
0.00897713
0.0122364
0.0175987
0.00726094
-0.0721196
-0.0774351
-0.0795267
-0.0792123
-0.0779681
-0.0765969
-0.0751894
-0.0735008
-0.0712867
-0.0684346
-0.064944
-0.060861
-0.0562333
-0.0511009
-0.0455057
-0.0395054
-0.0331784
-0.0266251
-0.0199618
-0.0133192
-0.00683765
-0.000669453
0.00502858
0.0100792
0.0143076
0.0175368
0.0195981
0.0203536
0.0197205
0.0177213
0.014476
0.0103836
0.00610654
0.00242623
-5.22985e-06
-0.00079782
-0.000124769
0.00183222
0.00451589
0.00781654
0.0112933
0.0145081
0.0176142
0.0198273
0.0231374
0.0259658
0.0290638
0.0278139
0.0218205
0.00877041
-0.00905927
-0.0177556
-0.0179504
-0.0105498
-0.00397089
0.00362991
0.00987351
0.0122078
0.0163087
0.00675317
-0.0628219
-0.0674745
-0.0693758
-0.0691975
-0.0681752
-0.0670408
-0.0658815
-0.0644899
-0.0626551
-0.0602771
-0.0573514
-0.0539157
-0.0500101
-0.0456678
-0.0409225
-0.0358196
-0.0304221
-0.0248117
-0.0190849
-0.0133524
-0.00773268
-0.00235588
0.00264017
0.00710906
0.0109071
0.0138845
0.015908
0.0168743
0.0167275
0.0155004
0.013304
0.0104548
0.00746317
0.00473271
0.00288698
0.00224673
0.00274275
0.00430567
0.0065249
0.00933062
0.012379
0.0152868
0.0182273
0.0205174
0.0237863
0.0269638
0.0304485
0.0300505
0.0246177
0.0134061
-0.00168096
-0.00953951
-0.0107897
-0.00567858
-0.000908474
0.00513808
0.0106851
0.0124918
0.0151487
0.00638261
-0.0543547
-0.0583966
-0.0601074
-0.0600293
-0.0592154
-0.0583033
-0.0573691
-0.0562443
-0.054748
-0.0527913
-0.0503672
-0.0475059
-0.0442411
-0.0406002
-0.03661
-0.0323063
-0.0277393
-0.022975
-0.0180924
-0.0131832
-0.00834736
-0.00369591
0.000658096
0.00459291
0.00799062
0.0107248
0.0126927
0.0138162
0.0140569
0.0134454
0.0120775
0.0101869
0.00804928
0.00626945
0.00498676
0.00455927
0.00499025
0.00628605
0.00815245
0.0105537
0.0132273
0.0158558
0.0186036
0.0209239
0.0240287
0.027056
0.0305566
0.0306837
0.0259136
0.0165998
0.00430317
-0.00269776
-0.00476028
-0.00145268
0.00185837
0.00647172
0.0114002
0.0131583
0.0142677
0.00625073
-0.0466493
-0.0501559
-0.0516981
-0.0517144
-0.0510927
-0.0503531
-0.049607
-0.0487149
-0.0475173
-0.0459314
-0.043948
-0.0415918
-0.0388908
-0.0358675
-0.0325429
-0.0289451
-0.0251135
-0.0211011
-0.0169718
-0.0128005
-0.00867063
-0.00467374
-0.000902265
0.00254422
0.00556999
0.00807089
0.00996555
0.0111947
0.0117322
0.0116032
0.0108876
0.00976611
0.00842957
0.00727747
0.00646953
0.00626916
0.00670429
0.00782558
0.00942655
0.0114993
0.0138429
0.0162173
0.0187448
0.021022
0.0238763
0.0266495
0.0296448
0.0299948
0.0259683
0.0184301
0.00870051
0.00263
8.61465e-05
0.0020472
0.00427034
0.00763634
0.0119805
0.0141026
0.0137789
0.00641092
-0.039669
-0.0427006
-0.0440808
-0.0441631
-0.0436926
-0.0431251
-0.0425493
-0.0418577
-0.0409174
-0.0396537
-0.0380541
-0.0361379
-0.0339285
-0.0314442
-0.0287015
-0.0257217
-0.0225356
-0.0191852
-0.0157216
-0.0122054
-0.00870364
-0.00529149
-0.00204511
0.000956627
0.00363872
0.00591415
0.00771866
0.0090067
0.00975902
0.00999569
0.00978234
0.00925816
0.00852744
0.00788658
0.00747477
0.0074901
0.00796712
0.00897782
0.0103793
0.0121844
0.0142377
0.0163756
0.0186588
0.020819
0.0233549
0.0257504
0.0281076
0.0284607
0.0251752
0.0191868
0.0116348
0.0065354
0.00383733
0.00482023
0.00628582
0.00864531
0.0123623
0.0150033
0.013655
0.00680302
-0.0333658
-0.0359741
-0.0372038
-0.0373389
-0.0370021
-0.0365808
-0.0361511
-0.0356291
-0.034906
-0.0339175
-0.0326483
-0.0311121
-0.0293276
-0.0273096
-0.0250706
-0.0226272
-0.0200029
-0.0172304
-0.0143498
-0.011409
-0.00846135
-0.00556765
-0.00278895
-0.000181322
0.00217487
0.00422997
0.00592854
0.0072332
0.00812905
0.00863054
0.00878388
0.00866953
0.00842952
0.00820261
0.00811467
0.00832042
0.0088548
0.00979565
0.0110452
0.0126314
0.0144287
0.0163394
0.0183659
0.0203476
0.0225358
0.0245118
0.026268
0.026512
0.023904
0.0192211
0.0134159
0.00923523
0.00664306
0.00692564
0.00787768
0.00949237
0.0124962
0.0154679
0.0135402
0.00715441
-0.0276822
-0.0299194
-0.0310128
-0.0311888
-0.0309643
-0.0306669
-0.0303651
-0.0299857
-0.0294434
-0.0286849
-0.027696
-0.0264844
-0.0250642
-0.0234463
-0.0216403
-0.0196586
-0.0175187
-0.0152456
-0.0128705
-0.0104312
-0.00796923
-0.00553257
-0.00317033
-0.000930266
0.00113403
0.00297944
0.00456085
0.00584725
0.0068269
0.00750861
0.00792525
0.00813599
0.00822968
0.00831527
0.00848092
0.00884413
0.00943576
0.0103305
0.011461
0.0128648
0.0144358
0.0161294
0.0178991
0.0196589
0.0214798
0.0230801
0.0243408
0.0244512
0.0224199
0.0188085
0.0143677
0.0109815
0.00864747
0.00844815
0.00904084
0.0101237
0.0123506
0.0152686
0.0130846
0.00710837
-0.022569
-0.0244838
-0.0254546
-0.0256605
-0.025529
-0.0253354
-0.0251411
-0.0248873
-0.0244954
-0.0239237
-0.0231678
-0.0222296
-0.0211181
-0.0198403
-0.0184031
-0.0168152
-0.0150895
-0.013245
-0.0113052
-0.00929931
-0.00725965
-0.00522311
-0.00322859
-0.00131671
0.00048096
0.00211929
0.00357252
0.00481083
0.00582309
0.00661633
0.00720793
0.00764366
0.00797867
0.00829271
0.00864777
0.00913242
0.00977112
0.0106309
0.011664
0.012912
0.0142838
0.0157714
0.0172964
0.0188188
0.0203024
0.0215702
0.022451
0.0224502
0.0208886
0.0181288
0.0147439
0.0120042
0.00995677
0.00948426
0.00979039
0.0104795
0.0119115
0.0143648
0.0120609
0.00653798
-0.017982
-0.0196164
-0.0204766
-0.0207035
-0.0206481
-0.0205402
-0.0204336
-0.0202821
-0.020022
-0.0196149
-0.0190468
-0.018328
-0.0174735
-0.0164814
-0.0153553
-0.0141004
-0.0127258
-0.0112457
-0.00967792
-0.00804414
-0.00636898
-0.00468068
-0.00300747
-0.00138165
0.000166161
0.00160872
0.00292148
0.00408732
0.00509503
0.00593993
0.00663849
0.00721802
0.00771555
0.00818679
0.00867461
0.00924484
0.00991499
0.0107422
0.0116912
0.0128034
0.0139996
0.0152942
0.0165935
0.0178851
0.0190832
0.0200659
0.0206676
0.020591
0.0193988
0.0172949
0.0147254
0.0125068
0.0108119
0.0101343
0.0101677
0.0105358
0.0112402
0.0129393
0.0106289
0.00561409
-0.0138755
-0.0152672
-0.0160285
-0.0162692
-0.0162755
-0.0162378
-0.0162026
-0.0161337
-0.0159791
-0.0157061
-0.0153046
-0.0147783
-0.0141278
-0.0133655
-0.0124959
-0.011519
-0.0104398
-0.00926754
-0.0080148
-0.00669785
-0.00533506
-0.00394745
-0.00255686
-0.00118764
0.000137955
0.00139823
0.00257404
0.00364747
0.00461154
0.00546394
0.00621149
0.00687127
0.00746704
0.00803674
0.00860856
0.0092308
0.0099145
0.0107064
0.0115784
0.0125697
0.0136116
0.0147284
0.0158248
0.0169036
0.0178599
0.0186159
0.0190218
0.0189012
0.0179904
0.0163845
0.0144384
0.0126385
0.0112375
0.0104581
0.0102377
0.0103241
0.0104241
0.0112978
0.00906176
0.0045895
-0.0102071
-0.0113901
-0.0120638
-0.0123125
-0.0123681
-0.0123868
-0.0124088
-0.0124055
-0.0123346
-0.0121684
-0.0118981
-0.0115252
-0.0110541
-0.0104886
-0.00982913
-0.00908015
-0.00824521
-0.00732977
-0.00634197
-0.00529319
-0.00419659
-0.00306794
-0.00192358
-0.000781222
0.000342861
0.00143067
0.00246718
0.00343906
0.00433948
0.00516472
0.00591771
0.00660855
0.00725145
0.00787172
0.0084866
0.0091309
0.00981004
0.0105609
0.0113598
0.0122416
0.0131472
0.0141037
0.0150228
0.015913
0.0166703
0.017249
0.0175213
0.0173797
0.0166808
0.0154496
0.0139693
0.0125014
0.0113246
0.0105144
0.0100716
0.00991973
0.00954816
0.00965747
0.00755624
0.00364376
-0.00693896
-0.00794305
-0.00853904
-0.00879116
-0.00888539
-0.00894903
-0.00901598
-0.00906409
-0.00905909
-0.00897813
-0.00881317
-0.00856502
-0.00823675
-0.00783047
-0.00734699
-0.0067875
-0.00615415
-0.00545135
-0.004685
-0.00386168
-0.00299092
-0.00208397
-0.00115285
-0.00021049
0.000730893
0.00165764
0.00255837
0.00342232
0.00424319
0.00501686
0.00574358
0.0064286
0.00707943
0.00771241
0.00833712
0.008978
0.00963581
0.0103391
0.0110668
0.0118482
0.0126336
0.0134474
0.0142129
0.0149413
0.0155398
0.0159803
0.0161615
0.0160155
0.0154735
0.0145197
0.0133788
0.0121714
0.0111546
0.0103803
0.00973791
0.00938698
0.00868079
0.00822023
0.00622987
0.00285706
-0.0040357
-0.00488685
-0.00541435
-0.00566622
-0.00579023
-0.00588898
-0.00599078
-0.00607858
-0.00612494
-0.00611108
-0.00602992
-0.00588159
-0.0056681
-0.00539072
-0.00504961
-0.00464489
-0.00417742
-0.00364962
-0.00306531
-0.00243123
-0.00175237
-0.0010343
-0.00028691
0.000480186
0.00125792
0.00203632
0.00280678
0.00356061
0.00429219
0.00499739
0.00567492
0.00632685
0.00695623
0.00757301
0.00818137
0.00879803
0.00942036
0.0100696
0.0107272
0.0114157
0.0120939
0.012783
0.0134182
0.014009
0.014481