/*--------------------------------*- C++ -*----------------------------------*\
| =========                 |                                                 |
| \\      /  F ield         | OpenFOAM: The Open Source CFD Toolbox           |
|  \\    /   O peration     | Version:  2512                                  |
|   \\  /    A nd           | Website:  www.openfoam.com                      |
|    \\/     M anipulation  |                                                 |
\*---------------------------------------------------------------------------*/
FoamFile
{
    version     2.0;
    format      ascii;
    arch        "LSB;label=32;scalar=64";
    class       volScalarField;
    location    "132";
    object      p;
}
// * * * * * * * * * * * * * * * * * * * * * * * * * * * * * * * * * * * * * //

dimensions      [0 2 -2 0 0 0 0];

internalField   nonuniform List<scalar> 
13248
(
-0.400103
-0.397972
-0.394674
-0.390517
-0.385937
-0.381398
-0.377318
-0.374025
-0.371717
-0.370439
-0.37007
-0.370334
-0.370831
-0.371085
-0.370604
-0.368937
-0.365729
-0.360754
-0.353912
-0.345243
-0.334694
-0.322532
-0.30754
-0.290708
-0.408916
-0.406087
-0.402227
-0.397644
-0.392719
-0.387866
-0.383425
-0.379619
-0.376533
-0.374098
-0.372104
-0.37023
-0.368095
-0.365313
-0.361549
-0.356559
-0.350206
-0.342456
-0.33335
-0.32296
-0.311343
-0.298569
-0.284392
-0.269718
-0.420114
-0.416275
-0.411668
-0.406549
-0.40119
-0.39592
-0.390961
-0.386399
-0.382185
-0.378156
-0.374067
-0.369637
-0.364599
-0.358744
-0.35194
-0.344144
-0.335377
-0.325707
-0.315211
-0.303967
-0.292
-0.279418
-0.266037
-0.252503
-0.433578
-0.428478
-0.422962
-0.417181
-0.411246
-0.405357
-0.399585
-0.393862
-0.388031
-0.381898
-0.375275
-0.368015
-0.360037
-0.351329
-0.341934
-0.331931
-0.321407
-0.310442
-0.299096
-0.287413
-0.275424
-0.263198
-0.250655
-0.238399
-0.449154
-0.442617
-0.436064
-0.429493
-0.422784
-0.415968
-0.408948
-0.401533
-0.393534
-0.384827
-0.375379
-0.365238
-0.354514
-0.343346
-0.331871
-0.320203
-0.308422
-0.296578
-0.284694
-0.272784
-0.260855
-0.248936
-0.236985
-0.225366
-0.46666
-0.45858
-0.450907
-0.443403
-0.435648
-0.427469
-0.418632
-0.408909
-0.398196
-0.386553
-0.374161
-0.361262
-0.348103
-0.33489
-0.321772
-0.308838
-0.296128
-0.283648
-0.271387
-0.259331
-0.247467
-0.235794
-0.224294
-0.21319
-0.485817
-0.47616
-0.46731
-0.458693
-0.449509
-0.439395
-0.428072
-0.415416
-0.401546
-0.386775
-0.371496
-0.356087
-0.340843
-0.325962
-0.311548
-0.297636
-0.284218
-0.271261
-0.258727
-0.246577
-0.234781
-0.223313
-0.212162
-0.201406
-0.506182
-0.494981
-0.484898
-0.474907
-0.463786
-0.451059
-0.436565
-0.420452
-0.403156
-0.385252
-0.367282
-0.349668
-0.332674
-0.316434
-0.300985
-0.286302
-0.272333
-0.259013
-0.24628
-0.234079
-0.222361
-0.211089
-0.200249
-0.189806
-0.527081
-0.514434
-0.503038
-0.491309
-0.477639
-0.461598
-0.443346
-0.423443
-0.402672
-0.381802
-0.36143
-0.341933
-0.323492
-0.306152
-0.289877
-0.274589
-0.260199
-0.246617
-0.233761
-0.221558
-0.209947
-0.198881
-0.18833
-0.178177
-0.547588
-0.533642
-0.520801
-0.506874
-0.490002
-0.470035
-0.447648
-0.423876
-0.399792
-0.376256
-0.353821
-0.332758
-0.313139
-0.294919
-0.277996
-0.262249
-0.247557
-0.233809
-0.220904
-0.208756
-0.197291
-0.186454
-0.176184
-0.166333
-0.566547
-0.551467
-0.536981
-0.520331
-0.499649
-0.475324
-0.448672
-0.421177
-0.394091
-0.368253
-0.344099
-0.321767
-0.301215
-0.282318
-0.264917
-0.248855
-0.233985
-0.220177
-0.207313
-0.195294
-0.184037
-0.17347
-0.163494
-0.15398
-0.582684
-0.566664
-0.550303
-0.530393
-0.505373
-0.476407
-0.445514
-0.414545
-0.38481
-0.357038
-0.331501
-0.308191
-0.286959
-0.267602
-0.249916
-0.233708
-0.218811
-0.205073
-0.192367
-0.18058
-0.169623
-0.159409
-0.149811
-0.140766
-0.356446
-0.357544
-0.358205
-0.358751
-0.359543
-0.360773
-0.36254
-0.364896
-0.367859
-0.371439
-0.375643
-0.380475
-0.38593
-0.391984
-0.398581
-0.405622
-0.412957
-0.420371
-0.427578
-0.434227
-0.43991
-0.444192
-0.446637
-0.446854
-0.363584
-0.363752
-0.363884
-0.364156
-0.364821
-0.366076
-0.368043
-0.370789
-0.374353
-0.378763
-0.384046
-0.390224
-0.397308
-0.405286
-0.414104
-0.423651
-0.433748
-0.444132
-0.454441
-0.464227
-0.472939
-0.479957
-0.484596
-0.486221
-0.370117
-0.369376
-0.368956
-0.36889
-0.369326
-0.370467
-0.372457
-0.375381
-0.379295
-0.384239
-0.39025
-0.397357
-0.405576
-0.414894
-0.425248
-0.436512
-0.448478
-0.46084
-0.47318
-0.484959
-0.495512
-0.504111
-0.509855
-0.511763
-0.375585
-0.374051
-0.37309
-0.372618
-0.372702
-0.37355
-0.375333
-0.378161
-0.382105
-0.387215
-0.39353
-0.401081
-0.409875
-0.419887
-0.431041
-0.443187
-0.456091
-0.469411
-0.482695
-0.495377
-0.506574
-0.515577
-0.52157
-0.522725
-0.379747
-0.377615
-0.376163
-0.375233
-0.374835
-0.375196
-0.37652
-0.378947
-0.382573
-0.38746
-0.39365
-0.401166
-0.410002
-0.420117
-0.431412
-0.443713
-0.456754
-0.470158
-0.483417
-0.495864
-0.506925
-0.515371
-0.520856
-0.520391
-0.38258
-0.380097
-0.378242
-0.376824
-0.375837
-0.375534
-0.376163
-0.377908
-0.380895
-0.38521
-0.390899
-0.39798
-0.406434
-0.416198
-0.427149
-0.439084
-0.451705
-0.464589
-0.477214
-0.488874
-0.498859
-0.505811
-0.509961
-0.507055
-0.384275
-0.381701
-0.379551
-0.377644
-0.376001
-0.374914
-0.374678
-0.37553
-0.377641
-0.381127
-0.38605
-0.392425
-0.400222
-0.409353
-0.419662
-0.430894
-0.44272
-0.454676
-0.466148
-0.476337
-0.484583
-0.489296
-0.491234
-0.485341
-0.385219
-0.382779
-0.380435
-0.378064
-0.375753
-0.373835
-0.372661
-0.372525
-0.37365
-0.376188
-0.380221
-0.385769
-0.392782
-0.401131
-0.410622
-0.420958
-0.431694
-0.442274
-0.452028
-0.460081
-0.465815
-0.467628
-0.466529
-0.457517
-0.385957
-0.383794
-0.381327
-0.378532
-0.375588
-0.372879
-0.370807
-0.369719
-0.36989
-0.371505
-0.374666
-0.379379
-0.38557
-0.393068
-0.401575
-0.410688
-0.419876
-0.428492
-0.435822
-0.441015
-0.443536
-0.44208
-0.437601
-0.425868
-0.387155
-0.385289
-0.38272
-0.379545
-0.376046
-0.372658
-0.369823
-0.367932
-0.367292
-0.36811
-0.370483
-0.374393
-0.379696
-0.386123
-0.393278
-0.400645
-0.407604
-0.413479
-0.417598
-0.419316
-0.418294
-0.413778
-0.406575
-0.393221
-0.389524
-0.387832
-0.385124
-0.381603
-0.377648
-0.37373
-0.370315
-0.36781
-0.36653
-0.366669
-0.368285
-0.371293
-0.375457
-0.380402
-0.385629
-0.390545
-0.394515
-0.396926
-0.397251
-0.395162
-0.390575
-0.383478
-0.374702
-0.361528
-0.393706
-0.391934
-0.388995
-0.385144
-0.380823
-0.376517
-0.372689
-0.369729
-0.367919
-0.3674
-0.368152
-0.369998
-0.372602
-0.375503
-0.378154
-0.379976
-0.38042
-0.379038
-0.375506
-0.369741
-0.361715
-0.35192
-0.340874
-0.328543
-0.444483
-0.435484
-0.419593
-0.397351
-0.369038
-0.336225
-0.3014
-0.267543
-0.237643
-0.214536
-0.200474
-0.196642
-0.20238
-0.214464
-0.227263
-0.233992
-0.229113
-0.210561
-0.181654
-0.149623
-0.121487
-0.101312
-0.0900893
-0.0868659
-0.0904727
-0.101455
-0.121299
-0.147276
-0.169452
-0.175576
-0.162152
-0.136106
-0.10812
-0.0859438
-0.0720161
-0.0651117
-0.0645156
-0.071963
-0.086389
-0.0989398
-0.099685
-0.089027
-0.073864
-0.0617511
-0.0540343
-0.05189
-0.0565842
-0.0634104
-0.0649066
-0.0604634
-0.0515705
-0.0444502
-0.0377946
-0.0333019
-0.0318834
-0.0307311
-0.02755
-0.0236262
-0.0144999
-0.00271839
-0.485651
-0.475833
-0.457743
-0.431781
-0.398469
-0.359573
-0.317878
-0.276641
-0.239067
-0.207992
-0.18571
-0.173616
-0.171831
-0.178268
-0.188186
-0.195129
-0.193038
-0.179657
-0.157183
-0.131617
-0.109154
-0.0937232
-0.0864968
-0.0866863
-0.0934655
-0.107909
-0.131531
-0.160863
-0.184873
-0.190312
-0.174301
-0.144805
-0.113509
-0.088423
-0.0719163
-0.0627399
-0.0597851
-0.064484
-0.0762246
-0.0871659
-0.0884036
-0.0796535
-0.0675573
-0.0583812
-0.053352
-0.0536703
-0.0610257
-0.070077
-0.07199
-0.06644
-0.0551587
-0.0461882
-0.0375205
-0.0311976
-0.0284255
-0.0262875
-0.0237501
-0.0204453
-0.0129557
-0.00270433
-0.512303
-0.502249
-0.482347
-0.453551
-0.416419
-0.372769
-0.325583
-0.278298
-0.234385
-0.196794
-0.167711
-0.148504
-0.139584
-0.139939
-0.146161
-0.15267
-0.153626
-0.145202
-0.12933
-0.110468
-0.0939696
-0.0835735
-0.0805272
-0.0841703
-0.0940488
-0.111661
-0.138488
-0.170607
-0.196259
-0.201651
-0.18372
-0.151492
-0.117473
-0.0899425
-0.0711855
-0.0599641
-0.0548379
-0.0569034
-0.0659743
-0.0753079
-0.0768894
-0.0700432
-0.0609098
-0.0545648
-0.0522409
-0.0551056
-0.0651897
-0.0765208
-0.078877
-0.0721701
-0.0584734
-0.0476689
-0.0371465
-0.0291413
-0.0250697
-0.021908
-0.0199447
-0.0172245
-0.011403
-0.00269841
-0.52346
-0.513407
-0.492898
-0.462717
-0.423391
-0.37678
-0.326018
-0.274702
-0.226346
-0.183889
-0.149431
-0.124281
-0.109015
-0.103239
-0.104891
-0.109757
-0.112548
-0.108946
-0.099433
-0.08706
-0.0764529
-0.0710613
-0.0720519
-0.0788979
-0.0914946
-0.111704
-0.141115
-0.175585
-0.202939
-0.208973
-0.190074
-0.155968
-0.119925
-0.0905196
-0.0699378
-0.0569604
-0.0499153
-0.0495581
-0.0560653
-0.0637648
-0.0655553
-0.0604511
-0.0540661
-0.0503629
-0.0506734
-0.0560663
-0.0688776
-0.0825257
-0.0853968
-0.0775494
-0.0614683
-0.0488718
-0.0366611
-0.0271423
-0.0218521
-0.0176332
-0.0161734
-0.0139938
-0.00985515
-0.00270381
-0.520083
-0.509444
-0.48947
-0.459785
-0.420266
-0.37297
-0.321167
-0.268326
-0.217797
-0.1724
-0.13411
-0.104161
-0.0832656
-0.0715279
-0.0679446
-0.0698083
-0.0729983
-0.0730066
-0.0688691
-0.0623497
-0.0571976
-0.0563921
-0.0609769
-0.0705814
-0.0853951
-0.107596
-0.138992
-0.175427
-0.204578
-0.211918
-0.193154
-0.1582
-0.120931
-0.090255
-0.0682988
-0.0538941
-0.0452242
-0.0427051
-0.0468048
-0.0528935
-0.0547355
-0.0511067
-0.0471598
-0.0458239
-0.0486075
-0.0564255
-0.0718992
-0.0878593
-0.0913468
-0.0824615
-0.0641029
-0.049787
-0.0360565
-0.0252055
-0.0188031
-0.0135025
-0.0124734
-0.0107816
-0.00832333
-0.00272361
-0.504091
-0.492146
-0.473688
-0.446146
-0.408357
-0.36268
-0.312426
-0.260684
-0.210429
-0.164239
-0.123918
-0.0905795
-0.064974
-0.0475991
-0.0383382
-0.0358701
-0.0374315
-0.0394389
-0.0390351
-0.0374465
-0.0369555
-0.0399764
-0.0475304
-0.0593663
-0.0758815
-0.0994851
-0.132221
-0.17023
-0.201199
-0.210373
-0.192876
-0.158185
-0.120577
-0.0892509
-0.0663712
-0.050874
-0.0408806
-0.0365202
-0.038422
-0.0429682
-0.044717
-0.042227
-0.0403245
-0.0410029
-0.0460236
-0.0560844
-0.0740809
-0.092296
-0.0965244
-0.0867949
-0.066344
-0.0504086
-0.0353223
-0.0233284
-0.0159468
-0.00954912
-0.00887651
-0.00761365
-0.00681531
-0.00275978
-0.478499
-0.464623
-0.448294
-0.42405
-0.389561
-0.3475
-0.301008
-0.252592
-0.204756
-0.159759
-0.119205
-0.0840969
-0.0551304
-0.0329472
-0.0180399
-0.0102536
-0.00827003
-0.00964748
-0.0114533
-0.0134003
-0.016467
-0.022435
-0.0322395
-0.0457185
-0.0634159
-0.0878743
-0.121359
-0.16047
-0.19318
-0.204653
-0.189341
-0.156009
-0.118967
-0.0876068
-0.0642342
-0.0479683
-0.0369456
-0.0310633
-0.0310263
-0.0341391
-0.0357038
-0.0340105
-0.0336914
-0.0359876
-0.0429344
-0.0549711
-0.0752835
-0.0956487
-0.100762
-0.0904447
-0.0681586
-0.0507343
-0.0344542
-0.021504
-0.013292
-0.00579842
-0.00540872
-0.00451275
-0.00533604
-0.00281426
-0.446229
-0.430446
-0.416751
-0.396402
-0.366247
-0.329271
-0.288103
-0.244526
-0.200602
-0.158293
-0.118996
-0.0836186
-0.0528184
-0.027214
-0.00748878
0.00578743
0.012646
0.0141646
0.0124419
0.00891933
0.00362362
-0.00435979
-0.0156828
-0.030238
-0.0486798
-0.0735784
-0.107314
-0.14704
-0.181294
-0.195312
-0.182862
-0.151816
-0.11619
-0.0853915
-0.0619349
-0.0452118
-0.0334436
-0.0263519
-0.0246542
-0.0264651
-0.027797
-0.0265965
-0.0273947
-0.0308844
-0.039384
-0.0530654
-0.0754131
-0.0977807
-0.103922
-0.0933393
-0.069527
-0.0507682
-0.0334632
-0.019739
-0.0108433
-0.00226392
-0.00209022
-0.00149868
-0.0038881
-0.00288953
-0.410448
-0.39386
-0.383144
-0.366543
-0.341071
-0.309907
-0.274782
-0.236733
-0.19745
-0.158649
-0.12157
-0.0870676
-0.0557997
-0.0283351
-0.00530604
0.0125577
0.0245597
0.0305344
0.0314171
0.0285401
0.0225954
0.0136659
0.0015621
-0.0135611
-0.0324174
-0.0575276
-0.0912591
-0.131189
-0.166607
-0.183063
-0.173897
-0.145896
-0.112468
-0.082798
-0.0596328
-0.042729
-0.0304631
-0.0224326
-0.0193397
-0.0199656
-0.0210145
-0.0200696
-0.0215546
-0.0258226
-0.0354226
-0.0503562
-0.074447
-0.0986255
-0.105912
-0.0954356
-0.0704672
-0.050544
-0.032384
-0.0180617
-0.00864195
0.00104241
0.00106634
0.00141145
-0.00247185
-0.00298854
-0.375181
-0.35969
-0.35171
-0.337934
-0.316844
-0.291421
-0.262216
-0.229651
-0.195094
-0.160011
-0.125536
-0.0925494
-0.0617314
-0.0336472
-0.00888262
0.0120098
0.0282383
0.0389858
0.0440295
0.0439923
0.0392453
0.0307332
0.0186402
0.00339182
-0.0156325
-0.0407799
-0.0741754
-0.113824
-0.150005
-0.168493
-0.163069
-0.138807
-0.108314
-0.0803015
-0.0577212
-0.0408099
-0.0282025
-0.0194016
-0.0150998
-0.0146398
-0.0153851
-0.0145071
-0.016271
-0.0208884
-0.0311613
-0.0469677
-0.0723814
-0.098142
-0.106671
-0.0966969
-0.0710168
-0.0501299
-0.0312501
-0.016477
-0.00674134
0.00407627
0.00404934
0.00420421
-0.00108621
-0.00311491
-0.344229
-0.332006
-0.325753
-0.31356
-0.296291
-0.276061
-0.252266
-0.224896
-0.194951
-0.163595
-0.131872
-0.100714
-0.070733
-0.04252
-0.0167133
0.00609634
0.0252606
0.0401034
0.0499713
0.0539425
0.051805
0.0454688
0.0345776
0.0198734
0.0010137
-0.024058
-0.0573123
-0.0966879
-0.132786
-0.152892
-0.150479
-0.130386
-0.103544
-0.0777342
-0.0560181
-0.0392409
-0.0264392
-0.0170376
-0.0116666
-0.0102074
-0.0107475
-0.00997607
-0.0117774
-0.0162786
-0.0265593
-0.0428047
-0.0693645
-0.0964841
-0.106096
-0.0969451
-0.0710193
-0.0494701
-0.0299699
-0.0148804
-0.00501738
0.00680763
0.00682969
0.00686151
0.000276299
-0.0032724
-0.317462
-0.310955
-0.304343
-0.291991
-0.277273
-0.260881
-0.241501
-0.218808
-0.193338
-0.165883
-0.137283
-0.108372
-0.07989
-0.0525128
-0.0268894
-0.00358242
0.0168942
0.0341099
0.0479464
0.0553923
0.0584752
0.0552808
0.0468126
0.0336325
0.0157328
-0.00846927
-0.0405634
-0.0784344
-0.113445
-0.132322
-0.133607
-0.11823
-0.0954943
-0.0724423
-0.0522076
-0.0361311
-0.0236507
-0.0141928
-0.00819254
-0.00594664
-0.006338
-0.00589674
-0.00777882
-0.0121739
-0.0221466
-0.0383629
-0.0653469
-0.0933669
-0.104262
-0.0959036
-0.0699807
-0.0481482
-0.0282262
-0.0130729
-0.00310863
0.00948942
0.00946038
0.00936925
0.00160364
-0.00347234
-0.289754
-0.296591
-0.287853
-0.273375
-0.258274
-0.242465
-0.224431
-0.203495
-0.179962
-0.154566
-0.128089
-0.101243
-0.0746556
-0.0489134
-0.0245768
-0.00214439
0.0179678
0.0354688
0.0510238
0.0588684
0.0637802
0.0634891
0.0575225
0.0461016
0.0292382
0.00518439
-0.0282666
-0.0685211
-0.104836
-0.126701
-0.123095
-0.107343
-0.0859414
-0.0647436
-0.0461847
-0.0313345
-0.0196474
-0.0106201
-0.00458075
-0.00192143
-0.0019802
-0.00131188
-0.0023404
-0.006364
-0.0159187
-0.0323764
-0.0605681
-0.0908313
-0.103566
-0.0954926
-0.0684096
-0.0461624
-0.0261338
-0.0111976
-0.00107449
0.0123078
0.012067
0.0118667
0.00291573
-0.00374243
-0.261583
-0.272127
-0.264541
-0.249674
-0.234559
-0.21977
-0.203588
-0.184935
-0.163904
-0.141169
-0.117429
-0.0932657
-0.0691884
-0.0456976
-0.0232999
-0.00246394
0.0163826
0.0327551
0.0448687
0.0566733
0.0630917
0.0644466
0.0602613
0.0505172
0.0350049
0.0117554
-0.02126
-0.0602774
-0.0937023
-0.110533
-0.107483
-0.0933757
-0.0748553
-0.0565483
-0.0402203
-0.0268347
-0.0161108
-0.00764053
-0.00170002
0.00117053
0.00124898
0.00184044
0.000811119
-0.00236565
-0.0112775
-0.0274326
-0.056051
-0.0875188
-0.100871
-0.0929052
-0.0657968
-0.0435891
-0.0238024
-0.00922485
0.000845686
0.0145232
0.0141736
0.0140241
0.0040673
-0.00395048
-0.236157
-0.246872
-0.241065
-0.227459
-0.213225
-0.199663
-0.185275
-0.168809
-0.150151
-0.129857
-0.108563
-0.0867775
-0.0649379
-0.0434838
-0.0228749
-0.00355502
0.0140529
0.0295252
0.0421915
0.0529308
0.0595461
0.0615481
0.0582902
0.0495684
0.0350381
0.0129804
-0.0175004
-0.0517691
-0.0797601
-0.0933439
-0.0911623
-0.0796858
-0.0643516
-0.0488278
-0.034571
-0.0225446
-0.0127142
-0.00481497
0.000924718
0.00394378
0.00417051
0.00472439
0.00370318
0.000833719
-0.0078388
-0.0237463
-0.0518801
-0.0829235
-0.0963934
-0.089028
-0.0625384
-0.0406409
-0.0212976
-0.00715293
0.00273115
0.0165515
0.016098
0.0159724
0.00516578
-0.00407728
-0.213043
-0.222882
-0.218635
-0.206811
-0.193813
-0.181382
-0.168478
-0.153897
-0.137368
-0.119304
-0.100271
-0.0807259
-0.0610442
-0.0415973
-0.0227868
-0.00501879
0.0113171
0.025841
0.0380648
0.0479805
0.0544952
0.0568687
0.054358
0.0466342
0.0333749
0.0134798
-0.0129403
-0.0416246
-0.0647312
-0.0761804
-0.0751929
-0.0664519
-0.05414
-0.0412562
-0.0290239
-0.0183606
-0.00943007
-0.00213953
0.00331833
0.00643857
0.00687554
0.00747944
0.00658272
0.00391758
-0.00459546
-0.0200745
-0.0469414
-0.0770305
-0.0906925
-0.0840404
-0.0585893
-0.0373186
-0.018602
-0.00497313
0.00457527
0.018418
0.0178878
0.0177737
0.00627676
-0.00412803
-0.191338
-0.200544
-0.197502
-0.187362
-0.175715
-0.164446
-0.152908
-0.140047
-0.125499
-0.109536
-0.0926325
-0.0752014
-0.05757
-0.0400541
-0.0230044
-0.00679275
0.00821512
0.0216599
0.0331231
0.0423387
0.0486049
0.0512133
0.0494511
0.0429529
0.0314969
0.0145347
-0.00743081
-0.0309201
-0.0497904
-0.0598151
-0.0601391
-0.0540347
-0.0445375
-0.034078
-0.0237315
-0.0143735
-0.00631011
0.000374211
0.00549434
0.00866186
0.0093333
0.01005
0.00935294
0.00698572
-0.00110257
-0.0157099
-0.0409543
-0.0700059
-0.0836846
-0.0778507
-0.0539163
-0.0336364
-0.015747
-0.0027082
0.00637096
0.0200772
0.0195069
0.0194338
0.00741129
-0.0040992
-0.171442
-0.179985
-0.177765
-0.169095
-0.158826
-0.148776
-0.138553
-0.127272
-0.11454
-0.100518
-0.0855944
-0.0701355
-0.0544335
-0.0387618
-0.0234253
-0.00875696
0.00490659
0.0172285
0.0278303
0.0363662
0.0423137
0.0450794
0.0440594
0.0389033
0.0294634
0.0155525
-0.0021683
-0.0209764
-0.0361103
-0.0452062
-0.0466954
-0.042846
-0.0357567
-0.0273981
-0.018746
-0.0106164
-0.00338466
0.00271566
0.00746205
0.0106231
0.0115275
0.0124358
0.0119968
0.0100233
0.00266985
-0.0107449
-0.0341757
-0.061873
-0.075371
-0.0705111
-0.0485494
-0.0296308
-0.0127717
-0.000386356
0.00811433
0.0214917
0.0209159
0.0209171
0.0085495
-0.00397185
-0.153406
-0.161046
-0.159424
-0.152069
-0.143138
-0.134302
-0.125331
-0.115492
-0.104407
-0.0921617
-0.0790683
-0.0654452
-0.0515533
-0.0376309
-0.0239398
-0.0107721
0.00156434
0.0127536
0.0224526
0.0303137
0.0359149
0.0387803
0.0384282
0.0345518
0.0270692
0.0160278
0.0020931
-0.0127722
-0.0254638
-0.0330144
-0.0352079
-0.0330522
-0.0278959
-0.0212983
-0.0141283
-0.00712867
-0.000686108
0.00486981
0.00923181
0.012344
0.0134694
0.0146462
0.0145305
0.0130007
0.00658018
-0.00545712
-0.0267742
-0.052735
-0.0659259
-0.0621682
-0.0425645
-0.0253545
-0.00972282
0.00195591
0.00981182
0.0226354
0.0220875
0.0221852
0.00968364
-0.00371672
-0.136756
-0.1436
-0.142503
-0.136322
-0.128627
-0.12094
-0.113139
-0.104615
-0.0950214
-0.0843958
-0.0729858
-0.0610632
-0.0488577
-0.0365773
-0.024447
-0.0127202
-0.00167537
0.0083964
0.0171915
0.0243871
0.0296308
0.0325441
0.032757
0.0300283
0.024332
0.0158134
0.00505804
-0.00651969
-0.0167021
-0.0231849
-0.0256763
-0.0246733
-0.0209952
-0.0158291
-0.00992119
-0.00393623
0.00176401
0.00682157
0.0108158
0.0138474
0.0151753
0.0166713
0.016963
0.0159019
0.0105515
6.71873e-05
-0.0188827
-0.0428581
-0.0556293
-0.0530496
-0.0360923
-0.020879
-0.0066516
0.00427758
0.011481
0.0234962
0.0230176
0.0232191
0.010828
-0.00329566
-0.121454
-0.127659
-0.126992
-0.121823
-0.115237
-0.108609
-0.101887
-0.0945604
-0.0863152
-0.0771587
-0.0672861
-0.0569266
-0.0462799
-0.0355265
-0.0248613
-0.014504
-0.00469964
0.00429112
0.0122131
0.0187639
0.0236501
0.0265732
0.0272545
0.0255168
0.0213619
0.0149528
0.00679924
-0.0020614
-0.0100455
-0.0154791
-0.0179416
-0.0176431
-0.015043
-0.0110093
-0.00615323
-0.00105758
0.00395342
0.00855425
0.0122209
0.0151532
0.0166643
0.0184887
0.0192854
0.0187619
0.0146314
0.00579293
-0.0107689
-0.0326447
-0.0448661
-0.0434691
-0.0293193
-0.0162935
-0.00361069
0.00653705
0.0131479
0.0240901
0.0237388
0.0240224
0.0120086
-0.00266108
-0.107613
-0.113151
-0.112789
-0.108492
-0.102901
-0.0972406
-0.0915012
-0.0852575
-0.078226
-0.070394
-0.0619152
-0.0529813
-0.0437641
-0.0344194
-0.0251139
-0.0160378
-0.00740531
0.00054987
0.00765027
0.0135862
0.0181213
0.0210222
0.0220792
0.0211625
0.0182886
0.0136211
0.00759239
0.000954627
-0.00516212
-0.00956111
-0.0117754
-0.0118449
-0.00999478
-0.00683417
-0.00283893
0.00149522
0.0058792
0.0100547
0.0134426
0.0162759
0.017954
0.0200675
0.0214502
0.0216357
0.0188591
0.0115637
-0.00284952
-0.0226091
-0.0341083
-0.033808
-0.0224759
-0.0117026
-0.000650189
0.00869703
0.0148369
0.0244721
0.0243269
0.0246212
0.0132549
-0.00176077
-0.095037
-0.0999196
-0.0998012
-0.0962711
-0.0915696
-0.0867778
-0.0819219
-0.0766472
-0.0707003
-0.064054
-0.0568289
-0.0491841
-0.0412658
-0.0332073
-0.0251496
-0.0172547
-0.00970564
-0.00271555
0.0036084
0.00895678
0.0131462
0.0159926
0.0173385
0.0170892
0.0152695
0.0120245
0.00770773
0.00288251
-0.00166704
-0.00509409
-0.00693958
-0.00714308
-0.00578672
-0.00328076
2.16296e-05
0.00371611
0.00754406
0.0113191
0.0144671
0.0172162
0.0190537
0.0213746
0.0233598
0.0244484
0.0230459
0.0170221
0.00437567
-0.0132679
-0.0238315
-0.0244639
-0.0158143
-0.00722389
0.0021852
0.010729
0.0165522
0.0247339
0.0248945
0.025067
0.0145887
-0.000555632
-0.0835444
-0.087883
-0.0879771
-0.0851095
-0.0811867
-0.0771643
-0.0730927
-0.0686765
-0.0636902
-0.058097
-0.0519899
-0.0455003
-0.0387515
-0.031856
-0.0249303
-0.0181068
-0.0115342
-0.00536302
0.000161082
0.00494005
0.00878913
0.0115526
0.0131099
0.0133925
0.0124245
0.0103277
0.00738314
0.0040222
0.000753746
-0.00179357
-0.00321357
-0.00339697
-0.00234256
-0.000313026
0.00244145
0.00560601
0.0089522
0.0123531
0.015285
0.017955
0.0199465
0.0224034
0.0248846
0.0268383
0.0266231
0.0215938
0.0104603
-0.00498146
-0.0144305
-0.0158091
-0.0095831
-0.00298167
0.00485561
0.0126112
0.0182577
0.0249904
0.0255589
0.0254308
0.0160016
0.000945794
-0.0731551
-0.0769972
-0.0772362
-0.0749271
-0.071683
-0.0683385
-0.064958
-0.0612962
-0.0571536
-0.052488
-0.0473695
-0.0419059
-0.0362003
-0.0303459
-0.0244385
-0.0185876
-0.0129193
-0.00756785
-0.00270457
0.00155879
0.00508067
0.007738
0.00943731
0.010129
0.00983211
0.00864642
0.00679243
0.00460452
0.00235688
0.000583533
-0.000399452
-0.0004695
0.000420795
0.00211436
0.00444351
0.00717324
0.0101091
0.0131655
0.0158955
0.018476
0.020595
0.023119
0.0258246
0.0283831
0.028939
0.0247438
0.0151419
0.00204061
-0.00621788
-0.00815702
-0.00399425
0.000906807
0.00732528
0.0143187
0.0198578
0.025349
0.026395
0.0257781
0.0174205
0.00264365
-0.0638012
-0.0671615
-0.0674917
-0.0656507
-0.0629962
-0.0602463
-0.05747
-0.0544646
-0.0510562
-0.0471998
-0.0429476
-0.0383869
-0.0336026
-0.0286713
-0.023672
-0.0186936
-0.0138396
-0.00922129
-0.00496804
-0.00118149
0.00202517
0.00455488
0.00633363
0.0073246
0.00754382
0.00706487
0.00604384
0.00466911
0.00334067
0.00224465
0.00167802
0.0017691
0.00258916
0.0040535
0.00605785
0.00843337
0.0110224
0.0137647
0.016303
0.0187738
0.0209649
0.0234743
0.0261817
0.0288445
0.0297327
0.0263223
0.0183632
0.00763286
0.000557976
-0.00171855
0.000814962
0.004352
0.00956437
0.0158149
0.021201
0.0258355
0.0273744
0.0261366
0.0186873
0.00432193
-0.0553349
-0.058278
-0.0586755
-0.0572286
-0.0550755
-0.052838
-0.050583
-0.0481434
-0.0453679
-0.0422112
-0.038711
-0.0349371
-0.030959
-0.026839
-0.0226404
-0.0184341
-0.0143046
-0.0103407
-0.00664442
-0.00329901
-0.000396316
0.00198667
0.00379094
0.00498716
0.00558555
0.00564291
0.00528256
0.00461405
0.0039209
0.00336965
0.00317168
0.0034383
0.00424731
0.00556027
0.00731947
0.00940707
0.0117033
0.0141608
0.016514
0.0188484
0.0210357
0.0234491
0.025968
0.0283674
0.0292686
0.0265815
0.0202426
0.0117338
0.00580602
0.00343985
0.00479928
0.00730547
0.0115446
0.017056
0.02214
0.0263329
0.0283138
0.0264537
0.0195855
0.00569642
-0.0476938
-0.0502764
-0.0507304
-0.0496025
-0.0478561
-0.0460614
-0.0442543
-0.0422985
-0.0400637
-0.0375059
-0.034652
-0.0315573
-0.0282776
-0.024863
-0.0213641
-0.0178371
-0.0143465
-0.0109639
-0.00776959
-0.00483122
-0.00222105
-6.75881e-07
0.00178227
0.00310342
0.00396555
0.00440931
0.0045099
0.00440201
0.00421433
0.00409841
0.00421157
0.00464608
0.00547664
0.00669151
0.00826608
0.0101195
0.0121671
0.0143673
0.0165361
0.0187102
0.0208163
0.0230704
0.0252787
0.0272619
0.0280147
0.0259409
0.0210468
0.0144838
0.00964211
0.00739799
0.00799045
0.0097548
0.0132302
0.0180004
0.0226087
0.0265951
0.0288845
0.026539
0.019901
0.00655052
-0.0408308
-0.043087
-0.0435739
-0.0427352
-0.0413692
-0.0399067
-0.0384583
-0.0369025
-0.0351213
-0.0330708
-0.0307677
-0.0282541
-0.0255745
-0.0227685
-0.0198753
-0.0169376
-0.0140067
-0.0111372
-0.00839481
-0.00582915
-0.00349919
-0.00145367
0.000269019
0.00164839
0.00268268
0.00340076
0.00385364
0.00412701
0.00432051
0.00454211
0.00490628
0.00548759
0.00635252
0.00750317
0.00893715
0.0105985
0.0124335
0.014401
0.016381
0.0183766
0.0203463
0.0224069
0.0242452
0.0258076
0.0263707
0.0247971
0.021104
0.0161635
0.0123056
0.0103235
0.0104622
0.0117113
0.0145755
0.0186066
0.0226343
0.0263762
0.0287475
0.0261044
0.0194961
0.0068423
-0.0346594
-0.0366179
-0.0371122
-0.0364946
-0.0354246
-0.034288
-0.0331496
-0.0319244
-0.0305181
-0.0288964
-0.0270591
-0.0250384
-0.0228696
-0.0205829
-0.0182093
-0.0157822
-0.0133395
-0.0109208
-0.00857874
-0.00635278
-0.00428885
-0.00242531
-0.000795365
0.000587828
0.00171701
0.00260952
0.00330019
0.00384557
0.00431653
0.00478889
0.00534574
0.0060452
0.00694366
0.00804914
0.0093726
0.0108739
0.0125245
0.0142808
0.0160692
0.017871
0.0196603
0.0215717
0.0229919
0.0242026
0.0246018
0.0234342
0.0207016
0.0170621
0.0140533
0.0123972
0.0123004
0.013198
0.01554
0.0188474
0.022256
0.0255361
0.0276926
0.0249545
0.0183901
0.00667603
-0.0291097
-0.0308083
-0.0313
-0.0308633
-0.0300433
-0.0291669
-0.0282944
-0.0273548
-0.0262677
-0.0249898
-0.0235338
-0.0219235
-0.0201861
-0.018338
-0.016408
-0.0144188
-0.0124005
-0.0103687
-0.00838152
-0.00646419
-0.00465182
-0.00297455
-0.00146509
-0.000119897
0.00104232
0.00203329
0.00287314
0.00359917
0.00425967
0.0049079
0.00560316
0.00638902
0.00731163
0.00837996
0.00961166
0.0109767
0.0124637
0.0140294
0.0156299
0.0172249
0.0187567
0.0201016
0.0215763
0.0225701
0.0228604
0.0220219
0.0200346
0.017409
0.0151125
0.0137931
0.0135897
0.0142417
0.016113
0.0187316
0.0215207
0.0241239
0.02582
0.0231411
0.0167603
0.00619781
-0.024132
-0.0256022
-0.0260815
-0.0257893
-0.0251742
-0.0245105
-0.023853
-0.0231433
-0.0223125
-0.0213274
-0.0201899
-0.0189176
-0.0175304
-0.0160524
-0.0144932
-0.0128716
-0.0112064
-0.00953035
-0.0078619
-0.00622528
-0.00465078
-0.00315856
-0.00176765
-0.000504275
0.000639982
0.00166558
0.002582
0.00341368
0.00419172
0.00495257
0.00573752
0.00657796
0.00751035
0.00854184
0.00969236
0.0109382
0.012279
0.0136741
0.0150977
0.0165037
0.0178439
0.0190745
0.0202105
0.0210028
0.0212244
0.0206484
0.0192266
0.0173704
0.0156604
0.014664
0.0144069
0.0148754
0.0163208
0.0183037
0.0204943
0.0223378
0.0234365
0.0208929
0.0148594
0.00554179
-0.0196741
-0.020942
-0.0214012
-0.0212233
-0.0207748
-0.0202848
-0.0198016
-0.0192784
-0.0186581
-0.0179111
-0.0170366
-0.0160474
-0.0149591
-0.0137854
-0.0125378
-0.0112284
-0.00987206
-0.00848704
-0.00709205
-0.00570603
-0.00434784
-0.00304063
-0.00179404
-0.000620276
0.000473041
0.00148664
0.00242534
0.00330403
0.00414188
0.00496301
0.00579539
0.00666049
0.00758598
0.0085765
0.00965108
0.0107901
0.0119991
0.0132415
0.0145019
0.0157371
0.0169081
0.0179811
0.0188956
0.0195372
0.0197223
0.0193506
0.0183545
0.0170667
0.0158156
0.0151299
0.0148168
0.015143
0.0162124
0.0176286
0.0192605
0.0203736
0.0208529
0.0184652
0.0129168
0.00482188
-0.0156838
-0.0167746
-0.0172092
-0.0171206
-0.0168068
-0.0164572
-0.0161145
-0.0157416
-0.0152909
-0.0147366
-0.0140762
-0.0133186
-0.0124753
-0.0115557
-0.010568
-0.00952086
-0.00842502
-0.00729265
-0.00613794
-0.00497533
-0.00381926
-0.00268163
-0.00157538
-0.000510056
0.000506985
0.00147528
0.00239571
0.00327662
0.0041291
0.00496834
0.0058126
0.0066757
0.00757773
0.00852084
0.00952112
0.0105623
0.0116513
0.0127564
0.0138689
0.0149505
0.0159682
0.0168905
0.0176496
0.0181853
0.0183574
0.0181421
0.0174615
0.0165797
0.0156407
0.0149041
0.0148618
0.0150993
0.0158476
0.0167782
0.0178972
0.0183814
0.0183056
0.0160618
0.0110833
0.0041203
-0.0121174
-0.0130538
-0.013461
-0.013441
-0.0132347
-0.0129978
-0.0127673
-0.012514
-0.0121987
-0.0117989
-0.0113111
-0.0107416
-0.0100985
-0.00938835
-0.0086167
-0.00778916
-0.00691305
-0.00599666
-0.00505041
-0.00408471
-0.00310904
-0.00213244
-0.00116567
-0.000216339
0.000708925
0.00160859
0.0024814
0.0033314
0.00416414
0.00498857
0.00581601
0.00665449
0.00751794
0.00840631
0.00933196
0.0102814
0.0112606
0.0122429
0.0132224
0.0141674
0.0150494
0.0158411
0.0164853
0.016948
0.0171209
0.0170219
0.0165735
0.0159838
0.0153156
0.0148295
0.0147026
0.0148165
0.0152888
0.0158157
0.0164746
0.016501
0.0159517
0.0138197
0.00943318
0.00348328
-0.00893595
-0.00973751
-0.0101155
-0.0101474
-0.010026
-0.00987878
-0.00973708
-0.00957808
-0.00936965
-0.00909273
-0.00874328
-0.00832537
-0.00784479
-0.00730604
-0.00671253
-0.00606754
-0.00537584
-0.00464296
-0.00387616
-0.00308274
-0.00226922
-0.00144234
-0.000609968
0.000221658
0.00104654
0.00186266
0.00266782
0.00346337
0.00425137
0.00503632
0.00582466
0.0066204
0.0074324
0.00825911
0.0091092
0.00997095
0.010849
0.0117218
0.0125831
0.0134074
0.0141704
0.0148503
0.0154097
0.0158203
0.0159989
0.0159827
0.015704
0.0153211
0.0148557
0.0145099
0.0143538
0.0143505
0.0145891
0.014791
0.0150478
0.014745
0.0138576
0.0118135
0.00799125
0.00292945
-0.00610345
-0.00678778
-0.00713611
-0.00720628
-0.00715161
-0.00707494
-0.00700278
-0.0069174
-0.00679274
-0.00661272
-0.00637321
-0.0060767
-0.00572721
-0.00532765
-0.00488
-0.00438593
-0.0038481
-0.00326998
-0.00265628
-0.00201169
-0.00134366
-0.000654092
5.11533e-05
0.000767212
0.00148876
0.00221338
0.00293855
0.00366416
0.00439014
0.00511809
0.00585108
0.00659036
0.00734103
0.00810035
0.0088737
0.0096513
0.0104355
0.0112095
0.011967
0.0126868
0.0133472
0.0139231
0.0144261
0.0147951
0.0149783