/*--------------------------------*- C++ -*----------------------------------*\
| =========                 |                                                 |
| \\      /  F ield         | OpenFOAM: The Open Source CFD Toolbox           |
|  \\    /   O peration     | Version:  2512                                  |
|   \\  /    A nd           | Website:  www.openfoam.com                      |
|    \\/     M anipulation  |                                                 |
\*---------------------------------------------------------------------------*/
FoamFile
{
    version     2.0;
    format      ascii;
    arch        "LSB;label=32;scalar=64";
    class       surfaceScalarField;
    location    "106.25";
    object      phi;
}
// * * * * * * * * * * * * * * * * * * * * * * * * * * * * * * * * * * * * * //

dimensions      [0 3 -1 0 0 0 0];

oriented        oriented;

internalField   nonuniform List<scalar> 
26232
(
0.000119491
0.00100501
-0.0011245
0.000717445
0.00175347
-0.00235142
0.00198422
0.00136275
-0.00262952
0.00408671
-0.000143632
-0.00195886
0.00718495
-0.00275908
-0.000339164
0.011431
-0.00647895
0.00223286
0.0169564
-0.011286
0.00576064
0.0238493
-0.0171328
0.0102399
0.0321271
-0.0239253
0.0156474
0.0417122
-0.0315132
0.0219281
0.0524177
-0.0396898
0.0289843
0.0639499
-0.0482031
0.0366709
0.075929
-0.0567766
0.0447974
0.0879261
-0.065135
0.0531379
0.09951
-0.0730319
0.061448
0.110297
-0.0802736
0.0694864
0.119996
-0.0867359
0.0770369
0.128437
-0.0923713
0.0839303
0.135584
-0.0972031
0.0900563
0.141515
-0.101318
0.0953875
0.146396
-0.10481
0.0999282
0.15038
-0.107868
0.103884
0.153409
-0.110252
0.107224
-0.112879
0.11082
0.155468
0.000156447
0.000848563
0.000902189
0.00100772
0.00246905
-0.00020411
0.00506199
-0.00273657
0.00886574
-0.00656282
0.0140317
-0.0116449
0.0206513
-0.0179057
0.0287251
-0.0252065
0.0381362
-0.0333363
0.0486407
-0.0420177
0.05988
-0.0509291
0.0714163
-0.0597394
0.0827839
-0.0681442
0.0935481
-0.0758991
0.103359
-0.0828424
0.111989
-0.0889043
0.119356
-0.0941026
0.125509
-0.0985246
0.130608
-0.102302
0.134872
-0.105582
0.138561
-0.108499
0.141872
-0.111179
0.145234
-0.113613
-0.116293
0.148648
0.000229078
0.000619485
0.00120704
2.9757e-05
0.00319303
-0.0021901
0.00641228
-0.00595582
0.0110457
-0.0111963
0.0172
-0.0177992
0.0248702
-0.0255759
0.0339108
-0.0342471
0.0440289
-0.0434544
0.0548081
-0.0527969
0.0657603
-0.0618814
0.0763939
-0.070373
0.0862824
-0.0780327
0.0951194
-0.0847361
0.102749
-0.0904717
0.109165
-0.0953211
0.114491
-0.0994279
0.118928
-0.102962
0.122715
-0.106089
0.126081
-0.108948
0.129219
-0.111637
0.132281
-0.114241
0.135391
-0.116724
-0.119407
0.138506
0.000332833
0.000286652
0.00161518
-0.00125259
0.00411503
-0.00468995
0.00804919
-0.00988998
0.0135525
-0.0166995
0.0206323
-0.024879
0.029132
-0.0340757
0.0387246
-0.0438397
0.0489464
-0.0536762
0.0592662
-0.0631167
0.0691711
-0.0717863
0.0782448
-0.0794467
0.0862212
-0.0860091
0.0930024
-0.0915174
0.0986426
-0.0961119
0.103306
-0.099984
0.107211
-0.103334
0.110588
-0.106339
0.113636
-0.109137
0.116513
-0.111825
0.119339
-0.114463
0.122192
-0.117094
0.12517
-0.119702
-0.122504
0.128268
0.000460341
-0.000173688
0.00209977
-0.00289202
0.00516957
-0.00775975
0.00984096
-0.0145614
0.0161517
-0.0230103
0.0239568
-0.032684
0.0329139
-0.0430328
0.0425235
-0.0534493
0.0522142
-0.0633669
0.0614473
-0.0723498
0.0698073
-0.0801462
0.0770538
-0.0866932
0.0831288
-0.092084
0.0881243
-0.0965129
0.0922277
-0.100215
0.0956633
-0.10342
0.0986456
-0.106316
0.101353
-0.109046
0.103918
-0.111702
0.106435
-0.114342
0.10897
-0.116998
0.111563
-0.119688
0.114264
-0.122403
-0.125262
0.117021
0.000604766
-0.000778455
0.00263083
-0.00491808
0.00628182
-0.0114107
0.0116383
-0.0199179
0.0185903
-0.0299623
0.0268046
-0.0408983
0.0357598
-0.051988
0.0448449
-0.0625344
0.0534852
-0.0720072
0.0612482
-0.0801128
0.0678989
-0.086797
0.0733991
-0.0921933
0.0778618
-0.0965468
0.0814872
-0.100138
0.0844999
-0.103228
0.0871046
-0.106024
0.0894644
-0.108676
0.0916968
-0.111278
0.0938817
-0.113887
0.0960719
-0.116532
0.0983034
-0.119229
0.100601
-0.121985
0.102993
-0.124795
-0.127723
0.105454
0.000759817
-0.00153827
0.00317778
-0.00733605
0.00737276
-0.0156057
0.013288
-0.0258331
0.0206272
-0.0373015
0.0288678
-0.0491389
0.0373625
-0.0604827
0.0454867
-0.0706586
0.0527675
-0.079288
0.0589503
-0.0862956
0.0639947
-0.0918414
0.0680204
-0.096219
0.0712333
-0.0997597
0.0738589
-0.102764
0.0760972
-0.105466
0.0781031
-0.10803
0.079985
-0.110558
0.081814
-0.113107
0.0836354
-0.115708
0.0854788
-0.118376
0.0873643
-0.121115
0.0893064
-0.123927
0.0913212
-0.12681
-0.129787
0.0933855
0.000918489
-0.00245676
0.00370758
-0.0101251
0.00836065
-0.0202588
0.0146437
-0.0321161
0.0220622
-0.04472
0.0299442
-0.0570209
0.0376037
-0.0681422
0.0445009
-0.0775558
0.0503312
-0.0851183
0.0550277
-0.0909922
0.058702
-0.0955156
0.0615606
-0.0990776
0.0638314
-0.102031
0.0657155
-0.104648
0.067366
-0.107117
0.0688879
-0.109552
0.0703481
-0.112018
0.0717878
-0.114547
0.073233
-0.117153
0.0747014
-0.119844
0.0762059
-0.122619
0.0777571
-0.125478
0.0793658
-0.128419
-0.131441
0.0810202
0.00107233
-0.00352909
0.00418433
-0.0132371
0.00916548
-0.0252399
0.0155821
-0.0385327
0.0227636
-0.0519015
0.0299612
-0.0642186
0.0365425
-0.0747235
0.0421187
-0.083132
0.0465672
-0.0895667
0.0499724
-0.0943974
0.0525349
-0.0980781
0.0544861
-0.101029
0.0560329
-0.103577
0.0573328
-0.105948
0.0584925
-0.108276
0.0595783
-0.110638
0.06063
-0.11307
0.0616715
-0.115588
0.0627184
-0.1182
0.0637823
-0.120908
0.0648721
-0.123709
0.0659955
-0.126601
0.0671587
-0.129582
-0.132639
0.0683565
0.00121127
-0.00474036
0.00457144
-0.0165973
0.00971753
-0.030386
0.0160188
-0.044834
0.0226819
-0.0585646
0.0289653
-0.070502
0.0343598
-0.080118
0.03865
-0.0874222
0.0418682
-0.0927849
0.0441965
-0.0967257
0.0458682
-0.0997498
0.0471001
-0.102261
0.0480596
-0.104537
0.0488602
-0.106748
0.0495716
-0.108988
0.0502342
-0.111301
0.0508715
-0.113707
0.051498
-0.116215
0.0521242
-0.118827
0.0527581
-0.121542
0.0534066
-0.124358
0.0540756
-0.12727
0.0547695
-0.130276
-0.133359
0.0554894
0.00132518
-0.00606554
0.00483725
-0.0201094
0.00996789
-0.0355167
0.0159189
-0.050785
0.0218454
-0.0644911
0.0270869
-0.0757434
0.0312919
-0.084323
0.0344045
-0.0905348
0.0365673
-0.0949477
0.0380085
-0.0981669
0.038956
-0.100697
0.0395925
-0.102897
0.0400434
-0.104988
0.040386
-0.107091
0.040664
-0.109266
0.0409018
-0.111538
0.0411137
-0.113919
0.0413093
-0.11641
0.041496
-0.119013
0.0416801
-0.121726
0.0418667
-0.124544
0.0420598
-0.127464
0.0422613
-0.130477
-0.133572
0.0424746
0.00140817
-0.00747371
0.00496254
-0.0236638
0.00989627
-0.0404504
0.0152968
-0.0561856
0.0203424
-0.0695366
0.024502
-0.0799031
0.0275839
-0.0874049
0.029657
-0.092608
0.0309275
-0.0962182
0.0316314
-0.0988707
0.0319697
-0.101036
0.032086
-0.103013
0.0320696
-0.104971
0.0319709
-0.106992
0.0318171
-0.109112
0.0316228
-0.111344
0.0313973
-0.113693
0.0311474
-0.11616
0.0308789
-0.118745
0.0305971
-0.121444
0.0303065
-0.124254
0.0300103
-0.127167
0.0297092
-0.130176
0.0294086
-0.133272
-0.000215866
0.00260959
-0.00239373
-0.000786345
0.00611504
-0.00554456
-0.00166072
0.00842005
-0.00754567
-0.00279166
0.00979995
-0.00866901
-0.00413567
0.0104955
-0.00915146
-0.00565534
0.0107088
-0.00918916
-0.00732002
0.0105921
-0.00892746
-0.00910512
0.0102431
-0.00845798
-0.0109905
0.00970868
-0.00782332
-0.0129586
0.00899502
-0.00702686
-0.0149931
0.008079
-0.00604456
-0.0170764
0.0069196
-0.00483631
-0.0191904
0.00546655
-0.00335256
-0.0213175
0.00366682
-0.00153965
-0.0234113
0.00146669
0.000627036
-0.0254564
-0.00115983
0.00320502
-0.0274154
-0.00426275
0.00622173
-0.029245
-0.00786342
0.00969302
-0.0309006
-0.0119628
0.0136183
-0.0323377
-0.0165387
0.0179758
-0.0335163
-0.0215405
0.0227191
-0.0344065
-0.0268873
0.0277775
-0.0350066
-0.0324618
0.0330618
-0.0380726
-0.0353862
0.0384523
-0.000130774
0.00274037
-0.000518751
0.00650302
-0.00115487
0.00905616
-0.00201564
0.0106607
-0.00306841
0.0115483
-0.00427757
0.011918
-0.00560885
0.0119234
-0.00703162
0.0116658
-0.00851958
0.0111966
-0.0100503
0.0105258
-0.0116042
0.00963285
-0.0131627
0.00847816
-0.0147078
0.0070116
-0.0162204
0.00517942
-0.0176805
0.00292679
-0.0190376
0.000197309
-0.0203018
-0.00299856
-0.0214246
-0.0067406
-0.0223762
-0.0110112
-0.0231274
-0.0157875
-0.0236544
-0.0210135
-0.0239474
-0.0265943
-0.0240207
-0.0323886
-0.0381707
-0.0239226
-3.33363e-05
0.0027737
-0.000203977
0.00667366
-0.000544769
0.00939696
-0.00105649
0.0111724
-0.00171833
0.0122101
-0.00249699
0.0126966
-0.00335419
0.0127806
-0.00425182
0.0125635
-0.0051548
0.0120996
-0.00603209
0.0114031
-0.00685636
0.0104571
-0.00760285
0.00922465
-0.00824791
0.00765666
-0.00876742
0.00569893
-0.00914227
0.00330164
-0.00934984
0.000404874
-0.00935072
-0.00299768
-0.0091299
-0.00696142
-0.00866368
-0.0114774
-0.0079319
-0.0165192
-0.00691998
-0.0220254
-0.00562517
-0.0278891
-0.00406457
-0.0339491
-0.0399897
-0.00224558
6.50075e-05
0.0027087
0.000124389
0.00661428
0.00010907
0.00941228
-4.49061e-06
0.011286
-0.000207281
0.0124129
-0.000469638
0.012959
-0.000750573
0.0130616
-0.00100499
0.0128179
-0.00118852
0.0122832
-0.00126001
0.0114746
-0.00118225
0.0103794
-0.000921419
0.00896381
-0.000446354
0.0071816
0.000271998
0.00498058
0.0012711
0.00230254
0.00256586
-0.000889885
0.00420378
-0.0046356
0.00620117
-0.00895881
0.00857886
-0.0138551
0.0113504
-0.0192908
0.0145207
-0.0251957
0.0180869
-0.0314553
0.0220137
-0.0378759
-0.0442597
0.0262836
0.000151979
0.00255672
0.000427821
0.00633844
0.000733654
0.00910644
0.00102904
0.0109906
0.00131169
0.0121302
0.00160637
0.0126643
0.00195466
0.0127133
0.00240651
0.012366
0.00301418
0.0116755
0.00382852
0.0106602
0.00489745
0.00931043
0.00626583
0.00759543
0.00797626
0.00547117
0.0100701
0.00288671
0.0125821
-0.000209444
0.0155543
-0.00386204
0.0190233
-0.00810468
0.0230172
-0.0129526
0.0275553
-0.0183932
0.032643
-0.0243785
0.0382651
-0.0308178
0.0443933
-0.0375836
0.0509515
-0.0444341
-0.0513275
0.0580193
0.000217006
0.00233971
0.000671256
0.00588419
0.00125977
0.00851792
0.00193335
0.010317
0.00268217
0.0113814
0.00352605
0.0118204
0.00450526
0.0117341
0.0056722
0.0111991
0.007085
0.0102627
0.00880317
0.00894205
0.0108854
0.00722823
0.0133887
0.00509214
0.0163685
0.00249128
0.0198783
-0.000623091
0.0239699
-0.00430096
0.02869
-0.00858219
0.0340784
-0.0134931
0.0401607
-0.0190349
0.0469421
-0.0251746
0.0544014
-0.0318377
0.0624834
-0.0388999
0.0711038
-0.0462039
0.0801352
-0.0534655
-0.0608131
0.0896208
0.000252954
0.00208676
0.000828997
0.00530815
0.00163377
0.00771315
0.00262002
0.00933078
0.00377611
0.0102253
0.00511926
0.0104773
0.00668867
0.0101647
0.00853859
0.00934919
0.0107326
0.00806873
0.0133391
0.00633552
0.0164286
0.00413868
0.0200728
0.00144793
0.0243441
-0.00177996
0.0293095
-0.00558848
0.0350292
-0.0100207
0.0415527
-0.0151056
0.0489084
-0.0208488
0.0570957
-0.0272221
0.066076
-0.0341549
0.0757651
-0.0415268
0.0860402
-0.049175
0.0967197
-0.0568834
0.10762
-0.0643655
-0.071812
0.118619
0.00025772
0.00182904
0.000891228
0.00467464
0.00183184
0.00677254
0.00304575
0.00811688
0.00452741
0.00874367
0.00629682
0.00870786
0.00839581
0.00806567
0.0108835
0.00686152
0.0138319
0.00512035
0.0173221
0.00284523
0.0214348
2.606e-05
0.026268
-0.00338534
0.0318986
-0.00741051
0.0384016
-0.0120915
0.0458317
-0.0174509
0.0542137
-0.0234876
0.0635303
-0.0301654
0.0737122
-0.0374041
0.0846333
-0.045076
0.0961062
-0.0529997
0.107911
-0.0609802
0.119761
-0.0687327
0.131464
-0.0760689
-0.0829896
0.142641
0.000235063
0.00159397
0.000867794
0.00404191
0.00186946
0.00577088
0.00323069
0.00675565
0.00496158
0.00701278
0.00709341
0.00657603
0.00967835
0.00548073
0.0127871
0.00375272
0.0165059
0.00140157
0.0209309
-0.00157978
0.0261682
-0.00521117
0.0323039
-0.0095211
0.0394237
-0.0145303
0.0475784
-0.0202462
0.0567762
-0.0266487
0.0669687
-0.0336801
0.0780411
-0.0412378
0.0898091
-0.0491721
0.102025
-0.0572923
0.114394
-0.0653679
0.126601
-0.0731871
0.138315
-0.0804467
0.149375
-0.087129
-0.0928925
0.159278
0.000194767
0.00139921
0.000789291
0.00344738
0.0018049
0.00475527
0.0032664
0.00529414
0.00520997
0.00506922
0.0076889
0.0040971
0.0107761
0.00239353
0.014561
-3.21318e-05
0.0191503
-0.00318776
0.0246507
-0.00708023
0.0311632
-0.0117236
0.0387628
-0.0171207
0.0474849
-0.0232524
0.0573057
-0.030067
0.0681289
-0.0374719
0.079779
-0.0453303
0.0920047
-0.0534635
0.104494
-0.0616613
0.116897
-0.0696953
0.128869
-0.0773396
0.140083
-0.0844016
0.150307
-0.0906708
0.159402
-0.0962238
-0.100567
0.167076
0.000151658
0.00124755
0.000703619
0.00289542
0.00173252
0.00372636
0.00330512
0.00372155
0.00549331
0.00288102
0.0083822
0.00120821
0.0120722
-0.00129647
0.0166766
-0.00463654
0.0223053
-0.00881641
0.0290565
-0.0138314
0.0369911
-0.0196583
0.0461134
-0.026243
0.0563524
-0.0334914
0.0675509
-0.0412654
0.0794648
-0.0493857
0.0917748
-0.0576402
0.104111
-0.0657995
0.116087
-0.073638
0.127343
-0.0809513
0.137596
-0.0875922
0.146646
-0.0934518
0.154507
-0.098532
0.161128
-0.102844
-0.106116
0.166677
0.000123047
0.00066705
0.00176389
0.00352658
0.00606843
0.0095095
0.0139737
0.019577
0.0264081
0.0345048
0.0438307
0.0542587
0.0655648
0.0774372
0.0894995
0.101346
0.112583
0.122875
0.13198
0.139776
0.146252
0.151604
0.155983
0.160687
-0.0346115
-0.0609259
0.0601512
-0.0332801
-0.0708288
0.0694974
-0.0311403
-0.080152
0.0780122
-0.0279385
-0.0881594
0.0849576
-0.0233531
-0.0940761
0.0894907
-0.0170805
-0.0969321
0.0906595
-0.00893123
-0.0956855
0.0875362
0.00116797
-0.0893577
0.0792585
0.013043
-0.0772351
0.06536
0.0258229
-0.0585955
0.0458157
0.039143
-0.0342782
0.020958
0.0523656
-0.00496976
-0.0082528
0.065518
0.0276866
-0.0408391
0.0782877
0.0617486
-0.0745183
0.0901168
0.0939305
-0.10576
0.100169
0.120814
-0.130867
0.107745
0.140149
-0.147725
0.112535
0.151653
-0.156442
0.114218
0.157427
-0.159111
0.112359
0.161804
-0.159945
0.107467
0.16834
-0.163448
0.102034
0.174498
-0.169065
0.0996963
0.169845
-0.167508
0.102719
0.142448
-0.145471
0.110673
0.088631
-0.0965849
0.121647
0.016393
-0.0273667
0.133097
-0.0577761
0.0463263
0.142947
-0.11915
0.1093
0.149665
-0.159761
0.153043
0.153098
-0.181555
0.178122
0.154031
-0.18929
0.188357
0.15239
-0.190207
0.191848
0.147162
-0.193634
0.198861
0.138794
-0.204483
0.212851
0.130583
-0.208884
0.217095
0.126562
-0.181926
0.185947
0.128338
-0.112443
0.110667
0.134615
-0.0145252
0.00824827
0.142822
0.0783103
-0.0865169
0.150532
0.15004
-0.15775
0.155352
0.190696
-0.195517
0.154947
0.222943
-0.222538
0.149049
0.247305
-0.241406
0.14093
0.262803
-0.254684
0.135331
0.234454
-0.228855
0.135289
0.145873
-0.145832
0.140523
0.0320882
-0.0373222
0.147384
-0.0937955
0.0869348
0.151166
-0.158437
0.154655
0.148961
-0.231597
0.233802
0.142996
-0.255482
0.261447
0.138558
-0.267937
0.272374
0.139168
-0.219991
0.219382
0.142899
-0.0772169
0.0734861
0.145242
0.00207899
-0.00442204
0.14375
0.199255
-0.197763
0.141581
0.239834
-0.237665
0.140478
0.304679
-0.303575
0.139554
0.287707
-0.286783
0.019802
-0.018303
-0.024923
-0.0599255
-0.0258883
-0.0698636
-0.0266014
-0.0794388
-0.0268218
-0.087939
-0.0261501
-0.0947479
-0.0240409
-0.0990412
-0.0198771
-0.0998493
-0.0132418
-0.095993
-0.00415479
-0.0863221
0.00776328
-0.0705136
0.0213732
-0.047888
0.0357543
-0.0193509
0.0507506
0.0126904
0.0656357
0.0468635
0.0798191
0.0797471
0.092415
0.108219
0.10258
0.129983
0.109667
0.144566
0.113103
0.153991
0.112758
0.162149
0.109875
0.171223
0.107271
0.177102
0.107903
0.169213
0.112834
0.137518
0.121048
0.0804167
0.130762
0.00667914
0.140178
-0.0671921
0.147679
-0.126651
0.15216
-0.164242
0.1536
-0.182996
0.152939
-0.188629
0.150321
-0.187589
0.144567
-0.18788
0.135618
-0.195534
0.126614
-0.199879
0.122034
-0.177346
0.12398
-0.114389
0.131197
-0.0217421
0.140871
0.0686358
0.150095
0.140816
0.156099
0.184692
0.156517
0.222524
0.151308
0.252514
0.14383
0.27028
0.138396
0.239888
0.137797
0.146473
0.141989
0.0278957
0.147958
-0.0997647
0.151299
-0.161778
0.148865
-0.229163
0.142832
-0.249449
0.138363
-0.263468
0.139101
-0.220729
0.142697
-0.0808133
0.144938
-0.000162176
0.143475
0.200718
0.141301
0.242008
0.140306
0.305674
0.139581
0.288432
0.021167
-0.004267
-0.0579041
-0.0069099
-0.0672207
-0.00988805
-0.0764607
-0.0131275
-0.0846995
-0.0162921
-0.0915833
-0.0188308
-0.0965026
-0.0197847
-0.0988954
-0.0181602
-0.0976175
-0.013215
-0.0912672
-0.00508865
-0.07864
0.00692981
-0.0599065
0.0211691
-0.0335902
0.0372829
-0.00342339
0.0538126
0.0303338
0.0700427
0.063517
0.0849255
0.0933358
0.0974265
0.117482
0.106629
0.135363
0.111917
0.148703
0.113579
0.160487
0.113333
0.171469
0.113887
0.176548
0.117283
0.165817
0.123595
0.131206
0.131561
0.0724507
0.139703
-0.00146302
0.146882
-0.0743705
0.151937
-0.131707
0.154211
-0.166516
0.153801
-0.182586
0.151693
-0.18652
0.148255
-0.184151
0.14225
-0.181876
0.133044
-0.186328
0.123379
-0.190214
0.118101
-0.172068
0.119968
-0.116256
0.127884
-0.0296579
0.13886
0.0576594
0.149519
0.130158
0.15674
0.177471
0.158143
0.221121
0.153823
0.256834
0.147105
0.276998
0.14184
0.245153
0.140598
0.147714
0.143624
0.0248693
0.148594
-0.104734
0.151492
-0.164676
0.148874
-0.226544
0.142775
-0.24335
0.138235
-0.258928
0.139074
-0.221568
0.142581
-0.0843209
0.144774
-0.00235461
0.143331
0.202161
0.141112
0.244227
0.140243
0.306543
0.139772
0.288903
0.0223703
0.0235546
-0.0551751
0.0202131
-0.0638791
0.0159881
-0.0722357
0.0107702
-0.0794817
0.00467868
-0.0854917
-0.00155594
-0.0902679
-0.0072459
-0.0932054
-0.0112054
-0.093658
-0.0120426
-0.09043
-0.00901554
-0.0816671
-0.0017742
-0.0671478
0.0106136
-0.045978
0.0258531
-0.0186629
0.0431316
0.0130552
0.060717
0.0459316
0.0773929
0.0766599
0.0918737
0.103002
0.103058
0.12418
0.110432
0.141329
0.114616
0.156303
0.11748
0.168605
0.121283
0.172745
0.127126
0.159973
0.13434
0.123992
0.141649
0.0651421
0.148118
-0.00793162
0.153036
-0.079289
0.155677
-0.134348
0.155815
-0.166653
0.153709
-0.180481
0.150294
-0.183105
0.146131
-0.179987
0.140082
-0.175827
0.130975
-0.177221
0.1209
-0.180139
0.114829
-0.165997
0.116319
-0.117746
0.124652
-0.0379916
0.136739
0.0455728
0.148735
0.118161
0.157213
0.168994
0.159765
0.218569
0.156522
0.260077
0.150665
0.282856
0.14557
0.250248
0.143634
0.149651
0.1454
0.0231025
0.149273
-0.108607
0.151719
-0.167122
0.148955
-0.223779
0.142789
-0.237184
0.138129
-0.254269
0.139043
-0.222482
0.142527
-0.0878048
0.144735
-0.00456266
0.143314
0.203581
0.141018
0.246524
0.140295
0.307266
0.140134
0.289064
0.0233845
0.054921
-0.0520768
0.0512936
-0.0602517
0.0467632
-0.0677052
0.0411277
-0.0738463
0.0342717
-0.0786358
0.0260768
-0.082073
0.0169394
-0.084068
0.00779873
-0.0845174
0.000387414
-0.0830186
-0.00259406
-0.0786856
-0.00112704
-0.0686148
0.00625341
-0.0533585
0.0184646
-0.0308741
0.0345044
-0.00298456
0.0520894
0.0283466
0.0696901
0.0590592
0.0856407
0.0870509
0.098682
0.111138
0.108389
0.131622
0.115495
0.149196
0.121718
0.162383
0.128696
0.165767
0.136644
0.152026
0.144409
0.116227
0.150938
0.0586128
0.155736
-0.0127297
0.158486
-0.0820384
0.158792
-0.134655
0.156881
-0.164742
0.153253
-0.176852
0.148715
-0.178567
0.143926
-0.175199
0.137977
-0.169877
0.129287
-0.168531
0.119129
-0.169981
0.112292
-0.159159
0.113103
-0.118557
0.121517
-0.0464059
0.134453
0.0326373
0.147659
0.104956
0.157426
0.159226
0.16129
0.214705
0.159298
0.262069
0.154385
0.287769
0.14947
0.255163
0.146839
0.152282
0.147263
0.0226785
0.149972
-0.111316
0.151947
-0.169097
0.149077
-0.220909
0.142845
-0.230953
0.138008
-0.249432
0.138967
-0.223441
0.142503
-0.0913415
0.144804
-0.0068632
0.143418
0.204967
0.141019
0.248923
0.140466
0.30782
0.140672
0.288858
0.0241824
0.0861059
-0.0485619
0.0820491
-0.0561949
0.0772249
-0.0628811
0.0714902
-0.0681115
0.064763
-0.0719085
0.0568388
-0.0741488
0.0475767
-0.074806
0.0372064
-0.0741471
0.0266433
-0.0724555
0.0173564
-0.0693987
0.0120797
-0.0633382
0.0120775
-0.0533563
0.0183629
-0.0371595
0.0301119
-0.0147336
0.045663
0.0127955
0.0627155
0.0420067
0.0792666
0.0704999
0.0938539
0.0965511
0.105927
0.119549
0.116054
0.139069
0.125557
0.152879
0.135389
0.155936
0.145078
0.142336
0.153237
0.108068
0.159038
0.0528127
0.162353
-0.0160455
0.163064
-0.0827487
0.161165
-0.132756
0.157345
-0.160923
0.152375
-0.171883
0.146911
-0.173103
0.141588
-0.169875
0.135814
-0.164104
0.127802
-0.160519
0.117935
-0.160114
0.11048
-0.151705
0.110388
-0.118465
0.118495
-0.0545131
0.131947
0.0191856
0.14619
0.090712
0.157266
0.14815
0.162591
0.20938
0.162006
0.262654
0.158116
0.291659
0.153401
0.259878
0.1501
0.155584
0.149174
0.0236036
0.150661
-0.112803
0.15214
-0.170576
0.149204
-0.217973
0.142918
-0.224667
0.137844
-0.244358
0.138803
-0.2244
0.142475
-0.0950128
0.144957
-0.00934597
0.143636
0.206288
0.14112
0.251439
0.14076
0.30818
0.14139
0.288227
0.0247366
0.114471
-0.0444144
0.109756
-0.0514798
0.104312
-0.0574371
0.0981744
-0.0619739
0.0914684
-0.0652025
0.0841683
-0.0668487
0.076066
-0.0667037
0.0668607
-0.0649418
0.0564496
-0.0620443
0.0454412
-0.0583903
0.0357051
-0.0536021
0.0292268
-0.046878
0.0282176
-0.0361502
0.0334696
-0.0199856
0.0443506
0.00191442
0.0587327
0.0276246
0.0744707
0.0547619
0.0897792
0.0812425
0.103746
0.105582
0.116512
0.126303
0.128829
0.140562
0.140965
0.143799
0.151938
0.131363
0.160353
0.0996529
0.165586
0.0475798
0.167676
-0.0181353
0.166582
-0.0816554
0.16269
-0.128863
0.157143
-0.155376
0.151016
-0.165755
0.144834
-0.166921
0.139078
-0.16412
0.13349
-0.158515
0.126318
-0.153347
0.117112
-0.150908
0.109314
-0.143907
0.108194
-0.117346
0.115595
-0.0619135
0.12917
0.00561028
0.14423
0.0756518
0.156605
0.135775
0.163522
0.202464
0.164493
0.261683
0.161702
0.294449
0.157203
0.264377
0.153313
0.159474
0.151074
0.0258429
0.151306
-0.113035
0.152256
-0.171526
0.149297
-0.215014
0.142986
-0.218356
0.137618
-0.23899
0.138518
-0.2253
0.142403
-0.0988976
0.145169
-0.0121122
0.14396
0.207496
0.141321
0.254079
0.141181
0.30832
0.142292
0.287116
0.025021
0.137753
-0.0395259
0.132283
-0.0460101
0.126087
-0.0512403
0.119361
-0.0552484
0.112377
-0.0582186
0.10527
-0.0597415
0.0980515
-0.0594852
0.0905467
-0.057437
0.0823606
-0.0538582
0.073161
-0.0491907
0.063341
-0.0437822
0.0541287
-0.0376657
0.0477706
-0.0297921
0.0463379
-0.0185529
0.0509441
-0.00269183
0.0605274
0.0180413
0.0735793
0.0417101
0.0881634
0.0666584
0.10292
0.0908254
0.117394
0.11183
0.13166
0.126296
0.145346
0.130114
0.157122
0.119586
0.165666
0.091109
0.170509
0.0427366
0.171585
-0.0192117
0.168915
-0.0789853
0.16327
-0.123218
0.156217
-0.148323
0.149117
-0.158656
0.14242
-0.160223
0.136352
-0.158052
0.130917
-0.15308
0.124637
-0.147067
0.116401
-0.142672
0.108611
-0.136116
0.106478
-0.115213
0.112833
-0.0682686
0.126094
-0.00765103
0.141699
0.060047
0.155321
0.122152
0.163924
0.193862
0.166572
0.259034
0.164955
0.296067
0.160742
0.268589
0.156325
0.163892
0.152915
0.0292527
0.151869
-0.111988
0.152252
-0.171909
0.149314
-0.212075
0.143028
-0.21207
0.137318
-0.23328
0.138081
-0.226063
0.142245
-0.103061
0.14541
-0.0152775
0.144381
0.208526
0.141627
0.256833
0.141733
0.308214
0.143379
0.28547
0.0250124
0.153816
-0.0340641
0.147737
-0.0399314
0.14095
-0.0444532
0.133806
-0.0481048
0.126619
-0.0510315
0.119559
-0.0526812
0.112773
-0.0526997
0.10634
-0.051004
0.10013
-0.0476482
0.0937447
-0.0428051
0.0867587
-0.0367962
0.0791259
-0.0300328
0.0718167
-0.0224829
0.0666871
-0.0134233
0.0657777
-0.00178246
0.069696
0.014123
0.0784125
0.0329936
0.0905246
0.0545462
0.104513
0.0768373
0.119345
0.0969977
0.134399
0.111242
0.148721
0.115792
0.160767
0.107541
0.169313
0.0825635
0.173859
0.0381905
0.174063
-0.0194155
0.169963
-0.0748857
0.162785
-0.11604
0.15447
-0.140008
0.146585
-0.150771
0.139554
-0.153193
0.133316
-0.151813
0.128
-0.147765
0.12257
-0.141637
0.115518
-0.135619
0.108113
-0.128712
0.105135
-0.112234
0.110206
-0.0733397
0.122709
-0.0201543
0.138539
0.0442174
0.153296
0.107395
0.163657
0.183501
0.168113
0.254577
0.16774
0.296441
0.16387
0.272459
0.159078
0.168684
0.154584
0.0337465
0.152302
-0.109707
0.152077
-0.171684
0.149203
-0.209201
0.143018
-0.205885
0.136939
-0.227201
0.137472
-0.226596
0.141969
-0.107558
0.145643
-0.0189517
0.144889
0.20928
0.142039
0.259683
0.142418
0.307834
0.144652
0.283237
0.0246833
0.161548
-0.0285358
0.155268
-0.0336515
0.14831
-0.037495
0.141162
-0.0409569
0.134082
-0.0439509
0.127226
-0.0458252
0.120815
-0.0462888
0.115072
-0.0452608
0.110096
-0.0426724
0.105733
-0.038442
0.101608
-0.0326717
0.0972665
-0.0256911
0.0925703
-0.0177868
0.0880409
-0.00889384
0.0847689
0.00148951
0.0848418
0.0140501
0.0890921
0.0287434
0.0975131
0.0461252
0.109156
0.0651944
0.122833
0.083321
0.137393
0.0966817
0.15141
0.101775
0.163203
0.0957471
0.171603
0.0741635
0.175817
0.0339766
0.175157
-0.0187555
0.169671
-0.0694001
0.161147
-0.107515
0.151821
-0.130682
0.143333
-0.142283
0.136126
-0.145985
0.129874
-0.145561
0.124665
-0.142556
0.119973
-0.136945
0.114214
-0.12986
0.107543
-0.122041
0.103977
-0.108669
0.10767
-0.0770322
0.11905
-0.0315346
0.134733
0.0285341
0.150451
0.0916779
0.162558
0.171393
0.168884
0.248252
0.169852
0.295472
0.166445
0.275865
0.161443
0.173687
0.156045
0.0391439
0.15258
-0.106241
0.151697
-0.170801
0.148923
-0.206427
0.142933
-0.199895
0.13649
-0.220758
0.136686
-0.226792
0.141538
-0.112411
0.145835
-0.0232481
0.145471
0.209644
0.14256
0.262594
0.143241
0.307153
0.146111
0.280367
0.0240091
0.16167
-0.0235292
0.155645
-0.0276258
0.14899
-0.0308401
0.142254
-0.0342206
0.135566
-0.0372634
0.129108
-0.0393667
0.123176
-0.0403574
0.118068
-0.0401524
0.113945
-0.0385493
0.110837
-0.0353345
0.108596
-0.03043
0.106869
-0.0239647
0.105263
-0.0161804
0.103697
-0.00732751
0.102216
0.00297027
0.101545
0.0147213
0.103358
0.02693
0.108504
0.0409793
0.117051
0.0566475
0.128314
0.072058
0.141102
0.0838932
0.153829
0.0890476
0.164855
0.0847216
0.17295
0.0660686
0.176684
0.0302427
0.175104
-0.0171756
0.168312
-0.0626085
0.158671
-0.0978746
0.148619
-0.120629
0.139715
-0.133379
0.132418
-0.138689
0.126256
-0.139399
0.121125
-0.137425
0.116962
-0.132783
0.112447
-0.125345
0.106766
-0.11636
0.102894
-0.104796
0.105192
-0.07933
0.115153
-0.0414957
0.13027
0.0134169
0.146709
0.0752386
0.16062
0.157482
0.168961
0.239911
0.171299
0.293135
0.168383
0.278781
0.1634
0.17867
0.157288
0.0452557
0.152754
-0.101707
0.151142
-0.169189
0.148487
-0.203773
0.142771
-0.194178
0.136005
-0.213992
0.135763
-0.22655
0.140945
-0.117592
0.145938
-0.0282418
0.146112
0.20947
0.143192
0.265514
0.144206
0.306139
0.147755
0.276818
0.0229624
0.156713
-0.019556
0.15127
-0.0221829
0.14558
-0.0251493
0.139749
-0.0283897
0.13389
-0.0314052
0.128286
-0.0337626
0.123162
-0.0352327
0.118678
-0.0356686
0.115019
-0.0348905
0.112394
-0.0327096
0.110934
-0.0289702
0.110557
-0.023587
0.110968
-0.0165922
0.111714
-0.00807299
0.112671
0.00201289
0.114281
0.0131114
0.116614
0.0245976
0.120691
0.0369017
0.127163
0.0501758
0.135987
0.0632334
0.14646
0.0734211
0.157331
0.078176
0.167168
0.0748847
0.174417
0.0588197
0.177303
0.0273563
0.174056
-0.0139283
0.165893
-0.0544449
0.155486
-0.0874681
0.145174
-0.110318
0.136159
-0.124364
0.128859
-0.131389
0.12283
-0.133369
0.117735
-0.13233
0.113828
-0.128876
0.11034
-0.121857
0.105777
-0.111796
0.10187
-0.10089
0.102886
-0.0803461
0.111212
-0.0498211
0.125401
-0.000772077
0.142009
0.0586306
0.157337
0.142154
0.167742
0.229506
0.171688
0.289189
0.16949
0.280979
0.164722
0.183438
0.158286
0.0516911
0.152782
-0.0962023
0.150445
-0.166852
0.147923
-0.201251
0.142524
-0.188779
0.135504
-0.206972
0.134769
-0.225815
0.140241
-0.123064
0.145938
-0.0339387
0.146796
0.208612
0.143927
0.268383
0.145314
0.304752
0.149587
0.272546
0.0215143
0.194933
-0.0153942
-0.199095
0.191613
-0.0188626
0.188064
-0.0216005
0.184039
-0.0243645
0.179554
-0.0269205
0.174735
-0.0289433
0.169706
-0.0302035
0.164561
-0.0305239
0.159412
-0.0297417
0.154397
-0.0276945
0.149652
-0.0242248
0.145277
-0.0192126
0.141329
-0.012644
0.137882
-0.00462624
0.134815
0.00508023
0.132169
0.0157568
0.129997
0.0267696
0.128941
0.0379578
0.129977
0.0491399
0.134033
0.0591776
0.141421
0.0660333
0.151857
0.06774
0.164918
0.061823
0.17917
0.0445683
0.19101
0.0155163
0.197577
-0.0204952
0.198034
-0.0549021
0.193747
-0.0831808
0.186596
-0.103167
0.178126
-0.115895
0.169533
-0.122795
0.161234
-0.125071
0.153171
-0.124268
0.145759
-0.121463
0.138891
-0.114989
0.131041
-0.103946
0.122462
-0.0923107
0.116648
-0.0745325
0.116623
-0.0497958
0.122017
-0.00616609
0.129025
0.0516219
0.135046
0.136133
0.139155
0.225397
0.142925
0.285418
0.148335
0.275569
0.155394
0.176379
0.159945
0.047141
0.160904
-0.0971618
0.159547
-0.165495
0.155488
-0.197192
0.148329
-0.181621
0.139869
-0.198512
0.134832
-0.220777
0.134958
-0.12319
0.135179
-0.0341601
0.132903
0.210888
0.12992
0.271366
0.131912
0.302759
0.13745
0.267007
0.0203888
0.204065
-0.0122707
-0.207188
0.200749
-0.015547
0.197403
-0.0182541
0.193684
-0.0206461
0.18956
-0.0227963
0.185139
-0.0245225
0.180534
-0.0255985
0.175848
-0.0258377
0.171196
-0.0250898
0.166714
-0.0232125
0.162555
-0.0200658
0.158885
-0.0155418
0.155834
-0.00959345
0.153436
-0.00222811
0.151861
0.00665532
0.15107
0.0165479
0.151026
0.0268134
0.151995
0.0369884
0.154593
0.0465425
0.159489
0.0542814
0.166944
0.0585778
0.176814
0.0578705
0.188489
0.0501481
0.200087
0.0329705
0.208803
0.00679964
0.212335
-0.024027
0.210675
-0.0532417
0.205039
-0.0775446
0.1971
-0.0952277
0.188191
-0.106986
0.179328
-0.113932
0.170928
-0.116671
0.162781
-0.11612
0.155128
-0.11381
0.148286
-0.108147
0.140929
-0.0965899
0.132567
-0.0839481
0.126055
-0.0680209
0.124967
-0.0487074
0.129577
-0.0107762
0.136799
0.0444
0.143585
0.129347
0.148687
0.220295
0.15363
0.280475
0.160247
0.268952
0.168175
0.168451
0.173166
0.0421498
0.173506
-0.0975014
0.171213
-0.163203
0.166375
-0.192354
0.158686
-0.173931
0.149452
-0.189278
0.143684
-0.215009
0.143546
-0.123052
0.144078
-0.0346918
0.141957
0.213009
0.138798
0.274526
0.141216
0.300341
0.147533
0.26069
0.0191519
0.213203
-0.00981201
-0.215661
0.210216
-0.0125603
0.207013
-0.0150506
0.203557
-0.0171901
0.199782
-0.0190221
0.195737
-0.0204771
0.191522
-0.0213841
0.187251