/*--------------------------------*- C++ -*----------------------------------*\
| =========                 |                                                 |
| \\      /  F ield         | OpenFOAM: The Open Source CFD Toolbox           |
|  \\    /   O peration     | Version:  2512                                  |
|   \\  /    A nd           | Website:  www.openfoam.com                      |
|    \\/     M anipulation  |                                                 |
\*---------------------------------------------------------------------------*/
FoamFile
{
    version     2.0;
    format      ascii;
    arch        "LSB;label=32;scalar=64";
    class       surfaceScalarField;
    location    "138";
    object      phi;
}
// * * * * * * * * * * * * * * * * * * * * * * * * * * * * * * * * * * * * * //

dimensions      [0 3 -1 0 0 0 0];

oriented        oriented;

internalField   nonuniform List<scalar> 
26232
(
8.97895e-05
0.000814934
-0.000904723
0.000454189
0.00122746
-0.00159185
0.00122863
0.000622065
-0.0013965
0.00256814
-0.000908905
-0.000430611
0.00463667
-0.00331288
0.00124436
0.00759596
-0.0065582
0.00359891
0.0115921
-0.0106176
0.00662151
0.0167394
-0.0154508
0.0103035
0.0231037
-0.0209889
0.0146246
0.0306878
-0.0271255
0.0195414
0.0394225
-0.0337158
0.0249811
0.0491664
-0.0405847
0.0308408
0.0597148
-0.0475405
0.0369921
0.0708172
-0.0543925
0.0432901
0.0822004
-0.0609686
0.0495854
0.0935933
-0.0671296
0.0557367
0.104752
-0.0727795
0.0616212
0.115476
-0.0778694
0.0671447
0.125628
-0.0823952
0.0722439
0.135131
-0.0863992
0.0768956
0.143969
-0.089936
0.0810981
0.152194
-0.0931372
0.0849121
0.159825
-0.0959912
0.0883606
-0.0988361
0.0918236
0.166837
0.000156305
0.000658629
0.000749265
0.000634495
0.0019352
-0.000563866
0.00388392
-0.00285763
0.00676716
-0.00619611
0.0107414
-0.0105324
0.0159259
-0.0158021
0.0223796
-0.0219045
0.0300812
-0.0286905
0.0389187
-0.035963
0.0486922
-0.0434893
0.0591302
-0.0510228
0.0699183
-0.0583286
0.0807331
-0.0652072
0.0912767
-0.0715122
0.101306
-0.0771594
0.110655
-0.0821282
0.11924
-0.0864544
0.127063
-0.0902181
0.134193
-0.0935295
0.140762
-0.0965042
0.146914
-0.0992894
0.152825
-0.101902
-0.104714
0.158703
0.000225475
0.000433154
0.00106111
-0.000201139
0.00268803
-0.00219078
0.00528876
-0.00545836
0.00903116
-0.00993851
0.0140417
-0.015543
0.0203752
-0.0221356
0.0279884
-0.0295177
0.0367273
-0.0374295
0.0463343
-0.04557
0.0564744
-0.0536294
0.0667768
-0.0613252
0.0768819
-0.0684338
0.0864848
-0.0748102
0.0953672
-0.0803946
0.103414
-0.0852063
0.110614
-0.0893278
0.117043
-0.0928834
0.122841
-0.0960165
0.128182
-0.0988703
0.133247
-0.101569
0.138186
-0.104229
0.143156
-0.106872
-0.109747
0.148188
0.00030664
0.000126514
0.00141411
-0.00130861
0.00352333
-0.0043
0.00681761
-0.00875265
0.0114364
-0.0145573
0.0174381
-0.0215447
0.0247658
-0.0294633
0.0332308
-0.0379827
0.0425235
-0.0467221
0.052251
-0.0552975
0.0619943
-0.0633727
0.0713687
-0.0706995
0.0800741
-0.0771392
0.0879272
-0.0826632
0.0948689
-0.0873363
0.100951
-0.0912885
0.106307
-0.0946841
0.111117
-0.0976927
0.115568
-0.100468
0.119831
-0.103134
0.124043
-0.105782
0.128297
-0.108483
0.132666
-0.111241
-0.114228
0.137147
0.000405933
-0.000279419
0.00182185
-0.00272453
0.00445328
-0.00693142
0.00846012
-0.0127595
0.0139162
-0.0200134
0.0207653
-0.0283938
0.0287972
-0.0374953
0.03766
-0.0468454
0.0469089
-0.055971
0.0560802
-0.0644688
0.0647663
-0.0720588
0.0726733
-0.0786065
0.0796497
-0.0841156
0.085683
-0.0886965
0.0908724
-0.0925257
0.0953868
-0.0958028
0.0994209
-0.0987183
0.10316
-0.101432
0.106757
-0.104065
0.110324
-0.106701
0.113936
-0.109394
0.117632
-0.112178
0.121446
-0.115055
-0.118133
0.125352
0.000524843
-0.000804263
0.00228234
-0.00448202
0.005457
-0.0101061
0.0101496
-0.0174521
0.0163232
-0.026187
0.0237658
-0.0358365
0.0320976
-0.045827
0.0408283
-0.0555762
0.0494489
-0.0645916
0.0575233
-0.0725432
0.0647549
-0.0792904
0.0710119
-0.0848635
0.0763136
-0.0894173
0.0807897
-0.0931727
0.0846286
-0.0963645
0.0880295
-0.0992038
0.0911694
-0.101858
0.0941861
-0.104449
0.0971761
-0.107055
0.100201
-0.109725
0.103296
-0.112488
0.106477
-0.11536
0.109763
-0.118341
-0.12149
0.11312
0.000660276
-0.00146454
0.00277792
-0.00659966
0.0064821
-0.0138103
0.0117716
-0.0227415
0.0184569
-0.0328723
0.0261512
-0.0435308
0.0343284
-0.0540042
0.0424303
-0.0636782
0.0499805
-0.0721417
0.0566622
-0.079225
0.0623454
-0.0849736
0.0670641
-0.0895822
0.0709645
-0.0933177
0.0742451
-0.0964533
0.0771063
-0.0992257
0.0797185
-0.101816
0.0822097
-0.104349
0.0846667
-0.106906
0.0871436
-0.109531
0.0896714
-0.112253
0.0922664
-0.115083
0.0949348
-0.118029
0.0976822
-0.121088
-0.124288
0.100481
0.000805602
-0.00227014
0.00327908
-0.00907314
0.00745471
-0.0179859
0.0131874
-0.0284743
0.0201106
-0.0397955
0.0276781
-0.0510982
0.0352811
-0.0616072
0.0423858
-0.0707829
0.0486327
-0.0783885
0.0538704
-0.0844627
0.0581297
-0.0892329
0.0615619
-0.0930144
0.0643711
-0.0961268
0.0667592
-0.0988415
0.0688946
-0.101361
0.0709007
-0.103822
0.0728593
-0.106308
0.0748205
-0.108867
0.0768127
-0.111524
0.0788513
-0.114291
0.0809431
-0.117175
0.0830902
-0.120176
0.0852938
-0.123292
-0.126527
0.087533
0.000951848
-0.00322199
0.00374945
-0.0118707
0.00829279
-0.0225292
0.0142626
-0.0344441
0.0211184
-0.0466513
0.0282063
-0.0581861
0.0349193
-0.0683202
0.0408277
-0.0766913
0.0457319
-0.0832927
0.0496387
-0.0883695
0.0526932
-0.0922874
0.0551018
-0.095423
0.0570704
-0.0980954
0.0587697
-0.100541
0.0603235
-0.102915
0.0618125
-0.105311
0.0632852
-0.107781
0.0647687
-0.11035
0.066278
-0.113033
0.0678206
-0.115834
0.0693995
-0.118754
0.0710153
-0.121792
0.0726667
-0.124943
-0.128201
0.0743406
0.00108854
-0.00431052
0.00415061
-0.0149328
0.00891938
-0.027298
0.0148914
-0.0404161
0.0213869
-0.0531468
0.0277178
-0.0645169
0.0333562
-0.0739586
0.0380218
-0.0813569
0.0416719
-0.0869428
0.0444309
-0.0911285
0.0465028
-0.0943593
0.0480992
-0.0970194
0.0493981
-0.0993943
0.050528
-0.101671
0.0515724
-0.103959
0.0525805
-0.106319
0.0535799
-0.10878
0.0545853
-0.111356
0.0556049
-0.114052
0.0566425
-0.116872
0.0576995
-0.119811
0.0587756
-0.122868
0.0598684
-0.126036
-0.129304
0.0609714
0.00120521
-0.00551574
0.00444809
-0.0181757
0.00927507
-0.032125
0.0150136
-0.0461547
0.0209033
-0.0590366
0.0262966
-0.0699102
0.030796
-0.078458
0.0342764
-0.0848372
0.0368199
-0.0894863
0.038619
-0.0929276
0.0398908
-0.0956311
0.0408241
-0.0979528
0.0415576
-0.100128
0.0421812
-0.102294
0.0427479
-0.104526
0.0432865
-0.106858
0.0438126
-0.109306
0.0443346
-0.111878
0.0448573
-0.114575
0.0453831
-0.117397
0.0459123
-0.12034
0.0464439
-0.123399
0.0469746
-0.126567
-0.129831
0.0475016
0.00129529
-0.00681103
0.00461861
-0.021499
0.0093272
-0.0368336
0.0146196
-0.051447
0.0197246
-0.0641416
0.024094
-0.0742796
0.0274787
-0.0818427
0.0298866
-0.0872451
0.0314812
-0.091081
0.0324804
-0.0939268
0.0330859
-0.0962366
0.0334513
-0.0983181
0.0336778
-0.100354
0.0338249
-0.102441
0.0339249
-0.104626
0.0339947
-0.106928
0.034043
-0.109354
0.0340753
-0.11191
0.0340947
-0.114595
0.0341031
-0.117406
0.0341008
-0.120338
0.0340867
-0.123385
0.0340572
-0.126537
0.0340121
-0.129786
-0.000213682
-0.00224733
0.00246101
-0.000783481
-0.0057516
0.0063214
-0.00166759
-0.00851636
0.00940047
-0.00282462
-0.0106367
0.0117938
-0.00421083
-0.0122306
0.0136169
-0.00578273
-0.0134324
0.0150043
-0.0075003
-0.0143708
0.0160884
-0.00932912
-0.0151511
0.0169799
-0.0112408
-0.015845
0.0177567
-0.0132115
-0.0164891
0.0184599
-0.0152204
-0.0170884
0.0190972
-0.0172461
-0.0176227
0.0196484
-0.0192649
-0.0180534
0.0200722
-0.021248
-0.0183286
0.0203118
-0.0231607
-0.0183871
0.0202998
-0.0249609
-0.0181602
0.0199604
-0.0265991
-0.0175746
0.0192128
-0.0280188
-0.0165532
0.0179729
-0.0291582
-0.015018
0.0161574
-0.0299529
-0.0128944
0.0136891
-0.0303403
-0.0101133
0.0105007
-0.0302675
-0.00660883
0.006536
-0.029708
-0.00228966
0.00173014
0.00264098
-0.0287214
-0.00362757
-0.000311589
-0.00193574
-0.00109443
-0.00496876
-0.00225645
-0.00735435
-0.00372338
-0.00916979
-0.00543222
-0.0105218
-0.0073308
-0.0115338
-0.00937797
-0.0123237
-0.0115427
-0.0129864
-0.013802
-0.0135858
-0.016138
-0.0141531
-0.0185349
-0.0146914
-0.0209758
-0.0151819
-0.0234397
-0.0155895
-0.0259
-0.0158683
-0.0283224
-0.0159647
-0.0306639
-0.0158187
-0.0328724
-0.0153661
-0.0348868
-0.0145387
-0.0366389
-0.0132659
-0.0380585
-0.0114749
-0.0390778
-0.00909395
-0.0396355
-0.00605114
-0.0396853
-0.00223991
0.00221648
-0.0392608
-0.000387016
-0.00154873
-0.00132863
-0.00402715
-0.00268955
-0.00599342
-0.00436716
-0.00749218
-0.00628147
-0.00860749
-0.00837184
-0.00944345
-0.010594
-0.0101015
-0.0129168
-0.0106637
-0.0153175
-0.011185
-0.0177786
-0.011692
-0.0202834
-0.0121867
-0.022813
-0.0126523
-0.0253439
-0.0130585
-0.0278465
-0.0133657
-0.0302833
-0.0135279
-0.0326079
-0.0134941
-0.0347643
-0.0132097
-0.0366864
-0.0126166
-0.0382991
-0.0116532
-0.0395215
-0.0102524
-0.0402748
-0.00834061
-0.0404829
-0.00584304
-0.0400641
-0.00265869
0.00121996
-0.0390676
-0.000433873
-0.00111485
-0.00146999
-0.00299103
-0.0029413
-0.00452211
-0.00472329
-0.00571019
-0.00672213
-0.00660866
-0.00886888
-0.0072967
-0.0111143
-0.00785609
-0.0134231
-0.00835489
-0.0157688
-0.00883926
-0.0181287
-0.00933202
-0.02048
-0.00983543
-0.0227965
-0.0103358
-0.025047
-0.010808
-0.0271938
-0.011219
-0.0291915
-0.0115302
-0.0309863
-0.0116993
-0.0325148
-0.0116812
-0.0337028
-0.0114286
-0.0344642
-0.0108918
-0.0347008
-0.0100158
-0.0343075
-0.00873391
-0.0331892
-0.00696135
-0.0312201
-0.00462781
-0.00152724
-0.0284729
-0.000449431
-0.000665422
-0.00151152
-0.00192894
-0.00300132
-0.00303232
-0.00478019
-0.00393131
-0.00674384
-0.00464501
-0.00881542
-0.00522513
-0.0109389
-0.00573264
-0.0130722
-0.00622151
-0.0151815
-0.00673002
-0.0172352
-0.00727826
-0.0192009
-0.00786979
-0.0210418
-0.00849489
-0.0227158
-0.00913398
-0.0241743
-0.00976048
-0.0253617
-0.0103428
-0.026215
-0.010846
-0.0266632
-0.0112331
-0.0266258
-0.011466
-0.026011
-0.0115065
-0.024712
-0.0113149
-0.0226015
-0.0108444
-0.0195384
-0.0100245
-0.0154102
-0.008756
-0.0068295
-0.0101079
-0.000433728
-0.000231694
-0.00145371
-0.000908953
-0.00287118
-0.00161485
-0.00454094
-0.00226155
-0.00635138
-0.00283457
-0.00821789
-0.00335861
-0.010076
-0.00387455
-0.0118742
-0.00442325
-0.0135681
-0.00503616
-0.0151146
-0.00573171
-0.016469
-0.00651547
-0.0175818
-0.00738202
-0.0183986
-0.00831726
-0.0188587
-0.00930038
-0.0188959
-0.0103055
-0.0184386
-0.0113033
-0.0174095
-0.0122622
-0.015725
-0.0131505
-0.0132932
-0.0139382
-0.0100097
-0.0145984
-0.00574591
-0.0151082
-0.00033474
-0.0154357
0.00639678
-0.0154875
-0.015239
0.0148063
-0.000389465
0.00015777
-0.00130381
5.39061e-06
-0.00256277
-0.000355889
-0.00402053
-0.00080379
-0.00556045
-0.00129466
-0.00708959
-0.00182947
-0.00853264
-0.0024315
-0.00982549
-0.0031304
-0.0109094
-0.00395225
-0.0117264
-0.0049147
-0.0122163
-0.00602562
-0.0123148
-0.00728353
-0.0119534
-0.00867865
-0.0110597
-0.0101941
-0.00955828
-0.0118069
-0.00737178
-0.0134898
-0.00442167
-0.0152124
-0.000628767
-0.0169434
0.00408636
-0.0186534
0.00980578
-0.0203178
0.0166158
-0.0219181
0.0246447
-0.0234647
0.0339468
-0.0247895
-0.0265923
0.0453
-0.000321655
0.000479426
-0.00107627
0.00076
-0.00209898
0.000666827
-0.00324802
0.000345246
-0.00440243
-0.000140245
-0.00545954
-0.000772354
-0.00633018
-0.00156086
-0.00693371
-0.00252687
-0.00719326
-0.0036927
-0.00703224
-0.00507572
-0.00637245
-0.0066854
-0.00513373
-0.00852225
-0.00323481
-0.0105776
-0.000595049
-0.0128338
0.00286351
-0.0152655
0.00721418
-0.0178405
0.012524
-0.0205222
0.0188529
-0.0232723
0.0262533
-0.0260538
0.0347713
-0.0288358
0.0444344
-0.0315812
0.0553274
-0.0343577
0.067302
-0.0367642
-0.0403989
0.0811086
-0.000238133
0.000717559
-0.000791189
0.00131306
-0.00151401
0.00138965
-0.0022697
0.00110093
-0.00293238
0.000522436
-0.00338749
-0.00031724
-0.00352986
-0.00141849
-0.00325951
-0.00279721
-0.00247949
-0.00447272
-0.00109426
-0.00646095
0.000990046
-0.00876971
0.00386387
-0.0113961
0.00761129
-0.014325
0.0123067
-0.0175292
0.0180113
-0.0209702
0.0247712
-0.0246004
0.0326154
-0.0283664
0.0415561
-0.032213
0.0515893
-0.036087
0.0626984
-0.0399449
0.0748451
-0.043728
0.0880227
-0.0475353
0.102045
-0.0507863
-0.055593
0.117239
-0.000147913
0.000865472
-0.000474678
0.00163982
-0.000852295
0.00176727
-0.00114723
0.00139586
-0.00122787
0.000603077
-0.000966904
-0.000578201
-0.000241559
-0.00214384
0.0010666
-0.00410538
0.00307161
-0.00647773
0.00588123
-0.00927056
0.00959345
-0.0124819
0.0142918
-0.0160944
0.02004
-0.0200733
0.0268778
-0.024367
0.0348173
-0.0289097
0.0438424
-0.0336254
0.0539094
-0.0384334
0.064951
-0.0432546
0.0768808
-0.0480168
0.0895968
-0.0526608
0.102997
-0.0571278
0.116946
-0.0614843
0.131414
-0.0652544
-0.0702776
0.146098
-5.98224e-05
0.000925295
-0.000151868
0.00173187
-0.000158275
0.00177368
5.44176e-05
0.00118317
0.000625587
3.19075e-05
0.00169529
-0.0016479
0.00340122
-0.00384977
0.00587492
-0.00657908
0.00923719
-0.00984
0.0135916
-0.013625
0.0190172
-0.0179075
0.0255609
-0.0226381
0.0332315
-0.0277439
0.0419968
-0.0331323
0.0517837
-0.0386966
0.0624825
-0.0443242
0.0739544
-0.0499053
0.086041
-0.0553412
0.0985748
-0.0605505
0.111389
-0.0654753
0.124339
-0.0700775
0.137235
-0.0743805
0.150171
-0.0781906
-0.0824617
0.162355
2.05717e-05
0.000160583
0.000537755
0.00129031
0.00256658
0.00451758
0.00728932
0.0110138
0.0157984
0.0217148
0.0287884
0.0369911
0.0462393
0.0563971
0.067286
0.0786985
0.0904143
0.102218
0.113911
0.125331
0.136352
0.146884
0.157054
0.166415
-0.025175
0.0107508
-0.0142972
-0.021164
0.0230568
-0.0270679
-0.0166514
0.0369425
-0.0414551
-0.0117705
0.051912
-0.0567929
-0.00675912
0.0673469
-0.0723583
-0.0018473
0.0825441
-0.087456
0.00281856
0.0967303
-0.101396
0.00720706
0.109192
-0.113581
0.0119586
0.118605
-0.123356
0.017799
0.124068
-0.129908
0.0256689
0.123846
-0.131716
0.0361723
0.116133
-0.126636
0.0491519
0.0996263
-0.112606
0.0636942
0.0741176
-0.0886599
0.0786278
0.0404669
-0.0554005
0.0930001
4.23207e-05
-0.0144146
0.106543
-0.0445954
0.031053
0.118545
-0.0886772
0.0766748
0.128191
-0.125523
0.115878
0.134734
-0.15048
0.143937
0.138023
-0.163466
0.160177
0.138692
-0.167676
0.167006
0.137436
-0.166734
0.16799
0.133972
-0.164827
0.16829
0.127682
-0.167137
0.173428
0.119644
-0.174145
0.182183
0.113279
-0.175293
0.181658
0.112085
-0.152788
0.153982
0.116963
-0.0979463
0.093068
0.126205
-0.0201511
0.0109086
0.136751
0.059699
-0.070245
0.145977
0.124591
-0.133816
0.152658
0.166961
-0.173642
0.156576
0.18852
-0.192438
0.157032
0.200015
-0.200471
0.153148
0.214257
-0.210372
0.145883
0.234063
-0.226798
0.138585
0.235221
-0.227923
0.13491
0.195834
-0.192159
0.13613
0.105953
-0.107174
0.141331
-0.00270432
-0.00249597
0.148089
-0.103654
0.0968957
0.153848
-0.171691
0.165933
0.155467
-0.208343
0.206724
0.151325
-0.236299
0.240441
0.143378
-0.246437
0.254384
0.136859
-0.247739
0.254259
0.135697
-0.17379
0.174952
0.140517
-0.0811873
0.0763665
0.146827
0.0444975
-0.0508071
0.149579
0.14566
-0.148412
0.147095
0.216029
-0.213544
0.142857
0.300696
-0.296458
0.141063
0.250559
-0.248764
0.142869
0.229294
-0.231101
0.144647
0.0618104
-0.0635881
0.144485
-0.0771872
0.0773493
0.142971
-0.16911
0.170624
0.141022
-0.366188
0.368137
-0.188566
0.190317
-0.0358147
0.00730478
-0.0315445
0.0187866
-0.0264685
0.0318665
-0.0206433
0.0460868
-0.01422
0.0609236
-0.00732947
0.0756536
-0.000196247
0.0895971
0.00793501
0.101061
0.0168573
0.109683
0.0271332
0.113792
0.0391576
0.111822
0.0528849
0.102405
0.067687
0.0848242
0.082543
0.0592616
0.0965179
0.026492
0.109108
-0.012548
0.120205
-0.0556925
0.129349
-0.0978205
0.135914
-0.132088
0.139508
-0.154075
0.140254
-0.164211
0.138859
-0.16628
0.136126
-0.164001
0.131845
-0.160545
0.124997
-0.160289
0.116006
-0.165155
0.10816
-0.167447
0.105691
-0.150319
0.110291
-0.102547
0.120297
-0.0301575
0.132311
0.0476857
0.143335
0.113567
0.151888
0.158408
0.157425
0.182983
0.159079
0.198361
0.156208
0.217127
0.149967
0.240303
0.143473
0.241716
0.139918
0.199389
0.14042
0.105451
0.144266
-0.00654951
0.149402
-0.108791
0.153861
-0.17615
0.154745
-0.209227
0.150273
-0.231827
0.142075
-0.238239
0.135473
-0.241137
0.134588
-0.172904
0.139851
-0.0864508
0.146585
0.0377634
0.149536
0.14271
0.147307
0.218257
0.143126
0.304877
0.141322
0.252363
0.143328
0.227287
0.14532
0.0598182
0.14528
-0.0771464
0.143669
-0.167499
0.141645
-0.364165
-0.186809
-0.0357822
0.00401931
-0.0314406
0.0144451
-0.0260354
0.0264613
-0.0194363
0.0394878
-0.0116909
0.0531782
-0.00321441
0.0671771
0.00692586
0.0794568
0.0178958
0.0900908
0.029968
0.0976103
0.0432404
0.10052
0.0576313
0.0974309
0.0727213
0.0873152
0.0877293
0.0698162
0.101707
0.045284
0.114003
0.0141959
0.124417
-0.0229622
0.132943
-0.0642182
0.13921
-0.104088
0.142757
-0.135635
0.143544
-0.154862
0.141999
-0.162666
0.138854
-0.163136
0.134899
-0.160046
0.130057
-0.155704
0.123077
-0.153309
0.113608
-0.155686
0.104474
-0.158313
0.100474
-0.146319
0.104287
-0.10636
0.114592
-0.0404622
0.12775
0.0345273
0.140433
0.100884
0.150829
0.148012
0.158023
0.175789
0.16103
0.195354
0.159419
0.218738
0.154396
0.245326
0.148723
0.247389
0.14518
0.202933
0.144833
0.105797
0.147249
-0.00896558
0.150708
-0.112249
0.153832
-0.179275
0.154042
-0.209436
0.149379
-0.227164
0.141059
-0.22992
0.13438
-0.234459
0.133683
-0.172207
0.139278
-0.0920452
0.146408
0.0306335
0.149597
0.139521
0.147661
0.220192
0.143518
0.30902
0.14167
0.254212
0.143897
0.22506
0.14614
0.057575
0.146224
-0.0772301
0.144506
-0.165781
0.142399
-0.362058
-0.185058
-0.0252319
0.000778359
-0.0208722
0.0100853
-0.0153816
0.0209707
-0.00855987
0.032666
-0.000196795
0.0448151
0.0104548
0.0565256
0.0220284
0.0678832
0.0347235
0.0773957
0.0484937
0.0838402
0.0631311
0.0858823
0.0782418
0.0823202
0.0932234
0.0723337
0.107303
0.0557366
0.119723
0.0328637
0.130053
0.0038662
0.138295
-0.0312047
0.144397
-0.0703201
0.147957
-0.107647
0.148665
-0.136343
0.146836
-0.153033
0.143248
-0.159078
0.138648
-0.158536
0.133687
-0.155085
0.128433
-0.15045
0.12167
-0.146547
0.112324
-0.146339
0.102321
-0.14831
0.0966203
-0.140618
0.0990826
-0.108822
0.109089
-0.0504689
0.123045
0.0205714
0.137209
0.0867205
0.149382
0.135839
0.158264
0.166907
0.16278
0.190838
0.162656
0.218861
0.159011
0.248971
0.154167
0.252233
0.150544
0.206556
0.149245
0.107096
0.150209
-0.00992882
0.151984
-0.114025
0.153753
-0.181044
0.153324
-0.209006
0.148583
-0.222424
0.140261
-0.221597
0.133511
-0.22771
0.13291
-0.171606
0.138744
-0.0978793
0.146259
0.0231187
0.14975
0.136029
0.14816
0.221783
0.144053
0.313127
0.14213
0.256134
0.144582
0.222608
0.147101
0.0550565
0.147313
-0.0774425
0.14548
-0.163948
0.143277
-0.359855
-0.183325
-0.00695417
-0.00237542
-0.00291317
0.00604433
0.00302225
0.0150353
0.0106259
0.0250624
0.019855
0.0355859
0.0302737
0.0461069
0.042133
0.0560239
0.0552226
0.0643061
0.0692773
0.0697855
0.0838836
0.071276
0.0984805
0.0677232
0.112405
0.058409
0.12497
0.0431721
0.135618
0.0222157
0.144165
-0.00468102
0.150502
-0.0375423
0.154386
-0.0742035
0.15536
-0.108622
0.153385
-0.134368
0.149186
-0.148834
0.143842
-0.153734
0.13811
-0.152803
0.132414
-0.149388
0.126874
-0.14491
0.120526
-0.140199
0.111837
-0.13765
0.101589
-0.138063
0.0943128
-0.133341
0.0948862
-0.109396
0.103938
-0.0595208
0.118221
0.00628879
0.133598
0.071343
0.14742
0.122017
0.157989
0.156338
0.164157
0.18467
0.165727
0.217292
0.163607
0.251091
0.159627
0.256213
0.155854
0.210329
0.153531
0.109419
0.153066
-0.00946432
0.153191
-0.11415
0.153599
-0.181452
0.152554
-0.207961
0.147832
-0.217701
0.139613
-0.213378
0.132794
-0.220891
0.132199
-0.171011
0.138192
-0.103872
0.146097
0.0152134
0.149972
0.132154
0.1488
0.222955
0.144747
0.317181
0.142723
0.258158
0.145385
0.219945
0.148193
0.0522492
0.148538
-0.0777881
0.146584
-0.161994
0.14427
-0.357541
-0.18162
0.0174282
-0.00499731
0.0215977
0.00187477
0.0268668
0.00976626
0.033734
0.0181952
0.0422674
0.0270526
0.0522746
0.0360996
0.0636591
0.0446394
0.0762104
0.0517548
0.0895697
0.0564261
0.103232
0.0576142
0.116582
0.0543729
0.128982
0.0460085
0.139888
0.0322669
0.148882
0.0132212
0.15592
-0.0117187
0.160647
-0.0422691
0.162517
-0.0760742
0.161086
-0.10719
0.156695
-0.129977
0.150474
-0.142612
0.143703
-0.146963
0.137133
-0.146234
0.130959
-0.143214
0.125234
-0.139185
0.119359
-0.134324
0.111722
-0.130012
0.101953
-0.128294
0.0935357
-0.124924
0.0919337
-0.107794
0.0993526
-0.0669398
0.113351
-0.00771002
0.129551
0.0551434
0.144803
0.106765
0.157015
0.144126
0.164945
0.176739
0.168385
0.213852
0.16794
0.251536
0.164889
0.259264
0.160943
0.214275
0.157575
0.112788
0.155733
-0.00762273
0.154281
-0.112698
0.153337
-0.180508
0.151689
-0.206313
0.147064
-0.213076
0.139042
-0.205357
0.132153
-0.214001
0.131478
-0.170337
0.137553
-0.109947
0.145869
0.00689746
0.15023
0.127794
0.149569
0.223615
0.14561
0.32114
0.143462
0.260306
0.146306
0.217102
0.149404
0.0491511
0.149889
-0.0782729
0.14781
-0.159915
0.145367
-0.355097
-0.179953
0.0461808
-0.00587808
0.0488299
-0.000774268
0.0525991
0.005997
0.0580775
0.0127168
0.0653011
0.019829
0.0740985
0.0273022
0.0843108
0.0344271
0.0956631
0.0404025
0.107738
0.0443507
0.120003
0.0453492
0.131853
0.0425233
0.142701
0.0351608
0.152098
0.0228692
0.159743
0.00557689
0.165466
-0.0174423
0.168662
-0.0454646
0.168571
-0.0759831
0.164907
-0.103527
0.158433
-0.123504
0.150598
-0.134777
0.142758
-0.139123
0.135619
-0.139095
0.129203
-0.136799
0.123401
-0.133383
0.117934
-0.128856
0.111497
-0.123575
0.102879
-0.119677
0.0940821
-0.116127
0.0903979
-0.10411
0.0956113
-0.0721531
0.108523
-0.0206216
0.125054
0.0386126
0.141417
0.0904015
0.15516
0.130384
0.16491
0.16699
0.170369
0.208393
0.171757
0.250147
0.169739
0.261282
0.165645
0.218369
0.161264
0.117168
0.158114
-0.00447211
0.155197
-0.109781
0.152931
-0.178242
0.15068
-0.204062
0.146219
-0.208615
0.138479
-0.197617
0.131515
-0.207037
0.130678
-0.1695
0.136761
-0.116029
0.145515
-0.00185676
0.150477
0.122832
0.150446
0.223646
0.146645
0.32494
0.144359
0.262592
0.147346
0.214115
0.150717
0.0457808
0.151352
-0.078908
0.149144
-0.157708
0.146553
-0.352506
-0.178336
0.0796194
-0.00438884
0.0795305
-0.000685399
0.0811912
0.0043363
0.0844569
0.0094511
0.0894561
0.0148299
0.0961478
0.0206105
0.104382
0.0261934
0.113852
0.0309321
0.124124
0.0340787
0.134668
0.0348055
0.14489
0.0323007
0.154216
0.025835
0.162156
0.0149288
0.168717
-0.00098324
0.172992
-0.0217182
0.174484
-0.0469565
0.172368
-0.0738669
0.166666
-0.0978238
0.15851
-0.115348
0.149521
-0.125789
0.140989
-0.130591
0.133515
-0.131621
0.127037
-0.130321
0.121281
-0.127627
0.116122
-0.123697
0.11078
-0.118233
0.103738
-0.112635
0.0954508
-0.10784
0.0902098
-0.0988685
0.0928831
-0.0748264
0.103972
-0.0317103
0.120161
0.022423
0.137205
0.0733576
0.152289
0.115299
0.163847
0.155433
0.171399
0.200841
0.174733
0.246813
0.173892
0.262123
0.169787
0.222474
0.164464
0.122492
0.160115
-0.000123431
0.155871
-0.105537
0.152338
-0.174709
0.149475
-0.201199
0.145235
-0.204376
0.137858
-0.19024
0.130818
-0.199997
0.129736
-0.168417
0.135751
-0.122044
0.144969
-0.0110755
0.150659
0.117142
0.151396
0.222909
0.147842
0.328494
0.145418
0.265016
0.14849
0.211043
0.152126
0.0421445
0.152913
-0.0796944
0.150573
-0.155368
0.147815
-0.349749
-0.176783
0.114222
-0.00137191
0.112108
0.00142832
0.111744
0.00470071
0.112784
0.00841146
0.11533
0.0122836
0.119512
0.0164282
0.125232
0.020474
0.132244
0.0239199
0.140185
0.0261373
0.148581
0.0264099
0.156871
0.0240111
0.164478
0.0182276
0.170829
0.00857759
0.175737
-0.00589084
0.178305
-0.0242868
0.177818
-0.046469
0.173666
-0.0697145
0.166227
-0.0903851
0.15687
-0.105991
0.147201
-0.116119
0.138334
-0.121724
0.130726
-0.124013
0.124303
-0.123898
0.118711
-0.122035
0.11381
-0.118796
0.109309
-0.113732
0.103924
-0.10725
0.0969274
-0.100843
0.0910157
-0.0929568
0.0912451
-0.0750558
0.0999372
-0.0404024
0.115007
0.00735275
0.132179
0.0561861
0.148307
0.0991719
0.161572
0.142167
0.171283
0.19113
0.176715
0.241381
0.177185
0.261652
0.173194
0.226466
0.167068
0.128617
0.16163
0.00531458
0.156216
-0.100123
0.151497
-0.16999
0.148005
-0.197707
0.144039
-0.200409
0.13712
-0.183322
0.130011
-0.192887
0.128603
-0.167009
0.134452
-0.127893
0.144176
-0.0207995
0.150711
0.110607
0.152373
0.221248
0.14918
0.331687
0.146634
0.267561
0.149734
0.207943
0.15361
0.038269
0.154554
-0.0806386
0.152077
-0.152891
0.149136
-0.346808
-0.175313
0.142563
0.00216382
0.140078
0.00391251
0.138777
0.0060019
0.138594
0.00859492
0.13954
0.0113369
0.141818
0.0141508
0.145365
0.0169271
0.150024
0.0192608
0.155549
0.0206122
0.161569
0.0203896
0.167601
0.0179788
0.173134
0.012695
0.177562
0.00414986
0.180364
-0.00869311
0.180845
-0.0247674
0.178234
-0.0438584
0.172235
-0.0637158
0.163514
-0.0816643
0.153481
-0.0959576
0.143562
-0.106199
0.13465
-0.112813
0.127069
-0.116432
0.120772
-0.117601
0.115436
-0.1167
0.110823
-0.114183
0.106917
-0.109827
0.102975
-0.103308
0.0977275
-0.0955954
0.0921596
-0.0873889
0.0905601
-0.0734563
0.0965615
-0.0464039
0.109788
-0.0058739
0.126423
0.0395512
0.143193
0.0824023
0.157959
0.127401
0.169727
0.179362
0.177278
0.233829
0.179269
0.259662
0.175631
0.230104
0.168999
0.13525
0.162537
0.0117762
0.156178
-0.0937642
0.150376
-0.164188
0.146232
-0.193563
0.142566
-0.196743
0.13622
-0.176975
0.129074
-0.185742
0.127256
-0.16519
0.13283
-0.133467
0.143055
-0.0310245
0.150565
0.103096
0.153314
0.218499
0.150621
0.33438
0.147993
0.270189
0.151065
0.204871
0.155148
0.0341859
0.156255
-0.0817451
0.153639
-0.150274
0.150503
-0.343672
-0.17395
0.159537
0.0049819
0.157523
0.00592721
0.156252
0.00727232
0.155864
0.00898328
0.156319
0.0108814
0.157697
0.0127732
0.160047
0.0145772
0.163221
0.0160868
0.167006
0.0168272
0.171103
0.0162928
0.175129
0.0139522
0.178581
0.00924349
0.180801
0.00192961
0.181626
-0.00951789
0.180087
-0.0232287
0.175673
-0.0394441
0.168378
-0.0564212
0.159027
-0.0723126
0.148896
-0.0858274
0.139135
-0.0964377
0.130426
-0.104104
0.122998
-0.109004
0.116843
-0.111445
0.11175
-0.111607
0.107427
-0.10986
0.103889
-0.106288
0.100951
-0.10037
0.0974458
-0.0920901
0.0930057
-0.0829489
0.0904708
-0.0709213
0.0939297
-0.0498628
0.104712
-0.0166562
0.120086
0.0241774
0.136966
0.0655216
0.153028
0.11134
0.166923
0.165466
0.176783
0.22397
0.180352
0.256092
0.17712
0.233336
0.170284
0.142086
0.162956
0.0191043
0.155859
-0.0866677
0.149094
-0.157423
0.144267
-0.188736
0.140859
-0.193335
0.135169
-0.171285
0.128053
-0.178626
0.125733
-0.16287
0.130876
-0.13861
0.141543
-0.0416916
0.150141
0.094498
0.154162
0.214478
0.152126
0.336416
0.149475
0.272841
0.152466
0.20188
0.156727
0.0299242
0.157998
-0.0830154
0.155238
-0.147515
0.151906
-0.340341
-0.172723
0.164987
0.00641017
0.163654
0.00726013
0.162787
0.00813935
0.162592
0.00917889
0.163091
0.0103816
0.16425
0.0116143
0.166033
0.0127947
0.168379
0.0137406
0.171104
0.0141021
0.173935
0.0134615
0.17654
0.0113477
0.178502
0.00728134
0.17971
0.000721812
0.178652
-0.00846043
0.175625
-0.0202018
0.170162
-0.0339804
0.162488
-0.0487476
0.153387
-0.063212
0.143864
-0.0763043
0.13475
-0.0873233
0.126547
-0.0959008
0.119442
-0.101899
0.113461
-0.105464
0.108534
-0.10668
0.104423
-0.105749
0.101054
-0.102919
0.0986
-0.0979161
0.0964066
-0.0898966
0.0934027
-0.079945
0.0908103
-0.0683289
0.0922761
-0.0513286
0.10012
-0.0245003
0.11359
0.0107081
0.12972
0.0493908
0.146241
0.0948189
0.161708
0.15
0.173901
0.211777
0.179498
0.250495
0.177287
0.235547
0.170567
0.148806
0.16304
0.0266314
0.155203
-0.0788308
0.147711
-0.149932
0.142246
-0.183271
0.139012
-0.190101
0.133996
-0.16627
0.126991
-0.17162
0.124097
-0.159977
0.128742
-0.143255
0.139688
-0.0526366
0.149394
0.0847915
0.154807
0.209065
0.153628
0.337594
0.151059
0.27541
0.153917
0.199022
0.158333
0.0255077
0.15975
-0.0844319
0.156869
-0.144634
0.153344
-0.336816
-0.171644
0.186969
0.00811583
-0.188675
0.185777
0.00845293
0.18486
0.00905607
0.184253
0.00978622
0.184054
0.01058
0.184313
0.0113551
0.185115
0.011993
0.186547
0.0123088
0.188635
0.012014
0.191346
0.01075
0.194553
0.00814152
0.197975
0.00385914
0.201211
-0.0025142
0.203785
-0.0110341
0.205147
-0.0215647
0.204786
-0.0336189
0.202481
-0.0464428
0.198374
-0.0591045
0.192831
-0.0707619
0.186275
-0.0807672
0.179106
-0.088732
0.171655
-0.0944479
0.164167
-0.0979754
0.15684
-0.0993543
0.149725
-0.0986331
0.142742
-0.0959361
0.136097
-0.0912713
0.129771
-0.0835707
0.122802
-0.0729756
0.114914
-0.0604406
0.108382
-0.0447973
0.106585
-0.0227029
0.110217
0.00707636
0.117254
0.0423532
0.124834
0.0872394
0.131668
0.143166
0.138004
0.205441
0.144851
0.243648
0.153488
0.22691
0.163297
0.138998
0.170203
0.0197253
0.172168
-0.0807958
0.168547
-0.146311
0.162447
-0.177171
0.156116
-0.18377
0.148447
-0.1586
0.139209
-0.162383
0.132624
-0.153391
0.131181
-0.141813
0.134006
-0.0554612
0.136605
0.0821926
0.13731
0.20836
0.1366
0.338304
0.13754
0.27447
0.143699
0.192863
0.150192
0.0190152
0.151448
-0.0856882
0.148054
-0.14124
0.14229
-0.331053
-0.168285
0.199106
0.00888144
-0.199871
0.198572
0.0089866
0.198278
0.00935023
0.19826
0.00980437
0.198582
0.010258
0.199303
0.0106335
0.200477
0.0108194
0.202133
0.0106527
0.204251
0.00989554
0.206742
0.00825936
0.209432
0.005452
0.212105
0.00118578
0.214388
-0.00479744
0.21588
-0.0125257
0.216168
-0.0218531
0.214949
-0.0323994
0.212099
-0.043593
0.207715
-0.0547207
0.202058
-0.0651049
0.195468
-0.0741766
0.188306
-0.0815701
0.1809
-0.0870425
0.173479
-0.0905545
0.166207
-0.0920817
0.159181
-0.0916071
0.152308
-0.089063
0.145661
-0.0846246
0.139491
-0.0774011
0.133255
-0.0667396
0.126152
-0.0533373
0.119333
-0.0379781
0.1159
-0.0192704
0.117878
0.0050983
0.124109
0.036123
0.13192
0.0794284
0.139751
0.135334
0.147417
0.197775
0.155959
0.235106
0.166303
0.216566
0.176928
0.128373
0.184226
0.0124271
0.185483
-0.0820534
0.180855
-0.141683
0.173585
-0.1699
0.166529
-0.176715
0.15856
-0.150631
0.148985
-0.152807
0.141698
-0.146105
0.13968
-0.139795
0.142485
-0.0582655
0.145551
0.0791259
0.147069
0.206842
0.147125
0.338248
0.148399
0.273196
0.154861
0.186401
0.161571
0.0123046
0.162732
-0.0868491
0.15862
-0.137128
0.152049