/*--------------------------------*- C++ -*----------------------------------*\
| =========                 |                                                 |
| \\      /  F ield         | OpenFOAM: The Open Source CFD Toolbox           |
|  \\    /   O peration     | Version:  2512                                  |
|   \\  /    A nd           | Website:  www.openfoam.com                      |
|    \\/     M anipulation  |                                                 |
\*---------------------------------------------------------------------------*/
FoamFile
{
    version     2.0;
    format      ascii;
    arch        "LSB;label=32;scalar=64";
    class       surfaceScalarField;
    location    "52.5";
    object      phi;
}
// * * * * * * * * * * * * * * * * * * * * * * * * * * * * * * * * * * * * * //

dimensions      [0 3 -1 0 0 0 0];

oriented        oriented;

internalField   nonuniform List<scalar> 
26232
(
6.03854e-05
0.000917445
-0.000977831
0.000371419
0.00173115
-0.00204218
0.00106304
0.00168155
-0.00237317
0.00226642
0.000832576
-0.00203595
0.00411666
-0.00077608
-0.00107416
0.00675124
-0.00312078
0.000486194
0.0103042
-0.00618602
0.00263305
0.0148963
-0.00995472
0.00536264
0.0206224
-0.0143972
0.00867109
0.0275379
-0.0194625
0.012547
0.0356457
-0.0250724
0.0169646
0.0448886
-0.0311215
0.0218786
0.0551466
-0.0374809
0.0272229
0.0662418
-0.0440065
0.0329113
0.0779497
-0.0505495
0.0388416
0.0900158
-0.0569676
0.0449015
0.102175
-0.0631351
0.0509757
0.114173
-0.0689527
0.0569546
0.125785
-0.0743498
0.0627382
0.136833
-0.0792992
0.0682509
0.147182
-0.0837778
0.0734286
0.156787
-0.087873
0.0782686
0.165555
-0.0914828
0.0827145
-0.0949933
0.0872514
0.173297
0.000105005
0.00081244
0.000579757
0.0012564
0.00158125
0.000680052
0.00326474
-0.000850916
0.00578526
-0.0032966
0.00929102
-0.00662654
0.0139109
-0.0108059
0.0197376
-0.0157814
0.0268094
-0.0214691
0.0350956
-0.0277487
0.0444883
-0.0344651
0.0548045
-0.0414376
0.0657983
-0.0484746
0.0771816
-0.0553899
0.0886507
-0.0620186
0.0999139
-0.0682308
0.110718
-0.0739395
0.12087
-0.0791043
0.13025
-0.0837294
0.138811
-0.0878604
0.146594
-0.0915609
0.153679
-0.0949583
0.160226
-0.0980299
-0.101219
0.166452
0.000162627
0.000649813
0.000837994
0.00058103
0.00220985
-0.000691803
0.00445461
-0.00309567
0.00773786
-0.00657985
0.0121995
-0.0110881
0.0179321
-0.0165385
0.0249581
-0.0228074
0.033212
-0.029723
0.0425338
-0.0370704
0.0526769
-0.0446082
0.0633309
-0.0520916
0.0741541
-0.0592979
0.0848111
-0.0660469
0.0950081
-0.0722156
0.104522
-0.0777443
0.113216
-0.0826344
0.121051
-0.0869389
0.12807
-0.0907486
0.134387
-0.0941767
0.140163
-0.0973371
0.145559
-0.100355
0.150784
-0.103255
-0.106348
0.155913
0.000237625
0.000412188
0.00115763
-0.000338972
0.00296467
-0.00249885
0.00584572
-0.00597672
0.00995673
-0.0106909
0.0153966
-0.016528
0.0221782
-0.0233201
0.0302067
-0.0308359
0.0392739
-0.0387902
0.0490744
-0.046871
0.0592405
-0.0547742
0.0693884
-0.0622395
0.0791669
-0.0690764
0.0882985
-0.0751784
0.0966056
-0.0805228
0.104021
-0.0851593
0.110577
-0.0891909
0.116388
-0.0927503
0.121618
-0.0959777
0.126444
-0.0990035
0.13104
-0.101933
0.135544
-0.104858
0.140081
-0.107791
-0.110937
0.14467
0.000332142
8.00464e-05
0.00154159
-0.00154842
0.0038413
-0.00479855
0.00740852
-0.00954395
0.0123574
-0.0156397
0.0187025
-0.0228732
0.0263308
-0.0309485
0.0349956
-0.0395006
0.0443394
-0.0481341
0.0539436
-0.0564752
0.0633896
-0.0642203
0.0723187
-0.0711686
0.080476
-0.0772337
0.0877314
-0.0824339
0.0940774
-0.0868687
0.0996055
-0.0906874
0.104472
-0.094057
0.108858
-0.0971365
0.112941
-0.10006
0.116867
-0.10293
0.12075
-0.105816
0.124659
-0.108767
0.128653
-0.111785
-0.115003
0.132719
0.000445783
-0.000365737
0.00198307
-0.00308571
0.00481253
-0.00762801
0.00907124
-0.0138027
0.0147898
-0.0213582
0.0218534
-0.0299368
0.0299909
-0.0390859
0.0388022
-0.0483119
0.047822
-0.0571539
0.0565983
-0.0652514
0.0647633
-0.0723853
0.0720805
-0.0784858
0.0784581
-0.0836113
0.0839335
-0.0879093
0.0886369
-0.0915721
0.0927463
-0.0947967
0.0964467
-0.0977574
0.0999014
-0.100591
0.103238
-0.103396
0.106544
-0.106236
0.109878
-0.10915
0.113271
-0.11216
0.116752
-0.115267
-0.118544
0.120294
0.000575703
-0.000941439
0.0024654
-0.00497541
0.00582906
-0.0109917
0.0107249
-0.0186985
0.0170561
-0.0276895
0.0245464
-0.0374271
0.0327655
-0.047305
0.0412046
-0.056751
0.049373
-0.0653223
0.0568841
-0.0727626
0.0635062
-0.0790074
0.06917
-0.0841496
0.0739415
-0.0883828
0.0779736
-0.0919414
0.0814545
-0.0950531
0.0845669
-0.0979092
0.0874627
-0.100653
0.0902539
-0.103383
0.0930162
-0.106159
0.0957964
-0.109017
0.0986223
-0.111976
0.101508
-0.115046
0.104466
-0.118225
-0.12155
0.107472
0.000716666
-0.00165811
0.00296314
-0.00722188
0.0068238
-0.0148523
0.0122366
-0.0241112
0.0189434
-0.0343963
0.0265015
-0.0449852
0.0343628
-0.0551662
0.041989
-0.0643772
0.0489579
-0.0722912
0.0550223
-0.078827
0.0601167
-0.0841017
0.0643194
-0.0883523
0.0677953
-0.0918586
0.0707383
-0.0948844
0.0733293
-0.097644
0.0757131
-0.100293
0.0779935
-0.102934
0.080238
-0.105627
0.0824879
-0.108408
0.0847668
-0.111296
0.0870876
-0.114297
0.0894563
-0.117414
0.091878
-0.120647
-0.124004
0.0943318
0.000861288
-0.00251939
0.00344397
-0.00980457
0.00771927
-0.0191276
0.0134693
-0.0298613
0.0202629
-0.0411899
0.0275223
-0.0522447
0.0346538
-0.0622977
0.0411778
-0.0709013
0.0468073
-0.0779206
0.0514576
-0.0834774
0.0552043
-0.0878484
0.0582162
-0.0913643
0.0606916
-0.094334
0.0628125
-0.0970053
0.064722
-0.0995535
0.0665202
-0.102091
0.0682708
-0.104684
0.0700117
-0.107368
0.0717643
-0.110161
0.0735402
-0.113072
0.0753456
-0.116102
0.0771829
-0.119252
0.079053
-0.122517
-0.125892
0.0809417
0.00100028
-0.00351967
0.00387169
-0.012676
0.00843768
-0.0236936
0.0143046
-0.0357281
0.0208856
-0.0477709
0.0275294
-0.0588885
0.0336782
-0.0684465
0.0389754
-0.0761985
0.0432914
-0.0822366
0.0466811
-0.0868671
0.0493092
-0.0904765
0.0513772
-0.0934323
0.0530719
-0.0960288
0.0545396
-0.0984729
0.0558813
-0.100895
0.0571602
-0.10337
0.0584129
-0.105937
0.05966
-0.108615
0.0609126
-0.111414
0.0621768
-0.114336
0.0634557
-0.117381
0.0647499
-0.120546
0.066058
-0.123825
-0.127206
0.0673716
0.00112372
-0.00464339
0.00421142
-0.0157637
0.00891317
-0.0283954
0.0146616
-0.0414766
0.0207602
-0.0538695
0.0265582
-0.0646865
0.0315989
-0.0734871
0.0356757
-0.0802753
0.0387998
-0.0853607
0.0411197
-0.089187
0.0428379
-0.0921947
0.0441487
-0.094743
0.0452059
-0.0970861
0.0461163
-0.0993833
0.0469458
-0.101725
0.047732
-0.104156
0.0484954
-0.1067
0.0492472
-0.109367
0.0499938
-0.11216
0.0507386
-0.115081
0.0514832
-0.118126
0.0522271
-0.12129
0.0529669
-0.124565
-0.127937
0.0536983
0.00122478
-0.00586817
0.00443723
-0.0189761
0.00910279
-0.0330609
0.0145082
-0.046882
0.0199118
-0.0592731
0.0247305
-0.0695051
0.028644
-0.0774006
0.031588
-0.0832194
0.0336763
-0.087449
0.0351047
-0.0906154
0.0360756
-0.0931656
0.036755
-0.0954225
0.0372598
-0.0975908
0.0376623
-0.0997858
0.0380036
-0.102066
0.0383053
-0.104458
0.0385789
-0.106974
0.0388309
-0.109619
0.0390653
-0.112395
0.0392845
-0.1153
0.0394894
-0.118331
0.0396794
-0.12148
0.0398507
-0.124736
0.0400026
-0.128089
-0.000204123
-0.000344234
0.000548357
-0.000713452
-0.00094222
0.00145155
-0.00146314
-0.00146923
0.00221892
-0.00240328
-0.00192414
0.00286428
-0.00349443
-0.00231268
0.00340383
-0.00470558
-0.00264718
0.00385833
-0.00601252
-0.00294374
0.00425068
-0.00739647
-0.00321919
0.00460314
-0.00884279
-0.00348853
0.00493485
-0.0103399
-0.00376321
0.00526029
-0.011878
-0.0040503
0.00558845
-0.0134486
-0.0043523
0.00592284
-0.015043
-0.0046676
0.00626204
-0.0166524
-0.00499097
0.0066004
-0.0182672
-0.00531396
0.00692872
-0.0198769
-0.00562516
0.00723484
-0.0214707
-0.00591005
0.00750391
-0.0230387
-0.00615067
0.00771868
-0.0245733
-0.00632507
0.00785966
-0.0260719
-0.00640696
0.0079055
-0.0275395
-0.00636612
0.00783374
-0.0289921
-0.00616772
0.0076203
-0.0304622
-0.00576552
0.00723561
-0.0051072
-0.0320042
0.00664921
-0.000218998
-0.000125236
-0.000761599
-0.000399619
-0.00155524
-0.000675596
-0.00254428
-0.000935095
-0.00368529
-0.00117167
-0.00494462
-0.00138784
-0.00629652
-0.00159184
-0.00772136
-0.00179436
-0.009204
-0.00200588
-0.0107324
-0.00223481
-0.0122963
-0.00248642
-0.0138859
-0.00276265
-0.0154913
-0.0030622
-0.0171014
-0.0033809
-0.0187035
-0.00371189
-0.0202832
-0.00404547
-0.0218245
-0.0043687
-0.0233107
-0.00466446
-0.0247257
-0.00491013
-0.0260566
-0.00507604
-0.0272979
-0.00512476
-0.0284544
-0.00501123
-0.0295446
-0.00467533
-0.00403479
-0.030617
-0.000221772
9.65362e-05
-0.000769194
0.000147803
-0.00156603
0.000121238
-0.00255317
5.20452e-05
-0.00368426
-4.05751e-05
-0.00492324
-0.000148863
-0.0062424
-0.000272681
-0.00762042
-0.000416331
-0.00904062
-0.000585683
-0.0104893
-0.000786147
-0.0119542
-0.0010215
-0.0134235
-0.0012934
-0.0148844
-0.00160125
-0.0163227
-0.00194262
-0.0177216
-0.00231295
-0.0190616
-0.0027055
-0.0203197
-0.00311061
-0.0214695
-0.00351464
-0.0224816
-0.00389807
-0.0233252
-0.00423238
-0.0239734
-0.00447657
-0.0244079
-0.00457675
-0.0246212
-0.00446205
-0.00398851
-0.0246674
-0.000212698
0.000309235
-0.000737149
0.000672253
-0.00149735
0.000881444
-0.0024329
0.000987595
-0.00349535
0.00102187
-0.00464635
0.00100214
-0.00585569
0.000936657
-0.00709938
0.000827352
-0.00835782
0.000672763
-0.00961418
0.000470214
-0.0108529
0.000217181
-0.0120579
-8.83397e-05
-0.0132132
-0.000445984
-0.0142997
-0.000856123
-0.0152961
-0.00131654
-0.0161776
-0.00182405
-0.0169148
-0.00237339
-0.0174731
-0.00295631
-0.0178113
-0.00355989
-0.0178806
-0.00416306
-0.0176277
-0.00472945
-0.0170057
-0.00519873
-0.0159756
-0.00549219
-0.00551437
-0.0144497
-0.000193357
0.000502591
-0.000670058
0.00114895
-0.00135737
0.00156876
-0.00219513
0.00182535
-0.00313347
0.00196021
-0.00413148
0.00200015
-0.00515556
0.00196073
-0.00617764
0.00184943
-0.00717348
0.00166861
-0.00812101
0.00141774
-0.00899885
0.00109503
-0.00978548
0.000698285
-0.010457
0.00022551
-0.0109882
-0.000324889
-0.0113515
-0.000953253
-0.0115152
-0.00166031
-0.0114442
-0.00244443
-0.0110983
-0.00330222
-0.0104311
-0.00422711
-0.00938729
-0.00520683
-0.00789843
-0.00621831
-0.00588097
-0.0072162
-0.00327838
-0.00809477
-0.00852699
-0.000265757
-0.000166177
0.000668768
-0.000575
0.00155778
-0.00115857
0.00215233
-0.00185764
0.00252442
-0.00262088
0.00272345
-0.00340409
0.00278336
-0.00416892
0.00272556
-0.00488134
0.00256186
-0.00551001
0.00229727
-0.00602469
0.00193242
-0.00639495
0.00146529
-0.00658906
0.000892389
-0.00657292
0.000209378
-0.00631054
-0.000587274
-0.00576233
-0.00150146
-0.00488647
-0.00253617
-0.00363838
-0.00369252
-0.00197079
-0.0049698
0.000166843
-0.00636475
0.0028308
-0.00787079
0.00608805
-0.00947556
0.0100195
-0.0111477
0.0147221
-0.0127974
-0.0143497
0.0205448
-0.000134066
0.000802834
-0.000460372
0.00188408
-0.000915583
0.00260754
-0.00144089
0.00304973
-0.00198261
0.00326517
-0.00249187
0.00329262
-0.00292364
0.00315734
-0.00323539
0.0028736
-0.00338553
0.00244742
-0.00333206
0.00187895
-0.00303125
0.00116448
-0.00243708
0.000298215
-0.00150082
-0.000726874
-0.000170157
-0.00191794
0.00160969
-0.00328131
0.00389493
-0.0048214
0.00674252
-0.00654011
0.0102086
-0.00843593
0.0143473
-0.0105034
0.0192092
-0.0127327
0.0248417
-0.015108
0.0313152
-0.0176211
0.0386359
-0.0201181
-0.0230188
0.047305
-9.9926e-05
0.00090276
-0.000334429
0.00211859
-0.000642531
0.00291565
-0.000964098
0.00337129
-0.00124126
0.00354233
-0.00141833
0.00346969
-0.00144098
0.00317999
-0.00125502
0.00268764
-0.000805146
0.00199754
-3.38875e-05
0.0011077
0.00112036
1.02267e-05
0.00271948
-0.0013009
0.00483137
-0.00283876
0.00752469
-0.00461127
0.0108686
-0.00662518
0.0149306
-0.00888341
0.0197743
-0.0113839
0.0254569
-0.0141185
0.0320262
-0.0170727
0.0395191
-0.0202256
0.0479495
-0.0235384
0.0573681
-0.0270396
0.0676158
-0.0303659
-0.0346981
0.0792952
-6.6124e-05
0.000968884
-0.000203667
0.00225613
-0.000350068
0.00306205
-0.000440826
0.00346205
-0.000411101
0.00351261
-0.000195432
0.00325402
0.00027304
0.00271152
0.00106355
0.00189713
0.0022485
0.000812593
0.00390387
-0.000547678
0.00610763
-0.00219354
0.00894261
-0.00413587
0.0124889
-0.00638505
0.016825
-0.00894734
0.0220231
-0.0118233
0.028146
-0.0150063
0.0352429
-0.0184808
0.0433468
-0.0222224
0.0524716
-0.0261975
0.0626127
-0.0303668
0.0737348
-0.0346606
0.0858362
-0.0391409
0.0986987
-0.0432285
-0.0488107
0.112811
-3.39612e-05
0.00100284
-7.11671e-05
0.00229333
-4.22069e-05
0.00303309
0.000125631
0.00329421
0.000508029
0.00313021
0.00118379
0.00257826
0.0022356
0.00165971
0.0037506
0.00038213
0.00581975
-0.00125656
0.00853659
-0.00326452
0.0119947
-0.0056516
0.0162842
-0.00842538
0.0214867
-0.0115876
0.0276704
-0.0151311
0.0348849
-0.0190378
0.0431565
-0.0232778
0.0524849
-0.0278092
0.0628418
-0.0325793
0.0741713
-0.0375269
0.0863903
-0.0425858
0.099399
-0.0476692
0.113074
-0.0528156
0.127274
-0.0574287
-0.0634696
0.141933
-3.26058e-06
0.00100611
6.46233e-05
0.00222545
0.00028568
0.00281203
0.00074593
0.00283396
0.00153576
0.00234038
0.00275094
0.00136308
0.00449225
-8.16084e-05
0.00686559
-0.00199121
0.00997738
-0.00436834
0.0139313
-0.00721845
0.0188219
-0.0105422
0.0247274
-0.0143309
0.0317023
-0.0185624
0.0397705
-0.0231993
0.0489204
-0.0281878
0.0591026
-0.03346
0.0702294
-0.0389361
0.0821796
-0.0445295
0.0948039
-0.0501513
0.107934
-0.0557156
0.121406
-0.0611417
0.135002
-0.0664112
0.148748
-0.0711745
-0.0766761
0.161954
2.82748e-05
0.000211543
0.000650404
0.00144842
0.00271463
0.00456391
0.00711535
0.0104868
0.0147895
0.0201181
0.0265404
0.0340882
0.0427486
0.0524606
0.0631144
0.0745559
0.0865956
0.0990207
0.111608
0.124143
0.13643
0.148287
0.159827
0.170403
-0.032587
-0.00710516
0.00768802
-0.0330949
-0.00499002
0.00549787
-0.033484
-0.00208661
0.00247571
-0.0337904
0.00168476
-0.00137833
-0.0339652
0.00640057
-0.00622582
-0.0339584
0.012105
-0.0121118
-0.0337182
0.018805
-0.0190452
-0.03319
0.0264542
-0.0269824
-0.0323231
0.0349325
-0.0357994
-0.0310678
0.0440127
-0.045268
-0.0293527
0.0533227
-0.0550378
-0.027106
0.0623934
-0.0646401
-0.0242422
0.0706069
-0.0734706
-0.0206574
0.0771801
-0.0807649
-0.0162385
0.081176
-0.085595
-0.010787
0.0814339
-0.0868853
-0.00429639
0.0770808
-0.0835715
0.003233
0.0670428
-0.0745722
0.01167
0.0506934
-0.0591304
0.0206892
0.0278031
-0.0368223
0.0300027
-0.00102125
-0.00829228
0.0393254
-0.0344842
0.0251615
0.0482273
-0.0702012
0.0612993
0.0562498
-0.104317
0.0962941
0.0624437
-0.133009
0.126815
0.0655612
-0.154051
0.150933
0.0643449
-0.16832
0.169536
0.0585893
-0.179486
0.185242
0.0506941
-0.190019
0.197915
0.045562
-0.195006
0.200138
0.0472227
-0.181774
0.180114
0.0553988
-0.140636
0.13246
0.0673918
-0.0750918
0.0630987
0.0808022
0.001792
-0.0152024
0.0934556
0.075812
-0.0884653
0.103569
0.135589
-0.145703
0.110374
0.175351
-0.182156
0.112542
0.196458
-0.198626
0.107578
0.209807
-0.204843
0.096531
0.224177
-0.213129
0.0869314
0.226341
-0.216741
0.086328
0.190135
-0.189532
0.0949215
0.11176
-0.120354
0.107684
0.0173128
-0.0300755
0.119867
-0.0650475
0.0528651
0.129064
-0.121306
0.112108
0.134887
-0.150035
0.144212
0.136979
-0.1553
0.153208
0.134593
-0.148377
0.150763
0.128813
-0.136059
0.141839
0.123959
-0.12092
0.125774
0.123781
-0.0910369
0.091215
0.128525
-0.0523031
0.0475586
0.135302
-0.00601567
-0.000761392
0.141427
0.0289064
-0.035031
0.14532
0.0539001
-0.0577936
0.146944
0.0676849
-0.0693087
0.14702
0.0639701
-0.0640457
0.146829
0.0675918
-0.0674011
0.0366004
-0.0374478
-0.030931
-0.00679125
-0.0311025
-0.00481852
-0.0310968
-0.00209224
-0.0309426
0.00153051
-0.0305966
0.00605465
-0.0299913
0.0114997
-0.0290567
0.0178704
-0.0277192
0.0251167
-0.0259217
0.033135
-0.023635
0.041726
-0.0207552
0.0504429
-0.0172193
0.0588575
-0.0129614
0.066349
-0.00788858
0.0721073
-0.00193971
0.0752272
0.00468788
0.0748063
0.012114
0.0696547
0.020187
0.0589698
0.0286683
0.0422121
0.0372508
0.0192206
0.045674
-0.00944445
0.0537873
-0.0425975
0.0613563
-0.0777702
0.0679762
-0.110937
0.0728929
-0.137926
0.0751166
-0.156275
0.0733636
-0.166567
0.0666594
-0.172782
0.0561783
-0.179538
0.0465439
-0.185372
0.0435625
-0.178793
0.04918
-0.146253
0.0606453
-0.0865571
0.0744987
-0.0120614
0.0880587
0.062252
0.0994555
0.124192
0.10732
0.167487
0.109491
0.194287
0.104037
0.215261
0.0938283
0.234385
0.0868898
0.23328
0.0890483
0.187976
0.0991018
0.101707
0.112192
0.00422207
0.124069
-0.0769236
0.132587
-0.129824
0.137738
-0.155186
0.139869
-0.157431
0.138302
-0.14681
0.133007
-0.130765
0.127119
-0.115032
0.124678
-0.0885952
0.127131
-0.0547565
0.132445
-0.0113293
0.137916
0.023435
0.141658
0.0501582
0.143628
0.0657148
0.144274
0.0633246
0.145232
0.0666337
0.0348498
-0.0246785
-0.00678016
-0.0244793
-0.00501774
-0.0240589
-0.00251263
-0.0233592
0.00083077
-0.0224427
0.00513811
-0.0212024
0.0102594
-0.019556
0.016224
-0.0174065
0.0229672
-0.0146744
0.0304029
-0.0114508
0.0385024
-0.00750525
0.0464974
-0.00284075
0.054193
0.00256491
0.0609433
0.00867408
0.0659981
0.0154597
0.0684415
0.0228939
0.067372
0.0307878
0.0617607
0.0389188
0.0508389
0.0470195
0.0341114
0.0548048
0.0114353
0.0620969
-0.0167365
0.0688498
-0.0493504
0.0749462
-0.0838665
0.080019
-0.116009
0.0834295
-0.141337
0.0844908
-0.157336
0.0823311
-0.164407
0.0756391
-0.16609
0.0641105
-0.16801
0.0510561
-0.172317
0.0430591
-0.170796
0.044785
-0.147979
0.0548556
-0.0966278
0.0688426
-0.0260484
0.0832421
0.0478525
0.0957362
0.111698
0.104291
0.158932
0.106353
0.192225
0.100963
0.220652
0.0923749
0.242973
0.0882902
0.237364
0.0927597
0.183507
0.103802
0.0906641
0.116849
-0.00882493
0.128226
-0.0883002
0.135996
-0.137594
0.140355
-0.159545
0.142235
-0.159311
0.141359
-0.145934
0.136967
-0.126373
0.130818
-0.108883
0.126658
-0.0844347
0.126841
-0.0549394
0.130404
-0.0148927
0.134947
0.0188921
0.138438
0.0466674
0.140838
0.0633147
0.142237
0.0619257
0.144486
0.0643844
0.032181
-0.0143336
-0.00689625
-0.0138939
-0.0054575
-0.0132288
-0.00317767
-0.0120437
-0.000354376
-0.0106515
0.00374591
-0.00886476
0.00847272
-0.00660979
0.013969
-0.00383539
0.0201928
-0.00047256
0.0270401
0.00390412
0.0341257
0.0088318
0.0415697
0.0143716
0.0486532
0.0205356
0.0547793
0.0273293
0.0592044
0.034664
0.0611068
0.0424063
0.0596298
0.0503226
0.0538444
0.0581432
0.0430183
0.0655952
0.0266594
0.0724343
0.00459623
0.0785562
-0.0228584
0.0839577
-0.0547518
0.0885735
-0.0884824
0.092042
-0.119478
0.09379
-0.143085
0.0934018
-0.156947
0.0906159
-0.161621
0.0844105
-0.159884
0.0733528
-0.156952
0.0586479
-0.157613
0.046193
-0.158341
0.0429292
-0.144715
0.0502449
-0.103943
0.0637743
-0.0395778
0.0788073
0.0328194
0.0921744
0.0983312
0.101163
0.149943
0.103276
0.190111
0.0986459
0.225281
0.0922868
0.249332
0.0909859
0.238665
0.0972883
0.177205
0.10888
0.079072
0.121588
-0.0215322
0.132222
-0.0989346
0.139176
-0.144548
0.142721
-0.16309
0.144143
-0.160733
0.143718
-0.145509
0.140416
-0.123071
0.134695
-0.103162
0.129528
-0.0792676
0.127726
-0.0531375
0.129436
-0.0166027
0.132855
0.0154731
0.136018
0.0435048
0.138896
0.0604365
0.141163
0.0596592
0.144715
0.060832
0.0286736
-9.12148e-06
-0.00715289
0.000138932
-0.00560556
0.00094974
-0.00398848
0.00217743
-0.00158206
0.00399786
0.00192547
0.00625856
0.00621202
0.00907526
0.0111523
0.0125291
0.016739
0.0166523
0.0229169
0.021309
0.029469
0.0266792
0.0361995
0.0327147
0.0426177
0.0393578
0.0481362
0.0465186
0.0520436
0.0540633
0.0535621
0.0618095
0.0518836
0.0694884
0.0461655
0.0768119
0.0356949
0.0834979
0.0199733
0.0894677
-0.00137357
0.0944713
-0.027862
0.098603
-0.0588835
0.10175
-0.091629
0.103541
-0.12127
0.10354
-0.143084
0.101611
-0.155018
0.0979352
-0.157945
0.0921517
-0.154101
0.0825383
-0.147339
0.0681873
-0.143262
0.0528662
-0.14302
0.044331
-0.13618
0.0473481
-0.106961
0.0592813
-0.051511
0.0744605
0.0176402
0.0884621
0.0843296
0.0978656
0.14054
0.100448
0.187529
0.0972872
0.228442
0.093535
0.253084
0.0947753
0.237425
0.10245
0.16953
0.114236
0.0672858
0.12631
-0.0336057
0.135975
-0.1086
0.142021
-0.150594
0.144781
-0.16585
0.14565
-0.161602
0.145411
-0.14527
0.143174
-0.120834
0.13839
-0.0983788
0.132983
-0.0738601
0.129722
-0.0498768
0.129706
-0.0165869
0.131932
0.0132472
0.134721
0.0407157
0.138071
0.0570872
0.141223
0.0565064
0.145955
0.0561007
0.0244904
0.0199387
-0.0065468
0.01968
-0.00534687
0.0198106
-0.004119
0.0204991
-0.00227056
0.0219461
0.000478432
0.0239276
0.00423057
0.0265852
0.0084947
0.0299977
0.0133264
0.0341586
0.018756
0.0390182
0.0246094
0.0445963
0.0306214
0.0508471
0.0363669
0.0576805
0.0413028
0.0649579
0.0447661
0.0724981
0.0460219
0.0800792
0.0443026
0.0874167
0.038828
0.0942208
0.0288908
0.100217
0.0139774
0.105367
-0.00652394
0.109402
-0.0318967
0.112336
-0.0618183
0.113971
-0.0932635
0.113976
-0.121274
0.112193
-0.141301
0.108782
-0.151608
0.104144
-0.153307
0.0984891
-0.148446
0.0905736
-0.139423
0.0781853
-0.130873
0.0622582
-0.127093
0.049388
-0.12331
0.0469832
-0.104556
0.0557222
-0.06025
0.070099
0.00326346
0.0844202
0.0700083
0.0944269
0.130533
0.0980838
0.183873
0.0969972
0.229529
0.0959961
0.254085
0.0994389
0.233982
0.108072
0.160897
0.119717
0.0556402
0.130913
-0.0448016
0.139412
-0.117098
0.144452
-0.155634
0.146467
-0.167866
0.146785
-0.16192
0.146515
-0.145
0.145163
-0.119482
0.141598
-0.0948135
0.136645
-0.0689076
0.132609
-0.04584
0.131228
-0.0152067
0.132345
0.01213
0.13476
0.0383011
0.138516
0.0533316
0.142472
0.0525495
0.148142
0.0504309
0.019851
0.0455135
-0.00475532
0.044092
-0.00392535
0.0431242
-0.00315121
0.0427624
-0.00190883
0.0431145
0.000126337
0.0441781
0.00316698
0.0460318
0.00664102
0.0487645
0.0105937
0.0523844
0.0151361
0.0568582
0.0201356
0.0621515
0.0253281
0.0681854
0.0303331
0.0748324
0.0346557
0.0819142
0.0376843
0.0892112
0.0387249
0.0964662
0.0370476
0.10338
0.0319143
0.109673
0.0225976
0.115051
0.008599
0.119488
-0.0109606
0.122701
-0.0351092
0.124535
-0.0636524
0.12468
-0.0934092
0.122899
-0.119493
0.11936
-0.137762
0.11458
-0.146827
0.109096
-0.147823
0.103345
-0.142695
0.0968314
-0.132909
0.087192
-0.121234
0.0728956
-0.112796
0.0577853
-0.1082
0.0499713
-0.0967417
0.0539229
-0.0642016
0.0661097
-0.00892337
0.0802169
0.0559011
0.0910215
0.119729
0.096356
0.178538
0.0977915
0.228093
0.0994834
0.252393
0.104744
0.228722
0.113944
0.151696
0.125178
0.0444069
0.135278
-0.0549018
0.142464
-0.124285
0.146415
-0.159585
0.147721
-0.169172
0.147553
-0.161752
0.14712
-0.144567
0.146404
-0.118765
0.144108
-0.0925178
0.140134
-0.064934
0.136043
-0.0417489
0.133833
-0.0129963
0.134084
0.0118788
0.13618
0.0362049
0.140236
0.0492755
0.144833
0.047953
0.151126
0.0441377
0.0149963
0.0761274
-0.00158754
0.0734324
-0.00123039
0.0712189
-0.000937704
0.0695874
-0.000277298
0.0683218
0.0013919
0.0679321
0.00355673
0.0683871
0.00618598
0.069784
0.00919681
0.0721799
0.0127403
0.0755749
0.0167405
0.0799328
0.0209702
0.0851626
0.0251032
0.0911147
0.0287036
0.0975815
0.0312175
0.104315
0.0319917
0.111029
0.0303334
0.117402
0.0255417
0.123164
0.0168353
0.127977
0.00378612
0.131747
-0.014731
0.134162
-0.0375239
0.13488
-0.0643703
0.133513
-0.0920424
0.129983
-0.115963
0.124795
-0.132574
0.118802
-0.140834
0.112674
-0.141695
0.106801
-0.136823
0.101198
-0.127306
0.0942159
-0.114252
0.0830586
-0.101639
0.0683297
-0.0934708
0.0565705
-0.0849825
0.0548796
-0.0625107
0.0634633
-0.017507
0.0764411
0.0429233
0.0880012
0.108169
0.0953808
0.171158
0.0995877
0.223886
0.10377
0.248211
0.110444
0.222048
0.119897
0.142243
0.130444
0.0338594
0.139283
-0.0637404
0.145058
-0.13006
0.147874
-0.162401
0.148498
-0.169796
0.147934
-0.161187
0.147302
-0.143935
0.146977
-0.11844
0.145825
-0.0913659
0.143129
-0.0622377
0.13962
-0.0382404
0.137191
-0.0105675
0.136944
0.0121262
0.13884
0.0343087
0.14308
0.0450357
0.148104
0.0429291
0.154682
0.0375599
0.0101525
0.108704
0.00251996
0.104941
0.00253199
0.101567
0.00243636
0.0984864
0.00280365
0.096084
0.00379428
0.0943597
0.00528109
0.0933857
0.00715998
0.0932516
0.00933087
0.094081
0.0119109
0.0959344
0.0148871
0.0988226
0.018082
0.10269
0.0212357
0.107409
0.0239849
0.112777
0.0258497
0.118537
0.0262314
0.124393
0.0244777
0.129995
0.0199396
0.134969
0.0118612
0.139252
-0.000496814
0.142185
-0.0176646
0.143651
-0.0389899
0.1431
-0.0638186
0.140142
-0.0890851
0.134943
-0.110764
0.128325
-0.125956
0.121354
-0.133864
0.114791
-0.135132
0.108912
-0.130944
0.10385
-0.122243
0.0988794
-0.109281
0.0913067
-0.0940664
0.0792158
-0.0813799
0.0660784
-0.0718451
0.0593988
-0.0558311
0.0631725
-0.0212806
0.0739199
0.0321759
0.0858123
0.0962761
0.0952466
0.161724
0.102191
0.216942
0.10858
0.241822
0.11629
0.214338
0.125728
0.132805
0.135381
0.0242067
0.142805
-0.0711642
0.147108
-0.134364
0.148787
-0.164079
0.148767
-0.169776
0.147901
-0.160321
0.147104
-0.143138
0.146987
-0.118324
0.146755
-0.0911336
0.145411
-0.0608933
0.142945
-0.0357749
0.140883
-0.00850564
0.140563
0.0124462
0.14243
0.0324422
0.146756
0.04071
0.15199
0.0376949
0.158542
0.031008
0.00550031
0.137552
0.00690059
0.133466
0.00661847
0.129577
0.00632515
0.125978
0.00640225
0.122867
0.00690519
0.120331
0.00781699
0.118402
0.00908974
0.117131
0.010602
0.116668
0.0123737
0.117097
0.0144579
0.118468
0.0167108
0.120783
0.0189212
0.123973
0.0207942
0.127889
0.0219339
0.132308
0.0218122
0.136941
0.019845
0.141458
0.0154232
0.145497
0.00782163
0.148849
-0.00384862
0.150704
-0.0195199
0.150909
-0.0391945
0.148841
-0.0617504
0.144219
-0.0844636
0.137498
-0.104043
0.129742
-0.1182
0.122077
-0.126199
0.115261
-0.128316
0.109517
-0.125199
0.104869
-0.117596
0.101194
-0.105607
0.096756
-0.089628
0.0885607
-0.0731846
0.0768107
-0.0600951
0.0672116
-0.046232
0.0660521
-0.0201211
0.0734708
0.0247571
0.0848815
0.0848654
0.0959773
0.150628
0.105372
0.207547
0.113662
0.233533
0.122097
0.205903
0.131283
0.123619
0.139882
0.0156074
0.14574
-0.0770217
0.148538
-0.137161
0.149119
-0.164661
0.14851
-0.169167
0.147429
-0.15924
0.146545
-0.142254
0.146534
-0.118313
0.146974
-0.0915741
0.146881
-0.0608002
0.145703
-0.0345967
0.144475
-0.00727757
0.144493
0.0124279
0.146526
0.0304091
0.15088
0.0363559
0.156141
0.0324342
0.162426
0.0247226
0.00115418
0.158099
0.0107559
0.154378
0.0103392
0.150656
0.0100474
0.147164
0.00989396
0.14407
0.00999977
0.141429
0.010458
0.139269
0.0112489
0.137608
0.0122632
0.136556
0.0134261
0.136204
0.01481
0.136596
0.016318
0.137752
0.0177656
0.139647
0.0188998
0.142187
0.0193932
0.14521
0.01879
0.148486
0.0165683
0.151703
0.0122068
0.154345
0.00517903
0.156357
-0.0058603
0.157003
-0.0201658
0.155698
-0.0378898
0.151973
-0.0580257
0.145803
-0.0782928
0.137909
-0.0961493
0.129443
-0.109734
0.121434
-0.11819
0.114526
-0.121408
0.108931
-0.119604
0.104596
-0.11326
0.101602
-0.102614
0.0992891
-0.0873147
0.0949975
-0.068893
0.0866348
-0.0517325
0.0769009
-0.0364982
0.0721046
-0.0153247
0.0756445
0.0212173
0.0855358
0.0749741
0.0975834
0.138581
0.108907
0.196224
0.118604
0.223835
0.127625
0.196882
0.136638
0.114605
0.14395
0.00829585
0.148132
-0.081204
0.14941
-0.138439
0.148961
-0.164211
0.147816
-0.168022
0.14657
-0.157995
0.145665
-0.141349
0.145715
-0.118362
0.146607
-0.092466
0.147554
-0.0617473
0.147703
-0.0347462
0.147595
-0.00716954
0.148285
0.0117383
0.150672
0.0280222
0.155042
0.0319853
0.160205
0.0272713
0.166079
0.0188487
-0.00284524
0.167985
0.0131733
0.16522
0.0131041
0.162429
0.0128392
0.159734
0.0125881
0.157238
0.0124964
0.155044
0.0126519
0.153228
0.0130643
0.151817
0.0136745
0.150813
0.0144303
0.150288
0.015335
0.150299
0.0163067
0.150867
0.0171973
0.151978
0.0177891
0.153563
0.0178082
0.155478
0.0168755
0.15752
0.014526
0.159457
0.0102702
0.161077
0.0035582
0.16146
-0.00624286
0.160443
-0.0191492
0.15753
-0.0349765
0.152403
-0.0528984
0.145304
-0.0711936
0.137042
-0.0878878
0.128627
-0.10132
0.120856
-0.110418
0.114197
-0.114748
0.108843
-0.11425
0.104741
-0.109158
0.101943
-0.0998154
0.100505
-0.0858775
0.0989029
-0.0672906
0.0943101
-0.0471397
0.0866486
-0.0288366
0.0803552
-0.00903135
0.0806034
0.0209691
0.0881481
0.0674293
0.099956
0.126773
0.112267
0.183912
0.123075
0.213028
0.132917
0.187039
0.141697
0.105826
0.147687
0.00230537
0.149992
-0.083509
0.149851
-0.138298
0.148484
-0.162845
0.146849
-0.166387
0.145445
-0.156591
0.144548
-0.140452
0.144638
-0.118452
0.145807
-0.0936346
0.147536
-0.063477
0.148891
-0.0361009
0.149999
-0.00827709
0.151565
0.0101719
0.15445
0.0251375
0.158862
0.0275729
0.163872
0.022262
0.169291
0.0134289
-0.00652678
0.186913
0.0153037
-0.189043
0.185133
0.0148834
0.183283
0.0146892
0.181362
0.0145097
0.179438
0.0144198
0.177584
0.0145064
0.175862
0.0147864
0.174316
0.0152206
0.172991
0.0157553
0.171982
0.0163439
0.171392
0.0168968
0.171321
0.017268
0.171861
0.0172487
0.173085
0.0165846
0.175017
0.0149438
0.177626
0.011917
0.180788
0.00710791
0.184219
0.000126659
0.187497
-0.00952009
0.190107
-0.0217594
0.191388
-0.036258
0.190743
-0.0522527
0.187914
-0.0683652
0.183052
-0.0830251
0.176576
-0.0948435
0.169008
-0.102851
0.160862
-0.106602
0.152598
-0.105986
0.144518
-0.101079
0.136789
-0.0920863
0.129759
-0.0788479
0.123206
-0.0607377
0.115195
-0.0391278
0.104059
-0.017701
0.0916891
0.00333851
0.082347
0.0303112
0.0791988
0.0705775
0.0822903
0.123681
0.0907102
0.175492
0.1049
0.198838
0.124504
0.167436
0.144525
0.0858059
0.158692
-0.0118616
0.165631
-0.0904483
0.166394
-0.139062
0.163457
-0.159907
0.158973
-0.161903
0.15432
-0.151938
0.150138
-0.136269
0.14697
-0.115285
0.145074
-0.091738
0.144342
-0.0627457
0.144044
-0.0358024
0.144125
-0.00835829
0.144852
0.00944534
0.146787
0.0232022
0.149874
0.0244858
0.15324
0.0188957
0.156617
0.0100526
-0.00824825
0.19992
0.0161477
-0.200764
0.199031
0.0157721
0.198123
0.0155976
0.197133
0.0154993
0.196097
0.0154563
0.195087
0.0155166
0.194167
0.0157062
0.193387
0.0160003
0.192798
0.0163447
0.192467
0.0166745
0.192469
0.0168956
0.19287
0.0168669
0.193725
0.0163933
0.19507
0.0152399
0.196896
0.0131177
0.199124
0.00968918
0.201577
0.00465476
0.204059
-0.00235557
0.206122
-0.0115826
0.207302
-0.0229395
0.207111
-0.0360671
0.205135
-0.0502773
0.201223
-0.0644531
0.195516
-0.0773183
0.188391
-0.0877177
0.180353
-0.0948127
0.171913
-0.0981629
0.16351
-0.0975823
0.15546
-0.0930295
0.147889