/*--------------------------------*- C++ -*----------------------------------*\
| =========                 |                                                 |
| \\      /  F ield         | OpenFOAM: The Open Source CFD Toolbox           |
|  \\    /   O peration     | Version:  2512                                  |
|   \\  /    A nd           | Website:  www.openfoam.com                      |
|    \\/     M anipulation  |                                                 |
\*---------------------------------------------------------------------------*/
FoamFile
{
    version     2.0;
    format      ascii;
    arch        "LSB;label=32;scalar=64";
    class       volVectorField;
    location    "181";
    object      U;
}
// * * * * * * * * * * * * * * * * * * * * * * * * * * * * * * * * * * * * * //

dimensions      [0 1 -1 0 0 0 0];

internalField   nonuniform List<vector> 
13248
(
(-0.0141629 0.0122387 7.41567e-20)
(-0.0273397 0.0253749 0)
(-0.0260245 0.0318018 -1.39925e-19)
(-0.0101259 0.0342677 1.31811e-19)
(0.0204681 0.034586 1.22942e-19)
(0.0658137 0.0339727 0)
(0.125801 0.0332658 0)
(0.199964 0.0330433 2.9152e-19)
(0.287274 0.0336698 -1.92456e-21)
(0.385981 0.0353129 -2.53765e-19)
(0.493544 0.0379397 2.35544e-19)
(0.606691 0.0413186 -1.47098e-19)
(0.7216 0.0450413 0)
(0.834183 0.0485679 -2.5784e-19)
(0.940427 0.0512936 4.83895e-19)
(1.03673 0.0526262 -1.14869e-19)
(1.12021 0.0520671 -2.1158e-19)
(1.18894 0.0492552 1.98632e-19)
(1.24209 0.0440978 0)
(1.27992 0.0363705 0)
(1.3038 0.0271738 0)
(1.31548 0.0136127 0)
(1.31748 0.00486601 6.28103e-20)
(1.31197 -0.0240132 2.3036e-19)
(-0.0147494 0.0115812 -2.24073e-19)
(-0.0236567 0.0219083 1.52857e-19)
(-0.0132966 0.0255874 -1.53014e-21)
(0.0155295 0.0257225 -2.01774e-19)
(0.0624032 0.0244432 -1.22807e-19)
(0.126845 0.0232205 -1.16205e-19)
(0.207948 0.0230292 -2.11684e-19)
(0.304068 0.0244538 2.00875e-19)
(0.412595 0.0277383 0)
(0.529906 0.032803 8.63207e-22)
(0.651535 0.0392662 2.37943e-21)
(0.772532 0.0464954 1.48307e-19)
(0.887947 0.0536936 0)
(0.993321 0.0600123 0)
(1.08512 0.0646698 1.78081e-19)
(1.16104 0.0670573 -3.34699e-19)
(1.22014 0.0668098 2.03597e-19)
(1.26285 0.0638366 -1.91154e-19)
(1.29073 0.0582915 -8.51282e-20)
(1.30615 0.0505446 -1.58053e-19)
(1.31184 0.0410608 -6.66491e-20)
(1.3106 0.0302357 -1.26112e-19)
(1.30423 0.0200394 1.82644e-19)
(1.29619 0.00566587 5.24689e-20)
(-0.0139836 0.0101203 0)
(-0.0156966 0.0171256 0)
(0.00709184 0.0185495 7.13994e-20)
(0.0525262 0.0174928 6.55584e-20)
(0.119319 0.0161964 -1.87366e-21)
(0.205921 0.0162407 -1.21014e-19)
(0.309918 0.0185722 0)
(0.42769 0.0235786 -9.97005e-20)
(0.554373 0.0311408 9.41924e-20)
(0.684154 0.0406901 1.31589e-21)
(0.810858 0.0513109 -1.60118e-19)
(0.928671 0.0618951 -1.4731e-19)
(1.03281 0.071324 2.11525e-21)
(1.12003 0.078641 -1.23665e-19)
(1.18882 0.0831823 2.95314e-19)
(1.23943 0.0846415 0)
(1.27355 0.0830665 -1.95676e-19)
(1.29385 0.0787832 9.49228e-20)
(1.30349 0.0723334 8.5064e-20)
(1.30549 0.0642146 0)
(1.30251 0.0553054 7.08799e-20)
(1.2963 0.0452169 -2.43802e-19)
(1.28816 0.0370715 2.28873e-19)
(1.27944 0.0237983 1.44772e-19)
(-0.0114306 0.00788177 -7.98072e-20)
(-0.0024199 0.0111141 -8.26482e-20)
(0.0364119 0.0108881 7.44321e-20)
(0.101947 0.00995556 0)
(0.191541 0.0104241 0)
(0.301855 0.0137499 -3.17565e-21)
(0.428132 0.0205665 0)
(0.564098 0.0307389 -3.07942e-19)
(0.702401 0.0434792 2.85891e-19)
(0.835469 0.0575299 -3.52163e-19)
(0.956538 0.0714161 8.0401e-20)
(1.06052 0.0837237 0)
(1.14453 0.0933364 1.34936e-19)
(1.20798 0.0995832 -2.50338e-19)
(1.25228 0.102275 5.94905e-20)
(1.28023 0.10164 1.54792e-19)
(1.29538 0.0981936 -5.7625e-21)
(1.30131 0.0925895 -1.72784e-19)
(1.30108 0.0854694 0)
(1.29706 0.0774155 0)
(1.29077 0.0688785 -6.29895e-20)
(1.28313 0.0600185 5.67721e-20)
(1.27464 0.0522389 2.05904e-19)
(1.26604 0.04112 -1.93314e-19)
(-0.0067096 0.00506442 -8.46188e-20)
(0.0170627 0.00441703 -8.41894e-20)
(0.07565 0.00345989 2.36569e-19)
(0.164329 0.00425842 -1.43248e-19)
(0.278423 0.00847411 1.34831e-19)
(0.411945 0.0170826 2.44252e-19)
(0.55707 0.0299952 -1.72894e-19)
(0.704661 0.0461744 -2.10301e-19)
(0.845465 0.0639399 4.36841e-21)
(0.971519 0.0813646 2.67718e-19)
(1.07728 0.0966824 0)
(1.16015 0.108604 7.39582e-20)
(1.22039 0.116472 0)
(1.26047 0.120246 -1.21083e-19)
(1.2842 0.120362 1.70299e-19)
(1.29576 0.117526 1.60874e-21)
(1.29902 0.112514 -4.51096e-20)
(1.29706 0.106029 8.50275e-20)
(1.29205 0.0986346 7.35137e-20)
(1.28534 0.0907296 -6.62525e-20)
(1.27772 0.0826348 6.29765e-20)
(1.26956 0.074402 -5.67595e-20)
(1.26109 0.0669186 0)
(1.25269 0.057115 -4.30987e-20)
(0.000517604 0.00198781 8.46067e-20)
(0.0434454 -0.00206838 8.91011e-20)
(0.125351 -0.00235806 -7.93552e-20)
(0.239376 0.00211048 1.48032e-19)
(0.377982 0.0121207 -1.39326e-19)
(0.531738 0.0276771 1.25855e-19)
(0.689505 0.0475059 -6.06018e-20)
(0.839949 0.069403 1.57921e-19)
(0.973469 0.0908492 -9.95633e-20)
(1.08369 0.109611 1.76101e-19)
(1.16808 0.124158 -4.06539e-19)
(1.22756 0.133831 1.49599e-19)
(1.26557 0.138749 -1.30957e-19)
(1.28678 0.139571 1.23011e-19)
(1.296 0.137209 1.06745e-19)
(1.2974 0.13258 9.41771e-20)
(1.29411 0.12646 -2.62203e-19)
(1.28824 0.119429 1.62932e-19)
(1.28109 0.111887 -7.35185e-20)
(1.27333 0.1041 1.92693e-19)
(1.26531 0.0962429 -6.22221e-20)
(1.25716 0.0884241 -1.52456e-19)
(1.24893 0.0810613 1.40911e-19)
(1.24075 0.0722212 4.30867e-20)
(0.0105423 -0.000948705 0)
(0.0771328 -0.00722099 9.18569e-22)
(0.185395 -0.00491727 1.67099e-19)
(0.325652 0.00538161 -1.56561e-19)
(0.486672 0.0230066 -1.41112e-19)
(0.655218 0.0464362 2.62189e-19)
(0.817459 0.0728807 -1.21725e-19)
(0.961515 0.0990336 1.61846e-19)
(1.07957 0.121981 -3.60484e-21)
(1.16865 0.139803 -9.17033e-20)
(1.2301 0.151758 1.99679e-19)
(1.26816 0.158106 -2.95053e-19)
(1.28839 0.159747 0)
(1.29626 0.157827 -5.80957e-20)
(1.29632 0.153444 -1.55421e-19)
(1.29191 0.147483 4.88535e-20)
(1.28519 0.140581 1.83956e-21)
(1.27745 0.133155 -1.08459e-19)
(1.26933 0.12547 6.33382e-21)
(1.26113 0.117693 1.25682e-19)
(1.25297 0.109936 -5.64945e-20)
(1.24487 0.10229 -2.15665e-20)
(1.23678 0.0948906 6.61792e-20)
(1.22876 0.0867285 0)
(0.0235666 -0.00328504 0)
(0.11811 -0.00980805 4.53769e-20)
(0.254804 -0.00254682 -2.18662e-19)
(0.420442 0.0157113 7.95247e-20)
(0.599592 0.0421809 -7.48432e-20)
(0.775647 0.0733714 -6.84842e-20)
(0.93371 0.104999 -1.20672e-19)
(1.0636 0.133149 6.04064e-20)
(1.16118 0.155228 5.2279e-20)
(1.22776 0.170239 0)
(1.26824 0.178522 1.18967e-19)
(1.28906 0.181228 -1.77313e-19)
(1.29651 0.179792 1.31871e-19)
(1.29571 0.175553 5.81276e-20)
(1.29037 0.169563 -4.78649e-20)
(1.28282 0.162558 -4.01629e-20)
(1.2744 0.155005 -3.76046e-20)
(1.26578 0.147185 1.1215e-19)
(1.25726 0.139268 0)
(1.24893 0.131359 5.67695e-20)
(1.2408 0.123535 4.80523e-20)
(1.23283 0.115864 -1.19025e-19)
(1.22496 0.10835 -8.19653e-20)
(1.21715 0.100642 7.56507e-20)
(0.039641 -0.00451528 -4.9313e-20)
(0.165821 -0.00858902 -2.04428e-21)
(0.331667 0.00622879 4.46081e-20)
(0.519929 0.0342168 1.2497e-19)
(0.711147 0.0698743 3.63506e-20)
(0.886771 0.107635 -7.02577e-20)
(1.03313 0.14221 6.40228e-20)
(1.14383 0.169885 -5.59529e-20)
(1.21941 0.18909 1.00331e-19)
(1.26514 0.200099 4.26087e-20)
(1.28841 0.204309 -1.21183e-19)
(1.2965 0.203511 3.56304e-20)
(1.29538 0.199373 6.09248e-20)
(1.2893 0.193198 -2.99485e-20)
(1.28092 0.185877 0)
(1.27174 0.177963 4.48054e-20)
(1.26248 0.169777 7.60074e-20)
(1.25346 0.161501 1.31298e-20)
(1.24478 0.153241 -6.34885e-20)
(1.23644 0.145069 2.66288e-20)
(1.2284 0.137041 0)
(1.22058 0.12919 -2.10139e-20)
(1.21291 0.121481 -2.0015e-20)
(1.2053 0.113992 0)
(0.0586009 -0.0041134 0)
(0.219098 -0.00242458 2.58788e-20)
(0.41321 0.0225126 4.7958e-20)
(0.619619 0.0613401 -1.27754e-19)
(0.815919 0.105527 4.1373e-20)
(0.983833 0.147819 0)
(1.11321 0.1828 6.18963e-20)
(1.20269 0.207799 -8.64313e-20)
(1.25739 0.222731 -5.01838e-20)
(1.28555 0.229171 2.2601e-20)
(1.29571 0.229333 -3.62889e-20)
(1.29499 0.225339 8.80444e-20)
(1.28845 0.218849 4.40453e-20)
(1.27929 0.210998 -3.06138e-20)
(1.26927 0.202476 -2.87082e-21)
(1.25926 0.193672 -8.39647e-20)
(1.24963 0.184795 3.82505e-20)
(1.24047 0.175961 -9.74586e-22)
(1.2318 0.167239 0)
(1.22356 0.158679 -2.66568e-20)
(1.21567 0.150318 0)
(1.20806 0.142158 6.05396e-20)
(1.20065 0.134206 -7.21047e-20)
(1.19329 0.126736 3.28946e-20)
(0.0800241 -0.00157179 -1.35867e-20)
(0.276169 0.00961567 -6.54691e-20)
(0.496027 0.0469135 7.45952e-20)
(0.714905 0.0968289 4.37909e-20)
(0.909395 0.147982 -2.08907e-20)
(1.06395 0.192308 3.50732e-20)
(1.17361 0.225284 -1.70252e-20)
(1.24228 0.24593 2.82552e-20)
(1.27879 0.25579 0)
(1.29311 0.257536 6.38934e-20)
(1.29385 0.253884 -2.66993e-21)
(1.28732 0.247017 -5.1507e-20)
(1.27751 0.238433 2.20415e-20)
(1.26664 0.229043 -2.48747e-20)
(1.2558 0.219349 -9.47267e-21)
(1.24544 0.20961 1.09343e-20)
(1.2357 0.199958 -8.45284e-21)
(1.22657 0.190464 -4.59122e-20)
(1.21801 0.181176 2.81379e-20)
(1.20995 0.172126 5.76947e-21)
(1.20229 0.163329 5.08671e-21)
(1.19494 0.154776 4.48691e-21)
(1.1878 0.146538 0)
(1.1807 0.138878 0)
(0.103297 0.00356429 1.35961e-20)
(0.334897 0.0281721 -1.36009e-20)
(0.57657 0.0794865 -2.48839e-20)
(0.80173 0.139822 0)
(0.988431 0.195737 -1.03894e-20)
(1.12598 0.239546 -9.37055e-21)
(1.21534 0.268527 -1.59864e-20)
(1.26513 0.283722 0)
(1.28673 0.288181 0)
(1.29068 0.285362 0)
(1.28498 0.278183 0)
(1.27482 0.268699 0)
(1.26316 0.258168 -1.38702e-20)
(1.25145 0.247279 6.31921e-21)
(1.24029 0.236378 1.09719e-20)
(1.22988 0.225627 5.12684e-21)
(1.22023 0.215103 1.26975e-20)
(1.21129 0.204851 0)
(1.20298 0.194899 -3.04911e-21)
(1.19521 0.185267 -2.91599e-21)
(1.18788 0.175949 -5.09482e-21)
(1.18088 0.166943 -4.49408e-21)
(1.1741 0.158386 0)
(1.16739 0.150368 3.23096e-21)
(-0.00184719 0.0224009 8.93638e-21)
(-0.00761528 0.0632391 -9.24686e-21)
(-0.0171131 0.0997568 -1.74689e-20)
(-0.0287311 0.131103 0)
(-0.041516 0.157153 -2.33263e-20)
(-0.0548768 0.178535 7.33822e-21)
(-0.0682858 0.196331 -1.38028e-20)
(-0.0812725 0.211724 0)
(-0.0934437 0.225729 0)
(-0.104482 0.239041 0)
(-0.114136 0.251991 0)
(-0.122198 0.264586 0)
(-0.128489 0.276576 6.08982e-23)
(-0.13284 0.287528 -9.33217e-21)
(-0.13508 0.296875 1.78606e-20)
(-0.135032 0.303959 2.55782e-20)
(-0.132518 0.308051 8.26287e-21)
(-0.127364 0.308383 0)
(-0.119424 0.304185 7.45121e-21)
(-0.108602 0.294744 -2.13755e-20)
(-0.094836 0.279398 -1.38323e-20)
(-0.0780758 0.257724 -1.33063e-20)
(-0.0582941 0.229514 0)
(-0.0358206 0.195186 0)
(-0.00299274 0.0249288 -2.68144e-20)
(-0.00967715 0.0695352 4.61583e-20)
(-0.0181315 0.109019 -1.73604e-20)
(-0.0275654 0.142697 -3.28414e-20)
(-0.0374603 0.170464 4.64392e-20)
(-0.0474451 0.192919 -2.91676e-20)
(-0.0571403 0.211118 4.12307e-20)
(-0.0661595 0.226261 2.58068e-20)
(-0.0741325 0.239416 0)
(-0.0807197 0.251357 -2.33685e-20)
(-0.0856197 0.262496 -3.41986e-22)
(-0.0885678 0.272904 2.06227e-20)
(-0.0893285 0.282377 2.95016e-20)
(-0.0876908 0.290507 3.77613e-20)
(-0.0834603 0.296739 -1.72375e-20)
(-0.0764594 0.300426 -5.08706e-20)
(-0.0665345 0.300863 1.68679e-20)
(-0.0535566 0.29732 -6.27314e-20)
(-0.0374152 0.289082 0)
(-0.0181746 0.27548 1.43558e-20)
(0.00409501 0.255953 1.38076e-20)
(0.0293627 0.230141 1.32822e-20)
(0.057681 0.198003 0)
(0.0893456 0.160324 0)
(-0.0042283 0.0256575 0)
(-0.0120372 0.0717697 9.20543e-20)
(-0.0196092 0.112888 -3.47083e-20)
(-0.0268598 0.148173 3.27161e-20)
(-0.0336542 0.177344 -9.21555e-20)
(-0.0398307 0.200819 0)
(-0.0451746 0.219506 -5.45441e-20)
(-0.049417 0.234518 2.55216e-20)
(-0.0522515 0.246908 -4.82302e-20)
(-0.0533561 0.257493 2.25743e-20)
(-0.0524149 0.266762 1.30305e-19)
(-0.0491343 0.274876 -6.12517e-20)
(-0.0432423 0.281711 -9.8467e-20)
(-0.0345073 0.286929 -3.83869e-20)
(-0.0227391 0.290035 -1.39849e-21)
(-0.00777907 0.290443 1.36978e-19)
(0.0104802 0.287516 -6.50333e-20)
(0.0320898 0.280606 -1.40166e-22)
(0.0570406 0.269084 0)
(0.0852258 0.252351 -5.95354e-20)
(0.116459 0.229973 0)
(0.150505 0.201589 -5.73886e-20)
(0.187214 0.167173 2.16011e-19)
(0.228737 0.127182 2.92689e-21)
(-0.00533528 0.0247826 0)
(-0.0143264 0.0702022 -6.41967e-23)
(-0.0213192 0.111456 3.45194e-20)
(-0.0266884 0.147347 -3.23777e-20)
(-0.0305534 0.177313 3.07344e-20)
(-0.0329097 0.201502 1.72096e-19)
(-0.033697 0.220585 -5.40212e-20)
(-0.0327846 0.235499 -5.05802e-20)
(-0.0299709 0.247209 9.58472e-20)
(-0.0250025 0.256521 -1.36443e-19)
(-0.0176005 0.263977 4.23313e-20)
(-0.00748654 0.269827 4.03825e-20)
(0.00559789 0.274053 0)
(0.0218731 0.276417 3.71128e-20)
(0.0415093 0.276529 0)
(0.0646215 0.273904 6.74815e-20)
(0.0912602 0.268004 -1.32922e-19)
(0.121406 0.258286 2.78408e-20)
(0.154968 0.244229 1.20745e-19)
(0.191787 0.225354 5.94598e-20)
(0.231615 0.201283 0)
(0.274393 0.171638 -1.69963e-19)
(0.31861 0.136443 5.29697e-20)
(0.371614 0.0955481 0)
(-0.00617426 0.0227166 0)
(-0.0162911 0.0655668 -1.09924e-19)
(-0.0231072 0.105417 -3.42612e-20)
(-0.0271274 0.140677 -6.45804e-20)
(-0.0285591 0.170503 6.08049e-20)
(-0.0274787 0.194768 -5.71808e-20)
(-0.0239443 0.213871 1.06944e-19)
(-0.0179625 0.228526 5.05945e-20)
(-0.00946375 0.239545 -1.42234e-19)
(0.00169101 0.247668 8.9593e-20)
(0.0156886 0.253447 -1.2719e-19)
(0.0327363 0.257195 2.79877e-19)
(0.0530348 0.258994 -1.5141e-19)
(0.0767551 0.258724 7.19464e-20)
(0.104022 0.256119 2.09765e-19)
(0.134906 0.250812 -6.40784e-20)
(0.169414 0.242385 -6.01679e-20)
(0.207493 0.230404 -6.12494e-20)
(0.249033 0.214446 0)
(0.293951 0.194082 -1.19428e-19)
(0.341801 0.169003 -1.19776e-19)
(0.393619 0.138918 1.63033e-19)
(0.444689 0.103847 2.18509e-19)
(0.511612 0.0626858 -2.03645e-19)
(-0.00673319 0.0199968 0)
(-0.0178752 0.0589159 -1.45971e-19)
(-0.0249419 0.0959359 5.83924e-22)
(-0.0282495 0.1292 1.28994e-19)
(-0.0279331 0.157682 0)
(-0.0240718 0.18105 0)
(-0.0167943 0.199463 0)
(-0.00622203 0.213408 -4.99339e-20)
(0.00757942 0.223519 -5.19206e-23)
(0.0246124 0.230425 8.77397e-20)
(0.044938 0.23464 -1.26234e-19)
(0.0686558 0.236505 -5.38524e-22)
(0.0958802 0.236171 0)
(0.126719 0.233625 -7.19094e-20)
(0.16126 0.228712 6.88738e-20)
(0.199558 0.221185 -1.93846e-19)
(0.241648 0.210728 2.53894e-19)
(0.287543 0.197003 6.59329e-20)
(0.337142 0.179631 7.6041e-21)
(0.39064 0.158363 -2.25366e-19)
(0.447275 0.132796 -1.09343e-19)
(0.510218 0.102864 3.78664e-19)
(0.568499 0.0682751 -2.54288e-19)
(0.652013 0.0273476 0)
(-0.00712871 0.0171896 7.09746e-20)
(-0.0192303 0.0514419 7.30037e-20)
(-0.0269146 0.084473 -6.82473e-20)
(-0.0300771 0.114412 -1.2764e-19)
(-0.0286697 0.140228 1.20174e-19)
(-0.0227191 0.161504 -1.11612e-19)
(-0.0123782 0.178243 1.57057e-19)
(0.00215475 0.19075 -4.97776e-20)
(0.0207064 0.19949 9.19255e-20)
(0.0431602 0.204966 0)
(0.0694648 0.207625 8.08606e-20)
(0.0996281 0.207794 -1.51342e-19)
(0.133705 0.205663 1.46658e-19)
(0.171781 0.201282 -1.37735e-19)
(0.213971 0.194581 0)
(0.26039 0.185402 1.27311e-19)
(0.311172 0.173516 2.46909e-19)
(0.366465 0.158661 -2.33391e-19)
(0.426364 0.140538 -1.12813e-19)
(0.491288 0.119017 -1.163e-19)
(0.559305 0.0933655 3.20921e-19)
(0.636339 0.064385 1.04842e-19)
(0.703666 0.0307021 -9.54706e-20)
(0.806136 -0.0075371 9.28032e-20)
(-0.00757319 0.0147918 -7.09845e-20)
(-0.0206445 0.0442588 2.17651e-19)
(-0.02914 0.0725249 -6.84129e-20)
(-0.0324439 0.0980367 1.27015e-19)
(-0.0302879 0.119969 -1.19585e-19)
(-0.0226234 0.137959 1.35242e-22)
(-0.00958824 0.151968 5.19918e-20)
(0.00859757 0.162192 1.91687e-19)
(0.0317169 0.168972 -8.06578e-22)
(0.0596058 0.1727 -8.5584e-20)
(0.0921785 0.173746 0)
(0.129436 0.172401 -7.48357e-20)
(0.17146 0.168857 1.41608e-19)
(0.21839 0.16319 1.3639e-19)
(0.270424 0.155386 -6.42025e-20)
(0.327785 0.145344 -1.58646e-21)
(0.390636 0.132884 -6.04412e-20)
(0.459068 0.117805 1.13409e-19)
(0.532837 0.099811 1.12802e-19)
(0.612238 0.078996 -1.09169e-19)
(0.694029 0.0543075 1.01659e-19)
(0.784903 0.0280597 -9.74362e-20)
(0.860682 -0.00374698 0)
(0.974382 -0.0357595 -9.27898e-20)
(-0.00830126 0.0131359 7.07288e-20)
(-0.0223848 0.038193 -7.26681e-20)
(-0.0315561 0.061358 6.80948e-20)
(-0.0347629 0.0817387 0)
(-0.0315507 0.0989101 0)
(-0.0217947 0.112707 1.09404e-19)
(-0.00557484 0.123153 -1.0337e-19)
(0.0169437 0.130425 9.44448e-20)
(0.0456004 0.134801 -4.46181e-19)
(0.0802956 0.136598 2.13819e-22)
(0.121017 0.136121 7.7832e-20)
(0.16784 0.13362 0)
(0.220908 0.129263 -1.40165e-19)
(0.28039 0.123132 2.65069e-19)
(0.346389 0.115219 -1.89177e-19)
(0.418882 0.105426 -3.05927e-19)
(0.497635 0.0936129 -5.60559e-21)
(0.582107 0.0796436 2.17877e-19)
(0.671183 0.0632676 0)
(0.763968 0.0448382 0)
(0.856438 0.0230436 -1.01663e-19)
(0.952671 0.00139681 9.74406e-20)
(1.03071 -0.0269217 -3.6288e-19)
(1.13625 -0.049828 3.3978e-19)
(-0.00946572 0.0123178 0)
(-0.0244916 0.0336216 0)
(-0.0336906 0.0517777 -2.03897e-19)
(-0.035797 0.066829 6.5031e-20)
(-0.0302526 0.0788962 1.36658e-21)
(-0.0168587 0.0881186 1.10911e-19)
(0.00441201 0.094677 0)
(0.0335294 0.0988065 -9.51845e-20)
(0.0704749 0.100783 8.89537e-20)
(0.115272 0.100893 -1.64644e-19)
(0.167976 0.0993964 -4.42447e-23)
(0.228633 0.0965 1.46057e-19)
(0.297199 0.0923327 1.07952e-21)
(0.373451 0.0869392 1.33014e-19)
(0.456885 0.0802741 -1.84988e-19)
(0.546613 0.0722347 0)
(0.641316 0.0626726 2.29791e-19)
(0.73921 0.0514309 -3.26129e-19)
(0.838007 0.0383312 1.02535e-19)
(0.935283 0.0235458 0)
(1.02728 0.00621047 9.25414e-20)
(1.11396 -0.010726 3.61834e-19)
(1.18239 -0.034243 -3.39591e-19)
(1.25846 -0.0490889 -3.90524e-19)
(-0.011035 0.0121669 2.1301e-19)
(-0.0266057 0.0303971 -2.92475e-19)
(-0.0345284 0.0439904 1.06757e-21)
(-0.0336229 0.054033 6.47238e-20)
(-0.0233436 0.0612603 -1.19545e-19)
(-0.00342596 0.0661828 -1.10446e-19)
(0.0262806 0.0691994 2.03924e-19)
(0.0658827 0.0706573 -2.58689e-21)
(0.115446 0.0708752 -1.78142e-19)
(0.174955 0.0701335 3.30267e-19)
(0.244232 0.0686549 -4.01703e-22)
(0.322836 0.0665826 -1.45119e-19)
(0.409955 0.0639648 0)
(0.504324 0.0607501 0)
(0.60418 0.0567939 -6.18306e-20)
(0.707274 0.0518776 -1.16127e-19)
(0.810943 0.0457517 -2.24327e-19)
(0.912218 0.0381186 2.10563e-19)
(1.00805 0.0288552 -1.02589e-19)
(1.09543 0.0176231 1.91256e-19)
(1.1717 0.00467349 -9.20588e-20)
(1.2353 -0.00959043 1.68717e-19)
(1.28224 -0.0279639 -3.92727e-19)
(1.32125 -0.0395549 7.63988e-20)
(-0.012748 0.0122948 7.16261e-20)
(-0.0279245 0.0279256 0)
(-0.0325629 0.0376076 1.3789e-19)
(-0.0258854 0.0433852 -1.29897e-19)
(-0.00747839 0.0465921 1.19657e-19)
(0.0229181 0.0481157 0)
(0.0654793 0.0485852 0)
(0.120253 0.0484772 -9.52186e-20)
(0.187066 0.0481576 1.81066e-21)
(0.265383 0.0478858 8.40559e-20)
(0.354186 0.0478052 -7.76696e-20)
(0.451875 0.0479294 1.45731e-19)
(0.55624 0.0481363 0)
(0.66451 0.0481767 2.59089e-19)
(0.773485 0.0476999 -4.8811e-19)
(0.879724 0.0462916 3.46081e-19)
(0.979793 0.0435418 2.18385e-19)
(1.0705 0.0390319 -2.05002e-19)
(1.14921 0.0326362 0)
(1.21393 0.0237573 0)
(1.26388 0.0135801 0)
(1.29896 -0.000364039 0)
(1.3205 -0.0135031 7.58384e-20)
(1.33194 -0.02899 -2.65989e-19)
(-0.00832058 0.149967 -8.63187e-21)
(0.0247831 0.0845779 8.69636e-21)
(0.0600997 0.00647915 -2.78881e-22)
(0.0980444 -0.0816936 0)
(0.137855 -0.176858 -7.67045e-21)
(0.178376 -0.274424 1.44795e-20)
(0.218644 -0.369186 -5.63981e-22)
(0.257014 -0.454255 -6.08831e-21)
(0.291381 -0.523248 0)
(0.319047 -0.572212 0)
(0.336873 -0.601387 -2.17779e-22)
(0.341553 -0.615593 -1.79429e-22)
(0.331594 -0.621276 -2.52585e-21)
(0.311354 -0.619364 2.30814e-21)
(0.293131 -0.599384 0)
(0.292772 -0.542802 0)
(0.32011 -0.435907 2.43242e-21)
(0.373 -0.280365 1.73988e-22)
(0.4417 -0.092413 -2.32035e-21)
(0.516046 0.103434 -1.40066e-22)
(0.587548 0.278206 0)
(0.649186 0.407722 0)
(0.695758 0.484565 0)
(0.725263 0.517077 0)
(0.74082 0.5195 0)
(0.7457 0.508844 0)
(0.736249 0.506687 3.05222e-22)
(0.707738 0.521306 -4.95838e-22)
(0.668483 0.526901 0)
(0.641284 0.471682 0)
(0.644107 0.325934 -6.64432e-22)
(0.67633 0.113529 6.45735e-22)
(0.724795 -0.104908 3.31312e-22)
(0.772406 -0.275155 0)
(0.809692 -0.378589 0)
(0.833337 -0.418868 2.9748e-22)
(0.845054 -0.430111 -2.89166e-22)
(0.83435 -0.437934 0)
(0.797597 -0.455289 2.24548e-22)
(0.747392 -0.436723 -3.27166e-22)
(0.711745 -0.346844 1.24471e-22)
(0.707715 -0.181372 0)
(0.733795 0.0160679 -2.60994e-22)
(0.773737 0.172137 2.53785e-22)
(0.817346 0.289113 0)
(0.833533 0.340882 0)
(0.816757 0.399268 -6.94215e-23)
(0.775366 0.39353 2.0548e-22)
(0.745741 0.333403 0)
(0.747835 0.191107 0)
(0.784581 -0.00240099 -6.60078e-23)
(0.814023 -0.114708 -5.97426e-24)
(0.830373 -0.279404 -8.15695e-24)
(0.804047 -0.308688 3.83451e-23)
(0.793702 -0.363853 0)
(0.789349 -0.28617 0)
(0.803658 -0.0913295 0)
(0.797896 -0.0157983 0)
(0.805927 0.286961 0)
(0.785707 0.254818 0)
(0.12506 0.113317 -8.90639e-22)
(0.162116 0.0464056 -3.80087e-20)
(0.199859 -0.0331193 2.36973e-22)
(0.239192 -0.122261 3.54158e-20)
(0.278847 -0.217843 5.42683e-22)
(0.317691 -0.315443 0)
(0.35463 -0.409073 -2.64371e-20)
(0.387898 -0.491315 4.93179e-20)
(0.415176 -0.555176 -2.28644e-20)
(0.434159 -0.596139 1.59661e-20)
(0.442865 -0.613956 -1.53014e-20)
(0.43902 -0.613819 1.04702e-20)
(0.419825 -0.605283 -1.01957e-20)
(0.385304 -0.595731 -2.43891e-22)
(0.343717 -0.580759 -7.58304e-21)
(0.311699 -0.541776 7.36995e-21)
(0.305777 -0.457464 -8.15365e-21)
(0.331917 -0.320465 7.69169e-21)
(0.384112 -0.14317 -8.69047e-21)
(0.451748 0.0488956 1.64114e-20)
(0.524088 0.226947 -7.74276e-21)
(0.591933 0.365583 -3.58448e-22)
(0.648077 0.454856 -4.59045e-21)
(0.688925 0.49929 8.25496e-21)
(0.71601 0.511152 -3.68707e-21)
(0.730222 0.509159 1.9353e-22)
(0.726945 0.516437 3.43495e-21)
(0.70417 0.538178 5.91334e-22)
(0.673834 0.543293 -8.033e-21)
(0.658789 0.479136 9.50592e-21)
(0.672786 0.320769 -5.07452e-21)
(0.712281 0.098119 7.60389e-22)
(0.763098 -0.125261 -3.31968e-22)
(0.808039 -0.293663 5.91458e-22)
(0.838867 -0.391467 0)
(0.853458 -0.425621 0)
(0.857582 -0.429669 -9.81646e-22)
(0.842047 -0.428507 7.38176e-22)
(0.802687 -0.438766 6.32265e-22)
(0.747562 -0.420415 2.01517e-22)
(0.705551 -0.339109 -9.94128e-22)
(0.696058 -0.185289 2.38362e-22)
(0.720612 0.00350426 0)
(0.76333 0.156991 0)
(0.809305 0.278735 0)
(0.828522 0.340137 0)
(0.812394 0.406999 2.77611e-22)
(0.774874 0.403382 -1.38099e-22)
(0.747647 0.337534 0)
(0.752255 0.187164 0)
(0.7906 -0.0108314 0)
(0.820382 -0.1201 -1.18164e-22)
(0.839203 -0.278191 1.45823e-23)
(0.80996 -0.304718 -8.47869e-23)
(0.799768 -0.362032 0)
(0.792171 -0.287048 0)
(0.803198 -0.0924067 4.8141e-23)
(0.795845 -0.0157543 1.22554e-22)
(0.801089 0.288309 0)
(0.783307 0.255971 0)
(0.267437 0.0794254 3.06803e-21)
(0.3071 0.0120361 -7.84137e-20)
(0.346474 -0.066865 7.89527e-20)
(0.386715 -0.154941 -7.38217e-20)
(0.426241 -0.249121 -5.46267e-22)
(0.463559 -0.345103 0)
(0.497194 -0.436459 -5.67068e-20)
(0.524899 -0.515263 5.54951e-20)
(0.544029 -0.574185 3.34907e-22)
(0.552647 -0.608658 5.56171e-22)
(0.550089 -0.618283 4.42865e-22)
(0.536274 -0.607445 3.57298e-22)
(0.509812 -0.585618 -1.67499e-20)
(0.468016 -0.564364 1.65253e-20)
(0.412768 -0.547427 0)
(0.356597 -0.521671 3.44436e-22)
(0.319083 -0.46208 -1.30264e-20)
(0.314866 -0.350622 1.28923e-20)
(0.344876 -0.19131 0)
(0.400575 -0.00767591 0)
(0.469787 0.170109 -1.19967e-20)
(0.54071 0.316214 2.175e-20)
(0.604329 0.417504 -1.75521e-20)
(0.655456 0.4744 1.1716e-21)
(0.693424 0.497133 1.27852e-20)
(0.716575 0.5054 -1.26077e-20)
(0.719884 0.522685 1.24916e-20)
(0.704093 0.551074 7.61395e-22)
(0.68377 0.555707 -7.55346e-21)
(0.680877 0.484333 0)
(0.705716 0.316202 0)
(0.751842 0.0860954 4.604e-21)
(0.804026 -0.140757 -5.99614e-21)
(0.845651 -0.307047 2.6081e-23)
(0.869769 -0.399719 3.30247e-21)
(0.875319 -0.428847 -3.20942e-21)
(0.871751 -0.427185 0)
(0.851646 -0.418133 2.16904e-22)
(0.810551 -0.421589 1.69579e-21)
(0.751555 -0.40355 -3.38706e-21)
(0.70369 -0.331276 1.53568e-21)
(0.688545 -0.190106 1.72488e-22)
(0.711059 -0.0107068 -2.04314e-21)
(0.75579 0.13998 1.59695e-21)
(0.803405 0.266989 3.09927e-22)
(0.82543 0.338387 2.81224e-22)
(0.810272 0.413884 -2.7833e-22)
(0.777057 0.412809 0)
(0.752566 0.34177 0)
(0.759495 0.183921 -1.45913e-21)
(0.798858 -0.0187418 6.85045e-22)
(0.828501 -0.12521 -5.87919e-22)
(0.849585 -0.276548 6.93798e-22)
(0.817137 -0.300333 6.58015e-22)
(0.806619 -0.359822 -1.56601e-22)
(0.795838 -0.287745 2.09891e-22)
(0.803931 -0.0931677 -1.72196e-22)
(0.795024 -0.0155312 4.91852e-23)
(0.797332 0.289556 0)
(0.781882 0.257029 0)
(0.410243 0.0484062 -1.63467e-19)
(0.451617 -0.0184694 -1.64442e-21)
(0.492972 -0.0959565 1.57283e-19)
(0.534662 -0.181735 -1.19793e-21)
(0.574672 -0.273281 0)
(0.610982 -0.366483 0)
(0.641549 -0.45442 -1.1593e-19)
(0.663514 -0.528715 1.26478e-20)
(0.674009 -0.581965 1.36909e-19)
(0.67155 -0.610005 -7.41542e-21)
(0.656536 -0.613156 -3.22041e-20)
(0.630863 -0.595514 -1.93013e-20)
(0.596151 -0.564426 1.9422e-20)
(0.550723 -0.531125 0)
(0.491294 -0.50566 -1.06899e-20)
(0.422008 -0.484668 9.76405e-21)
(0.359428 -0.446581 0)
(0.324364 -0.365238 0)
(0.327667 -0.232006 1.06302e-20)
(0.365661 -0.0633098 -2.16352e-23)
(0.426627 0.109919 -9.66563e-21)
(0.496954 0.261039 -8.299e-21)
(0.56544 0.373167 8.16838e-21)
(0.625212 0.442583 -6.19725e-21)
(0.672886 0.477243 2.58856e-22)
(0.704345 0.496824 5.58247e-21)
(0.71454 0.524138 7.61242e-22)
(0.706643 0.558679 9.86549e-24)
(0.696899 0.563425 0)
(0.70588 0.487337 1.16218e-20)
(0.741092 0.313093 -1.20689e-20)
(0.793391 0.0775357 8.09253e-22)
(0.846676 -0.151469 0)
(0.884669 -0.315857 -6.24723e-22)
(0.902057 -0.403969 6.79967e-21)
(0.898788 -0.428923 -1.09168e-20)
(0.887449 -0.422998 5.42362e-22)
(0.862819 -0.407355 6.39039e-22)
(0.820715 -0.404183 2.6488e-21)
(0.759166 -0.385989 3.48831e-22)
(0.706248 -0.322786 -2.98218e-21)
(0.685344 -0.195312 2.48439e-21)
(0.705132 -0.0261845 6.02067e-23)
(0.750985 0.121366 1.26894e-21)
(0.799535 0.253918 -1.54471e-21)
(0.824197 0.335462 -1.91946e-21)
(0.810383 0.419688 5.37824e-22)
(0.781869 0.421674 1.35372e-21)
(0.760499 0.346203 -2.84366e-21)
(0.769558 0.181649 2.24212e-21)
(0.809322 -0.0259088 -6.00395e-22)
(0.838272 -0.130028 7.97972e-22)
(0.861383 -0.274534 6.00783e-22)
(0.825519 -0.295485 -1.00181e-21)
(0.814175 -0.357152 3.29555e-23)
(0.800225 -0.288264 -1.6508e-22)
(0.805777 -0.0936534 0)
(0.795375 -0.0151456 -8.46137e-23)
(0.794619 0.290717 1.07203e-22)
(0.781435 0.258004 0)
(0.549704 0.0172747 1.63526e-19)
(0.592406 -0.0470483 -3.2337e-19)
(0.636339 -0.121725 1.57265e-19)
(0.68016 -0.203672 1.52695e-19)
(0.72072 -0.290948 -2.92644e-19)
(0.755581 -0.37945 9.72712e-21)
(0.782257 -0.461881 1.27702e-19)
(0.797377 -0.529956 9.84531e-20)
(0.798206 -0.576759 -9.63866e-20)
(0.784199 -0.598741 0)
(0.757008 -0.5969 -5.08322e-20)
(0.719659 -0.575746 8.83165e-20)
(0.675681 -0.541044 -3.78375e-20)
(0.62647 -0.500494 0)
(0.568381 -0.46484 0)
(0.497745 -0.439753 2.80332e-22)
(0.421819 -0.413846 -1.42795e-20)
(0.360751 -0.360772 1.38738e-20)
(0.33473 -0.259611 0)
(0.349432 -0.11423 1.52998e-20)
(0.396761 0.0490056 -2.83685e-20)
(0.462209 0.201566 2.57262e-20)
(0.532346 0.322489 -2.30269e-20)
(0.598374 0.403874 4.99721e-22)
(0.653973 0.451042 1.99526e-20)
(0.69285 0.482555 -1.00561e-20)
(0.710058 0.519728 -3.74526e-22)
(0.710657 0.560202 -7.33929e-21)
(0.711674 0.566228 -2.14704e-21)
(0.732062 0.488531 9.42041e-21)
(0.776835 0.311612 7.87749e-22)
(0.835189 0.0731881 -1.33181e-20)
(0.889953 -0.157074 2.46869e-20)
(0.92431 -0.319826 -1.27297e-20)
(0.935081 -0.40405 0)
(0.923427 -0.425739 -5.76733e-21)
(0.904465 -0.417023 5.43426e-21)
(0.875395 -0.396342 -2.51304e-21)
(0.83284 -0.387059 3.14988e-21)
(0.770074 -0.368185 -2.6818e-22)
(0.713105 -0.31361 0)
(0.686438 -0.200479 -2.93712e-22)
(0.702697 -0.0426055 9.20435e-22)
(0.748707 0.101373 0)
(0.797514 0.239471 2.59027e-21)
(0.824681 0.331114 -1.02239e-21)
(0.81262 0.42414 5.44583e-22)
(0.789154 0.429837 6.41762e-22)
(0.771313 0.350879 0)
(0.782332 0.180482 0)
(0.82191 -0.0321576 -2.18569e-21)
(0.84957 -0.134499 3.20335e-21)
(0.874437 -0.272112 -1.62097e-21)
(0.835049 -0.290086 4.30781e-22)
(0.822372 -0.353952 5.92943e-22)
(0.805208 -0.288629 1.65235e-22)
(0.808633 -0.0939154 -1.98958e-22)
(0.796825 -0.0145983 0)
(0.79291 0.291807 -1.71283e-22)
(0.781965 0.258902 -2.00473e-23)
(0.69 -0.0144474 1.59367e-19)
(0.733408 -0.0753366 -1.58867e-19)
(0.778695 -0.145552 1.24527e-21)
(0.823451 -0.221691 -1.15301e-21)
(0.862794 -0.302675 1.14652e-21)
(0.89407 -0.384163 -1.05993e-21)
(0.914573 -0.458819 1.82193e-21)
(0.920829 -0.51911 0)
(0.910741 -0.559112 -1.34007e-21)
(0.88498 -0.576011 1.09462e-21)
(0.84657 -0.571002 8.67515e-22)
(0.799468 -0.548569 -6.84653e-22)
(0.747547 -0.514024 0)
(0.693875 -0.472119 0)
(0.637634 -0.429873 2.64668e-22)
(0.572849 -0.396265 0)
(0.496741 -0.371426 -1.3871e-22)
(0.420688 -0.337635 0)
(0.36749 -0.268958 -9.2079e-21)
(0.35428 -0.154227 1.83544e-20)
(0.382027 -0.00804556 -1.83204e-20)
(0.437725 0.140034 8.96076e-21)
(0.505727 0.266515 7.7116e-21)
(0.574963 0.358619 -7.48876e-21)
(0.636226 0.418393 -8.55756e-21)
(0.681368 0.462077 8.34396e-21)
(0.705499 0.508876 0)
(0.714837 0.555256 3.78931e-22)
(0.72649 0.564131 0)
(0.757439 0.488041 0)
(0.81099 0.311891 2.51946e-20)
(0.875609 0.0731104 -2.59628e-20)
(0.932568 -0.157642 1.60044e-21)
(0.963792 -0.319069 1.33165e-21)
(0.96826 -0.400208 -1.00403e-21)
(0.948825 -0.419502 -5.05598e-21)
(0.922534 -0.409337 4.9094e-21)
(0.889095 -0.385248 -3.13751e-21)
(0.846452 -0.370553 2.66647e-21)
(0.783718 -0.350427 5.05602e-22)
(0.72388 -0.303681 -2.12449e-21)
(0.691624 -0.205144 -2.82377e-22)
(0.703504 -0.0594655 1.51305e-21)
(0.74869 0.080225 0)
(0.797104 0.223555 -9.2203e-22)
(0.826673 0.325077 1.52219e-21)
(0.816781 0.426969 -1.95527e-21)
(0.79864 0.437132 -6.45874e-22)
(0.784719 0.355773 0)
(0.797589 0.180521 8.27965e-22)
(0.836506 -0.0372822 -1.70579e-21)
(0.862252 -0.138537 2.62493e-23)
(0.888547 -0.269278 -5.23445e-22)
(0.84566 -0.284074 5.95522e-22)
(0.831164 -0.350126 -5.83029e-22)
(0.810665 -0.288853 0)
(0.812391 -0.0940139 1.99049e-22)
(0.799289 -0.0138771 0)
(0.792155 0.292833 0)
(0.783466 0.259725 3.06088e-23)
(0.839961 -0.0458455 -1.55043e-19)
(0.879216 -0.102804 1.53474e-19)
(0.922721 -0.166096 -1.13778e-21)
(0.964338 -0.234187 1.1804e-21)