/*--------------------------------*- C++ -*----------------------------------*\
| =========                 |                                                 |
| \\      /  F ield         | OpenFOAM: The Open Source CFD Toolbox           |
|  \\    /   O peration     | Version:  2512                                  |
|   \\  /    A nd           | Website:  www.openfoam.com                      |
|    \\/     M anipulation  |                                                 |
\*---------------------------------------------------------------------------*/
FoamFile
{
    version     2.0;
    format      ascii;
    arch        "LSB;label=32;scalar=64";
    class       volScalarField;
    location    "46";
    object      p;
}
// * * * * * * * * * * * * * * * * * * * * * * * * * * * * * * * * * * * * * //

dimensions      [0 2 -2 0 0 0 0];

internalField   nonuniform List<scalar> 
13248
(
-0.280115
-0.27878
-0.276805
-0.274357
-0.271636
-0.268829
-0.266086
-0.26351
-0.261168
-0.25909
-0.257276
-0.255697
-0.254305
-0.253034
-0.251806
-0.250542
-0.249163
-0.247599
-0.245785
-0.243703
-0.241235
-0.238574
-0.235023
-0.231665
-0.28672
-0.284778
-0.282215
-0.279207
-0.275947
-0.272638
-0.269422
-0.26639
-0.263583
-0.261001
-0.258611
-0.256356
-0.254163
-0.251952
-0.249646
-0.247176
-0.244485
-0.241533
-0.238295
-0.234756
-0.23089
-0.226713
-0.222056
-0.217593
-0.294788
-0.292048
-0.288774
-0.28513
-0.281282
-0.277427
-0.273691
-0.270129
-0.266742
-0.263489
-0.260307
-0.257117
-0.253845
-0.250426
-0.246813
-0.242979
-0.238916
-0.234632
-0.230141
-0.225471
-0.220606
-0.215605
-0.210352
-0.205311
-0.304439
-0.300709
-0.296607
-0.292256
-0.28776
-0.283291
-0.278935
-0.274693
-0.270513
-0.266322
-0.262041
-0.257604
-0.25297
-0.248124
-0.243077
-0.23786
-0.232514
-0.227083
-0.221605
-0.216104
-0.210581
-0.205076
-0.199488
-0.194307
-0.315738
-0.310843
-0.305808
-0.300682
-0.295462
-0.290264
-0.285113
-0.279945
-0.274668
-0.269197
-0.263482
-0.257513
-0.251317
-0.244951
-0.238487
-0.231999
-0.225552
-0.219194
-0.212952
-0.206837
-0.200842
-0.194978
-0.189182
-0.183795
-0.328676
-0.322475
-0.31643
-0.310462
-0.304408
-0.298297
-0.292078
-0.285633
-0.278866
-0.271739
-0.26428
-0.25657
-0.248723
-0.240857
-0.233081
-0.22548
-0.218108
-0.210993
-0.20414
-0.19754
-0.191174
-0.185031
-0.179061
-0.17351
-0.34315
-0.335547
-0.32844
-0.321551
-0.314494
-0.307185
-0.299507
-0.291343
-0.282659
-0.273528
-0.264099
-0.254557
-0.24508
-0.235819
-0.226878
-0.218321
-0.210172
-0.202429
-0.195074
-0.188078
-0.181411
-0.175041
-0.168939
-0.163236
-0.358906
-0.349868
-0.341666
-0.333741
-0.325421
-0.316511
-0.306891
-0.296527
-0.285535
-0.274149
-0.262649
-0.251296
-0.240295
-0.229781
-0.219826
-0.210451
-0.201645
-0.193375
-0.185601
-0.178278
-0.171364
-0.16482
-0.158622
-0.1528
-0.375507
-0.365068
-0.355742
-0.346599
-0.33665
-0.325644
-0.31356
-0.300563
-0.286986
-0.273238
-0.259698
-0.246652
-0.234282
-0.222675
-0.211849
-0.20178
-0.192421
-0.183712
-0.175595
-0.168012
-0.160911
-0.154246
-0.147989
-0.14209
-0.392297
-0.380553
-0.370053
-0.359424
-0.34739
-0.333756
-0.318749
-0.302824
-0.286558
-0.270499
-0.255062
-0.240504
-0.226944
-0.214402
-0.202841
-0.192193
-0.182378
-0.173317
-0.164935
-0.157161
-0.149933
-0.143203
-0.136923
-0.13099
-0.408398
-0.395484
-0.383714
-0.371244
-0.356622
-0.33988
-0.321626
-0.302661
-0.28377
-0.265571
-0.248449
-0.232588
-0.218022
-0.204704
-0.192543
-0.181433
-0.171268
-0.161951
-0.153391
-0.145508
-0.138231
-0.131503
-0.125246
-0.119349
-0.422786
-0.408885
-0.395724
-0.381011
-0.363297
-0.343037
-0.321333
-0.299333
-0.277969
-0.257851
-0.23928
-0.222336
-0.206963
-0.193043
-0.180437
-0.169007
-0.158625
-0.149173
-0.140551
-0.132667
-0.125445
-0.118817
-0.112675
-0.106951
-0.248376
-0.250134
-0.251263
-0.252023
-0.252652
-0.253212
-0.253732
-0.254232
-0.254721
-0.255199
-0.255662
-0.256106
-0.256523
-0.25691
-0.257262
-0.257577
-0.257852
-0.258091
-0.258298
-0.258484
-0.258665
-0.258865
-0.259128
-0.259507
-0.249314
-0.250853
-0.251844
-0.252512
-0.253067
-0.253568
-0.254047
-0.254525
-0.255016
-0.255522
-0.256046
-0.256588
-0.25715
-0.257733
-0.258341
-0.258979
-0.259654
-0.260373
-0.261148
-0.261993
-0.262929
-0.263977
-0.265179
-0.266639
-0.250817
-0.252076
-0.252886
-0.253428
-0.253877
-0.254289
-0.254698
-0.255126
-0.25559
-0.256097
-0.256653
-0.257265
-0.257939
-0.258682
-0.259506
-0.260419
-0.261433
-0.26256
-0.26381
-0.265197
-0.26674
-0.268439
-0.270304
-0.272614
-0.252723
-0.253669
-0.254268
-0.254652
-0.254961
-0.255248
-0.255547
-0.255886
-0.256283
-0.256749
-0.257295
-0.257931
-0.258667
-0.259516
-0.260492
-0.26161
-0.262883
-0.264322
-0.265934
-0.267726
-0.269711
-0.271868
-0.274117
-0.276803
-0.254876
-0.255508
-0.255877
-0.256074
-0.256205
-0.256323
-0.256466
-0.256664
-0.25694
-0.25731
-0.257788
-0.258386
-0.259119
-0.260003
-0.261054
-0.262289
-0.263723
-0.265363
-0.267214
-0.269271
-0.271528
-0.27394
-0.276343
-0.279066
-0.25715
-0.257493
-0.257627
-0.257609
-0.257522
-0.25742
-0.257349
-0.257346
-0.257438
-0.257645
-0.257986
-0.258476
-0.259132
-0.259971
-0.261011
-0.26227
-0.26376
-0.265488
-0.267451
-0.269634
-0.27201
-0.274518
-0.276987
-0.279169
-0.259474
-0.259574
-0.259473
-0.259212
-0.258862
-0.258487
-0.258142
-0.257872
-0.257713
-0.25769
-0.257825
-0.258137
-0.258644
-0.259364
-0.260314
-0.26151
-0.262962
-0.264671
-0.266627
-0.268802
-0.271152
-0.273554
-0.276143
-0.277279
-0.261852
-0.261758
-0.261424
-0.260891
-0.260235
-0.259534
-0.258857
-0.25826
-0.257788
-0.257475
-0.257347
-0.257424
-0.257727
-0.258271
-0.259073
-0.260142
-0.261483
-0.26309
-0.264941
-0.266986
-0.269209
-0.271245
-0.274033
-0.273952
-0.264373
-0.264119
-0.263547
-0.262711
-0.261708
-0.260634
-0.259577
-0.258606
-0.257779
-0.257135
-0.256706
-0.256516
-0.256582
-0.256918
-0.257535
-0.258433
-0.259605
-0.261031
-0.262679
-0.264459
-0.266455
-0.267932
-0.270763
-0.269786
-0.26721
-0.2668
-0.265967
-0.264793
-0.263404
-0.261922
-0.260452
-0.259082
-0.257876
-0.256884
-0.256139
-0.255665
-0.255477
-0.255578
-0.255964
-0.256621
-0.257525
-0.258637
-0.259918
-0.261255
-0.26282
-0.263743
-0.266181
-0.264922
-0.270598
-0.269993
-0.268852
-0.267297
-0.265486
-0.263567
-0.261667
-0.259885
-0.25829
-0.256941
-0.255869
-0.25509
-0.254606
-0.254403
-0.254458
-0.254732
-0.255175
-0.255731
-0.256348
-0.256948
-0.257659
-0.258008
-0.259554
-0.258573
-0.274817
-0.273915
-0.272397
-0.270409
-0.26814
-0.265763
-0.26342
-0.261217
-0.259237
-0.257523
-0.256098
-0.254964
-0.254101
-0.25347
-0.253018
-0.25268
-0.252384
-0.252058
-0.251626
-0.251061
-0.250324
-0.249505
-0.249159
-0.248562
-0.260106
-0.260651
-0.261152
-0.261538
-0.26171
-0.261584
-0.260743
-0.259281
-0.256939
-0.253533
-0.248969
-0.243281
-0.236663
-0.229527
-0.222455
-0.216189
-0.211517
-0.209114
-0.209355
-0.21195
-0.215912
-0.219386
-0.219987
-0.215719
-0.204872
-0.187872
-0.166213
-0.142736
-0.121254
-0.105026
-0.0963345
-0.0954634
-0.0991069
-0.101101
-0.0959661
-0.0831104
-0.0644637
-0.044459
-0.0263992
-0.0118217
-0.0010788
0.00586959
0.00918598
0.0098026
0.00921327
0.0088556
0.00921171
0.0102434
0.011229
0.0118594
0.0117851
0.0111295
0.00984786
0.00839702
0.00685951
0.00559739
0.00434234
0.00341652
0.0020317
0.000991693
-0.268849
-0.270829
-0.272793
-0.274646
-0.276201
-0.277256
-0.277467
-0.276623
-0.274406
-0.270533
-0.264812
-0.257195
-0.247802
-0.237006
-0.225415
-0.213848
-0.203291
-0.194668
-0.18876
-0.185792
-0.18533
-0.185987
-0.185776
-0.182797
-0.175339
-0.163776
-0.148566
-0.131809
-0.117318
-0.108345
-0.106812
-0.111922
-0.119043
-0.121162
-0.113909
-0.0965262
-0.0735227
-0.0497813
-0.028843
-0.0121721
0.00011601
0.00834625
0.0127807
0.0141031
0.0135275
0.0125334
0.0118781
0.01195
0.0121329
0.0121661
0.0116569
0.0106905
0.00924123
0.00773481
0.00628351
0.00513971
0.00404997
0.00324864
0.00197078
0.000991192
-0.276679
-0.279859
-0.283137
-0.286329
-0.289144
-0.291324
-0.29248
-0.29225
-0.290192
-0.28592
-0.279152
-0.269785
-0.257811
-0.243564
-0.227679
-0.211069
-0.194886
-0.180183
-0.168091
-0.159426
-0.154165
-0.15139
-0.149648
-0.147287
-0.142808
-0.135604
-0.127356
-0.117716
-0.110859
-0.109824
-0.115837
-0.126838
-0.137076
-0.13895
-0.129499
-0.108429
-0.0815802
-0.0546296
-0.0312736
-0.012854
0.000726049
0.0100317
0.0154825
0.0176197
0.0173561
0.0160533
0.0145981
0.0137898
0.0131383
0.012506
0.0115013
0.010196
0.00858879
0.00705727
0.005716
0.00470868
0.00377778
0.00309142
0.00191471
0.000979647
-0.282881
-0.287037
-0.291354
-0.295681
-0.299596
-0.302769
-0.304702
-0.305051
-0.30319
-0.298626
-0.290986
-0.28018
-0.265908
-0.24863
-0.228973
-0.207934
-0.186784
-0.166528
-0.148619
-0.134551
-0.124478
-0.11789
-0.113994
-0.111527
-0.109216
-0.106057
-0.103728
-0.101597
-0.102705
-0.109711
-0.12309
-0.139583
-0.152587
-0.153798
-0.142883
-0.118709
-0.0886431
-0.0590711
-0.0337766
-0.0139516
0.000687255
0.0108864
0.0172241
0.0201931
0.0204597
0.0191657
0.017205
0.0156422
0.0141841
0.0128557
0.0113223
0.00967258
0.007929
0.00640565
0.00518829
0.00432413
0.00353753
0.00295034
0.0018652
0.000957421
-0.286644
-0.292037
-0.296922
-0.302017
-0.306803
-0.310758
-0.313374
-0.314171
-0.31252
-0.307832
-0.299633
-0.287644
-0.27173
-0.252059
-0.229311
-0.204612
-0.179323
-0.154437
-0.131441
-0.112875
-0.0983135
-0.0878408
-0.0813558
-0.0781383
-0.0771714
-0.077355
-0.0802351
-0.0849256
-0.093674
-0.108208
-0.128222
-0.149588
-0.165137
-0.164992
-0.153882
-0.127246
-0.0947046
-0.0631491
-0.0363901
-0.0154789
1.04206e-05
0.0109472
0.0180356
0.0217819
0.0226847
0.021649
0.0195706
0.0173365
0.0151661
0.0131667
0.0111145
0.00914475
0.00729772
0.00581272
0.00472314
0.00399705
0.00333342
0.00282596
0.00182122
0.000925511
-0.288268
-0.294668
-0.299754
-0.305172
-0.310517
-0.315039
-0.318115
-0.31924
-0.317782
-0.313088
-0.304591
-0.291886
-0.274796
-0.253538
-0.228743
-0.201485
-0.173107
-0.144871
-0.118414
-0.0955307
-0.0769232
-0.0629577
-0.053865
-0.0496843
-0.0492433
-0.0519744
-0.0586813
-0.0691957
-0.0845417
-0.105502
-0.130994
-0.156438
-0.174611
-0.179671
-0.162622
-0.133975
-0.0997602
-0.0668823
-0.0391142
-0.0174018
-0.00124104
0.0103035
0.018019
0.0224487
0.0239987
0.0233634
0.0211803
0.0187033
0.0159738
0.0133865
0.0108731
0.00863643
0.00672545
0.00529926
0.00433596
0.00372941
0.00316368
0.00271544
0.00177998
0.000885506
-0.28757
-0.29478
-0.29982
-0.305154
-0.310698
-0.31551
-0.318827
-0.320109
-0.31878
-0.314162
-0.305629
-0.292724
-0.27523
-0.253303
-0.227522
-0.198888
-0.168707
-0.138384
-0.109575
-0.083763
-0.0620591
-0.0451736
-0.0335948
-0.0276704
-0.027006
-0.0312021
-0.0407452
-0.055525
-0.0759201
-0.101797
-0.131368
-0.159912
-0.179961
-0.184662
-0.168307
-0.13882
-0.103802
-0.0702635
-0.0419148
-0.0196542
-0.00297179
0.00907536
0.0173147
0.0223267
0.0244777
0.0243021
0.0221394
0.0196507
0.0165318
0.013484
0.0106046
0.00817195
0.00623511
0.00487656
0.00402132
0.0035158
0.00302285
0.00261462
0.00173821
0.000839455
-0.284673
-0.292169
-0.296921
-0.302017
-0.307479
-0.312247
-0.315615
-0.316944
-0.315747
-0.311333
-0.303074
-0.290487
-0.273306
-0.251622
-0.225932
-0.197136
-0.166445
-0.135254
-0.105129
-0.0775116
-0.0536349
-0.0344574
-0.0207282
-0.0130515
-0.0114449
-0.0160146
-0.0270301
-0.044456
-0.0681556
-0.0972653
-0.129504
-0.16011
-0.181495
-0.186507
-0.171094
-0.141766
-0.106813
-0.0732443
-0.044711
-0.0221325
-0.00506178
0.00739901
0.0160787
0.0215832
0.0242652
0.0245571
0.0227881
0.0201743
0.0168231
0.0134614
0.010329
0.00777418
0.00583883
0.00454988
0.00377843
0.00334726
0.00290431
0.00251964
0.00169334
0.000789682
-0.279767
-0.286649
-0.291013
-0.295899
-0.301032
-0.305439
-0.308625
-0.310077
-0.309106
-0.305061
-0.297375
-0.28557
-0.269344
-0.248711
-0.224071
-0.196196
-0.166163
-0.135252
-0.104894
-0.0764682
-0.0512434
-0.0303252
-0.014684
-0.00519817
-0.00225151
-0.00621527
-0.0174788
-0.0360339
-0.0613565
-0.092076
-0.125651
-0.15737
-0.179656
-0.185251
-0.171119
-0.142863
-0.10881
-0.0758061
-0.0474534
-0.0247641
-0.00741925
0.00538645
0.0144452
0.0203749
0.0235237
0.0242572
0.0228026
0.0203196
0.0168805
0.013348
0.0100723
0.00745937
0.00553634
0.00433031
0.00359921
0.00321425
0.00280183
0.00242785
0.00164402
0.0007386
-0.272909
-0.278248
-0.28236
-0.28714
-0.291823
-0.295735
-0.298382
-0.29993
-0.299258
-0.29578
-0.288967
-0.27836
-0.26362
-0.244687
-0.221853
-0.195741
-0.167269
-0.137557
-0.107881
-0.0795325
-0.0537649
-0.0317478
-0.0145916
-0.00345065
0.00137393
-0.00122157
-0.011701
-0.0300492
-0.0555293
-0.0864462
-0.120165
-0.152072
-0.174903
-0.181241
-0.168814
-0.142429
-0.110063
-0.0781854
-0.050333
-0.0276816
-0.0101163
0.00302323
0.0124522
0.018784
0.0223679
0.0235429
0.0223597
0.0201682
0.016763
0.0131844
0.00985807
0.00723371
0.00531977
0.00416931
0.00347201
0.00310814
0.00271053
0.00233789
0.00159022
0.00068856
-0.2638
-0.26757
-0.271659
-0.275965
-0.280012
-0.283939
-0.287213
-0.288332
-0.287907
-0.285148
-0.279416
-0.270278
-0.257354
-0.240518
-0.219946
-0.196104
-0.169743
-0.14185
-0.113519
-0.0858063
-0.0599278
-0.0371013
-0.018574
-0.00530573
0.000615768
-9.38074e-05
-0.00893624
-0.0259826
-0.0505089
-0.0806178
-0.113572
-0.144833
-0.167946
-0.174743
-0.164402
-0.140682
-0.110726
-0.0804603
-0.053383
-0.0308945
-0.0131508
0.000321868
0.0101291
0.0168601
0.0208673
0.0224973
0.0225106
0.0198015
0.0165249
0.0130047
0.0097022
0.00709358
0.00519362
0.0040709
0.00338554
0.00302191
0.00262678
0.0022492
0.0015324
0.000641634
-0.252705
-0.256502
-0.259983
-0.262949
-0.266065
-0.269319
-0.271905
-0.273251
-0.273086
-0.271052
-0.266637
-0.259367
-0.248765
-0.23464
-0.217042
-0.196245
-0.172771
-0.147387
-0.121057
-0.0948364
-0.069843
-0.04718
-0.028049
-0.0137658
-0.00390972
-0.00292008
-0.00941048
-0.0239685
-0.0461255
-0.0740242
-0.104934
-0.134538
-0.154798
-0.165161
-0.157047
-0.136286
-0.109014
-0.080675
-0.0547715
-0.0328881
-0.0153654
-0.00187705
0.00807224
0.0150184
0.0193007
0.0212575
0.0213578
0.0191864
0.0161503
0.0127752
0.00956073
0.00699506
0.00515665
0.00400716
0.0033187
0.00294452
0.00254605
0.0021611
0.00147078
0.000599216
-0.240809
-0.248184
-0.250972
-0.252828
-0.255367
-0.2584
-0.261193
-0.262806
-0.262388
-0.259784
-0.255392
-0.24849
-0.238513
-0.225285
-0.208861
-0.189488
-0.167638
-0.143998
-0.119409
-0.0947946
-0.0711573
-0.0495239
-0.0308331
-0.0156463
-0.00752422
-0.00577437
-0.0111567
-0.0244636
-0.0453255
-0.0719149
-0.101526
-0.130029
-0.151824
-0.158325
-0.150036
-0.130156
-0.10439
-0.0777266
-0.0533032
-0.03254
-0.0157608
-0.00271294
0.00701419
0.0138848
0.0182089
0.0203051
0.0204614
0.0185885
0.0156932
0.0124389
0.0093183
0.00681714
0.00502872
0.00391906
0.00324049
0.00286266
0.00246654
0.00207713
0.00141033
0.000562918
-0.227971
-0.23782
-0.240916
-0.241811
-0.243364
-0.245625
-0.247594
-0.248323
-0.24744
-0.245013
-0.240674
-0.233977
-0.224568
-0.212315
-0.197263
-0.179631
-0.159821
-0.138407
-0.116105
-0.0937179
-0.072135
-0.0522859
-0.0350661
-0.0216105
-0.0135837
-0.0116198
-0.0164273
-0.0285797
-0.0476989
-0.0720562
-0.0990077
-0.124671
-0.143035
-0.148271
-0.140146
-0.121839
-0.0983695
-0.0740254
-0.051526
-0.0321603
-0.0162961
-0.0037921
0.00565277
0.0124162
0.0167563
0.0189568
0.0192251
0.0176688
0.0150417
0.0120078
0.0090597
0.00667333
0.00494923
0.00386504
0.00318311
0.00278987
0.00238933
0.00199074
0.00134774
0.000524691
-0.214924
-0.225944
-0.229381
-0.229718
-0.230396
-0.231893
-0.233283
-0.233699
-0.232766
-0.230274
-0.225942
-0.219527
-0.210806
-0.199648
-0.18607
-0.170242
-0.152492
-0.133299
-0.113272
-0.0931183
-0.0736378
-0.0556801
-0.040084
-0.0279394
-0.0204938
-0.018614
-0.0229128
-0.0337923
-0.0508211
-0.0723532
-0.095865
-0.117931
-0.132865
-0.1369
-0.129435
-0.113186
-0.0922857
-0.070349
-0.0497737
-0.0317912
-0.0168424
-0.0049004
0.00423295
0.0108541
0.0151742
0.0174501
0.0178715
0.0166146
0.0142748
0.0115042
0.00876974
0.00652481
0.00487156
0.00381047
0.00312323
0.00271181
0.00230531
0.00189821
0.00128022
0.000485414
-0.202221
-0.213116
-0.216806
-0.217041
-0.21724
-0.218224
-0.219274
-0.219533
-0.218499
-0.215938
-0.211733
-0.205741
-0.197786
-0.187742
-0.175603
-0.161505
-0.14572
-0.128651
-0.110818
-0.0928388
-0.0754174
-0.0593045
-0.0452866
-0.034351
-0.0275339
-0.0256337
-0.0291988
-0.0385099
-0.0531131
-0.071497
-0.0913908
-0.110164
-0.122075
-0.125223
-0.118669
-0.104536
-0.0861686
-0.0666044
-0.0479497
-0.0313716
-0.0173706
-0.00602306
0.00277212
0.00923263
0.0135239
0.0158775
0.0164616
0.015484
0.0134438
0.0109536
0.00844768
0.00635452
0.00477862
0.00374352
0.00305399
0.00262624
0.00221516
0.00180251
0.00121039
0.00044737
-0.189274
-0.199842
-0.203807
-0.204198
-0.204214
-0.20487
-0.205652
-0.205742
-0.204625
-0.202115
-0.198163
-0.192668
-0.185487
-0.176511
-0.165731
-0.153257
-0.139316
-0.124247
-0.108491
-0.0925784
-0.0771211
-0.0627858
-0.0503047
-0.0405048
-0.034255
-0.0322433
-0.0349446
-0.0425467
-0.0546182
-0.0698439
-0.0861823
-0.100584
-0.11125
-0.113792
-0.108192
-0.0961049
-0.0801725
-0.0628974
-0.0461134
-0.0309252
-0.0178824
-0.00715191
0.00128159
0.00756386
0.0118174
0.0142426
0.0149853
0.0142809
0.0125491
0.0103485
0.00808155
0.00615037
0.0046613
0.00365853
0.0029722
0.0025319
0.00211877
0.001704
0.00113886
0.000410795
-0.176343
-0.186637
-0.190788
-0.191381
-0.191363
-0.191809
-0.192377
-0.192348
-0.191247
-0.188904
-0.185276
-0.180303
-0.173877
-0.165915
-0.156409
-0.145448
-0.13322
-0.120009
-0.106184
-0.0922009
-0.078589
-0.0659348
-0.0548918
-0.0461314
-0.0403866
-0.0382397
-0.0400824
-0.0460298
-0.0556893
-0.0679502
-0.0810677
-0.0928217
-0.101107
-0.103078
-0.0983707
-0.0881541
-0.0744551
-0.0593067
-0.0442958
-0.0304575
-0.0183704
-0.00827259
-0.00022119
0.00586467
0.0100668
0.012553
0.0134543
0.0130147
0.01159
0.00968319
0.00766318
0.00590342
0.00451196
0.00354997
0.0028742
0.00242679
0.00201518
0.00160232
0.0010657
0.000375691
-0.163957
-0.17373
-0.177913
-0.178696
-0.178725
-0.179065
-0.179506
-0.179441
-0.178438
-0.176324
-0.173055
-0.168611
-0.16292
-0.155919
-0.147602
-0.13804
-0.127388
-0.115881
-0.103833
-0.0916287
-0.0797226
-0.0686192
-0.0588762
-0.0510715
-0.0457913
-0.0435224
-0.0445774
-0.0490181
-0.056492
-0.0660718
-0.076273
-0.0856273
-0.0919734
-0.0934126
-0.0894451
-0.0808371
-0.0691065
-0.0558827
-0.042522
-0.0299759
-0.0188298
-0.00937267
-0.00172015
0.00415184
0.00828867
0.0108267
0.0118838
0.0116968
0.0105718
0.00895763
0.00718875
0.00560787
0.00432463
0.00341311
0.00275669
0.00230905
0.00190356
0.00149725
0.000991071
0.000342108
-0.152062
-0.161162
-0.1653
-0.166263
-0.166394
-0.166714
-0.167109
-0.167072
-0.166211
-0.16436
-0.161478
-0.157557
-0.152572
-0.146478
-0.139264
-0.130985
-0.12177
-0.111816
-0.101386
-0.0908035
-0.0804516
-0.0707599
-0.0622006
-0.0552586
-0.0504053
-0.0480371
-0.0483994
-0.0515177
-0.0570889
-0.0643518
-0.0718838
-0.079272
-0.0840024
-0.0849145
-0.0814981
-0.0742156
-0.0641754
-0.0526609
-0.0408125
-0.0294873
-0.0192567
-0.0104412
-0.00320026
0.00244251
0.00650086
0.00908074
0.0102862
0.0103379
0.00950247
0.0081752
0.00665737
0.00526078
0.00409559
0.00324477
0.00261728
0.00217727
0.00178322
0.00138858
0.000915052
0.000309964
-0.140582
-0.14905
-0.153104
-0.15422
-0.154472
-0.154824
-0.155228
-0.155257
-0.154563
-0.15299
-0.150506
-0.147107
-0.142797
-0.137545
-0.131343
-0.124235
-0.116324
-0.107774
-0.0988038
-0.0896855
-0.0807379
-0.0723225
-0.0648327
-0.0586655
-0.0542036
-0.0517646
-0.0515396
-0.0535349
-0.0575108
-0.0629106
-0.0690643
-0.0738712
-0.0771581
-0.0775496
-0.0745136
-0.068295
-0.0596803
-0.0496619
-0.0391826
-0.0289979
-0.0196485
-0.0114684
-0.00464727
0.000753332
0.00472
0.00733002
0.00867325
0.00894894
0.00838963
0.00734043
0.0060706
0.00486175
0.00382315
0.0030431
0.00245425
0.0020303
0.00165357
0.00127599
0.000837558
0.000279027
-0.129692
-0.13752
-0.141429
-0.142656
-0.143029
-0.14344
-0.143884
-0.144003
-0.143489
-0.142203
-0.140119
-0.13724
-0.133551
-0.129077
-0.123797
-0.117747
-0.111011
-0.103723
-0.0960622
-0.0882552
-0.080566
-0.0732944
-0.0667617
-0.0612913
-0.0571914
-0.0547152
-0.0540121
-0.0550796
-0.0577198
-0.0614774
-0.0657042
-0.0691654
-0.0713041
-0.071211
-0.0684244
-0.0630459
-0.0556184
-0.0468956
-0.0376432
-0.0285133
-0.0200035
-0.0124459
-0.00604806
-0.000900229
0.00296174
0.00558916
0.00705711
0.00754056
0.0072417
0.00645919
0.00543194
0.00441215
0.00350705
0.00280716
0.00226648
0.00186722
0.00151399
0.00115908
0.000758381
0.00024898
-0.119467
-0.126605
-0.130319
-0.131623
-0.132111
-0.132593
-0.133094
-0.133315
-0.132988
-0.131985
-0.130285
-0.127896
-0.12482
-0.121038
-0.116588
-0.111488
-0.105803
-0.0996405
-0.0931465
-0.0865058
-0.0799351
-0.0736804
-0.068002
-0.0631576
-0.0593961
-0.0569179
-0.0558395
-0.0561552
-0.0576959
-0.0600999
-0.0628345
-0.0651024
-0.0662978
-0.0657711
-0.0631401
-0.0584195
-0.0519736
-0.0443641
-0.0362019
-0.0280386
-0.0203206
-0.0133666
-0.00739093
-0.00250382
0.00124115
0.00387246
0.00545
0.00612359
0.00606761
0.00553832
0.00474596
0.0039146
0.00314815
0.00253684
0.00205328
0.00168728
0.00136393
0.00103738
0.000677252
0.00021948
-0.109841
-0.116314
-0.119814
-0.121168
-0.121757
-0.122309
-0.122874
-0.123201
-0.123055
-0.122323
-0.120982
-0.119043
-0.116514
-0.113394
-0.109685
-0.105429
-0.100676
-0.0955113
-0.0900509
-0.0844422
-0.0788581
-0.0735011
-0.0685818
-0.0642995
-0.0608581
-0.0584119
-0.0570514
-0.0567703
-0.0574278
-0.0587524
-0.060322
-0.061579
-0.0620019
-0.0611009
-0.0585645
-0.0543595
-0.0487223
-0.0420639
-0.0348631
-0.0275779
-0.0205995
-0.0142248
-0.00866562
-0.00404432
-0.000427575
0.00219356
0.00386401
0.00470881
0.00487661
0.00458525
0.00401813
0.00337265
0.00274816
0.00223263
0.0018144
0.00148998
0.00120288
0.00091044
0.000593874
0.000190177
-0.10082
-0.106674
-0.109949
-0.111324
-0.111993
-0.11261
-0.113236
-0.113663
-0.113686
-0.113202
-0.112191
-0.110663
-0.10863
-0.106092
-0.103057
-0.0995491
-0.0956155
-0.0913272
-0.0867778
-0.0820809
-0.0773574
-0.0727874
-0.0685375
-0.0647613
-0.0616252
-0.0592447
-0.0576893
-0.0569511
-0.0569254
-0.057401
-0.0580607
-0.0584957
-0.058295
-0.0570821
-0.0546049
-0.0508069
-0.0458357
-0.0399865
-0.0336282
-0.0271342
-0.0208406
-0.0150162
-0.0098635
-0.00551013
-0.00203151
0.000565263
0.00231091
0.00330697
0.00367821
0.00360798
0.00325466
0.00279064
0.00230957
0.00189563
0.00155002
0.00127503
0.00103047
0.000777796
0.000507951
0.000160745
-0.0924358
-0.0976953
-0.100732
-0.102101
-0.102832
-0.103503
-0.104184
-0.1047
-0.104873
-0.104612
-0.103897
-0.102738
-0.101145
-0.0991239
-0.0966798
-0.0938306
-0.0906136
-0.0870876
-0.0833322
-0.0794537
-0.0754617
-0.0715785
-0.0678927
-0.0645982
-0.0617599
-0.0594719
-0.0578008
-0.0567323
-0.0561868
-0.0560122
-0.0559709
-0.0557619
-0.0550708
-0.0536087
-0.0511742
-0.0477027
-0.0432818
-0.0381194
-0.0324956
-0.0267096
-0.0210443
-0.0157376
-0.0109777
-0.00689145
-0.00355922
-0.00100066
0.000801952
0.00192862
0.00248207
0.00261489
0.00246235
0.00217358
0.00183557
0.00152754
0.00126079
0.00104244
0.000846477
0.000639068
0.000419216
0.0001309
-0.0846632
-0.0893593
-0.0921543
-0.093499
-0.0942737
-0.094988
-0.0957122
-0.0963029
-0.0966061
-0.0965395
-0.0960844
-0.0952494
-0.0940445
-0.0924746
-0.0905445
-0.0882676
-0.0856709
-0.0827958
-0.0796959
-0.0764301
-0.0731768
-0.0699283
-0.0667857
-0.0638896
-0.0613181
-0.0591586
-0.0574338
-0.0561364
-0.0552168
-0.0545624
-0.0539972
-0.0533005
-0.0522369
-0.0505872
-0.0481926
-0.0449894
-0.0410262
-0.0364469
-0.0314611
-0.0263045
-0.0212112
-0.0163872
-0.012003
-0.00818037
-0.00500095
-0.00249374
-0.000652345
0.000583946
0.00129784
0.00161465
0.00164851
0.00152711
0.00133002
0.00113063
0.000947808
0.000792542
0.000650864
0.000493979
0.000327456
0.000100408
-0.0774663
-0.081646
-0.0842063
-0.0855119
-0.0863138
-0.0870577
-0.0878135
-0.0884628
-0.0888731
-0.0889713
-0.0887393
-0.0881838
-0.0873137
-0.0861333
-0.0846463
-0.0828619
-0.0808
-0.078492
-0.0759819
-0.0733271
-0.0706075
-0.067876
-0.0652218
-0.0627052
-0.0604039
-0.0583723
-0.056638
-0.0552033
-0.0540319
-0.0530391
-0.0520975
-0.0510472
-0.0497147
-0.0479358
-0.0455873
-0.0426119
-0.0390337
-0.0349508
-0.0305178
-0.0259181
-0.0213419
-0.0169643
-0.0129361
-0.00937097
-0.00634882
-0.00390496
-0.00204246
-0.000717419
0.000134976
0.000616086
0.000820875
0.000857428
0.000797427
0.000707802
0.000612717
0.000526052
0.000443846
0.000342403
0.000232533
6.90905e-05
-0.070827
-0.0745354
-0.0768691
-0.0781235
-0.0789372
-0.0796977
-0.0804725
-0.0811642
-0.0816591
-0.0818925
-0.0818472
-0.081528
-0.0809421
-0.0800931
-0.0789831
-0.0776183
-0.0760127
-0.0741898
-0.0721831
-0.0700352
-0.0677984
-0.0655252
-0.0632755
-0.061098
-0.0590475
-0.0571636
-0.0554723
-0.0539773
-0.0526522
-0.0514368
-0.0502409
-0.0489498
-0.0474376
-0.0455832
-0.043293
-0.0405182
-0.0372688
-0.0336108
-0.029657
-0.0255481
-0.0214367
-0.0174688
-0.0137753
-0.0104593
-0.00759683
-0.00522692
-0.00336006
-0.00196659
-0.000997408
-0.000372012
-1.25843e-05
0.000171182
0.00024287
0.00026253
0.000257676
0.000244097
0.000225918
0.000184392
0.000134413
3.68381e-05
-0.0647213
-0.0679987
-0.0701157
-0.0713102
-0.0721228
-0.0728884
-0.0736703
-0.0743886
-0.0749466
-0.0752872
-0.0753941
-0.0752701
-0.0749211
-0.0743495
-0.073556
-0.0725442
-0.0713234
-0.0699101
-0.0683285
-0.0666098
-0.064791
-0.0629122
-0.061017
-0.0591438
-0.0573309
-0.0556081
-0.0539961
-0.0524991
-0.0510996
-0.0497559
-0.0484054
-0.0469668
-0.0453506
-0.0434688
-0.0412519
-0.0386605
-0.035697
-0.0324055
-0.028868
-0.0251912
-0.0214957
-0.0179016
-0.0145202
-0.0114431
-0.00874089
-0.00645387
-0.00459807
-0.00315557
-0.00209074
-0.00134102
-0.000843755
-0.000524605
-0.000328048
-0.000201133
-0.00011463
-5.17479e-05
-2.08724e-06
2.02137e-05
3.31607e-05
3.60092e-06
-0.0591152
-0.0620029
-0.0639161
-0.0650454
-0.0658464
-0.0666066
-0.0673847
-0.0681155
-0.0687167
-0.0691386
-0.0693656
-0.0693993
-0.0692437
-0.0689003
-0.0683687
-0.0676501
-0.0667499
-0.0656792
-0.0644546
-0.0630981
-0.061636
-0.0600974
-0.0585139
-0.0569147
-0.0553261
-0.0537701
-0.0522632
-0.0508097
-0.0493985
-0.0480017
-0.0465764
-0.0450663
-0.0434087
-0.0415414
-0.0394136
-0.0369952
-0.0342854
-0.0313137
-0.0281394
-0.0248428
-0.0215186
-0.0182637
-0.0151716
-0.0123219
-0.00977866
-0.00758174
-0.00575085
-0.00427744
-0.00313713
-0.00228267
-0.00166456
-0.00122269
-0.000909311
-0.000678612
-0.000501003
-0.000359486
-0.000239001
-0.000149582
-7.09996e-05
-3.06176e-05
-0.0539772
-0.0565154
-0.0582391
-0.0593
-0.0600805
-0.0608265
-0.0615913
-0.062322
-0.0629489
-0.063429
-0.0637475
-0.0639049
-0.0639039
-0.0637448
-0.0634263
-0.0629477
-0.0623117
-0.0615247
-0.0605976
-0.0595452
-0.0583858
-0.0571397
-0.0558295
-0.0544761
-0.0530975
-0.05171
-0.0503263
-0.0489504
-0.0475756
-0.0461837
-0.044746
-0.0432246
-0.0415766
-0.0397587
-0.0377352
-0.0354841
-0.0330038
-0.0303143
-0.027459
-0.0244979
-0.0215046
-0.0185567
-0.0157313
-0.0130966
-0.0107095
-0.00860805
-0.00681412
-0.00532636
-0.00412953
-0.00318918
-0.00246712
-0.00191574
-0.00149462
-0.00116491
-0.000897751
-0.000676649
-0.000483336
-0.000324229
-0.000177666
-6.57204e-05
-0.0492782
-0.0515038
-0.0530521
-0.0540431
-0.0547965
-0.055521
-0.0562646
-0.0569846
-0.0576223
-0.0581404
-0.0585255
-0.0587768
-0.058896
-0.0588827
-0.0587346
-0.0584499
-0.0580287
-0.0574743
-0.0567933
-0.0559947
-0.0550907
-0.054095
-0.053023
-0.0518895
-0.0507064
-0.0494853
-0.0482358
-0.0469612
-0.0456579
-0.0443143
-0.042912
-0.0414258
-0.0398272
-0.038087
-0.0361812
-0.0340941
-0.031825
-0.029388
-0.026815
-0.024151
-0.0214529
-0.0187821
-0.0162018
-0.0137691
-0.011534
-0.00953181
-0.00778505
-0.00629774
-0.00506184
-0.00405346
-0.00324392
-0.00259647
-0.00207747
-0.0016547
-0.00130082
-0.00100034
-0.00073315
-0.000502699
-0.00028637
-0.000101543
-0.0449884
-0.0469352
-0.0483223
-0.0492438
-0.049965
-0.0506625
-0.0513788
-0.0520795
-0.0527155
-0.0532547
-0.053685
-0.0540048
-0.0542149
-0.0543142
-0.0542998
-0.0541689
-0.0539202
-0.0535545
-0.0530749
-0.0524868
-0.0517972
-0.0510149
-0.0501499
-0.049212
-0.0482091
-0.0471492
-0.0460388
-0.0448806
-0.043673
-0.0424089
-0.0410767
-0.0396603
-0.0381412
-0.0365006
-0.0347228
-0.0327978
-0.0307257
-0.0285173
-0.0261963
-0.0237968
-0.0213626
-0.018942
-0.0165861
-0.0143426
-0.0122543
-0.0103534
-0.00866213
-0.0071882
-0.005929
-0.00486921
-0.00398798
-0.00325787
-0.00265135
-0.0021424
-0.00170577
-0.00132741
-0.00098624
-0.000683525
-0.000396391
-0.000137928
-0.0410789
-0.0427784
-0.0440182
-0.0448716
-0.0455575
-0.046224
-0.0469084
-0.0475832
-0.0482076
-0.0487542
-0.049212
-0.049579
-0.0498552
-0.0500389
-0.0501272
-0.0501164
-0.0500042
-0.0497896
-0.0494735
-0.0490581
-0.0485474
-0.0479461
-0.04726
-0.0464953
-0.0456571
-0.0447501
-0.0437788
-0.0427451
-0.0416484
-0.0404845
-0.0392464
-0.0379239
-0.0365059
-0.0349805
-0.0333381
-0.0315731
-0.0296867
-0.0276874
-0.0255934
-0.0234307
-0.0212331
-0.0190385
-0.016888
-0.0148209
-0.0128735
-0.0110745
-0.00944517
-0.00799556
-0.00672704
-0.00563102
-0.00469297
-0.00389332
-0.00320993
-0.00262239
-0.00210792
-0.00165421
-0.00124022
-0.000865263
-0.000506749
-0.000174522
-0.0375234
-0.0390042
-0.0401103
-0.0408979
-0.0415466
-0.0421795
-0.042829
-0.0434733
-0.0440785
-0.0446216
-0.0450927
-0.0454894
-0.0458113
-0.0460564
-0.0462213
-0.0463025
-0.0462965
-0.0462015
-0.0460165
-0.0457419
-0.045379
-0.0449299
-0.0443975
-0.0437855
-0.0430962
-0.0423321
-0.041496
-0.0405889
-0.0396109
-0.0385594
-0.0374303
-0.0362176
-0.0349146
-0.0335143
-0.0320117
-0.0304038
-0.028693
-0.0268865
-0.0249984
-0.023049
-0.0210644
-0.0190743
-0.0171117
-0.0152086
-0.0133955
-0.0116979
-0.0101352
-0.00871894
-0.00745316
-0.00633447
-0.00535338
-0.00449672
-0.00374711
-0.00308913
-0.00250259
-0.00197701
-0.00149206
-0.00104613
-0.00061672
-0.000210976
-0.034298
-0.0355857
-0.0365708
-0.0372959
-0.0379067
-0.0385047
-0.0391177
-0.0397284
-0.0403092
-0.0408405
-0.0413138
-0.0417265
-0.0420776
-0.0423651
-0.0425857
-0.0427355
-0.0428109
-0.0428091
-0.0427283
-0.0425672
-0.0423257
-0.0420039
-0.0416027
-0.0411238
-0.0405675
-0.0399347
-0.0392268
-0.0384441
-0.0375866
-0.0366529
-0.0356406
-0.034546
-0.0333656
-0.0320955
-0.0307334
-0.0292787