/*--------------------------------*- C++ -*----------------------------------*\
| =========                 |                                                 |
| \\      /  F ield         | OpenFOAM: The Open Source CFD Toolbox           |
|  \\    /   O peration     | Version:  2512                                  |
|   \\  /    A nd           | Website:  www.openfoam.com                      |
|    \\/     M anipulation  |                                                 |
\*---------------------------------------------------------------------------*/
FoamFile
{
    version     2.0;
    format      ascii;
    arch        "LSB;label=32;scalar=64";
    class       volScalarField;
    location    "130.75";
    object      p;
}
// * * * * * * * * * * * * * * * * * * * * * * * * * * * * * * * * * * * * * //

dimensions      [0 2 -2 0 0 0 0];

internalField   nonuniform List<scalar> 
13248
(
-0.447545
-0.444735
-0.441065
-0.436879
-0.432626
-0.428808
-0.425806
-0.423823
-0.422869
-0.422746
-0.423074
-0.423331
-0.42292
-0.421245
-0.417792
-0.412188
-0.404238
-0.393935
-0.381411
-0.36692
-0.350607
-0.332836
-0.312526
-0.290654
-0.456555
-0.45313
-0.448906
-0.444214
-0.439464
-0.435088
-0.431381
-0.428442
-0.426167
-0.424265
-0.422304
-0.419779
-0.416193
-0.411131
-0.404312
-0.395616
-0.38507
-0.372816
-0.35906
-0.344017
-0.327861
-0.310758
-0.292536
-0.274071
-0.467856
-0.463514
-0.458573
-0.453303
-0.447988
-0.442959
-0.438381
-0.434214
-0.43024
-0.426113
-0.421431
-0.41581
-0.408946
-0.400665
-0.390922
-0.379792
-0.367422
-0.353999
-0.339703
-0.324697
-0.309089
-0.293043
-0.276425
-0.259811
-0.48141
-0.475885
-0.47007
-0.464109
-0.458093
-0.452201
-0.446434
-0.440612
-0.434449
-0.427632
-0.41989
-0.411048
-0.401042
-0.38992
-0.377806
-0.364865
-0.351266
-0.337159
-0.322672
-0.307902
-0.292934
-0.277879
-0.26269
-0.247906
-0.497068
-0.490163
-0.483339
-0.476548
-0.469617
-0.462528
-0.455118
-0.447116
-0.43826
-0.42838
-0.417428
-0.405471
-0.39266
-0.379187
-0.365244
-0.350999
-0.336578
-0.322074
-0.30755
-0.293055
-0.278633
-0.264338
-0.250151
-0.236389
-0.514606
-0.506195
-0.49826
-0.490474
-0.482321
-0.473571
-0.463944
-0.453181
-0.441175
-0.427999
-0.413863
-0.399047
-0.383834
-0.368465
-0.353119
-0.337911
-0.322908
-0.30814
-0.293623
-0.279365
-0.265377
-0.251676
-0.23826
-0.225319
-0.533677
-0.52372
-0.514595
-0.505595
-0.495801
-0.484799
-0.472305
-0.45823
-0.442743
-0.42621
-0.409073
-0.391739
-0.374526
-0.357646
-0.341215
-0.325281
-0.309847
-0.294896
-0.280405
-0.26635
-0.252715
-0.239487
-0.226667
-0.214309
-0.553779
-0.542305
-0.53191
-0.521397
-0.509422
-0.495491
-0.479497
-0.461676
-0.442557
-0.422779
-0.402927
-0.383437
-0.364582
-0.346495
-0.329213
-0.312716
-0.296955
-0.281876
-0.267424
-0.253553
-0.240225
-0.22741
-0.215101
-0.20325
-0.574184
-0.56129
-0.54952
-0.537098
-0.522317
-0.504784
-0.484775
-0.46298
-0.440284
-0.417516
-0.3953
-0.37401
-0.353825
-0.334779
-0.316832
-0.299906
-0.283911
-0.268761
-0.25438
-0.240699
-0.227663
-0.215231
-0.203375
-0.191971
-0.593927
-0.579757
-0.566459
-0.551649
-0.53342
-0.511727
-0.487413
-0.46166
-0.435635
-0.41024
-0.386035
-0.363279
-0.342033
-0.322239
-0.303788
-0.286554
-0.270416
-0.255261
-0.240993
-0.227527
-0.214791
-0.202735
-0.191298
-0.180329
-0.611827
-0.596541
-0.5815
-0.563774
-0.541524
-0.515309
-0.486645
-0.45716
-0.428177
-0.400558
-0.374729
-0.350813
-0.32875
-0.308403
-0.289604
-0.27219
-0.256011
-0.240935
-0.226846
-0.213644
-0.201246
-0.189584
-0.178557
-0.168038
-0.626604
-0.610388
-0.593364
-0.572199
-0.545444
-0.514496
-0.481579
-0.448667
-0.41712
-0.387667
-0.360564
-0.335782
-0.313153
-0.292464
-0.273499
-0.256061
-0.239977
-0.225094
-0.211281
-0.198427
-0.186442
-0.17524
-0.16469
-0.154732
-0.364264
-0.365749
-0.366712
-0.367583
-0.368782
-0.370477
-0.372726
-0.375531
-0.378864
-0.382676
-0.386904
-0.391461
-0.396236
-0.401078
-0.405796
-0.410158
-0.413875
-0.416614
-0.418064
-0.417855
-0.415674
-0.411278
-0.404504
-0.395348
-0.376662
-0.377345
-0.377941
-0.378757
-0.380126
-0.38222
-0.385107
-0.388796
-0.393262
-0.398463
-0.404336
-0.410795
-0.417718
-0.424933
-0.432211
-0.439259
-0.445715
-0.451145
-0.45508
-0.45699
-0.45639
-0.452827
-0.445853
-0.435413
-0.38847
-0.388286
-0.388439
-0.389094
-0.390504
-0.392832
-0.396161
-0.400504
-0.405838
-0.412118
-0.419281
-0.427231
-0.435832
-0.444886
-0.454127
-0.463205
-0.471688
-0.479073
-0.484639
-0.487809
-0.487935
-0.484382
-0.476489
-0.463957
-0.399109
-0.398073
-0.397725
-0.398115
-0.399388
-0.401726
-0.405224
-0.409903
-0.415741
-0.422687
-0.430667
-0.439573
-0.449245
-0.459458
-0.469906
-0.480186
-0.489793
-0.498114
-0.504429
-0.507983
-0.507992
-0.503691
-0.494437
-0.479322
-0.408182
-0.406401
-0.405532
-0.405532
-0.406475
-0.408559
-0.411907
-0.416552
-0.422477
-0.429626
-0.437911
-0.447205
-0.457323
-0.46801
-0.478922
-0.48961
-0.499503
-0.507935
-0.514125
-0.517225
-0.51639
-0.510728
-0.499973
-0.482167
-0.41551
-0.413164
-0.411796
-0.411301
-0.411725
-0.413295
-0.416169
-0.420409
-0.42601
-0.432918
-0.441031
-0.450202
-0.46022
-0.470787
-0.481527
-0.491942
-0.501428
-0.509245
-0.514564
-0.516491
-0.514211
-0.506686
-0.494303
-0.473993
-0.421159
-0.418474
-0.416661
-0.415605
-0.415357
-0.41619
-0.418313
-0.421829
-0.426758
-0.433053
-0.440607
-0.449256
-0.458774
-0.468741
-0.478817
-0.488441
-0.496931
-0.503502
-0.507303
-0.507417
-0.503168
-0.493442
-0.479273
-0.456947
-0.425429
-0.422633
-0.420452
-0.418804
-0.417791
-0.417742
-0.418925
-0.421495
-0.425508
-0.430933
-0.437655
-0.445473
-0.454096
-0.463231
-0.472285
-0.480655
-0.487618
-0.492355
-0.494026
-0.491772
-0.485118
-0.473091
-0.4571
-0.433502
-0.428826
-0.426099
-0.423622
-0.421389
-0.419585
-0.418602
-0.41877
-0.4203
-0.423288
-0.427718
-0.433463
-0.440304
-0.447899
-0.455796
-0.4634
-0.470019
-0.474876
-0.477167
-0.476145
-0.471142
-0.461925
-0.44787
-0.430431
-0.406491
-0.432011
-0.429439
-0.42671
-0.423924
-0.421369
-0.419493
-0.418684
-0.419199
-0.421162
-0.424561
-0.429252
-0.434945
-0.441218
-0.447517
-0.453174
-0.457444
-0.459564
-0.458835
-0.454711
-0.446852
-0.435317
-0.419948
-0.402045
-0.378877
-0.435732
-0.433275
-0.430293
-0.426995
-0.423766
-0.421102
-0.419424
-0.419014
-0.420002
-0.422349
-0.42585
-0.430139
-0.434699
-0.438893
-0.442008
-0.443321
-0.442178
-0.43808
-0.430739
-0.420166
-0.406659
-0.390623
-0.373226
-0.352172
-0.440717
-0.43821
-0.43492
-0.431145
-0.427336
-0.42401
-0.421593
-0.420355
-0.420387
-0.421592
-0.42368
-0.426195
-0.428546
-0.430067
-0.430087
-0.42801
-0.423384
-0.415957
-0.405681
-0.392764
-0.377477
-0.360527
-0.342586
-0.323757
-0.382295
-0.362832
-0.340788
-0.317644
-0.295399
-0.276246
-0.262303
-0.255273
-0.255235
-0.260888
-0.269217
-0.275904
-0.276292
-0.267159
-0.24599
-0.21499
-0.179837
-0.147217
-0.122001
-0.106175
-0.0993414
-0.100238
-0.108737
-0.126075
-0.15112
-0.176277
-0.189485
-0.182901
-0.159485
-0.12936
-0.101942
-0.0821867
-0.070744
-0.0661055
-0.0678832
-0.0778925
-0.0944613
-0.108378
-0.109508
-0.0975338
-0.0803429
-0.066393
-0.0573838
-0.0540166
-0.0578639
-0.0669125
-0.0732743
-0.0702204
-0.0608112
-0.0514483
-0.0425072
-0.0380666
-0.035166
-0.0338273
-0.0331658
-0.0307073
-0.0234264
-0.0171507
-0.00969048
-0.00316335
-0.421098
-0.396596
-0.368354
-0.337721
-0.306778
-0.27768
-0.253034
-0.235747
-0.226004
-0.223446
-0.226589
-0.230319
-0.231206
-0.224753
-0.208733
-0.18449
-0.15662
-0.130806
-0.111466
-0.100557
-0.0978114
-0.102316
-0.114544
-0.135955
-0.164783
-0.192327
-0.205527
-0.197075
-0.170317
-0.136626
-0.106099
-0.0836388
-0.0697431
-0.0628447
-0.0621559
-0.0692428
-0.0830009
-0.0953947
-0.0970871
-0.0873509
-0.0732862
-0.0624946
-0.0562691
-0.0553947
-0.0620099
-0.073445
-0.0812763
-0.0775379
-0.0659111
-0.0542666
-0.0431041
-0.0369743
-0.0320117
-0.0296903
-0.0285654
-0.0265899
-0.0209215
-0.0158196
-0.010133
-0.00390262
-0.448202
-0.420215
-0.38667
-0.349765
-0.311343
-0.273692
-0.239254
-0.213895
-0.194551
-0.183165
-0.180139
-0.180164
-0.180983
-0.177647
-0.166871
-0.14973
-0.129482
-0.110839
-0.0977065
-0.0919121
-0.0932715
-0.101293
-0.116995
-0.141954
-0.173919
-0.203429
-0.216499
-0.207355
-0.178273
-0.14185
-0.108842
-0.0841548
-0.0681265
-0.059181
-0.0561962
-0.0604361
-0.0713518
-0.0821906
-0.0844729
-0.0768016
-0.0657772
-0.0580656
-0.0546211
-0.0563007
-0.0657222
-0.0795539
-0.0888689
-0.0845245
-0.0706979
-0.0567785
-0.0435022
-0.035845
-0.0290149
-0.0257209
-0.0240134
-0.0224453
-0.0183694
-0.0144532
-0.0105741
-0.00466187
-0.461971
-0.431836
-0.394557
-0.352915
-0.308958
-0.265209
-0.2246
-0.190284
-0.163025
-0.143275
-0.133698
-0.129029
-0.129197
-0.128361
-0.122594
-0.112447
-0.0996464
-0.0880502
-0.0810054
-0.0800924
-0.0852139
-0.0963382
-0.114984
-0.142893
-0.177574
-0.209062
-0.221641
-0.213527
-0.183137
-0.144904
-0.110151
-0.0838118
-0.0660664
-0.0553526
-0.0503089
-0.0518922
-0.0600215
-0.069233
-0.0717769
-0.0661538
-0.0579962
-0.0531908
-0.0524267
-0.0566049
-0.068777
-0.0849816
-0.0958142
-0.0910137
-0.0750918
-0.0589519
-0.043694
-0.0346799
-0.0261957
-0.0219497
-0.0195631
-0.0183156
-0.0157959
-0.0130623
-0.0110092
-0.00543633
-0.463139
-0.431483
-0.392679
-0.348872
-0.301872
-0.254351
-0.209144
-0.168759
-0.134906
-0.109015
-0.0923023
-0.0830176
-0.0801376
-0.0801447
-0.0786166
-0.0742957
-0.068246
-0.0631293
-0.0616098
-0.0649586
-0.0732985
-0.0870341
-0.108115
-0.138464
-0.175547
-0.209359
-0.22648
-0.215895
-0.184922
-0.145863
-0.110165
-0.0827507
-0.0637229
-0.0515623
-0.0447594
-0.0439339
-0.0493914
-0.0569247
-0.0595504
-0.0557137
-0.0501191
-0.0479366
-0.049655
-0.0561812
-0.0709792
-0.089482
-0.101851
-0.0968181
-0.0790125
-0.060769
-0.0436816
-0.033479
-0.0235623
-0.018401
-0.0152662
-0.0142438
-0.0132255
-0.0116573
-0.0114317
-0.00621977
-0.452862
-0.420586
-0.382923
-0.339916
-0.292692
-0.244103
-0.19687
-0.153161
-0.114824
-0.0835478
-0.060532
-0.0456896
-0.0382819
-0.0364391
-0.0369297
-0.0367448
-0.0363694
-0.0367596
-0.0398366
-0.046717
-0.0577464
-0.0736822
-0.0967761
-0.129057
-0.168041
-0.203801
-0.222648
-0.213769
-0.183574
-0.144818
-0.109022
-0.0811069
-0.0612182
-0.0479396
-0.0396923
-0.0367948
-0.039763
-0.0456133
-0.0481464
-0.0457431
-0.042315
-0.0423756
-0.0463041
-0.0549556
-0.0721753
-0.0928271
-0.106748
-0.101775
-0.0823917
-0.0622167
-0.0434677
-0.0322355
-0.0211106
-0.0150911
-0.011172
-0.0102673
-0.0106802
-0.010247
-0.0118328
-0.00700526
-0.433563
-0.401473
-0.367105
-0.327512
-0.282743
-0.2358
-0.189271
-0.144956
-0.104503
-0.0694903
-0.0412295
-0.0205013
-0.00745899
-0.0014407
-0.000578052
-0.00200358
-0.00538869
-0.00974663
-0.0163182
-0.0260184
-0.0392801
-0.0570982
-0.0818674
-0.115596
-0.155911
-0.193238
-0.213872
-0.2075
-0.179263
-0.141931
-0.106868
-0.0790047
-0.0586438
-0.044558
-0.0351706
-0.0305592
-0.0313018
-0.0355267
-0.0378232
-0.0364653
-0.0347586
-0.0366188
-0.0424209
-0.0528967
-0.0722564
-0.0948558
-0.110345
-0.105749
-0.0851644
-0.0632832
-0.0430558
-0.0309452
-0.0188227
-0.0120235
-0.00732183
-0.00641596
-0.00817968
-0.00883829
-0.0122028
-0.00778575
-0.408199
-0.377189
-0.347513
-0.312934
-0.272516
-0.229367
-0.185782
-0.143138
-0.10282
-0.0662304
-0.0346028
-0.00895308
0.00992713
0.0216206
0.026518
0.0259358
0.0225337
0.0164823
0.00776961
-0.00395863
-0.0190309
-0.0384893
-0.0646583
-0.0993798
-0.140454
-0.178828
-0.201205
-0.197689
-0.172303
-0.137367
-0.103811
-0.0765207
-0.0560496
-0.0414501
-0.0312137
-0.0252388
-0.0240632
-0.0267653
-0.0287262
-0.028064
-0.0276221
-0.0308018
-0.038086
-0.0500327
-0.0711803
-0.0954784
-0.112536
-0.108625
-0.0872771
-0.0639669
-0.0424548
-0.0296172
-0.0166906
-0.00919293
-0.00374348
-0.00271121
-0.00574061
-0.00743718
-0.0125319
-0.008555
-0.380079
-0.351334
-0.326876
-0.297626
-0.262356
-0.224203
-0.184921
-0.145457
-0.106981
-0.0707311
-0.0378054
-0.00918491
0.014242
0.031581
0.0421408
0.0460481
0.0448985
0.0395954
0.0304961
0.017821
0.00151786
-0.0192597
-0.0465289
-0.0818344
-0.123059
-0.161845
-0.185638
-0.185063
-0.163167
-0.13144
-0.100079
-0.0738448
-0.0535918
-0.0387369
-0.0279045
-0.0208783
-0.018093
-0.0193791
-0.0209117
-0.0206568
-0.0210479
-0.0250813
-0.0334062
-0.0463826
-0.0689569
-0.0946908
-0.113293
-0.110339
-0.0887131
-0.0643153
-0.0417088
-0.0282785
-0.0147421
-0.00661881
-0.000459113
0.000837638
-0.00337721
-0.00604926
-0.0128098
-0.00930678
-0.352709
-0.327543
-0.307865
-0.28311
-0.252825
-0.219916
-0.185311
-0.149597
-0.113853
-0.0791797
-0.0464684
-0.016724
0.00913524
0.0303357
0.0459574
0.0551294
0.0589065
0.0566906
0.049292
0.0370896
0.0204258
-0.00106851
-0.0288498
-0.0640469
-0.104714
-0.14326
-0.167892
-0.170432
-0.1526
-0.124799
-0.0962313
-0.0714679
-0.0516755
-0.0367211
-0.0254502
-0.0175799
-0.0134229
-0.0133957
-0.0144342
-0.0143264
-0.015156
-0.0195648
-0.0285062
-0.0421397
-0.0656706
-0.0924905
-0.112617
-0.110896
-0.0894825
-0.0644098
-0.0409014
-0.0269529
-0.012981
-0.00435176
0.00246521
0.00422945
-0.00110189
-0.0046794
-0.013026
-0.0100342
-0.328857
-0.308808
-0.292859
-0.271338
-0.245519
-0.217585
-0.187495
-0.155582
-0.122911
-0.0903399
-0.058591
-0.0285412
-0.00110608
0.0227846
0.0421091
0.0560267
0.0644645
0.0659223
0.0621226
0.0521989
0.0364706
0.015093
-0.0126145
-0.0473391
-0.0870219
-0.124517
-0.149591
-0.154107
-0.140558
-0.117333
-0.0921331
-0.0692393
-0.0501312
-0.0351951
-0.023624
-0.0151006
-0.00975582
-0.0085202
-0.00914282
-0.00909812
-0.0101817
-0.0145013
-0.0234485
-0.0371634
-0.0613795
-0.0891967
-0.110611
-0.110179
-0.0893859
-0.0640955
-0.0399543
-0.0255664
-0.0112367
-0.00231496
0.00495809
0.0074384
0.00107559
-0.00332529
-0.0131762
-0.0107297
-0.30741
-0.294634
-0.280715
-0.260987
-0.238943
-0.215512
-0.189834
-0.161925
-0.132549
-0.102569
-0.072766
-0.0439599
-0.0169155
0.00764116
0.0290303
0.0473126
0.059667
0.0664624
0.0663867
0.0601126
0.0471202
0.0276414
0.00166595
-0.0309538
-0.0680879
-0.103356
-0.124829
-0.133325
-0.124541
-0.106304
-0.0848664
-0.0643706
-0.0465485
-0.0321674
-0.0207922
-0.0121468
-0.00608053
-0.00388396
-0.00416519
-0.00440364
-0.0058054
-0.0100055
-0.0187675
-0.0321577
-0.0563553
-0.084469
-0.107161
-0.107454
-0.087964
-0.0627333
-0.0383313
-0.0238438
-0.00918117
-0.000188271
0.00733989
0.0105033
0.0031185
-0.00200358
-0.0132423
-0.0113975
-0.279762
-0.281269
-0.266288
-0.245373
-0.223939
-0.202027
-0.178406
-0.152758
-0.12564
-0.0978459
-0.0700882
-0.0430399
-0.0173597
0.00635988
0.0276315
0.0461349
0.0585623
0.0663446
0.0688083
0.0650466
0.0540418
0.0358312
0.0106077
-0.0217422
-0.0590509
-0.0939099
-0.118625
-0.121275
-0.111952
-0.0949925
-0.0755129
-0.0569777
-0.0407314
-0.0274301
-0.0167204
-0.00841867
-0.0022388
0.000499561
0.000752197
0.00067594
0.000400459
-0.00388139
-0.0120602
-0.0251933
-0.0502085
-0.0800857
-0.105055
-0.107552
-0.0864771
-0.0606103
-0.0359931
-0.0218408
-0.00698845
0.00195796
0.0100768
0.0136861
0.00517748
-0.000666058
-0.0132249
-0.012064
-0.252834
-0.258112
-0.244692
-0.224305
-0.203976
-0.18414
-0.163227
-0.140488
-0.116276
-0.0913362
-0.0663401
-0.0418568
-0.0184492
0.00332764
0.0230009
0.0395398
0.052519
0.0609491
0.0643523
0.0618066
0.0523469
0.0358461
0.0124615
-0.0176071
-0.0516909
-0.0824308
-0.101481
-0.10431
-0.096156
-0.0818484
-0.0653852
-0.04947
-0.0351552
-0.0231071
-0.0132013
-0.00536277
0.000749965
0.00375888
0.00425669
0.00403982
0.00340509
0.000187466
-0.00715588
-0.0196602
-0.0448026
-0.075587
-0.101192
-0.103676
-0.0830856
-0.0575809
-0.033366
-0.019569
-0.00481425
0.0037808
0.0123631
0.0160664
0.00689578
0.00044632
-0.0131061
-0.0125443
-0.228839
-0.234323
-0.223293
-0.204997
-0.18642
-0.168615
-0.150148
-0.130065
-0.10852
-0.086185
-0.0637031
-0.0415943
-0.020355
-0.000476283
0.0175695
0.0330003
0.0452
0.0533392
0.0568118
0.0548078
0.0465014
0.0317705
0.0109286
-0.0152313
-0.0437806
-0.0687451
-0.0840854
-0.0870786
-0.0809787
-0.0696614
-0.0561018
-0.0425376
-0.0299511
-0.0190497
-0.00987423
-0.0025088
0.00342842
0.00661123
0.00734963
0.00705468
0.00556649
0.00350853
-0.00343597
-0.0156162
-0.0403993
-0.0705377
-0.0954017
-0.0983355
-0.0787128
-0.0540436
-0.0304916
-0.0171411
-0.00263052
0.00557961
0.0144576
0.0180829
0.00840154
0.00141337
-0.0128347
-0.0128604
-0.206379
-0.211738
-0.203003
-0.187153
-0.170472
-0.154466
-0.138099
-0.120399
-0.101344
-0.0814798
-0.0614013
-0.041585
-0.0224581
-0.00445342
0.0119475
0.0260753
0.0373158
0.044997
0.0485126
0.0471499
0.0402435
0.0277394
0.0101403
-0.011466
-0.0345908
-0.0548051
-0.0676185
-0.0709985
-0.0669174
-0.0582367
-0.0472539
-0.0358449
-0.0249105
-0.0151514
-0.00671319
0.000148355
0.00583
0.00911927
0.0101411
0.00996205
0.00881184
0.00680251
0.000116876
-0.0117343
-0.03555
-0.0642867
-0.0883476
-0.091857
-0.0734265
-0.0499239
-0.0273541
-0.0145603
-0.000414175
0.0073515
0.0163377
0.0199127
0.00980131
0.00235618
-0.0123822
-0.0130207
-0.185325
-0.190847
-0.183962
-0.170354
-0.15558
-0.141315
-0.126874
-0.111371
-0.0946516
-0.0771268
-0.0593255
-0.0416873
-0.0245955
-0.00844839
0.00629889
0.0190997
0.0293946
0.0366199
0.0402258
0.0396293
0.0343339
0.0243256
0.0101148
-0.00726621
-0.0257992
-0.0420883
-0.0529014
-0.0565714
-0.0541935
-0.0477891
-0.039073
-0.0295857
-0.0201604
-0.011489
-0.00376668
0.0025977
0.00797279
0.0113018
0.0126005
0.0126584
0.0118374
0.0100929
0.00385478
-0.00726704
-0.0296583
-0.0569778
-0.0801591
-0.0841106
-0.0671695
-0.0452384
-0.0239808
-0.0118566
0.00181785
0.00908498
0.0179567
0.0215432
0.0111257
0.00332099
-0.0117362
-0.0129995
-0.166338
-0.171674
-0.166164
-0.154549
-0.141647
-0.129098
-0.11646
-0.102965
-0.0883987
-0.0730549
-0.057389
-0.0418068
-0.0266575
-0.0122958
0.00087197
0.0124019
0.0217914
0.0285598
0.032238
0.0323732
0.0286056
0.0209331
0.00980139
-0.00387389
-0.0184571
-0.0313432
-0.0404388
-0.0441845
-0.0430937
-0.038501
-0.0316564
-0.0238155
-0.0157346
-0.00808487
-0.00105914
0.0048281
0.00986791
0.0131757
0.0147202
0.0151159
0.0146719
0.0133448
0.00779412
-0.0022464
-0.0230062
-0.0487915
-0.0708164
-0.0751553
-0.0600201
-0.040044
-0.0204078
-0.00906281
0.0040414
0.0107742
0.0192821
0.0229171
0.0123562
0.00430465
-0.0108605
-0.0127533
-0.149087
-0.153968
-0.149595
-0.139784
-0.128657
-0.117746
-0.106779
-0.0951101
-0.0825064
-0.0691741
-0.0554955
-0.041835
-0.0285064
-0.0158183
-0.00412236
0.00618863
0.0146997
0.0209995
0.0246983
0.0254485
0.0229945
0.0173552
0.00890898
-0.00157378
-0.0128311
-0.0230776
-0.0304002
-0.0339253
-0.0336489
-0.0303922
-0.0250392
-0.0185836
-0.0116792
-0.00496847
0.00138514
0.00682417
0.0115279
0.0147692
0.0165201
0.0173211
0.0173413
0.0165252
0.0118203
0.00302625
-0.015868
-0.0398285
-0.0605075
-0.0652072
-0.0521243
-0.0344285
-0.016684
-0.00621668
0.00622675
0.0124204
0.0202958
0.02399
0.0134822
0.00532568
-0.00969691
-0.0122326
-0.133082
-0.13767
-0.134308
-0.126091
-0.116578
-0.107183
-0.0977479
-0.0877324
-0.0769057
-0.0654099
-0.0535598
-0.0416742
-0.0300316
-0.0189
-0.00858228
0.000582905
0.00825295
0.0140845
0.0177577
0.0190072
0.017657
0.0137409
0.0075678
-0.000253538
-0.00876554
-0.0166771
-0.0225208
-0.025609
-0.0257559
-0.0234327
-0.0192327
-0.0139182
-0.00802457
-0.00215734
0.00355492
0.00857264
0.0129632
0.0161134
0.0180237
0.0192476
0.0198328
0.0196047
0.0158568
0.00842839
-0.00835985
-0.0303344
-0.0495732
-0.0545769
-0.0436997
-0.0285169
-0.0128707
-0.0033576
0.00834125
0.0140312
0.0210041
0.0247527
0.0145337
0.00644044
-0.00818512
-0.0113857
-0.118474
-0.122815
-0.12027
-0.113424
-0.105352
-0.097337
-0.0892927
-0.0807662
-0.071538
-0.0617034
-0.0515186
-0.0412562
-0.0311608
-0.0214657
-0.0124263
-0.00432224
0.00255918
0.00793501
0.011546
0.0131887
0.012741
0.0102384
0.00592699
0.000279471
-0.00598188
-0.0119137
-0.0164373
-0.0189735
-0.0192652
-0.0175548
-0.0142181
-0.00982477
-0.00478869
0.000336822
0.00544833
0.0100644
0.0141731
0.0172316
0.0192619
0.0208763
0.0220863
0.0225492
0.019926
0.0139577
-0.000710901
-0.0207506
-0.0384627
-0.043666
-0.0350317
-0.0224683
-0.00903854
-0.000525452
0.0103513
0.0156175
0.0214587
0.0252498
0.0155848
0.00772544
-0.00627414
-0.0101675
-0.105318
-0.109274
-0.107363
-0.101707
-0.0949224
-0.0881506
-0.0813563
-0.074161
-0.0663608
-0.0580157
-0.0493325
-0.0405407
-0.0318503
-0.0234653
-0.0155938
-0.00846521
-0.00231612
0.00261844
0.00613046
0.00806232
0.00832678
0.00695654
0.00414193
0.000257441
-0.00415815
-0.00844812
-0.0118126
-0.0137551
-0.0140055
-0.0126665
-0.0099571
-0.00629289
-0.0019765
0.00250785
0.00706947
0.0113004
0.0151494
0.0181302
0.0202611
0.0222048
0.0240344
0.0252674
0.0239567
0.019429
0.00663403
-0.0116171
-0.0276654
-0.0329207
-0.0264488
-0.0164668
-0.00526525
0.00223995
0.0122261
0.0171854
0.0217727
0.0255842
0.0167425
0.00926161
-0.00393816
-0.00855685
-0.093303
-0.0968803
-0.0955138
-0.0909037
-0.0852564
-0.0795861
-0.0738998
-0.0678819
-0.0613449
-0.0543226
-0.0469784
-0.0395046
-0.0320814
-0.0248803
-0.0180612
-0.0118205
-0.00635171
-0.00184525
0.00153224
0.00365781
0.00446763
0.00399229
0.0023709
-0.000109833
-0.00303229
-0.00599487
-0.00835383
-0.00970944
-0.00980561
-0.0086647
-0.00639779
-0.00329935
0.000419908
0.00435601
0.00842472
0.0122905
0.015888
0.0187996
0.0210219
0.0232165
0.025667
0.0275072
0.0275217
0.0242684
0.0130978
-0.00337817
-0.0175933
-0.0227647
-0.0182869
-0.0107088
-0.00163323
0.00489731
0.0139416
0.0187219
0.0221159
0.0259047
0.0181323
0.0111104
-0.00120404
-0.00658136
-0.0823272
-0.0856152
-0.0847036
-0.0809729
-0.0763049
-0.0715983
-0.0668854
-0.0618999
-0.0564704
-0.0506107
-0.044449
-0.0381449
-0.0318501
-0.0257134
-0.019833
-0.0143974
-0.00955718
-0.00546457
-0.00225226
-1.71848e-05
0.0011917
0.00140064
0.000719349
-0.000644936
-0.00249872
-0.00433077
-0.00581746
-0.00661779
-0.0065021
-0.00544204
-0.00347785
-0.000810853
0.00241861
0.00588902
0.00952212
0.0130471
0.0163956
0.0192326
0.0215221
0.023828
0.0258952
0.0289592
0.0300035
0.0277384
0.0181755
0.00371466
-0.00857093
-0.0135782
-0.0108541
-0.00538218
0.00177425
0.0074007
0.0154799
0.0201867
0.0226766
0.0263709
0.01986
0.0132712
0.00181862
-0.00434314
-0.0724319
-0.0754356
-0.0748613
-0.0718519
-0.0680237
-0.0641535
-0.0602849
-0.0561949
-0.0517266
-0.0468784
-0.0417513
-0.0364735
-0.0311671
-0.0259386
-0.0209278
-0.0162257
-0.011966
-0.00827235
-0.00525132
-0.00298062
-0.00150068
-0.000792511
-0.000759756
-0.00116235
-0.00221874
-0.00321662
-0.0039864
-0.00429211
-0.00394531
-0.00289172
-0.00112849
0.00121367
0.00404509
0.00712147
0.0103725
0.0135835
0.0166874
0.0194309
0.0217608
0.0241696
0.0265306
0.0295558
0.0310519
0.0294711
0.0216283
0.0094819
-0.00090505
-0.0056825
-0.00438479
-0.000634491
0.00488239
0.00969982
0.0168239
0.0215111
0.0235848
0.0270929
0.0219399
0.015632
0.0049106
-0.00203058
-0.0634929
-0.0661864
-0.0658878
-0.0635129
-0.0603953
-0.0572308
-0.0540804
-0.0507563
-0.0471135
-0.0431383
-0.0389074
-0.0345264
-0.0300931
-0.0256869
-0.0214148
-0.0173634
-0.0136342
-0.0103226
-0.00751354
-0.00526998
-0.00362901
-0.0025886
-0.00211147
-0.0021717
-0.00223371
-0.00250286
-0.00268396
-0.00256819
-0.00199884
-0.000910759
0.000722045
0.00282067
0.00533064
0.0080739
0.0109905
0.0139128
0.0167781
0.0194043
0.0217354
0.0241695
0.0265652
0.029304
0.0308121
0.0296692
0.0235174
0.0137648
0.00517364
0.000733226
0.00100413
0.00345145
0.00763621
0.0117473
0.0179557
0.0226038
0.0248011
0.028067
0.02423
0.017943
0.00775559
0.000110468
-0.0553746
-0.0577934
-0.0577125
-0.0558606
-0.0533615
-0.05081
-0.0482677
-0.0455852
-0.0426391
-0.0394074
-0.0359443
-0.03233
-0.0286439
-0.0249595
-0.0213458
-0.0178773
-0.0146316
-0.0116833
-0.00909968
-0.00693208
-0.00521316
-0.00394434
-0.00309513
-0.00259339
-0.00225497
-0.00202756
-0.0017602
-0.00130554
-0.000541077
0.000597517
0.00214552
0.00405982
0.00631046
0.0087715
0.011394
0.0140497
0.0166832
0.0191653
0.0214472
0.0238133
0.0260685
0.0283973
0.0296955
0.0288187
0.0241364
0.0165874
0.00966122
0.00568888
0.00532336
0.00685738
0.0100038
0.0135067
0.0188655
0.02339
0.0260597
0.0290991
0.0264023
0.0198635
0.0100322
0.00185622
-0.0480331
-0.0502061
-0.050288
-0.0488643
-0.0468772
-0.0448384
-0.0428126
-0.0406753
-0.0383171
-0.0357117
-0.0328981
-0.02994
-0.0268996
-0.0238336
-0.0207966
-0.0178445
-0.0150371
-0.0124316
-0.0100808
-0.00802652
-0.00629738
-0.00489596
-0.00380187
-0.00296117
-0.00228727
-0.00170053
-0.00110252
-0.00038824
0.000533986
0.00172178
0.00321109
0.00498256
0.00702144
0.0092415
0.0116051
0.0140135
0.0164215
0.0187344
0.0209077
0.0231305
0.0251487
0.0270601
0.0280901
0.0273889
0.0238899
0.0182013
0.0127733
0.00936829
0.00867317
0.00961077
0.0119696
0.0149529
0.0195506
0.0238363
0.0269692
0.029785
0.0279758
0.0210848
0.0115422
0.00309215
-0.0414206
-0.0433549
-0.0435494
-0.0424734
-0.0409117
-0.0393015
-0.0377062
-0.036023
-0.0341554
-0.0320751
-0.029809
-0.0274062
-0.0249158
-0.0223814
-0.0198442
-0.0173468
-0.0149341
-0.0126493
-0.0105338
-0.00862112
-0.00693755
-0.00548258
-0.00424886
-0.00320159
-0.00229141
-0.00145504
-0.000623811
0.000277949
0.00131681
0.00254149
0.00398385
0.00563927
0.00750145
0.00951355
0.0116477
0.0138275
0.016017
0.0181377
0.0201421
0.0220535
0.0239249
0.0254851
0.0262767
0.0257176
0.0231414
0.0189452
0.0148022
0.0120036
0.0111863
0.0117611
0.0135319
0.0160685
0.0199894
0.0239157
0.0272223
0.0297203
0.028494
0.0214526
0.0122725
0.00383101
-0.0354531
-0.0371649
-0.0374378
-0.0366437
-0.0354331
-0.0341775
-0.032937
-0.0316276
-0.0301655
-0.0285215
-0.0267132
-0.0247777
-0.0227528
-0.0206718
-0.0185657
-0.0164661
-0.0144066
-0.0124193
-0.0105366
-0.00878778
-0.00718466
-0.00574103
-0.00444883
-0.00329034
-0.00223568
-0.00123994
-0.000256558
0.000768919
0.00188338
0.00312637
0.00452355
0.00607826
0.00778895
0.00961897
0.011548
0.0135162
0.0154957
0.0174161
0.0192444
0.0209557
0.0225569
0.023822
0.0244336
0.0240054
0.022143
0.0191098
0.0160187
0.0138067
0.0129975
0.0133659
0.0147038
0.0168457
0.0201434
0.0236021
0.0267101
0.0286864
0.0278005
0.0210103
0.0123405
0.00415457
-0.030066
-0.0315786
-0.0319039
-0.0313354
-0.030411
-0.0294457
-0.028495
-0.0274907
-0.0263605
-0.0250757
-0.0236468
-0.0221012
-0.0204677
-0.0187713
-0.0170349
-0.0152816
-0.013536
-0.0118231
-0.0101717
-0.00858602
-0.00709849
-0.00570952
-0.00442167
-0.00322407
-0.0020995
-0.00101799
5.05625e-05
0.00114479
0.00229643
0.00353639
0.00488379
0.00634539
0.00792163
0.0095888
0.0113323
0.0131045
0.0148852
0.0166107
0.018258
0.0197714
0.0211325
0.0221668
0.0226591
0.0223576
0.0210425
0.0188983
0.0166435
0.0149667
0.0142354
0.0144872
0.0155061
0.0172887
0.0199957
0.0229113
0.0255406
0.0268714
0.0261102
0.0199249
0.011909
0.00416219
-0.0252143
-0.0265451
-0.0268995
-0.0265085
-0.0258155
-0.0250858
-0.0243699
-0.0236125
-0.0227516
-0.0217601
-0.0206431
-0.0194206
-0.0181141
-0.0167421
-0.0153212
-0.0138675
-0.0123985
-0.0109325
-0.00948626
-0.00808436
-0.00672959
-0.00543058
-0.00419245
-0.00300934
-0.00187289
-0.000764054
0.000335416
0.00145221
0.00260675
0.0038222
0.00511158
0.00648245
0.00793505
0.00945371
0.0110283
0.01262
0.0142155
0.0157556
0.017224
0.0185515
0.0197153
0.020578
0.0209995
0.0208196
0.019922
0.0184476
0.0168444
0.0156327
0.0150074
0.0151883
0.0159657
0.0174167
0.0195631
0.0218996
0.0239526
0.024631
0.0238103
0.0184053
0.0111452
0.00395641
-0.020848
-0.0220124
-0.0223781
-0.0221257
-0.0216187
-0.0210788
-0.0205516
-0.0199922
-0.019348
-0.0185939
-0.0177316
-0.0167752
-0.0157404
-0.0146408
-0.0134879
-0.012293
-0.0110688
-0.00982865
-0.00858542
-0.0073519
-0.00613708
-0.00494802
-0.0037897
-0.00265955
-0.00155452
-0.000463187
0.000624507
0.00172633
0.00285447
0.00402548
0.00524728
0.00652631
0.00786221
0.00924388
0.0106639
0.0120902
0.0135141
0.0148815
0.016181
0.0173407
0.0183489
0.0190884
0.019473
0.019404
0.018822
0.0178455
0.0167416
0.0159268
0.015398
0.015531
0.0161182
0.017261
0.0188871
0.0206376
0.0221798
0.022248
0.021264
0.0166506
0.0101979
0.00363187
-0.0169196
-0.0179342
-0.018299
-0.0181537
-0.0177947
-0.0174067
-0.0170297
-0.0166278
-0.0161566
-0.0155935
-0.0149376
-0.0141989
-0.0133887
-0.0125165
-0.0115902
-0.0106172
-0.00960665
-0.00856833
-0.00751056
-0.00644155
-0.00536978
-0.00430186
-0.00324285
-0.00219208
-0.00114944
-0.000108612
0.000934923
0.00199244
0.00307031
0.00417964
0.00532449
0.00650929
0.00773284
0.00898649
0.0102644
0.0115399
0.0128064
0.0140171
0.0151641
0.0161764
0.0170627
0.0177134
0.0180809
0.0181078
0.0177615
0.017144
0.016407
0.0159626
0.015469
0.0155719
0.0160046
0.0168657
0.0180293
0.0191907
0.0199722
0.019874
0.018731
0.0148233
0.00917754
0.0032595
-0.0133905
-0.014271
-0.0146255
-0.0145616
-0.0143196
-0.014052
-0.0137937
-0.0135161
-0.0131819
-0.0127713
-0.0122817
-0.01172
-0.0110943
-0.010411
-0.00967513
-0.00889155
-0.00806606
-0.00720548
-0.00631614
-0.00540307
-0.00447258
-0.00353034
-0.00258152
-0.0016267
-0.00066722
0.000300035
0.0012761
0.00226749
0.00327675
0.00431072
0.00537047
0.00645843
0.0075726
0.00870537
0.00985221
0.0109906
0.0121149
0.0131864
0.0142025
0.015116
0.0158768
0.0164576
0.0168172
0.0169218
0.0167475
0.0163749
0.0158475
0.0152976
0.0152338
0.0153629
0.015672
0.01628
0.0170577
0.0177484
0.0181644
0.0176804
0.0163733
0.0130405
0.00815602
0.00288313
-0.0102258
-0.0109862
-0.011324
-0.011321
-0.0111706
-0.0109979
-0.0108327
-0.0106523
-0.010426
-0.0101362
-0.00977987
-0.00936134
-0.00888632
-0.00835903
-0.00778248
-0.00715946
-0.00649342
-0.00578859
-0.00505001
-0.00428128
-0.00348635
-0.0026692
-0.00183474
-0.000984536
-0.000120624
0.000758303
0.00165128
0.00256158
0.00348918
0.0044377
0.00540637
0.00639562
0.00740286
0.00842119
0.00944604
0.0104591
0.0114557
0.0124029
0.0132968
0.0140957
0.0147813
0.0153146
0.0156715
0.0158354
0.0157863
0.0155951
0.0152723
0.0149973
0.0148921
0.0149763
0.0151709
0.0155541
0.0160166
0.0163324
0.0164165
0.015691
0.0142632
0.0113775
0.00717967
0.00252689
-0.00739332
-0.00804719
-0.00836433
-0.00840624
-0.00832715
-0.00822858
-0.00813579
-0.00803093
-0.00788877
-0.00769428
-0.00744401
-0.00714066
-0.00678808
-0.00638898
-0.0059449
-0.0054572
-0.00492774
-0.00435873
-0.00375362
-0.00311576
-0.00244755
-0.00175104
-0.00103016
-0.000287107
0.000475609
0.00125825
0.00205902
0.00287907
0.00371683
0.00457369
0.00544762
0.00633769
0.00724062
0.00815001