/*--------------------------------*- C++ -*----------------------------------*\
| =========                 |                                                 |
| \\      /  F ield         | OpenFOAM: The Open Source CFD Toolbox           |
|  \\    /   O peration     | Version:  2512                                  |
|   \\  /    A nd           | Website:  www.openfoam.com                      |
|    \\/     M anipulation  |                                                 |
\*---------------------------------------------------------------------------*/
FoamFile
{
    version     2.0;
    format      ascii;
    arch        "LSB;label=32;scalar=64";
    class       surfaceScalarField;
    location    "74";
    object      phi;
}
// * * * * * * * * * * * * * * * * * * * * * * * * * * * * * * * * * * * * * //

dimensions      [0 3 -1 0 0 0 0];

oriented        oriented;

internalField   nonuniform List<scalar> 
26232
(
-2.23047e-05
0.000956354
-0.00093405
0.000147261
0.00183469
-0.00200426
0.00070705
0.00185195
-0.00241174
0.00183813
0.00106202
-0.0021931
0.00371542
-0.000514934
-0.00136235
0.00650848
-0.00287684
8.37764e-05
0.0103798
-0.00602728
0.00215592
0.0154712
-0.00996383
0.00487248
0.0218913
-0.0146645
0.00824435
0.0296986
-0.0200785
0.0122713
0.0388857
-0.0261218
0.0169348
0.0493696
-0.0326776
0.0221937
0.0609887
-0.0396025
0.0279834
0.0735087
-0.0467369
0.0342169
0.0866361
-0.0539169
0.0407895
0.100039
-0.060987
0.0475843
0.113371
-0.0678111
0.0544792
0.126297
-0.0742831
0.0613563
0.138525
-0.0803288
0.068101
0.149813
-0.0859269
0.0746394
0.160006
-0.0910464
0.0808534
0.168977
-0.095841
0.0868696
0.176632
-0.100002
0.0923477
-0.104499
0.0985084
0.182622
4.17719e-05
0.000914582
0.000410925
0.00146554
0.00132763
0.000935245
0.00299796
-0.000608312
0.00561894
-0.00313591
0.00937237
-0.00663026
0.0144112
-0.0110662
0.0208395
-0.0163921
0.0286912
-0.0225162
0.0379135
-0.0293009
0.0483588
-0.0365671
0.0597887
-0.0441075
0.0718912
-0.051705
0.0843076
-0.0591532
0.0966653
-0.0662746
0.108613
-0.0729347
0.119853
-0.079051
0.130165
-0.0845954
0.139427
-0.0895903
0.147602
-0.0941027
0.154773
-0.0982168
0.161009
-0.102077
0.16664
-0.105634
-0.109488
0.171629
0.000124841
0.000789741
0.00074823
0.000842151
0.00210794
-0.000424462
0.0044275
-0.00292788
0.00791094
-0.00661934
0.0127248
-0.0114442
0.0189728
-0.0173141
0.0266689
-0.0240881
0.0357177
-0.0315651
0.0459103
-0.0394934
0.0569371
-0.047594
0.0684194
-0.0555898
0.0799509
-0.0632365
0.0911439
-0.0703462
0.101672
-0.0768025
0.111301
-0.0825638
0.119908
-0.0876582
0.127482
-0.0921693
0.134107
-0.0962158
0.139938
-0.0999331
0.145162
-0.103441
0.149957
-0.106873
0.154519
-0.110196
-0.113841
0.158873
0.000224683
0.000565058
0.00114877
-8.19382e-05
0.00302125
-0.00229694
0.00606867
-0.0059753
0.0104759
-0.0110266
0.016354
-0.0173223
0.0237065
-0.0246666
0.0324048
-0.0327864
0.0421871
-0.0413473
0.0526818
-0.0499882
0.0634549
-0.0583671
0.0740681
-0.066203
0.0841365
-0.0733049
0.0933742
-0.0795839
0.10162
-0.0850482
0.108841
-0.0897845
0.115113
-0.0939307
0.120591
-0.0976469
0.125464
-0.101089
0.129918
-0.104388
0.134118
-0.10764
0.138167
-0.110922
0.142183
-0.114212
-0.117779
0.146121
0.000339664
0.000225394
0.00160279
-0.00134506
0.00403747
-0.00473162
0.00784998
-0.00978781
0.0131685
-0.0163451
0.0199993
-0.0241532
0.0281955
-0.0328627
0.0374542
-0.0420451
0.0473512
-0.0512443
0.0574048
-0.0600418
0.0671517
-0.0681139
0.0762146
-0.0752659
0.0843485
-0.0814388
0.0914556
-0.086691
0.0975717
-0.0911643
0.102831
-0.0950437
0.107419
-0.0985192
0.111531
-0.101759
0.115337
-0.104894
0.118965
-0.108015
0.122502
-0.111178
0.125997
-0.114416
0.1295
-0.117715
-0.121234
0.132956
0.000469081
-0.000243687
0.00210042
-0.0029764
0.00512094
-0.00775213
0.00968324
-0.0143501
0.0158126
-0.0224744
0.0233622
-0.0317028
0.0320048
-0.0415053
0.0412731
-0.0513134
0.0506409
-0.0606122
0.0596178
-0.0690187
0.0678281
-0.0763241
0.0750556
-0.0824935
0.0812486
-0.0876317
0.0864894
-0.0919317
0.0909453
-0.0956202
0.0948155
-0.0989139
0.0982887
-0.101992
0.101517
-0.104987
0.10461
-0.107987
0.107636
-0.111041
0.110637
-0.114179
0.113634
-0.117413
0.116653
-0.120735
-0.124228
0.119647
0.000611424
-0.000855111
0.002627
-0.00499198
0.00622291
-0.011348
0.0114563
-0.0195835
0.018203
-0.0292211
0.0261326
-0.0396324
0.0347471
-0.0501198
0.0434764
-0.0600426
0.0517931
-0.068929
0.0593074
-0.076533
0.0658129
-0.0828297
0.0712828
-0.0879634
0.0758263
-0.0921753
0.0796289
-0.0957343
0.0828948
-0.0988862
0.0858066
-0.101826
0.0885048
-0.104691
0.0910863
-0.107569
0.093611
-0.110511
0.0961136
-0.113544
0.0986128
-0.116678
0.101117
-0.119917
0.103638
-0.123255
-0.126727
0.106137
0.00076283
-0.00161794
0.00315942
-0.00738857
0.00727801
-0.0154666
0.0130363
-0.0253419
0.0201275
-0.0363122
0.0280411
-0.047546
0.0361645
-0.0582432
0.0439203
-0.0677984
0.0508813
-0.0758901
0.0568265
-0.0824782
0.0617319
-0.087735
0.0657175
-0.091949
0.0689783
-0.095436
0.0717218
-0.0984778
0.0741281
-0.101293
0.0763326
-0.10403
0.0784257
-0.106784
0.0804623
-0.109606
0.0824734
-0.112522
0.0844752
-0.115546
0.086476
-0.118679
0.0884796
-0.121921
0.0904908
-0.125267
-0.128722
0.0924853
0.000916368
-0.00253431
0.00366591
-0.0101381
0.00820858
-0.0200093
0.0142867
-0.0314199
0.0214042
-0.0434298
0.0289151
-0.0550569
0.0361787
-0.0655068
0.0427046
-0.0743243
0.0482275
-0.0814129
0.0527024
-0.0869531
0.0562452
-0.0912778
0.059054
-0.0947578
0.0613408
-0.0977228
0.0632878
-0.100425
0.0650303
-0.103035
0.066657
-0.105657
0.068221
-0.108348
0.0697516
-0.111136
0.0712641
-0.114035
0.0727664
-0.117048
0.0742624
-0.120175
0.0757544
-0.123413
0.0772434
-0.126756
-0.130194
0.0787154
0.00106247
-0.00359678
0.0041093
-0.0131849
0.00893579
-0.0248358
0.0150913
-0.0375755
0.0219183
-0.0502568
0.0287087
-0.0618472
0.0348822
-0.0716804
0.0400962
-0.0795383
0.0442566
-0.0855733
0.0474575
-0.090154
0.0498934
-0.0937138
0.0517813
-0.0966457
0.0533099
-0.0992514
0.0546194
-0.101734
0.0558015
-0.104217
0.05691
-0.106765
0.0579744
-0.109412
0.05901
-0.112172
0.0600247
-0.11505
0.0610229
-0.118046
0.0620068
-0.121159
0.0629773
-0.124383
0.0639337
-0.127712
-0.13113
0.0648699
0.00119064
-0.00478742
0.00445362
-0.0164479
0.00939414
-0.0297763
0.0153768
-0.0435582
0.0216388
-0.0565188
0.027492
-0.0677003
0.0324807
-0.0766691
0.0364271
-0.0834848
0.0393798
-0.088526
0.0415186
-0.0922928
0.0430639
-0.095259
0.0442144
-0.0977962
0.0451204
-0.100157
0.0458803
-0.102494
0.0465522
-0.104889
0.0471675
-0.107381
0.047742
-0.109987
0.0482842
-0.112714
0.0487988
-0.115564
0.0492886
-0.118536
0.0497548
-0.121625
0.0501977
-0.124826
0.0506149
-0.128129
-0.13152
0.0510046
0.00129372
-0.00608114
0.00467276
-0.019827
0.00954364
-0.0346472
0.0151219
-0.0491364
0.0206124
-0.0620092
0.0254158
-0.0725037
0.0292295
-0.0804828
0.032023
-0.0862783
0.0339423
-0.0904453
0.0352044
-0.0935549
0.0360198
-0.0960743
0.036553
-0.0983295
0.0369145
-0.100519
0.0371699
-0.10275
0.0373541
-0.105073
0.037485
-0.107511
0.0375713
-0.110073
0.0376183
-0.112761
0.0376292
-0.115575
0.0376062
-0.118513
0.0375508
-0.12157
0.037463
-0.124738
0.0373402
-0.128006
0.0371838
-0.131363
-0.000237085
-2.70481e-06
0.00023979
-0.000816361
0.000381026
0.00019825
-0.00165921
0.00104069
-0.000197841
-0.00270966
0.00187255
-0.000822106
-0.003926
0.00279504
-0.0015787
-0.00527619
0.00375674
-0.00240655
-0.0067343
0.00473474
-0.00327663
-0.00827798
0.00572909
-0.00418541
-0.00988675
0.00675524
-0.00514647
-0.0115409
0.00783622
-0.0061821
-0.0132205
0.00899597
-0.00731635
-0.0149048
0.0102547
-0.00857037
-0.0165713
0.0116263
-0.0099598
-0.0181948
0.0131171
-0.0114936
-0.019747
0.0147257
-0.0131736
-0.0211958
0.0164425
-0.0149937
-0.022506
0.0182495
-0.0169394
-0.0236393
0.0201196
-0.0189863
-0.0245568
0.0220169
-0.0210995
-0.0252204
0.0238967
-0.023233
-0.0255961
0.025707
-0.0253313
-0.0256571
0.0273901
-0.0273291
-0.0253956
0.0288895
-0.029151
0.0301829
-0.0248511
-0.0307273
-0.000199883
0.000197178
-0.000688159
0.000869302
-0.00139588
0.00174841
-0.0022725
0.00274917
-0.00327966
0.0038022
-0.00438661
0.00486369
-0.00556671
0.00591484
-0.00679483
0.00695721
-0.0080458
0.00800621
-0.00929353
0.00908395
-0.0105106
0.0102131
-0.011668
0.0114121
-0.0127345
0.0126928
-0.0136764
0.014059
-0.0144566
0.015506
-0.0150348
0.0170207
-0.0153667
0.0185815
-0.0154049
0.0201578
-0.0150989
0.0217109
-0.0143961
0.0231939
-0.0132439
0.0245548
-0.0115934
0.0257396
-0.00940695
0.0267031
0.0274607
-0.0066848
-0.000154879
0.000352057
-0.000533113
0.00124754
-0.00107641
0.0022917
-0.0017396
0.00341237
-0.00248697
0.00454956
-0.00328834
0.00566506
-0.00411578
0.00674228
-0.00494107
0.00778251
-0.00573422
0.00879935
-0.00646273
0.00981247
-0.00709153
0.0108419
-0.00758303
0.0119036
-0.00789712
0.0130069
-0.00799108
0.0141529
-0.00781922
0.0153341
-0.00733244
0.0165339
-0.00647904
0.0177281
-0.0052035
0.0188823
-0.0034469
0.0199543
-0.00114664
0.0208937
0.00176355
0.0216446
0.00535259
0.0221505
0.00969172
0.0223639
0.0223168
0.0148356
-0.000110068
0.000462125
-0.000376281
0.00151375
-0.00074882
0.00266424
-0.00118595
0.0038495
-0.00165297
0.00501658
-0.00211914
0.00613124
-0.00255467
0.0071778
-0.00292825
0.00815609
-0.00320556
0.00907666
-0.00334858
0.0099555
-0.00331516
0.0108084
-0.00306036
0.0116488
-0.00253576
0.0124823
-0.00169019
0.0133074
-0.000470125
0.0141141
0.00117984
0.014884
0.00331905
0.0155888
0.0060081
0.0161932
0.00930972
0.0166526
0.0132892
0.0169141
0.0180163
0.0169176
0.0235662
0.0166007
0.0300188
0.0159114
0.0147907
0.0375449
-7.26975e-05
0.000534823
-0.000241127
0.00168218
-0.000459051
0.00288217
-0.0006848
0.00407525
-0.000882313
0.00521409
-0.00101879
0.00626771
-0.00106181
0.00722082
-0.000977078
0.00807136
-0.000726547
0.00882613
-0.000267685
0.00949663
0.000445762
0.010095
0.00146571
0.0106288
0.00284684
0.0111012
0.00464687
0.0115073
0.00692621
0.0118347
0.00974766
0.0120625
0.013175
0.0121615
0.0172738
0.0120945
0.0221106
0.0118158
0.0277526
0.0112721
0.0342681
0.0104021
0.0417396
0.0091292
0.0502082
0.00744276
0.0049705
0.0600283
-4.8288e-05
0.000583111
-0.000145669
0.00177956
-0.000242955
0.00297945
-0.000294452
0.00412675
-0.000259988
0.00517963
-0.000102979
0.00611071
0.000212358
0.00690548
0.000723854
0.00755986
0.00147275
0.00807724
0.00250496
0.00846443
0.00387181
0.00872813
0.00562877
0.00887186
0.00783604
0.00889391
0.0105575
0.00878592
0.01386
0.00853215
0.0178134
0.00810913
0.0224893
0.00748566
0.027961
0.0066227
0.0343041
0.00547274
0.0415947
0.0039815
0.0499008
0.00209598
0.059332
-0.000301981
0.0698331
-0.0030584
-0.00721238
0.082016
-3.94335e-05
0.000622544
-9.83927e-05
0.00183852
-0.000117768
0.00299883
-4.36766e-05
0.00405266
0.000170674
0.00496528
0.000567908
0.00571347
0.00118914
0.00628425
0.00207663
0.00667237
0.00327619
0.00687768
0.00483854
0.00690207
0.00682003
0.00674664
0.00928271
0.00640917
0.0122942
0.0058824
0.0159273
0.00515281
0.0202596
0.00419984
0.0253727
0.00299604
0.0313513
0.00150711
0.0382809
-0.000306913
0.0462526
-0.00249896
0.0553542
-0.00512007
0.0656506
-0.00820046
0.0772932
-0.0119445
0.090064
-0.0158293
-0.021912
0.104764
-4.48482e-05
0.000667393
-9.49468e-05
0.00188862
-7.49167e-05
0.0029788
8.08443e-05
0.0038969
0.000429253
0.00461687
0.00102151
0.00512121
0.00190692
0.00539884
0.00313609
0.00544321
0.00476357
0.0052502
0.00684976
0.00481588
0.009462
0.00413441
0.012675
0.00319619
0.0165707
0.00198673
0.0212372
0.000486295
0.0267688
-0.00133184
0.0332628
-0.00349795
0.0408174
-0.00604748
0.0495298
-0.00901924
0.0594833
-0.0124526
0.0707597
-0.0163964
0.0833872
-0.0208279
0.0974813
-0.0260387
0.112737
-0.0310846
-0.0389558
0.129781
-5.90192e-05
0.000726412
-0.000116948
0.00194655
-7.73665e-05
0.00293922
0.000140943
0.00367859
0.000608345
0.00414947
0.00138935
0.00434021
0.00254704
0.00424115
0.00414704
0.00384321
0.00626047
0.00313677
0.00896589
0.00211047
0.0123501
0.000750206
0.0165077
-0.000961456
0.0215397
-0.00304525
0.0275506
-0.00552458
0.0346434
-0.00842469
0.0429161
-0.0117706
0.0524541
-0.0155855
0.0633237
-0.0198888
0.075562
-0.0246909
0.0891734
-0.0300079
0.104105
-0.0357599
0.12029
-0.042223
0.137493
-0.0482884
-0.0571396
0.155677
-7.28551e-05
0.000799267
-0.000134217
0.00200791
-6.35696e-05
0.00286857
0.000239233
0.00337579
0.000863383
0.00352532
0.00189303
0.00331057
0.00341272
0.00272146
0.00551148
0.00174444
0.00828514
0.000363107
0.0118367
-0.00144113
0.0162749
-0.00368799
0.0217103
-0.00639685
0.0282499
-0.00958477
0.0359896
-0.0132644
0.0450066
-0.0174417
0.0553503
-0.0221143
0.0670343
-0.0272694
0.0800293
-0.0328838
0.0942575
-0.038919
0.109587
-0.0453371
0.125845
-0.0520183
0.142727
-0.0591047
0.160146
-0.065708
-0.0742478
0.177255
-7.58327e-05
0.0008751
-0.000111938
0.00204401
3.7508e-05
0.00271912
0.00049538
0.00291791
0.00137506
0.00264563
0.00278713
0.00189849
0.00484402
0.000664569
0.00766294
-0.00107447
0.0113649
-0.00333881
0.0160707
-0.00614701
0.0218948
-0.00951208
0.0289355
-0.0134376
0.0372651
-0.0179144
0.0469192
-0.0229185
0.0578877
-0.0284101
0.0701076
-0.0343342
0.0834599
-0.0406217
0.0977699
-0.0471939
0.11281
-0.0539594
0.128315
-0.0608421
0.144003
-0.0677058
0.15951
-0.0746123
0.174791
-0.0809881
-0.0881244
0.188667
-5.89494e-05
-1.91946e-05
0.000288189
0.001013
0.00229628
0.00427855
0.00709903
0.010897
0.0158026
0.0219269
0.0293495
0.0381057
0.0481747
0.0594731
0.0718525
0.0851025
0.09896
0.113122
0.127264
0.141061
0.154209
0.166466
0.177826
0.18821
-0.022696
0.0412123
-0.0433674
-0.0199532
0.041603
-0.0443458
-0.0165483
0.0403882
-0.0437931
-0.0124735
0.0372873
-0.0413622
-0.00769758
0.0318373
-0.0366132
-0.00222384
0.0236861
-0.0291599
0.00387893
0.012586
-0.0186888
0.0104213
-0.00147662
-0.00506577
0.0174986
-0.0183064
0.0112291
0.0247835
-0.0375256
0.0302406
0.0320907
-0.0582185
0.0509113
0.0389921
-0.0791153
0.0722139
0.0450604
-0.0985907
0.0925224
0.0496961
-0.115174
0.110538
0.052173
-0.128095
0.125618
0.051987
-0.137688
0.137874
0.0494659
-0.145087
0.147608
0.0462975
-0.150786
0.153955
0.0452025
-0.152615
0.15371
0.0485184
-0.145402
0.142086
0.0567123
-0.123757
0.115563
0.0684815
-0.0859512
0.0741819
0.0823453
-0.0350058
0.021142
0.0967527
0.0224963
-0.0369037
0.110273
0.0780534
-0.0915737
0.121297
0.123585
-0.134609
0.128946
0.155285
-0.162934
0.133408
0.173294
-0.177755
0.134659
0.181388
-0.18264
0.131714
0.188268
-0.185323
0.124645
0.201412
-0.194343
0.116647
0.214108
-0.20611
0.112585
0.20388
-0.199818
0.115072
0.151473
-0.153959
0.123127
0.0617782
-0.0698336
0.133279
-0.0389649
0.0288134
0.142273
-0.124739
0.115745
0.148655
-0.182536
0.176154
0.152175
-0.210494
0.206973
0.151508
-0.220669
0.221337
0.145391
-0.231954
0.238071
0.135716
-0.247605
0.25728
0.127599
-0.240918
0.249035
0.125383
-0.180059
0.182275
0.129785
-0.0719325
0.0675304
0.137955
0.0514271
-0.0595966
0.145622
0.145502
-0.15317
0.148124
0.218818
-0.22132
0.143733
0.267166
-0.262775
0.135848
0.306306
-0.298421
0.129942
0.281504
-0.275598
0.130264
0.187688
-0.188011
0.135574
0.0491047
-0.0544139
0.139456
-0.102545
0.0986629
0.138992
-0.191967
0.19243
0.134773
-0.318055
0.322275
0.130007
-0.295496
0.300262
0.128514
-0.290031
0.291524
0.127462
-0.139817
0.140868
0.0887707
-0.0873496
-0.0032278
0.0377553
0.000615618
0.0377595
0.00487241
0.0361314
0.00964998
0.0325098
0.0148921
0.0265952
0.0205212
0.0180571
0.0264439
0.00666331
0.0325695
-0.00760225
0.0388079
-0.0245448
0.0449984
-0.043716
0.0509767
-0.0641968
0.0564705
-0.0846092
0.0611175
-0.103238
0.0644077
-0.118464
0.0656514
-0.129339
0.0640718
-0.136109
0.0593582
-0.140373
0.0525328
-0.143961
0.0463544
-0.146437
0.0443065
-0.143354
0.0484891
-0.12794
0.0584315
-0.0958935
0.0722276
-0.0488019
0.0877732
0.00695066
0.103051
0.0627759
0.11619
0.110445
0.126097
0.145378
0.132563
0.166827
0.135144
0.178808
0.133073
0.190339
0.127172
0.207313
0.120907
0.220372
0.11841
0.206377
0.121419
0.148464
0.128868
0.0543288
0.137735
-0.0478321
0.145091
-0.132095
0.149673
-0.187117
0.151733
-0.212554
0.150298
-0.219235
0.143822
-0.225478
0.13372
-0.237503
0.125094
-0.232293
0.122782
-0.177747
0.127803
-0.0769536
0.137004
0.0422266
0.14553
0.136976
0.148586
0.215762
0.144553
0.271199
0.136846
0.314013
0.130884
0.287466
0.130904
0.187668
0.136047
0.0439621
0.13992
-0.106418
0.139354
-0.1914
0.13516
-0.313861
0.130554
-0.29089
0.129342
-0.288819
0.128077
-0.138551
0.0905796
0.0191578
0.0334332
0.0237746
0.0331427
0.0287246
0.0311815
0.0339574
0.0272769
0.0393893
0.0211633
0.0449144
0.012532
0.0504363
0.00114137
0.0558866
-0.0130525
0.0611291
-0.0297873
0.0660785
-0.0486655
0.0706138
-0.068732
0.0745347
-0.0885301
0.0775496
-0.106253
0.0792738
-0.120188
0.0792223
-0.129287
0.0767698
-0.133656
0.0711909
-0.134795
0.0624604
-0.13523
0.0524793
-0.136456
0.0450989
-0.135974
0.0441134
-0.126954
0.0507504
-0.102531
0.0633702
-0.0614216
0.0793959
-0.00907503
0.0960036
0.0461681
0.111066
0.0953831
0.123162
0.133281
0.131579
0.15841
0.135561
0.174826
0.134696
0.191204
0.130378
0.211631
0.126033
0.224717
0.124952
0.207458
0.128164
0.145252
0.134657
0.0478359
0.142026
-0.0552011
0.147696
-0.137765
0.150522
-0.189944
0.151158
-0.213189
0.149064
-0.217141
0.142446
-0.218859
0.132136
-0.227193
0.12309
-0.223247
0.120604
-0.175261
0.126055
-0.0824037
0.136115
0.0321664
0.145447
0.127644
0.149122
0.212087
0.145559
0.274761
0.138117
0.321455
0.13211
0.293474
0.131756
0.188022
0.136655
0.0390637
0.140522
-0.110286
0.139878
-0.190756
0.135667
-0.309651
0.131163
-0.286386
0.130231
-0.287888
0.128806
-0.137126
0.0927534
0.0424714
0.0285067
0.047659
0.0279551
0.0530251
0.0258154
0.0584826
0.0218194
0.06391
0.0157359
0.0691396
0.00730242
0.0743219
-0.00404095
0.0790454
-0.017776
0.0833448
-0.0340867
0.0871255
-0.0524462
0.090266
-0.0718725
0.092576
-0.0908401
0.0937977
-0.107474
0.0936739
-0.120064
0.0920333
-0.127647
0.0886576
-0.130281
0.0829507
-0.129088
0.0741068
-0.126387
0.062494
-0.124843
0.0510575
-0.124537
0.0445341
-0.120431
0.0463725
-0.104369
0.0564078
-0.0714569
0.071802
-0.0244692
0.0892537
0.0287164
0.105953
0.0786835
0.120058
0.119177
0.130325
0.148143
0.135816
0.169336
0.136488
0.190531
0.134103
0.214017
0.131758
0.227062
0.131914
0.207302
0.135061
0.142105
0.140376
0.0425204
0.146071
-0.0608958
0.150048
-0.141742
0.151201
-0.191097
0.150449
-0.212438
0.147755
-0.214446
0.14118
-0.212284
0.130899
-0.216913
0.121554
-0.213901
0.118812
-0.17252
0.124506
-0.0880978
0.135253
0.02142
0.145346
0.117551
0.149708
0.207725
0.146744
0.277725
0.13967
0.328528
0.13364
0.299504
0.132852
0.188811
0.137393
0.0345223
0.14125
-0.114142
0.140552
-0.190058
0.136283
-0.305382
0.131821
-0.281924
0.131158
-0.287225
0.12963
-0.135598
0.0952606
0.0652735
0.0232615
0.0707324
0.0224962
0.076329
0.0202188
0.0818894
0.016259
0.0872758
0.0103496
0.0923118
0.00226643
0.0970825
-0.00881172
0.101235
-0.0219283
0.104706
-0.0375581
0.107373
-0.0551126
0.109083
-0.0735832
0.109662
-0.0914192
0.108955
-0.106767
0.106887
-0.117997
0.10351
-0.12427
0.0989537
-0.125724
0.0930972
-0.123231
0.0851155
-0.118405
0.0740945
-0.113822
0.0610474
-0.11149
0.0500505
-0.109434
0.0462325
-0.100551
0.0519577
-0.0771821
0.0654108
-0.0379223
0.0828814
0.0112459
0.10076
0.060805
0.11656
0.103376
0.128538
0.136165
0.135668
0.162206
0.138201
0.187998
0.138022
0.214195
0.137727
0.227358
0.138972
0.206057
0.141867
0.13921
0.145843
0.0385449
0.149784
-0.0648374
0.152072
-0.144029
0.151659
-0.190685
0.149585
-0.210363
0.146338
-0.211199
0.139965
-0.205911
0.129935
-0.206883
0.120429
-0.204395
0.11738
-0.169471
0.123114
-0.0938321
0.134374
0.0101604
0.14518
0.106745
0.150307
0.202598
0.148083
0.279949
0.141494
0.335118
0.135477
0.30552
0.13419
0.190098
0.138275
0.0304374
0.142087
-0.117955
0.14136
-0.189331
0.136998
-0.30102
0.132518
-0.277444
0.132103
-0.286809
0.130527
-0.134022
0.098062
0.0872897
0.0179878
0.0927234
0.0170626
0.0982605
0.0146817
0.103695
0.0108248
0.108763
0.00528129
0.113847
-0.00281798
0.118064
-0.013028
0.121605
-0.0254694
0.124229
-0.0401821
0.125748
-0.0566314
0.125972
-0.0738073
0.124759
-0.0902066
0.122089
-0.104096
0.118102
-0.11401
0.11307
-0.119238
0.10732
-0.119974
0.101087
-0.116998
0.0940182
-0.111336
0.0848663
-0.10467
0.0728077
-0.0994317
0.0598165
-0.0964425
0.0509568
-0.0916914
0.0510273
-0.0772526
0.0607099
-0.0476048
0.076918
-0.00496221
0.0952392
0.0424838
0.112317
0.0862986
0.125864
0.122618
0.134772
0.153299
0.139453
0.183317
0.141704
0.211945
0.14351
0.225552
0.14575
0.203817
0.148294
0.136665
0.150911
0.0359286
0.153082
-0.0670085
0.153699
-0.144647
0.151848
-0.188834
0.14854
-0.207056
0.144764
-0.207423
0.138717
-0.199864
0.129148
-0.197314
0.119625
-0.194871
0.11623
-0.166077
0.121826
-0.0994276
0.133418
-0.00143228
0.144892
0.0952712
0.150865
0.196625
0.149531
0.281283
0.143553
0.341096
0.137595
0.311478
0.135775
0.191918
0.139291
0.0269217
0.143016
-0.12168
0.142282
-0.188596
0.137802
-0.29654
0.133249
-0.272891
0.133049
-0.286609
0.131478
-0.132452
0.101111
0.109485
0.0132668
0.114436
0.0121116
0.119514
0.00960359
0.12452
0.00581863
0.129117
0.000683968
0.133571
-0.00727166
0.137164
-0.0166209
0.139877
-0.0281822
0.141439
-0.0417445
0.141612
-0.0568042
0.140194
-0.0723894
0.137109
-0.0871218
0.132483
-0.0994696
0.126666
-0.108193
0.120151
-0.112723
0.113408
-0.113231
0.106782
-0.110371
0.100303
-0.104857
0.0931449
-0.0975122
0.0837193
-0.0900061
0.0716665
-0.0843897
0.0600854
-0.0801104
0.0545438
-0.071711
0.0587718
-0.0518328
0.0717439
-0.0179344
0.0892948
0.0249329
0.107038
0.0685556
0.121989
0.107667
0.132803
0.142485
0.139866
0.176253
0.144701
0.20711
0.148615
0.221637
0.151801
0.200631
0.154033
0.134433
0.155443
0.0345183
0.15588
-0.0674456
0.154859
-0.143625
0.151707
-0.185682
0.14729
-0.202638
0.142993
-0.203126
0.137352
-0.194223
0.128431
-0.188394
0.119031
-0.18547
0.115266
-0.162312
0.120556
-0.104717
0.132312
-0.0131885
0.144409
0.0831739
0.151313
0.189722
0.151024
0.281571
0.145792
0.346328
0.139949
0.31732
0.137595
0.194273
0.140427
0.0240889
0.144016
-0.125268
0.14329
-0.187871
0.138682
-0.291932
0.134009
-0.268218
0.133982
-0.286581
0.132464
-0.130934
0.104355
0.133199
0.00984838
0.137022
0.00828819
0.140999
0.00562697
0.14474
0.0020777
0.148765
-0.00334094
0.151861
-0.010368
0.154283
-0.0190427
0.155683
-0.0295825
0.155772
-0.0418336
0.154284
-0.0553159
0.151047
-0.0691525
0.14608
-0.0821544
0.139652
-0.0930415
0.132272
-0.100813
0.124573
-0.105025
0.117122
-0.10578
0.110273
-0.103523
0.104163
-0.0987464
0.0984664
-0.0918158
0.0918946
-0.0834343
0.0828165
-0.0753116
0.0716712
-0.0689651
0.0625283
-0.0625681
0.0607754
-0.0500799
0.0686096
-0.0257686
0.0835074
0.0100352
0.100852
0.051211
0.116823
0.0916957
0.129555
0.129753
0.139132
0.166677
0.146625
0.199616
0.152618
0.215644
0.156744
0.196505
0.158826
0.132352
0.159209
0.0341351
0.158084
-0.0663203
0.155473
-0.141014
0.151168
-0.181378
0.145798
-0.197267
0.140983
-0.198312
0.135778
-0.189019
0.127673
-0.180288
0.118532
-0.176329
0.114375
-0.158155
0.119203
-0.109546
0.130975
-0.0249599
0.143653
0.0704963
0.151569
0.181805
0.152473
0.280667
0.148126
0.350675
0.142478
0.322969
0.13959
0.197161
0.141684
0.0219946
0.145063
-0.128648
0.144358
-0.187165
0.139623
-0.287198
0.134798
-0.263393
0.134892
-0.286675
0.133469
-0.129511
0.107735
0.157354
0.00817202
0.159552
0.00608941
0.161853
0.00332622
0.164113
-0.000182455
0.1662
-0.00542726
0.167657
-0.0118253
0.168365
-0.0197507
0.167993
-0.0292107
0.166257
-0.0400978
0.162913
-0.0519723
0.15786
-0.0640989
0.151215
-0.0755091
0.143358
-0.0851847
0.134883
-0.0923387
0.126457
-0.0965991
0.118649
-0.0979716
0.111799
-0.0966733
0.106023
-0.0929697
0.101233
-0.0870263
0.0967839
-0.078985
0.0911036
-0.0696312
0.0828437
-0.0607052
0.0733517
-0.0530761
0.0672353
-0.0439635
0.0690566
-0.02759
0.0793243
-0.000232504
0.0946251
0.0359101
0.110737
0.0755837
0.125073
0.115417
0.137113
0.154636
0.147256
0.189473
0.155267
0.207634
0.160294
0.191478
0.162386
0.13026
0.162032
0.0344888
0.159567
-0.0638559
0.155452
-0.136899
0.150125
-0.176051
0.143991
-0.191133
0.138676
-0.192997
0.133894
-0.184237
0.126754
-0.173149
0.118019
-0.167594
0.113449
-0.153584
0.117666
-0.113763
0.129328
-0.0366219
0.142536
0.0572879
0.151545
0.172796
0.153794
0.278419
0.150466
0.354003
0.14509
0.328344
0.141723
0.200528
0.143025
0.0206927
0.146133
-0.131756
0.145453
-0.186485
0.140611
-0.282356
0.135617
-0.2584
0.135772
-0.286829
0.134479
-0.128218
0.111185
0.177415
0.00801129
0.178017
0.00548814
0.178525
0.00281756
0.179039
-0.00069607
0.179091
-0.00547904
0.178687
-0.0114214
0.177494
-0.0185578
0.175255
-0.0269718
0.17171
-0.0365523
0.166679
-0.0469417
0.160143
-0.0575624
0.152297
-0.0676635
0.143576
-0.0764637
0.134579
-0.0833416
0.125925
-0.0879449
0.118112
-0.0901592
0.111445
-0.0900057
0.106031
-0.0875556
0.101852
-0.0828479
0.0986878
-0.0758205
0.095649
-0.0665923
0.0910704
-0.0561266
0.0840919
-0.0460976
0.0768341
-0.0367057
0.0738892
-0.0246451
0.0785116
-0.00485486
0.0899158
0.0245059
0.104704
0.060795
0.119808
0.100314
0.133882
0.140562
0.146454
0.176901
0.156423
0.197665
0.162413
0.185488
0.164644
0.128029
0.163913
0.0352196
0.160293
-0.0602362
0.15475
-0.131356
0.148499
-0.169799
0.141811
-0.184446
0.136048
-0.187234
0.131623
-0.179812
0.125571
-0.167096
0.117416
-0.159439
0.112414
-0.148582
0.11587
-0.117219
0.127276
-0.0480285
0.140983
0.0435815
0.15115
0.16263
0.154858
0.27471
0.152685
0.356176
0.147693
0.333337
0.143928
0.204293
0.144425
0.0201953
0.1472
-0.134531
0.146547
-0.185832
0.141632
-0.277441
0.136469
-0.253237
0.136616
-0.286977
0.135484
-0.127086
0.114638
0.188266
0.00841284
0.187779
0.00597517
0.187041
0.00355512
0.186042
0.000303241
0.184773
-0.00420988
0.182895
-0.00954432
0.180237
-0.0158994
0.176578
-0.0233129
0.171731
-0.0317047
0.1656
-0.0408106
0.158235
-0.0501976
0.149878
-0.0593065
0.14096
-0.0675458
0.132021
-0.074403
0.123585
-0.0795087
0.116056
-0.0826306
0.109688
-0.0836374
0.104598
-0.082466
0.100798
-0.0790478
0.0982337
-0.0732559
0.09665
-0.0650086
0.0950436
-0.0545202
0.09177
-0.042824
0.0865122
-0.0314479
0.0818749
-0.0200077
0.0819593
-0.00493931
0.0883913
0.0180739
0.100139
0.0490471
0.114604
0.0858494
0.129924
0.125242
0.144588
0.162237
0.156235
0.186019
0.163049
0.178674
0.165809
0.125269
0.16497
0.0360583
0.160471
-0.0557372
0.153601
-0.124486
0.146502
-0.162699
0.139448
-0.177392
0.133292
-0.181077
0.129065
-0.175586
0.124118
-0.162149
0.116719
-0.15204
0.111286
-0.143149
0.113787
-0.11972
0.124749
-0.0589905
0.138891
0.029439
0.150313
0.151208
0.155625
0.269398
0.154705
0.357095
0.150185
0.337857
0.146163
0.208315
0.145851
0.0205066
0.148261
-0.13694
0.147626
-0.185197
0.142685
-0.272499
0.137352
-0.247905
0.137427
-0.287052
0.136476
-0.126135
0.118025
0.187921
0.00870195
0.186852
0.00704436
0.185654
0.00475225
0.184411
0.00154708
0.182517
-0.00231656
0.179991
-0.00701834
0.176701
-0.0126095
0.172489
-0.0191002
0.167234
-0.0264498
0.16091
-0.0344865
0.153621
-0.0429089
0.145625
-0.0513102
0.137307
-0.0592287
0.129112
-0.0662076
0.121446
-0.0718422
0.114617
-0.075802
0.108813
-0.0778332
0.104117
-0.0777702
0.100565
-0.0754955
0.098183
-0.0708742
0.0969858
-0.0638114
0.0966667
-0.0542011
0.0960907
-0.0422481
0.0938958
-0.0292529
0.0904749
-0.0165869
0.0882838
-0.00274813
0.0908232
0.0155345
0.0986061
0.0412642
0.110666
0.0737894
0.125466
0.110442
0.140938
0.146765
0.153878
0.173078
0.162212
0.17034
0.166142
0.12134
0.165658
0.0365422
0.160115
-0.050194
0.152097
-0.116468
0.144353
-0.154956
0.137132
-0.170171
0.130652
-0.174597
0.126403
-0.171338
0.122444
-0.15819
0.115943
-0.145539
0.110112
-0.137318
0.111542
-0.121151
0.121866
-0.0693146
0.136274
0.0150318
0.148854
0.138627
0.155864
0.262388
0.156366
0.356593
0.152479
0.341744
0.148315
0.21248
0.14733
0.0214914
0.149298
-0.138908
0.148676
-0.184575
0.143756
-0.267579
0.138246
-0.242395
0.138218
-0.287024
0.137456
-0.125373
0.121273
0.205243
0.00889674
-0.205438
0.205665
0.0066232
0.206139
0.00427776
0.206414
0.00127266
0.206668
-0.00257146
0.206698
-0.00704834
0.206373
-0.0122839
0.205525
-0.0182525
0.203963
-0.0248882
0.201532
-0.0320555
0.198143
-0.0395192
0.193788
-0.0469556
0.188549
-0.0539895
0.182573
-0.0602312
0.176043
-0.0653124
0.169157
-0.0689161
0.162106
-0.070782
0.15506
-0.0707246
0.148172
-0.0686072
0.141566
-0.0642683
0.135371
-0.0576161
0.129701
-0.0485312
0.124248
-0.0367952
0.118016
-0.0230211
0.110328
-0.0088992
0.102013
0.00556682
0.095214
0.0223339
0.0921246
0.0443535
0.0937396
0.0721744
0.100026
0.104156
0.11019
0.136602
0.123823
0.159444
0.141617
0.152546
0.161302
0.101655
0.176154
0.0216899
0.182791
-0.0568312
0.1815
-0.115177
0.175659
-0.149115
0.167484
-0.161996
0.158339
-0.165452
0.150356
-0.163354
0.143118
-0.150952
0.13401
-0.136431
0.124499
-0.127806
0.119781
-0.116433
0.122024
-0.0715579
0.127204
0.00985244
0.1311
0.134731
0.132592
0.260897
0.133312
0.355873
0.135721
0.339334
0.139929
0.208272
0.144756
0.0166652
0.148081
-0.142233
0.146983
-0.183478
0.140594
-0.261189
0.132954
-0.234755
0.129818
-0.283888
0.12613
-0.121686
0.125144
0.216364
0.00872724
-0.216194
0.21664
0.00634757
0.217086
0.00383139
0.217482
0.000876466
0.217611
-0.00270077
0.217443
-0.0068798
0.216843
-0.0116844
0.215685
-0.0170939
0.213835
-0.0230382
0.211182
-0.0294026
0.207663
-0.0360003
0.203277
-0.0425697
0.198087
-0.0487996
0.192214
-0.0543577
0.185819
-0.0589181
0.179093
-0.0621898
0.172229
-0.0639184
0.165408
-0.0639034
0.158792
-0.0619906
0.152514
-0.0579903
0.146675
-0.0517777
0.14141
-0.0432659
0.136735
-0.0321208
0.132074
-0.0183593
0.126347
-0.00317233
0.119418
0.0124953
0.112594
0.0291579
0.108307
0.0486413
0.108656
0.0718247
0.114391
0.0984208
0.125041
0.125951
0.14046
0.144025
0.160139
0.132868
0.179786
0.0820076
0.193426
0.0080497
0.198032
-0.0614376
0.194863
-0.112007
0.187464
-0.141716
0.178358
-0.15289
0.168548
-0.155642
0.159944
-0.15475
0.152632
-0.14364
0.143761
-0.12756
0.13382
-0.117865
0.128118
-0.110731
0.129705
-0.0731445
0.134988
0.00456958
0.139398
0.130321
0.141688
0.258606
0.143505
0.354056
0.147002
0.335838
0.151843
0.203431
0.156683
0.0118249
0.159575
-0.145125
0.157874
-0.181777
0.150732
-0.254048
0.142219
-0.226242
0.138507
-0.280176
0.134491