/*--------------------------------*- C++ -*----------------------------------*\
| =========                 |                                                 |
| \\      /  F ield         | OpenFOAM: The Open Source CFD Toolbox           |
|  \\    /   O peration     | Version:  2512                                  |
|   \\  /    A nd           | Website:  www.openfoam.com                      |
|    \\/     M anipulation  |                                                 |
\*---------------------------------------------------------------------------*/
FoamFile
{
    version     2.0;
    format      ascii;
    arch        "LSB;label=32;scalar=64";
    class       volVectorField;
    location    "74";
    object      U;
}
// * * * * * * * * * * * * * * * * * * * * * * * * * * * * * * * * * * * * * //

dimensions      [0 1 -1 0 0 0 0];

internalField   nonuniform List<vector> 
13248
(
(-0.0124949 0.0109555 6.32771e-20)
(-0.0240883 0.0225162 0)
(-0.0232586 0.0278109 -1.19605e-19)
(-0.0102053 0.0293697 1.1267e-19)
(0.0149807 0.0289574 1.05235e-19)
(0.0522363 0.0278286 0)
(0.101451 0.0268911 0)
(0.162328 0.0268041 2.49549e-19)
(0.234237 0.0280211 -2.18097e-21)
(0.316081 0.0308131 -2.16262e-19)
(0.406231 0.0352694 1.98691e-19)
(0.502525 0.0412946 -1.23967e-19)
(0.602358 0.0486156 0)
(0.702838 0.0568033 -2.1154e-19)
(0.800991 0.0653101 3.95389e-19)
(0.893968 0.0735204 -9.32792e-20)
(0.97925 0.0808133 -1.70404e-19)
(1.05481 0.086594 1.59966e-19)
(1.11924 0.0904504 0)
(1.17179 0.0917739 0)
(1.2125 0.0911682 0)
(1.24165 0.0860006 0)
(1.26098 0.0829193 5.27824e-20)
(1.27115 0.0648558 1.99247e-19)
(-0.0129271 0.010263 -1.91239e-19)
(-0.0209857 0.0195661 1.30525e-19)
(-0.012552 0.0229392 -1.23371e-21)
(0.0114939 0.0230973 -1.72392e-19)
(0.0506586 0.0219974 -1.0512e-19)
(0.104498 0.0210603 -9.93118e-20)
(0.172354 0.0212824 -1.80976e-19)
(0.253121 0.0233177 1.71461e-19)
(0.345056 0.0275218 0)
(0.44569 0.0339651 1.11589e-21)
(0.551883 0.0424419 2.67442e-21)
(0.66002 0.0524964 1.24855e-19)
(0.766298 0.063475 0)
(0.867058 0.0746008 0)
(0.959103 0.0850631 1.46101e-19)
(1.03995 0.0941075 -2.7439e-19)
(1.10799 0.101114 1.66602e-19)
(1.16255 0.105649 -1.56409e-19)
(1.20389 0.1075 -7.02468e-20)
(1.23307 0.106644 -1.30544e-19)
(1.25162 0.10333 -5.65315e-20)
(1.26185 0.09753 -1.07249e-19)
(1.26504 0.0912281 1.53659e-19)
(1.26511 0.0802835 4.51578e-20)
(-0.0122245 0.00889541 0)
(-0.0141923 0.0153511 0)
(0.00480427 0.0169999 6.09815e-20)
(0.0430912 0.0165129 5.6013e-20)
(0.0995469 0.0159028 -1.61609e-21)
(0.172979 0.0166544 -1.0306e-19)
(0.26166 0.0197241 0)
(0.363043 0.0255957 -8.50396e-20)
(0.473656 0.034317 7.99172e-20)
(0.589212 0.0455309 9.70757e-22)
(0.704947 0.0585354 -1.35078e-19)
(0.816092 0.072387 -1.23454e-19)
(0.918371 0.0860342 2.23169e-21)
(1.00841 0.0984608 -1.025e-19)
(1.08404 0.108813 2.45349e-19)
(1.14436 0.116491 0)
(1.1897 0.121194 -1.62138e-19)
(1.22143 0.122906 7.82844e-20)
(1.24165 0.121887 7.01867e-20)
(1.25278 0.11846 0)
(1.25734 0.113379 5.90846e-20)
(1.25747 0.106417 -2.06951e-19)
(1.25469 0.100234 1.94274e-19)
(1.25175 0.0897446 1.26453e-19)
(-0.0100142 0.00690041 -6.81077e-20)
(-0.00275659 0.0100662 -7.05042e-20)
(0.030103 0.0104052 6.35136e-20)
(0.0859286 0.0102988 0)
(0.162611 0.0116372 0)
(0.257655 0.0157917 -2.47859e-21)
(0.367578 0.0234501 0)
(0.487739 0.034648 -2.61234e-19)
(0.612521 0.0488394 2.42171e-19)
(0.735852 0.0650129 -2.97961e-19)
(0.851907 0.0818694 6.78034e-20)
(0.955811 0.0980415 0)
(1.04416 0.112305 1.13117e-19)
(1.11525 0.123746 -2.0967e-19)
(1.16909 0.131846 4.96942e-20)
(1.20708 0.136494 1.29225e-19)
(1.23165 0.137924 -4.71823e-21)
(1.24569 0.136607 -1.45003e-19)
(1.25212 0.133123 0)
(1.25351 0.128059 0)
(1.25183 0.121974 -5.33413e-20)
(1.24843 0.11503 4.83376e-20)
(1.24411 0.108687 1.77094e-19)
(1.23989 0.0993817 -1.66237e-19)
(-0.00593135 0.00443448 -7.22141e-20)
(0.0142052 0.00420543 -7.17507e-20)
(0.064437 0.00400538 2.01677e-19)
(0.140883 0.0056532 -1.21941e-19)
(0.239907 0.0106688 1.14781e-19)
(0.356989 0.0200233 2.07608e-19)
(0.486187 0.0337892 -1.4678e-19)
(0.620353 0.0512018 -1.78008e-19)
(0.751878 0.0708639 3.92992e-21)
(0.873702 0.0910367 2.26387e-19)
(0.980263 0.109974 0)
(1.06812 0.126224 6.24024e-20)
(1.13614 0.138827 0)
(1.18524 0.147388 -1.01799e-19)
(1.21788 0.152022 1.43031e-19)
(1.23735 0.153215 1.15642e-21)
(1.24715 0.151653 -3.79781e-20)
(1.25042 0.148053 7.1329e-20)
(1.24967 0.143057 6.20562e-20)
(1.24664 0.137155 -5.60692e-20)
(1.24245 0.130738 5.33299e-20)
(1.23769 0.123885 -4.83268e-20)
(1.2326 0.117498 0)
(1.2279 0.108974 -3.71842e-20)
(0.000375151 0.00174774 7.22038e-20)
(0.0374449 -0.00146921 7.59944e-20)
(0.108534 -0.000965731 -6.76249e-20)
(0.208078 0.00417562 1.25886e-19)
(0.330206 0.014743 -1.18487e-19)
(0.467611 0.0308903 1.06755e-19)
(0.611451 0.0516493 -5.14086e-20)
(0.752288 0.0751539 1.33738e-19)
(0.881509 0.0991032 -8.4289e-20)
(0.992616 0.121265 1.4888e-19)
(1.08199 0.139895 -3.43636e-19)
(1.14898 0.153971 1.26509e-19)
(1.19539 0.163232 -1.10506e-19)
(1.2246 0.16803 1.03797e-19)
(1.2407 0.16911 9.00026e-20)
(1.24764 0.167357 7.93632e-20)
(1.24872 0.163615 -2.21261e-19)
(1.24642 0.158566 1.37461e-19)
(1.24233 0.152708 -6.20597e-20)
(1.23744 0.146369 1.63352e-19)
(1.23223 0.139757 -5.27393e-20)
(1.22694 0.132964 -1.30217e-19)
(1.22167 0.126451 1.2052e-19)
(1.21668 0.1185 3.71728e-20)
(0.00922386 -0.000830362 0)
(0.067478 -0.00599072 7.39959e-22)
(0.162542 -0.00303637 1.42198e-19)
(0.286588 0.00760039 -1.33273e-19)
(0.430732 0.0254753 -1.19784e-19)
(0.584367 0.0494176 2.22449e-19)
(0.73594 0.0770538 -1.0322e-19)
(0.874822 0.105363 1.37084e-19)
(0.993118 0.131445 -3.07511e-21)
(1.08669 0.153124 -7.76483e-20)
(1.15513 0.169242 1.68902e-19)
(1.20101 0.179638 -2.49615e-19)
(1.22858 0.184907 0)
(1.24267 0.186054 -4.91017e-20)
(1.24769 0.184178 -1.31256e-19)
(1.24716 0.180259 4.12912e-20)
(1.24358 0.175049 1.50165e-21)
(1.23854 0.169068 -9.1692e-20)
(1.23292 0.162644 5.20074e-21)
(1.2272 0.155976 1.06373e-19)
(1.22155 0.149182 -4.79892e-20)
(1.21605 0.142345 -1.85052e-20)
(1.21064 0.13564 5.63126e-20)
(1.20545 0.128113 0)
(0.0208565 -0.00289892 0)
(0.104452 -0.00825756 3.86429e-20)
(0.225832 -0.000672832 -1.86385e-19)
(0.374258 0.0174975 6.7605e-20)
(0.537245 0.0439689 -6.36269e-20)
(0.700952 0.0757828 -5.81541e-20)
(0.852204 0.109061 -1.02342e-19)
(0.981018 0.139971 5.12741e-20)
(1.08212 0.165653 4.43029e-20)
(1.15499 0.184641 0)
(1.20272 0.196803 1.00765e-19)
(1.23042 0.202954 -1.50154e-19)
(1.24369 0.204383 1.11622e-19)
(1.24753 0.202444 4.91274e-20)
(1.24579 0.198295 -4.04067e-20)
(1.24113 0.192797 -3.383e-20)
(1.23518 0.186525 -3.17331e-20)
(1.22884 0.179831 9.46571e-20)
(1.22254 0.17292 0)
(1.21646 0.165909 4.80124e-20)
(1.21063 0.158871 4.07921e-20)
(1.20503 0.151864 -1.00907e-19)
(1.19959 0.144911 -6.99184e-20)
(1.19431 0.137653 6.44157e-20)
(0.0353785 -0.00399811 -4.221e-20)
(0.148019 -0.00711903 -1.79556e-21)
(0.296881 0.00753592 3.80235e-20)
(0.467785 0.0350099 1.0637e-19)
(0.644545 0.0705814 3.08663e-20)
(0.811018 0.10929 -5.97402e-20)
(0.954274 0.146078 5.43862e-20)
(1.067 0.177011 -4.74799e-20)
(1.1479 0.200015 8.51691e-20)
(1.20029 0.214816 3.61179e-20)
(1.2301 0.222415 -1.02762e-19)
(1.2438 0.224421 3.01718e-20)
(1.24716 0.222505 5.14925e-20)
(1.24456 0.218076 -2.53535e-20)
(1.23895 0.212161 0)
(1.23211 0.205429 3.7786e-20)
(1.22499 0.19828 6.39649e-20)
(1.21803 0.190938 1.09889e-20)
(1.21142 0.183525 -5.34086e-20)
(1.20518 0.176113 2.233e-20)
(1.19928 0.168749 0)
(1.19365 0.161461 -1.76347e-20)
(1.18822 0.154221 -1.69596e-20)
(1.18289 0.147078 0)
(0.0526968 -0.00363447 0)
(0.197248 -0.00147846 2.21706e-20)
(0.37329 0.0227049 4.09862e-20)
(0.563033 0.0606807 -1.08838e-19)
(0.747256 0.104899 3.52913e-20)
(0.909272 0.148614 0)
(1.03855 0.186337 5.26462e-20)
(1.13199 0.214892 -7.35201e-20)
(1.19262 0.233563 -4.26227e-20)
(1.227 0.243429 1.91809e-20)
(1.24267 0.246449 -3.06966e-20)
(1.24639 0.244709 7.45268e-20)
(1.24331 0.239966 3.71608e-20)
(1.23689 0.233495 -2.59126e-20)
(1.22916 0.226115 -2.48914e-21)
(1.22121 0.218304 -7.04988e-20)
(1.21353 0.210323 3.20879e-20)
(1.20631 0.202307 -8.99676e-22)
(1.19958 0.194331 0)
(1.19331 0.186441 -2.23535e-20)
(1.18743 0.178666 0)
(1.18185 0.171003 5.06584e-20)
(1.17647 0.16345 -6.02611e-20)
(1.17118 0.156261 2.74921e-20)
(0.0724737 -0.00131815 -1.16838e-20)
(0.250601 0.00959883 -5.60223e-20)
(0.451952 0.0455187 6.38493e-20)
(0.655533 0.0943967 3.7374e-20)
(0.840595 0.14588 -1.7821e-20)
(0.992116 0.192149 2.98929e-20)
(1.10378 0.228268 -1.45068e-20)
(1.17733 0.252556 2.40387e-20)
(1.21964 0.265924 0)
(1.23938 0.270672 5.41711e-20)
(1.24463 0.269404 -2.33868e-21)
(1.24163 0.264371 -4.35375e-20)
(1.2346 0.257213 1.85615e-20)
(1.22602 0.248981 -2.08555e-20)
(1.2172 0.240279 -7.84932e-21)
(1.20872 0.231427 9.1842e-21)
(1.20082 0.222588 -7.0098e-21)
(1.19353 0.213842 -3.81775e-20)
(1.18682 0.205235 2.33588e-20)
(1.18063 0.196797 4.74617e-21)
(1.17485 0.188537 4.17526e-21)
(1.16938 0.180437 3.6758e-21)
(1.16412 0.17256 0)
(1.15891 0.165159 0)
(0.0941804 0.0034032 1.16918e-20)
(0.30614 0.0267992 -1.16643e-20)
(0.529491 0.0761485 -2.12966e-20)
(0.741164 0.135431 0)
(0.920996 0.192085 -8.86637e-21)
(1.05775 0.238304 -8.00561e-21)
(1.15038 0.270664 -1.36281e-20)
(1.20527 0.289424 0)
(1.23215 0.297084 0)
(1.24069 0.296869 0)
(1.23866 0.2917 0)
(1.23138 0.28376 0)
(1.22205 0.274457 -1.16274e-20)
(1.21236 0.264601 5.28603e-21)
(1.20306 0.254613 9.15589e-21)
(1.19443 0.244693 4.28627e-21)
(1.18653 0.234937 1.05203e-20)
(1.17933 0.225392 0)
(1.17278 0.216083 -2.49557e-21)
(1.16677 0.207028 -2.41076e-21)
(1.16121 0.198218 -4.18194e-21)
(1.15597 0.18964 -3.6817e-21)
(1.15093 0.181427 0)
(1.14592 0.17366 2.60918e-21)
(-0.00127721 -0.00202855 7.70664e-21)
(-0.00658548 0.00161397 -7.99564e-21)
(-0.0161699 0.00999944 -1.51315e-20)
(-0.0278817 0.0209384 0)
(-0.040556 0.0328588 -2.02659e-20)
(-0.0536086 0.0448284 6.39411e-21)
(-0.0666318 0.0564537 -1.19543e-20)
(-0.0793272 0.0677239 0)
(-0.0914809 0.0788496 0)
(-0.102934 0.0901222 0)
(-0.113561 0.101813 0)
(-0.123257 0.114117 0)
(-0.131926 0.127129 9.68889e-23)
(-0.139477 0.140845 -7.84847e-21)
(-0.145814 0.155172 1.45718e-20)
(-0.15084 0.169933 2.06126e-20)
(-0.154453 0.18488 6.36359e-21)
(-0.156556 0.199695 0)
(-0.157063 0.213996 5.74407e-21)
(-0.155915 0.227352 -1.61245e-20)
(-0.15308 0.239305 -1.0132e-20)
(-0.14854 0.249383 -9.5847e-21)
(-0.142365 0.257118 0)
(-0.134949 0.262171 0)
(-0.00130591 0.00171845 -2.30581e-20)
(-0.00654034 0.0103006 3.9821e-20)
(-0.0155336 0.0218734 -1.48592e-20)
(-0.0263336 0.0348168 -2.83539e-20)
(-0.037852 0.0479172 4.01597e-20)
(-0.0495264 0.0604693 -2.51607e-20)
(-0.06097 0.072225 3.56157e-20)
(-0.0719024 0.0832658 2.20907e-20)
(-0.0821195 0.093861 0)
(-0.0914615 0.104343 -1.98458e-20)
(-0.099793 0.115011 1.73614e-23)
(-0.106992 0.126082 1.75438e-20)
(-0.112942 0.137661 2.43789e-20)
(-0.11753 0.149751 3.06201e-20)
(-0.120638 0.162256 -1.45408e-20)
(-0.122146 0.175 -4.0687e-20)
(-0.121933 0.187735 1.26035e-20)
(-0.119872 0.200153 -4.76098e-20)
(-0.115846 0.211894 0)
(-0.109747 0.22257 1.07158e-20)
(-0.101489 0.231781 1.01162e-20)
(-0.0909703 0.23916 9.56939e-21)
(-0.0780636 0.244445 0)
(-0.0631025 0.247673 0)
(-0.00166637 0.00470879 0)
(-0.00717013 0.0172535 7.85025e-20)
(-0.0156113 0.031393 -2.96364e-20)
(-0.0253225 0.0459363 2.81205e-20)
(-0.0353389 0.0599558 -7.89049e-20)
(-0.0451436 0.072926 0)
(-0.0543877 0.084706 -4.65784e-20)
(-0.0628233 0.0954364 2.17406e-20)
(-0.0702686 0.10542 -4.07935e-20)
(-0.076575 0.115013 1.87923e-20)
(-0.0816071 0.124534 1.08266e-19)
(-0.0852347 0.13422 -5.08419e-20)
(-0.0873278 0.144196 -7.98676e-20)
(-0.0877553 0.154477 -2.96178e-20)
(-0.0863837 0.16498 -3.85419e-23)
(-0.083076 0.175532 1.05777e-19)
(-0.0776965 0.185899 -4.97078e-20)
(-0.0701079 0.195776 4.21927e-22)
(-0.0601731 0.204815 0)
(-0.0477647 0.21264 -4.17696e-20)
(-0.0327735 0.218878 0)
(-0.0150523 0.223213 -3.90001e-20)
(0.0057955 0.225538 1.46075e-19)
(0.0296911 0.226304 1.96361e-21)
(-0.00224599 0.00685923 0)
(-0.00830361 0.0222521 -2.19707e-22)
(-0.0163309 0.0382114 2.92865e-20)
(-0.0249458 0.0538321 -2.75262e-20)
(-0.0333132 0.0684022 2.62549e-20)
(-0.0409704 0.0815334 1.46609e-19)
(-0.0476153 0.0931587 -4.60147e-20)
(-0.053043 0.103451 -4.28491e-20)
(-0.0571065 0.112723 8.09175e-20)
(-0.0596822 0.121332 -1.13967e-19)
(-0.0606478 0.129608 3.53117e-20)
(-0.0598791 0.137801 3.30115e-20)
(-0.057245 0.146056 0)
(-0.0526079 0.154409 2.96047e-20)
(-0.0458291 0.162797 0)
(-0.0367588 0.171075 5.12409e-20)
(-0.025258 0.179019 -9.78227e-20)
(-0.0111979 0.186345 2.25662e-20)
(0.00555781 0.192721 8.68423e-20)
(0.0251332 0.19778 4.17225e-20)
(0.0476234 0.201142 0)
(0.0731251 0.202474 -1.14378e-19)
(0.102176 0.201702 3.56559e-20)
(0.135954 0.199513 0)
(-0.00294833 0.00822836 0)
(-0.00978542 0.0253607 -9.29148e-20)
(-0.0176161 0.0423174 -2.91286e-20)
(-0.0252722 0.0583785 -5.48558e-20)
(-0.0320242 0.0730006 5.16519e-20)
(-0.0374599 0.0859071 -4.86829e-20)
(-0.0413257 0.0970847 9.06556e-20)
(-0.0434656 0.10672 4.24925e-20)
(-0.0437769 0.115118 -1.19988e-19)
(-0.0421764 0.122623 7.4458e-20)
(-0.0385665 0.129559 -1.05054e-19)
(-0.0328428 0.136179 2.27891e-19)
(-0.0248938 0.142639 -1.22665e-19)
(-0.0145862 0.149 5.68489e-20)
(-0.00178285 0.155231 1.61211e-19)
(0.0136562 0.161214 -5.09402e-20)
(0.0318679 0.166754 -4.67703e-20)
(0.0529802 0.171604 -4.52983e-20)
(0.0771169 0.175463 0)
(0.104391 0.177993 -8.21033e-20)
(0.134894 0.178822 -8.00485e-20)
(0.168708 0.177567 1.10528e-19)
(0.205794 0.174077 1.45833e-19)
(0.251079 0.168786 -1.36515e-19)
(-0.00372387 0.0089878 0)
(-0.0115233 0.0268809 -1.23049e-19)
(-0.0194114 0.0439998 2.82202e-22)
(-0.0263269 0.0597788 1.09197e-19)
(-0.0316076 0.073834 0)
(-0.034885 0.0859969 0)
(-0.0359515 0.0963051 0)
(-0.0347007 0.104953 -4.20277e-20)
(-0.0310789 0.112227 4.42655e-22)
(-0.0250441 0.118452 7.36804e-20)
(-0.0165432 0.12393 -1.03493e-19)
(-0.00550217 0.128903 2.92738e-22)
(0.00817161 0.133536 0)
(0.0245926 0.137909 -5.68227e-20)
(0.0438886 0.142014 5.2274e-20)
(0.0661945 0.145767 -1.48236e-19)
(0.0916469 0.149017 1.87275e-19)
(0.12038 0.151553 4.49088e-20)
(0.152525 0.153117 2.04352e-21)
(0.18821 0.153411 -1.58391e-19)
(0.227474 0.152107 -7.54563e-20)
(0.270864 0.148817 2.57402e-19)
(0.315938 0.143327 -1.73239e-19)
(0.375872 0.135178 0)
(-0.00458206 0.00937468 5.95459e-20)
(-0.0135 0.0272682 6.14856e-20)
(-0.0216687 0.0437728 -5.77385e-20)
(-0.0280358 0.0585247 -1.0834e-19)
(-0.031974 0.0713304 1.0201e-19)
(-0.0331531 0.082145 -9.49754e-20)
(-0.031411 0.0910689 1.33723e-19)
(-0.0266847 0.098311 -4.18847e-20)
(-0.0189614 0.104147 7.79217e-20)
(-0.00823686 0.108872 0)
(0.00550969 0.112765 6.66359e-20)
(0.0223276 0.116053 -1.25579e-19)
(0.0422968 0.1189 1.1769e-19)
(0.0655265 0.121395 -1.10534e-19)
(0.0921493 0.123554 0)
(0.122313 0.125325 9.71818e-20)
(0.156172 0.126593 1.82672e-19)
(0.193875 0.12719 -1.72347e-19)
(0.235568 0.126903 -8.12435e-20)
(0.281444 0.125488 -8.02499e-20)
(0.331154 0.122613 2.23339e-19)
(0.386864 0.1181 7.27158e-20)
(0.44031 0.111531 -6.64177e-20)
(0.51945 0.101641 6.52938e-20)
(-0.00557953 0.00962923 -5.95541e-20)
(-0.0157394 0.0270141 1.83911e-19)
(-0.0242843 0.0422537 -5.77555e-20)
(-0.0301218 0.0552995 1.07983e-19)
(-0.032649 0.0662042 -1.01673e-19)
(-0.0315767 0.075078 2.15963e-22)
(-0.0267777 0.082108 4.442e-20)
(-0.0182175 0.0875374 1.63519e-19)
(-0.00590127 0.0916404 -1.39577e-21)
(0.0101665 0.0946957 -7.25558e-20)
(0.0300069 0.0969602 0)
(0.0536788 0.0986487 -6.12458e-20)
(0.0812795 0.0999204 1.16348e-19)
(0.112939 0.100872 1.08235e-19)
(0.14881 0.101537 -5.12495e-20)
(0.189055 0.10189 -8.00929e-22)
(0.233823 0.101846 -4.53107e-20)
(0.283239 0.101277 8.4195e-20)
(0.33732 0.0999933 8.1233e-20)
(0.396311 0.0978517 -7.73374e-20)
(0.458727 0.0943427 7.2588e-20)
(0.529589 0.0899324 -6.93836e-20)
(0.591278 0.0832641 0)
(0.691616 0.0742045 -6.52474e-20)
(-0.00678312 0.00992917 5.96205e-20)
(-0.0182282 0.0265176 -6.13879e-20)
(-0.0269935 0.0400176 5.78462e-20)
(-0.0319751 0.0508357 0)
(-0.0326084 0.0593358 0)
(-0.0286465 0.0658235 9.38791e-20)
(-0.0199805 0.0706012 -8.84726e-20)
(-0.00657089 0.0739692 8.08196e-20)
(0.0116008 0.0762218 -3.80971e-19)
(0.0345674 0.0776373 6.24398e-22)
(0.0623926 0.0784653 6.57231e-20)
(0.0951741 0.0789139 0)
(0.133033 0.0791405 -1.14149e-19)
(0.176093 0.0792463 2.13937e-19)
(0.224456 0.0792727 -1.5062e-19)
(0.278165 0.0792013 -2.35455e-19)
(0.337177 0.0789592 -8.48491e-22)
(0.401339 0.0784303 1.65511e-19)
(0.470227 0.0774025 0)
(0.543888 0.0758901 0)
(0.619235 0.0730029 -7.25859e-20)
(0.703569 0.0702189 6.93805e-20)
(0.771356 0.0642362 -2.65828e-19)
(0.88443 0.0587145 2.49142e-19)
(-0.008215 0.0103368 0)
(-0.0208127 0.0259769 0)
(-0.0292609 0.0374578 -1.73499e-19)
(-0.0325476 0.0457585 5.52167e-20)
(-0.0301811 0.051607 9.03266e-22)
(-0.021953 0.0555388 9.51582e-20)
(-0.00774736 0.0579993 0)
(0.012518 0.0593712 -8.17969e-20)
(0.0389214 0.0599914 7.60929e-20)
(0.0715516 0.0601579 -1.40081e-19)
(0.1105 0.0601263 5.7365e-22)
(0.155839 0.0601032 1.21445e-19)
(0.207582 0.0602386 -8.1119e-22)
(0.265645 0.0606187 1.05345e-19)
(0.329802 0.0612619 -1.49272e-19)
(0.399646 0.0621179 0)
(0.474564 0.0630708 1.75692e-19)
(0.553739 0.063955 -2.48054e-19)
(0.636002 0.0644932 7.77681e-20)
(0.72065 0.0646806 0)
(0.803987 0.0634705 6.98884e-20)
(0.891926 0.0627072 2.71653e-19)
(0.960551 0.0577217 -2.54933e-19)
(1.06586 0.0559446 -3.0649e-19)
(-0.00979877 0.0107767 1.80923e-19)
(-0.0231136 0.0253356 -2.48824e-19)
(-0.0302187 0.0346983 6.56598e-22)
(-0.0303507 0.0404608 5.52221e-20)
(-0.0231378 0.0437328 -1.02433e-19)
(-0.00840695 0.0453026 -9.476e-20)
(0.0139755 0.0457784 1.75349e-19)
(0.0441328 0.0456423 -2.42086e-21)
(0.0821666 0.0452908 -1.53036e-19)
(0.128125 0.0450507 2.81516e-19)
(0.181956 0.0451819 -1.55423e-21)
(0.243443 0.0458715 -1.22432e-19)
(0.312153 0.0472261 0)
(0.387393 0.0492635 0)
(0.468181 0.0519089 -4.95325e-20)
(0.553257 0.0549961 -9.24816e-20)
(0.641107 0.0582793 -1.74305e-19)
(0.730022 0.0614332 1.6361e-19)
(0.818137 0.0641189 -7.77995e-20)
(0.903747 0.0659484 1.4661e-19)
(0.984185 0.0664509 -6.87704e-20)
(1.06106 0.0660477 1.32914e-19)
(1.12155 0.0619453 -3.07407e-19)
(1.19792 0.0604857 5.98369e-20)
(-0.0113278 0.0110583 6.09171e-20)
(-0.0244891 0.0243097 0)
(-0.0286901 0.0315941 1.17822e-19)
(-0.023575 0.0350558 -1.10994e-19)
(-0.00896008 0.0361634 1.02527e-19)
(0.0152685 0.0359574 0)
(0.0492128 0.0352042 0)
(0.0929259 0.0344869 -8.16102e-20)
(0.146342 0.0342551 2.07422e-21)
(0.209181 0.0348426 7.20492e-20)
(0.280862 0.0364711 -6.52135e-20)
(0.360433 0.0392443 1.22954e-19)
(0.446546 0.0431407 0)
(0.537474 0.0480106 2.11206e-19)
(0.631171 0.0535833 -3.95542e-19)
(0.725377 0.0594825 2.7771e-19)
(0.817745 0.065263 1.72737e-19)
(0.90596 0.0704 -1.62145e-19)
(0.987928 0.0745015 0)
(1.06175 0.0767848 0)
(1.12618 0.077665 0)
(1.18045 0.0751382 0)
(1.22255 0.0718529 6.05191e-20)
(1.26264 0.0650698 -2.23266e-19)
(-0.125481 0.264875 -6.19666e-21)
(-0.113087 0.260834 6.23155e-21)
(-0.0972947 0.247615 -2.01234e-22)
(-0.0779149 0.224213 0)
(-0.0547737 0.189082 -6.31908e-21)
(-0.0278408 0.141397 1.24137e-20)
(0.00281526 0.0810058 6.96873e-23)
(0.0366723 0.0087305 -5.99366e-21)
(0.0734459 -0.0735232 0)
(0.112361 -0.162349 0)
(0.151984 -0.252806 -3.27941e-22)
(0.190638 -0.339344 -2.92889e-22)
(0.22588 -0.415118 -3.93144e-21)
(0.254865 -0.475075 3.57443e-21)
(0.274036 -0.5177 0)
(0.279924 -0.545554 0)
(0.271299 -0.562847 1.84462e-21)
(0.252883 -0.569556 -1.15636e-22)
(0.237022 -0.556141 -1.53585e-21)
(0.239254 -0.506187 -9.36063e-23)
(0.268671 -0.407948 0)
(0.322231 -0.263949 0)
(0.390906 -0.0895209 0)
(0.465941 0.0928977 0)
(0.539307 0.255736 0)
(0.603099 0.377085 0)
(0.650673 0.450663 3.40248e-22)
(0.681261 0.482113 -5.43613e-22)
(0.698059 0.48462 0)
(0.696897 0.482223 0)
(0.669313 0.495748 -3.23365e-22)
(0.622644 0.511009 3.14289e-22)
(0.58561 0.476151 2.10118e-22)
(0.585577 0.348973 0)
(0.623559 0.145302 0)
(0.68212 -0.074078 4.7319e-22)
(0.73835 -0.252249 -4.59943e-22)
(0.779975 -0.364383 0)
(0.806763 -0.410937 2.27772e-22)
(0.819304 -0.42159 -3.20642e-22)
(0.802999 -0.434595 8.28444e-23)
(0.755656 -0.45284 0)
(0.699588 -0.426394 -1.97653e-22)
(0.67164 -0.305868 1.922e-22)
(0.681045 -0.114084 0)
(0.722509 0.0882874 0)
(0.768877 0.230039 -7.73329e-23)
(0.806277 0.328705 2.06813e-22)
(0.79889 0.38389 0)
(0.760434 0.424932 0)
(0.71693 0.379644 -5.29322e-23)
(0.703355 0.248173 -1.01139e-23)
(0.728327 0.0660868 -3.19771e-24)
(0.769849 -0.125629 4.74784e-23)
(0.774536 -0.232553 0)
(0.770845 -0.375559 0)
(0.733186 -0.338954 0)
(0.719611 -0.320948 0)
(0.723793 -0.150522 0)
(0.712795 0.0910405 0)
(-0.0455551 0.249197 -6.13693e-22)
(-0.0269996 0.242826 -2.67979e-20)
(-0.0045784 0.226981 -7.3747e-22)
(0.021672 0.200687 2.58323e-20)
(0.0511728 0.162715 4.31057e-22)
(0.0838531 0.112319 0)
(0.119267 0.0494687 -2.65018e-20)
(0.156807 -0.024817 5.23617e-20)
(0.195894 -0.108186 -2.58555e-20)
(0.235531 -0.19752 2.32173e-20)
(0.274434 -0.287686 -2.22378e-20)
(0.310891 -0.372239 1.80848e-20)
(0.342522 -0.443973 -1.76438e-20)
(0.366535 -0.497128 -4.45318e-22)
(0.379885 -0.529645 -1.04975e-20)
(0.379319 -0.544694 1.0202e-20)
(0.361874 -0.549657 -6.99645e-21)
(0.328366 -0.550182 6.61241e-21)
(0.288183 -0.541755 -5.72381e-21)
(0.258774 -0.507575 1.12408e-20)
(0.256603 -0.428803 -5.51581e-21)
(0.286268 -0.300105 -3.37944e-22)
(0.340671 -0.134217 -6.31425e-21)
(0.409665 0.0447318 1.2004e-20)
(0.483239 0.210381 -5.70238e-21)
(0.551891 0.340066 2.6002e-22)
(0.607974 0.424582 3.46836e-21)
(0.649381 0.466394 -3.42702e-22)
(0.675612 0.479302 -5.29881e-21)
(0.679602 0.489022 5.04691e-21)
(0.655643 0.512772 -2.48323e-21)
(0.616784 0.529289 3.76434e-22)
(0.593181 0.4846 -2.10557e-22)
(0.607007 0.342699 5.54408e-22)
(0.65451 0.127397 0)
(0.717193 -0.0964547 0)
(0.772432 -0.271565 -1.65814e-21)
(0.808184 -0.377439 1.24908e-21)
(0.826027 -0.417844 6.67781e-22)
(0.831697 -0.420517 -7.49378e-23)
(0.812335 -0.423466 -7.94557e-22)
(0.763078 -0.435228 1.39398e-22)
(0.702156 -0.411749 0)
(0.666852 -0.302189 0)
(0.671469 -0.122281 0)
(0.712062 0.0736949 0)
(0.761163 0.216758 2.8604e-22)
(0.799431 0.323812 -1.31731e-22)
(0.794213 0.389346 0)
(0.755902 0.435321 0)
(0.715703 0.387175 0)
(0.704304 0.247326 -1.32555e-22)
(0.731181 0.0586986 -1.76335e-23)
(0.776043 -0.131163 -9.5348e-23)
(0.780175 -0.232591 0)
(0.778163 -0.371211 0)
(0.738081 -0.334117 2.39259e-23)
(0.726453 -0.319895 3.65049e-23)
(0.729356 -0.149763 0)
(0.713871 0.092159 0)
(0.0544444 0.226589 2.6668e-21)
(0.0790963 0.219065 -5.33862e-20)
(0.10672 0.201849 5.73857e-20)
(0.138039 0.173932 -5.36405e-20)
(0.172319 0.134653 -4.3395e-22)
(0.209027 0.0833236 0)
(0.247654 0.019799 -5.77357e-20)
(0.287517 -0.0543619 5.65893e-20)
(0.327784 -0.137423 4.09886e-22)
(0.367317 -0.225998 8.04578e-22)
(0.404763 -0.314816 7.35833e-22)
(0.438134 -0.396977 6.28326e-22)
(0.464816 -0.464878 -3.2606e-20)
(0.482143 -0.512288 3.21355e-20)
(0.488037 -0.53659 0)
(0.480792 -0.540493 5.64761e-22)
(0.457867 -0.532325 -1.30608e-20)
(0.416846 -0.522219 1.28807e-20)
(0.361266 -0.512756 0)
(0.305724 -0.491334 0)
(0.271233 -0.435064 -9.55132e-21)
(0.27201 -0.328474 1.94872e-20)
(0.306721 -0.177202 -1.95979e-20)
(0.365309 -0.00474256 4.88903e-22)
(0.435752 0.161188 1.74131e-20)
(0.506735 0.297698 -1.54838e-20)
(0.569792 0.392516 1.23963e-20)
(0.620658 0.44547 -8.49259e-22)
(0.654839 0.470594 -5.04454e-21)
(0.663658 0.493419 0)
(0.644797 0.526668 0)
(0.615726 0.543405 2.76132e-21)
(0.60621 0.489653 -3.43635e-21)
(0.633422 0.335511 3.99933e-23)
(0.689632 0.111117 4.97086e-21)
(0.755205 -0.115526 -4.83023e-21)
(0.808509 -0.28688 0)
(0.838195 -0.386454 3.64077e-22)
(0.846996 -0.421702 2.16033e-21)
(0.845495 -0.417994 -3.66429e-21)
(0.823268 -0.411827 1.38938e-21)
(0.772893 -0.417134 1.10609e-22)
(0.708199 -0.396518 -1.42619e-21)
(0.666149 -0.298397 1.14378e-21)
(0.665781 -0.131334 3.02707e-22)
(0.704743 0.0577276 2.84489e-22)
(0.755796 0.20228 -2.86774e-22)
(0.794446 0.318068 0)
(0.791327 0.39419 0)
(0.753499 0.445343 -9.2488e-22)
(0.716847 0.394668 4.63824e-22)
(0.70772 0.246808 -5.91369e-22)
(0.736093 0.0516703 8.43282e-22)
(0.783776 -0.136605 8.86268e-22)
(0.787502 -0.232368 -1.79971e-22)
(0.786707 -0.36667 2.32414e-22)
(0.743916 -0.329276 -1.30298e-22)
(0.733742 -0.318997 3.0059e-23)
(0.73568 -0.14871 0)
(0.715752 0.0936548 0)
(0.165315 0.198635 -1.11443e-19)
(0.194953 0.190279 -4.38471e-21)
(0.226421 0.172474 1.10159e-19)
(0.261489 0.14435 -8.95922e-22)
(0.299314 0.105292 0)
(0.338848 0.0546035 0)
(0.380054 -0.00775211 -1.19716e-19)
(0.421896 -0.080461 -1.20631e-21)
(0.463084 -0.161991 1.68581e-19)
(0.502611 -0.248783 -3.23828e-21)
(0.538694 -0.335408 -5.04983e-20)
(0.568792 -0.414566 -3.86276e-20)
(0.589889 -0.478256 3.8831e-20)
(0.599402 -0.52012 0)
(0.596074 -0.537695 -2.10295e-20)
(0.580099 -0.533327 1.93091e-20)
(0.551508 -0.514188 0)
(0.507871 -0.491538 0)
(0.446971 -0.474393 7.57542e-21)
(0.375597 -0.458458 -5.94489e-22)
(0.313216 -0.422849 -6.33292e-21)
(0.282192 -0.343622 -7.3692e-21)
(0.291665 -0.214632 7.28195e-21)
(0.334777 -0.0538829 -7.51008e-21)
(0.398255 0.109398 7.03757e-22)
(0.468978 0.250809 6.39197e-21)
(0.536862 0.355067 6.46008e-22)
(0.594999 0.419744 5.03886e-23)
(0.635374 0.458275 0)
(0.648902 0.494359 5.14414e-21)
(0.636585 0.536058 -5.32879e-21)
(0.618776 0.552547 3.99765e-22)
(0.623591 0.491373 0)
(0.663657 0.328241 -6.01379e-22)
(0.727898 0.097462 1.05709e-20)
(0.795484 -0.130962 -1.83227e-20)
(0.846056 -0.298562 6.48906e-22)
(0.869646 -0.391935 1.77419e-21)
(0.869535 -0.422752 4.67896e-21)
(0.860534 -0.414284 3.955e-22)
(0.83544 -0.400147 -2.15136e-21)
(0.784665 -0.398855 1.83894e-21)
(0.717436 -0.380541 4.05699e-23)
(0.669493 -0.294103 1.08088e-21)
(0.664029 -0.140795 -1.35469e-21)
(0.700555 0.0407106 -1.76324e-21)
(0.75271 0.186746 5.42811e-22)
(0.791273 0.31143 8.6861e-22)
(0.790214 0.398277 -1.73701e-21)
(0.753297 0.45487 1.31712e-21)
(0.720466 0.402121 -6.1928e-22)
(0.713749 0.246814 4.90307e-22)
(0.743148 0.0450439 6.40105e-22)
(0.792961 -0.141954 -1.4503e-21)
(0.796429 -0.231948 6.97368e-23)
(0.796414 -0.361908 -2.4868e-22)
(0.75061 -0.324337 0)
(0.741393 -0.318205 -4.19038e-23)
(0.742605 -0.147397 -6.18375e-23)
(0.718368 0.0955178 0)
(0.282505 0.167232 1.12544e-19)
(0.315294 0.158133 -2.25889e-19)
(0.349299 0.140175 1.11668e-19)
(0.386821 0.112777 1.20321e-19)
(0.42714 0.0751197 -2.39777e-19)
(0.469075 0.0259131 -2.87212e-21)
(0.512294 -0.0335319 1.19796e-19)
(0.555733 -0.103623 1.17999e-19)
(0.59802 -0.182299 -1.15567e-19)
(0.637629 -0.265947 0)
(0.672175 -0.348992 -9.36497e-20)
(0.698502 -0.423876 1.72106e-19)
(0.713251 -0.482478 -7.88183e-20)
(0.714087 -0.51868 0)
(0.700665 -0.53064 0)
(0.674643 -0.520979 5.63067e-22)
(0.63857 -0.495458 -2.28754e-20)
(0.592804 -0.463114 2.22251e-20)
(0.533438 -0.435181 0)
(0.458586 -0.416132 9.99223e-21)
(0.379085 -0.393404 -1.82947e-20)
(0.318601 -0.341269 1.77512e-20)
(0.297855 -0.241241 -1.901e-20)
(0.31955 -0.0996381 -4.52263e-22)
(0.371826 0.0566278 1.92981e-20)
(0.439195 0.20031 -9.37149e-21)
(0.509137 0.312833 -2.88974e-22)
(0.571805 0.389366 -3.6922e-21)
(0.61662 0.441767 -4.41914e-22)
(0.634949 0.490685 4.16312e-21)
(0.630508 0.539842 3.34529e-22)
(0.625025 0.556347 -7.63102e-21)
(0.644081 0.490093 1.69451e-20)
(0.696353 0.321335 -1.05572e-20)
(0.768059 0.0867278 0)
(0.837159 -0.142465 -1.10328e-20)
(0.884421 -0.30639 1.05213e-20)
(0.901921 -0.393792 -4.71501e-21)
(0.893275 -0.420855 5.91927e-21)
(0.876614 -0.409286 -3.83905e-22)
(0.848671 -0.388606 0)
(0.798117 -0.380825 -1.98898e-22)
(0.729482 -0.364144 5.61079e-22)
(0.676636 -0.289226 0)
(0.666098 -0.150299 2.17582e-21)
(0.69937 0.022956 -8.6626e-22)
(0.751758 0.170247 4.35363e-22)
(0.789806 0.303797 3.71731e-22)
(0.790798 0.4014 0)
(0.755301 0.463751 0)
(0.726585 0.409517 -1.87792e-21)
(0.722397 0.247393 3.38055e-21)
(0.752401 0.0389078 -2.06656e-21)
(0.803571 -0.147156 6.95248e-22)
(0.806846 -0.231319 9.40356e-22)
(0.807215 -0.356838 2.48913e-22)
(0.758109 -0.319211 -2.25536e-22)
(0.749342 -0.317485 0)
(0.749974 -0.145863 6.44812e-23)
(0.721645 0.0977318 5.05045e-23)
(0.407425 0.1337 1.1289e-19)
(0.441065 0.124341 -1.12339e-19)
(0.47606 0.106493 9.11828e-22)
(0.514769 0.0803618 -9.10449e-22)
(0.555985 0.0447079 9.45402e-22)
(0.599858 -0.00161824 -9.54043e-22)
(0.644816 -0.0578 1.85848e-21)
(0.688908 -0.12437 0)
(0.731477 -0.198863 -1.75727e-21)
(0.770177 -0.277804 1.65249e-21)
(0.80188 -0.355586 1.50908e-21)
(0.822913 -0.424718 -1.36503e-21)
(0.829884 -0.477435 0)
(0.821102 -0.508158 0)
(0.79743 -0.515549 7.25798e-22)
(0.761756 -0.502612 0)
(0.717847 -0.474586 -3.95977e-22)
(0.668567 -0.43769 0)
(0.612269 -0.400816 -9.69772e-21)
(0.542891 -0.373088 1.62155e-20)
(0.46014 -0.35278 -1.14577e-20)
(0.379919 -0.32062 4.90082e-21)
(0.328485 -0.251433 5.09283e-21)
(0.322085 -0.136685 -4.94617e-21)
(0.356846 0.00592438 -5.9296e-21)
(0.41671 0.147665 5.7515e-21)
(0.485443 0.266531 0)
(0.549927 0.35447 1.45692e-22)
(0.597828 0.420527 0)
(0.621298 0.481478 0)
(0.625909 0.537406 1.10357e-20)
(0.633386 0.554748 -1.12854e-20)
(0.666201 0.48622 1.0493e-21)
(0.729744 0.314982 1.31528e-21)
(0.808716 0.0786285 -1.44467e-21)
(0.879452 -0.149932 -1.00286e-20)
(0.923009 -0.310367 9.73595e-21)
(0.934452 -0.392255 -6.42974e-21)
(0.917869 -0.416123 5.45309e-21)
(0.893512 -0.403008 7.66004e-22)
(0.862659 -0.377385 -1.82926e-21)
(0.81287 -0.363328 2.18121e-22)
(0.743844 -0.34749 1.01324e-21)
(0.687065 -0.283644 0)
(0.671633 -0.159547 -7.11543e-22)
(0.700955 0.00473065 9.85242e-22)
(0.752719 0.152836 -1.33263e-21)
(0.789884 0.295022 -3.74107e-22)
(0.792944 0.403317 0)
(0.759426 0.471808 6.53131e-22)
(0.735111 0.416831 -1.10923e-21)
(0.733598 0.248605 5.79317e-23)
(0.763868 0.0336532 -8.32851e-22)
(0.81553 -0.1521 1.11632e-21)
(0.818614 -0.230475 -1.0066e-21)
(0.819015 -0.351394 0)
(0.76637 -0.313805 2.25638e-22)
(0.757547 -0.316781 0)
(0.757636 -0.144145 0)
(0.725511 0.100272 -5.80274e-23)
(0.548447 0.100429 -1.12778e-19)
(0.57983 0.0908717 1.11445e-19)
(0.613388 0.0733185 -8.85384e-22)