/*--------------------------------*- C++ -*----------------------------------*\
| =========                 |                                                 |
| \\      /  F ield         | OpenFOAM: The Open Source CFD Toolbox           |
|  \\    /   O peration     | Version:  2512                                  |
|   \\  /    A nd           | Website:  www.openfoam.com                      |
|    \\/     M anipulation  |                                                 |
\*---------------------------------------------------------------------------*/
FoamFile
{
    version     2.0;
    format      ascii;
    arch        "LSB;label=32;scalar=64";
    class       volVectorField;
    location    "89.5";
    object      U;
}
// * * * * * * * * * * * * * * * * * * * * * * * * * * * * * * * * * * * * * //

dimensions      [0 1 -1 0 0 0 0];

internalField   nonuniform List<vector> 
13248
(
(-0.0110843 0.0103659 7.26264e-20)
(-0.0178687 0.0190058 0)
(-0.01116 0.0203741 -1.37988e-19)
(0.00789644 0.0172187 1.29988e-19)
(0.0387574 0.0115994 1.22129e-19)
(0.081123 0.00504737 0)
(0.134684 -0.0013296 0)
(0.198914 -0.00673365 2.93709e-19)
(0.272885 -0.0105961 -2.81431e-21)
(0.355149 -0.0125359 -2.53987e-19)
(0.443716 -0.0123448 2.30293e-19)
(0.536122 -0.00998367 -1.43602e-19)
(0.629595 -0.00557688 0)
(0.721269 0.000603601 -2.29848e-19)
(0.808422 0.00816712 4.22842e-19)
(0.88869 0.016644 -9.98049e-20)
(0.960231 0.0255338 -1.65952e-19)
(1.02183 0.0343391 1.55791e-19)
(1.07292 0.0426536 0)
(1.11354 0.0499993 0)
(1.14442 0.0564812 0)
(1.1661 0.0608353 0)
(1.18139 0.0655799 4.16471e-20)
(1.18847 0.0646043 1.45145e-19)
(-0.0104578 0.00893938 -2.19441e-19)
(-0.0127879 0.0153268 1.49908e-19)
(0.00204115 0.0156652 -1.03043e-21)
(0.0324496 0.012388 -1.98513e-19)
(0.0775176 0.00745728 -1.21994e-19)
(0.136496 0.00241503 -1.15237e-19)
(0.208421 -0.00161983 -2.11636e-19)
(0.291848 -0.00387902 1.99774e-19)
(0.384678 -0.00389418 0)
(0.484111 -0.00147565 1.88493e-21)
(0.586769 0.00330337 3.96766e-21)
(0.688959 0.0101355 1.43334e-19)
(0.787013 0.0185284 0)
(0.877636 0.0278726 0)
(0.958198 0.0375188 1.5287e-19)
(1.02693 0.046853 -2.86839e-19)
(1.08299 0.0553584 1.63979e-19)
(1.12645 0.0626542 -1.53949e-19)
(1.15815 0.0685212 -6.61715e-20)
(1.17955 0.0728544 -1.15407e-19)
(1.19237 0.0758101 -4.63083e-20)
(1.19882 0.0771025 -8.55926e-20)
(1.20026 0.0783182 1.29016e-19)
(1.19878 0.0754205 3.65813e-20)
(-0.00869383 0.00692888 0)
(-0.00403019 0.010199 0)
(0.0216202 0.00918127 7.02505e-20)
(0.0661782 0.0059843 6.49216e-20)
(0.128177 0.00243038 -1.43234e-21)
(0.206097 2.40461e-07 -1.1822e-19)
(0.297849 -0.000300959 0)
(0.400519 0.00208375 -9.91194e-20)
(0.510313 0.00729552 9.20899e-20)
(0.62275 0.0150922 2.01797e-22)
(0.733061 0.0249118 -1.54358e-19)
(0.836704 0.0359734 -1.38235e-19)
(0.929849 0.0474038 4.78684e-21)
(1.00975 0.0583644 -1.07831e-19)
(1.07493 0.0681589 2.6353e-19)
(1.12519 0.0763026 0)
(1.16145 0.0825498 -1.61314e-19)
(1.18545 0.0868759 7.85175e-20)
(1.19947 0.0894469 6.61123e-20)
(1.20593 0.0905003 0)
(1.20718 0.0904716 5.21661e-20)
(1.20516 0.0893144 -1.78823e-19)
(1.20128 0.0883758 1.67865e-19)
(1.19741 0.0845674 1.041e-19)
(-0.0055443 0.00452608 -7.74157e-20)
(0.00916495 0.00425547 -7.99317e-20)
(0.0487864 0.00204732 7.25582e-20)
(0.110536 -0.000378558 0)
(0.19205 -0.00142886 0)
(0.290511 0.00017103 -1.91581e-21)
(0.402081 0.00509064 0)
(0.521807 0.0133946 -2.99453e-19)
(0.643905 0.0246095 2.76864e-19)
(0.762358 0.0378402 -3.40144e-19)
(0.871643 0.0519449 7.70612e-20)
(0.9674 0.065742 0)
(1.04687 0.0782 1.23522e-19)
(1.10904 0.0885747 -2.26921e-19)
(1.15449 0.0964718 5.38226e-20)
(1.18506 0.101837 1.32323e-19)
(1.20339 0.10489 -8.50689e-21)
(1.21238 0.106024 -1.46613e-19)
(1.21486 0.105703 0)
(1.21323 0.104364 0)
(1.20933 0.10243 -4.99014e-20)
(1.20441 0.0999396 4.42891e-20)
(1.19926 0.0979134 1.55153e-19)
(1.19432 0.0935165 -1.45656e-19)
(-0.000684826 0.00190868 -8.11944e-20)
(0.0276031 -0.00183021 -8.09785e-20)
(0.0846105 -0.00449971 2.2792e-19)
(0.166485 -0.00493389 -1.38503e-19)
(0.269408 -0.00195732 1.3037e-19)
(0.388571 0.00524132 2.36908e-19)
(0.517753 0.0166654 -1.66905e-19)
(0.649673 0.0315529 -2.01131e-19)
(0.776825 0.048582 5.28412e-21)
(0.89252 0.0661555 2.56198e-19)
(0.991772 0.0827155 0)
(1.07182 0.0970125 6.87999e-20)
(1.13215 0.108268 0)
(1.1742 0.116211 -1.08858e-19)
(1.2007 0.121012 1.52553e-19)
(1.21504 0.123139 1.07724e-21)
(1.22066 0.123205 -3.8983e-20)
(1.22056 0.121826 7.12026e-20)
(1.2171 0.119531 6.14888e-20)
(1.21195 0.116709 -5.45619e-20)
(1.20614 0.113635 4.98892e-20)
(1.20028 0.110349 -4.4278e-20)
(1.19459 0.107433 0)
(1.18945 0.102721 -3.37467e-20)
(0.00624969 -0.000719059 8.11829e-20)
(0.0520186 -0.00730196 8.49268e-20)
(0.12979 -0.00912969 -7.6289e-20)
(0.234129 -0.00589077 1.41887e-19)
(0.359037 0.00284284 -1.33548e-19)
(0.497012 0.0170311 1.20468e-19)
(0.639118 0.0356201 -5.77635e-20)
(0.776078 0.0567619 1.51184e-19)
(0.899717 0.078272 -9.474e-20)
(1.00418 0.0981042 1.65553e-19)
(1.08656 0.114723 -3.80342e-19)
(1.14681 0.127293 1.39072e-19)
(1.18715 0.135675 -1.19421e-19)
(1.21119 0.140271 1.12172e-19)
(1.223 0.141803 9.47746e-20)
(1.22643 0.141089 8.16933e-20)
(1.22463 0.138883 -2.27562e-19)
(1.21993 0.13578 1.40491e-19)
(1.21388 0.132199 -6.14906e-20)
(1.2074 0.128397 1.59012e-19)
(1.20098 0.124521 -5.13749e-20)
(1.19485 0.1206 -1.23432e-19)
(1.18909 0.116941 1.13675e-19)
(1.1838 0.112015 3.37359e-20)
(0.0156042 -0.00308895 0)
(0.0829206 -0.0112878 5.81557e-22)
(0.184414 -0.0104552 1.58486e-19)
(0.312445 -0.00158097 -1.48781e-19)
(0.458089 0.0145354 -1.33966e-19)
(0.610723 0.0365342 2.48727e-19)
(0.759008 0.0619927 -1.15387e-19)
(0.892828 0.0879726 1.52893e-19)
(1.00501 0.111755 -3.80272e-21)
(1.09217 0.13138 -8.6055e-20)
(1.15454 0.14588 1.85527e-19)
(1.19506 0.155216 -2.72879e-19)
(1.21814 0.160023 0)
(1.22855 0.161278 -5.25749e-20)
(1.23056 0.160016 -1.38687e-19)
(1.22755 0.157136 4.38646e-20)
(1.22188 0.153315 1.98277e-21)
(1.21506 0.14901 -9.25708e-20)
(1.20795 0.144499 6.83214e-21)
(1.201 0.139933 1.06592e-19)
(1.19442 0.135386 -4.66931e-20)
(1.18825 0.130893 -1.76345e-20)
(1.18247 0.126551 5.48182e-20)
(1.17709 0.121441 0)
(0.027633 -0.0048502 0)
(0.120436 -0.0127985 4.29483e-20)
(0.247782 -0.00709371 -2.0627e-19)
(0.399196 0.00939358 7.49137e-20)
(0.562309 0.0340563 -7.05063e-20)
(0.723558 0.0638051 -6.41339e-20)
(0.870352 0.0948039 -1.13131e-19)
(0.993525 0.123395 5.66566e-20)
(1.08865 0.146946 4.91116e-20)
(1.15587 0.164195 0)
(1.19869 0.175133 1.09894e-19)
(1.22235 0.180612 -1.62475e-19)
(1.23237 0.18189 1.20738e-19)
(1.23359 0.180248 5.26017e-20)
(1.22969 0.176768 -4.24921e-20)
(1.2232 0.172245 -3.48387e-20)
(1.21567 0.167197 -3.21956e-20)
(1.20795 0.161938 9.77196e-20)
(1.20049 0.156635 0)
(1.19345 0.151375 4.80662e-20)
(1.18688 0.146198 3.98258e-20)
(1.18076 0.141125 -9.95411e-20)
(1.17501 0.136136 -6.72615e-20)
(1.16959 0.130838 6.22306e-20)
(0.0424354 -0.00557653 -4.61063e-20)
(0.164183 -0.0107793 -1.57522e-21)
(0.318322 0.00221819 4.18857e-20)
(0.491068 0.0280034 1.16635e-19)
(0.666615 0.0616105 3.37271e-20)
(0.829466 0.098063 -6.527e-20)
(0.967609 0.132469 5.96706e-20)
(1.07471 0.161145 -5.21951e-20)
(1.15023 0.182244 9.30236e-20)
(1.19797 0.195636 3.93127e-20)
(1.22399 0.202361 -1.11544e-19)
(1.23472 0.20399 3.26677e-20)
(1.23572 0.202121 5.52022e-20)
(1.23121 0.198079 -2.72611e-20)
(1.22399 0.192823 0)
(1.21574 0.186973 3.97736e-20)
(1.20739 0.18089 6.66116e-20)
(1.19935 0.174771 1.08956e-20)
(1.19182 0.168715 -5.51249e-20)
(1.18482 0.16277 2.28212e-20)
(1.17834 0.156957 0)
(1.17229 0.151277 -1.76886e-20)
(1.16661 0.145676 -1.66004e-20)
(1.16118 0.140138 0)
(0.0599007 -0.0047986 0)
(0.213202 -0.00421126 2.41247e-20)
(0.393631 0.0184747 4.45355e-20)
(0.584015 0.0546627 -1.18637e-19)
(0.765864 0.096695 3.82516e-20)
(0.923504 0.137967 0)
(1.04753 0.173267 5.71978e-20)
(1.13577 0.199699 -7.9769e-20)
(1.19186 0.216726 -4.63768e-20)
(1.22257 0.225489 2.09334e-20)
(1.2354 0.227912 -3.29601e-20)
(1.23693 0.225995 8.03116e-20)
(1.23212 0.221408 3.97672e-20)
(1.22426 0.215348 -2.79078e-20)
(1.2153 0.208582 -2.86979e-21)
(1.20624 0.201552 -7.452e-20)
(1.19758 0.194492 3.38138e-20)
(1.18951 0.187521 -8.51855e-22)
(1.18205 0.180693 0)
(1.17518 0.174037 -2.28449e-20)
(1.16883 0.167562 0)
(1.16291 0.161246 5.08893e-20)
(1.15733 0.155065 -6.0321e-20)
(1.15195 0.149204 2.73951e-20)
(0.0796727 -0.00204878 -1.24988e-20)
(0.265944 0.0077728 -6.0504e-20)
(0.470654 0.0422664 6.87164e-20)
(0.673734 0.0891772 4.03275e-20)
(0.855551 0.138237 -1.9306e-20)
(1.00237 0.18193 3.2246e-20)
(1.10903 0.215669 -1.57035e-20)
(1.17806 0.238025 2.60087e-20)
(1.2167 0.250014 0)
(1.23363 0.253917 5.83539e-20)
(1.23677 0.252251 -2.56361e-21)
(1.23216 0.247166 -4.67907e-20)
(1.22382 0.240212 1.98903e-20)
(1.21413 0.232377 -2.22397e-20)
(1.20433 0.224228 -8.28665e-21)
(1.19499 0.216059 9.76184e-21)
(1.1863 0.208013 -7.41129e-21)
(1.17833 0.20016 -3.9941e-20)
(1.17104 0.192529 2.44399e-20)
(1.16437 0.185135 4.9393e-21)
(1.15822 0.177971 4.31793e-21)
(1.15248 0.171005 3.776e-21)
(1.14704 0.164277 0)
(1.14176 0.157987 0)
(0.101211 0.00310143 1.25075e-20)
(0.320486 0.0257971 -1.25071e-20)
(0.546108 0.0736936 -2.28677e-20)
(0.756295 0.13078 0)
(0.93234 0.184805 -9.56446e-21)
(1.06442 0.228398 -8.56935e-21)
(1.15255 0.258494 -1.46464e-20)
(1.20369 0.275542 0)
(1.22769 0.282064 0)
(1.23411 0.281205 0)
(1.23051 0.275775 0)
(1.22203 0.26785 0)
(1.21171 0.258763 -1.24432e-20)
(1.20114 0.249273 5.6535e-21)
(1.19106 0.239772 9.75397e-21)
(1.18173 0.230444 4.55001e-21)
(1.17322 0.221373 1.11382e-20)
(1.16548 0.212591 0)
(1.15847 0.204116 -2.61627e-21)
(1.15208 0.195949 -2.49086e-21)
(1.14622 0.188069 -4.3248e-21)
(1.14076 0.18045 -3.78203e-21)
(1.13556 0.173203 0)
(1.1305 0.166373 2.65308e-21)
(-1.34611e-05 -0.036668 8.6283e-21)
(-0.00333373 -0.0886489 -8.95574e-21)
(-0.0117592 -0.124831 -1.69518e-20)
(-0.0232294 -0.148572 0)
(-0.0364185 -0.162969 -2.27486e-20)
(-0.0505213 -0.170796 7.18977e-21)
(-0.0649345 -0.174318 -1.34534e-20)
(-0.0792277 -0.175193 0)
(-0.0931254 -0.174471 0)
(-0.106464 -0.172681 0)
(-0.119147 -0.169949 0)
(-0.131114 -0.16613 0)
(-0.142314 -0.160915 2.23842e-22)
(-0.152689 -0.153915 -9.1149e-21)
(-0.162162 -0.144719 1.68181e-20)
(-0.170638 -0.132925 2.3994e-20)
(-0.177998 -0.118167 7.18497e-21)
(-0.184106 -0.100132 0)
(-0.188818 -0.0785859 6.82614e-21)
(-0.191991 -0.0533949 -1.86038e-20)
(-0.1935 -0.0245463 -1.13654e-20)
(-0.193176 0.00792023 -1.0557e-20)
(-0.191102 0.0437981 0)
(-0.188345 0.0827511 0)
(0.00153267 -0.0321797 -2.57442e-20)
(-0.000420662 -0.0778493 4.45382e-20)
(-0.00913034 -0.109763 -1.65348e-20)
(-0.0216853 -0.130739 -3.17204e-20)
(-0.0362887 -0.143508 4.49683e-20)
(-0.0518955 -0.150556 -2.82374e-20)
(-0.067767 -0.1539 4.00111e-20)
(-0.0834086 -0.154999 2.48213e-20)
(-0.0985287 -0.154763 0)
(-0.112974 -0.153627 -2.25901e-20)
(-0.12667 -0.151674 -6.6757e-23)
(-0.13958 -0.148745 2.00322e-20)
(-0.151671 -0.144546 2.76575e-20)
(-0.162899 -0.138719 3.48225e-20)
(-0.173199 -0.130893 -1.68605e-20)
(-0.182479 -0.120706 -4.64603e-20)
(-0.19062 -0.10783 1.37042e-20)
(-0.197484 -0.0919787 -5.24776e-20)
(-0.202926 -0.0729176 0)
(-0.206807 -0.0504801 1.21816e-20)
(-0.208887 -0.0245718 1.1352e-20)
(-0.208952 0.00483808 1.05443e-20)
(-0.207043 0.0377521 0)
(-0.20516 0.0741195 0)
(0.00243446 -0.0266322 0)
(0.00124167 -0.0649452 8.69815e-20)
(-0.0077064 -0.0922578 -3.28771e-20)
(-0.0209037 -0.11055 3.14018e-20)
(-0.0362228 -0.121978 -8.78807e-20)
(-0.0524484 -0.128603 0)
(-0.0687441 -0.132122 -5.21781e-20)
(-0.0845651 -0.133759 2.42784e-20)
(-0.0996024 -0.134272 -4.57188e-20)
(-0.113701 -0.134015 2.0918e-20)
(-0.126794 -0.133037 1.2137e-19)
(-0.138849 -0.131183 -5.69367e-20)
(-0.149841 -0.128185 -8.91942e-20)
(-0.15973 -0.123722 -3.20741e-20)
(-0.168451 -0.117465 6.01788e-22)
(-0.175915 -0.109097 1.1497e-19)
(-0.181999 -0.0983278 -5.36463e-20)
(-0.186558 -0.0848987 1.95859e-21)
(-0.189432 -0.0685812 0)
(-0.190471 -0.0491735 -3.9512e-20)
(-0.189509 -0.0265084 0)
(-0.186167 -0.000495566 -3.54576e-20)
(-0.180032 0.0290671 1.25242e-19)
(-0.173799 0.0621414 -1.61748e-21)
(0.00258977 -0.0204457 0)
(0.00147647 -0.0508225 -3.918e-22)
(-0.0076647 -0.0734158 3.23617e-20)
(-0.0210408 -0.0891731 -3.05513e-20)
(-0.036362 -0.0995411 2.90967e-20)
(-0.0523267 -0.106073 1.63405e-19)
(-0.0680456 -0.110089 -5.13402e-20)
(-0.0829427 -0.112563 -4.79305e-20)
(-0.0966914 -0.114095 9.06112e-20)
(-0.109127 -0.114961 -1.27382e-19)
(-0.120176 -0.115186 3.93179e-20)
(-0.1298 -0.114627 3.64996e-20)
(-0.137971 -0.113043 0)
(-0.144644 -0.110152 3.2548e-20)
(-0.149755 -0.105667 0)
(-0.153216 -0.0993112 5.30123e-20)
(-0.15491 -0.0908362 -9.83332e-20)
(-0.154691 -0.0800201 2.63389e-20)
(-0.152385 -0.066663 8.41592e-20)
(-0.147829 -0.0505731 3.94749e-20)
(-0.140909 -0.0315413 0)
(-0.131251 -0.00925912 -9.13648e-20)
(-0.117872 0.0166512 3.0085e-20)
(-0.102418 0.0462005 0)
(0.00198073 -0.0140468 0)
(0.000264059 -0.036357 -1.02269e-19)
(-0.0090159 -0.0542886 -3.23958e-20)
(-0.0220997 -0.0676916 -6.08787e-20)
(-0.0367111 -0.0772437 5.73282e-20)
(-0.0515518 -0.0839471 -5.42723e-20)
(-0.0657284 -0.0887284 1.01365e-19)
(-0.0786561 -0.0922948 4.75803e-20)
(-0.0899963 -0.0950922 -1.34245e-19)
(-0.0995715 -0.0973198 8.29229e-20)
(-0.107294 -0.09898 -1.1657e-19)
(-0.113115 -0.0999399 2.50601e-19)
(-0.116999 -0.0999874 -1.34465e-19)
(-0.118897 -0.0988746 6.076e-20)
(-0.118748 -0.096348 1.67287e-19)
(-0.11647 -0.0921682 -5.59722e-20)
(-0.111962 -0.0861214 -4.92053e-20)
(-0.105101 -0.0780258 -4.52802e-20)
(-0.095733 -0.0677311 0)
(-0.0836902 -0.0551076 -6.67192e-20)
(-0.068831 -0.0399942 -5.56654e-20)
(-0.0510455 -0.0220903 8.52888e-20)
(-0.0296895 -0.00070005 9.40447e-20)
(-0.0022578 0.0262985 -8.60083e-20)
(0.000673512 -0.0078321 0)
(-0.00225012 -0.0223571 -1.35557e-19)
(-0.011576 -0.0358354 -1.89839e-22)
(-0.023872 -0.0470723 1.20974e-19)
(-0.0370386 -0.0559902 0)
(-0.0498649 -0.0630409 0)
(-0.0615016 -0.0687553 0)
(-0.0713783 -0.0735788 -4.70193e-20)
(-0.0791516 -0.0778006 6.37893e-22)
(-0.0846301 -0.0815415 8.26586e-20)
(-0.0877098 -0.0847782 -1.14184e-19)
(-0.0883297 -0.0873829 8.16641e-22)
(-0.0864447 -0.0891642 0)
(-0.0820098 -0.0898999 -6.07347e-20)
(-0.0749741 -0.0893621 5.21567e-20)
(-0.0652787 -0.0873358 -1.50346e-19)
(-0.0528562 -0.0836322 1.78237e-19)
(-0.0376288 -0.0780994 3.34533e-20)
(-0.0195017 -0.07063 -7.80978e-21)
(0.00163614 -0.0611662 -1.31445e-19)
(0.0258772 -0.0496884 -5.46531e-20)
(0.0533576 -0.0360974 1.6794e-19)
(0.0850415 -0.0195073 -1.07603e-19)
(0.124677 0.00303967 0)
(-0.00118998 -0.00214988 6.5411e-20)
(-0.00576136 -0.0095368 6.77098e-20)
(-0.0149524 -0.018905 -6.43307e-20)
(-0.0258966 -0.028164 -1.21177e-19)
(-0.0368027 -0.0365556 1.14107e-19)
(-0.0466137 -0.0440169 -1.07153e-19)
(-0.0545652 -0.0507009 1.51222e-19)
(-0.060118 -0.0568029 -4.67413e-20)
(-0.0629266 -0.0624545 8.82701e-20)
(-0.0627823 -0.0676918 0)
(-0.0595595 -0.0724555 7.42902e-20)
(-0.0531804 -0.0766107 -1.40856e-19)
(-0.0435938 -0.079973 1.27167e-19)
(-0.0307639 -0.0823322 -1.1944e-19)
(-0.0146668 -0.0834727 0)
(0.00471049 -0.0831905 9.72478e-20)
(0.0273695 -0.081308 1.69053e-19)
(0.0533024 -0.0776869 -1.59692e-19)
(0.0824961 -0.0722414 -6.81987e-20)
(0.114939 -0.0649507 -5.7476e-20)
(0.150584 -0.0558806 1.64874e-19)
(0.189601 -0.0451376 4.12284e-20)
(0.230687 -0.0326691 -4.21153e-20)
(0.287522 -0.0154993 3.37833e-20)
(-0.00340368 0.00271042 -6.54198e-20)
(-0.00982273 0.00149595 2.05089e-19)
(-0.0185569 -0.00423138 -6.44066e-20)
(-0.0274619 -0.0117075 1.21714e-19)
(-0.0351452 -0.0196127 -1.14611e-19)
(-0.0407439 -0.02743 5.58907e-22)
(-0.0435956 -0.0349844 5.0731e-20)
(-0.0432109 -0.0422238 1.88373e-19)
(-0.0392364 -0.0491214 -1.74923e-21)
(-0.0314407 -0.0556209 -8.2608e-20)
(-0.0196751 -0.0616124 0)
(-0.00385075 -0.0669365 -6.80425e-20)
(0.0160722 -0.0713979 1.29593e-19)
(0.040088 -0.0747827 1.14883e-19)
(0.0681455 -0.0768751 -5.49823e-20)
(0.100147 -0.0774741 -4.62167e-22)
(0.135948 -0.0764089 -4.3187e-20)
(0.175364 -0.0735542 7.59423e-20)
(0.218176 -0.0688433 6.81779e-20)
(0.264168 -0.062272 -5.99702e-20)
(0.312813 -0.0539994 5.16222e-20)
(0.36545 -0.0438596 -4.48951e-20)
(0.414194 -0.0333014 0)
(0.491172 -0.0180183 -3.37298e-20)
(-0.00572028 0.00653311 6.64459e-20)
(-0.0138805 0.0102629 -6.85265e-20)
(-0.0216398 0.00757773 6.54903e-20)
(-0.0276421 0.00165505 0)
(-0.0309293 -0.00577113 0)
(-0.0308675 -0.0138211 1.09097e-19)
(-0.0268959 -0.0220196 -1.0183e-19)
(-0.0185566 -0.0300897 9.43351e-20)
(-0.0055137 -0.037859 -4.42253e-19)
(0.0124717 -0.0451684 9.60541e-22)
(0.0355423 -0.0518417 7.60915e-20)
(0.0637463 -0.0576785 0)
(0.0970338 -0.0624592 -1.26113e-19)
(0.135253 -0.0659588 2.33021e-19)
(0.178146 -0.0679622 -1.60492e-19)
(0.225355 -0.0682819 -2.33471e-19)
(0.27643 -0.0667745 8.65601e-21)
(0.330846 -0.0633559 1.55372e-19)
(0.38801 -0.0580207 0)
(0.44747 -0.0507679 0)
(0.507657 -0.0420833 -5.16107e-20)
(0.572318 -0.0309656 4.48846e-20)
(0.624946 -0.0209273 -1.50564e-19)
(0.716161 -0.00466855 1.41285e-19)
(-0.0078782 0.00919192 0)
(-0.017329 0.0164392 0)
(-0.0233628 0.0160627 -1.97328e-19)
(-0.0253944 0.0113962 6.25901e-20)
(-0.0228928 0.0044326 2.78327e-22)
(-0.0154333 -0.00366551 1.10736e-19)
(-0.00258523 -0.0121756 0)
(0.0160463 -0.0206417 -9.60971e-20)
(0.0407581 -0.0287417 8.87702e-20)
(0.0717251 -0.0362111 -1.64345e-19)
(0.108977 -0.0428017 1.33599e-21)
(0.152378 -0.0482686 1.38541e-19)
(0.201607 -0.0523729 -3.6911e-21)
(0.256157 -0.0548949 1.1078e-19)
(0.315342 -0.0556505 -1.62602e-19)
(0.37832 -0.0545096 0)
(0.444135 -0.0514109 1.6587e-19)
(0.511764 -0.0463714 -2.31388e-19)
(0.580119 -0.0395194 6.7247e-20)
(0.648464 -0.0308979 0)
(0.714477 -0.021349 5.2377e-20)
(0.782768 -0.00936169 1.77028e-19)
(0.834528 0.000318878 -1.66134e-19)
(0.922452 0.0169448 -1.75109e-19)
(-0.00963011 0.0106583 2.0571e-19)
(-0.0195509 0.0198815 -2.83789e-19)
(-0.0228359 0.0209704 1.2918e-22)
(-0.0195855 0.0171974 6.34122e-20)
(-0.00965922 0.010674 -1.18856e-19)
(0.00715931 0.0027561 -1.10136e-19)
(0.0311566 -0.00565225 2.06206e-19)
(0.0625966 -0.0139329 -2.65391e-21)
(0.101623 -0.0216369 -1.80572e-19)
(0.148189 -0.0284061 3.31204e-19)
(0.202001 -0.0339347 -3.48169e-21)
(0.262482 -0.0379578 -1.42624e-19)
(0.328761 -0.0402566 0)
(0.399697 -0.0406719 0)
(0.473926 -0.0391201 -5.29262e-20)
(0.549938 -0.0356056 -9.53048e-20)
(0.626166 -0.0302264 -1.66372e-19)
(0.701079 -0.0231752 1.56168e-19)
(0.773248 -0.0147338 -6.72671e-20)
(0.841576 -0.00517403 1.1598e-19)
(0.904399 0.00479737 -5.88351e-20)
(0.963976 0.0159594 8.51025e-20)
(1.00904 0.0247152 -2.11686e-19)
(1.07441 0.0387231 3.57784e-20)
(-0.010759 0.0109998 6.95143e-20)
(-0.019937 0.0206512 0)
(-0.0191241 0.0223154 1.3578e-19)
(-0.00898845 0.0190444 -1.27912e-19)
(0.0102623 0.0129568 1.18958e-19)
(0.0386245 0.00552491 0)
(0.0761682 -0.00221939 0)
(0.122891 -0.00954162 -9.66413e-20)
(0.178574 -0.0159001 2.51825e-21)
(0.24267 -0.0208825 8.52793e-20)
(0.314233 -0.0241774 -7.55214e-20)
(0.391906 -0.0255693 1.43241e-19)
(0.473956 -0.0249453 0)
(0.558371 -0.0223038 2.30342e-19)
(0.642995 -0.0177578 -4.2397e-19)
(0.725678 -0.0115294 2.90351e-19)
(0.804423 -0.0039319 1.66602e-19)
(0.877507 0.0046393 -1.56391e-19)
(0.943604 0.0137925 0)
(1.00173 0.0229931 0)
(1.05155 0.0320327 0)
(1.09309 0.0402806 0)
(1.12492 0.0472732 4.16476e-20)
(1.15892 0.0554729 -1.47936e-19)
(-0.1859 0.130472 -6.7024e-21)
(-0.179155 0.191082 6.72138e-21)
(-0.169349 0.254943 -1.80808e-22)
(-0.156802 0.319366 0)
(-0.141418 0.381246 -5.20372e-21)
(-0.123101 0.437328 9.82483e-21)
(-0.101433 0.483922 -2.60149e-22)
(-0.0752524 0.5169 -4.25109e-21)
(-0.0425489 0.531923 0)
(-0.00101626 0.524279 0)
(0.0508668 0.489177 -2.35102e-22)
(0.113171 0.424121 -2.40996e-22)
(0.183879 0.329999 -4.14307e-21)
(0.259132 0.211091 3.78489e-21)
(0.334919 0.0728203 0)
(0.408612 -0.0784565 0)
(0.479004 -0.231554 3.22196e-21)
(0.543088 -0.369081 -4.16998e-22)
(0.596148 -0.472619 -2.48151e-21)
(0.634037 -0.53321 -1.21837e-22)
(0.655351 -0.554862 0)
(0.66285 -0.548376 0)
(0.659095 -0.529049 0)
(0.639903 -0.516526 0)
(0.601173 -0.519759 0)
(0.553267 -0.51687 0)
(0.521579 -0.462346 4.96308e-22)
(0.526564 -0.326579 -7.66988e-22)
(0.566545 -0.127375 0)
(0.625979 0.0836722 0)
(0.687799 0.258328 -5.3193e-22)
(0.738591 0.373896 5.16963e-22)
(0.773684 0.432295 1.75188e-22)
(0.795752 0.447426 0)
(0.801811 0.450825 0)
(0.781858 0.466714 2.54467e-22)
(0.737961 0.485713 -2.47364e-22)
(0.695995 0.448939 0)
(0.680493 0.321446 3.72435e-22)
(0.699423 0.119139 -5.61745e-22)
(0.736457 -0.0864 1.84921e-22)
(0.77819 -0.241625 0)
(0.816683 -0.331578 -2.05631e-22)
(0.835549 -0.367862 1.99952e-22)
(0.824252 -0.400794 0)
(0.777352 -0.402253 0)
(0.730091 -0.375959 -7.44547e-23)
(0.711823 -0.238834 2.15107e-22)
(0.732276 -0.0753937 0)
(0.776999 0.0966133 0)
(0.816292 0.226261 -5.23106e-23)
(0.814404 0.294885 3.09952e-24)
(0.789058 0.389574 -3.52145e-24)
(0.757913 0.318299 4.00472e-23)
(0.761699 0.276637 0)
(0.787246 0.0802718 0)
(0.807912 -0.0844665 0)
(0.793199 -0.173853 0)
(0.794024 -0.398482 0)
(0.772521 -0.217275 0)
(-0.207118 0.119143 -5.48835e-22)
(-0.20049 0.176077 -2.23626e-20)
(-0.189651 0.236228 9.4899e-22)
(-0.174349 0.297081 2.01171e-20)
(-0.153775 0.355414 2.70358e-22)
(-0.127309 0.40809 0)
(-0.0943569 0.451026 -1.59705e-20)
(-0.0538843 0.479184 3.13649e-20)
(-0.0045501 0.488676 -1.53998e-20)
(0.0543535 0.474923 1.55279e-20)
(0.122548 0.434321 -1.48563e-20)
(0.198392 0.365812 1.62994e-20)
(0.278591 0.270888 -1.58544e-20)
(0.359091 0.153548 -5.46797e-22)
(0.436471 0.0181461 -1.68571e-20)
(0.50944 -0.129758 1.63807e-20)
(0.576914 -0.278956 -1.39889e-20)
(0.634649 -0.410459 1.31854e-20)
(0.677244 -0.504622 -9.48039e-21)
(0.701849 -0.553403 1.63912e-20)
(0.709049 -0.563696 -7.0048e-21)
(0.70287 -0.54849 -3.0178e-22)
(0.688421 -0.521101 -3.78285e-21)
(0.663841 -0.498445 7.15421e-21)
(0.622153 -0.492958 -3.38e-21)
(0.567014 -0.491041 2.03939e-22)
(0.520538 -0.45075 4.46052e-21)
(0.508048 -0.335601 7.36622e-22)
(0.535123 -0.153114 -9.53402e-21)
(0.588736 0.0503173 9.25612e-21)
(0.650663 0.226824 -4.38377e-21)
(0.706172 0.349739 3.98178e-22)
(0.74953 0.416358 -1.75557e-22)
(0.780607 0.43971 2.73797e-22)
(0.792642 0.453104 0)
(0.7765 0.478952 0)
(0.737375 0.502071 -1.22544e-21)
(0.703805 0.460533 8.51051e-22)
(0.696768 0.322847 1.2343e-21)
(0.721931 0.111112 2.39243e-22)
(0.76078 -0.0993819 -1.77243e-21)
(0.799131 -0.254808 3.26159e-22)
(0.831741 -0.340845 0)
(0.845521 -0.368918 0)
(0.832885 -0.392126 0)
(0.783387 -0.388309 0)
(0.733942 -0.366158 2.41017e-22)
(0.710566 -0.238964 -1.42826e-22)
(0.729882 -0.084954 0)
(0.773445 0.0852422 0)
(0.811992 0.22089 0)
(0.810268 0.297873 -8.39702e-23)
(0.783896 0.396083 3.8221e-24)
(0.755209 0.321445 -7.9385e-23)
(0.759079 0.27339 0)
(0.789804 0.0756811 0)
(0.813121 -0.085777 6.45371e-23)
(0.799159 -0.171976 1.84906e-22)
(0.800163 -0.396418 0)
(0.776183 -0.215874 0)
(-0.175225 0.103519 -9.44919e-22)
(-0.168124 0.155798 -3.90833e-20)
(-0.155342 0.21122 3.61128e-20)
(-0.137034 0.267776 -3.38331e-20)
(-0.111671 0.321208 -2.7222e-22)
(-0.0782423 0.36887 0)
(-0.0371829 0.406483 -3.03457e-20)
(0.0129926 0.429955 2.97046e-20)
(0.0733371 0.435004 2.35194e-22)
(0.142634 0.417442 4.75749e-22)
(0.219488 0.374642 5.02813e-22)
(0.301364 0.306182 5.16011e-22)
(0.384719 0.213818 -3.62237e-20)
(0.465767 0.101056 3.57493e-20)
(0.541911 -0.0288819 0)
(0.612675 -0.171258 1.09039e-21)
(0.676263 -0.31483 -2.95441e-20)
(0.726863 -0.439068 2.91167e-20)
(0.758235 -0.523926 0)
(0.769066 -0.562551 0)
(0.762607 -0.563872 -1.1785e-20)
(0.74398 -0.542704 2.05369e-20)
(0.71943 -0.510639 -1.58719e-20)
(0.689739 -0.480339 8.73842e-22)
(0.646912 -0.465694 1.21288e-20)
(0.588011 -0.462099 -1.25741e-20)
(0.529719 -0.434326 1.30748e-20)
(0.500083 -0.341073 5.76057e-22)
(0.512469 -0.178101 -7.77077e-21)
(0.558004 0.0153078 0)
(0.61814 0.191929 0)
(0.677186 0.321224 2.02156e-21)
(0.728045 0.396146 -2.69187e-21)
(0.767367 0.428773 -1.90202e-23)
(0.785061 0.453152 2.07969e-21)
(0.773306 0.489098 -2.02116e-21)
(0.739878 0.516313 0)
(0.714826 0.470736 3.41544e-22)
(0.715908 0.324373 3.95533e-21)
(0.746927 0.104816 -7.90737e-21)
(0.787547 -0.109539 3.42669e-21)
(0.822428 -0.264853 3.65661e-22)
(0.848802 -0.347794 -2.30032e-21)
(0.857128 -0.368857 1.73569e-21)
(0.843248 -0.383087 2.82128e-22)
(0.791715 -0.374122 2.29127e-22)
(0.740762 -0.356241 -2.4162e-22)
(0.712465 -0.239399 0)
(0.730276 -0.0950536 0)
(0.771987 0.0733208 -7.74317e-22)
(0.809477 0.215259 3.8428e-22)
(0.807793 0.30053 -3.33179e-22)
(0.780371 0.4025 5.08126e-22)
(0.754079 0.324623 7.28976e-22)
(0.757914 0.26987 -1.56136e-22)
(0.793731 0.0707582 3.4992e-22)
(0.819691 -0.087325 -3.08009e-22)
(0.806287 -0.169921 1.62478e-22)
(0.807138 -0.394068 0)
(0.780605 -0.214384 0)
(-0.0991693 0.0847145 -6.83672e-20)
(-0.091358 0.131754 2.84054e-21)
(-0.0758879 0.181733 6.19833e-20)
(-0.0550662 0.231872 -4.95452e-22)
(-0.0274145 0.279558 0)
(0.00967511 0.321747 0)
(0.0557538 0.35439 -5.62639e-20)
(0.111444 0.374151 -3.67739e-21)
(0.176514 0.37617 8.65373e-20)
(0.249663 0.356993 2.24328e-21)
(0.328849 0.314626 -3.16651e-20)
(0.411168 0.248949 -3.49511e-20)
(0.493233 0.161678 3.50089e-20)
(0.571916 0.0553876 0)
(0.645635 -0.0675918 -3.6953e-20)
(0.71405 -0.20378 3.36886e-20)
(0.773987 -0.34108 0)
(0.817476 -0.457425 0)
(0.837567 -0.533015 2.00648e-20)
(0.834716 -0.562751 -4.19035e-21)
(0.815199 -0.557031 -1.44667e-20)
(0.785505 -0.531791 -9.10504e-21)
(0.751775 -0.497781 9.01464e-21)
(0.716909 -0.462984 -6.03975e-21)
(0.67412 -0.439575 5.45623e-22)
(0.615153 -0.430915 5.15622e-21)
(0.549054 -0.412117 6.7857e-22)
(0.503429 -0.34093 9.27526e-23)
(0.49949 -0.200578 0)
(0.534473 -0.0197811 6.52815e-21)
(0.590794 0.154419 -6.68802e-21)
(0.652046 0.288782 3.51156e-22)
(0.709319 0.371934 0)
(0.755907 0.414576 -2.57963e-22)
(0.77895 0.450472 4.11747e-21)
(0.772102 0.496431 -8.07349e-21)
(0.744998 0.527906 -1.65281e-21)
(0.728431 0.479642 -1.33754e-21)
(0.737281 0.326398 5.57834e-21)
(0.773759 0.1007 9.38322e-22)
(0.816172 -0.116873 -6.49106e-21)
(0.84774 -0.271935 5.61082e-21)
(0.867722 -0.35257 -1.72634e-23)
(0.870224 -0.367919 1.34128e-21)
(0.855044 -0.373969 -1.58705e-21)
(0.801967 -0.359814 -1.52092e-21)
(0.750167 -0.346047 4.55231e-22)
(0.717243 -0.239883 7.90319e-22)
(0.733221 -0.105456 -1.51079e-21)
(0.772487 0.0609375 1.10218e-21)
(0.808675 0.209345 -3.51755e-22)
(0.806988 0.302792 3.07225e-22)
(0.778598 0.408818 3.15054e-22)
(0.7547 0.327898 -1.14842e-21)
(0.758357 0.266172 -3.61722e-25)
(0.799039 0.0655472 -4.23799e-22)
(0.827572 -0.0890953 0)
(0.814565 -0.167673 -1.56684e-22)
(0.814922 -0.391408 2.3821e-22)
(0.785747 -0.21279 0)
(0.00776421 0.061386 5.97024e-20)
(0.0153261 0.103235 -1.14277e-19)
(0.0312838 0.147307 5.40224e-20)
(0.0536739 0.190871 5.10481e-20)
(0.0834849 0.233285 -1.00275e-19)
(0.122046 0.270771 -1.49086e-21)
(0.169491 0.299645 4.97302e-20)
(0.226022 0.316134 5.53391e-20)
(0.291102 0.316399 -5.42296e-20)
(0.363332 0.297471 0)
(0.440509 0.257593 -6.84623e-20)
(0.519832 0.196583 1.39096e-19)
(0.598269 0.115764 -7.05316e-20)
(0.673596 0.0169129 0)
(0.744972 -0.0986509 0)
(0.811593 -0.227991 1.12692e-21)
(0.868032 -0.357674 -6.16375e-20)
(0.903959 -0.464827 5.98735e-20)
(0.912586 -0.531006 0)
(0.896633 -0.553466 3.20996e-20)
(0.865198 -0.543359 -5.33744e-20)
(0.826311 -0.516239 4.00537e-20)
(0.785175 -0.482387 -3.08734e-20)
(0.745322 -0.446342 2.28021e-21)
(0.70273 -0.416358 1.99606e-20)
(0.646557 -0.400492 -9.20173e-21)
(0.577389 -0.385737 -3.0432e-22)
(0.5184 -0.334317 -4.68844e-21)
(0.497233 -0.218699 -4.77819e-22)
(0.51902 -0.0543853 5.20792e-21)
(0.569125 0.114883 3.49108e-22)
(0.631105 0.252777 -4.12037e-21)
(0.693323 0.343817 7.74458e-21)
(0.745987 0.396847 -4.05442e-21)
(0.77405 0.444436 0)
(0.772557 0.500321 -5.14872e-21)
(0.752222 0.53656 5.10921e-21)
(0.743967 0.487366 -6.20239e-21)
(0.760279 0.329319 7.70921e-21)
(0.801792 0.0987363 -1.02896e-21)
(0.846017 -0.121432 0)
(0.874621 -0.275974 -7.58609e-22)
(0.888214 -0.354997 1.64204e-21)
(0.884612 -0.366027 0)
(0.868065 -0.364867 2.49458e-21)
(0.813839 -0.345575 -1.06758e-21)
(0.761715 -0.33563 3.85222e-22)
(0.724513 -0.240255 3.1298e-22)
(0.7384 -0.115962 0)
(0.774745 0.0481607 0)
(0.809463 0.203082 -9.21087e-22)
(0.807828 0.304564 1.53307e-21)
(0.778668 0.415001 -9.79172e-22)
(0.757223 0.331332 3.64669e-22)
(0.760535 0.26238 8.26295e-22)
(0.805727 0.0600709 4.24202e-22)
(0.836702 -0.0910758 -7.48078e-22)
(0.823961 -0.165199 0)
(0.823474 -0.388384 -3.75136e-22)
(0.791561 -0.211076 -2.48116e-23)
(0.136218 0.0342105 5.39778e-20)
(0.143211 0.0721587 -5.35497e-20)
(0.156922 0.110926 4.01286e-22)
(0.178283 0.14946 -3.48051e-22)
(0.207463 0.186695 3.75334e-22)
(0.244833 0.219669 -3.76575e-22)
(0.29061 0.244972 7.25153e-22)
(0.344835 0.25911 0)
(0.406913 0.258834 -8.34485e-22)
(0.475461 0.241493 9.07592e-22)
(0.548436 0.205359 9.84594e-22)
(0.62342 0.149919 -1.09443e-21)
(0.697889 0.0758267 0)
(0.770391 -0.0155231 0)
(0.840188 -0.123744 1.14187e-21)
(0.905137 -0.245256 0)
(0.957137 -0.3655 -9.95548e-22)
(0.984304 -0.462133 0)
(0.98126 -0.519146 -3.93758e-20)
(0.953373 -0.536122 6.97153e-20)
(0.911754 -0.524214 -5.28987e-20)
(0.865557 -0.497306 2.2723e-20)
(0.819027 -0.464956 1.30709e-20)
(0.774799 -0.430006 -1.26942e-20)
(0.731799 -0.396333 -8.36785e-21)
(0.67998 -0.372818 8.09557e-21)
(0.612555 -0.357203 0)
(0.544556 -0.321013 1.85527e-22)
(0.506182 -0.230699 0)
(0.512498 -0.0869391 0)
(0.554134 0.074336 7.03332e-21)
(0.614685 0.213721 -7.23183e-21)
(0.67994 0.311916 3.50623e-22)
(0.737332 0.375351 4.24804e-22)
(0.770061 0.434518 -4.10545e-22)
(0.774194 0.500203 -4.567e-21)
(0.760882 0.542099 4.43456e-21)
(0.760702 0.493945 -7.97225e-21)
(0.784113 0.333341 6.97104e-21)
(0.830316 0.098984 2.09912e-21)
(0.876546 -0.123236 -7.07728e-21)
(0.90262 -0.27703 6.37876e-22)
(0.909977 -0.35503 4.16208e-21)
(0.90005 -0.363185 0)
(0.882048 -0.355902 -1.07266e-21)
(0.827008 -0.331516 1.03936e-21)
(0.774908 -0.324959 -1.40125e-21)
(0.733794 -0.240358 -3.14961e-22)
(0.745405 -0.126411 0)