/*--------------------------------*- C++ -*----------------------------------*\
| =========                 |                                                 |
| \\      /  F ield         | OpenFOAM: The Open Source CFD Toolbox           |
|  \\    /   O peration     | Version:  2512                                  |
|   \\  /    A nd           | Website:  www.openfoam.com                      |
|    \\/     M anipulation  |                                                 |
\*---------------------------------------------------------------------------*/
FoamFile
{
    version     2.0;
    format      ascii;
    arch        "LSB;label=32;scalar=64";
    class       volScalarField;
    location    "57";
    object      p;
}
// * * * * * * * * * * * * * * * * * * * * * * * * * * * * * * * * * * * * * //

dimensions      [0 2 -2 0 0 0 0];

internalField   nonuniform List<scalar> 
13248
(
-0.338073
-0.336144
-0.333695
-0.330913
-0.328035
-0.325311
-0.322927
-0.320989
-0.319524
-0.318486
-0.317766
-0.317199
-0.316579
-0.315681
-0.314277
-0.312161
-0.309164
-0.305169
-0.300109
-0.294001
-0.286769
-0.278651
-0.268764
-0.258054
-0.34523
-0.342724
-0.339676
-0.336291
-0.332804
-0.329474
-0.326473
-0.323879
-0.321676
-0.319772
-0.318013
-0.3162
-0.314118
-0.31156
-0.308346
-0.304344
-0.299475
-0.293713
-0.287077
-0.279617
-0.271368
-0.262413
-0.252551
-0.242582
-0.353941
-0.35065
-0.346887
-0.342843
-0.338716
-0.334746
-0.331069
-0.327707
-0.324588
-0.32157
-0.31847
-0.315092
-0.311257
-0.306825
-0.301707
-0.295872
-0.289335
-0.282152
-0.274389
-0.266129
-0.257407
-0.248332
-0.238773
-0.229257
-0.364362
-0.360074
-0.355479
-0.350713
-0.34589
-0.341197
-0.336705
-0.332363
-0.32804
-0.323567
-0.318775
-0.313522
-0.307718
-0.301328
-0.29437
-0.286902
-0.279003
-0.270758
-0.262242
-0.253515
-0.244613
-0.23561
-0.226419
-0.217559
-0.376544
-0.371069
-0.365535
-0.359974
-0.354358
-0.348788
-0.343247
-0.337609
-0.331712
-0.325409
-0.318606
-0.31127
-0.303431
-0.295163
-0.286566
-0.277743
-0.268787
-0.259769
-0.250737
-0.241722
-0.232742
-0.223828
-0.21493
-0.206394
-0.390437
-0.383624
-0.377064
-0.370623
-0.364066
-0.357373
-0.350437
-0.343087
-0.335192
-0.3267
-0.317651
-0.30815
-0.298339
-0.288367
-0.278368
-0.268441
-0.258654
-0.249044
-0.239625
-0.2304
-0.221364
-0.212519
-0.203832
-0.195541
-0.405864
-0.397622
-0.389975
-0.382543
-0.374817
-0.366641
-0.357851
-0.348309
-0.338002
-0.327044
-0.315638
-0.304014
-0.292388
-0.28093
-0.269755
-0.258928
-0.248475
-0.238394
-0.228669
-0.219277
-0.210196
-0.201404
-0.192885
-0.184752
-0.422497
-0.412804
-0.404022
-0.395436
-0.386212
-0.376079
-0.364903
-0.352693
-0.339642
-0.32607
-0.312329
-0.298726
-0.285489
-0.272759
-0.260603
-0.249034
-0.238035
-0.227569
-0.217594
-0.20807
-0.198957
-0.190224
-0.181853
-0.173858
-0.439815
-0.428718
-0.418753
-0.408776
-0.397617
-0.384977
-0.370888
-0.355625
-0.339647
-0.323469
-0.307535
-0.292162
-0.277537
-0.263736
-0.250764
-0.238586
-0.227142
-0.216368
-0.206202
-0.196587
-0.18747
-0.178812
-0.170588
-0.162729
-0.457075
-0.444683
-0.433458
-0.421765
-0.40816
-0.392464
-0.37504
-0.356514
-0.337614
-0.318985
-0.301089
-0.28419
-0.268396
-0.253709
-0.240071
-0.227401
-0.215608
-0.204605
-0.19431
-0.184654
-0.175572
-0.167017
-0.158942
-0.151231
-0.473316
-0.459773
-0.447159
-0.433347
-0.416765
-0.397558
-0.376549
-0.354748
-0.333089
-0.312263
-0.292677
-0.274501
-0.257749
-0.242349
-0.228189
-0.215148
-0.20311
-0.191967
-0.181623
-0.171993
-0.163005
-0.154601
-0.146697
-0.139179
-0.487445
-0.472936
-0.458781
-0.442409
-0.422346
-0.399266
-0.374552
-0.349575
-0.32539
-0.302649
-0.281651
-0.262447
-0.244955
-0.22903
-0.214512
-0.201247
-0.189094
-0.177929
-0.167641
-0.158136
-0.149336
-0.141167
-0.133516
-0.12632
-0.279863
-0.281626
-0.282757
-0.283538
-0.284224
-0.284886
-0.285553
-0.286242
-0.286954
-0.287683
-0.288414
-0.289131
-0.289812
-0.290434
-0.29097
-0.29139
-0.29166
-0.291733
-0.291585
-0.291185
-0.290509
-0.289549
-0.28832
-0.286833
-0.284576
-0.286092
-0.287102
-0.287854
-0.288579
-0.289347
-0.290191
-0.291129
-0.292165
-0.293294
-0.294503
-0.295776
-0.297092
-0.298426
-0.299743
-0.301003
-0.302156
-0.303139
-0.303881
-0.304322
-0.304402
-0.304052
-0.303216
-0.301911
-0.289746
-0.290932
-0.291766
-0.292447
-0.293169
-0.294004
-0.294987
-0.296137
-0.297459
-0.298949
-0.300598
-0.302391
-0.304305
-0.306312
-0.308372
-0.310433
-0.312427
-0.314266
-0.315845
-0.317047
-0.317774
-0.317864
-0.317152
-0.31582
-0.295137
-0.295937
-0.296546
-0.297107
-0.297776
-0.298621
-0.299681
-0.300978
-0.302518
-0.304298
-0.30631
-0.308538
-0.310959
-0.313542
-0.316241
-0.31899
-0.321703
-0.324268
-0.326543
-0.32837
-0.329548
-0.329862
-0.328882
-0.326194
-0.300514
-0.300905
-0.30125
-0.301641
-0.302189
-0.302967
-0.30402
-0.30537
-0.307026
-0.308986
-0.31124
-0.313773
-0.316559
-0.319561
-0.322724
-0.325972
-0.329199
-0.332269
-0.335009
-0.337211
-0.338633
-0.33899
-0.337825
-0.335135
-0.305677
-0.305669
-0.305728
-0.305894
-0.306241
-0.306859
-0.307796
-0.309081
-0.310723
-0.312722
-0.315068
-0.31774
-0.320708
-0.323926
-0.327329
-0.330827
-0.334295
-0.337573
-0.340461
-0.342711
-0.344046
-0.344128
-0.342613
-0.33853
-0.31049
-0.31013
-0.309885
-0.309768
-0.30984
-0.310193
-0.310893
-0.311976
-0.31346
-0.315344
-0.317614
-0.320246
-0.3232
-0.32642
-0.329826
-0.333307
-0.336721
-0.339885
-0.342571
-0.344508
-0.345411
-0.344825
-0.342989
-0.337237
-0.314923
-0.314274
-0.31372
-0.313266
-0.312977
-0.312961
-0.313303
-0.314054
-0.315237
-0.316856
-0.318893
-0.321318
-0.324079
-0.327101
-0.330289
-0.333511
-0.336599
-0.339344
-0.341501
-0.342773
-0.342953
-0.341331
-0.339071
-0.331845
-0.319059
-0.318183
-0.317315
-0.316475
-0.315749
-0.315272
-0.315151
-0.315456
-0.31622
-0.317449
-0.319125
-0.321203
-0.323618
-0.326279
-0.329059
-0.331798
-0.334301
-0.33634
-0.337666
-0.337963
-0.337159
-0.334335
-0.331299
-0.323073
-0.323103
-0.322039
-0.320843
-0.319572
-0.318347
-0.317339
-0.31668
-0.316459
-0.316721
-0.317471
-0.318686
-0.320311
-0.322252
-0.324386
-0.326554
-0.328565
-0.330199
-0.331218
-0.331393
-0.330456
-0.328426
-0.324512
-0.320421
-0.311705
-0.327367
-0.326105
-0.324549
-0.322802
-0.321034
-0.319449
-0.318207
-0.317412
-0.317115
-0.317324
-0.317996
-0.31905
-0.320361
-0.321767
-0.323072
-0.324053
-0.324477
-0.324118
-0.322783
-0.320327
-0.316794
-0.311923
-0.306879
-0.298486
-0.332231
-0.3307
-0.328727
-0.326463
-0.324123
-0.321941
-0.3201
-0.318712
-0.317828
-0.317437
-0.317472
-0.317814
-0.318296
-0.318717
-0.318849
-0.318459
-0.317322
-0.315252
-0.312098
-0.307821
-0.302395
-0.296083
-0.289457
-0.282139
-0.284757
-0.281462
-0.277648
-0.273397
-0.268907
-0.264471
-0.260453
-0.257287
-0.255427
-0.255228
-0.256837
-0.260217
-0.264789
-0.269461
-0.272748
-0.273692
-0.267319
-0.255953
-0.238615
-0.216537
-0.193059
-0.171627
-0.155515
-0.147608
-0.150107
-0.163196
-0.183207
-0.202307
-0.21099
-0.203719
-0.181585
-0.152057
-0.123606
-0.101863
-0.0885285
-0.0827954
-0.0856932
-0.0983698
-0.115384
-0.126107
-0.123237
-0.10863
-0.0900357
-0.0741059
-0.0626636
-0.0556867
-0.0553402
-0.0598752
-0.0624895
-0.058637
-0.0490738
-0.0370539
-0.026063
-0.016633
-0.0098951
-0.00668155
-0.00498109
-0.00482235
-0.00402178
-0.00105635
-0.300065
-0.295835
-0.290565
-0.284231
-0.276981
-0.269076
-0.260851
-0.252803
-0.245516
-0.239555
-0.235316
-0.233002
-0.232419
-0.232871
-0.233044
-0.230743
-0.227323
-0.219693
-0.20745
-0.191172
-0.17441
-0.159819
-0.150629
-0.149891
-0.159584
-0.179049
-0.203605
-0.224758
-0.232745
-0.222456
-0.19567
-0.161067
-0.127845
-0.101758
-0.084611
-0.0755126
-0.0747286
-0.0836186
-0.0979767
-0.108573
-0.108256
-0.0978668
-0.0840316
-0.0724473
-0.0643092
-0.0602176
-0.0625991
-0.0688272
-0.0712301
-0.0654943
-0.0535286
-0.0393485
-0.0268556
-0.0164662
-0.00914608
-0.00520675
-0.00330061
-0.00334852
-0.00298803
-0.000739997
-0.315067
-0.309632
-0.302999
-0.294718
-0.284858
-0.273614
-0.261263
-0.248358
-0.235609
-0.223864
-0.213656
-0.205443
-0.199378
-0.195174
-0.19206
-0.188871
-0.184955
-0.178813
-0.171899
-0.161043
-0.151103
-0.143669
-0.141896
-0.148742
-0.165669
-0.191068
-0.219547
-0.24246
-0.250356
-0.237428
-0.20677
-0.167923
-0.130722
-0.100997
-0.0804788
-0.0683005
-0.0641009
-0.0693297
-0.0809857
-0.091123
-0.0930028
-0.086656
-0.0775936
-0.0703743
-0.0656346
-0.064674
-0.0699414
-0.0778394
-0.0798594
-0.0721105
-0.0577641
-0.0415407
-0.0276468
-0.0163687
-0.00853372
-0.00389383
-0.00176156
-0.00186977
-0.00187633
-0.000374023
-0.329674
-0.32118
-0.313609
-0.303761
-0.291714
-0.277537
-0.261479
-0.244119
-0.226239
-0.209242
-0.193381
-0.179449
-0.167923
-0.158889
-0.152065
-0.147028
-0.142353
-0.137476
-0.13358
-0.128232
-0.124799
-0.124484
-0.130194
-0.144402
-0.167916
-0.198415
-0.230197
-0.254739
-0.26272
-0.248208
-0.214707
-0.172601
-0.132289
-0.0997046
-0.0763831
-0.0614769
-0.054223
-0.0559501
-0.0648757
-0.0741885
-0.0778424
-0.0752684
-0.0708337
-0.0678564
-0.0665578
-0.068923
-0.0772183
-0.086782
-0.0882787
-0.0784329
-0.0617421
-0.043608
-0.0284349
-0.0163481
-0.00806155
-0.00277497
-0.000403699
-0.000427237
-0.000718222
3.31533e-05
-0.336758
-0.330502
-0.321578
-0.310451
-0.296639
-0.280043
-0.261
-0.239958
-0.217522
-0.196739
-0.175844
-0.156757
-0.140182
-0.126502
-0.115805
-0.108431
-0.10242
-0.0982128
-0.0967952
-0.0957222
-0.0977577
-0.103923
-0.11652
-0.137301
-0.16633
-0.200879
-0.235314
-0.261367
-0.269801
-0.254644
-0.219492
-0.175248
-0.132761
-0.0980695
-0.0725413
-0.0552979
-0.0453844
-0.0438014
-0.0499888
-0.0581907
-0.0631497
-0.0639569
-0.0638216
-0.0648285
-0.0669538
-0.0728065
-0.0842765
-0.0954958
-0.0963537
-0.0843981
-0.065431
-0.0455325
-0.0292125
-0.0164054
-0.0077273
-0.00187008
0.00074242
0.000930921
0.000439856
0.000462465
-0.340495
-0.335017
-0.325404
-0.3134
-0.298551
-0.280518
-0.259583
-0.236257
-0.211324
-0.186244
-0.161485
-0.138223
-0.117399
-0.099693
-0.085551
-0.0756634
-0.0690522
-0.0642987
-0.0639254
-0.0661248
-0.0723769
-0.0838055
-0.102059
-0.128128
-0.161365
-0.198815
-0.235171
-0.26257
-0.271736
-0.256787
-0.221182
-0.176006
-0.13235
-0.0962685
-0.0691002
-0.0499286
-0.0377434
-0.0331421
-0.0365718
-0.0434663
-0.0492318
-0.0529252
-0.0565797
-0.061198
-0.0666847
-0.0761629
-0.0909453
-0.103803
-0.103929
-0.0899281
-0.0688032
-0.0473003
-0.0299687
-0.0165353
-0.0075235
-0.00118467
0.00165978
0.00215519
0.00154032
0.000886283
-0.339203
-0.333954
-0.324301
-0.312237
-0.297148
-0.278632
-0.256954
-0.232598
-0.206287
-0.179033
-0.151774
-0.12564
-0.101689
-0.0807889
-0.0635774
-0.0507236
-0.0420545
-0.0372742
-0.0374365
-0.0414932
-0.0505651
-0.0656802
-0.0879517
-0.117699
-0.153683
-0.192869
-0.230436
-0.258984
-0.268968
-0.254839
-0.219907
-0.17506
-0.13124
-0.0944438
-0.0661391
-0.0454478
-0.0313534
-0.0240896
-0.0247542
-0.0301978
-0.0362926
-0.0422683
-0.0490762
-0.0568789
-0.0656252
-0.0788393
-0.097048
-0.111527
-0.110822
-0.0949391
-0.0718287
-0.0488961
-0.0306888
-0.016726
-0.00743703
-0.000709864
0.00234649
0.0032013
0.00251983
0.00127391
-0.332697
-0.327318
-0.318423
-0.307151
-0.292599
-0.274536
-0.253263
-0.229133
-0.202725
-0.174895
-0.146611
-0.118956
-0.09303
-0.0698352
-0.0502109
-0.0349094
-0.0242294
-0.0184941
-0.0182112
-0.0228686
-0.0333375
-0.0504819
-0.0750288
-0.106795
-0.144104
-0.18393
-0.221985
-0.251464
-0.262115
-0.24926
-0.215962
-0.17257
-0.129515
-0.0926376
-0.063642
-0.0418306
-0.0261744
-0.0166564
-0.0145993
-0.0184159
-0.0244075
-0.0319621
-0.04126
-0.0518052
-0.0636753
-0.0806787
-0.102401
-0.118484
-0.116851
-0.0993694
-0.0744802
-0.0503072
-0.0313596
-0.0169633
-0.0074506
-0.00042522
0.00281547
0.00403769
0.00332633
0.00159872
-0.321809
-0.315954
-0.308418
-0.298619
-0.28526
-0.268494
-0.248651
-0.225876
-0.200597
-0.173557
-0.145629
-0.117779
-0.0910439
-0.0664576
-0.0449865
-0.0275619
-0.0148886
-0.0076334
-0.00614684
-0.0103193
-0.0208802
-0.0385226
-0.0637277
-0.0960086
-0.133402
-0.172908
-0.210798
-0.241064
-0.251868
-0.24063
-0.209787
-0.168807
-0.127343
-0.0909834
-0.0616933
-0.0391096
-0.0222014
-0.01082
-0.00618857
-0.00812996
-0.0135674
-0.0219092
-0.0330787
-0.0459034
-0.0607193
-0.0815766
-0.106862
-0.124533
-0.121876
-0.103176
-0.0767603
-0.0515528
-0.0319932
-0.0172481
-0.00755336
-0.000308076
0.00308996
0.00465036
0.00393305
0.00184422
-0.307712
-0.301469
-0.295688
-0.287557
-0.275748
-0.260925
-0.243277
-0.222672
-0.199422
-0.174181
-0.147692
-0.120774
-0.0943502
-0.069418
-0.0469657
-0.0280172
-0.0137149
-0.0043476
-0.000712928
-0.0034324
-0.0129623
-0.0298097
-0.0542942
-0.0857791
-0.122142
-0.160475
-0.19748
-0.228634
-0.238851
-0.229735
-0.202163
-0.164485
-0.12537
-0.0900727
-0.0607867
-0.037632
-0.0196772
-0.00667963
0.000349918
0.000570387
-0.00382783
-0.0119928
-0.02447
-0.0391403
-0.056729
-0.0813881
-0.110232
-0.129545
-0.126074
-0.106376
-0.0787223
-0.0526967
-0.0326353
-0.017605
-0.00775014
-0.000344961
0.00319337
0.00504077
0.0043372
0.00200655
-0.292341
-0.286255
-0.28213
-0.275326
-0.265232
-0.252809
-0.237803
-0.219807
-0.199054
-0.176116
-0.151633
-0.126332
-0.100905
-0.0762028
-0.0531789
-0.0329208
-0.0165166
-0.00548099
-0.000716932
-0.00131085
-0.00884235
-0.0238223
-0.0465618
-0.0763771
-0.111061
-0.147598
-0.182844
-0.216225
-0.223287
-0.216754
-0.193289
-0.159812
-0.123713
-0.0899301
-0.0608932
-0.0372854
-0.0185103
-0.00413926
0.00512865
0.00782729
0.00477223
-0.00239776
-0.0155376
-0.0313877
-0.0514465
-0.0801097
-0.112643
-0.133412
-0.131304
-0.108901
-0.0802718
-0.0536577
-0.0332259
-0.0179912
-0.00801143
-0.000507274
0.00315338
0.00522387
0.00455435
0.00209207
-0.278142
-0.273274
-0.268937
-0.262097
-0.253362
-0.243368
-0.231269
-0.216445
-0.198975
-0.179223
-0.157632
-0.134769
-0.111323
-0.0880942
-0.0658881
-0.0455098
-0.0271226
-0.0139434
-0.00575692
-0.00435177
-0.00917583
-0.0211811
-0.0407603
-0.0673401
-0.0988558
-0.132189
-0.163632
-0.18278
-0.20329
-0.199968
-0.180681
-0.151438
-0.118546
-0.0867924
-0.058724
-0.0353137
-0.0164386
-0.00150207
0.00931412
0.0143636
0.0129012
0.0064825
-0.006635
-0.0231174
-0.0452085
-0.0774497
-0.11339
-0.135811
-0.133231
-0.11017
-0.0807911
-0.0538823
-0.0333633
-0.0181373
-0.00816554
-0.000674765
0.00304454
0.00524717
0.00462007
0.00211316
-0.259732
-0.265569
-0.260582
-0.251337
-0.24207
-0.232549
-0.221386
-0.207794
-0.191744
-0.173554
-0.153637
-0.132479
-0.110645
-0.0888101
-0.067733
-0.0480949
-0.0310374
-0.0178262
-0.00982427
-0.00728435
-0.0108114
-0.0212937
-0.0392203
-0.0641598
-0.0939773
-0.125523
-0.155162
-0.177355
-0.190962
-0.186613
-0.167645
-0.139859
-0.109021
-0.0793163
-0.0528815
-0.0305089
-0.0121865
0.00263249
0.0138592
0.0202649
0.0208026
0.018751
0.00459031
-0.0119849
-0.0362503
-0.0731515
-0.114118
-0.138989
-0.136329
-0.110658
-0.0802334
-0.0532236
-0.032909
-0.0179238
-0.00810633
-0.000736179
0.00296116
0.00518935
0.00459278
0.00208805
-0.240383
-0.248203
-0.243596
-0.234462
-0.225739
-0.217027
-0.206979
-0.194758
-0.180315
-0.163978
-0.146138
-0.127197
-0.107623
-0.0879967
-0.0689877
-0.0512272
-0.0359504
-0.0239604
-0.0162912
-0.0136573
-0.0167638
-0.0262535
-0.0425002
-0.0650547
-0.0919314
-0.120139
-0.146223
-0.165261
-0.174868
-0.16961
-0.151888
-0.126735
-0.0989318
-0.0719375
-0.0475245
-0.0264156
-0.00886316
0.00564923
0.0172707
0.0248106
0.0266718
0.0208055
0.013542
-0.00232832
-0.0283758
-0.0693882
-0.114307
-0.14024
-0.135726
-0.109228
-0.0786594
-0.0521311
-0.0323179
-0.0177252
-0.00810927
-0.000900482
0.00277414
0.00500636
0.00445874
0.00202228
-0.222049
-0.230605
-0.227499
-0.21936
-0.210672
-0.202453
-0.193388
-0.182509
-0.169675
-0.155168
-0.139347
-0.122565
-0.105218
-0.087804
-0.0709062
-0.0552205
-0.0415064
-0.0307131
-0.0237354
-0.0213452
-0.0241454
-0.0326254
-0.0469841
-0.0666802
-0.0898882
-0.113868
-0.13556
-0.150964
-0.157546
-0.152142
-0.136457
-0.114347
-0.0896147
-0.0651679
-0.0426341
-0.0227241
-0.00584114
0.00834588
0.0201326
0.0284736
0.031792
0.0286483
0.0220593
0.00631374
-0.0221105
-0.0668763
-0.113969
-0.139577
-0.133469
-0.106635
-0.0764881
-0.05076
-0.0316023
-0.0174915
-0.00811227
-0.00111055
0.00253161
0.00472948
0.0042471
0.00193011
-0.204982
-0.2134
-0.211452
-0.204242
-0.196273
-0.188683
-0.180584
-0.171033
-0.159772
-0.14702
-0.133113
-0.118371
-0.103135
-0.0878196
-0.0729269
-0.0590701
-0.0469597
-0.0373779
-0.0311087
-0.0288305
-0.0310821
-0.0382413
-0.0503683
-0.0668828
-0.0861857
-0.105959
-0.123588
-0.135888
-0.140419
-0.135306
-0.121663
-0.102405
-0.0805771
-0.0585987
-0.0379481
-0.0193009
-0.00312725
0.0106683
0.0224325
0.0313372
0.0361331
0.0356149
0.0302968
0.0146946
-0.0162748
-0.0641563
-0.112346
-0.137204
-0.129642
-0.1029
-0.0736771
-0.0490752
-0.0307496
-0.017218
-0.00811607
-0.00135617
0.00224725
0.00438163
0.00398058
0.00182043
-0.18854
-0.19674
-0.195701
-0.189554
-0.182434
-0.175595
-0.168443
-0.160136
-0.150357
-0.139257
-0.127136
-0.114288
-0.101011
-0.0876522
-0.0746538
-0.0625497
-0.0519462
-0.0434911
-0.0378337
-0.0355548
-0.0371195
-0.0428099
-0.0526018
-0.0659522
-0.0815564
-0.0975043
-0.11152
-0.121115
-0.124191
-0.119502
-0.107787
-0.0911989
-0.0720969
-0.0524471
-0.033596
-0.0162186
-0.000790258
0.0125819
0.0241739
0.033389
0.0393728
0.0411661
0.037699
0.0226909
-0.0102892
-0.0604743
-0.109095
-0.13282
-0.123949
-0.097931
-0.0702184
-0.0470826
-0.0297618
-0.0169009
-0.00812083
-0.00163187
0.00192322
0.00397749
0.00366999
0.00169604
-0.17295
-0.180868
-0.180521
-0.175396
-0.169193
-0.163181
-0.156949
-0.14978
-0.141373
-0.131807
-0.121337
-0.110233
-0.0987623
-0.0872101
-0.0759649
-0.0654679
-0.0562246
-0.0487745
-0.0436542
-0.0413477
-0.0422329
-0.0465132
-0.0541215
-0.0645785
-0.0768309
-0.0893154
-0.10018
-0.107422
-0.109397
-0.105168
-0.0951749
-0.0809394
-0.064267
-0.0467514
-0.0295982
-0.0134878
0.00113703
0.0140508
0.0253567
0.0346324
0.0413922
0.045034
0.0435367
0.0296136
-0.00450719
-0.055902
-0.103893
-0.126122
-0.116286
-0.0917767
-0.0661607
-0.0448025
-0.0286435
-0.0165354
-0.00812403
-0.00193021
0.00156307
0.00353179
0.0033236
0.00155901
-0.158422
-0.165855
-0.166034
-0.161858
-0.156569
-0.151386
-0.146046
-0.139952
-0.132794
-0.124627
-0.115667
-0.106155
-0.0963145
-0.0864159
-0.0767535
-0.0677002
-0.0596774
-0.0531307
-0.0484988
-0.0461717
-0.0464456
-0.0494642
-0.0551391
-0.0630531
-0.0723533
-0.0817733
-0.0899819
-0.0952702
-0.0963614
-0.0925129
-0.0839385
-0.071691
-0.0571407
-0.0415625
-0.0259999
-0.0111296
0.00263513
0.0150305
0.0259806
0.0351207
0.042172
0.0470284
0.0472151
0.0346162
0.00043294
-0.0505167
-0.0963749
-0.117071
-0.106737
-0.0845839
-0.061592
-0.0422702
-0.0274039
-0.0161177
-0.00812187
-0.00224277
0.00117215
0.0030586
0.0029523
0.00141143
-0.144789
-0.151704
-0.152317
-0.148998
-0.144575
-0.14019
-0.135692
-0.130578
-0.124566
-0.117676
-0.110089
-0.102015
-0.0936535
-0.0852219
-0.0769725
-0.06921
-0.062279
-0.056542
-0.0523515
-0.0500168
-0.0497662
-0.0516972
-0.0557147
-0.0614705
-0.0682848
-0.0750425
-0.0811175
-0.0847704
-0.0851023
-0.0815078
-0.0740593
-0.0634647
-0.0507438
-0.0369042
-0.0228243
-0.00915407
0.00370705
0.0154997
0.0260309
0.0348967
0.0418822
0.0471979
0.0484335
0.0371456
0.00425996
-0.0441347
-0.0862589
-0.101723
-0.0955167
-0.0766044
-0.0566431
-0.0395361
-0.0260568
-0.0156455
-0.00810928
-0.00256052
0.000757329
0.00257001
0.0025642
0.00125527
-0.132025
-0.138468
-0.139425
-0.136854
-0.13322
-0.129583
-0.125862
-0.121638
-0.116657
-0.110917
-0.104564
-0.0977781
-0.0907322
-0.0836077
-0.0766134
-0.0699959
-0.0640329
-0.0590151
-0.0552231
-0.0528996
-0.0522183
-0.0532436
-0.0558861
-0.0598677
-0.0646868
-0.0697251
-0.0735785
-0.0758102
-0.07547
-0.0720269
-0.0654602
-0.0562271
-0.0450714
-0.0327817
-0.0200816
-0.00756768
0.0043658
0.0154703
0.0254956
0.0339803
0.040674
0.0458413
0.0473819
0.0373042
0.00722358
-0.0365459
-0.074036
-0.0882604
-0.0834529
-0.0682011
-0.051478
-0.0366614
-0.0246201
-0.0151184
-0.00808028
-0.00287411
0.000327098
0.00207608
0.00216806
0.0010929
-0.120219
-0.126164
-0.12736
-0.12543
-0.122505
-0.119548
-0.116533
-0.113108
-0.109044
-0.104326
-0.0990695
-0.0934261
-0.0875441
-0.0815738
-0.0756848
-0.0700745
-0.0649641
-0.060584
-0.0571555
-0.0548674
-0.0538507
-0.0541478
-0.0556786
-0.0582071
-0.0613197
-0.0646173
-0.0670762
-0.0681781
-0.0672651
-0.0639072
-0.0580303
-0.0499173
-0.0401004
-0.029188
-0.0177681
-0.00636753
0.00462956
0.0149772
0.0244006
0.0324071
0.0386745
0.0433501
0.0446703
0.0357846
0.009745
-0.0279902
-0.0604866
-0.0739078
-0.0712663
-0.0597811
-0.04627
-0.0337121
-0.0231143
-0.0145377
-0.00802855
-0.00317425
-0.000108409
0.00158558
0.00177255
0.000927678
-0.109314
-0.114743
-0.116104
-0.11472
-0.112421
-0.110074
-0.107686
-0.104966
-0.101709
-0.0978891
-0.0935963
-0.0889571
-0.0840957
-0.0791355
-0.0742124
-0.0694827
-0.0651206
-0.0613066
-0.0582133
-0.0559863
-0.0547239
-0.054455
-0.0551102
-0.0564803
-0.0581026
-0.0601693
-0.061474
-0.0616711
-0.060286
-0.0569775
-0.051648
-0.0444628
-0.0357946
-0.0261059
-0.0158696
-0.00553816
0.0045241
0.0140661
0.0228036
0.0302489
0.0360152
0.0400853
0.0409839
0.0333428
0.0118365
-0.0194748
-0.0471103
-0.0600264
-0.0597209
-0.0517161
-0.0411765
-0.0307514
-0.0215611
-0.0139069
-0.00794808
-0.00345199
-0.000538087
0.00110671
0.00138601
0.000762863
-0.0992224
-0.104172
-0.105646
-0.10472
-0.102962
-0.101146
-0.0993064
-0.0971998
-0.0946428
-0.0916022
-0.088147
-0.0843807
-0.0804058
-0.0763222
-0.0722376
-0.0682739
-0.0645665
-0.0612551
-0.0584727
-0.0563305
-0.0549026
-0.0542102
-0.0542078
-0.0547725
-0.0557834
-0.0563445
-0.0566361
-0.0561059
-0.054345
-0.0510758
-0.0461933
-0.0397857
-0.0321086
-0.0235086
-0.0143629
-0.0050527
0.00408501
0.0127935
0.0207901
0.0276138
0.032841
0.0363114
0.0367944
0.0303639
0.0131073
-0.0122094
-0.0353505
-0.0476555
-0.0493481
-0.044266
-0.0363182
-0.0278351
-0.0199828
-0.0132313
-0.00783371
-0.00369913
-0.000950696
0.000647276
0.0010161
0.00060194
-0.0899296
-0.0944285
-0.0959629
-0.09541
-0.094111
-0.092752
-0.091382
-0.0897994
-0.0878408
-0.0854681
-0.0827322
-0.0797165
-0.0765043
-0.0731754
-0.0698135
-0.0665126
-0.063376
-0.0605106
-0.0580174
-0.0559806
-0.0544554
-0.0534572
-0.0529487
-0.0528228
-0.0529079
-0.0528135
-0.0523924
-0.0513147
-0.0492762
-0.0460553
-0.0415519
-0.0358061
-0.0289902
-0.0213612
-0.0132175
-0.00487636
0.00335724
0.0112285
0.0184604
0.0246225
0.0292942
0.0322065
0.0323434
0.0269583
0.0132723
-0.00685517
-0.0259382
-0.0373251
-0.0403785
-0.0375635
-0.0317769
-0.0250104
-0.0184015
-0.0125179
-0.00768164
-0.00390863
-0.00133559
0.000214645
0.000669246
0.000448356
-0.0814067
-0.0854683
-0.0870163
-0.086763
-0.0858481
-0.0848745
-0.0839002
-0.0827581
-0.0813036
-0.0794953
-0.0773696
-0.0749922
-0.0724298
-0.0697449
-0.0670017
-0.0642709
-0.0616306
-0.0591609
-0.0569377
-0.0550236
-0.0534596
-0.0522562
-0.0513798
-0.0507414
-0.0502138
-0.0495738
-0.0486337
-0.0471626
-0.0449374
-0.0417848
-0.0376163
-0.0324442
-0.0263829
-0.0196219
-0.0123959
-0.0049674
0.00239481
0.00944332
0.015907
0.0214039
0.0255225
0.0279276
0.0278028
0.0232796
0.012468
-0.00335313
-0.018851
-0.0290378
-0.0328171
-0.0316508
-0.0276033
-0.0223164
-0.016839
-0.0117752
-0.00748988
-0.00407481
-0.00168342
-0.00018441
0.000350517
0.000305234
-0.0735863
-0.0772376
-0.0787681
-0.0787515
-0.0781527
-0.0774982
-0.0768508
-0.0760723
-0.0750353
-0.0736974
-0.0720825
-0.0702415
-0.068227
-0.0660869
-0.0638694
-0.0616268
-0.0594167
-0.0572983
-0.0553275
-0.0535504
-0.0519967
-0.0506722
-0.0495501
-0.048568
-0.0476239
-0.0465779
-0.0452728
-0.0435375
-0.0412069
-0.0381484
-0.0342874
-0.0296221
-0.024228
-0.0182445
-0.0118559
-0.00527868
0.00125351
0.00750866
0.0132282
0.0180748
0.0216625
0.0236317
0.0233439
0.0195539
0.0110442
-0.00128299
-0.0137027
-0.0225496
-0.0265599
-0.0265178
-0.023826
-0.0197847
-0.0153161
-0.0110133
-0.00725845
-0.00419369
-0.00198669
-0.000543969
6.37376e-05
0.00017505
-0.0664174
-0.0696921
-0.0711809
-0.0713455
-0.0710011
-0.0706056
-0.0702228
-0.0697388
-0.0690421
-0.06809
-0.066897
-0.0655015
-0.0639441
-0.0622609
-0.0604871
-0.0586605
-0.0568225
-0.0550158
-0.0532809
-0.051651
-0.050147
-0.0487723
-0.0475065
-0.0463067
-0.0450975
-0.0437802
-0.0422383
-0.0403459
-0.037981
-0.0350437
-0.0314741
-0.0272644
-0.0224652
-0.0171794
-0.011552
-0.00576118
-8.60225e-06
0.00549523
0.0105138
0.0147425
0.0178396
0.0194577
0.0191044
0.0159667
0.00930476
-0.000225752
-0.0100648
-0.0175534
-0.0214587
-0.0221259
-0.0204569
-0.0174403
-0.0138526
-0.0102431
-0.00698954
-0.00426313
-0.00224008
-0.000859266
-0.000188539
5.95048e-05
-0.0598616
-0.0627869
-0.0642134
-0.0645115
-0.0643679
-0.0641783
-0.0640053
-0.0637551
-0.0633304
-0.0626899
-0.0618404
-0.0608105
-0.0596304
-0.0583271
-0.0569254
-0.0554515
-0.0539345
-0.0524043
-0.0508895
-0.0494133
-0.0479904
-0.0466231
-0.0452962
-0.0439796
-0.0426186
-0.0411436
-0.0394712
-0.0375101
-0.0351714
-0.0323811
-0.0290936
-0.0252999
-0.0210349
-0.0163763
-0.0114379
-0.00636606
-0.00133428
0.00347041
0.00783809
0.0115021
0.0141638
0.0155122
0.0151738
0.0126272
0.0074551
0.000145943
-0.00756417
-0.0137643
-0.0173578
-0.0184211
-0.0174953
-0.0153008
-0.0124659
-0.00947624
-0.00668739
-0.00428303
-0.00244064
-0.00112705
-0.000404975
-4.04407e-05
-0.0538712
-0.0564736
-0.0578234
-0.058216
-0.0582274
-0.0581978
-0.0581871
-0.0581183
-0.057907
-0.0575137
-0.0569399
-0.056206
-0.0553344
-0.0543442
-0.0532523
-0.0520763
-0.0508355
-0.0495503
-0.04824
-0.0469207
-0.0456023
-0.0442861
-0.0429629
-0.0416074
-0.0401832
-0.0386414
-0.0369237
-0.0349653
-0.0327026
-0.0300824
-0.027071
-0.0236617
-0.0198797
-0.0157846
-0.0114674
-0.00704715
-0.00267103
0.00149523
0.00526987
0.00843174
0.0107167
0.0118664
0.0116002
0.00959011
0.00562222
6.64535e-05
-0.00590534
-0.0109332
-0.0141057
-0.0153406
-0.01493
-0.0133771
-0.0111711
-0.00872451
-0.00635812
-0.0042554
-0.00258773
-0.0013458
-0.000585326
-0.000124511
-0.0483991
-0.050707
-0.0519714
-0.0524265
-0.0525542
-0.0526458
-0.0527572
-0.0528254
-0.0527776
-0.0525769
-0.052221
-0.0517239
-0.0511015
-0.0503671
-0.0495317
-0.048606
-0.0476023
-0.0465337
-0.0454126
-0.04425
-0.0430515
-0.0418176
-0.0405426
-0.0392098
-0.0377918
-0.0362544
-0.0345581
-0.0326586
-0.0305116
-0.0280798
-0.0253399
-0.0222882
-0.0189448
-0.0153562
-0.0115961
-0.00776156
-0.00397425
-0.000379174
0.00286569
0.00558173
0.00755167
0.00856254
0.00840343
0.00687286
0.00387783
-0.000298002
-0.00485884
-0.00885672
-0.011565
-0.0128169
-0.0127411
-0.0116732
-0.00997997
-0.00799924
-0.0060093
-0.00418421
-0.00268298
-0.00151579
-0.000730368
-0.000193036
-0.0434066
-0.0454463
-0.0466196
-0.0471115
-0.0473234
-0.0475039
-0.047704
-0.0478725
-0.0479468
-0.0478932
-0.0477066
-0.0473961
-0.0469731
-0.046446
-0.0458214
-0.0451052
-0.0443044
-0.0434267
-0.0424796
-0.0414696
-0.0404003
-0.0392706
-0.0380771
-0.0368103
-0.0354493
-0.0339697
-0.0323452
-0.030547
-0.0285454
-0.0263152
-0.0238417
-0.0211241
-0.0181798
-0.0150463
-0.0117828
-0.00847006
-0.00520716
-0.00211494
0.00066695
0.0029935
0.00470183
0.00561865
0.00558284
0.00447212
0.0022611
-0.000831532
-0.00425152
-0.00737224
-0.00961461
-0.0107823
-0.0109023
-0.0101873
-0.00890104
-0.00731094
-0.0056495
-0.00407521
-0.00273002
-0.00163908
-0.000841818
-0.000246834
-0.0388562
-0.0406523
-0.041732
-0.0422404
-0.0425109
-0.0427539
-0.0430157
-0.0432546
-0.0434174
-0.0434734
-0.0434161
-0.0432509
-0.0429854
-0.0426249
-0.0421725
-0.0416308
-0.0410029
-0.0402929
-0.0395044
-0.038641
-0.0377041
-0.036692
-0.0356021
-0.034432
-0.0331635
-0.0317795
-0.0302631
-0.0285963
-0.0267606
-0.0247399
-0.0225259
-0.0201205
-0.0175395
-0.014814
-0.011992
-0.00913951
-0.00633878
-0.00368705
-0.00130126
0.000694653
0.00218449
0.00303505
0.00312344
0.00237251
0.000790812
-0.00145246
-0.00397616
-0.00635101
-0.0081493
-0.00917016
-0.00938277
-0.00891214
-0.00793926
-0.00666875
-0.00528772
-0.00393554
-0.00273416
-0.00171928
-0.000922232
-0.000287104
-0.034713
-0.036289
-0.0372753
-0.0377851
-0.0380937
-0.0383783
-0.0386804
-0.0389662
-0.0391905
-0.0393261
-0.0393655
-0.0393117
-0.0391694
-0.0389415
-0.0386289
-0.0382319
-0.0377509
-0.0371872
-0.0365423
-0.035817
-0.0350124
-0.0341265
-0.0331575
-0.0320971
-0.0309426
-0.0296795
-0.0282955
-0.02678
-0.0251223
-0.0233136
-0.02135
-0.0192357
-0.0169851
-0.0146243
-0.0121929
-0.00974437
-0.00734572
-0.00507702
-0.00302952
-0.00130588
5.07589e-06
0.000799271
0.00100105
0.000552147
-0.000525206
-0.00210189
-0.00393251
-0.00568782
-0.00707661
-0.00791672
-0.00814865
-0.00783614
-0.00709608
-0.00608008
-0.00493285
-0.00377324
-0.00270204
-0.00176132
-0.00097488
-0.000315318
-0.0309463
-0.0323241
-0.0332194
-0.0337194
-0.0340502
-0.0343604
-0.0346861
-0.0350004
-0.0352652
-0.0354566
-0.0355669
-0.0355971
-0.0355501
-0.035427
-0.0352273
-0.0349496
-0.0345928
-0.0341562
-0.0336397
-0.0330426
-0.0323646
-0.0316037
-0.0307562
-0.0298205
-0.0287949
-0.0276682
-0.0264311
-0.0250778
-0.0236035
-0.0220041
-0.0202794
-0.018435
-0.0164839
-0.0144484
-0.0123611
-0.0102654
-0.00821494
-0.00627423
-0.00451453
-0.00301618
-0.0018582
-0.00110674
-0.000810734
-0.00101199
-0.0016897
-0.00274806
-0.00402524
-0.00528533
-0.0063135
-0.00696296
-0.00716504
-0.00694416
-0.00636969
-0.00555031
-0.00459313
-0.00359678
-0.00264109
-0.00177107
-0.00100359
-0.000333134
-0.0275285
-0.0287286
-0.0295367
-0.0300191
-0.0303604
-0.0306838
-0.0310208
-0.0313498
-0.0316391
-0.0318679
-0.0320286
-0.0321213
-0.0321471
-0.0321062
-0.031997
-0.0318174
-0.031565
-0.0312382
-0.0308354
-0.0303555
-0.0297967
-0.0291574
-0.0284338
-0.0276227
-0.0267315
-0.0257471
-0.0246629
-0.0234755
-0.0221834
-0.0207867
-0.0192871
-0.0176911
-0.0160105
-0.0142642
-0.0124789
-0.0106897
-0.00893926
-0.00727842
-0.00576353
-0.00445549
-0.00341425
-0.00269235
-0.00233132
-0.00234164
-0.00270827
-0.00337181
-0.00421106
-0.00507055
-0.00578993
-0.0062546
-0.00639696
-0.00621857
-0.00575536
-0.00508262
-0.00427568
-0.00341445
-0.00255916
-0.00175497
-0.00101254
-0.000342308
-0.0244349
-0.0254766
-0.0262024
-0.0266624
-0.0270055
-0.0273333
-0.0276725
-0.0280062
-0.028308
-0.0285603
-0.0287558
-0.0288939
-0.0289747
-0.0289977
-0.0289608
-0.0288613
-0.0286964
-0.0284636