/*--------------------------------*- C++ -*----------------------------------*\
| =========                 |                                                 |
| \\      /  F ield         | OpenFOAM: The Open Source CFD Toolbox           |
|  \\    /   O peration     | Version:  2512                                  |
|   \\  /    A nd           | Website:  www.openfoam.com                      |
|    \\/     M anipulation  |                                                 |
\*---------------------------------------------------------------------------*/
FoamFile
{
    version     2.0;
    format      ascii;
    arch        "LSB;label=32;scalar=64";
    class       surfaceScalarField;
    location    "57";
    object      phi;
}
// * * * * * * * * * * * * * * * * * * * * * * * * * * * * * * * * * * * * * //

dimensions      [0 3 -1 0 0 0 0];

oriented        oriented;

internalField   nonuniform List<scalar> 
26232
(
7.07364e-05
0.000973473
-0.00104421
0.000457421
0.0018921
-0.00227878
0.00130982
0.00191408
-0.00276648
0.00276696
0.00108115
-0.00253829
0.00496745
-0.000582715
-0.00161778
0.00805046
-0.00306503
-1.7978e-05
0.0121526
-0.00635683
0.00225465
0.0173944
-0.0104439
0.00520218
0.0238665
-0.0152951
0.008823
0.0316121
-0.020853
0.0131074
0.0406114
-0.0270287
0.0180294
0.0507711
-0.0337008
0.0235411
0.0619218
-0.0407203
0.0295695
0.0738252
-0.0479202
0.0360168
0.0861886
-0.0551269
0.0427635
0.0986879
-0.0621742
0.049675
0.110994
-0.0689152
0.0566093
0.1228
-0.075234
0.0634281
0.133849
-0.08105
0.0700006
0.143951
-0.0863362
0.0762338
0.152993
-0.0910648
0.0820227
0.160916
-0.095369
0.0874463
0.167579
-0.0989739
0.0923105
-0.102737
0.097575
0.172742
0.000104829
0.000868644
0.000629198
0.00136773
0.00175724
0.000786036
0.00365977
-0.00082138
0.00650162
-0.00342457
0.0104364
-0.00699985
0.0155935
-0.0115139
0.0220578
-0.0169082
0.029849
-0.0230863
0.0389046
-0.0299086
0.0490717
-0.0371959
0.0601115
-0.0447405
0.0717158
-0.0523246
0.0835347
-0.059739
0.0952097
-0.0668019
0.106409
-0.0733737
0.11686
-0.0793659
0.126371
-0.0847451
0.13485
-0.0895287
0.142292
-0.093778
0.148801
-0.0975742
0.154483
-0.101051
0.159685
-0.104177
-0.107501
0.164449
0.000162824
0.00070582
0.000885101
0.000645452
0.00237996
-0.000708822
0.00484293
-0.00328435
0.00845102
-0.00703266
0.0133468
-0.0118956
0.0196141
-0.0177812
0.0272525
-0.0245466
0.0361585
-0.0319923
0.0461209
-0.039871
0.056834
-0.047909
0.0679279
-0.0558344
0.0790093
-0.0634061
0.0897065
-0.0704363
0.0997104
-0.0768059
0.108805
-0.0824685
0.116885
-0.0874454
0.123952
-0.0918122
0.130102
-0.0956793
0.135499
-0.0991742
0.140337
-0.102412
0.144804
-0.105519
0.149108
-0.10848
-0.111676
0.153283
0.000245453
0.000460367
0.00122591
-0.000335007
0.00317316
-0.00265607
0.00629185
-0.00640304
0.0107449
-0.0114857
0.0166241
-0.0177748
0.0239184
-0.0250755
0.0324917
-0.0331199
0.0420819
-0.0415824
0.0523242
-0.0501132
0.0627963
-0.0583811
0.0730748
-0.0661129
0.0827898
-0.073121
0.0916687
-0.0793152
0.0995605
-0.0846977
0.106438
-0.0893463
0.112382
-0.0933892
0.117546
-0.0969764
0.122123
-0.100256
0.126302
-0.103354
0.130257
-0.106366
0.134108
-0.10937
0.137983
-0.112355
-0.115565
0.141872
0.000350695
0.000109672
0.0016417
-0.00162601
0.00410735
-0.00512172
0.00793621
-0.0102319
0.013239
-0.0167885
0.0200083
-0.0245442
0.02809
-0.0331572
0.0371824
-0.0422123
0.0468702
-0.0512702
0.0566855
-0.0599285
0.0661802
-0.0678759
0.0749907
-0.0749234
0.0828807
-0.081011
0.089756
-0.0861905
0.0956518
-0.0905935
0.100699
-0.0943935
0.105081
-0.0977711
0.108992
-0.100887
0.112605
-0.103869
0.116058
-0.106807
0.119451
-0.109759
0.122842
-0.11276
0.126291
-0.115804
-0.119036
0.129761
0.000475028
-0.000365357
0.00211545
-0.00326644
0.00513501
-0.00814128
0.00967149
-0.0147684
0.0157375
-0.0228545
0.0231799
-0.0319865
0.0316733
-0.0416507
0.0407612
-0.0513002
0.0499328
-0.0604418
0.0587132
-0.068709
0.0667388
-0.0759014
0.0737988
-0.0819835
0.0798408
-0.0870529
0.084942
-0.0912917
0.0892637
-0.0949152
0.0930008
-0.0981306
0.0963411
-0.101111
0.0994405
-0.103987
0.102414
-0.106843
0.105341
-0.109734
0.108271
-0.112689
0.111234
-0.115723
0.114262
-0.118833
-0.122095
0.117321
0.000614078
-0.000979435
0.00262465
-0.00527701
0.00619452
-0.0117111
0.011369
-0.0199429
0.0180175
-0.029503
0.025812
-0.039781
0.0342662
-0.0501048
0.0428267
-0.0598607
0.0509828
-0.0685979
0.0583556
-0.0760819
0.0647425
-0.0822883
0.0701133
-0.0873542
0.0745702
-0.0915098
0.078291
-0.0950126
0.0814751
-0.0980993
0.0843038
-0.100959
0.0869202
-0.103728
0.0894262
-0.106493
0.0918884
-0.109305
0.0943482
-0.112194
0.096831
-0.115171
0.099351
-0.118243
0.101924
-0.121406
-0.124693
0.104522
0.000762139
-0.00174157
0.00314132
-0.00765619
0.00721301
-0.0157828
0.0128874
-0.0256173
0.019859
-0.0364746
0.027629
-0.047551
0.0356026
-0.0580784
0.04322
-0.0674781
0.0500659
-0.0754438
0.0559222
-0.0819382
0.0607609
-0.087127
0.064694
-0.0912873
0.0679081
-0.0947239
0.0706054
-0.0977099
0.0729644
-0.100458
0.0751217
-0.103117
0.0771717
-0.105778
0.0791741
-0.108495
0.0811653
-0.111296
0.0831666
-0.114195
0.085191
-0.117196
0.0872461
-0.120298
0.0893403
-0.1235
-0.126807
0.0914544
0.000911757
-0.00265333
0.00363228
-0.0103767
0.00811123
-0.0202618
0.0140894
-0.0315955
0.0210806
-0.0434657
0.0284565
-0.054927
0.0355959
-0.0652178
0.0420217
-0.0739039
0.0474727
-0.0808948
0.0519001
-0.0863656
0.0554116
-0.0906385
0.0581969
-0.0940726
0.060462
-0.096989
0.0623868
-0.0996347
0.064107
-0.102178
0.0657143
-0.104724
0.0672655
-0.107329
0.0687939
-0.110023
0.0703186
-0.112821
0.0718513
-0.115728
0.0733991
-0.118743
0.0749667
-0.121866
0.0765577
-0.125091
-0.12841
0.0781606
0.00105359
-0.00370692
0.0040611
-0.0133842
0.00881204
-0.0250127
0.0148615
-0.0376449
0.0215682
-0.0501725
0.0282446
-0.0616033
0.0343262
-0.0712995
0.0394769
-0.0790545
0.0436
-0.0850179
0.0467821
-0.0895477
0.0492092
-0.0930656
0.0510917
-0.0959551
0.0526155
-0.0985128
0.0539204
-0.10094
0.0551
-0.103358
0.0562112
-0.105835
0.0572863
-0.108404
0.0583437
-0.111081
0.0593942
-0.113872
0.0604445
-0.116778
0.0614991
-0.119798
0.0625608
-0.122927
0.0636307
-0.126161
-0.129483
0.0647036
0.00117763
-0.00488455
0.00439324
-0.0165998
0.00925227
-0.0298718
0.0151319
-0.0435245
0.0212895
-0.0563301
0.0270554
-0.0673692
0.031984
-0.0762281
0.0358974
-0.0829679
0.0388378
-0.0879583
0.0409765
-0.0916865
0.0425271
-0.0946161
0.0436846
-0.0971126
0.0445982
-0.0994263
0.0453676
-0.101709
0.0460531
-0.104044
0.0466882
-0.10647
0.0472914
-0.109007
0.047873
-0.111663
0.0484399
-0.114439
0.0489965
-0.117335
0.0495456
-0.120347
0.0500888
-0.123471
0.0506247
-0.126697
-0.130011
0.0511521
0.00127716
-0.00616171
0.00460379
-0.0199265
0.0093933
-0.0346613
0.014879
-0.0490103
0.0202864
-0.0617374
0.02503
-0.0721128
0.0288109
-0.080009
0.0315942
-0.0857512
0.033518
-0.089882
0.034792
-0.0929604
0.0356221
-0.0954463
0.0361714
-0.0976619
0.0365508
-0.0998057
0.0368272
-0.101986
0.0370377
-0.104254
0.0372017
-0.106634
0.03733
-0.109135
0.0374289
-0.111761
0.0375032
-0.114513
0.0375565
-0.117388
0.0375911
-0.120382
0.037608
-0.123487
0.0376054
-0.126694
0.0375849
-0.12999
-0.000192637
0.00105834
-0.000865701
-0.000678714
0.00254163
-0.00205556
-0.00140013
0.00358501
-0.0028636
-0.00231096
0.00428353
-0.0033727
-0.0033742
0.00471869
-0.00365546
-0.00456055
0.00496034
-0.00377398
-0.00584741
0.00506424
-0.00377738
-0.00721761
0.00507064
-0.00370045
-0.00865822
0.00500452
-0.00356391
-0.0101593
0.00487718
-0.00337605
-0.0117129
0.00468869
-0.0031351
-0.0133117
0.00443066
-0.00283189
-0.0149482
0.00408883
-0.00245233
-0.0166139
0.00364516
-0.00197943
-0.0182987
0.00307949
-0.00139472
-0.0199932
0.00237094
-0.00067642
-0.0216775
0.0015003
0.00018394
-0.0233364
0.000447731
0.00121121
-0.0249561
-0.000796813
0.00241647
-0.0265223
-0.00224354
0.0038098
-0.028027
-0.00389261
0.00539733
-0.0294732
-0.00573533
0.00718153
-0.0308868
-0.00775195
0.00916547
-0.0099084
-0.0323308
0.0113524
-0.000161152
0.00121949
-0.000577442
0.00295792
-0.00120532
0.00421289
-0.0020079
0.00508611
-0.00295329
0.00566409
-0.00401455
0.0060216
-0.00516954
0.00621923
-0.00640057
0.00630168
-0.00769387
0.00629782
-0.00903881
0.00622211
-0.010427
0.00607692
-0.0118516
0.00585524
-0.013306
0.0055432
-0.0147831
0.00512228
-0.0162746
0.00457101
-0.0177702
0.00386652
-0.0192558
0.00298588
-0.0207153
0.00190725
-0.0221223
0.000610218
-0.023469
-0.000896832
-0.0247337
-0.00262796
-0.025909
-0.00456002
-0.0270122
-0.00664877
-0.00879412
-0.0281265
-0.00012022
0.00133971
-0.000443184
0.00328089
-0.000941564
0.00471127
-0.00158812
0.00573266
-0.00235613
0.0064321
-0.00322051
0.00688598
-0.00415865
0.00715737
-0.00515087
0.0072939
-0.00618052
0.00732747
-0.00723372
0.00727532
-0.00829891
0.00714211
-0.00936609
0.00692242
-0.010426
0.00660313
-0.0114693
0.00616557
-0.0124855
0.0055872
-0.013462
0.00484306
-0.0143833
0.00390712
-0.0152298
0.00275373
-0.0159781
0.00135859
-0.0165927
-0.000282319
-0.0170482
-0.0021724
-0.0173151
-0.00429318
-0.0173784
-0.00658545
-0.00892759
-0.0172449
-7.38395e-05
0.00141355
-0.000287677
0.00349472
-0.000629938
0.00505353
-0.00108246
0.00618518
-0.00162314
0.00697278
-0.00222808
0.00749091
-0.00287315
0.00780244
-0.00353523
0.00795597
-0.00419274
0.00798498
-0.00482593
0.00790851
-0.00541666
0.00773284
-0.00594798
0.00745374
-0.00640347
0.00705862
-0.00676653
0.00652863
-0.00701961
0.00584027
-0.00714339
0.00496684
-0.00711613
0.00387986
-0.00691251
0.00255011
-0.00650051
0.000946587
-0.00584754
-0.000935281
-0.00490292
-0.00311703
-0.00361754
-0.00557856
-0.00194864
-0.00825434
-0.0109412
6.49657e-05
-2.70704e-05
0.00144062
-0.000126435
0.00359409
-0.000299349
0.00522645
-0.000534553
0.00642039
-0.000813322
0.00725155
-0.00111196
0.00778956
-0.00140388
0.00809436
-0.00166125
0.00821334
-0.0018559
0.00817963
-0.00195988
0.00801249
-0.00194551
0.00771847
-0.00178515
0.00729337
-0.00145076
0.00672423
-0.000913389
0.00599126
-0.000142716
0.0050696
0.000893321
0.0039308
0.00222893
0.00254426
0.00390143
0.000877609
0.00594111
-0.0010931
0.00840014
-0.00339431
0.011323
-0.00603987
0.0147665
-0.00902212
0.0187891
-0.0122769
-0.0157355
0.0235835
1.48556e-05
0.00142576
2.38209e-05
0.00358512
1.86721e-05
0.0052316
6.51005e-06
0.00643255
5.24197e-06
0.00725282
3.99154e-05
0.00775488
0.000140463
0.00799381
0.000340501
0.0080133
0.000676042
0.00784409
0.00118493
0.0075036
0.00190661
0.00699679
0.00288221
0.00631778
0.00415473
0.0054517
0.00576935
0.00437664
0.00777342
0.00306553
0.0102164
0.00148784
0.0131488
-0.000388114
0.0166196
-0.00259324
0.0206804
-0.00515394
0.0253771
-0.00809094
0.0307497
-0.0114125
0.0368516
-0.0151241
0.0436733
-0.0190986
-0.0236121
0.0515499
4.69343e-05
0.00137883
0.000147563
0.0034845
0.000293686
0.00508547
0.000494094
0.00623214
0.000768284
0.00697863
0.00114432
0.00737885
0.00165721
0.00748093
0.00234746
0.00732305
0.00326032
0.00693124
0.00444509
0.00631882
0.00595488
0.00548701
0.00784633
0.00442632
0.0101796
0.00311847
0.0130178
0.00153838
0.0164265
-0.00034315
0.0204726
-0.00255824
0.0252214
-0.00513694
0.0307346
-0.00810638
0.0370666
-0.011486
0.0442613
-0.0152856
0.0523375
-0.0194887
0.0613377
-0.0241243
0.0711348
-0.0288957
-0.03467
0.0821927
6.64659e-05
0.00131236
0.000235706
0.00331526
0.000508251
0.00481293
0.000899408
0.00584098
0.00143461
0.00644342
0.00214812
0.00666534
0.00308228
0.00654677
0.00428689
0.00611844
0.00581865
0.00539948
0.00774065
0.00439682
0.0101218
0.0031059
0.013036
0.00151212
0.0165608
-0.000406421
0.0207771
-0.00267783
0.0257642
-0.00533034
0.0315981
-0.00839205
0.0383466
-0.0118855
0.0460643
-0.0158241
0.0547865
-0.0202082
0.0645263
-0.0250254
0.0752562
-0.0302186
0.0869677
-0.0358358
0.0994327
-0.0413607
-0.0482722
0.113035
7.31001e-05
0.00123926
0.000287213
0.00310114
0.000660088
0.00444005
0.00121967
0.00528141
0.00200208
0.00566101
0.00305206
0.00561536
0.00442337
0.00517545
0.00617898
0.00436283
0.00839063
0.00318783
0.0111384
0.00164909
0.0145082
-0.000263923
0.0185913
-0.00257102
0.0234791
-0.00529424
0.029259
-0.00845771
0.0360099
-0.0120813
0.0437949
-0.016177
0.0526544
-0.0207449
0.0625996
-0.0257694
0.0736067
-0.0312152
0.085612
-0.0370308
0.0985093
-0.0431159
0.112172
-0.049498
0.12637
-0.0555597
-0.0630002
0.141098
6.98889e-05
0.00116938
0.000312116
0.00285891
0.000769306
0.00398286
0.00148812
0.00456259
0.00252113
0.004628
0.00392918
0.00420732
0.00578295
0.00332168
0.00816357
0.00198221
0.011161
0.000190421
0.0148738
-0.00206372
0.0194025
-0.00479262
0.0248447
-0.00801328
0.0312894
-0.0117389
0.0388069
-0.0159752
0.0474409
-0.0207153
0.0572003
-0.0259364
0.0680523
-0.0315969
0.0799184
-0.0376355
0.0926737
-0.0439705
0.106148
-0.0505053
0.120141
-0.0571083
0.134388
-0.0637457
0.148727
-0.0698986
-0.0769354
0.162662
6.32126e-05
0.00110616
0.000331335
0.00259079
0.000877828
0.00343637
0.00177388
0.00366653
0.00309466
0.00330722
0.00492333
0.00237865
0.00735259
0.000892417
0.0104846
-0.00114982
0.0144281
-0.00375306
0.0192899
-0.00692547
0.0251697
-0.0106724
0.0321475
-0.0149911
0.0402734
-0.0198647
0.0495563
-0.0252581
0.0599563
-0.0311153
0.0713791
-0.0373592
0.0836756
-0.0438934
0.0966472
-0.0506071
0.110055
-0.057378
0.12364
-0.0640904
0.13714
-0.070609
0.150294
-0.0768988
0.162983
-0.0825882
-0.088406
0.174454
6.19535e-05
0.000373963
0.00104386
0.00217211
0.00386155
0.00622221
0.00936928
0.0134216
0.0184916
0.0246735
0.0320305
0.0405804
0.0502853
0.0610439
0.0726921
0.0850079
0.0977237
0.110545
0.123167
0.135311
0.146724
0.157272
0.166994
0.176163
-0.0328763
-0.018468
0.0190134
-0.033263
-0.0233491
0.0237358
-0.0334419
-0.0286974
0.0288763
-0.0333896
-0.0343496
0.0342974
-0.0330774
-0.0401399
0.0398276
-0.0324708
-0.0458365
0.0452299
-0.0315312
-0.0511336
0.0501941
-0.0302147
-0.0556497
0.0543331
-0.0284633
-0.0589312
0.0571799
-0.0261915
-0.0604589
0.0581871
-0.0232827
-0.0596476
0.0567388
-0.0196495
-0.0558886
0.0522554
-0.0151944
-0.0485605
0.0441055
-0.00984659
-0.0371278
0.03178
-0.00360783
-0.0213155
0.0150767
0.00333284
-0.00121093
-0.00572975
0.0109204
0.0224298
-0.0300173
0.0184175
0.0491918
-0.0566889
0.0253735
0.0767404
-0.0836964
0.031303
0.102901
-0.10883
0.0353401
0.126685
-0.130722
0.037075
0.147328
-0.149063
0.0371093
0.164221
-0.164256
0.0373548
0.175281
-0.175527
0.0403783
0.175775
-0.178799
0.0476244
0.16
-0.167246
0.0583068
0.125179
-0.135862
0.0707631
0.0727505
-0.0852067
0.0838689
0.00740075
-0.0205066
0.096672
-0.0620039
0.0492008
0.107683
-0.124004
0.112993
0.115477
-0.169938
0.162145
0.119896
-0.197769
0.19335
0.120848
-0.209108
0.208157
0.116364
-0.212191
0.216675
0.105941
-0.220532
0.230955
0.0945887
-0.232111
0.243463
0.089232
-0.220167
0.225524
0.0921871
-0.161442
0.158487
0.101109
-0.0640105
0.0550889
0.111775
0.0432574
-0.0539233
0.12106
0.134429
-0.143714
0.127899
0.194113
-0.200951
0.130251
0.223118
-0.22547
0.12505
0.239969
-0.234769
0.114327
0.256952
-0.246229
0.106346
0.24899
-0.241008
0.106995
0.18887
-0.189519
0.114825
0.0831329
-0.0909634
0.124752
-0.024506
0.0145798
0.133314
-0.107379
0.0988162
0.139162
-0.152683
0.146836
0.141449
-0.164316
0.162029
0.138992
-0.162264
0.164721
0.133805
-0.144089
0.149276
0.130495
-0.130519
0.13383
0.131831
-0.0807094
0.0793731
0.137071
-0.0409728
0.0357329
0.14332
0.0149634
-0.0212125
0.0523953
-0.0556029
-0.029192
-0.0174024
-0.0302006
-0.0223404
-0.0310916
-0.0278065
-0.0318444
-0.0335968
-0.0324327
-0.0395516
-0.0328192
-0.0454499
-0.0329635
-0.0509893
-0.0328181
-0.0557951
-0.0323189
-0.0594304
-0.0313619
-0.0614158
-0.0298131
-0.0611965
-0.0275142
-0.0581875
-0.0242899
-0.0517848
-0.0199823
-0.0414354
-0.014516
-0.0267818
-0.0079099
-0.00781699
-0.000618703
0.0151386
0.00776953
0.0408035
0.0155549
0.0689551
0.0226505
0.0958053
0.0283173
0.121018
0.0325132
0.143132
0.0360837
0.160651
0.0406977
0.170667
0.0479827
0.16849
0.058169
0.149814
0.0699774
0.113371
0.0821215
0.0606063
0.0939767
-0.00445447
0.105013
-0.0730399
0.11406
-0.133051
0.119851
-0.175729
0.122303
-0.200222
0.122039
-0.208844
0.117503
-0.207655
0.106968
-0.209997
0.0942288
-0.219371
0.0869432
-0.212881
0.088778
-0.163277
0.0974546
-0.0726871
0.10862
0.0320924
0.119047
0.124002
0.126949
0.18621
0.129324
0.220744
0.123632
0.245661
0.11329
0.267295
0.106666
0.255613
0.108664
0.186872
0.117241
0.0745563
0.127315
-0.0345805
0.13555
-0.115613
0.140978
-0.158111
0.14351
-0.166847
0.141766
-0.160521
0.13682
-0.139143
0.1323
-0.125999
0.131784
-0.0801938
0.135484
-0.0446725
0.140713
0.00973451
0.0493361
-0.0186825
-0.0159648
-0.0201298
-0.0208932
-0.0216219
-0.0263144
-0.0231105
-0.0321082
-0.0245707
-0.0380914
-0.0259606
-0.0440601
-0.0272336
-0.0497163
-0.028327
-0.0547017
-0.0291652
-0.0585923
-0.0296247
-0.0609563
-0.0295465
-0.0612747
-0.0287388
-0.0589952
-0.0269806
-0.0535431
-0.0240401
-0.0443759
-0.0197412
-0.0310807
-0.0139995
-0.0135587
-0.00697909
0.00811816
0.000705998
0.0331184
0.00946213
0.0601989
0.0179137
0.0873537
0.0256701
0.113262
0.0327476
0.136054
0.0399036
0.153495
0.048346
0.162225
0.0588083
0.158028
0.0707584
0.137864
0.0828337
0.101296
0.0941058
0.0493342
0.104382
-0.0147306
0.113387
-0.0820446
0.120291
-0.139956
0.124105
-0.179543
0.124696
-0.200812
0.123142
-0.20729
0.118643
-0.203156
0.108563
-0.199917
0.0949496
-0.205758
0.0856576
-0.203589
0.0860102
-0.163629
0.094269
-0.0809459
0.105882
0.0204797
0.117379
0.112505
0.1261
0.177489
0.128372
0.218471
0.122432
0.251601
0.112777
0.27695
0.107534
0.260856
0.110688
0.183718
0.119826
0.0654181
0.129961
-0.0447157
0.137844
-0.123496
0.142733
-0.163
0.145258
-0.169372
0.144183
-0.159446
0.139832
-0.134792
0.134593
-0.120761
0.132478
-0.0780781
0.134515
-0.0467098
0.138509
0.00574098
0.0464543
-0.0009876
-0.0149123
-0.00284309
-0.0190377
-0.00482989
-0.0243276
-0.00694369
-0.0299944
-0.0091887
-0.0358464
-0.0115462
-0.0417026
-0.0139661
-0.0472964
-0.0163535
-0.0523143
-0.0186407
-0.056305
-0.0206554
-0.0589416
-0.0221711
-0.0597591
-0.022965
-0.0582013
-0.0227886
-0.0537195
-0.0213773
-0.0457872
-0.0184913
-0.0339667
-0.0140072
-0.0180428
-0.00776041
0.00187135
-0.000611301
0.0259693
0.0086186
0.050969
0.0181939
0.0777784
0.027897
0.103559
0.0376364
0.126315
0.0478456
0.143286
0.0591501
0.150921
0.0716318
0.145546
0.0843611
0.125134
0.0960479
0.089609
0.106117
0.0392654
0.114645
-0.0232593
0.121548
-0.0889468
0.126232
-0.144641
0.128093
-0.181404
0.126982
-0.199702
0.124101
-0.204409
0.11956
-0.198614
0.110404
-0.190761
0.0966365
-0.191991
0.0854705
-0.192423
0.0839929
-0.162152
0.0916104
-0.0885633
0.103616
0.00847414
0.116027
0.100093
0.125301
0.168215
0.127445
0.216327
0.121546
0.2575
0.112819
0.285677
0.108912
0.264763
0.113026
0.179604
0.122523
0.0559206
0.132604
-0.0547967
0.140123
-0.131015
0.144434
-0.167311
0.146739
-0.171676
0.146197
-0.158904
0.142673
-0.131268
0.13722
-0.115307
0.133881
-0.0747395
0.134266
-0.0470941
0.136904
0.00310328
0.0437616
0.0220704
-0.0133992
0.0203481
-0.0173154
0.0182825
-0.022262
0.0158857
-0.0275975
0.0131082
-0.0330689
0.00994847
-0.0385428
0.0064358
-0.0437837
0.00263235
-0.0485108
-0.00114023
-0.0525324
-0.00471204
-0.0553698
-0.00791027
-0.0565608
-0.0104394
-0.0556721
-0.0119768
-0.0521821
-0.0122177
-0.0455463
-0.0108928
-0.0352916
-0.00781865
-0.0211169
-0.00275387
-0.00319342
0.00460236
0.0186131
0.013439
0.0421323
0.0236344
0.067583
0.0346723
0.0925207
0.0463423
0.114645
0.058702
0.130926
0.0718272
0.137795
0.0853208
0.132053
0.0980935
0.112362
0.108964
0.0787382
0.117596
0.0306336
0.124381
-0.0300446
0.129234
-0.0937998
0.131701
-0.147107
0.131612
-0.181315
0.129003
-0.197092
0.124893
-0.2003
0.120156
-0.193877
0.112184
-0.18279
0.0990488
-0.178855
0.0864048
-0.179779
0.0827916
-0.158538
0.0895016
-0.0952734
0.101778
-0.00380244
0.11489
0.0869812
0.124493
0.158612
0.126581
0.21424
0.121024
0.263056
0.113399
0.293303
0.11075
0.267411
0.115631
0.174723
0.125316
0.0462356
0.13519
-0.0646707
0.142313
-0.138138
0.146063
-0.171061
0.147999
-0.173612
0.147806
-0.158711
0.145208
-0.12867
0.140003
-0.110103
0.135908
-0.0706447
0.134803
-0.0459891
0.136089
0.0018176
0.0412511
0.0499703
-0.0118195
0.0482697
-0.0156149
0.0462296
-0.0202219
0.0437153
-0.0250832
0.0407065
-0.0300602
0.0372038
-0.0350401
0.0332116
-0.0397915
0.0287687
-0.0440679
0.0238934
-0.0476571
0.0187584
-0.0502348
0.0136701
-0.0514725
0.0090109
-0.0510129
0.00524823
-0.0484194
0.00288817
-0.0431862
0.00243287
-0.0348363
0.00431268
-0.0229967
0.00850869
-0.00738944
0.0149219
0.0121999
0.0231934
0.0338608
0.0333486
0.0574278
0.04494
0.0809294
0.0576217
0.101963
0.0711165
0.117431
0.0850824
0.123829
0.0988215
0.118314
0.111152
0.100031
0.120989
0.0689013
0.128212
0.0234101
0.133321
-0.0351534
0.136224
-0.0967028
0.136529
-0.147412
0.134516
-0.179301
0.130592
-0.193169
0.125452
-0.195159
0.12036
-0.188785
0.113595
-0.176024
0.101828
-0.167089
0.0883798
-0.166331
0.0824524
-0.152611
0.0878271
-0.100648
0.100165
-0.0161405
0.113774
0.0733725
0.123595
0.148791
0.125796
0.212038
0.12088
0.267972
0.114471
0.299712
0.112983
0.268899
0.118477
0.16923
0.128174
0.0365377
0.137687
-0.0741829
0.144351
-0.144802
0.147582
-0.174292
0.149074
-0.175104
0.149039
-0.158677
0.147342
-0.126973
0.14276
-0.105521
0.138414
-0.0662985
0.136134
-0.0437097
0.13621
0.00174243
0.0388951
0.0804185
-0.0100453
0.0785492
-0.0137456
0.0763417
-0.0180144
0.0736567
-0.0223982
0.0704788
-0.0268823
0.0668004
-0.0313618
0.0625954
-0.0355864
0.0578489
-0.0393215
0.0525567
-0.0423648
0.0468021
-0.0444803
0.0407717
-0.0454421
0.0347914
-0.0450326
0.0293492
-0.0429773
0.0250466
-0.0388836
0.0224823
-0.0322721
0.0221324
-0.0226468
0.02432
-0.00957703
0.0291442
0.00737578
0.03638
0.0266249
0.0459068
0.0479011
0.0573207
0.0695155
0.0701542
0.0891297
0.0838654
0.10372
0.0978226
0.109872
0.111165
0.104972
0.122709
0.0884866
0.131527
0.0600839
0.137584
0.0173529
0.141253
-0.038822
0.142297
-0.0977473
0.140534
-0.145649
0.136689
-0.175456
0.131611
-0.188091
0.125703
-0.189251
0.120171
-0.183253
0.114406
-0.17026
0.104537
-0.15722
0.0911842
-0.152978
0.0830104
-0.144437
0.0864563
-0.104094
0.0984818
-0.0281661
0.112425
0.0594297
0.122505
0.138711
0.12509
0.209454
0.121094
0.271968
0.115967
0.304839
0.115539
0.269327
0.121512
0.163256
0.13106
0.02699
0.140068
-0.0831911
0.146189
-0.150923
0.148946
-0.177049
0.149984
-0.176142
0.149948
-0.15864
0.149033
-0.126058
0.145326
-0.101814
0.141213
-0.0621848
0.138191
-0.0406877
0.137329
0.00260453
0.0366407
0.110839
-0.00784932
0.108566
-0.0114728
0.105942
-0.0153899
0.10287
-0.0193264
0.0993751
-0.0233875
0.0954522
-0.0274389
0.0910734
-0.0312076
0.0862298
-0.0344779
0.0809202
-0.0370552
0.0751605
-0.0387206
0.069001
-0.0392826
0.0625811
-0.0386127
0.05621
-0.0366062
0.050409
-0.0330826
0.0458539
-0.0277169
0.0432357
-0.0200286
0.0431409
-0.00948221
0.0459284
0.00458826
0.0515593
0.020994
0.0598817
0.0395787
0.0704822
0.058915
0.0827734
0.0768385
0.0960042
0.0904892
0.109347
0.0965292
0.121855
0.0924641
0.132399
0.0779417
0.140241
0.0522425
0.145376
0.0122178
0.14784
-0.041286
0.14719
-0.0970975
0.143548
-0.142007
0.138044
-0.169953
0.131951
-0.181998
0.125543
-0.182843
0.119604
-0.177314
0.114505
-0.165161
0.106744
-0.149459
0.0944542
-0.140688
0.0844824
-0.134465
0.0853848
-0.104996
0.0964954
-0.0392767
0.110602
0.0453226
0.121114
0.128199
0.12442
0.206147
0.121606
0.274782
0.117801
0.308643
0.11833
0.268799
0.124665
0.156921
0.133925
0.0177302
0.142306
-0.0915715
0.147794
-0.156411
0.150105
-0.17936
0.150729
-0.176766
0.150588
-0.158499
0.150281
-0.125751
0.147571
-0.0991041
0.144098
-0.0587122
0.140826
-0.0374154
0.139404
0.00402695
0.0344088
0.138381
-0.0051319
0.135534
-0.00862598
0.132284
-0.0121397
0.128641
-0.0156831
0.124676
-0.0194228
0.120377
-0.0231403
0.11573
-0.0265606
0.110761
-0.0295089
0.105506
-0.0317997
0.0999924
-0.0332071
0.094236
-0.0335262
0.0882521
-0.0326287
0.0821205
-0.0304746
0.0760836
-0.0270457
0.0706103
-0.0222437
0.06638
-0.0157983
0.0641944
-0.00729667
0.0645862
0.00419645
0.0679957
0.0175845
0.0744412
0.0331332
0.0835712
0.0497849
0.0947136
0.0656962
0.106943
0.0782602
0.11927
0.0842015
0.13069
0.0810442
0.140179
0.0684526
0.147187
0.0452349
0.15161
0.00779446
0.152988
-0.0426637
0.15073
-0.0948397
0.145388
-0.136665
0.138456
-0.163021
0.131491
-0.175033
0.124811
-0.176163
0.118619
-0.171121
0.113852
-0.160394
0.108083
-0.14369
0.0976912
-0.130296
0.0867633
-0.123537
0.0847839
-0.103017
0.0941688
-0.0486615
0.108163
0.0313286
0.11932
0.117042
0.123745
0.201722
0.122365
0.276162
0.119875
0.311134
0.121251
0.267422
0.127844
0.150328
0.136714
0.00886013
0.144355
-0.0992131
0.149134
-0.16119
0.151018
-0.181244
0.151294
-0.177043
0.151007
-0.158212
0.151122
-0.125865
0.149411
-0.0973931
0.146873
-0.0561745
0.143835
-0.0343772
0.142287
0.00557494
0.0320964
0.159668
-0.00213733
0.156317
-0.00527553
0.152482
-0.008304
0.148329
-0.0115299
0.14394
-0.0150343
0.139292
-0.0184919
0.134398
-0.0216671
0.12932
-0.0244312
0.124125
-0.0266041
0.118874
-0.0279561
0.11362
-0.0282729
0.108392
-0.0274
0.103193
-0.0252754
0.0980501
-0.0219032
0.0931151
-0.0173087
0.0887246
-0.0114078
0.085496
-0.00406799
0.0841398
0.00555263
0.0853439
0.0163804
0.089487
0.0289902
0.0965105
0.0427614
0.10587
0.0563367
0.116604
0.067526
0.127608
0.0731975
0.137801
0.070851
0.146278
0.0599765
0.152671
0.0388419
0.156427
0.00403803
0.156676
-0.0429126
0.152793
-0.0909564
0.145893
-0.129765
0.137785
-0.154914
0.130103
-0.167351
0.123318
-0.169377
0.117107
-0.16491
0.112448
-0.155735
0.108313
-0.139556
0.100355
-0.122338
0.0895644
-0.112747
0.0848524
-0.0983052
0.0917149
-0.055524
0.105132
0.0179116
0.117064
0.10511
0.122926
0.19586
0.123205
0.275883
0.12206
0.312279
0.12422
0.265263
0.131001
0.143547
0.139338
0.000522783
0.146171
-0.106046
0.150184
-0.165204
0.151652
-0.182712
0.151657
-0.177048
0.15124
-0.157795
0.151612
-0.126237
0.150813
-0.0965942
0.149371
-0.0547332
0.146981
-0.0319871
0.145744
0.00681233
0.0295853
0.171669
0.000647513
0.168274
-0.00188064
0.164294
-0.00432368
0.160015
-0.00725162
0.155491
-0.0105097
0.150721
-0.013722
0.145766
-0.0167125
0.140709
-0.0193741
0.135636
-0.0215313
0.13065
-0.02297
0.125871
-0.0234936
0.12141
-0.0229392
0.117292
-0.0211573
0.113476
-0.0180866
0.109938
-0.0137716
0.106743
-0.00821206
0.104347
-0.00167219
0.10262
0.00727961
0.102551
0.0164491
0.104848
0.0266933
0.109701
0.0379089
0.116887
0.0491503
0.125678
0.0587345
0.135024
0.0638522
0.143845
0.0620298
0.151357
0.0524641
0.157119
0.0330802
0.160051
0.00110656
0.159066
-0.041928
0.153581
-0.0854717
0.145362
-0.121546
0.136412
-0.145964
0.128215
-0.159153
0.121385
-0.162548
0.115325
-0.15885
0.110619
-0.151029
0.10755
-0.136486
0.102121
-0.116909
0.0925207
-0.103147
0.0857309
-0.0915154
0.0894975
-0.0592905
0.101673
0.00573581
0.114364
0.09242
0.121997
0.188227
0.12418
0.2737
0.124311
0.312149
0.127143
0.26243
0.13409
0.1366
0.141827
-0.00721449
0.147755
-0.111974
0.150971
-0.168419
0.152023
-0.183764
0.15182
-0.176845
0.151317
-0.157292
0.151821
-0.12674
0.151793
-0.0965666
0.151479
-0.0544194
0.150036
-0.0305435
0.14949
0.00735818
0.0267575
0.173554
0.00325729
0.170438
0.00123532
0.167105
-0.00099079
0.163363
-0.00350961
0.159259
-0.0064057
0.154883
-0.00934598
0.150339
-0.0121685
0.145715
-0.0147504
0.141118
-0.0169337
0.136672
-0.0185247
0.132506
-0.0193277
0.128731
-0.0191636
0.125448
-0.0178743
0.122728
-0.0153666
0.120559
-0.0116023
0.118883
-0.00653608
0.117409
-0.000198442
0.117041
0.00764737
0.117492
0.0159986
0.119191
0.0249935
0.12266
0.0344401
0.128047
0.0437635
0.134969
0.0518121
0.142598
0.0562239
0.149958
0.054669
0.156354
0.0460684
0.161048
0.0283866
0.16291
-0.000756175
0.159981
-0.0389988
0.153076
-0.0785664
0.144096
-0.112566
0.134877
-0.136744
0.126512
-0.150789
0.119678
-0.155714
0.11383
-0.153003
0.109001
-0.146199
0.106353
-0.133838
0.103081
-0.113637
0.0953664
-0.0954319
0.0874319
-0.0835809
0.0880024
-0.059861
0.0981215
-0.00438331
0.111147
0.079395
0.120602
0.178771
0.124789
0.269513
0.126278
0.31066
0.130009
0.2587
0.137139
0.12947
0.144195
-0.0142706
0.149124
-0.116903
0.151544
-0.170839
0.152175
-0.184395
0.151804
-0.176474
0.151262
-0.156751
0.15182
-0.127298
0.152404
-0.0971501
0.153144
-0.0551596
0.152806
-0.0302057
0.153233
0.00693153
0.0235138
0.196233
0.00521716
-0.198193
0.194638
0.00283021
0.192805
0.000842065
0.190838
-0.00154223
0.188586
-0.00415408
0.185996
-0.0067559
0.18307
-0.00924256
0.179808
-0.0114876
0.176219
-0.0133453
0.172347
-0.0146529
0.168259
-0.0152389
0.164029
-0.0149344
0.159745
-0.0135896
0.155477
-0.0110993
0.151271
-0.00739607
0.147193
-0.00245854
0.143303
0.00369159
0.139942
0.0110084
0.1371
0.0188408
0.135178
0.0269153
0.134736
0.0348822
0.136315
0.0421845
0.140309
0.0478181
0.146679
0.0498543
0.1549
0.0464477
0.164471
0.036498
0.174479
0.0183785
0.183111
-0.00938799
0.187922
-0.0438097
0.188038
-0.0786832
0.184003
-0.108531
0.17701
-0.129751
0.168249
-0.142028
0.159049
-0.146514
0.149874
-0.143828
0.140694
-0.137019
0.132851
-0.125996
0.125619
-0.106405
0.115259
-0.0850725
0.10246
-0.0707812
0.0937299
-0.0511313
0.0926671
-0.00332049
0.0947207
0.0773413
0.0961536
0.177338
0.0974905
0.268176
0.103778
0.304373
0.118096
0.244381
0.135572
0.111994
0.148916
-0.0276145
0.155743
-0.12373
0.157006
-0.172102
0.155058
-0.182447
0.151759
-0.173175
0.148299
-0.153291
0.146067
-0.125065
0.14446
-0.095544
0.14382
-0.0545196
0.142731
-0.0291162
0.142655
0.00700693
0.0213938
0.206852
0.00649433
-0.208129
0.205438
0.00424404
0.204081
0.00219858
0.202534
4.92235e-06
0.200574
-0.00219367
0.198275
-0.00445729
0.195652
-0.00661941
0.192712
-0.00854737
0.189482
-0.0101151
0.186014
-0.0111854
0.182383
-0.0116081
0.178679
-0.0112299
0.175002
-0.00991221
0.171451
-0.00754826
0.168134
-0.00407944
0.16512
0.000555802
0.162503
0.00630788
0.160466
0.0130458
0.159051
0.0202556
0.158451
0.0275158
0.159016
0.0343169
0.161162
0.0400379
0.165239
0.0437419
0.171224
0.0438691
0.178692
0.03898
0.187069
0.0281201
0.195326
0.010122
0.201639
-0.0157015
0.204223
-0.0463931
0.202474
-0.0769341
0.1969
-0.102957
0.188727
-0.121578
0.179148
-0.132449
0.169373
-0.136738
0.159987
-0.134441
0.150665
-0.127697
0.142427
-0.117759
0.135533
-0.0995101
0.126364