/*--------------------------------*- C++ -*----------------------------------*\
| =========                 |                                                 |
| \\      /  F ield         | OpenFOAM: The Open Source CFD Toolbox           |
|  \\    /   O peration     | Version:  2512                                  |
|   \\  /    A nd           | Website:  www.openfoam.com                      |
|    \\/     M anipulation  |                                                 |
\*---------------------------------------------------------------------------*/
FoamFile
{
    version     2.0;
    format      ascii;
    arch        "LSB;label=32;scalar=64";
    class       volScalarField;
    location    "123.25";
    object      p;
}
// * * * * * * * * * * * * * * * * * * * * * * * * * * * * * * * * * * * * * //

dimensions      [0 2 -2 0 0 0 0];

internalField   nonuniform List<scalar> 
13248
(
-0.303557
-0.302844
-0.301038
-0.298342
-0.294924
-0.290877
-0.286282
-0.281228
-0.27582
-0.270177
-0.264425
-0.258695
-0.253107
-0.247764
-0.242737
-0.238059
-0.233722
-0.229682
-0.225862
-0.222191
-0.218492
-0.214798
-0.2104
-0.205827
-0.311207
-0.309546
-0.307001
-0.303724
-0.299836
-0.295429
-0.290566
-0.285304
-0.279703
-0.273836
-0.267785
-0.261635
-0.255471
-0.249364
-0.243366
-0.237505
-0.231784
-0.226184
-0.220671
-0.215195
-0.209669
-0.204031
-0.198023
-0.192105
-0.320543
-0.317758
-0.314319
-0.310332
-0.30586
-0.300983
-0.295731
-0.29011
-0.284118
-0.277772
-0.27111
-0.264192
-0.257092
-0.24989
-0.24266
-0.235466
-0.228355
-0.221357
-0.214478
-0.20771
-0.200986
-0.1943
-0.18746
-0.180854
-0.331536
-0.327478
-0.323025
-0.318226
-0.313061
-0.30758
-0.301759
-0.295529
-0.288824
-0.281618
-0.273937
-0.265856
-0.257486
-0.248957
-0.240393
-0.231908
-0.223583
-0.215472
-0.207592
-0.199934
-0.192456
-0.185146
-0.177867
-0.171025
-0.344201
-0.338756
-0.333206
-0.327517
-0.321549
-0.315285
-0.308626
-0.301425
-0.293576
-0.285059
-0.275944
-0.266374
-0.256535
-0.246616
-0.236787
-0.227179
-0.217877
-0.208922
-0.200319
-0.192047
-0.184071
-0.176364
-0.168838
-0.161771
-0.358546
-0.351626
-0.344935
-0.338293
-0.331377
-0.324067
-0.31618
-0.30753
-0.298034
-0.287749
-0.276853
-0.265591
-0.254221
-0.242972
-0.232018
-0.22147
-0.211387
-0.201781
-0.192638
-0.183922
-0.175594
-0.167616
-0.159924
-0.152708
-0.374473
-0.366033
-0.358178
-0.350499
-0.342411
-0.333672
-0.324051
-0.3134
-0.301756
-0.289331
-0.276443
-0.26343
-0.250586
-0.238133
-0.226209
-0.214883
-0.204172
-0.194057
-0.1845
-0.175457
-0.166878
-0.158717
-0.150933
-0.143608
-0.391704
-0.381749
-0.372714
-0.363854
-0.354261
-0.343587
-0.331648
-0.318457
-0.304262
-0.289474
-0.274536
-0.259831
-0.245638
-0.232127
-0.219377
-0.207403
-0.196179
-0.185657
-0.175783
-0.166499
-0.157749
-0.149482
-0.141665
-0.134288
-0.409727
-0.398325
-0.38808
-0.377808
-0.366259
-0.353066
-0.338239
-0.322075
-0.305098
-0.287899
-0.27099
-0.254737
-0.239355
-0.224937
-0.211492
-0.198982
-0.187345
-0.176508
-0.166402
-0.156956
-0.148108
-0.139806
-0.132009
-0.124636
-0.427778
-0.415055
-0.403532
-0.391515
-0.377475
-0.361188
-0.343021
-0.32365
-0.303864
-0.284371
-0.265674
-0.248067
-0.231669
-0.216489
-0.202471
-0.189531
-0.177576
-0.166514
-0.156258
-0.146727
-0.137852
-0.129577
-0.121842
-0.114525
-0.444853
-0.430966
-0.418037
-0.403856
-0.386773
-0.366917
-0.345151
-0.322548
-0.300099
-0.278536
-0.258288
-0.239537
-0.222301
-0.206506
-0.192042
-0.178786
-0.166618
-0.155428
-0.145116
-0.135591
-0.126774
-0.118599
-0.110977
-0.103792
-0.459804
-0.444953
-0.430459
-0.413655
-0.393007
-0.369215
-0.343732
-0.317994
-0.293104
-0.269735
-0.248189
-0.228519
-0.210639
-0.194402
-0.179647
-0.166218
-0.153971
-0.14278
-0.132531
-0.123126
-0.114481
-0.106517
-0.0991168
-0.09222
-0.33741
-0.34009
-0.34161
-0.342507
-0.343238
-0.343915
-0.344562
-0.345173
-0.345717
-0.346146
-0.346399
-0.346405
-0.346098
-0.345417
-0.344312
-0.342755
-0.340751
-0.338343
-0.33563
-0.332772
-0.329981
-0.327497
-0.325645
-0.324948
-0.32694
-0.329493
-0.330813
-0.331389
-0.331646
-0.331686
-0.33154
-0.331212
-0.330686
-0.329935
-0.328927
-0.327632
-0.326036
-0.32414
-0.321974
-0.319602
-0.317128
-0.3147
-0.312516
-0.310821
-0.309889
-0.309974
-0.311404
-0.314814
-0.317992
-0.320278
-0.321341
-0.321595
-0.321411
-0.320875
-0.320019
-0.318859
-0.317395
-0.315624
-0.313541
-0.311157
-0.308502
-0.305636
-0.302654
-0.299691
-0.296925
-0.294576
-0.292905
-0.292207
-0.292796
-0.294717
-0.298528
-0.304694
-0.310499
-0.31245
-0.313234
-0.313183
-0.312599
-0.311552
-0.310072
-0.308186
-0.305914
-0.303273
-0.300291
-0.297012
-0.293509
-0.289887
-0.286291
-0.282907
-0.279962
-0.277706
-0.276443
-0.276462
-0.278053
-0.281447
-0.286766
-0.294358
-0.304323
-0.305946
-0.306462
-0.306127
-0.305182
-0.303677
-0.301643
-0.299118
-0.29614
-0.292752
-0.289011
-0.284995
-0.280809
-0.276593
-0.272527
-0.26883
-0.265754
-0.263575
-0.262584
-0.263066
-0.265282
-0.269451
-0.275718
-0.283697
-0.299335
-0.300692
-0.300969
-0.30037
-0.299087
-0.297158
-0.294617
-0.291513
-0.287903
-0.283857
-0.27946
-0.274819
-0.270071
-0.265383
-0.260958
-0.257031
-0.253865
-0.251736
-0.250923
-0.251686
-0.254254
-0.258727
-0.265542
-0.273173
-0.295477
-0.296654
-0.296728
-0.295875
-0.294266
-0.291933
-0.288917
-0.285279
-0.281098
-0.276469
-0.271506
-0.266344
-0.261145
-0.256101
-0.25143
-0.247379
-0.244209
-0.242188
-0.241566
-0.242559
-0.245388
-0.249859
-0.256977
-0.263687
-0.292802
-0.293872
-0.293764
-0.29266
-0.29073
-0.288015
-0.284561
-0.280447
-0.275773
-0.270659
-0.265245
-0.259694
-0.254192
-0.24895
-0.244197
-0.240185
-0.237165
-0.23538
-0.235048
-0.236289
-0.239357
-0.243595
-0.250746
-0.256073
-0.291475
-0.292452
-0.29216
-0.2908
-0.288562
-0.285498
-0.281671
-0.277173
-0.272125
-0.26667
-0.26097
-0.255212
-0.2496
-0.244357
-0.239719
-0.23592
-0.233184
-0.231707
-0.231646
-0.233006
-0.236053
-0.239767
-0.246227
-0.250108
-0.291722
-0.292543
-0.292027
-0.2904
-0.287874
-0.284517
-0.280405
-0.275647
-0.270377
-0.264754
-0.258956
-0.25318
-0.247638
-0.242547
-0.238123
-0.234568
-0.232052
-0.230702
-0.2306
-0.231676
-0.234095
-0.236961
-0.241823
-0.24435
-0.293757
-0.294278
-0.293457
-0.291534
-0.288731
-0.285131
-0.280821
-0.275917
-0.270556
-0.264902
-0.259133
-0.253443
-0.248029
-0.243084
-0.238783
-0.235271
-0.232648
-0.230962
-0.230206
-0.230312
-0.231279
-0.232747
-0.235432
-0.236757
-0.297704
-0.29772
-0.296473
-0.294193
-0.291093
-0.287265
-0.282799
-0.277804
-0.272413
-0.266776
-0.261055
-0.255421
-0.25004
-0.245062
-0.240607
-0.236756
-0.233536
-0.23093
-0.228861
-0.227259
-0.225982
-0.225092
-0.224741
-0.224725
-0.326012
-0.329753
-0.33668
-0.34647
-0.358251
-0.370324
-0.38041
-0.385772
-0.383909
-0.371938
-0.348481
-0.313901
-0.271506
-0.22697
-0.186354
-0.154042
-0.131913
-0.119746
-0.116643
-0.122522
-0.137531
-0.158758
-0.178092
-0.18486
-0.175825
-0.152764
-0.125102
-0.100734
-0.0837785
-0.0749562
-0.0729547
-0.0773339
-0.0899235
-0.110572
-0.13145
-0.14018
-0.130517
-0.108779
-0.0863803
-0.0698819
-0.0597833
-0.0558852
-0.0596436
-0.0692216
-0.0756745
-0.0725946
-0.0637226
-0.054036
-0.0467676
-0.0433239
-0.0434378
-0.0454774
-0.0452699
-0.0412781
-0.0368826
-0.0299675
-0.0205585
-0.0164413
-0.0124238
-0.00544183
-0.322178
-0.332742
-0.346468
-0.362516
-0.379636
-0.395909
-0.408883
-0.415656
-0.413868
-0.40079
-0.374857
-0.336552
-0.289509
-0.239953
-0.194413
-0.15744
-0.130881
-0.114443
-0.107088
-0.108365
-0.118346
-0.135058
-0.15194
-0.15983
-0.153785
-0.135748
-0.113053
-0.0928861
-0.0794404
-0.0736271
-0.0742569
-0.081312
-0.0969483
-0.120617
-0.143574
-0.152452
-0.140944
-0.116349
-0.0908474
-0.071446
-0.0589395
-0.0527346
-0.0540205
-0.0613166
-0.0664048
-0.0640636
-0.0571982
-0.0502445
-0.0452345
-0.0442192
-0.0467247
-0.0502758
-0.0506958
-0.0453993
-0.0398952
-0.0313024
-0.0201873
-0.0148916
-0.00998176
-0.00425933
-0.316941
-0.332553
-0.350715
-0.370782
-0.391295
-0.41028
-0.425361
-0.432871
-0.43114
-0.41756
-0.390316
-0.349877
-0.300053
-0.247383
-0.19864
-0.158456
-0.128544
-0.108487
-0.0971516
-0.0938556
-0.0986927
-0.110578
-0.124586
-0.132902
-0.129932
-0.116836
-0.0991148
-0.0832762
-0.0735136
-0.07083
-0.0741499
-0.0838427
-0.102287
-0.128602
-0.153421
-0.162617
-0.149679
-0.122683
-0.0944658
-0.0724494
-0.0577469
-0.0494537
-0.0484569
-0.053609
-0.0573925
-0.0556794
-0.0506148
-0.0462299
-0.0434319
-0.0449604
-0.0500083
-0.0551174
-0.0560885
-0.0493559
-0.0426834
-0.0325152
-0.0197917
-0.0133636
-0.00759021
-0.00311005
-0.309662
-0.328192
-0.348692
-0.370769
-0.392943
-0.413342
-0.430881
-0.437485
-0.435991
-0.422469
-0.394944
-0.353905
-0.303228
-0.249493
-0.199452
-0.157596
-0.125487
-0.102654
-0.087949
-0.0805414
-0.0804003
-0.0872443
-0.0977922
-0.105719
-0.105438
-0.0968185
-0.083803
-0.0722187
-0.0661174
-0.0664838
-0.0723555
-0.0844262
-0.105287
-0.133897
-0.160502
-0.170339
-0.156481
-0.127622
-0.0971662
-0.0729185
-0.0562902
-0.0461696
-0.0431447
-0.0463406
-0.0488793
-0.0478364
-0.0440875
-0.0420547
-0.041367
-0.0454983
-0.0532042
-0.0599205
-0.0613737
-0.0530952
-0.04521
-0.0335795
-0.0193703
-0.0118757
-0.00526818
-0.00200225
-0.300307
-0.320049
-0.341211
-0.363685
-0.385896
-0.405402
-0.419102
-0.43021
-0.429893
-0.4169
-0.389926
-0.349653
-0.29999
-0.247267
-0.197792
-0.15568
-0.12239
-0.0975504
-0.0801034
-0.0691933
-0.0646267
-0.0664969
-0.0730963
-0.0797674
-0.0817156
-0.0763715
-0.0676046
-0.0600141
-0.0573351
-0.0604982
-0.0686498
-0.0827305
-0.105562
-0.136106
-0.164412
-0.175239
-0.161137
-0.131091
-0.0989515
-0.0729131
-0.054665
-0.0429898
-0.0382081
-0.0396685
-0.0410349
-0.0402524
-0.0377193
-0.0377774
-0.0390396
-0.0457763
-0.0562101
-0.0645797
-0.0664526
-0.056559
-0.0474401
-0.0344722
-0.0189221
-0.0104442
-0.00303325
-0.000943121
-0.289981
-0.309609
-0.330087
-0.351802
-0.373332
-0.392863
-0.407237
-0.416173
-0.415467
-0.402865
-0.376987
-0.338663
-0.291663
-0.241743
-0.194443
-0.153336
-0.119776
-0.0936129
-0.0740232
-0.0602162
-0.0518929
-0.0492422
-0.0516666
-0.0561539
-0.0585814
-0.0561268
-0.0510822
-0.0470398
-0.0473544
-0.0529482
-0.0630424
-0.0787212
-0.102989
-0.135028
-0.16492
-0.177066
-0.163522
-0.133055
-0.0998366
-0.0724821
-0.0529399
-0.0399836
-0.0337139
-0.0336815
-0.0339833
-0.0333004
-0.0316313
-0.0334543
-0.0364546
-0.0457341
-0.0589067
-0.0689744
-0.071228
-0.0597008
-0.0493464
-0.0351692
-0.0184428
-0.00908136
-0.00090063
6.23931e-05
-0.280161
-0.298464
-0.316993
-0.336881
-0.356765
-0.374465
-0.388682
-0.395894
-0.394488
-0.382301
-0.358101
-0.322825
-0.279872
-0.234141
-0.19022
-0.151091
-0.118019
-0.0911227
-0.069923
-0.0537934
-0.0423894
-0.0358482
-0.0342101
-0.0359054
-0.0377877
-0.0371262
-0.0349197
-0.0337858
-0.0365539
-0.0441165
-0.0557392
-0.0725251
-0.0976245
-0.130652
-0.162002
-0.175754
-0.163599
-0.133504
-0.0998459
-0.0716588
-0.0511599
-0.037188
-0.0296833
-0.0283952
-0.0277777
-0.0270742
-0.025921
-0.0291463
-0.0336276
-0.0453092
-0.0611743
-0.072973
-0.0756087
-0.0624865
-0.0509086
-0.0356535
-0.0179277
-0.00779258
0.00111968
0.00101142
-0.271437
-0.287097
-0.302639
-0.320001
-0.338434
-0.353388
-0.364979
-0.370567
-0.368598
-0.357101
-0.335255
-0.303982
-0.266082
-0.225427
-0.185626
-0.149128
-0.117145
-0.0900511
-0.067738
-0.0498327
-0.036009
-0.0263042
-0.0210031
-0.0196114
-0.0201513
-0.0202304
-0.0196874
-0.0208127
-0.0254209
-0.0343836
-0.0470437
-0.064448
-0.0897891
-0.123228
-0.155795
-0.171462
-0.161397
-0.132454
-0.099005
-0.0704672
-0.0493543
-0.0346236
-0.0261172
-0.02379
-0.022409
-0.0216121
-0.0206622
-0.0249165
-0.0305879
-0.0444485
-0.062899
-0.0764443
-0.079504
-0.064882
-0.0521135
-0.0359231
-0.0173823
-0.00658451
0.00302238
0.00190402
-0.262867
-0.274538
-0.286775
-0.301378
-0.315427
-0.328534
-0.337511
-0.34181
-0.339559
-0.329286
-0.310489
-0.283884
-0.251541
-0.216306
-0.180908
-0.147369
-0.116899
-0.0900906
-0.067146
-0.0479796
-0.0323588
-0.02023
-0.0118791
-0.0074388
-0.0060153
-0.00595676
-0.00573393
-0.00864717
-0.0144429
-0.0241679
-0.0373275
-0.0548143
-0.0798801
-0.113293
-0.14673
-0.164468
-0.157075
-0.130042
-0.0974572
-0.0690415
-0.04764
-0.032372
-0.0230402
-0.0198568
-0.0178572
-0.016917
-0.0158967
-0.020832
-0.027368
-0.0431045
-0.0639815
-0.0792834
-0.0828035
-0.0668506
-0.05296
-0.035989
-0.0168266
-0.00548291
0.00480172
0.00274339
-0.252803
-0.259851
-0.269323
-0.281422
-0.292272
-0.301571
-0.308597
-0.311962
-0.309922
-0.301498
-0.286241
-0.264543
-0.237757
-0.207834
-0.176789
-0.14632
-0.117644
-0.0915219
-0.0683753
-0.0483607
-0.0314069
-0.0174325
-0.0066358
0.000611229
0.00444141
0.00593543
0.00680638
0.00231195
-0.00397771
-0.013858
-0.0270279
-0.0442564
-0.0686685
-0.101411
-0.135399
-0.155155
-0.150881
-0.126545
-0.0955285
-0.0676768
-0.0462542
-0.0306019
-0.0205111
-0.0165629
-0.0141031
-0.0130366
-0.0116504
-0.0169288
-0.0240323
-0.0412765
-0.0643249
-0.0813917
-0.0854041
-0.0683782
-0.0534634
-0.0358457
-0.0162657
-0.004516
0.00644086
0.00353373
-0.24058
-0.244595
-0.252258
-0.260843
-0.267756
-0.274783
-0.280624
-0.283473
-0.282211
-0.276047
-0.264474
-0.247575
-0.226089
-0.201232
-0.174434
-0.147087
-0.120372
-0.0951791
-0.0721047
-0.0515019
-0.0334911
-0.0180567
-0.00530105
0.00442124
0.0108092
0.0142052
0.0178876
0.011621
0.00565924
-0.00374572
-0.0163353
-0.0327711
-0.0562609
-0.0886277
-0.122956
-0.143755
-0.142914
-0.121695
-0.0929925
-0.0661356
-0.0449702
-0.0291372
-0.018385
-0.0136864
-0.0109024
-0.00992094
-0.00814606
-0.0133344
-0.0205687
-0.0388624
-0.0639487
-0.0827147
-0.0871813
-0.0693951
-0.0536015
-0.0354092
-0.0156298
-0.00363075
0.00793177
0.004277
-0.226948
-0.230958
-0.235753
-0.239346
-0.244154
-0.249143
-0.253262
-0.255359
-0.254558
-0.25013
-0.241554
-0.228659
-0.211696
-0.191317
-0.168473
-0.144268
-0.119794
-0.0959947
-0.0735964
-0.0530926
-0.0347519
-0.0187002
-0.00500471
0.00621217
0.0146142
0.0192775
0.0170733
0.0188459
0.0139668
0.00541343
-0.00633301
-0.0218545
-0.0440095
-0.0748842
-0.108405
-0.129856
-0.131299
-0.113851
-0.0879515
-0.062562
-0.0422138
-0.0267676
-0.0159103
-0.0107449
-0.00770825
-0.00691765
-0.00620886
-0.0101271
-0.0173159
-0.0360564
-0.062668
-0.0830903
-0.0881198
-0.0696911
-0.053235
-0.0345384
-0.0147858
-0.00267477
0.00936072
0.0049845
-0.214494
-0.223207
-0.22647
-0.228256
-0.230376
-0.233573
-0.236563
-0.237758
-0.236252
-0.231473
-0.223036
-0.210818
-0.195034
-0.176231
-0.155214
-0.13292
-0.11029
-0.0881431
-0.0671111
-0.0476327
-0.029962
-0.0142447
-0.000572359
0.0109514
0.0200898
0.0260236
0.0273989
0.0280127
0.0238698
0.0165725
0.00631046
-0.00806364
-0.0301607
-0.0629754
-0.099723
-0.123965
-0.125703
-0.1069
-0.0814219
-0.057139
-0.0379169
-0.0232711
-0.0128937
-0.0078179
-0.00464118
-0.00357475
-0.00202262
-0.00574591
-0.0127383
-0.0320769
-0.0608774
-0.0835301
-0.089656
-0.069756
-0.0524236
-0.0334146
-0.0138315
-0.00167327
0.010731
0.0056429
-0.200274
-0.211253
-0.214012
-0.213278
-0.214189
-0.216026
-0.217683
-0.217742
-0.215357
-0.210124
-0.201842
-0.19047
-0.176182
-0.159385
-0.140687
-0.120814
-0.100507
-0.0804379
-0.0611513
-0.0430542
-0.0264068
-0.0113989
0.00186941
0.0133503
0.0228539
0.0295607
0.0323132
0.0331083
0.0301928
0.0243914
0.0157388
0.00260046
-0.0192939
-0.0531299
-0.0907418
-0.1144
-0.11478
-0.0967802
-0.0732369
-0.0511131
-0.0335862
-0.0201063
-0.0102941
-0.00526856
-0.00211499
-0.00109696
0.00048254
-0.00278253
-0.00927902
-0.0287248
-0.0589706
-0.082952
-0.08951
-0.068956
-0.0508859
-0.0319243
-0.0127883
-0.000701707
0.0117791
0.00611455
-0.185313
-0.197128
-0.200026
-0.198919
-0.198306
-0.198744
-0.199225
-0.198444
-0.195581
-0.190319
-0.18256
-0.172289
-0.159601
-0.144757
-0.128187
-0.110449
-0.0921479
-0.0738587
-0.0560722
-0.0391806
-0.0234524
-0.0090905
0.00376865
0.0150285
0.0245621
0.0317894
0.035876
0.0371319
0.0351078
0.0304882
0.0229501
0.0103787
-0.0116154
-0.0448323
-0.0803492
-0.102227
-0.1022
-0.0859566
-0.0649363
-0.0451271
-0.0292782
-0.0169562
-0.00775437
-0.00286555
0.000251857
0.00120224
0.00297151
-0.00034576
-0.0067234
-0.0261543
-0.056849
-0.0811398
-0.0882389
-0.0675042
-0.0488673
-0.0301589
-0.0116422
0.000258216
0.0126535
0.00649118
-0.17092
-0.182344
-0.185455
-0.184231
-0.18275
-0.182198
-0.181863
-0.18056
-0.177496
-0.172377
-0.16515
-0.155822
-0.144457
-0.131234
-0.116475
-0.100615
-0.0841468
-0.0675504
-0.0512475
-0.0355936
-0.0208502
-0.00722299
0.00513
0.0160574
0.0254815
0.0330494
0.0378947
0.0398747
0.0389767
0.0356539
0.0292768
0.0172952
-0.00439743
-0.0360749
-0.069094
-0.0891839
-0.0886891
-0.0745191
-0.0563034
-0.0389656
-0.0248813
-0.0137981
-0.00528765
-0.000605997
0.00249121
0.00343656
0.00536753
0.0019809
-0.00437045
-0.0234749
-0.053859
-0.0781601
-0.0858984
-0.0653716
-0.046409
-0.0280858
-0.0103714
0.00119098
0.0133611
0.00679037
-0.15648
-0.167331
-0.170594
-0.169443
-0.167599
-0.166456
-0.165566
-0.163914
-0.160774
-0.155865
-0.149156
-0.140681
-0.130499
-0.118738
-0.10563
-0.0915009
-0.0767364
-0.0617312
-0.0468466
-0.0324042
-0.0186585
-0.00581911
0.00595082
0.0164693
0.0256661
0.033355
0.0385166
0.0412135
0.0414107
0.03943
0.0344548
0.0235292
0.00269656
-0.0272051
-0.0573057
-0.0740983
-0.0744028
-0.0627346
-0.0475931
-0.032825
-0.0205118
-0.0106775
-0.00290669
0.00151017
0.00459662
0.00556941
0.00757501
0.00426022
-0.00188565
-0.020183
-0.0498304
-0.07397
-0.0822636
-0.0624483
-0.0434878
-0.0257156
-0.00897585
0.00208038
0.0138763
0.00699623
-0.142147
-0.152531
-0.15586
-0.154854
-0.152914
-0.151453
-0.150211
-0.148358
-0.145252
-0.14063
-0.134467
-0.12681
-0.117717
-0.107275
-0.0956476
-0.0830773
-0.0698663
-0.0563402
-0.0428083
-0.0295574
-0.0168257
-0.00482269
0.00628726
0.0163085
0.0251648
0.0329451
0.0380469
0.0412457
0.0422808
0.0413964
0.0376868
0.0279793
0.00858456
-0.0186851
-0.0450209
-0.0593949
-0.0600224
-0.0510831
-0.0390594
-0.0268287
-0.0162387
-0.00762341
-0.00061903
0.00348313
0.00655262
0.00759238
0.00961763
0.00648977
0.000752479
-0.0163316
-0.0448172
-0.0684338
-0.0771932
-0.0586646
-0.0401196
-0.0230794
-0.00745919
0.00291286
0.0141768
0.00709171
-0.12854
-0.138213
-0.141475
-0.140642
-0.138754
-0.137167
-0.135757
-0.133844
-0.130869
-0.126592
-0.120989
-0.11411
-0.106008
-0.0967489
-0.0864486
-0.0752888
-0.0635048
-0.0513619
-0.0391213
-0.0270347
-0.0153212
-0.00418529
0.00620627
0.0156472
0.0239687
0.0306903
0.0366139
0.0401994
0.0417754
0.0415581
0.0386497
0.0301402
0.0130575
-0.0103852
-0.0325005
-0.0448153
-0.046241
-0.0400274
-0.0309415
-0.0211028
-0.0121412
-0.00467348
0.00156567
0.0053216
0.0083574
0.00951473
0.0115225
0.00866083
0.00344722
-0.0120884
-0.0388417
-0.0615353
-0.0706455
-0.0539981
-0.0363432
-0.0202271
-0.00583399
0.00367992
0.0142489
0.0070675
-0.115617
-0.124427
-0.127575
-0.126947
-0.125211
-0.123638
-0.122196
-0.120327
-0.11755
-0.113649
-0.108602
-0.102457
-0.0952634
-0.0870754
-0.0779757
-0.0680991
-0.0576273
-0.0467742
-0.0357589
-0.0248008
-0.0140985
-0.00384618
0.00579126
0.0146131
0.0224521
0.0290632
0.034627
0.0383317
0.0402023
0.0403195
0.037885
0.0306687
0.0165656
-0.00252724
-0.0206203
-0.0313435
-0.0337523
-0.029974
-0.0234477
-0.0157504
-0.00828378
-0.00186468
0.00363726
0.00703987
0.0100202
0.0113472
0.0133148
0.0107773
0.00616389
-0.0075021
-0.0319822
-0.0534291
-0.0627234
-0.0484884
-0.0322204
-0.0172266
-0.00412276
0.00438402
0.0140917
0.00692341
-0.103257
-0.111301
-0.114335
-0.113908
-0.112368
-0.11089
-0.109503
-0.107749
-0.105213
-0.101704
-0.0972008
-0.0917493
-0.085396
-0.0781836
-0.0701732
-0.0614645
-0.0521975
-0.042544
-0.0326867
-0.0228152
-0.0131069
-0.00374168
0.00512188
0.0132974
0.0206297
0.0269365
0.0321683
0.0358461
0.0378601
0.0381794
0.0361609
0.0302984
0.0191744
0.00415092
-0.0104315
-0.0198282
-0.0230299
-0.0211768
-0.0167174
-0.010845
-0.0047157
0.000765678
0.00558229
0.00864716
0.0115533
0.0130985
0.0150356
0.0128893
0.00896282
-0.00260191
-0.0244532
-0.0444169
-0.0538424
-0.0422591
-0.0278353
-0.0141605
-0.00235821
0.00504372
0.0137239
0.0066713
-0.0916817
-0.0989893
-0.101859
-0.101594
-0.100258
-0.0989227
-0.0976488
-0.0960565
-0.0937886
-0.090676
-0.0867002
-0.0819023
-0.0763247
-0.0700029
-0.0629823
-0.0553375
-0.0471762
-0.0386362
-0.0298683
-0.0210355
-0.0122938
-0.00380711
0.00427524
0.0117844
0.0185741
0.0244764
0.0293699
0.0329308
0.0350018
0.035485
0.0338896
0.0292564
0.0206651
0.00907171
-0.00252162
-0.0106301
-0.0142097
-0.0137114
-0.0108171
-0.0064325
-0.00147023
0.00318298
0.00738469
0.0101435
0.0129629
0.0147653
0.0167449
0.0150895
0.0119166
0.00250324
-0.0165923
-0.0349283
-0.0444272
-0.0355085
-0.0232892
-0.0111165
-0.000582274
0.00569768
0.0131889
0.00634055
-0.0809746
-0.0874934
-0.0901554
-0.0900334
-0.0889105
-0.0877431
-0.0866135
-0.0852084
-0.08322
-0.0804987
-0.0770263
-0.0728395
-0.0679769
-0.0624682
-0.056348
-0.0496724
-0.0425245
-0.0350143
-0.0272661
-0.019418
-0.0116066
-0.00397858
0.00332904
0.0101617
0.0163833
0.0218334
0.0263717
0.0297572
0.0318226
0.0324381
0.0312399
0.027639
0.0210778
0.0122544
0.00319108
-0.0036138
-0.00717691
-0.00752769
-0.00575576
-0.00253632
0.00143303
0.00535935
0.00902591
0.0115231
0.0142467
0.0163163
0.0184752
0.0174524
0.0150602
0.00764301
-0.00883725
-0.0254962
-0.0348876
-0.0284972
-0.0186954
-0.00817745
0.00115485
0.00640326
0.0125562
0.00598101
-0.0710172
-0.0767977
-0.0792568
-0.0792618
-0.0783443
-0.0773521
-0.0763803
-0.0751712
-0.0734602
-0.0711143
-0.0681155
-0.0644957
-0.0602892
-0.0555218
-0.0502199
-0.044426
-0.0382042
-0.0316423
-0.0248423
-0.0179203
-0.0109947
-0.00419478
0.00235535
0.00851616
0.0141594
0.0191352
0.0233052
0.0264785
0.0284939
0.0292162
0.0283842
0.0256472
0.0207033
0.0140796
0.00711189
0.00156153
-0.00170765
-0.00250986
-0.0015013
0.000837861
0.0039851
0.00727812
0.0104855
0.0127752
0.0153965
0.0176918
0.020164
0.0199381
0.0183342
0.0125726
-0.00168736
-0.016669
-0.0257151
-0.0215421
-0.0141789
-0.00541105
0.00279777
0.0072184
0.0119139
0.0056601
-0.0618071
-0.0669312
-0.0691909
-0.0692941
-0.0685603
-0.0677372
-0.0669249
-0.0659098
-0.0644646
-0.0624714
-0.0599121
-0.0568136
-0.0532063
-0.0491121
-0.0445517
-0.0395572
-0.0341784
-0.0284852
-0.0225609
-0.0165027
-0.0104118
-0.00440091
0.00141916
0.00692416
0.0119943
0.0164931
0.0202923
0.0232353
0.0251764
0.0259909
0.0254953
0.0234914
0.0198371
0.0149392
0.00967565
0.00527658
0.00245512
0.00148237
0.00200306
0.00369901
0.00618453
0.00893431
0.011745
0.0138787
0.0163947
0.018835
0.0216485
0.0222797
0.0214141
0.0168802
0.00441492
-0.00887193
-0.0173251
-0.0149666
-0.0098716
-0.00286845
0.00429318
0.0081682
0.0113391
0.00544791
-0.0533859
-0.0578892
-0.0599371
-0.0601082
-0.059544
-0.0588804
-0.0582206
-0.0573898
-0.0561923
-0.0545242
-0.0523672
-0.0497436
-0.0466795
-0.0431935
-0.039302
-0.0350293
-0.030414
-0.0255116
-0.0203901
-0.0151301
-0.00981754
-0.00454949
0.000576116
0.00545024
0.00996562
0.0139986
0.0174374
0.0201456
0.0220009
0.0228959
0.0227042
0.0213211
0.0186973
0.0151487
0.0112533
0.00786726
0.00555056
0.00459257
0.00482853
0.00606985
0.00803642
0.0103305
0.0127923
0.0148034
0.0172051
0.0197033
0.0227388
0.0240607
0.0237252
0.0200535
0.0092111
-0.00232959
-0.0100069
-0.00905766
-0.00590207
-0.000586781
0.00559142
0.00921367
0.0108811
0.00538233
-0.0457027
-0.0496324
-0.0514838
-0.0517269
-0.0512841
-0.0507584
-0.0502392
-0.0495771
-0.048605
-0.0472311
-0.0454374
-0.0432416
-0.0406659
-0.0377258
-0.0344341
-0.0308094
-0.0268815
-0.0226942
-0.0183026
-0.0137734
-0.00917901
-0.00460175
-0.000126663
0.00415141
0.00813859
0.0117245
0.0148192
0.0172978
0.019062
0.0200238
0.0200991
0.0192352
0.0174347
0.0149383
0.0121325
0.00960561
0.00779173
0.00695709
0.00705177
0.00798365
0.00955204
0.0114724
0.0136225
0.0155214
0.0177783
0.0202377
0.0232765
0.0249412
0.024828
0.0217898
0.0126488
0.00287756
-0.00394669
-0.00402844
-0.0023793
0.00141436
0.0066427
0.0102186
0.0105533
0.00544054
-0.0386881
-0.0421028
-0.0437609
-0.0440352
-0.0437249
-0.0433303
-0.0429406
-0.0424325
-0.0416628
-0.0405519
-0.0390824
-0.037268
-0.0351274
-0.0326735
-0.0299161
-0.0268691
-0.0235557
-0.0200102
-0.0162772
-0.0124108
-0.0084715
-0.00452874
-0.000654441
0.00306954
0.00656208
0.00972997
0.0124964
0.0147529
0.0164224
0.0174339
0.0177331
0.0172954
0.0161482
0.0144711
0.0125275
0.0107117
0.00935804
0.00870193
0.00875078
0.00948092
0.0107492
0.0123666
0.0142359
0.0160117
0.0180827
0.0203998
0.0232137
0.0248706
0.0247568
0.0222039
0.0148219
0.00675798
0.000803466
1.9879e-05
0.000621352
0.00313732
0.00740886
0.0109558
0.0103151
0.00553698
-0.0323214
-0.0352783
-0.0367565
-0.0370587
-0.0368581
-0.0365726
-0.0362933
-0.0359193
-0.0353279
-0.0344485
-0.0332647
-0.0317869
-0.0300305
-0.0280058
-0.0257205
-0.0231849
-0.0204167
-0.0174426
-0.0142982
-0.0110273
-0.00767957
-0.00431253
-0.000986718
0.00222834
0.00526731
0.00806204
0.0105043
0.0125458
0.0141167
0.0151588
0.0156352
0.0155378
0.0149016
0.0138586
0.0126002
0.0113484
0.0103972
0.00993791
0.010001
0.010606
0.0116509
0.0130226
0.0146376
0.0162683
0.01812
0.0202014
0.0226451
0.0240659
0.0238734
0.0216872
0.01593
0.00942488
0.00433785
0.00311191
0.00306108
0.00458448
0.00788074
0.0112285
0.0100547
0.00552764
-0.0265668
-0.029114
-0.0304257
-0.0307447
-0.0306291
-0.0304378
-0.0302551
-0.0299989
-0.029563
-0.0288851
-0.0279499
-0.0267658
-0.0253449
-0.0236959
-0.0218243
-0.0197375
-0.0174488
-0.014979
-0.0123561
-0.00961515
-0.00679641
-0.00394694
-0.0011168
0.00163643
0.00425576
0.00667808
0.00884043
0.0106862
0.0121577
0.0132086
0.0138173
0.0139808
0.0137361
0.0131827
0.0123834
0.0116264
0.0110267
0.0107633
0.010874
0.0114052
0.0122844
0.013455
0.0148389
0.0163031
0.0179149
0.0196963
0.0215418
0.0227901
0.022547
0.0206541
0.0162458
0.0110975
0.00684189
0.00536118
0.00493944
0.00574264
0.00806476
0.0109753
0.00965687
0.00526863
-0.0213743
-0.0235602
-0.0247207
-0.0250487
-0.0250088
-0.0249028
-0.0247977
-0.0246369
-0.0243314
-0.0238258
-0.0231049
-0.0221742
-0.0210437
-0.0197201
-0.0182077
-0.0165114
-0.0146411
-0.0126124
-0.0104473
-0.00817332
-0.00582278
-0.00343366
-0.00104654
0.00129113
0.00353098
0.00562006
0.00751498
0.00917575
0.0105428
0.0115792
0.0122742
0.0126278
0.0126783
0.012546
0.0120743
0.0116624
0.0113496
0.0112632
0.0114352
0.0119247
0.0126797
0.013684
0.0148586
0.0161438
0.0175122
0.0189896
0.0203962
0.0213162
0.0210397
0.0194041
0.0160469
0.0120177
0.00852107
0.00692329
0.00629245
0.00659532
0.00799372
0.010232
0.00831891
0.00470093
-0.0167008
-0.0185718
-0.0195965
-0.0199273
-0.0199479
-0.0199104
-0.0198751
-0.0197934
-0.0195964
-0.0192363
-0.0186977
-0.0179838
-0.017102
-0.0160578
-0.0148543
-0.0134946
-0.0119858
-0.0103396
-0.00857265
-0.00670653
-0.00476658
-0.0027831
-0.000788295
0.00117991
0.00308244
0.00487756
0.00653938
0.0080029
0.00925518
0.0102563
0.0109949
0.0114659
0.0116814
0.0116436
0.0116324
0.0115278
0.0114481
0.0115108
0.0117437
0.01221
0.0128692
0.0137331
0.0147223
0.0158245
0.0169572
0.0181444
0.0191864
0.0198066
0.0195099
0.018111
0.0155441
0.0123962
0.00956209
0.00795219
0.00718511
0.00714273
0.00774103
0.00924453
0.00739996
0.00399094
-0.0125085
-0.0141053
-0.0150082
-0.0153369
-0.0154063
-0.0154262
-0.0154483
-0.0154327
-0.0153237
-0.0150838
-0.0146982
-0.0141675
-0.0134969
-0.0126904
-0.01175
-0.0106778
-0.00947856
-0.00816081
-0.0067372
-0.00522409
-0.00364109
-0.00201161
-0.00036118
0.00128005
0.00288319
0.00441277
0.00583885
0.00713047
0.00826433
0.009215
0.00996736
0.0105176
0.0108794
0.011084
0.0112163
0.011303
0.0113925
0.0115696
0.0118533
0.0123035
0.0128864
0.0136301
0.0144567
0.0153797
0.0162939
0.017204
0.0179667
0.018349
0.0180432
0.0168564
0.0148765
0.0124068
0.0101207
0.0085709
0.00769875
0.00741294
0.00737828
0.00817233
0.00643937
0.0032675
-0.00875768
-0.0101167
-0.0109113
-0.0112346
-0.0113429
-0.0114096
-0.0114789
-0.0115189
-0.0114817
-0.0113384
-0.0110782
-0.0107003
-0.0102071
-0.0096007
-0.00888255
-0.0080537
-0.00711725
-0.00607914
-0.00494873
-0.00373829
-0.00246265
-0.00113968
0.000210953
0.0015659
0.00290245
0.00419325
0.00541513
0.0065408
0.00755416
0.00843212
0.00917084
0.00976266
0.0102148
0.0105514
0.0108076
0.0110255
0.0112326
0.0114911
0.011811
0.0122452
0.0127644
0.0134032
0.0140885
0.0148452
0.0155697
0.0162594
0.0167862
0.0169878
0.0166799
0.0156768
0.0141315
0.0121746
0.01032
0.00887646
0.00791775
0.00745252
0.00696842
0.007137
0.00551463
0.00262508
-0.00541034
-0.00656501
-0.00726432
-0.00757984
-0.00771873
-0.00782278
-0.00792972
-0.00801438
-0.00803757
-0.00797243
-0.00781079
-0.00755867
-0.00721248
-0.00677336
-0.00624141
-0.00561676
-0.00490129
-0.00409907
-0.00321686
-0.00226371
-0.00125062
-0.000190987
0.000900367
0.00200577
0.00310786
0.00418561
0.00522116
0.00619301
0.00708811
0.00788963
0.0085899
0.00918383
0.00967722
0.0100837
0.0104217
0.0107239
0.011007
0.0113172
0.0116572
0.0120721
0.0125348
0.0130805
0.0136449
0.0142537
0.0148157
0.015321
0.0156699
0.0157401
0.0154345
0.014586
0.0133598
0.0117865
0.0102588
0.00894295
0.00791783
0.00731985
0.00655055
0.00621522
0.00467991
0.00209994
-0.00243249
-0.00341234
-0.00402818
-0.00433434
-0.0044967
-0.00463031
-0.00476689
-0.00488713
-0.00495979
-0.00496299
-0.00488785
-0.00473023
-0.00450018
-0.00419654
-0.00381756
-0.00336206
-0.00283082
-0.00222605
-0.00155229
-0.000816027
-2.53982e-05
0.000809742
0.00167854
0.00256786
0.00346461
0.00435283
0.00521882
0.00604638
0.00682461
0.00753988
0.008186
0.00875767
0.00925701
0.00969204
0.0100721
0.0104203
0.0107456
0.0110816
0.0114266
0.0118168
0.0122272
0.0126899
0.0131512
0.0136323
0.0140585
0.0144149
0.0146306
0.0146084
0.0143073
0.0135847
0.0125905
0.0113065
0.0100177
0.00883374
0.00779479
0.00707328
0.00613996
0.00543949
0.00396938
0.00169305
0.000207887
-0.000622934
-0.0011659
-0.00146157
-0.00164133
-0.0017975
-0.00195633
-0.00210296
-0.00221241
-0.0022668
-0.00225858
-0.00218668
-0.00205165
-0.00185602
-0.00160146
-0.00128522
-0.000906338
-0.000465468
3.45235e-05
0.00058918
0.0011926
0.00183775
0.00251679
0.00322007
0.00393798
0.00465876
0.005372
0.00606518
0.0067295
0.0073544
0.00793441
0.00846435
0.00894383
0.00937697
0.00976769
0.0101312
0.0104712
0.0108117
0.0111478
0.0115075
0.0118687
0.0122572
0.0126304
0.0130026
0.0133173
0.0135566