/*--------------------------------*- C++ -*----------------------------------*\
| =========                 |                                                 |
| \\      /  F ield         | OpenFOAM: The Open Source CFD Toolbox           |
|  \\    /   O peration     | Version:  2512                                  |
|   \\  /    A nd           | Website:  www.openfoam.com                      |
|    \\/     M anipulation  |                                                 |
\*---------------------------------------------------------------------------*/
FoamFile
{
    version     2.0;
    format      ascii;
    arch        "LSB;label=32;scalar=64";
    class       volVectorField;
    location    "192.25";
    object      U;
}
// * * * * * * * * * * * * * * * * * * * * * * * * * * * * * * * * * * * * * //

dimensions      [0 1 -1 0 0 0 0];

internalField   nonuniform List<vector> 
13248
(
(-0.0144332 0.0126227 8.02164e-20)
(-0.0273212 0.0263561 0)
(-0.0245958 0.0333933 -1.51296e-19)
(-0.00628665 0.0363008 1.4252e-19)
(0.0276231 0.0367956 1.32983e-19)
(0.0770883 0.0360489 0)
(0.141861 0.0348759 0)
(0.221289 0.0338466 3.17365e-19)
(0.314099 0.0333275 -1.41987e-21)
(0.418226 0.0334894 -2.77468e-19)
(0.530751 0.0343022 2.59115e-19)
(0.647992 0.0355413 -1.61998e-19)
(0.765724 0.0368167 0)
(0.879524 0.0376276 -2.85968e-19)
(0.985158 0.0374359 5.36695e-19)
(1.07897 0.035748 -1.27878e-19)
(1.1582 0.0321922 -2.33705e-19)
(1.22126 0.0265567 2.1941e-19)
(1.26778 0.0188918 0)
(1.2986 0.00912689 0)
(1.31569 -0.00158583 0)
(1.32102 -0.016057 0)
(1.31783 -0.0250118 6.70907e-20)
(1.30684 -0.0545731 2.42169e-19)
(-0.0147796 0.0116905 -2.42305e-19)
(-0.0228593 0.0220115 1.65205e-19)
(-0.0105849 0.0257132 -1.64491e-21)
(0.0211378 0.0257985 -2.18074e-19)
(0.0717929 0.0243353 -1.32837e-19)
(0.14077 0.0227586 -1.25786e-19)
(0.226956 0.0220149 -2.2979e-19)
(0.328409 0.0226663 2.17956e-19)
(0.442134 0.0249348 0)
(0.564065 0.0287177 6.73175e-22)
(0.689288 0.0336136 1.85654e-21)
(0.812467 0.0389836 1.62743e-19)
(0.928389 0.0440488 0)
(1.03251 0.0480115 0)
(1.12139 0.0501776 1.96333e-19)
(1.19304 0.0500567 -3.69098e-19)
(1.24695 0.0474209 2.23412e-19)
(1.28405 0.0423161 -2.09764e-19)
(1.30639 0.0350116 -9.27565e-20)
(1.31675 0.0259615 -1.71352e-19)
(1.31804 0.0156671 -7.11744e-20)
(1.31306 0.00454459 -1.34362e-19)
(1.3036 -0.00538837 1.96074e-19)
(1.2924 -0.0194774 5.57749e-20)
(-0.0137772 0.0100445 0)
(-0.0140589 0.016615 0)
(0.0112698 0.0176476 7.71755e-20)
(0.060218 0.0162002 7.09245e-20)
(0.13135 0.0144792 -1.91238e-21)
(0.222897 0.0140369 -1.30843e-19)
(0.332106 0.0157835 0)
(0.454913 0.0200622 -1.08296e-19)
(0.585946 0.0267035 1.02385e-19)
(0.718911 0.0350906 1.21105e-21)
(0.847269 0.0442766 -1.74927e-19)
(0.965026 0.0531542 -1.61295e-19)
(1.06745 0.0606474 2.19359e-21)
(1.15154 0.065885 -1.35557e-19)
(1.21622 0.0683205 3.23856e-19)
(1.26222 0.0677785 0)
(1.29172 0.064428 -2.13656e-19)
(1.30775 0.0586879 1.03915e-19)
(1.31367 0.0511505 9.26879e-20)
(1.31254 0.0423347 0)
(1.3069 0.0330873 7.65889e-20)
(1.29833 0.0230156 -2.61532e-19)
(1.2881 0.0151805 2.45517e-19)
(1.27701 0.0021301 1.53447e-19)
(-0.0109539 0.00766842 -8.60859e-20)
(0.000164755 0.010177 -8.91191e-20)
(0.0422541 0.00930776 8.03632e-20)
(0.111983 0.00779457 0)
(0.206453 0.00772169 0)
(0.321955 0.0105129 -3.35012e-21)
(0.453231 0.0167457 0)
(0.593438 0.0262113 -3.34029e-19)
(0.734701 0.0380473 3.10395e-19)
(0.8691 0.0509424 -3.82884e-19)
(0.989767 0.0634103 8.7701e-20)
(1.09178 0.0740777 0)
(1.17264 0.081917 1.47225e-19)
(1.23225 0.0863757 -2.7314e-19)
(1.27252 0.0873873 6.50218e-20)
(1.29667 0.0852828 1.68706e-19)
(1.30848 0.0806423 -6.5698e-21)
(1.31157 0.0741431 -1.87739e-19)
(1.30898 0.0664199 0)
(1.3029 0.0580305 0)
(1.29475 0.049395 -6.7965e-20)
(1.28535 0.0406605 6.10853e-20)
(1.2752 0.0332097 2.20286e-19)
(1.26478 0.0223588 -2.06832e-19)
(-0.00590334 0.00473862 -9.10836e-20)
(0.0207249 0.00318742 -9.07336e-20)
(0.0833262 0.00147232 2.54999e-19)
(0.176846 0.0016319 -1.54633e-19)
(0.296195 0.00529201 1.45545e-19)
(0.43483 0.0133729 2.64112e-19)
(0.584291 0.0256978 -1.86944e-19)
(0.73486 0.041131 -2.2767e-19)
(0.876918 0.0579178 4.53469e-21)
(1.00245 0.0741103 2.90503e-19)
(1.10618 0.0879856 0)
(1.18597 0.09835 8.02568e-20)
(1.24265 0.104667 0)
(1.27917 0.107012 -1.31655e-19)
(1.29966 0.105903 1.85273e-19)
(1.30848 0.102086 1.893e-21)
(1.30948 0.0963381 -4.89468e-20)
(1.30562 0.0893418 9.23356e-20)
(1.29894 0.081632 7.96002e-20)
(1.29072 0.0735842 -7.16295e-20)
(1.28165 0.0655001 6.79506e-20)
(1.2721 0.0574338 -6.10714e-20)
(1.26228 0.0502356 0)
(1.25242 0.0406977 -4.61976e-20)
(0.00172273 0.00157027 9.10705e-20)
(0.0483082 -0.00347871 9.58268e-20)
(0.13496 -0.0045295 -8.55216e-20)
(0.254339 -0.000657224 1.59634e-19)
(0.398299 0.00884743 -1.50244e-19)
(0.556697 0.0238922 1.35922e-19)
(0.717723 0.0430847 -6.53836e-20)
(0.869624 0.0641238 1.70917e-19)
(1.00275 0.084459 -1.07671e-19)
(1.11105 0.101903 1.90675e-19)
(1.19252 0.115033 -4.40214e-19)
(1.24869 0.123314 1.61877e-19)
(1.28347 0.126976 -1.42001e-19)
(1.30183 0.126746 1.33386e-19)
(1.3087 0.123556 1.15773e-19)
(1.30817 0.11831 1.02136e-19)
(1.30329 0.111753 -2.84154e-19)
(1.29604 0.104436 1.76581e-19)
(1.28761 0.0967344 -7.96052e-20)
(1.27864 0.088905 2.08225e-19)
(1.26943 0.0811142 -6.72367e-20)
(1.2601 0.0734737 -1.6424e-19)
(1.25072 0.0663773 1.51722e-19)
(1.24133 0.0578179 4.61848e-20)
(0.01221 -0.00142898 0)
(0.0832817 -0.00869623 9.57453e-22)
(0.196933 -0.00706888 1.79773e-19)
(0.342836 0.00274053 -1.68468e-19)
(0.50897 0.0199273 -1.52069e-19)
(0.681315 0.0428274 2.82624e-19)
(0.845502 0.0685261 -1.3125e-19)
(0.989548 0.0936663 1.74717e-19)
(1.10596 0.11538 -3.84079e-21)
(1.19236 0.131867 -9.90207e-20)
(1.25072 0.142521 2.15977e-19)
(1.28579 0.147715 -3.19025e-19)
(1.30342 0.148409 0)
(1.30915 0.145759 -6.28521e-20)
(1.30749 0.140839 -1.68291e-19)
(1.30168 0.134498 5.28692e-20)
(1.29375 0.127337 2.0197e-21)
(1.2849 0.119752 -1.17397e-19)
(1.27572 0.111996 6.9419e-21)
(1.26648 0.104229 1.35982e-19)
(1.25729 0.0965621 -6.10146e-20)
(1.24816 0.0890884 -2.32335e-20)
(1.23907 0.0819232 7.14886e-20)
(1.23002 0.0740268 0)
(0.025743 -0.00378645 0)
(0.125569 -0.0112185 4.87793e-20)
(0.268149 -0.00448258 -2.34796e-19)
(0.439453 0.0134183 8.54974e-20)
(0.623148 0.0394923 -8.04639e-20)
(0.801922 0.0700795 -7.36132e-20)
(0.96063 0.10081 -1.29919e-19)
(1.08936 0.127805 6.49392e-20)
(1.1846 0.148595 5.63463e-20)
(1.24832 0.162342 0)
(1.28598 0.169509 1.28403e-19)
(1.30433 0.171311 -1.91359e-19)
(1.30976 0.16919 1.42417e-19)
(1.30737 0.164454 6.28867e-20)
(1.30073 0.158115 -5.17851e-20)
(1.29208 0.150869 -4.35165e-20)
(1.28266 0.143158 -4.07461e-20)
(1.27309 0.135249 1.21446e-19)
(1.26363 0.127304 0)
(1.25438 0.119428 6.14495e-20)
(1.24534 0.111701 5.19592e-20)
(1.23647 0.10419 -1.28738e-19)
(1.22771 0.0968874 -8.84835e-20)
(1.21902 0.0894374 8.17327e-20)
(0.0423479 -0.00498483 -5.27449e-20)
(0.174543 -0.00979354 -2.08543e-21)
(0.346579 0.00469341 4.7858e-20)
(0.540252 0.0324464 1.34035e-19)
(0.735207 0.0676995 3.90143e-20)
(0.912423 0.104734 -7.53655e-20)
(1.05836 0.138262 6.87616e-20)
(1.16718 0.164694 -6.01933e-20)
(1.24018 0.182637 1.07902e-19)
(1.28324 0.192517 4.59276e-20)
(1.30411 0.195812 -1.3048e-19)
(1.31024 0.194325 3.84438e-20)
(1.30757 0.189694 6.57984e-20)
(1.30025 0.183175 -3.23292e-20)
(1.29083 0.175617 0)
(1.28071 0.167541 4.85002e-20)
(1.27057 0.15925 8.23526e-20)
(1.2607 0.150919 1.42768e-20)
(1.25118 0.142651 -6.88199e-20)
(1.24201 0.134521 2.8909e-20)
(1.23315 0.126585 0)
(1.22452 0.118874 -2.28237e-20)
(1.21605 0.111351 -2.16644e-20)
(1.20767 0.104094 0)
(0.0618321 -0.00449127 0)
(0.228962 -0.003282 2.76533e-20)
(0.429355 0.0215378 5.12754e-20)
(0.640691 0.0602156 -1.36832e-19)
(0.839814 0.103935 4.42464e-20)
(1.00832 0.14536 0)
(1.13652 0.179177 6.63788e-20)
(1.22381 0.202914 -9.26789e-20)
(1.27601 0.216673 -5.39255e-20)
(1.30184 0.222142 2.43333e-20)
(1.31005 0.221568 -3.90852e-20)
(1.30777 0.217048 9.48256e-20)
(1.29999 0.210194 4.75674e-20)
(1.28981 0.20209 -3.30044e-20)
(1.2789 0.193391 -3.04333e-21)
(1.26807 0.184463 -9.09399e-20)
(1.25763 0.175505 4.14519e-20)
(1.2477 0.166629 -1.02634e-21)
(1.23825 0.157904 0)
(1.22925 0.149382 -2.89393e-20)
(1.22062 0.141099 0)
(1.21228 0.13306 6.58327e-20)
(1.20415 0.125269 -7.84691e-20)
(1.1961 0.118005 3.5806e-20)
(0.0837447 -0.00179714 -1.44559e-20)
(0.286988 0.00923289 -6.98904e-20)
(0.513015 0.0466223 7.95765e-20)
(0.736185 0.0964237 4.67913e-20)
(0.932612 0.147008 -2.23379e-20)
(1.08698 0.190336 3.75202e-20)
(1.19504 0.222087 -1.82197e-20)
(1.26147 0.241511 3.02893e-20)
(1.29573 0.250315 0)
(1.30808 0.25124 6.86648e-20)
(1.30724 0.246995 -2.80578e-21)
(1.29946 0.239714 -5.54667e-20)
(1.28862 0.230843 2.37912e-20)
(1.27687 0.221248 -2.69131e-20)
(1.26523 0.211404 -1.03067e-20)
(1.25411 0.201556 1.18297e-20)
(1.24362 0.191829 -9.1929e-21)
(1.23377 0.182294 -4.99369e-20)
(1.22451 0.172998 3.06227e-20)
(1.21575 0.163975 6.30326e-21)
(1.2074 0.15524 5.56473e-21)
(1.19938 0.146784 4.91461e-21)
(1.19159 0.138682 0)
(1.18388 0.131191 0)
(0.107447 0.00354781 1.44659e-20)
(0.346438 0.0283662 -1.449e-20)
(0.593997 0.0799578 -2.65363e-20)
(0.822753 0.140169 0)
(1.01062 0.195401 -1.11001e-20)
(1.14745 0.238118 -9.99914e-21)
(1.23503 0.265864 -1.70954e-20)
(1.28272 0.279913 0)
(1.30236 0.283438 0)
(1.30468 0.279924 0)
(1.29768 0.272253 0)
(1.28647 0.262424 0)
(1.27393 0.251646 -1.49869e-20)
(1.26143 0.240572 6.83299e-21)
(1.24953 0.229528 1.18911e-20)
(1.23841 0.218668 5.55623e-21)
(1.22807 0.208066 1.38107e-20)
(1.21844 0.197765 0)
(1.20947 0.187794 -3.33552e-21)
(1.20106 0.178171 -3.18171e-21)
(1.1931 0.168894 -5.57359e-21)
(1.18549 0.159964 -4.92246e-21)
(1.17812 0.151516 0)
(1.17084 0.143633 3.56179e-21)
(-0.0019044 0.0365513 9.24538e-21)
(-0.0069657 0.0947094 -9.55127e-21)
(-0.0149777 0.140764 -1.80297e-20)
(-0.0249811 0.175972 0)
(-0.0362513 0.201969 -2.40385e-20)
(-0.0482267 0.22077 7.53409e-21)
(-0.0603638 0.234427 -1.4293e-20)
(-0.0721738 0.244715 0)
(-0.0832564 0.252938 0)
(-0.0933009 0.259875 0)
(-0.10207 0.265826 0)
(-0.109379 0.270716 0)
(-0.11507 0.274206 -1.14194e-23)
(-0.118998 0.275794 -9.81464e-21)
(-0.121015 0.274877 1.91059e-20)
(-0.120974 0.270808 2.74031e-20)
(-0.118727 0.262929 9.0169e-21)
(-0.114136 0.250601 0)
(-0.107085 0.23325 7.98354e-21)
(-0.0974941 0.210397 -2.30522e-20)
(-0.0853041 0.181712 -1.49241e-20)
(-0.0704632 0.147108 -1.42852e-20)
(-0.0529068 0.106789 0)
(-0.0328456 0.0616502 0)
(-0.00379001 0.0378577 -2.78354e-20)
(-0.0105476 0.09872 4.78064e-20)
(-0.0177039 0.147493 -1.81408e-20)
(-0.0253547 0.185171 -3.41014e-20)
(-0.0333725 0.213154 4.81287e-20)
(-0.0415161 0.233294 -3.03699e-20)
(-0.0494487 0.247579 4.28512e-20)
(-0.0567921 0.257806 2.71337e-20)
(-0.0631751 0.265357 0)
(-0.0682615 0.271116 -2.45702e-20)
(-0.0717608 0.275483 -5.87035e-22)
(-0.0734273 0.278461 2.16641e-20)
(-0.0730522 0.279762 3.16068e-20)
(-0.0704561 0.278912 4.06981e-20)
(-0.0654839 0.27533 -1.82456e-20)
(-0.0580059 0.268386 -5.49479e-20)
(-0.0479201 0.257442 1.86028e-20)
(-0.0351496 0.241896 -6.87405e-20)
(-0.0196716 0.221204 0)
(-0.00155006 0.194918 1.55306e-20)
(0.019139 0.162733 1.48976e-20)
(0.0423243 0.124559 1.42595e-20)
(0.0681278 0.0806886 0)
(0.0971342 0.0322798 0)
(-0.00561436 0.0371716 0)
(-0.0141909 0.0982307 9.66294e-20)
(-0.020704 0.148277 -3.64012e-20)
(-0.0260961 0.187697 3.41903e-20)
(-0.0307397 0.217421 -9.68095e-20)
(-0.0346905 0.23895 0)
(-0.037835 0.254052 -5.75815e-20)
(-0.0399442 0.264426 2.70527e-20)
(-0.0407223 0.271466 -5.14675e-20)
(-0.0398511 0.276129 2.44964e-20)
(-0.0370232 0.278921 1.40316e-19)
(-0.031962 0.279954 -6.59979e-20)
(-0.0244315 0.279038 -1.06971e-19)
(-0.0142402 0.275779 -4.26056e-20)
(-0.00124336 0.269666 -1.92856e-21)
(0.0146537 0.260132 1.51022e-19)
(0.033492 0.246609 -7.18465e-20)
(0.0552588 0.228561 -6.15158e-22)
(0.0798836 0.205509 0)
(0.107227 0.177058 -6.62489e-20)
(0.137091 0.142944 0)
(0.169274 0.103018 -6.20138e-20)
(0.203589 0.0575445 2.34216e-19)
(0.242893 0.00737207 1.62805e-21)
(-0.00713631 0.0347821 0)
(-0.017459 0.0936478 2.15954e-22)
(-0.0236479 0.143338 3.66039e-20)
(-0.0271482 0.183456 -3.44008e-20)
(-0.0286603 0.214338 3.22913e-20)
(-0.0284678 0.237026 1.82683e-19)
(-0.0266673 0.252943 -5.73537e-20)
(-0.0232045 0.263587 -5.4176e-20)
(-0.0179071 0.270273 1.02714e-19)
(-0.010532 0.273985 -1.47125e-19)
(-0.000810621 0.275317 4.58766e-20)
(0.0115166 0.274499 4.4243e-20)
(0.0266751 0.271467 0)
(0.0448405 0.265948 4.07571e-20)
(0.0661296 0.257538 0)
(0.090597 0.24577 7.56136e-20)
(0.118233 0.230168 -1.48924e-19)
(0.14897 0.210279 3.09265e-20)
(0.182684 0.185699 1.35379e-19)
(0.219219 0.156084 6.61642e-20)
(0.258301 0.121194 0)
(0.300036 0.0808974 -1.86852e-19)
(0.342669 0.0353764 5.83581e-20)
(0.394864 -0.0149295 0)
(-0.00821568 0.0311807 0)
(-0.0200625 0.0858401 -1.16874e-19)
(-0.0263032 0.133499 -3.64913e-20)
(-0.0284835 0.172992 -6.87509e-20)
(-0.0274181 0.204085 6.47306e-20)
(-0.0235193 0.227335 -6.08244e-20)
(-0.0170513 0.243772 1.14715e-19)
(-0.00813611 0.254613 5.46755e-20)
(0.00324099 0.261021 -1.53192e-19)
(0.0171953 0.263938 9.76205e-20)
(0.0338993 0.264005 -1.389e-19)
(0.0535423 0.26155 3.08618e-19)
(0.0762977 0.256638 -1.67103e-19)
(0.102301 0.249128 8.03996e-20)
(0.131636 0.238743 2.35574e-19)
(0.164334 0.225132 -7.12184e-20)
(0.200376 0.207914 -6.78001e-20)
(0.239703 0.186709 -6.89462e-20)
(0.282211 0.161169 0)
(0.327859 0.131008 -1.34175e-19)
(0.376279 0.0960111 -1.32859e-19)
(0.428784 0.0561276 1.82076e-19)
(0.479563 0.0111999 2.38239e-19)
(0.547596 -0.0382582 -2.22309e-19)
(-0.00884773 0.0269653 0)
(-0.0219323 0.0759836 -1.56335e-19)
(-0.0285931 0.120053 4.50765e-22)
(-0.0301028 0.157441 1.37948e-19)
(-0.0271885 0.187481 0)
(-0.0202865 0.210326 0)
(-0.00976705 0.226628 0)
(0.00409704 0.237303 -5.41199e-20)
(0.0211572 0.243312 -6.08722e-22)
(0.0413751 0.245495 9.55505e-20)
(0.0647926 0.244484 -1.39059e-19)
(0.0914972 0.240666 -1.09082e-21)
(0.121592 0.234204 0)
(0.155176 0.225072 -8.03574e-20)
(0.192328 0.213113 7.81987e-20)
(0.233114 0.198076 -2.19254e-19)
(0.277576 0.179665 2.88221e-19)
(0.325763 0.157575 7.49923e-20)
(0.377689 0.131512 8.08614e-21)
(0.433603 0.101258 -2.55411e-19)
(0.492462 0.0664262 -1.23165e-19)
(0.557709 0.0274944 4.21461e-19)
(0.617166 -0.0165243 -2.82282e-19)
(0.703051 -0.0639426 0)
(-0.00916572 0.0227489 7.64856e-20)
(-0.0232321 0.065377 7.82782e-20)
(-0.0305987 0.104585 -7.338e-20)
(-0.0319967 0.138407 -1.37107e-19)
(-0.0279213 0.165971 1.29085e-19)
(-0.0187504 0.18717 -1.2035e-19)
(-0.00489494 0.202368 1.69508e-19)
(0.0132709 0.212208 -5.40166e-20)
(0.035468 0.217438 9.99292e-20)
(0.0615254 0.218766 0)
(0.0913716 0.216763 9.00064e-20)
(0.125016 0.211827 -1.6783e-19)
(0.162528 0.204171 1.6454e-19)
(0.204025 0.193844 -1.54529e-19)
(0.249648 0.180774 0)
(0.299567 0.164795 1.44591e-19)
(0.353964 0.145689 2.8165e-19)
(0.413014 0.123207 -2.66068e-19)
(0.476674 0.0970616 -1.28473e-19)
(0.545307 0.0672348 -1.31217e-19)
(0.616751 0.0330302 3.62422e-19)
(0.696325 -0.00375682 1.15746e-19)
(0.76485 -0.0460325 -1.06636e-19)
(0.866416 -0.0885838 1.00677e-19)
(-0.00940704 0.0190621 -7.64962e-20)
(-0.0242895 0.0552268 2.3457e-19)
(-0.0324673 0.0887142 -7.38313e-20)
(-0.0340189 0.117731 1.36826e-19)
(-0.0291461 0.141464 -1.28821e-19)
(-0.0181226 0.159726 8.63829e-23)
(-0.00133855 0.172713 5.61958e-20)
(0.0208031 0.180874 2.09085e-19)
(0.0479701 0.184773 1.99288e-22)
(0.0799404 0.184978 -9.34377e-20)
(0.116614 0.181978 0)
(0.158009 0.176133 -8.39905e-20)
(0.204238 0.167665 1.58215e-19)
(0.255501 0.156661 1.54235e-19)
(0.312036 0.143103 -7.24204e-20)
(0.374064 0.126874 -1.78223e-21)
(0.44169 0.107801 -6.89062e-20)
(0.514881 0.0857201 1.29177e-19)
(0.593132 0.0604063 1.28456e-19)
(0.676246 0.0322327 -1.23747e-19)
(0.760742 0.000131083 1.13904e-19)
(0.851624 -0.0324353 -1.08045e-19)
(0.92654 -0.0713354 0)
(1.03256 -0.105205 -1.00669e-19)
(-0.00984033 0.0162648 7.64889e-20)
(-0.0254394 0.0464406 -7.83898e-20)
(-0.0342137 0.0738252 7.35309e-20)
(-0.0356545 0.0972041 0)
(-0.0296914 0.116074 0)
(-0.0164756 0.13034 1.18654e-19)
(0.00368598 0.140169 -1.11944e-19)
(0.0304576 0.145902 1.03381e-19)
(0.0635699 0.147981 -4.88149e-19)
(0.102869 0.146859 -2.55459e-22)
(0.148329 0.142935 8.61636e-20)
(0.200043 0.136519 0)
(0.258178 0.127816 -1.57679e-19)
(0.32289 0.11691 2.98978e-19)
(0.394232 0.10379 -2.14111e-19)
(0.472057 0.0883805 -3.48058e-19)
(0.555876 0.0705864 -6.4064e-21)
(0.644781 0.0503653 2.47342e-19)
(0.737197 0.0276081 0)
(0.831523 0.00291128 0)
(0.923589 -0.0248853 -1.1391e-19)
(1.01541 -0.0514116 1.08052e-19)
(1.08856 -0.0849228 -3.92617e-19)
(1.17969 -0.108091 3.67641e-19)
(-0.0106606 0.0144762 0)
(-0.0268101 0.0394677 0)
(-0.0354693 0.0608367 -2.20271e-19)
(-0.0357662 0.0782751 7.02524e-20)
(-0.0274376 0.0917815 1.3457e-21)
(-0.0105061 0.1015 1.20084e-19)
(0.0148676 0.107678 0)
(0.0485072 0.11065 -1.03676e-19)
(0.0902963 0.110797 9.73225e-20)
(0.140201 0.108497 -1.81642e-19)
(0.198244 0.10408 -5.26112e-22)
(0.264431 0.097798 1.63139e-19)
(0.338644 0.0898036 2.05839e-21)
(0.420529 0.0801564 1.5071e-19)
(0.509351 0.0688461 -2.08729e-19)
(0.603903 0.0558159 0)
(0.702444 0.0410012 2.60036e-19)
(0.80269 0.0243676 -3.69308e-19)
(0.901859 0.00591933 1.1489e-19)
(0.996977 -0.0139689 0)
(1.08422 -0.0358908 1.02056e-19)
(1.16253 -0.0564794 3.93866e-19)
(1.22186 -0.0833727 -3.69671e-19)
(1.28141 -0.0978212 -4.13552e-19)
(-0.0118833 0.0135476 2.30652e-19)
(-0.0281314 0.0342222 -3.1649e-19)
(-0.0353109 0.0500552 1.2e-21)
(-0.0325062 0.0618126 7.00112e-20)
(-0.0193758 0.0700981 -1.29333e-19)
(0.00417537 0.075386 -1.19609e-19)
(0.0381506 0.0780928 2.2174e-19)
(0.0825321 0.0786151 -2.00899e-21)
(0.137284 0.07733 -1.94422e-19)
(0.202297 0.0745724 3.63486e-19)
(0.277284 0.070608 6.58937e-22)
(0.361648 0.0656094 -1.60817e-19)
(0.454354 0.059652 0)
(0.553835 0.0527154 0)
(0.657949 0.044703 -6.97143e-20)
(0.764016 0.0354671 -1.30252e-19)
(0.868933 0.0248634 -2.51927e-19)
(0.969334 0.0127336 2.36475e-19)
(1.06191 -0.000863823 -1.14955e-19)
(1.14352 -0.0160737 2.10934e-19)
(1.21176 -0.032412 -1.03414e-19)
(1.26529 -0.049269 1.80358e-19)
(1.30158 -0.0696505 -4.23811e-19)
(1.32748 -0.0806676 8.13032e-20)
(-0.0132853 0.0130926 7.7577e-20)
(-0.0286683 0.0301326 0)
(-0.0322825 0.0411699 1.49125e-19)
(-0.0235218 0.0479951 -1.40478e-19)
(-0.00210641 0.051817 1.29455e-19)
(0.0321008 0.0534725 0)
(0.0791516 0.0535824 0)
(0.138967 0.0526374 -1.04002e-19)
(0.211226 0.0510272 1.18507e-21)
(0.295211 0.0490363 9.17594e-20)
(0.389666 0.0468303 -8.59226e-20)
(0.492685 0.0444423 1.61044e-19)
(0.601693 0.0417746 0)
(0.713516 0.0386147 2.89263e-19)
(0.824552 0.0346693 -5.45193e-19)
(0.931018 0.0296099 3.87218e-19)
(1.02925 0.0231435 2.4319e-19)
(1.11598 0.0150017 -2.28293e-19)
(1.18873 0.00521945 0)
(1.24585 -0.00660661 0)
(1.28719 -0.0191717 0)
(1.31321 -0.0347917 0)
(1.32622 -0.0489376 8.13173e-20)
(1.32974 -0.0640286 -2.80115e-19)
(-0.00889108 0.00581469 -8.82851e-21)
(0.0182683 -0.06914 8.89915e-21)
(0.0482034 -0.152568 -2.76559e-22)
(0.0797818 -0.240168 0)
(0.112023 -0.327421 -7.04544e-21)
(0.143584 -0.409541 1.31135e-20)
(0.172557 -0.48156 -6.39121e-22)
(0.196398 -0.539594 -5.29862e-21)
(0.212377 -0.582123 0)
(0.21842 -0.610404 0)
(0.214735 -0.626325 -1.89136e-22)
(0.205961 -0.628349 -1.64305e-22)
(0.201916 -0.608494 -2.71161e-21)
(0.214079 -0.554278 2.48958e-21)
(0.249373 -0.456471 0)
(0.305949 -0.316174 0)
(0.376197 -0.144375 2.81197e-21)
(0.451915 0.0421068 -8.10211e-23)
(0.526511 0.221534 -2.43224e-21)
(0.594037 0.369005 -1.23297e-22)
(0.649029 0.468548 0)
(0.687771 0.520217 0)
(0.710515 0.535092 0)
(0.721154 0.527593 0)
(0.720252 0.51675 0)
(0.70259 0.520583 0)
(0.66817 0.53498 3.84055e-22)
(0.632738 0.520436 -6.26479e-22)
(0.619264 0.429828 0)
(0.638353 0.252226 0)
(0.682037 0.0294962 -7.01537e-22)
(0.735194 -0.17743 6.81784e-22)
(0.782602 -0.326258 2.7894e-22)
(0.815586 -0.407316 0)
(0.83559 -0.435618 0)
(0.842099 -0.437161 2.51674e-22)
(0.828211 -0.447484 -2.44645e-22)
(0.788626 -0.459795 0)
(0.738812 -0.442681 2.68979e-22)
(0.706038 -0.341294 -3.95698e-22)
(0.70429 -0.171447 1.46405e-22)
(0.73095 0.0259319 0)
(0.772671 0.189843 -2.32852e-22)
(0.813508 0.290128 2.2642e-22)
(0.836348 0.359735 0)
(0.820717 0.389443 0)
(0.780735 0.418122 -7.41593e-23)
(0.746113 0.3433 2.29912e-22)
(0.740532 0.219302 0)
(0.769778 0.0355984 0)
(0.81137 -0.127857 -6.30891e-23)
(0.826154 -0.21872 -3.73081e-24)
(0.818722 -0.349529 -7.77065e-24)
(0.789228 -0.324829 3.46125e-23)
(0.786848 -0.334109 0)
(0.794527 -0.173344 0)
(0.807516 0.0120715 0)
(0.799419 0.106708 0)
(0.803457 0.366608 0)
(0.785452 0.233208 0)
(0.129028 -0.0256135 -9.31983e-22)
(0.159691 -0.101538 -3.83293e-20)
(0.190886 -0.186215 1.2777e-21)
(0.223028 -0.274675 3.47244e-20)
(0.25436 -0.361762 5.07005e-22)
(0.283328 -0.442105 0)
(0.308166 -0.510076 -2.27582e-20)
(0.326576 -0.561196 4.20159e-20)
(0.336007 -0.593808 -1.92403e-20)
(0.333848 -0.610097 1.34086e-20)
(0.318241 -0.615238 -1.28446e-20)
(0.290544 -0.612929 9.64486e-21)
(0.258617 -0.599362 -9.36105e-21)
(0.236164 -0.561522 -2.46647e-22)
(0.236422 -0.484036 -9.05395e-21)
(0.264535 -0.360542 8.79897e-21)
(0.316081 -0.198546 -9.46956e-21)
(0.382837 -0.0159478 8.94186e-21)
(0.456232 0.164638 -8.20557e-21)
(0.528274 0.31904 1.47325e-20)
(0.592036 0.430109 -6.58431e-21)
(0.642029 0.494875 -2.80881e-22)
(0.677093 0.521095 -3.8048e-21)
(0.69905 0.522894 7.19889e-21)
(0.706256 0.5215 -3.40273e-21)
(0.694352 0.534466 2.19755e-22)
(0.667171 0.552892 4.43693e-21)
(0.643338 0.533284 1.07943e-21)
(0.643343 0.430649 -1.09519e-20)
(0.673286 0.240267 1.21419e-20)
(0.722771 0.00887467 -6.17128e-21)
(0.776266 -0.200063 7.29877e-22)
(0.819396 -0.34455 -2.79485e-22)
(0.844611 -0.418736 4.48509e-22)
(0.855316 -0.440604 0)
(0.853926 -0.434971 0)
(0.835911 -0.436469 -8.77321e-22)
(0.792973 -0.44219 6.53104e-22)
(0.738511 -0.426309 7.51008e-22)
(0.698212 -0.334106 2.71761e-22)
(0.691154 -0.176229 -1.18612e-21)
(0.716023 0.012611 2.4744e-22)
(0.760348 0.174082 0)
(0.805141 0.278671 0)
(0.830146 0.357811 0)
(0.817387 0.396905 0)
(0.779263 0.42864 3.02341e-22)
(0.749762 0.349622 -1.57942e-22)
(0.745692 0.216789 0)
(0.776653 0.0272618 0)
(0.818723 -0.135314 0)
(0.833755 -0.219402 -1.03712e-22)
(0.827124 -0.345221 1.98604e-23)
(0.794203 -0.32132 -7.74191e-23)
(0.792126 -0.334541 0)
(0.795042 -0.175285 0)
(0.805553 0.011316 4.86039e-23)
(0.796144 0.107276 1.18879e-22)
(0.79884 0.367912 0)
(0.783647 0.234293 0)
(0.277855 -0.0513388 1.42936e-21)
(0.311186 -0.128403 -8.165e-20)
(0.343349 -0.213064 7.78135e-20)
(0.3755 -0.300705 -7.27636e-20)
(0.405372 -0.386353 -5.10341e-22)
(0.43096 -0.46445 0)
(0.450484 -0.528856 -4.841e-20)
(0.461959 -0.574499 4.73551e-20)
(0.463718 -0.599154 2.76338e-22)
(0.454253 -0.604577 4.42393e-22)
(0.4315 -0.597026 3.50963e-22)
(0.393752 -0.584691 3.07329e-22)
(0.34384 -0.570497 -1.53701e-20)
(0.29308 -0.545459 1.5187e-20)
(0.258424 -0.491129 0)
(0.253059 -0.392119 3.87464e-22)
(0.279317 -0.248296 -1.50892e-20)
(0.330607 -0.0753119 1.49247e-20)
(0.397651 0.102702 0)
(0.470617 0.261837 0)
(0.540345 0.38346 -9.71002e-21)
(0.599889 0.461354 1.75512e-20)
(0.646365 0.499982 -1.46084e-20)
(0.678957 0.512897 2.75792e-22)
(0.694126 0.52232 1.32284e-20)
(0.688891 0.544364 -1.46698e-20)
(0.67047 0.566132 1.60475e-20)
(0.658941 0.541989 1.49726e-21)
(0.672032 0.429846 -1.06124e-20)
(0.712278 0.230004 0)
(0.766969 -0.0074345 0)
(0.819874 -0.21711 4.0201e-21)
(0.85795 -0.357365 -5.36451e-21)
(0.87519 -0.425428 1.35411e-23)
(0.876679 -0.44213 2.45269e-21)
(0.867381 -0.43086 -2.38365e-21)
(0.845585 -0.424537 0)
(0.800282 -0.42389 2.00514e-22)
(0.742245 -0.409292 1.89203e-21)
(0.69482 -0.326846 -3.9047e-21)
(0.682252 -0.181889 1.80936e-21)
(0.704789 -0.00252705 1.81965e-22)
(0.751001 0.156278 -1.9006e-21)
(0.798978 0.265559 1.4794e-21)
(0.825854 0.35475 2.96691e-22)
(0.816256 0.403397 2.8754e-22)
(0.780562 0.438472 -3.03124e-22)
(0.756464 0.355989 0)
(0.753981 0.214966 0)
(0.786067 0.0199183 -1.4762e-21)
(0.827984 -0.142323 6.78964e-22)
(0.842998 -0.219681 -5.24152e-22)
(0.836951 -0.340422 5.95331e-22)
(0.800162 -0.31751 5.63459e-22)
(0.798203 -0.334699 -1.44365e-22)
(0.79666 -0.17703 1.98996e-22)
(0.804921 0.0107999 -1.71525e-22)
(0.794058 0.107846 5.03585e-23)
(0.79521 0.369024 0)
(0.782812 0.235267 0)
(0.429969 -0.0729837 -1.71226e-19)
(0.465295 -0.150465 2.59349e-21)
(0.499368 -0.23443 1.60588e-19)
(0.532147 -0.320009 -1.16355e-21)
(0.560699 -0.402969 0)
(0.582683 -0.477814 0)
(0.596257 -0.53805 -9.84893e-20)
(0.599613 -0.578519 1.37104e-20)
(0.591816 -0.597008 1.11221e-19)
(0.573069 -0.594697 -6.38922e-21)
(0.543443 -0.576583 -2.51577e-20)
(0.501245 -0.551705 -1.52624e-20)
(0.444548 -0.529038 1.53372e-20)
(0.37751 -0.508051 0)
(0.314636 -0.473507 -1.0779e-20)
(0.27487 -0.40365 9.8065e-21)
(0.270037 -0.286955 0)
(0.299328 -0.131759 0)
(0.354321 0.0388132 1.02885e-20)
(0.423418 0.199458 -9.67472e-22)
(0.495487 0.329752 -8.48323e-21)
(0.56219 0.420122 -6.87058e-21)
(0.618411 0.471777 6.78636e-21)
(0.660436 0.497131 -6.3692e-21)
(0.683259 0.518077 -4.91679e-22)
(0.685422 0.548742 6.49956e-21)
(0.676763 0.573469 1.01475e-21)
(0.677772 0.54619 -2.06589e-24)
(0.703486 0.427956 0)
(0.753332 0.22228 1.4213e-20)
(0.812899 -0.0189928 -1.46946e-20)
(0.865012 -0.228861 7.7323e-22)
(0.89772 -0.365425 0)
(0.907017 -0.428063 -4.67442e-22)
(0.899559 -0.44057 4.92825e-21)
(0.882344 -0.425199 -8.05952e-21)
(0.856848 -0.41229 1.7907e-22)
(0.810083 -0.40531 1.92528e-22)
(0.749843 -0.391391 2.41974e-21)
(0.69607 -0.318894 4.09156e-22)
(0.677827 -0.187894 -3.28728e-21)
(0.697312 -0.0189725 2.76218e-21)
(0.744506 0.136732 5.25189e-23)
(0.794902 0.250861 1.21389e-21)
(0.823407 0.350385 -1.4779e-21)
(0.817269 0.408638 -2.0814e-21)
(0.784553 0.447439 5.4854e-22)
(0.766102 0.362436 1.62418e-21)
(0.765356 0.214097 -3.25201e-21)
(0.79795 0.0137336 2.40691e-21)
(0.839041 -0.148803 -5.34162e-22)
(0.85374 -0.219645 7.6568e-22)
(0.848095 -0.335134 5.25846e-22)
(0.807022 -0.313302 -8.31173e-22)
(0.804938 -0.334544 1.98556e-23)
(0.79926 -0.178623 -1.44726e-22)
(0.80556 0.0105038 0)
(0.793114 0.108441 -8.41527e-23)
(0.792551 0.369962 1.02972e-22)
(0.782971 0.236137 0)
(0.581923 -0.0941613 1.71545e-19)
(0.618341 -0.169901 -3.35159e-19)
(0.654741 -0.250945 1.6107e-19)
(0.68835 -0.332369 1.46463e-19)
(0.715025 -0.410765 -2.75426e-19)
(0.732548 -0.480665 1.38227e-20)
(0.739257 -0.535482 1.13019e-19)
(0.733615 -0.570456 8.03689e-20)
(0.715398 -0.583949 -7.86759e-20)
(0.686016 -0.577252 0)
(0.647636 -0.553974 -3.7947e-20)
(0.601206 -0.520572 6.55176e-20)
(0.544395 -0.486844 -2.78672e-20)
(0.474543 -0.460198 0)
(0.397238 -0.435062 0)
(0.329635 -0.391199 2.80733e-22)
(0.291565 -0.30732 -1.50876e-20)
(0.292361 -0.178981 1.46586e-20)
(0.328629 -0.0228923 0)
(0.388617 0.134222 1.35124e-20)
(0.458995 0.270234 -2.43556e-20)
(0.529673 0.371662 2.16803e-20)
(0.593086 0.43636 -2.07177e-20)
(0.642809 0.474923 -9.9528e-22)
(0.67276 0.507667 2.33685e-20)
(0.682824 0.546528 -1.24656e-20)
(0.684546 0.574329 -5.09098e-22)
(0.697983 0.546072 -1.07413e-20)
(0.735447 0.425429 -2.44807e-21)
(0.794231 0.217443 1.31026e-20)
(0.858883 -0.0255932 8.9815e-22)
(0.910581 -0.235062 -1.18456e-20)
(0.937926 -0.368416 2.0691e-20)
(0.939436 -0.426488 -9.88866e-21)
(0.923521 -0.435841 0)
(0.898634 -0.417928 -4.2066e-21)
(0.86952 -0.399964 3.98565e-21)
(0.822034 -0.387049 -2.21092e-21)
(0.760982 -0.373108 2.76744e-21)
(0.701935 -0.310172 -2.90585e-22)
(0.677964 -0.193802 0)
(0.693548 -0.0364735 -3.07464e-22)
(0.740632 0.11569 8.89333e-22)
(0.792722 0.234549 0)
(0.822655 0.344463 2.73451e-21)
(0.820262 0.41232 -1.04388e-21)
(0.791054 0.45536 6.49276e-22)
(0.778414 0.368953 8.25297e-22)
(0.77959 0.214317 0)
(0.812167 0.00893033 0)
(0.851779 -0.154626 -1.98346e-21)
(0.865817 -0.219281 2.79417e-21)
(0.860443 -0.329279 -1.3561e-21)
(0.814724 -0.308598 3.42189e-22)
(0.812197 -0.334064 4.71698e-22)
(0.802705 -0.180131 1.44863e-22)
(0.807385 0.0103998 -1.89447e-22)
(0.793255 0.109084 0)
(0.790846 0.370737 -1.65162e-22)
(0.784138 0.2369 -2.34055e-23)
(0.735345 -0.116604 1.68571e-19)
(0.771039 -0.188137 -1.68017e-19)
(0.808025 -0.263281 1.25871e-21)
(0.840381 -0.338007 -1.1298e-21)
(0.862896 -0.409748 1.08001e-21)
(0.873863 -0.472997 -9.58646e-22)
(0.872108 -0.521446 1.5898e-21)
(0.856643 -0.550979 0)
(0.828147 -0.56036 -1.07951e-21)
(0.788929 -0.551084 8.48098e-22)
(0.741958 -0.526488 6.45528e-22)
(0.690009 -0.490757 -4.9732e-22)
(0.63348 -0.450235 0)
(0.568458 -0.414014 0)
(0.491729 -0.386502 1.59096e-22)
(0.410626 -0.357342 0)
(0.34466 -0.304024 -9.38506e-23)
(0.313314 -0.209554 0)
(0.323288 -0.0774104 -8.58632e-21)
(0.367474 0.0693075 1.64249e-20)
(0.431596 0.206705 -1.54753e-20)
(0.502475 0.316848 7.41467e-21)
(0.569968 0.393992 7.84745e-21)
(0.625343 0.44599 -7.62053e-21)
(0.661705 0.490486 -1.13575e-20)
(0.679899 0.537193 1.11028e-20)
(0.692259 0.568575 0)
(0.717681 0.541783 5.83001e-22)
(0.765805 0.42242 0)
(0.832948 0.215617 0)
(0.903255 -0.0273133 2.63653e-20)
(0.955457 -0.235811 -2.73414e-20)
(0.977832 -0.366512 1.31237e-21)
(0.971879 -0.421015 9.78191e-22)
(0.948161 -0.428177 -6.96501e-22)
(0.916004 -0.40913 -3.58626e-21)
(0.883292 -0.387734 3.48235e-21)
(0.835635 -0.369502 -2.55393e-21)
(0.775074 -0.354766 2.17922e-21)
(0.712126 -0.300563 5.34333e-22)
(0.682485 -0.199083 -2.29724e-21)
(0.693325 -0.0547356 -1.41622e-22)
(0.739142 0.0933791 1.55164e-21)
(0.792187 0.216556 0)
(0.823383 0.336706 -9.83352e-22)
(0.824978 0.41414 1.89611e-21)
(0.799755 0.462049 -2.37734e-21)
(0.793014 0.375495 -8.30578e-22)
(0.796373 0.215654 0)
(0.82852 0.00564201 7.49616e-22)
(0.866026 -0.159646 -1.65135e-21)
(0.87903 -0.218588 1.35796e-23)
(0.873846 -0.322823 -4.07375e-22)
(0.823227 -0.303293 4.35518e-22)
(0.819866 -0.333222 -4.43943e-22)
(0.806849 -0.181617 0)
(0.810301 0.0104487 1.89534e-22)
(0.794412 0.109794 0)
(0.790071 0.37135 0)
(0.786326 0.237549 3.39244e-23)
(0.893083 -0.137365 -1.6313e-19)
(0.923595 -0.20274 1.61488e-19)
(0.956627 -0.269317 -1.14941e-21)
(0.983351 -0.335097 1.15662e-21)
(0.998 -0.39846 0)