/*--------------------------------*- C++ -*----------------------------------*\
| =========                 |                                                 |
| \\      /  F ield         | OpenFOAM: The Open Source CFD Toolbox           |
|  \\    /   O peration     | Version:  2512                                  |
|   \\  /    A nd           | Website:  www.openfoam.com                      |
|    \\/     M anipulation  |                                                 |
\*---------------------------------------------------------------------------*/
FoamFile
{
    version     2.0;
    format      ascii;
    arch        "LSB;label=32;scalar=64";
    class       volScalarField;
    location    "47";
    object      p;
}
// * * * * * * * * * * * * * * * * * * * * * * * * * * * * * * * * * * * * * //

dimensions      [0 2 -2 0 0 0 0];

internalField   nonuniform List<scalar> 
13248
(
-0.276224
-0.274982
-0.27309
-0.270711
-0.268033
-0.265224
-0.262417
-0.259701
-0.257137
-0.254754
-0.252558
-0.250534
-0.248652
-0.246871
-0.245143
-0.243418
-0.241647
-0.239787
-0.237796
-0.235673
-0.233317
-0.230933
-0.227881
-0.225257
-0.282835
-0.280964
-0.278473
-0.275529
-0.272312
-0.269006
-0.265736
-0.26258
-0.259575
-0.256722
-0.253998
-0.251361
-0.248761
-0.246144
-0.243458
-0.240661
-0.237718
-0.234607
-0.231314
-0.227832
-0.224143
-0.220258
-0.216025
-0.212074
-0.290879
-0.288193
-0.28498
-0.281393
-0.277584
-0.273731
-0.269947
-0.266276
-0.262717
-0.259234
-0.255774
-0.252278
-0.248692
-0.244975
-0.2411
-0.237057
-0.232853
-0.228505
-0.224031
-0.219459
-0.214774
-0.210029
-0.205112
-0.200461
-0.300471
-0.296787
-0.292736
-0.288433
-0.283969
-0.2795
-0.275101
-0.270767
-0.266447
-0.262074
-0.257581
-0.252919
-0.248064
-0.24302
-0.237811
-0.232478
-0.227069
-0.221633
-0.216207
-0.210817
-0.205459
-0.20017
-0.194848
-0.189964
-0.31168
-0.306828
-0.301839
-0.296752
-0.291556
-0.286359
-0.281175
-0.275938
-0.270558
-0.264958
-0.259099
-0.252983
-0.246651
-0.24017
-0.23362
-0.227082
-0.220623
-0.214294
-0.208123
-0.202118
-0.196272
-0.190591
-0.185012
-0.179866
-0.324508
-0.318351
-0.312347
-0.306412
-0.30038
-0.294274
-0.288036
-0.281551
-0.274724
-0.267523
-0.259984
-0.252197
-0.244282
-0.236365
-0.228559
-0.220953
-0.213603
-0.206538
-0.199765
-0.193272
-0.18704
-0.181056
-0.17527
-0.169917
-0.33886
-0.331304
-0.324235
-0.317378
-0.310345
-0.30305
-0.295377
-0.287206
-0.278507
-0.269354
-0.259902
-0.250338
-0.240846
-0.23158
-0.22265
-0.214118
-0.206014
-0.198336
-0.191065
-0.184173
-0.177628
-0.171399
-0.165454
-0.159921
-0.354491
-0.345502
-0.337339
-0.329447
-0.321159
-0.312282
-0.302694
-0.292361
-0.281396
-0.270035
-0.258557
-0.247226
-0.236249
-0.225765
-0.215847
-0.206521
-0.197774
-0.189578
-0.18189
-0.174668
-0.167868
-0.16145
-0.15539
-0.149716
-0.370974
-0.360584
-0.351298
-0.342194
-0.332293
-0.321344
-0.309325
-0.296396
-0.282885
-0.269199
-0.255716
-0.242724
-0.230407
-0.218853
-0.208085
-0.19808
-0.188791
-0.180161
-0.172132
-0.164647
-0.157652
-0.151102
-0.144968
-0.139199
-0.387655
-0.37596
-0.365504
-0.354926
-0.342961
-0.329414
-0.314504
-0.298681
-0.282513
-0.266545
-0.251192
-0.236711
-0.223224
-0.210754
-0.199265
-0.188691
-0.178954
-0.169976
-0.161682
-0.154002
-0.146874
-0.14025
-0.13408
-0.128264
-0.403666
-0.390799
-0.37908
-0.366678
-0.352151
-0.335526
-0.317401
-0.298566
-0.279798
-0.261712
-0.244694
-0.228926
-0.214449
-0.201215
-0.189135
-0.178106
-0.168024
-0.158792
-0.15032
-0.142527
-0.135345
-0.128715
-0.122559
-0.116767
-0.417987
-0.404133
-0.391031
-0.376406
-0.358816
-0.338703
-0.317156
-0.295309
-0.274088
-0.254099
-0.235645
-0.218806
-0.203531
-0.189704
-0.177187
-0.165844
-0.155546
-0.146181
-0.137645
-0.129848
-0.122716
-0.116178
-0.11013
-0.1045
-0.249627
-0.251419
-0.252563
-0.253323
-0.253941
-0.254478
-0.25496
-0.255407
-0.255828
-0.256222
-0.256584
-0.256909
-0.257191
-0.257423
-0.257604
-0.257732
-0.257809
-0.25784
-0.257837
-0.257819
-0.257811
-0.257846
-0.257981
-0.2583
-0.249606
-0.25121
-0.252228
-0.252894
-0.253422
-0.253871
-0.254268
-0.254636
-0.254985
-0.255318
-0.255637
-0.255941
-0.256233
-0.256514
-0.256791
-0.257072
-0.257371
-0.257703
-0.25809
-0.258562
-0.259154
-0.259905
-0.260881
-0.262245
-0.250211
-0.251564
-0.252414
-0.252953
-0.253363
-0.253697
-0.253986
-0.254251
-0.254507
-0.25476
-0.255017
-0.255282
-0.255563
-0.255869
-0.256215
-0.256616
-0.257092
-0.257665
-0.258364
-0.259221
-0.260277
-0.261558
-0.263108
-0.265269
-0.251305
-0.252373
-0.253024
-0.253406
-0.253666
-0.253856
-0.254004
-0.254135
-0.254267
-0.25441
-0.254574
-0.254769
-0.255006
-0.255301
-0.255673
-0.256144
-0.256737
-0.257479
-0.258397
-0.259525
-0.2609
-0.262537
-0.264401
-0.26692
-0.25275
-0.253528
-0.253963
-0.254161
-0.25424
-0.254246
-0.254215
-0.254172
-0.254139
-0.254131
-0.254161
-0.254242
-0.254391
-0.254627
-0.254972
-0.255453
-0.256095
-0.256927
-0.257974
-0.259262
-0.260821
-0.262647
-0.264634
-0.267192
-0.254432
-0.254943
-0.255155
-0.255144
-0.255005
-0.254787
-0.254529
-0.254265
-0.254018
-0.25381
-0.253656
-0.253575
-0.253586
-0.25371
-0.253973
-0.254402
-0.255027
-0.255873
-0.256964
-0.258317
-0.259948
-0.261846
-0.263886
-0.265952
-0.25629
-0.25657
-0.25656
-0.256316
-0.255918
-0.255431
-0.254899
-0.254361
-0.25385
-0.253392
-0.253006
-0.252716
-0.252542
-0.252508
-0.252642
-0.25297
-0.253521
-0.254319
-0.255384
-0.256722
-0.258334
-0.260155
-0.26233
-0.263417
-0.258327
-0.258418
-0.258185
-0.257686
-0.256979
-0.256184
-0.255331
-0.254474
-0.253654
-0.252903
-0.252248
-0.251715
-0.251325
-0.251106
-0.251082
-0.25128
-0.251724
-0.252435
-0.253423
-0.254677
-0.256218
-0.257756
-0.260202
-0.260121
-0.260625
-0.260554
-0.260082
-0.259286
-0.258265
-0.257111
-0.255896
-0.254684
-0.253524
-0.252457
-0.251514
-0.250722
-0.250108
-0.249694
-0.249504
-0.249559
-0.249874
-0.250459
-0.251316
-0.252397
-0.253817
-0.254909
-0.25754
-0.256627
-0.263341
-0.263107
-0.262359
-0.261242
-0.259859
-0.258319
-0.256718
-0.255132
-0.25362
-0.252229
-0.250995
-0.249946
-0.249104
-0.248488
-0.248111
-0.247981
-0.248102
-0.248467
-0.249073
-0.249844
-0.250982
-0.251651
-0.254056
-0.252964
-0.266685
-0.266226
-0.265182
-0.263689
-0.2619
-0.259948
-0.257943
-0.255973
-0.254105
-0.252388
-0.250859
-0.24954
-0.248444
-0.247577
-0.246934
-0.246505
-0.246273
-0.246214
-0.246311
-0.246515
-0.246984
-0.247244
-0.248906
-0.248232
-0.270903
-0.270127
-0.268699
-0.266778
-0.264545
-0.262155
-0.259732
-0.257371
-0.255143
-0.253093
-0.251248
-0.249616
-0.248196
-0.246968
-0.245907
-0.244979
-0.244142
-0.243358
-0.242583
-0.241813
-0.241034
-0.240334
-0.240289
-0.240169
-0.25894
-0.259721
-0.260686
-0.261812
-0.263033
-0.26424
-0.265269
-0.265899
-0.265888
-0.264879
-0.262591
-0.258662
-0.252853
-0.245144
-0.235824
-0.225543
-0.215246
-0.206137
-0.19957
-0.196507
-0.19735
-0.201612
-0.20744
-0.212041
-0.212072
-0.205278
-0.190178
-0.168395
-0.143749
-0.119982
-0.10043
-0.0877748
-0.0836696
-0.0868883
-0.0918329
-0.0912395
-0.0832777
-0.0679246
-0.0492262
-0.0313236
-0.016425
-0.00511765
0.00257006
0.00671529
0.0078381
0.00741047
0.00672373
0.00688864
0.00776812
0.008906
0.00968715
0.00996535
0.00946244
0.00845573
0.00702429
0.00562837
0.00424057
0.00321117
0.0018791
0.000943388
-0.264542
-0.266968
-0.269709
-0.272747
-0.275948
-0.279145
-0.282103
-0.284519
-0.286
-0.285973
-0.284046
-0.27973
-0.272655
-0.262688
-0.250065
-0.235468
-0.219874
-0.204524
-0.191226
-0.181125
-0.17513
-0.17351
-0.175128
-0.177753
-0.178078
-0.17487
-0.164739
-0.149127
-0.13121
-0.113941
-0.100779
-0.0946984
-0.0968989
-0.104824
-0.111448
-0.10852
-0.097555
-0.0778884
-0.0553369
-0.0344172
-0.0173246
-0.00445495
0.00445735
0.00970172
0.0116403
0.0114263
0.0103279
0.00963496
0.00955932
0.0098919
0.0100769
0.00991396
0.00911321
0.00789911
0.00643068
0.0050698
0.00381855
0.00293151
0.0017281
0.000905551
-0.269399
-0.273201
-0.277492
-0.282224
-0.287181
-0.292144
-0.296804
-0.30078
-0.30357
-0.304402
-0.302797
-0.298122
-0.289872
-0.277809
-0.262131
-0.243561
-0.223015
-0.201726
-0.182286
-0.165471
-0.152666
-0.144786
-0.141614
-0.141514
-0.141785
-0.140183
-0.135368
-0.125855
-0.114882
-0.1046
-0.0986157
-0.099942
-0.10886
-0.121431
-0.129596
-0.123532
-0.110503
-0.0868357
-0.0608632
-0.0373586
-0.0184157
-0.00422739
0.00571373
0.0119179
0.0147097
0.0149499
0.013739
0.0124584
0.0114782
0.0109916
0.0105174
0.00984887
0.00871685
0.00730014
0.0058159
0.00452435
0.00341756
0.00267364
0.0015936
0.00086303
-0.272927
-0.27786
-0.283318
-0.289398
-0.295783
-0.302189
-0.308247
-0.313507
-0.317358
-0.318898
-0.317604
-0.312667
-0.303466
-0.289667
-0.271404
-0.249321
-0.224357
-0.19762
-0.173379
-0.150472
-0.131281
-0.117203
-0.10906
-0.105547
-0.104676
-0.104084
-0.102894
-0.0993703
-0.0953261
-0.0925021
-0.0942466
-0.103357
-0.11901
-0.136014
-0.145938
-0.143555
-0.122186
-0.0947112
-0.0658304
-0.0402017
-0.0197572
-0.00448641
0.00630927
0.0133278
0.0169377
0.0177852
0.0167363
0.015098
0.0134076
0.0121464
0.0109848
0.0097711
0.0082928
0.00669388
0.00521595
0.00402146
0.00305753
0.0024482
0.0014813
0.000817554
-0.274695
-0.280798
-0.286929
-0.293885
-0.30131
-0.308772
-0.315843
-0.322016
-0.326585
-0.328768
-0.327755
-0.322662
-0.312782
-0.297708
-0.277483
-0.252624
-0.224216
-0.193894
-0.164343
-0.136632
-0.112181
-0.0922727
-0.0797033
-0.0723149
-0.0693174
-0.0688338
-0.0701557
-0.0715419
-0.0739739
-0.0785973
-0.0881734
-0.104853
-0.12684
-0.147871
-0.159075
-0.154506
-0.131715
-0.101411
-0.0702502
-0.0429779
-0.0213636
-0.00522646
0.00627167
0.0139677
0.0183099
0.0198165
0.0191284
0.0173809
0.0151935
0.0132555
0.0114285
0.00967081
0.00785852
0.00611294
0.00466213
0.00358182
0.00275066
0.00225874
0.00139191
0.000770175
-0.274971
-0.282021
-0.288375
-0.295674
-0.30369
-0.311795
-0.319458
-0.326144
-0.331145
-0.333807
-0.333019
-0.327891
-0.317643
-0.30177
-0.280241
-0.253587
-0.222925
-0.189954
-0.156864
-0.125316
-0.0967718
-0.0729433
-0.0553986
-0.0439756
-0.0383705
-0.037502
-0.0399235
-0.0448301
-0.0527294
-0.0641328
-0.0809835
-0.104445
-0.131971
-0.156493
-0.168791
-0.163029
-0.13911
-0.106879
-0.0741303
-0.045696
-0.0232177
-0.0064031
0.00566825
0.0139243
0.0188907
0.0210312
0.0208077
0.0191529
0.0166811
0.0142058
0.0117896
0.00953655
0.00743156
0.00558492
0.00417727
0.00321665
0.0025009
0.00210326
0.0013224
0.000721531
-0.273743
-0.281576
-0.287805
-0.294949
-0.303093
-0.311413
-0.31926
-0.326095
-0.331305
-0.334137
-0.333452
-0.328378
-0.318088
-0.302032
-0.280107
-0.252774
-0.221105
-0.186728
-0.151623
-0.117611
-0.0862946
-0.0593733
-0.038087
-0.0230115
-0.0143898
-0.0117427
-0.014491
-0.0215891
-0.0335064
-0.0503888
-0.07327
-0.102275
-0.134244
-0.161647
-0.174977
-0.168815
-0.144335
-0.111092
-0.0774653
-0.0483375
-0.0252753
-0.00794563
0.00459171
0.0133109
0.0187962
0.0215022
0.0217671
0.0203342
0.017762
0.0149116
0.0120258
0.00936643
0.00703174
0.00513145
0.0037741
0.00293313
0.00230602
0.0019767
0.00126774
0.000672194
-0.271129
-0.279337
-0.28514
-0.291839
-0.29975
-0.307855
-0.315505
-0.322265
-0.327472
-0.330158
-0.32951
-0.324632
-0.314668
-0.299029
-0.277552
-0.250616
-0.219184
-0.184737
-0.149073
-0.113977
-0.081072
-0.0519626
-0.0279146
-0.00980914
0.0017361
0.00662808
0.00464211
-0.0032986
-0.0176416
-0.038321
-0.0655309
-0.0985492
-0.133732
-0.163338
-0.177597
-0.171748
-0.147415
-0.114039
-0.0802225
-0.050845
-0.0274585
-0.00976073
0.00315084
0.012254
0.0181676
0.0213558
0.0220811
0.0209356
0.0184053
0.015341
0.0121274
0.00917301
0.00668033
0.00476733
0.00345759
0.00271306
0.00215911
0.00187302
0.00122276
0.00062294
-0.267229
-0.274969
-0.280162
-0.286382
-0.293769
-0.301287
-0.308438
-0.314949
-0.319883
-0.322342
-0.321753
-0.317226
-0.307927
-0.293249
-0.272972
-0.247376
-0.217274
-0.183959
-0.149016
-0.114088
-0.0807228
-0.0504239
-0.0244772
-0.00394361
0.0103108
0.0178372
0.0171988
0.00957332
-0.00567423
-0.0283973
-0.0581165
-0.093509
-0.130698
-0.161779
-0.176899
-0.171883
-0.148417
-0.115755
-0.0824094
-0.0531995
-0.0297257
-0.0117867
0.00142799
0.0108583
0.0171342
0.0207336
0.021872
0.0210379
0.0186514
0.0155154
0.0121151
0.00897884
0.00639522
0.00449627
0.00323779
0.00255394
0.00205145
0.00178663
0.00118319
0.000574857
-0.261853
-0.268147
-0.272821
-0.278635
-0.285263
-0.291983
-0.298508
-0.304472
-0.308914
-0.311244
-0.310817
-0.306831
-0.298514
-0.285252
-0.266771
-0.243238
-0.21529
-0.184002
-0.150735
-0.116945
-0.0840678
-0.053503
-0.0265356
-0.00430999
0.0121382
0.022488
0.0235579
0.0172608
0.00244709
-0.0207157
-0.0512554
-0.0874607
-0.125446
-0.157304
-0.173515
-0.169515
-0.147608
-0.116494
-0.0842649
-0.055601
-0.0322219
-0.0141108
-0.000609864
0.00914126
0.0157579
0.0197325
0.0212544
0.0207501
0.0185783
0.0154897
0.0120275
0.00880931
0.00618719
0.00430892
0.00308794
0.00244796
0.00197456
0.00171308
0.00114619
0.000529313
-0.25448
-0.259092
-0.263549
-0.268803
-0.274497
-0.280467
-0.28642
-0.291715
-0.295875
-0.298277
-0.298225
-0.29501
-0.287953
-0.276448
-0.260188
-0.239217
-0.21397
-0.185284
-0.154302
-0.122346
-0.0905906
-0.0602835
-0.032731
-0.00920213
0.00906061
0.0210891
0.0245787
0.0205427
0.00732493
-0.0149698
-0.04504
-0.0808906
-0.118615
-0.15056
-0.167188
-0.16471
-0.145129
-0.116381
-0.0858455
-0.0580596
-0.034933
-0.0167115
-0.00293776
0.00713562
0.0140858
0.0184163
0.0203019
0.0201329
0.01826
0.0153186
0.0119004
0.00868325
0.00606149
0.00419598
0.00300336
0.00238399
0.00192059
0.00164916
0.00110992
0.000487781
-0.245124
-0.249249
-0.253053
-0.256935
-0.261398
-0.266464
-0.27156
-0.276031
-0.279584
-0.281715
-0.281976
-0.279693
-0.274189
-0.264837
-0.2513
-0.233498
-0.21165
-0.186311
-0.15834
-0.128822
-0.0989282
-0.0698866
-0.0428856
-0.0190882
0.000273351
0.0132794
0.0211045
0.0194775
0.00880793
-0.0111487
-0.0391419
-0.0730855
-0.109227
-0.140556
-0.157952
-0.156788
-0.139907
-0.11386
-0.0853553
-0.0588475
-0.0364074
-0.0184741
-0.00474322
0.00541798
0.012524
0.0170646
0.0192104
0.0193001
0.0177249
0.0150036
0.0117129
0.00856523
0.0059812
0.00413949
0.00295499
0.00234133
0.0018785
0.00159098
0.00107255
0.000451362
-0.234631
-0.241718
-0.244985
-0.247778
-0.251499
-0.25601
-0.260655
-0.264996
-0.268358
-0.270037
-0.269641
-0.267181
-0.261785
-0.252816
-0.239986
-0.223245
-0.202796
-0.179141
-0.153052
-0.125493
-0.0974954
-0.0701316
-0.0444928
-0.0216439
-0.00278171
0.0105216
0.018089
0.017604
0.00824451
-0.010424
-0.0372022
-0.0699788
-0.105075
-0.13525
-0.151856
-0.150161
-0.133703
-0.108907
-0.081995
-0.0569816
-0.0357032
-0.0185584
-0.00529979
0.00461088
0.0116138
0.0161586
0.0184032
0.0186434
0.0172302
0.0146224
0.0114383
0.00836945
0.00584167
0.00404353
0.00289617
0.00229186
0.00183527
0.0015358
0.00103536
0.00042109
-0.223046
-0.232502
-0.236096
-0.237958
-0.240707
-0.244488
-0.24848
-0.251923
-0.254194
-0.255043
-0.254283
-0.251425
-0.245877
-0.237178
-0.225091
-0.209588
-0.190856
-0.16932
-0.145621
-0.120564
-0.0950386
-0.0699848
-0.0463967
-0.0252808
-0.0077045
0.00492798
0.0120621
0.0118844
0.00335467
-0.0139055
-0.0387686
-0.0691068
-0.101242
-0.128457
-0.142479
-0.140294
-0.124928
-0.102265
-0.0777033
-0.0547065
-0.034912
-0.0187455
-0.0060702
0.00352565
0.0103932
0.0149185
0.0172412
0.0176384
0.0164256
0.01405
0.0110675
0.00815613
0.00573113
0.00399983
0.00287615
0.00226313
0.00180281
0.00148294
0.000998284
0.000390105
-0.211093
-0.221862
-0.225805
-0.227111
-0.229003
-0.231983
-0.235224
-0.237859
-0.239455
-0.239819
-0.238616
-0.23543
-0.229893
-0.221662
-0.21052
-0.196426
-0.179528
-0.160162
-0.138848
-0.116261
-0.0931753
-0.0704365
-0.0489599
-0.0296716
-0.013498
-0.00176065
0.00470904
0.00453168
-0.00325974
-0.0189381
-0.0413933
-0.0684482
-0.0965263
-0.11998
-0.131452
-0.129175
-0.11551
-0.0953933
-0.0733608
-0.0524249
-0.0341172
-0.0189351
-0.00686363
0.00238816
0.00908809
0.0135608
0.0159357
0.0164946
0.0154928
0.0133649
0.0106268
0.00791563
0.00562188
0.00396554
0.00286201
0.00223598
0.00176863
0.0014272
0.00095793
0.000358836
-0.199341
-0.210129
-0.214314
-0.215459
-0.21679
-0.2191
-0.221723
-0.223829
-0.224968
-0.224886
-0.223318
-0.219996
-0.214649
-0.206999
-0.196846
-0.184141
-0.168997
-0.151687
-0.13264
-0.112425
-0.0917135
-0.0712567
-0.0518732
-0.0343928
-0.0197042
-0.00893257
-0.0030222
-0.00303569
-0.00980702
-0.0235201
-0.0431141
-0.0664784
-0.0903458
-0.109536
-0.119681
-0.117715
-0.105951
-0.0884201
-0.068915
-0.0500519
-0.0332603
-0.0190994
-0.00766709
0.00121256
0.00772634
0.0121378
0.0145663
0.0152798
0.0144885
0.0126192
0.0101436
0.00764938
0.00549939
0.00392091
0.00284117
0.00220371
0.0017298
0.0013694
0.000915456
0.000329217
-0.187187
-0.197744
-0.202187
-0.2034
-0.204426
-0.206241
-0.20838
-0.210075
-0.210825
-0.210389
-0.208611
-0.205306
-0.200248
-0.193207
-0.184014
-0.172625
-0.159127
-0.143746
-0.126834
-0.10887
-0.090429
-0.0721675
-0.0548089
-0.039109
-0.0259149
-0.0161055
-0.0106339
-0.0103412
-0.0158976
-0.0274148
-0.0439515
-0.0636103
-0.0835505
-0.0995644
-0.107936
-0.106395
-0.0965374
-0.0815359
-0.0644934
-0.0476609
-0.0323732
-0.0192452
-0.00847537
7.78163e-06
0.00631748
0.0106588
0.0131356
0.0139903
0.0134155
0.0118145
0.0096111
0.00734508
0.0053505
0.00385646
0.00280742
0.00216295
0.00168478
0.00130928
0.000871015
0.000301492
-0.174872
-0.185241
-0.189853
-0.191183
-0.192054
-0.193519
-0.195269
-0.196617
-0.197079
-0.196436
-0.194583
-0.191392
-0.18668
-0.180258
-0.171993
-0.161846
-0.149888
-0.136302
-0.12138
-0.105518
-0.0892079
-0.07302
-0.0575904
-0.0435957
-0.031785
-0.0229251
-0.0178217
-0.0171728
-0.0214934
-0.0308341
-0.0443943
-0.060535
-0.0768392
-0.0899516
-0.0968057
-0.0956957
-0.0876139
-0.0749532
-0.060206
-0.0452985
-0.0314697
-0.0193698
-0.00927766
-0.00121156
0.00487601
0.00913458
0.0116498
0.0126386
0.0122817
0.0109504
0.00902364
0.00699373
0.00516511
0.00376434
0.00275464
0.00211001
0.00163152
0.00124593
0.000824317
0.000275579
-0.162969
-0.172883
-0.177508
-0.178947
-0.179756
-0.180982
-0.182435
-0.183525
-0.183808
-0.183081
-0.181256
-0.17825
-0.173921
-0.168121
-0.160749
-0.151771
-0.141243
-0.129313
-0.116222
-0.102302
-0.0879684
-0.0737138
-0.0600917
-0.0476953
-0.0371755
-0.0291847
-0.0244083
-0.0234102
-0.0265724
-0.0338937
-0.0447018
-0.0576211
-0.070644
-0.0811775
-0.086739
-0.0859681
-0.0794091
-0.0688046
-0.0561257
-0.0430018
-0.0305641
-0.0194729
-0.0100648
-0.0024319
0.00341662
0.00757968
0.0101245
0.0112411
0.011097
0.0100282
0.00838106
0.00659106
0.00493679
0.00363821
0.00267765
0.00204158
0.00156812
0.00117848
0.000775154
0.000251372
-0.151455
-0.160735
-0.165287
-0.16683
-0.167636
-0.168712
-0.169958
-0.170878
-0.17107
-0.170342
-0.16862
-0.165848
-0.161928
-0.156751
-0.150232
-0.142344
-0.133133
-0.12272
-0.111304
-0.0991629
-0.0866461
-0.0741722
-0.0622161
-0.0512952
-0.0419667
-0.034772
-0.0302909
-0.0289728
-0.0310938
-0.0366146
-0.0449801
-0.0550659
-0.0652177
-0.073526
-0.0779432
-0.0773636
-0.0720263
-0.0631633
-0.0523028
-0.0408006
-0.0296692
-0.0195547
-0.0108289
-0.0036405
0.00195439
0.00601007
0.00857466
0.00981069
0.00987165
0.00906095
0.00768505
0.00613557
0.00466175
0.00347406
0.00257283
0.00195518
0.00149314
0.00110618
0.00072335
0.000228618
-0.140257
-0.148926
-0.153363
-0.154985
-0.155812
-0.1568
-0.157912
-0.158727
-0.158889
-0.158219
-0.156655
-0.154149
-0.150656
-0.146089
-0.14038
-0.133505
-0.125501
-0.116471
-0.106578
-0.0960537
-0.0851901
-0.0743393
-0.0639051
-0.0543323
-0.0460934
-0.0396207
-0.0354106
-0.0338153
-0.0350307
-0.0389999
-0.0452724
-0.0529464
-0.0607433
-0.0670437
-0.0704175
-0.0698856
-0.0654852
-0.0580588
-0.0487668
-0.038717
-0.0287963
-0.0196164
-0.011563
-0.00482528
0.000504055
0.00444076
0.00701408
0.00835954
0.00861568
0.00805294
0.00694144
0.00562869
0.0043389
0.00326998
0.002438
0.00184901
0.00140543
0.00102829
0.000668657
0.00020691
-0.129562
-0.137603
-0.14186
-0.143521
-0.144378
-0.145317
-0.146343
-0.147101
-0.147274
-0.1467
-0.145325
-0.143122
-0.140063
-0.136084
-0.131133
-0.125192
-0.118292
-0.110516
-0.102
-0.0929345
-0.0835635
-0.0741804
-0.0651248
-0.0567693
-0.0495123
-0.0436963
-0.039745
-0.0379259
-0.0383799
-0.0410464
-0.0455577
-0.0511856
-0.0569657
-0.0616251
-0.0640577
-0.0634605
-0.0597536
-0.0534897
-0.0455313
-0.0367666
-0.0279553
-0.0196595
-0.0122615
-0.00597521
-0.000920627
0.00288612
0.00545637
0.00689988
0.00733914
0.00701185
0.00615463
0.00507329
0.00396909
0.00302557
0.00227201
0.00172182
0.00130409
0.00094404
0.000610767
0.000185768
-0.119466
-0.126817
-0.130839
-0.132512
-0.133401
-0.134315
-0.135288
-0.136021
-0.136236
-0.135787
-0.134628
-0.132741
-0.130101
-0.126682
-0.122437
-0.117353
-0.111454
-0.10481
-0.097531
-0.0897746
-0.0817418
-0.073675
-0.0658547
-0.0585835
-0.0521509
-0.0469965
-0.0433009
-0.0413143
-0.0411454
-0.0427364
-0.0457895
-0.0497045
-0.0538313
-0.0571193
-0.0587159
-0.0579797
-0.0547717
-0.049436
-0.0425994
-0.0349599
-0.0271547
-0.0196862
-0.0129197
-0.00708055
-0.00230684
0.00135998
0.00391498
0.0054438
0.0060521
0.00594583
0.00533071
0.00447358
0.00355445
0.00274151
0.00207452
0.00157278
0.00118839
0.000852694
0.000549349
0.000164701
-0.109915
-0.116588
-0.120358
-0.12202
-0.122936
-0.123837
-0.124778
-0.125508
-0.125783
-0.125472
-0.124537
-0.122967
-0.120738
-0.117834
-0.11424
-0.109939
-0.104945
-0.0993148
-0.093141
-0.0865514
-0.0797102
-0.0728157
-0.0660972
-0.0598072
-0.0542032
-0.0495701
-0.0461059
-0.044001
-0.0433374
-0.0440583
-0.0459308
-0.048546
-0.0512338
-0.0533682
-0.0542371
-0.0533248
-0.0504682
-0.0458672
-0.0399662
-0.0333031
-0.0264012
-0.0196988
-0.0135342
-0.00813284
-0.00364286
-0.000124586
0.00240284
0.00400305
0.00476465
0.00486335
0.00447645
0.00383458
0.00309807
0.00241931
0.00184584
0.00140147
0.00105778
0.000753573
0.00048407
0.000143244
-0.100919
-0.106959
-0.110466
-0.112093
-0.113024
-0.113917
-0.114838
-0.115577
-0.11592
-0.115751
-0.115036
-0.113767
-0.111933
-0.109515
-0.106507
-0.102908
-0.098725
-0.0939995
-0.0888063
-0.0832498
-0.0774629
-0.0716058
-0.0658643
-0.0604473
-0.0555686
-0.0514277
-0.0481918
-0.0460177
-0.0449743
-0.0450058
-0.0459272
-0.0474316
-0.049035
-0.0502284
-0.0504794
-0.0493811
-0.0467691
-0.0427466
-0.0376209
-0.0317982
-0.0256999
-0.0196998
-0.0141025
-0.00912507
-0.00491835
-0.00155569
0.000932073
0.00258895
0.00348682
0.00377313
0.00359902
0.00316193
0.00260378
0.00206118
0.00158684
0.00120786
0.000911945
0.000646091
0.000414613
0.00012099
-0.0925233
-0.0979519
-0.101183
-0.102756
-0.103692
-0.104578
-0.105484
-0.106236
-0.106648
-0.106615
-0.106108
-0.105122
-0.103653
-0.101687
-0.0992123
-0.096234
-0.0927667
-0.0888402
-0.0845117
-0.0798639
-0.075003
-0.0700581
-0.0651781
-0.0605291
-0.0562828
-0.0525881
-0.049602
-0.047411
-0.0460897
-0.0455865
-0.0457729
-0.0464064
-0.0471396
-0.0475761
-0.0473166
-0.0460424
-0.0436005
-0.0400335
-0.0355476
-0.0304434
-0.0250541
-0.0196915
-0.0146233
-0.0100518
-0.00612461
-0.00292281
-0.000486203
0.00121221
0.00222846
0.00268398
0.00270603
0.00246183
0.00207608
0.00166993
0.00129893
0.000992291
0.000750774
0.000529794
0.000340709
9.76045e-05
-0.0847147
-0.0895589
-0.0925146
-0.0940194
-0.0949523
-0.0958282
-0.0967213
-0.0974859
-0.0979608
-0.0980544
-0.0977381
-0.0970104
-0.0958702
-0.0943095
-0.0923182
-0.0898927
-0.08705
-0.0838228
-0.080251
-0.0763965
-0.0723439
-0.0681957
-0.0640706
-0.0600962
-0.0564034
-0.0531205
-0.0503657
-0.048221
-0.0467073
-0.0458167
-0.0454444
-0.0454129
-0.0454664
-0.0453084
-0.0446392
-0.0432117
-0.0408916
-0.0376852
-0.0337263
-0.0292334
-0.0244647
-0.0196756
-0.015096
-0.010909
-0.0072547
-0.00421703
-0.00184212
-0.000117264
0.000999015
0.00160467
0.00180529
0.00174088
0.00152002
0.00124897
0.00098406
0.000755551
0.000574447
0.00040441
0.00026216
7.28377e-05
-0.0774621
-0.0817684
-0.0844585
-0.0858874
-0.0868073
-0.0876699
-0.0885481
-0.0893214
-0.0898509
-0.0900558
-0.0899101
-0.0894128
-0.0885645
-0.0873596
-0.0857907
-0.0838556
-0.0815656
-0.0789424
-0.0760238
-0.0728574
-0.0695061
-0.0660499
-0.0625811
-0.0591976
-0.0560045
-0.0531038
-0.0505816
-0.0484983
-0.04688
-0.0457161
-0.0449368
-0.0444098
-0.0439499
-0.0433384
-0.0423522
-0.040802
-0.0385751
-0.0356577
-0.032134
-0.0281593
-0.0239308
-0.0196534
-0.0155207
-0.0116944
-0.00830345
-0.00543116
-0.00312726
-0.00139059
-0.000192615
0.000543781
0.000904758
0.00100604
0.000941168
0.000802259
0.000644721
0.000498866
0.000383449
0.000269885
0.00017887
4.65248e-05
-0.0707543
-0.0745686
-0.077005
-0.0783516
-0.0792503
-0.0800948
-0.0809549
-0.0817311
-0.0823044
-0.0826037
-0.0826056
-0.0823089
-0.0817148
-0.0808193
-0.0796168
-0.0781055
-0.0762916
-0.0741919
-0.0718351
-0.0692613
-0.0665149
-0.0636567
-0.0607566
-0.057892
-0.0551442
-0.0525892
-0.050292
-0.0483019
-0.0466444
-0.0453107
-0.044251
-0.0433709
-0.0425382
-0.0415939
-0.0403742
-0.0387361
-0.0365881
-0.0339076
-0.0307452
-0.0272098
-0.0234492
-0.0196253
-0.015898
-0.0124068
-0.00926747
-0.0065598
-0.00433474
-0.00260006
-0.00133828
-0.000490458
1.23755e-05
0.000264463
0.000345493
0.000334264
0.000283924
0.000223945
0.000178621
0.000126412
9.08662e-05
1.85866e-05
-0.0645741
-0.0679377
-0.0701336
-0.0713947
-0.0722659
-0.0730878
-0.0739259
-0.0746984
-0.0753037
-0.0756799
-0.0758056
-0.0756795
-0.0753026
-0.0746722
-0.0737833
-0.0726334
-0.0712264
-0.069574
-0.067697
-0.0656252
-0.0633985
-0.0610548
-0.0586477
-0.0562365
-0.0538827
-0.0516438
-0.0495702
-0.0477008
-0.0460567
-0.0446329
-0.0433956
-0.0422792
-0.0411905
-0.0400157
-0.0386363
-0.0369461
-0.034873
-0.0323924
-0.0295334
-0.0263711
-0.0230151
-0.019591
-0.0162287
-0.0130461
-0.010145
-0.00759929
-0.00545929
-0.00373921
-0.0024307
-0.00149033
-0.000864106
-0.000476578
-0.000260706
-0.00015008
-9.48237e-05
-6.70385e-05
-3.88109e-05
-2.55209e-05
-1.68681e-06
-1.09814e-05
-0.0588918
-0.0618475
-0.0638194
-0.0649947
-0.0658334
-0.0666287
-0.0674408
-0.0682028
-0.0688285
-0.0692641
-0.0694904
-0.0695057
-0.0693108
-0.0689033
-0.0682786
-0.0674337
-0.0663704
-0.0650963
-0.0636262
-0.0619814
-0.0601903
-0.0582886
-0.0563067
-0.0542909
-0.0522867
-0.0503381
-0.0484834
-0.0467527
-0.0451634
-0.0437141
-0.0423829
-0.041125
-0.0398761
-0.0385562
-0.037081
-0.0353732
-0.0333778
-0.0310719
-0.0284716
-0.0256281
-0.0226218
-0.019549
-0.0165135
-0.0136131
-0.0109355
-0.0085476
-0.00649721
-0.00480294
-0.0034636
-0.00244878
-0.00171725
-0.00120986
-0.000870942
-0.000645461
-0.000487549
-0.000371459
-0.000267262
-0.000185119
-9.84322e-05
-4.21077e-05
-0.0536793
-0.0562696
-0.0580352
-0.0591258
-0.0599283
-0.0606933
-0.0614757
-0.0622208
-0.0628559
-0.0633346
-0.0636397
-0.0637691
-0.0637231
-0.0634995
-0.063094
-0.062503
-0.0617266
-0.0607692
-0.0596406
-0.0583555
-0.0569341
-0.0554011
-0.0537855
-0.052114
-0.0504209
-0.0487382
-0.0470951
-0.0455152
-0.0440127
-0.0425885
-0.0412292
-0.0399052
-0.0385732
-0.037178
-0.0356612
-0.0339676
-0.0320565
-0.0299089
-0.0275333
-0.0249648
-0.0222617
-0.0194972
-0.016753
-0.0141092
-0.0116399
-0.00940412
-0.00744627
-0.00578744
-0.00443177
-0.00335948
-0.00254007
-0.00192832
-0.00147865
-0.00114632
-0.000889897
-0.000686231
-0.00050476
-0.000351332
-0.000198847
-7.46225e-05
-0.0489106
-0.0511744
-0.0527511
-0.0537595
-0.0545231
-0.0552551
-0.0560045
-0.056727
-0.0573618
-0.0578689
-0.0582329
-0.0584514
-0.0585244
-0.0584496
-0.0582228
-0.0578401
-0.0573002
-0.0566049
-0.0557605
-0.0547764
-0.0536666
-0.0524482
-0.0511416
-0.0497671
-0.0483484
-0.0469079
-0.0454673
-0.0440447
-0.0426517
-0.0412905
-0.0399535
-0.038622
-0.0372675
-0.0358532
-0.0343395
-0.0326879
-0.0308696
-0.02887
-0.0266938
-0.0243651
-0.0219263
-0.0194326
-0.0169478
-0.0145363
-0.0122598
-0.0101695
-0.00830564
-0.00669022
-0.00533111
-0.00421701
-0.00332622
-0.00262521
-0.00207732
-0.00164691
-0.00129724
-0.00100794
-0.000748917
-0.00052275
-0.000302279
-0.000108311
-0.0445578
-0.0465314
-0.0479361
-0.0488656
-0.049589
-0.0502859
-0.0509999
-0.0516953
-0.0523212
-0.0528438
-0.0532492
-0.0535348
-0.0537003
-0.0537433
-0.0536596
-0.0534452
-0.0530975
-0.0526169
-0.0520064
-0.0512719
-0.050422
-0.0494682
-0.0484244
-0.0473065
-0.046129
-0.0449077
-0.0436585
-0.0423948
-0.0411258
-0.0398544
-0.0385768
-0.0372818
-0.0359515
-0.0345618
-0.0330868
-0.0315007
-0.029784
-0.0279261
-0.0259304
-0.0238136
-0.021607
-0.019352
-0.017098
-0.0148963
-0.0127976
-0.0108455
-0.00907564
-0.00750997
-0.00615863
-0.00501688
-0.00407003
-0.00329431
-0.00266064
-0.00214145
-0.00170467
-0.00133289
-0.000997162
-0.000697644
-0.000407779
-0.000142906
-0.0405932
-0.0423101
-0.0435595
-0.0444143
-0.0450968
-0.0457574
-0.0464344
-0.0470991
-0.0477095
-0.0482366
-0.0486684
-0.0490022
-0.0492372
-0.049371
-0.0493996
-0.0493188
-0.0491255
-0.0488184
-0.0483986
-0.047869
-0.0472348
-0.0465028
-0.0456827
-0.0447846
-0.043818
-0.0427936
-0.0417227
-0.0406152
-0.039478
-0.0383139
-0.0371218
-0.0358952
-0.0346232
-0.033291
-0.0318823
-0.0303803
-0.0287727
-0.0270527
-0.0252232
-0.0232965
-0.0212958
-0.0192522
-0.017204
-0.0151916
-0.0132562
-0.0114346
-0.00975769
-0.00824651
-0.00691242
-0.00575553
-0.00476667
-0.00392991
-0.0032227
-0.00262433
-0.00210727
-0.00165703
-0.00124658
-0.00087427
-0.000514312
-0.000177977
-0.0369913
-0.038482
-0.0395917
-0.0403763
-0.0410181
-0.0416421
-0.0422812
-0.0429128
-0.0435022
-0.0440251
-0.0444709
-0.0448369
-0.045122
-0.0453239
-0.0454386
-0.045462
-0.0453904
-0.0452219
-0.0449559
-0.0445932
-0.0441364
-0.0435893
-0.0429574
-0.0422468
-0.0414641
-0.0406159
-0.0397097
-0.0387522
-0.0377488
-0.0367021
-0.035612
-0.0344751
-0.0332856
-0.0320343
-0.0307118
-0.0293079
-0.0278152
-0.0262302
-0.0245559
-0.0228017
-0.0209852
-0.0191302
-0.017266
-0.0154246
-0.0136391
-0.0119401
-0.0103541
-0.00890074
-0.00759165
-0.00643046
-0.00541214
-0.00452703
-0.00375797
-0.00309012
-0.00250017
-0.00197642
-0.00149392
-0.00105036
-0.00062086
-0.000213184
-0.033728
-0.03502
-0.0360045
-0.0367239
-0.0373258
-0.0379134
-0.0385147
-0.0391119
-0.0396764
-0.0401882
-0.0406381
-0.0410233
-0.0413426
-0.0415935
-0.0417725
-0.0418754
-0.0418985
-0.0418391
-0.0416956
-0.0414674
-0.0411553
-0.0407607
-0.0402863
-0.0397353
-0.039112
-0.03842
-0.0376639
-0.0368481
-0.0359762
-0.0350503
-0.0340713
-0.0330373
-0.0319453
-0.0307905
-0.0295676