/*--------------------------------*- C++ -*----------------------------------*\
| =========                 |                                                 |
| \\      /  F ield         | OpenFOAM: The Open Source CFD Toolbox           |
|  \\    /   O peration     | Version:  2512                                  |
|   \\  /    A nd           | Website:  www.openfoam.com                      |
|    \\/     M anipulation  |                                                 |
\*---------------------------------------------------------------------------*/
FoamFile
{
    version     2.0;
    format      ascii;
    arch        "LSB;label=32;scalar=64";
    class       volScalarField;
    location    "74.5";
    object      p;
}
// * * * * * * * * * * * * * * * * * * * * * * * * * * * * * * * * * * * * * //

dimensions      [0 2 -2 0 0 0 0];

internalField   nonuniform List<scalar> 
13248
(
-0.29295
-0.291957
-0.290037
-0.287387
-0.284194
-0.280601
-0.276718
-0.272648
-0.268477
-0.264284
-0.260138
-0.256095
-0.2522
-0.248483
-0.244956
-0.241611
-0.238423
-0.23535
-0.232333
-0.229333
-0.226204
-0.223045
-0.219145
-0.215229
-0.300281
-0.29848
-0.295885
-0.292665
-0.288978
-0.284965
-0.280727
-0.276334
-0.27184
-0.267281
-0.262688
-0.258081
-0.253478
-0.248888
-0.244314
-0.239748
-0.235179
-0.230587
-0.225948
-0.221229
-0.216369
-0.211332
-0.20589
-0.200591
-0.309244
-0.306445
-0.303031
-0.299134
-0.294863
-0.290347
-0.285659
-0.280822
-0.275835
-0.270687
-0.26537
-0.259885
-0.254246
-0.248475
-0.242601
-0.236657
-0.230673
-0.224676
-0.218677
-0.212684
-0.206647
-0.200584
-0.194322
-0.188304
-0.319863
-0.315896
-0.311538
-0.306871
-0.301923
-0.296794
-0.291503
-0.286007
-0.280245
-0.274167
-0.267756
-0.26103
-0.254041
-0.246862
-0.239579
-0.232274
-0.225019
-0.217865
-0.210839
-0.203942
-0.197147
-0.190459
-0.18375
-0.177474
-0.332163
-0.326884
-0.32149
-0.315974
-0.310248
-0.304346
-0.298215
-0.291739
-0.284815
-0.277398
-0.269508
-0.261232
-0.252695
-0.244038
-0.235398
-0.226885
-0.218578
-0.210522
-0.202729
-0.19519
-0.187876
-0.180773
-0.173799
-0.16727
-0.346137
-0.339437
-0.332944
-0.326512
-0.319871
-0.312958
-0.305637
-0.297746
-0.289196
-0.28001
-0.27031
-0.260282
-0.250131
-0.240047
-0.230181
-0.220638
-0.211473
-0.202704
-0.194322
-0.1863
-0.178604
-0.171204
-0.164042
-0.157333
-0.361679
-0.353492
-0.345866
-0.338431
-0.330669
-0.322392
-0.313411
-0.303589
-0.292938
-0.28162
-0.269896
-0.258048
-0.246333
-0.234946
-0.224015
-0.213606
-0.203737
-0.194396
-0.185549
-0.177156
-0.169173
-0.161559
-0.154275
-0.147425
-0.378514
-0.368834
-0.36005
-0.351476
-0.34228
-0.332166
-0.320972
-0.308695
-0.295542
-0.281862
-0.268043
-0.254429
-0.241274
-0.228736
-0.21689
-0.205753
-0.195301
-0.185493
-0.176276
-0.167597
-0.159402
-0.151646
-0.144296
-0.137358
-0.396156
-0.385038
-0.375066
-0.365136
-0.35408
-0.341569
-0.327603
-0.312437
-0.296535
-0.280426
-0.264583
-0.249344
-0.234913
-0.221382
-0.20876
-0.197014
-0.186085
-0.175904
-0.166402
-0.157514
-0.149179
-0.141348
-0.133983
-0.127012
-0.413874
-0.401434
-0.390212
-0.378612
-0.365182
-0.349709
-0.332513
-0.314202
-0.295499
-0.277061
-0.259367
-0.242697
-0.227172
-0.212801
-0.199535
-0.187293
-0.175984
-0.165521
-0.155819
-0.1468
-0.138396
-0.130552
-0.123213
-0.116261
-0.430704
-0.417092
-0.404501
-0.390829
-0.374486
-0.355569
-0.33486
-0.31335
-0.291968
-0.271412
-0.252101
-0.234214
-0.217777
-0.202722
-0.188943
-0.176322
-0.164743
-0.154098
-0.144289
-0.135229
-0.12684
-0.119059
-0.111798
-0.104942
-0.445534
-0.430946
-0.416837
-0.40065
-0.380871
-0.358124
-0.333756
-0.309116
-0.285257
-0.262837
-0.242159
-0.223283
-0.206133
-0.190569
-0.176436
-0.163581
-0.151867
-0.141167
-0.131373
-0.122385
-0.114125
-0.106514
-0.0994371
-0.0928303
-0.296417
-0.298607
-0.299907
-0.300685
-0.301265
-0.301729
-0.302108
-0.302419
-0.302661
-0.302823
-0.302888
-0.302839
-0.302661
-0.302343
-0.301883
-0.30129
-0.300587
-0.299812
-0.29903
-0.298326
-0.297807
-0.297594
-0.297854
-0.298872
-0.291463
-0.293425
-0.294531
-0.295097
-0.29541
-0.295545
-0.295534
-0.295402
-0.295155
-0.294795
-0.294321
-0.293734
-0.293044
-0.292271
-0.291449
-0.290629
-0.289877
-0.289282
-0.288957
-0.289036
-0.289666
-0.290993
-0.293198
-0.296713
-0.287524
-0.28918
-0.290047
-0.290381
-0.290421
-0.290231
-0.289846
-0.289293
-0.288591
-0.287752
-0.28679
-0.285724
-0.284587
-0.283424
-0.2823
-0.281295
-0.280511
-0.280059
-0.280106
-0.280802
-0.282318
-0.284802
-0.288368
-0.293585
-0.284465
-0.285784
-0.286392
-0.286483
-0.286244
-0.28573
-0.284976
-0.284016
-0.282877
-0.281585
-0.280168
-0.278663
-0.277119
-0.275604
-0.274205
-0.273032
-0.272219
-0.271783
-0.272107
-0.273237
-0.275357
-0.278617
-0.283077
-0.289227
-0.282135
-0.283141
-0.283495
-0.283337
-0.282812
-0.281966
-0.280838
-0.279469
-0.277898
-0.276162
-0.274305
-0.272377
-0.270446
-0.268591
-0.266919
-0.265549
-0.26462
-0.264277
-0.264708
-0.266073
-0.268537
-0.272248
-0.277249
-0.283577
-0.280428
-0.28118
-0.2813
-0.280889
-0.280066
-0.278875
-0.277359
-0.27557
-0.273558
-0.271376
-0.26908
-0.266737
-0.264427
-0.262245
-0.260304
-0.258737
-0.25769
-0.257321
-0.257795
-0.259272
-0.261899
-0.265774
-0.271126
-0.277001
-0.279309
-0.279883
-0.279792
-0.279125
-0.27799
-0.276438
-0.274521
-0.2723
-0.269843
-0.267216
-0.264492
-0.261751
-0.259085
-0.256602
-0.254424
-0.252689
-0.251545
-0.251148
-0.251647
-0.253182
-0.255895
-0.259684
-0.265311
-0.270194
-0.278839
-0.279298
-0.279013
-0.278082
-0.276625
-0.274701
-0.272379
-0.269735
-0.266849
-0.263805
-0.26069
-0.2576
-0.254639
-0.251925
-0.249584
-0.247758
-0.246591
-0.246224
-0.246792
-0.248372
-0.251151
-0.25462
-0.260375
-0.26397
-0.279172
-0.27954
-0.279058
-0.277851
-0.276066
-0.273772
-0.271066
-0.268033
-0.264768
-0.26137
-0.257942
-0.254593
-0.251435
-0.248592
-0.246193
-0.244368
-0.243245
-0.24294
-0.243554
-0.245077
-0.247767
-0.250707
-0.256095
-0.258529
-0.280531
-0.280769
-0.280058
-0.278555
-0.276437
-0.273801
-0.270749
-0.267385
-0.263817
-0.260156
-0.256513
-0.253004
-0.249743
-0.246848
-0.244436
-0.242613
-0.241476
-0.241097
-0.241537
-0.242732
-0.244916
-0.247191
-0.251479
-0.25305
-0.283157
-0.28316
-0.282151
-0.280318
-0.277861
-0.274899
-0.271544
-0.267909
-0.26411
-0.260259
-0.256469
-0.252848
-0.249502
-0.246529
-0.244016
-0.242033
-0.240628
-0.239824
-0.239622
-0.23998
-0.240988
-0.242269
-0.244892
-0.245885
-0.287257
-0.286861
-0.28545
-0.283232
-0.280411
-0.277122
-0.273485
-0.269614
-0.265618
-0.261602
-0.257665
-0.253897
-0.250378
-0.247174
-0.244332
-0.241878
-0.239809
-0.238103
-0.236704
-0.235584
-0.234659
-0.234041
-0.234033
-0.234348
-0.301243
-0.305361
-0.311223
-0.318751
-0.327746
-0.337503
-0.346866
-0.354215
-0.35764
-0.355246
-0.344823
-0.325925
-0.298602
-0.264736
-0.227959
-0.192545
-0.162181
-0.139341
-0.125468
-0.121577
-0.127982
-0.142515
-0.159154
-0.169312
-0.166339
-0.149659
-0.125128
-0.100501
-0.0814092
-0.0702052
-0.0663515
-0.0687052
-0.0785601
-0.0971977
-0.119284
-0.132938
-0.129026
-0.110339
-0.0868436
-0.0677491
-0.0559073
-0.049892
-0.0506743
-0.0595242
-0.0704768
-0.0729253
-0.0656743
-0.0547855
-0.0453593
-0.0391008
-0.037536
-0.0403836
-0.0425262
-0.0389224
-0.0335719
-0.0253775
-0.0155918
-0.00946636
-0.00279333
0.000665477
-0.303067
-0.311666
-0.322272
-0.334434
-0.348041
-0.361949
-0.374739
-0.384556
-0.389289
-0.3868
-0.375123
-0.353331
-0.321749
-0.282633
-0.240048
-0.198743
-0.162762
-0.134705
-0.115749
-0.106505
-0.107327
-0.116882
-0.130469
-0.140543
-0.140292
-0.128472
-0.109535
-0.0901193
-0.0755413
-0.0681606
-0.0674658
-0.0727347
-0.0858882
-0.107979
-0.132642
-0.146679
-0.140735
-0.118953
-0.0921597
-0.0699188
-0.0553895
-0.0471225
-0.0454788
-0.0517661
-0.060784
-0.0631203
-0.0577263
-0.049792
-0.0432467
-0.0395594
-0.0407436
-0.0458931
-0.0494451
-0.0450948
-0.0383083
-0.0282661
-0.0164183
-0.00885545
-0.000914388
0.00172922
-0.303353
-0.315286
-0.329198
-0.344929
-0.361773
-0.378557
-0.393693
-0.405208
-0.410776
-0.40829
-0.395701
-0.37189
-0.337243
-0.294229
-0.247215
-0.201264
-0.160726
-0.128271
-0.1049
-0.0908518
-0.0863491
-0.090836
-0.100951
-0.110411
-0.112739
-0.105436
-0.0920396
-0.0779466
-0.0680702
-0.0646368
-0.0671473
-0.0753598
-0.0917081
-0.116993
-0.143985
-0.158408
-0.150715
-0.126176
-0.0964846
-0.0714658
-0.0544985
-0.0441899
-0.0403323
-0.0442061
-0.0513588
-0.0535078
-0.0498048
-0.0446212
-0.0408535
-0.0397992
-0.0438945
-0.0514979
-0.0564565
-0.0512279
-0.0428699
-0.0309974
-0.0172134
-0.00836227
0.000781196
0.00267066
-0.301406
-0.315652
-0.331531
-0.349262
-0.368055
-0.38658
-0.403118
-0.415755
-0.421717
-0.419339
-0.406318
-0.381421
-0.345018
-0.299672
-0.249903
-0.200987
-0.157357
-0.12161
-0.0946259
-0.076441
-0.067085
-0.0664388
-0.072574
-0.0805986
-0.084657
-0.0813589
-0.0732618
-0.0643642
-0.0591344
-0.0595283
-0.0650812
-0.0760518
-0.0953006
-0.123499
-0.15271
-0.167748
-0.158734
-0.131859
-0.0997338
-0.0723944
-0.053313
-0.0412056
-0.0353965
-0.0370791
-0.0424662
-0.0443294
-0.0420697
-0.0393615
-0.0382112
-0.0397917
-0.0469059
-0.057098
-0.0634691
-0.0572571
-0.0472096
-0.0335372
-0.0179608
-0.00797584
0.0023073
0.00350042
-0.297296
-0.312848
-0.329509
-0.347934
-0.367478
-0.386731
-0.403898
-0.416009
-0.422672
-0.420475
-0.407432
-0.382311
-0.345473
-0.299503
-0.24893
-0.19894
-0.153806
-0.115981
-0.0862565
-0.0645906
-0.0509184
-0.0453384
-0.0470358
-0.0527085
-0.057389
-0.0571337
-0.0538901
-0.0497632
-0.048822
-0.0526874
-0.0609656
-0.074376
-0.0961753
-0.127009
-0.158332
-0.174282
-0.164529
-0.135926
-0.101911
-0.0727517
-0.0519217
-0.0382767
-0.030789
-0.03053
-0.0342968
-0.0357884
-0.0346713
-0.0341007
-0.0353426
-0.0394963
-0.0496838
-0.0625652
-0.0703573
-0.0631047
-0.0512803
-0.0358564
-0.018645
-0.00768326
0.00367903
0.00422976
-0.291556
-0.307531
-0.323934
-0.342006
-0.361237
-0.380249
-0.398601
-0.409261
-0.415274
-0.412955
-0.400143
-0.375537
-0.339511
-0.294589
-0.245085
-0.195834
-0.150744
-0.112066
-0.0805448
-0.0561354
-0.038754
-0.0286057
-0.0256499
-0.0281291
-0.0322899
-0.033646
-0.0346502
-0.0345579
-0.0372626
-0.0440831
-0.0546908
-0.0701756
-0.0941278
-0.12724
-0.160529
-0.177684
-0.167913
-0.138339
-0.10304
-0.0725807
-0.0503899
-0.0354729
-0.0265731
-0.0246407
-0.0269703
-0.0280357
-0.0277439
-0.0289185
-0.0322706
-0.0388728
-0.0521244
-0.0677508
-0.0769893
-0.0686882
-0.0550387
-0.0379275
-0.019248
-0.00746724
0.00491237
0.00487153
-0.285026
-0.300562
-0.315788
-0.332652
-0.350532
-0.367584
-0.381338
-0.394862
-0.400678
-0.39826
-0.385924
-0.362505
-0.328429
-0.286042
-0.239226
-0.192247
-0.148521
-0.110061
-0.0776291
-0.0512634
-0.0308975
-0.0167661
-0.00926109
-0.00790867
-0.0105552
-0.0149165
-0.016265
-0.0191185
-0.024699
-0.0338618
-0.0463335
-0.0634747
-0.0891411
-0.12412
-0.159284
-0.177819
-0.168787
-0.139086
-0.103162
-0.071916
-0.0487577
-0.0328354
-0.0227754
-0.0194231
-0.0205227
-0.0211624
-0.0213899
-0.0238943
-0.0290287
-0.0378834
-0.0541203
-0.0725076
-0.0832244
-0.0739221
-0.058444
-0.0397279
-0.0197542
-0.00730726
0.00602554
0.00544038
-0.27829
-0.292313
-0.305592
-0.320669
-0.336687
-0.35263
-0.365471
-0.376019
-0.380629
-0.378003
-0.366372
-0.344781
-0.313649
-0.274996
-0.232095
-0.188513
-0.147137
-0.10975
-0.0771699
-0.0496033
-0.0270495
-0.00971437
0.0018703
0.00736175
0.00760051
0.00461411
0.00131707
-0.00370458
-0.0113855
-0.0222457
-0.0360861
-0.0544751
-0.08141
-0.117836
-0.154699
-0.174777
-0.167151
-0.138177
-0.102326
-0.0707895
-0.0470515
-0.0303901
-0.019406
-0.0148634
-0.0149295
-0.0151845
-0.0156777
-0.0191073
-0.025659
-0.0365063
-0.0555702
-0.076684
-0.0889163
-0.0787239
-0.0614638
-0.0412471
-0.0201577
-0.00719137
0.00703679
0.00595318
-0.270986
-0.282219
-0.293194
-0.306292
-0.320136
-0.332783
-0.344707
-0.352937
-0.356501
-0.353758
-0.343189
-0.32404
-0.296619
-0.262506
-0.224263
-0.184727
-0.146296
-0.110578
-0.0784648
-0.050364
-0.0264045
-0.00674512
0.00813108
0.0175502
0.0213956
0.0207612
0.0174413
0.0113852
0.00242614
-0.00949172
-0.0242078
-0.0434549
-0.0713446
-0.108918
-0.147123
-0.168847
-0.163229
-0.135766
-0.100701
-0.0693603
-0.045401
-0.0282381
-0.0165157
-0.01096
-0.0101614
-0.0100714
-0.0106044
-0.0146349
-0.0222101
-0.0347041
-0.0563943
-0.0801484
-0.0939353
-0.0830196
-0.0640835
-0.0424959
-0.0204659
-0.00712441
0.00795335
0.00642834
-0.262045
-0.269669
-0.278507
-0.289427
-0.301438
-0.311403
-0.320766
-0.327395
-0.330202
-0.327676
-0.31865
-0.302456
-0.279217
-0.250015
-0.216704
-0.181442
-0.146206
-0.112495
-0.0812841
-0.0531556
-0.0283963
-0.00716009
0.0101812
0.0229306
0.0304922
0.033038
0.0314509
0.0256396
0.0163787
0.00402503
-0.0111524
-0.0309947
-0.0595352
-0.0977715
-0.137052
-0.160485
-0.15733
-0.132165
-0.0986595
-0.0679816
-0.0440706
-0.0265789
-0.0142109
-0.00770575
-0.00616229
-0.00582161
-0.0062107
-0.0105163
-0.0187243
-0.0325197
-0.0565191
-0.0827702
-0.098148
-0.0867355
-0.0663011
-0.0434818
-0.0206781
-0.00709818
0.00877043
0.00688256
-0.250808
-0.255616
-0.262892
-0.270843
-0.278287
-0.287592
-0.295582
-0.301362
-0.303885
-0.302116
-0.295105
-0.282228
-0.263409
-0.239251
-0.210955
-0.180063
-0.148156
-0.116626
-0.0865424
-0.058652
-0.0334081
-0.0110771
0.00809493
0.0235583
0.0345859
0.0407588
0.0421228
0.0380976
0.0297633
0.0177983
0.00273973
-0.0173168
-0.0464571
-0.0856494
-0.125648
-0.149873
-0.149507
-0.127138
-0.0959937
-0.0664509
-0.0428093
-0.0252033
-0.0123345
-0.00492168
-0.00266662
-0.00228238
-0.00277378
-0.006882
-0.0152174
-0.0298058
-0.055902
-0.0845918
-0.101434
-0.0897062
-0.0680333
-0.0441086
-0.0207233
-0.00703585
0.00952068
0.00733333
-0.237833
-0.242432
-0.24758
-0.252109
-0.257477
-0.264164
-0.269965
-0.274204
-0.27624
-0.275056
-0.269828
-0.259968
-0.245205
-0.225722
-0.202176
-0.175595
-0.147207
-0.118256
-0.0898403
-0.0628244
-0.0378277
-0.0152634
0.00458979
0.0214158
0.0347925
0.044257
0.0490048
0.0479116
0.0412727
0.0304083
0.0159486
-0.00385865
-0.032846
-0.0718328
-0.111768
-0.136478
-0.138042
-0.118979
-0.0906023
-0.0627184
-0.0398785
-0.0227408
-0.00993878
-0.00206966
0.00077448
0.00113633
0.000378122
-0.00360074
-0.0119362
-0.0268691
-0.0544888
-0.0852635
-0.103735
-0.0917186
-0.0690451
-0.0441383
-0.0204341
-0.00681707
0.0103242
0.00781732
-0.225165
-0.233937
-0.237618
-0.240488
-0.244545
-0.249294
-0.253551
-0.256804
-0.257945
-0.256067
-0.250542
-0.240891
-0.226886
-0.208695
-0.186888
-0.162346
-0.136123
-0.109289
-0.082797
-0.0574035
-0.0336583
-0.0119551
0.00743993
0.0242697
0.0382283
0.0489762
0.056005
0.0573334
0.0530055
0.0439883
0.0307846
0.0113456
-0.0189515
-0.0612399
-0.104442
-0.130752
-0.13126
-0.111085
-0.0833411
-0.0568183
-0.035233
-0.0190191
-0.00677472
0.000902404
0.00400118
0.00458325
0.00423733
0.000951847
-0.00721618
-0.022469
-0.0519044
-0.0855571
-0.10629
-0.0937382
-0.0694766
-0.0436725
-0.0198565
-0.00647983
0.0111914
0.00831701
-0.21097
-0.222375
-0.226103
-0.227263
-0.229234
-0.232275
-0.235373
-0.237322
-0.237191
-0.234346
-0.228357
-0.218897
-0.205813
-0.189241
-0.169621
-0.147639
-0.124118
-0.0999093
-0.0757979
-0.052441
-0.0303512
-0.0099187
0.00858208
0.0249532
0.0390005
0.0504809
0.0576151
0.0612043
0.0590364
0.0519745
0.0403208
0.0216061
-0.00933489
-0.0530219
-0.0963625
-0.120531
-0.119529
-0.100051
-0.0745049
-0.0503574
-0.0305599
-0.0155977
-0.00404884
0.00347309
0.00674389
0.00726597
0.00697478
0.00396925
-0.00371381
-0.0189172
-0.0494867
-0.0852792
-0.107382
-0.0943697
-0.0689612
-0.0427238
-0.0190763
-0.00602148
0.0119159
0.00864569
-0.196238
-0.208731
-0.212605
-0.212751
-0.213331
-0.215173
-0.217132
-0.217959
-0.216893
-0.213488
-0.207451
-0.198561
-0.186685
-0.17188
-0.154435
-0.134851
-0.113768
-0.0918833
-0.0698719
-0.0483282
-0.0277396
-0.00849079
0.00913233
0.0249139
0.0386715
0.0504886
0.0582426
0.0626364
0.0617931
0.0560611
0.0453848
0.0269195
-0.00418777
-0.0466368
-0.0866475
-0.108234
-0.106021
-0.0883065
-0.0655722
-0.0439789
-0.0259681
-0.0122006
-0.00137494
0.0059018
0.00930232
0.00980162
0.00957927
0.0066328
-0.00098093
-0.0163756
-0.0476026
-0.0842681
-0.107054
-0.0939962
-0.0678226
-0.0414076
-0.0181247
-0.00547068
0.0125671
0.00890221
-0.181908
-0.194049
-0.198026
-0.197894
-0.197678
-0.19848
-0.199474
-0.199524
-0.19791
-0.194263
-0.188374
-0.180085
-0.169288
-0.155995
-0.140407
-0.122905
-0.104
-0.0842614
-0.064258
-0.0445057
-0.025448
-0.00745237
0.00919168
0.024235
0.0374093
0.0481761
0.0570386
0.0620331
0.062202
0.0575496
0.0477113
0.0297468
-0.000272675
-0.0395959
-0.0753229
-0.0937547
-0.0913962
-0.0759923
-0.0563396
-0.0374584
-0.0213245
-0.00879331
0.00123224
0.00818782
0.0116895
0.0122709
0.0121824
0.0093605
0.0016693
-0.0139635
-0.0453111
-0.0821129
-0.105509
-0.0926451
-0.0660392
-0.0396712
-0.0169749
-0.00481509
0.0131386
0.00911129
-0.167346
-0.17895
-0.18307
-0.18294
-0.182247
-0.182301
-0.182591
-0.182119
-0.180184
-0.176455
-0.170784
-0.163077
-0.153256
-0.141326
-0.127422
-0.111828
-0.094938
-0.077209
-0.0591098
-0.041086
-0.0235405
-0.0068245
0.00877184
0.0229812
0.0355172
0.046024
0.0545555
0.0597625
0.0605946
0.0568204
0.047899
0.0311108
0.00352777
-0.0315449
-0.0625479
-0.0780079
-0.0761338
-0.0634865
-0.0471123
-0.0310026
-0.0167598
-0.00544089
0.00375427
0.0103319
0.0138942
0.014647
0.0147292
0.0121605
0.00450574
-0.0110685
-0.0420506
-0.0787229
-0.102571
-0.0901243
-0.0635182
-0.0374984
-0.0156238
-0.00406047
0.0136193
0.00926014
-0.152813
-0.163972
-0.168126
-0.168041
-0.167109
-0.166705
-0.166517
-0.165691
-0.163582
-0.159892
-0.15452
-0.147412
-0.138523
-0.12785
-0.115481
-0.10162
-0.0865688
-0.0706926
-0.0543806
-0.0380162
-0.0219602
-0.00654207
0.00795226
0.0212549
0.0330758
0.0431009
0.051162
0.0563022
0.0575141
0.0544359
0.0464725
0.0313778
0.00719535
-0.0227498
-0.0487642
-0.0618535
-0.0610371
-0.0513426
-0.0381725
-0.0247317
-0.0123381
-0.00218658
0.00617725
0.0123335
0.0158981
0.0168982
0.0172201
0.0150172
0.00757132
-0.00758559
-0.037837
-0.0740209
-0.0980308
-0.0863022
-0.0602121
-0.0348916
-0.0140758
-0.00321331
0.0139966
0.0093314
-0.13892
-0.14936
-0.153398
-0.153392
-0.152393
-0.151739
-0.151247
-0.150207
-0.148047
-0.144504
-0.139499
-0.133007
-0.125004
-0.115483
-0.104503
-0.0922102
-0.0788362
-0.0646715
-0.0500377
-0.0352618
-0.0206626
-0.00654334
0.00681864
0.01916
0.0301916
0.0396051
0.0471396
0.0520684
0.0535104
0.0510322
0.0440716
0.0310179
0.0107939
-0.0137213
-0.0350561
-0.0464164
-0.0469088
-0.0400194
-0.0297615
-0.0187669
-0.00812871
0.000917842
0.00848359
0.0141934
0.0177002
0.0189987
0.0196493
0.0179064
0.0108246
-0.00365644
-0.0327673
-0.0679291
-0.0918081
-0.0811147
-0.0561037
-0.031872
-0.0123476
-0.00228339
0.0142564
0.00931024
-0.125624
-0.135191
-0.139066
-0.139173
-0.138208
-0.137445
-0.136787
-0.135652
-0.133542
-0.130222
-0.125627
-0.119751
-0.112584
-0.104122
-0.0944038
-0.0835363
-0.0716954
-0.0591118
-0.0460488
-0.0327835
-0.0195958
-0.00676037
0.00545825
0.016803
0.0269944
0.0357302
0.0427119
0.0473692
0.0489712
0.0470691
0.0412055
0.0303854
0.0141123
-0.00540838
-0.0226989
-0.0326861
-0.0343482
-0.0298402
-0.0220623
-0.0132051
-0.0041832
0.00382848
0.0106562
0.0159127
0.0193168
0.0209252
0.0219946
0.0207827
0.014213
0.000640011
-0.0268465
-0.0604781
-0.0839349
-0.0745642
-0.0512164
-0.0284841
-0.0104691
-0.0012822
0.0143857
0.0091843
-0.112838
-0.121613
-0.125317
-0.12554
-0.124677
-0.12387
-0.123145
-0.122006
-0.120018
-0.116969
-0.112807
-0.107537
-0.101159
-0.0936743
-0.0851085
-0.075539
-0.0650997
-0.0539728
-0.0423739
-0.0305365
-0.0187044
-0.00712399
0.00395787
0.0142956
0.0236225
0.0316486
0.0380717
0.042436
0.0441584
0.0428274
0.0381066
0.0294418
0.0166464
0.00135385
-0.0125038
-0.0212119
-0.0236395
-0.0209566
-0.0151789
-0.00811638
-0.00054068
0.00650848
0.0126746
0.0174885
0.0207688
0.0226677
0.0242286
0.0236004
0.0177377
0.00533434
-0.0201123
-0.0518205
-0.0745505
-0.0667408
-0.045625
-0.024796
-0.00848151
-0.000221864
0.0143751
0.00894575
-0.100777
-0.108773
-0.112256
-0.112562
-0.111794
-0.111029
-0.110315
-0.10924
-0.107422
-0.104674
-0.100954
-0.0962731
-0.0906405
-0.0840584
-0.0765454
-0.068158
-0.0589984
-0.0492107
-0.0389708
-0.0284748
-0.0179332
-0.00756546
0.00240375
0.0117454
0.0202073
0.0275179
0.0333917
0.0374611
0.0392723
0.038475
0.0348274
0.0280481
0.0181351
0.006323
-0.00462109
-0.0120394
-0.0147865
-0.0133794
-0.00914848
-0.00354711
0.00277098
0.00893088
0.0145107
0.0189177
0.0220689
0.0242242
0.02633
0.0263521
0.0214425
0.0104365
-0.0127143
-0.0422239
-0.0639176
-0.05784
-0.0394617
-0.0208976
-0.0064336
0.000886158
0.0142255
0.00859585
-0.0895313
-0.096703
-0.099924
-0.100298
-0.0996509
-0.0989592
-0.0983001
-0.0973292
-0.0957104
-0.0932774
-0.0899963
-0.0858821
-0.0809477
-0.0751979
-0.0686465
-0.061335
-0.0533421
-0.0447819
-0.0357974
-0.026553
-0.0172286
-0.00801765
0.00087779
0.00924975
0.0168666
0.0234775
0.0288229
0.0326043
0.0344724
0.0341431
0.0314434
0.0262598
0.0187071
0.00972518
0.0012439
-0.00491837
-0.00763375
-0.0070392
-0.00396136
0.000477666
0.00573237
0.0110815
0.0161295
0.0201912
0.0232257
0.0255879
0.0282523
0.0290665
0.025363
0.0158806
-0.00493419
-0.0320949
-0.0524338
-0.0481675
-0.0329152
-0.0168945
-0.00437332
0.00203355
0.0139493
0.00815219
-0.079013
-0.0854019
-0.088363
-0.0887943
-0.0882753
-0.0876796
-0.0870999
-0.0862513
-0.0848437
-0.0827278
-0.0798729
-0.0762952
-0.0720105
-0.0670253
-0.0613501
-0.055016
-0.0480838
-0.0406441
-0.0328129
-0.0247272
-0.0165402
-0.0084194
-0.000544671
0.00689782
0.0137019
0.0196417
0.0244878
0.0279938
0.0298933
0.0299642
0.0280877
0.0242465
0.0186055
0.0118923
0.0055234
0.000500743
-0.00196253
-0.00182883
0.00042124
0.00395292
0.00832926
0.0129564
0.0175049
0.0212819
0.0242394
0.0267566
0.0299023
0.0317098
0.0294321
0.0214679
0.00277924
-0.0219612
-0.0406104
-0.0381251
-0.0262233
-0.0129012
-0.00234155
0.00322148
0.0135776
0.00765313
-0.0692215
-0.0749036
-0.0776116
-0.0780823
-0.0776819
-0.0771918
-0.0767024
-0.0759849
-0.0747875
-0.0729781
-0.0705277
-0.0674517
-0.0637667
-0.0594802
-0.0546007
-0.0491516
-0.04318
-0.0367577
-0.0299793
-0.0229579
-0.015823
-0.00871801
-0.00179965
0.00476558
0.0107989
0.0161048
0.0204838
0.0237313
0.025643
0.0260526
0.0248786
0.0221489
0.0180437
0.0131337
0.00863661
0.00450866
0.00243947
0.00237353
0.00405537
0.00689173
0.0105534
0.014554
0.0186303
0.0221568
0.0250754
0.0277266
0.0312004
0.0339956
0.0332352
0.026667
0.00984248
-0.0123428
-0.0290026
-0.0281852
-0.0196561
-0.00903301
-0.000371121
0.00445294
0.0131786
0.00716173
-0.0602008
-0.0652159
-0.0676663
-0.0681592
-0.0678681
-0.0674739
-0.0670778
-0.0664933
-0.0655037
-0.0639861
-0.061913
-0.0592996
-0.0561627
-0.0525104
-0.0483493
-0.0436974
-0.0385911
-0.0330875
-0.027263
-0.0212108
-0.0150396
-0.00887083
-0.0028383
0.0029114
0.00822546
0.012939
0.0168843
0.0198894
0.0217973
0.022485
0.0218976
0.0200783
0.0171894
0.0136047
0.00979815
0.00729103
0.00577407
0.00569297
0.00700607
0.00932054
0.012406
0.0158714
0.0195083
0.0227979
0.0256817
0.0284443
0.0320947
0.0355884
0.0360278
0.0306631
0.0157058
-0.00366076
-0.0181925
-0.0188718
-0.0134915
-0.00539841
0.00151008
0.00570319
0.0128375
0.0067724
-0.0519161
-0.0563062
-0.058506
-0.0590085
-0.0588125
-0.0585142
-0.0582157
-0.057758
-0.0569579
-0.0557078
-0.0539814
-0.0517902
-0.0491499
-0.0460688
-0.0425523
-0.0386142
-0.0342826
-0.0296027
-0.0246363
-0.0194596
-0.0141623
-0.00884644
-0.0036262
0.00137523
0.0060275
0.0101937
0.0137365
0.0165127
0.0183999
0.0193068
0.0191979
0.0181199
0.0162169
0.0137693
0.0111952
0.00932692
0.00826367
0.00825905
0.00934515
0.0112749
0.0138977
0.0169084
0.0201427
0.0231964
0.0260203
0.0288297
0.0324898
0.0361885
0.0372453
0.0328768
0.0200195
0.00368571
-0.00877411
-0.0106776
-0.00796673
-0.00208819
0.00327029
0.00690475
0.0126135
0.00658658
-0.0443134
-0.0481424
-0.0501098
-0.0506146
-0.0505052
-0.0502994
-0.0500868
-0.0497402
-0.0491097
-0.0481028
-0.0466908
-0.0448805
-0.0426855
-0.0401143
-0.0371718
-0.0338682
-0.0302253
-0.0262788
-0.022078
-0.0176847
-0.0131726
-0.00862609
-0.00414117
0.000179336
0.00422764
0.0078912
0.011064
0.0136224
0.0154694
0.0165393
0.0168106
0.0163252
0.0152103
0.0136945
0.0120159
0.0107414
0.0100736
0.0101887
0.0111457
0.0127952
0.0150466
0.0176708
0.0205387
0.0233486
0.0260677
0.0288379
0.0322941
0.0356952
0.0368504
0.0332895
0.0226777
0.00933999
-0.00119945
-0.00392735
-0.00322725
0.000830246
0.00486665
0.00796725
0.0124852
0.00664764
-0.037372
-0.0406996
-0.042451
-0.0429492
-0.0429118
-0.0427849
-0.0426539
-0.0424133
-0.0419341
-0.0411392
-0.0400035
-0.0385308
-0.036731
-0.0346109
-0.032175
-0.0294312
-0.0263959
-0.023097
-0.0195736
-0.0158754
-0.0120621
-0.00820256
-0.00437531
-0.00066704
0.00283089
0.00603013
0.00886803
0.0112187
0.0130069
0.014186
0.0147422
0.0147147
0.0142159
0.0134921
0.0124183
0.0116585
0.0113376
0.0115885
0.0124792
0.0139252
0.0158777
0.0181703
0.0207035
0.0232572
0.025819
0.0284779
0.0314077
0.0343002
0.0352715
0.0323333
0.0238485
0.0132125
0.00444175
0.00131425
0.000683919
0.00330516
0.0062372
0.00880102
0.0122839
0.00685621
-0.0310618
-0.033938
-0.0354885
-0.0359739
-0.0359976
-0.0359414
-0.0358839
-0.0357373
-0.0353894
-0.0347785
-0.0338826
-0.0327046
-0.0312513
-0.0295267
-0.0275343
-0.02528
-0.0227762
-0.0200444
-0.0171154
-0.0140283
-0.0108308
-0.00757828
-0.00433408
-0.0011708
0.00183296
0.00458195
0.00713927
0.009288
0.0109965
0.0122348
0.0129921
0.013294
0.0132036
0.0127589
0.0124631
0.0121818
0.0121663
0.012552
0.0134135
0.0147099
0.0164196
0.0184239
0.0206502
0.0229334
0.0252724
0.0278279
0.0300994
0.032347
0.0330268
0.0305651
0.0239171
0.0155699
0.00838446
0.00518193
0.00378917
0.0053024
0.00730042
0.00932612
0.0117741
0.00694845
-0.0253366
-0.0278125
-0.0291809
-0.0296504
-0.0297252
-0.0297298
-0.0297351
-0.0296696
-0.0294388
-0.0289835
-0.0282929
-0.0273681
-0.0262142
-0.0248328
-0.0232253
-0.0213957
-0.0193532
-0.0171139
-0.0147016
-0.0121474
-0.00948835
-0.00676762
-0.00403379
-0.00134038
0.00126096
0.00374329
0.00589079
0.00780743
0.00941153
0.0106642
0.0115549
0.0121018
0.0123637
0.0123777
0.0123859
0.012435
0.0126606
0.0131633
0.014013
0.0151948
0.0167037
0.0184563
0.0203982
0.022393
0.0243972
0.0261708
0.028434
0.0301341
0.0305204
0.0284414
0.0232943
0.0168032
0.0109805
0.00790744
0.0061404
0.00681287
0.00799461
0.00946848
0.0108424
0.00667026
-0.0201563
-0.0222813
-0.0234864
-0.0239376
-0.024054
-0.0241094
-0.0241671
-0.0241696
-0.024038
-0.0237219
-0.0232036
-0.022492
-0.0215916
-0.0205036
-0.0192269
-0.0177627
-0.0161173
-0.0143025
-0.0123367
-0.0102435
-0.00805143
-0.00579442
-0.00351066
-0.00124266
0.000963224
0.00305961
0.0049805
0.0067111
0.00820762
0.00944284
0.0104067
0.0111113
0.011585
0.0119256
0.0121998
0.0124929
0.0129
0.0134945
0.0143366
0.0154251
0.0167641
0.0182944
0.0199766
0.0216987
0.0234273
0.0250205
0.0266901
0.027878
0.0280112
0.0262514
0.0222851
0.0172493
0.0125628
0.00974384
0.00781285
0.00784481
0.00830896
0.0091973
0.00955963
0.00594378
-0.0154847
-0.0173026
-0.0183616
-0.0187928
-0.0189423
-0.0190398
-0.0191404
-0.0191986
-0.019149
-0.0189491
-0.0185837
-0.0180514
-0.0173605
-0.016519
-0.0155224
-0.0143694
-0.0130629
-0.0116114
-0.0100282
-0.00833094
-0.00654175
-0.00468669
-0.00279555
-0.000901593
0.000958596
0.00274668
0.00442867
0.00596571
0.00734288
0.00853233
0.00952251
0.0103265
0.0109647
0.0114874
0.0119504
0.0124149
0.0129498
0.0136078
0.0144379
0.0154445
0.0166363
0.0179689
0.0194171
0.0208873
0.0223516
0.0236853
0.0249163
0.0256958
0.025637
0.0241466
0.0210823
0.0171667
0.0133909
0.0109155
0.00888211
0.00844752
0.00830813
0.00860379
0.00788669
0.00490601
-0.0112832
-0.0128339
-0.0137632
-0.0141737
-0.0143493
-0.0144808
-0.0146162
-0.0147191
-0.0147358
-0.0146308
-0.0143908
-0.0140157
-0.0135091
-0.0128699
-0.0121021
-0.011209
-0.0101884
-0.00904453
-0.00778639
-0.00642708
-0.00498285
-0.00347333
-0.00192144
-0.00035268
0.00120595
0.00272573
0.00417811
0.00553754
0.00678083
0.00789731
0.00888037
0.00972529
0.0104517
0.0110871
0.0116714
0.0122469
0.0128628
0.0135562
0.0143652
0.0152949
0.0163555
0.0175124
0.0187494
0.0199872
0.0212005
0.0222728
0.0231715
0.0236472
0.0234567
0.022194
0.0198063
0.0167365
0.0136383
0.0111348
0.00947403
0.00872069
0.00808068
0.00785888
0.00654365
0.00384227
-0.00751487
-0.00883457
-0.00964968
-0.0100396
-0.0102351
-0.0103937
-0.0105563
-0.0106944
-0.0107641
-0.0107357
-0.010598
-0.0103503
-0.00999479
-0.00953224
-0.00896238
-0.00828216
-0.00749619
-0.00660852
-0.00562375
-0.00454991
-0.00339869
-0.0021846
-0.000924226
0.000363462
0.00165755
0.00293667
0.00417966
0.00536667
0.00648043
0.00750821
0.00844458
0.00928809
0.0100474
0.0107388
0.0113888
0.0120252
0.0126821
0.0133846
0.0141614
0.0150153
0.0159563
0.0169559
0.0180036
0.0190318
0.0200166
0.0208541
0.0214978
0.0217577
0.0214863
0.0204137
0.0185288
0.0161006
0.0135672
0.0114403
0.00975546
0.00875178
0.00774917
0.0070835
0.00545191
0.00293655
-0.00414563
-0.00526668
-0.0059817
-0.00635132
-0.0065616
-0.00674111
-0.00692456
-0.00708956
-0.00720071
-0.0072335
-0.00717809
-0.0070335
-0.00680108
-0.00648115
-0.00607263
-0.00557433
-0.0049866
-0.00431102
-0.00355263
-0.00271791
-0.00181424
-0.000851048
0.000159786
0.00120484
0.00226822
0.00333365
0.00438578
0.00540952
0.00639102
0.00731932
0.00818852
0.00899645
0.00974754
0.0104503
0.0111215
0.0117778
0.0124426
0.0131312
0.0138641
0.0146416
0.0154719
0.0163301
0.01721
0.0180537
0.0188394
0.0194764
0.0199237
0.0200343
0.0197192
0.018803
0.0172906
0.0153498
0.0132618
0.0114126
0.00977323
0.00860156
0.00736356
0.00636682
0.00459662
0.00225062
-0.00114343
-0.00209435
-0.00272201
-0.00307198
-0.00329264
-0.00348789
-0.0036867
-0.00387177
-0.00401469
-0.00409539
-0.00410547
-0.00404368
-0.00391076
-0.00370663
-0.00343007
-0.00307963
-0.00265464
-0.00215592
-0.001586
-0.000949212
-0.00025171
0.000499244
0.00129643
0.00213308
0.00299545
0.00387163
0.00475069
0.00562081
0.00647109
0.00729255
0.00807971
0.00882925
0.00954267
0.0102235
0.0108817
0.0115262
0.0121721
0.0128275
0.0135063
0.0142059
0.0149326
0.0156646
0.0163961
0.0170783
0.0176946
0.0181682
0.0184651
0.0184737
0.0181394
0.0173501
0.0161143
0.0145384
0.0127954
0.0111617
0.00959548
0.00832326