/*--------------------------------*- C++ -*----------------------------------*\
| =========                 |                                                 |
| \\      /  F ield         | OpenFOAM: The Open Source CFD Toolbox           |
|  \\    /   O peration     | Version:  2512                                  |
|   \\  /    A nd           | Website:  www.openfoam.com                      |
|    \\/     M anipulation  |                                                 |
\*---------------------------------------------------------------------------*/
FoamFile
{
    version     2.0;
    format      ascii;
    arch        "LSB;label=32;scalar=64";
    class       volScalarField;
    location    "64.75";
    object      p;
}
// * * * * * * * * * * * * * * * * * * * * * * * * * * * * * * * * * * * * * //

dimensions      [0 2 -2 0 0 0 0];

internalField   nonuniform List<scalar> 
13248
(
-0.314232
-0.312951
-0.311266
-0.309282
-0.307068
-0.304656
-0.302017
-0.299076
-0.29573
-0.291867
-0.28738
-0.282183
-0.276225
-0.2695
-0.262047
-0.253951
-0.245335
-0.236346
-0.227135
-0.217877
-0.208655
-0.19973
-0.190774
-0.182527
-0.321841
-0.319741
-0.317286
-0.314568
-0.311638
-0.308542
-0.305247
-0.301661
-0.297659
-0.293109
-0.287893
-0.281932
-0.275194
-0.267703
-0.259537
-0.250815
-0.241684
-0.232302
-0.222823
-0.213386
-0.204095
-0.195061
-0.186208
-0.177967
-0.330521
-0.327488
-0.324169
-0.32064
-0.316924
-0.313067
-0.309021
-0.304666
-0.299846
-0.294414
-0.288254
-0.281309
-0.27359
-0.265172
-0.256177
-0.246762
-0.237095
-0.227338
-0.217631
-0.208094
-0.198795
-0.189829
-0.181114
-0.172903
-0.340479
-0.33638
-0.332115
-0.32772
-0.323155
-0.318446
-0.313512
-0.308193
-0.302308
-0.295708
-0.288314
-0.280124
-0.271217
-0.261731
-0.251838
-0.241723
-0.231556
-0.221484
-0.211618
-0.202039
-0.19279
-0.183928
-0.175369
-0.167405
-0.351873
-0.346574
-0.341292
-0.33598
-0.330491
-0.324797
-0.318768
-0.312205
-0.304927
-0.29683
-0.287908
-0.278254
-0.26803
-0.257433
-0.246669
-0.235919
-0.225331
-0.215013
-0.205036
-0.195442
-0.186249
-0.177478
-0.169068
-0.161233
-0.364771
-0.358147
-0.351791
-0.345507
-0.338977
-0.332089
-0.324661
-0.316485
-0.307432
-0.2975
-0.286805
-0.275548
-0.263967
-0.252293
-0.240726
-0.229417
-0.218469
-0.207944
-0.197871
-0.188261
-0.179109
-0.170411
-0.162119
-0.154393
-0.379074
-0.371047
-0.363575
-0.356238
-0.348478
-0.340084
-0.330851
-0.32063
-0.309418
-0.297373
-0.284755
-0.271861
-0.258969
-0.246303
-0.234023
-0.222228
-0.210968
-0.200259
-0.190098
-0.180469
-0.171349
-0.162714
-0.154533
-0.146887
-0.394518
-0.385059
-0.376437
-0.367912
-0.358637
-0.348317
-0.336803
-0.324099
-0.31041
-0.296085
-0.281513
-0.267043
-0.252944
-0.239393
-0.226488
-0.214267
-0.202732
-0.191859
-0.181618
-0.171973
-0.162885
-0.154321
-0.146256
-0.13869
-0.410617
-0.399767
-0.389954
-0.380035
-0.368856
-0.356115
-0.341837
-0.326292
-0.309941
-0.29331
-0.276867
-0.260955
-0.245787
-0.231468
-0.218025
-0.20544
-0.19367
-0.182663
-0.172364
-0.16272
-0.153682
-0.14521
-0.137272
-0.129801
-0.426659
-0.414519
-0.403451
-0.391846
-0.378297
-0.362633
-0.345201
-0.326614
-0.307587
-0.288767
-0.270629
-0.253455
-0.237373
-0.222406
-0.208515
-0.195631
-0.183678
-0.172577
-0.162256
-0.152646
-0.143688
-0.135336
-0.127538
-0.120187
-0.441712
-0.428423
-0.415986
-0.402324
-0.385916
-0.366905
-0.346085
-0.324437
-0.302873
-0.28208
-0.262472
-0.244236
-0.227401
-0.211911
-0.19767
-0.184569
-0.172502
-0.161369
-0.151083
-0.141562
-0.132737
-0.124552
-0.116925
-0.109747
-0.454714
-0.440461
-0.426519
-0.410392
-0.390653
-0.367954
-0.343629
-0.319003
-0.295108
-0.27259
-0.251753
-0.232663
-0.215252
-0.199389
-0.184928
-0.171726
-0.159649
-0.148583
-0.138423
-0.129078
-0.120473
-0.112538
-0.105164
-0.0982881
-0.290629
-0.292615
-0.293835
-0.294619
-0.295272
-0.29588
-0.29648
-0.297086
-0.297699
-0.298305
-0.298887
-0.299424
-0.299891
-0.300264
-0.300512
-0.300606
-0.30051
-0.300189
-0.299611
-0.298747
-0.297565
-0.296026
-0.294037
-0.292116
-0.287075
-0.289293
-0.290627
-0.291438
-0.292052
-0.292547
-0.29295
-0.293266
-0.293487
-0.29359
-0.293546
-0.293324
-0.29289
-0.292207
-0.291238
-0.289947
-0.288299
-0.286262
-0.283812
-0.280941
-0.277625
-0.273797
-0.269653
-0.265825
-0.284503
-0.286844
-0.288228
-0.289032
-0.289583
-0.289951
-0.290151
-0.29018
-0.29002
-0.289639
-0.288999
-0.288057
-0.286771
-0.285096
-0.282989
-0.280409
-0.277322
-0.273699
-0.269526
-0.264812
-0.25957
-0.253762
-0.2475
-0.241816
-0.283033
-0.285388
-0.286759
-0.287519
-0.287987
-0.288219
-0.288219
-0.287975
-0.28746
-0.286634
-0.285449
-0.283856
-0.281803
-0.27924
-0.276121
-0.272402
-0.268051
-0.263045
-0.257378
-0.251072
-0.244177
-0.236703
-0.228683
-0.221058
-0.282707
-0.284974
-0.286272
-0.286954
-0.287317
-0.287404
-0.28721
-0.286713
-0.285877
-0.284654
-0.28299
-0.28083
-0.278115
-0.274793
-0.270815
-0.26614
-0.260739
-0.254599
-0.247722
-0.240139
-0.231927
-0.223156
-0.213775
-0.2038
-0.28351
-0.285597
-0.286762
-0.287328
-0.287561
-0.287494
-0.28711
-0.286378
-0.285256
-0.283689
-0.281618
-0.278982
-0.27572
-0.271777
-0.267107
-0.261672
-0.255454
-0.248449
-0.240676
-0.232177
-0.223042
-0.213335
-0.202953
-0.192373
-0.285374
-0.2872
-0.288174
-0.288582
-0.288657
-0.288418
-0.287842
-0.286892
-0.285515
-0.283654
-0.281244
-0.278221
-0.274523
-0.270095
-0.264895
-0.258894
-0.252085
-0.244482
-0.236124
-0.227077
-0.217439
-0.207304
-0.196788
-0.185099
-0.288207
-0.289698
-0.290421
-0.290621
-0.290498
-0.290061
-0.289282
-0.288115
-0.286504
-0.284386
-0.281691
-0.278353
-0.27431
-0.269509
-0.263915
-0.257509
-0.250299
-0.242321
-0.23364
-0.224346
-0.214588
-0.204348
-0.194546
-0.18229
-0.291909
-0.292993
-0.2934
-0.293332
-0.292956
-0.292279
-0.291266
-0.289867
-0.288021
-0.285657
-0.282703
-0.279088
-0.274753
-0.269648
-0.263744
-0.257039
-0.249558
-0.241361
-0.232541
-0.223203
-0.213601
-0.203419
-0.19453
-0.182365
-0.296388
-0.296998
-0.297013
-0.296602
-0.295903
-0.294921
-0.293621
-0.291949
-0.289836
-0.287205
-0.283978
-0.280083
-0.275458
-0.270062
-0.263876
-0.256914
-0.249226
-0.240898
-0.232056
-0.222816
-0.213522
-0.203732
-0.195578
-0.184644
-0.30159
-0.301653
-0.301191
-0.300343
-0.299229
-0.297855
-0.296188
-0.29417
-0.291724
-0.288765
-0.285211
-0.280983
-0.276024
-0.270298
-0.263802
-0.25657
-0.248678
-0.240235
-0.23139
-0.222296
-0.213254
-0.204104
-0.196337
-0.18712
-0.307517
-0.306952
-0.305915
-0.304532
-0.302895
-0.301027
-0.298898
-0.296443
-0.293578
-0.290208
-0.286238
-0.28159
-0.276206
-0.270062
-0.263172
-0.255594
-0.247423
-0.238791
-0.229847
-0.220776
-0.211738
-0.202944
-0.19495
-0.18714
-0.289866
-0.286458
-0.282202
-0.276977
-0.270805
-0.263761
-0.256252
-0.248977
-0.242849
-0.23889
-0.238121
-0.24124
-0.248329
-0.258552
-0.270589
-0.280345
-0.284954
-0.281211
-0.266602
-0.24145
-0.208983
-0.174778
-0.144392
-0.121377
-0.106912
-0.101039
-0.104508
-0.117849
-0.137535
-0.154619
-0.159224
-0.148598
-0.127691
-0.105068
-0.0876287
-0.0780282
-0.0751752
-0.0793013
-0.0928402
-0.112706
-0.12745
-0.125979
-0.109612
-0.0887915
-0.0724761
-0.0619983
-0.0575407
-0.0608005
-0.0681258
-0.0717773
-0.0676328
-0.059405
-0.0509934
-0.0427712
-0.0371481
-0.0361409
-0.0329001
-0.0282581
-0.0200039
-0.00590328
-0.262281
-0.257859
-0.253323
-0.248651
-0.244144
-0.239639
-0.235677
-0.233032
-0.232495
-0.234855
-0.240892
-0.25072
-0.263986
-0.279388
-0.294798
-0.306816
-0.312003
-0.307189
-0.289955
-0.260659
-0.22313
-0.183653
-0.148244
-0.120653
-0.10206
-0.092214
-0.0913382
-0.100008
-0.115761
-0.131219
-0.137501
-0.130641
-0.114659
-0.096896
-0.083871
-0.0779407
-0.0780962
-0.0853359
-0.102236
-0.124836
-0.140483
-0.137503
-0.11811
-0.093514
-0.0736036
-0.0602918
-0.0533102
-0.053862
-0.0589026
-0.0619273
-0.0594846
-0.0543377
-0.0488456
-0.0432855
-0.0398864
-0.0406808
-0.0378399
-0.0320286
-0.0222481
-0.00649934
-0.23743
-0.232099
-0.227321
-0.223013
-0.220585
-0.218248
-0.217309
-0.218605
-0.222921
-0.230443
-0.241935
-0.257066
-0.275027
-0.294206
-0.312188
-0.325732
-0.331454
-0.325864
-0.306699
-0.274318
-0.23296
-0.189446
-0.150115
-0.118812
-0.0966168
-0.0831022
-0.0780521
-0.0820938
-0.0937944
-0.107265
-0.114645
-0.111428
-0.100263
-0.087447
-0.078962
-0.0767632
-0.0800151
-0.0904345
-0.110623
-0.135786
-0.152209
-0.147793
-0.125635
-0.0976119
-0.0743399
-0.0583858
-0.0491379
-0.0472568
-0.0501806
-0.0525503
-0.0516073
-0.0492946
-0.0465778
-0.0437291
-0.0426934
-0.0452899
-0.0428655
-0.0358317
-0.0244949
-0.00709684
-0.216559
-0.210392
-0.205357
-0.200139
-0.202
-0.200498
-0.201854
-0.206144
-0.21388
-0.225376
-0.240769
-0.259581
-0.280732
-0.302407
-0.322075
-0.336694
-0.34278
-0.336913
-0.316628
-0.282336
-0.23853
-0.192356
-0.150369
-0.116363
-0.0912708
-0.0745695
-0.0657626
-0.065313
-0.0728209
-0.0838541
-0.0916617
-0.0915764
-0.0849627
-0.0769828
-0.0729608
-0.0743752
-0.0806601
-0.0941638
-0.117519
-0.14519
-0.162406
-0.156686
-0.132049
-0.101014
-0.0747081
-0.0563396
-0.0450961
-0.0411022
-0.0421285
-0.0438103
-0.0441193
-0.0443256
-0.044207
-0.0440979
-0.0455509
-0.0499352
-0.047916
-0.0396103
-0.0267044
-0.00768807
-0.200639
-0.193869
-0.188937
-0.185456
-0.184832
-0.185547
-0.188901
-0.195431
-0.205591
-0.219594
-0.237352
-0.258294
-0.28122
-0.304225
-0.32473
-0.339902
-0.346401
-0.340577
-0.31995
-0.284969
-0.240202
-0.192892
-0.149563
-0.113842
-0.0865736
-0.067209
-0.0551333
-0.0505571
-0.0537754
-0.0619631
-0.0694665
-0.0717572
-0.0692417
-0.0657549
-0.0658742
-0.0706221
-0.0797405
-0.0961555
-0.122561
-0.152735
-0.170811
-0.164032
-0.137272
-0.103691
-0.0747545
-0.0542229
-0.0412429
-0.0354514
-0.0348404
-0.0358212
-0.0371133
-0.0394703
-0.0417447
-0.0443802
-0.0484332
-0.0545828
-0.05293
-0.0433086
-0.0288372
-0.00826442
-0.189189
-0.182477
-0.17707
-0.173895
-0.173067
-0.174602
-0.178989
-0.18671
-0.198104
-0.213293
-0.232077
-0.253812
-0.277292
-0.300647
-0.321288
-0.336466
-0.343243
-0.337609
-0.317248
-0.282677
-0.238444
-0.19154
-0.148135
-0.11163
-0.0828776
-0.0613906
-0.0465418
-0.0383522
-0.037398
-0.042366
-0.0488584
-0.0526512
-0.0536135
-0.0540041
-0.0577234
-0.0654163
-0.0770902
-0.0961824
-0.125471
-0.1581
-0.177183
-0.169727
-0.141256
-0.105619
-0.07451
-0.0520873
-0.0376131
-0.0303149
-0.028345
-0.0286386
-0.0306433
-0.0347539
-0.0391962
-0.0445584
-0.0513054
-0.0591993
-0.0578533
-0.0468782
-0.0308584
-0.00881695
-0.18321
-0.176631
-0.170232
-0.166603
-0.165663
-0.167367
-0.17201
-0.179997
-0.191608
-0.206889
-0.225574
-0.247005
-0.270029
-0.292905
-0.313444
-0.328214
-0.334544
-0.329057
-0.309469
-0.276319
-0.233958
-0.188818
-0.146461
-0.11
-0.0803755
-0.0572826
-0.0401457
-0.0288807
-0.0240805
-0.0255797
-0.0304621
-0.0353961
-0.0385628
-0.0419685
-0.0486196
-0.0587766
-0.0726458
-0.0941051
-0.126058
-0.161033
-0.181329
-0.173664
-0.143969
-0.106775
-0.0739844
-0.0499655
-0.0342256
-0.0256683
-0.0226051
-0.0222587
-0.024725
-0.0301911
-0.0365636
-0.0446126
-0.0541263
-0.0637512
-0.0626379
-0.0502799
-0.0327383
-0.00933654
-0.182457
-0.175864
-0.168277
-0.163599
-0.162171
-0.163522
-0.167766
-0.175265
-0.186268
-0.200764
-0.218459
-0.238718
-0.260408
-0.281902
-0.301967
-0.315676
-0.321265
-0.315972
-0.297638
-0.266798
-0.227413
-0.185106
-0.144692
-0.108972
-0.0790131
-0.0547993
-0.035869
-0.0220806
-0.0139264
-0.0118917
-0.0145569
-0.0191942
-0.0243399
-0.0298613
-0.0387233
-0.0507904
-0.066445
-0.0898777
-0.124158
-0.161418
-0.18312
-0.175744
-0.145388
-0.107161
-0.0731898
-0.0478875
-0.0310983
-0.0214888
-0.0175525
-0.0166286
-0.0193399
-0.025788
-0.033848
-0.0445207
-0.0568485
-0.0681977
-0.0672346
-0.0534817
-0.0344548
-0.00981481
-0.182723
-0.177577
-0.169685
-0.164169
-0.162052
-0.162579
-0.165854
-0.172257
-0.181983
-0.194989
-0.210996
-0.229419
-0.249186
-0.268728
-0.285647
-0.299204
-0.304347
-0.299485
-0.282856
-0.255054
-0.219451
-0.180699
-0.142844
-0.108415
-0.0785997
-0.0537053
-0.0334669
-0.017699
-0.00677743
-0.00140083
-0.00137212
-0.00493726
-0.0112271
-0.0178117
-0.028196
-0.041582
-0.0585133
-0.0835031
-0.119858
-0.159292
-0.182483
-0.175971
-0.145585
-0.106907
-0.0722585
-0.0459755
-0.028299
-0.0177888
-0.0131456
-0.0116817
-0.0144336
-0.0215439
-0.0310426
-0.0442576
-0.059423
-0.0724944
-0.0715949
-0.0564535
-0.035996
-0.0102472
-0.184509
-0.17985
-0.172447
-0.16686
-0.164104
-0.163537
-0.16548
-0.170357
-0.178302
-0.189277
-0.203056
-0.219114
-0.236543
-0.254325
-0.269123
-0.280561
-0.285219
-0.281072
-0.26665
-0.242481
-0.211197
-0.17644
-0.141539
-0.108803
-0.0795244
-0.0542852
-0.0330908
-0.0157595
-0.00256153
0.00581343
0.00884107
0.00720342
0.00049861
-0.00588364
-0.0171632
-0.0313331
-0.0491435
-0.0752945
-0.113166
-0.154565
-0.179463
-0.174411
-0.144744
-0.106291
-0.071442
-0.0444463
-0.0259497
-0.0145819
-0.00934482
-0.0074014
-0.00989707
-0.0174386
-0.0281458
-0.0438011
-0.0617851
-0.0765805
-0.0756568
-0.0591706
-0.0373542
-0.0106328
-0.185635
-0.181022
-0.174899
-0.169847
-0.166558
-0.165094
-0.165724
-0.168873
-0.174736
-0.183383
-0.19469
-0.208187
-0.223158
-0.239743
-0.251134
-0.260435
-0.264781
-0.261782
-0.250157
-0.230187
-0.203675
-0.173267
-0.141613
-0.110834
-0.0823423
-0.0569666
-0.0350163
-0.0164314
-0.00134854
0.00968715
0.0159132
0.0171964
0.0156297
0.00573802
-0.0058575
-0.0201279
-0.0382145
-0.065218
-0.104827
-0.148091
-0.174085
-0.170875
-0.142598
-0.105056
-0.0704286
-0.043065
-0.0238976
-0.0117049
-0.00592537
-0.00368635
-0.00552415
-0.0134912
-0.0251008
-0.0430928
-0.0639143
-0.0804001
-0.0793302
-0.0615811
-0.038493
-0.0109579
-0.184474
-0.180822
-0.176225
-0.171524
-0.1679
-0.165958
-0.165698
-0.167263
-0.170961
-0.176976
-0.185251
-0.195349
-0.206761
-0.217735
-0.230759
-0.238511
-0.242019
-0.239929
-0.230908
-0.214859
-0.192806
-0.166555
-0.138208
-0.109703
-0.0825364
-0.0576941
-0.0356832
-0.0166659
-0.000707638
0.0120492
0.0210978
0.0253215
0.024269
0.0161842
0.00509555
-0.00889469
-0.0269195
-0.0541015
-0.0943451
-0.138628
-0.166084
-0.164137
-0.137763
-0.101421
-0.0674462
-0.0404024
-0.0212146
-0.00864852
-0.00245618
-2.29617e-05
-0.00194102
-0.00972676
-0.022018
-0.0421389
-0.0656576
-0.083847
-0.0825738
-0.0635775
-0.0393254
-0.0111773
-0.178689
-0.17863
-0.174548
-0.169878
-0.166456
-0.164606
-0.164182
-0.165306
-0.168275
-0.173267
-0.18026
-0.188908
-0.198663
-0.208492
-0.217962
-0.224331
-0.226699
-0.22375
-0.214536
-0.19909
-0.178376
-0.153975
-0.127696
-0.101197
-0.0757629
-0.0522549
-0.0311326
-0.0125791
0.00331544
0.01645
0.0265972
0.0327671
0.0336344
0.0284232
0.0184217
0.00545548
-0.0122034
-0.0404241
-0.0838695
-0.132396
-0.162679
-0.160536
-0.132241
-0.0957719
-0.0625413
-0.0363024
-0.0176988
-0.00542595
0.000939895
0.00386522
0.00257741
-0.0051433
-0.0180877
-0.0405141
-0.0670537
-0.0871804
-0.0857554
-0.0651881
-0.0398332
-0.0112745
-0.17235
-0.174181
-0.170737
-0.166191
-0.162966
-0.161403
-0.161209
-0.162319
-0.164898
-0.169083
-0.174835
-0.181852
-0.189637
-0.197135
-0.203903
-0.208191
-0.20877
-0.204722
-0.195443
-0.181015
-0.162219
-0.140298
-0.116671
-0.0926619
-0.0693456
-0.0474841
-0.0275245
-0.00973299
0.00578965
0.0190965
0.0300419
0.0376065
0.0397194
0.0362134
0.0281951
0.0168171
-9.32136e-05
-0.0291065
-0.0749229
-0.12559
-0.155873
-0.15217
-0.123823
-0.0886527
-0.0571461
-0.0323257
-0.0144843
-0.00245965
0.00400209
0.00709364
0.0058745
-0.00142036
-0.0147786
-0.039196
-0.0683976
-0.0899465
-0.0881251
-0.0662322
-0.0400011
-0.0113075
-0.164464
-0.167678
-0.165254
-0.161211
-0.158319
-0.157105
-0.15719
-0.158311
-0.160492
-0.163827
-0.168256
-0.173515
-0.17916
-0.184725
-0.189232
-0.191571
-0.190809
-0.186255
-0.177459
-0.164439
-0.147718
-0.128204
-0.107002
-0.0852029
-0.063745
-0.0433437
-0.0244486
-0.00734546
0.00780188
0.0210336
0.0323178
0.0409574
0.0448009
0.0427108
0.0362276
0.0260014
0.00917971
-0.0211507
-0.0680301
-0.117577
-0.146012
-0.141492
-0.114206
-0.0810845
-0.0515966
-0.0282671
-0.0112495
0.000430712
0.00698803
0.0102606
0.00927712
0.00207079
-0.0119697
-0.0383693
-0.069778
-0.0922087
-0.0899375
-0.0668569
-0.0399055
-0.0112997
-0.155419
-0.159898
-0.158658
-0.155347
-0.152853
-0.1519
-0.152127
-0.15315
-0.154888
-0.15739
-0.160624
-0.164429
-0.168463
-0.172191
-0.174879
-0.175765
-0.174123
-0.169363
-0.161101
-0.149303
-0.134334
-0.116886
-0.0978351
-0.0780792
-0.0584103
-0.0394706
-0.0216925
-0.00535548
0.00932279
0.0222866
0.0335923
0.0431217
0.0478878
0.0476581
0.0429064
0.0338645
0.0170698
-0.0142157
-0.0607517
-0.10794
-0.134202
-0.129037
-0.103392
-0.0728382
-0.0456877
-0.0240545
-0.00800815
0.00323609
0.00988632
0.0134333
0.0128371
0.00568585
-0.00915759
-0.037522
-0.0708281
-0.0939264
-0.0911507
-0.0670131
-0.0395087
-0.011233
-0.145917
-0.151321
-0.15117
-0.148647
-0.146571
-0.145812
-0.146094
-0.146993
-0.148348
-0.150171
-0.152459
-0.155087
-0.157747
-0.159998
-0.161323
-0.16113
-0.158828
-0.153934
-0.146142
-0.13541
-0.121996
-0.106414
-0.0893352
-0.0714767
-0.0534995
-0.0359734
-0.0193187
-0.00380952
0.010316
0.022893
0.0339036
0.0426395
0.0491906
0.0506258
0.0476088
0.0400087
0.0238664
-0.00733139
-0.0525678
-0.096848
-0.120278
-0.114842
-0.0915514
-0.064133
-0.0395965
-0.0197744
-0.00479584
0.00594037
0.0126705
0.0165674
0.016461
0.00951696
-0.0060543
-0.0362882
-0.0713511
-0.0949496
-0.0915615
-0.0665853
-0.038764
-0.0110905
-0.136218
-0.142188
-0.142948
-0.141185
-0.13954
-0.138964
-0.139281
-0.140077
-0.14114
-0.142441
-0.143977
-0.14564
-0.147206
-0.148335
-0.14862
-0.147592
-0.144795
-0.139854
-0.132528
-0.122767
-0.11074
-0.0968148
-0.0815019
-0.0653747
-0.0489849
-0.0328297
-0.0173066
-0.0026858
0.0107949
0.0229033
0.033555
0.0424004
0.0490661
0.0515597
0.0499441
0.0438042
0.0288694
-0.0011882
-0.0440098
-0.0843288
-0.104419
-0.0993287
-0.0790648
-0.0551891
-0.0334392
-0.0154897
-0.00164368
0.0085246
0.015302
0.01962
0.0201216
0.0135488
-0.00261077
-0.0345832
-0.071211
-0.0950228
-0.09096
-0.0654618
-0.0376358
-0.0108573
-0.126438
-0.132716
-0.134199
-0.133121
-0.131901
-0.131512
-0.131868
-0.132586
-0.133425
-0.134324
-0.135272
-0.136198
-0.136926
-0.137202
-0.136701
-0.135063
-0.131942
-0.127049
-0.120187
-0.111299
-0.100492
-0.0880315
-0.074304
-0.0597645
-0.044868
-0.0300409
-0.015649
-0.00195987
0.0107917
0.0223488
0.0325723
0.0412107
0.047755
0.0507671
0.0500366
0.0450044
0.03145
0.00364742
-0.0351407
-0.0704223
-0.0873481
-0.0831501
-0.0663905
-0.0462622
-0.0273608
-0.0112844
0.00140856
0.0109685
0.0177451
0.0225407
0.0237566
0.0177208
0.00111832
-0.0323754
-0.0702034
-0.0938781
-0.0891462
-0.0635449
-0.0360991
-0.0105206
-0.116742
-0.123113
-0.12513
-0.124638
-0.123811
-0.123607
-0.124004
-0.124662
-0.125332
-0.12593
-0.126442
-0.12682
-0.126932
-0.12658
-0.125517
-0.123469
-0.120172
-0.115398
-0.108988
-0.100889
-0.0911671
-0.0800127
-0.0677166
-0.0546346
-0.0411389
-0.0275922
-0.0143244
-0.00159679
0.0103579
0.0212818
0.0309959
0.0392507
0.0455191
0.0486929
0.0484064
0.0440435
0.0319394
0.00754408
-0.0257663
-0.0555376
-0.0698664
-0.0671315
-0.0540525
-0.0376184
-0.0214956
-0.00723881
0.0043201
0.013251
0.0199701
0.0252636
0.0272699
0.0219419
0.00508103
-0.0295502
-0.0680907
-0.0912662
-0.0859435
-0.0607591
-0.0341449
-0.0100718
-0.107251
-0.113545
-0.115927
-0.115909
-0.115427
-0.115392
-0.115832
-0.116447
-0.116995
-0.11738
-0.117583
-0.11757
-0.117244
-0.116456
-0.115019
-0.112723
-0.109364
-0.104766
-0.0988047
-0.0914312
-0.0826866
-0.0727054
-0.0617044
-0.0499608
-0.0377771
-0.0254602
-0.0133026
-0.00155367
0.00955599
0.0197764
0.0289052
0.0366719
0.0425728
0.0457209
0.045658
0.0417768
0.031296
0.0110197
-0.0162742
-0.0407576
-0.0531518
-0.052135
-0.042539
-0.0294944
-0.0159593
-0.00342851
0.0070483
0.0153486
0.021953
0.0277097
0.0305417
0.026108
0.00925437
-0.0259571
-0.0646516
-0.0869681
-0.0812302
-0.0570708
-0.0317866
-0.00950783
-0.0980524
-0.104141
-0.106741
-0.10709
-0.106894
-0.107007
-0.107486
-0.108074
-0.108541
-0.108783
-0.108776
-0.108498
-0.107881
-0.106814
-0.105152
-0.102736
-0.099409
-0.0950378
-0.0895251
-0.0828283
-0.0749714
-0.0660497
-0.056225
-0.0457124
-0.0347562
-0.023615
-0.0125451
-0.00177993
0.00845591
0.0179222
0.026405
0.0336204
0.0391064
0.0421477
0.0422619
0.0388991
0.0301649
0.0139771
-0.00766811
-0.027457
-0.0382944
-0.0388332
-0.0321988
-0.0220658
-0.0108395
8.34848e-05
0.00954817
0.0172373
0.0236738
0.0298056
0.033461
0.0301046
0.0136017
-0.0214852
-0.0597155
-0.0808375
-0.0749743
-0.0525069
-0.0290649
-0.00883265
-0.0892177
-0.0949996
-0.0976946
-0.0983108
-0.098344
-0.0985779
-0.0990917
-0.0996627
-0.100077
-0.10023
-0.100093
-0.0996512
-0.0988608
-0.0976373
-0.0958688
-0.0934346
-0.0902169
-0.0861134
-0.0810489
-0.0749878
-0.0679438
-0.0599853
-0.0512329
-0.0418538
-0.0320446
-0.0220214
-0.0120075
-0.00221807
0.0071338
0.0158184
0.023615
0.0302454
0.0353003
0.0382036
0.0384978
0.0357141
0.0286456
0.0160148
-0.000790606
-0.0165511
-0.0259546
-0.0275517
-0.0231967
-0.0154362
-0.00619688
0.00325269
0.0117724
0.0188912
0.0251204
0.0314915
0.0361739
0.0338044
0.0180402
-0.0161153
-0.053221
-0.0728572
-0.0672676
-0.0471704
-0.0260506
-0.0080582
-0.0807752
-0.0861854
-0.0888824
-0.089683
-0.0898917
-0.0902205
-0.0907605
-0.0913201
-0.0917029
-0.091806
-0.0915998
-0.0910752
-0.0902021
-0.0889161
-0.0871329
-0.0847607
-0.0817108
-0.0779052
-0.0732864
-0.0678259
-0.0615318
-0.0544534
-0.0466816
-0.0383462
-0.0296058
-0.0206402
-0.0116422
-0.00280661
0.00566777
0.0135628
0.0206576
0.0266973
0.0313225
0.034069
0.0345322
0.0323278
0.0267189
0.0169907
0.00413397
-0.00822059
-0.0161767
-0.0182845
-0.0155464
-0.00964602
-0.00207135
0.00605339
0.0136821
0.0202768
0.0262805
0.0327017
0.0380577
0.0369945
0.0223893
-0.00998548
-0.0452273
-0.0631811
-0.0583798
-0.0412533
-0.0228427
-0.00720477
-0.0727477
-0.0777557
-0.0803865
-0.0813023
-0.0816379
-0.0820356
-0.0825914
-0.0831415
-0.0835073
-0.0835907
-0.0833602
-0.0828088
-0.0819193
-0.0806436
-0.0789154
-0.076665
-0.0738254
-0.0703382
-0.0661599
-0.0612684
-0.0556687
-0.0493975
-0.0425237
-0.0351487
-0.0274006
-0.0194287
-0.0113986
-0.00348405
0.00413321
0.0112496
0.0176517
0.0231149
0.0273228
0.029904
0.0305186
0.0288624
0.0245057
0.0171011
0.00739165
-0.00212523
-0.00864881
-0.0108464
-0.00917402
-0.00468942
0.00151321
0.00847118
0.015258
0.0213566
0.0271267
0.0334363
0.0392179
0.0393547
0.0262982
-0.00340596
-0.0359157
-0.0522041
-0.0487752
-0.0350306
-0.0195621
-0.00630031
-0.0651707
-0.0697558
-0.0722666
-0.073241
-0.0736629
-0.0741064
-0.0746683
-0.0752086
-0.0755661
-0.0756485
-0.0754237
-0.0748864
-0.0740313
-0.0728177
-0.071194
-0.069107
-0.0665066
-0.0633492
-0.0596023
-0.0552492
-0.0502939
-0.0447638
-0.0387125
-0.0322198
-0.0253891
-0.0183443
-0.0112265
-0.0041896
0.0026031
0.00896746
0.0146991
0.0196177
0.0234325
0.0258528
0.0266046
0.0254574
0.0221712
0.0166235
0.00940054
0.00220679
-0.00297526
-0.00498987
-0.00396605
-0.000531305
0.00455121
0.0104961
0.0164973
0.0221063
0.0276157
0.0337001
0.0395725
0.0405142
0.0293118
0.0031493
-0.0257902
-0.0406386
-0.0390593
-0.028824
-0.0163368
-0.00537802
-0.0580551
-0.0622072
-0.0645611
-0.0655518
-0.066028
-0.0664986
-0.0670577
-0.0675865
-0.0679407
-0.0680343
-0.0678354
-0.0673345
-0.0665531
-0.0654366
-0.0639502
-0.0620537
-0.0597091
-0.0568843
-0.0535554
-0.0497102
-0.0453521
-0.0405026
-0.0352038
-0.0295189
-0.0235319
-0.0173457
-0.0110795
-0.00486718
0.00114568
0.00679864
0.0119124
0.0163074
0.0197579
0.0220297
0.0229065
0.0222204
0.019847
0.0157902
0.01052
0.00519801
0.00122086
-0.00046202
0.000205579
0.0028802
0.0070555
0.0121245
0.0174036
0.0225191
0.0277045
0.0334605
0.0390242
0.0402955
0.0310458
0.00897407
-0.0158727
-0.0295089
-0.0298918
-0.0229466
-0.0132824
-0.00447164
-0.0513927
-0.0551214
-0.0572986
-0.0582752
-0.0587804
-0.0592627
-0.0598117
-0.0603269
-0.0606815
-0.0607977
-0.060648
-0.0602312
-0.0595086
-0.0585002
-0.0571685
-0.0554769
-0.0533945
-0.0508977
-0.0479692
-0.0446003
-0.0407942
-0.0365683
-0.031956
-0.027008
-0.0217926
-0.0163947
-0.0109151
-0.0054692
-0.000183032
0.00480589
0.00934207
0.0132581
0.0163776
0.0185147
0.0195035
0.0192246
0.017622
0.0147635
0.0110217
0.00719109
0.00425575
0.00296657
0.00347099
0.00560663
0.00905273
0.0133643
0.0179835
0.0225969
0.0273687
0.0326658
0.0375547
0.0387686
0.0313291
0.0133625
-0.0073101
-0.0197626
-0.0217966
-0.0176311
-0.0104813
-0.00361045
-0.0451818
-0.0485064
-0.0504973
-0.0514375
-0.0519521
-0.0524338
-0.0529662
-0.0534647
-0.0538178
-0.0539546
-0.0538484
-0.0534901
-0.0528729
-0.0519941
-0.0508302
-0.0493503
-0.0475294
-0.0453502
-0.0428006
-0.0398751
-0.0365769
-0.0329201
-0.0289318
-0.0246529
-0.0201388
-0.0154597
-0.0106995
-0.00595617
-0.00133714
0.00303837
0.00703845
0.0105217
0.0133443
0.0153598
0.0164435
0.0165134
0.0155515
0.0136489
0.0110966
0.00845042
0.00639111
0.00549822
0.0059556
0.00771444
0.0105785
0.0142341
0.0182486
0.0223506
0.0266177
0.031317
0.0352997
0.0362183
0.0302587
0.0160028
-0.000754568
-0.0118753
-0.0150143
-0.012994
-0.00797979
-0.00281674
-0.0394197
-0.0423615
-0.0441628
-0.0450518
-0.0455618
-0.046034
-0.0465453
-0.0470245
-0.0473746
-0.047532
-0.0474711
-0.0471857
-0.046674
-0.0459242
-0.0449248
-0.0436515
-0.0420841
-0.0402075
-0.0380126
-0.0354965
-0.0326627
-0.0295229
-0.0260989
-0.0224239
-0.018543
-0.0145137
-0.0104055
-0.00629964
-0.00228786
0.0015286
0.00504033
0.00813387
0.0106888
0.0125913
0.013749
0.0141069
0.0136658
0.0125157
0.0108874
0.00916974
0.00782835
0.00730058
0.00777728
0.00927289
0.0116729
0.0147635
0.0182198
0.0218027
0.0254944
0.0292651
0.0325169
0.0330711
0.0282653
0.0171331
0.00381231
-0.00583031
-0.00953944
-0.00906375
-0.00579703
-0.00210529
-0.0340918
-0.0366768
-0.0382925
-0.039122
-0.0396177
-0.0400746
-0.0405618
-0.04102
-0.0413657
-0.0415427
-0.0415277
-0.0413151
-0.0409004
-0.0402761
-0.0394362
-0.0383616
-0.0370345
-0.0354411
-0.0335744
-0.0314329
-0.0290206
-0.0263471
-0.0234303
-0.020297
-0.0169835
-0.0135371
-0.0100146
-0.00648267
-0.00301732
0.000296631
0.00337076
0.00610944
0.00842103
0.0102149
0.0114223
0.0120064
0.0119778
0.0114152
0.0104967
0.00949122
0.00872201
0.00851515
0.00904313
0.0103519
0.0123809
0.0149873
0.017929
0.0210001
0.024121
0.0271612
0.0295471
0.0297388
0.02584
0.0172314
0.00678396
-0.00137598
-0.00524964
-0.00581898
-0.00393546
-0.00148427
-0.0291813
-0.0314396
-0.0328787
-0.033645
-0.0341205
-0.0345582
-0.0350199
-0.0354565
-0.0357964
-0.0359907
-0.0360184
-0.0358741
-0.0355547
-0.0350542
-0.03436
-0.0334669
-0.0323597
-0.0310261
-0.029459
-0.0276572
-0.0256243
-0.0233687
-0.0209047
-0.0182538
-0.0154456
-0.0125179
-0.00951665
-0.00649661
-0.00352028
-0.000655735
0.00202561
0.00444661
0.00653414
0.00821959
0.0094513
0.0102034
0.0104902
0.0103753
0.00999018
0.00953033
0.00920486
0.00926337
0.00984947
0.0110209
0.0127507
0.0149414
0.0174163
0.0200007
0.022571
0.0249428
0.026607
0.0265021
0.0233271
0.016702
0.00857848
0.00179206
-0.00197497
-0.00320814
-0.00238557
-0.00095634
-0.0246734
-0.0266352
-0.0279091
-0.0286116
-0.0290635
-0.0294801
-0.0299158
-0.0303303
-0.0306629
-0.0308712
-0.0309367
-0.0308544
-0.0306214
-0.0302319
-0.0296772
-0.0289492
-0.0280403
-0.0269409
-0.0256438
-0.0241468
-0.0224528
-0.0205686
-0.0185059
-0.0162821
-0.0139204
-0.011451
-0.00891101
-0.0063441
-0.00380004
-0.00133442
0.000996638
0.00312901
0.00500951
0.00658411
0.00781423
0.00868134
0.0091979
0.00941126
0.00941784
0.00936299
0.00937554
0.00964326
0.0102817
0.0113473
0.012831
0.014667
0.0167262
0.0188597
0.0209225
0.0227179
0.0238243
0.0235101
0.0209192
0.0158225
0.00953208
0.00396263
0.00045822
-0.00116329
-0.00112958
-0.000519963
-0.0205503
-0.0222454
-0.0233672
-0.0240078
-0.0244346
-0.0248294
-0.0252396
-0.0256323
-0.0259563
-0.0261755
-0.0262738
-0.0262463
-0.0260907
-0.0258021
-0.0253727
-0.0247937
-0.0240606
-0.0231678
-0.0221097
-0.0208829
-0.019489
-0.0179328
-0.0162235
-0.0143747
-0.0124051
-0.0103383
-0.00820319
-0.00603438
-0.00387149
-0.00175872
0.000260028
0.00213157
0.00381873
0.00527927
0.0064834
0.00741711
0.00808928
0.00853344
0.00881899
0.00903828
0.00930938
0.00973651
0.0104151
0.0113936
0.0126722
0.0142069
0.0159022
0.0176305
0.0192469
0.0205693
0.0212633
0.0208221
0.0187023
0.014772
0.00990641
0.00537131
0.00220315
0.00038758
-0.000142509
-0.000170085
-0.0167926
-0.0182503
-0.0192341
-0.0198164
-0.0202181
-0.0205914
-0.0209772
-0.0213487
-0.0216632
-0.0218904
-0.022016
-0.022036
-0.0219481
-0.0217482
-0.0214301
-0.020986
-0.0204077
-0.0196922
-0.0188419
-0.0178514
-0.0167209
-0.0154519
-0.0140512
-0.0125297
-0.0109017
-0.00918562
-0.00740401
-0.00558411
-0.00375651
-0.00195506
-0.0002141
0.00142157
0.00292736
0.00427034
0.00542691
0.00638546
0.00715166
0.00774951
0.00822565
0.0086396
0.00907984
0.0096161
0.0103162
0.0112178
0.0123243
0.0136034
0.0149854
0.0163637
0.0176107
0.0185528
0.0189491
0.0184451
0.0167072
0.0136585
0.00988711
0.00621368
0.00339786
0.00151918
0.000604808
0.000100561
-0.0133816
-0.0146297
-0.01549
-0.0160183
-0.0163958
-0.0167487
-0.0171114
-0.0174626
-0.0177671
-0.0179994
-0.0181476
-0.0182076
-0.0181777
-0.0180543
-0.0178323
-0.0175052
-0.0170671
-0.016513
-0.0158369
-0.0150417
-0.0141409
-0.0131208
-0.0119875
-0.0107489
-0.00941636
-0.00800445
-0.00653027
-0.00501439
-0.00348047
-0.00195499
-0.000462398
0.00096174
0.00229769
0.00352057
0.00461175
0.0055612
0.00637198
0.00705982
0.00765501
0.00819538
0.00874135
0.00934204
0.0100436
0.0108727
0.0118332
0.0128972
0.0140141
0.0150978
0.0160404
0.0166936
0.0168819
0.0163603
0.0149307
0.0125479
0.00961002
0.00664128
0.00415739
0.00230176
0.00114463
0.00030105
-0.0102986
-0.0113633
-0.0121138
-0.0125931
-0.0129479
-0.0132815
-0.013623
-0.0139551
-0.0142492
-0.0144843
-0.0146502
-0.0147435
-0.0147624
-0.0147039
-0.0145636
-0.0143365
-0.0140177
-0.0136032
-0.0130908
-0.0124801
-0.0117585
-0.0109428
-0.0100351
-0.00903844
-0.00795978
-0.00680946
-0.00560052
-0.00434843
-0.00307168
-0.00179394
-0.000517231
0.000716249
0.00189272
0.00299396
0.00400581
0.00491924
0.00573456
0.00646104
0.00711874
0.0077302
0.00833359
0.00896252
0.00964807
0.0104062
0.0112405
0.0121259
0.0130226
0.013863
0.0145636
0.0150006
0.0150492
0.0145384
0.0133567
0.0114755
0.00916475
0.00678509
0.00457737
0.00280082
0.00150948