/*--------------------------------*- C++ -*----------------------------------*\
| =========                 |                                                 |
| \\      /  F ield         | OpenFOAM: The Open Source CFD Toolbox           |
|  \\    /   O peration     | Version:  2512                                  |
|   \\  /    A nd           | Website:  www.openfoam.com                      |
|    \\/     M anipulation  |                                                 |
\*---------------------------------------------------------------------------*/
FoamFile
{
    version     2.0;
    format      ascii;
    arch        "LSB;label=32;scalar=64";
    class       volVectorField;
    location    "23.5";
    object      U;
}
// * * * * * * * * * * * * * * * * * * * * * * * * * * * * * * * * * * * * * //

dimensions      [0 1 -1 0 0 0 0];

internalField   nonuniform List<vector> 
13248
(
(-0.0127308 0.0117933 6.36229e-20)
(-0.0243987 0.0252093 0)
(-0.0230971 0.0324212 -1.20293e-19)
(-0.00968542 0.035434 1.13318e-19)
(0.0152538 0.0358667 1.06148e-19)
(0.0513091 0.035005 0)
(0.0981311 0.0338344 0)
(0.155315 0.0330995 2.56177e-19)
(0.222259 0.0333449 -1.20406e-21)
(0.298036 0.0349335 -2.23901e-19)
(0.381298 0.0380547 2.07761e-19)
(0.470255 0.0427282 -1.29887e-19)
(0.562724 0.0488135 0)
(0.656244 0.0560284 -2.23559e-19)
(0.748234 0.0639786 4.17694e-19)
(0.836181 0.0721952 -9.88353e-20)
(0.917812 0.0801843 -1.78669e-19)
(0.991245 0.0874487 1.67723e-19)
(1.05511 0.0936241 0)
(1.10856 0.0981447 0)
(1.15162 0.10146 0)
(1.18369 0.101377 0)
(1.20813 0.102935 5.38134e-20)
(1.22089 0.0937103 2.0057e-19)
(-0.012554 0.0103542 -1.92213e-19)
(-0.0204934 0.0206724 1.31076e-19)
(-0.0122202 0.0255177 -1.14676e-21)
(0.0110212 0.0270255 -1.73233e-19)
(0.0484144 0.0269123 -1.06034e-19)
(0.0992985 0.0265353 -1.00291e-19)
(0.162925 0.026896 -1.84276e-19)
(0.238257 0.0286962 1.74224e-19)
(0.323793 0.0323676 0)
(0.417458 0.0380806 7.61548e-22)
(0.516607 0.0457526 1.61824e-21)
(0.618151 0.0550693 1.29903e-19)
(0.718776 0.0655265 0)
(0.815211 0.0764912 0)
(0.904503 0.0872755 1.53507e-19)
(0.984248 0.0972128 -2.88295e-19)
(1.05276 0.105727 1.74364e-19)
(1.10914 0.112381 -1.63693e-19)
(1.1533 0.116918 -7.32909e-20)
(1.18593 0.119224 -1.35273e-19)
(1.20806 0.11949 -5.83349e-20)
(1.2218 0.117455 -1.10244e-19)
(1.22812 0.115193 1.58914e-19)
(1.22985 0.108062 4.68397e-20)
(-0.0114879 0.00856608 0)
(-0.0134086 0.0154562 0)
(0.00459773 0.0181329 6.12826e-20)
(0.0407447 0.0187478 5.64496e-20)
(0.0937825 0.0190524 -1.37885e-21)
(0.162495 0.0204208 -1.03491e-19)
(0.245289 0.0237827 0)
(0.339948 0.0296566 -8.66262e-20)
(0.443499 0.0381736 8.14154e-20)
(0.552264 0.0490969 5.69044e-22)
(0.662095 0.0618673 -1.39335e-19)
(0.768736 0.0756864 -1.28105e-19)
(0.868242 0.0896287 1.92718e-21)
(0.957353 0.102767 -1.07239e-19)
(1.03376 0.114285 2.56228e-19)
(1.09626 0.123572 0)
(1.14474 0.130268 -1.69576e-19)
(1.18003 0.134271 8.18439e-20)
(1.20377 0.135738 7.32233e-20)
(1.21798 0.134926 0)
(1.22498 0.132449 6.13739e-20)
(1.22686 0.128235 -2.16024e-19)
(1.22526 0.124364 2.02789e-19)
(1.22317 0.116974 1.32832e-19)
(-0.00917038 0.00642634 -6.81005e-20)
(-0.00221337 0.00973102 -7.04195e-20)
(0.0286974 0.01075 6.36201e-20)
(0.0810158 0.0114667 0)
(0.152722 0.0135402 0)
(0.241548 0.0182294 -2.18337e-21)
(0.344436 0.0262011 0)
(0.457364 0.037545 -2.64572e-19)
(0.575441 0.0518255 2.4592e-19)
(0.693293 0.0681698 -3.03862e-19)
(0.805626 0.0854144 6.97283e-20)
(0.907825 0.102293 0)
(0.996438 0.117627 1.17183e-19)
(1.06945 0.130488 -2.17553e-19)
(1.12636 0.140291 5.1626e-20)
(1.16797 0.146826 1.35014e-19)
(1.19612 0.150223 -4.65023e-21)
(1.21329 0.150869 -1.51767e-19)
(1.22215 0.149299 0)
(1.22524 0.146079 0)
(1.22466 0.141819 -5.62319e-20)
(1.22199 0.136671 5.10969e-20)
(1.21836 0.132093 1.87312e-19)
(1.21463 0.124929 -1.75821e-19)
(-0.00520493 0.00400149 -7.18937e-20)
(0.0140252 0.00384442 -7.15359e-20)
(0.0612618 0.00409183 2.01192e-19)
(0.132892 0.00630038 -1.21923e-19)
(0.225617 0.0118215 1.14766e-19)
(0.335444 0.0215529 2.084e-19)
(0.457173 0.0355911 -1.47313e-19)
(0.584516 0.0532721 -1.79496e-19)
(0.710668 0.0733369 3.30952e-21)
(0.829132 0.0941744 2.29938e-19)
(0.934552 0.114114 0)
(1.02331 0.131705 6.39211e-20)
(1.0938 0.145922 0)
(1.14629 0.156253 -1.05511e-19)
(1.18257 0.162688 1.48396e-19)
(1.2054 0.165609 1.24089e-21)
(1.21793 0.165642 -3.97083e-20)
(1.2232 0.1635 7.47173e-20)
(1.2238 0.159857 6.53247e-20)
(1.22167 0.155266 -5.92277e-20)
(1.21814 0.150163 5.62191e-20)
(1.21399 0.144678 -5.10849e-20)
(1.20957 0.139667 0)
(1.20562 0.132773 -3.99789e-20)
(0.000804367 0.00145038 7.18834e-20)
(0.0361341 -0.00163196 7.55087e-20)
(0.103124 -0.000838651 -6.74207e-20)
(0.196668 0.00461445 1.25538e-19)
(0.31152 0.0154349 -1.18161e-19)
(0.441232 0.0317811 1.06833e-19)
(0.577966 0.0527848 -5.13133e-20)
(0.713231 0.0767296 1.3478e-19)
(0.839056 0.101447 -8.48693e-20)
(0.949136 0.124763 1.51186e-19)
(1.03959 0.144897 -3.49709e-19)
(1.10918 0.16071 1.28933e-19)
(1.15896 0.171784 -1.13832e-19)
(1.19165 0.178324 1.06919e-19)
(1.21083 0.180976 9.35407e-20)
(1.22021 0.18059 8.3038e-20)
(1.22307 0.178031 -2.31559e-19)
(1.22197 0.174043 1.44036e-19)
(1.21873 0.16919 -6.53275e-20)
(1.21448 0.163857 1.73032e-19)
(1.20986 0.15829 -5.5704e-20)
(1.20519 0.152578 -1.39487e-19)
(1.20061 0.147185 1.2934e-19)
(1.19641 0.140503 3.99655e-20)
(0.00921309 -0.000967786 0)
(0.0647088 -0.00590233 6.66203e-22)
(0.154556 -0.00280225 1.41215e-19)
(0.271616 0.00789262 -1.32416e-19)
(0.407957 0.0257722 -1.19307e-19)
(0.554119 0.0497788 2.21789e-19)
(0.699675 0.0777164 -1.03022e-19)
(0.834779 0.106723 1.37657e-19)
(0.951788 0.133962 -2.73983e-21)
(1.04627 0.157193 -7.83157e-20)
(1.11716 0.175101 1.72011e-19)
(1.16623 0.187332 -2.54561e-19)
(1.19707 0.194311 0)
(1.21402 0.196945 -5.0644e-20)
(1.22129 0.196311 -1.36292e-19)
(1.22241 0.193426 4.28041e-20)
(1.21999 0.189109 1.40588e-21)
(1.21579 0.18395 -9.69912e-20)
(1.21084 0.178331 4.87675e-21)
(1.20571 0.172487 1.12743e-19)
(1.20066 0.166549 -5.11473e-20)
(1.19582 0.160594 -2.0239e-20)
(1.19116 0.154814 6.08534e-20)
(1.18684 0.148266 0)
(0.020289 -0.0028983 0)
(0.0999807 -0.00798971 3.8328e-20)
(0.215082 -0.000438179 -1.84637e-19)
(0.355827 0.0175285 6.70651e-20)
(0.510997 0.0438009 -6.31197e-20)
(0.668067 0.0756455 -5.77781e-20)
(0.81487 0.109397 -1.02221e-19)
(0.941814 0.141321 5.09168e-20)
(1.04338 0.168493 4.43459e-20)
(1.11836 0.189259 0)
(1.16902 0.203256 1.02439e-19)
(1.19977 0.211108 -1.53276e-19)
(1.21573 0.213994 1.1416e-19)
(1.2217 0.213245 5.06698e-20)
(1.22154 0.210059 -4.21304e-20)
(1.21803 0.205366 -3.57394e-20)
(1.21294 0.199809 -3.36477e-20)
(1.20728 0.193797 9.95669e-20)
(1.20159 0.187567 0)
(1.19612 0.181255 5.13856e-20)
(1.19094 0.17494 4.42657e-20)
(1.18604 0.168673 -1.08721e-19)
(1.18138 0.162485 -7.62926e-20)
(1.17697 0.156 7.04049e-20)
(0.0341602 -0.00391023 -4.16424e-20)
(0.141697 -0.00682044 -1.67604e-21)
(0.283362 0.00756776 3.76162e-20)
(0.446256 0.0345874 1.05208e-19)
(0.615691 0.0698438 3.06535e-20)
(0.776802 0.108676 -5.92553e-20)
(0.917313 0.146199 5.40591e-20)
(1.02981 0.178448 -4.74778e-20)
(1.11231 0.203149 8.55028e-20)
(1.16732 0.219766 3.66286e-20)
(1.19995 0.229072 -1.04017e-19)
(1.21621 0.232542 3.07729e-20)
(1.22163 0.231813 5.29527e-20)
(1.22058 0.228327 -2.59919e-20)
(1.21612 0.223179 0)
(1.21015 0.217108 3.94185e-20)
(1.20374 0.210568 6.73887e-20)
(1.19743 0.20382 1.20405e-20)
(1.19143 0.197005 -5.66345e-20)
(1.18583 0.190202 2.39808e-20)
(1.18061 0.183459 0)
(1.17571 0.176799 -1.9242e-20)
(1.17105 0.170192 -1.85317e-20)
(1.16658 0.163665 0)
(0.0507608 -0.00352872 0)
(0.189033 -0.00133751 2.18521e-20)
(0.35719 0.0222986 4.03925e-20)
(0.538988 0.0596138 -1.07508e-19)
(0.716779 0.103514 3.4799e-20)
(0.874893 0.147554 0)
(1.00296 0.186298 5.2457e-20)
(1.09733 0.216391 -7.33037e-20)
(1.16014 0.236825 -4.27734e-20)
(1.19711 0.248409 1.93478e-20)
(1.21523 0.252928 -3.13014e-20)
(1.22098 0.252406 7.58237e-20)
(1.21945 0.248624 3.8266e-20)
(1.21419 0.24292 -2.64468e-20)
(1.20736 0.236183 -2.31775e-21)
(1.20014 0.228947 -7.36994e-20)
(1.19312 0.22151 3.36603e-20)
(1.18653 0.21403 -9.04345e-22)
(1.18043 0.206591 0)
(1.17482 0.199241 -2.40061e-20)
(1.16963 0.192006 0)
(1.16477 0.184882 5.55575e-20)
(1.16017 0.177855 -6.6577e-20)
(1.15569 0.171172 3.05183e-20)
(0.069788 -0.00127558 -1.14746e-20)
(0.240566 0.00938218 -5.51323e-20)
(0.433624 0.0444533 6.27991e-20)
(0.629686 0.0925396 3.68576e-20)
(0.809446 0.143812 -1.75639e-20)
(0.958465 0.190665 2.96504e-20)
(1.0701 0.228054 -1.43629e-20)
(1.14526 0.253998 2.40003e-20)
(1.18988 0.269084 0)
(1.21198 0.275383 5.47316e-20)
(1.21924 0.275396 -2.18163e-21)
(1.21782 0.271374 -4.43275e-20)
(1.21197 0.265012 1.90579e-20)
(1.20431 0.257431 -2.16244e-20)
(1.19625 0.249295 -8.31877e-21)
(1.18845 0.240967 9.54396e-21)
(1.18118 0.23263 -7.41756e-21)
(1.17452 0.224378 -4.071e-20)
(1.16845 0.216259 2.49595e-20)
(1.16291 0.208305 5.15647e-21)
(1.15782 0.200522 4.58092e-21)
(1.15307 0.192888 4.0751e-21)
(1.14855 0.185453 0)
(1.14412 0.178483 0)
(0.0907514 0.00329631 1.14825e-20)
(0.294464 0.0260355 -1.14612e-20)
(0.50941 0.0742457 -2.09411e-20)
(0.714261 0.132696 0)
(0.889979 0.189328 -8.73962e-21)
(1.02542 0.236393 -7.90911e-21)
(1.11883 0.2702 -1.35434e-20)
(1.17563 0.29064 0)
(1.20472 0.299909 0)
(1.21527 0.301062 0)
(1.21485 0.296985 0)
(1.20881 0.289899 0)
(1.20044 0.281282 -1.19724e-20)
(1.19152 0.272007 5.4545e-21)
(1.1829 0.262541 9.54038e-21)
(1.1749 0.253112 4.47742e-21)
(1.16763 0.243829 1.11242e-20)
(1.16105 0.234745 0)
(1.15513 0.225887 -2.70773e-21)
(1.14978 0.217272 -2.62253e-21)
(1.14488 0.208888 -4.58825e-21)
(1.14033 0.200716 -4.08164e-21)
(1.136 0.192882 0)
(1.13172 0.185495 2.99842e-21)
(-0.00133055 8.02278e-06 6.80404e-21)
(-0.0065664 -0.000590565 -7.0711e-21)
(-0.0161009 -0.00156743 -1.34017e-20)
(-0.0278608 -0.00268432 0)
(-0.0407097 -0.00381705 -1.79605e-20)
(-0.0540767 -0.00491512 5.6369e-21)
(-0.0675729 -0.00596916 -1.0668e-20)
(-0.0809363 -0.00699173 0)
(-0.0940097 -0.00800301 0)
(-0.106707 -0.00902076 0)
(-0.118987 -0.0100549 0)
(-0.130834 -0.0111061 0)
(-0.142248 -0.0121657 8.05737e-24)
(-0.153235 -0.0132179 -7.05923e-21)
(-0.163807 -0.0142403 1.33352e-20)
(-0.173974 -0.015205 1.88561e-20)
(-0.183751 -0.0160789 5.92634e-21)
(-0.19316 -0.0168231 0)
(-0.202239 -0.0173935 5.26085e-21)
(-0.211043 -0.0177416 -1.4818e-20)
(-0.219641 -0.0178188 -9.29894e-21)
(-0.228108 -0.0175718 -8.75186e-21)
(-0.23664 -0.0169232 0)
(-0.245713 -0.0158044 0)
(-0.00166816 0.00399661 -2.04715e-20)
(-0.00720273 0.00880932 3.53349e-20)
(-0.01669 0.0114181 -1.33506e-20)
(-0.0281867 0.0126204 -2.53895e-20)
(-0.0406212 0.0129105 3.58695e-20)
(-0.0534523 0.0126029 -2.26416e-20)
(-0.0663074 0.0119054 3.19615e-20)
(-0.078933 0.0109521 2.01699e-20)
(-0.0911745 0.00982764 0)
(-0.102945 0.00858622 -1.79322e-20)
(-0.114198 0.00726507 -1.09852e-22)
(-0.124915 0.0058926 1.58414e-20)
(-0.135088 0.00449351 2.25243e-20)
(-0.144714 0.00309235 2.83248e-20)
(-0.153795 0.00171653 -1.32376e-20)
(-0.16233 0.000399314 -3.76086e-20)
(-0.170319 -0.000816791 1.18448e-20)
(-0.177763 -0.00187626 -4.44689e-20)
(-0.184678 -0.00270688 0)
(-0.1911 -0.00321864 9.86595e-21)
(-0.197071 -0.00330806 9.28635e-21)
(-0.202591 -0.00285469 8.7398e-21)
(-0.207775 -0.00168563 0)
(-0.21347 0.000364816 0)
(-0.00239761 0.00762743 0)
(-0.00859303 0.0174498 7.12124e-20)
(-0.0179683 0.0234381 -2.68599e-20)
(-0.0288714 0.0268533 2.5438e-20)
(-0.0403785 0.0285117 -7.21105e-20)
(-0.0520184 0.0289659 0)
(-0.0634594 0.0286074 -4.28717e-20)
(-0.0744701 0.0277086 2.01732e-20)
(-0.0849038 0.0264543 -3.81806e-20)
(-0.0946722 0.0249685 1.80718e-20)
(-0.103723 0.0233345 1.01733e-19)
(-0.112025 0.0216087 -4.77867e-20)
(-0.119556 0.0198309 -7.52255e-20)
(-0.126301 0.0180322 -2.85241e-20)
(-0.13224 0.0162411 -1.37184e-22)
(-0.137353 0.0144901 1.00425e-19)
(-0.141614 0.012822 -4.72035e-20)
(-0.144992 0.0112975 -7.04574e-24)
(-0.147459 0.0100041 0)
(-0.149007 0.009065 -3.9243e-20)
(-0.149633 0.00864629 0)
(-0.149217 0.00896848 -3.47095e-20)
(-0.147611 0.0103399 1.30077e-19)
(-0.146071 0.0130752 2.91134e-22)
(-0.00342969 0.0106569 0)
(-0.0105919 0.0247906 2.49454e-22)
(-0.0198326 0.033782 2.72197e-20)
(-0.0298942 0.039207 -2.57527e-20)
(-0.0400596 0.0421249 2.39759e-20)
(-0.0499593 0.0432826 1.36999e-19)
(-0.0593253 0.0432285 -4.29697e-20)
(-0.0679632 0.042357 -4.06923e-20)
(-0.0757434 0.0409439 7.65078e-20)
(-0.0825809 0.0391788 -1.08168e-19)
(-0.088418 0.0371894 3.39556e-20)
(-0.0932127 0.03506 3.20758e-20)
(-0.0969304 0.0328459 0)
(-0.0995383 0.030584 2.8343e-20)
(-0.101002 0.0283019 0)
(-0.101282 0.026025 5.03222e-20)
(-0.100334 0.0237852 -9.46017e-20)
(-0.0981004 0.0216294 2.21434e-20)
(-0.0945186 0.0196322 8.34436e-20)
(-0.0895337 0.0179137 3.92023e-20)
(-0.0831091 0.0166687 0)
(-0.0750565 0.0162244 -1.03303e-19)
(-0.0647868 0.0171355 3.243e-20)
(-0.0532102 0.0200914 0)
(-0.00465086 0.0129398 0)
(-0.0130064 0.0304751 -8.66568e-20)
(-0.0221347 0.0419413 -2.75628e-20)
(-0.0312046 0.0490655 -5.16515e-20)
(-0.039732 0.05306 4.86363e-20)
(-0.0474702 0.0548134 -4.57525e-20)
(-0.0542328 0.0549965 8.66521e-20)
(-0.0598773 0.0541036 4.0844e-20)
(-0.0643021 0.0524891 -1.1513e-19)
(-0.0674331 0.0504011 7.25105e-20)
(-0.0692126 0.0480092 -1.02261e-19)
(-0.0695909 0.045426 2.25091e-19)
(-0.0685222 0.0427241 -1.2083e-19)
(-0.0659603 0.0399496 5.6974e-20)
(-0.0618571 0.0371315 1.60705e-19)
(-0.0561608 0.0342901 -5.01866e-20)
(-0.0488147 0.0314441 -4.72483e-20)
(-0.0397542 0.028618 -4.44177e-20)
(-0.028903 0.0258511 0)
(-0.0161831 0.023214 -7.80528e-20)
(-0.0015466 0.0208433 -7.28997e-20)
(0.0151435 0.0190522 1.0303e-19)
(0.0347527 0.0186376 1.27927e-19)
(0.0579233 0.0210785 -1.20328e-19)
(-0.00594916 0.0144402 0)
(-0.0156317 0.0343571 -1.17227e-19)
(-0.0246952 0.047647 -4.02123e-22)
(-0.0327002 0.0560484 1.04032e-19)
(-0.0393911 0.0608459 0)
(-0.0446516 0.0630185 0)
(-0.0483879 0.0633233 0)
(-0.0505203 0.0623303 -4.09727e-20)
(-0.0509837 0.0604566 -1.18558e-22)
(-0.0497213 0.0579998 7.26926e-20)
(-0.0466781 0.0551672 -1.02644e-19)
(-0.0417981 0.0520992 -6.51747e-23)
(-0.0350226 0.0488886 0)
(-0.026289 0.0455951 -5.69476e-20)
(-0.0155324 0.0422564 5.36521e-20)
(-0.00268515 0.0388969 -1.50985e-19)
(0.0123208 0.0355335 1.89001e-19)
(0.0295539 0.0321807 4.41811e-20)
(0.0490843 0.0288545 -2.97931e-22)
(0.0709805 0.0255772 -1.55919e-19)
(0.0952707 0.0223881 -7.26781e-20)
(0.121994 0.0194233 2.37789e-19)
(0.15162 0.0174057 -1.58879e-19)
(0.188866 0.0186341 0)
(-0.00723678 0.0152202 5.76167e-20)
(-0.0182803 0.0364881 5.87502e-20)
(-0.0273094 0.0508681 -5.60496e-20)
(-0.0341957 0.0600242 -1.051e-19)
(-0.0388837 0.065258 9.89607e-20)
(-0.0413825 0.0675978 -9.31932e-20)
(-0.0416919 0.0678555 1.31663e-19)
(-0.0397968 0.0666531 -4.0957e-20)
(-0.03567 0.0644538 7.76104e-20)
(-0.02927 0.0615944 0)
(-0.0205408 0.0583145 6.88403e-20)
(-0.00941295 0.0547812 -1.29221e-19)
(0.00419329 0.0511092 1.21434e-19)
(0.0203652 0.0473765 -1.14055e-19)
(0.0391924 0.0436373 0)
(0.0607617 0.0399299 1.0054e-19)
(0.0851512 0.0362834 1.88474e-19)
(0.112423 0.0327221 -1.77038e-19)
(0.142618 0.0292672 -8.26537e-20)
(0.175754 0.0259385 -7.74307e-20)
(0.211735 0.022742 2.17876e-19)
(0.250866 0.019726 6.70114e-20)
(0.290754 0.0169173 -6.32816e-20)
(0.346702 0.0176533 5.81708e-20)
(-0.0084616 0.01541 -5.76246e-20)
(-0.0207947 0.0370684 1.79751e-19)
(-0.029738 0.051772 -5.66599e-20)
(-0.0353788 0.0610913 1.06075e-19)
(-0.0378209 0.0663221 -9.98784e-20)
(-0.0371827 0.0685177 3.7693e-22)
(-0.033546 0.0685215 4.42983e-20)
(-0.02695 0.0669885 1.66258e-19)
(-0.0173933 0.0644136 -5.9594e-23)
(-0.00483724 0.0611634 -7.31955e-20)
(0.0107886 0.0575049 0)
(0.0295785 0.0536307 -6.46677e-20)
(0.0516402 0.0496793 1.21443e-19)
(0.0770848 0.0457523 1.13958e-19)
(0.106014 0.0419247 -5.36016e-20)
(0.138506 0.0382549 -1.51602e-22)
(0.174601 0.0347912 -4.70976e-20)
(0.214286 0.0315757 8.78443e-20)
(0.257478 0.0286449 8.26347e-20)
(0.304086 0.0260519 -7.7287e-20)
(0.353436 0.0237213 7.16811e-20)
(0.407387 0.0221463 -6.6746e-20)
(0.456406 0.0197473 0)
(0.534297 0.0221641 -5.80903e-20)
(-0.00960358 0.0151651 5.87844e-20)
(-0.023033 0.0363743 -6.01832e-20)
(-0.0316751 0.0506566 5.73429e-20)
(-0.0357524 0.0595301 0)
(-0.0354868 0.064293 0)
(-0.0310815 0.0660173 9.5181e-20)
(-0.0226765 0.0655668 -8.88977e-20)
(-0.0103409 0.0636172 8.34038e-20)
(0.00592306 0.0606857 -3.91314e-19)
(0.0261692 0.0571629 1.26507e-22)
(0.050491 0.0533406 6.89274e-20)
(0.0790026 0.0494375 0)
(0.111815 0.0456175 -1.21248e-19)
(0.149011 0.0420051 2.27577e-19)
(0.19062 0.0386951 -1.60189e-19)
(0.236594 0.0357624 -2.49766e-19)
(0.286786 0.0332652 5.30998e-22)
(0.340937 0.0312502 1.74903e-19)
(0.398624 0.0297355 0)
(0.459579 0.0288511 0)
(0.521854 0.0281549 -7.16726e-20)
(0.590054 0.0292127 6.67366e-20)
(0.645198 0.0279841 -2.45851e-19)
(0.740631 0.0337612 2.30644e-19)
(-0.0106561 0.0146247 0)
(-0.0248306 0.0346813 0)
(-0.0326959 0.04787 -1.72615e-19)
(-0.0345711 0.0557351 5.48662e-20)
(-0.0307627 0.059609 3.75557e-22)
(-0.0215281 0.0605925 9.62543e-20)
(-0.00703577 0.0595682 0)
(0.0126427 0.0572296 -8.39613e-20)
(0.0375176 0.0541132 7.83901e-20)
(0.0676543 0.0506321 -1.47122e-19)
(0.103138 0.0471023 1.79796e-22)
(0.14403 0.0437648 1.29145e-19)
(0.19033 0.040802 -2.88575e-22)
(0.241928 0.0383486 1.13069e-19)
(0.298576 0.0365001 -1.59874e-19)
(0.359858 0.0353153 0)
(0.425183 0.0348202 1.85684e-19)
(0.493795 0.0350152 -2.61577e-19)
(0.564703 0.0358273 8.0659e-20)
(0.637275 0.0374192 0)
(0.708497 0.0389201 6.99604e-20)
(0.78413 0.0426659 2.61727e-19)
(0.841248 0.0427981 -2.45621e-19)
(0.938877 0.0514775 -2.83661e-19)
(-0.0115931 0.0138775 1.81046e-19)
(-0.0259433 0.0321978 -2.49031e-19)
(-0.0322026 0.0437375 4.8075e-22)
(-0.0307968 0.0501543 5.54132e-20)
(-0.0221009 0.0528545 -1.03303e-19)
(-0.00640233 0.052984 -9.57889e-20)
(0.0161239 0.0514532 1.79557e-19)
(0.0454068 0.0489767 -1.24835e-21)
(0.0814409 0.0461118 -1.57999e-19)
(0.124227 0.0432896 2.94815e-19)
(0.173707 0.0408397 -5.75418e-22)
(0.229696 0.0390058 -1.29497e-19)
(0.291823 0.037957 0)
(0.359489 0.0377927 0)
(0.431852 0.0385461 -5.30365e-20)
(0.507828 0.0401874 -9.84271e-20)
(0.58613 0.0426289 -1.83984e-19)
(0.665321 0.045731 1.727e-19)
(0.743853 0.0492978 -8.06883e-20)
(0.82043 0.0532377 1.48535e-19)
(0.892548 0.0568579 -7.13679e-20)
(0.963276 0.061605 1.27283e-19)
(1.01678 0.0627912 -3.00056e-19)
(1.09614 0.0711354 5.60703e-20)
(-0.0123336 0.0129432 6.11281e-20)
(-0.0259841 0.0290315 0)
(-0.029367 0.0385252 1.18415e-19)
(-0.023074 0.0432547 -1.11551e-19)
(-0.00755639 0.0447283 1.03397e-19)
(0.0168694 0.0441552 0)
(0.0500014 0.042482 0)
(0.0917038 0.0404448 -8.45072e-20)
(0.141822 0.0386113 9.4563e-22)
(0.200084 0.0374085 7.45492e-20)
(0.266 0.0371399 -6.88526e-20)
(0.338791 0.0379933 1.29626e-19)
(0.417348 0.0400459 0)
(0.50023 0.0432677 2.24827e-19)
(0.585721 0.0475296 -4.20769e-19)
(0.671904 0.0526138 2.95335e-19)
(0.756779 0.0582377 1.81715e-19)
(0.838372 0.0640497 -1.70575e-19)
(0.914903 0.0697545 0)
(0.984726 0.0748275 0)
(1.04682 0.0793405 0)
(1.10068 0.0823825 0)
(1.14296 0.0842054 5.90819e-20)
(1.19003 0.0868617 -2.16502e-19)
(-0.257361 -0.0141444 -5.56773e-21)
(-0.272259 -0.0127762 5.58925e-21)
(-0.286582 -0.0108162 -1.70916e-22)
(-0.3008 -0.00824447 0)
(-0.31453 -0.00506294 -5.28828e-21)
(-0.327484 -0.00131156 1.03061e-20)
(-0.339292 0.00297145 7.64514e-24)
(-0.349538 0.00770465 -4.8889e-21)
(-0.357745 0.0126395 0)
(-0.363339 0.0175587 0)
(-0.365711 0.0222418 -2.70939e-22)
(-0.364201 0.0264025 -2.5681e-22)
(-0.358144 0.0297255 -3.99588e-21)
(-0.346874 0.0318774 3.64966e-21)
(-0.329751 0.0325802 0)
(-0.30618 0.0315364 0)
(-0.27582 0.0288293 2.29809e-21)
(-0.238511 0.0239879 -3.50419e-22)
(-0.194024 0.0169793 -1.72364e-21)
(-0.142846 0.00792873 -8.07243e-23)
(-0.0857938 -0.00200873 0)
(-0.023634 -0.0121103 0)
(0.0421726 -0.0210922 0)
(0.109908 -0.0284333 0)
(0.177976 -0.0333917 0)
(0.2448 -0.0356578 0)
(0.309096 -0.0353136 -1.89784e-22)
(0.369963 -0.0326456 3.02611e-22)
(0.426922 -0.0282456 0)
(0.479819 -0.0225692 0)
(0.528678 -0.0163118 2.39801e-22)
(0.573654 -0.00967356 -2.33052e-22)
(0.614897 -0.00338749 -1.04172e-22)
(0.65266 0.002672 0)
(0.68706 0.00779929 0)
(0.718399 0.0124997 -1.41649e-22)
(0.746745 0.015853 1.37688e-22)
(0.772446 0.0188062 0)
(0.795579 0.020332 -9.5572e-23)
(0.81652 0.0217918 1.36913e-22)
(0.835371 0.0218978 -3.83065e-23)
(0.852541 0.0224339 0)
(0.868105 0.0216385 5.46131e-23)
(0.882475 0.0219002 -5.31051e-23)
(0.895662 0.0206793 0)
(0.908156 0.0211265 0)
(0.919913 0.019874 1.52057e-23)
(0.931337 0.0208608 -4.25847e-23)
(0.942068 0.0198542 0)
(0.952254 0.0214894 0)
(0.961238 0.0205806 8.02213e-24)
(0.969311 0.0227644 -2.7399e-26)
(0.975767 0.0218347 9.93405e-25)
(0.981399 0.0246123 -4.45895e-24)
(0.985404 0.0238451 0)
(0.989102 0.0273278 0)
(0.991273 0.0267931 0)
(0.993869 0.031019 0)
(0.99481 0.0307077 0)
(0.997051 0.035638 0)
(-0.222261 0.00331921 -5.33012e-22)
(-0.236465 0.00424558 -2.23613e-20)
(-0.249529 0.00547781 2.89424e-23)
(-0.26246 0.00715002 2.09587e-20)
(-0.274985 0.0091414 3.25029e-22)
(-0.286777 0.0113665 0)
(-0.297416 0.0137506 -1.96132e-20)
(-0.30646 0.0161472 3.87121e-20)
(-0.313394 0.0183858 -1.90963e-20)
(-0.317623 0.0202368 1.79624e-20)
(-0.318498 0.0214531 -1.71883e-20)
(-0.315336 0.021781 1.59151e-20)
(-0.307459 0.0210094 -1.54771e-20)
(-0.294169 0.0189451 -4.49919e-22)
(-0.274857 0.0155375 -1.24963e-20)
(-0.248901 0.010172 1.21438e-20)
(-0.216194 0.00239653 -9.47903e-21)
(-0.176947 -0.00726301 8.93647e-21)
(-0.131142 -0.0185281 -6.36221e-21)
(-0.0788422 -0.0312296 1.0804e-20)
(-0.0208905 -0.0434516 -4.51261e-21)
(0.0415094 -0.0546671 -1.58576e-22)
(0.106616 -0.063861 -5.73994e-22)
(0.172325 -0.0701464 1.75497e-22)
(0.237156 -0.0730239 3.71407e-22)
(0.299585 -0.0724498 -8.19898e-23)
(0.358509 -0.0688325 -1.97723e-21)
(0.413244 -0.0627657 -2.66738e-22)
(0.463649 -0.0550866 4.10831e-21)
(0.509834 -0.0464208 -4.07645e-21)
(0.552208 -0.037507 1.98097e-21)
(0.591083 -0.0285296 -2.27512e-22)
(0.626921 -0.0201773 1.04382e-22)
(0.660013 -0.0122856 -1.88376e-22)
(0.690689 -0.00553544 0)
(0.719042 0.000583281 0)
(0.745272 0.00531432 5.02006e-22)
(0.769472 0.00958966 -3.72255e-22)
(0.791782 0.0122408 -2.8331e-22)
(0.812297 0.0146723 -5.29394e-24)
(0.831127 0.0156165 3.64054e-22)
(0.848433 0.0168821 -6.67802e-23)
(0.864335 0.0167099 0)
(0.879046 0.0175004 0)
(0.892654 0.0167064 0)
(0.905515 0.017492 0)
(0.917674 0.0165091 -6.47275e-23)
(0.929466 0.0177447 2.78227e-23)
(0.940579 0.0170061 0)
(0.95113 0.0189609 0)
(0.960448 0.0184076 0)
(0.968823 0.0209715 1.24283e-23)
(0.975509 0.020399 -2.08559e-24)
(0.981346 0.0235009 9.83834e-24)
(0.985473 0.0229951 0)
(0.9893 0.0266932 0)
(0.991523 0.0263064 -3.96982e-24)
(0.99421 0.0306569 -9.03627e-24)
(0.99517 0.0304087 0)
(0.997495 0.035417 0)
(-0.148891 0.017304 7.10227e-22)
(-0.160455 0.0181588 -4.44133e-20)
(-0.170287 0.0187852 4.43731e-20)
(-0.17975 0.0197143 -4.14958e-20)
(-0.188892 0.0206737 -3.27228e-22)
(-0.197325 0.0215423 0)
(-0.204635 0.0221965 -4.01183e-20)
(-0.210393 0.0225028 3.93025e-20)
(-0.214102 0.0222998 2.94475e-22)
(-0.215184 0.0213351 5.67769e-22)
(-0.212994 0.019351 5.46216e-22)
(-0.206822 0.0161743 5.18324e-22)
(-0.195979 0.0117534 -3.06834e-20)
(-0.179789 0.00583706 3.02714e-20)
(-0.158077 -0.00231511 0)
(-0.130835 -0.0127513 7.66474e-22)
(-0.0972091 -0.0251995 -1.99653e-20)
(-0.0570717 -0.0393752 1.96759e-20)
(-0.0111538 -0.0544891 0)
(0.0408635 -0.0694578 0)
(0.0976712 -0.0835006 -7.34243e-21)
(0.157404 -0.0953671 1.14225e-20)
(0.218706 -0.104315 -5.83731e-21)
(0.279593 -0.109156 2.01214e-21)
(0.338452 -0.109577 -2.10581e-21)
(0.393911 -0.10585 4.83391e-21)
(0.44511 -0.0987462 -6.31781e-21)
(0.491607 -0.089183 -2.30202e-22)
(0.533533 -0.0782303 3.89161e-21)
(0.571196 -0.0666685 0)
(0.605288 -0.055315 0)
(0.636237 -0.0443049 -1.31656e-21)
(0.664756 -0.0342495 1.71991e-21)
(0.691142 -0.0249008 1.72149e-24)
(0.715939 -0.0169467 -1.29437e-21)
(0.739204 -0.00977268 1.25789e-21)
(0.761303 -0.00410079 0)
(0.782019 0.000959653 -1.16176e-22)
(0.801593 0.00457938 -8.73093e-22)
(0.819924 0.00787809 1.59883e-21)
(0.837148 0.00955437 -6.53436e-22)
(0.853166 0.0114604 -6.67596e-23)
(0.868139 0.011855 5.56052e-22)
(0.882062 0.0131418 -4.27746e-22)
(0.89509 0.0127574 -8.69707e-23)
(0.907414 0.0138701 -7.51651e-23)
(0.919157 0.0131477 6.4892e-23)
(0.930566 0.0146215 0)
(0.941389 0.0141414 0)
(0.951714 0.016408 1.58702e-22)
(0.960876 0.0162066 -7.46304e-23)
(0.969167 0.0191505 5.83247e-23)
(0.975796 0.0189372 -7.24863e-23)
(0.981634 0.0223674 -7.57555e-23)
(0.985748 0.022126 1.77445e-23)
(0.989618 0.0260433 -2.49373e-23)
(0.991842 0.0258061 1.8658e-23)
(0.99459 0.030284 -7.78132e-24)
(0.995553 0.0300995 0)
(0.997951 0.0351881 0)
(-0.0490298 0.0252654 -9.15097e-20)
(-0.0565719 0.0266834 2.84295e-22)
(-0.0621823 0.0270465 8.64977e-20)
(-0.0669164 0.0274486 -6.70619e-22)
(-0.0714008 0.0277265 0)
(-0.0752847 0.0276226 0)
(-0.0781289 0.0269325 -8.06745e-20)
(-0.0794926 0.0254886 -7.6091e-22)
(-0.0789746 0.0231365 1.14227e-19)
(-0.0760881 0.0196826 -7.88448e-22)
(-0.0701955 0.0148797 -3.60946e-20)
(-0.0605194 0.00862643 -3.23703e-20)
(-0.0467032 0.000672387 3.24882e-20)
(-0.028818 -0.0094561 0)
(-0.00626367 -0.0220106 -2.68476e-20)
(0.0223519 -0.0364282 2.45144e-20)
(0.0567789 -0.0522929 0)
(0.0963595 -0.0697375 0)
(0.140869 -0.087628 1.45782e-20)
(0.190116 -0.10458 -2.91554e-21)
(0.242964 -0.120264 -1.06454e-20)
(0.297807 -0.132783 -5.2583e-21)
(0.353015 -0.141038 5.17945e-21)
(0.406775 -0.144127 -3.3823e-22)
(0.457623 -0.141922 1.64018e-21)
(0.504466 -0.134996 -1.32929e-21)
(0.546771 -0.12446 -3.73868e-22)
(0.584364 -0.111532 -2.06018e-23)
(0.617585 -0.0974864 0)
(0.646822 -0.0832071 -3.91193e-21)
(0.672877 -0.0696094 4.03227e-21)
(0.696181 -0.0568059 -2.26486e-22)
(0.717519 -0.0453328 0)
(0.737144 -0.0348694 1.88887e-22)
(0.755755 -0.0259933 -2.58143e-21)
(0.773344 -0.0180038 4.50003e-21)
(0.790392 -0.011702 5.57116e-23)
(0.806714 -0.0061042 -1.91563e-22)
(0.822584 -0.00200985 -1.51572e-21)
(0.83761 0.00184786 -1.77776e-22)
(0.852089 0.00413851 1.1713e-21)
(0.86575 0.00657019 -1.00376e-21)
(0.878786 0.0074276 -5.22742e-25)
(0.890998 0.00913365 -3.81754e-22)
(0.902591 0.00910396 4.58404e-22)
(0.913597 0.0105022 5.10913e-22)
(0.924192 0.0100051 -1.4709e-22)
(0.934541 0.0116819 -2.11306e-22)
(0.944449 0.0114246 3.86378e-22)
(0.953995 0.0139668 -2.5814e-22)
(0.962531 0.0140845 6.03345e-23)
(0.970359 0.0173808 -7.62977e-23)
(0.976644 0.0175052 -5.70373e-23)
(0.982279 0.0212486 1.15668e-22)
(0.986242 0.021261 -3.48155e-24)
(0.990065 0.0253916 2.49302e-23)
(0.992236 0.0253002 0)
(0.995012 0.0299045 7.74315e-24)
(0.99596 0.0297826 -9.99768e-24)
(0.998419 0.0349523 0)
(0.0678399 0.026557 9.21966e-20)
(0.0647952 0.0289925 -1.80379e-19)
(0.0627763 0.0295621 8.71921e-20)
(0.062522 0.0296581 8.63888e-20)
(0.0627766 0.0295268 -1.69191e-19)
(0.0635366 0.0288452 1.28427e-22)
(0.0652109 0.0272982 8.10268e-20)
(0.0682349 0.0246676 7.88476e-20)
(0.072989 0.0207431 -7.72343e-20)
(0.0798566 0.015353 0)
(0.0894128 0.00831314 -7.15998e-20)
(0.102054 -0.000531691 1.38042e-19)
(0.117924 -0.0117432 -6.65214e-20)
(0.137588 -0.0253285 0)
(0.161482 -0.0405894 0)
(0.190053 -0.0574596 8.08525e-22)
(0.22342 -0.07641 -4.45777e-20)
(0.261225 -0.096586 4.33033e-20)
(0.302938 -0.116892 0)
(0.348098 -0.135989 2.56854e-20)
(0.395529 -0.152661 -4.22785e-20)
(0.443658 -0.165289 2.97351e-20)
(0.490882 -0.172633 -1.85773e-20)
(0.535644 -0.173904 4.37293e-21)
(0.576816 -0.16918 4.72509e-22)
(0.613749 -0.159324 1.57113e-21)
(0.646356 -0.14574 1.76185e-22)
(0.674806 -0.129877 3.26536e-21)
(0.699627 -0.113168 3.33783e-22)
(0.721226 -0.096541 -3.60792e-21)
(0.74035 -0.0809703 -2.34224e-22)
(0.757337 -0.0665955 3.40728e-21)
(0.772846 -0.0538988 -6.45074e-21)
(0.786997 -0.0424962 3.41413e-21)
(0.800458 -0.032891 0)
(0.813167 -0.0243529 2.57592e-21)
(0.825687 -0.0175657 -2.4761e-21)
(0.837758 -0.0114684 1.53521e-21)
(0.849791 -0.00710557 -1.9187e-21)
(0.861382 -0.00300974 1.76429e-22)
(0.872771 -0.000439195 0)
(0.883615 0.00244545 1.33584e-22)
(0.894199 0.00367024 -3.49121e-22)
(0.904202 0.00570288 0)
(0.913846 0.00595273 -8.35438e-22)
(0.923049 0.00757832 3.40384e-22)
(0.932008 0.007256 -1.30557e-22)
(0.940831 0.00908536 -1.12094e-22)
(0.949367 0.00899723 0)
(0.957716 0.0117581 0)
(0.965251 0.0121392 2.00166e-22)
(0.972307 0.0157371 -2.94102e-22)
(0.978005 0.0161569 1.54374e-22)
(0.98326 0.0201815 -4.66862e-23)
(0.986945 0.0204242 -7.0718e-23)
(0.990641 0.0247531 -2.49539e-23)
(0.992707 0.0247978 3.725e-23)
(0.995478 0.0295235 0)
(0.996395 0.0294611 1.63078e-23)
(0.9989 0.034711 3.8485e-24)
(0.200983 0.0238147 9.32576e-20)
(0.201005 0.0266361 -9.25861e-20)
(0.200457 0.0272789 6.98459e-22)
(0.202587 0.0271438 -6.76512e-22)
(0.20606 0.0267326 6.68106e-22)
(0.210219 0.0256791 -6.53834e-22)
(0.215324 0.0235846 1.26815e-21)
(0.221769 0.0202248 0)
(0.229866 0.0153683 -1.2106e-21)
(0.239897 0.0087426 1.17885e-21)
(0.252336 0.00023044 1.14339e-21)
(0.267163 -0.0106027 -1.10205e-21)
(0.284769 -0.0238472 0)
(0.305644 -0.0393187 0)
(0.329944 -0.0569491 9.34693e-22)
(0.357993 -0.0764647 0)
(0.389821 -0.0976511 -7.77592e-22)
(0.425079 -0.119831 0)
(0.463138 -0.141824 -3.2779e-20)
(0.50324 -0.162202 5.9188e-20)
(0.544117 -0.179406 -4.60013e-20)
(0.584191 -0.191775 1.98255e-20)
(0.621977 -0.19804 8.45782e-21)
(0.656287 -0.197555 -8.21304e-21)
(0.686502 -0.19062 1.12646e-22)
(0.712567 -0.178359 -2.0818e-22)
(0.734926 -0.16239 0)
(0.75413 -0.144297 -1.59422e-22)
(0.770879 -0.125591 0)
(0.785575 -0.1072 0)
(0.798814 -0.0900783 -6.48962e-21)
(0.81079 -0.0744247 6.70375e-21)
(0.821937 -0.0606986 -3.81317e-22)
(0.832171 -0.0484843 -3.6764e-22)
(0.841981 -0.038248 3.21449e-22)
(0.851212 -0.0292238 2.25295e-21)
(0.860364 -0.0220472 -2.18755e-21)
(0.869179 -0.0156673 1.99047e-21)
(0.878072 -0.0109713 -1.70698e-21)
(0.886664 -0.00664344 -3.5411e-22)
(0.895306 -0.00392571 1.17214e-21)
(0.903562 -0.000859976 1.16235e-23)
(0.911704 0.000652727 -7.53974e-22)
(0.919463 0.00293761 0)