/*--------------------------------*- C++ -*----------------------------------*\
| =========                 |                                                 |
| \\      /  F ield         | OpenFOAM: The Open Source CFD Toolbox           |
|  \\    /   O peration     | Version:  2512                                  |
|   \\  /    A nd           | Website:  www.openfoam.com                      |
|    \\/     M anipulation  |                                                 |
\*---------------------------------------------------------------------------*/
FoamFile
{
    version     2.0;
    format      ascii;
    arch        "LSB;label=32;scalar=64";
    class       volScalarField;
    location    "23";
    object      p;
}
// * * * * * * * * * * * * * * * * * * * * * * * * * * * * * * * * * * * * * //

dimensions      [0 2 -2 0 0 0 0];

internalField   nonuniform List<scalar> 
13248
(
-0.299586
-0.29812
-0.296127
-0.293765
-0.291209
-0.288624
-0.28612
-0.283753
-0.281533
-0.279434
-0.277403
-0.275367
-0.27324
-0.270941
-0.268393
-0.265537
-0.262331
-0.25876
-0.254822
-0.250566
-0.245945
-0.24119
-0.235714
-0.230497
-0.306609
-0.304496
-0.30186
-0.298869
-0.295696
-0.29252
-0.289449
-0.286523
-0.283727
-0.281008
-0.27828
-0.275449
-0.27242
-0.269111
-0.265464
-0.261445
-0.257047
-0.252287
-0.247199
-0.241825
-0.236193
-0.230361
-0.224197
-0.218338
-0.315002
-0.312064
-0.308671
-0.304981
-0.301142
-0.29733
-0.293635
-0.290063
-0.28656
-0.283033
-0.279377
-0.27549
-0.271291
-0.26673
-0.261793
-0.256497
-0.250882
-0.245008
-0.238936
-0.23273
-0.226409
-0.220053
-0.213562
-0.207373
-0.324934
-0.320985
-0.316726
-0.312274
-0.307714
-0.303195
-0.298767
-0.294383
-0.28994
-0.285322
-0.280425
-0.275174
-0.269542
-0.263541
-0.257221
-0.250654
-0.243924
-0.23711
-0.230278
-0.223476
-0.216723
-0.21007
-0.203426
-0.197248
-0.336506
-0.331374
-0.326152
-0.320875
-0.315519
-0.310173
-0.304824
-0.299363
-0.293659
-0.287601
-0.281133
-0.274254
-0.267018
-0.259515
-0.251853
-0.244138
-0.236462
-0.228896
-0.221481
-0.214242
-0.207182
-0.200318
-0.193594
-0.187329
-0.349732
-0.343273
-0.337011
-0.330846
-0.324579
-0.31821
-0.311647
-0.304742
-0.297376
-0.289507
-0.281177
-0.272491
-0.263592
-0.254631
-0.245741
-0.237027
-0.228559
-0.220375
-0.212489
-0.204899
-0.197593
-0.190563
-0.183765
-0.177428
-0.364503
-0.35662
-0.349268
-0.34213
-0.334772
-0.327073
-0.318889
-0.310087
-0.300637
-0.290629
-0.280241
-0.269687
-0.259174
-0.24887
-0.238897
-0.229325
-0.220188
-0.211487
-0.203209
-0.195328
-0.187818
-0.180652
-0.173801
-0.167387
-0.380549
-0.37121
-0.362731
-0.354493
-0.345763
-0.336311
-0.326008
-0.314831
-0.302924
-0.290557
-0.278044
-0.265673
-0.253665
-0.242165
-0.23125
-0.220944
-0.211236
-0.202096
-0.193486
-0.185363
-0.177687
-0.17042
-0.163541
-0.157072
-0.397402
-0.386644
-0.377003
-0.367467
-0.356975
-0.345257
-0.332311
-0.318342
-0.303732
-0.288936
-0.27436
-0.260309
-0.246969
-0.23443
-0.222708
-0.211777
-0.201587
-0.192082
-0.183201
-0.174888
-0.167092
-0.159768
-0.152889
-0.146396
-0.414367
-0.402291
-0.391431
-0.380307
-0.367577
-0.353054
-0.337017
-0.319991
-0.302613
-0.285471
-0.269
-0.253462
-0.238974
-0.225551
-0.213149
-0.201698
-0.191115
-0.18132
-0.172236
-0.163793
-0.155929
-0.148595
-0.141743
-0.135265
-0.430525
-0.417273
-0.405085
-0.391999
-0.376515
-0.358712
-0.339288
-0.31913
-0.299083
-0.279793
-0.261656
-0.244847
-0.229396
-0.215243
-0.202292
-0.190432
-0.179555
-0.16956
-0.160355
-0.151858
-0.143999
-0.136719
-0.129937
-0.123539
-0.444813
-0.430572
-0.416923
-0.401455
-0.382708
-0.361231
-0.338248
-0.314999
-0.292465
-0.271271
-0.251715
-0.233862
-0.217646
-0.202939
-0.189593
-0.177465
-0.166422
-0.156345
-0.14713
-0.138685
-0.130932
-0.123802
-0.117183
-0.111009
-0.259876
-0.262083
-0.263505
-0.264495
-0.26536
-0.266185
-0.267007
-0.267854
-0.268738
-0.269661
-0.270621
-0.27161
-0.272622
-0.27365
-0.274686
-0.275724
-0.276759
-0.27779
-0.278819
-0.279856
-0.28091
-0.281998
-0.283203
-0.284715
-0.260497
-0.262622
-0.263998
-0.264961
-0.265805
-0.26661
-0.267411
-0.268233
-0.269085
-0.269969
-0.270878
-0.271804
-0.272737
-0.273667
-0.274582
-0.275473
-0.276331
-0.277149
-0.277925
-0.278667
-0.279374
-0.280036
-0.280736
-0.28186
-0.262008
-0.26393
-0.265185
-0.266072
-0.266857
-0.267609
-0.268361
-0.269133
-0.269932
-0.270757
-0.271598
-0.272445
-0.273284
-0.274102
-0.274885
-0.275618
-0.276286
-0.276875
-0.277378
-0.277798
-0.278132
-0.278336
-0.278453
-0.279187
-0.264262
-0.265888
-0.26696
-0.267724
-0.268405
-0.269064
-0.269728
-0.270416
-0.271129
-0.271864
-0.272608
-0.273349
-0.27407
-0.274755
-0.275386
-0.275944
-0.27641
-0.276763
-0.276986
-0.277075
-0.277031
-0.276796
-0.276297
-0.27634
-0.267067
-0.268343
-0.269183
-0.269778
-0.270307
-0.270823
-0.271352
-0.271907
-0.272489
-0.273089
-0.273696
-0.274293
-0.274862
-0.275384
-0.275838
-0.276203
-0.276456
-0.276572
-0.276526
-0.276302
-0.2759
-0.275274
-0.274259
-0.273424
-0.270229
-0.27114
-0.271716
-0.272096
-0.272421
-0.272739
-0.273073
-0.273437
-0.27383
-0.274244
-0.274664
-0.275073
-0.275451
-0.275777
-0.27603
-0.276185
-0.276218
-0.276103
-0.275811
-0.275316
-0.274605
-0.273642
-0.272258
-0.270465
-0.273593
-0.274156
-0.274449
-0.274572
-0.274638
-0.274694
-0.27477
-0.27488
-0.275025
-0.275196
-0.27538
-0.275557
-0.275708
-0.275811
-0.275841
-0.275776
-0.275587
-0.27525
-0.274733
-0.274005
-0.273041
-0.271764
-0.270339
-0.267249
-0.277077
-0.277326
-0.277323
-0.277148
-0.276898
-0.276632
-0.276386
-0.276179
-0.276018
-0.275897
-0.275801
-0.275713
-0.27561
-0.275469
-0.275264
-0.27497
-0.274559
-0.274
-0.273263
-0.272308
-0.27115
-0.269479
-0.268332
-0.264045
-0.280689
-0.280657
-0.280344
-0.279828
-0.27921
-0.278562
-0.277936
-0.27736
-0.276846
-0.276392
-0.275985
-0.275604
-0.275228
-0.274828
-0.274374
-0.273835
-0.273179
-0.272373
-0.271389
-0.270166
-0.268835
-0.266727
-0.265861
-0.261045
-0.284533
-0.284231
-0.283583
-0.282681
-0.281643
-0.280563
-0.279509
-0.278522
-0.27762
-0.276803
-0.276058
-0.275363
-0.274687
-0.273995
-0.273247
-0.272404
-0.271426
-0.27028
-0.268948
-0.267362
-0.265756
-0.263357
-0.262423
-0.257891
-0.288798
-0.288198
-0.28717
-0.285831
-0.284321
-0.282762
-0.281239
-0.279805
-0.278482
-0.277271
-0.276155
-0.2751
-0.274066
-0.273002
-0.271856
-0.270576
-0.269115
-0.267438
-0.265533
-0.263383
-0.261179
-0.258558
-0.257105
-0.253359
-0.293731
-0.292757
-0.291282
-0.289445
-0.287413
-0.285333
-0.283308
-0.281397
-0.279624
-0.277982
-0.276441
-0.274953
-0.273457
-0.271884
-0.270168
-0.268244
-0.266061
-0.263587
-0.260802
-0.257746
-0.254449
-0.251071
-0.248186
-0.245141
-0.286902
-0.289128
-0.291458
-0.293697
-0.295675
-0.297173
-0.297919
-0.297607
-0.29587
-0.2923
-0.286466
-0.277934
-0.266317
-0.251287
-0.232632
-0.210514
-0.185158
-0.156818
-0.127007
-0.0962276
-0.065788
-0.0369516
-0.0108159
0.0114464
0.0292931
0.042576
0.0515543
0.0567778
0.0589489
0.0587929
0.0569796
0.0540755
0.0505305
0.0466396
0.0427348
0.0388014
0.0352454
0.0318146
0.0286279
0.025686
0.0229973
0.0205531
0.0183401
0.0163421
0.0145442
0.0129278
0.0114733
0.0101554
0.00895141
0.00784457
0.00682053
0.00588073
0.00500999
0.0042191
0.00347708
0.00280377
0.00214711
0.00154387
0.000916654
0.000330263
-0.283986
-0.286104
-0.288286
-0.290406
-0.292332
-0.293877
-0.294806
-0.294831
-0.293606
-0.29073
-0.285761
-0.278236
-0.2677
-0.253707
-0.235888
-0.215038
-0.190985
-0.164178
-0.134498
-0.103472
-0.072424
-0.0426857
-0.0156647
0.00760976
0.0264291
0.0405639
0.0502378
0.0559975
0.0585649
0.0586864
0.0570531
0.0542584
0.0507709
0.0469708
0.0429704
0.0388859
0.035409
0.0319481
0.0287442
0.0257763
0.0230653
0.0206089
0.0183858
0.0163832
0.0145799
0.0129638
0.0115066
0.0101903
0.00898306
0.00787518
0.00684666
0.00590388
0.00502924
0.00423479
0.00349046
0.0028134
0.00215585
0.00154851
0.00092132
0.000329543
-0.281992
-0.283851
-0.285872
-0.287977
-0.289993
-0.291751
-0.293035
-0.293583
-0.293056
-0.291059
-0.287126
-0.280724
-0.271307
-0.258754
-0.24331
-0.223432
-0.199951
-0.173361
-0.143932
-0.1126
-0.0810722
-0.0505195
-0.0224224
0.00198922
0.0218981
0.037007
0.0475115
0.0539578
0.0570814
0.0576473
0.0563513
0.0538029
0.0504913
0.0467998
0.0429464
0.0393293
0.035405
0.0318953
0.0287225
0.0257639
0.0230531
0.0205993
0.018378
0.0163801
0.0145787
0.0129688
0.0115139
0.0102039
0.00899764
0.00789266
0.00686278
0.00591973
0.00504308
0.00424664
0.00350103
0.0028211
0.00216324
0.00155233
0.000925527
0.000328673
-0.280274
-0.281902
-0.283763
-0.285938
-0.288137
-0.290196
-0.291908
-0.293026
-0.29326
-0.292194
-0.289307
-0.284006
-0.276009
-0.265023
-0.250287
-0.231651
-0.209277
-0.183314
-0.154276
-0.12304
-0.091009
-0.0596901
-0.0306295
-0.00516287
0.0158022
0.0319094
0.0433248
0.0505826
0.0544182
0.0555958
0.054806
0.0526562
0.0496552
0.0461906
0.042518
0.0389057
0.0351961
0.0317789
0.0285502
0.0256328
0.0229583
0.0205283
0.0183211
0.0163362
0.014544
0.012945
0.0114971
0.0101972
0.00899584
0.00789724
0.00686917
0.00592839
0.00505169
0.00425482
0.00350893
0.00282705
0.00216935
0.00155549
0.000929306
0.000327758
-0.278387
-0.280036
-0.281609
-0.283788
-0.28617
-0.288517
-0.290639
-0.29229
-0.29318
-0.292949
-0.29104
-0.286905
-0.280142
-0.270264
-0.256928
-0.23961
-0.218299
-0.193137
-0.164574
-0.133553
-0.101379
-0.0696123
-0.0398735
-0.0135793
0.00829805
0.0253538
0.0377155
0.0458843
0.050572
0.0525191
0.0524033
0.050806
0.048248
0.0451259
0.0417191
0.038262
0.0347498
0.0314377
0.0283026
0.0254014
0.0227644
0.0203907
0.0182169
0.016254
0.0144783
0.0128948
0.011458
0.0101712
0.00897827
0.00788894
0.00686577
0.00592962
0.0050549
0.00425913
0.00351401
0.00283117
0.00217409
0.001558
0.000932584
0.00032686
-0.276223
-0.278204
-0.279356
-0.281302
-0.283757
-0.286291
-0.288685
-0.290734
-0.292152
-0.292588
-0.291496
-0.28839
-0.282756
-0.274093
-0.26191
-0.245847
-0.225729
-0.20161
-0.173897
-0.143457
-0.111556
-0.0797643
-0.0497359
-0.0229268
-0.000344862
0.0175626
0.0308701
0.0400185
0.0456665
0.0485141
0.049215
0.0483076
0.0463123
0.0436387
0.0405838
0.0373776
0.0340999
0.030938
0.0279166
0.0251272
0.0225442
0.0201862
0.0180664
0.0161372
0.0143856
0.0128211
0.0113994
0.0101276
0.00894613
0.00786827
0.0068528
0.00592336
0.00505257
0.00425943
0.00351611
0.00283336
0.00217732
0.00155983
0.000935273
0.00032605
-0.273874
-0.276333
-0.276992
-0.278476
-0.280832
-0.283396
-0.285869
-0.288102
-0.289837
-0.290713
-0.29031
-0.287978
-0.283266
-0.275645
-0.264619
-0.24981
-0.230984
-0.208136
-0.181608
-0.15217
-0.121018
-0.0896779
-0.0597904
-0.0328124
-0.00976249
0.0088707
0.0230894
0.0332491
0.0399253
0.0437639
0.0453791
0.0452682
0.0439314
0.0417901
0.0391587
0.0362755
0.0332691
0.0303029
0.0274432
0.0247555
0.0222536
0.019951
0.0178632
0.0159853
0.0142693
0.0127272
0.0113242
0.0100689
0.00890113
0.00783627
0.00683084
0.00590984
0.00504478
0.00425569
0.00351512
0.00283356
0.00217894
0.00156096
0.000937288
0.000325423
-0.271101
-0.273974
-0.274206
-0.275233
-0.277344
-0.279738
-0.282091
-0.284299
-0.286119
-0.287257
-0.287201
-0.285451
-0.281495
-0.274801
-0.264858
-0.25125
-0.233725
-0.21228
-0.187242
-0.159253
-0.12936
-0.0989647
-0.0696457
-0.0428366
-0.0195559
-0.000338116
0.0147269
0.0258886
0.033617
0.0384871
0.0410665
0.0418213
0.0412068
0.0396547
0.0374988
0.0349898
0.0322885
0.0295548
0.0268742
0.0243221
0.0219253
0.0197072
0.0176531
0.0157973
0.0141312
0.0126161
0.0112351
0.00999725
0.00884502
0.00779423
0.00680064
0.0058895
0.00503168
0.00424797
0.00351102
0.00283175
0.00217885
0.0015614
0.000938553
0.000325097
-0.267621
-0.270299
-0.270276
-0.271211
-0.273055
-0.275089
-0.27716
-0.279174
-0.280903
-0.282061
-0.282195
-0.280811
-0.277419
-0.271504
-0.262553
-0.250143
-0.234001
-0.214077
-0.190654
-0.164402
-0.13622
-0.107242
-0.078897
-0.0525716
-0.0292896
-0.00964508
0.00616277
0.0182643
0.0270142
0.0328992
0.0364422
0.0380985
0.0382498
0.0373199
0.0356669
0.0335614
0.0311882
0.02871
0.0262287
0.023827
0.0215442
0.0194073
0.0174213
0.0155725
0.0139678
0.0124896
0.0111353
0.00991514
0.00877947
0.00774348
0.00676309
0.00586299
0.00501363
0.00423649
0.00350386
0.00282798
0.00217702
0.00156117
0.000939016
0.000325221
-0.262864
-0.264475
-0.264699
-0.265862
-0.267431
-0.269099
-0.270884
-0.272557
-0.27386
-0.274963
-0.275173
-0.274039
-0.271108
-0.265891
-0.25789
-0.246687
-0.231998
-0.213746
-0.192146
-0.16778
-0.141542
-0.114349
-0.0873495
-0.0618158
-0.0387649
-0.0188647
-0.00243957
0.0105112
0.0202241
0.0270863
0.0315634
0.0341224
0.0350938
0.0348385
0.0337209
0.0320402
0.0300082
0.0277981
0.0255265
0.0232852
0.021124
0.0190851
0.0171722
0.015433
0.0137828
0.0123401
0.0110239
0.00982417
0.00870618
0.00768566
0.00671942
0.00583124
0.00499119
0.00422167
0.00349384
0.0028224
0.00217346
0.00156033
0.000938669
0.000326016
-0.255956
-0.256665
-0.257625
-0.258838
-0.260036
-0.261578
-0.263384
-0.265111
-0.266454
-0.266943
-0.267016
-0.266013
-0.263444
-0.258863
-0.251789
-0.241824
-0.228687
-0.212265
-0.192692
-0.170422
-0.146216
-0.120988
-0.0955992
-0.0711094
-0.0484779
-0.0284351
-0.0114452
0.00234423
0.0130399
0.0209189
0.0263667
0.0298012
0.0316096
0.0321047
0.0315984
0.0303997
0.0287468
0.0268307
0.0247862
0.0227174
0.0206881
0.0187483
0.0169167
0.0152197
0.0136338
0.0121632
0.0108857
0.00972141
0.00862621
0.00762185
0.00667027
0.00579435
0.00496411
0.00420312
0.00348043
0.00281461
0.00216773
0.00155866
0.000937285
0.000327764
-0.246769
-0.248277
-0.249391
-0.249862
-0.250649
-0.252065
-0.253608
-0.254889
-0.255786
-0.256096
-0.256236
-0.255324
-0.253146
-0.249245
-0.243151
-0.23451
-0.223043
-0.208599
-0.191225
-0.171221
-0.149147
-0.125765
-0.101937
-0.0786285
-0.056703
-0.0368407
-0.0195898
-0.0052236
0.00624397
0.0149827
0.0212922
0.0255305
0.0280449
0.0291777
0.0292509
0.0285431
0.0272951
0.025704
0.0239175
0.0220495
0.020176
0.0183561
0.0166148
0.0149857
0.0134525
0.012082
0.0107897
0.0096077
0.00853563
0.00754608
0.00661041
0.00574796
0.00492867
0.00417816
0.00346134
0.00280308
0.00215851
0.00155536
0.000934094
0.000330599
-0.236143
-0.241651
-0.242339
-0.242031
-0.24254
-0.243825
-0.245313
-0.246708
-0.247962
-0.248634
-0.247798
-0.246444
-0.244171
-0.240298
-0.234372
-0.226072
-0.21515
-0.201475
-0.185097
-0.166291
-0.145569
-0.123633
-0.10126
-0.0792848
-0.0584974
-0.0395463
-0.0229281
-0.00891533
0.00244588
0.0112735
0.0178115
0.0223681
0.0252691
0.0268056
0.0272576
0.0268882
0.025935
0.0245933
0.0230151
0.0213169
0.0195817
0.0178721
0.0162216
0.0146626
0.0131937
0.0118527
0.010601
0.00947202
0.00842594
0.00745654
0.00654231
0.00569718
0.00489057
0.00415199
0.00344133
0.00279119
0.00214871
0.0015518
0.000929965
0.000333912
-0.224588
-0.232553
-0.233718
-0.232829
-0.232806
-0.233851
-0.235239
-0.236412
-0.237082
-0.237078
-0.236416
-0.234956
-0.232401
-0.22835
-0.222424
-0.214343
-0.203913
-0.191042
-0.175794
-0.158418
-0.139355
-0.119201
-0.0986281
-0.078351
-0.0590619
-0.0413398
-0.025629
-0.0122004
-0.00113485
0.00763451
0.0142913
0.0190868
0.0222931
0.0241644
0.0249563
0.0249162
0.0242674
0.023198
0.0218563
0.0203601
0.0187944
0.0172253
0.0156911
0.0142262
0.012837
0.0115514
0.0103559
0.00926965
0.0082587
0.00732337
0.0064352
0.005613
0.00482504
0.00410231
0.00340375
0.0027642
0.00212904
0.00153955
0.000921864
0.000333486
-0.212422
-0.221687
-0.223515
-0.222503
-0.22211
-0.222907
-0.224142
-0.225106
-0.225498
-0.225324
-0.224501
-0.222783
-0.219962
-0.215781
-0.209942
-0.202201
-0.192396
-0.180461
-0.166456
-0.150586
-0.133214
-0.114834
-0.0960188
-0.0773831
-0.059531
-0.0429849
-0.0281558
-0.0153151
-0.00457355
0.00409278
0.0108152
0.0157922
0.0192513
0.0214205
0.0225315
0.0228112
0.0224654
0.0216729
0.0205767
0.019294
0.0179102
0.0164948
0.0150887
0.0137303
0.0124293
0.0112148
0.0100798
0.00903891
0.00806523
0.00716314
0.00630357
0.00550667
0.00474077
0.00403658
0.00335348
0.00272678
0.00210188
0.00152153
0.000910773
0.000331056
-0.20022
-0.209794
-0.212257
-0.211508
-0.210998
-0.211592
-0.212675
-0.213513
-0.213778
-0.213423
-0.212365
-0.210453
-0.207508
-0.203328
-0.197681
-0.190362
-0.181234
-0.170245
-0.157445
-0.143004
-0.127218
-0.110499
-0.0933358
-0.0762562
-0.0597842
-0.0443879
-0.0304449
-0.0182196
-0.00784278
0.000673516
0.0074146
0.0125318
0.0162138
0.0186597
0.0200749
0.0206633
0.020614
0.0200957
0.019245
0.0181779
0.0169795
0.0157218
0.0144484
0.0132009
0.0119924
0.0108538
0.00978126
0.00878926
0.00785596
0.00698894
0.0061603
0.00539038
0.0046481
0.0039639
0.00329752
0.00268492
0.00207137
0.00150121
0.000898525
0.000327834
-0.187727
-0.197362
-0.200417
-0.200093
-0.199637
-0.200099
-0.201048
-0.201791
-0.201958
-0.201452
-0.200235
-0.198219
-0.195254
-0.19117
-0.185779
-0.178913
-0.170461
-0.160381
-0.148719
-0.135616
-0.121314
-0.106155
-0.0905528
-0.0749541
-0.0598111
-0.0455388
-0.0324816
-0.020893
-0.0109172
-0.00259567
0.00411807
0.00933457
0.0132056
0.0159003
0.017597
0.018478
0.0187148
0.0184649
0.0178582
0.0170077
0.0159977
0.0149018
0.0137656
0.0126334
0.0115222
0.0104636
0.00945641
0.00851752
0.00762863
0.00679994
0.0060047
0.00526381
0.00454678
0.00388414
0.00323577
0.00263857
0.00203747
0.00147852
0.000885061
0.000323772
-0.175194
-0.184817
-0.188317
-0.18841
-0.188098
-0.1885
-0.189346
-0.190015
-0.190116
-0.189531
-0.188245
-0.186206
-0.183298
-0.179372
-0.174278
-0.167882
-0.160097
-0.150892
-0.140306
-0.128455
-0.11554
-0.101841
-0.0877011
-0.0734996
-0.0596242
-0.04644
-0.0342586
-0.0233202
-0.0137763
-0.00569095
0.000950744
0.0062237
0.0102453
0.0131555
0.0151072
0.0162607
0.0167701
0.0167808
0.0164146
0.0157805
0.0149612
0.0140307
0.0130362
0.0120242
0.0110149
0.0100406
0.00910297
0.00822189
0.00738119
0.00659383
0.00583448
0.00512483
0.00443497
0.00379564
0.00316692
0.00258655
0.00199935
0.00145275
0.000869959
0.000318722
-0.163038
-0.172377
-0.176134
-0.176596
-0.176471
-0.176875
-0.177656
-0.178275
-0.178351
-0.177755
-0.176474
-0.174479
-0.171682
-0.167962
-0.163198
-0.157287
-0.15016
-0.141794
-0.132221
-0.12154
-0.109911
-0.0975665
-0.0847889
-0.071898
-0.059225
-0.0470884
-0.0357682
-0.0254887
-0.0164032
-0.00859185
-0.00206538
0.00322062
0.00735262
0.0104433
0.012621
0.0140246
0.0147906
0.0150514
0.0149199
0.0145002
0.0138721
0.0131095
0.0122603
0.0113728
0.0104695
0.00958397
0.00872054
0.00790137
0.00711231
0.00636928
0.00564844
0.00497235
0.00431169
0.00369754
0.00309022
0.00252823
0.00195654
0.00142352
0.000853015
0.000312709
-0.151257
-0.160131
-0.164021
-0.1648
-0.164874
-0.16532
-0.166071
-0.166667
-0.166753
-0.166193
-0.16497
-0.163069
-0.160429
-0.156954
-0.152549
-0.147131
-0.140647
-0.133081
-0.12446
-0.114863
-0.104424
-0.0933315
-0.0818188
-0.0701537
-0.0586173
-0.0474856
-0.0370077
-0.0273904
-0.0187847
-0.0112811
-0.0049105
0.00034613
0.00454821
0.00778318
0.010156
0.0117849
0.0127887
0.0132864
0.0133815
0.013172
0.0127341
0.0121404
0.0114391
0.0106796
0.00988591
0.00909348
0.00830826
0.00755461
0.00682092
0.00612538
0.00544577
0.00480564
0.00417631
0.00358925
0.00300518
0.00246316
0.00190871
0.00139056
0.000834095
0.000305785
-0.139825
-0.14821
-0.152145
-0.153172
-0.15343
-0.153934
-0.154679
-0.155273
-0.155392
-0.154899
-0.153772
-0.152005
-0.149557
-0.146358
-0.142329
-0.137405
-0.131545
-0.124737
-0.117005
-0.108414
-0.0990729
-0.089136
-0.0787954
-0.0682736
-0.0578081
-0.047636
-0.0379773
-0.0290204
-0.0209105
-0.0137439
-0.00756656
-0.00237987
0.00185229
0.00519446
0.00772983
0.00955696
0.0107774
0.0114965
0.0118076
0.0118019
0.0115513
0.0111261
0.010574
0.00994497
0.00926425
0.00856853
0.00786522
0.00718095
0.00650613
0.00586121
0.0052256
0.00462387
0.00402809
0.00347009
0.00291125
0.00239086
0.00185549
0.00135361
0.000813022
0.00029797
-0.128897
-0.136743
-0.140625
-0.141827
-0.142239
-0.142804
-0.143555
-0.144161
-0.144327
-0.14392
-0.142914
-0.141311
-0.139084
-0.136178
-0.132533
-0.128096
-0.122836
-0.116743
-0.10984
-0.10218
-0.0938517
-0.0849802
-0.0757234
-0.0662652
-0.0568051
-0.0475458
-0.0386795
-0.0303763
-0.0227731
-0.0159681
-0.0100176
-0.004939
-0.000715817
0.00269623
0.00536046
0.00735688
0.00877045
0.00969299
0.0102073
0.0103969
0.0103287
0.0100701
0.00966723
0.00917022
0.00860485
0.0080089
0.00739094
0.00677963
0.0061671
0.00557586
0.00498704
0.00442619
0.00386625
0.00333935
0.00280779
0.00231078
0.00179645
0.00131237
0.000789573
0.00028926
-0.118548
-0.125784
-0.129531
-0.130848
-0.131384
-0.132003
-0.132765
-0.133389
-0.133609
-0.133299
-0.132432
-0.131012
-0.12902
-0.126416
-0.123154
-0.119192
-0.114504
-0.109085
-0.102953
-0.0961529
-0.0887564
-0.0808652
-0.0726081
-0.0641368
-0.0556177
-0.047223
-0.0391196
-0.031459
-0.0243683
-0.0179444
-0.01225
-0.00731474
-0.00313796
0.000307096
0.00306591
0.00520142
0.00678285
0.0078887
0.008591
0.00896527
0.00907259
0.00897672
0.00872179
0.00835718
0.00790874
0.00741495
0.00688535
0.00635017
0.00580312
0.0052685
0.00472928
0.0042118
0.00369005
0.00319634
0.00269421
0.0022224
0.00173116
0.00126654
0.000763519
0.000279637
-0.108738
-0.115356
-0.118925
-0.120306
-0.120936
-0.121598
-0.122369
-0.12301
-0.123286
-0.123077
-0.122355
-0.121127
-0.119377
-0.117076
-0.114189
-0.110683
-0.106537
-0.101749
-0.0963326
-0.0903247
-0.083784
-0.0767928
-0.0694559
-0.0618978
-0.0542568
-0.0466781
-0.0393051
-0.032272
-0.0256947
-0.0196664
-0.014253
-0.00949271
-0.00539746
-0.00195516
0.000864036
0.00310761
0.00483013
0.00609725
0.00697028
0.00751639
0.00779037
0.00785169
0.00774173
0.00750858
0.00717763
0.00678762
0.00634874
0.00589241
0.00541375
0.00493853
0.00445167
0.00398
0.00349884
0.00304042
0.00256994
0.00212522
0.00165919
0.00121584
0.000734628
0.000269073
-0.09948
-0.105502
-0.108861
-0.11026
-0.110953
-0.111643
-0.112417
-0.113074
-0.113404
-0.113295
-0.112722
-0.111677
-0.110165
-0.108161
-0.105636
-0.102564
-0.0989278
-0.0947256
-0.0899699
-0.08469
-0.0789334
-0.0727667
-0.0662749
-0.0595597
-0.0527352
-0.0459232
-0.0392463
-0.0328216
-0.0267539
-0.0211307
-0.0160185
-0.011461
-0.00747952
-0.00407398
-0.00122795
0.00109241
0.00292822
0.00433304
0.00535765
0.0060608
0.00649056
0.00670163
0.00673207
0.00662805
0.00641402
0.00612846
0.00578192
0.00540654
0.00499793
0.00458568
0.00415375
0.00373025
0.00329203
0.00287104
0.00243444
0.0020188
0.00158014
0.00116001
0.000702686
0.000257531
-0.0908102
-0.0962466
-0.0993666
-0.100748
-0.101477
-0.102181
-0.10295
-0.103616
-0.103992
-0.103975
-0.103535
-0.102673
-0.101392
-0.099675
-0.0974949
-0.0948302
-0.0916687
-0.0880084
-0.0838597
-0.0792463
-0.0742061
-0.0687926
-0.0630747
-0.0571349
-0.051067
-0.0449726
-0.0389555
-0.0331171
-0.0275507
-0.0223372
-0.0175416
-0.0132103
-0.0093716
-0.00603454
-0.00319392
-0.000827759
0.00109305
0.00261086
0.00376636
0.00460992
0.00518273
0.00553429
0.00569884
0.00572014
0.00562119
0.00543977
0.00518634
0.0048934
0.00455818
0.00421011
0.00383531
0.00346217
0.0030692
0.00268775
0.00228727
0.00190277
0.00149365
0.00109883
0.000667499
0.00024497
-0.0827166
-0.0875846
-0.0904522
-0.09179
-0.092534
-0.0932391
-0.0939963
-0.0946632
-0.0950758
-0.0951403
-0.0948274
-0.0941374
-0.0930736
-0.0916235
-0.0897652
-0.0874796
-0.0847559
-0.081593
-0.0779992
-0.0739931
-0.069605
-0.0648776
-0.059866
-0.0546373
-0.049268
-0.0438422
-0.0384472
-0.03317
-0.0280928
-0.0232891
-0.0188207
-0.0147348
-0.0110639
-0.00782414
-0.00501932
-0.00263741
-0.000659849
0.000945554
0.00221004
0.00317585
0.00387726
0.00435832
0.00464909
0.00479035
0.0048033
0.00472451
0.00456413
0.00435449
0.00409392
0.00381192
0.00349635
0.00317564
0.00283009
0.00249027
0.00212808
0.00177683
0.00139941
0.00103209
0.000628911
0.000231344
-0.0751747
-0.0795104
-0.082125
-0.0834009
-0.0841425
-0.084838
-0.0855758
-0.0862363
-0.0866762
-0.0868106
-0.0866119
-0.0860792
-0.085217
-0.0840123
-0.0824488
-0.0805104
-0.078187
-0.0754772
-0.0723874
-0.0689321
-0.0651351
-0.0610301
-0.0566611
-0.0520821
-0.0473552
-0.0425496
-0.037738
-0.0329947
-0.0283909
-0.0239927
-0.0198574
-0.0160313
-0.0125494
-0.0094326
-0.00669157
-0.00432248
-0.0023158
-0.000648321
0.000702507
0.00177119
0.00258524
0.00318318
0.00359066
0.0038451
0.00396539
0.0039865
0.00391806
0.00379176
0.00360646
0.00339183
0.00313724
0.00287079
0.00257465
0.00227847
0.00195666
0.00164078
0.00129722
0.000959649
0.000586802
0.000216614
-0.068175
-0.0720167
-0.0743826
-0.0755835
-0.0763088
-0.0769858
-0.0776978
-0.0783452
-0.0788036
-0.0789972
-0.0788997
-0.07851
-0.0778235
-0.0768408
-0.0755452
-0.0739214
-0.0719603
-0.06966
-0.0670249
-0.0640663
-0.0608025
-0.0572599
-0.0534732
-0.0494853
-0.0453467
-0.0411136
-0.0368464
-0.0326075
-0.0284584
-0.0244573
-0.0206567
-0.0171005
-0.0138245
-0.0108525
-0.00820042
-0.00587071
-0.0038614
-0.00215699
-0.000742742
0.000408691
0.0013183
0.00201905
0.00253215
0.00289144
0.00311328
0.00323045
0.00325157
0.00320763
0.00309784
0.0029513
0.0027588
0.0025481
0.00230309
0.00205241
0.00177297
0.00149455
0.00118694
0.000881411
0.000541102
0.000200752
-0.061703
-0.0650871
-0.0672122
-0.0683304
-0.0690296
-0.0696813
-0.0703629
-0.0709913
-0.071459
-0.0716987
-0.0716859
-0.0714165
-0.0708898
-0.070105
-0.06905
-0.0677098
-0.0660743
-0.064141
-0.0619135
-0.0594001
-0.0566149
-0.0535779
-0.0503163
-0.0468641
-0.0432616
-0.0395545
-0.0357923
-0.032027
-0.0283112
-0.0246953
-0.0212266
-0.017946
-0.0148886
-0.0120796
-0.00953827
-0.00727204
-0.0052849
-0.00356783
-0.0021129
-0.000899221
8.81442e-05
0.00087672
0.00148311
0.00193739
0.00225336
0.00246145
0.00256886
0.00260542
0.00257047
0.0024921
0.00236228
0.00220839
0.00201594
0.00181242
0.00157715
0.00133819
0.00106857
0.000797357
0.000491791
0.00018374
-0.0557331
-0.0586987
-0.0605959
-0.0616284
-0.0622952
-0.0629171
-0.0635648
-0.0641694
-0.0646386
-0.0649129
-0.064969
-0.0648032
-0.064415
-0.063808
-0.0629646
-0.061874
-0.0605272
-0.0589205
-0.0570555
-0.0549386
-0.0525803
-0.0499956
-0.0472053
-0.0442361
-0.04112
-0.0378935
-0.034597
-0.0312735
-0.0279672
-0.0247216
-0.0215784
-0.0185749
-0.0157445
-0.0131125
-0.0107004
-0.00851885
-0.00657655
-0.00486968
-0.00339614
-0.00214072
-0.00109399
-0.000233389
0.000453267
0.000991981
0.00139351
0.00168572
0.0018748
0.00198903
0.00202717
0.00201631
0.00194935
0.00185295
0.00171408
0.00155911
0.0013696
0.00117196
0.000942264
0.000707558
0.000438908
0.000165584
-0.0502406
-0.0528278
-0.0545131
-0.0554599
-0.0560903
-0.0566795
-0.0572912
-0.0578686
-0.0583331
-0.058633
-0.0587479
-0.0586744
-0.058411
-0.0579457
-0.0572836
-0.0564117
-0.0553185
-0.0539991
-0.0524539
-0.0506875
-0.0487075
-0.046525
-0.0441555
-0.0416195
-0.0389421
-0.0361523
-0.0332828
-0.0303686
-0.0274466
-0.0245536
-0.0217261
-0.0189971
-0.0163981
-0.0139533
-0.0116851
-0.00960628
-0.00772892
-0.00605325
-0.00458195
-0.00330465
-0.00221694
-0.00130088
-0.000548358
6.31474e-05
0.000541379
0.000910893
0.00117594
0.0013632
0.00147144
0.00152677
0.0015222
0.00148343
0.00139875
0.00129338
0.00115096
0.000996311
0.000808314
0.000612199
0.00038256
0.000146311
-0.0452026
-0.0474497
-0.0489396
-0.0498032
-0.0503951
-0.0509503
-0.051525
-0.0520729
-0.0525271
-0.052843
-0.053002
-0.0529996
-0.0528341
-0.0525011
-0.0519986
-0.0513153
-0.0504429
-0.0493753
-0.0481107
-0.0466522
-0.0450053
-0.0431782
-0.0411822
-0.0390325
-0.0367486
-0.0343534
-0.0318728
-0.0293352
-0.0267709
-0.0242106
-0.021686
-0.0192258
-0.0168585
-0.0146071
-0.0124938
-0.0105324
-0.00873722
-0.00711146
-0.00566162
-0.00438129
-0.00327028
-0.00231486
-0.00151106
-0.000840086
-0.000296539
0.000141992
0.000477702
0.000734078
0.000908768
0.00102745
0.00108377
0.00110206
0.00107167
0.00101653
0.000922193
0.000811926
0.000667204
0.000511589
0.000322922
0.000125966
-0.040595
-0.0425381
-0.0438499
-0.0446343
-0.0451875
-0.0457083
-0.0462462
-0.0467633
-0.0472033
-0.0475279
-0.047721
-0.0477784
-0.0476987
-0.0474776
-0.0471053
-0.0465823
-0.0458995
-0.0450491
-0.0440282
-0.0428379
-0.0414823
-0.039967
-0.0383003
-0.0364931
-0.0345601
-0.032519
-0.0303903
-0.0281966
-0.0259626
-0.0237137
-0.0214766
-0.0192761
-0.0171377
-0.0150821
-0.0131311
-0.0112982
-0.00959943
-0.00803974
-0.00662859
-0.00536269
-0.00424546
-0.00326657
-0.00242526
-0.0017065
-0.00110865
-0.000612153
-0.000215477
0.000103986
0.000342508
0.000522592
0.000637603
0.000711655
0.000735086
0.000730311
0.000684668
0.000619833
0.000519675
0.000406233
0.000260296
0.000104645
-0.0363923
-0.0380659
-0.0392169
-0.0399274
-0.0404429
-0.0409302
-0.0414322
-0.0419181
-0.042341
-0.0426685
-0.0428861
-0.0429901
-0.0429783
-0.0428471
-0.0425912
-0.0422045
-0.0416821
-0.0410177
-0.0402071
-0.0392494
-0.0381467
-0.0369032
-0.0355248
-0.0340193
-0.0323971
-0.0306717
-0.0288591
-0.0269771
-0.0250457
-0.0230854
-0.0211185
-0.0191658
-0.01725
-0.0153894
-0.0136042
-0.0119077
-0.0103163
-0.00883611
-0.00747862
-0.00624286
-0.00513511
-0.00414824
-0.00328461
-0.00253129
-0.00188842
-0.00134045
-0.000889988
-0.000516186
-0.000221469
1.53647e-05
0.000186525
0.000314618
0.000390938
0.000436298
0.000439626
0.000420997
0.000366449
0.000296629
0.000194991
8.2418e-05
-0.0325717
-0.0340075
-0.0350147
-0.035657
-0.0361364
-0.0365915
-0.0370591
-0.0375142
-0.0379181
-0.0382435
-0.038478
-0.0386179
-0.0386613
-0.0386049
-0.0384425
-0.0381686
-0.037782
-0.0372765
-0.0366464
-0.0358889
-0.0350046
-0.0339965
-0.0328689
-0.0316271
-0.0302786
-0.028833
-0.0273024
-0.0257009
-0.0240443
-0.0223488
-0.0206332
-0.0189144
-0.0172122
-0.0155423
-0.0139234
-0.0123676
-0.0108913
-0.00950099
-0.00820948
-0.00701747
-0.00593345
-0.00495241
-0.0040794
-0.0033054
-0.00263302
-0.00204628
-0.00154713
-0.00111998
-0.00077402
-0.000486335
-0.000262788
-8.30051e-05
4.4305e-05
0.000138487
0.000190192
0.000217742
0.000209193
0.000183879
0.000127658
5.96671e-05
-0.0291117
-0.0303394
-0.031219
-0.0317996
-0.0322453
-0.0326703
-0.0331056
-0.0335314
-0.0339158
-0.034236
-0.0344817
-0.0346492
-0.0347367
-0.0347411
-0.0346576
-0.034481
-0.0342051
-0.0338289
-0.0333493
-0.032762
-0.0320646
-0.0312585
-0.030347
-0.0293339
-0.0282243
-0.0270247
-0.0257443
-0.0243933
-0.0229844
-0.0215301
-0.0200458
-0.0185452
-0.0170453
-0.015559
-0.0141036
-0.0126895
-0.0113327
-0.0100394
-0.00882329
-0.00768588
-0.00663727
-0.00567451
-0.00480443
-0.00401905
-0.00332378
-0.00270906
-0.00218131
-0.00171855
-0.00132246
-0.000983865