/*--------------------------------*- C++ -*----------------------------------*\
| =========                 |                                                 |
| \\      /  F ield         | OpenFOAM: The Open Source CFD Toolbox           |
|  \\    /   O peration     | Version:  2512                                  |
|   \\  /    A nd           | Website:  www.openfoam.com                      |
|    \\/     M anipulation  |                                                 |
\*---------------------------------------------------------------------------*/
FoamFile
{
    version     2.0;
    format      ascii;
    arch        "LSB;label=32;scalar=64";
    class       surfaceScalarField;
    location    "23";
    object      phi;
}
// * * * * * * * * * * * * * * * * * * * * * * * * * * * * * * * * * * * * * //

dimensions      [0 3 -1 0 0 0 0];

oriented        oriented;

internalField   nonuniform List<scalar> 
26232
(
4.23707e-05
0.000967682
-0.00101005
0.000331073
0.00190094
-0.00218964
0.00101169
0.00198352
-0.00266414
0.00222365
0.0012706
-0.00248256
0.00410739
-0.000205357
-0.00167839
0.00680557
-0.0024275
-0.000270672
0.0104585
-0.00538632
0.00173343
0.0151952
-0.0090711
0.00433433
0.0211211
-0.013459
0.00753317
0.0283025
-0.0185062
0.0113248
0.0367532
-0.0241419
0.0156911
0.0464242
-0.0302674
0.0205964
0.0571992
-0.0367595
0.0259845
0.0688977
-0.0434775
0.0317791
0.0812846
-0.0502733
0.0378864
0.0940864
-0.0570025
0.0442006
0.107011
-0.0635343
0.0506095
0.11977
-0.0697618
0.0570031
0.132099
-0.0756046
0.063276
0.143777
-0.0810288
0.06935
0.154635
-0.085994
0.0751365
0.164566
-0.0906083
0.0806771
0.173463
-0.0946763
0.0857797
-0.0988093
0.0913136
0.180958
8.42042e-05
0.000883478
0.000527946
0.0014572
0.00150647
0.001005
0.0031873
-0.00041023
0.0057355
-0.00275355
0.0093086
-0.0060006
0.0140454
-0.0101231
0.0200485
-0.0150743
0.0273658
-0.0207763
0.0359733
-0.0271137
0.0457661
-0.0339347
0.0565585
-0.0410598
0.0680949
-0.0482959
0.0800706
-0.0554532
0.0921583
-0.0623611
0.104038
-0.0688822
0.115425
-0.0749215
0.126095
-0.0804312
0.135899
-0.085409
0.144767
-0.0898972
0.152729
-0.0939555
0.159839
-0.0977185
0.166299
-0.101136
-0.104742
0.172231
0.000144386
0.000739092
0.000792456
0.00080913
0.00214678
-0.000349324
0.00439858
-0.00266203
0.00772635
-0.00608132
0.0122817
-0.010556
0.0181678
-0.0160092
0.025415
-0.0223215
0.0339619
-0.0293231
0.0436468
-0.0367986
0.0542153
-0.0445032
0.0653421
-0.0521867
0.0766653
-0.0596191
0.0878248
-0.0666126
0.0985007
-0.073037
0.108445
-0.0788266
0.117502
-0.0839788
0.125617
-0.0885457
0.132827
-0.092619
0.139245
-0.0963153
0.145039
-0.0997495
0.150375
-0.103055
0.155472
-0.106232
-0.109664
0.160394
0.000224771
0.000514321
0.00112879
-9.4886e-05
0.00293489
-0.00215543
0.00584582
-0.00557296
0.0100314
-0.0102669
0.0156019
-0.0161265
0.022578
-0.0229852
0.0308667
-0.0306102
0.0402554
-0.0387119
0.0504269
-0.0469701
0.0609954
-0.0550717
0.0715552
-0.0627465
0.0817321
-0.069796
0.0912273
-0.0761078
0.0998469
-0.0816566
0.107513
-0.0864926
0.114256
-0.0907218
0.120192
-0.0944816
0.12549
-0.0979168
0.130335
-0.101161
0.134905
-0.104319
0.139334
-0.107484
0.143755
-0.110653
-0.11407
0.148161
0.000325448
0.000188873
0.00153351
-0.00130294
0.00385416
-0.00447608
0.00748004
-0.00919884
0.0125379
-0.0153247
0.0190504
-0.022639
0.0269059
-0.0308407
0.035851
-0.0395553
0.0455142
-0.0483751
0.055457
-0.0569129
0.0652388
-0.0648535
0.0744806
-0.0719883
0.0829115
-0.0782269
0.0903922
-0.0835885
0.0969126
-0.088177
0.102567
-0.0921475
0.107519
-0.0956731
0.111955
-0.0989177
0.116055
-0.102017
0.119969
-0.105074
0.123804
-0.108155
0.127626
-0.111306
0.131494
-0.11452
-0.117952
0.135375
0.000444989
-0.000256116
0.00199612
-0.00285408
0.00486983
-0.00734979
0.00921672
-0.0135457
0.0150764
-0.0211844
0.0223357
-0.0298983
0.0307159
-0.039221
0.0398016
-0.048641
0.0491068
-0.0576802
0.0581579
-0.0659639
0.0665694
-0.073265
0.0740933
-0.0795122
0.0806342
-0.0847677
0.0862318
-0.0891862
0.0910223
-0.0929675
0.0951904
-0.0963156
0.0989261
-0.0994088
0.102394
-0.102386
0.10572
-0.105344
0.10899
-0.108344
0.112257
-0.111421
0.115547
-0.114597
0.118893
-0.117866
-0.121312
0.122253
0.000580346
-0.000836462
0.00249873
-0.00477246
0.00592906
-0.0107801
0.0109396
-0.0185563
0.0174364
-0.0276812
0.025136
-0.0375979
0.0335922
-0.0476771
0.0422746
-0.0573235
0.0506715
-0.0660772
0.0583805
-0.0736729
0.0651616
-0.0800462
0.0709455
-0.0852961
0.075803
-0.0896253
0.0798945
-0.0932776
0.0834147
-0.0964877
0.0865498
-0.0994507
0.0894522
-0.102311
0.0922322
-0.105166
0.0949621
-0.108073
0.0976855
-0.111067
0.100427
-0.114163
0.103199
-0.117369
0.106015
-0.120681
-0.124138
0.108841
0.000726534
-0.001563
0.00301568
-0.0070616
0.00696297
-0.0147274
0.0125109
-0.0241042
0.0193961
-0.0345663
0.0271599
-0.0453618
0.0352323
-0.0557495
0.0430537
-0.0651449
0.0501864
-0.0732099
0.0563771
-0.0798636
0.0615617
-0.0852308
0.0658253
-0.0895597
0.0693406
-0.0931406
0.0723076
-0.0962446
0.0749103
-0.0990904
0.0772938
-0.101834
0.0795599
-0.104577
0.0817734
-0.107379
0.0839725
-0.110273
0.0861785
-0.113273
0.0884025
-0.116387
0.0906491
-0.119615
0.0929235
-0.122956
-0.126416
0.0952016
0.000876292
-0.00243929
0.00351434
-0.00969965
0.0078922
-0.0191053
0.0137894
-0.0300014
0.0207604
-0.0415374
0.0282058
-0.0528071
0.0355089
-0.0630526
0.0421743
-0.0718103
0.0479086
-0.0789441
0.0526294
-0.0845845
0.0564197
-0.089021
0.0594564
-0.0925963
0.0619439
-0.0956281
0.0640673
-0.0983681
0.06597
-0.100993
0.0677504
-0.103615
0.0694698
-0.106297
0.0711635
-0.109073
0.0728506
-0.11196
0.0745414
-0.114964
0.0762406
-0.118086
0.0779505
-0.121325
0.0796717
-0.124677
-0.128134
0.0813891
0.00102022
-0.00345951
0.00395766
-0.0126371
0.00863661
-0.0237842
0.0146526
-0.0360174
0.0213976
-0.0482824
0.0281963
-0.0596058
0.0344725
-0.0693289
0.0398618
-0.0771996
0.0442363
-0.0833186
0.0476582
-0.0880063
0.0503005
-0.0916634
0.0523715
-0.0946674
0.0540614
-0.0973179
0.0555168
-0.0998235
0.0568374
-0.102314
0.0580843
-0.104862
0.0592921
-0.107504
0.0604791
-0.11026
0.0616553
-0.113136
0.0628257
-0.116134
0.0639926
-0.119253
0.0651567
-0.122489
0.0663164
-0.125836
-0.129281
0.0674635
0.0011481
-0.00460762
0.00430963
-0.0157986
0.00912823
-0.0286028
0.0150181
-0.0419072
0.0212578
-0.0545222
0.027175
-0.0655229
0.0323015
-0.0744554
0.0364308
-0.0813289
0.0395804
-0.0864682
0.0419078
-0.0903337
0.0436224
-0.093378
0.0449224
-0.0959674
0.0459629
-0.0983584
0.0468494
-0.10071
0.0476462
-0.103111
0.0483889
-0.105604
0.0490964
-0.108212
0.0497786
-0.110942
0.0504411
-0.113798
0.0510866
-0.11678
0.0517164
-0.119883
0.0523299
-0.123103
0.0529239
-0.126431
-0.129852
0.0534947
0.0012528
-0.00586041
0.00454333
-0.0190891
0.00932302
-0.0333825
0.0148545
-0.0474388
0.0203713
-0.060039
0.0252742
-0.0704258
0.029239
-0.0784202
0.0322063
-0.0842961
0.0342982
-0.0885602
0.0357185
-0.0917539
0.0366743
-0.0943338
0.0373334
-0.0966265
0.0378121
-0.098837
0.0381813
-0.101079
0.0384804
-0.10341
0.0387295
-0.105853
0.0389391
-0.108422
0.0391148
-0.111118
0.03926
-0.113944
0.0393769
-0.116897
0.0394663
-0.119972
0.0395276
-0.123164
0.0395576
-0.126461
0.0395561
-0.12985
-0.000241552
9.82671e-05
0.000143285
-0.000839567
0.00021958
0.000378435
-0.00171805
0.000300291
0.000578193
-0.00282148
0.0003566
0.00074683
-0.0041083
0.000397815
0.000889003
-0.00554802
0.000429366
0.00101035
-0.007119
0.000454058
0.00111693
-0.00880656
0.000473063
0.0012145
-0.0106013
0.000486775
0.00130799
-0.0124978
0.000495418
0.00140108
-0.0144933
0.000499409
0.00149608
-0.0165868
0.000499535
0.00159398
-0.0187784
0.000497014
0.00169457
-0.0210687
0.000493541
0.00179674
-0.0234586
0.00049136
0.00189856
-0.0259496
0.000493414
0.00199754
-0.0285438
0.000503567
0.00209063
-0.0312451
0.000526933
0.00217438
-0.0340604
0.00057028
0.00224505
-0.0370014
0.000642235
0.00229877
-0.0400858
0.000752751
0.00233167
-0.043339
0.00091348
0.00233973
-0.0468017
0.00114414
0.0023185
0.00147204
-0.0505392
0.00226545
-0.000231779
0.000330046
-0.000807352
0.000795152
-0.00165314
0.00114608
-0.00271409
0.00141756
-0.00394821
0.00163193
-0.00532396
0.00180511
-0.00681824
0.00194834
-0.00841459
0.00206941
-0.0101015
0.00217372
-0.0118712
0.00226508
-0.0137181
0.0023463
-0.0156381
0.00241954
-0.0176277
0.00248661
-0.0196833
0.00254918
-0.0218011
0.00260915
-0.0239767
0.00266895
-0.0262052
0.00273209
-0.0284821
0.00280384
-0.030804
0.00289219
-0.0331707
0.00300895
-0.0355879
0.00316993
-0.0380689
0.0033945
-0.0406391
0.00371431
0.00419092
-0.043358
-0.000206881
0.000536928
-0.000724758
0.00131303
-0.00148713
0.00190845
-0.00244164
0.00237207
-0.00354651
0.0027368
-0.00476875
0.00302736
-0.00608262
0.00326221
-0.00746803
0.00345482
-0.00890914
0.00361483
-0.010393
0.00374897
-0.0119085
0.00386179
-0.0134452
0.00395619
-0.0149924
0.00403384
-0.0165388
0.00409562
-0.0180716
0.00414195
-0.019576
0.00417336
-0.021035
0.00419105
-0.0224289
0.00419771
-0.0237355
0.00419885
-0.0249315
0.00420494
-0.0259957
0.00423409
-0.0269141
0.00431296
-0.0276807
0.00448085
0.00482752
-0.0283173
-0.000171226
0.000708154
-0.000605211
0.00174701
-0.0012453
0.00254854
-0.00204319
0.00316995
-0.00295777
0.00365139
-0.00395443
0.00402401
-0.00500403
0.00431181
-0.00608181
0.0045326
-0.00716618
0.0046992
-0.00823761
0.00482039
-0.00927754
0.00490172
-0.0102675
0.00494614
-0.0111882
0.00495455
-0.0120189
0.00492631
-0.0127366
0.00485969
-0.0133155
0.00475226
-0.013726
0.00460149
-0.0139337
0.00440538
-0.0138983
0.00416349
-0.0135725
0.00387913
-0.0129024
0.00356405
-0.0118346
0.00324507
-0.0103246
0.00297092
0.00286735
-0.00836445
-0.000130576
0.000838729
-0.000466459
0.0020829
-0.000961102
0.00304318
-0.0015704
0.00377925
-0.00225398
0.00433497
-0.00297547
0.00474551
-0.00370209
0.00503842
-0.00440392
0.00523443
-0.00505304
0.00534833
-0.0056226
0.00538995
-0.00608589
0.00536501
-0.00641554
0.00527579
-0.00658283
0.00512184
-0.00655702
0.0049005
-0.00630474
0.00460741
-0.00578939
0.00423691
-0.00497033
0.00378244
-0.00380189
0.00323694
-0.00223177
0.00259338
-0.000198414
0.00184577
0.00237309
0.000992542
0.00557241
4.57568e-05
0.00949453
-0.000951202
-0.00188192
0.0142438
-9.08362e-05
0.000929566
-0.00032683
0.00231889
-0.000669188
0.00338554
-0.00107681
0.00418687
-0.00150947
0.00476763
-0.00192868
0.00516471
-0.00229773
0.00540748
-0.00258128
0.00551798
-0.00274464
0.00551169
-0.002753
0.00539832
-0.00257067
0.00518267
-0.00216032
0.00486544
-0.00148242
0.00444394
-0.000494685
0.00391276
0.000848355
0.00326437
0.0025957
0.00248957
0.00480019
0.00157794
0.00751884
0.000518291
0.0108133
-0.000701115
0.0147512
-0.00209211
0.0194095
-0.00366571
0.0248861
-0.00543084
0.0312603
-0.0073254
-0.00952963
0.038908
-5.68478e-05
0.000986413
-0.000201418
0.00246346
-0.000398117
0.00358224
-0.000606339
0.00439509
-0.000784454
0.00494574
-0.000890855
0.00527111
-0.000884056
0.00540068
-0.000722304
0.00535623
-0.000362923
0.0051523
0.00023842
0.00479698
0.00112845
0.00429265
0.0023569
0.00363699
0.00397703
0.00282381
0.00604593
0.00184386
0.00862459
0.000685712
0.0117777
-0.000663577
0.0155733
-0.00221766
0.0200817
-0.0039901
0.0253745
-0.00599386
0.0315232
-0.00824086
0.0385923
-0.0107348
0.0466853
-0.0135239
0.0557494
-0.0163895
-0.0201958
0.0664156
-3.13948e-05
0.00101781
-9.88443e-05
0.00253091
-0.000163911
0.00364731
-0.000182773
0.00441396
-0.000109795
0.00487277
0.00010197
0.00505935
0.000500996
0.00500165
0.00113791
0.00471931
0.00206626
0.00422396
0.00334325
0.00351998
0.00503033
0.00260556
0.00719374
0.00147359
0.00990406
0.000113489
0.0132364
-0.00148843
0.0172687
-0.00334663
0.022081
-0.00547588
0.0277528
-0.00788949
0.0343608
-0.0105981
0.0419751
-0.0136082
0.0506592
-0.016925
0.0604443
-0.0205198
0.071428
-0.0245076
0.0833844
-0.0283459
-0.0338607
0.0970494
-1.46019e-05
0.00103241
-1.90793e-05
0.00253539
3.43876e-05
0.00359384
0.000197382
0.00425096
0.000523657
0.00454649
0.00106924
0.00451376
0.00189355
0.00417735
0.00306037
0.00355249
0.00463873
0.0026456
0.00670336
0.00145535
0.00933421
-2.52882e-05
0.012617
-0.00180921
0.0166399
-0.00390939
0.0214921
-0.00634063
0.0272608
-0.0091153
0.0340268
-0.012242
0.0418609
-0.0157236
0.0508187
-0.0195559
0.0609359
-0.0237254
0.0722286
-0.0282176
0.084667
-0.0329583
0.0982704
-0.038111
0.112758
-0.0428333
-0.0496924
0.128589
-3.88421e-06
0.00103629
4.65557e-05
0.00248495
0.000215172
0.00342522
0.000566767
0.00389937
0.00116795
0.00394531
0.00208911
0.0035926
0.003406
0.00286045
0.00520088
0.00175761
0.0075627
0.000283787
0.0105863
-0.00156823
0.0143705
-0.00380955
0.0190138
-0.0064525
0.0246112
-0.00950676
0.0312474
-0.0129768
0.0389913
-0.0168592
0.04789
-0.0211407
0.0579634
-0.0257969
0.0692002
-0.0307927
0.0815561
-0.0360813
0.0949514
-0.0416129
0.109277
-0.0472843
0.124383
-0.0532165
0.140115
-0.0585654
-0.0658386
0.156261
5.71391e-06
0.00103058
0.000114762
0.0023759
0.000412655
0.00312733
0.000982679
0.00332934
0.0019102
0.00301779
0.00328565
0.00221716
0.00520618
0.000939923
0.00777575
-0.000811963
0.0111033
-0.00304379
0.0152986
-0.00576348
0.0204662
-0.00897717
0.026698
-0.0126843
0.0340648
-0.0168736
0.0426083
-0.0215202
0.0523335
-0.0265844
0.0632044
-0.0320116
0.0751417
-0.0377343
0.0880243
-0.0436753
0.101694
-0.0497506
0.115961
-0.0558806
0.130639
-0.0619621
0.145454
-0.0680309
0.160432
-0.0735442
-0.0800889
0.174683
2.05276e-05
0.000206785
0.000669977
0.00151676
0.00285616
0.00480264
0.00747599
0.0109984
0.0154877
0.021049
0.027763
0.0356751
0.0447861
0.0550449
0.0663469
0.0785359
0.0914112
0.104739
0.118264
0.131734
0.144908
0.157554
0.16979
0.181015
-0.0534223
-2.95183e-05
0.00291265
-0.0562762
0.000219721
0.00263416
-0.0590756
0.000569438
0.00222995
-0.0617798
0.00101703
0.00168717
-0.0643293
0.00155611
0.00099338
-0.0666399
0.00218298
0.000127623
-0.0686648
0.002866
-0.000841121
-0.0702837
0.00359154
-0.00197265
-0.0714009
0.00431261
-0.0031954
-0.0718996
0.00497703
-0.00447832
-0.0716538
0.00552104
-0.00576678
-0.0705347
0.005875
-0.00699418
-0.0684202
0.00596819
-0.00808261
-0.0651893
0.00570535
-0.00893626
-0.0606932
0.00494708
-0.00944324
-0.0549359
0.0037917
-0.00954894
-0.0478211
0.00201337
-0.00912818
-0.039315
-0.000352621
-0.00815349
-0.0295508
-0.00311894
-0.00664524
-0.0186204
-0.00624885
-0.00468153
-0.00669156
-0.00957684
-0.00235203
0.00592909
-0.0126938
7.3139e-05
0.0189701
-0.015353
0.002312
0.0320959
-0.0172975
0.0041717
0.0449986
-0.0183422
0.00543948
0.0574261
-0.0184236
0.00599607
0.0691989
-0.0176008
0.00582795
0.0802132
-0.0159956
0.00498127
0.0904279
-0.0138136
0.00359887
0.0998376
-0.0111989
0.00178931
0.108458
-0.00838529
-0.000235112
0.116318
-0.00543253
-0.00242789
0.123452
-0.00260441
-0.00452948
0.129898
0.000161298
-0.0066071
0.135703
0.00253956
-0.00834429
0.140894
0.00481354
-0.0100052
0.145539
0.00650852
-0.0111528
0.14967
0.00813379
-0.0122648
0.153341
0.00913055
-0.0128015
0.156603
0.0101731
-0.0134352
0.159508
0.01056
-0.0134649
0.162101
0.0112513
-0.0138447
0.16443
0.0112386
-0.0135669
0.166535
0.0118666
-0.0139719
0.168465
0.0116215
-0.013552
0.170256
0.0124387
-0.0142291
0.171925
0.012176
-0.0138452
0.173458
0.0134472
-0.0149806
0.174822
0.013352
-0.014716
0.175971
0.0151625
-0.0163117
0.176878
0.0151425
-0.0160494
0.177526
0.0174979
-0.0181452
0.17793
0.0174871
-0.0178911
0.178109
0.0205243
-0.0207037
0.178104
0.020662
-0.0206568
0.17794
0.024517
-0.0243533
0.177662
0.024888
-0.0246096
0.177279
0.0296984
-0.0293153
0.176835
0.0303513
-0.0299073
0.0362543
-0.0357316
-0.0458746
0.0024871
-0.0484368
0.00278195
-0.0509396
0.00307222
-0.0533477
0.00342517
-0.0556018
0.00381018
-0.057629
0.00421013
-0.0593555
0.00459255
-0.0606819
0.00491794
-0.0615035
0.0051342
-0.0617017
0.0051752
-0.0611473
0.00496664
-0.0597114
0.00443914
-0.0572805
0.00353732
-0.0537429
0.00216774
-0.0488494
5.35274e-05
-0.0428536
-0.0022041
-0.0355939
-0.00524634
-0.0270701
-0.00887637
-0.0172435
-0.0129455
-0.00632167
-0.0171707
0.00534303
-0.0212415
0.0175557
-0.0249065
0.0300343
-0.0278316
0.0424288
-0.029692
0.0544324
-0.0303458
0.0658129
-0.0298041
0.0764313
-0.0282192
0.0862355
-0.0257997
0.0952404
-0.0228186
0.103492
-0.0194503
0.111048
-0.0159419
0.117973
-0.0123567
0.124324
-0.0089558
0.130145
-0.00566006
0.135469
-0.00278417
0.140312
-2.88972e-05
0.144737
0.0020831
0.148744
0.0041266
0.152367
0.00550753
0.155635
0.00690511
0.158581
0.0076142
0.161237
0.00859569
0.163637
0.00883829
0.165818
0.0096857
0.167824
0.00961561
0.16969
0.0105723
0.171436
0.0104301
0.173047
0.0118359
0.174488
0.0119111
0.17571
0.013941
0.176682
0.0141701
0.177386
0.0167945
0.177837
0.0170354
0.178055
0.0203064
0.178083
0.0206342
0.177946
0.0246542
0.177691
0.0251423
0.177328
0.0300621
0.176903
0.0307763
0.0367625
-0.030072
0.00424182
-0.0319184
0.0046283
-0.0337209
0.00487475
-0.0354408
0.00514504
-0.0370279
0.00539737
-0.0384092
0.00559138
-0.0395095
0.00569283
-0.0402456
0.00565406
-0.0405161
0.0054047
-0.0402071
0.00486621
-0.039194
0.00395358
-0.0373521
0.00259722
-0.034485
0.000670217
-0.0306649
-0.00165241
-0.0259484
-0.0046629
-0.0199252
-0.00822733
-0.0127145
-0.0124571
-0.00434067
-0.0172502
0.00494823
-0.0222344
0.0151025
-0.027325
0.0259827
-0.0321218
0.0373037
-0.0362275
0.0487162
-0.0392441
0.0598946
-0.0408705
0.0705577
-0.0410088
0.0805032
-0.0397496
0.0896244
-0.0373404
0.0979023
-0.0340777
0.105387
-0.0303033
0.112163
-0.0262262
0.11832
-0.0220992
0.12395
-0.0179865
0.12913
-0.0141356
0.133921
-0.0104516
0.138365
-0.00722794
0.142509
-0.00417284
0.146326
-0.00173365
0.149861
0.000591753
0.153118
0.00225044
0.156108
0.00391517
0.158841
0.00488139
0.161334
0.00610185
0.16361
0.00656249
0.165694
0.00760208
0.167622
0.00768746
0.169428
0.00876672
0.171129
0.00872842
0.172714
0.0102513
0.174146
0.0104787
0.175375
0.012712
0.176369
0.0131763
0.177103
0.0160604
0.177593
0.016545
0.177854
0.0200463
0.177928
0.0205599
0.177837
0.0247447
0.177632
0.0253476
0.177316
0.0303784
0.17694
0.0311523
0.0372243
-0.00905427
0.00493165
-0.00994282
0.00551684
-0.0108326
0.0057645
-0.0116487
0.0059612
-0.0123635
0.00611215
-0.0129229
0.00615078
-0.0132478
0.00601772
-0.013258
0.00566429
-0.012886
0.00503268
-0.0120213
0.00400149
-0.0105543
0.00248664
-0.00826877
0.000311638
-0.0053717
-0.00222685
-0.00155229
-0.00547182
0.00307433
-0.00928952
0.00865407
-0.0138071
0.0152014
-0.0190044
0.0226892
-0.0247379
0.0310922
-0.0306375
0.0402617
-0.0364944
0.0499786
-0.0418387
0.0599703
-0.0462191
0.0699346
-0.0492084
0.0795828
-0.0505186
0.0886755
-0.0501015
0.0970516
-0.0481257
0.104634
-0.0449232
0.111422
-0.0408655
0.117471
-0.0363518
0.122872
-0.0316274
0.127718
-0.0269457
0.132106
-0.0223741
0.136122
-0.0181514
0.139839
-0.0141689
0.143306
-0.0106948
0.146571
-0.00743771
0.149642
-0.00480443
0.152528
-0.00229422
0.155212
-0.000434422
0.157734
0.00139321
0.160073
0.00254239
0.162236
0.00393882
0.164233
0.00456551
0.16608
0.0057559
0.167803
0.0059644
0.169431
0.00713827
0.170983
0.00717651
0.172448
0.00878641
0.173794
0.00913315
0.174969
0.0115364
0.175942
0.0122035
0.176682
0.0153201
0.177202
0.016025
0.177508
0.0197405
0.177641
0.0204265
0.177617
0.0247691
0.177485
0.0254798
0.177244
0.0306196
0.176947
0.0314493
0.0376076
0.014422
0.00475341
0.0144399
0.00549898
0.0144274
0.00577704
0.0144906
0.00589792
0.0146383
0.0059645
0.0148962
0.0058929
0.0153201
0.0055938
0.0159796
0.00500475
0.0169355
0.00407683
0.0182393
0.00269772
0.0200615
0.000664348
0.0222556
-0.00188242
0.0251093
-0.00508054
0.0286083
-0.00897078
0.0328553
-0.0135366
0.0378868
-0.0188385
0.0436881
-0.0248057
0.0502227
-0.0312725
0.0574748
-0.0378897
0.0652942
-0.0443138
0.0734922
-0.0500368
0.0818282
-0.054555
0.0900506
-0.0574309
0.0979311
-0.0583991
0.105296
-0.0574662
0.112041
-0.0548709
0.118128
-0.05101
0.123566
-0.0463035
0.128401
-0.0411865
0.132703
-0.0359297
0.136542
-0.0307848
0.139988
-0.0258207
0.143114
-0.0212767
0.145981
-0.0170366
0.148644
-0.0133577
0.15115
-0.00994357
0.153512
-0.00716618
0.155754
-0.00453633
0.15789
-0.0025706
0.159874
-0.000590837
0.161762
0.000655025
0.163527
0.00217335
0.165176
0.0029168
0.166715
0.00421662
0.168165
0.00451393
0.169551
0.00575296
0.17089
0.0058378
0.172175
0.00750043
0.173383
0.0079261
0.174463
0.0104556
0.175386
0.011281
0.176116
0.01459
0.176661
0.0154799
0.177018
0.0193833
0.177225
0.0202202
0.177286
0.0247073
0.177251
0.0255148
0.177113
0.0307583
0.176924
0.031638
0.0378806
0.039348
0.00431342
0.0398045
0.00504244
0.0403169
0.00526461
0.0409494
0.00526548
0.0416873
0.00522653
0.0425345
0.00504577
0.0435204
0.00460789
0.0446809
0.00384422
0.0460709
0.0026868
0.047723
0.0010456
0.0496167
-0.00122927
0.0518645
-0.00413024
0.0545259
-0.00774196
0.0576677
-0.0121126
0.0613672
-0.0172361
0.0656399
-0.0231112
0.0704864
-0.0296522
0.0758746
-0.0366607
0.0817634
-0.0437785
0.0880227
-0.0505731
0.0944816
-0.0564956
0.100943
-0.0610163
0.107223
-0.0637106
0.113175
-0.0643518
0.118712
-0.0630029
0.123799
-0.0599576
0.128439
-0.0556502
0.132652
-0.0505169
0.136468
-0.0450023
0.139923
-0.0393842
0.143051
-0.0339131
0.145879
-0.0286487
0.148443
-0.0238407
0.15078
-0.0193738
0.152929
-0.0155062
0.154925
-0.0119401
0.156793
-0.00903419
0.158556
-0.00629959
0.160222
-0.00423601
0.161805
-0.00217376
0.163282
-0.000822646
0.164687
0.000769228
0.166011
0.00159215
0.167255
0.0029733
0.168435
0.00333302
0.169573
0.00461502
0.170689
0.00472211
0.171782
0.00640733
0.172836
0.00687272
0.173808
0.00948314
0.174671
0.0104176
0.175389
0.0138728
0.175963
0.0149056
0.176382
0.0189641
0.176677
0.019925
0.176846
0.0245387
0.176932
0.0254286
0.176923
0.0307673
0.176872
0.0316893
0.0380122
0.066401
0.00432797
0.0665925
0.00485094
0.0669914
0.00486575
0.0676169
0.00463995
0.0684173
0.00442615
0.0693882
0.00407483
0.0705346
0.00346148
0.0718587
0.00252017
0.0733761
0.00116938
0.0750988
-0.000677083
0.0769986
-0.00312911
0.0791297
-0.00626134
0.0815239
-0.0101361
0.0842137
-0.0148024
0.0872417
-0.0202641
0.0906316
-0.0265011
0.0943867
-0.0334074
0.0984754
-0.0407494
0.102844
-0.0481474
0.107384
-0.0551131
0.111951
-0.0610623
0.116404
-0.065469
0.120644
-0.0679505
0.124623
-0.0683311
0.128343
-0.0667233
0.131836
-0.0634505
0.135138
-0.0589523
0.13827
-0.0536485
0.141237
-0.0479693
0.144037
-0.0421844
0.14667
-0.0365461
0.149116
-0.0310948
0.151373
-0.0260974
0.153444
-0.0214449
0.155342
-0.0174046
0.157087
-0.0136846
0.158697
-0.0106439
0.160191
-0.00779427
0.161587
-0.00563125
0.16289
-0.00347732
0.164122
-0.00205491
0.165258
-0.000366609
0.166349
0.000501782
0.167372
0.00195039
0.168344
0.00236027
0.169284
0.00367542
0.170215
0.00379075
0.171144
0.00547815
0.172065
0.00595173
0.172945
0.00860309
0.173763
0.00960022
0.17448
0.0131555
0.175098
0.0142881
0.175596
0.018466
0.175999
0.0195215
0.176297
0.0242406
0.176529
0.0251964
0.176677
0.0306194
0.176792
0.0315747
0.0379715
0.0960757
0.00530166
0.0954425
0.00548411
0.0951464
0.00516191
0.0951516
0.00463473
0.0954152
0.00416247
0.0959441
0.00354597
0.096719
0.00268661
0.0977144
0.00152475
0.0989315
-4.77284e-05
0.100337
-0.00208237
0.101913
-0.00470572
0.103657
-0.00800535
0.105571
-0.0120496
0.107653
-0.0168845
0.109906
-0.0225173
0.112314
-0.0289093
0.114845
-0.0359381
0.117465
-0.0433692
0.120147
-0.05083
0.122819
-0.0577842
0.125386
-0.0636295
0.127786
-0.0678687
0.130014
-0.0701792
0.13212
-0.0704373
0.134182
-0.0687848
0.136273
-0.0655412
0.138439
-0.0611182
0.140685
-0.0558952
0.142986
-0.05027
0.1453
-0.0444985
0.147593
-0.038839
0.149811
-0.0333128
0.151918
-0.028204
0.153889
-0.023416
0.155714
-0.0192295
0.157391
-0.0153619
0.158928
-0.0121814
0.160338
-0.00920437
0.161635
-0.00692786
0.16283
-0.00467224
0.163935
-0.00315961
0.164972
-0.00140394
0.165929
-0.000455206
0.166834
0.00104522
0.167693
0.00150176
0.168515
0.00285288
0.169333
0.002973
0.170158
0.0046533
0.170995
0.00511405
0.171823
0.00777587
0.172626
0.00879672
0.17337
0.0124114
0.174055
0.0136034
0.174655
0.0178663
0.175189
0.0189869
0.175641
0.0237892
0.176044
0.0247933
0.176376
0.0302875
0.176684
0.0312662
0.0377284
0.126589
0.00730182
0.125001
0.00707288
0.123789
0.00637336
0.122828
0.00559569
0.122189
0.0048019
0.121884
0.00385083
0.121871
0.00269984
0.122119
0.00127624
0.122626
-0.000554357
0.12333
-0.00278632
0.124205
-0.00558135
0.125223
-0.00902282
0.126351
-0.0131776
0.127556
-0.0180899
0.128808
-0.0237688
0.130064
-0.0301651
0.131267
-0.0371416
0.132353
-0.0444555
0.133262
-0.0517386
0.133989
-0.0585114
0.134552
-0.0641925
0.134989
-0.0683054
0.13539
-0.0705808
0.135879
-0.0709257
0.136573
-0.0694792
0.137556
-0.0665236
0.138855
-0.0624171
0.140447
-0.0574872
0.14227
-0.0520936
0.144248
-0.0464766
0.146318
-0.040909
0.148411
-0.0354055
0.15046
-0.0302532
0.152421
-0.0253771
0.154268
-0.0210763
0.155983
-0.0170767
0.157563
-0.0137611
0.15901
-0.0106517
0.160335
-0.00825292
0.161545
-0.00588243
0.162659
-0.00427331
0.163686
-0.00243119
0.164652
-0.00142086
0.165529
0.000168112
0.166373
0.000657419
0.167171
0.00205511
0.167959
0.00218531
0.168753
0.00385867
0.169572
0.00429534
0.170401
0.00694727
0.171235
0.00796229
0.172043
0.0116032
0.172826
0.0128203
0.173556
0.017137
0.174247
0.0182954
0.174878
0.0231586
0.175478
0.0241935
0.17602
0.0297448
0.17655
0.0307363
0.0372534
0.153612
0.00995079
0.151409
0.00927581
0.149411
0.0083716
0.147599
0.00740825
0.146111
0.00628909
0.144937
0.00502545
0.144018
0.00361904
0.143369
0.00192523
0.143055
-0.000241206
0.142874
-0.00260459
0.142838
-0.00554513
0.142907
-0.00909185
0.143034
-0.0133053
0.143164
-0.0182194
0.143238
-0.0238431
0.143194
-0.0301208
0.142962
-0.0369103
0.142478
-0.0439711
0.141697
-0.0509575
0.14062
-0.0574341
0.139375
-0.0629481
0.138127
-0.0670568
0.137049
-0.0695027
0.136302
-0.0701786
0.136006
-0.0691834
0.136219
-0.0667372
0.136936
-0.0631341
0.1381
-0.0586508
0.139621
-0.0536148
0.141395
-0.0482507
0.143333
-0.0428471
0.145371
-0.0374434
0.147427
-0.0323094
0.149435
-0.027385
0.151357
-0.0229979
0.153165
-0.0188843
0.154848
-0.0154444
0.156401
-0.0122053
0.157831
-0.00968304
0.159141
-0.00719213
0.160346
-0.00547867
0.161462
-0.0035465
0.162501
-0.00245959
0.163468
-0.000799236
0.164365
-0.0002401
0.165222
0.00119849
0.166061
0.00134602
0.166901
0.00301872
0.167769
0.00342758
0.168659
0.00605776
0.169575
0.00704629
0.170489
0.0106883
0.171407
0.0119029
0.172297
0.0162468
0.173173
0.0174189
0.17401
0.0223221
0.174832
0.023371
0.175613
0.0289645
0.176391
0.0299581
0.0365179
0.172186
0.0124469
0.169906
0.0115564
0.167595
0.0106825
0.165445
0.00955864
0.163537
0.00819695
0.161853
0.00670926
0.160392
0.00507953
0.159125
0.00319256
0.157973
0.000910896
0.157036
-0.00166802
0.15615
-0.00465825
0.155311
-0.00825367
0.154459
-0.0124526
0.153521
-0.0172816
0.152431
-0.0227532
0.15112
-0.02881
0.149527
-0.0353168
0.147606
-0.0420503
0.145356
-0.0487074
0.142832
-0.0549105
0.140187
-0.0603028
0.137698
-0.0645678
0.13559
-0.0673946
0.134024
-0.068613
0.133099
-0.0682586
0.132841
-0.0664788
0.13321
-0.0635031
0.134123
-0.0595641
0.135475
-0.0549668
0.137148
-0.0499235
0.139039
-0.0447385
0.141065
-0.0394693
0.143161
-0.0344053
0.145249
-0.0294733
0.14728
-0.0250281
0.149214
-0.020819
0.151038
-0.0172678
0.152738
-0.0139058
0.15432
-0.0112644
0.15578
-0.00865257
0.157135
-0.00683355
0.158394
-0.0048053
0.159574
-0.00364033
0.160678
-0.00190267
0.161723
-0.00128566
0.162693
0.000229044
0.163651
0.000387751
0.164603
0.0020665
0.165584
0.00244737
0.166591
0.00504987
0.16764
0.00599804
0.168705
0.00962302
0.169794
0.0108139
0.170878
0.0151629
0.171968
0.0163284
0.173038
0.0212524
0.174109
0.0222998
0.175154
0.0279202
0.176206
0.0289054
0.0354941
0.179521
0.0139403
0.177654
0.0134238
0.175816
0.0125197
0.174012
0.0113627
0.172241
0.00996812
0.170539
0.00841154
0.168926
0.00669249
0.167373
0.00474513
0.165855
0.00242935
0.164519
-0.000331563
0.163087
-0.0032272
0.161595
-0.00676119
0.159983
-0.0108407
0.158203
-0.0155011
0.156197
-0.0207473
0.153915
-0.0265287
0.15133
-0.0327315
0.148446
-0.0391657
0.145314
-0.0455762
0.142047
-0.051643
0.138783
-0.0570387
0.135687
-0.0614722
0.132967
-0.0646741
0.130842
-0.0664878
0.129447
-0.0668644
0.128796
-0.0658277
0.12884
-0.0635472
0.129492
-0.0602156
0.130645
-0.0561197
0.13218
-0.0514587
0.133992
-0.0465509
0.135989
-0.0414658
0.138091
-0.0365078
0.140228
-0.0316103
0.142348
-0.0271479
0.144403
-0.0228741
0.146371
-0.0192356
0.148231
-0.0157662
0.149985
-0.0130176
0.151623
-0.0102911
0.15316
-0.00837044
0.1546
-0.00624571
0.155966
-0.00500547
0.157256
-0.0031929
0.158478
-0.00250814
0.159639
-0.000931374
0.160767
-0.0007408
0.161883
0.000950367
0.163031
0.00130022
0.164208
0.00387261
0.165435
0.00477058
0.166693
0.00836544
0.16799
0.00951658
0.1693
0.0138529
0.170634
0.014995
0.171964
0.0199221
0.17331
0.0209542
0.174644
0.026586
0.175996
0.0275528
0.0341551
0.196618
0.0151735
-0.197851
0.195886
0.014155
0.195128
0.0132781
0.19439
0.0121007
0.193694
0.0106644
0.193059
0.00904582
0.192522
0.00723009
0.192109
0.0051575
0.191764
0.00277508
0.191265
0.000167172
0.191055
-0.0030167
0.190823
-0.00653005
0.190555
-0.0105723
0.19019
-0.0151366
0.189646
-0.0202031
0.188833
-0.0257154
0.187666
-0.0315649
0.18608
-0.037579
0.184036
-0.043533
0.181548
-0.0491551
0.178673
-0.0541633
0.175504
-0.058303
0.172175
-0.0613457
0.16883
-0.0631421
0.165612
-0.0636462
0.162652
-0.0628684
0.16005
-0.0609447
0.157865
-0.0580305
0.156122
-0.0543773
0.154813
-0.0501497
0.153905
-0.0456421
0.15335
-0.0409115
0.153102
-0.0362598
0.153107
-0.0316152
0.153309
-0.0273499
0.153652
-0.0232167
0.154086
-0.0196704
0.154571
-0.0162507
0.155074
-0.0135207
0.155568
-0.0107856
0.156038
-0.00883964
0.15647
-0.00667819
0.156861
-0.00539622
0.157204
-0.00353586
0.157491
-0.00279549
0.157723
-0.00116316
0.157903
-0.000921213
0.158041
0.000813031
0.158165
0.00117629
0.158286
0.0037517
0.158427
0.00462923
0.158588
0.00820471
0.158777
0.00932676
0.15898
0.0136499
0.159203
0.0147728
0.159423
0.0197021
0.159652
0.020725
0.159868
0.0263701
0.160093
0.0273279
0.0339456
0.209339
0.0154108
-0.209576
0.209149
0.0143453
0.209082
0.0133449
0.208978
0.0122046
0.20881
0.010832
0.208618
0.00923787
0.208423
0.00742497
0.20821
0.0053704
0.207937
0.00304848
0.207706
0.000397833
0.20738