/*--------------------------------*- C++ -*----------------------------------*\
| =========                 |                                                 |
| \\      /  F ield         | OpenFOAM: The Open Source CFD Toolbox           |
|  \\    /   O peration     | Version:  2512                                  |
|   \\  /    A nd           | Website:  www.openfoam.com                      |
|    \\/     M anipulation  |                                                 |
\*---------------------------------------------------------------------------*/
FoamFile
{
    version     2.0;
    format      ascii;
    arch        "LSB;label=32;scalar=64";
    class       volScalarField;
    location    "3";
    object      p;
}
// * * * * * * * * * * * * * * * * * * * * * * * * * * * * * * * * * * * * * //

dimensions      [0 2 -2 0 0 0 0];

internalField   nonuniform List<scalar> 
13248
(
-0.503288
-0.49642
-0.489665
-0.484064
-0.480533
-0.479321
-0.479426
-0.478766
-0.474812
-0.465393
-0.449368
-0.426886
-0.39919
-0.368116
-0.335564
-0.303126
-0.271926
-0.242638
-0.215577
-0.190808
-0.168216
-0.147656
-0.128514
-0.110994
-0.520104
-0.512556
-0.505149
-0.498857
-0.494365
-0.491622
-0.489364
-0.485451
-0.477623
-0.464293
-0.44501
-0.420457
-0.392082
-0.361588
-0.330522
-0.300067
-0.270994
-0.243736
-0.218476
-0.19524
-0.173958
-0.154543
-0.136705
-0.120787
-0.539924
-0.531465
-0.523404
-0.516482
-0.510941
-0.50631
-0.501073
-0.493192
-0.480914
-0.463393
-0.440866
-0.414409
-0.385491
-0.355557
-0.325779
-0.296976
-0.269649
-0.244055
-0.220296
-0.198371
-0.178225
-0.159789
-0.142854
-0.127412
-0.562738
-0.553156
-0.544364
-0.536688
-0.529751
-0.522619
-0.51365
-0.501138
-0.484039
-0.462297
-0.436717
-0.408578
-0.37922
-0.349777
-0.321069
-0.293617
-0.267713
-0.243488
-0.220979
-0.200164
-0.18099
-0.163397
-0.147219
-0.132467
-0.588184
-0.577324
-0.567667
-0.558947
-0.550059
-0.539677
-0.526257
-0.508675
-0.486703
-0.460992
-0.43272
-0.403173
-0.373463
-0.344402
-0.316512
-0.290087
-0.265267
-0.242097
-0.220566
-0.200631
-0.182231
-0.165291
-0.14969
-0.135379
-0.615647
-0.603443
-0.592747
-0.582547
-0.57099
-0.556545
-0.538053
-0.515173
-0.488486
-0.459178
-0.42858
-0.397847
-0.367813
-0.339005
-0.311707
-0.286045
-0.262052
-0.239707
-0.218958
-0.199742
-0.181985
-0.165605
-0.150512
-0.136627
-0.644309
-0.630775
-0.618823
-0.606579
-0.591537
-0.572253
-0.548251
-0.520078
-0.489012
-0.456549
-0.423992
-0.392268
-0.361935
-0.333276
-0.306394
-0.281293
-0.257925
-0.236221
-0.216099
-0.197473
-0.180255
-0.164357
-0.149704
-0.136169
-0.673151
-0.658362
-0.644886
-0.629937
-0.610583
-0.585825
-0.556112
-0.522865
-0.487865
-0.452705
-0.418519
-0.385968
-0.35536
-0.32678
-0.300197
-0.275524
-0.252656
-0.231481
-0.211892
-0.193784
-0.177054
-0.161612
-0.147381
-0.134192
-0.700954
-0.685022
-0.669704
-0.651353
-0.62696
-0.596337
-0.560987
-0.523083
-0.484681
-0.447288
-0.411787
-0.378576
-0.347744
-0.319225
-0.292885
-0.268571
-0.246131
-0.225423
-0.206314
-0.188683
-0.172415
-0.157416
-0.143595
-0.130753
-0.726316
-0.709366
-0.691851
-0.669442
-0.639493
-0.602925
-0.562291
-0.520305
-0.47908
-0.439909
-0.403396
-0.369694
-0.338718
-0.310286
-0.284186
-0.260216
-0.238186
-0.217929
-0.199291
-0.182133
-0.166333
-0.151787
-0.138381
-0.125918
-0.747727
-0.729862
-0.709777
-0.682761
-0.646989
-0.604677
-0.559299
-0.513875
-0.470399
-0.429882
-0.392651
-0.358648
-0.32765
-0.299383
-0.27358
-0.249994
-0.228409
-0.208633
-0.190495
-0.173845
-0.158552
-0.144497
-0.131539
-0.119512
-0.763714
-0.745043
-0.722046
-0.689994
-0.648293
-0.600545
-0.550976
-0.502712
-0.457506
-0.416051
-0.378409
-0.34434
-0.313504
-0.285555
-0.260177
-0.23709
-0.216052
-0.196851
-0.179302
-0.163245
-0.148546
-0.135075
-0.12267
-0.111221
-0.292744
-0.303992
-0.310566
-0.315241
-0.319175
-0.321375
-0.320385
-0.3148
-0.303464
-0.285671
-0.261321
-0.230944
-0.195665
-0.157103
-0.117175
-0.0778548
-0.0409428
-0.00789831
0.0202959
0.0431421
0.0605902
0.0729599
0.0807723
0.0848562
-0.299441
-0.310069
-0.316439
-0.321175
-0.325343
-0.327933
-0.327469
-0.322507
-0.311835
-0.29468
-0.270938
-0.241025
-0.20602
-0.167529
-0.12747
-0.0878459
-0.0505007
-0.0169276
0.0118485
0.035303
0.0533656
0.0663536
0.0747527
0.0794563
-0.31524
-0.324375
-0.330217
-0.335042
-0.339709
-0.343186
-0.343955
-0.340486
-0.331444
-0.315877
-0.293674
-0.264931
-0.230653
-0.192393
-0.152088
-0.111809
-0.0734943
-0.038734
-0.00863945
0.0162036
0.0356807
0.0501026
0.0598881
0.0660163
-0.337647
-0.344599
-0.349592
-0.35442
-0.359666
-0.364287
-0.36673
-0.365359
-0.358692
-0.345647
-0.325423
-0.298321
-0.26511
-0.227187
-0.186603
-0.145474
-0.105873
-0.0695328
-0.0376808
-0.0109804
0.0103995
0.0267599
0.0384437
0.0464765
-0.363451
-0.367799
-0.371628
-0.376216
-0.381864
-0.387554
-0.391714
-0.392598
-0.388532
-0.378119
-0.360435
-0.335316
-0.303402
-0.266052
-0.225265
-0.183323
-0.142453
-0.104535
-0.0709092
-0.0423108
-0.0189537
-0.000546258
0.0131921
0.0232736
-0.389492
-0.391135
-0.393519
-0.397477
-0.403094
-0.409445
-0.414981
-0.417864
-0.416351
-0.408523
-0.393335
-0.370299
-0.339818
-0.303195
-0.262461
-0.220024
-0.178259
-0.139172
-0.104183
-0.0740603
-0.0490391
-0.028832
-0.0132041
-0.00119855
-0.413334
-0.412473
-0.413224
-0.416092
-0.421083
-0.427454
-0.433765
-0.438142
-0.438554
-0.433028
-0.420085
-0.398972
-0.369918
-0.334186
-0.293861
-0.25146
-0.209465
-0.16994
-0.134316
-0.103347
-0.0772498
-0.0557378
-0.0386147
-0.0249916
-0.433649
-0.430736
-0.429783
-0.431152
-0.43492
-0.440608
-0.446954
-0.452087
-0.453819
-0.449965
-0.438744
-0.419181
-0.391395
-0.356653
-0.31712
-0.275389
-0.233966
-0.194878
-0.159482
-0.128458
-0.101978
-0.0797533
-0.0616315
-0.0467803
-0.45029
-0.445892
-0.443311
-0.442944
-0.445074
-0.449533
-0.455271
-0.460439
-0.462743
-0.459778
-0.449547
-0.430948
-0.404099
-0.370351
-0.33195
-0.2915
-0.251422
-0.213593
-0.179211
-0.148841
-0.1226
-0.100205
-0.0815591
-0.0658464
-0.464079
-0.458725
-0.454717
-0.452617
-0.452982
-0.455938
-0.460614
-0.465212
-0.467286
-0.464284
-0.454127
-0.435743
-0.409389
-0.376566
-0.33957
-0.300907
-0.262786
-0.226832
-0.194024
-0.164797
-0.139209
-0.11702
-0.0981939
-0.0818765
-0.476451
-0.470509
-0.465334
-0.461703
-0.460432
-0.461853
-0.4652
-0.468631
-0.469618
-0.46556
-0.454458
-0.435479
-0.409154
-0.377147
-0.341723
-0.305167
-0.269366
-0.235628
-0.20469
-0.176849
-0.152099
-0.130276
-0.111348
-0.0945449
-0.489045
-0.482657
-0.476561
-0.471723
-0.469106
-0.469109
-0.470926
-0.47262
-0.471615
-0.465412
-0.452324
-0.43194
-0.405144
-0.373731
-0.339833
-0.305417
-0.271995
-0.240541
-0.211563
-0.185225
-0.161441
-0.140078
-0.12087
-0.103484
0.0856629
0.0832686
0.0790385
0.0738791
0.0683043
0.0626271
0.0571821
0.0521446
0.0476328
0.0435982
0.0399948
0.0367877
0.0339681
0.0314904
0.029312
0.0273967
0.0257153
0.0242409
0.0229486
0.0218161
0.0208241
0.0199554
0.0191951
0.0185299
0.0179477
0.0174378
0.0169908
0.0165979
0.0162516
0.0159447
0.0156709
0.0154247
0.0152007
0.0149941
0.0148005
0.0146158
0.0144359
0.0142572
0.0140758
0.0138883
0.0136912
0.0134807
0.0132532
0.0130047
0.0127308
0.0124267
0.0120875
0.0117073
0.0112798
0.010798
0.0102543
0.00963928
0.00894506
0.00815696
0.00727288
0.00626062
0.00514382
0.00385587
0.00243509
0.000884124
0.0806429
0.0791279
0.076099
0.0719482
0.0669922
0.0616938
0.056446
0.0515994
0.0472628
0.0433336
0.0398496
0.0367196
0.0339621
0.0315085
0.029343
0.0274389
0.0257669
0.0242984
0.0230087
0.021877
0.0208843
0.0200139
0.0192513
0.0185832
0.0179979
0.0174849
0.0170348
0.016639
0.0162897
0.01598
0.0157035
0.0154546
0.0152279
0.0150188
0.0148228
0.0146357
0.0144535
0.0142726
0.0140892
0.0138998
0.0137007
0.0134884
0.0132592
0.0130091
0.0127337
0.0124284
0.0120878
0.0117065
0.011278
0.0107953
0.0102508
0.00963524
0.00894041
0.00815245
0.00726741
0.00625702
0.00513804
0.00385257
0.002434
0.000874253
0.0682456
0.0687861
0.0684358
0.0665332
0.0630806
0.0587653
0.0542876
0.0500414
0.0460899
0.0424707
0.0391527
0.0361769
0.0336252
0.031285
0.0291876
0.0273313
0.0256992
0.0242617
0.0229943
0.0218781
0.020896
0.0200329
0.0192751
0.0186102
0.0180268
0.0175146
0.0170646
0.0166685
0.0163186
0.016008
0.0157305
0.0154804
0.0152526
0.0150421
0.0148446
0.0146558
0.0144721
0.0142895
0.0141045
0.0139136
0.013713
0.0134993
0.0132687
0.0130173
0.0127407
0.0124342
0.0120926
0.0117102
0.0112808
0.0107973
0.0102521
0.00963595
0.00894042
0.00815246
0.0072662
0.00625735
0.00513568
0.00385205
0.00243482
0.000865185
0.0502187
0.0535983
0.0568767
0.058046
0.0567584
0.0539626
0.0506457
0.0473098
0.0440752
0.0409915
0.0380538
0.0353819
0.0329343
0.0307601
0.0288217
0.0270742
0.0255154
0.0241328
0.0229074
0.021822
0.020862
0.0200148
0.0192687
0.0186124
0.0180353
0.0175278
0.0170811
0.0166871
0.0163387
0.016029
0.015752
0.0155022
0.0152744
0.0150637
0.0148658
0.0146766
0.014492
0.0143085
0.0141224
0.0139303
0.0137287
0.013514
0.0132824
0.01303
0.0127525
0.0124451
0.0121027
0.0117195
0.0112894
0.0108052
0.0102593
0.00964259
0.00894629
0.00815814
0.00727038
0.0062626
0.0051377
0.00385512
0.00243803
0.000857461
0.0287861
0.0353261
0.042518
0.0469887
0.0482051
0.0473749
0.0456468
0.0435566
0.0412615
0.0388497
0.0364339
0.0341466
0.0319768
0.0300237
0.0281971
0.0266371
0.0252075
0.0239081
0.0227437
0.0217048
0.0207798
0.0199584
0.0192314
0.0185894
0.0180233
0.017524
0.0170836
0.0166945
0.0163496
0.0160425
0.0157675
0.0155191
0.0152924
0.0150827
0.0148855
0.0146968
0.0145125
0.014329
0.0141425
0.0139499
0.0137476
0.0135323
0.0133001
0.0130471
0.012769
0.012461
0.0121181
0.0117345
0.0113038
0.0108191
0.0102726
0.00965537
0.00895827
0.00816978
0.00728029
0.0062731
0.00514446
0.00386209
0.00244382
0.000851428
0.00612017
0.0156782
0.0264644
0.0340504
0.0377946
0.0392004
0.0393885
0.0387996
0.037622
0.0360573
0.0343104
0.0325175
0.0307325
0.0290531
0.0275295
0.0259992
0.0247483
0.0235812
0.0225014
0.0215237
0.0206461
0.0198611
0.0191617
0.0185406
0.0179903
0.0175033
0.0170723
0.0166904
0.0163511
0.0160484
0.0157767
0.015531
0.0153063
0.0150983
0.0149027
0.0147153
0.0145323
0.0143498
0.0141641
0.0139716
0.0137692
0.0135536
0.0133212
0.0130679
0.0127896
0.0124815
0.0121383
0.0117545
0.0113236
0.0108385
0.0102916
0.00967397
0.00897609
0.00818714
0.00729577
0.0062887
0.00515593
0.00387297
0.00245211
0.00084736
-0.0160331
-0.00395141
0.00970711
0.0199472
0.0261074
0.0297641
0.0319776
0.0330489
0.0331651
0.0326146
0.0316628
0.0304818
0.0291884
0.0278704
0.0265866
0.0254058
0.0241392
0.0231319
0.0221751
0.0212777
0.0204593
0.0197203
0.0190568
0.0184638
0.0179354
0.0174651
0.017047
0.0166751
0.0163435
0.0160468
0.0157798
0.0155378
0.0153161
0.0151106
0.0149171
0.0147317
0.0145506
0.0143699
0.0141858
0.0139947
0.0137931
0.0135777
0.0133453
0.0130922
0.012814
0.012506
0.012163
0.0117792
0.0113482
0.0108631
0.010316
0.00969802
0.00899942
0.00820993
0.0073166
0.0063092
0.00517202
0.00388769
0.00246284
0.000845605
-0.0364822
-0.0225499
-0.00692095
0.00536801
0.0137027
0.0195184
0.0236639
0.0263768
0.0278901
0.0284977
0.0284712
0.0280117
0.0272793
0.0264018
0.0254533
0.0244842
0.0235716
0.0225668
0.021751
0.0209634
0.0202199
0.0195359
0.0189154
0.0183569
0.0178565
0.0174082
0.017007
0.0166481
0.0163266
0.0160378
0.015777
0.0155399
0.0153222
0.0151199
0.0149291
0.0147461
0.0145672
0.0143888
0.0142069
0.014018
0.0138182
0.0136039
0.0133722
0.0131195
0.0128418
0.0125342
0.0121916
0.0118081
0.0113775
0.0108925
0.0103454
0.00972722
0.009028
0.00823791
0.00734262
0.00633442
0.0051927
0.00390624
0.00247597
0.000846611
-0.0545303
-0.0394447
-0.0227676
-0.00907717
0.00108653
0.00883528
0.014756
0.0190386
0.0219354
0.0237614
0.0247512
0.0251049
0.0250112
0.024631
0.0240751
0.0234073
0.0226821
0.0219794
0.0212173
0.0205594
0.0199205
0.019306
0.0187369
0.0182196
0.0177529
0.0173317
0.0169517
0.0166093
0.0163006
0.0160217
0.0157687
0.0155377
0.0153249
0.0151266
0.0149392
0.014759
0.0145827
0.0144067
0.0142273
0.0140409
0.0138436
0.0136314
0.0134011
0.0131494
0.0128725
0.0125658
0.0122239
0.0118411
0.011411
0.0109264
0.0103794
0.00976128
0.00906157
0.00827085
0.00737366
0.00636419
0.00521795
0.0039286
0.0024915
0.000850884
-0.0698447
-0.0543072
-0.0374458
-0.0229488
-0.0113446
-0.00198082
0.00549497
0.0112455
0.0154928
0.0185105
0.020549
0.021794
0.0224234
0.0226131
0.0225014
0.022185
0.0217254
0.0211831
0.0206438
0.0200463
0.0195443
0.0190242
0.0185214
0.0180543
0.0176277
0.0172381
0.0168829
0.0165599
0.0162662
0.0159991
0.0157554
0.0155316
0.0153246
0.015131
0.0149474
0.0147705
0.014597
0.0144236
0.0142468
0.014063
0.0138684
0.0136588
0.0134307
0.0131808
0.0129054
0.0125999
0.0122591
0.0118773
0.0114481
0.0109643
0.0104178
0.0097998
0.00909982
0.00830848
0.00740959
0.00639836
0.00524779
0.00395479
0.00250956
0.000859068
-0.0823809
-0.0673762
-0.0512956
-0.0365792
-0.0239764
-0.0133632
-0.00453731
0.00261295
0.00820901
0.0124472
0.0155546
0.0177413
0.01919
0.020065
0.0205119
0.0206452
0.0205513
0.0202939
0.0199319
0.0195461
0.0191234
0.0186945
0.0182661
0.0178555
0.0174739
0.0171199
0.0167932
0.0164928
0.0162172
0.0159643
0.0157318
0.0155171
0.0153173
0.0151295
0.0149506
0.0147777
0.0146076
0.0144372
0.0142633
0.0140823
0.0138907
0.0136842
0.0134589
0.0132114
0.012938
0.0126343
0.0122952
0.0119149
0.011487
0.0110043
0.0104587
0.00984126
0.00914135
0.00834957
0.00744934
0.00643606
0.00528163
0.00398438
0.0025302
0.000872152
-0.090837
-0.0774362
-0.0630173
-0.0486764
-0.0357682
-0.0245434
-0.0148151
-0.0065412
0.000258195
0.00567403
0.00988106
0.0130519
0.0153512
0.0169474
0.0179931
0.0186136
0.0189143
0.0189806
0.0188724
0.0186808
0.0184401
0.0181463
0.0178532
0.0175458
0.0172381
0.0169394
0.0166554
0.0163884
0.016139
0.0159069
0.0156908
0.0154892
0.0152998
0.0151204
0.0149484
0.014781
0.0146156
0.0144492
0.0142789
0.0141015
0.0139131
0.0137098
0.0134875
0.0132427
0.0129717
0.0126701
0.0123328
0.0119542
0.0115277
0.0110463
0.0105016
0.00988483
0.00918513
0.00839291
0.00749166
0.00647582
0.00531836
0.00401582
0.00255232
0.000890905
-0.087949
-0.0785309
-0.0645194
-0.050322
-0.0378771
-0.0271168
-0.0176831
-0.00952288
-0.00269174
0.00286837
0.00729428
0.0107194
0.013287
0.0151581
0.0164805
0.0173683
0.0179139
0.0181954
0.018285
0.0182434
0.0180782
0.0178746
0.017621
0.0173682
0.0171028
0.0168391
0.0165842
0.0163409
0.0161109
0.0158944
0.0156911
0.0154998
0.0153188
0.0151462
0.0149797
0.014817
0.0146554
0.0144924
0.0143251
0.0141505
0.0139645
0.0137633
0.0135431
0.0133
0.0130305
0.0127302
0.012394
0.0120162
0.0115904
0.0111092
0.0105645
0.00994714
0.00924646
0.00845178
0.0075488
0.00652608
0.00536658
0.00405249
0.00257735
0.000913885
-0.0856574
-0.0770554
-0.063609
-0.0501482
-0.0386024
-0.0287251
-0.0199649
-0.0122176
-0.00560368
-0.000107154
0.00439822
0.00800623
0.0108083
0.0129378
0.014526
0.0156707
0.0164531
0.0169485
0.0172236
0.0173288
0.0172929
0.0172274
0.0171222
0.016967
0.0167817
0.0165835
0.0163817
0.0161815
0.0159866
0.0157988
0.0156188
0.0154464
0.0152807
0.0151206
0.0149642
0.0148097
0.0146549
0.0144974
0.0143347
0.0141637
0.0139807
0.0137819
0.0135638
0.0133226
0.0130548
0.012756
0.0124212
0.0120446
0.0116198
0.0111395
0.0105955
0.00997853
0.00927808
0.00848274
0.00757957
0.00655322
0.00539381
0.00407149
0.00259114
0.000926213
-0.0818608
-0.0741534
-0.0620635
-0.04967
-0.038993
-0.0299084
-0.0217946
-0.0144835
-0.00812801
-0.00274595
0.00177947
0.00550456
0.0084728
0.0107972
0.0126004
0.0139661
0.0149623
0.015658
0.0161166
0.0163915
0.0165364
0.0166009
0.0165881
0.0165189
0.0164121
0.016281
0.0161356
0.0159826
0.0158268
0.0156713
0.0155179
0.0153674
0.0152197
0.0150741
0.0149296
0.0147846
0.0146375
0.0144861
0.0143281
0.0141605
0.01398
0.0137833
0.013567
0.0133274
0.0130608
0.012763
0.012429
0.0120531
0.0116289
0.0111492
0.0106056
0.00998896
0.00928882
0.00849324
0.00759044
0.00656213
0.00540361
0.00407672
0.00259395
0.000931436
-0.0757584
-0.0702608
-0.0599035
-0.0486492
-0.0388097
-0.0304827
-0.0230354
-0.0162173
-0.0101818
-0.00498101
-0.000509266
0.00326384
0.00633893
0.008807
0.0107835
0.0123388
0.0135255
0.0144058
0.0150413
0.0154831
0.0157741
0.0159495
0.0160371
0.0160594
0.0160319
0.0159684
0.0158801
0.0157751
0.0156596
0.0155376
0.015412
0.0152844
0.0151555
0.0150254
0.0148934
0.0147585
0.0146195
0.0144744
0.0143211
0.0141571
0.0139795
0.0137851
0.0135707
0.0133327
0.0130674
0.0127706
0.0124373
0.012062
0.0116382
0.0111587
0.0106153
0.00999868
0.00929857
0.00850248
0.00759973
0.00656944
0.0054113
0.00408081
0.00259511
0.000935981
-0.0695101
-0.0658238
-0.0570621
-0.0469978
-0.0380394
-0.0304714
-0.0237021
-0.0174186
-0.0117605
-0.00680769
-0.00246027
0.00129687
0.00442309
0.00698324
0.00908724
0.0107951
0.0121443
0.0131866
0.0139781
0.0145647
0.0149857
0.0152782
0.0154712
0.0155849
0.0156366
0.0156414
0.0156114
0.015556
0.0154822
0.0153953
0.015299
0.0151957
0.0150869
0.0149732
0.0148547
0.0147309
0.0146006
0.0144625
0.0143147
0.0141551
0.013981
0.0137897
0.0135777
0.0133417
0.013078
0.0127824
0.0124501
0.0120755
0.0116523
0.0111733
0.0106302
0.0100137
0.00931361
0.00851698
0.0076141
0.00658173
0.0054233
0.00408918
0.00259967
0.000941923
-0.0633203
-0.0607662
-0.0535009
-0.0447168
-0.0367063
-0.0299041
-0.0238093
-0.0180848
-0.012853
-0.00820767
-0.0040479
-0.00036745
0.00275409
0.00535355
0.00753678
0.00935655
0.0108343
0.0120104
0.0129356
0.0136525
0.0141971
0.0146021
0.0148948
0.0150967
0.0152263
0.0152993
0.0153284
0.0153236
0.0152929
0.0152424
0.0151767
0.0150991
0.0150116
0.0149156
0.0148117
0.0146997
0.0145791
0.0144488
0.0143073
0.0141529
0.0139831
0.0137951
0.013586
0.0133523
0.0130905
0.0127965
0.0124655
0.0120919
0.0116696
0.0111913
0.0106487
0.0100325
0.00933264
0.00853561
0.00763256
0.00659825
0.00543898
0.00410129
0.00260703
0.000947991
-0.0567279
-0.0552378
-0.0494156
-0.04191
-0.0348641
-0.0288238
-0.0233917
-0.0182361
-0.0134651
-0.00917464
-0.00525646
-0.00170797
0.00135653
0.0039453
0.00616007
0.00804939
0.0096207
0.0109026
0.0119396
0.0127698
0.0134237
0.0139303
0.0143159
0.014602
0.0148071
0.0149469
0.0150344
0.0150804
0.0150933
0.0150802
0.0150461
0.0149952
0.0149301
0.0148527
0.0147643
0.014665
0.0145549
0.0144331
0.0142986
0.0141498
0.0139846
0.0138004
0.0135943
0.0133632
0.0131035
0.0128113
0.0124818
0.0121095
0.0116882
0.0112107
0.0106688
0.010053
0.00935344
0.00855612
0.00765282
0.0066167
0.00545611
0.00411498
0.00261504
0.000953086
-0.0501132
-0.0495633
-0.0449972
-0.0386772
-0.0325728
-0.0272821
-0.0224959
-0.0179051
-0.0136124
-0.00971083
-0.00607849
-0.00271042
0.000249445
0.00278101
0.00498189
0.00689948
0.00852931
0.00988724
0.0110106
0.0119325
0.0126789
0.0132752
0.0137451
0.0141094
0.0143857
0.0145895
0.0147339
0.0148299
0.0148863
0.0149107
0.0149089
0.0148853
0.0148433
0.0147854
0.0147132
0.0146275
0.0145284
0.0144158
0.0142888
0.0141461
0.0139857
0.0138055
0.0136028
0.0133745
0.0131172
0.0128269
0.012499
0.0121281
0.0117079
0.0112314
0.0106903
0.010075
0.0093757
0.00857811
0.00767446
0.00663657
0.00547423
0.00412964
0.00262337
0.000957589
-0.0438266
-0.0438761
-0.0403416
-0.0351018
-0.0298992
-0.0253355
-0.021172
-0.0171314
-0.0133206
-0.00982933
-0.00651683
-0.00336953
-0.00055584
0.00187704
0.00402257
0.00592896
0.00758167
0.00898412
0.0101667
0.0111577
0.0119787
0.0126504
0.0131939
0.0136281
0.0139697
0.0142332
0.0144316
0.0145758
0.0146748
0.0147363
0.0147666
0.0147707
0.0147523
0.0147144
0.014659
0.0145873
0.0145
0.0143971
0.014278
0.0141417
0.0139867
0.013811
0.013612
0.0133867
0.013132
0.0128439
0.0125178
0.0121484
0.0117295
0.011254
0.0107138
0.0100991
0.00940014
0.00860234
0.00769822
0.00665859
0.0054941
0.0041459
0.00263284
0.000962152
-0.0377615
-0.0382165
-0.0355576
-0.0312906
-0.0269284
-0.023053
-0.01948
-0.0159654
-0.0126281
-0.0095556
-0.0065852
-0.00368946
-0.00105599
0.00124286
0.00329623
0.00515445
0.00679546
0.00821157
0.00942616
0.0104631
0.0113388
0.0120699
0.0126741
0.0131683
0.0135674
0.013885
0.0141332
0.0143226
0.0144622
0.0145597
0.0146215
0.014653
0.0146583
0.0146406
0.0146023
0.0145451
0.01447
0.0143771
0.0142665
0.0141371
0.0139879
0.0138169
0.0136218
0.0134
0.0131481
0.0128623
0.0125383
0.0121706
0.0117532
0.0112789
0.0107397
0.0101257
0.00942722
0.00862928
0.00772463
0.00668328
0.00551627
0.00416426
0.00264393
0.000966973
-0.0318956
-0.0326948
-0.0307766
-0.0273565
-0.0237502
-0.0205084
-0.017484
-0.0144634
-0.0115811
-0.00892394
-0.00630619
-0.00368276
-0.00125553
0.000880491
0.00281034
0.00458774
0.00618535
0.00758576
0.00880566
0.0098645
0.0107744
0.0115474
0.012198
0.0127405
0.013188
0.0135525
0.0138451
0.0140756
0.0142529
0.0143843
0.0144763
0.0145344
0.0145629
0.0145652
0.0145442
0.0145017
0.0144389
0.0143565
0.0142546
0.0141325
0.0139893
0.0138234
0.0136326
0.0134144
0.0131656
0.0128824
0.0125606
0.0121949
0.0117791
0.0113063
0.0107682
0.0101551
0.00945714
0.00865916
0.00775392
0.00671086
0.00554099
0.00418487
0.00265669
0.000972142
-0.0263875
-0.0274153
-0.0260827
-0.0233798
-0.0204405
-0.0177718
-0.0152489
-0.0126843
-0.0102302
-0.00797503
-0.00570985
-0.00336972
-0.00116653
0.000784961
0.00256628
0.00423539
0.0057616
0.00711914
0.00831871
0.00937602
0.0102992
0.011096
0.0117778
0.0123558
0.0128412
0.0132441
0.0135743
0.0138409
0.0140518
0.0142142
0.0143343
0.0144175
0.0144682
0.0144901
0.0144859
0.014458
0.0144077
0.0143359
0.0142428
0.0141283
0.0139915
0.0138309
0.0136446
0.0134302
0.0131847
0.0129044
0.012585
0.0122214
0.0118076
0.0113363
0.0107996
0.0101875
0.00949016
0.00869222
0.00778638
0.00674156
0.00556854
0.00420792
0.00267129
0.000977846
-0.0212665
-0.0223995
-0.0215228
-0.0194261
-0.0170706
-0.0149118
-0.0128388
-0.0106876
-0.00862909
-0.00675427
-0.00483241
-0.00277753
-0.000807926
0.000944686
0.002559
0.00409793
0.00552905
0.00681987
0.00797589
0.00900949
0.00992546
0.0107282
0.011425
0.0120249
0.0125366
0.0129683
0.0133284
0.0136247
0.0138644
0.0140539
0.0141992
0.0143054
0.0143768
0.0144171
0.0144292
0.0144153
0.0143772
0.0143159
0.0142319
0.014125
0.0139946
0.0138396
0.013658
0.0134477
0.0132057
0.0129285
0.0126118
0.0122505
0.0118387
0.0113693
0.0108341
0.0102232
0.00952661
0.00872881
0.00782236
0.00677573
0.00559931
0.00423373
0.00268796
0.000984292
-0.0164787
-0.0176637
-0.0171501
-0.0155602
-0.0137053
-0.0119911
-0.0103142
-0.00853116
-0.00683146
-0.00530954
-0.00371435
-0.00193881
-0.000204667
0.00134197
0.0027774
0.00417001
0.00548728
0.00669144
0.00778358
0.0087735
0.00966304
0.010454
0.0111501
0.0117579
0.0122836
0.0127338
0.0131151
0.0134339
0.0136965
0.0139085
0.0140753
0.0142017
0.0142916
0.0143487
0.0143758
0.0143753
0.0143489
0.0142978
0.0142226
0.0141233
0.0139994
0.01385
0.0136733
0.0134672
0.0132289
0.0129549
0.0126411
0.0122824
0.0118729
0.0114055
0.010872
0.0102625
0.00956684
0.00876931
0.00786227
0.00681378
0.00563369
0.00426266
0.00270697
0.000991665
-0.0120369
-0.0132376
-0.0130039
-0.0118286
-0.010396
-0.00906361
-0.0077301
-0.0062695
-0.00488964
-0.003689
-0.00239808
-0.000889421
0.000613962
0.00195391
0.00320494
0.00444103
0.00563067
0.0067324
0.00774398
0.00867311
0.00951853
0.0102815
0.0109617
0.0115635
0.012091
0.0125488
0.0129419
0.0132753
0.0135541
0.0137832
0.0139671
0.0141101
0.0142158
0.0142875
0.0143281
0.0143397
0.0143242
0.0142827
0.0142159
0.0141239
0.0140065
0.0138626
0.0136909
0.0134891
0.0132546
0.0129841
0.0126733
0.0123174
0.0119104
0.0114452
0.0109137
0.0103058
0.00961124
0.00881412
0.00790656
0.00685613
0.00567215
0.0042951
0.00272861
0.00100015
-0.00794902
-0.00912559
-0.00910077
-0.00826215
-0.00718296
-0.00617446
-0.00513406
-0.00395151
-0.00285229
-0.00193924
-0.000926389
0.000332836
0.00161572
0.00275407
0.00382094
0.00489607
0.00594953
0.00693719
0.00785483
0.00870949
0.00949887
0.010217
0.0108667
0.0114492
0.0119662
0.0124207
0.0128159
0.0131555
0.0134434
0.0136835
0.0138794
0.0140348
0.0141529
0.0142367
0.0142885
0.0143107
0.0143048
0.0142719
0.0142129
0.0141279
0.0140166
0.0138782
0.0137113
0.0135139
0.0132833
0.0130163
0.0127088
0.0123559
0.0119516
0.0114889
0.0109596
0.0103535
0.00966025
0.00886369
0.0079557
0.00690328
0.00571519
0.00433152
0.00275319
0.00100994
-0.00419169
-0.00531973
-0.0054497
-0.00488256
-0.00409624
-0.00335942
-0.00256613
-0.00162008
-0.000763447
-0.000103608
0.000659721
0.00169043
0.00276718
0.00371363
0.00460146
0.00551587
0.00642957
0.00729636
0.00811005
0.00887784
0.00959657
0.010261
0.010869
0.0114201
0.0119153
0.0123558
0.0127435
0.0130807
0.0133701
0.0136146
0.013817
0.0139801
0.0141068
0.0141993
0.0142599
0.0142905
0.0142926
0.0142672
0.0142151
0.0141363
0.0140307
0.0138975
0.0137352
0.0135421
0.0133155
0.0130521
0.012748
0.0123982
0.0119969
0.0115369
0.01101
0.010406
0.00971431
0.00891851
0.00801023
0.00695577
0.00576337
0.00437243
0.00278109
0.00102123
-0.000749461
-0.00181595
-0.00205558
-0.00170326
-0.00115802
-0.000646943
-5.92576e-05
0.00068846
0.00133838
0.00177877
0.00232197
0.00314703
0.00403477
0.00480229
0.00552005
0.00627829
0.00705231
0.00779513
0.00850206
0.00917596
0.00981594
0.0104153
0.0109702
0.0114793
0.0119423
0.0123588
0.0127297
0.013056
0.0133393
0.0135814
0.0137844
0.0139502
0.014081
0.0141787
0.0142451
0.0142817
0.0142898
0.0142704
0.0142239
0.0141505
0.0140499
0.0139213
0.0137635
0.0135744
0.0133516
0.013092
0.0127913
0.0124449
0.0120467
0.0115896
0.0110654
0.0104637
0.00977392
0.00897911
0.00807072
0.0070142
0.00581731
0.00441843
0.00281275
0.00103425
0.0023995
0.00139947
0.00107885
0.00125874
0.00161114
0.0019399
0.00236027
0.00294429
0.00342054
0.00367345
0.00402522
0.00466809
0.00538562
0.00598982
0.00654903
0.00715937
0.0077983
0.00842045
0.00901663
0.00959404
0.0101493
0.0106757
0.0111691
0.0116274
0.012049
0.0124329
0.0127784
0.0130857
0.0133554
0.0135884
0.0137858
0.013949
0.0140793
0.0141782
0.014247
0.0142868
0.0142987
0.0142832
0.0142409
0.0141717
0.0140752
0.0139507
0.0137968
0.0136115
0.0133925
0.0131364
0.0128393
0.0124963
0.0121014
0.0116475
0.0111263
0.0105273
0.00983962
0.00904607
0.00813779
0.00707923
0.0058777
0.00447017
0.00284865
0.00104926
0.00527014
0.0043411
0.00396691
0.0040128
0.00420729
0.00438694
0.0046716
0.00512226
0.00545501
0.0055507
0.00573933
0.00622412
0.00679135
0.0072487
0.0076652
0.00813677
0.00864735
0.00915074
0.00963898
0.0101183
0.0105859
0.011035
0.0114613
0.0118621
0.0122352
0.0125787
0.0128914
0.0131724
0.0134215
0.0136389
0.0138248
0.0139799
0.014105
0.0142009
0.0142685
0.0143084
0.0143214
0.0143078
0.0142678
0.0142014
0.014108
0.0139867
0.0138361
0.0136542
0.0134386
0.013186
0.0128924
0.0125529
0.0121616
0.0117111
0.0111932
0.0105971
0.00991195
0.00911999
0.00821212
0.00715159
0.00594531
0.00452841
0.00288938
0.00106656
0.0078814
0.00702342
0.006615
0.00655641
0.00662496
0.00668528
0.00686158
0.00720456
0.00741952
0.00738448
0.00743515
0.00778351
0.00821931
0.00854749
0.00883489
0.00918232
0.00957484
0.009967
0.0103512
0.0107342
0.011114
0.0114841
0.0118399
0.0121787
0.012498
0.0127953
0.0130688
0.0133172
0.0135395
0.0137352
0.0139039
0.0140458
0.0141609
0.0142495
0.014312
0.0143487
0.01436
0.0143459
0.0143064
0.0142411
0.0141495
0.0140303
0.0138823
0.0137033
0.0134908
0.0132415
0.0129514
0.0126155
0.0122277
0.0117809
0.0112666
0.0106738
0.00999148
0.00920147
0.00829439
0.00723204
0.00602098
0.004594
0.00293559
0.0010865
0.0102512
0.00946172
0.00903342
0.00889452
0.00886342
0.00882945
0.00892045
0.00917756
0.00929727
0.00915558
0.00909182
0.00932469
0.00964771
0.00986407
0.0100387
0.0102744
0.0105591
0.0108484
0.0111348
0.0114258
0.0117201
0.0120115
0.0122958
0.0125703
0.0128322
0.0130791
0.0133087
0.0135193
0.0137096
0.0138783
0.0140248
0.0141484
0.0142489
0.014326
0.0143797
0.0144099
0.0144165
0.0143994
0.0143582
0.0142923
0.0142009
0.0140828
0.0139365
0.0137597
0.0135499
0.0133036
0.0130168
0.0126844
0.0123004
0.0118574
0.0113469
0.0107577
0.0100788
0.00929114
0.00838533
0.00732138
0.00610562
0.00466787
0.00298806
0.0011095
0.0123964
0.0116716
0.011234
0.0110342
0.010925
0.0108175
0.0108425
0.0110319
0.0110756
0.0108485
0.0106914
0.0108277
0.0110549
0.0111756
0.0112527
0.0113903
0.0115787
0.0117748
0.0119712
0.0121762
0.0123891
0.0126044
0.0128181
0.0130278
0.0132309
0.0134248
0.0136072
0.0137763
0.0139303
0.0140677
0.0141874
0.0142885
0.0143702
0.0144319
0.0144731
0.0144934
0.0144924
0.0144697
0.0144245
0.0143561
0.0142634
0.0141451
0.0139995
0.0138242
0.0136164
0.0133728
0.0130891
0.0127603
0.0123801
0.0119411
0.0114347
0.0108495
0.0101743
0.00938957
0.0084856
0.00742041
0.00620018
0.00475105
0.00304763
0.00113609
0.0143327
0.0136679
0.0132286
0.0129832
0.0128136
0.0126499
0.0126247
0.0127612
0.0127451
0.0124509
0.0122192
0.0122756
0.0124225
0.0124628
0.0124571
0.0125099
0.0126138
0.0127267
0.012842
0.0129682
0.0131053
0.0132485
0.0133943
0.0135405
0.0136849
0.013825
0.0139586
0.0140837
0.0141985
0.0143013
0.0143907
0.0144656
0.0145248
0.0145675
0.0145929
0.0146002
0.0145887
0.0145577
0.0145063
0.0144335
0.0143379
0.0142181
0.0140721
0.0138975
0.0136913
0.0134499
0.0131691
0.0128436
0.0124673
0.0120324
0.0115303
0.0109496
0.0102786
0.00949724
0.0085958
0.00752987
0.00630563
0.00484465
0.00311528
0.00116688
0.0160752
0.015465
0.0150294
0.0147505
0.0145348
0.0143291
0.0142664
0.014362
0.0142993
0.0139539
0.0136638
0.0136551
0.0137352
0.0137088
0.0136341
0.0136148
0.0136456
0.0136859
0.0137293
0.0137845
0.0138525
0.013929
0.0140109
0.0140966
0.0141839
0.0142709
0.0143554
0.0144354
0.0145093
0.0145752
0.0146318
0.0146776
0.0147114
0.0147321
0.0147386
0.0147301
0.0147055
0.0146639
0.0146041
0.014525
0.014425
0.0143024
0.014155
0.0139802
0.0137749
0.0135354
0.0132572
0.012935
0.0125624
0.0121318
0.0116342
0.0110581
0.0103918
0.00961445
0.00871638
0.00765035
0.00642285
0.00494981
0.00319204
0.0012026
0.01764
0.0170795
0.0166508
0.0163477
0.0160971
0.0158606
0.0157703
0.0158337
0.0157348
0.0153515
0.0150169
0.0149553
0.0149801
0.0148992
0.0147678
0.0146883
0.0146569
0.0146346
0.0146153
0.0146081
0.0146143
0.0146303
0.0146535
0.0146827
0.0147161
0.0147519
0.0147884
0.0148237
0.0148562
0.0148842
0.0149063
0.0149211
0.0149272
0.0149235
0.0149088
0.014882
0.014842
0.0147877
0.0147177
0.0146307
0.0145248
0.0143982
0.0142484
0.0140728
0.0138679
0.0136298
0.0133539
0.0130348
0.0126659
0.0122394
0.0117465
0.0111752
0.010514