/*--------------------------------*- C++ -*----------------------------------*\
| =========                 |                                                 |
| \\      /  F ield         | OpenFOAM: The Open Source CFD Toolbox           |
|  \\    /   O peration     | Version:  2512                                  |
|   \\  /    A nd           | Website:  www.openfoam.com                      |
|    \\/     M anipulation  |                                                 |
\*---------------------------------------------------------------------------*/
FoamFile
{
    version     2.0;
    format      ascii;
    arch        "LSB;label=32;scalar=64";
    class       volVectorField;
    location    "137.75";
    object      U;
}
// * * * * * * * * * * * * * * * * * * * * * * * * * * * * * * * * * * * * * //

dimensions      [0 1 -1 0 0 0 0];

internalField   nonuniform List<vector> 
13248
(
(-0.0108132 0.0103097 7.75566e-20)
(-0.0161986 0.0182166 0)
(-0.00740472 0.0185209 -1.47491e-19)
(0.0141752 0.014053 1.38939e-19)
(0.0478843 0.00696244 1.30656e-19)
(0.0933575 -0.00114434 0)
(0.150208 -0.00910763 0)
(0.217789 -0.0160918 3.14918e-19)
(0.294995 -0.0214951 -3.094e-21)
(0.380156 -0.024905 -2.72161e-19)
(0.471027 -0.0260827 2.46114e-19)
(0.5649 -0.024961 -1.53456e-19)
(0.658806 -0.0216404 0)
(0.749764 -0.0163735 -2.42646e-19)
(0.835037 -0.00953538 4.45041e-19)
(0.912357 -0.00158291 -1.05102e-19)
(0.980073 0.00699416 -1.71461e-19)
(1.03723 0.0157096 1.60965e-19)
(1.08357 0.0241593 0)
(1.11944 0.0318898 0)
(1.14583 0.0389487 0)
(1.16358 0.0442373 0)
(1.17542 0.0498202 4.0853e-20)
(1.17996 0.0506444 1.38871e-19)
(-0.00987601 0.00864582 -2.34299e-19)
(-0.0103905 0.0141603 1.60067e-19)
(0.00691341 0.0135114 -1.0268e-21)
(0.0402598 0.00910073 -2.12056e-19)
(0.0886064 0.00291788 -1.30512e-19)
(0.151095 -0.00344765 -1.23257e-19)
(0.226613 -0.00883726 -2.26656e-19)
(0.313511 -0.0124512 2.13796e-19)
(0.409426 -0.0137955 0)
(0.51127 -0.0126602 2.15261e-21)
(0.615394 -0.00910201 4.42255e-21)
(0.717899 -0.00341387 1.52861e-19)
(0.81502 0.00392765 0)
(0.903493 0.0123328 0)
(0.980848 0.0211777 1.60085e-19)
(1.04558 0.0298781 -3.00337e-19)
(1.09717 0.0379493 1.69562e-19)
(1.13604 0.0450398 -1.59192e-19)
(1.16335 0.0509524 -6.77268e-20)
(1.18081 0.0555929 -1.16485e-19)
(1.19034 0.0591142 -4.57543e-20)
(1.19414 0.0612186 -8.40007e-20)
(1.1937 0.0634119 1.2836e-19)
(1.19072 0.06163 3.59513e-20)
(-0.0077808 0.00643046 0)
(-0.000829083 0.00865204 0)
(0.0276995 0.00664406 7.50469e-20)
(0.0755787 0.00241825 6.94337e-20)
(0.141206 -0.00221881 -1.44555e-21)
(0.222891 -0.00576721 -1.26168e-19)
(0.318311 -0.00720292 0)
(0.424246 -0.00595726 -1.06078e-19)
(0.536573 -0.00188448 9.83158e-20)
(0.650505 0.00477408 1.64333e-23)
(0.761064 0.0134594 -1.64451e-19)
(0.863634 0.0234032 -1.46646e-19)
(0.954474 0.0337583 5.57396e-21)
(1.03107 0.0437273 -1.12921e-19)
(1.09227 0.0526647 2.77207e-19)
(1.13826 0.0601393 0)
(1.17031 0.0659516 -1.66979e-19)
(1.19046 0.0701085 8.14576e-20)
(1.20119 0.0727848 6.76669e-20)
(1.205 0.0742123 0)
(1.20423 0.0747803 5.25731e-20)
(1.20074 0.0744344 -1.78833e-19)
(1.19585 0.0743572 1.67874e-19)
(1.19106 0.0715156 1.02391e-19)
(-0.00429365 0.00387941 -8.24522e-20)
(0.013226 0.00241242 -8.50844e-20)
(0.0561612 -0.000804987 7.73727e-20)
(0.121602 -0.00418078 0)
(0.207012 -0.00616828 0)
(0.30932 -0.00550309 -1.84835e-21)
(0.424352 -0.0015273 0)
(0.546776 0.00580466 -3.19415e-19)
(0.670469 0.0159988 2.95116e-19)
(0.789191 0.0281481 -3.62383e-19)
(0.897373 0.0411196 8.20056e-20)
(0.990799 0.0537658 0)
(1.06701 0.0651137 1.30305e-19)
(1.12538 0.0744909 -2.38932e-19)
(1.16689 0.0815747 5.66925e-20)
(1.19373 0.0863679 1.37706e-19)
(1.20876 0.0891213 -9.67766e-21)
(1.21504 0.0902316 -1.52071e-19)
(1.21537 0.0901408 0)
(1.21211 0.0892469 0)
(1.20697 0.0879192 -5.08193e-20)
(1.20111 0.0861582 4.48525e-20)
(1.19522 0.0848849 1.55254e-19)
(1.18958 0.0812491 -1.45758e-19)
(0.000911408 0.00117239 -8.62506e-20)
(0.0325737 -0.00384699 -8.61137e-20)
(0.0933542 -0.00751479 2.42444e-19)
(0.179258 -0.00880987 -1.47513e-19)
(0.28622 -0.0066309 1.3885e-19)
(0.409078 -0.000211472 2.52556e-19)
(0.541193 0.0104026 -1.77789e-19)
(0.674896 0.0244003 -2.13879e-19)
(0.802443 0.0404276 5.86299e-21)
(0.917114 0.0568889 2.72449e-19)
(1.01412 0.0722681 0)
(1.09104 0.0853901 7.27047e-20)
(1.14782 0.0955673 0)
(1.18628 0.102615 -1.14273e-19)
(1.20948 0.106762 1.60067e-19)
(1.22101 0.108507 1.11883e-21)
(1.22433 0.108455 -4.05505e-20)
(1.22243 0.107192 7.36522e-20)
(1.21758 0.105199 6.34468e-20)
(1.21132 0.102823 -5.60536e-20)
(1.20462 0.100292 5.08067e-20)
(1.19802 0.097619 -4.48411e-20)
(1.1917 0.0953209 0)
(1.18595 0.0912238 -3.40028e-20)
(0.00820676 -0.001493 8.62382e-20)
(0.0579396 -0.00936266 9.00912e-20)
(0.139934 -0.0121255 -8.11197e-20)
(0.248555 -0.00963451 1.5086e-19)
(0.377458 -0.00156887 -1.41993e-19)
(0.518696 0.0119461 1.28114e-19)
(0.662899 0.0297736 -6.1375e-20)
(0.80051 0.050006 1.60787e-19)
(0.923325 0.0704472 -1.00622e-19)
(1.02572 0.0890961 1.75317e-19)
(1.10517 0.104507 -4.02309e-19)
(1.16213 0.115951 1.46855e-19)
(1.19921 0.123386 -1.25615e-19)
(1.22031 0.127275 1.17991e-19)
(1.22966 0.128362 9.91215e-20)
(1.2311 0.127453 8.50151e-20)
(1.22774 0.125264 -2.36745e-19)
(1.22181 0.122345 1.45963e-19)
(1.21475 0.119072 -6.34484e-20)
(1.20742 0.115667 1.63318e-19)
(1.20028 0.11225 -5.2781e-20)
(1.19351 0.108836 -1.25835e-19)
(1.1872 0.10569 1.15722e-19)
(1.18136 0.101272 3.39921e-20)
(0.0179409 -0.00385461 0)
(0.089811 -0.0132675 5.59759e-22)
(0.195919 -0.0132531 1.68054e-19)
(0.328338 -0.00499683 -1.5782e-19)
(0.477699 0.0105523 -1.42182e-19)
(0.632895 0.0319118 2.63955e-19)
(0.782249 0.056564 -1.22438e-19)
(0.915584 0.0815367 1.62088e-19)
(1.02597 0.104153 -4.14788e-21)
(1.11045 0.122554 -9.10678e-20)
(1.16977 0.135894 1.95869e-19)
(1.20729 0.144241 -2.87752e-19)
(1.2277 0.148294 0)
(1.23589 0.149051 -5.51747e-20)
(1.23614 0.147525 -1.45126e-19)
(1.23173 0.144576 4.59508e-20)
(1.22494 0.140839 2.17098e-21)
(1.21719 0.136729 -9.5874e-20)
(1.20928 0.132495 7.46776e-21)
(1.20164 0.128266 1.10194e-19)
(1.19442 0.124102 -4.79287e-20)
(1.18768 0.120024 -1.79684e-20)
(1.18137 0.116106 5.62267e-20)
(1.17549 0.111417 0)
(0.0303631 -0.00556344 0)
(0.128276 -0.0145789 4.55075e-20)
(0.260519 -0.00953353 -2.18303e-19)
(0.416235 0.00646216 7.93257e-20)
(0.582549 0.0306073 -7.46587e-20)
(0.745477 0.0596707 -6.78211e-20)
(0.892299 0.0897478 -1.19683e-19)
(1.01406 0.117208 5.99442e-20)
(1.1068 0.139528 5.19903e-20)
(1.17121 0.155583 0)
(1.21124 0.165484 1.15809e-19)
(1.23241 0.170156 -1.70897e-19)
(1.24038 0.170874 1.2699e-19)
(1.23997 0.168902 5.52029e-20)
(1.23479 0.165278 -4.44166e-20)
(1.22726 0.160752 -3.62528e-20)
(1.21887 0.155807 -3.33847e-20)
(1.2104 0.150725 1.01729e-19)
(1.20226 0.145657 0)
(1.1946 0.140676 4.96705e-20)
(1.18747 0.135811 4.08853e-20)
(1.18081 0.131076 -1.02472e-19)
(1.17458 0.126439 -6.87528e-20)
(1.16869 0.121493 6.3685e-20)
(0.0455591 -0.00619236 -4.86086e-20)
(0.172903 -0.0122492 -1.54979e-21)
(0.332071 0.000269839 4.42777e-20)
(0.50883 0.0256623 1.23161e-19)
(0.68688 0.0587364 3.55769e-20)
(0.850483 0.0943917 -6.8847e-20)
(0.98777 0.127733 6.30094e-20)
(1.09286 0.155184 -5.51307e-20)
(1.16581 0.17505 9.80705e-20)
(1.21093 0.187343 4.14073e-20)
(1.23459 0.193191 -1.17404e-19)
(1.24336 0.19419 3.43654e-20)
(1.24282 0.191918 5.7946e-20)
(1.23709 0.187659 -2.8631e-20)
(1.2289 0.182325 0)
(1.21984 0.176497 4.15885e-20)
(1.21077 0.170508 6.94972e-20)
(1.20209 0.164538 1.12447e-20)
(1.19396 0.158672 -5.73982e-20)
(1.18641 0.152951 2.37152e-20)
(1.17939 0.147391 0)
(1.17286 0.141986 -1.82959e-20)
(1.16671 0.136677 -1.70516e-20)
(1.16085 0.13143 0)
(0.0633986 -0.00527155 0)
(0.222675 -0.0052711 2.54068e-20)
(0.408099 0.0171179 4.68992e-20)
(0.602027 0.0529649 -1.25068e-19)
(0.785599 0.0943862 4.02616e-20)
(0.943155 0.134714 0)
(1.0657 0.168824 6.02226e-20)
(1.15168 0.193988 -8.39542e-20)
(1.2053 0.209843 -4.88428e-20)
(1.23373 0.217638 2.20625e-20)
(1.24465 0.219341 -3.46053e-20)
(1.24467 0.216939 8.43912e-20)
(1.23869 0.212058 4.17338e-20)
(1.2299 0.205848 -2.932e-20)
(1.22015 0.199032 -3.05175e-21)
(1.21042 0.192022 -7.80296e-20)
(1.20114 0.185036 3.53851e-20)
(1.19249 0.178179 -8.58696e-22)
(1.18449 0.1715 0)
(1.17711 0.165022 -2.37399e-20)
(1.17027 0.158748 0)
(1.1639 0.152654 5.2667e-20)
(1.15788 0.146712 -6.23738e-20)
(1.1521 0.14109 2.82941e-20)
(0.0835031 -0.00233563 -1.3097e-20)
(0.275993 0.00720436 -6.36036e-20)
(0.485498 0.0415618 7.21666e-20)
(0.691538 0.0881275 4.23897e-20)
(0.87432 0.136453 -2.03178e-20)
(1.0204 0.179055 3.38852e-20)
(1.12523 0.211521 -1.65196e-20)
(1.192 0.232626 2.73504e-20)
(1.22842 0.243539 0)
(1.24346 0.246609 6.13028e-20)
(1.24509 0.244359 -2.69596e-21)
(1.23931 0.238893 -4.91419e-20)
(1.23006 0.231712 2.08843e-20)
(1.21962 0.223759 -2.3337e-20)
(1.20917 0.215564 -8.68813e-21)
(1.19923 0.207402 1.02336e-20)
(1.18999 0.199405 -7.77229e-21)
(1.1815 0.191633 -4.17714e-20)
(1.17372 0.184114 2.55653e-20)
(1.16658 0.176856 5.16598e-21)
(1.15997 0.169849 4.51043e-21)
(1.1538 0.16306 3.93864e-21)
(1.14796 0.156526 0)
(1.1423 0.150426 0)
(0.105312 0.00303782 1.31061e-20)
(0.330901 0.0257752 -1.3119e-20)
(0.560978 0.0736593 -2.40014e-20)
(0.773493 0.130345 0)
(0.949846 0.183493 -1.0053e-20)
(1.08075 0.225877 -8.98523e-21)
(1.16694 0.254669 -1.53735e-20)
(1.21596 0.270523 0)
(1.23807 0.27608 0)
(1.24295 0.274512 0)
(1.23817 0.268598 0)
(1.22876 0.260362 0)
(1.2177 0.251084 -1.30677e-20)
(1.20651 0.241484 5.93793e-21)
(1.19586 0.231929 1.02388e-20)
(1.186 0.22259 4.77122e-21)
(1.17698 0.21354 1.16858e-20)
(1.16877 0.20481 0)
(1.16131 0.196412 -2.74277e-21)
(1.15449 0.188345 -2.59912e-21)
(1.14821 0.180585 -4.51759e-21)
(1.14235 0.173106 -3.94492e-21)
(1.13678 0.166009 0)
(1.13136 0.159326 2.76422e-21)
(0.000289799 -0.0439452 9.12115e-21)
(-0.00252522 -0.107703 -9.46493e-21)
(-0.0107088 -0.153279 -1.79116e-20)
(-0.0223101 -0.184208 0)
(-0.0359652 -0.203934 -2.40396e-20)
(-0.0507653 -0.215689 7.59838e-21)
(-0.0659865 -0.22219 -1.4238e-20)
(-0.0810873 -0.225448 0)
(-0.0957033 -0.226741 0)
(-0.109603 -0.226698 0)
(-0.122639 -0.225444 0)
(-0.134709 -0.222766 0)
(-0.145719 -0.218246 2.69936e-22)
(-0.155571 -0.21137 -9.80696e-21)
(-0.164146 -0.20159 1.81703e-20)
(-0.171304 -0.188373 2.6062e-20)
(-0.176887 -0.171231 7.81577e-21)
(-0.180723 -0.14975 0)
(-0.182636 -0.123623 7.5316e-21)
(-0.182471 -0.0926905 -2.04895e-20)
(-0.180082 -0.0569869 -1.25418e-20)
(-0.175357 -0.0167146 -1.16817e-20)
(-0.168307 0.0279033 0)
(-0.159985 0.0760488 0)
(0.00213477 -0.0393376 -2.72072e-20)
(0.000849822 -0.0964277 4.70673e-20)
(-0.00797117 -0.137336 -1.74723e-20)
(-0.02125 -0.165136 -3.35207e-20)
(-0.0370104 -0.182965 4.75206e-20)
(-0.0540459 -0.193792 -2.98757e-20)
(-0.071475 -0.200088 4.23374e-20)
(-0.0886933 -0.203651 2.63098e-20)
(-0.105337 -0.205594 0)
(-0.12121 -0.20644 -2.40908e-20)
(-0.136213 -0.20626 -1.77458e-22)
(-0.15029 -0.20483 2.13782e-20)
(-0.163391 -0.201757 2.96266e-20)
(-0.175448 -0.196567 3.7491e-20)
(-0.186366 -0.188764 -1.81067e-20)
(-0.196018 -0.177864 -5.02503e-20)
(-0.20424 -0.163423 1.48677e-20)
(-0.210845 -0.145051 -5.69279e-20)
(-0.215642 -0.12244 0)
(-0.218463 -0.0953871 1.34052e-20)
(-0.219097 -0.0638192 1.25286e-20)
(-0.217188 -0.0277617 1.16692e-20)
(-0.212761 0.0128482 0)
(-0.208277 0.0575883 0)
(0.00326152 -0.0332012 0)
(0.00284258 -0.082095 9.18759e-20)
(-0.00652479 -0.117817 -3.47297e-20)
(-0.0209255 -0.14254 3.31899e-20)
(-0.0379338 -0.1588 -9.2892e-20)
(-0.0561291 -0.169118 0)
(-0.0745166 -0.175605 -5.52761e-20)
(-0.0924448 -0.179795 2.5705e-20)
(-0.109545 -0.182625 -4.85309e-20)
(-0.125639 -0.184521 2.22226e-20)
(-0.14065 -0.185522 1.29307e-19)
(-0.154548 -0.185413 -6.06486e-20)
(-0.167309 -0.183838 -9.54186e-20)
(-0.178886 -0.180375 -3.4386e-20)
(-0.189205 -0.174586 5.41938e-22)
(-0.198157 -0.166047 1.23461e-19)
(-0.205597 -0.154364 -5.76473e-20)
(-0.211344 -0.139185 2.4386e-21)
(-0.215207 -0.120204 0)
(-0.217012 -0.0971747 -4.2105e-20)
(-0.216532 -0.0699012 0)
(-0.213115 -0.0382222 -3.83388e-20)
(-0.206598 -0.00202917 1.33677e-19)
(-0.200585 0.0384382 -2.00134e-21)
(0.0035177 -0.0260495 0)
(0.0032125 -0.0657899 -4.12523e-22)
(-0.00656354 -0.0960654 3.42e-20)
(-0.0214472 -0.117845 -3.2311e-20)
(-0.0387742 -0.132853 3.07273e-20)
(-0.0570112 -0.143028 1.72956e-19)
(-0.0751019 -0.150055 -5.43557e-20)
(-0.0923644 -0.155168 -5.08432e-20)
(-0.108419 -0.159127 9.62014e-20)
(-0.123085 -0.162268 -1.35433e-19)
(-0.136288 -0.164604 4.17622e-20)
(-0.148002 -0.165939 3.88474e-20)
(-0.158205 -0.165956 0)
(-0.16686 -0.164285 3.47743e-20)
(-0.173907 -0.160543 0)
(-0.179251 -0.154365 5.62803e-20)
(-0.182768 -0.14541 -1.04529e-19)
(-0.184295 -0.133374 2.83908e-20)
(-0.183641 -0.117984 8.9234e-20)
(-0.180626 -0.098984 4.20673e-20)
(-0.175069 -0.0761104 0)
(-0.166395 -0.0490521 -9.51855e-20)
(-0.153567 -0.0175606 3.17198e-20)
(-0.139561 0.0185175 0)
(0.00286417 -0.0184467 0)
(0.00192134 -0.0486535 -1.08047e-19)
(-0.00808195 -0.0734324 -3.42994e-20)
(-0.0227633 -0.092419 -6.44114e-20)
(-0.0394481 -0.106423 6.06561e-20)
(-0.0566 -0.116733 -5.74612e-20)
(-0.0731563 -0.124567 1.07518e-19)
(-0.0884257 -0.130851 5.05647e-20)
(-0.102017 -0.136164 -1.42535e-19)
(-0.113735 -0.140754 8.817e-20)
(-0.123494 -0.144616 -1.23951e-19)
(-0.131257 -0.147569 2.66522e-19)
(-0.136996 -0.149331 -1.43014e-19)
(-0.14068 -0.149573 6.44845e-20)
(-0.142254 -0.14796 1.77159e-19)
(-0.141648 -0.14417 -5.97633e-20)
(-0.138765 -0.137911 -5.21057e-20)
(-0.133483 -0.128932 -4.79329e-20)
(-0.125646 -0.117018 0)
(-0.115088 -0.101978 -6.84937e-20)
(-0.101709 -0.0835966 -5.56497e-20)
(-0.0852954 -0.0614915 8.70321e-20)
(-0.0643823 -0.0347451 9.31277e-20)
(-0.0379244 -0.00172445 -8.43378e-20)
(0.00138084 -0.0109492 0)
(-0.000851617 -0.0317933 -1.43418e-19)
(-0.010843 -0.051206 -3.17117e-22)
(-0.0245967 -0.0675377 1.28071e-19)
(-0.0396433 -0.080684 0)
(-0.0545462 -0.0912744 0)
(-0.0682907 -0.100053 0)
(-0.0801993 -0.107639 -4.99563e-20)
(-0.0898732 -0.114428 6.21459e-22)
(-0.0970996 -0.120585 8.79414e-20)
(-0.101773 -0.126077 -1.21403e-19)
(-0.103843 -0.130734 8.67197e-22)
(-0.103279 -0.134299 0)
(-0.100055 -0.136477 -6.44569e-20)
(-0.094139 -0.13696 5.47618e-20)
(-0.0854944 -0.135457 -1.5833e-19)
(-0.074074 -0.131707 1.86074e-19)
(-0.0598166 -0.125496 3.3299e-20)
(-0.0426364 -0.116665 -9.72453e-21)
(-0.0224224 -0.105113 -1.34094e-19)
(0.000913483 -0.0907789 -5.40422e-20)
(0.0275149 -0.0734578 1.62907e-19)
(0.0585555 -0.052055 -1.02736e-19)
(0.0978857 -0.023691 0)
(-0.000744394 -0.0040624 6.92639e-20)
(-0.00472076 -0.0162215 7.16502e-20)
(-0.014372 -0.0305659 -6.82643e-20)
(-0.0264126 -0.0443644 -1.28626e-19)
(-0.0387535 -0.056691 1.21124e-19)
(-0.0501417 -0.0675563 -1.13971e-19)
(-0.0596535 -0.0772538 1.60941e-19)
(-0.0666442 -0.0861003 -4.96375e-20)
(-0.0707107 -0.0943122 9.40521e-20)
(-0.0716194 -0.10196 0)
(-0.0692432 -0.108974 7.91714e-20)
(-0.0635184 -0.11518 -1.50172e-19)
(-0.0544189 -0.120334 1.34956e-19)
(-0.0419426 -0.124154 -1.26756e-19)
(-0.0261063 -0.126352 0)
(-0.0069418 -0.126649 1.02026e-19)
(0.0155066 -0.124805 1.74827e-19)
(0.0411886 -0.120629 -1.65311e-19)
(0.0700585 -0.113995 -6.91374e-20)
(0.102085 -0.104866 -5.65826e-20)
(0.137218 -0.0933086 1.63239e-19)
(0.175601 -0.0794272 3.77987e-20)
(0.216265 -0.0630581 -3.98612e-20)
(0.272747 -0.0408443 3.01418e-20)
(-0.00323851 0.00179038 -6.92732e-20)
(-0.00913289 -0.00280313 2.17792e-19)
(-0.017991 -0.0125453 -6.84194e-20)
(-0.0274472 -0.0239394 1.2948e-19)
(-0.0359028 -0.0354066 -1.21926e-19)
(-0.0423467 -0.0464124 6.6566e-22)
(-0.0459733 -0.0568408 5.41289e-20)
(-0.0461818 -0.066725 2.01453e-19)
(-0.0425675 -0.0760997 -1.79572e-21)
(-0.0348774 -0.08493 -8.81658e-20)
(-0.022969 -0.0930925 0)
(-0.00678333 -0.100388 -7.24751e-20)
(0.0136708 -0.106564 1.38074e-19)
(0.0383234 -0.111339 1.21495e-19)
(0.0670471 -0.114427 -5.82855e-20)
(0.0996623 -0.115563 -5.16711e-22)
(0.135944 -0.114519 -4.48705e-20)
(0.175636 -0.111131 7.78568e-20)
(0.218461 -0.105309 6.91125e-20)
(0.264166 -0.0970497 -5.97724e-20)
(0.312253 -0.0865279 5.01788e-20)
(0.363956 -0.0736259 -4.2573e-20)
(0.411776 -0.0598354 0)
(0.487775 -0.0406025 -3.00891e-20)
(-0.00577752 0.00631084 7.06141e-20)
(-0.013419 0.00780061 -7.2802e-20)
(-0.0208733 0.00200596 6.97755e-20)
(-0.0267696 -0.00718265 0)
(-0.0300391 -0.0177264 0)
(-0.0299257 -0.0286557 1.16825e-19)
(-0.025767 -0.0395083 -1.08821e-19)
(-0.0170208 -0.0500571 1.01147e-19)
(-0.0032975 -0.0601573 -4.73662e-19)
(0.0156473 -0.0696573 1.05232e-21)
(0.0399251 -0.0783617 8.14954e-20)
(0.0695204 -0.0860288 0)
(0.104293 -0.0923831 -1.34117e-19)
(0.143982 -0.0971361 2.47214e-19)
(0.188207 -0.10001 -1.69662e-19)
(0.236487 -0.100764 -2.4358e-19)
(0.28826 -0.0992117 1.08771e-20)
(0.342911 -0.0952466 1.60178e-19)
(0.399793 -0.0888596 0)
(0.458415 -0.0800751 0)
(0.517323 -0.0693981 -5.01655e-20)
(0.580057 -0.0559257 4.25614e-20)
(0.630897 -0.043197 -1.36983e-19)
(0.719504 -0.0238607 1.28548e-19)
(-0.00804636 0.00934992 0)
(-0.016896 0.0151777 0)
(-0.0221525 0.0124784 -2.10433e-19)
(-0.0233741 0.00518642 6.67099e-20)
(-0.020015 -0.00440824 1.47736e-22)
(-0.011579 -0.0150294 1.18594e-19)
(0.00244565 -0.0259324 0)
(0.0225069 -0.0366639 -1.03089e-19)
(0.0489184 -0.0469102 9.51483e-20)
(0.0818262 -0.056399 -1.76313e-19)
(0.121187 -0.064855 1.5469e-21)
(0.166749 -0.0719904 1.47982e-19)
(0.21805 -0.077513 -4.44323e-21)
(0.274421 -0.0811471 1.16626e-19)
(0.335014 -0.0826577 -1.72325e-19)
(0.39884 -0.0818744 0)
(0.464827 -0.0787117 1.71062e-19)
(0.531881 -0.0731816 -2.38135e-19)
(0.598903 -0.0654235 6.80503e-20)
(0.665155 -0.0555303 0)
(0.728566 -0.0443441 5.13085e-20)
(0.793358 -0.0305467 1.67476e-19)
(0.842309 -0.0187241 -1.57171e-19)
(0.925269 -4.19641e-06 -1.59003e-19)
(-0.00977137 0.0109156 2.19456e-19)
(-0.0189125 0.0192133 -3.02868e-19)
(-0.0209524 0.0185965 2.98778e-23)
(-0.0162302 0.0127639 6.77485e-20)
(-0.00465795 0.00406988 -1.272e-19)
(0.0140021 -0.00601145 -1.17913e-19)
(0.0400722 -0.0165282 2.21217e-19)
(0.073828 -0.0268443 -2.77783e-21)
(0.115381 -0.0364977 -1.9383e-19)
(0.1646 -0.0451089 3.55348e-19)
(0.221058 -0.0523384 -3.98507e-21)
(0.284005 -0.0578786 -1.52756e-19)
(0.352377 -0.0614633 0)
(0.424837 -0.0628885 0)
(0.499847 -0.0620336 -5.58469e-20)
(0.575768 -0.0588785 -9.97599e-20)
(0.650967 -0.0535117 -1.71691e-19)
(0.723913 -0.0461319 1.61163e-19)
(0.793253 -0.0370391 -6.80702e-20)
(0.857992 -0.0265505 1.14972e-19)
(0.916782 -0.015374 -5.93756e-20)
(0.971613 -0.00289892 7.98307e-20)
(1.01287 0.00748684 -2.02629e-19)
(1.0721 0.0229113 3.29762e-20)
(-0.0107438 0.0111546 7.42027e-20)
(-0.0188731 0.0200861 0)
(-0.0163793 0.0204621 1.45133e-19)
(-0.00419992 0.0155758 -1.36723e-19)
(0.0173648 0.00771316 1.27308e-19)
(0.0482874 -0.00155224 0)
(0.088621 -0.0111334 0)
(0.138316 -0.0202633 -1.03742e-19)
(0.197054 -0.0283731 2.73237e-21)
(0.264137 -0.0350197 9.15271e-20)
(0.338421 -0.0398555 -8.07136e-20)
(0.418322 -0.0426263 1.53309e-19)
(0.501887 -0.0431818 0)
(0.586915 -0.0414887 2.43556e-19)
(0.671122 -0.0376367 -4.46856e-19)
(0.752307 -0.031835 3.04647e-19)
(0.828514 -0.0243939 1.72047e-19)
(0.898149 -0.015712 -1.61505e-19)
(0.960078 -0.0061978 0)
(1.01357 0.00361265 0)
(1.05855 0.0134562 0)
(1.09523 0.0227565 0)
(1.12285 0.0308841 3.97842e-20)
(1.1518 0.0405409 -1.39123e-19)
(-0.1508 0.134249 -7.41504e-21)
(-0.134735 0.207512 7.43743e-21)
(-0.116069 0.283529 -1.96449e-22)
(-0.0954325 0.358631 0)
(-0.0734767 0.429349 -5.45174e-21)
(-0.0509676 0.491848 1.01671e-20)
(-0.0282396 0.542936 -3.90179e-22)
(-0.00439624 0.579217 -4.22031e-21)
(0.023111 0.59633 0)
(0.0583173 0.589301 0)
(0.105309 0.552158 -2.16413e-22)
(0.166181 0.480794 -2.22993e-22)
(0.239253 0.375246 -3.90523e-21)
(0.319263 0.240431 3.56899e-21)
(0.400328 0.0840251 0)
(0.478661 -0.084954 0)
(0.551742 -0.25159 3.07192e-21)
(0.615464 -0.394546 -4.26673e-22)
(0.665029 -0.494835 -2.34067e-21)
(0.697649 -0.547242 -1.13012e-22)
(0.713411 -0.560943 0)
(0.716137 -0.549842 0)
(0.710061 -0.528671 0)
(0.692725 -0.515141 0)
(0.658783 -0.518798 0)
(0.613746 -0.520129 0)
(0.578864 -0.473553 5.02326e-22)
(0.575455 -0.344052 -7.78265e-22)
(0.606002 -0.145794 0)
(0.657891 0.0698253 0)
(0.714307 0.249595 -5.51495e-22)
(0.762451 0.368928 5.35979e-22)
(0.796897 0.427878 1.82219e-22)
(0.819051 0.444576 0)
(0.825456 0.450772 0)
(0.807184 0.468967 2.60197e-22)
(0.766959 0.486687 -2.52934e-22)
(0.726744 0.445766 0)
(0.708518 0.31997 3.74975e-22)
(0.721831 0.119254 -5.64567e-22)
(0.752423 -0.0793617 1.85096e-22)
(0.792271 -0.237049 0)
(0.827504 -0.32503 -2.08777e-22)
(0.843779 -0.368354 2.03012e-22)
(0.827678 -0.40161 0)
(0.782267 -0.39896 0)
(0.741463 -0.363607 -7.73492e-23)
(0.731382 -0.211909 2.22618e-22)
(0.754786 -0.0589925 0)
(0.796905 0.116674 0)
(0.823182 0.23356 -5.39188e-23)
(0.812501 0.310852 2.8177e-24)
(0.789475 0.388004 -3.36896e-24)
(0.7732 0.292424 4.21652e-23)
(0.784545 0.243102 0)
(0.806362 0.0233917 0)
(0.81221 -0.122929 0)
(0.801921 -0.223815 0)
(0.80316 -0.397323 0)
(0.785763 -0.174255 0)
(-0.207369 0.112522 -5.95818e-22)
(-0.193387 0.182436 -2.42196e-20)
(-0.175704 0.255326 1.29031e-21)
(-0.153685 0.328159 2.15436e-20)
(-0.127366 0.397565 2.76717e-22)
(-0.0967664 0.459401 0)
(-0.0613441 0.509577 -1.55411e-20)
(-0.0203183 0.542994 3.01276e-20)
(0.0286067 0.555477 -1.45926e-20)
(0.087892 0.54182 1.42836e-20)
(0.158397 0.497331 -1.36656e-20)
(0.239128 0.420109 1.51829e-20)
(0.326223 0.31215 -1.47646e-20)
(0.414167 0.178787 -5.18204e-22)
(0.498135 0.0260139 -1.61444e-20)
(0.576135 -0.138598 1.5688e-20)
(0.645881 -0.29973 -1.32781e-20)
(0.702097 -0.434487 1.25187e-20)
(0.739791 -0.523509 -8.81594e-21)
(0.75819 -0.56332 1.52225e-20)
(0.759875 -0.565973 -6.49543e-21)
(0.749697 -0.547263 -2.83806e-22)
(0.733262 -0.520025 -3.67139e-21)
(0.709866 -0.498628 7.018e-21)
(0.672539 -0.494306 -3.35288e-21)
(0.621627 -0.494803 2.08473e-22)
(0.574961 -0.459451 4.57608e-21)
(0.556768 -0.348715 7.83879e-22)
(0.575824 -0.167183 -9.86013e-21)
(0.622353 0.0396133 9.60647e-21)
(0.679003 0.21988 -4.55777e-21)
(0.731743 0.345469 4.16958e-22)
(0.774264 0.412043 -1.82602e-22)
(0.805098 0.436719 2.83557e-22)
(0.817884 0.452429 0)
(0.804149 0.47996 0)
(0.769165 0.502023 -1.23671e-21)
(0.736904 0.457702 8.60997e-22)
(0.726002 0.32311 1.23655e-21)
(0.744693 0.113487 2.36817e-22)
(0.77576 -0.0907844 -1.77195e-21)
(0.812072 -0.24926 3.27179e-22)
(0.841286 -0.333406 0)
(0.853482 -0.368241 0)
(0.835553 -0.392405 0)
(0.78736 -0.386072 0)
(0.744246 -0.355983 2.54787e-22)
(0.729644 -0.21382 -1.47528e-22)
(0.752802 -0.0685899 0)
(0.792706 0.107399 0)
(0.818815 0.230882 0)
(0.807942 0.314646 -8.9064e-23)
(0.784884 0.392559 2.22314e-24)
(0.771421 0.292917 -8.34531e-23)
(0.783511 0.239424 0)
(0.811305 0.0207962 0)
(0.817889 -0.122957 6.4642e-23)
(0.807924 -0.22251 1.73843e-22)
(0.808702 -0.395776 0)
(0.788463 -0.172937 0)
(-0.202991 0.0886757 -1.26264e-21)
(-0.191471 0.153531 -4.11978e-20)
(-0.174559 0.221606 3.7281e-20)
(-0.150999 0.29012 -3.49491e-20)
(-0.120466 0.356751 -2.78642e-22)
(-0.0825936 0.414636 0)
(-0.0372288 0.460713 -2.84688e-20)
(0.0171746 0.490224 2.78477e-20)
(0.0822592 0.49862 2.17358e-22)
(0.157622 0.480572 4.28495e-22)
(0.242219 0.432711 4.56726e-22)
(0.333286 0.354642 4.76798e-22)
(0.426291 0.249327 -3.40864e-20)
(0.516134 0.121627 3.36432e-20)
(0.599318 -0.0241601 0)
(0.675073 -0.181691 1.0384e-21)
(0.740399 -0.335322 -2.79091e-20)
(0.788316 -0.460759 2.75041e-20)
(0.813648 -0.539064 0)
(0.817782 -0.568562 0)
(0.806144 -0.563054 -1.09898e-20)
(0.7845 -0.539447 1.93097e-20)
(0.758715 -0.508835 -1.5244e-20)
(0.729817 -0.481538 6.88099e-22)
(0.690526 -0.469219 1.22526e-20)
(0.636269 -0.467229 -1.2937e-20)
(0.580058 -0.441949 1.35931e-20)
(0.547499 -0.351095 6.30816e-22)
(0.553617 -0.18867 -8.1429e-21)
(0.592755 0.00755038 0)
(0.648011 0.186626 0)
(0.704209 0.317648 2.11775e-21)
(0.754043 0.391979 -2.82295e-21)
(0.792909 0.425521 -1.99376e-23)
(0.8119 0.451558 2.11253e-21)
(0.803264 0.488619 -2.05307e-21)
(0.774272 0.515256 0)
(0.750101 0.468502 3.4256e-22)
(0.746324 0.326579 3.94052e-21)
(0.770168 0.109821 -7.87197e-21)
(0.801722 -0.0991044 3.41281e-21)
(0.834295 -0.258267 3.65575e-22)
(0.857131 -0.33958 -2.327e-21)
(0.864905 -0.367049 1.75782e-21)
(0.845376 -0.38276 2.90577e-22)
(0.794945 -0.372896 2.42216e-22)
(0.749984 -0.348384 -2.55425e-22)
(0.730822 -0.21619 0)
(0.753327 -0.0787287 0)
(0.79049 0.0976282 -8.08343e-22)
(0.816278 0.227905 4.00468e-22)
(0.805137 0.318064 -3.51912e-22)
(0.781871 0.397018 5.41744e-22)
(0.771045 0.293322 7.6475e-22)
(0.783902 0.235352 -1.64757e-22)
(0.817676 0.0179841 3.61932e-22)
(0.82493 -0.122967 -3.11586e-22)
(0.815021 -0.220915 1.58211e-22)
(0.815095 -0.393928 0)
(0.792026 -0.171506 0)
(-0.139541 0.0646265 -6.83797e-20)
(-0.130705 0.12369 3.38444e-21)
(-0.114658 0.185365 6.14149e-20)
(-0.0893975 0.247893 -4.94407e-22)
(-0.0571005 0.307423 0)
(-0.016786 0.359693 0)
(0.0351201 0.401219 -5.04867e-20)
(0.0977296 0.427421 -2.89544e-21)
(0.170983 0.432691 7.70663e-20)
(0.253698 0.412682 2.25253e-21)
(0.343676 0.365018 -2.84798e-20)
(0.437326 0.290093 -3.23398e-20)
(0.530067 0.191091 3.2382e-20)
(0.617684 0.0717378 0)
(0.698386 -0.0654148 -3.50877e-20)
(0.771674 -0.215064 3.19875e-20)
(0.832671 -0.360544 0)
(0.872275 -0.476254 0)
(0.885386 -0.544322 1.85242e-20)
(0.875722 -0.565228 -3.87664e-21)
(0.851642 -0.553782 -1.33474e-20)
(0.819991 -0.52716 -8.63673e-21)
(0.78602 -0.495383 8.55934e-21)
(0.751896 -0.464655 -6.06601e-21)
(0.711595 -0.444806 3.95235e-22)
(0.656831 -0.437889 5.33206e-21)
(0.594246 -0.419913 7.20137e-22)
(0.548268 -0.349088 8.92108e-23)
(0.54027 -0.20841 0)
(0.569841 -0.0253095 7.02038e-21)
(0.621723 0.150582 -7.19391e-21)
(0.68013 0.285922 3.71132e-22)
(0.736239 0.367944 0)
(0.782322 0.410921 -2.66916e-22)
(0.807312 0.447669 4.15606e-21)
(0.804246 0.494254 -8.10682e-21)
(0.781725 0.525863 -1.61487e-21)
(0.765598 0.478088 -1.3107e-21)
(0.768771 0.330816 5.52952e-21)
(0.797486 0.108607 9.31478e-22)
(0.829655 -0.104303 -6.47074e-21)
(0.858584 -0.2642 5.59013e-21)
(0.874899 -0.343708 -1.66121e-23)
(0.877873 -0.365053 1.37208e-21)
(0.856825 -0.372948 -1.62548e-21)
(0.804644 -0.359481 -1.61405e-21)
(0.75832 -0.340566 4.80986e-22)
(0.734603 -0.218741 8.31217e-22)
(0.756101 -0.0892247 -1.58747e-21)
(0.790126 0.0873865 1.15552e-21)
(0.815521 0.224581 -3.71345e-22)
(0.804122 0.321074 3.18324e-22)
(0.78057 0.40143 3.35551e-22)
(0.772233 0.293714 -1.20271e-21)
(0.785813 0.230935 5.30385e-25)
(0.825448 0.0149583 -4.29336e-22)
(0.833287 -0.122935 0)
(0.823199 -0.219018 -1.5425e-22)
(0.822299 -0.391765 1.84737e-22)
(0.796394 -0.169955 0)
(-0.0300808 0.0407587 5.5743e-20)
(-0.0241055 0.0917523 -1.0631e-19)
(-0.0102921 0.145848 5.00754e-20)
(0.0134073 0.201139 4.53938e-20)
(0.0460186 0.252975 -8.82723e-20)
(0.0883248 0.30044 -7.53217e-22)
(0.141674 0.337925 4.28106e-20)
(0.205875 0.360649 4.77364e-20)
(0.280285 0.363934 -4.67855e-20)
(0.363239 0.344178 0)
(0.451994 0.299472 -6.19281e-20)
(0.542859 0.230325 1.26893e-19)
(0.631575 0.139478 -6.48485e-20)
(0.715119 0.0294552 0)
(0.793071 -0.0984265 0)
(0.864259 -0.239449 1.06713e-21)
(0.920827 -0.375335 -5.75983e-20)
(0.951624 -0.480254 5.59504e-20)
(0.952594 -0.538521 0)
(0.930103 -0.552956 2.95342e-20)
(0.895008 -0.538405 -4.93196e-20)
(0.855176 -0.510916 3.75226e-20)
(0.814734 -0.479735 -2.96034e-20)
(0.77593 -0.44814 1.84836e-21)
(0.734936 -0.422623 2.04817e-20)
(0.681853 -0.409259 -9.63099e-21)
(0.616656 -0.394746 -3.27079e-22)
(0.55949 -0.341872 -5.16826e-21)
(0.536519 -0.224702 -5.38173e-22)
(0.554206 -0.0581252 5.7457e-21)
(0.600658 0.112407 3.77015e-22)
(0.659728 0.250666 -4.41749e-21)
(0.720754 0.340025 8.21497e-21)
(0.773057 0.392629 -4.24625e-21)
(0.803784 0.440174 0)
(0.806655 0.496252 -5.10845e-21)
(0.790912 0.533537 5.0653e-21)
(0.782686 0.486567 -6.10132e-21)
(0.792587 0.336093 7.58269e-21)
(0.825839 0.109736 -1.01077e-21)
(0.858899 -0.106425 0)
(0.884487 -0.266946 -7.56929e-22)
(0.894308 -0.345609 1.65062e-21)
(0.892185 -0.362201 0)
(0.869658 -0.363075 2.59635e-21)
(0.816118 -0.345974 -1.09913e-21)
(0.768841 -0.3325 4.1209e-22)
(0.740605 -0.221291 3.36104e-22)
(0.760797 -0.0999316 0)
(0.791433 0.0766743 0)
(0.816443 0.220821 -9.81623e-22)
(0.804907 0.323617 1.64516e-21)
(0.781099 0.405812 -1.05711e-21)
(0.775128 0.294174 3.90661e-22)
(0.789311 0.226213 8.57207e-22)
(0.834583 0.0117296 4.29743e-22)
(0.842897 -0.122834 -7.47953e-22)
(0.832433 -0.216778 0)
(0.830264 -0.38925 -3.04998e-22)
(0.801506 -0.168277 -1.12977e-23)
(0.107004 0.0140502 4.78604e-20)
(0.110851 0.0585036 -4.74633e-20)
(0.122612 0.105981 3.56334e-22)
(0.143636 0.154167 -2.83762e-22)
(0.174155 0.20052 3.19728e-22)
(0.214565 0.242375 -3.16688e-22)
(0.265367 0.275316 5.85014e-22)
(0.326565 0.295018 0)
(0.397359 0.297483 -7.0166e-22)
(0.47593 0.279553 7.8276e-22)
(0.559552 0.239416 8.69694e-22)
(0.644861 0.17722 -9.9453e-22)
(0.728212 0.09492 0)
(0.807979 -0.00587817 0)
(0.883912 -0.12476 1.0659e-21)
(0.9527 -0.256137 0)
(1.00357 -0.380638 -9.25476e-22)
(1.02447 -0.473886 0)
(1.01353 -0.523229 -3.60891e-20)
(0.979785 -0.533352 6.39255e-20)
(0.935592 -0.518246 -4.8736e-20)
(0.889373 -0.491787 2.10449e-20)
(0.844196 -0.462325 1.26901e-20)
(0.801429 -0.431739 -1.23243e-20)
(0.759577 -0.402968 -8.82612e-21)
(0.709528 -0.382939 8.55007e-21)
(0.645549 -0.367948 0)
(0.580701 -0.329294 2.17334e-22)
(0.542883 -0.235973 0)
(0.546672 -0.0889582 0)
(0.585474 0.0731412 7.85919e-21)
(0.643227 0.212395 -8.09521e-21)
(0.707443 0.308334 3.81631e-22)
(0.764812 0.37043 4.40259e-22)
(0.80095 0.428612 -4.13215e-22)
(0.809962 0.494104 -4.49349e-21)
(0.80114 0.537996 4.36319e-21)
(0.800553 0.49388 -7.77916e-21)
(0.816879 0.342482 6.79978e-21)
(0.854423 0.113028 2.05564e-21)
(0.888835 -0.105555 -7.01697e-21)
(0.911532 -0.266536 5.84803e-22)
(0.91504 -0.345228 4.15625e-21)
(0.907587 -0.35852 0)
(0.883595 -0.353265 -1.1039e-21)
(0.829 -0.332449 1.11807e-21)
(0.781083 -0.324085 -1.50282e-21)
(0.748404 -0.223658 -3.38233e-22)
(0.76704 -0.110742 0)
(0.794174 0.0654549 3.12331e-22)
(0.818891 0.216495 -5.365e-22)