/*--------------------------------*- C++ -*----------------------------------*\
| =========                 |                                                 |
| \\      /  F ield         | OpenFOAM: The Open Source CFD Toolbox           |
|  \\    /   O peration     | Version:  2512                                  |
|   \\  /    A nd           | Website:  www.openfoam.com                      |
|    \\/     M anipulation  |                                                 |
\*---------------------------------------------------------------------------*/
FoamFile
{
    version     2.0;
    format      ascii;
    arch        "LSB;label=32;scalar=64";
    class       volVectorField;
    location    "15";
    object      U;
}
// * * * * * * * * * * * * * * * * * * * * * * * * * * * * * * * * * * * * * //

dimensions      [0 1 -1 0 0 0 0];

internalField   nonuniform List<vector> 
13248
(
(-0.0131203 0.0119681 6.96291e-20)
(-0.0256097 0.0260494 0)
(-0.0247194 0.0341567 -1.31664e-19)
(-0.0110086 0.0382099 1.24029e-19)
(0.0151148 0.0397328 1.15989e-19)
(0.0533466 0.039923 0)
(0.1034 0.0397007 0)
(0.164891 0.0397684 2.79696e-19)
(0.237184 0.0406401 -1.05812e-21)
(0.31925 0.0426492 -2.44929e-19)
(0.40956 0.0459453 2.28477e-19)
(0.506058 0.0504936 -1.42934e-19)
(0.606219 0.0560837 0)
(0.707183 0.062354 -2.50389e-19)
(0.805953 0.0688294 4.695e-19)
(0.89961 0.074971 -1.11387e-19)
(0.985528 0.0802372 -2.04479e-19)
(1.06156 0.0841105 1.91954e-19)
(1.1262 0.0862606 0)
(1.17859 0.0861212 0)
(1.21879 0.0844283 0)
(1.24686 0.0783348 0)
(1.2651 0.0751581 6.21918e-20)
(1.2729 0.0559727 2.31433e-19)
(-0.0131628 0.0106559 -2.10222e-19)
(-0.0218382 0.0213694 1.43347e-19)
(-0.0136361 0.0265557 -1.28949e-21)
(0.0104352 0.0284609 -1.89373e-19)
(0.0497251 0.0288196 -1.15865e-19)
(0.103674 0.0289649 -1.09524e-19)
(0.171564 0.0298649 -2.01175e-19)
(0.252298 0.0321842 1.90263e-19)
(0.344202 0.036308 0)
(0.444913 0.0423449 6.22494e-22)
(0.5514 0.0501323 1.28619e-21)
(0.66012 0.059261 1.42933e-19)
(0.767287 0.0691265 0)
(0.869196 0.0790033 0)
(0.962548 0.0881331 1.72621e-19)
(1.04471 0.0958148 -3.2432e-19)
(1.11393 0.101481 1.97859e-19)
(1.1694 0.104752 -1.85755e-19)
(1.21126 0.105462 -8.3298e-20)
(1.24051 0.103638 -1.55067e-19)
(1.25867 0.099577 -6.66197e-20)
(1.26808 0.0932576 -1.26222e-19)
(1.27017 0.0868899 1.81629e-19)
(1.26849 0.0756822 5.30875e-20)
(-0.012281 0.00899275 0)
(-0.0147195 0.0161682 0)
(0.00382101 0.0189023 6.6977e-20)
(0.0416759 0.019563 6.16766e-20)
(0.0976933 0.0199935 -1.52383e-21)
(0.170677 0.021591 -1.13103e-19)
(0.258941 0.0252706 0)
(0.360025 0.0315061 -9.46291e-20)
(0.470572 0.0403543 8.91272e-20)
(0.586405 0.051477 6.97713e-22)
(0.702831 0.0641972 -1.53103e-19)
(0.815082 0.0775981 -1.41471e-19)
(0.91881 0.0906551 1.6209e-21)
(1.01051 0.102379 -1.19882e-19)
(1.08783 0.111943 2.85459e-19)
(1.14969 0.118777 0)
(1.19628 0.122613 -1.90956e-19)
(1.22883 0.12347 9.23187e-20)
(1.2494 0.121651 8.32263e-20)
(1.26042 0.117518 0)
(1.26447 0.111879 6.99951e-20)
(1.26375 0.104509 -2.44385e-19)
(1.25995 0.0982037 2.29416e-19)
(1.25577 0.0874589 1.4869e-19)
(-0.0100362 0.00690065 -7.43038e-20)
(-0.00320343 0.0104191 -7.68585e-20)
(0.0290565 0.0113776 6.9501e-20)
(0.0841809 0.0119985 0)
(0.160119 0.0140631 0)
(0.254461 0.0188727 -2.44528e-21)
(0.363841 0.0270759 0)
(0.483753 0.038691 -2.8961e-19)
(0.608703 0.053169 2.69438e-19)
(0.732692 0.0695013 -3.33195e-19)
(0.849891 0.0863925 7.6637e-20)
(0.955333 0.102477 0)
(1.04545 0.116531 1.29686e-19)
(1.11836 0.127642 -2.41122e-19)
(1.17385 0.135299 5.73033e-20)
(1.21319 0.13941 1.50872e-19)
(1.23868 0.140234 -4.7605e-21)
(1.2532 0.138281 -1.69287e-19)
(1.25968 0.134174 0)
(1.26077 0.128545 0)
(1.25853 0.122002 -6.29213e-20)
(1.25441 0.11471 5.71103e-20)
(1.24932 0.108246 2.09316e-19)
(1.2442 0.0987033 -1.96483e-19)
(-0.00599741 0.00443284 -7.83679e-20)
(0.0136942 0.00439567 -7.80776e-20)
(0.0632452 0.00455133 2.19595e-19)
(0.138872 0.00666215 -1.33209e-19)
(0.237058 0.0121915 1.25387e-19)
(0.353429 0.022066 2.27874e-19)
(0.482207 0.0363305 -1.61149e-19)
(0.61639 0.0542042 -1.96705e-19)
(0.748457 0.074278 3.41026e-21)
(0.871343 0.0947977 2.52241e-19)
(0.979387 0.113996 0)
(1.06898 0.130395 7.0377e-20)
(1.13877 0.143015 0)
(1.18948 0.151449 -1.1682e-19)
(1.22343 0.155815 1.64448e-19)
(1.24383 0.156623 1.54747e-21)
(1.25414 0.154592 -4.41039e-20)
(1.25757 0.150486 8.34773e-20)
(1.25669 0.14499 7.26901e-20)
(1.25333 0.138638 -6.59136e-20)
(1.24866 0.13185 6.29078e-20)
(1.24335 0.124718 -5.70975e-20)
(1.23767 0.118195 0)
(1.23234 0.109468 -4.41925e-20)
(0.000233988 0.00177325 7.83567e-20)
(0.0368015 -0.00130674 8.23235e-20)
(0.107171 -0.00058187 -7.35927e-20)
(0.205889 0.00487033 1.3715e-19)
(0.327243 0.0158231 -1.29089e-19)
(0.464114 0.0324126 1.16887e-19)
(0.607829 0.0536575 -5.61304e-20)
(0.749063 0.0776756 1.47668e-19)
(0.879208 0.10214 -9.30122e-20)
(0.991669 0.12478 1.66054e-19)
(1.08265 0.143803 -3.84332e-19)
(1.15129 0.158147 1.41747e-19)
(1.1992 0.16752 -1.25571e-19)
(1.22963 0.172269 1.17947e-19)
(1.2466 0.173153 1.03507e-19)
(1.25407 0.171093 9.21075e-20)
(1.25538 0.166972 -2.56627e-19)
(1.25307 0.161519 1.59768e-19)
(1.2488 0.155267 -7.26941e-20)
(1.2436 0.148573 1.92217e-19)
(1.23801 0.141666 -6.19336e-20)
(1.2323 0.134642 -1.54358e-19)
(1.22658 0.127997 1.43036e-19)
(1.22113 0.119877 4.41786e-20)
(0.00900212 -0.000780439 0)
(0.0666849 -0.00581894 7.38741e-22)
(0.161027 -0.00270681 1.54132e-19)
(0.284327 0.00816386 -1.44511e-19)
(0.427889 0.0263654 -1.30432e-19)
(0.581296 0.050732 2.42568e-19)
(0.73313 0.0788832 -1.1272e-19)
(0.87279 0.107771 1.50843e-19)
(0.99229 0.134449 -2.92337e-21)
(1.08731 0.156676 -8.59042e-20)
(1.15727 0.173234 1.8907e-19)
(1.20451 0.183921 -2.79887e-19)
(1.2332 0.189313 0)
(1.24809 0.190424 -5.58137e-20)
(1.25362 0.188386 -1.50479e-19)
(1.25336 0.184215 4.72e-20)
(1.24984 0.178704 1.55731e-21)
(1.24471 0.172406 -1.07352e-19)
(1.23891 0.165675 5.40205e-21)
(1.23292 0.158729 1.24785e-19)
(1.22697 0.1517 -5.66538e-20)
(1.22113 0.144673 -2.21876e-20)
(1.21539 0.137842 6.70626e-20)
(1.20986 0.130174 0)
(0.0205603 -0.00283739 0)
(0.103528 -0.00808255 4.18066e-20)
(0.22423 -0.000366079 -2.01294e-19)
(0.372073 0.0180159 7.32335e-20)
(0.534766 0.0448172 -6.89241e-20)
(0.698622 0.0770934 -6.31675e-20)
(0.850518 0.11095 -1.1191e-19)
(0.980396 0.142505 5.56753e-20)
(1.08282 0.168826 4.85768e-20)
(1.15705 0.188372 0)
(1.20603 0.200955 1.12527e-19)
(1.23475 0.207363 -1.68486e-19)
(1.24876 0.208889 1.25549e-19)
(1.25308 0.206913 5.58431e-20)
(1.25161 0.202625 -4.64778e-20)
(1.24705 0.196925 -3.95159e-20)
(1.24107 0.190417 -3.724e-20)
(1.23461 0.183477 1.10039e-19)
(1.22813 0.176329 0)
(1.22183 0.169101 5.67431e-20)
(1.21575 0.161874 4.87702e-20)
(1.20989 0.154711 -1.19932e-19)
(1.20418 0.147641 -8.38546e-20)
(1.19864 0.14027 7.7371e-20)
(0.0350205 -0.00393806 -4.52825e-20)
(0.147012 -0.006957 -1.79873e-21)
(0.2953 0.00782977 4.10068e-20)
(0.46586 0.0355401 1.14812e-19)
(0.642673 0.0714988 3.35355e-20)
(0.809671 0.110749 -6.47519e-20)
(0.95387 0.148192 5.91132e-20)
(1.0678 0.179816 -5.19889e-20)
(1.14996 0.203459 9.36876e-20)
(1.20352 0.21878 4.02086e-20)
(1.23426 0.226744 -1.14149e-19)
(1.24865 0.228955 3.38218e-20)
(1.25246 0.227106 5.82898e-20)
(1.25011 0.222636 -2.85898e-20)
(1.24461 0.216606 0)
(1.23776 0.209715 4.3505e-20)
(1.23057 0.202384 7.44252e-20)
(1.22348 0.194853 1.33209e-20)
(1.2167 0.187257 -6.25612e-20)
(1.21027 0.179673 2.64941e-20)
(1.20416 0.172158 0)
(1.19832 0.16474 -2.12181e-20)
(1.19267 0.157393 -2.03873e-20)
(1.18715 0.15016 0)
(0.0522974 -0.00358591 0)
(0.196232 -0.00133956 2.37569e-20)
(0.371873 0.0230028 4.39748e-20)
(0.561568 0.0612836 -1.17286e-19)
(0.7462 0.105988 3.79403e-20)
(0.909051 0.150344 0)
(1.03944 0.188786 5.73844e-20)
(1.13408 0.218043 -8.02001e-20)
(1.19581 0.237316 -4.68617e-20)
(1.23109 0.247638 2.12141e-20)
(1.2474 0.250956 -3.4412e-20)
(1.25154 0.24937 8.33176e-20)
(1.2487 0.244669 4.21436e-20)
(1.24238 0.238159 -2.90787e-20)
(1.23466 0.230688 -2.51057e-21)
(1.22665 0.222754 -8.13771e-20)
(1.21887 0.214633 3.71826e-20)
(1.21151 0.206473 -9.77067e-22)
(1.20462 0.198354 0)
(1.19818 0.190328 -2.6522e-20)
(1.19212 0.182429 0)
(1.18635 0.174658 6.12594e-20)
(1.1808 0.167009 -7.33414e-20)
(1.17534 0.159751 3.35905e-20)
(0.0720619 -0.00128665 -1.24586e-20)
(0.249674 0.00971788 -5.99959e-20)
(0.450858 0.045856 6.83478e-20)
(0.654716 0.0951462 4.01959e-20)
(0.840502 0.147237 -1.91478e-20)
(0.993064 0.19424 3.23972e-20)
(1.10588 0.231115 -1.5686e-20)
(1.18051 0.256084 2.62656e-20)
(1.22371 0.269995 0)
(1.24409 0.275125 6.00694e-20)
(1.24974 0.274092 -2.34413e-21)
(1.24696 0.269173 -4.87427e-20)
(1.24002 0.262041 2.10002e-20)
(1.23144 0.253775 -2.38781e-20)
(1.22256 0.245001 -9.23197e-21)
(1.21399 0.236056 1.05324e-20)
(1.20597 0.22711 -8.22562e-21)
(1.19854 0.218252 -4.50877e-20)
(1.19168 0.209533 2.76553e-20)
(1.18532 0.200986 5.72571e-21)
(1.17938 0.192625 5.08517e-21)
(1.17375 0.184432 4.52042e-21)
(1.16834 0.176473 0)
(1.16298 0.169022 0)
(0.0937942 0.0034179 1.24672e-20)
(0.305411 0.0269187 -1.24623e-20)
(0.528877 0.076581 -2.27987e-20)
(0.74114 0.136412 0)
(0.921937 0.193797 -9.53154e-21)
(1.05982 0.240822 -8.63154e-21)
(1.15355 0.273944 -1.48056e-20)
(1.20935 0.293339 0)
(1.23688 0.301472 0)
(1.24583 0.301569 0)
(1.24401 0.296582 0)
(1.23681 0.288725 0)
(1.22747 0.279439 -1.32191e-20)
(1.21771 0.269556 6.02835e-21)
(1.20831 0.259513 1.05557e-20)
(1.19956 0.249521 4.95086e-21)
(1.19153 0.239683 1.23406e-20)
(1.18419 0.230049 0)
(1.17748 0.220651 -3.01291e-21)
(1.17132 0.211507 -2.90616e-21)
(1.1656 0.202612 -5.0933e-21)
(1.16021 0.193954 -4.52767e-21)
(1.15503 0.185676 0)
(1.1499 0.177873 3.32334e-21)
(-0.00228119 0.00389176 7.42475e-21)
(-0.0107173 0.00916588 -7.7398e-21)
(-0.0256692 0.012671 -1.46994e-20)
(-0.043934 0.0149356 0)
(-0.0638229 0.0163209 -1.9788e-20)
(-0.0845477 0.0170975 6.2133e-21)
(-0.105592 0.0174735 -1.18336e-20)
(-0.126619 0.0175985 0)
(-0.147429 0.0175701 0)
(-0.16791 0.0174437 0)
(-0.187995 0.0172431 0)
(-0.207637 0.0169714 0)
(-0.226792 0.0166192 3.04142e-23)
(-0.245415 0.0161714 -8.17485e-21)
(-0.263451 0.0156101 1.56934e-20)
(-0.280838 0.0149175 2.24179e-20)
(-0.297505 0.014077 7.17145e-21)
(-0.313382 0.0130748 0)
(-0.328404 0.0119013 6.42633e-21)
(-0.342508 0.0105529 -1.82238e-20)
(-0.355616 0.00902753 -1.15661e-20)
(-0.367665 0.00732862 -1.09596e-20)
(-0.378799 0.00548789 0)
(-0.389414 0.00355597 0)
(-0.00292906 0.0101035 -2.23819e-20)
(-0.0117777 0.0235612 3.86921e-20)
(-0.0262746 0.0324407 -1.46453e-20)
(-0.0436226 0.0382252 -2.79571e-20)
(-0.0623229 0.041865 3.95023e-20)
(-0.0816608 0.0440322 -2.50857e-20)
(-0.101153 0.0452232 3.54261e-20)
(-0.12047 0.0457896 2.25285e-20)
(-0.139404 0.0459631 0)
(-0.157827 0.0458814 -2.03693e-20)
(-0.175651 0.0456125 -4.22545e-22)
(-0.192807 0.0451773 1.79874e-20)
(-0.209232 0.0445673 2.60853e-20)
(-0.224859 0.0437584 3.32497e-20)
(-0.239614 0.0427199 -1.5261e-20)
(-0.253415 0.0414215 -4.4626e-20)
(-0.266172 0.0398375 1.44647e-20)
(-0.277792 0.0379524 -5.41012e-20)
(-0.288188 0.0357658 0)
(-0.297287 0.033295 1.21728e-20)
(-0.304996 0.0305706 1.15488e-20)
(-0.311166 0.0276412 1.09428e-20)
(-0.315841 0.0246378 0)
(-0.319881 0.0217709 0)
(-0.00405429 0.0153072 0)
(-0.013587 0.0359035 7.83751e-20)
(-0.0271718 0.0497033 -2.956e-20)
(-0.0427309 0.0588495 2.80728e-20)
(-0.0591044 0.0647254 -7.96773e-20)
(-0.0757117 0.068318 0)
(-0.0921334 0.0703625 -4.78222e-20)
(-0.108061 0.0713873 2.24759e-20)
(-0.12328 0.0717488 -4.29897e-20)
(-0.137639 0.0716677 2.05371e-20)
(-0.151021 0.0712623 1.16462e-19)
(-0.163327 0.0705787 -5.47142e-20)
(-0.174466 0.0696161 -8.77083e-20)
(-0.184345 0.0683466 -3.42216e-20)
(-0.19287 0.0667297 -8.57077e-22)
(-0.19994 0.0647222 1.20476e-19)
(-0.205445 0.0622868 -5.69509e-20)
(-0.209271 0.0594003 -2.25816e-22)
(-0.211305 0.0560631 0)
(-0.211455 0.0523115 -4.9561e-20)
(-0.209621 0.0482287 0)
(-0.205531 0.0439527 -4.46371e-20)
(-0.19879 0.0397242 1.68348e-19)
(-0.190702 0.0359476 9.04526e-22)
(-0.0054484 0.0190368 0)
(-0.0158608 0.0451731 3.92224e-22)
(-0.0282719 0.063127 3.01129e-20)
(-0.0414684 0.0753032 -2.85738e-20)
(-0.05471 0.0833044 2.64104e-20)
(-0.067593 0.0883109 1.52278e-19)
(-0.079794 0.0912238 -4.78306e-20)
(-0.0910498 0.0927074 -4.56157e-20)
(-0.101156 0.0932258 8.61926e-20)
(-0.10995 0.0930802 -1.23009e-19)
(-0.117296 0.0924454 3.85672e-20)
(-0.123075 0.0914034 3.70065e-20)
(-0.127179 0.089973 0)
(-0.129504 0.0881335 3.33116e-20)
(-0.129951 0.0858416 0)
(-0.128421 0.083045 6.06642e-20)
(-0.124813 0.079691 -1.16163e-19)
(-0.119024 0.0757361 2.58505e-20)
(-0.110945 0.0711552 1.03798e-19)
(-0.100475 0.0659581 4.94968e-20)
(-0.0875581 0.0602211 0)
(-0.071999 0.0541489 -1.34527e-19)
(-0.0528455 0.04823 4.19832e-20)
(-0.0295199 0.0433727 0)
(-0.0068773 0.0211045 0)
(-0.0182719 0.0508526 -9.59521e-20)
(-0.0294781 0.0719109 -3.05348e-20)
(-0.0401036 0.08656 -5.72924e-20)
(-0.0498274 0.096408 5.39477e-20)
(-0.0584411 0.1027 -5.08691e-20)
(-0.0657439 0.10642 9.69477e-20)
(-0.0715482 0.108318 4.62345e-20)
(-0.0756888 0.108938 -1.29557e-19)
(-0.0780197 0.108651 8.26043e-20)
(-0.0784105 0.107691 -1.17031e-19)
(-0.0767439 0.106184 2.59939e-19)
(-0.072914 0.104181 -1.40053e-19)
(-0.0668249 0.101682 6.69584e-20)
(-0.0583893 0.0986563 1.9206e-19)
(-0.047527 0.0950536 -5.89456e-20)
(-0.0341632 0.0908173 -5.60778e-20)
(-0.0182255 0.0858897 -5.43348e-20)
(0.000360944 0.0802177 0)
(0.0216735 0.0737579 -1.00079e-19)
(0.045749 0.0665019 -9.60628e-20)
(0.0726565 0.0585684 1.33636e-19)
(0.103202 0.0505992 1.70284e-19)
(0.140683 0.0439603 -1.60176e-19)
(-0.00814874 0.0216101 0)
(-0.0205362 0.0529734 -1.30167e-19)
(-0.0307081 0.0758731 -4.7352e-22)
(-0.0388945 0.0921905 1.15424e-19)
(-0.045123 0.103379 0)
(-0.0493715 0.110642 0)
(-0.051577 0.114969 0)
(-0.0516536 0.117143 -4.61854e-20)
(-0.0495063 0.117755 -6.12387e-22)
(-0.0450367 0.117228 8.20616e-20)
(-0.0381474 0.115845 -1.17967e-19)
(-0.0287453 0.113779 -5.8781e-22)
(-0.0167437 0.111119 0)
(-0.00206371 0.107896 -6.69173e-20)
(0.015367 0.104099 6.43141e-20)
(0.0356132 0.099697 -1.80371e-19)
(0.0587362 0.0946412 2.30692e-19)
(0.0847931 0.0888767 5.67443e-20)
(0.113835 0.0823462 2.64155e-21)
(0.145924 0.0749929 -1.96582e-19)
(0.181068 0.0667615 -9.33226e-20)
(0.21952 0.0576123 3.11873e-19)
(0.259949 0.0478002 -2.09255e-19)
(0.31421 0.0392495 0)
(-0.00916418 0.0208833 6.4168e-20)
(-0.0224839 0.0520534 6.52594e-20)
(-0.0319056 0.0754347 -6.21605e-20)
(-0.0380075 0.0924057 -1.16593e-19)
(-0.0410513 0.104192 1.0978e-19)
(-0.0411699 0.111894 -1.0362e-19)
(-0.0384358 0.116452 1.46349e-19)
(-0.0328768 0.118637 -4.6204e-20)
(-0.0244861 0.119054 8.6823e-20)
(-0.013231 0.118154 0)
(0.000938769 0.116255 7.84627e-20)
(0.0180856 0.113568 -1.46601e-19)
(0.0382785 0.11022 1.40711e-19)
(0.0615899 0.106273 -1.32157e-19)
(0.0880985 0.101745 0)
(0.117878 0.0966287 1.19755e-19)
(0.151001 0.0908965 2.28581e-19)
(0.18754 0.0845099 -2.15198e-19)
(0.227551 0.0774222 -1.02079e-19)
(0.271116 0.069593 -9.95445e-20)
(0.317896 0.0609296 2.77624e-19)
(0.369508 0.0515786 8.79175e-20)
(0.41874 0.0408629 -8.17861e-20)
(0.492804 0.031497 7.70569e-20)
(-0.00993343 0.0193856 -6.41767e-20)
(-0.0240784 0.0489335 1.99387e-19)
(-0.0330227 0.0714851 -6.28701e-20)
(-0.0374213 0.0879912 1.17454e-19)
(-0.0376528 0.0994698 -1.10589e-19)
(-0.033962 0.106906 1.60765e-22)
(-0.0265343 0.111169 4.89643e-20)
(-0.0154976 0.112994 1.84567e-19)
(-0.000923599 0.11297 5.9648e-22)
(0.0171663 0.111557 -8.18827e-20)
(0.0387925 0.109094 0)
(0.0640097 0.105819 -7.35974e-20)
(0.0928981 0.101888 1.38223e-19)
(0.125549 0.0973969 1.32156e-19)
(0.16207 0.0923996 -6.21464e-20)
(0.202572 0.0869145 -8.00158e-22)
(0.247129 0.0809343 -5.6567e-20)
(0.295779 0.0744392 1.05774e-19)
(0.348462 0.0673907 1.02055e-19)
(0.405298 0.0598304 -9.68527e-20)
(0.464858 0.0514462 9.00427e-20)
(0.531548 0.0431817 -8.49869e-20)
(0.588751 0.0327076 0)
(0.683302 0.0247394 -7.69728e-20)
(-0.0105599 0.0175865 6.52893e-20)
(-0.025379 0.0445528 -6.67456e-20)
(-0.0339453 0.0651586 6.33335e-20)
(-0.0368031 0.0801336 0)
(-0.0343547 0.0903811 0)
(-0.0269078 0.0968054 1.04645e-19)
(-0.0147165 0.100215 -9.81025e-20)
(0.00203506 0.101301 9.21304e-20)
(0.0232422 0.100634 -4.33281e-19)
(0.0488749 0.0986663 -1.76636e-22)
(0.0789663 0.095748 7.66992e-20)
(0.113597 0.0921368 0)
(0.152876 0.0880163 -1.37869e-19)
(0.196918 0.0835122 2.60005e-19)
(0.245799 0.0786988 -1.84525e-19)
(0.299529 0.0736053 -2.93228e-19)
(0.358032 0.0682415 -2.19715e-21)
(0.4211 0.0626042 2.06815e-19)
(0.488247 0.0566308 0)
(0.559413 0.0505131 0)
(0.631572 0.043491 -9.00361e-20)
(0.711549 0.0376455 8.49793e-20)
(0.774662 0.0283668 -3.16354e-19)
(0.881752 0.0240742 2.96553e-19)
(-0.0111764 0.015852 0)
(-0.0264308 0.0397276 0)
(-0.0343743 0.0575747 -1.90393e-19)
(-0.0353789 0.0701689 6.04989e-20)
(-0.0298165 0.078428 5.27817e-22)
(-0.0180074 0.0832396 1.05475e-19)
(-0.000213996 0.0853842 0)
(0.0233896 0.085527 -9.2118e-20)
(0.0527259 0.0842219 8.65744e-20)
(0.0877993 0.0819193 -1.62297e-19)
(0.128668 0.078974 -1.9833e-22)
(0.175405 0.0756561 1.44478e-19)
(0.228041 0.07216 7.28132e-22)
(0.286523 0.0686143 1.29807e-19)
(0.350651 0.0650852 -1.81798e-19)
(0.420029 0.0615946 0)
(0.494036 0.0581208 2.185e-19)
(0.57183 0.0546177 -3.09027e-19)
(0.652195 0.0509477 9.6155e-20)
(0.734361 0.047288 0)
(0.814622 0.0426604 8.52857e-20)
(0.898767 0.0394986 3.26773e-19)
(0.963054 0.031904 -3.06667e-19)
(1.06359 0.0312473 -3.56476e-19)
(-0.0118641 0.0143697 1.99653e-19)
(-0.0271238 0.0349796 -2.74236e-19)
(-0.0337001 0.0496103 6.91016e-22)
(-0.031855 0.0593228 6.08614e-20)
(-0.0219189 0.0651746 -1.13185e-19)
(-0.00418303 0.0681081 -1.0512e-19)
(0.0211363 0.0689206 1.96601e-19)
(0.0539175 0.0682785 -9.56909e-22)
(0.0941184 0.0667342 -1.73089e-19)
(0.141727 0.0647347 3.24283e-19)
(0.196694 0.0626277 3.66745e-22)
(0.258849 0.0606674 -1.43157e-19)
(0.327832 0.0590179 0)
(0.403019 0.0577567 0)
(0.483488 0.0568784 -6.04214e-20)
(0.568004 0.0563022 -1.12488e-19)
(0.655048 0.055885 -2.14408e-19)
(0.742873 0.0554215 2.01256e-19)
(0.829562 0.0546998 -9.61948e-20)
(0.91335 0.0534934 1.78676e-19)
(0.991522 0.0513782 -8.54605e-20)
(1.06581 0.0492218 1.56806e-19)
(1.12299 0.0433218 -3.66277e-19)
(1.19675 0.0429224 7.00624e-20)
(-0.0125764 0.013127 6.72754e-20)
(-0.0270751 0.0304678 0)
(-0.0309306 0.0417676 1.29839e-19)
(-0.0244513 0.0485152 -1.22313e-19)
(-0.00795861 0.0519906 1.13291e-19)
(0.0182928 0.0532483 0)
(0.054126 0.0531393 0)
(0.0994146 0.0523507 -9.22758e-20)
(0.154007 0.0514315 7.73337e-22)
(0.217623 0.0508026 8.13814e-20)
(0.289741 0.0507608 -7.59305e-20)
(0.369507 0.0514765 1.42833e-19)
(0.45567 0.0529927 0)
(0.54658 0.0552298 2.52742e-19)
(0.640233 0.0579956 -4.75045e-19)
(0.734363 0.0610032 3.35758e-19)
(0.826574 0.0639064 2.09833e-19)
(0.914475 0.066285 -1.96969e-19)
(0.995894 0.0678573 0)
(1.06884 0.0679398 0)
(1.13208 0.0670389 0)
(1.18478 0.0632812 0)
(1.22495 0.0590166 7.15935e-20)
(1.26366 0.0529692 -2.58591e-19)
(-0.40112 0.00104988 -6.95069e-21)
(-0.414484 -0.00369342 6.96966e-21)
(-0.422782 -0.00844633 -2.12749e-22)
(-0.427394 -0.0133164 0)
(-0.426956 -0.0181556 -6.02374e-21)
(-0.421046 -0.0228749 1.14529e-20)
(-0.408878 -0.0272618 -3.32542e-22)
(-0.389958 -0.031239 -4.96587e-21)
(-0.363811 -0.0344125 0)
(-0.329992 -0.0364962 0)
(-0.288221 -0.0372321 -1.89232e-22)
(-0.238527 -0.0365018 -1.49141e-22)
(-0.181181 -0.0342417 -1.57407e-21)
(-0.11684 -0.030133 1.4229e-21)
(-0.0466298 -0.0248302 0)
(0.0278872 -0.0183836 0)
(0.10496 -0.0114079 -3.43149e-22)
(0.182756 -0.0044034 -2.46434e-22)
(0.259402 0.00215515 5.21995e-22)
(0.333178 0.00788641 4.85716e-23)
(0.402747 0.0125513 0)
(0.467214 0.0160754 0)
(0.526079 0.0185827 0)
(0.579207 0.0202378 0)
(0.626759 0.0211881 0)
(0.669082 0.0216131 0)
(0.706661 0.0216715 -1.95993e-22)
(0.740017 0.0215195 3.19225e-22)
(0.769679 0.021257 0)
(0.7962 0.0209321 0)
(0.820056 0.0206461 1.59648e-22)
(0.841626 0.0204478 -1.55159e-22)
(0.861272 0.0203134 -6.45228e-23)
(0.879278 0.0203092 0)
(0.895811 0.020438 0)
(0.910914 0.0207282 -8.23583e-23)
(0.924558 0.0211065 8.00564e-23)
(0.936629 0.0216281 0)
(0.947094 0.022085 -5.50109e-23)
(0.95594 0.0227641 7.88121e-23)
(0.963326 0.0231865 -2.21206e-23)
(0.969381 0.024199 0)
(0.974366 0.0245852 3.20436e-23)
(0.978425 0.026234 -3.11591e-23)
(0.981777 0.026482 0)
(0.984536 0.0289391 0)
(0.986837 0.0289134 9.40018e-24)
(0.988769 0.0321366 -2.64725e-23)
(0.990426 0.0319276 0)
(0.991825 0.0357318 0)
(0.993086 0.0355472 5.4168e-24)
(0.994166 0.0399605 -8.44071e-27)
(0.995116 0.0396837 5.59724e-25)
(0.996061 0.0451279 -3.34623e-24)
(0.99673 0.0445574 0)
(0.997625 0.0511609 0)
(0.998091 0.0506324 0)
(0.998987 0.0582655 0)
(0.99924 0.0579242 0)
(1.00027 0.0668562 0)
(-0.325092 0.018103 -6.86394e-22)
(-0.337664 0.00841391 -2.83848e-20)
(-0.343806 -0.00122739 4.5743e-22)
(-0.346587 -0.0117295 2.61934e-20)
(-0.344891 -0.0225661 3.97251e-22)
(-0.33824 -0.0335763 0)
(-0.326005 -0.0444873 -2.05739e-20)
(-0.307686 -0.0550411 3.9045e-20)
(-0.282828 -0.0648335 -1.8463e-20)
(-0.251041 -0.0734207 1.37591e-20)
(-0.212103 -0.0803234 -1.31836e-20)
(-0.166131 -0.0851015 8.37266e-21)
(-0.11306 -0.0878036 -8.18425e-21)
(-0.0538412 -0.0870389 -1.55104e-22)
(0.0106186 -0.0837292 -1.68391e-21)
(0.0791087 -0.0779123 1.63634e-21)
(0.149703 -0.0700488 1.3387e-21)
(0.220961 -0.0607199 -1.24553e-21)
(0.291284 -0.0506597 2.96173e-21)
(0.359183 -0.0405944 -6.14136e-21)
(0.42348 -0.0311348 3.16303e-21)
(0.483403 -0.0227255 2.04592e-22)
(0.538515 -0.0155227 3.14547e-21)
(0.588594 -0.00950072 -5.97192e-21)
(0.633697 -0.00460058 2.83298e-21)
(0.674102 -0.00069266 -1.54261e-22)
(0.710204 0.00238992 -2.19511e-21)
(0.742436 0.00478323 1.22472e-22)
(0.77124 0.00671794 3.48763e-21)
(0.797106 0.00836643 -3.07176e-21)
(0.820482 0.00971582 1.41826e-21)
(0.841688 0.0108863 -1.47224e-22)
(0.861074 0.0118741 6.46539e-23)
(0.878925 0.0128158 -1.13302e-22)
(0.895386 0.0137732 0)
(0.91049 0.0148546 0)
(0.924191 0.0160179 2.89726e-22)
(0.936358 0.0173157 -2.14951e-22)
(0.946937 0.0185122 -1.62939e-22)
(0.955894 0.0198672 -3.47166e-24)
(0.963376 0.0208688 2.09916e-22)
(0.969508 0.0223661 -3.88022e-23)
(0.974556 0.0231309 0)
(0.978662 0.025088 0)
(0.98206 0.0255626 0)
(0.984851 0.0282075 0)
(0.987191 0.0283155 -3.97654e-23)
(0.989151 0.0316486 1.73467e-23)
(0.990838 0.0315219 0)
(0.992274 0.0353889 0)
(0.993553 0.035255 0)
(0.994681 0.0397108 8.78861e-24)
(0.995647 0.0394611 -1.15005e-24)
(0.996644 0.0449379 7.22201e-24)
(0.99733 0.0443852 0)
(0.998288 0.0510069 0)
(0.998765 0.0504933 -3.29289e-24)
(0.999743 0.0581395 -7.70324e-24)
(1 0.0578035 0)
(1.00113 0.0667467 0)
(-0.185952 0.0319888 1.13863e-21)
(-0.194465 0.0180174 -5.82872e-20)
(-0.196633 0.00409801 5.72785e-20)
(-0.195821 -0.0109862 -5.35515e-20)
(-0.191045 -0.0268238 -3.99884e-22)
(-0.182077 -0.0432778 0)
(-0.168351 -0.0599421 -4.3888e-20)
(-0.149461 -0.0762705 4.29779e-20)
(-0.125057 -0.0919315 2.77546e-22)
(-0.0948043 -0.10634 4.99812e-22)
(-0.0585706 -0.118837 4.17653e-22)
(-0.0169563 -0.128722 3.13489e-22)
(0.030878 -0.135061 -1.30838e-20)
(0.0843319 -0.137595 1.28705e-20)
(0.141191 -0.136099 0)
(0.200869 -0.130939 8.30094e-23)
(0.261904 -0.122326 2.19269e-21)
(0.322956 -0.110952 -2.18619e-21)
(0.382749 -0.0977983 0)
(0.440177 -0.0839041 0)
(0.494389 -0.0701989 6.73338e-21)
(0.544852 -0.0574154 -1.32348e-20)
(0.591322 -0.0460503 1.24801e-20)
(0.633692 -0.036218 -4.34277e-22)
(0.672015 -0.0278668 -1.06877e-20)
(0.706517 -0.0208925 1.00099e-20)
(0.737504 -0.0151315 -8.57227e-21)
(0.765344 -0.0104202 6.01717e-22)
(0.790442 -0.0065336 3.65162e-21)
(0.813095 -0.00327048 0)
(0.833644 -0.00057929 0)
(0.852393 0.00163288 -8.29119e-22)
(0.869644 0.00368685 1.0923e-21)
(0.885658 0.00560027 5.89111e-25)
(0.900558 0.00736407 -7.59017e-22)
(0.914372 0.00917652 7.37633e-22)
(0.927034 0.0110595 0)
(0.938398 0.0130837 -6.69441e-23)
(0.948385 0.0149843 -5.03412e-22)
(0.956924 0.0169915 9.23224e-22)
(0.964126 0.018557 -3.77634e-22)
(0.970076 0.0205299 -3.90752e-23)
(0.975018 0.0216671 3.27154e-22)
(0.979062 0.0239285 -2.51766e-22)
(0.98244 0.0246272 -5.21601e-23)
(0.985221 0.0274591 -4.5644e-23)
(0.987576 0.0276996 3.98665e-23)
(0.989551 0.0311436 0)
(0.991258 0.0310978 0)
(0.992728 0.0350294 1.03619e-22)
(0.994023 0.0349449 -4.89983e-23)
(0.995197 0.0394448 3.99754e-23)
(0.996177 0.0392211 -5.13447e-23)
(0.997227 0.0447321 -5.5985e-23)
(0.99793 0.0441961 1.31254e-23)
(0.998952 0.0508384 -1.95844e-23)
(0.999438 0.0503386 1.51684e-23)
(1.0005 0.0580006 -6.43814e-24)
(1.00076 0.0576694 0)
(1.00199 0.0666269 0)
(-0.0161114 0.037736 -1.22668e-19)
(-0.018921 0.0229936 6.8484e-22)
(-0.0153739 0.00565151 1.15708e-19)
(-0.00980607 -0.0130884 -8.69976e-22)
(-0.001505 -0.0328392 0)
(0.00995862 -0.053401 0)
(0.0255882 -0.0743775 -9.16986e-20)
(0.0455052 -0.0953843 5.70922e-21)
(0.0696983 -0.115884 1.16478e-19)
(0.0985689 -0.135125 -4.74347e-21)
(0.132196 -0.152286 -3.04201e-20)
(0.170228 -0.166436 -1.92001e-20)
(0.212392 -0.17579 1.93601e-20)
(0.258385 -0.18098 0)
(0.306852 -0.181132 -5.29552e-21)
(0.356771 -0.176236 4.93909e-21)
(0.406938 -0.166682 0)
(0.45627 -0.15332 0)
(0.503851 -0.13735 -4.92953e-21)
(0.548984 -0.120092 -9.92996e-22)
(0.59119 -0.102751 5.42301e-21)
(0.630199 -0.0862685 6.38274e-21)
(0.666001 -0.0713651 -6.37134e-21)
(0.698687 -0.0582958 5.78072e-21)
(0.728337 -0.0470394 -4.60868e-22)
(0.755127 -0.0374929 -4.99969e-21)
(0.779307 -0.0294986 -5.42916e-22)
(0.801149 -0.0228403 -5.92101e-24)
(0.820945 -0.0173514 0)
(0.838936 -0.0128603 -2.90744e-21)
(0.855362 -0.00912629 2.99107e-21)
(0.870537 -0.00600992 -1.48128e-22)
(0.884665 -0.00323202 0)
(0.897797 -0.000791904 1.14066e-22)
(0.910119 0.0016163 -1.52086e-21)
(0.921721 0.00408856 2.63825e-21)
(0.932535 0.00657135 2.65313e-23)
(0.942408 0.00919794 -1.12973e-22)
(0.95124 0.0116974 -8.77624e-22)
(0.958927 0.0142744 -1.02881e-22)
(0.965526 0.0163426 6.83068e-22)
(0.971067 0.0187477 -5.8537e-22)
(0.975748 0.0202279 7.65174e-26)
(0.979627 0.0227747 -2.28021e-22)
(0.982919 0.0236853 2.74019e-22)
(0.985649 0.0266979 3.12232e-22)
(0.987994 0.0270666 -8.92684e-23)
(0.989969 0.0306208 -1.33432e-22)
(0.991689 0.0306538 2.46138e-22)
(0.993187 0.0346517 -1.66585e-22)
(0.994494 0.0346151 4.12788e-23)
(0.995714 0.0391609 -4.98654e-23)
(0.996708 0.0389624 -3.91117e-23)
(0.997809 0.0445092 8.52855e-23)
(0.998529 0.0439893 -2.10992e-24)
(0.999614 0.0506546 1.96605e-23)
(1.00011 0.0501676 0)
(1.00125 0.0578482 6.48183e-24)
(1.00152 0.0575216 -8.86707e-24)
(1.00285 0.0664968 0)
(0.159059 0.0361271 1.24807e-19)
(0.164811 0.022021 -2.44553e-19)
(0.172412 0.00331181 1.18294e-19)
(0.182838 -0.017559 1.145e-19)
(0.195315 -0.0398769 -2.212e-19)
(0.20986 -0.0632962 4.37784e-21)
(0.227205 -0.0874295 1.0031e-19)
(0.247761 -0.112024 8.59492e-20)
(0.271647 -0.136248 -8.41485e-20)
(0.29898 -0.159245 0)
(0.329718 -0.179977 -5.47923e-20)
(0.363474 -0.197304 9.698e-20)
(0.399794 -0.209874 -4.24511e-20)
(0.43811 -0.217 0)
(0.477351 -0.218105 0)
(0.516581 -0.21315 1.24015e-22)
(0.554944 -0.202582 2.09298e-22)
(0.59174 -0.187384 -2.03322e-22)
(0.626491 -0.168966 0)
(0.658937 -0.148881 -1.03913e-20)
(0.688987 -0.128564 2.10199e-20)
(0.716608 -0.1091 -2.23363e-20)
(0.741927 -0.0912944 2.27862e-20)
(0.765174 -0.0756074 -2.39274e-22)
(0.786445 -0.06205 -2.06432e-20)
(0.805826 -0.0504994 9.93795e-21)
(0.823459 -0.0407801 2.70633e-22)
(0.839509 -0.0326667 3.42238e-21)
(0.854168 -0.025942 -3.00917e-22)
(0.867599 -0.0203757 -3.16497e-21)
(0.879959 -0.0157324 -1.68188e-22)
(0.891433 -0.0118057 2.24239e-21)
(0.902144 -0.00855483 -4.15141e-21)
(0.912256 -0.00573168 2.14277e-21)
(0.921888 -0.00303359 0)
(0.930994 -0.000203484 1.51464e-21)
(0.939611 0.00275863 -1.45491e-21)
(0.947667 0.00583987 8.95319e-22)
(0.955048 0.00879575 -1.11946e-21)
(0.961631 0.0118241 1.03487e-22)
(0.967425 0.0143033 0)
(0.972403 0.0170735 7.90689e-23)
(0.97671 0.0188493 -2.07318e-22)
(0.980344 0.0216501 0)
(0.983496 0.0227522 -5.07812e-22)
(0.986138 0.0259334 2.05722e-22)
(0.98845 0.0264224 -8.08261e-23)
(0.990409 0.030084 -7.07579e-23)
(0.992133 0.0301926 0)
(0.993654 0.0342573 0)
(0.99497 0.0342668 1.34901e-22)
(0.996233 0.0388598 -2.02048e-22)
(0.997239 0.0386859 1.08361e-22)
(0.998391 0.0442697 -3.34162e-23)
(0.999126 0.0437652 -5.28096e-23)
(1.00028 0.0504556 -1.96792e-23)
(1.00078 0.0499808 3.05596e-23)
(1.00201 0.0576823 0)
(1.00228 0.0573604 1.42922e-23)
(1.00371 0.0663562 3.33537e-24)
(0.332901 0.0310016 1.26266e-19)
(0.344285 0.015886 -1.25501e-19)
(0.355645 -0.00316514 9.48311e-22)
(0.369726 -0.0243865 -9.11509e-22)
(0.385549 -0.0474921 8.8053e-22)
(0.402661 -0.0724759 -8.34688e-22)
(0.421636 -0.0987815 1.56699e-21)
(0.442832 -0.125743 0)
(0.46625 -0.15261 -1.31322e-21)
(0.491828 -0.178397 1.16422e-21)
(0.51937 -0.201826 1.00441e-21)
(0.548376 -0.221522 -7.95838e-22)
(0.578176 -0.236055 0)
(0.608017 -0.244439 0)
(0.637026 -0.246058 3.5835e-22)
(0.664539 -0.240877 0)
(0.690153 -0.229421 -1.11865e-22)
(0.713705 -0.212793 0)
(0.735266 -0.192568 5.82361e-21)
(0.755069 -0.170454 -1.37956e-20)
(0.773408 -0.148016 1.75186e-20)
(0.790469 -0.126457 -9.42048e-21)
(0.806391 -0.106554 -1.03846e-20)
(0.821405 -0.0889081 1.00845e-20)
(0.835599 -0.073621 9.78089e-21)
(0.848903 -0.0605563 -9.48332e-21)
(0.861285 -0.0495187 0)
(0.872765 -0.0402693 -2.274e-22)
(0.883401 -0.0325692 0)
(0.893251 -0.0261811 0)
(0.902377 -0.0208634 -4.73089e-21)
(0.910879 -0.0164129 4.91018e-21)
(0.918849 -0.0126776 -2.55579e-22)
(0.926361 -0.00940131 -2.28906e-22)
(0.933558 -0.00648699 1.98867e-22)
(0.940487 -0.00357775 1.34501e-21)
(0.947092 -0.000349487 -1.30597e-21)
(0.953356 0.00305159 1.17322e-21)
(0.959268 0.00632751 -1.00664e-21)
(0.964697 0.00968531 -2.08778e-22)
(0.969624 0.0124767 6.94409e-22)
(0.973974 0.0155373 1.22487e-23)
(0.977849 0.0175543 -4.49837e-22)
(0.98119 0.0205715 0)
(0.984163 0.0218397 2.13244e-22)
(0.986688 0.025174 -2.61599e-22)
(0.988946 0.0257728 3.4455e-22)
(0.990875 0.0295372 7.12083e-23)
(0.992592 0.0297167 0)
(0.99413 0.0338481 -4.8441e-23)
(0.99545 0.0339016 9.96735e-23)