/*--------------------------------*- C++ -*----------------------------------*\
| =========                 |                                                 |
| \\      /  F ield         | OpenFOAM: The Open Source CFD Toolbox           |
|  \\    /   O peration     | Version:  2512                                  |
|   \\  /    A nd           | Website:  www.openfoam.com                      |
|    \\/     M anipulation  |                                                 |
\*---------------------------------------------------------------------------*/
FoamFile
{
    version     2.0;
    format      ascii;
    arch        "LSB;label=32;scalar=64";
    class       volVectorField;
    location    "195";
    object      U;
}
// * * * * * * * * * * * * * * * * * * * * * * * * * * * * * * * * * * * * * //

dimensions      [0 1 -1 0 0 0 0];

internalField   nonuniform List<vector> 
13248
(
(-0.011943 0.0101708 6.45893e-20)
(-0.0224081 0.01951 0)
(-0.0209596 0.0221505 -1.22418e-19)
(-0.00755547 0.0211339 1.15322e-19)
(0.018003 0.0184613 1.07746e-19)
(0.0558887 0.0154789 0)
(0.106157 0.0131228 0)
(0.168582 0.0120434 2.53402e-19)
(0.242497 0.0126709 -3.22307e-21)
(0.326667 0.0152434 -2.17743e-19)
(0.419242 0.0198098 1.97053e-19)
(0.517801 0.0262278 -1.22673e-19)
(0.619481 0.0341705 0)
(0.721174 0.0431483 -2.0191e-19)
(0.819759 0.0525507 3.75056e-19)
(0.91233 0.0617002 -8.80743e-20)
(0.9964 0.0699199 -1.56982e-19)
(1.07006 0.0765739 1.47366e-19)
(1.13208 0.0812071 0)
(1.18196 0.0832391 0)
(1.21988 0.0831521 0)
(1.24672 0.0786847 0)
(1.26357 0.0756431 4.70618e-20)
(1.27309 0.0592028 1.76127e-19)
(-0.0125545 0.00988211 -1.9524e-19)
(-0.0195463 0.0178475 1.3344e-19)
(-0.0100542 0.0194823 -1.16971e-21)
(0.0151485 0.0178341 -1.76368e-19)
(0.0557273 0.0150438 -1.07626e-19)
(0.111354 0.0126278 -1.01542e-19)
(0.181405 0.0116288 -1.8447e-19)
(0.264707 0.0127174 1.74767e-19)
(0.359337 0.0162444 0)
(0.462567 0.0222593 1.66779e-21)
(0.570961 0.0305239 4.00515e-21)
(0.680621 0.0405416 1.23953e-19)
(0.787531 0.0516142 0)
(0.887925 0.0629219 0)
(0.978622 0.0736187 1.38507e-19)
(1.05727 0.0829254 -2.59992e-19)
(1.12249 0.0902098 1.55152e-19)
(1.1739 0.0950391 -1.4566e-19)
(1.21208 0.0972061 -6.48591e-20)
(1.23837 0.0967011 -1.18641e-19)
(1.2546 0.0937633 -5.07971e-20)
(1.26313 0.0884211 -9.58364e-20)
(1.26534 0.0823784 1.38434e-19)
(1.26541 0.0721158 4.04638e-20)
(-0.0118423 0.00865222 0)
(-0.0126413 0.01425 0)
(0.00783344 0.0147685 6.23877e-20)
(0.0479507 0.0130393 5.73331e-20)
(0.106645 0.0111915 -1.68512e-21)
(0.182716 0.0107894 -1.05258e-19)
(0.274328 0.0128364 0)
(0.378719 0.0178363 -8.65129e-20)
(0.492107 0.0258341 8.09031e-20)
(0.609869 0.0364529 1.01348e-21)
(0.726937 0.0489625 -1.34935e-19)
(0.838339 0.0623908 -1.21752e-19)
(0.939737 0.0756663 3.27057e-21)
(1.02786 0.0877666 -9.81095e-20)
(1.10075 0.0978472 2.36902e-19)
(1.15785 0.105329 0)
(1.19985 0.109938 -1.52398e-19)
(1.22846 0.111679 7.36261e-20)
(1.24605 0.110821 6.48047e-20)
(1.25522 0.107687 0)
(1.2585 0.10298 5.37863e-20)
(1.258 0.0964845 -1.87772e-19)
(1.25505 0.0906201 1.7627e-19)
(1.25227 0.0806988 1.13591e-19)
(-0.0094986 0.00665167 -6.95339e-20)
(-0.000840931 0.00915856 -7.19638e-20)
(0.0338991 0.00871885 6.48965e-20)
(0.0921041 0.00774411 0)
(0.171632 0.0081791 0)
(0.269851 0.0114465 -2.39692e-21)
(0.383024 0.0182635 0)
(0.506155 0.0286698 -2.65077e-19)
(0.633242 0.0421045 2.4501e-19)
(0.757879 0.0575337 -3.00349e-19)
(0.874042 0.0736426 6.77769e-20)
(0.976841 0.0890653 0)
(1.06303 0.102602 1.10886e-19)
(1.13124 0.113381 -2.04655e-19)
(1.18184 0.120938 4.84066e-20)
(1.21665 0.125207 1.23139e-19)
(1.23839 0.126453 -5.74402e-21)
(1.25017 0.12515 -1.37851e-19)
(1.25496 0.121852 0)
(1.25531 0.117106 0)
(1.25305 0.1114 -4.94277e-20)
(1.24941 0.104877 4.45147e-20)
(1.24499 0.0988063 1.61126e-19)
(1.24088 0.0899136 -1.51253e-19)
(-0.00521561 0.00413086 -7.36514e-20)
(0.0166552 0.0032901 -7.31892e-20)
(0.0691737 0.00249583 2.05755e-19)
(0.148456 0.00351668 -1.24422e-19)
(0.250736 0.00787619 1.17115e-19)
(0.371222 0.016559 2.1162e-19)
(0.503575 0.029632 -1.49433e-19)
(0.640209 0.0463057 -1.80255e-19)
(0.77314 0.065155 4.68521e-21)
(0.895101 0.0844291 2.28219e-19)
(1.00054 0.102401 0)
(1.08626 0.117669 6.20322e-20)
(1.15146 0.129349 0)
(1.19751 0.137126 -9.92881e-20)
(1.22724 0.141177 1.39219e-19)
(1.24421 0.142019 9.24053e-22)
(1.25205 0.140335 -3.64134e-20)
(1.2539 0.136806 6.74955e-20)
(1.2522 0.13202 5.86677e-20)
(1.24858 0.12641 -5.26538e-20)
(1.24404 0.120309 4.94172e-20)
(1.23908 0.113772 -4.45048e-20)
(1.23389 0.1076 0)
(1.22916 0.0993628 -3.40766e-20)
(0.00132616 0.00139326 7.36408e-20)
(0.0405445 -0.00243789 7.74387e-20)
(0.114339 -0.0024211 -6.89725e-20)
(0.217093 0.00226455 1.283e-19)
(0.342687 0.0123646 -1.20758e-19)
(0.483407 0.0279986 1.08596e-19)
(0.629917 0.0481489 -5.23042e-20)
(0.772355 0.0709003 1.35514e-19)
(0.901872 0.0939315 -8.53056e-20)
(1.012 0.115037 1.49346e-19)
(1.09937 0.132546 -3.43757e-19)
(1.16375 0.145539 1.26231e-19)
(1.20735 0.153854 -1.08831e-19)
(1.23395 0.157921 1.02225e-19)
(1.24784 0.158515 8.74271e-20)
(1.25305 0.156516 7.62338e-20)
(1.25288 0.152724 -2.12634e-19)
(1.24969 0.14777 1.31691e-19)
(1.245 0.142094 -5.8671e-20)
(1.2397 0.135982 1.53413e-19)
(1.23422 0.129605 -4.95651e-20)
(1.22875 0.12304 -1.21019e-19)
(1.22334 0.116687 1.11785e-19)
(1.21824 0.108932 3.40666e-20)
(0.0104352 -0.00121002 0)
(0.0713066 -0.00697309 7.1887e-22)
(0.169487 -0.0044121 1.44783e-19)
(0.297004 0.00590918 -1.35728e-19)
(0.444595 0.0234539 -1.21858e-19)
(0.601135 0.0469644 2.26147e-19)
(0.754583 0.073984 -1.04864e-19)
(0.894026 0.101447 1.38674e-19)
(1.01158 0.126475 -3.41916e-21)
(1.10337 0.14698 -7.81988e-20)
(1.16944 0.161925 1.68598e-19)
(1.21277 0.171273 -2.4867e-19)
(1.23799 0.175702 0)
(1.2501 0.176255 -4.83173e-20)
(1.25357 0.174022 -1.28058e-19)
(1.2519 0.169941 4.04284e-20)
(1.2475 0.164715 1.63659e-21)
(1.24186 0.158812 -8.7401e-20)
(1.23581 0.152522 5.65089e-21)
(1.22975 0.146013 1.01054e-19)
(1.22385 0.139384 -4.50382e-20)
(1.21812 0.132702 -1.71608e-20)
(1.21254 0.126112 5.27202e-20)
(1.20717 0.118715 0)
(0.0223516 -0.00327233 0)
(0.109054 -0.0091783 3.93423e-20)
(0.233908 -0.00187922 -1.89686e-19)
(0.385909 0.0160947 6.87563e-20)
(0.552071 0.0423109 -6.47102e-20)
(0.718009 0.073682 -5.90192e-20)
(0.870187 0.106246 -1.03618e-19)
(0.998583 0.13617 5.20845e-20)
(1.09819 0.160683 4.48243e-20)
(1.16893 0.178459 0)
(1.21434 0.189503 1.00601e-19)
(1.23989 0.194731 -1.49296e-19)
(1.25136 0.195475 1.10807e-19)
(1.25379 0.193082 4.83428e-20)
(1.251 0.188673 -3.93953e-20)
(1.24557 0.183061 -3.25479e-20)
(1.23905 0.176773 -3.0272e-20)
(1.23226 0.170126 9.12293e-20)
(1.2256 0.163298 0)
(1.21922 0.156387 4.55265e-20)
(1.21314 0.149455 3.81939e-20)
(1.2073 0.142547 -9.50062e-20)
(1.20166 0.135674 -6.5055e-20)
(1.19616 0.128494 6.00005e-20)
(0.0371759 -0.00433233 -4.29197e-20)
(0.153396 -0.00789287 -1.78759e-21)
(0.305985 0.00660014 3.86757e-20)
(0.480373 0.0339651 1.08064e-19)
(0.659807 0.0692816 3.12604e-20)
(0.827687 0.107449 -6.0544e-20)
(0.970956 0.14337 5.51122e-20)
(1.08253 0.173185 -4.79786e-20)
(1.16155 0.194966 8.57521e-20)
(1.21183 0.208601 3.61159e-20)
(1.23963 0.215205 -1.02843e-19)
(1.25165 0.216444 3.00259e-20)
(1.2537 0.213989 5.09003e-20)
(1.25012 0.209214 -2.51084e-20)
(1.24379 0.203099 0)
(1.2364 0.196271 3.68349e-20)
(1.22884 0.189093 6.19244e-20)
(1.22152 0.181763 1.03058e-20)
(1.21459 0.174389 -5.14151e-20)
(1.20807 0.16703 2.13386e-20)
(1.20191 0.159725 0)
(1.19605 0.152496 -1.66571e-20)
(1.19038 0.145309 -1.58702e-20)
(1.18484 0.138206 0)
(0.0548025 -0.00389537 0)
(0.203345 -0.00202258 2.25338e-20)
(0.383225 0.0221249 4.16349e-20)
(0.576164 0.060031 -1.10491e-19)
(0.762404 0.103918 3.58126e-20)
(0.924999 0.146934 0)
(1.05356 0.183631 5.31661e-20)
(1.14542 0.21098 -7.42017e-20)
(1.20411 0.228445 -4.28918e-20)
(1.2366 0.237246 1.92513e-20)
(1.25065 0.239417 -3.05494e-20)
(1.25312 0.237055 7.42999e-20)
(1.24911 0.231887 3.67334e-20)
(1.242 0.225142 -2.57641e-20)
(1.23375 0.217596 -2.63114e-21)
(1.22538 0.20969 -6.89359e-20)
(1.21735 0.20166 3.12964e-20)
(1.20981 0.193626 -8.41789e-22)
(1.2028 0.185653 0)
(1.19626 0.17778 -2.13611e-20)
(1.19013 0.170029 0)
(1.18431 0.162395 4.78124e-20)
(1.1787 0.154871 -5.66878e-20)
(1.17318 0.147693 2.57852e-20)
(0.0748746 -0.00147139 -1.18506e-20)
(0.257308 0.00935651 -5.68711e-20)
(0.462445 0.0453497 6.47818e-20)
(0.668776 0.094137 3.78856e-20)
(0.855146 0.14515 -1.80861e-20)
(1.00653 0.190541 3.02134e-20)
(1.11699 0.225506 -1.46855e-20)
(1.18881 0.24856 2.42313e-20)
(1.22931 0.26079 0)
(1.24748 0.264598 5.42287e-20)
(1.25149 0.26262 -2.44183e-21)
(1.24758 0.257083 -4.33877e-20)
(1.23988 0.249581 1.84045e-20)
(1.2308 0.241119 -2.05573e-20)
(1.22159 0.232263 -7.64019e-21)
(1.21278 0.22331 9.02862e-21)
(1.20458 0.214404 -6.83331e-21)
(1.19701 0.205616 -3.69384e-20)
(1.19004 0.196986 2.25887e-20)
(1.18359 0.188538 4.55514e-21)
(1.17757 0.180276 3.98473e-21)
(1.17187 0.172183 3.48772e-21)
(1.16638 0.164316 0)
(1.16094 0.156901 0)
(0.0968422 0.00338957 1.18588e-20)
(0.313297 0.0269121 -1.18318e-20)
(0.540229 0.0764087 -2.15983e-20)
(0.754107 0.135519 0)
(0.93458 0.191528 -8.98897e-21)
(1.07066 0.236704 -8.09429e-21)
(1.16184 0.267829 -1.37512e-20)
(1.21504 0.285377 0)
(1.24035 0.291996 0)
(1.24764 0.290966 0)
(1.24468 0.285203 0)
(1.23674 0.276846 0)
(1.22693 0.267253 -1.15215e-20)
(1.21686 0.257191 5.23331e-21)
(1.20725 0.247053 9.00734e-21)
(1.19834 0.237023 4.20431e-21)
(1.19018 0.227185 1.02656e-20)
(1.18274 0.217578 0)
(1.17595 0.208228 -2.4037e-21)
(1.16971 0.199144 -2.30568e-21)
(1.16392 0.190314 -3.9911e-21)
(1.15845 0.181727 -3.49331e-21)
(1.15318 0.173507 0)
(1.14796 0.165706 2.43983e-21)
(-0.000879153 -0.0291513 8.80616e-21)
(-0.00685096 -0.0595495 -9.14942e-21)
(-0.0189293 -0.0711886 -1.73237e-20)
(-0.0340843 -0.0702442 0)
(-0.0506632 -0.0614586 -2.32909e-20)
(-0.0678698 -0.0481671 7.40042e-21)
(-0.0851832 -0.0324215 -1.36964e-20)
(-0.102238 -0.0152356 0)
(-0.118768 0.00310589 0)
(-0.134571 0.0227413 0)
(-0.149471 0.0439657 0)
(-0.163282 0.0670777 0)
(-0.175821 0.0922792 2.88892e-22)
(-0.18689 0.119633 -9.10803e-21)
(-0.196271 0.149046 1.64476e-20)
(-0.203727 0.180264 2.32833e-20)
(-0.208999 0.212863 6.84735e-21)
(-0.211815 0.246248 0)
(-0.211908 0.279652 6.40344e-21)
(-0.209036 0.312156 -1.75307e-20)
(-0.202981 0.342729 -1.07246e-20)
(-0.193521 0.370279 -1.00012e-20)
(-0.180559 0.393743 0)
(-0.164609 0.412292 0)
(0.000454635 -0.0235628 -2.61737e-20)
(-0.00418869 -0.0468475 4.5361e-20)
(-0.0156252 -0.0541229 -1.66529e-20)
(-0.0304424 -0.0505833 -3.21334e-20)
(-0.0467433 -0.0403464 4.56743e-20)
(-0.0635843 -0.0263559 -2.84991e-20)
(-0.0803675 -0.0104311 4.04984e-20)
(-0.0966923 0.00653257 2.4705e-20)
(-0.112279 0.0242958 0)
(-0.126901 0.0429991 -2.26384e-20)
(-0.140348 0.0629413 1.46333e-22)
(-0.152397 0.0844065 2.00653e-20)
(-0.162812 0.107574 2.70691e-20)
(-0.171334 0.132477 3.3849e-20)
(-0.177686 0.158991 -1.66732e-20)
(-0.181564 0.18683 -4.49471e-20)
(-0.182647 0.215551 1.30428e-20)
(-0.180604 0.244553 -5.02863e-20)
(-0.175111 0.273092 0)
(-0.165876 0.300304 1.15016e-20)
(-0.152647 0.325255 1.07074e-20)
(-0.135168 0.347027 9.98479e-21)
(-0.113148 0.364853 0)
(-0.0871705 0.37844 0)
(0.00122397 -0.018144 0)
(-0.0025194 -0.0347311 8.70282e-20)
(-0.0131133 -0.0380971 -3.29185e-20)
(-0.0270308 -0.0324246 3.15099e-20)
(-0.0422525 -0.0211645 -8.73911e-20)
(-0.0577307 -0.00684763 0)
(-0.0728084 0.00893566 -5.15278e-20)
(-0.0870586 0.0253864 2.37848e-20)
(-0.10019 0.0422823 -4.4413e-20)
(-0.111964 0.0597475 1.97762e-20)
(-0.122152 0.0780504 1.17298e-19)
(-0.130506 0.0974509 -5.5009e-20)
(-0.136756 0.118109 -8.58469e-20)
(-0.140611 0.140044 -3.03015e-20)
(-0.141755 0.163117 6.63064e-22)
(-0.139862 0.187037 1.09918e-19)
(-0.134595 0.21136 -5.1311e-20)
(-0.12561 0.235498 1.64051e-21)
(-0.112601 0.258771 0)
(-0.0952954 0.280367 -3.99766e-20)
(-0.0734835 0.299448 0)
(-0.0469514 0.315231 -3.76956e-20)
(-0.0151931 0.327178 1.38288e-19)
(0.0215037 0.33548 1.65783e-21)
(0.00147752 -0.0132398 0)
(-0.00183693 -0.0239028 -8.32193e-22)
(-0.0115867 -0.0239973 3.17058e-20)
(-0.0243048 -0.0167648 -2.97315e-20)
(-0.0379384 -0.00499898 2.8971e-20)
(-0.051373 0.00918662 1.5911e-19)
(-0.0639095 0.0244297 -5.00171e-20)
(-0.0751038 0.0400194 -4.59125e-20)
(-0.084662 0.055734 8.71615e-20)
(-0.0923522 0.0716587 -1.22066e-19)
(-0.0979487 0.0880156 3.72201e-20)
(-0.101207 0.10503 3.42539e-20)
(-0.101856 0.122845 0)
(-0.0996019 0.141474 3.09493e-20)
(-0.0941332 0.160786 0)
(-0.0851414 0.180514 5.01789e-20)
(-0.0723293 0.200244 -9.50765e-20)
(-0.0553688 0.219456 2.37534e-20)
(-0.0340038 0.237519 8.30166e-20)
(-0.00806953 0.253714 3.99285e-20)
(0.0225711 0.267295 0)
(0.0579505 0.277553 -1.0496e-19)
(0.0985189 0.28403 3.30595e-20)
(0.14595 0.286977 0)
(0.00128222 -0.00899733 0)
(-0.0021007 -0.014686 -9.99426e-20)
(-0.0111996 -0.0122725 -3.11577e-20)
(-0.0226871 -0.00416127 -5.88747e-20)
(-0.0345319 0.00748145 5.5438e-20)
(-0.0455869 0.0209584 -5.25495e-20)
(-0.0551301 0.0351426 9.64703e-20)
(-0.0627114 0.0494177 4.5027e-20)
(-0.0680467 0.0635634 -1.27262e-19)
(-0.0709259 0.0776193 7.7536e-20)
(-0.0711534 0.0917515 -1.09141e-19)
(-0.0685179 0.106141 2.31825e-19)
(-0.0627852 0.12091 -1.24816e-19)
(-0.0537032 0.136071 5.59291e-20)
(-0.0409975 0.151519 1.56299e-19)
(-0.0244074 0.167021 -5.16247e-20)
(-0.00369832 0.182227 -4.52054e-20)
(0.0213573 0.196696 -4.33818e-20)
(0.0509367 0.209871 0)
(0.0851396 0.221155 -7.33925e-20)
(0.124013 0.229919 -7.01414e-20)
(0.167545 0.235503 9.8339e-20)
(0.215092 0.237508 1.28854e-19)
(0.273077 0.235325 -1.1972e-19)
(0.000681828 -0.00538196 0)
(-0.00328337 -0.00704861 -1.29775e-19)
(-0.0120637 -0.0029405 6.70826e-22)
(-0.0224842 0.00529619 1.15655e-19)
(-0.0325723 0.0160971 0)
(-0.0411853 0.0281806 0)
(-0.047602 0.0406689 0)
(-0.0513809 0.0530591 -4.38826e-20)
(-0.0522587 0.065149 1.13677e-21)
(-0.0500595 0.0769431 7.61217e-20)
(-0.0446353 0.0885544 -1.05161e-19)
(-0.0358304 0.100119 9.81777e-22)
(-0.023473 0.111733 0)
(-0.00737588 0.12341 -5.59015e-20)
(0.0126574 0.135073 4.83039e-20)
(0.0368177 0.14653 -1.39295e-19)
(0.0652733 0.157505 1.71503e-19)
(0.0981657 0.167633 3.78562e-20)
(0.135599 0.176469 -5.02973e-22)
(0.177633 0.183526 -1.39499e-19)
(0.224171 0.188285 -6.47285e-20)
(0.27586 0.190147 2.20955e-19)
(0.329116 0.188974 -1.47894e-19)
(0.399006 0.182207 0)
(-0.000320997 -0.00223981 6.17087e-20)
(-0.00537577 -0.000705749 6.46339e-20)
(-0.0141947 0.00432426 -6.01936e-20)
(-0.0237546 0.0119425 -1.13412e-19)
(-0.0321774 0.0211756 1.06788e-19)
(-0.038367 0.0311598 -9.89211e-20)
(-0.0416315 0.0412815 1.38986e-19)
(-0.0415529 0.0511762 -4.35669e-20)
(-0.0378937 0.0606869 8.01881e-20)
(-0.0305121 0.0698072 0)
(-0.0193037 0.0786148 6.53461e-20)
(-0.00416701 0.0872108 -1.24168e-19)
(0.0150124 0.0956704 1.13405e-19)
(0.0383628 0.104012 -1.06508e-19)
(0.0660229 0.11218 0)
(0.0981305 0.120038 8.94525e-20)
(0.134812 0.127373 1.62427e-19)
(0.176174 0.133898 -1.53859e-19)
(0.222291 0.139264 -7.03707e-20)
(0.273294 0.143086 -6.85335e-20)
(0.328628 0.144889 1.91117e-19)
(0.390846 0.144223 6.10323e-20)
(0.450315 0.141286 -5.57807e-20)
(0.537053 0.131533 5.52797e-20)
(-0.0017509 0.000617857 -6.17172e-20)
(-0.00833702 0.00471898 1.9043e-19)
(-0.0174164 0.0100231 -5.95623e-20)
(-0.0261486 0.0163958 1.12064e-19)
(-0.0327975 0.023457 -1.05519e-19)
(-0.0363563 0.0307623 1.36981e-22)
(-0.0361853 0.0379756 4.57756e-20)
(-0.031894 0.0448946 1.66182e-19)
(-0.0232581 0.0514395 -2.88492e-21)
(-0.0101449 0.0576247 -7.38995e-20)
(0.00754075 0.0635212 0)
(0.0298885 0.0692176 -5.85608e-20)
(0.0569984 0.074784 1.12811e-19)
(0.0889817 0.0802477 1.01199e-19)
(0.12596 0.0855804 -4.84837e-20)
(0.16805 0.0906865 -1.0617e-21)
(0.21535 0.0954034 -4.05889e-20)
(0.267925 0.0995076 7.36632e-20)
(0.32574 0.102702 7.03624e-20)
(0.389023 0.104732 -6.61535e-20)
(0.456073 0.104978 6.14972e-20)
(0.532464 0.103531 -5.85771e-20)
(0.599111 0.100026 0)
(0.706132 0.0905182 -5.52494e-20)
(-0.00361477 0.00330681 6.11345e-20)
(-0.0120081 0.00950385 -6.33896e-20)
(-0.0212469 0.014621 5.95324e-20)
(-0.0287718 0.0193425 0)
(-0.0330445 0.023884 0)
(-0.0331774 0.0282189 9.59345e-20)
(-0.028586 0.0322968 -9.08394e-20)
(-0.0188885 0.0360995 8.14115e-20)
(-0.00383833 0.0396518 -3.84602e-19)
(0.0167344 0.0430226 1.2641e-21)
(0.0429642 0.0463088 6.48161e-20)
(0.0749689 0.0496097 0)
(0.112853 0.0530047 -1.08195e-19)
(0.156702 0.0565345 2.00935e-19)
(0.206558 0.060184 -1.39817e-19)
(0.262398 0.063873 -2.11601e-19)
(0.324108 0.0674578 1.90525e-21)
(0.391468 0.0707363 1.46188e-19)
(0.463988 0.0733983 0)
(0.541671 0.0753342 0)
(0.621314 0.0755906 -6.14955e-20)
(0.710386 0.075193 5.85746e-20)
(0.782708 0.0718819 -2.25612e-19)
(0.900948 0.0658972 2.11415e-19)
(-0.00582957 0.0058054 0)
(-0.0160015 0.0136932 0)
(-0.0248213 0.0183551 -1.78343e-19)
(-0.0301572 0.0212964 5.66764e-20)
(-0.0307253 0.0233099 1.05227e-21)
(-0.0257671 0.0247763 9.74145e-20)
(-0.0147381 0.025933 0)
(0.00276288 0.0269558 -8.30706e-20)
(0.0270296 0.0279952 7.67728e-20)
(0.0582787 0.0291998 -1.38916e-19)
(0.0966561 0.0307121 1.28193e-21)
(0.142228 0.0326548 1.17099e-19)
(0.194958 0.0351139 -2.55954e-21)
(0.254675 0.03812 9.64903e-20)
(0.321045 0.0416335 -1.39405e-19)
(0.393541 0.0455399 0)
(0.471432 0.0496454 1.55935e-19)
(0.553788 0.0536901 -2.19346e-19)
(0.639344 0.0573003 6.81885e-20)
(0.727256 0.0603181 0)
(0.81392 0.0616991 6.04242e-20)
(0.90462 0.0627829 2.32606e-19)
(0.976679 0.0598843 -2.18287e-19)
(1.08317 0.0576069 -2.63796e-19)
(-0.00818871 0.00794892 1.84717e-19)
(-0.0196684 0.0170516 -2.54443e-19)
(-0.026929 0.0211305 5.28325e-22)
(-0.0284246 0.0224223 5.65223e-20)
(-0.0231753 0.0222391 -1.04976e-19)
(-0.010554 0.0213415 -9.70741e-20)
(0.00994041 0.0202405 1.78505e-19)
(0.0387058 0.0193021 -3.48604e-21)
(0.0760181 0.0188099 -1.54855e-19)
(0.122007 0.0189945 2.80483e-19)
(0.176615 0.0200377 -3.30402e-21)
(0.23955 0.0220628 -1.20144e-19)
(0.310251 0.025119 0)
(0.387857 0.0291663 0)
(0.471209 0.0340646 -4.59325e-20)
(0.55887 0.0395721 -8.52296e-20)
(0.649171 0.045356 -1.56505e-19)
(0.740273 0.050992 1.46899e-19)
(0.830218 0.0560484 -6.82142e-20)
(0.917189 0.0599973 1.28036e-19)
(0.998652 0.0623832 -5.99917e-20)
(1.07551 0.063225 1.14989e-19)
(1.13691 0.0605122 -2.66853e-19)
(1.21024 0.0584471 5.16021e-20)
(-0.0103587 0.00948166 6.21313e-20)
(-0.0221341 0.0191416 0)
(-0.026144 0.0225633 1.20646e-19)
(-0.0215568 0.0225211 -1.13656e-19)
(-0.00774419 0.0207401 1.0507e-19)
(0.0157527 0.0183086 0)
(0.0493173 0.0159761 0)
(0.0931981 0.014278 -8.24647e-20)
(0.147416 0.0136044 3.22174e-21)
(0.211675 0.014231 7.28619e-20)
(0.285285 0.0163257 -6.40086e-20)
(0.367118 0.0199398 1.21165e-19)
(0.455608 0.0249961 0)
(0.548798 0.0312825 1.99898e-19)
(0.644434 0.0384572 -3.71762e-19)
(0.740088 0.0460654 2.58094e-19)
(0.8333 0.0535784 1.57158e-19)
(0.92171 0.0603916 -1.4752e-19)
(1.00321 0.0660297 0)
(1.07601 0.0696655 0)
(1.13886 0.0716307 0)
(1.19116 0.0699415 0)
(1.23144 0.0672721 5.27456e-20)
(1.26754 0.0603617 -1.95248e-19)
(-0.143572 0.427733 -6.34755e-21)
(-0.113791 0.434115 6.37781e-21)
(-0.0760381 0.424701 -2.00196e-22)
(-0.0310167 0.397471 0)
(0.021085 0.350785 -6.45257e-21)
(0.0789311 0.284237 1.27532e-20)
(0.140394 0.198295 1.54411e-22)
(0.203514 0.0960669 -6.27388e-21)
(0.266373 -0.0198281 0)
(0.327958 -0.145426 0)
(0.387737 -0.273868 -3.44735e-22)
(0.444347 -0.394908 -3.02607e-22)
(0.495156 -0.495723 -3.87664e-21)
(0.536454 -0.565585 3.52037e-21)
(0.56535 -0.60098 0)
(0.581371 -0.606082 0)
(0.585233 -0.591318 1.61015e-21)
(0.574797 -0.572834 -1.05007e-22)
(0.546854 -0.564228 -1.33481e-21)
(0.506604 -0.5601 -8.35474e-23)
(0.472289 -0.53026 0)
(0.46559 -0.43922 0)
(0.494409 -0.277198 0)
(0.54939 -0.0702329 0)
(0.61536 0.137208 0)
(0.679057 0.304452 0)
(0.731119 0.413258 4.16512e-22)
(0.766424 0.468349 -6.66791e-22)
(0.787002 0.483833 0)
(0.796345 0.479646 0)
(0.790164 0.480718 -3.21155e-22)
(0.762031 0.499753 3.12139e-22)
(0.720535 0.506517 1.84164e-22)
(0.688041 0.449523 0)
(0.685025 0.297758 0)
(0.709042 0.0862358 5.06387e-22)
(0.74944 -0.123249 -4.92217e-22)
(0.7892 -0.276724 0)
(0.823178 -0.360439 2.75542e-22)
(0.844777 -0.39772 -3.88854e-22)
(0.842998 -0.413556 9.82459e-23)
(0.810067 -0.435271 0)
(0.761102 -0.415072 -1.95462e-22)
(0.722348 -0.341469 1.9007e-22)
(0.720861 -0.174927 0)
(0.745504 0.00476086 0)
(0.791328 0.160961 -8.25013e-23)
(0.824057 0.273792 2.22106e-22)
(0.826196 0.329775 0)
(0.794365 0.397336 0)
(0.766014 0.338941 -5.46025e-23)
(0.755433 0.267475 -6.73204e-24)
(0.788986 0.0833418 -2.1418e-24)
(0.811643 -0.0765479 4.97579e-23)
(0.822045 -0.184828 0)
(0.806959 -0.35966 0)
(0.800613 -0.288061 0)
(0.792369 -0.313618 0)
(0.801597 -0.110195 0)
(0.7859 0.131629 0)
(-0.0562283 0.389439 -5.98343e-22)
(-0.016606 0.390004 -2.62155e-20)
(0.0304317 0.375153 -8.84472e-22)
(0.0837501 0.343304 2.54305e-20)
(0.14238 0.29342 4.26942e-22)
(0.204602 0.225323 0)
(0.268397 0.139908 -2.73845e-20)
(0.331919 0.0391432 5.43782e-20)
(0.393731 -0.074649 -2.69909e-20)
(0.453105 -0.197628 2.43614e-20)
(0.509313 -0.323418 -2.33324e-20)
(0.560218 -0.440586 1.84027e-20)
(0.602013 -0.534776 -1.79579e-20)
(0.630862 -0.594874 -4.31813e-22)
(0.644947 -0.618837 -9.6969e-21)
(0.645255 -0.613107 9.42411e-21)
(0.634949 -0.588148 -6.34082e-21)
(0.614936 -0.558108 5.98731e-21)
(0.581318 -0.538238 -5.27459e-21)
(0.533487 -0.530288 1.03922e-20)
(0.483905 -0.510305 -5.11587e-21)
(0.455141 -0.440298 -3.36231e-22)
(0.462945 -0.300107 -6.72202e-21)
(0.504544 -0.107538 1.32029e-20)
(0.56579 0.0946466 -6.48226e-21)
(0.631442 0.265688 3.23382e-22)
(0.689787 0.383954 4.27907e-21)
(0.734151 0.449534 -5.54807e-22)
(0.765055 0.473713 -6.09342e-21)
(0.783255 0.477762 5.39865e-21)
(0.783057 0.488215 -2.55783e-21)
(0.759779 0.515013 3.38471e-22)
(0.72558 0.522745 -1.8455e-22)
(0.702592 0.458749 4.75804e-22)
(0.708458 0.296201 0)
(0.738026 0.0756275 0)
(0.779876 -0.138173 -1.90578e-21)
(0.816121 -0.29086 1.41929e-21)
(0.842976 -0.370474 8.22069e-22)
(0.85761 -0.400903 -1.01936e-22)
(0.851219 -0.4074 -9.68878e-22)
(0.81627 -0.42132 1.63947e-22)
(0.762926 -0.400308 0)
(0.719808 -0.334498 0)
(0.713445 -0.178775 0)
(0.738113 -0.00704037 0)
(0.784726 0.148568 3.01506e-22)
(0.81834 0.268159 -1.42007e-22)
(0.821763 0.333066 0)
(0.790018 0.40504 0)
(0.765212 0.343945 0)
(0.754734 0.265081 -1.26887e-22)
(0.792475 0.0771126 -1.39481e-23)
(0.817302 -0.0806693 -9.91615e-23)
(0.828958 -0.184094 0)
(0.813892 -0.357088 0)
(0.804067 -0.287013 3.75907e-23)
(0.795884 -0.313402 8.19842e-23)
(0.80049 -0.10927 0)
(0.784201 0.133087 0)
(0.0595912 0.342673 2.64839e-21)
(0.105288 0.339407 -5.03312e-20)
(0.156931 0.321512 5.51373e-20)
(0.213949 0.287765 -5.15473e-20)
(0.27484 0.237509 -4.298e-22)
(0.337783 0.170676 0)
(0.400959 0.087957 -5.86398e-20)
(0.462847 -0.00923813 5.74704e-20)
(0.522484 -0.118894 4.26362e-22)
(0.579224 -0.237936 8.27039e-22)
(0.631669 -0.359606 7.54946e-22)
(0.67642 -0.471487 6.44474e-22)
(0.708429 -0.558361 -3.21608e-20)
(0.724025 -0.60933 3.16896e-20)
(0.723145 -0.623678 0)
(0.708556 -0.609875 5.33505e-22)
(0.684827 -0.578782 -1.24132e-20)
(0.655407 -0.541466 1.22393e-20)
(0.617514 -0.511714 0)
(0.566179 -0.497239 0)
(0.506791 -0.483108 -9.79126e-21)
(0.459452 -0.433121 2.02966e-20)
(0.44585 -0.318004 -2.13171e-20)
(0.471135 -0.144505 -6.76709e-23)
(0.524467 0.0490965 2.10481e-20)
(0.589499 0.221997 -1.9386e-20)
(0.652188 0.348863 1.5581e-20)
(0.70455 0.424972 -1.42842e-21)
(0.745129 0.458781 -5.92452e-21)
(0.771755 0.47235 0)
(0.777787 0.492805 0)
(0.760343 0.527285 2.34973e-21)
(0.734277 0.536288 -2.94904e-21)
(0.72078 0.466706 2.43639e-23)
(0.735243 0.295674 4.80505e-21)
(0.769913 0.067683 -4.66921e-21)
(0.812622 -0.149232 0)
(0.845236 -0.300935 4.34842e-22)
(0.864804 -0.377111 2.71324e-21)
(0.872211 -0.402032 -4.62428e-21)
(0.861243 -0.400318 1.75298e-21)
(0.824921 -0.406878 1.45424e-22)
(0.768097 -0.385161 -1.54169e-21)
(0.721145 -0.327559 1.22231e-21)
(0.709765 -0.183446 3.10559e-22)
(0.733867 -0.0200566 2.96934e-22)
(0.780495 0.135048 -3.02277e-22)
(0.814553 0.26181 0)
(0.819283 0.335716 0)
(0.787811 0.412374 -9.33496e-22)
(0.766711 0.349005 4.64426e-22)
(0.756249 0.26279 -5.45952e-22)
(0.7978 0.0709598 7.95344e-22)
(0.824578 -0.0848749 8.91201e-22)
(0.837376 -0.182999 -1.86319e-22)
(0.82186 -0.354041 2.79691e-22)
(0.808331 -0.285677 -1.83458e-22)
(0.800252 -0.312822 5.77469e-23)
(0.800482 -0.108111 0)
(0.783557 0.134567 0)
(0.187159 0.291439 -1.018e-19)
(0.235523 0.285652 -5.32126e-21)
(0.288423 0.266648 1.01906e-19)
(0.345869 0.233284 -8.57428e-22)
(0.406274 0.184929 0)
(0.467829 0.121299 0)
(0.529044 0.0424888 -1.19641e-19)
(0.588995 -0.0496289 -2.37115e-21)
(0.646893 -0.154268 1.70565e-19)
(0.70171 -0.26866 -3.18708e-21)
(0.751112 -0.385344 -5.14588e-20)
(0.789922 -0.490854 -3.86486e-20)
(0.811926 -0.569594 3.88529e-20)
(0.814012 -0.61167 0)
(0.798267 -0.617875 -2.00922e-20)
(0.769735 -0.598038 1.84508e-20)
(0.733897 -0.56366 0)
(0.695555 -0.523225 0)
(0.65418 -0.486425 8.42883e-21)
(0.602868 -0.463474 -4.20797e-22)
(0.539642 -0.449689 -7.28946e-21)
(0.478639 -0.416167 -8.61402e-21)
(0.444303 -0.327982 8.57036e-21)
(0.450738 -0.178321 -9.47729e-21)
(0.492837 0.00305025 5.72678e-22)
(0.554184 0.174705 8.39004e-21)
(0.61896 0.308662 8.51324e-22)
(0.677927 0.394971 5.70708e-23)
(0.727165 0.439052 0)
(0.761615 0.462969 4.9495e-21)
(0.774071 0.493588 -5.11104e-21)
(0.763205 0.535565 3.47505e-22)
(0.745713 0.546575 0)
(0.741706 0.47352 -5.06116e-22)
(0.764314 0.296579 1.01202e-20)
(0.80373 0.0630693 -1.8443e-20)
(0.847095 -0.156461 -7.43014e-23)
(0.876117 -0.307334 1.64602e-21)
(0.88848 -0.380668 5.73753e-21)
(0.888481 -0.401382 5.07198e-22)
(0.872806 -0.39273 -2.77359e-21)
(0.835592 -0.392294 2.38386e-21)
(0.776308 -0.369572 3.00476e-23)
(0.726191 -0.320274 1.1501e-21)
(0.709686 -0.188597 -1.42986e-21)
(0.732568 -0.0339756 -1.86758e-21)
(0.77851 0.120528 5.7186e-22)
(0.812623 0.254696 9.04505e-22)
(0.81876 0.337588 -1.7847e-21)
(0.787825 0.41925 1.33758e-21)
(0.770644 0.354165 -5.70987e-22)
(0.760168 0.260777 4.61608e-22)
(0.804989 0.065021 5.77219e-22)
(0.833389 -0.0891352 -1.42279e-21)
(0.84723 -0.181567 4.50427e-23)
(0.830819 -0.350477 -2.98427e-22)
(0.813359 -0.284021 0)
(0.805404 -0.311896 -6.97279e-23)
(0.801495 -0.106742 3.65569e-23)
(0.78392 0.136069 0)
(0.314817 0.238532 1.00136e-19)
(0.363378 0.23191 -2.02659e-19)
(0.41546 0.213219 1.00911e-19)
(0.471589 0.181672 1.12612e-19)
(0.53029 0.136583 -2.26322e-19)
(0.589682 0.0771513 -4.57526e-21)
(0.649601 0.00353087 1.15812e-19)
(0.708771 -0.08311 1.16921e-19)
(0.765708 -0.18245 -1.1452e-19)
(0.819304 -0.291064 0)
(0.865552 -0.400816 -9.34392e-20)
(0.897533 -0.497767 1.70874e-19)
(0.90865 -0.567044 -7.78421e-20)
(0.897156 -0.600667 0)
(0.867442 -0.601008 0)
(0.826787 -0.578042 5.42431e-22)
(0.781294 -0.543044 -2.38223e-20)
(0.735474 -0.503047 2.31452e-20)
(0.690702 -0.463408 0)
(0.641153 -0.432884 1.36941e-20)
(0.579456 -0.414698 -2.54627e-20)
(0.511251 -0.391188 2.50927e-20)
(0.459093 -0.328219 -2.67544e-20)
(0.445044 -0.206124 -8.87405e-22)
(0.471918 -0.0418577 2.79247e-20)
(0.526036 0.124952 -1.36693e-20)
(0.590672 0.263934 -3.90744e-22)
(0.654459 0.359681 -4.31399e-21)
(0.710958 0.41429 7.91965e-23)
(0.752443 0.448986 4.3038e-21)
(0.771409 0.489706 3.05667e-22)
(0.767632 0.539124 -6.20038e-21)
(0.758937 0.553356 1.37269e-20)
(0.764205 0.479423 -8.53367e-21)
(0.794635 0.299162 0)
(0.838557 0.0621118 -1.15934e-20)
(0.882348 -0.159752 1.11804e-20)
(0.908129 -0.309938 -5.87524e-21)
(0.91358 -0.380988 7.36802e-21)
(0.906177 -0.398815 -5.14553e-22)
(0.885716 -0.384702 0)
(0.847963 -0.377881 -2.76066e-22)
(0.787193 -0.353853 7.16961e-22)
(0.734616 -0.312576 0)
(0.712982 -0.193894 2.3866e-21)
(0.733949 -0.0484883 -9.45496e-22)
(0.778547 0.105094 4.62604e-22)
(0.812408 0.246702 3.87953e-22)
(0.820134 0.338496 0)
(0.790079 0.425548 0)
(0.777064 0.359445 -1.7089e-21)
(0.7666 0.259195 3.02756e-21)
(0.814028 0.0594094 -1.85725e-21)
(0.843642 -0.0934171 6.09048e-22)
(0.858429 -0.179773 9.31691e-22)
(0.840718 -0.346305 2.98706e-22)
(0.819098 -0.282018 -3.22639e-22)
(0.811267 -0.310651 0)
(0.803442 -0.105186 -7.71051e-23)
(0.785235 0.137596 -5.58152e-24)
(0.439757 0.185614 9.84614e-20)
(0.486708 0.179698 -9.80331e-20)
(0.536713 0.162313 8.23099e-22)
(0.59092 0.133385 -8.23139e-22)
(0.647886 0.0921364 8.84527e-22)
(0.706079 0.0368962 -9.0683e-22)
(0.765212 -0.0307488 1.7622e-21)
(0.82385 -0.112003 0)
(0.880375 -0.205185 -1.7033e-21)
(0.932145 -0.306322 1.61049e-21)
(0.973444 -0.406776 1.47109e-21)
(0.996462 -0.493043 -1.34559e-21)
(0.995434 -0.55212 0)
(0.970792 -0.578322 0)
(0.92899 -0.575207 6.95914e-22)
(0.878666 -0.551995 0)
(0.826276 -0.51859 -4.09159e-22)
(0.77526 -0.481149 0)
(0.727329 -0.442158 -1.36707e-20)
(0.679411 -0.406743 2.48333e-20)
(0.622662 -0.381706 -2.0931e-20)
(0.554226 -0.361011 9.76176e-21)
(0.489582 -0.317952 1.00047e-20)
(0.454918 -0.224971 -9.71671e-21)
(0.463134 -0.083543 -1.05876e-20)
(0.506345 0.074343 1.02656e-20)
(0.567944 0.215492 0)
(0.634257 0.319362 2.06648e-22)
(0.696254 0.384382 0)
(0.743832 0.429989 0)
(0.769224 0.480572 9.29371e-21)
(0.772772 0.537496 -9.52582e-21)
(0.772844 0.556374 8.06206e-22)
(0.78694 0.484326 1.06435e-21)
(0.824745 0.303912 -1.25977e-21)
(0.873156 0.0642244 -1.05293e-20)
(0.917665 -0.159177 1.02215e-20)
(0.940664 -0.30888 -8.01097e-21)
(0.939684 -0.378174 6.81794e-21)
(0.925019 -0.394356 1.03649e-21)
(0.899715 -0.376345 -2.59018e-21)
(0.861633 -0.363861 2.91859e-22)
(0.800252 -0.338166 1.4595e-21)
(0.745955 -0.30434 0)
(0.719286 -0.198949 -8.24455e-22)
(0.737647 -0.0634365 1.09593e-21)
(0.780343 0.0887788 -1.48316e-21)
(0.813708 0.237668 -3.9043e-22)
(0.823276 0.338228 0)
(0.79451 0.431115 5.91011e-22)
(0.785919 0.364817 -1.01753e-21)
(0.775582 0.258163 3.83145e-23)
(0.824876 0.054265 -7.27858e-22)
(0.855231 -0.0976617 1.06123e-21)
(0.870855 -0.177604 -9.7855e-22)
(0.851484 -0.341445 0)
(0.825499 -0.279631 3.22785e-22)
(0.817771 -0.309106 0)
(0.806225 -0.103468 0)
(0.78744 0.139144 1.00091e-23)