/*--------------------------------*- C++ -*----------------------------------*\
| =========                 |                                                 |
| \\      /  F ield         | OpenFOAM: The Open Source CFD Toolbox           |
|  \\    /   O peration     | Version:  2512                                  |
|   \\  /    A nd           | Website:  www.openfoam.com                      |
|    \\/     M anipulation  |                                                 |
\*---------------------------------------------------------------------------*/
FoamFile
{
    version     2.0;
    format      ascii;
    arch        "LSB;label=32;scalar=64";
    class       volVectorField;
    location    "52.75";
    object      U;
}
// * * * * * * * * * * * * * * * * * * * * * * * * * * * * * * * * * * * * * //

dimensions      [0 1 -1 0 0 0 0];

internalField   nonuniform List<vector> 
13248
(
(-0.0121454 0.0114647 6.51019e-20)
(-0.0222137 0.0238568 0)
(-0.0191074 0.0298361 -1.23245e-19)
(-0.003957 0.0314232 1.16099e-19)
(0.0225115 0.0302887 1.08943e-19)
(0.0598038 0.027775 0)
(0.107504 0.0249061 0)
(0.165136 0.022447 2.63909e-19)
(0.232019 0.0209545 -1.32615e-21)
(0.30713 0.0208047 -2.30476e-19)
(0.389029 0.0222068 2.12981e-19)
(0.475849 0.0252129 -1.33118e-19)
(0.565361 0.0297296 0)
(0.655103 0.0355357 -2.24604e-19)
(0.742558 0.0423088 4.17503e-19)
(0.82533 0.0496599 -9.88956e-20)
(0.901325 0.0571756 -1.73089e-19)
(0.968886 0.0644417 1.62488e-19)
(1.0269 0.0711482 0)
(1.07475 0.0768368 0)
(1.11274 0.0818555 0)
(1.14032 0.0844563 0)
(1.16145 0.0886407 4.76155e-20)
(1.1705 0.0846884 1.70489e-19)
(-0.0116416 0.00981999 -1.96681e-19)
(-0.0177157 0.0191305 1.34148e-19)
(-0.00754782 0.0230153 -1.07843e-21)
(0.0174122 0.0234779 -1.77426e-19)
(0.0562113 0.0221984 -1.08826e-19)
(0.108088 0.0205407 -1.02951e-19)
(0.1722 0.0195199 -1.89557e-19)
(0.247422 0.0198502 1.79054e-19)
(0.332169 0.0219803 0)
(0.424304 0.0261059 9.51126e-22)
(0.521152 0.0321824 1.95035e-21)
(0.619638 0.0399478 1.32807e-19)
(0.716512 0.0489647 0)
(0.808626 0.0586777 0)
(0.893197 0.0684823 1.52173e-19)
(0.968026 0.0777943 -2.85731e-19)
(1.03165 0.0861118 1.69045e-19)
(1.08339 0.0930591 -1.58701e-19)
(1.12334 0.098418 -6.9738e-20)
(1.15231 0.102096 -1.25621e-19)
(1.17147 0.104281 -5.22118e-20)
(1.1828 0.104689 -9.75905e-20)
(1.18753 0.105287 1.4388e-19)
(1.18727 0.101208 4.1521e-20)
(-0.0102499 0.00785415 0)
(-0.0100789 0.0136841 0)
(0.00978277 0.0155241 6.27785e-20)
(0.0474274 0.0153089 5.79281e-20)
(0.101496 0.0146928 -1.30033e-21)
(0.170675 0.0150174 -1.05915e-19)
(0.253283 0.0172032 0)
(0.347034 0.0217756 -8.90332e-20)
(0.448924 0.0288885 8.34009e-20)
(0.55529 0.0383457 3.41953e-22)
(0.662055 0.0496465 -1.42281e-19)
(0.765087 0.0620667 -1.29909e-19)
(0.860612 0.0747658 2.71256e-21)
(0.945567 0.0869035 -1.06387e-19)
(1.01785 0.0977465 2.56069e-19)
(1.07645 0.106749 0)
(1.12139 0.113596 -1.64618e-19)
(1.15362 0.118209 7.98015e-20)
(1.17479 0.120732 6.96722e-20)
(1.18692 0.12141 0)
(1.19225 0.120759 5.67985e-20)
(1.19276 0.118781 -1.97093e-19)
(1.19013 0.117097 1.85017e-19)
(1.1867 0.112359 1.17863e-19)
(-0.00765526 0.00560962 -6.95146e-20)
(0.00154473 0.00781445 -7.18231e-20)
(0.0341569 0.00804412 6.50242e-20)
(0.0875966 0.00803378 0)
(0.159776 0.00931282 0)
(0.248359 0.0130813 -2.00428e-21)
(0.350247 0.0199848 0)
(0.461415 0.0301212 -2.70655e-19)
(0.577036 0.0430913 2.51336e-19)
(0.691863 0.0580843 -3.10342e-19)
(0.800781 0.0740179 7.10859e-20)
(0.899379 0.0897174 0)
(0.984414 0.104096 1.17752e-19)
(1.05405 0.1163 -2.17865e-19)
(1.10792 0.125801 5.17385e-20)
(1.1469 0.132417 1.32326e-19)
(1.17284 0.136279 -6.07398e-21)
(1.18818 0.137748 -1.4776e-19)
(1.1955 0.137321 0)
(1.19725 0.135517 0)
(1.19551 0.132898 -5.28922e-20)
(1.19178 0.129586 4.75823e-20)
(1.18728 0.126872 1.70939e-19)
(1.18249 0.121773 -1.60464e-19)
(-0.00348541 0.00316241 -7.31564e-20)
(0.018037 0.00192198 -7.28686e-20)
(0.0667153 0.00140395 2.05016e-19)
(0.138971 0.0029219 -1.24425e-19)
(0.231493 0.00768761 1.17121e-19)
(0.340286 0.0165308 2.1296e-19)
(0.460194 0.0295297 -1.5038e-19)
(0.585045 0.0460445 -1.8283e-19)
(0.708218 0.0648776 3.66064e-21)
(0.823447 0.0845049 2.34226e-19)
(0.925608 0.103353 0)
(1.01129 0.120063 6.44775e-20)
(1.07903 0.133677 0)
(1.12917 0.143728 -1.05114e-19)
(1.1635 0.150214 1.47701e-19)
(1.18472 0.153502 1.22272e-21)
(1.19589 0.154182 -3.88561e-20)
(1.19997 0.152928 7.23697e-20)
(1.19948 0.150375 6.29095e-20)
(1.19633 0.147045 -5.65582e-20)
(1.19186 0.143347 5.28791e-20)
(1.18687 0.139406 -4.75702e-20)
(1.18177 0.135965 0)
(1.17708 0.130777 -3.68727e-20)
(0.0026477 0.000658421 7.3146e-20)
(0.0401963 -0.00342785 7.66912e-20)
(0.108261 -0.0033763 -6.86665e-20)
(0.201841 0.00137913 1.27827e-19)
(0.315755 0.0114159 -1.20317e-19)
(0.443657 0.0268361 1.08812e-19)
(0.577886 0.046777 -5.21998e-20)
(0.710202 0.0695797 1.37304e-19)
(0.83292 0.0931673 -8.63029e-20)
(0.940001 0.115469 1.53075e-19)
(1.02777 0.134795 -3.53416e-19)
(1.09508 0.150068 1.29948e-19)
(1.14303 0.160894 -1.13875e-19)
(1.17426 0.167475 1.06959e-19)
(1.19225 0.170424 9.25162e-20)
(1.20061 0.170554 8.13085e-20)
(1.20252 0.168692 -2.26534e-19)
(1.20053 0.165553 1.40544e-19)
(1.19642 0.161684 -6.29111e-20)
(1.19135 0.157456 1.65081e-19)
(1.18598 0.153108 -5.31986e-20)
(1.18067 0.148717 -1.31189e-19)
(1.17558 0.144689 1.21337e-19)
(1.17088 0.13946 3.68595e-20)
(0.0110977 -0.00166377 0)
(0.0686022 -0.00747822 6.09509e-22)
(0.15905 -0.00510012 1.43306e-19)
(0.275489 0.00485107 -1.34446e-19)
(0.410165 0.0218652 -1.21198e-19)
(0.553866 0.0448649 2.25279e-19)
(0.696492 0.0717053 -1.04631e-19)
(0.828556 0.0996227 1.39648e-19)
(0.942724 0.125891 -2.92728e-21)
(1.03477 0.148363 -7.92485e-20)
(1.10373 0.165776 1.73331e-19)
(1.15133 0.177788 -2.56022e-19)
(1.18104 0.184802 0)
(1.1971 0.187684 -5.04448e-20)
(1.20359 0.187472 -1.34903e-19)
(1.20398 0.185145 4.24596e-20)
(1.20083 0.181504 1.59256e-21)
(1.1959 0.177127 -9.38985e-20)
(1.19025 0.172392 5.51526e-21)
(1.18447 0.167528 1.08763e-19)
(1.17885 0.162661 -4.86934e-20)
(1.17352 0.157857 -1.89793e-20)
(1.1685 0.153278 5.77495e-20)
(1.16385 0.147973 0)
(0.0221295 -0.00347065 0)
(0.103477 -0.00930328 3.88637e-20)
(0.218608 -0.00247407 -1.8697e-19)
(0.358052 0.0146631 6.79376e-20)
(0.51092 0.0399539 -6.39415e-20)
(0.665104 0.0707065 -5.84383e-20)
(0.80888 0.103363 -1.03435e-19)
(0.933044 0.134313 5.15412e-20)
(1.03232 0.160732 4.49088e-20)
(1.10556 0.181019 0)
(1.15498 0.194809 1.02971e-19)
(1.18484 0.202689 -1.5352e-19)
(1.20013 0.205789 1.14298e-19)
(1.20551 0.205394 5.04699e-20)
(1.20479 0.202668 -4.15652e-20)
(1.20069 0.198526 -3.48834e-20)
(1.195 0.193605 -3.26301e-20)
(1.18875 0.18831 9.73545e-20)
(1.18251 0.18288 0)
(1.17654 0.177447 4.94289e-20)
(1.17093 0.172083 4.20216e-20)
(1.16568 0.166832 -1.03799e-19)
(1.16076 0.161709 -7.18932e-20)
(1.15616 0.156304 6.64363e-20)
(0.0358678 -0.00434984 -4.20006e-20)
(0.144572 -0.00787835 -1.5802e-21)
(0.28563 0.0057508 3.80365e-20)
(0.446582 0.0318206 1.06229e-19)
(0.613252 0.0659738 3.09136e-20)
(0.771333 0.103666 -5.97559e-20)
(0.909034 0.140162 5.45849e-20)
(1.01925 0.171618 -4.79506e-20)
(1.1001 0.195816 8.61354e-20)
(1.15399 0.212212 3.68028e-20)
(1.18589 0.221531 -1.04444e-19)
(1.20164 0.225187 3.08345e-20)
(1.20663 0.224763 5.278e-20)
(1.20516 0.221669 -2.59527e-20)
(1.20024 0.216982 0)
(1.1938 0.211438 3.89037e-20)
(1.1869 0.205492 6.60792e-20)
(1.18012 0.199405 1.14889e-20)
(1.1737 0.19332 -5.52587e-20)
(1.16772 0.187312 2.32418e-20)
(1.16219 0.181423 0)
(1.15705 0.17567 -1.84471e-20)
(1.15223 0.170014 -1.75839e-20)
(1.14766 0.164433 0)
(0.0522451 -0.00384295 0)
(0.19108 -0.00218868 2.20127e-20)
(0.357973 0.0206077 4.06697e-20)
(0.537299 0.0568344 -1.0835e-19)
(0.712091 0.0995378 3.50099e-20)
(0.867306 0.142457 0)
(0.992999 0.180313 5.27915e-20)
(1.08567 0.209832 -7.37356e-20)
(1.14741 0.23 -4.30367e-20)
(1.18375 0.241566 1.94731e-20)
(1.20148 0.246244 -3.12704e-20)
(1.20692 0.245992 7.58751e-20)
(1.20509 0.242553 3.81034e-20)
(1.19949 0.237245 -2.64493e-20)
(1.19229 0.230955 -2.43747e-21)
(1.18468 0.224219 -7.28085e-20)
(1.17728 0.217339 3.31891e-20)
(1.17033 0.210473 -8.62716e-22)
(1.16391 0.203705 0)
(1.15803 0.197079 -2.3266e-20)
(1.15262 0.190617 0)
(1.14761 0.18431 5.32402e-20)
(1.14291 0.178132 -6.36158e-20)
(1.13841 0.172288 2.90794e-20)
(0.0709626 -0.00148714 -1.14977e-20)
(0.241619 0.00865488 -5.54038e-20)
(0.432795 0.0427648 6.30386e-20)
(0.626017 0.0896299 3.70284e-20)
(0.802778 0.139667 -1.7667e-20)
(0.949238 0.18549 2.97811e-20)
(1.05903 0.222181 -1.4443e-20)
(1.13305 0.247772 2.41175e-20)
(1.17707 0.262789 0)
(1.19884 0.269213 5.48313e-20)
(1.2059 0.269469 -2.23299e-21)
(1.20429 0.265755 -4.43115e-20)
(1.19822 0.259744 1.89995e-20)
(1.19028 0.252552 -2.14743e-20)
(1.18192 0.244847 -8.19216e-21)
(1.17381 0.236994 9.46101e-21)
(1.16625 0.229181 -7.30995e-21)
(1.15932 0.221503 -3.98854e-20)
(1.15302 0.214005 2.44439e-20)
(1.1473 0.206715 5.02141e-21)
(1.14208 0.199635 4.44061e-21)
(1.13724 0.19274 3.93131e-21)
(1.13269 0.186064 0)
(1.12827 0.179845 0)
(0.0915405 0.00315064 1.15056e-20)
(0.294407 0.0253246 -1.14916e-20)
(0.506944 0.072425 -2.10057e-20)
(0.708774 0.129552 0)
(0.881691 0.184977 -8.77961e-21)
(1.01503 0.231163 -7.9261e-21)
(1.10712 0.26448 -1.35862e-20)
(1.16325 0.284766 0)
(1.19205 0.294114 0)
(1.20248 0.295483 0)
(1.20197 0.291692 0)
(1.1958 0.284927 0)
(1.18725 0.276659 -1.1924e-20)
(1.17811 0.267763 5.42901e-21)
(1.16925 0.258711 9.46122e-21)
(1.16103 0.249738 4.43163e-21)
(1.15354 0.240952 1.09705e-20)
(1.14678 0.232406 0)
(1.1407 0.224126 -2.64523e-21)
(1.13523 0.216122 -2.5459e-21)
(1.13026 0.208382 -4.44768e-21)
(1.12568 0.20088 -3.93759e-21)
(1.12135 0.193726 0)
(1.11711 0.18702 2.85994e-21)
(-0.000920264 -0.00692836 6.9415e-21)
(-0.00511255 -0.0185396 -7.20799e-21)
(-0.0131477 -0.0283507 -1.36526e-20)
(-0.0231836 -0.0364316 0)
(-0.0341805 -0.0429647 -1.82756e-20)
(-0.0455859 -0.0482327 5.73747e-21)
(-0.0570066 -0.0525579 -1.0832e-20)
(-0.068164 -0.0562506 0)
(-0.0788773 -0.0595723 0)
(-0.0890344 -0.0627144 0)
(-0.0985678 -0.0657913 0)
(-0.107438 -0.0688469 0)
(-0.11562 -0.0718668 1.47593e-23)
(-0.123098 -0.0747918 -7.08131e-21)
(-0.129855 -0.07753 1.32638e-20)
(-0.135878 -0.0799654 1.8685e-20)
(-0.141155 -0.0819629 5.7918e-21)
(-0.14568 -0.0833711 0)
(-0.149465 -0.0840242 5.14794e-21)
(-0.152552 -0.0837464 -1.43743e-20)
(-0.155009 -0.0823601 -8.90943e-21)
(-0.156907 -0.079679 -8.311e-21)
(-0.158418 -0.0754673 0)
(-0.160148 -0.0695066 0)
(-0.000911648 -0.00327645 -2.08583e-20)
(-0.00514137 -0.00993131 3.59979e-20)
(-0.0133671 -0.0165099 -1.3576e-20)
(-0.0236426 -0.0225734 -2.58165e-20)
(-0.0348733 -0.0279641 3.64797e-20)
(-0.0464807 -0.0327214 -2.29834e-20)
(-0.0580544 -0.0369835 3.24472e-20)
(-0.0693055 -0.040924 2.04178e-20)
(-0.080049 -0.0447058 0)
(-0.0901721 -0.0484525 -1.80707e-20)
(-0.099609 -0.0522354 -1.59204e-23)
(-0.108322 -0.0560733 1.59721e-20)
(-0.116287 -0.0599399 2.25121e-20)
(-0.123487 -0.0637725 2.81409e-20)
(-0.129904 -0.0674797 -1.33038e-20)
(-0.135519 -0.0709448 -3.71941e-20)
(-0.140309 -0.0740264 1.14541e-20)
(-0.144257 -0.0765559 -4.31871e-20)
(-0.147358 -0.0783339 0)
(-0.149641 -0.0791302 9.52989e-21)
(-0.151154 -0.0786895 8.89838e-21)
(-0.151891 -0.0767286 8.30054e-21)
(-0.151947 -0.0729089 0)
(-0.152457 -0.0669635 0)
(-0.00133549 0.000477311 0)
(-0.00603288 -0.00110743 7.22878e-20)
(-0.0144642 -0.00440512 -2.72712e-20)
(-0.0247385 -0.00845073 2.58325e-20)
(-0.0357934 -0.0127271 -7.31711e-20)
(-0.0470699 -0.0170143 0)
(-0.0581704 -0.0212537 -4.3398e-20)
(-0.0688143 -0.0254734 2.04195e-20)
(-0.0788222 -0.0297342 -3.85314e-20)
(-0.0880858 -0.0340916 1.81652e-20)
(-0.0965422 -0.0385754 1.02016e-19)
(-0.104155 -0.0431834 -4.79059e-20)
(-0.110903 -0.0478824 -7.48125e-20)
(-0.116768 -0.0526129 -2.79042e-20)
(-0.121727 -0.0572915 2.147e-22)
(-0.125758 -0.0618113 9.81783e-20)
(-0.128826 -0.0660379 -4.59684e-20)
(-0.130896 -0.069802 2.30089e-22)
(-0.131935 -0.0728883 0)
(-0.131937 -0.0750242 -3.65257e-20)
(-0.130912 -0.075871 0)
(-0.128753 -0.0750182 -3.14019e-20)
(-0.125353 -0.0719837 1.1624e-19)
(-0.122329 -0.0663692 -8.17696e-22)
(-0.00216619 0.00408464 0)
(-0.00773179 0.0073961 2.00187e-22)
(-0.0163667 0.00728257 2.75761e-20)
(-0.0263847 0.005193 -2.60835e-20)
(-0.036838 0.00198771 2.43324e-20)
(-0.0472317 -0.00185782 1.3878e-19)
(-0.0572086 -0.00608861 -4.35122e-20)
(-0.0665135 -0.0105869 -4.11378e-20)
(-0.0749817 -0.0153104 7.72085e-20)
(-0.0825122 -0.0202466 -1.08747e-19)
(-0.0890451 -0.0253845 3.41491e-20)
(-0.0945445 -0.0307017 3.20468e-20)
(-0.0989874 -0.0361604 0)
(-0.102355 -0.0417052 2.80458e-20)
(-0.104625 -0.0472657 0)
(-0.10577 -0.0527537 4.88818e-20)
(-0.105756 -0.0580567 -9.0549e-20)
(-0.104538 -0.063029 2.22449e-20)
(-0.102064 -0.0674742 7.88585e-20)
(-0.0982939 -0.0711206 3.64933e-20)
(-0.09322 -0.0735866 0)
(-0.086699 -0.0743415 -9.14795e-20)
(-0.0782202 -0.0726655 2.91448e-20)
(-0.0690606 -0.0677209 0)
(-0.00333482 0.00732301 0)
(-0.0100995 0.0150906 -8.77108e-20)
(-0.0189128 0.0179236 -2.79525e-20)
(-0.0284116 0.0176619 -5.2332e-20)
(-0.0378295 0.0154629 4.92779e-20)
(-0.0467722 0.0120349 -4.63505e-20)
(-0.0549471 0.0078168 8.7673e-20)
(-0.0621382 0.00306565 4.117e-20)
(-0.0682006 -0.00207617 -1.16272e-19)
(-0.0730404 -0.00752824 7.28912e-20)
(-0.0765972 -0.0132377 -1.02557e-19)
(-0.0788301 -0.0191597 2.24832e-19)
(-0.0797069 -0.0252469 -1.20436e-19)
(-0.0792018 -0.0314457 5.6328e-20)
(-0.0772907 -0.0376947 1.57004e-19)
(-0.073946 -0.0439211 -4.97796e-20)
(-0.0691385 -0.0500361 -4.64644e-20)
(-0.0628355 -0.0559278 -4.26438e-20)
(-0.0549964 -0.0614459 0)
(-0.0455852 -0.0663741 -7.06308e-20)
(-0.0346333 -0.0703863 -6.29621e-20)
(-0.0221748 -0.0729362 9.16522e-20)
(-0.00746448 -0.0728872 1.07303e-19)
(0.010791 -0.0680851 -1.00535e-19)
(-0.00474009 0.0100196 0)
(-0.0129291 0.0215782 -1.18616e-19)
(-0.0218595 0.0269844 -4.8807e-22)
(-0.0305626 0.0283462 1.05391e-19)
(-0.0384974 0.0270515 0)
(-0.0453953 0.0240049 0)
(-0.0510445 0.0198066 0)
(-0.0552764 0.0148402 -4.13814e-20)
(-0.057967 0.0093419 2.5904e-23)
(-0.0590249 0.00345826 7.34469e-20)
(-0.0583802 -0.00271393 -1.02802e-19)
(-0.0559763 -0.00910169 1.5111e-22)
(-0.051763 -0.0156424 0)
(-0.0456963 -0.0222766 -5.63045e-20)
(-0.0377393 -0.0289368 5.2188e-20)
(-0.0278587 -0.0355518 -1.47305e-19)
(-0.0160322 -0.0420379 1.808e-19)
(-0.0022496 -0.0482997 3.97005e-20)
(0.01349 -0.0542215 -3.21182e-21)
(0.0311708 -0.0596583 -1.43444e-19)
(0.0507074 -0.0644107 -6.45225e-20)
(0.0720077 -0.0680624 2.03659e-19)
(0.0958094 -0.0692852 -1.34284e-19)
(0.124781 -0.065117 0)
(-0.00626428 0.0120646 5.824e-20)
(-0.0159685 0.0265771 5.94395e-20)
(-0.0248953 0.0340565 -5.68675e-20)
(-0.0324909 0.0367504 -1.06696e-19)
(-0.0384567 0.0362038 1.00466e-19)
(-0.0426612 0.0334728 -9.47106e-20)
(-0.0449801 0.02929 1.33886e-19)
(-0.0452935 0.0241473 -4.1348e-20)
(-0.0434945 0.0183654 7.88112e-20)
(-0.0394864 0.0121533 0)
(-0.0331786 0.00565347 6.94171e-20)
(-0.0244892 -0.00102817 -1.30604e-19)
(-0.0133425 -0.0078092 1.2115e-19)
(0.000331091 -0.0146082 -1.1379e-19)
(0.0165817 -0.0213425 0)
(0.0354376 -0.0279235 9.80937e-20)
(0.0569014 -0.0342518 1.80272e-19)
(0.0809332 -0.04022 -1.69169e-19)
(0.107454 -0.0457089 -7.70236e-20)
(0.136341 -0.0505916 -6.86397e-20)
(0.167375 -0.0547429 1.9503e-19)
(0.200411 -0.0579591 5.55614e-20)
(0.234604 -0.0595779 -5.43284e-20)
(0.280363 -0.0554659 4.64058e-20)
(-0.00778981 0.0134152 -5.82479e-20)
(-0.0189431 0.0299334 1.82413e-19)
(-0.0276518 0.0388766 -5.74977e-20)
(-0.033751 0.0425207 1.07921e-19)
(-0.0371784 0.042501 -1.01619e-19)
(-0.0379358 0.0399797 5.02263e-22)
(-0.035983 0.0357899 4.52147e-20)
(-0.0312435 0.0305109 1.69825e-19)
(-0.0236207 0.0245362 -2.188e-22)
(-0.013005 0.0181335 -7.44274e-20)
(0.00072074 0.0114918 0)
(0.0176634 0.00474732 -6.52667e-20)
(0.0379142 -0.00198267 1.22549e-19)
(0.0615442 -0.00858687 1.13441e-19)
(0.0885825 -0.0149597 -5.34605e-20)
(0.119002 -0.020986 9.26421e-23)
(0.152714 -0.026545 -4.54497e-20)
(0.189551 -0.0315059 8.37529e-20)
(0.229266 -0.0357308 7.7003e-20)
(0.271552 -0.0390704 -7.04182e-20)
(0.315812 -0.0414416 6.37343e-20)
(0.362692 -0.0424199 -5.7554e-20)
(0.406018 -0.0430591 0)
(0.472089 -0.0364007 -4.63303e-20)
(-0.00921165 0.0140896 5.96377e-20)
(-0.0215709 0.0316163 -6.10909e-20)
(-0.029705 0.0413315 5.843e-20)
(-0.0337795 0.0454634 0)
(-0.0339456 0.045691 0)
(-0.0303232 0.0432386 9.76163e-20)
(-0.022943 0.039011 -9.09116e-20)
(-0.0117617 0.0336549 8.55414e-20)
(0.00331297 0.027625 -4.00649e-19)
(0.0223997 0.0212421 2.36172e-22)
(0.0456191 0.0147379 7.04824e-20)
(0.0730772 0.00829281 0)
(0.104836 0.00206423 -1.22275e-19)
(0.140882 -0.00381165 2.28611e-19)
(0.181116 -0.00920311 -1.59909e-19)
(0.225332 -0.0139779 -2.44558e-19)
(0.273204 -0.0180038 3.2944e-21)
(0.324286 -0.0211494 1.6879e-19)
(0.378004 -0.0232936 0)
(0.433816 -0.0242585 0)
(0.490241 -0.0242397 -6.3724e-20)
(0.549999 -0.0218861 5.75436e-20)
(0.598893 -0.0209778 -2.01138e-19)
(0.681563 -0.0103665 1.88798e-19)
(-0.0104417 0.0141498 0)
(-0.0235607 0.0316942 0)
(-0.0305573 0.0414442 -1.761e-19)
(-0.0318647 0.0455639 5.59345e-20)
(-0.0277995 0.0457275 2.12945e-22)
(-0.0185907 0.0431974 9.88109e-20)
(-0.00432045 0.03893 0)
(0.0150269 0.0336217 -8.63545e-20)
(0.0395278 0.0277782 8.03916e-20)
(0.0692785 0.0217691 -1.51147e-19)
(0.104349 0.0158733 3.82334e-22)
(0.144742 0.0103144 1.31552e-19)
(0.190348 0.0052739 -1.03403e-21)
(0.240916 0.000907723 1.12641e-19)
(0.296024 -0.00264752 -1.60782e-19)
(0.355076 -0.00527394 0)
(0.417308 -0.00687373 1.79406e-19)
(0.481813 -0.00737 -2.51886e-19)
(0.547536 -0.00673449 7.58112e-20)
(0.613638 -0.004791 0)
(0.677788 -0.00217787 6.26851e-20)
(0.744044 0.00329558 2.23785e-19)
(0.794032 0.00570989 -2.10019e-19)
(0.879479 0.0191683 -2.28663e-19)
(-0.0114047 0.0136797 1.8469e-19)
(-0.0246046 0.0303056 -2.54269e-19)
(-0.0296082 0.03938 3.41966e-22)
(-0.0270877 0.0429956 5.66882e-20)
(-0.0174913 0.0428114 -1.05974e-19)
(-0.00111685 0.0401272 -9.82784e-20)
(0.0218959 0.0359278 1.8479e-19)
(0.051515 0.0309496 -1.31748e-21)
(0.0877509 0.0257399 -1.62716e-19)
(0.13058 0.0207093 3.03237e-19)
(0.179875 0.0161709 -1.09469e-21)
(0.235342 0.0123658 -1.32799e-19)
(0.296466 0.00947566 0)
(0.362494 0.00763105 0)
(0.432424 0.00691353 -5.30657e-20)
(0.505042 0.00735565 -9.7414e-20)
(0.578971 0.00894262 -1.78052e-19)
(0.652746 0.0116128 1.67135e-19)
(0.724876 0.0152528 -7.58378e-20)
(0.794096 0.0198358 1.3513e-19)
(0.858416 0.024728 -6.7134e-20)
(0.920214 0.0315404 1.06689e-19)
(0.966271 0.0350362 -2.58475e-19)
(1.03604 0.0480574 4.58705e-20)
(-0.0120108 0.0127617 6.24264e-20)
(-0.0243184 0.0276313 0)
(-0.0261181 0.0354028 1.21262e-19)
(-0.0182935 0.0381207 -1.14234e-19)
(-0.00141955 0.0374485 1.06069e-19)
(0.0241387 0.0347046 0)
(0.0581617 0.0308971 0)
(0.100492 0.0267868 -8.71725e-20)
(0.150931 0.022944 1.02032e-21)
(0.209132 0.0197945 7.68969e-20)
(0.274502 0.017644 -7.05473e-20)
(0.34614 0.0166944 1.33012e-19)
(0.422811 0.0170517 0)
(0.502969 0.0187309 2.2624e-19)
(0.584826 0.0216622 -4.21193e-19)
(0.666454 0.0256994 2.93474e-19)
(0.745904 0.030637 1.75986e-19)
(0.821321 0.0362115 -1.652e-19)
(0.891112 0.0421858 0)
(0.953873 0.048174 0)
(1.00889 0.054125 0)
(1.05573 0.0596531 0)
(1.09192 0.0638087 5.05746e-20)
(1.13281 0.0716877 -1.79665e-19)
(-0.163334 -0.060794 -5.20454e-21)
(-0.16663 -0.0479946 5.22676e-21)
(-0.169363 -0.0312446 -1.524e-22)
(-0.171635 -0.0103529 0)
(-0.173412 0.0149537 -4.70104e-21)
(-0.174603 0.0445398 9.09893e-21)
(-0.174863 0.0781613 -5.37311e-23)
(-0.173893 0.115319 -4.22782e-21)
(-0.17139 0.155188 0)
(-0.167065 0.196547 0)
(-0.160622 0.237689 -2.18464e-22)
(-0.15173 0.276505 -2.09017e-22)
(-0.139999 0.310534 -3.46441e-21)
(-0.124937 0.336932 3.17171e-21)
(-0.105866 0.352436 0)
(-0.0818749 0.353507 0)
(-0.0521014 0.337002 3.08496e-21)
(-0.0159508 0.300129 1.3961e-22)
(0.0266557 0.241481 -2.84479e-21)
(0.0745676 0.161216 -2.07524e-22)
(0.125969 0.0625833 0)
(0.179109 -0.0492371 0)
(0.231914 -0.165979 0)
(0.282272 -0.275593 0)
(0.326763 -0.366276 0)
(0.360175 -0.430131 0)
(0.376549 -0.468447 5.0023e-22)
(0.368796 -0.491914 -8.18025e-22)
(0.334057 -0.511148 0)
(0.285143 -0.519591 0)
(0.252745 -0.488412 -5.35864e-22)
(0.262421 -0.391331 5.20799e-22)
(0.309265 -0.234606 2.74376e-22)
(0.375279 -0.0503788 0)
(0.44703 0.125354 0)
(0.512401 0.264287 4.39647e-22)
(0.562212 0.353506 -4.27345e-22)
(0.596101 0.393594 0)
(0.606746 0.40332 2.27365e-22)
(0.574257 0.411538 -3.2732e-22)
(0.505848 0.416077 1.01023e-22)
(0.456112 0.372441 0)
(0.466648 0.253336 -2.17676e-22)
(0.52644 0.0919196 2.11657e-22)
(0.600323 -0.05726 0)
(0.666425 -0.162429 0)
(0.712506 -0.21816 -4.48336e-23)
(0.743 -0.231282 1.14795e-22)
(0.75112 -0.221165 0)
(0.735135 -0.201071 0)
(0.697758 -0.177857 -4.08554e-24)
(0.678474 -0.13559 4.00565e-24)
(0.682647 -0.0816118 2.76118e-25)
(0.723394 -0.0188251 9.61602e-25)
(0.75841 0.0281864 0)
(0.800004 0.0592996 0)
(0.813434 0.0762905 0)
(0.829801 0.0706993 0)
(0.822347 0.0752967 0)
(0.834757 0.0422625 0)
(-0.155968 -0.0580998 -4.744e-22)
(-0.159418 -0.0459979 -1.9514e-20)
(-0.161824 -0.029922 3.90793e-22)
(-0.163762 -0.00984566 1.7955e-20)
(-0.165098 0.0143953 2.60011e-22)
(-0.165709 0.042822 0)
(-0.165157 0.0750851 -1.5623e-20)
(-0.162973 0.110678 3.06118e-20)
(-0.158677 0.148815 -1.49869e-20)
(-0.15184 0.188386 1.39561e-20)
(-0.141991 0.22762 -1.33466e-20)
(-0.128572 0.264383 1.28144e-20)
(-0.111032 0.296218 -1.24326e-20)
(-0.088907 0.320217 -3.8488e-22)
(-0.0617718 0.333026 -1.26422e-20)
(-0.028901 0.331244 1.22857e-20)
(0.010147 0.311779 -1.32345e-20)
(0.0550104 0.272037 1.24346e-20)
(0.104904 0.211042 -1.41942e-20)
(0.158198 0.129424 2.79107e-20)
(0.212823 0.0304256 -1.37095e-20)
(0.267099 -0.0811593 -8.67656e-22)
(0.319562 -0.19696 -1.19398e-20)
(0.368007 -0.304481 2.19411e-20)
(0.408461 -0.390484 -1.00468e-20)
(0.436234 -0.446439 4.78726e-22)
(0.447582 -0.473136 5.64973e-21)
(0.437195 -0.481827 -7.5745e-22)
(0.398676 -0.488082 -8.00256e-21)
(0.33676 -0.494375 7.07883e-21)
(0.27818 -0.47659 -3.36017e-21)
(0.25814 -0.40004 4.05568e-22)
(0.285355 -0.258311 -2.74927e-22)
(0.341533 -0.0806762 4.66524e-22)
(0.408885 0.0943526 0)
(0.474246 0.237853 0)
(0.528688 0.334215 -1.31988e-21)
(0.567854 0.3838 9.95782e-22)
(0.577051 0.407676 7.03328e-22)
(0.540131 0.429525 6.67773e-23)
(0.477767 0.435063 -9.63346e-22)
(0.447633 0.377242 2.52887e-22)
(0.477881 0.24109 0)
(0.549619 0.070642 0)
(0.628818 -0.0788735 0)
(0.695275 -0.179191 0)
(0.738207 -0.229132 2.38704e-22)
(0.764408 -0.236992 -7.12575e-23)
(0.773161 -0.220946 0)
(0.761695 -0.194885 0)
(0.725761 -0.170141 0)
(0.696543 -0.132301 1.32207e-24)
(0.686345 -0.0851242 4.54539e-24)
(0.713094 -0.0264224 -4.4488e-24)
(0.74164 0.0202556 0)
(0.779562 0.0535861 0)
(0.792918 0.0731445 -3.22433e-24)
(0.812162 0.0695134 -1.32152e-23)
(0.806819 0.0744787 0)
(0.829565 0.0404725 0)
(-0.124348 -0.0574055 -4.29141e-22)
(-0.12787 -0.0464121 -3.75227e-20)
(-0.129458 -0.031234 3.55265e-20)
(-0.130522 -0.012232 -3.3249e-20)
(-0.130752 0.0107324 -2.61795e-22)
(-0.130105 0.0378341 0)
(-0.128182 0.0685195 -2.92504e-20)
(-0.124311 0.102308 2.86212e-20)
(-0.117818 0.138438 2.20095e-22)
(-0.108285 0.176021 3.87602e-22)
(-0.0951874 0.21314 3.79611e-22)
(-0.0777384 0.247485 3.96848e-22)
(-0.0552724 0.276865 -2.4822e-20)
(-0.0274621 0.298346 2.45099e-20)
(0.00599469 0.308705 0)
(0.0454729 0.304796 8.13331e-22)
(0.0908932 0.283392 -2.79567e-20)
(0.141386 0.242226 2.75926e-20)
(0.195691 0.180642 0)
(0.251896 0.0995099 0)
(0.307796 0.00158794 -3.06949e-20)
(0.362033 -0.108491 5.88137e-20)
(0.413473 -0.22257 -5.27194e-20)
(0.459289 -0.327517 3.62392e-21)
(0.494698 -0.408955 3.83722e-20)
(0.515239 -0.458118 -3.18054e-20)
(0.519296 -0.475631 2.36511e-20)
(0.505261 -0.471754 -2.72607e-21)
(0.466481 -0.46385 -8.08189e-21)
(0.399354 -0.462809 0)
(0.321448 -0.453831 0)
(0.271071 -0.39945 2.33858e-21)
(0.273395 -0.278138 -2.97057e-21)
(0.316572 -0.110736 -9.7823e-23)
(0.378113 0.0623839 3.18416e-21)
(0.442628 0.209408 -3.09446e-21)
(0.500193 0.312877 0)
(0.541328 0.373732 2.88357e-22)
(0.547131 0.413094 2.23101e-21)
(0.508501 0.446741 -4.36073e-21)
(0.45697 0.449873 1.89627e-21)
(0.447604 0.377021 3.26621e-22)
(0.495726 0.225835 -2.9803e-21)
(0.577666 0.0487343 2.28636e-21)
(0.660526 -0.100073 5.05797e-22)
(0.726093 -0.194884 3.77461e-22)
(0.765466 -0.238761 -2.39301e-22)
(0.786316 -0.24203 0)
(0.793409 -0.221462 0)
(0.785639 -0.189927 -1.02353e-22)
(0.754101 -0.162166 3.71204e-23)
(0.719489 -0.126728 2.50411e-23)
(0.697516 -0.0855659 -2.83247e-23)
(0.709353 -0.0316602 -3.02408e-23)
(0.729726 0.0135878 -8.75003e-25)
(0.762202 0.0483445 -9.71058e-24)
(0.775342 0.069724 1.32891e-23)
(0.79784 0.0677407 -8.76163e-24)
(0.79592 0.0724083 0)
(0.829222 0.0377068 0)
(-0.0685175 -0.0580046 -7.3844e-20)
(-0.0730369 -0.0487269 2.69815e-21)
(-0.0741344 -0.0347233 6.7364e-20)
(-0.0746203 -0.0169829 -5.12278e-22)
(-0.0738086 0.00458758 0)
(-0.071815 0.0299585 0)
(-0.0684726 0.0587391 -5.39189e-20)
(-0.0629022 0.0904584 2.789e-22)
(-0.0541852 0.124406 7.50058e-20)
(-0.0420398 0.159434 -2.61906e-22)
(-0.0264229 0.193829 -2.38884e-20)
(-0.00598804 0.2258 -2.32142e-20)
(0.0202137 0.252938 2.32538e-20)
(0.0522333 0.272259 0)
(0.0901224 0.28072 -2.61868e-20)
(0.13387 0.275298 2.37959e-20)
(0.183128 0.252999 0)
(0.23679 0.211876 0)
(0.293301 0.151308 3.15064e-20)
(0.350609 0.0721028 1.26403e-21)
(0.406807 -0.023576 -3.00003e-20)
(0.460763 -0.131314 -3.04644e-20)
(0.511098 -0.243303 3.04571e-20)
(0.554043 -0.345448 -2.3406e-20)
(0.583807 -0.42222 4.30732e-21)
(0.596241 -0.464975 1.78022e-20)
(0.591276 -0.475239 1.50268e-21)
(0.571149 -0.462058 2.33064e-23)
(0.532812 -0.441138 0)
(0.467328 -0.428655 4.72047e-21)
(0.379636 -0.421444 -4.81917e-21)
(0.302691 -0.386958 3.13073e-22)
(0.275257 -0.290981 0)
(0.300544 -0.139143 -3.73571e-22)
(0.354444 0.0297178 5.25621e-21)
(0.416998 0.179376 -9.44373e-21)
(0.475444 0.290416 -2.69327e-22)
(0.515554 0.364013 1.78053e-22)
(0.51774 0.41889 3.57947e-21)
(0.481119 0.461749 4.87998e-22)
(0.444222 0.459882 -4.71649e-21)
(0.455561 0.372419 3.99962e-21)
(0.519884 0.208533 -7.42611e-23)
(0.610321 0.0267731 2.3651e-21)
(0.695023 -0.120421 -2.80654e-21)
(0.758251 -0.209346 -2.51793e-21)
(0.793616 -0.246998 7.53591e-22)
(0.80882 -0.246067 4.89544e-22)
(0.812458 -0.222275 -7.07127e-22)
(0.806696 -0.186331 2.89175e-22)
(0.781058 -0.154796 2.99071e-23)
(0.745386 -0.119815 1.01678e-23)
(0.715368 -0.0833064 -4.18316e-23)
(0.712932 -0.0343616 8.57395e-23)
(0.724157 0.00849722 -1.12601e-23)
(0.749812 0.0437409 2.33512e-23)
(0.762675 0.066001 0)
(0.788517 0.0652301 1.07992e-23)
(0.791068 0.0689846 -9.68707e-24)
(0.834025 0.0340013 0)
(0.014452 -0.0591051 7.17614e-20)
(0.00673248 -0.0506111 -1.37239e-19)
(0.00491026 -0.0389107 6.48687e-20)
(0.00366068 -0.0234289 5.91714e-20)
(0.00391665 -0.00391735 -1.13813e-19)
(0.00590523 0.0190501 2.0328e-21)
(0.00983745 0.0456148 5.16099e-20)
(0.016362 0.0750208 4.80601e-20)
(0.026278 0.106568 -4.70895e-20)
(0.0399287 0.138851 0)
(0.0576265 0.170653 -4.56763e-20)
(0.0803796 0.200494 9.06588e-20)
(0.108843 0.225648 -4.49979e-20)
(0.14328 0.24324 0)
(0.183633 0.250324 0)
(0.229654 0.244128 8.37684e-22)
(0.280761 0.221998 -5.96125e-20)
(0.335728 0.182084 5.79063e-20)
(0.392939 0.12368 0)
(0.45037 0.0473485 6.79616e-20)
(0.506489 -0.0449807 -1.2878e-19)
(0.56031 -0.149783 1.2397e-19)
(0.609788 -0.259115 -1.15955e-19)
(0.649667 -0.357835 6.69316e-21)
(0.673158 -0.429561 8.3928e-20)
(0.676971 -0.466137 -3.73336e-20)
(0.662577 -0.470613 -7.55898e-22)
(0.634561 -0.451619 -6.92152e-21)
(0.59489 -0.421244 1.99964e-21)
(0.534745 -0.396294 5.10882e-21)
(0.447247 -0.384014 2.35212e-22)
(0.352433 -0.362807 -3.09271e-21)
(0.293817 -0.293581 6.49271e-21)
(0.294526 -0.163456 -3.75643e-21)
(0.336957 -0.00277661 0)
(0.395636 0.148323 -4.67101e-21)
(0.452631 0.267403 4.52129e-21)
(0.489976 0.354454 -3.52752e-21)
(0.490022 0.423773 4.37448e-21)
(0.459475 0.473187 -5.23096e-22)
(0.43977 0.464929 0)
(0.470938 0.364178 -7.21981e-22)
(0.549865 0.189953 2.26962e-21)
(0.647182 0.00475079 0)
(0.732004 -0.139486 5.22359e-21)
(0.791338 -0.222314 -2.24509e-21)
(0.821999 -0.253804 5.40894e-22)
(0.831689 -0.248927 3.36595e-22)
(0.830852 -0.222941 0)
(0.825104 -0.183948 0)
(0.805432 -0.14863 6.04279e-23)
(0.772191 -0.11255 -2.01944e-22)
(0.738407 -0.079011 1.54981e-22)
(0.72393 -0.034652 -6.44256e-23)
(0.726062 0.00513445 -8.13422e-23)
(0.744157 0.0398795 -2.33734e-23)
(0.756716 0.0619779 4.8533e-23)
(0.78557 0.0619085 0)
(0.793175 0.0642538 1.78799e-23)
(0.843827 0.0294978 6.46368e-24)
(0.128958 -0.057979 7.0871e-20)
(0.118196 -0.050201 -7.02772e-20)
(0.111027 -0.0415105 4.99833e-22)
(0.106887 -0.0291128 -4.47953e-22)
(0.104362 -0.0125918 4.38681e-22)
(0.104004 0.00763747 -4.10969e-22)
(0.106376 0.0313822 7.34761e-22)
(0.111688 0.0579363 0)
(0.120856 0.0866545 -6.7549e-22)
(0.13432 0.116347 6.61678e-22)
(0.152425 0.145792 6.60161e-22)
(0.175801 0.173244 -7.01453e-22)
(0.204944 0.196363 0)
(0.240103 0.212451 0)
(0.281172 0.218708 7.78238e-22)
(0.327779 0.212499 0)
(0.37919 0.1914 -8.93361e-22)
(0.434155 0.15359 0)
(0.491126 0.0981519 -6.43086e-20)
(0.548407 0.0251237 1.29572e-19)
(0.604592 -0.0629135 -1.29306e-19)
(0.658579 -0.164126 6.4144e-20)
(0.707333 -0.269981 5.59157e-20)
(0.743745 -0.364384 -5.42929e-20)
(0.76021 -0.430753 -3.92576e-20)
(0.754856 -0.461786 3.78655e-20)
(0.731357 -0.461723 0)
(0.695372 -0.43955 5.2483e-22)
(0.652157 -0.40401 0)
(0.597347 -0.368399 0)
(0.517615 -0.34639 3.91977e-21)
(0.416646 -0.329913 -4.05223e-21)
(0.331356 -0.283922 1.48032e-22)
(0.301513 -0.180385 3.72418e-22)
(0.325904 -0.0335398 -2.56824e-22)
(0.377108 0.116887 -3.22412e-21)
(0.430499 0.243761 3.13071e-21)
(0.464842 0.344093 -4.1547e-21)
(0.465437 0.426282 3.58121e-21)
(0.44471 0.480118 1.05676e-21)
(0.443455 0.465201 -5.66825e-21)
(0.49311 0.353099 -1.74424e-21)
(0.584949 0.170708 4.64664e-21)
(0.687642 -0.0165176 0)
(0.771089 -0.15676 -2.46219e-21)
(0.825008 -0.233495 2.12039e-21)
(0.850099 -0.259153 -2.90192e-21)