/*--------------------------------*- C++ -*----------------------------------*\
| =========                 |                                                 |
| \\      /  F ield         | OpenFOAM: The Open Source CFD Toolbox           |
|  \\    /   O peration     | Version:  2512                                  |
|   \\  /    A nd           | Website:  www.openfoam.com                      |
|    \\/     M anipulation  |                                                 |
\*---------------------------------------------------------------------------*/
FoamFile
{
    version     2.0;
    format      ascii;
    arch        "LSB;label=32;scalar=64";
    class       volScalarField;
    location    "113.75";
    object      p;
}
// * * * * * * * * * * * * * * * * * * * * * * * * * * * * * * * * * * * * * //

dimensions      [0 2 -2 0 0 0 0];

internalField   nonuniform List<scalar> 
13248
(
-0.358749
-0.357528
-0.356044
-0.354329
-0.352331
-0.349937
-0.346966
-0.343197
-0.338405
-0.332387
-0.324993
-0.31615
-0.305879
-0.294301
-0.281625
-0.268128
-0.254121
-0.239925
-0.225831
-0.212105
-0.198907
-0.186469
-0.174601
-0.163692
-0.367207
-0.364974
-0.36255
-0.359944
-0.357073
-0.353838
-0.350053
-0.345483
-0.339884
-0.33305
-0.324847
-0.315238
-0.304297
-0.292198
-0.279192
-0.265577
-0.251659
-0.237727
-0.224027
-0.210757
-0.198049
-0.186021
-0.174582
-0.163971
-0.376481
-0.373175
-0.369742
-0.366169
-0.362341
-0.358164
-0.353441
-0.347911
-0.341317
-0.333458
-0.324237
-0.313674
-0.30191
-0.289176
-0.275762
-0.261971
-0.248091
-0.23437
-0.221004
-0.208138
-0.195852
-0.184228
-0.173169
-0.162785
-0.386842
-0.382378
-0.377882
-0.373298
-0.368448
-0.363218
-0.357385
-0.350662
-0.342789
-0.333606
-0.323084
-0.311335
-0.298577
-0.285102
-0.271218
-0.25722
-0.243356
-0.229821
-0.216752
-0.204239
-0.192329
-0.181067
-0.170355
-0.160361
-0.398518
-0.392792
-0.387189
-0.381557
-0.375603
-0.369163
-0.361975
-0.353741
-0.344241
-0.333404
-0.321318
-0.308204
-0.294362
-0.280119
-0.265777
-0.251588
-0.237745
-0.224376
-0.211565
-0.199355
-0.187763
-0.176802
-0.1664
-0.156689
-0.411608
-0.40452
-0.39777
-0.39104
-0.383852
-0.37596
-0.367075
-0.356935
-0.345427
-0.332628
-0.318777
-0.304203
-0.289263
-0.274278
-0.25951
-0.245147
-0.231312
-0.218075
-0.205469
-0.193505
-0.182176
-0.171472
-0.161338
-0.151876
-0.426023
-0.417503
-0.409573
-0.401654
-0.393014
-0.383321
-0.372308
-0.359831
-0.345963
-0.330979
-0.315268
-0.299239
-0.283254
-0.267591
-0.252441
-0.237917
-0.224076
-0.210938
-0.198498
-0.186738
-0.175635
-0.16516
-0.155278
-0.146029
-0.441456
-0.43149
-0.422341
-0.413077
-0.402665
-0.390724
-0.377105
-0.361887
-0.345402
-0.328132
-0.310582
-0.293181
-0.276246
-0.259981
-0.24449
-0.229817
-0.21596
-0.202897
-0.190594
-0.179015
-0.168119
-0.157868
-0.148235
-0.139192
-0.457367
-0.446006
-0.435589
-0.424743
-0.412138
-0.397446
-0.380769
-0.362517
-0.343307
-0.323791
-0.304522
-0.285891
-0.26813
-0.251346
-0.235565
-0.220763
-0.206895
-0.193904
-0.181735
-0.170332
-0.159645
-0.149628
-0.140249
-0.131421
-0.472978
-0.460336
-0.448568
-0.435816
-0.420539
-0.402616
-0.382555
-0.361152
-0.33928
-0.317688
-0.2969
-0.277217
-0.258764
-0.241553
-0.225539
-0.210646
-0.19679
-0.183891
-0.171872
-0.160662
-0.150199
-0.140434
-0.131313
-0.122719
-0.487296
-0.473518
-0.460269
-0.44522
-0.42679
-0.405265
-0.381667
-0.357178
-0.332848
-0.309431
-0.28736
-0.266815
-0.247811
-0.230279
-0.214108
-0.199184
-0.185392
-0.17263
-0.160803
-0.149828
-0.139634
-0.130158
-0.121317
-0.113004
-0.499205
-0.484482
-0.469597
-0.451833
-0.429805
-0.404403
-0.377232
-0.349813
-0.323279
-0.298308
-0.275197
-0.253992
-0.234604
-0.216884
-0.200673
-0.185818
-0.172182
-0.159641
-0.148088
-0.137428
-0.127583
-0.118478
-0.110003
-0.102102
-0.347717
-0.349702
-0.350842
-0.351602
-0.352442
-0.353544
-0.354981
-0.356775
-0.358913
-0.361369
-0.364111
-0.367097
-0.370279
-0.37359
-0.376942
-0.380219
-0.383272
-0.385921
-0.387956
-0.389139
-0.389183
-0.387749
-0.385188
-0.38132
-0.339794
-0.342463
-0.343948
-0.344822
-0.34561
-0.346475
-0.347468
-0.348588
-0.349798
-0.351048
-0.352275
-0.353411
-0.354381
-0.355098
-0.355465
-0.355369
-0.354688
-0.353288
-0.351034
-0.347796
-0.343409
-0.337672
-0.330944
-0.324199
-0.333011
-0.336198
-0.337946
-0.338896
-0.339611
-0.340232
-0.34078
-0.341233
-0.34153
-0.341594
-0.341335
-0.340658
-0.339464
-0.337649
-0.335109
-0.331739
-0.327439
-0.322122
-0.315717
-0.308188
-0.299482
-0.289468
-0.278519
-0.268508
-0.327839
-0.331353
-0.33327
-0.334262
-0.334896
-0.335286
-0.335426
-0.335268
-0.334731
-0.33371
-0.332095
-0.329768
-0.326613
-0.322515
-0.317369
-0.311085
-0.30359
-0.294841
-0.284829
-0.273602
-0.261248
-0.247766
-0.233316
-0.219975
-0.324592
-0.328232
-0.330217
-0.331214
-0.331765
-0.331949
-0.331733
-0.331045
-0.329782
-0.327822
-0.325034
-0.321286
-0.316451
-0.310415
-0.30308
-0.294378
-0.284272
-0.272768
-0.259915
-0.245836
-0.230743
-0.214839
-0.198038
-0.181284
-0.323419
-0.326984
-0.328934
-0.329893
-0.330353
-0.330355
-0.329838
-0.328709
-0.326846
-0.324109
-0.320356
-0.315444
-0.309246
-0.301652
-0.292586
-0.282007
-0.269926
-0.256404
-0.241564
-0.225594
-0.208764
-0.19135
-0.173393
-0.15566
-0.324299
-0.327596
-0.329405
-0.330276
-0.330628
-0.330465
-0.329699
-0.328217
-0.325878
-0.322532
-0.318024
-0.312212
-0.304969
-0.296202
-0.285859
-0.273938
-0.260502
-0.245678
-0.229659
-0.212706
-0.195142
-0.177301
-0.159525
-0.14118
-0.327073
-0.329918
-0.331472
-0.332189
-0.332401
-0.332076
-0.331098
-0.329333
-0.326627
-0.322818
-0.317746
-0.31127
-0.303273
-0.293681
-0.282476
-0.269702
-0.255478
-0.239999
-0.223529
-0.2064
-0.189013
-0.171614
-0.155424
-0.137559
-0.331446
-0.333682
-0.334868
-0.335351
-0.335364
-0.334843
-0.333653
-0.331638
-0.328628
-0.324452
-0.318949
-0.311979
-0.303443
-0.293294
-0.281552
-0.268313
-0.253755
-0.238135
-0.22178
-0.205051
-0.188463
-0.171965
-0.157667
-0.141317
-0.337081
-0.338577
-0.339271
-0.339408
-0.339129
-0.33834
-0.336885
-0.334591
-0.331274
-0.326753
-0.320866
-0.313484
-0.304527
-0.293985
-0.281922
-0.268489
-0.253921
-0.238524
-0.222662
-0.206696
-0.191167
-0.175904
-0.162954
-0.14862
-0.343647
-0.3443
-0.344378
-0.344032
-0.343321
-0.342135
-0.340304
-0.337639
-0.333941
-0.329023
-0.322725
-0.314932
-0.305594
-0.29474
-0.282485
-0.269031
-0.254655
-0.239691
-0.224504
-0.20945
-0.194951
-0.181048
-0.168981
-0.156733
-0.350903
-0.350641
-0.349978
-0.348997
-0.347693
-0.345954
-0.343602
-0.340434
-0.33624
-0.330827
-0.324038
-0.315778
-0.306031
-0.294868
-0.282453
-0.269028
-0.254895
-0.24039
-0.225844
-0.211583
-0.197867
-0.184951
-0.173286
-0.162514
-0.375203
-0.364753
-0.350174
-0.331628
-0.30995
-0.286052
-0.263701
-0.244517
-0.230737
-0.224923
-0.227814
-0.238457
-0.253725
-0.268597
-0.277103
-0.273884
-0.255773
-0.22434
-0.186148
-0.149458
-0.120134
-0.100409
-0.089914
-0.0871974
-0.0914384
-0.103567
-0.123654
-0.146019
-0.159855
-0.156684
-0.138394
-0.113681
-0.0913214
-0.0762248
-0.0686505
-0.0671885
-0.0729606
-0.0873751
-0.105394
-0.115249
-0.108992
-0.0922423
-0.0739517
-0.060478
-0.0520009
-0.0499571
-0.0541937
-0.0587116
-0.0577763
-0.0529058
-0.0458923
-0.0407224
-0.0369586
-0.0351308
-0.0351564
-0.0345022
-0.0299741
-0.0250245
-0.0143673
-0.00220122
-0.316662
-0.306873
-0.2947
-0.280511
-0.265301
-0.2498
-0.23667
-0.227279
-0.223764
-0.22799
-0.239834
-0.257424
-0.277114
-0.293953
-0.302355
-0.297637
-0.276606
-0.241237
-0.198746
-0.157978
-0.125003
-0.101899
-0.0881122
-0.0821717
-0.0830317
-0.0911663
-0.106956
-0.126052
-0.139124
-0.138125
-0.12386
-0.10341
-0.084884
-0.0730755
-0.068275
-0.0693065
-0.0778052
-0.0950622
-0.115337
-0.126017
-0.118556
-0.0994037
-0.0780423
-0.0618445
-0.0510139
-0.0468162
-0.048788
-0.0516225
-0.0507648
-0.0471177
-0.0424243
-0.039129
-0.0377294
-0.0379464
-0.0391196
-0.0390042
-0.0335354
-0.0278023
-0.015608
-0.00215678
-0.259751
-0.250204
-0.239976
-0.229511
-0.22126
-0.21251
-0.209196
-0.208508
-0.214348
-0.227255
-0.24625
-0.268894
-0.291478
-0.309491
-0.318137
-0.312349
-0.289552
-0.251816
-0.206696
-0.163312
-0.127807
-0.102133
-0.0855839
-0.0766735
-0.0742616
-0.0784695
-0.0898754
-0.1055
-0.117595
-0.118604
-0.108144
-0.0918966
-0.0772586
-0.0688168
-0.0668569
-0.0704313
-0.0815844
-0.101465
-0.123798
-0.135326
-0.126942
-0.105714
-0.0815668
-0.0628161
-0.0498253
-0.0437007
-0.0436356
-0.0449056
-0.0440288
-0.0413625
-0.0388191
-0.0373553
-0.0384411
-0.0408033
-0.0430707
-0.0433868
-0.0369542
-0.0304488
-0.0168114
-0.00212885
-0.210582
-0.201056
-0.192332
-0.182798
-0.184766
-0.181032
-0.183031
-0.19029
-0.203642
-0.222912
-0.246742
-0.272543
-0.296769
-0.315405
-0.32408
-0.318059
-0.294648
-0.256087
-0.210046
-0.165601
-0.128779
-0.101398
-0.0827161
-0.0712758
-0.0658897
-0.0664199
-0.0735418
-0.0855176
-0.0962452
-0.09912
-0.0917414
-0.0795146
-0.0686807
-0.0635281
-0.0643224
-0.0703223
-0.0838983
-0.106151
-0.130395
-0.142892
-0.13395
-0.111029
-0.0844705
-0.0634128
-0.0484868
-0.0406868
-0.03885
-0.0386881
-0.037682
-0.0357198
-0.0351303
-0.035416
-0.03908
-0.0436722
-0.0469805
-0.0475996
-0.0401872
-0.032933
-0.0179621
-0.00211436
-0.172445
-0.163976
-0.157181
-0.152045
-0.151893
-0.154277
-0.161522
-0.174135
-0.192276
-0.215383
-0.24189
-0.269216
-0.294041
-0.31282
-0.321515
-0.31562
-0.292532
-0.254614
-0.20935
-0.165406
-0.128409
-0.100087
-0.0798414
-0.0663437
-0.0584264
-0.0556995
-0.058774
-0.067006
-0.0758746
-0.0795663
-0.0750239
-0.0666225
-0.0593623
-0.0572517
-0.0605835
-0.0687746
-0.0844764
-0.10882
-0.134834
-0.148452
-0.139376
-0.115242
-0.0867341
-0.0636788
-0.0470577
-0.0378261
-0.034489
-0.0330517
-0.0318196
-0.0302696
-0.0314103
-0.0333234
-0.0396262
-0.0465137
-0.0508094
-0.051586
-0.043195
-0.0352242
-0.0190452
-0.00211034
-0.148246
-0.138702
-0.132289
-0.129071
-0.130056
-0.135281
-0.145372
-0.160649
-0.181003
-0.20565
-0.232964
-0.260483
-0.285082
-0.303352
-0.312013
-0.30641
-0.284341
-0.248288
-0.205306
-0.163238
-0.127102
-0.0985515
-0.0772447
-0.0621198
-0.0520993
-0.0466621
-0.0461689
-0.0506941
-0.0572707
-0.060957
-0.0585147
-0.0536299
-0.0495407
-0.0500824
-0.0556494
-0.0657434
-0.083216
-0.109308
-0.136939
-0.151807
-0.143083
-0.11828
-0.088339
-0.063648
-0.0455811
-0.0351448
-0.0305729
-0.0280372
-0.0265121
-0.025079
-0.0277085
-0.0310893
-0.040052
-0.0492744
-0.0545063
-0.0553014
-0.0459486
-0.0372943
-0.0200433
-0.00211252
-0.13451
-0.125725
-0.118642
-0.115629
-0.117168
-0.123298
-0.134207
-0.150034
-0.170541
-0.194867
-0.221449
-0.24806
-0.272152
-0.289409
-0.297295
-0.291942
-0.271462
-0.238311
-0.198805
-0.15968
-0.12524
-0.0970716
-0.0751484
-0.0587696
-0.0470342
-0.0393648
-0.0358903
-0.0369875
-0.0410407
-0.044142
-0.0427327
-0.0410188
-0.0395194
-0.0422343
-0.0496655
-0.0612933
-0.0800989
-0.107561
-0.136618
-0.152843
-0.144998
-0.120096
-0.0892645
-0.06334
-0.0440845
-0.0326508
-0.0270831
-0.0236399
-0.0218018
-0.0201989
-0.0240742
-0.0287262
-0.0403212
-0.0518906
-0.0580274
-0.0587178
-0.048416
-0.0391182
-0.02094
-0.00211472
-0.133574
-0.123928
-0.115033
-0.110782
-0.111594
-0.117204
-0.127401
-0.142203
-0.161335
-0.183929
-0.208492
-0.233089
-0.256578
-0.271611
-0.278532
-0.273567
-0.255237
-0.225812
-0.190618
-0.155147
-0.122995
-0.0957098
-0.0735791
-0.0562954
-0.0432111
-0.033757
-0.0278821
-0.0259997
-0.0275308
-0.0297222
-0.0279902
-0.0292733
-0.0296574
-0.033999
-0.0428346
-0.0555806
-0.0752584
-0.103619
-0.133898
-0.151583
-0.145081
-0.120668
-0.0895005
-0.062772
-0.0425898
-0.0303475
-0.0239942
-0.0198248
-0.0176991
-0.015659
-0.0205564
-0.0262495
-0.0403928
-0.0542925
-0.0613322
-0.0618973
-0.0505685
-0.0406772
-0.0217282
-0.00211033
-0.138789
-0.129487
-0.118915
-0.112928
-0.112122
-0.11597
-0.124181
-0.136763
-0.153388
-0.173185
-0.194701
-0.215955
-0.234011
-0.250284
-0.25686
-0.252686
-0.237033
-0.211896
-0.181463
-0.150007
-0.120501
-0.0944872
-0.0725339
-0.0546859
-0.0405923
-0.0297588
-0.0220118
-0.0176735
-0.0168432
-0.0182221
-0.0217257
-0.0189425
-0.0203063
-0.0256968
-0.0354245
-0.0487826
-0.0687982
-0.0976695
-0.128984
-0.148153
-0.143388
-0.12006
-0.089134
-0.0620488
-0.0411876
-0.0282692
-0.0213033
-0.0165744
-0.0142088
-0.0114538
-0.0172047
-0.0236717
-0.0402241
-0.0564048
-0.0643705
-0.0657404
-0.0523921
-0.0419579
-0.0224093
-0.0020957
-0.145526
-0.137443
-0.126739
-0.119505
-0.11684
-0.118108
-0.123472
-0.133005
-0.146316
-0.162598
-0.180591
-0.198635
-0.215105
-0.228235
-0.234139
-0.231113
-0.218566
-0.198007
-0.172462
-0.145127
-0.118463
-0.0940132
-0.0725644
-0.0544351
-0.0395681
-0.0276293
-0.0183859
-0.0120355
-0.00897855
-0.00878469
-0.0104633
-0.009424
-0.0116922
-0.0175881
-0.0276938
-0.0412611
-0.0612266
-0.0900286
-0.122044
-0.142702
-0.14009
-0.118432
-0.0883449
-0.0613677
-0.0400541
-0.026496
-0.0189926
-0.0138699
-0.0113944
-0.00753913
-0.0140536
-0.0210234
-0.039774
-0.0581423
-0.0670421
-0.0682824
-0.0538404
-0.0429459
-0.0229703
-0.0020664
-0.152266
-0.144427
-0.134813
-0.127372
-0.123166
-0.121852
-0.124132
-0.130175
-0.139729
-0.152214
-0.166545
-0.181759
-0.195427
-0.206026
-0.211456
-0.209932
-0.200808
-0.184941
-0.164282
-0.141102
-0.117403
-0.0946979
-0.0739586
-0.0557381
-0.0402365
-0.0273538
-0.0168937
-0.00889404
-0.00376845
-0.00171002
-0.00194109
-0.00131244
-0.00414634
-0.00998584
-0.0198676
-0.0330081
-0.0523765
-0.081128
-0.113914
-0.135423
-0.135194
-0.115552
-0.0868642
-0.0604858
-0.0390239
-0.0249332
-0.0168895
-0.0115004
-0.00922569
-0.00404323
-0.0111852
-0.018272
-0.0389785
-0.0594649
-0.069292
-0.0702508
-0.0548621
-0.0436159
-0.0233518
-0.00199571
-0.156623
-0.149703
-0.141855
-0.134413
-0.128929
-0.126146
-0.126049
-0.12876
-0.13435
-0.142447
-0.152432
-0.162518
-0.175645
-0.183715
-0.187989
-0.187492
-0.181217
-0.169368
-0.152994
-0.133616
-0.112846
-0.0921218
-0.0725257
-0.0547799
-0.0392262
-0.0259582
-0.0149275
-0.00600947
0.000638266
0.00440885
0.00514674
0.00408857
0.00224956
-0.00328249
-0.0126391
-0.0251786
-0.043525
-0.0712777
-0.103804
-0.126068
-0.127187
-0.110412
-0.0833942
-0.0580236
-0.0369523
-0.0229081
-0.0145883
-0.00905326
-0.00714908
-0.00663173
-0.00869142
-0.0156283
-0.0378375
-0.0602207
-0.0710565
-0.0715859
-0.0553738
-0.0439374
-0.0234763
-0.00183045
-0.153405
-0.150148
-0.143084
-0.135764
-0.130322
-0.127253
-0.12644
-0.128041
-0.132198
-0.138746
-0.147371
-0.158396
-0.165188
-0.171188
-0.174173
-0.172795
-0.166383
-0.155164
-0.140036
-0.122275
-0.103243
-0.0841636
-0.0659628
-0.0492794
-0.0344268
-0.0215114
-0.0105482
-0.00143641
0.00578846
0.0106507
0.0125827
0.0122001
0.0100331
0.0050972
-0.00305329
-0.0144414
-0.0322063
-0.0609788
-0.0963569
-0.121652
-0.124354
-0.10593
-0.0788459
-0.054114
-0.033665
-0.0202251
-0.0121663
-0.00667404
-0.00458252
-0.0025553
-0.00528026
-0.0120692
-0.0359269
-0.0608459
-0.0727968
-0.0730615
-0.0555191
-0.043938
-0.0233952
-0.00161621
-0.149685
-0.148061
-0.141596
-0.134541
-0.129316
-0.126348
-0.125414
-0.126452
-0.129483
-0.134363
-0.140719
-0.147735
-0.153059
-0.156983
-0.158184
-0.155789
-0.149376
-0.139121
-0.125688
-0.110039
-0.0932134
-0.0761753
-0.0596936
-0.0443386
-0.0304153
-0.0180852
-0.00745077
0.00160572
0.00912226
0.014594
0.0170764
0.0167028
0.0149307
0.0109375
0.00406614
-0.00606841
-0.0230119
-0.0521219
-0.0887264
-0.114585
-0.116304
-0.0984627
-0.0726982
-0.0495777
-0.0304466
-0.0177338
-0.00989405
-0.00459351
-0.00253145
1.26285e-05
-0.00290766
-0.00933577
-0.0342321
-0.0612434
-0.0738248
-0.0735223
-0.0551219
-0.0434225
-0.0231068
-0.00151013
-0.14359
-0.143397
-0.138109
-0.131717
-0.126877
-0.124136
-0.123171
-0.123701
-0.125614
-0.12879
-0.132945
-0.137384
-0.140883
-0.142965
-0.142879
-0.140014
-0.134022
-0.124946
-0.113205
-0.0994788
-0.0845671
-0.0692612
-0.0542279
-0.0399983
-0.0268928
-0.0150874
-0.00473375
0.00420295
0.0117716
0.0175899
0.0206603
0.0209907
0.0194046
0.0159493
0.00988625
0.000373728
-0.016216
-0.0447295
-0.0799209
-0.104891
-0.106581
-0.0899995
-0.066145
-0.0448681
-0.0271423
-0.0152068
-0.00768405
-0.00257743
-0.000578938
0.00236999
-0.000958722
-0.00732787
-0.0328663
-0.0612271
-0.0741149
-0.0733219
-0.0542824
-0.0425132
-0.0226804
-0.00145733
-0.135452
-0.137109
-0.133295
-0.127752
-0.123329
-0.120747
-0.11967
-0.119707
-0.120687
-0.122519
-0.124967
-0.127503
-0.129414
-0.130188
-0.129255
-0.126116
-0.120466
-0.112288
-0.101864
-0.0897019
-0.0764244
-0.0626727
-0.0490041
-0.0358836
-0.023624
-0.0124035
-0.0023965
0.00634531
0.0138388
0.019871
0.0235399
0.024615
0.0235575
0.0208985
0.0156666
0.00662208
-0.00950201
-0.0365482
-0.0697575
-0.093981
-0.0958174
-0.0806974
-0.0590278
-0.0398141
-0.0236944
-0.0126604
-0.0055351
-0.000608801
0.00133712
0.00456776
0.000868351
-0.00548662
-0.0312264
-0.0604554
-0.0736745
-0.0724723
-0.0529983
-0.0412099
-0.0220668
-0.00143548
-0.126746
-0.129809
-0.127321
-0.122667
-0.118693
-0.116256
-0.11509
-0.114772
-0.115075
-0.11589
-0.11704
-0.118191
-0.118887
-0.118663
-0.117054
-0.113671
-0.108275
-0.100836
-0.0915419
-0.0807564
-0.0689418
-0.0566006
-0.044192
-0.0321191
-0.0206849
-0.0100745
-0.000465425
0.0080396
0.0153869
0.0214809
0.0255719
0.0273533
0.0271513
0.0255753
0.0215036
0.0133355
-0.00188037
-0.0274135
-0.0589271
-0.0820178
-0.0839583
-0.0706379
-0.0515092
-0.0345482
-0.0201653
-0.0101192
-0.00345655
0.00130596
0.00318838
0.00653217
0.00263359
-0.00352622
-0.0289627
-0.0587661
-0.07235
-0.0708215
-0.0512062
-0.0394873
-0.0212438
-0.00143541
-0.117792
-0.121677
-0.12032
-0.116569
-0.113097
-0.110854
-0.109667
-0.109115
-0.108935
-0.109014
-0.109234
-0.109386
-0.109144
-0.10814
-0.10602
-0.102486
-0.0973494
-0.0905658
-0.0822461
-0.0726435
-0.0621009
-0.0510123
-0.039757
-0.0286788
-0.0180583
-0.00808193
0.00107324
0.00929053
0.0164469
0.0224944
0.0268522
0.0292479
0.0299292
0.029587
0.0270247
0.0201831
0.00597808
-0.0182894
-0.0478472
-0.0691907
-0.0712893
-0.0601242
-0.0437948
-0.029177
-0.0165967
-0.00759967
-0.00145954
0.00315121
0.00496321
0.00828508
0.00433724
-0.00144114
-0.0260485
-0.0559999
-0.0699094
-0.0682302
-0.048868
-0.0373467
-0.0201892
-0.00144341
-0.108528
-0.112978
-0.112581
-0.109681
-0.106737
-0.10473
-0.103575
-0.102884
-0.102386
-0.101967
-0.101545
-0.100981
-0.100053
-0.0984959
-0.0960381
-0.0924496
-0.0875728
-0.081358
-0.0738695
-0.0652853
-0.0558601
-0.0458979
-0.0357062
-0.025573
-0.0157501
-0.00641971
0.00223904
0.0101142
0.0170462
0.0229889
0.0274999
0.0303574
0.0317894
0.0325705
0.0315689
0.0262104
0.0130264
-0.00981378
-0.0368033
-0.0558881
-0.0582398
-0.0494956
-0.0361063
-0.0238324
-0.0130452
-0.00512146
0.000448983
0.00491573
0.00667
0.00985638
0.00596969
0.000688605
-0.0224965
-0.0519859
-0.0661738
-0.0646101
-0.0459736
-0.03481
-0.018889
-0.00144342
-0.0992497
-0.104043
-0.104389
-0.102236
-0.0998025
-0.098057
-0.0969819
-0.0962363
-0.0955544
-0.0948205
-0.0939735
-0.0929309
-0.091547
-0.0896295
-0.0869735
-0.0834003
-0.0787836
-0.0730766
-0.0663162
-0.0586258
-0.0501914
-0.0412442
-0.0320308
-0.022791
-0.0137466
-0.00506836
0.00306512
0.0105486
0.0172178
0.0230141
0.0275901
0.0307635
0.0327389
0.0343128
0.0345167
0.0304813
0.0185708
-0.00223546
-0.0260031
-0.0425521
-0.0453315
-0.0391392
-0.0286772
-0.0186511
-0.00957029
-0.0027025
0.00226947
0.00659307
0.00832388
0.0112746
0.00754492
0.0028482
-0.0182783
-0.0466408
-0.0610558
-0.0599295
-0.0425428
-0.0319225
-0.0173402
-0.00141835
-0.0901982
-0.0950806
-0.0959637
-0.0944425
-0.0924844
-0.0910103
-0.0900523
-0.0893162
-0.0885515
-0.0876401
-0.0865431
-0.0852126
-0.083553
-0.0814281
-0.0786864
-0.0751927
-0.0708485
-0.0656122
-0.0595029
-0.0526046
-0.0450528
-0.0370229
-0.028711
-0.020315
-0.0120273
-0.00400254
0.00358695
0.0106394
0.0170031
0.022613
0.0271737
0.030532
0.0328521
0.0348146
0.0356566
0.0326237
0.0223883
0.00438383
-0.0157133
-0.029817
-0.0331947
-0.029457
-0.0217216
-0.0137581
-0.00623484
-0.000363209
0.004007
0.00818099
0.00994227
0.0125862
0.00912957
0.00509312
-0.0134197
-0.0400284
-0.0545882
-0.0542374
-0.0386344
-0.0287535
-0.0155545
-0.00135198
-0.0814318
-0.0862384
-0.0874951
-0.0864939
-0.0849599
-0.0837502
-0.0829295
-0.0822464
-0.0814704
-0.0804915
-0.0792774
-0.0778024
-0.0760073
-0.0737985
-0.0710667
-0.0677108
-0.0636547
-0.0588628
-0.0533438
-0.0471556
-0.040397
-0.033201
-0.0257222
-0.0181217
-0.0105653
-0.00319003
0.00384409
0.0104366
0.0164506
0.021824
0.0263182
0.0297322
0.0322332
0.0342887
0.0353005
0.0329728
0.0246541
0.00990165
-0.00650772
-0.0184805
-0.0224397
-0.0207879
-0.0154042
-0.00925046
-0.00309967
0.00186853
0.00566463
0.00968093
0.0115411
0.0138656
0.0108313
0.00748501
-0.00805784
-0.0323909
-0.0469656
-0.0476795
-0.0343452
-0.0253932
-0.0135614
-0.00123085
-0.0730243
-0.0776471
-0.0791396
-0.0785497
-0.0773811
-0.0764168
-0.0757408
-0.0751405
-0.0744073
-0.0734368
-0.0722009
-0.070689
-0.068867
-0.0666725
-0.064027
-0.060856
-0.0571015
-0.0527348
-0.0477595
-0.042216
-0.0361768
-0.0297424
-0.0230342
-0.0161827
-0.00932908
-0.00259364
0.00387939
0.00999245
0.0156189
0.0207019
0.0251057
0.0284374
0.030993
0.0329844
0.0339323
0.0321167
0.0256195
0.0140123
0.000935203
-0.00917787
-0.0134347
-0.0133244
-0.00982106
-0.00519024
-0.000215948
0.00395871
0.00723391
0.0110894
0.013122
0.015202
0.0127564
0.0100632
-0.00243225
-0.0241647
-0.0385617
-0.0404997
-0.0298025
-0.0219446
-0.0114122
-0.0010469
-0.0650394
-0.0693947
-0.0710122
-0.0707396
-0.0698788
-0.069135
-0.0686021
-0.0681009
-0.067444
-0.0665331
-0.0653433
-0.063873
-0.0621046
-0.0599973
-0.0574958
-0.0545456
-0.0511034
-0.0471474
-0.042679
-0.0377268
-0.0323444
-0.0266081
-0.0206134
-0.0144658
-0.00828386
-0.00217308
0.00373861
0.00935951
0.0145719
0.0193002
0.0233817
0.0267065
0.0292465
0.0311091
0.031925
0.0304893
0.0254959
0.0165739
0.00634343
-0.00201559
-0.00623121
-0.00710315
-0.00500365
-0.00160774
0.00237806
0.00587612
0.00869765
0.0123844
0.014641
0.0166502
0.0149624
0.0128408
0.00313395
-0.0159416
-0.0298959
-0.033035
-0.0251564
-0.0185124
-0.00918301
-0.000801518
-0.0574999
-0.0615422
-0.063205
-0.0631714
-0.062564
-0.0620122
-0.061613
-0.0612151
-0.0606521
-0.0598335
-0.0587355
-0.0573605
-0.0557017
-0.0537334
-0.0514169
-0.048713
-0.04559
-0.0420317
-0.0380387
-0.0336324
-0.0288528
-0.0237587
-0.018425
-0.0129371
-0.0073936
-0.00188695
0.0034723
0.00859608
0.0133738
0.0177239
0.0214669
0.0246867
0.0271347
0.0288441
0.0295335
0.0283919
0.024574
0.0178262
0.00996814
0.00320019
-0.00068854
-0.00206056
-0.000936436
0.00149205
0.00465763
0.00759394
0.0100388
0.0135325
0.016001
0.0181534
0.0173746
0.0157324
0.00824919
-0.00836386
-0.0215482
-0.0256694
-0.020564
-0.0151914
-0.00697185
-0.000510073
-0.0504364
-0.0541399
-0.0557853
-0.0559243
-0.0555209
-0.055132
-0.0548533
-0.0545556
-0.0540929
-0.0533842
-0.0524059
-0.0511604
-0.0496474
-0.047852
-0.0457474
-0.0433054
-0.0405028
-0.0373283
-0.0337827
-0.0298825
-0.0256581
-0.0211555
-0.0164337
-0.011562
-0.00662198
-0.00169362
0.00312763
0.00775869
0.012099
0.0160766
0.0195549
0.0225201
0.0248077
0.0263625
0.0269622
0.0260767
0.0231844
0.0181538
0.0122189
0.00685893
0.00345916
0.00192947
0.00242023
0.00412016
0.00661436
0.00908854
0.0112336
0.014501
0.0171121
0.0195176
0.0196643
0.0184052
0.0124672
-0.00195194
-0.0140127
-0.0187615
-0.0161721
-0.0120607
-0.00488895
-0.000200764
-0.0438629
-0.0472117
-0.0487933
-0.0490521
-0.048811
-0.0485577
-0.0483829
-0.0481787
-0.0478173
-0.047226
-0.0463799
-0.045282
-0.0439355
-0.0423324
-0.0404541
-0.0382802
-0.0357939
-0.0329876
-0.0298625
-0.026432
-0.0227197
-0.0187621
-0.0146058
-0.0103073
-0.00593399
-0.00155465
0.00274839
0.00690033
0.0108117
0.0144143
0.0176104
0.0202981
0.0224009
0.0238177
0.0243725
0.023728
0.0215805
0.0178887
0.0134796
0.00933639
0.00648962
0.00501184
0.0051234
0.00629669
0.0082521
0.0103439
0.0122526
0.0152477
0.0179084
0.020498
0.0213559
0.0203377
0.0153962
0.00303503
-0.00760382
-0.0126034
-0.012109
-0.00918627
-0.00304651
9.19379e-05
-0.0377643
-0.0407633
-0.0422541
-0.042593
-0.042479
-0.0423367
-0.0422506
-0.0421293
-0.0418621
-0.0413868
-0.0406773
-0.0397343
-0.0385628
-0.0371593
-0.0355113
-0.0336037
-0.0314243
-0.0289683
-0.026237
-0.0232418
-0.0200013
-0.0165449
-0.0129097
-0.00914208
-0.00529743
-0.00143488
0.00237542
0.00606717
0.00955866
0.0127789
0.0156098
0.0181004
0.0200283
0.0213311
0.0218776
0.0214645
0.0199238
0.0172672
0.0140486
0.0109505
0.00863806
0.00732815
0.00723928
0.00804796
0.00958084
0.0113493
0.0130675
0.0157341
0.0183243
0.0209064
0.0220939
0.0211706
0.0169216
0.00659814
-0.00248026
-0.00740529
-0.00847512
-0.00662491
-0.00154041
0.000333041
-0.0321325
-0.0347983
-0.0361823
-0.03657
-0.036554
-0.0365007
-0.0364879
-0.036438
-0.0362531
-0.0358898
-0.0353132
-0.0345236
-0.0335262
-0.0323207
-0.0308987
-0.0292491
-0.0273628
-0.0252364
-0.0228717
-0.0202785
-0.0174715
-0.0144746
-0.0113178
-0.0080391
-0.00468412
-0.00130327
0.00204395
0.00529981
0.00839277
0.0112615
0.0138217
0.0160349
0.0177818
0.0189892
0.0195524
0.0193546
0.0183051
0.0164445
0.0141453
0.0119031
0.0100874
0.00900521
0.00883967
0.00940624
0.0106143
0.012102
0.0136487
0.0159461
0.0183429
0.0206943
0.0218472
0.0209579
0.0172727
0.00890312
0.00133391
-0.00327458
-0.00534
-0.00441338
-0.000412491
0.000497964
-0.0269601
-0.0293106
-0.0305778
-0.0309909
-0.0310494
-0.0310679
-0.0311169
-0.0311334
-0.0310366
-0.0307589
-0.0302999
-0.0296538
-0.0288225
-0.0278067
-0.0266004
-0.0251954
-0.0235842
-0.0217648
-0.0197388
-0.0175145
-0.0151039
-0.0125266
-0.00980664
-0.00697548
-0.00407068
-0.00113452
0.00178283
0.00463154
0.00734935
0.0098841
0.0121649
0.0141383
0.0157193
0.0168469
0.0174389
0.0174315
0.0167755
0.0155278
0.0139224
0.0122542
0.0109759
0.0101562
0.00999576
0.010409
0.0113699
0.0126084
0.0139846
0.0158984
0.0179952
0.0199645
0.0208803
0.0200182
0.0168358
0.0101976
0.00395974
-0.000182447
-0.00274162
-0.00257458
0.000366326
0.000585029
-0.022225
-0.0242822
-0.0254302
-0.0258516
-0.0259653
-0.026039
-0.0261349
-0.0262005
-0.0261621
-0.0259757
-0.02563
-0.0251202
-0.0244458
-0.0236078
-0.0226029
-0.0214251
-0.0200686
-0.0185317
-0.0168157
-0.0149277
-0.0128774
-0.010681
-0.00835763
-0.0059334
-0.0034389
-0.000909289
0.0016127
0.00408476
0.00645362
0.00867517
0.0106886
0.0124451
0.0138771
0.0149359
0.0155566
0.0157097
0.0153666
0.0145897
0.0135225
0.01238
0.0114739
0.0108911
0.0107768
0.0110966
0.011869
0.0128866
0.0140843
0.0156276
0.0173544
0.0187679
0.0195041
0.0186822
0.0159616
0.0107571
0.00562383
0.00200164
-0.000680473
-0.0011129
0.000862558
0.000612224
-0.0179032
-0.0196938
-0.0207259
-0.0211442
-0.0212981
-0.0214141
-0.0215461
-0.0216513
-0.0216681
-0.0215593
-0.0213104
-0.0209212
-0.0203895
-0.0197147
-0.0188943
-0.0179243
-0.0168001
-0.0155199
-0.014085
-0.012501
-0.0107759
-0.00892267
-0.00695696
-0.00489994
-0.00277661
-0.00061619
0.00154574
0.00367399
0.0057234
0.00765556
0.00941923
0.0109763
0.0122744
0.0132689
0.0139109
0.014192
0.0140918
0.013671
0.0130166
0.0122899
0.0116827
0.0113004
0.0112472
0.0115113
0.0121386
0.0129619
0.0139746
0.0151843
0.0165434
0.0175674
0.0179919
0.0171971
0.0148884
0.010828
0.00657761
0.00339491
0.000882444
9.5633e-06
0.00115807
0.000607477
-0.0139748
-0.0155252
-0.0164468
-0.0168542
-0.0170367
-0.0171845
-0.0173446
-0.0174821
-0.0175455
-0.0174991
-0.0173327
-0.0170495
-0.0166464
-0.016119
-0.0154649
-0.0146816
-0.0137659
-0.0127164
-0.0115335
-0.0102217
-0.00878752
-0.00724134
-0.00559568
-0.00386771
-0.00207762
-0.00024949
0.00158771
0.00340535
0.0051653
0.00683472
0.00837125
0.00975362
0.0109154
0.0118454
0.0124967
0.0128713
0.0129535
0.0127979
0.0124563
0.0120406
0.0116742
0.0114562
0.0114649
0.0116962
0.0122087
0.012864
0.0136941
0.0146132
0.0156289
0.0163235
0.0164899
0.0157176
0.0137584
0.0105919
0.00705828
0.00436086
0.00203469
0.000851165
0.00132528
0.000591919
-0.0104168
-0.0117527
-0.0125713
-0.0129629
-0.0131653
-0.0133369
-0.0135179
-0.0136796
-0.0137795
-0.0137886
-0.0136966
-0.0135021
-0.013208
-0.0128099
-0.0123035
-0.0116862
-0.0109556
-0.0101105
-0.0091512
-0.008081
-0.00690477
-0.00563093
-0.00426942
-0.00283386
-0.00134054
0.000191299
0.00173823
0.00327606
0.0047744
0.00620812
0.00753837
0.00874239
0.00978347
0.0106509
0.0113007
0.0117382
0.0119506
0.0119839
0.0118628
0.011682
0.0115055
0.0114182
0.0114812
0.0116921
0.0121114
0.0126244
0.0132826
0.0139554
0.0146667
0.0150961
0.0150699
0.0143262
0.0126533
0.0101713
0.00723296
0.00493674
0.00284108
0.00146809
0.00142035
0.000575765
-0.00720504
-0.00835155
-0.00907632
-0.00944943
-0.00966513
-0.00985404
-0.0100501
-0.0102303
-0.0103595
-0.0104135
-0.0103818
-0.0102644
-0.0100626
-0.00977664
-0.00939983
-0.00892848
-0.00836028
-0.00769448
-0.00693122
-0.006073
-0.00512344
-0.004089
-0.0029775
-0.00179969
-0.000568403
0.000701043
0.00198976
0.00327886
0.00454364
0.00576309
0.0069074
0.00795718
0.00888463
0.00967371
0.0103053
0.010777
0.0110758
0.0112412
0.0112758
0.0112591
0.0112244
0.0112363
0.0113419
0.0115376
0.0118799
0.0122741
0.0127758
0.0132464
0.0137134
0.0139301
0.0137646
0.0130587
0.0116178
0.00964835
0.00721031
0.00522114
0.00336263
0.00193562
0.0014818
0.000563156
-0.00431705
-0.00529796
-0.00593828
-0.00629195
-0.00651605
-0.00671729
-0.00692396
-0.00711772
-0.00726981
-0.00735995
-0.0073787
-0.00732283
-0.00719259
-0.00700768
-0.00674444
-0.00639997
-0.00597269
-0.00546221
-0.00486891
-0.00419468
-0.00344214
-0.00261614
-0.00172271
-0.000770191
0.000231497
0.0012704
0.00233176
0.00340056
0.00445701
0.00548472
0.00646044
0.00736947
0.00818629
0.00890303
0.00949458
0.00997273
0.0103218
0.0105648
0.0107107
0.0108048
0.0108706
0.0109525
0.011087
0.0112685
0.0115462
0.0118422
0.0122071
0.0125154
0.0127887
0.012848
0.0125852
0.0119217
0.0106726
0.00907666
0.00705905
0.00531037
0.00367112
0.00226372
0.00152438
0.00055317
-0.00173091
-0.00256809
-0.00313331
-0.00346758
-0.00369653
-0.00390636
-0.00412045
-0.00432445
-0.00449538
-0.00461702
-0.00468243
-0.00469018
-0.00464134
-0.00451808
-0.004338
-0.004096
-0.00378676
-0.00340842
-0.00296059
-0.00244432
-0.00186135
-0.00121516
-0.000510264
0.000247049
0.00104924
0.00188716
0.00274939
0.00362424
0.00449636
0.00535308
0.00617584
0.00695333
0.00766545
0.00830607
0.00885704
0.00932133
0.00968638