/*--------------------------------*- C++ -*----------------------------------*\
| =========                 |                                                 |
| \\      /  F ield         | OpenFOAM: The Open Source CFD Toolbox           |
|  \\    /   O peration     | Version:  2512                                  |
|   \\  /    A nd           | Website:  www.openfoam.com                      |
|    \\/     M anipulation  |                                                 |
\*---------------------------------------------------------------------------*/
FoamFile
{
    version     2.0;
    format      ascii;
    arch        "LSB;label=32;scalar=64";
    class       volScalarField;
    location    "1";
    object      p;
}
// * * * * * * * * * * * * * * * * * * * * * * * * * * * * * * * * * * * * * //

dimensions      [0 2 -2 0 0 0 0];

internalField   nonuniform List<scalar> 
13248
(
-0.559411
-0.549929
-0.54003
-0.524285
-0.497694
-0.459819
-0.414157
-0.36568
-0.318645
-0.275661
-0.237798
-0.205115
-0.177166
-0.153334
-0.132996
-0.115596
-0.100657
-0.0877856
-0.0766541
-0.0669964
-0.0585943
-0.0513102
-0.0449624
-0.0396167
-0.622233
-0.611574
-0.600209
-0.581901
-0.5515
-0.509193
-0.459239
-0.407026
-0.35685
-0.311166
-0.270872
-0.235911
-0.205784
-0.179857
-0.157515
-0.138209
-0.121472
-0.106915
-0.0942155
-0.0831076
-0.0733752
-0.0648731
-0.0573755
-0.0511061
-0.683968
-0.672187
-0.659085
-0.637635
-0.602796
-0.555624
-0.50121
-0.445289
-0.392097
-0.343874
-0.301317
-0.264245
-0.232103
-0.204244
-0.18005
-0.158981
-0.140577
-0.12445
-0.11028
-0.0978015
-0.0867973
-0.0770917
-0.0684703
-0.0609249
-0.743806
-0.730894
-0.715669
-0.69041
-0.6505
-0.598113
-0.539197
-0.479727
-0.423763
-0.373259
-0.328685
-0.289733
-0.255792
-0.226198
-0.200338
-0.177675
-0.157754
-0.140191
-0.124662
-0.110899
-0.0986775
-0.0878026
-0.0780833
-0.0694964
-0.800836
-0.786771
-0.769033
-0.73937
-0.69392
-0.636157
-0.572838
-0.510047
-0.451571
-0.399034
-0.352674
-0.312058
-0.276525
-0.245398
-0.218063
-0.193988
-0.172721
-0.153876
-0.13713
-0.122209
-0.108878
-0.0969292
-0.0861922
-0.0765694
-0.854063
-0.838814
-0.818163
-0.783565
-0.732244
-0.669102
-0.601608
-0.535807
-0.475129
-0.420844
-0.372958
-0.330921
-0.294029
-0.261592
-0.232995
-0.207709
-0.185282
-0.165332
-0.147532
-0.131604
-0.117307
-0.104436
-0.092838
-0.0823629
-0.902423
-0.885956
-0.862022
-0.822075
-0.764742
-0.696403
-0.625085
-0.556655
-0.494121
-0.438389
-0.38925
-0.34605
-0.308045
-0.274534
-0.244903
-0.218623
-0.195245
-0.174384
-0.155712
-0.138947
-0.123842
-0.110194
-0.0978458
-0.0865759
-0.944801
-0.927087
-0.899559
-0.853998
-0.790718
-0.717539
-0.642863
-0.572252
-0.508246
-0.451401
-0.401308
-0.357225
-0.318376
-0.28405
-0.253631
-0.226594
-0.202487
-0.180928
-0.161587
-0.144177
-0.128455
-0.114216
-0.101289
-0.0894051
-0.980065
-0.961092
-0.929755
-0.878516
-0.809593
-0.732121
-0.654673
-0.582393
-0.517339
-0.459738
-0.409011
-0.364342
-0.32493
-0.290059
-0.259113
-0.231567
-0.206971
-0.184942
-0.165149
-0.147306
-0.131169
-0.116535
-0.103205
-0.0908983
-1.00709
-0.986869
-0.951632
-0.894873
-0.820847
-0.7398
-0.660265
-0.58688
-0.521233
-0.463257
-0.412232
-0.367288
-0.327605
-0.292467
-0.261257
-0.233453
-0.208608
-0.18634
-0.166317
-0.148256
-0.131915
-0.117085
-0.103542
-0.0910286
-1.02485
-1.00339
-0.964253
-0.902278
-0.823806
-0.739954
-0.659028
-0.585109
-0.519337
-0.461392
-0.410437
-0.36556
-0.32593
-0.290828
-0.259642
-0.23185
-0.207009
-0.184739
-0.164712
-0.146648
-0.130311
-0.115482
-0.101911
-0.0894042
-1.03254
-1.00987
-0.966873
-0.899955
-0.817574
-0.731544
-0.649817
-0.575892
-0.510474
-0.453004
-0.402543
-0.35814
-0.318949
-0.284249
-0.25343
-0.225975
-0.201442
-0.179456
-0.159692
-0.141878
-0.125787
-0.111184
-0.0978063
-0.0855664
-0.0358037
-0.0363218
-0.0295521
-0.0161289
0.00264496
0.0247171
0.0476533
0.0690258
0.0870444
0.100775
0.110062
0.115295
0.117151
0.116386
0.113712
0.109729
0.104915
0.0996298
0.0941346
0.0886178
0.0832035
0.0779874
0.0730021
0.0683331
-0.0420763
-0.0424891
-0.035736
-0.02238
-0.00365057
0.0185169
0.0416807
0.0633946
0.0818292
0.0960082
0.105744
0.111405
0.113659
0.11326
0.110919
0.107241
0.102705
0.097674
0.0924127
0.0871133
0.0819012
0.0768721
0.0720661
0.067548
-0.0580971
-0.0581893
-0.0514678
-0.0383221
-0.0197578
0.00252306
0.0261259
0.048575
0.0679536
0.0831867
0.0940058
0.100727
0.103986
0.104524
0.103047
0.10016
0.0963431
0.091967
0.0872995
0.0825404
0.0778204
0.0732395
0.0688557
0.0647196
-0.0833061
-0.0828804
-0.0762024
-0.0633875
-0.0450652
-0.0226269
0.00163996
0.0252145
0.0460434
0.0628991
0.0753901
0.0837509
0.088571
0.0905672
0.0904362
0.0887811
0.0860871
0.0827298
0.0789844
0.0750606
0.0710968
0.0671984
0.0634384
0.0598334
-0.116859
-0.115732
-0.109106
-0.0966921
-0.0786234
-0.055923
-0.0307376
-0.0056567
0.0170826
0.0360568
0.0507204
0.0612084
0.0680541
0.0719458
0.0735682
0.0735217
0.0722948
0.0702701
0.0677309
0.0648983
0.0619196
0.0589081
0.0559505
0.053025
-0.157717
-0.15569
-0.1492
-0.137143
-0.119257
-0.0961191
-0.0697258
-0.0427723
-0.0177215
0.00377684
0.0210078
0.0340011
0.0432318
0.0493588
0.053054
0.0549143
0.055431
0.0549932
0.0538932
0.0523629
0.0505585
0.048604
0.046598
0.0444797
-0.204803
-0.201848
-0.195172
-0.183497
-0.165665
-0.141837
-0.113912
-0.0847374
-0.0570398
-0.0327098
-0.0126299
0.00313058
0.0149944
0.0235941
0.0295886
0.033571
0.0360346
0.0373743
0.0378925
0.03783
0.037354
0.0365941
0.0356581
0.0344386
-0.256931
-0.252893
-0.246079
-0.234597
-0.21655
-0.191689
-0.161866
-0.130141
-0.0995287
-0.0721565
-0.0490565
-0.0303781
-0.0157389
-0.0045275
0.00390386
0.0101431
0.0146842
0.017926
0.0201822
0.0216991
0.0226644
0.023206
0.0234475
0.023212
-0.313091
-0.308058
-0.300868
-0.289305
-0.270672
-0.244352
-0.212239
-0.177666
-0.143945
-0.113414
-0.0872229
-0.0655733
-0.048108
-0.0342298
-0.0233009
-0.0147394
-0.00805262
-0.0028406
0.00121884
0.00437209
0.00683243
0.00871893
0.010195
0.0110326
-0.372185
-0.366001
-0.358447
-0.346522
-0.326853
-0.298594
-0.263805
-0.226144
-0.189207
-0.155499
-0.126235
-0.101641
-0.0813702
-0.0648341
-0.0514047
-0.0405071
-0.0316516
-0.0244369
-0.018535
-0.0136979
-0.00969633
-0.00642877
-0.00372052
-0.00176276
-0.433404
-0.426088
-0.417943
-0.405239
-0.383977
-0.353236
-0.315375
-0.274425
-0.234231
-0.197397
-0.165152
-0.13771
-0.114718
-0.0955924
-0.0797141
-0.0665175
-0.0555176
-0.0463116
-0.0385663
-0.0320159
-0.0264149
-0.0216345
-0.0175308
-0.0142138
-0.496028
-0.487572
-0.478607
-0.464628
-0.441091
-0.407186
-0.365736
-0.321206
-0.27766
-0.237742
-0.202632
-0.17249
-0.146931
-0.125362
-0.107169
-0.0917906
-0.0787493
-0.0676449
-0.0581465
-0.0499784
-0.0428922
-0.0366955
-0.0311456
-0.0260244
0.0630424
0.0575386
0.0527669
0.0484949
0.0446569
0.0413582
0.0385617
0.0361061
0.0339304
0.0320324
0.0303832
0.0289423
0.0276825
0.0265841
0.0256286
0.0247991
0.0240808
0.023461
0.0229281
0.0224713
0.0220806
0.0217468
0.0214611
0.021216
0.0210047
0.020821
0.0206591
0.0205136
0.0203795
0.0202525
0.0201285
0.0200036
0.019874
0.0197364
0.0195872
0.0194232
0.0192414
0.0190392
0.0188144
0.0185653
0.0182909
0.0179896
0.0176596
0.0172977
0.0168999
0.0164614
0.0159764
0.0154382
0.0148392
0.0141708
0.0134229
0.0125844
0.011643
0.0105852
0.00939722
0.00806434
0.00657514
0.00491222
0.0030871
0.00106843
0.0624092
0.0572963
0.0528659
0.0484666
0.0444979
0.041289
0.0386489
0.0362244
0.0340337
0.0321458
0.0305157
0.029083
0.027822
0.0267189
0.0257583
0.0249244
0.0242025
0.0235792
0.0230423
0.022581
0.0221851
0.0218455
0.0215533
0.0213012
0.0210828
0.020892
0.020723
0.0205703
0.020429
0.0202946
0.0201627
0.0200293
0.019891
0.0197441
0.0195854
0.0194116
0.0192196
0.0190068
0.018771
0.0185108
0.0182254
0.0179136
0.0175737
0.0172026
0.0167962
0.0163497
0.0158573
0.0153125
0.0147078
0.0140348
0.0132838
0.0124441
0.0115038
0.0104499
0.00926905
0.00794719
0.00647258
0.00483042
0.00302736
0.00103933
0.059974
0.0555362
0.0517019
0.0475179
0.0435589
0.0405591
0.0382272
0.0359272
0.0338046
0.0319861
0.0304129
0.0290233
0.0277972
0.0267199
0.0257752
0.0249506
0.0242355
0.0236184
0.0230871
0.0226301
0.0222371
0.0218988
0.0216065
0.0213535
0.0211335
0.0209406
0.0207691
0.0206139
0.0204701
0.0203331
0.0201983
0.0200615
0.0199186
0.0197661
0.0196006
0.0194191
0.0192186
0.0189966
0.018751
0.0184805
0.0181848
0.0178632
0.0175139
0.017134
0.0167193
0.0162649
0.0157651
0.0152135
0.0146027
0.0139246
0.0131698
0.0123279
0.0113874
0.0103359
0.00916026
0.00784719
0.00638458
0.00476014
0.00297539
0.00101352
0.0555297
0.0519148
0.0491553
0.0456765
0.042168
0.0396098
0.037398
0.0352027
0.0332588
0.0316201
0.0301357
0.0287946
0.0276129
0.0265821
0.0256802
0.0248875
0.0241932
0.02359
0.0230697
0.0226226
0.0222383
0.0219067
0.0216193
0.0213699
0.0211528
0.0209622
0.0207924
0.0206384
0.0204955
0.0203592
0.0202253
0.0200898
0.019948
0.0197956
0.0196286
0.0194436
0.0192378
0.0190088
0.0187552
0.0184762
0.0181717
0.0178415
0.0174841
0.0170966
0.0166745
0.0162129
0.0157062
0.0151481
0.0145313
0.0138478
0.0130886
0.0122435
0.0113015
0.0102505
0.00907784
0.00777076
0.00631676
0.00470593
0.00293462
0.00099265
0.0492766
0.0466891
0.045306
0.0428725
0.0400833
0.0380242
0.0361886
0.0342922
0.0323363
0.0310589
0.029734
0.0284686
0.0273314
0.0263354
0.0254718
0.0247239
0.0240722
0.0235006
0.023001
0.0225684
0.022196
0.0218746
0.0215954
0.0213528
0.0211413
0.0209555
0.02079
0.0206399
0.0205007
0.0203679
0.0202375
0.0201052
0.0199671
0.0198194
0.019657
0.0194752
0.0192699
0.0190383
0.0187797
0.0184944
0.0181833
0.0178466
0.017483
0.0170894
0.0166614
0.016194
0.0156815
0.0151177
0.0144954
0.0138069
0.0130431
0.0121943
0.0112497
0.0101977
0.00902577
0.00772172
0.00627262
0.00467074
0.00290724
0.000977725
0.0413788
0.0399775
0.0401988
0.0391645
0.0373594
0.0359181
0.0345231
0.0330273
0.031769
0.0303245
0.02913
0.0280306
0.0269945
0.0260511
0.0252133
0.0244857
0.023867
0.0233384
0.0228779
0.0224731
0.0221192
0.0218108
0.021542
0.021308
0.0211039
0.0209241
0.020764
0.0206189
0.0204846
0.0203568
0.0202315
0.0201045
0.019972
0.0198298
0.0196742
0.0195006
0.0193031
0.0190765
0.0188184
0.0185306
0.0182156
0.0178749
0.0175074
0.0171101
0.0166782
0.0162067
0.01569
0.0151218
0.0144951
0.0138021
0.0130341
0.0121815
0.0112337
0.0101792
0.009006
0.00770213
0.00625422
0.00465638
0.00289471
0.000969568
0.0320464
0.0319669
0.0340143
0.0346351
0.0339727
0.0332062
0.0323079
0.0312738
0.030276
0.0292229
0.0282695
0.0273585
0.026524
0.0257075
0.0249385
0.0242419
0.0236335
0.0231189
0.0226907
0.022326
0.0220057
0.0217202
0.0214665
0.0212436
0.0210478
0.0208748
0.0207204
0.0205805
0.0204511
0.0203283
0.0202083
0.0200872
0.0199612
0.0198261
0.019678
0.0195127
0.0193261
0.0191114
0.0188628
0.0185793
0.0182649
0.0179235
0.0175551
0.0171566
0.0167232
0.0162497
0.0157307
0.0151597
0.0145299
0.0138335
0.013062
0.0122057
0.0112543
0.0101964
0.00902014
0.00771373
0.00626336
0.0046645
0.00289849
0.000969063
0.021592
0.0229491
0.026952
0.0293376
0.0298889
0.0298482
0.0295454
0.0291024
0.0285732
0.0278884
0.0271621
0.0265161
0.0258699
0.0252447
0.0246016
0.0239863
0.0234209
0.0229158
0.0224832
0.0221328
0.0218443
0.0215923
0.0213651
0.0211603
0.0209765
0.0208122
0.0206645
0.0205301
0.0204054
0.0202873
0.0201721
0.0200564
0.0199365
0.0198086
0.0196686
0.0195125
0.0193355
0.0191335
0.0189006
0.0186313
0.0183257
0.0179887
0.0176233
0.0172267
0.0167945
0.0163216
0.0158024
0.0152306
0.0145994
0.0139009
0.0131268
0.0122674
0.0113123
0.0102503
0.00906942
0.00775796
0.00630157
0.00469658
0.00292003
0.000977099
0.0103217
0.0132955
0.0192795
0.0233524
0.0251236
0.0258641
0.026259
0.0265053
0.0265256
0.0262713
0.0258671
0.0254431
0.0250415
0.0245986
0.0241315
0.0236493
0.0231759
0.0227311
0.0223216
0.021963
0.0216729
0.0214398
0.0212399
0.0210587
0.0208921
0.0207402
0.0206017
0.0204741
0.0203549
0.0202413
0.0201304
0.0200192
0.0199042
0.0197821
0.0196491
0.0195011
0.0193335
0.0191416
0.0189219
0.0186717
0.0183846
0.0180613
0.0177053
0.0173154
0.0168882
0.016419
0.0159023
0.0153321
0.0147015
0.0140028
0.0132274
0.0123658
0.0114074
0.010341
0.00915435
0.00783564
0.00636994
0.00475373
0.00296057
0.000994496
-0.00151697
0.00309695
0.0108475
0.0165998
0.0197413
0.0214541
0.0226355
0.0235799
0.0241668
0.024378
0.0243673
0.0242378
0.0240422
0.0238146
0.023482
0.0231855
0.022848
0.0225079
0.0221714
0.0218443
0.0215515
0.0213136
0.0211228
0.0209569
0.0208057
0.0206669
0.0205385
0.0204184
0.0203048
0.0201953
0.0200877
0.0199793
0.0198673
0.0197488
0.0196205
0.0194788
0.0193196
0.0191379
0.01893
0.0186949
0.0184299
0.0181289
0.0177907
0.0174143
0.0169974
0.0165363
0.016026
0.0154606
0.0148335
0.0141369
0.0133622
0.0124999
0.0115392
0.0104686
0.00927544
0.00794762
0.00646957
0.0048371
0.00302154
0.00102204
-0.0131647
-0.0075883
0.00101115
0.00829122
0.013112
0.01615
0.0183258
0.0200659
0.0213106
0.0220793
0.0225318
0.0227841
0.022892
0.0228839
0.0228109
0.022644
0.0224328
0.0221959
0.0219422
0.0216762
0.0214166
0.0211945
0.0210128
0.0208573
0.0207183
0.0205912
0.0204726
0.0203602
0.0202522
0.0201469
0.0200422
0.0199362
0.0198264
0.0197107
0.0195863
0.0194505
0.0192997
0.0191295
0.0189374
0.0187216
0.0184793
0.018204
0.0178884
0.0175301
0.0171279
0.0166786
0.0161779
0.0156203
0.0149991
0.0143069
0.0135349
0.0126733
0.011711
0.0106362
0.00943564
0.00809662
0.00660293
0.00494886
0.00310569
0.00106163
-0.0228237
-0.0173181
-0.00980056
-0.00187313
0.00479054
0.0093952
0.0127335
0.0154776
0.0175832
0.0190498
0.0200614
0.0207635
0.0212319
0.0215167
0.0217072
0.021792
0.0217493
0.021661
0.021531
0.0213681
0.0211861
0.0210129
0.0208599
0.020725
0.0206036
0.0204918
0.020386
0.0202843
0.020185
0.0200867
0.0199879
0.0198869
0.019782
0.0196713
0.0195528
0.0194241
0.0192822
0.0191242
0.0189501
0.01876
0.0185459
0.0182965
0.0180029
0.0176632
0.0172765
0.0168404
0.0163509
0.0158027
0.0151893
0.0145032
0.0137353
0.0128756
0.0119126
0.010834
0.00962582
0.00827442
0.00676306
0.00508322
0.00320996
0.00111433
-0.0272288
-0.0206374
-0.0139744
-0.00597093
0.00125168
0.00611317
0.0097016
0.0128879
0.0154847
0.0173625
0.0186998
0.0196725
0.0203708
0.0208671
0.0212165
0.0213783
0.021435
0.0214017
0.0213328
0.0212229
0.0210917
0.020957
0.0208294
0.0207125
0.0206048
0.0205034
0.020406
0.0203109
0.0202168
0.0201227
0.0200273
0.0199293
0.0198273
0.0197196
0.0196047
0.0194809
0.0193471
0.0192042
0.0190514
0.018881
0.018682
0.0184444
0.0181617
0.0178324
0.0174553
0.0170278
0.016546
0.0160045
0.0153968
0.0147151
0.0139501
0.0130913
0.0121269
0.0110437
0.00982722
0.00846233
0.0069321
0.00522237
0.0033163
0.00116505
-0.0320139
-0.0250389
-0.0183847
-0.00974688
-0.00166746
0.00335509
0.00679408
0.0101058
0.0130316
0.0152266
0.0168445
0.0180863
0.0190315
0.0197271
0.0202129
0.0205213
0.0207542
0.0208901
0.0209351
0.0209184
0.0208674
0.0207955
0.0207159
0.0206367
0.0205589
0.0204811
0.0204025
0.0203225
0.0202406
0.0201563
0.0200688
0.0199773
0.0198809
0.0197785
0.0196689
0.0195514
0.0194257
0.0192922
0.0191468
0.0189795
0.0187812
0.0185447
0.0182648
0.0179392
0.0175661
0.0171426
0.0166646
0.0161266
0.015522
0.0148427
0.0140794
0.0132213
0.0122561
0.0111701
0.00994829
0.00857464
0.00703185
0.0053018
0.00337196
0.0011849
-0.0337255
-0.0276876
-0.0214119
-0.0125335
-0.00404522
0.000995147
0.0042578
0.00761161
0.0107684
0.0132114
0.0150572
0.0165209
0.0176752
0.018556
0.0192172
0.0197173
0.020097
0.0203485
0.020499
0.0205812
0.020615
0.0206129
0.0205892
0.0205544
0.0205117
0.0204618
0.0204055
0.0203433
0.0202756
0.0202024
0.0201235
0.0200386
0.019947
0.0198482
0.0197412
0.0196256
0.0195009
0.0193657
0.0192149
0.0190409
0.0188366
0.0185961
0.0183141
0.0179876
0.017614
0.0171902
0.016712
0.0161737
0.0155687
0.0148887
0.0141245
0.013265
0.012298
0.0112096
0.00998441
0.00860611
0.00705753
0.00531823
0.00337853
0.00118465
-0.0331005
-0.0288342
-0.0233635
-0.0146777
-0.00604807
-0.000951455
0.00218412
0.0054942
0.00877724
0.0114057
0.0134328
0.0150741
0.0164061
0.0174662
0.0183037
0.0189575
0.0194533
0.0198168
0.0200754
0.0202524
0.0203667
0.0204334
0.0204668
0.0204779
0.0204721
0.0204522
0.0204202
0.0203777
0.0203256
0.0202648
0.0201953
0.0201174
0.0200308
0.0199351
0.0198296
0.0197138
0.0195868
0.0194467
0.0192893
0.019109
0.0188996
0.0186551
0.0183704
0.0180418
0.0176666
0.0172412
0.0167612
0.016221
0.0156138
0.0149315
0.0141646
0.0133021
0.0123318
0.0112396
0.0100102
0.00862712
0.00707345
0.00532718
0.00338198
0.00118723
-0.0314522
-0.0286538
-0.0242037
-0.0160492
-0.00748824
-0.00237924
0.000612456
0.00380113
0.00711403
0.00985378
0.012005
0.0137791
0.0152584
0.0164689
0.0174436
0.0182174
0.0188246
0.0193002
0.0196595
0.0199242
0.020115
0.0202484
0.0203381
0.0203954
0.0204274
0.0204386
0.0204321
0.0204103
0.0203751
0.0203277
0.0202689
0.0201991
0.0201184
0.0200268
0.0199238
0.0198088
0.0196808
0.019538
0.019377
0.019193
0.0189802
0.018733
0.0184464
0.0181166
0.0177404
0.017314
0.0168328
0.0162911
0.0156822
0.0149977
0.0142282
0.0133627
0.0123886
0.0112921
0.0100576
0.00866832
0.00710764
0.00535226
0.00339861
0.0011955
-0.0287538
-0.027262
-0.0239892
-0.0165763
-0.00826714
-0.00324792
-0.000444645
0.00255886
0.00581288
0.00858543
0.0108021
0.0126616
0.0142431
0.0155605
0.0166415
0.0175227
0.018232
0.0188082
0.0192569
0.0196026
0.0198659
0.0200629
0.0202071
0.02031
0.0203798
0.0204223
0.0204417
0.0204412
0.0204233
0.0203897
0.0203419
0.0202807
0.0202065
0.0201195
0.0200194
0.0199059
0.0197778
0.0196335
0.01947
0.019283
0.0190673
0.0188177
0.0185295
0.0181987
0.0178217
0.0173946
0.0169126
0.0163699
0.0157596
0.0150733
0.0143016
0.0134332
0.0124556
0.0113547
0.0101148
0.00871884
0.00715014
0.00538448
0.00341987
0.00120429
-0.0253075
-0.0249781
-0.0228502
-0.0162746
-0.00837187
-0.00355522
-0.000994884
0.00176932
0.00489188
0.0076274
0.00985167
0.0117451
0.0133823
0.0147717
0.0159351
0.0169048
0.0177097
0.0183574
0.0188825
0.0193011
0.0196307
0.0198867
0.0200825
0.0202294
0.0203363
0.0204098
0.020455
0.0204759
0.0204754
0.0204559
0.0204194
0.0203669
0.0202992
0.0202169
0.0201198
0.0200076
0.0198795
0.0197338
0.0195679
0.0193779
0.0191593
0.0189072
0.0186172
0.0182852
0.0179072
0.0174792
0.0169962
0.0164524
0.0158406
0.0151525
0.0143784
0.0135071
0.0125259
0.0114204
0.0101749
0.00877192
0.00719476
0.00541843
0.00344182
0.00121275
-0.0213782
-0.0220111
-0.0209462
-0.015247
-0.00784988
-0.00332023
-0.00104991
0.00143177
0.00436517
0.00700215
0.00917836
0.0110567
0.0127078
0.0141339
0.0153487
0.0163775
0.0172434
0.0179599
0.0185503
0.0190314
0.0194191
0.0197282
0.0199712
0.0201592
0.0203014
0.0204048
0.0204752
0.020517
0.0205338
0.0205284
0.0205031
0.0204593
0.0203983
0.0203206
0.0202265
0.0201157
0.0199876
0.0198406
0.0196723
0.0194795
0.019258
0.0190034
0.0187114
0.0183779
0.0179987
0.0175696
0.0170855
0.0165403
0.0159269
0.0152368
0.0144602
0.0135859
0.0126008
0.0114905
0.0102391
0.00882877
0.00724263
0.00545512
0.00346559
0.00122177
-0.0171574
-0.0185737
-0.0184622
-0.0136163
-0.00676614
-0.00257618
-0.000631213
0.00153427
0.00423306
0.00672013
0.00879912
0.0106178
0.0122423
0.0136684
0.014902
0.0159622
0.0168686
0.0176338
0.0182743
0.0188054
0.0192415
0.0195958
0.0198803
0.0201052
0.0202797
0.020411
0.0205051
0.0205669
0.0206003
0.0206085
0.0205941
0.0205589
0.0205043
0.0204312
0.0203399
0.0202306
0.0201024
0.0199542
0.0197838
0.0195883
0.019364
0.0191069
0.0188128
0.0184776
0.0180971
0.0176668
0.0171814
0.0166347
0.0160196
0.0153275
0.0145484
0.0136708
0.0126817
0.0115665
0.0103088
0.00889063
0.00729489
0.0054955
0.0034919
0.00123163
-0.0128031
-0.014827
-0.0155438
-0.0114978
-0.00520122
-0.0013769
0.00022345
0.00205109
0.0044821
0.00677984
0.00872158
0.0104412
0.0120014
0.0133926
0.0146134
0.0156764
0.0166024
0.0173955
0.018069
0.018636
0.0191088
0.0194992
0.0198178
0.0200741
0.0202768
0.0204329
0.0205484
0.0206286
0.0206774
0.0206983
0.0206942
0.020667
0.0206185
0.0205496
0.0204611
0.020353
0.0202248
0.0200754
0.0199029
0.0197049
0.0194779
0.0192182
0.0189219
0.0185849
0.0182028
0.0177711
0.0172843
0.0167362
0.0161193
0.015425
0.0146433
0.0137624
0.0127691
0.0116486
0.0103844
0.00895797
0.00735199
0.00553991
0.003521
0.00124244
-0.00839675
-0.0108956
-0.0123224
-0.00900519
-0.00324407
0.000210691
0.00146416
0.0029467
0.00508943
0.00716891
0.00894263
0.0105317
0.0119953
0.0133205
0.014499
0.0155309
0.01646
0.0172603
0.0179484
0.0185357
0.0190324
0.0194482
0.0197924
0.0200734
0.0202989
0.0204757
0.0206096
0.0207056
0.020768
0.0208003
0.0208053
0.0207854
0.0207423
0.0206772
0.020591
0.0204839
0.0203554
0.0202048
0.0200303
0.0198297
0.0196
0.0193377
0.0190391
0.0187001
0.0183164
0.0178831
0.0173948
0.0168451
0.0162264
0.0155299
0.0147454
0.0138611
0.0128636
0.0117376
0.0104665
0.00903132
0.00741442
0.00558873
0.00355316
0.00125436
-0.00402515
-0.00689321
-0.00891473
-0.0062411
-0.000978437
0.00211847
0.00303491
0.00417746
0.00602518
0.00786887
0.00945098
0.0108843
0.0122261
0.0134606
0.0145782
0.015588
0.016463
0.0172424
0.0179252
0.0185163
0.019023
0.0194526
0.0198128
0.0201106
0.0203526
0.0205451
0.0206934
0.0208022
0.0208756
0.0209172
0.0209299
0.020916
0.0208774
0.0208154
0.0207309
0.0206243
0.0204954
0.0203433
0.0201667
0.0199635
0.019731
0.0194661
0.0191651
0.018824
0.0184384
0.0180035
0.0175136
0.0169621
0.0163415
0.0156428
0.0148555
0.0139677
0.0129658
0.0118341
0.0105557
0.00911131
0.00748276
0.00564244
0.00358874
0.00126755
0.000247676
-0.00289786
-0.00541274
-0.00330068
0.00151064
0.00427596
0.00487739
0.00569531
0.00725056
0.00885101
0.0102283
0.0114883
0.0126872
0.0138064
0.014832
0.0157644
0.0166001
0.017347
0.0180083
0.0185878
0.0190905
0.0195219
0.0198876
0.0201934
0.0204448
0.020647
0.0208048
0.0209225
0.0210039
0.0210523
0.0210706
0.0210611
0.0210257
0.0209657
0.0208822
0.0207755
0.0206456
0.0204918
0.0203129
0.020107
0.0198717
0.019604
0.0193004
0.018957
0.0185695
0.0181327
0.0176411
0.0170879
0.0164654
0.0157643
0.0149742
0.0140829
0.0130764
0.0119388
0.0106528
0.00919867
0.00755768
0.0057016
0.00362814
0.00128222
0.00438264
0.00103054
-0.0018889
-0.000261436
0.00414698
0.00661356
0.00693021
0.00744679
0.00872105
0.0100799
0.0112475
0.0123236
0.013365
0.0143529
0.0152708
0.0161153
0.0168857
0.017582
0.0182056
0.0187584
0.0192435
0.0196643
0.0200249
0.0203294
0.0205822
0.0207875
0.0209492
0.0210712
0.0211567
0.0212089
0.0212303
0.0212232
0.0211893
0.0211301
0.0210464
0.0209389
0.0208073
0.0206513
0.0204698
0.0202609
0.0200226
0.019752
0.0194457
0.0190999
0.0187102
0.0182716
0.0177782
0.0172232
0.0165986
0.0158953
0.0151024
0.0142074
0.0131962
0.0120526
0.0107587
0.00929419
0.00763993
0.00576683
0.00367186
0.00129856
0.00834957
0.00484417
0.00159738
0.00281441
0.00686905
0.00907016
0.00913368
0.00937614
0.0103861
0.0115118
0.012473
0.0133642
0.0142423
0.0150892
0.0158874
0.016632
0.0173205
0.0179508
0.018522
0.0190343
0.0194887
0.019887
0.0202316
0.0205253
0.0207712
0.0209723
0.0211319
0.0212529
0.0213383
0.0213906
0.0214121
0.0214049
0.0213705
0.0213103
0.0212252
0.0211157
0.0209818
0.020823
0.0206383
0.0204262
0.0201846
0.0199108
0.0196017
0.0192533
0.0188614
0.0184207
0.0179254
0.0173686
0.0167421
0.0160365
0.0152407
0.0143421
0.0133262
0.0121763
0.0108741
0.00939877
0.00773036
0.00583889
0.00372041
0.00131682
0.0121194
0.00850467
0.00499852
0.00587078
0.00961702
0.0115863
0.0114302
0.0114295
0.0121983
0.0131059
0.0138698
0.0145803
0.0152953
0.0159978
0.0166696
0.0173049
0.0179004
0.0184526
0.0189592
0.0194186
0.0198304
0.020195
0.0205133
0.0207868
0.0210173
0.0212068
0.0213578
0.0214723
0.0215527
0.021601
0.0216192
0.021609
0.0215717
0.0215086
0.0214205
0.0213077
0.0211703
0.0210079
0.0208194
0.0206036
0.0203584
0.0200812
0.019769
0.0194179
0.0190236
0.0185808
0.0180837
0.017525
0.0168965
0.0161887
0.0153901
0.014488
0.0134672
0.012311
0.0110002
0.00951344
0.00782994
0.0059186
0.00377445
0.00133727
0.0156936
0.0119961
0.00828089
0.0088626
0.0123412
0.0141113
0.0137698
0.0135593
0.0141138
0.014823
0.0154037
0.0159429
0.0164997
0.0170584
0.0176011
0.0181221
0.0186173
0.0190827
0.0195149
0.0199114
0.0202706
0.0205915
0.0208739
0.0211182
0.0213251
0.0214956
0.0216313
0.0217334
0.0218037
0.0218436
0.0218547
0.0218382
0.0217954
0.0217271
0.0216339
0.0215164
0.0213743
0.0212072
0.0210143
0.0207942
0.0205449
0.020264
0.0199484
0.0195944
0.0191976
0.0187527
0.0182536
0.0176932
0.0170629
0.0163529
0.0155517
0.014646
0.0136205
0.0124577
0.0111381
0.00963933
0.00793976
0.00600694
0.0038347
0.00136021
0.0190537
0.0152995
0.011424
0.0117653
0.0150125
0.0166131
0.0161182
0.0157291
0.0160951
0.0166263
0.0170402
0.0174206
0.0178276
0.0182472
0.0186626
0.0190679
0.0194593
0.0198326
0.0201837
0.0205097
0.020808
0.0210768
0.0213151
0.0215221
0.0216977
0.0218421
0.0219559
0.0220398
0.0220948
0.0221216
0.0221215
0.0220953
0.0220438
0.0219677
0.0218675
0.0217433
0.021595
0.0214222
0.0212239
0.0209987
0.0207448
0.0204598
0.0201406
0.0197835
0.0193841
0.018937
0.0184361
0.017874
0.017242
0.01653
0.0157263
0.0148173
0.0137871
0.0126178
0.0112891
0.00977772
0.00806108
0.00610502
0.00390202
0.00138602
0.0221976
0.018406
0.0144112
0.0145553
0.0176025
0.0190599
0.018441
0.0179031
0.0181062
0.0184805
0.0187454
0.0189818
0.0192503
0.019539
0.0198319
0.0201239
0.0204115
0.0206905
0.0209569
0.0212072
0.0214387
0.021649
0.0218362
0.0219991
0.0221366
0.0222484
0.0223342
0.0223942
0.0224285
0.0224377
0.0224222
0.0223825
0.0223192
0.0222325
0.0221228
0.02199
0.0218339
0.021654
0.0214492
0.0212181
0.0209591
0.0206695
0.0203463
0.019986
0.0195839
0.0191346
0.018632
0.0180683
0.0174348
0.0167211
0.0159152
0.015003
0.0139683
0.0127925
0.0114545
0.00993004
0.0081953
0.00621413
0.00397744
0.00141515
0.0251244
0.0213103
0.0172312
0.0172148
0.0200882
0.0214252
0.0207092
0.0200503
0.0201148
0.0203532
0.0204877
0.0205961
0.0207394
0.0209076
0.0210859
0.0212699
0.0214565
0.021642
0.0218226
0.021995
0.0221561
0.0223032
0.0224343
0.0225476
0.0226414
0.0227149
0.0227672
0.0227979
0.0228067
0.0227936
0.0227585
0.0227017
0.0226232
0.0225231
0.0224014
0.0222578
0.0220921
0.0219035
0.021691
0.0214532
0.0211882
0.0208936
0.0205662
0.0202024
0.0197975
0.0193462
0.0188419
0.018277
0.0176423
0.0169273
0.0161195
0.0152045
0.0141655
0.0129832
0.0116358
0.0100979
0.00834401
0.00633578
0.00406215
0.00144814
0.0278351
0.0240105
0.0198776
0.0197317
0.0224525
0.0236884
0.0228992
0.0221447
0.0220934
0.0222159
0.0222383
0.0222352
0.0222677
0.0223275
0.0224009
0.0224842
0.0225752
0.0226707
0.0227671
0.0228614
0.0229508
0.0230324
0.0231041
0.0231638
0.0232096
0.0232402
0.0232544
0.0232512
0.02323
0.0231903
0.0231318
0.0230541
0.0229571
0.0228405
0.0227042
0.0225477
0.0223704
0.0221716
0.0219501
0.0217045
0.0214328
0.0211326
0.0208007
0.0204332
0.0200257
0.0195725
0.0190669
0.018501
0.0178656
0.0171497
0.0163405
0.015423
0.0143801
0.0131917
0.0118349
0.010283
0.00850903
0.00647168
0.00415758
0.00148565
0.0303317
0.0265073
0.0223478
0.0220984
0.0246828
0.0258333
0.0249922
0.024165
0.0240185
0.0240437
0.0239717
0.0238734
0.0238098
0.023774
0.0237535
0.0237453
0.0237479
0.0237586
0.0237746
0.023793
0.0238114
0.0238271
0.023838
0.0238418
0.0238367
0.0238211
0.0237935
0.0237526
0.0236976
0.0236276
0.0235419
0.0234399
0.0233212
0.0231853
0.0230318
0.02286
0.0226692
0.0224586
0.0222268
0.0219723
0.0216932
0.0213868
0.0210501
0.020679
0.0202689
0.019814
0.0193075
0.0187412
0.0181056
0.0173894
0.0165793
0.0156601
0.0146137
0.0134194
0.0120534
0.0104873
0.00869235
0.0066238
0.00426543
0.00152847
0.032617
0.0288029
0.0246415
0.0243105
0.0267706
0.0278479
0.0269735
0.026094
0.0258708
0.0258158
0.0256656
0.0254879
0.0253426
0.0252242
0.0251214
0.0250318
0.0249545
0.0248874
0.0248283
0.0247749
0.0247248
0.024676
0.0246263
0.0245737
0.0245163
0.0244524
0.0243804
0.0242991
0.0242072
0.0241037
0.0239877
0.0238584
0.0237151
0.0235572
0.0233839
0.0231946
0.0229884
0.0227642
0.0225208
0.0222565
0.0219692
0.0216562
0.0213144
0.0209397
0.0205273
0.0200712
0.0195643
0.0189983
0.0183633
0.0176475
0.0168374
0.015917
0.0148678
0.0136682
0.0122931
0.0107128
0.00889614
0.00679435
0.0043877
0.00157763
0.0346941
0.0309006
0.0267612
0.026367
0.0287104
0.0297237
0.0288323
0.0279186
0.027635
0.0275149
0.0273015
0.0270589
0.0268457
0.0266575
0.0264841
0.0263236
0.0261756
0.0260388
0.0259112
0.0257912
0.0256769
0.0255665
0.025458
0.0253498
0.02524
0.0251271
0.0250095
0.0248859
0.024755
0.0246156
0.0244667
0.0243074
0.024137
0.0239545
0.0237592
0.0235503
0.0233268
0.0230876
0.0228313
0.0225562
0.0222601
0.0219403
0.0215934
0.0212153
0.020801
0.0203443
0.0198379
0.0192731
0.0186396
0.0179253
0.0171161
0.0161954
0.0151441
0.0139397
0.012556
0.0109615
0.00912268
0.00698581
0.00452677
0.00163436
0.0365661
0.0328052
0.0287111
0.0282691
0.0304998
0.031455
0.0305606
0.029629
0.0292992
0.0291272
0.028864
0.0285697
0.0283014
0.0280557
0.027823
0.0276021
0.0273931
0.0271949
0.0270064
0.0268262
0.0266528
0.0264848
0.0263207
0.026159
0.0259982
0.0258368
0.0256733
0.0255066
0.0253353
0.0251584
0.0249748
0.0247835
0.0245837
0.0243746
0.0241553
0.023925
0.0236826
0.023427
0.0231567
0.02287
0.0225646
0.0222377
0.021886
0.021505
0.0210895
0.0206332
0.0201284
0.0195661
0.0189354
0.0182239
0.0174167
0.0164967
0.0154441
0.0142355
0.0128437
0.0112352
0.00937419
0.00720074
0.00468535
0.00170024
0.0382357
0.0345211
0.0304967
0.0300203
0.0321382
0.0330388
0.0321537
0.0312186
0.0308549
0.0306424
0.030341
0.0300069
0.0296952
0.0294031
0.0291219
0.0288508
0.0285901
0.0283393
0.0280976
0.027864
0.0276376
0.0274172
0.0272016
0.0269896
0.02678
0.0265716
0.026363
0.0261533
0.0259413
0.0257259
0.0255063
0.0252815
0.0250507
0.0248132
0.0245682
0.0243149
0.0240521
0.0237789
0.0234938
0.023195
0.0228802
0.0225466
0.0221905
0.0218075
0.0213921
0.0209376
0.0204359
0.0198777
0.0192515
0.0185442
0.0177404
0.0168222
0.0157691
0.0145569
0.0131574
0.0115354
0.00965246
0.00744158
0.00486649
0.00177723
0.0397042
0.0360535
0.0321251
0.031626
0.033628
0.0344746
0.0336096
0.0326838
0.0322969
0.0320533
0.0317238
0.0313604
0.0310154
0.030687
0.0303671
0.0300551
0.0297518
0.0294569
0.0291698
0.0288901
0.028617
0.0283497
0.0280874
0.0278291
0.0275739
0.0273207
0.0270687
0.0268169
0.0265643
0.0263102
0.0260539
0.0257945
0.0255315
0.0252643