/*--------------------------------*- C++ -*----------------------------------*\
| =========                 |                                                 |
| \\      /  F ield         | OpenFOAM: The Open Source CFD Toolbox           |
|  \\    /   O peration     | Version:  2512                                  |
|   \\  /    A nd           | Website:  www.openfoam.com                      |
|    \\/     M anipulation  |                                                 |
\*---------------------------------------------------------------------------*/
FoamFile
{
    version     2.0;
    format      ascii;
    arch        "LSB;label=32;scalar=64";
    class       volVectorField;
    location    "1";
    object      U;
}
// * * * * * * * * * * * * * * * * * * * * * * * * * * * * * * * * * * * * * //

dimensions      [0 1 -1 0 0 0 0];

internalField   nonuniform List<vector> 
13248
(
(0.0005031 0.00498195 1.24025e-19)
(0.108868 -0.0688632 0)
(0.292689 -0.182096 -2.17049e-19)
(0.50633 -0.303189 2.04406e-19)
(0.709767 -0.407765 1.896e-19)
(0.876557 -0.48186 0)
(0.996246 -0.522091 0)
(1.07117 -0.532618 3.22378e-19)
(1.11062 -0.521184 -2.54845e-20)
(1.12566 -0.495907 -2.36221e-19)
(1.12597 -0.463451 1.74353e-19)
(1.11858 -0.428439 -1.04129e-19)
(1.10798 -0.393654 0)
(1.09667 -0.360543 -1.18796e-19)
(1.08588 -0.329728 2.08437e-19)
(1.07611 -0.301373 -4.46031e-20)
(1.06745 -0.275423 -6.47459e-20)
(1.05987 -0.25173 6.07914e-20)
(1.05325 -0.230115 0)
(1.04747 -0.210392 0)
(1.04246 -0.192331 0)
(1.0379 -0.17598 0)
(1.03488 -0.16028 1.20157e-20)
(1.02908 -0.146158 3.33061e-20)
(0.0132263 -0.00480168 -3.84995e-19)
(0.150631 -0.0878727 2.61966e-19)
(0.363059 -0.200878 -6.00999e-21)
(0.598843 -0.31513 -3.43756e-19)
(0.814288 -0.409304 -1.89408e-19)
(0.983002 -0.472335 -1.8087e-19)
(1.09726 -0.503069 -2.77202e-19)
(1.1629 -0.506893 2.72634e-19)
(1.1921 -0.491793 0)
(1.19767 -0.46545 1.00812e-20)
(1.18994 -0.433785 2.67375e-20)
(1.17599 -0.40067 1.19017e-19)
(1.16003 -0.368294 0)
(1.14424 -0.337712 0)
(1.12958 -0.309324 8.23053e-20)
(1.11636 -0.283192 -1.54409e-19)
(1.10458 -0.259228 7.83836e-20)
(1.09412 -0.23729 -7.35954e-20)
(1.08485 -0.217218 -3.08888e-20)
(1.07662 -0.198862 -4.44411e-20)
(1.06929 -0.182062 -1.64593e-20)
(1.06271 -0.166884 -2.65886e-20)
(1.05725 -0.152273 4.54301e-20)
(1.05016 -0.142192 1.23685e-20)
(0.0289375 -0.0141705 0)
(0.198621 -0.104298 0)
(0.439752 -0.214023 1.24109e-19)
(0.694964 -0.318438 1.06127e-19)
(0.918162 -0.400146 -1.47421e-20)
(1.08463 -0.451352 -2.11891e-19)
(1.1905 -0.472994 0)
(1.24546 -0.471254 -1.27954e-19)
(1.2643 -0.453893 1.15153e-19)
(1.26107 -0.427813 8.23842e-21)
(1.24633 -0.398019 -1.49888e-19)
(1.22688 -0.367606 -1.16465e-19)
(1.20649 -0.338217 1.3229e-20)
(1.18698 -0.310586 -6.87869e-20)
(1.16906 -0.284952 1.8223e-19)
(1.1529 -0.261318 0)
(1.13841 -0.239586 -9.0881e-20)
(1.12545 -0.219624 4.27844e-20)
(1.11385 -0.201295 3.0864e-20)
(1.10345 -0.184468 0)
(1.09409 -0.169013 2.13038e-20)
(1.08561 -0.154931 -7.27903e-20)
(1.07809 -0.14155 6.83251e-20)
(1.06952 -0.1319 3.7658e-20)
(0.0476181 -0.0226306 -1.55882e-19)
(0.252389 -0.117039 -1.63795e-19)
(0.52173 -0.22046 1.398e-19)
(0.793345 -0.312675 0)
(1.0203 -0.38076 0)
(1.18103 -0.420153 -1.36606e-20)
(1.27629 -0.433502 0)
(1.31965 -0.42733 -4.20018e-19)
(1.3282 -0.408825 3.65372e-19)
(1.31677 -0.383926 -4.0917e-19)
(1.29582 -0.356682 7.85064e-20)
(1.27166 -0.329445 0)
(1.24756 -0.30338 1.06183e-19)
(1.22495 -0.278957 -1.88e-19)
(1.2043 -0.256298 4.22927e-20)
(1.18565 -0.235367 8.85597e-20)
(1.16887 -0.216069 -1.28482e-20)
(1.15377 -0.198291 -1.00599e-19)
(1.14017 -0.18192 0)
(1.12791 -0.166847 0)
(1.11681 -0.152986 -2.75911e-20)
(1.10677 -0.14022 2.30513e-20)
(1.09776 -0.128212 6.923e-20)
(1.08838 -0.119491 -6.50552e-20)
(0.0691101 -0.0296469 -1.73363e-19)
(0.311085 -0.124898 -1.72055e-19)
(0.607261 -0.218862 4.77725e-19)
(0.891554 -0.296865 -2.74601e-19)
(1.11802 -0.350768 2.5847e-19)
(1.26969 -0.37898 4.14517e-19)
(1.35256 -0.385344 -2.86722e-19)
(1.38394 -0.376222 -2.97286e-19)
(1.38272 -0.357889 3.13512e-20)
(1.36406 -0.335171 3.28202e-19)
(1.33794 -0.311161 0)
(1.30999 -0.287542 7.52635e-20)
(1.28294 -0.265086 0)
(1.25784 -0.244072 -9.58711e-20)
(1.23498 -0.224545 1.3063e-19)
(1.21429 -0.206457 -2.73625e-21)
(1.1956 -0.189721 -3.06242e-20)
(1.17871 -0.174248 4.72356e-20)
(1.16342 -0.159946 4.29281e-20)
(1.14955 -0.146733 -3.59322e-20)
(1.13695 -0.134531 2.75826e-20)
(1.12548 -0.123246 -2.3044e-20)
(1.11499 -0.112796 0)
(1.10483 -0.105074 -1.74808e-20)
(0.0931314 -0.0346987 1.73338e-19)
(0.373586 -0.126835 1.8604e-19)
(0.694406 -0.208318 -1.61306e-19)
(0.987312 -0.270727 2.90365e-19)
(1.20932 -0.310655 -2.73314e-19)
(1.34933 -0.328918 2.15687e-19)
(1.41878 -0.329906 -1.09249e-19)
(1.43838 -0.319332 2.26756e-19)
(1.42825 -0.30232 -1.42749e-19)
(1.40339 -0.282552 2.10724e-19)
(1.37305 -0.262238 -4.68589e-19)
(1.34211 -0.242503 1.68978e-19)
(1.31274 -0.223818 -1.22354e-19)
(1.2857 -0.206331 1.14929e-19)
(1.26108 -0.190043 8.56121e-20)
(1.23877 -0.174906 6.67263e-20)
(1.21855 -0.16085 -1.89358e-19)
(1.20021 -0.147804 1.12775e-19)
(1.18356 -0.135699 -4.29262e-20)
(1.16842 -0.124469 1.06492e-19)
(1.15462 -0.114042 -3.41916e-20)
(1.14204 -0.104329 -7.60505e-20)
(1.13055 -0.0953894 6.85803e-20)
(1.11972 -0.0884 1.74777e-20)
(0.119277 -0.0372997 0)
(0.438515 -0.12199 2.56551e-21)
(0.781009 -0.188238 3.43822e-19)
(1.07827 -0.234297 -3.22526e-19)
(1.29222 -0.261069 -2.63543e-19)
(1.41859 -0.271014 4.72315e-19)
(1.47422 -0.268395 -2.11027e-19)
(1.48266 -0.257862 2.39757e-19)
(1.4647 -0.243233 -1.67022e-20)
(1.43474 -0.227075 -1.23793e-19)
(1.40113 -0.210828 2.29184e-19)
(1.36796 -0.195171 -3.33977e-19)
(1.3369 -0.180364 0)
(1.30841 -0.166471 -5.7707e-20)
(1.28247 -0.15348 -1.38434e-19)
(1.25892 -0.141349 4.57303e-20)
(1.23752 -0.13003 3.25814e-21)
(1.21806 -0.119473 -7.5281e-20)
(1.20034 -0.10963 1.0703e-20)
(1.18419 -0.100453 8.35475e-20)
(1.16944 -0.0918886 -3.20525e-20)
(1.15596 -0.0838964 -1.12013e-20)
(1.14362 -0.0766104 3.81187e-20)
(1.13228 -0.0706313 0)
(0.14703 -0.0370277 0)
(0.5043 -0.109755 9.52818e-20)
(0.864855 -0.158446 -4.5777e-19)
(1.16226 -0.188068 1.57579e-19)
(1.36517 -0.203043 -1.48334e-19)
(1.47666 -0.206577 -1.22921e-19)
(1.51869 -0.202148 -1.94119e-19)
(1.51698 -0.193016 1.06848e-19)
(1.49239 -0.181643 8.03013e-20)
(1.45843 -0.169579 0)
(1.42243 -0.157635 1.43938e-19)
(1.38772 -0.146164 -2.073e-19)
(1.35549 -0.135285 1.48866e-19)
(1.32601 -0.125023 5.77323e-20)
(1.29917 -0.115363 -4.49551e-20)
(1.27475 -0.106282 -3.24283e-20)
(1.25251 -0.0977494 -2.62167e-20)
(1.23226 -0.089736 9.02586e-20)
(1.21378 -0.082212 0)
(1.1969 -0.0751433 3.86696e-20)
(1.18147 -0.0684921 2.83225e-20)
(1.16735 -0.0622596 -7.4665e-20)
(1.15444 -0.0565474 -4.44312e-20)
(1.14259 -0.0515291 4.20444e-20)
(0.175762 -0.0335469 -1.02695e-19)
(0.569229 -0.0898146 -3.22583e-21)
(0.943755 -0.119172 9.30067e-20)
(1.23735 -0.132889 2.46722e-19)
(1.42689 -0.13782 6.03098e-20)
(1.52299 -0.136964 -1.25766e-19)
(1.55214 -0.132438 1.10827e-19)
(1.54155 -0.125897 -8.66746e-20)
(1.51161 -0.118483 1.45695e-19)
(1.47471 -0.110867 5.41974e-20)
(1.43713 -0.103375 -1.5971e-19)
(1.40149 -0.0961379 4.22824e-20)
(1.3686 -0.0891977 6.77989e-20)
(1.33855 -0.0825651 -3.35622e-20)
(1.31118 -0.0762392 0)
(1.28625 -0.0702145 4.17941e-20)
(1.26351 -0.0644828 6.72229e-20)
(1.24277 -0.0590347 8.19476e-21)
(1.22382 -0.0538578 -5.29324e-20)
(1.2065 -0.0489335 2.09498e-20)
(1.19065 -0.0442501 0)
(1.17615 -0.0398338 -1.45912e-20)
(1.1629 -0.035708 -1.19885e-20)
(1.15077 -0.0318287 0)
(0.204738 -0.0266343 0)
(0.631508 -0.0621813 5.41905e-20)
(1.01564 -0.0710558 9.86569e-20)
(1.30192 -0.0699541 -2.49531e-19)
(1.4765 -0.066851 8.13894e-20)
(1.55736 -0.0636084 0)
(1.57479 -0.0605203 9.97485e-20)
(1.55674 -0.057541 -1.37843e-19)
(1.52273 -0.054595 -7.33662e-20)
(1.48389 -0.0516436 3.05925e-20)
(1.44546 -0.0486675 -4.61766e-20)
(1.40944 -0.0456628 1.13047e-19)
(1.37634 -0.0426397 5.04153e-20)
(1.34612 -0.0396154 -3.70292e-20)
(1.31858 -0.0366076 -5.74539e-21)
(1.29347 -0.0336318 -8.56406e-20)
(1.27055 -0.0307004 3.79486e-20)
(1.24962 -0.027823 -8.22028e-24)
(1.23048 -0.0250031 0)
(1.21298 -0.0222394 -2.09703e-20)
(1.19696 -0.019548 0)
(1.18231 -0.0169581 4.22292e-20)
(1.16893 -0.0144037 -4.87965e-20)
(1.15666 -0.0118156 2.15105e-20)
(0.233126 -0.016197 -2.69734e-20)
(0.689319 -0.0271926 -1.32928e-19)
(1.07857 -0.0150976 1.49377e-19)
(1.35456 -0.00070786 8.28526e-20)
(1.51328 0.00831925 -4.09559e-20)
(1.57959 0.0120907 5.95185e-20)
(1.58671 0.012455 -2.98393e-20)
(1.56269 0.0111459 4.40673e-20)
(1.52585 0.00929494 0)
(1.48598 0.00748039 8.87705e-20)
(1.44736 0.00594663 -5.99688e-21)
(1.41146 0.00476398 -6.71366e-20)
(1.37857 0.00392356 2.69191e-20)
(1.34856 0.00338981 -2.8561e-20)
(1.3212 0.00312204 -9.61131e-21)
(1.29622 0.00308246 1.20301e-20)
(1.27341 0.00323776 -8.7653e-21)
(1.25257 0.00356051 -4.31545e-20)
(1.2335 0.00403211 2.64761e-20)
(1.21605 0.00463436 5.12401e-21)
(1.20009 0.00532683 4.26946e-21)
(1.1855 0.00609883 3.5471e-21)
(1.17217 0.00708844 0)
(1.15992 0.0082422 0)
(0.260123 -0.00226113 2.69923e-20)
(0.741038 0.0145654 -2.72185e-20)
(1.13096 0.0474817 -4.92066e-20)
(1.39417 0.0733119 0)
(1.53666 0.0861723 -1.95651e-20)
(1.58941 0.0888251 -1.64958e-20)
(1.58774 0.0854359 -2.61935e-20)
(1.55919 0.0793243 0)
(1.52064 0.0724915 0)
(1.48055 0.0658941 0)
(1.44235 0.0599048 0)
(1.40707 0.0546124 0)
(1.37482 0.0499877 -1.72475e-20)
(1.3454 0.0459704 7.83573e-21)
(1.31857 0.0424947 1.2504e-20)
(1.29408 0.0394996 5.58093e-21)
(1.2717 0.0369302 1.33773e-20)
(1.25123 0.0347409 0)
(1.23251 0.0328974 -2.8605e-21)
(1.21537 0.0313588 -2.44643e-21)
(1.1997 0.0300655 -4.27604e-21)
(1.18539 0.0290439 -3.5526e-21)
(1.1723 0.0284813 0)
(1.16028 0.0280921 2.22343e-21)
(-0.00546984 -0.000237829 1.02184e-21)
(-0.015862 -0.00292501 -1.06589e-21)
(-0.0208973 -0.00630014 -1.66464e-21)
(-0.0116388 -0.00917357 0)
(0.0143894 -0.0109713 2.80816e-22)
(0.0556534 -0.0115447 -2.85596e-22)
(0.108879 -0.0109999 1.78803e-21)
(0.170099 -0.00957585 0)
(0.235363 -0.00755423 0)
(0.301267 -0.00519885 0)
(0.365212 -0.00272281 0)
(0.42545 -0.00027735 0)
(0.480991 0.00204481 -3.7795e-23)
(0.53144 0.00419834 3.02253e-21)
(0.576814 0.00617149 -5.45983e-21)
(0.617389 0.00797287 -7.40241e-21)
(0.653575 0.009622 -2.14808e-21)
(0.685832 0.0111401 0)
(0.714605 0.0125504 -1.72692e-21)
(0.740334 0.0138703 4.73682e-21)
(0.763352 0.0151189 2.74787e-21)
(0.784071 0.0162806 2.41932e-21)
(0.802639 0.0175247 0)
(0.819502 0.0183132 0)
(-0.00640407 0.0105134 -3.2385e-21)
(-0.0162863 0.0078585 4.86615e-21)
(-0.0192756 -0.00856214 -2.33057e-21)
(-0.00727507 -0.0309029 -1.27055e-21)
(0.0215736 -0.0535903 1.21883e-21)
(0.0653128 -0.0730038 2.53631e-21)
(0.120427 -0.0871254 -4.17174e-21)
(0.182843 -0.0953277 -4.20996e-21)
(0.248627 -0.0980055 0)
(0.314478 -0.0961585 7.4342e-21)
(0.377938 -0.0910212 9.66621e-22)
(0.437408 -0.0837936 -6.50389e-21)
(0.49203 -0.0754848 -9.16857e-21)
(0.541508 -0.0668513 -1.15942e-20)
(0.585932 -0.0584012 5.7443e-21)
(0.625622 -0.0504344 1.4896e-20)
(0.661006 -0.0430957 -4.1384e-21)
(0.692557 -0.036427 1.56784e-20)
(0.720702 -0.0304064 0)
(0.745911 -0.024987 -3.11185e-21)
(0.768436 -0.0200793 -2.74447e-21)
(0.7888 -0.0157379 -2.41629e-21)
(0.80697 -0.0114562 0)
(0.823605 -0.00852443 0)
(-0.00840451 0.0204597 0)
(-0.0169922 0.0173627 1.62692e-20)
(-0.0151305 -0.0118892 -5.59077e-21)
(0.0033209 -0.0531032 7.3538e-22)
(0.0388025 -0.0959299 -8.21006e-21)
(0.0883673 -0.133355 0)
(0.147897 -0.161331 5.92761e-21)
(0.21305 -0.178443 -1.36685e-21)
(0.279935 -0.185262 8.05052e-21)
(0.345498 -0.183559 -3.74873e-21)
(0.407633 -0.175598 -3.4824e-20)
(0.465108 -0.163607 1.65795e-20)
(0.517386 -0.149473 2.89241e-20)
(0.564423 -0.134618 9.98613e-21)
(0.606479 -0.120001 -4.20441e-22)
(0.643977 -0.106196 -3.64262e-20)
(0.677389 -0.0934871 1.68142e-20)
(0.707206 -0.081962 -5.99975e-22)
(0.733829 -0.0715958 0)
(0.757742 -0.0623029 1.11525e-20)
(0.779098 -0.053939 0)
(0.798527 -0.0465723 8.9748e-21)
(0.815751 -0.0394045 -3.22887e-20)
(0.831728 -0.0344148 8.96104e-22)
(-0.0112084 0.0289232 0)
(-0.0175461 0.0244909 3.10622e-21)
(-0.00806348 -0.0172249 9.42811e-21)
(0.0203794 -0.0762665 -5.56262e-21)
(0.0660522 -0.13786 6.59389e-21)
(0.124494 -0.191795 1.42907e-20)
(0.190633 -0.232169 -1.72112e-21)
(0.259739 -0.256929 1.46874e-21)
(0.328029 -0.266929 -1.24999e-20)
(0.392875 -0.26477 2.79906e-20)
(0.452746 -0.253743 -6.64193e-21)
(0.50699 -0.237062 -8.48396e-21)
(0.555567 -0.217415 0)
(0.598808 -0.196807 -1.00714e-20)
(0.637219 -0.176573 0)
(0.671365 -0.157498 -1.47753e-20)
(0.701778 -0.139965 2.88703e-20)
(0.72896 -0.124082 -8.14761e-21)
(0.753279 -0.109815 -2.43757e-20)
(0.775215 -0.0970296 -1.11445e-20)
(0.794812 -0.0855487 0)
(0.812803 -0.0754214 2.5039e-20)
(0.828635 -0.0656228 -8.30711e-21)
(0.843669 -0.0587216 0)
(-0.0144334 0.0353519 0)
(-0.0173222 0.0283358 -3.49987e-20)
(0.00246349 -0.0253297 -1.28119e-20)
(0.0441772 -0.100772 -1.68376e-20)
(0.103219 -0.179195 1.58504e-20)
(0.173125 -0.247524 -6.6654e-21)
(0.247565 -0.298275 5.90231e-21)
(0.321373 -0.328964 -8.65344e-21)
(0.390995 -0.340871 5.99058e-21)
(0.454454 -0.337493 -1.14587e-20)
(0.511025 -0.323138 2.02093e-20)
(0.560836 -0.301924 -4.59355e-20)
(0.604487 -0.277232 2.83741e-20)
(0.642769 -0.251532 -1.25185e-20)
(0.676481 -0.226431 -4.0779e-20)
(0.70634 -0.20285 1.49955e-20)
(0.732933 -0.181218 1.14645e-20)
(0.756763 -0.161639 1.2829e-20)
(0.778156 -0.14406 0)
(0.797567 -0.128289 1.79361e-20)
(0.814932 -0.114141 1.52468e-20)
(0.831071 -0.101613 -2.34195e-20)
(0.84514 -0.0895406 -2.64795e-20)
(0.85898 -0.0809578 2.38042e-20)
(-0.0176195 0.0393722 0)
(-0.015544 0.0282856 -7.14914e-20)
(0.0171106 -0.0367431 -1.00792e-21)
(0.0750132 -0.126776 5.49079e-20)
(0.150118 -0.219577 0)
(0.233459 -0.299667 0)
(0.317256 -0.358317 0)
(0.395947 -0.392886 4.02654e-22)
(0.46641 -0.405255 6.57623e-21)
(0.52757 -0.399867 1.91317e-21)
(0.579746 -0.381994 1.7047e-20)
(0.624013 -0.356542 2.68011e-21)
(0.66171 -0.327437 0)
(0.694129 -0.297468 1.25155e-20)
(0.722363 -0.268403 -8.64497e-21)
(0.747264 -0.241212 2.76862e-20)
(0.76946 -0.216322 -3.75868e-20)
(0.78943 -0.193807 -7.17759e-21)
(0.807452 -0.173587 7.89227e-22)
(0.823934 -0.155421 3.0044e-20)
(0.838722 -0.139126 1.1663e-20)
(0.852694 -0.124637 -4.1025e-20)
(0.864719 -0.110708 2.58868e-20)
(0.877176 -0.100717 0)
(-0.0202489 0.0407969 4.83668e-20)
(-0.0113896 0.0239959 3.85764e-20)
(0.0365853 -0.0516595 -4.48691e-20)
(0.113237 -0.154128 -6.69613e-20)
(0.206464 -0.258467 6.30324e-20)
(0.30448 -0.347283 -4.34975e-20)
(0.397969 -0.411045 6.29103e-20)
(0.481118 -0.447282 1.3069e-21)
(0.551513 -0.458646 2.00809e-20)
(0.609268 -0.450547 0)
(0.655958 -0.429121 3.49723e-21)
(0.693727 -0.399893 -9.83537e-21)
(0.724692 -0.367156 -8.43584e-21)
(0.750634 -0.333865 7.9227e-21)
(0.772905 -0.301824 0)
(0.792455 -0.271981 -1.20265e-20)
(0.809917 -0.244716 -2.15904e-20)
(0.825723 -0.22006 2.35376e-20)
(0.840103 -0.197901 8.74368e-21)
(0.853383 -0.177963 1.28423e-20)
(0.865369 -0.160062 -3.16163e-20)
(0.876937 -0.144107 -7.3908e-21)
(0.886746 -0.128755 7.28114e-21)
(0.897688 -0.117695 -6.30396e-21)
(-0.0218319 0.0396214 -4.83731e-20)
(-0.00394718 0.0155027 1.68257e-19)
(0.0616793 -0.0698786 -5.66474e-20)
(0.159138 -0.182412 8.65051e-20)
(0.271865 -0.295136 -8.14277e-20)
(0.385003 -0.389378 1.38775e-20)
(0.487754 -0.45532 3.45231e-20)
(0.574342 -0.491017 8.30651e-20)
(0.643406 -0.500038 -1.63757e-20)
(0.696535 -0.488722 -2.10772e-20)
(0.736729 -0.463911 0)
(0.767257 -0.431545 -7.67877e-21)
(0.790991 -0.396082 1.0207e-20)
(0.810139 -0.360484 1.67582e-22)
(0.826243 -0.326484 1.72295e-21)
(0.8403 -0.294944 4.39645e-21)
(0.852912 -0.266172 4.33325e-21)
(0.864437 -0.240154 -2.41946e-21)
(0.875061 -0.216735 -8.74642e-21)
(0.884986 -0.195647 8.41625e-21)
(0.894063 -0.176661 -3.91426e-21)
(0.903022 -0.159767 3.9767e-21)
(0.910519 -0.143411 0)
(0.919784 -0.131686 6.31368e-21)
(-0.0218727 0.0360267 6.56185e-20)
(0.0076458 0.0031461 -6.05531e-20)
(0.0931227 -0.0909191 6.70722e-20)
(0.212968 -0.210908 0)
(0.345826 -0.328661 0)
(0.473691 -0.424924 9.57533e-20)
(0.58453 -0.490158 -7.29941e-20)
(0.673014 -0.523283 5.05664e-20)
(0.739232 -0.528881 -2.10754e-19)
(0.786505 -0.514112 8.16815e-21)
(0.819358 -0.486312 2.6591e-20)
(0.842159 -0.4516 0)
(0.858448 -0.414395 -1.81709e-20)
(0.87076 -0.377521 2.89965e-20)
(0.880742 -0.342554 -1.30849e-20)
(0.889372 -0.310229 -8.77348e-21)
(0.897189 -0.280766 4.08011e-21)
(0.904464 -0.254111 1.03346e-20)
(0.911341 -0.230073 0)
(0.917878 -0.208438 0)
(0.924059 -0.188864 3.91659e-21)
(0.930253 -0.171586 -3.97909e-21)
(0.935455 -0.154678 9.92638e-21)
(0.942763 -0.142717 -9.30952e-21)
(-0.01999 0.0303189 0)
(0.0241419 -0.0124257 0)
(0.131576 -0.113898 -2.10663e-19)
(0.274843 -0.238586 7.80818e-20)
(0.427669 -0.357942 8.61272e-21)
(0.56903 -0.452897 1.24787e-19)
(0.686109 -0.514772 0)
(0.774553 -0.543637 -7.51591e-20)
(0.836304 -0.545093 4.70223e-20)
(0.876605 -0.526944 -8.60598e-20)
(0.90151 -0.496763 7.46994e-21)
(0.916383 -0.460601 4.29699e-20)
(0.92529 -0.422657 -8.11682e-21)
(0.930963 -0.385496 1.7875e-20)
(0.935058 -0.350478 -3.25084e-20)
(0.938483 -0.318189 0)
(0.941681 -0.288762 1.92491e-20)
(0.944835 -0.262111 -2.24559e-20)
(0.948026 -0.238024 8.61347e-21)
(0.951203 -0.21636 0)
(0.954492 -0.196658 4.80053e-21)
(0.957795 -0.179453 5.09424e-21)
(0.960865 -0.16257 -4.78172e-21)
(0.965876 -0.150455 -3.20833e-21)
(-0.0158448 0.0229436 2.6469e-19)
(0.0461246 -0.0302858 -3.68296e-19)
(0.177431 -0.137636 4.22493e-21)
(0.344592 -0.264126 8.58626e-20)
(0.51641 -0.381712 -1.48983e-19)
(0.669246 -0.472294 -1.10743e-19)
(0.790158 -0.528566 1.88794e-19)
(0.876388 -0.551936 -3.86747e-20)
(0.932095 -0.548933 -1.43955e-19)
(0.96453 -0.527765 2.01076e-19)
(0.981179 -0.495964 -2.4451e-20)
(0.988221 -0.459289 -7.11427e-20)
(0.990061 -0.421561 0)
(0.989489 -0.385007 0)
(0.988086 -0.35074 -1.27366e-20)
(0.986643 -0.31919 -2.88812e-20)
(0.985493 -0.290414 -3.49541e-20)
(0.984729 -0.264296 3.28184e-20)
(0.984349 -0.240626 -8.62282e-21)
(0.984246 -0.219286 1.6599e-20)
(0.984531 -0.199814 -7.57344e-21)
(0.984755 -0.182811 7.58285e-21)
(0.985599 -0.166383 -2.41166e-20)
(0.987586 -0.153362 1.76261e-21)
(-0.00914087 0.0143642 9.75565e-20)
(0.0741342 -0.0494043 0)
(0.23098 -0.160756 1.92366e-19)
(0.421834 -0.28606 -1.81165e-19)
(0.610805 -0.398661 1.49117e-19)
(0.772336 -0.482167 0)
(0.894223 -0.531067 0)
(0.975948 -0.548171 -9.08579e-20)
(1.02416 -0.540754 2.36285e-20)
(1.0481 -0.517141 7.94071e-20)
(1.05648 -0.48456 -4.79363e-20)
(1.05604 -0.448281 8.8202e-20)
(1.05134 -0.411638 0)
(1.04508 -0.376473 9.64852e-20)
(1.0387 -0.343645 -1.68151e-19)
(1.03283 -0.313438 1.01729e-19)
(1.02771 -0.285846 5.0303e-20)
(1.02334 -0.260725 -4.72304e-20)
(1.01966 -0.237882 0)
(1.01655 -0.217154 0)
(1.01397 -0.198206 0)
(1.0114 -0.181372 0)
(1.00987 -0.165381 5.71601e-21)
(1.00751 -0.151121 -2.16397e-20)
(0.837331 0.0203069 1.16031e-21)
(0.854901 0.0220838 -1.18055e-21)
(0.869857 0.0225963 3.14137e-23)
(0.883182 0.0229239 0)
(0.895118 0.0238539 7.7464e-22)
(0.905523 0.0248899 -1.45312e-21)
(0.91465 0.0257141 4.47401e-23)
(0.922814 0.0264736 6.18121e-22)
(0.930124 0.0272415 0)
(0.936647 0.0279754 0)
(0.942481 0.0286663 2.89346e-23)
(0.947723 0.0293379 2.67987e-23)
(0.952442 0.0300046 4.14814e-22)
(0.956698 0.0306716 -3.78969e-22)
(0.960545 0.0313424 0)
(0.964029 0.0320212 0)
(0.967188 0.0327119 -3.04772e-22)
(0.970057 0.0334189 7.18831e-24)
(0.972666 0.034146 2.63476e-22)
(0.97504 0.0348971 1.65653e-23)
(0.977203 0.0356754 0)
(0.979177 0.0364848 0)
(0.980981 0.0373298 0)
(0.982631 0.038215 0)
(0.984141 0.0391448 0)
(0.985524 0.0401234 0)
(0.986793 0.0411552 -7.42344e-23)
(0.987958 0.0422447 1.20388e-22)
(0.989028 0.043397 0)
(0.990011 0.0446172 0)
(0.990915 0.0459111 8.62106e-23)
(0.991748 0.0472848 -8.37886e-23)
(0.992515 0.0487443 -4.03441e-23)
(0.993221 0.0502964 0)
(0.993874 0.0519478 0)
(0.994476 0.053706 -7.20512e-23)
(0.995034 0.0555795 7.00382e-23)
(0.995552 0.0575774 0)
(0.996034 0.0597101 -6.399e-23)
(0.996483 0.0619888 9.30599e-23)
(0.996903 0.0644258 -2.95401e-23)
(0.997295 0.0670336 0)
(0.997661 0.0698252 5.34778e-23)
(0.998004 0.0728143 -5.20017e-23)
(0.998324 0.0760155 0)
(0.998625 0.0794444 0)
(0.998908 0.0831176 2.14942e-23)
(0.999174 0.0870524 -6.18254e-23)
(0.999425 0.091267 0)
(0.999662 0.0957799 0)
(0.999886 0.10061 1.59375e-23)
(1.0001 0.105776 -1.21523e-25)
(1.0003 0.111295 1.15835e-24)
(1.00049 0.117184 -1.11885e-23)
(1.00066 0.123456 0)
(1.00083 0.130124 0)
(1.00098 0.137162 0)
(1.00112 0.144797 0)
(1.00124 0.151631 0)
(1.0013 0.163734 0)
(0.841003 -0.00270495 1.15335e-22)
(0.857371 0.00273168 4.32672e-21)
(0.871251 0.00609916 -3.6863e-22)
(0.884452 0.00899111 -3.70933e-21)
(0.896445 0.0120797 -4.96794e-23)
(0.906569 0.0147773 0)
(0.915447 0.0169429 2.5164e-21)
(0.923537 0.0188676 -4.81958e-21)
(0.9308 0.0206422 2.30245e-21)
(0.937253 0.0222356 -1.96646e-21)
(0.943033 0.0236599 1.88253e-21)
(0.948244 0.0249536 -1.66033e-21)
(0.952945 0.0261472 1.61503e-21)
(0.957189 0.027267 4.67629e-23)
(0.961027 0.0283337 1.37971e-21)
(0.964504 0.0293616 -1.34092e-21)
(0.967661 0.0303598 1.22852e-21)
(0.97053 0.0313368 -1.15707e-21)
(0.973141 0.0323012 1.12523e-21)
(0.97552 0.0332617 -2.14946e-21)
(0.977691 0.0342257 1.0265e-21)
(0.979673 0.0352001 6.09145e-23)
(0.981487 0.0361924 9.27932e-22)
(0.983148 0.0372098 -1.79356e-21)
(0.98467 0.0382583 8.66646e-22)
(0.986068 0.0393439 -5.19478e-23)
(0.987351 0.0404723 -8.22305e-22)
(0.988531 0.0416492 -1.85716e-23)
(0.989617 0.0428797 1.49023e-21)
(0.990617 0.0441691 -1.43863e-21)
(0.99154 0.0455238 6.96762e-22)
(0.992392 0.0469505 -8.38735e-23)
(0.993179 0.0484566 4.04262e-23)
(0.993907 0.0500498 -7.80776e-23)
(0.994582 0.0517379 0)
(0.995208 0.053529 0)
(0.99579 0.0554315 2.77483e-22)
(0.996334 0.057455 -2.02693e-22)
(0.996843 0.0596101 -1.91386e-22)
(0.997321 0.0619087 -2.7264e-23)
(0.997771 0.0643631 2.67727e-22)
(0.998195 0.0669864 -5.63629e-23)
(0.998594 0.0697917 0)
(0.998971 0.0727926 0)
(0.999328 0.076004 0)
(0.999666 0.0794415 0)
(0.999987 0.0831218 -8.6618e-23)
(1.00029 0.0870624 4.096e-23)
(1.00058 0.0912813 0)
(1.00086 0.0957974 0)
(1.00113 0.100629 0)
(1.00138 0.105796 2.73059e-23)
(1.00163 0.111315 -2.48474e-24)
(1.00186 0.117202 2.37511e-23)
(1.00207 0.123472 0)
(1.00228 0.130137 0)
(1.00246 0.13717 -1.17894e-23)
(1.00262 0.144801 -2.73912e-23)
(1.00277 0.151631 0)
(1.00282 0.163734 0)
(0.848087 -0.024933 7.16734e-22)
(0.862524 -0.0160157 9.13701e-21)
(0.87492 -0.00981311 -7.75512e-21)
(0.887761 -0.0045448 7.25928e-21)
(0.899304 0.000348801 5.00235e-23)
(0.908674 0.00454489 0)
(0.917004 0.00817318 5.14159e-21)
(0.924841 0.0113472 -5.03284e-21)
(0.931939 0.0140992 -3.44353e-23)
(0.938238 0.0164872 -6.277e-23)
(0.943883 0.0186215 -5.80817e-23)
(0.948988 0.0205553 -5.4178e-23)
(0.953612 0.0223036 3.16285e-21)
(0.957806 0.0238877 -3.12101e-21)
(0.961613 0.0253407 0)
(0.965069 0.0266984 -8.29136e-23)
(0.968208 0.0279863 2.47623e-21)
(0.971063 0.0292205 -2.44338e-21)
(0.973666 0.0304128 0)
(0.976041 0.0315746 0)
(0.978211 0.0327162 2.1003e-21)
(0.980196 0.0338477 -4.05145e-21)
(0.982015 0.0349801 3.7663e-21)
(0.983684 0.0361233 -7.65443e-23)
(0.985217 0.0372853 -3.42327e-21)
(0.986625 0.0384739 3.40028e-21)
(0.987921 0.0396965 -3.12553e-21)
(0.989115 0.0409601 1.08561e-22)
(0.990215 0.042271 1.5062e-21)
(0.99123 0.0436352 0)
(0.992169 0.0450585 0)
(0.993038 0.0465465 -5.03748e-22)
(0.993844 0.0481058 6.53456e-22)
(0.994592 0.0497448 -1.0235e-25)
(0.995288 0.0514723 -6.02304e-22)
(0.995937 0.0532981 5.85342e-22)
(0.996543 0.0552318 0)
(0.997112 0.0572831 -6.73068e-23)
(0.997648 0.0594632 -5.77358e-22)
(0.998155 0.0617841 1.11289e-21)
(0.998635 0.0642587 -4.77091e-22)
(0.999091 0.0669002 -5.63304e-23)
(0.999524 0.069722 5.33604e-22)
(0.999935 0.0727377 -4.14173e-22)
(1.00033 0.0759623 -9.70055e-23)
(1.0007 0.0794116 -9.17274e-23)
(1.00106 0.0831023 8.68387e-23)
(1.00141 0.0870518 0)
(1.00174 0.0912784 0)
(1.00206 0.0958007 2.77163e-22)
(1.00237 0.100638 -1.33143e-22)
(1.00266 0.105808 1.17392e-22)
(1.00295 0.111329 -1.58632e-22)
(1.00322 0.117217 -1.81285e-22)
(1.00348 0.123487 4.30534e-23)
(1.00372 0.130149 -6.6929e-23)
(1.00394 0.13718 5.29286e-23)
(1.00412 0.144807 -2.21242e-23)
(1.00429 0.151634 0)
(1.00434 0.163735 0)
(0.858636 -0.0458076 1.74686e-20)
(0.870739 -0.0337204 -1.14425e-21)
(0.880777 -0.0249045 -1.5599e-20)
(0.892244 -0.0175263 1.10078e-22)
(0.903032 -0.0110209 0)
(0.911842 -0.00554511 0)
(0.919614 -0.00074994 1.0175e-20)
(0.926864 0.00366802 -4.84698e-22)
(0.933513 0.00758963 -1.33252e-20)
(0.939544 0.0108303 2.62938e-22)
(0.945039 0.013615 3.8915e-21)
(0.950016 0.0160951 3.29441e-21)
(0.954508 0.0183522 -3.30651e-21)
(0.958584 0.0204189 0)
(0.962304 0.0223026 2.799e-21)
(0.965706 0.0240208 -2.55272e-21)
(0.968812 0.0256054 0)
(0.971645 0.0270915 0)
(0.974229 0.0285052 -2.25429e-21)
(0.976592 0.0298639 3.9896e-23)
(0.978753 0.0311789 2.02456e-21)
(0.980734 0.0324621 2.03135e-21)
(0.982555 0.0337278 -2.03212e-21)
(0.984229 0.0349886 1.87307e-21)
(0.985769 0.0362549 -7.1758e-23)
(0.987187 0.0375368 -1.69769e-21)
(0.988495 0.0388437 -2.03498e-22)
(0.989702 0.0401843 6.16584e-26)
(0.990817 0.0415669 0)
(0.991847 0.0429994 -1.4575e-21)
(0.992802 0.0444885 1.50427e-21)
(0.993686 0.0460402 -8.50635e-23)
(0.994508 0.0476607 0)
(0.995275 0.0493549 7.91186e-23)
(0.995991 0.0511297 -1.21482e-21)
(0.996661 0.0529948 2.20197e-21)
(0.997291 0.0549615 1.28532e-22)
(0.997885 0.0570419 -1.37514e-23)
(0.998448 0.0592482 -9.16642e-22)
(0.998983 0.061593 -1.24405e-22)
(0.999493 0.0640892 9.42587e-22)
(0.99998 0.0667507 -8.02506e-22)
(1.00045 0.0695908 -9.52944e-26)
(1.00089 0.0726235 -4.05681e-22)
(1.00132 0.0758636 4.91744e-22)
(1.00173 0.0793272 6.38208e-22)
(1.00213 0.0830311 -1.79024e-22)
(1.00251 0.0869927 -3.18273e-22)
(1.00289 0.0912304 6.05257e-22)
(1.00325 0.0957627 -4.28312e-22)
(1.0036 0.100609 1.20948e-22)
(1.00394 0.105786 -1.34764e-22)
(1.00427 0.111314 -1.13746e-22)
(1.00458 0.117208 2.73386e-22)
(1.00488 0.123481 -4.87703e-24)
(1.00515 0.130146 6.63442e-23)
(1.0054 0.137177 0)
(1.00562 0.144805 2.28212e-23)
(1.00581 0.151633 -3.09407e-23)
(1.00586 0.163735 0)
(0.872178 -0.0650312 -1.58465e-20)
(0.881547 -0.0503959 3.05357e-20)
(0.888876 -0.0394743 -1.44206e-20)
(0.898549 -0.0300596 -1.27408e-20)
(0.907977 -0.0219679 2.4141e-20)
(0.915627 -0.0153346 -6.49448e-22)
(0.922788 -0.0094642 -1.05538e-20)
(0.929751 -0.00403349 -9.14029e-21)
(0.935851 0.000761348 8.9524e-21)
(0.941255 0.00503727 0)
(0.946366 0.00867428 7.32928e-21)
(0.951152 0.0117753 -1.39492e-20)
(0.955549 0.0144763 6.63516e-21)
(0.959538 0.0169073 0)
(0.963153 0.0191572 0)
(0.966452 0.0212472 -8.45213e-23)
(0.969482 0.0231679 5.04049e-21)
(0.972268 0.0249324 -4.89684e-21)
(0.974825 0.0265741 0)
(0.977167 0.0281286 -4.48492e-21)
(0.979312 0.0296163 8.3823e-21)
(0.981284 0.031052 -8.02374e-21)
(0.9831 0.0324514 7.81422e-21)
(0.984774 0.0338285 -3.93069e-23)
(0.986319 0.0351963 -7.21666e-21)
(0.987745 0.0365671 3.54158e-21)
(0.989063 0.0379522 1.02978e-22)
(0.990283 0.0393622 1.48416e-21)
(0.991412 0.0408071 -1.01716e-23)
(0.992459 0.0422963 -1.48402e-21)
(0.993431 0.0438391 -8.91913e-23)
(0.994334 0.0454442 1.37281e-21)
(0.995174 0.0471195 -2.65736e-21)
(0.995957 0.0488699 1.44615e-21)
(0.99669 0.0507016 0)
(0.997379 0.0526177 1.32992e-21)
(0.99803 0.0546262 -1.29031e-21)
(0.998648 0.0567395 9.51142e-22)
(0.999237 0.0589734 -1.18823e-21)
(0.999801 0.0613432 1.25655e-22)
(1.00034 0.0638624 0)
(1.00086 0.0665451 1.14406e-22)
(1.00136 0.0694048 -3.26533e-22)
(1.00184 0.0724555 0)
(1.0023 0.0757127 -9.67875e-22)
(1.00275 0.0791922 3.80288e-22)
(1.00319 0.0829111 -1.74026e-22)
(1.00361 0.086887 -1.62905e-22)
(1.00403 0.0911382 0)
(1.00443 0.0956833 0)
(1.00482 0.100541 3.78783e-22)
(1.00521 0.10573 -5.85033e-22)
(1.00558 0.111268 3.2398e-22)
(1.00593 0.117171 -1.03084e-22)
(1.00627 0.123452 -1.69701e-22)
(1.00658 0.130124 -6.64076e-23)
(1.00687 0.13716 1.04391e-22)
(1.00711 0.144792 0)
(1.00732 0.151626 4.98619e-23)
(1.00738 0.163734 1.10339e-23)
(0.888329 -0.0822526 -1.3704e-20)
(0.894756 -0.0655917 1.36751e-20)
(0.899065 -0.0530107 -1.07454e-22)
(0.906384 -0.0420639 9.01611e-23)
(0.914075 -0.032782 -9.20235e-23)
(0.920515 -0.0249892 8.54199e-23)
(0.926718 -0.0178824 -1.50068e-22)
(0.932864 -0.0115265 0)
(0.938629 -0.00601065 1.31614e-22)
(0.943743 -0.00105418 -1.22758e-22)
(0.948286 0.00345776 -1.14986e-22)
(0.952583 0.00734381 1.09983e-22)
(0.956659 0.0106675 0)
(0.960503 0.0135352 0)
(0.964068 0.0160759 -8.95177e-23)
(0.967311 0.0184201 0)
(0.970254 0.0206276 8.00009e-23)
(0.972955 0.0226899 0)
(0.975454 0.0245954 4.46775e-21)
(0.977762 0.0263654 -8.74565e-21)
(0.979886 0.02803 8.36e-21)
(0.981842 0.0296178 -4.0928e-21)
(0.983648 0.0311514 -3.87685e-21)
(0.985318 0.0326465 3.76484e-21)
(0.986863 0.0341173 3.69841e-21)
(0.988294 0.0355779 -3.59045e-21)
(0.98962 0.037041 0)
(0.990851 0.0385185 -1.00571e-22)
(0.991994 0.040022 0)
(0.993057 0.0415624 0)
(0.994046 0.0431505 -2.70404e-21)
(0.994969 0.0447969 2.8011e-21)
(0.995829 0.0465113 -1.68282e-22)
(0.996633 0.0483039 -1.62237e-22)
(0.997386 0.0501826 1.56348e-22)
(0.998093 0.052152 1.19765e-21)
(0.998762 0.0542146 -1.16289e-21)
(0.999401 0.0563734 1.24135e-21)
(1.00001 0.0586414 -1.07073e-21)
(1.00061 0.0610383 -2.54217e-22)
(1.00118 0.0635817 9.61482e-22)
(1.00173 0.066287 9.76838e-23)
(1.00226 0.0691675 -6.69076e-22)
(1.00277 0.0722378 0)
(1.00327 0.0755132 3.95137e-22)
(1.00376 0.0790101 -5.47412e-22)
(1.00423 0.0827456 7.12469e-22)
(1.0047 0.0867375 1.63943e-22)
(1.00515 0.0910042 0)
(1.0056 0.0955646 -1.33242e-22)
(1.00604 0.100437 2.66627e-22)
(1.00646 0.105641 -5.55463e-26)
(1.00688 0.111193 1.05349e-22)
(1.00727 0.117109 -1.74698e-22)
(1.00765 0.123402 1.6969e-22)
(1.00801 0.130085 0)
(1.00832 0.13713 -1.0444e-22)
(1.0086 0.14477 0)
(1.00884 0.151613 0)
(1.0089 0.16373 -1.47079e-23)
(0.906684 -0.097263 1.10489e-20)
(0.910132 -0.0791248 -1.09488e-20)
(0.911196 -0.0653861 7.83732e-23)