/*--------------------------------*- C++ -*----------------------------------*\
| =========                 |                                                 |
| \\      /  F ield         | OpenFOAM: The Open Source CFD Toolbox           |
|  \\    /   O peration     | Version:  2512                                  |
|   \\  /    A nd           | Website:  www.openfoam.com                      |
|    \\/     M anipulation  |                                                 |
\*---------------------------------------------------------------------------*/
FoamFile
{
    version     2.0;
    format      ascii;
    arch        "LSB;label=32;scalar=64";
    class       surfaceScalarField;
    location    "191.5";
    object      phi;
}
// * * * * * * * * * * * * * * * * * * * * * * * * * * * * * * * * * * * * * //

dimensions      [0 3 -1 0 0 0 0];

oriented        oriented;

internalField   nonuniform List<scalar> 
26232
(
2.59278e-05
0.00108751
-0.00111344
0.000416669
0.00200453
-0.00239527
0.00141663
0.00182956
-0.00282952
0.00323643
0.000596405
-0.0024162
0.00607156
-0.00169568
-0.00113945
0.0101041
-0.00505932
0.0010268
0.0154925
-0.00949932
0.00411089
0.0223512
-0.0149929
0.00813412
0.0307249
-0.0214717
0.0130981
0.0405624
-0.0288113
0.0189738
0.0516999
-0.0368292
0.0256917
0.0638582
-0.0452943
0.0331361
0.076657
-0.0539443
0.0411455
0.089647
-0.0625097
0.0495196
0.102354
-0.0707391
0.0580316
0.114332
-0.0784233
0.0664455
0.125211
-0.0854141
0.0745353
0.134739
-0.0916364
0.0821083
0.14281
-0.0970879
0.0890168
0.149449
-0.101839
0.0951996
0.154806
-0.105966
0.100609
0.159009
-0.109686
0.105483
0.16201
-0.11266
0.109659
-0.116086
0.11433
0.163766
8.66447e-05
0.00100087
0.000670308
0.00142086
0.00202454
0.000475327
0.00439262
-0.00177168
0.00799408
-0.00529714
0.0130121
-0.0100774
0.0195685
-0.0160557
0.0276925
-0.0231168
0.0372929
-0.0310722
0.0481453
-0.0396637
0.0598992
-0.0485832
0.0721095
-0.0575046
0.0842853
-0.06612
0.0959484
-0.0741728
0.106692
-0.0814827
0.116227
-0.0879586
0.124412
-0.0935985
0.131251
-0.0984756
0.136877
-0.102714
0.141499
-0.106461
0.145385
-0.109851
0.148713
-0.113014
0.151972
-0.115919
-0.119134
0.15502
0.00018102
0.00081985
0.00104189
0.000559991
0.00287308
-0.00135586
0.00593245
-0.00483104
0.0104336
-0.00979831
0.0165155
-0.0161592
0.024204
-0.0237443
0.0333804
-0.0322931
0.0437701
-0.0414619
0.0549625
-0.050856
0.0664587
-0.0600794
0.0777396
-0.0687855
0.0883375
-0.0767179
0.097897
-0.0837323
0.106214
-0.0897993
0.113243
-0.0949879
0.11908
-0.0994355
0.123917
-0.103313
0.127991
-0.106788
0.131535
-0.110005
0.134746
-0.113061
0.137775
-0.116043
0.140742
-0.118886
-0.121979
0.143587
0.000299998
0.000519852
0.00150124
-0.000641257
0.00389561
-0.00375023
0.00772888
-0.00866431
0.013167
-0.0152364
0.0202488
-0.023241
0.0288457
-0.0323412
0.0386497
-0.0420971
0.0492019
-0.0520142
0.0599596
-0.0616137
0.0703823
-0.0705021
0.0800157
-0.078419
0.0885528
-0.085255
0.0958593
-0.0910388
0.101963
-0.0959032
0.107015
-0.100039
0.11123
-0.103651
0.114839
-0.106922
0.118046
-0.109995
0.121008
-0.112967
0.123844
-0.115897
0.126624
-0.118823
0.129457
-0.121719
-0.124836
0.132314
0.000436424
8.34279e-05
0.00201988
-0.00222471
0.00502333
-0.00675369
0.0096451
-0.0132861
0.0159529
-0.0215442
0.0238299
-0.0311181
0.0329541
-0.0414653
0.0428311
-0.0519741
0.0528782
-0.0620613
0.0625305
-0.071266
0.0713379
-0.0793095
0.0790256
-0.0861067
0.0855079
-0.0917372
0.0908597
-0.0963907
0.0952619
-0.100305
0.098939
-0.103716
0.102108
-0.106821
0.10495
-0.109764
0.107598
-0.112643
0.110144
-0.115513
0.11265
-0.118403
0.115156
-0.121329
0.117713
-0.124276
-0.127375
0.120252
0.000585698
-0.00050227
0.00257404
-0.00421306
0.00619102
-0.0103707
0.0115441
-0.0186391
0.0185506
-0.0285507
0.0268983
-0.0394658
0.0360728
-0.0506398
0.0454529
-0.0613543
0.0544393
-0.0710476
0.0625678
-0.0793945
0.0695738
-0.0863155
0.0753971
-0.09193
0.0801395
-0.0964796
0.0839984
-0.10025
0.087201
-0.103508
0.0899558
-0.106471
0.092428
-0.109293
0.0947352
-0.112071
0.0969557
-0.114863
0.0991395
-0.117697
0.10132
-0.120584
0.103521
-0.12353
0.105771
-0.126526
-0.129642
0.108037
0.000744378
-0.00124665
0.00314011
-0.00660879
0.0073305
-0.014561
0.0132849
-0.0245935
0.0207289
-0.0359947
0.0291493
-0.0478862
0.037891
-0.0593815
0.0463067
-0.06977
0.0538943
-0.0786352
0.060372
-0.0858722
0.0656809
-0.0916244
0.0699323
-0.0961815
0.073332
-0.0998793
0.0761092
-0.103027
0.0784682
-0.105867
0.0805665
-0.108569
0.0825133
-0.111239
0.0843782
-0.113936
0.0862043
-0.116689
0.0880189
-0.119511
0.0898405
-0.122406
0.0916823
-0.125371
0.0935611
-0.128405
-0.131529
0.0954486
0.000907031
-0.00215368
0.00368928
-0.00939103
0.00836595
-0.0192377
0.0147262
-0.0309538
0.0222885
-0.043557
0.0303767
-0.0559745
0.0382852
-0.0672899
0.0454463
-0.076931
0.0515295
-0.0847184
0.0564507
-0.0907935
0.0603142
-0.0954878
0.0633271
-0.0991944
0.0657219
-0.102274
0.0677044
-0.105009
0.0694311
-0.107594
0.0710081
-0.110146
0.0725016
-0.112733
0.0739512
-0.115386
0.0753808
-0.118119
0.0768065
-0.120937
0.0782401
-0.123839
0.0796918
-0.126823
0.0811724
-0.129886
-0.133025
0.0826688
0.00106574
-0.00321942
0.00418686
-0.0125122
0.00921805
-0.0242689
0.0157429
-0.0374786
0.0230925
-0.0509066
0.0305025
-0.0633846
0.0373147
-0.0741021
0.0431144
-0.0827308
0.0477611
-0.0893651
0.0513316
-0.094364
0.0540268
-0.098183
0.0560828
-0.10125
0.057712
-0.103903
0.0590756
-0.106373
0.0602821
-0.1088
0.061398
-0.111262
0.0624618
-0.113797
0.0634958
-0.11642
0.0645143
-0.119137
0.0655276
-0.12195
0.066544
-0.124856
0.067571
-0.12785
0.0686151
-0.13093
-0.134081
0.0696703
0.00121033
-0.00442975
0.00459559
-0.0158974
0.00981471
-0.029488
0.0162459
-0.0439098
0.0230866
-0.0577472
0.0295724
-0.0698704
0.0351683
-0.079698
0.039639
-0.0872016
0.0430077
-0.0927337
0.0454553
-0.0968116
0.0472196
-0.0999474
0.048523
-0.102554
0.0495374
-0.104918
0.0503786
-0.107214
0.051117
-0.109539
0.0517926
-0.111938
0.0524276
-0.114432
0.0530355
-0.117028
0.0536254
-0.119727
0.054205
-0.12253
0.0547807
-0.125431
0.0553585
-0.128428
0.055943
-0.131514
-0.134673
0.0565358
0.00133027
-0.00576002
0.00488231
-0.0194495
0.010104
-0.0347097
0.0161965
-0.0500023
0.0222975
-0.0638482
0.0277211
-0.0752941
0.0320942
-0.084071
0.0353484
-0.0904557
0.0376233
-0.0950086
0.0391503
-0.0983386
0.0401628
-0.10096
0.0408484
-0.103239
0.0413356
-0.105405
0.0417031
-0.107582
0.0419946
-0.10983
0.0422337
-0.112177
0.0424338
-0.114632
0.0426037
-0.117198
0.0427503
-0.119874
0.0428793
-0.122659
0.0429958
-0.125548
0.0431038
-0.128536
0.0432054
-0.131616
-0.134773
0.0433048
0.00141921
-0.00717923
0.00502638
-0.0230566
0.0100631
-0.0397465
0.0156076
-0.0555467
0.0208154
-0.0690561
0.0251323
-0.079611
0.0283504
-0.0872891
0.0305325
-0.0926379
0.0318861
-0.0963622
0.0326519
-0.0991044
0.0330363
-0.101344
0.0331864
-0.103389
0.0331936
-0.105412
0.0331089
-0.107497
0.0329591
-0.10968
0.0327583
-0.111976
0.0325151
-0.114389
0.0322357
-0.116918
0.0319256
-0.119564
0.0315898
-0.122323
0.0312329
-0.125191
0.0308583
-0.128161
0.0304671
-0.131224
0.0300656
-0.134371
-0.000112997
0.00274675
-0.00263375
-0.000462719
0.00702659
-0.00667686
-0.00105597
0.0104177
-0.00982446
-0.00188101
0.0130292
-0.0122042
-0.00291003
0.0149873
-0.0139583
-0.00410529
0.0164363
-0.0152411
-0.00542531
0.0175172
-0.0161972
-0.00682941
0.0183471
-0.016943
-0.00828005
0.0190076
-0.0175569
-0.00974313
0.0195407
-0.0180776
-0.0111869
0.0199521
-0.0185084
-0.0125799
0.0202172
-0.0188242
-0.0138895
0.020289
-0.0189794
-0.01508
0.0201048
-0.0189143
-0.016112
0.0195912
-0.0185592
-0.016942
0.0186685
-0.0178385
-0.0175226
0.017254
-0.0166734
-0.0178032
0.0152648
-0.0149843
-0.0177294
0.0126212
-0.012695
-0.0172434
0.0092508
-0.00973676
-0.0163083
0.00511516
-0.00605023
-0.0149228
0.000178955
-0.00156449
-0.012904
-0.00550617
0.00348734
-0.0118485
-0.0103498
0.0092943
2.86215e-06
0.00274389
-7.78375e-05
0.00710728
-0.000296608
0.0106365
-0.00067434
0.0134069
-0.00120368
0.0155166
-0.00185627
0.0170889
-0.00259068
0.0182516
-0.00335948
0.0191159
-0.00411441
0.0197625
-0.00480916
0.0202355
-0.00540035
0.0205433
-0.00584714
0.020664
-0.00611032
0.0205522
-0.00615143
0.0201459
-0.00593227
0.019372
-0.00541491
0.0181512
-0.00456188
0.016401
-0.00333658
0.0140395
-0.00170443
0.0109891
0.000367438
0.00717894
0.00295394
0.00252866
0.00605107
-0.00291817
0.00974581
-0.00920092
-0.0161875
0.0140848
0.000110962
0.00263292
0.000292813
0.00692543
0.000455118
0.0104742
0.000550478
0.0133116
0.000567548
0.0154995
0.000524241
0.0171322
0.000459332
0.0183165
0.000424034
0.0191512
0.000474874
0.0197117
0.000668573
0.0200418
0.00105902
0.0201528
0.00169597
0.0200271
0.00262475
0.0196234
0.00388654
0.0188841
0.00551859
0.0177399
0.00755439
0.0161154
0.0100237
0.0139317
0.0129526
0.0111106
0.0163651
0.00757656
0.0202846
0.00325945
0.0247066
-0.0018933
0.0296973
-0.00790894
0.0352593
-0.0147628
-0.0224559
0.0415277
0.000198766
0.00243416
0.00060897
0.00651523
0.00112059
0.00996256
0.00166969
0.0127625
0.00223055
0.0149387
0.00281041
0.0165524
0.0034423
0.0176846
0.00417662
0.0184169
0.00507321
0.0188151
0.00619468
0.0189203
0.00760176
0.0187458
0.00935045
0.0182784
0.0114906
0.0174832
0.0140659
0.0163088
0.0171135
0.0146923
0.0206653
0.0125636
0.0247478
0.00984922
0.0293826
0.00647573
0.0345882
0.00237096
0.0403946
-0.00254691
0.0468068
-0.00830555
0.0538537
-0.0149559
0.0615027
-0.0224118
-0.0308835
0.0699303
0.00025684
0.00217732
0.000836519
0.00593555
0.00162874
0.00917033
0.00256548
0.0118257
0.00361345
0.0138907
0.00477119
0.0153946
0.00606401
0.0163918
0.00753711
0.0169438
0.00924798
0.0171042
0.0112595
0.0169087
0.0136346
0.0163707
0.0164322
0.0154807
0.0197058
0.0142097
0.0235025
0.0125121
0.027864
0.0103308
0.0328275
0.00760009
0.0384305
0.00424623
0.0446769
0.000229383
0.0516584
-0.00461064
0.0593617
-0.0102502
0.0678142
-0.016758
0.0770345
-0.0241762
0.0869333
-0.0323106
-0.0416682
0.097718
0.000279801
0.00189752
0.000953502
0.00526185
0.00192932
0.00819452
0.00314831
0.0106067
0.00457827
0.0124608
0.00621333
0.0137596
0.00807178
0.0145334
0.0101915
0.0148241
0.012624
0.0146716
0.0154288
0.014104
0.0186678
0.0131317
0.0224025
0.0117461
0.0266916
0.00992059
0.0315909
0.00761275
0.0371557
0.00476604
0.0434311
0.00132471
0.0504831
-0.00280581
0.0583862
-0.00767372
0.0671368
-0.0133612
0.0767929
-0.0199062
0.0873559
-0.0273211
0.0987853
-0.0356056
0.110915
-0.0444399
-0.0545676
0.123814
0.000267074
0.00163044
0.000954171
0.00457475
0.00200387
0.00714482
0.0033781
0.00923251
0.00505475
0.0107841
0.00702998
0.0117843
0.00931905
0.0122443
0.0119547
0.0121884
0.0149839
0.0116424
0.0184639
0.010624
0.022459
0.00913663
0.0270377
0.0071674
0.0322723
0.00468589
0.0382348
0.00165035
0.0450067
-0.00200589
0.0526715
-0.00634009
0.061289
-0.0114233
0.0709263
-0.017311
0.0816078
-0.0240428
0.0933145
-0.0316128
0.105978
-0.0399842
0.119404
-0.0490317
0.133367
-0.0584028
-0.0687479
0.147547
0.000223325
0.00140712
0.00085182
0.00394626
0.00187395
0.0061227
0.00328162
0.00782484
0.00507133
0.00899438
0.00724947
0.0096062
0.00983618
0.00965758
0.012867
0.00915761
0.0163925
0.00811689
0.0204773
0.00653924
0.0251977
0.00441615
0.0306397
0.0017254
0.0368987
-0.0015731
0.0440758
-0.00552671
0.052261
-0.0101911
0.0615384
-0.0156175
0.0719592
-0.0218441
0.0835298
-0.0288817
0.0961901
-0.036703
0.109786
-0.045209
0.124096
-0.0542939
0.138721
-0.0636572
0.153407
-0.0730883
-0.0826922
0.167351
0.000158843
0.00124828
0.000680286
0.00342481
0.0016055
0.00519748
0.00296288
0.00646746
0.00477572
0.00718154
0.00707078
0.00731114
0.00988517
0.00684319
0.0132708
0.00577199
0.0172964
0.00409132
0.0220471
0.00178852
0.0276225
-0.0011593
0.0341324
-0.00478441
0.0416842
-0.00912489
0.0503753
-0.0142178
0.0602737
-0.0200895
0.0714007
-0.0267445
0.0837097
-0.0341531
0.0970684
-0.0422405
0.111247
-0.0508819
0.125919
-0.0598804
0.140674
-0.0690494
0.155005
-0.0779884
0.168619
-0.0867022
-0.0946179
0.180545
8.93835e-05
0.00115889
0.000492488
0.00302171
0.00130556
0.00438442
0.0025983
0.00517471
0.00442924
0.00535061
0.00685732
0.00488305
0.00995075
0.00374976
0.0137925
0.00193024
0.0184811
-0.000597295
0.0241279
-0.00385827
0.0308478
-0.00787917
0.0387461
-0.0126828
0.047901
-0.0182798
0.0583425
-0.0246592
0.0700318
-0.0317788
0.082844
-0.0395567
0.0965577
-0.0478667
0.110856
-0.056539
0.125337
-0.0653627
0.139558
-0.0741011
0.153027
-0.0825188
0.165348
-0.0903092
0.176181
-0.0975357
-0.103406
0.18497
3.41439e-05
0.00112475
0.000352403
0.00270345
0.00110435
0.00363247
0.00240466
0.0038744
0.00435481
0.00340046
0.0070561
0.00218177
0.0106168
0.000189032
0.0151558
-0.00260877
0.0207951
-0.00623652
0.027649
-0.0107122
0.0358064
-0.0160366
0.0453082
-0.0221846
0.0561255
-0.0290971
0.0681417
-0.0366754
0.0811418
-0.0447788
0.0948134
-0.0532284
0.108761
-0.0618145
0.122536
-0.0703136
0.135672
-0.0784985
0.147758
-0.0861871
0.158437
-0.0931984
0.167636
-0.0995077
0.175125
-0.105025
-0.1094
0.18112
1.13063e-05
0.000319488
0.00112244
0.00258063
0.00484164
0.0080502
0.0123501
0.0178755
0.024737
0.0329986
0.0426537
0.0536052
0.0656536
0.0784978
0.0917506
0.104968
0.117688
0.129483
0.140001
0.149014
0.156424
0.1624
0.167034
0.171963
-0.00685841
-0.0258696
0.0223782
-0.00313917
-0.0391013
0.0353821
0.000766812
-0.0535681
0.0496621
0.00447934
-0.0683332
0.0646206
0.00779015
-0.0827773
0.0794665
0.0104469
-0.0962055
0.0935488
0.0122579
-0.108049
0.106238
0.0133852
-0.11797
0.116842
0.0145305
-0.12566
0.124515
0.0167645
-0.130257
0.128023
0.0214307
-0.130181
0.125515
0.0294076
-0.123043
0.115066
0.0406084
-0.106649
0.0954477
0.0540679
-0.0801676
0.0667081
0.0686671
-0.0445728
0.0299737
0.0834177
-0.00237846
-0.0123722
0.0977293
0.0429473
-0.0572589
0.110725
0.0859784
-0.0989737
0.12134
0.121182
-0.131798
0.128802
0.145552
-0.153014
0.133142
0.159376
-0.163715
0.134868
0.165148
-0.166875
0.134001
0.167515
-0.166648
0.130133
0.172613
-0.168745
0.123978
0.182434
-0.176279
0.118322
0.187979
-0.182324
0.116513
0.172158
-0.170348
0.119944
0.123092
-0.126524
0.127772
0.046107
-0.0539348
0.137509
-0.039069
0.0293317
0.146573
-0.111602
0.102538
0.153088
-0.160964
0.154448
0.156771
-0.187101
0.183418
0.157847
-0.196412
0.195335
0.155599
-0.200058
0.202306
0.149338
-0.208608
0.214869
0.140676
-0.220544
0.229207
0.133466
-0.210803
0.218013
0.131127
-0.162157
0.164497
0.134222
-0.0705437
0.0674481
0.141111
0.02946
-0.0363482
0.148968
0.118392
-0.126249
0.154582
0.177159
-0.182774
0.154949
0.217198
-0.217564
0.149641
0.252849
-0.247541
0.141955
0.26289
-0.255203
0.137072
0.244376
-0.239493
0.137685
0.142551
-0.143164
0.143367
0.0345546
-0.040236
0.14908
-0.0899699
0.0842562
0.150411
-0.171715
0.170385
0.146775
-0.228993
0.232628
0.142582
-0.296085
0.300279
0.141458
-0.233987
0.23511
0.143426
-0.206235
0.204268
0.144632
-0.0230846
0.0218785
0.143938
0.107822
-0.107128
0.142389
0.204885
-0.203336
0.140658
0.374198
-0.372467
0.17012
-0.168427
0.0172082
-0.0289929
0.0202377
-0.0421308
0.02316
-0.0564904
0.0258328
-0.0710059
0.027912
-0.0848565
0.0290388
-0.0973324
0.0288604
-0.10787
0.027168
-0.116277
0.0242077
-0.1227
0.0211202
-0.12717
0.0197112
-0.128772
0.0219097
-0.125241
0.0287571
-0.113496
0.0399012
-0.0913118
0.0540697
-0.0587413
0.069888
-0.0181967
0.0861314
0.0267038
0.10158
0.0705296
0.114895
0.107868
0.12508
0.135367
0.131934
0.152521
0.135678
0.161404
0.136255
0.166939
0.133668
0.1752
0.129171
0.18693
0.125468
0.191683
0.125071
0.172554
0.128711
0.119452
0.135479
0.0393394
0.143386
-0.0469757
0.150382
-0.118598
0.154871
-0.165453
0.15672
-0.18895
0.156405
-0.196097
0.153336
-0.196988
0.146523
-0.201795
0.137253
-0.211275
0.129488
-0.203038
0.127108
-0.159777
0.130898
-0.0743335
0.139092
0.0212658
0.148368
0.109116
0.155053
0.170474
0.156174
0.216077
0.15145
0.257573
0.14424
0.270099
0.139369
0.249247
0.139389
0.14253
0.144353
0.0295904
0.149557
-0.0951729
0.150703
-0.172862
0.146814
-0.225104
0.14251
-0.291781
0.141336
-0.232813
0.143165
-0.208065
0.144264
-0.0241834
0.143493
0.108593
0.142037
0.206341
0.140394
0.375841
0.171766
0.0437985
-0.0312637
0.0460644
-0.0443967
0.0480894
-0.0585154
0.0496804
-0.0725969
0.0506267
-0.0858028
0.0506401
-0.0973458
0.0492955
-0.106526
0.0461068
-0.113088
0.0408219
-0.117415
0.0339023
-0.12025
0.0269867
-0.121856
0.0226454
-0.1209
0.0233329
-0.114183
0.0300604
-0.0980393
0.0420679
-0.0707488
0.0576664
-0.0337953
0.0750992
0.00927108
0.092483
0.0531457
0.108223
0.0921276
0.121066
0.122523
0.130481
0.143107
0.136349
0.155537
0.138615
0.164674
0.1377
0.176114
0.135189
0.189441
0.133476
0.193396
0.134279
0.171752
0.137728
0.116003
0.143171
0.0338959
0.149021
-0.0528257
0.153836
-0.123413
0.156324
-0.167941
0.156438
-0.189064
0.154844
-0.194502
0.151134
-0.193279
0.144051
-0.194712
0.134407
-0.201631
0.12612
-0.194752
0.123531
-0.157188
0.127815
-0.0786182
0.13711
0.011971
0.14769
0.0985368
0.155455
0.162708
0.15747
0.214062
0.153509
0.261535
0.14689
0.276718
0.14204
0.254097
0.141368
0.143203
0.145487
0.0254713
0.15011
-0.0997958
0.151087
-0.17384
0.146956
-0.220973
0.142475
-0.287299
0.141237
-0.231576
0.142987
-0.209814
0.144037
-0.0252329
0.143187
0.109442
0.141812
0.207715
0.140278
0.377375
0.173337
0.0714879
-0.0328214
0.0729579
-0.0458667
0.0740568
-0.0596142
0.0744734
-0.0730135
0.0740824
-0.0854118
0.0727593
-0.0960228
0.0702978
-0.104064
0.0663591
-0.10915
0.0604392
-0.111495
0.0521655
-0.111976
0.0420924
-0.111783
0.0323511
-0.111159
0.0262385
-0.108071
0.0266059
-0.0984067
0.0342552
-0.078398
0.0477762
-0.0473163
0.0651866
-0.0081393
0.0836972
0.0346351
0.101392
0.0744328
0.116658
0.107258
0.128541
0.131224
0.136587
0.147491
0.140772
0.160488
0.141857
0.175029
0.14156
0.189738
0.141802
0.193154
0.143565
0.16999
0.146659
0.112909
0.150491
0.0300644
0.154274
-0.0566087
0.156899
-0.126039
0.15745
-0.168491
0.155947
-0.187561
0.153164
-0.191719
0.148931
-0.189046
0.141827
-0.187608
0.132096
-0.1919
0.123379
-0.186034
0.120423
-0.154232
0.124937
-0.0831323
0.135112
0.00179629
0.14687
0.086779
0.155735
0.153844
0.158789
0.211007
0.155771
0.264553
0.149857
0.282631
0.145041
0.258913
0.143611
0.144633
0.146751
0.0223321
0.15072
-0.103765
0.151539
-0.174659
0.147181
-0.216615
0.142455
-0.282573
0.141137
-0.230258
0.142868
-0.211546
0.143936
-0.0263008
0.143014
0.110365
0.14171
0.209019
0.140314
0.378771
0.174797
0.0989319
-0.0340352
0.0996909
-0.0466257
0.0997
-0.0596234
0.0987275
-0.072041
0.0967544
-0.0834387
0.0938009
-0.0930693
0.0898802
-0.100143
0.084979
-0.104248
0.0788822
-0.105398
0.0710124
-0.104107
0.0608004
-0.101571
0.0488096
-0.0991678
0.0376175
-0.0968787
0.0311139
-0.091903
0.0323119
-0.0795961
0.0415845
-0.0565889
0.0568838
-0.0234386
0.0754983
0.0160205
0.0944486
0.0554825
0.111681
0.0900253
0.125762
0.117143
0.135936
0.137316
0.142204
0.154221
0.145539
0.171694
0.14761
0.187667
0.149812
0.190951
0.152396
0.167406
0.154948
0.110357
0.157269
0.0277432
0.159004
-0.0583435
0.15949
-0.126525
0.158181
-0.167182
0.155203
-0.184584
0.151348
-0.187863
0.146691
-0.184389
0.139771
-0.180689
0.130246
-0.182375
0.121263
-0.177051
0.11781
-0.150779
0.122266
-0.0875886
0.13304
-0.0089782
0.145831
0.0739888
0.155815
0.143859
0.160057
0.206765
0.158152
0.266458
0.153059
0.287724
0.148302
0.26367
0.146073
0.146862
0.14813
0.0202757
0.151363
-0.106998
0.15203
-0.175326
0.147472
-0.212057
0.142436
-0.277536
0.14101
-0.228832
0.142783
-0.213319
0.143942
-0.0274595
0.142963
0.111344
0.141725
0.210258
0.140503
0.379993
0.176111
0.124539
-0.0347601
0.124485
-0.046572
0.123308
-0.058446
0.120858
-0.0695915
0.117252
-0.079832
0.112627
-0.088445
0.107138
-0.094654
0.100983
-0.0980936
0.0943118
-0.0987269
0.0869628
-0.0967578
0.0782211
-0.0928295
0.0672931
-0.0882397
0.0547293
-0.084315
0.0434611
-0.0806348
0.0377318
-0.0738668
0.0404581
-0.0593152
0.0514249
-0.0344053
0.0682654
-0.00082
0.0873311
0.0364168
0.105831
0.0715254
0.121724
0.10125
0.133917
0.125123
0.142367
0.145771
0.148111
0.16595
0.152637
0.183141
0.156771
0.186818
0.16018
0.163996
0.162296
0.10824
0.163228
0.0268118
0.163075
-0.058191
0.16152
-0.12497
0.158457
-0.164118
0.154165
-0.180292
0.149365
-0.183064
0.144352
-0.179375
0.137765
-0.174101
0.128724
-0.173334
0.119701
-0.168027
0.115686
-0.146764
0.1198
-0.0917026
0.130827
-0.0200052
0.144483
0.0603323
0.1556
0.132742
0.161167
0.201199
0.160539
0.267086
0.156377
0.291887
0.151722
0.268325
0.148707
0.149877
0.149581
0.0194012
0.152007
-0.109424
0.152523
-0.175842
0.147807
-0.207341
0.142406
-0.272136
0.140836
-0.227261
0.142702
-0.215186
0.144036
-0.0287936
0.143024
0.112356
0.141851
0.21143
0.140849
0.380995
0.177237
0.14731
-0.0345234
0.146066
-0.0453273
0.143412
-0.0557921
0.139317
-0.0654964
0.134024
-0.0745396
0.127772
-0.0821928
0.120834
-0.0877158
0.113531
-0.0907911
0.106154
-0.0913497
0.0988632
-0.0894669
0.0914296
-0.0853959
0.0829707
-0.0797808
0.0725081
-0.0738525
0.0606022
-0.0687288
0.0503817
-0.0636464
0.0461687
-0.0551022
0.050584
-0.0388207
0.0629854
-0.0132214
0.0803284
0.0190738
0.0989522
0.0529015
0.11609
0.0841126
0.130132
0.111081
0.140816
0.135087
0.149063
0.157703
0.156063
0.176141
0.162081
0.1808
0.166303
0.159774
0.168214
0.106329
0.168122
0.0269039
0.166327
-0.0563954
0.1629
-0.121543
0.158217
-0.159435
0.152779
-0.174854
0.147182
-0.177468
0.141862
-0.174056
0.135686
-0.167925
0.127362
-0.16501
0.118559
-0.159225
0.114014
-0.142219
0.117496
-0.0951845
0.128432
-0.0309414
0.142736
0.0460281
0.154978
0.1205
0.161993
0.194184
0.162798
0.26628
0.159674
0.295011
0.155179
0.27282
0.151408
0.153648
0.151085
0.0197247
0.152619
-0.110958
0.152981
-0.176204
0.14816
-0.202521
0.142361
-0.266336
0.140599
-0.225499
0.142596
-0.217183
0.144195
-0.0303923
0.143185
0.113366
0.142084
0.212531
0.141351
0.381729
0.178135
0.165656
-0.0328285
0.162831
-0.0425021
0.158475
-0.0514363
0.15272
-0.0597408
0.145881
-0.067701
0.138229
-0.0745405
0.130114
-0.0796014
0.121948
-0.0826248
0.11408
-0.0834818
0.10675
-0.0821366
0.100031
-0.0786766
0.0935693
-0.0733196
0.0863371
-0.0666202
0.0772766
-0.0596684
0.0669697
-0.0533395
0.0585389
-0.0466713
0.0561236
-0.0364054
0.0619489
-0.0190467
0.0749433
0.00607949
0.0917775
0.0360673
0.10908
0.0668106
0.124517
0.0956433
0.137323
0.122281
0.148064
0.146963
0.157508
0.166697
0.165373
0.172935
0.170508
0.154638
0.172444
0.104393
0.171693
0.0276553
0.168598
-0.0533007
0.163539
-0.116484
0.157396
-0.153292
0.150984
-0.168442
0.14475
-0.171233
0.139166
-0.168472
0.133417
-0.162176
0.125971
-0.157564
0.117655
-0.150908
0.112692
-0.137256
0.115328
-0.0978208
0.12582
-0.0414331
0.140514
0.0313343
0.153841
0.107173
0.162397
0.185627
0.164764
0.263914
0.162791
0.296984
0.158546
0.277065
0.154091
0.158104
0.152581
0.021234
0.153163
-0.111539
0.153361
-0.176402
0.148503
-0.197663
0.142294
-0.260127
0.140291
-0.223496
0.142439
-0.219331
0.144396
-0.0323491
0.143433
0.114329
0.142416
0.213548
0.142009
0.382136
0.178759
0.177367
-0.029651
0.172977
-0.0381119
0.167102
-0.045561
0.160064
-0.052703
0.152166
-0.0598025
0.143647
-0.0660221
0.134879
-0.0708328
0.126282
-0.0740285
0.118229
-0.0754281
0.110992
-0.0748996
0.104732
-0.072417
0.0994314
-0.0680187
0.094623
-0.0618118
0.0892079
-0.0542533
0.0821571
-0.0462887
0.0740426
-0.0385567
0.0677813
-0.0301441
0.0671072
-0.0183726
0.07377
-0.000583231
0.0863961
0.0234411
0.102022
0.0511845
0.117781
0.0798847
0.132181
0.10788
0.145157
0.133987
0.156885
0.154969
0.166524
0.163296
0.172682
0.14848
0.174988
0.102087
0.173839
0.0288037
0.169786
-0.0492473
0.163331
-0.110029
0.155898
-0.14586
0.148676
-0.16122
0.141976
-0.164532
0.136182
-0.162678
0.130835
-0.156829
0.124362
-0.151091
0.116767
-0.143313
0.111569
-0.132058
0.113269
-0.0995215
0.122967
-0.0511303
0.137764
0.0165373
0.152083
0.0928536
0.162251
0.175459
0.166302
0.259862
0.165583
0.297703
0.161671
0.280977
0.156677
0.163097
0.154
0.0239106
0.153598
-0.111137
0.153616
-0.176421
0.148799
-0.192846
0.142202
-0.253529
0.139908
-0.221202
0.142202
-0.221625
0.144614
-0.0347617
0.143756
0.115187
0.142841
0.214463
0.142822
0.382155
0.179064
0.180937
-0.0256181
0.175556
-0.0327309
0.168833
-0.0388383
0.161256
-0.0451264
0.153021
-0.0515676
0.144326
-0.0573267
0.135531
-0.0620373
0.127018
-0.0655164
0.119131
-0.0675407
0.112153
-0.0679218
0.106295
-0.0665591
0.101671
-0.0633943
0.098194
-0.0583348
0.0953544
-0.0514136
0.0920732
-0.0430075
0.087373
-0.0338565
0.0817596
-0.0245308
0.0777778
-0.0143908
0.0786494
-0.00145489
0.0854696
0.016621
0.0972607
0.0393933
0.111557
0.0655883
0.126379
0.0930584
0.140883
0.119483
0.154488
0.141364
0.165751
0.152033
0.172997
0.141235
0.175852
0.099232
0.174753
0.029903
0.169896
-0.0443899
0.16222
-0.102354
0.15365
-0.137289
0.145765
-0.153334
0.138776
-0.157544
0.132846
-0.156748
0.127845
-0.151828
0.122376
-0.145621
0.115699
-0.136636
0.110473
-0.126832
0.111233
-0.100281
0.119875
-0.0597726
0.134463
0.00195009
0.149632
0.0776845
0.161412
0.163679
0.167215
0.254059
0.167859
0.297059
0.164421
0.284416
0.159035
0.168483
0.155319
0.0276272
0.153898
-0.109716
0.153705
-0.176228
0.149018
-0.188158
0.142091
-0.246603
0.139458
-0.218569
0.141857
-0.224024
0.144826
-0.0377311
0.14414
0.115873
0.143353
0.21525
0.14379
0.381718
0.179002
0.177109
-0.0216071
0.171535
-0.0271575
0.164821
-0.0321239
0.157476
-0.0377816
0.149563
-0.0436542
0.141286
-0.0490504
0.132976
-0.0537265
0.124951
-0.0574922
0.117522
-0.0601109
0.110973
-0.0613734
0.105549
-0.0611349
0.101394
-0.059239
0.0985419
-0.0554831
0.0968612
-0.0497329
0.0958706
-0.0420169
0.094691
-0.0326769
0.0925492
-0.022389
0.0897672
-0.0116087
0.0884212
-0.000108934
0.0902858
0.0147564
0.0971455
0.0325336
0.108059
0.0546745
0.121496
0.0796218
0.136226
0.104754
0.150893
0.126697
0.163284
0.139641
0.171559
0.132959
0.175479
0.0953123
0.174586
0.0307959
0.169196
-0.0390002
0.16048
-0.0936378
0.150954
-0.127763
0.142526
-0.144906
0.135379
-0.150397
0.129366
-0.150735
0.124585
-0.147047
0.120036
-0.141073
0.114394
-0.130994
0.10932
-0.121758
0.109175
-0.100137
0.116545
-0.0671428
0.13059
-0.0120941
0.146405
0.0618686
0.159841
0.150243
0.167518
0.246382
0.169563
0.295015
0.166679
0.287299
0.16117
0.173992
0.15649
0.032307
0.154085
-0.107311
0.153627
-0.17577
0.149148
-0.183679
0.141983
-0.239438
0.138966
-0.215552
0.141396
-0.226454
0.145007
-0.0413419
0.144572
0.116308
0.143949
0.215873
0.144914
0.380753
0.178525
0.168531
-0.0181747
0.163269
-0.0218956
0.157414
-0.0262691
0.150969
-0.0313358
0.14398
-0.0366653
0.136735
-0.0418063
0.129497
-0.0464877
0.122509
-0.0505049
0.11603
-0.0536318
0.110287
-0.0556304
0.105441
-0.0562889
0.101617
-0.0554148
0.0989454
-0.0528116
0.0975234
-0.0483108
0.0973085
-0.0418021
0.0979264
-0.0332947
0.0985803
-0.0230429
0.0985279
-0.0115563
0.0978462
0.000572788
0.0987188
0.0138838
0.102222
0.0290302
0.109318
0.0475789
0.119751
0.0691885
0.132758
0.0917466
0.146855
0.1126
0.159692
0.126805
0.169346
0.123305
0.174591
0.0900674
0.17429
0.0310968
0.167914
-0.0326239
0.158213
-0.0839373
0.148043
-0.117592
0.139294
-0.136157
0.132106
-0.143209
0.126042
-0.144671
0.121302
-0.142307
0.117469
-0.137239
0.112878
-0.126404
0.108107
-0.116986
0.107129
-0.0991591
0.113214
-0.0732283
0.126306
-0.025186
0.142418
0.0457567
0.157181
0.135481
0.166747
0.236815
0.170371
0.291391
0.168273
0.289398
0.162858
0.179407
0.157522
0.037643
0.154141
-0.103931
0.153391
-0.17502
0.149181
-0.179469
0.141881
-0.232138
0.138431
-0.212101
0.140865
-0.228888
0.145144
-0.0456213
0.145042
0.11641
0.144619
0.216296
0.146185
0.379186
0.177576
0.204566
-0.0149786
-0.207762
0.202205
-0.0195346
0.199519
-0.0235833
0.196225
-0.0280419
0.192264
-0.0327039
0.187701
-0.0372438
0.182622
-0.0414089
0.177096
-0.0449788
0.171211
-0.047747
0.165086
-0.0495052
0.158847
-0.0500496
0.152623
-0.0491907
0.146556
-0.046745
0.140796
-0.0425504
0.135481
-0.0364871
0.130653
-0.0284665
0.126097
-0.018487
0.12146
-0.00692005
0.116133
0.00589984
0.110788
0.0192296
0.106391
0.0334272
0.104432
0.0495374
0.106111
0.0675095
0.111958
0.0858992
0.121747
0.102811
0.135548
0.113004
0.153647
0.105206
0.173038
0.0706763
0.187113
0.0170215
0.193267
-0.0387775
0.191875
-0.082545
0.185671
-0.111389
0.177407
-0.127893
0.168695
-0.134497
0.160042
-0.136018
0.152054
-0.134319
0.144876
-0.130061
0.137144
-0.118671
0.128465
-0.108308
0.12183
-0.0925232
0.120495
-0.0718939
0.124949
-0.0296398
0.131505
0.0392003
0.137149
0.129837
0.140934
0.23303
0.144633
0.287691
0.149426
0.284605
0.154565
0.174268
0.157819
0.0343887
0.158871
-0.104982
0.157842
-0.17399
0.15295
-0.174577
0.144222
-0.22341
0.138018
-0.205898
0.13582
-0.226689
0.135063
-0.0448647
0.132395
0.119079
0.130666
0.218025
0.133164
0.376688
0.176079
0.213355
-0.0125615
-0.215772
0.210713
-0.0168931
0.208035
-0.0209053
0.204867
-0.0248739
0.201089
-0.0289259
0.196751
-0.0329058
0.191922
-0.0365798
0.186673
-0.0397297
0.181091
-0.0421652
0.17529
-0.0437037
0.1694
-0.0441599
0.163562
-0.0433525
0.157924
-0.0411064
0.152631
-0.0372583
0.147824
-0.0316794
0.143637
-0.0242794
0.140094
-0.014945
0.136889
-0.00371423
0.133718
0.00907059
0.130389
0.0225586
0.127327
0.036489
0.12579
0.051074
0.127286
0.0660142
0.132814
0.0803711
0.14273
0.0928953
0.157353
0.0983811
0.175672
0.0868863
0.193215
0.0531333
0.204742
0.00549394
0.208029
-0.0420642
0.204635
-0.0791513
0.197087
-0.103841
0.187973
-0.118779
0.178824
-0.125348
0.169926
-0.127121
0.161616
-0.126008
0.154308
-0.122754
0.146865
-0.111229
0.13839
-0.0998328
0.131224
-0.0853579
0.128988
-0.0696576
0.13285
-0.0335021
0.139628
0.0324228
0.145989
0.123476
0.150711
0.228308
0.155581
0.282821
0.161552
0.278634
0.167338
0.168482
0.170723
0.0310041
0.171005
-0.105265
0.169228
-0.172213
0.163712
-0.16906
0.154226
-0.213925
0.147086
-0.198758
0.144557
-0.224159
0.143938
-0.0442457
0.141097
0.121919
0.139298
0.219824
0.142424
0.373562
0.174269
0.221892
-0.0107253
-0.223728
0.21951
-0.0145111
0.216842
-0.0182372
0.213794
-0.0218259
0.210237
-0.0253694
0.20616
-0.028829
0.201617
-0.0320372
0.196682
-0.0347945
0.191438
-0.0369207
0.185986
-0.0382522
0.180451
-0.038625
0.174972
-0.0378731
0.1697
-0.035834
0.164793
-0.0323516
0.160406
-0.0272925
0.156687
-0.0205604
0.153787
-0.0120453
0.151738