/*--------------------------------*- C++ -*----------------------------------*\
| =========                 |                                                 |
| \\      /  F ield         | OpenFOAM: The Open Source CFD Toolbox           |
|  \\    /   O peration     | Version:  2512                                  |
|   \\  /    A nd           | Website:  www.openfoam.com                      |
|    \\/     M anipulation  |                                                 |
\*---------------------------------------------------------------------------*/
FoamFile
{
    version     2.0;
    format      ascii;
    arch        "LSB;label=32;scalar=64";
    class       surfaceScalarField;
    location    "200";
    object      phi;
}
// * * * * * * * * * * * * * * * * * * * * * * * * * * * * * * * * * * * * * //

dimensions      [0 3 -1 0 0 0 0];

oriented        oriented;

internalField   nonuniform List<scalar> 
26232
(
0.0001995
0.000896581
-0.00109608
0.000917938
0.00139665
-0.00211509
0.00227624
0.000715423
-0.00207372
0.00439964
-0.00110341
-0.00101999
0.007422
-0.00402386
0.0010015
0.0114775
-0.00801165
0.00395619
0.0166825
-0.0130222
0.00781708
0.023112
-0.0189838
0.0125542
0.0307735
-0.0257819
0.0181205
0.039587
-0.0332501
0.0244366
0.0493769
-0.0411715
0.0313816
0.059879
-0.0492927
0.0387906
0.0707638
-0.0573461
0.0464613
0.0816717
-0.0650763
0.0541684
0.092254
-0.072266
0.0616838
0.102212
-0.0787559
0.0687976
0.11133
-0.0844555
0.0753374
0.119492
-0.0893453
0.0811834
0.126686
-0.0934668
0.0862731
0.132988
-0.0969127
0.0906105
0.138537
-0.0997821
0.0942337
0.14349
-0.102241
0.0972877
0.147828
-0.104189
0.0998513
-0.106174
0.102382
0.151619
0.000225138
0.000671442
0.00108117
0.000540619
0.00273623
-0.000939633
0.00535033
-0.00371751
0.00907607
-0.00774961
0.0140413
-0.0129769
0.0203213
-0.0193021
0.0279083
-0.0265707
0.0366885
-0.0345622
0.0464357
-0.0429972
0.0568255
-0.0515613
0.0674705
-0.0599377
0.0779679
-0.0678435
0.0879507
-0.0750591
0.0971319
-0.0814472
0.105334
-0.0869581
0.112501
-0.091622
0.118686
-0.0955312
0.124036
-0.098816
0.128744
-0.101621
0.133042
-0.10408
0.137128
-0.106327
0.141318
-0.108379
-0.110628
0.145773
0.000277826
0.000393616
0.00133265
-0.000514201
0.00336995
-0.00297694
0.00657243
-0.00691998
0.0110891
-0.0122662
0.0170047
-0.0188925
0.0243041
-0.0266016
0.0328453
-0.0351119
0.0423547
-0.0440716
0.052451
-0.0530935
0.0626938
-0.0618042
0.0726463
-0.0698902
0.0819356
-0.0771328
0.0902993
-0.0834229
0.0976097
-0.0887575
0.103872
-0.09322
0.1092
-0.0969503
0.113782
-0.100113
0.117838
-0.102872
0.121584
-0.105367
0.12521
-0.107706
0.128862
-0.109979
0.132671
-0.112189
-0.114578
0.136621
0.000361
3.26157e-05
0.00168058
-0.00183378
0.0041833
-0.00547965
0.00804978
-0.0107865
0.013388
-0.0176045
0.0201908
-0.0256953
0.0283024
-0.0347131
0.0374131
-0.0442227
0.0470923
-0.0537508
0.0568524
-0.0628536
0.066227
-0.0711787
0.0748412
-0.0785044
0.0824587
-0.0847503
0.0889964
-0.0899606
0.0945088
-0.09427
0.0991508
-0.097862
0.103131
-0.10093
0.106667
-0.103649
0.109955
-0.10616
0.113155
-0.108567
0.116386
-0.110937
0.119729
-0.113322
0.123261
-0.115721
-0.118307
0.126991
0.000471813
-0.000439197
0.00211246
-0.00347443
0.00513926
-0.00850645
0.0096948
-0.015342
0.0157986
-0.0237082
0.023302
-0.0331988
0.0318769
-0.043288
0.0410531
-0.0533989
0.0502982
-0.0629959
0.0591136
-0.071669
0.0671161
-0.0791812
0.0740856
-0.0854739
0.0799705
-0.0906353
0.0848592
-0.0948492
0.0889301
-0.0983408
0.0923987
-0.101331
0.095475
-0.104006
0.0983362
-0.106511
0.101118
-0.108942
0.103916
-0.111365
0.106797
-0.113818
0.1098
-0.116325
0.112966
-0.118887
-0.121605
0.116264
0.000604215
-0.00104341
0.00260259
-0.0054728
0.0061724
-0.0120763
0.0113741
-0.0205437
0.0180903
-0.0304244
0.0259973
-0.0411058
0.0345995
-0.0518902
0.0433213
-0.0621206
0.0516233
-0.0712979
0.0591
-0.0791457
0.0655308
-0.085612
0.0708792
-0.0908223
0.0752524
-0.0950085
0.0788419
-0.0984387
0.0818654
-0.101364
0.0845249
-0.10399
0.086984
-0.106465
0.0893628
-0.108889
0.0917437
-0.111323
0.094181
-0.113802
0.0967103
-0.116347
0.0993531
-0.118968
0.102133
-0.121667
-0.124499
0.105026
0.000750429
-0.00179384
0.0031182
-0.00784058
0.00720218
-0.0161602
0.012935
-0.0262765
0.0200252
-0.0375146
0.0279721
-0.0490527
0.036161
-0.0600791
0.0440005
-0.0699601
0.0510422
-0.0783396
0.0570429
-0.0851463
0.0619618
-0.0905309
0.0659116
-0.0947721
0.0690896
-0.0981864
0.0717148
-0.101064
0.0739848
-0.103634
0.0760552
-0.106061
0.0780371
-0.108447
0.0800043
-0.110857
0.0820042
-0.113323
0.0840665
-0.115865
0.0862105
-0.118491
0.0884477
-0.121205
0.09079
-0.124009
-0.126924
0.0932159
0.000901978
-0.00269582
0.00362305
-0.0105616
0.00814315
-0.0206803
0.0142281
-0.0323614
0.0214003
-0.0446869
0.0290181
-0.0566705
0.0364281
-0.0674892
0.0431153
-0.0766473
0.0487863
-0.0840107
0.0533738
-0.0897338
0.0569815
-0.0941387
0.0598072
-0.0975978
0.0620721
-0.100451
0.0639743
-0.102966
0.0656673
-0.105327
0.0672585
-0.107652
0.0688172
-0.110006
0.0703867
-0.112426
0.0719939
-0.11493
0.0736559
-0.117527
0.075384
-0.120219
0.077186
-0.123007
0.0790688
-0.125892
-0.128874
0.0810189
0.00104956
-0.00374538
0.0040794
-0.0135915
0.00891323
-0.0255142
0.0151279
-0.0385761
0.0220793
-0.0516383
0.0290518
-0.063643
0.0354399
-0.0738772
0.0408686
-0.082076
0.0452159
-0.088358
0.0485593
-0.0930773
0.05109
-0.0966693
0.053032
-0.0995398
0.0545887
-0.102008
0.0559169
-0.104294
0.0571251
-0.106536
0.0582819
-0.108809
0.0594287
-0.111153
0.0605907
-0.113588
0.0617836
-0.116123
0.0630181
-0.118761
0.0643013
-0.121502
0.0656387
-0.124345
0.0670337
-0.127287
-0.13032
0.0684787
0.00118291
-0.00492829
0.00445036
-0.0168589
0.00944224
-0.030506
0.0155482
-0.044682
0.0220068
-0.0580969
0.028107
-0.0697432
0.0333578
-0.0791281
0.0375481
-0.0862662
0.0407046
-0.0915145
0.0430001
-0.0953728
0.04466
-0.0983292
0.045896
-0.100776
0.0468744
-0.102986
0.0477092
-0.105129
0.048472
-0.107298
0.0492049
-0.109541
0.0499324
-0.11188
0.0506696
-0.114325
0.0514264
-0.11688
0.05221
-0.119545
0.0530254
-0.122318
0.0538764
-0.125196
0.0547649
-0.128175
-0.131244
0.0556894
0.00129207
-0.00622036
0.00470457
-0.0202714
0.00968109
-0.0354826
0.0154513
-0.0504523
0.0212034
-0.063849
0.0263009
-0.0748407
0.0304023
-0.0832294
0.0334491
-0.0893131
0.0355757
-0.0936411
0.0370015
-0.0967986
0.0379487
-0.0992763
0.038597
-0.101424
0.039072
-0.103461
0.0394519
-0.105509
0.039782
-0.107629
0.0400875
-0.109847
0.0403834
-0.112176
0.0406794
-0.114621
0.0409822
-0.117183
0.0412971
-0.119859
0.0416276
-0.122648
0.0419758
-0.125544
0.0423418
-0.128541
-0.131629
0.0427271
0.00137129
-0.00759165
0.00482296
-0.0237231
0.00960856
-0.0402682
0.0148479
-0.0556916
0.0197493
-0.0687503
0.0237989
-0.0788903
0.0268075
-0.0862381
0.0288382
-0.0913438
0.0300885
-0.0948914
0.0307874
-0.0974975
0.0311321
-0.099621
0.0312647
-0.101557
0.0312752
-0.103472
0.0312151
-0.105449
0.0311122
-0.107526
0.0309819
-0.109717
0.0308336
-0.112028
0.0306739
-0.114461
0.030508
-0.117017
0.0303401
-0.119692
0.0301733
-0.122481
0.0300092
-0.12538
0.0298469
-0.128379
0.0296891
-0.131472
-0.000336126
0.000819081
-0.000482954
-0.00114327
0.00130099
-0.000493848
-0.00230737
0.00103214
0.000131952
-0.00375193
0.000284274
0.00116029
-0.00542297
-0.000747365
0.00241841
-0.00728024
-0.00194383
0.0038011
-0.00929144
-0.00325242
0.00526363
-0.0114284
-0.00466964
0.00680662
-0.0136651
-0.00622088
0.00845757
-0.0159761
-0.00794257
0.0102536
-0.0183354
-0.00986944
0.0122287
-0.0207146
-0.0120273
0.0144066
-0.0230816
-0.0144302
0.0167973
-0.0253988
-0.017079
0.0193961
-0.0276216
-0.0199603
0.0221832
-0.0296981
-0.0230451
0.0251216
-0.0315683
-0.0262859
0.0281561
-0.033165
-0.0296141
0.0312108
-0.0344155
-0.0329382
0.0341887
-0.0352445
-0.0361433
0.0369722
-0.0355776
-0.039095
0.0394282
-0.0353467
-0.0416412
0.0414103
-0.0345075
-0.0436038
0.0427647
-0.0448099
-0.0330708
0.0433732
-0.000340954
0.00116004
-0.00117141
0.00213145
-0.00237937
0.0022401
-0.0038856
0.0017905
-0.00563122
0.000998259
-0.00757211
-2.93569e-06
-0.00967465
-0.00114988
-0.0119124
-0.00243185
-0.0142641
-0.00386927
-0.016711
-0.00549564
-0.0192354
-0.00734498
-0.0218185
-0.00944428
-0.0244384
-0.0118103
-0.0270692
-0.0144482
-0.0296796
-0.0173499
-0.0322324
-0.0204923
-0.0346839
-0.0238344
-0.0369835
-0.0273145
-0.0390748
-0.0308469
-0.0408981
-0.03432
-0.0423949
-0.0375982
-0.0435099
-0.0405262
-0.0441924
-0.0429213
-0.0445712
-0.0444311
-0.000311611
0.00147165
-0.00108941
0.00290925
-0.0022356
0.00338629
-0.00367388
0.00322879
-0.00534285
0.00266723
-0.00719389
0.00184811
-0.00918891
0.000845135
-0.0113001
-0.000320613
-0.0135054
-0.00166403
-0.015788
-0.00321308
-0.0181321
-0.00500084
-0.0205223
-0.0070541
-0.0229415
-0.00939106
-0.0253707
-0.0120191
-0.0277875
-0.0149331
-0.0301669
-0.018113
-0.0324797
-0.0215216
-0.0346923
-0.0251019
-0.0367653
-0.0287738
-0.0386548
-0.0324305
-0.0403176
-0.0359354
-0.0417145
-0.0391294
-0.0427916
-0.0418442
-0.0438341
-0.0435287
-0.000250367
0.00172201
-0.000902623
0.0035615
-0.00188438
0.00436804
-0.00312809
0.00447249
-0.00457194
0.00411108
-0.00616252
0.00343869
-0.0078563
0.00253892
-0.00961764
0.00144073
-0.0114164
0.000134755
-0.0132354
-0.00139415
-0.015051
-0.00318516
-0.016844
-0.0052611
-0.0185944
-0.00764068
-0.0202817
-0.0103318
-0.0218854
-0.0133293
-0.0233859
-0.0166125
-0.0247645
-0.020143
-0.0260034
-0.0238629
-0.0270838
-0.0276935
-0.0279823
-0.031532
-0.0286722
-0.0352454
-0.0291338
-0.0386678
-0.0293379
-0.0416402
-0.0440796
-0.0290923
-0.000165547
0.00188756
-0.000634131
0.00403009
-0.00136579
0.0050997
-0.00230628
0.00541298
-0.00339579
0.00520059
-0.00457617
0.00461906
-0.00579511
0.00375786
-0.00700738
0.00265299
-0.00817646
0.00130384
-0.00926375
-0.000306872
-0.0102411
-0.00220783
-0.0110771
-0.00442509
-0.0117414
-0.00697641
-0.0122045
-0.00986873
-0.0124395
-0.0130943
-0.0124241
-0.0166279
-0.0121428
-0.0204243
-0.0115886
-0.0244171
-0.0107627
-0.0285194
-0.00967078
-0.0326239
-0.00831335
-0.0366029
-0.00668006
-0.040301
-0.00480134
-0.0435189
-0.04603
-0.00285094
-6.95368e-05
0.0019571
-0.000319797
0.00428035
-0.000743949
0.00552386
-0.00130308
0.00597211
-0.00194123
0.00583874
-0.00259634
0.00527418
-0.0032071
0.00436862
-0.00371622
0.00316212
-0.00407152
0.00165915
-0.00422298
-0.000155418
-0.00412389
-0.00230692
-0.00372872
-0.00482026
-0.0029932
-0.00771193
-0.00187567
-0.0109863
-0.000339546
-0.0146304
0.00164365
-0.0186111
0.00409098
-0.0228716
0.00700529
-0.0273315
0.0103735
-0.0318876
0.0141677
-0.0364181
0.0183528
-0.040788
0.0229072
-0.0448554
0.0277807
-0.0483924
-0.0514018
0.0331525
2.38844e-05
0.00193321
-9.47554e-07
0.00430518
-9.49799e-05
0.00561789
-0.0002326
0.00610973
-0.000362307
0.00596845
-0.000419106
0.00533098
-0.00033305
0.00428256
-3.42845e-05
0.00286335
0.000544782
0.00108008
0.00147069
-0.00108133
0.00280631
-0.00364254
0.00461174
-0.00662568
0.00694343
-0.0100436
0.00985108
-0.0138939
0.013374
-0.0181534
0.0175373
-0.0227744
0.0223485
-0.0276828
0.0277956
-0.0327785
0.0338468
-0.0379389
0.0404543
-0.0430256
0.047556
-0.0478897
0.0551059
-0.0524052
0.0630374
-0.0563238
-0.059983
0.0716185
0.000102007
0.00183121
0.000282893
0.00412429
0.00050801
0.00539277
0.000794123
0.00582362
0.00119003
0.00557254
0.00176379
0.00475721
0.00259363
0.00345272
0.00376189
0.00169509
0.00535146
-0.000509491
0.00744321
-0.00317307
0.0101149
-0.00631419
0.0134373
-0.00994809
0.0174709
-0.0140773
0.0222609
-0.018684
0.0278321
-0.0237245
0.0341838
-0.0291261
0.0412878
-0.0347868
0.0490884
-0.0405792
0.0575067
-0.0463571
0.0664473
-0.0519663
0.0758111
-0.0572535
0.0855065
-0.0621006
0.0954584
-0.0662758
-0.0703271
0.105803
0.000156872
0.00167434
0.000505376
0.00377579
0.00101241
0.00488574
0.00169495
0.00514108
0.00260341
0.00466408
0.00381092
0.0035497
0.00540475
0.00185889
0.00747947
-0.000379619
0.010132
-0.003162
0.0134555
-0.00649658
0.017535
-0.0103937
0.0224405
-0.0148536
0.0282192
-0.019856
0.0348888
-0.0253535
0.0424305
-0.0312662
0.0507868
-0.0374824
0.0598621
-0.0438621
0.0695286
-0.0502457
0.0796379
-0.0564663
0.0900317
-0.0623601
0.100568
-0.0677895
0.111108
-0.0726409
0.121605
-0.076773
-0.08066
0.131938
0.000186404
0.00148793
0.000657725
0.00330447
0.00139962
0.00414384
0.00243982
0.00410088
0.00383736
0.00326654
0.00567491
0.00171215
0.00805099
-0.000517189
0.0110728
-0.0034014
0.0148461
-0.00693528
0.0194677
-0.0111182
0.0250141
-0.0159401
0.0315304
-0.0213699
0.0390201
-0.0273457
0.0474373
-0.0337706
0.0566835
-0.0405125
0.0666117
-0.0474106
0.0770357
-0.0542861
0.0877466
-0.0609566
0.0985322
-0.0672519
0.109198
-0.073026
0.119587
-0.078178
0.129572
-0.0826263
0.139165
-0.086366
-0.0896057
0.148111
0.000195641
0.00129229
0.00075359
0.00274652
0.00169335
0.00320408
0.00306444
0.00272979
0.00494296
0.00138802
0.00742658
-0.000771466
0.0106272
-0.00371786
0.014659
-0.00743311
0.0196259
-0.0119022
0.0256065
-0.0170988
0.0326378
-0.0229714
0.0407015
-0.0294336
0.0497154
-0.0363597
0.0595319
-0.0435871
0.0699453
-0.0509259
0.0807083
-0.0581736
0.0915543
-0.0651321
0.102225
-0.0716269
0.112493
-0.0775204
0.122195
-0.0827276
0.131229
-0.0872122
0.139592
-0.0909895
0.147341
-0.0941153
-0.0965708
0.154307
0.000196209
0.000827638
0.001958
0.0036678
0.00605731
0.00924204
0.0133413
0.0184624
0.0246806
0.0320184
0.0404286
0.0497857
0.0598873
0.0704686
0.0812264
0.0918505
0.102056
0.111612
0.120365
0.128248
0.135269
0.141567
0.147303
0.153115
-0.0283194
-0.0628443
0.0580929
-0.0222602
-0.0607991
0.0547399
-0.0149692
-0.0555225
0.0482315
-0.00655045
-0.0467576
0.0383389
0.00287216
-0.0342685
0.0248459
0.0131262
-0.0180865
0.00783248
0.0236853
0.00167251
-0.0122316
0.0344236
0.0243576
-0.0350959
0.045079
0.0488979
-0.0595533
0.0555398
0.0734222
-0.083883
0.0653678
0.0961815
-0.106009
0.0739164
0.11544
-0.123989
0.0804261
0.130162
-0.136672
0.0840972
0.140646
-0.144317
0.084445
0.148504
-0.148852
0.0821248
0.155194
-0.152874
0.0794525
0.159418
-0.156746
0.0795964
0.155843
-0.155987
0.084577
0.137657
-0.142638
0.0940341
0.101203
-0.11066
0.106248
0.0483315
-0.0605457
0.119189
-0.0136837
0.000743309
0.131268
-0.0747175
0.0626384
0.141018
-0.124014
0.114264
0.147464
-0.156154
0.149708
0.15056
-0.172734
0.169637
0.15116
-0.178687
0.178087
0.149813
-0.178644
0.179991
0.145824
-0.178895
0.182885
0.138677
-0.185581
0.192728
0.130224
-0.194656
0.203109
0.124336
-0.187916
0.193804
0.123893
-0.145342
0.145785
0.128945
-0.0680972
0.0630451
0.137055
0.0245509
-0.0326609
0.145658
0.105176
-0.113778
0.152879
0.161517
-0.168739
0.157281
0.192027
-0.196429
0.157211
0.21331
-0.213239
0.152102
0.235852
-0.230744
0.144203
0.251187
-0.243287
0.137762
0.237231
-0.23079
0.135918
0.165714
-0.163869
0.1393
0.0621005
-0.0654826
0.145722
-0.0598733
0.0534514
0.151875
-0.141508
0.135354
0.153551
-0.201834
0.200159
0.14941
-0.237262
0.241403
0.14246
-0.256404
0.263353
0.138193
-0.25596
0.260227
0.139447
-0.159141
0.157887
0.144461
-0.0764166
0.071402
0.14764
0.0798985
-0.0830766
0.146756
0.171382
-0.170498
0.144013
0.260875
-0.258132
0.142484
0.327936
-0.326407
0.142713
0.200573
-0.200802
0.14304
0.181907
-0.182234
0.141639
-0.0822545
0.0836562
-0.210742
0.212676
-0.0421291
-0.0651464
-0.0382958
-0.0646324
-0.032875
-0.0609433
-0.0257812
-0.0538513
-0.0171106
-0.0429391
-0.00707365
-0.0281234
0.00437718
-0.00977832
0.0169557
0.0117792
0.0294409
0.0364126
0.0418893
0.0609738
0.0537327
0.0843381
0.0642451
0.104928
0.0725736
0.121833
0.0780133
0.135207
0.0805485
0.145969
0.0814307
0.154312
0.0830563
0.157793
0.0877316
0.151167
0.0961266
0.129262
0.107061
0.0902679
0.11883
0.0365627
0.130087
-0.0249404
0.13971
-0.0843401
0.14673
-0.131035
0.150621
-0.160044
0.15154
-0.173653
0.150378
-0.177525
0.147819
-0.176086
0.143155
-0.174231
0.135445
-0.177871
0.126133
-0.185344
0.119301
-0.181084
0.118484
-0.144525
0.124
-0.0736133
0.133324
0.0152272
0.143537
0.0949629
0.152428
0.152626
0.158203
0.186252
0.159163
0.21235
0.154928
0.240087
0.147854
0.258261
0.141839
0.243246
0.139662
0.16789
0.141951
0.0598118
0.146986
-0.0649093
0.152134
-0.146656
0.153273
-0.202973
0.148908
-0.232898
0.141787
-0.249282
0.137602
-0.251775
0.139019
-0.160559
0.144134
-0.0815315
0.147403
0.0766297
0.146596
0.172189
0.144052
0.263418
0.142585
0.329403
0.143074
0.200085
0.143727
0.181254
0.142444
-0.0809715
-0.208832
-0.0441762
-0.064499
-0.0434385
-0.06537
-0.0409779
-0.0634039
-0.0365319
-0.0582974
-0.0299493
-0.0495217
-0.0212435
-0.0368292
-0.0107236
-0.0202982
0.00147379
-0.000418269
0.0153834
0.022503
0.0292005
0.0471568
0.0427011
0.0708375
0.0550068
0.0926219
0.0652758
0.111564
0.073035
0.127447
0.078647
0.140357
0.0835337
0.149425
0.0896535
0.151673
0.0982865
0.142534
0.109093
0.118456
0.12051
0.0788506
0.131259
0.0258138
0.140474
-0.0341558
0.14751
-0.0913753
0.15178
-0.135305
0.153191
-0.161455
0.152119
-0.17258
0.149407
-0.174813
0.145814
-0.172492
0.140733
-0.169151
0.132837
-0.169975
0.122952
-0.175459
0.115155
-0.173287
0.113668
-0.143039
0.119288
-0.0792332
0.129586
0.00492925
0.141255
0.0832938
0.151761
0.142121
0.158949
0.179063
0.161107
0.210192
0.157972
0.243221
0.151853
0.26438
0.146273
0.248826
0.143677
0.170487
0.14478
0.0587089
0.148326
-0.0684557
0.152406
-0.150736
0.153046
-0.203613
0.14854
-0.228392
0.141285
-0.242026
0.137136
-0.247626
0.138662
-0.162085
0.143882
-0.0867513
0.147285
0.0732274
0.146559
0.172915
0.144176
0.265801
0.142768
0.33081
0.143554
0.199299
0.144582
0.180226
0.143431
-0.0798201
-0.206947
-0.0326773
-0.060914
-0.0353245
-0.0627228
-0.0364476
-0.0622808
-0.0356207
-0.0591242
-0.0324396
-0.0527028
-0.0266877
-0.0425811
-0.0183406
-0.0286454
-0.00773648
-0.0110223
0.00506031
0.00970618
0.0191192
0.0330979
0.0335323
0.0564244
0.0472995
0.0788547
0.0596131
0.0992509
0.0701351
0.116925
0.079322
0.13117
0.0883535
0.140393
0.0985106
0.141516
0.110177
0.130868
0.122363
0.106269
0.133577
0.0676373
0.142825
0.0165657
0.149968
-0.0412989
0.154488
-0.0958957
0.156124
-0.136941
0.155177
-0.160509
0.152298
-0.169701
0.148246
-0.170761
0.143751
-0.167997
0.138412
-0.163812
0.130691
-0.162254
0.120647
-0.165415
0.111972
-0.164611
0.109505
-0.140571
0.114843
-0.0845716
0.125803
-0.00603076
0.138753
0.0703443
0.150791
0.130082
0.159433
0.170422
0.16296
0.206665
0.16113
0.245051
0.156077
0.269434
0.150915
0.253988
0.147863
0.173539
0.147716
0.0588552
0.149717
-0.0704561
0.152674
-0.153693
0.152839
-0.203777
0.148259
-0.223813
0.140901
-0.234668
0.136732
-0.243457
0.138326
-0.163679
0.143673
-0.0920987
0.147269
0.0696323
0.146641
0.173543
0.144391
0.268051
0.143042
0.332158
0.144157
0.198184
0.145605
0.178778
0.144597
-0.0788118
-0.205086
-0.00855532
-0.0552096
-0.0141241
-0.0571541
-0.018615
-0.0577899
-0.0215614
-0.0561778
-0.0223784
-0.0518858
-0.020722
-0.0442374
-0.0160403
-0.0333271
-0.00854008
-0.0185225
0.00174082
-0.000574717
0.0147164
0.0201223
0.0288642
0.0422766
0.0433274
0.0643914
0.0572703
0.085308
0.0703398
0.103856
0.0827955
0.118714
0.095346
0.127843
0.108573
0.128289
0.122191
0.11725
0.134926
0.0935337
0.145453
0.0571104
0.153273
0.00874551
0.15837
-0.0463961
0.160484
-0.0980089
0.15961
-0.136067
0.156464
-0.157363
0.151984
-0.16522
0.146833
-0.16561
0.141604
-0.162768
0.136116
-0.158325
0.128837
-0.154975
0.119079
-0.155657
0.109789
-0.155322
0.106143
-0.136925
0.11078
-0.0892084
0.121971
-0.0172224
0.135966
0.0563494
0.149413
0.116635
0.159533
0.160302
0.16459
0.201607
0.164251
0.24539
0.160365
0.27332
0.155614
0.258739
0.152072
0.17708
0.15069
0.0602376
0.15112
-0.0708859
0.15291
-0.155483
0.152614
-0.203481
0.148024
-0.219223
0.140586
-0.22723
0.136333
-0.239204
0.137958
-0.165304
0.143468
-0.0976089
0.147332
0.0657688
0.146836
0.174038
0.144701
0.270186
0.143414
0.333446
0.144883
0.196715
0.146792
0.176869
0.145937
-0.0779566
-0.203249
0.0258716
-0.0479287
0.0183468
-0.0496293
0.0110194
-0.0504625
0.00439134
-0.0495497
-0.000674267
-0.0468202
-0.00299203
-0.0419197
-0.00261254
-0.0337066
0.00113776
-0.0222728
0.00870561
-0.00814256
0.0188986
0.0099293
0.0313272
0.029848
0.0452156
0.0505031
0.0597299
0.0707937
0.0743681
0.0892177
0.0890363
0.104046
0.103896
0.112984
0.118912
0.113272
0.133355
0.102808
0.145918
0.0809704
0.155611
0.0474177
0.162133
0.00222375
0.165411
-0.0496744
0.165273
-0.0978715
0.162092
-0.132885
0.156977
-0.152249
0.151116
-0.15936
0.145106
-0.1596
0.139314
-0.156975
0.133734
-0.152745
0.127062
-0.148302
0.118008
-0.146602
0.108517
-0.145831
0.103682
-0.13209
0.107205
-0.0927315
0.118112
-0.0281292
0.132832
0.0416296
0.147504
0.101963
0.159101
0.148706
0.165825
0.194883
0.167148
0.244068
0.164533
0.275935
0.16019
0.263081
0.156175
0.181096
0.153603
0.0628092
0.152488
-0.0697711
0.153078
-0.156073
0.152328
-0.20273
0.147789
-0.214684
0.140298
-0.219739
0.135891
-0.234797
0.137505
-0.166918
0.143218
-0.103322
0.147444
0.061543
0.147136
0.174346
0.145112
0.27221
0.143888
0.33467
0.145729
0.194875
0.148138
0.17446
0.147444
-0.0772624
-0.201435
0.0642969
-0.0406071
0.0567474
-0.0420799
0.0489144
-0.0426295
0.0411951
-0.0418304
0.0340767
-0.0397019
0.0281278
-0.0359708
0.0244963
-0.0300751
0.0239377
-0.0217143
0.0264994
-0.0107042
0.0326617
0.003767
0.0419238
0.0205859
0.0537875
0.0386394
0.0674473
0.0571338
0.0822276
0.0744374
0.0976591
0.0886148
0.113388
0.0972547
0.12889
0.0977702
0.14318
0.0885183
0.155066
0.0690843
0.163828
0.0386549
0.169196
-0.00314432
0.170848
-0.0513261
0.168674
-0.095697
0.163446
-0.127657
0.156643
-0.145447
0.14964
-0.152356
0.142997
-0.152957
0.136828
-0.150807
0.131187
-0.147104
0.125155
-0.142271
0.11713
-0.138578
0.107939
-0.136639
0.10211
-0.126261
0.104167
-0.0947883
0.114336
-0.0382983
0.129313
0.0266523
0.144957
0.0863194
0.157981
0.135682
0.166478
0.186386
0.169623
0.240922
0.168388
0.277171
0.164497
0.266973
0.160042
0.18555
0.156348
0.0665038
0.15377
-0.0671931
0.153139
-0.155442
0.151935
-0.201526
0.147511
-0.210261
0.139998
-0.212226
0.135368
-0.230167
0.136919
-0.168469
0.142871
-0.109274
0.147569
0.0568454
0.147527
0.174388
0.145628
0.274109
0.14447
0.335827
0.146693
0.192651
0.149637
0.171516
0.149109
-0.0767353
-0.199645
0.098907
-0.0337115
0.0919402
-0.035113
0.0847696
-0.0354589
0.0774383
-0.0344991
0.0701158
-0.0323794
0.063186
-0.029041
0.0573759
-0.024265
0.0534735
-0.0178119
0.0521327
-0.00936339
0.0541276
0.00177208
0.0595182
0.0151953
0.0682231
0.0299345
0.0796735
0.0456834
0.0931523
0.0609585
0.107909
0.0738582
0.123177
0.0819871
0.138067
0.0828796
0.15148
0.0751059
0.162387
0.0581766
0.170193
0.0308489
0.17448
-0.00743116
0.174598
-0.0514443
0.170566
-0.0916644
0.163576
-0.120668
0.155409
-0.13728
0.147518
-0.144465
0.14044
-0.145879
0.134077
-0.144443
0.128412
-0.141439
0.12295
-0.136808
0.116119
-0.131747
0.107721
-0.128241
0.101292
-0.119833
0.101783
-0.0952794
0.110681
-0.0471964
0.125413
0.0119206
0.141694
0.0700388
0.156038
0.121337
0.166359
0.176065
0.171447
0.235834
0.171707
0.276911
0.168343
0.270337
0.163525
0.190368
0.158841
0.0711878
0.154904
-0.0632562
0.15305
-0.153588
0.151384
-0.19986
0.147144
-0.206021
0.139654
-0.204736
0.134735
-0.225249
0.13616
-0.169893
0.142373
-0.115488
0.147666
0.051553
0.147991
0.174063
0.146248
0.275852
0.145163
0.336913
0.147774
0.190039
0.151279
0.168011
0.150923
-0.0763788
-0.197879
0.125489
-0.0272627
0.119095
-0.0287185
0.112674
-0.029038
0.106312
-0.0281373
0.100095
-0.0261628
0.0940959
-0.0230414
0.0885603
-0.0187294
0.0839525
-0.0132041
0.0809193
-0.0063302
0.0799865
0.0027049
0.0818745
0.0133073
0.087026
0.024783
0.0953456
0.0373637
0.106336
0.0499681
0.119191
0.0610037
0.132909
0.0682686
0.146367
0.0694213
0.158419
0.0630545
0.168149
0.0484467
0.174911
0.0240865
0.178013
-0.0105334
0.176571
-0.0500023
0.170826
-0.0859194
0.162373
-0.112215
0.153185
-0.128091
0.144669
-0.135949
0.137324
-0.138535
0.130929
-0.138048
0.125308
-0.135818
0.120302
-0.131803
0.114661
-0.126105
0.107446
-0.121027
0.100952
-0.113338
0.0999863
-0.0943138
0.107253
-0.0544631
0.121182
-0.00200799
0.137688
0.0535327
0.153156
0.105869
0.165301
0.16392
0.17247
0.228665
0.17435
0.27503
0.171581
0.273106
0.166496
0.195453
0.160979
0.0767052
0.155822
-0.0580997
0.15276
-0.150526
0.150615
-0.197714
0.146632
-0.202038
0.139233
-0.197337
0.133976
-0.219992
0.135198
-0.171116
0.141671
-0.12196
0.147688
0.0455364
0.148506
0.173244
0.146971
0.277388
0.145968
0.337916
0.148969
0.187038
0.153057
0.163923
0.152874
-0.0761955
-0.19614
0.142328
-0.02148
0.136582
-0.022973
0.130852
-0.0233071
0.125445
-0.0227306
0.12053
-0.0212478
0.116067
-0.0185788
0.112058
-0.0147205
0.108617
-0.00976269
0.105961
-0.00367423
0.10443
0.00423537
0.104862
0.0128757
0.107604
0.0220407
0.113043
0.0319252
0.121086
0.0419246
0.131242
0.0508478
0.142602
0.0569087
0.154003
0.0580203
0.164291
0.0527661
0.172603
0.0401355
0.178147
0.0185425
0.179808
-0.0121945
0.176679
-0.0468737
0.169363
-0.0786032
0.15976
-0.102612
0.149887
-0.118218
0.140999
-0.127061
0.133527
-0.131063
0.127229
-0.13175
0.121754
-0.130343
0.117105
-0.127153
0.112521
-0.121522
0.106716
-0.115222
0.100696
-0.107318
0.0986343
-0.0922524
0.104111
-0.0599396
0.116688
-0.0145849
0.132966
0.0372538
0.149281
0.0895541
0.163142
0.150059
0.172403
0.219405
0.176027
0.271406
0.174015
0.275119
0.168821
0.200646
0.162686
0.0828401
0.156481
-0.0518949
0.15224
-0.146284
0.149585
-0.19506
0.145924
-0.198377
0.138717
-0.190129
0.1331
-0.214375
0.134023
-0.172039
0.140713
-0.12865
0.147585
0.038664
0.149042
0.171787
0.147789
0.278641
0.146884
0.33882
0.150272
0.183651
0.154959
0.159235
0.15495
-0.0761863
-0.194432
0.149442
-0.0166152
0.144416
-0.0179477
0.139409
-0.0182997
0.134926
-0.0182472
0.131104
-0.0174264
0.127961
-0.0154356
0.125521
-0.0122804
0.123833
-0.00807518
0.123096
-0.00293666
0.123093
0.00423846
0.123813
0.0121557
0.125848
0.0200058
0.129756
0.0280165
0.135669
0.0360122
0.143351
0.0431652
0.152172
0.048088
0.161201
0.0489915
0.169442
0.0445256
0.176028
0.0335486
0.179746
0.0148248
0.179827
-0.0122756
0.17505
-0.0420965
0.166476
-0.0700293
0.156136
-0.0922717
0.145938
-0.10802
0.136921
-0.118044
0.12942
-0.123563
0.123262
-0.125592
0.117989
-0.12507
0.113584
-0.122749
0.109793
-0.11773
0.105391
-0.110821
0.100266
-0.102193
0.0975473
-0.0895332
0.101217
-0.0636094
0.112091
-0.0254589
0.127593
0.0217522
0.144377
0.0727702
0.159888
0.134547
0.1714
0.207893
0.176891
0.265914
0.17563
0.27638
0.17047
0.205807
0.163951
0.089359
0.156942
-0.0448862
0.151563
-0.140906
0.148357
-0.191854
0.145032
-0.195052
0.138118
-0.183215
0.132159
-0.208416
0.132675
-0.172555
0.139465
-0.13544
0.1473
0.0308293
0.149563
0.169524
0.148694
0.279511
0.147909
0.339606
0.151682
0.179878
0.15697
0.153947
0.157138
-0.0763544
-0.192764
0.149673
-0.0131733
0.145503
-0.0137776
0.141491
-0.0142878
0.137842
-0.0145987
0.134685
-0.0142693
0.132258
-0.0130081
0.130703
-0.0107261
0.130011
-0.00738309
0.130031
-0.00295638
0.131275
0.00299438
0.133661
0.00976985
0.136885
0.0167814
0.140971
0.023931
0.14616
0.0308233
0.152476
0.036849
0.159562
0.0410018
0.166691
0.0418623
0.173033
0.0381841
0.177753
0.0288287
0.179977
0.0126004
0.177828
-0.0101265
0.171555
-0.0358236
0.162221
-0.060695
0.151779
-0.0818295
0.141774
-0.0980157
0.132965
-0.109235
0.125574
-0.116171
0.119549
-0.119567
0.11447
-0.119991
0.1102
-0.118479
0.106855
-0.114385
0.103627
-0.107592
0.0996142
-0.0981809
0.0966956
-0.0866146
0.0987835
-0.0656974
0.107605
-0.03428
0.121887
0.00746965
0.138459
0.0561982
0.154961
0.118046
0.168546
0.194308
0.176205
0.258255
0.176094
0.276491
0.171268
0.210633
0.164692
0.0959357
0.157088
-0.0372822
0.15074
-0.134558
0.147003
-0.188116
0.143993
-0.192043
0.137444
-0.176666
0.131192
-0.202165
0.13123
-0.172592
0.138003
-0.142213
0.146822
0.0220097
0.150034
0.166312
0.14966
0.279885
0.149037
0.340229
0.153195
0.175719
0.159073
0.148069
0.159435
-0.0767158
-0.191123
0.184473
-0.00904712
-0.188599
0.181037
-0.0103415
0.177611
-0.0108621
0.174036
-0.0110239
0.170398
-0.0106303
0.166843
-0.00945382
0.16349
-0.00737285
0.160439
-0.00433179
0.157807
-0.000325074
0.155988
0.00481352
0.155022
0.0107358
0.154861
0.0169431
0.155695
0.0230962
0.157779
0.0287399
0.161382
0.0332463
0.166662
0.0357218
0.173473
0.0350509
0.181405
0.0302517
0.189725
0.0205088
0.196941
0.00538497
0.201551
-0.0147366
0.202462
-0.0367346
0.199769
-0.0580018
0.19435
-0.0764105
0.187261
-0.0909274
0.179363
-0.101336
0.171243
-0.108052
0.163355
-0.111679
0.155749
-0.112385
0.148329
-0.111058
0.14136
-0.107416
0.134633
-0.100865
0.126995
-0.0905432
0.118748
-0.0783674
0.113094
-0.0600429
0.113031
-0.034217
0.118267
0.00223378
0.125731
0.0487334
0.132867
0.11091
0.138653
0.188522
0.143595
0.253314
0.149142
0.270944
0.156776
0.202999
0.163681
0.0890309
0.166428
-0.0400292
0.16471
-0.13284
0.16075
-0.184156
0.155255
-0.186548
0.147082
-0.168492
0.138451
-0.193535
0.134176
-0.168317
0.134398
-0.142436
0.136338
0.0200697
0.135606
0.167043
0.13378
0.281712
0.135332
0.338676
0.141176
0.169875
0.147866
0.141379
0.148065
-0.0769147
-0.187684
0.194669
-0.00605452
-0.197661
0.191643
-0.00731566
0.188682
-0.00790123
0.185644
-0.00798577
0.182596
-0.00758208
0.179684
-0.00654178
0.177049
-0.00473826
0.174833
-0.00211622
0.17314
0.00136791
0.172222
0.00573154
0.172206
0.0107526
0.17313
0.0160187
0.175069
0.0211571
0.178113
0.0256956
0.182346
0.0290136
0.187748
0.0303195
0.194078
0.0287215
0.20084
0.0234895
0.207281
0.0140677
0.212371
0.0002946
0.21475
-0.0171149
0.213998
-0.0359834
0.210294
-0.0542974
0.204321
-0.0704375
0.196937
-0.0835434
0.188911
-0.0933106
0.180743
-0.0998832
0.172812
-0.103748
0.165225
-0.104798
0.157799
-0.103633
0.15069
-0.100306
0.144088
-0.0942627
0.137062
-0.0835172
0.129182
-0.0704872
0.122889
-0.0537501
0.121524
-0.0328519
0.125818
-0.00206102
0.133151
0.041401
0.140903
0.103158
0.147771
0.181654
0.15401
0.247075
0.160915
0.264038
0.169553
0.194361
0.177095
0.0814894
0.179648
-0.0425822
0.177093
-0.130286
0.17205
-0.179114
0.16591
-0.180407
0.157235
-0.159818
0.147996
-0.184295
0.142953
-0.163274
0.142911
-0.142394
0.145252
0.0177288
0.144932
0.167363
0.143378
0.283266
0.145284
0.33677
0.151673
0.163486
0.159024
0.134029
0.158984
-0.076875
-0.183809
0.205071
-0.00364339
-0.207483
0.202407
-0.004651
0.199738