/*--------------------------------*- C++ -*----------------------------------*\
| =========                 |                                                 |
| \\      /  F ield         | OpenFOAM: The Open Source CFD Toolbox           |
|  \\    /   O peration     | Version:  2512                                  |
|   \\  /    A nd           | Website:  www.openfoam.com                      |
|    \\/     M anipulation  |                                                 |
\*---------------------------------------------------------------------------*/
FoamFile
{
    version     2.0;
    format      ascii;
    arch        "LSB;label=32;scalar=64";
    class       volScalarField;
    location    "49";
    object      p;
}
// * * * * * * * * * * * * * * * * * * * * * * * * * * * * * * * * * * * * * //

dimensions      [0 2 -2 0 0 0 0];

internalField   nonuniform List<scalar> 
13248
(
-0.274377
-0.273246
-0.271513
-0.269325
-0.266834
-0.264163
-0.261394
-0.258572
-0.255716
-0.252826
-0.24989
-0.246892
-0.243814
-0.240644
-0.237374
-0.23401
-0.230563
-0.227053
-0.223503
-0.219969
-0.216413
-0.213075
-0.209468
-0.206679
-0.28111
-0.279299
-0.276928
-0.274142
-0.271082
-0.267884
-0.264628
-0.261347
-0.25804
-0.254685
-0.251248
-0.247694
-0.243996
-0.240136
-0.236112
-0.231937
-0.227633
-0.223232
-0.21877
-0.21428
-0.209784
-0.205321
-0.200785
-0.196718
-0.289153
-0.286498
-0.283374
-0.279909
-0.276217
-0.272435
-0.26863
-0.264808
-0.260936
-0.256962
-0.25283
-0.248498
-0.24394
-0.239157
-0.23417
-0.229016
-0.223747
-0.218418
-0.213079
-0.207782
-0.202534
-0.197393
-0.192272
-0.187526
-0.298635
-0.294972
-0.290987
-0.286773
-0.282387
-0.277947
-0.273492
-0.268981
-0.264343
-0.259501
-0.254394
-0.248996
-0.243314
-0.237389
-0.231286
-0.225082
-0.218855
-0.212678
-0.206608
-0.200683
-0.194911
-0.189332
-0.183852
-0.178876
-0.309652
-0.304824
-0.299887
-0.294861
-0.289708
-0.284501
-0.279228
-0.273796
-0.268102
-0.262069
-0.25567
-0.248929
-0.241916
-0.234729
-0.227478
-0.220267
-0.213184
-0.206295
-0.199637
-0.19323
-0.187071
-0.181169
-0.175464
-0.170244
-0.32223
-0.316106
-0.310147
-0.304252
-0.298232
-0.292085
-0.285734
-0.279047
-0.271924
-0.264339
-0.256341
-0.248041
-0.239582
-0.231113
-0.222766
-0.214645
-0.20682
-0.19933
-0.192188
-0.18539
-0.178919
-0.172766
-0.166878
-0.16147
-0.336293
-0.328782
-0.321754
-0.31492
-0.307875
-0.300518
-0.29272
-0.284354
-0.275391
-0.265912
-0.256086
-0.246116
-0.236201
-0.226512
-0.217168
-0.208246
-0.199782
-0.191781
-0.184231
-0.177107
-0.170381
-0.164022
-0.157999
-0.152428
-0.351608
-0.342673
-0.334548
-0.326667
-0.318353
-0.309404
-0.299695
-0.289189
-0.278004
-0.266381
-0.254612
-0.242969
-0.231672
-0.220869
-0.210641
-0.201021
-0.192004
-0.183566
-0.175668
-0.168272
-0.161336
-0.15482
-0.148701
-0.143003
-0.367752
-0.357424
-0.348174
-0.339074
-0.329143
-0.318127
-0.306005
-0.292938
-0.279259
-0.265378
-0.251679
-0.238458
-0.225906
-0.214117
-0.203121
-0.1929
-0.183411
-0.174603
-0.166418
-0.158804
-0.151709
-0.145088
-0.138912
-0.133131
-0.38408
-0.372451
-0.362032
-0.351457
-0.339468
-0.325873
-0.310893
-0.294977
-0.278696
-0.262595
-0.247094
-0.232455
-0.218802
-0.206166
-0.194515
-0.183786
-0.173906
-0.1648
-0.156394
-0.148622
-0.141423
-0.134749
-0.128552
-0.122733
-0.399729
-0.386932
-0.375251
-0.362859
-0.348327
-0.331686
-0.313533
-0.294654
-0.275828
-0.257667
-0.24056
-0.224692
-0.210108
-0.196764
-0.184576
-0.173442
-0.163263
-0.153943
-0.145394
-0.137539
-0.130309
-0.123647
-0.117477
-0.11169
-0.413687
-0.399906
-0.386847
-0.372249
-0.354684
-0.334596
-0.313068
-0.291229
-0.27
-0.249988
-0.231496
-0.214607
-0.199274
-0.185384
-0.172802
-0.161394
-0.151037
-0.141616
-0.133033
-0.125198
-0.118037
-0.111482
-0.105429
-0.0998088
-0.253765
-0.255626
-0.256802
-0.257572
-0.258189
-0.258713
-0.259169
-0.259574
-0.259932
-0.260238
-0.260482
-0.260657
-0.260746
-0.260737
-0.26062
-0.260386
-0.260029
-0.259549
-0.258953
-0.258256
-0.257481
-0.256663
-0.255871
-0.25525
-0.252071
-0.253867
-0.254984
-0.255687
-0.256214
-0.256622
-0.256934
-0.257166
-0.257322
-0.257399
-0.25739
-0.257286
-0.257078
-0.25676
-0.256329
-0.255783
-0.25513
-0.25438
-0.253556
-0.252691
-0.251828
-0.25101
-0.250332
-0.250109
-0.251136
-0.252793
-0.253803
-0.254407
-0.254819
-0.255092
-0.255245
-0.255293
-0.255242
-0.255089
-0.254828
-0.254454
-0.253962
-0.25335
-0.252621
-0.251782
-0.250846
-0.249835
-0.248778
-0.247722
-0.246722
-0.245831
-0.245136
-0.245113
-0.250898
-0.252363
-0.25323
-0.253705
-0.253977
-0.254093
-0.25407
-0.253922
-0.253655
-0.253268
-0.252757
-0.252119
-0.251353
-0.250461
-0.24945
-0.248335
-0.247134
-0.245874
-0.24459
-0.24333
-0.242157
-0.241151
-0.240356
-0.240008
-0.251273
-0.252518
-0.253214
-0.253533
-0.25364
-0.253574
-0.253354
-0.252993
-0.252498
-0.251869
-0.251106
-0.250207
-0.249174
-0.248014
-0.246739
-0.245365
-0.243919
-0.242431
-0.240939
-0.239494
-0.238164
-0.236995
-0.235964
-0.235665
-0.252179
-0.253196
-0.253702
-0.25384
-0.253753
-0.253478
-0.253035
-0.252439
-0.251699
-0.250818
-0.249796
-0.248636
-0.247344
-0.245928
-0.244405
-0.242796
-0.24113
-0.239443
-0.237776
-0.236176
-0.234708
-0.233416
-0.232223
-0.231357
-0.253559
-0.254354
-0.254655
-0.254585
-0.254273
-0.253758
-0.253063
-0.252209
-0.251205
-0.250058
-0.248774
-0.247356
-0.245813
-0.244157
-0.242409
-0.240593
-0.238742
-0.236895
-0.235094
-0.233383
-0.231815
-0.23041
-0.229267
-0.227413
-0.255398
-0.255979
-0.256058
-0.255751
-0.25518
-0.254391
-0.253416
-0.252279
-0.250995
-0.249575
-0.248027
-0.246359
-0.244581
-0.242711
-0.240769
-0.238784
-0.23679
-0.234828
-0.232939
-0.231163
-0.22956
-0.227985
-0.227209
-0.224256
-0.257734
-0.258097
-0.25793
-0.25735
-0.256483
-0.255387
-0.254104
-0.252664
-0.251089
-0.249393
-0.247588
-0.245684
-0.243694
-0.241637
-0.239534
-0.237415
-0.235315
-0.233272
-0.231327
-0.229498
-0.227929
-0.226124
-0.225846
-0.222281
-0.260657
-0.260774
-0.260321
-0.259426
-0.258222
-0.256785
-0.255168
-0.253409
-0.251535
-0.249564
-0.247509
-0.245381
-0.243194
-0.240963
-0.238709
-0.236459
-0.234244
-0.232099
-0.230069
-0.22815
-0.226584
-0.224658
-0.224605
-0.221286
-0.2643
-0.26411
-0.263311
-0.262043
-0.260455
-0.258639
-0.256658
-0.254559
-0.252373
-0.250117
-0.247803
-0.24544
-0.243037
-0.240603
-0.238153
-0.235706
-0.233287
-0.230926
-0.228666
-0.226523
-0.224709
-0.222799
-0.222483
-0.22009
-0.268821
-0.268226
-0.266999
-0.265294
-0.263264
-0.261022
-0.258643
-0.256178
-0.253656
-0.25109
-0.248488
-0.245846
-0.243165
-0.240444
-0.237686
-0.2349
-0.232101
-0.229313
-0.22656
-0.223899
-0.22138
-0.219105
-0.217697
-0.21636
-0.254799
-0.254312
-0.254098
-0.254264
-0.254921
-0.256179
-0.258126
-0.260801
-0.264172
-0.268116
-0.272329
-0.276336
-0.27953
-0.281687
-0.278966
-0.273466
-0.263918
-0.250261
-0.232913
-0.213522
-0.194404
-0.17822
-0.167581
-0.1642
-0.168627
-0.177869
-0.187307
-0.190631
-0.184871
-0.169146
-0.146181
-0.121283
-0.0989251
-0.0816536
-0.0710669
-0.068913
-0.074282
-0.0810801
-0.081536
-0.0732177
-0.058486
-0.0415977
-0.0261928
-0.0137816
-0.00466225
0.00114323
0.0035518
0.0035467
0.00272285
0.00258339
0.00328942
0.00465078
0.00580025
0.00655966
0.00650527
0.00578328
0.00456095
0.00326049
0.00176368
0.00082947
-0.250713
-0.251436
-0.252733
-0.254759
-0.257611
-0.26138
-0.266121
-0.271813
-0.278301
-0.285416
-0.292665
-0.299415
-0.304806
-0.30777
-0.30614
-0.299878
-0.288039
-0.271196
-0.249236
-0.224183
-0.198588
-0.175124
-0.156903
-0.145641
-0.143484
-0.147599
-0.15537
-0.159506
-0.156902
-0.147166
-0.13091
-0.112568
-0.0959841
-0.0837755
-0.0782334
-0.0812127
-0.0904944
-0.0984398
-0.0966199
-0.0848501
-0.0661519
-0.0459574
-0.0281006
-0.0139902
-0.00369369
0.00310009
0.00641153
0.00695038
0.00604738
0.00528445
0.00513529
0.00572165
0.00629948
0.00662033
0.00628895
0.0053478
0.00406051
0.0028138
0.00142411
0.000697029
-0.246988
-0.248725
-0.25128
-0.254898
-0.259629
-0.26554
-0.272656
-0.280881
-0.289891
-0.299661
-0.309401
-0.318369
-0.325479
-0.329156
-0.328004
-0.32105
-0.307424
-0.287243
-0.261092
-0.230995
-0.199624
-0.169878
-0.144734
-0.125854
-0.117884
-0.115639
-0.121706
-0.125872
-0.126014
-0.122555
-0.112929
-0.101175
-0.0905316
-0.0838823
-0.0841314
-0.0927462
-0.106001
-0.114882
-0.110401
-0.095504
-0.0731129
-0.0499571
-0.0299745
-0.0144058
-0.00309967
0.00453459
0.00868512
0.00987805
0.00913706
0.00798145
0.00709947
0.00691821
0.00687273
0.00669183
0.00603689
0.00488045
0.00353659
0.00237457
0.00110816
0.000574309
-0.243632
-0.246062
-0.249524
-0.254354
-0.260524
-0.268058
-0.276946
-0.287091
-0.298236
-0.309973
-0.321618
-0.332337
-0.340988
-0.345047
-0.344037
-0.336436
-0.321229
-0.298351
-0.268671
-0.234236
-0.19788
-0.162837
-0.132027
-0.107768
-0.092527
-0.0837777
-0.0879343
-0.0910476
-0.096213
-0.0953452
-0.0918198
-0.0865868
-0.0821318
-0.0815874
-0.0882971
-0.102932
-0.120175
-0.129954
-0.124886
-0.105136
-0.0793352
-0.0536057
-0.0318378
-0.0150576
-0.00290444
0.00543378
0.0103258
0.0122133
0.0118317
0.0105226
0.00908503
0.00818975
0.00749813
0.00677241
0.0057603
0.00440653
0.00301974
0.00196636
0.000833419
0.000467661
-0.240159
-0.243422
-0.24746
-0.253062
-0.260226
-0.268895
-0.279011
-0.290445
-0.302912
-0.315936
-0.328808
-0.340715
-0.351346
-0.354863
-0.353882
-0.345862
-0.329575
-0.304813
-0.272469
-0.234696
-0.19458
-0.155432
-0.120157
-0.09107
-0.0699513
-0.0569912
-0.0545771
-0.0564335
-0.0618962
-0.0656435
-0.0676912
-0.0687498
-0.0706973
-0.0767598
-0.0903925
-0.111249
-0.132396
-0.142925
-0.135947
-0.11342
-0.084768
-0.0569149
-0.0337046
-0.0159463
-0.00309713
0.00582395
0.0113438
0.0138992
0.0140008
0.0127481
0.0109599
0.00944692
0.00812689
0.00684758
0.00546863
0.00394923
0.00253791
0.00160672
0.000609801
0.000379638
-0.237166
-0.241123
-0.245282
-0.251155
-0.25884
-0.268132
-0.27889
-0.290975
-0.304097
-0.317736
-0.331065
-0.342882
-0.351215
-0.357987
-0.357645
-0.349554
-0.33275
-0.306977
-0.273151
-0.233458
-0.191008
-0.149112
-0.110615
-0.0777022
-0.0519469
-0.034356
-0.0262219
-0.0249395
-0.0291323
-0.0353193
-0.0416822
-0.0483503
-0.056644
-0.0696224
-0.0903
-0.117273
-0.14212
-0.153365
-0.144917
-0.120223
-0.0893699
-0.0598908
-0.0355764
-0.0170532
-0.00364172
0.00575782
0.0117947
0.0149457
0.0155749
0.014531
0.0125862
0.0105833
0.00869665
0.0068971
0.00517171
0.00352859
0.00211331
0.00130626
0.000440182
0.000309575
-0.23471
-0.239369
-0.243243
-0.248867
-0.256611
-0.266048
-0.276905
-0.289055
-0.302233
-0.315912
-0.329256
-0.341055
-0.350223
-0.3563
-0.35599
-0.348024
-0.331296
-0.305484
-0.271448
-0.231303
-0.188048
-0.144861
-0.104449
-0.0688533
-0.0395342
-0.0176751
-0.00437957
0.00108404
-0.000438654
-0.00666438
-0.0156951
-0.0268856
-0.0410129
-0.0606955
-0.0881122
-0.120726
-0.148964
-0.160953
-0.151602
-0.125444
-0.093106
-0.0625237
-0.0374358
-0.0183415
-0.00448369
0.00530548
0.0117617
0.0154153
0.0165527
0.0158052
0.0138575
0.0115078
0.00915271
0.00690582
0.00488261
0.00316153
0.00176107
0.0010693
0.000321945
0.000254919
-0.232738
-0.238057
-0.241386
-0.246358
-0.253753
-0.262884
-0.273339
-0.285034
-0.297739
-0.31094
-0.323897
-0.335709
-0.344718
-0.350096
-0.349698
-0.342043
-0.325913
-0.300931
-0.267861
-0.228648
-0.186055
-0.142999
-0.101971
-0.0648545
-0.0330231
-0.00766201
0.0101058
0.020021
0.0221711
0.0177463
0.00790495
-0.00631878
-0.0251889
-0.0506837
-0.0840245
-0.121503
-0.152713
-0.165456
-0.155895
-0.129033
-0.0959412
-0.0647808
-0.03924
-0.0197565
-0.00555521
0.00454808
0.0113416
0.0154046
0.0169921
0.016572
0.0147273
0.0121703
0.00946607
0.00687182
0.00461817
0.00286115
0.00148875
0.000895525
0.000249003
0.000212543
-0.231086
-0.236576
-0.239253
-0.243494
-0.250255
-0.258662
-0.268304
-0.279149
-0.290975
-0.30325
-0.315344
-0.326785
-0.335335
-0.339944
-0.339467
-0.332323
-0.317254
-0.293848
-0.262726
-0.225584
-0.184862
-0.143142
-0.102651
-0.0651192
-0.0318495
-0.00397387
0.0173705
0.0313926
0.0375454
0.0360503
0.0271452
0.0115832
-0.0104882
-0.0403381
-0.0783174
-0.11971
-0.153352
-0.166776
-0.157783
-0.131
-0.0978941
-0.0666769
-0.0409894
-0.0212795
-0.00681762
0.00354636
0.0106186
0.0150156
0.0169861
0.0168875
0.0152106
0.0125694
0.00963939
0.00680738
0.00439603
0.00263481
0.00129784
0.000777155
0.000213271
0.000179648
-0.229178
-0.233907
-0.23607
-0.239859
-0.245819
-0.253172
-0.261716
-0.271424
-0.282036
-0.293105
-0.304168
-0.314226
-0.322324
-0.32656
-0.326233
-0.319839
-0.306247
-0.285017
-0.256584
-0.222326
-0.184296
-0.144725
-0.105601
-0.0685392
-0.0347777
-0.00539238
0.0185145
0.035898
0.0457655
0.0476714
0.0409924
0.0256678
0.00209649
-0.0303292
-0.0712916
-0.115458
-0.151071
-0.165076
-0.15741
-0.131516
-0.0991732
-0.0684114
-0.0428408
-0.0230152
-0.00832672
0.00228893
0.00962224
0.0143136
0.0166187
0.0168303
0.0153652
0.0127422
0.00970064
0.00673466
0.00423173
0.00248379
0.00122022
0.000708727
0.000206283
0.000154318
-0.225937
-0.229322
-0.231427
-0.234972
-0.240035
-0.246306
-0.253777
-0.26232
-0.271692
-0.281524
-0.291335
-0.300326
-0.306958
-0.311148
-0.311221
-0.305919
-0.29426
-0.275773
-0.25068
-0.219968
-0.185237
-0.148361
-0.111164
-0.0750979
-0.041332
-0.0109981
0.0147686
0.0348079
0.0482088
0.0530835
0.0493863
0.0356552
0.0121765
-0.0211784
-0.0636484
-0.109402
-0.146251
-0.16245
-0.154843
-0.1306
-0.0997934
-0.0699655
-0.04475
-0.0249145
-0.010039
0.000815404
0.00839583
0.0133523
0.0159548
0.0164585
0.0152506
0.0127347
0.00968325
0.00667395
0.00413475
0.0024039
0.00117497
0.000680709
0.000220047
0.000135665
-0.220707
-0.223402
-0.225447
-0.228235
-0.232136
-0.237227
-0.243409
-0.250484
-0.258269
-0.266488
-0.274817
-0.282362
-0.288896
-0.292433
-0.292736
-0.288621
-0.279117
-0.263701
-0.242358
-0.215677
-0.184797
-0.151204
-0.116492
-0.0821252
-0.049364
-0.0193281
0.00699558
0.0285493
0.044631
0.0533269
0.0522563
0.0410629
0.0193272
-0.0129554
-0.054864
-0.100551
-0.137941
-0.154776
-0.149138
-0.127129
-0.0982811
-0.0698104
-0.0453882
-0.025945
-0.0112026
-0.000342191
0.00731499
0.0123967
0.0151823
0.0159018
0.0149143
0.0125685
0.00958702
0.00660765
0.00408039
0.00237284
0.00117264
0.000679016
0.000245117
0.000122882
-0.213274
-0.218126
-0.220217
-0.222409
-0.225809
-0.23048
-0.236138
-0.242544
-0.249515
-0.256851
-0.264271
-0.271121
-0.276088
-0.278857
-0.278555
-0.27408
-0.264618
-0.249739
-0.229473
-0.204372
-0.175461
-0.144058
-0.111562
-0.0792624
-0.0482832
-0.0196066
0.00588136
0.0272216
0.0436153
0.0527906
0.053399
0.0438184
0.0233273
-0.00816522
-0.0499536
-0.0960535
-0.13347
-0.150826
-0.143924
-0.122143
-0.0943973
-0.0672934
-0.0440674
-0.02549
-0.0112879
-0.000729202
0.00678317
0.011819
0.0146449
0.0154645
0.0146147
0.0123427
0.00942499
0.00649539
0.00400578
0.00233466
0.00117453
0.000682466
0.000269914
0.000114054
-0.204737
-0.211691
-0.214255
-0.215868
-0.218666
-0.222891
-0.228073
-0.23382
-0.239911
-0.246164
-0.252211
-0.2574
-0.261099
-0.262661
-0.261288
-0.256161
-0.24665
-0.232437
-0.213581
-0.190555
-0.164196
-0.135585
-0.10588
-0.0761877
-0.0475137
-0.0207755
0.0031836
0.023468
0.0387712
0.0483299
0.0495653
0.0408565
0.0215422
-0.00847698
-0.0484283
-0.09221
-0.127149
-0.141949
-0.135103
-0.114658
-0.0890573
-0.0640743
-0.0425024
-0.0250437
-0.0115176
-0.00133524
0.00599305
0.0109612
0.0138097
0.0147319
0.0140157
0.0119357
0.00916887
0.00636399
0.00396096
0.00233736
0.00121167
0.000702665
0.000302288
0.000107743
-0.195432
-0.203897
-0.206977
-0.20831
-0.210599
-0.214342
-0.219003
-0.224044
-0.22918
-0.234206
-0.238824
-0.242654
-0.24518
-0.245652
-0.24347
-0.238044
-0.228869
-0.21568
-0.198512
-0.177719
-0.153949
-0.128069
-0.101054
-0.0738804
-0.0474754
-0.0227115
-0.000405176
0.0185643
0.0330194
0.0419424
0.0431072
0.0348628
0.016626
-0.0115033
-0.0483296
-0.0878115
-0.118691
-0.131051
-0.124695
-0.106353
-0.0833753
-0.0607211
-0.0408757
-0.0245685
-0.0117489
-0.0019758
0.00513703
0.0100071
0.01285
0.0138655
0.0132936
0.0114202
0.00884866
0.00621313
0.00392701
0.00235654
0.00126404
0.000730182
0.000337178
0.000102955
-0.185877
-0.19484
-0.198375
-0.199719
-0.201662
-0.204923
-0.20903
-0.213379
-0.217632
-0.221606
-0.225118
-0.227865
-0.22935
-0.228986
-0.226298
-0.220823
-0.212144
-0.200028
-0.184483
-0.165776
-0.144417
-0.121114
-0.0966926
-0.0720031
-0.0478855
-0.0251541
-0.00458779
0.0129553
0.0263626
0.0345405
0.0356437
0.0280983
0.0113808
-0.0141766
-0.0469962
-0.0815321
-0.108484
-0.118887
-0.113472
-0.0975851
-0.077408
-0.0571823
-0.0391358
-0.0240382
-0.0119715
-0.00264239
0.00423269
0.00899283
0.011826
0.0129282
0.0125023
0.0108448
0.00849161
0.00604636
0.0038919
0.00237818
0.00131944
0.000759796
0.00037101
0.000100238
-0.17573
-0.184868
-0.188853
-0.190374
-0.192114
-0.194948
-0.198529
-0.202266
-0.20579
-0.208934
-0.211551
-0.213376
-0.21403
-0.213064
-0.210072
-0.20467
-0.196526
-0.185443
-0.171419
-0.154656
-0.135556
-0.114692
-0.0927517
-0.0704713
-0.0486042
-0.0279064
-0.0091217
0.00692612
0.0192101
0.0266784
0.0278196
0.0212459
0.00650876
-0.0159027
-0.0442878
-0.0738482
-0.0973546
-0.106058
-0.1019
-0.0886457
-0.0713395
-0.0535646
-0.0373333
-0.0234693
-0.0121858
-0.00332965
0.00328582
0.00792426
0.0107417
0.0119216
0.011646
0.0102134
0.00809345
0.00585236
0.0038425
0.0023924
0.00137
0.000788069
0.000401592
9.95922e-05
-0.165195
-0.174456
-0.178793
-0.180509
-0.182135
-0.184621
-0.187744
-0.19096
-0.193893
-0.196368
-0.198252
-0.199348
-0.199382
-0.197995
-0.194837
-0.189595
-0.182011
-0.171926
-0.15933
-0.144374
-0.127372
-0.108784
-0.089182
-0.0692001
-0.0495103
-0.0308079
-0.0137906
0.000763472
0.0119298
0.0187493
0.0200004
0.014539
0.00199781
-0.0170681
-0.0409859
-0.065628
-0.0839664
-0.0932637
-0.0905667
-0.0799124
-0.0653729
-0.0499597
-0.0355024
-0.0228694
-0.0123872
-0.00402767
0.00230727
0.00681012
0.0096032
0.0108554
0.0107327
0.00952714
0.00764884
0.00562162
0.0037677
0.00238997
0.00140877
0.000811371
0.000426765
0.000100529
-0.154786
-0.163891
-0.168405
-0.170288
-0.171856
-0.174074
-0.176813
-0.179594
-0.182044
-0.183984
-0.185302
-0.185859
-0.185452
-0.183788
-0.18058
-0.175576
-0.168575
-0.15945
-0.148186
-0.134894
-0.119822
-0.103339
-0.0859198
-0.0681087
-0.0504995
-0.0337209
-0.0184171
-0.00530763
0.00478747
0.0110232
0.0124229
0.00808778
-0.00225882
-0.0180456
-0.0377247
-0.0579337
-0.0734855
-0.0814519
-0.0799961
-0.0716819
-0.0596612
-0.0464422
-0.0336754
-0.022248
-0.0125728
-0.00472727
0.00130846
0.00566214
0.0084231
0.00974328
0.00977212
0.00879089
0.00715742
0.00534914
0.00365919
0.00236376
0.00142989
0.000826365
0.000444754
0.000102386
-0.144558
-0.153281
-0.157849
-0.159868
-0.161413
-0.163426
-0.165851
-0.16827
-0.170334
-0.171865
-0.172769
-0.172937
-0.172242
-0.170424
-0.167264
-0.162561
-0.156155
-0.147945
-0.137916
-0.126152
-0.112847
-0.0983016
-0.082907
-0.0671277
-0.0514819
-0.0365316
-0.0228625
-0.0111213
-0.00202846
0.00368658
0.00525076
0.00198469
-0.00629599
-0.0190428
-0.0349016
-0.051231
-0.0641613
-0.0710214
-0.0704942
-0.064137
-0.0543117
-0.0430717
-0.0318814
-0.0216145
-0.0127406
-0.00541989
0.000301215
0.00449333
0.00721437
0.00859672
0.0087736
0.00801072
0.00662086
0.00503284
0.00351204
0.00230886
0.00142922
0.000830392
0.000454322
0.000104393
-0.134473
-0.14277
-0.147313
-0.149421
-0.15095
-0.152801
-0.154969
-0.157094
-0.158856
-0.160088
-0.16071
-0.160653
-0.159741
-0.157866
-0.154835
-0.150478
-0.144668
-0.137327
-0.128442
-0.118078
-0.106389
-0.0936184
-0.0800892
-0.0661942
-0.0523815
-0.0391469
-0.0270146
-0.0165512
-0.00838271
-0.0031294
-0.00139916
-0.00368982
-0.0101118
-0.0201718
-0.0327264
-0.0457246
-0.0562805
-0.0621114
-0.062177
-0.0573658
-0.049389
-0.0398915
-0.0301447
-0.0209785
-0.0128894
-0.00609762
-0.000702842
0.00331643
0.00598918
0.00742683
0.00774659
0.00719394
0.00604151
0.00466551
0.00332391
0.00222241
0.00140418
0.000821406
0.000454653
0.000105701
-0.124707
-0.132521
-0.136948
-0.139087
-0.140595
-0.142311
-0.144267
-0.146155
-0.147684
-0.148695
-0.149119
-0.14889
-0.147908
-0.146069
-0.14323
-0.139252
-0.134033
-0.127515
-0.119688
-0.110605
-0.100389
-0.0892364
-0.0774142
-0.0652523
-0.0531347
-0.0414911
-0.0307836
-0.0215025
-0.0141812
-0.0093367
-0.00745067
-0.00888232
-0.0136892
-0.0214472
-0.0312085
-0.0413678
-0.0498053
-0.0546531
-0.0550304
-0.051386
-0.0449241
-0.0369318
-0.0284863
-0.0203495
-0.013019
-0.00675354
-0.0016928
0.00214385
0.00475975
0.00624476
0.00670022
0.0063476
0.00542531
0.0042633
0.00309506
0.00210325
0.00135346
0.000797863
0.00044524
0.000105479
-0.115373
-0.122614
-0.126846
-0.128973
-0.130451
-0.132052
-0.133832
-0.135527
-0.136876
-0.137731
-0.138029
-0.13772
-0.13674
-0.135002
-0.132396
-0.128813
-0.124173
-0.118431
-0.111581
-0.103667
-0.0947886
-0.0851043
-0.0748342
-0.0642538
-0.0536884
-0.0435052
-0.0341041
-0.0259076
-0.0193583
-0.0148804
-0.0128598
-0.0135564
-0.0169891
-0.0228028
-0.0302253
-0.03799
-0.0445844
-0.0484995
-0.0489707
-0.046172
-0.040925
-0.0342122
-0.0269233
-0.0197368
-0.0131302
-0.0073818
-0.00265855
0.000987626
0.00353816
0.00506151
0.00564342
0.00547912
0.00477701
0.00382242
0.00282699
0.00195139
0.00127659
0.000758652
0.0004258
0.000102988
-0.106447
-0.113094
-0.11709
-0.11917
-0.120608
-0.122107
-0.123737
-0.125275
-0.126486
-0.127235
-0.127466
-0.127144
-0.12622
-0.124624
-0.122279
-0.119099
-0.115019
-0.110005
-0.104054
-0.0972028
-0.0895333
-0.0811746
-0.0723067
-0.063158
-0.0540006
-0.0451452
-0.036934
-0.029722
-0.0238711
-0.0197275
-0.0176028
-0.0176836
-0.0199645
-0.0241564
-0.0296381
-0.0354306
-0.0404374
-0.0434759
-0.0438851
-0.0416753
-0.0373849
-0.0317439
-0.0254697
-0.0191493
-0.0132247
-0.00797768
-0.00359101
-0.000140952
0.00233599
0.00388781
0.00458513
0.00459615
0.00410227
0.00334722
0.00252228
0.00176768
0.00117379
0.000703052
0.000396218
9.76359e-05
-0.0979507
-0.10402
-0.107756
-0.109759
-0.111144
-0.112547
-0.114047
-0.115453
-0.116559
-0.11724
-0.117448
-0.117155
-0.116325
-0.114901
-0.112831
-0.11005
-0.106506
-0.10217
-0.0970424
-0.0911545
-0.0845735
-0.0774048
-0.0697952
-0.0619324
-0.0540423
-0.0463829
-0.0392429
-0.0329205
-0.027701
-0.023868
-0.0216722
-0.0212501
-0.0225824
-0.0254379
-0.0293236
-0.0335444
-0.0371794
-0.0394077
-0.0396542
-0.0378362
-0.0342862
-0.0295313
-0.0241361
-0.018595
-0.0133047
-0.00853771
-0.00448236
-0.00123168
0.00116401
0.00273393
0.00353421
0.00370639
0.00340727
0.0028426
0.00218416
0.00155366
0.00104578
0.000630715
0.000356514
8.89962e-05
-0.0899424
-0.0954377
-0.0988899
-0.100792
-0.102115
-0.103427
-0.104812
-0.106107
-0.107131
-0.107771
-0.107984
-0.107747
-0.107033
-0.105802
-0.104015
-0.101622
-0.0985803
-0.0948697
-0.0904914
-0.0854716
-0.0798653
-0.0737586
-0.0672706
-0.0605541
-0.0537952
-0.0472048
-0.0410203
-0.0354919
-0.0308416
-0.0273151
-0.0250822
-0.0242598
-0.0248254
-0.0265931
-0.0291764
-0.0320991
-0.0346242
-0.0361321
-0.0361628
-0.0345904
-0.0316041
-0.0275726
-0.0229295
-0.0180809
-0.013373
-0.0090597
-0.0053263
-0.00227568
3.19941e-05
0.00160944
0.00249922
0.00281751
0.00269848
0.00231379
0.00181641
0.0013114
0.000893731
0.000541663
0.000306828
7.68153e-05
-0.0824276
-0.0873604
-0.0905199
-0.0923074
-0.0935621
-0.0947885
-0.0960694
-0.097269
-0.0982268
-0.0988438
-0.0990793
-0.0989167
-0.0983365
-0.097307
-0.0957915
-0.0937651
-0.0911923
-0.0880536
-0.084352
-0.0801097
-0.0753713
-0.0702064
-0.0647115
-0.05901
-0.0532522
-0.0476108
-0.0422757
-0.0374498
-0.0333317
-0.0300945
-0.0278623
-0.0267337
-0.0266906
-0.0275877
-0.0291855
-0.0310152
-0.0326212
-0.0335054
-0.0333021
-0.0318716
-0.0293078
-0.0258601
-0.0218532
-0.0176127
-0.0134328
-0.00954266
-0.00611807
-0.00326564
-0.00105154
0.000523042
0.00148829
0.00193701
0.00198254
0.00176635
0.00142331
0.00104352
0.000719206
0.000436303
0.000247444
6.10011e-05
-0.0753901
-0.0797939
-0.0826658
-0.0843314
-0.0855138
-0.0866582
-0.0878449
-0.0889598
-0.0898633
-0.0904675
-0.0907361
-0.0906556
-0.090212
-0.0893816
-0.0881315
-0.0864406
-0.0842939
-0.0816758
-0.0785823
-0.0750316
-0.0710609
-0.0667263
-0.0621048
-0.0572955
-0.0524185
-0.047612
-0.043029
-0.0388305
-0.0351784
-0.0322049
-0.0300341
-0.0287008
-0.0281826
-0.0284277
-0.0291894
-0.0301836
-0.0310455
-0.0314038
-0.0309718
-0.0296134
-0.0273626
-0.0243814
-0.0209068
-0.0171941
-0.013487
-0.00998671
-0.00685455
-0.00419589
-0.00207951
-0.000517636
0.000508963
0.00107211
0.00126614
0.00120607
0.00100949
0.000753109
0.000524183
0.000315432
0.000178803
4.16064e-05
-0.0688315
-0.0727436
-0.0753374
-0.0768777
-0.0779857
-0.0790517
-0.0801517
-0.0811906
-0.0820474
-0.0826446
-0.0829498
-0.082952
-0.0826407
-0.0819977
-0.0809991
-0.0796215
-0.0778577
-0.0757
-0.0731466
-0.0702075
-0.0669113
-0.0633033
-0.0594451
-0.055415
-0.0513078
-0.0472332
-0.0433128
-0.0396726
-0.0364351
-0.0337083
-0.0315756
-0.0300973
-0.0292892
-0.0290291
-0.0291778
-0.0295213
-0.0297936
-0.029721
-0.0290811
-0.0277513
-0.0257307
-0.0231196
-0.0200866
-0.0168269
-0.0135385
-0.0103928
-0.0075341
-0.00506248
-0.00304634
-0.00150616
-0.000432013
0.000229616
0.000555891
0.000638881
0.000579931
0.0004437
0.000311035
0.00018024
0.000101521
1.88056e-05
-0.0627485
-0.066204
-0.0685322
-0.0699478
-0.0709816
-0.0719732
-0.0729933
-0.0739627
-0.0747775
-0.0753698
-0.0757109
-0.0757915
-0.0756038
-0.075134
-0.0743641
-0.0732759
-0.0718537
-0.070101
-0.0680185
-0.065614
-0.0629063
-0.0599303
-0.0567347
-0.0533808
-0.049943
-0.0465069
-0.0431673
-0.040022
-0.0371672
-0.0346897
-0.0326585
-0.0311152
-0.0300601
-0.0294295
-0.0291168
-0.0289649
-0.0287816
-0.028366
-0.0275482
-0.0262236
-0.024373
-0.0220546
-0.0193852
-0.0165111
-0.0135892
-0.0107625
-0.00815641
-0.00586307
-0.00394803
-0.00243739
-0.00132876
-0.000584222
-0.000141839
7.0749e-05
0.000139805
0.000119196
8.2501e-05
3.22995e-05
1.64144e-05
-7.12601e-06
-0.0571233
-0.0601607
-0.0622405
-0.0635355
-0.064497
-0.0654185
-0.0663645
-0.0672697
-0.0680454
-0.0686325
-0.0690059
-0.0691575
-0.0690813
-0.0687669
-0.0681999
-0.0673657
-0.0662528
-0.0648543
-0.0631791
-0.0612353
-0.0590364
-0.0566063
-0.0539825
-0.0512123
-0.0483533
-0.0454715
-0.0426398
-0.039934
-0.0374289
-0.0351923
-0.033278
-0.0317179
-0.0305136
-0.0296267
-0.0289813
-0.028465
-0.0279405
-0.0272617
-0.026301
-0.0249726
-0.02325
-0.0211637
-0.0187928
-0.0162445
-0.0136405
-0.0110976
-0.00872223
-0.00659674
-0.00478204
-0.00330744
-0.00217636
-0.00136378
-0.000821023
-0.000492456
-0.000305578
-0.000216183
-0.000158356
-0.000126489
-7.5502e-05
-3.58176e-05
-0.0519375
-0.0545972
-0.0564479
-0.0576285
-0.0585205
-0.0593761
-0.0602535
-0.0610989
-0.0618372
-0.0624174
-0.0628175
-0.0630306
-0.0630519
-0.0628731
-0.0624827
-0.0618688
-0.061022
-0.0599371
-0.0586138
-0.0570628
-0.055299
-0.0533368
-0.0512029
-0.0489338
-0.0465728
-0.0441703
-0.0417817
-0.0394651
-0.0372779
-0.0352722
-0.0334904
-0.0319577
-0.0306782
-0.0296282
-0.0287563
-0.0279842
-0.0272148
-0.0263437
-0.0252766
-0.0239456
-0.0223231
-0.020423
-0.0182972
-0.0160228
-0.0136927
-0.0114
-0.00923308
-0.00726384
-0.0055472
-0.00411372
-0.00297093
-0.00210418
-0.00147609
-0.00104505
-0.000750917
-0.000558025
-0.000408173
-0.000293921
-0.000173052
-6.68286e-05
-0.0471743
-0.0494945
-0.0511359
-0.0522093
-0.0530355
-0.0538295
-0.0546431
-0.0554325
-0.0561343
-0.0567051
-0.0571255
-0.0573895
-0.0574934
-0.0574303
-0.0571909
-0.0567651
-0.0561452
-0.0553266
-0.0543089
-0.0530967
-0.0516985
-0.0501323
-0.0484152
-0.0465732
-0.0446385
-0.0426487
-0.0406458
-0.0386731
-0.0367745
-0.0349898
-0.033352
-0.0318815
-0.0305841
-0.029446
-0.0284339
-0.0274945
-0.0265607
-0.025559
-0.0244211
-0.0230951
-0.021556
-0.019808
-0.0178847
-0.0158405
-0.0137449
-0.0116712
-0.00969096
-0.00786565
-0.00624352
-0.00485479
-0.00370959
-0.00280133
-0.00210203
-0.00158165
-0.00119097
-0.000901836
-0.000663428
-0.000467509
-0.00027486
-9.96751e-05
-0.0428133
-0.0448305
-0.0462823
-0.0472566
-0.0480211
-0.0487577
-0.0495123
-0.050249
-0.050915
-0.0514734
-0.0519075
-0.0522119
-0.0523836
-0.0524168
-0.0523038
-0.0520361
-0.0516069
-0.0510119
-0.05025
-0.0493235
-0.0482389
-0.0470063
-0.0456409
-0.0441609
-0.0425892
-0.0409537
-0.0392854
-0.0376162
-0.035979
-0.0344043
-0.0329174
-0.0315349
-0.0302636
-0.0290964
-0.0280125
-0.026977
-0.0259447
-0.0248649
-0.0236894
-0.0223796
-0.0209149
-0.0192949
-0.0175407
-0.0156905
-0.0137955
-0.0119123
-0.0100981
-0.00840415
-0.00687198
-0.00553026
-0.00439045
-0.00345197
-0.00269449
-0.00209734
-0.00162073
-0.00124306
-0.000920501
-0.000644687
-0.000379403
-0.000133788
-0.038833
-0.0405816
-0.0418633
-0.0427468
-0.043454
-0.0441377
-0.0448374
-0.0455247
-0.0461554
-0.0466986
-0.0471399
-0.0474747
-0.0477
-0.0478114
-0.0478021
-0.0476649
-0.0473938
-0.0469845
-0.0464353
-0.0457472
-0.044924
-0.0439724
-0.0429023
-0.041727
-0.0404638
-0.0391319
-0.0377529
-0.0363506
-0.0349496
-0.0335727
-0.0322392
-0.0309626
-0.0297499
-0.0285982
-0.0274957
-0.0264202
-0.0253424
-0.0242281
-0.0230443
-0.0217636
-0.0203699
-0.0188611
-0.0172506
-0.015565
-0.0138418
-0.012124
-0.0104566
-0.00888177
-0.0074343
-0.00614062
-0.00501254
-0.00405369
-0.0032498
-0.00258765
-0.00203553
-0.00157733
-0.00117563
-0.000822739
-0.000485176
-0.00016859
-0.0352124
-0.0367245
-0.0378545
-0.0386556
-0.0393099
-0.0399446
-0.0405938
-0.0412345
-0.0418306
-0.0423561
-0.0427989
-0.0431546
-0.043421
-0.043594
-0.0436679
-0.0436365
-0.0434943
-0.0432373
-0.0428632
-0.0423717
-0.0417648
-0.0410465
-0.0402233
-0.0393044
-0.0383011
-0.037227
-0.0360976
-0.0349297
-0.0337412
-0.0325489
-0.0313675
-0.0302078
-0.0290762
-0.0279729
-0.0268916
-0.0258192
-0.0247372
-0.0236237
-0.0224567
-0.0212176
-0.0198948
-0.0184862
-0.0170003
-0.0154561
-0.0138806
-0.0123066
-0.0107687
-0.00930119
-0.00793278
-0.00668715
-0.00557569
-0.00460486
-0.00376505
-0.00304878
-0.00243104
-0.00190053
-0.00142534
-0.000998824
-0.000590469
-0.000203533
-0.031931
-0.0332358
-0.0342314
-0.034958
-0.035564
-0.0361537
-0.0367561
-0.0373533
-0.0379155
-0.0384214
-0.0388606
-0.0392293
-0.0395254
-0.0397454
-0.0398844
-0.039937
-0.0398983
-0.0397642
-0.0395323
-0.0392015
-0.0387721
-0.0382462
-0.0376277
-0.0369222
-0.0361371
-0.0352818
-0.0343668
-0.0334037
-0.0324052
-0.0313834
-0.0303493
-0.0293115
-0.0282756
-0.0272432
-0.0262119
-0.0251742