/*--------------------------------*- C++ -*----------------------------------*\
| =========                 |                                                 |
| \\      /  F ield         | OpenFOAM: The Open Source CFD Toolbox           |
|  \\    /   O peration     | Version:  2512                                  |
|   \\  /    A nd           | Website:  www.openfoam.com                      |
|    \\/     M anipulation  |                                                 |
\*---------------------------------------------------------------------------*/
FoamFile
{
    version     2.0;
    format      ascii;
    arch        "LSB;label=32;scalar=64";
    class       surfaceScalarField;
    location    "49";
    object      phi;
}
// * * * * * * * * * * * * * * * * * * * * * * * * * * * * * * * * * * * * * //

dimensions      [0 3 -1 0 0 0 0];

oriented        oriented;

internalField   nonuniform List<scalar> 
26232
(
1.48136e-05
0.000914734
-0.000929547
0.000224312
0.0017899
-0.0019994
0.000777451
0.00186916
-0.0024223
0.00181574
0.00121177
-0.00225005
0.00347975
-0.000148988
-0.00151502
0.00591043
-0.00219651
-0.000234167
0.00924563
-0.0049224
0.00158719
0.013613
-0.00831843
0.00395108
0.0191192
-0.0123663
0.0068601
0.0258377
-0.0170298
0.0103114
0.033796
-0.0222493
0.014291
0.0429667
-0.0279405
0.0187697
0.0532627
-0.0339971
0.0237012
0.0645378
-0.0402969
0.0290218
0.0765943
-0.0467099
0.0346534
0.089195
-0.0531077
0.040507
0.102079
-0.0593724
0.0464884
0.11498
-0.0654048
0.0525039
0.127644
-0.071127
0.0584633
0.139849
-0.0765014
0.0642958
0.151406
-0.0814837
0.0699271
0.162193
-0.0861566
0.0753689
0.172109
-0.0903827
0.0804669
-0.0945869
0.0859863
0.18071
6.3562e-05
0.000851172
0.00044005
0.00141341
0.00130195
0.00100726
0.00281472
-0.000301008
0.00514085
-0.00247512
0.00843549
-0.00549115
0.012837
-0.00932394
0.0184521
-0.0139335
0.0253392
-0.0192534
0.0334933
-0.025184
0.0428369
-0.0315929
0.053218
-0.0383216
0.0644182
-0.0451972
0.0761686
-0.0520473
0.0881724
-0.0587137
0.10013
-0.065065
0.111763
-0.0710056
0.122839
-0.0764804
0.133187
-0.0814754
0.142703
-0.0860175
0.15137
-0.0901504
0.15921
-0.0939968
0.166328
-0.0975006
-0.101147
0.172888
0.000127405
0.000723766
0.00071357
0.000827247
0.00195386
-0.000233039
0.00403431
-0.00238146
0.00712978
-0.00557058
0.0113916
-0.00975293
0.0169283
-0.0148606
0.0237843
-0.0207895
0.0319216
-0.0273907
0.0412106
-0.034473
0.0514342
-0.0418165
0.0623047
-0.0491921
0.0734923
-0.0563849
0.0846587
-0.0632136
0.0954912
-0.0695462
0.105733
-0.0753072
0.115206
-0.0804785
0.12382
-0.085094
0.131572
-0.0892276
0.138536
-0.0929812
0.144847
-0.0964615
0.150647
-0.099797
0.156146
-0.103
-0.106431
0.16143
0.000207848
0.000515918
0.0010482
-1.31015e-05
0.00273431
-0.00191916
0.0054628
-0.00510994
0.00940178
-0.00950956
0.0146672
-0.0150184
0.0212953
-0.0214887
0.0292198
-0.0287141
0.0382636
-0.0364345
0.0481489
-0.0443584
0.0585266
-0.0521942
0.069018
-0.0596835
0.0792611
-0.066628
0.0889524
-0.072905
0.0978778
-0.0784716
0.105927
-0.0833567
0.113094
-0.0876456
0.11946
-0.0914592
0.125164
-0.0949325
0.130379
-0.0981962
0.135277
-0.101359
0.139999
-0.104519
0.144684
-0.107685
-0.111088
0.14934
0.000305699
0.00021022
0.00144265
-0.00115005
0.00363152
-0.00410803
0.00706076
-0.00853919
0.0118611
-0.0143099
0.0180709
-0.0212281
0.0256062
-0.0290241
0.0342516
-0.0373594
0.0436762
-0.0458591
0.0534766
-0.0541588
0.0632345
-0.061952
0.0725748
-0.0690238
0.0812132
-0.0752664
0.0889831
-0.0806749
0.0958399
-0.0853284
0.101845
-0.0893614
0.107133
-0.0929338
0.111878
-0.0962042
0.116256
-0.0993105
0.12042
-0.10236
0.124488
-0.105428
0.128535
-0.108566
0.132624
-0.111773
-0.115199
0.136736
0.000420658
-0.000210438
0.00189027
-0.00261966
0.00461869
-0.00683645
0.0087578
-0.0126783
0.0143604
-0.0199126
0.021341
-0.0282086
0.0294592
-0.0371423
0.0383413
-0.0462415
0.0475357
-0.0550535
0.0565873
-0.0632104
0.0651095
-0.0704742
0.0728353
-0.0767495
0.0796386
-0.0820697
0.0855261
-0.0865624
0.0906056
-0.0904079
0.0950436
-0.0937994
0.0990231
-0.0969134
0.102711
-0.0998923
0.106241
-0.10284
0.109705
-0.105825
0.113165
-0.108887
0.11665
-0.112051
0.120193
-0.115316
-0.118763
0.123757
0.000550804
-0.000761242
0.00237698
-0.00444584
0.00565122
-0.0101107
0.0104515
-0.0174786
0.0167086
-0.0261697
0.024177
-0.035677
0.0324529
-0.0454183
0.0410412
-0.0548297
0.0494473
-0.0634596
0.0572652
-0.0710283
0.0642334
-0.0774425
0.0702518
-0.0827679
0.0753602
-0.0871782
0.0796953
-0.0908975
0.0834392
-0.0941518
0.0867756
-0.0971357
0.0898609
-0.0999987
0.0928128
-0.102844
0.0957104
-0.105738
0.0986023
-0.108717
0.101516
-0.111801
0.104466
-0.115001
0.107464
-0.118314
-0.121779
0.11048
0.000692037
-0.00145328
0.00288037
-0.00663417
0.00666695
-0.0138973
0.0120146
-0.0228262
0.0186952
-0.0328503
0.0262934
-0.0432752
0.0342763
-0.0534011
0.0421035
-0.0626569
0.049334
-0.0706902
0.0556932
-0.0773875
0.0610867
-0.0828359
0.0655707
-0.0872518
0.0692973
-0.0909047
0.0724567
-0.094057
0.0752322
-0.0969272
0.0777736
-0.0996771
0.0801894
-0.102415
0.0825505
-0.105205
0.0848994
-0.108086
0.0872599
-0.111077
0.0896443
-0.114186
0.0920573
-0.117414
0.0945037
-0.12076
-0.124234
0.0969591
0.000837734
-0.00229101
0.00337018
-0.00916662
0.0075911
-0.0181182
0.013311
-0.0285461
0.0201268
-0.0396662
0.0274795
-0.0506279
0.0347763
-0.0606979
0.0415221
-0.0694027
0.047404
-0.076572
0.0523109
-0.0822944
0.056298
-0.0868231
0.0595231
-0.090477
0.0621817
-0.0935633
0.0644586
-0.0963339
0.0665019
-0.0989705
0.068416
-0.101591
0.0702679
-0.104266
0.0720968
-0.107034
0.0739241
-0.109914
0.075761
-0.112914
0.0776125
-0.116037
0.0794804
-0.119282
0.0813646
-0.122645
-0.126119
0.0832492
0.000978976
-0.00326999
0.0038109
-0.0119985
0.00834569
-0.022653
0.0142184
-0.0344188
0.0208645
-0.0463123
0.0276392
-0.0574026
0.0339734
-0.0670321
0.0394875
-0.0749169
0.0440271
-0.0811116
0.0476271
-0.0858945
0.0504415
-0.0896375
0.0526692
-0.0927046
0.0544994
-0.0953936
0.0560831
-0.0979176
0.0575259
-0.100413
0.0588939
-0.102959
0.0602253
-0.105598
0.0615406
-0.108349
0.0628507
-0.111224
0.064161
-0.114224
0.0654736
-0.11735
0.0667886
-0.120597
0.0681036
-0.12396
-0.127425
0.0694092
0.00110587
-0.00437586
0.00416726
-0.0150599
0.00886255
-0.0273483
0.01465
-0.0402063
0.0208463
-0.0525086
0.0267954
-0.0633517
0.0320217
-0.0722584
0.0362951
-0.0791903
0.0396068
-0.0844233
0.0420939
-0.0883815
0.0439552
-0.0914987
0.0453868
-0.0941362
0.0465473
-0.0965541
0.0475475
-0.0989178
0.0484565
-0.101322
0.0493135
-0.103816
0.0501395
-0.106424
0.0509454
-0.109155
0.0517369
-0.112015
0.052517
-0.115004
0.0532863
-0.118119
0.054044
-0.121354
0.0547862
-0.124702
-0.128146
0.0555077
0.0012114
-0.00558727
0.0044122
-0.0182607
0.00909538
-0.0320315
0.0145671
-0.045678
0.0200886
-0.0580301
0.0250634
-0.0683264
0.0291497
-0.0763447
0.0322634
-0.0823039
0.0345049
-0.0866648
0.0360649
-0.0899415
0.0371467
-0.0925806
0.0379203
-0.0949098
0.0385065
-0.0971403
0.0389812
-0.0993925
0.0393871
-0.101728
0.0397466
-0.104176
0.040071
-0.106748
0.0403666
-0.109451
0.0406366
-0.112285
0.040883
-0.115251
0.0411062
-0.118342
0.0413052
-0.121553
0.041476
-0.124873
0.0416173
-0.128287
-0.000201506
-0.00021677
0.000418275
-0.000703032
-0.000435241
0.000936767
-0.00143952
-0.000494538
0.00123103
-0.00236121
-0.000433489
0.00135518
-0.0034293
-0.000286554
0.00135464
-0.00461379
-8.09515e-05
0.00126544
-0.0058917
0.000164372
0.00111354
-0.00724534
0.000438595
0.000915047
-0.00866085
0.000738181
0.000677327
-0.0101268
0.0010653
0.000400676
-0.011633
0.00142607
8.0107e-05
-0.0131703
0.00182873
-0.000291429
-0.0147284
0.00228265
-0.000724561
-0.0162963
0.00279694
-0.001229
-0.017862
0.00338002
-0.0018144
-0.0194118
0.00403927
-0.00248944
-0.0209315
0.00478088
-0.00326114
-0.022407
0.00560989
-0.00413437
-0.0238261
0.00653045
-0.00511144
-0.0251805
0.00754625
-0.00619183
-0.0264692
0.00866074
-0.00737197
-0.0277012
0.00987775
-0.00864579
-0.0289008
0.0112059
-0.0100063
0.0126635
-0.0301166
-0.0114477
-0.00019556
-2.12093e-05
-0.000680852
5.00512e-05
-0.00139002
0.000214627
-0.00227203
0.000448527
-0.00328688
0.000728294
-0.00440335
0.00103551
-0.00559702
0.00135805
-0.00684853
0.0016901
-0.00814187
0.00203152
-0.00946304
0.00238647
-0.0107989
0.00276197
-0.0121365
0.00316632
-0.0134619
0.00360808
-0.0147602
0.00409515
-0.0160146
0.00463443
-0.017207
0.0052317
-0.0183179
0.00589178
-0.019327
0.00661897
-0.0202144
0.00741787
-0.0209628
0.00829464
-0.0215604
0.00925837
-0.0220046
0.0103219
-0.0223039
0.0115052
0.01286
-0.0225005
-0.000180799
0.00015959
-0.000628608
0.00049786
-0.00127959
0.000865606
-0.00208279
0.00125173
-0.00299749
0.00164299
-0.00399115
0.00202917
-0.00503757
0.00240448
-0.00611506
0.00276759
-0.00720479
0.00312125
-0.00828947
0.00347116
-0.00935227
0.00382476
-0.0103759
0.00418999
-0.0113422
0.00457434
-0.0122312
0.00498418
-0.0130213
0.0054245
-0.0136885
0.00589888
-0.0142065
0.00640976
-0.0145465
0.00695897
-0.0146774
0.00754885
-0.0145669
0.00818407
-0.0141835
0.00887501
-0.0135053
0.00964366
-0.0125286
0.0105285
0.0115481
-0.0112167
-0.000160133
0.000319723
-0.000555914
0.000893641
-0.00112669
0.00143639
-0.00182223
0.00194726
-0.00260116
0.00242193
-0.00342949
0.0028575
-0.00427878
0.00325377
-0.00512449
0.0036133
-0.00594438
0.00394114
-0.00671724
0.00424401
-0.00742182
0.00452935
-0.00803612
0.00480429
-0.00853672
0.00507494
-0.00889841
0.00534586
-0.00909374
0.00561983
-0.00909264
0.00589778
-0.00886186
0.00617898
-0.00836431
0.00646142
-0.00755795
0.00674249
-0.00639502
0.00702114
-0.00482082
0.00730081
-0.00277118
0.00759401
-0.000185555
0.00794291
0.00856383
0.00279875
-0.000137105
0.000456828
-0.000473612
0.00123015
-0.00095186
0.00191463
-0.00152204
0.00251744
-0.00214186
0.00304174
-0.00277535
0.003491
-0.00339135
0.00386977
-0.00396186
0.0041838
-0.00446055
0.00443983
-0.00486153
0.00464499
-0.00513832
0.00480614
-0.00526315
0.00492912
-0.00520643
0.00501822
-0.00493637
0.0050758
-0.00441864
0.0051021
-0.00361609
0.00509522
-0.00248818
0.00505107
-0.000990302
0.00496354
0.00092732
0.00482487
0.00332242
0.00462604
0.0062631
0.00436012
0.0098265
0.00403062
0.0140993
0.00367009
0.00341097
0.0192522
-0.000114918
0.000571746
-0.000391607
0.00150684
-0.000773711
0.00229674
-0.00121077
0.0029545
-0.00165868
0.00348965
-0.00207874
0.00391106
-0.00243621
0.00422724
-0.00269872
0.00444631
-0.0028348
0.00457591
-0.00281262
0.00462282
-0.00259902
0.00459254
-0.00215872
0.00448883
-0.00145391
0.00431341
-0.000443839
0.00406573
0.000915288
0.00374297
0.00267061
0.0033399
0.00487265
0.00284903
0.00757566
0.00226054
0.0108382
0.00156233
0.0147243
0.000739957
0.0193062
-0.000221749
0.0246764
-0.00133959
0.0309262
-0.00257971
-0.00403917
0.0383763
-9.58321e-05
0.000667578
-0.000316718
0.00172772
-0.000604735
0.00258476
-0.000906919
0.00325668
-0.0011759
0.00375864
-0.00136888
0.00410404
-0.00144606
0.00430442
-0.00136907
0.00436931
-0.00109931
0.00430615
-0.000596744
0.00412025
0.000181213
0.00381458
0.00128038
0.00338966
0.00275029
0.00284349
0.00464441
0.00217162
0.00702012
0.00136726
0.00993853
0.000421491
0.013464
-0.000676486
0.017664
-0.00193937
0.0226074
-0.00338114
0.0283648
-0.00501739
0.0350051
-0.00686212
0.0426251
-0.00895952
0.0512082
-0.0111629
-0.0141771
0.0613462
-8.06235e-05
0.000748201
-0.000250872
0.00189797
-0.000447621
0.0027815
-0.000612876
0.00342194
-0.000693775
0.00383953
-0.000641137
0.0040514
-0.000407616
0.0040709
5.41669e-05
0.00390753
0.000793305
0.00356701
0.00186196
0.00305159
0.00331634
0.0023602
0.00521725
0.00148876
0.00763021
0.000430529
0.0106252
-0.000823378
0.014276
-0.00228348
0.0186587
-0.00396128
0.0238509
-0.00586865
0.0299287
-0.0080172
0.0369651
-0.0104175
0.0450287
-0.0130809
0.0541639
-0.0159974
0.0644754
-0.019271
0.07577
-0.0224575
-0.0272195
0.0888124
-6.82854e-05
0.000816487
-0.000190116
0.0020198
-0.000293205
0.00288459
-0.000311358
0.00344009
-0.000183053
0.00371123
0.000150686
0.00371766
0.000748723
0.00347287
0.00167186
0.00298439
0.0029845
0.00225437
0.0047558
0.0012803
0.00706007
5.59223e-05
0.00997647
-0.00142764
0.013588
-0.003181
0.0179797
-0.00521507
0.0232362
-0.00753998
0.0294388
-0.0101639
0.0366619
-0.0130918
0.0449696
-0.0163249
0.0544113
-0.0198592
0.0650218
-0.0236914
0.0767942
-0.0277698
0.0897846
-0.0322613
0.103705
-0.0363782
-0.0426751
0.119161
-5.6127e-05
0.000872614
-0.000124913
0.00208859
-0.000120948
0.00288063
3.38122e-05
0.00328533
0.000413534
0.00333151
0.00109173
0.00303946
0.00214369
0.00242091
0.00364863
0.00147946
0.00569076
0.000212234
0.00835925
-0.00138819
0.0117469
-0.00333177
0.015948
-0.00562866
0.0210541
-0.00828709
0.0271503
-0.0113113
0.03431
-0.0146997
0.04259
-0.0184439
0.0520262
-0.022528
0.0626295
-0.0269282
0.0743832
-0.0316129
0.0872411
-0.0365493
0.101126
-0.0416545
0.115941
-0.0470765
0.131501
-0.0519386
-0.0589764
0.147803
-4.03019e-05
0.000912916
-4.17826e-05
0.00209007
9.74048e-05
0.00274144
0.000471322
0.00291141
0.00117156
0.00263127
0.00229071
0.00192032
0.00392491
0.000786707
0.00617483
-0.000770466
0.00914477
-0.00275771
0.0129398
-0.00518325
0.0176613
-0.00805327
0.0234008
-0.0113681
0.0302332
-0.0151194
0.0382098
-0.0192879
0.0473523
-0.0238422
0.0576482
-0.0287398
0.0690482
-0.033928
0.0814664
-0.0393464
0.094783
-0.0449294
0.108847
-0.0506129
0.123505
-0.0563125
0.138506
-0.0620777
0.153888
-0.0673205
-0.0739091
0.16882
-1.66317e-05
7.40381e-05
0.000393182
0.00105454
0.00217079
0.00385694
0.00623084
0.00941145
0.0135138
0.018642
0.0248797
0.0322813
0.040863
0.0505969
0.0614081
0.0731753
0.0857357
0.0988931
0.112427
0.12611
0.139724
0.153016
0.166162
0.178239
-0.0303509
0.0180165
-0.0177822
-0.0304736
0.0206804
-0.0205578
-0.0304529
0.0233493
-0.0233699
-0.0302905
0.0259359
-0.0260983
-0.029985
0.0282939
-0.0285994
-0.0295341
0.0302407
-0.0306916
-0.0289325
0.0315558
-0.0321574
-0.0281678
0.0319756
-0.0327402
-0.0272147
0.0312006
-0.0321538
-0.0260702
0.0289509
-0.0300954
-0.0247071
0.0248676
-0.0262306
-0.0230979
0.0186272
-0.0202364
-0.0212256
0.00995458
-0.0118268
-0.0191831
-0.00128971
-0.000752786
-0.0168414
-0.0149518
0.01261
-0.0144379
-0.030925
0.0285215
-0.0120116
-0.0487756
0.0463494
-0.00986721
-0.0674127
0.0652683
-0.0082622
-0.0859538
0.0843488
-0.0073668
-0.103385
0.10249
-0.00707656
-0.118754
0.118464
-0.00684577
-0.130992
0.130761
-0.00563743
-0.138479
0.13727
-0.002321
-0.138735
0.135418
0.00410699
-0.128889
0.122461
0.0134525
-0.106405
0.0970599
0.0246344
-0.0709594
0.0597774
0.0368408
-0.0259349
0.0137285
0.0491749
0.0240729
-0.036407
0.0607246
0.0729993
-0.084549
0.0702217
0.114808
-0.124306
0.076183
0.14618
-0.152141
0.0768807
0.168233
-0.168931
0.0715337
0.18538
-0.180033
0.0629028
0.19826
-0.189629
0.0574476
0.196869
-0.191413
0.0603993
0.16678
-0.169732
0.0713175
0.106411
-0.117329
0.0861419
0.0308323
-0.0456567
0.100828
-0.0402649
0.025579
0.112929
-0.0948138
0.0827122
0.121445
-0.128326
0.11981
0.126318
-0.142408
0.137535
0.127134
-0.141736
0.140919
0.123629
-0.133581
0.137086
0.117716
-0.122879
0.128792
0.113635
-0.107381
0.111463
0.114537
-0.0817304
0.0808281
0.120157
-0.0461216
0.0405018
0.127761
-0.00759641
-7.81472e-06
0.134836
0.0248572
-0.0319321
0.13981
0.0483993
-0.0533726
0.142546
0.0599173
-0.0626539
0.143385
0.0656869
-0.0665255
0.143618
0.0597079
-0.0599413
0.144049
0.0534076
-0.0538381
0.145359
0.0350079
-0.0363184
0.1473
0.0220552
-0.0239959
0.149559
0.00402962
-0.00628917
-0.00995323
0.0080952
-0.0221685
0.0176846
-0.0217325
0.0202445
-0.0211457
0.0227624
-0.0204073
0.0251975
-0.0195179
0.0274045
-0.0184786
0.0292014
-0.0172886
0.0303658
-0.0159455
0.0306325
-0.0144023
0.0296574
-0.0127095
0.0272581
-0.0108474
0.0230055
-0.00882266
0.0166025
-0.00665252
0.00778443
-0.00437269
-0.00356954
-0.00197384
-0.0173506
0.00042895
-0.0333278
0.00236096
-0.0507076
0.00378698
-0.0688387
0.00436306
-0.0865299
0.00374671
-0.102769
0.00182055
-0.116828
-0.00104377
-0.128127
-0.00374723
-0.135775
-0.00471781
-0.137764
-0.00247
-0.131137
0.00401776
-0.112893
0.0141183
-0.0810599
0.0263556
-0.0381722
0.0393752
0.0110533
0.0517122
0.0606623
0.0618579
0.104663
0.0680724
0.139965
0.0688598
0.167446
0.0645706
0.18967
0.059124
0.203707
0.0583869
0.197606
0.0653305
0.159837
0.078184
0.0935572
0.0933801
0.0156362
0.107598
-0.0544827
0.118859
-0.106075
0.126428
-0.135894
0.130719
-0.146699
0.131859
-0.142876
0.12926
-0.130982
0.123478
-0.117098
0.117753
-0.101657
0.115759
-0.0797364
0.118609
-0.0489709
0.124415
-0.0134032
0.130657
0.0186161
0.135457
0.0435993
0.138442
0.0569324
0.139959
0.0641691
0.141188
0.0584795
0.142866
0.0517293
0.145303
0.0325706
0.148113
0.0192458
0.150899
0.00124323
-0.0118351
-0.0102574
0.0167252
-0.00920108
0.0191882
-0.00798725
0.0215486
-0.00660004
0.0238103
-0.00504143
0.0258459
-0.00331493
0.0274749
-0.00142576
0.0284766
0.000606277
0.0286004
0.00265272
0.027611
0.0048185
0.0250923
0.00706028
0.0207637
0.00935562
0.0143072
0.0116505
0.00548959
0.0139406
-0.00585964
0.0161407
-0.0195508
0.018115
-0.0353021
0.0197948
-0.0523874
0.0208385
-0.0698823
0.0208897
-0.0865811
0.0195089
-0.101388
0.0162436
-0.113562
0.0110481
-0.122932
0.00474285
-0.12947
-0.000701278
-0.13232
-0.00304007
-0.128798
-0.00105844
-0.114875
0.00622378
-0.0883421
0.0173075
-0.049256
0.0302868
-0.00192599
0.0430643
0.0478849
0.0536933
0.0940336
0.0603129
0.133346
0.0619897
0.165769
0.0600652
0.191594
0.0587092
0.205063
0.0624013
0.193914
0.0722326
0.150006
0.0860935
0.0796962
0.101006
0.000724227
0.114395
-0.0678724
0.124582
-0.116261
0.131077
-0.14239
0.134552
-0.150174
0.135676
-0.144
0.134016
-0.129322
0.129117
-0.112199
0.122851
-0.0953906
0.118679
-0.0755638
0.118789
-0.0490809
0.122422
-0.0170361
0.127431
0.0136068
0.13185
0.0391799
0.135091
0.0536918
0.137441
0.0618193
0.139819
0.0561015
0.142799
0.0487488
0.146298
0.0290719
0.149836
0.0157081
0.153002
-0.00192315
-0.0136723
0.00442313
0.0151009
0.00607351
0.0175378
0.00786602
0.0197561
0.00984105
0.0218353
0.0119777
0.0237092
0.0142516
0.025201
0.0166426
0.0260856
0.0191348
0.0261083
0.0217286
0.0250171
0.024356
0.022465
0.0269806
0.0181391
0.0295589
0.0117288
0.0319775
0.00307095
0.0343261
-0.00820818
0.0364175
-0.0216423
0.0381827
-0.0370672
0.0395299
-0.0537346
0.0402453
-0.0705978
0.0400089
-0.0863448
0.038285
-0.0996641
0.0344835
-0.109761
0.0282475
-0.116696
0.0198693
-0.121092
0.0106537
-0.123104
0.00300869
-0.121153
-0.000155256
-0.111711
0.00274451
-0.0912419
0.0111624
-0.0576739
0.0228179
-0.0135815
0.0353946
0.0353083
0.0463812
0.083047
0.0538724
0.125855
0.0573545
0.162287
0.0586982
0.190251
0.0615984
0.202162
0.0689035
0.186608
0.0805497
0.138359
0.0946786
0.0655673
0.108837
-0.0134344
0.121034
-0.0800696
0.129918
-0.125145
0.135268
-0.14774
0.137842
-0.152748
0.138658
-0.144816
0.137714
-0.128378
0.134081
-0.108566
0.128272
-0.0895818
0.122923
-0.0702144
0.120743
-0.0469016
0.122126
-0.0184187
0.125639
0.010094
0.129499
0.0353199
0.132963
0.0502269
0.136192
0.0585912
0.139726
0.0525674
0.143899
0.0445757
0.148267
0.0247037
0.152316
0.0116593
0.15568
-0.00528731
-0.0154031
0.0212228
0.0131303
0.0232728
0.0154878
0.0254935
0.0175354
0.0279274
0.0194013
0.0305449
0.0210918
0.0333055
0.0224403
0.0361805
0.0232107
0.0391378
0.023151
0.042144
0.0220109
0.0451329
0.0194761
0.0480397
0.0152323
0.0508115
0.00895699
0.0533437
0.000538754
0.0556621
-0.0105265
0.0575934
-0.0235736
0.0590926
-0.0385665
0.0600815
-0.0547235
0.0603958
-0.070912
0.0597461
-0.0856951
0.057749
-0.097667
0.0539166
-0.105929
0.0476884
-0.110468
0.0387776
-0.112181
0.0277753
-0.112102
0.0166976
-0.110075
0.00850579
-0.103519
0.00577835
-0.0885144
0.0096619
-0.0615575
0.0186583
-0.0225779
0.030083
0.0238837
0.041146
0.071984
0.0498373
0.117163
0.0557652
0.156359
0.0606726
0.185343
0.067357
0.195478
0.0772581
0.176707
0.0898126
0.125805
0.103609
0.0517713
0.116661
-0.026487
0.127345
-0.0907533
0.134719
-0.132519
0.138863
-0.151883
0.140553
-0.154438
0.140902
-0.145165
0.140354
-0.12783
0.138009
-0.106221
0.133363
-0.0849359
0.1279
-0.0647516
0.124229
-0.0432303
0.12364
-0.0178299
0.125606
0.00812805
0.128789
0.032137
0.1324
0.0466164
0.136424
0.0545673
0.140965
0.0480264
0.146078
0.0394628
0.151033
0.0197482
0.155338
0.00735427
0.158712
-0.00866081
-0.0169817
0.0402718
0.0112348
0.0423211
0.0134385
0.0446244
0.0152321
0.0472207
0.016805
0.0500569
0.0182557
0.0530764
0.0194208
0.0562381
0.020049
0.0594925
0.0198966
0.0627838
0.0187196
0.0660285
0.0162314
0.0691282
0.0121326
0.0719574
0.00612777
0.0747344
-0.00223825
0.0769167
-0.0127088
0.0786423
-0.0252992
0.0797881
-0.0397123
0.0802591
-0.0551945
0.0799366
-0.0705895
0.0786737
-0.0844321
0.0762759
-0.0952692
0.0724512
-0.102104
0.0667357
-0.104752
0.0585543
-0.103999
0.0476944
-0.101242
0.0351463
-0.0975273
0.0234353
-0.0918081
0.0157254
-0.0808045
0.0143483
-0.0601804
0.0193928
-0.0276224
0.0286354
0.014641
0.0392485
0.0613709
0.0490698
0.107342
0.0575187
0.14791
0.0657238
0.177138
0.0753445
0.185857
0.0868426
0.165209
0.0995765
0.113071
0.112597
0.0387506
0.124213
-0.0381024
0.133151
-0.099692
0.13887
-0.138237
0.14176
-0.154774
0.142625
-0.155303
0.14248
-0.14502
0.142048
-0.127397
0.140765
-0.104938
0.137608
-0.081779
0.132926
-0.0600702
0.128727
-0.0390313
0.126769
-0.0158719
0.127387
0.00751046
0.129873
0.0296508
0.133521
0.042969
0.138146
0.0499422
0.14342
0.0427524
0.149128
0.033755
0.154348
0.0145281
0.158658
0.00304409
0.161873
-0.0118763
-0.0183839
0.0625064
0.0100745
0.0639693
0.0119756
0.0658235
0.0133779
0.0680896
0.0145389
0.0706903
0.015655
0.0735655
0.0165455
0.0766672
0.0169474
0.0799242
0.0166396
0.0832521
0.0153917
0.0865493
0.0129342
0.0896999
0.008982
0.0925215
0.00330616
0.0951339
-0.00485068
0.0971253
-0.0147002
0.0984992
-0.0266731
0.0991404
-0.0403535
0.0989599
-0.055014
0.097881
-0.0695107
0.0958485
-0.0823996
0.0928266
-0.0922473
0.0887635
-0.0980407
0.0834787
-0.0994674
0.0765087
-0.0970294
0.0672053
-0.0919388
0.0554386
-0.0857606
0.0425696
-0.0789391
0.0314892
-0.0697242
0.0253736
-0.0540648
0.0258705
-0.0281193
0.0320443
0.00846727
0.0414762
0.051939
0.0519204
0.0968977
0.0624107
0.13742
0.0732257
0.166323
0.0848321
0.174251
0.097071
0.15297
0.109449
0.100693
0.121314
0.0268856
0.13125
-0.0480381
0.138282
-0.106724
0.142272
-0.142228
0.1439
-0.156402
0.144004
-0.155407
0.143425
-0.14444
0.142939
-0.126912
0.142391
-0.10439
0.140703
-0.0800912
0.137376
-0.0567425
0.133563
-0.0352187
0.131019
-0.0133276
0.130714
0.00781538
0.132606
0.0277588
0.136188
0.0393863
0.141157
0.0449737
0.146824
0.0370857
0.152753
0.027826
0.157928
0.00935305
0.162031
-0.00105908
0.164963
-0.0148091
-0.0196098
0.0886778
0.0102091
0.0890105
0.0116429
0.0898753
0.012513
0.0912464
0.0131678
0.0930479
0.0138535
0.095242
0.0143514
0.0977735
0.0144159
0.100551
0.0138617
0.103472
0.0124708
0.106416
0.00999087
0.109273
0.00612441
0.111807
0.00077259
0.113996
-0.00703945
0.115576
-0.0162807
0.116428
-0.0275246
0.116419
-0.0403449
0.115453
-0.0540483
0.11348
-0.067537
0.11052
-0.0794397
0.106681
-0.0884085
0.102122
-0.093482
0.0969469
-0.0942921
0.0910028
-0.0910853
0.0837055
-0.0846415
0.0742723
-0.0763273
0.0627054
-0.0673721
0.0507113
-0.0577302
0.0414425
-0.044796
0.0377709
-0.0244477
0.0403922
0.005846
0.0478745
0.0444567
0.0581451
0.0866272
0.0698384
0.125726
0.0823563
0.153805
0.0950956
0.161511
0.107407
0.140659
0.119039
0.0890611
0.129489
0.0164355
0.13756
-0.056109
0.142587
-0.111751
0.144848
-0.144489
0.145253
-0.156807
0.144666
-0.15482
0.143743
-0.143517
0.14315
-0.12632
0.143037
-0.104277
0.142572
-0.0796257
0.140807
-0.0549776
0.138058
-0.0324697
0.135715
-0.0109849
0.135047
0.00848394
0.136564
0.0262415
0.140026
0.0359241
0.14508
0.0399196
0.150802
0.0313645
0.156612
0.0220152
0.161491
0.00447468
0.165238
-0.00480619
0.167819
-0.0173902
-0.0206842
0.117619
0.0117509
0.116654
0.0126078
0.116263
0.0129043
0.116377
0.0130535
0.116977
0.0132534
0.118059
0.0132703
0.119559
0.0129156
0.121385
0.0120353
0.123433
0.0104232
0.12557
0.00785405
0.127601
0.00409327
0.129644
-0.0012705
0.131006
-0.00840117
0.131847
-0.0171224
0.131908
-0.027585
0.131027
-0.039464
0.129092
-0.0521136
0.126074
-0.0645189
0.122067
-0.0754326
0.117306
-0.0836476
0.112119
-0.0882952
0.10681
-0.0889834
0.101495
-0.0857703
0.0958949
-0.079041
0.0892043
-0.0696367
0.0805695
-0.0587374
0.0701877
-0.0473484
0.0601487
-0.034757
0.0536528
-0.0179518
0.052868
0.00663076
0.0578306
0.0394942
0.0670664
0.0773913
0.0789964
0.113796
0.0922552
0.140546
0.105394
0.148373
0.11738
0.128673
0.128028
0.0784127
0.136903
0.0075602
0.142958
-0.0621641
0.14593
-0.114723
0.146515
-0.145074
0.14579
-0.156082
0.144594
-0.153624
0.143424
-0.142347
0.142754
-0.12565
0.142874
-0.104397
0.1433
-0.0800522
0.143011
-0.0546877
0.141685
-0.031144
0.140169
-0.00946911
0.139705
0.00894761
0.141142
0.024805
0.144494
0.0325719
0.149432
0.0349813
0.154933
0.0258642
0.16037
0.0165777
0.164786
5.90345e-05
0.168105
-0.00812512
0.170324
-0.0196098
-0.0216539
0.145331
0.014223
0.143425
0.0145137
0.141955
0.0143741
0.140894
0.0141142
0.140309
0.0138381
0.140202
0.0133773
0.14051
0.012608
0.141159
0.011386
0.142061
0.00952166
0.1431
0.00681509
0.144163
0.00303016
0.145041
-0.00214889
0.145405
-0.00876482
0.145209
-0.0169266
0.144219
-0.0265943
0.142248
-0.0374933
0.139181
-0.0490466
0.135021
-0.0603588
0.129938
-0.0703493
0.124274
-0.077984
0.118471
-0.0824923
0.112947
-0.083459
0.107973
-0.0807967
0.103549
-0.0746168
0.0991794
-0.0652671
0.093879
-0.053437
0.0867939
-0.0402633
0.0784499
-0.0264129
0.0712815
-0.0107834
0.068047
0.00986527
0.0703619
0.0371792
0.0778324
0.0699209
0.089074
0.102555
0.102189
0.127432
0.115093
0.135469
0.126539
0.117227
0.136213
0.0687392
0.143383
0.00039029
0.147293
-0.0660748
0.148192
-0.115622
0.147205
-0.144086
0.145487
-0.154364
0.143788
-0.151925
0.14246
-0.141019
0.14178
-0.124969
0.142039
-0.104656
0.143058
-0.0810712
0.14398
-0.0556097
0.144136
-0.0313003
0.143826
-0.00915908
0.144027
0.00874628
0.145685
0.0231468
0.148999
0.0292586
0.153707
0.030273
0.158812
0.0207591
0.16373
0.0116594
0.167616
-0.00382648
0.170509
-0.0110188
0.172412
-0.021512
-0.0225836
0.166292
0.0167511
0.164139
0.0166673
0.1622
0.0163123
0.160544
0.015771
0.159261
0.0151211
0.15834
0.0142979
0.157739
0.0132086
0.157413
0.0117125
0.157287
0.00964803
0.157256
0.0068457
0.157132
0.00315411
0.15684
-0.00185661
0.156154
-0.00807959
0.154824
-0.0155966
0.15267
-0.0244394
0.149518
-0.034342
0.145287
-0.0448155
0.140036
-0.0551077
0.134011
-0.0643244
0.127626
-0.0715987
0.12137
-0.0762362
0.115705
-0.0777947
0.11099
-0.0760811
0.107316
-0.0709426
0.104448
-0.0623994
0.101745
-0.0507339
0.0982023
-0.0367208
0.0932576
-0.0214682
0.0879017
-0.00542755
0.0840445
0.0137225
0.0843881
0.0368356
0.0897435
0.0645655
0.0994802
0.0928182
0.111637
0.115274
0.123831
0.123275
0.134693
0.106365
0.143455
0.0599775
0.148895
-0.00505045
0.150597
-0.0677766
0.149489
-0.114514
0.147081
-0.141678
0.144512
-0.151795
0.142395
-0.149808
0.140955
-0.139579
0.140306
-0.12432
0.140664
-0.105014
0.142045
-0.0824517
0.143856
-0.0574206
0.14533
-0.032775
0.146345
-0.0101742
0.147498
0.00759351
0.149626
0.0210194
0.153004
0.02588
0.157458
0.0258196
0.162105
0.0161118
0.166471
0.00729329
0.16985
-0.00720538
0.172386
-0.0135542
0.174057
-0.0231835
-0.0235499
0.17657
0.0184203
0.174921
0.0183162
0.173356
0.0178771
0.171893
0.0172338
0.170587
0.0164274
0.16946
0.0154246
0.168504
0.0141648
0.16768
0.0125364
0.166907
0.0104211
0.1661
0.00765325
0.165236
0.00401789
0.164037
-0.00065813
0.162319
-0.00636105
0.159967
-0.0132448
0.156794
-0.0212662
0.152686
-0.0302345
0.147627
-0.0397567
0.141758
-0.0492387
0.135387
-0.0579531
0.128938
-0.0651493
0.122854
-0.0701523
0.117497
-0.0724374
0.113098
-0.0716821
0.109797
-0.0676424
0.107636
-0.0602376
0.106421
-0.0495194
0.105451
-0.0357507
0.103783
-0.0198
0.100998
-0.00264305
0.098811
0.0159097
0.0987515
0.0368951
0.102561
0.0607558
0.110483
0.0848961
0.121124
0.104633
0.132324
0.112075
0.142424
0.0962656
0.149887
0.0525144
0.153258
-0.00842136
0.152749
-0.0672679
0.149956
-0.111721
0.146453
-0.138175
0.143215
-0.148557
0.140725
-0.147318
0.139151
-0.138004
0.138514
-0.123683
0.13893
-0.10543
0.1405
-0.0840219
0.142886
-0.0598064
0.145397
-0.0352862
0.14763
-0.0124066
0.149825
0.00539863
0.152568
0.0182755
0.156115
0.0223339
0.160356
0.0215782
0.16458
0.0118879
0.168458
0.00341511
0.171428
-0.0101753
0.173718
-0.0158443
0.175273
-0.0247386
-0.0246344
0.19186
0.0196642
-0.193104
0.191029
0.0191476
0.190234
0.0186722
0.189519
0.0179489
0.188964
0.0169825
0.1886
0.0157878
0.18845
0.0143156
0.188516
0.0124701
0.188805
0.010132
0.189307
0.00715177
0.189881
0.0034434
0.19042
-0.00119745
0.19084
-0.00678052
0.190912
-0.0133172
0.19042
-0.0207739
0.189134
-0.0289489
0.186865
-0.0374878
0.183519
-0.0458922
0.179124
-0.0535579
0.173826
-0.0598514
0.167856
-0.0641826
0.161483
-0.0660641
0.154968
-0.0651676
0.148557
-0.0612308
0.142445
-0.0541255
0.136753
-0.043828
0.131373
-0.0303707
0.12586
-0.014287
0.119739
0.00347826
0.113357
0.022292
0.10817
0.0420821
0.106294
0.0626315
0.109196
0.0819939
0.117049
0.0967805
0.129345
0.0997791
0.144623
0.0809875
0.159268
0.037869
0.169484
-0.0186367
0.173968
-0.0717523
0.173529
-0.111282
0.169887
-0.134533
0.164709
-0.143379
0.159245
-0.141854
0.154244
-0.133004
0.150058
-0.119497
0.14691
-0.102282
0.145021
-0.0821331
0.14437
-0.0591557
0.144575
-0.0354906
0.145268
-0.0130995
0.146388
0.00427867
0.148215
0.016448
0.150743
0.0198057
0.153751
0.0185706
0.156521
0.00911744
0.158781
0.00115567
0.160077
-0.0114712
0.1607
-0.016468
0.160625
-0.0246629
-0.0242209
0.205575
0.0197296
-0.20564
0.205565
0.0191577
0.205651
0.0185859
0.205745
0.0178549
0.205853
0.0168744
0.206015
0.0156264
0.206254
0.0140759
0.206574
0.01215
0.206964
0.00974208
0.207357
0.00675883
0.20769
0.00311069
0.207855
-0.00136208
0.207728
-0.00665428
0.207147
-0.012736
0.205935
-0.0195613
0.203925
-0.0269396
0.200997
-0.0345593
0.197103
-0.0419986
0.192295
-0.0487501
0.186718
-0.0542743
0.180591
-0.0580555
0.174173
-0.0596465
0.167729
-0.0587235
0.16151
-0.0550119
0.15573
-0.048345
0.150566
-0.0386637
0.146098
-0.025903
0.142097
-0.0102858
0.138137
0.00743819