/*--------------------------------*- C++ -*----------------------------------*\
| =========                 |                                                 |
| \\      /  F ield         | OpenFOAM: The Open Source CFD Toolbox           |
|  \\    /   O peration     | Version:  2512                                  |
|   \\  /    A nd           | Website:  www.openfoam.com                      |
|    \\/     M anipulation  |                                                 |
\*---------------------------------------------------------------------------*/
FoamFile
{
    version     2.0;
    format      ascii;
    arch        "LSB;label=32;scalar=64";
    class       volVectorField;
    location    "49";
    object      U;
}
// * * * * * * * * * * * * * * * * * * * * * * * * * * * * * * * * * * * * * //

dimensions      [0 1 -1 0 0 0 0];

internalField   nonuniform List<vector> 
13248
(
(-0.0119711 0.0108822 5.83065e-20)
(-0.0231112 0.0228298 0)
(-0.0225205 0.028752 -1.10314e-19)
(-0.0108664 0.0308127 1.03919e-19)
(0.011418 0.0306607 9.73066e-20)
(0.0440274 0.0295501 0)
(0.0867032 0.0284232 0)
(0.139129 0.0279827 2.33233e-19)
(0.20081 0.0287391 -1.62703e-21)
(0.270959 0.031035 -2.0288e-19)
(0.348421 0.0350529 1.86884e-19)
(0.431652 0.0408188 -1.167e-19)
(0.518754 0.0482074 0)
(0.607568 0.0569547 -1.98076e-19)
(0.695806 0.0666814 3.69381e-19)
(0.781204 0.0769244 -8.70987e-20)
(0.861669 0.0871796 -1.56923e-19)
(0.935407 0.096923 1.47308e-19)
(1.00104 0.105737 0)
(1.05757 0.11301 0)
(1.10491 0.119047 0)
(1.14192 0.12185 0)
(1.17246 0.125588 4.81102e-20)
(1.19033 0.120248 1.81536e-19)
(-0.0120442 0.00981414 -1.76211e-19)
(-0.0199268 0.0193444 1.20255e-19)
(-0.0127771 0.023481 -1.04886e-21)
(0.00828111 0.0244701 -1.5895e-19)
(0.0425349 0.0240522 -9.72019e-20)
(0.0894159 0.0235666 -9.18806e-20)
(0.148287 0.0239915 -1.68293e-19)
(0.218263 0.0260098 1.59186e-19)
(0.298051 0.0300457 0)
(0.385846 0.0362784 9.47816e-22)
(0.479333 0.0446494 2.11168e-21)
(0.575775 0.0548795 1.17027e-19)
(0.672202 0.066502 0)
(0.765631 0.0789139 0)
(0.85331 0.0914393 1.36157e-19)
(0.93292 0.103399 -2.55657e-19)
(1.00273 0.114175 1.5438e-19)
(1.0617 0.123262 -1.44929e-19)
(1.10945 0.130311 -6.51438e-20)
(1.14637 0.1351 -1.20129e-19)
(1.1731 0.137721 -5.24277e-20)
(1.19148 0.137789 -9.91296e-20)
(1.20217 0.137223 1.42267e-19)
(1.20751 0.131619 4.23644e-20)
(-0.011203 0.00828238 0)
(-0.0136075 0.014905 0)
(0.00270596 0.0173323 5.62302e-20)
(0.0360494 0.0177706 5.17542e-20)
(0.0852702 0.0179791 -1.34911e-21)
(0.149276 0.01932 -9.49328e-20)
(0.226663 0.0227182 0)
(0.31549 0.0287037 -7.90511e-20)
(0.41314 0.0374388 7.41796e-20)
(0.51635 0.0487372 6.39089e-22)
(0.621392 0.0621017 -1.26079e-19)
(0.72438 0.0767937 -1.15356e-19)
(0.82163 0.0919304 2.05348e-21)
(0.91 0.106597 -9.57736e-20)
(0.987149 0.119952 2.29255e-19)
(1.05168 0.131322 0)
(1.10318 0.140251 -1.51241e-19)
(1.14213 0.146526 7.27916e-20)
(1.16975 0.150183 6.50809e-20)
(1.18776 0.151381 0)
(1.19821 0.150626 5.47628e-20)
(1.20309 0.147877 -1.9439e-19)
(1.20391 0.144941 1.82479e-19)
(1.20406 0.138713 1.20933e-19)
(-0.00912185 0.00632597 -6.25889e-20)
(-0.00328894 0.009744 -6.4747e-20)
(0.0251955 0.0108326 5.84333e-20)
(0.0739118 0.011589 0)
(0.140986 0.0136694 0)
(0.224369 0.0183309 -2.04832e-21)
(0.321339 0.0262654 0)
(0.428315 0.0376179 -2.41613e-19)
(0.54091 0.0520341 2.24248e-19)
(0.654236 0.0687342 -2.76528e-19)
(0.763387 0.0866382 6.3171e-20)
(0.863965 0.104532 0)
(0.952536 0.121245 1.05662e-19)
(1.02692 0.135802 -1.95977e-19)
(1.08627 0.147529 4.63992e-20)
(1.13101 0.156099 1.21096e-19)
(1.16256 0.161516 -4.23911e-21)
(1.18303 0.164054 -1.36554e-19)
(1.19485 0.164167 0)
(1.20043 0.162371 0)
(1.2019 0.159272 -5.07071e-20)
(1.20091 0.155037 4.61709e-20)
(1.19875 0.151089 1.69779e-19)
(1.19635 0.144708 -1.59358e-19)
(-0.00544351 0.00404509 -6.61974e-20)
(0.0119006 0.00426728 -6.58088e-20)
(0.0558345 0.00476327 1.8505e-19)
(0.12295 0.00709386 -1.12e-19)
(0.210209 0.0126144 1.05427e-19)
(0.314005 0.0222486 1.91074e-19)
(0.429662 0.036166 -1.3503e-19)
(0.551491 0.0538147 -1.64115e-19)
(0.67325 0.0740622 3.30451e-21)
(0.788847 0.095406 2.09593e-19)
(0.893096 0.116236 0)
(0.982301 0.135099 5.81002e-20)
(1.05455 0.1509 0)
(1.10967 0.163013 -9.53695e-20)
(1.14901 0.171291 1.33996e-19)
(1.17489 0.175992 9.49228e-22)
(1.19018 0.177645 -3.58698e-20)
(1.19778 0.17691 6.71942e-20)
(1.20026 0.174448 5.90001e-20)
(1.19965 0.170828 -5.35248e-20)
(1.19739 0.166519 5.06952e-20)
(1.19442 0.161685 -4.61598e-20)
(1.19111 0.157182 0)
(1.18831 0.150887 -3.63863e-20)
(0.000196862 0.0016152 6.6188e-20)
(0.0327501 -0.000919496 6.95736e-20)
(0.0954646 0.000173312 -6.20207e-20)
(0.183569 0.00570766 1.15401e-19)
(0.292257 0.0164314 -1.08622e-19)
(0.415684 0.032583 9.801e-20)
(0.546713 0.0534316 -4.71229e-20)
(0.677511 0.0774231 1.23281e-19)
(0.800556 0.102527 -7.76621e-20)
(0.909684 0.12664 1.3794e-19)
(1.00085 0.147967 -3.189e-19)
(1.07239 0.165278 1.17615e-19)
(1.12485 0.178014 -1.03393e-19)
(1.16045 0.186235 9.7113e-20)
(1.18238 0.190465 8.4758e-20)
(1.19412 0.191479 7.51142e-20)
(1.19888 0.190115 -2.09678e-19)
(1.19929 0.187129 1.30331e-19)
(1.19727 0.183115 -5.9002e-20)
(1.19406 0.178494 1.56573e-19)
(1.19041 0.173541 -5.03802e-20)
(1.18668 0.168359 -1.26624e-19)
(1.18306 0.163414 1.1747e-19)
(1.17985 0.157225 3.63735e-20)
(0.00813873 -0.000704556 0)
(0.059851 -0.00501644 6.27574e-22)
(0.14442 -0.00167999 1.30052e-19)
(0.255219 0.0089583 -1.21938e-19)
(0.384987 0.0266001 -1.09674e-19)
(0.525078 0.0503455 2.03789e-19)
(0.665842 0.0781979 -9.46162e-20)
(0.797975 0.10747 1.26162e-19)
(0.913985 0.135415 -2.59679e-21)
(1.00921 0.159771 -7.16993e-20)
(1.0821 0.179109 1.56996e-19)
(1.13382 0.192912 -2.32376e-19)
(1.16743 0.201451 0)
(1.18691 0.205514 -4.61418e-20)
(1.19628 0.206121 -1.23899e-19)
(1.19906 0.20428 3.89669e-20)
(1.19794 0.200838 1.27363e-21)
(1.19478 0.196422 -8.79615e-20)
(1.19072 0.191451 4.42364e-21)
(1.18643 0.18618 1.02241e-19)
(1.18221 0.180758 -4.63722e-20)
(1.17819 0.175262 -1.84563e-20)
(1.1744 0.169895 5.5308e-20)
(1.17098 0.163757 0)
(0.0186497 -0.00257131 0)
(0.0934671 -0.00706504 3.53222e-20)
(0.202336 0.000561498 -1.70309e-19)
(0.336217 0.0182739 6.17757e-20)
(0.484801 0.0441778 -5.81423e-20)
(0.636501 0.0757812 -5.31991e-20)
(0.779832 0.109644 -9.39368e-20)
(0.90544 0.142155 4.68838e-20)
(1.00757 0.170372 4.0699e-20)
(1.08444 0.192512 0)
(1.13767 0.208026 9.37345e-20)
(1.1711 0.217365 -1.4023e-19)
(1.18946 0.221591 1.04336e-19)
(1.19739 0.221984 4.61646e-20)
(1.19877 0.219747 -3.83749e-20)
(1.19643 0.215845 -3.24601e-20)
(1.19227 0.210964 -3.05015e-20)
(1.18742 0.205546 9.04402e-20)
(1.18248 0.199856 0)
(1.17775 0.19404 4.66581e-20)
(1.17332 0.188181 4.02258e-20)
(1.16919 0.182333 -9.87582e-20)
(1.16533 0.176533 -6.9433e-20)
(1.16177 0.170407 6.40621e-20)
(0.031871 -0.00357086 -3.85361e-20)
(0.13341 -0.00601816 -1.60706e-21)
(0.26802 0.00820533 3.47174e-20)
(0.423755 0.0347585 9.70845e-20)
(0.587016 0.0695802 2.82474e-20)
(0.743839 0.108306 -5.46456e-20)
(0.88235 0.146237 4.97982e-20)
(0.99496 0.179418 -4.36514e-20)
(1.07911 0.205433 7.8613e-20)
(1.13655 0.223537 3.35757e-20)
(1.17178 0.234305 -9.54823e-20)
(1.19039 0.239082 2.81659e-20)
(1.19772 0.239452 4.84015e-20)
(1.19815 0.236867 -2.37667e-20)
(1.19482 0.232462 0)
(1.18974 0.227022 3.58838e-20)
(1.18409 0.221041 6.12844e-20)
(1.17847 0.214805 1.08986e-20)
(1.17316 0.208468 -5.14634e-20)
(1.16825 0.202116 2.17663e-20)
(1.16374 0.195795 0)
(1.15957 0.18953 -1.74604e-20)
(1.15567 0.183292 -1.68456e-20)
(1.15199 0.177091 0)
(0.0477617 -0.00324436 0)
(0.178945 -0.000839943 2.02389e-20)
(0.339427 0.0223402 3.73805e-20)
(0.51412 0.0590088 -9.93119e-20)
(0.686512 0.102509 3.21861e-20)
(0.841608 0.146684 0)
(0.969038 0.186173 4.83779e-20)
(1.06459 0.21749 -6.76128e-20)
(1.12961 0.239391 -3.93611e-20)
(1.16912 0.25245 1.77608e-20)
(1.18957 0.258295 -2.8729e-20)
(1.19724 0.258881 6.95898e-20)
(1.19721 0.255996 3.49955e-20)
(1.19307 0.25102 -2.42356e-20)
(1.18712 0.244895 -2.17509e-21)
(1.18065 0.238198 -6.71557e-20)
(1.1743 0.231256 3.06486e-20)
(1.16835 0.224243 -8.30649e-22)
(1.1629 0.217248 0)
(1.15795 0.210321 -2.17891e-20)
(1.15344 0.203488 0)
(1.14928 0.196743 5.0388e-20)
(1.1454 0.190069 -6.03737e-20)
(1.14166 0.183694 2.76752e-20)
(0.0660523 -0.00112521 -1.06646e-20)
(0.228752 0.00938602 -5.10834e-20)
(0.413773 0.0436916 5.82176e-20)
(0.603111 0.0910226 3.41121e-20)
(0.778474 0.142037 -1.62457e-20)
(0.925728 0.18933 2.74116e-20)
(1.03781 0.227779 -1.32721e-20)
(1.1148 0.255147 2.21435e-20)
(1.16182 0.271742 0)
(1.18625 0.279426 5.03688e-20)
(1.19549 0.280605 -2.05927e-21)
(1.19562 0.277518 -4.07006e-20)
(1.19094 0.271904 1.74515e-20)
(1.18419 0.264941 -1.97485e-20)
(1.17687 0.257343 -7.55079e-21)
(1.16973 0.249505 8.71269e-21)
(1.16309 0.24163 -6.73696e-21)
(1.15705 0.233821 -3.69454e-20)
(1.1516 0.226127 2.26415e-20)
(1.14671 0.218579 4.66138e-21)
(1.14227 0.211185 4.13635e-21)
(1.13819 0.20392 3.6763e-21)
(1.13436 0.196823 0)
(1.13062 0.190156 0)
(0.08629 0.00322835 1.06719e-20)
(0.281096 0.0253678 -1.0638e-20)
(0.48792 0.0725202 -1.94176e-20)
(0.686686 0.130199 0)
(0.859086 0.186799 -8.08861e-21)
(0.993842 0.23462 -7.32922e-21)
(1.08844 0.269736 -1.25267e-20)
(1.14738 0.291705 0)
(1.17878 0.302447 0)
(1.19138 0.304865 0)
(1.1926 0.301806 0)
(1.1878 0.295525 0)
(1.18038 0.28756 -1.09562e-20)
(1.17224 0.278841 4.98818e-21)
(1.16428 0.269874 8.69907e-21)
(1.15691 0.260914 4.08079e-21)
(1.15024 0.252078 1.01038e-20)
(1.14427 0.243425 0)
(1.13895 0.234982 -2.44548e-21)
(1.13422 0.226765 -2.37286e-21)
(1.12995 0.218762 -4.14295e-21)
(1.12604 0.21095 -3.68219e-21)
(1.12236 0.203441 0)
(1.11872 0.196359 2.69331e-21)
(-0.000945896 -0.00553064 6.63695e-21)
(-0.0052232 -0.0116914 -6.89052e-21)
(-0.0132922 -0.0144773 -1.30492e-20)
(-0.0233075 -0.0148616 0)
(-0.0342311 -0.0136383 -1.74833e-20)
(-0.0455204 -0.0114074 5.50335e-21)
(-0.0567993 -0.00857617 -1.03411e-20)
(-0.0678087 -0.00538446 0)
(-0.0783834 -0.0019396 0)
(-0.0884211 0.00174474 0)
(-0.0978567 0.00571203 0)
(-0.106649 0.0100331 0)
(-0.114765 0.0147816 5.05728e-23)
(-0.122176 0.0200234 -6.77307e-21)
(-0.128852 0.0258071 1.26125e-20)
(-0.134762 0.0321616 1.77888e-20)
(-0.139877 0.0390936 5.48526e-21)
(-0.144172 0.0465887 0)
(-0.147639 0.0546135 4.9047e-21)
(-0.150294 0.0631175 -1.37015e-20)
(-0.152182 0.0720368 -8.51226e-21)
(-0.153379 0.0813014 -7.96455e-21)
(-0.154044 0.0908569 0)
(-0.15457 0.100669 0)
(-0.000889615 -0.00211562 -1.98986e-20)
(-0.00509102 -0.003643 3.43643e-20)
(-0.0130095 -0.00340734 -1.28861e-20)
(-0.0228021 -0.00191029 -2.45699e-20)
(-0.0334202 0.000376287 3.47623e-20)
(-0.0443075 0.00308358 -2.18491e-20)
(-0.0550808 0.00597636 3.08889e-20)
(-0.0654781 0.00893949 1.92967e-20)
(-0.075334 0.0119519 0)
(-0.084546 0.0150567 -1.72125e-20)
(-0.0930489 0.0183324 6.97565e-24)
(-0.100798 0.0218676 1.52171e-20)
(-0.107759 0.025747 2.12662e-20)
(-0.113897 0.0300388 2.66246e-20)
(-0.119178 0.034792 -1.26444e-20)
(-0.123567 0.0400366 -3.52505e-20)
(-0.127028 0.0457867 1.08274e-20)
(-0.129527 0.0520445 -4.09038e-20)
(-0.131041 0.0588073 0)
(-0.13157 0.0660738 9.08485e-21)
(-0.13114 0.0738498 8.50059e-21)
(-0.129771 0.0821561 7.95345e-21)
(-0.127536 0.0910523 0)
(-0.125038 0.100629 0)
(-0.00120243 0.0010829 0)
(-0.00571817 0.00389173 6.83243e-20)
(-0.0135451 0.00693905 -2.57892e-20)
(-0.02296 0.010155 2.4476e-20)
(-0.0329682 0.0133746 -6.89754e-20)
(-0.0430351 0.016452 0)
(-0.052794 0.0193176 -4.08417e-20)
(-0.0619966 0.0219743 1.91354e-20)
(-0.0704868 0.0244816 -3.60068e-20)
(-0.0781689 0.0269351 1.67691e-20)
(-0.0849816 0.0294449 9.54054e-20)
(-0.0908815 0.0321184 -4.48021e-20)
(-0.0958323 0.0350481 -7.00953e-20)
(-0.0997988 0.0383055 -2.59775e-20)
(-0.102743 0.0419398 1.52482e-22)
(-0.104625 0.045981 9.20842e-20)
(-0.105399 0.0504455 -4.31559e-20)
(-0.105017 0.0553435 3.42869e-22)
(-0.103435 0.0606898 0)
(-0.10062 0.0665179 -3.4884e-20)
(-0.0965585 0.0728968 0)
(-0.0912084 0.0799558 -3.09808e-20)
(-0.0844686 0.0878911 1.15287e-19)
(-0.0769519 0.0968549 1.71912e-22)
(-0.00183129 0.00390924 0)
(-0.00701693 0.0105617 -1.48308e-23)
(-0.0148418 0.0160942 2.57682e-20)
(-0.0237796 0.0207989 -2.4314e-20)
(-0.0329377 0.0247837 2.29299e-20)
(-0.0418329 0.0281069 1.29483e-19)
(-0.0501362 0.030851 -4.06254e-20)
(-0.0576268 0.0331278 -3.81173e-20)
(-0.0641686 0.0350702 7.17693e-20)
(-0.0696785 0.036821 -1.01057e-19)
(-0.0741033 0.0385194 3.15136e-20)
(-0.0774036 0.0402896 2.94843e-20)
(-0.0795446 0.0422324 0)
(-0.0804906 0.0444229 2.60949e-20)
(-0.0802018 0.0469104 0)
(-0.0786334 0.0497225 4.51039e-20)
(-0.0757346 0.0528709 -8.45859e-20)
(-0.0714474 0.0563596 2.03708e-20)
(-0.0657052 0.0601976 7.41672e-20)
(-0.05844 0.064419 3.48505e-20)
(-0.0495912 0.0691109 0)
(-0.0390951 0.0744601 -9.06659e-20)
(-0.0269183 0.0808478 2.85638e-20)
(-0.0126263 0.0892954 0)
(-0.00271026 0.00627437 0)
(-0.00886655 0.0161439 -8.18197e-20)
(-0.0167941 0.0237369 -2.58805e-20)
(-0.0252004 0.0296295 -4.8602e-20)
(-0.0333241 0.0341615 4.57646e-20)
(-0.0407551 0.0375719 -4.31168e-20)
(-0.0472186 0.040079 8.09248e-20)
(-0.0525338 0.0418913 3.79709e-20)
(-0.0565918 0.0432074 -1.07217e-19)
(-0.0593275 0.0442118 6.6829e-20)
(-0.0606981 0.0450698 -9.41326e-20)
(-0.0606695 0.0459207 2.05062e-19)
(-0.059208 0.0468745 -1.10087e-19)
(-0.0562765 0.0480114 5.11361e-20)
(-0.0518322 0.0493829 1.43449e-19)
(-0.0458264 0.0510161 -4.55886e-20)
(-0.0382041 0.0529172 -4.20824e-20)
(-0.0289026 0.0550787 -3.95062e-20)
(-0.0178468 0.0574887 0)
(-0.00495673 0.0601447 -6.77524e-20)
(0.00982802 0.0630809 -6.2928e-20)
(0.0266313 0.0664616 8.93619e-20)
(0.0461073 0.0709408 1.11098e-19)
(0.06857 0.078239 -1.04186e-19)
(-0.00377312 0.00815297 0)
(-0.0111312 0.0205437 -1.09457e-19)
(-0.0192561 0.0296979 -1.2977e-22)
(-0.0270909 0.0364101 9.72542e-20)
(-0.0340177 0.0412158 0)
(-0.039714 0.0445115 0)
(-0.0439705 0.0466347 0)
(-0.0466544 0.0478786 -3.78442e-20)
(-0.0476885 0.0484986 2.28682e-22)
(-0.0470265 0.048716 6.67473e-20)
(-0.044635 0.0487183 -9.34672e-20)
(-0.0404818 0.0486591 2.44193e-22)
(-0.0345301 0.0486582 0)
(-0.0267357 0.0488032 -5.11154e-20)
(-0.0170463 0.0491525 4.69722e-20)
(-0.00540328 0.0497383 -1.3304e-19)
(0.00825719 0.0505696 1.65034e-19)
(0.0240043 0.0516365 3.74782e-20)
(0.0419141 0.0529141 -9.87208e-22)
(0.0620676 0.054366 -1.34381e-19)
(0.0845192 0.0559557 -6.20723e-20)
(0.109333 0.0577227 2.03596e-19)
(0.137079 0.0602264 -1.35803e-19)
(0.171042 0.065523 0)
(-0.00496524 0.0095731 5.33133e-20)
(-0.0136736 0.0237761 5.47641e-20)
(-0.022039 0.0339456 -5.19402e-20)
(-0.029221 0.0410565 -9.75067e-20)
(-0.0347468 0.0458153 9.18118e-20)
(-0.0383883 0.0487577 -8.60682e-20)
(-0.040007 0.0503255 1.21436e-19)
(-0.0395195 0.0508859 -3.77575e-20)
(-0.0368777 0.0507437 7.11279e-20)
(-0.032049 0.0501515 0)
(-0.0250012 0.0493171 6.16237e-20)
(-0.0156944 0.0484077 -1.16097e-19)
(-0.00407784 0.0475542 1.07956e-19)
(0.00991015 0.0468548 -1.01396e-19)
(0.0263398 0.0463791 0)
(0.0452861 0.0461709 8.78371e-20)
(0.0668245 0.0462517 1.62609e-19)
(0.0910263 0.0466224 -1.53004e-19)
(0.117955 0.0472644 -7.06583e-20)
(0.147666 0.0481391 -6.60229e-20)
(0.180157 0.0491826 1.85801e-19)
(0.215616 0.0503275 5.68678e-20)
(0.252704 0.0516349 -5.36437e-20)
(0.303066 0.0557504 4.97214e-20)
(-0.00624613 0.0105935 -5.33206e-20)
(-0.0163522 0.0259264 1.65994e-19)
(-0.0248922 0.0365502 -5.22183e-20)
(-0.0312209 0.0436137 9.79218e-20)
(-0.0350062 0.0479836 -9.22021e-20)
(-0.0361155 0.0503229 3.30971e-22)
(-0.0344779 0.0511671 4.06811e-20)
(-0.0300512 0.0509491 1.51345e-19)
(-0.0228051 0.0500173 -7.63174e-22)
(-0.012706 0.0486537 -6.67064e-20)
(0.000292615 0.0470858 0)
(0.0162523 0.0454964 -5.72568e-20)
(0.0352481 0.04403 1.08173e-19)
(0.0573631 0.042799 1.00054e-19)
(0.0826806 0.0418877 -4.7292e-20)
(0.111274 0.041356 -2.89895e-22)
(0.143199 0.0412415 -4.0729e-20)
(0.17848 0.0415609 7.52735e-20)
(0.2171 0.04231 7.06469e-20)
(0.259026 0.0434729 -6.58154e-20)
(0.303878 0.0449431 6.08324e-20)
(0.35295 0.0469306 -5.66694e-20)
(0.399211 0.0482971 0)
(0.470665 0.0533225 -4.96618e-20)
(-0.00758138 0.0112761 5.40175e-20)
(-0.0190006 0.0271008 -5.54979e-20)
(-0.0274688 0.0376339 5.27353e-20)
(-0.0325286 0.044216 0)
(-0.0339843 0.0478744 0)
(-0.0317927 0.0493947 8.69744e-20)
(-0.025938 0.0493995 -8.14442e-20)
(-0.0164017 0.048382 7.55626e-20)
(-0.00315186 0.0467333 -3.54949e-19)
(0.0138639 0.0447649 4.1399e-22)
(0.0347176 0.0427271 6.18121e-20)
(0.0594932 0.0408216 0)
(0.0882742 0.03921 -1.06961e-19)
(0.121128 0.03802 2.0005e-19)
(0.158087 0.0373494 -1.40196e-19)
(0.199136 0.0372683 -2.15988e-19)
(0.244189 0.0378205 1.42012e-21)
(0.293083 0.0390243 1.50283e-19)
(0.345544 0.0408639 0)
(0.401385 0.0433755 0)
(0.459189 0.0461762 -6.0828e-20)
(0.522731 0.0503823 5.66638e-20)
(0.57582 0.0526922 -2.0994e-19)
(0.667113 0.0607448 1.97014e-19)
(-0.00892562 0.0116613 0)
(-0.0213924 0.0273796 0)
(-0.0292828 0.03732 -1.586e-19)
(-0.0323426 0.0430416 5.04161e-20)
(-0.0305115 0.0457378 4.75914e-22)
(-0.0238234 0.0463148 8.8105e-20)
(-0.0122999 0.0454801 0)
(0.00407263 0.0437874 -7.64032e-20)
(0.0253406 0.0416709 7.10776e-20)
(0.0515725 0.0394752 -1.32249e-19)
(0.0828406 0.0374764 4.78492e-22)
(0.119195 0.0358956 1.14675e-19)
(0.160634 0.0349077 -9.73874e-22)
(0.207076 0.0346449 9.83888e-20)
(0.258333 0.035199 -1.40167e-19)
(0.314093 0.0366211 0)
(0.373911 0.038922 1.59828e-19)
(0.437209 0.0420753 -2.24878e-19)
(0.503229 0.0459836 6.92532e-20)
(0.571497 0.0507245 0)
(0.63943 0.0554759 6.00112e-20)
(0.71261 0.0622621 2.24264e-19)
(0.768796 0.0657472 -2.10462e-19)
(0.867502 0.0768938 -2.46394e-19)
(-0.0102009 0.0117512 1.65826e-19)
(-0.0232028 0.0267863 -2.28258e-19)
(-0.0296737 0.0356999 4.18915e-22)
(-0.0296007 0.0402836 5.08023e-20)
(-0.0230642 0.041897 -9.46607e-20)
(-0.0101645 0.0415678 -8.768e-20)
(0.00905047 0.0400892 1.63646e-19)
(0.0345866 0.0380749 -1.70629e-21)
(0.0664758 0.036004 -1.43481e-19)
(0.104737 0.0342527 2.65581e-19)
(0.149327 0.0331163 -1.29096e-21)
(0.200094 0.0328199 -1.15835e-19)
(0.256735 0.0335235 0)
(0.31876 0.0353225 0)
(0.385481 0.0382473 -4.63716e-20)
(0.456016 0.0422628 -8.59297e-20)
(0.529311 0.0472708 -1.5916e-19)
(0.604183 0.0531158 1.49399e-19)
(0.679333 0.0595715 -6.92781e-20)
(0.753707 0.066533 1.27928e-19)
(0.824873 0.0732056 -6.10251e-20)
(0.89649 0.0811086 1.10623e-19)
(0.951109 0.0854756 -2.60274e-19)
(1.0368 0.0966798 4.86171e-20)
(-0.0112766 0.0115087 5.59593e-20)
(-0.0239728 0.0252875 0)
(-0.0277784 0.0328316 1.08572e-19)
(-0.0229805 0.0361471 -1.02281e-19)
(-0.00981353 0.0367503 9.47469e-20)
(0.0115495 0.0357873 0)
(0.0410096 0.0341314 0)
(0.0785018 0.0324508 -7.66828e-20)
(0.123926 0.031258 1.44086e-21)
(0.177065 0.0309406 6.76714e-20)
(0.237514 0.0317779 -6.15968e-20)
(0.304614 0.0339463 1.16176e-19)
(0.377427 0.0375212 0)
(0.454734 0.0424761 1.98223e-19)
(0.535071 0.0486868 -3.70086e-19)
(0.616798 0.0559382 2.58697e-19)
(0.698182 0.0639423 1.58303e-19)
(0.777488 0.0723388 -1.48598e-19)
(0.853114 0.0807909 0)
(0.923539 0.0887923 0)
(0.98769 0.0962241 0)
(1.04525 0.102483 0)
(1.09163 0.107148 5.16254e-20)
(1.14678 0.113073 -1.93147e-19)
(-0.155574 0.112242 -4.96732e-21)
(-0.156984 0.125285 4.99197e-21)
(-0.157473 0.137578 -1.51048e-22)
(-0.157199 0.148547 0)
(-0.156167 0.157469 -4.60963e-21)
(-0.15435 0.163517 8.99252e-21)
(-0.151723 0.165784 3.93218e-23)
(-0.148228 0.163282 -4.3017e-21)
(-0.143744 0.154979 0)
(-0.138195 0.140034 0)
(-0.131481 0.11747 -2.68935e-22)
(-0.123432 0.0866152 -2.66382e-22)
(-0.113899 0.047104 -4.30027e-21)
(-0.10308 -0.000955875 3.92409e-21)
(-0.0908461 -0.0569155 0)
(-0.0775218 -0.118549 0)
(-0.0638652 -0.183684 3.30152e-21)
(-0.0508368 -0.248289 -1.93044e-22)
(-0.0400861 -0.308985 -2.74764e-21)
(-0.0330667 -0.36227 -1.61146e-22)
(-0.0303483 -0.404937 0)
(-0.0304327 -0.433437 0)
(-0.0289377 -0.442843 0)
(-0.0192574 -0.426818 0)
(0.00457575 -0.37933 0)
(0.0448209 -0.297584 0)
(0.0982428 -0.185011 7.04288e-22)
(0.159926 -0.0543402 -1.08999e-21)
(0.225128 0.0805054 0)
(0.288577 0.203031 0)
(0.344477 0.29868 -5.75677e-22)
(0.386359 0.361207 5.59477e-22)
(0.406102 0.39592 1.97849e-22)
(0.393644 0.416911 0)
(0.349632 0.430764 0)
(0.302212 0.419562 2.66823e-22)
(0.29408 0.35295 -2.59363e-22)
(0.339606 0.227286 0)
(0.417833 0.0751934 2.65215e-22)
(0.503075 -0.0631975 -3.89394e-22)
(0.577942 -0.164713 1.0086e-22)
(0.63434 -0.223124 0)
(0.670812 -0.243899 -6.14363e-23)
(0.688814 -0.238492 5.97397e-23)
(0.681816 -0.221399 0)
(0.653338 -0.200103 0)
(0.620229 -0.169507 4.85666e-24)
(0.612293 -0.122744 -1.86977e-23)
(0.633318 -0.0639196 0)
(0.677142 -0.00611209 0)
(0.719602 0.0382472 4.85192e-24)
(0.758582 0.0670147 1.42536e-24)
(0.778083 0.0784471 -1.11039e-24)
(0.793716 0.0821982 -7.90761e-24)
(0.792146 0.0722354 0)
(0.8021 0.0628708 0)
(0.802455 0.0405451 0)
(0.823347 0.0253219 0)
(0.829804 0.00535374 0)
(0.856317 -0.00967614 0)
(-0.123435 0.112375 -4.73436e-22)
(-0.122851 0.124815 -1.98309e-20)
(-0.121038 0.136388 2.47809e-23)
(-0.11821 0.146713 1.85849e-20)
(-0.114419 0.15504 2.92418e-22)
(-0.109603 0.16053 0)
(-0.103706 0.162243 -1.81094e-20)
(-0.0966768 0.159121 3.61765e-20)
(-0.0882513 0.150016 -1.80679e-20)
(-0.0784349 0.134371 1.81627e-20)
(-0.0672701 0.11095 -1.73848e-20)
(-0.054658 0.0790984 1.76303e-20)
(-0.0406791 0.038478 -1.71692e-20)
(-0.0255114 -0.0107356 -5.58252e-22)
(-0.009294 -0.0671424 -1.65191e-20)
(0.00704267 -0.129087 1.60534e-20)
(0.0229639 -0.193501 -1.44004e-20)
(0.0371455 -0.256676 1.35573e-20)
(0.0469815 -0.31481 -1.16989e-20)
(0.0503518 -0.364618 2.13464e-20)
(0.0455759 -0.403794 -9.71205e-21)
(0.032948 -0.430378 -4.8089e-22)
(0.0161162 -0.441285 -6.56074e-21)
(0.00232905 -0.430887 1.24653e-20)
(0.000756033 -0.392399 -5.91782e-21)
(0.0184932 -0.320709 3.2707e-22)
(0.0549124 -0.215588 6.29078e-21)
(0.10576 -0.0884295 2.36125e-22)
(0.165994 0.0456061 -1.13262e-20)
(0.22803 0.170723 1.03303e-20)
(0.284438 0.272609 -4.79632e-21)
(0.326981 0.345351 4.47393e-22)
(0.345713 0.393937 -1.98272e-22)
(0.333471 0.428533 3.31524e-22)
(0.299703 0.447227 0)
(0.277803 0.426518 0)
(0.300994 0.342144 -1.37127e-21)
(0.368728 0.202352 9.56294e-22)
(0.458216 0.0449084 8.9112e-22)
(0.547392 -0.0922291 -7.07293e-23)
(0.621415 -0.187849 -1.08177e-21)
(0.673891 -0.238953 1.51142e-22)
(0.705271 -0.253145 0)
(0.721103 -0.241219 0)
(0.717605 -0.217082 0)
(0.69294 -0.191054 0)
(0.65481 -0.161997 -4.13685e-23)
(0.631245 -0.122118 1.39875e-23)
(0.633439 -0.0704948 0)
(0.663164 -0.0161395 0)
(0.69791 0.0285455 0)
(0.733989 0.0599537 1.62847e-23)
(0.753753 0.0742296 2.69267e-24)
(0.771519 0.080219 1.48833e-23)
(0.775558 0.0708424 0)
(0.791165 0.0610886 0)
(0.800251 0.037824 -7.17446e-24)
(0.825233 0.0220712 -1.4044e-23)
(0.837465 0.00200912 0)
(0.864039 -0.012266 0)
(-0.0716038 0.108932 6.31816e-22)
(-0.0688905 0.120931 -3.92666e-20)
(-0.0645292 0.13187 3.95972e-20)
(-0.0588232 0.141587 -3.7027e-20)
(-0.0519822 0.149356 -2.94415e-22)
(-0.0439159 0.15433 0)
(-0.0345709 0.155561 -3.84047e-20)
(-0.0239985 0.152019 3.76476e-20)
(-0.0116178 0.142716 2.88935e-22)
(0.00255375 0.126664 6.02683e-22)
(0.0180663 0.102803 6.0634e-22)
(0.0350812 0.070464 5.76943e-22)
(0.0533612 0.0293605 -3.80182e-20)
(0.0726732 -0.0202279 3.75082e-20)
(0.0925936 -0.0768379 0)
(0.112172 -0.13858 1.09525e-21)
(0.130416 -0.20177 -3.08144e-20)
(0.145677 -0.263022 3.03812e-20)
(0.15544 -0.317929 0)
(0.15694 -0.363153 0)
(0.147602 -0.396912 -1.76537e-20)
(0.126243 -0.41894 3.16775e-20)
(0.0948224 -0.428678 -2.55385e-20)
(0.0596554 -0.422615 1.45334e-21)
(0.0311035 -0.39365 1.9379e-20)
(0.020994 -0.333841 -1.91578e-20)
(0.0339981 -0.240734 1.83293e-20)
(0.0675109 -0.120924 -3.46589e-22)
(0.117468 0.0109179 -9.24153e-21)
(0.17437 0.137797 0)
(0.228398 0.246143 0)
(0.269611 0.329729 2.3848e-21)
(0.288265 0.391679 -3.1381e-21)
(0.281772 0.436733 -4.36718e-24)
(0.265904 0.45569 2.73007e-21)
(0.272954 0.423512 -2.65308e-21)
(0.323575 0.324047 0)
(0.408329 0.174386 3.78054e-22)
(0.505698 0.0143755 3.19605e-21)
(0.596236 -0.12 -5.69319e-21)
(0.66742 -0.209084 2.19843e-21)
(0.714778 -0.25277 1.75851e-22)
(0.740092 -0.260964 -7.38511e-22)
(0.75146 -0.244121 5.33221e-22)
(0.74933 -0.214371 1.7441e-23)
(0.730145 -0.182964 -2.81633e-23)
(0.692913 -0.152844 4.14722e-23)
(0.659624 -0.117577 0)
(0.645099 -0.0729113 0)
(0.65915 -0.0232469 1.69739e-22)
(0.683697 0.0203513 -7.41519e-23)
(0.714841 0.0533272 7.21998e-23)
(0.734385 0.0697263 -9.74101e-23)
(0.754599 0.0773041 -1.18472e-22)
(0.765416 0.0681337 2.81894e-23)
(0.787075 0.0577794 -4.14513e-23)
(0.804892 0.0338333 2.99102e-23)
(0.833027 0.0179307 -8.57743e-24)
(0.850123 -0.00181331 0)
(0.87569 -0.0148168 0)
(-0.00270005 0.101297 -8.0388e-20)
(0.00188261 0.113082 -3.28744e-22)
(0.00855963 0.12353 7.65844e-20)
(0.0170727 0.132649 -6.02685e-22)
(0.0269418 0.139908 0)
(0.0382086 0.144464 0)
(0.050999 0.145352 -7.91089e-20)
(0.0653468 0.141577 -3.47971e-21)
(0.0814581 0.132337 1.17585e-19)
(0.0994117 0.11619 8.85831e-22)
(0.118945 0.0923457 -3.98417e-20)
(0.139966 0.0600781 -3.93758e-20)
(0.162105 0.0190946 3.94979e-20)
(0.185103 -0.0301001 0)
(0.208355 -0.0862051 -3.77024e-20)
(0.230696 -0.147116 3.43789e-20)
(0.250936 -0.209255 0)
(0.267264 -0.268465 0)
(0.277187 -0.320072 2.48514e-20)
(0.277916 -0.360189 -3.39378e-21)
(0.266624 -0.3871 -1.95818e-20)
(0.240948 -0.401901 -1.38406e-20)
(0.200533 -0.406763 1.36829e-20)
(0.149338 -0.401428 -8.88111e-21)
(0.0972426 -0.380178 1.27295e-21)
(0.0579002 -0.333429 7.11727e-21)
(0.0419839 -0.255962 8.61639e-22)
(0.0516361 -0.148108 1.65395e-22)
(0.0845284 -0.0218556 0)
(0.131062 0.105455 6.72878e-21)
(0.179589 0.21977 -6.88512e-21)
(0.218647 0.31364 3.97979e-22)
(0.239905 0.386951 0)
(0.244768 0.438739 -3.31173e-22)
(0.251554 0.454838 5.94318e-21)
(0.28665 0.41181 -1.17013e-20)
(0.359359 0.301139 -1.72433e-21)
(0.456801 0.145302 -1.40734e-22)
(0.559255 -0.0156287 6.16247e-21)
(0.648817 -0.145768 6.7562e-22)
(0.71506 -0.228008 -3.48929e-21)
(0.75604 -0.26445 3.06149e-21)
(0.774918 -0.267078 -1.15309e-23)
(0.780612 -0.246554 2.17905e-22)
(0.77736 -0.21297 -2.29311e-22)
(0.763141 -0.176672 2.70152e-22)
(0.730864 -0.143706 -5.34953e-23)
(0.694238 -0.110481 -2.5786e-22)
(0.667403 -0.0715327 4.83871e-22)
(0.66633 -0.0270905 -3.20485e-22)
(0.679311 0.0141254 7.15529e-23)
(0.703904 0.0473938 -8.75944e-23)
(0.72274 0.0649492 -7.92786e-23)
(0.745407 0.0733254 1.79464e-22)
(0.763372 0.0640161 -3.30604e-24)
(0.790684 0.0529929 3.5783e-23)
(0.816195 0.0287476 0)
(0.846134 0.0131312 1.18819e-23)
(0.866704 -0.00590197 -5.82603e-24)
(0.890247 -0.0172298 0)
(0.0815548 0.0898929 8.05168e-20)
(0.0882002 0.101689 -1.5845e-19)
(0.0961399 0.111686 7.70087e-20)
(0.106648 0.120211 7.89102e-20)
(0.11902 0.127032 -1.56412e-19)
(0.132993 0.131331 -2.11726e-21)
(0.14867 0.132094 7.80005e-20)
(0.166163 0.128295 8.14554e-20)
(0.185546 0.119048 -7.97937e-20)
(0.206829 0.103187 0)
(0.229818 0.0798063 -8.43648e-20)
(0.254259 0.0481066 1.66736e-19)
(0.279875 0.00761418 -8.23348e-20)
(0.306114 -0.040244 0)
(0.332172 -0.0952078 0)
(0.356786 -0.154855 1.16343e-21)
(0.378551 -0.215524 -6.72866e-20)
(0.395475 -0.272632 6.53633e-20)
(0.405156 -0.321052 0)
(0.405054 -0.356366 4.31915e-20)
(0.392671 -0.376655 -7.36674e-20)
(0.365635 -0.383425 5.74624e-20)
(0.322177 -0.380658 -4.41463e-20)
(0.263046 -0.371366 4.35408e-21)
(0.1948 -0.353447 2.45643e-20)
(0.130083 -0.318422 -1.06119e-20)
(0.0841676 -0.257496 -3.52618e-22)
(0.0651761 -0.165751 -4.19997e-21)
(0.0747458 -0.0497336 -3.45538e-22)
(0.105338 0.0752622 4.63287e-21)
(0.144789 0.193444 3.51582e-22)
(0.181138 0.295486 -4.78025e-21)
(0.207369 0.377314 9.55108e-21)
(0.227073 0.432758 -5.35883e-21)
(0.257423 0.444873 0)
(0.316606 0.393419 -8.24271e-21)
(0.406068 0.275525 8.14761e-21)
(0.512586 0.116297 -6.9637e-21)
(0.617675 -0.0437773 8.71048e-21)
(0.704135 -0.16879 -7.93126e-22)
(0.763512 -0.244121 0)
(0.79684 -0.273802 -3.74128e-22)
(0.809053 -0.271393 6.35095e-22)
(0.808851 -0.248064 0)
(0.802572 -0.212303 -2.13353e-23)
(0.791411 -0.172394 -7.11392e-23)
(0.765799 -0.135881 -1.20169e-22)
(0.731321 -0.102425 -1.55425e-22)
(0.697948 -0.0673063 0)
(0.684532 -0.0278322 0)
(0.686181 0.0100806 3.01102e-22)
(0.703356 0.0423476 -4.61577e-22)
(0.720989 0.0599676 2.42837e-22)
(0.745684 0.0683115 -7.45819e-23)
(0.77021 0.0585957 -1.08817e-22)
(0.802001 0.0469738 -3.58169e-23)
(0.833311 0.0228789 3.8759e-23)
(0.863497 0.00797613 0)
(0.885893 -0.0100169 1.23441e-23)
(0.906549 -0.0194137 4.28183e-24)
(0.185336 0.0770676 8.11132e-20)
(0.192274 0.0884202 -8.05374e-20)
(0.199537 0.0976014 6.20579e-22)
(0.210201 0.105299 -6.12275e-22)
(0.223592 0.111544 6.17919e-22)
(0.238997 0.115522 -6.21444e-22)
(0.256373 0.116155 1.25021e-21)
(0.275881 0.11243 0)
(0.297566 0.103437 -1.2881e-21)
(0.321344 0.0881531 1.30802e-21)
(0.346941 0.0656324 1.32439e-21)
(0.373861 0.0350191 -1.33213e-21)
(0.402536 -0.00390384 0)
(0.431583 -0.0502493 0)
(0.459656 -0.103625 1.27464e-21)
(0.48593 -0.161403 0)
(0.508629 -0.219988 -1.1189e-21)
(0.52554 -0.274596 0)
(0.534178 -0.319825 -4.98623e-20)
(0.532238 -0.351067 9.06575e-20)
(0.517984 -0.366058 -7.23418e-20)
(0.490084 -0.365891 3.17502e-20)
(0.447051 -0.354928 1.70859e-20)
(0.387458 -0.338484 -1.65933e-20)
(0.313228 -0.318769 -7.71308e-21)
(0.232633 -0.290632 7.41131e-21)
(0.161377 -0.244214 0)
(0.112924 -0.17037 5.76168e-23)
(0.0951771 -0.0689783 0)
(0.104959 0.0488377 0)
(0.131725 0.167178 6.18171e-21)
(0.164128 0.274105 -6.25078e-21)
(0.195914 0.361422 4.1132e-22)
(0.23079 0.418548 5.99321e-22)
(0.282142 0.427211 -7.09394e-22)
(0.360004 0.370486 -7.99986e-21)
(0.461451 0.248823 7.76616e-21)
(0.574097 0.0885972 -9.76383e-21)
(0.679554 -0.0690852 8.43183e-21)
(0.76091 -0.188457 1.64384e-21)
(0.811905 -0.257008 -3.98727e-21)
(0.836544 -0.280665 9.79263e-22)
(0.841829 -0.273958 1.97155e-21)
(0.836045 -0.248477 0)
(0.825826 -0.211796 -8.80421e-23)
(0.815437 -0.169853 -3.34964e-22)
(0.796096 -0.130098 3.89945e-22)
(0.767345 -0.0948845 1.56411e-22)
(0.733223 -0.0615612 0)
(0.71193 -0.0261018 -1.22473e-22)
(0.704211 0.00812536 2.69622e-22)
(0.714116 0.0382907 -9.93957e-24)