/*--------------------------------*- C++ -*----------------------------------*\
| =========                 |                                                 |
| \\      /  F ield         | OpenFOAM: The Open Source CFD Toolbox           |
|  \\    /   O peration     | Version:  2512                                  |
|   \\  /    A nd           | Website:  www.openfoam.com                      |
|    \\/     M anipulation  |                                                 |
\*---------------------------------------------------------------------------*/
FoamFile
{
    version     2.0;
    format      ascii;
    arch        "LSB;label=32;scalar=64";
    class       volVectorField;
    location    "86";
    object      U;
}
// * * * * * * * * * * * * * * * * * * * * * * * * * * * * * * * * * * * * * //

dimensions      [0 1 -1 0 0 0 0];

internalField   nonuniform List<vector> 
13248
(
(-0.0129376 0.0112193 6.66888e-20)
(-0.0250618 0.0230586 0)
(-0.0243406 0.0285101 -1.26042e-19)
(-0.0108149 0.0302209 1.18734e-19)
(0.0155433 0.0299903 1.10825e-19)
(0.0547488 0.0290639 0)
(0.106732 0.028328 0)
(0.171185 0.0284159 2.62383e-19)
(0.247397 0.0297491 -2.25534e-21)
(0.33412 0.0325615 -2.27458e-19)
(0.429494 0.0368976 2.09359e-19)
(0.531067 0.0426093 -1.30627e-19)
(0.6359 0.0493656 0)
(0.740759 0.0566804 -2.2461e-19)
(0.842351 0.063958 4.20474e-19)
(0.937568 0.0705525 -9.92983e-20)
(1.02371 0.0758387 -1.82542e-19)
(1.09869 0.0792489 1.71362e-19)
(1.16114 0.0804329 0)
(1.21049 0.0788592 0)
(1.24702 0.0753062 0)
(1.27154 0.0669665 0)
(1.28559 0.0615364 5.63573e-20)
(1.29131 0.0390821 2.11511e-19)
(-0.0134967 0.0106311 -2.01523e-19)
(-0.0219558 0.0201822 1.37552e-19)
(-0.0132215 0.023563 -1.31589e-21)
(0.0119023 0.0236557 -1.81648e-19)
(0.0529906 0.022493 -1.10704e-19)
(0.109629 0.02152 -1.04601e-19)
(0.181127 0.0217317 -1.90481e-19)
(0.266264 0.0237626 1.80569e-19)
(0.36308 0.0279327 0)
(0.468803 0.0342625 1.09576e-21)
(0.579926 0.0424846 2.73446e-21)
(0.692448 0.0520758 1.31733e-19)
(0.802209 0.0623181 0)
(0.905277 0.0723856 0)
(0.998288 0.0814437 1.55459e-19)
(1.07873 0.088747 -2.9202e-19)
(1.1451 0.0937197 1.77808e-19)
(1.19697 0.0960072 -1.66933e-19)
(1.2349 0.0954924 -7.49485e-20)
(1.26033 0.0922749 -1.39525e-19)
(1.27517 0.0866788 -6.01557e-20)
(1.28192 0.0788427 -1.14089e-19)
(1.28215 0.0707508 1.63679e-19)
(1.27988 0.058168 4.78554e-20)
(-0.0128398 0.0092962 0)
(-0.0149524 0.0159545 0)
(0.00488928 0.017532 6.42587e-20)
(0.0449967 0.016872 5.90153e-20)
(0.104238 0.0160793 -1.70993e-21)
(0.181356 0.0166799 -1.08665e-19)
(0.274462 0.0196348 0)
(0.380734 0.0254026 -8.95542e-20)
(0.496319 0.0339809 8.42864e-20)
(0.616494 0.0449434 1.1169e-21)
(0.736068 0.0575121 -1.42577e-19)
(0.849923 0.0706752 -1.30551e-19)
(0.953572 0.0833361 2.19612e-21)
(1.0436 0.0944677 -1.08852e-19)
(1.11796 0.103245 2.60244e-19)
(1.17601 0.109134 0)
(1.21845 0.111926 -1.72528e-19)
(1.24703 0.111706 8.33592e-20)
(1.26419 0.108829 7.48872e-20)
(1.27261 0.103688 0)
(1.27491 0.0971073 6.30094e-20)
(1.27319 0.0887963 -2.19786e-19)
(1.26891 0.0816499 2.06324e-19)
(1.26445 0.0698635 1.33402e-19)
(-0.010576 0.00726125 -7.17526e-20)
(-0.00307345 0.0105439 -7.4291e-20)
(0.0312776 0.0107655 6.69334e-20)
(0.0897313 0.0104519 0)
(0.170057 0.0115801 0)
(0.269551 0.0155602 -2.68227e-21)
(0.384392 0.023073 0)
(0.509484 0.034107 -2.75635e-19)
(0.638702 0.0480421 2.55606e-19)
(0.765503 0.063783 -3.14529e-19)
(0.883728 0.0799608 7.16045e-20)
(0.988362 0.0951709 0)
(1.07607 0.108197 1.19753e-19)
(1.14542 0.118176 -2.22069e-19)
(1.19679 0.124676 5.26532e-20)
(1.232 0.127686 1.37182e-19)
(1.25385 0.127531 -4.9154e-21)
(1.26548 0.124751 -1.53842e-19)
(1.26994 0.119961 0)
(1.26977 0.113759 0)
(1.26682 0.106676 -5.65969e-20)
(1.2623 0.0988748 5.12447e-20)
(1.25685 0.0918054 1.87397e-19)
(1.25149 0.0816212 -1.75917e-19)
(-0.00633901 0.00470373 -7.60687e-20)
(0.0145639 0.00447391 -7.56227e-20)
(0.0670049 0.00413012 2.12545e-19)
(0.146886 0.00559111 -1.28581e-19)
(0.250302 0.0104382 1.21029e-19)
(0.372333 0.0196571 2.19005e-19)
(0.506506 0.0332805 -1.54892e-19)
(0.645082 0.050463 -1.88009e-19)
(0.779928 0.0697148 4.08491e-21)
(0.903643 0.0892239 2.39114e-19)
(1.01058 0.107216 0)
(1.09749 0.122267 6.59882e-20)
(1.16357 0.133494 0)
(1.21021 0.140602 -1.07805e-19)
(1.24029 0.14381 1.51506e-19)
(1.25742 0.143681 1.25708e-21)
(1.26526 0.140943 -4.02656e-20)
(1.26699 0.136319 7.57159e-20)
(1.26503 0.130434 6.58258e-20)
(1.26101 0.123747 -5.94706e-20)
(1.2559 0.116626 5.65851e-20)
(1.25024 0.109133 -5.12335e-20)
(1.24423 0.102181 0)
(1.23852 0.0930083 -3.93178e-20)
(0.000214959 0.00190185 7.60578e-20)
(0.0386923 -0.00143708 8.00653e-20)
(0.112747 -0.00107541 -7.12765e-20)
(0.216469 0.00394776 1.32771e-19)
(0.343525 0.0144363 -1.24966e-19)
(0.486007 0.0305106 1.1269e-19)
(0.634385 0.0511149 -5.42668e-20)
(0.778615 0.0742747 1.41237e-19)
(0.909708 0.0976071 -8.90348e-20)
(1.02111 0.118858 1.57354e-19)
(1.10945 0.136327 -3.63257e-19)
(1.1745 0.149094 1.33757e-19)
(1.21855 0.15701 -1.16935e-19)
(1.24543 0.160535 1.09837e-19)
(1.25947 0.160475 9.5336e-20)
(1.26474 0.157741 8.41418e-20)
(1.26453 0.153161 -2.34539e-19)
(1.26122 0.14739 1.45733e-19)
(1.25629 0.140888 -6.58298e-20)
(1.25064 0.133964 1.7323e-19)
(1.24469 0.12681 -5.59121e-20)
(1.23863 0.119523 -1.37977e-19)
(1.23255 0.112556 1.27675e-19)
(1.22668 0.104119 3.93062e-20)
(0.00939491 -0.000789137 0)
(0.0697943 -0.00616218 7.93085e-22)
(0.168578 -0.00330497 1.49928e-19)
(0.297405 0.00732442 -1.40503e-19)
(0.446722 0.025229 -1.26412e-19)
(0.605139 0.0491392 2.34806e-19)
(0.76038 0.0765508 -1.08978e-19)
(0.901358 0.104339 1.4481e-19)
(1.0201 0.129578 -3.2281e-21)
(1.11274 0.15015 -8.205e-20)
(1.17935 0.165014 1.78573e-19)
(1.22302 0.174144 -2.63951e-19)
(1.24843 0.178239 0)
(1.26065 0.178364 -5.19874e-20)
(1.26417 0.175631 -1.39054e-19)
(1.2625 0.170994 4.37355e-20)
(1.25802 0.165172 1.58879e-21)
(1.25223 0.158648 -9.73009e-20)
(1.24595 0.151727 5.49406e-21)
(1.23957 0.144596 1.12862e-19)
(1.23325 0.13737 -5.08971e-20)
(1.22703 0.130133 -1.96125e-20)
(1.22087 0.123052 5.97699e-20)
(1.21487 0.115156 0)
(0.0214316 -0.00294782 0)
(0.107971 -0.00855073 4.07318e-20)
(0.233765 -0.000966828 -1.96403e-19)
(0.387371 0.0173338 7.13076e-20)
(0.555434 0.0439263 -6.71111e-20)
(0.72325 0.0756888 -6.1377e-20)
(0.877046 0.108603 -1.08079e-19)
(1.00667 0.138786 5.41246e-20)
(1.10711 0.163438 4.67959e-20)
(1.17835 0.181228 0)
(1.22403 0.192173 1.06543e-19)
(1.24971 0.197207 -1.58849e-19)
(1.26123 0.197679 1.18096e-19)
(1.26367 0.194953 5.20151e-20)
(1.26086 0.190157 -4.28619e-20)
(1.25537 0.184117 -3.59517e-20)
(1.24873 0.177369 -3.36992e-20)
(1.24177 0.170241 1.0046e-19)
(1.23487 0.162923 0)
(1.22818 0.155529 5.1016e-20)
(1.22172 0.14813 4.33527e-20)
(1.21546 0.140789 -1.07209e-19)
(1.20932 0.133523 -7.42264e-20)
(1.2033 0.125979 6.84357e-20)
(0.0364153 -0.00409889 -4.44155e-20)
(0.152813 -0.00741832 -1.8753e-21)
(0.306665 0.00738102 4.00675e-20)
(0.482893 0.0351251 1.12157e-19)
(0.664309 0.070859 3.25867e-20)
(0.833971 0.109423 -6.30323e-20)
(0.978621 0.145662 5.74031e-20)
(1.09112 0.175683 -5.01434e-20)
(1.17068 0.197553 8.99707e-20)
(1.22121 0.211171 3.81869e-20)
(1.2491 0.217676 -1.08651e-19)
(1.26112 0.218749 3.192e-20)
(1.26313 0.216075 5.45531e-20)
(1.2595 0.211035 -2.6834e-20)
(1.25308 0.204616 0)
(1.24558 0.19745 4.00942e-20)
(1.23787 0.189909 6.79956e-20)
(1.23035 0.1822 1.17486e-20)
(1.22318 0.174439 -5.68152e-20)
(1.21636 0.166697 2.3812e-20)
(1.20986 0.159024 0)
(1.20361 0.15145 -1.88276e-20)
(1.19752 0.143947 -1.80474e-20)
(1.19152 0.136573 0)
(0.0542332 -0.00373761 0)
(0.203317 -0.00165034 2.33231e-20)
(0.384759 0.0228574 4.31546e-20)
(0.579705 0.0612175 -1.14735e-19)
(0.76792 0.105572 3.71888e-20)
(0.932132 0.148992 0)
(1.06182 0.185979 5.55696e-20)
(1.15434 0.213494 -7.76078e-20)
(1.21334 0.231014 -4.50245e-20)
(1.24591 0.239785 2.0266e-20)
(1.25994 0.241863 -3.25158e-20)
(1.26232 0.23936 7.88998e-20)
(1.25821 0.234011 3.94126e-20)
(1.25099 0.22705 -2.74308e-20)
(1.24261 0.219256 -2.59665e-21)
(1.23409 0.211077 -7.4986e-20)
(1.22587 0.202753 3.415e-20)
(1.21811 0.194413 -9.17546e-22)
(1.21084 0.186128 0)
(1.20402 0.177946 -2.38371e-20)
(1.19757 0.169899 0)
(1.1914 0.161985 5.41674e-20)
(1.18543 0.154206 -6.45067e-20)
(1.17951 0.146823 2.9441e-20)
(0.0745224 -0.00136718 -1.22782e-20)
(0.257871 0.00969081 -5.89656e-20)
(0.464835 0.0461287 6.72028e-20)
(0.673271 0.0954577 3.93833e-20)
(0.861537 0.146987 -1.87783e-20)
(1.01434 0.192784 3.15299e-20)
(1.12568 0.228014 -1.52984e-20)
(1.19794 0.251203 2.53786e-20)
(1.23859 0.263467 0)
(1.25672 0.267239 5.73085e-20)
(1.26062 0.265174 -2.43439e-21)
(1.25656 0.259514 -4.61303e-20)
(1.24871 0.251857 1.97036e-20)
(1.23947 0.243211 -2.21903e-20)
(1.23009 0.234148 -8.40243e-21)
(1.22109 0.224966 9.76538e-21)
(1.21268 0.215815 -7.50093e-21)
(1.20488 0.206774 -4.08267e-20)
(1.19765 0.197886 2.50006e-20)
(1.19092 0.189184 5.10461e-21)
(1.1846 0.180677 4.49797e-21)
(1.17858 0.172353 3.96623e-21)
(1.17276 0.164278 0)
(1.16698 0.1567 0)
(0.0967275 0.00346715 1.22866e-20)
(0.31447 0.027281 -1.2269e-20)
(0.543449 0.077333 -2.24176e-20)
(0.759465 0.137077 0)
(0.941707 0.193643 -9.34307e-21)
(1.079 0.239223 -8.43689e-21)
(1.17084 0.270591 -1.43774e-20)
(1.2243 0.28825 0)
(1.24963 0.294887 0)
(1.2568 0.293815 0)
(1.25366 0.287969 0)
(1.24553 0.279498 0)
(1.23553 0.269766 -1.237e-20)
(1.22526 0.259542 5.62937e-21)
(1.21544 0.249222 9.76382e-21)
(1.20632 0.238994 4.56772e-21)
(1.19793 0.228946 1.12612e-20)
(1.19024 0.219123 0)
(1.18319 0.209553 -2.68929e-21)
(1.17668 0.200253 -2.5879e-21)
(1.1706 0.191217 -4.50516e-21)
(1.16484 0.182435 -3.97258e-21)
(1.15928 0.174045 0)
(1.15375 0.166106 2.83952e-21)
(-0.00147854 0.00233148 8.23336e-21)
(-0.00723227 0.0139364 -8.5378e-21)
(-0.0173647 0.029435 -1.6151e-20)
(-0.0296863 0.0464564 0)
(-0.0430203 0.0634023 -2.16189e-20)
(-0.0567713 0.0794705 6.82164e-21)
(-0.0705033 0.0944937 -1.27489e-20)
(-0.0838754 0.108712 0)
(-0.0966243 0.122552 0)
(-0.108541 0.136451 0)
(-0.119455 0.15074 0)
(-0.12922 0.165602 0)
(-0.137703 0.181061 1.05249e-22)
(-0.144778 0.197 -8.40907e-21)
(-0.150315 0.213185 1.56815e-20)
(-0.154178 0.229277 2.22483e-20)
(-0.156226 0.244845 6.93014e-21)
(-0.156316 0.259375 0)
(-0.154315 0.272279 6.27629e-21)
(-0.150116 0.28292 -1.77197e-20)
(-0.143631 0.290646 -1.12454e-20)
(-0.134775 0.29482 -1.07183e-20)
(-0.123535 0.294834 0)
(-0.110288 0.290331 0)
(-0.00168838 0.00607648 -2.46335e-20)
(-0.00750528 0.0226088 4.25213e-20)
(-0.0168549 0.0413385 -1.58682e-20)
(-0.0278893 0.0604615 -3.02446e-20)
(-0.039584 0.0787106 4.28377e-20)
(-0.0514031 0.0954725 -2.68256e-20)
(-0.0629575 0.110689 3.79755e-20)
(-0.0739395 0.124665 2.35462e-20)
(-0.0840987 0.137875 0)
(-0.0932201 0.150795 -2.12069e-20)
(-0.101111 0.163795 -2.82484e-23)
(-0.107594 0.177085 1.87407e-20)
(-0.112503 0.190709 2.61324e-20)
(-0.115674 0.204559 3.29512e-20)
(-0.116946 0.218401 -1.55384e-20)
(-0.116154 0.23189 -4.39325e-20)
(-0.113134 0.244597 1.3822e-20)
(-0.10772 0.256011 -5.20539e-20)
(-0.0997559 0.265567 0)
(-0.0891056 0.272662 1.18087e-20)
(-0.0756603 0.2767 1.12268e-20)
(-0.0593144 0.277145 1.07002e-20)
(-0.0399076 0.273643 0)
(-0.0175512 0.266362 0)
(-0.00219204 0.00875504 0)
(-0.00838356 0.0288593 8.382e-20)
(-0.016992 0.0499846 -3.16384e-20)
(-0.0265691 0.0706941 2.99843e-20)
(-0.0362717 0.0899446 -8.41107e-20)
(-0.0456395 0.10724 0)
(-0.0543455 0.122569 -4.96258e-20)
(-0.0621323 0.136253 2.31533e-20)
(-0.0687811 0.148775 -4.3461e-20)
(-0.0740895 0.160626 2.00238e-20)
(-0.0778599 0.172201 1.15698e-19)
(-0.0798981 0.183744 -5.43395e-20)
(-0.0800114 0.195328 -8.57721e-20)
(-0.0780138 0.206877 -3.2111e-20)
(-0.0737226 0.218173 -3.14234e-22)
(-0.0669595 0.228893 1.14873e-19)
(-0.0575538 0.238622 -5.41279e-20)
(-0.0453443 0.246873 3.42957e-22)
(-0.0301856 0.253107 0)
(-0.0119625 0.256752 -4.67987e-20)
(0.00939691 0.25724 0)
(0.0339579 0.254078 -4.46482e-20)
(0.0620873 0.247023 1.67606e-19)
(0.0941829 0.236585 2.78416e-21)
(-0.00284162 0.0103373 0)
(-0.00964169 0.0325602 -2.51258e-22)
(-0.0176812 0.0551077 3.12241e-20)
(-0.0258566 0.0767322 -2.93094e-20)
(-0.0334827 0.0965262 2.80061e-20)
(-0.0401691 0.114055 1.56049e-19)
(-0.0456543 0.129311 -4.89793e-20)
(-0.0497423 0.14259 -4.55717e-20)
(-0.0522642 0.154345 8.61498e-20)
(-0.0530525 0.165054 -1.21538e-19)
(-0.0519305 0.17512 3.76167e-20)
(-0.0487125 0.18481 3.52823e-20)
(-0.0431992 0.19424 0)
(-0.0351984 0.203368 3.18633e-20)
(-0.0245296 0.212022 0)
(-0.0110142 0.219919 5.57326e-20)
(0.00550743 0.226689 -1.0752e-19)
(0.025173 0.231891 2.40337e-20)
(0.0480929 0.235036 9.62225e-20)
(0.074343 0.235603 4.67429e-20)
(0.10395 0.233064 0)
(0.136879 0.226927 -1.31063e-19)
(0.173292 0.216952 4.07731e-20)
(0.215851 0.203468 0)
(-0.00352372 0.0109721 0)
(-0.0110984 0.0339465 -9.91061e-20)
(-0.0188438 0.056875 -3.09829e-20)
(-0.0258638 0.0785959 -5.83857e-20)
(-0.0315718 0.0982937 5.49748e-20)
(-0.0356252 0.115571 -5.17933e-20)
(-0.0378214 0.130404 9.63445e-20)
(-0.0380292 0.143036 4.52051e-20)
(-0.0361427 0.153868 -1.27574e-19)
(-0.0320506 0.163337 7.92824e-20)
(-0.0256224 0.171829 -1.12012e-19)
(-0.0167065 0.179624 2.4341e-19)
(-0.00513497 0.186865 -1.312e-19)
(0.00926543 0.193553 6.10807e-20)
(0.0266618 0.19957 1.7456e-19)
(0.0472113 0.204693 -5.46765e-20)
(0.0710513 0.20861 -5.03942e-20)
(0.098294 0.210949 -4.96476e-20)
(0.129022 0.211289 0)
(0.163282 0.209182 -9.26947e-20)
(0.201069 0.204166 -9.19513e-20)
(0.242548 0.195734 1.25772e-19)
(0.286472 0.183678 1.68689e-19)
(0.341053 0.16753 -1.57669e-19)
(-0.0041967 0.0109411 0)
(-0.0126757 0.0335362 -1.31039e-19)
(-0.020454 0.0558271 4.33721e-22)
(-0.0266704 0.0767286 1.16172e-19)
(-0.0307706 0.0955284 0)
(-0.0324368 0.111879 0)
(-0.0315107 0.125745 0)
(-0.0279213 0.137324 -4.46338e-20)
(-0.0216301 0.146949 4.30148e-22)
(-0.012594 0.155001 7.8185e-20)
(-0.000746203 0.161831 -1.10331e-19)
(0.014009 0.167709 1.74385e-22)
(0.0317918 0.172791 0)
(0.0527379 0.177119 -6.10511e-20)
(0.0769878 0.180625 5.66877e-20)
(0.104678 0.183146 -1.60502e-19)
(0.135935 0.184439 2.05159e-19)
(0.170869 0.184199 5.07026e-20)
(0.209573 0.182076 3.91275e-21)
(0.252146 0.177693 -1.76893e-19)
(0.298383 0.170638 -8.52273e-20)
(0.349505 0.160507 2.94064e-19)
(0.400568 0.147165 -1.98137e-19)
(0.470221 0.128799 0)
(-0.00490451 0.0105848 6.33779e-20)
(-0.0144151 0.0320184 6.54705e-20)
(-0.0225218 0.0527724 -6.13075e-20)
(-0.0282657 0.0719317 -1.14962e-19)
(-0.0310656 0.088951 1.08242e-19)
(-0.0306144 0.103576 -1.00586e-19)
(-0.0267867 0.115794 1.41548e-19)
(-0.0195603 0.12577 -4.44756e-20)
(-0.00895386 0.133784 8.2444e-20)
(0.00501581 0.14016 0)
(0.0223587 0.145202 7.0671e-20)
(0.0431217 0.149157 -1.33027e-19)
(0.0673881 0.152186 1.25653e-19)
(0.0952714 0.154354 -1.18011e-19)
(0.126908 0.155634 0)
(0.162445 0.155916 1.05179e-19)
(0.202034 0.155017 1.99794e-19)
(0.24582 0.152699 -1.88646e-19)
(0.293917 0.148673 -8.98805e-20)
(0.346595 0.142648 -9.06287e-20)
(0.403069 0.134199 2.51234e-19)
(0.466855 0.123202 8.28651e-20)
(0.525801 0.10936 -7.51603e-20)
(0.61477 0.0900864 7.45213e-20)
(-0.00574536 0.0102363 -6.33867e-20)
(-0.0164195 0.0300965 1.95181e-19)
(-0.0250206 0.0486141 -6.12824e-20)
(-0.0304228 0.0652226 1.14375e-19)
(-0.0320045 0.0796375 -1.07689e-19)
(-0.029467 0.0917578 1.80606e-22)
(-0.022706 0.101637 4.69158e-20)
(-0.0117242 0.109447 1.72358e-19)
(0.00343474 0.115437 -1.47242e-21)
(0.0227331 0.119887 -7.66542e-20)
(0.0461675 0.123065 0)
(0.0737829 0.125192 -6.49252e-20)
(0.105673 0.126423 1.23359e-19)
(0.141974 0.126837 1.15709e-19)
(0.182851 0.126436 -5.47233e-20)
(0.228482 0.12515 -1.03166e-21)
(0.279033 0.122842 -4.93174e-20)
(0.33464 0.119327 9.20371e-20)
(0.395269 0.114345 8.98707e-20)
(0.461293 0.107764 -8.62741e-20)
(0.530552 0.0989044 8.11506e-20)
(0.609507 0.0884296 -7.80129e-20)
(0.676735 0.0748869 0)
(0.785269 0.0576071 -7.44847e-20)
(-0.00684346 0.0101336 6.32468e-20)
(-0.0187627 0.0283174 -6.51291e-20)
(-0.0277421 0.0441625 6.12041e-20)
(-0.032529 0.0576465 0)
(-0.032484 0.0688493 0)
(-0.027321 0.0778856 9.88395e-20)
(-0.0169352 0.084926 -9.33132e-20)
(-0.00131214 0.0901911 8.49705e-20)
(0.0195367 0.0939345 -4.00973e-19)
(0.0456167 0.0964186 6.15487e-22)
(0.0769742 0.0978889 6.91842e-20)
(0.113701 0.0985505 0)
(0.155926 0.0985518 -1.21103e-19)
(0.203789 0.0979754 2.27497e-19)
(0.257406 0.0968327 -1.60765e-19)
(0.31683 0.0950661 -2.53988e-19)
(0.381999 0.0925561 -2.31564e-21)
(0.452718 0.0891442 1.79562e-19)
(0.528421 0.0845575 0)
(0.60909 0.0788501 0)
(0.691124 0.0709663 -8.11505e-20)
(0.781928 0.0627084 7.80119e-20)
(0.854994 0.0503054 -2.98791e-19)
(0.971114 0.038049 2.7992e-19)
(-0.00825874 0.0103535 0)
(-0.0213413 0.0269477 0)
(-0.0301495 0.0399562 -1.83412e-19)
(-0.0334458 0.0500655 5.83988e-20)
(-0.0306227 0.0577988 1.07969e-21)
(-0.0214087 0.0635398 1.00193e-19)
(-0.00566729 0.0676215 0)
(0.016683 0.070352 -8.59546e-20)
(0.0457136 0.0720245 8.00221e-20)
(0.0815069 0.0729126 -1.47159e-19)
(0.124153 0.0732577 4.95777e-22)
(0.173725 0.0732539 1.28146e-19)
(0.230236 0.0730338 -4.35989e-22)
(0.293587 0.0726588 1.12573e-19)
(0.36351 0.0721139 -1.58674e-19)
(0.439517 0.0713091 0)
(0.520859 0.0700872 1.90339e-19)
(0.606523 0.068244 -2.69209e-19)
(0.695083 0.0654761 8.48447e-20)
(0.785444 0.0617683 0)
(0.873833 0.0560792 7.69027e-20)
(0.964625 0.0503864 3.01441e-19)
(1.03655 0.0396763 -2.82892e-19)
(1.13759 0.0324325 -3.38251e-19)
(-0.00992313 0.0107891 1.91172e-19)
(-0.0237652 0.025902 -2.62796e-19)
(-0.0312978 0.0361471 7.73641e-22)
(-0.0315052 0.0429847 5.82602e-20)
(-0.0238782 0.0474104 -1.07905e-19)
(-0.00816108 0.0501102 -9.97907e-20)
(0.0158261 0.0516097 1.84271e-19)
(0.0482336 0.0523311 -2.62621e-21)
(0.0891769 0.0526315 -1.60707e-19)
(0.138706 0.0528103 2.95705e-19)
(0.196752 0.0531049 -1.43186e-21)
(0.263061 0.0536794 -1.28794e-19)
(0.337125 0.0546115 0)
(0.418128 0.0558836 0)
(0.504918 0.0573796 -5.27918e-20)
(0.596004 0.0588887 -9.89399e-20)
(0.689593 0.0601259 -1.8818e-19)
(0.783651 0.0607256 1.76632e-19)
(0.875984 0.0603635 -8.48815e-20)
(0.964453 0.058583 1.60343e-19)
(1.0464 0.0551201 -7.53716e-20)
(1.12205 0.0501965 1.45727e-19)
(1.18171 0.0412676 -3.36539e-19)
(1.24874 0.0351474 6.59284e-20)
(-0.0116029 0.0111806 6.43129e-20)
(-0.0253228 0.0247857 0)
(-0.0298779 0.0325012 1.24221e-19)
(-0.0246874 0.0364825 -1.17022e-19)
(-0.00942603 0.0381696 1.08004e-19)
(0.0161115 0.0385508 0)
(0.0520882 0.0383412 0)
(0.0985886 0.0380827 -8.57038e-20)
(0.155547 0.0381915 2.17584e-21)
(0.22264 0.0389705 7.56734e-20)
(0.299192 0.0406095 -6.8719e-20)
(0.384103 0.0431752 1.29408e-19)
(0.475815 0.0466022 0)
(0.572337 0.0506917 2.24328e-19)
(0.671322 0.0551226 -4.20989e-19)
(0.770186 0.0594727 2.96498e-19)
(0.866259 0.0632651 1.85784e-19)
(0.956934 0.065955 -1.74392e-19)
(1.03988 0.0671868 0)
(1.11305 0.0661544 0)
(1.17516 0.0635275 0)
(1.22541 0.0569882 0)
(1.26287 0.0500251 6.59036e-20)
(1.29432 0.039254 -2.39726e-19)
(-0.0933843 0.280136 -7.05775e-21)
(-0.0712625 0.257395 7.10058e-21)
(-0.0451437 0.221882 -2.32871e-22)
(-0.0149225 0.173069 0)
(0.0192774 0.110776 -7.1862e-21)
(0.0567847 0.0357326 1.39988e-20)
(0.0967996 -0.0504153 -9.00654e-23)
(0.138726 -0.144613 -6.53955e-21)
(0.181437 -0.242047 0)
(0.223717 -0.337031 0)
(0.263676 -0.422336 -3.06755e-22)
(0.298946 -0.491087 -2.59832e-22)
(0.326483 -0.539393 -3.33054e-21)
(0.342636 -0.568131 3.02834e-21)
(0.34374 -0.583075 0)
(0.328891 -0.590717 0)
(0.304546 -0.58988 1.80581e-21)
(0.285705 -0.566739 7.01015e-23)
(0.289061 -0.50148 -1.66799e-21)
(0.321921 -0.383411 -1.13447e-22)
(0.378842 -0.219459 0)
(0.449214 -0.0299919 0)
(0.523252 0.157761 0)
(0.592548 0.314288 0)
(0.649769 0.421647 0)
(0.689916 0.479788 0)
(0.71384 0.498782 2.97158e-22)
(0.725394 0.494328 -4.78305e-22)
(0.720827 0.490033 0)
(0.692993 0.503169 0)
(0.648893 0.514835 -4.20675e-22)
(0.614339 0.473541 4.08861e-22)
(0.613271 0.34057 2.79473e-22)
(0.646675 0.135025 0)
(0.699369 -0.0824429 0)
(0.751822 -0.256388 4.19823e-22)
(0.791252 -0.36265 -4.08077e-22)
(0.817827 -0.407456 0)
(0.829674 -0.416238 2.0917e-22)
(0.816748 -0.429455 -2.96968e-22)
(0.773212 -0.441899 8.65747e-23)
(0.719663 -0.421695 0)
(0.689438 -0.310559 -2.3659e-22)
(0.694456 -0.137613 2.3006e-22)
(0.7308 0.0578427 0)
(0.777634 0.20441 0)
(0.818369 0.294714 -6.99716e-23)
(0.823995 0.360521 1.91647e-22)
(0.794115 0.386322 0)
(0.745704 0.394965 0)
(0.731636 0.263713 -5.88742e-23)
(0.74402 0.129125 -9.55279e-24)
(0.793521 -0.0648069 -5.79055e-24)
(0.814765 -0.191979 4.30904e-23)
(0.810201 -0.279633 0)
(0.781108 -0.396398 0)
(0.775298 -0.275309 0)
(0.772012 -0.26268 0)
(0.78481 -0.00332195 0)
(0.76043 0.189015 0)
(0.00899925 0.254392 -7.07766e-22)
(0.0379495 0.229008 -3.11357e-20)
(0.0703476 0.190513 -8.52176e-22)
(0.106234 0.138878 3.00079e-20)
(0.144851 0.0743585 4.94773e-22)
(0.185289 -0.00247377 0)
(0.226895 -0.0895917 -2.87609e-20)
(0.268934 -0.184139 5.58462e-20)
(0.310293 -0.281442 -2.70767e-20)
(0.349655 -0.375129 2.2166e-20)
(0.385021 -0.457384 -2.12375e-20)
(0.41383 -0.520736 1.55351e-20)
(0.433471 -0.560609 -1.51595e-20)
(0.441562 -0.577439 -3.54316e-22)
(0.435237 -0.577783 -8.47619e-21)
(0.411499 -0.572059 8.23797e-21)
(0.371945 -0.565977 -6.4247e-21)
(0.328221 -0.550843 6.06808e-21)
(0.29967 -0.504641 -6.58473e-21)
(0.301836 -0.407705 1.33192e-20)
(0.336413 -0.259158 -6.71423e-21)
(0.394459 -0.0776357 -4.01591e-22)
(0.464626 0.108294 -6.39112e-21)
(0.536342 0.26984 1.16246e-20)
(0.600306 0.387329 -5.26113e-21)
(0.650122 0.457107 2.25852e-22)
(0.685254 0.4862 3.15669e-21)
(0.706365 0.491315 -4.30759e-23)
(0.70753 0.497909 -5.61815e-21)
(0.684025 0.520154 5.92134e-21)
(0.647767 0.532809 -3.05008e-21)
(0.625468 0.482426 5.14867e-22)
(0.63675 0.335805 -2.80048e-22)
(0.678585 0.118863 6.57454e-22)
(0.734692 -0.103514 0)
(0.785673 -0.275201 0)
(0.819089 -0.375683 -1.36863e-21)
(0.83709 -0.414413 1.03753e-21)
(0.841649 -0.41561 6.03609e-22)
(0.825668 -0.41919 1.18234e-24)
(0.779643 -0.424838 -7.78085e-22)
(0.72199 -0.406655 1.63381e-22)
(0.684067 -0.305652 0)
(0.684574 -0.14463 0)
(0.719654 0.0436048 0)
(0.769203 0.189877 0)
(0.812207 0.287237 2.68401e-22)
(0.818548 0.363371 -1.23716e-22)
(0.790806 0.396145 0)
(0.74357 0.403562 0)
(0.733936 0.264426 0)
(0.746533 0.121917 -1.27976e-22)
(0.799068 -0.0728213 -2.83737e-24)
(0.821372 -0.1943 -9.03443e-23)
(0.817046 -0.275795 0)
(0.787502 -0.392474 0)
(0.778808 -0.274724 3.25739e-23)
(0.774767 -0.263322 7.05527e-23)
(0.783244 -0.00191764 0)
(0.758792 0.191096 0)
(0.127351 0.223099 3.45381e-21)
(0.161811 0.196671 -6.22456e-20)
(0.198364 0.157346 6.68086e-20)
(0.237955 0.10514 -6.24516e-20)
(0.279387 0.0403609 -4.98072e-22)
(0.321724 -0.0358114 0)
(0.364222 -0.121962 -6.22568e-20)
(0.405943 -0.215343 6.09929e-20)
(0.445781 -0.311152 4.18874e-22)
(0.482004 -0.402603 7.75941e-22)
(0.512109 -0.4814 6.70833e-22)
(0.533249 -0.539687 5.47641e-22)
(0.54323 -0.572718 -2.61935e-20)
(0.541167 -0.580662 2.58132e-20)
(0.526532 -0.569322 0)
(0.497029 -0.549902 4.29287e-22)
(0.4501 -0.533657 -1.11965e-20)
(0.390672 -0.520118 1.10579e-20)
(0.335676 -0.490563 0)
(0.306463 -0.418727 0)
(0.314226 -0.292594 -1.17785e-20)
(0.354763 -0.124863 2.33063e-20)
(0.416728 0.0558127 -2.17025e-20)
(0.487594 0.220251 1.40322e-21)
(0.555928 0.346752 1.62849e-20)
(0.61411 0.427976 -1.4016e-20)
(0.659494 0.468188 1.15626e-20)
(0.689229 0.484617 -3.27046e-22)
(0.696107 0.503023 -5.376e-21)
(0.678219 0.533853 0)
(0.651311 0.546954 0)
(0.641657 0.488555 3.69018e-21)
(0.664861 0.33074 -4.62077e-21)
(0.714473 0.105029 4.17205e-23)
(0.772943 -0.120758 4.77156e-21)
(0.821597 -0.289725 -4.63673e-21)
(0.848767 -0.384596 0)
(0.858129 -0.418236 2.93982e-22)
(0.855162 -0.413395 1.85112e-21)
(0.83628 -0.408366 -3.26742e-21)
(0.788617 -0.407322 1.30197e-21)
(0.72795 -0.391015 1.2183e-22)
(0.682846 -0.300555 -1.74257e-21)
(0.678634 -0.152391 1.38828e-21)
(0.71182 0.0278805 3.14551e-22)
(0.763254 0.17395 2.76218e-22)
(0.807932 0.278784 -2.69092e-22)
(0.814857 0.365577 0)
(0.789616 0.405381 0)
(0.744047 0.411951 -1.09275e-21)
(0.738942 0.26545 5.41858e-22)
(0.75142 0.115087 -6.07963e-22)
(0.806385 -0.0806017 7.88927e-22)
(0.829458 -0.196555 7.83179e-22)
(0.825281 -0.271531 -1.69051e-22)
(0.794714 -0.388247 2.22429e-22)
(0.78298 -0.273898 -1.44142e-22)
(0.778373 -0.26363 3.54665e-23)
(0.78281 -0.00036321 0)
(0.758186 0.193198 0)
(0.251908 0.188972 -1.29973e-19)
(0.290104 0.161882 -5.10627e-21)
(0.329396 0.122918 1.28565e-19)
(0.371218 0.071886 -1.03815e-21)
(0.415005 0.00889223 0)
(0.459185 -0.0649796 0)
(0.502563 -0.148997 -1.28467e-19)
(0.54443 -0.240124 3.46336e-21)
(0.583253 -0.333432 1.71394e-19)
(0.616562 -0.421763 -5.78271e-21)
(0.641185 -0.49632 -4.71825e-20)
(0.654066 -0.549032 -3.20995e-20)
(0.653479 -0.575543 3.22947e-20)
(0.639738 -0.576667 0)
(0.614732 -0.557542 -1.56493e-20)
(0.579267 -0.527372 1.43683e-20)
(0.530239 -0.498821 0)
(0.465396 -0.479482 0)
(0.393692 -0.459485 7.90245e-21)
(0.336585 -0.412353 4.66332e-22)
(0.31459 -0.31483 -7.60936e-21)
(0.332618 -0.168131 -9.07671e-21)
(0.381783 0.00297275 8.96782e-21)
(0.447953 0.167033 -7.65615e-21)
(0.517841 0.300715 1.08851e-21)
(0.582506 0.392802 6.13533e-21)
(0.636517 0.444878 6.376e-22)
(0.673666 0.473814 3.11892e-23)
(0.686272 0.504266 0)
(0.675129 0.542979 6.7533e-21)
(0.658557 0.556463 -7.01526e-21)
(0.661621 0.492046 5.52116e-22)
(0.696283 0.32613 0)
(0.753171 0.0941316 -7.07343e-22)
(0.813329 -0.134008 1.00589e-20)
(0.859055 -0.300361 -1.66125e-20)
(0.879937 -0.389909 9.89178e-22)
(0.880804 -0.419198 1.45039e-21)
(0.870077 -0.409855 3.72471e-21)
(0.848226 -0.397453 3.48526e-22)
(0.799687 -0.389703 -2.21712e-21)
(0.737283 -0.374644 1.86739e-21)
(0.685847 -0.294836 5.09044e-23)
(0.676756 -0.160457 1.21128e-21)
(0.707302 0.011032 -1.49333e-21)
(0.759691 0.15683 -1.75397e-21)
(0.80547 0.269337 5.27366e-22)
(0.812903 0.366977 9.36015e-22)
(0.790563 0.413834 -1.94706e-21)
(0.747181 0.42009 1.5455e-21)
(0.746691 0.266952 -6.29666e-22)
(0.758736 0.1089 6.44755e-22)
(0.815403 -0.0880412 6.44752e-22)
(0.838913 -0.198773 -1.24676e-21)
(0.834842 -0.266871 5.16915e-23)
(0.802699 -0.383634 -2.20234e-22)
(0.787734 -0.272802 0)
(0.782746 -0.263644 -5.55068e-23)
(0.783442 0.00131301 1.87619e-23)
(0.75857 0.195329 0)
(0.37774 0.15311 1.30702e-19)
(0.417872 0.126152 -2.62359e-19)
(0.45915 0.0882548 1.29603e-19)
(0.502878 0.0391774 1.37267e-19)
(0.548589 -0.0203144 -2.71188e-19)
(0.594283 -0.0909638 -1.48387e-22)
(0.638807 -0.171637 1.31326e-19)
(0.681109 -0.259035 1.20756e-19)
(0.718834 -0.348185 -1.18252e-19)
(0.7487 -0.431696 0)
(0.766972 -0.500634 -8.1856e-20)
(0.770673 -0.547181 1.46343e-19)
(0.758991 -0.567616 -6.4927e-20)
(0.733547 -0.563579 0)
(0.697654 -0.540381 0)
(0.654768 -0.504915 4.11238e-22)
(0.604617 -0.466999 -1.69892e-20)
(0.541976 -0.437757 1.65065e-20)
(0.465831 -0.417919 0)
(0.390109 -0.388601 1.15768e-20)
(0.339357 -0.321271 -2.28045e-20)
(0.330376 -0.20266 2.38266e-20)
(0.361303 -0.0479328 -2.45293e-20)
(0.418504 0.111601 6.74564e-22)
(0.487064 0.250015 2.08542e-20)
(0.55565 0.351925 -9.79897e-21)
(0.615989 0.416153 -2.97511e-22)
(0.659129 0.458221 -4.55269e-21)
(0.67746 0.500542 -8.55984e-22)
(0.673969 0.546557 5.41011e-21)
(0.66837 0.561053 4.59031e-22)
(0.68392 0.493119 -1.0383e-20)
(0.729368 0.322499 2.18917e-20)
(0.793212 0.0867485 -1.29858e-20)
(0.85492 -0.142917 0)
(0.897371 -0.306857 -9.40666e-21)
(0.911988 -0.391503 8.88402e-21)
(0.904717 -0.417175 -3.70248e-21)
(0.886207 -0.404886 4.6478e-21)
(0.861314 -0.386615 -3.18467e-22)
(0.812529 -0.372447 0)
(0.74961 -0.357924 -2.13122e-22)
(0.6929 -0.288414 7.0832e-22)
(0.678877 -0.168537 0)
(0.705992 -0.00659912 2.31914e-21)
(0.758335 0.138666 -9.40159e-22)
(0.804686 0.258806 4.45508e-22)
(0.8126 0.367348 4.20031e-22)
(0.793583 0.421293 0)
(0.752914 0.427907 0)
(0.757094 0.269041 -2.07322e-21)
(0.768472 0.103585 3.41712e-21)
(0.826043 -0.0950139 -1.92313e-21)
(0.849612 -0.200932 5.67579e-22)
(0.845648 -0.261774 7.85224e-22)
(0.811422 -0.378528 2.2044e-22)
(0.792994 -0.271429 -2.06241e-22)
(0.7878 -0.263415 0)
(0.785059 0.00308402 -4.67507e-23)
(0.759896 0.197496 3.04616e-24)
(0.506473 0.115476 1.30035e-19)
(0.546959 0.0897656 -1.29498e-19)
(0.589037 0.0536832 1.05138e-21)
(0.634706 0.00760933 -1.03088e-21)
(0.681964 -0.0478814 1.06625e-21)
(0.728238 -0.114692 -1.0545e-21)
(0.773149 -0.190686 1.97884e-21)
(0.814794 -0.272647 0)
(0.84986 -0.355663 -1.73685e-21)
(0.874427 -0.432394 1.55549e-21)
(0.884586 -0.494329 1.34498e-21)
(0.877907 -0.53445 -1.15187e-21)
(0.854822 -0.549779 0)
(0.818479 -0.542299 0)
(0.77316 -0.51747 5.26309e-22)
(0.7231 -0.48113 0)
(0.670689 -0.439296 -2.71284e-22)
(0.612554 -0.401133 0)
(0.541757 -0.374327 -8.03594e-21)
(0.460513 -0.351997 1.48896e-20)
(0.388213 -0.309676 -1.38537e-20)
(0.350076 -0.223369 6.88467e-21)
(0.356874 -0.0930492 7.66904e-21)
(0.400237 0.0562667 -7.44808e-21)
(0.463808 0.195842 -7.19951e-21)
(0.533221 0.305897 6.97487e-21)
(0.597273 0.382057 0)
(0.644958 0.437341 2.13532e-22)
(0.668967 0.491087 0)
(0.673791 0.544064 0)
(0.679446 0.560678 1.58727e-20)
(0.706909 0.492061 -1.62555e-20)
(0.76241 0.320047 1.40614e-21)
(0.833101 0.0826144 1.53814e-21)
(0.896676 -0.147482 -1.45261e-21)
(0.93587 -0.30925 -8.46801e-21)
(0.944357 -0.389599 8.22168e-21)
(0.929492 -0.41231 -4.97121e-21)
(0.903326 -0.398499 4.21652e-21)
(0.875253 -0.375997 6.2741e-22)
(0.826717 -0.355862 -1.75077e-21)
(0.764376 -0.341086 -6.6173e-23)
(0.703574 -0.281206 1.12476e-21)
(0.684714 -0.176191 0)
(0.707678 -0.0246594 -7.95063e-22)
(0.758945 0.119579 1.10214e-21)
(0.805395 0.247069 -1.46809e-21)
(0.813805 0.366442 -4.2272e-22)
(0.798516 0.427542 0)
(0.761071 0.435322 7.53872e-22)
(0.769977 0.271757 -1.33931e-21)
(0.780574 0.0992119 4.99265e-23)
(0.838199 -0.101386 -7.1499e-22)
(0.861411 -0.203007 8.78553e-22)
(0.857591 -0.256235 -8.15694e-22)
(0.820849 -0.372821 0)
(0.798696 -0.269759 2.06334e-22)
(0.793442 -0.262989 0)
(0.787573 0.00491927 0)
(0.762111 0.199701 -1.19809e-24)
(0.648216 0.0780607 -1.28558e-19)
(0.686249 0.0538201 1.27128e-19)
(0.727097 0.0195589 -9.97805e-22)
(0.772371 -0.0218603 1.0554e-21)