/*--------------------------------*- C++ -*----------------------------------*\
| =========                 |                                                 |
| \\      /  F ield         | OpenFOAM: The Open Source CFD Toolbox           |
|  \\    /   O peration     | Version:  2512                                  |
|   \\  /    A nd           | Website:  www.openfoam.com                      |
|    \\/     M anipulation  |                                                 |
\*---------------------------------------------------------------------------*/
FoamFile
{
    version     2.0;
    format      ascii;
    arch        "LSB;label=32;scalar=64";
    class       volVectorField;
    location    "65.5";
    object      U;
}
// * * * * * * * * * * * * * * * * * * * * * * * * * * * * * * * * * * * * * //

dimensions      [0 1 -1 0 0 0 0];

internalField   nonuniform List<vector> 
13248
(
(-0.0118797 0.0112893 6.98553e-20)
(-0.0204173 0.0224482 0)
(-0.0150744 0.0267041 -1.32392e-19)
(0.00286812 0.026324 1.24715e-19)
(0.0326557 0.0231487 1.17135e-19)
(0.0738053 0.018631 0)
(0.125889 0.0138587 0)
(0.188357 0.00963299 2.83547e-19)
(0.260358 0.00653065 -1.79784e-21)
(0.340609 0.00493919 -2.46906e-19)
(0.427332 0.00507408 2.26686e-19)
(0.51828 0.00698837 -1.41587e-19)
(0.610862 0.0105838 0)
(0.702321 0.0156294 -2.33911e-19)
(0.789951 0.021791 4.32817e-19)
(0.871312 0.0286676 -1.02529e-19)
(0.944408 0.0358366 -1.74891e-19)
(1.00781 0.0428812 1.64182e-19)
(1.06075 0.0494844 0)
(1.10302 0.0552162 0)
(1.13525 0.0603495 0)
(1.15756 0.0633517 0)
(1.17347 0.0676681 4.53586e-20)
(1.1792 0.0647748 1.58994e-19)
(-0.0111667 0.00955283 -2.11053e-19)
(-0.0152731 0.0177031 1.44002e-19)
(-0.00223936 0.0201223 -1.08676e-21)
(0.0263248 0.0189344 -1.9056e-19)
(0.0693966 0.0159292 -1.17008e-19)
(0.126151 0.0125598 -1.1067e-19)
(0.195623 0.00989971 -2.03752e-19)
(0.276467 0.00869722 1.92376e-19)
(0.366772 0.00941495 0)
(0.463992 0.0122474 1.30583e-21)
(0.565008 0.0171364 2.67459e-21)
(0.66634 0.0238 1.41116e-19)
(0.764439 0.0317804 0)
(0.856013 0.0405089 0)
(0.938315 0.0493802 1.5679e-19)
(1.00936 0.0578251 -2.94332e-19)
(1.06805 0.0653704 1.71079e-19)
(1.11416 0.0716785 -1.60614e-19)
(1.14825 0.0765715 -6.95926e-20)
(1.1716 0.0799892 -1.23284e-19)
(1.18576 0.0821361 -4.99482e-20)
(1.1929 0.0827444 -9.2811e-20)
(1.19444 0.0836623 1.38796e-19)
(1.19207 0.0801942 3.94575e-20)
(-0.00946931 0.00743763 0)
(-0.00674802 0.012046 0)
(0.0166826 0.0125542 6.74357e-20)
(0.0587582 0.0109183 6.22844e-20)
(0.117997 0.0088486 -1.3507e-21)
(0.192917 0.00774821 -1.13683e-19)
(0.28156 0.00857536 0)
(0.38124 0.0118659 -9.56033e-20)
(0.488462 0.0177604 8.92483e-20)
(0.599049 0.0260315 2.17562e-22)
(0.708477 0.0361415 -1.51296e-19)
(0.812325 0.0473369 -1.3702e-19)
(0.906737 0.0587679 3.70343e-21)
(0.988797 0.069613 -1.09745e-19)
(1.05675 0.0791856 2.66079e-19)
(1.11007 0.0870067 0)
(1.14931 0.0928378 -1.66832e-19)
(1.17596 0.0966666 8.11776e-20)
(1.19208 0.0986839 6.95292e-20)
(1.19996 0.0991578 0)
(1.20199 0.0985811 5.55821e-20)
(1.20012 0.0969276 -1.9073e-19)
(1.19593 0.0957103 1.79044e-19)
(1.19131 0.0914938 1.11721e-19)
(-0.00649148 0.00503605 -7.45113e-20)
(0.00598196 0.00590227 -7.69492e-20)
(0.0429497 0.00486863 6.97531e-20)
(0.101659 0.00362054 0)
(0.179813 0.00369628 0)
(0.274757 0.00631955 -2.00213e-21)
(0.382922 0.0121331 0)
(0.499708 0.0212007 -2.89689e-19)
(0.619691 0.0330676 2.68551e-19)
(0.737132 0.0468648 -3.30989e-19)
(0.846634 0.0614715 7.55189e-20)
(0.94378 0.0757121 0)
(1.02559 0.0885433 1.23156e-19)
(1.09069 0.0991955 -2.2708e-19)
(1.1393 0.107245 5.39543e-20)
(1.17289 0.112615 1.35174e-19)
(1.19381 0.115517 -7.53059e-21)
(1.2048 0.116361 -1.50023e-19)
(1.20865 0.115644 0)
(1.20778 0.113852 0)
(1.20416 0.111477 -5.21737e-20)
(1.19913 0.108586 4.6542e-20)
(1.19368 0.106343 1.64739e-19)
(1.18816 0.101681 -1.54653e-19)
(-0.0018702 0.00245476 -7.82679e-20)
(0.023779 -0.000230866 -7.80129e-20)
(0.0776733 -0.00194799 2.19531e-19)
(0.156014 -0.00148721 -1.33347e-19)
(0.255145 0.00232279 1.25517e-19)
(0.370559 0.0102822 2.2827e-19)
(0.496437 0.0224062 -1.61027e-19)
(0.625918 0.0379652 -1.9505e-19)
(0.751829 0.0556739 4.42561e-21)
(0.867617 0.0739554 2.49392e-19)
(0.968219 0.0912433 0)
(1.05059 0.106249 6.78187e-20)
(1.11383 0.118135 0)
(1.15895 0.126572 -1.09027e-19)
(1.18833 0.131683 1.53051e-19)
(1.2051 0.133919 1.27058e-21)
(1.21257 0.133906 -3.95993e-20)
(1.21375 0.132299 7.31538e-20)
(1.21107 0.12968 6.31854e-20)
(1.20631 0.1265 -5.63755e-20)
(1.20062 0.123089 5.21608e-20)
(1.19468 0.119522 -4.65301e-20)
(1.18881 0.116456 0)
(1.18339 0.111598 -3.55728e-20)
(0.00478168 -0.000143701 7.82568e-20)
(0.0474195 -0.00572236 8.19488e-20)
(0.121595 -0.00676248 -7.35049e-20)
(0.221981 -0.00285724 1.368e-19)
(0.342864 0.00646795 -1.28761e-19)
(0.477176 0.0212139 1.16352e-19)
(0.616469 0.040386 -5.57905e-20)
(0.75186 0.0621957 1.46524e-19)
(0.875347 0.0844892 -9.19435e-20)
(0.980986 0.105204 1.61947e-19)
(1.06555 0.122743 -3.7297e-19)
(1.12857 0.136184 1.36694e-19)
(1.17181 0.1453 -1.18659e-19)
(1.19852 0.15043 1.11455e-19)
(1.21257 0.152271 9.52409e-20)
(1.2177 0.151654 8.28561e-20)
(1.21712 0.149375 -2.30676e-19)
(1.21322 0.146084 1.42781e-19)
(1.20765 0.142254 -6.3187e-20)
(1.20143 0.138194 1.64255e-19)
(1.19511 0.134089 -5.30391e-20)
(1.18899 0.129987 -1.28582e-19)
(1.18318 0.126242 1.18612e-19)
(1.17779 0.121257 3.55608e-20)
(0.0138174 -0.00250963 0)
(0.0774471 -0.00977232 6.05601e-22)
(0.174868 -0.00831081 1.53046e-19)
(0.298642 0.00102674 -1.43631e-19)
(0.440267 0.0175446 -1.29441e-19)
(0.589654 0.0399817 2.4048e-19)
(0.735938 0.0660108 -1.11634e-19)
(0.869239 0.09275 1.485e-19)
(0.982309 0.117469 -3.39772e-21)
(1.07143 0.13813 -8.39268e-20)
(1.13636 0.153655 1.82308e-19)
(1.17958 0.163894 -2.68628e-19)
(1.20515 0.169401 0)
(1.21763 0.171125 -5.22889e-20)
(1.22124 0.170111 -1.38879e-19)
(1.21938 0.167297 4.37986e-20)
(1.21452 0.163416 1.84415e-21)
(1.20824 0.158977 -9.44476e-20)
(1.20148 0.154299 6.36703e-21)
(1.19476 0.149567 1.09046e-19)
(1.18832 0.14488 -4.8249e-20)
(1.18224 0.140285 -1.83974e-20)
(1.17651 0.135908 5.67535e-20)
(1.17117 0.130788 0)
(0.0254943 -0.0043004 0)
(0.114026 -0.0114287 4.14863e-20)
(0.236878 -0.00527094 -1.99381e-19)
(0.383899 0.0114977 7.24449e-20)
(0.543264 0.0364384 -6.81832e-20)
(0.701963 0.0666074 -6.21607e-20)
(0.847735 0.0982668 -1.09861e-19)
(0.971391 0.127769 5.48686e-20)
(1.06817 0.152401 4.77125e-20)
(1.13772 0.17077 0)
(1.18306 0.182732 1.08018e-19)
(1.20905 0.189045 -1.60268e-19)
(1.22102 0.190924 1.19243e-19)
(1.22374 0.18966 5.23153e-20)
(1.22096 0.186372 -4.25787e-20)
(1.21526 0.181904 -3.52848e-20)
(1.2083 0.176827 -3.28287e-20)
(1.201 0.171491 9.8817e-20)
(1.19384 0.166095 0)
(1.18704 0.160746 4.92458e-20)
(1.18066 0.155499 4.12296e-20)
(1.17469 0.150386 -1.02575e-19)
(1.16907 0.1454 -6.9997e-20)
(1.16379 0.140131 6.47043e-20)
(0.0399193 -0.00509452 -4.46515e-20)
(0.156825 -0.00965209 -1.58837e-21)
(0.306155 0.00360396 4.05195e-20)
(0.47458 0.0295227 1.12989e-19)
(0.646897 0.0633667 3.27724e-20)
(0.80806 0.10032 -6.33826e-20)
(0.946137 0.135544 5.79331e-20)
(1.05449 0.165288 -5.07907e-20)
(1.13208 0.187559 9.08344e-20)
(1.18216 0.20207 3.85999e-20)
(1.2104 0.209742 -1.09481e-19)
(1.22299 0.212092 3.22034e-20)
(1.22544 0.210716 5.47199e-20)
(1.22201 0.206976 -2.69801e-20)
(1.21558 0.201879 0)
(1.20792 0.196093 3.986e-20)
(1.20001 0.190018 6.71269e-20)
(1.19233 0.183877 1.12664e-20)
(1.18509 0.17779 -5.58001e-20)
(1.17834 0.171816 2.32395e-20)
(1.17208 0.165988 0)
(1.16623 0.160313 -1.81849e-20)
(1.16073 0.154743 -1.71956e-20)
(1.1555 0.149257 0)
(0.0569965 -0.00442611 0)
(0.20494 -0.00342627 2.33777e-20)
(0.3804 0.0193191 4.31784e-20)
(0.566746 0.0555458 -1.15053e-19)
(0.746056 0.0978612 3.71257e-20)
(0.90289 0.139787 0)
(1.02763 0.176083 5.5738e-20)
(1.11761 0.2037 -7.77808e-20)
(1.17586 0.221922 -4.53181e-20)
(1.20869 0.231739 2.04914e-20)
(1.22334 0.234997 -3.2516e-20)
(1.2263 0.233685 7.91019e-20)
(1.22256 0.229503 3.94285e-20)
(1.21549 0.223697 -2.7543e-20)
(1.20711 0.21708 -2.7026e-21)
(1.19851 0.210133 -7.45195e-20)
(1.19023 0.203118 3.38815e-20)
(1.18248 0.196172 -8.81143e-22)
(1.17531 0.189362 0)
(1.1687 0.182725 -2.32637e-20)
(1.16259 0.176276 0)
(1.15691 0.169998 5.2357e-20)
(1.15155 0.163867 -6.22373e-20)
(1.14639 0.15808 2.83363e-20)
(0.0763905 -0.00182923 -1.21504e-20)
(0.25689 0.00812392 -5.87226e-20)
(0.45664 0.0424935 6.67419e-20)
(0.656145 0.0894159 3.91914e-20)
(0.836183 0.13888 -1.87368e-20)
(0.982973 0.183416 3.14194e-20)
(1.09089 0.218303 -1.52757e-20)
(1.16185 0.241906 2.53928e-20)
(1.20252 0.255054 0)
(1.22126 0.259913 5.73056e-20)
(1.22584 0.25897 -2.43427e-21)
(1.22231 0.254393 -4.6114e-20)
(1.21477 0.247782 1.96796e-20)
(1.20567 0.240175 -2.21063e-20)
(1.19634 0.232179 -8.31886e-21)
(1.18738 0.224117 9.72252e-21)
(1.17903 0.216151 -7.43141e-21)
(1.17137 0.208361 -4.02814e-20)
(1.16436 0.200785 2.46593e-20)
(1.15796 0.193445 5.0143e-21)
(1.15206 0.186337 4.40355e-21)
(1.14657 0.179432 3.8694e-21)
(1.14138 0.17277 0)
(1.13634 0.166573 0)
(0.0975842 0.00312614 1.21588e-20)
(0.310806 0.0256405 -1.21541e-20)
(0.53165 0.0732656 -2.22226e-20)
(0.738838 0.130407 0)
(0.913839 0.185007 -9.29413e-21)
(1.0465 0.229626 -8.35236e-21)
(1.13619 0.260979 -1.4296e-20)
(1.18924 0.279282 0)
(1.21504 0.286892 0)
(1.22295 0.286886 0)
(1.22047 0.282079 0)
(1.21279 0.274591 0)
(1.20307 0.26581 -1.23211e-20)
(1.19298 0.256539 5.60223e-21)
(1.18329 0.247203 9.71126e-21)
(1.1743 0.238006 4.53995e-21)
(1.16609 0.229043 1.11602e-20)
(1.15864 0.220355 0)
(1.1519 0.211964 -2.64867e-21)
(1.14579 0.203877 -2.53555e-21)
(1.14018 0.196075 -4.41056e-21)
(1.13498 0.188532 -3.87557e-21)
(1.13004 0.181365 0)
(1.12521 0.174645 2.75288e-21)
(-0.000667344 -0.0168579 7.60292e-21)
(-0.00469333 -0.042826 -7.89483e-21)
(-0.0130154 -0.0628347 -1.49516e-20)
(-0.0236588 -0.0777602 0)
(-0.0354781 -0.0885537 -2.00256e-20)
(-0.0478408 -0.0962152 6.29815e-21)
(-0.060287 -0.10168 -1.18583e-20)
(-0.0724883 -0.105731 0)
(-0.0842323 -0.108949 0)
(-0.0953908 -0.111705 0)
(-0.105891 -0.114176 0)
(-0.115695 -0.116392 0)
(-0.124782 -0.118267 6.61403e-23)
(-0.133134 -0.119648 -7.81094e-21)
(-0.140735 -0.120334 1.45513e-20)
(-0.147561 -0.120103 2.05653e-20)
(-0.153586 -0.118718 6.29945e-21)
(-0.158779 -0.115935 0)
(-0.163121 -0.111509 5.72258e-21)
(-0.166615 -0.105205 -1.58393e-20)
(-0.169277 -0.0968059 -9.7673e-21)
(-0.171107 -0.0861019 -9.10161e-21)
(-0.172237 -0.0728235 0)
(-0.173463 -0.0567442 0)
(-0.000168333 -0.0127835 -2.27994e-20)
(-0.00376019 -0.0332229 3.93786e-20)
(-0.0123038 -0.0496282 -1.47856e-20)
(-0.0234787 -0.0623076 -2.81896e-20)
(-0.0359478 -0.0718368 3.98683e-20)
(-0.0489792 -0.0789465 -2.50901e-20)
(-0.0620502 -0.084364 3.54553e-20)
(-0.0747961 -0.0887126 2.22216e-20)
(-0.0869879 -0.0924575 0)
(-0.0984936 -0.0958889 -1.97871e-20)
(-0.109243 -0.0991363 -8.85874e-24)
(-0.119201 -0.1022 1.75074e-20)
(-0.128351 -0.104987 2.45062e-20)
(-0.136679 -0.107344 3.06585e-20)
(-0.144167 -0.109079 -1.46178e-20)
(-0.150793 -0.109978 -4.05987e-20)
(-0.156527 -0.109806 1.23088e-20)
(-0.161338 -0.108316 -4.66395e-20)
(-0.165207 -0.105241 0)
(-0.168147 -0.100299 1.04545e-20)
(-0.170179 -0.0932031 9.75542e-21)
(-0.171215 -0.0836501 9.09037e-21)
(-0.171301 -0.071271 0)
(-0.172012 -0.0557989 0)
(-0.000193799 -0.00826185 0)
(-0.00385853 -0.0226959 7.8479e-20)
(-0.0126216 -0.03531 -2.96227e-20)
(-0.0240178 -0.0457356 2.81251e-20)
(-0.0366286 -0.0540936 -7.94279e-20)
(-0.0496799 -0.0607896 0)
(-0.0626213 -0.0663061 -4.71058e-20)
(-0.0750714 -0.0710875 2.21048e-20)
(-0.0867936 -0.0754756 -4.16706e-20)
(-0.0976532 -0.0796819 1.94908e-20)
(-0.10758 -0.0837917 1.10237e-19)
(-0.116538 -0.0877865 -5.17483e-20)
(-0.12451 -0.0915722 -8.07322e-20)
(-0.131479 -0.0950042 -2.97281e-20)
(-0.137426 -0.0979049 3.93412e-22)
(-0.14232 -0.100074 1.05073e-19)
(-0.146126 -0.101288 -4.91121e-20)
(-0.148796 -0.101302 7.26848e-22)
(-0.150291 -0.0998366 0)
(-0.150601 -0.0965699 -3.7865e-20)
(-0.149723 -0.0911307 0)
(-0.147461 -0.0830898 -3.28506e-20)
(-0.143605 -0.0719704 1.19558e-19)
(-0.140335 -0.0574629 -1.2063e-21)
(-0.000760989 -0.00361019 0)
(-0.00500901 -0.0119182 7.54927e-23)
(-0.0139694 -0.0207203 2.97616e-20)
(-0.0252468 -0.0289434 -2.81428e-20)
(-0.0374584 -0.036223 2.63828e-20)
(-0.0498492 -0.0426129 1.49939e-19)
(-0.0618782 -0.0483325 -4.70296e-20)
(-0.0731681 -0.0536377 -4.43274e-20)
(-0.0834831 -0.0587436 8.32922e-20)
(-0.0926874 -0.063784 -1.1715e-19)
(-0.100708 -0.0688038 3.66449e-20)
(-0.107506 -0.0737699 3.42428e-20)
(-0.113059 -0.0785904 0)
(-0.117347 -0.0831331 3.00267e-20)
(-0.120348 -0.0872387 0)
(-0.12203 -0.0907279 5.12114e-20)
(-0.122352 -0.0934022 -9.4546e-20)
(-0.121263 -0.0950382 2.40405e-20)
(-0.118702 -0.0953746 8.17131e-20)
(-0.114622 -0.0940889 3.78312e-20)
(-0.109006 -0.0907613 0)
(-0.101637 -0.0848381 -9.1721e-20)
(-0.0918308 -0.075621 2.96279e-20)
(-0.0812607 -0.0623985 0)
(-0.00182511 0.000861045 0)
(-0.00711413 -0.00154578 -9.4495e-20)
(-0.0162196 -0.00667098 -3.01081e-20)
(-0.0270141 -0.0127923 -5.63889e-20)
(-0.0382599 -0.019077 5.30989e-20)
(-0.0492783 -0.0252306 -5.00194e-20)
(-0.0595727 -0.0312086 9.43336e-20)
(-0.0687882 -0.0370772 4.42487e-20)
(-0.0766961 -0.0429247 -1.25006e-19)
(-0.0831592 -0.0488075 7.80048e-20)
(-0.0880978 -0.0547304 -1.09651e-19)
(-0.0914645 -0.0606453 2.39023e-19)
(-0.0932284 -0.0664612 -1.28005e-19)
(-0.0933641 -0.0720555 5.92356e-20)
(-0.0918463 -0.0772843 1.64032e-19)
(-0.0886481 -0.0819886 -5.29412e-20)
(-0.0837395 -0.0859959 -4.85482e-20)
(-0.0770854 -0.089118 -4.43116e-20)
(-0.0686394 -0.0911402 0)
(-0.0583563 -0.0917976 -7.0056e-20)
(-0.0462592 -0.090733 -6.0596e-20)
(-0.0323588 -0.0873807 9.01597e-20)
(-0.0157232 -0.0805684 1.02274e-19)
(0.0050527 -0.0681308 -9.50477e-20)
(-0.00328552 0.00487923 0)
(-0.00996485 0.00783507 -1.27274e-19)
(-0.0191149 0.00610091 -4.95806e-22)
(-0.0290314 0.0019269 1.13242e-19)
(-0.0387101 -0.00344549 0)
(-0.0475945 -0.00940021 0)
(-0.0552585 -0.0156438 0)
(-0.0613833 -0.0220608 -4.43347e-20)
(-0.0657498 -0.028615 2.04961e-22)
(-0.0682143 -0.0352866 7.8541e-20)
(-0.0686838 -0.0420358 -1.09288e-19)
(-0.0670924 -0.0487943 3.79872e-22)
(-0.0633921 -0.0554644 0)
(-0.0575459 -0.0619247 -5.92108e-20)
(-0.049525 -0.0680356 5.36124e-20)
(-0.0393098 -0.0736447 -1.52216e-19)
(-0.0268912 -0.0785905 1.84117e-19)
(-0.0122711 -0.0827054 3.81656e-20)
(0.00454351 -0.0858146 -5.37028e-21)
(0.0235366 -0.0877337 -1.41744e-19)
(0.0446345 -0.08825 -6.18076e-20)
(0.067777 -0.0869556 1.91677e-19)
(0.0937744 -0.0825083 -1.24897e-19)
(0.125887 -0.0717933 0)
(-0.00500056 0.00822977 6.22586e-20)
(-0.0132621 0.0157422 6.37348e-20)
(-0.0222823 0.0169675 -6.09667e-20)
(-0.030874 0.0145206 -1.14504e-19)
(-0.0383219 0.00996461 1.07821e-19)
(-0.0442217 0.00419016 -1.01606e-19)
(-0.0482357 -0.00228882 1.43615e-19)
(-0.0500861 -0.00918965 -4.42394e-20)
(-0.0495625 -0.016358 8.43404e-20)
(-0.0465051 -0.0236942 0)
(-0.0407939 -0.0311105 7.33463e-20)
(-0.0323382 -0.0385092 -1.38339e-19)
(-0.0210678 -0.0457752 1.26951e-19)
(-0.00693457 -0.0527755 -1.19238e-19)
(0.010085 -0.0593607 0)
(0.0299849 -0.0653688 1.00642e-19)
(0.0527246 -0.0706297 1.81296e-19)
(0.078226 -0.0749714 -1.70353e-19)
(0.106374 -0.078226 -7.57224e-20)
(0.13702 -0.0802403 -6.55213e-20)
(0.169935 -0.0808949 1.8718e-19)
(0.205036 -0.0800235 5.03199e-20)
(0.241248 -0.0771024 -5.03027e-20)
(0.2905 -0.0679669 4.12417e-20)
(-0.00680617 0.0107704 -6.2267e-20)
(-0.0166434 0.0218248 1.95349e-19)
(-0.025249 0.0254401 -6.15313e-20)
(-0.0319821 0.0244214 1.1576e-19)
(-0.0364364 0.0205523 -1.09001e-19)
(-0.0383705 0.0149388 5.9028e-22)
(-0.0375392 0.00827898 4.85051e-20)
(-0.033705 0.00100272 1.81751e-19)
(-0.0266589 -0.00662444 -6.28885e-22)
(-0.016224 -0.0144243 -7.95327e-20)
(-0.00225306 -0.0222535 0)
(0.0153674 -0.0299742 -6.85484e-20)
(0.0367095 -0.0374429 1.29133e-19)
(0.0617979 -0.0445034 1.17759e-19)
(0.0905996 -0.0509859 -5.57471e-20)
(0.123014 -0.0567104 2.32831e-23)
(0.158868 -0.0614922 -4.59822e-20)
(0.197909 -0.065149 8.34044e-20)
(0.239816 -0.0675103 7.56991e-20)
(0.284224 -0.0684183 -6.8066e-20)
(0.330466 -0.067827 6.03202e-20)
(0.379405 -0.065318 -5.34092e-20)
(0.424062 -0.0622081 0)
(0.493426 -0.051766 -4.11714e-20)
(-0.00853577 0.0124366 6.37508e-20)
(-0.0197124 0.0258765 -6.54015e-20)
(-0.0274647 0.0311887 6.26364e-20)
(-0.0316685 0.0312117 0)
(-0.0322148 0.0278514 0)
(-0.0290177 0.0223676 1.04824e-19)
(-0.0219199 0.0156023 -9.75608e-20)
(-0.0107216 0.00810877 9.15603e-20)
(0.00477999 0.000251806 -4.28641e-19)
(0.0247692 -0.00771024 4.57462e-22)
(0.049391 -0.0155706 7.49691e-20)
(0.0787282 -0.0231455 0)
(0.112781 -0.0302546 -1.28026e-19)
(0.151448 -0.0367133 2.38358e-19)
(0.194513 -0.0423328 -1.65754e-19)
(0.24163 -0.0469247 -2.48785e-19)
(0.292333 -0.0503084 5.73867e-21)
(0.34604 -0.0523197 1.69289e-19)
(0.402059 -0.0528283 0)
(0.459782 -0.0516654 0)
(0.517599 -0.0491054 -6.03079e-20)
(0.578536 -0.0438098 5.33975e-20)
(0.62755 -0.0396928 -1.81386e-19)
(0.71114 -0.0262612 1.70237e-19)
(-0.0100365 0.0132375 0)
(-0.0220611 0.0278374 0)
(-0.028312 0.0340592 -1.88862e-19)
(-0.0291143 0.0346606 5.99576e-20)
(-0.0246215 0.0315868 1.77411e-22)
(-0.0148847 0.026196 1.0622e-19)
(0.000172238 0.0194353 0)
(0.0207021 0.011957 -9.27187e-20)
(0.0468746 0.00421605 8.60648e-20)
(0.0788244 -0.00345125 -1.61297e-19)
(0.116604 -0.0107771 7.03443e-22)
(0.16014 -0.0175295 1.38883e-19)
(0.209196 -0.0234958 -2.00447e-21)
(0.263351 -0.028478 1.16044e-19)
(0.321987 -0.0322951 -1.67331e-19)
(0.384303 -0.0347904 0)
(0.449338 -0.03584 1.8013e-19)
(0.51602 -0.0353592 -2.52246e-19)
(0.583178 -0.0333358 7.45969e-20)
(0.649921 -0.0296319 0)
(0.713927 -0.0249305 5.98028e-20)
(0.77927 -0.0172204 2.07517e-19)
(0.828113 -0.0120883 -1.94751e-19)
(0.911005 0.00331985 -2.06118e-19)
(-0.0111758 0.0132413 1.97846e-19)
(-0.0232726 0.0277802 -2.72586e-19)
(-0.0271026 0.0340901 2.58654e-22)
(-0.0233513 0.0347742 6.08422e-20)
(-0.0123965 0.0317625 -1.13916e-19)
(0.00559263 0.0264706 -1.05617e-19)
(0.0306033 0.0199181 1.9859e-19)
(0.0627016 0.0128347 -1.7161e-21)
(0.101941 0.00575119 -1.74664e-19)
(0.148276 -0.00093126 3.24067e-19)
(0.201483 -0.0068964 -1.90744e-21)
(0.261099 -0.0118871 -1.41175e-19)
(0.32639 -0.0156949 0)
(0.396338 -0.0181599 0)
(0.469678 -0.0191753 -5.49207e-20)
(0.544946 -0.0186933 -9.98816e-20)
(0.62057 -0.0167277 -1.79165e-19)
(0.694953 -0.013357 1.6818e-19)
(0.766568 -0.0087241 -7.46219e-20)
(0.834175 -0.00292582 1.30356e-19)
(0.896018 0.00342323 -6.58308e-20)
(0.954228 0.0115911 9.83107e-20)
(0.997335 0.0169896 -2.41962e-19)
(1.06079 0.0306004 4.17714e-20)
(-0.0118325 0.0125512 6.69003e-20)
(-0.0228971 0.0258966 0)
(-0.0230252 0.0315154 1.30232e-19)
(-0.0132031 0.0318353 -1.22684e-19)
(0.00601079 0.0287486 1.14017e-19)
(0.0343227 0.0236955 0)
(0.0715829 0.0177399 0)
(0.117664 0.0116639 -9.36029e-20)
(0.172328 0.00604703 1.45686e-21)
(0.235101 0.00132143 8.257e-20)
(0.305178 -0.00219627 -7.48907e-20)
(0.381378 -0.00428973 1.41499e-19)
(0.462147 -0.00483829 0)
(0.545617 -0.00381623 2.35615e-19)
(0.629719 -0.00129043 -4.36558e-19)
(0.712317 0.00258661 3.02103e-19)
(0.791357 0.0075935 1.77497e-19)
(0.864998 0.013443 -1.6662e-19)
(0.931765 0.0198675 0)
(0.990485 0.0264465 0)
(1.04073 0.033105 0)
(1.08232 0.0393488 0)
(1.11374 0.0444702 4.72599e-20)
(1.14789 0.0526224 -1.65958e-19)
(-0.176215 -0.0352118 -5.7971e-21)
(-0.177215 -0.0051824 5.81723e-21)
(-0.176827 0.031062 -1.64876e-22)
(-0.175158 0.0727815 0)
(-0.171609 0.119423 -5.07363e-21)
(-0.165905 0.169973 9.73318e-21)
(-0.157825 0.22291 -1.58146e-22)
(-0.147187 0.276139 -4.38331e-21)
(-0.133803 0.327116 0)
(-0.117421 0.372915 0)
(-0.097434 0.410016 -2.10029e-22)
(-0.0727533 0.43474 -2.01065e-22)
(-0.0419177 0.442941 -3.34221e-21)
(-0.00329347 0.430313 3.05725e-21)
(0.0441044 0.392981 0)
(0.0999736 0.328844 0)
(0.162551 0.238706 3.30171e-21)
(0.228716 0.126424 7.80833e-23)
(0.295481 -0.00176499 -2.98325e-21)
(0.361672 -0.138565 -1.97521e-22)
(0.42563 -0.270656 0)
(0.483246 -0.3819 0)
(0.529357 -0.45975 0)
(0.560593 -0.500956 0)
(0.57655 -0.511898 0)
(0.57431 -0.508953 0)
(0.54709 -0.511897 3.40603e-22)
(0.497905 -0.522089 -5.38821e-22)
(0.450529 -0.50802 0)
(0.4357 -0.426995 0)
(0.463295 -0.267555 -6.30502e-22)
(0.5209 -0.0618041 6.12761e-22)
(0.590028 0.14047 2.77744e-22)
(0.653574 0.300366 0)
(0.70054 0.402296 0)
(0.732884 0.447521 3.0301e-22)
(0.749327 0.458446 -2.9454e-22)
(0.73574 0.473495 0)
(0.689011 0.498606 2.73783e-22)
(0.636884 0.483309 -4.16187e-22)
(0.61564 0.36949 1.78278e-22)
(0.63573 0.164297 0)
(0.677566 -0.0651178 -3.39393e-22)
(0.723232 -0.248217 3.30012e-22)
(0.76375 -0.350166 0)
(0.787204 -0.396239 0)
(0.768174 -0.425663 -7.71131e-23)
(0.71891 -0.4441 2.13998e-22)
(0.665526 -0.39222 0)
(0.64289 -0.253447 0)
(0.657324 -0.053653 -7.72753e-23)
(0.696922 0.122885 7.14403e-24)
(0.73371 0.241105 -9.16639e-24)
(0.747169 0.323747 4.40407e-23)
(0.708606 0.344733 0)
(0.678394 0.346965 0)
(0.665539 0.208496 0)
(0.677542 0.0941893 0)
(0.726096 -0.063163 0)
(0.762872 -0.142697 0)
(-0.176823 -0.0349367 -5.01623e-22)
(-0.178616 -0.00663699 -2.06414e-20)
(-0.178724 0.0274313 5.31619e-22)
(-0.177559 0.066791 1.88907e-20)
(-0.174112 0.110875 2.63747e-22)
(-0.16781 0.158718 0)
(-0.158124 0.208957 -1.57124e-20)
(-0.1445 0.259472 3.05581e-20)
(-0.126295 0.307659 -1.48464e-20)
(-0.103064 0.350801 1.35644e-20)
(-0.074024 0.384585 -1.29739e-20)
(-0.0381954 0.405589 1.26985e-20)
(0.00513195 0.409598 -1.233e-20)
(0.0564631 0.392467 -4.08156e-22)
(0.115543 0.351051 -1.37506e-20)
(0.18095 0.284267 1.33621e-20)
(0.250072 0.193395 -1.45402e-20)
(0.319704 0.0818227 1.36636e-20)
(0.387603 -0.0454669 -1.40815e-20)
(0.45312 -0.180489 2.63485e-20)
(0.51408 -0.309744 -1.23138e-20)
(0.565559 -0.415279 -6.31976e-22)
(0.602261 -0.484287 -7.11771e-21)
(0.621688 -0.515451 1.24568e-20)
(0.625773 -0.516191 -5.38385e-21)
(0.61586 -0.50101 2.3697e-22)
(0.585808 -0.490478 3.37318e-21)
(0.531849 -0.493795 1.59096e-22)
(0.470342 -0.487331 -6.64629e-21)
(0.434026 -0.425628 7.37313e-21)
(0.442508 -0.285724 -3.85208e-21)
(0.488602 -0.091664 5.00774e-22)
(0.553317 0.107677 -2.7832e-22)
(0.617991 0.272433 4.21936e-22)
(0.671389 0.38202 0)
(0.712812 0.435426 0)
(0.735491 0.457218 -1.08211e-21)
(0.724466 0.48453 7.88397e-22)
(0.681333 0.516102 9.10851e-22)
(0.637442 0.496434 3.91829e-22)
(0.626901 0.371111 -1.53898e-21)
(0.655455 0.155729 4.32421e-22)
(0.701457 -0.0783873 0)
(0.744755 -0.26169 0)
(0.779294 -0.360015 0)
(0.799251 -0.397013 0)
(0.778428 -0.41614 3.05676e-22)
(0.727935 -0.429965 -1.39125e-22)
(0.671254 -0.381797 0)
(0.645304 -0.25215 0)
(0.656029 -0.0607643 0)
(0.695408 0.113053 -1.08034e-22)
(0.730162 0.235218 2.10104e-23)
(0.739564 0.326544 -9.95113e-23)
(0.701021 0.351934 0)
(0.669719 0.351576 0)
(0.665961 0.208106 6.59636e-23)
(0.679782 0.0881931 1.97041e-22)
(0.730416 -0.07124 0)
(0.770215 -0.146703 0)
(-0.143975 -0.0374849 -7.20813e-22)
(-0.145849 -0.0112618 -3.78996e-20)
(-0.145149 0.0205133 3.53772e-20)
(-0.143143 0.0573284 -3.31285e-20)
(-0.138695 0.0985187 -2.65559e-22)
(-0.130858 0.143163 0)
(-0.11897 0.190232 -2.83827e-20)
(-0.102311 0.237546 2.77606e-20)
(-0.0796317 0.282133 2.14793e-22)
(-0.0508478 0.321367 3.77457e-22)
(-0.0151848 0.351602 3.76624e-22)
(0.0287075 0.369157 3.9508e-22)
(0.0804546 0.369792 -2.64762e-20)
(0.139712 0.349817 2.61394e-20)
(0.205464 0.306709 0)
(0.275654 0.239824 9.33626e-22)
(0.347409 0.150508 -3.1122e-20)
(0.417815 0.0416492 3.07063e-20)
(0.485268 -0.0825928 0)
(0.549099 -0.214724 0)
(0.606124 -0.340099 -2.40268e-20)
(0.650244 -0.439456 4.28e-20)
(0.676519 -0.499961 -3.31698e-20)
(0.683943 -0.522234 3.46863e-21)
(0.675893 -0.515441 1.93399e-20)
(0.657248 -0.491772 -1.55805e-20)
(0.624829 -0.469329 1.22453e-20)
(0.570008 -0.463225 -5.06147e-22)
(0.49961 -0.460571 -5.38436e-21)
(0.444128 -0.417672 0)
(0.432273 -0.300305 0)
(0.464378 -0.121373 2.74671e-21)
(0.522396 0.073078 -3.55838e-21)
(0.586957 0.241111 -5.98099e-23)
(0.646061 0.3577 2.52207e-21)
(0.695337 0.420189 -2.45098e-21)
(0.723224 0.454174 0)
(0.714947 0.494022 2.64562e-22)
(0.67652 0.531539 2.83778e-21)
(0.641499 0.507587 -6.23563e-21)
(0.641143 0.37195 2.96167e-21)
(0.677573 0.147846 5.00153e-22)
(0.727803 -0.089522 -4.07116e-21)
(0.769005 -0.272301 3.0959e-21)
(0.796966 -0.367831 5.4654e-22)
(0.812824 -0.396972 3.97314e-22)
(0.79042 -0.406267 -3.06438e-22)
(0.738812 -0.415645 0)
(0.679355 -0.371471 0)
(0.651132 -0.251117 -9.04101e-22)
(0.658228 -0.0683075 4.61034e-22)
(0.696497 0.103106 -4.1166e-22)
(0.728089 0.229786 6.09565e-22)
(0.733092 0.329678 7.31336e-22)
(0.694852 0.359199 -1.80798e-22)
(0.662649 0.355557 3.30763e-22)
(0.66795 0.206819 -3.10109e-22)
(0.684724 0.0819085 1.80262e-22)
(0.736889 -0.0796033 0)
(0.778273 -0.150951 0)
(-0.0815921 -0.0425297 -7.08447e-20)
(-0.0839075 -0.0187529 3.26539e-21)
(-0.08195 0.0107244 6.39412e-20)
(-0.0784317 0.0447401 -4.9554e-22)
(-0.072468 0.0827492 0)
(-0.0626024 0.123944 0)
(-0.0481839 0.167031 -5.03717e-20)
(-0.029286 0.209994 -4.47585e-22)
(-0.00404295 0.250734 7.14914e-20)
(0.028657 0.286058 2.8697e-22)
(0.0689512 0.313199 -2.35591e-20)
(0.117452 0.327913 -2.46008e-20)
(0.173627 0.326253 2.46324e-20)
(0.236665 0.305056 0)
(0.305051 0.262209 -3.02272e-20)
(0.376494 0.197232 2.74642e-20)
(0.448212 0.111355 0)
(0.517787 0.00662935 0)
(0.584131 -0.113537 3.09677e-20)
(0.64614 -0.241994 -1.93321e-21)
(0.69904 -0.362817 -2.65462e-20)
(0.735218 -0.455678 -2.02411e-20)
(0.750352 -0.508088 2.00826e-20)
(0.74577 -0.522372 -1.18108e-20)
(0.726099 -0.509817 2.82613e-21)
(0.698077 -0.4812 8.31804e-21)
(0.662734 -0.449865 7.13284e-22)
(0.610006 -0.43276 4.33587e-23)
(0.536725 -0.428677 0)
(0.466088 -0.401779 5.16393e-21)
(0.433234 -0.309263 -5.31248e-21)
(0.449081 -0.149417 4.14968e-22)
(0.498362 0.0373984 0)
(0.56137 0.20683 -3.6679e-22)
(0.624896 0.329758 4.54078e-21)
(0.680391 0.402069 -8.16695e-21)
(0.712459 0.449069 -6.55983e-22)
(0.707209 0.501333 -4.68757e-22)
(0.674448 0.544401 3.89668e-21)
(0.648608 0.516759 7.07945e-22)
(0.657848 0.372485 -7.51374e-21)
(0.701519 0.141027 6.36173e-21)
(0.755984 -0.0986097 -4.98672e-23)
(0.795613 -0.280252 2.66211e-21)
(0.816688 -0.37368 -3.13627e-21)
(0.827696 -0.396324 -2.60341e-21)
(0.803869 -0.39629 7.91834e-22)
(0.751276 -0.40114 8.61436e-22)
(0.689377 -0.361158 -1.63908e-21)
(0.659831 -0.25029 1.21072e-21)
(0.663499 -0.0760549 -4.28229e-22)
(0.69986 0.0932628 4.04885e-22)
(0.727388 0.224908 3.49844e-22)
(0.727816 0.333112 -1.08014e-21)
(0.69009 0.366476 5.15751e-24)
(0.657449 0.358915 -3.76047e-22)
(0.671397 0.204587 0)
(0.692067 0.0753127 -1.59691e-22)
(0.745543 -0.0880724 3.35666e-22)
(0.787146 -0.155304 0)
(0.0092019 -0.0496317 6.55719e-20)
(0.00438587 -0.0281258 -1.2483e-19)
(0.0060893 -0.00204021 5.87137e-20)
(0.00985914 0.0282091 5.27286e-20)
(0.0166307 0.0627636 -1.01186e-19)
(0.0274585 0.100354 1.52347e-21)
(0.0430313 0.139277 4.60595e-20)
(0.0638125 0.178103 4.43839e-20)
(0.0910878 0.215337 -4.34946e-20)
(0.125627 0.24756 0)
(0.167835 0.271791 -4.71793e-20)
(0.217899 0.284236 9.58608e-20)
(0.275284 0.281398 -4.86245e-20)
(0.338921 0.260414 0)
(0.407089 0.219377 0)
(0.477558 0.157773 9.73677e-22)
(0.547735 0.0764605 -6.65623e-20)
(0.615884 -0.0231092 6.46539e-20)
(0.681262 -0.138419 0)
(0.741704 -0.262289 5.95416e-20)
(0.790291 -0.377409 -1.05416e-19)
(0.818014 -0.463039 8.79521e-20)
(0.821582 -0.507911 -7.06871e-20)
(0.805199 -0.515766 6.92812e-21)
(0.775229 -0.499171 3.98566e-20)
(0.738451 -0.468522 -1.68836e-20)
(0.699169 -0.432329 -3.45764e-22)
(0.649602 -0.405187 -3.67913e-21)
(0.578914 -0.395066 1.57906e-22)
(0.499048 -0.37873 3.58383e-21)
(0.446102 -0.311088 2.98315e-22)
(0.443459 -0.17415 -4.68265e-21)
(0.482055 0.0017526 9.16295e-21)
(0.541907 0.170087 -4.97079e-21)
(0.607995 0.298554 0)
(0.667741 0.381097 -4.46275e-21)
(0.703013 0.441469 4.34941e-21)
(0.701162 0.505786 -4.16869e-21)
(0.674887 0.554278 5.1763e-21)
(0.658341 0.524129 -7.76119e-22)
(0.676633 0.373057 0)
(0.726951 0.135631 -1.04953e-21)
(0.785446 -0.105697 2.92381e-21)
(0.824084 -0.285509 0)
(0.838261 -0.377297 5.15457e-21)
(0.843633 -0.394965 -2.26093e-21)
(0.818556 -0.386299 5.75752e-22)
(0.765194 -0.386517 3.93965e-22)
(0.700908 -0.35093 0)
(0.670673 -0.249705 0)
(0.671237 -0.0839069 -9.96721e-22)
(0.705097 0.0836666 1.58559e-21)
(0.727938 0.220612 -9.6073e-22)
(0.723773 0.336782 3.16859e-22)
(0.686725 0.373689 6.88887e-22)
(0.654335 0.361663 3.7641e-22)
(0.676186 0.201419 -8.22079e-22)
(0.70142 0.0682968 0)
(0.756259 -0.0965305 -5.07791e-22)
(0.796877 -0.159636 -1.16628e-22)
(0.130326 -0.0562037 6.26662e-20)
(0.122189 -0.0370689 -6.21356e-20)
(0.118979 -0.0153111 4.41745e-22)
(0.120419 0.010714 -3.75029e-22)
(0.125766 0.0413013 3.80914e-22)
(0.135107 0.0748185 -3.59467e-22)
(0.149661 0.109881 6.32226e-22)
(0.17009 0.145141 0)
(0.19715 0.178654 -6.19783e-22)
(0.2314 0.207702 6.36595e-22)
(0.273168 0.229318 6.69015e-22)
(0.322466 0.240178 -7.44545e-22)
(0.378727 0.237109 0)
(0.440819 0.217437 0)
(0.507076 0.179287 9.08322e-22)
(0.575482 0.12188 0)
(0.643854 0.0455786 -1.0122e-21)
(0.710845 -0.0482131 0)
(0.775561 -0.158021 -6.19731e-20)
(0.834306 -0.276071 1.1837e-19)
(0.877831 -0.38407 -1.04661e-19)
(0.896416 -0.461794 4.84119e-20)
(0.888433 -0.499937 3.10985e-20)
(0.860852 -0.503331 -3.02007e-20)
(0.822095 -0.484471 -1.74357e-20)
(0.778179 -0.453719 1.67855e-20)
(0.734334 -0.416247 0)
(0.68723 -0.381709 2.18161e-22)
(0.622953 -0.362779 0)
(0.540922 -0.3503 0)
(0.471186 -0.304609 5.9847e-21)
(0.448243 -0.193764 -6.09934e-21)
(0.473751 -0.0332556 3.6669e-22)
(0.528491 0.131453 4.94889e-22)
(0.595047 0.264438 -3.6856e-22)
(0.656999 0.357232 -3.59037e-21)
(0.694633 0.430879 3.48624e-21)
(0.696557 0.506777 -5.20555e-21)
(0.677388 0.560956 4.53736e-21)
(0.670187 0.529953 1.5807e-21)
(0.697163 0.37405 -8.35894e-21)
(0.753615 0.131534 -1.51652e-21)
(0.815759 -0.110902 6.26112e-21)
(0.853897 -0.288209 0)
(0.861461 -0.378568 -2.37997e-21)
(0.860412 -0.39285 1.93991e-21)
(0.834151 -0.376443 -2.67115e-21)
(0.780385 -0.371786 -3.96456e-22)
(0.713608 -0.340692 0)