/*--------------------------------*- C++ -*----------------------------------*\
| =========                 |                                                 |
| \\      /  F ield         | OpenFOAM: The Open Source CFD Toolbox           |
|  \\    /   O peration     | Version:  2512                                  |
|   \\  /    A nd           | Website:  www.openfoam.com                      |
|    \\/     M anipulation  |                                                 |
\*---------------------------------------------------------------------------*/
FoamFile
{
    version     2.0;
    format      ascii;
    arch        "LSB;label=32;scalar=64";
    class       surfaceScalarField;
    location    "127.25";
    object      phi;
}
// * * * * * * * * * * * * * * * * * * * * * * * * * * * * * * * * * * * * * //

dimensions      [0 3 -1 0 0 0 0];

oriented        oriented;

internalField   nonuniform List<scalar> 
26232
(
0.000174106
0.000856402
-0.00103051
0.00077
0.00129614
-0.00189204
0.00189527
0.000613362
-0.00173863
0.00367744
-0.00111886
-0.000663307
0.00625768
-0.00384771
0.00126747
0.00977901
-0.00753213
0.0040108
0.0143693
-0.0121297
0.00753942
0.0201206
-0.0175797
0.0118284
0.0270679
-0.0237871
0.0168397
0.0351725
-0.030613
0.0225084
0.0443136
-0.0378754
0.0287343
0.0542918
-0.045359
0.0353808
0.0648452
-0.0528339
0.0422806
0.0756749
-0.0600774
0.0492477
0.0864763
-0.0668951
0.0560937
0.0969713
-0.0731384
0.0626434
0.106935
-0.0787143
0.0687506
0.116215
-0.083589
0.0743091
0.12474
-0.087782
0.0792568
0.132518
-0.0913616
0.0835834
0.139617
-0.094408
0.087309
0.14616
-0.0970705
0.0905277
0.152156
-0.0993168
0.0933206
-0.101541
0.0960397
0.157657
0.000213461
0.00064294
0.000982156
0.000527448
0.00245111
-0.000855595
0.00477297
-0.00344072
0.00810153
-0.00717627
0.0125735
-0.0120041
0.018283
-0.0178392
0.0252545
-0.0245511
0.0334209
-0.0319535
0.0426156
-0.0398077
0.05258
-0.0478398
0.0629895
-0.0557685
0.0734906
-0.063335
0.0837429
-0.0703297
0.0934586
-0.0766108
0.102432
-0.0821114
0.110554
-0.0868367
0.117817
-0.0908516
0.124298
-0.0942631
0.130137
-0.0972009
0.135522
-0.0997935
0.140636
-0.102184
0.145718
-0.104399
-0.1068
0.150977
0.000266823
0.000376118
0.00124261
-0.000448335
0.00310753
-0.00272052
0.00603372
-0.00636691
0.0101721
-0.0113147
0.0156239
-0.0174559
0.0224068
-0.0246221
0.0304286
-0.0325729
0.0394776
-0.0410026
0.0492379
-0.0495679
0.0593255
-0.0579274
0.0693406
-0.0657836
0.0789206
-0.072915
0.0877852
-0.0791943
0.0957646
-0.0845902
0.102807
-0.0891543
0.10897
-0.0929991
0.114389
-0.096271
0.119251
-0.099125
0.123756
-0.101706
0.128094
-0.104132
0.132417
-0.106507
0.136867
-0.108849
-0.111388
0.141455
0.000342633
3.3485e-05
0.00157405
-0.00167975
0.00389762
-0.00504409
0.0074872
-0.00995649
0.0124608
-0.0162883
0.0188408
-0.0238359
0.0265203
-0.0323017
0.0352517
-0.0413042
0.0446672
-0.0504182
0.0543299
-0.0592305
0.0638
-0.0673975
0.0727005
-0.0746841
0.0807661
-0.0809806
0.0878667
-0.0862949
0.0940036
-0.0907271
0.0992844
-0.0944352
0.103885
-0.0975995
0.108007
-0.100394
0.111848
-0.102966
0.115573
-0.105431
0.119311
-0.10787
0.12315
-0.110345
0.127159
-0.112859
-0.115575
0.131347
0.00044337
-0.000409885
0.00197994
-0.00321632
0.00481461
-0.00787876
0.00909277
-0.0142347
0.0148571
-0.0220526
0.0220037
-0.0309825
0.0302639
-0.0405618
0.0392283
-0.0502687
0.048411
-0.0596008
0.0573332
-0.0681527
0.065602
-0.0756663
0.072963
-0.0820451
0.0793175
-0.0873352
0.0847069
-0.0916843
0.0892735
-0.0952937
0.0932129
-0.0983746
0.0967299
-0.101116
0.100007
-0.103671
0.10319
-0.106148
0.106382
-0.108623
0.109653
-0.111142
0.113043
-0.113735
0.116589
-0.116404
-0.119251
0.120265
0.000566433
-0.000976318
0.00244614
-0.00509603
0.00581527
-0.0112479
0.0107504
-0.0191698
0.0171721
-0.0284743
0.0248124
-0.0386228
0.0332347
-0.0489842
0.0419084
-0.0589423
0.0503113
-0.0680038
0.0580252
-0.0758666
0.0647938
-0.0824349
0.0705355
-0.0877869
0.0753165
-0.0921162
0.0792999
-0.0956677
0.082691
-0.0986847
0.0856916
-0.101375
0.0884727
-0.103898
0.0911636
-0.106362
0.0938536
-0.108838
0.0966008
-0.11137
0.0994408
-0.113982
0.102393
-0.116687
0.105476
-0.119488
-0.12244
0.108665
0.000705712
-0.00168203
0.00294577
-0.00733609
0.00683051
-0.0151326
0.012323
-0.0246623
0.0191823
-0.0353336
0.0269653
-0.0464058
0.0351038
-0.0571226
0.0430253
-0.0668638
0.0502697
-0.0752482
0.0565593
-0.0821562
0.0618111
-0.0876866
0.0661005
-0.0920762
0.069601
-0.0956167
0.0725227
-0.0985894
0.0750651
-0.101227
0.0773915
-0.103702
0.0796216
-0.106128
0.0818358
-0.108576
0.0840849
-0.111087
0.0863997
-0.113685
0.088798
-0.11638
0.0912887
-0.119178
0.09388
-0.122079
-0.125108
0.0965482
0.000853037
-0.00253507
0.00344435
-0.0099274
0.00777819
-0.0194665
0.0136637
-0.0305478
0.0206793
-0.0423492
0.0282333
-0.0539598
0.035697
-0.0645864
0.0425486
-0.0737154
0.048464
-0.0811635
0.0533358
-0.0870281
0.057233
-0.0915838
0.0603311
-0.0951743
0.0628433
-0.098129
0.06497
-0.100716
0.0668721
-0.103129
0.068665
-0.105494
0.0704243
-0.107887
0.072197
-0.110349
0.0740108
-0.112901
0.0758822
-0.115556
0.0778203
-0.118318
0.0798298
-0.121187
0.0819147
-0.124164
-0.127251
0.0840578
0.00099894
-0.00353401
0.00390397
-0.0128324
0.0085749
-0.0241374
0.0146406
-0.0366134
0.0215106
-0.0492192
0.0285029
-0.0609521
0.0350142
-0.0710977
0.0406448
-0.079346
0.0452356
-0.0857544
0.0488303
-0.0906227
0.0515974
-0.0943509
0.0537525
-0.0973295
0.0555002
-0.0998766
0.057004
-0.10222
0.05838
-0.104505
0.0597028
-0.106817
0.0610175
-0.109202
0.0623505
-0.111682
0.0637173
-0.114268
0.065127
-0.116966
0.0665849
-0.119776
0.0680938
-0.122696
0.0696544
-0.125725
-0.128853
0.0712565
0.00113296
-0.00466697
0.0042867
-0.0159862
0.00914671
-0.0289974
0.0151574
-0.0426241
0.021601
-0.0556628
0.0277813
-0.0671324
0.0331917
-0.0765082
0.0375886
-0.0837429
0.0409653
-0.0891311
0.0434707
-0.0931281
0.0453195
-0.0961997
0.0467233
-0.0987332
0.0478535
-0.101007
0.0488314
-0.103198
0.0497345
-0.105408
0.0506084
-0.107691
0.0514793
-0.110073
0.0523623
-0.112565
0.0532667
-0.115172
0.0541979
-0.117897
0.0551591
-0.120737
0.0561519
-0.123689
0.0571761
-0.126749
-0.129904
0.058227
0.00124493
-0.0059119
0.00455967
-0.0193009
0.00943941
-0.0338771
0.0151651
-0.0483499
0.0209543
-0.061452
0.0261683
-0.0723464
0.0304402
-0.08078
0.0336795
-0.0869822
0.0359949
-0.0914465
0.0375923
-0.0947255
0.0386908
-0.0972983
0.0394743
-0.0995167
0.0400745
-0.101607
0.0405754
-0.103699
0.0410261
-0.105859
0.0414537
-0.108119
0.0418736
-0.110492
0.0422949
-0.112986
0.0427237
-0.115601
0.0431635
-0.118337
0.0436162
-0.12119
0.0440825
-0.124155
0.0445605
-0.127227
-0.130393
0.0450495
0.00132871
-0.00724061
0.00470183
-0.022674
0.00942617
-0.0386015
0.0146643
-0.053588
0.0196386
-0.0664263
0.0238212
-0.076529
0.0269949
-0.0839537
0.0291958
-0.0891831
0.0306043
-0.092855
0.0314433
-0.0955644
0.0319117
-0.0977667
0.0321569
-0.0997619
0.0322742
-0.101724
0.032319
-0.103744
0.0323216
-0.105861
0.0322981
-0.108095
0.0322577
-0.110452
0.0322064
-0.112935
0.0321487
-0.115543
0.0320872
-0.118275
0.0320236
-0.121126
0.0319579
-0.124089
0.0318876
-0.127157
0.0318142
-0.130319
-0.000282634
-0.00088825
0.00117088
-0.000979865
-0.00274485
0.00344209
-0.00200876
-0.0046028
0.0056317
-0.00330991
-0.00636121
0.00766236
-0.00483474
-0.00797526
0.00950009
-0.00654035
-0.00945461
0.0111602
-0.00838766
-0.0108448
0.0126921
-0.0103411
-0.0122058
0.0141593
-0.0123687
-0.0135941
0.0156217
-0.0144416
-0.015051
0.0171239
-0.0165326
-0.0165983
0.0186893
-0.0186145
-0.0182381
0.0203199
-0.0206575
-0.0199552
0.0219982
-0.0226277
-0.0217196
0.0236898
-0.0244849
-0.0234879
0.0253451
-0.0261819
-0.0252032
0.0269002
-0.0276641
-0.0267951
0.0282773
-0.0288701
-0.0281785
0.0293845
-0.0297337
-0.0292541
0.0301177
-0.0301863
-0.0299107
0.0303633
-0.0301603
-0.0300312
0.0300052
-0.0295959
-0.029493
0.0289285
-0.0284637
-0.028157
0.0270248
-0.0259131
-0.0267951
0.0242445
-0.000352755
-0.000535496
-0.00120928
-0.00188833
-0.00245478
-0.0033573
-0.00400767
-0.00480831
-0.00580522
-0.00617772
-0.00779766
-0.00746217
-0.00994521
-0.00869726
-0.012216
-0.00993502
-0.0145844
-0.0112257
-0.0170291
-0.0126064
-0.0195303
-0.0140971
-0.0220681
-0.0157002
-0.0246199
-0.0174034
-0.0271585
-0.019181
-0.0296509
-0.0209955
-0.0320571
-0.022797
-0.0343298
-0.0245224
-0.0364142
-0.0260941
-0.0382499
-0.0274184
-0.0397741
-0.0283864
-0.0409271
-0.0288783
-0.041654
-0.028766
-0.0419126
-0.0278984
-0.0261243
-0.0417013
-0.000392853
-0.000142643
-0.00134056
-0.000940617
-0.00270701
-0.00199086
-0.00439407
-0.00312125
-0.00632762
-0.00424416
-0.0084517
-0.00533809
-0.0107246
-0.00642436
-0.0131156
-0.00754405
-0.0156016
-0.00873965
-0.0181642
-0.0100438
-0.0207866
-0.0114747
-0.0234512
-0.0130356
-0.0261376
-0.0147169
-0.0288216
-0.0164971
-0.0314733
-0.0183438
-0.0340569
-0.0202133
-0.0365296
-0.0220497
-0.0388407
-0.023783
-0.0409322
-0.0253269
-0.0427425
-0.0265761
-0.0442139
-0.0274069
-0.0452949
-0.0276851
-0.0459276
-0.0272658
-0.025952
-0.0460999
-0.000397276
0.000254633
-0.00135757
1.96805e-05
-0.00273745
-0.000610992
-0.00442939
-0.00142931
-0.00635111
-0.00232244
-0.00844044
-0.00324876
-0.0106517
-0.00421308
-0.0129516
-0.00524413
-0.0153151
-0.00637615
-0.0177216
-0.00763733
-0.0201517
-0.00904458
-0.0225849
-0.0106024
-0.0249982
-0.0123036
-0.027365
-0.0141302
-0.0296549
-0.0160539
-0.0318325
-0.0180358
-0.0338565
-0.0200257
-0.0356779
-0.0219616
-0.0372377
-0.0237671
-0.0384664
-0.0253475
-0.0392915
-0.0265817
-0.0396489
-0.0273277
-0.039461
-0.0274537
-0.0267171
-0.0386959
-0.000365833
0.000620466
-0.00125956
0.000913408
-0.00254451
0.000673958
-0.00411119
0.000137371
-0.00587266
-0.000560974
-0.00775969
-0.00136173
-0.00972018
-0.00225259
-0.0117139
-0.00325041
-0.0137086
-0.00438144
-0.015676
-0.00566992
-0.0175886
-0.00713196
-0.0194177
-0.00877332
-0.0211324
-0.010589
-0.0226993
-0.0125633
-0.0240833
-0.0146699
-0.0252473
-0.0168718
-0.0261518
-0.0191212
-0.0267534
-0.0213599
-0.0270011
-0.0235194
-0.0268296
-0.025519
-0.0261543
-0.027257
-0.0248913
-0.0285908
-0.0229848
-0.0293601
-0.0296079
-0.020094
-0.000303535
0.000924001
-0.00106003
0.0016699
-0.0021517
0.00176563
-0.00347444
0.00146011
-0.00493665
0.000901237
-0.00646238
0.000163999
-0.00799091
-0.000724052
-0.0094702
-0.00177113
-0.0108556
-0.00299608
-0.0121055
-0.00441998
-0.0131789
-0.00605855
-0.0140335
-0.00791871
-0.0146256
-0.00999689
-0.0149108
-0.0122781
-0.0148455
-0.0147353
-0.0143878
-0.0173294
-0.0134993
-0.0200097
-0.0121446
-0.0227146
-0.0102903
-0.0253737
-0.00789992
-0.0279094
-0.00491717
-0.0302397
-0.00122904
-0.0322789
0.00328173
-0.0338709
-0.0346325
0.00830631
-0.00021988
0.00114388
-0.000786179
0.0022362
-0.00160647
0.00258592
-0.0025848
0.00243844
-0.00362917
0.00194561
-0.0046569
0.00119172
-0.00559113
0.000210177
-0.0063687
-0.000993554
-0.00692706
-0.00243772
-0.0072074
-0.00413964
-0.00715127
-0.00611468
-0.00670016
-0.00836982
-0.00579594
-0.0109011
-0.00438281
-0.0136912
-0.00240952
-0.0167086
0.000168393
-0.0199073
0.00338653
-0.0232278
0.00727087
-0.026599
0.0118386
-0.0299415
0.0171015
-0.0331722
0.0230705
-0.0362087
0.0297795
-0.0389879
0.0371858
-0.0412772
-0.0434987
0.0460521
-0.000127049
0.00127093
-0.000473124
0.00258228
-0.00097116
0.00308396
-0.00153475
0.00300203
-0.00207128
0.00248213
-0.00248916
0.00160961
-0.00270141
0.000422429
-0.00262367
-0.00107129
-0.00217714
-0.00288425
-0.00128439
-0.00503239
0.000129863
-0.00752894
0.00213806
-0.010378
0.00480685
-0.0135699
0.00819453
-0.0170789
0.0123477
-0.0208618
0.0172984
-0.0248581
0.0230628
-0.0289922
0.029641
-0.0331773
0.0370197
-0.0373202
0.0451761
-0.0413286
0.0540749
-0.0451076
0.0637158
-0.0486289
0.0740235
-0.0515848
-0.0549603
0.0854851
-3.74795e-05
0.00130841
-0.000157632
0.00270243
-0.000312334
0.00323866
-0.000422375
0.00311207
-0.000393668
0.00245343
-0.000126177
0.00134212
0.000480724
-0.000184473
0.00152767
-0.00211824
0.00311093
-0.00446752
0.00532307
-0.00724452
0.00824995
-0.0104558
0.011967
-0.0140951
0.0165349
-0.0181378
0.0219947
-0.0225387
0.0283641
-0.0272312
0.0356353
-0.0321293
0.0437758
-0.0371326
0.0527309
-0.0421323
0.0624297
-0.047019
0.0727923
-0.0516911
0.0837395
-0.0560548
0.0952059
-0.0600953
0.107109
-0.0634882
-0.0674268
0.119576
3.90569e-05
0.00126935
0.000130291
0.00261119
0.000314564
0.00305439
0.000669405
0.00275723
0.00129288
0.00182995
0.00229428
0.000340721
0.00378763
-0.00167783
0.00588684
-0.00421745
0.00870075
-0.00728143
0.0123281
-0.0108718
0.016851
-0.0149787
0.0223283
-0.0195724
0.0287887
-0.0245982
0.0362258
-0.0299758
0.0445959
-0.0356013
0.0538196
-0.041353
0.0637875
-0.0471005
0.0743688
-0.0527136
0.0854231
-0.0580733
0.0968101
-0.0630781
0.108409
-0.0676536
0.120093
-0.0717794
0.131865
-0.0752604
-0.0790417
0.14348
9.77744e-05
0.00117158
0.000375256
0.00233371
0.000880312
0.00254933
0.00169648
0.00194106
0.00292996
0.000596473
0.00470079
-0.00143011
0.00713417
-0.00411121
0.0103522
-0.00743549
0.0144645
-0.0113937
0.0195578
-0.0159651
0.0256855
-0.0211064
0.0328582
-0.026745
0.0410373
-0.0327773
0.0501339
-0.0390724
0.0600125
-0.0454799
0.0705015
-0.051842
0.0814068
-0.0580058
0.0925294
-0.0638362
0.103681
-0.0692254
0.114705
-0.0741017
0.125482
-0.0784305
0.135918
-0.0822152
0.146071
-0.085414
-0.0884003
0.15543
0.000141071
0.000582746
0.00139345
0.0026712
0.00453514
0.00711583
0.010544
0.014937
0.020383
0.0269263
0.0345541
0.0431899
0.0526931
0.0628685
0.0734822
0.0842836
0.0950283
0.105501
0.115533
0.125014
0.133893
0.142205
0.150112
0.157751
-0.0220592
-0.0317164
0.0269805
-0.0164533
-0.0230769
0.017471
-0.0099396
-0.0116384
0.00512477
-0.00274709
0.00238549
-0.009578
0.00509068
0.0189104
-0.0267482
0.0133355
0.0373576
-0.0456023
0.0216334
0.0569859
-0.0652839
0.0295369
0.0766375
-0.084541
0.0367398
0.094833
-0.102036
0.0425981
0.110881
-0.116739
0.046575
0.124375
-0.128352
0.0486166
0.135259
-0.137301
0.0495978
0.143181
-0.144162
0.0513804
0.146492
-0.148274
0.0560589
0.14197
-0.146649
0.0647082
0.12611
-0.13476
0.0766974
0.0972022
-0.109191
0.0904191
0.0561587
-0.0698803
0.104427
0.00582081
-0.0198287
0.117746
-0.0482361
0.0349168
0.129263
-0.098346
0.0868289
0.137967
-0.136597
0.127893
0.143262
-0.15994
0.154645
0.145406
-0.170773
0.16863
0.145302
-0.173484
0.173587
0.143292
-0.17214
0.17415
0.138603
-0.172446
0.177135
0.13104
-0.178918
0.186481
0.122911
-0.186327
0.194456
0.118171
-0.176651
0.181391
0.119323
-0.13317
0.132018
0.125916
-0.0579013
0.0513078
0.135223
0.0295689
-0.0388759
0.144418
0.106019
-0.115214
0.151769
0.159718
-0.167068
0.156486
0.187986
-0.192704
0.157415
0.204912
-0.20584
0.153565
0.22215
-0.2183
0.146134
0.243011
-0.235579
0.138749
0.241233
-0.233848
0.135209
0.193988
-0.190448
0.136781
0.100235
-0.101807
0.142234
-0.0168859
0.0114332
0.149127
-0.112072
0.10518
0.153915
-0.183844
0.179057
0.153338
-0.214016
0.214593
0.147358
-0.249835
0.255814
0.139889
-0.253539
0.261009
0.136329
-0.225671
0.22923
0.138849
-0.142701
0.140181
0.144628
-0.00847794
0.00269864
0.148292
0.0795059
-0.0831698
0.147046
0.217004
-0.215758
0.143478
0.252838
-0.24927
0.141714
0.302366
-0.300603
0.142396
0.246857
-0.247539
0.143489
0.0820234
-0.0831159
0.143217
0.0201878
-0.0199162
0.141284
-0.258671
0.260604
-0.243259
0.245037
-0.0382016
-0.0352161
-0.0334257
-0.0278528
-0.0274086
-0.0176556
-0.0202519
-0.00477122
-0.0121179
0.0107764
-0.00327845
0.0285182
0.00630811
0.0473994
0.0157453
0.0672003
0.0245464
0.0860319
0.0323053
0.103122
0.0387773
0.117903
0.0442563
0.12978
0.0497598
0.137677
0.0567474
0.139504
0.0663434
0.132374
0.0785268
0.113927
0.092101
0.083628
0.105621
0.042639
0.118103
-0.00666187
0.12909
-0.0592224
0.137799
-0.107055
0.143595
-0.142393
0.14627
-0.162615
0.146233
-0.170736
0.144421
-0.171672
0.141306
-0.169026
0.136018
-0.167158
0.127836
-0.170735
0.118646
-0.177138
0.112743
-0.170748
0.113383
-0.13381
0.12042
-0.0649381
0.130947
0.0190424
0.141786
0.0951797
0.150911
0.150592
0.157178
0.18172
0.15926
0.20283
0.156363
0.225046
0.149873
0.249501
0.143168
0.247938
0.139661
0.197495
0.140417
0.0994793
0.14447
-0.020939
0.14992
-0.117522
0.153761
-0.187685
0.152744
-0.212999
0.146515
-0.243606
0.138956
-0.24598
0.135459
-0.222174
0.138326
-0.145568
0.1443
-0.0144518
0.148134
0.075672
0.147056
0.218082
0.143552
0.256342
0.141898
0.30402
0.142725
0.24603
0.144156
0.080592
0.144051
0.0202934
0.142099
-0.256719
-0.241488
-0.0443015
-0.0370145
-0.0410673
-0.031087
-0.0363891
-0.0223337
-0.0301406
-0.0110198
-0.0224402
0.00307608
-0.0135999
0.0196778
-0.00403165
0.0378311
0.00635386
0.0568148
0.0168483
0.0755374
0.0269784
0.0929922
0.0365746
0.108307
0.0459572
0.120397
0.0559015
0.127733
0.0672561
0.12815
0.0803217
0.119309
0.0944328
0.0998159
0.108248
0.0698132
0.120693
0.0301932
0.131219
-0.0171873
0.139677
-0.0676804
0.14554
-0.112918
0.148482
-0.145335
0.148685
-0.162818
0.146714
-0.168765
0.143438
-0.168395
0.139418
-0.165006
0.133836
-0.161576
0.125463
-0.162362
0.115522
-0.167196
0.108381
-0.163607
0.108151
-0.13358
0.115191
-0.0719786
0.126647
0.00758656
0.138961
0.0828659
0.149807
0.139747
0.157643
0.173884
0.16102
0.199452
0.15931
0.226757
0.153939
0.254872
0.147947
0.253929
0.144372
0.20107
0.144217
0.0996347
0.146793
-0.0235157
0.150725
-0.121453
0.153597
-0.190558
0.152227
-0.211629
0.145859
-0.237238
0.138251
-0.238372
0.134768
-0.218691
0.137904
-0.148703
0.144039
-0.0205868
0.148085
0.0716257
0.147197
0.218969
0.143722
0.259817
0.142157
0.305586
0.143167
0.24502
0.144974
0.078785
0.145054
0.0202136
0.143072
-0.254737
-0.239721
-0.0386416
-0.0370687
-0.037252
-0.0324766
-0.0343408
-0.025245
-0.0298019
-0.0155587
-0.0232382
-0.00348766
-0.0152154
0.0116551
-0.00592242
0.0285381
0.00463403
0.0462584
0.0163698
0.0638017
0.0285213
0.0808407
0.0408736
0.0959545
0.0535578
0.107713
0.0669214
0.114369
0.0812041
0.113867
0.0961384
0.104374
0.110784
0.0851698
0.123908
0.0566901
0.134722
0.0193792
0.143202
-0.0256678
0.149207
-0.0736855
0.152363
-0.116074
0.152607
-0.145579
0.150506
-0.160717
0.146834
-0.165093
0.142325
-0.163887
0.137536
-0.160217
0.131854
-0.155894
0.123735
-0.154243
0.113513
-0.156974
0.105213
-0.155307
0.103714
-0.132081
0.110249
-0.0785132
0.122291
-0.00445568
0.135885
0.0692717
0.148367
0.127266
0.157787
0.164463
0.162605
0.194634
0.162299
0.227064
0.158198
0.258973
0.152922
0.259205
0.149213
0.204779
0.148071
0.100776
0.149153
-0.0245973
0.151526
-0.123826
0.153405
-0.192437
0.151745
-0.209969
0.14533
-0.230823
0.137707
-0.230749
0.134191
-0.215174
0.137517
-0.152029
0.143814
-0.0268833
0.14813
0.0673097
0.147467
0.219632
0.144002
0.263282
0.142508
0.30708
0.143726
0.243802
0.145939
0.0765723
0.146222
0.0199299
0.144197
-0.252712
-0.237958
-0.0217409
-0.0354218
-0.022234
-0.0319835
-0.0211807
-0.0262983
-0.018418
-0.0183213
-0.0138429
-0.00806285
-0.00716126
0.00497353
0.00127732
0.0200995
0.0120787
0.035457
0.0241004
0.0517801
0.0372102
0.0677308
0.0511408
0.0820239
0.0657662
0.0930877
0.08101
0.0991255
0.096631
0.0982459
0.112016
0.0889894
0.126159
0.0710264
0.138065
0.0447846
0.147273
0.0101714
0.15381
-0.0322051
0.157503
-0.0773785
0.158073
-0.116645
0.155784
-0.143291
0.151595
-0.156528
0.146476
-0.159973
0.141006
-0.158418
0.135614
-0.154825
0.129945
-0.150225
0.122408
-0.146706
0.11245
-0.147017
0.103284
-0.146141
0.100242
-0.129039
0.105804
-0.0840756
0.117863
-0.0165148
0.13251
0.0546256
0.146483
0.113292
0.157476
0.15347
0.16387
0.188241
0.165164
0.225769
0.162473
0.261664
0.157928
0.26375
0.154027
0.208681
0.151871
0.102932
0.151488
-0.024214
0.152293
-0.124632
0.153155
-0.193299
0.151255
-0.208069
0.144877
-0.224445
0.137264
-0.223136
0.133658
-0.211569
0.137107
-0.155478
0.143583
-0.0333598
0.148242
0.0626507
0.14786
0.220014
0.144405
0.266737
0.142964
0.308521
0.144407
0.242359
0.147044
0.0739347
0.147551
0.0194239
0.145468
-0.250629
-0.236192
0.00490488
-0.0320204
0.00203271
-0.0291114
0.000931094
-0.0251967
0.00184528
-0.0192355
0.00486915
-0.0110867
0.0106587
-0.000815977
0.0182057
0.0125525
0.0274789
0.0261837
0.0387076
0.0405514
0.051548
0.0548904
0.0656736
0.0678984
0.0807415
0.0780197
0.0963399
0.0835271
0.111897
0.0826885
0.126627
0.0742601
0.139595
0.0580585
0.150076
0.0343031
0.157801
0.00244608
0.162674
-0.0370774
0.164257
-0.0789622
0.162428
-0.114815
0.157869
-0.138732
0.151876
-0.150534
0.145566
-0.153663
0.139393
-0.152244
0.133565
-0.148997
0.127949
-0.144609
0.12119
-0.139947
0.11202
-0.137847
0.102491
-0.136612
0.0978866
-0.124435
0.101938
-0.0881268
0.113505
-0.0280824
0.128796
0.0393351
0.144035
0.0980527
0.15655
0.140955
0.164627
0.180164
0.167699
0.222697
0.166553
0.26281
0.162776
0.267527
0.15866
0.212797
0.155504
0.106088
0.153724
-0.0224343
0.152988
-0.123896
0.152811
-0.193122
0.15071
-0.205968
0.144443
-0.218178
0.13686
-0.215553
0.133107
-0.207815
0.136609
-0.15898
0.143298
-0.0400489
0.148388
0.0575604
0.148364
0.220038
0.144941
0.27016
0.143538
0.309924
0.145207
0.240691
0.148288
0.0708538
0.149027
0.0186849
0.146875
-0.248477
-0.234423
0.0409605
-0.0269288
0.0367288
-0.0248796
0.0335898
-0.0220577
0.0321011
-0.0177468
0.0325876
-0.0115732
0.0353239
-0.00355232
0.0405198
0.00735655
0.047881
0.0188226
0.0574741
0.0309583
0.0690438
0.0433207
0.0822237
0.0547185
0.0965253
0.0637181
0.111322
0.0687306
0.125851
0.068159
0.139266
0.0608455
0.150767
0.0465576
0.159812
0.025258
0.166319
-0.00406119
0.169629
-0.0403877
0.169251
-0.0785836
0.16525
-0.110815
0.15874
-0.132222
0.151275
-0.143069
0.14404
-0.146428
0.137399
-0.145603
0.131315
-0.142913
0.125753
-0.139048
0.119792
-0.133986
0.111813
-0.129867
0.102564
-0.127364
0.0966583
-0.118528
0.0988421
-0.0903106
0.109299
-0.0385392
0.124733
0.0239013
0.140919
0.0818666
0.154851
0.127023
0.164675
0.17034
0.169681
0.217691
0.170228
0.262263
0.167289
0.270466
0.162954
0.217131
0.158862
0.110181
0.155782
-0.0193548
0.153566
-0.121679
0.152334
-0.19189
0.150059
-0.203693
0.143977
-0.212096
0.136445
-0.208021
0.132478
-0.203848
0.135964
-0.162466
0.142903
-0.0469884
0.148525
0.0519387
0.148962
0.219601
0.145616
0.273505
0.144239
0.311301
0.146126
0.238804
0.149659
0.0673205
0.15064
0.0177035
0.148404
-0.246241
-0.232647
0.0795016
-0.0209453
0.0741703
-0.0195483
0.069581
-0.0174685
0.066113
-0.0142788
0.0642173
-0.0096775
0.0641884
-0.00352343
0.0665773
0.00496766
0.0713055
0.0140944
0.0784648
0.023799
0.0878858
0.0338997
0.0991953
0.0434089
0.11183
0.0510836
0.125052
0.0555085
0.138009
0.0552022
0.149843
0.0490117
0.159861
0.0365392
0.167618
0.0175005
0.172831
-0.00927417
0.174618
-0.0421737
0.172345
-0.0763108
0.166412
-0.104883
0.158318
-0.124127
0.149755
-0.134507
0.141864
-0.138537
0.134947
-0.138686
0.128782
-0.136747
0.123286
-0.133551
0.118005
-0.128705
0.111398
-0.12326
0.103064
-0.11903
0.0964002
-0.111865
0.0965971
-0.0905075
0.105407
-0.0473492
0.120363
0.00894493
0.137081
0.0651491
0.152251
0.111853
0.163827
0.158765
0.170863
0.210655
0.173226
0.2599
0.171244
0.272448
0.166773
0.221602
0.161811
0.115142
0.15758
-0.0151228
0.153974
-0.118073
0.15168
-0.189596
0.149247
-0.20126
0.143427
-0.206277
0.135977
-0.200571
0.131729
-0.1996
0.135115
-0.165852
0.142341
-0.0542145
0.1486
0.0456791
0.149627
0.218575
0.146429
0.276703
0.145072
0.312658
0.147161
0.236716
0.151143
0.0633385
0.152385
0.016462
0.150044
-0.243901
-0.230866
0.11367
-0.01504
0.108259
-0.0141373
0.103388
-0.0125976
0.0992316
-0.0101218
0.0961159
-0.00656183
0.0945403
-0.00194782
0.0946038
0.00490411
0.0967082
0.01199
0.101111
0.0193961
0.107795
0.0272156
0.116506
0.0346977
0.126747
0.0408426
0.137796
0.0444597
0.148787
0.044211
0.15886
0.0389393
0.167333
0.0280661
0.17371
0.0111237
0.177459
-0.0130235
0.177527
-0.0422421
0.173384
-0.0721674
0.165797
-0.0972953
0.15652
-0.11485
0.147243
-0.12523
0.13896
-0.130253
0.131918
-0.131644
0.125817
-0.130646
0.12044
-0.128174
0.115673
-0.123939
0.110389
-0.117975
0.103443
-0.112084
0.0967412
-0.105164
0.0951959
-0.0889623
0.101941
-0.0540945
0.115784
-0.00489812
0.132522
0.0484112
0.148656
0.0957189
0.16191
0.145511
0.17107
0.201495
0.175406
0.255563
0.174496
0.273359
0.169984
0.226114
0.164246
0.12088
0.159025
-0.00990226
0.154147
-0.113195
0.150793
-0.186242
0.148204
-0.198671
0.142736
-0.200809
0.13542
-0.193255
0.130826
-0.195006
0.134016
-0.169042
0.141554
-0.0617525
0.148556
0.0386771
0.150327
0.216804
0.147374
0.279656
0.146041
0.313991
0.148308
0.234449
0.152733
0.0589135
0.15424
0.0149545
0.15178
-0.241442
-0.229084
0.138375
-0.00993476
0.133694
-0.00945643
0.129425
-0.00832802
0.12575
-0.00644724
0.122846
-0.00365802
0.120842
5.61669e-05
0.120154
0.00559213
0.120965
0.011179
0.123441
0.0169199
0.127771
0.0228863
0.133877
0.0285918
0.14145
0.033269
0.149951
0.0359589
0.158623
0.0355394
0.16664
0.0309215
0.173344
0.0213622
0.178062
0.00640598
0.180011
-0.0149728
0.178133
-0.0403639
0.17221
-0.0662439
0.163319
-0.0884043
0.153281
-0.104813
0.143643
-0.115592
0.135201
-0.121811
0.128151
-0.124594
0.122221
-0.124716
0.117059
-0.123013
0.112678
-0.119558
0.108505
-0.113802
0.103172
-0.10675
0.0971485
-0.0991405
0.094417
-0.0862308
0.099016
-0.0586935
0.111077
-0.0169592
0.127305
0.0321836
0.144039
0.0789842
0.158797
0.130753
0.170021
0.190271
0.176405
0.249178
0.176768
0.272996
0.172385
0.230498
0.166109
0.127156
0.160046
-0.00383955
0.154049
-0.107197
0.149645
-0.181838
0.146878
-0.195904
0.141857
-0.195787
0.13476
-0.186158
0.129764
-0.19001
0.132633
-0.17191
0.140491
-0.0696111
0.14833
0.0308382
0.151018
0.214116
0.148431
0.282243
0.14714
0.315282
0.14956
0.232029
0.154416
0.0540578
0.156187
0.0131836
0.1536
-0.238855
-0.227311
0.151401
-0.00590573
0.147663
-0.00571883
0.144258
-0.00492308
0.141483
-0.00367182
0.139631
-0.00180635
0.138416
0.0012711
0.138299
0.00570955
0.139076
0.0104022
0.140898
0.0150976
0.144085
0.0196988
0.148574
0.0241032
0.154167
0.0276759
0.160463
0.029663
0.166908
0.0290949
0.172809
0.0250199
0.17747
0.0167017
0.180046
0.00382931
0.180145
-0.0150717
0.17641
-0.0366283
0.169078
-0.0589124
0.159403
-0.0787288
0.149085
-0.0944953
0.139427
-0.105934
0.131035
-0.113419
0.124049
-0.117609
0.118302
-0.118969
0.113397
-0.118107
0.109285
-0.115446
0.105878
-0.110395
0.102063
-0.102936
0.0972275
-0.0943048
0.0939787
-0.082982
0.0965293
-0.0612441
0.106479
-0.0269094
0.121539
0.0171244
0.138396
0.0621264
0.154484
0.114666
0.167868
0.176887
0.176485
0.240561
0.178163
0.271318
0.173969
0.234692
0.167393
0.133732
0.16069
0.00286363
0.153756
-0.100264
0.148344
-0.176426
0.145325
-0.192885
0.140809
-0.191271
0.134014
-0.179363
0.128594
-0.18459
0.130996
-0.174313
0.13911
-0.077725
0.147846
0.0221023
0.151655
0.210307
0.149579
0.284319
0.14836
0.3165
0.150915
0.229474
0.156179
0.0487932
0.158204
0.0111588
0.155492
-0.236143
-0.225557
0.155145
-0.00329916
0.152356
-0.00293029
0.14983
-0.00239638
0.147751
-0.00159339
0.146246
-0.000300717
0.14539
0.00212641
0.145809
0.00529072
0.14727
0.00894148
0.149619
0.0127486
0.152715
0.0166029
0.156598
0.02022
0.161155
0.0231187
0.166107
0.0247109
0.17098
0.0242225
0.175186
0.0208132
0.178088
0.0137998
0.179437
0.00248097
0.177334
-0.0129692
0.172143
-0.031437
0.164081
-0.0508508
0.154401
-0.069049
0.14446
-0.0845543
0.135232
-0.0967053
0.127157
-0.105344
0.120341
-0.110793
0.114743
-0.113371
0.110052
-0.113416
0.106097
-0.111492
0.103066
-0.107364
0.100398
-0.100267
0.0969246
-0.0908317
0.0937833
-0.0798407
0.0947023
-0.0621631
0.102213
-0.0344203
0.115598
0.00373976
0.131841
0.0458832
0.148497
0.0980104
0.163594
0.16179
0.174577
0.229578
0.178032
0.267863
0.174524
0.2382
0.167921
0.140334
0.160938
0.00984747
0.153214
-0.09254
0.146963
-0.170175
0.143638
-0.18956
0.139634
-0.187267
0.133197
-0.172927
0.127367
-0.178759
0.12922
-0.176166
0.137498
-0.0860033
0.147088
0.0125124
0.152165
0.20523
0.150773
0.285711
0.149691
0.317582
0.152363
0.226802
0.158002
0.0431539
0.16028
0.00888061
0.157458
-0.233321
-0.223807
0.183565
-0.000260132
-0.186604
0.180882
-0.000246495
0.178364
0.000121105
0.175922
0.000849115
0.173566
0.00205522
0.171705
0.00398725
0.170446
0.00654971
0.169858
0.00952919
0.169939
0.0126682
0.170801
0.01574
0.172588
0.0184336
0.175383
0.0203233
0.179217
0.0208768
0.183982
0.0194581
0.189379
0.015416
0.194865
0.00831359
0.199662
-0.00231545
0.202848
-0.0161555
0.203599
-0.0321877
0.201633
-0.0488854
0.197303
-0.064719
0.191242
-0.0784934
0.184112
-0.0895754
0.176461
-0.0976933
0.168671
-0.103003
0.161052
-0.105751
0.153691
-0.106055
0.146474
-0.104275
0.139592
-0.100481
0.133087
-0.093762
0.125933
-0.0836778
0.1178
-0.0717083
0.111143
-0.0555063
0.109393
-0.0326699
0.113398
-0.000265221
0.12057
0.0387112
0.128041
0.090539
0.134478
0.155354
0.140171
0.223884
0.146019
0.262015
0.15371
0.230509
0.162448
0.131597
0.168045
0.00425044
0.168499
-0.0929941
0.164576
-0.166252
0.159423
-0.184407
0.152773
-0.180618
0.144171
-0.164325
0.135957
-0.170544
0.132463
-0.172673
0.133869
-0.0874092
0.136139
0.0102428
0.136462
0.204907
0.134568
0.287605
0.135371
0.31678
0.141281
0.220891
0.147862
0.0365736
0.150347
0.00639494
0.146399
-0.229373
-0.2198
0.194533
0.00188008
-0.196674
0.192631
0.00165553
0.190835
0.00191756
0.189123
0.00256073
0.187587
0.00359153
0.186457
0.00511772
0.18588
0.00712619
0.18594
0.00946889
0.186686
0.011923
0.188177
0.0142489
0.190455
0.0161551
0.19352
0.0172587
0.197304
0.0170924
0.201617
0.015145
0.206096
0.0109378
0.210304
0.00410461
0.213556
-0.00556707
0.215153
-0.0177526
0.214602
-0.0316369
0.211799
-0.0460821
0.207013
-0.0599333
0.200726
-0.072206
0.193489
-0.082338
0.185814
-0.0900182
0.178046
-0.0952349
0.170436
-0.0981412
0.163118
-0.0987378
0.155966
-0.0971235
0.149016
-0.0935301
0.142575
-0.0873211
0.13604
-0.0771426
0.128565
-0.0642337
0.121561
-0.0485019
0.118417
-0.0295265
0.120998
-0.00284625
0.127666
0.0320434
0.135481
0.0827238
0.142905
0.14793
0.149921
0.216868
0.157342
0.254594
0.166408
0.221443
0.175781
0.122224
0.181758
-0.00172682
0.181519
-0.0927553
0.176503
-0.161235
0.170328
-0.178232
0.163153
-0.173443
0.154196
-0.155368
0.145296
-0.161644
0.141186
-0.168563
0.142317
-0.0885402
0.144996
0.00756325
0.145976
0.203927
0.144521
0.28906
0.14569
0.315611
0.152001
0.214579
0.159039
0.0295357
0.161564
0.00386961
0.156878
-0.224686