/*--------------------------------*- C++ -*----------------------------------*\
| =========                 |                                                 |
| \\      /  F ield         | OpenFOAM: The Open Source CFD Toolbox           |
|  \\    /   O peration     | Version:  2512                                  |
|   \\  /    A nd           | Website:  www.openfoam.com                      |
|    \\/     M anipulation  |                                                 |
\*---------------------------------------------------------------------------*/
FoamFile
{
    version     2.0;
    format      ascii;
    arch        "LSB;label=32;scalar=64";
    class       volVectorField;
    location    "199.25";
    object      U;
}
// * * * * * * * * * * * * * * * * * * * * * * * * * * * * * * * * * * * * * //

dimensions      [0 1 -1 0 0 0 0];

internalField   nonuniform List<vector> 
13248
(
(-0.0117752 0.0120615 9.44704e-20)
(-0.0166241 0.0235189 0)
(-0.00325984 0.0274118 -1.79112e-19)
(0.0261898 0.0254332 1.68718e-19)
(0.070328 0.019353 1.58666e-19)
(0.12815 0.0107781 0)
(0.198654 0.000982647 0)
(0.280566 -0.00905341 3.89036e-19)
(0.372093 -0.0185883 -1.54934e-21)
(0.470769 -0.0270843 -3.40312e-19)
(0.573464 -0.0341879 3.13428e-19)
(0.676556 -0.0397142 -1.96056e-19)
(0.776242 -0.043629 0)
(0.868913 -0.0460216 -3.20566e-19)
(0.951511 -0.047069 5.90515e-19)
(1.02181 -0.0469949 -1.40881e-19)
(1.0786 -0.0460289 -2.31053e-19)
(1.12165 -0.0443823 2.16925e-19)
(1.15168 -0.0421912 0)
(1.1701 -0.0396732 0)
(1.17893 -0.0365218 0)
(1.17965 -0.0340893 0)
(1.1759 -0.0289568 5.2244e-20)
(1.16483 -0.0311772 1.69926e-19)
(-0.00975406 0.00902271 -2.85082e-19)
(-0.00796809 0.015437 1.9425e-19)
(0.0149511 0.0160551 -1.35684e-21)
(0.0567921 0.0124412 -2.57122e-19)
(0.115968 0.0062382 -1.58495e-19)
(0.19103 -0.00104119 -1.49908e-19)
(0.280164 -0.00822339 -2.77721e-19)
(0.380882 -0.0144633 2.61629e-19)
(0.489854 -0.0192202 0)
(0.602948 -0.022245 1.71326e-21)
(0.715504 -0.0235552 2.83625e-21)
(0.822795 -0.0233843 1.93581e-19)
(0.920544 -0.0221087 0)
(1.00539 -0.0201623 0)
(1.07517 -0.0179549 2.1009e-19)
(1.1291 -0.0158088 -3.94494e-19)
(1.16762 -0.0139215 2.23297e-19)
(1.19221 -0.0123592 -2.09655e-19)
(1.20508 -0.0110697 -8.8325e-20)
(1.20874 -0.00993732 -1.5219e-19)
(1.20572 -0.00869044 -5.78195e-20)
(1.1983 -0.0075417 -1.05921e-19)
(1.18845 -0.00467079 1.64227e-19)
(1.17596 -0.00597539 4.47389e-20)
(-0.00677472 0.00599897 0)
(0.00429221 0.00732836 0)
(0.0398679 0.00491083 9.09874e-20)
(0.0973566 0.00022458 8.42858e-20)
(0.174632 -0.00518852 -1.47083e-21)
(0.269304 -0.00993573 -1.53113e-19)
(0.378112 -0.0130574 0)
(0.496712 -0.014043 -1.30232e-19)
(0.61977 -0.0128085 1.21103e-19)
(0.741396 -0.00964915 -5.55389e-22)
(0.855801 -0.00514252 -2.0584e-19)
(0.95801 -1.03438e-05 -1.85483e-19)
(1.04443 0.00503122 5.95627e-21)
(1.11315 0.00939871 -1.45489e-19)
(1.16398 0.0127221 3.55729e-19)
(1.19821 0.0148702 0)
(1.21816 0.0159261 -2.15859e-19)
(1.22676 0.0161273 1.05937e-19)
(1.22701 0.0158022 8.82508e-20)
(1.22164 0.015263 0)
(1.21295 0.0149056 6.78955e-20)
(1.20251 0.0146009 -2.26264e-19)
(1.19161 0.0156137 2.124e-19)
(1.18026 0.0134324 1.25407e-19)
(-0.00245154 0.00297654 -9.96955e-20)
(0.0210999 -0.000491175 -1.02794e-19)
(0.0728225 -0.00515731 9.36629e-20)
(0.149307 -0.00975431 0)
(0.247319 -0.0129379 0)
(0.362814 -0.0135803 -2.13825e-21)
(0.49036 -0.0111718 0)
(0.623264 -0.00583123 -3.91381e-19)
(0.754197 0.00179569 3.6272e-19)
(0.876123 0.0107062 -4.4739e-19)
(0.983265 0.0197688 1.02289e-19)
(1.0718 0.0279548 0)
(1.14013 0.0345156 1.6409e-19)
(1.18878 0.0390696 -3.01538e-19)
(1.21988 0.0415964 7.18979e-20)
(1.23658 0.0423606 1.75636e-19)
(1.24239 0.0417979 -1.20044e-20)
(1.24062 0.0404011 -1.92732e-19)
(1.23406 0.0386281 0)
(1.22482 0.0368435 0)
(1.21436 0.0353443 -6.42237e-20)
(1.20357 0.0340661 5.64442e-20)
(1.1931 0.0339298 1.93696e-19)
(1.18249 0.031098 -1.81886e-19)
(0.00367045 -2.90719e-05 -1.03868e-19)
(0.0433947 -0.0076609 -1.03936e-19)
(0.114842 -0.0132802 2.92717e-19)
(0.213243 -0.0161134 -1.78579e-19)
(0.333497 -0.0152584 1.68086e-19)
(0.469095 -0.0101441 3.06894e-19)
(0.61188 -0.00105674 -2.16148e-19)
(0.752842 0.0109503 -2.61268e-19)
(0.883414 0.0243527 6.28553e-21)
(0.996776 0.0375164 3.35006e-19)
(1.08873 0.0490391 0)
(1.15797 0.0579854 8.99216e-20)
(1.20568 0.0639711 0)
(1.23487 0.0671067 -1.43156e-19)
(1.24943 0.0678508 2.00985e-19)
(1.25338 0.0668332 1.91799e-21)
(1.25028 0.0646995 -5.0977e-20)
(1.24293 0.0620067 9.34864e-20)
(1.23333 0.0591758 7.99257e-20)
(1.22277 0.0564872 -7.05848e-20)
(1.21204 0.0541109 6.42067e-20)
(1.20155 0.0520336 -5.64287e-20)
(1.19153 0.0507214 0)
(1.18181 0.0474552 -4.23161e-20)
(0.0120302 -0.00289638 1.03853e-19)
(0.0719339 -0.0136343 1.08338e-19)
(0.166413 -0.0184482 -9.79153e-20)
(0.288688 -0.0174822 1.82374e-19)
(0.430958 -0.0106843 -1.71649e-19)
(0.583596 0.00153269 1.55458e-19)
(0.7357 0.0177171 -7.43205e-20)
(0.876772 0.0357174 1.96246e-19)
(0.998532 0.0532574 -1.22677e-19)
(1.0961 0.0684472 2.15023e-19)
(1.16822 0.0800991 -4.94035e-19)
(1.21672 0.0878033 1.8024e-19)
(1.2454 0.091804 -1.55708e-19)
(1.25891 0.0927632 1.46262e-19)
(1.26179 0.0915109 1.23682e-19)
(1.25786 0.0888481 1.06629e-19)
(1.24999 0.0854331 -2.96318e-19)
(1.24013 0.0817437 1.82998e-19)
(1.22949 0.0780914 -7.99269e-20)
(1.21878 0.074659 2.0528e-19)
(1.20835 0.0715391 -6.63293e-20)
(1.19838 0.0687395 -1.57585e-19)
(1.18894 0.0664843 1.44838e-19)
(1.17986 0.0629191 4.23028e-20)
(0.022977 -0.00537314 0)
(0.10713 -0.0176327 6.2354e-22)
(0.227291 -0.0194841 2.02305e-19)
(0.373983 -0.0125379 -1.90036e-19)
(0.535983 0.001858 -1.7179e-19)
(0.700395 0.0218366 3.19175e-19)
(0.854356 0.0445583 -1.48176e-19)
(0.987501 0.0669163 1.96936e-19)
(1.09369 0.0863352 -4.76378e-21)
(1.17137 0.101236 -1.10886e-19)
(1.22278 0.111116 2.40151e-19)
(1.25251 0.116334 -3.52823e-19)
(1.26601 0.117768 0)
(1.26842 0.116471 -6.80752e-20)
(1.26393 0.113422 -1.80051e-19)
(1.2556 0.109401 5.68424e-20)
(1.24542 0.10496 2.66812e-21)
(1.23459 0.100452 -1.20072e-19)
(1.22375 0.0960845 9.13999e-21)
(1.21325 0.0919687 1.38066e-19)
(1.20322 0.0881531 -6.01359e-20)
(1.19372 0.084659 -2.24636e-20)
(1.1847 0.0815162 7.05715e-20)
(1.17608 0.0776448 0)
(0.036717 -0.00708739 0)
(0.148926 -0.018683 5.46965e-20)
(0.296392 -0.0151262 -2.61793e-19)
(0.466328 -0.000143354 9.53998e-20)
(0.643782 0.0229119 -8.9786e-20)
(0.813206 0.0503766 -8.15856e-20)
(0.961393 0.0781258 -1.44567e-19)
(1.08009 0.102598 7.21043e-20)
(1.1668 0.121569 6.29579e-20)
(1.22385 0.134293 0)
(1.25654 0.141202 1.41339e-19)
(1.27121 0.143403 -2.08863e-19)
(1.27378 0.142215 1.55532e-19)
(1.269 0.138846 6.81105e-20)
(1.26025 0.134242 -5.50258e-20)
(1.24968 0.129057 -4.53326e-20)
(1.23854 0.123703 -4.18969e-20)
(1.22747 0.118422 1.2691e-19)
(1.2168 0.113344 0)
(1.20665 0.108533 6.23351e-20)
(1.19704 0.104021 5.14477e-20)
(1.18796 0.099819 -1.28739e-19)
(1.17935 0.095867 -8.63542e-20)
(1.1711 0.0916978 8.01157e-20)
(0.0532691 -0.00758437 -5.78119e-20)
(0.19671 -0.015727 -1.61649e-21)
(0.371772 -0.00420376 5.30138e-20)
(0.562027 0.0204556 1.4743e-19)
(0.74916 0.0523857 4.26892e-20)
(0.916445 0.0861097 -8.25016e-20)
(1.05241 0.11672 7.5704e-20)
(1.15261 0.140938 -6.65274e-20)
(1.21888 0.157503 1.18416e-19)
(1.25704 0.166801 5.03623e-20)
(1.27443 0.170179 -1.42434e-19)
(1.27798 0.16929 4.19667e-20)
(1.27325 0.16565 7.11146e-20)
(1.26414 0.160436 -3.50656e-20)
(1.2531 0.154452 0)
(1.24151 0.148198 5.15929e-20)
(1.23006 0.141958 8.66765e-20)
(1.21908 0.135886 1.43541e-20)
(1.20869 0.130062 -7.18355e-20)
(1.1989 0.124524 2.98935e-20)
(1.18968 0.119292 0)
(1.18098 0.114358 -2.32014e-20)
(1.17271 0.109645 -2.15136e-20)
(1.16479 0.105106 0)
(0.0724283 -0.00637793 0)
(0.249282 -0.00776557 3.01575e-20)
(0.450737 0.0141671 5.57559e-20)
(0.656884 0.049473 -1.493e-19)
(0.84724 0.0895672 4.79118e-20)
(1.00598 0.127584 0)
(1.12532 0.158648 7.22025e-20)
(1.20557 0.18051 -1.00649e-19)
(1.25268 0.19327 -5.88821e-20)
(1.27499 0.198474 2.67285e-20)
(1.28075 0.198186 -4.21236e-20)
(1.27663 0.194346 1.02633e-19)
(1.26733 0.188464 5.12378e-20)
(1.25578 0.181566 -3.5764e-20)
(1.24362 0.174282 -3.50778e-21)
(1.23166 0.166963 -9.68888e-20)
(1.22024 0.159796 4.40444e-20)
(1.2095 0.152875 -9.98313e-22)
(1.19945 0.146247 0)
(1.19004 0.139936 -2.99243e-20)
(1.18121 0.133948 0)
(1.17289 0.128257 6.70224e-20)
(1.16498 0.122828 -7.96423e-20)
(1.15736 0.117837 3.61939e-20)
(0.0937436 -0.00300226 -1.54012e-20)
(0.30489 0.00600925 -7.53694e-20)
(0.530056 0.0404348 8.53941e-20)
(0.746683 0.0865301 5.03601e-20)
(0.934029 0.133254 -2.41683e-20)
(1.07935 0.173197 4.0396e-20)
(1.1799 0.202439 -1.96994e-20)
(1.24083 0.220324 3.2784e-20)
(1.27134 0.228437 0)
(1.28121 0.22931 7.40928e-20)
(1.27863 0.225455 -3.04662e-21)
(1.2695 0.218865 -5.97802e-20)
(1.25751 0.210908 2.55956e-20)
(1.24472 0.202412 -2.88355e-20)
(1.23212 0.193835 -1.09456e-20)
(1.22016 0.185411 1.26506e-20)
(1.20896 0.177254 -9.7749e-21)
(1.19855 0.16942 -5.26748e-20)
(1.18888 0.161935 3.22982e-20)
(1.17988 0.15481 6.6152e-21)
(1.17146 0.148036 5.80934e-21)
(1.16352 0.141577 5.10178e-21)
(1.15597 0.13547 0)
(1.14867 0.129914 0)
(0.116593 0.00295087 1.54119e-20)
(0.361471 0.0261259 -1.54767e-20)
(0.606418 0.0745396 -2.83824e-20)
(0.827751 0.130712 0)
(1.00675 0.181956 -1.19399e-20)
(1.13557 0.221423 -1.06503e-20)
(1.21703 0.246951 -1.83229e-20)
(1.26054 0.25977 0)
(1.2775 0.262841 0)
(1.27808 0.25941 0)
(1.26984 0.252172 0)
(1.25765 0.243011 0)
(1.24424 0.233077 -1.60724e-20)
(1.23095 0.222998 7.32058e-21)
(1.21834 0.213088 1.27194e-20)
(1.20661 0.203492 5.9309e-21)
(1.19577 0.194274 1.46975e-20)
(1.18578 0.185461 0)
(1.17657 0.177064 -3.52043e-21)
(1.16804 0.169085 -3.32049e-21)
(1.16009 0.161497 -5.81853e-21)
(1.15261 0.154274 -5.10988e-21)
(1.14549 0.147522 0)
(1.1386 0.141302 3.66576e-21)
(-0.00147108 -0.00928237 8.99668e-21)
(-0.00749133 -0.0330579 -9.35306e-21)
(-0.0188817 -0.0588424 -1.77256e-20)
(-0.0331081 -0.0839961 0)
(-0.0487976 -0.107119 -2.36844e-20)
(-0.0652141 -0.127905 7.39372e-21)
(-0.0817675 -0.146764 -1.41094e-20)
(-0.0979763 -0.164428 0)
(-0.113475 -0.181632 0)
(-0.127993 -0.198922 0)
(-0.141332 -0.216572 0)
(-0.153339 -0.234595 0)
(-0.163881 -0.252789 -7.12121e-23)
(-0.172827 -0.270783 -9.267e-21)
(-0.180039 -0.288073 1.76182e-20)
(-0.18536 -0.304042 2.48571e-20)
(-0.188624 -0.317973 7.80531e-21)
(-0.189652 -0.329057 0)
(-0.188283 -0.33642 6.97451e-21)
(-0.184389 -0.339163 -1.94639e-20)
(-0.177851 -0.33643 -1.21263e-20)
(-0.168465 -0.327425 -1.13785e-20)
(-0.156205 -0.311387 0)
(-0.142288 -0.287978 0)
(-0.00174171 -0.00348543 -2.71744e-20)
(-0.00809961 -0.019739 4.68405e-20)
(-0.0202676 -0.0407172 -1.78853e-20)
(-0.0354533 -0.0628432 -3.38243e-20)
(-0.0521541 -0.0841853 4.76688e-20)
(-0.0695827 -0.104115 -3.01999e-20)
(-0.0871168 -0.122816 4.25137e-20)
(-0.104267 -0.140854 2.72034e-20)
(-0.120685 -0.158839 0)
(-0.136138 -0.177226 -2.37246e-20)
(-0.150472 -0.196235 -1.3952e-22)
(-0.163586 -0.215854 2.09632e-20)
(-0.175398 -0.235882 3.01847e-20)
(-0.185834 -0.255971 3.76893e-20)
(-0.194811 -0.275648 -1.76161e-20)
(-0.202238 -0.294333 -4.97872e-20)
(-0.208012 -0.311339 1.5489e-20)
(-0.21202 -0.325879 -5.81651e-20)
(-0.214172 -0.337076 0)
(-0.214419 -0.344 1.29041e-20)
(-0.212664 -0.345718 1.21146e-20)
(-0.208564 -0.341289 1.13675e-20)
(-0.202104 -0.32975 0)
(-0.195852 -0.310615 0)
(-0.00268291 0.00288309 0)
(-0.00984307 -0.00507421 9.61958e-20)
(-0.0224065 -0.0207875 -3.62443e-20)
(-0.0377009 -0.0396601 3.41748e-20)
(-0.054278 -0.0591443 -9.79088e-20)
(-0.0713807 -0.078202 0)
(-0.0883994 -0.0967189 -5.83383e-20)
(-0.104856 -0.115043 2.7694e-20)
(-0.120421 -0.133637 -5.26577e-20)
(-0.134886 -0.15286 2.549e-20)
(-0.148132 -0.172886 1.39445e-19)
(-0.16009 -0.193693 -6.54732e-20)
(-0.170721 -0.215095 -1.02039e-19)
(-0.179996 -0.236771 -3.86397e-20)
(-0.187895 -0.258288 3.67149e-22)
(-0.194392 -0.279108 1.33969e-19)
(-0.19946 -0.298587 -6.26446e-20)
(-0.203066 -0.315973 1.11912e-22)
(-0.205201 -0.330406 0)
(-0.205906 -0.340935 -4.83835e-20)
(-0.205139 -0.34654 0)
(-0.202419 -0.346144 -4.08842e-20)
(-0.197552 -0.338718 1.48663e-19)
(-0.194599 -0.323894 -1.78538e-21)
(-0.00424542 0.00915981 0)
(-0.0126057 0.00958753 9.1263e-22)
(-0.025097 -0.000679616 3.76095e-20)
(-0.0395508 -0.0161482 -3.57594e-20)
(-0.0547704 -0.0336761 3.25691e-20)
(-0.0701122 -0.0517843 1.89953e-19)
(-0.0850202 -0.0700189 -5.94835e-20)
(-0.0990417 -0.0884821 -5.71918e-20)
(-0.11186 -0.107468 1.06694e-19)
(-0.123276 -0.127237 -1.50535e-19)
(-0.13318 -0.147916 4.79532e-20)
(-0.141521 -0.16947 4.53021e-20)
(-0.148284 -0.191723 0)
(-0.15348 -0.214376 3.88064e-20)
(-0.157143 -0.237024 0)
(-0.159322 -0.25917 6.85585e-20)
(-0.160082 -0.280218 -1.24217e-19)
(-0.159491 -0.299476 3.17223e-20)
(-0.157635 -0.316149 1.06783e-19)
(-0.154648 -0.329321 4.83401e-20)
(-0.150601 -0.337926 0)
(-0.145005 -0.340737 -1.13868e-19)
(-0.137057 -0.336585 3.72625e-20)
(-0.1312 -0.32517 0)
(-0.00626337 0.0146936 0)
(-0.016081 0.0229141 -1.20116e-19)
(-0.0279957 0.0179914 -3.88042e-20)
(-0.040671 0.00600124 -7.22877e-20)
(-0.0533144 -0.00944129 6.80719e-20)
(-0.0654609 -0.0264512 -6.3835e-20)
(-0.0766468 -0.0442421 1.22802e-19)
(-0.0864602 -0.0626503 5.78511e-20)
(-0.0945874 -0.0817892 -1.63306e-19)
(-0.100822 -0.101812 1.03668e-19)
(-0.105043 -0.122788 -1.45614e-19)
(-0.107199 -0.144662 3.22928e-19)
(-0.107285 -0.167252 -1.72327e-19)
(-0.105346 -0.190261 8.13631e-20)
(-0.101471 -0.213292 2.23913e-19)
(-0.0957955 -0.235862 -7.11017e-20)
(-0.0885 -0.257407 -6.71258e-20)
(-0.0797987 -0.277296 -5.945e-20)
(-0.0699279 -0.294829 0)
(-0.0591552 -0.309221 -9.09218e-20)
(-0.047773 -0.319527 -7.46488e-20)
(-0.0356816 -0.324535 1.14723e-19)
(-0.0214159 -0.322721 1.21186e-19)
(-0.00593161 -0.313007 -1.12301e-19)
(-0.00847249 0.0189606 0)
(-0.0198199 0.0337746 -1.65972e-19)
(-0.0306814 0.0337883 -1.58786e-21)
(-0.0407237 0.0252315 1.47401e-19)
(-0.0496633 0.0119821 0)
(-0.0572741 -0.00376517 0)
(-0.0632017 -0.0209189 0)
(-0.0670743 -0.0390635 -5.90973e-20)
(-0.0685917 -0.058126 -6.18378e-22)
(-0.0675292 -0.0781391 1.06023e-19)
(-0.063744 -0.099101 -1.48509e-19)
(-0.0571714 -0.120916 1.03211e-22)
(-0.0478186 -0.143377 0)
(-0.0357656 -0.166166 -8.1316e-20)
(-0.0211707 -0.188861 7.56456e-20)
(-0.00427445 -0.210956 -2.12655e-19)
(0.0146004 -0.231872 2.54512e-19)
(0.0350586 -0.250985 5.09848e-20)
(0.0566573 -0.267654 -1.08249e-20)
(0.0789322 -0.281229 -1.90243e-19)
(0.101351 -0.291049 -7.98923e-20)
(0.123351 -0.296314 2.35668e-19)
(0.145311 -0.295457 -1.50992e-19)
(0.174274 -0.284542 0)
(-0.0105729 0.021637 8.2784e-20)
(-0.023299 0.0413654 8.34186e-20)
(-0.032682 0.0455926 -8.09435e-20)
(-0.0393876 0.0402388 -1.51849e-19)
(-0.0436602 0.0291927 1.42985e-19)
(-0.0455259 0.0148334 -1.36272e-19)
(-0.0447772 -0.00150987 1.93215e-19)
(-0.0411008 -0.0192027 -5.9292e-20)
(-0.0342004 -0.0379934 1.14869e-19)
(-0.0238475 -0.0577792 0)
(-0.00988614 -0.0784724 1.03683e-19)
(0.00774259 -0.0999184 -1.94523e-19)
(0.028994 -0.121865 1.79366e-19)
(0.053711 -0.143953 -1.68466e-19)
(0.0816152 -0.165719 0)
(0.112304 -0.186615 1.42097e-19)
(0.145258 -0.206024 2.54279e-19)
(0.17986 -0.223297 -2.38352e-19)
(0.215431 -0.237787 -1.03564e-19)
(0.251277 -0.248895 -8.49288e-20)
(0.286646 -0.256144 2.44779e-19)
(0.321251 -0.259029 5.91164e-20)
(0.35288 -0.257057 -6.22439e-20)
(0.397953 -0.243602 4.52207e-20)
(-0.0122935 0.0226442 -8.2795e-20)
(-0.0260139 0.0453154 2.61191e-19)
(-0.0335277 0.0527252 -8.2615e-20)
(-0.0363303 0.0500993 1.55276e-19)
(-0.0351373 0.0411027 -1.46208e-19)
(-0.0302181 0.0281535 8.18754e-22)
(-0.0215159 0.0127249 6.59346e-20)
(-0.00880869 -0.00437144 2.51482e-19)
(0.00817154 -0.0227167 1.10469e-21)
(0.0296398 -0.042074 -1.09705e-19)
(0.0557138 -0.0622542 0)
(0.0863906 -0.0830241 -9.81428e-20)
(0.12151 -0.104069 1.83397e-19)
(0.160739 -0.124978 1.68279e-19)
(0.203565 -0.145244 -7.96622e-20)
(0.2493 -0.164286 1.90339e-22)
(0.297104 -0.181477 -6.48173e-20)
(0.346037 -0.19618 1.15941e-19)
(0.395107 -0.207795 1.03513e-19)
(0.443399 -0.215771 -9.07646e-20)
(0.489733 -0.219825 7.72416e-20)
(0.535093 -0.219032 -6.55111e-20)
(0.571511 -0.215583 0)
(0.630557 -0.199586 -4.51289e-20)
(-0.0134458 0.0221365 8.60689e-20)
(-0.0275503 0.0457011 -8.7684e-20)
(-0.0327751 0.0550114 8.45117e-20)
(-0.0311672 0.0543727 0)
(-0.0237984 0.047057 0)
(-0.0111458 0.0353921 1.43868e-19)
(0.00669852 0.0209043 -1.33237e-19)
(0.0298538 0.00452713 1.27777e-19)
(0.0585045 -0.0131773 -5.96486e-19)
(0.0927882 -0.0318454 1.02841e-23)
(0.132706 -0.051171 1.05883e-19)
(0.178072 -0.0708289 0)
(0.228464 -0.090431 -1.8297e-19)
(0.283205 -0.109512 3.407e-19)
(0.341363 -0.127537 -2.36914e-19)
(0.40179 -0.14393 -3.52276e-19)
(0.463181 -0.158103 1.12674e-20)
(0.52416 -0.169504 2.35472e-19)
(0.58337 -0.177668 0)
(0.639728 -0.182148 0)
(0.691545 -0.183094 -7.72227e-20)
(0.741232 -0.178939 6.54957e-20)
(0.776965 -0.17429 -2.04548e-19)
(0.837212 -0.156476 1.91948e-19)
(-0.0139503 0.0204419 0)
(-0.0276125 0.0429847 0)
(-0.0299841 0.0527733 -2.55349e-19)
(-0.0233636 0.053166 8.08722e-20)
(-0.00903263 0.0469687 -3.76174e-22)
(0.0123787 0.0363318 1.44932e-19)
(0.0406382 0.02276 0)
(0.0757316 0.00725529 -1.2815e-19)
(0.117695 -0.00951106 1.19821e-19)
(0.166468 -0.0270508 -2.26798e-19)
(0.221774 -0.0449459 5.02107e-22)
(0.283039 -0.0627794 1.97325e-19)
(0.349344 -0.0801012 -2.54056e-21)
(0.419423 -0.0964233 1.64699e-19)
(0.49171 -0.111236 -2.38358e-19)
(0.56443 -0.124036 0)
(0.635726 -0.134367 2.48898e-19)
(0.703808 -0.141851 -3.48228e-19)
(0.767078 -0.146235 9.9223e-20)
(0.82439 -0.147279 0)
(0.87427 -0.14542 7.48111e-20)
(0.918961 -0.139144 2.44847e-19)
(0.948797 -0.133564 -2.29804e-19)
(0.995922 -0.115919 -2.17339e-19)
(-0.0138208 0.0179656 2.68736e-19)
(-0.0259942 0.0378748 -3.69723e-19)
(-0.0246553 0.0467482 2.91786e-22)
(-0.012114 0.0471461 8.24801e-20)
(0.0102689 0.0414284 -1.54872e-19)
(0.0417645 0.0315364 -1.44237e-19)
(0.0819983 0.0189073 2.73457e-19)
(0.130757 0.0045694 -4.97788e-22)
(0.187791 -0.0107272 -2.41969e-19)
(0.252631 -0.0263982 4.5353e-19)
(0.324448 -0.0419425 -1.14925e-21)
(0.401966 -0.0568939 -1.98728e-19)
(0.48346 -0.0708029 0)
(0.566823 -0.0832422 0)
(0.6497 -0.0938256 -7.75095e-20)
(0.72968 -0.102234 -1.37988e-19)
(0.804502 -0.108233 -2.44097e-19)
(0.872235 -0.111702 2.29143e-19)
(0.931455 -0.11261 -9.92665e-20)
(0.981292 -0.111039 1.64917e-19)
(1.0214 -0.107297 -8.75333e-20)
(1.05298 -0.100793 1.09718e-19)
(1.07238 -0.0950604 -2.82139e-19)
(1.09806 -0.079999 4.54451e-20)
(-0.0130982 0.0150822 9.09036e-20)
(-0.0224633 0.0311565 0)
(-0.0160984 0.0379494 1.76476e-19)
(0.00379608 0.0374654 -1.66241e-19)
(0.0358592 0.0317082 1.55008e-19)
(0.0792766 0.0224248 0)
(0.133467 0.0109669 0)
(0.197856 -0.0016441 -1.29324e-19)
(0.271642 -0.0146241 7.90088e-22)
(0.353595 -0.0273537 1.13952e-19)
(0.441932 -0.0393296 -1.04383e-19)
(0.534313 -0.0501402 1.97694e-19)
(0.627945 -0.05946 0)
(0.719795 -0.0670537 3.27428e-19)
(0.806857 -0.07278 -6.04284e-19)
(0.886427 -0.0765921 4.16784e-19)
(0.956347 -0.0785268 2.38118e-19)
(1.01517 -0.078704 -2.23544e-19)
(1.06225 -0.0772519 0)
(1.09764 -0.0744786 0)
(1.12234 -0.0703271 0)
(1.1373 -0.065449 0)
(1.14433 -0.0600678 5.40084e-20)
(1.14981 -0.0501161 -1.76665e-19)
(-0.126345 -0.253447 -7.6136e-21)
(-0.0978308 -0.199449 7.63822e-21)
(-0.0651611 -0.130928 -2.20363e-22)
(-0.0274699 -0.0492765 0)
(0.013722 0.0434083 -6.96947e-21)
(0.0576747 0.143263 1.32768e-20)
(0.10394 0.246849 -3.96128e-22)
(0.150607 0.346403 -5.75889e-21)
(0.19623 0.435187 0)
(0.238523 0.507269 0)
(0.274385 0.559668 -2.07148e-22)
(0.300026 0.593642 -1.76593e-22)
(0.312382 0.614133 -2.58093e-21)
(0.312233 0.625057 2.35901e-21)
(0.307561 0.622261 0)
(0.31261 0.591133 0)
(0.340406 0.514351 2.45722e-21)
(0.393776 0.384839 2.6502e-22)
(0.464568 0.211092 -2.4012e-21)
(0.541663 0.0126731 -1.7729e-22)
(0.616566 -0.183297 0)
(0.681624 -0.345455 0)
(0.730799 -0.453408 0)
(0.761632 -0.507122 0)
(0.7752 -0.521376 0)
(0.776707 -0.511917 0)
(0.770111 -0.495369 2.78599e-22)
(0.750413 -0.490599 -4.4721e-22)
(0.712185 -0.502046 0)
(0.664922 -0.497917 0)
(0.63284 -0.427449 -5.27161e-22)
(0.633522 -0.269807 5.12352e-22)
(0.665162 -0.058164 2.68341e-22)
(0.711885 0.144547 0)
(0.759416 0.296392 0)
(0.79816 0.378926 3.12571e-22)
(0.827011 0.414351 -3.03832e-22)
(0.836315 0.430434 0)
(0.817638 0.456501 2.24024e-22)
(0.775827 0.464989 -3.3355e-22)
(0.735604 0.412894 1.34631e-22)
(0.719989 0.276262 0)
(0.735982 0.0763272 -2.94382e-22)
(0.767305 -0.10416 2.86248e-22)
(0.8113 -0.249577 0)
(0.836445 -0.312696 0)
(0.835791 -0.371374 -6.84402e-23)
(0.797645 -0.385417 1.90029e-22)
(0.759235 -0.360687 0)
(0.743835 -0.262342 0)
(0.769213 -0.0748517 -5.9398e-23)
(0.799531 0.0472415 5.09523e-24)
(0.824099 0.231938 -5.72178e-24)
(0.806083 0.289548 3.71079e-23)
(0.793893 0.362018 0)
(0.786299 0.328871 0)
(0.802584 0.138669 0)
(0.799025 0.0772511 0)
(0.812377 -0.230873 0)
(0.789448 -0.25193 0)
(-0.19297 -0.2811 -6.35804e-22)
(-0.17503 -0.233755 -2.69907e-20)
(-0.151942 -0.171138 3.40826e-22)
(-0.122395 -0.0947424 2.50525e-20)
(-0.0868112 -0.00671864 3.41449e-22)
(-0.0450242 0.0905786 0)
(0.000372286 0.192069 -2.00319e-20)
(0.0469128 0.293328 3.79676e-20)
(0.0945773 0.385989 -1.79373e-20)
(0.14082 0.464545 1.37957e-20)
(0.182454 0.526737 -1.32016e-20)
(0.216137 0.572715 1.02348e-20)
(0.240577 0.604253 -9.92904e-21)
(0.259131 0.620583 -2.69731e-22)
(0.280903 0.61409 -9.11152e-21)
(0.317521 0.571144 8.85451e-21)
(0.375626 0.480275 -1.07506e-20)
(0.451731 0.340929 1.00898e-20)
(0.53572 0.163205 -1.21863e-20)
(0.618702 -0.0351181 2.34069e-20)
(0.69366 -0.226889 -1.12328e-20)
(0.752844 -0.381106 -5.95241e-22)
(0.79141 -0.478048 -6.65499e-21)
(0.809738 -0.520005 1.15654e-20)
(0.811186 -0.524709 -4.95458e-21)
(0.801571 -0.509105 2.15755e-22)
(0.786423 -0.486962 2.94151e-21)
(0.762011 -0.474324 3.79504e-23)
(0.720683 -0.478843 -5.48299e-21)
(0.667336 -0.475979 5.96586e-21)
(0.624782 -0.417498 -3.11572e-21)
(0.614431 -0.2763 4.4866e-22)
(0.638632 -0.0772132 -2.68888e-22)
(0.68313 0.120574 4.37179e-22)
(0.733175 0.274327 0)
(0.778683 0.362147 0)
(0.814775 0.405243 -9.98365e-22)
(0.829929 0.431295 7.42494e-22)
(0.815056 0.466798 7.11966e-22)
(0.778631 0.479325 2.6006e-22)
(0.74533 0.423353 -1.15918e-21)
(0.735987 0.278237 3.386e-22)
(0.755347 0.0701888 0)
(0.784747 -0.115265 0)
(0.825351 -0.259982 0)
(0.846073 -0.316397 0)
(0.84471 -0.365879 2.92466e-22)
(0.804127 -0.374922 -1.23578e-22)
(0.764147 -0.353322 0)
(0.746173 -0.263515 0)
(0.768529 -0.082327 0)
(0.797831 0.0403506 -8.79361e-23)
(0.818847 0.230889 1.50897e-23)
(0.80258 0.292519 -8.24351e-23)
(0.789524 0.364008 0)
(0.784406 0.328155 0)
(0.804598 0.136763 6.72114e-23)
(0.802785 0.0764557 2.1312e-22)
(0.819377 -0.229505 0)
(0.793963 -0.250511 0)
(-0.201946 -0.299891 -8.89414e-22)
(-0.198798 -0.260981 -4.6735e-20)
(-0.188836 -0.205924 4.39817e-20)
(-0.172067 -0.136977 -4.12298e-20)
(-0.147196 -0.0551883 -3.43849e-22)
(-0.114199 0.0368059 0)
(-0.0736342 0.134541 -3.31077e-20)
(-0.0296337 0.235277 3.23121e-20)
(0.0155067 0.331394 2.41001e-22)
(0.0627271 0.415357 3.35833e-22)
(0.109408 0.48587 2.97641e-22)
(0.152633 0.541085 3.19023e-22)
(0.192518 0.5796 -1.73828e-20)
(0.233218 0.597385 1.71642e-20)
(0.28241 0.58569 0)
(0.347458 0.533546 5.88985e-22)
(0.429439 0.434906 -2.27082e-20)
(0.5213 0.293081 2.24214e-20)
(0.61343 0.117827 0)
(0.699251 -0.0754843 0)
(0.772427 -0.260419 -2.23267e-20)
(0.82467 -0.405503 3.99683e-20)
(0.851998 -0.492177 -3.1091e-20)
(0.857652 -0.524561 3.31224e-21)
(0.847585 -0.522066 1.79497e-20)
(0.827854 -0.502403 -1.44175e-20)
(0.804691 -0.476684 1.12947e-20)
(0.776142 -0.457414 -5.9194e-22)
(0.7332 -0.454779 -4.84271e-21)
(0.675705 -0.452287 0)
(0.623727 -0.40579 0)
(0.601953 -0.282417 2.62433e-21)
(0.617432 -0.0976018 -3.35693e-21)
(0.658473 0.0939192 -6.14982e-23)
(0.710233 0.248743 2.58358e-21)
(0.761769 0.341843 -2.51078e-21)
(0.804414 0.393306 0)
(0.825229 0.429969 2.28897e-22)
(0.814688 0.475137 2.15738e-21)
(0.784259 0.492042 -4.62549e-21)
(0.758071 0.43309 2.17515e-21)
(0.754909 0.280884 3.85175e-22)
(0.777612 0.0661101 -3.53409e-21)
(0.804932 -0.123655 2.70702e-21)
(0.841645 -0.268237 5.25285e-22)
(0.85753 -0.318995 3.8989e-22)
(0.855353 -0.359827 -2.93196e-22)
(0.812603 -0.364197 0)
(0.771239 -0.345871 0)
(0.750684 -0.26497 -7.69509e-22)
(0.769779 -0.0899499 3.8334e-22)
(0.797892 0.0333164 -3.31251e-22)
(0.815311 0.229605 4.88382e-22)
(0.800568 0.295324 6.08e-22)
(0.786262 0.365736 -1.54346e-22)
(0.783585 0.327161 3.01614e-22)
(0.807854 0.134408 -2.95509e-22)
(0.807862 0.0753852 1.70227e-22)
(0.827524 -0.227999 0)
(0.799432 -0.248946 0)
(-0.144478 -0.30547 -8.21998e-20)
(-0.157753 -0.275661 5.18469e-21)
(-0.162186 -0.229361 7.27017e-20)
(-0.160956 -0.169491 -5.85166e-22)
(-0.151227 -0.0964049 0)
(-0.131932 -0.0117264 0)
(-0.102247 0.0804918 -4.92059e-20)
(-0.0649811 0.177843 2.48119e-21)
(-0.0251084 0.272416 6.39127e-20)
(0.019513 0.359264 -1.934e-21)
(0.0698745 0.435166 -1.79049e-20)
(0.122346 0.496072 -1.508e-20)
(0.177543 0.538171 1.50668e-20)
(0.238833 0.555578 0)
(0.311206 0.539808 -1.80686e-20)
(0.397807 0.482946 1.63807e-20)
(0.495768 0.383173 0)
(0.596664 0.24543 0)
(0.692748 0.0773083 2.61209e-20)
(0.779555 -0.108353 -3.19405e-22)
(0.850351 -0.285074 -2.36047e-20)
(0.895483 -0.420677 -1.88339e-20)
(0.911649 -0.497832 1.86818e-20)
(0.90486 -0.522389 -1.10366e-20)
(0.883933 -0.514499 2.57738e-21)
(0.855205 -0.492271 7.83456e-21)
(0.82462 -0.464913 6.86756e-22)
(0.792089 -0.44075 2.36567e-23)
(0.748736 -0.430724 0)
(0.68956 -0.426659 4.66506e-21)
(0.629976 -0.391009 -4.8068e-21)
(0.596559 -0.286628 3.82043e-22)
(0.602049 -0.118285 0)
(0.638403 0.0652467 -3.80495e-22)
(0.6908 0.220097 4.55751e-21)
(0.747372 0.318291 -7.86727e-21)
(0.795776 0.378521 -2.23471e-22)
(0.822046 0.426076 -9.89591e-23)
(0.816294 0.480965 3.04794e-21)
(0.792214 0.502742 5.12062e-22)
(0.773194 0.442105 -5.61601e-21)
(0.77599 0.284517 4.7283e-21)
(0.802083 0.0642978 -4.02372e-23)
(0.827504 -0.129244 2.49374e-21)
(0.859983 -0.274367 -2.95123e-21)
(0.870677 -0.320667 -2.59879e-21)
(0.867468 -0.353442 7.76177e-22)
(0.822772 -0.35328 8.53526e-22)
(0.780156 -0.338166 -1.58357e-21)
(0.757021 -0.266492 1.10935e-21)
(0.772708 -0.0976333 -3.41274e-22)
(0.799599 0.0261068 3.45173e-22)
(0.813459 0.228059 2.82735e-22)
(0.800069 0.29801 -8.84825e-22)
(0.784201 0.367256 -7.57689e-24)
(0.78393 0.325908 -3.37875e-22)
(0.812368 0.131615 0)
(0.814254 0.0740508 -1.60184e-22)
(0.836787 -0.226342 3.85578e-22)
(0.805824 -0.247212 0)
(-0.0218805 -0.296531 7.091e-20)
(-0.0505396 -0.27497 -1.31255e-19)
(-0.0688246 -0.237991 5.99387e-20)
(-0.0833102 -0.187632 4.79217e-20)
(-0.0895438 -0.125039 -8.92205e-20)
(-0.0866815 -0.048899 4.00981e-21)
(-0.0712207 0.0347946 3.66911e-20)
(-0.045909 0.12423 3.01172e-20)
(-0.0155601 0.211995 -2.95511e-20)
(0.0249094 0.29825 0)
(0.0752811 0.375619 -2.42869e-20)
(0.133423 0.438756 4.78705e-20)
(0.199587 0.482177 -2.36994e-20)
(0.275557 0.499074 0)
(0.363503 0.481772 0)
(0.463165 0.424964 5.86897e-22)
(0.569196 0.329574 -4.62722e-20)
(0.673266 0.200587 4.49426e-20)
(0.770359 0.0424926 0)
(0.857455 -0.133656 5.19727e-20)
(0.925644 -0.300752 -9.35885e-20)
(0.963411 -0.426168 8.00824e-20)
(0.96862 -0.494449 -6.5163e-20)
(0.950056 -0.513199 6.22531e-21)
(0.919241 -0.50218 3.75078e-20)
(0.882937 -0.47895 -1.60588e-20)
(0.845998 -0.451641 -3.39796e-22)
(0.809674 -0.424781 -3.85932e-21)
(0.76657 -0.408096 2.22756e-22)
(0.707997 -0.400614 3.69252e-21)
(0.643324 -0.373483 2.77138e-22)
(0.598804 -0.288076 -4.74835e-21)
(0.593065 -0.138058 9.42325e-21)
(0.623254 0.0352809 -5.18903e-21)
(0.674992 0.188809 0)
(0.735356 0.291645 -3.97461e-21)
(0.788615 0.360681 3.82566e-21)
(0.82009 0.419136 -3.08692e-21)
(0.819505 0.483787 3.8342e-21)
(0.801967 0.511201 -5.27413e-22)
(0.790013 0.450415 0)
(0.798526 0.289244 -7.94798e-22)
(0.828082 0.0648517 2.4575e-21)
(0.851932 -0.131959 0)
(0.880052 -0.278187 5.10603e-21)
(0.885316 -0.321318 -2.21202e-21)
(0.880839 -0.346747 5.9173e-22)
(0.834385 -0.342211 4.24479e-22)
(0.790556 -0.330169 0)
(0.764819 -0.26796 0)
(0.777022 -0.105339 -8.58762e-22)
(0.802786 0.0186709 1.31515e-21)
(0.813228 0.226206 -7.65418e-22)
(0.801093 0.300604 2.3605e-22)
(0.783439 0.36862 5.66954e-22)
(0.785526 0.324402 3.382e-22)
(0.818133 0.128387 -7.01827e-22)
(0.821951 0.072448 0)
(0.84712 -0.224493 -5.69991e-22)
(0.813098 -0.245283 -1.10841e-22)
(0.156242 -0.27284 6.28909e-20)
(0.115917 -0.256129 -6.23032e-20)
(0.0855572 -0.228961 4.0822e-22)
(0.0568357 -0.190462 -2.70423e-22)
(0.0354671 -0.139012 2.97958e-22)
(0.0218917 -0.0759566 -2.559e-22)
(0.019009 -0.00266498 2.61546e-22)
(0.0296412 0.07527 0)
(0.0494693 0.156255 -1.86312e-22)
(0.0825389 0.237565 1.75554e-22)
(0.128423 0.312322 1.82373e-22)
(0.186569 0.374461 -3.16171e-22)
(0.256793 0.417501 0)
(0.339361 0.434297 0)
(0.434144 0.417949 4.18645e-22)
(0.538507 0.364921 0)
(0.645811 0.277486 -6.2663e-22)
(0.748895 0.159634 0)
(0.845424 0.0130268 -5.00438e-20)
(0.93225 -0.152183 9.81679e-20)
(0.997101 -0.308135 -9.09954e-20)
(1.02695 -0.42279 4.28969e-20)
(1.02157 -0.483087 2.84225e-20)
(0.992393 -0.497992 -2.76018e-20)
(0.952951 -0.485971 -1.65847e-20)
(0.910488 -0.463074 1.59805e-20)
(0.86841 -0.43696 0)
(0.828491 -0.409464 2.45208e-22)
(0.785813 -0.387596 0)
(0.729734 -0.375322 0)
(0.663 -0.353664 6.49644e-21)
(0.608894 -0.285955 -6.65184e-21)
(0.591058 -0.155883 4.28312e-22)
(0.613428 0.0054475 5.22548e-22)
(0.662883 0.155396 -3.89889e-22)
(0.725521 0.262054 -3.04216e-21)
(0.782639 0.339611 2.9539e-21)
(0.819029 0.408729 -3.71591e-21)
(0.823862 0.483166 3.21955e-21)
(0.812898 0.517227 1.0566e-21)
(0.80781 0.45799 -6.02966e-21)
(0.821713 0.295039 -1.71383e-21)
(0.854863 0.0678252 4.87106e-21)
(0.87773 -0.131762 0)
(0.901508 -0.279588 -2.34884e-21)
(0.901206 -0.32092 2.06326e-21)
(0.895214 -0.339811 -2.80898e-21)
(0.847188 -0.331011 -4.27164e-22)
(0.802112 -0.321779 0)
(0.773708 -0.269241 2.6438e-22)
(0.782392 -0.113066 -5.03752e-22)
(0.807237 0.0109308 -4.19096e-23)
(0.814519 0.223974 -1.77405e-22)