/*--------------------------------*- C++ -*----------------------------------*\
| =========                 |                                                 |
| \\      /  F ield         | OpenFOAM: The Open Source CFD Toolbox           |
|  \\    /   O peration     | Version:  2512                                  |
|   \\  /    A nd           | Website:  www.openfoam.com                      |
|    \\/     M anipulation  |                                                 |
\*---------------------------------------------------------------------------*/
FoamFile
{
    version     2.0;
    format      ascii;
    arch        "LSB;label=32;scalar=64";
    class       volVectorField;
    location    "98.25";
    object      U;
}
// * * * * * * * * * * * * * * * * * * * * * * * * * * * * * * * * * * * * * //

dimensions      [0 1 -1 0 0 0 0];

internalField   nonuniform List<vector> 
13248
(
(-0.0130422 0.0112154 6.69684e-20)
(-0.025273 0.0228446 0)
(-0.0246408 0.027952 -1.26583e-19)
(-0.0110949 0.0293208 1.19244e-19)
(0.0154817 0.0288071 1.11276e-19)
(0.0551683 0.0276754 0)
(0.107939 0.0268122 0)
(0.173501 0.0268396 2.62743e-19)
(0.251123 0.0281645 -2.45737e-21)
(0.339493 0.0310021 -2.27406e-19)
(0.436655 0.0353747 2.08852e-19)
(0.540028 0.0411095 -1.30253e-19)
(0.646537 0.0478494 0)
(0.752814 0.0550822 -2.23201e-19)
(0.855446 0.0621896 4.17658e-19)
(0.95124 0.0685097 -9.8577e-20)
(1.03745 0.0734104 -1.81002e-19)
(1.11199 0.0763295 1.69917e-19)
(1.17355 0.0769313 0)
(1.22165 0.0747177 0)
(1.25668 0.0704913 0)
(1.27967 0.0614843 0)
(1.29211 0.0554807 5.56558e-20)
(1.29671 0.0322623 2.08562e-19)
(-0.0136893 0.0107394 -2.0239e-19)
(-0.0222587 0.0202418 1.38173e-19)
(-0.0134422 0.0234066 -1.32549e-21)
(0.0119978 0.0232339 -1.82468e-19)
(0.0536851 0.0218175 -1.11154e-19)
(0.111236 0.0206304 -1.0502e-19)
(0.183961 0.0206768 -1.91013e-19)
(0.2706 0.0225887 1.81138e-19)
(0.36911 0.0266753 0)
(0.476593 0.032939 1.17708e-21)
(0.589392 0.0410889 2.98555e-21)
(0.703352 0.0505761 1.31537e-19)
(0.814178 0.0606582 0)
(0.917842 0.0704895 0)
(1.01094 0.079225 1.5449e-19)
(1.09096 0.08612 -2.90193e-19)
(1.15649 0.0906115 1.76432e-19)
(1.20719 0.0923682 -1.65642e-19)
(1.2438 0.0913023 -7.42846e-20)
(1.26788 0.0875478 -1.38085e-19)
(1.2815 0.0814464 -5.93925e-20)
(1.28723 0.073182 -1.12577e-19)
(1.28666 0.0646949 1.61694e-19)
(1.28396 0.0518073 4.71835e-20)
(-0.0130623 0.00944373 0)
(-0.0152249 0.0161338 0)
(0.00490223 0.0175865 6.45513e-20)
(0.0456339 0.016732 5.92688e-20)
(0.105846 0.0157288 -1.74565e-21)
(0.184263 0.0161324 -1.0918e-19)
(0.278938 0.0189161 0)
(0.386942 0.0245371 -8.97977e-20)
(0.50427 0.0329797 8.45034e-20)
(0.626025 0.0437968 1.1855e-21)
(0.746849 0.0561861 -1.42595e-19)
(0.861495 0.0691136 -1.30353e-19)
(0.965407 0.0814684 2.33397e-21)
(1.05518 0.0922209 -1.08302e-19)
(1.12882 0.100557 2.59188e-19)
(1.18583 0.105964 0)
(1.22706 0.108262 -1.713e-19)
(1.25441 0.107565 8.27884e-20)
(1.27047 0.104256 7.42248e-20)
(1.27799 0.0987391 0)
(1.27962 0.0918463 6.2334e-20)
(1.27743 0.0832725 -2.17088e-19)
(1.27281 0.0759205 2.03792e-19)
(1.26803 0.0639051 1.31373e-19)
(-0.0107779 0.00739768 -7.21245e-20)
(-0.0032071 0.0107252 -7.46848e-20)
(0.0316542 0.0108716 6.72635e-20)
(0.091032 0.0104176 0)
(0.172657 0.0113811 0)
(0.273748 0.0151965 -2.73427e-21)
(0.390352 0.022552 0)
(0.517195 0.0334275 -2.76593e-19)
(0.647951 0.0471831 2.56369e-19)
(0.775896 0.0627 -3.1523e-19)
(0.894745 0.0785897 7.16479e-20)
(0.999443 0.0934397 0)
(1.0867 0.106041 1.19529e-19)
(1.15521 0.115551 -2.21525e-19)
(1.2055 0.121569 5.2509e-20)
(1.23957 0.124115 1.36401e-19)
(1.26036 0.123543 -5.07837e-21)
(1.27112 0.120408 -1.52877e-19)
(1.2749 0.115325 0)
(1.27424 0.108889 0)
(1.27093 0.101609 -5.60185e-20)
(1.26613 0.0936466 5.0662e-20)
(1.26042 0.0864178 1.849e-19)
(1.25483 0.0760644 -1.73575e-19)
(-0.00648176 0.00480298 -7.65052e-20)
(0.0146601 0.0045894 -7.60415e-20)
(0.0678538 0.00419039 2.13705e-19)
(0.148941 0.00555279 -1.29251e-19)
(0.253922 0.0102828 1.21659e-19)
(0.377727 0.0193784 2.20047e-19)
(0.513676 0.0328655 -1.5563e-19)
(0.653802 0.049878 -1.88756e-19)
(0.789765 0.0689001 4.22953e-21)
(0.91404 0.0881011 2.39777e-19)
(1.02096 0.105705 0)
(1.10734 0.120303 6.60324e-20)
(1.17256 0.131044 0)
(1.21816 0.137673 -1.07539e-19)
(1.24721 0.140441 1.51086e-19)
(1.26343 0.139935 1.22733e-21)
(1.27054 0.13689 -4.00564e-20)
(1.27172 0.132025 7.51963e-20)
(1.26936 0.125946 6.53324e-20)
(1.26503 0.1191 -5.89563e-20)
(1.25967 0.111839 5.60069e-20)
(1.25378 0.104221 -5.0651e-20)
(1.24755 0.0971409 0)
(1.24161 0.0878402 -3.8787e-20)
(0.000161232 0.0019563 7.64942e-20)
(0.0390937 -0.00140924 8.05427e-20)
(0.114157 -0.00109306 -7.16712e-20)
(0.219336 0.00387121 1.33507e-19)
(0.348138 0.0142926 -1.25658e-19)
(0.492424 0.0302836 1.13266e-19)
(0.642403 0.0507624 -5.45622e-20)
(0.787795 0.0737226 1.41811e-19)
(0.919471 0.0967592 -8.94019e-20)
(1.03086 0.117619 1.5774e-19)
(1.11869 0.134626 -3.63975e-19)
(1.18291 0.146901 1.3397e-19)
(1.226 0.154342 -1.16838e-19)
(1.25194 0.157442 1.09747e-19)
(1.26518 0.157029 9.50344e-20)
(1.26982 0.154016 8.37204e-20)
(1.26915 0.149219 -2.33365e-19)
(1.26548 0.143277 1.44934e-19)
(1.26029 0.136635 -6.53365e-20)
(1.25441 0.129588 1.71694e-19)
(1.24825 0.122321 -5.54304e-20)
(1.242 0.11493 -1.36442e-19)
(1.23571 0.107857 1.26202e-19)
(1.22962 0.0993164 3.87757e-20)
(0.00945547 -0.000775912 0)
(0.0705616 -0.0062111 8.07502e-22)
(0.17061 -0.00338339 1.50837e-19)
(0.301096 0.00723152 -1.41345e-19)
(0.452229 0.0251161 -1.27135e-19)
(0.612323 0.0489671 2.36114e-19)
(0.76883 0.0762374 -1.09569e-19)
(0.910487 0.103772 1.45454e-19)
(1.02929 0.128642 -3.30979e-21)
(1.12149 0.148761 -8.23457e-20)
(1.18735 0.163136 1.78883e-19)
(1.23013 0.171795 -2.64326e-19)
(1.2547 0.175474 0)
(1.26619 0.175257 -5.19416e-20)
(1.26915 0.172257 -1.3871e-19)
(1.26705 0.167415 4.36525e-20)
(1.26226 0.161432 1.6214e-21)
(1.25622 0.154776 -9.66469e-20)
(1.24973 0.147742 5.60106e-21)
(1.24315 0.140507 1.12035e-19)
(1.23664 0.133184 -5.04199e-20)
(1.23023 0.125856 -1.93626e-20)
(1.22387 0.118682 5.91415e-20)
(1.21766 0.110701 0)
(0.021629 -0.00296591 0)
(0.109148 -0.00864568 4.09848e-20)
(0.236443 -0.00106036 -1.9765e-19)
(0.391836 0.0172742 7.17507e-20)
(0.561659 0.0438807 -6.75279e-20)
(0.730889 0.0755798 -6.17438e-20)
(0.885525 0.108306 -1.08639e-19)
(1.01536 0.138167 5.4456e-20)
(1.11547 0.162391 4.70234e-20)
(1.18604 0.179704 0)
(1.23092 0.190182 1.06759e-19)
(1.25581 0.194801 -1.59051e-19)
(1.26667 0.194934 1.18202e-19)
(1.26859 0.191942 5.19694e-20)
(1.26539 0.186944 -4.27476e-20)
(1.2596 0.180745 -3.57649e-20)
(1.25273 0.173868 -3.34732e-20)
(1.24556 0.16663 9.99756e-20)
(1.23848 0.159213 0)
(1.23161 0.151725 5.06048e-20)
(1.22497 0.144239 4.28917e-20)
(1.21852 0.136815 -1.06195e-19)
(1.2122 0.129469 -7.33415e-20)
(1.20597 0.121852 6.76287e-20)
(0.0367683 -0.0041343 -4.47179e-20)
(0.154423 -0.00751791 -1.89995e-21)
(0.309969 0.00732928 4.0329e-20)
(0.488018 0.0351523 1.12894e-19)
(0.671021 0.0709112 3.27815e-20)
(0.841746 0.109376 -6.34182e-20)
(0.986811 0.145362 5.7739e-20)
(1.09915 0.174999 -5.03908e-20)
(1.17815 0.196411 9.03519e-20)
(1.22796 0.209566 3.82824e-20)
(1.25512 0.215653 -1.08962e-19)
(1.26651 0.216381 3.19674e-20)
(1.26802 0.213436 5.45606e-20)
(1.26401 0.208189 -2.6847e-20)
(1.25731 0.20161 0)
(1.24959 0.194314 3.99864e-20)
(1.24169 0.186661 6.77159e-20)
(1.23399 0.178853 1.16257e-20)
(1.22664 0.171 -5.6517e-20)
(1.21965 0.163172 2.36495e-20)
(1.21298 0.155419 0)
(1.20655 0.14777 -1.86529e-20)
(1.20028 0.140194 -1.78492e-20)
(1.19409 0.132756 0)
(0.0547541 -0.00377338 0)
(0.205357 -0.0017087 2.34839e-20)
(0.388623 0.0229037 4.34551e-20)
(0.585327 0.0613751 -1.15505e-19)
(0.774871 0.105738 3.74457e-20)
(0.939774 0.149 0)
(1.06952 0.185667 5.58682e-20)
(1.16164 0.212755 -7.80167e-20)
(1.22 0.229817 -4.5217e-20)
(1.25189 0.238163 2.03345e-20)
(1.2653 0.239884 -3.25768e-20)
(1.2672 0.237097 7.9072e-20)
(1.26272 0.231532 3.94215e-20)
(1.25522 0.224404 -2.74715e-20)
(1.24662 0.216475 -2.63682e-21)
(1.23792 0.208182 -7.48304e-20)
(1.22953 0.199756 3.40607e-20)
(1.22161 0.191323 -9.07758e-22)
(1.21418 0.182952 0)
(1.20719 0.174689 -2.36744e-20)
(1.20057 0.166566 0)
(1.19423 0.158582 5.36511e-20)
(1.18808 0.150738 -6.38423e-20)
(1.18199 0.143296 2.91191e-20)
(0.0752145 -0.00138439 -1.23669e-20)
(0.26031 0.0097191 -5.93848e-20)
(0.469155 0.0463205 6.76842e-20)
(0.679204 0.0957733 3.96529e-20)
(0.868501 0.147268 -1.89093e-20)
(1.02166 0.19284 3.17189e-20)
(1.1328 0.227694 -1.53946e-20)
(1.20454 0.250439 2.55068e-20)
(1.24455 0.262268 0)
(1.26209 0.265662 5.74998e-20)
(1.2655 0.263296 -2.46892e-21)
(1.26108 0.257403 -4.62338e-20)
(1.25295 0.249568 1.97245e-20)
(1.24349 0.24078 -2.21847e-20)
(1.23392 0.231598 -8.37757e-21)
(1.22476 0.222311 9.75664e-21)
(1.21619 0.213064 -7.48098e-21)
(1.20824 0.203933 -4.06503e-20)
(1.20085 0.194963 2.48896e-20)
(1.19397 0.186183 5.0736e-21)
(1.18749 0.177605 4.46509e-21)
(1.18131 0.169214 3.93218e-21)
(1.17532 0.161077 0)
(1.16938 0.153446 0)
(0.0975844 0.00348791 1.23755e-20)
(0.317253 0.0274364 -1.23578e-20)
(0.548097 0.0777045 -2.25788e-20)
(0.765525 0.137562 0)
(0.948501 0.194035 -9.40767e-21)
(1.08588 0.239324 -8.49173e-21)
(1.17736 0.27028 -1.44593e-20)
(1.23026 0.287499 0)
(1.25502 0.293735 0)
(1.26169 0.292333 0)
(1.25818 0.286232 0)
(1.24976 0.277566 0)
(1.23954 0.26768 -1.23831e-20)
(1.22909 0.257329 5.63449e-21)
(1.21912 0.246899 9.75772e-21)
(1.20984 0.23657 4.56167e-21)
(1.20131 0.22643 1.12339e-20)
(1.19347 0.216521 0)
(1.18627 0.206871 -2.67506e-21)
(1.17961 0.197497 -2.5702e-21)
(1.17338 0.188391 -4.47223e-21)
(1.16746 0.179544 -3.93848e-21)
(1.16175 0.171093 0)
(1.15607 0.163109 2.80582e-21)
(-0.00151716 -0.00105503 8.46552e-21)
(-0.0076657 0.00727012 -8.7815e-21)
(-0.0185866 0.0217871 -1.66136e-20)
(-0.0318652 0.0393179 0)
(-0.0462233 0.0576696 -2.22505e-20)
(-0.0610286 0.0756469 7.03123e-21)
(-0.0758193 0.0928622 -1.31065e-20)
(-0.0902289 0.109461 0)
(-0.103967 0.125848 0)
(-0.116793 0.14247 0)
(-0.128505 0.159667 0)
(-0.138921 0.177617 0)
(-0.147873 0.196316 1.38697e-22)
(-0.155193 0.215601 -8.65267e-21)
(-0.160708 0.23517 1.60631e-20)
(-0.164235 0.254596 2.28046e-20)
(-0.165586 0.273337 7.06299e-21)
(-0.164569 0.290748 0)
(-0.161004 0.306092 6.44258e-21)
(-0.154745 0.318576 -1.81516e-20)
(-0.145673 0.327395 -1.15148e-20)
(-0.133671 0.331773 -1.09853e-20)
(-0.118692 0.331009 0)
(-0.101171 0.32474 0)
(-0.00153762 0.00310594 -2.52952e-20)
(-0.00753772 0.0167955 4.36927e-20)
(-0.0175445 0.034761 -1.62513e-20)
(-0.0294501 0.0545017 -3.10376e-20)
(-0.0421018 0.0742123 4.39931e-20)
(-0.0549077 0.0929086 -2.75131e-20)
(-0.0674417 0.110313 3.89797e-20)
(-0.0793628 0.126628 2.40764e-20)
(-0.0903864 0.142297 0)
(-0.100259 0.157797 -2.1758e-20)
(-0.108747 0.173502 -1.839e-24)
(-0.115628 0.189614 1.92334e-20)
(-0.120689 0.206145 2.66779e-20)
(-0.123722 0.222937 3.36329e-20)
(-0.124515 0.239683 -1.59359e-20)
(-0.122857 0.25595 -4.48678e-20)
(-0.118536 0.271198 1.40341e-20)
(-0.111347 0.28479 -5.29738e-20)
(-0.101104 0.296028 0)
(-0.0876542 0.304164 1.20837e-20)
(-0.0708917 0.308466 1.14952e-20)
(-0.0507244 0.308285 1.09663e-20)
(-0.0269781 0.303189 0)
(0.000163585 0.293376 0)
(-0.00188628 0.00616026 0)
(-0.00805927 0.0237989 8.56724e-20)
(-0.0171572 0.0443259 -3.23476e-20)
(-0.0274596 0.0657137 3.06945e-20)
(-0.0379769 0.0864394 -8.59061e-20)
(-0.048176 0.105658 0)
(-0.0576826 0.12314 -5.06364e-20)
(-0.0662005 0.139091 2.35745e-20)
(-0.0734727 0.153947 -4.41916e-20)
(-0.0792546 0.168192 2.02284e-20)
(-0.083303 0.182219 1.17551e-19)
(-0.085375 0.196258 -5.51988e-20)
(-0.085229 0.210355 -8.70979e-20)
(-0.0826306 0.224383 -3.24169e-20)
(-0.0773513 0.238058 -2.76673e-22)
(-0.0691716 0.25097 1.16355e-19)
(-0.0578879 0.262608 -5.48145e-20)
(-0.0433097 0.272378 5.07284e-22)
(-0.0252862 0.279627 0)
(-0.00371876 0.28367 -4.73442e-20)
(0.0214338 0.283834 0)
(0.0501631 0.279533 -4.56412e-20)
(0.0827669 0.270442 1.70931e-19)
(0.119814 0.257003 3.01612e-21)
(-0.00241106 0.00805664 0)
(-0.00901364 0.0281108 -3.68992e-22)
(-0.0173736 0.050162 3.17601e-20)
(-0.0261118 0.0724662 -2.97825e-20)
(-0.0343832 0.0936941 2.8596e-20)
(-0.0417088 0.113088 1.58665e-19)
(-0.0477696 0.130422 -4.98097e-20)
(-0.0523272 0.145863 -4.61922e-20)
(-0.0551744 0.159803 8.74083e-20)
(-0.0561032 0.172697 -1.23196e-19)
(-0.0548936 0.184936 3.80131e-20)
(-0.0513148 0.196776 3.55728e-20)
(-0.0451219 0.208303 0)
(-0.0360811 0.219436 3.22214e-20)
(-0.0239759 0.229941 0)
(-0.00859813 0.239465 5.596e-20)
(0.0102292 0.247558 -1.08238e-19)
(0.0326482 0.253694 2.42173e-20)
(0.0587545 0.257297 9.69141e-20)
(0.0885861 0.25777 4.72864e-20)
(0.122117 0.25452 0)
(0.159233 0.246997 -1.32943e-19)
(0.199809 0.234911 4.13957e-20)
(0.247229 0.218327 0)
(-0.00299535 0.00894769 0)
(-0.0102282 0.0299731 -1.00704e-19)
(-0.0181555 0.0524406 -3.14246e-20)
(-0.0256011 0.0747737 -5.92576e-20)
(-0.0318052 0.0957942 5.57958e-20)
(-0.036323 0.114813 -5.26022e-20)
(-0.0388836 0.131592 9.75261e-20)
(-0.0393099 0.146242 4.57061e-20)
(-0.0374611 0.159083 -1.29035e-19)
(-0.0331917 0.170513 7.99234e-20)
(-0.0263368 0.1809 -1.12906e-19)
(-0.0167104 0.190504 2.44538e-19)
(-0.00411179 0.199446 -1.31863e-19)
(0.0116604 0.207692 6.11282e-20)
(0.0307939 0.215079 1.74742e-19)
(0.0534566 0.221326 -5.49472e-20)
(0.0797836 0.226062 -5.03245e-20)
(0.109869 0.22885 -4.98196e-20)
(0.143762 0.229212 0)
(0.181457 0.226647 -9.3119e-20)
(0.222863 0.220663 -9.27208e-20)
(0.268194 0.210717 1.26647e-19)
(0.315537 0.196639 1.70753e-19)
(0.374468 0.177413 -1.59332e-19)
(-0.00359954 0.0091361 0)
(-0.0116401 0.0299518 -1.32629e-19)
(-0.0195151 0.051757 5.51491e-22)
(-0.0260754 0.0731327 1.17626e-19)
(-0.0305796 0.0930648 0)
(-0.032595 0.110951 0)
(-0.0318876 0.126559 0)
(-0.0283376 0.139948 -4.49989e-20)
(-0.021874 0.151363 5.68367e-22)
(-0.0124291 0.161133 7.86468e-20)
(8.51904e-05 0.169579 -1.10766e-19)
(0.0157828 0.176947 2.69151e-22)
(0.0347989 0.183373 0)
(0.0572782 0.188872 -6.10979e-20)
(0.0833629 0.193341 5.63629e-20)
(0.113181 0.196577 -1.59897e-19)
(0.146839 0.198295 2.04466e-19)
(0.184416 0.198148 5.05189e-20)
(0.225963 0.195745 4.11164e-21)
(0.271541 0.190679 -1.76584e-19)
(0.320797 0.182516 -8.51285e-20)
(0.375248 0.170819 2.95008e-19)
(0.42889 0.155622 -1.9869e-19)
(0.50224 0.134252 0)
(-0.00427496 0.00899766 6.39491e-20)
(-0.0133098 0.0288004 6.6226e-20)
(-0.0214951 0.0490047 -6.18727e-20)
(-0.027566 0.0684437 -1.1606e-19)
(-0.0307491 0.0863328 1.09276e-19)
(-0.0306138 0.102206 -1.01355e-19)
(-0.0269534 0.115876 1.42549e-19)
(-0.019695 0.12738 -4.48066e-20)
(-0.00882788 0.136907 8.2825e-20)
(0.0056471 0.14472 0)
(0.0237479 0.151087 7.0405e-20)
(0.0455239 0.156229 -1.32673e-19)
(0.0710561 0.160286 1.25078e-19)
(0.100451 0.1633 -1.17469e-19)
(0.133833 0.165221 0)
(0.171332 0.165912 1.04444e-19)
(0.213076 0.165164 1.9816e-19)
(0.259183 0.162706 -1.87259e-19)
(0.309734 0.158225 -8.92007e-20)
(0.365015 0.151415 -9.04539e-20)
(0.424035 0.141819 2.50471e-19)
(0.490835 0.129281 8.2785e-20)
(0.551927 0.113744 -7.49023e-20)
(0.644232 0.0916384 7.45885e-20)
(-0.00513935 0.00888945 -6.3958e-20)
(-0.0153657 0.027283 1.9673e-19)
(-0.02408 0.0451809 -6.17239e-20)
(-0.0298465 0.0618454 1.15234e-19)
(-0.0318482 0.0768214 -1.08498e-19)
(-0.0296614 0.0898414 1.67157e-22)
(-0.023098 0.100817 4.71558e-20)
(-0.0121091 0.109807 1.72584e-19)
(0.00328922 0.116977 -1.78942e-21)
(0.0230705 0.122547 -7.68227e-20)
(0.0472324 0.126746 0)
(0.0758141 0.129766 -6.43989e-20)
(0.108901 0.131745 1.2265e-19)
(0.146617 0.132742 1.14684e-19)
(0.189117 0.132743 -5.43118e-20)
(0.236567 0.131655 -1.13209e-21)
(0.289121 0.129325 -4.88795e-20)
(0.346906 0.125544 9.10756e-20)
(0.409861 0.120027 8.91922e-20)
(0.478396 0.112642 -8.57425e-20)
(0.550135 0.102655 8.0626e-20)
(0.631987 0.0907341 -7.76375e-20)
(0.701424 0.0755869 0)
(0.812871 0.0558428 -7.4559e-20)
(-0.00631894 0.00906226 6.36376e-20)
(-0.0178824 0.0259879 -6.56105e-20)
(-0.027044 0.0411652 6.15696e-20)
(-0.0322498 0.0544918 0)
(-0.0326737 0.0659457 0)
(-0.0279105 0.0755206 9.90973e-20)
(-0.0177709 0.0832795 -9.36802e-20)
(-0.00218639 0.089353 8.48747e-20)
(0.0188618 0.093924 -4.00805e-19)
(0.0453934 0.0972027 7.36337e-22)
(0.0774586 0.0993977 6.8849e-20)
(0.115148 0.100689 0)
(0.158584 0.101205 -1.19996e-19)
(0.207902 0.101013 2.25268e-19)
(0.26321 0.100107 -1.59097e-19)
(0.324549 0.098413 -2.51089e-19)
(0.39184 0.0957921 -2.33899e-21)
(0.464862 0.0920673 1.77477e-19)
(0.543001 0.0869392 0)
(0.626192 0.0804637 0)
(0.710723 0.0715367 -8.06267e-20)
(0.803883 0.0619965 7.76373e-20)
(0.879141 0.0480902 -2.97556e-19)
(0.99647 0.0338357 2.78726e-19)
(-0.00787156 0.00958628 0)
(-0.0207324 0.0251758 0)
(-0.0297876 0.0375182 -1.84419e-19)
(-0.0335246 0.0473088 5.87277e-20)
(-0.0311674 0.0550326 1.1667e-21)
(-0.0223363 0.0609934 1.00523e-19)
(-0.00680914 0.0654523 0)
(0.0155545 0.0686533 -8.60052e-20)
(0.0448633 0.0708355 7.99626e-20)
(0.0812214 0.0722311 -1.46531e-19)
(0.124729 0.0730505 6.00115e-22)
(0.17546 0.0734646 1.27132e-19)
(0.233418 0.073587 -6.15199e-22)
(0.298485 0.0734617 1.11253e-19)
(0.370363 0.0730555 -1.5699e-19)
(0.448519 0.072259 0)
(0.532141 0.0708943 1.88202e-19)
(0.620134 0.0687365 -2.66204e-19)
(0.710979 0.0654661 8.39932e-20)
(0.803418 0.0610478 0)
(0.893701 0.0544481 7.62424e-20)
(0.985547 0.0476223 2.99352e-19)
(1.05884 0.0356009 -2.80932e-19)
(1.15841 0.0267655 -3.35795e-19)
(-0.00970873 0.0103254 1.92001e-19)
(-0.0234714 0.0247156 -2.63976e-19)
(-0.0312703 0.0343575 7.85857e-22)
(-0.0318631 0.0407973 5.85132e-20)
(-0.0245892 0.0450378 -1.0832e-19)
(-0.00910216 0.0477231 -1.00123e-19)
(0.0148641 0.0493407 1.845e-19)
(0.0475211 0.0502729 -2.90303e-21)
(0.0890232 0.0508392 -1.60657e-19)
(0.139439 0.0513078 2.94729e-19)
(0.198699 0.0518908 -1.72039e-21)
(0.266527 0.0527301 -1.28073e-19)
(0.342374 0.0538828 0)
(0.42536 0.0553102 0)
(0.51425 0.0568735 -5.2236e-20)
(0.607454 0.0583388 -9.79825e-20)
(0.703066 0.0593991 -1.86226e-19)
(0.798927 0.0596659 1.74797e-19)
(0.892725 0.0588104 -8.40301e-20)
(0.982173 0.0563437 1.58865e-19)
(1.06462 0.0520673 -7.4676e-20)
(1.13982 0.0461073 1.44448e-19)
(1.19921 0.0361099 -3.33503e-19)
(1.26307 0.0287456 6.54155e-20)
(-0.0115644 0.0109819 6.45718e-20)
(-0.0253229 0.0241422 0)
(-0.0300886 0.0313724 1.24752e-19)
(-0.0251259 0.0349564 -1.17522e-19)
(-0.00998148 0.0363715 1.0842e-19)
(0.0156308 0.0366017 0)
(0.0519455 0.0363482 0)
(0.0990981 0.0361306 -8.568e-20)
(0.157043 0.0363403 2.41235e-21)
(0.225448 0.0372572 7.56685e-20)
(0.303597 0.0390484 -6.84079e-20)
(0.390318 0.0417577 1.28842e-19)
(0.483956 0.0452958 0)
(0.582406 0.0494385 2.22544e-19)
(0.683194 0.0538392 -4.17494e-19)
(0.783611 0.0580512 2.93832e-19)
(0.88087 0.061579 1.84048e-19)
(0.972269 0.063864 -1.72763e-19)
(1.0554 0.0645532 0)
(1.12821 0.062837 0)
(1.18939 0.0594463 0)
(1.23821 0.0520009 0)
(1.27407 0.04422 6.52544e-20)
(1.30272 0.0324561 -2.36642e-19)
(-0.0789516 0.311482 -7.28362e-21)
(-0.0496783 0.283463 7.32814e-21)
(-0.0159339 0.240737 -2.40725e-22)
(0.0222959 0.18323 0)
(0.0642668 0.111261 -7.4263e-21)
(0.108809 0.0260075 1.44407e-20)
(0.15507 -0.0703108 -1.30841e-22)
(0.202407 -0.173827 -6.69688e-21)
(0.249661 -0.27938 0)
(0.29558 -0.379812 0)
(0.338405 -0.4666 -3.00621e-22)
(0.375643 -0.532342 -2.50445e-22)
(0.404384 -0.573256 -3.15439e-21)
(0.421488 -0.591359 2.86762e-21)
(0.423205 -0.595074 0)
(0.407028 -0.594773 0)
(0.377549 -0.592067 1.75418e-21)
(0.349827 -0.572073 9.65352e-23)
(0.343201 -0.51007 -1.64517e-21)
(0.368377 -0.390434 -1.14625e-22)
(0.421163 -0.219345 0)
(0.489532 -0.0208497 0)
(0.561938 0.172449 0)
(0.628952 0.328963 0)
(0.683187 0.432349 0)
(0.72019 0.485505 0)
(0.741519 0.500746 2.98029e-22)
(0.751225 0.494797 -4.7993e-22)
(0.746096 0.491044 0)
(0.719219 0.505306 0)
(0.677103 0.516562 -4.2865e-22)
(0.643113 0.47357 4.16612e-22)
(0.64032 0.33778 2.83357e-22)
(0.668933 0.131325 0)
(0.716961 -0.0874105 0)
(0.764225 -0.259406 4.23021e-22)
(0.802041 -0.363685 -4.11186e-22)
(0.827303 -0.405873 0)
(0.837845 -0.417873 2.14787e-22)
(0.8214 -0.433737 -3.05292e-22)
(0.777396 -0.4424 9.0424e-23)
(0.725714 -0.413522 0)
(0.700196 -0.29121 -2.43977e-22)
(0.705706 -0.119473 2.37243e-22)
(0.743641 0.0764162 0)
(0.786815 0.211216 0)
(0.823331 0.302425 -7.15046e-23)
(0.820867 0.364184 1.96749e-22)
(0.78838 0.384439 0)
(0.745271 0.381472 0)
(0.739388 0.232193 -6.06928e-23)
(0.755767 0.104912 -8.90252e-24)
(0.805052 -0.0875795 -5.88822e-24)
(0.81662 -0.20224 4.37854e-23)
(0.809413 -0.283216 0)
(0.785064 -0.38872 0)
(0.787003 -0.247931 0)
(0.785802 -0.234901 0)
(0.79871 0.0188438 0)
(0.781756 0.19658 0)
(0.03221 0.2778 -7.26942e-22)
(0.0682915 0.246852 -3.21232e-20)
(0.1077 0.201292 -9.10908e-22)
(0.150523 0.141446 3.09906e-20)
(0.195605 0.0679086 5.09346e-22)
(0.241755 -0.0182062 0)
(0.288228 -0.114519 -2.93516e-20)
(0.33433 -0.217732 5.67576e-20)
(0.379011 -0.32243 -2.73967e-20)
(0.420758 -0.420826 2.18738e-20)
(0.457199 -0.503694 -2.09597e-20)
(0.48547 -0.563 1.4857e-20)
(0.503245 -0.594853 -1.45002e-20)
(0.509272 -0.601101 -3.32851e-22)
(0.501974 -0.590092 -7.99086e-21)
(0.478139 -0.574965 7.76632e-21)
(0.43732 -0.564421 -6.25494e-21)
(0.389308 -0.550288 5.90536e-21)
(0.353893 -0.507163 -6.6459e-21)
(0.349316 -0.410377 1.35143e-20)
(0.379558 -0.25676 -6.84474e-21)
(0.435563 -0.0677608 -4.13193e-22)
(0.504428 0.12377 -6.46272e-21)
(0.574402 0.285864 1.17231e-20)
(0.635848 0.399821 -5.28926e-21)
(0.682705 0.464598 2.27135e-22)
(0.715119 0.489529 3.17395e-21)
(0.734361 0.492435 -3.41169e-23)
(0.735349 0.498698 -5.67438e-21)
(0.713195 0.52153 5.99216e-21)
(0.678715 0.534052 -3.08872e-21)
(0.655948 0.483087 5.19977e-22)
(0.664378 0.334704 -2.8394e-22)
(0.700457 0.117335 6.61767e-22)
(0.751459 -0.106369 0)
(0.796803 -0.276827 0)
(0.828413 -0.376097 -1.38097e-21)
(0.845164 -0.412332 1.04605e-21)
(0.84901 -0.416346 6.20283e-22)
(0.82939 -0.422743 9.72314e-24)
(0.782532 -0.42551 -8.07822e-22)
(0.726415 -0.399575 1.72945e-22)
(0.693763 -0.287397 0)
(0.696024 -0.127076 0)
(0.733215 0.0624499 0)
(0.779386 0.197917 0)
(0.817294 0.2968 2.756e-22)
(0.815892 0.36847 -1.27332e-22)
(0.785341 0.394055 0)
(0.74371 0.388433 0)
(0.741867 0.231357 0)
(0.758147 0.0971678 -1.29008e-22)
(0.810964 -0.0944601 -1.34053e-24)
(0.823331 -0.20321 -9.19865e-23)
(0.816491 -0.279556 0)
(0.791596 -0.386101 0)
(0.790457 -0.248437 3.50567e-23)
(0.788693 -0.235711 7.99359e-23)
(0.796456 0.0196449 0)
(0.779455 0.197911 0)
(0.157639 0.239707 3.70708e-21)
(0.198414 0.207582 -6.38469e-20)
(0.241083 0.161568 6.87008e-20)
(0.286426 0.101857 -6.42239e-20)
(0.333092 0.0289386 -5.12738e-22)
(0.379949 -0.0555032 0)
(0.426287 -0.150041 -6.32624e-20)
(0.471189 -0.25142 6.19693e-20)
(0.513458 -0.353933 4.20828e-22)
(0.550896 -0.449275 7.66718e-22)
(0.580391 -0.527598 6.5327e-22)
(0.598833 -0.580588 5.26596e-22)
(0.604481 -0.604802 -2.47179e-20)
(0.597649 -0.602584 2.43579e-20)
(0.579608 -0.58125 0)
(0.549219 -0.553144 4.07977e-22)
(0.502931 -0.531419 -1.09582e-20)
(0.443248 -0.516883 1.08241e-20)
(0.385593 -0.489159 0)
(0.352279 -0.41792 0)
(0.356616 -0.288298 -1.22259e-20)
(0.395521 -0.114365 2.41128e-20)
(0.456817 0.0716645 -2.22971e-20)
(0.526621 0.237223 1.49241e-21)
(0.59301 0.360821 1.65254e-20)
(0.648502 0.437222 -1.41709e-20)
(0.69124 0.472894 1.16717e-20)
(0.719365 0.486247 -3.31367e-22)
(0.726577 0.50338 -5.42448e-21)
(0.710269 0.534444 0)
(0.684675 0.548021 0)
(0.67332 0.49029 3.71226e-21)
(0.692515 0.331838 -4.64958e-21)
(0.73556 0.105991 3.88457e-23)
(0.788697 -0.121297 4.78671e-21)
(0.831489 -0.289836 -4.65147e-21)
(0.856693 -0.384397 0)
(0.864838 -0.415796 2.97462e-22)
(0.861793 -0.41328 1.89707e-21)
(0.839289 -0.411133 -3.36828e-21)
(0.790492 -0.408116 1.35109e-21)
(0.730915 -0.385164 1.3034e-22)
(0.69147 -0.283691 -1.81961e-21)
(0.69023 -0.135718 1.44618e-21)
(0.725982 0.0469199 3.22227e-22)
(0.774365 0.183337 2.83423e-22)
(0.813156 0.290249 -2.76309e-22)
(0.812822 0.372145 0)
(0.784616 0.403141 0)
(0.744837 0.395308 -1.15162e-21)
(0.747064 0.23096 5.67487e-22)
(0.762859 0.0897551 -6.12848e-22)
(0.818585 -0.101172 7.90765e-22)
(0.831582 -0.204123 7.90138e-22)
(0.824887 -0.275483 -1.71651e-22)
(0.798838 -0.383196 2.30485e-22)
(0.794597 -0.248726 -1.52906e-22)
(0.792509 -0.236121 4.02253e-23)
(0.795332 0.0206967 0)
(0.778122 0.199268 0)
(0.286856 0.200147 -1.32613e-19)
(0.33016 0.167566 -5.45408e-21)
(0.374587 0.122345 1.31452e-19)
(0.42103 0.0644906 -1.06471e-21)
(0.469063 -0.00568482 0)
(0.516934 -0.0871213 0)
(0.563348 -0.178909 -1.29887e-19)
(0.607728 -0.277452 4.46921e-21)
(0.64813 -0.376794 1.71317e-19)
(0.681334 -0.4681 -6.34895e-21)
(0.703468 -0.541018 -4.62136e-20)
(0.71148 -0.587264 -3.05706e-20)
(0.70458 -0.604195 3.07616e-20)
(0.684429 -0.595395 0)
(0.654416 -0.567835 -1.47986e-20)
(0.61679 -0.53098 1.35821e-20)
(0.568585 -0.49773 0)
(0.505813 -0.476472 0)
(0.435246 -0.456893 8.26125e-21)
(0.37761 -0.409834 6.15849e-22)
(0.354409 -0.309456 -8.07819e-21)
(0.371857 -0.157223 -9.53836e-21)
(0.421117 0.018733 9.43315e-21)
(0.486999 0.184548 -7.92231e-21)
(0.555635 0.316105 1.1751e-21)
(0.618088 0.403705 6.29988e-21)
(0.669861 0.450863 6.48165e-22)
(0.705968 0.475773 3.04763e-23)
(0.71947 0.504017 0)
(0.709918 0.542834 6.78636e-21)
(0.693933 0.55771 -7.04828e-21)
(0.694009 0.495268 5.54558e-22)
(0.723588 0.329796 0)
(0.773087 0.0979364 -7.08815e-22)
(0.82777 -0.132104 1.00661e-20)
(0.867711 -0.298876 -1.66369e-20)
(0.886564 -0.38908 9.67295e-22)
(0.886209 -0.416543 1.4255e-21)
(0.876042 -0.408999 3.77464e-21)
(0.85072 -0.399395 3.59009e-22)
(0.800838 -0.390504 -2.34296e-21)
(0.739012 -0.37007 1.97149e-21)
(0.693364 -0.279633 5.1423e-23)
(0.688347 -0.144922 1.25269e-21)
(0.72188 0.0301597 -1.5413e-21)
(0.771625 0.16763 -1.81256e-21)
(0.810855 0.282713 5.42101e-22)
(0.811644 0.37503 9.85202e-22)
(0.786237 0.41153 -2.05862e-21)
(0.748725 0.402108 1.64007e-21)
(0.755038 0.231157 -6.33268e-22)
(0.769961 0.0829511 6.72887e-22)
(0.82784 -0.107633 6.46876e-22)
(0.841259 -0.205002 -1.25087e-21)
(0.834548 -0.270992 4.81439e-23)
(0.806735 -0.379917 -2.27276e-22)
(0.799321 -0.248792 0)
(0.797156 -0.236174 -6.03952e-23)
(0.795269 0.021984 4.40669e-23)
(0.777723 0.200663 0)
(0.413984 0.159699 1.326e-19)
(0.45823 0.127883 -2.6651e-19)
(0.503894 0.0843649 1.31766e-19)
(0.551784 0.0290161 1.39696e-19)
(0.600977 -0.0367626 -2.75714e-19)
(0.649708 -0.114481 3.97945e-22)
(0.696861 -0.202315 1.32848e-19)
(0.741078 -0.296429 1.20498e-19)
(0.779358 -0.390677 -1.17997e-19)
(0.807512 -0.475964 0)
(0.82121 -0.542056 -7.87822e-20)
(0.817906 -0.581369 1.40062e-19)
(0.798297 -0.592127 -6.17279e-20)
(0.765702 -0.578716 0)
(0.724538 -0.548425 0)
(0.679037 -0.508317 3.92137e-22)
(0.629306 -0.467467 -1.69182e-20)
(0.569334 -0.436764 1.64375e-20)
(0.496434 -0.416681 0)
(0.423279 -0.386776 1.28111e-20)
(0.3743 -0.316445 -2.52905e-20)
(0.366655 -0.192349 2.64427e-20)
(0.398839 -0.0324921 -2.6957e-20)
(0.456685 0.12934 1.00769e-21)
(0.524681 0.266416 2.20816e-20)
(0.591801 0.364256 -1.02892e-20)
(0.650728 0.423205 -3.03831e-22)
(0.693674 0.460315 -4.6097e-21)
(0.713435 0.499603 -8.34402e-22)
(0.711306 0.545828 5.44685e-21)
(0.705327 0.562793 4.59932e-22)
(0.716559 0.498282 -1.0343e-20)
(0.75593 0.329016 2.1802e-20)
(0.81166 0.0933097 -1.29271e-20)
(0.867799 -0.138585 0)
(0.904795 -0.303746 -9.41457e-21)
(0.917449 -0.390017 8.89406e-21)
(0.908914 -0.414435 -3.75309e-21)
(0.891567 -0.403429 4.71054e-21)
(0.863474 -0.387731 -3.27785e-22)
(0.813214 -0.373141 0)
(0.750351 -0.354592 -2.29238e-22)
(0.699302 -0.275056 7.58715e-22)
(0.690251 -0.15434 0)
(0.720723 0.0124807 2.41322e-21)
(0.770954 0.150887 -9.75878e-22)
(0.810266 0.274058 4.63973e-22)
(0.812274 0.376886 4.4248e-22)
(0.79015 0.419041 0)
(0.755324 0.408803 0)
(0.765738 0.23206 -2.12132e-21)
(0.779472 0.0768564 3.43875e-21)
(0.83863 -0.113757 -1.91305e-21)
(0.852225 -0.205827 5.58023e-22)
(0.845408 -0.266019 7.87502e-22)
(0.815245 -0.376161 2.27488e-22)
(0.804535 -0.248647 -2.17863e-22)
(0.802533 -0.235926 0)
(0.796184 0.023492 -8.17597e-23)
(0.778213 0.202109 -8.16988e-24)
(0.541032 0.118106 1.31194e-19)
(0.585068 0.0883057 -1.30693e-19)
(0.631009 0.0471055 1.06698e-21)
(0.680826 -0.00408724 -1.04132e-21)
(0.731472 -0.065509 1.08186e-21)
(0.780352 -0.138815 -1.06633e-21)
(0.827467 -0.221253 1.98046e-21)
(0.870238 -0.30901 0)
(0.904534 -0.395926 -1.71165e-21)
(0.925568 -0.473107 1.51647e-21)
(0.929181 -0.531138 1.2958e-21)
(0.913878 -0.563687 -1.09925e-21)
(0.881955 -0.569894 0)
(0.838395 -0.55417 0)
(0.788366 -0.523605 4.96865e-22)
(0.736172 -0.484195 0)
(0.684105 -0.441022 -2.66208e-22)
(0.628384 -0.402454 0)
(0.561183 -0.375699 -9.04995e-21)
(0.48393 -0.352754 1.72063e-20)
(0.415748 -0.307392 -1.66016e-20)
(0.381633 -0.215327 8.33132e-21)
(0.391646 -0.0789194 8.90763e-21)
(0.436854 0.0736377 -8.651e-21)
(0.500809 0.212818 -7.85665e-21)
(0.569727 0.319291 7.60635e-21)
(0.633469 0.389888 0)
(0.681921 0.439407 2.20764e-22)
(0.707764 0.489488 0)
(0.713434 0.542934 0)
(0.717545 0.563189 1.57825e-20)
(0.739368 0.499414 -1.61649e-20)
(0.787762 0.329779 1.38934e-21)
(0.849728 0.0922949 1.52864e-21)
(0.907796 -0.140637 -1.44333e-21)
(0.942049 -0.304523 -8.46547e-21)
(0.948804 -0.387414 8.21921e-21)
(0.932599 -0.409584 -5.02741e-21)
(0.908126 -0.396609 4.2662e-21)
(0.877243 -0.376317 6.45603e-22)
(0.827152 -0.356328 -1.86258e-21)
(0.764386 -0.338896 -1.02398e-22)
(0.708889 -0.269779 1.21814e-21)
(0.695634 -0.163563 0)
(0.722253 -0.00580404 -8.34592e-22)
(0.772085 0.133157 1.1665e-21)
(0.81121 0.264113 -1.54998e-21)
(0.814557 0.37745 -4.45314e-22)
(0.796196 0.425478 0)
(0.764473 0.415331 7.78014e-22)
(0.778978 0.233742 -1.40356e-21)
(0.791347 0.0715916 4.78828e-23)
(0.850865 -0.119416 -7.01158e-22)
(0.864327 -0.206577 8.72141e-22)
(0.857378 -0.26053 -8.1419e-22)
(0.82433 -0.371813 0)
(0.810153 -0.24829 2.17961e-22)
(0.808539 -0.235426 0)
(0.797985 0.0251998 0)
(0.779547 0.203611 1.28319e-23)
(0.680121 0.0772817 -1.29058e-19)
(0.721116 0.0495692 1.27655e-19)
(0.766054 0.0114244 -1.00102e-21)
(0.815218 -0.0344332 1.06608e-21)
(0.864078 -0.0917052 0)
(0.911114 -0.159404 0)