/*--------------------------------*- C++ -*----------------------------------*\
| =========                 |                                                 |
| \\      /  F ield         | OpenFOAM: The Open Source CFD Toolbox           |
|  \\    /   O peration     | Version:  2512                                  |
|   \\  /    A nd           | Website:  www.openfoam.com                      |
|    \\/     M anipulation  |                                                 |
\*---------------------------------------------------------------------------*/
FoamFile
{
    version     2.0;
    format      ascii;
    arch        "LSB;label=32;scalar=64";
    class       volVectorField;
    location    "181.25";
    object      U;
}
// * * * * * * * * * * * * * * * * * * * * * * * * * * * * * * * * * * * * * //

dimensions      [0 1 -1 0 0 0 0];

internalField   nonuniform List<vector> 
13248
(
(-0.0139922 0.0120454 7.22386e-20)
(-0.0271235 0.024871 0)
(-0.0261607 0.0309979 -1.36349e-19)
(-0.0109806 0.0332184 1.28443e-19)
(0.0185523 0.0333743 1.19796e-19)
(0.0625234 0.0326991 0)
(0.120864 0.0320411 0)
(0.193162 0.0319853 2.83492e-19)
(0.278466 0.032899 -2.10243e-21)
(0.375128 0.0349529 -2.46361e-19)
(0.480734 0.0381183 2.28065e-19)
(0.592154 0.0421671 -1.42368e-19)
(0.705713 0.0466912 0)
(0.817458 0.0511447 -2.48464e-19)
(0.923475 0.0549072 4.66123e-19)
(1.02022 0.0573588 -1.10489e-19)
(1.10479 0.0579616 -2.03741e-19)
(1.17519 0.0563032 1.9127e-19)
(1.23045 0.0522369 0)
(1.27066 0.0454798 0)
(1.29696 0.0370895 0)
(1.311 0.0241733 0)
(1.31501 0.0157361 6.11056e-20)
(1.31159 -0.0124099 2.25302e-19)
(-0.0146384 0.0114719 -2.18297e-19)
(-0.0236713 0.021699 1.48949e-19)
(-0.0138386 0.0252937 -1.48492e-21)
(0.0140881 0.0253748 -1.96627e-19)
(0.0597178 0.024086 -1.19664e-19)
(0.122609 0.0229078 -1.13193e-19)
(0.201918 0.0228255 -2.06024e-19)
(0.296097 0.0244332 1.95512e-19)
(0.402661 0.0279855 0)
(0.51814 0.0334153 9.45341e-22)
(0.638231 0.040353 2.57465e-21)
(0.758133 0.0481752 1.43686e-19)
(0.873008 0.0560861 0)
(0.978455 0.0632265 0)
(1.07094 0.0687908 1.71853e-19)
(1.14807 0.0721322 -3.22955e-19)
(1.20879 0.0728384 1.96609e-19)
(1.25336 0.0707671 -1.84591e-19)
(1.28314 0.0660245 -8.23785e-20)
(1.30039 0.0589402 -1.53101e-19)
(1.3077 0.0499594 -6.48834e-20)
(1.30786 0.0394543 -1.22844e-19)
(1.30266 0.029375 1.77499e-19)
(1.29579 0.0151028 5.11708e-20)
(-0.0139353 0.0100692 0)
(-0.0159709 0.0171219 0)
(0.00606492 0.0186102 6.95743e-20)
(0.050363 0.0176302 6.38704e-20)
(0.115682 0.0164245 -1.85449e-21)
(0.200546 0.0165788 -1.17885e-19)
(0.302647 0.0190507 0)
(0.418518 0.0242443 -9.70003e-20)
(0.543472 0.0320608 9.1584e-20)
(0.671875 0.0419531 1.32412e-21)
(0.797698 0.0530228 -1.5536e-19)
(0.915216 0.0641688 -1.42741e-19)
(1.01966 0.0742644 2.14487e-21)
(1.10771 0.082329 -1.19618e-19)
(1.17775 0.0876605 2.85724e-19)
(1.22985 0.0899064 0)
(1.26553 0.0890679 -1.89376e-19)
(1.28732 0.0854312 9.17823e-20)
(1.29829 0.0795122 8.23157e-20)
(1.30143 0.0717948 0)
(1.29941 0.0631583 6.87528e-20)
(1.29406 0.0532233 -2.37124e-19)
(1.28669 0.0450974 2.22603e-19)
(1.27885 0.0319134 1.41402e-19)
(-0.0114611 0.0078775 -7.77972e-20)
(-0.00300166 0.0112598 -8.05718e-20)
(0.0348145 0.0111898 7.25429e-20)
(0.0989468 0.010407 0)
(0.186838 0.0110165 0)
(0.295274 0.0144801 -3.09395e-21)
(0.41967 0.0214488 0)
(0.553955 0.0318139 -2.996e-19)
(0.690972 0.0448173 2.78031e-19)
(0.823298 0.0592255 -3.42291e-19)
(0.944231 0.0735748 7.80447e-20)
(1.04866 0.0864435 0)
(1.13358 0.0966891 1.30852e-19)
(1.19824 0.103601 -2.42718e-19)
(1.24386 0.106945 5.76413e-20)
(1.27312 0.10691 1.49995e-19)
(1.28945 0.103982 -5.55217e-21)
(1.29637 0.0988003 -1.676e-19)
(1.29698 0.0920048 0)
(1.29368 0.0841828 0)
(1.28805 0.0757958 -6.11979e-20)
(1.28105 0.067006 5.52034e-20)
(1.27316 0.0592177 2.00545e-19)
(1.26524 0.0481271 -1.88278e-19)
(-0.00684445 0.00510314 -8.25285e-20)
(0.0161164 0.00467545 -8.20792e-20)
(0.0734061 0.00391886 2.30635e-19)
(0.160422 0.00489191 -1.39594e-19)
(0.272635 0.00925816 1.31392e-19)
(0.404249 0.018007 2.37892e-19)
(0.54767 0.0310788 -1.68376e-19)
(0.693983 0.0474724 -2.04671e-19)
(0.834089 0.0655383 4.33788e-21)
(0.960076 0.0833633 2.60341e-19)
(1.06633 0.0991728 0)
(1.15013 0.111648 7.18785e-20)
(1.21151 0.120088 0)
(1.2528 0.124413 -1.17527e-19)
(1.27764 0.125022 1.65253e-19)
(1.29016 0.122604 1.50795e-21)
(1.29422 0.117929 -4.37907e-20)
(1.29292 0.111707 8.24767e-20)
(1.28848 0.104509 7.13858e-20)
(1.28231 0.0967412 -6.43569e-20)
(1.27519 0.0887314 6.11852e-20)
(1.26754 0.0805301 -5.51913e-20)
(1.25956 0.0730309 0)
(1.25169 0.0632273 -4.19724e-20)
(0.000249857 0.00206585 8.25167e-20)
(0.0420801 -0.00172871 8.69134e-20)
(0.122408 -0.00181107 -7.73659e-20)
(0.234553 0.00281971 1.44279e-19)
(0.371192 0.0129639 -1.35794e-19)
(0.523156 0.0286552 1.22594e-19)
(0.679559 0.048662 -5.90472e-20)
(0.829249 0.0708182 1.53712e-19)
(0.962673 0.0926225 -9.6924e-20)
(1.07338 0.11183 1.71316e-19)
(1.15865 0.126879 -3.95447e-19)
(1.21921 0.137063 1.45537e-19)
(1.25831 0.142459 -1.27265e-19)
(1.28051 0.1437 1.19543e-19)
(1.29056 0.141684 1.03683e-19)
(1.29263 0.137332 9.14463e-20)
(1.28989 0.131427 -2.54672e-19)
(1.2845 0.124562 1.58233e-19)
(1.27778 0.117142 -7.13905e-20)
(1.27045 0.10944 1.87224e-19)
(1.26285 0.101631 -6.04558e-20)
(1.25512 0.0938209 -1.48264e-19)
(1.24731 0.0864341 1.37058e-19)
(1.23958 0.0775693 4.19607e-20)
(0.0101151 -0.000839236 0)
(0.0753064 -0.00683604 8.99038e-22)
(0.181736 -0.00434904 1.62959e-19)
(0.319968 0.00607523 -1.52679e-19)
(0.479061 0.023808 -1.37537e-19)
(0.646074 0.0473763 2.55516e-19)
(0.807399 0.0740378 -1.18613e-19)
(0.951234 0.100511 1.57629e-19)
(1.06967 0.123871 -3.53537e-21)
(1.15957 0.142161 -8.92937e-20)
(1.22202 0.154589 1.94282e-19)
(1.26111 0.161372 -2.8709e-19)
(1.28224 0.163384 0)
(1.29085 0.161765 -5.64967e-20)
(1.29151 0.157616 -1.51065e-19)
(1.28759 0.151837 4.74986e-20)
(1.28129 0.145075 1.78401e-21)
(1.27393 0.137757 -1.05369e-19)
(1.26617 0.130152 6.14629e-21)
(1.25834 0.122427 1.2211e-19)
(1.25055 0.114697 -5.49054e-20)
(1.24281 0.107049 -2.09789e-20)
(1.2351 0.0996251 6.432e-20)
(1.22745 0.0914283 0)
(0.0229595 -0.00315754 0)
(0.115801 -0.00942177 4.42632e-20)
(0.250455 -0.0020259 -2.13363e-19)
(0.414019 0.0163092 7.75612e-20)
(0.591404 0.0428671 -7.29954e-20)
(0.766287 0.0742192 -6.67883e-20)
(0.923902 0.106119 -1.1762e-19)
(1.05401 0.134648 5.89092e-20)
(1.15229 0.15717 5.09392e-20)
(1.21979 0.172635 0)
(1.26122 0.181333 1.15825e-19)
(1.2829 0.184388 -1.72614e-19)
(1.29105 0.183228 1.28344e-19)
(1.29082 0.1792 5.65276e-20)
(1.28593 0.173371 -4.65346e-20)
(1.27876 0.166489 -3.90141e-20)
(1.27068 0.159032 -3.65216e-20)
(1.26239 0.151288 1.0897e-19)
(1.25419 0.143425 0)
(1.24618 0.135551 5.5149e-20)
(1.23838 0.127742 4.66871e-20)
(1.23074 0.120064 -1.15643e-19)
(1.22319 0.112523 -7.96754e-20)
(1.21572 0.104773 7.35192e-20)
(0.0388416 -0.00438801 -4.81735e-20)
(0.163036 -0.00825187 -2.02136e-21)
(0.326696 0.00663426 4.35356e-20)
(0.512936 0.0346522 1.21961e-19)
(0.702649 0.0703956 3.54616e-20)
(0.8775 0.108359 -6.85547e-20)
(1.02382 0.143265 6.24484e-20)
(1.13503 0.171358 -5.45465e-20)
(1.21143 0.191006 9.78083e-20)
(1.25806 0.202427 4.15017e-20)
(1.28215 0.206984 -1.18074e-19)
(1.29092 0.206456 3.46893e-20)
(1.29035 0.202522 5.92851e-20)
(1.28471 0.196498 -2.91492e-20)
(1.27669 0.189292 0)
(1.26783 0.181468 4.35522e-20)
(1.25887 0.173354 7.38453e-20)
(1.25015 0.165134 1.2732e-20)
(1.24177 0.156915 -6.16656e-20)
(1.23372 0.148768 2.58467e-20)
(1.22598 0.140749 0)
(1.21845 0.132889 -2.03895e-20)
(1.21108 0.125155 -1.94402e-20)
(1.20376 0.117624 0)
(0.0576069 -0.00400776 0)
(0.215868 -0.00218909 2.52876e-20)
(0.407725 0.0227404 4.68494e-20)
(0.612252 0.061562 -1.24724e-19)
(0.807359 0.105853 4.04089e-20)
(0.974868 0.148399 0)
(1.10451 0.183757 6.03945e-20)
(1.19465 0.209189 -8.43358e-20)
(1.25017 0.224539 -4.89328e-20)
(1.27913 0.231338 2.2024e-20)
(1.28998 0.231783 -3.53462e-20)
(1.2898 0.227998 8.57642e-20)
(1.28369 0.221663 4.2858e-20)
(1.27489 0.213926 -2.98104e-20)
(1.26518 0.205493 -2.81527e-21)
(1.25547 0.19676 -8.16009e-20)
(1.24611 0.187942 3.71643e-20)
(1.23723 0.179154 -9.55944e-22)
(1.22883 0.170466 0)
(1.22086 0.161927 -2.58739e-20)
(1.21324 0.153573 0)
(1.2059 0.145405 5.87155e-20)
(1.19875 0.13743 -6.99103e-20)
(1.19165 0.129922 3.18897e-20)
(0.0788432 -0.00151026 -1.32922e-20)
(0.272552 0.0097001 -6.39829e-20)
(0.490159 0.0469131 7.29145e-20)
(0.707358 0.0968037 4.27796e-20)
(0.900972 0.148094 -2.04049e-20)
(1.05543 0.192723 3.42479e-20)
(1.16553 0.226104 -1.66236e-20)
(1.23491 0.247176 2.75713e-20)
(1.27218 0.257417 0)
(1.28718 0.259468 6.22856e-20)
(1.28848 0.256046 -2.62444e-21)
(1.28239 0.249346 -5.01717e-20)
(1.27294 0.240885 2.14509e-20)
(1.26238 0.23159 -2.41852e-20)
(1.25182 0.221972 -9.18944e-21)
(1.24173 0.212296 1.06313e-20)
(1.23225 0.202697 -8.20175e-21)
(1.22338 0.193245 -4.4543e-20)
(1.21508 0.183988 2.72926e-20)
(1.20727 0.174958 5.5877e-21)
(1.19986 0.166169 4.92369e-21)
(1.19275 0.157611 4.3408e-21)
(1.18585 0.149355 0)
(1.17899 0.141663 0)
(0.101946 0.00356012 1.33014e-20)
(0.330968 0.0280637 -1.33e-20)
(0.57046 0.0792222 -2.43249e-20)
(0.794177 0.139531 0)
(0.980286 0.195623 -1.01497e-20)
(1.11795 0.239774 -9.15699e-21)
(1.20784 0.26917 -1.56111e-20)
(1.25833 0.284768 0)
(1.2806 0.289566 0)
(1.28512 0.287008 0)
(1.27988 0.280021 0)
(1.27009 0.270676 0)
(1.25875 0.260252 -1.34924e-20)
(1.24731 0.249448 6.14524e-21)
(1.23642 0.238617 1.06606e-20)
(1.22626 0.227926 4.98137e-21)
(1.21685 0.217454 1.23198e-20)
(1.20815 0.207244 0)
(1.20008 0.197324 -2.95178e-21)
(1.19255 0.187713 -2.82531e-21)
(1.18545 0.178407 -4.93155e-21)
(1.17868 0.169401 -4.34775e-21)
(1.17212 0.160828 0)
(1.16562 0.15279 3.11761e-21)
(-0.00181642 0.0163952 8.85318e-21)
(-0.00786678 0.0495117 -9.16731e-21)
(-0.0180003 0.0813612 -1.73251e-20)
(-0.0303333 0.110309 0)
(-0.043808 0.135573 -2.31517e-20)
(-0.0578169 0.157249 7.29379e-21)
(-0.0718412 0.176028 -1.3677e-20)
(-0.0854242 0.192843 0)
(-0.0981835 0.208577 0)
(-0.109806 0.223874 0)
(-0.120035 0.23907 0)
(-0.128658 0.254201 0)
(-0.135485 0.269055 8.6777e-23)
(-0.140335 0.283234 -9.18728e-21)
(-0.143023 0.296197 1.74476e-20)
(-0.14336 0.307294 2.49486e-20)
(-0.141154 0.315792 7.98467e-21)
(-0.136218 0.320894 0)
(-0.128389 0.321776 7.23708e-21)
(-0.117551 0.317634 -2.0689e-20)
(-0.103632 0.307745 -1.33554e-20)
(-0.0865778 0.291545 -1.28486e-20)
(-0.066358 0.268688 0)
(-0.0433576 0.239422 0)
(-0.00266145 0.0194509 -2.65303e-20)
(-0.00932094 0.0568307 4.57137e-20)
(-0.0183704 0.0917977 -1.71338e-20)
(-0.0286371 0.123053 -3.24997e-20)
(-0.0394254 0.149944 4.59905e-20)
(-0.0503034 0.172595 -2.88398e-20)
(-0.0608729 0.191703 4.07969e-20)
(-0.0707472 0.208217 2.54249e-20)
(-0.0795619 0.223066 0)
(-0.0869815 0.23696 -2.30194e-20)
(-0.0927033 0.250304 -2.46832e-22)
(-0.0964573 0.263193 2.03225e-20)
(-0.0979994 0.275453 2.8831e-20)
(-0.0971032 0.286705 3.6782e-20)
(-0.0935579 0.296421 -1.69381e-20)
(-0.0871669 0.303959 -4.94646e-20)
(-0.0777523 0.308604 1.62104e-20)
(-0.0651622 0.309598 -6.04816e-20)
(-0.0492875 0.306173 0)
(-0.0301036 0.297595 1.38711e-20)
(-0.00766181 0.28322 1.33316e-20)
(0.0179642 0.262589 1.28253e-20)
(0.0468672 0.235556 0)
(0.0792128 0.202795 0)
(-0.00366201 0.020816 0)
(-0.0111692 0.0603385 9.06923e-20)
(-0.0192544 0.0971628 -3.42077e-20)
(-0.027393 0.130018 3.22977e-20)
(-0.0352227 0.158201 -9.07931e-20)
(-0.042483 0.181736 0)
(-0.0489134 0.201208 -5.36514e-20)
(-0.0542287 0.217493 2.50634e-20)
(-0.0581205 0.231498 -4.72465e-20)
(-0.0602689 0.243966 2.19667e-20)
(-0.0603575 0.255364 1.27146e-19)
(-0.0580867 0.265865 -5.97504e-20)
(-0.0531826 0.275367 -9.56596e-20)
(-0.0453924 0.283558 -3.69033e-20)
(-0.0345005 0.28996 -1.14836e-21)
(-0.0203326 0.29399 1.31984e-19)
(-0.00275084 0.294997 -6.25764e-20)
(0.0183278 0.292303 3.48447e-23)
(0.0429215 0.285232 0)
(0.0709618 0.273144 -5.68284e-20)
(0.102288 0.255493 0)
(0.13666 0.231865 -5.51257e-20)
(0.173985 0.202153 2.07236e-19)
(0.21612 0.166785 3.17778e-21)
(-0.00460745 0.0206324 0)
(-0.0130727 0.0601992 -1.65948e-22)
(-0.0204762 0.0974552 3.38791e-20)
(-0.0267358 0.130948 -3.17608e-20)
(-0.0317186 0.159819 3.02714e-20)
(-0.0352947 0.183908 1.68905e-19)
(-0.0373337 0.203615 -5.30187e-20)
(-0.0376708 0.219661 -4.94814e-20)
(-0.0360917 0.232867 9.37431e-20)
(-0.0323402 0.243954 -1.33099e-19)
(-0.0261354 0.25343 4.12161e-20)
(-0.0171941 0.261541 3.91307e-20)
(-0.00524958 0.268281 0)
(0.00993543 0.273431 3.58839e-20)
(0.0285544 0.27661 0)
(0.0507464 0.277331 6.46012e-20)
(0.0765911 0.275044 -1.26999e-19)
(0.106099 0.269178 2.68468e-20)
(0.139205 0.25917 1.15169e-19)
(0.17577 0.244498 5.67563e-20)
(0.21556 0.224717 0)
(0.258448 0.199424 -1.62384e-19)
(0.303145 0.16856 5.0583e-20)
(0.356278 0.131832 0)
(-0.00536191 0.0192647 0)
(-0.0147956 0.0570556 -1.07761e-19)
(-0.0219153 0.0932731 -3.35757e-20)
(-0.0267896 0.12622 -6.33004e-20)
(-0.0293711 0.15487 5.96003e-20)
(-0.0295956 0.178874 -5.60769e-20)
(-0.0274327 0.198417 1.04563e-19)
(-0.0228373 0.214028 4.93294e-20)
(-0.0157146 0.226385 -1.38851e-19)
(-0.00591458 0.236138 8.70517e-20)
(0.00675554 0.243793 -1.23448e-19)
(0.0225091 0.249646 2.70519e-19)
(0.0415563 0.253779 -1.46265e-19)
(0.0640828 0.25608 6.91015e-20)
(0.0902327 0.256284 2.008e-19)
(0.120095 0.254024 -6.16884e-20)
(0.1537 0.248868 -5.75752e-20)
(0.191012 0.24036 -5.84514e-20)
(0.231934 0.228047 0)
(0.276358 0.211491 -1.13536e-19)
(0.323902 0.19033 -1.14133e-19)
(0.375384 0.164186 1.5514e-19)
(0.426404 0.133129 2.08903e-19)
(0.49254 0.095787 -1.94707e-19)
(-0.0059069 0.0172128 0)
(-0.0162836 0.0518839 -1.42701e-19)
(-0.0235597 0.0856936 6.15144e-22)
(-0.0276627 0.116789 1.26202e-19)
(-0.0284884 0.144058 0)
(-0.0259723 0.167022 0)
(-0.0201436 0.185686 0)
(-0.0110582 0.200389 -4.86334e-20)
(0.00125633 0.211645 1.43526e-22)
(0.0168228 0.219999 8.53007e-20)
(0.0357134 0.22591 -1.22099e-19)
(0.0580354 0.229691 -3.23721e-22)
(0.0839105 0.231485 0)
(0.113455 0.231273 -6.90661e-20)
(0.146764 0.228902 6.56285e-20)
(0.183902 0.22412 -1.85044e-19)
(0.224898 0.216608 2.41532e-19)
(0.269759 0.20601 6.23099e-20)
(0.318421 0.191958 7.12033e-21)
(0.371019 0.174117 -2.13829e-19)
(0.42676 0.152107 -1.03886e-19)
(0.48869 0.125727 3.61037e-19)
(0.546636 0.0949534 -2.42742e-19)
(0.629165 0.0573823 0)
(-0.00634774 0.0150178 6.92107e-20)
(-0.017676 0.0458144 7.13344e-20)
(-0.0255015 0.0760945 -6.66317e-20)
(-0.0293932 0.104069 -1.24692e-19)
(-0.0290924 0.12869 1.17399e-19)
(-0.0244902 0.149458 -1.08917e-19)
(-0.0156377 0.166276 1.5322e-19)
(-0.00265951 0.179336 -4.8461e-20)
(0.0143184 0.189008 8.94517e-20)
(0.0352075 0.19572 0)
(0.0599715 0.199862 7.79324e-20)
(0.0886251 0.201731 -1.46105e-19)
(0.121223 0.201499 1.40766e-19)
(0.157849 0.19921 -1.32202e-19)
(0.198611 0.194786 0)
(0.24362 0.188074 1.21338e-19)
(0.292988 0.17884 2.34606e-19)
(0.346848 0.166819 -2.21787e-19)
(0.405241 0.151694 -1.07098e-19)
(0.46864 0.133268 -1.10452e-19)
(0.53524 0.11091 3.04796e-19)
(0.610806 0.0850957 1.00116e-19)
(0.677227 0.0549369 -9.08204e-20)
(0.778517 0.0189495 8.90863e-20)
(-0.00688196 0.0131601 -6.92204e-20)
(-0.0192359 0.0399141 2.12297e-19)
(-0.0278349 0.065905 -6.66927e-20)
(-0.0318051 0.0897071 1.23953e-19)
(-0.0307037 0.110523 -1.16704e-19)
(-0.0243627 0.127959 1.45438e-22)
(-0.0128236 0.141912 5.06928e-20)
(0.00376736 0.152505 1.8633e-19)
(0.0252438 0.160006 -1.14544e-21)
(0.0514725 0.164747 -8.3154e-20)
(0.0823826 0.16705 0)
(0.117977 0.167174 -7.18801e-20)
(0.158331 0.165294 1.3627e-19)
(0.203569 0.161477 1.30446e-19)
(0.253874 0.155704 -6.14815e-20)
(0.309451 0.147874 -1.50206e-21)
(0.37047 0.137808 -5.74707e-20)
(0.437039 0.125298 1.07767e-19)
(0.508958 0.11003 1.07088e-19)
(0.586617 0.0920621 -1.03647e-19)
(0.6669 0.0703671 9.68273e-20)
(0.756897 0.0468415 -9.30539e-20)
(0.832146 0.0182676 0)
(0.947155 -0.0120826 -8.907e-20)
(-0.00772642 0.0119623 6.88926e-20)
(-0.0211951 0.0349761 -7.0854e-20)
(-0.0304612 0.0563382 6.63832e-20)
(-0.0342812 0.0753018 0)
(-0.0320651 0.0914959 0)
(-0.0235898 0.104753 1.06553e-19)
(-0.00885135 0.115067 -1.00727e-19)
(0.0120519 0.122569 9.16983e-20)
(0.0390064 0.127487 -4.3326e-19)
(0.0719399 0.130095 3.77302e-22)
(0.110851 0.130661 7.52307e-20)
(0.155816 0.12941 0)
(0.20697 0.126496 -1.34482e-19)
(0.264472 0.121994 2.53959e-19)
(0.328439 0.115892 -1.80895e-19)
(0.398864 0.108092 -2.91412e-19)
(0.475565 0.0984443 -5.05923e-21)
(0.558103 0.0867921 2.07459e-19)
(0.645494 0.0728579 0)
(0.737066 0.0569214 0)
(0.82884 0.0376758 -9.68307e-20)
(0.925695 0.0182604 9.30574e-20)
(1.00442 -0.00744898 -3.49373e-19)
(1.11413 -0.0294559 3.27142e-19)
(-0.00901471 0.0115141 0)
(-0.0235546 0.0313555 0)
(-0.0328652 0.0481592 -1.98752e-19)
(-0.0355485 0.062107 6.33784e-20)
(-0.0309486 0.0733838 1.35396e-21)
(-0.0187915 0.082143 1.08067e-19)
(0.00101702 0.0885569 0)
(0.0285015 0.092837 -9.25795e-20)
(0.063682 0.0952299 8.63811e-20)
(0.106605 0.0959929 -1.59372e-19)
(0.157341 0.0953636 1.34103e-22)
(0.215944 0.0935313 1.40618e-19)
(0.282385 0.0906155 6.74355e-22)
(0.356476 0.0866553 1.27068e-19)
(0.437769 0.0815988 -1.77176e-19)
(0.525469 0.0753304 0)
(0.618382 0.0676857 2.19083e-19)
(0.714886 0.0584781 -3.1078e-19)
(0.812868 0.0474805 9.79687e-20)
(0.910129 0.0348039 0)
(1.00293 0.0195191 8.87722e-20)
(1.09184 0.00436648 3.48205e-19)
(1.16264 -0.0172476 -3.26795e-19)
(1.24444 -0.0316208 -3.79431e-19)
(-0.0106993 0.0116451 2.07422e-19)
(-0.0259241 0.0288976 -2.8489e-19)
(-0.0339973 0.0415447 1.00679e-21)
(-0.0336638 0.0507982 6.30637e-20)
(-0.0243055 0.0574516 -1.16499e-19)
(-0.00560671 0.0620339 -1.07614e-19)
(0.0226322 0.0649486 1.9845e-19)
(0.0605603 0.066534 -2.75642e-21)
(0.108278 0.0670946 -1.73142e-19)
(0.165797 0.0668959 3.19975e-19)
(0.232975 0.066148 -7.85422e-22)
(0.309413 0.0649851 -1.40189e-19)
(0.394365 0.0634492 0)
(0.486657 0.0614827 0)
(0.584648 0.0589309 -5.91983e-20)
(0.686231 0.0555592 -1.11294e-19)
(0.788903 0.0510915 -2.14538e-19)
(0.889851 0.0451929 2.01374e-19)
(0.986159 0.0376832 -9.80182e-20)
(1.07491 0.0281682 1.83618e-19)
(1.15343 0.0168075 -8.7823e-20)
(1.22019 0.00392059 1.63539e-19)
(1.27057 -0.0131788 -3.79616e-19)
(1.31464 -0.0245063 7.41256e-20)
(-0.0125052 0.0119726 6.97426e-20)
(-0.0274846 0.0270039 0)
(-0.03235 0.0360939 1.34365e-19)
(-0.0262813 0.0413794 -1.26577e-19)
(-0.00882773 0.0442292 1.16607e-19)
(0.0203097 0.0455549 0)
(0.0613441 0.045995 0)
(0.114361 0.0460266 -9.2505e-20)
(0.179231 0.0460125 2.02237e-21)
(0.255476 0.0462073 8.16753e-20)
(0.342151 0.0467508 -7.50461e-20)
(0.437754 0.047654 1.40904e-19)
(0.540194 0.0487919 0)
(0.646842 0.0499094 2.49076e-19)
(0.75464 0.0506438 -4.68966e-19)
(0.860288 0.0505594 3.32095e-19)
(0.960459 0.0492134 2.09582e-19)
(1.05203 0.0461421 -1.96736e-19)
(1.13236 0.0411636 0)
(1.19938 0.0336184 0)
(1.25216 0.0246195 0)
(1.2904 0.011673 0)
(1.31506 -0.000721245 7.35015e-20)
(1.32969 -0.0159388 -2.59622e-19)
(-0.0151229 0.199534 -8.4404e-21)
(0.0196066 0.139629 8.50132e-21)
(0.0570096 0.0658906 -2.75262e-22)
(0.0969954 -0.0195409 0)
(0.138907 -0.114479 -7.78984e-21)
(0.181976 -0.214654 1.47946e-20)
(0.225173 -0.315501 -4.98189e-22)
(0.267192 -0.410087 -6.34036e-21)
(0.306309 -0.491044 0)
(0.340127 -0.552219 0)
(0.365827 -0.590921 -2.32618e-22)
(0.380156 -0.609607 -1.89943e-22)
(0.37972 -0.615657 -2.56304e-21)
(0.363694 -0.616464 2.33857e-21)
(0.338628 -0.610404 0)
(0.31955 -0.582209 0)
(0.323009 -0.51078 2.24085e-21)
(0.356299 -0.384961 2.16541e-22)
(0.4139 -0.212376 -2.18703e-21)
(0.484608 -0.0150022 -1.40135e-22)
(0.558041 0.178086 0)
(0.625623 0.336736 0)
(0.680765 0.443268 0)
(0.719258 0.498838 0)
(0.741596 0.516138 0)
(0.752126 0.510352 0)
(0.751116 0.501938 2.92332e-22)
(0.732441 0.509294 -4.74039e-22)
(0.69619 0.525757 0)
(0.659205 0.507649 0)
(0.644915 0.407714 -6.17571e-22)
(0.662416 0.222239 6.00201e-22)
(0.70381 -0.00111185 3.37119e-22)
(0.752207 -0.198703 0)
(0.794947 -0.335203 0)
(0.824271 -0.401359 3.21805e-22)
(0.842908 -0.423841 -3.12809e-22)
(0.842534 -0.430292 0)
(0.816244 -0.44799 2.15441e-22)
(0.768024 -0.447701 -3.11829e-22)
(0.723711 -0.389102 1.1466e-22)
(0.706542 -0.250428 0)
(0.723222 -0.0559809 -2.6527e-22)
(0.758686 0.115146 2.57943e-22)
(0.805045 0.253483 0)
(0.830832 0.318115 0)
(0.82593 0.383479 -6.90539e-23)
(0.788222 0.3963 2.00525e-22)
(0.753152 0.359847 0)
(0.744398 0.242753 0)
(0.775246 0.0477891 -6.65394e-23)
(0.806304 -0.0713785 -6.77319e-24)
(0.831245 -0.246361 -8.02626e-24)
(0.809207 -0.293365 4.0036e-23)
(0.797613 -0.362091 0)
(0.789005 -0.318484 0)
(0.802223 -0.127023 0)
(0.796908 -0.0607706 0)
(0.806374 0.248137 0)
(0.785804 0.254507 0)
(0.115995 0.161079 -8.63583e-22)
(0.155076 0.0996619 -3.72899e-20)
(0.19515 0.0243839 -1.27827e-22)
(0.2369 -0.0621974 3.50897e-20)
(0.279183 -0.157318 5.46865e-22)
(0.321 -0.257592 0)
(0.361459 -0.357744 -2.76002e-20)
(0.399087 -0.450383 5.18014e-20)
(0.431658 -0.52741 -2.41858e-20)
(0.456665 -0.582149 1.71453e-20)
(0.472056 -0.611561 -1.64325e-20)
(0.476286 -0.617748 1.10912e-20)
(0.467153 -0.6087 -1.08095e-20)
(0.441877 -0.595757 -2.53093e-22)
(0.40191 -0.584559 -7.33786e-21)
(0.35849 -0.565188 7.13177e-21)
(0.330304 -0.514163 -7.56032e-21)
(0.332544 -0.411068 7.13122e-21)
(0.367136 -0.255124 -8.48146e-21)
(0.425358 -0.0662174 1.63657e-20)
(0.495362 0.125554 -7.88975e-21)
(0.566154 0.290002 -3.86617e-22)
(0.629031 0.407424 -5.0361e-21)
(0.677832 0.475442 8.97573e-21)
(0.711635 0.503292 -3.96666e-21)
(0.732793 0.506069 1.93323e-22)
(0.739374 0.506666 3.25264e-21)
(0.726094 0.522997 4.23486e-22)
(0.69662 0.543504 -7.21291e-21)
(0.670208 0.520657 8.4763e-21)
(0.667746 0.409384 -4.54034e-21)
(0.694393 0.212074 7.26805e-22)
(0.740493 -0.0193501 -3.37792e-22)
(0.788565 -0.218142 6.35082e-22)
(0.826691 -0.350534 0)
(0.84777 -0.410909 0)
(0.858079 -0.426827 -1.04823e-21)
(0.851652 -0.424765 7.90281e-22)
(0.822523 -0.43389 6.09176e-22)
(0.77043 -0.430444 1.5654e-22)
(0.720342 -0.377487 -9.27514e-22)
(0.697071 -0.25001 2.26324e-22)
(0.71061 -0.0657403 0)
(0.747824 0.100297 0)
(0.796344 0.241009 0)
(0.825353 0.314118 0)
(0.820936 0.388935 2.74691e-22)
(0.786501 0.406164 -1.33497e-22)
(0.753814 0.365985 0)
(0.747669 0.240995 0)
(0.780629 0.0400306 0)
(0.812017 -0.0779948 -1.23066e-22)
(0.839967 -0.246629 1.21516e-23)
(0.815461 -0.289775 -8.78422e-23)
(0.803868 -0.359639 0)
(0.792516 -0.318819 0)
(0.802365 -0.128043 4.70553e-23)
(0.795459 -0.0608844 1.20273e-22)
(0.801628 0.249453 0)
(0.783284 0.2557 0)
(0.256245 0.124224 3.45062e-21)
(0.29785 0.0624414 -7.60709e-20)
(0.339473 -0.0122311 7.80354e-20)
(0.382354 -0.097421 -7.29609e-20)
(0.424834 -0.190978 -5.50482e-22)
(0.465638 -0.289596 0)
(0.503619 -0.387675 -5.9266e-20)
(0.536751 -0.477312 5.80099e-20)
(0.562192 -0.549908 3.5729e-22)
(0.577326 -0.598633 6.02437e-22)
(0.580809 -0.620709 4.83344e-22)
(0.572807 -0.618196 3.84671e-22)
(0.553734 -0.597974 -1.7849e-20)
(0.521791 -0.571684 1.76026e-20)
(0.474372 -0.550569 0)
(0.41589 -0.533338 3.4398e-22)
(0.362231 -0.499942 -1.22352e-20)
(0.333644 -0.423268 1.21075e-20)
(0.341213 -0.291222 0)
(0.381477 -0.117098 0)
(0.443401 0.0691199 -1.26201e-20)
(0.514051 0.236965 2.32095e-20)
(0.582073 0.364277 -1.90486e-20)
(0.639659 0.444767 1.45316e-21)
(0.684167 0.484127 1.328e-20)
(0.715404 0.497072 -1.25008e-20)
(0.729513 0.507857 1.18581e-20)
(0.722485 0.533136 4.71442e-22)
(0.701089 0.55727 -6.79375e-21)
(0.685788 0.530542 0)
(0.694884 0.410253 0)
(0.730206 0.204007 4.59379e-21)
(0.780245 -0.0332778 -5.91965e-21)
(0.827214 -0.232611 3.06477e-23)
(0.86027 -0.361069 3.67806e-21)
(0.873065 -0.41647 -3.57437e-21)
(0.874935 -0.427201 0)
(0.862504 -0.417968 2.2957e-22)
(0.83115 -0.419101 1.68789e-21)
(0.776246 -0.412612 -3.28007e-21)
(0.721156 -0.365537 1.45153e-21)
(0.691824 -0.250116 1.64193e-22)
(0.701815 -0.0769719 -2.04891e-21)
(0.74009 0.0835956 1.60632e-21)
(0.789968 0.227065 3.1498e-22)
(0.821797 0.309077 2.81379e-22)
(0.818034 0.393527 -2.75401e-22)
(0.787288 0.415505 0)
(0.757376 0.372041 0)
(0.75378 0.239796 -1.41973e-21)
(0.788366 0.0329372 6.74404e-22)
(0.819561 -0.0843438 -6.07119e-22)
(0.850262 -0.246525 7.27804e-22)
(0.823075 -0.285763 6.956e-22)
(0.810971 -0.356741 -1.61754e-22)
(0.7968 -0.318969 2.15179e-22)
(0.803629 -0.128741 -1.7129e-22)
(0.795229 -0.0607657 4.83713e-23)
(0.797993 0.250709 0)
(0.781748 0.256806 0)
(0.396396 0.0897834 -1.58321e-19)
(0.439348 0.0280656 -2.99941e-21)
(0.482633 -0.0446078 1.53678e-19)
(0.526964 -0.127108 -1.19009e-21)
(0.570154 -0.217868 0)
(0.61059 -0.313705 0)
(0.646555 -0.40859 -1.21203e-19)
(0.675213 -0.494084 1.15591e-20)
(0.693137 -0.561294 1.46083e-19)
(0.697863 -0.603528 -7.59138e-21)
(0.688897 -0.618743 -3.51069e-20)
(0.667726 -0.609869 -2.12228e-20)
(0.637099 -0.582922 2.13594e-20)
(0.59833 -0.546946 0)
(0.548399 -0.514201 -1.11644e-20)
(0.484733 -0.491679 1.02117e-20)
(0.415374 -0.468578 0)
(0.360189 -0.417616 0)
(0.338628 -0.315556 1.03264e-20)
(0.356035 -0.163822 3.1587e-22)
(0.40487 0.012003 -9.69703e-21)
(0.471078 0.179513 -8.94311e-21)
(0.541005 0.314824 8.80707e-21)
(0.605372 0.4072 -6.48496e-21)
(0.659277 0.458654 5.58992e-22)
(0.699664 0.482949 5.55305e-21)
(0.721116 0.504509 7.10512e-22)
(0.721013 0.538371 1.39256e-23)
(0.708541 0.566012 0)
(0.704441 0.536921 1.03587e-20)
(0.724754 0.410937 -1.07668e-20)
(0.768247 0.1985 7.74246e-22)
(0.821899 -0.0428018 0)
(0.867421 -0.242429 -6.73477e-22)
(0.895241 -0.367426 7.62558e-21)
(0.899952 -0.418504 -1.22323e-20)
(0.89339 -0.425267 6.86466e-22)
(0.87487 -0.410357 8.0736e-22)
(0.841668 -0.404151 2.82881e-21)
(0.785137 -0.394297 3.38564e-22)
(0.726117 -0.352817 -2.81758e-21)
(0.690938 -0.250212 2.3449e-21)
(0.696865 -0.0891734 6.05575e-23)
(0.735379 0.0653693 1.28407e-21)
(0.785795 0.211769 -1.56449e-21)
(0.82009 0.302882 -1.88756e-21)
(0.817219 0.397035 5.38482e-22)
(0.790553 0.424153 1.25836e-21)
(0.763856 0.37804 -2.66788e-21)
(0.762798 0.239394 2.13282e-21)
(0.798458 0.0266344 -6.20941e-22)
(0.828824 -0.0903792 7.97278e-22)
(0.861988 -0.246105 6.23866e-22)
(0.831986 -0.281306 -1.06844e-21)
(0.818862 -0.353329 3.72728e-23)
(0.801743 -0.318914 -1.75716e-22)
(0.805927 -0.129159 0)
(0.796156 -0.0604354 -8.27949e-23)
(0.79543 0.251917 1.04823e-22)
(0.781194 0.257837 0)
(0.531613 0.0556079 1.57908e-19)
(0.576072 -0.00382166 -3.1399e-19)
(0.622202 -0.0734904 1.53534e-19)
(0.668343 -0.15238 1.52462e-19)
(0.712468 -0.239026 -2.94193e-19)
(0.752421 -0.330342 7.79788e-21)
(0.785801 -0.419902 1.31302e-19)
(0.808958 -0.49917 1.04596e-19)
(0.818177 -0.559625 -1.02405e-19)
(0.811639 -0.595221 0)
(0.79019 -0.604616 -5.61623e-20)
(0.756661 -0.591439 9.79167e-20)
(0.714866 -0.56176 -4.21307e-20)
(0.668392 -0.521992 0)
(0.616982 -0.481067 0)
(0.555368 -0.449369 2.94362e-22)
(0.482103 -0.426994 -1.44467e-20)
(0.409704 -0.394562 1.40362e-20)
(0.360913 -0.323625 0)
(0.351753 -0.201313 1.56549e-20)
(0.381737 -0.0429733 -2.95835e-20)
(0.43852 0.119501 2.75228e-20)
(0.506971 0.26007 -2.4745e-20)
(0.575505 0.363048 9.56364e-22)
(0.63682 0.426674 1.99529e-20)
(0.68504 0.463059 -9.77477e-21)
(0.713481 0.495628 -3.46471e-22)
(0.720757 0.53774 -6.4563e-21)
(0.717677 0.569194 -1.80564e-21)
(0.724632 0.539906 8.21431e-21)
(0.755456 0.411662 7.11443e-22)
(0.806658 0.196106 -1.31624e-20)
(0.864125 -0.0475991 2.51227e-20)
(0.908311 -0.247338 -1.34099e-20)
(0.930911 -0.369399 0)
(0.927903 -0.416889 -6.52334e-21)
(0.913152 -0.420907 6.13991e-21)
(0.888594 -0.401966 -2.71974e-21)
(0.853803 -0.389419 3.41023e-21)
(0.796739 -0.376019 -2.71388e-22)
(0.734997 -0.339505 0)
(0.694369 -0.249966 -2.80779e-22)
(0.695649 -0.101942 9.08366e-22)
(0.733478 0.0459178 0)
(0.783629 0.19516 2.55558e-21)
(0.820079 0.295339 -1.01756e-21)
(0.818397 0.399189 5.20409e-22)
(0.79617 0.431922 5.85313e-22)
(0.77315 0.383981 0)
(0.774603 0.239901 0)
(0.810836 0.0212066 -2.23161e-21)
(0.839735 -0.0960313 3.32492e-21)
(0.87498 -0.24534 -1.7103e-21)
(0.842122 -0.27633 4.63725e-22)
(0.827495 -0.349317 6.40519e-22)
(0.807233 -0.318661 1.75881e-22)
(0.809156 -0.129353 -2.03491e-22)
(0.798161 -0.0599034 0)
(0.793889 0.25309 -1.67809e-22)
(0.781613 0.258803 -1.99363e-23)
(0.667425 0.0198189 1.55407e-19)
(0.712224 -0.0352173 -1.54902e-19)
(0.759992 -0.100911 1.22271e-21)
(0.807641 -0.174555 -1.14454e-21)
(0.851572 -0.255305 1.15231e-21)
(0.889237 -0.339925 -1.08108e-21)
(0.917814 -0.421721 1.88593e-21)
(0.933214 -0.492695 0)
(0.932044 -0.545313 -1.4313e-21)
(0.913576 -0.57458 1.18632e-21)
(0.880087 -0.57979 9.53115e-22)
(0.83579 -0.564517 -7.6167e-22)
(0.78509 -0.534667 0)
(0.731866 -0.495516 0)
(0.678185 -0.452038 3.09711e-22)
(0.620716 -0.412434 0)
(0.552678 -0.383749 -1.64075e-22)
(0.475631 -0.358824 0)
(0.407066 -0.313449 -9.36061e-21)
(0.370234 -0.224366 1.88397e-20)
(0.376081 -0.0915393 -1.92203e-20)
(0.418218 0.0597746 9.54476e-21)
(0.481018 0.201507 8.22637e-21)
(0.550442 0.312919 -7.98881e-21)
(0.616579 0.388255 -8.11841e-21)
(0.670963 0.43705 7.90163e-21)
(0.705845 0.48064 0)
(0.72066 0.530708 3.3078e-22)
(0.727104 0.566624 0)
(0.744636 0.539585 0)
(0.785058 0.412545 2.34217e-20)
(0.843648 0.197027 -2.40867e-20)
(0.905457 -0.0476841 1.63513e-21)
(0.948951 -0.2474 1.44329e-21)
(0.966632 -0.367176 -1.13268e-21)
(0.956436 -0.411856 -5.76265e-21)
(0.933913 -0.414225 5.59551e-21)
(0.903432 -0.392888 -3.46922e-21)
(0.867165 -0.375164 2.94669e-21)
(0.810506 -0.358113 5.1758e-22)
(0.747316 -0.32568 -2.03912e-21)
(0.701862 -0.249028 -2.99389e-22)
(0.697925 -0.114791 1.46258e-21)
(0.734104 0.0255542 0)
(0.783213 0.177231 -9.05179e-22)
(0.821548 0.286226 1.42476e-21)
(0.821388 0.399707 -1.84557e-21)
(0.803905 0.438615 -5.89064e-22)
(0.785009 0.389803 0)
(0.788981 0.241385 8.42077e-22)
(0.825384 0.0168108 -1.68161e-21)
(0.85217 -0.101179 3.03933e-23)
(0.889036 -0.244216 -5.64719e-22)
(0.853394 -0.270793 6.57465e-22)
(0.836835 -0.344608 -6.37076e-22)
(0.813165 -0.318196 0)
(0.813208 -0.129382 2.03585e-22)
(0.801154 -0.0591725 0)
(0.793311 0.254234 0)
(0.782992 0.259706 3.027e-23)
(0.814274 -0.0148772 -1.50136e-19)
(0.856161 -0.0660725 1.48609e-19)
(0.901657 -0.126051 -1.11948e-21)
(0.946954 -0.192333 1.17173e-21)
(0.986549 -0.26519 0)