/*--------------------------------*- C++ -*----------------------------------*\
| =========                 |                                                 |
| \\      /  F ield         | OpenFOAM: The Open Source CFD Toolbox           |
|  \\    /   O peration     | Version:  2512                                  |
|   \\  /    A nd           | Website:  www.openfoam.com                      |
|    \\/     M anipulation  |                                                 |
\*---------------------------------------------------------------------------*/
FoamFile
{
    version     2.0;
    format      ascii;
    arch        "LSB;label=32;scalar=64";
    class       volScalarField;
    location    "122";
    object      p;
}
// * * * * * * * * * * * * * * * * * * * * * * * * * * * * * * * * * * * * * //

dimensions      [0 2 -2 0 0 0 0];

internalField   nonuniform List<scalar> 
13248
(
-0.323626
-0.322503
-0.320128
-0.316766
-0.312702
-0.308186
-0.303454
-0.298753
-0.2943
-0.290277
-0.286811
-0.28396
-0.281708
-0.279967
-0.278579
-0.27734
-0.276019
-0.274388
-0.272233
-0.269414
-0.265689
-0.261138
-0.254739
-0.247219
-0.331607
-0.329636
-0.326618
-0.322779
-0.318358
-0.313591
-0.308682
-0.303814
-0.299132
-0.294737
-0.290678
-0.286944
-0.283469
-0.280142
-0.276821
-0.273355
-0.269602
-0.265442
-0.260782
-0.255548
-0.24965
-0.24304
-0.235412
-0.227478
-0.341653
-0.338595
-0.334753
-0.330306
-0.325423
-0.320303
-0.315092
-0.309883
-0.304725
-0.299633
-0.294587
-0.289542
-0.284439
-0.27921
-0.273795
-0.268145
-0.26223
-0.256032
-0.249533
-0.242719
-0.235523
-0.227963
-0.219824
-0.211664
-0.353668
-0.349327
-0.344515
-0.339344
-0.333876
-0.32825
-0.322521
-0.31667
-0.310649
-0.304407
-0.297908
-0.291138
-0.284111
-0.276856
-0.26942
-0.261852
-0.254192
-0.246468
-0.238685
-0.230827
-0.222858
-0.214787
-0.20648
-0.198477
-0.367586
-0.361819
-0.355934
-0.34994
-0.343748
-0.337396
-0.330822
-0.3239
-0.316517
-0.308624
-0.300245
-0.291466
-0.282411
-0.273216
-0.264004
-0.254868
-0.245867
-0.237025
-0.228335
-0.219775
-0.211309
-0.202924
-0.194542
-0.186512
-0.383336
-0.37605
-0.369034
-0.36213
-0.35503
-0.347629
-0.339752
-0.331209
-0.321906
-0.311888
-0.301313
-0.290397
-0.279371
-0.26843
-0.25772
-0.247329
-0.237291
-0.227606
-0.218248
-0.209178
-0.200358
-0.191758
-0.183325
-0.175288
-0.400764
-0.391919
-0.383741
-0.375817
-0.367534
-0.358632
-0.348869
-0.338091
-0.326342
-0.313843
-0.300917
-0.287896
-0.27506
-0.262609
-0.25066
-0.23926
-0.228408
-0.218072
-0.208205
-0.198759
-0.189684
-0.180938
-0.172489
-0.16443
-0.419541
-0.409157
-0.399794
-0.390671
-0.380812
-0.369831
-0.357533
-0.343944
-0.329348
-0.314185
-0.298917
-0.283931
-0.269495
-0.255761
-0.242786
-0.230567
-0.219062
-0.208214
-0.197958
-0.188233
-0.178982
-0.170156
-0.161727
-0.153683
-0.439112
-0.427267
-0.416678
-0.406084
-0.394135
-0.380427
-0.364981
-0.348143
-0.330496
-0.312673
-0.295208
-0.278469
-0.262655
-0.247843
-0.234023
-0.221139
-0.209117
-0.197874
-0.187331
-0.177416
-0.168064
-0.159221
-0.150851
-0.142861
-0.458656
-0.445488
-0.433588
-0.421144
-0.406514
-0.389461
-0.370405
-0.350104
-0.329422
-0.309107
-0.289681
-0.27143
-0.254458
-0.238754
-0.224247
-0.210836
-0.198417
-0.186888
-0.176156
-0.166135
-0.156753
-0.147952
-0.139672
-0.131783
-0.477117
-0.462788
-0.449426
-0.434668
-0.416764
-0.395873
-0.372962
-0.349208
-0.32568
-0.303143
-0.282032
-0.262517
-0.244596
-0.22818
-0.21314
-0.19934
-0.186649
-0.174949
-0.164131
-0.1541
-0.144775
-0.136086
-0.127941
-0.120218
-0.493293
-0.478006
-0.462996
-0.445425
-0.423697
-0.398604
-0.371745
-0.344675
-0.318562
-0.294102
-0.271593
-0.251068
-0.232422
-0.21549
-0.200096
-0.186069
-0.173256
-0.161523
-0.150749
-0.140829
-0.131675
-0.123207
-0.115302
-0.107891
-0.332645
-0.334912
-0.336186
-0.336881
-0.337381
-0.337812
-0.338242
-0.338713
-0.339248
-0.339857
-0.340553
-0.341359
-0.342312
-0.343468
-0.344902
-0.346707
-0.348991
-0.351872
-0.35547
-0.359891
-0.365212
-0.371432
-0.378479
-0.386403
-0.328381
-0.330006
-0.33082
-0.331119
-0.331201
-0.33119
-0.33117
-0.331204
-0.331342
-0.331625
-0.332104
-0.332844
-0.333934
-0.33548
-0.337614
-0.340481
-0.344235
-0.349027
-0.354988
-0.362206
-0.370716
-0.380466
-0.391235
-0.402976
-0.325069
-0.326008
-0.32634
-0.326236
-0.325904
-0.325457
-0.324993
-0.324596
-0.324339
-0.324293
-0.324538
-0.325174
-0.326324
-0.328131
-0.330762
-0.33439
-0.339186
-0.345318
-0.352901
-0.362001
-0.372598
-0.384566
-0.397587
-0.411422
-0.322347
-0.322649
-0.322519
-0.322018
-0.321265
-0.320367
-0.319435
-0.318571
-0.317874
-0.317439
-0.317374
-0.317803
-0.31887
-0.32074
-0.323592
-0.327611
-0.33297
-0.339819
-0.348258
-0.358315
-0.369927
-0.382921
-0.397005
-0.41139
-0.319928
-0.319726
-0.319196
-0.318312
-0.31713
-0.315751
-0.3143
-0.312902
-0.311683
-0.310765
-0.310278
-0.310364
-0.31118
-0.312898
-0.3157
-0.319762
-0.325246
-0.332277
-0.340925
-0.351185
-0.36296
-0.375978
-0.390214
-0.403949
-0.31765
-0.317138
-0.316295
-0.31505
-0.313428
-0.311533
-0.309506
-0.307499
-0.305668
-0.304163
-0.303138
-0.302752
-0.303171
-0.304569
-0.307118
-0.310983
-0.316303
-0.323175
-0.331636
-0.341631
-0.35306
-0.365405
-0.379133
-0.391256
-0.315523
-0.314904
-0.31384
-0.312262
-0.310196
-0.307761
-0.305119
-0.302452
-0.299947
-0.297788
-0.296155
-0.295225
-0.295174
-0.296175
-0.298392
-0.301971
-0.307026
-0.313614
-0.321734
-0.331257
-0.342129
-0.353441
-0.366267
-0.376143
-0.313728
-0.31317
-0.311961
-0.310074
-0.307575
-0.304605
-0.301353
-0.298031
-0.294863
-0.292063
-0.289841
-0.288393
-0.287907
-0.288554
-0.290484
-0.293817
-0.298631
-0.304932
-0.312656
-0.321539
-0.331556
-0.341414
-0.352691
-0.359932
-0.312605
-0.312199
-0.310881
-0.308704
-0.305801
-0.302343
-0.298545
-0.294653
-0.29092
-0.287594
-0.284908
-0.283074
-0.282284
-0.282698
-0.284442
-0.287586
-0.292133
-0.298006
-0.305051
-0.312892
-0.321444
-0.329314
-0.337986
-0.342159
-0.312612
-0.312329
-0.310892
-0.308438
-0.305179
-0.301318
-0.297098
-0.292789
-0.288669
-0.285003
-0.282038
-0.279988
-0.279027
-0.279281
-0.280812
-0.283615
-0.2876
-0.292589
-0.298338
-0.304455
-0.310748
-0.316176
-0.321607
-0.322879
-0.314227
-0.313921
-0.312298
-0.309564
-0.306005
-0.301845
-0.297347
-0.292792
-0.288466
-0.284633
-0.281529
-0.279341
-0.2782
-0.278165
-0.279219
-0.281258
-0.284096
-0.287477
-0.291092
-0.294632
-0.297867
-0.300404
-0.302678
-0.301922
-0.317834
-0.317264
-0.315332
-0.312301
-0.30847
-0.304088
-0.299427
-0.294755
-0.290338
-0.286418
-0.283189
-0.280786
-0.279271
-0.278622
-0.278736
-0.27943
-0.280456
-0.281531
-0.282348
-0.282685
-0.282281
-0.281254
-0.279785
-0.277682
-0.397034
-0.40955
-0.420724
-0.42882
-0.431715
-0.427517
-0.414345
-0.39134
-0.358747
-0.31859
-0.274808
-0.232298
-0.195433
-0.167074
-0.148445
-0.139864
-0.141627
-0.153419
-0.172091
-0.19037
-0.198921
-0.191876
-0.170304
-0.141749
-0.114575
-0.0939998
-0.0817688
-0.0772281
-0.0791135
-0.0879924
-0.105661
-0.129468
-0.149026
-0.152562
-0.138119
-0.113569
-0.089926
-0.0730649
-0.063272
-0.0595381
-0.0635833
-0.0746478
-0.0842107
-0.08392
-0.0749357
-0.0629395
-0.0537855
-0.0479656
-0.0475442
-0.0512727
-0.052794
-0.0503125
-0.0464153
-0.03931
-0.0339079
-0.0280476
-0.0231632
-0.0228675
-0.0190642
-0.00617264
-0.418668
-0.435338
-0.449747
-0.460303
-0.464595
-0.460543
-0.44634
-0.420869
-0.384425
-0.33933
-0.289932
-0.241573
-0.198989
-0.165258
-0.141575
-0.127969
-0.124399
-0.130652
-0.144547
-0.160252
-0.169396
-0.165606
-0.149277
-0.126305
-0.10404
-0.0875189
-0.0787169
-0.0771392
-0.0817622
-0.0936558
-0.114682
-0.141485
-0.162612
-0.165353
-0.148558
-0.120872
-0.0940779
-0.0743549
-0.06216
-0.0561037
-0.0576254
-0.0661244
-0.0741405
-0.0741732
-0.0670019
-0.0578628
-0.0512801
-0.0480204
-0.0499109
-0.0561505
-0.0588021
-0.0554248
-0.0504912
-0.0413833
-0.0345427
-0.0266165
-0.0206409
-0.019572
-0.0158995
-0.00514089
-0.430573
-0.449962
-0.466329
-0.478735
-0.48356
-0.47986
-0.465234
-0.438419
-0.399668
-0.351427
-0.298313
-0.245931
-0.199237
-0.161378
-0.133454
-0.115318
-0.106617
-0.107265
-0.11601
-0.128506
-0.137644
-0.136961
-0.125844
-0.108516
-0.091316
-0.0790643
-0.0738741
-0.0753448
-0.0827099
-0.0974589
-0.121433
-0.15081
-0.173433
-0.175894
-0.157162
-0.12682
-0.0972877
-0.0750204
-0.0606523
-0.0524864
-0.051653
-0.0576892
-0.0642109
-0.0644601
-0.059012
-0.052548
-0.0484436
-0.047805
-0.0521337
-0.0610032
-0.0648632
-0.0603325
-0.0543718
-0.0432533
-0.0350525
-0.0252146
-0.0181646
-0.0162991
-0.0127519
-0.0041181
-0.432147
-0.45289
-0.470186
-0.481959
-0.488526
-0.485491
-0.470971
-0.443813
-0.404253
-0.354778
-0.300094
-0.245874
-0.197043
-0.156615
-0.125583
-0.103707
-0.0905004
-0.0857719
-0.0890584
-0.0975917
-0.105808
-0.107822
-0.101084
-0.0891011
-0.0768569
-0.068859
-0.0672209
-0.0716028
-0.0814762
-0.09867
-0.125093
-0.156748
-0.180954
-0.183664
-0.163666
-0.13126
-0.0994981
-0.0751038
-0.0588574
-0.0488457
-0.0458989
-0.0496497
-0.0547265
-0.0550471
-0.0511295
-0.0470897
-0.0453084
-0.0472785
-0.0541029
-0.0656975
-0.0708807
-0.0676193
-0.0580311
-0.0448902
-0.0354219
-0.0238482
-0.0157518
-0.0130846
-0.00964849
-0.00311274
-0.424504
-0.4454
-0.464998
-0.475826
-0.481994
-0.479047
-0.464862
-0.43819
-0.399217
-0.350428
-0.296419
-0.242595
-0.193548
-0.15206
-0.119055
-0.0942925
-0.0772613
-0.067749
-0.0656579
-0.0696145
-0.0757327
-0.0789771
-0.0759701
-0.0688104
-0.0611396
-0.0571124
-0.0587278
-0.0657186
-0.0777348
-0.0968768
-0.125241
-0.158849
-0.184685
-0.188275
-0.167892
-0.13415
-0.100739
-0.0746816
-0.0568893
-0.0453162
-0.0405321
-0.0422103
-0.0459335
-0.0461855
-0.0435104
-0.0415809
-0.0418983
-0.0463896
-0.0557038
-0.0700727
-0.0765618
-0.0722307
-0.0613276
-0.046268
-0.0356378
-0.0225206
-0.0134182
-0.00996123
-0.00661501
-0.00213276
-0.409893
-0.428085
-0.442812
-0.458455
-0.46525
-0.462395
-0.44879
-0.423302
-0.386169
-0.339818
-0.288503
-0.237061
-0.189528
-0.148359
-0.114457
-0.087691
-0.0676079
-0.0539983
-0.0469606
-0.046091
-0.0491331
-0.0522029
-0.0517941
-0.0485298
-0.0447453
-0.0441484
-0.0485597
-0.0577649
-0.0715115
-0.0920668
-0.121755
-0.156886
-0.184391
-0.189563
-0.169747
-0.135471
-0.101052
-0.0738186
-0.0548296
-0.0419837
-0.0356512
-0.0355027
-0.037994
-0.0380768
-0.0363062
-0.0361114
-0.038242
-0.0450949
-0.0568203
-0.073952
-0.0817614
-0.0764831
-0.0642356
-0.047366
-0.0356856
-0.0212283
-0.0111755
-0.00695826
-0.0036729
-0.00118496
-0.392307
-0.408196
-0.422653
-0.435535
-0.441048
-0.437894
-0.425
-0.401344
-0.3672
-0.324799
-0.277812
-0.230288
-0.185599
-0.145853
-0.111956
-0.0839871
-0.0616516
-0.0447587
-0.0334607
-0.0279195
-0.0272301
-0.0289012
-0.0299237
-0.0291292
-0.0283827
-0.0305134
-0.0371338
-0.0480615
-0.0630569
-0.0844334
-0.114781
-0.150961
-0.18022
-0.187549
-0.16919
-0.135234
-0.100482
-0.0725636
-0.0527316
-0.0388944
-0.0312917
-0.0295742
-0.0309798
-0.0308488
-0.0296471
-0.0307756
-0.0343859
-0.0433619
-0.0573417
-0.0771762
-0.0863432
-0.0803141
-0.0667198
-0.0481684
-0.0355571
-0.0199623
-0.00902926
-0.00410043
-0.000838506
-0.000275257
-0.372724
-0.383521
-0.396228
-0.406891
-0.41105
-0.407578
-0.395771
-0.374676
-0.344531
-0.307222
-0.265667
-0.22304
-0.182053
-0.144514
-0.111348
-0.0828669
-0.0590231
-0.0396989
-0.0250123
-0.0153334
-0.0106737
-0.00985381
-0.0106763
-0.0112732
-0.0127402
-0.0168286
-0.0249659
-0.0370326
-0.0527685
-0.0744329
-0.104808
-0.141521
-0.172533
-0.182474
-0.166274
-0.133472
-0.099069
-0.0709487
-0.0506265
-0.0360735
-0.0274629
-0.0244277
-0.0248954
-0.0245454
-0.0236166
-0.0256707
-0.0303887
-0.0411799
-0.0571774
-0.0796179
-0.090161
-0.0836157
-0.068757
-0.0486672
-0.0352568
-0.018728
-0.00698302
-0.00140498
0.00187718
0.000590985
-0.349427
-0.356263
-0.366283
-0.374783
-0.377394
-0.373877
-0.363736
-0.345864
-0.320405
-0.288791
-0.253133
-0.215779
-0.178865
-0.143971
-0.112066
-0.0836623
-0.0589689
-0.0380107
-0.0208679
-0.00788458
0.000505126
0.00447676
0.00526979
0.00436343
0.00165574
-0.00358966
-0.0125392
-0.0251271
-0.0410885
-0.0625641
-0.0925525
-0.129402
-0.161949
-0.174779
-0.161205
-0.130347
-0.0969805
-0.0691242
-0.0486377
-0.0336127
-0.0242051
-0.0200694
-0.019727
-0.0191645
-0.0182598
-0.0208901
-0.0263199
-0.0385349
-0.0562688
-0.0811877
-0.0930781
-0.0863119
-0.0703464
-0.0488773
-0.0347993
-0.0175579
-0.00505736
0.00111085
0.00446867
0.00140952
-0.324363
-0.326964
-0.335361
-0.341737
-0.342988
-0.340059
-0.332097
-0.317814
-0.297252
-0.271342
-0.241462
-0.209275
-0.17644
-0.144357
-0.11405
-0.0861875
-0.0611734
-0.0391967
-0.0203559
-0.00490966
0.0066435
0.0139221
0.0171878
0.0172342
0.0144841
0.00891298
-0.000234573
-0.0128127
-0.0286072
-0.0496553
-0.078858
-0.115301
-0.149078
-0.165078
-0.154345
-0.126214
-0.0946138
-0.0674438
-0.0470333
-0.0317029
-0.0216078
-0.0164917
-0.015441
-0.0147303
-0.013584
-0.0164999
-0.0222397
-0.0354942
-0.054603
-0.0817919
-0.0949798
-0.0883801
-0.0714942
-0.0488346
-0.0341897
-0.0164571
-0.003285
0.00340682
0.00693324
0.00217686
-0.299256
-0.300017
-0.306795
-0.310744
-0.311174
-0.30929
-0.303645
-0.29296
-0.277138
-0.256618
-0.232193
-0.204961
-0.176157
-0.146979
-0.118462
-0.0914072
-0.0663837
-0.0437505
-0.0236905
-0.00639187
0.00774002
0.0181569
0.0244754
0.0268294
0.0252479
0.0202964
0.0116492
-0.000329644
-0.015486
-0.035802
-0.0643172
-0.100634
-0.134875
-0.156087
-0.145544
-0.120779
-0.0917507
-0.0657028
-0.0455869
-0.0301386
-0.0194988
-0.0134699
-0.0117726
-0.0111085
-0.00981172
-0.0126951
-0.0182087
-0.0319566
-0.0521692
-0.0815169
-0.0957745
-0.0897202
-0.0720893
-0.048484
-0.0333749
-0.0152929
-0.00162214
0.00546007
0.00926124
0.0028891
-0.276382
-0.278424
-0.282198
-0.282637
-0.281894
-0.280277
-0.276017
-0.268024
-0.255985
-0.239941
-0.220247
-0.197542
-0.172673
-0.146603
-0.120299
-0.0946157
-0.0702396
-0.0476739
-0.0272559
-0.0092239
0.00618052
0.0186421
0.0277392
0.0328832
0.0336723
0.0298391
0.0221793
0.0111939
-0.00312044
-0.0225168
-0.0497307
-0.0846297
-0.118076
-0.135455
-0.132243
-0.111993
-0.08614
-0.061802
-0.0425463
-0.0275378
-0.0169214
-0.0103677
-0.00818386
-0.00759393
-0.00642511
-0.00930217
-0.014512
-0.028325
-0.0490656
-0.080085
-0.0954515
-0.0899044
-0.0718874
-0.0475415
-0.032222
-0.0138215
9.43298e-05
0.00742241
0.0114705
0.00353721
-0.257473
-0.267891
-0.26837
-0.265789
-0.263347
-0.260632
-0.255971
-0.248139
-0.23667
-0.221617
-0.203337
-0.182388
-0.159478
-0.13542
-0.111041
-0.0870887
-0.0641626
-0.0427052
-0.0230375
-0.00539447
0.0100119
0.0229508
0.0330982
0.0399951
0.0426063
0.0402306
0.034035
0.0245777
0.0116176
-0.00716811
-0.0355058
-0.0734899
-0.109935
-0.130833
-0.123848
-0.103424
-0.0786846
-0.0558098
-0.0378336
-0.0237206
-0.0136406
-0.00715002
-0.00482573
-0.00395247
-0.00231066
-0.00455894
-0.00930858
-0.0232775
-0.0449127
-0.0783536
-0.0958028
-0.090758
-0.0713987
-0.0460744
-0.030833
-0.0121887
0.00176564
0.0094141
0.0135382
0.00412126
-0.234753
-0.248615
-0.249731
-0.245543
-0.241371
-0.237632
-0.232681
-0.225093
-0.214335
-0.200515
-0.184007
-0.165273
-0.144851
-0.123352
-0.101425
-0.0796852
-0.0586564
-0.0387522
-0.0202888
-0.00350719
0.0114167
0.0243146
0.0349003
0.0425078
0.0462165
0.045553
0.0410746
0.0334097
0.0220211
0.00399195
-0.0250165
-0.0641346
-0.0998688
-0.114163
-0.110633
-0.0919909
-0.0698673
-0.0494157
-0.0331749
-0.0202626
-0.0108408
-0.00447708
-0.00207727
-0.00115446
0.00040363
-0.00150642
-0.00562663
-0.0192874
-0.0412494
-0.0759886
-0.0947911
-0.0893464
-0.0698559
-0.0441152
-0.0290039
-0.0105061
0.0031955
0.0111679
0.0151568
0.00460275
-0.21377
-0.228281
-0.229971
-0.225391
-0.220338
-0.216003
-0.211037
-0.203976
-0.194213
-0.18182
-0.167128
-0.150504
-0.132341
-0.113101
-0.0933053
-0.0734829
-0.0541111
-0.0355838
-0.0182136
-0.00224691
0.0121193
0.0247021
0.0352911
0.0433979
0.0479847
0.0484702
0.0453332
0.0390263
0.0286598
0.0108391
-0.0181669
-0.0554945
-0.0876623
-0.100645
-0.0966306
-0.0803563
-0.0611828
-0.0431874
-0.0286263
-0.0168624
-0.00812448
-0.00198251
0.000470333
0.00141929
0.00292914
0.00113243
-0.00283617
-0.0163461
-0.0382412
-0.0728098
-0.0922193
-0.0868208
-0.067587
-0.0417902
-0.0269003
-0.00877694
0.00461136
0.0127985
0.016536
0.00504411
-0.195373
-0.208272
-0.210216
-0.205979
-0.200765
-0.196164
-0.191259
-0.184717
-0.175879
-0.164751
-0.151617
-0.136794
-0.120597
-0.103382
-0.0855668
-0.0675896
-0.0498649
-0.0327505
-0.016544
-0.00149008
0.0122004
0.024322
0.0346936
0.0428545
0.0480159
0.0495395
0.047631
0.0425401
0.0331102
0.0158101
-0.0119571
-0.0461155
-0.0745409
-0.0860225
-0.0821585
-0.0684938
-0.052366
-0.0369013
-0.0240693
-0.0134882
-0.00549676
0.00034161
0.00283813
0.00385803
0.0053823
0.00369299
-0.000219147
-0.0135388
-0.0348298
-0.0684651
-0.0883568
-0.0833103
-0.0645749
-0.0391023
-0.0245261
-0.00696162
0.00600719
0.0142666
0.0177314
0.00545498
-0.176729
-0.188779
-0.191047
-0.187357
-0.182335
-0.17771
-0.172938
-0.166896
-0.158931
-0.148984
-0.137286
-0.124115
-0.109725
-0.0943895
-0.0784293
-0.0622019
-0.046064
-0.0303417
-0.0153185
-0.00123641
0.0116889
0.0232349
0.033195
0.04117
0.0466176
0.0488733
0.0479489
0.0439269
0.0355549
0.0195068
-0.005902
-0.0361804
-0.0605929
-0.070497
-0.0675418
-0.0567542
-0.0437175
-0.0307562
-0.0196235
-0.0101965
-0.00297163
0.00249989
0.00502155
0.00614309
0.00769041
0.00614906
0.00243828
-0.0103359
-0.0305518
-0.062974
-0.083139
-0.0786493
-0.0607484
-0.0360435
-0.0219062
-0.00506327
0.00736345
0.0155354
0.0187166
0.00582215
-0.158974
-0.170367
-0.17279
-0.169595
-0.164927
-0.160483
-0.15596
-0.15044
-0.143318
-0.134486
-0.124121
-0.112459
-0.0997092
-0.0860844
-0.0718343
-0.0572496
-0.0426354
-0.0282843
-0.0144607
-0.00139915
0.0106846
0.0215637
0.0310203
0.0386795
0.04415
0.0468237
0.04659
0.0433896
0.0360474
0.0217952
-0.000286348
-0.0258624
-0.0462076
-0.0550132
-0.0535139
-0.0456062
-0.0354689
-0.0248556
-0.0153468
-0.00702381
-0.000558194
0.00449695
0.00701557
0.00826492
0.00986143
0.00849472
0.00514338
-0.00672492
-0.0255611
-0.0563724
-0.0764744
-0.0727772
-0.0561018
-0.0326334
-0.0190821
-0.00308693
0.00866455
0.0165725
0.0194394
0.00613024
-0.143235
-0.153231
-0.155523
-0.152778
-0.148557
-0.144437
-0.140262
-0.135282
-0.128959
-0.121161
-0.112019
-0.101729
-0.0904681
-0.0784055
-0.0657369
-0.0526967
-0.039542
-0.026531
-0.013906
-0.00189295
0.0092984
0.0194457
0.0283385
0.0355858
0.040918
0.0438038
0.0440465
0.0414714
0.0351264
0.0230621
0.00492111
-0.0157733
-0.0325182
-0.0406514
-0.0407213
-0.0353999
-0.027808
-0.0193026
-0.0113028
-0.0040143
0.00173043
0.00634047
0.00883286
0.0102312
0.0119126
0.0107318
0.00784437
-0.00288166
-0.0200285
-0.0487031
-0.0684364
-0.0657556
-0.0506767
-0.0289094
-0.0161065
-0.00104576
0.0098981
0.0173496
0.0198533
0.00637111
-0.127997
-0.137004
-0.139259
-0.136976
-0.13325
-0.129529
-0.125757
-0.12132
-0.115746
-0.108902
-0.10088
-0.0918433
-0.0819407
-0.0713085
-0.0601011
-0.0485063
-0.036739
-0.0250246
-0.0135824
-0.00262675
0.00764102
0.0170072
0.0252727
0.03206
0.0371674
0.0401383
0.0407332
0.0387252
0.0334526
0.0237082
0.00938436
-0.00696124
-0.0206697
-0.0282304
-0.0295867
-0.02636
-0.0208691
-0.0141755
-0.00753734
-0.00120568
0.00388035
0.00803966
0.0104941
0.0120529
0.0138619
0.0128612
0.0105204
0.00113244
-0.0140189
-0.0401474
-0.0592434
-0.0577364
-0.0445673
-0.0249287
-0.0130405
0.00103753
0.0110576
0.0178519
0.0199304
0.00654409
-0.113782
-0.121917
-0.124131
-0.122259
-0.119011
-0.11571
-0.112361
-0.108456
-0.103586
-0.0976189
-0.0906232
-0.0827314
-0.0740682
-0.0647444
-0.0548826
-0.0446337
-0.0341765
-0.0237057
-0.0134177
-0.00351084
0.00582265
0.0143709
0.0218933
0.0282706
0.0331083
0.0360813
0.036958
0.0355143
0.0313266
0.0236859
0.0125904
-0.000136479
-0.0112412
-0.0180916
-0.0202541
-0.0185668
-0.0147203
-0.00952722
-0.00408397
0.00137105
0.00587347
0.00960104
0.0120153
0.0137344
0.0157332
0.0148994
0.013238
0.00535182
-0.00765653
-0.0310328
-0.0492347
-0.0489644
-0.0379276
-0.0207668
-0.00994789
0.00312777
0.0121444
0.0180888
0.0196723
0.00665639
-0.100744
-0.108014
-0.110122
-0.108605
-0.105811
-0.102928
-0.100002
-0.0966102
-0.0923955
-0.0872342
-0.0811748
-0.0743259
-0.0667914
-0.0586621
-0.0500358
-0.0410346
-0.0318061
-0.0225169
-0.013341
-0.00445776
0.00395516
0.0117008
0.0185768
0.0244156
0.0289348
0.0318501
0.032949
0.032026
0.0288172
0.0229326
0.0144475
0.00466604
-0.00415218
-0.0101326
-0.0126436
-0.0119949
-0.00937847
-0.00538968
-0.000965288
0.00369473
0.0076875
0.0110279
0.0134035
0.0152709
0.0175496
0.0168958
0.0161172
0.00977094
-0.0011855
-0.0217868
-0.0388571
-0.03979
-0.0309761
-0.0165142
-0.00688786
0.00517578
0.0131701
0.0181042
0.0191246
0.00672504
-0.0888248
-0.0952203
-0.0971871
-0.0959855
-0.0936202
-0.0911419
-0.0886221
-0.0857131
-0.0821036
-0.0776774
-0.0724683
-0.0665655
-0.0600557
-0.0530135
-0.0455176
-0.0376663
-0.0295814
-0.0214038
-0.0132857
-0.0053871
0.00213148
0.00909325
0.0153194
0.0206296
0.0248106
0.0276248
0.028885
0.0284145
0.0260551
0.0216163
0.0152266
0.0078224
0.000977723
-0.00406495
-0.00657655
-0.00655856
-0.00482334
-0.00177574
0.00180497
0.00575543
0.00929949
0.0123162
0.014656
0.0166531
0.0193224
0.0201632
0.0192595
0.0142999
0.00505411
-0.0129111
-0.0286434
-0.0306349
-0.0239816
-0.0122734
-0.00391083
0.00711932
0.0141531
0.0179837
0.018386
0.00677832
-0.0778553
-0.083477
-0.0853185
-0.0843928
-0.0824137
-0.08031
-0.0781697
-0.0757054
-0.0726469
-0.0688859
-0.0644445
-0.0593957
-0.053812
-0.0477548
-0.0412874
-0.0344889
-0.0274593
-0.0203174
-0.0131935
-0.00622862
0.000433641
0.00663733
0.0122226
0.0170273
0.0208689
0.0235544
0.0249281
0.0248472
0.0232188
0.0199685
0.0152464
0.00973412
0.00458661
0.000443441
-0.00183958
-0.00214794
-0.00101102
0.00131885
0.00421963
0.00755231
0.0106936
0.0134497
0.0157579
0.0178565
0.0208224
0.0225452
0.0224053
0.0186647
0.0106347
-0.00491422
-0.0191003
-0.0219066
-0.0172319
-0.00815505
-0.00106195
0.00888932
0.0151019
0.0178452
0.017605
0.00685261
-0.0678324
-0.0727822
-0.0744862
-0.0737872
-0.0721479
-0.0703841
-0.0685907
-0.0665297
-0.0639671
-0.0608029
-0.0570499
-0.0527674
-0.0480158
-0.0428458
-0.0373082
-0.0314666
-0.0254027
-0.0192154
-0.0130153
-0.00692456
-0.00106899
0.004413
0.00937896
0.0137044
0.0172159
0.0197595
0.0212105
0.0214584
0.020449
0.0181714
0.0147731
0.0107312
0.0067231
0.0036669
0.00177419
0.00135969
0.00211757
0.00391419
0.00627851
0.00908794
0.0118653
0.0144058
0.0166793
0.0188481
0.0219467
0.0242093
0.0250728
0.0223191
0.0151147
0.00183478
-0.0105906
-0.0139479
-0.0110037
-0.00427193
0.00160897
0.0104173
0.0159996
0.0178086
0.0169444
0.00697889
-0.0587461
-0.0630555
-0.0646101
-0.0641002
-0.062767
-0.0613132
-0.0598335
-0.0581332
-0.0560115
-0.0533775
-0.0502369
-0.0466371
-0.0426282
-0.0382518
-0.0335488
-0.0285699
-0.0233815
-0.0180647
-0.0127128
-0.00742966
-0.0023244
0.00248318
0.00686113
0.0107402
0.0139321
0.0163252
0.0178221
0.0183385
0.017845
0.0163581
0.0140152
0.0111524
0.00824109
0.00595033
0.00447496
0.00408922
0.00462951
0.006042
0.00798966
0.0103666
0.012816
0.0151637
0.0173844
0.019585
0.0226654
0.0252824
0.0267321
0.0246968
0.0182227
0.00716546
-0.00335341
-0.00701885
-0.00552637
-0.000727784
0.00404462
0.0116418
0.016789
0.0179586
0.016517
0.00715919
-0.0504984
-0.0542312
-0.0556478
-0.0552981
-0.0542283
-0.0530464
-0.0518455
-0.0504644
-0.0487311
-0.0465638
-0.0439632
-0.0409666
-0.0376154
-0.0339434
-0.0299836
-0.0257758
-0.0213733
-0.0168425
-0.0122608
-0.00771452
-0.00329452
0.000903844
0.00479453
0.00819312
0.0110685
0.013304
0.0148179
0.0155449
0.0154693
0.0146178
0.0131065
0.0111778
0.0091652
0.00752292
0.0064452
0.00616161
0.00659612
0.00774151
0.00936886
0.0113938
0.0135509
0.0157127
0.0178446
0.0200172
0.022929
0.0255465
0.0271353
0.0256196
0.0199853
0.0110531
0.00243699
-0.00129267
-0.000936862
0.00239271
0.00618893
0.0125223
0.0173549
0.0182928
0.0163199
0.00735264
-0.0430289
-0.0462625
-0.0475437
-0.0473194
-0.0464756
-0.0455338
-0.0445778
-0.0434754
-0.0420801
-0.0403193
-0.0381901
-0.0357219
-0.032948
-0.0298962
-0.0265923
-0.0230679
-0.019365
-0.015537
-0.0116473
-0.00776692
-0.00397292
-0.000345406
0.00303356
0.00604925
0.00863984
0.0107193
0.0122252
0.0131079
0.0133583
0.0130047
0.012143
0.0109478
0.00964764
0.00855007
0.0078343
0.00768824
0.00808949
0.00905589
0.010438
0.0121782
0.0140755
0.0160499
0.0180498
0.0201206
0.0227418
0.0250976
0.0265039
0.025356
0.0206523
0.0136102
0.00673203
0.00317416
0.00274306
0.00502725
0.00799831
0.0130643
0.0175632
0.0186524
0.0162052
0.00747076
-0.0362899
-0.03908
-0.040237
-0.0401192
-0.0394662
-0.0387268
-0.0379803
-0.0371177
-0.0360139
-0.0346041
-0.0328829
-0.0308731
-0.0286018
-0.0260909
-0.0233611
-0.0204364
-0.0173502
-0.0141446
-0.0108709
-0.00758658
-0.00435528
-0.00124511
0.00167523
0.00432814
0.0066521
0.00857533
0.0100488
0.0110353
0.0115311
0.0115553
0.0111895
0.0105624
0.00981397
0.00916417
0.00876604
0.00876835
0.00917932
0.0100299
0.0112244
0.0127326
0.0143989
0.0161811
0.0180104
0.0199114
0.0221424
0.0241353
0.0252352
0.0243379
0.0205504
0.0150842
0.00966487
0.00615579
0.00558131
0.0071415
0.00943762
0.0133172
0.0173429
0.0187394
0.0159046
0.00739022
-0.0302296
-0.0326262
-0.0336659
-0.0336335
-0.0331411
-0.0325742
-0.0320056
-0.0313466
-0.0304909
-0.029381
-0.0280094
-0.0263938
-0.0245559
-0.0225129
-0.0202806
-0.0178777
-0.0153298
-0.0126699
-0.00993866
-0.00718199
-0.00445148
-0.0018033
0.000707005
0.00302435
0.00509499
0.00685883
0.00827708
0.00932057
0.00998793
0.0102921
0.0102961
0.0100744
0.00975772
0.0094726
0.00934492
0.0094894
0.00993128
0.0107081
0.0117586
0.0130749
0.014535
0.0161215
0.0177552
0.0194445
0.0212443
0.02287
0.0236649
0.022941
0.0199752
0.0157761
0.011576
0.00863133
0.00774407
0.00873782
0.0104834
0.0133212
0.0166978
0.0182723
0.0151649
0.0070132
-0.0247832
-0.0268361
-0.0277681
-0.0278047
-0.0274514
-0.0270274
-0.0266068
-0.0261179
-0.0254709
-0.0246147
-0.0235401
-0.0222604
-0.0207927
-0.0191506
-0.017346
-0.0153928
-0.0133104
-0.0111241
-0.00886576
-0.00657159
-0.00428262
-0.00204339
0.000101855
0.00211517
0.00394121
0.00554314
0.00688615
0.00794589
0.00872082
0.00921987
0.00948772
0.00957329
0.00956965
0.00956657
0.00965712
0.00992652
0.0104059
0.0111346
0.0120727
0.0132279
0.0145035
0.0158968
0.0173225
0.0187866
0.0202228
0.021479
0.0220155
0.021416
0.0191425
0.0159455
0.0127182
0.0102923
0.00930844
0.00984884
0.0111342
0.0131058
0.0156875
0.0171474
0.0139143
0.00634658
-0.019899
-0.0216545
-0.022488
-0.0225779
-0.0223401
-0.022042
-0.0217424
-0.021392
-0.0209165
-0.0202718
-0.019447
-0.0184512
-0.0172973
-0.0159957
-0.0145553
-0.0129861
-0.0113026
-0.00952397
-0.00767452
-0.00578233
-0.00387941
-0.00199928
-0.000178948
0.00154639
0.00314747
0.00458707
0.00584019
0.00688307
0.00771499
0.00833923
0.00878574
0.00908835
0.00931213
0.00951785
0.00977471
0.0101448
0.0106582
0.0113518
0.0121996
0.0132172
0.0143271
0.0155372
0.0167576
0.0179956
0.0191259
0.0200717
0.0204107
0.0199079
0.0181908
0.015769
0.0132977
0.0113194
0.0103634
0.0105355
0.0114176
0.0127006
0.0144314
0.0155053
0.0123043
0.00549848
-0.0155313
-0.0170283
-0.0177719
-0.0179018
-0.0177585
-0.0175644
-0.0173712
-0.0171331
-0.0167934
-0.0163218
-0.0157043
-0.0149467
-0.0140567
-0.013042
-0.011909
-0.0106649
-0.00932052
-0.00788973
-0.00639092
-0.00484524
-0.00327701
-0.00171206
-0.000178491
0.00129451
0.00268049
0.00395655
0.00510296
0.00610204
0.00694963
0.00764185
0.00820128
0.00864757
0.00902712
0.00937941
0.00975544
0.0101996
0.0107371
0.0114003
0.0121717
0.0130702
0.0140331
0.0150735
0.016101
0.0171277
0.0180072
0.0187088
0.0189094
0.0184872
0.0171986
0.0153646
0.0134778
0.011868
0.0109902
0.0108738
0.0113912
0.0121354
0.013059
0.0135548
0.0105685
0.0046082
-0.0116326
-0.0129063
-0.0135689
-0.0137286
-0.0136623
-0.0135534
-0.0134469
-0.0133079
-0.0130864
-0.012748
-0.0122894
-0.0117304
-0.01106
-0.0102849
-0.0094096
-0.00843859
-0.00737961
-0.00624296
-0.00504226
-0.00379303
-0.00251355
-0.00122363
5.54045e-05
0.00130232
0.00249641
0.00361893
0.00465359
0.00558415
0.00640773
0.00712121
0.00773809
0.0082687
0.00874504
0.00919184
0.00964552
0.0101369
0.0106857
0.0113183
0.0120216
0.0128155
0.0136481
0.0145345
0.0153886
0.016228
0.0169079
0.0174237
0.0175333
0.0171794
0.0162115
0.0148179
0.0133742
0.0120566
0.0112675
0.0109373
0.0111243
0.0114523
0.011693
0.0116499
0.00889586
0.00377923
-0.00815937
-0.00924173
-0.00983202
-0.0100132
-0.0100087
-0.00996883
-0.0099323
-0.00987207
-0.00974817
-0.00953505
-0.00922582
-0.00880862
-0.00830614
-0.00772526
-0.00706139
-0.00631679
-0.00549607
-0.00460627
-0.00365708
-0.00265977
-0.00162802
-0.000576324
0.000479698
0.00152407
0.00254096
0.00351425
0.0044317
0.00528116
0.00605893
0.00675972
0.0073921
0.00796073
0.00848691
0.00898538
0.00948126
0.00999515
0.0105412
0.01114
0.0117803
0.0124808
0.0131978
0.0139478
0.0146525
0.0153312
0.015855
0.0162316
0.0162838
0.0159866
0.0152552
0.0141865
0.01307
0.0119778
0.0112681
0.0107884
0.01069
0.0106924
0.0104216
0.00991066
0.00739989
0.00306474
-0.00507331
-0.00599185
-0.00651747
-0.00671303
-0.00675713
-0.00677189
-0.00678993
-0.00679022
-0.00674027
-0.00661858
-0.00641788
-0.0061392
-0.00578739
-0.00536111
-0.00486769
-0.0043086
-0.00368506
-0.00300078
-0.00226229
-0.00147771
-0.000656989
0.000189647
0.00105077
0.0019144
0.00276844
0.00360052
0.00440108
0.00516031
0.00587437
0.00653758
0.0071545
0.00772614
0.00826588
0.00878191
0.00929072
0.00980558
0.0103354
0.0108955
0.011476
0.012092
0.0127072
0.0133381
0.0139166
0.0144608
0.0148638
0.0151363
0.0151536
0.0149015
0.0143405
0.013509
0.0126278
0.0117
0.0109876
0.010475
0.0101472
0.00988717
0.00926743
0.00841442
0.00613389
0.00247904
-0.00233859
-0.00311726
-0.00358531
-0.00378959
-0.00387149
-0.00392912
-0.00398967
-0.00403696
-0.00404502
-0.00399617
-0.00388413
-0.0037094
-0.00347451
-0.00318114
-0.00283055
-0.00242296
-0.0019606
-0.00144591
-0.000883131
-0.00027731
0.000364957
0.00103604
0.00172757
0.00243115
0.00313791
0.00383831
0.00452471
0.00518921
0.00582819
0.00643622
0.00701506
0.00756357
0.00808948
0.00859669
0.0090951
0.00959286
0.0100947
0.0106111
0.011133
0.0116724
0.0121985
0.0127262
0.0131988
0.0136316
0.0139412
0.0141361
0.0141307
0.0139135