/*--------------------------------*- C++ -*----------------------------------*\
| =========                 |                                                 |
| \\      /  F ield         | OpenFOAM: The Open Source CFD Toolbox           |
|  \\    /   O peration     | Version:  2512                                  |
|   \\  /    A nd           | Website:  www.openfoam.com                      |
|    \\/     M anipulation  |                                                 |
\*---------------------------------------------------------------------------*/
FoamFile
{
    version     2.0;
    format      ascii;
    arch        "LSB;label=32;scalar=64";
    class       surfaceScalarField;
    location    "67";
    object      phi;
}
// * * * * * * * * * * * * * * * * * * * * * * * * * * * * * * * * * * * * * //

dimensions      [0 3 -1 0 0 0 0];

oriented        oriented;

internalField   nonuniform List<scalar> 
26232
(
0.000116852
0.000933059
-0.00104991
0.00058348
0.00166119
-0.00212781
0.00152381
0.00139988
-0.00234021
0.00306775
0.000210631
-0.00175457
0.00535316
-0.00186598
-0.000419432
0.00852077
-0.00480208
0.00163447
0.0127044
-0.00857438
0.00439078
0.0180159
-0.0131511
0.00783959
0.0245276
-0.0184787
0.011967
0.032255
-0.0244718
0.0167444
0.0411436
-0.0310087
0.02212
0.0510639
-0.0379338
0.0280135
0.0618152
-0.0450672
0.0343159
0.0731396
-0.0522181
0.0408937
0.0847441
-0.0592016
0.0475971
0.0963269
-0.0658535
0.0542707
0.107605
-0.0720437
0.0607654
0.118341
-0.0776853
0.06695
0.128359
-0.0827362
0.0727182
0.13756
-0.0872072
0.078006
0.145912
-0.0911201
0.0827677
0.153454
-0.094608
0.0870666
0.160117
-0.0975451
0.0908814
-0.100494
0.0948191
0.165792
0.000155301
0.000777758
0.000780181
0.00103631
0.0020328
0.000147261
0.00407081
-0.00182738
0.00705102
-0.00484619
0.0111195
-0.00887056
0.0163929
-0.0138478
0.0229361
-0.0196943
0.0307408
-0.0262834
0.0397108
-0.0334418
0.0496594
-0.0409573
0.0603209
-0.0485953
0.0713748
-0.056121
0.0824784
-0.0633217
0.0933033
-0.0700266
0.103569
-0.0761196
0.113071
-0.0815453
0.121692
-0.0863068
0.129413
-0.0904568
0.136292
-0.0940859
0.142469
-0.0972973
0.148093
-0.100232
0.153442
-0.102894
-0.105722
0.15867
0.000210014
0.000567745
0.00103504
0.000211279
0.00266515
-0.00148285
0.00528005
-0.00444228
0.00904308
-0.00860921
0.0140804
-0.0139078
0.0204532
-0.0202206
0.0281316
-0.0273728
0.0369784
-0.0351301
0.0467499
-0.0432133
0.0571177
-0.051325
0.067705
-0.0591826
0.0781328
-0.0665488
0.0880653
-0.0732542
0.0972469
-0.0792082
0.105526
-0.0843984
0.112859
-0.0888789
0.119305
-0.0927526
0.124997
-0.096149
0.130116
-0.0992043
0.134858
-0.102039
0.139398
-0.104772
0.143919
-0.107415
-0.110262
0.148459
0.000286439
0.000281305
0.0013625
-0.000864778
0.0034403
-0.00356065
0.00670699
-0.00770897
0.011306
-0.0132083
0.0173045
-0.0199063
0.0246599
-0.027576
0.0332015
-0.0359144
0.0426352
-0.0445638
0.0525756
-0.0531537
0.0625979
-0.0613473
0.0722975
-0.0688823
0.0813436
-0.075595
0.0895164
-0.081427
0.0967218
-0.0864137
0.102985
-0.0906612
0.108423
-0.0943172
0.113212
-0.0975421
0.117549
-0.100486
0.121618
-0.103273
0.125575
-0.105997
0.129534
-0.10873
0.133594
-0.111476
-0.11443
0.137762
0.000385974
-0.000104669
0.00176288
-0.00224169
0.00434745
-0.00614522
0.00830821
-0.0116697
0.0137303
-0.0186304
0.020574
-0.02675
0.0286491
-0.0356511
0.0376212
-0.0448865
0.0470548
-0.0539975
0.0564817
-0.0625806
0.0654749
-0.0703406
0.0737104
-0.0771177
0.0810015
-0.082886
0.0873036
-0.0877291
0.0926924
-0.0918024
0.0973244
-0.0952932
0.101393
-0.0983862
0.105092
-0.101241
0.108585
-0.103979
0.112
-0.106688
0.115426
-0.109423
0.118917
-0.112221
0.12252
-0.115079
-0.118121
0.126211
0.000506457
-0.000611126
0.00222362
-0.00395885
0.00534715
-0.00926874
0.00999076
-0.0163133
0.0161354
-0.024775
0.023591
-0.0342056
0.0319984
-0.0440585
0.0408795
-0.0537675
0.0497228
-0.0628408
0.0580748
-0.0709326
0.0656099
-0.0778757
0.0721633
-0.0836711
0.077725
-0.0884477
0.0824041
-0.0924082
0.0863792
-0.0957775
0.0898498
-0.0987637
0.0929993
-0.101536
0.0959759
-0.104217
0.0988869
-0.10689
0.101804
-0.109606
0.104774
-0.112393
0.107821
-0.115268
0.110973
-0.118231
-0.121349
0.114201
0.000643159
-0.00125429
0.00272175
-0.00603744
0.00637743
-0.0129244
0.0116264
-0.0215623
0.0183022
-0.0314507
0.0260412
-0.0419447
0.0343332
-0.0523505
0.0426217
-0.062056
0.050415
-0.0706341
0.0573701
-0.0778876
0.063326
-0.0838316
0.0682898
-0.0886349
0.0723894
-0.0925473
0.0758152
-0.0958339
0.0787678
-0.0987301
0.0814235
-0.101419
0.0839184
-0.104031
0.086348
-0.106647
0.088774
-0.109316
0.0912347
-0.112066
0.093753
-0.114911
0.0963412
-0.117856
0.0990114
-0.120902
-0.124076
0.101739
0.000789273
-0.00204356
0.00322669
-0.00847486
0.00736189
-0.0170596
0.0130716
-0.027272
0.0200141
-0.0383932
0.0276631
-0.0495937
0.0354163
-0.0601036
0.042729
-0.0693687
0.0492181
-0.0771233
0.054704
-0.0833735
0.059192
-0.0883196
0.0628164
-0.0922594
0.0657738
-0.0955047
0.0682664
-0.0983265
0.0704674
-0.100931
0.0725069
-0.103459
0.0744738
-0.105998
0.0764239
-0.108597
0.0783911
-0.111283
0.0803954
-0.114071
0.0824483
-0.116964
0.0845562
-0.119964
0.086725
-0.12307
-0.126288
0.0889364
0.000936359
-0.00297992
0.00370295
-0.0112414
0.00821886
-0.0215755
0.0141894
-0.0332426
0.0210974
-0.0453012
0.0283007
-0.056797
0.0351873
-0.0669902
0.0413079
-0.0754893
0.0464367
-0.082252
0.0505562
-0.0874931
0.0537951
-0.0915585
0.0563519
-0.0948162
0.0584324
-0.0975852
0.0602115
-0.100106
0.0618186
-0.102538
0.0633402
-0.104981
0.0648296
-0.107487
0.0663181
-0.110085
0.0678241
-0.112789
0.0693582
-0.115605
0.0709268
-0.118532
0.0725335
-0.121571
0.0741802
-0.124717
-0.127963
0.0758556
0.00107451
-0.00405443
0.00411314
-0.0142801
0.00887155
-0.0263339
0.0148712
-0.0392422
0.0214499
-0.0518799
0.0279212
-0.0632683
0.0337428
-0.0728119
0.0386108
-0.0803572
0.042459
-0.0861002
0.0453948
-0.0904289
0.0476137
-0.0937773
0.0493263
-0.0965288
0.0507138
-0.0989727
0.0519101
-0.101302
0.0530035
-0.103632
0.0540476
-0.106025
0.055073
-0.108512
0.0560972
-0.111109
0.0571305
-0.113823
0.0581792
-0.116653
0.0592471
-0.1196
0.0603361
-0.12266
0.0614461
-0.125827
-0.129089
0.0625716
0.0011936
-0.00524803
0.0044231
-0.0175096
0.00925939
-0.0311702
0.0150521
-0.0450349
0.02105
-0.0578779
0.0265979
-0.0688162
0.0312782
-0.0774922
0.034943
-0.084022
0.0376565
-0.0888137
0.0396011
-0.0923735
0.0409918
-0.0951681
0.0420198
-0.0975568
0.0428283
-0.0997812
0.0435121
-0.101986
0.0441277
-0.104247
0.0447069
-0.106604
0.0452673
-0.109073
0.0458191
-0.111661
0.0463687
-0.114372
0.0469201
-0.117205
0.0474757
-0.120156
0.048036
-0.12322
0.0485991
-0.12639
-0.129653
0.0491631
0.00128711
-0.00653514
0.00460912
-0.0208316
0.00934749
-0.0359086
0.0147173
-0.0504047
0.0199477
-0.0631083
0.0244758
-0.0733442
0.0280311
-0.0810475
0.0306025
-0.0865934
0.0323416
-0.0905528
0.033462
-0.0934939
0.0341667
-0.0958728
0.0346133
-0.0980034
0.0349074
-0.100075
0.0351124
-0.102191
0.0352632
-0.104398
0.0353782
-0.106719
0.0354677
-0.109162
0.0355383
-0.111732
0.0355943
-0.114428
0.0356389
-0.117249
0.0356739
-0.120191
0.0356997
-0.123246
0.0357135
-0.126404
0.0357162
-0.129655
-0.000237598
-6.87373e-05
0.000306335
-0.000822868
-0.000467087
0.00105236
-0.0016787
-0.00102804
0.00188388
-0.00274847
-0.00167142
0.00274119
-0.00398891
-0.002344
0.00358444
-0.00536643
-0.00301974
0.00439727
-0.00685456
-0.00369473
0.00518286
-0.00843204
-0.00438017
0.00595764
-0.0100814
-0.00509514
0.00674447
-0.0117877
-0.00586048
0.00756682
-0.0135378
-0.0066944
0.00844446
-0.0153188
-0.00761014
0.00939119
-0.0171177
-0.00861507
0.010414
-0.0189201
-0.00971059
0.011513
-0.02071
-0.0108922
0.0126821
-0.0224694
-0.0121493
0.0139087
-0.0241791
-0.0134644
0.0151741
-0.0258193
-0.0148124
0.0164526
-0.0273723
-0.0161588
0.0177118
-0.0288251
-0.0174596
0.0189124
-0.0301724
-0.0186623
0.0200096
-0.0314206
-0.019705
0.0209533
-0.0325968
-0.0205082
0.0216843
-0.0209879
-0.0337571
0.0221482
-0.000257563
0.000188826
-0.000890623
0.000165973
-0.00181411
-0.000104557
-0.00296514
-0.000520398
-0.0042957
-0.00101344
-0.00576924
-0.00154621
-0.00735792
-0.00210605
-0.00904058
-0.00269751
-0.0108009
-0.00333481
-0.0126259
-0.00403552
-0.0145042
-0.00481605
-0.0164251
-0.00568921
-0.0183771
-0.00666312
-0.0203468
-0.0077409
-0.0223185
-0.00892046
-0.0242739
-0.0101939
-0.0261917
-0.0115465
-0.0280493
-0.0129548
-0.0298241
-0.0143841
-0.0314972
-0.0157865
-0.0330593
-0.0171003
-0.0345138
-0.0182505
-0.035882
-0.01914
-0.0196515
-0.0372184
-0.000259584
0.00044841
-0.000899172
0.000805561
-0.00183187
0.000828141
-0.00299174
0.000639472
-0.00432742
0.00032224
-0.00579948
-7.41446e-05
-0.00737791
-0.000527626
-0.00904005
-0.00103536
-0.0107688
-0.0016061
-0.0125505
-0.00225379
-0.0143735
-0.00299302
-0.0162265
-0.00383621
-0.0180971
-0.0047925
-0.019971
-0.00586709
-0.0218306
-0.00706083
-0.023655
-0.00836949
-0.0254191
-0.00978248
-0.0270932
-0.0112807
-0.0286438
-0.0128334
-0.0300364
-0.0143939
-0.0312418
-0.0158949
-0.0322434
-0.0172488
-0.0330395
-0.0183439
-0.0189995
-0.0336915
-0.000242915
0.000691325
-0.000846083
0.00140873
-0.00172719
0.00170925
-0.00282052
0.0017328
-0.00407282
0.00157454
-0.00544144
0.00129448
-0.00689298
0.000923913
-0.00840118
0.000472833
-0.0099454
-6.18839e-05
-0.0115084
-0.000690764
-0.0130747
-0.0014267
-0.0146291
-0.00228189
-0.0161549
-0.00326665
-0.0176338
-0.00438819
-0.0190445
-0.00565014
-0.0203623
-0.00705172
-0.0215582
-0.00858657
-0.0225979
-0.0102409
-0.0234405
-0.0119908
-0.0240373
-0.0137972
-0.0243354
-0.0155968
-0.0242889
-0.0172953
-0.0238605
-0.0187724
-0.0198522
-0.0230078
-0.000209483
0.000900808
-0.000736563
0.00193581
-0.00150873
0.00248141
-0.00246317
0.00268724
-0.00354553
0.0026569
-0.00470969
0.00245864
-0.00591712
0.00213134
-0.00713568
0.00169139
-0.00833759
0.00114003
-0.00949722
0.000468863
-0.0105915
-0.000332388
-0.0115967
-0.00127667
-0.0124871
-0.00237631
-0.0132351
-0.00364014
-0.0138114
-0.00507383
-0.0141845
-0.00667865
-0.0143208
-0.00845029
-0.0141843
-0.0103774
-0.0137355
-0.0124397
-0.0129274
-0.0146052
-0.0117013
-0.0168229
-0.0099889
-0.0190077
-0.00773834
-0.0210229
-0.0226267
-0.00496384
-0.0001634
0.00106421
-0.000582365
0.00235478
-0.001197
0.00309604
-0.00194881
0.00343906
-0.00278264
0.00349073
-0.00364799
0.00332399
-0.00449933
0.00298268
-0.00529539
0.00248745
-0.00599784
0.00184248
-0.00657056
0.00104158
-0.00697285
6.99067e-05
-0.00717196
-0.00107756
-0.00712509
-0.00242318
-0.00679064
-0.0039746
-0.00612545
-0.00573901
-0.00508602
-0.00771809
-0.00362988
-0.00990644
-0.00171695
-0.0122903
0.000689715
-0.0148464
0.00362519
-0.0175407
0.00712907
-0.0203268
0.0112578
-0.0231364
0.0160563
-0.0258214
-0.0283386
0.0217682
-0.000110357
0.00117456
-0.00040007
0.00264449
-0.000821469
0.00351744
-0.00132009
0.00393768
-0.00183932
0.00400997
-0.00232307
0.00380774
-0.00271676
0.00337637
-0.00296733
0.00273802
-0.0030224
0.00189755
-0.00282909
0.00084827
-0.0023361
-0.000423083
-0.00148273
-0.00193093
-0.000214071
-0.00369184
0.00152886
-0.00571753
0.00380429
-0.00801444
0.00666759
-0.0105814
0.010169
-0.0134078
0.0143508
-0.0164721
0.0192451
-0.0197407
0.0248728
-0.0231684
0.0312411
-0.0266951
0.03838
-0.0302754
0.0462322
-0.0336736
-0.0373657
0.0552593
-5.6619e-05
0.00123118
-0.000208209
0.00279608
-0.000415517
0.00372475
-0.000625839
0.004148
-0.000779497
0.00416362
-0.000813069
0.00384131
-0.000661003
0.00322431
-0.000256182
0.0023332
0.000470183
0.00117118
0.00158874
-0.000270291
0.00317164
-0.00200598
0.00529356
-0.00405285
0.00802755
-0.00642584
0.0114443
-0.00913428
0.0156087
-0.0121788
0.0205762
-0.0155489
0.0263893
-0.019221
0.0330747
-0.0231574
0.0406404
-0.0273065
0.0490774
-0.0316053
0.0583501
-0.0359678
0.0684501
-0.0403754
0.0792213
-0.0444448
-0.0492455
0.0911011
-7.75222e-06
0.00123894
-2.32604e-05
0.00281159
-9.11838e-06
0.00371061
8.96269e-05
0.00404925
0.000338741
0.00391451
0.000811366
0.00336868
0.00158612
0.00244956
0.00274599
0.00117332
0.00437738
-0.000460205
0.00656875
-0.00246166
0.00940898
-0.00484621
0.0129842
-0.00762808
0.0173739
-0.0108155
0.0226461
-0.0144065
0.0288526
-0.0183853
0.0360238
-0.0227201
0.0441653
-0.0273625
0.0532559
-0.032248
0.0632473
-0.0372978
0.074067
-0.0424251
0.0856218
-0.0475226
0.0978232
-0.0525768
0.110502
-0.0571241
-0.0625548
0.123812
3.27392e-05
0.0012062
0.000143904
0.00270042
0.000378217
0.0034763
0.00079855
0.00362892
0.00148055
0.00323251
0.00251003
0.0023392
0.00398095
0.00097864
0.00599307
-0.000838794
0.00864916
-0.0031163
0.0120511
-0.00586365
0.016295
-0.0090901
0.0214646
-0.0127976
0.0276243
-0.0169752
0.0348123
-0.0215945
0.0430346
-0.0266075
0.0522609
-0.0319464
0.0624239
-0.0375256
0.0734216
-0.0432457
0.0851231
-0.0489993
0.0973745
-0.0546764
0.110018
-0.0601664
0.122872
-0.0654302
0.135851
-0.0701036
-0.0754107
0.148707
6.46127e-05
0.00114158
0.000293067
0.00247197
0.000746557
0.00302281
0.00150223
0.00287324
0.00265063
0.00208411
0.00429365
0.000696179
0.00654186
-0.00126956
0.00950992
-0.00380686
0.0133105
-0.00691684
0.0180461
-0.0105993
0.0238
-0.014844
0.0306258
-0.0196234
0.0385385
-0.0248879
0.0475077
-0.0305637
0.0574546
-0.0365544
0.0682536
-0.0427454
0.0797385
-0.0490105
0.091714
-0.0552212
0.103969
-0.0612544
0.116297
-0.067004
0.12851
-0.0723795
0.140423
-0.077343
0.151999
-0.0816798
-0.0859839
0.162572
9.1672e-05
0.000435827
0.00111842
0.00223709
0.00390177
0.00623243
0.00935365
0.0133864
0.0184365
0.0245816
0.0318576
0.0402477
0.0496757
0.0600057
0.0710484
0.0825737
0.0943286
0.106057
0.117521
0.128523
0.138911
0.148635
0.157837
0.166672
-0.0335198
-0.0303073
0.03007
-0.0329908
-0.0296645
0.0291356
-0.0321209
-0.0277146
0.0268447
-0.030835
-0.0242285
0.0229426
-0.0290421
-0.0189132
0.0171203
-0.0266581
-0.0115445
0.00916061
-0.0237273
-0.00194079
-0.000990107
-0.0202436
0.00985757
-0.0133412
-0.0162763
0.0238832
-0.0278506
-0.0119262
0.0396926
-0.0440427
-0.00735634
0.0567096
-0.0612795
-0.00283973
0.0741619
-0.0786785
0.00142011
0.0911527
-0.0954126
0.00530748
0.106756
-0.110643
0.0092581
0.119622
-0.123573
0.0139072
0.128573
-0.133222
0.0201921
0.13159
-0.137874
0.0288863
0.126311
-0.135005
0.0400468
0.110858
-0.122018
0.0529019
0.0845527
-0.0974079
0.0664618
0.0480358
-0.0615957
0.0800507
0.00298983
-0.0165787
0.0932327
-0.0470372
0.0338552
0.105265
-0.0959376
0.0839051
0.114975
-0.136012
0.126303
0.121462
-0.163072
0.156585
0.124784
-0.177456
0.174134
0.125089
-0.181891
0.181586
0.121395
-0.182307
0.186001
0.113238
-0.187166
0.195323
0.103491
-0.196977
0.206724
0.0975855
-0.195573
0.201478
0.0990688
-0.161057
0.159573
0.107242
-0.0883986
0.0802252
0.11872
0.00462585
-0.0161035
0.129773
0.0940702
-0.105124
0.138461
0.16248
-0.171168
0.144229
0.203026
-0.208794
0.145652
0.22301
-0.224433
0.141126
0.242116
-0.237591
0.132228
0.266643
-0.257745
0.124046
0.270219
-0.262037
0.121199
0.217106
-0.214259
0.124254
0.102789
-0.105845
0.131109
-0.0336451
0.0267908
0.138968
-0.148867
0.141008
0.143939
-0.216544
0.211573
0.142441
-0.257377
0.258874
0.135046
-0.287011
0.294406
0.126169
-0.297845
0.306722
0.121069
-0.251541
0.256641
0.121887
-0.135774
0.134957
0.127636
-0.000882674
-0.00486688
0.132651
0.137093
-0.142108
0.132566
0.212394
-0.212309
0.127907
0.299627
-0.294968
0.121758
0.288245
-0.282097
0.119503
0.240489
-0.238234
0.123688
0.117042
-0.121228
-0.0568788
0.0527467
-0.0375005
-0.0300252
-0.0374854
-0.0296796
-0.0371376
-0.0280624
-0.0363709
-0.0249952
-0.0350739
-0.0202102
-0.033132
-0.0134865
-0.0304278
-0.00464495
-0.027048
0.00647771
-0.0229579
0.0197932
-0.0181785
0.0349132
-0.0127945
0.0513256
-0.00700772
0.0683751
-0.000975377
0.0851204
0.00566049
0.10012
0.0128537
0.112429
0.0211198
0.120307
0.030955
0.121754
0.0425131
0.114753
0.0553703
0.0980004
0.0686414
0.0712817
0.08153
0.0351472
0.0936347
-0.00911481
0.104878
-0.0582801
0.114585
-0.105645
0.121835
-0.143263
0.125929
-0.167166
0.127088
-0.178615
0.125939
-0.180743
0.121755
-0.178122
0.113264
-0.178675
0.102248
-0.185961
0.094244
-0.187569
0.0940832
-0.160896
0.101801
-0.0961165
0.11393
-0.00750266
0.126369
0.0816306
0.136867
0.151982
0.144222
0.195671
0.146614
0.220618
0.142764
0.245967
0.134707
0.2747
0.127437
0.27749
0.124996
0.219547
0.127564
0.100222
0.133198
-0.0392798
0.13975
-0.155419
0.143995
-0.220789
0.142177
-0.255559
0.134616
-0.279449
0.12578
-0.289008
0.120873
-0.246634
0.121992
-0.136893
0.127854
-0.00674403
0.132657
0.13229
0.132056
0.212995
0.127143
0.304541
0.121264
0.294124
0.119167
0.242586
0.123781
0.112428
-0.061423
-0.0343642
-0.0293525
-0.0347461
-0.0292977
-0.0347707
-0.0280378
-0.034367
-0.0253989
-0.0334275
-0.0211497
-0.0318277
-0.0150863
-0.0293693
-0.00710343
-0.0260395
0.00314799
-0.0218821
0.0156358
-0.0167931
0.0298241
-0.0106312
0.0451637
-0.00379131
0.0615353
0.00433648
0.0769926
0.0132676
0.0911885
0.0230806
0.102616
0.0339907
0.109397
0.0460931
0.109652
0.0591324
0.101714
0.07247
0.0846627
0.085249
0.0585027
0.0968577
0.0235385
0.107209
-0.0194662
0.116261
-0.0673325
0.123483
-0.112866
0.128194
-0.147974
0.129983
-0.168956
0.129154
-0.177786
0.126626
-0.178215
0.122119
-0.173615
0.113833
-0.170389
0.102178
-0.174306
0.0922471
-0.177638
0.0900597
-0.158708
0.0968841
-0.102941
0.10928
-0.0198981
0.122983
0.0679271
0.135214
0.139751
0.144106
0.186779
0.14755
0.217174
0.144586
0.24893
0.137556
0.281731
0.131195
0.28385
0.129037
0.221705
0.131041
0.0982177
0.135426
-0.0436646
0.140582
-0.160575
0.144073
-0.22428
0.142022
-0.253507
0.134367
-0.271794
0.125614
-0.280256
0.120961
-0.241981
0.122385
-0.138318
0.128246
-0.0126042
0.132766
0.12777
0.131675
0.214086
0.126518
0.309698
0.120976
0.299665
0.119185
0.244377
0.124216
0.107397
-0.0662986
-0.0241687
-0.0281916
-0.0250317
-0.0284348
-0.0254498
-0.0276197
-0.0253656
-0.0254831
-0.0246864
-0.0218289
-0.0233048
-0.0164678
-0.0211308
-0.00927745
-0.0177588
-0.000224025
-0.013479
0.011356
-0.00829549
0.0246407
-0.00184694
0.0387151
0.00663982
0.0530485
0.0160648
0.0675676
0.0265
0.0807533
0.0379633
0.0911524
0.0503705
0.0969894
0.0635017
0.0965208
0.076889
0.0883263
0.0898195
0.0717323
0.101535
0.0467872
0.111607
0.013466
0.120089
-0.027948
0.126966
-0.0742091
0.131733
-0.117633
0.133926
-0.150167
0.133511
-0.168541
0.13091
-0.175184
0.127091
-0.174395
0.122287
-0.168812
0.114624
-0.162726
0.103107
-0.16279
0.091695
-0.166225
0.0872084
-0.154222
0.0925614
-0.108294
0.104882
-0.0322184
0.119634
0.0531749
0.133466
0.125919
0.14383
0.176415
0.148417
0.212587
0.146554
0.250793
0.140692
0.287593
0.135195
0.289347
0.133169
0.22373
0.134556
0.0968313
0.137734
-0.0468425
0.141455
-0.164296
0.144145
-0.22697
0.141933
-0.251296
0.134254
-0.264115
0.125595
-0.271597
0.121227
-0.237613
0.122968
-0.140059
0.128753
-0.0183899
0.132959
0.123564
0.131424
0.215621
0.12604
0.315082
0.120895
0.30481
0.119554
0.245719
0.125002
0.10195
-0.0714311
-0.00680398
-0.0263515
-0.00855716
-0.0266816
-0.00972122
-0.0264557
-0.0102589
-0.0249454
-0.0100824
-0.0220054
-0.00908403
-0.0174662
-0.00715765
-0.0112038
-0.00414051
-0.00324117
1.48648e-05
0.00720064
0.00610617
0.0185494
0.0135303
0.031291
0.022092
0.0444869
0.0319908
0.0576688
0.0430927
0.0696514
0.0552433
0.0790018
0.0681519
0.0840808
0.0813794
0.0832933
0.0943362
0.0753696
0.106324
0.0597447
0.116694
0.0364167
0.12519
0.00497023
0.131886
-0.0346439
0.136689
-0.0790123
0.139076
-0.12002
0.138809
-0.1499
0.136313
-0.166045
0.132207
-0.171078
0.1273
-0.169488
0.122176
-0.163688
0.115337
-0.155887
0.104688
-0.152141
0.0925056
-0.154043
0.0857145
-0.147431
0.0890813
-0.111661
0.100837
-0.0439746
0.116344
0.0376685
0.13156
0.110703
0.143309
0.164666
0.149138
0.206758
0.14858
0.251351
0.144011
0.292163
0.139302
0.294056
0.137234
0.225798
0.138004
0.0960612
0.140053
-0.0488912
0.142348
-0.166591
0.14418
-0.228802
0.141872
-0.248987
0.134246
-0.25649
0.125657
-0.263008
0.121561
-0.233516
0.123631
-0.142129
0.129317
-0.0240758
0.133216
0.119665
0.131304
0.217533
0.125722
0.320664
0.121013
0.309518
0.120246
0.246486
0.126118
0.0960772
-0.0767619
0.0187506
-0.0233338
0.0158774
-0.0238084
0.013446
-0.0240242
0.0117222
-0.0232216
0.0108545
-0.0211377
0.0110194
-0.0176312
0.012367
-0.0125515
0.0149427
-0.00581686
0.0192198
0.0029235
0.024544
0.0132252
0.0314932
0.0243418
0.0398948
0.0360853
0.0497028
0.0478608
0.0607646
0.0585897
0.072821
0.0669454
0.0854574
0.0714444
0.0981214
0.0706293
0.110182
0.0633085
0.120998
0.0489288
0.130029
0.0273863
0.137196
-0.00219693
0.14234
-0.0397885
0.145185
-0.0818567
0.145254
-0.12009
0.142656
-0.147301
0.138258
-0.161648
0.132906
-0.165726
0.127174
-0.163756
0.121713
-0.158227
0.115682
-0.149857
0.106469
-0.142928
0.0944089
-0.141983
0.0856344
-0.138656
0.0865775
-0.112604
0.0972503
-0.0546473
0.113089
0.0218301
0.129398
0.0943932
0.142429
0.151636
0.149604
0.199582
0.15054
0.250416
0.147371
0.295332
0.143373
0.298053
0.141164
0.228007
0.141265
0.0959598
0.142313
-0.0499389
0.143232
-0.167511
0.144145
-0.229715
0.141785
-0.246628
0.134306
-0.24901
0.125747
-0.254449
0.12186
-0.229629
0.124264
-0.144534
0.129873
-0.0296846
0.13351
0.116028
0.131308
0.219734
0.125573
0.326399
0.121317
0.313774
0.121219
0.246584
0.127535
0.0897618
-0.082251
0.0511078
-0.0191823
0.0471819
-0.0198825
0.043519
-0.0203613
0.0403572
-0.0200597
0.037938
-0.0187185
0.0364938
-0.016187
0.0362399
-0.0122976
0.0373317
-0.00690865
0.040271
-1.57728e-05
0.0445432
0.00895297
0.0505608
0.0183242
0.0582049
0.0284412
0.0673607
0.038705
0.0778099
0.0481404
0.0892098
0.0555455
0.101071
0.0595835
0.11279
0.0589097
0.123742
0.0523567
0.133357
0.0393138
0.141205
0.0195389
0.147229
-0.00822142
0.151049
-0.0436087
0.152085
-0.0828919
0.149989
-0.117994
0.145298
-0.14261
0.139249
-0.155598
0.1329
-0.159377
0.126626
-0.157482
0.120874
-0.152475
0.115461
-0.144443
0.107957
-0.135424
0.0969426
-0.130969
0.0868617
-0.128575
0.0851597
-0.110902
0.0941092
-0.0635969
0.109775
0.00616423
0.126841
0.0773271
0.141036
0.13744
0.149662
0.190956
0.152294
0.247784
0.150638
0.296988
0.147326
0.301365
0.144846
0.230488
0.144288
0.0965179
0.144436
-0.0500874
0.144076
-0.167151
0.144012
-0.229651
0.141621
-0.244237
0.134391
-0.24178
0.125827
-0.245885
0.122043
-0.225844
0.124764
-0.147255
0.130357
-0.0352777
0.13381
0.112576
0.13143
0.222115
0.125606
0.332222
0.121798
0.317583
0.122431
0.245951
0.129217
0.0829752
-0.0878744
0.0862564
-0.0143376
0.0816114
-0.0152376
0.0771157
-0.0158656
0.0728649
-0.015809
0.069082
-0.0149356
0.0660225
-0.0131275
0.0639549
-0.01023
0.0631275
-0.00608132
0.0639287
-0.00081691
0.0663412
0.00654048
0.0706081
0.0140573
0.0767039
0.0223454
0.0844984
0.0309104
0.0937195
0.0389193
0.10396
0.0453048
0.114681
0.048863
0.125251
0.048339
0.135049
0.0425594
0.143555
0.0308078
0.150381
0.0127125
0.155394
-0.0132345
0.157932
-0.0461471
0.157202
-0.0821618
0.153102
-0.113894
0.146618
-0.136126
0.139236
-0.148216
0.132126
-0.152266
0.125564
-0.15092
0.119646
-0.146558
0.114604
-0.139401
0.108739
-0.129559
0.0995133
-0.121744
0.0890961
-0.118158
0.0848392
-0.106645
0.0914157
-0.0701734
0.10627
-0.00868979
0.123728
0.0598691
0.138976
0.122192
0.149136
0.180796
0.15362
0.243301
0.15361
0.296998
0.151026
0.303948
0.148239
0.233275
0.146999
0.0977578
0.146348
-0.0494367
0.144829
-0.165632
0.14375
-0.228572
0.141322
-0.241809
0.134453
-0.234912
0.125871
-0.237303
0.122056
-0.222029
0.125039
-0.150237
0.130715
-0.0409538
0.134086
0.109205
0.131654
0.224547
0.125827
0.338049
0.122448
0.320961
0.123852
0.244548
0.131134
0.0756925
-0.0936219
0.118793
-0.00931876
0.113924
-0.0103685
0.109122
-0.011064
0.104458
-0.0111443
0.100086
-0.0105639
0.0961943
-0.00923577
0.0930105
-0.00704619
0.0907949
-0.00386579
0.0896169
0.000361092
0.0900389
0.00611851
0.0921562
0.01194
0.0961175
0.0183841
0.101882
0.0251457
0.109227
0.0315744
0.117758
0.0367742
0.126932
0.0396884
0.136117
0.0391545
0.144673
0.0340033
0.152068
0.0234128
0.157855
0.00692514
0.161782
-0.0171608
0.16289
-0.0472558
0.160356
-0.0796277
0.154429
-0.107967
0.146493
-0.12819
0.138141
-0.139865
0.130503
-0.144628
0.123839
-0.144256
0.117935
-0.140654
0.113086
-0.134551
0.108538
-0.125011
0.101492
-0.114698
0.0918142
-0.108481
0.085546
-0.100377
0.0892192
-0.0738466
0.102496
-0.0219669
0.119899
0.0424662
0.136073
0.106018
0.147853
0.169015
0.154395
0.23676
0.156199
0.295194
0.154385
0.305762
0.151284
0.236377
0.149355
0.0996861
0.147973
-0.0480548
0.145422
-0.16308
0.143314
-0.226464
0.140822
-0.239317
0.134431
-0.228521
0.125862
-0.228734
0.121875
-0.218042
0.125036
-0.153399
0.130879
-0.0467972
0.134307
0.105778
0.131966
0.226887
0.126237
0.343778
0.123273
0.323925
0.125465
0.242356
0.133269
0.0678888
-0.0994854
0.144058
-0.00466945
0.139414
-0.0057244
0.134733
-0.00638348
0.130187
-0.00659851
0.125928
-0.00630491
0.122058
-0.00536556
0.118679
-0.0036673
0.116068
-0.00125467
0.114017
0.00241227
0.113335
0.00680017
0.113923
0.0113526
0.116019
0.0162882
0.119708
0.0214568
0.124907
0.0263752
0.131351
0.0303298
0.138599
0.0324401
0.146072
0.0316822
0.153126
0.0269494
0.15923
0.0173081
0.163864
0.00229138
0.166364
-0.0196602
0.165742
-0.046634
0.161349
-0.0752348
0.153823
-0.100441
0.144801
-0.119168
0.135835
-0.130899
0.127892
-0.136685
0.121252
-0.137616
0.115545
-0.134946
0.110849
-0.129855
0.107203
-0.121365
0.102335
-0.10983
0.0943354
-0.100481
0.0870215
-0.0930629
0.0876363
-0.0744614
0.0985429
-0.0328735
0.115279
0.0257302
0.13219
0.0891076
0.145601
0.155604
0.154264
0.228098
0.158018
0.291439
0.157198
0.306582
0.153939
0.239636
0.151338
0.102287
0.149272
-0.0459886
0.145806
-0.159614
0.142683
-0.223341
0.140081
-0.236716
0.134272
-0.222711
0.125797
-0.220259
0.121509
-0.213754
0.124712
-0.156602
0.130808
-0.052893
0.134442
0.102143
0.132341
0.228989
0.126829
0.349291
0.124281
0.326473
0.127276
0.239362
0.135607
0.0595577
-0.105458
0.158763
-0.000860503
0.154744
-0.00170498
0.150637
-0.00227673
0.146701
-0.0026625
0.143061
-0.00266463
0.139797
-0.00210233
0.137119
-0.000988548
0.134765
0.00109926
0.133117
0.00405952
0.132336
0.00758193
0.132375
0.0113128
0.13356
0.0151038
0.13596
0.0190567
0.139561
0.0227738
0.144191
0.0257003
0.149551
0.0270804
0.155204
0.0260289
0.160569
0.0215839
0.164988
0.0128896
0.168038
-0.000758292
0.168923
-0.0205459
0.166424
-0.0441347
0.160339
-0.0691499
0.151639
-0.0917416
0.142002
-0.109531
0.132803
-0.121699
0.124775
-0.128657
0.118202
-0.131043
0.112755
-0.129499
0.10821
-0.125311
0.105018
-0.118173
0.101921
-0.106732
0.0961318
-0.0946916
0.0889118
-0.0858429
0.086844
-0.0723937
0.0946756
-0.0407051
0.109917
0.0104888
0.127246
0.0717781
0.14238
0.140471
0.153413
0.217065
0.159309
0.285542
0.159468
0.306423
0.156157
0.242947
0.153059
0.105385
0.150347
-0.0432764
0.146064
-0.155331
0.141971
-0.219248
0.13917
-0.233915
0.133979
-0.21752
0.125703
-0.211984
0.12102
-0.209071
0.124075
-0.159656
0.13046
-0.0592782
0.134459
0.0981436
0.132754
0.230694
0.127589
0.354455
0.125484
0.328578
0.129294
0.235551
0.138143
0.0507086
-0.111528
0.163676
0.00213546
0.160394
0.00157734
0.157133
0.00098397
0.154068
0.000402756
0.151239
0.000163631
0.148614
0.000522889
0.146246
0.00137927
0.144518
0.00282764
0.143572
0.00500546
0.143436
0.00771817
0.144047
0.0107015
0.145313
0.0138381
0.147342
0.0170273
0.150168
0.0199478
0.153706
0.0221621
0.157727
0.02306
0.161872
0.021884
0.165676
0.0177795
0.168622
0.00994363
0.170088
-0.00222435
0.168842
-0.0193002
0.1646
-0.0398924
0.157391
-0.0619408
0.148313
-0.0826638
0.138782
-0.0999993
0.129857
-0.112774
0.122037
-0.120837
0.115581
-0.124588
0.110349
-0.124266
0.105932
-0.120894
0.102798
-0.115039
0.100775
-0.104709
0.0971604
-0.0910774
0.0909556
-0.0796381
0.0870121
-0.0684502
0.0914295
-0.0451225
0.104237
-0.0023184
0.121129
0.0548855
0.137427
0.124173
0.15076
0.203731
0.159085
0.277217
0.160622
0.304886
0.157692
0.245877
0.154449
0.108628
0.151121
-0.039949
0.146187
-0.150396
0.141273
-0.214334
0.138187
-0.230829
0.133574
-0.212907
0.125588
-0.203998
0.120473
-0.203956
0.123225
-0.162408
0.12985
-0.065903
0.134352
0.0936416
0.133192
0.231854
0.128504
0.359142
0.126894
0.330189
0.131538
0.230907
0.140884
0.0413625
-0.117669
0.188058
0.00488391
-0.190806
0.185798
0.00383742
0.183486
0.00329578
0.180997
0.00289117
0.178409
0.0027516
0.17589
0.00304186
0.173472
0.00379793
0.171228
0.00507107
0.169333
0.0069006
0.167888
0.00916321
0.166918
0.0116721
0.166501
0.0142546
0.166809
0.0167192
0.167991
0.0187658
0.170173
0.0199806
0.173409
0.0198233
0.177645
0.0176482
0.182643
0.012782
0.187881
0.00470485
0.192849
-0.00719159
0.196377
-0.0228284
0.197598
-0.0411133
0.195994
-0.0603371
0.191757
-0.0784267
0.185487
-0.0937298
0.177915
-0.105202
0.169658
-0.11258
0.161261
-0.116191
0.153124
-0.11613
0.145149
-0.112919
0.137549
-0.107438
0.130898
-0.0980583
0.123878
-0.0840574
0.114398
-0.0701581
0.104235
-0.0582871
0.098649
-0.0395362
0.1005
-0.0041695
0.106282
0.0491033
0.112535
0.117921
0.11778
0.198486
0.122956
0.272042
0.130282
0.29756
0.141637
0.234522
0.153916
0.0963487
0.161953
-0.0479854
0.162722
-0.151165
0.158204
-0.209815
0.152208
-0.224834
0.144651
-0.20535
0.134488
-0.193834
0.12583
-0.195298
0.122905
-0.159482
0.122943
-0.065941
0.121955
0.0946294
0.117939
0.23587
0.114013
0.363068
0.115092
0.32911
0.121951
0.224049
0.131214
0.0320991
-0.121845
0.199345
0.00653987
-0.201001
0.197632
0.00555062
0.195945
0.00498274
0.194163
0.00467317
0.192324
0.00459124
0.190536
0.00482982
0.188873
0.00546111
0.18742
0.00652337
0.186304
0.00801639
0.185613
0.0098543
0.185407
0.0118786
0.185754
0.013908
0.186737
0.015736
0.188432
0.0170709
0.190885
0.0175278
0.194077
0.0166313
0.197876
0.0138483
0.202
0.00865798
0.206016
0.000688832
0.20935
-0.0105251
0.211131
-0.0246091
0.210749
-0.040732
0.207921
-0.0575089
0.202821
-0.0733269
0.195944
-0.0868528
0.187961
-0.0972183
0.179479
-0.104099
0.17095
-0.107661
0.162756
-0.107936
0.154862
-0.105025
0.147197
-0.0997738
0.140409
-0.0912709
0.133999
-0.0776475
0.125615
-0.0617732
0.115335
-0.0480072
0.107755
-0.0319564
0.106991
-0.00340529
0.111874
0.0442197
0.118613
0.111182
0.125266
0.191834
0.132302
0.265005
0.141959
0.287903
0.155223
0.221258
0.168325
0.0832472
0.176055
-0.0557156
0.175907
-0.151018
0.17003
-0.203939