/*--------------------------------*- C++ -*----------------------------------*\
| =========                 |                                                 |
| \\      /  F ield         | OpenFOAM: The Open Source CFD Toolbox           |
|  \\    /   O peration     | Version:  2512                                  |
|   \\  /    A nd           | Website:  www.openfoam.com                      |
|    \\/     M anipulation  |                                                 |
\*---------------------------------------------------------------------------*/
FoamFile
{
    version     2.0;
    format      ascii;
    arch        "LSB;label=32;scalar=64";
    class       volScalarField;
    location    "41.75";
    object      p;
}
// * * * * * * * * * * * * * * * * * * * * * * * * * * * * * * * * * * * * * //

dimensions      [0 2 -2 0 0 0 0];

internalField   nonuniform List<scalar> 
13248
(
-0.292001
-0.290398
-0.288327
-0.285944
-0.283438
-0.280992
-0.278745
-0.276763
-0.275061
-0.273604
-0.272316
-0.271087
-0.269789
-0.268282
-0.266427
-0.264103
-0.261213
-0.257692
-0.253506
-0.248685
-0.243171
-0.237204
-0.230128
-0.222962
-0.298789
-0.296598
-0.29392
-0.290926
-0.287805
-0.284769
-0.281941
-0.279378
-0.277066
-0.274939
-0.272888
-0.270779
-0.26847
-0.265826
-0.262732
-0.259109
-0.25491
-0.250127
-0.244783
-0.238921
-0.232581
-0.225847
-0.218586
-0.211496
-0.306926
-0.303971
-0.300579
-0.296916
-0.29315
-0.289484
-0.286029
-0.282804
-0.279753
-0.276773
-0.273728
-0.270478
-0.266896
-0.262887
-0.258393
-0.253398
-0.247921
-0.242013
-0.235736
-0.229164
-0.222338
-0.21536
-0.208147
-0.201129
-0.316598
-0.312688
-0.308475
-0.304086
-0.299627
-0.295272
-0.291089
-0.287043
-0.283031
-0.278919
-0.274575
-0.269888
-0.264789
-0.259252
-0.253298
-0.246978
-0.240366
-0.233541
-0.226575
-0.219531
-0.212446
-0.20539
-0.198286
-0.191586
-0.327903
-0.32286
-0.317727
-0.312551
-0.307328
-0.30217
-0.297081
-0.291962
-0.286677
-0.2811
-0.275143
-0.268772
-0.262006
-0.254907
-0.247563
-0.24007
-0.232517
-0.224977
-0.217502
-0.210128
-0.202872
-0.195766
-0.188762
-0.182173
-0.340843
-0.334516
-0.328384
-0.322356
-0.316258
-0.310107
-0.303831
-0.297287
-0.290348
-0.28295
-0.275107
-0.266892
-0.258422
-0.249828
-0.241231
-0.232732
-0.224402
-0.216286
-0.208405
-0.200766
-0.193367
-0.186211
-0.17926
-0.17274
-0.355299
-0.347588
-0.3404
-0.333436
-0.326285
-0.318848
-0.310995
-0.302591
-0.293592
-0.284063
-0.274153
-0.264049
-0.253939
-0.243981
-0.234289
-0.224937
-0.21596
-0.207365
-0.199144
-0.191281
-0.183755
-0.176547
-0.169633
-0.163136
-0.370999
-0.361868
-0.353585
-0.345557
-0.337084
-0.327955
-0.318045
-0.307321
-0.295903
-0.284032
-0.271997
-0.260065
-0.248446
-0.237281
-0.226647
-0.21657
-0.207043
-0.198042
-0.189531
-0.181476
-0.173841
-0.166593
-0.159716
-0.153234
-0.387486
-0.376966
-0.367552
-0.358271
-0.348101
-0.336784
-0.32431
-0.310859
-0.296782
-0.282503
-0.268409
-0.254792
-0.241835
-0.229628
-0.21819
-0.207499
-0.19751
-0.188168
-0.17942
-0.171212
-0.163498
-0.156237
-0.149406
-0.142952
-0.404086
-0.392273
-0.381673
-0.37086
-0.358534
-0.344506
-0.329029
-0.312588
-0.295785
-0.279179
-0.263195
-0.248091
-0.233983
-0.220893
-0.208781
-0.19758
-0.187212
-0.177601
-0.168672
-0.160361
-0.152608
-0.145368
-0.138597
-0.132193
-0.41991
-0.406939
-0.395049
-0.382345
-0.367364
-0.350161
-0.331385
-0.311873
-0.292435
-0.273698
-0.256052
-0.239677
-0.224607
-0.210789
-0.198132
-0.18653
-0.175878
-0.166079
-0.157044
-0.148695
-0.140964
-0.133797
-0.127118
-0.120816
-0.433929
-0.419981
-0.406677
-0.391678
-0.373546
-0.352777
-0.330524
-0.307972
-0.286073
-0.265441
-0.246378
-0.228958
-0.213122
-0.19875
-0.1857
-0.173832
-0.163018
-0.153143
-0.144105
-0.135815
-0.128198
-0.121188
-0.11468
-0.108606
-0.244231
-0.246081
-0.247278
-0.248098
-0.248793
-0.249422
-0.250014
-0.250586
-0.251143
-0.25168
-0.252189
-0.252657
-0.253067
-0.253406
-0.253656
-0.253801
-0.253824
-0.25371
-0.25345
-0.253045
-0.25249
-0.251792
-0.250988
-0.250152
-0.246641
-0.248371
-0.249507
-0.250309
-0.251013
-0.25168
-0.252337
-0.253002
-0.253677
-0.254359
-0.255035
-0.255692
-0.256311
-0.256873
-0.257354
-0.257729
-0.257969
-0.258042
-0.257908
-0.25761
-0.257062
-0.25625
-0.255192
-0.254039
-0.249689
-0.251214
-0.252233
-0.252976
-0.253656
-0.254331
-0.255028
-0.255762
-0.256536
-0.257344
-0.258173
-0.259007
-0.259825
-0.260603
-0.26131
-0.261914
-0.262374
-0.262648
-0.262696
-0.262403
-0.26179
-0.260777
-0.259328
-0.257782
-0.253232
-0.254482
-0.255334
-0.255979
-0.256595
-0.25724
-0.257939
-0.258708
-0.259547
-0.26045
-0.261402
-0.262386
-0.263376
-0.264345
-0.265255
-0.266064
-0.266717
-0.267151
-0.26729
-0.26705
-0.266364
-0.265112
-0.263154
-0.260992
-0.257099
-0.258031
-0.258675
-0.259177
-0.259684
-0.260249
-0.260901
-0.261654
-0.262508
-0.263456
-0.264482
-0.265565
-0.266679
-0.267789
-0.268855
-0.269822
-0.270625
-0.271183
-0.271397
-0.271163
-0.270371
-0.268878
-0.266383
-0.263173
-0.261125
-0.261721
-0.262124
-0.262439
-0.262783
-0.263208
-0.263748
-0.264417
-0.265218
-0.266141
-0.267169
-0.26828
-0.269442
-0.270619
-0.27176
-0.272805
-0.273678
-0.274284
-0.274507
-0.274213
-0.273265
-0.271479
-0.268506
-0.264249
-0.265176
-0.265445
-0.265583
-0.265664
-0.265782
-0.265997
-0.266347
-0.266851
-0.267513
-0.268325
-0.269268
-0.270316
-0.271433
-0.272576
-0.273689
-0.274702
-0.275528
-0.27606
-0.276172
-0.275714
-0.274526
-0.272387
-0.269241
-0.263605
-0.269178
-0.269149
-0.269002
-0.2688
-0.268626
-0.268552
-0.268626
-0.268875
-0.269308
-0.269916
-0.270679
-0.271567
-0.27254
-0.273544
-0.274515
-0.275374
-0.276022
-0.276343
-0.276202
-0.275442
-0.273937
-0.27129
-0.26828
-0.261421
-0.273147
-0.272843
-0.272395
-0.271859
-0.271325
-0.270883
-0.270598
-0.270506
-0.270622
-0.270938
-0.271434
-0.272072
-0.272806
-0.273572
-0.274294
-0.274878
-0.275217
-0.275185
-0.274653
-0.273452
-0.27158
-0.268356
-0.265521
-0.258156
-0.277184
-0.276624
-0.275847
-0.274924
-0.273966
-0.273086
-0.272368
-0.271861
-0.271586
-0.271538
-0.271692
-0.272004
-0.272413
-0.272842
-0.273198
-0.273373
-0.273248
-0.272698
-0.271611
-0.269833
-0.267486
-0.263825
-0.260902
-0.253851
-0.281489
-0.280657
-0.279509
-0.278144
-0.276701
-0.275323
-0.274113
-0.273133
-0.272408
-0.271934
-0.271677
-0.27158
-0.271565
-0.271534
-0.271374
-0.270961
-0.27017
-0.268883
-0.267006
-0.264459
-0.261363
-0.257363
-0.253992
-0.24777
-0.286331
-0.285167
-0.283587
-0.281723
-0.279745
-0.277823
-0.27608
-0.274587
-0.273372
-0.27242
-0.271683
-0.271083
-0.270517
-0.269863
-0.268989
-0.267762
-0.266059
-0.26378
-0.260846
-0.257251
-0.252999
-0.248233
-0.243543
-0.238135
-0.249172
-0.247744
-0.246205
-0.244573
-0.242892
-0.241226
-0.239639
-0.238193
-0.23694
-0.235903
-0.235057
-0.234309
-0.233464
-0.232231
-0.230273
-0.227493
-0.22336
-0.217663
-0.210385
-0.201798
-0.192651
-0.184055
-0.177093
-0.17247
-0.170169
-0.169148
-0.167061
-0.160902
-0.148541
-0.129387
-0.104727
-0.0778865
-0.0520686
-0.0296236
-0.0117635
0.00119768
0.00959266
0.0144558
0.0170689
0.0185014
0.0198459
0.021191
0.0222973
0.022835
0.0226501
0.0217418
0.0202266
0.0183411
0.0162989
0.0143932
0.0126414
0.0111908
0.00981945
0.00862613
0.00730642
0.00609525
0.00467907
0.00346482
0.00197416
0.00084309
-0.2528
-0.250512
-0.247888
-0.244924
-0.241643
-0.238114
-0.23442
-0.23065
-0.226908
-0.223287
-0.219857
-0.216643
-0.213587
-0.210532
-0.207372
-0.204288
-0.200844
-0.197051
-0.192706
-0.188197
-0.184191
-0.181581
-0.181091
-0.182789
-0.185967
-0.189072
-0.189028
-0.182683
-0.168237
-0.14551
-0.116575
-0.0854669
-0.0559191
-0.0304248
-0.0101017
0.00487513
0.014833
0.0205688
0.0232008
0.0239828
0.0241506
0.0241489
0.0240852
0.0236827
0.0227844
0.0213615
0.019508
0.0174552
0.0153979
0.0135956
0.012013
0.0107555
0.00955306
0.00850723
0.00729513
0.00616103
0.00478287
0.0035761
0.00206452
0.000888199
-0.25665
-0.253513
-0.249838
-0.245602
-0.24078
-0.235446
-0.229713
-0.223691
-0.217536
-0.211414
-0.205486
-0.19989
-0.194705
-0.1899
-0.185464
-0.182174
-0.179323
-0.177491
-0.175946
-0.175337
-0.176206
-0.179169
-0.184566
-0.191931
-0.19967
-0.206032
-0.207664
-0.201076
-0.184926
-0.159142
-0.126616
-0.0919938
-0.0594321
-0.0315249
-0.00928408
0.00728012
0.0185823
0.025287
0.0283261
0.028889
0.0282446
0.027085
0.0259161
0.0245394
0.0228664
0.0208883
0.0186917
0.0165009
0.01447
0.012803
0.0114068
0.0103404
0.0092962
0.00838254
0.00726737
0.00620473
0.00486711
0.00367061
0.00214878
0.000926599
-0.260576
-0.256587
-0.251964
-0.246615
-0.24042
-0.233438
-0.225884
-0.217814
-0.209464
-0.201065
-0.192866
-0.185111
-0.178012
-0.171681
-0.166051
-0.162544
-0.159928
-0.160365
-0.161155
-0.163975
-0.169131
-0.176918
-0.187215
-0.199125
-0.210712
-0.219616
-0.222532
-0.216108
-0.198521
-0.170375
-0.135096
-0.0978231
-0.0630158
-0.0333139
-0.00962236
0.00818218
0.0206151
0.0282944
0.0319914
0.0327352
0.031689
0.0296995
0.0275968
0.0252997
0.0228592
0.0203365
0.0178265
0.0155421
0.0135726
0.0120638
0.0108528
0.0099625
0.00905649
0.00825458
0.00722246
0.00622307
0.00492661
0.00374254
0.00221894
0.000955218
-0.26411
-0.259474
-0.253967
-0.24771
-0.240406
-0.232015
-0.223141
-0.213326
-0.203118
-0.192779
-0.182638
-0.173039
-0.164326
-0.156774
-0.149953
-0.146367
-0.143005
-0.146896
-0.148936
-0.154447
-0.162931
-0.174467
-0.188635
-0.204023
-0.218501
-0.229365
-0.233301
-0.227221
-0.20888
-0.179207
-0.142124
-0.103132
-0.0668649
-0.0359542
-0.0112195
0.00754704
0.0209225
0.0295145
0.0339895
0.035189
0.0341317
0.0316778
0.0288933
0.0258258
0.0227105
0.0197161
0.0169578
0.0146325
0.0127466
0.0114133
0.0103655
0.00962511
0.00883277
0.00812094
0.00715786
0.00621297
0.00495721
0.00378773
0.00227177
0.000971997
-0.266189
-0.261918
-0.25558
-0.248613
-0.24068
-0.231526
-0.221355
-0.210305
-0.198685
-0.186838
-0.175166
-0.164108
-0.154136
-0.145803
-0.13996
-0.134464
-0.132213
-0.134536
-0.138774
-0.146419
-0.157473
-0.171749
-0.188572
-0.206356
-0.222856
-0.235179
-0.240027
-0.234446
-0.215966
-0.185656
-0.147764
-0.10799
-0.0710122
-0.0394184
-0.0139832
0.00552101
0.0196831
0.0290988
0.0343709
0.036181
0.0354
0.0328164
0.0296356
0.0260181
0.0223921
0.0190481
0.0161285
0.0138055
0.0120217
0.0108454
0.00994431
0.00932244
0.00861903
0.00797711
0.00707093
0.00617263
0.00495684
0.0038043
0.00230456
0.000976311
-0.266596
-0.26296
-0.256147
-0.248763
-0.240568
-0.231066
-0.220325
-0.208578
-0.196116
-0.183302
-0.170578
-0.158436
-0.147413
-0.138066
-0.130867
-0.125838
-0.124074
-0.126065
-0.131252
-0.140129
-0.15271
-0.168623
-0.187001
-0.206212
-0.223948
-0.237242
-0.242961
-0.23794
-0.219838
-0.189759
-0.152055
-0.112401
-0.0753953
-0.0435708
-0.017715
0.00235276
0.0171822
0.0273375
0.0333763
0.0358661
0.035542
0.0330893
0.029786
0.025862
0.0219222
0.018371
0.0153766
0.0130757
0.0114254
0.0103685
0.0095805
0.00904507
0.00840842
0.00781921
0.00696037
0.00610221
0.00492574
0.00379267
0.00231653
0.00096894
-0.264808
-0.261716
-0.255041
-0.247785
-0.23975
-0.230331
-0.219554
-0.207671
-0.194953
-0.181755
-0.168524
-0.155758
-0.144022
-0.133908
-0.125988
-0.120789
-0.118932
-0.120671
-0.126053
-0.135346
-0.148499
-0.165056
-0.184056
-0.203844
-0.222106
-0.236069
-0.242391
-0.237949
-0.220623
-0.191564
-0.15499
-0.116289
-0.0798547
-0.0481819
-0.0221401
-0.00165535
0.0137397
0.0245596
0.0313229
0.0345172
0.0347618
0.0326267
0.0294233
0.0254177
0.0213546
0.0177297
0.0147161
0.0124673
0.0109271
0.00997168
0.00926169
0.00878412
0.00819585
0.00764557
0.00682698
0.0060039
0.00486626
0.00375514
0.00230854
0.000951759
-0.261023
-0.258051
-0.251488
-0.244927
-0.237647
-0.228897
-0.218675
-0.207212
-0.194762
-0.181703
-0.168475
-0.155539
-0.143451
-0.132821
-0.124442
-0.118836
-0.116576
-0.117813
-0.122834
-0.131847
-0.144776
-0.161136
-0.179947
-0.199572
-0.217736
-0.231846
-0.238642
-0.234836
-0.218674
-0.191269
-0.156572
-0.119534
-0.0841881
-0.0529948
-0.0269697
-0.00619728
0.00967149
0.0210838
0.0285201
0.03242
0.0333208
0.0322902
0.0286741
0.0247718
0.0207458
0.0171581
0.0141311
0.0120163
0.0105272
0.00963734
0.00897578
0.00853288
0.0079788
0.00745703
0.00667362
0.00588166
0.00478246
0.00369538
0.00228274
0.000927244
-0.255379
-0.252664
-0.247504
-0.240788
-0.233417
-0.225631
-0.216784
-0.206548
-0.19507
-0.182785
-0.170127
-0.157512
-0.14554
-0.134819
-0.125411
-0.119613
-0.116625
-0.117081
-0.121283
-0.129446
-0.141501
-0.156973
-0.17492
-0.193785
-0.211299
-0.22511
-0.2322
-0.229183
-0.214586
-0.189406
-0.15719
-0.122362
-0.0885402
-0.0580959
-0.0322246
-0.0112243
0.00509195
0.0170781
0.0251633
0.0297626
0.0313541
0.0306117
0.0276085
0.0239914
0.020128
0.0166466
0.0136404
0.0116339
0.0102075
0.00935056
0.00871382
0.00828743
0.00775691
0.00725598
0.00650419
0.00574033
0.00467923
0.00361801
0.00224239
0.000897959
-0.247346
-0.244696
-0.241672
-0.23739
-0.230915
-0.222444
-0.213341
-0.204381
-0.194264
-0.18339
-0.171872
-0.159966
-0.148414
-0.137835
-0.128531
-0.121847
-0.118457
-0.117909
-0.12092
-0.127789
-0.138494
-0.152616
-0.169287
-0.187033
-0.203884
-0.216811
-0.223444
-0.221405
-0.208874
-0.186561
-0.1574
-0.125182
-0.0932099
-0.0637254
-0.038099
-0.0168779
-7.91186e-05
0.0125282
0.0213006
0.0266259
0.0289183
0.0287124
0.0263603
0.0231222
0.0195132
0.0161366
0.0133466
0.0113387
0.00994813
0.00909854
0.00846867
0.00804518
0.00753019
0.00704452
0.0063217
0.00558373
0.00456053
0.003527
0.00219085
0.000866377
-0.237267
-0.236125
-0.234155
-0.230173
-0.22526
-0.220159
-0.213717
-0.204392
-0.194169
-0.183979
-0.174157
-0.163537
-0.152447
-0.14256
-0.133766
-0.126381
-0.121742
-0.120326
-0.121938
-0.127037
-0.135737
-0.147718
-0.162193
-0.17794
-0.193545
-0.206176
-0.212344
-0.210939
-0.200477
-0.181119
-0.1551
-0.125594
-0.0956221
-0.0674545
-0.0425543
-0.0215768
-0.00468235
0.00824549
0.0174851
0.0233744
0.0262524
0.0265903
0.0249756
0.0221124
0.0188389
0.0156438
0.0130339
0.0110618
0.00969409
0.00884749
0.00822173
0.00779879
0.00729696
0.00682449
0.00612873
0.00541496
0.00442894
0.00342427
0.00212993
0.000834245
-0.225058
-0.229158
-0.227022
-0.222736
-0.218248
-0.213329
-0.207258
-0.200154
-0.192357
-0.183433
-0.173088
-0.162922
-0.153129
-0.143008
-0.134546
-0.127864
-0.123522
-0.121791
-0.122908
-0.127319
-0.135137
-0.146075
-0.159384
-0.173923
-0.18805
-0.19891
-0.204228
-0.202315
-0.191893
-0.173349
-0.148804
-0.12114
-0.0930543
-0.0665764
-0.0430105
-0.0229905
-0.00670882
0.00589523
0.0150377
0.0210134
0.0241456
0.0248373
0.0235597
0.0210404
0.0179499
0.0149525
0.0124976
0.0106583
0.00936162
0.00855164
0.0079528
0.00754642
0.00706596
0.0066108
0.0059421
0.00525033
0.00429862
0.0033197
0.00206577
0.000804943
-0.212662
-0.219016
-0.217305
-0.212598
-0.207904
-0.203309
-0.19812
-0.191962
-0.184714
-0.176405
-0.167594
-0.158866
-0.150355
-0.142086
-0.134859
-0.129059
-0.125168
-0.123592
-0.124654
-0.128638
-0.135605
-0.145272
-0.156931
-0.169509
-0.181235
-0.190046
-0.19384
-0.190978
-0.180637
-0.1633
-0.140786
-0.115521
-0.0897882
-0.0653468
-0.0433706
-0.024489
-0.0089452
0.00325377
0.0122549
0.0182936
0.0216381
0.0226404
0.0217189
0.0195357
0.016879
0.0142371
0.0119898
0.0102777
0.00904885
0.0082668
0.00768503
0.00728416
0.00681874
0.00637567
0.00573348
0.00506418
0.00414964
0.00320052
0.00199255
0.000765451
-0.200033
-0.207226
-0.206221
-0.201746
-0.19726
-0.193243
-0.188939
-0.183742
-0.177531
-0.17052
-0.163108
-0.155616
-0.148251
-0.141213
-0.134965
-0.129939
-0.126578
-0.125251
-0.126218
-0.129671
-0.135635
-0.14382
-0.153561
-0.163951
-0.173253
-0.179994
-0.182279
-0.178801
-0.168975
-0.153202
-0.132922
-0.110107
-0.0866837
-0.0642039
-0.043757
-0.0259818
-0.0111741
0.000597766
0.00941785
0.0154704
0.0189858
0.0202883
0.0197742
0.0180521
0.0157849
0.0134649
0.0114314
0.00985531
0.00870343
0.00795323
0.00739033
0.00699515
0.00654592
0.00611553
0.00550202
0.0048571
0.00398293
0.00306765
0.0019104
0.000726609
-0.187562
-0.194953
-0.194785
-0.191008
-0.187023
-0.183585
-0.180052
-0.175784
-0.170632
-0.164795
-0.158563
-0.152195
-0.145911
-0.139934
-0.134612
-0.130325
-0.12744
-0.126257
-0.126992
-0.129791
-0.134644
-0.141268
-0.149087
-0.1572
-0.164566
-0.169474
-0.17056
-0.166771
-0.15762
-0.143404
-0.12525
-0.10476
-0.0835539
-0.0629893
-0.0440644
-0.0274112
-0.0133655
-0.00204908
0.00656369
0.0126102
0.0162869
0.0178877
0.0177775
0.016496
0.0146174
0.0126192
0.0108124
0.00938394
0.0083185
0.00760774
0.00706948
0.00668443
0.00625472
0.00583952
0.00525692
0.00463823
0.00380636
0.00292742
0.00182336
0.000686916
-0.175233
-0.182718
-0.183365
-0.180424
-0.17705
-0.174165
-0.171308
-0.167883
-0.163697
-0.158893
-0.153715
-0.148391
-0.143122
-0.138117
-0.133648
-0.13002
-0.127525
-0.126416
-0.126876
-0.129012
-0.13279
-0.137963
-0.144058
-0.150299
-0.155726
-0.159065
-0.159195
-0.155235
-0.146773
-0.134027
-0.117866
-0.0995656
-0.0804663
-0.0617425
-0.0443037
-0.0287674
-0.015498
-0.00466105
0.00372036
0.00974117
0.013563
0.0154461
0.015719
0.0148592
0.01337
0.0116979
0.0101303
0.0088599
0.00789095
0.00722867
0.00672175
0.00635208
0.00594544
0.00554829
0.00499877
0.0044084
0.00362067
0.00278053
0.001732
0.000646473
-0.163311
-0.170793
-0.1721
-0.16996
-0.16723
-0.164896
-0.16266
-0.159997
-0.156686
-0.152816
-0.148594
-0.144223
-0.139878
-0.13574
-0.132023
-0.128966
-0.126808
-0.125756
-0.12596
-0.127492
-0.130306
-0.134193
-0.138744
-0.143312
-0.147089
-0.149115
-0.148465
-0.144416
-0.136623
-0.125231
-0.11089
-0.0945976
-0.0774544
-0.0604696
-0.044464
-0.0300292
-0.0175438
-0.00720626
0.000920032
0.00689098
0.0108341
0.0129762
0.0136092
0.0131536
0.0120483
0.0107021
0.00938141
0.00827854
0.0074165
0.00681254
0.00634443
0.00599614
0.00561657
0.00524083
0.00472679
0.00416724
0.0034257
0.00262709
0.00163654
0.000605457
-0.151991
-0.159267
-0.161068
-0.159659
-0.157573
-0.155789
-0.154133
-0.152154
-0.149628
-0.146598
-0.143234
-0.139714
-0.13619
-0.132814
-0.129755
-0.127201
-0.125343
-0.124346
-0.124326
-0.125331
-0.127309
-0.130077
-0.133293
-0.136435
-0.138856
-0.139799
-0.138523
-0.134445
-0.127273
-0.117087
-0.104365
-0.0898819
-0.0745325
-0.0591749
-0.0445392
-0.0311808
-0.0194803
-0.00965798
-0.00180975
0.00408569
0.00812415
0.0104994
0.0114669
0.0113933
0.0106594
0.00963421
0.00856414
0.00763717
0.00689203
0.0063566
0.00593538
0.00561521
0.00526723
0.00491681
0.00444085
0.00391499
0.00322179
0.00246762
0.00153752
0.000564152
-0.141208
-0.148179
-0.150363
-0.149604
-0.148129
-0.146873
-0.145748
-0.144377
-0.142542
-0.140255
-0.137651
-0.134882
-0.132081
-0.129371
-0.126887
-0.124776
-0.123185
-0.122243
-0.122037
-0.122597
-0.123869
-0.125692
-0.127807
-0.129779
-0.131097
-0.131165
-0.1294
-0.125335
-0.118719
-0.10959
-0.0982941
-0.0854276
-0.0717103
-0.0578627
-0.0445257
-0.0322105
-0.021289
-0.0119937
-0.0044447
0.00134973
0.0054563
0.00803626
0.00930913
0.00959141
0.00921163
0.00849897
0.00768015
0.00693548
0.0063163
0.00585937
0.00549327
0.0052084
0.00489687
0.0045761
0.004141
0.00365197
0.00300933
0.00230262
0.00143532
0.000522677
-0.13096
-0.137609
-0.140075
-0.139871
-0.138944
-0.13817
-0.137521
-0.136681
-0.135445
-0.133806
-0.131866
-0.129754
-0.127582
-0.125453
-0.12347
-0.121745
-0.120392
-0.119508
-0.119156
-0.119355
-0.120057
-0.121135
-0.122339
-0.123368
-0.123804
-0.123183
-0.121048
-0.117028
-0.110911
-0.102706
-0.0926626
-0.0812332
-0.0689917
-0.0565361
-0.0444213
-0.0331096
-0.0229551
-0.0141941
-0.00696302
-0.00129462
0.00285153
0.00560544
0.00715208
0.0077614
0.0077151
0.00730335
0.00673324
0.00617503
0.00568942
0.00532024
0.00501732
0.00477504
0.00450499
0.0042185
0.00382716
0.00337835
0.00278852
0.0021324
0.00133015
0.000481049
-0.121333
-0.127609
-0.130251
-0.130501
-0.13005
-0.129701
-0.129466
-0.129081
-0.128359
-0.127276
-0.12591
-0.124366
-0.122739
-0.12111
-0.11956
-0.118172
-0.117032
-0.116211
-0.115755
-0.115674
-0.115923
-0.116393
-0.116897
-0.117185
-0.116936
-0.11579
-0.113392
-0.109447
-0.103783
-0.09639
-0.0874448
-0.0772895
-0.0663766
-0.0551973
-0.0442253
-0.0338719
-0.0244669
-0.0162428
-0.00934553
-0.00382732
0.000329148
0.00322471
0.00501172
0.00591734
0.00618103
0.00605574
0.00572878
0.00535876
0.00501259
0.00473932
0.00450714
0.00431465
0.00409119
0.0038438
0.00349926
0.00309421
0.00255951
0.00195711
0.00122211
0.000439242
-0.112318
-0.118178
-0.120911
-0.121524
-0.121474
-0.121487
-0.121602
-0.1216
-0.12131
-0.120698
-0.11982
-0.118762
-0.1176
-0.116399
-0.11522
-0.114126
-0.113177
-0.112426
-0.111905
-0.111616
-0.111519
-0.111525
-0.111488
-0.111212
-0.110447
-0.108917
-0.106348
-0.102511
-0.0972641
-0.0905886
-0.0826092
-0.0735824
-0.0638623
-0.0538476
-0.043938
-0.0344936
-0.0258153
-0.0181261
-0.0115756
-0.00623039
-0.00209284
0.000911265
0.00290406
0.00407368
0.00462153
0.00476559
0.00467342
0.00449082
0.004288
0.00411747
0.00396285
0.00382703
0.00365522
0.00345183
0.00315724
0.00279961
0.00232242
0.0017769
0.00111126
0.000397214
-0.103869
-0.10931
-0.112072
-0.112964
-0.11324
-0.11355
-0.113953
-0.114265
-0.11433
-0.114108
-0.113639
-0.112988
-0.112219
-0.111381
-0.11052
-0.10968
-0.108904
-0.10823
-0.107677
-0.107244
-0.106895
-0.106558
-0.106121
-0.105429
-0.104293
-0.102501
-0.0998433
-0.0961424
-0.0912849
-0.0852493
-0.0781225
-0.0700957
-0.061444
-0.0524879
-0.0435606
-0.0349726
-0.026994
-0.0198335
-0.0136393
-0.00848789
-0.0043978
-0.00131844
0.000844867
0.00224508
0.00304938
0.00344333
0.00357492
0.00357642
0.0035188
0.00345631
0.00338516
0.00331237
0.00319711
0.00304261
0.00280119
0.00249466
0.00207741
0.00159187
0.00099764
0.000354916
-0.0959779
-0.101007
-0.103741
-0.104836
-0.105366
-0.105913
-0.106543
-0.107102
-0.107452
-0.107547
-0.107412
-0.107099
-0.106656
-0.106122
-0.10553
-0.10491
-0.104291
-0.103698
-0.103142
-0.102619
-0.102098
-0.101523
-0.100804
-0.0998234
-0.0984374
-0.0964852
-0.0938081
-0.0902699
-0.0857816
-0.0803218
-0.073951
-0.0668116
-0.0591156
-0.0511185
-0.0430949
-0.0353091
-0.0279994
-0.0213571
-0.0155254
-0.0105862
-0.00657077
-0.00344895
-0.00115049
0.000446263
0.00147785
0.00210015
0.00244204
0.00262185
0.0027091
0.00275823
0.00277535
0.0027713
0.0027172
0.00261632
0.00243133
0.00217956
0.0018247
0.00140216
0.000881317
0.000312303
-0.0886369
-0.0932535
-0.0959132
-0.0971446
-0.0978661
-0.0985915
-0.0993921
-0.10014
-0.10071
-0.101054
-0.101187
-0.101147
-0.100972
-0.10069
-0.100324
-0.0998924
-0.099415
-0.0989059
-0.0983713
-0.0978042
-0.0971792
-0.0964495
-0.0955476
-0.0943836
-0.0928484
-0.0908214
-0.0881833
-0.084831
-0.080696
-0.0757588
-0.0700622
-0.0637116
-0.0568698
-0.0497391
-0.0425433
-0.0355047
-0.0288301
-0.022692
-0.0172254
-0.0125141
-0.00859868
-0.00546608
-0.00306733
-0.00130824
-7.94802e-05
0.000747908
0.0012844
0.00163436
0.00186395
0.00202649
0.00213545
0.00220498
0.00221624
0.00217343
0.00204807
0.00185459
0.00156462
0.00120795
0.000762382
0.000269342
-0.0818099
-0.0860238
-0.0885759
-0.0898893
-0.0907467
-0.0916
-0.0925214
-0.0934043
-0.0941373
-0.0946716
-0.0950129
-0.0951893
-0.0952289
-0.0951518
-0.0949723
-0.0947022
-0.0943518
-0.0939285
-0.093434
-0.09286
-0.0921847
-0.0913711
-0.090367
-0.0891045
-0.087502
-0.0854694
-0.0829181
-0.0797709
-0.0759759
-0.071517
-0.0664245
-0.0607769
-0.0546989
-0.0483492
-0.0419088
-0.0355625
-0.0294874
-0.0238364
-0.018734
-0.0142632
-0.0104707
-0.00735725
-0.00489196
-0.00300435
-0.00160901
-0.000601112
0.000112372
0.000622078
0.000989363
0.00126523
0.00146819
0.00161513
0.00169542
0.00171472
0.00165209
0.00152022
0.00129757
0.00100946
0.00064097
0.000226018
-0.0754653
-0.0792956
-0.0817167
-0.0830669
-0.0840124
-0.0849489
-0.0859474
-0.0869192
-0.0877651
-0.0884373
-0.0889349
-0.0892774
-0.0894851
-0.0895717
-0.0895453
-0.0894115
-0.0891746
-0.0888367
-0.088396
-0.0878437
-0.0871614
-0.0863193
-0.0852774
-0.0839843
-0.0823794
-0.0803963
-0.0779695
-0.075042
-0.0715753
-0.0675568
-0.0630087
-0.0579894
-0.0525945
-0.0469479
-0.0411948
-0.0354871
-0.0299747
-0.024791
-0.0200488
-0.0158278
-0.0121784
-0.00911172
-0.00661197
-0.00462874
-0.00309737
-0.00193441
-0.00106309
-0.000406033
9.22339e-05
0.000479432
0.000777104
0.00100413
0.00115642
0.00124134
0.00124431
0.00117709
0.00102408
0.000807027
0.000517258
0.000182341
-0.0695779
-0.0730442
-0.0753176
-0.076668
-0.0776618
-0.0786441
-0.0796831
-0.0807046
-0.0816212
-0.0823869
-0.0829959
-0.0834611
-0.0837966
-0.0840111
-0.0841079
-0.0840881
-0.0839515
-0.0836964
-0.083319
-0.0828099
-0.0821534
-0.0813254
-0.0802951
-0.0790239
-0.0774669
-0.0755754
-0.0733016
-0.0706038
-0.0674541
-0.0638431
-0.0597878
-0.0553319
-0.0505487
-0.0455345
-0.0404052
-0.0352842
-0.0302974
-0.0255591
-0.0211702
-0.0172052
-0.0137158
-0.0107209
-0.00821653
-0.00616915
-0.00453174
-0.00323953
-0.00223069
-0.00144038
-0.000819734
-0.00032506
6.65063e-05
0.00037505
0.000601499
0.00075486
0.000825955
0.000826079
0.000744847
0.000601066
0.000391475
0.000138335
-0.0641195
-0.0672422
-0.0693575
-0.0706802
-0.0716904
-0.0726883
-0.0737377
-0.0747771
-0.0757294
-0.0765515
-0.0772343
-0.0777855
-0.0782144
-0.0785258
-0.0787197
-0.0787938
-0.0787449
-0.0785687
-0.0782595
-0.0778081
-0.0772011
-0.0764188
-0.0754371
-0.0742268
-0.072755
-0.0709859
-0.0688851
-0.0664224
-0.0635779
-0.0603454
-0.0567378
-0.0527886
-0.0485538
-0.0441084
-0.0395442
-0.0349608
-0.0304625
-0.0261465
-0.0221012
-0.0183953
-0.0150796
-0.0121783
-0.00969663
-0.00761462
-0.00590009
-0.00450435
-0.003379
-0.00247093
-0.00173816
-0.00114163
-0.000658537
-0.000268386
3.34523e-05
0.000257324
0.000398578
0.000468296
0.000460695
0.000392132
0.000263949
9.4049e-05
-0.0590625
-0.0618639
-0.0638166
-0.0650907
-0.0660925
-0.0670819
-0.068118
-0.0691498
-0.0701099
-0.0709582
-0.0716838
-0.0722904
-0.0727839
-0.0731659
-0.0734342
-0.0735843
-0.0736108
-0.073508
-0.0732687
-0.0728839
-0.0723421
-0.0716272
-0.0707201
-0.0695984
-0.0682378
-0.0666122
-0.0646969
-0.0624703
-0.0599185
-0.0570377
-0.0538382
-0.0503458
-0.0466037
-0.0426699
-0.0386168
-0.0345246
-0.0304786
-0.0265607
-0.0228474
-0.0194006
-0.016269
-0.0134798
-0.0110452
-0.00895575
-0.00719149
-0.00571734
-0.00449678
-0.00348739
-0.00265416
-0.00196301
-0.00139224
-0.000921764
-0.000544358
-0.000248751
-3.58593e-05
0.00010518
0.000172627
0.000180851
0.000135061
4.95752e-05
-0.0543808
-0.0568842
-0.058674
-0.0598847
-0.0608593
-0.0618221
-0.0628269
-0.0638317
-0.0647779
-0.0656287
-0.0663723
-0.0670096
-0.0675438
-0.0679745
-0.0682979
-0.0685081
-0.0685985
-0.0685621
-0.0683912
-0.0680774
-0.0676104
-0.0669768
-0.0661609
-0.0651456
-0.0639127
-0.0624432
-0.0607194
-0.0587258
-0.0564531
-0.0538989
-0.0510721
-0.0479923
-0.0446932
-0.0412197
-0.0376287
-0.0339842
-0.0303557
-0.0268113
-0.0234164
-0.0202261
-0.0172857
-0.0146239
-0.0122573
-0.0101849
-0.00839634
-0.00686785
-0.00557319
-0.0044795
-0.00355856
-0.00278141
-0.00212822
-0.00158002
-0.00112797
-0.000760394
-0.000475101
-0.000261531
-0.000118025
-3.19263e-05
5.22702e-06
4.98897e-06
-0.0500517
-0.0522797
-0.0539097
-0.0550473
-0.0559814
-0.0569045
-0.0578652
-0.0588288
-0.0597448
-0.0605801
-0.0613224
-0.0619709
-0.0625266
-0.062988
-0.0633502
-0.0636066
-0.0637498
-0.0637724
-0.0636666
-0.063424
-0.0630358
-0.0624904
-0.0617751
-0.0608761
-0.0597797
-0.0584719
-0.0569399
-0.0551727
-0.053164
-0.0509127
-0.0484261
-0.0457195
-0.0428192
-0.0397599
-0.0365864
-0.0333492
-0.0301048
-0.0269092
-0.0238179
-0.0208788
-0.0181337
-0.015611
-0.0133302
-0.0112963
-0.00950659
-0.00794636
-0.00659806
-0.00543728
-0.0044421
-0.0035887
-0.00285962
-0.00223758
-0.00171289
-0.00127404
-0.000916467
-0.000629943
-0.000409872
-0.000245118
-0.000124854
-3.95754e-05
-0.0460536
-0.0480287
-0.0495046
-0.0505637
-0.0514484
-0.0523231
-0.053231
-0.054144
-0.0550184
-0.0558249
-0.0565515
-0.0571961
-0.0577584
-0.0582359
-0.0586234
-0.0589139
-0.0590999
-0.0591737
-0.0591277
-0.0589537
-0.0586441
-0.058189
-0.0575776
-0.0567984
-0.0558409
-0.0546945
-0.0533501
-0.0517996
-0.0500387
-0.048067
-0.0458908
-0.0435218
-0.0409806
-0.0382941
-0.0354973
-0.0326301
-0.0297381
-0.0268668
-0.024063
-0.0213679
-0.0188191
-0.0164439
-0.0142633
-0.0122864
-0.010516
-0.00894474
-0.00756222
-0.00635128
-0.00529572
-0.00437662
-0.00357923
-0.00288841
-0.00229427
-0.00178581
-0.00135675
-0.000997574
-0.000701325
-0.000457898
-0.000254551
-8.37716e-05
-0.0423671
-0.0441111
-0.0454407
-0.0464193
-0.0472493
-0.0480705
-0.0489208
-0.0497773
-0.0506028
-0.0513715
-0.052072
-0.0527016
-0.0532591
-0.0537414
-0.0541432
-0.0544576
-0.0546771
-0.0547943
-0.0548016
-0.0546916
-0.0544578
-0.0540911
-0.053582
-0.0529211
-0.0520999
-0.0511103
-0.0499455
-0.0485993
-0.047069
-0.0453543
-0.0434604
-0.0413964
-0.0391784
-0.0368271
-0.0343699
-0.0318383
-0.0292684
-0.0266975
-0.0241644
-0.0217042
-0.0193501
-0.0171277
-0.0150583
-0.0131534
-0.0114201
-0.00985644
-0.00845772
-0.0072129
-0.00611077
-0.00513708
-0.00427979
-0.00352615
-0.0028667
-0.00229145
-0.00179273
-0.00136177
-0.000990027
-0.000668704
-0.000383396
-0.000127577
-0.0389752
-0.0405093
-0.0417014
-0.0426003
-0.0433735
-0.0441389
-0.0449295
-0.0457268
-0.0464993
-0.0472246
-0.0478923
-0.0484991
-0.0490433
-0.0495218
-0.0499292
-0.050259
-0.0505038
-0.0506566
-0.0507104
-0.0506583
-0.0504952
-0.050212
-0.0498006
-0.0492529
-0.0485617
-0.0477207
-0.0467245
-0.0455686
-0.0442506
-0.0427707
-0.0411326
-0.0393435
-0.0374159
-0.0353655
-0.0332141
-0.0309859
-0.0287099
-0.026416
-0.0241361
-0.0219001
-0.0197367
-0.0176695
-0.0157189
-0.013898
-0.0122165
-0.0106766
-0.00927797
-0.00801451
-0.00687932
-0.00586227
-0.00495407
-0.00414451
-0.00342472
-0.00278614
-0.00222056
-0.00171999
-0.00127435
-0.000875808
-0.000509734
-0.000170716
-0.035863
-0.0372074
-0.038272
-0.0390937
-0.0398103
-0.0405199
-0.0412511
-0.0419888
-0.0427069
-0.043386
-0.0440168
-0.0445958
-0.0451212
-0.0455896
-0.0459961
-0.0463343
-0.0465976
-0.046779
-0.0468713
-0.046867
-0.0467716
-0.0465658
-0.0462448
-0.0458021
-0.0452319
-0.0445288
-0.0436884
-0.042707
-0.0415828
-0.0403156
-0.0389082
-0.037366
-0.0356985
-0.0339179
-0.0320409
-0.0300864
-0.0280773
-0.0260375
-0.0239933
-0.0219694
-0.0199906
-0.0180781
-0.016251
-0.0145229
-0.0129051
-0.0114025
-0.0100182
-0.0087499
-0.00759433
-0.00654502
-0.00559511
-0.00473698
-0.00396284
-0.00326541
-0.00263614
-0.0020685