/*--------------------------------*- C++ -*----------------------------------*\
| =========                 |                                                 |
| \\      /  F ield         | OpenFOAM: The Open Source CFD Toolbox           |
|  \\    /   O peration     | Version:  2512                                  |
|   \\  /    A nd           | Website:  www.openfoam.com                      |
|    \\/     M anipulation  |                                                 |
\*---------------------------------------------------------------------------*/
FoamFile
{
    version     2.0;
    format      ascii;
    arch        "LSB;label=32;scalar=64";
    class       volScalarField;
    location    "164.5";
    object      p;
}
// * * * * * * * * * * * * * * * * * * * * * * * * * * * * * * * * * * * * * //

dimensions      [0 2 -2 0 0 0 0];

internalField   nonuniform List<scalar> 
13248
(
-0.471583
-0.468334
-0.465063
-0.461981
-0.459297
-0.457228
-0.455795
-0.454808
-0.453897
-0.452554
-0.450196
-0.446238
-0.440167
-0.431621
-0.420426
-0.406619
-0.390419
-0.372187
-0.352354
-0.331377
-0.309572
-0.287344
-0.264037
-0.240289
-0.480535
-0.476688
-0.472698
-0.46879
-0.465165
-0.462019
-0.459335
-0.456863
-0.454175
-0.450737
-0.445993
-0.439454
-0.430772
-0.419789
-0.406543
-0.391242
-0.374215
-0.35585
-0.336539
-0.316631
-0.296401
-0.2761
-0.255625
-0.23566
-0.491016
-0.486364
-0.481574
-0.476829
-0.472251
-0.467971
-0.463892
-0.45969
-0.454898
-0.449011
-0.441579
-0.432289
-0.421013
-0.407806
-0.392876
-0.376532
-0.359123
-0.340992
-0.322437
-0.303711
-0.284997
-0.26649
-0.248121
-0.230215
-0.503268
-0.497585
-0.491895
-0.486264
-0.480654
-0.47508
-0.46934
-0.463048
-0.455755
-0.447067
-0.436725
-0.424651
-0.410938
-0.395815
-0.379582
-0.362561
-0.34505
-0.327304
-0.309524
-0.291872
-0.274474
-0.257464
-0.240799
-0.22481
-0.517322
-0.510404
-0.503705
-0.497094
-0.490287
-0.483146
-0.475371
-0.466567
-0.456391
-0.444653
-0.431347
-0.416633
-0.40078
-0.384105
-0.366918
-0.349487
-0.332024
-0.314687
-0.297594
-0.280834
-0.26448
-0.248599
-0.233172
-0.2184
-0.533024
-0.524723
-0.516914
-0.509178
-0.500915
-0.491817
-0.481538
-0.469773
-0.456391
-0.44148
-0.425297
-0.40819
-0.390522
-0.372616
-0.354724
-0.337028
-0.31965
-0.302668
-0.286132
-0.270081
-0.254543
-0.239547
-0.225083
-0.211277
-0.550051
-0.540291
-0.531281
-0.522217
-0.512125
-0.50057
-0.487265
-0.472124
-0.455329
-0.437267
-0.418413
-0.399219
-0.380052
-0.361175
-0.342753
-0.324876
-0.307586
-0.290898
-0.274814
-0.259332
-0.244448
-0.230158
-0.216458
-0.203379
-0.567893
-0.556678
-0.546374
-0.535699
-0.523303
-0.508719
-0.49188
-0.473054
-0.452787
-0.431732
-0.41049
-0.389525
-0.369137
-0.349493
-0.330662
-0.312652
-0.295442
-0.279001
-0.263292
-0.248284
-0.233948
-0.220261
-0.207214
-0.194755
-0.585834
-0.573239
-0.561532
-0.548881
-0.533627
-0.515446
-0.494672
-0.472027
-0.448401
-0.424626
-0.40133
-0.378902
-0.357537
-0.337294
-0.318154
-0.30006
-0.28294
-0.266727
-0.251355
-0.23677
-0.222922
-0.209776
-0.197305
-0.185396
-0.602937
-0.589091
-0.575833
-0.560771
-0.542097
-0.519858
-0.494946
-0.468556
-0.441848
-0.415715
-0.390714
-0.367114
-0.344989
-0.324297
-0.304944
-0.286821
-0.26982
-0.253842
-0.2388
-0.224618
-0.211231
-0.198593
-0.186648
-0.175257
-0.618068
-0.603121
-0.588113
-0.570166
-0.547578
-0.520996
-0.491958
-0.462082
-0.432669
-0.404567
-0.378201
-0.353699
-0.331014
-0.310018
-0.29056
-0.272486
-0.255659
-0.239956
-0.225269
-0.211507
-0.198592
-0.18646
-0.175019
-0.164149
-0.630005
-0.614136
-0.597165
-0.575866
-0.548948
-0.517865
-0.484831
-0.451784
-0.420054
-0.390357
-0.362949
-0.337806
-0.314773
-0.293647
-0.274223
-0.256316
-0.23976
-0.224412
-0.210148
-0.196864
-0.184474
-0.172897
-0.162012
-0.151762
-0.345217
-0.348076
-0.349849
-0.351082
-0.352227
-0.353388
-0.354589
-0.355825
-0.357074
-0.358268
-0.359335
-0.360195
-0.360761
-0.360954
-0.360702
-0.359951
-0.358677
-0.356896
-0.354676
-0.352146
-0.349468
-0.346788
-0.344338
-0.342769
-0.356625
-0.359451
-0.361368
-0.362926
-0.364563
-0.366371
-0.368348
-0.370452
-0.372706
-0.374937
-0.377045
-0.378899
-0.380346
-0.381219
-0.381343
-0.380548
-0.378683
-0.375632
-0.371339
-0.365831
-0.359178
-0.351425
-0.342841
-0.334697
-0.369209
-0.371758
-0.373685
-0.375492
-0.377571
-0.379993
-0.382746
-0.385792
-0.388953
-0.392194
-0.395344
-0.398205
-0.40055
-0.402122
-0.402641
-0.401817
-0.399366
-0.395032
-0.388625
-0.380051
-0.369286
-0.356289
-0.341296
-0.326169
-0.38251
-0.384554
-0.38634
-0.388282
-0.390691
-0.393614
-0.397008
-0.400795
-0.404843
-0.409002
-0.413073
-0.416814
-0.419924
-0.422063
-0.422852
-0.42189
-0.418771
-0.413116
-0.404612
-0.39305
-0.378341
-0.360471
-0.339547
-0.317175
-0.395941
-0.397303
-0.398796
-0.400722
-0.403298
-0.406543
-0.410392
-0.414736
-0.419424
-0.424263
-0.429003
-0.433351
-0.43694
-0.439353
-0.440126
-0.438762
-0.434763
-0.427662
-0.417065
-0.402696
-0.384443
-0.362385
-0.336531
-0.306931
-0.408897
-0.409478
-0.410541
-0.412279
-0.414811
-0.41814
-0.422183
-0.426806
-0.431825
-0.43701
-0.442065
-0.446636
-0.45031
-0.452597
-0.452961
-0.450839
-0.445677
-0.436969
-0.424313
-0.407461
-0.386373
-0.361176
-0.332194
-0.299158
-0.420873
-0.420654
-0.421184
-0.422551
-0.424804
-0.42794
-0.431871
-0.436441
-0.441439
-0.446606
-0.451557
-0.45594
-0.45927
-0.461005
-0.460557
-0.457326
-0.450742
-0.440321
-0.425721
-0.406791
-0.383645
-0.356456
-0.326427
-0.291978
-0.431548
-0.430596
-0.430522
-0.431349
-0.433087
-0.435748
-0.439251
-0.443427
-0.448034
-0.452759
-0.457278
-0.461092
-0.463686
-0.464482
-0.462867
-0.45824
-0.450063
-0.437929
-0.421617
-0.401121
-0.376782
-0.348783
-0.319001
-0.284984
-0.440856
-0.439292
-0.438581
-0.438727
-0.439746
-0.441683
-0.444479
-0.447963
-0.451877
-0.455891
-0.459592
-0.462477
-0.463984
-0.463503
-0.46042
-0.454172
-0.444305
-0.430544
-0.41284
-0.391362
-0.366652
-0.338962
-0.310279
-0.278153
-0.449001
-0.446954
-0.4456
-0.44497
-0.445119
-0.446144
-0.448019
-0.450569
-0.453543
-0.456565
-0.459175
-0.460831
-0.460937
-0.458874
-0.454063
-0.446021
-0.434433
-0.419197
-0.400459
-0.37858
-0.35421
-0.327751
-0.300852
-0.271447
-0.456424
-0.453986
-0.451991
-0.45053
-0.44972
-0.449712
-0.450509
-0.451975
-0.453808
-0.455604
-0.456858
-0.456987
-0.455379
-0.451443
-0.444677
-0.434735
-0.421471
-0.404974
-0.385547
-0.3637
-0.34009
-0.315327
-0.290625
-0.264375
-0.463733
-0.46092
-0.458281
-0.455974
-0.454181
-0.453102
-0.45277
-0.453029
-0.453559
-0.453907
-0.453522
-0.451798
-0.448141
-0.442038
-0.433125
-0.421232
-0.406403
-0.388884
-0.369075
-0.347503
-0.324673
-0.301267
-0.277958
-0.254731
-0.342797
-0.345297
-0.350152
-0.356339
-0.362431
-0.366593
-0.366152
-0.359886
-0.344322
-0.319733
-0.28695
-0.249378
-0.211863
-0.179131
-0.154429
-0.139018
-0.13288
-0.13618
-0.149528
-0.171628
-0.196396
-0.213527
-0.213562
-0.194698
-0.163877
-0.131305
-0.10431
-0.0857861
-0.0756315
-0.0723798
-0.075443
-0.0863632
-0.104733
-0.123369
-0.131017
-0.122881
-0.103945
-0.0841568
-0.0701434
-0.0622988
-0.0603329
-0.0664311
-0.0787257
-0.0887785
-0.0875057
-0.0761732
-0.0632817
-0.0521093
-0.0453779
-0.0432796
-0.0436486
-0.0440187
-0.0421989
-0.0380387
-0.0339151
-0.0289014
-0.0231702
-0.0225551
-0.0196926
-0.00763541
-0.327426
-0.320622
-0.316691
-0.314955
-0.314713
-0.314409
-0.31104
-0.307693
-0.29354
-0.274003
-0.247808
-0.218032
-0.188598
-0.163395
-0.145167
-0.135134
-0.133777
-0.141943
-0.16036
-0.186938
-0.214509
-0.232048
-0.230471
-0.208528
-0.173983
-0.137898
-0.107929
-0.0867811
-0.0741371
-0.0684808
-0.0689417
-0.0766672
-0.0917358
-0.10823
-0.115988
-0.109818
-0.0941204
-0.077856
-0.0669915
-0.0618687
-0.0624285
-0.0712892
-0.0861102
-0.0976898
-0.0961019
-0.0827646
-0.0672517
-0.053487
-0.0448118
-0.0405757
-0.0392283
-0.0388487
-0.0371873
-0.034533
-0.0316646
-0.0288323
-0.0246581
-0.0250621
-0.0226271
-0.00880408
-0.311951
-0.295314
-0.281834
-0.271102
-0.263266
-0.257393
-0.252035
-0.245727
-0.234837
-0.221983
-0.20243
-0.180803
-0.159623
-0.142007
-0.130278
-0.125726
-0.129348
-0.142508
-0.165746
-0.196187
-0.225934
-0.243633
-0.24152
-0.217678
-0.180663
-0.142121
-0.109957
-0.0867381
-0.0719634
-0.064107
-0.0621242
-0.0667461
-0.0784577
-0.0926674
-0.100363
-0.0961376
-0.0836407
-0.0708503
-0.0631013
-0.0607325
-0.063861
-0.0754353
-0.0926817
-0.10575
-0.103998
-0.0888526
-0.0708203
-0.0545696
-0.0441066
-0.0379773
-0.0350685
-0.0339124
-0.0322503
-0.0309523
-0.0292957
-0.0287212
-0.0261215
-0.0274949
-0.0254895
-0.00995377
-0.297407
-0.271896
-0.249185
-0.229252
-0.213015
-0.200316
-0.190856
-0.182609
-0.170514
-0.166546
-0.152092
-0.13836
-0.125068
-0.114773
-0.109426
-0.110358
-0.11906
-0.137146
-0.164826
-0.198612
-0.230262
-0.247755
-0.246587
-0.22199
-0.183772
-0.143923
-0.110453
-0.0858049
-0.0693628
-0.0596098
-0.0554063
-0.057134
-0.0655659
-0.0773523
-0.084702
-0.0822672
-0.0728132
-0.0633232
-0.0585444
-0.0588416
-0.0644408
-0.0785765
-0.0981299
-0.112679
-0.110941
-0.0943067
-0.0739402
-0.055355
-0.0432761
-0.0355107
-0.0312093
-0.0292705
-0.027445
-0.0273401
-0.0268305
-0.028571
-0.0275518
-0.0298266
-0.0282495
-0.0110718
-0.28276
-0.252997
-0.22192
-0.193551
-0.169049
-0.148604
-0.134475
-0.122851
-0.112024
-0.105672
-0.0992994
-0.0922186
-0.0859743
-0.082515
-0.0832598
-0.0896935
-0.103557
-0.126396
-0.157996
-0.19457
-0.228186
-0.249184
-0.246093
-0.221582
-0.183481
-0.143549
-0.109662
-0.0841914
-0.0665451
-0.0552536
-0.0491497
-0.0482596
-0.0535432
-0.0628352
-0.0695607
-0.068636
-0.061928
-0.0554372
-0.0533658
-0.0561305
-0.0640044
-0.0804916
-0.102202
-0.118202
-0.116676
-0.0990053
-0.0765829
-0.0558586
-0.0423396
-0.0331855
-0.0276686
-0.0249711
-0.0228299
-0.02374
-0.0242914
-0.0283829
-0.0289397
-0.0320279
-0.030874
-0.0121452
-0.273112
-0.236424
-0.19975
-0.165526
-0.13429
-0.105365
-0.0895671
-0.0720899
-0.0603317
-0.0545626
-0.0492619
-0.0464343
-0.0457313
-0.0479678
-0.0542341
-0.0659634
-0.0847797
-0.111857
-0.146528
-0.184947
-0.219646
-0.241085
-0.23978
-0.216681
-0.180044
-0.141243
-0.107811
-0.0820981
-0.0636706
-0.0511967
-0.0435337
-0.0404291
-0.0427997
-0.049565
-0.0554117
-0.0556839
-0.0512604
-0.0473591
-0.0476339
-0.0525902
-0.0624824
-0.0810462
-0.104698
-0.122113
-0.121028
-0.102856
-0.0787248
-0.0560951
-0.0413098
-0.0309949
-0.0244477
-0.02105
-0.0184539
-0.0201907
-0.0216997
-0.0281549
-0.0302722
-0.0340686
-0.0333317
-0.013161
-0.264119
-0.22597
-0.186892
-0.149444
-0.114252
-0.0824653
-0.0572668
-0.0363597
-0.0212299
-0.0123024
-0.00703021
-0.00666815
-0.0092787
-0.015477
-0.0260883
-0.0422486
-0.06517
-0.0954591
-0.132042
-0.171221
-0.20626
-0.228185
-0.228719
-0.207932
-0.173917
-0.137316
-0.105132
-0.0797032
-0.0608661
-0.0475251
-0.0386229
-0.0337156
-0.0335457
-0.0378491
-0.0426399
-0.0439794
-0.0410575
-0.0392795
-0.0414867
-0.0482914
-0.0598646
-0.0801705
-0.105511
-0.124326
-0.123861
-0.105783
-0.08034
-0.0560737
-0.0401975
-0.0289233
-0.0215259
-0.0175278
-0.0143542
-0.0167263
-0.0190743
-0.0278825
-0.0315341
-0.035922
-0.0355935
-0.014107
-0.256679
-0.219713
-0.181752
-0.144239
-0.107802
-0.0738662
-0.0442105
-0.0191962
0.000161985
0.0134241
0.0208709
0.0218991
0.0186415
0.0107212
-0.00236492
-0.021336
-0.0468539
-0.0789057
-0.11608
-0.15494
-0.189537
-0.211646
-0.213922
-0.196068
-0.165576
-0.132034
-0.101765
-0.0770952
-0.0581885
-0.0442662
-0.034422
-0.0280975
-0.0258111
-0.027837
-0.0314297
-0.0330793
-0.0315189
-0.0314226
-0.0351025
-0.0433472
-0.0562241
-0.0778822
-0.104645
-0.124853
-0.125057
-0.107739
-0.0814134
-0.0558091
-0.0390155
-0.026968
-0.0188809
-0.0144007
-0.0105539
-0.0133767
-0.0164323
-0.0275601
-0.0327091
-0.0375645
-0.0376318
-0.0149725
-0.25049
-0.216212
-0.181738
-0.146675
-0.111314
-0.0772302
-0.0459118
-0.0182255
0.00478704
0.0221479
0.0330749
0.0370408
0.0354959
0.0281803
0.0148356
-0.00487047
-0.0310978
-0.0632925
-0.0997485
-0.137287
-0.170641
-0.192507
-0.196428
-0.181933
-0.155628
-0.125776
-0.0979449
-0.0744492
-0.0557869
-0.0415395
-0.031012
-0.0236064
-0.0196204
-0.0196074
-0.0219012
-0.0234632
-0.022893
-0.0240085
-0.02869
-0.0379111
-0.0516114
-0.0742455
-0.102193
-0.123778
-0.124563
-0.108749
-0.0819902
-0.0553802
-0.0378103
-0.025152
-0.0165242
-0.0116776
-0.00703991
-0.0101667
-0.0137879
-0.0271814
-0.0337811
-0.038974
-0.0394206
-0.015749
-0.245088
-0.214481
-0.1846
-0.153186
-0.120448
-0.0880287
-0.0571233
-0.0286207
-0.00366875
0.0165877
0.0307836
0.0394551
0.0410511
0.0362771
0.0247484
0.00637301
-0.0186576
-0.04936
-0.0838377
-0.119124
-0.150362
-0.171654
-0.177353
-0.166629
-0.145014
-0.119303
-0.0942974
-0.072305
-0.054132
-0.0397272
-0.0286744
-0.0204106
-0.0150446
-0.0132317
-0.014172
-0.015412
-0.0153548
-0.0172093
-0.0224045
-0.0321557
-0.046313
-0.0694773
-0.0981957
-0.12131
-0.122659
-0.108859
-0.0821486
-0.054925
-0.0366744
-0.0234906
-0.0144541
-0.00942036
-0.00382957
-0.00711015
-0.0111562
-0.0267367
-0.0347325
-0.0401302
-0.0409309
-0.0164256
-0.240321
-0.21433
-0.18901
-0.160984
-0.13117
-0.101269
-0.0718365
-0.0433892
-0.01718
0.00541149
0.0229414
0.0334101
0.0381742
0.037053
0.0288132
0.0134502
-0.00887121
-0.0369698
-0.0687814
-0.101219
-0.130258
-0.149932
-0.157157
-0.150347
-0.133807
-0.112635
-0.0907978
-0.0705868
-0.0531157
-0.03868
-0.027212
-0.018275
-0.0117881
-0.00838447
-0.00803915
-0.00896167
-0.00907069
-0.011236
-0.0165142
-0.026179
-0.0401722
-0.0635841
-0.0931381
-0.117818
-0.129833
-0.107947
-0.08164
-0.0542759
-0.0355351
-0.0218597
-0.0125131
-0.00753543
-0.00113481
-0.00425634
-0.00853075
-0.026212
-0.0355478
-0.0410164
-0.0421248
-0.0169789
-0.235523
-0.216553
-0.195861
-0.170904
-0.144455
-0.118016
-0.0916173
-0.0654065
-0.0401357
-0.0165169
0.0032158
0.0186672
0.0274097
0.029757
0.0259091
0.0151091
-0.00249538
-0.0258501
-0.0530209
-0.0813549
-0.10769
-0.126633
-0.133957
-0.130823
-0.119291
-0.102661
-0.0841836
-0.0661339
-0.0498872
-0.0359476
-0.0245398
-0.0154287
-0.00837379
-0.00380727
-0.00235968
-0.00312002
-0.00393759
-0.00598675
-0.0112802
-0.0206441
-0.034147
-0.057114
-0.0866082
-0.112189
-0.122664
-0.104878
-0.0796223
-0.052504
-0.0337915
-0.0198817
-0.0104221
-0.00549473
0.00137876
-0.0015912
-0.00600138
-0.0256012
-0.0362009
-0.0416061
-0.0430024
-0.0173821
-0.217296
-0.210393
-0.190371
-0.16582
-0.141262
-0.117023
-0.0925944
-0.0681603
-0.0443447
-0.0217967
-0.00365372
0.0107199
0.0199224
0.0239685
0.0220788
0.0135166
-0.00175549
-0.0227593
-0.0475838
-0.0736599
-0.097251
-0.114006
-0.120252
-0.117086
-0.106567
-0.0916638
-0.0751199
-0.0588338
-0.0439976
-0.0310369
-0.0202057
-0.0113716
-0.00430779
0.000750647
0.00308096
0.00295905
0.00241765
0.00038024
-0.00434881
-0.0128053
-0.0257232
-0.0491951
-0.0806169
-0.108518
-0.1198
-0.102498
-0.0768932
-0.0496577
-0.0313077
-0.0176308
-0.00835747
-0.00316035
0.00447503
0.0014707
-0.00306432
-0.0247431
-0.0369114
-0.0420019
-0.0437062
-0.0176486
-0.200585
-0.19662
-0.178194
-0.15521
-0.132909
-0.111514
-0.0901394
-0.0687171
-0.0478932
-0.0288806
-0.0119007
0.00137848
0.0104478
0.0147942
0.013772
0.00689571
-0.00583504
-0.0235613
-0.044539
-0.0663536
-0.0856028
-0.0988466
-0.103811
-0.100967
-0.0921878
-0.0797434
-0.0657145
-0.0516017
-0.0384392
-0.0266363
-0.0165263
-0.00812244
-0.00120692
0.00406203
0.0068325
0.00695751
0.00624886
0.0043297
0.000437422
-0.00704042
-0.0190539
-0.0424153
-0.0748121
-0.103199
-0.113421
-0.0975035
-0.0726507
-0.0463355
-0.0286672
-0.0153456
-0.00638151
-0.00113824
0.00656289
0.00377093
-0.000715386
-0.0239953
-0.0375692
-0.042085
-0.0438929
-0.0177357
-0.184933
-0.181607
-0.165868
-0.145517
-0.125681
-0.106932
-0.088379
-0.0697526
-0.0515631
-0.0346854
-0.0197306
-0.00771359
0.00066864
0.00490539
0.00455526
-0.000698027
-0.010761
-0.0248488
-0.0414483
-0.0585243
-0.0735996
-0.0840585
-0.0881642
-0.0861798
-0.0793418
-0.0692164
-0.057399
-0.0451389
-0.0334023
-0.0226222
-0.0131591
-0.0051394
0.00156555
0.0068773
0.00997419
0.0103932
0.00976503
0.00792901
0.00439249
-0.00261662
-0.0141565
-0.0370871
-0.068745
-0.0959078
-0.105853
-0.0912586
-0.0677647
-0.0427332
-0.02586
-0.0130259
-0.00439181
0.000802143
0.00845689
0.00573966
0.00117293
-0.0233673
-0.0380847
-0.0418193
-0.0436159
-0.0176923
-0.16875
-0.166948
-0.154139
-0.136582
-0.11912
-0.102704
-0.0866273
-0.070503
-0.0546749
-0.0398466
-0.0267107
-0.0160008
-0.00830936
-0.00405921
-0.00359984
-0.00714305
-0.0145554
-0.0251875
-0.0378721
-0.0510471
-0.0627462
-0.0709946
-0.0745359
-0.0732448
-0.0678812
-0.0595916
-0.049631
-0.0390153
-0.0286035
-0.0188221
-0.0100265
-0.00241772
0.00402014
0.00926814
0.0126283
0.0134447
0.0130617
0.0114511
0.00831157
0.00167189
-0.00945033
-0.0313493
-0.061398
-0.0873877
-0.0968329
-0.0839179
-0.0621287
-0.0387515
-0.0228858
-0.0106619
-0.00238224
0.0026699
0.0102232
0.00755777
0.0029227
-0.0226183
-0.0383339
-0.0412054
-0.0428734
-0.0174924
-0.153473
-0.153209
-0.142871
-0.127854
-0.112634
-0.0983559
-0.084507
-0.0706618
-0.0570117
-0.0441422
-0.0326551
-0.0231253
-0.0160247
-0.0117219
-0.0105037
-0.0125151
-0.0176352
-0.0253696
-0.0348214
-0.0447371
-0.0536359
-0.0600247
-0.062896
-0.0619783
-0.0577284
-0.0509423
-0.0425641
-0.0333915
-0.0241693
-0.0153177
-0.00717994
1.23114e-05
0.0061671
0.011274
0.0148071
0.0160155
0.0159935
0.0148081
0.0122448
0.00620686
-0.00409004
-0.0244432
-0.0529142
-0.0778476
-0.0870899
-0.0755612
-0.0558031
-0.0344443
-0.0197811
-0.00827821
-0.000367687
0.00446688
0.0117948
0.00924218
0.00467472
-0.0215987
-0.0382295
-0.0402048
-0.0415951
-0.0170945
-0.139741
-0.1402
-0.131851
-0.119184
-0.106126
-0.0938593
-0.0820368
-0.070249
-0.0585764
-0.0474682
-0.0374426
-0.0289701
-0.0224394
-0.0181598
-0.0163583
-0.0171374
-0.0203957
-0.0257565
-0.0325238
-0.0396806
-0.0462117
-0.0509654
-0.0531267
-0.0523739
-0.0489324
-0.0433149
-0.0362228
-0.0282791
-0.0201119
-0.0121189
-0.00462699
0.00213638
0.00800698
0.0129234
0.0165362
0.0181002
0.0185504
0.0179594
0.0161259
0.0109696
0.00183833
-0.0167895
-0.0436224
-0.0673056
-0.0763291
-0.0663641
-0.0489184
-0.0298679
-0.0165792
-0.00589927
0.00163297
0.00620077
0.0131564
0.0107691
0.00641029
-0.0202421
-0.037639
-0.0387359
-0.0397164
-0.0164629
-0.126719
-0.127729
-0.121188
-0.110684
-0.0996361
-0.0892089
-0.0791936
-0.0692212
-0.0593043
-0.0497758
-0.0410684
-0.0335745
-0.0276133
-0.0234342
-0.0212146
-0.0210286
-0.0227901
-0.0262118
-0.0307754
-0.035752
-0.0402909
-0.0436237
-0.0450734
-0.0443062
-0.0413952
-0.0366553
-0.0305969
-0.0236947
-0.0164594
-0.00925052
-0.00237946
0.00394393
0.00953286
0.014249
0.0178742
0.0197342
0.020693
0.0208263
0.0198635
0.0157783
0.00793013
-0.00883976
-0.0337557
-0.056024
-0.0648457
-0.0565885
-0.0416484
-0.0251034
-0.0133213
-0.00355032
0.00360073
0.00788635
0.014312
0.0121195
0.00808616
-0.0184481
-0.036375
-0.0367205
-0.0372041
-0.0155688
-0.114356
-0.115998
-0.111032
-0.102412
-0.0931505
-0.0843692
-0.0759551
-0.0675825
-0.0592154
-0.0510996
-0.0435834
-0.0369905
-0.0315817
-0.0275571
-0.0250552
-0.0241321
-0.0247268
-0.0266214
-0.029416
-0.0326255
-0.0355909
-0.0377169
-0.03848
-0.0375767
-0.0349943
-0.0309072
-0.0256719
-0.0196417
-0.0132219
-0.00672307
-0.000437657
0.00544106
0.0107429
0.0152704
0.0188725
0.0209662
0.0223913
0.0232725
0.0233057
0.0204621
0.0139869
-0.000854151
-0.0237548
-0.0444735
-0.0530276
-0.0465538
-0.0342128
-0.0202539
-0.0100514
-0.00125327
0.00551754
0.00954273
0.0152891
0.0133032
0.00971088
-0.0160684
-0.0342314
-0.0340984
-0.0340622
-0.0143961
-0.103035
-0.105069
-0.101351
-0.0943441
-0.0866631
-0.0793464
-0.0723432
-0.0653712
-0.0583652
-0.0514994
-0.0450488
-0.0392777
-0.0343992
-0.0305749
-0.0279144
-0.0264637
-0.0261816
-0.026902
-0.0283463
-0.0301406
-0.031835
-0.0329536
-0.0330952
-0.0319996
-0.0296072
-0.0259982
-0.0214123
-0.0161065
-0.010396
-0.00453845
0.00120249
0.00664309
0.0116462
0.015992
0.0195564
0.0218435
0.0236635
0.0251724
0.0262361
0.0247917
0.0197489
0.00670974
-0.0142155
-0.0331348
-0.0412962
-0.0366222
-0.0268612
-0.0154394
-0.00681606
0.000974537
0.00736658
0.0111875
0.0161491
0.0143776
0.0113374
-0.0129653
-0.0310212
-0.0308308
-0.030345
-0.0129501
-0.092659
-0.0948293
-0.0921163
-0.0865013
-0.0802071
-0.0741756
-0.0684026
-0.0626463
-0.0568239
-0.0510542
-0.0455512
-0.0405287
-0.0361602
-0.0325758
-0.0298638
-0.0280619
-0.0271391
-0.0269717
-0.0274022
-0.0281159
-0.028798
-0.0290949
-0.0287016
-0.0273979
-0.0251044
-0.0218441
-0.0177709
-0.0130657
-0.00796917
-0.00268878
0.00254955
0.00756933
0.0122634
0.0164206
0.0199338
0.0223839
0.0244989
0.026494
0.0284157
0.0282727
0.0245324
0.0131789
-0.00559577
-0.0223892
-0.0300779
-0.0271651
-0.0198494
-0.0107899
-0.00366681
0.00311927
0.00913291
0.0128308
0.0169879
0.0154415
0.013026
-0.00906512
-0.0266314
-0.0269226
-0.0261707
-0.0112662
-0.0829658
-0.0852392
-0.0833698
-0.0789356
-0.0738308
-0.0689066
-0.0641922
-0.059481
-0.0546799
-0.049865
-0.0452005
-0.0408572
-0.0369756
-0.0336601
-0.0309812
-0.0289719
-0.0276164
-0.0268447
-0.0264918
-0.026388
-0.0262901
-0.0259394
-0.0251048
-0.0236059
-0.0213604
-0.0183582
-0.0146926
-0.0104866
-0.00591997
-0.00115678
0.00361725
0.00823903
0.0126207
0.0165733
0.0200109
0.0225892
0.0248776
0.0272078
0.0296485
0.0303803
0.0276358
0.0180425
0.00185437
-0.0125988
-0.0198177
-0.0185344
-0.0134075
-0.0064311
-0.000660815
0.00516491
0.0108
0.0144642
0.0179109
0.0166114
0.0148247
-0.00440714
-0.0211096
-0.0224552
-0.0217204
-0.00941324
-0.0739893
-0.0763387
-0.0751405
-0.0716782
-0.0675745
-0.0635918
-0.0597789
-0.0559578
-0.052031
-0.048042
-0.0441144
-0.0403836
-0.0369622
-0.0339336
-0.0313542
-0.0292533
-0.0276229
-0.0264163
-0.0255317
-0.0248361
-0.0241607
-0.023319
-0.0221389
-0.0204773
-0.0182577
-0.0154532
-0.0121167
-0.00832861
-0.00422044
8.07221e-05
0.00442577
0.00867291
0.0127438
0.0164755
0.0198067
0.0224668
0.0248789
0.0273251
0.0298844
0.0309809
0.0289278
0.0211784
0.00790365
-0.0042028
-0.0109417
-0.0110076
-0.00770214
-0.00246616
0.0021434
0.00708826
0.0123425
0.016047
0.0189867
0.017987
0.0167557
0.000802637
-0.014746
-0.0176054
-0.0172176
-0.00749046
-0.0657904
-0.0681055
-0.0674075
-0.064738
-0.061473
-0.0582845
-0.0552317
-0.052162
-0.0489774
-0.0456974
-0.0424133
-0.0392311
-0.0362407
-0.0335083
-0.0310786
-0.02898
-0.0272025
-0.0257261
-0.0244827
-0.0233776
-0.0222939
-0.0210985
-0.0196652
-0.0178836
-0.0156874
-0.0130439
-0.00998034
-0.00654645
-0.00283722
0.001051
0.00500068
0.00889414
0.0126584
0.016158
0.0193481
0.0220243
0.0244723
0.0268815
0.0292727
0.0303842
0.0287942
0.0227515
0.0123251
0.00242675
-0.00371856
-0.00471934
-0.00281072
0.00103787
0.0046948
0.00886116
0.0137219
0.0174987
0.0201937
0.0195964
0.018795
0.00618235
-0.0080919
-0.012649
-0.0128933
-0.00561373
-0.0582602
-0.0604735
-0.0601547
-0.0581329
-0.0555652
-0.0530395
-0.0506207
-0.048179
-0.0456192
-0.0429435
-0.0402175
-0.0375233
-0.0349319
-0.0324956
-0.0302488
-0.0282109
-0.0263985
-0.0247815
-0.0233209
-0.0219546
-0.0206022
-0.0191704
-0.0175687
-0.0157136
-0.0135515
-0.0110496
-0.0082202
-0.00509202
-0.00173333
0.00178494
0.00537092
0.00892856
0.0123917
0.0156532
0.0186686
0.0212896
0.0236847
0.0259508
0.0280351
0.0290012
0.0277252
0.0230905
0.0151396
0.00725129
0.00185374
0.000345905
0.00127031
0.00405056
0.0069552
0.0104566
0.0148939
0.0187045
0.0213833
0.0213255
0.0208306
0.011236
-0.00184185
-0.00792232
-0.00894666
-0.0038929
-0.0513143
-0.0534161
-0.0533864
-0.0518851
-0.0498878
-0.0479078
-0.046012
-0.0440901
-0.042052
-0.0398872
-0.0376418
-0.0353784
-0.0331528
-0.031007
-0.0289737
-0.0270531
-0.0252679
-0.0236043
-0.0220381
-0.0205281
-0.0190202
-0.0174504
-0.0157552
-0.0138733
-0.0117631
-0.00939555
-0.00677493
-0.00391653
-0.00086939
0.00231568
0.00556573
0.00880625
0.0119753
0.0149905
0.0178066
0.0203109
0.0225823
0.024641
0.02639
0.0271698
0.026131
0.0226054
0.0166649
0.0105307
0.00597442
0.00429779
0.00459351
0.00657221
0.00889798
0.0118489
0.0158244
0.019564
0.0223185
0.0228651
0.0225741
0.0154363
0.00343089
-0.00371332
-0.00550936
-0.00241135
-0.044951
-0.0469203
-0.0470947
-0.0460029
-0.044467
-0.0429322
-0.0414641
-0.0399688
-0.0383625
-0.0366267
-0.0347921
-0.0329061
-0.0310111
-0.0291395
-0.0273117
-0.0255539
-0.0238573
-0.0222226
-0.0206369
-0.0190748
-0.0175013
-0.015874
-0.0141494
-0.0122838
-0.0102467
-0.00801395
-0.00558671
-0.00297201
-0.00020567
0.00267672
0.00561628
0.00855798
0.0114432
0.0142064
0.0168031
0.0191457
0.0212471
0.0230784
0.0245253
0.02514
0.0243124
0.0216596
0.0172869
0.0126183
0.00891061
0.00729155
0.00723128
0.00862394
0.0105054
0.0130048
0.0164859
0.0200385
0.0227978
0.0238233
0.0236041
0.0183381
0.00745521
-0.000189818
-0.00265151
-0.00121588
-0.0391367
-0.0409486
-0.0412584
-0.0404871
-0.0393227
-0.0381488
-0.0370275
-0.0358794
-0.034628
-0.0332499
-0.0317647
-0.0302074
-0.0286111
-0.0270011
-0.0253932
-0.0238006
-0.0222262
-0.0206713
-0.019129
-0.0175838
-0.0160144
-0.0143933
-0.0126922
-0.0108808
-0.00893791
-0.00684491
-0.00460236
-0.00221278
0.000296703
0.00290172
0.00555462
0.00821436
0.0108264
0.0133393
0.015707
0.0178582
0.019768
0.0213818
0.022586
0.0230819
0.0224569
0.020496
0.0173214
0.0138363
0.0109215
0.00948583
0.00926124
0.0102375
0.0117696
0.0138948
0.0168584
0.0201034
0.0227145
0.0239265
0.0236467
0.0197539
0.0102226
0.00257481
-0.000658798
-0.000318437
-0.0338142
-0.035464
-0.0358613
-0.035339
-0.0344714
-0.0335872
-0.0327445
-0.0318766
-0.0309146
-0.0298328
-0.0286425
-0.0273693
-0.0260383
-0.0246688
-0.0232722
-0.0218568
-0.0204273
-0.0189866
-0.0175316
-0.0160536
-0.0145402
-0.0129744
-0.0113387
-0.00961286
-0.00778345
-0.00583683
-0.00377436
-0.00159652
0.000675184
0.00302412
0.00541093
0.00780493
0.0101569
0.0124262
0.014564
0.0165139
0.0182301
0.0196505
0.0206726
0.0210994
0.0206679
0.0192551
0.016988
0.0144392
0.0122184
0.0110269
0.0107602
0.0114499
0.0126963
0.0144999
0.016948
0.0197814
0.0220831
0.0232283
0.0227997
0.0198445
0.0118559
0.00460924
0.00105112
0.000335901
-0.0289513
-0.0304412
-0.0308884
-0.030556
-0.0299228
-0.0292693
-0.0286485
-0.0280049
-0.0272771
-0.0264391
-0.0254959
-0.0244661
-0.0233682
-0.0222165
-0.0210199
-0.0197832
-0.0185104
-0.0172047
-0.015866
-0.0144898
-0.0130693
-0.0115947
-0.010056
-0.00844035
-0.00674022
-0.00494635
-0.00306134
-0.00108524
0.00096417
0.00307516
0.00521432
0.0073591
0.00946574
0.0115013
0.0134176
0.015169
0.016702
0.0179578
0.01885
0.0192479
0.0189943
0.0180156
0.0164381
0.0146139
0.0129729
0.012041
0.0118016
0.0123021
0.0133063
0.0148224
0.0167868
0.0191424
0.0208973
0.0219643
0.0213833
0.0189987
0.0125428
0.00596584
0.00228099
0.000783631
-0.0245199
-0.0258519
-0.0263194
-0.02613
-0.0256808
-0.0252099
-0.0247649
-0.0242994
-0.0237597
-0.0231207
-0.0223832
-0.0215603
-0.0206655
-0.019709
-0.0186976
-0.0176343
-0.016521
-0.0153608
-0.0141553
-0.0129027
-0.0115996
-0.0102408
-0.00882125
-0.00733365
-0.00577452
-0.00413821
-0.00242858
-0.000646009
0.00119412
0.00308301
0.00499251
0.00690502
0.00878175
0.0105967
0.0123049
0.0138686
0.0152339
0.0163545
0.0171566
0.017552
0.0174556
0.016822
0.0157658
0.0144955
0.013323
0.0126381
0.0124571
0.0128361
0.0136333
0.0148848
0.016421
0.0182957
0.0196267
0.0204136
0.0197023
0.0176316
0.01252
0.00675332
0.00309201
0.00106411
-0.0204858
-0.0216666
-0.0221342
-0.0220512
-0.0217458
-0.0214184
-0.0211114
-0.0207863
-0.0203969
-0.0199192
-0.0193517
-0.0187035
-0.0179838
-0.0172
-0.0163574
-0.0154577
-0.0145007
-0.0134883
-0.0124233
-0.0113058
-0.0101344
-0.00890649
-0.00762023
-0.00627194
-0.0048611
-0.00338482
-0.00184785
-0.00025131
0.00139123
0.00307268
0.00476917
0.00646642
0.00813063
0.00974095
0.0112566
0.0126476
0.0138639
0.0148737
0.0156114
0.0160194
0.0160581
0.015693
0.0150272
0.0141827
0.01339
0.0129118
0.0127944
0.0130945
0.0137166
0.0147237
0.0158912
0.0173156
0.0182603
0.018756
0.0179551
0.0160597
0.0120287
0.00709467
0.00357083
0.00121937
-0.0168205
-0.0178596
-0.0183132
-0.0183081
-0.018114
-0.0178988
-0.0176994
-0.0174845
-0.017214
-0.0168666
-0.0164389
-0.0159371
-0.0153678
-0.0147353
-0.0140433
-0.0132933
-0.0124846
-0.0116172
-0.0106934
-0.00971465
-0.008681
-0.00759122
-0.00644526
-0.00524182
-0.00398224
-0.00266565
-0.00129727
0.0001209
0.00157706
0.0030649
0.00456389
0.00606275
0.00753273
0.00895578
0.010296
0.0115323
0.0126295
0.0135342
0.014222
0.0146469
0.0147946
0.0146375
0.0142637
0.0137407
0.0132407
0.0129326
0.012874
0.0131197
0.0135964
0.0143806
0.0152352
0.0162639
0.0168707
0.0171018
0.0162542
0.0144794
0.0112655
0.0071051
0.00379553
0.00128621
-0.0134985
-0.0144063
-0.0148365
-0.0148873
-0.014779
-0.0146509
-0.0145351
-0.0144058
-0.0142292
-0.0139863
-0.0136731
-0.0132931
-0.0128513
-0.01235
-0.0117904
-0.011175
-0.0105038
-0.00977438
-0.00898751
-0.00814536
-0.00724909
-0.00629841
-0.00529402
-0.00423597
-0.00312663
-0.00196655
-0.000761075
0.000487391
0.00176818
0.00307556
0.00439251
0.00570903
0.00700091
0.00825404
0.00943736
0.0105314
0.0115064
0.0123328
0.0129843
0.0134252
0.0136566
0.0136573
0.0134977
0.013213
0.0129322
0.0127592
0.0127489
0.0129535
0.0133094
0.0138966
0.0144906
0.0151876
0.0155131
0.0155166
0.0146564
0.0129916
0.0103714
0.00688382
0.00383293
0.00129191
-0.0104952
-0.0112832
-0.0116846
-0.0117747
-0.011732
-0.0116714
-0.0116199
-0.0115568
-0.0114539
-0.0112944
-0.0110742
-0.0107952
-0.0104607
-0.0100722
-0.00962906
-0.00913223
-0.00858486
-0.00798305
-0.00732556
-0.00661386
-0.00584994
-0.0050344
-0.0041682
-0.00325196
-0.00228842
-0.001279
-0.0002288
0.000859323
0.0019761
0.00311635
0.00426544
0.00541511
0.00654505
0.00764342
0.00868565
0.0096538
0.0105224
0.0112743
0.0118919
0.0123432
0.0126345
0.0127492
0.0127423
0.0126322
0.0125102
0.0124394
0.0124653
0.0126352
0.0128914
0.0133092
0.0136909
0.0141181
0.014221
0.0140386
0.0131859
0.0116365
0.00944054
0.0065142
0.00373985
0.00125534
-0.00778872
-0.00846877
-0.00883868
-0.0089556
-0.00896289
-0.00895409
-0.00895194
-0.00893975
-0.00889423
-0.00880108
-0.00865615
-0.00846052
-0.00821599
-0.00792358
-0.00758272
-0.00719283
-0.00675248
-0.00626418
-0.00572528
-0.00513515
-0.00449545
-0.00380747
-0.00307246
-0.00229116
-0.00146617
-0.000599275
0.00030478
0.00124306
0.00220763
0.00319363
0.00418889
0.00518629
0.00616929
0.00712778