/*--------------------------------*- C++ -*----------------------------------*\
| =========                 |                                                 |
| \\      /  F ield         | OpenFOAM: The Open Source CFD Toolbox           |
|  \\    /   O peration     | Version:  2512                                  |
|   \\  /    A nd           | Website:  www.openfoam.com                      |
|    \\/     M anipulation  |                                                 |
\*---------------------------------------------------------------------------*/
FoamFile
{
    version     2.0;
    format      ascii;
    arch        "LSB;label=32;scalar=64";
    class       volVectorField;
    location    "193";
    object      U;
}
// * * * * * * * * * * * * * * * * * * * * * * * * * * * * * * * * * * * * * //

dimensions      [0 1 -1 0 0 0 0];

internalField   nonuniform List<vector> 
13248
(
(-0.0141256 0.0121941 7.36648e-20)
(-0.0272996 0.025256 0)
(-0.0260834 0.0316111 -1.39008e-19)
(-0.0103754 0.0340185 1.30947e-19)
(0.0199422 0.0342998 1.22138e-19)
(0.0649337 0.033676 0)
(0.124501 0.0329873 0)
(0.198191 0.0328136 2.89476e-19)
(0.284996 0.0335196 -1.96596e-21)
(0.383193 0.0352736 -2.51888e-19)
(0.490272 0.0380435 2.33661e-19)
(0.602998 0.0415982 -1.45907e-19)
(0.717586 0.0455289 0)
(0.82998 0.0492938 -2.55525e-19)
(0.936193 0.0522836 4.79526e-19)
(1.03263 0.0538986 -1.13791e-19)
(1.11641 0.0536299 -2.09701e-19)
(1.18559 0.0511032 1.96868e-19)
(1.23929 0.0462121 0)
(1.27772 0.0387177 0)
(1.30222 0.0297108 0)
(1.3145 0.0162953 0)
(1.31699 0.00761327 6.24412e-20)
(1.31201 -0.021107 2.29341e-19)
(-0.0147289 0.0115589 -2.22594e-19)
(-0.0236783 0.0218666 1.51858e-19)
(-0.0134612 0.0255283 -1.51778e-21)
(0.0151292 0.0256531 -2.0046e-19)
(0.0616819 0.0243748 -1.22004e-19)
(0.125727 0.0231672 -1.1544e-19)
(0.206376 0.0230078 -2.10246e-19)
(0.302008 0.0244836 1.99516e-19)
(0.410046 0.027841 0)
(0.526905 0.0330034 8.81037e-22)
(0.648159 0.0395917 2.42568e-21)
(0.768898 0.0469753 1.47149e-19)
(0.884197 0.0543573 0)
(0.989611 0.0608857 0)
(1.0816 0.0657726 1.76564e-19)
(1.15785 0.0683991 -3.31839e-19)
(1.21737 0.0683882 2.01928e-19)
(1.26056 0.0656362 -1.89586e-19)
(1.28892 0.060285 -8.44836e-20)
(1.30481 0.0526953 -1.56917e-19)
(1.31091 0.0433271 -6.62654e-20)
(1.31002 0.032571 -1.25411e-19)
(1.30394 0.0223921 1.81503e-19)
(1.2962 0.00803281 5.21923e-20)
(-0.0139802 0.0101132 0)
(-0.0157864 0.0171373 0)
(0.00680238 0.0185818 7.09343e-20)
(0.0519424 0.0175478 6.51291e-20)
(0.118358 0.0162774 -1.86768e-21)
(0.20452 0.0163526 -1.20221e-19)
(0.30804 0.018723 0)
(0.425338 0.0237804 -9.90168e-20)
(0.551595 0.0314108 9.35362e-20)
(0.681042 0.0410507 1.32037e-21)
(0.80754 0.0517886 -1.58928e-19)
(0.925296 0.0625178 -1.46176e-19)
(1.02953 0.0721169 2.11597e-21)
(1.11697 0.0796232 -1.22681e-19)
(1.1861 0.0843627 2.92966e-19)
(1.23709 0.0860173 0)
(1.27161 0.0846235 -1.94174e-19)
(1.29229 0.0804971 9.41702e-20)
(1.30226 0.074174 8.44197e-20)
(1.30455 0.0661485 0)
(1.30181 0.0572998 7.03959e-20)
(1.29582 0.0472413 -2.42319e-19)
(1.28788 0.0390933 2.2748e-19)
(1.27938 0.0258331 1.44063e-19)
(-0.0114479 0.00788645 -7.92962e-20)
(-0.00258914 0.0111637 -8.21212e-20)
(0.0359769 0.0109817 7.39516e-20)
(0.101151 0.0100904 0)
(0.190313 0.0105974 0)
(0.300154 0.0139607 -3.15711e-21)
(0.425963 0.0208186 0)
(0.561514 0.0310427 -3.05844e-19)
(0.699505 0.0438526 2.83919e-19)
(0.832402 0.0579965 -3.4969e-19)
(0.953452 0.072002 7.98128e-20)
(1.05756 0.0844528 0)
(1.14182 0.0942257 1.33932e-19)
(1.20558 0.100639 -2.48471e-19)
(1.25022 0.103493 5.90371e-20)
(1.2785 0.103006 1.53641e-19)
(1.29395 0.099686 -5.69929e-21)
(1.30013 0.0941831 -1.7155e-19)
(1.30012 0.0871392 0)
(1.29628 0.0791378 0)
(1.29016 0.0706324 -6.25791e-20)
(1.28268 0.0617837 5.64177e-20)
(1.27435 0.0539955 2.04726e-19)
(1.26592 0.0428767 -1.92208e-19)
(-0.00675393 0.00507957 -8.40894e-20)
(0.0168002 0.00449443 -8.36554e-20)
(0.0750512 0.00359246 2.35066e-19)
(0.163306 0.00443838 -1.42324e-19)
(0.276925 0.00869485 1.33961e-19)
(0.40997 0.0173414 2.42647e-19)
(0.554674 0.0302968 -1.71756e-19)
(0.701955 0.0465329 -2.0889e-19)
(0.842597 0.0643767 4.35635e-21)
(0.968649 0.0819045 2.65874e-19)
(1.07455 0.0973478 0)
(1.15766 0.109409 7.34445e-20)
(1.2182 0.117421 0)
(1.25859 0.121332 -1.20217e-19)
(1.2826 0.121569 1.6907e-19)
(1.2944 0.118835 1.58407e-21)
(1.29787 0.113904 -4.47943e-20)
(1.29608 0.107481 8.44231e-20)
(1.29121 0.100132 7.3014e-20)
(1.28464 0.0922572 -6.58119e-20)
(1.27714 0.084179 6.25662e-20)
(1.26911 0.0759489 -5.64052e-20)
(1.26077 0.0684564 0)
(1.2525 0.0586474 -4.28502e-20)
(0.000439295 0.00201231 8.40773e-20)
(0.0430766 -0.00197169 8.85482e-20)
(0.124576 -0.00220481 -7.88517e-20)
(0.238124 0.00230789 1.47084e-19)
(0.376236 0.0123547 -1.38434e-19)
(0.529547 0.0279479 1.25034e-19)
(0.686982 0.0478243 -6.02106e-20)
(0.837249 0.0697893 1.56866e-19)
(0.970759 0.0913279 -9.89027e-20)
(1.08112 0.110203 1.74912e-19)
(1.16574 0.124878 -4.0379e-19)
(1.2255 0.134679 1.48595e-19)
(1.26378 0.139715 -1.30053e-19)
(1.28524 0.140641 1.22162e-19)
(1.29468 0.138363 1.06005e-19)
(1.29624 0.133801 9.35241e-20)
(1.29309 0.127732 -2.60405e-19)
(1.28735 0.12074 1.61813e-19)
(1.28031 0.113225 -7.30188e-20)
(1.27266 0.105456 1.91425e-19)
(1.26474 0.0976064 -6.18116e-20)
(1.2567 0.0897857 -1.51505e-19)
(1.24858 0.0824126 1.4004e-19)
(1.24051 0.0735619 4.28382e-20)
(0.0104235 -0.000916954 0)
(0.0766476 -0.00711441 9.14224e-22)
(0.184441 -0.00476061 1.66055e-19)
(0.324186 0.00557306 -1.55582e-19)
(0.484726 0.0232282 -1.40213e-19)
(0.652895 0.0466957 2.60511e-19)
(0.814917 0.0731977 -1.20943e-19)
(0.958931 0.0994336 1.60792e-19)
(1.07709 0.122487 -3.58532e-21)
(1.16639 0.140428 -9.11034e-20)
(1.22809 0.152501 1.98345e-19)
(1.26642 0.158958 -2.93088e-19)
(1.28688 0.16069 0)
(1.29494 0.158844 -5.77059e-20)
(1.29515 0.154517 -1.54367e-19)
(1.29086 0.1486 4.8525e-20)
(1.28426 0.14173 1.82418e-21)
(1.27661 0.134329 -1.07731e-19)
(1.26858 0.126661 6.28187e-21)
(1.26048 0.118894 1.24845e-19)
(1.25241 0.11114 -5.61279e-20)
(1.2444 0.10349 -2.14349e-20)
(1.23641 0.0960812 6.57541e-20)
(1.22848 0.0879068 0)
(0.0234024 -0.00324947 0)
(0.117504 -0.00970278 4.5096e-20)
(0.253678 -0.00240412 -2.17326e-19)
(0.418794 0.0158766 7.90306e-20)
(0.597507 0.0423716 -7.43782e-20)
(0.773278 0.0736061 -6.80588e-20)
(0.93124 0.105305 -1.19909e-19)
(1.0612 0.133553 6.00306e-20)
(1.15896 0.155744 5.19441e-20)
(1.22578 0.17087 0)
(1.26651 0.179257 1.18191e-19)
(1.28754 0.182049 -1.76158e-19)
(1.29517 0.180681 1.31005e-19)
(1.29452 0.176492 5.77375e-20)
(1.28929 0.170541 -4.75444e-20)
(1.28184 0.163565 -3.98899e-20)
(1.2735 0.156034 -3.73492e-20)
(1.26497 0.148231 1.11393e-19)
(1.25653 0.140325 0)
(1.24828 0.132422 5.63918e-20)
(1.24023 0.124599 4.77402e-20)
(1.23235 0.116924 -1.18245e-19)
(1.22456 0.109399 -8.1448e-20)
(1.21683 0.101678 7.51684e-20)
(0.0394284 -0.00448052 -4.9026e-20)
(0.165096 -0.00849778 -2.03887e-21)
(0.330388 0.00634046 4.4338e-20)
(0.518143 0.0343394 1.24214e-19)
(0.708991 0.070022 3.61282e-20)
(0.884432 0.107837 -6.98311e-20)
(1.0308 0.142498 6.36285e-20)
(1.14163 0.17028 -5.56018e-20)
(1.21742 0.189597 9.97038e-20)
(1.26338 0.20071 4.23352e-20)
(1.28686 0.205006 -1.20415e-19)
(1.29512 0.204274 3.53989e-20)
(1.29415 0.200186 6.05242e-20)
(1.28818 0.194047 -2.97528e-20)
(1.27989 0.186753 0)
(1.27079 0.178861 4.45033e-20)
(1.26161 0.170691 7.54908e-20)
(1.25266 0.162427 1.30382e-20)
(1.24406 0.154175 -6.30558e-20)
(1.2358 0.146007 2.6445e-20)
(1.22783 0.137979 0)
(1.22008 0.130123 -2.08695e-20)
(1.21249 0.122405 -1.98839e-20)
(1.20495 0.114903 0)
(0.0583397 -0.00408483 0)
(0.218263 -0.00236049 2.57299e-20)
(0.411805 0.0225778 4.76792e-20)
(0.617745 0.0614074 -1.26994e-19)
(0.813754 0.105624 4.11309e-20)
(0.981577 0.147984 0)
(1.11103 0.183062 6.15216e-20)
(1.20069 0.208171 -8.59087e-20)
(1.2556 0.223208 -4.98728e-20)
(1.28396 0.229738 2.24579e-20)
(1.2943 0.229971 -3.60572e-20)
(1.29371 0.226028 8.74828e-20)
(1.28728 0.219576 4.37554e-20)
(1.27821 0.211752 -3.04163e-20)
(1.26827 0.20325 -2.85576e-21)
(1.25834 0.194463 -8.33941e-20)
(1.24878 0.185599 3.7989e-20)
(1.23969 0.176775 -9.70383e-22)
(1.23109 0.168059 0)
(1.22291 0.159503 -2.64728e-20)
(1.2151 0.151141 0)
(1.20755 0.142977 6.01183e-20)
(1.2002 0.135017 -7.16004e-20)
(1.19291 0.127535 3.26648e-20)
(0.0797165 -0.00155503 -1.35127e-20)
(0.275239 0.00964036 -6.50956e-20)
(0.49453 0.0469199 7.41731e-20)
(0.712992 0.0968329 4.35373e-20)
(0.907271 0.148024 -2.07688e-20)
(1.06181 0.19243 3.4867e-20)
(1.17159 0.22551 -1.69247e-20)
(1.24044 0.246264 2.80848e-20)
(1.27715 0.25622 0)
(1.29164 0.258042 6.34958e-20)
(1.29252 0.254447 -2.65789e-21)
(1.28611 0.247621 -5.11783e-20)
(1.27639 0.239066 2.18969e-20)
(1.2656 0.229699 -2.47069e-20)
(1.25483 0.220023 -9.40455e-21)
(1.24454 0.210298 1.08608e-20)
(1.23486 0.200658 -8.39241e-21)
(1.2258 0.191174 -4.55855e-20)
(1.21731 0.181891 2.79363e-20)
(1.20931 0.172844 5.72645e-21)
(1.20171 0.164048 5.04838e-21)
(1.19442 0.155492 4.45281e-21)
(1.18734 0.147248 0)
(1.18031 0.139577 0)
(0.102948 0.00356389 1.3522e-20)
(0.333891 0.0281471 -1.35253e-20)
(0.575017 0.0794255 -2.47435e-20)
(0.799821 0.139759 0)
(0.986382 0.195722 -1.03293e-20)
(1.12397 0.23962 -9.31715e-21)
(1.21347 0.268707 -1.58927e-20)
(1.26344 0.284004 0)
(1.28521 0.288548 0)
(1.2893 0.285794 0)
(1.28372 0.278662 0)
(1.27365 0.269212 0)
(1.26207 0.258707 -1.37778e-20)
(1.25043 0.247839 6.27666e-21)
(1.23935 0.236954 1.08963e-20)
(1.229 0.226217 5.09161e-21)
(1.21941 0.215705 1.26065e-20)
(1.21053 0.205462 0)
(1.20228 0.195517 -3.02596e-21)
(1.19457 0.185888 -2.89463e-21)
(1.1873 0.176572 -5.05644e-21)
(1.18036 0.167564 -4.45994e-21)
(1.17363 0.159002 0)
(1.16697 0.150978 3.20502e-21)
(-0.00184101 0.0209102 8.91099e-21)
(-0.00768347 0.0598477 -9.22223e-21)
(-0.0173443 0.0952379 -1.7424e-20)
(-0.0291443 0.126029 0)
(-0.0421041 0.151928 -2.32701e-20)
(-0.0556287 0.173428 7.32308e-21)
(-0.0691923 0.191512 -1.37634e-20)
(-0.0823274 0.207302 0)
(-0.0946429 0.221779 0)
(-0.105822 0.235627 0)
(-0.115612 0.249179 0)
(-0.123803 0.262446 0)
(-0.130214 0.27519 6.70513e-23)
(-0.134671 0.286985 -9.28882e-21)
(-0.137001 0.297271 1.77434e-20)
(-0.137024 0.305388 2.54002e-20)
(-0.134558 0.310607 8.18679e-21)
(-0.129426 0.31215 0)
(-0.121478 0.309232 7.39171e-21)
(-0.110612 0.301114 -2.11871e-20)
(-0.0967639 0.287121 -1.37026e-20)
(-0.0798845 0.266793 -1.31823e-20)
(-0.0599458 0.239887 0)
(-0.0372884 0.206781 0)
(-0.00291144 0.0235714 -2.67298e-20)
(-0.00959196 0.0664 4.60235e-20)
(-0.0181961 0.104793 -1.72952e-20)
(-0.0278379 0.137909 -3.27388e-20)
(-0.0379549 0.165502 4.63025e-20)
(-0.0481606 0.188049 -2.90694e-20)
(-0.0580709 0.206516 4.1099e-20)
(-0.0672991 0.222041 2.56964e-20)
(-0.0754757 0.235658 0)
(-0.082262 0.248123 -2.32652e-20)
(-0.0873559 0.259849 -3.16807e-22)
(-0.0904914 0.270911 2.05334e-20)
(-0.0914288 0.281112 2.9313e-20)
(-0.0899541 0.290054 3.7488e-20)
(-0.0858697 0.297186 -1.71498e-20)
(-0.0789925 0.301861 -5.04794e-20)
(-0.0691626 0.303369 1.66906e-20)
(-0.0562447 0.300973 -6.21204e-20)
(-0.0401345 0.293942 0)
(-0.0208657 0.281592 1.42234e-20)
(0.00149609 0.263337 1.36782e-20)
(0.0268995 0.238794 1.31585e-20)
(0.05541 0.207893 0)
(0.0872923 0.171391 0)
(-0.00408852 0.0244578 0)
(-0.0118231 0.0689489 9.16699e-20)
(-0.0195216 0.109029 -3.45664e-20)
(-0.0269914 0.143748 3.25944e-20)
(-0.0340405 0.172715 -9.17689e-20)
(-0.0404825 0.196247 0)
(-0.0460912 0.215171 -5.42906e-20)
(-0.0505936 0.230539 2.53935e-20)
(-0.0536825 0.243368 -4.79567e-20)
(-0.0550358 0.254457 2.24098e-20)
(-0.054338 0.26429 1.29432e-19)
(-0.0512969 0.273029 -6.08372e-20)
(-0.0456315 0.28056 -9.76976e-20)
(-0.0371051 0.286547 -3.79894e-20)
(-0.02553 0.290501 -1.33398e-21)
(-0.0107389 0.291834 1.35631e-19)
(0.0073838 0.289904 -6.43719e-20)
(0.0288964 0.284057 -9.83618e-23)
(0.0537958 0.273648 0)
(0.0819841 0.258072 -5.88158e-20)
(0.113281 0.236861 0)
(0.147447 0.209641 -5.67742e-20)
(0.184342 0.176366 2.13629e-19)
(0.226078 0.137481 2.98701e-21)
(-0.00515435 0.0237529 0)
(-0.0140145 0.067731 -8.84963e-23)
(-0.0211074 0.108017 3.43441e-20)
(-0.0266949 0.143346 -3.22084e-20)
(-0.0308333 0.173079 3.06044e-20)
(-0.0334872 0.197284 1.71214e-19)
(-0.0345786 0.216562 -5.37433e-20)
(-0.0339682 0.231796 -5.02796e-20)
(-0.0314514 0.243913 9.52683e-20)
(-0.0267736 0.253699 -1.35527e-19)
(-0.0196555 0.261688 4.20293e-20)
(-0.00981813 0.268129 4.00465e-20)
(0.00300125 0.27301 0)
(0.0190286 0.276092 3.67811e-20)
(0.0384362 0.276989 0)
(0.0613467 0.275215 6.6722e-20)
(0.0878177 0.27023 -1.31354e-19)
(0.117836 0.261481 2.7574e-20)
(0.151318 0.248436 1.19271e-19)
(0.188106 0.230606 5.87411e-20)
(0.227956 0.207594 0)
(0.270787 0.179023 -1.67908e-19)
(0.315127 0.144894 5.23218e-20)
(0.368154 0.105004 0)
(-0.00597153 0.0218582 0)
(-0.0159173 0.0634589 -1.09336e-19)
(-0.0228067 0.102427 -3.40756e-20)
(-0.027036 0.137142 -6.4232e-20)
(-0.028749 0.166712 6.04771e-20)
(-0.0279871 0.190951 -5.68775e-20)
(-0.0247863 0.210202 1.06297e-19)
(-0.0191401 0.22513 5.02506e-20)
(-0.0109729 0.236516 -1.41315e-19)
(-0.000142863 0.245075 8.89105e-20)
(0.0135385 0.251349 -1.26186e-19)
(0.0302799 0.255647 2.77392e-19)
(0.0502847 0.258051 -1.50043e-19)
(0.073728 0.258442 7.12008e-20)
(0.100739 0.256554 2.07417e-19)
(0.131392 0.252021 -6.34432e-20)
(0.165699 0.24442 -5.94943e-20)
(0.203611 0.233312 -6.05127e-20)
(0.24502 0.218266 0)
(0.289832 0.198855 -1.17898e-19)
(0.337626 0.174754 -1.18296e-19)
(0.389387 0.145645 1.60947e-19)
(0.440457 0.111562 2.15758e-19)
(0.507241 0.0713264 -2.01132e-19)
(-0.00652622 0.0193021 0)
(-0.017476 0.0571685 -1.45098e-19)
(-0.024593 0.093406 5.90958e-22)
(-0.0280962 0.126156 1.28245e-19)
(-0.0280607 0.154368 0)
(-0.0245293 0.177671 0)
(-0.0176059 0.196182 0)
(-0.00739542 0.21035 -4.95848e-20)
(0.00604584 0.220777 -2.18178e-24)
(0.0227253 0.228073 8.70895e-20)
(0.0427065 0.232736 -1.25138e-19)
(0.0660909 0.235101 -4.85234e-22)
(0.0929944 0.235319 0)
(0.123527 0.233372 -7.11643e-20)
(0.157777 0.229107 6.8042e-20)
(0.195803 0.222276 -1.9158e-19)
(0.237637 0.212564 2.50718e-19)
(0.283286 0.199628 6.49793e-20)
(0.332669 0.183096 7.51128e-21)
(0.38596 0.162686 -2.22402e-19)
(0.442365 0.138008 -1.08033e-19)
(0.505044 0.108952 3.74502e-19)
(0.563221 0.0753086 -2.51688e-19)
(0.646419 0.0351717 0)
(-0.00693236 0.0166455 7.05097e-20)
(-0.0188395 0.050038 7.25593e-20)
(-0.0265583 0.0823957 -6.78201e-20)
(-0.029902 0.111866 -1.26856e-19)
(-0.0287693 0.137411 1.19436e-19)
(-0.0231523 0.158591 -1.10895e-19)
(-0.0131783 0.175381 1.56039e-19)
(0.000973078 0.188056 -4.94249e-20)
(0.0191401 0.197057 9.12701e-20)
(0.0412131 0.202868 0)
(0.0671441 0.20592 8.01012e-20)
(0.0969423 0.206534 -1.49981e-19)
(0.130661 0.204897 1.45141e-19)
(0.168382 0.201057 -1.3631e-19)
(0.210227 0.194932 0)
(0.256305 0.186379 1.25798e-19)
(0.306745 0.175166 2.43885e-19)
(0.361692 0.161029 -2.30524e-19)
(0.421213 0.143662 -1.11461e-19)
(0.485764 0.122913 -1.14926e-19)
(0.55344 0.0980868 3.17099e-19)
(0.630137 0.0698995 1.0388e-19)
(0.697271 0.0371138 -9.44594e-20)
(0.799563 -0.000551571 9.20939e-20)
(-0.00739893 0.0143813 -7.05195e-20)
(-0.02029 0.0431706 2.16244e-19)
(-0.0288124 0.0708772 -6.79619e-20)
(-0.0322847 0.0959781 1.26208e-19)
(-0.030394 0.117653 -1.18826e-19)
(-0.0230608 0.13553 1.40421e-22)
(-0.0103986 0.149551 5.16507e-20)
(0.00739119 0.159893 1.90285e-19)
(0.0301042 0.166878 -8.90876e-22)
(0.0575838 0.170882 -8.49443e-20)
(0.0897481 0.172262 0)
(0.126599 0.171303 -7.40829e-20)
(0.168219 0.168191 1.40237e-19)
(0.214726 0.16299 1.34894e-19)
(0.266321 0.155707 -6.35174e-20)
(0.323243 0.146234 -1.55895e-21)
(0.385643 0.134383 -5.97043e-20)
(0.453617 0.119953 1.12042e-19)
(0.526934 0.102644 1.11451e-19)
(0.605916 0.0825443 -1.07865e-19)
(0.687356 0.0585999 1.00552e-19)
(0.778059 0.0330202 -9.64636e-20)
(0.853753 0.00199972 0)
(0.967872 -0.029658 -9.20799e-20)
(-0.00815643 0.0128399 7.02487e-20)
(-0.0220866 0.0373849 -7.21921e-20)
(-0.0312847 0.0601041 6.76483e-20)
(-0.0346496 0.0801419 0)
(-0.0316918 0.097085 0)
(-0.0222608 0.110766 1.08664e-19)
(-0.00641503 0.1212 -1.02679e-19)
(0.0156972 0.128551 9.37316e-20)
(0.0439271 0.133082 -4.42817e-19)
(0.0781816 0.135101 2.54111e-22)
(0.11845 0.134902 7.71614e-20)
(0.164809 0.132727 0)
(0.217396 0.128739 -1.38708e-19)
(0.276395 0.123029 2.62235e-19)
(0.341896 0.115591 -1.8708e-19)
(0.413871 0.106305 -3.02338e-19)
(0.492117 0.0950413 -5.50803e-21)
(0.576119 0.0816568 2.15344e-19)
(0.664797 0.0658928 0)
(0.757312 0.0480838 0)
(0.849653 0.026916 -1.00556e-19)
(0.9461 0.00580932 9.64677e-20)
(1.02438 -0.021887 -3.60073e-19)
(1.13103 -0.044616 3.37154e-19)
(-0.00935293 0.0121155 0)
(-0.0242601 0.0330522 0)
(-0.0334917 0.0508716 -2.02557e-19)
(-0.0357496 0.0656548 6.46024e-20)
(-0.0304502 0.0775356 1.36325e-21)
(-0.0173742 0.0866559 1.10176e-19)
(0.00352307 0.0931937 0)
(0.0322253 0.0973772 -9.45107e-20)
(0.0687238 0.0994742 8.82855e-20)
(0.113048 0.0997629 -1.63291e-19)
(0.165257 0.0984985 -1.00836e-24)
(0.225397 0.0958825 1.44671e-19)
(0.293432 0.0920425 9.85159e-22)
(0.369146 0.0870249 1.31532e-19)
(0.452057 0.0807704 -1.83022e-19)
(0.541291 0.0731805 0)
(0.635566 0.0641035 2.27193e-19)
(0.73314 0.0533732 -3.22411e-19)
(0.83177 0.0407978 1.01454e-19)
(0.929087 0.0265335 0)
(1.02134 0.00969742 9.16832e-20)
(1.10863 -0.00681216 3.58863e-19)
(1.17772 -0.0298836 -3.36802e-19)
(1.25526 -0.0446472 -3.88324e-19)
(-0.0109523 0.0120368 2.11558e-19)
(-0.0264422 0.0300208 -2.90508e-19)
(-0.0344104 0.0433786 1.0499e-21)
(-0.0336558 0.0532303 6.42962e-20)
(-0.0236177 0.0603212 -1.18759e-19)
(-0.00401594 0.065168 -1.09712e-19)
(0.0253134 0.0681702 2.02512e-19)
(0.0644878 0.0696723 -2.63215e-21)
(0.113582 0.0699886 -1.76854e-19)
(0.172588 0.0693957 3.27631e-19)
(0.241337 0.0681127 -4.97548e-22)
(0.319399 0.0662804 -1.43863e-19)
(0.405981 0.0639454 0)
(0.49984 0.0610545 0)
(0.599247 0.0574584 -6.11749e-20)
(0.701986 0.0529351 -1.14941e-19)
(0.805435 0.047228 -2.21962e-19)
(0.906664 0.0400293 2.08343e-19)
(1.00266 0.0312009 -1.01506e-19)
(1.09043 0.0203894 1.895e-19)
(1.1673 0.00782311 -9.10571e-20)
(1.23173 -0.00611606 1.67629e-19)
(1.27956 -0.0241969 -3.89877e-19)
(1.31984 -0.0357496 7.59346e-20)
(-0.0126904 0.0122162 7.11386e-20)
(-0.0278243 0.0276974 0)
(-0.03253 0.0372344 1.36982e-19)
(-0.0260146 0.0428926 -1.29042e-19)
(-0.00785755 0.0460148 1.1887e-19)
(0.0222127 0.0474954 0)
(0.0643817 0.0479656 0)
(0.118708 0.0479017 -9.45266e-20)
(0.185028 0.0476684 1.86107e-21)
(0.262824 0.0475238 8.34491e-20)
(0.351095 0.0476099 -7.7009e-20)
(0.448268 0.0479394 1.44509e-19)
(0.552162 0.0483892 0)
(0.660043 0.048708 2.56604e-19)
(0.768747 0.0485413 -4.83381e-19)
(0.874866 0.0474689 3.42645e-19)
(0.974993 0.0450722 2.16267e-19)
(1.06595 0.0409205 -2.03013e-19)
(1.1451 0.0348738 0)
(1.21043 0.0263185 0)
(1.26111 0.0164227 0)
(1.297 0.00270941 0)
(1.31933 -0.0102625 7.53377e-20)
(1.33155 -0.0257054 -2.64711e-19)
(-0.00953424 0.162834 -8.58127e-21)
(0.0240093 0.0987263 8.64484e-21)
(0.0598523 0.0216111 -2.77972e-22)
(0.0983331 -0.066099 0)
(0.138751 -0.161399 -7.70534e-21)
(0.179953 -0.259836 1.45692e-20)
(0.221015 -0.356345 -5.47707e-22)
(0.260378 -0.443955 -6.15679e-21)
(0.296042 -0.515964 0)
(0.325392 -0.567821 0)
(0.345365 -0.59904 -2.21498e-22)
(0.352558 -0.614014 -1.82009e-22)
(0.344749 -0.6198 -2.53271e-21)
(0.324811 -0.619249 2.31347e-21)
(0.303847 -0.603876 0)
(0.298033 -0.555281 0)
(0.319336 -0.457215 2.38456e-21)
(0.367778 -0.308377 1.87879e-22)
(0.434331 -0.123241 -2.28997e-21)
(0.508203 0.0740131 -1.40165e-22)
(0.580432 0.254215 0)
(0.643738 0.391355 0)
(0.692564 0.475469 0)
(0.724279 0.513406 0)
(0.74143 0.519158 0)
(0.747802 0.509161 0)
(0.740666 0.505008 3.01255e-22)
(0.714544 0.51823 -4.89186e-22)
(0.675492 0.527865 0)
(0.645207 0.483134 0)
(0.643512 0.348712 -6.54732e-22)
(0.672264 0.141979 6.36309e-22)
(0.719305 -0.0792649 3.34198e-22)
(0.767438 -0.257111 0)
(0.806225 -0.368879 0)
(0.831329 -0.415237 3.03731e-22)
(0.84491 -0.428693 -2.95242e-22)
(0.836936 -0.435877 0)
(0.802679 -0.453722 2.21277e-22)
(0.752562 -0.440531 -3.21799e-22)
(0.714398 -0.358835 1.21435e-22)
(0.707032 -0.199611 0)
(0.730904 -0.00208088 -2.60637e-22)
(0.769905 0.158313 2.53438e-22)
(0.81446 0.280646 0)
(0.833255 0.335367 0)
(0.819413 0.3956 -6.90125e-23)
(0.778661 0.394914 2.03328e-22)
(0.747435 0.340966 0)
(0.746763 0.204675 0)
(0.782178 0.0102809 -6.58947e-23)
(0.812226 -0.103939 -6.22539e-24)
(0.830823 -0.27137 -8.07481e-24)
(0.805442 -0.305222 3.87388e-23)
(0.794693 -0.364053 0)
(0.789231 -0.294878 0)
(0.803334 -0.100539 0)
(0.797715 -0.0272462 0)
(0.806132 0.277589 0)
(0.785791 0.255166 0)
(0.123323 0.125649 -8.83304e-22)
(0.160918 0.0600786 -3.78255e-20)
(0.199262 -0.0185661 1.34682e-22)
(0.239222 -0.107203 3.53415e-20)
(0.27958 -0.202874 5.44097e-22)
(0.319213 -0.301385 0)
(0.357088 -0.396894 -2.67515e-20)
(0.391507 -0.481923 4.998e-20)
(0.420162 -0.549137 -2.32123e-20)
(0.440707 -0.593442 1.62643e-20)
(0.451198 -0.613863 -1.55874e-20)
(0.44958 -0.614837 1.06214e-20)
(0.433034 -0.605808 -1.03453e-20)
(0.400502 -0.595643 -2.46006e-22)
(0.358444 -0.582603 -7.5098e-21)
(0.322542 -0.549735 7.29881e-21)
(0.310518 -0.474255 -8.00364e-21)
(0.330815 -0.345212 7.54985e-21)
(0.379157 -0.172276 -8.64387e-21)
(0.444918 0.020102 1.64084e-20)
(0.516973 0.202423 -7.78256e-21)
(0.585789 0.347912 -3.65483e-22)
(0.643778 0.444179 -4.69292e-21)
(0.686613 0.494251 8.41588e-21)
(0.715343 0.50969 -3.74669e-21)
(0.73143 0.508268 1.9297e-22)
(0.730778 0.513494 3.38117e-21)
(0.710191 0.534472 5.47676e-22)
(0.679468 0.544845 -7.81191e-21)
(0.661015 0.492142 9.24399e-21)
(0.670849 0.345292 -4.94331e-21)
(0.707332 0.127526 7.54709e-22)
(0.757253 -0.0992823 -3.34861e-22)
(0.803339 -0.275984 6.04507e-22)
(0.836119 -0.382426 0)
(0.852315 -0.422722 0)
(0.858067 -0.429157 -9.97545e-22)
(0.84496 -0.427433 7.50775e-22)
(0.808097 -0.437719 6.23497e-22)
(0.753341 -0.423843 1.88786e-22)
(0.708928 -0.350058 -9.72512e-22)
(0.695884 -0.202431 2.34396e-22)
(0.717817 -0.0139732 0)
(0.759358 0.143158 0)
(0.806247 0.269671 0)
(0.828122 0.333789 0)
(0.814871 0.4028 2.75574e-22)
(0.77784 0.404839 -1.36342e-22)
(0.749025 0.345641 0)
(0.75091 0.201264 0)
(0.788045 0.00195421 0)
(0.818429 -0.109678 -1.19251e-22)
(0.839642 -0.270524 1.37964e-23)
(0.811443 -0.301322 -8.54613e-23)
(0.800809 -0.362059 0)
(0.792232 -0.295623 0)
(0.803024 -0.101611 4.79238e-23)
(0.795806 -0.0272412 1.22225e-22)
(0.801306 0.278931 0)
(0.783356 0.256329 0)
(0.265255 0.0909427 3.17615e-21)
(0.305363 0.024731 -7.77728e-20)
(0.345224 -0.0531105 7.87419e-20)
(0.386221 -0.140546 -7.36235e-20)
(0.426546 -0.234759 -5.47691e-22)
(0.464799 -0.331648 0)
(0.499589 -0.424943 -5.74009e-20)
(0.528708 -0.506646 5.6177e-20)
(0.549437 -0.569048 3.40733e-22)
(0.559663 -0.607008 5.68024e-22)
(0.558598 -0.619551 4.53102e-22)
(0.546334 -0.610429 3.64085e-22)
(0.521982 -0.588499 -1.70183e-20)
(0.482768 -0.565757 1.67882e-20)
(0.429038 -0.548319 0)
(0.37131 -0.525883 3.43914e-22)
(0.328878 -0.473839 -1.28251e-20)
(0.318279 -0.371088 1.26928e-20)
(0.343022 -0.217718 0)
(0.395346 -0.0353409 0)
(0.463035 0.145429 -1.21662e-20)
(0.534194 0.297439 2.212e-20)
(0.599113 0.405308 -1.79021e-20)
(0.651901 0.467919 1.2447e-21)
(0.691547 0.49437 1.28724e-20)
(0.716903 0.503155 -1.25482e-20)
(0.723014 0.518497 1.23035e-20)
(0.709134 0.546844 6.86386e-22)
(0.687913 0.557838 -7.34496e-21)
(0.681389 0.498593 0)
(0.70228 0.342138 0)
(0.746019 0.116059 4.61949e-21)
(0.798128 -0.11456 -5.99982e-21)
(0.841339 -0.289746 2.70874e-23)
(0.867766 -0.391287 3.40078e-21)
(0.875056 -0.42655 -3.30494e-21)
(0.872872 -0.427437 0)
(0.854831 -0.417969 2.1977e-22)
(0.816171 -0.421059 1.68637e-21)
(0.757846 -0.406597 -3.34349e-21)
(0.707768 -0.341088 1.50655e-21)
(0.688923 -0.206075 1.69593e-22)
(0.70841 -0.0274709 -2.03536e-21)
(0.751737 0.126136 1.59207e-21)
(0.800217 0.2573 3.09485e-22)
(0.824903 0.331199 2.79885e-22)
(0.812528 0.409147 -2.76287e-22)
(0.779656 0.41431 0)
(0.753599 0.350364 0)
(0.757886 0.19853 -1.44624e-21)
(0.796184 -0.00582113 6.80647e-22)
(0.826407 -0.115142 -5.91672e-22)
(0.85002 -0.269261 7.01623e-22)
(0.818734 -0.297003 6.66958e-22)
(0.807722 -0.359662 -1.57738e-22)
(0.796058 -0.296186 2.11123e-22)
(0.80389 -0.102363 -1.72046e-22)
(0.795127 -0.027057 4.90127e-23)
(0.797568 0.280181 0)
(0.781898 0.257398 0)
(0.407039 0.0590841 -1.61985e-19)
(0.449047 -0.00660663 -2.14335e-21)
(0.49111 -0.0829071 1.56351e-19)
(0.53339 -0.168034 -1.19657e-21)
(0.574216 -0.259601 0)
(0.611629 -0.353725 0)
(0.643624 -0.443665 -1.17368e-19)
(0.667312 -0.520947 1.24007e-20)
(0.679659 -0.57773 1.39319e-19)
(0.67894 -0.609218 -7.47182e-21)
(0.665351 -0.615215 -3.29453e-20)
(0.640749 -0.599558 -1.97856e-20)
(0.607196 -0.569139 1.99105e-20)
(0.563751 -0.534722 0)
(0.506763 -0.50743 -1.08024e-20)
(0.438296 -0.486872 9.87056e-21)
(0.373021 -0.4537 0)
(0.332281 -0.380565 0)
(0.329342 -0.254559 1.05836e-20)
(0.362561 -0.0892673 6.36781e-23)
(0.420821 0.0855582 -9.70143e-21)
(0.490451 0.24146 -8.45004e-21)
(0.559542 0.359588 8.31749e-21)
(0.620574 0.434638 -6.25028e-21)
(0.669927 0.473057 3.31454e-22)
(0.703829 0.493163 5.55965e-21)
(0.716885 0.518804 7.46993e-22)
(0.710577 0.554003 1.08463e-23)
(0.699496 0.56599 0)
(0.704787 0.502574 1.13074e-20)
(0.736227 0.339911 -1.17455e-20)
(0.786757 0.108648 8.03228e-22)
(0.84069 -0.124949 0)
(0.880754 -0.298894 -6.38943e-22)
(0.900793 -0.396094 7.01324e-21)
(0.899404 -0.427119 -1.12522e-20)
(0.889223 -0.423855 5.81904e-22)
(0.866252 -0.408013 6.84932e-22)
(0.826428 -0.404203 2.688e-21)
(0.765834 -0.388693 3.4433e-22)
(0.710971 -0.331438 -2.92627e-21)
(0.686294 -0.209973 2.43696e-21)
(0.702694 -0.0422366 6.03249e-23)
(0.746922 0.107516 1.26552e-21)
(0.796254 0.243595 -1.54094e-21)
(0.823536 0.327438 -1.90204e-21)
(0.812378 0.414412 5.35318e-22)
(0.784061 0.423177 1.32565e-21)
(0.761169 0.355222 -2.79268e-21)
(0.767707 0.196709 2.21069e-21)
(0.806565 -0.0128506 -6.04392e-22)
(0.836061 -0.12031 7.95257e-22)
(0.861818 -0.267641 6.0564e-22)
(0.827254 -0.292222 -1.01791e-21)
(0.81536 -0.356791 3.40224e-23)
(0.800587 -0.296564 -1.67615e-22)
(0.805847 -0.102837 0)
(0.795617 -0.02669 -8.42784e-23)
(0.794883 0.281355 1.06966e-22)
(0.781419 0.258386 0)
(0.545588 0.0271435 1.61683e-19)
(0.588755 -0.0358149 -3.2053e-19)
(0.633256 -0.109438 1.56269e-19)
(0.677762 -0.190814 1.52767e-19)
(0.719317 -0.278154 -2.9331e-19)
(0.755553 -0.367624 9.24424e-21)
(0.783986 -0.452091 1.28747e-19)
(0.801142 -0.523133 1.00087e-19)
(0.804021 -0.573377 -9.79871e-20)
(0.791783 -0.598651 0)
(0.765924 -0.599435 -5.21945e-20)
(0.729433 -0.580125 9.07699e-20)
(0.68598 -0.546515 -3.89343e-20)
(0.637671 -0.505816 0)
(0.58159 -0.468509 0)
(0.51315 -0.442035 2.83738e-22)
(0.437177 -0.417962 -1.43245e-20)
(0.372395 -0.371003 1.39176e-20)
(0.34013 -0.277537 0)
(0.348965 -0.137165 1.53239e-20)
(0.392482 0.0259329 -2.85144e-20)
(0.456152 0.181647 2.60498e-20)
(0.526078 0.307761 -2.33891e-20)
(0.592906 0.394509 6.13869e-22)
(0.650132 0.445375 1.98936e-20)
(0.69156 0.477475 -9.95911e-21)
(0.711585 0.513359 -3.66774e-22)
(0.713417 0.555098 -7.10055e-21)
(0.712769 0.569023 -2.06414e-21)
(0.729436 0.504318 9.10331e-21)
(0.770781 0.339014 7.69532e-22)
(0.827826 0.105119 -1.33247e-20)
(0.883712 -0.130377 2.48774e-20)
(0.920783 -0.303174 -1.29393e-20)
(0.934541 -0.396668 0)
(0.924894 -0.424318 -5.95558e-21)
(0.906891 -0.418317 5.6095e-21)
(0.879057 -0.397694 -2.55877e-21)
(0.838545 -0.387633 3.20756e-21)
(0.77696 -0.370623 -2.67395e-22)
(0.718392 -0.321116 0)
(0.687971 -0.213749 -2.88956e-22)
(0.700525 -0.0577986 9.12131e-22)
(0.744723 0.087565 0)
(0.794179 0.228532 2.56679e-21)
(0.823877 0.32227 -1.01503e-21)
(0.81432 0.418326 5.35952e-22)
(0.790909 0.431282 6.25228e-22)
(0.771603 0.360247 0)
(0.780257 0.195941 0)
(0.819119 -0.0189435 -2.19284e-21)
(0.847271 -0.125122 3.22957e-21)
(0.874874 -0.265628 -1.64204e-21)
(0.836945 -0.286896 4.38848e-22)
(0.823663 -0.353369 6.04651e-22)
(0.805697 -0.296781 1.67772e-22)
(0.808796 -0.103088 -2.00177e-22)
(0.797201 -0.0261426 0)
(0.793207 0.282467 -1.70919e-22)
(0.781915 0.259301 -2.00452e-23)
(0.68464 -0.00549121 1.58867e-19)
(0.728632 -0.0649893 -1.58359e-19)
(0.7745 -0.134236 1.24054e-21)
(0.820059 -0.209916 -1.15241e-21)
(0.860666 -0.291051 1.14923e-21)
(0.893643 -0.373565 -1.06647e-21)
(0.916229 -0.450225 1.84023e-21)
(0.924761 -0.513317 0)
(0.916809 -0.556481 -1.36427e-21)
(0.892727 -0.576374 1.11857e-21)
(0.855417 -0.573761 8.8971e-22)
(0.808931 -0.552973 -7.04414e-22)
(0.75726 -0.519527 0)
(0.703754 -0.478173 0)
(0.648449 -0.43529 2.76568e-22)
(0.585782 -0.400022 0)
(0.51148 -0.374668 -1.45466e-22)
(0.434387 -0.344048 0)
(0.376537 -0.281852 -9.28254e-21)
(0.357239 -0.173073 1.85925e-20)
(0.37977 -0.0294258 -1.86671e-20)
(0.432414 0.120229 9.15065e-21)
(0.499464 0.250953 7.81124e-21)
(0.569006 0.347939 -7.58556e-21)
(0.631753 0.411234 -8.42688e-21)
(0.679423 0.455625 8.21327e-21)
(0.706205 0.501546 0)
(0.716439 0.549752 3.66056e-22)
(0.72617 0.566855 0)
(0.753473 0.50391 0)
(0.803845 0.339575 2.48052e-20)
(0.867404 0.10533 -2.55477e-20)
(0.926047 -0.130862 1.6136e-21)
(0.96064 -0.30268 1.36283e-21)
(0.968411 -0.393246 -1.03717e-21)
(0.951099 -0.418362 -5.23123e-21)
(0.925603 -0.410904 5.07956e-21)
(0.892981 -0.387148 -3.2141e-21)
(0.852066 -0.371667 2.73089e-21)
(0.790677 -0.352701 5.05584e-22)
(0.729609 -0.310045 -2.09085e-21)
(0.693761 -0.217031 -2.84744e-22)
(0.701669 -0.0737475 1.49164e-21)
(0.744827 0.066505 0)
(0.793741 0.212039 -9.11839e-22)
(0.825711 0.315435 1.49019e-21)
(0.81816 0.420617 -1.9179e-21)
(0.799935 0.438456 -6.29235e-22)
(0.784627 0.365398 0)
(0.795318 0.196326 8.29856e-22)
(0.833722 -0.0238982 -1.69771e-21)
(0.8599 -0.12948 2.75391e-23)
(0.888987 -0.263218 -5.33786e-22)
(0.847732 -0.280967 6.1109e-22)
(0.832587 -0.349301 -5.96481e-22)
(0.811271 -0.296841 0)
(0.812627 -0.103178 2.00269e-22)
(0.799795 -0.0254225 0)
(0.792486 0.283524 0)
(0.78338 0.260143 3.058e-23)
(0.833869 -0.0376982 -1.54325e-19)
(0.873725 -0.0934487 1.52761e-19)
(0.917875 -0.156026 -1.13519e-21)
(0.960564 -0.223792 1.17978e-21)