/*--------------------------------*- C++ -*----------------------------------*\
| =========                 |                                                 |
| \\      /  F ield         | OpenFOAM: The Open Source CFD Toolbox           |
|  \\    /   O peration     | Version:  2512                                  |
|   \\  /    A nd           | Website:  www.openfoam.com                      |
|    \\/     M anipulation  |                                                 |
\*---------------------------------------------------------------------------*/
FoamFile
{
    version     2.0;
    format      ascii;
    arch        "LSB;label=32;scalar=64";
    class       surfaceScalarField;
    location    "124";
    object      phi;
}
// * * * * * * * * * * * * * * * * * * * * * * * * * * * * * * * * * * * * * //

dimensions      [0 3 -1 0 0 0 0];

oriented        oriented;

internalField   nonuniform List<scalar> 
26232
(
-4.26568e-05
0.000860009
-0.000817352
4.73003e-05
0.00150336
-0.00159331
0.000474731
0.00127481
-0.00170224
0.0014378
0.000245898
-0.00120897
0.00312939
-0.00155813
-0.000133467
0.00573577
-0.00413359
0.00152721
0.00942854
-0.00748267
0.00378991
0.0143537
-0.0115977
0.00667249
0.0206168
-0.0164474
0.0101843
0.028267
-0.0219678
0.0143176
0.0372845
-0.0280592
0.0190417
0.0475733
-0.0345897
0.0243008
0.0589626
-0.0414043
0.0300151
0.0712152
-0.0483379
0.0360852
0.0840446
-0.0552287
0.0423994
0.0971355
-0.0619318
0.0488409
0.110168
-0.0683288
0.0552962
0.122841
-0.0743367
0.0616633
0.134897
-0.0799077
0.0678517
0.146131
-0.0850433
0.0738097
0.156417
-0.0897441
0.0794586
0.165665
-0.0941565
0.0849083
0.173846
-0.0980873
0.0899063
-0.102282
0.0954487
0.180679
4.5151e-05
0.000814858
0.000393694
0.00115481
0.00126105
0.000407456
0.00285979
-0.00135284
0.00539559
-0.00409393
0.00905679
-0.00779479
0.0139977
-0.0124236
0.020318
-0.0179181
0.0280429
-0.0241722
0.0371074
-0.0310323
0.0473526
-0.0383044
0.0585331
-0.0457702
0.0703377
-0.0532088
0.0824176
-0.0604178
0.0944207
-0.0672318
0.106024
-0.0735351
0.116963
-0.0792677
0.127051
-0.0844248
0.136194
-0.0890502
0.144378
-0.0932276
0.151688
-0.0970537
0.158208
-0.100677
0.164189
-0.104069
-0.107751
0.169658
0.000139483
0.000675375
0.000774635
0.000519661
0.00213289
-0.000950801
0.00443657
-0.00365652
0.00789022
-0.00754758
0.0126589
-0.0125635
0.0188407
-0.0186053
0.0264401
-0.0255175
0.0353506
-0.0330827
0.0453528
-0.0410345
0.0561323
-0.0490839
0.0673133
-0.0569513
0.0785026
-0.0643982
0.0893351
-0.0712502
0.0995129
-0.0774096
0.108834
-0.082856
0.117204
-0.0876375
0.124633
-0.0918539
0.131218
-0.0956353
0.137113
-0.0991229
0.142499
-0.10244
0.147539
-0.105717
0.152407
-0.108936
-0.112474
0.15713
0.000241453
0.000433922
0.00118964
-0.000428523
0.00308158
-0.00284274
0.0061377
-0.00671264
0.0105374
-0.0119473
0.0163842
-0.0184103
0.0236711
-0.0258922
0.032258
-0.0341044
0.0418731
-0.0426977
0.0521407
-0.0513022
0.0626314
-0.0595746
0.0729213
-0.0672412
0.0826487
-0.0741256
0.0915559
-0.0801574
0.0995099
-0.0853637
0.106502
-0.0898477
0.112623
-0.0937592
0.118034
-0.0972651
0.122922
-0.100523
0.127465
-0.103666
0.131813
-0.106788
0.136059
-0.109963
0.1403
-0.113177
-0.116668
0.144493
0.000354188
7.97336e-05
0.00164229
-0.00171663
0.00410095
-0.00530139
0.00792739
-0.0105391
0.01324
-0.0172598
0.0200331
-0.0252035
0.028147
-0.0340061
0.0372682
-0.0432256
0.0469681
-0.0523976
0.0567698
-0.0611039
0.0662248
-0.0690296
0.0749787
-0.0759951
0.0828126
-0.0819595
0.0896537
-0.0869985
0.0955572
-0.0912671
0.100668
-0.0949583
0.105174
-0.0982659
0.109267
-0.101358
0.113109
-0.104365
0.116819
-0.107375
0.120476
-0.110445
0.124119
-0.113607
0.127792
-0.11685
-0.120317
0.131441
0.000480469
-0.000400735
0.00213299
-0.00336915
0.00517378
-0.00834218
0.00974429
-0.0151096
0.0158567
-0.0233723
0.0233501
-0.0326969
0.0318851
-0.0425411
0.0409888
-0.0523293
0.0501391
-0.0615479
0.0588595
-0.0698243
0.0667959
-0.076966
0.0737565
-0.0829557
0.079711
-0.0879141
0.0847574
-0.0920449
0.0890707
-0.0955804
0.0928508
-0.0987385
0.0962824
-0.101697
0.0995116
-0.104587
0.102641
-0.107494
0.105733
-0.110468
0.108826
-0.113537
0.111933
-0.116714
0.115076
-0.119993
-0.123448
0.118207
0.000620314
-0.00102105
0.00265197
-0.00540081
0.00626036
-0.0119506
0.0114896
-0.0203388
0.0182005
-0.0300832
0.0260491
-0.0405455
0.0345298
-0.0510218
0.0430748
-0.0608742
0.0511695
-0.0696426
0.0584436
-0.0770985
0.0647131
-0.0832354
0.06997
-0.0882126
0.0743366
-0.0922806
0.0780039
-0.0957122
0.0811762
-0.0987527
0.0840324
-0.101595
0.0867082
-0.104373
0.0892953
-0.107174
0.0918496
-0.110048
0.0944018
-0.11302
0.0969673
-0.116102
0.099551
-0.119298
0.10216
-0.122602
-0.126046
0.104758
0.000769839
-0.00179089
0.00317687
-0.00780783
0.00729741
-0.0160711
0.0130347
-0.0260761
0.020067
-0.0371156
0.0278745
-0.0483529
0.0358441
-0.0589915
0.0434089
-0.0684391
0.0501599
-0.0763935
0.0558959
-0.0828345
0.0606102
-0.0879497
0.0644341
-0.0920365
0.0675671
-0.0954136
0.0702166
-0.0983617
0.0725593
-0.101095
0.0747264
-0.103762
0.0768044
-0.106451
0.078845
-0.109215
0.0808765
-0.11208
0.0829128
-0.115056
0.0849598
-0.118149
0.0870187
-0.121357
0.0890916
-0.124675
-0.128108
0.0911534
0.000921594
-0.00271248
0.00367501
-0.0105613
0.00820683
-0.0206029
0.0142445
-0.0321137
0.0212803
-0.0441513
0.0286648
-0.0557375
0.0357653
-0.0660919
0.0421069
-0.0747807
0.047443
-0.0817296
0.0517448
-0.0871363
0.0551385
-0.0913434
0.0578265
-0.0947245
0.0600203
-0.0976075
0.0618994
-0.100241
0.0635952
-0.102791
0.0651931
-0.10536
0.0667438
-0.108002
0.0682743
-0.110746
0.0697984
-0.113604
0.0713224
-0.11658
0.0728485
-0.119675
0.0743771
-0.122885
0.0759072
-0.126205
-0.129625
0.0774242
0.00106553
-0.00377801
0.00410844
-0.0136042
0.00890969
-0.0254042
0.0150054
-0.0382094
0.0217314
-0.0508773
0.0283836
-0.0623897
0.0343954
-0.0721037
0.0394413
-0.0798266
0.0434428
-0.0857311
0.0465044
-0.0901979
0.0488251
-0.0936641
0.0506216
-0.096521
0.0520801
-0.099066
0.0533373
-0.101498
0.0544817
-0.103936
0.0555651
-0.106443
0.0566152
-0.109052
0.0576462
-0.111777
0.0586649
-0.114622
0.0596745
-0.11759
0.0606757
-0.120677
0.0616682
-0.123878
0.0626499
-0.127187
-0.130589
0.0636141
0.00119096
-0.00496897
0.00444107
-0.0168543
0.00934149
-0.0303046
0.0152471
-0.044115
0.0213949
-0.0570251
0.0271069
-0.0681017
0.0319435
-0.0769403
0.0357424
-0.0836255
0.0385631
-0.0885519
0.0405908
-0.0922255
0.0420459
-0.0951193
0.0431252
-0.0976003
0.0439752
-0.0999161
0.0446918
-0.102214
0.0453307
-0.104574
0.0459219
-0.107034
0.0464803
-0.10961
0.0470137
-0.11231
0.047526
-0.115135
0.0480189
-0.118083
0.0484926
-0.12115
0.0489462
-0.124331
0.0493764
-0.127617
-0.130994
0.0497812
0.00129071
-0.00625968
0.00464724
-0.0202108
0.00946399
-0.0351214
0.0149519
-0.0496029
0.0203217
-0.0623949
0.0249881
-0.0727681
0.0286639
-0.0806162
0.0313309
-0.0862925
0.0331414
-0.0903623
0.0343137
-0.0933979
0.0350566
-0.0958622
0.0355315
-0.0980752
0.0358458
-0.10023
0.0360628
-0.102431
0.0362163
-0.104728
0.0363229
-0.107141
0.0363912
-0.109679
0.0364256
-0.112344
0.0364289
-0.115138
0.0364027
-0.118057
0.0363473
-0.121095
0.0362617
-0.124246
0.0361426
-0.127498
0.0359903
-0.130842
-0.000284922
-0.00211105
0.00239597
-0.000997648
-0.00474834
0.00546107
-0.00205098
-0.00626593
0.00731926
-0.00337828
-0.0069418
0.0082691
-0.0049281
-0.00701585
0.00856566
-0.00666217
-0.0066803
0.00841437
-0.00855247
-0.00607196
0.00796226
-0.0105776
-0.00527205
0.00729722
-0.0127196
-0.00431332
0.0064553
-0.0149609
-0.00319162
0.00543293
-0.0172826
-0.00187883
0.00420049
-0.0196629
-0.000333577
0.00271388
-0.02206
0.00148495
0.000912164
-0.0244662
0.00361523
-0.00120901
-0.0268288
0.00609418
-0.00373162
-0.0291
0.00894499
-0.00667373
-0.0312235
0.0121782
-0.0100546
-0.0331346
0.0157884
-0.0138773
-0.0347616
0.0197516
-0.0181246
-0.0360289
0.0240229
-0.0227556
-0.0368612
0.0285354
-0.0277031
-0.0371875
0.0332007
-0.0328745
-0.0369528
0.0379234
-0.0381581
0.042638
-0.0361748
-0.043416
-0.000321179
-0.00178987
-0.00110044
-0.00396908
-0.00222287
-0.0051435
-0.00360485
-0.00555982
-0.00518623
-0.00543447
-0.00692512
-0.00494142
-0.00879212
-0.00420496
-0.0107646
-0.00329961
-0.0128215
-0.00225637
-0.0149402
-0.00107289
-0.0170931
0.000274014
-0.0192454
0.00181874
-0.0213572
0.00359671
-0.023382
0.00564008
-0.0252614
0.00797356
-0.0269276
0.0106112
-0.0283029
0.0135535
-0.0293002
0.0167856
-0.0298236
0.020275
-0.0297714
0.0239708
-0.0290413
0.0278053
-0.0275378
0.0316973
-0.0251704
0.035556
0.0393223
-0.0218547
-0.000333714
-0.00145616
-0.00112692
-0.00317587
-0.0022456
-0.00402483
-0.00359241
-0.004213
-0.00509824
-0.00392864
-0.00671519
-0.00332447
-0.00840915
-0.00251099
-0.0101526
-0.00155618
-0.0119186
-0.000490405
-0.013676
0.000684587
-0.0153877
0.00198572
-0.0170079
0.00343887
-0.0184822
0.00507104
-0.019747
0.00690494
-0.0207288
0.00895533
-0.0213437
0.011226
-0.0214979
0.0137077
-0.0210885
0.0163763
-0.020005
0.0191914
-0.0181307
0.0220965
-0.0153465
0.0250211
-0.0115385
0.0278892
-0.00661707
0.0306345
0.03331
-0.000604805
-0.000328727
-0.00112743
-0.00109782
-0.00240678
-0.00216089
-0.00296175
-0.00340936
-0.00296453
-0.00476474
-0.00257325
-0.00617109
-0.00191812
-0.00758686
-0.00109522
-0.008977
-0.000166045
-0.0103068
0.000839422
-0.0115366
0.00191435
-0.012619
0.0030681
-0.0134974
0.00431731
-0.0141058
0.00567939
-0.0143682
0.0071674
-0.0141995
0.00878665
-0.0135056
0.010532
-0.0121839
0.012386
-0.0101249
0.0143174
-0.00721478
0.0162813
-0.00333494
0.0182167
0.00163519
0.020051
0.00781922
0.0217052
0.0153479
0.0231059
0.0242111
0.0244468
-0.000314372
-0.000813057
-0.00103882
-0.00168234
-0.00201892
-0.00198165
-0.0031367
-0.00184675
-0.00430434
-0.00140562
-0.00545666
-0.000765801
-0.00654306
-8.8213e-06
-0.00751997
0.000810866
-0.00834379
0.00166324
-0.00896673
0.0025373
-0.00933325
0.00343462
-0.00937876
0.00436281
-0.00902931
0.00532994
-0.00820208
0.00634017
-0.00680605
0.00739061
-0.00474341
0.00846939
-0.0019112
0.00955384
0.00179656
0.0106096
0.00648913
0.0115887
0.0122743
0.0124315
0.0192605
0.0130648
0.0275607
0.0134051
0.0372615
0.0134051
0.0127453
0.0487273
-0.000297994
-0.000515063
-0.000972564
-0.00100777
-0.00186328
-0.00109093
-0.00284435
-0.000865679
-0.00381923
-0.000430728
-0.00471352
0.000128484
-0.00546726
0.000744918
-0.00602773
0.00137134
-0.00634324
0.00197874
-0.00635852
0.00255258
-0.00601174
0.00308784
-0.00523307
0.00358415
-0.00394453
0.0040414
-0.00206061
0.00445625
0.000510379
0.00481963
0.00386513
0.00511463
0.00810339
0.00531558
0.0133262
0.00538679
0.0196332
0.00528169
0.0271215
0.00494326
0.0358802
0.00430599
0.0460265
0.00325885
0.0575288
0.00190272
-0.000758225
0.0710323
-0.000283629
-0.000231435
-0.000911067
-0.000380329
-0.00171639
-0.000285615
-0.00256724
-1.48217e-05
-0.00335938
0.000361405
-0.00400963
0.000778734
-0.00444877
0.00118407
-0.00461482
0.00153739
-0.00444736
0.00181129
-0.00388337
0.00198859
-0.00285429
0.00205876
-0.00128472
0.00201457
0.000907652
0.00184903
0.00381159
0.00155231
0.00752109
0.00111013
0.0121336
0.000502126
0.0177482
-0.000299073
0.0244641
-0.00132902
0.032378
-0.00263225
0.0415837
-0.0042625
0.0521514
-0.00626171
0.064229
-0.00881871
0.0776099
-0.0114781
-0.0163164
0.093168
-0.000270556
3.91209e-05
-0.000851261
0.000200376
-0.00157062
0.000433745
-0.00229043
0.000704987
-0.00289891
0.000969889
-0.00330376
0.00118358
-0.00342518
0.00130549
-0.00318964
0.00130185
-0.00252444
0.00114609
-0.00135513
0.000819275
0.000398864
0.000304763
0.00282442
-0.000410981
0.00601399
-0.00134054
0.0100659
-0.00249956
0.0150816
-0.00390564
0.0211642
-0.00558039
0.0284149
-0.00754982
0.0369306
-0.00984469
0.046798
-0.0124997
0.0580976
-0.015562
0.0708601
-0.0190242
0.0852199
-0.0231785
0.100849
-0.0271069
-0.03396
0.118492
-0.000253628
0.000292749
-0.000776013
0.000722761
-0.00139013
0.00104786
-0.00195129
0.00126615
-0.00233859
0.0013572
-0.0024477
0.00129268
-0.0021841
0.00104189
-0.00145753
0.000575275
-0.000174339
-0.000137102
0.00175554
-0.0011106
0.00443397
-0.00237367
0.00796444
-0.00394145
0.0124541
-0.00583021
0.0180096
-0.00805503
0.0247338
-0.0106299
0.0327215
-0.0135681
0.0420539
-0.0168822
0.0527935
-0.0205843
0.0649774
-0.0246836
0.0786163
-0.0292009
0.0936654
-0.0340733
0.110096
-0.0396093
0.127658
-0.0446689
-0.0527362
0.146434
-0.000225676
0.000518424
-0.000661373
0.00115846
-0.0011248
0.00151128
-0.00146277
0.00160412
-0.00154151
0.00143595
-0.00123951
0.000990683
-0.000441242
0.000243615
0.00096743
-0.000833398
0.00309893
-0.0022686
0.0060749
-0.00408658
0.0100101
-0.00630888
0.0150187
-0.00894999
0.0212059
-0.0120174
0.0286621
-0.0155113
0.0374561
-0.0194239
0.0476288
-0.0237408
0.0591874
-0.0284408
0.0721013
-0.0334982
0.0862981
-0.0388804
0.10166
-0.0445629
0.118037
-0.0504504
0.135158
-0.0567305
0.15297
-0.0624802
-0.0704239
0.170657
-0.00018099
0.000699414
-0.000487409
0.00146488
-0.000731931
0.00175581
-0.000750113
0.0016223
-0.000391105
0.00107694
0.000488379
0.000111199
0.00202793
-0.00129594
0.00436578
-0.00317125
0.00763711
-0.00553993
0.0119709
-0.00842033
0.0174817
-0.0118197
0.0242625
-0.0157308
0.0323758
-0.0201307
0.0418452
-0.0249807
0.0526496
-0.0302283
0.0647193
-0.0358104
0.0779349
-0.0416564
0.0921305
-0.0476939
0.107097
-0.0538469
0.122592
-0.0600582
0.138368
-0.0662258
0.154068
-0.0724312
0.16973
-0.0781418
-0.0848018
0.184108
-0.000117938
-0.000246374
-0.000192811
0.00022052
0.00116399
0.0028024
0.00529637
0.00879761
0.013442
0.0193393
0.0265614
0.0351314
0.0450158
0.0561203
0.0682913
0.0813218
0.0949615
0.108931
0.122936
0.136687
0.14992
0.162397
0.174162
0.184808
-0.0327321
0.062956
-0.0663988
-0.0280858
0.070091
-0.0747373
-0.0220593
0.0756579
-0.0816844
-0.0145101
0.0789087
-0.0864579
-0.00536699
0.0790352
-0.0881784
0.0053157
0.0752692
-0.0859519
0.0172817
0.06701
-0.078976
0.0300079
0.0538716
-0.0665978
0.0430991
0.0358328
-0.048924
0.0560163
0.0130524
-0.0259696
0.0684492
-0.0138655
0.0014326
0.0803468
-0.0443094
0.0324118
0.0915435
-0.0764277
0.065231
0.101609
-0.106873
0.0968074
0.109818
-0.131675
0.123465
0.115508
-0.148226
0.142536
0.118518
-0.156459
0.153449
0.119069
-0.158134
0.157583
0.117011
-0.156225
0.158284
0.111899
-0.15512
0.160232
0.104499
-0.157938
0.165338
0.0977616
-0.161056
0.167793
0.0954707
-0.152766
0.155057
0.099434
-0.121075
0.117112
0.108674
-0.0646026
0.0553627
0.120696
0.00548711
-0.0175093
0.132727
0.0733768
-0.0854078
0.142567
0.126769
-0.13661
0.149206
0.161645
-0.168284
0.152935
0.180146
-0.183875
0.153963
0.187658
-0.188686
0.151525
0.195225
-0.192787
0.145423
0.209777
-0.203675
0.137864
0.223561
-0.216003
0.132568
0.211028
-0.205731
0.132051
0.153814
-0.153297
0.136126
0.0588529
-0.062927
0.142761
-0.0455598
0.0389239
0.149716
-0.12891
0.121956
0.155094
-0.183368
0.17799
0.156918
-0.207755
0.205932
0.153498
-0.227341
0.230761
0.145619
-0.238528
0.246407
0.137441
-0.240998
0.249176
0.133543
-0.196146
0.200044
0.135936
-0.104693
0.102301
0.142752
0.00399763
-0.010814
0.149321
0.114828
-0.121397
0.15113
0.177399
-0.179208
0.147292
0.256753
-0.252915
0.141482
0.269402
-0.263592
0.139053
0.263245
-0.260816
0.141428
0.17096
-0.173335
0.145419
0.0274518
-0.031443
0.146628
-0.056645
0.0554358
0.144524
-0.242492
0.244597
0.142581
-0.24926
0.251202
0.141522
-0.310673
0.311732
0.140221
-0.226447
0.227748
0.0406631
-0.0387554
-0.0162911
0.0573925
-0.00943696
0.0632368
-0.00126369
0.0674847
0.00820457
0.0694405
0.018852
0.0683878
0.0304382
0.0636829
0.0426136
0.0548346
0.0549127
0.0415725
0.0668799
0.0238656
0.0782284
0.00170397
0.0886786
-0.0243157
0.0982845
-0.0539152
0.106892
-0.0850355
0.114077
-0.114058
0.119251
-0.136848
0.121973
-0.150948
0.122273
-0.156758
0.120641
-0.156502
0.117237
-0.152822
0.111398
-0.149281
0.102988
-0.149528
0.0942476
-0.152315
0.0893756
-0.147894
0.0914668
-0.123167
0.100286
-0.0734219
0.113338
-0.00756451
0.127092
0.0596221
0.138974
0.114888
0.147707
0.152912
0.153319
0.174535
0.155773
0.185204
0.15442
0.196578
0.149426
0.214771
0.143032
0.229956
0.138454
0.215606
0.137741
0.154527
0.140835
0.0557585
0.145947
-0.0506722
0.151177
-0.13414
0.155024
-0.187215
0.155868
-0.208599
0.151959
-0.223432
0.143737
-0.230306
0.135234
-0.232495
0.131408
-0.192321
0.134367
-0.107653
0.142046
-0.00368089
0.149214
0.107661
0.151441
0.175172
0.147892
0.260302
0.142136
0.275157
0.139643
0.265739
0.141882
0.16872
0.146054
0.0232796
0.14729
-0.0578809
0.145005
-0.240207
0.142934
-0.247189
0.141719
-0.309458
0.140282
-0.22501
0.0426427
0.00673299
0.0500547
0.0150692
0.0549006
0.0244223
0.0581316
0.0347137
0.059149
0.0457389
0.0573627
0.0571855
0.0522362
0.068676
0.0433442
0.0798116
0.0304369
0.0902381
0.0134391
0.0996108
-0.00766875
0.108005
-0.0327097
0.1153
-0.0612107
0.12132
-0.0910554
0.125627
-0.118364
0.127787
-0.139008
0.127669
-0.15083
0.125533
-0.154622
0.122005
-0.152975
0.117497
-0.148314
0.111357
-0.143141
0.102677
-0.140848
0.0926439
-0.142282
0.0853423
-0.140592
0.0850849
-0.122909
0.0928471
-0.0811841
0.1062
-0.020917
0.121325
0.0444967
0.135076
0.101137
0.145884
0.142105
0.15342
0.166998
0.157427
0.181197
0.157414
0.19659
0.153806
0.218379
0.14869
0.235072
0.144741
0.219556
0.143642
0.155625
0.145556
0.0538444
0.149061
-0.0541766
0.152542
-0.137621
0.154859
-0.189532
0.154792
-0.208532
0.150565
-0.219205
0.142201
-0.221942
0.133464
-0.223758
0.129644
-0.1885
0.133011
-0.111019
0.141397
-0.0120674
0.149136
0.0999221
0.151852
0.172456
0.148674
0.26348
0.143
0.280832
0.140407
0.268331
0.142466
0.166662
0.14681
0.0189358
0.148094
-0.0591657
0.145598
-0.23771
0.143367
-0.244957
0.142021
-0.308112
0.140494
-0.223483
0.0446694
0.0324499
0.0420515
0.0413617
0.0459889
0.051067
0.0484262
0.0613998
0.0488163
0.0720816
0.0466809
0.0827767
0.0415411
0.0931331
0.0329878
0.10282
0.0207497
0.11157
0.00468992
0.119226
-0.0153247
0.125702
-0.0391864
0.1309
-0.0664083
0.134505
-0.0946606
0.136056
-0.119915
0.135311
-0.138264
0.132516
-0.148035
0.128229
-0.150334
0.123103
-0.147849
0.117669
-0.14288
0.111511
-0.136983
0.103274
-0.132611
0.0929004
-0.131908
0.0836644
-0.131356
0.0806742
-0.119919
0.0865498
-0.0870597
0.0994054
-0.0337726
0.115432
0.0284705
0.130819
0.0857493
0.143634
0.129289
0.153114
0.157518
0.1588
0.175511
0.160369
0.195021
0.15838
0.220368
0.154633
0.238819
0.15123
0.222958
0.149632
0.157224
0.150161
0.0533155
0.152036
-0.0560519
0.153796
-0.139381
0.154603
-0.190339
0.153663
-0.207592
0.149248
-0.214791
0.140938
-0.213632
0.132077
-0.214898
0.128188
-0.184611
0.131797
-0.114628
0.140762
-0.0210328
0.149056
0.0916285
0.152345
0.169166
0.149642
0.266183
0.144099
0.286374
0.141376
0.271054
0.143191
0.164847
0.147675
0.014451
0.149029
-0.0605194
0.146297
-0.234979
0.143875
-0.242535
0.142417
-0.306655
0.140844
-0.22191
0.0467163
0.0571055
0.0336734
0.0660737
0.0370207
0.0755857
0.0389142
0.085477
0.038925
0.0954479
0.03671
0.10517
0.0318186
0.114341
0.0238175
0.122647
0.0124437
0.130159
-0.00282239
0.136388
-0.0215534
0.14135
-0.0441483
0.144721
-0.06978
0.146026
-0.095965
0.144886
-0.118775
0.141397
-0.134775
0.13621
-0.142849
0.130152
-0.144276
0.123844
-0.141542
0.117724
-0.136759
0.111648
-0.130906
0.104293
-0.125257
0.0945423
-0.122158
0.0842805
-0.121094
0.0785848
-0.114223
0.0817048
-0.0901796
0.0932249
-0.0452928
0.109491
0.0122047
0.12616
0.06908
0.14082
0.114629
0.152207
0.146131
0.159676
0.168042
0.163039
0.191659
0.162872
0.220534
0.160595
0.241096
0.157713
0.225841
0.155474
0.159463
0.154584
0.0542048
0.154796
-0.0562638
0.154895
-0.13948
0.154233
-0.189677
0.152451
-0.20581
0.147955
-0.210294
0.139873
-0.20555
0.131
-0.206025
0.126983
-0.180595
0.130662
-0.118306
0.140077
-0.0304475
0.148927
0.082778
0.152892
0.165202
0.15078
0.268295
0.145444
0.29171
0.142573
0.273926
0.144064
0.163356
0.148637
0.00987804
0.150078
-0.0619605
0.147095
-0.231995
0.144453
-0.239894
0.142898
-0.305099
0.141318
-0.22033
0.0487544
0.0791685
0.0255372
0.0877159
0.0284732
0.0966831
0.029947
0.105893
0.0297148
0.115039
0.0275639
0.123827
0.0230307
0.132024
0.0156204
0.139345
0.00512337
0.145772
-0.00924985
0.150937
-0.0267183
0.154594
-0.0478051
0.156236
-0.0714227
0.155317
-0.0950459
0.151662
-0.11512
0.145759
-0.128871
0.138598
-0.135688
0.131186
-0.136865
0.124105
-0.134461
0.117587
-0.130241
0.111611
-0.124931
0.105249
-0.118894
0.0968739
-0.113783
0.0867401
-0.11096
0.0789269
-0.10641
0.0788011
-0.0900538
0.0879195
-0.0544112
0.10364
-0.00351627
0.12107
0.0516509
0.137291
0.0984081
0.150475
0.132947
0.159784
0.158733
0.165101
0.186342
0.166932
0.218703
0.166244
0.241784
0.163921
0.228163
0.161015
0.16237
0.158672
0.0565473
0.157254
-0.0548453
0.155781
-0.138008
0.153717
-0.187613
0.151118
-0.203211
0.146614
-0.20579
0.138912
-0.197848
0.130142
-0.197255
0.12595
-0.176403
0.129536
-0.121892
0.139271
-0.0401826
0.148692
0.0733569
0.153444
0.16045
0.152058
0.269681
0.147028
0.29674
0.144003
0.276952
0.145096
0.162263
0.149672
0.00530231
0.151222
-0.0635113
0.147981
-0.228753
0.145098
-0.237011
0.143454
-0.303456
0.1419
-0.218776
0.0507531
0.100142
0.018563
0.107629
0.020986
0.11562
0.0219563
0.123865
0.02147
0.13205
0.0193793
0.139905
0.0151755
0.147118
0.00840719
0.153837
-0.00159505
0.1592
-0.0146129
0.163252
-0.0307712
0.165455
-0.0500075
0.165204
-0.0711716
0.162039
-0.091881
0.156089
-0.10917
0.148199
-0.120982
0.139575
-0.127063
0.131258
-0.128548
0.123765
-0.126968
0.117133
-0.123609
0.111287
-0.119085
0.105755
-0.113363
0.0990682
-0.107096
0.0901963
-0.102088
0.0814256
-0.0976395
0.0781437
-0.086772
0.0841042
-0.0603716
0.0979957
-0.0174077
0.115586
0.034061
0.132943
0.0810504
0.147724
0.118166
0.158858
0.1476
0.166226
0.178974
0.170194
0.214735
0.171216
0.240762
0.169567
0.229813
0.16609
0.165846
0.162285
0.0603522
0.15932
-0.0518801
0.15639
-0.135077
0.153018
-0.184241
0.149622
-0.199815
0.145158
-0.201326
0.137959
-0.190649
0.1294
-0.188695
0.125003
-0.172006
0.128346
-0.125235
0.138271
-0.0501078
0.148283
0.0633455
0.153937
0.154796
0.153427
0.270191
0.148824
0.301343
0.145657
0.280119
0.146264
0.161656
0.150779
0.000787379
0.152439
-0.0651719
0.148943
-0.225257
0.145802
-0.233871
0.144075
-0.301729
0.142575
-0.217276
0.0526794
0.123298
0.0137576
0.128935
0.0153487
0.13527
0.0156209
0.141956
0.0147847
0.148708
0.0126265
0.155307
0.00857722
0.161323
0.00239134
0.166755
-0.00702734
0.170811
-0.0186691
0.173298
-0.0332584
0.173625
-0.0503343
0.171224
-0.0687702
0.165858
-0.0865155
0.157977
-0.101288
0.148656
-0.111662
0.139141
-0.117548
0.130368
-0.119775
0.122753
-0.119352
0.116226
-0.117082
0.110588
-0.113446
0.105637
-0.108412
0.100477
-0.101935
0.0935808
-0.0951927
0.0852961
-0.0893548
0.0797473
-0.0812232
0.0820175
-0.0626418
0.0931056
-0.0284958
0.109845
0.0173211
0.127739
0.063157
0.143819
0.102085
0.156687
0.134732
0.166118
0.169543
0.172266
0.208587
0.175086
0.237943
0.174254
0.230645
0.170402
0.169697
0.165334
0.0654207
0.160903
-0.0474496
0.156645
-0.130819
0.152088
-0.179684
0.147917
-0.195643
0.143514
-0.196924
0.136919
-0.184054
0.128667
-0.180443
0.124052
-0.167391
0.127018
-0.128201
0.137005
-0.0600957
0.147624
0.0527274
0.154296
0.148124
0.154819
0.269668
0.150779
0.305383
0.147508
0.28339
0.147562
0.161602
0.151929
-0.00357975
0.153702
-0.0669453
0.149965
-0.22152
0.14656
-0.230466
0.144751
-0.29992
0.143329
-0.215854
0.0544979
0.14878
0.011412
0.152173
0.0119559
0.156293
0.0115003
0.160802
0.0102764
0.165505
0.00792365
0.170061
0.00402071
0.174548
-0.00209534
0.177836
-0.0103153
0.179935
-0.020768
0.180293
-0.0336172
0.178381
-0.0484221
0.173784
-0.0641729
0.166529
-0.079261
0.157288
-0.0920472
0.147185
-0.101559
0.137342
-0.107705
0.128509
-0.110942
0.12098
-0.111823
0.114674
-0.110776
0.109328
-0.108101
0.104794
-0.103879
0.100732
-0.0978727
0.095903
-0.0903636
0.089317
-0.0827687
0.0830158
-0.0749221
0.0819499
-0.0615759
0.0894016
-0.0359475
0.104118
0.0026044
0.121728
0.0455476
0.138672
0.0851409
0.153083
0.120321
0.164545
0.158081
0.172964
0.200168
0.177688
0.233218
0.17775
0.230583
0.173688
0.17376
0.167629
0.0714793
0.16189
-0.0417109
0.156447
-0.125376
0.150852
-0.174089
0.145936
-0.190727
0.141597
-0.192585
0.135699
-0.178155
0.127848
-0.172593
0.123006
-0.162549
0.125485
-0.13068
0.135407
-0.070017
0.146637
0.0414966
0.154432
0.140329
0.156153
0.267946
0.152828
0.308708
0.149515
0.286703
0.148965
0.162152
0.1531
-0.00771436
0.154984
-0.0688294
0.151031
-0.217568
0.147363
-0.226797
0.145467
-0.298024
0.144146
-0.214532
0.0561693
0.171235
0.0108344
0.172731
0.0104592
0.174702
0.00953002
0.17699
0.00798788
0.179518
0.00539625
0.181975
0.00156302
0.184008
-0.00412837
0.185041
-0.0113474
0.184849
-0.0205765
0.182941
-0.0317087
0.178896
-0.0443773
0.1725
-0.0577774
0.163987
-0.0707473
0.154096
-0.0821562
0.143836
-0.0912991
0.134114
-0.097983
0.125493
-0.102321
0.118178
-0.104508
0.112124
-0.104722
0.107118
-0.103095
0.102972
-0.0997318
0.0996181
-0.0945192
0.0964557
-0.0872013
0.0921375
-0.0784504
0.0867257
-0.0695103
0.0836437
-0.0584939
0.0873102
-0.0396139
0.0988862
-0.00897164
0.115128
0.029306
0.132294
0.067975
0.147941
0.104674
0.161273
0.144748
0.171849
0.189592
0.178514
0.226553
0.179726
0.229371
0.17577
0.177716
0.169065
0.0781842
0.162233
-0.0348786
0.15573
-0.118873
0.149253
-0.167611
0.143641
-0.185115
0.139339
-0.188283
0.134219
-0.173035
0.126879
-0.165253
0.121806
-0.157477
0.123682
-0.132556
0.133419
-0.0797545
0.145253
0.0296627
0.154255
0.131327
0.157323
0.264878
0.15488
0.311151
0.151626
0.289957
0.150448
0.16333
0.154264
-0.0115298
0.156254
-0.0708196
0.152126
-0.213439
0.1482
-0.222871
0.14621
-0.296034
0.145011
-0.213333
0.0576508
0.184034
0.010908
0.18443
0.0100637
0.184972
0.00898783
0.185739
0.00722118
0.186596
0.00453937
0.187125
0.00103341
0.187185
-0.00418842
0.18638
-0.0105416
0.184337
-0.018534
0.180703
-0.0280749
0.175217
-0.0388906
0.167843
-0.0504042
0.158916
-0.0618201
0.149115
-0.0723551
0.139249
-0.0814328
0.129996
-0.0887303
0.121775
-0.0940994
0.114748
-0.0974811
0.108918
-0.0988921
0.104181
-0.0983581
0.100359
-0.0959096
0.0974123
-0.0915727
0.0952587
-0.0850476
0.0929661
-0.0761578
0.0894825
-0.0660267
0.0861336
-0.055145
0.086883
-0.0403633
0.094709
-0.0167977
0.108412
0.0156031
0.124856
0.051531
0.141286
0.0882445
0.156438
0.129596
0.169352
0.176679
0.178124
0.217781
0.18042
0.227075
0.176724
0.181412
0.169759
0.0851495
0.162117
-0.0272369
0.154665
-0.111421
0.14745
-0.160396
0.141196
-0.178862
0.136839
-0.183926
0.1325
-0.168696
0.12578
-0.158533
0.120471
-0.152168
0.121619
-0.133704
0.130997
-0.0891318
0.143389
0.0172702
0.153676
0.121041
0.158267
0.260288
0.156854
0.312563
0.15376
0.293051
0.151991
0.165099
0.155408
-0.0149468
0.157487
-0.0728988
0.153241
-0.209194
0.149056
-0.218686
0.146969
-0.293947
0.145914
-0.212278
0.0588979
0.184894
0.0108224
0.184792
0.0101656
0.184796
0.00898405
0.184791
0.00722621
0.18466
0.00467029
0.184472
0.00122186
0.183401
-0.00311744
0.18154
-0.00868066
0.178542
-0.0155363
0.174173
-0.0237056
0.168297
-0.0330153
0.160987
-0.0430936
0.152578
-0.0534116
0.143615
-0.063392
0.134687
-0.0725044
0.126275
-0.0803188
0.118695
-0.0865194
0.112098
-0.0908841
0.106522
-0.0933163
0.101958
-0.0937935
0.0983123
-0.0922641
0.095511
-0.0887715
0.0936902
-0.0832269
0.0925709
-0.0750384
0.0909964
-0.0644523
0.0886441
-0.0527927
0.0879084
-0.0396276
0.0920695
-0.0209588
0.102412
0.00526078
0.116845
0.0370975
0.132858
0.0722322
0.148918
0.113535
0.163799
0.161798
0.174834
0.206746
0.178783
0.223126
0.176186
0.184009
0.169763
0.0915726
0.161553
-0.0190275
0.15327
-0.103138
0.145563
-0.15269
0.13879
-0.172089
0.134266
-0.179402
0.130609
-0.165038
0.124588
-0.152512
0.119047
-0.146627
0.11941
-0.134067
0.128264
-0.0979862
0.141116
0.00441897
0.152572
0.109584
0.158783
0.254076
0.158601
0.312746
0.155853
0.295799
0.153562
0.167391
0.156508
-0.0178928
0.158654
-0.0750451
0.154363
-0.204903
0.149904
-0.214227
0.147742
-0.291785
0.146848
-0.211385
0.0598639
0.201275
0.0107539
-0.201207
0.201942
0.0094995
0.202779
0.0081465
0.203839
0.00616606
0.20502
0.00348936
0.206136
0.000105664
0.207268
-0.00424864
0.208115
-0.00952812
0.208451
-0.0158718
0.208
-0.0232553
0.206523
-0.0315376
0.203868
-0.0404388
0.200021
-0.049565
0.195097
-0.0584677
0.189288
-0.0666957
0.182814
-0.0738446
0.175892
-0.0795972
0.168725
-0.0837176
0.161486
-0.0860771
0.154325
-0.0866324
0.147345
-0.0852843
0.140549
-0.0819751
0.134047
-0.0767246
0.128004
-0.0689958
0.121927
-0.058375
0.114887
-0.045753
0.10746
-0.0322009
0.102436
-0.015934
0.102044
0.00565225
0.106217
0.032925
0.112984
0.0654648
0.120429
0.10609
0.127966
0.154261
0.135888
0.198825
0.145659
0.213354
0.158503
0.171165
0.170478
0.0795972
0.177139
-0.025688
0.177339
-0.103338
0.172435
-0.147785
0.164746
-0.1644
0.157138
-0.171795
0.150037
-0.157937
0.14138
-0.143856
0.132692
-0.137938
0.128115
-0.129491
0.129291
-0.0991623
0.133537
0.000173208
0.137011
0.10611
0.138676
0.252411
0.139576
0.311846
0.141856
0.293519
0.145758
0.163489
0.151268
-0.0234029
0.15423
-0.0780078
0.149635
-0.200308
0.143549
-0.208141
0.139021
-0.287256
0.135059
-0.207422
0.0620319
0.212895
0.0103141
-0.212455
0.213567
0.00882761
0.214531
0.00718196
0.215575
0.00512212
0.216593
0.00247185
0.217565
-0.000866897
0.218306
-0.00498961
0.218691
-0.00991247
0.218518
-0.0156994
0.217591
-0.0223285
0.21574
-0.0296862
0.212859
-0.037558
0.208931
-0.0456364
0.204022
-0.0535593
0.198274
-0.060947
0.191872
-0.0674434
0.185029
-0.0727542
0.177958
-0.0766464
0.170841
-0.07896
0.163816
-0.0796077
0.157
-0.0784679
0.150425
-0.0753997
0.14411
-0.0704097
0.138251
-0.0631372
0.132804
-0.0529275
0.126952
-0.0399011
0.120279
-0.0255285
0.114238
-0.00989293
0.111666
0.00822407
0.113726
0.030865
0.11956
0.059631
0.127469
0.0981806
0.136212
0.145518
0.145766
0.189271
0.157812
0.201309
0.172595
0.156381
0.185409
0.0667835
0.191516
-0.0317953
0.190572
-0.102393
0.184488
-0.141702
0.175752
-0.155664
0.167332
-0.163374
0.159959
-0.150564
0.151286
-0.135183
0.142209
-0.128861
0.136876
-0.124158
0.137617
-0.0999037
0.141934
-0.00414335
0.146028
0.102017
0.148614
0.249825
0.150553
0.309906
0.15365
0.290422
0.157585
0.159554
0.162904
-0.0287223
0.1657
-0.080804
0.160397
-0.195005
0.153445
-0.201189
0.148259