/*--------------------------------*- C++ -*----------------------------------*\
| =========                 |                                                 |
| \\      /  F ield         | OpenFOAM: The Open Source CFD Toolbox           |
|  \\    /   O peration     | Version:  2512                                  |
|   \\  /    A nd           | Website:  www.openfoam.com                      |
|    \\/     M anipulation  |                                                 |
\*---------------------------------------------------------------------------*/
FoamFile
{
    version     2.0;
    format      ascii;
    arch        "LSB;label=32;scalar=64";
    class       volScalarField;
    location    "62";
    object      p;
}
// * * * * * * * * * * * * * * * * * * * * * * * * * * * * * * * * * * * * * //

dimensions      [0 2 -2 0 0 0 0];

internalField   nonuniform List<scalar> 
13248
(
-0.292329
-0.291257
-0.289413
-0.286971
-0.284103
-0.280939
-0.277573
-0.274079
-0.270508
-0.266897
-0.263274
-0.25966
-0.256071
-0.252521
-0.249019
-0.245572
-0.24218
-0.238841
-0.235539
-0.232285
-0.228987
-0.225804
-0.222128
-0.218828
-0.299383
-0.297563
-0.295061
-0.292034
-0.288631
-0.284988
-0.281196
-0.277304
-0.273335
-0.269298
-0.26519
-0.261006
-0.256744
-0.252407
-0.247999
-0.24353
-0.23901
-0.234446
-0.229846
-0.225207
-0.220503
-0.215729
-0.210708
-0.205984
-0.30792
-0.305175
-0.301883
-0.298176
-0.294161
-0.28997
-0.285671
-0.281277
-0.276768
-0.272113
-0.267282
-0.262257
-0.257036
-0.251636
-0.246085
-0.240424
-0.234694
-0.228938
-0.223186
-0.217463
-0.211744
-0.206065
-0.200284
-0.194818
-0.318016
-0.314175
-0.309978
-0.305507
-0.300803
-0.295969
-0.291034
-0.285953
-0.280659
-0.275089
-0.269207
-0.263012
-0.256539
-0.249849
-0.24302
-0.236136
-0.229272
-0.222491
-0.215833
-0.209315
-0.202924
-0.196679
-0.190463
-0.184718
-0.329726
-0.32464
-0.319443
-0.314138
-0.308653
-0.303041
-0.297263
-0.291215
-0.284794
-0.277939
-0.270652
-0.262993
-0.255063
-0.246988
-0.238892
-0.230886
-0.223053
-0.215448
-0.208094
-0.200994
-0.194128
-0.187494
-0.181015
-0.175
-0.343057
-0.336605
-0.330343
-0.324138
-0.317753
-0.311151
-0.304223
-0.296819
-0.288848
-0.280311
-0.271299
-0.261966
-0.252491
-0.243048
-0.23378
-0.224793
-0.216149
-0.207875
-0.199971
-0.192421
-0.185197
-0.178275
-0.1716
-0.165391
-0.357913
-0.350018
-0.342648
-0.335463
-0.327993
-0.320087
-0.311582
-0.302349
-0.292382
-0.28181
-0.270852
-0.259758
-0.248762
-0.238048
-0.227742
-0.217914
-0.208591
-0.199768
-0.191421
-0.183514
-0.17601
-0.168872
-0.162063
-0.155695
-0.374037
-0.364678
-0.356173
-0.347885
-0.339047
-0.329403
-0.31881
-0.307251
-0.294897
-0.282049
-0.269057
-0.256233
-0.243818
-0.231966
-0.220756
-0.210211
-0.200316
-0.191036
-0.182325
-0.174134
-0.166416
-0.159125
-0.152234
-0.145757
-0.390969
-0.380191
-0.370523
-0.360934
-0.350334
-0.338431
-0.325215
-0.310904
-0.295904
-0.280696
-0.265715
-0.251283
-0.237598
-0.224755
-0.212771
-0.201619
-0.191247
-0.181593
-0.172594
-0.164188
-0.156319
-0.148938
-0.142012
-0.135476
-0.408017
-0.395924
-0.385038
-0.373859
-0.361018
-0.346312
-0.330022
-0.312687
-0.294967
-0.277473
-0.260659
-0.244799
-0.230016
-0.216329
-0.203695
-0.192041
-0.181284
-0.17134
-0.16213
-0.15358
-0.145626
-0.138214
-0.131293
-0.12475
-0.42426
-0.410996
-0.398783
-0.385639
-0.37004
-0.352057
-0.332395
-0.311959
-0.291613
-0.272023
-0.253595
-0.236512
-0.220808
-0.206426
-0.193268
-0.181223
-0.170182
-0.160043
-0.150711
-0.142101
-0.134142
-0.126772
-0.119907
-0.113433
-0.438631
-0.424385
-0.410713
-0.395182
-0.376317
-0.354665
-0.331461
-0.307963
-0.28517
-0.263719
-0.243916
-0.22583
-0.209397
-0.194489
-0.18096
-0.168665
-0.15747
-0.147256
-0.137916
-0.129358
-0.121501
-0.114275
-0.107566
-0.101308
-0.283748
-0.285728
-0.286939
-0.287693
-0.288267
-0.28873
-0.289107
-0.289416
-0.289659
-0.289827
-0.289908
-0.289889
-0.289755
-0.289496
-0.289104
-0.288576
-0.287919
-0.287147
-0.286289
-0.285388
-0.284504
-0.283712
-0.283132
-0.282979
-0.280515
-0.282343
-0.283426
-0.284042
-0.284444
-0.284692
-0.284813
-0.284826
-0.284738
-0.284546
-0.284246
-0.283836
-0.283314
-0.282686
-0.281964
-0.28117
-0.280335
-0.279505
-0.278737
-0.278108
-0.27771
-0.277638
-0.278034
-0.279293
-0.278134
-0.279739
-0.28065
-0.281101
-0.281312
-0.281335
-0.281197
-0.280917
-0.280506
-0.27997
-0.279312
-0.278538
-0.27766
-0.276698
-0.27568
-0.274648
-0.273653
-0.272762
-0.272053
-0.27162
-0.271573
-0.272006
-0.272961
-0.274756
-0.276506
-0.277852
-0.278563
-0.278829
-0.278832
-0.278617
-0.278209
-0.277632
-0.276901
-0.276028
-0.275023
-0.273902
-0.272689
-0.271413
-0.270119
-0.268862
-0.26771
-0.266745
-0.266062
-0.265764
-0.265982
-0.26682
-0.268344
-0.271169
-0.275522
-0.276608
-0.277109
-0.277174
-0.27695
-0.276478
-0.275786
-0.2749
-0.273841
-0.272626
-0.271277
-0.269816
-0.268276
-0.266699
-0.265138
-0.263658
-0.262344
-0.261286
-0.260585
-0.260356
-0.260726
-0.261805
-0.263605
-0.266534
-0.275096
-0.275949
-0.276241
-0.276088
-0.275616
-0.274866
-0.273869
-0.272655
-0.271253
-0.269689
-0.267991
-0.266191
-0.264329
-0.262457
-0.260637
-0.258944
-0.257467
-0.256305
-0.255563
-0.255354
-0.255795
-0.256991
-0.258999
-0.261498
-0.275191
-0.275852
-0.275938
-0.275552
-0.274811
-0.273759
-0.272433
-0.270873
-0.269116
-0.267196
-0.26515
-0.263019
-0.260851
-0.258705
-0.256651
-0.25477
-0.253156
-0.251907
-0.251132
-0.250935
-0.251419
-0.252588
-0.254895
-0.256503
-0.27584
-0.276342
-0.276222
-0.275585
-0.274552
-0.273176
-0.271507
-0.269592
-0.267479
-0.265211
-0.262836
-0.260401
-0.257964
-0.255589
-0.253352
-0.251339
-0.249642
-0.248364
-0.247598
-0.247421
-0.247973
-0.248951
-0.251623
-0.252146
-0.277144
-0.277496
-0.277156
-0.276243
-0.274896
-0.273183
-0.271165
-0.268902
-0.266451
-0.263866
-0.261201
-0.258513
-0.255865
-0.253326
-0.250974
-0.248893
-0.24717
-0.245893
-0.245145
-0.244949
-0.245533
-0.24618
-0.249003
-0.248769
-0.279264
-0.279431
-0.278835
-0.277613
-0.275931
-0.273874
-0.271515
-0.268924
-0.266167
-0.263308
-0.260404
-0.257517
-0.25471
-0.252052
-0.249615
-0.24747
-0.245692
-0.244346
-0.243501
-0.243137
-0.243527
-0.243848
-0.24627
-0.245829
-0.282387
-0.282287
-0.281378
-0.27978
-0.277745
-0.275334
-0.272637
-0.269737
-0.266703
-0.263598
-0.260482
-0.257414
-0.254449
-0.251646
-0.249059
-0.246741
-0.244741
-0.243096
-0.241845
-0.24099
-0.240702
-0.240588
-0.242042
-0.241802
-0.286696
-0.286194
-0.284854
-0.28287
-0.280422
-0.277627
-0.274586
-0.271378
-0.26807
-0.264719
-0.261377
-0.258087
-0.254891
-0.251825
-0.248922
-0.246206
-0.243696
-0.241402
-0.23932
-0.237473
-0.235853
-0.234581
-0.23411
-0.233989
-0.283462
-0.284575
-0.286644
-0.289849
-0.294294
-0.299953
-0.306498
-0.313499
-0.320077
-0.325049
-0.326952
-0.324367
-0.315965
-0.301019
-0.279651
-0.253391
-0.22465
-0.196757
-0.172955
-0.155986
-0.148048
-0.150265
-0.161405
-0.176935
-0.189601
-0.192119
-0.181255
-0.159744
-0.134522
-0.112501
-0.097767
-0.0909022
-0.0911759
-0.100125
-0.118941
-0.141838
-0.156487
-0.153317
-0.134485
-0.109722
-0.0886816
-0.0751787
-0.0682426
-0.0688064
-0.0778549
-0.0888135
-0.0919288
-0.0852467
-0.0734295
-0.0623059
-0.0533026
-0.047258
-0.0469277
-0.0472723
-0.0452259
-0.0391472
-0.0289486
-0.0188691
-0.0100142
-0.000312037
-0.282482
-0.286462
-0.291786
-0.298624
-0.306944
-0.316653
-0.327043
-0.337689
-0.347318
-0.354574
-0.357795
-0.35521
-0.345405
-0.327548
-0.301961
-0.270421
-0.235914
-0.202065
-0.172246
-0.149174
-0.134855
-0.130599
-0.13602
-0.147688
-0.159204
-0.16352
-0.156796
-0.141005
-0.121812
-0.105384
-0.0954223
-0.0923878
-0.0961388
-0.109003
-0.131853
-0.15766
-0.172572
-0.166849
-0.144188
-0.115376
-0.0904491
-0.0736532
-0.0640261
-0.0618018
-0.0679956
-0.0769735
-0.0803701
-0.0760163
-0.0679046
-0.0602795
-0.0541002
-0.0505561
-0.0523209
-0.0535306
-0.0506729
-0.0430214
-0.0310952
-0.0197508
-0.0101204
-0.000468489
-0.281649
-0.287472
-0.295327
-0.305025
-0.316366
-0.329097
-0.342624
-0.35601
-0.367911
-0.376767
-0.380736
-0.377987
-0.366898
-0.346595
-0.317471
-0.281512
-0.242055
-0.203005
-0.168014
-0.139781
-0.120033
-0.109924
-0.109698
-0.117201
-0.127152
-0.132997
-0.130357
-0.120259
-0.107179
-0.096487
-0.0913501
-0.0921611
-0.099487
-0.116293
-0.143047
-0.171571
-0.186732
-0.178647
-0.152438
-0.119996
-0.0916284
-0.0718214
-0.0597454
-0.0549948
-0.0585205
-0.0655348
-0.0690135
-0.0668629
-0.062302
-0.0580526
-0.0547536
-0.053876
-0.0577969
-0.0598415
-0.0560452
-0.0468015
-0.0331837
-0.0205997
-0.010265
-0.000660086
-0.278748
-0.286921
-0.296633
-0.308334
-0.321816
-0.33667
-0.352228
-0.367452
-0.380884
-0.3907
-0.395096
-0.392195
-0.380207
-0.358191
-0.326536
-0.287315
-0.244045
-0.200958
-0.16187
-0.129433
-0.105166
-0.0899958
-0.0843828
-0.0873438
-0.0950699
-0.101813
-0.102833
-0.0981517
-0.0909818
-0.0858679
-0.0853509
-0.0898176
-0.100615
-0.12121
-0.151715
-0.18289
-0.198503
-0.188436
-0.159094
-0.123502
-0.0922238
-0.0697758
-0.0555191
-0.0485396
-0.0496534
-0.054774
-0.0581454
-0.0579741
-0.0566967
-0.0556369
-0.0552436
-0.0571781
-0.0633022
-0.0661479
-0.0613203
-0.0504409
-0.0351853
-0.0214214
-0.0104443
-0.00087387
-0.27555
-0.285093
-0.295752
-0.308481
-0.323136
-0.339161
-0.355818
-0.372128
-0.386599
-0.396336
-0.401011
-0.398035
-0.385593
-0.362672
-0.329626
-0.288556
-0.24308
-0.197487
-0.155579
-0.119937
-0.0919561
-0.0724007
-0.0618028
-0.0599562
-0.0646095
-0.0712483
-0.0751361
-0.0752217
-0.0734651
-0.0734825
-0.0771393
-0.0849488
-0.0989926
-0.12318
-0.157263
-0.191047
-0.207401
-0.195952
-0.164088
-0.125907
-0.0922835
-0.0676186
-0.0514583
-0.0425407
-0.0415244
-0.0449008
-0.048012
-0.0495109
-0.051147
-0.0530327
-0.0555382
-0.0604152
-0.0687788
-0.0723795
-0.0665305
-0.0539067
-0.0370745
-0.0222149
-0.0106522
-0.00109857
-0.271856
-0.28226
-0.293087
-0.305941
-0.320868
-0.337151
-0.353982
-0.370579
-0.386834
-0.394905
-0.399202
-0.396092
-0.383579
-0.36056
-0.327352
-0.286009
-0.240066
-0.193653
-0.150387
-0.11269
-0.0818531
-0.0585655
-0.0433926
-0.0366463
-0.0373806
-0.0425905
-0.0483433
-0.0519169
-0.0548048
-0.0592292
-0.0665091
-0.0773268
-0.0943847
-0.121929
-0.159352
-0.195623
-0.213077
-0.200999
-0.167387
-0.127242
-0.0918496
-0.0654241
-0.047638
-0.0370586
-0.0341927
-0.0360382
-0.0387784
-0.0415886
-0.0456891
-0.0502305
-0.055599
-0.0635299
-0.0741618
-0.0784693
-0.0714998
-0.0571619
-0.0388294
-0.0229734
-0.0108807
-0.00132423
-0.267941
-0.278751
-0.28903
-0.301259
-0.315702
-0.331404
-0.347419
-0.362566
-0.373833
-0.385876
-0.390478
-0.387413
-0.375218
-0.35285
-0.320628
-0.280486
-0.235708
-0.19008
-0.146883
-0.108325
-0.0755918
-0.0493291
-0.0301284
-0.018605
-0.0147898
-0.017148
-0.0226635
-0.0287402
-0.0351504
-0.0431431
-0.0534822
-0.0669711
-0.0867934
-0.11741
-0.157874
-0.196479
-0.215347
-0.203437
-0.16896
-0.127556
-0.0909549
-0.0632306
-0.044101
-0.0321196
-0.0276447
-0.0281988
-0.0305193
-0.034259
-0.0403423
-0.0472204
-0.0553868
-0.0664582
-0.0793817
-0.0843515
-0.0762062
-0.0601726
-0.040431
-0.0236843
-0.0111202
-0.00154177
-0.264039
-0.2746
-0.283738
-0.294828
-0.308177
-0.322627
-0.337485
-0.353135
-0.363228
-0.372592
-0.376382
-0.373303
-0.361706
-0.340655
-0.310438
-0.272759
-0.230509
-0.186995
-0.145082
-0.10674
-0.0730819
-0.0447281
-0.0222601
-0.00641987
0.00216221
0.00377864
0.00024621
-0.00634679
-0.0148799
-0.025511
-0.0383303
-0.0541512
-0.0764535
-0.109777
-0.152895
-0.193755
-0.214199
-0.203185
-0.168779
-0.126896
-0.0896315
-0.0610577
-0.0408731
-0.0277376
-0.021854
-0.0213159
-0.0232129
-0.0275213
-0.035117
-0.0439974
-0.0548639
-0.0691301
-0.0843602
-0.089946
-0.0806081
-0.0629137
-0.0418663
-0.0243338
-0.0113608
-0.00174296
-0.259959
-0.269236
-0.276876
-0.286585
-0.298345
-0.31084
-0.323245
-0.334265
-0.346804
-0.35482
-0.357977
-0.354981
-0.344308
-0.325172
-0.297775
-0.263508
-0.224755
-0.184277
-0.144517
-0.107234
-0.0735089
-0.0439847
-0.0191941
0.000141316
0.0131455
0.0192877
0.0191851
0.0142968
0.00514349
-0.00696796
-0.0215965
-0.0393557
-0.0638146
-0.0995101
-0.144934
-0.187786
-0.209885
-0.200334
-0.166952
-0.125443
-0.0880631
-0.0590482
-0.0380705
-0.0239721
-0.0168328
-0.01533
-0.0167783
-0.0213136
-0.0300161
-0.0405487
-0.0539831
-0.0714837
-0.0890182
-0.0951664
-0.0846628
-0.0653732
-0.0431381
-0.0249165
-0.0115974
-0.001922
-0.254822
-0.261804
-0.268087
-0.276397
-0.286194
-0.296709
-0.307656
-0.318019
-0.327771
-0.334236
-0.336874
-0.334137
-0.324766
-0.308057
-0.284065
-0.253804
-0.219102
-0.18216
-0.145042
-0.10935
-0.0761786
-0.046234
-0.020013
0.0018683
0.0185217
0.0290393
0.0331401
0.0312594
0.0236111
0.0114591
-0.00419259
-0.0234299
-0.0496335
-0.0871455
-0.134306
-0.178895
-0.202794
-0.195224
-0.163828
-0.123623
-0.0866687
-0.057511
-0.0359322
-0.0209492
-0.012602
-0.0101906
-0.0111878
-0.0155091
-0.0250109
-0.0368732
-0.052721
-0.0734259
-0.0932573
-0.0999108
-0.0883315
-0.0675462
-0.0442582
-0.0254357
-0.0118304
-0.00207726
-0.247599
-0.252315
-0.257767
-0.264551
-0.272316
-0.281066
-0.290377
-0.299207
-0.306699
-0.312361
-0.314789
-0.312711
-0.305091
-0.291263
-0.271125
-0.245287
-0.215006
-0.181921
-0.147726
-0.113911
-0.0816302
-0.051681
-0.0246199
-0.000982909
0.0185424
0.0329321
0.0414211
0.0436702
0.0390256
0.0284164
0.0128722
-0.00713049
-0.0345728
-0.0736039
-0.122394
-0.168064
-0.193375
-0.18797
-0.159215
-0.121233
-0.085228
-0.0561564
-0.0342276
-0.0185023
-0.0089801
-0.00563826
-0.00633557
-0.0101381
-0.0201408
-0.0328874
-0.050955
-0.0749498
-0.0970464
-0.10405
-0.091509
-0.0693575
-0.0451715
-0.0258589
-0.0120423
-0.00220453
-0.238224
-0.242343
-0.246586
-0.251055
-0.2565
-0.263142
-0.270527
-0.27769
-0.28386
-0.288174
-0.290162
-0.28868
-0.282775
-0.271805
-0.255491
-0.23406
-0.208258
-0.179233
-0.148334
-0.116908
-0.0861295
-0.0569175
-0.0299636
-0.00579921
0.0150943
0.0320379
0.0443273
0.050676
0.0501538
0.042014
0.0276597
0.00781563
-0.0197956
-0.0589669
-0.107882
-0.153949
-0.180383
-0.176862
-0.151174
-0.115771
-0.0812968
-0.0529204
-0.0313355
-0.015531
-0.00533949
-0.0011691
-0.00161059
-0.00613474
-0.0154703
-0.0287849
-0.0487635
-0.0758276
-0.100155
-0.107548
-0.0939975
-0.0705961
-0.0456813
-0.0260665
-0.0121663
-0.00228298
-0.227815
-0.235127
-0.238457
-0.241416
-0.245763
-0.251525
-0.257915
-0.263944
-0.26862
-0.271908
-0.273003
-0.270868
-0.264699
-0.253947
-0.238393
-0.218257
-0.194203
-0.16723
-0.138501
-0.109183
-0.0802977
-0.0526481
-0.0268575
-0.00340888
0.0173163
0.034811
0.0486039
0.0571671
0.0596529
0.0545555
0.04208
0.0227719
-0.00523808
-0.0459194
-0.0977048
-0.146269
-0.175357
-0.168762
-0.142311
-0.107676
-0.0746813
-0.0476433
-0.0269763
-0.011687
-0.00160054
0.00308001
0.00336464
-0.000279653
-0.00944258
-0.0232277
-0.0453132
-0.0760237
-0.103242
-0.111188
-0.0961789
-0.0713152
-0.045766
-0.0260287
-0.0121665
-0.00230717
-0.215951
-0.225716
-0.229258
-0.231069
-0.234115
-0.238637
-0.243622
-0.24809
-0.251518
-0.253428
-0.253193
-0.250089
-0.243489
-0.232969
-0.218379
-0.199915
-0.178108
-0.153745
-0.127751
-0.101067
-0.0745505
-0.0489134
-0.0247421
-0.00249973
0.0174916
0.0348632
0.0495868
0.0583062
0.0628411
0.0599612
0.0492532
0.0309729
0.00333921
-0.0375763
-0.0896934
-0.137125
-0.158073
-0.155585
-0.130325
-0.0980865
-0.0676071
-0.0424418
-0.0230447
-0.00838343
0.00168033
0.00678528
0.00745266
0.00401556
-0.00450517
-0.0184543
-0.0423483
-0.0762696
-0.105728
-0.11364
-0.0972505
-0.0713401
-0.04553
-0.0258555
-0.0121132
-0.00234938
-0.203397
-0.214528
-0.218411
-0.219507
-0.221368
-0.224612
-0.228374
-0.231732
-0.234005
-0.234702
-0.233444
-0.229748
-0.223123
-0.213217
-0.199898
-0.183281
-0.16374
-0.141869
-0.118398
-0.0941086
-0.0697524
-0.0459814
-0.0233502
-0.00231998
0.0167613
0.0334716
0.0467449
0.0574226
0.0627736
0.0610003
0.0512521
0.0335592
0.00628905
-0.0337456
-0.0831761
-0.126206
-0.145036
-0.140744
-0.117534
-0.0883478
-0.0606168
-0.0373616
-0.0191642
-0.00514968
0.00477989
0.0102712
0.0114381
0.00860729
0.000286521
-0.0142393
-0.0401619
-0.0767994
-0.107574
-0.115121
-0.0975615
-0.0708781
-0.0450529
-0.0255628
-0.0120178
-0.00240002
-0.190915
-0.202085
-0.206187
-0.206999
-0.208062
-0.210337
-0.213172
-0.215593
-0.216899
-0.216719
-0.214805
-0.210813
-0.204349
-0.195112
-0.182968
-0.167983
-0.150433
-0.130781
-0.109615
-0.0875851
-0.0653315
-0.0434343
-0.022406
-0.00269654
0.0153252
0.0312497
0.0443513
0.054672
0.0603118
0.0592809
0.0503663
0.0334286
0.00714195
-0.0305823
-0.0755153
-0.113431
-0.129835
-0.124731
-0.10403
-0.0782091
-0.0534471
-0.0322418
-0.0153069
-0.00202318
0.00768461
0.0135286
0.015405
0.0134137
0.00539343
-0.00988343
-0.0379603
-0.0769195
-0.108647
-0.115708
-0.0970892
-0.0698862
-0.0442985
-0.0251412
-0.0118751
-0.00245412
-0.177957
-0.188881
-0.193206
-0.194
-0.194602
-0.196165
-0.198216
-0.199855
-0.200449
-0.199682
-0.197356
-0.193222
-0.186981
-0.178388
-0.167322
-0.153822
-0.138094
-0.120493
-0.101484
-0.081594
-0.0613643
-0.041308
-0.0219001
-0.00357585
0.0132893
0.0282832
0.0407872
0.0505115
0.0560671
0.0555147
0.0475138
0.0318133
0.00744226
-0.0267264
-0.0662925
-0.0989416
-0.112852
-0.10793
-0.0902184
-0.0680229
-0.0463324
-0.0272263
-0.0115515
0.000965515
0.0103857
0.0165191
0.0192314
0.0182522
0.0108647
-0.00504011
-0.0351774
-0.0762571
-0.108779
-0.115131
-0.0956489
-0.0682842
-0.043234
-0.0245817
-0.0116787
-0.00250908
-0.164776
-0.175486
-0.179944
-0.180787
-0.181118
-0.182147
-0.183569
-0.184617
-0.184715
-0.183563
-0.180996
-0.176843
-0.170891
-0.162947
-0.152907
-0.140785
-0.126731
-0.111012
-0.0939954
-0.0761081
-0.0578077
-0.0395457
-0.0217579
-0.0048602
0.0107759
0.0247314
0.0364343
0.0454469
0.0506857
0.0504476
0.0434485
0.0293769
0.00760859
-0.0222166
-0.0558787
-0.0832333
-0.0950257
-0.0911132
-0.0766721
-0.0580908
-0.0394003
-0.0223802
-0.00795368
0.00378858
0.0128629
0.0191976
0.0228058
0.023026
0.0165927
0.000296792
-0.0317397
-0.0746927
-0.107659
-0.11309
-0.0930887
-0.0660205
-0.0418378
-0.0238783
-0.0114237
-0.00256107
-0.151988
-0.162198
-0.166627
-0.167526
-0.167706
-0.168365
-0.169331
-0.169958
-0.169719
-0.168333
-0.165668
-0.161611
-0.156013
-0.148725
-0.139657
-0.128806
-0.11628
-0.102282
-0.0871005
-0.0710841
-0.0546165
-0.0380921
-0.0219049
-0.00644753
0.00791542
0.0207722
0.031582
0.0398458
0.0446923
0.0447228
0.0388032
0.0266066
0.00784777
-0.0172163
-0.044898
-0.0673445
-0.0775736
-0.0751141
-0.0638845
-0.0486834
-0.0327931
-0.0177827
-0.00457922
0.00641166
0.015096
0.0215292
0.0260138
0.0275764
0.0223767
0.00594722
-0.0277467
-0.072056
-0.104963
-0.109364
-0.0893003
-0.0630681
-0.0400993
-0.0230278
-0.0111066
-0.00260477
-0.1396
-0.149112
-0.153428
-0.154392
-0.15451
-0.154935
-0.155588
-0.155922
-0.155468
-0.153972
-0.151328
-0.147458
-0.142261
-0.135625
-0.127473
-0.117794
-0.106665
-0.094243
-0.0807542
-0.0664813
-0.0517457
-0.0368892
-0.0222647
-0.00823608
0.00484218
0.0165729
0.0264563
0.0339871
0.0384521
0.0387535
0.0339518
0.0237608
0.00818229
-0.0121876
-0.0343975
-0.0525972
-0.0616255
-0.0606142
-0.0522305
-0.0400085
-0.0266244
-0.0134921
-0.00148247
0.00879359
0.0170672
0.0234932
0.0287284
0.0317086
0.0279379
0.011669
-0.0232208
-0.0681323
-0.100409
-0.10378
-0.084234
-0.0594349
-0.0380244
-0.0220311
-0.0107255
-0.00263393
-0.127546
-0.136384
-0.14055
-0.141569
-0.141675
-0.141958
-0.142401
-0.142542
-0.141971
-0.140462
-0.137925
-0.134309
-0.129544
-0.123548
-0.116259
-0.107664
-0.0978178
-0.0868393
-0.0749085
-0.0622546
-0.0491453
-0.0358754
-0.0227594
-0.0101277
0.00168237
0.0122926
0.0212559
0.0280929
0.0322145
0.0327877
0.0290802
0.0208741
0.00833961
-0.00783596
-0.0253647
-0.0399181
-0.0478885
-0.0479953
-0.0419119
-0.0321883
-0.0209777
-0.00955454
0.00129558
0.0108842
0.0187495
0.0250842
0.0308452
0.035183
0.0329421
0.0172081
-0.0181435
-0.062763
-0.0937918
-0.0962709
-0.07793
-0.0551743
-0.0356381
-0.0208939
-0.0102802
-0.00264212
-0.11604
-0.124188
-0.128143
-0.129188
-0.129306
-0.129505
-0.129813
-0.129839
-0.129232
-0.127779
-0.12541
-0.122091
-0.117775
-0.112405
-0.10593
-0.098338
-0.0896679
-0.0800116
-0.0695118
-0.0583548
-0.0467635
-0.0349906
-0.0233128
-0.0120274
-0.00144726
0.00807754
0.0161527
0.0223434
0.0261635
0.0269943
0.0242892
0.0178933
0.00804269
-0.00459892
-0.0182463
-0.0296418
-0.0365594
-0.0373381
-0.0329799
-0.0252733
-0.0159074
-0.00600504
0.00373153
0.012636
0.020103
0.0262937
0.0323143
0.0376579
0.0370214
0.0222527
-0.012581
-0.0558929
-0.0850289
-0.0869371
-0.0705438
-0.050391
-0.0329861
-0.0196273
-0.00977237
-0.00262366
-0.105193
-0.112587
-0.116279
-0.117329
-0.117475
-0.117636
-0.117871
-0.117854
-0.117246
-0.115896
-0.113736
-0.11074
-0.10688
-0.102115
-0.096405
-0.0897402
-0.0821483
-0.0737011
-0.064512
-0.0547328
-0.0445491
-0.0341763
-0.0238541
-0.0138466
-0.00443953
0.00405341
0.011288
0.0168833
0.0204396
0.0214984
0.0196652
0.0148379
0.00726154
-0.00245977
-0.0129624
-0.0219733
-0.0275208
-0.0285359
-0.0253886
-0.0192628
-0.0114408
-0.00287114
0.00581548
0.0140195
0.0210846
0.0270947
0.0331392
0.0390715
0.0398112
0.026393
-0.00672442
-0.0475488
-0.0742294
-0.076103
-0.0623605
-0.045239
-0.0301331
-0.0182484
-0.00920586
-0.00257444
-0.0949499
-0.101606
-0.105022
-0.106063
-0.106243
-0.106391
-0.106585
-0.106548
-0.105996
-0.104784
-0.102859
-0.100201
-0.0967931
-0.0926062
-0.0876125
-0.0818021
-0.0751963
-0.0678515
-0.0598586
-0.0513412
-0.0424534
-0.0333771
-0.0243193
-0.0155103
-0.00720277
0.000325804
0.00677618
0.0118256
0.0151478
0.0164026
0.0153111
0.0118143
0.00614156
-0.00118647
-0.00915062
-0.0162489
-0.0204303
-0.0213839
-0.0190399
-0.0141253
-0.00758136
-0.000172673
0.0075425
0.015029
0.0216662
0.0274572
0.0333508
0.0393945
0.0410431
0.0292684
-0.000813187
-0.0378744
-0.0618255
-0.0643606
-0.0537858
-0.0399108
-0.0271571
-0.0167792
-0.00858647
-0.00249249
-0.0853227
-0.0912939
-0.0944312
-0.0954471
-0.0956581
-0.095809
-0.0959867
-0.0959595
-0.0954833
-0.0944267
-0.0927461
-0.0904265
-0.0874563
-0.0838169
-0.0794879
-0.0744615
-0.0687542
-0.0624105
-0.0555038
-0.0481348
-0.040431
-0.0325448
-0.0246528
-0.0169529
-0.00966348
-0.00302631
0.00270193
0.00725434
0.0103666
0.0117857
0.0113182
0.00893493
0.00483699
-0.000540053
-0.00642024
-0.0116925
-0.0148899
-0.015646
-0.0138115
-0.00981095
-0.00431461
0.00208374
0.00890791
0.0156763
0.021845
0.0273665
0.0329881
0.038728
0.0407109
0.0307793
0.00481736
-0.02748
-0.0487719
-0.0525315
-0.0452894
-0.0346114
-0.0241402
-0.0152459
-0.007922
-0.00237819
-0.0763661
-0.0816804
-0.0845309
-0.0855057
-0.085744
-0.0859075
-0.0860873
-0.0860909
-0.0857042
-0.0848035
-0.0833585
-0.0813656
-0.0788153
-0.0756897
-0.0719735
-0.0676625
-0.0627697
-0.0573307
-0.0514046
-0.0450737
-0.0384428
-0.0316387
-0.0248096
-0.0181236
-0.0117676
-0.00594701
-0.00087611
0.00322602
0.00614689
0.00769694
0.00774334
0.00627734
0.00346917
-0.000325573
-0.00451283
-0.00828702
-0.0106146
-0.0111047
-0.00957629
-0.0062587
-0.00161415
0.00390672
0.00991381
0.0159806
0.0216412
0.0268233
0.0320808
0.0372209
0.0390743
0.0310032
0.00955752
-0.0176002
-0.0364046
-0.0414734
-0.0373002
-0.029522
-0.0211582
-0.0136768
-0.00722196
-0.0022341
-0.0680645
-0.0727543
-0.0753223
-0.0762486
-0.0765115
-0.076693
-0.0768843
-0.0769242
-0.0766273
-0.0758864
-0.0746735
-0.0729882
-0.0708261
-0.0681738
-0.0650181
-0.0613552
-0.0571962
-0.0525695
-0.047523
-0.0421238
-0.0364571
-0.0306275
-0.0247585
-0.0189907
-0.0134809
-0.00839866
-0.00392258
-0.000229505
0.00251086
0.00415639
0.00461607
0.00389261
0.00212577
-0.000395041
-0.00322266
-0.0057948
-0.00736715
-0.00756687
-0.00620874
-0.00339953
0.000554426
0.00531644
0.0105755
0.015966
0.0210916
0.0258499
0.0305692
0.034994
0.0364585
0.0300138
0.0128069
-0.00939732
-0.0257861
-0.0317889
-0.0301019
-0.0247698
-0.0182733
-0.0121001
-0.00649734
-0.00206454
-0.0603832
-0.0645029
-0.0668043
-0.0676779
-0.0679605
-0.0681612
-0.0683683
-0.0684485
-0.0682429
-0.0676563
-0.0666568
-0.0652553
-0.0634475
-0.0612251
-0.0585762
-0.0554961
-0.0519932
-0.048091
-0.043828
-0.0392578
-0.0344504
-0.0294916
-0.0244813
-0.0195364
-0.0147867
-0.0103685
-0.00642751
-0.00310673
-0.000540563
0.00116347
0.00194244
0.00180601
0.000867327
-0.000643253
-0.0023741
-0.00401694
-0.00494957
-0.00486507
-0.00359062
-0.00116016
0.00223275
0.00634056
0.0109188
0.0156636
0.0202389
0.0245113
0.0286
0.0322077
0.0331819
0.0279853
0.0144026
-0.00336038
-0.0173413
-0.0237082
-0.0238107
-0.0204294
-0.0155342
-0.0105441
-0.00576038
-0.00187504
-0.0533112
-0.056914
-0.0589652
-0.0597827
-0.0600797
-0.0602988
-0.0605232
-0.0606431
-0.0605229
-0.0600793
-0.0592836
-0.058132
-0.0566422
-0.0548039
-0.0526073
-0.0500461
-0.0471256
-0.0438647
-0.040294
-0.0364568
-0.0324093
-0.0282204
-0.0239715
-0.0197579
-0.0156891
-0.0118605
-0.0083998
-0.00541952
-0.00302543
-0.00129916
-0.00028612
2.47215e-05
-0.00027668
-0.00100215
-0.0018078
-0.0027961
-0.00320085
-0.00285402
-0.00161157
0.000533935
0.00346816
0.00701286
0.0109762
0.0151094
0.0191298
0.0228818
0.0263228
0.0290986
0.0295929
0.0253273
0.0147164
0.000736207
-0.0109366
-0.0171757
-0.0184344
-0.0165371
-0.0129779
-0.00903532
-0.00502413
-0.00167185
-0.0468297
-0.0499627
-0.0517805
-0.052541
-0.0528482
-0.0530838
-0.0533247
-0.0534805
-0.0534361
-0.0531198
-0.0525062
-0.0515935
-0.0503806
-0.0488781
-0.0470771
-0.0449721
-0.0425642
-0.0398664
-0.036903
-0.0337088
-0.0303279
-0.0268147
-0.0232343
-0.0196641
-0.0161944
-0.0128922
-0.0098632
-0.00719676
-0.00497628
-0.00326334
-0.00209116
-0.00145304
-0.00128895
-0.00148577
-0.00194065
-0.00206857
-0.00198873
-0.00140721
-0.000169944
0.00175681
0.00431226
0.00737111
0.0107832
0.0143456
0.0178243
0.0210414
0.02386
0.0259
0.0259999
0.022463
0.0142323
0.00335256
-0.00622076
-0.0120043
-0.0139206
-0.0131053
-0.0106321
-0.00759835
-0.00430199
-0.00146147
-0.0409046
-0.0436165
-0.0452209
-0.0459257
-0.0462394
-0.046489
-0.0467441
-0.046931
-0.0469524
-0.0467468
-0.0462918
-0.0455862
-0.0446313
-0.0434221
-0.04196
-0.0402496
-0.0382866
-0.0360786
-0.033644
-0.0310086
-0.0282072
-0.0252827
-0.022287
-0.019278
-0.0163211
-0.013493
-0.0108548
-0.00848072
-0.00643558
-0.00476746
-0.00350154
-0.0026346
-0.00212353
-0.00188036
-0.00178396
-0.00157271
-0.00116845
-0.000407835
0.000827991
0.00257998
0.00481887
0.0074575
0.0103795
0.0134201
0.0163823
0.0190776
0.0213359
0.022784
0.0226044
0.0196672
0.0133105
0.00491213
-0.00281823
-0.00797203
-0.0101906
-0.0101292
-0.00851598
-0.00625455
-0.00360701
-0.00125023
-0.035504
-0.0378428
-0.0392546
-0.039906
-0.040223
-0.0404835
-0.0407501
-0.0409627
-0.0410397
-0.0409286
-0.0406098
-0.0400819
-0.0393463
-0.0384014
-0.0372445
-0.035869
-0.0342818
-0.0324898
-0.0305111
-0.0283575
-0.0260565
-0.0236423
-0.0211606
-0.0186389
-0.0161362
-0.0137149
-0.0114247
-0.00932139
-0.00745304
-0.00585693
-0.00455321
-0.00353998
-0.00278584
-0.00222333
-0.00177348
-0.00128174
-0.000647365
0.00023964
0.00146628
0.00307113
0.0050424
0.00731792
0.00980778
0.0123787
0.0148618
0.0170708
0.0188561
0.0198576
0.0195102
0.017082
0.0121861
0.00574581
-0.000411107
-0.0048752
-0.00715747
-0.00759193
-0.00664039
-0.00502145
-0.00295129
-0.00104405
-0.0305984
-0.0326081
-0.033847
-0.0344477
-0.0347651
-0.0350337
-0.0353087
-0.0355415
-0.0356643
-0.0356323
-0.0354286
-0.0350514
-0.034502
-0.0337791
-0.0328793
-0.0317996
-0.0305415
-0.0291105
-0.0275106
-0.0257629
-0.0238862
-0.0219048
-0.019844
-0.0177553
-0.0156598
-0.0136022
-0.0116265
-0.00977441
-0.00808293
-0.00658089
-0.00528501
-0.00419535
-0.00329017
-0.00252972
-0.0018406
-0.00114358
-0.000351698
0.000614659
0.00181934
0.00329383
0.00503514
0.00699802
0.0091114
0.0112676
0.0133236
0.0150801
0.0165014
0.0171796
0.0167533
0.0147632
0.011004
0.00609292
0.00125615
-0.00253947
-0.00473403
-0.00546739
-0.00500856
-0.00391205
-0.00234531
-0.00084808
-0.026156
-0.0278767
-0.0289616
-0.0295152
-0.0298307
-0.0301046
-0.030385
-0.0306329
-0.0307922
-0.0308251
-0.030717
-0.030466
-0.0300728
-0.0295363
-0.0288533
-0.0280208
-0.0270384
-0.0259089
-0.0246386
-0.0232389
-0.0217247
-0.0201147
-0.018431
-0.0167003
-0.0149501
-0.0132117
-0.0115169
-0.00989718
-0.00838076
-0.00698966
-0.0057374
-0.00462631
-0.00364304
-0.00276198
-0.00193498
-0.00110788
-0.000220021
0.000784499
0.00195236
0.00330659
0.00484698
0.00654118
0.00833145
0.0101316
0.0118363
0.0133258
0.0143414
0.0147769
0.0143336
0.0127203
0.00983961
0.00611673
0.00239822
-0.000814934
-0.00283643
-0.00372299
-0.0036167
-0.00293453
-0.0017974
-0.000666603
-0.0221446
-0.0236137
-0.0245625
-0.0250726
-0.0253844
-0.025661
-0.025944
-0.0262023
-0.0263897
-0.0264747
-0.0264447
-0.0262977
-0.026034
-0.0256525
-0.0251501
-0.0245239
-0.0237726
-0.0228975
-0.0219031
-0.0207967
-0.0195888
-0.0182929
-0.0169255
-0.0155059
-0.0140551
-0.0125959
-0.0111519
-0.00974667
-0.0084015
-0.00713326
-0.0059527
-0.00486405
-0.00386059
-0.0029254
-0.0020285
-0.0011343
-0.000202056
0.000805867
0.00192199
0.00316207
0.00452527
0.00598726
0.00750255
0.00899913
0.0103928
0.0115726
0.0123639
0.0126457
0.0122291
0.0109364
0.00873002
0.00591023
0.00321894
0.000405612
-0.00138926
-0.00232207
-0.00245472
-0.0020921
-0.00131337
-0.000502859
-0.0185341
-0.0197852
-0.0206144
-0.0210846
-0.0213912
-0.0216684
-0.0219514
-0.0222159
-0.022424
-0.0225498
-0.0225824
-0.0225198
-0.022362
-0.0221077
-0.0217541
-0.0212983
-0.0207385
-0.0200749
-0.0193101
-0.0184488
-0.0174979
-0.016467
-0.0153679
-0.0142143
-0.0130215
-0.0118062
-0.0105859
-0.00937771
-0.00819784
-0.00705932
-0.00597064
-0.00493701
-0.00395538
-0.00301698
-0.00210316
-0.00119178
-0.000256776
0.000725992
0.0017773
0.00290685
0.00411266
0.00537345
0.00665544
0.00789939
0.00903365
0.0099713
0.0105875
0.0107749
0.0104103
0.00938615
0.00768773
0.00547005
0.00292914
0.00114348
-0.000325217
-0.00122433
-0.00150702
-0.00138318
-0.000896259
-0.000359016
-0.015296
-0.016359
-0.0170836
-0.0175175
-0.0178177
-0.0180935
-0.0183744
-0.0186414
-0.018864
-0.0190208
-0.0191026
-0.0191075
-0.0190349
-0.0188838
-0.0186513
-0.0183348
-0.0179321
-0.0174427
-0.0168675
-0.0162095
-0.0154731
-0.0146644
-0.0137916
-0.0128643
-0.0118934
-0.0108909
-0.00986941
-0.00884143
-0.00781902
-0.00681274
-0.00582919
-0.00487262
-0.00394414
-0.00303931
-0.00214808
-0.00125738
-0.000351525