/*--------------------------------*- C++ -*----------------------------------*\
| =========                 |                                                 |
| \\      /  F ield         | OpenFOAM: The Open Source CFD Toolbox           |
|  \\    /   O peration     | Version:  2512                                  |
|   \\  /    A nd           | Website:  www.openfoam.com                      |
|    \\/     M anipulation  |                                                 |
\*---------------------------------------------------------------------------*/
FoamFile
{
    version     2.0;
    format      ascii;
    arch        "LSB;label=32;scalar=64";
    class       volVectorField;
    location    "62";
    object      U;
}
// * * * * * * * * * * * * * * * * * * * * * * * * * * * * * * * * * * * * * //

dimensions      [0 1 -1 0 0 0 0];

internalField   nonuniform List<vector> 
13248
(
(-0.0119942 0.0106988 6.21089e-20)
(-0.0228945 0.021957 0)
(-0.0218065 0.0270391 -1.17566e-19)
(-0.00917916 0.0283356 1.1075e-19)
(0.014729 0.0275783 1.03605e-19)
(0.0497408 0.0260387 0)
(0.095679 0.0246527 0)
(0.152243 0.0241081 2.47093e-19)
(0.218871 0.024893 -2.03344e-21)
(0.294626 0.0273201 -2.14365e-19)
(0.378118 0.0315315 1.96822e-19)
(0.467506 0.037499 -1.2283e-19)
(0.560556 0.045029 0)
(0.65477 0.0537783 -2.07789e-19)
(0.747554 0.0632835 3.87493e-19)
(0.836393 0.0729999 -9.13298e-20)
(0.919022 0.0823537 -1.64916e-19)
(0.99357 0.0907673 1.54812e-19)
(1.05867 0.0977992 0)
(1.11345 0.102814 0)
(1.15787 0.106202 0)
(1.19152 0.105708 0)
(1.21701 0.106403 5.07549e-20)
(1.23193 0.0955362 1.91816e-19)
(-0.0122246 0.00984032 -1.87677e-19)
(-0.0197156 0.0188625 1.28124e-19)
(-0.0115203 0.0222249 -1.12403e-21)
(0.0113432 0.022421 -1.69335e-19)
(0.0482695 0.0213115 -1.03492e-19)
(0.0987546 0.0202868 -9.77688e-20)
(0.162154 0.0203431 -1.78696e-19)
(0.237476 0.0221563 1.69109e-19)
(0.323207 0.0261236 0)
(0.417221 0.0323769 1.12152e-21)
(0.516803 0.0407907 2.56992e-21)
(0.618796 0.0510034 1.23405e-19)
(0.719837 0.0624581 0)
(0.816633 0.0744646 0)
(0.906237 0.0862746 1.42945e-19)
(0.98627 0.0971608 -2.68403e-19)
(1.05508 0.106488 1.62093e-19)
(1.11181 0.113766 -1.52172e-19)
(1.1564 0.118688 -6.83324e-20)
(1.18954 0.121104 -1.2625e-19)
(1.21231 0.121165 -5.49366e-20)
(1.22676 0.118623 -1.04005e-19)
(1.23382 0.115414 1.49151e-19)
(1.23675 0.107358 4.41902e-20)
(-0.0114194 0.0083963 0)
(-0.0131067 0.0146014 0)
(0.00496259 0.0163367 5.99011e-20)
(0.0410999 0.0160322 5.51127e-20)
(0.0941671 0.0155739 -1.48081e-21)
(0.163024 0.0163903 -1.01114e-19)
(0.246108 0.019428 0)
(0.341184 0.0252006 -8.39164e-20)
(0.445217 0.0338203 7.87119e-20)
(0.554448 0.0450218 7.68398e-22)
(0.664647 0.0582109 -1.3325e-19)
(0.771504 0.0725493 -1.21632e-19)
(0.871055 0.0870695 2.33521e-21)
(0.96006 0.100801 -1.00557e-19)
(1.03626 0.112888 2.41001e-19)
(1.09852 0.122679 0)
(1.1468 0.129783 -1.58571e-19)
(1.182 0.134067 7.64176e-20)
(1.2058 0.135664 6.82702e-20)
(1.22025 0.134805 0)
(1.22768 0.132108 5.74093e-20)
(1.23014 0.127444 -2.02719e-19)
(1.22921 0.123014 1.90299e-19)
(1.22796 0.114828 1.25178e-19)
(-0.0092375 0.00642357 -6.66507e-20)
(-0.00217095 0.00941992 -6.89589e-20)
(0.0289183 0.0098907 6.22479e-20)
(0.0815074 0.0100036 0)
(0.153609 0.0115238 0)
(0.242958 0.0157656 -2.21867e-21)
(0.346462 0.0234223 0)
(0.460019 0.0345891 -2.5675e-19)
(0.578644 0.0488211 2.38091e-19)
(0.696869 0.0652266 -2.93203e-19)
(0.80934 0.0826181 6.68078e-20)
(0.911427 0.0997036 0)
(0.99971 0.115282 1.11298e-19)
(1.07225 0.1284 -2.06258e-19)
(1.12863 0.138455 4.8844e-20)
(1.16977 0.145219 1.26936e-19)
(1.19759 0.148804 -4.66324e-21)
(1.21461 0.149578 -1.42826e-19)
(1.22353 0.148055 0)
(1.22687 0.144785 0)
(1.2267 0.140351 -5.27084e-20)
(1.22454 0.134904 4.78755e-20)
(1.22141 0.129886 1.75618e-19)
(1.21831 0.122171 -1.64845e-19)
(-0.00532273 0.00405705 -7.04822e-20)
(0.0139628 0.00378857 -7.00965e-20)
(0.0614643 0.0037359 1.97099e-19)
(0.133555 0.00556141 -1.1932e-19)
(0.226911 0.0106903 1.12315e-19)
(0.337481 0.0200666 2.03471e-19)
(0.45997 0.0338119 -1.4377e-19)
(0.587974 0.0512701 -1.74457e-19)
(0.714578 0.0711782 3.74035e-21)
(0.833212 0.0919158 2.22369e-19)
(0.9385 0.111803 0)
(1.02687 0.129382 6.13669e-20)
(1.0968 0.143623 0)
(1.14867 0.154011 -1.00251e-19)
(1.18438 0.16053 1.40822e-19)
(1.20677 0.163551 1.03167e-21)
(1.21906 0.163683 -3.7509e-20)
(1.22428 0.161619 7.02363e-20)
(1.225 0.158006 6.14463e-20)
(1.22312 0.153373 -5.56175e-20)
(1.2199 0.148139 5.26966e-20)
(1.21611 0.142418 -4.78645e-20)
(1.21202 0.137076 0)
(1.20841 0.12976 -3.73418e-20)
(0.000681586 0.00151141 7.04721e-20)
(0.0360626 -0.00159965 7.40757e-20)
(0.103386 -0.000968251 -6.6061e-20)
(0.197513 0.00424263 1.22945e-19)
(0.313126 0.0147863 -1.1572e-19)
(0.44367 0.0308529 1.04374e-19)
(0.581168 0.0515908 -5.01978e-20)
(0.716999 0.0752885 1.31069e-19)
(0.843094 0.0997779 -8.25466e-20)
(0.95312 0.122888 1.46125e-19)
(1.04324 0.142846 -3.37467e-19)
(1.1123 0.158523 1.24315e-19)
(1.16147 0.169511 -1.08848e-19)
(1.1936 0.176021 1.02238e-19)
(1.21233 0.178692 8.88597e-20)
(1.22142 0.178359 7.84985e-20)
(1.22414 0.175866 -2.19031e-19)
(1.22306 0.17193 1.36072e-19)
(1.21993 0.167092 -6.14491e-20)
(1.21586 0.161716 1.62437e-19)
(1.21146 0.156036 -5.23388e-20)
(1.207 0.150139 -1.30473e-19)
(1.20263 0.144487 1.209e-19)
(1.19863 0.137475 3.73296e-20)
(0.00910484 -0.000919663 0)
(0.0646816 -0.00585882 6.71002e-22)
(0.154924 -0.00284952 1.38514e-19)
(0.272644 0.00769069 -1.29869e-19)
(0.409799 0.0253748 -1.16823e-19)
(0.556781 0.0491597 2.17025e-19)
(0.703006 0.0768549 -1.00739e-19)
(0.838509 0.105601 1.3408e-19)
(0.955591 0.13257 -2.89191e-21)
(1.04985 0.155539 -7.60525e-20)
(1.12031 0.173215 1.65944e-19)
(1.16886 0.185265 -2.45383e-19)
(1.19918 0.192127 0)
(1.2157 0.194709 -4.84762e-20)
(1.22266 0.194076 -1.2983e-19)
(1.2236 0.191223 4.08515e-20)
(1.22113 0.186948 1.41286e-21)
(1.21694 0.181818 -9.13818e-20)
(1.21207 0.176198 4.90004e-21)
(1.20705 0.170308 1.06095e-19)
(1.20214 0.164276 -4.79547e-20)
(1.19742 0.158176 -1.88217e-20)
(1.19288 0.152196 5.68167e-20)
(1.18865 0.145404 0)
(0.0202024 -0.00286537 0)
(0.100025 -0.00795935 3.7615e-20)
(0.215581 -0.00046041 -1.81301e-19)
(0.357027 0.0174083 6.57874e-20)
(0.513001 0.0435412 -6.19172e-20)
(0.670808 0.0752034 -5.66124e-20)
(0.818128 0.108727 -9.98624e-20)
(0.945291 0.140384 4.9914e-20)
(1.04678 0.167269 4.32634e-20)
(1.12146 0.187759 0)
(1.1717 0.201519 9.90018e-20)
(1.20201 0.209195 -1.47799e-19)
(1.21758 0.211972 1.09924e-19)
(1.22325 0.211174 4.85009e-20)
(1.2229 0.207982 -4.01167e-20)
(1.21928 0.203307 -3.37627e-20)
(1.21414 0.197773 -3.16719e-20)
(1.2085 0.191772 9.42204e-20)
(1.20286 0.18553 0)
(1.19745 0.179176 4.82107e-20)
(1.19233 0.172783 4.12694e-20)
(1.1875 0.166404 -1.01678e-19)
(1.18289 0.160066 -7.09684e-20)
(1.1785 0.153401 6.54567e-20)
(0.0340981 -0.00388953 -4.0969e-20)
(0.141825 -0.00680356 -1.6863e-21)
(0.283994 0.0075573 3.69528e-20)
(0.447598 0.034518 1.03325e-19)
(0.617778 0.0696711 3.00326e-20)
(0.7795 0.108343 -5.80984e-20)
(0.920365 0.145645 5.29489e-20)
(1.03293 0.177628 -4.63511e-20)
(1.11528 0.202049 8.32949e-20)
(1.16997 0.218407 3.5468e-20)
(1.20225 0.227502 -1.0086e-19)
(1.21818 0.230822 2.96925e-20)
(1.22333 0.230003 5.08597e-20)
(1.22209 0.226475 -2.50018e-20)
(1.2175 0.221318 0)
(1.21145 0.215254 3.75164e-20)
(1.20501 0.208722 6.38265e-20)
(1.19869 0.201973 1.11757e-20)
(1.19271 0.195142 -5.34542e-20)
(1.18714 0.188302 2.24995e-20)
(1.18194 0.181499 0)
(1.17706 0.174757 -1.79177e-20)
(1.17241 0.168044 -1.72349e-20)
(1.16793 0.16139 0)
(0.0507247 -0.00351646 0)
(0.189245 -0.00132642 2.15085e-20)
(0.35794 0.0223034 3.9745e-20)
(0.540425 0.0595871 -1.05642e-19)
(0.718872 0.103405 3.4223e-20)
(0.877456 0.147294 0)
(1.00574 0.185823 5.13185e-20)
(1.10008 0.215662 -7.16915e-20)
(1.1627 0.23584 -4.16827e-20)
(1.19942 0.247199 1.87939e-20)
(1.21726 0.251543 -3.02421e-20)
(1.22277 0.250901 7.33366e-20)
(1.22107 0.247048 3.67485e-20)
(1.21568 0.241309 -2.55219e-20)
(1.20876 0.23456 -2.36058e-21)
(1.20149 0.227323 -7.01771e-20)
(1.19443 0.219886 3.19901e-20)
(1.18782 0.2124 -8.66488e-22)
(1.18172 0.204945 0)
(1.1761 0.197566 -2.25232e-20)
(1.17091 0.190289 0)
(1.16605 0.183108 5.16246e-20)
(1.16143 0.176012 -6.1666e-20)
(1.15693 0.169244 2.82059e-20)
(0.069778 -0.00126828 -1.13132e-20)
(0.240855 0.0093963 -5.42838e-20)
(0.434464 0.0444803 6.18467e-20)
(0.631166 0.0925537 3.62453e-20)
(0.811477 0.143754 -1.7276e-20)
(0.960839 0.19046 2.90779e-20)
(1.07259 0.227644 -1.40961e-20)
(1.14767 0.253355 2.34582e-20)
(1.19212 0.26822 0)
(1.21401 0.274331 5.31601e-20)
(1.22107 0.274206 -2.2177e-21)
(1.21949 0.27009 -4.28691e-20)
(1.21353 0.263672 1.83425e-20)
(1.20578 0.256062 -2.07001e-20)
(1.19766 0.247913 -7.86915e-21)
(1.18981 0.239579 9.12243e-21)
(1.18251 0.231238 -7.02347e-21)
(1.17582 0.222979 -3.83764e-20)
(1.16973 0.214849 2.35068e-20)
(1.16418 0.206876 4.81635e-21)
(1.15907 0.199067 4.2581e-21)
(1.1543 0.191399 3.76902e-21)
(1.14976 0.183924 0)
(1.14528 0.176901 0)
(0.0907659 0.00330171 1.1321e-20)
(0.294815 0.0260602 -1.12942e-20)
(0.510307 0.0743007 -2.06249e-20)
(0.715732 0.13275 0)
(0.891898 0.189312 -8.59605e-21)
(1.02758 0.236236 -7.7726e-21)
(1.12104 0.269852 -1.32714e-20)
(1.17775 0.290088 0)
(1.2067 0.29917 0)
(1.21709 0.300173 0)
(1.21654 0.295987 0)
(1.2104 0.288829 0)
(1.20195 0.280168 -1.15093e-20)
(1.19297 0.270869 5.23784e-21)
(1.1843 0.261389 9.10962e-21)
(1.17627 0.251954 4.26821e-21)
(1.16896 0.242667 1.05382e-20)
(1.16236 0.233579 0)
(1.15641 0.224715 -2.53134e-21)
(1.15103 0.216091 -2.44747e-21)
(1.14611 0.207695 -4.2649e-21)
(1.14154 0.199509 -3.77506e-21)
(1.13717 0.191657 0)
(1.13284 0.184242 2.72704e-21)
(-0.00100928 -0.00699967 7.40357e-21)
(-0.00566394 -0.0128328 -7.68279e-21)
(-0.0144003 -0.0132159 -1.4543e-20)
(-0.0251901 -0.010016 0)
(-0.0369101 -0.00467888 -1.94824e-20)
(-0.0489878 0.00178823 6.14333e-21)
(-0.0610329 0.00877813 -1.14998e-20)
(-0.0727762 0.0160052 0)
(-0.0840408 0.023413 0)
(-0.094709 0.0310835 0)
(-0.104697 0.0391607 0)
(-0.113937 0.0477948 0)
(-0.12237 0.0571081 8.55144e-23)
(-0.129937 0.0671806 -7.52371e-21)
(-0.136576 0.0780415 1.39333e-20)
(-0.14222 0.0896694 1.96595e-20)
(-0.146801 0.101993 6.02444e-21)
(-0.150255 0.114892 0)
(-0.152531 0.128199 5.42132e-21)
(-0.153607 0.141709 -1.51221e-20)
(-0.153495 0.155188 -9.39643e-21)
(-0.152243 0.168383 -8.8065e-21)
(-0.149992 0.181054 0)
(-0.147159 0.193023 0)
(-0.000827415 -0.0033504 -2.21573e-20)
(-0.00524316 -0.00432453 3.82727e-20)
(-0.0136118 -0.00159217 -1.42938e-20)
(-0.0239287 0.00351888 -2.72862e-20)
(-0.0350599 0.00992365 3.8638e-20)
(-0.0464126 0.0168629 -2.42297e-20)
(-0.0575879 0.0239032 3.42862e-20)
(-0.0683147 0.0308763 2.13032e-20)
(-0.0784173 0.0378018 0)
(-0.0877779 0.044808 -1.90763e-20)
(-0.0963099 0.0520659 4.42555e-23)
(-0.103941 0.0597397 1.6869e-20)
(-0.110604 0.0679573 2.34081e-20)
(-0.116231 0.0767975 2.93e-20)
(-0.120751 0.0862867 -1.39893e-20)
(-0.124088 0.0964018 -3.88108e-20)
(-0.126164 0.107075 1.18491e-20)
(-0.126902 0.118201 -4.48714e-20)
(-0.126233 0.129643 0)
(-0.124104 0.141246 1.00185e-20)
(-0.120493 0.152852 9.38278e-21)
(-0.115373 0.164313 8.79347e-21)
(-0.108734 0.175531 0)
(-0.101046 0.186568 0)
(-0.0010179 -7.58159e-05 0)
(-0.00558003 0.00329536 7.55583e-20)
(-0.0136306 0.00878339 -2.85278e-20)
(-0.0233034 0.0155355 2.70929e-20)
(-0.0335171 0.0227999 -7.60986e-20)
(-0.0436913 0.0300491 0)
(-0.0534388 0.037009 -4.49675e-20)
(-0.0625015 0.0436156 2.10116e-20)
(-0.0707145 0.0499518 -3.94381e-20)
(-0.0779674 0.0561836 1.8207e-20)
(-0.084177 0.0625031 1.04397e-19)
(-0.0892708 0.0690866 -4.90196e-20)
(-0.0931784 0.0760687 -7.66624e-20)
(-0.0958262 0.0835315 -2.82057e-20)
(-0.097136 0.0915025 1.99603e-22)
(-0.0970251 0.0999602 1.00451e-19)
(-0.0954062 0.10884 -4.70726e-20)
(-0.092189 0.118042 5.14249e-22)
(-0.0872822 0.127446 0)
(-0.0805992 0.136921 -3.81697e-20)
(-0.0720793 0.146359 0)
(-0.0616436 0.1557 -3.44846e-20)
(-0.0490382 0.165051 1.28348e-19)
(-0.0341724 0.174908 8.44269e-22)
(-0.00151294 0.0026875 0)
(-0.00657285 0.00971363 -1.69018e-22)
(-0.0144186 0.0174812 2.82728e-20)
(-0.0233814 0.0255238 -2.66218e-20)
(-0.0324699 0.0333816 2.53012e-20)
(-0.0411402 0.0407354 1.41841e-19)
(-0.0490349 0.0474536 -4.45151e-20)
(-0.0559211 0.0535622 -4.15458e-20)
(-0.0616541 0.0591968 7.8348e-20)
(-0.0661386 0.0645517 -1.10204e-19)
(-0.0693015 0.0698345 3.42174e-20)
(-0.0710758 0.0752305 3.19112e-20)
(-0.0713924 0.080881 0)
(-0.0701768 0.0868734 2.83864e-20)
(-0.0673471 0.0932404 0)
(-0.0628159 0.099965 4.86434e-20)
(-0.0564914 0.106985 -9.16809e-20)
(-0.0482764 0.114203 2.19874e-20)
(-0.0380702 0.121495 8.05517e-20)
(-0.0257559 0.128729 3.81303e-20)
(-0.0112425 0.135789 0)
(0.00560997 0.142644 -1.00584e-19)
(0.0253701 0.149584 3.15819e-20)
(0.0480559 0.157506 0)
(-0.00224121 0.00490057 0)
(-0.00810297 0.0148081 -8.96737e-20)
(-0.0159037 0.0242932 -2.82258e-20)
(-0.0241776 0.0331953 -5.31012e-20)
(-0.0320389 0.0413071 5.00008e-20)
(-0.0389969 0.048496 -4.71434e-20)
(-0.0447364 0.0547574 8.80091e-20)
(-0.0490601 0.0601957 4.12335e-20)
(-0.0518514 0.0649894 -1.16475e-19)
(-0.0530367 0.0693535 7.22627e-20)
(-0.0525586 0.0735047 -1.01808e-19)
(-0.0503602 0.0776331 2.20724e-19)
(-0.0463789 0.0818851 -1.18608e-19)
(-0.0405423 0.0863546 5.47737e-20)
(-0.0327674 0.0910829 1.53926e-19)
(-0.0229626 0.0960616 -4.912e-20)
(-0.0110345 0.101236 -4.49577e-20)
(0.00311715 0.106512 -4.26209e-20)
(0.0196015 0.111766 0)
(0.0385346 0.116851 -7.38859e-20)
(0.0600172 0.121603 -6.97311e-20)
(0.0841613 0.125922 9.81333e-20)
(0.111625 0.130064 1.24832e-19)
(0.144179 0.135261 -1.16915e-19)
(-0.00314864 0.00660838 0)
(-0.0100638 0.0186272 -1.19119e-19)
(-0.0179901 0.0292198 8.83653e-23)
(-0.0256364 0.0384835 1.05836e-19)
(-0.0322229 0.0464392 0)
(-0.0373226 0.0531256 0)
(-0.0406723 0.0586548 0)
(-0.0421169 0.0632012 -4.08989e-20)
(-0.0415723 0.0669797 4.18567e-22)
(-0.0389891 0.0702201 7.18463e-20)
(-0.0343274 0.073143 -1.00464e-19)
(-0.0275411 0.0759397 3.78413e-22)
(-0.0185726 0.0787586 0)
(-0.00735055 0.0816998 -5.47504e-20)
(0.0062109 0.0848147 4.98915e-20)
(0.022208 0.0881064 -1.41688e-19)
(0.0407434 0.0915339 1.76294e-19)
(0.0619262 0.0950177 4.03977e-20)
(0.0858709 0.098443 -2.90461e-22)
(0.112697 0.101661 -1.44808e-19)
(0.142509 0.10449 -6.74641e-20)
(0.175444 0.106722 2.24809e-19)
(0.211261 0.108415 -1.50485e-19)
(0.256904 0.110767 0)
(-0.00420862 0.00791256 5.77205e-20)
(-0.01237 0.0213428 5.95387e-20)
(-0.020547 0.0324292 -5.61552e-20)
(-0.0275863 0.0415235 -1.0546e-19)
(-0.0328107 0.0488702 9.93001e-20)
(-0.0358644 0.0546744 -9.27535e-20)
(-0.0365414 0.0591597 1.30715e-19)
(-0.0347295 0.0625674 -4.07687e-20)
(-0.030374 0.0651455 7.62923e-20)
(-0.0234434 0.0671369 0)
(-0.0139065 0.0687643 6.53036e-20)
(-0.00171914 0.0702182 -1.23188e-19)
(0.0131819 0.0716482 1.1446e-19)
(0.0308784 0.0731603 -1.07503e-19)
(0.0514691 0.0748156 0)
(0.0750645 0.0766325 9.30231e-20)
(0.101779 0.0785883 1.72348e-19)
(0.131731 0.0806244 -1.62423e-19)
(0.165032 0.0826444 -7.52715e-20)
(0.201793 0.0845181 -7.17274e-20)
(0.241979 0.0860687 2.01017e-19)
(0.286384 0.0871409 6.30501e-20)
(0.331218 0.0873595 -5.86654e-20)
(0.394881 0.0877677 5.59144e-20)
(-0.00541729 0.00893148 -5.77284e-20)
(-0.0149389 0.0231773 1.79033e-19)
(-0.0233677 0.0341837 -5.62481e-20)
(-0.0296699 0.0425944 1.05437e-19)
(-0.0332718 0.0488902 -9.92775e-20)
(-0.0338938 0.053446 2.7818e-22)
(-0.0313848 0.056599 4.35816e-20)
(-0.0256659 0.0586571 1.61137e-19)
(-0.0166959 0.0599043 -1.23693e-21)
(-0.00444162 0.0605989 -7.12391e-20)
(0.0111411 0.0609692 0)
(0.0301166 0.0612079 -6.0202e-20)
(0.0525706 0.0614689 1.14203e-19)
(0.078606 0.0618658 1.05308e-19)
(0.108335 0.0624714 -4.98981e-20)
(0.14187 0.0633194 -5.36014e-22)
(0.179306 0.0644055 -4.30548e-20)
(0.220713 0.0656891 7.94603e-20)
(0.266108 0.0670896 7.52603e-20)
(0.315561 0.0685232 -7.05848e-20)
(0.368344 0.0697144 6.56008e-20)
(0.427243 0.0709768 -6.17676e-20)
(0.480709 0.0709114 0)
(0.566181 0.0716159 -5.58591e-20)
(-0.00677266 0.00975689 5.80855e-20)
(-0.0176457 0.0243218 -5.97906e-20)
(-0.0261079 0.0347509 5.65756e-20)
(-0.0312632 0.0420366 0)
(-0.0326515 0.0469193 0)
(-0.0300691 0.0499541 9.26103e-20)
(-0.0234059 0.0515934 -8.70168e-20)
(-0.0125959 0.0522179 8.00233e-20)
(0.00241702 0.0521549 -3.7655e-19)
(0.0216948 0.0516867 5.98091e-22)
(0.0453162 0.0510543 6.51164e-20)
(0.0733746 0.0504595 0)
(0.105968 0.0500647 -1.12208e-19)
(0.143182 0.0499921 2.09749e-19)
(0.185073 0.0503222 -1.47003e-19)
(0.231642 0.0510943 -2.26651e-19)
(0.282821 0.052307 1.03101e-21)
(0.338451 0.0539195 1.57906e-19)
(0.398214 0.0558309 0)
(0.462045 0.05805 0)
(0.527806 0.0599478 -6.55969e-20)
(0.601157 0.0627862 6.17626e-20)
(0.660953 0.063294 -2.33079e-19)
(0.763988 0.066664 2.18595e-19)
(-0.00824248 0.0104191 0)
(-0.0202636 0.024867 0)
(-0.0282227 0.034318 -1.69918e-19)
(-0.0314168 0.0401604 5.40155e-20)
(-0.0295193 0.0434209 6.73808e-22)
(-0.0223956 0.0448328 9.38354e-20)
(-0.00995956 0.0449718 0)
(0.00787062 0.0443031 -8.10177e-20)
(0.0311828 0.0432061 7.53165e-20)
(0.0600701 0.0419949 -1.39196e-19)
(0.0946182 0.040932 6.32559e-22)
(0.134885 0.0402318 1.20219e-19)
(0.180866 0.0400613 -1.20527e-21)
(0.232466 0.040537 1.02802e-19)
(0.289468 0.0417232 -1.46577e-19)
(0.35151 0.0436296 0)
(0.418073 0.0462111 1.67907e-19)
(0.488489 0.049375 -2.3644e-19)
(0.561839 0.0529293 7.3252e-20)
(0.637641 0.0569073 0)
(0.712689 0.0603396 6.43723e-20)
(0.793383 0.0651044 2.44557e-19)
(0.855409 0.0664086 -2.29504e-19)
(0.959511 0.0725684 -2.73336e-19)
(-0.00973172 0.0108724 1.7725e-19)
(-0.0224105 0.0247678 -2.43934e-19)
(-0.0289271 0.0329368 5.07563e-22)
(-0.0288595 0.0371923 5.42292e-20)
(-0.022028 0.0388228 -1.00888e-19)
(-0.00837519 0.0387458 -9.34271e-20)
(0.0121769 0.0376758 1.73624e-19)
(0.0397171 0.0361635 -2.15509e-21)
(0.074327 0.034645 -1.51833e-19)
(0.116046 0.0334708 2.79756e-19)
(0.164825 0.0329199 -1.66749e-21)
(0.220471 0.0332017 -1.21617e-19)
(0.282609 0.0344548 0)
(0.350641 0.0367431 0)
(0.42374 0.0400514 -4.84846e-20)
(0.500854 0.0442842 -8.99922e-20)
(0.580736 0.0492708 -1.67218e-19)
(0.661998 0.0547698 1.5696e-19)
(0.743121 0.0604784 -7.32791e-20)
(0.822851 0.0661524 1.36519e-19)
(0.89859 0.0711012 -6.45076e-20)
(0.973473 0.0762395 1.20799e-19)
(1.03141 0.0780159 -2.81905e-19)
(1.11483 0.0837865 5.36926e-20)
(-0.0110639 0.0110062 5.97341e-20)
(-0.0235286 0.0238608 0)
(-0.0271973 0.0305564 1.15801e-19)
(-0.022041 0.0332543 -1.0909e-19)
(-0.00806415 0.0334772 1.00979e-19)
(0.0147164 0.0323417 0)
(0.0463209 0.0306799 0)
(0.0867571 0.029123 -8.10323e-20)
(0.135948 0.0281549 1.88584e-21)
(0.193645 0.0281397 7.15286e-20)
(0.259352 0.029332 -6.4683e-20)
(0.332262 0.0318776 1.22072e-19)
(0.411236 0.0358097 0)
(0.494813 0.0410465 2.07568e-19)
(0.581266 0.0473945 -3.87595e-19)
(0.668685 0.054559 2.70964e-19)
(0.755082 0.0621681 1.6639e-19)
(0.838495 0.0697701 -1.56188e-19)
(0.91714 0.0769756 0)
(0.989368 0.0831279 0)
(1.05405 0.0883088 0)
(1.11072 0.0912173 0)
(1.15587 0.0929529 5.58354e-20)
(1.20513 0.0930786 -2.08657e-19)
(-0.143795 0.206023 -5.5406e-21)
(-0.139571 0.218541 5.56933e-21)
(-0.133416 0.227212 -1.72381e-22)
(-0.125381 0.230891 0)
(-0.115261 0.228174 -5.35855e-21)
(-0.102892 0.217596 1.05277e-20)
(-0.087684 0.197337 1.15439e-22)
(-0.0694421 0.16703 -5.13833e-21)
(-0.0481422 0.125205 0)
(-0.0236075 0.0716052 0)
(0.00378335 0.00667438 -3.25866e-22)
(0.0341181 -0.0680013 -3.14339e-22)
(0.066752 -0.149154 -4.73659e-21)
(0.0999388 -0.232465 4.31445e-21)
(0.131902 -0.312512 0)
(0.159907 -0.384105 0)
(0.180656 -0.442914 2.70649e-21)
(0.191208 -0.488092 -3.22718e-22)
(0.190043 -0.520593 -2.11172e-21)
(0.180177 -0.539839 -1.12309e-22)
(0.170485 -0.539556 0)
(0.173969 -0.507158 0)
(0.200435 -0.430771 0)
(0.249576 -0.308999 0)
(0.313427 -0.152411 0)
(0.384356 0.0215786 0)
(0.456582 0.190074 6.18735e-22)
(0.523025 0.328768 -9.75125e-22)
(0.575998 0.423664 0)
(0.612854 0.47343 0)
(0.634162 0.489085 -4.05641e-22)
(0.631493 0.496764 3.94243e-22)
(0.596144 0.516965 1.9012e-22)
(0.543837 0.529037 0)
(0.51142 0.477606 0)
(0.522348 0.329974 5.55689e-22)
(0.569974 0.113793 -5.40135e-22)
(0.633438 -0.107523 0)
(0.68978 -0.28373 4.18728e-22)
(0.728117 -0.391386 -5.94396e-22)
(0.754149 -0.432429 1.4493e-22)
(0.759036 -0.441182 0)
(0.723666 -0.457827 -2.09645e-22)
(0.662046 -0.464019 2.03864e-22)
(0.610396 -0.400891 0)
(0.600313 -0.241302 0)
(0.62393 -0.031007 -1.21287e-22)
(0.666929 0.155486 3.32587e-22)
(0.7108 0.275561 0)
(0.741012 0.331108 0)
(0.724007 0.368877 -6.16584e-23)
(0.67711 0.370694 -4.71747e-25)
(0.635527 0.319533 2.54653e-27)
(0.647364 0.182343 6.06264e-23)
(0.6762 0.0296423 0)
(0.730312 -0.0893519 0)
(0.762569 -0.173942 0)
(0.797219 -0.166631 0)
(0.786952 -0.203677 0)
(0.767563 -0.127978 0)
(-0.092926 0.199439 -5.34186e-22)
(-0.084648 0.210423 -2.27409e-20)
(-0.073964 0.21748 -2.91526e-22)
(-0.0608987 0.219482 2.16104e-20)
(-0.0453437 0.214982 3.52355e-22)
(-0.0275844 0.202485 0)
(-0.00653046 0.180529 -2.237e-20)
(0.0180328 0.148048 4.48654e-20)
(0.0451495 0.103941 -2.24959e-20)
(0.0750172 0.0480275 2.23784e-20)
(0.107128 -0.0189136 -2.14247e-20)
(0.141071 -0.0946688 2.04329e-20)
(0.175871 -0.176373 -1.99151e-20)
(0.209998 -0.259139 -5.90623e-22)
(0.241489 -0.336985 -1.56062e-20)
(0.267628 -0.403953 1.51662e-20)
(0.285056 -0.455605 -1.12814e-20)
(0.290307 -0.491309 1.06467e-20)
(0.28046 -0.514114 -7.94904e-21)
(0.255941 -0.527553 1.44216e-20)
(0.223623 -0.529478 -6.52219e-21)
(0.197763 -0.508396 -3.35105e-22)
(0.193922 -0.448036 -6.14371e-21)
(0.219189 -0.339912 1.24283e-20)
(0.268423 -0.191267 -6.27567e-21)
(0.332292 -0.0209103 3.68341e-22)
(0.402767 0.148122 5.96215e-21)
(0.471765 0.292295 -4.79391e-22)
(0.53143 0.396039 -8.94938e-21)
(0.577784 0.45577 7.59497e-21)
(0.606729 0.4834 -3.46226e-21)
(0.607242 0.505287 3.86261e-22)
(0.575641 0.535593 -1.90523e-22)
(0.534049 0.545998 4.45466e-22)
(0.518055 0.482116 0)
(0.543628 0.319955 0)
(0.600351 0.0938184 -2.465e-21)
(0.667712 -0.129807 1.78627e-21)
(0.723459 -0.30142 1.27467e-21)
(0.755268 -0.402975 -1.71088e-22)
(0.772375 -0.437751 -1.48173e-21)
(0.773125 -0.436244 2.29192e-22)
(0.737179 -0.442198 0)
(0.672797 -0.445781 0)
(0.615007 -0.390436 0)
(0.596782 -0.242614 0)
(0.614831 -0.040965 4.09212e-22)
(0.65773 0.142162 -2.14836e-22)
(0.703732 0.26485 0)
(0.732923 0.329279 0)
(0.7118 0.376878 0)
(0.666714 0.380835 -1.28696e-22)
(0.629399 0.322968 -1.68797e-23)
(0.650641 0.177474 -1.13839e-22)
(0.683716 0.0204862 0)
(0.740315 -0.0985096 0)
(0.772769 -0.180903 5.30985e-23)
(0.804941 -0.169715 1.11853e-22)
(0.804559 -0.200735 0)
(0.779687 -0.126608 0)
(-0.0204862 0.186931 1.47313e-21)
(-0.0085021 0.197035 -4.50719e-20)
(0.00670713 0.202827 4.69495e-20)
(0.0245984 0.203401 -4.38926e-20)
(0.0451853 0.197486 -3.54744e-22)
(0.0683765 0.183525 0)
(0.0945018 0.160662 -4.84515e-20)
(0.123712 0.126907 4.75071e-20)
(0.155351 0.0817141 3.63605e-22)
(0.189211 0.0248294 7.58459e-22)
(0.22465 -0.0424471 7.45198e-22)
(0.260824 -0.118354 6.84438e-22)
(0.296598 -0.199625 -4.14387e-20)
(0.330452 -0.281161 4.08639e-20)
(0.360265 -0.356581 0)
(0.383334 -0.419312 9.47034e-22)
(0.396631 -0.464389 -2.307e-20)
(0.397279 -0.490739 2.27362e-20)
(0.382159 -0.502403 0)
(0.349202 -0.506415 0)
(0.301188 -0.50596 -1.09461e-20)
(0.250092 -0.493479 2.07891e-20)
(0.214746 -0.451173 -1.94566e-20)
(0.210639 -0.362776 -4.67137e-22)
(0.239551 -0.228032 2.04655e-20)
(0.292346 -0.0643174 -2.13008e-20)
(0.358348 0.103333 1.94103e-20)
(0.427911 0.25162 -1.38838e-21)
(0.492642 0.363503 -8.34997e-21)
(0.546374 0.434 0)
(0.580733 0.475321 0)
(0.584312 0.511768 2.4522e-21)
(0.558773 0.550609 -3.13219e-21)
(0.530291 0.558158 2.42511e-23)
(0.531054 0.482999 4.85202e-21)
(0.57051 0.309121 -4.7149e-21)
(0.635299 0.0755339 0)
(0.705027 -0.149265 6.12041e-22)
(0.759349 -0.315641 4.2692e-21)
(0.784938 -0.410875 -7.30612e-21)
(0.792582 -0.440792 2.75878e-21)
(0.788469 -0.430871 2.177e-22)
(0.752498 -0.426457 -1.76576e-21)
(0.686117 -0.426998 1.37227e-21)
(0.623057 -0.379322 3.14191e-22)
(0.597427 -0.243702 3.39756e-22)
(0.610172 -0.0515883 -4.10249e-22)
(0.652547 0.127831 0)
(0.699126 0.253805 0)
(0.726018 0.327949 -1.14436e-21)
(0.700892 0.385058 5.54456e-22)
(0.658253 0.390388 -5.30713e-22)
(0.62563 0.325268 8.18869e-22)
(0.656128 0.171615 1.09396e-21)
(0.693501 0.0110517 -2.20214e-22)
(0.75243 -0.107692 3.91953e-22)
(0.784369 -0.187478 -2.79327e-22)
(0.812627 -0.173359 1.16122e-22)
(0.820869 -0.198377 0)
(0.792747 -0.124816 0)
(0.0666449 0.168431 -9.27593e-20)
(0.0831533 0.178131 -2.14494e-21)
(0.101928 0.183068 9.01471e-20)
(0.123933 0.182651 -7.2578e-22)
(0.148838 0.175918 0)
(0.176429 0.161393 0)
(0.206693 0.137902 -1.00903e-19)
(0.239584 0.103939 -4.64516e-21)
(0.274541 0.0588457 1.49886e-19)
(0.311482 0.00241717 1.47058e-22)
(0.349424 -0.0640582 -4.9547e-20)
(0.387095 -0.139025 -4.51332e-20)
(0.423356 -0.218999 4.53053e-20)
(0.456432 -0.298736 0)
(0.483866 -0.371496 -3.40193e-20)
(0.502815 -0.430215 3.11301e-20)
(0.510657 -0.469477 0)
(0.50559 -0.487765 0)
(0.485917 -0.48886 1.43989e-20)
(0.449262 -0.481233 -2.72465e-21)
(0.39425 -0.473019 -1.06185e-20)
(0.326803 -0.463175 -8.17969e-21)
(0.263922 -0.436698 8.07422e-21)
(0.227423 -0.372086 -8.06257e-21)
(0.229558 -0.25856 -3.13232e-22)
(0.265898 -0.10718 7.93719e-21)
(0.324113 0.0565329 1.00623e-21)
(0.392075 0.207414 1.07273e-22)
(0.459644 0.326848 0)
(0.518015 0.408807 6.15288e-21)
(0.555832 0.464664 -6.33218e-21)
(0.562999 0.515012 3.85759e-22)
(0.545822 0.560645 0)
(0.532116 0.564898 -4.75326e-22)
(0.54958 0.480623 1.03942e-20)
(0.602164 0.298153 -2.02039e-20)
(0.674199 0.0596201 -1.66384e-21)
(0.745018 -0.16567 1.11585e-21)
(0.7969 -0.32686 8.52338e-21)
(0.816686 -0.41553 8.19646e-22)
(0.814713 -0.441587 -4.24782e-21)
(0.804734 -0.425305 3.67806e-21)
(0.769076 -0.411025 2.56144e-23)
(0.701641 -0.407707 1.17913e-21)
(0.634182 -0.367347 -1.4617e-21)
(0.602205 -0.244421 -2.18726e-21)
(0.610142 -0.0626362 6.59703e-22)
(0.651239 0.112842 1.22976e-21)
(0.696731 0.242749 -2.36658e-21)
(0.720323 0.327158 1.71453e-21)
(0.691479 0.393274 -5.61606e-22)
(0.651804 0.399279 4.55341e-22)
(0.624321 0.326475 5.57335e-22)
(0.663626 0.164899 -1.77551e-21)
(0.705229 0.00117881 4.47779e-23)
(0.766302 -0.116834 -4.46904e-22)
(0.797336 -0.193492 0)
(0.82073 -0.177292 -1.05377e-22)
(0.83568 -0.196646 1.03188e-22)
(0.806306 -0.122799 0)
(0.16601 0.145721 9.32327e-20)
(0.185753 0.15465 -1.85545e-19)
(0.206889 0.158849 9.10819e-20)
(0.231712 0.157791 9.70652e-20)
(0.259833 0.150723 -1.94073e-19)
(0.290684 0.136265 -3.97955e-21)
(0.324065 0.113038 9.88994e-20)
(0.359844 0.0797818 1.0412e-19)
(0.397422 0.0357087 -1.0199e-19)
(0.436711 -0.0189985 0)
(0.476554 -0.0836532 -1.00666e-19)
(0.515498 -0.15657 1.93761e-19)
(0.552066 -0.23417 -9.32171e-20)
(0.584064 -0.311103 0)
(0.608618 -0.380383 0)
(0.622668 -0.434712 9.81297e-22)
(0.623848 -0.468705 -4.67498e-20)
(0.611396 -0.48091 4.54172e-20)
(0.58569 -0.474339 0)
(0.546385 -0.45652 2.13306e-20)
(0.490784 -0.437681 -3.55747e-20)
(0.41807 -0.423546 2.74131e-20)
(0.337774 -0.406134 -2.32192e-20)
(0.271659 -0.364113 -2.34355e-22)
(0.241858 -0.277456 2.21395e-20)
(0.254748 -0.14588 -1.13728e-20)
(0.300358 0.00949172 -4.40573e-22)
(0.363643 0.160574 -5.31061e-21)
(0.43132 0.28677 6.60594e-23)
(0.491613 0.380346 5.33952e-21)
(0.531632 0.450656 3.58318e-22)
(0.543465 0.513627 -6.29861e-21)
(0.536748 0.5646 1.35041e-20)
(0.538862 0.566008 -8.165e-21)
(0.572518 0.475389 0)
(0.637353 0.287735 -1.3574e-20)
(0.716046 0.0463951 1.33007e-20)
(0.787133 -0.178582 -8.94526e-21)
(0.8355 -0.334865 1.1204e-20)
(0.849774 -0.416883 -8.59003e-22)
(0.838531 -0.439829 0)
(0.821745 -0.419406 -4.2599e-22)
(0.786557 -0.39621 9.49204e-22)
(0.719143 -0.38827 0)
(0.647943 -0.354692 2.47372e-21)
(0.610609 -0.244821 -9.41411e-22)
(0.614409 -0.0739528 5.88464e-22)
(0.653385 0.0975309 4.90685e-22)
(0.696258 0.231896 0)
(0.715849 0.326835 0)
(0.683721 0.40135 -1.69361e-21)
(0.647408 0.407444 2.94945e-21)
(0.625516 0.326682 -1.87286e-21)
(0.672928 0.157404 7.36356e-22)
(0.718654 -0.00910265 1.22604e-21)
(0.781622 -0.125891 4.47324e-22)
(0.811497 -0.198849 -6.3258e-22)
(0.829651 -0.181243 0)
(0.848941 -0.1955 -1.7787e-22)
(0.819972 -0.120725 -7.10133e-24)
(0.279771 0.12075 9.38535e-20)
(0.300515 0.128723 -9.32851e-20)
(0.322005 0.131887 7.41432e-22)
(0.347642 0.130199 -7.43287e-22)
(0.377196 0.123076 7.66415e-22)
(0.40974 0.109075 -7.82345e-22)
(0.444876 0.0867527 1.57701e-21)
(0.482369 0.054863 0)
(0.521914 0.0121729 -1.61491e-21)
(0.562884 -0.0395336 1.61071e-21)
(0.603974 -0.101323 1.58275e-21)
(0.643643 -0.171038 -1.54647e-21)
(0.679952 -0.245057 0)
(0.71012 -0.31799 0)
(0.730833 -0.382795 1.15651e-21)
(0.73894 -0.432279 0)
(0.732556 -0.461361 -8.01172e-22)
(0.711899 -0.468922 0)
(0.678921 -0.457711 -2.58651e-20)
(0.635734 -0.433517 4.45828e-20)
(0.581458 -0.405205 -3.17397e-20)
(0.511866 -0.382148 1.31159e-20)
(0.427132 -0.365102 7.25201e-21)
(0.34142 -0.338963 -7.04314e-21)
(0.280149 -0.279819 -7.09033e-21)
(0.262695 -0.174749 6.91651e-21)
(0.288247 -0.0348337 0)
(0.341793 0.112638 1.96448e-22)
(0.406218 0.243868 0)
(0.466149 0.348416 0)
(0.507974 0.432335 9.74689e-21)
(0.525872 0.506448 -9.98506e-21)
(0.531311 0.561913 7.63858e-22)
(0.549671 0.561711 1.00371e-21)
(0.598587 0.467783 -1.26115e-21)
(0.674418 0.278182 -1.26106e-20)
(0.759454 0.0362208 1.22413e-20)
(0.830746 -0.187665 -1.21765e-20)
(0.874628 -0.33962 1.04197e-20)
(0.883499 -0.415203 1.74135e-21)
(0.86375 -0.435473 -4.19875e-21)
(0.839341 -0.41307 7.45006e-22)
(0.80444 -0.38229 2.22382e-21)
(0.738282 -0.368907 0)
(0.663921 -0.341341 -8.13872e-22)
(0.621782 -0.244894 1.2545e-21)
(0.622132 -0.0854569 -1.67002e-21)
(0.658307 0.0821178 -4.93808e-22)
(0.697382 0.221322 0)
(0.712587 0.326825 5.83339e-22)
(0.677741 0.409118 -1.05051e-21)
(0.645072 0.414838 2.91565e-23)
(0.62921 0.325986 -7.69083e-22)
(0.68399 0.149314 1.47455e-21)
(0.733672 -0.0194992 -1.32627e-21)
(0.798068 -0.134797 0)
(0.826578 -0.203521 6.32866e-22)
(0.839688 -0.184963 0)
(0.860743 -0.194824 0)