/*--------------------------------*- C++ -*----------------------------------*\
| =========                 |                                                 |
| \\      /  F ield         | OpenFOAM: The Open Source CFD Toolbox           |
|  \\    /   O peration     | Version:  2512                                  |
|   \\  /    A nd           | Website:  www.openfoam.com                      |
|    \\/     M anipulation  |                                                 |
\*---------------------------------------------------------------------------*/
FoamFile
{
    version     2.0;
    format      ascii;
    arch        "LSB;label=32;scalar=64";
    class       volVectorField;
    location    "152.5";
    object      U;
}
// * * * * * * * * * * * * * * * * * * * * * * * * * * * * * * * * * * * * * //

dimensions      [0 1 -1 0 0 0 0];

internalField   nonuniform List<vector> 
13248
(
(-0.0123774 0.0124911 9.96794e-20)
(-0.0182582 0.0254342 0)
(-0.00486882 0.031304 -1.88601e-19)
(0.0259635 0.0313837 1.77655e-19)
(0.0729166 0.0271468 1.66794e-19)
(0.134933 0.020018 0)
(0.210875 0.0111744 0)
(0.299261 0.00155225 4.09841e-19)
(0.398017 -0.00812807 -6.77481e-22)
(0.504308 -0.0173481 -3.60242e-19)
(0.614543 -0.0257759 3.34924e-19)
(0.724582 -0.0332454 -2.09753e-19)
(0.830095 -0.0397263 0)
(0.927006 -0.0452855 -3.51284e-19)
(1.01192 -0.050042 6.49908e-19)
(1.08247 -0.0541242 -1.55623e-19)
(1.13748 -0.0576331 -2.59946e-19)
(1.17699 -0.0606295 2.44059e-19)
(1.20213 -0.0630915 0)
(1.21475 -0.0651041 0)
(1.21737 -0.066173 0)
(1.21174 -0.0679374 0)
(1.20178 -0.0656485 6.04861e-20)
(1.18409 -0.0740248 1.98845e-19)
(-0.0104352 0.00941522 -3.00706e-19)
(-0.0092262 0.0165347 2.04724e-19)
(0.0143141 0.0180206 -1.59509e-21)
(0.0581737 0.0153543 -2.70743e-19)
(0.120821 0.0100515 -1.66616e-19)
(0.200729 0.00351135 -1.57707e-19)
(0.295871 -0.00317839 -2.92302e-19)
(0.403413 -0.00923942 2.75541e-19)
(0.519556 -0.0141923 0)
(0.639608 -0.0178503 1.2683e-21)
(0.758328 -0.0202897 1.78092e-21)
(0.870463 -0.0217868 2.06893e-19)
(0.971348 -0.0227301 0)
(1.05742 -0.0235233 0)
(1.12656 -0.0244998 2.31167e-19)
(1.17819 -0.0258641 -4.34315e-19)
(1.21316 -0.0276696 2.48681e-19)
(1.23342 -0.0298284 -2.33496e-19)
(1.24161 -0.0321473 -9.88511e-20)
(1.24062 -0.0343808 -1.72655e-19)
(1.23318 -0.0361875 -6.60571e-20)
(1.22162 -0.0376515 -1.21762e-19)
(1.20795 -0.0367895 1.87249e-19)
(1.19164 -0.040233 5.10233e-20)
(-0.00751155 0.00641398 0)
(0.00354326 0.00800267 0)
(0.0406058 0.00578106 9.58037e-20)
(0.101095 0.00134008 8.86532e-20)
(0.182817 -0.00378601 -1.5904e-21)
(0.283169 -0.00825935 -1.61481e-19)
(0.398498 -0.0111955 0)
(0.523906 -0.0121731 -1.37293e-19)
(0.653416 -0.0112074 1.28176e-19)
(0.780503 -0.00869121 -4.99195e-22)
(0.898869 -0.00528025 -2.19355e-19)
(1.00324 -0.00173447 -1.99118e-19)
(1.08998 0.00124467 5.40937e-21)
(1.15738 0.00314355 -1.58904e-19)
(1.20564 0.00370657 3.86596e-19)
(1.23651 0.00294163 0)
(1.25279 0.0010728 -2.38375e-19)
(1.25777 -0.00154074 1.17061e-19)
(1.25467 -0.00447734 9.87715e-20)
(1.24628 -0.00736994 0)
(1.23485 -0.00976698 7.67585e-20)
(1.22178 -0.0118523 -2.55313e-19)
(1.20832 -0.0120661 2.39672e-19)
(1.19406 -0.0160165 1.4169e-19)
(-0.00312814 0.00337131 -1.05192e-19)
(0.0211202 -0.000111684 -1.08509e-19)
(0.0753672 -0.00494226 9.8767e-20)
(0.155988 -0.00966906 0)
(0.259474 -0.0128972 0)
(0.381334 -0.0135252 -2.54441e-21)
(0.51551 -0.0111247 0)
(0.654577 -0.00593091 -4.14069e-19)
(0.790514 0.00128434 3.8433e-19)
(0.915785 0.00941357 -4.74812e-19)
(1.0244 0.0172694 1.09004e-19)
(1.11263 0.0238317 0)
(1.17924 0.0284216 1.76673e-19)
(1.22523 0.0307711 -3.25398e-19)
(1.25325 0.0309902 7.77092e-20)
(1.26686 0.0294632 1.9205e-19)
(1.26984 0.0267173 -1.20603e-20)
(1.2656 0.0233022 -2.10743e-19)
(1.25686 0.0197015 0)
(1.24565 0.0162931 0)
(1.23327 0.0133697 -7.11913e-20)
(1.22051 0.0108871 6.27402e-20)
(1.20799 0.00985039 2.16803e-19)
(1.19511 0.00585727 -2.03599e-19)
(0.00321264 0.000273748 -1.09725e-19)
(0.0444905 -0.00757445 -1.0981e-19)
(0.119568 -0.0135199 3.09181e-19)
(0.22321 -0.0166258 -1.8861e-19)
(0.349767 -0.0159398 1.77525e-19)
(0.492012 -0.0109269 3.24195e-19)
(0.640952 -0.00198098 -2.28556e-19)
(0.786796 0.00970479 -2.77021e-19)
(0.920451 0.022483 6.17053e-21)
(1.03494 0.0346535 3.55735e-19)
(1.12626 0.0448228 0)
(1.19356 0.0521313 9.60961e-20)
(1.23862 0.0563094 0)
(1.26495 0.0575882 -1.54417e-19)
(1.27682 0.0565243 2.17062e-19)
(1.27844 0.053809 2.30409e-21)
(1.27337 0.0501142 -5.54376e-20)
(1.26435 0.0459994 1.02518e-19)
(1.25322 0.0418791 8.75219e-20)
(1.24118 0.0380297 -7.75357e-20)
(1.22893 0.0346248 7.11726e-20)
(1.21684 0.0316653 -6.27229e-20)
(1.20514 0.0296516 0)
(1.19356 0.0255624 -4.69201e-20)
(0.0119495 -0.00273667 1.09709e-19)
(0.0743896 -0.0138493 1.14559e-19)
(0.173584 -0.019024 -1.0346e-19)
(0.302026 -0.0183192 1.92873e-19)
(0.451063 -0.0116831 -1.81529e-19)
(0.610104 0.000389945 1.64565e-19)
(0.767325 0.0163064 -7.87011e-20)
(0.911608 0.0337764 2.07996e-19)
(1.0345 0.0504493 -1.30124e-19)
(1.13138 0.0644479 2.28879e-19)
(1.20155 0.0746705 -5.26477e-19)
(1.24745 0.0808285 1.92259e-19)
(1.27343 0.0832815 -1.6708e-19)
(1.2845 0.0827727 1.56946e-19)
(1.28533 0.080171 1.3358e-19)
(1.27973 0.0762817 1.15807e-19)
(1.27048 0.0717491 -3.21636e-19)
(1.25938 0.0670346 1.98964e-19)
(1.24756 0.0624403 -8.75236e-20)
(1.23563 0.0581502 2.25311e-19)
(1.22391 0.054265 -7.27961e-20)
(1.21257 0.0508126 -1.73554e-19)
(1.20168 0.0480249 1.59629e-19)
(1.19102 0.0439015 4.69057e-20)
(0.0234066 -0.00536744 0)
(0.111166 -0.0181039 7.23265e-22)
(0.237036 -0.020257 2.14172e-19)
(0.390539 -0.0134634 -2.01123e-19)
(0.559326 0.000839742 -1.81962e-19)
(0.729392 0.0206401 3.38162e-19)
(0.88707 0.0429405 -1.57033e-19)
(1.02172 0.0645423 2.08987e-19)
(1.12745 0.0828834 -4.89783e-21)
(1.20331 0.0964843 -1.17862e-19)
(1.25224 0.104976 2.56128e-19)
(1.27939 0.10884 -3.76605e-19)
(1.29058 0.109026 0)
(1.29107 0.106615 -7.30544e-20)
(1.28506 0.102575 -1.93981e-19)
(1.27549 0.0976604 6.11246e-20)
(1.26424 0.0923989 2.778e-21)
(1.25239 0.0871281 -1.30741e-19)
(1.24053 0.082051 9.50319e-21)
(1.22894 0.0772829 1.50548e-19)
(1.21777 0.0728831 -6.59502e-20)
(1.20704 0.0688877 -2.46745e-20)
(1.19674 0.06532 7.73462e-20)
(1.18674 0.0610547 0)
(0.0377565 -0.00720783 0)
(0.154673 -0.0192981 5.79077e-20)
(0.308685 -0.0159047 -2.7719e-19)
(0.485744 -0.000915056 1.01093e-19)
(0.669568 0.0221178 -9.51428e-20)
(0.843541 0.0493339 -8.65334e-20)
(0.993961 0.0764798 -1.53421e-19)
(1.11272 0.0999924 7.64483e-20)
(1.19794 0.117755 6.68256e-20)
(1.25268 0.129181 0)
(1.28289 0.134837 1.50723e-19)
(1.29531 0.135912 -2.23118e-19)
(1.29602 0.133749 1.66258e-19)
(1.28977 0.12954 7.30928e-20)
(1.27985 0.124195 -5.93016e-20)
(1.26828 0.118337 -4.9166e-20)
(1.25621 0.112357 -4.56045e-20)
(1.24424 0.106484 1.37488e-19)
(1.23263 0.100851 0)
(1.22148 0.095528 6.79918e-20)
(1.21083 0.0905581 5.63939e-20)
(1.20065 0.0859635 -1.40813e-19)
(1.19089 0.0816806 -9.4842e-20)
(1.18145 0.0772447 8.79628e-20)
(0.054983 -0.00777465 -6.11987e-20)
(0.204204 -0.0163225 -1.73986e-21)
(0.386441 -0.00475926 5.6159e-20)
(0.583781 0.020075 1.56326e-19)
(0.776525 0.0520117 4.53203e-20)
(0.94711 0.0853687 -8.75533e-20)
(1.08398 0.115191 8.03346e-20)
(1.18324 0.138304 -7.06429e-20)
(1.2475 0.153625 1.25883e-19)
(1.2833 0.16171 5.36718e-20)
(1.29846 0.164008 -1.51766e-19)
(1.30015 0.162207 4.48168e-20)
(1.29394 0.157808 7.61857e-20)
(1.28366 0.151947 -3.75216e-20)
(1.27165 0.145389 0)
(1.25918 0.138604 5.56183e-20)
(1.24688 0.131862 9.37534e-20)
(1.23505 0.125313 1.57577e-20)
(1.22376 0.119039 -7.7893e-20)
(1.21305 0.113088 3.25344e-20)
(1.20286 0.107487 0)
(1.19315 0.102235 -2.53694e-20)
(1.18386 0.097257 -2.35854e-20)
(1.17487 0.0925255 0)
(0.0748458 -0.00656447 0)
(0.258461 -0.00815354 3.1928e-20)
(0.467474 0.0140669 5.909e-20)
(0.680362 0.0496899 -1.58352e-19)
(0.875374 0.089761 5.08227e-20)
(1.03622 0.127261 0)
(1.15545 0.15738 7.66871e-20)
(1.23417 0.178063 -1.06921e-19)
(1.27912 0.189618 -6.26084e-20)
(1.29925 0.193735 2.84407e-20)
(1.30311 0.192538 -4.5017e-20)
(1.29746 0.18796 1.09582e-19)
(1.28695 0.181471 5.49215e-20)
(1.27442 0.174052 -3.82182e-20)
(1.26139 0.166297 -3.63592e-21)
(1.24861 0.158536 -1.04421e-19)
(1.23639 0.150947 4.75267e-20)
(1.22483 0.143624 -1.07285e-21)
(1.21392 0.136619 0)
(1.20364 0.129961 -3.25679e-20)
(1.19392 0.123666 0)
(1.18467 0.11771 7.33396e-20)
(1.17583 0.112068 -8.72777e-20)
(1.16726 0.106934 3.97138e-20)
(0.0968583 -0.00310374 -1.63109e-20)
(0.315603 0.00601679 -7.98886e-20)
(0.548461 0.0409966 9.05371e-20)
(0.771258 0.0875035 5.34335e-20)
(0.96226 0.134123 -2.56367e-20)
(1.10868 0.173398 4.28942e-20)
(1.20844 0.201585 -2.09087e-20)
(1.26756 0.218282 3.48404e-20)
(1.29599 0.225271 0)
(1.30394 0.225191 7.89813e-20)
(1.29977 0.220569 -3.17009e-21)
(1.28937 0.213368 -6.38718e-20)
(1.27635 0.204904 2.74225e-20)
(1.26267 0.195964 -3.09954e-20)
(1.24926 0.186978 -1.1855e-20)
(1.23651 0.178166 1.36051e-20)
(1.22453 0.169638 -1.0579e-20)
(1.21332 0.161451 -5.71348e-20)
(1.20284 0.153636 3.50528e-20)
(1.19301 0.14621 7.21473e-21)
(1.18375 0.139168 6.35243e-21)
(1.17497 0.132481 5.59332e-21)
(1.16657 0.126198 0)
(1.15841 0.120519 0)
(0.120366 0.00301607 1.63221e-20)
(0.373496 0.0266983 -1.64036e-20)
(0.626044 0.0759267 -3.00999e-20)
(0.852844 0.132553 0)
(1.03457 0.183583 -1.26685e-20)
(1.16372 0.222252 -1.13068e-20)
(1.24398 0.246668 -1.94654e-20)
(1.28564 0.258332 0)
(1.30069 0.260376 0)
(1.29961 0.256109 0)
(1.29002 0.248212 0)
(1.27674 0.238522 0)
(1.2624 0.22814 -1.72467e-20)
(1.24829 0.217661 7.86256e-21)
(1.2349 0.207376 1.36988e-20)
(1.2224 0.197423 6.39138e-21)
(1.2108 0.187864 1.59043e-20)
(1.20004 0.178729 0)
(1.19005 0.170033 -3.83848e-21)
(1.18074 0.16178 -3.62236e-21)
(1.17201 0.15395 -6.36246e-21)
(1.16375 0.146522 -5.60218e-21)
(1.15584 0.139618 0)
(1.14817 0.133281 4.0524e-21)
(-0.00246659 0.0175672 9.1856e-21)
(-0.0100792 0.0300549 -9.54579e-21)
(-0.022886 0.0280405 -1.80918e-20)
(-0.0382234 0.0172665 0)
(-0.0547211 0.00176141 -2.41427e-20)
(-0.0717434 -0.0159839 7.49788e-21)
(-0.0888296 -0.0347199 -1.44502e-20)
(-0.105616 -0.0540712 0)
(-0.121825 -0.0741681 0)
(-0.137235 -0.095334 0)
(-0.151667 -0.11788 0)
(-0.164965 -0.141995 0)
(-0.176981 -0.167706 -2.59021e-22)
(-0.187565 -0.194882 -9.35016e-21)
(-0.196556 -0.223234 1.80401e-20)
(-0.203781 -0.25232 2.51223e-20)
(-0.209054 -0.28154 8.09526e-21)
(-0.21218 -0.310139 0)
(-0.21298 -0.337205 6.69977e-21)
(-0.211311 -0.361707 -1.90441e-20)
(-0.207035 -0.382535 -1.18266e-20)
(-0.199925 -0.398541 -1.09482e-20)
(-0.189903 -0.408547 0)
(-0.177969 -0.411615 0)
(-0.00407029 0.0230996 -2.79013e-20)
(-0.0130529 0.0428874 4.7981e-20)
(-0.0261261 0.045605 -1.85463e-20)
(-0.0411461 0.037849 -3.48231e-20)
(-0.0570192 0.0241798 4.89555e-20)
(-0.0732461 0.00743301 -3.11705e-20)
(-0.0894265 -0.0109079 4.37662e-20)
(-0.105226 -0.0303135 2.83831e-20)
(-0.120386 -0.0508077 0)
(-0.134713 -0.0726425 -2.44464e-20)
(-0.148058 -0.0960982 -2.34607e-22)
(-0.160305 -0.121354 2.15353e-20)
(-0.171357 -0.148446 3.16697e-20)
(-0.181123 -0.177264 3.93961e-20)
(-0.189515 -0.207547 -1.80586e-20)
(-0.196447 -0.238882 -5.16007e-20)
(-0.201831 -0.270697 1.64774e-20)
(-0.205582 -0.302251 -6.12098e-20)
(-0.207638 -0.332635 0)
(-0.207988 -0.360791 1.27404e-20)
(-0.206587 -0.385548 1.18134e-20)
(-0.203159 -0.405652 1.09361e-20)
(-0.197587 -0.419802 0)
(-0.191899 -0.426935 0)
(-0.00613146 0.0280096 0)
(-0.0167447 0.0547074 1.00508e-19)
(-0.0296194 0.0622159 -3.78217e-20)
(-0.0434423 0.0576971 3.54902e-20)
(-0.0575418 0.0461047 -1.02381e-19)
(-0.0716148 0.0305789 0)
(-0.0853577 0.012847 -6.12549e-20)
(-0.0984713 -0.00637274 2.92603e-20)
(-0.110698 -0.0269679 -5.59387e-20)
(-0.12186 -0.0491145 2.76438e-20)
(-0.131833 -0.073024 1.49048e-19)
(-0.140516 -0.0988636 -7.00664e-20)
(-0.14784 -0.126674 -1.09555e-19)
(-0.153767 -0.156362 -4.26469e-20)
(-0.158279 -0.187691 6.15811e-23)
(-0.161379 -0.220279 1.45877e-19)
(-0.163092 -0.253586 -6.8336e-20)
(-0.16347 -0.286907 -1.43405e-21)
(-0.162598 -0.319366 0)
(-0.160626 -0.34992 -5.44465e-20)
(-0.157673 -0.377357 0)
(-0.153493 -0.400334 -4.23077e-20)
(-0.147723 -0.417545 1.59457e-19)
(-0.143153 -0.428082 -2.95738e-21)
(-0.00845404 0.0317496 0)
(-0.0208254 0.0643502 1.36212e-21)
(-0.0330486 0.0764079 3.97999e-20)
(-0.0448531 0.0752157 -3.79198e-20)
(-0.0560981 0.0659003 3.40844e-20)
(-0.0667229 0.0518144 2.01057e-19)
(-0.0765433 0.0349057 -6.29678e-20)
(-0.0853139 0.0160927 -6.10788e-20)
(-0.0928047 -0.00435961 1.13929e-19)
(-0.0987992 -0.0265106 -1.61765e-19)
(-0.103158 -0.0505151 5.19461e-20)
(-0.105806 -0.0764951 4.9628e-20)
(-0.106676 -0.104476 0)
(-0.105756 -0.134359 4.24276e-20)
(-0.103081 -0.165907 0)
(-0.0987385 -0.198738 7.80069e-20)
(-0.0928727 -0.23232 -1.41513e-19)
(-0.0856876 -0.265967 3.46081e-20)
(-0.0774507 -0.298846 1.22544e-19)
(-0.0685061 -0.329966 5.43874e-20)
(-0.0592274 -0.358148 0)
(-0.0497248 -0.382029 -1.31141e-19)
(-0.0394492 -0.40035 4.212e-20)
(-0.0286786 -0.412567 0)
(-0.0107755 0.0339227 0)
(-0.0248671 0.0708882 -1.276e-19)
(-0.0360622 0.0869318 -4.11375e-20)
(-0.0451872 0.0889787 -7.67566e-20)
(-0.0526756 0.0820591 7.22769e-20)
(-0.0587394 0.0696031 -6.77048e-20)
(-0.0633402 0.0537181 1.31327e-19)
(-0.0662983 0.0355034 6.23623e-20)
(-0.0673925 0.0153932 -1.75384e-19)
(-0.0664182 -0.00653844 1.12793e-19)
(-0.0631977 -0.0303761 -1.58979e-19)
(-0.0576159 -0.0561753 3.56673e-19)
(-0.0496236 -0.0839282 -1.90687e-19)
(-0.0392241 -0.113506 9.17147e-20)
(-0.0264954 -0.144643 2.55732e-19)
(-0.0116026 -0.176919 -7.90212e-20)
(0.00519161 -0.209766 -7.67794e-20)
(0.0235206 -0.242467 -6.86295e-20)
(0.0429181 -0.274186 0)
(0.062835 -0.303976 -1.10357e-19)
(0.0826458 -0.330776 -9.28264e-20)
(0.101602 -0.35343 1.39756e-19)
(0.118476 -0.370801 1.49894e-19)
(0.141432 -0.379037 -1.40838e-19)
(-0.0128212 0.0343613 0)
(-0.0284105 0.0737829 -1.77354e-19)
(-0.0383052 0.0929237 -1.66212e-21)
(-0.044304 0.0978832 1.57068e-19)
(-0.0473798 0.0933254 0)
(-0.0480206 0.0826005 0)
(-0.0463526 0.0678871 0)
(-0.0422817 0.0504255 -6.38639e-20)
(-0.0356151 0.0308031 -1.39545e-21)
(-0.0261417 0.00922285 1.14866e-19)
(-0.0136739 -0.0142795 -1.63726e-19)
(0.00192757 -0.0397008 -5.83436e-22)
(0.0207139 -0.0669779 0)
(0.0426472 -0.0959361 -9.16553e-20)
(0.0675832 -0.126257 8.81405e-20)
(0.0952531 -0.157462 -2.45817e-19)
(0.125246 -0.188913 3.00625e-19)
(0.157007 -0.219827 6.47611e-20)
(0.189846 -0.249307 -9.02723e-21)
(0.222972 -0.276395 -2.33158e-19)
(0.255454 -0.300149 -1.01105e-19)
(0.286524 -0.319615 3.03758e-19)
(0.314912 -0.33348 -1.97703e-19)
(0.350961 -0.335824 0)
(-0.0143667 0.0331496 8.89388e-20)
(-0.0310485 0.0729587 8.92198e-20)
(-0.0394537 0.0940107 -8.63133e-20)
(-0.0420805 0.101266 -1.61784e-19)
(-0.0403307 0.0988078 1.52332e-19)
(-0.0349391 0.0897571 -1.45472e-19)
(-0.0262012 0.0762621 2.06214e-19)
(-0.0141261 0.0596418 -6.42387e-20)
(0.00143167 0.0406065 1.23524e-19)
(0.0206736 0.019487 0)
(0.0437835 -0.00356479 1.14374e-19)
(0.0708845 -0.0284586 -2.13449e-19)
(0.101993 -0.0550612 2.01449e-19)
(0.136991 -0.0831322 -1.89201e-19)
(0.1756 -0.112286 0)
(0.217355 -0.141981 1.64989e-19)
(0.261594 -0.171514 3.02786e-19)
(0.307471 -0.200051 -2.83863e-19)
(0.353984 -0.226662 -1.26496e-19)
(0.400072 -0.250371 -1.08175e-19)
(0.444429 -0.270323 3.08705e-19)
(0.487062 -0.285326 7.97696e-20)
(0.522373 -0.295999 -8.17538e-20)
(0.573315 -0.293987 6.23627e-20)
(-0.015287 0.0305931 -8.89507e-20)
(-0.0324954 0.0687908 2.78763e-19)
(-0.0392341 0.0903502 -8.82384e-20)
(-0.038349 0.0989892 1.65115e-19)
(-0.0315093 0.0980974 -1.55464e-19)
(-0.0196348 0.0904555 4.53129e-22)
(-0.00317162 0.0780859 6.9986e-20)
(0.0177625 0.0623154 2.68732e-19)
(0.0432485 0.0439307 2.56857e-21)
(0.0734477 0.0233946 -1.18096e-19)
(0.10851 0.000961315 0)
(0.148481 -0.0231787 -1.08751e-19)
(0.193257 -0.0487944 2.02626e-19)
(0.242527 -0.075556 1.90584e-19)
(0.295734 -0.103 -8.98898e-20)
(0.352051 -0.130517 -2.42707e-22)
(0.410396 -0.157363 -7.64284e-20)
(0.469472 -0.182694 1.38279e-19)
(0.527831 -0.205626 1.26442e-19)
(0.584123 -0.225227 -1.13037e-19)
(0.636427 -0.240994 9.75715e-20)
(0.686093 -0.251107 -8.46144e-20)
(0.722923 -0.259021 0)
(0.77958 -0.252441 -6.22741e-20)
(-0.0155777 0.0271398 9.2076e-20)
(-0.0326131 0.0620019 -9.35854e-20)
(-0.0374054 0.0825795 8.96939e-20)
(-0.0328025 0.0914645 0)
(-0.0205655 0.0913589 0)
(-0.001715 0.0846517 1.51902e-19)
(0.0231949 0.07317 -1.41204e-19)
(0.0539448 0.0581847 1.36087e-19)
(0.0905457 0.0405538 -6.36734e-19)
(0.133078 0.0208133 -7.24247e-22)
(0.181548 -0.000686532 1.14244e-19)
(0.23582 -0.0236283 0)
(0.295496 -0.0476683 -2.03209e-19)
(0.35986 -0.0723795 3.80818e-19)
(0.427837 -0.0972242 -2.67457e-19)
(0.498012 -0.121554 -4.07825e-19)
(0.568686 -0.144636 8.27282e-21)
(0.637998 -0.165694 2.75967e-19)
(0.70403 -0.183991 0)
(0.765196 -0.198728 0)
(0.819292 -0.209882 -9.75588e-20)
(0.868278 -0.215233 8.46055e-20)
(0.901263 -0.220183 -2.71682e-19)
(0.951083 -0.210012 2.54851e-19)
(-0.0153347 0.0232734 0)
(-0.0313711 0.0534932 0)
(-0.0336806 0.0716841 -2.7056e-19)
(-0.0248595 0.0796005 8.57185e-20)
(-0.00660736 0.0793685 -2.27577e-22)
(0.020041 0.0730012 1.52469e-19)
(0.054476 0.0621092 0)
(0.0964126 0.0478987 -1.35365e-19)
(0.145722 0.0312231 1.2761e-19)
(0.202277 0.0126657 -2.42519e-19)
(0.265803 -0.00729351 -3.76155e-22)
(0.335716 -0.0282301 2.15291e-19)
(0.411026 -0.0497063 -5.43631e-22)
(0.490287 -0.0712301 1.86316e-19)
(0.571626 -0.0922469 -2.65974e-19)
(0.652835 -0.112155 0)
(0.731534 -0.130337 2.90102e-19)
(0.805371 -0.146208 -4.07706e-19)
(0.872236 -0.159269 1.17529e-19)
(0.930541 -0.169032 0)
(0.978748 -0.175689 9.13083e-20)
(1.01835 -0.177445 3.10032e-19)
(1.04227 -0.179811 -2.90999e-19)
(1.07483 -0.16809 -2.82785e-19)
(-0.0146915 0.0194049 2.85159e-19)
(-0.0287394 0.0441489 -3.91582e-19)
(-0.0276059 0.0588111 6.80492e-22)
(-0.0135272 0.0646806 8.70628e-20)
(0.0119566 0.0634868 -1.62951e-19)
(0.0478627 0.0569433 -1.51983e-19)
(0.0935527 0.0464729 2.88082e-19)
(0.148604 0.0331823 5.7561e-22)
(0.212637 0.0179008 -2.55579e-19)
(0.28509 0.00128495 4.83314e-19)
(0.365046 -0.0161267 9.41823e-22)
(0.451084 -0.0338567 -2.13709e-19)
(0.541228 -0.0514462 0)
(0.632999 -0.0684394 0)
(0.723566 -0.0843872 -8.68309e-20)
(0.80998 -0.0988652 -1.55241e-19)
(0.889447 -0.111494 -2.81182e-19)
(0.959585 -0.121977 2.63962e-19)
(1.01869 -0.130075 -1.17592e-19)
(1.06577 -0.135717 1.97679e-19)
(1.10075 -0.13892 -1.04248e-19)
(1.12474 -0.139116 1.37393e-19)
(1.13612 -0.139797 -3.47028e-19)
(1.14832 -0.129406 5.82589e-20)
(-0.0137252 0.0157876 9.63146e-20)
(-0.0245307 0.034664 0)
(-0.0184113 0.0450704 1.85994e-19)
(0.0027034 0.0481785 -1.75202e-19)
(0.0374451 0.0455112 1.63099e-19)
(0.0848782 0.0385851 0)
(0.144253 0.0286716 0)
(0.214831 0.0167872 -1.36414e-19)
(0.295647 0.00374074 -2.02456e-22)
(0.385283 -0.00982513 1.20151e-19)
(0.481698 -0.0233973 -1.12149e-19)
(0.582202 -0.0365611 2.11904e-19)
(0.683556 -0.0489816 0)
(0.782213 -0.0603929 3.6085e-19)
(0.874646 -0.0705933 -6.69438e-19)
(0.957696 -0.07944 4.65772e-19)
(1.02888 -0.0868402 2.70991e-19)
(1.08663 -0.0927633 -2.54413e-19)
(1.13038 -0.0971604 0)
(1.16046 -0.100222 0)
(1.17835 -0.10161 0)
(1.18544 -0.102282 0)
(1.18449 -0.10157 6.59922e-20)
(1.18049 -0.0962833 -2.14595e-19)
(-0.1635 -0.407392 -6.76344e-21)
(-0.138832 -0.389644 6.78994e-21)
(-0.107154 -0.354274 -1.99927e-22)
(-0.0689503 -0.301013 0)
(-0.0238785 -0.229686 -6.62284e-21)
(0.0256002 -0.141738 1.29118e-20)
(0.0784498 -0.0393479 -8.25715e-23)
(0.134017 0.0746508 -6.03709e-21)
(0.190104 0.193591 0)
(0.246147 0.309877 0)
(0.300987 0.414668 -2.52041e-22)
(0.352423 0.499136 -2.13699e-22)
(0.397258 0.557182 -2.96051e-21)
(0.432178 0.58832 2.70437e-21)
(0.453458 0.599262 0)
(0.457128 0.601981 0)
(0.443568 0.604467 1.74738e-21)
(0.42329 0.598803 1.1731e-22)
(0.415397 0.560203 -1.64408e-21)
(0.435815 0.46363 -1.35194e-22)
(0.485567 0.304325 0)
(0.553234 0.101744 0)
(0.625786 -0.109122 0)
(0.69215 -0.289697 0)
(0.744507 -0.414018 0)
(0.778736 -0.479769 0)
(0.795069 -0.501754 3.23414e-22)
(0.798784 -0.496539 -5.339e-22)
(0.79382 -0.482234 0)
(0.77453 -0.480108 0)
(0.735507 -0.493049 -3.52812e-22)
(0.687282 -0.487251 3.4291e-22)
(0.655131 -0.409336 2.03602e-22)
(0.654942 -0.246043 0)
(0.684942 -0.0331652 0)
(0.72788 0.161797 4.15271e-22)
(0.772689 0.301147 -4.03657e-22)
(0.810178 0.372948 0)
(0.835162 0.405999 2.24612e-22)
(0.83375 0.43198 -3.2136e-22)
(0.802743 0.452425 1.00341e-22)
(0.756506 0.441585 0)
(0.7284 0.34031 -2.6166e-22)
(0.725769 0.178661 2.54435e-22)
(0.756761 -0.0279063 0)
(0.79353 -0.176886 0)
(0.831964 -0.282206 -7.88558e-23)
(0.835253 -0.342115 2.16676e-22)
(0.807965 -0.369639 0)
(0.767357 -0.380909 0)
(0.754843 -0.256478 -5.42826e-23)
(0.767317 -0.146835 4.92963e-24)
(0.807001 0.0556603 -3.62533e-24)
(0.814292 0.179942 3.6715e-23)
(0.809999 0.285614 0)
(0.791485 0.387493 0)
(0.796871 0.250791 0)
(0.791492 0.236481 0)
(0.808348 -0.036283 0)
(0.788923 -0.200867 0)
(-0.189213 -0.427423 -6.15376e-22)
(-0.180628 -0.417773 -2.51561e-20)
(-0.163796 -0.390106 3.84549e-22)
(-0.139906 -0.344408 2.32723e-20)
(-0.107553 -0.279702 3.2813e-22)
(-0.0673904 -0.197339 0)
(-0.0196888 -0.0985122 -2.09295e-20)
(0.0330375 0.0116157 4.0619e-20)
(0.0882366 0.13164 -1.96871e-20)
(0.145923 0.249575 1.62961e-20)
(0.204933 0.357481 -1.55866e-20)
(0.262798 0.448111 1.18137e-20)
(0.315788 0.515767 -1.14512e-20)
(0.359484 0.55991 -2.66219e-22)
(0.389191 0.586274 -7.65595e-21)
(0.402237 0.60336 7.44041e-21)
(0.40283 0.61331 -7.21598e-21)
(0.404496 0.603746 6.78483e-21)
(0.424522 0.551449 -8.7701e-21)
(0.471732 0.43906 1.82057e-20)
(0.540491 0.268674 -9.39155e-21)
(0.618581 0.0610428 -6.61199e-22)
(0.694493 -0.149358 -9.39703e-21)
(0.757421 -0.324419 1.7019e-20)
(0.800946 -0.439146 -7.66506e-21)
(0.823911 -0.493735 3.37425e-22)
(0.828835 -0.50633 3.79267e-21)
(0.821751 -0.494962 -5.0016e-22)
(0.808419 -0.474911 -5.45829e-21)
(0.784609 -0.464807 4.94042e-21)
(0.742541 -0.470988 -2.36801e-21)
(0.688588 -0.466607 3.04647e-22)
(0.646719 -0.400096 -2.04005e-22)
(0.636912 -0.251802 4.01488e-22)
(0.660653 -0.0501687 0)
(0.70259 0.140516 0)
(0.75091 0.281491 -1.22378e-21)
(0.795222 0.358674 9.32173e-22)
(0.826303 0.400459 6.57648e-22)
(0.829134 0.436963 8.23143e-23)
(0.802225 0.464979 -9.10515e-22)
(0.761424 0.454357 2.3717e-22)
(0.740492 0.346586 0)
(0.741367 0.175873 0)
(0.773317 -0.0372002 0)
(0.806277 -0.187947 0)
(0.84241 -0.288 3.75714e-22)
(0.843854 -0.33908 -1.40112e-22)
(0.815268 -0.360589 0)
(0.773661 -0.373827 0)
(0.757539 -0.256606 0)
(0.769312 -0.153246 -8.3373e-23)
(0.804182 0.0500422 1.5331e-23)
(0.81082 0.179173 -8.23026e-23)
(0.805668 0.287827 0)
(0.787467 0.388991 0)
(0.796289 0.250138 5.26056e-23)
(0.791993 0.23533 1.65862e-22)
(0.813868 -0.0356321 0)
(0.793442 -0.199411 0)
(-0.149597 -0.432163 -2.18652e-21)
(-0.159885 -0.431196 -4.79278e-20)
(-0.16112 -0.412669 4.32521e-20)
(-0.156477 -0.376828 -4.05146e-20)
(-0.142685 -0.321966 -3.30409e-22)
(-0.118995 -0.248057 0)
(-0.0853242 -0.156705 -3.46928e-20)
(-0.0399845 -0.0518411 3.38781e-20)
(0.0113266 0.0630359 2.68236e-22)
(0.0644242 0.183054 3.82253e-22)
(0.12316 0.293131 3.38542e-22)
(0.1839 0.389843 3.69067e-22)
(0.241638 0.46748 -1.74513e-20)
(0.291529 0.525068 1.72274e-20)
(0.329372 0.566108 0)
(0.354671 0.594714 3.98082e-22)
(0.374128 0.608246 -1.43911e-20)
(0.401243 0.592676 1.42128e-20)
(0.448911 0.528809 0)
(0.519213 0.406507 0)
(0.602863 0.231898 -2.24635e-20)
(0.688459 0.0253 4.41567e-20)
(0.765758 -0.181488 -4.07887e-20)
(0.824081 -0.349361 3.26724e-21)
(0.857971 -0.454834 2.85243e-20)
(0.869271 -0.500054 -2.26888e-20)
(0.863169 -0.505267 1.64286e-20)
(0.846075 -0.489625 -1.76047e-21)
(0.824778 -0.465715 -5.69522e-21)
(0.796988 -0.448786 0)
(0.753246 -0.448085 0)
(0.69522 -0.444531 1.90904e-21)
(0.64439 -0.389647 -2.40848e-21)
(0.624482 -0.257758 -6.22263e-23)
(0.640901 -0.0686387 3.00138e-21)
(0.681072 0.116533 -2.91694e-21)
(0.732214 0.25856 0)
(0.782588 0.341444 2.5843e-22)
(0.819229 0.392638 1.92283e-21)
(0.826412 0.440135 -3.73796e-21)
(0.804254 0.475887 1.63556e-21)
(0.769372 0.466002 2.6251e-22)
(0.755627 0.352835 -3.09495e-21)
(0.760092 0.174566 2.42287e-21)
(0.792759 -0.0441167 6.30143e-22)
(0.821524 -0.196994 5.15891e-22)
(0.854712 -0.292604 -3.76654e-22)
(0.854158 -0.335531 0)
(0.824347 -0.35117 0)
(0.781776 -0.366687 -7.41998e-22)
(0.762012 -0.256834 3.6068e-22)
(0.772967 -0.159681 -3.04504e-22)
(0.803017 0.0443709 4.44289e-22)
(0.808998 0.178341 5.41327e-22)
(0.802682 0.289756 -1.46817e-22)
(0.784418 0.390293 2.44673e-22)
(0.796728 0.249124 -2.29661e-22)
(0.793679 0.233682 1.30533e-22)
(0.820639 -0.0351257 0)
(0.799034 -0.197874 0)
(-0.0407765 -0.418061 -9.27448e-20)
(-0.0690033 -0.424343 8.27446e-21)
(-0.0886586 -0.415081 7.98238e-20)
(-0.105182 -0.390175 -5.90872e-22)
(-0.114025 -0.347477 0)
(-0.112888 -0.285549 0)
(-0.100087 -0.20536 -5.24552e-20)
(-0.0741461 -0.109069 2.3151e-21)
(-0.0334417 -0.0027068 6.89883e-20)
(0.0115431 0.113942 -1.60726e-21)
(0.061694 0.22462 -2.00856e-20)
(0.120429 0.326535 -1.54202e-20)
(0.179271 0.413287 1.54055e-20)
(0.233694 0.482825 0)
(0.280428 0.535776 -1.23182e-20)
(0.320565 0.572321 1.12238e-20)
(0.361296 0.586723 0)
(0.413845 0.565471 0)
(0.485889 0.494383 1.85072e-20)
(0.574385 0.368967 3.12682e-21)
(0.668918 0.196334 -1.98227e-20)
(0.759318 -0.00580865 -2.33688e-20)
(0.8368 -0.206247 2.3366e-20)
(0.890471 -0.366042 -1.75645e-20)
(0.914692 -0.462758 3.72542e-21)
(0.914338 -0.500117 1.28606e-20)
(0.897671 -0.499516 1.04479e-21)
(0.871502 -0.480967 6.73054e-24)
(0.842678 -0.455037 0)
(0.811041 -0.432873 4.09136e-21)
(0.766775 -0.425068 -4.20128e-21)
(0.706838 -0.420739 2.65192e-22)
(0.648426 -0.376817 0)
(0.618192 -0.26262 -3.43595e-22)
(0.626233 -0.0879503 5.12967e-21)
(0.663604 0.0903323 -9.01791e-21)
(0.716661 0.232729 5.35342e-23)
(0.772153 0.321439 3.69909e-22)
(0.813799 0.382382 2.9584e-21)
(0.825425 0.441055 4.04371e-22)
(0.80853 0.484699 -3.82812e-21)
(0.779829 0.476332 3.21691e-21)
(0.773208 0.359209 -3.04395e-23)
(0.781359 0.174901 2.72434e-21)
(0.814623 -0.0485042 -3.28059e-21)
(0.839049 -0.203961 -3.51108e-21)
(0.868711 -0.296131 1.02637e-21)
(0.865968 -0.331649 1.04832e-21)
(0.834943 -0.341456 -1.8367e-21)
(0.791397 -0.359329 1.16711e-21)
(0.767937 -0.256996 -3.09036e-22)
(0.77803 -0.166093 3.38528e-22)
(0.803401 0.0385976 2.52955e-22)
(0.808787 0.177438 -7.50103e-22)
(0.801048 0.291456 -8.16886e-24)
(0.782404 0.391442 -2.48745e-22)
(0.798234 0.247756 0)
(0.79658 0.231531 -1.17149e-22)
(0.828651 -0.0347509 3.5608e-22)
(0.805686 -0.196239 0)
(0.128343 -0.387872 8.81223e-20)
(0.0869415 -0.39737 -1.61832e-19)
(0.0520413 -0.39545 7.31978e-20)
(0.0168811 -0.380204 5.51704e-20)
(-0.0140458 -0.349784 -1.01166e-19)
(-0.0376435 -0.301609 5.15082e-21)
(-0.0507203 -0.235474 4.02145e-20)
(-0.0498087 -0.152802 3.23492e-20)
(-0.0306696 -0.0539632 -3.17373e-20)
(-0.00202752 0.0483567 0)
(0.0347475 0.156766 -2.41155e-20)
(0.0846004 0.260501 4.50904e-20)
(0.139938 0.353386 -2.12124e-20)
(0.196437 0.431578 0)
(0.251436 0.492963 0)
(0.306346 0.534624 3.47903e-22)
(0.367136 0.549093 -2.52895e-20)
(0.441616 0.524516 2.45653e-20)
(0.532532 0.451484 0)
(0.633388 0.329172 4.33814e-20)
(0.734557 0.163334 -8.67565e-20)
(0.828748 -0.0314664 9.00376e-20)
(0.906475 -0.223333 -8.68961e-20)
(0.955001 -0.374102 5.73646e-21)
(0.969613 -0.462382 6.10307e-20)
(0.957972 -0.493584 -2.66806e-20)
(0.931447 -0.489164 -5.27899e-22)
(0.897438 -0.469148 -5.251e-21)
(0.86196 -0.442874 1.03159e-21)
(0.826624 -0.417494 4.32706e-21)
(0.782542 -0.40312 2.28592e-22)
(0.722768 -0.39641 -3.50911e-21)
(0.65886 -0.361773 7.31677e-21)
(0.618503 -0.265473 -4.25386e-21)
(0.617115 -0.107123 0)
(0.650495 0.0625109 -4.44859e-21)
(0.704255 0.204344 4.26304e-21)
(0.763711 0.298695 -2.74456e-21)
(0.809773 0.369382 3.41073e-21)
(0.825899 0.439249 -3.73489e-22)
(0.814651 0.491045 0)
(0.792234 0.485263 -5.33379e-22)
(0.792512 0.365822 1.9644e-21)
(0.804454 0.176921 0)
(0.838406 -0.050283 6.50619e-21)
(0.858572 -0.208674 -2.70249e-21)
(0.884191 -0.298462 8.25153e-22)
(0.87909 -0.327422 5.93507e-22)
(0.846848 -0.331457 0)
(0.802256 -0.35168 0)
(0.77499 -0.257016 -8.147e-22)
(0.784222 -0.172477 1.19623e-21)
(0.805185 0.0326666 -6.4982e-22)
(0.810115 0.176443 1.97866e-22)
(0.800772 0.292973 4.31434e-22)
(0.781495 0.392476 2.48985e-22)
(0.800842 0.246039 -5.05457e-22)
(0.800714 0.228854 0)
(0.837884 -0.0345013 -5.15187e-22)
(0.813374 -0.194483 -1.49955e-22)
(0.332568 -0.347287 8.49439e-20)
(0.289702 -0.35587 -8.42537e-20)
(0.245087 -0.356541 5.20646e-22)
(0.198067 -0.346727 -3.76714e-22)
(0.1509 -0.325296 3.55689e-22)
(0.106958 -0.29077 -2.91204e-22)
(0.0683428 -0.24137 3.22431e-22)
(0.0431453 -0.174832 0)
(0.0330776 -0.093116 -1.72602e-22)
(0.0369758 -0.00422652 1.35532e-22)
(0.0568709 0.0958573 1.13779e-22)
(0.091285 0.196007 -2.69654e-22)
(0.137566 0.290134 0)
(0.19173 0.372563 0)
(0.251426 0.438851 1.51025e-22)
(0.317333 0.483665 0)
(0.393278 0.498622 -2.68401e-22)
(0.483412 0.473763 0)
(0.586389 0.403558 -3.41159e-20)
(0.693981 0.289002 7.39342e-20)
(0.798796 0.133539 -8.3544e-20)
(0.895701 -0.0510391 4.36212e-20)
(0.973162 -0.233132 4.09312e-20)
(1.01625 -0.374102 -3.97417e-20)
(1.02149 -0.454463 -2.7637e-20)
(0.999365 -0.481217 2.66352e-20)
(0.963943 -0.474932 0)
(0.923375 -0.4547 3.82328e-22)
(0.882296 -0.429302 0)
(0.843385 -0.402703 0)
(0.799786 -0.382913 5.57609e-21)
(0.741995 -0.372458 -5.76366e-21)
(0.675161 -0.344665 3.22691e-22)
(0.625746 -0.265711 4.63327e-22)
(0.613987 -0.125283 -3.86402e-22)
(0.641856 0.0337463 -3.19592e-21)
(0.69489 0.173786 3.10338e-21)
(0.756994 0.273239 -3.12379e-21)
(0.806869 0.353359 2.67463e-21)
(0.82749 0.43428 7.28939e-22)
(0.822127 0.494607 -3.92619e-21)
(0.80596 0.492698 -1.66393e-21)
(0.812784 0.372646 3.45912e-21)
(0.828644 0.180751 0)
(0.863524 -0.0493879 -2.89418e-21)
(0.879748 -0.211 2.9914e-21)
(0.900887 -0.299522 -4.02662e-21)
(0.893297 -0.322894 -5.9726e-22)
(0.859843 -0.321192 0)
(0.814107 -0.34362 2.61419e-22)
(0.782868 -0.256796 -5.47744e-22)
(0.791238 -0.178845 -3.65537e-23)