/*--------------------------------*- C++ -*----------------------------------*\
| =========                 |                                                 |
| \\      /  F ield         | OpenFOAM: The Open Source CFD Toolbox           |
|  \\    /   O peration     | Version:  2512                                  |
|   \\  /    A nd           | Website:  www.openfoam.com                      |
|    \\/     M anipulation  |                                                 |
\*---------------------------------------------------------------------------*/
FoamFile
{
    version     2.0;
    format      ascii;
    arch        "LSB;label=32;scalar=64";
    class       volScalarField;
    location    "150";
    object      p;
}
// * * * * * * * * * * * * * * * * * * * * * * * * * * * * * * * * * * * * * //

dimensions      [0 2 -2 0 0 0 0];

internalField   nonuniform List<scalar> 
13248
(
-0.379766
-0.378259
-0.376662
-0.374985
-0.373148
-0.37102
-0.368389
-0.364985
-0.360519
-0.354721
-0.347371
-0.338336
-0.327591
-0.315232
-0.301465
-0.286585
-0.270941
-0.254902
-0.238814
-0.222996
-0.207658
-0.193067
-0.179035
-0.165914
-0.388444
-0.385947
-0.383387
-0.380762
-0.37797
-0.374898
-0.371329
-0.366976
-0.361534
-0.354733
-0.346379
-0.336389
-0.32481
-0.311812
-0.297661
-0.282687
-0.267239
-0.251652
-0.236219
-0.22118
-0.206701
-0.192935
-0.179796
-0.167538
-0.397854
-0.394316
-0.390739
-0.387107
-0.383291
-0.379181
-0.374547
-0.369079
-0.362461
-0.35444
-0.344872
-0.333755
-0.321223
-0.307519
-0.29296
-0.277886
-0.262621
-0.247451
-0.232603
-0.218251
-0.2045
-0.191453
-0.179022
-0.167297
-0.408328
-0.403658
-0.39902
-0.394349
-0.389451
-0.384193
-0.378316
-0.371487
-0.363401
-0.353859
-0.342812
-0.330366
-0.316753
-0.302285
-0.2873
-0.272122
-0.257026
-0.242231
-0.227896
-0.214128
-0.200991
-0.188545
-0.176698
-0.165601
-0.420114
-0.414201
-0.408457
-0.402715
-0.396653
-0.390081
-0.382706
-0.374191
-0.364291
-0.352918
-0.34016
-0.326252
-0.311514
-0.296295
-0.28092
-0.265662
-0.250727
-0.236261
-0.222357
-0.209072
-0.196435
-0.184464
-0.173095
-0.162445
-0.433303
-0.42604
-0.419149
-0.412279
-0.404912
-0.396775
-0.38755
-0.376958
-0.364879
-0.3514
-0.336775
-0.321354
-0.305514
-0.289595
-0.27387
-0.25854
-0.243734
-0.229531
-0.215971
-0.203073
-0.190836
-0.179256
-0.168284
-0.158009
-0.447785
-0.439098
-0.431019
-0.42292
-0.414018
-0.403955
-0.39245
-0.379362
-0.364785
-0.349018
-0.332473
-0.315582
-0.298719
-0.282174
-0.266141
-0.250739
-0.236028
-0.222031
-0.208747
-0.196164
-0.184263
-0.173018
-0.162398
-0.152434
-0.463228
-0.453101
-0.443788
-0.43429
-0.423519
-0.411075
-0.39682
-0.380861
-0.363567
-0.345452
-0.327046
-0.308793
-0.291018
-0.273925
-0.25762
-0.242145
-0.227501
-0.213667
-0.200611
-0.188298
-0.176692
-0.165757
-0.155467
-0.145789
-0.479065
-0.467553
-0.456947
-0.445798
-0.432726
-0.417402
-0.399965
-0.380876
-0.360795
-0.34041
-0.320292
-0.300837
-0.282278
-0.26472
-0.248185
-0.232649
-0.218064
-0.204376
-0.191528
-0.179467
-0.168143
-0.157513
-0.147545
-0.13815
-0.494499
-0.481713
-0.469725
-0.456591
-0.440734
-0.422065
-0.401149
-0.378849
-0.356083
-0.333626
-0.312013
-0.291543
-0.272337
-0.254403
-0.237691
-0.222122
-0.207612
-0.194078
-0.181443
-0.169638
-0.158601
-0.148284
-0.138632
-0.129527
-0.508519
-0.494606
-0.481096
-0.465579
-0.446465
-0.424101
-0.399588
-0.374176
-0.348956
-0.324698
-0.301837
-0.280546
-0.260836
-0.242629
-0.225812
-0.210265
-0.195872
-0.18253
-0.170143
-0.158628
-0.147913
-0.137936
-0.128615
-0.119839
-0.52
-0.505147
-0.489954
-0.471636
-0.448832
-0.422525
-0.394409
-0.366069
-0.338669
-0.312893
-0.289033
-0.267128
-0.247079
-0.228732
-0.211922
-0.196494
-0.182306
-0.169234
-0.157169
-0.146016
-0.135697
-0.126135
-0.117221
-0.108897
-0.349983
-0.351996
-0.353151
-0.353913
-0.354748
-0.355847
-0.357295
-0.359123
-0.36133
-0.363898
-0.366807
-0.370034
-0.373548
-0.377305
-0.381243
-0.385272
-0.389266
-0.393066
-0.396473
-0.399252
-0.401121
-0.401762
-0.400981
-0.399043
-0.343819
-0.34659
-0.348157
-0.349107
-0.349981
-0.350955
-0.352085
-0.353376
-0.354799
-0.356304
-0.357837
-0.359335
-0.360732
-0.361953
-0.36291
-0.363505
-0.363623
-0.363137
-0.361916
-0.359827
-0.35669
-0.352256
-0.346591
-0.340842
-0.338881
-0.342234
-0.344123
-0.34522
-0.346111
-0.346945
-0.347751
-0.348504
-0.349145
-0.349592
-0.349751
-0.349524
-0.348807
-0.347493
-0.345472
-0.342635
-0.338873
-0.334087
-0.328198
-0.321158
-0.312877
-0.303142
-0.292159
-0.281957
-0.335659
-0.339376
-0.34148
-0.342682
-0.343576
-0.34428
-0.34479
-0.345053
-0.344978
-0.344452
-0.343348
-0.341531
-0.338867
-0.335222
-0.330471
-0.324499
-0.31721
-0.308533
-0.298435
-0.286943
-0.274084
-0.259729
-0.244017
-0.229303
-0.334462
-0.338304
-0.340504
-0.341765
-0.342651
-0.343243
-0.343501
-0.343345
-0.342656
-0.341289
-0.339088
-0.335891
-0.331539
-0.325881
-0.318786
-0.310146
-0.299887
-0.287978
-0.274438
-0.259368
-0.242942
-0.225254
-0.206363
-0.188541
-0.335392
-0.339117
-0.34129
-0.342554
-0.343414
-0.343908
-0.343962
-0.343467
-0.342277
-0.340221
-0.337119
-0.332787
-0.32705
-0.31975
-0.31076
-0.299992
-0.287408
-0.27303
-0.256943
-0.239311
-0.220397
-0.20048
-0.179577
-0.157984
-0.338345
-0.341724
-0.343739
-0.344941
-0.345744
-0.346141
-0.346027
-0.345263
-0.343679
-0.341081
-0.337271
-0.332048
-0.32523
-0.316662
-0.306231
-0.293881
-0.279623
-0.263544
-0.245808
-0.226661
-0.206435
-0.185492
-0.164175
-0.142133
-0.343043
-0.34588
-0.347602
-0.348653
-0.349341
-0.349617
-0.349341
-0.348347
-0.346441
-0.343412
-0.339044
-0.33313
-0.325488
-0.315974
-0.304504
-0.291065
-0.27573
-0.258658
-0.240099
-0.22038
-0.199915
-0.178988
-0.158781
-0.136609
-0.349097
-0.35122
-0.35252
-0.353314
-0.353798
-0.353878
-0.353395
-0.352154
-0.349937
-0.346517
-0.341667
-0.335178
-0.326877
-0.316646
-0.304441
-0.290308
-0.274387
-0.256919
-0.238228
-0.218697
-0.198855
-0.178722
-0.160295
-0.139533
-0.35608
-0.357373
-0.358117
-0.358514
-0.358657
-0.358427
-0.357635
-0.356064
-0.353475
-0.349628
-0.344288
-0.337253
-0.328371
-0.317562
-0.304838
-0.29031
-0.274194
-0.2568
-0.238515
-0.219744
-0.201062
-0.18242
-0.165791
-0.147855
-0.363629
-0.364019
-0.36408
-0.363921
-0.363555
-0.362846
-0.361591
-0.359551
-0.356472
-0.3521
-0.346203
-0.338592
-0.329149
-0.317845
-0.304753
-0.290055
-0.274031
-0.257038
-0.239484
-0.221786
-0.20442
-0.187542
-0.172383
-0.157149
-0.371534
-0.37098
-0.370243
-0.369369
-0.368317
-0.366951
-0.365061
-0.362394
-0.358681
-0.353659
-0.347102
-0.338843
-0.328807
-0.317022
-0.303626
-0.288863
-0.273056
-0.25658
-0.239822
-0.223167
-0.206939
-0.19146
-0.177242
-0.163985
-0.395123
-0.387209
-0.374361
-0.356227
-0.333213
-0.306675
-0.278725
-0.252215
-0.229474
-0.213636
-0.206898
-0.210121
-0.222137
-0.239252
-0.255604
-0.26427
-0.259432
-0.238794
-0.205698
-0.168146
-0.134259
-0.108718
-0.0926526
-0.0851482
-0.0847443
-0.0911416
-0.105599
-0.126968
-0.147559
-0.156102
-0.148936
-0.128518
-0.104356
-0.0846214
-0.0725301
-0.0671956
-0.068073
-0.0771164
-0.0935823
-0.108311
-0.109579
-0.0991007
-0.0813094
-0.0659133
-0.0551159
-0.0500554
-0.0516311
-0.056229
-0.0577053
-0.0546282
-0.048206
-0.0429263
-0.0382849
-0.0355635
-0.035472
-0.0353481
-0.031641
-0.0271885
-0.0164974
-0.00289618
-0.334235
-0.325934
-0.314509
-0.299818
-0.282098
-0.262514
-0.242734
-0.225862
-0.212626
-0.206797
-0.209854
-0.221789
-0.240522
-0.261813
-0.279815
-0.28803
-0.281288
-0.257465
-0.2204
-0.178765
-0.141154
-0.112302
-0.0931152
-0.0825428
-0.0791012
-0.0821512
-0.0926119
-0.109986
-0.128122
-0.137227
-0.132276
-0.115805
-0.09566
-0.0794827
-0.0704411
-0.0676817
-0.0711202
-0.0829678
-0.102102
-0.11855
-0.119249
-0.107563
-0.0869338
-0.0686231
-0.0552876
-0.0480999
-0.0474071
-0.0500184
-0.0508887
-0.0484563
-0.0440894
-0.0405448
-0.0381734
-0.0375531
-0.0388899
-0.0397226
-0.0353029
-0.0302221
-0.0180418
-0.00295505
-0.272528
-0.263199
-0.252724
-0.241128
-0.228066
-0.215088
-0.203123
-0.195351
-0.192187
-0.196236
-0.208298
-0.227603
-0.251456
-0.275537
-0.294494
-0.302651
-0.294748
-0.269
-0.229548
-0.185416
-0.145382
-0.114173
-0.0925292
-0.079295
-0.0729889
-0.072805
-0.0793179
-0.0926014
-0.108062
-0.11728
-0.114606
-0.102026
-0.0858568
-0.0732606
-0.0673225
-0.0671936
-0.0732044
-0.0877277
-0.109302
-0.127474
-0.129073
-0.115177
-0.0919251
-0.0708729
-0.0551655
-0.0460553
-0.0433374
-0.044138
-0.0443937
-0.0424071
-0.0398843
-0.0379743
-0.0379565
-0.0395306
-0.0422823
-0.0439977
-0.0388206
-0.0331062
-0.0195267
-0.00302155
-0.217362
-0.206479
-0.196263
-0.187922
-0.178365
-0.170191
-0.165678
-0.165793
-0.171423
-0.183734
-0.202866
-0.227491
-0.25471
-0.280429
-0.299894
-0.308077
-0.299828
-0.273406
-0.233146
-0.188145
-0.147085
-0.11455
-0.0911817
-0.075816
-0.0670067
-0.063838
-0.0666278
-0.0758512
-0.0883822
-0.0972173
-0.0965396
-0.0876439
-0.0752593
-0.0661266
-0.0631987
-0.0656057
-0.074032
-0.09098
-0.114791
-0.134683
-0.136563
-0.121678
-0.096176
-0.0726485
-0.0547833
-0.0439772
-0.0395083
-0.0386969
-0.0383292
-0.0365697
-0.0356534
-0.0352428
-0.0376319
-0.0414738
-0.0456168
-0.0481311
-0.0421539
-0.0358062
-0.0209326
-0.00309269
-0.178998
-0.161712
-0.149465
-0.145801
-0.138377
-0.134467
-0.134844
-0.140796
-0.1526
-0.170607
-0.194362
-0.222182
-0.251153
-0.277517
-0.297068
-0.305293
-0.297209
-0.271222
-0.231704
-0.187468
-0.146758
-0.113847
-0.0894025
-0.0724149
-0.0615326
-0.055799
-0.0552206
-0.0605109
-0.0699176
-0.0778816
-0.0787117
-0.0730932
-0.0641489
-0.058222
-0.0580633
-0.0627923
-0.0733766
-0.0924548
-0.118314
-0.139904
-0.142239
-0.126919
-0.0996132
-0.0739644
-0.0541921
-0.0419148
-0.0359655
-0.0337558
-0.0327776
-0.0310309
-0.0314588
-0.0323777
-0.0371934
-0.0433549
-0.0488549
-0.052074
-0.0452586
-0.0382875
-0.0222413
-0.00316553
-0.148882
-0.131371
-0.12049
-0.113725
-0.109066
-0.108229
-0.112199
-0.121665
-0.136942
-0.157964
-0.183902
-0.212939
-0.242285
-0.268477
-0.28767
-0.295785
-0.288152
-0.263442
-0.225984
-0.18397
-0.14483
-0.112421
-0.0874943
-0.0693307
-0.0567839
-0.0489191
-0.0455205
-0.0472062
-0.0533702
-0.0600417
-0.0631452
-0.0588057
-0.0528125
-0.049706
-0.0519725
-0.0587424
-0.0711774
-0.0920298
-0.11968
-0.142972
-0.146316
-0.130809
-0.102173
-0.0748293
-0.0534315
-0.0398986
-0.0327244
-0.0293376
-0.0277933
-0.025865
-0.0273564
-0.0294069
-0.0366287
-0.045135
-0.0519545
-0.0557753
-0.0480924
-0.0405179
-0.0234324
-0.00323569
-0.133432
-0.119156
-0.103969
-0.0956359
-0.091664
-0.092181
-0.0976074
-0.108432
-0.124853
-0.146566
-0.1726
-0.201189
-0.229772
-0.255327
-0.27351
-0.281133
-0.274075
-0.251342
-0.217032
-0.178383
-0.141773
-0.110589
-0.0857014
-0.0667503
-0.0528924
-0.0432855
-0.0375704
-0.036174
-0.0391674
-0.0440222
-0.0470529
-0.0449888
-0.0415867
-0.0408239
-0.0451021
-0.053571
-0.06746
-0.0896583
-0.118785
-0.143862
-0.150056
-0.133262
-0.103793
-0.0752425
-0.0525271
-0.0379462
-0.0297746
-0.0254234
-0.0233938
-0.0211083
-0.0233992
-0.0263592
-0.0359203
-0.0467661
-0.0548729
-0.0591884
-0.0506175
-0.0424703
-0.0244882
-0.00329706
-0.128241
-0.113213
-0.0981733
-0.0885803
-0.0843727
-0.0847742
-0.0900102
-0.10046
-0.1162
-0.136815
-0.161331
-0.188079
-0.214804
-0.239984
-0.255796
-0.262636
-0.2563
-0.236152
-0.205814
-0.171318
-0.137896
-0.108482
-0.084081
-0.064703
-0.04986
-0.0388732
-0.0313094
-0.0273853
-0.0274828
-0.030269
-0.0327786
-0.0322154
-0.0308659
-0.0318886
-0.0376929
-0.047447
-0.0623664
-0.0854276
-0.115644
-0.142489
-0.153647
-0.134089
-0.104428
-0.0752068
-0.0515025
-0.0360708
-0.0271056
-0.0219791
-0.0195572
-0.0168387
-0.0196382
-0.023266
-0.0350459
-0.0481963
-0.0575641
-0.0622683
-0.0528042
-0.0441238
-0.0254001
-0.0033435
-0.131647
-0.116757
-0.102037
-0.0909208
-0.0855359
-0.0845516
-0.0882135
-0.0968814
-0.110537
-0.128723
-0.150504
-0.174238
-0.197628
-0.217534
-0.234819
-0.241358
-0.23614
-0.219128
-0.193294
-0.163369
-0.133493
-0.106217
-0.0826838
-0.0632288
-0.0477102
-0.0356728
-0.0266744
-0.0207539
-0.0183443
-0.0189966
-0.0206673
-0.0209208
-0.0209864
-0.0232139
-0.0300301
-0.0406011
-0.0560223
-0.0794587
-0.110443
-0.138577
-0.149578
-0.133075
-0.10413
-0.0748118
-0.0504602
-0.0343278
-0.0247306
-0.0189965
-0.0162718
-0.0130696
-0.0161116
-0.020158
-0.0339774
-0.0493728
-0.0599833
-0.0649761
-0.054628
-0.0454633
-0.0261671
-0.00337222
-0.140698
-0.129071
-0.112676
-0.100126
-0.0928265
-0.0896531
-0.0907406
-0.0966165
-0.107159
-0.12196
-0.140192
-0.160411
-0.180618
-0.198637
-0.212903
-0.218974
-0.215335
-0.201864
-0.180777
-0.155548
-0.129366
-0.104465
-0.0821025
-0.0628683
-0.0469119
-0.0340411
-0.0238885
-0.0163667
-0.011835
-0.0103856
-0.0109089
-0.0116122
-0.0121763
-0.0150538
-0.0223626
-0.0333013
-0.0488506
-0.0721912
-0.103373
-0.132455
-0.143966
-0.130563
-0.103057
-0.0742305
-0.049588
-0.0328373
-0.0226664
-0.016449
-0.013572
-0.00982424
-0.0128329
-0.0170688
-0.0326955
-0.0502374
-0.0620842
-0.0672675
-0.0560664
-0.0464752
-0.026774
-0.00337907
-0.149516
-0.137632
-0.123449
-0.111273
-0.102576
-0.0975153
-0.0958287
-0.0983328
-0.105092
-0.115927
-0.130242
-0.146763
-0.164038
-0.179355
-0.190688
-0.196531
-0.194802
-0.185133
-0.168882
-0.148372
-0.125967
-0.103598
-0.0825995
-0.0637859
-0.047552
-0.0339702
-0.0228506
-0.0140394
-0.00772816
-0.00427239
-0.0034572
-0.00375484
-0.00465336
-0.00772904
-0.0149844
-0.0257019
-0.0407249
-0.0636007
-0.0951433
-0.124814
-0.136835
-0.126551
-0.100974
-0.0732045
-0.048683
-0.0315003
-0.0207797
-0.014138
-0.0113081
-0.00718667
-0.00989567
-0.0140118
-0.031127
-0.0507641
-0.0638335
-0.0690678
-0.0570711
-0.0471381
-0.0271635
-0.00333655
-0.155741
-0.145713
-0.134251
-0.12268
-0.112961
-0.106244
-0.102752
-0.102339
-0.10528
-0.111725
-0.121255
-0.1332
-0.146812
-0.159315
-0.168413
-0.173266
-0.172891
-0.166415
-0.154341
-0.138029
-0.119159
-0.0993877
-0.0800579
-0.0621438
-0.0461958
-0.0324433
-0.0209014
-0.0114537
-0.00402738
0.00104269
0.00312046
0.00309446
0.00175906
-0.00140049
-0.00835207
-0.0186402
-0.0328901
-0.0546799
-0.0854888
-0.115059
-0.127647
-0.1201
-0.0968508
-0.070437
-0.046507
-0.0295009
-0.0185993
-0.0117199
-0.00892606
-0.00467691
-0.00718578
-0.0111652
-0.0293441
-0.0508386
-0.0651467
-0.0703979
-0.0575715
-0.0474292
-0.0272706
-0.00319116
-0.151647
-0.146327
-0.136159
-0.12526
-0.116223
-0.109752
-0.105822
-0.10445
-0.106061
-0.11081
-0.11839
-0.128166
-0.139022
-0.148759
-0.15614
-0.159825
-0.158662
-0.152178
-0.140876
-0.125905
-0.108676
-0.0905915
-0.0727906
-0.0561178
-0.0410669
-0.0278527
-0.0165288
-0.00704361
0.00071205
0.00657002
0.00980344
0.0105848
0.00999228
0.00625536
8.5028e-05
-0.00901999
-0.0222732
-0.0439569
-0.0765371
-0.10903
-0.123784
-0.116208
-0.0924258
-0.0663838
-0.0430136
-0.0266193
-0.0161144
-0.00936782
-0.00637705
-0.00151559
-0.00369023
-0.00743814
-0.026819
-0.0506922
-0.0664046
-0.071805
-0.057771
-0.0473871
-0.0271626
-0.00298732
-0.147759
-0.144139
-0.134886
-0.124827
-0.116636
-0.11078
-0.107082
-0.105554
-0.106435
-0.1098
-0.115382
-0.122565
-0.130102
-0.137239
-0.14238
-0.144298
-0.142225
-0.135923
-0.125765
-0.112604
-0.097502
-0.0815385
-0.0656237
-0.0504783
-0.036557
-0.0240889
-0.0132131
-0.00393338
0.00390387
0.0101799
0.0139994
0.0150516
0.0137721
0.0112169
0.00608742
-0.00176641
-0.0138879
-0.0350411
-0.0683445
-0.101833
-0.116405
-0.108698
-0.085785
-0.0612072
-0.039322
-0.0238719
-0.0137563
-0.00720966
-0.00423301
0.000700331
-0.00136264
-0.00463421
-0.0247244
-0.0505022
-0.0671262
-0.0723886
-0.057429
-0.046791
-0.0268046
-0.00287163
-0.141731
-0.139485
-0.131754
-0.122857
-0.115549
-0.110384
-0.107102
-0.105539
-0.105752
-0.107766
-0.111385
-0.116147
-0.121263
-0.125922
-0.128985
-0.129574
-0.127115
-0.121366
-0.112502
-0.101079
-0.0878679
-0.0737181
-0.0593914
-0.0455279
-0.0325726
-0.0207713
-0.0102879
-0.00120019
0.00657861
0.0130154
0.0172677
0.0188016
0.0178636
0.0155708
0.0110969
0.00396049
-0.0076264
-0.0282682
-0.0604695
-0.0925967
-0.10688
-0.0997915
-0.078455
-0.0557404
-0.035496
-0.0210478
-0.0114209
-0.00510365
-0.00218442
0.00272545
0.00058216
-0.00251113
-0.0231084
-0.0501521
-0.0672311
-0.0722897
-0.0566227
-0.045764
-0.0262616
-0.00279919
-0.13348
-0.133351
-0.12747
-0.119831
-0.113365
-0.10879
-0.105817
-0.104149
-0.103741
-0.104617
-0.10667
-0.109564
-0.112706
-0.115431
-0.116972
-0.116642
-0.113928
-0.108581
-0.100675
-0.0905991
-0.0789317
-0.0663434
-0.0534567
-0.0408139
-0.0288207
-0.0177244
-0.00769471
0.00113901
0.00876705
0.0152266
0.019834
0.0219559
0.0215721
0.019795
0.0160854
0.00957384
-0.00158106
-0.0212496
-0.0513775
-0.0820892
-0.0963041
-0.0898765
-0.070404
-0.0497984
-0.0314241
-0.0181472
-0.00911354
-0.00304278
-0.000203803
0.00464633
0.00241043
-0.000598535
-0.0213949
-0.0492258
-0.0666685
-0.0715323
-0.0553449
-0.0443158
-0.0254812
-0.00274679
-0.124782
-0.126357
-0.122113
-0.115698
-0.110034
-0.105966
-0.103244
-0.101522
-0.100685
-0.100736
-0.101599
-0.103056
-0.104671
-0.105951
-0.106312
-0.105209
-0.102226
-0.0971558
-0.0900251
-0.0810947
-0.0707782
-0.0595811
-0.0479985
-0.0364841
-0.0254037
-0.0150071
-0.00546821
0.00306838
0.0105034
0.0168847
0.0216911
0.0243415
0.0246549
0.023692
0.0210083
0.0154295
0.00514019
-0.0131725
-0.0413899
-0.070765
-0.0844956
-0.0790077
-0.0617549
-0.0435276
-0.0271933
-0.0152081
-0.00685061
-0.00103752
0.00170632
0.00641553
0.0041237
0.00129547
-0.0192451
-0.0475323
-0.0653097
-0.0699499
-0.0535248
-0.0424151
-0.0244391
-0.002703
-0.116021
-0.118583
-0.115726
-0.110504
-0.105641
-0.102062
-0.0996031
-0.0979084
-0.0968102
-0.0962836
-0.0962919
-0.0966575
-0.0971193
-0.0972852
-0.0967161
-0.0950031
-0.0918267
-0.0870097
-0.0805382
-0.0725734
-0.0634041
-0.0534106
-0.0429875
-0.0325124
-0.0223052
-0.0126063
-0.00359454
0.00459227
0.0117973
0.0180368
0.0229178
0.0260137
0.0270029
0.0269941
0.0255773
0.0213345
0.0122578
-0.00481106
-0.0312659
-0.0588609
-0.071791
-0.0674738
-0.0527554
-0.0370759
-0.0228677
-0.0122561
-0.0046468
0.000895364
0.00354086
0.00803385
0.00571952
0.00316448
-0.0166368
-0.0449571
-0.0629347
-0.0673825
-0.0511088
-0.0400606
-0.0231147
-0.00265234
-0.10693
-0.110226
-0.108575
-0.104462
-0.100377
-0.0972822
-0.0950974
-0.0934841
-0.0922444
-0.0913332
-0.0907297
-0.0903314
-0.0899433
-0.0892847
-0.0880366
-0.0858933
-0.0826036
-0.0780149
-0.072092
-0.0649341
-0.0567437
-0.0478041
-0.0384233
-0.0289097
-0.0195372
-0.0105267
-0.00206355
0.0057256
0.0126631
0.0187265
0.0236039
0.0270628
0.0286032
0.0294822
0.0293874
0.026714
0.0189528
0.00300315
-0.0215055
-0.0467674
-0.0586744
-0.055648
-0.043676
-0.0306158
-0.0185333
-0.00932379
-0.00251477
0.00274291
0.00530486
0.00951777
0.00720782
0.0049481
-0.0136074
-0.0413522
-0.0593497
-0.0637341
-0.0480742
-0.0372746
-0.0214992
-0.00257808
-0.0977954
-0.10164
-0.100953
-0.0978017
-0.0944359
-0.0918078
-0.0899004
-0.0884093
-0.0871275
-0.0859928
-0.084992
-0.0840682
-0.0830902
-0.0818611
-0.080147
-0.0777175
-0.074378
-0.070004
-0.0645555
-0.0580914
-0.0507508
-0.0427401
-0.0342963
-0.0256688
-0.0170903
-0.00875659
-0.000853
0.00650098
0.0131322
0.0189912
0.0237956
0.0272793
0.0294726
0.0310625
0.0320585
0.0308398
0.0243917
0.0097246
-0.0124638
-0.0348386
-0.045551
-0.0439619
-0.0348173
-0.0243321
-0.0142846
-0.00644427
-0.000460463
0.004498
0.00700657
0.0108884
0.00861856
0.00663842
-0.0101332
-0.0366135
-0.0544485
-0.0589539
-0.0444318
-0.0341056
-0.0195998
-0.00246386
-0.0889484
-0.0930359
-0.0930603
-0.0907196
-0.088003
-0.0858146
-0.0841845
-0.0828465
-0.0815958
-0.0803599
-0.0791294
-0.0778779
-0.0765218
-0.074923
-0.0729115
-0.070317
-0.0669927
-0.0628404
-0.0578206
-0.0519655
-0.0453689
-0.038181
-0.0305824
-0.0227727
-0.0149479
-0.00727711
6.34795e-05
0.00695786
0.0132467
0.0188696
0.0235779
0.0271971
0.0297099
0.0317383
0.0333961
0.0331928
0.0279724
0.015004
-0.00432128
-0.0234161
-0.0329858
-0.0329049
-0.0264786
-0.0183976
-0.0102177
-0.00365511
0.00151343
0.00615977
0.00865415
0.0121787
0.0100206
0.00829989
-0.00619945
-0.030766
-0.0482427
-0.0530815
-0.0402368
-0.0306287
-0.0174441
-0.00229591
-0.0804008
-0.0845258
-0.085072
-0.0834044
-0.0812579
-0.0794726
-0.0781107
-0.0769428
-0.0757746
-0.0745292
-0.0731982
-0.0717724
-0.0702015
-0.0683916
-0.0662218
-0.0635684
-0.0603215
-0.0564048
-0.0517827
-0.046472
-0.040536
-0.0340836
-0.0272522
-0.0201988
-0.0130871
-0.00606178
0.000717295
0.00713802
0.0130538
0.0184045
0.0229775
0.0266466
0.0293606
0.0316049
0.0335008
0.0337756
0.0296456
0.0187907
0.00274526
-0.0130557
-0.0216473
-0.0229534
-0.0189152
-0.0129508
-0.00641931
-0.000999573
0.00340012
0.00773048
0.0102542
0.0134403
0.0115143
0.0100262
-0.0018755
-0.0239976
-0.0409065
-0.0462764
-0.0355947
-0.0269432
-0.0150826
-0.00206531
-0.0721789
-0.0762372
-0.0771512
-0.0760226
-0.0743607
-0.0729338
-0.0718232
-0.0708326
-0.0697812
-0.068591
-0.0672529
-0.0657678
-0.0641083
-0.0622131
-0.0599975
-0.0573718
-0.0542551
-0.0505894
-0.0463454
-0.0415317
-0.0361913
-0.0304032
-0.0242711
-0.0179182
-0.0114794
-0.00507837
0.00114431
0.00708399
0.0126059
0.0176501
0.0220367
0.0256656
0.0284765
0.0307831
0.0326437
0.033031
0.02983
0.0211818
0.00838235
-0.00442228
-0.012106
-0.0144381
-0.0122899
-0.00808009
-0.00295586
0.00147805
0.00518371
0.00920392
0.0117969
0.0147307
0.0131947
0.0119051
0.00268218
-0.0166757
-0.0328098
-0.0388304
-0.0306572
-0.023164
-0.0125907
-0.00177033
-0.0643738
-0.0682683
-0.0694151
-0.0687069
-0.0674493
-0.0663345
-0.0654528
-0.0646368
-0.0637212
-0.0626296
-0.0613502
-0.0598896
-0.0582362
-0.0563512
-0.0541757
-0.0516456
-0.0487022
-0.0453029
-0.041425
-0.0370729
-0.0322762
-0.0270928
-0.0216013
-0.015898
-0.0100933
-0.00429162
0.00138483
0.00684
0.0119546
0.0166643
0.0208165
0.0243276
0.0271357
0.0293975
0.0310949
0.0314428
0.0289754
0.0222804
0.0123308
0.00212935
-0.00459753
-0.00746299
-0.00665804
-0.00382391
0.00013056
0.00373943
0.00684478
0.0105597
0.0132357
0.0160669
0.0151029
0.0140046
0.0072467
-0.00933376
-0.0244954
-0.031146
-0.0256086
-0.0194093
-0.0100685
-0.00141979
-0.0570142
-0.0606738
-0.061952
-0.061567
-0.0606415
-0.0597927
-0.059114
-0.058463
-0.0576904
-0.0567223
-0.0555448
-0.0541669
-0.0525869
-0.0507812
-0.0487093
-0.0463262
-0.0435898
-0.0404695
-0.0369485
-0.0330298
-0.0287346
-0.0241059
-0.0192035
-0.0141032
-0.00889435
-0.00366511
0.00148016
0.00645411
0.0111511
0.0155044
0.0193872
0.0227223
0.0254387
0.0275821
0.0290787
0.029353
0.0274317
0.0223201
0.0147312
0.0067387
0.00101821
-0.00194566
-0.0019923
-0.000182208
0.00282125
0.00575421
0.00836466
0.0117737
0.0144958
0.0173687
0.0171562
0.0163034
0.0115168
-0.0025829
-0.0165768
-0.0236683
-0.0206441
-0.015788
-0.00763149
-0.0010358
-0.0501109
-0.0534985
-0.054832
-0.0546889
-0.0540312
-0.0534048
-0.0529018
-0.0524011
-0.0517695
-0.0509362
-0.0498863
-0.0486287
-0.0471671
-0.0454882
-0.0435648
-0.041365
-0.0388591
-0.0360258
-0.0328532
-0.0293442
-0.0255148
-0.0213977
-0.0170389
-0.0124983
-0.0078478
-0.00316216
0.00147082
0.00597271
0.0102491
0.0142346
0.0178223
0.0209359
0.0234965
0.0254815
0.0267876
0.0270084
0.0255097
0.0216521
0.0159517
0.00979575
0.00507535
0.00230394
0.00178231
0.00286812
0.00511676
0.00750126
0.00972069
0.0128223
0.0155206
0.0184758
0.019066
0.0185403
0.0150893
0.00305077
-0.00956763
-0.0167851
-0.0159435
-0.0123926
-0.00539626
-0.000651404
-0.0436786
-0.0467707
-0.0481007
-0.0481332
-0.0476887
-0.0472455
-0.0468915
-0.0465236
-0.0460245
-0.0453276
-0.044418
-0.0433021
-0.0419866
-0.0404649
-0.0387185
-0.0367252
-0.0344639
-0.03192
-0.0290861
-0.0259653
-0.0225701
-0.0189264
-0.0150698
-0.0110483
-0.00691971
-0.00274713
0.00139601
0.00544001
0.00930088
0.0129159
0.0161921
0.0190554
0.0214234
0.0232381
0.0243876
0.0245935
0.0234524
0.0205869
0.016366
0.011703
0.00791695
0.0054933
0.00476181
0.00536367
0.0070302
0.00897097
0.0108847
0.0136705
0.0162816
0.0192318
0.020461
0.0202311
0.0175332
0.00727248
-0.0037635
-0.0107608
-0.0116523
-0.00930006
-0.00346489
-0.000302738
-0.0377089
-0.0404986
-0.041786
-0.041943
-0.0416663
-0.041372
-0.0411422
-0.0408893
-0.0405082
-0.0399421
-0.0391757
-0.038212
-0.0370567
-0.0357081
-0.0341541
-0.0323789
-0.0303676
-0.0281106
-0.0256033
-0.0228496
-0.0198596
-0.0166543
-0.0132617
-0.00972082
-0.00607799
-0.00238656
0.00129178
0.00489601
0.0083531
0.0116042
0.0145647
0.0171656
0.0193254
0.0209758
0.0220081
0.0222379
0.0214145
0.0193348
0.016259
0.0127882
0.00983101
0.00781778
0.00704944
0.00734981
0.00858093
0.0101619
0.0118291
0.01428
0.0167384
0.019523
0.0210653
0.0209782
0.0186494
0.0100725
0.000731863
-0.00576124
-0.00787545
-0.00657075
-0.00190648
-1.95122e-05
-0.0321907
-0.0346858
-0.0359052
-0.0361466
-0.0359998
-0.0358246
-0.035696
-0.0355403
-0.0352651
-0.0348197
-0.034191
-0.0333789
-0.0323875
-0.031217
-0.0298601
-0.0283055
-0.0265424
-0.0245644
-0.0223691
-0.0199608
-0.0173481
-0.0145483
-0.0115837
-0.00848637
-0.00529377
-0.00205081
0.00119059
0.00437797
0.00744809
0.0103462
0.0129969
0.0153374
0.0172915
0.0187916
0.0197407
0.020022
0.01948
0.0180221
0.0158268
0.0133001
0.0110536
0.00945231
0.00874797
0.00887755
0.00979185
0.0110781
0.012533
0.0146334
0.0168697
0.0193248
0.0208513
0.0207651
0.0186264
0.0116529
0.00394758
-0.00190655
-0.00467937
-0.00423968
-0.000732258
0.000184518
-0.0271164
-0.0293282
-0.0304625
-0.0307573
-0.0307098
-0.0306286
-0.0305812
-0.030506
-0.0303228
-0.0299864
-0.0294863
-0.0288194
-0.0279876
-0.0269922
-0.0258291
-0.0244901
-0.022967
-0.0212557
-0.0193551
-0.0172696
-0.0150065
-0.0125804
-0.0100094
-0.00731979
-0.00454222
-0.00171437
0.0011208
0.00391765
0.00662125
0.00918277
0.0115371
0.0136327
0.015388
0.0167534
0.0176439
0.0179894
0.0176916
0.0167243
0.0152088
0.0134206
0.0117646
0.0105407
0.00995334
0.0100007
0.0106888
0.0117302
0.0129916
0.0147426
0.0166972
0.0187211
0.0200182
0.0198616
0.0178636
0.012308
0.00603946
0.00093044
-0.00208022
-0.00233137
0.000103465
0.000316904
-0.0224666
-0.0244114
-0.0254519
-0.0257778
-0.0258057
-0.0257984
-0.0258156
-0.0258062
-0.0257003
-0.0254557
-0.0250759
-0.0245442
-0.023863
-0.0230342
-0.0220554
-0.0209213
-0.0196255
-0.0181649
-0.0165393
-0.0147527
-0.0128116
-0.0107283
-0.00851732
-0.00620058
-0.00380304
-0.00135599
0.00110418
0.00353843
0.00590044
0.00814714
0.0102218
0.0120831
0.0136566
0.0149032
0.0157512
0.0161615
0.0160702
0.0154856
0.01449
0.0132805
0.0121013
0.0112049
0.0107525
0.0107724
0.0113015
0.0121381
0.0132165
0.0146352
0.0162675
0.0178426
0.0188217
0.0185751
0.0167259
0.0123392
0.00725856
0.0029627
-5.32509e-05
-0.000834473
0.000674467
0.000398856
-0.0182182
-0.0199178
-0.0208629
-0.021204
-0.0212886
-0.0213395
-0.0214089
-0.0214557
-0.0214217
-0.021272
-0.0209794
-0.0205627
-0.0200176
-0.0193421
-0.0185343
-0.0175904
-0.0165054
-0.0152769
-0.0139047
-0.0123923
-0.0107455
-0.00897428
-0.00709078
-0.0051129
-0.00306108
-0.000961485
0.00115583
0.00325816
0.00530532
0.00726064
0.00907647
0.0107181
0.0121247
0.0132657
0.0140784
0.0145435
0.0146191
0.0143302
0.0137322
0.0129757
0.0121652
0.01154
0.0112217
0.0112451
0.0116633
0.0123296
0.0132301
0.0143459
0.0156468
0.0168122
0.0174674
0.0171338
0.0154538
0.0119935
0.00785953
0.0042989
0.00145418
0.00029929
0.00105524
0.000452419
-0.0143518
-0.0158285
-0.0166797
-0.0170242
-0.0171502
-0.0172448
-0.0173532
-0.017441
-0.0174591
-0.0173734
-0.0171731
-0.0168648
-0.0164455
-0.0159114
-0.0152602
-0.0144901
-0.0135975
-0.0125805
-0.0114388
-0.0101755
-0.00879504
-0.00730597
-0.00571811
-0.00404613
-0.0023067
-0.000521304
0.00128514
0.00308551
0.00484665
0.00653755
0.00811633
0.00955382
0.0108048
0.0118495
0.0126277
0.0131324
0.0133346
0.0132652
0.0129661
0.012596
0.0120258
0.0116205
0.0114257
0.011469
0.0118087
0.0123339
0.0130654
0.0139161
0.014902
0.0157031
0.0160863
0.0156822
0.0141794
0.0114401
0.00805347
0.00510926
0.00252324
0.00110107
0.00130469
0.000491368
-0.0108456
-0.0121217
-0.012883
-0.0132231
-0.0133789
-0.0135064
-0.0136443
-0.0137643
-0.0138258
-0.013801
-0.0136801
-0.0134601
-0.013148
-0.0127388
-0.0122282
-0.011614
-0.0108942
-0.0100673
-0.00913279
-0.00809296
-0.00695151
-0.00571525
-0.00439223
-0.00299422
-0.00153479
-3.14515e-05
0.00149574
0.00302419
0.00452652
0.00597823
0.00734376
0.00859823
0.00971108
0.0106525
0.0113912
0.0119179
0.0122083
0.0122903
0.0121718
0.0118859
0.0116986
0.0115042
0.011422
0.0114911
0.011773
0.0121823
0.0127581
0.0133848
0.0140916
0.0146055
0.01476
0.0143038
0.0129691
0.0107846
0.00799201
0.00553891
0.00325464
0.00173242
0.00147177
0.000521628
-0.0076766
-0.00877442
-0.00945219
-0.00978271
-0.00995963
-0.0101116
-0.0102713
-0.010416
-0.0105118
-0.0105356
-0.0104777
-0.0103377
-0.0101175
-0.00981733
-0.00943139
-0.00895605
-0.00838952
-0.00773106
-0.00698037
-0.006139
-0.0052097
-0.00419788
-0.00310996
-0.00195535
-0.000744909
0.000507399
0.0017852
0.00307043
0.00434101
0.00557615
0.00674832
0.0078378
0.00881271
0.00966137
0.0103529
0.0108858
0.0112358
0.0114285
0.0114721
0.011402
0.0113264
0.0112621
0.0112638
0.011355
0.0115917
0.0119061
0.012343
0.0127847
0.0132578
0.0135492
0.0135281
0.0130397
0.0118543
0.0100907
0.00777694
0.00569967
0.00368429
0.00217562
0.0015781
0.000549591
-0.00482324
-0.00576427
-0.00636577
-0.00668388
-0.00687527
-0.00704513
-0.00722078
-0.00738402
-0.00750694
-0.00757033
-0.00756585
-0.00749098
-0.00734676
-0.0071406
-0.00686321
-0.00650982
-0.00607797
-0.00556719
-0.00497755
-0.00431024
-0.00356726
-0.00275271
-0.00187165
-0.000931417
5.94128e-05
0.00108984
0.00214686
0.0032161
0.00427972
0.00532135
0.00631908
0.00725713
0.00810951
0.00886499
0.00950166
0.0100218
0.0104041
0.0106654
0.0108021
0.010877
0.0109071
0.0109335
0.0109938
0.0110999
0.0112986
0.0115357
0.0118529
0.0121453
0.0124299
0.0125522
0.0124051
0.0119022
0.0108466
0.00939676
0.00747567
0.00569266
0.00394772
0.00246863
0.00163863
0.000563185
-0.00226481
-0.0030691
-0.00360198
-0.00390621
-0.00410719
-0.00428994
-0.00447699
-0.00465393
-0.00479826
-0.00489427
-0.00493517
-0.00491938
-0.00484707
-0.00471195
-0.00452192
-0.00427092
-0.00395473
-0.00357172
-0.00312158
-0.00260517
-0.00202405
-0.00138118
-0.000680398
7.26777e-05
0.000871401
0.0017073
0.0025702
0.0034488
0.0043291
0.00519825
0.0060388
0.00683823
0.00757679
0.0082459
0.00882681
0.0093171
0.00970529
0.0100045