/*--------------------------------*- C++ -*----------------------------------*\
| =========                 |                                                 |
| \\      /  F ield         | OpenFOAM: The Open Source CFD Toolbox           |
|  \\    /   O peration     | Version:  2512                                  |
|   \\  /    A nd           | Website:  www.openfoam.com                      |
|    \\/     M anipulation  |                                                 |
\*---------------------------------------------------------------------------*/
FoamFile
{
    version     2.0;
    format      ascii;
    arch        "LSB;label=32;scalar=64";
    class       surfaceScalarField;
    location    "150";
    object      phi;
}
// * * * * * * * * * * * * * * * * * * * * * * * * * * * * * * * * * * * * * //

dimensions      [0 3 -1 0 0 0 0];

oriented        oriented;

internalField   nonuniform List<scalar> 
26232
(
9.50161e-05
0.000815438
-0.000910454
0.000471967
0.00122377
-0.00160072
0.00126414
0.00060731
-0.00139949
0.00262508
-0.000941678
-0.000419256
0.00471765
-0.00336997
0.0012774
0.00770275
-0.00664501
0.00365992
0.0117255
-0.0107385
0.0067157
0.0168991
-0.0156087
0.0104351
0.0232874
-0.021185
0.0147966
0.0308911
-0.0273591
0.0197554
0.0396381
-0.033984
0.0252369
0.0493841
-0.040882
0.031136
0.0599217
-0.0478596
0.037322
0.0709982
-0.0547243
0.0436478
0.0823395
-0.0613034
0.0499621
0.093675
-0.0674574
0.0561219
0.104762
-0.0730909
0.062004
0.115405
-0.0781564
0.0675137
0.125468
-0.0826516
0.0725886
0.134881
-0.0866203
0.0772067
0.143633
-0.0901194
0.0813681
0.151779
-0.093281
0.0851347
0.159339
-0.0960952
0.0885355
-0.0988972
0.091941
0.166295
0.000160335
0.000655102
0.000763761
0.000620342
0.00196517
-0.000594098
0.00393316
-0.00290967
0.0068384
-0.00627521
0.0108363
-0.0106429
0.0160447
-0.0159469
0.0225206
-0.0220846
0.0302403
-0.0289047
0.0390889
-0.0362077
0.0488634
-0.0437584
0.0592899
-0.0513086
0.0700524
-0.058622
0.080827
-0.065499
0.0913171
-0.0717935
0.101283
-0.0774229
0.11056
-0.0823684
0.119072
-0.0866678
0.126823
-0.0904027
0.133887
-0.0936848
0.140398
-0.0966308
0.146505
-0.0993877
0.152384
-0.101974
-0.104758
0.158244
0.00022858
0.000426522
0.00107293
-0.000224009
0.00271332
-0.00223449
0.0053313
-0.00552765
0.00909359
-0.0100375
0.0141252
-0.0156745
0.0204788
-0.0223005
0.0281086
-0.0297143
0.0368576
-0.0376537
0.046465
-0.0458151
0.0565936
-0.053887
0.0668714
-0.0615864
0.0769393
-0.0686899
0.0864941
-0.0750538
0.0953208
-0.0806201
0.103308
-0.0854103
0.110448
-0.0895088
0.116822
-0.0930413
0.122571
-0.096152
0.127871
-0.0989846
0.132904
-0.101663
0.137818
-0.104302
0.142771
-0.106926
-0.10978
0.147792
0.000309227
0.000117296
0.00142429
-0.00133908
0.00354557
-0.00435576
0.00685544
-0.00883751
0.011492
-0.014674
0.0175114
-0.0216939
0.024854
-0.0296432
0.0333281
-0.0381885
0.042621
-0.0469465
0.0523377
-0.0555318
0.0620585
-0.0636078
0.0713994
-0.0709273
0.0800628
-0.0773533
0.0878686
-0.0828596
0.0947616
-0.0875131
0.100797
-0.0914456
0.106111
-0.0948226
0.110883
-0.0978139
0.115304
-0.100572
0.119542
-0.103223
0.123735
-0.105856
0.127974
-0.108541
0.132332
-0.111284
-0.114254
0.136806
0.000408354
-0.000291058
0.00183132
-0.00276204
0.00447385
-0.0069983
0.00849471
-0.0128584
0.0139657
-0.0201451
0.0208281
-0.0285563
0.0288684
-0.0376835
0.0377315
-0.0470516
0.0469709
-0.0561858
0.0561221
-0.064683
0.0647787
-0.0722645
0.0726497
-0.0787982
0.0795864
-0.0842901
0.08558
-0.0888532
0.0907322
-0.0926652
0.0952135
-0.0959269
0.0992193
-0.0988284
0.102935
-0.101529
0.106512
-0.10415
0.110063
-0.106774
0.113661
-0.109454
0.117346
-0.112227
0.121153
-0.11509
-0.118154
0.125053
0.0005273
-0.000818358
0.00229158
-0.00452633
0.00547651
-0.0101832
0.0101812
-0.0175631
0.0163663
-0.0263301
0.0238167
-0.0360066
0.0321493
-0.0460161
0.040872
-0.0557743
0.0494752
-0.064789
0.0575242
-0.0727321
0.064725
-0.0794653
0.0709488
-0.085022
0.0762179
-0.0895592
0.080664
-0.0932993
0.0844766
-0.0964778
0.087855
-0.0993053
0.0909759
-0.101949
0.0939765
-0.10453
0.0969527
-0.107126
0.0999655
-0.109787
0.103051
-0.11254
0.106225
-0.115401
0.109505
-0.11837
-0.121507
0.112858
0.000662815
-0.00148117
0.00278699
-0.0066505
0.00650036
-0.0138966
0.0117995
-0.0228622
0.018492
-0.0330227
0.026188
-0.0437026
0.034359
-0.0541871
0.0424465
-0.0638618
0.049975
-0.0723176
0.0566305
-0.0793876
0.0622856
-0.0851204
0.0669771
-0.0897134
0.0708528
-0.0934349
0.0741119
-0.0965585
0.0769548
-0.0993206
0.0795513
-0.101902
0.0820291
-0.104427
0.0844744
-0.106975
0.0869411
-0.109593
0.0894601
-0.112306
0.0920477
-0.115127
0.0947102
-0.118063
0.0974533
-0.121113
-0.124303
0.100249
0.000808163
-0.00228934
0.00328772
-0.00913005
0.00747104
-0.0180799
0.0132104
-0.0286016
0.0201361
-0.0399483
0.0276995
-0.051266
0.035291
-0.0617786
0.0423776
-0.0709485
0.0486021
-0.078542
0.0538159
-0.0846013
0.058052
-0.0893566
0.0614633
-0.0931248
0.0642544
-0.0962259
0.0666271
-0.0989312
0.0687493
-0.101443
0.070744
-0.103897
0.0726926
-0.106376
0.0746448
-0.108927
0.0766293
-0.111577
0.078661
-0.114337
0.0807471
-0.117213
0.0828897
-0.120206
0.08509
-0.123314
-0.12654
0.0873274
0.000954322
-0.00324366
0.00375725
-0.011933
0.00830636
-0.022629
0.0142795
-0.0345747
0.0211333
-0.0468022
0.0282126
-0.0583453
0.0349109
-0.0684768
0.0408003
-0.0768379
0.0456838
-0.0834256
0.0495705
-0.088488
0.0526068
-0.0923929
0.0549997
-0.0955176
0.056955
-0.0981812
0.058643
-0.100619
0.060187
-0.102987
0.0616672
-0.105377
0.063132
-0.10784
0.0646085
-0.110404
0.0661116
-0.11308
0.0676488
-0.115874
0.0692232
-0.118788
0.0708355
-0.121818
0.0724845
-0.124963
-0.128213
0.0741571
0.0010908
-0.00433446
0.00415717
-0.0149994
0.0089295
-0.0274014
0.0149015
-0.0405467
0.0213913
-0.0532921
0.0277107
-0.0646646
0.0333333
-0.0740994
0.0379809
-0.0814855
0.0416132
-0.0870579
0.044356
-0.0912308
0.0464139
-0.0944507
0.0479985
-0.0971023
0.0492873
-0.09947
0.0504086
-0.10174
0.0514452
-0.104023
0.0524464
-0.106378
0.0534394
-0.108833
0.0544391
-0.111404
0.0554536
-0.114095
0.0564869
-0.116908
0.0575403
-0.119841
0.0586137
-0.122891
0.0597047
-0.126054
-0.129315
0.0608069
0.00120715
-0.00554161
0.00445309
-0.0182453
0.00928134
-0.0322296
0.0150169
-0.0462822
0.0208982
-0.0591735
0.0262787
-0.0700451
0.0307627
-0.0785834
0.0342272
-0.0849501
0.0367559
-0.0895866
0.0385421
-0.093017
0.0398032
-0.0957118
0.0407274
-0.0980265
0.0414531
-0.100196
0.0420697
-0.102357
0.0426301
-0.104584
0.0431629
-0.106911
0.0436837
-0.109354
0.044201
-0.111921
0.0447196
-0.114613
0.0452418
-0.11743
0.0457681
-0.120368
0.0462976
-0.123421
0.0468269
-0.126583
-0.129842
0.0473534
0.00129682
-0.00683843
0.00462185
-0.0215703
0.00932953
-0.0369373
0.0146165
-0.0515692
0.0197117
-0.0642686
0.0240681
-0.0744015
0.0274387
-0.081954
0.029833
-0.0873444
0.0314157
-0.0911693
0.0324048
-0.0940061
0.0330018
-0.0963088
0.0333599
-0.0983846
0.0335799
-0.100416
0.0337213
-0.102498
0.033816
-0.104679
0.0338809
-0.106976
0.0339248
-0.109398
0.0339531
-0.111949
0.0339691
-0.114629
0.0339745
-0.117435
0.0339698
-0.120363
0.033954
-0.123405
0.0339234
-0.126552
0.0338778
-0.129796
-0.000215108
-0.00221829
0.0024334
-0.0007876
-0.00570072
0.00627321
-0.00167513
-0.00846807
0.0093556
-0.00283617
-0.0106073
0.0117684
-0.00422691
-0.0122303
0.013621
-0.00580357
-0.0134675
0.0150441
-0.00752568
-0.0144457
0.0161678
-0.0093582
-0.0152696
0.0171021
-0.011272
-0.0160111
0.0179249
-0.0132428
-0.0167075
0.0186782
-0.0152489
-0.0173643
0.0193704
-0.0172684
-0.0179621
0.0199816
-0.0192769
-0.0184626
0.0204712
-0.0212452
-0.0188142
0.0207825
-0.0231376
-0.0189552
0.0208476
-0.0249114
-0.0188167
0.0205904
-0.0265161
-0.018324
0.0199286
-0.0278944
-0.0173985
0.0187769
-0.028984
-0.0159602
0.0170498
-0.0297197
-0.0139316
0.0146674
-0.0300375
-0.0112417
0.0115595
-0.0298823
-0.00782394
0.00766872
-0.0292255
-0.00358843
0.00293161
0.00132887
-0.0281374
-0.0024169
-0.000313792
-0.0019045
-0.00110134
-0.00491317
-0.00226989
-0.00729953
-0.00374492
-0.00913228
-0.00546321
-0.010512
-0.00737229
-0.0115584
-0.00943059
-0.0123874
-0.0116065
-0.0130936
-0.0138767
-0.0137409
-0.0162229
-0.0143613
-0.0186289
-0.0149583
-0.0210774
-0.0155136
-0.0235474
-0.0159927
-0.0260119
-0.0163497
-0.0284365
-0.0165306
-0.030778
-0.0164752
-0.0329839
-0.016118
-0.034993
-0.0153895
-0.0367365
-0.0142166
-0.0381441
-0.0125241
-0.0391466
-0.0102392
-0.0396812
-0.00728927
-0.0397074
-0.00356224
0.000879314
-0.0392579
-0.000389696
-0.0015148
-0.00133735
-0.00396552
-0.00270696
-0.00592991
-0.00439559
-0.00744366
-0.00632301
-0.00858458
-0.00842833
-0.00945307
-0.010667
-0.0101487
-0.0130074
-0.0107532
-0.0154268
-0.0113215
-0.0179074
-0.0118807
-0.0204323
-0.0124334
-0.0229829
-0.0129631
-0.0255357
-0.0134398
-0.0280612
-0.0138241
-0.0305224
-0.0140695
-0.032873
-0.0141246
-0.0350574
-0.0139336
-0.0370101
-0.0134368
-0.0386564
-0.0125703
-0.0399162
-0.0112643
-0.0407135
-0.00944194
-0.0409759
-0.00702684
-0.0406225
-0.00391566
-5.64628e-05
-0.0396868
-0.000436449
-0.00107836
-0.00147871
-0.00292326
-0.0029592
-0.00444943
-0.00475317
-0.00564968
-0.0067666
-0.00657115
-0.00893037
-0.0072893
-0.011195
-0.00788406
-0.0135253
-0.00842294
-0.0158946
-0.00895218
-0.0182804
-0.00949497
-0.0206597
-0.010054
-0.023007
-0.0106158
-0.0252912
-0.0111556
-0.0274752
-0.0116401
-0.0295143
-0.0120304
-0.0313554
-0.0122835
-0.032936
-0.012353
-0.0341829
-0.0121899
-0.0350111
-0.0117421
-0.0353239
-0.0109515
-0.0350196
-0.00974629
-0.0340075
-0.00803891
-0.0321804
-0.00574274
-0.00266361
-0.0295733
-0.000451154
-0.000627202
-0.0015179
-0.00185651
-0.00301524
-0.00295209
-0.00480451
-0.00386041
-0.00678132
-0.00459434
-0.00886873
-0.00520189
-0.0110106
-0.00574215
-0.0131651
-0.00626848
-0.0152982
-0.00681913
-0.0173786
-0.00741449
-0.0193742
-0.00805843
-0.0212486
-0.00874145
-0.0229602
-0.00944399
-0.024461
-0.0101392
-0.0256964
-0.0107951
-0.0266042
-0.0113756
-0.0271146
-0.0118426
-0.0271481
-0.0121564
-0.0266139
-0.0122763
-0.0254051
-0.0121602
-0.0233936
-0.0117579
-0.0204378
-0.0109946
-0.0164161
-0.0097645
-0.00789103
-0.0111886
-0.0004339
-0.000193302
-0.00145535
-0.00083506
-0.00287657
-0.00153087
-0.0045525
-0.00218448
-0.00637153
-0.00277531
-0.00824901
-0.00332441
-0.0101204
-0.00387078
-0.0119343
-0.0044546
-0.0136461
-0.00510725
-0.0152133
-0.00584736
-0.016591
-0.00668071
-0.0177304
-0.00760199
-0.0185775
-0.00859697
-0.0190723
-0.00964442
-0.0191496
-0.0107177
-0.0187389
-0.0117864
-0.0177642
-0.0128173
-0.0161437
-0.0137769
-0.013787
-0.0146331
-0.0105914
-0.0153558
-0.00643033
-0.015919
-0.00113832
-0.0162866
0.00546347
-0.0163663
-0.0160934
0.0136658
-0.000387716
0.000194414
-0.0012988
7.6028e-05
-0.00255619
-0.000273479
-0.00401372
-0.000726951
-0.005555
-0.00123404
-0.00708705
-0.00179235
-0.00853441
-0.00242342
-0.00983285
-0.00315616
-0.0109236
-0.00401654
-0.0117486
-0.00502231
-0.0122479
-0.00618146
-0.0123574
-0.00749245
-0.0120092
-0.00894517
-0.0111316
-0.010522
-0.00965016
-0.0121991
-0.00748895
-0.0139476
-0.00457111
-0.0157352
-0.000819426
-0.0175286
0.00384303
-0.0192955
0.00949642
-0.0210092
0.0162255
-0.022648
0.0241575
-0.0242187
0.0333439
-0.0255527
-0.0273263
0.0445768
-0.000317273
0.000511687
-0.00106511
0.00082386
-0.00207947
0.000740886
-0.00322068
0.000414262
-0.00436777
-8.69554e-05
-0.00541808
-0.000742036
-0.00628212
-0.00155939
-0.00687897
-0.00255931
-0.0071316
-0.00376391
-0.00696337
-0.00519055
-0.00629621
-0.00684863
-0.0050503
-0.00873836
-0.00314505
-0.0108504
-0.000500854
-0.0131662
0.00295882
-0.0156588
0.00730541
-0.0182942
0.0126038
-0.0210335
0.0189111
-0.023836
0.0262776
-0.026662
0.0347463
-0.0294778
0.0443427
-0.0322445
0.0551489
-0.0350249
0.0670223
-0.0374261
-0.0410106
0.0807066
-0.000232117
0.000743804
-0.000773818
0.00136556
-0.00148276
0.00144982
-0.00222352
0.00115502
-0.00287087
0.000560397
-0.00331
-0.000302905
-0.00343558
-0.00143381
-0.00314741
-0.00284747
-0.00234842
-0.0045629
-0.000943178
-0.00659579
0.00116179
-0.00895359
0.00405615
-0.0116327
0.00782279
-0.0146171
0.0125344
-0.0178778
0.0182502
-0.0213746
0.0250135
-0.0250575
0.0328507
-0.0288707
0.0417711
-0.0327563
0.0517677
-0.0366586
0.0628215
-0.0405316
0.0748928
-0.0443158
0.087972
-0.0481041
0.101878
-0.0513316
-0.0560618
0.116929
-0.0001409
0.000884704
-0.000453479
0.00167814
-0.000813125
0.00180947
-0.00108798
0.00142987
-0.00114719
0.000619615
-0.000863555
-0.000586544
-0.000114238
-0.00218313
0.00121921
-0.00418092
0.00325061
-0.0065943
0.00608722
-0.0094324
0.00982612
-0.0126925
0.0145494
-0.016356
0.020319
-0.0203867
0.0271722
-0.024731
0.0351183
-0.0293207
0.0441381
-0.0340774
0.0541853
-0.0389179
0.0651898
-0.0437608
0.0770631
-0.0485319
0.089702
-0.0531705
0.103004
-0.0576177
0.116835
-0.061935
0.131166
-0.0656627
-0.070594
0.145698
-5.27151e-05
0.000937419
-0.000129648
0.00175507
-0.000116272
0.00179609
0.000119046
0.00119455
0.000714793
2.38671e-05
0.00181062
-0.00168237
0.00354393
-0.00391643
0.00604592
-0.00668291
0.00943679
-0.00998517
0.0138191
-0.0138147
0.0192703
-0.0181437
0.0258353
-0.022921
0.0335203
-0.0280717
0.0422903
-0.0335009
0.0520691
-0.0390995
0.0627445
-0.0447527
0.0741753
-0.0503488
0.086202
-0.0557875
0.0986567
-0.0609867
0.111375
-0.0658883
0.124212
-0.0704554
0.136987
-0.0747098
0.149794
-0.0784693
-0.0826575
0.161857
2.69651e-05
0.000181319
0.000577927
0.00135323
0.0026545
0.00463204
0.00743131
0.0111835
0.015995
0.0219357
0.0290289
0.037244
0.0464943
0.0566412
0.0675037
0.0788729
0.0905281
0.102254
0.113856
0.125175
0.136087
0.146512
0.156578
0.165862
-0.0244407
0.00892066
-0.0126174
-0.0202817
0.0212379
-0.0253969
-0.0155707
0.0352115
-0.0399224
-0.0105064
0.0503235
-0.0553878
-0.00531867
0.0659643
-0.071152
-0.000257922
0.0814287
-0.0864894
0.00447952
0.095946
-0.100683
0.008805
0.108818
-0.113143
0.0133005
0.118776
-0.123271
0.0186799
0.124987
-0.130367
0.0259478
0.125749
-0.133017
0.0358522
0.119173
-0.129078
0.0483923
0.103768
-0.116309
0.0627288
0.0791301
-0.0934666
0.0776301
0.0460526
-0.060954
0.0921696
0.00574043
-0.0202799
0.105851
-0.0389905
0.025309
0.118071
-0.0839018
0.0716818
0.128009
-0.12211
0.112172
0.134885
-0.148565
0.141689
0.138475
-0.162745
0.159155
0.139358
-0.167726
0.166844
0.13829
-0.167185
0.168252
0.135115
-0.165167
0.168343
0.129145
-0.166907
0.172877
0.12117
-0.17379
0.181765
0.114399
-0.176483
0.183253
0.112478
-0.1572
0.159122
0.116658
-0.105502
0.101321
0.125509
-0.0289166
0.0200648
0.135975
0.0518875
-0.0623534
0.145368
0.119057
-0.12845
0.152304
0.16386
-0.170796
0.156508
0.187222
-0.191426
0.157333
0.199229
-0.200054
0.153843
0.213021
-0.20953
0.146775
0.233064
-0.225996
0.13932
0.2367
-0.229245
0.135228
0.201411
-0.19732
0.136004
0.114723
-0.115498
0.140959
0.00646686
-0.0114219
0.147651
-0.0964486
0.0897564
0.153579
-0.167387
0.161458
0.155569
-0.206108
0.204118
0.151809
-0.234874
0.238635
0.144004
-0.245938
0.253743
0.137287
-0.249931
0.256648
0.135751
-0.179464
0.181001
0.140299
-0.0888583
0.0843095
0.14662
0.0371919
-0.0435125
0.149612
0.140089
-0.14308
0.14736
0.211696
-0.209444
0.143163
0.299302
-0.295106
0.141245
0.252727
-0.250808
0.142918
0.234705
-0.236379
0.144693
0.0694273
-0.0712023
0.144604
-0.0713056
0.0713949
0.143129
-0.163254
0.16473
0.141159
-0.3652
0.36717
-0.191859
0.193625
-0.0357086
0.00537139
-0.03133
0.0168593
-0.0261361
0.0300176
-0.0202062
0.0443936
-0.0136937
0.0594518
-0.00677985
0.0745148
0.000330024
0.0888361
0.00830042
0.100847
0.0169313
0.110145
0.0268136
0.115105
0.0384283
0.114134
0.0518428
0.105759
0.0665162
0.0890951
0.081435
0.0642112
0.0956069
0.0318807
0.108361
-0.00701403
0.119704
-0.0503333
0.129113
-0.0933111
0.135982
-0.128978
0.139884
-0.152467
0.140893
-0.163754
0.139669
-0.166502
0.137063
-0.164579
0.133007
-0.161112
0.126482
-0.160381
0.117627
-0.164935
0.109431
-0.168287
0.106196
-0.153965
0.110007
-0.109312
0.119515
-0.0384251
0.131405
0.0399972
0.142571
0.107891
0.15138
0.155051
0.157235
0.181367
0.15929
0.197174
0.156819
0.215491
0.150773
0.23911
0.144155
0.243318
0.140246
0.20532
0.140358
0.114611
0.144005
0.00282026
0.149072
-0.101516
0.15367
-0.171984
0.154889
-0.207327
0.150783
-0.230768
0.142724
-0.237879
0.13591
-0.243118
0.134631
-0.178184
0.139611
-0.0938389
0.146358
0.0304449
0.149548
0.136898
0.147556
0.213688
0.143429
0.30343
0.141505
0.25465
0.143376
0.232835
0.145366
0.0674373
0.145405
-0.0713454
0.143837
-0.161686
0.141787
-0.36315
-0.190086
-0.0363531
0.00203773
-0.0319922
0.0124984
-0.0265544
0.0245798
-0.0199659
0.0378051
-0.0122054
0.0516913
-0.0037662
0.0660756
0.00624595
0.078824
0.0170692
0.0900242
0.02894
0.0982741
0.0419919
0.102053
0.0562141
0.0999121
0.0712591
0.0907138
0.0863774
0.0739768
0.100595
0.0499933
0.113192
0.0192846
0.123858
-0.0176803
0.132653
-0.0591283
0.139213
-0.0998714
0.143066
-0.132831
0.144126
-0.153527
0.142793
-0.162421
0.139776
-0.163485
0.135891
-0.160694
0.131202
-0.156423
0.124525
-0.153704
0.115267
-0.155677
0.105879
-0.158899
0.101118
-0.149204
0.104058
-0.112252
0.113768
-0.0481349
0.12674
0.0270253
0.139523
0.0951077
0.150168
0.144406
0.157703
0.173832
0.16113
0.193747
0.159922
0.216699
0.155104
0.243928
0.149355
0.249068
0.145532
0.209143
0.144857
0.115285
0.147098
0.000579974
0.150491
-0.10491
0.153719
-0.175211
0.154222
-0.20783
0.149907
-0.226454
0.141724
-0.229696
0.134826
-0.236219
0.133718
-0.177076
0.139018
-0.0991391
0.146159
0.0233034
0.149587
0.133471
0.147893
0.215382
0.143817
0.307506
0.141854
0.256613
0.143944
0.230744
0.146182
0.0651996
0.146357
-0.0715205
0.144686
-0.160015
0.142547
-0.361011
-0.188318
-0.0263144
-0.00122111
-0.0220745
0.00825847
-0.0165822
0.0190875
-0.00984529
0.0310682
-0.00165276
0.0434988
0.00891136
0.0555115
0.0204106
0.0673247
0.0330178
0.0774171
0.0467071
0.0845847
0.0613045
0.0874557
0.0764582
0.0847584
0.0915966
0.0755754
0.105946
0.0596272
0.118708
0.0372312
0.12938
0.00861315
0.137912
-0.0262126
0.144305
-0.0655215
0.148183
-0.103749
0.149198
-0.133847
0.147605
-0.151934
0.144168
-0.158984
0.13965
-0.158967
0.134715
-0.155758
0.129538
-0.151247
0.123025
-0.147191
0.113944
-0.146597
0.103821
-0.148776
0.0974281
-0.142811
0.0989601
-0.113784
0.108266
-0.0574407
0.121954
0.013337
0.136163
0.0808991
0.14857
0.131999
0.157805
0.164597
0.162751
0.188801
0.163029
0.216421
0.159611
0.247346
0.154752
0.253927
0.150925
0.21297
0.149361
0.11685
0.150177
-0.000236785
0.151885
-0.106618
0.15372
-0.177046
0.153535
-0.207646
0.149119
-0.222038
0.140935
-0.221512
0.133964
-0.229248
0.13294
-0.176052
0.138467
-0.104667
0.145989
0.0157814
0.149716
0.129744
0.148372
0.216726
0.144345
0.311533
0.142314
0.258644
0.144625
0.228434
0.147141
0.0626834
0.147453
-0.0718333
0.145673
-0.158234
0.143433
-0.358772
-0.186565
-0.00845478
-0.00395498
-0.00444037
0.00424407
0.0011385
0.0135086
0.00865875
0.0235479
0.0178208
0.0343368
0.0281703
0.045162
0.0399817
0.0555133
0.0530441
0.0643547
0.0671183
0.0705105
0.0818168
0.0727573
0.0965979
0.0699773
0.1108
0.0613734
0.123712
0.0467151
0.13473
0.0262134
0.143623
-0.000279509
0.150269
-0.0328595
0.15448
-0.0697324
0.155802
-0.10507
0.154127
-0.132172
0.150119
-0.147926
0.144862
-0.153726
0.13916
-0.153265
0.133455
-0.150054
0.127928
-0.14572
0.121751
-0.141013
0.113342
-0.138188
0.103117
-0.138551
0.0952817
-0.134976
0.0949177
-0.11342
0.103171
-0.0656936
0.11708
-0.000572776
0.132433
0.0655469
0.146463
0.117969
0.157386
0.153673
0.163982
0.182205
0.165952
0.214451
0.164088
0.24921
0.160164
0.257851
0.156278
0.216856
0.153739
0.119389
0.153157
0.000344574
0.15321
-0.10667
0.153647
-0.177483
0.152794
-0.206793
0.148368
-0.217613
0.140289
-0.213433
0.133253
-0.222212
0.132227
-0.175026
0.137899
-0.110339
0.145803
0.00787697
0.149909
0.125637
0.148988
0.217648
0.145029
0.315492
0.142904
0.260769
0.145426
0.225912
0.148228
0.0598814
0.148686
-0.0722915
0.146791
-0.156339
0.144434
-0.356414
-0.184838
0.0160125
-0.00630167
0.0199676
0.000289017
0.0251097
0.00836643
0.0317601
0.0168975
0.0401445
0.0259524
0.0500473
0.0352591
0.0613771
0.0441835
0.0739306
0.0518011
0.0873657
0.0570755
0.10119
0.0589329
0.114792
0.0563756
0.127516
0.0486495
0.138775
0.0354561
0.148118
0.0168701
0.155481
-0.00764273
0.160541
-0.0379195
0.162788
-0.0719794
0.161731
-0.104013
0.157624
-0.128065
0.151543
-0.141845
0.144795
-0.146978
0.138203
-0.146673
0.131994
-0.143844
0.126234
-0.13996
0.12044
-0.135219
0.11305
-0.130798
0.103421
-0.128922
0.0946307
-0.126186
0.0921589
-0.110948
0.098719
-0.0722537
0.112183
-0.0140369
0.128292
0.0494376
0.143713
0.102548
0.156263
0.141123
0.164609
0.173859
0.168445
0.210615
0.168289
0.249366
0.165376
0.260764
0.161401
0.220831
0.157885
0.122906
0.155941
0.00228862
0.154416
-0.105145
0.153468
-0.176535
0.151954
-0.205279
0.147595
-0.213253
0.139716
-0.205554
0.132618
-0.215114
0.131508
-0.173916
0.137246
-0.116077
0.145549
-0.000426318
0.150134
0.121052
0.14973
0.218052
0.14588
0.319342
0.143639
0.263009
0.146342
0.223209
0.149437
0.0567865
0.150045
-0.0728989
0.148033
-0.154327
0.14554
-0.353922
-0.183146
0.0452675
-0.0069923
0.047412
-0.00185557
0.0510478
0.00473067
0.0563161
0.0116292
0.0633619
0.0189067
0.0720259
0.0265951
0.0821673
0.0340421
0.0935234
0.0404451
0.105687
0.0449116
0.118129
0.046491
0.130236
0.044269
0.141399
0.0374866
0.151133
0.0257213
0.159061
0.00894289
0.165112
-0.0136946
0.168684
-0.0414909
0.169019
-0.0723144
0.165744
-0.100738
0.15952
-0.121841
0.15177
-0.134095
0.143897
-0.139106
0.136688
-0.139464
0.130211
-0.137368
0.124349
-0.134098
0.118882
-0.129752
0.112615
-0.12453
0.104199
-0.120506
0.0952293
-0.117216
0.0908208
-0.10654
0.0951368
-0.0765697
0.10741
-0.0263098
0.123742
0.0331056
0.140216
0.0860736
0.154265
0.127075
0.164404
0.16372
0.17025
0.204768
0.171965
0.247651
0.170171
0.262558
0.16615
0.224851
0.161677
0.127379
0.158422
0.00554435
0.155441
-0.102164
0.153146
-0.17424
0.15097
-0.203103
0.146739
-0.209022
0.139146
-0.19796
0.131988
-0.207957
0.130714
-0.172641
0.13644
-0.121803
0.145166
-0.00915271
0.150343
0.115875
0.150573
0.217822
0.146897
0.323018
0.14453
0.265375
0.147377
0.220362
0.150749
0.0534147
0.151516
-0.0736657
0.149384
-0.152195
0.146738
-0.351276
-0.181499
0.0789568
-0.00524247
0.0786148
-0.00151358
0.0800252
0.00332032
0.0830538
0.00860061
0.0878392
0.0141213
0.0943675
0.0200667
0.102503
0.0259064
0.111955
0.0309938
0.122293
0.0345727
0.132989
0.035795
0.14344
0.0338188
0.153052
0.0278738
0.16137
0.0174042
0.168052
0.0022605
0.172739
-0.0183819
0.174663
-0.0434145
0.173005
-0.0706569
0.167676
-0.0954088
0.15972
-0.113884
0.150759
-0.125135
0.142149
-0.130496
0.134567
-0.131881
0.128004
-0.130805
0.122177
-0.128271
0.116963
-0.124538
0.111692
-0.119259
0.104845
-0.113659
0.096554
-0.108926
0.0907929
-0.100779
0.0926058
-0.0783826
0.102976
-0.0366796
0.118846
0.0172354
0.135922
0.0689975
0.151261
0.111736
0.16317
0.151811
0.171096
0.196842
0.17479
0.243958
0.174261
0.263087
0.170335
0.228778
0.165001
0.132712
0.160492
0.0100534
0.156218
-0.0978896
0.152637
-0.170658
0.14979
-0.200256
0.145739
-0.204972
0.138515
-0.190736
0.131302
-0.200743
0.129783
-0.171122
0.135418
-0.127438
0.14459
-0.0183247
0.150483
0.109982
0.151485
0.21682
0.148071
0.326432
0.145582
0.267865
0.148519
0.217425
0.152156
0.0497778
0.153085
-0.0745953
0.150829
-0.149939
0.148011
-0.348458
-0.179913
0.11367
-0.00198384
0.11153
0.000626613
0.110881
0.00396869
0.111706
0.00777627
0.114042
0.0117851
0.118056
0.0160528
0.12366
0.0203022
0.130626
0.024028
0.1386
0.0265987
0.147108
0.0272869
0.155581
0.0253459
0.163416
0.0200391
0.170004
0.0108158
0.175364
-0.00309999
0.178249
-0.0212663
0.178206
-0.0433716
0.1745
-0.0669506
0.167384
-0.0882936
0.158162
-0.104662
0.148468
-0.115441
0.139491
-0.121519
0.131752
-0.124142
0.125221
-0.124274
0.11955
-0.1226
0.114568
-0.119557
0.11005
-0.114741
0.104793
-0.108402
0.0978922
-0.102025
0.0916831
-0.0945695
0.0911815
-0.0778809
0.0991123
-0.0446104
0.113747
0.0026003
0.130853
0.0518917
0.147165
0.0954239
0.160729
0.138247
0.170788
0.186783
0.17661
0.238136
0.177481
0.262215
0.173766
0.232494
0.167741
0.138736
0.162058
0.0157368
0.156662
-0.0924941
0.151881
-0.165876
0.148346
-0.196722
0.144522
-0.201148
0.137764
-0.183978
0.130508
-0.193488
0.128668
-0.169282
0.134117
-0.132887
0.143759
-0.027966
0.150488
0.103253
0.152417
0.214891
0.149382
0.329467
0.146787
0.270459
0.14976
0.214452
0.153638
0.0459
0.154735
-0.0756924
0.152351
-0.147555
0.149345
-0.345451
-0.178405
0.142137
0.00157784
0.139456
0.00330722
0.138001
0.00542359
0.137677
0.00810035
0.138488
0.0109745
0.140634
0.0139063
0.144086
0.0168504
0.148701
0.0194127
0.154244
0.0210556
0.160352
0.0211795
0.166539
0.0191591
0.172274
0.0143034
0.176978
0.00611237
0.180169
-0.0062911
0.181025
-0.0221228
0.178853
-0.041199
0.17325
-0.0613483
0.164779
-0.0798217
0.154814
-0.0946981
0.144828
-0.105455
0.135788
-0.112478
0.128064
-0.116419
0.121643
-0.117853
0.116217
-0.117173
0.111517
-0.114857
0.107533
-0.110757
0.103626
-0.104495
0.0984922
-0.0968909
0.0928136
-0.0888909
0.0906748
-0.0757421
0.0959537
-0.0498893
0.108644
-0.0100897
0.125106
0.0354292
0.141969
0.0785611
0.156967
0.123249
0.16905
0.1747
0.177009
0.230177
0.179478
0.259747
0.176213
0.235758
0.169675
0.145274
0.163108
0.0223044
0.156719
-0.0861056
0.150844
-0.160001
0.146602
-0.192479
0.143025
-0.197571
0.136845
-0.177797
0.129588
-0.186231
0.127348
-0.167041
0.132494
-0.138034
0.142603
-0.0380743
0.150289
0.0955668
0.153307
0.211873
0.150793
0.331981
0.148136
0.273116
0.151089
0.211499
0.155177
0.0418117
0.156445
-0.0769603
0.153932
-0.145042
0.150724
-0.342244
-0.177
0.158951
0.00448429
0.156833
0.00542457
0.155463
0.00679409
0.154994
0.00856893
0.155394
0.010575
0.156693
0.0126071
0.158993
0.0145502
0.162158
0.0162478
0.165983
0.0172306
0.170173
0.0169894
0.174352
0.0149801
0.178025
0.0106301
0.180523
0.00361516
0.181658
-0.00742701
0.180517
-0.0209811
0.1765
-0.0371824
0.169524
-0.0543719
0.160339
-0.0706374
0.150223
-0.084582
0.140372
-0.0956033
0.131529
-0.103635
0.123961
-0.108851
0.117675
-0.111567
0.11248
-0.111978
0.10807
-0.110446
0.104428
-0.107116
0.101439
-0.101506
0.0980003
-0.0934524
0.093564
-0.0844547
0.0906967
-0.0728748
0.0935412
-0.0527337
0.103746
-0.0202942
0.11884
0.0203347
0.1357
0.0617016
0.151897
0.107052
0.166053
0.160544
0.176338
0.219892
0.180479
0.255606
0.177702
0.238535
0.17098
0.151996
0.163619
0.0296653
0.156485
-0.0789712
0.149642
-0.153159
0.144672
-0.187509
0.141293
-0.194192
0.135771
-0.172275
0.128586
-0.179047
0.125861
-0.164316
0.130546
-0.142719
0.141059
-0.0485878
0.149808
0.086818
0.154099
0.207582
0.152263
0.333817
0.149604
0.275776
0.152487
0.208615
0.156758
0.0375407
0.158197
-0.0783991
0.15555
-0.142395
0.152142
-0.338836
-0.175725
0.164366
0.00598042
0.162956
0.00683449
0.162012
0.00773797
0.161755
0.00882588
0.162219
0.0101115
0.163368
0.0114579
0.165153
0.0127646
0.167529
0.0138726
0.170322
0.014437
0.17327
0.0140419
0.176038
0.0122119
0.178225
0.00844311
0.179644
0.00219596
0.178943
-0.00672628
0.176257
-0.0182949
0.171108
-0.0320329
0.163657
-0.0469212
0.154652
-0.0616327
0.145111
-0.0750412
0.135907
-0.0863987
0.127582
-0.0953107
0.120351
-0.10162
0.114248
-0.105464
0.109214
-0.106944
0.105016
-0.106249
0.101545
-0.103644
0.0989844
-0.0989454
0.0967816
-0.0912495
0.0938189
-0.081492
0.0910656
-0.0701215
0.0920653
-0.0537334
0.0993862
-0.0276151
0.112488
0.00723315
0.128497
0.0456926
0.145052
0.0904965
0.160683
0.144913
0.173271
0.207303
0.179508
0.249369
0.177828
0.240216
0.171281
0.158542
0.163747
0.0371995
0.155894
-0.071118
0.148325
-0.145589
0.142686
-0.18187
0.139422
-0.190928
0.13457
-0.167423
0.127544
-0.172021
0.124266
-0.161038
0.128433
-0.146886
0.139176
-0.0593303
0.149007
0.0769869
0.154682
0.201907
0.153726
0.334773
0.151171
0.27833
0.153939
0.205848
0.158367
0.0331127
0.159959
-0.0799907
0.1572
-0.139636
0.153595
-0.335231
-0.174593
0.186645
0.00775965
-0.188424
0.185376
0.00810307
0.184382
0.0087321
0.183696
0.00951164
0.183425
0.0103826
0.18362
0.0112629
0.184357
0.0120277
0.185732
0.0124979
0.187779
0.0123904
0.190474
0.0113468
0.193704
0.00898212
0.197216
0.00493047
0.200584
-0.00117155
0.203361
-0.00950351
0.204982
-0.0199161
0.204903
-0.0319535
0.202855
-0.0448735
0.198949
-0.0577264
0.193545
-0.0696376
0.187074
-0.0799272
0.179947
-0.0881836
0.172508
-0.0941808
0.165011
-0.0979668
0.157662
-0.0995954
0.150531
-0.0991173
0.143529
-0.0966422
0.136837
-0.0922534
0.130497
-0.0849103
0.123605
-0.0745996
0.115738
-0.0622548
0.108973
-0.0469678
0.106725
-0.0253671
0.11
0.00395793
0.116891
0.0388015
0.124523
0.0828649
0.131428
0.138008
0.137764
0.200967
0.144474
0.242658
0.152836
0.231853
0.162539
0.148839
0.169764
0.0299746
0.172139
-0.0734927
0.168867
-0.142317
0.162884
-0.175887
0.156608
-0.184652
0.149065
-0.15988
0.139834
-0.16279
0.133004
-0.154208
0.131233
-0.145115
0.13391
-0.0620073
0.136573
0.0743237
0.137364
0.201116
0.136645
0.335492
0.137467
0.277508
0.143533
0.199781
0.150107
0.0265383
0.15158
-0.0814634
0.148342
-0.136398
0.142535
-0.329423
-0.171175
0.198748
0.008586
-0.199575
0.198149
0.0087025
0.197786
0.00909478
0.197701
0.0095972
0.197961
0.0101221
0.198631
0.0105935
0.199761
0.0108972
0.201387
0.0108717
0.203496
0.0102812
0.206008
0.00883497
0.208761
0.00622949
0.211523
0.00216781
0.213963
-0.00361065
0.215649
-0.0111895
0.216162
-0.0204291
0.215173
-0.030965
0.212533
-0.0422335
0.208319
-0.0535124
0.202784
-0.064103
0.196271
-0.0734134
0.189145
-0.0810584
0.181747
-0.0867829
0.174317
-0.0905361
0.16702
-0.092299
0.15997
-0.0920668
0.153079
-0.0897512
0.146389
-0.0855633
0.140167
-0.0786887
0.133956
-0.0683883
0.126903
-0.0552019
0.119962
-0.0400271
0.116184
-0.0215892
0.117773
0.00236934
0.123798
0.0327766
0.131581
0.0750815
0.139433
0.130156
0.147069
0.193331
0.155432
0.234295
0.165513
0.221772
0.176124
0.138228
0.183746
0.0223524
0.185503
-0.0752488
0.18126
-0.138075
0.1741
-0.168727
0.167061
-0.177613
0.159199
-0.152018
0.149643
-0.153233
0.142122
-0.146687
0.139755
-0.142748
0.14238
-0.0646322
0.145493
0.0712113
0.147087
0.199522
0.147128
0.335451
0.148294
0.276342
0.15468
0.193395
0.161482
0.0197356
0.162881
-0.0828621
0.158945
-0.132462
0.15232