/*--------------------------------*- C++ -*----------------------------------*\
| =========                 |                                                 |
| \\      /  F ield         | OpenFOAM: The Open Source CFD Toolbox           |
|  \\    /   O peration     | Version:  2512                                  |
|   \\  /    A nd           | Website:  www.openfoam.com                      |
|    \\/     M anipulation  |                                                 |
\*---------------------------------------------------------------------------*/
FoamFile
{
    version     2.0;
    format      ascii;
    arch        "LSB;label=32;scalar=64";
    class       volVectorField;
    location    "28.25";
    object      U;
}
// * * * * * * * * * * * * * * * * * * * * * * * * * * * * * * * * * * * * * //

dimensions      [0 1 -1 0 0 0 0];

internalField   nonuniform List<vector> 
13248
(
(-0.0129536 0.0119927 6.2462e-20)
(-0.0252265 0.0260254 0)
(-0.0245483 0.0339825 -1.18001e-19)
(-0.0117295 0.0377757 1.11159e-19)
(0.0126526 0.0389605 1.04068e-19)
(0.0481752 0.038783 0)
(0.094475 0.0382032 0)
(0.151139 0.0379499 2.51136e-19)
(0.217575 0.038559 -1.04974e-21)
(0.292878 0.040389 -2.19743e-19)
(0.375737 0.0436266 2.04429e-19)
(0.464404 0.0482905 -1.27836e-19)
(0.556732 0.0542413 0)
(0.65028 0.0611999 -2.21737e-19)
(0.742469 0.0687778 4.14924e-19)
(0.830763 0.0765152 -9.82079e-20)
(0.912842 0.0839301 -1.78857e-19)
(0.986764 0.0905405 1.67901e-19)
(1.05109 0.0960029 0)
(1.1049 0.0997658 0)
(1.14818 0.10233 0)
(1.18028 0.101434 0)
(1.20454 0.102426 5.44028e-20)
(1.21686 0.092093 2.0304e-19)
(-0.0128156 0.0105401 -1.88706e-19)
(-0.0214169 0.0213565 1.28643e-19)
(-0.0138694 0.026768 -1.16667e-21)
(0.0086277 0.0288636 -1.6996e-19)
(0.0452702 0.0293219 -1.03957e-19)
(0.0953967 0.029468 -9.83396e-20)
(0.158262 0.030279 -1.80653e-19)
(0.232849 0.0324426 1.70846e-19)
(0.317689 0.036382 0)
(0.410754 0.0422636 6.50239e-22)
(0.50945 0.0500046 1.39448e-21)
(0.610732 0.0592936 1.27907e-19)
(0.711312 0.0696318 0)
(0.80792 0.0803932 0)
(0.897576 0.0908977 1.52729e-19)
(0.977825 0.100488 -2.86864e-19)
(1.04691 0.108597 1.74328e-19)
(1.10388 0.114801 -1.63659e-19)
(1.14855 0.118856 -7.34827e-20)
(1.18158 0.120663 -1.36125e-19)
(1.20397 0.120438 -5.88905e-20)
(1.21779 0.117922 -1.11388e-19)
(1.2241 0.115287 1.60259e-19)
(1.22558 0.107667 4.72885e-20)
(-0.011816 0.0087652 0)
(-0.0144893 0.0160956 0)
(0.00267951 0.0192202 6.01213e-20)
(0.0379363 0.0202813 5.5347e-20)
(0.0900461 0.0210113 -1.37935e-21)
(0.157808 0.0227619 -1.01581e-19)
(0.239657 0.0264461 0)
(0.333423 0.0325726 -8.49654e-20)
(0.436194 0.0412686 7.99782e-20)
(0.54436 0.0522991 6.23471e-22)
(0.653824 0.0651105 -1.37169e-19)
(0.760364 0.0789115 -1.2647e-19)
(0.860034 0.0927841 1.64541e-21)
(0.949539 0.105806 -1.06608e-19)
(1.02652 0.117167 2.54174e-19)
(1.08968 0.126257 0)
(1.13883 0.132721 -1.69348e-19)
(1.17475 0.136461 8.16876e-20)
(1.199 0.137643 7.34148e-20)
(1.21359 0.13653 0)
(1.22083 0.133758 6.17542e-20)
(1.22281 0.129245 -2.17551e-19)
(1.22122 0.125156 2.04223e-19)
(1.21896 0.11742 1.34001e-19)
(-0.00958259 0.00664667 -6.69034e-20)
(-0.00350065 0.0103694 -6.91949e-20)
(0.026444 0.011761 6.24666e-20)
(0.0777237 0.0128199 0)
(0.148339 0.0152012 0)
(0.236056 0.0201525 -2.22558e-21)
(0.337879 0.0283335 0)
(0.449861 0.039834 -2.59942e-19)
(0.567197 0.0542243 2.41758e-19)
(0.684583 0.0706419 -2.98889e-19)
(0.796763 0.0879335 6.86723e-20)
(0.899119 0.10484 0)
(0.988156 0.120186 1.15984e-19)
(1.06179 0.13304 -2.15543e-19)
(1.11941 0.142811 5.11501e-20)
(1.16175 0.149284 1.34499e-19)
(1.19058 0.152586 -4.31396e-21)
(1.20831 0.153102 -1.51351e-19)
(1.2176 0.151373 0)
(1.22097 0.147973 0)
(1.22056 0.143524 -5.64022e-20)
(1.21794 0.138183 5.13208e-20)
(1.2143 0.133453 1.88571e-19)
(1.21046 0.126058 -1.77004e-19)
(-0.00571242 0.00423922 -7.06967e-20)
(0.0124893 0.00449062 -7.03206e-20)
(0.0586076 0.00505727 1.97751e-19)
(0.129041 0.00752555 -1.19787e-19)
(0.220525 0.013255 1.12755e-19)
(0.329134 0.0231447 2.04703e-19)
(0.449761 0.0372984 -1.4477e-19)
(0.576224 0.0550667 -1.76625e-19)
(0.701808 0.0752083 3.10756e-21)
(0.820063 0.0961274 2.2635e-19)
(0.925627 0.116162 0)
(1.01483 0.133859 6.31595e-20)
(1.08597 0.148183 0)
(1.1392 0.158609 -1.04657e-19)
(1.17624 0.16511 1.4724e-19)
(1.19975 0.168058 1.24498e-21)
(1.21284 0.168076 -3.95524e-20)
(1.21854 0.165878 7.45918e-20)
(1.21944 0.162147 6.52702e-20)
(1.2175 0.157444 -5.9265e-20)
(1.21406 0.15222 5.63892e-20)
(1.20995 0.146609 -5.13086e-20)
(1.20552 0.141501 0)
(1.20152 0.134461 -4.02148e-20)
(0.000191125 0.00169572 7.06866e-20)
(0.0343091 -0.000991873 7.42946e-20)
(0.100004 7.09296e-05 -6.62795e-20)
(0.19219 0.00570776 1.23437e-19)
(0.305681 0.0166474 -1.16184e-19)
(0.434134 0.0330667 1.0507e-19)
(0.569841 0.054123 -5.04831e-20)
(0.704421 0.0781288 1.3261e-19)
(0.829964 0.102939 -8.35593e-20)
(0.94016 0.126391 1.49149e-19)
(1.03106 0.146698 -3.45243e-19)
(1.10131 0.162704 1.27403e-19)
(1.15185 0.173966 -1.1276e-19)
(1.18529 0.180668 1.05913e-19)
(1.20515 0.183438 9.29409e-20)
(1.21507 0.183121 8.27041e-20)
(1.21834 0.180584 -2.3064e-19)
(1.21754 0.176578 1.43545e-19)
(1.21449 0.171679 -6.52728e-20)
(1.21037 0.166283 1.7317e-19)
(1.20583 0.160648 -5.5731e-20)
(1.2012 0.154869 -1.39941e-19)
(1.19664 0.149428 1.29816e-19)
(1.19244 0.142668 4.0201e-20)
(0.00848111 -0.000726339 0)
(0.0625539 -0.00529495 6.77272e-22)
(0.150915 -0.00198424 1.38993e-19)
(0.266468 0.00881731 -1.30312e-19)
(0.401384 0.0267387 -1.17422e-19)
(0.546347 0.0507614 2.18316e-19)
(0.691068 0.0787329 -1.01423e-19)
(0.825786 0.107827 1.35638e-19)
(0.942854 0.135222 -2.62985e-21)
(1.03776 0.158671 -7.72565e-20)
(1.10931 0.176834 1.69981e-19)
(1.15915 0.189323 -2.51726e-19)
(1.19073 0.196535 0)
(1.20832 0.199356 -5.02315e-20)
(1.21612 0.198855 -1.35399e-19)
(1.21763 0.196051 4.25007e-20)
(1.21551 0.191774 1.35501e-21)
(1.21151 0.186624 -9.68344e-20)
(1.20671 0.180996 4.70367e-21)
(1.20168 0.175132 1.12632e-19)
(1.19671 0.169173 -5.12153e-20)
(1.19193 0.1632 -2.03315e-20)
(1.18732 0.157413 6.1004e-20)
(1.18302 0.150841 0)
(0.0194228 -0.00267306 0)
(0.0974597 -0.00744847 3.77335e-20)
(0.210886 0.000241003 -1.81842e-19)
(0.350017 0.0182374 6.60545e-20)
(0.503779 0.0444939 -6.21688e-20)
(0.659819 0.0763378 -5.6955e-20)
(0.806078 0.110156 -1.00789e-19)
(0.932981 0.142238 5.01807e-20)
(1.03492 0.169654 4.37171e-20)
(1.11054 0.190721 0)
(1.16196 0.205031 1.01315e-19)
(1.19345 0.213172 -1.5178e-19)
(1.21005 0.2163 1.1306e-19)
(1.21653 0.215736 5.02569e-20)
(1.21676 0.212681 -4.18981e-20)
(1.21353 0.208075 -3.56391e-20)
(1.20864 0.202574 -3.35905e-20)
(1.20314 0.196597 9.92132e-20)
(1.19758 0.190391 0)
(1.19221 0.184097 5.13869e-20)
(1.18711 0.177799 4.43865e-20)
(1.18229 0.171552 -1.08883e-19)
(1.17769 0.165392 -7.6596e-20)
(1.17334 0.158925 7.06797e-20)
(0.033144 -0.00371497 -4.10557e-20)
(0.138785 -0.00638287 -1.68388e-21)
(0.278612 0.00805871 3.70632e-20)
(0.439849 0.0350392 1.03727e-19)
(0.607992 0.0702533 3.02525e-20)
(0.768333 0.109114 -5.84699e-20)
(0.908637 0.146778 5.33273e-20)
(1.02141 0.179282 -4.68519e-20)
(1.10452 0.204314 8.44776e-20)
(1.16026 0.221289 3.62318e-20)
(1.19363 0.230935 -1.0292e-19)
(1.21053 0.234695 3.04705e-20)
(1.21646 0.234196 5.25241e-20)
(1.2158 0.230884 -2.57643e-20)
(1.21163 0.225864 0)
(1.20587 0.219887 3.92e-20)
(1.19962 0.21342 6.71345e-20)
(1.19344 0.206731 1.20768e-20)
(1.18756 0.199969 -5.64881e-20)
(1.18206 0.193215 2.39639e-20)
(1.17693 0.186521 0)
(1.17211 0.179913 -1.92771e-20)
(1.16754 0.173363 -1.85912e-20)
(1.16316 0.166886 0)
(0.0495826 -0.00337927 0)
(0.185726 -0.00104332 2.15516e-20)
(0.351926 0.0225565 3.98473e-20)
(0.532107 0.059783 -1.06057e-19)
(0.708813 0.103654 3.4346e-20)
(0.866467 0.147793 0)
(0.994647 0.186779 5.18268e-20)
(1.08953 0.217221 -7.24415e-20)
(1.15306 0.238052 -4.22806e-20)
(1.19078 0.250022 1.91236e-20)
(1.20955 0.25488 -3.10364e-20)
(1.21582 0.254633 7.51313e-20)
(1.21469 0.251065 3.79764e-20)
(1.20972 0.245525 -2.62098e-20)
(1.2031 0.238915 -2.26311e-21)
(1.19606 0.231784 -7.33135e-20)
(1.18917 0.224437 3.35018e-20)
(1.1827 0.217038 -8.99056e-22)
(1.17672 0.209676 0)
(1.17121 0.202399 -2.39891e-20)
(1.16611 0.195239 0)
(1.16136 0.188192 5.56814e-20)
(1.15685 0.181243 -6.67832e-20)
(1.15247 0.174636 3.06326e-20)
(0.0684431 -0.00118966 -1.13352e-20)
(0.236885 0.00949394 -5.44187e-20)
(0.427933 0.0444434 6.20096e-20)
(0.622501 0.0924213 3.63993e-20)
(0.80144 0.143717 -1.73348e-20)
(0.950311 0.190768 2.93065e-20)
(1.06232 0.228503 -1.4186e-20)
(1.13814 0.254873 2.37306e-20)
(1.1835 0.270393 0)
(1.20627 0.277082 5.42115e-20)
(1.21408 0.277418 -2.14024e-21)
(1.21308 0.273651 -4.39473e-20)
(1.20754 0.267488 1.89135e-20)
(1.2001 0.260066 -2.1489e-20)
(1.19221 0.252062 -8.2906e-21)
(1.18455 0.243849 9.48678e-21)
(1.17741 0.235618 -7.39037e-21)
(1.17086 0.227465 -4.06081e-20)
(1.1649 0.219443 2.49026e-20)
(1.15947 0.211582 5.15473e-21)
(1.15448 0.203893 4.58499e-21)
(1.14984 0.196354 4.08393e-21)
(1.14542 0.189013 0)
(1.14109 0.182138 0)
(0.0892449 0.00330024 1.1343e-20)
(0.290458 0.0259305 -1.13202e-20)
(0.503413 0.0739489 -2.06835e-20)
(0.70696 0.132306 0)
(0.882143 0.189045 -8.63071e-21)
(1.01771 0.236417 -7.82109e-21)
(1.11166 0.270662 -1.33963e-20)
(1.16918 0.291579 0)
(1.19897 0.301294 0)
(1.21011 0.302825 0)
(1.21014 0.299051 0)
(1.20442 0.292202 0)
(1.19628 0.283775 -1.18902e-20)
(1.18754 0.274658 5.41894e-21)
(1.17907 0.26533 9.48731e-21)
(1.1712 0.256028 4.45387e-21)
(1.16404 0.246864 1.10823e-20)
(1.15758 0.237894 0)
(1.15177 0.229147 -2.70568e-21)
(1.14652 0.22064 -2.6227e-21)
(1.14173 0.212363 -4.59231e-21)
(1.13729 0.204299 -4.09047e-21)
(1.13306 0.196569 0)
(1.12888 0.189291 3.01557e-21)
(-0.00136428 0.00563501 6.61546e-21)
(-0.00631434 0.0132467 -6.86985e-21)
(-0.015073 0.0182224 -1.30141e-20)
(-0.0257897 0.0212478 0)
(-0.0374371 0.0228544 -1.74186e-20)
(-0.049489 0.0234625 5.46001e-21)
(-0.0615808 0.0233964 -1.03451e-20)
(-0.0734621 0.0228909 0)
(-0.0849778 0.0221024 0)
(-0.0960381 0.0211234 0)
(-0.106594 0.0199984 0)
(-0.116622 0.0187394 0)
(-0.126113 0.0173384 -1.88419e-23)
(-0.135065 0.0157778 -6.79705e-21)
(-0.143477 0.0140373 1.28656e-20)
(-0.151353 0.0120994 1.8142e-20)
(-0.1587 0.00995255 5.73043e-21)
(-0.165536 0.00759392 0)
(-0.171889 0.00503103 5.01409e-21)
(-0.17781 0.00228732 -1.41818e-20)
(-0.18338 -0.000603063 -8.90388e-21)
(-0.188707 -0.0035986 -8.36539e-21)
(-0.193996 -0.00664448 0)
(-0.19964 -0.00967745 0)
(-0.00196982 0.00909028 -1.99246e-20)
(-0.00751622 0.0214676 3.43569e-20)
(-0.0162881 0.0296452 -1.30171e-20)
(-0.0266696 0.0347556 -2.46845e-20)
(-0.0377613 0.0376337 3.48516e-20)
(-0.0491033 0.0389217 -2.19984e-20)
(-0.0603728 0.0391151 3.10334e-20)
(-0.0713442 0.0385787 1.96187e-20)
(-0.0818744 0.0375639 0)
(-0.0918775 0.036231 -1.73629e-20)
(-0.101304 0.0346702 -9.49345e-23)
(-0.110125 0.0329221 1.53302e-20)
(-0.118327 0.0309956 2.18523e-20)
(-0.125899 0.028882 2.74413e-20)
(-0.132833 0.0265658 -1.27813e-20)
(-0.139121 0.0240342 -3.6363e-20)
(-0.144756 0.0212844 1.15164e-20)
(-0.14973 0.0183316 -4.31351e-20)
(-0.154047 0.0152169 0)
(-0.157732 0.01201 9.46197e-21)
(-0.160829 0.00881165 8.89181e-21)
(-0.163384 0.00575582 8.35386e-21)
(-0.165522 0.0030339 0)
(-0.167849 0.000865827 0)
(-0.00290306 0.0120659 0)
(-0.00937929 0.0286615 6.95317e-20)
(-0.0181621 0.0397665 -2.62156e-20)
(-0.0279837 0.0468415 2.47701e-20)
(-0.0381335 0.0509574 -7.03343e-20)
(-0.0482508 0.0529381 0)
(-0.0580764 0.0534253 -4.17701e-20)
(-0.0674241 0.0528987 1.96874e-20)
(-0.0761713 0.0516978 -3.72466e-20)
(-0.0842395 0.0500475 1.76935e-20)
(-0.0915786 0.0480837 9.91789e-20)
(-0.0981554 0.0458772 -4.6596e-20)
(-0.103946 0.0434543 -7.32949e-20)
(-0.108931 0.0408146 -2.79139e-20)
(-0.113089 0.0379448 -1.63252e-22)
(-0.116398 0.0348303 9.80363e-20)
(-0.118831 0.0314661 -4.60957e-20)
(-0.120354 0.0278685 -2.22736e-22)
(-0.120933 0.0240883 0)
(-0.12055 0.0202255 -3.86527e-20)
(-0.119199 0.0164445 0)
(-0.116814 0.0129944 -3.38099e-20)
(-0.113283 0.0102582 1.2757e-19)
(-0.109469 0.00872827 1.98849e-22)
(-0.00406534 0.014389 0)
(-0.011729 0.0344278 3.03276e-22)
(-0.0205407 0.0480398 2.66441e-20)
(-0.0296383 0.056865 -2.51932e-20)
(-0.0385353 0.0621254 2.34151e-20)
(-0.0469912 0.0647756 1.33874e-19)
(-0.0548283 0.0655705 -4.19733e-20)
(-0.0619126 0.065084 -3.97857e-20)
(-0.0681511 0.0637321 7.47299e-20)
(-0.0734784 0.0617989 -1.05668e-19)
(-0.0778463 0.059465 3.32408e-20)
(-0.0812169 0.0568323 3.14343e-20)
(-0.0835572 0.053947 0)
(-0.0848361 0.0508191 2.77122e-20)
(-0.0850209 0.047437 0)
(-0.0840757 0.0437809 4.96226e-20)
(-0.0819584 0.039834 -9.32591e-20)
(-0.0786182 0.0355952 2.15786e-20)
(-0.0739944 0.0310955 8.24198e-20)
(-0.0680294 0.0264202 3.8614e-20)
(-0.0606846 0.0217454 0)
(-0.051823 0.0174089 -1.02551e-19)
(-0.0409431 0.0140586 3.20551e-20)
(-0.0285243 0.0127029 0)
(-0.00534426 0.0159731 0)
(-0.0143603 0.0385287 -8.49188e-20)
(-0.0232378 0.054097 -2.69909e-20)
(-0.0315141 0.064351 -5.05676e-20)
(-0.0389313 0.0705794 4.76151e-20)
(-0.0453786 0.0738147 -4.47339e-20)
(-0.0507697 0.0748879 8.47985e-20)
(-0.0550336 0.0744429 3.99551e-20)
(-0.0581145 0.0729566 -1.12662e-19)
(-0.0599654 0.0707645 7.10635e-20)
(-0.0605427 0.0680881 -1.00238e-19)
(-0.0598036 0.0650611 2.21127e-19)
(-0.0577039 0.061753 -1.18688e-19)
(-0.0541977 0.0581885 5.61968e-20)
(-0.0492365 0.0543638 1.58795e-19)
(-0.0427684 0.0502589 -4.9244e-20)
(-0.0347379 0.0458481 -4.67201e-20)
(-0.0250831 0.0411103 -4.39101e-20)
(-0.0137331 0.0360416 0)
(-0.000616011 0.0306732 -7.81989e-20)
(0.0143109 0.0251097 -7.34508e-20)
(0.0311536 0.0196456 1.03318e-19)
(0.0506881 0.0151187 1.28753e-19)
(0.0736437 0.0132295 -1.21413e-19)
(-0.0066368 0.0168234 0)
(-0.0170723 0.0409053 -1.1507e-19)
(-0.0260543 0.0577743 -3.76972e-22)
(-0.0334583 0.0690243 1.02014e-19)
(-0.0392328 0.0759428 0)
(-0.0433925 0.0795942 0)
(-0.0459454 0.0808511 0)
(-0.0468876 0.0804017 -4.01585e-20)
(-0.0462049 0.0787661 -1.68075e-22)
(-0.0438707 0.0763195 7.13051e-20)
(-0.0398454 0.0733185 -1.00868e-19)
(-0.0340777 0.0699267 -1.35516e-22)
(-0.0265061 0.0662385 0)
(-0.0170615 0.0622987 -5.61714e-20)
(-0.0056695 0.0581189 5.34063e-20)
(0.00774713 0.05369 -1.49938e-19)
(0.0232661 0.048992 1.88527e-19)
(0.0409627 0.0440023 4.48137e-20)
(0.0609084 0.0387025 3.26096e-22)
(0.083166 0.0330862 -1.56849e-19)
(0.107749 0.0271721 -7.37144e-20)
(0.134668 0.0210804 2.41571e-19)
(0.164243 0.0155191 -1.61854e-19)
(0.201419 0.0129077 0)
(-0.00786874 0.0170269 5.66573e-20)
(-0.0196954 0.0416662 5.76892e-20)
(-0.0287882 0.0591121 -5.50222e-20)
(-0.0352652 0.0708242 -1.03084e-19)
(-0.0392411 0.0780507 9.7062e-20)
(-0.0408415 0.0818558 -9.13699e-20)
(-0.040162 0.0831262 1.29093e-19)
(-0.037262 0.0825714 -4.01678e-20)
(-0.0321651 0.0807365 7.61408e-20)
(-0.0248602 0.0780234 0)
(-0.0153051 0.0747155 6.78815e-20)
(-0.003431 0.0710023 -1.27303e-19)
(0.0108506 0.0670025 1.2009e-19)
(0.0276419 0.0627836 -1.12792e-19)
(0.0470509 0.0583787 0)
(0.069184 0.0537988 1.0017e-19)
(0.0941382 0.0490441 1.89056e-19)
(0.121991 0.0441101 -1.77462e-19)
(0.152788 0.0389948 -8.3467e-20)
(0.186544 0.0337035 -7.86381e-20)
(0.223134 0.0282411 2.21071e-19)
(0.262863 0.0226808 6.87819e-20)
(0.303077 0.0170239 -6.47649e-20)
(0.359477 0.0148253 5.97326e-20)
(-0.00900457 0.0167263 -5.6665e-20)
(-0.0221002 0.0410436 1.76562e-19)
(-0.0312251 0.0583217 -5.56758e-20)
(-0.0366368 0.0698937 1.0407e-19)
(-0.0385701 0.0769635 -9.79898e-20)
(-0.0372398 0.0805826 3.65333e-22)
(-0.0328125 0.081635 4.34473e-20)
(-0.0253959 0.0808344 1.63168e-19)
(-0.015037 0.0787361 7.87012e-23)
(-0.00172607 0.0757571 -7.18585e-20)
(0.0145954 0.0721997 0)
(0.034024 0.0682748 -6.39512e-20)
(0.0566804 0.0641244 1.19912e-19)
(0.0826953 0.0598405 1.13165e-19)
(0.112194 0.0554806 -5.31284e-20)
(0.145279 0.0510813 -9.53261e-23)
(0.18201 0.0466676 -4.71641e-20)
(0.222389 0.0422603 8.8456e-20)
(0.266334 0.0378822 8.34482e-20)
(0.313743 0.0335857 -7.83789e-20)
(0.363888 0.0293 7.30857e-20)
(0.418649 0.0255896 -6.82893e-20)
(0.468223 0.0208126 0)
(0.546555 0.0209683 -5.96508e-20)
(-0.0100439 0.0160816 5.77972e-20)
(-0.0241837 0.0393335 -5.91272e-20)
(-0.0331004 0.0557292 5.62945e-20)
(-0.0371191 0.066541 0)
(-0.036549 0.0729573 0)
(-0.0316675 0.0760226 9.33226e-20)
(-0.0226868 0.0766132 -8.71748e-20)
(-0.00973724 0.0754385 8.18652e-20)
(0.00713425 0.0730554 -3.84136e-19)
(0.0279545 0.0698893 5.25956e-23)
(0.0528069 0.0662568 6.78302e-20)
(0.0818093 0.0623883 0)
(0.115087 0.058448 -1.20064e-19)
(0.152746 0.0545514 2.25716e-19)
(0.194841 0.0507789 -1.59215e-19)
(0.241346 0.0471869 -2.49882e-19)
(0.292133 0.0438166 -2.49179e-22)
(0.346947 0.0407027 1.75798e-19)
(0.405356 0.0378589 0)
(0.467066 0.0354268 0)
(0.530076 0.0329729 -7.30777e-20)
(0.598888 0.0321474 6.82804e-20)
(0.654627 0.0288447 -2.5242e-19)
(0.749766 0.0326821 2.36797e-19)
(-0.0109968 0.0152351 0)
(-0.0258225 0.0368215 0)
(-0.0340456 0.0516981 -1.69421e-19)
(-0.0360265 0.061183 5.38753e-20)
(-0.0321235 0.0664958 4.05419e-22)
(-0.0226481 0.0686929 9.43552e-20)
(-0.00782751 0.06865 0)
(0.0122136 0.0670739 -8.23161e-20)
(0.0374465 0.0645226 7.69352e-20)
(0.0679135 0.0614293 -1.44604e-19)
(0.103693 0.0581236 6.96991e-23)
(0.144855 0.0548519 1.2749e-19)
(0.191416 0.0517937 4.894e-23)
(0.243294 0.0490758 1.12656e-19)
(0.300266 0.0467811 -1.587e-19)
(0.361939 0.0449571 0)
(0.427732 0.043621 1.86551e-19)
(0.496882 0.0427708 -2.63006e-19)
(0.568374 0.0423397 8.14731e-20)
(0.641519 0.0425077 0)
(0.713296 0.0424316 7.11489e-20)
(0.789157 0.0445037 2.6756e-19)
(0.846765 0.0428292 -2.51097e-19)
(0.943341 0.0498641 -2.90511e-19)
(-0.0118565 0.0142725 1.77838e-19)
(-0.0268111 0.0337149 -2.44522e-19)
(-0.0335111 0.0465658 5.29033e-22)
(-0.0323758 0.0542926 5.43765e-20)
(-0.0238041 0.0581972 -1.01274e-19)
(-0.00812099 0.0593755 -9.3897e-20)
(0.0144528 0.0587189 1.75986e-19)
(0.0438037 0.0569403 -1.12801e-21)
(0.0798961 0.0546044 -1.54921e-19)
(0.122718 0.0521504 2.89593e-19)
(0.172214 0.049912 -2.92518e-22)
(0.228217 0.0481334 -1.2748e-19)
(0.290382 0.0469794 0)
(0.358143 0.0465431 0)
(0.430681 0.0468513 -5.27508e-20)
(0.50693 0.0478699 -9.81874e-20)
(0.585598 0.0495121 -1.84653e-19)
(0.665228 0.0516445 1.73329e-19)
(0.744227 0.0540877 -8.1504e-20)
(0.821222 0.0567675 1.50642e-19)
(0.893698 0.0590346 -7.22019e-20)
(0.964421 0.0623615 1.29964e-19)
(1.01812 0.0620468 -3.05684e-19)
(1.0962 0.069107 5.73595e-20)
(-0.0125556 0.0132057 6.00388e-20)
(-0.0267918 0.0301136 0)
(-0.0307032 0.0406012 1.16163e-19)
(-0.0248449 0.046355 -1.0943e-19)
(-0.0096734 0.0487975 1.01367e-19)
(0.0144717 0.0490893 0)
(0.0473566 0.0481531 0)
(0.0888183 0.0467146 -8.2854e-20)
(0.138688 0.0453383 7.99043e-22)
(0.196695 0.04445 7.30888e-20)
(0.262372 0.0443521 -6.78178e-20)
(0.334968 0.0452304 1.27569e-19)
(0.413409 0.0471592 0)
(0.496289 0.0501062 2.23053e-19)
(0.581905 0.0539423 -4.18144e-19)
(0.668345 0.0584533 2.94196e-19)
(0.753584 0.0633646 1.82142e-19)
(0.835604 0.0683379 -1.70976e-19)
(0.912564 0.0730988 0)
(0.982744 0.0771408 0)
(1.04506 0.0805848 0)
(1.0989 0.0825054 0)
(1.14108 0.0832532 6.01381e-20)
(1.18729 0.0849604 -2.20027e-19)
(-0.207042 -0.0132633 -5.19934e-21)
(-0.217492 -0.018651 5.22453e-21)
(-0.227871 -0.0244461 -1.60405e-22)
(-0.238573 -0.0304724 0)
(-0.249547 -0.0366146 -4.85014e-21)
(-0.260708 -0.0426999 9.44113e-21)
(-0.271932 -0.0485142 5.66852e-24)
(-0.283036 -0.0538 -4.47207e-21)
(-0.293771 -0.0582559 0)
(-0.303814 -0.0615442 0)
(-0.31277 -0.0633029 -2.53963e-22)
(-0.320164 -0.0631644 -2.44275e-22)
(-0.325446 -0.0607781 -3.976e-21)
(-0.327988 -0.0558555 3.6371e-21)
(-0.327097 -0.0482348 0)
(-0.322054 -0.037953 0)
(-0.312153 -0.0253078 2.85846e-21)
(-0.296773 -0.0109216 -2.03415e-22)
(-0.275475 0.00475524 -2.35531e-21)
(-0.248067 0.0203183 -1.27257e-22)
(-0.214246 0.0349158 0)
(-0.174133 0.0475499 0)
(-0.128078 0.0567076 0)
(-0.0766082 0.0609853 0)
(-0.0202745 0.0603287 0)
(0.0401522 0.0548759 0)
(0.103255 0.0456201 -3.66213e-23)
(0.167823 0.0334211 4.73506e-23)
(0.232722 0.0197445 0)
(0.296353 0.00609395 0)
(0.357269 -0.00605486 2.02561e-22)
(0.414434 -0.0156948 -1.96857e-22)
(0.467176 -0.0226801 -1.00579e-22)
(0.515104 -0.0266228 0)
(0.558311 -0.0281195 0)
(0.597189 -0.0269983 -1.64672e-22)
(0.632288 -0.0243056 1.60066e-22)
(0.664309 -0.0197448 0)
(0.693732 -0.0146368 -1.1724e-22)
(0.721183 -0.00840821 1.68348e-22)
(0.746691 -0.00269629 -4.77083e-23)
(0.770658 0.00353148 0)
(0.792761 0.00837206 6.83121e-23)
(0.81337 0.0133009 -6.64255e-23)
(0.832033 0.0162235 0)
(0.849273 0.0193705 0)
(0.864661 0.0202381 1.91761e-23)
(0.878969 0.0218757 -5.37217e-23)
(0.891675 0.0212488 0)
(0.903734 0.0220686 0)
(0.91452 0.020653 1.01141e-23)
(0.925311 0.0213784 -4.77151e-26)
(0.935162 0.0198627 1.19665e-24)
(0.945548 0.0211252 -5.78021e-24)
(0.954595 0.0198956 0)
(0.964207 0.02177 0)
(0.971289 0.0207883 0)
(0.979347 0.0231805 0)
(0.983263 0.0225431 0)
(0.990188 0.0255115 0)
(-0.172046 -0.0012775 -5.12177e-22)
(-0.181463 -0.00651447 -2.12915e-20)
(-0.190441 -0.0123191 1.28231e-22)
(-0.199755 -0.0183598 1.98547e-20)
(-0.209482 -0.0245819 3.0854e-22)
(-0.219569 -0.0308618 0)
(-0.229941 -0.0370313 -1.82539e-20)
(-0.240473 -0.04288 3.60057e-20)
(-0.250976 -0.0481557 -1.77481e-20)
(-0.261187 -0.0525693 1.67737e-20)
(-0.270761 -0.055803 -1.60501e-20)
(-0.279255 -0.0575236 1.51955e-20)
(-0.286129 -0.0574057 -1.47675e-20)
(-0.290737 -0.055171 -4.37057e-22)
(-0.292341 -0.0506403 -1.30132e-20)
(-0.290134 -0.0437897 1.26466e-20)
(-0.283288 -0.0347939 -1.10252e-20)
(-0.271012 -0.0240792 1.03953e-20)
(-0.252724 -0.01233 -8.8684e-21)
(-0.227729 -0.000440258 1.60811e-20)
(-0.1953 0.010758 -7.26692e-21)
(-0.155719 0.0195121 -3.41474e-22)
(-0.109315 0.0254306 -3.70095e-21)
(-0.0562401 0.0271845 6.15179e-21)
(0.00290607 0.0253477 -2.48328e-21)
(0.0671205 0.0193073 6.97683e-23)
(0.134411 0.00927991 -1.14785e-22)
(0.202876 -0.00248979 -5.89941e-22)
(0.270912 -0.0146184 1.77656e-21)
(0.336633 -0.025864 -2.4583e-21)
(0.398589 -0.0350415 1.34413e-21)
(0.455257 -0.0413522 -1.9041e-22)
(0.506222 -0.0449997 1.00779e-22)
(0.551163 -0.0458446 -1.90102e-22)
(0.590587 -0.0445994 0)
(0.624935 -0.0411715 0)
(0.65522 -0.0366109 5.94804e-22)
(0.682169 -0.0305803 -4.39642e-22)
(0.706754 -0.0243328 -3.49059e-22)
(0.729572 -0.0171987 -1.14431e-23)
(0.751137 -0.0107303 4.52647e-22)
(0.771729 -0.00384987 -8.4175e-23)
(0.791322 0.00161343 0)
(0.810044 0.00728398 0)
(0.827636 0.0108409 0)
(0.844271 0.0145753 0)
(0.859602 0.015975 -8.20744e-23)
(0.874071 0.0180903 3.51052e-23)
(0.88721 0.0178759 0)
(0.899726 0.0190449 0)
(0.911052 0.0178906 0)
(0.922338 0.0188141 1.58095e-23)
(0.932695 0.0174378 -2.53678e-24)
(0.94356 0.0188623 1.26639e-23)
(0.953061 0.0178068 0)
(0.963114 0.0199478 0)
(0.970546 0.0192118 -5.27861e-24)
(0.978954 0.0219517 -1.2124e-23)
(0.983059 0.0215029 0)
(0.990258 0.0248323 0)
(-0.108553 0.00817828 5.3879e-22)
(-0.115759 0.00322533 -4.33469e-20)
(-0.122072 -0.00248918 4.29128e-20)
(-0.128514 -0.00845716 -4.01236e-20)
(-0.135405 -0.0146118 -3.10634e-22)
(-0.142713 -0.0208961 0)
(-0.150393 -0.0271898 -3.78342e-20)
(-0.158368 -0.033322 3.70667e-20)
(-0.16651 -0.0390864 2.74519e-22)
(-0.174625 -0.0442489 5.28938e-22)
(-0.182434 -0.0485475 5.07014e-22)
(-0.189561 -0.0517012 4.87512e-22)
(-0.195515 -0.0534306 -2.91325e-20)
(-0.199687 -0.0534921 2.87522e-20)
(-0.20135 -0.0517224 0)
(-0.199676 -0.048085 7.54573e-22)
(-0.193775 -0.0427085 -2.15908e-20)
(-0.182757 -0.0359122 2.13005e-20)
(-0.165822 -0.0282279 0)
(-0.142219 -0.0202333 0)
(-0.111625 -0.013152 -1.27493e-20)
(-0.0734711 -0.00820587 2.26086e-20)
(-0.0277249 -0.0058034 -1.72589e-20)
(0.0253899 -0.00661438 2.1814e-21)
(0.0849341 -0.0106415 8.53921e-21)
(0.14874 -0.0180145 -5.06626e-21)
(0.215644 -0.0282513 1.73801e-21)
(0.28374 -0.0391406 -1.17166e-21)
(0.350532 -0.0493539 9.80917e-22)
(0.413854 -0.0574359 0)
(0.472349 -0.0630443 0)
(0.524647 -0.0656311 -1.15739e-21)
(0.570603 -0.065627 1.48421e-21)
(0.610028 -0.0631313 7.04918e-24)
(0.643736 -0.0590068 -1.40728e-21)
(0.672153 -0.0532123 1.36761e-21)
(0.696538 -0.0467908 0)
(0.717524 -0.0393701 -1.39079e-22)
(0.736391 -0.0321236 -1.07297e-21)
(0.753643 -0.0242798 1.97969e-21)
(0.770177 -0.0172772 -8.14716e-22)
(0.786172 -0.00999543 -8.49365e-23)
(0.802013 -0.00420768 7.09758e-22)
(0.81756 0.00187515 -5.45671e-22)
(0.832766 0.00587881 -1.11071e-22)
(0.847569 0.0100335 -9.58264e-23)
(0.861726 0.0118405 8.22828e-23)
(0.87534 0.0143486 0)
(0.888021 0.0144963 0)
(0.900199 0.0159882 1.99309e-22)
(0.911367 0.0150851 -9.37386e-23)
(0.922509 0.016203 7.34627e-23)
(0.932793 0.0149654 -9.20585e-23)
(0.943595 0.0165508 -9.76281e-23)
(0.953069 0.0156696 2.29412e-23)
(0.963136 0.0180801 -3.27636e-23)
(0.970583 0.0175939 2.47244e-23)
(0.979065 0.0206896 -1.03777e-23)
(0.983192 0.0204339 0)
(0.990494 0.0241346 0)
(-0.0221421 0.0132529 -9.08305e-20)
(-0.0267998 0.00931586 6.75056e-22)
(-0.0299984 0.00384966 8.55059e-20)
(-0.0329708 -0.00206078 -6.52037e-22)
(-0.0362929 -0.0080945 0)
(-0.0400071 -0.0142654 0)
(-0.0440547 -0.0205288 -7.68188e-20)
(-0.048376 -0.0267387 -3.16735e-23)
(-0.0528952 -0.0327272 1.07438e-19)
(-0.0574874 -0.0383172 -9.89698e-22)
(-0.0619504 -0.0433097 -3.34998e-20)
(-0.065988 -0.0474863 -2.98588e-20)
(-0.0691943 -0.0506274 2.99626e-20)
(-0.0710404 -0.0525415 0)
(-0.070871 -0.0531019 -2.55188e-20)
(-0.067914 -0.052287 2.32798e-20)
(-0.061306 -0.0502134 0)
(-0.0501597 -0.0471545 0)
(-0.0336446 -0.0435536 1.71073e-20)
(-0.0110649 -0.0400086 -1.79814e-21)
(0.0183174 -0.0373055 -1.39792e-20)
(0.0548961 -0.0358594 -1.05935e-20)
(0.0985339 -0.0367818 1.05278e-20)
(0.149032 -0.0400591 -6.1086e-21)
(0.205504 -0.0465061 1.94487e-21)
(0.266137 -0.0551808 3.81865e-21)
(0.329153 -0.0645784 1.69061e-22)
(0.392333 -0.0737656 -3.03025e-23)
(0.453452 -0.0814525 0)
(0.510363 -0.0863986 -2.21514e-21)
(0.561914 -0.0884001 2.29524e-21)
(0.607031 -0.0872719 -1.80058e-22)
(0.64586 -0.0836901 0)
(0.678391 -0.0779522 1.85257e-22)
(0.705621 -0.0710637 -2.75297e-21)
(0.727926 -0.06302 4.9163e-21)
(0.746583 -0.0548436 1.55566e-22)
(0.762036 -0.0461323 -1.60335e-22)
(0.775624 -0.037991 -1.81612e-21)
(0.787689 -0.0295718 -2.20523e-22)
(0.799344 -0.022215 1.47838e-21)
(0.810667 -0.0146935 -1.26637e-21)
(0.822366 -0.0087133 -6.04954e-25)
(0.834193 -0.00261946 -4.88355e-22)
(0.846316 0.00162546 5.86222e-22)
(0.858483 0.00603629 6.51856e-22)
(0.870623 0.00810388 -1.87689e-22)
(0.882566 0.0108922 -2.67074e-22)
(0.894006 0.0113224 4.87267e-22)
(0.905129 0.0130846 -3.2454e-22)
(0.915478 0.0124007 7.59987e-23)
(0.925868 0.0136919 -9.52961e-23)
(0.935507 0.0125772 -7.16784e-23)
(0.945714 0.0143076 1.48702e-22)
(0.954676 0.0135848 -4.1919e-24)
(0.964329 0.0162487 3.27949e-23)
(0.971447 0.0159985 0)
(0.979714 0.0194391 1.03924e-23)
(0.98369 0.0193693 -1.32428e-23)
(0.99091 0.0234355 0)
(0.084524 0.0142112 9.2776e-20)
(0.0827332 0.0116259 -1.81179e-19)
(0.0813236 0.00652858 8.74147e-20)
(0.0812022 0.000683387 8.54959e-20)
(0.0811175 -0.00525571 -1.66688e-19)
(0.0807299 -0.0113004 9.70876e-22)
(0.0801141 -0.017486 7.86314e-20)
(0.0793678 -0.0236922 7.47135e-20)
(0.078531 -0.029775 -7.31809e-20)
(0.0776726 -0.0356032 0)
(0.0769292 -0.0410352 -6.55664e-20)
(0.076514 -0.0459156 1.2596e-19)
(0.0767339 -0.0500885 -6.04878e-20)
(0.0780072 -0.0534184 0)
(0.0808765 -0.0558166 0)
(0.0860103 -0.0572717 7.64334e-22)
(0.0941932 -0.0578806 -4.33594e-20)
(0.106251 -0.0578818 4.21216e-20)
(0.122925 -0.0576669 0)
(0.144859 -0.0577055 3.13926e-20)
(0.17272 -0.0584485 -5.54516e-20)
(0.206901 -0.0606256 4.67198e-20)
(0.247328 -0.0646047 -3.86789e-20)
(0.293663 -0.0704865 3.67286e-21)
(0.34498 -0.078336 2.21191e-20)
(0.399581 -0.0874655 -9.09087e-21)
(0.455622 -0.096537 -1.01883e-22)
(0.510837 -0.104232 1.05394e-22)
(0.563242 -0.109465 1.03215e-21)
(0.610998 -0.111353 -1.08828e-21)
(0.653313 -0.109967 -1.44788e-22)
(0.689544 -0.105452 2.6668e-21)
(0.720127 -0.0986958 -5.37421e-21)
(0.745249 -0.0901174 3.03738e-21)
(0.765978 -0.0808179 0)
(0.78264 -0.0708187 2.83368e-21)
(0.796368 -0.0611064 -2.73752e-21)
(0.80738 -0.0512506 1.83137e-21)
(0.816863 -0.0423085 -2.28653e-21)
(0.824946 -0.0333841 2.16908e-22)
(0.832745 -0.0257465 0)
(0.840236 -0.0181052 1.69467e-22)
(0.848277 -0.012069 -4.4659e-22)
(0.856637 -0.00600067 0)
(0.86567 -0.00183945 -1.06962e-21)
(0.874983 0.0027426 4.36422e-22)
(0.884714 0.00494738 -1.66358e-22)
(0.894533 0.00790293 -1.42145e-22)
(0.904222 0.00852579 0)
(0.913795 0.0104915 0)
(0.922828 0.00998069 2.50701e-22)
(0.931997 0.011412 -3.69059e-22)
(0.940533 0.0103937 1.94423e-22)
(0.949705 0.0122415 -5.91659e-23)
(0.957745 0.0116475 -9.09824e-23)
(0.96661 0.0145323 -3.28261e-23)
(0.973091 0.0144884 4.91402e-23)
(0.98088 0.018245 0)
(0.984547 0.0183429 2.16966e-23)
(0.991506 0.0227527 5.58645e-24)
(0.213907 0.0138429 9.4853e-20)
(0.213915 0.0115611 -9.41741e-20)
(0.212693 0.00663082 7.02522e-22)
(0.213647 0.000856542 -6.82195e-22)
(0.215348 -0.00503617 6.61808e-22)
(0.216996 -0.0110596 -6.41024e-22)
(0.218569 -0.0172585 1.23761e-21)
(0.220214 -0.023523 0)
(0.221969 -0.0297234 -1.14617e-21)
(0.223863 -0.0357571 1.09809e-21)
(0.225983 -0.0415224 1.0483e-21)
(0.228479 -0.0469132 -1.00104e-21)
(0.231568 -0.0518301 0)
(0.235559 -0.0561937 0)
(0.240869 -0.0599593 8.31009e-22)
(0.248032 -0.0631371 0)
(0.257701 -0.0658234 -7.11625e-22)
(0.270586 -0.0682458 0)
(0.287317 -0.0707498 -3.45798e-20)
(0.308415 -0.0736762 6.51477e-20)
(0.334441 -0.077402 -5.676e-20)
(0.36569 -0.0823511 2.63429e-20)
(0.402063 -0.0887593 1.85482e-20)
(0.443098 -0.0965901 -1.8011e-20)
(0.487844 -0.105596 -1.0845e-20)
(0.534675 -0.114932 1.04234e-20)
(0.581782 -0.123321 0)
(0.627063 -0.129411 8.29853e-23)
(0.668883 -0.132306 0)
(0.705902 -0.131428 0)
(0.737794 -0.127124 -3.93544e-21)
(0.764403 -0.119795 4.0171e-21)
(0.786424 -0.110487 -2.96037e-22)
(0.804214 -0.0996754 -3.37545e-22)
(0.818805 -0.0884831 3.11084e-22)
(0.830478 -0.0769493 2.43257e-21)
(0.840146 -0.0660152 -2.36197e-21)
(0.847822 -0.0552203 2.33602e-21)
(0.854425 -0.0455904 -2.00523e-21)
(0.859875 -0.0362079 -4.33397e-22)
(0.865115 -0.0283016 1.4728e-21)