/*--------------------------------*- C++ -*----------------------------------*\
| =========                 |                                                 |
| \\      /  F ield         | OpenFOAM: The Open Source CFD Toolbox           |
|  \\    /   O peration     | Version:  2512                                  |
|   \\  /    A nd           | Website:  www.openfoam.com                      |
|    \\/     M anipulation  |                                                 |
\*---------------------------------------------------------------------------*/
FoamFile
{
    version     2.0;
    format      ascii;
    arch        "LSB;label=32;scalar=64";
    class       volVectorField;
    location    "111.25";
    object      U;
}
// * * * * * * * * * * * * * * * * * * * * * * * * * * * * * * * * * * * * * //

dimensions      [0 1 -1 0 0 0 0];

internalField   nonuniform List<vector> 
13248
(
(-0.0120788 0.010324 6.44539e-20)
(-0.022804 0.0200544 0)
(-0.0215213 0.0231387 -1.22104e-19)
(-0.00821719 0.0225505 1.15026e-19)
(0.0172703 0.0202595 1.07459e-19)
(0.0550807 0.0175987 0)
(0.105247 0.0154998 0)
(0.167538 0.0146134 2.52986e-19)
(0.241293 0.0153713 -3.06368e-21)
(0.325296 0.0180142 -2.1767e-19)
(0.417726 0.0225942 1.9748e-19)
(0.516193 0.0289734 -1.22979e-19)
(0.61786 0.0368295 0)
(0.719637 0.0456792 -2.03743e-19)
(0.818409 0.0549187 3.78914e-19)
(0.911263 0.0638778 -8.90443e-20)
(0.995693 0.0718869 -1.59534e-19)
(1.06976 0.0783161 1.49762e-19)
(1.13221 0.0827183 0)
(1.1825 0.0845101 0)
(1.22078 0.0842004 0)
(1.24789 0.0794569 0)
(1.26497 0.0762719 4.81808e-20)
(1.27448 0.0593264 1.80657e-19)
(-0.0126814 0.00998617 -1.94828e-19)
(-0.0199326 0.0182102 1.33132e-19)
(-0.010665 0.0201402 -1.18351e-21)
(0.0143353 0.0187888 -1.75941e-19)
(0.0547134 0.0162764 -1.0734e-19)
(0.110126 0.0141085 -1.013e-19)
(0.179948 0.0133214 -1.84094e-19)
(0.263013 0.0145828 1.74428e-19)
(0.357424 0.0182425 0)
(0.460483 0.0243503 1.57672e-21)
(0.568787 0.0326696 3.80228e-21)
(0.678465 0.0427061 1.2423e-19)
(0.785515 0.0537643 0)
(0.886173 0.0650279 0)
(0.97724 0.0756535 1.3999e-19)
(1.05633 0.0848646 -2.62801e-19)
(1.12204 0.0920313 1.57375e-19)
(1.17394 0.0967228 -1.47748e-19)
(1.21256 0.0987339 -6.59117e-20)
(1.23922 0.0980581 -1.20955e-19)
(1.25571 0.0949384 -5.19198e-20)
(1.26441 0.0894039 -9.80628e-20)
(1.26667 0.0831996 1.41397e-19)
(1.26669 0.0727198 4.13773e-20)
(-0.0119847 0.00874265 0)
(-0.0130602 0.0145289 0)
(0.00714366 0.0152481 6.22376e-20)
(0.0469871 0.0137243 5.71885e-20)
(0.105396 0.012078 -1.67872e-21)
(0.181171 0.011866 -1.05047e-19)
(0.27249 0.0140864 0)
(0.376616 0.0192395 -8.63693e-20)
(0.489804 0.0273687 8.08482e-20)
(0.607465 0.0380966 1.02468e-21)
(0.72456 0.0506933 -1.35128e-19)
(0.836128 0.0641868 -1.22201e-19)
(0.937825 0.077505 3.09149e-21)
(1.02635 0.0896241 -9.90077e-20)
(1.09973 0.0996976 2.3868e-19)
(1.15733 0.107145 0)
(1.19981 0.111689 -1.54336e-19)
(1.22884 0.113338 7.45466e-20)
(1.24677 0.112362 6.58564e-20)
(1.25616 0.109088 0)
(1.25958 0.104231 5.48208e-20)
(1.25913 0.0975716 -1.9152e-19)
(1.25616 0.0915823 1.79789e-19)
(1.25332 0.0814789 1.16087e-19)
(-0.00966911 0.00674384 -6.93984e-20)
(-0.00131747 0.0094082 -7.183e-20)
(0.0331141 0.00911558 6.47597e-20)
(0.0909981 0.00828817 0)
(0.170192 0.00887167 0)
(0.26808 0.0122858 -2.42679e-21)
(0.380952 0.019245 0)
(0.503852 0.0297873 -2.64828e-19)
(0.630816 0.0433514 2.44901e-19)
(0.755468 0.0589025 -3.00388e-19)
(0.871796 0.075124 6.78748e-20)
(0.974896 0.0906464 0)
(1.0615 0.104265 1.1144e-19)
(1.13017 0.1151 -2.05836e-19)
(1.18126 0.122681 4.86996e-20)
(1.21651 0.126942 1.24397e-19)
(1.23862 0.128143 -5.56352e-21)
(1.25069 0.126764 -1.39338e-19)
(1.25569 0.123364 0)
(1.25615 0.118498 0)
(1.25396 0.112665 -5.02101e-20)
(1.25033 0.106012 4.52745e-20)
(1.24589 0.099837 1.64258e-19)
(1.24175 0.0908119 -1.54193e-19)
(-0.00541828 0.00422705 -7.35295e-20)
(0.0161085 0.00353124 -7.30667e-20)
(0.0682846 0.0028551 2.054e-19)
(0.147214 0.00398732 -1.24204e-19)
(0.24914 0.00845896 1.1691e-19)
(0.369298 0.0172567 2.11281e-19)
(0.501391 0.0304489 -1.49231e-19)
(0.637874 0.0472476 -1.80185e-19)
(0.770798 0.0662278 4.56378e-21)
(0.892905 0.0856365 2.2828e-19)
(0.998633 0.10374 0)
(1.08473 0.119128 6.22049e-20)
(1.15037 0.130908 0)
(1.19686 0.138752 -9.98931e-20)
(1.22699 0.142833 1.40115e-19)
(1.24429 0.143669 9.59879e-22)
(1.25238 0.141944 -3.67538e-20)
(1.25441 0.138346 6.82845e-20)
(1.25283 0.133472 5.93745e-20)
(1.24928 0.127762 -5.33569e-20)
(1.24477 0.12156 5.01995e-20)
(1.23983 0.114922 -4.52645e-20)
(1.23463 0.108665 0)
(1.22988 0.100329 -3.46957e-20)
(0.00109122 0.00148975 7.3519e-20)
(0.0399221 -0.00220462 7.73281e-20)
(0.113342 -0.00208778 -6.88586e-20)
(0.215724 0.00268525 1.28111e-19)
(0.340969 0.0128725 -1.2058e-19)
(0.4814 0.0286008 1.08474e-19)
(0.627729 0.0488585 -5.22465e-20)
(0.77013 0.0717339 1.35446e-19)
(0.899765 0.0949041 -8.52858e-20)
(1.01015 0.116157 1.49539e-19)
(1.09787 0.133808 -3.44369e-19)
(1.16265 0.146927 1.26519e-19)
(1.20665 0.155338 -1.09322e-19)
(1.2336 0.159465 1.02686e-19)
(1.24778 0.160082 8.80397e-20)
(1.25322 0.15807 7.69265e-20)
(1.25321 0.154238 -2.14556e-19)
(1.25013 0.149224 1.32955e-19)
(1.24552 0.143476 -5.93779e-20)
(1.24026 0.137285 1.55469e-19)
(1.23481 0.130829 -5.02193e-20)
(1.22935 0.124185 -1.22898e-19)
(1.22394 0.117765 1.13563e-19)
(1.21884 0.109934 3.46855e-20)
(0.0101686 -0.00111835 0)
(0.0706073 -0.00675584 7.26954e-22)
(0.168385 -0.00411022 1.44607e-19)
(0.295525 0.00628079 -1.35554e-19)
(0.442798 0.0238973 -1.2173e-19)
(0.599121 0.047494 2.25938e-19)
(0.752495 0.0746224 -1.04781e-19)
(0.892019 0.102218 1.38666e-19)
(1.00979 0.127397 -3.36574e-21)
(1.1019 0.148055 -7.82562e-20)
(1.16834 0.163142 1.68975e-19)
(1.21203 0.172606 -2.49322e-19)
(1.23756 0.177116 0)
(1.24992 0.177714 -4.85537e-20)
(1.2536 0.175492 -1.28879e-19)
(1.25208 0.171397 4.06635e-20)
(1.24778 0.166135 1.61494e-21)
(1.24222 0.160183 -8.83449e-20)
(1.23622 0.153835 5.57838e-21)
(1.2302 0.147264 1.02208e-19)
(1.22433 0.140573 -4.56539e-20)
(1.21862 0.13383 -1.74398e-20)
(1.21304 0.127186 5.34786e-20)
(1.20768 0.119732 0)
(0.0220537 -0.00319016 0)
(0.108281 -0.00898714 3.92954e-20)
(0.232713 -0.00161923 -1.89477e-19)
(0.384352 0.0164117 6.86915e-20)
(0.550252 0.0426944 -6.46493e-20)
(0.716067 0.0741561 -5.89899e-20)
(0.868284 0.106841 -1.03607e-19)
(0.996863 0.136912 5.20511e-20)
(1.09676 0.161583 4.48234e-20)
(1.16782 0.179511 0)
(1.21356 0.190685 1.00837e-19)
(1.2394 0.19601 -1.49764e-19)
(1.2511 0.196817 1.11182e-19)
(1.25371 0.194455 4.85794e-20)
(1.25106 0.19005 -3.9663e-20)
(1.24573 0.184422 -3.28512e-20)
(1.23928 0.178105 -3.05963e-20)
(1.23255 0.171419 9.20357e-20)
(1.22593 0.164547 0)
(1.21959 0.157589 4.60741e-20)
(1.21353 0.150608 3.87484e-20)
(1.20771 0.143653 -9.62785e-20)
(1.20208 0.136735 -6.60755e-20)
(1.19659 0.129512 6.09339e-20)
(0.0368476 -0.00426368 -4.28811e-20)
(0.152556 -0.00773698 -1.79546e-21)
(0.304718 0.00680915 3.86386e-20)
(0.478781 0.0342245 1.07991e-19)
(0.65803 0.0696124 3.12596e-20)
(0.82589 0.107885 -6.05332e-20)
(0.969294 0.143944 5.51019e-20)
(1.08112 0.173918 -4.79923e-20)
(1.16044 0.195858 8.58355e-20)
(1.21102 0.209633 3.61936e-20)
(1.23909 0.216349 -1.03056e-19)
(1.25133 0.217666 3.01162e-20)
(1.25354 0.215257 5.11201e-20)
(1.25009 0.210503 -2.52059e-20)
(1.24385 0.204389 0)
(1.23653 0.197548 3.70864e-20)
(1.22902 0.190346 6.24367e-20)
(1.22175 0.182987 1.04574e-20)
(1.21486 0.175579 -5.18966e-20)
(1.20837 0.168183 2.15729e-20)
(1.20223 0.160842 0)
(1.19639 0.153575 -1.68789e-20)
(1.19074 0.146352 -1.61052e-20)
(1.1852 0.139216 0)
(0.0544463 -0.0038438 0)
(0.202452 -0.00190925 2.25157e-20)
(0.381918 0.0222778 4.16082e-20)
(0.574588 0.0602349 -1.10437e-19)
(0.760731 0.104207 3.57988e-20)
(0.923398 0.14735 0)
(1.05216 0.184202 5.31932e-20)
(1.1443 0.211715 -7.42485e-20)
(1.20328 0.229331 -4.29395e-20)
(1.23602 0.238257 1.92798e-20)
(1.25028 0.240521 -3.06499e-20)
(1.2529 0.238219 7.45158e-20)
(1.24901 0.233086 3.68977e-20)
(1.24199 0.226356 -2.58492e-20)
(1.23381 0.218809 -2.61016e-21)
(1.22549 0.210892 -6.93912e-20)
(1.2175 0.202845 3.15187e-20)
(1.21 0.19479 -8.50327e-22)
(1.20301 0.186791 0)
(1.19651 0.17889 -2.15956e-20)
(1.1904 0.171111 0)
(1.18459 0.163447 4.84638e-20)
(1.17901 0.155895 -5.75032e-20)
(1.1735 0.14869 2.61721e-20)
(0.0744951 -0.00143997 -1.18467e-20)
(0.256382 0.00942248 -5.68437e-20)
(0.461137 0.045446 6.4759e-20)
(0.667267 0.0942931 3.78798e-20)
(0.853626 0.145412 -1.80789e-20)
(1.00516 0.19095 3.02259e-20)
(1.11586 0.226082 -1.46868e-20)
(1.18794 0.249298 2.42528e-20)
(1.2287 0.261668 0)
(1.24707 0.265584 5.43494e-20)
(1.25123 0.263681 -2.42774e-21)
(1.24744 0.258191 -4.3522e-20)
(1.23982 0.250716 1.84797e-20)
(1.2308 0.242265 -2.06661e-20)
(1.22163 0.23341 -7.70136e-21)
(1.21287 0.22445 9.07994e-21)
(1.2047 0.215531 -6.88607e-21)
(1.19716 0.206727 -3.72707e-20)
(1.19022 0.198078 2.27959e-20)
(1.1838 0.189609 4.60525e-21)
(1.1778 0.181325 4.03336e-21)
(1.17211 0.173208 3.53465e-21)
(1.16664 0.165319 0)
(1.16122 0.157884 0)
(0.0964463 0.00339853 1.18549e-20)
(0.312361 0.0269291 -1.18281e-20)
(0.538958 0.076453 -2.1593e-20)
(0.75271 0.135639 0)
(0.933245 0.191777 -8.98741e-21)
(1.06952 0.237118 -8.09748e-21)
(1.16094 0.268415 -1.37617e-20)
(1.21439 0.28612 0)
(1.23991 0.292863 0)
(1.24736 0.291925 0)
(1.24451 0.286223 0)
(1.23665 0.277904 0)
(1.2269 0.268332 -1.15725e-20)
(1.21687 0.25828 5.25775e-21)
(1.20729 0.248143 9.05989e-21)
(1.19841 0.238109 4.23067e-21)
(1.19029 0.228263 1.03434e-20)
(1.18287 0.218645 0)
(1.1761 0.20928 -2.42899e-21)
(1.16989 0.20018 -2.33213e-21)
(1.16411 0.191333 -4.03981e-21)
(1.15866 0.182729 -3.54032e-21)
(1.15341 0.174491 0)
(1.14821 0.166672 2.48159e-21)
(-0.000987376 -0.0243595 8.64232e-21)
(-0.00696387 -0.0484728 -8.97774e-21)
(-0.0187678 -0.056149 -1.69976e-20)
(-0.0334771 -0.0529422 0)
(-0.0495147 -0.0430882 -2.28365e-20)
(-0.0661262 -0.0295259 7.24863e-21)
(-0.0828153 -0.0140237 -1.34299e-20)
(-0.0992266 0.00258383 0)
(-0.115113 0.02011 0)
(-0.130279 0.0387182 0)
(-0.144542 0.0587078 0)
(-0.157731 0.0803606 0)
(-0.169671 0.103862 2.54632e-22)
(-0.180176 0.12926 -8.89285e-21)
(-0.18904 0.156455 1.61197e-20)
(-0.196039 0.185197 2.2811e-20)
(-0.200931 0.215084 6.76148e-21)
(-0.203465 0.245556 0)
(-0.203393 0.275897 6.28893e-21)
(-0.200496 0.305257 -1.72944e-20)
(-0.194583 0.332689 -1.06383e-20)
(-0.185462 0.357192 -9.95561e-21)
(-0.173054 0.377793 0)
(-0.157858 0.393755 0)
(0.000115853 -0.0190221 -2.57116e-20)
(-0.00471894 -0.0363548 4.45375e-20)
(-0.0158253 -0.0398702 -1.63886e-20)
(-0.0300194 -0.0341836 -3.15702e-20)
(-0.0455419 -0.0229377 4.48508e-20)
(-0.0615195 -0.00870321 -2.79924e-20)
(-0.0773944 0.00696815 3.97551e-20)
(-0.0927875 0.0233513 2.43018e-20)
(-0.107432 0.0402962 0)
(-0.121112 0.0579872 -2.21811e-20)
(-0.133619 0.0767234 1.39412e-22)
(-0.144743 0.0967768 1.96504e-20)
(-0.154264 0.118312 2.66138e-20)
(-0.16194 0.141354 3.32878e-20)
(-0.167513 0.165776 -1.63059e-20)
(-0.170705 0.191303 -4.41966e-20)
(-0.171223 0.217514 1.2969e-20)
(-0.168768 0.243847 -4.98271e-20)
(-0.163046 0.269614 0)
(-0.153795 0.294016 1.1373e-20)
(-0.140797 0.316203 1.06212e-20)
(-0.123826 0.335334 9.93918e-21)
(-0.102611 0.350726 0)
(-0.0776452 0.362148 0)
(0.00069241 -0.0140053 0)
(-0.00341748 -0.0251198 8.57908e-20)
(-0.0136725 -0.0249802 -3.24405e-20)
(-0.0268632 -0.017277 3.10062e-20)
(-0.0411568 -0.00504544 -8.61452e-20)
(-0.0556012 0.00951751 0)
(-0.0695954 0.025065 -5.07752e-20)
(-0.0827433 0.0409584 2.34797e-20)
(-0.0947701 0.0570663 -4.38537e-20)
(-0.10545 0.0735561 1.9627e-20)
(-0.114562 0.0907062 1.15833e-19)
(-0.121875 0.108772 -5.43343e-20)
(-0.127137 0.127905 -8.48377e-20)
(-0.130076 0.148119 -3.01815e-20)
(-0.130406 0.169283 5.43895e-22)
(-0.127829 0.191115 1.09217e-19)
(-0.122039 0.2132 -5.10438e-20)
(-0.112733 0.234995 1.41549e-21)
(-0.0996302 0.255858 0)
(-0.0824878 0.275048 -4.03873e-20)
(-0.0611258 0.291794 0)
(-0.0353504 0.305382 -3.81312e-20)
(-0.00467893 0.315338 1.40461e-19)
(0.0306827 0.32189 1.82365e-21)
(0.000807187 -0.00960032 0)
(-0.00301944 -0.0153704 -7.32783e-22)
(-0.0124585 -0.0122531 3.13659e-20)
(-0.0244143 -0.00310958 -2.94172e-20)
(-0.0370518 0.00960707 2.85801e-20)
(-0.0493731 0.0240673 1.57288e-19)
(-0.0607494 0.0391223 -4.94282e-20)
(-0.0707777 0.0542078 -4.54571e-20)
(-0.0791874 0.0691918 8.62058e-20)
(-0.0857612 0.0842065 -1.20796e-19)
(-0.0902872 0.0994925 3.69317e-20)
(-0.0925374 0.115279 3.40593e-20)
(-0.0922617 0.131707 0)
(-0.089184 0.148787 3.07245e-20)
(-0.0830265 0.166409 0)
(-0.0735073 0.184311 5.03906e-20)
(-0.0603492 0.20211 -9.56466e-20)
(-0.0432718 0.21932 2.35195e-20)
(-0.0220523 0.235352 8.38086e-20)
(0.00347503 0.249546 4.03389e-20)
(0.0334276 0.261213 0)
(0.067828 0.269699 -1.07167e-19)
(0.107106 0.27459 3.36808e-20)
(0.15297 0.276171 0)
(0.000534935 -0.00590405 0)
(-0.00346152 -0.00733548 -9.89748e-20)
(-0.0122991 -0.00203192 -3.08767e-20)
(-0.0230403 0.00786541 -5.83119e-20)
(-0.0338871 0.0204499 5.49077e-20)
(-0.0438222 0.034253 -5.19905e-20)
(-0.0522056 0.0483268 9.5625e-20)
(-0.0586377 0.062184 4.46386e-20)
(-0.0628643 0.0756891 -1.2618e-19)
(-0.0646943 0.0889319 7.70723e-20)
(-0.0639469 0.102104 -1.08522e-19)
(-0.0604293 0.115399 2.31266e-19)
(-0.0539345 0.128939 -1.24505e-19)
(-0.0442077 0.142753 5.61061e-20)
(-0.0310053 0.156744 1.57226e-19)
(-0.0141105 0.170689 -5.15085e-20)
(0.00671042 0.184268 -4.5481e-20)
(0.0316577 0.197066 -4.37564e-20)
(0.0608863 0.20857 0)
(0.0944955 0.21823 -7.51643e-20)
(0.132529 0.225454 -7.22588e-20)
(0.17499 0.229628 1.00895e-19)
(0.221252 0.230382 1.32706e-19)
(0.277689 0.227194 -1.23454e-19)
(-7.93544e-05 -0.00284265 0)
(-0.00470576 -0.0009064 -1.28908e-19)
(-0.013279 0.00575396 6.18626e-22)
(-0.0230026 0.0156454 1.14793e-19)
(-0.0321373 0.0273839 0)
(-0.0396749 0.0398618 0)
(-0.0449834 0.0523437 0)
(-0.047679 0.0644347 -4.36141e-20)
(-0.0475339 0.0760096 1.03912e-21)
(-0.0443956 0.0871223 7.57723e-20)
(-0.0381314 0.0979158 -1.04933e-19)
(-0.0286018 0.108543 8.76539e-22)
(-0.0156518 0.119111 0)
(0.000894785 0.129654 -5.60787e-20)
(0.0212232 0.140089 4.90173e-20)
(0.0455021 0.150252 -1.40909e-19)
(0.0738927 0.159887 1.74416e-19)
(0.106529 0.168652 3.92083e-20)
(0.143513 0.176137 5.03874e-23)
(0.18491 0.181886 -1.43129e-19)
(0.230633 0.185412 -6.68334e-20)
(0.281348 0.186154 2.28423e-19)
(0.333525 0.183971 -1.53089e-19)
(0.40219 0.176495 0)
(-0.00103954 -0.000231967 6.14693e-20)
(-0.00674684 0.00426151 6.42355e-20)
(-0.015406 0.0114998 -5.98895e-20)
(-0.0243381 0.0206315 -1.12751e-19)
(-0.0318834 0.0307936 1.06166e-19)
(-0.0370767 0.0412451 -9.83898e-20)
(-0.0393169 0.0514793 1.38278e-19)
(-0.0382464 0.0612168 -4.33275e-20)
(-0.0336675 0.0703675 7.98776e-20)
(-0.0254642 0.0789691 0)
(-0.0135483 0.0871302 6.55755e-20)
(0.00217015 0.0949716 -1.24436e-19)
(0.0217959 0.102584 1.14157e-19)
(0.0454508 0.109999 -1.07214e-19)
(0.0732692 0.117171 0)
(0.105385 0.123981 9.0829e-20)
(0.141927 0.130231 1.66099e-19)
(0.183004 0.135657 -1.57223e-19)
(0.228701 0.139933 -7.23901e-20)
(0.279164 0.142699 -7.08184e-20)
(0.333849 0.143503 1.97354e-19)
(0.395332 0.14194 6.33827e-20)
(0.453993 0.138134 -5.78624e-20)
(0.539857 0.12789 5.73572e-20)
(-0.00238121 0.00213425 -6.14777e-20)
(-0.00956531 0.00858742 1.89671e-19)
(-0.0185229 0.0157578 -5.93636e-20)
(-0.0267101 0.0234891 1.11553e-19)
(-0.0325824 0.0314537 -1.05037e-19)
(-0.0352531 0.0392863 1.54129e-22)
(-0.0341702 0.0467252 4.56039e-20)
(-0.0290016 0.0536336 1.65844e-19)
(-0.0195631 0.0599825 -2.67102e-21)
(-0.00575074 0.065823 -7.37231e-20)
(0.0125165 0.071255 0)
(0.03532 0.0763868 -5.90143e-20)
(0.0627559 0.0813027 1.13418e-19)
(0.0949367 0.0860426 1.02414e-19)
(0.131987 0.0905888 -4.89599e-20)
(0.174029 0.0948583 -1.02117e-21)
(0.221172 0.0987034 -4.14365e-20)
(0.273489 0.101917 7.55752e-20)
(0.330956 0.104221 7.23817e-20)
(0.393819 0.105381 -6.8271e-20)
(0.460374 0.104791 6.36313e-20)
(0.536216 0.102602 -6.07018e-20)
(0.602264 0.098318 0)
(0.708602 0.0884639 -5.73256e-20)
(-0.00412445 0.00438963 6.09859e-20)
(-0.0130314 0.0123862 -6.31639e-20)
(-0.0221873 0.0190342 5.93398e-20)
(-0.0292678 0.0249414 0)
(-0.032894 0.0303315 0)
(-0.0322825 0.0352224 9.5679e-20)
(-0.0269283 0.0396117 -9.05377e-20)
(-0.0165068 0.0435253 8.13465e-20)
(-0.000809312 0.0470239 -3.84179e-19)
(0.0203084 0.0502068 1.16928e-21)
(0.0469678 0.053193 6.49757e-20)
(0.0792822 0.0560977 0)
(0.117358 0.0590128 -1.09205e-19)
(0.161287 0.061989 2.03155e-19)
(0.211122 0.0650211 -1.41676e-19)
(0.266854 0.06804 -2.15816e-19)
(0.328382 0.0709145 1.35426e-21)
(0.395498 0.0734574 1.49669e-19)
(0.467721 0.0753733 0)
(0.545072 0.0765761 0)
(0.624328 0.0761166 -6.36298e-20)
(0.713003 0.0750959 6.06994e-20)
(0.78486 0.0711033 -2.33807e-19)
(0.902601 0.0648391 2.19095e-19)
(-0.00621037 0.00652944 0)
(-0.0168034 0.015733 0)
(-0.025588 0.0216037 -1.77788e-19)
(-0.0306021 0.0255395 5.65187e-20)
(-0.0306869 0.0283122 1.04437e-21)
(-0.0251699 0.0303208 9.71401e-20)
(-0.0135766 0.0318281 0)
(0.00444221 0.0330368 -8.291e-20)
(0.0291478 0.0341231 7.66937e-20)
(0.0607363 0.0352553 -1.39137e-19)
(0.0993452 0.0365911 1.16828e-21)
(0.145044 0.0382652 1.17835e-19)
(0.197805 0.0403735 -2.25701e-21)
(0.257473 0.0429548 9.80306e-20)
(0.323732 0.0459792 -1.41099e-19)
(0.396076 0.0493421 0)
(0.473787 0.0528624 1.59513e-19)
(0.55595 0.0562949 -2.24554e-19)
(0.641309 0.059281 6.99775e-20)
(0.729031 0.0616876 0)
(0.815481 0.0624696 6.22567e-20)
(0.906028 0.0630447 2.40395e-19)
(0.9778 0.0595789 -2.25597e-19)
(1.0842 0.0570886 -2.72655e-19)
(-0.00845393 0.0083985 1.84339e-19)
(-0.0202748 0.0184162 -2.53851e-19)
(-0.0275618 0.0234062 5.57191e-22)
(-0.0288773 0.0254911 5.63784e-20)
(-0.0233342 0.0259482 -1.04671e-19)
(-0.0103744 0.0255376 -9.67861e-20)
(0.0104476 0.0247802 1.78108e-19)
(0.0394882 0.0240572 -3.34423e-21)
(0.0769984 0.0236661 -1.54636e-19)
(0.123098 0.0238497 2.80742e-19)
(0.177733 0.0247998 -3.02993e-21)
(0.240626 0.0266482 -1.20552e-19)
(0.311235 0.0294515 0)
(0.388724 0.0331775 0)
(0.471957 0.0376956 -4.65632e-20)
(0.559518 0.0427745 -8.6544e-20)
(0.64975 0.0480941 -1.59769e-19)
(0.740824 0.0532443 1.49963e-19)
(0.830779 0.0578088 -7.00043e-20)
(0.9178 0.0612771 1.3161e-19)
(0.999326 0.0632011 -6.1631e-20)
(1.07632 0.0636452 1.1862e-19)
(1.13772 0.0605033 -2.74939e-19)
(1.21136 0.0582793 5.3298e-20)
(-0.0105393 0.00974374 6.20111e-20)
(-0.0226008 0.0200102 0)
(-0.0267079 0.0240831 1.20326e-19)
(-0.0220881 0.0246393 -1.13355e-19)
(-0.00817558 0.0233664 1.04765e-19)
(0.0154365 0.0213418 0)
(0.0490916 0.0193158 0)
(0.0930129 0.0178294 -8.23753e-20)
(0.147212 0.0172796 3.05032e-21)
(0.211397 0.0179485 7.27757e-20)
(0.284895 0.0200098 -6.42455e-20)
(0.366604 0.0235207 1.21517e-19)
(0.454986 0.02841 0)
(0.548109 0.0344733 2.01954e-19)
(0.643741 0.0413773 -3.761e-19)
(0.739464 0.0486775 2.61669e-19)
(0.832821 0.0558562 1.60063e-19)
(0.921442 0.0623196 -1.50247e-19)
(1.00321 0.0676064 0)
(1.0763 0.0708921 0)
(1.13946 0.0725351 0)
(1.19205 0.0705216 0)
(1.23256 0.0675821 5.43003e-20)
(1.26905 0.0604455 -2.00897e-19)
(-0.137905 0.406627 -6.37487e-21)
(-0.109794 0.410494 6.40619e-21)
(-0.0743914 0.399377 -2.02978e-22)
(-0.0322596 0.371427 0)
(0.0163876 0.3251 -6.54194e-21)
(0.0704819 0.259987 1.29142e-20)
(0.128068 0.176512 1.35298e-22)
(0.187514 0.0774312 -6.32538e-21)
(0.247147 -0.0350752 0)
(0.305863 -0.156272 0)
(0.363023 -0.279711 -3.45581e-22)
(0.417481 -0.395648 -3.03203e-22)
(0.466729 -0.492229 -3.89348e-21)
(0.5072 -0.559588 3.53599e-21)
(0.536064 -0.594211 0)
(0.552506 -0.599864 0)
(0.555882 -0.587379 1.63491e-21)
(0.542791 -0.573019 -1.05496e-22)
(0.511472 -0.567479 -1.35671e-21)
(0.470996 -0.560404 -8.47827e-23)
(0.442275 -0.519793 0)
(0.444941 -0.415102 0)
(0.482172 -0.244295 0)
(0.54214 -0.0366219 0)
(0.610067 0.164994 0)
(0.673787 0.323523 0)
(0.724572 0.424283 4.01249e-22)
(0.758205 0.473611 -6.42253e-22)
(0.777472 0.485385 0)
(0.78527 0.480211 0)
(0.776075 0.482838 -3.21486e-22)
(0.744295 0.50252 3.12461e-22)
(0.701675 0.503955 1.88882e-22)
(0.672427 0.435086 0)
(0.675193 0.272183 0)
(0.704939 0.0561755 5.03629e-22)
(0.748323 -0.148481 -4.89534e-22)
(0.788971 -0.294397 0)
(0.821814 -0.369197 2.67153e-22)
(0.841903 -0.40195 -3.7692e-22)
(0.837229 -0.415619 9.55483e-23)
(0.801329 -0.436945 0)
(0.751233 -0.413179 -1.94978e-22)
(0.714094 -0.331394 1.896e-22)
(0.715324 -0.161275 0)
(0.742884 0.0225604 0)
(0.789154 0.171625 -8.01749e-23)
(0.822363 0.283687 2.15753e-22)
(0.822648 0.333468 0)
(0.789133 0.399297 0)
(0.758935 0.339459 -5.37512e-23)
(0.747862 0.259114 -7.13706e-24)
(0.781239 0.0803433 -2.42702e-24)
(0.808056 -0.0860059 4.83719e-23)
(0.817859 -0.18326 0)
(0.802095 -0.357852 0)
(0.793494 -0.2902 0)
(0.787323 -0.310474 0)
(0.795553 -0.123036 0)
(0.781744 0.122335 0)
(-0.047988 0.371006 -6.05977e-22)
(-0.0107767 0.369558 -2.66375e-20)
(0.0332179 0.353435 -9.20665e-22)
(0.08307 0.321184 2.58601e-20)
(0.137843 0.271801 4.34226e-22)
(0.196079 0.20507 0)
(0.255974 0.121691 -2.76456e-20)
(0.315857 0.0235277 5.4827e-20)
(0.374463 -0.0870705 -2.71782e-20)
(0.43115 -0.206271 2.44442e-20)
(0.485018 -0.327542 -2.34122e-20)
(0.534088 -0.440044 1.84483e-20)
(0.574807 -0.530514 -1.80025e-20)
(0.60343 -0.588716 -4.33822e-22)
(0.617967 -0.6125 -9.77129e-21)
(0.61919 -0.607357 9.49639e-21)
(0.609451 -0.583563 -6.3929e-21)
(0.588014 -0.556185 6.03725e-21)
(0.550866 -0.539575 -5.31897e-21)
(0.500417 -0.531361 1.04946e-20)
(0.452939 -0.504057 -5.17325e-21)
(0.431366 -0.421838 -3.38823e-22)
(0.447581 -0.271736 -6.70622e-21)
(0.495235 -0.0766779 1.30866e-20)
(0.559435 0.121537 -6.3841e-21)
(0.625832 0.285112 3.12421e-22)
(0.683406 0.395921 4.11937e-21)
(0.726456 0.455758 -5.18563e-22)
(0.756153 0.476191 -5.92666e-21)
(0.772423 0.479614 5.32149e-21)
(0.76873 0.491981 -2.5401e-21)
(0.741804 0.518894 3.44735e-22)
(0.70707 0.519859 -1.89279e-22)
(0.68787 0.4425 4.91505e-22)
(0.699545 0.268251 0)
(0.734643 0.043641 0)
(0.779053 -0.16435 -1.86877e-21)
(0.815834 -0.308517 1.39495e-21)
(0.841187 -0.378738 7.95122e-22)
(0.854477 -0.404326 -9.70015e-23)
(0.845376 -0.408492 -9.38555e-22)
(0.80768 -0.42229 1.59675e-22)
(0.75302 -0.398441 0)
(0.711242 -0.325114 0)
(0.707683 -0.166028 0)
(0.735193 0.0101746 0)
(0.782686 0.159084 2.92706e-22)
(0.816556 0.278304 -1.37912e-22)
(0.818352 0.337227 0)
(0.784647 0.407485 0)
(0.758136 0.344815 0)
(0.74723 0.256783 -1.25696e-22)
(0.784332 0.0737096 -1.40128e-23)
(0.81353 -0.090561 -9.66447e-23)
(0.82456 -0.182474 0)
(0.809267 -0.354932 0)
(0.797261 -0.289148 3.55435e-23)
(0.791382 -0.310395 7.47547e-23)
(0.79524 -0.122213 0)
(0.780328 0.123663 0)
(0.067346 0.327318 2.77778e-21)
(0.110514 0.322481 -5.13775e-20)
(0.159012 0.303649 5.62703e-20)
(0.212544 0.269661 -5.26055e-20)
(0.269714 0.219884 -4.37133e-22)
(0.328913 0.15418 0)
(0.388497 0.0731199 -5.93181e-20)
(0.447186 -0.0220855 5.81351e-20)
(0.504076 -0.129135 4.29234e-22)
(0.558377 -0.244903 8.32336e-22)
(0.608714 -0.362558 7.58469e-22)
(0.65189 -0.470327 6.46135e-22)
(0.683232 -0.554071 -3.22842e-20)
(0.699167 -0.60362 3.18115e-20)
(0.699222 -0.618101 0)
(0.68572 -0.604951 5.35518e-22)
(0.662898 -0.57426 -1.24328e-20)
(0.633024 -0.537982 1.2259e-20)
(0.592188 -0.510639 0)
(0.537003 -0.497481 0)
(0.476742 -0.479405 -9.806e-21)
(0.433836 -0.419663 2.03127e-20)
(0.427745 -0.294403 -2.12248e-20)
(0.459789 -0.116504 6.11567e-23)
(0.517082 0.0749103 2.0521e-20)
(0.58349 0.241624 -1.8726e-20)
(0.645978 0.361702 1.49861e-20)
(0.697456 0.43218 -1.32855e-21)
(0.736915 0.46234 -5.73748e-21)
(0.761222 0.475684 0)
(0.76338 0.498294 0)
(0.742401 0.532263 2.42088e-21)
(0.716344 0.533075 -3.03259e-21)
(0.707093 0.44882 2.70324e-23)
(0.727336 0.26547 4.87183e-21)
(0.767268 0.0339563 -4.73408e-21)
(0.812049 -0.176321 0)
(0.844843 -0.318615 4.23162e-22)
(0.862556 -0.384982 2.61692e-21)
(0.868773 -0.404783 -4.45789e-21)
(0.855319 -0.400547 1.69015e-21)
(0.816506 -0.407177 1.39581e-22)
(0.758216 -0.38332 -1.51641e-21)
(0.712318 -0.318862 1.20413e-21)
(0.703787 -0.171651 3.05418e-22)
(0.730639 -0.00340572 2.89522e-22)
(0.778587 0.145421 -2.93455e-22)
(0.812655 0.272222 0)
(0.815995 0.340386 0)
(0.782313 0.415306 -9.24845e-22)
(0.759705 0.350248 4.60797e-22)
(0.748915 0.254617 -5.45934e-22)
(0.789313 0.0671799 7.90404e-22)
(0.820597 -0.0952286 8.73785e-22)
(0.832795 -0.181411 -1.83191e-22)
(0.817482 -0.351568 2.71901e-22)
(0.801783 -0.287845 -1.76418e-22)
(0.796229 -0.309993 5.47649e-23)
(0.796011 -0.121127 0)
(0.779936 0.12505 0)
(0.192762 0.279161 -1.04473e-19)
(0.238836 0.272104 -5.35303e-21)
(0.288911 0.252345 1.04485e-19)
(0.343274 0.218788 -8.75562e-22)
(0.400492 0.170797 0)
(0.458914 0.107986 0)
(0.517145 0.0303167 -1.21232e-19)
(0.574412 -0.0601815 -2.11393e-21)
(0.63003 -0.1628 1.72281e-19)
(0.682703 -0.274401 -3.3183e-21)
(0.730139 -0.387539 -5.17892e-20)
(0.767538 -0.489484 -3.88187e-20)
(0.78916 -0.565704 3.90253e-20)
(0.791961 -0.606796 0)
(0.777502 -0.613239 -2.01642e-20)
(0.75013 -0.593987 1.85177e-20)
(0.715117 -0.559598 0)
(0.676858 -0.51888 0)
(0.633563 -0.482991 8.30571e-21)
(0.578332 -0.461669 -4.21781e-22)
(0.512122 -0.446728 -7.17391e-21)
(0.452613 -0.406647 -8.51436e-21)
(0.424248 -0.309223 8.46531e-21)
(0.437485 -0.153662 -9.22086e-21)
(0.484176 0.0270118 6.42284e-22)
(0.547626 0.19426 8.07629e-21)
(0.612927 0.322236 8.12975e-22)
(0.671495 0.403153 5.58621e-23)
(0.719675 0.443798 0)
(0.751446 0.467903 4.97438e-21)
(0.759752 0.500807 -5.14002e-21)
(0.74554 0.541612 3.56112e-22)
(0.728556 0.54314 0)
(0.72918 0.454257 -5.24692e-22)
(0.757557 0.264422 1.02836e-20)
(0.801881 0.0274239 -1.85652e-20)
(0.846749 -0.184545 7.95067e-23)
(0.875591 -0.325103 1.69451e-21)
(0.885755 -0.388239 5.56101e-21)
(0.884682 -0.403591 4.87972e-22)
(0.866779 -0.39221 -2.66765e-21)
(0.827365 -0.391938 2.29109e-21)
(0.766523 -0.367749 3.15577e-23)
(0.717178 -0.31225 1.12869e-21)
(0.70356 -0.177756 -1.40389e-21)
(0.729056 -0.0178974 -1.81427e-21)
(0.776717 0.13076 5.57538e-22)
(0.810587 0.26539 8.84351e-22)
(0.815582 0.342801 -1.75346e-21)
(0.782215 0.422661 1.32133e-21)
(0.763765 0.355798 -5.70837e-22)
(0.753091 0.252785 4.64807e-22)
(0.796218 0.0609006 5.79782e-22)
(0.829187 -0.0999776 -1.4003e-21)
(0.84249 -0.180096 4.74081e-23)
(0.826705 -0.347714 -2.92383e-22)
(0.807012 -0.286248 0)
(0.801789 -0.30929 -6.55963e-23)
(0.797784 -0.119799 2.3568e-23)
(0.780516 0.126501 0)
(0.318111 0.229094 1.03179e-19)
(0.364718 0.221317 -2.08614e-19)
(0.414482 0.20191 1.03783e-19)
(0.468131 0.170124 1.1521e-19)
(0.524303 0.125218 -2.31214e-19)
(0.58119 0.066289 -4.33419e-21)
(0.638886 -0.00649843 1.17826e-19)
(0.695992 -0.0919243 1.18414e-19)
(0.750893 -0.189608 -1.15981e-19)
(0.802484 -0.295789 0)
(0.846859 -0.402458 -9.40843e-20)
(0.877632 -0.496454 1.71989e-19)
(0.888669 -0.563836 -7.83146e-20)
(0.878126 -0.59687 0)
(0.849801 -0.597426 0)
(0.810243 -0.574771 5.43427e-22)
(0.765269 -0.539488 -2.36388e-20)
(0.719531 -0.498471 2.2967e-20)
(0.673749 -0.458295 0)
(0.621141 -0.428651 1.32595e-20)
(0.555602 -0.410864 -2.46569e-20)
(0.486286 -0.383966 2.43291e-20)
(0.437774 -0.313791 -2.596e-20)
(0.429815 -0.185385 -7.82206e-22)
(0.462023 -0.0199969 2.68085e-20)
(0.51916 0.144161 -1.3066e-20)
(0.584878 0.278033 -3.71874e-22)
(0.64872 0.368772 -4.1752e-21)
(0.704188 0.42028 -2.55252e-23)
(0.742694 0.455568 4.26186e-21)
(0.757333 0.498636 3.10504e-22)
(0.750453 0.546252 -6.4433e-21)
(0.742719 0.549896 1.42946e-20)
(0.752922 0.459048 -8.90262e-21)
(0.789017 0.26541 0)
(0.837555 0.0245203 -1.15946e-20)
(0.88238 -0.188854 1.11572e-20)
(0.907484 -0.327857 -5.68213e-21)
(0.910378 -0.388353 7.12752e-21)
(0.901972 -0.400622 -4.92383e-22)
(0.879566 -0.383566 0)
(0.839932 -0.376913 -2.63442e-22)
(0.777571 -0.352024 6.89925e-22)
(0.72551 -0.305198 0)
(0.706774 -0.184004 2.31544e-21)
(0.730185 -0.0330637 -9.2012e-22)
(0.77688 0.11518 4.46578e-22)
(0.810218 0.257688 3.77995e-22)
(0.817054 0.34428 0)
(0.784372 0.429419 0)
(0.770348 0.361463 -1.72194e-21)
(0.759858 0.251412 3.04822e-21)
(0.805056 0.0550373 -1.86507e-21)
(0.8392 -0.104762 6.10542e-22)
(0.853544 -0.178513 9.16276e-22)
(0.836887 -0.343271 2.92656e-22)
(0.8129 -0.284317 -3.13311e-22)
(0.80799 -0.308317 0)
(0.800465 -0.118252 -5.82883e-23)
(0.78201 0.128019 1.61631e-24)
(0.441773 0.178656 1.01729e-19)
(0.487129 0.171564 -1.01285e-19)
(0.535328 0.1534 8.46433e-22)
(0.587622 0.124119 -8.45221e-22)
(0.642637 0.0828176 9.04375e-22)
(0.698964 0.0278428 -9.24875e-22)
(0.756234 -0.0390603 1.79684e-21)
(0.813069 -0.119426 0)
(0.867739 -0.21115 -1.72802e-21)
(0.917557 -0.310151 1.63033e-21)
(0.957114 -0.408021 1.48662e-21)
(0.979202 -0.491991 -1.3554e-21)
(0.978393 -0.549742 0)
(0.95481 -0.575614 0)
(0.914259 -0.572601 6.99325e-22)
(0.864796 -0.549341 0)
(0.81261 -0.515375 -4.0676e-22)
(0.761405 -0.476633 0)
(0.712934 -0.43617 -1.32001e-20)
(0.663147 -0.400453 2.38306e-20)
(0.602924 -0.376082 -1.98635e-20)
(0.531749 -0.35437 9.2229e-21)
(0.468188 -0.306725 9.46805e-21)
(0.438221 -0.207888 -9.19553e-21)
(0.451992 -0.0634975 -9.95763e-21)
(0.499011 0.0928974 9.65162e-21)
(0.562399 0.229866 0)
(0.629185 0.329264 1.94175e-22)
(0.69016 0.391632 0)
(0.73453 0.438201 0)
(0.755514 0.491169 9.59631e-21)
(0.756232 0.545754 -9.83324e-21)
(0.757646 0.553169 8.47566e-22)
(0.776985 0.46332 1.11173e-21)
(0.820317 0.268693 -1.30333e-21)
(0.873134 0.0255801 -1.05414e-20)
(0.918173 -0.189235 1.02334e-20)
(0.939921 -0.327024 -7.75504e-21)
(0.936023 -0.385425 6.59621e-21)
(0.92037 -0.395899 9.90828e-22)
(0.893417 -0.374734 -2.46457e-21)
(0.853798 -0.362333 2.7865e-22)
(0.790852 -0.336308 1.38683e-21)
(0.73683 -0.297577 0)
(0.713068 -0.190037 -7.9516e-22)
(0.733677 -0.0486102 1.04745e-21)
(0.778819 0.0987258 -1.42096e-21)
(0.811356 0.248953 -3.80409e-22)
(0.820279 0.344602 0)
(0.788722 0.435432 5.98279e-22)
(0.779379 0.36719 -1.02658e-21)
(0.769239 0.250633 4.13216e-23)
(0.815793 0.0497382 -7.35737e-22)
(0.850531 -0.109513 1.05172e-21)
(0.865831 -0.176653 -9.65519e-22)
(0.847964 -0.338158 0)
(0.819403 -0.282003 3.13453e-22)
(0.81476 -0.307093 0)
(0.803954 -0.116531 0)
(0.784351 0.129601 1.28097e-24)
(0.576122 0.130649 -1.0059e-19)