/*--------------------------------*- C++ -*----------------------------------*\
| =========                 |                                                 |
| \\      /  F ield         | OpenFOAM: The Open Source CFD Toolbox           |
|  \\    /   O peration     | Version:  2512                                  |
|   \\  /    A nd           | Website:  www.openfoam.com                      |
|    \\/     M anipulation  |                                                 |
\*---------------------------------------------------------------------------*/
FoamFile
{
    version     2.0;
    format      ascii;
    arch        "LSB;label=32;scalar=64";
    class       volVectorField;
    location    "125.25";
    object      U;
}
// * * * * * * * * * * * * * * * * * * * * * * * * * * * * * * * * * * * * * //

dimensions      [0 1 -1 0 0 0 0];

internalField   nonuniform List<vector> 
13248
(
(-0.0107109 0.00984146 7.25742e-20)
(-0.0169571 0.017281 0)
(-0.010161 0.0173766 -1.38028e-19)
(0.00871152 0.013125 1.30026e-19)
(0.039298 0.00667053 1.2213e-19)
(0.081432 -0.000448867 0)
(0.134896 -0.00713923 0)
(0.199204 -0.012621 2.92304e-19)
(0.27343 -0.0163426 -3.32672e-21)
(0.356092 -0.0179381 -2.51805e-19)
(0.445148 -0.0172161 2.2689e-19)
(0.538083 -0.0141596 -1.41348e-19)
(0.632079 -0.00892266 0)
(0.724246 -0.00181604 -2.23165e-19)
(0.811855 0.00672304 4.0966e-19)
(0.892555 0.0161728 -9.64617e-20)
(0.964524 0.0259777 -1.59246e-19)
(1.02657 0.0355867 1.49495e-19)
(1.07815 0.0445411 0)
(1.11932 0.0523256 0)
(1.15077 0.0589891 0)
(1.17319 0.0632979 0)
(1.18893 0.0676205 3.99882e-20)
(1.19725 0.0661515 1.40011e-19)
(-0.0102374 0.00867553 -2.19301e-19)
(-0.0121397 0.0143354 1.49904e-19)
(0.00292146 0.0138199 -1.0058e-21)
(0.0334615 0.00975145 -1.98541e-19)
(0.0786719 0.00417482 -1.21994e-19)
(0.137884 -0.00133994 -1.15149e-19)
(0.210178 -0.00566696 -2.1105e-19)
(0.294107 -0.00804048 1.99245e-19)
(0.387531 -0.00799991 0)
(0.487583 -0.00536791 2.1331e-21)
(0.590815 -0.000235564 4.56185e-21)
(0.693471 0.00706539 1.41312e-19)
(0.791847 0.0160119 0)
(0.88264 0.025959 0)
(0.963241 0.036219 1.48242e-19)
(1.03192 0.0461391 -2.78095e-19)
(1.08789 0.0551661 1.58242e-19)
(1.13127 0.062886 -1.48563e-19)
(1.16295 0.0690517 -6.38084e-20)
(1.18442 0.0735362 -1.10877e-19)
(1.19744 0.0764725 -4.45679e-20)
(1.20421 0.0775894 -8.23099e-20)
(1.20602 0.0783578 1.24037e-19)
(1.20531 0.075113 3.52329e-20)
(-0.00854354 0.00679458 0)
(-0.00349622 0.00963192 0)
(0.0225228 0.00806485 7.02567e-20)
(0.0674819 0.00432311 6.49133e-20)
(0.129972 0.000295474 -1.48501e-21)
(0.208501 -0.002504 -1.18142e-19)
(0.300971 -0.00305395 0)
(0.404416 -0.000792974 -9.87629e-20)
(0.514962 0.00441528 9.15881e-20)
(0.628037 0.0123161 2.59474e-22)
(0.738795 0.0223286 -1.52634e-19)
(0.842648 0.0336489 -1.36035e-19)
(0.935763 0.0453787 5.12424e-21)
(1.01543 0.056655 -1.05031e-19)
(1.08023 0.0667586 2.57438e-19)
(1.13006 0.0751848 0)
(1.1659 0.0816709 -1.56385e-19)
(1.18959 0.0861776 7.60746e-20)
(1.20343 0.088858 6.37518e-20)
(1.20988 0.0899365 0)
(1.21129 0.0898412 5.02084e-20)
(1.20959 0.088509 -1.72351e-19)
(1.20609 0.0872957 1.6179e-19)
(1.20279 0.0831786 1.00395e-19)
(-0.00540355 0.0044402 -7.74e-20)
(0.0097041 0.00389558 -7.99205e-20)
(0.0498259 0.0013363 7.25557e-20)
(0.112201 -0.00145411 0)
(0.19448 -0.00283723 0)
(0.293823 -0.0015094 -1.89098e-21)
(0.406327 0.00321399 0)
(0.526939 0.0113999 -2.98245e-19)
(0.649766 0.0225672 2.75392e-19)
(0.768695 0.0358064 -3.37766e-19)
(0.878151 0.0499592 7.62426e-20)
(0.973774 0.0638291 0)
(1.05286 0.0763732 1.21409e-19)
(1.11447 0.0868402 -2.22732e-19)
(1.15931 0.0948312 5.27702e-20)
(1.18932 0.100288 1.2892e-19)
(1.20719 0.103424 -8.63813e-21)
(1.2159 0.104624 -1.42861e-19)
(1.21828 0.10434 0)
(1.21672 0.102996 0)
(1.21303 0.100994 -4.83256e-20)
(1.2084 0.0983746 4.2838e-20)
(1.20356 0.0961183 1.49741e-19)
(1.19902 0.0914876 -1.40575e-19)
(-0.000515335 0.00183095 -8.11862e-20)
(0.0282368 -0.00210999 -8.09614e-20)
(0.0858811 -0.00501184 2.27874e-19)
(0.168574 -0.00568521 -1.38436e-19)
(0.272468 -0.00292985 1.30306e-19)
(0.392681 0.00408308 2.36576e-19)
(0.522874 0.0153619 -1.66596e-19)
(0.655629 0.0301379 -2.00277e-19)
(0.783328 0.0470764 5.59438e-21)
(0.899215 0.0645677 2.54538e-19)
(0.998309 0.0810473 0)
(1.07791 0.0952664 6.80202e-20)
(1.13762 0.106453 0)
(1.17899 0.114347 -1.06912e-19)
(1.20487 0.119123 1.49708e-19)
(1.21872 0.12125 9.60359e-22)
(1.224 0.121333 -3.8101e-20)
(1.22375 0.119977 6.9289e-20)
(1.22029 0.11769 5.98651e-20)
(1.21524 0.114847 -5.30288e-20)
(1.20961 0.111707 4.8314e-20)
(1.20395 0.108299 -4.28274e-20)
(1.19846 0.105196 0)
(1.19356 0.100281 -3.2603e-20)
(0.00647152 -0.000802666 8.11746e-20)
(0.0528142 -0.00755945 8.49115e-20)
(0.13137 -0.00954748 -7.627e-20)
(0.236694 -0.00645753 1.41795e-19)
(0.362713 0.00214373 -1.33461e-19)
(0.501796 0.0162163 1.20248e-19)
(0.644849 0.0346955 -5.76794e-20)
(0.782454 0.0557164 1.50589e-19)
(0.906354 0.0770817 -9.43421e-20)
(1.0107 0.0967435 1.64274e-19)
(1.09264 0.113177 -3.77033e-19)
(1.15227 0.125567 1.37762e-19)
(1.19193 0.133794 -1.1773e-19)
(1.21534 0.138275 1.10584e-19)
(1.22665 0.139735 9.30203e-20)
(1.22973 0.138989 7.98974e-20)
(1.22774 0.136775 -2.22644e-19)
(1.22298 0.133672 1.37319e-19)
(1.21696 0.130078 -5.9867e-20)
(1.21057 0.126238 1.54557e-19)
(1.20427 0.122287 -4.99523e-20)
(1.19827 0.118252 -1.19634e-19)
(1.19264 0.114429 1.10114e-19)
(1.18748 0.109321 3.25928e-20)
(0.0158955 -0.00317902 0)
(0.08393 -0.0115368 5.74802e-22)
(0.186365 -0.010812 1.58408e-19)
(0.315516 -0.00201555 -1.48714e-19)
(0.462334 0.0140373 -1.33801e-19)
(0.61602 0.035966 2.48332e-19)
(0.765067 0.0613213 -1.15162e-19)
(0.89925 0.087146 1.52286e-19)
(1.01139 0.110719 -3.92523e-21)
(1.09817 0.130098 -8.55636e-20)
(1.15996 0.144345 1.8382e-19)
(1.19982 0.153452 -2.70203e-19)
(1.22229 0.158075 0)
(1.23221 0.1592 -5.18412e-20)
(1.23388 0.157858 -1.36355e-19)
(1.23065 0.154934 4.31802e-20)
(1.22488 0.15109 1.9989e-21)
(1.21803 0.146764 -9.03484e-20)
(1.21094 0.142221 6.88506e-21)
(1.20406 0.137602 1.03933e-19)
(1.19754 0.132975 -4.53724e-20)
(1.19145 0.128372 -1.70638e-20)
(1.18573 0.123884 5.31923e-20)
(1.18041 0.118616 0)
(0.0280091 -0.00494135 0)
(0.121698 -0.0130291 4.29327e-20)
(0.250137 -0.00738282 -2.06206e-19)
(0.40276 0.00908628 7.48529e-20)
(0.567022 0.0337317 -7.0449e-20)
(0.729164 0.0634235 -6.40249e-20)
(0.876455 0.0942936 -1.12788e-19)
(0.999693 0.122675 5.65751e-20)
(1.09452 0.145956 4.89373e-20)
(1.16122 0.16291 0)
(1.20343 0.173567 1.08936e-19)
(1.22651 0.17881 -1.60838e-19)
(1.23606 0.179908 1.1944e-19)
(1.23692 0.178144 5.18677e-20)
(1.2328 0.174586 -4.17719e-20)
(1.22617 0.170012 -3.4087e-20)
(1.21858 0.164927 -3.14178e-20)
(1.21085 0.159629 9.56936e-20)
(1.20339 0.154279 0)
(1.19638 0.148955 4.6818e-20)
(1.18985 0.143694 3.86293e-20)
(1.18375 0.138514 -9.67402e-20)
(1.17802 0.133396 -6.51232e-20)
(1.17261 0.127956 6.02565e-20)
(0.0429101 -0.00566047 -4.61077e-20)
(0.165722 -0.0109698 -1.57625e-21)
(0.321081 0.00202099 4.18713e-20)
(0.495063 0.0278353 1.16544e-19)
(0.671648 0.0614441 3.36496e-20)
(0.835161 0.0978194 -6.51484e-20)
(0.973516 0.132046 5.95411e-20)
(1.08043 0.160456 -5.20037e-20)
(1.15549 0.18124 9.25561e-20)
(1.20268 0.194317 3.90014e-20)
(1.22815 0.200765 -1.10713e-19)
(1.23841 0.202174 3.23485e-20)
(1.23907 0.200144 5.45275e-20)
(1.23432 0.195991 -2.69486e-20)
(1.22695 0.190659 0)
(1.21862 0.184752 3.90919e-20)
(1.21022 0.17862 6.53017e-20)
(1.20216 0.172449 1.05541e-20)
(1.19462 0.166334 -5.3934e-20)
(1.18763 0.160316 2.22604e-20)
(1.18114 0.154418 0)
(1.17509 0.148637 -1.71802e-20)
(1.16939 0.142921 -1.60895e-20)
(1.16394 0.137254 0)
(0.0604844 -0.00486504 0)
(0.215022 -0.00433527 2.41263e-20)
(0.39676 0.0183971 4.45259e-20)
(0.588335 0.0546447 -1.1854e-19)
(0.771044 0.0966682 3.82252e-20)
(0.929087 0.137816 0)
(1.05307 0.172877 5.70083e-20)
(1.14096 0.198993 -7.9487e-20)
(1.19654 0.215685 -4.61415e-20)
(1.22672 0.224138 2.08001e-20)
(1.23909 0.226304 -3.26448e-20)
(1.24027 0.224192 7.95956e-20)
(1.23522 0.219464 3.92776e-20)
(1.22721 0.213303 -2.76286e-20)
(1.21814 0.206461 -2.90469e-21)
(1.20902 0.199367 -7.32888e-20)
(1.20033 0.192248 3.32223e-20)
(1.19222 0.185215 -8.33645e-22)
(1.18474 0.17832 0)
(1.17785 0.171589 -2.22836e-20)
(1.17148 0.165028 0)
(1.16553 0.158617 4.93885e-20)
(1.15991 0.152331 -5.84512e-20)
(1.15449 0.146352 2.65142e-20)
(0.0803696 -0.00208591 -1.24991e-20)
(0.268028 0.00774236 -6.04919e-20)
(0.474082 0.0423316 6.86969e-20)
(0.678248 0.0893107 4.02874e-20)
(0.860709 0.138325 -1.92941e-20)
(1.00769 0.181832 3.21652e-20)
(1.11412 0.215275 -1.56736e-20)
(1.18271 0.237285 2.59047e-20)
(1.22084 0.248937 0)
(1.23732 0.252548 5.79393e-20)
(1.2401 0.250654 -2.59438e-21)
(1.23523 0.245398 -4.63646e-20)
(1.22673 0.238318 1.96653e-20)
(1.21693 0.230389 -2.19321e-20)
(1.20706 0.222162 -8.12576e-21)
(1.19766 0.213923 9.61916e-21)
(1.18894 0.205811 -7.27186e-21)
(1.18094 0.197889 -3.90941e-20)
(1.17362 0.190187 2.39126e-20)
(1.16691 0.182716 4.81454e-21)
(1.16072 0.175468 4.19879e-21)
(1.15494 0.168413 3.66262e-21)
(1.14945 0.161591 0)
(1.14412 0.15519 0)
(0.102018 0.00310598 1.25077e-20)
(0.322798 0.0258841 -1.25053e-20)
(0.549744 0.0739153 -2.28588e-20)
(0.760864 0.131055 0)
(0.937333 0.184978 -9.55565e-21)
(1.06937 0.228321 -8.5533e-21)
(1.15716 0.258077 -1.46003e-20)
(1.20782 0.274765 0)
(1.23137 0.280962 0)
(1.23742 0.279838 0)
(1.23356 0.274206 0)
(1.22489 0.26613 0)
(1.21445 0.256928 -1.22951e-20)
(1.20381 0.247346 5.58341e-21)
(1.19368 0.237766 9.60818e-21)
(1.1843 0.228364 4.47801e-21)
(1.17575 0.219221 1.09317e-20)
(1.16797 0.210368 0)
(1.16092 0.201819 -2.55221e-21)
(1.1545 0.193575 -2.42604e-21)
(1.14859 0.185615 -4.20548e-21)
(1.14307 0.177915 -3.66847e-21)
(1.13782 0.17058 0)
(1.1327 0.163641 2.55368e-21)
(0.000327067 -0.046532 9.10316e-21)
(-0.00264578 -0.110646 -9.44652e-21)
(-0.0111971 -0.153575 -1.7876e-20)
(-0.0232165 -0.18018 0)
(-0.0372587 -0.194822 -2.40201e-20)
(-0.0524083 -0.20126 7.61205e-21)
(-0.0679743 -0.202437 -1.4203e-20)
(-0.0834618 -0.200395 0)
(-0.0985482 -0.196339 0)
(-0.113031 -0.190789 0)
(-0.126776 -0.183777 0)
(-0.139682 -0.175025 0)
(-0.151652 -0.164103 3.19388e-22)
(-0.162579 -0.150526 -9.7822e-21)
(-0.17234 -0.133826 1.79553e-20)
(-0.180792 -0.113591 2.5712e-20)
(-0.187778 -0.0894976 7.60649e-21)
(-0.19311 -0.0613386 0)
(-0.19659 -0.0290502 7.33638e-21)
(-0.198065 0.00733417 -1.98507e-20)
(-0.197422 0.0474559 -1.20337e-20)
(-0.194543 0.0907899 -1.11225e-20)
(-0.18947 0.136743 0)
(-0.183213 0.184467 0)
(0.00239679 -0.0418632 -2.7091e-20)
(0.00121438 -0.0992517 4.6908e-20)
(-0.00769686 -0.137528 -1.73114e-20)
(-0.0211124 -0.161064 -3.33206e-20)
(-0.0369767 -0.173864 4.72979e-20)
(-0.0540733 -0.179388 -2.96764e-20)
(-0.0715521 -0.180313 4.21146e-20)
(-0.0888532 -0.178471 2.59885e-20)
(-0.10565 -0.174921 0)
(-0.121766 -0.170097 -2.39643e-20)
(-0.137103 -0.163997 -1.17226e-22)
(-0.15159 -0.156349 2.12748e-20)
(-0.165154 -0.146749 2.91712e-20)
(-0.177698 -0.134754 3.6855e-20)
(-0.189094 -0.119941 -1.799e-20)
(-0.199179 -0.101942 -4.93409e-20)
(-0.207771 -0.0804667 1.43339e-20)
(-0.214667 -0.0553153 -5.51963e-20)
(-0.219553 -0.0264055 0)
(-0.222251 0.00620443 1.2949e-20)
(-0.222643 0.0422713 1.20198e-20)
(-0.220342 0.0814933 1.11094e-20)
(-0.215289 0.123541 0)
(-0.209598 0.167974 0)
(0.00377411 -0.0358452 0)
(0.00374831 -0.0852212 9.0625e-20)
(-0.00542392 -0.118482 -3.42792e-20)
(-0.0196895 -0.139097 3.2848e-20)
(-0.0365386 -0.150444 -9.1461e-20)
(-0.0545266 -0.15551 0)
(-0.07268 -0.156612 -5.43654e-20)
(-0.0903835 -0.155329 2.51697e-20)
(-0.107298 -0.152568 -4.73951e-20)
(-0.123255 -0.148695 2.14136e-20)
(-0.138173 -0.143695 1.26197e-19)
(-0.151998 -0.13732 -5.9179e-20)
(-0.164667 -0.129212 -9.29998e-20)
(-0.176089 -0.118984 -3.30356e-20)
(-0.186136 -0.106268 7.0627e-22)
(-0.19464 -0.090749 1.19319e-19)
(-0.201388 -0.0721814 -5.56273e-20)
(-0.206132 -0.050392 2.61986e-21)
(-0.208604 -0.02527 0)
(-0.208595 0.00308802 -4.00411e-20)
(-0.205893 0.0346085 0)
(-0.199971 0.0691444 -3.63239e-20)
(-0.190312 0.106543 1.26802e-19)
(-0.179642 0.146576 -1.89139e-21)
(0.00431809 -0.0289611 0)
(0.0047069 -0.0695703 -6.83939e-22)
(-0.00464479 -0.0976939 3.33494e-20)
(-0.0192093 -0.11562 -3.14512e-20)
(-0.0362133 -0.125906 3.02257e-20)
(-0.0540749 -0.130952 1.68601e-19)
(-0.0717406 -0.132652 -5.303e-20)
(-0.0885513 -0.132306 -4.92419e-20)
(-0.104147 -0.130664 9.34632e-20)
(-0.118353 -0.128029 -1.31435e-19)
(-0.131084 -0.124382 4.02436e-20)
(-0.142287 -0.119512 3.72571e-20)
(-0.151898 -0.113112 0)
(-0.159829 -0.10485 3.35891e-20)
(-0.165955 -0.0944157 0)
(-0.170114 -0.0815465 5.34036e-20)
(-0.1721 -0.0660425 -9.9422e-20)
(-0.171641 -0.0477729 2.72785e-20)
(-0.168508 -0.0266926 8.47121e-20)
(-0.162486 -0.00283237 4.00024e-20)
(-0.153339 0.023807 0)
(-0.140617 0.0532589 -9.07796e-20)
(-0.123175 0.0857255 3.00382e-20)
(-0.102653 0.121378 0)
(0.00398071 -0.0216957 0)
(0.00400809 -0.0532852 -1.05119e-19)
(-0.00545978 -0.0763401 -3.3159e-20)
(-0.0197958 -0.0918387 -6.24587e-20)
(-0.036168 -0.101422 5.88167e-20)
(-0.0529572 -0.10684 -5.58492e-20)
(-0.0690808 -0.109529 1.03727e-19)
(-0.0838555 -0.110496 4.87499e-20)
(-0.0969008 -0.110332 -1.37377e-19)
(-0.108024 -0.109275 8.4416e-20)
(-0.117129 -0.107304 -1.18722e-19)
(-0.124151 -0.104241 2.53302e-19)
(-0.129027 -0.0998268 -1.36123e-19)
(-0.131669 -0.0937807 6.07356e-20)
(-0.131961 -0.0858407 1.66969e-19)
(-0.129757 -0.0757881 -5.68898e-20)
(-0.124879 -0.0634633 -4.89146e-20)
(-0.117116 -0.0487788 -4.53119e-20)
(-0.106233 -0.0317422 0)
(-0.0919954 -0.0123814 -6.48235e-20)
(-0.0742041 0.0092375 -5.35241e-20)
(-0.0525913 0.0331691 8.27871e-20)
(-0.025914 0.060001 9.10423e-20)
(0.00692167 0.0912217 -8.27379e-20)
(0.0028067 -0.0144942 0)
(0.0017502 -0.0372598 -1.37968e-19)
(-0.00775711 -0.0554662 5.13711e-23)
(-0.0213429 -0.068793 1.23312e-19)
(-0.0363121 -0.0779534 0)
(-0.0511091 -0.0840349 0)
(-0.0646768 -0.0880106 0)
(-0.0763331 -0.0905932 -4.77546e-20)
(-0.085685 -0.0922085 8.65736e-22)
(-0.092522 -0.0930243 8.35447e-20)
(-0.0967312 -0.093012 -1.15128e-19)
(-0.0982405 -0.0920166 1.02497e-21)
(-0.0969848 -0.089817 0)
(-0.0928883 -0.086173 -6.07096e-20)
(-0.0858578 -0.0808592 5.06727e-20)
(-0.0757813 -0.073688 -1.47345e-19)
(-0.0625286 -0.0645275 1.73278e-19)
(-0.0459537 -0.0533151 3.10553e-20)
(-0.0258931 -0.0400671 -8.48554e-21)
(-0.00216186 -0.0248732 -1.2563e-19)
(0.0254045 -0.00790395 -5.12933e-20)
(0.056978 0.0107031 1.58169e-19)
(0.0934994 0.0314434 -1.00823e-19)
(0.139728 0.0563856 0)
(0.000927524 -0.00774802 6.60164e-20)
(-0.00178384 -0.0222772 6.88054e-20)
(-0.0111763 -0.0359751 -6.50354e-20)
(-0.023433 -0.0473529 -1.22718e-19)
(-0.0361632 -0.0562588 1.15559e-19)
(-0.0479618 -0.0631477 -1.08261e-19)
(-0.0578466 -0.0685463 1.52614e-19)
(-0.0651605 -0.0728777 -4.73756e-20)
(-0.0695054 -0.0764003 8.8793e-20)
(-0.0706526 -0.0792022 0)
(-0.0684708 -0.0812313 7.3368e-20)
(-0.0628781 -0.0823404 -1.39491e-19)
(-0.0538132 -0.0823297 1.25082e-19)
(-0.0412212 -0.0809833 -1.17481e-19)
(-0.025048 -0.0780968 0)
(-0.00523919 -0.0734994 9.40683e-20)
(0.0182595 -0.0670717 1.60812e-19)
(0.0455024 -0.0587598 -1.52427e-19)
(0.0765448 -0.0485868 -6.39572e-20)
(0.111448 -0.0366616 -5.37459e-20)
(0.150245 -0.0232019 1.54136e-19)
(0.193272 -0.0084892 3.7883e-20)
(0.23864 0.0072157 -3.87555e-20)
(0.301941 0.025662 3.14561e-20)
(-0.00144773 -0.00178993 -6.60253e-20)
(-0.00613639 -0.00900834 2.06651e-19)
(-0.0151057 -0.0186427 -6.47712e-20)
(-0.0253167 -0.0282578 1.22675e-19)
(-0.0348052 -0.0369569 -1.15517e-19)
(-0.042378 -0.0446247 4.69342e-22)
(-0.0471606 -0.0513758 5.09222e-20)
(-0.0485346 -0.057356 1.88007e-19)
(-0.0460979 -0.0626532 -2.36585e-21)
(-0.0396001 -0.0672617 -8.26737e-20)
(-0.0288895 -0.0710862 0)
(-0.0138781 -0.073965 -6.63398e-20)
(0.00547741 -0.0756984 1.27235e-19)
(0.0291839 -0.0760761 1.11234e-19)
(0.0572151 -0.0749009 -5.35655e-20)
(0.0895115 -0.0720099 -7.84388e-22)
(0.125982 -0.0672923 -4.11738e-20)
(0.166507 -0.0607047 7.12817e-20)
(0.210941 -0.0522837 6.39386e-20)
(0.259155 -0.0421446 -5.58413e-20)
(0.310645 -0.0305923 4.76154e-20)
(0.367164 -0.0175951 -4.13683e-20)
(0.419681 -0.00460148 0)
(0.50294 0.0107279 -3.14105e-20)
(-0.00404479 0.00310756 6.66465e-20)
(-0.0106993 0.00197756 -6.89552e-20)
(-0.0187197 -0.00414641 6.57358e-20)
(-0.0259651 -0.0121688 0)
(-0.030965 -0.02061 0)
(-0.0327691 -0.0288721 1.0899e-19)
(-0.0306264 -0.0367044 -1.02012e-19)
(-0.0239647 -0.0439937 9.36878e-20)
(-0.0123834 -0.0506555 -4.39859e-19)
(0.00437732 -0.0565771 1.21409e-21)
(0.0264637 -0.0615999 7.49494e-20)
(0.0539225 -0.0655276 0)
(0.086707 -0.0681438 -1.22409e-19)
(0.124677 -0.0692344 2.25355e-19)
(0.167602 -0.0686094 -1.54549e-19)
(0.215162 -0.0661242 -2.21669e-19)
(0.266962 -0.0616975 9.44881e-21)
(0.32254 -0.0553264 1.46112e-19)
(0.381373 -0.0471045 0)
(0.443101 -0.0371366 0)
(0.506081 -0.0260436 -4.76052e-20)
(0.574608 -0.0130031 4.13591e-20)
(0.630781 -0.00116351 -1.4018e-19)
(0.727898 0.0144245 1.31519e-19)
(-0.00655709 0.00675084 0)
(-0.0147741 0.0102442 0)
(-0.0210526 0.00695562 -1.97906e-19)
(-0.0241726 0.000325372 6.27496e-20)
(-0.0231693 -0.00776456 3.8529e-22)
(-0.0173415 -0.0163335 1.10712e-19)
(-0.00607145 -0.0248214 0)
(0.0111441 -0.0328821 -9.57043e-20)
(0.0346611 -0.040265 8.82292e-20)
(0.0646787 -0.0467436 -1.62046e-19)
(0.101232 -0.0520868 1.62758e-21)
(0.144182 -0.0560576 1.35159e-19)
(0.193208 -0.0584266 -4.40531e-21)
(0.247812 -0.0589924 1.05817e-19)
(0.307326 -0.0576033 -1.5663e-19)
(0.370941 -0.054178 0)
(0.437744 -0.048721 1.56286e-19)
(0.506762 -0.0413303 -2.17694e-19)
(0.576949 -0.0322287 6.30494e-20)
(0.647637 -0.0215608 0)
(0.716404 -0.010252 4.89438e-20)
(0.788193 0.00294868 1.65303e-19)
(0.843324 0.0138681 -1.55128e-19)
(0.935824 0.0295181 -1.66589e-19)
(-0.00867945 0.00905186 2.05694e-19)
(-0.0176418 0.0155352 -2.83926e-19)
(-0.0211007 0.0142767 9.3143e-23)
(-0.0186886 0.00877116 6.3449e-20)
(-0.00991804 0.00112714 -1.18913e-19)
(0.00566072 -0.00739699 -1.10153e-19)
(0.0284985 -0.0159957 2.05546e-19)
(0.0589609 -0.0241256 -3.14675e-21)
(0.0972435 -0.0313873 -1.79497e-19)
(0.143316 -0.0374512 3.27096e-19)
(0.196879 -0.0420272 -4.20763e-21)
(0.257344 -0.0448624 -1.39987e-19)
(0.323826 -0.0457545 0)
(0.395177 -0.0445713 0)
(0.470038 -0.0412696 -5.08027e-20)
(0.546914 -0.035909 -9.12283e-20)
(0.624264 -0.0286561 -1.5757e-19)
(0.700583 -0.0197834 1.47904e-19)
(0.774459 -0.00965723 -6.30675e-20)
(0.844811 0.00134896 1.08918e-19)
(0.909928 0.0124974 -5.48954e-20)
(0.972067 0.0242851 8.06515e-20)
(1.01989 0.0337019 -2.00032e-19)
(1.08778 0.0464982 3.3981e-20)
(-0.010138 0.0100357 6.94637e-20)
(-0.0185974 0.0178127 0)
(-0.01784 0.0176919 1.35855e-19)
(-0.00822566 0.0129925 -1.27984e-19)
(0.0103 0.00589464 1.19015e-19)
(0.0379175 -0.00216457 0)
(0.0748295 -0.010202 0)
(0.121113 -0.0175255 -9.59554e-20)
(0.17658 -0.0236243 3.08077e-21)
(0.24068 -0.0281066 8.46953e-20)
(0.312443 -0.0306764 -7.40789e-20)
(0.390475 -0.0311352 1.40765e-19)
(0.473013 -0.0293944 0)
(0.558022 -0.0254871 2.22808e-19)
(0.643339 -0.0195729 -4.09032e-19)
(0.726816 -0.0119317 2.78887e-19)
(0.806472 -0.00294317 1.58831e-19)
(0.880596 0.0069256 -1.49096e-19)
(0.947868 0.0172117 0)
(1.00731 0.0273038 0)
(1.05853 0.0369595 0)
(1.10156 0.0453844 0)
(1.13491 0.0524439 3.95653e-20)
(1.16988 0.0593521 -1.42297e-19)
(-0.176255 0.240364 -6.87082e-21)
(-0.164427 0.307921 6.89132e-21)
(-0.149317 0.374453 -1.81016e-22)
(-0.131535 0.436354 0)
(-0.110784 0.490118 -5.04396e-21)
(-0.0862205 0.531741 9.52169e-21)
(-0.0562256 0.557279 -1.97641e-22)
(-0.0184808 0.561708 -4.17205e-21)
(0.029298 0.54038 0)
(0.0882307 0.489237 0)
(0.157569 0.407434 -2.61168e-22)
(0.234204 0.297473 -2.68726e-22)
(0.313578 0.16438 -4.47096e-21)
(0.391482 0.0145122 4.08018e-21)
(0.46601 -0.144491 0)
(0.535462 -0.298881 0)
(0.595846 -0.429145 2.69684e-21)
(0.642692 -0.518641 -4.80765e-22)
(0.673236 -0.563518 -1.96077e-21)
(0.687666 -0.572394 -9.2375e-23)
(0.689779 -0.558142 0)
(0.682475 -0.536025 0)
(0.66215 -0.523802 0)
(0.625118 -0.527247 0)
(0.58059 -0.522304 0)
(0.551532 -0.463089 0)
(0.556441 -0.322036 5.87231e-22)
(0.594348 -0.118303 -9.1352e-22)
(0.65043 0.0949273 0)
(0.709136 0.269542 0)
(0.757639 0.382801 -4.51415e-22)
(0.791456 0.438807 4.38718e-22)
(0.812612 0.453213 1.53998e-22)
(0.819114 0.455786 0)
(0.80262 0.472055 0)
(0.763658 0.490167 2.96696e-22)
(0.722062 0.462494 -2.88413e-22)
(0.703094 0.341321 0)
(0.712673 0.150363 4.00206e-22)
(0.745455 -0.0617502 -5.89554e-22)
(0.782978 -0.222163 1.67045e-22)
(0.820645 -0.324551 0)
(0.842778 -0.369368 -1.83031e-22)
(0.834888 -0.397641 1.77979e-22)
(0.796094 -0.415741 0)
(0.748129 -0.376921 0)
(0.7249 -0.282868 -8.35711e-23)
(0.739326 -0.0924286 2.36272e-22)
(0.776768 0.0556718 0)
(0.815217 0.209029 0)
(0.822789 0.293618 -5.09018e-23)
(0.797094 0.352748 1.6469e-24)
(0.774081 0.375906 -1.67628e-24)
(0.770662 0.235548 4.50988e-23)
(0.791509 0.157399 0)
(0.812551 -0.0782654 0)
(0.809965 -0.188412 0)
(0.798538 -0.284849 0)
(0.799135 -0.383979 0)
(0.784036 -0.119787 0)
(-0.206351 0.220811 -5.5878e-22)
(-0.192052 0.284609 -2.25155e-20)
(-0.172615 0.347566 1.12043e-21)
(-0.147643 0.405734 2.00942e-20)
(-0.116399 0.456038 2.71619e-22)
(-0.0777469 0.493016 0)
(-0.0307024 0.512897 -1.64176e-20)
(0.025785 0.511006 3.2742e-20)
(0.0924305 0.483198 -1.63315e-20)
(0.168166 0.426976 1.73457e-20)
(0.250455 0.342611 -1.65965e-20)
(0.335168 0.233102 1.80696e-20)
(0.418198 0.103086 -1.75852e-20)
(0.496577 -0.0428299 -5.74759e-22)
(0.569245 -0.197427 -1.62305e-20)
(0.634083 -0.346362 1.57721e-20)
(0.685958 -0.468411 -1.15785e-20)
(0.720228 -0.546615 1.09287e-20)
(0.736117 -0.578918 -7.15305e-21)
(0.735997 -0.57689 1.24268e-20)
(0.72476 -0.554938 -5.34364e-21)
(0.707223 -0.525913 -2.49211e-22)
(0.681331 -0.504913 -3.70383e-21)
(0.640701 -0.500897 7.39643e-21)
(0.588842 -0.497473 -3.68999e-21)
(0.54588 -0.452193 2.52207e-22)
(0.534748 -0.331201 5.41785e-21)
(0.560864 -0.143749 3.98512e-22)
(0.611982 0.0617453 -1.0055e-20)
(0.671403 0.238073 8.87035e-21)
(0.725044 0.35858 -4.00675e-21)
(0.767173 0.422832 3.45685e-22)
(0.797463 0.445249 -1.54322e-22)
(0.81074 0.457116 2.6852e-22)
(0.798787 0.482881 0)
(0.765179 0.505872 0)
(0.731245 0.475151 -1.51675e-21)
(0.720709 0.345206 1.05312e-21)
(0.735819 0.144711 1.28866e-21)
(0.770788 -0.0732483 5.49753e-23)
(0.804891 -0.235053 -1.67728e-21)
(0.836861 -0.334295 2.74885e-22)
(0.853431 -0.371679 0)
(0.843052 -0.390273 0)
(0.802281 -0.402484 0)
(0.750533 -0.366004 0)
(0.724399 -0.281474 2.73219e-22)
(0.735358 -0.100159 -1.5514e-22)
(0.773533 0.0445184 0)
(0.810104 0.202664 0)
(0.818354 0.295195 0)
(0.792676 0.35847 -9.34479e-23)
(0.77033 0.379195 -5.57472e-24)
(0.76997 0.233503 -8.67683e-23)
(0.792454 0.152764 0)
(0.819047 -0.079844 0)
(0.815683 -0.187453 5.73016e-23)
(0.804356 -0.283389 1.43341e-22)
(0.803797 -0.382644 0)
(0.785986 -0.118464 0)
(-0.17524 0.194862 -1.13268e-21)
(-0.158566 0.253413 -3.91155e-20)
(-0.135108 0.312085 3.6353e-20)
(-0.103773 0.36472 -3.4052e-20)
(-0.0644345 0.409152 -2.73486e-22)
(-0.0164021 0.440884 0)
(0.0422385 0.455673 -3.25115e-20)
(0.110621 0.449312 3.18498e-20)
(0.187756 0.418161 2.58535e-22)
(0.271544 0.360702 5.47329e-22)
(0.358708 0.277816 5.76529e-22)
(0.445214 0.172589 5.79859e-22)
(0.527445 0.0488092 -3.87818e-20)
(0.603585 -0.0904328 3.82633e-20)
(0.67317 -0.238663 0)
(0.732721 -0.380466 1.00033e-21)
(0.775442 -0.493385 -2.42505e-20)
(0.796673 -0.56104 2.3889e-20)
(0.797903 -0.583144 0)
(0.784144 -0.573125 0)
(0.761067 -0.546403 -9.20417e-21)
(0.734205 -0.513518 1.66398e-20)
(0.703362 -0.485701 -1.40657e-20)
(0.660917 -0.473752 1.11519e-22)
(0.604715 -0.469682 1.34215e-20)
(0.550333 -0.437143 -1.51966e-20)
(0.523325 -0.337552 1.61691e-20)
(0.535933 -0.169182 -2.66445e-23)
(0.579939 0.0263138 -8.83651e-21)
(0.638188 0.202784 0)
(0.695688 0.329731 0)
(0.74533 0.402346 1.83412e-21)
(0.784098 0.43373 -2.42234e-21)
(0.803936 0.455783 -9.61769e-24)
(0.797059 0.491292 2.32587e-21)
(0.769644 0.519279 -2.26041e-21)
(0.74357 0.486401 0)
(0.741159 0.349362 4.22925e-22)
(0.761614 0.141201 4.2201e-21)
(0.798573 -0.0815846 -7.9041e-21)
(0.829287 -0.24452 3.23454e-21)
(0.855178 -0.341338 3.00206e-22)
(0.865869 -0.372596 -1.9234e-21)
(0.853045 -0.382295 1.45957e-21)
(0.810892 -0.388917 2.55414e-22)
(0.755957 -0.354932 2.37296e-22)
(0.727153 -0.280446 -2.73905e-22)
(0.734247 -0.108588 0)
(0.772598 0.0327528 0)
(0.80686 0.195796 -8.01651e-22)
(0.815753 0.296448 3.95279e-22)
(0.790024 0.363892 -3.65806e-22)
(0.768244 0.382503 5.83151e-22)
(0.7708 0.231311 8.20675e-22)
(0.794929 0.147744 -1.71499e-22)
(0.826981 -0.0814855 3.58036e-22)
(0.822697 -0.186314 -2.87216e-22)
(0.811125 -0.281588 1.36438e-22)
(0.80927 -0.381034 0)
(0.788825 -0.117038 0)
(-0.0928795 0.165253 -6.6806e-20)
(-0.0735968 0.217562 1.66599e-21)
(-0.0478821 0.268524 6.16393e-20)
(-0.0147685 0.315005 -5.03863e-22)
(0.0294082 0.353486 0)
(0.0831697 0.380761 0)
(0.14703 0.391943 -6.27828e-20)
(0.219902 0.383032 -5.63134e-21)
(0.300117 0.351245 9.9306e-20)
(0.385074 0.295625 2.55228e-21)
(0.471367 0.21724 -3.65812e-20)
(0.555341 0.118793 -3.86795e-20)
(0.634298 0.00279653 3.87624e-20)
(0.707591 -0.128673 0)
(0.774336 -0.269864 -3.50944e-20)
(0.828862 -0.403857 3.20726e-20)
(0.862423 -0.507195 0)
(0.870757 -0.564818 0)
(0.857824 -0.578523 1.48225e-20)
(0.831451 -0.562739 -3.11266e-21)
(0.798134 -0.533258 -1.06658e-20)
(0.763027 -0.499107 -7.40374e-21)
(0.727511 -0.467095 7.34377e-21)
(0.6846 -0.447201 -5.99703e-21)
(0.627428 -0.439357 -1.19736e-22)
(0.565052 -0.416622 5.78357e-21)
(0.523057 -0.339017 8.57758e-22)
(0.520483 -0.192711 1.03305e-22)
(0.554951 -0.00977544 0)
(0.609978 0.164525 6.27026e-21)
(0.6699 0.296731 -6.41539e-21)
(0.725975 0.377611 3.13691e-22)
(0.772355 0.418598 0)
(0.798506 0.451285 -2.62095e-22)
(0.797158 0.496539 4.72206e-21)
(0.776491 0.529774 -9.59099e-21)
(0.758326 0.496143 -2.16028e-21)
(0.763812 0.35417 -1.19733e-21)
(0.789308 0.139905 6.6039e-21)
(0.828094 -0.0868216 9.28385e-22)
(0.855745 -0.250756 -5.57245e-21)
(0.875422 -0.345865 4.83593e-21)
(0.879959 -0.372363 -5.22317e-24)
(0.86457 -0.374049 1.14852e-21)
(0.821539 -0.375187 -1.37288e-21)
(0.764052 -0.343549 -1.57635e-21)
(0.732855 -0.279449 4.69443e-22)
(0.735735 -0.117434 8.42427e-22)
(0.773775 0.0204931 -1.60178e-21)
(0.805412 0.188395 1.15748e-21)
(0.814976 0.297315 -3.87228e-22)
(0.789234 0.368997 2.97776e-22)
(0.768004 0.385897 3.6254e-22)
(0.773301 0.229087 -1.30893e-21)
(0.798969 0.142391 1.0454e-23)
(0.836301 -0.0831799 -4.24439e-22)
(0.830963 -0.184967 0)
(0.818836 -0.27943 -1.33758e-22)
(0.815505 -0.379142 1.15871e-22)
(0.792489 -0.115513 0)
(0.0226004 0.1309 5.78753e-20)
(0.0414453 0.17681 -1.11988e-19)
(0.0684123 0.220197 5.35122e-20)
(0.103831 0.261244 5.35491e-20)
(0.148934 0.295076 -1.06915e-19)
(0.20352 0.318317 -3.36191e-21)
(0.2673 0.326801 5.55852e-20)
(0.339176 0.317085 6.45652e-20)
(0.417268 0.286857 -6.32668e-20)
(0.498944 0.235273 0)
(0.581078 0.16313 -7.79281e-20)
(0.660607 0.0724027 1.55836e-19)
(0.735937 -0.0351306 -7.78651e-20)
(0.806926 -0.158551 0)
(0.871245 -0.291715 0)
(0.920443 -0.416246 1.02772e-21)
(0.944265 -0.508943 -5.01078e-20)
(0.93986 -0.557124 4.86783e-20)
(0.913854 -0.564751 0)
(0.876479 -0.546124 2.34749e-20)
(0.834994 -0.51606 -3.94271e-20)
(0.793384 -0.482663 3.06297e-20)
(0.753598 -0.449364 -2.51178e-20)
(0.710712 -0.423187 9.64384e-22)
(0.655333 -0.409352 1.98745e-20)
(0.589153 -0.391974 -9.78921e-21)
(0.534317 -0.334479 -3.84033e-22)
(0.515535 -0.212605 -5.62842e-21)
(0.537784 -0.0454134 1.14948e-23)
(0.587206 0.12403 5.69574e-21)
(0.647963 0.259973 3.26993e-22)
(0.709059 0.348715 -3.99194e-21)
(0.761956 0.399564 7.7573e-21)
(0.794109 0.443001 -4.22906e-21)
(0.798636 0.497946 0)
(0.785094 0.537029 -6.36729e-21)
(0.774795 0.504417 6.35374e-21)
(0.787781 0.359694 -7.21971e-21)
(0.818096 0.140891 8.98839e-21)
(0.858757 -0.08891 -1.00832e-21)
(0.883781 -0.253671 0)
(0.897261 -0.34769 -6.17641e-22)
(0.895491 -0.370874 1.30277e-21)
(0.877407 -0.365619 0)
(0.833895 -0.361482 2.23296e-21)
(0.774421 -0.331939 -9.11745e-22)
(0.741111 -0.278302 4.17443e-22)
(0.739487 -0.126515 3.34875e-22)
(0.776807 0.00781102 0)
(0.805634 0.180396 0)
(0.815965 0.297691 -1.04454e-21)
(0.790377 0.373744 1.82538e-21)
(0.769766 0.389418 -1.20636e-21)
(0.77759 0.226929 4.66377e-22)
(0.804589 0.136743 9.29175e-22)
(0.846934 -0.0849127 4.2484e-22)
(0.840421 -0.183366 -6.74523e-22)
(0.82747 -0.276869 0)
(0.822443 -0.376948 -2.07046e-22)
(0.79691 -0.113887 4.96536e-24)
(0.157726 0.0923776 5.20278e-20)
(0.175737 0.133866 -5.16417e-20)
(0.20084 0.172853 4.03454e-22)
(0.234855 0.208176 -3.63561e-22)
(0.278044 0.237368 4.02869e-22)
(0.330084 0.257245 -4.1832e-22)
(0.390444 0.264145 8.39057e-22)
(0.458104 0.255 0)
(0.531323 0.22773 -9.86393e-22)
(0.607754 0.181323 1.06418e-21)
(0.684765 0.115965 1.13197e-21)
(0.760188 0.0326637 -1.22842e-21)
(0.832888 -0.0664746 0)
(0.902191 -0.181749 0)
(0.963536 -0.305429 1.10685e-21)
(1.00588 -0.418575 0)
(1.01887 -0.499883 -8.34273e-22)
(1.00215 -0.539697 0)
(0.964859 -0.543574 -2.90544e-20)
(0.918566 -0.524755 5.12039e-20)
(0.870915 -0.495999 -3.87835e-20)
(0.82466 -0.464584 1.67666e-20)
(0.781185 -0.432171 1.05624e-20)
(0.738122 -0.402159 -1.0258e-20)
(0.686297 -0.381562 -8.29548e-21)
(0.62077 -0.364885 8.06158e-21)
(0.55681 -0.323514 0)
(0.521764 -0.226801 2.38088e-22)
(0.52935 -0.0793993 0)
(0.570582 0.0822444 0)
(0.630131 0.219978 6.95229e-21)
(0.694468 0.315777 -7.16045e-21)
(0.752597 0.376414 3.78276e-22)
(0.790374 0.430461 4.66333e-22)
(0.800961 0.494974 -4.88691e-22)
(0.794696 0.5407 -5.74193e-21)
(0.792108 0.511181 5.57505e-21)
(0.812217 0.366069 -9.37427e-21)
(0.847177 0.144296 8.15176e-21)
(0.889791 -0.0878941 2.0541e-21)
(0.912823 -0.253345 -5.99256e-21)
(0.920332 -0.346793 8.3633e-22)
(0.912201 -0.368126 3.33624e-21)
(0.89129 -0.357125 0)
(0.847593 -0.347929 -8.8764e-22)
(0.786606 -0.320087 1.03449e-21)
(0.751439 -0.276818 -1.38192e-21)
(0.745101 -0.135648 -3.36999e-22)
(0.781389 -0.00527128 0)
(0.807352 0.171693 3.36624e-22)