/*--------------------------------*- C++ -*----------------------------------*\
| =========                 |                                                 |
| \\      /  F ield         | OpenFOAM: The Open Source CFD Toolbox           |
|  \\    /   O peration     | Version:  2512                                  |
|   \\  /    A nd           | Website:  www.openfoam.com                      |
|    \\/     M anipulation  |                                                 |
\*---------------------------------------------------------------------------*/
FoamFile
{
    version     2.0;
    format      ascii;
    arch        "LSB;label=32;scalar=64";
    class       volScalarField;
    location    "106";
    object      p;
}
// * * * * * * * * * * * * * * * * * * * * * * * * * * * * * * * * * * * * * //

dimensions      [0 2 -2 0 0 0 0];

internalField   nonuniform List<scalar> 
13248
(
-0.45549
-0.45244
-0.448862
-0.44506
-0.441422
-0.438364
-0.436153
-0.434855
-0.434336
-0.434276
-0.434203
-0.433547
-0.431713
-0.42816
-0.422464
-0.414375
-0.403829
-0.39094
-0.375946
-0.359179
-0.340852
-0.321355
-0.299749
-0.276909
-0.464309
-0.460689
-0.456518
-0.452102
-0.447796
-0.443974
-0.440835
-0.438359
-0.436323
-0.434335
-0.431898
-0.428485
-0.423623
-0.41696
-0.408303
-0.397631
-0.385067
-0.370838
-0.355218
-0.338477
-0.320835
-0.302497
-0.283318
-0.264129
-0.475154
-0.47069
-0.465794
-0.460716
-0.455708
-0.451052
-0.446838
-0.442931
-0.439023
-0.434696
-0.429508
-0.423071
-0.415117
-0.405526
-0.394325
-0.381658
-0.367741
-0.352816
-0.337109
-0.320824
-0.304101
-0.287124
-0.269788
-0.252592
-0.488096
-0.482531
-0.476771
-0.470946
-0.465125
-0.459451
-0.453872
-0.448141
-0.441911
-0.434822
-0.426586
-0.417033
-0.40613
-0.393967
-0.380719
-0.366598
-0.35182
-0.336573
-0.321017
-0.305276
-0.289458
-0.273685
-0.257918
-0.242634
-0.503053
-0.496177
-0.489423
-0.482729
-0.475903
-0.468906
-0.461545
-0.453509
-0.444501
-0.434327
-0.422929
-0.41038
-0.396854
-0.382571
-0.367758
-0.352614
-0.337298
-0.321928
-0.306591
-0.291354
-0.276275
-0.261417
-0.246764
-0.2326
-0.519814
-0.511488
-0.503637
-0.495913
-0.487795
-0.479044
-0.469372
-0.458505
-0.446317
-0.432866
-0.418356
-0.403069
-0.387301
-0.371312
-0.355305
-0.339418
-0.323737
-0.308313
-0.293177
-0.278349
-0.263851
-0.249707
-0.235913
-0.222644
-0.53804
-0.528205
-0.519167
-0.510202
-0.500392
-0.489335
-0.476755
-0.462559
-0.446906
-0.430149
-0.412719
-0.395026
-0.377395
-0.360051
-0.343125
-0.326681
-0.310738
-0.295292
-0.28033
-0.265838
-0.251807
-0.23823
-0.225106
-0.212488
-0.557221
-0.545894
-0.535585
-0.525086
-0.513072
-0.499075
-0.483001
-0.465088
-0.445851
-0.425916
-0.405856
-0.386109
-0.366952
-0.348526
-0.330881
-0.314008
-0.29787
-0.28242
-0.267613
-0.253408
-0.239774
-0.226684
-0.214132
-0.202071
-0.576639
-0.563907
-0.55222
-0.539804
-0.524991
-0.507419
-0.487377
-0.465549
-0.442803
-0.419952
-0.39761
-0.376154
-0.355763
-0.336483
-0.318279
-0.301084
-0.284814
-0.269392
-0.254746
-0.240813
-0.227542
-0.214895
-0.202846
-0.191277
-0.595342
-0.581343
-0.568128
-0.553336
-0.535112
-0.513442
-0.489169
-0.463459
-0.437459
-0.412056
-0.387801
-0.364959
-0.343591
-0.323648
-0.305028
-0.28761
-0.27128
-0.255931
-0.24147
-0.227815
-0.214902
-0.202679
-0.19109
-0.17999
-0.612175
-0.597064
-0.582114
-0.564439
-0.542259
-0.516153
-0.487619
-0.45826
-0.429378
-0.401821
-0.376014
-0.352081
-0.32997
-0.309546
-0.290649
-0.273121
-0.256817
-0.241608
-0.227383
-0.214045
-0.201514
-0.189726
-0.178582
-0.167959
-0.625884
-0.609845
-0.59293
-0.571872
-0.545275
-0.514535
-0.481842
-0.44914
-0.417766
-0.388442
-0.361425
-0.336688
-0.314071
-0.293365
-0.274361
-0.256865
-0.240709
-0.225743
-0.211841
-0.198894
-0.186814
-0.175517
-0.164878
-0.154838
-0.351424
-0.353529
-0.354877
-0.355953
-0.35718
-0.358684
-0.360491
-0.362591
-0.364942
-0.367484
-0.370133
-0.372795
-0.375342
-0.377614
-0.379443
-0.380653
-0.381018
-0.380328
-0.378393
-0.375068
-0.370273
-0.364006
-0.356376
-0.347679
-0.364405
-0.365972
-0.367142
-0.368321
-0.369875
-0.371925
-0.3745
-0.377585
-0.381134
-0.385078
-0.389328
-0.393767
-0.398249
-0.40257
-0.406455
-0.409772
-0.41208
-0.413056
-0.412363
-0.409692
-0.404795
-0.39748
-0.387631
-0.375601
-0.377458
-0.378342
-0.379225
-0.380413
-0.382189
-0.384671
-0.387886
-0.391813
-0.3964
-0.40157
-0.407223
-0.413223
-0.419393
-0.425506
-0.431277
-0.436229
-0.44007
-0.442333
-0.442477
-0.440051
-0.434651
-0.425932
-0.413562
-0.397881
-0.389986
-0.390107
-0.390597
-0.391676
-0.393522
-0.396252
-0.399894
-0.404421
-0.409772
-0.415858
-0.42256
-0.429717
-0.437115
-0.444473
-0.451424
-0.457561
-0.462326
-0.465385
-0.465711
-0.46294
-0.456535
-0.446054
-0.431056
-0.41155
-0.401459
-0.400804
-0.400846
-0.401669
-0.40339
-0.406127
-0.409915
-0.414723
-0.420481
-0.427083
-0.434391
-0.442216
-0.45031
-0.458354
-0.465945
-0.472522
-0.477563
-0.48042
-0.480349
-0.47669
-0.468856
-0.456354
-0.438993
-0.416004
-0.411504
-0.410153
-0.409695
-0.410127
-0.411515
-0.413991
-0.41761
-0.422344
-0.428118
-0.43481
-0.442259
-0.450248
-0.45849
-0.466617
-0.474166
-0.480571
-0.485193
-0.487319
-0.48621
-0.48116
-0.47161
-0.457014
-0.437824
-0.412057
-0.419959
-0.418056
-0.417088
-0.41701
-0.417867
-0.419824
-0.422965
-0.427282
-0.432698
-0.439082
-0.446251
-0.453954
-0.461861
-0.469563
-0.476544
-0.482193
-0.485817
-0.486676
-0.484039
-0.477229
-0.465836
-0.449267
-0.428721
-0.401251
-0.426899
-0.424625
-0.423173
-0.422496
-0.422663
-0.423885
-0.42629
-0.429899
-0.434647
-0.440398
-0.446943
-0.453992
-0.461185
-0.468043
-0.473999
-0.4784
-0.480526
-0.479643
-0.475082
-0.466266
-0.453015
-0.434808
-0.413326
-0.385374
-0.43264
-0.430168
-0.428272
-0.426948
-0.426323
-0.426667
-0.428161
-0.430864
-0.434729
-0.43961
-0.445276
-0.451403
-0.457554
-0.463197
-0.467707
-0.470395
-0.470548
-0.467502
-0.460724
-0.449833
-0.434889
-0.415612
-0.393732
-0.366394
-0.437697
-0.435148
-0.432844
-0.430861
-0.429409
-0.428819
-0.429327
-0.431028
-0.433885
-0.437751
-0.442352
-0.447297
-0.452087
-0.456122
-0.458731
-0.459224
-0.456958
-0.451413
-0.442268
-0.429434
-0.413196
-0.393624
-0.372199
-0.34643
-0.442729
-0.44013
-0.43743
-0.4348
-0.432538
-0.431032
-0.430556
-0.431229
-0.433022
-0.435747
-0.439076
-0.442549
-0.445594
-0.447564
-0.447789
-0.445647
-0.440634
-0.432436
-0.420967
-0.406421
-0.389236
-0.369914
-0.349678
-0.326468
-0.448448
-0.445712
-0.44259
-0.439337
-0.436321
-0.433966
-0.432564
-0.43223
-0.432901
-0.434336
-0.436136
-0.43777
-0.438621
-0.438049
-0.435461
-0.430383
-0.422518
-0.411776
-0.398264
-0.382307
-0.364271
-0.344871
-0.324801
-0.304127
-0.336845
-0.323421
-0.311032
-0.300907
-0.29434
-0.292112
-0.294233
-0.299745
-0.306358
-0.310408
-0.307606
-0.30065
-0.281858
-0.252939
-0.217668
-0.181747
-0.150756
-0.128251
-0.115219
-0.110949
-0.11495
-0.128053
-0.150145
-0.176047
-0.195018
-0.196362
-0.178504
-0.149108
-0.118562
-0.0938808
-0.0776685
-0.0694087
-0.0675317
-0.0725351
-0.08592
-0.104072
-0.11661
-0.114286
-0.0993507
-0.0810863
-0.0668381
-0.0583758
-0.055288
-0.0598936
-0.0703031
-0.077621
-0.0752118
-0.0651641
-0.0537942
-0.0450265
-0.0385556
-0.0370266
-0.0358094
-0.0340331
-0.0322189
-0.0285158
-0.020656
-0.0151496
-0.00949797
-0.00378819
-0.360752
-0.340292
-0.319497
-0.299782
-0.283016
-0.270469
-0.262989
-0.260545
-0.261065
-0.262177
-0.26011
-0.253846
-0.239195
-0.216572
-0.18876
-0.160479
-0.136519
-0.120018
-0.111895
-0.111765
-0.119823
-0.137344
-0.163761
-0.192837
-0.212835
-0.212677
-0.191668
-0.158475
-0.124435
-0.0968053
-0.0779649
-0.0672771
-0.063058
-0.0653556
-0.075578
-0.0910518
-0.102518
-0.10134
-0.089214
-0.0743463
-0.0633201
-0.0575981
-0.0571019
-0.0643509
-0.0773715
-0.0860172
-0.0831126
-0.0708992
-0.0569019
-0.0459762
-0.0374007
-0.0342121
-0.031235
-0.0293448
-0.0278138
-0.025226
-0.0192357
-0.0149799
-0.0107788
-0.00477186
-0.380096
-0.353304
-0.324731
-0.296016
-0.27
-0.247345
-0.229792
-0.218123
-0.211947
-0.209131
-0.205739
-0.202807
-0.19135
-0.175437
-0.155403
-0.135046
-0.118352
-0.107969
-0.10475
-0.108709
-0.120728
-0.142341
-0.172493
-0.204178
-0.225144
-0.224232
-0.201054
-0.165097
-0.1284
-0.0984544
-0.0774442
-0.0646179
-0.0582468
-0.057991
-0.065089
-0.0778092
-0.0881333
-0.0879987
-0.0786238
-0.0670703
-0.0592019
-0.0562357
-0.058399
-0.0682955
-0.0838812
-0.0938786
-0.0905742
-0.0762936
-0.05969
-0.0466973
-0.036206
-0.0315524
-0.0269248
-0.0248207
-0.0233988
-0.0218781
-0.0177848
-0.0148028
-0.0120726
-0.00577966
-0.3915
-0.360051
-0.324909
-0.288086
-0.256389
-0.224507
-0.197329
-0.176357
-0.163369
-0.155421
-0.14792
-0.149384
-0.140158
-0.131233
-0.118758
-0.106098
-0.0964059
-0.0918419
-0.0931827
-0.100937
-0.1166
-0.141867
-0.175297
-0.209321
-0.231451
-0.230603
-0.206376
-0.168798
-0.130397
-0.0988715
-0.0762433
-0.0616582
-0.0533973
-0.0508168
-0.0549531
-0.064922
-0.0739684
-0.0747088
-0.0678819
-0.0594351
-0.0545605
-0.0542605
-0.0590288
-0.0714772
-0.0895545
-0.100949
-0.097394
-0.0812448
-0.062127
-0.0471837
-0.0349776
-0.0290626
-0.0229147
-0.0205034
-0.0190249
-0.0185064
-0.0163196
-0.0146199
-0.0133692
-0.00680408
-0.393848
-0.359588
-0.320754
-0.280333
-0.240682
-0.202517
-0.167734
-0.137586
-0.120197
-0.106234
-0.0960689
-0.0941172
-0.0910495
-0.0856815
-0.0797131
-0.0740236
-0.0707158
-0.0713875
-0.0768635
-0.0881651
-0.107234
-0.135799
-0.172081
-0.208189
-0.231611
-0.23163
-0.207592
-0.169645
-0.130594
-0.0982355
-0.074526
-0.0585913
-0.0487523
-0.0441524
-0.0455448
-0.0528254
-0.0605106
-0.0626868
-0.057273
-0.0516014
-0.0494521
-0.051626
-0.0588486
-0.0736906
-0.0941465
-0.106963
-0.10335
-0.0856536
-0.0641953
-0.0474438
-0.0337218
-0.0267435
-0.0192274
-0.0164302
-0.0147434
-0.0151465
-0.0148548
-0.0144327
-0.0146554
-0.00783616
-0.387897
-0.352412
-0.312707
-0.270649
-0.227588
-0.185333
-0.145891
-0.111409
-0.0847691
-0.0648607
-0.0510528
-0.0450245
-0.0421383
-0.0403851
-0.0397739
-0.0397792
-0.0418597
-0.0470769
-0.0563888
-0.071134
-0.0934404
-0.124882
-0.163461
-0.201292
-0.226076
-0.22753
-0.204806
-0.167769
-0.12916
-0.0967214
-0.0724422
-0.0555492
-0.0444511
-0.0381842
-0.0371556
-0.0418641
-0.0480446
-0.0504288
-0.0469696
-0.0437297
-0.0439435
-0.0483225
-0.0577797
-0.0747846
-0.0974543
-0.111694
-0.108266
-0.0894342
-0.0658828
-0.047485
-0.0324392
-0.0245825
-0.0158735
-0.0126296
-0.0106026
-0.0118289
-0.0134025
-0.0142406
-0.0159161
-0.008867
-0.375416
-0.34017
-0.302299
-0.261476
-0.218325
-0.174987
-0.133498
-0.0957394
-0.0635547
-0.0378288
-0.0188916
-0.00752304
-0.00188794
-0.000728076
-0.00217484
-0.00570623
-0.0116597
-0.0206035
-0.0333954
-0.0514164
-0.0766758
-0.110432
-0.150571
-0.189566
-0.215617
-0.218993
-0.198445
-0.163449
-0.126303
-0.0944996
-0.0701215
-0.0526216
-0.0405643
-0.0329598
-0.0298995
-0.032243
-0.0368746
-0.0391991
-0.0372638
-0.0359982
-0.0381521
-0.0443994
-0.0557877
-0.0746661
-0.09934
-0.114987
-0.111995
-0.0925074
-0.0671756
-0.0473144
-0.0311303
-0.022558
-0.0128444
-0.00911871
-0.00664737
-0.00857741
-0.0119731
-0.0140416
-0.017138
-0.00988775
-0.358482
-0.324649
-0.29066
-0.253457
-0.212813
-0.171053
-0.130079
-0.0913271
-0.056296
-0.0262972
-0.00227612
0.0149126
0.0254399
0.0297053
0.0290332
0.0245981
0.0167288
0.00531974
-0.0102269
-0.0310368
-0.0586897
-0.0940018
-0.134848
-0.174312
-0.20127
-0.206831
-0.189043
-0.156998
-0.122191
-0.0916742
-0.0676346
-0.0498487
-0.0371146
-0.0284843
-0.0237793
-0.0240339
-0.0271578
-0.0292666
-0.0284049
-0.0285987
-0.0322262
-0.0399427
-0.0529064
-0.0733099
-0.0997477
-0.116772
-0.114425
-0.094814
-0.0680687
-0.0469449
-0.0298021
-0.0206614
-0.0101235
-0.00589929
-0.0029163
-0.00540882
-0.0105758
-0.0138336
-0.0183083
-0.0108886
-0.339194
-0.307905
-0.27888
-0.246402
-0.209763
-0.171426
-0.132963
-0.0953628
-0.0598603
-0.0277791
-0.000206614
0.021932
0.0379634
0.0473365
0.0499955
0.0473037
0.0398411
0.0277458
0.0107218
-0.011899
-0.0410445
-0.077001
-0.117668
-0.15687
-0.184278
-0.191848
-0.17722
-0.148866
-0.11712
-0.088456
-0.0651561
-0.047372
-0.0342091
-0.0248202
-0.0188243
-0.0172842
-0.0189669
-0.0207221
-0.0205447
-0.0217
-0.0263428
-0.035065
-0.0491511
-0.0707462
-0.09872
-0.11704
-0.115511
-0.0963528
-0.0686113
-0.0464375
-0.0284848
-0.0189091
-0.00772876
-0.00297241
0.000561787
-0.00233182
-0.00921734
-0.013615
-0.0194125
-0.011859
-0.319886
-0.292269
-0.268242
-0.240243
-0.207956
-0.173873
-0.138989
-0.103928
-0.0696112
-0.0372884
-0.00815524
0.0168254
0.0369155
0.0514752
0.0589742
0.0598799
0.0550241
0.0442271
0.0273772
0.00435425
-0.0250088
-0.060435
-0.0999599
-0.138168
-0.166642
-0.174933
-0.163854
-0.139837
-0.111744
-0.0854035
-0.0631717
-0.0455893
-0.0321432
-0.0221648
-0.0151235
-0.0120309
-0.0123488
-0.0136291
-0.0137869
-0.0154405
-0.0206269
-0.0299052
-0.0447355
-0.067101
-0.0962689
-0.115846
-0.115305
-0.0971419
-0.0688936
-0.045899
-0.0272288
-0.0172919
-0.00569192
-0.000378584
0.00374817
0.000653935
-0.00790503
-0.0133829
-0.0204323
-0.0127877
-0.302601
-0.280048
-0.260308
-0.235781
-0.20756
-0.177789
-0.146739
-0.114746
-0.0824422
-0.0508932
-0.0211407
0.0058339
0.0291204
0.0490611
0.0588131
0.0628502
0.0618647
0.0542
0.0393424
0.017404
-0.0110747
-0.0452111
-0.0828909
-0.119177
-0.148974
-0.156314
-0.148992
-0.129864
-0.105999
-0.0824119
-0.0615507
-0.0443425
-0.0307137
-0.0202968
-0.0124223
-0.0079679
-0.00701587
-0.00787999
-0.00824173
-0.0100496
-0.015336
-0.0245135
-0.0394939
-0.0624256
-0.0927876
-0.113347
-0.113915
-0.09695
-0.0687381
-0.0452169
-0.0259592
-0.0156811
-0.00385887
0.00188153
0.0065299
0.00355557
-0.00663764
-0.0131348
-0.021354
-0.0136594
-0.286479
-0.271249
-0.254654
-0.232625
-0.208367
-0.182982
-0.155883
-0.127237
-0.0978167
-0.0685575
-0.0402825
-0.0138679
0.00971996
0.0291903
0.0469723
0.0570602
0.0596195
0.0558299
0.0447735
0.0261811
0.000771717
-0.0301345
-0.064233
-0.0967498
-0.115045
-0.133006
-0.130208
-0.116276
-0.0968989
-0.0764242
-0.0574588
-0.041202
-0.0278951
-0.0175328
-0.00936146
-0.00401518
-0.00199362
-0.00255696
-0.00333649
-0.00530211
-0.0106368
-0.0194903
-0.0342025
-0.057042
-0.0878571
-0.109458
-0.109201
-0.0952472
-0.0673941
-0.0437036
-0.0242536
-0.0138422
-0.00180351
0.00413131
0.00905417
0.00633258
-0.00544346
-0.01286
-0.0221546
-0.0144669
-0.261568
-0.260098
-0.243034
-0.22039
-0.197286
-0.173828
-0.149022
-0.122742
-0.0955704
-0.0683084
-0.0417576
-0.0166868
0.00628578
0.0263506
0.0423105
0.0525377
0.0571206
0.0555904
0.0466777
0.0298874
0.00601648
-0.0234344
-0.0562619
-0.0877691
-0.113514
-0.120615
-0.116796
-0.103861
-0.0863317
-0.0678981
-0.0507305
-0.0358244
-0.0233825
-0.0135236
-0.00554535
3.80843e-05
0.00276932
0.00274824
0.00212377
0.000759425
-0.00421712
-0.0122513
-0.0267598
-0.0503865
-0.0833472
-0.107662
-0.120062
-0.0939599
-0.0651922
-0.0413208
-0.0220702
-0.01193
0.000423662
0.00652214
0.0122949
0.00927746
-0.00422649
-0.0125566
-0.0228597
-0.0152365
-0.237716
-0.239789
-0.224313
-0.202585
-0.181057
-0.160042
-0.138164
-0.114897
-0.0906836
-0.0662886
-0.0424424
-0.019797
0.00104136
0.0190561
0.0340115
0.0442973
0.049418
0.0487254
0.0412449
0.0265413
0.0052912
-0.0210075
-0.0500069
-0.0772706
-0.0970859
-0.103772
-0.100289
-0.089428
-0.0747402
-0.0590578
-0.0441243
-0.0308139
-0.0193876
-0.010164
-0.00251979
0.00312434
0.00622768
0.00642786
0.00574121
0.00427063
0.000178492
-0.0069313
-0.0208063
-0.0446124
-0.0786816
-0.103887
-0.111623
-0.0903725
-0.061921
-0.0385592
-0.0197806
-0.00988764
0.00244474
0.00833362
0.0146473
0.0115177
-0.0032539
-0.0123654
-0.0233559
-0.0157774
-0.216261
-0.218651
-0.205688
-0.18627
-0.166782
-0.148064
-0.128824
-0.108334
-0.0868734
-0.0651454
-0.0438403
-0.0235479
-0.00480175
0.01165
0.025233
0.0348364
0.0397722
0.0394605
0.033191
0.0206937
0.00262756
-0.0194746
-0.0432655
-0.0650964
-0.0808912
-0.0869385
-0.0845723
-0.0761668
-0.064265
-0.051061
-0.0380723
-0.0261781
-0.0156745
-0.00701941
0.000268406
0.00584166
0.00919895
0.00965484
0.00903712
0.00756845
0.00383314
-0.00286817
-0.0164258
-0.0400209
-0.0734813
-0.0980403
-0.104791
-0.0856553
-0.0581198
-0.0355236
-0.0173554
-0.00777388
0.00441594
0.0100367
0.0167301
0.0133349
-0.00247616
-0.0122286
-0.0236232
-0.0161511
-0.19564
-0.198446
-0.188028
-0.171218
-0.153835
-0.137164
-0.120243
-0.102291
-0.0834153
-0.0642108
-0.045308
-0.0272303
-0.0104765
0.00432268
0.016533
0.0253541
0.0301503
0.0303979
0.0255827
0.0155738
0.000997738
-0.0167655
-0.0357434
-0.0530302
-0.0660293
-0.0716224
-0.0703986
-0.0640476
-0.0544909
-0.0434654
-0.0322597
-0.0217243
-0.0121482
-0.00407439
0.002819
0.00823325
0.0117688
0.0125638
0.0121637
0.0108735
0.00747064
0.00107196
-0.0121879
-0.0349744
-0.0670218
-0.0908947
-0.0971686
-0.079808
-0.0536882
-0.0321653
-0.0147967
-0.00558268
0.00634487
0.0116561
0.0186112
0.0149626
-0.00174826
-0.0120268
-0.0236535
-0.0163577
-0.17627
-0.179723
-0.171404
-0.156982
-0.141672
-0.126946
-0.112144
-0.0965254
-0.0800641
-0.0632286
-0.0465812
-0.0306107
-0.0157902
-0.00261345
0.00833769
0.0164541
0.021186
0.0220835
0.0187793
0.0112196
-8.6941e-05
-0.0140393
-0.0289896
-0.0422403
-0.0532073
-0.0582416
-0.0578437
-0.0531576
-0.045588
-0.0364649
-0.0268466
-0.0175567
-0.00887325
-0.00137023
0.00512738
0.0103249
0.0139572
0.015098
0.0150196
0.0140661
0.0111449
0.00527966
-0.00726939
-0.0287872
-0.0594228
-0.0825888
-0.0884261
-0.0728379
-0.0486363
-0.0285222
-0.0121302
-0.0033372
0.00823081
0.013161
0.0202342
0.0164572
-0.00099396
-0.0117089
-0.0234128
-0.0163562
-0.158858
-0.162444
-0.155743
-0.143473
-0.130181
-0.117331
-0.104488
-0.0909995
-0.0767597
-0.0621243
-0.0475841
-0.0335831
-0.0205306
-0.00888031
0.00092557
0.00838296
0.0130286
0.0144955
0.0125199
0.00708605
-0.00141317
-0.0121203
-0.0238017
-0.0351603
-0.0427519
-0.0469566
-0.0470635
-0.0436376
-0.0376474
-0.0301069
-0.0218649
-0.0136969
-0.00586546
0.00107301
0.00718597
0.012133
0.0157832
0.0172452
0.0175888
0.0170959
0.0148159
0.00976357
-0.00169832
-0.0217669
-0.0508634
-0.07309
-0.0786055
-0.0648858
-0.0430244
-0.0246353
-0.00938433
-0.00106181
0.0100661
0.0145438
0.0215517
0.0177795
-0.000192075
-0.0112329
-0.0228203
-0.0160924
-0.142891
-0.146357
-0.141045
-0.13074
-0.119349
-0.108267
-0.0972231
-0.0856605
-0.0734383
-0.0608198
-0.0482194
-0.0360306
-0.0246139
-0.0143443
-0.00559715
0.0012214
0.00573377
0.00764554
0.00676698
0.0031087
-0.00301864
-0.0109444
-0.0197179
-0.0281319
-0.0342416
-0.0376875
-0.038003
-0.0354467
-0.0306619
-0.0244133
-0.0173531
-0.0101812
-0.00314673
0.00323634
0.00898154
0.0136768
0.0172869
0.0190314
0.0198477
0.0198866
0.0184395
0.0143745
0.00418334
-0.0142323
-0.0414517
-0.0625729
-0.0679104
-0.0561559
-0.0369537
-0.0205605
-0.00659431
0.00121813
0.0118424
0.0158135
0.0225274
0.0188839
0.000703403
-0.0105101
-0.0217803
-0.0155115
-0.127975
-0.131465
-0.127388
-0.11882
-0.109152
-0.0996913
-0.0902788
-0.0804456
-0.0700361
-0.0592421
-0.0484055
-0.0378733
-0.0279488
-0.0189445
-0.0111741
-0.00496588
-0.000621885
0.00162493
0.00163778
-0.000561567
-0.00472919
-0.010353
-0.0167082
-0.0228433
-0.027519
-0.0301924
-0.0304889
-0.0284934
-0.0246063
-0.0193914
-0.013331
-0.00703167
-0.000727593
0.005115
0.010502
0.0149686
0.0185092
0.0204932
0.0217809
0.0223238
0.0219571
0.0189938
0.0102217
-0.00635006
-0.0314869
-0.0513903
-0.0566413
-0.0469215
-0.0305736
-0.0163674
-0.00379848
0.00347863
0.01355
0.0169945
0.0231339
0.0197701
0.00179493
-0.00941621
-0.0202038
-0.0145628
-0.114376
-0.117819
-0.114742
-0.107668
-0.0995365
-0.0915405
-0.0835966
-0.0753078
-0.0665152
-0.0573555
-0.048111
-0.0390784
-0.0304996
-0.0226428
-0.0157672
-0.010136
-0.00598808
-0.00350723
-0.00279642
-0.00383313
-0.00643201
-0.0102081
-0.0145878
-0.0188912
-0.02227
-0.0241965
-0.0243323
-0.0226676
-0.0194297
-0.0150256
-0.00980064
-0.00425993
0.00138572
0.00671387
0.0117425
0.0160041
0.0194742
0.0216676
0.0234287
0.025604
0.0253026
0.0235535
0.0163293
0.0015453
-0.0214874
-0.0399984
-0.0451858
-0.0375169
-0.0240751
-0.0121368
-0.00103558
0.00569723
0.0151766
0.0181321
0.0234294
0.0205022
0.00322405
-0.00781632
-0.0180201
-0.013212
-0.102122
-0.10539
-0.103043
-0.0972473
-0.0904739
-0.0837815
-0.0771462
-0.0702244
-0.0628628
-0.0551565
-0.0473325
-0.039614
-0.032251
-0.0254349
-0.0193796
-0.0142948
-0.0103704
-0.00775191
-0.0065194
-0.00665574
-0.00802431
-0.0103314
-0.0131355
-0.0159606
-0.0182201
-0.019448
-0.019342
-0.0178438
-0.0150637
-0.0112869
-0.00675217
-0.00186624
0.0031918
0.00804224
0.0127118
0.0167744
0.0201815
0.0225567
0.0246258
0.0271327
0.0281091
0.0277462
0.0220671
0.00886485
-0.0120012
-0.0288467
-0.0339696
-0.028308
-0.0176776
-0.00795966
0.00165695
0.00785254
0.0167098
0.0192869
0.0235019
0.0212008
0.00514152
-0.00558738
-0.0152006
-0.0114604
-0.0908217
-0.0938928
-0.0922447
-0.0875595
-0.0819563
-0.0763775
-0.0709143
-0.0651925
-0.0590816
-0.0526485
-0.0460581
-0.0395331
-0.0332439
-0.0273601
-0.0220525
-0.017485
-0.0138079
-0.0111367
-0.00953496
-0.00899139
-0.00940488
-0.0105604
-0.0121582
-0.0138133
-0.0151234
-0.0157162
-0.0153351
-0.0138953
-0.0114311
-0.00813459
-0.00416489
0.000159599
0.00469554
0.00911008
0.0134263
0.0172831
0.0206196
0.023148
0.0254398
0.0282276
0.0301476
0.0309453
0.0266345
0.0149888
-0.00341827
-0.0183269
-0.0234219
-0.0196595
-0.0116071
-0.00393498
0.00424143
0.00992158
0.0181367
0.0205139
0.0235114
0.0220313
0.00767046
-0.00266312
-0.0117963
-0.00936214
-0.0804692
-0.0833974
-0.082312
-0.0785823
-0.0740211
-0.0694916
-0.0649419
-0.0602249
-0.055184
-0.0498462
-0.044358
-0.0388698
-0.0335311
-0.0284798
-0.0238497
-0.0197699
-0.0163579
-0.013705
-0.011863
-0.0108247
-0.0105157
-0.0108114
-0.0114743
-0.0122211
-0.0127552
-0.0128003
-0.0121462
-0.0106996
-0.00844983
-0.00551945
-0.00200996
0.00183613
0.0059092
0.00992776
0.0139028
0.0175451
0.0207875
0.0234263
0.025877
0.0287887
0.0312065
0.0326372
0.0294333
0.0195463
0.00396749
-0.00886538
-0.0139556
-0.011891
-0.00606364
-0.000161037
0.0066765
0.0118727
0.0194439
0.0218317
0.0236789
0.0231704
0.0108477
0.000901531
-0.00796588
-0.00703221
-0.0711024
-0.0738378
-0.073172
-0.0702239
-0.0665238
-0.0628172
-0.0591434
-0.0553155
-0.0512036
-0.0468205
-0.0422717
-0.037685
-0.0331808
-0.0288677
-0.02485
-0.0212281
-0.0180941
-0.0155196
-0.0135471
-0.0121699
-0.0113075
-0.0110123
-0.0109665
-0.0110107
-0.0109327
-0.0105271
-0.00962607
-0.00814031
-0.0060362
-0.00338638
-0.000251826
0.00318777
0.00685112
0.0105093
0.0141592
0.0175763
0.0206941
0.0233843
0.0259188
0.0287802
0.0312733
0.0328111
0.0304574
0.0224694
0.00984558
-0.000918446
-0.00591168
-0.00521687
-0.00118494
0.00327928
0.00891903
0.0136596
0.0206053
0.0231957
0.024231
0.0247403
0.0145531
0.00487646
-0.00397923
-0.00464698
-0.0626034
-0.0651093
-0.0647653
-0.0624682
-0.0595018
-0.0565154
-0.0535655
-0.0504887
-0.0471658
-0.0435955
-0.0398561
-0.0360499
-0.0322728
-0.0286105
-0.0251439
-0.0219502
-0.019101
-0.0166536
-0.0146476
-0.0130968
-0.0119999
-0.0111341
-0.0105444
-0.0100582
-0.0095119
-0.00875061
-0.00764305
-0.00610958
-0.00410814
-0.00167708
0.00114997
0.00424333
0.00754431
0.0108726
0.014215
0.0173981
0.0203592
0.0230215
0.0255687
0.0282248
0.0305236
0.0318669
0.0301172
0.0239085
0.0140345
0.00524042
0.000563046
0.000296962
0.00296846
0.00632741
0.0109323
0.0152323
0.0215685
0.0244739
0.0252918
0.0267156
0.0184711
0.00885373
-0.000185437
-0.00241698
-0.0548487
-0.0571453
-0.0570563
-0.0552968
-0.0529446
-0.0505642
-0.048218
-0.0457696
-0.0431098
-0.0402265
-0.0371767
-0.0340401
-0.0308925
-0.027801
-0.0248275
-0.0220313
-0.0194673
-0.0171796
-0.0152013
-0.0135448
-0.0121917
-0.0110652
-0.0101212
-0.00926182
-0.00837561
-0.00734898
-0.00608271
-0.00450932
-0.00258716
-0.000332325
0.00223861
0.0050352
0.00801501
0.01104
0.0140912
0.0170339
0.0198113
0.0223623
0.0247225
0.0271885
0.029191
0.0302502
0.0289068
0.0241974
0.01668
0.00968308
0.00554052
0.00470934
0.00640168
0.00894827
0.0126882
0.016554
0.022279
0.0254934
0.0267148
0.0287921
0.0221069
0.0123522
0.00308691
-0.00051639
-0.0478059
-0.0499044
-0.050004
-0.0486787
-0.0468333
-0.0449561
-0.0431107
-0.0411832
-0.0390753
-0.0367675
-0.0342997
-0.0317333
-0.0291274
-0.0265336
-0.0239992
-0.0215688
-0.0192836
-0.0171796
-0.0152841
-0.0136041
-0.0121303
-0.0108282
-0.00965698
-0.00855036
-0.00743285
-0.00622272
-0.00484743
-0.00325193
-0.00139999
0.000705861
0.00305883
0.00559763
0.00829165
0.0110376
0.0138124
0.0165107
0.0190854
0.0214774
0.0236675
0.025823
0.0275055
0.0283029
0.0272499
0.0237379
0.0181375
0.0127038
0.00922367
0.00814334
0.00915986
0.0111276
0.0141619
0.0176012
0.0227074
0.0261173
0.0280277
0.0303578
0.0248811
0.0150046
0.00564076
0.000952689
-0.0414316
-0.0433265
-0.0435557
-0.0425781
-0.0411488
-0.0396864
-0.0382526
-0.0367533
-0.0351006
-0.0332706
-0.0312903
-0.0292059
-0.027063
-0.0249009
-0.0227551
-0.0206585
-0.0186442
-0.0167454
-0.0149603
-0.0133185
-0.0118122
-0.0104241
-0.00912605
-0.00787262
-0.00661391
-0.00529183
-0.00385535
-0.00226086
-0.000479755
0.00149287
0.00365493
0.00596608
0.00840397
0.0108921
0.0134058
0.0158616
0.0182195
0.0204186
0.0224174
0.0242638
0.0256549
0.026255
0.0254393
0.022859
0.0187625
0.014641
0.0118477
0.0107357
0.0113066
0.0128656
0.0153306
0.0183537
0.0228177
0.0262637
0.0287267
0.0308045
0.0263327
0.0166677
0.00743286
0.00200473
-0.0356495
-0.0373482
-0.0376658
-0.0369655
-0.0358749
-0.034751
-0.0336526
-0.0325018
-0.0312213
-0.029785
-0.0282098
-0.0265302
-0.0247808
-0.0229909
-0.0211865
-0.0193912
-0.0176281
-0.015916
-0.0142888
-0.0127354
-0.0112619
-0.00986022
-0.00851386
-0.00719316
-0.00586652
-0.00449326
-0.0030391
-0.00147048
0.000233219
0.00208029
0.00406976
0.00617619
0.00838212
0.0106313
0.0129006
0.0151205
0.0172578
0.0192462
0.0210438
0.0226175
0.0237723
0.0242442
0.0236393
0.0217763
0.0188376
0.0157767
0.0136242
0.0126093
0.0129118
0.0141751
0.0161788
0.0187998
0.0225878
0.0258559
0.0285587
0.0298922
0.0263448
0.0173795
0.00851795
0.00265667
-0.0304051
-0.0319222
-0.0322963
-0.0318139
-0.0309957
-0.0301453
-0.0293174
-0.0284478
-0.0274691
-0.0263546
-0.0251139
-0.0237721
-0.0223552
-0.0208849
-0.0193801
-0.017858
-0.0163358
-0.0148286
-0.0133528
-0.0119131
-0.0105141
-0.0091512
-0.00781595
-0.00648947
-0.00515297
-0.00377854
-0.0023445
-0.000825764
0.000790989
0.00251477
0.0043439
0.00626276
0.00825673
0.0102844
0.0123252
0.0143191
0.0162412
0.0180196
0.0196198
0.0209677
0.0219433
0.0223438
0.0219323
0.0206215
0.0185508
0.0163176
0.0146259
0.0138732
0.0140443
0.0150831
0.0167086
0.0189426
0.0220424
0.024825
0.0265833
0.0278871
0.0251631
0.0172709
0.00899513
0.00297478
-0.0256592
-0.0270055
-0.0274088
-0.0270948
-0.0264939
-0.0258629
-0.0252513
-0.0246068
-0.0238707
-0.0230172
-0.0220509
-0.0209894
-0.0198521
-0.0186547
-0.0174104
-0.0161317
-0.0148321
-0.0135201
-0.0122066
-0.0108986
-0.00960231
-0.00831574
-0.00703522
-0.00574916
-0.00444749
-0.00311162
-0.00172908
-0.000281684
0.00123785
0.00283756
0.0045145
0.0062589
0.00805768
0.00987991
0.0117081
0.0134901
0.0152072
0.0167875
0.0182053
0.0193728
0.020218
0.0205892
0.0203527
0.0194671
0.018039
0.016441
0.0150405
0.0146487
0.0147741
0.0156304
0.016939
0.0188037
0.0212489
0.0235227
0.0249456
0.0254236
0.0232146
0.0165294
0.00899795
0.00304663
-0.0213672
-0.0225536
-0.0229661
-0.0227811
-0.0223525
-0.0218961
-0.0214563
-0.0209903
-0.0204478
-0.0198047
-0.0190618
-0.0182316
-0.017328
-0.0163622
-0.0153434
-0.0142797
-0.0131804
-0.0120525
-0.0109026
-0.0097366
-0.00856091
-0.00737564
-0.00618024
-0.00496782
-0.00373399
-0.00246697
-0.00116062
0.000197619
0.00161043
0.0030842
0.00461439
0.00619462
0.00781319
0.00944563
0.011077
0.0126629
0.0141898
0.0155897
0.0168451
0.0178702
0.0186231
0.0189926
0.0189073
0.0183509
0.0174066
0.0163301
0.015395
0.015081
0.0151698
0.0158662
0.0168995
0.0184151
0.0202657
0.0220048
0.0230189
0.0228573
0.0209052
0.0153666
0.00867101
0.00295758
-0.0174878
-0.0185278
-0.0189356
-0.018848
-0.0185549
-0.0182365
-0.0179317
-0.0176062
-0.0172172
-0.0167424
-0.0161804
-0.01554
-0.0148308
-0.0140605
-0.0132351
-0.0123596
-0.0114406
-0.0104832
-0.00949162
-0.00846982
-0.00742355
-0.00635434
-0.00526351
-0.00414713
-0.00300421
-0.00182773
-0.000615822
0.000639648
0.00193819
0.00328417
0.00467202
0.00609671
0.0075477
0.00900539
0.0104568
0.011864
0.0132171
0.014456
0.0155704
0.0164826
0.0171698
0.0175501
0.017591
0.0172895
0.0167063
0.0160269
0.0154197
0.0152117
0.0152822
0.0158383
0.0166306
0.0178129
0.0191514
0.0203663
0.0209921
0.0203924
0.0185358
0.0139749
0.00813328
0.00277687
-0.0139878
-0.0148944
-0.0152872
-0.015272
-0.0150845
-0.0148741
-0.014675
-0.0144592
-0.0141907
-0.0138498
-0.0134336
-0.0129478
-0.0123993
-0.011793
-0.0111329
-0.0104214
-0.00966247
-0.00886003
-0.00801763
-0.00713707
-0.00622244
-0.00527601
-0.00430033
-0.00329339
-0.00225599
-0.00118426
-7.90553e-05
0.00106442
0.00224377
0.00346119
0.00471062
0.00598768
0.00728255
0.00857929
0.00986727
0.0111134
0.0123094
0.0134062
0.0144011
0.0152203
0.0158579
0.0162529
0.0163942
0.0162849
0.0159657
0.0155769
0.015207
0.0150966
0.0151586
0.0155909
0.0161743
0.0170453
0.0179595
0.0187021
0.0189829
0.018117
0.0162892
0.0125027
0.00747258
0.00255102
-0.0108361
-0.0116217
-0.011993
-0.0120305
-0.0119248
-0.0117986
-0.0116814
-0.0115506
-0.0113764
-0.0111413
-0.0108418
-0.0104815
-0.0100651
-0.00959576
-0.00907548
-0.00850552
-0.00788755
-0.00722435
-0.00651941
-0.00577297
-0.00498726
-0.00416436
-0.00330751
-0.00241614
-0.00149184
-0.000532727
0.000458933
0.0014855
0.00254335
0.00363317
0.00474871
0.00588557
0.00703513
0.0081837
0.00932221
0.010424
0.0114808
0.0124524
0.0133378
0.0140817
0.01468
0.0150888
0.0153048
0.0153359
0.0152051
0.0150222
0.0148211
0.0147874
0.0148441
0.0151657
0.0155715
0.0161621
0.0167325
0.0170821
0.0170662
0.0160593
0.0142546
0.0110549
0.00675498
0.00230823
-0.00800457
-0.0086818
-0.00902761
-0.0091028
-0.0090599
-0.00899898
-0.0089447
-0.0088794
-0.00877826
-0.00862637
-0.00841997
-0.00816109
-0.00785287
-0.00749714
-0.00709467
-0.0066459
-0.00615129
-0.00561192
-0.0050302
-0.00440767
-0.00374464
-0.00304188
-0.00230252
-0.00152716
-0.000717876
0.000126132
0.00100206
0.00191056
0.00284761
0.0038126
0.0047995
0.00580389
0.00681796
0.00783041
0.00883284