/*--------------------------------*- C++ -*----------------------------------*\
| =========                 |                                                 |
| \\      /  F ield         | OpenFOAM: The Open Source CFD Toolbox           |
|  \\    /   O peration     | Version:  2512                                  |
|   \\  /    A nd           | Website:  www.openfoam.com                      |
|    \\/     M anipulation  |                                                 |
\*---------------------------------------------------------------------------*/
FoamFile
{
    version     2.0;
    format      ascii;
    arch        "LSB;label=32;scalar=64";
    class       surfaceScalarField;
    location    "106";
    object      phi;
}
// * * * * * * * * * * * * * * * * * * * * * * * * * * * * * * * * * * * * * //

dimensions      [0 3 -1 0 0 0 0];

oriented        oriented;

internalField   nonuniform List<scalar> 
26232
(
0.000133395
0.000991716
-0.00112511
0.000758016
0.00171091
-0.00233553
0.00205433
0.00128347
-0.00257978
0.00418225
-0.000266532
-0.00186139
0.00729664
-0.0029295
-0.000184895
0.0115458
-0.00669712
0.00244801
0.0170577
-0.0115482
0.00603627
0.0239175
-0.0174313
0.0105715
0.0321398
-0.0242488
0.0160265
0.0416447
-0.0318473
0.0223424
0.0522444
-0.0400172
0.0294175
0.0636464
-0.0485049
0.0371028
0.0754751
-0.0570331
0.0452044
0.0873085
-0.0653277
0.0534943
0.0987255
-0.0731449
0.0617279
0.109354
-0.0802948
0.0696658
0.118916
-0.0866577
0.0770962
0.12725
-0.0921903
0.0838558
0.134329
-0.0969194
0.0898409
0.140233
-0.100934
0.0950294
0.145128
-0.104327
0.0994319
0.149168
-0.107286
0.103246
0.152296
-0.109589
0.10646
-0.112103
0.109889
0.154511
0.000167431
0.000824285
0.000935048
0.000943293
0.00252637
-0.000307853
0.00513956
-0.00287973
0.00895397
-0.00674391
0.0141165
-0.0118596
0.020715
-0.0181467
0.0287469
-0.0254632
0.0380938
-0.0335957
0.0485117
-0.0422652
0.0596442
-0.0511497
0.0710579
-0.0599186
0.0822942
-0.0682694
0.0929271
-0.0759606
0.102616
-0.0828335
0.111142
-0.0888216
0.11843
-0.0939449
0.124532
-0.0982923
0.129608
-0.101996
0.133877
-0.105202
0.137596
-0.108046
0.140965
-0.110654
0.144396
-0.113021
-0.115625
0.147918
0.000236722
0.000587562
0.00123005
-5.00348e-05
0.00323267
-0.00231047
0.00646365
-0.0061107
0.0110987
-0.011379
0.0172403
-0.0180012
0.0248802
-0.0257866
0.0338712
-0.0344542
0.0439205
-0.043645
0.0546141
-0.0529588
0.0654687
-0.0620042
0.0759989
-0.0704488
0.0857857
-0.0780562
0.0945298
-0.0847047
0.102081
-0.0903846
0.108438
-0.0951785
0.113723
-0.0992301
0.11814
-0.102709
0.121924
-0.10578
0.125304
-0.108582
0.128474
-0.111216
0.131583
-0.113763
0.134758
-0.116196
-0.118824
0.137957
0.000337568
0.000249994
0.00162935
-0.00134181
0.00413779
-0.00481891
0.00807469
-0.0100476
0.0135703
-0.0168746
0.0206283
-0.0250592
0.0290901
-0.0342484
0.0386286
-0.0439927
0.0487824
-0.0537989
0.0590248
-0.0632013
0.0688486
-0.071828
0.0778435
-0.0794437
0.0857489
-0.0859616
0.0924707
-0.0914265
0.0980649
-0.0959788
0.102696
-0.0998093
0.106583
-0.103117
0.109952
-0.106079
0.113006
-0.108833
0.1159
-0.111477
0.118756
-0.114071
0.121653
-0.11666
0.124685
-0.119229
-0.121989
0.127849
0.000463066
-0.000213072
0.00210695
-0.0029857
0.00517852
-0.00789049
0.00984465
-0.0147137
0.0161394
-0.0231693
0.0239151
-0.032835
0.0328294
-0.0431627
0.0423846
-0.0535478
0.0520132
-0.0634275
0.0611818
-0.0723699
0.0694799
-0.0801261
0.0766713
-0.0866351
0.0827003
-0.0919906
0.08766
-0.0963862
0.0917376
-0.100056
0.0951566
-0.103228
0.0981311
-0.106092
0.100839
-0.108787
0.103414
-0.111408
0.10595
-0.114013
0.108513
-0.116635
0.111145
-0.119292
0.113893
-0.121977
-0.124805
0.11671
0.000606159
-0.00081923
0.00263289
-0.00501243
0.00628
-0.0115376
0.0116245
-0.0200582
0.0185536
-0.0300984
0.0267334
-0.0410148
0.0356441
-0.0520734
0.0446784
-0.0625821
0.0532661
-0.0720152
0.0609792
-0.080083
0.0675861
-0.0867329
0.0730499
-0.0920989
0.0774843
-0.096425
0.0810889
-0.0999907
0.0840875
-0.103055
0.0866845
-0.105825
0.0890429
-0.10845
0.0912805
-0.111024
0.0934775
-0.113605
0.0956871
-0.116223
0.0979455
-0.118893
0.100277
-0.121623
0.10271
-0.12441
-0.127315
0.10522
0.000760216
-0.00157945
0.00317582
-0.00742803
0.00736222
-0.015724
0.0132598
-0.0259558
0.0205712
-0.0374098
0.028775
-0.0492186
0.037227
-0.0605254
0.045307
-0.0706621
0.0525462
-0.0792544
0.0586928
-0.0862295
0.0637075
-0.0917477
0.0677103
-0.0961016
0.0709062
-0.099621
0.07352
-0.102605
0.0757513
-0.105286
0.0777548
-0.107829
0.0796392
-0.110334
0.081476
-0.112861
0.0833108
-0.11544
0.0851733
-0.118085
0.0870838
-0.120804
0.0890567
-0.123596
0.0911077
-0.126461
-0.129422
0.093214
0.000918004
-0.00249745
0.0037021
-0.0102121
0.00834265
-0.0203645
0.0146039
-0.0322171
0.021992
-0.0447978
0.0298375
-0.0570641
0.0374588
-0.0681466
0.0443198
-0.0775231
0.0501189
-0.0850535
0.0547903
-0.0909009
0.0584452
-0.0954027
0.0612896
-0.098946
0.0635506
-0.101882
0.0654285
-0.104482
0.0670763
-0.106934
0.0685992
-0.109352
0.0700644
-0.1118
0.0715134
-0.11431
0.0729724
-0.116899
0.0744591
-0.119572
0.0759866
-0.122331
0.0775652
-0.125174
0.0792054
-0.128101
-0.131112
0.0808954
0.00107096
-0.00356841
0.0041756
-0.0133168
0.00914107
-0.02533
0.0155333
-0.0386093
0.0226838
-0.0519484
0.0298477
-0.0642281
0.0363967
-0.0746956
0.0419449
-0.0830713
0.0463708
-0.0894794
0.049759
-0.0942892
0.0523092
-0.0979528
0.0542518
-0.100889
0.0557931
-0.103423
0.0570904
-0.10578
0.0582502
-0.108094
0.0593392
-0.110441
0.0603974
-0.112858
0.0614489
-0.115362
0.0625095
-0.11796
0.0635907
-0.120653
0.0647014
-0.123442
0.0658492
-0.126322
0.06704
-0.129292
-0.13234
0.0682684
0.00120902
-0.00477743
0.00455976
-0.0166675
0.00968789
-0.0304582
0.0159638
-0.0448852
0.0225973
-0.0585819
0.0288512
-0.070482
0.0342195
-0.080064
0.0384886
-0.0873404
0.041691
-0.0926818
0.044008
-0.0966061
0.045672
-0.0996168
0.0468989
-0.102116
0.0478557
-0.10438
0.048656
-0.10658
0.0493694
-0.108807
0.0500366
-0.111108
0.0506811
-0.113502
0.0513178
-0.115998
0.0519572
-0.118599
0.0526072
-0.121303
0.0532745
-0.124109
0.053965
-0.127013
0.0546829
-0.13001
-0.133086
0.055429
0.00132209
-0.00609952
0.00482306
-0.0201685
0.00993444
-0.0355695
0.0158604
-0.0508112
0.0217601
-0.0644815
0.0269767
-0.0756986
0.0311612
-0.0842485
0.0342584
-0.0904376
0.0364102
-0.0948336
0.037844
-0.0980399
0.0387868
-0.10056
0.0394206
-0.102749
0.0398708
-0.10483
0.0402145
-0.106924
0.0404957
-0.109089
0.0407388
-0.111351
0.0409583
-0.113722
0.0411638
-0.116204
0.041363
-0.118798
0.0415618
-0.121502
0.0417653
-0.124313
0.0419774
-0.127225
0.0421998
-0.130232
-0.133322
0.0424358
0.00140432
-0.00750384
0.00494641
-0.0237106
0.00986049
-0.0404836
0.0152375
-0.0561881
0.0202596
-0.0695036
0.024399
-0.079838
0.0274652
-0.0873147
0.0295272
-0.0924995
0.0307901
-0.0960966
0.0314891
-0.0987389
0.0318247
-0.100895
0.0319398
-0.102865
0.0319239
-0.104814
0.0318274
-0.106827
0.0316774
-0.108939
0.0314887
-0.111163
0.0312708
-0.113504
0.0310305
-0.115964
0.0307735
-0.118541
0.030505
-0.121234
0.0302295
-0.124037
0.02995
-0.126945
0.0296671
-0.129949
0.0293859
-0.133041
-0.000238107
0.00246622
-0.00222811
-0.00085348
0.00568243
-0.00506706
-0.00178299
0.00770583
-0.00677632
-0.00297284
0.00882649
-0.00763663
-0.00437715
0.00929153
-0.00788723
-0.00595848
0.00930169
-0.00772036
-0.00768735
0.00900243
-0.00727356
-0.00954049
0.00848235
-0.0066292
-0.0114989
0.00777965
-0.00582125
-0.0135457
0.00689348
-0.00484664
-0.0156649
0.00579663
-0.0036775
-0.0178383
0.00444686
-0.00227337
-0.0200617
0.00279465
-0.000571319
-0.0222759
0.000792428
0.0014218
-0.0244821
-0.00158968
0.0037959
-0.0266414
-0.00440521
0.00656444
-0.0287147
-0.00767449
0.00974787
-0.0306592
-0.0114068
0.0133513
-0.0324288
-0.0155916
0.0173611
-0.0339771
-0.0201934
0.0217417
-0.0352618
-0.0251482
0.0264329
-0.0362493
-0.0303634
0.0313509
-0.0369306
-0.0357128
0.0363942
-0.0410061
-0.0373635
0.041439
-0.000161294
0.00262751
-0.000614919
0.00613605
-0.00133639
0.0084273
-0.00229322
0.00978332
-0.00344846
0.0104468
-0.00476551
0.0106187
-0.00621117
0.0104481
-0.00775691
0.0100281
-0.00937886
0.00940161
-0.011057
0.00857159
-0.0127737
0.00751338
-0.0145128
0.00618589
-0.0162583
0.00454015
-0.0179907
0.00252487
-0.019674
9.36383e-05
-0.0213049
-0.00277435
-0.0228472
-0.00613216
-0.024272
-0.00998203
-0.0255491
-0.0143145
-0.0266502
-0.0190923
-0.027553
-0.0242454
-0.0282486
-0.0296678
-0.0287465
-0.0352148
-0.0406451
-0.0291075
-6.85937e-05
0.00269611
-0.000318868
0.00638633
-0.000767028
0.00887546
-0.00140357
0.0104199
-0.00220156
0.0112448
-0.00312547
0.0115426
-0.00413751
0.0114601
-0.00520173
0.0110923
-0.00628608
0.010486
-0.00736279
0.00964829
-0.00840765
0.00855824
-0.0093988
0.00717704
-0.0103156
0.0054569
-0.0111372
0.00334647
-0.0118346
0.000791093
-0.0123927
-0.0022163
-0.0127844
-0.00574044
-0.0129903
-0.00977616
-0.0129887
-0.014316
-0.0127635
-0.0193175
-0.0123058
-0.0247032
-0.0116223
-0.0303513
-0.0107417
-0.0360955
-0.0417571
-0.00962969
2.92553e-05
0.00266685
3.86473e-06
0.00641172
-0.000130797
0.00901012
-0.000386501
0.0106756
-0.000747305
0.0116056
-0.00117996
0.0119753
-0.00164275
0.0119229
-0.00209202
0.0115416
-0.00248602
0.01088
-0.00278676
0.00994903
-0.00296002
0.0087315
-0.00297444
0.00719146
-0.00280042
0.00528288
-0.00240976
0.00295581
-0.00178031
0.00016165
-0.000869269
-0.00312735
0.000340394
-0.0069501
0.00187728
-0.011313
0.00375449
-0.0161932
0.00597897
-0.021542
0.00855032
-0.0272745
0.0114628
-0.0332637
0.0146793
-0.039312
-0.0451682
0.0180904
0.000119566
0.00254729
0.000313928
0.00621736
0.000501124
0.00882292
0.000650354
0.0105263
0.000767155
0.0114888
0.00088124
0.0118612
0.00103639
0.0117678
0.00128257
0.0112954
0.00167056
0.010492
0.00224903
0.00937056
0.00306355
0.00791698
0.00415691
0.00609811
0.00557008
0.00386971
0.00734221
0.00118368
0.00950871
-0.00200484
0.0121139
-0.00573255
0.015187
-0.0100232
0.0187514
-0.0148774
0.0228237
-0.0202655
0.0274046
-0.0261229
0.0324748
-0.0323448
0.0380011
-0.0387901
0.0439016
-0.0452125
-0.0515397
0.0502731
0.000191317
0.00235597
0.000575807
0.00583287
0.00105743
0.0083413
0.00159467
0.0099891
0.00218497
0.0108985
0.00285392
0.0111923
0.0036455
0.0109762
0.00461388
0.010327
0.00581741
0.00928844
0.00731494
0.00787303
0.0091639
0.00606802
0.0114195
0.00384247
0.0141366
0.0011526
0.017368
-0.00204769
0.0211626
-0.00579947
0.0255657
-0.0101356
0.0306123
-0.0150698
0.0363227
-0.0205879
0.0426978
-0.0266405
0.0497123
-0.0331374
0.0573097
-0.0399422
0.0654112
-0.0468915
0.0739036
-0.0537049
-0.0604843
0.0828482
0.000236117
0.00211985
0.000760216
0.00530877
0.00147959
0.00762192
0.00235164
0.00911705
0.00337072
0.00987939
0.00455994
0.010003
0.00596323
0.00957291
0.00763815
0.00865211
0.00965013
0.00727646
0.0120685
0.00545461
0.0149646
0.00317192
0.0184032
0.000403957
0.022464
-0.00290823
0.027205
-0.00678873
0.0326847
-0.0112792
0.0389466
-0.0163976
0.0460131
-0.0221362
0.0538773
-0.0284521
0.0624964
-0.0352596
0.0717863
-0.0424274
0.0816282
-0.0497841
0.0918569
-0.0571202
0.102306
-0.0641537
-0.071081
0.112902
0.000250508
0.00186935
0.000853219
0.00470606
0.00173619
0.00673895
0.00286698
0.00798627
0.00424416
0.00850221
0.00589291
0.00835429
0.00786008
0.00760574
0.0102088
0.00630341
0.0130135
0.00447172
0.0163562
0.00211192
0.0203218
-0.000793658
0.0250027
-0.00427691
0.0304686
-0.00837417
0.0367939
-0.0131141
0.0440261
-0.0185113
0.0521822
-0.0245536
0.0612379
-0.031192
0.0711196
-0.0383338
0.0817013
-0.0458412
0.0928031
-0.0535292
0.104219
-0.0612004
0.115689
-0.0685899
0.127039
-0.0755038
-0.0820012
0.137959
0.000236904
0.00163244
0.000860093
0.00408287
0.00183367
0.00576538
0.00314663
0.0066733
0.00481101
0.00683783
0.00686192
0.00630338
0.00935585
0.00511181
0.0123675
0.00329178
0.0159847
0.000854516
0.0203059
-0.00220929
0.0254298
-0.00591759
0.0314484
-0.0102955
0.0384354
-0.0153611
0.0464355
-0.0211142
0.0554494
-0.0275252
0.0654221
-0.0345263
0.0762351
-0.0420051
0.0877061
-0.0498047
0.0995961
-0.0577313
0.111625
-0.0655581
0.123504
-0.073079
0.13493
-0.0800163
0.145766
-0.0863398
-0.0917999
0.155565
0.000203873
0.00142857
0.000807044
0.0034797
0.0018211
0.00475132
0.00326683
0.00522758
0.00518007
0.00492458
0.00761599
0.00386746
0.01065
0.00207784
0.0143746
-0.000432864
0.018896
-0.00366687
0.0243197
-0.00763304
0.0307434
-0.0123412
0.0382378
-0.01779
0.0468313
-0.0239546
0.0564933
-0.0307762
0.0671226
-0.0381545
0.0785421
-0.0459459
0.0905043
-0.0539672
0.102707
-0.0620072
0.114817
-0.0698414
0.126511
-0.0772519
0.13749
-0.0840582
0.147541
-0.0900678
0.156554
-0.0953526
-0.0994963
0.16425
0.000165311
0.00126326
0.000738504
0.00290651
0.00178528
0.00370454
0.00336666
0.00364621
0.00555219
0.00273904
0.00842658
0.000993072
0.0120908
-0.00158635
0.0166567
-0.00499879
0.0222349
-0.00924503
0.0289193
-0.0143175
0.0367671
-0.020189
0.0457773
-0.0268002
0.0558746
-0.0340518
0.0668991
-0.0418006
0.0786074
-0.0498629
0.090686
-0.0580244
0.102776
-0.0660569
0.114507
-0.0737386
0.125539
-0.080873
0.135607
-0.0873207
0.144534
-0.0929846
0.152336
-0.0978696
0.158982
-0.101999
-0.105122
0.164608
0.000138146
0.000709121
0.00183388
0.0036187
0.00617285
0.00961393
0.0140639
0.0196366
0.0264181
0.0344429
0.0436715
0.0539741
0.0651267
0.0768203
0.0886853
0.100327
0.111366
0.121483
0.130451
0.13816
0.144607
0.149984
0.154446
0.159212
-0.0363561
-0.0644778
0.0634704
-0.0345916
-0.0733713
0.0716068
-0.0317948
-0.0812865
0.0784897
-0.0277098
-0.0874677
0.0833827
-0.0220635
-0.0910917
0.0854455
-0.0146668
-0.0911996
0.0838029
-0.0054909
-0.0868387
0.0776627
0.00547041
-0.0773395
0.0663782
0.0177343
-0.0621449
0.0498811
0.0304466
-0.0408259
0.0281136
0.0434842
-0.0147437
0.00170611
0.056298
0.0152767
-0.0280905
0.0689587
0.0475573
-0.060218
0.0810643
0.0795854
-0.091691
0.0919119
0.108151
-0.118998
0.100705
0.130478
-0.139271
0.106916
0.145313
-0.151523
0.110166
0.153533
-0.156783
0.109938
0.158429
-0.158201
0.106244
0.164108
-0.160414
0.10084
0.170925
-0.165521
0.0971834
0.171773
-0.168117
0.098334
0.154924
-0.156075
0.104836
0.112922
-0.119423
0.115129
0.048713
-0.0590067
0.126869
-0.0249677
0.0132284
0.137863
-0.0925353
0.0815406
0.146273
-0.14233
0.13392
0.151252
-0.171897
0.166918
0.153301
-0.185628
0.183579
0.153052
-0.188614
0.188862
0.149842
-0.189313
0.192524
0.14296
-0.195982
0.202863
0.134136
-0.206766
0.21559
0.127419
-0.200624
0.20734
0.126047
-0.155622
0.156994
0.130224
-0.0719654
0.0677887
0.137724
0.0274624
-0.0349624
0.146066
0.111191
-0.119533
0.152946
0.17016
-0.17704
0.156027
0.202268
-0.205349
0.153509
0.232238
-0.229719
0.146275
0.253628
-0.246395
0.138517
0.258518
-0.25076
0.134596
0.210105
-0.206184
0.136459
0.106761
-0.108624
0.14269
-0.00975614
0.00352561
0.149189
-0.124617
0.118118
0.151365
-0.178268
0.176092
0.147625
-0.245844
0.249585
0.141341
-0.259125
0.265408
0.137949
-0.259608
0.263001
0.139783
-0.189367
0.187533
0.143798
-0.0429445
0.0389292
0.145454
0.0390383
-0.0406937
0.143409
0.231145
-0.2291
0.14131
0.250945
-0.248846
0.140463
0.307548
-0.3067
0.139641
0.255394
-0.254573
-0.0115957
0.0131262
-0.0302172
-0.0633681
-0.0311033
-0.0724852
-0.0314284
-0.0809614
-0.0309024
-0.0879937
-0.0290872
-0.092907
-0.0254572
-0.0948296
-0.0195823
-0.0927136
-0.0114102
-0.0855117
-0.00109717
-0.0724579
0.0120036
-0.0539267
0.0259698
-0.0287099
0.0404256
0.000820829
0.0550928
0.0328902
0.0694296
0.0652485
0.082696
0.0948841
0.0940189
0.119155
0.102617
0.136715
0.107794
0.148356
0.109124
0.157098
0.107277
0.165956
0.104591
0.173611
0.104209
0.172155
0.108015
0.151119
0.115574
0.105362
0.125288
0.0389997
0.135273
-0.0349526
0.143945
-0.101208
0.149981
-0.148366
0.152806
-0.174722
0.153007
-0.185829
0.15143
-0.187037
0.1475
-0.185383
0.140129
-0.188611
0.130593
-0.19723
0.123078
-0.193109
0.121398
-0.153942
0.126066
-0.0766334
0.134776
0.0187527
0.144677
0.10129
0.153001
0.161836
0.157138
0.198132
0.155389
0.233987
0.148857
0.26016
0.141666
0.265709
0.137686
0.214085
0.138769
0.105679
0.143877
-0.0148646
0.149584
-0.130324
0.151389
-0.180073
0.147448
-0.241903
0.141128
-0.252805
0.137741
-0.256221
0.139699
-0.191325
0.143564
-0.0468095
0.145159
0.0374431
0.143164
0.23314
0.141064
0.253046
0.140356
0.308256
0.139767
0.255982
-0.0102032
-0.0122478
-0.0607499
-0.0151994
-0.0695336
-0.0182736
-0.0778871
-0.0212457
-0.0850216
-0.0236635
-0.0904892
-0.0247226
-0.0937704
-0.0236123
-0.0938239
-0.0196734
-0.0894506
-0.0124591
-0.0796722
-0.00258255
-0.0638032
0.011156
-0.0424484
0.0261013
-0.0141245
0.0422613
0.0167302
0.0584796
0.0490302
0.0738916
0.0794722
0.0874695
0.105577
0.0982055
0.125979
0.105283
0.141279
0.108565
0.153816
0.109245
0.165276
0.109793
0.173063
0.112679
0.169269
0.118655
0.145143
0.126682
0.0973346
0.135369
0.0303136
0.143349
-0.042933
0.149563
-0.107422
0.153192
-0.151996
0.153964
-0.175494
0.152482
-0.184346
0.149718
-0.184273
0.145275
-0.18094
0.137743
-0.181078
0.12777
-0.187257
0.11946
-0.184799
0.117245
-0.151728
0.122145
-0.0815334
0.131851
0.00904651
0.143179
0.0899623
0.152905
0.15211
0.158181
0.192855
0.157397
0.23477
0.151751
0.265806
0.145197
0.272263
0.141127
0.218155
0.141328
0.105478
0.145194
-0.0187316
0.150022
-0.135151
0.151481
-0.181532
0.147385
-0.237807
0.141021
-0.246441
0.137597
-0.252797
0.139663
-0.19339
0.143427
-0.050574
0.145006
0.0358645
0.143041
0.235104
0.140903
0.255185
0.140363
0.308796
0.140064
0.256281
-0.0089731
0.0146935
-0.057353
0.0104833
-0.0653234
0.00553063
-0.0729344
-1.88654e-05
-0.0794721
-0.00573169
-0.0847764
-0.0111176
-0.0883845
-0.0151517
-0.0897898
-0.0167997
-0.0878026
-0.0149375
-0.0815344
-0.00903322
-0.0697075
0.000577853
-0.0520595
0.0147004
-0.028247
0.0310716
0.00035903
0.0482795
0.0318223
0.065233
0.0625186
0.0806392
0.0901706
0.0933006
0.113317
0.102417
0.132162
0.108145
0.148088
0.111917
0.161504
0.11596
0.16902
0.121876
0.163353
0.129507
0.137512
0.137543
0.0892984
0.144892
0.0229653
0.150829
-0.0488701
0.154618
-0.111211
0.155892
-0.15327
0.154727
-0.174329
0.151734
-0.181353
0.147898
-0.180438
0.143065
-0.176108
0.135663
-0.173676
0.125615
-0.177209
0.116627
-0.17581
0.113647
-0.148747
0.118457
-0.0863435
0.128915
-0.00141133
0.141509
0.077368
0.152587
0.141032
0.159096
0.186347
0.159466
0.2344
0.154872
0.2704
0.149016
0.27812
0.144829
0.222341
0.144084
0.106223
0.146617
-0.021265
0.150485
-0.139019
0.151614
-0.182661
0.147401
-0.233595
0.140978
-0.240018
0.137469
-0.249289
0.139632
-0.195553
0.143367
-0.0543085
0.144983
0.0342487
0.143037
0.237049
0.140832
0.25739
0.140491
0.309137
0.140537
0.256235
-0.0079292
0.046432
-0.0535119
0.0419943
-0.0608856
0.0366025
-0.0675427
0.0300934
-0.072963
0.0224146
-0.0770976
0.0138885
-0.0798584
0.00520958
-0.0811109
-0.00183081
-0.0807623
-0.00591411
-0.0774511
-0.00582273
-0.0697989
-0.0013078
-0.0565744
0.00885533
-0.0384102
0.022953
-0.0137387
0.0395896
0.0151858
0.0569695
0.0451386
0.0735188
0.0736213
0.0878292
0.0990071
0.0991285
0.120863
0.107683
0.139533
0.114852
0.154336
0.122366
0.161506
0.130984
0.154735
0.139829
0.128667
0.147562
0.0815659
0.153595
0.0169322
0.157517
-0.0527925
0.158979
-0.112673
0.157977
-0.152267
0.155009
-0.171361
0.150707
-0.177051
0.14595
-0.17568
0.140821
-0.170979
0.133772
-0.166627
0.124021
-0.167458
0.114587
-0.166376
0.110706
-0.144866
0.115068
-0.0907058
0.125942
-0.012285
0.139596
0.0637136
0.151957
0.128672
0.159787
0.178516
0.161495
0.232692
0.158102
0.273792
0.152988
0.283234
0.148678
0.226652
0.146966
0.107934
0.148114
-0.0224123
0.150948
-0.141854
0.151754
-0.183466
0.147465
-0.229306
0.140968
-0.23352
0.137315
-0.245636
0.139565
-0.197803
0.143355
-0.0580978
0.145074
0.0325289
0.14315
0.238974
0.140855
0.259685
0.140744
0.309247
0.14119
0.25579
-0.00709492
0.0787182
-0.0493819
0.0740457
-0.0562131
0.0685781
-0.0620751
0.0621238
-0.0665087
0.0545808
-0.0695546
0.0458836
-0.0711613
0.0361712
-0.0713985
0.0258882
-0.0704793
0.0164955
-0.0680584
0.0100044
-0.0633078
0.00828128
-0.0548513
0.0118583
-0.0419872
0.0210216
-0.022902
0.0346506
0.00155679
0.0506646
0.0291247
0.0671866
0.0570993
0.0825721
0.0836216
0.095911
0.107524
0.107302
0.128142
0.117755
0.143883
0.128378
0.150883
0.139188
0.143925
0.148925
0.11893
0.156348
0.0741423
0.161123
0.0121579
0.163226
-0.0548959
0.162493
-0.111939
0.159361
-0.149136
0.15475
-0.16675
0.149349
-0.17165
0.143833
-0.170164
0.138464
-0.16561
0.131909
-0.160072
0.122805
-0.158354
0.11326
-0.156831
0.10846
-0.140066
0.11205
-0.0942963
0.122926
-0.0231608
0.137366
0.0492735
0.150906
0.115132
0.160135
0.169287
0.163345
0.229482
0.161288
0.275849
0.156961
0.287562
0.152543
0.23107
0.149888
0.110589
0.14964
-0.022164
0.151379
-0.143593
0.151861
-0.183947
0.147543
-0.224988
0.140963
-0.22694
0.137099
-0.241772
0.139418
-0.200122
0.143356
-0.0620362
0.145261
0.0306238
0.143374
0.240861
0.140975
0.262084
0.141128
0.309094
0.142028
0.254889
-0.00649348
0.108274
-0.0447535
0.10314
-0.0510796
0.0973442
-0.0562789
0.0908739
-0.0600384
0.0837841
-0.0624647
0.0759821
-0.0633592
0.0672282
-0.0626446
0.0573421
-0.0605931
0.0467875
-0.0575038
0.0368317
-0.053352
0.0294108
-0.0474304
0.0261306
-0.038707
0.0285234
-0.0252948
0.0367045
-0.00662428
0.0490819
0.0167472
0.0638596
0.0423215
0.079191
0.0682902
0.0938453
0.0928697
0.107508
0.114479
0.120644
0.130747
0.133687
0.137839
0.146057
0.131555
0.156303
0.108684
0.163444
0.067001
0.167207
0.00839506
0.167725
-0.0554136
0.165016
-0.10923
0.159963
-0.144084
0.153891
-0.160678
0.147597
-0.165356
0.141507
-0.164074
0.135936
-0.160038
0.129917
-0.154053
0.121734
-0.150171
0.112477
-0.147574
0.106892
-0.134481
0.109424
-0.0968283
0.119869
-0.0336059
0.134745
0.0343973
0.14932
0.100557
0.159998
0.158609
0.164863
0.224617
0.16427
0.276442
0.160782
0.29105
0.156266
0.235585
0.152764
0.114091
0.151143
-0.0205431
0.151744
-0.144194
0.151893
-0.184096
0.147597
-0.220693
0.140942
-0.220286
0.136798
-0.237628
0.139149
-0.202473
0.143334
-0.0662208
0.14552
0.0284376
0.143707
0.242674
0.141198
0.264594
0.141644
0.308648
0.143051
0.253482
-0.00614765
0.132724
-0.0395177
0.126999
-0.0453546
0.120654
-0.0499342
0.113862
-0.0532467
0.106855
-0.0554569
0.099704
-0.0562087
0.0923021
-0.0552427
0.0843618
-0.0526529
0.075617
-0.0487589
0.0661834
-0.0439184
0.0569819
-0.0382289
0.0495619
-0.031287
0.0460288
-0.0217617
0.0477762
-0.0083716
0.0547523
0.00977107
0.0659018
0.0311721
0.0795455
0.0546465
0.0941838
0.0782313
0.108981
0.0996819
0.123749
0.115979
0.138262
0.123327
0.151478
0.118339
0.161917
0.0982452
0.168771
0.0601465
0.171776
0.00539041
0.170892
-0.0545297
0.166431
-0.10477
0.159707
-0.137359
0.152383
-0.153354
0.145389
-0.158362
0.138915
-0.157599
0.133186
-0.15431
0.127662
-0.14853
0.120564
-0.143073
0.111983
-0.138993
0.105878
-0.128377
0.107184
-0.0981336
0.116789
-0.0432115
0.131689
0.0194982
0.147103
0.085143
0.159241
0.146471
0.165874
0.217984
0.166857
0.275459
0.164264
0.293643
0.159731
0.240119
0.155472
0.118351
0.152568
-0.017639
0.152004
-0.143631
0.151802
-0.183893
0.147589
-0.216479
0.140889
-0.213586
0.136396
-0.233135
0.138724
-0.204801
0.143247
-0.0707439
0.145823
0.0258611
0.144143
0.244354
0.141527
0.26721
0.142297
0.307878
0.144261
0.251518
-0.0060805
0.14989
-0.0338429
0.143704
-0.0391688
0.136922
-0.0431521
0.129874
-0.0461991
0.122858
-0.0484402
0.116014
-0.0493649
0.109423
-0.0486521
0.103056
-0.0462852
0.0966898
-0.0423932
0.089965
-0.0371935
0.0827368
-0.0310008
0.0754514
-0.0240017
0.0695016
-0.0158119
0.0667993
-0.00566931
0.0682689
0.00830151
0.0745756
0.0248654
0.0848821
0.04434
0.097864
0.0652494
0.112307
0.0852388
0.127393
0.100893
0.142279
0.10844
0.155595
0.105023
0.165911
0.0879288
0.172476
0.0535812
0.174827
0.00303988
0.172656
-0.052359
0.166623
-0.0987359
0.158483
-0.129219
0.150136
-0.145007
0.142619
-0.150845
0.135943
-0.150924
0.130129
-0.148496
0.125015
-0.143416
0.119043
-0.137101
0.111472
-0.131422
0.105208
-0.122113
0.105295
-0.0982208
0.113684
-0.0516
0.128181
0.00500124
0.144173
0.0691506
0.157727
0.132917
0.166238
0.209473
0.168918
0.272778
0.167273
0.295288
0.16279
0.244602
0.157928
0.123212
0.153847
-0.013558
0.152114
-0.141898
0.151536
-0.183315
0.147471
-0.212414
0.140786
-0.206901
0.135885
-0.228234
0.138112
-0.207028
0.143054
-0.0756864
0.14614
0.0227753
0.144676
0.245818
0.141968
0.269918
0.143089
0.306757
0.145656
0.248951
-0.0063145
0.158612
-0.0282045
0.152334
-0.0328904
0.145478
-0.0362965
0.138518
-0.0392388
0.13171
-0.041632
0.125195
-0.04285
0.119166
-0.0426236
0.113804
-0.0409227
0.109094
-0.0376837
0.104788
-0.0328872
0.100521
-0.0267339
0.0960405
-0.0195212
0.0915527
-0.011324
0.0879828
-0.00209948
0.0866478
0.0096365
0.0888633
0.02265
0.0951982
0.0380051
0.105177
0.055271
0.117765
0.0726507
0.131802
0.0868555
0.145982
0.0942601
0.158711
0.0922953
0.168604
0.0780355
0.174826
0.0473588
0.17645
0.00141607
0.172992
-0.0489008
0.165508
-0.0912517
0.156199
-0.119911
0.147072
-0.13588
0.139187
-0.14296
0.132474
-0.144211
0.12668
-0.142702
0.121884
-0.13862
0.116977
-0.132193
0.110654
-0.125098
0.104615
-0.116073
0.103624
-0.0972303
0.110571
-0.0585473
0.124241
-0.00866864
0.140498
0.0528939
0.15535
0.118064
0.165756
0.199068
0.170211
0.268323
0.169622
0.295878
0.165318
0.248907
0.160049
0.128481
0.154933
-0.00844282
0.152048
-0.139013
0.151054
-0.182321
0.147204
-0.208565
0.140619
-0.200316
0.135277
-0.222891
0.137298
-0.209049
0.142718
-0.0811064
0.146438
0.0190554
0.145296
0.246961
0.142524
0.272689
0.144026
0.305255
0.147238
0.245739
-0.00687102
0.159549
-0.0231457
0.153579
-0.02692
0.147062
-0.0297796
0.140543
-0.0327206
0.134163
-0.035252
0.128101
-0.0367875
0.122659
-0.0371814
0.118082
-0.0363459
0.114464
-0.0340653
0.111756
-0.0301797
0.109739
-0.0247171
0.108069
-0.0178514
0.106488
-0.00974266
0.105414
-0.00102565
0.104415
0.0106355
0.105164
0.0219011
0.108814
0.0343557
0.115705
0.0483797
0.125534
0.0628213
0.137362
0.0750274
0.149801
0.0818213
0.161276
0.0808202
0.170472
0.0688395
0.176136
0.0416946
0.17687
0.000682128
0.172145
-0.044175
0.163388
-0.0824948
0.153202
-0.109725
0.143556
-0.126234
0.135431
-0.134834
0.128765
-0.137546
0.123068
-0.137005
0.118462
-0.134014
0.114417
-0.128148
0.109426
-0.120108
0.103947
-0.110594
0.102092
-0.0953752
0.10745
-0.0639058
0.119907
-0.0211257
0.13604
0.0367611
0.152045
0.102059
0.164467
0.186646
0.170825
0.261965
0.171282
0.295421
0.167251
0.252938
0.161803
0.133928
0.155854
-0.00249329
0.151863
-0.135022
0.150384
-0.180841
0.146798
-0.204979
0.140391
-0.193909
0.134612
-0.217113
0.13631
-0.210747
0.142215
-0.0870118
0.146673
0.0145973
0.145992
0.247642
0.143199
0.275482
0.145109
0.303346
0.149004
0.241844
-0.00776868
0.155242
-0.0191762
0.149887
-0.0215652
0.144343
-0.0242354
0.138733
-0.0271099
0.13317
-0.0296888
0.127928
-0.0315465
0.12322
-0.0324727
0.1192
-0.0323264
0.116071
-0.0309357
0.114025
-0.0281338
0.113097
-0.0237891
0.113126
-0.0178808
0.113839
-0.0104554
0.114485
-0.00167145
0.11624
0.00888021
0.118466
0.0196754
0.121853
0.0309686
0.127261
0.0429712
0.134921
0.0551614
0.144402
0.0655469
0.154703
0.0715196
0.164549
0.0709749
0.172598
0.0607901
0.177119
0.037174
0.176529
0.0012715
0.170099
-0.037745
0.160306
-0.0727017
0.149727
-0.0991465
0.139985
-0.116491
0.131811
-0.126661
0.125231
-0.130965
0.119661
-0.131435
0.115107
-0.129459
0.111608
-0.124649
0.107854
-0.116354
0.103175
-0.105915
0.100716
-0.0929169
0.104523
-0.067712
0.115388
-0.0319905
0.130974
0.0211742
0.147566
0.0854675
0.161748
0.172464
0.170169
0.253544
0.171941
0.293649
0.168404
0.256474
0.163048
0.139285
0.156539
0.00401553
0.15155
-0.130033
0.149565
-0.178856
0.146273
-0.201687
0.140095
-0.187731
0.133928
-0.210946
0.135222
-0.21204
0.141578
-0.0933681
0.146835
0.00934058
0.146748
0.247729
0.143989
0.278241
0.146341
0.300994
0.150955
0.23723
-0.00902964
0.193353
-0.0149415
-0.197588
0.189947
-0.0181594
0.186337
-0.0206253
0.182285
-0.0230574
0.177818
-0.0252222
0.173071
-0.0267996
0.168169
-0.0275702
0.163208
-0.027366
0.158308
-0.0260354
0.153601
-0.0234273
0.149212
-0.0194
0.145223
-0.013891
0.141726
-0.0069585
0.138604
0.00145016
0.136166
0.011318
0.134189
0.0216525
0.133042
0.0321152
0.133483
0.0425307
0.136403
0.0522409
0.142365
0.0595848
0.151259
0.0626261
0.162694
0.0595394
0.175855
0.0476293
0.188242
0.0247873
0.196481
-0.00696749
0.19915
-0.040414
0.19657
-0.0701213
0.190496
-0.0930724
0.182531
-0.108526
0.173926
-0.118057
0.16553
-0.122569
0.157398
-0.123304
0.149594
-0.121655
0.142537
-0.117592
0.135512
-0.109328
0.127189
-0.0975923
0.119145
-0.0848727
0.115308
-0.0638752
0.117603
-0.0342851
0.123977
0.0147997
0.130982
0.0784623
0.136438
0.167008
0.140266
0.249716
0.144504
0.289412
0.150789
0.250188
0.157776
0.132298
0.161227
0.000564472
0.161118
-0.129925
0.158978
-0.176716
0.15389
-0.196599
0.146012
-0.179853
0.137983
-0.202917
0.134328
-0.208385
0.135144
-0.0941841
0.135048
0.00943649
0.132451
0.250327
0.130015
0.280676
0.133173
0.297836
0.138951
0.231451
-0.00978315
0.20259
-0.0117699
-0.205761
0.19924
-0.0148094
0.195865
-0.017251
0.19215
-0.0193417
0.188073
-0.0211454
0.183752
-0.0224783
0.179302
-0.0231211
0.174834
-0.0228971
0.170464
-0.0216663
0.166333
-0.0192962
0.162601
-0.015668
0.159424
-0.0107135
0.156884
-0.00441838
0.15507
0.00326353
0.154187
0.0122013
0.154127
0.0217123
0.154989
0.0312535
0.157172
0.0403478
0.161252
0.0481603
0.167606
0.0532313
0.176163
0.0540689
0.18653
0.0491729
0.19754
0.0366186
0.206926
0.015402
0.212089
-0.0121313
0.212331
-0.0406553
0.208195
-0.0659861
0.201174
-0.0860514
0.19269
-0.100041
0.183786
-0.109153
0.175216
-0.114
0.167044
-0.115131
0.159105
-0.113716
0.151845
-0.110333
0.145067
-0.10255
0.137273
-0.0897987
0.12914
-0.0767395
0.124341
-0.0590767
0.125529
-0.035473
0.131519
0.00880991
0.138912
0.0710693
0.145269
0.160651
0.150158
0.244827
0.155632
0.283938
0.163064
0.242755
0.170803
0.12456
0.174382
-0.00301466
0.173479
-0.129021
0.170383
-0.17362
0.164606
-0.190823
0.156194
-0.171441
0.147354
-0.194076
0.143056
-0.204087
0.143759
-0.0948869
0.144019
0.00917609
0.141547
0.252799
0.13899
0.283233
0.142694
0.294132
0.149215
0.224931
-0.0105862
0.211871
-0.00926313
-0.214377
0.208855
-0.0117941
0.205645
-0.0140401
0.202212
-0.0159091
0.198503
-0.0174364
0.194574