/*--------------------------------*- C++ -*----------------------------------*\
| =========                 |                                                 |
| \\      /  F ield         | OpenFOAM: The Open Source CFD Toolbox           |
|  \\    /   O peration     | Version:  2512                                  |
|   \\  /    A nd           | Website:  www.openfoam.com                      |
|    \\/     M anipulation  |                                                 |
\*---------------------------------------------------------------------------*/
FoamFile
{
    version     2.0;
    format      ascii;
    arch        "LSB;label=32;scalar=64";
    class       volScalarField;
    location    "187.75";
    object      p;
}
// * * * * * * * * * * * * * * * * * * * * * * * * * * * * * * * * * * * * * //

dimensions      [0 2 -2 0 0 0 0];

internalField   nonuniform List<scalar> 
13248
(
-0.459345
-0.456323
-0.453453
-0.450866
-0.448653
-0.446902
-0.44552
-0.444232
-0.442625
-0.440197
-0.436412
-0.430771
-0.422878
-0.412497
-0.399583
-0.384275
-0.366871
-0.34778
-0.327451
-0.306339
-0.284765
-0.263118
-0.240891
-0.218614
-0.468268
-0.464578
-0.460902
-0.457393
-0.454146
-0.451247
-0.448579
-0.445827
-0.442537
-0.438192
-0.432293
-0.424436
-0.414377
-0.40206
-0.387611
-0.371307
-0.353521
-0.334664
-0.315134
-0.295283
-0.275379
-0.255675
-0.236079
-0.217177
-0.478405
-0.473889
-0.469352
-0.464918
-0.460626
-0.456523
-0.452437
-0.447997
-0.442728
-0.436149
-0.427864
-0.417635
-0.405407
-0.391307
-0.375601
-0.358636
-0.340786
-0.322407
-0.303804
-0.285229
-0.266866
-0.248899
-0.231264
-0.214209
-0.490083
-0.48455
-0.479075
-0.473686
-0.468291
-0.462846
-0.457102
-0.450647
-0.443032
-0.433888
-0.422997
-0.410331
-0.396034
-0.380375
-0.363692
-0.346329
-0.328603
-0.310777
-0.293059
-0.275611
-0.258555
-0.242015
-0.225942
-0.210601
-0.50342
-0.49668
-0.490177
-0.483761
-0.477127
-0.470101
-0.462363
-0.453503
-0.443182
-0.431223
-0.417646
-0.402635
-0.38649
-0.369553
-0.352158
-0.334588
-0.31707
-0.299772
-0.282816
-0.266292
-0.250271
-0.234814
-0.219892
-0.205674
-0.518324
-0.510231
-0.502612
-0.495051
-0.486949
-0.477993
-0.46783
-0.456145
-0.442803
-0.427892
-0.411672
-0.394505
-0.376769
-0.358805
-0.340882
-0.323197
-0.305884
-0.289028
-0.272685
-0.256894
-0.241682
-0.227072
-0.213049
-0.19972
-0.534518
-0.524989
-0.516172
-0.507283
-0.49738
-0.486036
-0.472962
-0.458056
-0.44148
-0.423608
-0.404908
-0.385835
-0.366768
-0.347984
-0.329663
-0.311909
-0.294772
-0.278276
-0.262426
-0.247222
-0.232659
-0.218731
-0.205429
-0.19278
-0.551525
-0.540554
-0.530452
-0.51998
-0.507836
-0.493571
-0.477104
-0.458672
-0.438788
-0.418079
-0.397138
-0.376431
-0.356268
-0.33683
-0.318199
-0.300395
-0.283406
-0.267205
-0.251762
-0.237045
-0.223027
-0.209683
-0.197002
-0.184934
-0.568656
-0.556311
-0.544823
-0.53243
-0.517528
-0.499802
-0.479551
-0.457449
-0.434342
-0.411038
-0.388154
-0.366086
-0.34504
-0.325088
-0.306223
-0.288397
-0.271548
-0.255611
-0.240527
-0.226242
-0.212709
-0.199892
-0.187764
-0.176216
-0.585005
-0.57141
-0.558401
-0.543675
-0.52548
-0.503844
-0.479602
-0.453885
-0.427806
-0.402236
-0.377731
-0.354569
-0.332833
-0.312495
-0.293473
-0.275666
-0.258971
-0.243296
-0.228558
-0.214681
-0.201606
-0.189285
-0.177664
-0.166609
-0.599469
-0.58477
-0.570057
-0.552547
-0.530578
-0.504747
-0.476509
-0.447411
-0.418711
-0.391244
-0.365438
-0.34143
-0.319187
-0.298594
-0.279506
-0.261782
-0.245287
-0.229905
-0.215533
-0.20208
-0.189473
-0.177647
-0.166516
-0.15596
-0.610852
-0.595231
-0.578611
-0.557869
-0.531716
-0.501523
-0.469399
-0.437212
-0.406259
-0.377249
-0.350445
-0.325839
-0.303286
-0.282596
-0.263572
-0.246037
-0.229831
-0.214816
-0.200873
-0.1879
-0.175813
-0.164534
-0.153947
-0.143994
-0.340946
-0.3438
-0.345529
-0.346655
-0.347625
-0.348562
-0.349514
-0.350499
-0.351507
-0.352509
-0.353468
-0.354347
-0.355116
-0.355755
-0.35626
-0.356648
-0.356956
-0.357244
-0.357602
-0.358142
-0.358962
-0.360084
-0.361574
-0.363944
-0.34873
-0.351864
-0.353885
-0.355368
-0.356781
-0.358233
-0.359744
-0.361305
-0.362873
-0.364378
-0.365733
-0.36684
-0.367594
-0.367894
-0.367641
-0.366754
-0.36517
-0.36286
-0.359843
-0.35619
-0.351963
-0.347138
-0.341933
-0.33768
-0.35807
-0.36123
-0.363416
-0.365198
-0.367028
-0.368988
-0.371071
-0.373237
-0.375405
-0.377464
-0.379276
-0.380675
-0.381483
-0.381504
-0.380544
-0.378411
-0.374935
-0.369981
-0.36348
-0.35544
-0.34588
-0.334714
-0.322234
-0.310687
-0.36876
-0.371682
-0.373879
-0.375872
-0.378054
-0.380473
-0.383089
-0.385833
-0.388586
-0.391195
-0.393468
-0.395176
-0.396064
-0.39585
-0.394243
-0.390948
-0.385691
-0.378237
-0.368427
-0.356206
-0.341577
-0.324459
-0.305014
-0.285874
-0.380389
-0.382826
-0.384872
-0.386952
-0.389373
-0.392146
-0.395202
-0.398423
-0.40166
-0.404736
-0.407388
-0.409328
-0.410231
-0.409737
-0.407468
-0.403045
-0.396111
-0.386357
-0.373551
-0.357614
-0.338567
-0.316452
-0.291193
-0.264279
-0.392408
-0.394172
-0.395907
-0.397922
-0.400421
-0.403381
-0.406701
-0.410224
-0.413734
-0.417125
-0.419972
-0.421955
-0.422692
-0.421757
-0.418708
-0.413104
-0.404547
-0.392714
-0.377249
-0.358288
-0.335792
-0.30996
-0.280923
-0.248975
-0.404245
-0.405221
-0.406501
-0.408277
-0.410654
-0.413585
-0.416946
-0.420563
-0.424231
-0.427531
-0.430259
-0.431998
-0.432296
-0.430673
-0.426642
-0.419735
-0.409548
-0.395775
-0.378245
-0.35699
-0.33221
-0.304186
-0.273777
-0.239875
-0.415411
-0.41557
-0.416278
-0.417631
-0.419659
-0.422302
-0.425419
-0.428803
-0.432187
-0.43523
-0.437567
-0.438762
-0.438327
-0.435754
-0.43054
-0.422229
-0.410462
-0.395018
-0.375854
-0.353122
-0.327232
-0.298464
-0.268545
-0.235048
-0.425607
-0.424992
-0.425046
-0.425804
-0.427256
-0.429349
-0.431942
-0.434805
-0.437641
-0.440088
-0.441726
-0.44208
-0.440638
-0.436881
-0.430322
-0.42056
-0.407328
-0.390532
-0.370285
-0.346883
-0.320924
-0.292683
-0.264177
-0.232747
-0.434784
-0.433481
-0.432831
-0.432851
-0.43353
-0.434844
-0.436661
-0.438743
-0.440769
-0.442344
-0.443009
-0.442259
-0.439567
-0.434428
-0.426409
-0.415202
-0.400668
-0.382869
-0.362075
-0.338725
-0.313493
-0.286749
-0.260191
-0.231663
-0.443154
-0.441252
-0.439867
-0.439045
-0.438802
-0.439157
-0.439998
-0.441086
-0.442075
-0.442537
-0.44198
-0.439877
-0.435709
-0.429017
-0.419457
-0.406847
-0.3912
-0.372729
-0.351821
-0.329015
-0.304951
-0.280166
-0.255838
-0.230438
-0.451155
-0.448697
-0.446561
-0.444837
-0.443588
-0.442877
-0.442615
-0.442553
-0.442319
-0.441449
-0.439421
-0.435705
-0.429819
-0.421388
-0.410197
-0.39622
-0.379621
-0.36073
-0.339992
-0.317939
-0.295062
-0.271967
-0.249301
-0.226984
-0.368332
-0.374928
-0.381407
-0.38611
-0.387359
-0.383157
-0.371198
-0.351173
-0.323193
-0.288796
-0.251547
-0.215799
-0.185429
-0.163002
-0.149704
-0.146153
-0.153059
-0.170114
-0.193502
-0.214937
-0.224043
-0.215323
-0.189914
-0.156497
-0.124562
-0.0997795
-0.0838042
-0.0759141
-0.0746567
-0.0799396
-0.0933585
-0.113473
-0.131705
-0.136977
-0.126475
-0.105892
-0.0856029
-0.0714815
-0.0639157
-0.0622701
-0.0684962
-0.0818968
-0.0931863
-0.0926628
-0.0829209
-0.0682732
-0.056467
-0.0480669
-0.0453933
-0.0466367
-0.0472009
-0.0456258
-0.0427554
-0.0376285
-0.0336686
-0.0299484
-0.026382
-0.0269506
-0.0228493
-0.00735825
-0.335115
-0.333938
-0.33388
-0.333588
-0.331665
-0.325935
-0.315831
-0.299722
-0.277768
-0.250568
-0.221479
-0.193853
-0.17088
-0.154879
-0.147309
-0.149376
-0.162061
-0.184462
-0.211721
-0.234828
-0.24359
-0.232022
-0.202974
-0.165748
-0.130419
-0.102748
-0.0841361
-0.0736979
-0.0699364
-0.0723855
-0.0823644
-0.0991022
-0.115397
-0.121338
-0.113155
-0.0960676
-0.079359
-0.0684364
-0.0635385
-0.06448
-0.0734145
-0.0894722
-0.102435
-0.101267
-0.0902881
-0.072765
-0.0583729
-0.0476693
-0.0430938
-0.0422156
-0.0417584
-0.0404213
-0.0384591
-0.0351952
-0.0327618
-0.0313645
-0.0289058
-0.0301528
-0.0259244
-0.00836291
-0.301214
-0.291083
-0.28331
-0.276689
-0.270509
-0.263166
-0.252931
-0.239831
-0.224829
-0.204946
-0.184257
-0.164795
-0.149322
-0.140047
-0.138682
-0.146836
-0.165357
-0.192588
-0.222933
-0.24727
-0.25581
-0.24277
-0.211428
-0.171701
-0.13403
-0.104234
-0.0835134
-0.0708542
-0.064763
-0.0645238
-0.0711211
-0.0844
-0.0986245
-0.104989
-0.0991129
-0.0854728
-0.0723176
-0.0645869
-0.0623904
-0.0659632
-0.077546
-0.0961305
-0.110815
-0.110721
-0.0971427
-0.0768252
-0.0599337
-0.0470956
-0.040833
-0.0380611
-0.0366193
-0.0353166
-0.034126
-0.0326416
-0.0317574
-0.0327561
-0.031396
-0.0332461
-0.0288992
-0.0093457
-0.270382
-0.250995
-0.235022
-0.221113
-0.209504
-0.198956
-0.18886
-0.17583
-0.16566
-0.153652
-0.140872
-0.129227
-0.121265
-0.118937
-0.124117
-0.138484
-0.162487
-0.193832
-0.226627
-0.252038
-0.260815
-0.247372
-0.215108
-0.174259
-0.135409
-0.104346
-0.0821336
-0.0676902
-0.0595535
-0.0568449
-0.0602627
-0.0701157
-0.0821015
-0.0885172
-0.08475
-0.0744237
-0.0646712
-0.0600053
-0.060416
-0.0665181
-0.0805713
-0.101538
-0.117927
-0.118021
-0.103245
-0.0803861
-0.0611431
-0.0463637
-0.038641
-0.0342238
-0.0318383
-0.0303913
-0.0298068
-0.0299956
-0.0306616
-0.0341129
-0.0338331
-0.0361962
-0.0317386
-0.0102954
-0.245485
-0.217723
-0.194051
-0.172609
-0.155346
-0.140292
-0.127496
-0.112959
-0.106853
-0.100867
-0.0945807
-0.0899568
-0.0890539
-0.0935509
-0.105234
-0.125492
-0.15424
-0.188766
-0.223311
-0.249633
-0.258939
-0.246035
-0.214218
-0.173679
-0.134856
-0.103353
-0.080222
-0.064444
-0.0546188
-0.0497695
-0.0502773
-0.0568016
-0.0664096
-0.0725293
-0.0705038
-0.0632292
-0.056589
-0.0547337
-0.057545
-0.0659698
-0.0822645
-0.105431
-0.123512
-0.123942
-0.108462
-0.0833982
-0.0620165
-0.0455003
-0.0365342
-0.030724
-0.0274511
-0.0257177
-0.0255577
-0.0272845
-0.0294807
-0.035423
-0.0361946
-0.038964
-0.0344075
-0.0112008
-0.22683
-0.193157
-0.162721
-0.134228
-0.11422
-0.0941226
-0.0767286
-0.0723291
-0.0582135
-0.0533028
-0.051097
-0.0518523
-0.0568238
-0.0673185
-0.0847302
-0.109901
-0.142183
-0.178685
-0.214133
-0.241127
-0.251044
-0.239349
-0.209166
-0.170304
-0.132653
-0.101507
-0.0779901
-0.0612835
-0.0501261
-0.0435151
-0.0415263
-0.0449281
-0.0520534
-0.0575476
-0.0568042
-0.0521889
-0.0482469
-0.0488432
-0.0537735
-0.0642506
-0.0824953
-0.107624
-0.12741
-0.128645
-0.112685
-0.0858151
-0.0625672
-0.0445255
-0.0345144
-0.0275594
-0.023477
-0.0213572
-0.0214284
-0.0245327
-0.0282191
-0.0366702
-0.0384539
-0.0415125
-0.0368734
-0.0120508
-0.215514
-0.180107
-0.145391
-0.113942
-0.0867728
-0.0629727
-0.0435572
-0.0305377
-0.0195723
-0.0160193
-0.015934
-0.0199862
-0.0289589
-0.0437636
-0.0652749
-0.0937241
-0.127977
-0.165139
-0.200525
-0.227927
-0.238191
-0.228222
-0.200658
-0.164623
-0.129128
-0.0990465
-0.0756202
-0.0583352
-0.0461621
-0.0381332
-0.0341044
-0.0347449
-0.0394033
-0.0440219
-0.044038
-0.0415905
-0.0398526
-0.0424839
-0.0491873
-0.0613633
-0.0811945
-0.108027
-0.129548
-0.133132
-0.11581
-0.0875865
-0.062802
-0.043454
-0.0325768
-0.0247017
-0.0199133
-0.0173651
-0.0174589
-0.0217612
-0.0268789
-0.0378364
-0.0405847
-0.0438097
-0.0391059
-0.0128342
-0.210085
-0.175606
-0.140166
-0.106982
-0.0767869
-0.0499136
-0.0273634
-0.0101999
0.00202444
0.0071187
0.00734119
0.00233684
-0.00833894
-0.0252101
-0.048664
-0.0784206
-0.112995
-0.149535
-0.183765
-0.209384
-0.221413
-0.21362
-0.18943
-0.157101
-0.124527
-0.0960997
-0.0731913
-0.0556468
-0.0427446
-0.0336155
-0.0279719
-0.0262894
-0.0286372
-0.0322721
-0.0341158
-0.0317067
-0.031652
-0.0358527
-0.0439164
-0.057398
-0.0783932
-0.106632
-0.129823
-0.138238
-0.117665
-0.0886715
-0.0627336
-0.0423012
-0.0307244
-0.0221265
-0.0167347
-0.0137749
-0.0136836
-0.0189904
-0.0254597
-0.0389036
-0.0425614
-0.0458247
-0.0410772
-0.0135422
-0.208297
-0.176316
-0.143085
-0.110594
-0.0797098
-0.0513937
-0.0266891
-0.00667682
0.00774066
0.0161543
0.0182769
0.0144018
0.0042625
-0.0123917
-0.0355949
-0.0647399
-0.0981224
-0.132961
-0.165519
-0.190511
-0.202251
-0.196625
-0.176329
-0.148309
-0.119189
-0.0928685
-0.0708564
-0.0533507
-0.0399763
-0.0300242
-0.0231384
-0.0195788
-0.0198259
-0.0222222
-0.0237522
-0.0225548
-0.0238842
-0.0291774
-0.0381413
-0.0524191
-0.0741627
-0.103532
-0.127949
-0.136177
-0.118023
-0.0891013
-0.0624446
-0.0411311
-0.0289818
-0.019844
-0.0139376
-0.0106024
-0.0101258
-0.0162383
-0.0239586
-0.0398549
-0.0443588
-0.0475303
-0.0427615
-0.014169
-0.208317
-0.179662
-0.150337
-0.120581
-0.0909719
-0.0629376
-0.0375928
-0.0158629
0.000729639
0.013092
0.0182591
0.0170704
0.00928826
-0.00522223
-0.0262932
-0.0531514
-0.0840042
-0.116203
-0.14622
-0.169894
-0.181601
-0.178461
-0.16249
-0.139173
-0.113856
-0.089972
-0.0691578
-0.0519235
-0.0382442
-0.0276427
-0.019765
-0.0146836
-0.013046
-0.0140741
-0.0151102
-0.0143537
-0.0167664
-0.022635
-0.0320524
-0.0467314
-0.0687838
-0.0987949
-0.124138
-0.132764
-0.117103
-0.0889653
-0.0620799
-0.0400686
-0.0273866
-0.0178403
-0.011552
-0.00791456
-0.00679362
-0.0135195
-0.0223759
-0.0406666
-0.0459493
-0.0489036
-0.0441292
-0.0147058
-0.208672
-0.183899
-0.158802
-0.131928
-0.104173
-0.0772579
-0.0519501
-0.0290003
-0.00979229
0.00352135
0.0109477
0.0133089
0.00907499
-0.00200202
-0.0195919
-0.0430416
-0.070651
-0.0996993
-0.126982
-0.148347
-0.159921
-0.159451
-0.148121
-0.12982
-0.108607
-0.0874349
-0.0680598
-0.051287
-0.0374224
-0.0262868
-0.017621
-0.0113041
-0.00798398
-0.00768408
-0.00832146
-0.00726769
-0.0105945
-0.0165047
-0.0257805
-0.040186
-0.0622208
-0.0929499
-0.118849
-0.128031
-0.114818
-0.0880151
-0.0614425
-0.0390052
-0.0258575
-0.0159288
-0.00944474
-0.0057555
-0.00375812
-0.0108437
-0.0206838
-0.0413343
-0.0473009
-0.0499221
-0.0451467
-0.0151263
-0.209059
-0.19033
-0.169858
-0.146047
-0.121363
-0.0973688
-0.074028
-0.0514723
-0.0314239
-0.014177
-0.00275173
0.00254942
0.00233334
-0.00402051
-0.0166739
-0.0349076
-0.0573371
-0.0817616
-0.105798
-0.125045
-0.136071
-0.13776
-0.130798
-0.117278
-0.100114
-0.0818351
-0.0642832
-0.0484885
-0.0349603
-0.0237612
-0.0148265
-0.00783967
-0.00327355
-0.00181997
-0.00244498
-0.00483412
-0.00540433
-0.0110614
-0.0200024
-0.0337992
-0.0551745
-0.0856982
-0.111744
-0.121666
-0.110612
-0.0854147
-0.0595145
-0.0371455
-0.0239855
-0.0137588
-0.00722422
-0.00364073
-0.000890064
-0.00829339
-0.0189365
-0.0417915
-0.0483941
-0.050571
-0.0458265
-0.0153913
-0.194973
-0.186875
-0.167501
-0.144321
-0.121387
-0.0992161
-0.0774874
-0.0564853
-0.0378369
-0.0221848
-0.0111801
-0.00474187
-0.00331019
-0.00765483
-0.017963
-0.0337183
-0.0535894
-0.0754962
-0.0966039
-0.113497
-0.122885
-0.123987
-0.117422
-0.105192
-0.0897939
-0.0733427
-0.0574029
-0.0428659
-0.0301924
-0.019466
-0.01073
-0.00365824
0.00144593
0.0038652
0.00387366
0.00215528
0.00109442
-0.00393886
-0.0118575
-0.0248959
-0.0464679
-0.0788602
-0.107279
-0.118793
-0.107846
-0.0822476
-0.0564547
-0.0343528
-0.0217265
-0.0114997
-0.00498272
-0.00099211
0.00256152
-0.00527617
-0.0167956
-0.0420563
-0.0495376
-0.0509594
-0.0462786
-0.0155175
-0.182197
-0.176554
-0.158622
-0.137112
-0.116519
-0.0971486
-0.0783954
-0.0602799
-0.0440104
-0.0302027
-0.0198454
-0.0134387
-0.0115565
-0.0146717
-0.0228829
-0.0357361
-0.0520467
-0.0699638
-0.0869609
-0.10014
-0.107426
-0.107871
-0.102154
-0.0918405
-0.0788051
-0.0646618
-0.0506799
-0.0376401
-0.0259914
-0.015901
-0.00752707
-0.000550408
0.00480492
0.00771022
0.00796436
0.00641982
0.00520441
0.00100961
-0.00585093
-0.0178879
-0.0391107
-0.0723538
-0.101627
-0.112845
-0.102224
-0.0773687
-0.0526821
-0.0314923
-0.0193854
-0.00930558
-0.00307518
0.00110785
0.00487453
-0.00292225
-0.0150811
-0.0421739
-0.050443
-0.0508806
-0.046233
-0.0155234
-0.169643
-0.164826
-0.149497
-0.130602
-0.112508
-0.095711
-0.0795704
-0.0640059
-0.0497169
-0.0374532
-0.0280578
-0.0220918
-0.0199457
-0.0219141
-0.0280219
-0.0378337
-0.0503376
-0.0640243
-0.076952
-0.0871216
-0.0926777
-0.0930016
-0.0884798
-0.0800981
-0.0691954
-0.0570373
-0.0447068
-0.0329358
-0.0221918
-0.0126681
-0.00461454
0.0021957
0.00762346
0.0108835
0.0114826
0.0103054
0.00897384
0.00514137
-0.00119393
-0.0127103
-0.0334442
-0.0658264
-0.0941058
-0.105017
-0.0952831
-0.0718237
-0.048593
-0.0284785
-0.016961
-0.00714395
-0.00119146
0.00304173
0.00678195
-0.0010113
-0.01375
-0.0421477
-0.0510328
-0.0503507
-0.0457242
-0.015446
-0.155957
-0.153129
-0.140742
-0.12449
-0.108643
-0.0940324
-0.0801379
-0.0667749
-0.0543741
-0.043623
-0.0352049
-0.0295749
-0.0270391
-0.0278128
-0.0318862
-0.038896
-0.0480706
-0.0582745
-0.0679847
-0.0756362
-0.0799155
-0.0801708
-0.0765065
-0.0695734
-0.0603714
-0.0498971
-0.0390479
-0.0284683
-0.018618
-0.00969012
-0.00199053
0.00459159
0.00998281
0.0135288
0.014598
0.0138568
0.0126623
0.0092653
0.00334725
-0.00773045
-0.0274597
-0.0580457
-0.0853225
-0.0961679
-0.0872698
-0.0655268
-0.0440582
-0.0252837
-0.0144664
-0.00500037
0.000679353
0.00481999
0.00854276
0.000759922
-0.0124056
-0.0417825
-0.0512469
-0.049403
-0.0447296
-0.0152533
-0.142963
-0.14194
-0.131971
-0.118101
-0.10435
-0.0917671
-0.0799304
-0.0685563
-0.0578981
-0.0485087
-0.0409358
-0.0355739
-0.0326905
-0.0324464
-0.034823
-0.0395441
-0.0460215
-0.0533557
-0.0604147
-0.0660006
-0.0691004
-0.0691059
-0.0660021
-0.0602046
-0.0524196
-0.0433958
-0.033857
-0.0243565
-0.0153457
-0.00701445
0.000317774
0.00665178
0.0119293
0.0156566
0.0171797
0.0169358
0.0161654
0.0134107
0.00812802
-0.00210623
-0.020327
-0.049117
-0.075507
-0.086124
-0.0782172
-0.0585428
-0.0391525
-0.0219541
-0.0119276
-0.00288933
0.00252888
0.00642865
0.0101406
0.0025089
-0.0108459
-0.0409449
-0.0509882
-0.0479802
-0.0431856
-0.0149096
-0.131063
-0.130981
-0.123035
-0.111423
-0.099718
-0.088994
-0.0789725
-0.0693421
-0.0602273
-0.0520475
-0.0452566
-0.0402012
-0.0371066
-0.0360924
-0.0371379
-0.0400303
-0.0443158
-0.0492895
-0.0541372
-0.0579774
-0.0600013
-0.0596922
-0.0569576
-0.0520216
-0.0453636
-0.0375402
-0.0291341
-0.020605
-0.0123797
-0.00464415
0.00230023
0.00837761
0.0134956
0.0172982
0.0192196
0.0195441
0.0194049
0.0174815
0.0131062
0.0040637
-0.0125188
-0.039469
-0.0647096
-0.0749609
-0.0683279
-0.0510253
-0.0339544
-0.0185272
-0.00936938
-0.000830088
0.00434633
0.00788148
0.0115385
0.00422939
-0.00905942
-0.0394995
-0.0500892
-0.0460085
-0.0410525
-0.0143832
-0.119522
-0.120216
-0.114117
-0.10458
-0.0947461
-0.0856929
-0.0772605
-0.0691517
-0.0614033
-0.054324
-0.0482836
-0.0435751
-0.0403854
-0.0388067
-0.0388193
-0.0402577
-0.0427808
-0.0458889
-0.0489619
-0.0513527
-0.0524367
-0.0517804
-0.0492431
-0.0449269
-0.0391518
-0.0323208
-0.0248932
-0.0172375
-0.00973976
-0.00258649
0.00395149
0.00976434
0.0147134
0.0185223
0.020765
0.0216501
0.0222544
0.0213339
0.0180738
0.0103482
-0.0045661
-0.0294247
-0.0532536
-0.0631106
-0.0579005
-0.0431746
-0.0285711
-0.0150517
-0.00681832
0.00115982
0.00612456
0.00921144
0.0127205
0.00589148
-0.0070387
-0.0372605
-0.0483555
-0.0434411
-0.0383217
-0.0136481
-0.108401
-0.109883
-0.105369
-0.0976324
-0.0894554
-0.0818862
-0.0748478
-0.0680688
-0.0615281
-0.0554441
-0.0501088
-0.0457656
-0.0425716
-0.0406011
-0.039841
-0.0401714
-0.0413349
-0.0429906
-0.0446706
-0.045883
-0.0461583
-0.0451444
-0.0426893
-0.0388195
-0.0337378
-0.0277243
-0.0211346
-0.0142588
-0.00743141
-0.000836925
0.00528309
0.0108162
0.0155993
0.0193829
0.0218731
0.0232501
0.0245593
0.0247416
0.0227836
0.0164671
0.00319556
-0.0194776
-0.0416459
-0.0510733
-0.047299
-0.035239
-0.0231348
-0.011581
-0.00429859
0.0030675
0.00785713
0.010467
0.013701
0.00750822
-0.00471373
-0.0340426
-0.0455993
-0.0402561
-0.0350228
-0.0126892
-0.0981058
-0.100086
-0.0968214
-0.0906166
-0.0838952
-0.0776351
-0.0718145
-0.0661915
-0.0607083
-0.0555132
-0.050833
-0.0468676
-0.0437496
-0.0415422
-0.0402396
-0.0397553
-0.0399139
-0.0404493
-0.0410404
-0.0413146
-0.0409205
-0.0395789
-0.0371443
-0.0335975
-0.0290593
-0.0237182
-0.0178439
-0.0116621
-0.00545192
0.000612957
0.00631499
0.0115493
0.016161
0.0199062
0.0225872
0.0243135
0.0262344
0.0274402
0.0268677
0.0219883
0.0102243
-0.0102172
-0.0303418
-0.0391999
-0.0369044
-0.0274904
-0.0177954
-0.00817308
-0.00183175
0.00488547
0.00953634
0.0117133
0.014543
0.00914409
-0.00200579
-0.0297247
-0.041675
-0.0364641
-0.0312331
-0.0115091
-0.0885657
-0.0907643
-0.088492
-0.0835952
-0.0781407
-0.0730203
-0.0682528
-0.0636272
-0.0590642
-0.0546591
-0.0505854
-0.0470052
-0.0440294
-0.0417134
-0.0400568
-0.038996
-0.0384152
-0.0381279
-0.0378946
-0.0374455
-0.0365211
-0.0349025
-0.0324599
-0.0291516
-0.0250442
-0.0202599
-0.0149981
-0.00943221
-0.00378901
0.00177615
0.00707013
0.0119909
0.0164127
0.0201053
0.0229328
0.0249633
0.0272661
0.0292279
0.0297902
0.0261628
0.0158689
-0.00204262
-0.0196804
-0.0279257
-0.0271122
-0.0201969
-0.0127073
-0.00488958
0.00055949
0.00661111
0.0111534
0.0130235
0.0153584
0.0108813
0.0011147
-0.0243027
-0.0365374
-0.0321244
-0.0270838
-0.0101345
-0.0795586
-0.0819159
-0.0804594
-0.0766583
-0.0722803
-0.0681344
-0.0642673
-0.060496
-0.056729
-0.0530219
-0.049505
-0.0463084
-0.043524
-0.041199
-0.039339
-0.0379012
-0.0368089
-0.0359307
-0.035096
-0.0341115
-0.0327858
-0.0309508
-0.0284974
-0.0253759
-0.0216182
-0.0173002
-0.0125656
-0.00754625
-0.00242229
0.00267215
0.00757032
0.0121732
0.0163808
0.0199898
0.0229117
0.0251766
0.0276668
0.0299954
0.0311763
0.0285035
0.0198102
0.00482313
-0.0100707
-0.0177373
-0.018293
-0.0135859
-0.00800899
-0.0017922
0.00284562
0.00823959
0.0126945
0.0144534
0.0162827
0.0127884
0.00460281
-0.0179501
-0.0303184
-0.0273601
-0.0227494
-0.00861698
-0.071148
-0.0736074
-0.0727845
-0.0698736
-0.066393
-0.0630694
-0.0599647
-0.0569192
-0.0538357
-0.0507405
-0.0477299
-0.0449068
-0.0423465
-0.04009
-0.0381416
-0.0364884
-0.0350675
-0.0337903
-0.0325396
-0.0311786
-0.0295684
-0.0275826
-0.0251329
-0.0221705
-0.0187063
-0.014785
-0.0105085
-0.00597526
-0.0013263
0.00332568
0.00784084
0.0121265
0.0160959
0.0195832
0.0225369
0.0249484
0.0274664
0.0298153
0.0311337
0.029156
0.0221265
0.0101511
-0.0020302
-0.00907845
-0.0107126
-0.00780543
-0.00380117
0.00106446
0.00498965
0.00975529
0.0141294
0.0160034
0.0174304
0.0148984
0.00831882
-0.0110591
-0.0233726
-0.0223561
-0.0184276
-0.00703125
-0.0634033
-0.0658398
-0.0654778
-0.0632838
-0.0605481
-0.057913
-0.0554474
-0.0530131
-0.0505121
-0.0479494
-0.0453947
-0.0429288
-0.040614
-0.0384899
-0.0365453
-0.03479
-0.0331822
-0.0316611
-0.0301462
-0.0285424
-0.026751
-0.0246789
-0.0222572
-0.0194424
-0.0162344
-0.0126581
-0.00878444
-0.00468575
-0.000471845
0.0037653
0.00791074
0.01188
0.0155943
0.0189249
0.0218376
0.0242932
0.0267198
0.0288803
0.0300703
0.0285811
0.0230655
0.0138042
0.00410682
-0.00217242
-0.00446875
-0.00290866
-0.000135974
0.0036377
0.00695356
0.0111328
0.0154037
0.0175796
0.0188294
0.0171767
0.012025
-0.00419974
-0.0162578
-0.0173493
-0.0143117
-0.00546581
-0.0562321
-0.0585737
-0.0585522
-0.0569357
-0.0548129
-0.0527477
-0.0508123
-0.0488879
-0.0468792
-0.0447765
-0.0426279
-0.0404958
-0.0384288
-0.0364531
-0.0346001
-0.0328417
-0.0311599
-0.029517
-0.0278594
-0.0261229
-0.0242386
-0.0221398
-0.0197746
-0.0171071
-0.0141324
-0.0108631
-0.00734883
-0.00364158
0.000173064
0.00402252
0.00781136
0.0114645
0.0149139
0.018059
0.0208595
0.0232631
0.0255181
0.0274041
0.028375
0.0272195
0.0229619
0.0159484
0.00841345
0.00306849
0.000495325
0.00112616
0.00297795
0.00589582
0.00870539
0.012347
0.0164489
0.0189943
0.0203312
0.0194483
0.015398
0.00201276
-0.00959579
-0.0125921
-0.0105627
-0.00400624
-0.0495793
-0.0518061
-0.0520333
-0.0508728
-0.0492459
-0.0476464
-0.0461462
-0.0446433
-0.0430473
-0.0413389
-0.0395501
-0.0377289
-0.0359147
-0.0341318
-0.0323929
-0.0306931
-0.0290193
-0.0273471
-0.0256416
-0.0238602
-0.0219562
-0.0198833
-0.0176036
-0.0150895
-0.0123349
-0.00934565
-0.00615657
-0.0028051
0.000642358
0.00412904
0.00757533
0.0109176
0.0140925
0.0170243
0.0196623
0.0219438
0.0239831
0.0255849
0.0263423
0.0254322
0.0221886
0.0169525
0.0112254
0.00690863
0.00432026
0.00436185
0.00556025
0.00781833
0.0102171
0.0133765
0.0172127
0.0200442
0.0215842
0.0213376
0.0180384
0.00708252
-0.0038464
-0.00828757
-0.00728694
-0.00272156
-0.0434534
-0.0455362
-0.0459286
-0.0451212
-0.0438917
-0.0426694
-0.0415232
-0.0403659
-0.0391133
-0.0377401
-0.0362665
-0.0347286
-0.0331579
-0.0315737
-0.029984
-0.0283896
-0.0267834
-0.0251506
-0.0234689
-0.0217109
-0.0198461
-0.0178432
-0.015676
-0.0133242
-0.0107827
-0.00805416
-0.00516386
-0.00213852
0.000969755
0.00411687
0.00723607
0.0102758
0.0131734
0.0158708
0.0183112
0.0204269
0.0222426
0.0235938
0.0241865
0.0234808
0.0210486
0.0171821
0.0129002
0.00961887
0.0071554
0.00687741
0.007644
0.00939832
0.0114597
0.0141919
0.0176652
0.0205986
0.0222642
0.0224057
0.0195874
0.0107448
0.000780513
-0.00456583
-0.00453523
-0.00165503
-0.037825
-0.0397391
-0.0402333
-0.0396976
-0.0387851
-0.0378662
-0.0370055
-0.0361289
-0.0351595
-0.034069
-0.0328685
-0.0315852
-0.0302438
-0.0288587
-0.0274355
-0.0259765
-0.024479
-0.0229344
-0.0213288
-0.0196455
-0.0178651
-0.0159676
-0.0139356
-0.0117552
-0.00942341
-0.00694162
-0.00432918
-0.00160537
0.00118824
0.00401797
0.0068271
0.00957382
0.0121978
0.0146518
0.0168752
0.0188043
0.0204109
0.0215631
0.0220488
0.0215288
0.0197423
0.0169084
0.0136959
0.0110316
0.00911657
0.00875785
0.00926826
0.0106402
0.0124118
0.0147617
0.017786
0.0205976
0.0221752
0.0224553
0.0199639
0.0129906
0.00424769
-0.00149955
-0.00231328
-0.000818921
-0.0326523
-0.0343927
-0.034944
-0.034615
-0.0339529
-0.0332757
-0.0326432
-0.0319925
-0.0312548
-0.0304007
-0.029435
-0.0283773
-0.0272469
-0.0260547
-0.0248042
-0.0234976
-0.0221346
-0.0207107
-0.0192176
-0.0176453
-0.0159824
-0.0142166
-0.0123375
-0.0103362
-0.00821204
-0.00596624
-0.00361445
-0.00117115
0.00132987
0.00386277
0.00637907
0.00884505
0.0112039
0.0134159
0.0154201
0.0171601
0.0185815
0.0195846
0.0200151
0.0196685
0.0183916
0.0163319
0.013891
0.0114349
0.0103859
0.0101026
0.0104781
0.0115592
0.0130674
0.0150687
0.0175958
0.0200983
0.0214403
0.0216647
0.0194148
0.0140055
0.00661038
0.000895214
-0.0005852
-0.000194999
-0.0279124
-0.0294796
-0.0300535
-0.0298786
-0.0294123
-0.0289263
-0.0284746
-0.0280045
-0.0274549
-0.0267969
-0.0260312
-0.025171
-0.0242309
-0.0232201
-0.022141
-0.020994
-0.0197792
-0.0184952
-0.0171374
-0.0157001
-0.0141768
-0.012561
-0.0108471
-0.00903004
-0.00711105
-0.00509193
-0.00298604
-0.000804711
0.00142412
0.00368
0.00592124
0.00812086
0.0102272
0.0122064
0.0139994
0.015559
0.0168234
0.0177181
0.0181317
0.0179449
0.0170733
0.015614
0.0138358
0.0119965
0.0112443
0.0110234
0.0113232
0.0121812
0.0134411
0.015119
0.0171475
0.0192363
0.0202828
0.0203607
0.0183075
0.014095
0.00801435
0.00265627
0.000714568
0.000252516
-0.0235802
-0.0249774
-0.0255486
-0.0254871
-0.0251731
-0.0248373
-0.024528
-0.024201
-0.0238029
-0.0233064
-0.0227093
-0.0220206
-0.0212504
-0.0204067
-0.0194913
-0.0185028
-0.0174407
-0.0163055
-0.015095
-0.0138063
-0.0124359
-0.0109808
-0.0094387
-0.00780766
-0.00609017
-0.00428878
-0.00241525
-0.000478875
0.00149667
0.00349504
0.00548034
0.0074303
0.00929936
0.0110596
0.0126556
0.0140487
0.0151827
0.0159998
0.0164199
0.016376
0.0158291
0.0148437
0.0136263
0.0123978
0.0117825
0.0116042
0.0118542
0.0125371
0.0135636
0.0149398
0.0165094
0.0181528
0.0188951
0.0188154
0.0169425
0.0135878
0.00867193
0.00386187
0.00166133
0.000561974
-0.0196278
-0.0208631
-0.0214152
-0.0214356
-0.0212393
-0.0210209
-0.0208227
-0.0206083
-0.0203314
-0.0199668
-0.0195108
-0.0189691
-0.0183489
-0.0176565
-0.0168936
-0.0160568
-0.0151451
-0.0141596
-0.0131002
-0.0119652
-0.0107531
-0.00946278
-0.00809433
-0.00664758
-0.00512608
-0.0035329
-0.00187856
-0.000171143
0.00156924
0.00332919
0.00507822
0.00679758
0.00844692
0.0100032
0.0114193
0.0126639
0.0136887
0.0144474
0.0148853
0.0149655
0.0146752
0.0140575
0.013278
0.012484
0.0120355
0.0119046
0.0121181
0.0126614
0.0134745
0.0145707
0.0157404
0.016962
0.0174156
0.0172032
0.0155077
0.0127521
0.00880156
0.0046088
0.00233268
0.000764764
-0.0160314
-0.0171155
-0.0176374
-0.0177157
-0.0176096
-0.0174822
-0.0173704
-0.0172438
-0.0170633
-0.016806
-0.0164674
-0.0160512
-0.0155619
-0.0150039
-0.014378
-0.0136827
-0.0129148
-0.0120749
-0.0111638
-0.0101813
-0.00912677
-0.00800008
-0.00680244
-0.00553503
-0.00420187
-0.00280631
-0.0013579
0.000136225
0.0016592
0.00319935
0.00473107
0.00623905
0.00768844
0.00905931
0.010313
0.0114324
0.0123559
0.0130669
0.0135234
0.0137049
0.013614
0.0132777
0.0128228
0.0123372
0.0120502
0.011974
0.0121594
0.0125891
0.0132138
0.0140558
0.0148855
0.0157024
0.0159403
0.0156256
0.0141046
0.0117741
0.00858353
0.00498415
0.00281065
0.000879128
-0.012768
-0.0137127
-0.0141981
-0.0143161
-0.0142788
-0.0142217
-0.0141763
-0.0141181
-0.0140135
-0.0138431
-0.0136013
-0.0132909
-0.0129144
-0.0124731
-0.0119691
-0.0114027
-0.0107694
-0.0100673
-0.00929765
-0.00846149
-0.0075589
-0.00659018
-0.0055569
-0.00446093
-0.00330634
-0.00209672
-0.000840381
0.000456284
0.00177872
0.00311732
0.00445059
0.00576519
0.00703312
0.00823784
0.00934399
0.0103364
0.0111792
0.0118522
0.0123242
0.0125834
0.0126421
0.0125146
0.0122949
0.0120295
0.0118789
0.0118564
0.0120191
0.0123551
0.0128191
0.0134384
0.0139934
0.0145166
0.0145418
0.0141385
0.0127828
0.0107686
0.00815135
0.00503959
0.00254202
0.000892504
-0.00981554
-0.0106338
-0.0110797
-0.011224
-0.0112389
-0.0112357
-0.0112413
-0.0112356
-0.0111907
-0.0110898
-0.0109276
-0.0107052
-0.0104247
-0.0100863
-0.00969053
-0.00923755
-0.00872529
-0.00815037
-0.00751268
-0.00681356
-0.00605385
-0.00523408
-0.00435578
-0.0034209
-0.00243339
-0.00139671
-0.00031809
0.000796677
0.00193556
0.0030902
0.00424278
0.00538249
0.00648564
0.00753944
0.00851497
0.00939682
0.0101621
0.0107944
0.0112741
0.0115889
0.0117533
0.0117746
0.0117265
0.011616
0.0115691
0.011592
0.0117352
0.0119937
0.012324
0.0127549
0.0130906
0.0133787
0.0132461
0.0127699
0.0115629
0.00979934
0.00761361
0.00496514
0.00271375
0.000907891
-0.00715401
-0.00785886
-0.00826475
-0.00842558
-0.00847967
-0.0085177
-0.00856201
-0.00859647
-0.00859819
-0.00855273
-0.00845537
-0.00830632
-0.00810688
-0.00785703
-0.00755507
-0.00720087
-0.00679571
-0.00633595
-0.00581916
-0.00524596
-0.00461773
-0.00393543
-0.00320045
-0.00241454
-0.00158115
-0.000703541