/*--------------------------------*- C++ -*----------------------------------*\
| =========                 |                                                 |
| \\      /  F ield         | OpenFOAM: The Open Source CFD Toolbox           |
|  \\    /   O peration     | Version:  2512                                  |
|   \\  /    A nd           | Website:  www.openfoam.com                      |
|    \\/     M anipulation  |                                                 |
\*---------------------------------------------------------------------------*/
FoamFile
{
    version     2.0;
    format      ascii;
    arch        "LSB;label=32;scalar=64";
    class       surfaceScalarField;
    location    "126.25";
    object      phi;
}
// * * * * * * * * * * * * * * * * * * * * * * * * * * * * * * * * * * * * * //

dimensions      [0 3 -1 0 0 0 0];

oriented        oriented;

internalField   nonuniform List<scalar> 
26232
(
0.000105819
0.000822632
-0.000928452
0.000510453
0.00123925
-0.00164389
0.00134255
0.000619818
-0.00145192
0.00275153
-0.000944969
-0.000464008
0.00489697
-0.00340115
0.00125571
0.00793721
-0.00671462
0.00367438
0.0120152
-0.0108552
0.00677724
0.0172416
-0.0157791
0.0105527
0.0236777
-0.0214136
0.0149775
0.0313204
-0.0276477
0.0200049
0.0400936
-0.0343313
0.0255581
0.0498481
-0.0412837
0.0315292
0.0603718
-0.0483078
0.0377841
0.0714084
-0.0552086
0.044172
0.082681
-0.0618106
0.050538
0.0939186
-0.0679733
0.0567357
0.10488
-0.0736006
0.0626388
0.115375
-0.0786456
0.068151
0.125273
-0.0831076
0.0732092
0.134514
-0.0870323
0.0777915
0.143092
-0.0904785
0.0819004
0.151073
-0.0935797
0.0855992
0.15847
-0.0963249
0.0889277
-0.0990511
0.0922458
0.165275
0.000167591
0.000655042
0.000791451
0.000615392
0.00202383
-0.000612566
0.0040304
-0.00295154
0.00697913
-0.00634988
0.0110229
-0.0107584
0.016277
-0.0161093
0.0227952
-0.0222974
0.0305502
-0.0291686
0.0394225
-0.03652
0.0492047
-0.0441134
0.0596186
-0.0516976
0.0703451
-0.0590343
0.0810591
-0.0659226
0.0914649
-0.0722164
0.101326
-0.0778339
0.110483
-0.0827578
0.118865
-0.0870278
0.126485
-0.0907278
0.133424
-0.0939708
0.13982
-0.0968748
0.145827
-0.0995863
0.151627
-0.102125
-0.104858
0.157433
0.000233459
0.000421583
0.00109298
-0.000244134
0.00275762
-0.0022772
0.00540689
-0.00560081
0.00920519
-0.0101482
0.0142749
-0.015828
0.0206652
-0.0224996
0.0283262
-0.0299584
0.0370965
-0.0379389
0.0467108
-0.0461343
0.056828
-0.0542306
0.067074
-0.0619436
0.0770893
-0.0690497
0.086573
-0.0754063
0.0953138
-0.0809573
0.103206
-0.0857262
0.110248
-0.0897996
0.116525
-0.0933049
0.122184
-0.0963872
0.127404
-0.0991901
0.132366
-0.101837
0.137223
-0.104443
0.142128
-0.10703
-0.109842
0.147112
0.000312927
0.000108657
0.00144009
-0.0013713
0.00358132
-0.00441842
0.00691739
-0.00893688
0.011584
-0.0148148
0.017634
-0.0218781
0.0250037
-0.0298692
0.0334965
-0.0384513
0.0427953
-0.0472377
0.0525019
-0.0558408
0.0621948
-0.0639236
0.0714908
-0.0712396
0.0800952
-0.077654
0.0878321
-0.0831432
0.0946511
-0.0877763
0.100612
-0.0916874
0.105855
-0.0950428
0.110563
-0.0980127
0.114925
-0.10075
0.119113
-0.103377
0.123261
-0.105986
0.127462
-0.108644
0.13179
-0.111358
-0.114295
0.136243
0.00041174
-0.000303083
0.00184537
-0.00280493
0.00450532
-0.00707836
0.00854859
-0.0129802
0.0140441
-0.0203103
0.0209291
-0.028763
0.0289855
-0.0379256
0.0378537
-0.0473195
0.0470841
-0.056468
0.0562112
-0.064968
0.0648299
-0.0725423
0.0726522
-0.0790618
0.0795337
-0.0845356
0.0854699
-0.0890793
0.090566
-0.0928724
0.0949949
-0.0961162
0.0989529
-0.0990009
0.102625
-0.101685
0.106164
-0.104288
0.10968
-0.106894
0.113248
-0.109554
0.116908
-0.112304
0.120693
-0.115143
-0.11818
0.124578
0.000530794
-0.000833877
0.00230515
-0.00457929
0.00550568
-0.0102789
0.0102292
-0.0177037
0.0164328
-0.0265139
0.0238969
-0.0362271
0.0322341
-0.0462628
0.0409493
-0.0560347
0.049532
-0.0650508
0.0575491
-0.0729851
0.0647097
-0.0797029
0.0708891
-0.0852411
0.076113
-0.0897596
0.0805161
-0.0934824
0.0842889
-0.0966453
0.0876314
-0.0994587
0.0907198
-0.102089
0.0936908
-0.104656
0.0966402
-0.107238
0.0996288
-0.109882
0.102693
-0.112618
0.105849
-0.11546
0.109115
-0.118409
-0.121524
0.112459
0.000666486
-0.00150036
0.00280027
-0.00671307
0.00652739
-0.014006
0.0118414
-0.0230177
0.0185458
-0.0332183
0.0262463
-0.0439276
0.0344116
-0.0544281
0.0424822
-0.0641053
0.049984
-0.0725526
0.0566061
-0.0796072
0.0622249
-0.0853217
0.0668802
-0.0898964
0.0707219
-0.0936013
0.0739502
-0.0967107
0.0767653
-0.0994604
0.0793368
-0.10203
0.0817917
-0.104544
0.0842159
-0.10708
0.0866632
-0.109685
0.0891649
-0.112384
0.0917375
-0.11519
0.0943876
-0.11811
0.0971214
-0.121143
-0.124314
0.0999115
0.00081189
-0.00231225
0.00330034
-0.00920152
0.00749511
-0.0182008
0.0132448
-0.0287674
0.0201755
-0.040149
0.0277354
-0.0514875
0.0353135
-0.0620063
0.0423781
-0.0711699
0.0485747
-0.0787492
0.0537582
-0.0847907
0.0579645
-0.089528
0.0613483
-0.0932801
0.0641146
-0.0963677
0.0664654
-0.0990615
0.0685679
-0.101563
0.0705445
-0.104007
0.0724764
-0.106476
0.0744132
-0.109017
0.0763835
-0.111655
0.0784028
-0.114403
0.0804783
-0.117266
0.0826125
-0.120244
0.0848071
-0.123337
-0.126548
0.0870417
0.000957918
-0.00327017
0.00376863
-0.0120122
0.00832641
-0.0227586
0.0143051
-0.034746
0.0211577
-0.0470017
0.0282273
-0.0585571
0.0349078
-0.0686868
0.040774
-0.0770361
0.0456319
-0.0836071
0.0494934
-0.0886521
0.0525066
-0.0925412
0.054879
-0.0956525
0.0568164
-0.0983051
0.0584885
-0.100734
0.060018
-0.103092
0.0614849
-0.105474
0.0629372
-0.107928
0.0644022
-0.110482
0.0658949
-0.113148
0.0674231
-0.115931
0.0689903
-0.118833
0.0705972
-0.121851
0.0722429
-0.124983
-0.12822
0.0739147
0.00109408
-0.00436426
0.00416678
-0.0150849
0.00894471
-0.0275365
0.0149177
-0.040719
0.0214014
-0.0534854
0.0277072
-0.0648629
0.0333106
-0.0742902
0.0379364
-0.0816619
0.041547
-0.0872176
0.0442698
-0.0913749
0.0463101
-0.0945815
0.0478797
-0.0972221
0.0491552
-0.0995806
0.0502646
-0.101843
0.0512903
-0.104118
0.0522813
-0.106465
0.0532649
-0.108912
0.054256
-0.111473
0.0552629
-0.114155
0.0562899
-0.116958
0.0573384
-0.119882
0.0584086
-0.122921
0.0594982
-0.126073
-0.129323
0.0606009
0.00120998
-0.00557423
0.00446054
-0.0183355
0.00929131
-0.0323673
0.0150239
-0.0464517
0.0208958
-0.0593572
0.0262609
-0.070228
0.0307265
-0.0787557
0.0341719
-0.0851074
0.036683
-0.0897287
0.0384537
-0.0931457
0.0397016
-0.0958294
0.0406144
-0.0981349
0.0413301
-0.100296
0.0419376
-0.10245
0.0424895
-0.10467
0.0430145
-0.10699
0.0435281
-0.109425
0.044039
-0.111984
0.0445521
-0.114668
0.0450699
-0.117476
0.0455931
-0.120405
0.0461209
-0.123449
0.04665
-0.126602
-0.129851
0.047178
0.00129909
-0.00687332
0.00462694
-0.0216633
0.00933431
-0.0370746
0.0146155
-0.0517329
0.0196993
-0.064441
0.0240404
-0.0745692
0.0273943
-0.0821097
0.0297728
-0.0874858
0.0313414
-0.0912974
0.0323185
-0.0941228
0.0329055
-0.0964163
0.0332548
-0.0984843
0.0334671
-0.100508
0.0336013
-0.102585
0.0336894
-0.104758
0.0337482
-0.107048
0.0337867
-0.109464
0.0338102
-0.112008
0.0338223
-0.11468
0.0338248
-0.117479
0.0338183
-0.120398
0.0338018
-0.123433
0.0337719
-0.126572
0.0337285
-0.129808
-0.000220962
-0.00205521
0.00227618
-0.000802509
-0.00534134
0.00592289
-0.00169795
-0.00800326
0.00889871
-0.00286413
-0.0101042
0.0112704
-0.00425705
-0.0117358
0.0131287
-0.00583335
-0.0130128
0.0145891
-0.00755292
-0.0140516
0.0157711
-0.00938088
-0.0149512
0.0167791
-0.0112881
-0.0157819
0.0176891
-0.0132501
-0.016582
0.0185441
-0.0152454
-0.0173599
0.0193552
-0.0172526
-0.0180996
0.0201067
-0.0192477
-0.0187665
0.0207616
-0.0212025
-0.0193123
0.021267
-0.0230822
-0.0196784
0.0215582
-0.0248453
-0.0197976
0.0215606
-0.0264421
-0.0195961
0.021193
-0.0278163
-0.0189944
0.0203687
-0.0289059
-0.0179097
0.0189993
-0.0296464
-0.0162596
0.017
-0.0299731
-0.0139669
0.0142936
-0.0298276
-0.0109611
0.0108156
-0.0291884
-0.00715634
0.00651715
-0.00246502
-0.0281215
0.00139812
-0.000316452
-0.00173876
-0.00110699
-0.0045508
-0.00227677
-0.00683349
-0.00375091
-0.00863004
-0.00546658
-0.0100201
-0.00737181
-0.0111075
-0.00942524
-0.0119981
-0.0115952
-0.0127812
-0.0138582
-0.013519
-0.0161958
-0.0142445
-0.0185919
-0.0149638
-0.0210298
-0.0156617
-0.0234894
-0.0163068
-0.0259453
-0.0168564
-0.0283648
-0.0172589
-0.030707
-0.0174554
-0.0329221
-0.017381
-0.0349517
-0.0169648
-0.0367304
-0.016131
-0.0381906
-0.0147994
-0.0392671
-0.0128904
-0.0399036
-0.0103247
-0.040064
-0.00699594
-0.00279882
-0.0397302
-0.000388841
-0.00134992
-0.001333
-0.00360664
-0.00269683
-0.00546966
-0.00437839
-0.00694848
-0.00629854
-0.00809993
-0.00839707
-0.009009
-0.0106298
-0.00976545
-0.012965
-0.0104459
-0.01538
-0.011104
-0.017857
-0.0117675
-0.0203795
-0.0124413
-0.0229294
-0.0131117
-0.0254848
-0.0137514
-0.028018
-0.0143233
-0.0304941
-0.0147827
-0.0328702
-0.0150793
-0.0350943
-0.0151569
-0.0371048
-0.0149543
-0.0388319
-0.0144039
-0.0402009
-0.0134304
-0.0411415
-0.0119498
-0.0415907
-0.00987553
-0.0414831
-0.00710354
-0.00347605
-0.0408059
-0.000431626
-0.000918295
-0.00146306
-0.00257521
-0.00292965
-0.00400306
-0.00470912
-0.00516901
-0.00670917
-0.00609988
-0.00886178
-0.00685639
-0.0111181
-0.00750916
-0.013443
-0.00812096
-0.0158103
-0.00873664
-0.0181978
-0.00938007
-0.0205833
-0.0100558
-0.0229424
-0.0107527
-0.0252458
-0.0114481
-0.0274584
-0.0121106
-0.0295385
-0.0127026
-0.0314364
-0.0131815
-0.0330934
-0.0134999
-0.0344409
-0.0136068
-0.0353988
-0.013446
-0.0358756
-0.0129536
-0.0357755
-0.0120499
-0.035012
-0.010639
-0.0334891
-0.00862645
-0.00582882
-0.0311363
-0.000441899
-0.000476396
-0.00148943
-0.00152768
-0.00296315
-0.00252935
-0.00472824
-0.00340392
-0.00668272
-0.0041454
-0.00875106
-0.00478804
-0.010878
-0.00538225
-0.013022
-0.00597689
-0.0151499
-0.00660881
-0.017231
-0.00729891
-0.0192343
-0.00805253
-0.0211249
-0.00886202
-0.0228634
-0.00970957
-0.0244044
-0.0105696
-0.0256963
-0.0114108
-0.0266809
-0.0121968
-0.0272927
-0.0128881
-0.0274571
-0.0134423
-0.0270881
-0.0138149
-0.0260839
-0.0139579
-0.0243217
-0.0138121
-0.0216701
-0.0132906
-0.0180202
-0.0122763
-0.010627
-0.013222
-0.000419954
-5.64422e-05
-0.0014132
-0.000534429
-0.00279954
-0.00114301
-0.00443928
-0.00176418
-0.00622373
-0.00236096
-0.00806979
-0.00294198
-0.00991377
-0.00353826
-0.0117048
-0.00418582
-0.013399
-0.00491461
-0.0149544
-0.00574352
-0.0163275
-0.00667949
-0.0174709
-0.00771863
-0.0183325
-0.00884791
-0.0188554
-0.0100468
-0.0189775
-0.0112887
-0.0186324
-0.0125419
-0.0177491
-0.0137714
-0.0162512
-0.0149402
-0.0140549
-0.0160113
-0.0110639
-0.0169489
-0.00715721
-0.0177188
-0.00217204
-0.0182758
0.00407031
-0.0185187
-0.0183164
0.0117597
-0.000369292
0.000312849
-0.00124394
0.000340215
-0.00245438
6.74362e-05
-0.00386274
-0.000355817
-0.00535506
-0.000868645
-0.00684015
-0.00145689
-0.00824324
-0.00213517
-0.00950044
-0.00292862
-0.0105533
-0.00386179
-0.0113443
-0.00495251
-0.0118142
-0.00620958
-0.0119004
-0.00763242
-0.0115367
-0.00921159
-0.010654
-0.0109295
-0.00918118
-0.0127615
-0.00704649
-0.0146766
-0.00417828
-0.0166396
-0.000505542
-0.0186129
0.00404208
-0.0205589
0.00953695
-0.0224437
0.0160569
-0.0242387
0.0237211
-0.02594
0.0325769
-0.0273745
-0.0291627
0.0434231
-0.000296027
0.000608876
-0.00099862
0.00104281
-0.00195762
0.00102644
-0.00303782
0.00072438
-0.00412213
0.000215669
-0.0051102
-0.000468815
-0.00591289
-0.00133249
-0.00644948
-0.00239203
-0.00664306
-0.00366821
-0.00641734
-0.00517823
-0.005695
-0.00693192
-0.0043975
-0.00892992
-0.0024462
-0.0111629
0.000235721
-0.0136114
0.00372101
-0.0162468
0.00807645
-0.019032
0.0133611
-0.0219243
0.0196257
-0.0248775
0.0269126
-0.0278458
0.0352574
-0.0307885
0.0446787
-0.03366
0.0552488
-0.0365102
0.0668361
-0.0389618
-0.0424829
0.0801564
-0.000209295
0.000818171
-0.000702572
0.00153608
-0.00134952
0.00167338
-0.00202118
0.00139604
-0.00259681
0.000791299
-0.00296262
-0.000103003
-0.00301474
-0.00128036
-0.00265317
-0.0027536
-0.0017811
-0.00454027
-0.000303781
-0.00665555
0.00187114
-0.00910684
0.00483146
-0.0118902
0.00865738
-0.0149888
0.0134179
-0.018372
0.0191677
-0.0219965
0.0259443
-0.0258087
0.0337676
-0.0297476
0.0426398
-0.0337497
0.0525468
-0.0377528
0.0634625
-0.0417042
0.0753425
-0.04554
0.0881698
-0.0493375
0.101775
-0.0525669
-0.0571713
0.116463
-0.000118879
0.00093705
-0.000383565
0.00180077
-0.000680346
0.00197016
-0.000884187
0.00159988
-0.000868312
0.000775424
-0.00050801
-0.000463305
0.000318638
-0.00210701
0.00172921
-0.00416418
0.00383657
-0.00664763
0.00674676
-0.00956574
0.010555
-0.0129151
0.0153406
-0.0166759
0.021162
-0.0208101
0.0280516
-0.0252616
0.0360133
-0.0299583
0.0450219
-0.0348173
0.0550244
-0.0397501
0.0659446
-0.0446699
0.0776886
-0.0494968
0.0901489
-0.0541646
0.103221
-0.0586118
0.116768
-0.0628852
0.130757
-0.0665554
-0.0713037
0.144889
-3.35076e-05
0.000970558
-6.70203e-05
0.00183428
4.72222e-06
0.00189842
0.000306998
0.0012976
0.000974046
0.000108377
0.00214297
-0.00163223
0.00394958
-0.00391362
0.00652363
-0.00673823
0.0099839
-0.0101079
0.014431
-0.0140129
0.0199398
-0.0184238
0.0265515
-0.0232876
0.0342679
-0.0285266
0.0430488
-0.0340424
0.0528124
-0.0397219
0.0634407
-0.0454456
0.0747879
-0.0510973
0.0866907
-0.0565726
0.09898
-0.0617861
0.111492
-0.066677
0.124089
-0.0712086
0.136601
-0.0753974
0.149129
-0.0790834
-0.0831276
0.160953
4.21063e-05
0.000232504
0.000679007
0.0015126
0.00287669
0.00491884
0.00778246
0.0115969
0.0164665
0.0224586
0.0295929
0.0378345
0.047092
0.0572216
0.0680378
0.0793278
0.0908693
0.102448
0.113871
0.124985
0.135677
0.145879
0.155723
0.164841
-0.0244027
0.00316446
-0.00688329
-0.0201676
0.0150149
-0.0192499
-0.0153398
0.0287278
-0.0335556
-0.0101004
0.0438332
-0.0490726
-0.00466864
0.0597394
-0.0651711
0.000684679
0.0757464
-0.0810997
0.00569719
0.0910747
-0.0960872
0.0100809
0.105122
-0.109506
0.0142504
0.116606
-0.120776
0.0187665
0.124898
-0.129414
0.0246425
0.128513
-0.134389
0.0329139
0.125502
-0.133773
0.0440398
0.11398
-0.125106
0.0575256
0.0929281
-0.106414
0.0721897
0.0626314
-0.0772956
0.0869207
0.0242771
-0.0390081
0.100986
-0.0199714
0.00590582
0.113874
-0.0664815
0.053594
0.124813
-0.108735
0.0977954
0.132931
-0.140454
0.132337
0.137734
-0.159302
0.154498
0.139528
-0.167438
0.165644
0.139146
-0.168615
0.168997
0.136812
-0.166605
0.16894
0.13181
-0.166579
0.171581
0.1242
-0.172247
0.179857
0.116481
-0.178299
0.186018
0.112555
-0.16817
0.172096
0.114698
-0.126935
0.124791
0.122287
-0.0559098
0.0483211
0.132507
0.0265218
-0.0367417
0.142435
0.100181
-0.110109
0.150189
0.152928
-0.160683
0.155283
0.182528
-0.187621
0.157216
0.196995
-0.198928
0.15494
0.209284
-0.207007
0.148553
0.229308
-0.222922
0.14074
0.239694
-0.23188
0.135482
0.216852
-0.211594
0.134999
0.14118
-0.140698
0.139128
0.0349739
-0.0391027
0.145637
-0.0728136
0.0663044
0.152078
-0.153661
0.147221
0.155251
-0.198339
0.195165
0.152774
-0.230473
0.23295
0.145478
-0.243617
0.250914
0.138101
-0.255509
0.262885
0.135275
-0.197797
0.200623
0.138822
-0.112379
0.108832
0.145198
0.0115408
-0.0179173
0.149112
0.12251
-0.126424
0.147702
0.195256
-0.193845
0.143503
0.293022
-0.288822
0.140965
0.260144
-0.257607
0.142159
0.251135
-0.252328
0.144062
0.1003
-0.102203
0.144272
-0.0485829
0.0483731
0.142919
-0.135777
0.137129
0.140939
-0.356082
0.358063
-0.206638
0.208344
-0.0362929
-0.000272781
-0.0320026
0.0107246
-0.0268715
0.0235967
-0.0209882
0.0379499
-0.0144931
0.0532442
-0.00760264
0.068856
-0.000549227
0.0840213
0.00705384
0.097519
0.0150624
0.108598
0.0239992
0.115961
0.0344795
0.118033
0.0468513
0.11313
0.0608942
0.0999368
0.0757228
0.0780995
0.0902201
0.0481341
0.103672
0.0108248
0.115621
-0.0319198
0.125873
-0.0767334
0.133825
-0.116687
0.138914
-0.145543
0.141
-0.161388
0.14053
-0.166967
0.138401
-0.166486
0.134977
-0.163182
0.129391
-0.160993
0.121087
-0.163944
0.112109
-0.16932
0.106749
-0.16281
0.108163
-0.12835
0.116083
-0.0638293
0.127526
0.015079
0.13912
0.0885873
0.148734
0.143313
0.155565
0.175697
0.158827
0.193733
0.157578
0.210533
0.152196
0.23469
0.145304
0.246585
0.140451
0.221705
0.139507
0.142125
0.142494
0.0319861
0.147409
-0.077728
0.152431
-0.158684
0.154727
-0.200635
0.15186
-0.227606
0.144313
-0.236069
0.136797
-0.247993
0.134156
-0.195155
0.138093
-0.116316
0.1449
0.00473319
0.149005
0.118405
0.147841
0.19642
0.143732
0.29713
0.141174
0.262703
0.142537
0.249772
0.144675
0.0981619
0.14507
-0.0489785
0.143664
-0.134371
0.141618
-0.354036
-0.204931
-0.0377243
-0.00335432
-0.0336299
0.00663012
-0.0284528
0.0184196
-0.0221875
0.0316846
-0.0147723
0.0458291
-0.0065265
0.0606101
0.0028717
0.0746231
0.0132706
0.0871201
0.0245429
0.0973255
0.0368842
0.10362
0.0504435
0.104473
0.065085
0.0984885
0.080231
0.0847907
0.0949621
0.0633685
0.108331
0.0347651
0.119768
-0.000612506
0.12941
-0.0415611
0.136953
-0.0842768
0.141943
-0.121677
0.1441
-0.147701
0.143659
-0.160946
0.14122
-0.164528
0.137624
-0.16289
0.133335
-0.158892
0.127503
-0.155162
0.118988
-0.155429
0.1091
-0.159432
0.102231
-0.15594
0.102512
-0.128631
0.110238
-0.0715551
0.122543
0.00277402
0.135591
0.0755388
0.147004
0.1319
0.155579
0.167123
0.160275
0.189037
0.160277
0.21053
0.156129
0.238838
0.15024
0.252474
0.145709
0.226236
0.144214
0.14362
0.145908
0.0302924
0.149197
-0.0810173
0.15275
-0.162237
0.154197
-0.202081
0.15106
-0.224469
0.1434
-0.22841
0.135783
-0.240376
0.133261
-0.192633
0.137475
-0.12053
0.144667
-0.00245867
0.148993
0.114079
0.148118
0.197296
0.144087
0.301161
0.141471
0.265319
0.143017
0.248226
0.14543
0.0957485
0.146022
-0.0495706
0.144556
-0.132904
0.142431
-0.351911
-0.203234
-0.0286113
-0.00587933
-0.0246722
0.00269103
-0.019544
0.0132914
-0.0132326
0.0253732
-0.00551941
0.0381158
0.00415614
0.0509346
0.0152307
0.0635486
0.0273431
0.0750077
0.0405595
0.0841091
0.0547683
0.0894111
0.0697339
0.0895076
0.0850008
0.0832216
0.0998635
0.069928
0.113472
0.04976
0.125122
0.0231147
0.134556
-0.0100462
0.141893
-0.0488986
0.146872
-0.089255
0.149065
-0.12387
0.148469
-0.147105
0.145709
-0.158185
0.141574
-0.160394
0.136772
-0.158088
0.131769
-0.153888
0.125911
-0.149304
0.117693
-0.147211
0.107455
-0.149194
0.0991843
-0.14767
0.097844
-0.127291
0.10483
-0.0785413
0.117532
-0.00992755
0.131805
0.0612659
0.144914
0.11879
0.155221
0.156816
0.161457
0.182801
0.162928
0.209059
0.160212
0.241554
0.15539
0.257297
0.151106
0.23052
0.148933
0.145793
0.149329
0.029896
0.150968
-0.0826567
0.153029
-0.164298
0.153635
-0.202687
0.150317
-0.221151
0.142672
-0.220765
0.134989
-0.232693
0.132517
-0.190161
0.136913
-0.124926
0.144459
-0.0100041
0.149059
0.109479
0.148531
0.197823
0.144584
0.305108
0.141881
0.268023
0.143612
0.246495
0.146322
0.0930383
0.147123
-0.0503716
0.14559
-0.131372
0.14337
-0.349691
-0.201554
-0.0111393
-0.00796205
-0.00745417
-0.000994074
-0.00280131
0.00863856
0.00396802
0.0186039
0.0124498
0.029634
0.0223834
0.0410011
0.033712
0.0522199
0.0463452
0.0623745
0.0601163
0.070338
0.0747101
0.0748174
0.08966
0.0745576
0.104348
0.0685336
0.118055
0.0562214
0.130075
0.0377396
0.139947
0.0132433
0.147577
-0.0176765
0.152863
-0.0541851
0.155425
-0.0918163
0.154948
-0.123394
0.151798
-0.143955
0.146981
-0.153368
0.141451
-0.154864
0.135749
-0.152386
0.130211
-0.14835
0.124446
-0.143538
0.116895
-0.139661
0.106944
-0.139244
0.0976484
-0.138374
0.0944295
-0.124072
0.10006
-0.0841721
0.112516
-0.0223832
0.127727
0.0460546
0.14236
0.104158
0.154347
0.144829
0.162218
0.17493
0.165351
0.205926
0.164252
0.242653
0.160557
0.260992
0.156473
0.234604
0.153569
0.148696
0.152632
0.0308336
0.152673
-0.0826982
0.153241
-0.164866
0.15301
-0.202456
0.149587
-0.217728
0.142064
-0.213241
0.134346
-0.224976
0.131852
-0.187666
0.136344
-0.129419
0.14423
-0.0178893
0.149176
0.104532
0.149075
0.197925
0.145237
0.308946
0.142425
0.270834
0.144322
0.244598
0.147347
0.0900132
0.148363
-0.051388
0.146762
-0.12977
0.144428
-0.347357
-0.199897
0.01354
-0.00974229
0.0162841
-0.00373826
0.0209698
0.00395293
0.0269589
0.0126148
0.0346416
0.0219513
0.0439669
0.0316758
0.0548116
0.0413752
0.0670046
0.0501814
0.0802737
0.0570689
0.0941864
0.0609047
0.108169
0.0605754
0.121556
0.0551465
0.133684
0.0440926
0.144033
0.0273907
0.152331
0.00494605
0.158436
-0.0237817
0.161934
-0.0576837
0.162259
-0.0921406
0.159323
-0.120459
0.153931
-0.138563
0.147391
-0.146828
0.14076
-0.148234
0.134438
-0.146064
0.128542
-0.142455
0.122903
-0.137899
0.116226
-0.132984
0.107172
-0.130189
0.097493
-0.128695
0.0924139
-0.118993
0.0960774
-0.0878356
0.107693
-0.0339986
0.123356
0.0303916
0.13923
0.0882829
0.152786
0.131273
0.162355
0.165361
0.167319
0.200962
0.167999
0.241973
0.165531
0.26346
0.161639
0.238496
0.15796
0.152375
0.15574
0.0330539
0.154252
-0.0812105
0.153352
-0.163966
0.152281
-0.201384
0.148812
-0.214259
0.141508
-0.205937
0.133779
-0.217247
0.131195
-0.185083
0.1357
-0.133924
0.143925
-0.0261136
0.149308
0.0991486
0.14973
0.197502
0.146054
0.312623
0.143121
0.273767
0.145155
0.242564
0.148491
0.0866776
0.149733
-0.0526305
0.148061
-0.128097
0.145592
-0.344889
-0.198271
0.0433663
-0.00968545
0.0444484
-0.00482039
0.047466
0.000935294
0.0519475
0.00813329
0.0582437
0.0156552
0.0662701
0.0236494
0.0759057
0.0317396
0.0869329
0.0391542
0.0989982
0.0450035
0.111611
0.0482915
0.124169
0.0480179
0.13602
0.0432958
0.146578
0.0335347
0.155389
0.0185792
0.162472
-0.00213713
0.167162
-0.0284716
0.168935
-0.0594566
0.167135
-0.0903403
0.161998
-0.115321
0.154739
-0.131304
0.146859
-0.138948
0.139423
-0.140797
0.132727
-0.139367
0.12666
-0.136388
0.121135
-0.132373
0.115325
-0.127174
0.107612
-0.122477
0.0983381
-0.119421
0.0918089
-0.112463
0.0931632
-0.08919
0.103206
-0.044041
0.118729
0.0148679
0.135445
0.0715668
0.150386
0.116332
0.161659
0.154088
0.168583
0.194039
0.171203
0.239352
0.170085
0.264579
0.166453
0.242128
0.162
0.156829
0.158524
0.0365298
0.155638
-0.0783238
0.153324
-0.161653
0.151405
-0.199465
0.147937
-0.210791
0.140938
-0.198938
0.133218
-0.209527
0.130477
-0.182342
0.134908
-0.138354
0.143486
-0.0346924
0.149407
0.0932278
0.150473
0.196436
0.147032
0.316063
0.14398
0.276819
0.146109
0.240435
0.149746
0.0830411
0.15122
-0.0541047
0.149475
-0.126352
0.146851
-0.342266
-0.196683
0.0777489
-0.00727795
0.0766526
-0.00372412
0.0772832
0.000304671
0.0795137
0.0059028
0.0835109
0.0116581
0.0893444
0.0178158
0.0969268
0.0241572
0.106021
0.0300604
0.116243
0.034781
0.12709
0.0374442
0.13796
0.0371481
0.148219
0.0330373
0.157316
0.0244374
0.1648
0.0110953
0.170541
-0.00787852
0.173792
-0.0317222
0.173734
-0.0593986
0.169879
-0.0864855
0.162848
-0.10829
0.15416
-0.122616
0.145361
-0.130149
0.137409
-0.132846
0.130528
-0.132487
0.12446
-0.13032
0.119056
-0.126969
0.11395
-0.122069
0.10773
-0.116256
0.0996061
-0.111298
0.09239
-0.105247
0.0914331
-0.0882331
0.0992877
-0.0518956
0.113946
0.000210039
0.130982
0.05453
0.147039
0.100276
0.159953
0.141174
0.168892
0.1851
0.173558
0.234686
0.173936
0.264201
0.170682
0.245381
0.165537
0.161974
0.160915
0.0411517
0.156757
-0.0741649
0.153111
-0.158008
0.150334
-0.196688
0.146902
-0.207359
0.140295
-0.192331
0.132604
-0.201836
0.129638
-0.179376
0.133911
-0.142628
0.142843
-0.0436237
0.149417
0.0866537
0.151263
0.19459
0.148162
0.319165
0.145007
0.279974
0.147183
0.238259
0.151098
0.0791259
0.152809
-0.0558162
0.150989
-0.124531
0.14819
-0.339467
-0.195144
0.112717
-0.00353211
0.110246
-0.00125275
0.108775
0.00177592
0.108941
0.00573656
0.110574
0.0100248
0.113917
0.0144729
0.118959
0.0191155
0.125532
0.0234872
0.133333
0.02698
0.141921
0.0288568
0.150733
0.0283353
0.159156
0.0246145
0.166618
0.0169759
0.172561
0.00515211
0.176683
-0.012001
0.178149
-0.033188
0.176086
-0.0573349
0.17031
-0.08071
0.161783
-0.0997628
0.152145
-0.112978
0.142839
-0.120843
0.134641
-0.124648
0.127716
-0.125561
0.121772
-0.124376
0.116543
-0.121741
0.111944
-0.11747
0.107082
-0.111393
0.1006
-0.104816
0.0936297
-0.0982773
0.0908258
-0.0854292
0.096134
-0.0572037
0.109145
-0.0128014
0.125886
0.037789
0.142681
0.0834812
0.157079
0.126776
0.168051
0.174129
0.174905
0.227832
0.17692
0.262186
0.174148
0.248153
0.168469
0.167652
0.162794
0.0468273
0.15752
-0.0688915
0.152651
-0.153138
0.149006
-0.193043
0.145634
-0.203987
0.139514
-0.186212
0.131888
-0.194209
0.128631
-0.176119
0.13265
-0.146647
0.141934
-0.0529077
0.149273
0.0793151
0.152054
0.191809
0.14942
0.321798
0.1462
0.283195
0.148369
0.23609
0.152532
0.074963
0.154484
-0.057768
0.152585
-0.122633
0.149592
-0.336473
-0.193669
0.141271
8.61529e-05
0.138186
0.00183269
0.136147
0.00381508
0.13531
0.00657335
0.135642
0.00969304
0.137266
0.0128487
0.140257
0.0161244
0.144533
0.0192113
0.149905
0.0216071
0.156056
0.0227063
0.162526
0.0218651
0.168764
0.0183765
0.174222
0.0115178
0.178339
0.00103567
0.180422
-0.014084
0.179768
-0.0325344
0.175673
-0.0532397
0.168283
-0.0733203
0.158751
-0.0902309
0.148641
-0.102868
0.139181
-0.111383
0.130959
-0.116426
0.124091
-0.118693
0.11835
-0.118634
0.113391
-0.116781
0.109174
-0.113253
0.10537
-0.10759
0.100666
-0.100111
0.0947846
-0.0923957
0.0909825
-0.0816271
0.0938073
-0.0600285
0.104528
-0.0235217
0.120275
0.022042
0.137326
0.0664296
0.15295
0.111152
0.165831
0.161248
0.174849
0.218814
0.178653
0.258382
0.176616
0.25019
0.170583
0.173685
0.164105
0.0533052
0.157867
-0.062654
0.151904
-0.147175
0.147388
-0.188527
0.144072
-0.200671
0.138545
-0.180685
0.131051
-0.186715
0.12744
-0.172508
0.131081
-0.150288
0.140697
-0.0625238
0.148909
0.0711036
0.15278
0.187938
0.150768
0.323811
0.147545
0.286418
0.14966
0.233974
0.154033
0.0705897
0.156225
-0.0599598
0.154246
-0.120654
0.151044
-0.333271
-0.19228
0.157701
0.00333893
0.155329
0.00420409
0.153601
0.00554372
0.152797
0.00737691
0.15293
0.00956047
0.153897
0.0118809
0.155886
0.0141362
0.158839
0.0162578
0.162592
0.017854
0.166877
0.0184216
0.171346
0.0173959
0.175539
0.0141835
0.178817
0.00824033
0.180878
-0.0010252
0.180977
-0.0141834
0.17834
-0.0298973
0.172609
-0.0475087
0.164195
-0.0649067
0.154276
-0.0803118
0.144186
-0.092778
0.134891
-0.102088
0.126829
-0.108364
0.120083
-0.111947
0.114532
-0.113083
0.109857
-0.112106
0.105927
-0.109323
0.102788
-0.10445
0.0996032
-0.0969269
0.0952933
-0.0880858
0.091434
-0.0777679
0.0921905
-0.060785
0.100318
-0.0316495
0.114321
0.00803899
0.131022
0.0497287
0.14756
0.0946146
0.162341
0.146466
0.173701
0.207454
0.179414
0.252669
0.17812
0.251484
0.171993
0.179812
0.164865
0.0604335
0.157891
-0.0556802
0.150978
-0.140262
0.1456
-0.183149
0.142276
-0.197346
0.1374
-0.175809
0.130132
-0.179448
0.126108
-0.168484
0.129214
-0.153394
0.139079
-0.0723884
0.148247
0.0619357
0.153382
0.182802
0.152166
0.325027
0.149016
0.289568
0.151038
0.231952
0.155586
0.0660419
0.158013
-0.062387
0.15595
-0.11859
0.152539
-0.32986
-0.191002
0.163133
0.005047
0.161481
0.00585636
0.160268
0.00675667
0.159755
0.00788983
0.160006
0.0093094
0.161
0.0108868
0.162668
0.0124686
0.164974
0.0139516
0.167805
0.0150233
0.170934
0.0152926
0.174048
0.0142818
0.176778
0.0114536
0.178734
0.00628388
0.179291
-0.00158184
0.177613
-0.0125059
0.173589
-0.0258732
0.167035
-0.0409547
0.158505
-0.0563762
0.149004
-0.0708107
0.139535
-0.0833093
0.130799
-0.0933523
0.123128
-0.100693
0.116602
-0.105421
0.111199
-0.10768
0.10673
-0.107638
0.102979
-0.105572
0.100114
-0.101585
0.0979107
-0.0947233
0.0951612
-0.0853363
0.0919639
-0.0745706
0.0913785
-0.0601996
0.0968198
-0.0370908
0.108456
-0.00359676
0.124016
0.0341683
0.140625
0.078006
0.156619
0.130473
0.170161
0.193912
0.178127
0.244703
0.178159
0.251452
0.172386
0.185585
0.165133
0.067686
0.157509
-0.0480558
0.149891
-0.132644
0.143762
-0.17702
0.140356
-0.19394
0.136114
-0.171568
0.129167
-0.172501
0.124681
-0.163998
0.127198
-0.155911
0.137146
-0.0823358
0.147275
0.0518068
0.153757
0.17632
0.153542
0.325242
0.150593
0.292516
0.152491
0.230054
0.157179
0.0613535
0.159817
-0.0650249
0.157689
-0.116462
0.154074
-0.326245
-0.189838
0.186059
0.00701876
-0.188031
0.18459
0.0073256
0.183376
0.00797044
0.182449
0.00881656
0.181934
0.00982474
0.181897
0.0109233
0.182389
0.0119773
0.183518
0.0128221
0.185344
0.0131978
0.187872
0.012764
0.191041
0.011113
0.194657
0.00783781
0.198322
0.00261864
0.201696
-0.00495547
0.204058
-0.0148683
0.204888
-0.026703
0.203737
-0.0398043
0.200567
-0.0532059
0.19568
-0.0659234
0.189519
-0.0771483
0.182533
-0.0863665
0.175116
-0.0932764
0.167562
-0.0978669
0.160103
-0.100221
0.152876
-0.10041
0.145798
-0.0984948
0.138951
-0.094738
0.132549
-0.0883212
0.125917
-0.0787042
0.118197
-0.0668507
0.1107
-0.0527027
0.106806
-0.0331967
0.108816
-0.00560668
0.114928
0.0280565
0.122558
0.0703755
0.129605
0.123426
0.135909
0.187608
0.142282
0.238329
0.150021
0.243713
0.159576
0.176031
0.167827
0.0594355
0.171625
-0.0518539
0.16955
-0.130569
0.163975
-0.171445
0.157858
-0.187823
0.150744
-0.164454
0.141643
-0.163401
0.134028
-0.156382
0.131175
-0.153058
0.133286
-0.0844474
0.13607
0.0490233
0.137083
0.175307
0.136249
0.326076
0.136282
0.292483
0.141507
0.224829
0.148576
0.0542844
0.151212
-0.0676604
0.148719
-0.113969
0.143063
-0.32059
-0.186345
0.198081
0.00799991
-0.199062
0.197304
0.00810287
0.196749
0.00852485
0.19646
0.00910549
0.196517
0.00976765
0.196994
0.0104468
0.197943
0.0110283
0.19941
0.0113552
0.201402
0.0112057
0.203873
0.010293
0.206696
0.00828991
0.209642
0.00489227
0.212463
-0.000203054
0.214709
-0.00720152
0.215903
-0.0160618
0.21566
-0.0264606
0.213735
-0.0378786
0.210116
-0.0495874
0.205014
-0.0608215
0.198766
-0.0709
0.191756
-0.0793562
0.184358
-0.0858792
0.176863
-0.0903713
0.169455
-0.0928138
0.162288
-0.0932431
0.155323
-0.09153
0.148506
-0.0879209
0.142121
-0.0819364
0.135992
-0.0725751
0.129154
-0.060012
0.121839
-0.045388
0.116812
-0.0281698
0.116866
-0.00566028
0.12195
0.0229725
0.12948
0.0628449
0.13732
0.115586
0.144859
0.180069
0.152794
0.230394
0.162316
0.234191
0.173026
0.16532
0.181781
0.0506806
0.185155
-0.0552278
0.182214
-0.127628
0.175448
-0.164679
0.168445
-0.18082
0.160937
-0.156946
0.151548
-0.154012
0.143293
-0.148128
0.13977
-0.149535
0.141732
-0.0864094
0.144866
0.0458891
0.146631
0.173542
0.146565
0.326141
0.146982
0.292066
0.152526
0.219285
0.159858
0.0469524
0.162545
-0.0703473
0.159442
-0.110866
0.152952
-0.3141
-0.182478