/*--------------------------------*- C++ -*----------------------------------*\
| =========                 |                                                 |
| \\      /  F ield         | OpenFOAM: The Open Source CFD Toolbox           |
|  \\    /   O peration     | Version:  2512                                  |
|   \\  /    A nd           | Website:  www.openfoam.com                      |
|    \\/     M anipulation  |                                                 |
\*---------------------------------------------------------------------------*/
FoamFile
{
    version     2.0;
    format      ascii;
    arch        "LSB;label=32;scalar=64";
    class       volVectorField;
    location    "45";
    object      U;
}
// * * * * * * * * * * * * * * * * * * * * * * * * * * * * * * * * * * * * * //

dimensions      [0 1 -1 0 0 0 0];

internalField   nonuniform List<vector> 
13248
(
(-0.0125374 0.0114892 6.04348e-20)
(-0.0246713 0.0250052 0)
(-0.0244728 0.0327642 -1.14162e-19)
(-0.0125945 0.0366545 1.07543e-19)
(0.0104835 0.0381741 1.00595e-19)
(0.0443948 0.0385013 0)
(0.0888163 0.0385406 0)
(0.143379 0.0389806 2.4203e-19)
(0.207548 0.0403236 -1.11107e-21)
(0.280501 0.042908 -2.11602e-19)
(0.361041 0.0469063 1.96845e-19)
(0.447565 0.0523263 -1.23086e-19)
(0.538081 0.0590188 0)
(0.630302 0.0666941 -2.14487e-19)
(0.721782 0.0749507 4.01959e-19)
(0.810069 0.0833114 -9.50902e-20)
(0.892875 0.0912724 -1.74914e-19)
(0.968221 0.0983236 1.64197e-19)
(1.03458 0.104096 0)
(1.09084 0.107987 0)
(1.13685 0.110525 0)
(1.17162 0.109238 0)
(1.19851 0.109934 5.44861e-20)
(1.21278 0.0981041 2.05019e-19)
(-0.0125459 0.0102205 -1.82569e-19)
(-0.0212225 0.0207158 1.24471e-19)
(-0.0143644 0.0259918 -1.15473e-21)
(0.00695053 0.0281563 -1.64406e-19)
(0.0420004 0.0288594 -1.00487e-19)
(0.090188 0.0293831 -9.50058e-20)
(0.150835 0.0306673 -1.74283e-19)
(0.223008 0.0333689 1.64867e-19)
(0.305354 0.0378892 0)
(0.395991 0.0443827 6.31796e-22)
(0.492496 0.0527607 1.3663e-21)
(0.592005 0.0627092 1.2327e-19)
(0.691389 0.0737264 0)
(0.787496 0.0851791 0)
(0.877406 0.0963729 1.48347e-19)
(0.958647 0.106627 -2.78657e-19)
(1.02938 0.115343 1.70463e-19)
(1.08848 0.122058 -1.60029e-19)
(1.13559 0.126488 -7.22413e-20)
(1.17113 0.1285 -1.3472e-19)
(1.1959 0.128276 -5.87833e-20)
(1.2118 0.125554 -1.11434e-19)
(1.21971 0.122523 1.59496e-19)
(1.22229 0.114312 4.72249e-20)
(-0.0117015 0.00860438 0)
(-0.0147062 0.0158166 0)
(0.00152574 0.0189068 5.81489e-20)
(0.035332 0.0200543 5.34918e-20)
(0.0855552 0.0209826 -1.39036e-21)
(0.151076 0.0230185 -9.82261e-20)
(0.23044 0.0270522 0)
(0.321621 0.0335781 -8.19634e-20)
(0.421892 0.0427188 7.7179e-20)
(0.527847 0.0542428 6.79145e-22)
(0.635592 0.0676041 -1.32317e-19)
(0.741069 0.0820172 -1.22158e-19)
(0.840433 0.0965614 1.41443e-21)
(0.930409 0.1103 -1.03564e-19)
(1.00856 0.122392 2.46423e-19)
(1.07347 0.132188 0)
(1.12472 0.139285 -1.65557e-19)
(1.16289 0.143535 7.97565e-20)
(1.18933 0.145066 7.21736e-20)
(1.20586 0.144114 0)
(1.21468 0.141317 6.11463e-20)
(1.21783 0.136585 -2.15917e-19)
(1.21699 0.132185 2.02689e-19)
(1.21528 0.123992 1.33538e-19)
(-0.00962694 0.00661068 -6.4758e-20)
(-0.00417589 0.0103948 -6.69928e-20)
(0.0245333 0.0118541 6.04517e-20)
(0.0740531 0.0130272 0)
(0.142475 0.015572 0)
(0.227689 0.0207261 -2.19932e-21)
(0.326871 0.0291464 0)
(0.436296 0.0409307 -2.5105e-19)
(0.551399 0.0556674 2.33471e-19)
(0.667103 0.0725151 -2.88573e-19)
(0.77832 0.0903363 6.6284e-20)
(0.880513 0.107873 0)
(0.970161 0.123932 1.12349e-19)
(1.04506 0.137544 -2.08978e-19)
(1.1044 0.148065 4.957e-20)
(1.14871 0.155222 1.3116e-19)
(1.17951 0.15909 -3.80123e-21)
(1.19905 0.160014 -1.47863e-19)
(1.20986 0.158518 0)
(1.21441 0.155178 0)
(1.21486 0.15064 -5.55518e-20)
(1.21284 0.145088 5.06487e-20)
(1.20958 0.140088 1.86866e-19)
(1.206 0.132384 -1.75401e-19)
(-0.00592444 0.00429578 -6.84835e-20)
(0.0113003 0.00474698 -6.80993e-20)
(0.055832 0.00545483 1.91491e-19)
(0.124163 0.00804553 -1.15929e-19)
(0.213161 0.0138923 1.09124e-19)
(0.319089 0.0239033 1.97949e-19)
(0.437095 0.0382054 -1.40005e-19)
(0.561277 0.0561844 -1.70785e-19)
(0.685174 0.0766378 2.99677e-21)
(0.802515 0.0979979 2.18744e-19)
(0.907995 0.118608 0)
(0.997879 0.136994 6.11746e-20)
(1.07029 0.15207 0)
(1.12517 0.16325 -1.01657e-19)
(1.16398 0.170442 1.43042e-19)
(1.18919 0.173963 1.20123e-21)
(1.20376 0.174403 -3.85965e-20)
(1.21067 0.172468 7.29712e-20)
(1.21249 0.16885 6.39287e-20)
(1.21123 0.164136 -5.8153e-20)
(1.20829 0.15881 5.5539e-20)
(1.20455 0.153033 -5.06367e-20)
(1.20039 0.147735 0)
(1.1966 0.140498 -3.97099e-20)
(-0.000207567 0.0018184 6.84737e-20)
(0.0325405 -0.000580171 7.19991e-20)
(0.096259 0.000651975 -6.41872e-20)
(0.185997 0.00638499 1.19514e-19)
(0.296771 0.0173788 -1.12493e-19)
(0.422517 0.0338461 1.0167e-19)
(0.555843 0.0549981 -4.88727e-20)
(0.688666 0.0792062 1.28234e-19)
(0.813268 0.104369 -8.08403e-20)
(0.923385 0.128337 1.44389e-19)
(1.01497 0.149295 -3.34374e-19)
(1.08645 0.166033 1.23492e-19)
(1.13853 0.178033 -1.09463e-19)
(1.17357 0.18541 1.02814e-19)
(1.19489 0.188739 9.04702e-20)
(1.20605 0.188841 8.06937e-20)
(1.2103 0.186579 -2.25082e-19)
(1.21025 0.182722 1.40169e-19)
(1.20778 0.177871 -6.39311e-20)
(1.20409 0.17245 1.69922e-19)
(1.1999 0.166738 -5.46827e-20)
(1.19554 0.160849 -1.37655e-19)
(1.1912 0.155286 1.27749e-19)
(1.18718 0.148409 3.96961e-20)
(0.00786763 -0.000560151 0)
(0.0601376 -0.00480195 6.66568e-22)
(0.14612 -0.00134315 1.34693e-19)
(0.258925 0.0094939 -1.26271e-19)
(0.391015 0.0273986 -1.13722e-19)
(0.533435 0.0514229 2.11421e-19)
(0.676239 0.079495 -9.8212e-20)
(0.809892 0.108853 1.31331e-19)
(0.926798 0.136697 -2.52231e-21)
(1.02232 0.160756 -7.48405e-20)
(1.09504 0.179621 1.64785e-19)
(1.1463 0.192826 -2.44168e-19)
(1.17933 0.200692 0)
(1.19822 0.204055 -4.88349e-20)
(1.20709 0.203966 -1.31804e-19)
(1.20945 0.201445 4.13539e-20)
(1.20797 0.197342 1.2765e-21)
(1.20446 0.192282 -9.46937e-20)
(1.20005 0.186683 4.44181e-21)
(1.19534 0.180805 1.1022e-19)
(1.19065 0.174802 -5.0258e-20)
(1.18609 0.168765 -1.99836e-20)
(1.18168 0.16291 5.98519e-20)
(1.17757 0.156273 0)
(0.0185625 -0.00248568 0)
(0.0943375 -0.00694824 3.65753e-20)
(0.205007 0.000822739 -1.76328e-19)
(0.34118 0.018771 6.40269e-20)
(0.492173 0.0449515 -6.02607e-20)
(0.646031 0.0767961 -5.52187e-20)
(0.790985 0.110781 -9.76854e-20)
(0.917542 0.143238 4.86419e-20)
(1.01997 0.171214 4.23534e-20)
(1.09665 0.192953 0)
(1.1494 0.20796 9.83219e-20)
(1.18222 0.216743 -1.47436e-19)
(1.20001 0.220405 1.09818e-19)
(1.20746 0.220249 4.88594e-20)
(1.20845 0.217485 -4.08171e-20)
(1.20579 0.213073 -3.47861e-20)
(1.20134 0.207692 -3.28295e-20)
(1.1962 0.201782 9.68137e-20)
(1.19094 0.195605 0)
(1.18583 0.189316 5.02893e-20)
(1.18097 0.183004 4.35339e-20)
(1.17636 0.176733 -1.06699e-19)
(1.17195 0.170545 -7.52192e-20)
(1.16778 0.164052 6.93782e-20)
(0.0320075 -0.00353179 -3.98621e-20)
(0.134923 -0.00595257 -1.66185e-21)
(0.271674 0.00846838 3.59503e-20)
(0.429874 0.0353125 1.00628e-19)
(0.595476 0.0704228 2.93509e-20)
(0.754143 0.109336 -5.67368e-20)
(0.893792 0.14728 5.17257e-20)
(1.00683 0.180282 -4.54353e-20)
(1.09085 0.205956 8.19857e-20)
(1.14782 0.223617 3.51749e-20)
(1.18246 0.233902 -9.99558e-20)
(1.20049 0.238201 2.95969e-20)
(1.20733 0.238119 5.10731e-20)
(1.20737 0.23511 -2.50449e-20)
(1.20373 0.230301 0)
(1.19838 0.224467 3.81812e-20)
(1.19246 0.218095 6.54565e-20)
(1.18657 0.211469 1.18238e-20)
(1.18094 0.204747 -5.51212e-20)
(1.17568 0.198017 2.34019e-20)
(1.17076 0.191336 0)
(1.16615 0.184734 -1.88545e-20)
(1.16177 0.178187 -1.82268e-20)
(1.15756 0.171711 0)
(0.0481495 -0.00323009 0)
(0.181125 -0.00076298 2.09329e-20)
(0.344022 0.022692 3.86968e-20)
(0.521232 0.059709 -1.02942e-19)
(0.695767 0.103492 3.33551e-20)
(0.852313 0.147783 0)
(0.980419 0.187179 5.03266e-20)
(1.076 0.218221 -7.03571e-20)
(1.14064 0.239731 -4.10525e-20)
(1.17957 0.252354 1.85607e-20)
(1.19944 0.257771 -3.01813e-20)
(1.2066 0.257962 7.30297e-20)
(1.20615 0.254717 3.69357e-20)
(1.20169 0.249408 -2.5477e-20)
(1.19547 0.242962 -2.18454e-21)
(1.18874 0.235949 -7.1378e-20)
(1.18213 0.228691 3.26258e-20)
(1.1759 0.221361 -8.87181e-22)
(1.17015 0.214051 0)
(1.16486 0.206817 -2.34264e-20)
(1.15997 0.199691 0)
(1.15541 0.192673 5.44459e-20)
(1.15108 0.185751 -6.5314e-20)
(1.14688 0.179166 2.99681e-20)
(0.0667065 -0.00110779 -1.10275e-20)
(0.231588 0.00954531 -5.28771e-20)
(0.419214 0.0442192 6.02706e-20)
(0.611011 0.0919457 3.53647e-20)
(0.788232 0.143217 -1.68344e-20)
(0.936535 0.190544 2.84791e-20)
(1.04891 0.228809 -1.37786e-20)
(1.12567 0.255843 2.30563e-20)
(1.17217 0.272038 0)
(1.19603 0.279322 5.27019e-20)
(1.20474 0.280133 -2.07821e-21)
(1.20443 0.276722 -4.27309e-20)
(1.1994 0.270816 1.83928e-20)
(1.19236 0.263581 -2.09041e-20)
(1.18478 0.255719 -8.06889e-21)
(1.17738 0.247616 9.23209e-21)
(1.17048 0.239476 -7.19186e-21)
(1.16416 0.2314 -3.95598e-20)
(1.15841 0.223444 2.4258e-20)
(1.15319 0.215641 5.02167e-21)
(1.1484 0.208004 4.46859e-21)
(1.14394 0.200513 3.98208e-21)
(1.13972 0.193215 0)
(1.13556 0.186381 0)
(0.087213 0.00328005 1.10351e-20)
(0.284545 0.025681 -1.10079e-20)
(0.494077 0.0733021 -2.01068e-20)
(0.695155 0.131406 0)
(0.869092 0.188217 -8.38511e-21)
(1.00454 0.235994 -7.60625e-21)
(1.09916 0.270861 -1.3025e-20)
(1.15771 0.292471 0)
(1.18856 0.302828 0)
(1.20062 0.304888 0)
(1.20138 0.301517 0)
(1.1962 0.294964 0)
(1.18846 0.286753 -1.1563e-20)
(1.18003 0.277802 5.26973e-21)
(1.17182 0.268606 9.22832e-21)
(1.16419 0.259416 4.33405e-21)
(1.15725 0.250351 1.07828e-20)
(1.151 0.241468 0)
(1.14539 0.232799 -2.63353e-21)
(1.14033 0.224364 -2.55717e-21)
(1.13574 0.216155 -4.47572e-21)
(1.13148 0.208152 -3.98846e-21)
(1.12743 0.200478 0)
(1.12342 0.193257 2.94049e-21)
(-0.00131967 0.00863089 6.51764e-21)
(-0.00591303 0.0215674 -6.76221e-21)
(-0.0139012 0.031292 -1.28027e-20)
(-0.0236423 0.0384495 0)
(-0.0342085 0.0435813 -1.71216e-20)
(-0.0451094 0.0471763 5.36737e-21)
(-0.0559964 0.0496646 -1.01598e-20)
(-0.0666231 0.0514012 0)
(-0.0768298 0.0526561 0)
(-0.0865172 0.0536141 0)
(-0.0956253 0.0543819 0)
(-0.104119 0.0550014 0)
(-0.111975 0.0554648 -2.12127e-23)
(-0.11918 0.0557297 -6.65887e-21)
(-0.125721 0.0557318 1.26067e-20)
(-0.131587 0.0553948 1.77692e-20)
(-0.13677 0.0546377 5.62676e-21)
(-0.141267 0.0533811 0)
(-0.14509 0.0515523 4.90057e-21)
(-0.148273 0.0490903 -1.39024e-20)
(-0.150878 0.0459485 -8.74908e-21)
(-0.153009 0.042089 -8.22849e-21)
(-0.154857 0.0374698 0)
(-0.156707 0.0320649 0)
(-0.00202458 0.0115832 -1.96241e-20)
(-0.00731913 0.0286663 3.38188e-20)
(-0.0152722 0.041228 -1.28098e-20)
(-0.0245433 0.0502581 -2.42608e-20)
(-0.0343703 0.0565371 3.42538e-20)
(-0.0443507 0.0607321 -2.16005e-20)
(-0.0541946 0.063415 3.04736e-20)
(-0.0636937 0.0650515 1.92397e-20)
(-0.07271 0.0659959 0)
(-0.0811553 0.0664955 -1.70312e-20)
(-0.0889742 0.0667013 -8.7147e-23)
(-0.0961317 0.0666847 1.50336e-20)
(-0.102605 0.0664559 2.14168e-20)
(-0.108379 0.0659821 2.69069e-20)
(-0.113438 0.0652039 -1.25118e-20)
(-0.11777 0.0640483 -3.56585e-20)
(-0.121358 0.0624402 1.13443e-20)
(-0.124189 0.0603131 -4.24442e-20)
(-0.126255 0.0576192 0)
(-0.127562 0.0543408 9.28928e-21)
(-0.128143 0.0504969 8.73709e-21)
(-0.128059 0.0461455 8.21708e-21)
(-0.127429 0.0413993 0)
(-0.126563 0.0364547 0)
(-0.0029948 0.0139408 0)
(-0.00929011 0.0344646 6.83688e-20)
(-0.0172568 0.0494891 -2.57751e-20)
(-0.0259244 0.0602171 2.43308e-20)
(-0.0347356 0.0675893 -6.90359e-20)
(-0.0433993 0.072402 0)
(-0.0517023 0.075335 -4.09479e-20)
(-0.0594879 0.0769439 1.92925e-20)
(-0.0666496 0.0776558 -3.64619e-20)
(-0.0731158 0.077776 1.72944e-20)
(-0.078838 0.0774999 9.71216e-20)
(-0.0837824 0.0769313 -4.56354e-20)
(-0.087924 0.0761026 -7.18479e-20)
(-0.0912423 0.0749941 -2.74148e-20)
(-0.0937176 0.0735524 -2.24984e-22)
(-0.0953289 0.0717053 9.63921e-20)
(-0.0960512 0.0693759 -4.53611e-20)
(-0.0958542 0.0664963 -2.97926e-22)
(-0.094703 0.0630239 0)
(-0.0925662 0.0589613 -3.85353e-20)
(-0.0894302 0.0543803 0)
(-0.0852762 0.0494475 -3.39315e-20)
(-0.0800103 0.0444609 1.28656e-19)
(-0.0739712 0.0399231 5.0092e-22)
(-0.00412493 0.0156011 0)
(-0.0116324 0.0387019 2.59505e-22)
(-0.019674 0.0556926 2.61312e-20)
(-0.0276609 0.0678487 -2.46783e-20)
(-0.0352516 0.0761887 2.29978e-20)
(-0.0422763 0.0815848 1.31095e-19)
(-0.0486093 0.0847886 -4.11023e-20)
(-0.0541555 0.0864203 -3.88895e-20)
(-0.0588471 0.086965 7.30868e-20)
(-0.0626341 0.0867775 -1.03368e-19)
(-0.0654769 0.0860954 3.24841e-20)
(-0.067342 0.0850566 3.07253e-20)
(-0.0681989 0.083719 0)
(-0.0680182 0.0820808 2.71694e-20)
(-0.0667696 0.0800981 0)
(-0.0644199 0.0777004 4.88198e-20)
(-0.0609309 0.0748043 -9.21922e-20)
(-0.0562562 0.0713274 2.09935e-20)
(-0.0503377 0.0672064 8.18016e-20)
(-0.0431072 0.062421 3.84969e-20)
(-0.0345064 0.0570297 0)
(-0.024495 0.0512295 -1.03969e-19)
(-0.0128097 0.0455403 3.23359e-20)
(0.00106187 0.0412123 0)
(-0.005309 0.0165445 0)
(-0.0141449 0.0412787 -8.32909e-20)
(-0.0223307 0.0596354 -2.63949e-20)
(-0.029614 0.0728435 -4.94965e-20)
(-0.0358525 0.0819288 4.6606e-20)
(-0.0409946 0.0877922 -4.37773e-20)
(-0.0450048 0.0912215 8.28286e-20)
(-0.0478547 0.0928759 3.90181e-20)
(-0.0495204 0.0932796 -1.10021e-19)
(-0.0499769 0.092826 6.93578e-20)
(-0.0491949 0.0917885 -9.78898e-20)
(-0.0471394 0.0903372 2.15877e-19)
(-0.0437704 0.088558 -1.15957e-19)
(-0.039043 0.0864713 5.49523e-20)
(-0.0329079 0.0840496 1.55861e-19)
(-0.0253121 0.0812313 -4.81359e-20)
(-0.0161978 0.0779336 -4.57271e-20)
(-0.00550126 0.0740631 -4.33532e-20)
(0.00684965 0.0695315 0)
(0.0209311 0.0642701 -7.87398e-20)
(0.0367989 0.0582568 -7.51145e-20)
(0.054531 0.0516258 1.04647e-19)
(0.0747884 0.0450696 1.32875e-19)
(0.0986315 0.0403931 -1.25431e-19)
(-0.00646185 0.0168317 0)
(-0.0166529 0.0422576 -1.1256e-19)
(-0.0250444 0.0613048 -2.52013e-22)
(-0.0316322 0.0750833 9.97347e-20)
(-0.0364355 0.0845802 0)
(-0.0395077 0.0906911 0)
(-0.040899 0.0942112 0)
(-0.040647 0.0958146 -3.91539e-20)
(-0.0387727 0.0960458 -1.38603e-22)
(-0.0352772 0.095322 6.94254e-20)
(-0.0301404 0.0939429 -9.83775e-20)
(-0.0233229 0.0921053 -1.54466e-22)
(-0.0147695 0.0899213 0)
(-0.00441171 0.0874358 -5.4928e-20)
(0.00782819 0.0846431 5.24062e-20)
(0.0220342 0.0815007 -1.47059e-19)
(0.0382929 0.0779401 1.86133e-19)
(0.0566957 0.0738739 4.51552e-20)
(0.0773298 0.0692148 1.42051e-21)
(0.100269 0.0638714 -1.56955e-19)
(0.125557 0.0577753 -7.4619e-20)
(0.153231 0.0509227 2.47556e-19)
(0.183436 0.0438238 -1.66512e-19)
(0.221499 0.0387254 0)
(-0.00753591 0.0165907 5.53293e-20)
(-0.0190307 0.0418405 5.64128e-20)
(-0.0276512 0.0608684 -5.36453e-20)
(-0.0335331 0.07465 -1.00485e-19)
(-0.0368094 0.0841202 9.46137e-20)
(-0.0376201 0.090154 -8.89041e-20)
(-0.0360893 0.0935361 1.2554e-19)
(-0.0323135 0.0949373 -3.91581e-20)
(-0.0263532 0.0949052 7.39719e-20)
(-0.0182299 0.0938667 0)
(-0.0079268 0.0921358 6.58544e-20)
(0.00460663 0.0899282 -1.23462e-19)
(0.0194487 0.0873776 1.1689e-19)
(0.0366987 0.084552 -1.09787e-19)
(0.0564703 0.0814692 0)
(0.0788828 0.0781108 9.81488e-20)
(0.104046 0.07443 1.86438e-19)
(0.132066 0.0703723 -1.7511e-19)
(0.163034 0.0658681 -8.30161e-20)
(0.197004 0.0608495 -7.96507e-20)
(0.23389 0.0552475 2.23089e-19)
(0.274085 0.0490512 7.10126e-20)
(0.314776 0.0421287 -6.61624e-20)
(0.371805 0.0377137 6.23265e-20)
(-0.00852776 0.015984 -5.53369e-20)
(-0.021207 0.0403256 1.71987e-19)
(-0.0299864 0.0586375 -5.42089e-20)
(-0.0350549 0.0718072 1.01234e-19)
(-0.0366104 0.0807409 -9.53181e-20)
(-0.0348554 0.0862981 3.08213e-22)
(-0.029972 0.0892471 4.21524e-20)
(-0.0220991 0.0902449 1.57941e-19)
(-0.0113214 0.0898312 -1.00548e-23)
(0.00233445 0.088431 -6.9698e-20)
(0.0188954 0.0863641 0)
(0.0384345 0.0838578 -6.19211e-20)
(0.0610598 0.0810628 1.16215e-19)
(0.0868995 0.078068 1.10062e-19)
(0.11609 0.0749161 -5.16744e-20)
(0.148759 0.071614 -2.26985e-22)
(0.185012 0.0681474 -4.63558e-20)
(0.224898 0.0644868 8.71925e-20)
(0.268393 0.0605866 8.30006e-20)
(0.315479 0.0564365 -7.85532e-20)
(0.36549 0.0518938 7.37107e-20)
(0.420415 0.0474573 -6.95311e-20)
(0.470468 0.04149 0)
(0.549158 0.0394183 -6.22505e-20)
(-0.00945864 0.01518 5.62418e-20)
(-0.0231284 0.0380405 -5.75682e-20)
(-0.031843 0.054997 5.46737e-20)
(-0.0357853 0.066953 0)
(-0.0351887 0.0748352 0)
(-0.0302971 0.0795066 9.02513e-20)
(-0.0213254 0.0817264 -8.44586e-20)
(-0.00842933 0.0821379 7.90351e-20)
(0.008309 0.0812687 -3.71212e-19)
(0.0288786 0.0795391 7.32693e-23)
(0.0533311 0.07727 6.54417e-20)
(0.0817629 0.0746977 0)
(0.114295 0.0719879 -1.16209e-19)
(0.151046 0.069249 2.18702e-19)
(0.192105 0.066543 -1.5457e-19)
(0.2375 0.0638963 -2.44043e-19)
(0.287179 0.0613116 -1.16904e-21)
(0.340978 0.0587716 1.72393e-19)
(0.398561 0.0562388 0)
(0.459739 0.0538 0)
(0.52259 0.0509735 -7.37057e-20)
(0.591691 0.049326 6.95248e-20)
(0.648255 0.0448768 -2.60467e-19)
(0.744234 0.0465557 2.4434e-19)
(-0.0103623 0.0143087 0)
(-0.024712 0.0352606 0)
(-0.0328889 0.0503304 -1.64413e-19)
(-0.0350645 0.0605596 5.22933e-20)
(-0.0314961 0.0669556 4.88916e-22)
(-0.0224484 0.070417 9.12362e-20)
(-0.00814157 0.0717111 0)
(0.0112812 0.071477 -7.94367e-20)
(0.0357649 0.0702347 7.42875e-20)
(0.0653214 0.0684045 -1.39278e-19)
(0.100008 0.0663095 5.73105e-23)
(0.139894 0.0641926 1.22974e-19)
(0.185018 0.0622272 2.03274e-22)
(0.235343 0.0605265 1.09287e-19)
(0.290722 0.0591526 -1.53581e-19)
(0.35086 0.0581242 0)
(0.415289 0.057423 1.82794e-19)
(0.483371 0.0570066 -2.58039e-19)
(0.554206 0.056766 8.05179e-20)
(0.62721 0.0568423 0)
(0.699396 0.0563556 7.13698e-20)
(0.776349 0.0576626 2.72271e-19)
(0.835374 0.0549202 -2.55518e-19)
(0.934202 0.0601968 -3.00177e-19)
(-0.0112393 0.013429 1.72436e-19)
(-0.0257717 0.0321561 -2.37024e-19)
(-0.0325905 0.0449525 5.65017e-22)
(-0.031912 0.053106 5.26633e-20)
(-0.0240239 0.0577621 -9.79601e-20)
(-0.00919796 0.0598896 -9.08179e-20)
(0.0123617 0.0602864 1.69829e-19)
(0.0405319 0.0596007 -1.1835e-21)
(0.0752646 0.0583639 -1.49345e-19)
(0.116546 0.0569941 2.78851e-19)
(0.164327 0.0558089 -2.23101e-22)
(0.218475 0.0550422 -1.22737e-19)
(0.278714 0.0548472 0)
(0.344571 0.0553015 0)
(0.415348 0.0564113 -5.11037e-20)
(0.490111 0.0581171 -9.53976e-20)
(0.567705 0.0603027 -1.80717e-19)
(0.646792 0.0628036 1.69633e-19)
(0.725871 0.0654078 -8.055e-20)
(0.803633 0.0680163 1.50324e-19)
(0.877497 0.0699434 -7.13649e-20)
(0.950405 0.0726786 1.32712e-19)
(1.00627 0.071447 -3.09792e-19)
(1.08798 0.0772926 5.89672e-20)
(-0.0120165 0.0125163 5.81694e-20)
(-0.0259446 0.0287614 0)
(-0.0301479 0.0390684 1.12438e-19)
(-0.0249923 0.0450318 -1.05921e-19)
(-0.0108266 0.0479717 9.80508e-20)
(0.0120635 0.0489536 0)
(0.0434709 0.048825 0)
(0.0832485 0.0482622 -7.97684e-20)
(0.131238 0.0477946 8.8448e-22)
(0.187198 0.0478183 7.03717e-20)
(0.250721 0.0486225 -6.52691e-20)
(0.321146 0.0503801 1.22778e-19)
(0.397515 0.0531517 0)
(0.47856 0.0568904 2.15631e-19)
(0.562728 0.0614492 -4.04857e-19)
(0.64824 0.0665936 2.85473e-19)
(0.733185 0.0720255 1.78153e-19)
(0.815609 0.0773803 -1.67231e-19)
(0.893687 0.0823592 0)
(0.965653 0.0864188 0)
(1.03031 0.0896845 0)
(1.08696 0.091135 0)
(1.1319 0.0912647 6.10009e-20)
(1.18183 0.0919162 -2.24502e-19)
(-0.159084 0.0248574 -5.05168e-21)
(-0.163361 0.0137331 5.08095e-21)
(-0.167254 5.5913e-05 -1.57823e-22)
(-0.170962 -0.0161542 0)
(-0.174497 -0.0348618 -4.62171e-21)
(-0.177763 -0.0559501 8.95515e-21)
(-0.180697 -0.0791371 -4.31472e-23)
(-0.183231 -0.103987 -4.17513e-21)
(-0.185303 -0.129858 0)
(-0.186857 -0.155889 0)
(-0.187842 -0.180992 -2.30093e-22)
(-0.18818 -0.203862 -2.17679e-22)
(-0.187744 -0.222978 -3.45942e-21)
(-0.186336 -0.236601 3.16248e-21)
(-0.183647 -0.242879 0)
(-0.179202 -0.239958 0)
(-0.172375 -0.226132 2.82265e-21)
(-0.162467 -0.199899 2.38939e-23)
(-0.148823 -0.160337 -2.53063e-21)
(-0.130906 -0.107465 -1.54193e-22)
(-0.108848 -0.0429721 0)
(-0.0836625 0.0307615 0)
(-0.0565448 0.10907 0)
(-0.0296473 0.18606 0)
(-0.00633702 0.256388 0)
(0.0102012 0.315468 0)
(0.0181963 0.360259 4.80954e-22)
(0.0199353 0.387662 -7.77402e-22)
(0.0232465 0.392111 0)
(0.0401027 0.365166 0)
(0.0801231 0.301029 -4.8074e-22)
(0.144097 0.20285 4.67194e-22)
(0.224132 0.0848359 2.44711e-22)
(0.309468 -0.0327771 0)
(0.390426 -0.131947 0)
(0.459044 -0.201117 1.91242e-22)
(0.510923 -0.238598 -1.85889e-22)
(0.543456 -0.249262 0)
(0.554381 -0.242571 9.93816e-24)
(0.542911 -0.22656 -4.28269e-24)
(0.518378 -0.20324 -1.64538e-23)
(0.50109 -0.167662 0)
(0.50786 -0.117971 3.53073e-23)
(0.541439 -0.0599624 -3.4332e-23)
(0.589132 -0.00489651 0)
(0.639435 0.0386603 0)
(0.68074 0.0672014 1.83396e-23)
(0.712331 0.0819285 -5.57063e-23)
(0.730115 0.0857141 0)
(0.742661 0.0812726 0)
(0.748326 0.0705722 1.48417e-23)
(0.760165 0.0550125 -6.73656e-25)
(0.770629 0.0366256 1.83746e-24)
(0.791229 0.0183955 -7.75133e-24)
(0.805327 0.00165072 0)
(0.827828 -0.00908235 0)
(0.8365 -0.0184996 0)
(0.857582 -0.0171195 0)
(0.859904 -0.0203664 0)
(0.883737 -0.0082564 0)
(-0.126004 0.0304051 -5.12527e-22)
(-0.129799 0.0190673 -2.12825e-20)
(-0.133057 0.00520304 1.29906e-22)
(-0.136219 -0.0112787 1.98369e-20)
(-0.139342 -0.0303267 3.1291e-22)
(-0.142393 -0.0518551 0)
(-0.145369 -0.0755159 -1.78457e-20)
(-0.148298 -0.100895 3.49942e-20)
(-0.151207 -0.127332 -1.71438e-20)
(-0.154157 -0.15394 1.56589e-20)
(-0.157226 -0.179623 -1.49902e-20)
(-0.160457 -0.203097 1.36288e-20)
(-0.163821 -0.222857 -1.32605e-20)
(-0.167241 -0.237213 -3.83067e-22)
(-0.170548 -0.244415 -1.1391e-20)
(-0.173357 -0.242755 1.10702e-20)
(-0.174987 -0.230647 -1.02194e-20)
(-0.1745 -0.206619 9.64217e-21)
(-0.170851 -0.169657 -9.60519e-21)
(-0.162996 -0.11956 1.84576e-20)
(-0.150317 -0.0574371 -8.86552e-21)
(-0.133234 0.014355 -4.80084e-22)
(-0.11266 0.0920137 -7.76978e-21)
(-0.0901203 0.170043 1.4647e-20)
(-0.0680766 0.243159 -6.89622e-21)
(-0.0485204 0.306068 3.4661e-22)
(-0.0314186 0.353869 5.20745e-21)
(-0.0130026 0.381246 -1.09602e-22)
(0.0139515 0.381093 -8.9887e-21)
(0.0574538 0.345785 8.85401e-21)
(0.121061 0.272817 -4.37358e-21)
(0.200985 0.16831 6.01455e-22)
(0.289631 0.0478555 -2.45196e-22)
(0.37827 -0.0692664 4.92169e-22)
(0.45869 -0.164212 0)
(0.523944 -0.226614 0)
(0.571185 -0.256306 -5.04633e-22)
(0.600304 -0.258931 4.02149e-22)
(0.611718 -0.243919 -1.22473e-24)
(0.602977 -0.220652 -1.35553e-22)
(0.576455 -0.194594 1.18862e-22)
(0.546235 -0.162784 -5.42009e-23)
(0.531383 -0.120975 0)
(0.542561 -0.0700076 0)
(0.573606 -0.0182759 0)
(0.614322 0.0258198 0)
(0.651543 0.0569526 -8.46111e-23)
(0.682894 0.0749308 3.79072e-23)
(0.703032 0.0812951 0)
(0.720639 0.0782815 0)
(0.733173 0.0676434 0)
(0.753174 0.0514678 2.082e-23)
(0.77097 0.0323276 -5.62279e-24)
(0.797381 0.0139284 1.79278e-23)
(0.814879 -0.00257246 0)
(0.838525 -0.0124985 0)
(0.847028 -0.021355 -8.25676e-24)
(0.865612 -0.0193367 -2.03293e-23)
(0.866524 -0.0224784 0)
(0.885624 -0.0103617 0)
(-0.0693373 0.0356207 7.86803e-22)
(-0.0720271 0.0244078 -4.42881e-20)
(-0.073749 0.0107026 4.41963e-20)
(-0.0755462 -0.00574479 -4.13117e-20)
(-0.0774819 -0.02482 -3.15041e-22)
(-0.0795129 -0.0465589 0)
(-0.0817063 -0.0703514 -3.85238e-20)
(-0.0842458 -0.0959433 3.77529e-20)
(-0.0872247 -0.122661 2.6866e-22)
(-0.0908211 -0.149598 5.26232e-22)
(-0.0952566 -0.175635 4.91659e-22)
(-0.100673 -0.199493 4.47669e-22)
(-0.107093 -0.219656 -2.59368e-20)
(-0.114533 -0.234483 2.55922e-20)
(-0.122976 -0.242308 0)
(-0.132177 -0.241575 6.19199e-22)
(-0.141488 -0.231001 -1.83734e-20)
(-0.149865 -0.209116 1.81449e-20)
(-0.156035 -0.174889 0)
(-0.158527 -0.127914 0)
(-0.156023 -0.0689082 -1.48956e-20)
(-0.147992 0.000111992 2.86814e-20)
(-0.134617 0.0760262 -2.62582e-20)
(-0.116507 0.153569 8.94305e-22)
(-0.0949983 0.227759 2.23962e-20)
(-0.0709972 0.291961 -2.13385e-20)
(-0.0432222 0.339885 1.90382e-20)
(-0.00793284 0.365129 -4.93915e-22)
(0.0399523 0.359979 -9.20941e-21)
(0.103978 0.318227 0)
(0.183141 0.239821 0)
(0.272228 0.132412 3.78389e-21)
(0.364756 0.0115267 -4.92215e-21)
(0.453496 -0.103628 5.42835e-23)
(0.530896 -0.193664 2.83444e-21)
(0.590571 -0.249222 -2.75441e-21)
(0.631172 -0.271715 0)
(0.65443 -0.267785 8.87145e-23)
(0.663708 -0.246346 6.6789e-23)
(0.657938 -0.216371 2.52149e-22)
(0.635108 -0.18554 -2.48066e-22)
(0.60107 -0.154069 -7.13736e-23)
(0.571782 -0.117905 6.31364e-22)
(0.562542 -0.074161 -4.8293e-22)
(0.574953 -0.0274482 -1.17404e-22)
(0.602756 0.0152589 -1.04698e-22)
(0.633213 0.0475128 8.48272e-23)
(0.66289 0.0677038 0)
(0.685299 0.0758553 0)
(0.708472 0.0736976 2.59087e-22)
(0.728413 0.0628466 -1.22823e-22)
(0.75627 0.0461506 9.1991e-23)
(0.780528 0.0266586 -1.14623e-22)
(0.811198 0.00860276 -1.19579e-22)
(0.830834 -0.00713986 3.09139e-23)
(0.854348 -0.0159166 -4.36863e-23)
(0.862219 -0.02389 3.55343e-23)
(0.877717 -0.0211409 -1.50495e-23)
(0.877353 -0.023992 0)
(0.89124 -0.0120008 0)
(0.0104321 0.0378891 -9.44732e-20)
(0.00916292 0.0283032 2.8684e-23)
(0.0096612 0.015128 8.96293e-20)
(0.00993956 -0.000923148 -6.81299e-22)
(0.0098292 -0.019587 0)
(0.00958867 -0.0407339 0)
(0.0090808 -0.0641865 -8.08419e-20)
(0.00770961 -0.0895766 9.0076e-22)
(0.00543134 -0.116182 1.11054e-19)
(0.00195105 -0.143092 -1.82334e-21)
(-0.00312141 -0.169174 -3.33835e-20)
(-0.0100314 -0.193071 -2.77942e-20)
(-0.0188231 -0.213248 2.79159e-20)
(-0.0295452 -0.228195 0)
(-0.0422973 -0.236341 -2.08236e-20)
(-0.0570459 -0.236095 1.90211e-20)
(-0.0730617 -0.226907 0)
(-0.0891375 -0.207055 0)
(-0.103974 -0.175611 1.34535e-20)
(-0.11587 -0.132051 -6.77231e-22)
(-0.122982 -0.0767616 -1.16275e-20)
(-0.123824 -0.0113853 -1.12986e-20)
(-0.1177 0.0614392 1.1169e-20)
(-0.10396 0.136727 -1.01397e-20)
(-0.0829761 0.210213 4.62585e-22)
(-0.054927 0.272857 9.1092e-21)
(-0.0177734 0.318885 1.12293e-21)
(0.0313724 0.341213 1.57303e-23)
(0.0947139 0.331861 0)
(0.172089 0.286211 1.10874e-20)
(0.259961 0.205492 -1.14999e-20)
(0.353323 0.0975464 6.82817e-22)
(0.446747 -0.022861 0)
(0.533383 -0.134899 -5.5266e-22)
(0.605486 -0.219618 6.19782e-21)
(0.657598 -0.268459 -9.50995e-21)
(0.69013 -0.284325 1.21662e-21)
(0.706162 -0.274997 1.27109e-21)
(0.710911 -0.249066 9.65193e-22)
(0.705967 -0.214113 -3.59342e-23)
(0.688617 -0.178202 9.42589e-22)
(0.657877 -0.144412 -7.89602e-22)
(0.623067 -0.110835 1.46227e-23)
(0.599296 -0.0729851 -5.41626e-22)
(0.594445 -0.0319904 6.44369e-22)
(0.6079 0.00764506 7.71564e-22)
(0.629664 0.0393704 -2.10092e-22)
(0.656257 0.0604418 -3.34032e-22)
(0.680359 0.0693993 6.13868e-22)
(0.708637 0.0675108 -4.14301e-22)
(0.7353 0.0563052 9.45308e-23)
(0.769489 0.0393434 -1.24915e-22)
(0.798412 0.0199978 -8.32668e-23)
(0.831257 0.00278523 1.71726e-22)
(0.85153 -0.0117651 -2.3885e-24)
(0.873668 -0.0191588 4.06545e-23)
(0.880492 -0.0260215 0)
(0.892631 -0.0225121 1.65395e-23)
(0.891226 -0.0249142 -2.27467e-23)
(0.899962 -0.0131549 0)
(0.111973 0.0374571 9.76735e-20)
(0.113796 0.0298249 -1.91737e-19)
(0.115606 0.0174749 9.29593e-20)
(0.118383 0.00212399 9.23043e-20)
(0.120962 -0.0156617 -1.80374e-19)
(0.123018 -0.0357584 1.05047e-21)
(0.124412 -0.0584298 8.52762e-20)
(0.124818 -0.0830799 7.97057e-20)
(0.123905 -0.108999 -7.80577e-20)
(0.121229 -0.135291 0)
(0.116279 -0.160791 -6.4564e-20)
(0.108683 -0.184035 1.21357e-19)
(0.0982386 -0.203566 -5.69503e-20)
(0.0848782 -0.218031 0)
(0.0686708 -0.226128 0)
(0.0490201 -0.226745 5.95813e-22)
(0.0268795 -0.218652 -2.99371e-20)
(0.00407984 -0.200646 2.90841e-20)
(-0.0182166 -0.171932 0)
(-0.0381408 -0.131922 2.03571e-20)
(-0.0536232 -0.0807327 -3.71286e-20)
(-0.0624692 -0.0196167 3.40753e-20)
(-0.0632074 0.0485767 -3.26618e-20)
(-0.0536807 0.120232 -6.6789e-23)
(-0.0342291 0.18944 3.10774e-20)
(-0.00419888 0.249054 -1.55996e-20)
(0.0395355 0.292653 -5.41515e-22)
(0.0978327 0.311987 -9.11516e-21)
(0.170452 0.299708 -1.42574e-21)
(0.254777 0.252568 1.05213e-20)
(0.346257 0.172013 7.3741e-22)
(0.440653 0.0650731 -1.22432e-20)
(0.533083 -0.0538205 2.28948e-20)
(0.61583 -0.162201 -1.19675e-20)
(0.680654 -0.241345 0)
(0.723508 -0.283781 -5.11936e-21)
(0.746857 -0.293801 4.74335e-21)
(0.755131 -0.280106 -9.53144e-22)
(0.754186 -0.251242 1.21589e-21)
(0.747595 -0.213359 2.84278e-23)
(0.734442 -0.173481 0)
(0.710406 -0.136197 1.40698e-22)
(0.677804 -0.102409 -4.68806e-22)
(0.647478 -0.0681454 0)
(0.630066 -0.0323748 -1.38315e-21)
(0.630368 0.00320255 5.58193e-22)
(0.642837 0.0328884 -2.08373e-22)
(0.665198 0.0534309 -1.88859e-22)
(0.689923 0.0621703 0)
(0.721875 0.0600231 0)
(0.753477 0.0484489 2.94425e-22)
(0.791571 0.0315618 -4.12098e-22)
(0.822813 0.0128558 2.08756e-22)
(0.855595 -0.00308469 -5.96404e-23)
(0.875015 -0.0161529 -9.86355e-23)
(0.894729 -0.0220634 -4.06927e-23)
(0.900178 -0.0277005 6.51512e-23)
(0.908975 -0.0234655 0)
(0.906814 -0.0253045 3.67772e-23)
(0.910925 -0.0138522 1.21738e-23)
(0.236419 0.0363835 1.00536e-19)
(0.240641 0.0292773 -9.98482e-20)
(0.243251 0.0178106 7.54151e-22)
(0.247723 0.003388 -7.44269e-22)
(0.252647 -0.013326 7.21444e-22)
(0.256954 -0.0324642 -7.01049e-22)
(0.260433 -0.0540175 1.36604e-21)
(0.262795 -0.0775105 0)
(0.263565 -0.10225 -1.23946e-21)
(0.262185 -0.127318 1.16055e-21)
(0.258066 -0.151515 1.07146e-21)
(0.250648 -0.173417 -9.70263e-22)
(0.239483 -0.191663 0)
(0.224294 -0.205003 0)
(0.204968 -0.21249 6.51604e-22)
(0.181331 -0.213417 0)
(0.154189 -0.205962 -4.52781e-22)
(0.125148 -0.189683 0)
(0.0959921 -0.163802 -1.81514e-20)
(0.0688922 -0.127741 3.33276e-20)
(0.0461508 -0.0814525 -2.84829e-20)
(0.0299977 -0.025815 1.32249e-20)
(0.0228173 0.0366211 1.1879e-20)
(0.0272963 0.10309 -1.15361e-20)
(0.044125 0.166659 -1.32999e-20)
(0.074599 0.222996 1.29515e-20)
(0.120966 0.263592 0)
(0.183317 0.28003 5.40284e-22)
(0.259757 0.266105 0)
(0.346091 0.219355 0)
(0.437707 0.140654 2.48437e-20)
(0.531119 0.0357394 -2.56997e-20)
(0.621202 -0.0806736 1.57547e-21)
(0.698547 -0.184861 1.29606e-21)
(0.754498 -0.258255 -1.04593e-21)
(0.78687 -0.294801 -4.77675e-21)
(0.80031 -0.299999 4.63804e-21)
(0.800684 -0.28303 -1.56926e-21)
(0.793904 -0.252406 1.29757e-21)
(0.784147 -0.213297 -4.61903e-23)
(0.772706 -0.171202 9.73418e-22)
(0.755277 -0.130707 4.28508e-22)
(0.729406 -0.0949944 -8.80386e-22)
(0.700006 -0.061888 0)
(0.676657 -0.0298706 6.10408e-22)
(0.667491 0.00157724 -7.595e-22)
(0.671751 0.0281914 9.92179e-22)