/*--------------------------------*- C++ -*----------------------------------*\
| =========                 |                                                 |
| \\      /  F ield         | OpenFOAM: The Open Source CFD Toolbox           |
|  \\    /   O peration     | Version:  2512                                  |
|   \\  /    A nd           | Website:  www.openfoam.com                      |
|    \\/     M anipulation  |                                                 |
\*---------------------------------------------------------------------------*/
FoamFile
{
    version     2.0;
    format      ascii;
    arch        "LSB;label=32;scalar=64";
    class       surfaceScalarField;
    location    "45";
    object      phi;
}
// * * * * * * * * * * * * * * * * * * * * * * * * * * * * * * * * * * * * * //

dimensions      [0 3 -1 0 0 0 0];

oriented        oriented;

internalField   nonuniform List<scalar> 
26232
(
3.13713e-05
0.000956807
-0.000988179
0.000299787
0.00192286
-0.00219128
0.000954346
0.00208224
-0.0027368
0.00213286
0.00148264
-0.00266115
0.00397124
0.000151335
-0.00198972
0.00660638
-0.0018985
-0.000736641
0.0101732
-0.00466042
0.00109365
0.0147976
-0.00812748
0.00350304
0.0205847
-0.0122825
0.00649545
0.0276056
-0.0170898
0.0100689
0.0358838
-0.0224898
0.0142116
0.0453838
-0.0283968
0.0188968
0.0560055
-0.0347014
0.0240797
0.067585
-0.0412758
0.0296964
0.0799014
-0.0479822
0.0356658
0.0926904
-0.0546822
0.0418932
0.105662
-0.061246
0.0482743
0.118521
-0.0675624
0.0547031
0.13099
-0.0735413
0.0610731
0.142825
-0.0791359
0.0673007
0.153828
-0.0842879
0.0732844
0.163861
-0.0890943
0.0790615
0.172772
-0.0933165
0.0844056
-0.0976107
0.0902431
0.18014
6.99129e-05
0.000886894
0.000481445
0.00151133
0.00141269
0.00115099
0.00302985
-0.000134517
0.00549456
-0.00231337
0.00896066
-0.0053646
0.013565
-0.0092648
0.0194121
-0.0139745
0.026556
-0.0194265
0.034985
-0.0255188
0.0446102
-0.032115
0.0552642
-0.0390509
0.0667092
-0.0461464
0.0786542
-0.0532208
0.0907789
-0.060107
0.102762
-0.066665
0.114307
-0.0727916
0.125171
-0.0784264
0.135182
-0.0835517
0.144239
-0.0881935
0.152348
-0.0923966
0.159537
-0.0962832
0.166011
-0.0997909
-0.103465
0.171866
0.000128993
0.000757901
0.000737732
0.000902593
0.00203012
-0.000141397
0.00419607
-0.00230047
0.00741199
-0.00552929
0.011829
-0.00978157
0.0175532
-0.0149891
0.0246237
-0.021045
0.0329933
-0.027796
0.0425188
-0.0350443
0.0529661
-0.0425623
0.0640281
-0.0501128
0.0753549
-0.0574733
0.0865901
-0.0644561
0.0974077
-0.0709245
0.107544
-0.0768009
0.116819
-0.0820675
0.125153
-0.08676
0.132557
-0.0909555
0.139123
-0.0947593
0.145004
-0.0982784
0.150365
-0.101643
0.155426
-0.104852
-0.108299
0.160261
0.000209166
0.000548735
0.0010692
4.25591e-05
0.0028026
-0.0018748
0.00561103
-0.00510889
0.00966453
-0.00958279
0.0150776
-0.0151946
0.0218806
-0.0217921
0.0299973
-0.0291617
0.0392356
-0.0370343
0.0493003
-0.045109
0.0598237
-0.0530857
0.0704104
-0.0606995
0.080686
-0.0677489
0.0903407
-0.0741108
0.0991608
-0.0797446
0.107043
-0.0846835
0.113994
-0.0890178
0.120106
-0.0928726
0.125536
-0.0963852
0.130463
-0.0996861
0.135066
-0.102881
0.139486
-0.106064
0.143869
-0.109235
-0.112644
0.148214
0.000309384
0.000239351
0.00146917
-0.00111722
0.00370805
-0.00411369
0.00721879
-0.00861962
0.0121323
-0.0144963
0.0184818
-0.0215441
0.0261735
-0.0294838
0.0349767
-0.0379649
0.0445434
-0.046601
0.0544533
-0.0550189
0.0642745
-0.0629068
0.0736244
-0.0700494
0.0822176
-0.0763421
0.0898929
-0.0817861
0.0966153
-0.086467
0.102457
-0.0905255
0.107565
-0.0941253
0.112118
-0.0974259
0.116296
-0.100564
0.120253
-0.103642
0.124104
-0.106733
0.127923
-0.109883
0.131775
-0.113087
-0.116502
0.135632
0.000427612
-0.000188261
0.00192558
-0.0026152
0.00470945
-0.00689755
0.00893292
-0.0128431
0.0146455
-0.0202088
0.0217522
-0.0286509
0.0299986
-0.0377302
0.0389941
-0.0469605
0.0482718
-0.0558787
0.0573656
-0.0641127
0.0658847
-0.0714259
0.0735645
-0.0777293
0.0802868
-0.0830644
0.086068
-0.0875673
0.0910255
-0.0914245
0.0953326
-0.0948325
0.0991753
-0.097968
0.102721
-0.100971
0.106099
-0.103942
0.109403
-0.106946
0.112691
-0.110021
0.115995
-0.113187
0.11935
-0.116441
-0.119868
0.122716
0.000560816
-0.000749077
0.00242076
-0.00447514
0.00575513
-0.0102319
0.0106402
-0.0177281
0.0169989
-0.0265676
0.0245727
-0.0362246
0.0329417
-0.0460992
0.0415961
-0.0556149
0.0500323
-0.0643149
0.0578418
-0.0719222
0.0647675
-0.0783517
0.0707176
-0.0836793
0.0757414
-0.0880883
0.0799834
-0.0918092
0.0836298
-0.095071
0.0868655
-0.0980682
0.0898458
-0.100948
0.0926858
-0.103811
0.095463
-0.10672
0.0982252
-0.109708
0.101001
-0.112796
0.103804
-0.11599
0.106649
-0.119287
-0.122727
0.109508
0.000704471
-0.00145355
0.00293056
-0.00670123
0.00677941
-0.0140808
0.0122079
-0.0231566
0.0189763
-0.0333359
0.0266539
-0.0439022
0.0346933
-0.0541386
0.0425453
-0.0634669
0.0497673
-0.0715368
0.0560893
-0.0782442
0.0614256
-0.0836879
0.065841
-0.0880947
0.0694942
-0.0917415
0.0725787
-0.0948937
0.0752778
-0.0977701
0.0777398
-0.10053
0.0800712
-0.10328
0.0823409
-0.106081
0.0845906
-0.108969
0.0868443
-0.111962
0.0891148
-0.115066
0.0914085
-0.118283
0.0937319
-0.12161
-0.125057
0.096062
0.000851875
-0.00230542
0.0034242
-0.00927356
0.0077063
-0.0183629
0.0134988
-0.0289491
0.0203843
-0.0402215
0.027789
-0.0513069
0.0351105
-0.0614601
0.041851
-0.0702075
0.0477023
-0.0773881
0.0525614
-0.0831033
0.0564918
-0.0876183
0.0596573
-0.0912602
0.0622561
-0.0943403
0.0644732
-0.0971108
0.0664551
-0.0997519
0.0683042
-0.102379
0.0700858
-0.105061
0.0718381
-0.107833
0.0735824
-0.110714
0.0753304
-0.11371
0.0770881
-0.116824
0.0788586
-0.120054
0.0806436
-0.123395
-0.126842
0.0824284
0.000994151
-0.00329957
0.00386615
-0.0121456
0.00845795
-0.0229547
0.0143916
-0.0348828
0.0210877
-0.0469176
0.0278899
-0.058109
0.0342246
-0.0677948
0.0397157
-0.0756986
0.044216
-0.0818883
0.0477684
-0.0866558
0.050533
-0.0903828
0.0527114
-0.0934386
0.0544933
-0.0961222
0.0560282
-0.0986458
0.0574199
-0.101144
0.0587329
-0.103692
0.0600044
-0.106333
0.0612548
-0.109084
0.0624951
-0.111954
0.0637313
-0.114946
0.0649665
-0.118059
0.066202
-0.121289
0.0674369
-0.12463
-0.128068
0.0686633
0.00112145
-0.00442103
0.00422132
-0.0152454
0.00896695
-0.0277003
0.014802
-0.0407178
0.0210295
-0.0531451
0.0269866
-0.0640661
0.0321983
-0.0730065
0.0364406
-0.0799409
0.0397125
-0.0851602
0.0421571
-0.0891004
0.0439767
-0.0922024
0.045368
-0.09483
0.0464886
-0.0972428
0.0474477
-0.0996048
0.0483129
-0.102009
0.0491226
-0.104502
0.0498972
-0.107107
0.0506478
-0.109834
0.0513804
-0.112687
0.0520987
-0.115665
0.0528043
-0.118765
0.0534973
-0.121982
0.054175
-0.125308
-0.128726
0.0548334
0.00122681
-0.00564784
0.004463
-0.0184816
0.00918821
-0.0324255
0.0146939
-0.0462235
0.020231
-0.0586822
0.0252002
-0.0690354
0.0292641
-0.0770704
0.0323452
-0.083022
0.0345503
-0.0873653
0.0360741
-0.0906243
0.0371214
-0.0932496
0.0378614
-0.09557
0.0384139
-0.0977953
0.0388531
-0.100044
0.0392209
-0.102377
0.0395393
-0.10482
0.0398195
-0.107387
0.0400678
-0.110083
0.0402883
-0.112907
0.0404832
-0.11586
0.040654
-0.118936
0.0408004
-0.122129
0.0409194
-0.125427
0.0410109
-0.128818
-0.00018873
0.000590182
-0.000401452
-0.00066288
0.00151936
-0.00104521
-0.00136425
0.00227988
-0.00157851
-0.00224735
0.0028996
-0.0020165
-0.00327571
0.00340284
-0.00237448
-0.0044203
0.00381398
-0.00266939
-0.00565822
0.00415639
-0.00291848
-0.00697151
0.00445083
-0.00313754
-0.00834611
0.00471422
-0.00333962
-0.0097708
0.00495886
-0.00353417
-0.0112363
0.00519216
-0.00372663
-0.0127345
0.00541686
-0.00391867
-0.0142576
0.00563166
-0.00410856
-0.0157977
0.00583186
-0.00429177
-0.0173464
0.00601014
-0.00446142
-0.018895
0.00615727
-0.00460874
-0.0204343
0.00626269
-0.00472331
-0.0219563
0.00631526
-0.00479326
-0.023455
0.00630408
-0.0048054
-0.024929
0.0062195
-0.00474555
-0.0263839
0.00605391
-0.00459893
-0.0278361
0.00580188
-0.00434968
-0.0293199
0.00546195
-0.00397819
0.00504203
-0.0308982
-0.00346377
-0.000162035
0.000752217
-0.000574375
0.0019317
-0.00118897
0.00289447
-0.0019666
0.00367723
-0.00287452
0.00431076
-0.0038855
0.00482496
-0.00497701
0.0052479
-0.00613049
0.00560431
-0.00733066
0.00591438
-0.00856477
0.00619298
-0.009822
0.00644938
-0.0110927
0.0066876
-0.012368
0.0069069
-0.0136388
0.00710265
-0.0148958
0.00726713
-0.0161289
0.00739038
-0.0173272
0.00746103
-0.0184793
0.00746737
-0.019574
0.00739876
-0.0206021
0.00724759
-0.0215597
0.00701151
-0.0224526
0.00669482
-0.0233046
0.00631391
0.00592869
-0.0241912
-0.000128159
0.000880377
-0.000460645
0.00226419
-0.000960807
0.00339464
-0.00159617
0.00431259
-0.00233778
0.00505238
-0.00315997
0.00564715
-0.0040401
0.00612803
-0.00495826
0.00652247
-0.00589693
0.00685306
-0.00684062
0.00713666
-0.0077754
0.00738416
-0.00868848
0.00760068
-0.0095677
0.00778612
-0.010401
0.00793591
-0.0111757
0.00804185
-0.0118782
0.00809287
-0.0124931
0.0080759
-0.0130026
0.00797694
-0.0133865
0.0077826
-0.0136215
0.00748262
-0.0136843
0.00707432
-0.0135594
0.00656989
-0.0132491
0.00600364
0.00542596
-0.0127464
-9.10163e-05
0.000971393
-0.00033366
0.00250683
-0.000701998
0.00376297
-0.00116963
0.00478022
-0.00171078
0.00559353
-0.00230079
0.00623715
-0.00291626
0.0067435
-0.00353516
0.00714137
-0.0041367
0.0074546
-0.00470127
0.00770123
-0.00521019
0.00789309
-0.00564545
0.00803594
-0.00598934
0.00813
-0.006224
0.00817057
-0.00633089
0.00814875
-0.00629014
0.00805211
-0.00607963
0.00786539
-0.00567392
0.00757124
-0.0050428
0.00715148
-0.00414944
0.00658926
-0.00294814
0.00587302
-0.00138126
0.00500301
0.000608449
0.00401393
0.0031016
0.00293281
-5.49106e-05
0.0010263
-0.000207003
0.00265893
-0.000438299
0.00399427
-0.000726557
0.00506848
-0.00104787
0.00591485
-0.00137758
0.00656687
-0.00169075
0.00705666
-0.00196233
0.00741295
-0.00216731
0.00765958
-0.00228062
0.00781455
-0.00227713
0.00788959
-0.00213139
0.00789021
-0.0018175
0.00781611
-0.00130869
0.00766176
-0.000576969
0.00741703
0.000407336
0.00706781
0.00167622
0.0065965
0.00326481
0.00598264
0.00521252
0.00520377
0.00756521
0.00423656
0.0103795
0.00305874
0.0137207
0.00166184
0.0176668
6.78405e-05
-0.00162704
0.0223954
-2.39747e-05
0.00105028
-9.38793e-05
0.00272883
-0.000195036
0.00409543
-0.000306391
0.00517984
-0.000403887
0.00601234
-0.000461446
0.00662442
-0.00045144
0.00704666
-0.00034485
0.00730636
-0.000111274
0.007426
0.000281122
0.00742215
0.000865709
0.007305
0.00167755
0.00707837
0.0027536
0.00674006
0.00413295
0.00628241
0.00585709
0.0056929
0.00797002
0.00495487
0.0105184
0.00404816
0.0135523
0.00294867
0.0171244
0.0016317
0.0212873
7.3625e-05
0.0261064
-0.00176031
0.0316563
-0.00388806
0.0379842
-0.00626003
-0.00908723
0.0454443
-1.68264e-06
0.00105196
-4.4277e-06
0.00273158
8.14423e-06
0.00408285
5.9795e-05
0.00512819
0.000177652
0.00589448
0.000391184
0.00641089
0.000732314
0.00670553
0.00123559
0.00680308
0.00193843
0.00672317
0.00288132
0.00647926
0.00410808
0.00607824
0.00566604
0.00552041
0.00760619
0.00479991
0.00998329
0.00390531
0.012856
0.00282021
0.0162864
0.00152448
0.0203368
-2.24418e-06
0.0250781
-0.00179262
0.0305745
-0.00386471
0.0368946
-0.00624645
0.0440884
-0.00895414
0.0522475
-0.0120472
0.0612994
-0.0153119
-0.0196159
0.071828
1.10769e-05
0.00104088
5.63427e-05
0.00268631
0.000161778
0.00397742
0.000358038
0.00493193
0.000678193
0.00557433
0.00115794
0.00593115
0.00183614
0.00602732
0.00275559
0.00588363
0.00396359
0.00551517
0.00551245
0.0049304
0.00745975
0.00413093
0.00986849
0.00311168
0.0128069
0.00186151
0.0163474
0.000364783
0.0205672
-0.00139961
0.0255447
-0.00345294
0.031361
-0.00581856
0.0380879
-0.00851951
0.0457969
-0.0115738
0.0545495
-0.014999
0.0643729
-0.0187775
0.0753536
-0.023028
0.0872665
-0.0272248
-0.0331465
0.100797
1.43971e-05
0.00102649
9.1792e-05
0.00260891
0.000273017
0.00379619
0.000600315
0.00460463
0.00111699
0.00505766
0.00186882
0.00517931
0.0029057
0.00499044
0.00428292
0.00450641
0.00606221
0.00373588
0.0083121
0.00268051
0.0111079
0.00133511
0.0145309
-0.000311263
0.0186671
-0.0022747
0.023605
-0.00457311
0.0294313
-0.00722596
0.0362291
-0.0102508
0.044072
-0.0136614
0.0530184
-0.0174659
0.0631073
-0.0216626
0.0743554
-0.026247
0.0867327
-0.0311549
0.100248
-0.0365431
0.114621
-0.0415981
-0.048796
0.130271
1.21848e-05
0.0010143
0.000113714
0.00250739
0.000366089
0.00354382
0.000827812
0.00414291
0.00155717
0.0043283
0.00261524
0.00412125
0.00406831
0.00353737
0.0059895
0.00258522
0.00846022
0.00126517
0.0115684
-0.000427716
0.015408
-0.0025044
0.020075
-0.00497829
0.0256635
-0.00786327
0.0322608
-0.0111704
0.0399402
-0.0149053
0.0487553
-0.0190659
0.0587337
-0.0236398
0.0698716
-0.0286039
0.0821306
-0.0339216
0.0954335
-0.03955
0.109669
-0.0453903
0.124678
-0.0515526
0.140292
-0.0572112
-0.0647905
0.156286
1.02521e-05
0.00100405
0.000141795
0.00237584
0.000481202
0.00320441
0.00110791
0.0035162
0.0021005
0.00333571
0.00354101
0.00268074
0.00551783
0.00156056
0.00812491
-2.18622e-05
0.0114664
-0.00207632
0.0156454
-0.00460675
0.0207643
-0.00762329
0.026916
-0.01113
0.0341757
-0.015123
0.0425927
-0.0195874
0.0521825
-0.0244951
0.0629205
-0.0298038
0.0747383
-0.0354577
0.0875235
-0.0413891
0.101122
-0.0475199
0.115344
-0.0537724
0.129993
-0.0600394
0.14479
-0.0663495
0.159722
-0.0721432
-0.0789765
0.173908
1.5871e-05
0.000200434
0.000668045
0.00152309
0.00286908
0.00481318
0.00746739
0.0109486
0.0153677
0.0208298
0.0274181
0.035185
0.0441417
0.0542507
0.0654214
0.0775108
0.0903274
0.103641
0.117195
0.130723
0.143968
0.15668
0.168942
0.180209
-0.0317156
0.00443194
-0.00361445
-0.0325286
0.00272073
-0.00190774
-0.0333033
0.000449706
0.000324914
-0.0340568
-0.00237719
0.00313075
-0.0347691
-0.00585652
0.00656877
-0.0354249
-0.0100008
0.0106567
-0.0360108
-0.0148054
0.0153913
-0.0365104
-0.020235
0.0207346
-0.0369081
-0.0262024
0.0266001
-0.0371888
-0.03256
0.0328408
-0.0373357
-0.0390925
0.0392394
-0.0373218
-0.045511
0.0454972
-0.037111
-0.0514402
0.0512294
-0.0366514
-0.0564103
0.0559507
-0.0358659
-0.0598737
0.0590882
-0.0346454
-0.0612225
0.0600021
-0.0328697
-0.059805
0.0580292
-0.0304145
-0.0549499
0.0524947
-0.0271871
-0.046059
0.0428316
-0.0231478
-0.0327263
0.028687
-0.0184027
-0.0149746
0.0102294
-0.0132326
0.00663756
-0.0118076
-0.00790906
0.0313209
-0.0366444
-0.00295652
0.057409
-0.0623615
0.00104612
0.0831093
-0.0871119
0.00351549
0.106668
-0.109137
0.00453056
0.126366
-0.127381
0.00507258
0.140264
-0.140806
0.00703788
0.145396
-0.147361
0.0123708
0.137875
-0.143208
0.0219326
0.114809
-0.12437
0.0350972
0.076657
-0.0898216
0.0503494
0.0283323
-0.0435846
0.0657672
-0.0218425
0.00642474
0.0797611
-0.0662081
0.0522142
0.0910773
-0.0988588
0.0875427
0.0989711
-0.118082
0.110188
0.10297
-0.125099
0.1211
0.102809
-0.123518
0.12368
0.099321
-0.117109
0.120596
0.0952589
-0.107462
0.111524
0.0940984
-0.0920644
0.093225
0.0976507
-0.0686239
0.0650716
0.105013
-0.0384011
0.0310389
0.113889
-0.00686881
-0.00200695
0.122144
0.020554
-0.0288094
0.12859
0.0406072
-0.0470528
0.132828
0.0528298
-0.0570678
0.135234
0.0579733
-0.0603801
0.136526
0.0571227
-0.0584138
0.137672
0.0510738
-0.0522199
0.139275
0.0406719
-0.0422754
0.141594
0.0273173
-0.0296366
0.144278
0.013463
-0.0161468
0.147043
0.000120977
-0.00288546
0.14937
-0.0086776
0.00635038
0.151435
-0.0169824
0.0149171
0.153035
-0.0159545
0.0143551
0.154672
-0.0194328
0.0177952
-0.0083427
0.00675162
-0.0249879
0.00522863
-0.0258403
0.00357306
-0.026727
0.00133644
-0.0276331
-0.0014711
-0.0285591
-0.00493054
-0.0294888
-0.00907112
-0.0304202
-0.013874
-0.0313432
-0.019312
-0.0322471
-0.0252985
-0.0331228
-0.0316844
-0.0339616
-0.0382537
-0.0347491
-0.0447235
-0.0354624
-0.0507269
-0.0360614
-0.0558113
-0.0364768
-0.0594583
-0.036595
-0.0611042
-0.0362465
-0.0601536
-0.0352394
-0.055957
-0.0333896
-0.0479088
-0.0305673
-0.0355485
-0.0267595
-0.0187824
-0.0221838
0.00206187
-0.0171273
0.0262644
-0.0120024
0.0522842
-0.00733781
0.0784447
-0.00332678
0.102657
0.000366045
0.122673
0.00468392
0.135946
0.0109847
0.139095
0.0203298
0.12853
0.0326597
0.102479
0.0470476
0.0622692
0.0623693
0.0130106
0.0771782
-0.0366514
0.0902449
-0.0792748
0.10055
-0.109164
0.107673
-0.125205
0.111544
-0.12897
0.111917
-0.123891
0.108761
-0.113953
0.10359
-0.102291
0.0995163
-0.0879906
0.0992924
-0.0684
0.10333
-0.0424392
0.110024
-0.0135623
0.117194
0.0133842
0.123346
0.0344546
0.127824
0.0483523
0.130906
0.0548912
0.13325
0.0547788
0.135707
0.0486164
0.138655
0.0377245
0.142112
0.0238603
0.145588
0.00998672
0.148749
-0.00303973
0.151161
-0.0110901
0.153009
-0.0188297
0.154279
-0.0172246
0.155403
-0.0205575
-0.00953977
-0.0133308
0.00581309
-0.0140317
0.00427396
-0.0148548
0.00215948
-0.0157558
-0.000570042
-0.0167505
-0.0039359
-0.0177986
-0.00802298
-0.0189379
-0.0127347
-0.0201602
-0.0180897
-0.0214571
-0.0240016
-0.022821
-0.0303204
-0.0242488
-0.036826
-0.0257345
-0.0432378
-0.0272683
-0.049193
-0.0288172
-0.0542625
-0.0303152
-0.0579603
-0.0316718
-0.0597477
-0.0326809
-0.0591444
-0.0331167
-0.0555212
-0.0327266
-0.0482989
-0.0312816
-0.0369936
-0.0286559
-0.021408
-0.0248762
-0.0017179
-0.0202025
0.0215907
-0.0148284
0.04691
-0.00920662
0.0728229
-0.00333729
0.0967873
0.00316295
0.116173
0.0108875
0.128221
0.0205948
0.129388
0.0325014
0.116624
0.046071
0.0889092
0.0605408
0.0477994
0.0750763
-0.00152493
0.0887856
-0.0503607
0.100522
-0.0910117
0.109487
-0.118129
0.1155
-0.131217
0.118853
-0.132322
0.119632
-0.12467
0.117452
-0.111773
0.112607
-0.097446
0.107138
-0.0825221
0.103957
-0.065219
0.104634
-0.0431158
0.108642
-0.0175699
0.114172
0.00785371
0.119671
0.0289554
0.124269
0.0437546
0.12808
0.0510804
0.131579
0.0512789
0.135375
0.0448204
0.139568
0.0335322
0.143958
0.0194705
0.147992
0.00595241
0.151344
-0.00639206
0.153711
-0.013457
0.155274
-0.0203927
0.156199
-0.0181498
0.15681
-0.0211683
-0.0103249
0.00294419
0.00580171
0.00250986
0.00470829
0.0019664
0.00270294
0.00129684
9.95146e-05
0.000499096
-0.00313816
-0.000582025
-0.00694186
-0.00184201
-0.0114747
-0.00327729
-0.0166545
-0.00488626
-0.0223926
-0.006661
-0.0285457
-0.00858846
-0.0348985
-0.0106795
-0.0411468
-0.0129449
-0.0469276
-0.0153394
-0.051868
-0.0177794
-0.0555203
-0.0202476
-0.0572795
-0.0224448
-0.0569472
-0.0241521
-0.0538139
-0.0250837
-0.0473673
-0.0249421
-0.0371352
-0.0234978
-0.0228523
-0.0205885
-0.00462717
-0.0163775
0.0173797
-0.0108112
0.0413437
-0.00440335
0.0664151
0.00333504
0.0890489
0.0121668
0.107341
0.022352
0.118036
0.0341629
0.117577
0.0472503
0.103536
0.0609337
0.0752258
0.0747096
0.0340234
0.0880084
-0.0148237
0.100214
-0.0625661
0.110292
-0.10109
0.117673
-0.125509
0.122384
-0.135929
0.124931
-0.13487
0.125755
-0.125494
0.124589
-0.110607
0.120972
-0.0938284
0.115647
-0.0771968
0.110893
-0.0604657
0.10887
-0.0410926
0.110168
-0.0188682
0.113749
0.00427349
0.11829
0.024414
0.12283
0.0392143
0.127277
0.0466337
0.131829
0.046727
0.136767
0.0398828
0.141913
0.0283855
0.146904
0.0144802
0.151198
0.00165775
0.154524
-0.00971773
0.156727
-0.0156598
0.157974
-0.0216398
0.158579
-0.0187547
0.158733
-0.0213225
-0.0107293
0.0225029
0.00569416
0.0224165
0.00479471
0.022138
0.00298144
0.0216936
0.000543903
0.0210636
-0.00250814
0.0202416
-0.00611981
0.0191745
-0.0104076
0.0178475
-0.0153275
0.0162442
-0.0207893
0.0143495
-0.026651
0.0121398
-0.0326889
0.00958036
-0.0385873
0.00666142
-0.0440086
0.00338755
-0.0485941
-0.000118877
-0.0520139
-0.00340363
-0.0539948
-0.00658561
-0.0537652
-0.00935938
-0.0510401
-0.011403
-0.0453236
-0.0123768
-0.0361614
-0.0119805
-0.0232487
-0.0099586
-0.00664908
-0.00628578
0.0137068
-0.0010139
0.0360719
0.00674443
0.0586568
0.0156556
0.0801377
0.0258005
0.0971961
0.0373509
0.106486
0.0500618
0.104866
0.0632656
0.0903325
0.0763065
0.0621849
0.088917
0.0214129
0.100693
-0.0266001
0.111089
-0.0729621
0.119247
-0.109248
0.124861
-0.131123
0.128185
-0.139253
0.129817
-0.136502
0.130379
-0.126056
0.129913
-0.110141
0.127772
-0.091687
0.123683
-0.0731082
0.118858
-0.0556406
0.115322
-0.0375571
0.114457
-0.0180033
0.116137
0.00259389
0.119556
0.0209949
0.123832
0.0349384
0.128682
0.0417834
0.133993
0.0414161
0.139699
0.0341774
0.145386
0.0226982
0.15059
0.00927647
0.154842
-0.00259454
0.157946
-0.0128221
0.159896
-0.0176094
0.160832
-0.0225761
0.161174
-0.0190969
0.160975
-0.0211235
-0.0108274
0.0455964
0.0055421
0.0456779
0.00471321
0.0456363
0.00302302
0.0454551
0.000725109
0.045063
-0.00211606
0.0444421
-0.00549883
0.0435537
-0.00951918
0.0423635
-0.0141373
0.0408387
-0.0192645
0.0389413
-0.0247535
0.0366322
-0.0303798
0.0338967
-0.0358518
0.0307335
-0.0408454
0.0271653
-0.0450259
0.0232442
-0.0480928
0.0189806
-0.0497312
0.0147118
-0.0494965
0.0107367
-0.047065
0.00745191
-0.0420388
0.00530057
-0.0340101
0.00472216
-0.0226703
0.00605456
-0.00798148
0.00950033
0.0102611
0.0150883
0.0304839
0.0224286
0.0513164
0.031554
0.0710123
0.0422186
0.0865316
0.054179
0.0945255
0.0668711
0.0921741
0.0794812
0.0777225
0.0914436
0.0502225
0.102602
0.0102548
0.112667
-0.0366657
0.121048
-0.081343
0.127114
-0.115313
0.130862
-0.134871
0.13278
-0.141172
0.133508
-0.13723
0.133666
-0.126214
0.133531
-0.110006
0.132641
-0.0907976
0.130238
-0.0707048
0.1265
-0.0519025
0.122793
-0.0338501
0.120728
-0.0159388
0.120951
0.00237135
0.123296
0.01865
0.127138
0.0310962
0.132086
0.0368356
0.137752
0.03575
0.143765
0.0281644
0.149547
0.0169163
0.154597
0.0042263
0.158547
-0.00654518
0.161289
-0.0155634
0.162936
-0.0192567
0.163598
-0.0232384
0.163757
-0.0192556
0.163337
-0.0207033
-0.010725
0.0717134
0.00565673
0.0716528
0.00477382
0.071585
0.00309076
0.0714215
0.000888677
0.0710561
-0.00175064
0.0704878
-0.00493056
0.0696564
-0.00868782
0.0685006
-0.0129814
0.0669747
-0.0177386
0.065045
-0.0228239
0.0626844
-0.0280192
0.0598768
-0.0330442
0.0566151
-0.0375837
0.0529006
-0.0413115
0.0487384
-0.0439306
0.0441709
-0.0451636
0.039407
-0.0447326
0.0347517
-0.0424097
0.030631
-0.0379181
0.027537
-0.0309161
0.0259455
-0.0210788
0.0262349
-0.00827085
0.0287087
0.00778732
0.0334909
0.0257017
0.0403595
0.0444478
0.0492107
0.0621611
0.0597231
0.0760191
0.0713951
0.0828535
0.0834599
0.0801093
0.0950629
0.0661195
0.105728
0.0395576
0.115325
0.000657814
0.123551
-0.0448921
0.129781
-0.0875729
0.133673
-0.119205
0.135552
-0.13675
0.136112
-0.141732
0.136007
-0.137125
0.135757
-0.125964
0.135698
-0.109947
0.13565
-0.0907498
0.134835
-0.06989
0.132762
-0.0498295
0.129967
-0.0310551
0.127789
-0.0137608
0.127272
0.00288789
0.128821
0.0171014
0.13217
0.0277472
0.136931
0.0320745
0.142543
0.0301385
0.148421
0.0222863
0.153902
0.0114351
0.158512
-0.000383972
0.161982
-0.0100154
0.164286
-0.0178669
0.165625
-0.0205961
0.166075
-0.0236883
0.166139
-0.0193195
0.165637
-0.0202017
-0.0105429
0.100077
0.00637694
0.0994957
0.00535512
0.0989582
0.00362825
0.0983792
0.00146763
0.0976913
-0.00106276
0.0968475
-0.00408676
0.0957823
-0.00762263
0.0944203
-0.0116194
0.0927093
-0.0160276
0.0906139
-0.0207285
0.0881106
-0.0255159
0.0851921
-0.0301256
0.0818636
-0.0342553
0.0781341
-0.0375819
0.0740033
-0.0397997
0.0694832
-0.0406435
0.0646645
-0.039914
0.059746
-0.0374912
0.0550804
-0.0332525
0.0511609
-0.0269966
0.0485392
-0.0184571
0.0477066
-0.00743826
0.0490958
0.00639811
0.0528728
0.0219247
0.0589363
0.0383844
0.0671007
0.0539966
0.0769583
0.0661615
0.0878753
0.0719365
0.0989899
0.0689947
0.109435
0.0556745
0.118773
0.0302201
0.126786
-0.00735616
0.133069
-0.0511743
0.137055
-0.091559
0.138768
-0.120918
0.138867
-0.136849
0.138183
-0.141048
0.137345
-0.136287
0.136746
-0.125365
0.136658
-0.109858
0.137088
-0.09118
0.137478
-0.0702802
0.137097
-0.0494481
0.135806
-0.0297638
0.134404
-0.012359
0.133924
0.00336735
0.135115
0.0159114
0.138051
0.024811
0.142444
0.0276815
0.147682
0.0249006
0.153084
0.0168837
0.157989
0.00652999
0.16198
-0.00437502
0.16489
-0.0129253
0.166751
-0.0197273
0.167817
-0.0216622
0.168132
-0.0240035
0.168189
-0.0193768
0.167738
-0.01975
-0.0104029
0.128694
0.00795366
0.127327
0.0067223
0.126031
0.00492422
0.124651
0.00284691
0.123364
0.000224393
0.121927
-0.00264931
0.120304
-0.00600017
0.11844
-0.00975506
0.116286
-0.0138736
0.113806
-0.0182481
0.110977
-0.0226875
0.107803
-0.0269511
0.104307
-0.0307592
0.100525
-0.0338
0.0964877
-0.0357628
0.0922174
-0.0363733
0.0877435
-0.0354401
0.0831397
-0.0328873
0.0785905
-0.0287033
0.0744437
-0.0228498
0.071198
-0.0152113
0.0694357
-0.00567603
0.0696375
0.00619635
0.072193
0.0193693
0.077134
0.0334434
0.084253
0.0468776
0.0930726
0.057342
0.10289
0.0621189
0.112835
0.0590495
0.122095
0.0464145
0.130194
0.0221219
0.136723
-0.0138853
0.140987
-0.0554383
0.142675
-0.0932474
0.142281
-0.120523
0.140764
-0.135332
0.139006
-0.13929
0.13756
-0.13484
0.136695
-0.1245
0.136568
-0.109731
0.13725
-0.0918618
0.13843
-0.0714606
0.139438
-0.0504557
0.139756
-0.0300818
0.139631
-0.0122348
0.139811
0.00318777
0.141107
0.0146152
0.143822
0.0220964
0.147802
0.0237016
0.152492
0.02021
0.15723
0.0121462
0.161426
0.00233384
0.164743
-0.0076917
0.167103
-0.0152857
0.168577
-0.0212006
0.169437
-0.0225225
0.169703
-0.02427
0.169836
-0.0195095
0.169546
-0.0194601
-0.0104154
0.153969
0.0102709
0.151912
0.00877933
0.149808
0.00702795
0.147652
0.00500314
0.145449
0.00242735
0.143418
-0.000618309
0.141134
-0.00371631
0.138637
-0.00725815
0.135898
-0.0111344
0.132896
-0.0152458
0.129618
-0.0194096
0.126076
-0.0234098
0.122313
-0.026996
0.11839
-0.0298765
0.114376
-0.0317484
0.110337
-0.032335
0.106328
-0.0314304
0.102384
-0.0289436
0.0985561
-0.0248756
0.0949862
-0.0192799
0.0919498
-0.012175
0.0898704
-0.0035966
0.0893352
0.00673152
0.090788
0.0179165
0.0944609
0.0297705
0.100264
0.0410748
0.10776
0.0498457
0.116252
0.0536266
0.1249
0.0504019
0.13297
0.0383439
0.139835
0.0152577
0.144791
-0.0188421
0.146982
-0.057629
0.146438
-0.0927035
0.144107
-0.118193
0.141205
-0.13243
0.138584
-0.13667
0.136676
-0.132932
0.135634
-0.123458
0.135506
-0.109604
0.136342
-0.092697
0.138
-0.0731185
0.139996
-0.0524524
0.141712
-0.0317975
0.142985
-0.0135079
0.144175
0.00199741
0.145945
0.0128454
0.148668
0.0193738
0.152306
0.020064
0.156425
0.0160907
0.16046
0.00811092
0.163954
-0.00116002
0.166647
-0.0103852
0.168543
-0.017181
0.169729
-0.022387
0.170473
-0.0232662
0.170779
-0.0245757
0.171059
-0.0197899
0.171018
-0.0194196
-0.0106723
0.171558
0.0126208
0.169237
0.0111002
0.16672
0.00954553
0.164178
0.00754502
0.161553
0.00505249
0.158751
0.00218343
0.156027
-0.000992216
0.153036
-0.00426728
0.149806
-0.00790412
0.146343
-0.0117827
0.142649
-0.0157155
0.13875
-0.0195115
0.134705
-0.0229506
0.130597
-0.0257687
0.126537
-0.0276888
0.122662
-0.0284594
0.119103
-0.0278717
0.115911
-0.0257515
0.113077
-0.0220421
0.110609
-0.0168117
0.10858
-0.0101458
0.107321
-0.00233749
0.106758
0.00729416
0.107742
0.0169332
0.110487
0.0270246
0.115052
0.0365101
0.121145
0.0437525
0.128199
0.0465732
0.135479
0.0431213
0.142286
0.0315378
0.147728
0.00981522
0.15097
-0.0220841
0.151038
-0.0576967
0.148455
-0.0901209
0.14451
-0.114248
0.140489
-0.128408
0.137192
-0.133373
0.134927
-0.130666
0.133751
-0.122282
0.133632
-0.109486
0.134566
-0.0936308
0.136492
-0.0750442
0.139112
-0.0550726
0.141871
-0.0345567
0.144389
-0.0160256
0.14668
-0.000293488
0.149132
0.0103935
0.152061
0.0164448
0.155491
0.0166337
0.159127
0.0124548
0.162549
0.00468846
0.165441
-0.00405164
0.167643
-0.0125875
0.169206
-0.0187435
0.17023
-0.0234114
0.170957
-0.0239931
0.171386
-0.0250044
0.171876
-0.0202801
0.172149
-0.0196922
-0.0112446
0.178665
0.0141646
0.176572
0.0131937
0.174373
0.0117437
0.172041
0.00987782
0.169495
0.00759759
0.166709
0.00496968
0.163753
0.0019637
0.160738
-0.00125209
0.157381
-0.00454691
0.153759
-0.00816123
0.149907
-0.011863
0.145888
-0.0154923
0.141788
-0.0188511
0.137719
-0.0216997
0.13381
-0.0237797
0.130194
-0.0248433
0.126994
-0.0246719
0.124329
-0.0230862
0.122282
-0.019995
0.120857
-0.0153864
0.120025
-0.00931417
0.119612
-0.00192383
0.120215
0.00669093
0.121545
0.0156029
0.124053
0.0245164
0.127887
0.032676
0.132913
0.0387272
0.13868
0.040806
0.144587
0.0372139
0.149913
0.0262122
0.153876
0.00585207
0.154901
-0.0231087
0.152992
-0.0557879
0.148894
-0.0860227
0.143975
-0.10933
0.139318
-0.123752
0.135547
-0.129601
0.132935
-0.128055
0.131556
-0.120902
0.131357
-0.109286
0.132286
-0.0945604
0.1343
-0.0770576
0.13723
-0.0580025
0.140653
-0.0379805
0.144105
-0.0194772
0.147362
-0.00355046
0.150528
0.00722741
0.153781
0.0131921
0.157145
0.0132698
0.160443
0.00915624
0.163422
0.00170958
0.165877
-0.00650634
0.16776
-0.0144704
0.169145
-0.0201285
0.17014
-0.0244065
0.17095
-0.0248032
0.171578
-0.0256321
0.17233
-0.0210327
0.17296
-0.020322
-0.0121827
0.195307
0.0154444
-0.196586
0.194539
0.0139618
0.193708
0.0125739
0.192841
0.010745
0.191911
0.00852807
0.190888
0.00599233
0.18964
0.00321146
0.188028
0.000359835
0.186407
-0.00292549
0.184468
-0.00622234
0.182187
-0.00958208
0.179551
-0.0128564
0.176549
-0.0158492
0.173201
-0.0183511
0.16956
-0.0201388
0.165708
-0.0209914
0.161744
-0.0207077
0.157777
-0.0191199
0.153911
-0.0161292
0.150237
-0.0117118
0.146875
-0.00595267
0.143929
0.00102258
0.141652
0.00896782
0.140185
0.0170697
0.139918
0.0247832
0.141258
0.0313367
0.144503
0.0354822
0.149649
0.0356602
0.156409
0.0304539
0.164166
0.0184546
0.171657
-0.00163838
0.177167
-0.0286186
0.179536
-0.0581578
0.178681
-0.0851671
0.1753
-0.105948
0.170352
-0.118804
0.16476
-0.124009
0.159254
-0.122549
0.154331
-0.115979
0.150277
-0.105233
0.147259
-0.0915419
0.145395
-0.0751934
0.144729
-0.0573361
0.14512
-0.0383718
0.14627
-0.0206272
0.147953
-0.00523367
0.149969
0.00521154
0.152303
0.0108579
0.154781
0.0107922
0.157117
0.00681978
0.159021
-0.000194134
0.160297
-0.00778259
0.16092
-0.0150937
0.160991
-0.0201992
0.160643
-0.024058
0.1601
-0.02426
0.1594
-0.0249327
0.158835
-0.0204676
0.15822
-0.019707
-0.0118703
0.207875
0.0157434
-0.208174
0.207565
0.0142714
0.207337
0.0128025
0.20697
0.0111117
0.206392
0.00910604
0.20557
0.00681407
0.204471
0.00431136
0.20324
0.00159009
0.201644
-0.00132884
0.199742
-0.00432113
0.197493
-0.00733289
0.194883
-0.010246
0.191928
-0.0128948
0.18867
-0.0150931
0.185176
-0.0166445
0.181537
-0.0173527
0.177865
-0.0170354
0.174284
-0.0155387
0.170922