/*--------------------------------*- C++ -*----------------------------------*\
| =========                 |                                                 |
| \\      /  F ield         | OpenFOAM: The Open Source CFD Toolbox           |
|  \\    /   O peration     | Version:  2512                                  |
|   \\  /    A nd           | Website:  www.openfoam.com                      |
|    \\/     M anipulation  |                                                 |
\*---------------------------------------------------------------------------*/
FoamFile
{
    version     2.0;
    format      ascii;
    arch        "LSB;label=32;scalar=64";
    class       volScalarField;
    location    "148";
    object      p;
}
// * * * * * * * * * * * * * * * * * * * * * * * * * * * * * * * * * * * * * //

dimensions      [0 2 -2 0 0 0 0];

internalField   nonuniform List<scalar> 
13248
(
-0.309981
-0.30937
-0.307867
-0.305618
-0.302707
-0.299117
-0.294826
-0.289804
-0.284046
-0.277581
-0.270479
-0.262854
-0.254854
-0.246654
-0.238435
-0.230368
-0.2226
-0.215238
-0.208341
-0.201948
-0.195995
-0.190554
-0.185155
-0.180246
-0.317738
-0.316103
-0.313774
-0.310843
-0.307341
-0.303261
-0.298565
-0.293201
-0.287138
-0.280378
-0.272972
-0.265015
-0.256644
-0.248021
-0.239312
-0.230673
-0.222231
-0.214081
-0.206276
-0.198839
-0.191736
-0.18494
-0.178252
-0.171965
-0.326856
-0.324072
-0.320789
-0.317054
-0.312846
-0.308159
-0.302933
-0.29708
-0.290529
-0.283252
-0.275281
-0.266707
-0.257671
-0.248344
-0.2389
-0.229502
-0.220285
-0.211349
-0.202753
-0.194525
-0.186635
-0.179082
-0.171702
-0.164748
-0.337383
-0.333339
-0.329006
-0.324379
-0.319369
-0.313948
-0.30802
-0.301446
-0.294114
-0.28598
-0.277083
-0.267543
-0.257537
-0.247271
-0.236946
-0.22674
-0.216793
-0.207199
-0.198009
-0.189236
-0.180855
-0.172859
-0.165116
-0.157923
-0.349411
-0.344009
-0.338561
-0.332982
-0.327072
-0.320755
-0.313876
-0.306248
-0.297743
-0.288342
-0.278142
-0.267333
-0.256152
-0.244845
-0.233634
-0.22269
-0.212134
-0.202034
-0.192415
-0.183273
-0.17458
-0.166314
-0.158385
-0.151009
-0.362998
-0.356155
-0.349556
-0.342972
-0.336032
-0.328576
-0.320389
-0.311267
-0.301127
-0.290042
-0.278218
-0.265935
-0.25349
-0.241148
-0.229115
-0.217531
-0.206474
-0.195978
-0.18604
-0.176637
-0.167734
-0.159297
-0.151261
-0.143777
-0.378071
-0.369738
-0.361966
-0.354302
-0.346127
-0.337176
-0.327212
-0.31609
-0.303858
-0.290745
-0.277092
-0.263261
-0.249571
-0.236266
-0.223505
-0.211375
-0.199907
-0.189096
-0.178916
-0.169326
-0.160285
-0.151748
-0.143671
-0.136121
-0.394364
-0.38454
-0.375578
-0.366697
-0.356973
-0.346058
-0.333777
-0.320158
-0.305463
-0.290115
-0.274571
-0.259228
-0.24438
-0.230212
-0.216817
-0.204222
-0.192411
-0.181348
-0.170983
-0.161266
-0.152145
-0.14357
-0.135508
-0.127942
-0.411376
-0.400121
-0.389939
-0.379621
-0.367923
-0.354497
-0.339371
-0.322856
-0.305487
-0.287859
-0.27049
-0.253756
-0.237879
-0.222962
-0.209026
-0.196041
-0.183953
-0.172697
-0.162207
-0.15242
-0.143275
-0.134722
-0.126722
-0.119192
-0.428354
-0.415787
-0.404319
-0.392248
-0.378072
-0.361597
-0.343207
-0.323585
-0.303523
-0.283726
-0.264701
-0.246746
-0.229987
-0.214439
-0.200056
-0.18676
-0.174463
-0.16308
-0.152528
-0.142731
-0.133621
-0.125144
-0.117242
-0.109797
-0.444312
-0.430587
-0.417712
-0.403489
-0.386314
-0.366345
-0.344454
-0.321711
-0.299101
-0.277351
-0.256892
-0.237908
-0.220422
-0.204369
-0.189644
-0.176128
-0.163709
-0.15228
-0.141744
-0.132014
-0.123014
-0.11468
-0.106923
-0.0996347
-0.458128
-0.443441
-0.429008
-0.412196
-0.391527
-0.367719
-0.342222
-0.316458
-0.291516
-0.268067
-0.246412
-0.226608
-0.208574
-0.19217
-0.17724
-0.163632
-0.151207
-0.139844
-0.129431
-0.119874
-0.11109
-0.103002
-0.0954978
-0.088519
-0.348494
-0.350969
-0.352376
-0.353281
-0.354184
-0.355226
-0.356435
-0.357793
-0.359251
-0.360736
-0.362162
-0.36342
-0.364377
-0.364874
-0.364902
-0.364192
-0.362614
-0.36005
-0.356416
-0.351689
-0.345912
-0.339216
-0.331907
-0.324571
-0.336041
-0.338782
-0.340216
-0.340925
-0.341419
-0.341825
-0.342163
-0.342412
-0.342524
-0.342432
-0.342057
-0.341307
-0.340091
-0.338324
-0.335941
-0.332865
-0.329058
-0.324521
-0.319311
-0.313551
-0.307428
-0.301165
-0.295153
-0.290423
-0.325004
-0.327839
-0.329225
-0.329726
-0.329833
-0.32965
-0.329188
-0.328426
-0.327316
-0.325798
-0.323805
-0.321275
-0.31815
-0.31439
-0.309981
-0.304936
-0.29931
-0.293209
-0.286798
-0.280313
-0.274053
-0.268316
-0.263414
-0.260464
-0.3156
-0.318399
-0.319686
-0.319984
-0.319743
-0.319044
-0.317885
-0.316243
-0.314078
-0.311339
-0.307979
-0.30396
-0.299262
-0.293892
-0.28789
-0.28134
-0.274375
-0.267182
-0.260006
-0.253156
-0.246997
-0.241797
-0.237943
-0.236463
-0.307918
-0.310599
-0.311754
-0.311858
-0.311311
-0.310167
-0.308413
-0.306027
-0.302975
-0.299223
-0.294745
-0.289532
-0.2836
-0.276998
-0.26982
-0.262205
-0.254347
-0.24649
-0.238912
-0.23199
-0.226085
-0.221577
-0.218717
-0.218116
-0.301975
-0.304495
-0.3055
-0.305414
-0.304587
-0.303052
-0.300788
-0.297772
-0.293981
-0.289397
-0.284021
-0.277872
-0.271
-0.263494
-0.255495
-0.247183
-0.238795
-0.230614
-0.222964
-0.216204
-0.210704
-0.206837
-0.204994
-0.204729
-0.297771
-0.300111
-0.300947
-0.300663
-0.29957
-0.297684
-0.294975
-0.291426
-0.287024
-0.281771
-0.275689
-0.268832
-0.261286
-0.253141
-0.244633
-0.235947
-0.227352
-0.219155
-0.211693
-0.205315
-0.200379
-0.197081
-0.196282
-0.195861
-0.295329
-0.29746
-0.2981
-0.297604
-0.29625
-0.294043
-0.290954
-0.286968
-0.282084
-0.276322
-0.269726
-0.262384
-0.254403
-0.245942
-0.237211
-0.228457
-0.219965
-0.212051
-0.20504
-0.199237
-0.195017
-0.192173
-0.192356
-0.191462
-0.294689
-0.296551
-0.296953
-0.296221
-0.294611
-0.29212
-0.288721
-0.284405
-0.279184
-0.273093
-0.2662
-0.258601
-0.250448
-0.241927
-0.233263
-0.224723
-0.216595
-0.209181
-0.202779
-0.197604
-0.194069
-0.191527
-0.192215
-0.19103
-0.295887
-0.297371
-0.297466
-0.296467
-0.294599
-0.291859
-0.28822
-0.283686
-0.278266
-0.272009
-0.264999
-0.257355
-0.249242
-0.240861
-0.232448
-0.224267
-0.21659
-0.209685
-0.2038
-0.199072
-0.195856
-0.193469
-0.193807
-0.192614
-0.298903
-0.29986
-0.29955
-0.298224
-0.296072
-0.293092
-0.289265
-0.284571
-0.279038
-0.272719
-0.265701
-0.258114
-0.250127
-0.241944
-0.233795
-0.225921
-0.218559
-0.211922
-0.206186
-0.201461
-0.197922
-0.195308
-0.19458
-0.193352
-0.303649
-0.303905
-0.303061
-0.301315
-0.298811
-0.295556
-0.291507
-0.286659
-0.281027
-0.274657
-0.267635
-0.260088
-0.252181
-0.244105
-0.23607
-0.228281
-0.220923
-0.214149
-0.208057
-0.202727
-0.198158
-0.194451
-0.191837
-0.190099
-0.316276
-0.307278
-0.300473
-0.297003
-0.297839
-0.303352
-0.312909
-0.3248
-0.33645
-0.34446
-0.345061
-0.334733
-0.312221
-0.277887
-0.236046
-0.193597
-0.15691
-0.129659
-0.112673
-0.104964
-0.105344
-0.113907
-0.131087
-0.153654
-0.17269
-0.177747
-0.165403
-0.141164
-0.114438
-0.092375
-0.0781617
-0.0716186
-0.0713443
-0.0781382
-0.0937505
-0.114453
-0.129155
-0.12721
-0.110621
-0.08911
-0.0712937
-0.0596965
-0.0537959
-0.0554755
-0.0629421
-0.0689882
-0.067308
-0.0596619
-0.0510742
-0.0444801
-0.0402696
-0.040493
-0.0410669
-0.0396158
-0.0377575
-0.0326135
-0.0223357
-0.0157722
-0.00935463
-0.00388406
-0.28734
-0.285527
-0.286927
-0.292212
-0.301757
-0.315271
-0.33156
-0.348555
-0.363479
-0.372934
-0.373491
-0.362017
-0.33675
-0.298483
-0.252053
-0.204947
-0.1639
-0.132598
-0.111706
-0.100167
-0.0966968
-0.100983
-0.113408
-0.131771
-0.148716
-0.154915
-0.146113
-0.126679
-0.104457
-0.086177
-0.075162
-0.0713532
-0.0735797
-0.0831048
-0.101707
-0.12493
-0.140792
-0.137928
-0.119106
-0.0946187
-0.0738322
-0.0596899
-0.0515124
-0.0508507
-0.0559199
-0.0606697
-0.0592252
-0.0535379
-0.047255
-0.0429334
-0.0411079
-0.0433341
-0.0457791
-0.0441582
-0.0418192
-0.0354879
-0.0234758
-0.0157092
-0.00788161
-0.00288694
-0.262298
-0.26647
-0.274379
-0.286308
-0.302191
-0.321276
-0.342048
-0.362318
-0.37925
-0.389397
-0.390026
-0.377975
-0.35125
-0.310758
-0.261636
-0.211681
-0.16779
-0.133626
-0.109674
-0.0947946
-0.0876368
-0.0876699
-0.0952395
-0.109115
-0.123612
-0.130574
-0.125203
-0.110546
-0.0928618
-0.0784783
-0.0707898
-0.0697979
-0.0745633
-0.0867186
-0.10802
-0.133472
-0.150464
-0.14704
-0.126364
-0.0992733
-0.0757912
-0.0593099
-0.0490661
-0.046273
-0.049125
-0.0526603
-0.0513225
-0.047407
-0.0432278
-0.0411613
-0.0418262
-0.0461856
-0.050534
-0.0486213
-0.0456747
-0.0381756
-0.0245312
-0.0156244
-0.0064491
-0.00193267
-0.242082
-0.250271
-0.262472
-0.278669
-0.298393
-0.320671
-0.343903
-0.365987
-0.384343
-0.394475
-0.395135
-0.382988
-0.355878
-0.314763
-0.264876
-0.214001
-0.168931
-0.133142
-0.107034
-0.0894689
-0.0791123
-0.0752275
-0.0780853
-0.0873079
-0.0988633
-0.105976
-0.103565
-0.0933999
-0.0800731
-0.0695161
-0.0650995
-0.0668302
-0.0739832
-0.0884765
-0.11212
-0.139599
-0.157824
-0.154273
-0.132207
-0.10297
-0.0771652
-0.0586161
-0.0465508
-0.0418884
-0.0427508
-0.0451513
-0.0437687
-0.0413751
-0.0390543
-0.0391755
-0.0423896
-0.0489895
-0.0552695
-0.0529469
-0.0492842
-0.040637
-0.0254862
-0.0155201
-0.0050693
-0.00102587
-0.226095
-0.236912
-0.251215
-0.269306
-0.290654
-0.314122
-0.338078
-0.360712
-0.381321
-0.389667
-0.390286
-0.378376
-0.351719
-0.311411
-0.262623
-0.212758
-0.16809
-0.131794
-0.104308
-0.0846673
-0.0716328
-0.0643987
-0.0629751
-0.0675661
-0.0757684
-0.0822703
-0.0821358
-0.0758516
-0.0664823
-0.0595021
-0.0581104
-0.062328
-0.0715975
-0.0880573
-0.113673
-0.142982
-0.162541
-0.159337
-0.136501
-0.10567
-0.0779871
-0.0576859
-0.0440538
-0.0377918
-0.0369132
-0.038281
-0.0367134
-0.0355433
-0.0347957
-0.0369818
-0.0427541
-0.0516747
-0.059909
-0.0570598
-0.0525975
-0.0428362
-0.0263263
-0.0153978
-0.00375236
-0.000170058
-0.214244
-0.226338
-0.240925
-0.259015
-0.280276
-0.303372
-0.326475
-0.34726
-0.361757
-0.375491
-0.377135
-0.365825
-0.340348
-0.302088
-0.256016
-0.208799
-0.1659
-0.130103
-0.10194
-0.0807595
-0.0655448
-0.0555017
-0.0504598
-0.0507563
-0.05534
-0.060524
-0.0624652
-0.058481
-0.0525092
-0.0486912
-0.0499377
-0.0563221
-0.0673878
-0.0853889
-0.112525
-0.143386
-0.164357
-0.162094
-0.139179
-0.107351
-0.0782835
-0.056577
-0.0416328
-0.0340341
-0.0316743
-0.0321353
-0.0302711
-0.0299979
-0.030513
-0.0345859
-0.0428685
-0.0541562
-0.0643653
-0.0608705
-0.0555724
-0.0447414
-0.0270353
-0.0152549
-0.00250636
0.000633241
-0.206511
-0.21877
-0.232112
-0.24877
-0.268725
-0.290355
-0.311948
-0.332546
-0.347062
-0.357356
-0.358219
-0.34737
-0.323623
-0.288491
-0.24644
-0.203099
-0.162988
-0.128491
-0.100259
-0.0780136
-0.0610642
-0.0487154
-0.0406815
-0.0372395
-0.0382069
-0.0413588
-0.0434156
-0.0417505
-0.0386659
-0.0374619
-0.0408643
-0.049024
-0.0614903
-0.0805232
-0.108649
-0.140738
-0.163226
-0.162473
-0.140201
-0.108005
-0.0780706
-0.055326
-0.039323
-0.0306296
-0.0270373
-0.0267369
-0.0245186
-0.0248096
-0.0262738
-0.0319953
-0.0426767
-0.0563422
-0.0685409
-0.0642897
-0.0581855
-0.0463294
-0.0275999
-0.015086
-0.00133553
0.00138481
-0.202689
-0.214002
-0.224882
-0.239104
-0.256801
-0.275922
-0.294855
-0.31147
-0.326709
-0.334904
-0.334915
-0.324706
-0.303319
-0.272218
-0.235089
-0.196388
-0.1597
-0.127073
-0.0992911
-0.0764308
-0.0581727
-0.0440027
-0.0335805
-0.027056
-0.0246532
-0.0253533
-0.026691
-0.0264415
-0.0255261
-0.0262715
-0.0312695
-0.0407234
-0.0541444
-0.073711
-0.102232
-0.135195
-0.1593
-0.160421
-0.139545
-0.107641
-0.0773629
-0.0539597
-0.0371464
-0.0275802
-0.0229793
-0.0220571
-0.0194875
-0.0200345
-0.0221489
-0.0292221
-0.0421267
-0.0581378
-0.0723404
-0.0672334
-0.0604248
-0.0475873
-0.0280152
-0.0148943
-0.000242387
0.00208831
-0.201556
-0.210586
-0.218392
-0.229716
-0.244324
-0.260383
-0.277958
-0.291314
-0.302963
-0.309251
-0.308757
-0.299617
-0.281215
-0.254746
-0.222969
-0.189194
-0.156199
-0.125784
-0.0988747
-0.0758389
-0.0566905
-0.0411574
-0.0289086
-0.0199647
-0.0146401
-0.0127473
-0.0128271
-0.0131123
-0.0135022
-0.0155463
-0.0215593
-0.0317742
-0.0456451
-0.0651962
-0.0936473
-0.127153
-0.152815
-0.156081
-0.13732
-0.106381
-0.0762809
-0.0525969
-0.035188
-0.0249171
-0.0194914
-0.0180736
-0.0151798
-0.0157018
-0.018212
-0.0262733
-0.0411697
-0.0594537
-0.0756971
-0.0697012
-0.0622821
-0.0485134
-0.028286
-0.0146977
0.000761015
0.00274969
-0.200561
-0.206243
-0.211405
-0.219848
-0.230685
-0.242645
-0.254423
-0.267944
-0.277204
-0.282351
-0.281885
-0.274396
-0.259461
-0.237846
-0.21141
-0.182484
-0.15321
-0.125199
-0.0994909
-0.076668
-0.0569884
-0.0404312
-0.0267633
-0.0159141
-0.00814415
-0.00370714
-0.00205967
-0.00206881
-0.00285175
-0.00562454
-0.0120903
-0.022532
-0.0364382
-0.0556483
-0.0834885
-0.116994
-0.144124
-0.14974
-0.133771
-0.104487
-0.075087
-0.0514667
-0.0336223
-0.0227109
-0.0165462
-0.0147637
-0.0116453
-0.0118421
-0.01451
-0.023181
-0.039787
-0.0601928
-0.0785433
-0.0754742
-0.0637844
-0.0490997
-0.0284076
-0.0144974
0.00165489
0.00337404
-0.197464
-0.200122
-0.203742
-0.209466
-0.216714
-0.225589
-0.235213
-0.244396
-0.251845
-0.256287
-0.25632
-0.250923
-0.239646
-0.22281
-0.201502
-0.177255
-0.151674
-0.126177
-0.101865
-0.0794925
-0.0595142
-0.042133
-0.0272936
-0.014915
-0.00512781
0.00170949
0.00547924
0.00674773
0.00596909
0.00311542
-0.0031963
-0.0132683
-0.0266158
-0.0449684
-0.0721419
-0.105856
-0.133838
-0.141934
-0.128669
-0.101694
-0.0735411
-0.050321
-0.0322862
-0.0208311
-0.0139463
-0.0118877
-0.00881634
-0.00865956
-0.0111963
-0.0198876
-0.0379072
-0.0603474
-0.0806482
-0.0777344
-0.0647983
-0.0492827
-0.0283186
-0.0142301
0.0024647
0.00396963
-0.191761
-0.193696
-0.196053
-0.198774
-0.202737
-0.208601
-0.215283
-0.221905
-0.227073
-0.230308
-0.230483
-0.226695
-0.218409
-0.205567
-0.188645
-0.168554
-0.146456
-0.123566
-0.100979
-0.0795596
-0.0599039
-0.0423531
-0.0270163
-0.0139166
-0.00301977
0.0055443
0.0113228
0.0138658
0.012662
0.0106055
0.00462917
-0.00476499
-0.0173919
-0.034666
-0.0604152
-0.0930675
-0.121405
-0.129086
-0.120605
-0.0964364
-0.0699663
-0.0476087
-0.0299962
-0.0185334
-0.0112443
-0.00897003
-0.00599106
-0.00622489
-0.00832336
-0.0166679
-0.0356457
-0.0597302
-0.0818941
-0.0784914
-0.0652187
-0.0489674
-0.027896
-0.0138008
0.00330517
0.00456752
-0.184239
-0.189094
-0.190448
-0.191564
-0.194391
-0.198788
-0.203804
-0.208596
-0.212492
-0.214516
-0.213763
-0.209521
-0.201346
-0.1892
-0.173489
-0.154985
-0.134669
-0.113579
-0.0926551
-0.072647
-0.0540776
-0.0372614
-0.022316
-0.00930549
0.00179239
0.0109323
0.017781
0.0217268
0.0239186
0.0195965
0.0141054
0.00598227
-0.00530366
-0.0217545
-0.0481244
-0.0833531
-0.115266
-0.130522
-0.115162
-0.0904776
-0.0647481
-0.0433515
-0.0265405
-0.0156251
-0.00850569
-0.00618577
-0.00274435
-0.00171958
-0.0042425
-0.0122961
-0.0324339
-0.0585875
-0.0832422
-0.0800489
-0.0652781
-0.0483526
-0.0272199
-0.0132771
0.00417667
0.00513629
-0.175023
-0.181973
-0.183301
-0.183134
-0.1843
-0.187046
-0.190507
-0.1938
-0.196045
-0.196517
-0.194609
-0.189819
-0.181829
-0.170616
-0.156487
-0.140025
-0.121981
-0.103163
-0.0843211
-0.0660851
-0.0489234
-0.0331407
-0.0188964
-0.00631156
0.00465725
0.0140261
0.0214296
0.0259344
0.0267106
0.0249408
0.0205854
0.0138836
0.00399421
-0.0115184
-0.0380663
-0.0743794
-0.106722
-0.118705
-0.105651
-0.0823381
-0.058512
-0.0388657
-0.0233341
-0.0130398
-0.00608673
-0.00379237
-0.00032356
0.000260078
-0.0013817
-0.00906064
-0.0296907
-0.0572373
-0.0834996
-0.0800047
-0.064367
-0.0471623
-0.0262677
-0.0126036
0.00489424
0.00549273
-0.164305
-0.172545
-0.174147
-0.173211
-0.173119
-0.174641
-0.176936
-0.178888
-0.179767
-0.179103
-0.176497
-0.171599
-0.164158
-0.154105
-0.141614
-0.127084
-0.111074
-0.0942228
-0.0771567
-0.0604278
-0.0444716
-0.0296015
-0.0159907
-0.00379113
0.00696843
0.0162916
0.0239139
0.0289671
0.0306292
0.0294686
0.0259522
0.0202643
0.0111636
-0.0040374
-0.0302933
-0.0651819
-0.0955613
-0.106379
-0.0949621
-0.0737811
-0.0521873
-0.0343531
-0.0201025
-0.0104866
-0.00377871
-0.00151678
0.00190231
0.00247792
0.000965592
-0.00670555
-0.0275465
-0.0555648
-0.0825593
-0.0791331
-0.0628056
-0.0455279
-0.0251043
-0.0118189
0.00550544
0.00573979
-0.153094
-0.161684
-0.163612
-0.162479
-0.161711
-0.162286
-0.163526
-0.164467
-0.164448
-0.163089
-0.160103
-0.155241
-0.148299
-0.139196
-0.128029
-0.11509
-0.100811
-0.0857036
-0.0702799
-0.0550066
-0.0402649
-0.0263554
-0.0134555
-0.00173069
0.00872388
0.0178633
0.0255461
0.0310703
0.0335493
0.0332725
0.0308438
0.026283
0.01796
0.00311945
-0.0222021
-0.0550051
-0.0834539
-0.0933524
-0.083405
-0.0646864
-0.0455603
-0.0296675
-0.0168149
-0.00797796
-0.00158146
0.000660859
0.00403832
0.00465644
0.00313427
-0.00453226
-0.0252228
-0.0530287
-0.0804808
-0.0774407
-0.0606616
-0.0434384
-0.023706
-0.0109086
0.00600453
0.00590024
-0.141389
-0.150012
-0.152312
-0.151277
-0.150127
-0.149997
-0.15047
-0.150716
-0.150104
-0.14829
-0.145073
-0.140291
-0.133799
-0.125527
-0.115534
-0.104025
-0.0913202
-0.0778139
-0.0639141
-0.0500117
-0.0364397
-0.0234841
-0.01133
-0.000147524
0.00993555
0.0188091
0.0263829
0.0321693
0.0353164
0.0360273
0.0348517
0.0317254
0.0246631
0.0106445
-0.0136423
-0.0446192
-0.0707431
-0.0794684
-0.0711277
-0.0552632
-0.0388293
-0.0249409
-0.013526
-0.00553059
0.000499544
0.00273545
0.00605177
0.00668784
0.00519281
-0.00221396
-0.0222924
-0.0494832
-0.0771409
-0.0747278
-0.0578575
-0.0408788
-0.022062
-0.00987772
0.00638532
0.00596348
-0.129438
-0.138031
-0.14062
-0.139755
-0.138433
-0.13788
-0.137845
-0.137607
-0.136593
-0.134504
-0.1312
-0.126581
-0.120554
-0.113061
-0.104129
-0.0938934
-0.0825885
-0.0705176
-0.0580089
-0.0453899
-0.0329495
-0.0209496
-0.0095758
0.000999185
0.0106357
0.0191805
0.0265374
0.0322705
0.0360218
0.0375855
0.0375567
0.0359077
0.0303582
0.0173778
-0.00573753
-0.03438
-0.0574597
-0.0650645
-0.0586016
-0.0458154
-0.0321527
-0.020259
-0.0102707
-0.00315407
0.00245805
0.00469389
0.00793983
0.00859521
0.00714118
0.000258858
-0.0187947
-0.0449272
-0.0723496
-0.070827
-0.0543568
-0.037873
-0.0201768
-0.00872932
0.00664505
0.00592032
-0.117757
-0.126049
-0.128783
-0.128124
-0.126777
-0.126032
-0.125673
-0.125117
-0.123866
-0.121661
-0.118398
-0.114021
-0.108468
-0.101696
-0.0937106
-0.0846048
-0.074549
-0.0637775
-0.052551
-0.0411405
-0.0297925
-0.0187421
-0.00816954
0.00175098
0.0108772
0.0190407
0.0261377
0.0318359
0.0358463
0.0380109
0.0388109
0.0382523
0.0339418
0.0221973
0.00109606
-0.0242155
-0.0439156
-0.0507281
-0.0463463
-0.0366472
-0.0256943
-0.0157218
-0.00709553
-0.000859152
0.00429495
0.00653282
0.00971353
0.0103998
0.00897301
0.0027838
-0.0148423
-0.0393448
-0.0660437
-0.0656618
-0.0501647
-0.0344705
-0.0180708
-0.00746745
0.00678592
0.00577067
-0.106446
-0.114234
-0.117035
-0.116628
-0.115446
-0.11455
-0.113991
-0.113256
-0.111902
-0.109701
-0.106573
-0.102486
-0.0974075
-0.0913041
-0.084177
-0.0760871
-0.0671582
-0.0575688
-0.0475243
-0.0372472
-0.0269468
-0.0168319
-0.0070722
0.00216132
0.0107269
0.0184591
0.0252469
0.0308237
0.0349344
0.0374645
0.0387251
0.0387029
0.0352249
0.0250957
0.00702769
-0.0142732
-0.0307714
-0.0371997
-0.034906
-0.0280595
-0.0196037
-0.0114173
-0.00404749
0.00134443
0.00601905
0.00825716
0.0113865
0.0121221
0.0107017
0.00532409
-0.0104581
-0.0328081
-0.0583256
-0.059253
-0.045323
-0.0307458
-0.0157836
-0.0060971
0.00681783
0.00552455
-0.0954914
-0.102761
-0.10557
-0.105375
-0.104317
-0.103455
-0.102828
-0.102026
-0.100669
-0.0985554
-0.0956251
-0.0918647
-0.0872585
-0.0817862
-0.0754453
-0.068276
-0.0603671
-0.0518542
-0.0428991
-0.0336835
-0.0243843
-0.0151842
-0.00623963
0.00228694
0.0102561
0.0175098
0.0239368
0.0293128
0.0334077
0.0361197
0.037593
0.0377582
0.034896
0.0266278
0.0120232
-0.00522401
-0.0189548
-0.0252134
-0.0247334
-0.0202897
-0.0139962
-0.0074148
-0.00117409
0.00344243
0.00763814
0.00987561
0.0129753
0.0137937
0.0123906
0.00793618
-0.00567813
-0.025538
-0.0494576
-0.0517462
-0.0399209
-0.0267955
-0.0133714
-0.00462446
0.00676003
0.00520422
-0.085082
-0.0918035
-0.0945471
-0.0945278
-0.0936302
-0.0928386
-0.0922162
-0.0914237
-0.090131
-0.0881651
-0.0854773
-0.0820665
-0.0779291
-0.0730536
-0.0674367
-0.0611049
-0.0541226
-0.0465928
-0.0386426
-0.0304198
-0.022073
-0.0137601
-0.00562314
0.00218715
0.00953678
0.0162783
0.0222973
0.0274029
0.0313895
0.0341558
0.0357189
0.0359545
0.0336289
0.0271257
0.0157389
0.00212879
-0.00921863
-0.0152237
-0.0160667
-0.0134732
-0.00894699
-0.00376167
0.00148177
0.005415
0.00915094
0.0113905
0.0144953
0.0154666
0.0141468
0.0106915
-0.000628534
-0.0178844
-0.0398652
-0.043432
-0.0340993
-0.0227308
-0.0109032
-0.00305817
0.00664474
0.00484629
-0.0753385
-0.0814378
-0.0840497
-0.084171
-0.0834374
-0.08275
-0.0821807
-0.0814478
-0.0802667
-0.0784869
-0.0760689
-0.0730181
-0.0693392
-0.0650268
-0.0600783
-0.0545119
-0.0483742
-0.0417436
-0.0347201
-0.0274234
-0.0199775
-0.0125179
-0.00517155
0.00192376
0.00864243
0.0148498
0.0204263
0.0252069
0.0290154
0.031744
0.0333266
0.0336095
0.0317522
0.0267122
0.017995
0.0074568
-0.00176721
-0.00729109
-0.00892637
-0.00764686
-0.00449421
-0.000485279
0.00388579
0.00723992
0.0105483
0.0127889
0.0159358
0.0171793
0.0160822
0.0136338
0.00448493
-0.0102935
-0.0301058
-0.0347346
-0.0280503
-0.0186666
-0.00845204
-0.00141768
0.00651848
0.00450204
-0.0662089
-0.0716894
-0.0741455
-0.0743788
-0.0737911
-0.0732373
-0.0727485
-0.072103
-0.0710593
-0.0694858
-0.0673491
-0.0646577
-0.0614208
-0.0576378
-0.0533071
-0.0484412
-0.0430743
-0.0372663
-0.0310958
-0.0246597
-0.0180609
-0.0114151
-0.00483416
0.00155847
0.00764671
0.0133046
0.0184186
0.0228427
0.0264211
0.0290407
0.0305948
0.0309263
0.0294749
0.0256045
0.0190179
0.0109898
0.00364162
-0.0012157
-0.0031962
-0.00277876
-0.000647404
0.00240262
0.00601502
0.00889355
0.0118205
0.0140489
0.0172372
0.0188846
0.0182495
0.0167482
0.00939659
-0.00326867
-0.0207991
-0.0261488
-0.0220008
-0.0147119
-0.00608701
0.000254612
0.00642929
0.00423126
-0.0576941
-0.0626078
-0.0649059
-0.0652466
-0.0648561
-0.0643601
-0.0639393
-0.0633887
-0.0624921
-0.0611309
-0.0592748
-0.056933
-0.0541168
-0.0508286
-0.0470675
-0.0428424
-0.0381785
-0.0331218
-0.0277343
-0.0220944
-0.0162871
-0.0104106
-0.00456251
0.00114843
0.00661674
0.0117264
0.0163696
0.0204172
0.023731
0.0261985
0.0276997
0.0280917
0.0270066
0.024082
0.0191718
0.0131477
0.00742302
0.00331718
0.00130212
0.00120324
0.00260528
0.00490127
0.00786005
0.0103507
0.0129527
0.015149
0.0183232
0.0204375
0.0204981
0.0198139
0.0137509
0.00272911
-0.0124769
-0.0181382
-0.0161914
-0.0109645
-0.00386901
0.00188641
0.00640837
0.00408131
-0.0498417
-0.0542049
-0.0563138
-0.056703
-0.0564096
-0.0560461
-0.0557259
-0.0552866
-0.0545431
-0.0533925
-0.0518085
-0.0498
-0.047379
-0.0445494
-0.0413112
-0.0376705
-0.0336463
-0.0292739
-0.0246024
-0.0196951
-0.0146224
-0.00946653
-0.00431202
0.00074593
0.00561372
0.0101872
0.0143636
0.018028
0.0210624
0.0233578
0.0247981
0.0252629
0.0245148
0.0223646
0.0187658
0.0143235
0.00999123
0.00662654
0.00475751
0.00438894
0.00529219
0.00701679
0.00942232
0.0115911
0.0139174
0.0160615
0.0191402
0.0216501
0.0224016
0.0223105
0.0171273
0.00742336
-0.00545698
-0.0110494
-0.0108507
-0.00750744
-0.00185435
0.00337584
0.00645979
0.00405838
-0.0426298
-0.0464642
-0.0483764
-0.0487983
-0.0486095
-0.0483494
-0.0481218
-0.0477908
-0.0471953
-0.0462454
-0.0449179
-0.0432209
-0.041166
-0.0387575
-0.0359961
-0.032886
-0.0294415
-0.0256899
-0.02167
-0.0174327
-0.0130365
-0.00854963
-0.00404431
0.000396713
0.00469155
0.00874725
0.0124704
0.0157589
0.0185143
0.0206327
0.0220112
0.0225547
0.0221119
0.0205969
0.0180254
0.0148306
0.0116914
0.00896296
0.00733817
0.00687486
0.00745493
0.00876117
0.0107079
0.0126036
0.0146865
0.0167437
0.0196319
0.0223699
0.0235253
0.0237028
0.0192386
0.0107803
0.00013654
-0.00509024
-0.00616526
-0.00440447
-9.48672e-05
0.00460047
0.00655416
0.00411006
-0.0360116
-0.0393665
-0.0410912
-0.0415334
-0.0414372
-0.0412673
-0.0411217
-0.0408887
-0.0404297
-0.0396649
-0.0385734
-0.0371622
-0.0354416
-0.033416
-0.031086
-0.0284548
-0.0255328
-0.0223411
-0.0189106
-0.0152823
-0.0115037
-0.00763187
-0.00372776
0.000137925
0.00389319
0.00745637
0.0107478
0.0136753
0.0161626
0.0181071
0.0194259
0.0200446
0.0198701
0.0188717
0.0170911
0.0148592
0.0128276
0.0105177
0.0091931
0.00875588
0.00914321
0.0101524
0.0117264
0.0133839
0.0152393
0.0171606
0.01974
0.0221284
0.0236391
0.0238446
0.0201104
0.0129385
0.00431913
-0.000356553
-0.00225978
-0.00170112
0.0013746
0.00545256
0.00661907
0.00413836
-0.0299735
-0.032897
-0.0344431
-0.0348921
-0.0348728
-0.0347843
-0.0347081
-0.0345607
-0.0342234
-0.0336254
-0.0327468
-0.0315933
-0.0301739
-0.0284926
-0.0265498
-0.0243474
-0.0218932
-0.0192035
-0.0163025
-0.0132231
-0.0100039
-0.00669229
-0.00333878
-3.66377e-06
0.00325127
0.00635573
0.00924243
0.0118261
0.0140625
0.0158392
0.0170972
0.017781
0.0178331
0.0172452
0.0160516
0.0144289
0.0124532
0.0113545
0.010454
0.0101244
0.0104118
0.0112149
0.0124916
0.0139342
0.0155673
0.0173107
0.0195383
0.0216536
0.0229803
0.0230364
0.0200095
0.0141106
0.00721959
0.00320226
0.000814666
0.000567294
0.00254032
0.00590141
0.00655308
0.00403938
-0.0244921
-0.0270237
-0.0284001
-0.0288463
-0.0288889
-0.0288641
-0.0288489
-0.0287775
-0.0285494
-0.0280999
-0.0274106
-0.026486
-0.0253345
-0.0239594
-0.0223605
-0.020539
-0.0185005
-0.0162573
-0.0138284
-0.0112399
-0.00852326
-0.00571679
-0.00286259
-1.0795e-05
0.00278796
0.00547322
0.00799071
0.0102859
0.0122509
0.0138614
0.015056
0.0157892
0.016023
0.0157611
0.0150375
0.0139865
0.0127681
0.0119078
0.0112862
0.0110762
0.0113184
0.0119797
0.0130207
0.0142646
0.0156769
0.0172149
0.0190692
0.0208106
0.0218444
0.021699
0.0192716
0.0145283
0.00903126
0.00578043
0.00308051
0.00237834
0.00340411
0.00599985
0.00628145
0.00375497
-0.0195261
-0.0217081
-0.0229279
-0.0233642
-0.0234555
-0.0234866
-0.0235267
-0.0235173
-0.0233802
-0.0230595
-0.0225364
-0.0218133
-0.0208972
-0.0197911
-0.018495
-0.0170088
-0.0153365
-0.0134872
-0.0114758
-0.00932285
-0.00705326
-0.00469818
-0.00229177
0.000124686
0.00250889
0.00481013
0.00698161
0.00896979
0.01072
0.012183
0.0133131
0.0140756
0.0144488
0.0144421
0.0140838
0.0134849
0.0127594
0.012183
0.0117865
0.0116899
0.0119188
0.0124813
0.0133344
0.0143936
0.0155916
0.0169046
0.0183942
0.0197399
0.0204779
0.0201557
0.0181924
0.0144144
0.0099186
0.00595911
0.00457121
0.003737
0.00399572
0.00582985
0.00579448
0.00330607
-0.0150401
-0.0169147
-0.0179925
-0.0184151
-0.0185458
-0.0186238
-0.0187057
-0.018747
-0.0186868
-0.0184769
-0.0180977
-0.0175495
-0.0168379
-0.0159658
-0.014933
-0.0137391
-0.0123865
-0.0108818
-0.00923637
-0.00746621
-0.00559099
-0.00363551
-0.00162723
0.000400268
0.00241278
0.004368
0.00622587
0.00794199
0.00948415
0.0108033
0.0118631
0.0126354
0.0131075
0.0132889
0.0132035
0.0129361
0.0125597
0.0122385
0.012029
0.0120334
0.0122646
0.012755
0.0134582
0.0143476
0.0153422
0.0164228
0.01758
0.0185635
0.0190414
0.0185978
0.0169855
0.0139899
0.0104016
0.00728121
0.0056573
0.0046988
0.00437055
0.0054931
0.00516375
0.00277589
-0.011003
-0.0126079
-0.0135576
-0.0139637
-0.0141246
-0.0142402
-0.0143606
-0.014449
-0.0144483
-0.0143271
-0.0140684
-0.0136696
-0.0131337
-0.0124627
-0.0116568
-0.0107151
-0.0096389
-0.00843287
-0.00710539
-0.00566875
-0.00413823
-0.00253336
-0.00087566
0.000807797
0.00248945
0.00413608
0.00571608
0.00719002
0.00853035
0.00970348
0.0106882
0.0114535
0.011987
0.0122996
0.0124105
0.0123755
0.0122477
0.0121321
0.0120749
0.0121638
0.0124028
0.0128369
0.0134194
0.0141547
0.0149625
0.015821
0.0166881
0.0173623
0.0176294
0.0171221
0.0157766
0.0133955
0.0105557
0.00799881
0.00624851
0.00531767
0.0045881
0.0050792
0.00449347
0.00225731
-0.00738061
-0.00875036
-0.00958557
-0.00997332
-0.0101575
-0.0103031
-0.0104529
-0.0105772
-0.0106304
-0.0105819
-0.0104225
-0.0101491
-0.00976235
-0.00926293
-0.00865047
-0.00792419
-0.0070847
-0.00613502
-0.00508123
-0.00393252
-0.00270057
-0.00140036
-4.86862e-05
0.00133321
0.00272393
0.00409666
0.00542648
0.00668349
0.00784223
0.00887855
0.00976956
0.0105066
0.0110699
0.0114664
0.0117077
0.0118346
0.0118792
0.0119168
0.0119762
0.0121299
0.0123762
0.0127632
0.0132468
0.0138444
0.0144849
0.0151424
0.0157668
0.0161928
0.0162968
0.0157667
0.0146277
0.0127202
0.0104625
0.00833588
0.00668385
0.00568147
0.00469604
0.004654
0.00386696
0.00181247
-0.00413989
-0.00530631
-0.00604043
-0.00640944
-0.00661083
-0.0067798
-0.00695255
-0.00710548
-0.00720135
-0.00721453
-0.00713561
-0.00696529
-0.00670316
-0.00634822
-0.00589926
-0.00535536
-0.00471662
-0.00398491
-0.00316445
-0.002262
-0.00128628
-0.000248624
0.000838189
0.00195788
0.00309381
0.00422526
0.00533289
0.00639345
0.00738773
0.00829481
0.00909821
0.0097807
0.0103398
0.0107785
0.0110992
0.011331
0.0114913
0.0116346
0.0117762
0.0119746
0.0122234
0.0125678
0.0129687
0.0134456
0.0139403
0.0144234
0.0148506
0.0150877
0.015069
0.0145407
0.013565
0.0120182
0.0101974
0.00841675
0.00687384
0.00583835
0.00472024
0.00426086
0.00332858
0.00146294
-0.00125058
-0.00224229
-0.0028877
-0.00323803
-0.0034517
-0.00363846
-0.00382855
-0.00400355
-0.00413347
-0.00419688
-0.00418485
-0.00409733
-0.00393692
-0.00370162
-0.00338923
-0.00299834
-0.00252843
-0.00198044
-0.00135721
-0.000663523
9.4206e-05
0.00090755
0.00176697
0.00266031
0.00357494
0.00449505
0.00540571
0.00628889
0.00712974
0.00791128
0.00862011
0.00924532
0.00978065
0.0102278
0.0105869
0.0108774
0.011108
0.0113168
0.0115105
0.0117342
0.0119789
0.0122823
0.0126128
0.0129858
0.0133569
0.0136951
0.0139631
0.0140622
0.0139535
0.0134416
0.012595
0.011322
0.00982368
0.00831969
0.00689008
0.00584085
0.00467634
0.0039205
0.00289863
0.0012038
0.00131591
0.000473573
-9.44565e-05
-0.000426604
-0.00064858
-0.000848487
-0.00105127
-0.00124274
-0.00139903
-0.00150276
-0.0015462
-0.00152737
-0.00144704
-0.00130796
-0.00110807
-0.000844433
-0.000515221
-0.000120662
0.000337357
0.000855573
0.00142939
0.00205265
0.00271842
0.00341779
0.00414134
0.00487725
0.00561418
0.00633845
0.00703832
0.00770074
0.00831543
0.00887352
0.00936826
0.00979977
0.0101662
0.0104806
0.0107455
0.0109877
0.0112079
0.0114394
0.0116723
0.0119356
0.0122045
0.0124898
0.0127586