/*--------------------------------*- C++ -*----------------------------------*\
| =========                 |                                                 |
| \\      /  F ield         | OpenFOAM: The Open Source CFD Toolbox           |
|  \\    /   O peration     | Version:  2512                                  |
|   \\  /    A nd           | Website:  www.openfoam.com                      |
|    \\/     M anipulation  |                                                 |
\*---------------------------------------------------------------------------*/
FoamFile
{
    version     2.0;
    format      ascii;
    arch        "LSB;label=32;scalar=64";
    class       volVectorField;
    location    "130.5";
    object      U;
}
// * * * * * * * * * * * * * * * * * * * * * * * * * * * * * * * * * * * * * //

dimensions      [0 1 -1 0 0 0 0];

internalField   nonuniform List<vector> 
13248
(
(-0.0137174 0.0128039 9.63421e-20)
(-0.0232647 0.0268999 0)
(-0.0143298 0.0344578 -1.81819e-19)
(0.0123219 0.0371307 1.71266e-19)
(0.0560923 0.0362832 1.60216e-19)
(0.116389 0.0330488 0)
(0.192386 0.0283223 0)
(0.282796 0.0228015 3.90063e-19)
(0.385633 0.0169985 -2.30608e-22)
(0.498034 0.011235 -3.43665e-19)
(0.616243 0.0056412 3.2276e-19)
(0.735791 0.000175789 -2.02219e-19)
(0.851851 -0.0053304 0)
(0.959703 -0.0111133 -3.52296e-19)
(1.05523 -0.0174063 6.5739e-19)
(1.13534 -0.0243767 -1.57657e-19)
(1.19826 -0.0320799 -2.75572e-19)
(1.24366 -0.0404502 2.58733e-19)
(1.27254 -0.049269 0)
(1.28693 -0.0584421 0)
(1.28969 -0.0670844 0)
(1.28287 -0.0774088 0)
(1.27063 -0.0820596 7.0499e-20)
(1.24991 -0.103827 2.41906e-19)
(-0.0128534 0.0106945 -2.90719e-19)
(-0.0159035 0.0195241 1.97941e-19)
(0.00354682 0.0223708 -1.81477e-21)
(0.0441227 0.0214151 -2.61427e-19)
(0.104816 0.0183401 -1.60043e-19)
(0.184463 0.0144585 -1.5162e-19)
(0.281264 0.010701 -2.79602e-19)
(0.392456 0.0076674 2.64352e-19)
(0.514139 0.00564537 0)
(0.641346 0.00461766 5.90282e-22)
(0.768405 0.0042963 8.83019e-22)
(0.889507 0.00419831 2.00642e-19)
(0.999367 0.00375432 0)
(1.09381 0.00242847 0)
(1.17021 -0.000176542 2.36035e-19)
(1.22764 -0.00425116 -4.43778e-19)
(1.26682 -0.00975972 2.61381e-19)
(1.2898 -0.0164665 -2.45424e-19)
(1.29945 -0.0240028 -1.05873e-19)
(1.29897 -0.0319229 -1.90533e-19)
(1.29131 -0.0397608 -7.54773e-20)
(1.27901 -0.0473102 -1.4098e-19)
(1.26385 -0.0524731 2.11437e-19)
(1.2464 -0.0619204 5.85444e-20)
(-0.0107925 0.00831173 0)
(-0.0043704 0.0120901 0)
(0.0292305 0.0112125 9.25155e-20)
(0.087667 0.00806162 8.53251e-20)
(0.169022 0.00448223 -1.84467e-21)
(0.270868 0.00186085 -1.56501e-19)
(0.389582 0.00101794 0)
(0.520104 0.0022468 -1.31684e-19)
(0.656097 0.00536057 1.23947e-19)
(0.790527 0.00976749 3.13855e-22)
(0.916508 0.0146073 -2.13244e-19)
(1.02818 0.0189349 -1.95899e-19)
(1.12143 0.0219095 3.55981e-21)
(1.19423 0.0229431 -1.61512e-19)
(1.24665 0.0217799 3.88848e-19)
(1.2805 0.0184949 0)
(1.29881 0.0134284 -2.48647e-19)
(1.30508 0.00707752 1.21763e-19)
(1.30279 9.68465e-06 1.05794e-19)
(1.29482 -0.00730273 0)
(1.28344 -0.0142266 8.46501e-20)
(1.26994 -0.0210537 -2.83853e-19)
(1.25558 -0.0254449 2.66469e-19)
(1.24003 -0.0345661 1.60964e-19)
(-0.00699592 0.00552839 -1.02315e-19)
(0.0124971 0.00447042 -1.05722e-19)
(0.0640575 0.00103973 9.58327e-20)
(0.14397 -0.00257355 0)
(0.248732 -0.00461995 0)
(0.373777 -0.00387824 -3.26589e-21)
(0.512794 6.81363e-05 0)
(0.65791 0.00688281 -4.01714e-19)
(0.800512 0.0156329 3.73516e-19)
(0.932436 0.0250236 -4.61824e-19)
(1.04714 0.0336899 1.0631e-19)
(1.14053 0.0404755 0)
(1.21119 0.0446283 1.75999e-19)
(1.26018 0.0458751 -3.25596e-19)
(1.29034 0.0443779 7.77745e-20)
(1.30548 0.040609 1.97356e-19)
(1.3096 0.0351951 -9.87704e-21)
(1.30624 0.0287804 -2.17618e-19)
(1.29818 0.0219249 0)
(1.28737 0.0150848 0)
(1.27504 0.00860067 -7.61405e-20)
(1.26192 0.00253068 6.77167e-20)
(1.24857 -0.00191214 2.389e-19)
(1.23468 -0.00966107 -2.24349e-19)
(-0.000982712 0.00240891 -1.07375e-19)
(0.035675 -0.00304722 -1.07305e-19)
(0.108936 -0.00758536 3.01856e-19)
(0.213206 -0.0096466 -1.83765e-19)
(0.342566 -0.00794131 1.72962e-19)
(0.4894 -0.00180018 3.15226e-19)
(0.644144 0.00837636 -2.2274e-19)
(0.796303 0.0212895 -2.71081e-19)
(0.936075 0.0351332 5.39356e-21)
(1.05592 0.0480456 3.47748e-19)
(1.15154 0.0585097 0)
(1.22203 0.0656031 9.52046e-20)
(1.26931 0.0690558 0)
(1.29717 0.0691449 -1.553e-19)
(1.31017 0.0664954 2.18612e-19)
(1.31269 0.0618682 2.48643e-21)
(1.30843 0.0559941 -5.68166e-20)
(1.30008 0.0494785 1.06517e-19)
(1.28947 0.0427777 9.11373e-20)
(1.2777 0.0362067 -8.13844e-20)
(1.26541 0.0299963 7.61222e-20)
(1.25294 0.0241883 -6.76993e-20)
(1.24052 0.0194357 0)
(1.22799 0.0124287 -5.07429e-20)
(0.00764085 -0.000803614 1.07359e-19)
(0.0658477 -0.00975893 1.12507e-19)
(0.164182 -0.0135835 -1.01122e-19)
(0.294537 -0.0118432 1.88763e-19)
(0.447683 -0.004208 -1.77658e-19)
(0.612297 0.00892351 1.6109e-19)
(0.775695 0.025912 -7.72216e-20)
(0.925912 0.0443382 2.03452e-19)
(1.05386 0.0617052 -1.27683e-19)
(1.15461 0.076027 2.25799e-19)
(1.22747 0.0861553 -5.20575e-19)
(1.27513 0.0918141 1.90724e-19)
(1.30224 0.093412 -1.6712e-19)
(1.3141 0.0917524 1.56985e-19)
(1.31561 0.0877557 1.35255e-19)
(1.31065 0.0822635 1.18514e-19)
(1.30199 0.0759445 -3.29192e-19)
(1.2914 0.0692812 2.04238e-19)
(1.27993 0.0625995 -9.11409e-20)
(1.26814 0.0561162 2.36365e-19)
(1.25631 0.0499682 -7.6351e-20)
(1.24457 0.044237 -1.84079e-19)
(1.233 0.0392204 1.69665e-19)
(1.22144 0.0328196 5.07282e-20)
(0.0191612 -0.00372962 0)
(0.103312 -0.0146462 9.13713e-22)
(0.229359 -0.0155292 2.10828e-19)
(0.385967 -0.00765216 -1.97782e-19)
(0.559866 0.0077296 -1.78947e-19)
(0.735996 0.0286148 3.32647e-19)
(0.899646 0.0518972 -1.54515e-19)
(1.03938 0.0742354 2.05895e-19)
(1.14891 0.0929632 -4.58731e-21)
(1.2273 0.106569 -1.16481e-19)
(1.27775 0.114712 2.54185e-19)
(1.30577 0.117937 -3.74608e-19)
(1.31751 0.117257 0)
(1.31847 0.113797 -7.33902e-20)
(1.31292 0.108554 -1.9608e-19)
(1.30381 0.102294 6.16234e-20)
(1.29298 0.0955507 2.57037e-21)
(1.28147 0.0886741 -1.34903e-19)
(1.26979 0.0818849 8.79856e-21)
(1.25821 0.0753227 1.55839e-19)
(1.24682 0.0690787 -6.91615e-20)
(1.23566 0.0632254 -2.6062e-20)
(1.22471 0.057815 8.10274e-20)
(1.21388 0.0517362 0)
(0.0337266 -0.00589907 0)
(0.147871 -0.0165196 5.70749e-20)
(0.303148 -0.0119064 -2.73763e-19)
(0.484346 0.00427537 9.98694e-20)
(0.673918 0.0285203 -9.39899e-20)
(0.85395 0.0568694 -8.57389e-20)
(1.00969 0.0849085 -1.51845e-19)
(1.13247 0.108953 7.56848e-20)
(1.22031 0.126854 6.60501e-20)
(1.27655 0.138067 0)
(1.30753 0.14324 1.50103e-19)
(1.32034 0.143639 -2.23048e-19)
(1.32133 0.140661 1.66227e-19)
(1.31537 0.135523 7.34301e-20)
(1.30577 0.129142 -6.00916e-20)
(1.29452 0.122141 -5.03123e-20)
(1.28273 0.114913 -4.69599e-20)
(1.27093 0.107695 1.40474e-19)
(1.25936 0.100633 0)
(1.24811 0.0938211 7.04018e-20)
(1.23718 0.0873268 5.90126e-20)
(1.22656 0.0811998 -1.46713e-19)
(1.21618 0.0753967 -9.98362e-20)
(1.20598 0.0695104 9.24344e-20)
(0.0513089 -0.00679056 -6.08029e-20)
(0.198762 -0.0141658 -1.99645e-21)
(0.38334 -0.00136702 5.56085e-20)
(0.585631 0.0248184 1.55273e-19)
(0.784365 0.0581068 4.51338e-20)
(0.960595 0.0926144 -8.7155e-20)
(1.1019 0.123214 7.98056e-20)
(1.20411 0.14667 -7.01056e-20)
(1.27004 0.161943 1.25308e-19)
(1.30663 0.169687 5.35061e-20)
(1.32212 0.171453 -1.51524e-19)
(1.32396 0.168998 4.47935e-20)
(1.3179 0.163858 7.65281e-20)
(1.3078 0.157179 -3.7623e-20)
(1.29598 0.149722 0)
(1.2837 0.141954 5.63443e-20)
(1.27154 0.134145 9.54713e-20)
(1.25974 0.126453 1.64082e-20)
(1.24838 0.118974 -7.96369e-20)
(1.23747 0.111772 3.34229e-20)
(1.22696 0.104897 0)
(1.2168 0.0983654 -2.62686e-20)
(1.20692 0.0921191 -2.46536e-20)
(1.19724 0.0861966 0)
(0.0716557 -0.00587355 0)
(0.254619 -0.006492 3.17804e-20)
(0.466969 0.0170576 5.89134e-20)
(0.685344 0.0542171 -1.5776e-19)
(0.88623 0.0957474 5.0774e-20)
(1.05204 0.134364 0)
(1.17476 0.165122 7.65439e-20)
(1.25551 0.185984 -1.06791e-19)
(1.30143 0.197364 -6.24396e-20)
(1.32191 0.20108 2.83147e-20)
(1.32585 0.199351 -4.52111e-20)
(1.32022 0.194165 1.09842e-19)
(1.30976 0.187011 5.52459e-20)
(1.29731 0.178868 -3.83097e-20)
(1.28438 0.170324 -3.51339e-21)
(1.27167 0.161705 -1.05703e-19)
(1.25946 0.153191 4.81819e-20)
(1.24782 0.144884 -1.12301e-21)
(1.23676 0.136847 0)
(1.22622 0.129127 -3.34574e-20)
(1.21614 0.121753 0)
(1.20645 0.114717 7.59168e-20)
(1.19706 0.108016 -9.04909e-20)
(1.18786 0.101896 4.12548e-20)
(0.0942627 -0.00265301 -1.63768e-20)
(0.313522 0.00735418 -7.98951e-20)
(0.550565 0.0438275 9.07183e-20)
(0.7791 0.0920534 5.35074e-20)
(0.975587 0.140187 -2.56201e-20)
(1.12618 0.180496 4.29653e-20)
(1.22854 0.209178 -2.09075e-20)
(1.28898 0.225921 3.4846e-20)
(1.31789 0.232657 0)
(1.3259 0.232155 7.91932e-20)
(1.32167 0.227027 -3.13528e-21)
(1.31121 0.21927 -6.41388e-20)
(1.29817 0.210207 2.75893e-20)
(1.28449 0.200619 -3.12753e-20)
(1.27107 0.19093 -1.20392e-20)
(1.25829 0.181359 1.37406e-20)
(1.24621 0.172019 -1.0735e-20)
(1.23485 0.162975 -5.81969e-20)
(1.22414 0.154268 3.57137e-20)
(1.21401 0.145928 7.37829e-21)
(1.20438 0.137963 6.51526e-21)
(1.19515 0.130352 5.75394e-21)
(1.18624 0.123176 0)
(1.1775 0.116658 0)
(0.118452 0.00329725 1.63881e-20)
(0.373251 0.0279091 -1.64614e-20)
(0.630645 0.0788474 -3.02009e-20)
(0.863177 0.137347 0)
(1.04983 0.189889 -1.26888e-20)
(1.18236 0.229479 -1.13683e-20)
(1.26448 0.25425 -1.95337e-20)
(1.3069 0.265859 0)
(1.3221 0.267605 0)
(1.32091 0.262918 0)
(1.31118 0.254546 0)
(1.29777 0.244345 0)
(1.28334 0.233417 -1.73829e-20)
(1.26915 0.222348 7.93061e-21)
(1.25567 0.211429 1.38423e-20)
(1.24305 0.200795 6.46493e-21)
(1.23127 0.190514 1.61329e-20)
(1.22029 0.180622 0)
(1.21002 0.171144 -3.91726e-21)
(1.20038 0.162096 -3.71223e-21)
(1.19126 0.153464 -6.52557e-21)
(1.18257 0.145237 -5.76308e-21)
(1.17419 0.137578 0)
(1.16598 0.130515 4.19422e-21)
(-0.00251808 0.0489272 9.70006e-21)
(-0.00869392 0.112653 -1.00333e-20)
(-0.018332 0.151935 -1.89628e-20)
(-0.0301345 0.173128 0)
(-0.0431762 0.181555 -2.52751e-20)
(-0.0568752 0.181496 7.85579e-21)
(-0.0707633 0.176091 -1.51767e-20)
(-0.0844729 0.167368 0)
(-0.0977325 0.156412 0)
(-0.110342 0.1436 0)
(-0.122147 0.128854 0)
(-0.133021 0.111851 0)
(-0.14285 0.0921861 -2.59438e-22)
(-0.151523 0.0694669 -1.02827e-20)
(-0.158933 0.0433765 2.02858e-20)
(-0.165049 0.0137002 2.85787e-20)
(-0.169649 -0.0197119 9.50809e-21)
(-0.172551 -0.0566531 0)
(-0.173773 -0.0968741 7.7493e-21)
(-0.173211 -0.13988 -2.24925e-20)
(-0.17082 -0.184938 -1.4182e-20)
(-0.166614 -0.231096 -1.31351e-20)
(-0.160657 -0.277216 0)
(-0.153256 -0.321826 0)
(-0.00533191 0.051015 -2.9446e-20)
(-0.014023 0.118789 5.04821e-20)
(-0.023261 0.161711 -1.95159e-20)
(-0.0330442 0.185878 -3.64322e-20)
(-0.043166 0.196501 5.12188e-20)
(-0.0534043 0.19788 -3.26648e-20)
(-0.0634855 0.193255 4.58946e-20)
(-0.0731272 0.184782 2.97871e-20)
(-0.0820738 0.173669 0)
(-0.0901076 0.160397 -2.63929e-20)
(-0.097049 0.144959 -7.30882e-22)
(-0.102752 0.12708 2.32226e-20)
(-0.107098 0.106371 3.47477e-20)
(-0.109989 0.0824429 4.42344e-20)
(-0.111345 0.0549699 -1.96543e-20)
(-0.111099 0.0237348 -5.88171e-20)
(-0.109141 -0.0112832 1.98067e-20)
(-0.105432 -0.0500801 -7.27713e-20)
(-0.100012 -0.092315 0)
(-0.0928677 -0.137444 1.51941e-20)
(-0.0840939 -0.184656 1.41597e-20)
(-0.0738643 -0.232846 1.31142e-20)
(-0.0621116 -0.280635 0)
(-0.04878 -0.326052 0)
(-0.00810682 0.0511243 0)
(-0.019352 0.12079 1.05286e-19)
(-0.0280744 0.166407 -3.96085e-20)
(-0.035498 0.1933 3.70818e-20)
(-0.0421211 0.206235 -1.06417e-19)
(-0.0480943 0.209314 0)
(-0.0533668 0.205747 -6.39476e-20)
(-0.0577717 0.19776 3.03907e-20)
(-0.0610924 0.186677 -5.84325e-20)
(-0.0631073 0.173104 2.88055e-20)
(-0.0636157 0.157143 1.59451e-19)
(-0.0624514 0.138599 -7.50509e-20)
(-0.0594815 0.117137 -1.20733e-19)
(-0.0546066 0.0924023 -4.8692e-20)
(-0.0477595 0.0640912 -1.59859e-21)
(-0.0389002 0.0319982 1.68522e-19)
(-0.0280607 -0.00394638 -7.97713e-20)
(-0.0151921 -0.0436603 -2.02478e-21)
(-0.000339923 -0.0867952 0)
(0.0163319 -0.132804 -6.95175e-20)
(0.0346263 -0.180854 0)
(0.0541156 -0.22981 -5.63642e-20)
(0.0747648 -0.278022 2.1576e-19)
(0.098259 -0.323092 -3.30516e-21)
(-0.010559 0.0492774 0)
(-0.0241893 0.11848 1.07821e-21)
(-0.0323844 0.165553 4.10891e-20)
(-0.0373558 0.194642 -3.89673e-20)
(-0.0402038 0.209785 3.54283e-20)
(-0.0414332 0.214684 2.06744e-19)
(-0.0412341 0.212379 -6.48903e-20)
(-0.0395888 0.205086 -6.26434e-20)
(-0.0363555 0.194214 1.18137e-19)
(-0.0313378 0.180493 -1.69898e-19)
(-0.0243337 0.164152 5.39416e-20)
(-0.0151692 0.145102 5.24367e-20)
(-0.00370447 0.123092 0)
(0.0101653 0.0978193 4.68986e-20)
(0.0264981 0.0690086 0)
(0.045307 0.036475 8.86913e-20)
(0.0665662 0.000171138 -1.68532e-19)
(0.0902331 -0.0397545 3.7236e-20)
(0.116173 -0.083 1.50176e-19)
(0.144145 -0.128986 6.94278e-20)
(0.173767 -0.17686 0)
(0.204569 -0.22547 -1.81192e-19)
(0.235876 -0.273007 5.71961e-20)
(0.272455 -0.316398 0)
(-0.0124628 0.0457382 0)
(-0.0281242 0.112161 -1.3179e-19)
(-0.035878 0.159208 -4.17354e-20)
(-0.03855 0.18964 -7.83834e-20)
(-0.037671 0.206588 7.38019e-20)
(-0.0340409 0.213202 -6.92994e-20)
(-0.0280884 0.212224 1.33596e-19)
(-0.0199721 0.205766 6.42608e-20)
(-0.0096632 0.195266 -1.7941e-19)
(0.00297186 0.181555 1.16353e-19)
(0.0181075 0.164987 -1.6538e-19)
(0.035915 0.145592 3.72824e-19)
(0.0565395 0.123222 -2.01049e-19)
(0.0800878 0.0976459 9.80232e-20)
(0.106637 0.0686249 2.83033e-19)
(0.136207 0.0360327 -8.52976e-20)
(0.168759 -0.000151025 -8.3326e-20)
(0.204183 -0.039781 -8.01156e-20)
(0.24225 -0.0824973 0)
(0.282592 -0.127664 -1.4433e-19)
(0.324539 -0.174372 -1.32223e-19)
(0.367811 -0.221305 1.89158e-19)
(0.40894 -0.267236 2.22394e-19)
(0.460891 -0.307303 -2.08901e-19)
(-0.0137007 0.0409661 0)
(-0.0308979 0.102569 -1.80306e-19)
(-0.0383466 0.147981 -5.6498e-22)
(-0.0390514 0.178593 1.59108e-19)
(-0.0347571 0.196604 0)
(-0.0264681 0.204532 0)
(-0.0148213 0.204729 0)
(-0.000157552 0.199115 -6.4618e-20)
(0.0174154 0.189087 -1.83622e-21)
(0.037942 0.175527 1.15493e-19)
(0.0615505 0.158891 -1.69078e-19)
(0.0884047 0.139318 -1.69659e-21)
(0.118666 0.116759 0)
(0.152441 0.0910577 -9.79633e-20)
(0.189844 0.062089 9.65686e-20)
(0.230937 0.029751 -2.69012e-19)
(0.275621 -0.00594403 3.45123e-19)
(0.323683 -0.0447864 8.40525e-20)
(0.374697 -0.0863299 7.49128e-22)
(0.428064 -0.129819 -2.90061e-19)
(0.48241 -0.174341 -1.33344e-19)
(0.538274 -0.218004 4.27938e-19)
(0.587155 -0.261285 -2.83079e-19)
(0.653024 -0.295827 0)
(-0.014291 0.0355417 8.96265e-20)
(-0.0324572 0.0907694 9.0546e-20)
(-0.0397081 0.132956 -8.60915e-20)
(-0.0388207 0.162368 -1.61043e-19)
(-0.0315354 0.18038 1.51621e-19)
(-0.018953 0.188899 -1.43555e-19)
(-0.00185909 0.189845 2.02891e-19)
(0.0192514 0.184885 -6.48184e-20)
(0.0441429 0.175303 1.21619e-19)
(0.0727734 0.161977 0)
(0.105226 0.145414 1.13876e-19)
(0.141665 0.125835 -2.1151e-19)
(0.182274 0.103288 2.07059e-19)
(0.227243 0.0777331 -1.94463e-19)
(0.27665 0.0491081 0)
(0.330436 0.0173659 1.79341e-19)
(0.388401 -0.0173568 3.42941e-19)
(0.450048 -0.0547289 -3.22865e-19)
(0.51448 -0.0941906 -1.50837e-19)
(0.580667 -0.134772 -1.42736e-19)
(0.646078 -0.175783 3.99139e-19)
(0.712229 -0.214249 1.1501e-19)
(0.765612 -0.253329 -1.11764e-19)
(0.838953 -0.280041 9.44903e-20)
(-0.0143825 0.030065 -8.96389e-20)
(-0.0329486 0.0779705 2.76877e-19)
(-0.0399772 0.115533 -8.74474e-20)
(-0.0377217 0.142299 1.62419e-19)
(-0.0277421 0.159048 -1.52915e-19)
(-0.0111274 0.167173 -4.00873e-23)
(0.0112731 0.168188 6.77962e-20)
(0.0388778 0.163477 2.5873e-19)
(0.0713777 0.154166 2.87347e-21)
(0.108687 0.14107 -1.15243e-19)
(0.150867 0.124705 0)
(0.198093 0.105367 -1.07891e-19)
(0.250561 0.0831827 2.01475e-19)
(0.308379 0.0581878 1.96267e-19)
(0.371487 0.0303967 -9.2146e-20)
(0.439545 -5.5543e-05 -1.56588e-21)
(0.511853 -0.0328939 -8.4847e-20)
(0.587271 -0.0676316 1.56461e-19)
(0.664094 -0.103599 1.50796e-19)
(0.740556 -0.139599 -1.405e-19)
(0.81307 -0.175339 1.24454e-19)
(0.883219 -0.206844 -1.12913e-19)
(0.93592 -0.240084 0)
(1.00523 -0.257444 -9.44547e-20)
(-0.0142104 0.0250496 9.10546e-20)
(-0.0326339 0.065311 -9.27636e-20)
(-0.0391537 0.0971918 8.77192e-20)
(-0.035368 0.120007 0)
(-0.0225503 0.134223 0)
(-0.00168326 0.14088 1.44987e-19)
(0.0264206 0.141158 -1.35976e-19)
(0.061188 0.13618 1.29479e-19)
(0.102317 0.126894 -6.09268e-19)
(0.149725 0.114031 -1.26379e-21)
(0.203482 0.0981009 1.0978e-19)
(0.263682 0.0794232 0)
(0.330316 0.0581764 -2.02498e-19)
(0.403169 0.034508 3.83271e-19)
(0.481649 0.00859211 -2.73475e-19)
(0.564675 -0.0193032 -4.35843e-19)
(0.65062 -0.0487673 -1.30562e-21)
(0.737335 -0.0792002 3.02707e-19)
(0.82216 -0.109894 0)
(0.902487 -0.13965 0)
(0.974523 -0.16846 -1.24457e-19)
(1.03889 -0.192231 1.1292e-19)
(1.08366 -0.218552 -3.82533e-19)
(1.13597 -0.227058 3.58497e-19)
(-0.0140152 0.0208323 0)
(-0.0317302 0.0536542 0)
(-0.0370337 0.0792387 -2.63506e-19)
(-0.0309176 0.0971392 8.37683e-20)
(-0.0143382 0.107797 6.80859e-22)
(0.011899 0.112073 1.45705e-19)
(0.0471133 0.110925 0)
(0.0908236 0.105269 -1.28376e-19)
(0.142773 0.095914 1.21639e-19)
(0.202852 0.0835 -2.30699e-19)
(0.270951 0.0684986 -1.30473e-21)
(0.346808 0.0512399 2.09446e-19)
(0.429824 0.0319868 2.59407e-21)
(0.518918 0.0109787 1.91535e-19)
(0.612423 -0.0115195 -2.6732e-19)
(0.708065 -0.0351704 0)
(0.803043 -0.0595318 3.1674e-19)
(0.894211 -0.0840571 -4.48505e-19)
(0.978348 -0.108115 1.33726e-19)
(1.05255 -0.130879 0)
(1.11401 -0.152249 1.1103e-19)
(1.1627 -0.1693 4.03794e-19)
(1.19244 -0.188905 -3.7902e-19)
(1.22012 -0.191547 -3.92764e-19)
(-0.0139392 0.0175125 2.77275e-19)
(-0.0302169 0.0434438 -3.80157e-19)
(-0.0330149 0.0625985 1.24776e-21)
(-0.0229236 0.0751284 8.41563e-20)
(-0.000625054 0.0816803 -1.56275e-19)
(0.0332762 0.083102 -1.45349e-19)
(0.0782617 0.0802464 2.73196e-19)
(0.133938 0.0739133 2.30849e-22)
(0.199963 0.064795 -2.4187e-19)
(0.275912 0.0534469 4.59231e-19)
(0.36109 0.0403088 2.70792e-21)
(0.45432 0.0257118 -2.04826e-19)
(0.553809 0.00991745 0)
(0.657094 -0.00684699 0)
(0.761107 -0.024353 -8.82916e-20)
(0.862355 -0.0423445 -1.60849e-19)
(0.95721 -0.060511 -3.03754e-19)
(1.04223 -0.0785216 2.85145e-19)
(1.1146 -0.0959179 -1.33812e-19)
(1.17228 -0.112429 2.33297e-19)
(1.21452 -0.127504 -1.19835e-19)
(1.24189 -0.140419 1.79206e-19)
(1.25381 -0.154489 -4.3624e-19)
(1.25929 -0.15584 7.88108e-20)
(-0.0139307 0.0149436 9.33939e-20)
(-0.0276764 0.0346601 0)
(-0.0259816 0.047703 1.79368e-19)
(-0.009344 0.0549969 -1.68961e-19)
(0.0217115 0.0575325 1.56423e-19)
(0.0667136 0.0562669 0)
(0.125182 0.0520452 0)
(0.196551 0.0456008 -1.29209e-19)
(0.280006 0.0375393 -4.76382e-22)
(0.374254 0.0283408 1.13833e-19)
(0.477352 0.0183513 -1.0822e-19)
(0.586601 0.00779452 2.03364e-19)
(0.698587 -0.00320263 0)
(0.809372 -0.0145771 3.61684e-19)
(0.914806 -0.0262924 -6.77652e-19)
(1.01091 -0.0383042 4.78372e-19)
(1.09431 -0.0505227 2.89871e-19)
(1.16252 -0.0628324 -2.72136e-19)
(1.21431 -0.0749573 0)
(1.24958 -0.0869542 0)
(1.26985 -0.0978459 0)
(1.27673 -0.109239 0)
(1.27384 -0.118316 8.28336e-20)
(1.26534 -0.12467 -2.74382e-19)
(-0.144394 -0.370437 -6.9539e-21)
(-0.139503 -0.426594 7.00669e-21)
(-0.131394 -0.476467 -2.01873e-22)
(-0.120873 -0.516343 0)
(-0.106365 -0.542598 -5.10084e-21)
(-0.085561 -0.551045 9.7286e-21)
(-0.0559185 -0.537337 -8.28129e-23)
(-0.015368 -0.49773 -4.42695e-21)
(0.0362863 -0.430127 0)
(0.0971071 -0.334325 0)
(0.164137 -0.214447 -2.50147e-22)
(0.234625 -0.0773602 -2.4512e-22)
(0.305909 0.070529 -4.17148e-21)
(0.376137 0.220061 3.82707e-21)
(0.443382 0.356935 0)
(0.50407 0.465773 0)
(0.553818 0.536861 1.95454e-21)
(0.589789 0.570326 -3.14894e-22)
(0.612199 0.574098 -1.45462e-21)
(0.621186 0.562804 -7.62337e-23)
(0.613327 0.555177 0)
(0.587483 0.559787 0)
(0.554509 0.557891 0)
(0.536429 0.50838 0)
(0.550259 0.380491 0)
(0.594347 0.182969 0)
(0.65477 -0.0397094 6.45944e-22)
(0.716733 -0.235539 -1.0751e-21)
(0.768142 -0.371012 0)
(0.802349 -0.444464 0)
(0.819312 -0.469139 -3.64213e-22)
(0.825069 -0.465778 3.53978e-22)
(0.818062 -0.458999 1.37429e-22)
(0.790097 -0.469709 0)
(0.743315 -0.478954 0)
(0.69837 -0.436296 3.54415e-22)
(0.679613 -0.306376 -3.44519e-22)
(0.69282 -0.10817 0)
(0.726986 0.0896529 3.45429e-22)
(0.77035 0.245897 -4.82764e-22)
(0.810562 0.331092 1.17754e-22)
(0.835708 0.383956 0)
(0.829678 0.412536 -1.706e-22)
(0.791345 0.435614 1.65894e-22)
(0.749056 0.400607 0)
(0.727479 0.279289 0)
(0.740441 0.108907 -9.89362e-23)
(0.779345 -0.0877384 2.89779e-22)
(0.81704 -0.195073 0)
(0.833292 -0.307861 0)
(0.811916 -0.341835 -4.80616e-23)
(0.777902 -0.36561 2.78887e-24)
(0.768909 -0.303139 -2.03818e-24)
(0.781539 -0.128079 3.27108e-23)
(0.805551 -0.026905 0)
(0.810329 0.21272 0)
(0.801994 0.259597 0)
(0.790784 0.338816 0)
(0.795501 0.316779 0)
(0.784461 0.0257541 0)
(-0.0375304 -0.373946 -7.65717e-22)
(-0.0382443 -0.430821 -2.86197e-20)
(-0.0385834 -0.482063 2.3396e-21)
(-0.0407617 -0.524116 2.46146e-20)
(-0.043808 -0.554113 3.32132e-22)
(-0.0451819 -0.568738 0)
(-0.0413041 -0.563756 -1.65119e-20)
(-0.0280212 -0.534605 3.20861e-20)
(-0.00137181 -0.47767 -1.55614e-20)
(0.0390589 -0.392085 1.49759e-20)
(0.0900856 -0.27775 -1.43054e-20)
(0.149872 -0.142096 1.40735e-20)
(0.216725 0.00531178 -1.35938e-20)
(0.287235 0.155926 -3.52932e-22)
(0.358156 0.297002 -1.02901e-20)
(0.426157 0.413886 9.99981e-21)
(0.486506 0.496504 -6.97554e-21)
(0.53544 0.5428 6.59843e-21)
(0.571036 0.559222 -5.20177e-21)
(0.590508 0.56082 9.88404e-21)
(0.59017 0.565411 -4.69927e-21)
(0.572764 0.576934 -3.11618e-22)
(0.553657 0.571704 -6.14059e-21)
(0.554489 0.509427 1.31163e-20)
(0.586294 0.366381 -6.94685e-21)
(0.642708 0.157443 5.28016e-22)
(0.708668 -0.0705391 7.90417e-21)
(0.769361 -0.264841 -7.64614e-22)
(0.814172 -0.393081 -1.13671e-20)
(0.839215 -0.456983 8.80341e-21)
(0.845804 -0.473846 -3.75537e-21)
(0.841914 -0.464488 3.20969e-22)
(0.8284 -0.450383 -1.37698e-22)
(0.797264 -0.452784 2.38406e-22)
(0.746691 -0.458507 0)
(0.694713 -0.421699 0)
(0.667386 -0.304239 -1.39039e-21)
(0.67419 -0.118091 1.02147e-21)
(0.706983 0.0726843 9.28406e-22)
(0.753057 0.228082 -3.14331e-23)
(0.799193 0.317756 -1.11489e-21)
(0.828299 0.379819 1.85676e-22)
(0.825886 0.418881 0)
(0.790552 0.447793 0)
(0.753856 0.410901 0)
(0.737133 0.28168 0)
(0.751537 0.102791 4.7883e-22)
(0.790298 -0.0980169 -1.93742e-22)
(0.825486 -0.2024 0)
(0.842523 -0.307101 0)
(0.81908 -0.335265 0)
(0.784758 -0.360115 -7.35645e-23)
(0.773542 -0.303597 1.79697e-23)
(0.782788 -0.132293 -7.1859e-23)
(0.804667 -0.0301265 0)
(0.805411 0.213247 0)
(0.799168 0.260977 3.71237e-23)
(0.787103 0.339369 8.4863e-23)
(0.794645 0.317245 0)
(0.786084 0.0269453 0)
(0.111826 -0.370513 -3.48278e-21)
(0.109325 -0.424821 -6.5465e-20)
(0.104432 -0.474442 5.43539e-20)
(0.0943798 -0.515203 -5.08474e-20)
(0.0784536 -0.545383 -3.34333e-22)
(0.0582227 -0.563252 0)
(0.0371848 -0.56583 -3.0581e-20)
(0.0205016 -0.548523 2.9881e-20)
(0.0141578 -0.505666 2.19973e-22)
(0.0248009 -0.43551 3.33796e-22)
(0.0530983 -0.335127 3.14728e-22)
(0.0945454 -0.206987 4.03087e-22)
(0.149461 -0.0636783 -2.12645e-20)
(0.215237 0.0856054 2.10205e-20)
(0.286441 0.229423 0)
(0.358489 0.353131 4.19888e-22)
(0.426592 0.446531 -1.19166e-20)
(0.485947 0.506044 1.17606e-20)
(0.532278 0.536906 0)
(0.560682 0.553251 0)
(0.568478 0.57017 -1.00718e-20)
(0.562054 0.586946 2.11271e-20)
(0.559302 0.577246 -2.356e-20)
(0.579457 0.503949 -2.20459e-21)
(0.628003 0.35005 3.12282e-20)
(0.695382 0.134368 -3.45566e-20)
(0.765798 -0.0954392 3.21228e-20)
(0.824252 -0.286641 -3.09018e-21)
(0.861523 -0.407938 -1.32112e-20)
(0.876959 -0.46353 0)
(0.873501 -0.474025 0)
(0.860287 -0.460373 1.72342e-21)
(0.840481 -0.440489 -2.29791e-21)
(0.806943 -0.435135 -1.90086e-23)
(0.75393 -0.43713 1.91491e-21)
(0.695906 -0.406181 -1.86107e-21)
(0.66001 -0.302084 0)
(0.659854 -0.129166 3.31428e-22)
(0.690745 0.0534524 2.49633e-21)
(0.738851 0.207587 -4.43281e-21)
(0.790137 0.302103 1.7936e-21)
(0.822743 0.373992 1.63345e-22)
(0.82416 0.423873 -1.74932e-21)
(0.792484 0.458761 1.37351e-21)
(0.761789 0.420638 4.28422e-22)
(0.750124 0.284604 5.00538e-22)
(0.765819 0.0982095 -4.80048e-22)
(0.803812 -0.106787 0)
(0.835915 -0.208845 0)
(0.853365 -0.305805 -1.02052e-21)
(0.827841 -0.328375 4.62391e-22)
(0.792898 -0.35435 -3.18548e-22)
(0.779318 -0.304071 3.85134e-22)
(0.785299 -0.136291 4.35223e-22)
(0.805301 -0.0332199 -1.28517e-22)
(0.801894 0.213668 1.85743e-22)
(0.797459 0.262245 -1.52295e-22)
(0.784274 0.339609 5.8693e-23)
(0.794839 0.317359 0)
(0.788828 0.028026 0)
(0.285897 -0.363336 -1.39292e-19)
(0.284973 -0.41519 1.22556e-20)
(0.277955 -0.460579 1.20602e-19)
(0.264666 -0.495997 -7.78864e-22)
(0.242451 -0.52113 0)
(0.211196 -0.536033 0)
(0.172758 -0.540249 -5.40991e-20)
(0.131609 -0.531451 6.03304e-21)
(0.0927407 -0.504984 6.5066e-20)
(0.0661805 -0.453976 -1.84603e-21)
(0.0622623 -0.374014 -1.80429e-20)
(0.0771225 -0.264364 -1.60174e-20)
(0.110948 -0.131768 1.59748e-20)
(0.165082 0.0134772 0)
(0.23139 0.156743 -1.27754e-20)
(0.303173 0.285408 1.16833e-20)
(0.375272 0.388541 0)
(0.441434 0.461352 0)
(0.495338 0.507549 8.28991e-21)
(0.531183 0.539065 4.9972e-22)
(0.547948 0.567271 -8.02893e-21)
(0.554702 0.587635 -1.12036e-20)
(0.56982 0.57352 1.12928e-20)
(0.608951 0.492471 -1.60243e-20)
(0.672691 0.332596 -1.95224e-21)
(0.749719 0.114505 1.71007e-20)
(0.824019 -0.114501 2.19846e-21)
(0.880075 -0.30175 -1.65589e-23)
(0.909546 -0.416666 0)
(0.915197 -0.4651 8.11364e-21)
(0.902142 -0.4703 -8.30561e-21)
(0.880077 -0.453757 3.21134e-22)
(0.854031 -0.429854 0)
(0.818514 -0.4175 -2.22085e-22)
(0.764558 -0.415025 3.32359e-21)
(0.702026 -0.389137 -6.51831e-21)
(0.657944 -0.298985 -9.49719e-22)
(0.650259 -0.140751 -1.78326e-22)
(0.678468 0.0324337 3.5707e-21)
(0.72771 0.184759 4.6671e-22)
(0.783261 0.284266 -2.88395e-21)
(0.818944 0.36631 2.45106e-21)
(0.824378 0.427148 9.94663e-24)
(0.796924 0.468186 1.63775e-21)
(0.772486 0.429743 -2.02217e-21)
(0.766041 0.288245 -3.72751e-21)
(0.782949 0.0955306 9.75466e-22)
(0.819699 -0.113818 1.71424e-21)
(0.848201 -0.214414 -2.97786e-21)
(0.865644 -0.304104 1.82167e-21)
(0.838032 -0.321188 -3.23799e-22)
(0.802131 -0.348197 4.68597e-22)
(0.785991 -0.304447 2.88759e-22)
(0.788889 -0.140103 -5.75149e-22)
(0.807364 -0.036232 -1.03119e-23)
(0.799746 0.213999 -1.42388e-22)
(0.796854 0.263461 0)
(0.782318 0.339544 -6.14812e-23)
(0.796123 0.3171 1.47073e-22)
(0.792721 0.0289951 0)
(0.470462 -0.352745 1.41366e-19)
(0.469581 -0.403352 -2.64744e-19)
(0.462469 -0.444656 1.21959e-19)
(0.447851 -0.474172 9.26618e-20)
(0.423398 -0.492261 -1.67152e-19)
(0.388501 -0.49968 1.33138e-20)
(0.342922 -0.498119 6.02273e-20)
(0.287661 -0.489305 3.84043e-20)
(0.226637 -0.472403 -3.76312e-20)
(0.169102 -0.439252 0)
(0.127172 -0.383469 -2.24596e-20)
(0.106507 -0.301217 4.24952e-20)
(0.111064 -0.188702 -2.02581e-20)
(0.142164 -0.0557936 0)
(0.194544 0.0822722 0)
(0.260628 0.213183 3.10201e-22)
(0.331943 0.324399 -1.39312e-20)
(0.400708 0.409766 1.35335e-20)
(0.459163 0.470964 0)
(0.501552 0.516899 1.52537e-20)
(0.528364 0.554918 -3.16194e-20)
(0.550023 0.577848 3.74028e-20)
(0.583645 0.560611 -4.64744e-20)
(0.640507 0.475901 -6.24944e-21)
(0.717543 0.315145 6.68013e-20)
(0.803282 0.0984071 -3.56448e-20)
(0.881509 -0.127618 -1.12163e-21)
(0.935426 -0.309917 -1.33445e-20)
(0.957178 -0.4188 2.83718e-21)
(0.953082 -0.461449 1.07569e-20)
(0.931053 -0.462706 4.27285e-22)
(0.900961 -0.444627 -4.50844e-21)
(0.868957 -0.418553 7.92549e-21)
(0.831712 -0.400484 -3.8189e-21)
(0.778089 -0.393111 0)
(0.712887 -0.370994 -3.45573e-21)
(0.661455 -0.2946 3.42106e-21)
(0.645726 -0.15223 -3.07778e-21)
(0.670301 0.0101911 3.83239e-21)
(0.719536 0.159921 -3.40633e-22)
(0.778353 0.264257 0)
(0.816715 0.356486 -2.98267e-22)
(0.826312 0.428315 9.63528e-22)
(0.803545 0.47579 0)
(0.785465 0.438144 5.05488e-21)
(0.784387 0.292669 -1.79844e-21)
(0.802518 0.0947039 1.12574e-21)
(0.837679 -0.11896 1.03917e-21)
(0.862168 -0.218994 0)
(0.879164 -0.301962 0)
(0.849504 -0.313661 -1.10004e-21)
(0.812314 -0.341562 1.48037e-21)
(0.79333 -0.304665 -6.84741e-22)
(0.79335 -0.143789 1.69467e-22)
(0.810738 -0.0392159 2.896e-22)
(0.798916 0.214258 1.42525e-22)
(0.797338 0.264674 -2.11022e-22)
(0.781252 0.33918 0)
(0.798525 0.316436 -2.1752e-22)
(0.797782 0.0298566 -9.70468e-23)
(0.65645 -0.339158 1.40743e-19)
(0.652828 -0.386982 -1.40025e-19)
(0.64431 -0.424409 9.15241e-22)
(0.627375 -0.449665 -7.57779e-22)
(0.600468 -0.463097 6.49773e-22)
(0.564113 -0.464618 -5.24218e-22)
(0.517965 -0.455612 7.70912e-22)
(0.460924 -0.439592 0)
(0.393178 -0.419969 -3.9973e-22)
(0.318878 -0.395337 2.67311e-22)
(0.247877 -0.35974 1.71693e-22)
(0.191109 -0.30462 -2.52628e-22)
(0.158499 -0.221364 0)
(0.156166 -0.111832 0)
(0.183677 0.0140138 6.82346e-23)
(0.234256 0.141277 0)
(0.297567 0.256819 -7.35653e-23)
(0.363895 0.352374 0)
(0.424156 0.426978 -9.69735e-21)
(0.472588 0.485777 2.1104e-20)
(0.510348 0.532154 -2.59312e-20)
(0.547819 0.557346 1.43245e-20)
(0.599543 0.539045 2.4257e-20)
(0.672261 0.454885 -2.3552e-20)
(0.760676 0.297949 -3.60846e-20)
(0.854428 0.0858797 3.51686e-20)
(0.936872 -0.135071 0)
(0.989076 -0.311477 9.72591e-22)
(1.00349 -0.414707 0)
(0.98997 -0.453036 0)
(0.95971 -0.451732 1.109e-20)
(0.922587 -0.433215 -1.15851e-20)
(0.885016 -0.406631 4.49677e-22)
(0.846093 -0.384416 3.79056e-22)
(0.79383 -0.372016 -2.83035e-22)
(0.727898 -0.35208 -2.5102e-21)
(0.670513 -0.288571 2.43758e-21)
(0.646488 -0.162933 -3.24519e-21)
(0.66624 -0.0126028 2.76614e-21)
(0.714119 0.133406 6.26043e-22)
(0.775133 0.242065 -2.31578e-21)
(0.815811 0.344224 -4.097e-22)
(0.829648 0.427002 1.71321e-21)
(0.811914 0.481343 0)
(0.800155 0.445748 -1.90351e-21)
(0.804474 0.297771 3.69866e-21)
(0.824004 0.0958133 -4.69359e-21)
(0.857491 -0.12202 -1.04576e-21)
(0.877622 -0.222467 0)
(0.893694 -0.299387 4.02427e-22)
(0.862088 -0.305787 -9.58405e-22)
(0.823334 -0.334327 -1.51366e-23)
(0.801135 -0.304639 -1.41222e-22)
(0.798457 -0.147423 1.6763e-22)
(0.815272 -0.0422441 -2.22548e-22)
(0.799341 0.214445 0)
(0.798894 0.265925 2.11121e-22)
(0.781093 0.338518 0)
(0.802068 0.315337 0)
(0.80402 0.0305853 1.16017e-22)