/*--------------------------------*- C++ -*----------------------------------*\
| =========                 |                                                 |
| \\      /  F ield         | OpenFOAM: The Open Source CFD Toolbox           |
|  \\    /   O peration     | Version:  2512                                  |
|   \\  /    A nd           | Website:  www.openfoam.com                      |
|    \\/     M anipulation  |                                                 |
\*---------------------------------------------------------------------------*/
FoamFile
{
    version     2.0;
    format      ascii;
    arch        "LSB;label=32;scalar=64";
    class       volScalarField;
    location    "150.25";
    object      p;
}
// * * * * * * * * * * * * * * * * * * * * * * * * * * * * * * * * * * * * * //

dimensions      [0 2 -2 0 0 0 0];

internalField   nonuniform List<scalar> 
13248
(
-0.391127
-0.389409
-0.387693
-0.385986
-0.384205
-0.382227
-0.379831
-0.37673
-0.372605
-0.367146
-0.360089
-0.351257
-0.340583
-0.328133
-0.314094
-0.298757
-0.282479
-0.265647
-0.248634
-0.231788
-0.215348
-0.19961
-0.184366
-0.169973
-0.399893
-0.397221
-0.394544
-0.391868
-0.389095
-0.386119
-0.382717
-0.378583
-0.37338
-0.366799
-0.358603
-0.348676
-0.337032
-0.323825
-0.309315
-0.293839
-0.277761
-0.261436
-0.245181
-0.229261
-0.213863
-0.19916
-0.185068
-0.171865
-0.409384
-0.4057
-0.402016
-0.398323
-0.394499
-0.390439
-0.385905
-0.380566
-0.374075
-0.366144
-0.356598
-0.345408
-0.332691
-0.318689
-0.303719
-0.288133
-0.272273
-0.256441
-0.240882
-0.225786
-0.211274
-0.197461
-0.184263
-0.171773
-0.419956
-0.415163
-0.410428
-0.405692
-0.400764
-0.395509
-0.38966
-0.382862
-0.374783
-0.365201
-0.354046
-0.34141
-0.327521
-0.312696
-0.297279
-0.281606
-0.265965
-0.250586
-0.235638
-0.221241
-0.207468
-0.194389
-0.181916
-0.170203
-0.431859
-0.425837
-0.420005
-0.414193
-0.408076
-0.401457
-0.39403
-0.385443
-0.375432
-0.363898
-0.350922
-0.336734
-0.32166
-0.306055
-0.29025
-0.274525
-0.259096
-0.244113
-0.229679
-0.215855
-0.202677
-0.190172
-0.178276
-0.167109
-0.445172
-0.437807
-0.430832
-0.423884
-0.416429
-0.408185
-0.398824
-0.388056
-0.375759
-0.362018
-0.34709
-0.33133
-0.31512
-0.298805
-0.282664
-0.266898
-0.251642
-0.236979
-0.222953
-0.209585
-0.196882
-0.184841
-0.173417
-0.1627
-0.459768
-0.450983
-0.442818
-0.434623
-0.425592
-0.415354
-0.403625
-0.390268
-0.375381
-0.359275
-0.342371
-0.325106
-0.30786
-0.290921
-0.274489
-0.258681
-0.243559
-0.229147
-0.215447
-0.20245
-0.190138
-0.17849
-0.167475
-0.157124
-0.475295
-0.465075
-0.45567
-0.446049
-0.435096
-0.422405
-0.407842
-0.391531
-0.373858
-0.355353
-0.336555
-0.317913
-0.299752
-0.282275
-0.265589
-0.249735
-0.234712
-0.2205
-0.207069
-0.194385
-0.182414
-0.171121
-0.160482
-0.150462
-0.491174
-0.479571
-0.468862
-0.457554
-0.44424
-0.428595
-0.410777
-0.391272
-0.370766
-0.349962
-0.329436
-0.309589
-0.290649
-0.272721
-0.255824
-0.239932
-0.224996
-0.210962
-0.197773
-0.185377
-0.173724
-0.162773
-0.152493
-0.142791
-0.506592
-0.493721
-0.481612
-0.468275
-0.452114
-0.433056
-0.4117
-0.388941
-0.365723
-0.342834
-0.320812
-0.299954
-0.280379
-0.26209
-0.245034
-0.22913
-0.214293
-0.20044
-0.187493
-0.175382
-0.164048
-0.15344
-0.143506
-0.134126
-0.520531
-0.506537
-0.492883
-0.477115
-0.457636
-0.434827
-0.409832
-0.383938
-0.358256
-0.333566
-0.310301
-0.288633
-0.268566
-0.250019
-0.232877
-0.217015
-0.202318
-0.18868
-0.176005
-0.16421
-0.153223
-0.142982
-0.133404
-0.124379
-0.531859
-0.516928
-0.501565
-0.482945
-0.459721
-0.432925
-0.404302
-0.37547
-0.34761
-0.32141
-0.29716
-0.274891
-0.2545
-0.23583
-0.218713
-0.202989
-0.188517
-0.17517
-0.162839
-0.151429
-0.140859
-0.131055
-0.121907
-0.113353
-0.347584
-0.349671
-0.350874
-0.351654
-0.352471
-0.353511
-0.354861
-0.356558
-0.358607
-0.360997
-0.363715
-0.36675
-0.370084
-0.373693
-0.377538
-0.381557
-0.385658
-0.389715
-0.393569
-0.397018
-0.399807
-0.401623
-0.402242
-0.401862
-0.343007
-0.345849
-0.34748
-0.348485
-0.349401
-0.350397
-0.351533
-0.352818
-0.354226
-0.355711
-0.357224
-0.358709
-0.360106
-0.361351
-0.362373
-0.363086
-0.363397
-0.363198
-0.362379
-0.360826
-0.35837
-0.354758
-0.350019
-0.345197
-0.339738
-0.343151
-0.345118
-0.346307
-0.347299
-0.348239
-0.349155
-0.350028
-0.350797
-0.351381
-0.351689
-0.351619
-0.351071
-0.349937
-0.348111
-0.345487
-0.341961
-0.337436
-0.331843
-0.325136
-0.317227
-0.307904
-0.297378
-0.287705
-0.338232
-0.341986
-0.344174
-0.345502
-0.346553
-0.347442
-0.348164
-0.348666
-0.348857
-0.348618
-0.347817
-0.346315
-0.343966
-0.34063
-0.336171
-0.330464
-0.323402
-0.314903
-0.304926
-0.293492
-0.280613
-0.266148
-0.250277
-0.23569
-0.33874
-0.342585
-0.344869
-0.346282
-0.347375
-0.348224
-0.348789
-0.348984
-0.348686
-0.347742
-0.345985
-0.343239
-0.339325
-0.334075
-0.327332
-0.318967
-0.308882
-0.297018
-0.283373
-0.268023
-0.25111
-0.23267
-0.212736
-0.193643
-0.34129
-0.344986
-0.347231
-0.348665
-0.349773
-0.350585
-0.351027
-0.35098
-0.350291
-0.348776
-0.346237
-0.342467
-0.337264
-0.33044
-0.321833
-0.311319
-0.298826
-0.284338
-0.267908
-0.249671
-0.229864
-0.208792
-0.186478
-0.16219
-0.345808
-0.34905
-0.3511
-0.352472
-0.353546
-0.354306
-0.35464
-0.354399
-0.353399
-0.35143
-0.348268
-0.343683
-0.337457
-0.329395
-0.319341
-0.307194
-0.292923
-0.276575
-0.258277
-0.238249
-0.216799
-0.194267
-0.170938
-0.146377
-0.351768
-0.354423
-0.356155
-0.357366
-0.358329
-0.358985
-0.359188
-0.358756
-0.357479
-0.355123
-0.351442
-0.346191
-0.339146
-0.330117
-0.31897
-0.305645
-0.29017
-0.272666
-0.253356
-0.232547
-0.210647
-0.187945
-0.165621
-0.141089
-0.35883
-0.360729
-0.362002
-0.362927
-0.363666
-0.364117
-0.36411
-0.36343
-0.361842
-0.359089
-0.354913
-0.349056
-0.341302
-0.331483
-0.319503
-0.30536
-0.289158
-0.271105
-0.25151
-0.230752
-0.209366
-0.187422
-0.166906
-0.143998
-0.366543
-0.367585
-0.368267
-0.368755
-0.369115
-0.369217
-0.368861
-0.367813
-0.365812
-0.362584
-0.357856
-0.35138
-0.342954
-0.332448
-0.319824
-0.305155
-0.288625
-0.270528
-0.251246
-0.231197
-0.210966
-0.190563
-0.171879
-0.151758
-0.374568
-0.374702
-0.374669
-0.374556
-0.374352
-0.373916
-0.373035
-0.371456
-0.368895
-0.365064
-0.359689
-0.352535
-0.343433
-0.332306
-0.319186
-0.304224
-0.287681
-0.269912
-0.251334
-0.23239
-0.213581
-0.195117
-0.178217
-0.161189
-0.382747
-0.381953
-0.381104
-0.380232
-0.379284
-0.378125
-0.37654
-0.374256
-0.370976
-0.366401
-0.360259
-0.352338
-0.342514
-0.330772
-0.317222
-0.302088
-0.285688
-0.268407
-0.250653
-0.232844
-0.215341
-0.19852
-0.182951
-0.168423
-0.40028
-0.394855
-0.384648
-0.368872
-0.347518
-0.321481
-0.292638
-0.263412
-0.23626
-0.2145
-0.200845
-0.197115
-0.203672
-0.218546
-0.23705
-0.25239
-0.25754
-0.246462
-0.220422
-0.184986
-0.148899
-0.119002
-0.0982066
-0.0865051
-0.0825543
-0.0852475
-0.0952768
-0.113567
-0.13615
-0.152778
-0.153547
-0.138236
-0.114582
-0.0921619
-0.0766094
-0.0684617
-0.0664371
-0.0716698
-0.0855954
-0.102447
-0.110615
-0.103886
-0.0870895
-0.0704273
-0.0579479
-0.0507543
-0.0499847
-0.0537673
-0.0564889
-0.0547754
-0.049123
-0.0439891
-0.0389848
-0.0355087
-0.0349702
-0.0348509
-0.0319119
-0.0284748
-0.0182946
-0.00340038
-0.339666
-0.333115
-0.323365
-0.310105
-0.293276
-0.273476
-0.252503
-0.232274
-0.213971
-0.201578
-0.197446
-0.20287
-0.217364
-0.238075
-0.25986
-0.276102
-0.279991
-0.266706
-0.237015
-0.197467
-0.157475
-0.12414
-0.100243
-0.0855428
-0.0786467
-0.0783151
-0.0847773
-0.098996
-0.118105
-0.133366
-0.135648
-0.123851
-0.104213
-0.0855268
-0.0732462
-0.0678267
-0.0683009
-0.0762151
-0.0929212
-0.111989
-0.120882
-0.113031
-0.0936902
-0.0740992
-0.0589327
-0.0495758
-0.0465966
-0.0482451
-0.04993
-0.0483669
-0.044526
-0.0410511
-0.0382239
-0.0369037
-0.0379351
-0.0390673
-0.0356449
-0.0317219
-0.0201704
-0.00359997
-0.278951
-0.269006
-0.258994
-0.247576
-0.234809
-0.220555
-0.207086
-0.196023
-0.186864
-0.184203
-0.18956
-0.2035
-0.224723
-0.249818
-0.273726
-0.290439
-0.293799
-0.279167
-0.247324
-0.205296
-0.162841
-0.127167
-0.100945
-0.0837628
-0.0741912
-0.0709582
-0.0739477
-0.084069
-0.0995521
-0.113282
-0.117178
-0.108441
-0.092745
-0.0778128
-0.0688552
-0.0662175
-0.0692346
-0.0797694
-0.0990341
-0.12015
-0.129826
-0.121099
-0.0995515
-0.0772565
-0.0595674
-0.0482332
-0.0432884
-0.0430121
-0.0437177
-0.0421481
-0.039897
-0.0379373
-0.0373353
-0.0382612
-0.0408817
-0.043206
-0.039245
-0.0348144
-0.0219719
-0.00380107
-0.224239
-0.209256
-0.199314
-0.188638
-0.17993
-0.169043
-0.164635
-0.159354
-0.159014
-0.165183
-0.178726
-0.199479
-0.225604
-0.253579
-0.278722
-0.295694
-0.298979
-0.283919
-0.251346
-0.208465
-0.165062
-0.128244
-0.100542
-0.0814912
-0.0696706
-0.0638108
-0.0635625
-0.0697347
-0.0815097
-0.0933794
-0.0981911
-0.0924426
-0.0805478
-0.0692562
-0.0635288
-0.0635811
-0.0690268
-0.0819672
-0.103536
-0.126608
-0.13715
-0.12786
-0.104537
-0.0798598
-0.0598728
-0.0467709
-0.0401292
-0.0381642
-0.0379542
-0.0362057
-0.0353048
-0.0346855
-0.036326
-0.0395645
-0.0437816
-0.0472287
-0.0426722
-0.0377154
-0.0236757
-0.00399983
-0.182509
-0.168719
-0.151928
-0.13824
-0.136883
-0.128982
-0.126287
-0.127462
-0.134013
-0.146857
-0.166327
-0.191681
-0.220789
-0.25025
-0.275843
-0.292982
-0.296326
-0.281565
-0.249573
-0.207446
-0.16462
-0.127802
-0.0993854
-0.079018
-0.0654061
-0.0573235
-0.0542192
-0.0567004
-0.0647555
-0.0744271
-0.0795494
-0.0763814
-0.0679854
-0.0600616
-0.0573209
-0.0598477
-0.0674969
-0.0825562
-0.10618
-0.131068
-0.142577
-0.133136
-0.108551
-0.0818992
-0.0598917
-0.0452376
-0.0371601
-0.0337494
-0.0327091
-0.0306284
-0.0308178
-0.0313343
-0.0351994
-0.0407928
-0.0466019
-0.0510902
-0.0458822
-0.0403871
-0.0252598
-0.00419242
-0.152341
-0.134336
-0.11857
-0.107679
-0.101693
-0.0976506
-0.097991
-0.103222
-0.114019
-0.130885
-0.153686
-0.18133
-0.211599
-0.241302
-0.266702
-0.283674
-0.287157
-0.273185
-0.24283
-0.202878
-0.161987
-0.12621
-0.0977904
-0.0766007
-0.0616083
-0.0516992
-0.0462283
-0.0454927
-0.0499402
-0.0571088
-0.0620034
-0.0607998
-0.0554171
-0.0504535
-0.0503273
-0.0550337
-0.0646055
-0.0814429
-0.106803
-0.133302
-0.145942
-0.13684
-0.111524
-0.0833653
-0.0596581
-0.0436671
-0.0343974
-0.0297812
-0.028023
-0.0254876
-0.0264952
-0.0279225
-0.0339544
-0.0419159
-0.049305
-0.0547426
-0.0488324
-0.0427951
-0.0267009
-0.00437357
-0.13537
-0.116661
-0.101029
-0.0880903
-0.0811611
-0.0782583
-0.0800656
-0.0870456
-0.0996554
-0.118042
-0.141784
-0.169668
-0.199515
-0.228375
-0.253252
-0.26947
-0.272895
-0.260065
-0.232245
-0.195614
-0.15773
-0.123835
-0.0960245
-0.0744477
-0.0584263
-0.0470462
-0.0396324
-0.036239
-0.0374182
-0.0419465
-0.0461031
-0.0462479
-0.0432235
-0.0407088
-0.0427473
-0.0492795
-0.0604128
-0.0786088
-0.105322
-0.133245
-0.147179
-0.138895
-0.113402
-0.0842435
-0.0591933
-0.0420824
-0.0318387
-0.0262377
-0.023896
-0.0208354
-0.0223902
-0.0244901
-0.0325845
-0.042896
-0.0518519
-0.0581399
-0.0514843
-0.0449096
-0.0279788
-0.0045366
-0.130202
-0.111878
-0.0933497
-0.0797011
-0.0722679
-0.069393
-0.0711423
-0.0780753
-0.0905241
-0.108417
-0.131214
-0.157719
-0.18584
-0.212826
-0.23594
-0.251455
-0.254764
-0.243461
-0.218909
-0.186428
-0.152288
-0.120881
-0.0941747
-0.0726056
-0.0558805
-0.0433564
-0.0343953
-0.0288708
-0.0272556
-0.0292016
-0.0322576
-0.033398
-0.0317381
-0.0311502
-0.0348507
-0.0427756
-0.0550616
-0.0741682
-0.101787
-0.13098
-0.146288
-0.139236
-0.114141
-0.0845287
-0.0585192
-0.0405017
-0.0294827
-0.0230915
-0.0202946
-0.0166946
-0.0185479
-0.0210787
-0.0310789
-0.043692
-0.054201
-0.061237
-0.0538056
-0.0467071
-0.0290825
-0.00467538
-0.133677
-0.116088
-0.0943177
-0.0817692
-0.0732416
-0.0693031
-0.0696811
-0.0751039
-0.0858379
-0.101701
-0.122139
-0.146033
-0.171461
-0.195962
-0.216547
-0.23081
-0.234082
-0.224707
-0.203947
-0.176101
-0.146104
-0.117555
-0.092333
-0.0711363
-0.0540235
-0.040656
-0.030501
-0.0233162
-0.0194223
-0.0189711
-0.0206228
-0.0218287
-0.0211721
-0.0220985
-0.0269324
-0.0357745
-0.0487144
-0.0682128
-0.0963981
-0.126662
-0.143339
-0.137919
-0.113792
-0.0842988
-0.0577411
-0.0389952
-0.0273551
-0.0203392
-0.0172088
-0.0130644
-0.014997
-0.0177303
-0.0294187
-0.0442624
-0.0563107
-0.0639938
-0.05577
-0.0481695
-0.030007
-0.00478751
-0.142027
-0.12651
-0.110703
-0.0932179
-0.082051
-0.0759453
-0.0739234
-0.0767151
-0.0846036
-0.0973158
-0.11438
-0.13478
-0.156798
-0.178172
-0.196662
-0.209022
-0.212466
-0.20541
-0.188789
-0.165777
-0.140068
-0.114584
-0.0911246
-0.0706044
-0.0533627
-0.0393582
-0.0282421
-0.0197258
-0.0139814
-0.0113584
-0.0113815
-0.012002
-0.0117584
-0.0138316
-0.0192371
-0.0285134
-0.0417062
-0.0612055
-0.0894174
-0.120401
-0.138473
-0.135126
-0.112481
-0.0837059
-0.0570443
-0.0377082
-0.0255036
-0.0179561
-0.0146529
-0.00999556
-0.0117564
-0.0144794
-0.0275956
-0.0445631
-0.0581354
-0.0663634
-0.0573537
-0.0492823
-0.0307334
-0.00486851
-0.151411
-0.138351
-0.12112
-0.105547
-0.0937028
-0.0857709
-0.0815331
-0.0811594
-0.085433
-0.0942468
-0.107316
-0.123805
-0.142169
-0.160817
-0.17613
-0.186842
-0.190718
-0.18632
-0.174055
-0.155955
-0.134607
-0.112326
-0.0908167
-0.0711748
-0.0539862
-0.039473
-0.0275349
-0.0179369
-0.0106924
-0.00612632
-0.00446043
-0.00435564
-0.00376621
-0.00668009
-0.0120709
-0.0212243
-0.0340169
-0.0529799
-0.0812393
-0.112946
-0.131865
-0.130825
-0.109965
-0.082487
-0.056193
-0.0365278
-0.0238155
-0.0157677
-0.0124323
-0.00750428
-0.00893814
-0.0113816
-0.0255337
-0.0445695
-0.0596537
-0.0682788
-0.0585037
-0.050026
-0.0312079
-0.00488985
-0.159045
-0.147246
-0.133714
-0.11954
-0.106916
-0.0973112
-0.091116
-0.0883941
-0.0891537
-0.093751
-0.102104
-0.113559
-0.127258
-0.142039
-0.155609
-0.164098
-0.167733
-0.165504
-0.156994
-0.143222
-0.125852
-0.106697
-0.0873345
-0.0689722
-0.05237
-0.0379
-0.0256563
-0.0155631
-0.00748605
-0.00150685
0.00163906
0.00216698
0.000333969
-0.00067135
-0.00577247
-0.0145467
-0.0267327
-0.0447282
-0.0721288
-0.103605
-0.123336
-0.123741
-0.105371
-0.0794631
-0.0539112
-0.0345278
-0.0217401
-0.0134463
-0.0100655
-0.00505457
-0.00631069
-0.00855792
-0.0233456
-0.044206
-0.0607624
-0.069756
-0.059155
-0.0503802
-0.0313804
-0.00479786
-0.153814
-0.147542
-0.135529
-0.122309
-0.110804
-0.10191
-0.0957112
-0.0921984
-0.0917406
-0.0947534
-0.10118
-0.110514
-0.121923
-0.13408
-0.144455
-0.151496
-0.154128
-0.151378
-0.143183
-0.130457
-0.114599
-0.0971367
-0.079404
-0.0624339
-0.0468969
-0.0331311
-0.0212448
-0.0112301
-0.00298126
0.00355472
0.00772196
0.00920777
0.0081678
0.00665515
0.00205386
-0.00561464
-0.0166814
-0.0341265
-0.0625419
-0.0967519
-0.119196
-0.121051
-0.101271
-0.075398
-0.0502952
-0.0314981
-0.0191956
-0.0111268
-0.00764872
-0.00209793
-0.00285791
-0.00486399
-0.0204254
-0.0435259
-0.0617662
-0.0712822
-0.0595522
-0.0503856
-0.0313272
-0.00463383
-0.149239
-0.144742
-0.133836
-0.121831
-0.111649
-0.10382
-0.0981783
-0.0947623
-0.0939014
-0.0958638
-0.100571
-0.107586
-0.116126
-0.124714
-0.132317
-0.137252
-0.138369
-0.135106
-0.127516
-0.116274
-0.102422
-0.0871213
-0.0714138
-0.0561499
-0.0419277
-0.0290712
-0.0177512
-0.0080463
0.000145356
0.00694659
0.0116494
0.0135619
0.0127148
0.0112082
0.00745774
0.000967266
-0.00890779
-0.0254862
-0.0541717
-0.0896208
-0.112518
-0.11353
-0.0944636
-0.0698182
-0.0462305
-0.0285327
-0.0167683
-0.00894554
-0.00551984
8.58547e-05
-0.000676203
-0.00213504
-0.0181024
-0.0429184
-0.0623785
-0.0720712
-0.059391
-0.0498085
-0.0309776
-0.00453263
-0.142837
-0.139663
-0.130516
-0.120015
-0.111073
-0.104261
-0.09934
-0.0962215
-0.0950618
-0.0960203
-0.0990307
-0.103753
-0.109567
-0.115493
-0.120546
-0.123523
-0.123591
-0.120306
-0.11361
-0.103902
-0.0918974
-0.0784746
-0.0644806
-0.0506479
-0.0375341
-0.0254754
-0.0146616
-0.00522146
0.00284995
0.00969947
0.0147223
0.0171282
0.0168457
0.015391
0.0120682
0.00628429
-0.00299615
-0.0190918
-0.047019
-0.0812048
-0.103356
-0.104417
-0.0867015
-0.0638206
-0.0419845
-0.0254642
-0.0143298
-0.00680266
-0.0034596
0.00210219
0.00120812
-2.61627e-05
-0.0163501
-0.0423318
-0.0624931
-0.0721809
-0.0587516
-0.0487732
-0.0303936
-0.00446246
-0.134256
-0.133283
-0.126214
-0.117249
-0.109436
-0.103511
-0.0992057
-0.0962892
-0.094796
-0.0948451
-0.0964232
-0.0993014
-0.102989
-0.106756
-0.109828
-0.111375
-0.110715
-0.107415
-0.101361
-0.0928012
-0.0822549
-0.0703987
-0.0579133
-0.0454074
-0.0333697
-0.0221252
-0.0118691
-0.00275186
0.0051299
0.011908
0.0171387
0.0200938
0.0204462
0.0193465
0.0166503
0.0115494
0.00271977
-0.0127446
-0.0389792
-0.0713548
-0.093004
-0.0943116
-0.0781136
-0.0572489
-0.0374064
-0.0222699
-0.0118884
-0.00469584
-0.00145432
0.00400782
0.00300899
0.00186329
-0.0146116
-0.0413069
-0.0619781
-0.0716359
-0.0576325
-0.0472984
-0.0295211
-0.00439871
-0.125336
-0.12619
-0.120944
-0.113426
-0.106661
-0.1015
-0.0977053
-0.0949741
-0.0932627
-0.0926576
-0.0931683
-0.0946153
-0.0966498
-0.0987445
-0.100311
-0.10071
-0.0993917
-0.0959997
-0.0904187
-0.0828008
-0.0735042
-0.0630241
-0.0518871
-0.0405903
-0.0295562
-0.0190966
-0.00941673
-0.00066418
0.00699461
0.0136353
0.0189381
0.0223182
0.0233185
0.0228974
0.0210948
0.0169375
0.00892741
-0.00544576
-0.0298555
-0.0606614
-0.0815885
-0.0831593
-0.0687696
-0.0502417
-0.0326008
-0.0189979
-0.00946617
-0.00263832
0.000494457
0.00577965
0.00469135
0.00365746
-0.0125697
-0.0396205
-0.0607122
-0.0702758
-0.0559493
-0.0453468
-0.0283319
-0.00432696
-0.116495
-0.118409
-0.114698
-0.108564
-0.102804
-0.0983431
-0.0950199
-0.0925144
-0.0907193
-0.0896761
-0.0894001
-0.0897826
-0.0905599
-0.0913696
-0.0917503
-0.0912237
-0.0893744
-0.0859185
-0.080737
-0.0739031
-0.0656516
-0.056341
-0.0463789
-0.0361708
-0.0260762
-0.0163793
-0.00729242
0.00104807
0.00844532
0.0149103
0.0201855
0.0238576
0.0254674
0.0258479
0.0251384
0.0222512
0.0154737
0.00229098
-0.0204915
-0.0495071
-0.0692912
-0.0712141
-0.05894
-0.0429785
-0.0276528
-0.0156813
-0.00708113
-0.000646957
0.00237814
0.00741754
0.00624949
0.00534448
-0.010207
-0.0371894
-0.0584923
-0.0679159
-0.0536306
-0.0429113
-0.0268056
-0.00422936
-0.107365
-0.110082
-0.107716
-0.102857
-0.0980447
-0.094241
-0.0913655
-0.0891081
-0.087318
-0.0859998
-0.0851745
-0.0847842
-0.0846463
-0.0844893
-0.0839779
-0.0827626
-0.0805272
-0.0770406
-0.0721867
-0.0659923
-0.0586119
-0.0503039
-0.0413778
-0.0321573
-0.0229431
-0.0139839
-0.00549406
0.00239716
0.0094916
0.0157567
0.0209558
0.0248156
0.0269269
0.0280515
0.0284651
0.027054
0.0217255
0.00964926
-0.0115138
-0.0383149
-0.0565243
-0.0588415
-0.0489231
-0.0356633
-0.0226747
-0.012364
-0.00475084
0.00126431
0.00419518
0.00893445
0.00770034
0.00688446
-0.00757792
-0.0338987
-0.0551147
-0.0644159
-0.0506345
-0.0400114
-0.0249371
-0.00408789
-0.0981968
-0.101561
-0.100286
-0.0965264
-0.0925732
-0.0893775
-0.0869211
-0.0849196
-0.0832022
-0.0817471
-0.0805745
-0.0796528
-0.0788664
-0.0780224
-0.0768777
-0.0751737
-0.0726691
-0.0691816
-0.0646098
-0.0589564
-0.0523193
-0.0448805
-0.0368703
-0.0285433
-0.02015
-0.0119025
-0.00400703
0.00340973
0.010163
0.0162013
0.0212969
0.025264
0.0277586
0.029476
0.0308173
0.0307831
0.0269067
0.0159831
-0.00337745
-0.0274733
-0.0437009
-0.046481
-0.039062
-0.0285184
-0.0177903
-0.0090937
-0.00248739
0.00308774
0.00594723
0.0103482
0.00907628
0.00828164
-0.00467051
-0.0296409
-0.0504549
-0.0596986
-0.0469539
-0.0366942
-0.0227412
-0.00388622
-0.0893675
-0.0930528
-0.0925911
-0.0897549
-0.0865658
-0.0839248
-0.0818592
-0.0801175
-0.0785234
-0.0770355
-0.0756691
-0.0744157
-0.0732039
-0.0719
-0.0703278
-0.0682974
-0.0656295
-0.0621844
-0.0578775
-0.0526977
-0.0467042
-0.0400236
-0.0328263
-0.0253102
-0.0176818
-0.0101193
-0.00281164
0.00411717
0.0104984
0.0162753
0.0212373
0.0252455
0.028023
0.0301449
0.032073
0.0330055
0.0303351
0.0207541
0.00361724
-0.0172308
-0.0312984
-0.0346611
-0.0297196
-0.021758
-0.0131242
-0.0059238
-0.00030072
0.00482186
0.00763639
0.0116847
0.0104391
0.00961038
-0.00144731
-0.024412
-0.0445053
-0.053779
-0.0426303
-0.0330356
-0.0202581
-0.00361232
-0.0808664
-0.0846444
-0.0847897
-0.0827223
-0.0801983
-0.0780537
-0.0763477
-0.0748619
-0.0734234
-0.0719791
-0.0705396
-0.0691089
-0.0676458
-0.06606
-0.0642266
-0.0620087
-0.0592745
-0.0559183
-0.0518714
-0.0471172
-0.0416908
-0.0356801
-0.0292105
-0.0224335
-0.0155174
-0.00861131
-0.00188157
0.00455381
0.0105397
0.0160198
0.0208097
0.0247937
0.0277565
0.0301204
0.0322982
0.0336539
0.0318145
0.0237955
0.00936226
-0.00794791
-0.0199741
-0.0239397
-0.0212268
-0.0155596
-0.00878482
-0.00291197
0.00179502
0.00646727
0.00926357
0.0129829
0.0118741
0.0109881
0.00207843
-0.0183544
-0.0374203
-0.0468066
-0.0377646
-0.0291379
-0.0175549
-0.00326082
-0.0726819
-0.0764532
-0.0770432
-0.0755945
-0.0736324
-0.0719212
-0.0705393
-0.0692985
-0.0680344
-0.0666871
-0.065262
-0.0637694
-0.0621889
-0.0604621
-0.0585019
-0.0562105
-0.0534917
-0.0502669
-0.0464828
-0.0421226
-0.0372069
-0.0317964
-0.0259832
-0.0198826
-0.0136298
-0.00734941
-0.00118491
0.00475587
0.010332
0.0154855
0.020058
0.0239522
0.0270006
0.0294751
0.031667
0.0330402
0.0317252
0.0253252
0.0137306
-0.000186146
-0.0103822
-0.0147594
-0.0138138
-0.0100396
-0.00485088
-0.0001132
0.00377825
0.00801571
0.0108158
0.0142856
0.0134673
0.0125382
0.00582612
-0.0117739
-0.0295545
-0.0390879
-0.0325155
-0.025121
-0.0147263
-0.00283528
-0.0649174
-0.0685812
-0.0694676
-0.0685032
-0.0670071
-0.0656677
-0.0645727
-0.06356
-0.0624771
-0.0612607
-0.059911
-0.0584409
-0.056844
-0.0550839
-0.0531008
-0.0508252
-0.0481883
-0.0451328
-0.0416189
-0.0376321
-0.0331845
-0.0283185
-0.0231018
-0.0176223
-0.0119878
-0.00630144
-0.000685374
0.00476302
0.00992042
0.0147246
0.0190385
0.0227826
0.0258201
0.0282953
0.0303661
0.0315744
0.0305915
0.0256266
0.0165953
0.0056499
-0.0028743
-0.00729754
-0.00756727
-0.00524785
-0.0013665
0.00242771
0.00562532
0.0094468
0.012252
0.0155968
0.0152721
0.0143626
0.00965589
-0.005132
-0.02145
-0.0310736
-0.0270893
-0.0211096
-0.0118898
-0.00235094
-0.0576069
-0.0610772
-0.0621452
-0.061556
-0.0604418
-0.0594163
-0.0585701
-0.0577645
-0.0568598
-0.0557924
-0.0545577
-0.0531689
-0.0516279
-0.0499135
-0.0479849
-0.0457937
-0.043291
-0.0404363
-0.0372004
-0.0335723
-0.0295598
-0.0251932
-0.0205227
-0.0156157
-0.0105574
-0.00543316
-0.000345597
0.00461848
0.00935152
0.0137889
0.0178146
0.0213579
0.0242983
0.0266874
0.0285733
0.0295789
0.0288066
0.0249902
0.0180924
0.00963558
0.00267714
-0.00147677
-0.00245588
-0.00118166
0.00165442
0.00467882
0.00731309
0.0107382
0.0135142
0.0168358
0.0172233
0.016466
0.0133488
0.0010191
-0.0137349
-0.0232909
-0.0217193
-0.0172213
-0.00917262
-0.00183584
-0.0507462
-0.0539797
-0.0551452
-0.0548405
-0.0540342
-0.0532689
-0.0526344
-0.0520122
-0.0512757
-0.0503632
-0.0492665
-0.0479972
-0.0465613
-0.0449477
-0.0431294
-0.0410726
-0.038743
-0.0361123
-0.0331602
-0.0298794
-0.0262753
-0.0223707
-0.0182032
-0.0138252
-0.00930369
-0.0047095
-0.000128033
0.00436449
0.0086735
0.0127356
0.0164519
0.0197531
0.0225309
0.0247756
0.0264605
0.0272914
0.0266707
0.0237587
0.0185706
0.0121438
0.00660116
0.00292495
0.0016208
0.00219338
0.00421984
0.006622
0.00881579
0.0118673
0.0145626
0.0178616
0.0189753
0.018603
0.0165429
0.00616207
-0.00694951
-0.01618
-0.0166245
-0.0135585
-0.00669472
-0.00132722
-0.0443483
-0.0473182
-0.0485155
-0.0484203
-0.0478588
-0.0473064
-0.0468491
-0.0463858
-0.0458029
-0.0450425
-0.0440942
-0.0429662
-0.0416662
-0.0401896
-0.0385188
-0.0366302
-0.0344999
-0.0321087
-0.0294428
-0.0264982
-0.0232796
-0.0198048
-0.0161025
-0.012214
-0.00819225
-0.00409598
4.11857e-06
0.00404172
0.00793395
0.0116201
0.0150133
0.0180466
0.0206206
0.0226908
0.0241886
0.0248948
0.0244161
0.0222301
0.0183857
0.0135758
0.00926364
0.00615797
0.00478936
0.00492769
0.00634985
0.00825298
0.0101067
0.0128015
0.0153747
0.0185597
0.0202213
0.020292
0.0187761
0.00995588
-0.00141189
-0.010015
-0.0119753
-0.0102065
-0.00455427
-0.000863503
-0.038409
-0.0411021
-0.0422845
-0.0423406
-0.0419717
-0.0415916
-0.0412805
-0.0409528
-0.0405067
-0.0398886
-0.0390888
-0.038112
-0.0369646
-0.0356456
-0.0341442
-0.0324441
-0.0305283
-0.0283842
-0.0260028
-0.0233827
-0.0205283
-0.0174542
-0.014183
-0.0107477
-0.00719031
-0.00355965
8.54707e-05
0.00368776
0.00717574
0.0104933
0.0135606
0.0163151
0.0186648
0.0205523
0.0218915
0.0225246
0.0221957
0.0206005
0.0178009
0.014264
0.0109679
0.00844917
0.00717992
0.00708242
0.00807095
0.00957634
0.0111627
0.0135067
0.0159126
0.0188524
0.0207561
0.0210974
0.0197617
0.0123427
0.00277978
-0.00494975
-0.00789521
-0.0072326
-0.00281129
-0.000475356
-0.0329153
-0.0353338
-0.0364704
-0.0366323
-0.036413
-0.0361703
-0.0359777
-0.0357631
-0.0354367
-0.0349495
-0.0342923
-0.0334661
-0.032476
-0.0313232
-0.0300012
-0.0284987
-0.0268035
-0.024907
-0.022804
-0.0204947
-0.0179836
-0.0152831
-0.0124112
-0.0093949
-0.00626791
-0.00307073
0.000147457
0.00333778
0.0064389
0.00939923
0.012147
0.0146247
0.0167474
0.0184587
0.0196695
0.0202712
0.0200962
0.0189827
0.0169892
0.0144409
0.0119824
0.010011
0.00892283
0.008723
0.00941295
0.0106021
0.0119679
0.0139649
0.0161505
0.0187184
0.0205485
0.020944
0.0196197
0.0135248
0.00568573
-0.00102723
-0.00446822
-0.00468012
-0.00146898
-0.000176763
-0.0278581
-0.03001
-0.0310793
-0.0313116
-0.0312069
-0.0310728
-0.0309751
-0.0308537
-0.0306307
-0.0302636
-0.0297356
-0.0290524
-0.0282165
-0.0272297
-0.026088
-0.0247835
-0.0233071
-0.021653
-0.019818
-0.0178038
-0.0156146
-0.0132613
-0.0107586
-0.00812861
-0.00539888
-0.00260316
0.000218012
0.00302267
0.00575767
0.00837702
0.0108171
0.0130286
0.0149337
0.0164827
0.017591
0.0181878
0.0181614
0.0174382
0.0160662
0.0142753
0.0125072
0.0110108
0.0101342
0.00991649
0.0104087
0.011346
0.0125196
0.0141824
0.0160978
0.0182196
0.0197726
0.0200769
0.0187309
0.0138221
0.0074889
0.0018204
-0.00173414
-0.00259911
-0.000479497
3.96221e-05
-0.0232193
-0.0251175
-0.0261071
-0.0263835
-0.0263659
-0.0263165
-0.0262941
-0.0262485
-0.0261119
-0.0258432
-0.0254329
-0.0248845
-0.0241975
-0.0233715
-0.0224046
-0.0212918
-0.0200264
-0.0186042
-0.0170234
-0.0152861
-0.0133967
-0.0113645
-0.00920157
-0.00692643
-0.00456151
-0.0021347
0.000319887
0.00276625
0.00515947
0.00745947
0.00960977
0.0115699
0.0132705
0.0146729
0.0156982
0.0163034
0.0164125
0.0160005
0.0151035
0.0138899
0.0126195
0.0115684
0.0109128
0.0107284
0.0110949
0.0118312
0.0128299
0.0141812
0.0157892
0.0174569
0.0186517
0.0188049
0.0174659
0.0135503
0.00844663
0.0037573
0.000330992
-0.00113261
0.000229276
0.000194917
-0.0189765
-0.0206398
-0.0215446
-0.0218461
-0.0218939
-0.0219102
-0.0219463
-0.0219607
-0.0218957
-0.021714
-0.0214068
-0.0209789
-0.0204287
-0.0197532
-0.0189508
-0.0180186
-0.0169519
-0.0157474
-0.014404
-0.0129239
-0.0113111
-0.00957373
-0.00772179
-0.00577068
-0.00373874
-0.00164931
0.000469285
0.00258714
0.00466543
0.00666965
0.00855191
0.0102784
0.0117881
0.0130601
0.0140148
0.0146299
0.0148533
0.0146867
0.014153
0.0133799
0.0125241
0.0118054
0.0113496
0.0112211
0.01151
0.0120877
0.012921
0.0139899
0.0152809
0.0165327
0.0173706
0.0173638
0.0160733
0.012956
0.00882041
0.00498455
0.00183933
0.000172088
0.000753104
0.000311941
-0.0151107
-0.0165592
-0.0173786
-0.0176913
-0.0177874
-0.0178539
-0.0179351
-0.0179967
-0.0179903
-0.0178842
-0.0176691
-0.0173451
-0.0169161
-0.0163775
-0.0157265
-0.0149607
-0.0140772
-0.0130734
-0.0119484
-0.0107041
-0.0093441
-0.00787525
-0.00630591
-0.00464881
-0.002919
-0.00113571
0.000677609
0.00249602
0.00428742
0.00602304
0.00766155
0.0091752
0.0105242
0.0116593
0.0125476
0.0131678
0.0134811
0.0135011
0.0132419
0.0127997
0.0122695
0.0118093
0.011521
0.0114531
0.0116938
0.0121459
0.0128243
0.0136461
0.0146349
0.0155269
0.0160519
0.0159035
0.014691
0.0122016
0.00882446
0.00568897
0.00289006
0.00113017
0.00112649
0.000402171
-0.011601
-0.0128552
-0.0135913
-0.0139057
-0.0140371
-0.0141414
-0.014257
-0.0143554
-0.0143964
-0.0143531
-0.0142142
-0.0139807
-0.0136587
-0.0132437
-0.01273
-0.0121151
-0.0113975
-0.0105756
-0.00964854
-0.00861787
-0.00748642
-0.00625993
-0.00494536
-0.00355301
-0.00209521
-0.000587747
0.000950402
0.0024986
0.00403003
0.00552168
0.00693904
0.00825651
0.00943691
0.0104595
0.0112895
0.0119083
0.012286
0.0124432
0.0123864
0.0121869
0.0119019
0.0116422
0.0114891
0.0114768
0.0116853
0.0120379
0.0125744
0.0131861
0.0139041
0.0144992
0.0147705
0.0145106
0.013388
0.011385
0.00860851
0.00602189
0.00357439
0.00181167
0.00138125
0.000470707
-0.0084252
-0.00950591
-0.0101635
-0.0104731
-0.0106299
-0.0107627
-0.0109039
-0.0110306
-0.0111091
-0.0111169
-0.0110449
-0.0108927
-0.0106603
-0.0103508
-0.0099583
-0.00947823
-0.00890873
-0.00824919
-0.00749908
-0.00665946
-0.00573244
-0.0047226
-0.00363558
-0.00247971
-0.00126495
-3.92143e-06
0.00128784
0.00259359
0.00389185
0.005163
0.00637937
0.00752177
0.00855662
0.00947324
0.0102324
0.010837
0.0112559
0.0115074
0.0115935
0.0115688
0.011462
0.011353
0.0113042
0.0113378
0.0115224
0.0117958
0.0122056
0.0126425
0.0131322
0.0134924
0.0135666
0.0132276
0.0121957
0.0105628
0.00826997
0.00610333
0.00400035
0.00228351
0.00154793
0.00052037
-0.00556222
-0.00648976
-0.00707497
-0.0073758
-0.00755035
-0.00770408
-0.00786399
-0.00801177
-0.0081197
-0.00816893
-0.00815183
-0.00806661
-0.00791426
-0.00769477
-0.00740692
-0.0070453
-0.00660674
-0.00609053
-0.00549657
-0.0048257
-0.00407944
-0.00326126
-0.00237565
-0.00142918
-0.000429759
0.000612585
0.00168544
0.00277544
0.00386516
0.00493896
0.0059748
0.0069571
0.00785946
0.00866987
0.00936334
0.00993874
0.0103758
0.0106862
0.010868
0.0109566
0.0109794
0.0109804
0.0110087
0.0110766
0.0112407
0.0114505
0.0117512
0.0120461
0.0123501
0.01253
0.0124585
0.0120684
0.0111239
0.00976701
0.00786865
0.00602491
0.00421344
0.00258767
0.0016481
0.00055265
-0.00299196
-0.00378541
-0.00430489
-0.00459459
-0.0047812
-0.00495001
-0.00512333
-0.00528655
-0.00541723
-0.00549978
-0.00552758
-0.00549901
-0.00541352
-0.00527169
-0.00507199
-0.00481194
-0.0044872
-0.0040962
-0.00363861
-0.00311511
-0.00252693
-0.0018766
-0.00116754
-0.00040481
0.000405376
0.00125524
0.00213503
0.00303418
0.00393888
0.00483686
0.00571052
0.00654748