/*--------------------------------*- C++ -*----------------------------------*\
| =========                 |                                                 |
| \\      /  F ield         | OpenFOAM: The Open Source CFD Toolbox           |
|  \\    /   O peration     | Version:  2512                                  |
|   \\  /    A nd           | Website:  www.openfoam.com                      |
|    \\/     M anipulation  |                                                 |
\*---------------------------------------------------------------------------*/
FoamFile
{
    version     2.0;
    format      ascii;
    arch        "LSB;label=32;scalar=64";
    class       volScalarField;
    location    "130";
    object      p;
}
// * * * * * * * * * * * * * * * * * * * * * * * * * * * * * * * * * * * * * //

dimensions      [0 2 -2 0 0 0 0];

internalField   nonuniform List<scalar> 
13248
(
-0.465462
-0.462337
-0.458645
-0.454706
-0.450931
-0.447761
-0.445477
-0.44415
-0.443634
-0.443586
-0.443496
-0.442757
-0.440739
-0.436873
-0.43073
-0.422066
-0.410839
-0.397194
-0.381404
-0.363826
-0.344697
-0.324413
-0.302029
-0.278426
-0.474466
-0.470767
-0.46649
-0.461952
-0.457525
-0.453596
-0.450371
-0.447826
-0.445719
-0.443635
-0.441046
-0.437399
-0.432204
-0.425103
-0.415915
-0.404635
-0.391411
-0.376495
-0.360181
-0.342752
-0.324437
-0.305448
-0.285645
-0.265854
-0.485566
-0.48101
-0.476009
-0.470822
-0.4657
-0.460934
-0.456606
-0.452572
-0.448502
-0.44396
-0.438485
-0.431683
-0.423284
-0.41318
-0.401414
-0.388151
-0.373622
-0.358082
-0.341767
-0.324886
-0.307586
-0.290051
-0.272179
-0.254465
-0.49881
-0.493134
-0.487267
-0.481335
-0.475399
-0.469594
-0.463855
-0.457918
-0.451423
-0.444
-0.435361
-0.425341
-0.413924
-0.401215
-0.387404
-0.372717
-0.357375
-0.341575
-0.325478
-0.309213
-0.292888
-0.27663
-0.260403
-0.244678
-0.514089
-0.507085
-0.500219
-0.493413
-0.486455
-0.479287
-0.471698
-0.463365
-0.453986
-0.443372
-0.431479
-0.418402
-0.404328
-0.389495
-0.374138
-0.358461
-0.342625
-0.326751
-0.310925
-0.295216
-0.279683
-0.264393
-0.249329
-0.234771
-0.531178
-0.522711
-0.514739
-0.506889
-0.498605
-0.489623
-0.479638
-0.468373
-0.455714
-0.441738
-0.426674
-0.410825
-0.394502
-0.377975
-0.361446
-0.345057
-0.328893
-0.313003
-0.297419
-0.282161
-0.267252
-0.252716
-0.238553
-0.22493
-0.54972
-0.539737
-0.530568
-0.521451
-0.511423
-0.500055
-0.487065
-0.472372
-0.456164
-0.438823
-0.420807
-0.402542
-0.384363
-0.366497
-0.349074
-0.332157
-0.315761
-0.299881
-0.284503
-0.269615
-0.255207
-0.241271
-0.227809
-0.214866
-0.569191
-0.557713
-0.547259
-0.536568
-0.524266
-0.509864
-0.49328
-0.474784
-0.45493
-0.434376
-0.413718
-0.393404
-0.373713
-0.354785
-0.336666
-0.319344
-0.302778
-0.286922
-0.271728
-0.257156
-0.243173
-0.229752
-0.216889
-0.204529
-0.588854
-0.575973
-0.564121
-0.551461
-0.536274
-0.518198
-0.497555
-0.475077
-0.451675
-0.428191
-0.405254
-0.383243
-0.362335
-0.342573
-0.323917
-0.306295
-0.289622
-0.273818
-0.25881
-0.244535
-0.23094
-0.217987
-0.205649
-0.193803
-0.607741
-0.593596
-0.580189
-0.565086
-0.546397
-0.524129
-0.499182
-0.472778
-0.446104
-0.420068
-0.395229
-0.371848
-0.349984
-0.329579
-0.310526
-0.292704
-0.275992
-0.260284
-0.245484
-0.23151
-0.218294
-0.205788
-0.193931
-0.182575
-0.624677
-0.609425
-0.594247
-0.576188
-0.553453
-0.526669
-0.497409
-0.467332
-0.437774
-0.409595
-0.383221
-0.358769
-0.33618
-0.315314
-0.296006
-0.278094
-0.261429
-0.245883
-0.23134
-0.217703
-0.204891
-0.192838
-0.181445
-0.170586
-0.638396
-0.622218
-0.605035
-0.583515
-0.556279
-0.524799
-0.491348
-0.457921
-0.425881
-0.395953
-0.368389
-0.343154
-0.320081
-0.298954
-0.27956
-0.261701
-0.245204
-0.229922
-0.215722
-0.202495
-0.190152
-0.17861
-0.167739
-0.15748
-0.359455
-0.361522
-0.362857
-0.363962
-0.365282
-0.366949
-0.368991
-0.371389
-0.374095
-0.377037
-0.380119
-0.383229
-0.386217
-0.388896
-0.391053
-0.392544
-0.393059
-0.392351
-0.390196
-0.386426
-0.380945
-0.373748
-0.364951
-0.35489
-0.373283
-0.374745
-0.375873
-0.377082
-0.378747
-0.380999
-0.383867
-0.387327
-0.391325
-0.395781
-0.400589
-0.405612
-0.410672
-0.415515
-0.419777
-0.423628
-0.426236
-0.427287
-0.426426
-0.423315
-0.417685
-0.409338
-0.398158
-0.384531
-0.387037
-0.387753
-0.388563
-0.389768
-0.39166
-0.394362
-0.397903
-0.402252
-0.407348
-0.413101
-0.419393
-0.426071
-0.432934
-0.439743
-0.446233
-0.451521
-0.455602
-0.457889
-0.457823
-0.454888
-0.448652
-0.438768
-0.424918
-0.407345
-0.400079
-0.399974
-0.400373
-0.401431
-0.403383
-0.406327
-0.410296
-0.415255
-0.421132
-0.427821
-0.435186
-0.443043
-0.451147
-0.459185
-0.466753
-0.473342
-0.478363
-0.481234
-0.481297
-0.477913
-0.470532
-0.458717
-0.442091
-0.420636
-0.411864
-0.410949
-0.410854
-0.411641
-0.413431
-0.416349
-0.420433
-0.425647
-0.431905
-0.439089
-0.447035
-0.455529
-0.464286
-0.472943
-0.48104
-0.488012
-0.493216
-0.495943
-0.495456
-0.491039
-0.482088
-0.468116
-0.449049
-0.424042
-0.422031
-0.420405
-0.419782
-0.420144
-0.421553
-0.424156
-0.428014
-0.433097
-0.439317
-0.446536
-0.454571
-0.463174
-0.472008
-0.480674
-0.488663
-0.495356
-0.500045
-0.501965
-0.500333
-0.494414
-0.483649
-0.467502
-0.446556
-0.418811
-0.430451
-0.428283
-0.427135
-0.426948
-0.427772
-0.42979
-0.433098
-0.437687
-0.443473
-0.450312
-0.458002
-0.466285
-0.474667
-0.482822
-0.490157
-0.495998
-0.499593
-0.500146
-0.496885
-0.489115
-0.476442
-0.458307
-0.436004
-0.406694
-0.437255
-0.434745
-0.433107
-0.43229
-0.432372
-0.433587
-0.436081
-0.43988
-0.444914
-0.451028
-0.457984
-0.465444
-0.473126
-0.480383
-0.486612
-0.491107
-0.493093
-0.491791
-0.486504
-0.47665
-0.462083
-0.442352
-0.419182
-0.389581
-0.442815
-0.440149
-0.438073
-0.436588
-0.435835
-0.436115
-0.437631
-0.440451
-0.444527
-0.449699
-0.455713
-0.462211
-0.468728
-0.474663
-0.479333
-0.481991
-0.481873
-0.478283
-0.470679
-0.458701
-0.442456
-0.421756
-0.398348
-0.36958
-0.447703
-0.445005
-0.442536
-0.440382
-0.438777
-0.438084
-0.438564
-0.440326
-0.443335
-0.447431
-0.452311
-0.457549
-0.462598
-0.466801
-0.469429
-0.469742
-0.46706
-0.46085
-0.450807
-0.436884
-0.419424
-0.398582
-0.375861
-0.348894
-0.452627
-0.449917
-0.44707
-0.444272
-0.44185
-0.440223
-0.439691
-0.440389
-0.442285
-0.445176
-0.448706
-0.452371
-0.455549
-0.457538
-0.45762
-0.455139
-0.449576
-0.440627
-0.42824
-0.412658
-0.394377
-0.373963
-0.352664
-0.328471
-0.45833
-0.455509
-0.452258
-0.44885
-0.44568
-0.443203
-0.441733
-0.441397
-0.442125
-0.443659
-0.445563
-0.447263
-0.448095
-0.447375
-0.44448
-0.438923
-0.430414
-0.41889
-0.404497
-0.387604
-0.368617
-0.348285
-0.327309
-0.305794
-0.342348
-0.32687
-0.312556
-0.300779
-0.292963
-0.290055
-0.291973
-0.297633
-0.304525
-0.309498
-0.308506
-0.298835
-0.278235
-0.247753
-0.211534
-0.175623
-0.145509
-0.124375
-0.112817
-0.109886
-0.115018
-0.129077
-0.15196
-0.178342
-0.197273
-0.19802
-0.179424
-0.149565
-0.118927
-0.0943765
-0.078345
-0.0701988
-0.0684188
-0.0736314
-0.0872518
-0.105423
-0.117616
-0.114812
-0.099581
-0.0813108
-0.0671744
-0.058793
-0.0559733
-0.0609756
-0.0713666
-0.0782269
-0.0753897
-0.065061
-0.0539686
-0.0452969
-0.0391672
-0.0378091
-0.0366755
-0.0351542
-0.0334485
-0.0293843
-0.0209654
-0.0157452
-0.0108723
-0.00491786
-0.367798
-0.344921
-0.321811
-0.29998
-0.281359
-0.267786
-0.259947
-0.257535
-0.258526
-0.261318
-0.260395
-0.252507
-0.236397
-0.212334
-0.183592
-0.155181
-0.131848
-0.116467
-0.109633
-0.110712
-0.119783
-0.13813
-0.165221
-0.19472
-0.214664
-0.213921
-0.192214
-0.15863
-0.124587
-0.0971687
-0.0785793
-0.0680649
-0.0639789
-0.0664954
-0.0769845
-0.0925254
-0.103676
-0.102054
-0.0895697
-0.0746557
-0.0636791
-0.0580206
-0.0577814
-0.0654419
-0.0784248
-0.0865538
-0.0831931
-0.0706255
-0.0569904
-0.0461626
-0.0379663
-0.0349597
-0.0321359
-0.0306198
-0.0291581
-0.0263402
-0.0197921
-0.0158567
-0.0124421
-0.00598861
-0.387644
-0.358157
-0.327142
-0.296115
-0.267331
-0.243676
-0.225872
-0.214433
-0.209247
-0.206361
-0.206607
-0.201013
-0.189216
-0.172025
-0.151155
-0.1306
-0.114352
-0.104893
-0.102798
-0.10781
-0.120656
-0.14289
-0.17356
-0.205631
-0.226536
-0.225047
-0.20126
-0.164994
-0.128366
-0.0986933
-0.0779846
-0.0653797
-0.0591734
-0.0591414
-0.0665206
-0.0793596
-0.0894193
-0.0889205
-0.0791018
-0.0674606
-0.059576
-0.0566575
-0.0590598
-0.0693782
-0.0849131
-0.0943436
-0.0905523
-0.0758375
-0.0596765
-0.0467986
-0.0367224
-0.0322556
-0.027824
-0.0262021
-0.0248345
-0.0232327
-0.0185766
-0.0159395
-0.0140017
-0.00706907
-0.398254
-0.364357
-0.326892
-0.288508
-0.250948
-0.219684
-0.192528
-0.171634
-0.160414
-0.152682
-0.14861
-0.146743
-0.138866
-0.128701
-0.11557
-0.10269
-0.093308
-0.0894927
-0.0917627
-0.100342
-0.116552
-0.142162
-0.175937
-0.21029
-0.232393
-0.231052
-0.206303
-0.168476
-0.130199
-0.0989925
-0.0767011
-0.0623725
-0.0543003
-0.051946
-0.0563726
-0.066498
-0.0753337
-0.0758677
-0.0684763
-0.0598998
-0.0549415
-0.0546736
-0.0596543
-0.0725299
-0.0905534
-0.101339
-0.0972757
-0.0806004
-0.0619962
-0.047198
-0.0354421
-0.0297147
-0.0237781
-0.0219471
-0.0205279
-0.0200933
-0.0173321
-0.0159906
-0.015536
-0.00814959
-0.39935
-0.362521
-0.321307
-0.278568
-0.236148
-0.196921
-0.161893
-0.130715
-0.117466
-0.102837
-0.0947965
-0.0931415
-0.0894624
-0.0841575
-0.0778759
-0.0719947
-0.0688671
-0.0700632
-0.0761896
-0.0879743
-0.10721
-0.135786
-0.172232
-0.208643
-0.232168
-0.231842
-0.207315
-0.16914
-0.130248
-0.0982398
-0.0748924
-0.05924
-0.0496104
-0.04523
-0.0469196
-0.0543839
-0.0618928
-0.0634575
-0.0579388
-0.0521294
-0.0498321
-0.0520212
-0.0594219
-0.074689
-0.0950896
-0.107268
-0.10315
-0.0848204
-0.063933
-0.0473681
-0.0341315
-0.0273414
-0.0200261
-0.0178968
-0.016289
-0.0169545
-0.0160707
-0.0160067
-0.0170275
-0.00921923
-0.392033
-0.354042
-0.312175
-0.268035
-0.223084
-0.179703
-0.139841
-0.105321
-0.080387
-0.0611588
-0.0489534
-0.043769
-0.0414929
-0.0400824
-0.0393675
-0.0392927
-0.0414499
-0.0469332
-0.0565244
-0.0713097
-0.0933483
-0.124479
-0.163067
-0.201249
-0.226366
-0.227599
-0.204376
-0.167113
-0.128679
-0.0966049
-0.0727063
-0.0561154
-0.0452465
-0.0391909
-0.0384553
-0.0433778
-0.0494475
-0.0513537
-0.0477014
-0.0443126
-0.044318
-0.0486922
-0.058283
-0.0757039
-0.0982996
-0.111902
-0.108009
-0.0884161
-0.0654762
-0.0473156
-0.0327906
-0.0251256
-0.0165856
-0.0140851
-0.0121655
-0.0138435
-0.0148024
-0.0159826
-0.0184575
-0.0102667
-0.378356
-0.3408
-0.301128
-0.258628
-0.214012
-0.169705
-0.127791
-0.0900826
-0.0587181
-0.033803
-0.0161129
-0.00576001
-0.00123144
-0.000693013
-0.00264859
-0.00638286
-0.012414
-0.0214052
-0.0340989
-0.0517147
-0.0763166
-0.109527
-0.149614
-0.189087
-0.21575
-0.218931
-0.197876
-0.162661
-0.125691
-0.0942551
-0.0702708
-0.0530893
-0.0412822
-0.0338839
-0.0311062
-0.0336883
-0.0382767
-0.0402538
-0.0380711
-0.0366328
-0.038518
-0.0447371
-0.0562053
-0.075475
-0.100052
-0.115092
-0.111716
-0.0913105
-0.0666143
-0.0470477
-0.0314202
-0.0230456
-0.0134558
-0.0105354
-0.008201
-0.0107815
-0.0135358
-0.0159126
-0.0198083
-0.0112804
-0.360446
-0.324627
-0.289198
-0.250669
-0.208872
-0.166317
-0.124957
-0.0861967
-0.0515575
-0.0221476
0.00102639
0.0172886
0.0267109
0.0300035
0.028554
0.0236522
0.0155995
0.00423534
-0.010959
-0.0310541
-0.0578121
-0.092485
-0.133333
-0.173488
-0.201391
-0.206562
-0.188307
-0.15608
-0.12145
-0.0912948
-0.0676578
-0.0502063
-0.0377431
-0.0293206
-0.0248841
-0.0253926
-0.028533
-0.0304164
-0.0292876
-0.0292782
-0.0325821
-0.0402449
-0.0532263
-0.0739783
-0.100309
-0.116753
-0.114161
-0.0934423
-0.0673443
-0.0465779
-0.030029
-0.0210935
-0.0106263
-0.00725627
-0.00443383
-0.00778341
-0.0122783
-0.0157923
-0.0210616
-0.012249
-0.340494
-0.307607
-0.277424
-0.243852
-0.20627
-0.167265
-0.128429
-0.0907363
-0.0554095
-0.0236992
0.00333214
0.0248042
0.0399794
0.0483993
0.0502381
0.0470367
0.0392774
0.0271925
0.0105859
-0.0112241
-0.0394365
-0.0748047
-0.11562
-0.15572
-0.184371
-0.191328
-0.176299
-0.147818
-0.116248
-0.0879375
-0.0650449
-0.0476108
-0.0347387
-0.0255664
-0.019827
-0.0185484
-0.0202963
-0.0219254
-0.0214871
-0.0224172
-0.0266884
-0.0353316
-0.0493681
-0.0712601
-0.0990972
-0.116858
-0.115306
-0.094804
-0.0677157
-0.0459658
-0.0286468
-0.0192898
-0.00812026
-0.00425035
-0.000893002
-0.00485693
-0.0110365
-0.0156181
-0.0221986
-0.0131629
-0.320881
-0.292035
-0.267021
-0.23805
-0.204933
-0.170233
-0.134946
-0.0996992
-0.0653816
-0.0332456
-0.00445929
0.0200532
0.0395456
0.0532798
0.0603447
0.0608094
0.0556542
0.0447921
0.0282781
0.00597257
-0.0225781
-0.0575525
-0.0973616
-0.136655
-0.165826
-0.174136
-0.162731
-0.138639
-0.110733
-0.0847358
-0.0629117
-0.0456931
-0.032559
-0.022811
-0.0160188
-0.0131956
-0.0136242
-0.0148479
-0.0147614
-0.0161854
-0.0209643
-0.0301409
-0.044853
-0.0674516
-0.0964147
-0.115444
-0.115221
-0.0954058
-0.0678207
-0.0453147
-0.0273183
-0.0176243
-0.00598624
-0.00155951
0.00238725
-0.00200202
-0.00981871
-0.0153843
-0.0232024
-0.0140123
-0.303571
-0.280107
-0.259493
-0.234083
-0.205101
-0.174717
-0.143217
-0.110924
-0.0784729
-0.0469324
-0.0173282
0.00936885
0.0321903
0.0511
0.0611044
0.0649127
0.0637704
0.0560357
0.0414029
0.0199972
-0.00785774
-0.0416953
-0.0797819
-0.117488
-0.153046
-0.155535
-0.14766
-0.128483
-0.104817
-0.081571
-0.0611179
-0.0442861
-0.0309956
-0.0208256
-0.013194
-0.00901982
-0.00823643
-0.00910067
-0.0092225
-0.0108113
-0.0156713
-0.0247219
-0.0395327
-0.0626171
-0.09265
-0.112657
-0.11397
-0.0949976
-0.0674983
-0.0445173
-0.0259717
-0.015951
-0.00408748
0.000792208
0.00530588
0.000791513
-0.00862611
-0.0150872
-0.0240627
-0.0147823
-0.287405
-0.271543
-0.254195
-0.231378
-0.206407
-0.180389
-0.15276
-0.123712
-0.0940182
-0.0646128
-0.0363105
-0.00995184
0.0135759
0.0334011
0.0502444
0.0600626
0.0625177
0.0587075
0.047825
0.0295586
0.00454992
-0.0262014
-0.0605777
-0.0935415
-0.111673
-0.130997
-0.128416
-0.114626
-0.0955361
-0.0754299
-0.0568849
-0.0410114
-0.0280678
-0.0179673
-0.0100278
-0.0049544
-0.00315403
-0.00377824
-0.00432607
-0.00606026
-0.010978
-0.0196812
-0.0341857
-0.0570773
-0.0874284
-0.108392
-0.109998
-0.093055
-0.0660268
-0.0429155
-0.0242174
-0.014027
-0.00198058
0.00311125
0.00800168
0.0034774
-0.00748595
-0.0147155
-0.0247608
-0.0154669
-0.262032
-0.260142
-0.242376
-0.218971
-0.195175
-0.171116
-0.145803
-0.119117
-0.0916521
-0.0642132
-0.0375883
-0.0125064
0.0104692
0.0306584
0.0461607
0.0562025
0.0607672
0.0593213
0.050589
0.0340882
0.010531
-0.018875
-0.0520236
-0.0836743
-0.106848
-0.117823
-0.114697
-0.102074
-0.0848904
-0.0668504
-0.0501124
-0.0355892
-0.0235153
-0.0139271
-0.0061786
-0.000841801
0.00166816
0.00155392
0.0011426
-5.61002e-05
-0.00457572
-0.0124708
-0.0267681
-0.0503585
-0.082693
-0.106028
-0.114158
-0.0913892
-0.0637154
-0.0404841
-0.0220316
-0.0120395
0.000308165
0.00560272
0.0112085
0.00632596
-0.00633048
-0.014282
-0.0253407
-0.0160879
-0.237863
-0.239578
-0.223464
-0.201048
-0.178903
-0.157358
-0.135024
-0.111381
-0.0868779
-0.0622854
-0.0383233
-0.0156246
0.00523614
0.0232331
0.038099
0.0483214
0.0534943
0.0529375
0.0456477
0.0311826
0.0101337
-0.016228
-0.0455895
-0.0730129
-0.0914103
-0.100495
-0.0978966
-0.0874897
-0.0732194
-0.0579607
-0.0434623
-0.0305321
-0.0194739
-0.0105244
-0.00310742
0.00229114
0.00515305
0.00523951
0.00475102
0.00346917
-0.000194566
-0.00719332
-0.0208417
-0.0445111
-0.0777981
-0.101894
-0.107858
-0.0876297
-0.0603632
-0.0376862
-0.0197104
-0.00992772
0.00233996
0.00749653
0.0136817
0.00851471
-0.00539423
-0.0139217
-0.0256626
-0.0164803
-0.216219
-0.218246
-0.20473
-0.184716
-0.164684
-0.14549
-0.125831
-0.104979
-0.0832226
-0.0612716
-0.0398113
-0.019418
-0.000604786
0.0158828
0.029462
0.0390746
0.0440895
0.0439108
0.0377963
0.0254527
0.0074719
-0.0147543
-0.0388701
-0.0609007
-0.0761845
-0.0835308
-0.0819837
-0.0741059
-0.0626708
-0.0499089
-0.0373602
-0.0258452
-0.015709
-0.00733731
-0.000282594
0.00504722
0.00815627
0.00847354
0.00803306
0.00674776
0.00341278
-0.00320084
-0.0164897
-0.0397989
-0.0723228
-0.0957644
-0.101355
-0.0828037
-0.0564972
-0.0346221
-0.0172552
-0.00774973
0.00431029
0.00928025
0.0158653
0.0103032
-0.00461943
-0.0135649
-0.0256969
-0.0166915
-0.195402
-0.197879
-0.186987
-0.169658
-0.151791
-0.134687
-0.117377
-0.0990808
-0.0799115
-0.0604707
-0.0413865
-0.0231719
-0.0063146
0.00855309
0.0208114
0.029688
0.034575
0.0349403
0.0302402
0.0203212
0.00576718
-0.0121157
-0.0313744
-0.0490442
-0.0618404
-0.0682026
-0.067691
-0.0618953
-0.052835
-0.0422631
-0.0315002
-0.021343
-0.012132
-0.00435025
0.00230158
0.00747392
0.0107597
0.0113908
0.0111352
0.0100072
0.0069584
0.000630143
-0.0122932
-0.0346181
-0.0656047
-0.0883702
-0.0939121
-0.0769388
-0.0520359
-0.0312508
-0.0146692
-0.0054958
0.00622775
0.0109745
0.0178397
0.0119226
-0.00386276
-0.0131001
-0.0254428
-0.0167209
-0.175877
-0.179042
-0.170308
-0.15543
-0.13969
-0.124573
-0.109413
-0.0934711
-0.0767237
-0.0596468
-0.0428033
-0.0266739
-0.0117183
0.00155142
0.0125846
0.0207831
0.0256111
0.0266138
0.0234029
0.0159057
0.00460511
-0.00943461
-0.0246358
-0.0386796
-0.0492818
-0.0548574
-0.0550856
-0.0509516
-0.0438881
-0.03522
-0.0260428
-0.0171295
-0.0088077
-0.00160303
0.00464198
0.00959719
0.0129808
0.0139371
0.0139614
0.0131346
0.0104986
0.00468884
-0.00744954
-0.0283385
-0.0578014
-0.0798568
-0.0853032
-0.0700244
-0.0469944
-0.0276111
-0.0119791
-0.00319172
0.00809402
0.0125401
0.019563
0.013434
-0.00305113
-0.0124879
-0.0248683
-0.0165299
-0.158366
-0.161686
-0.154618
-0.141948
-0.128274
-0.115072
-0.101903
-0.0881112
-0.0735963
-0.0587206
-0.0439774
-0.0298097
-0.0166252
-0.00484306
0.00507122
0.0126272
0.0173716
0.0189348
0.0170393
0.0116543
0.0031604
-0.00759164
-0.0193338
-0.0302614
-0.0388387
-0.0436295
-0.0443093
-0.0414142
-0.035923
-0.0288302
-0.0210223
-0.0132282
-0.0057537
0.000883692
0.0067319
0.0114337
0.014839
0.0161016
0.016503
0.0161034
0.0139959
0.0089814
-0.00200796
-0.0212917
-0.0491026
-0.0702184
-0.0756034
-0.0621907
-0.0414355
-0.0237461
-0.00921454
-0.000865122
0.0099049
0.0139647
0.0209882
0.0148015
-0.00216215
-0.0116979
-0.0239004
-0.0160711
-0.14232
-0.145546
-0.139913
-0.129257
-0.117526
-0.106128
-0.0947868
-0.0829435
-0.0704607
-0.0576079
-0.0448031
-0.0324429
-0.0208779
-0.0104729
-0.00160522
0.00531946
0.00992955
0.0119288
0.0111183
0.00749805
0.00137357
-0.00659516
-0.0154418
-0.0239164
-0.0305146
-0.0344676
-0.0353006
-0.0332396
-0.0289337
-0.0231181
-0.0164793
-0.00967583
-0.00299269
0.00309013
0.00855998
0.0130033
0.0163725
0.0179058
0.0187437
0.018887
0.0174107
0.0133603
0.00369086
-0.0137932
-0.0396332
-0.0596554
-0.0650482
-0.0536334
-0.0354594
-0.0197123
-0.00641191
0.00145535
0.0116574
0.0152539
0.0220772
0.0159845
-0.00114599
-0.0106603
-0.0224626
-0.0152995
-0.127345
-0.130628
-0.126268
-0.117391
-0.107422
-0.0976776
-0.0879954
-0.0779039
-0.0672506
-0.056233
-0.0451984
-0.0344933
-0.0244102
-0.0152671
-0.00737509
-0.00106026
0.00337735
0.0057028
0.00577308
0.00360349
-0.000571448
-0.00624915
-0.0126994
-0.0189902
-0.0240147
-0.0271186
-0.0278748
-0.0263321
-0.0228945
-0.0180918
-0.0124353
-0.00649512
-0.000535472
0.00501041
0.0101167
0.0143213
0.0176209
0.0193795
0.0206463
0.0214276
0.0207003
0.0177265
0.00950735
-0.006004
-0.029698
-0.0485336
-0.0539666
-0.0446191
-0.0292109
-0.0155786
-0.00361075
0.00374279
0.0133483
0.0164311
0.0228154
0.0169914
0.000100197
-0.00928001
-0.0204924
-0.0141765
-0.113683
-0.116987
-0.113651
-0.106304
-0.0979062
-0.0896565
-0.0814676
-0.0729413
-0.0639223
-0.0545529
-0.0451192
-0.0359301
-0.027178
-0.0191841
-0.01219
-0.00645514
-0.0022193
0.000331994
0.00109089
7.45981e-05
-0.00254082
-0.00637456
-0.0108612
-0.0153419
-0.0190066
-0.0212947
-0.0218332
-0.0205759
-0.0177527
-0.0137356
-0.0088933
-0.00369842
0.00161193
0.00664865
0.0113978
0.0153885
0.0186131
0.0205608
0.0221937
0.0236488
0.0237942
0.0220582
0.0153891
0.001765
-0.0198112
-0.0373243
-0.0427653
-0.0354719
-0.0228722
-0.0114241
-0.000851253
0.00597239
0.0149705
0.0175455
0.023232
0.0178941
0.00171083
-0.00745562
-0.0179516
-0.0126826
-0.101488
-0.104525
-0.101974
-0.0959469
-0.0889452
-0.0820322
-0.0751719
-0.0680317
-0.0604593
-0.0525519
-0.0445354
-0.0366451
-0.0291528
-0.0222113
-0.0160424
-0.0108593
-0.00685346
-0.00417275
-0.00290106
-0.00302551
-0.00441477
-0.00678034
-0.00967608
-0.0126919
-0.0151973
-0.0167315
-0.016976
-0.0158405
-0.0134376
-0.0100195
-0.00584332
-0.00128665
0.00344838
0.00801419
0.01241
0.0162006
0.0193583
0.0214731
0.0233929
0.0254086
0.0265214
0.0261355
0.0209789
0.00896396
-0.0105274
-0.0264877
-0.0318709
-0.026544
-0.0166501
-0.00733707
0.00182741
0.00812098
0.0165113
0.018669
0.0234123
0.0188191
0.003822
-0.00509954
-0.0148509
-0.0108321
-0.0901482
-0.0930508
-0.0912013
-0.0863119
-0.0805271
-0.0747859
-0.0690916
-0.0631659
-0.0568638
-0.0502478
-0.0435036
-0.0368132
-0.0303885
-0.0243819
-0.0189659
-0.0143062
-0.0105547
-0.00782901
-0.00619597
-0.00564838
-0.00608882
-0.00730796
-0.00902205
-0.0108174
-0.0123361
-0.0131905
-0.0131133
-0.011994
-0.00986907
-0.00690144
-0.00326422
0.00075039
0.00497896
0.00911743
0.0131685
0.0167597
0.0198495
0.0221138
0.0242612
0.0266793
0.0286089
0.029381
0.025541
0.014989
-0.0022442
-0.0163968
-0.0216863
-0.0181804
-0.0107573
-0.00341257
0.00438621
0.010164
0.0179507
0.0198711
0.0235
0.0199299
0.00653225
-0.00217841
-0.0112769
-0.00868609
-0.0797907
-0.0825766
-0.0813195
-0.0774075
-0.0726474
-0.0679084
-0.063221
-0.0583472
-0.0531473
-0.0476558
-0.0420092
-0.0363801
-0.0309128
-0.0257466
-0.0210159
-0.016851
-0.0133713
-0.0106706
-0.00880419
-0.00777145
-0.00750103
-0.00783137
-0.00859558
-0.00947561
-0.0101945
-0.010465
-0.0100742
-0.00890942
-0.00696208
-0.00433029
-0.00112614
0.00243147
0.00621568
0.00996961
0.0136907
0.0170765
0.0200842
0.0224675
0.0247805
0.0274082
0.0298084
0.0312463
0.0284403
0.0194519
0.00479069
-0.00740176
-0.0125859
-0.0106851
-0.00538268
0.000254448
0.00678422
0.0120703
0.0192607
0.0211831
0.0236986
0.0213824
0.00983722
0.0012364
-0.00740859
-0.0063678
-0.0704339
-0.073041
-0.0722234
-0.069113
-0.0652489
-0.0613827
-0.0575623
-0.053589
-0.0493329
-0.0448106
-0.0401268
-0.0354135
-0.0307927
-0.0263747
-0.0222649
-0.0185653
-0.0153698
-0.0127525
-0.0107607
-0.00939729
-0.00861568
-0.00831833
-0.00834151
-0.00850486
-0.00858835
-0.00837781
-0.00770514
-0.00646626
-0.00463002
-0.00224883
0.000607912
0.00378161
0.00717629
0.0105847
0.0139948
0.0171697
0.0200703
0.0225174
0.0249173
0.0275707
0.0300458
0.0316261
0.0295913
0.0222817
0.0103452
0.000123596
-0.00487674
-0.0042644
-0.000658158
0.00358321
0.00897908
0.0137987
0.0204005
0.0225591
0.02418
0.023243
0.013556
0.00492011
-0.00352056
-0.00405619
-0.0619505
-0.0643411
-0.0638645
-0.0614282
-0.0583231
-0.0552011
-0.052119
-0.0489118
-0.0454603
-0.0417648
-0.0379056
-0.0339866
-0.0301054
-0.0263488
-0.0227992
-0.0195353
-0.0166301
-0.0141423
-0.0121106
-0.0105431
-0.00941275
-0.00865221
-0.00815289
-0.00777776
-0.00737321
-0.00678118
-0.00587152
-0.00455367
-0.00278812
-0.000596747
0.00197969
0.0048305
0.00788409
0.0109804
0.0140986
0.017057
0.0198212
0.0222674
0.0246696
0.027186
0.0294644
0.0308662
0.0293698
0.0236519
0.0142835
0.00594308
0.00131183
0.00101566
0.00335604
0.00651847
0.0109334
0.0153037
0.0213127
0.0238516
0.0250674
0.0254047
0.0173093
0.00849037
6.05633e-05
-0.00194554
-0.0542157
-0.0564105
-0.056207
-0.0543281
-0.051857
-0.0493594
-0.0468975
-0.0443341
-0.0415607
-0.0385667
-0.0354108
-0.0321744
-0.0289345
-0.0257594
-0.0227124
-0.019854
-0.0172401
-0.0149166
-0.0129142
-0.0112456
-0.00989819
-0.00882588
-0.00795742
-0.00719543
-0.00643226
-0.00555204
-0.00445688
-0.00307111
-0.00135557
0.000686954
0.00303383
0.00561109
0.00836634
0.011178
0.0140213
0.0167585
0.0193569
0.0217321
0.024074
0.0263278
0.0282916
0.0294048
0.0282643
0.0239014
0.0167505
0.0101226
0.0060486
0.00520943
0.00666159
0.00902974
0.012619
0.0165482
0.0219476
0.0248692
0.02623
0.0275024
0.020596
0.0115231
0.00305702
-0.000183626
-0.0471982
-0.0492072
-0.0492076
-0.0477796
-0.0458321
-0.0438539
-0.041908
-0.0398802
-0.0376729
-0.035268
-0.0327071
-0.0300528
-0.0273656
-0.0246985
-0.0221
-0.0196168
-0.0172918
-0.0151608
-0.0132372
-0.0115442
-0.0100818
-0.00881875
-0.00770945
-0.0066861
-0.00567423
-0.00459005
-0.00336211
-0.0019292
-0.000257244
0.00166182
0.0038162
0.00615872
0.00865049
0.0112022
0.0137865
0.0162991
0.0187093
0.0209401
0.0230242
0.025096
0.0267492
0.0275881
0.0266953
0.0234241
0.0180812
0.0129356
0.00953211
0.00843992
0.00930154
0.0111054
0.0140103
0.0175079
0.0222864
0.0254765
0.0272371
0.0289548
0.0229411
0.0137332
0.00532551
0.00116575
-0.0408535
-0.0426692
-0.0428123
-0.0417466
-0.0402297
-0.0386804
-0.03716
-0.0355738
-0.0338347
-0.0319202
-0.0298585
-0.0276971
-0.0254828
-0.023256
-0.0210539
-0.0189131
-0.0168717
-0.0149809
-0.0131337
-0.0114778
-0.0099826
-0.00862643
-0.00738004
-0.00619739
-0.00502871
-0.00381449
-0.00250426
-0.00105005
0.000575201
0.00238458
0.00437203
0.0065091
0.00876604
0.0110798
0.0134219
0.0157125
0.0179212
0.0199771
0.0218711
0.023654
0.025024
0.0256502
0.0249569
0.0225428
0.0186179
0.0146946
0.0118977
0.0108425
0.0113386
0.0127488
0.0150882
0.0181597
0.022305
0.0256296
0.027623
0.0292622
0.0240538
0.0150516
0.00686008
0.00192399
-0.035103
-0.0367318
-0.0369749
-0.0361992
-0.0350338
-0.0338356
-0.0326627
-0.0314371
-0.030082
-0.0285725
-0.0269266
-0.0251796
-0.023367
-0.0215188
-0.0196608
-0.0178157
-0.0160023
-0.0142257
-0.0126247
-0.0110838
-0.00962746
-0.00825551
-0.00695368
-0.00569332
-0.0044431
-0.00316178
-0.00181524
-0.000367069
0.00120251
0.00290782
0.00474494
0.00669818
0.00874426
0.010839
0.0129544
0.0150288
0.0170313
0.0188962
0.0205998
0.0221154
0.0232503
0.0237346
0.0232192
0.0214694
0.0186371
0.0156844
0.0133163
0.0125584
0.0128461
0.0139774
0.0158495
0.0184847
0.0219614
0.025389
0.0270927
0.0282956
0.023945
0.0155608
0.00775933
0.0024947
-0.0298915
-0.0313475
-0.0316574
-0.0311107
-0.0302288
-0.0293151
-0.0284234
-0.0274898
-0.026447
-0.0252695
-0.0239677
-0.0225675
-0.0210956
-0.0195743
-0.0180226
-0.0164583
-0.0149003
-0.0133653
-0.0118837
-0.010448
-0.0090627
-0.00772498
-0.00642727
-0.00515179
-0.00387975
-0.00258326
-0.00124045
0.000175455
0.00167747
0.003279
0.00497633
0.00676156
0.00861573
0.0105078
0.0124114
0.0142783
0.0160793
0.0177526
0.0192691
0.0205614
0.0215153
0.0219171
0.0215675
0.020331
0.0183325
0.0161841
0.0144538
0.0137613
0.0139032
0.0148194
0.0163045
0.0184921
0.0211971
0.0231406
0.0254778
0.0263568
0.0228592
0.0154005
0.00813198
0.00276243
-0.02518
-0.0264728
-0.0268209
-0.0264522
-0.0257974
-0.0251126
-0.0244468
-0.0237476
-0.0229569
-0.0220497
-0.021031
-0.0199196
-0.0187352
-0.0174943
-0.0162107
-0.014898
-0.0135697
-0.012237
-0.0109137
-0.00960637
-0.00832021
-0.00705396
-0.00580436
-0.00456084
-0.00331309
-0.00204287
-0.00073717
0.000622955
0.002045
0.00353999
0.00510377
0.00673266
0.00840999
0.0101143
0.0118217
0.0134929
0.0151031
0.0165927
0.0179344
0.0190493
0.0198702
0.0202334
0.0200357
0.0191982
0.0178275
0.0163167
0.015079
0.0145199
0.0145761
0.0153138
0.0164778
0.0182476
0.0203411
0.0221148
0.0236506
0.0239638
0.0211431
0.0147359
0.00810282
0.0028096
-0.020923
-0.0220628
-0.022428
-0.0221966
-0.0217225
-0.0212206
-0.0207349
-0.0202226
-0.0196339
-0.0189452
-0.018158
-0.0172855
-0.016342
-0.0153395
-0.0142875
-0.0131954
-0.0120734
-0.0109287
-0.00976891
-0.00860156
-0.00743312
-0.00626403
-0.00509374
-0.00391639
-0.0027273
-0.00151514
-0.000273118
0.00101154
0.00234209
0.00372673
0.0051605
0.00664164
0.00815542
0.00968606
0.0112124
0.0127025
0.0141347
0.015455
0.0166409
0.0176176
0.018343
0.0186964
0.0186316
0.018103
0.0171999
0.0161791
0.0153141
0.0149061
0.0149225
0.0155076
0.0164026
0.0177915
0.0193622
0.0207691
0.0216982
0.0214871
0.0191213
0.013738
0.00779694
0.00271576
-0.0170788
-0.0180784
-0.0184458
-0.0183191
-0.0179876
-0.0176309
-0.0172875
-0.016923
-0.016495
-0.0159818
-0.0153826
-0.0147065
-0.0139637
-0.0131626
-0.0123094
-0.0114102
-0.0104718
-0.00950046
-0.00850008
-0.00747629
-0.00643524
-0.00537888
-0.00430829
-0.00322054
-0.00211441
-0.000983439
0.000174935
0.00136882
0.00259834
0.00386904
0.00517527
0.00651549
0.00787689
0.00924713
0.0106079
0.0119323
0.013202
0.0143715
0.015426
0.0162895
0.0169453
0.0173039
0.0173509
0.0170598
0.0165003
0.0158449
0.015262
0.0149911
0.0149948
0.0154485
0.0161151
0.0171626
0.0182792
0.0192652
0.0197337
0.019125
0.017037
0.0125561
0.00731551
0.00254273
-0.0136137
-0.0144853
-0.0148439
-0.0147957
-0.014576
-0.0143336
-0.0141021
-0.0138536
-0.0135525
-0.0131793
-0.0127319
-0.0122164
-0.0116398
-0.0110078
-0.0103245
-0.00959301
-0.00881802
-0.00800379
-0.00715359
-0.0062705
-0.0053594
-0.0044231
-0.00346372
-0.00248002
-0.00147265
-0.000438399
0.00062255
0.00171482
0.0028366
0.00399089
0.00517163
0.00637713
0.00759593
0.0088179
0.0100279
0.0112024
0.0123263
0.0133622
0.0143011
0.015073
0.0156778
0.0160481
0.016184
0.0160712
0.0157601
0.0153712
0.0150012
0.01484
0.0148417
0.0151815
0.015654
0.0163988
0.017134
0.0177175
0.0178347
0.0169654
0.015043
0.0113047
0.00673357
0.00233136
-0.0104961
-0.0112518
-0.011594
-0.0116039
-0.0114713
-0.0113184
-0.011174
-0.011016
-0.0108145
-0.0105525
-0.0102271
-0.009842
-0.00940232
-0.0089115
-0.00837195
-0.00778527
-0.00715376
-0.00648078
-0.00576912
-0.00501999
-0.00423641
-0.00342127
-0.00257748
-0.00170491
-0.000805004
0.000123495
0.00107879
0.00206304
0.00307317
0.00411031
0.00516838
0.00624497
0.00733029
0.00841517
0.00948696
0.0105268
0.0115214
0.0124377
0.0132697
0.01397
0.0145358
0.0149169
0.015119
0.0151356
0.0150007
0.0148037
0.0145882
0.014507
0.0145088
0.014749
0.015058
0.0155397
0.0159637
0.0162032
0.0160496
0.0150329
0.0132187
0.0100665
0.00610807
0.00210731
-0.00769764
-0.00834937
-0.00867066
-0.00872274
-0.00865747
-0.00857425
-0.00849743
-0.00840938
-0.00828555
-0.00811136
-0.00788338
-0.00760392
-0.00727637
-0.0069028
-0.00648428
-0.00602154
-0.0055153
-0.00496747
-0.00438072
-0.0037558
-0.00309381
-0.00239673
-0.00166768
-0.000907501
-0.000117978
0.000701137
0.00154734
0.00242106
0.00331871
0.00424
0.00517906
0.00613295
0.00709301