/*--------------------------------*- C++ -*----------------------------------*\
| =========                 |                                                 |
| \\      /  F ield         | OpenFOAM: The Open Source CFD Toolbox           |
|  \\    /   O peration     | Version:  2512                                  |
|   \\  /    A nd           | Website:  www.openfoam.com                      |
|    \\/     M anipulation  |                                                 |
\*---------------------------------------------------------------------------*/
FoamFile
{
    version     2.0;
    format      ascii;
    arch        "LSB;label=32;scalar=64";
    class       volVectorField;
    location    "130";
    object      U;
}
// * * * * * * * * * * * * * * * * * * * * * * * * * * * * * * * * * * * * * //

dimensions      [0 1 -1 0 0 0 0];

internalField   nonuniform List<vector> 
13248
(
(-0.0133765 0.012759 9.86587e-20)
(-0.0218855 0.0267253 0)
(-0.0114439 0.0340985 -1.86281e-19)
(0.0169075 0.03633 1.75469e-19)
(0.0623569 0.0347479 1.64294e-19)
(0.124157 0.0305324 0)
(0.201348 0.0246457 0)
(0.292529 0.0178478 4.01508e-19)
(0.395615 0.0107119 -1.62603e-22)
(0.507662 0.00361837 -3.53862e-19)
(0.62486 -0.00324183 3.31877e-19)
(0.742721 -0.00984471 -2.07959e-19)
(0.85646 -0.0162914 0)
(0.961466 -0.0227512 -3.59152e-19)
(1.05379 -0.029399 6.68758e-19)
(1.13056 -0.0363587 -1.60432e-19)
(1.19024 -0.0436634 -2.76963e-19)
(1.23271 -0.0512494 2.60039e-19)
(1.25913 -0.0589262 0)
(1.27159 -0.0666282 0)
(1.27294 -0.0735755 0)
(1.26518 -0.0818233 0)
(1.25246 -0.0846972 6.89458e-20)
(1.23135 -0.103111 2.33711e-19)
(-0.0121753 0.0103328 -2.9766e-19)
(-0.0138874 0.0186968 2.02629e-19)
(0.00709425 0.0212366 -1.79477e-21)
(0.04923 0.0198914 -2.67691e-19)
(0.111356 0.016258 -1.64118e-19)
(0.192171 0.0116488 -1.55458e-19)
(0.289756 0.00702118 -2.87228e-19)
(0.401238 0.00301418 2.71317e-19)
(0.52264 -3.75537e-05 0)
(0.648955 -0.00209915 7.08424e-22)
(0.774521 -0.00340143 9.24827e-22)
(0.893597 -0.00436633 2.05847e-19)
(1.00102 -0.00550169 0)
(1.09279 -0.00728695 0)
(1.16648 -0.0100744 2.39278e-19)
(1.22133 -0.0140271 -4.49819e-19)
(1.25823 -0.0191024 2.62918e-19)
(1.27929 -0.0250786 -2.46868e-19)
(1.28741 -0.0316158 -1.05895e-19)
(1.28577 -0.0383112 -1.89111e-19)
(1.27727 -0.0447286 -7.41272e-20)
(1.26436 -0.0507394 -1.38008e-19)
(1.24891 -0.0542545 2.0842e-19)
(1.23103 -0.0620876 5.74014e-20)
(-0.00983884 0.00775464 0)
(-0.00182625 0.0108223 0)
(0.0332972 0.009506 9.47287e-20)
(0.0931103 0.00595555 8.74484e-20)
(0.175591 0.00190964 -1.78638e-21)
(0.278202 -0.00127669 -1.60099e-19)
(0.39722 -0.00278255 0)
(0.52751 -0.00229542 -1.35197e-19)
(0.662707 3.0694e-05 1.27e-19)
(0.795806 0.00364776 4.84378e-23)
(0.920007 0.00774758 -2.18433e-19)
(1.0296 0.0114414 -2.00144e-19)
(1.12062 0.0139425 4.05924e-21)
(1.19121 0.014708 -1.63726e-19)
(1.24159 0.0135116 3.95224e-19)
(1.27367 0.0104389 0)
(1.29048 0.00582208 -2.50329e-19)
(1.29555 0.000136982 1.22727e-19)
(1.29228 -0.00608124 1.05815e-19)
(1.28354 -0.0123861 0)
(1.27156 -0.0181995 8.398e-20)
(1.25764 -0.0237833 -2.80725e-19)
(1.24303 -0.027017 2.63531e-19)
(1.22727 -0.034751 1.58075e-19)
(-0.00583022 0.00488198 -1.04541e-19)
(0.0154542 0.00298194 -1.07968e-19)
(0.0685126 -0.000977859 9.7991e-20)
(0.149607 -0.00501086 0)
(0.255169 -0.00747525 0)
(0.380551 -0.00719774 -3.11443e-21)
(0.519384 -0.00377864 0)
(0.663778 0.00245143 -4.11088e-19)
(0.805166 0.0105845 3.82128e-19)
(0.935495 0.0193659 -4.72514e-19)
(1.04838 0.0274803 1.0877e-19)
(1.13987 0.033822 0)
(1.20872 0.0376823 1.79125e-19)
(1.25607 0.0388167 -3.3102e-19)
(1.28482 0.0373989 7.90922e-20)
(1.29878 0.0338969 1.99322e-19)
(1.30192 0.0289214 -1.06408e-20)
(1.29775 0.0230948 -2.19403e-19)
(1.28901 0.0169554 0)
(1.27763 0.0109346 0)
(1.26487 0.00535662 -7.60412e-20)
(1.25143 0.000250069 6.74523e-20)
(1.23791 -0.00322703 2.36611e-19)
(1.22386 -0.00994274 -2.22203e-19)
(0.000344719 0.00174993 -1.09504e-19)
(0.0389405 -0.0045773 -1.09491e-19)
(0.113653 -0.00967829 3.08087e-19)
(0.218899 -0.0121654 -1.87694e-19)
(0.348719 -0.0108515 1.7666e-19)
(0.495461 -0.00512184 3.22212e-19)
(0.649565 0.00459975 -2.27541e-19)
(0.800601 0.0170183 -2.7669e-19)
(0.9389 0.0303545 5.62671e-21)
(1.05709 0.0427887 3.55199e-19)
(1.15105 0.0528498 0)
(1.21998 0.0596554 9.692e-20)
(1.2659 0.0629615 0)
(1.29262 0.0630553 -1.57582e-19)
(1.30466 0.0605582 2.21773e-19)
(1.3064 0.0562185 2.51635e-21)
(1.30145 0.0507513 -5.73671e-20)
(1.29252 0.0447463 1.07223e-19)
(1.28141 0.0386446 9.16389e-20)
(1.26922 0.0327481 -8.16568e-20)
(1.25661 0.0272694 7.60224e-20)
(1.24391 0.022241 -6.74345e-20)
(1.23136 0.0182674 0)
(1.21874 0.0120794 -5.04816e-20)
(0.00909328 -0.00142633 1.09488e-19)
(0.0693274 -0.0112065 1.14617e-19)
(0.16903 -0.0155797 -1.03176e-19)
(0.300125 -0.0142582 1.92547e-19)
(0.453378 -0.00700674 -1.81219e-19)
(0.617493 0.00572488 1.64343e-19)
(0.779872 0.0222808 -7.87204e-20)
(0.928712 0.0402561 2.07673e-19)
(1.05512 0.0571891 -1.30209e-19)
(1.15434 0.0711359 2.30006e-19)
(1.22581 0.0809843 -5.29982e-19)
(1.27228 0.0864806 1.93985e-19)
(1.29843 0.0880401 -1.69706e-19)
(1.3095 0.0864612 1.59413e-19)
(1.31035 0.082653 1.36947e-19)
(1.30483 0.0774444 1.19689e-19)
(1.29567 0.0714927 -3.32397e-19)
(1.28465 0.0652703 2.06086e-19)
(1.2728 0.059094 -9.1642e-20)
(1.26069 0.0531704 2.37158e-19)
(1.24862 0.0476265 -7.6613e-20)
(1.2367 0.0425303 -1.84113e-19)
(1.22504 0.0381575 1.69597e-19)
(1.21343 0.0324164 5.04667e-20)
(0.0207082 -0.00428689 0)
(0.106913 -0.0159355 8.71428e-22)
(0.234193 -0.0173254 2.14658e-19)
(0.391271 -0.00985877 -2.01435e-19)
(0.564925 0.00512657 -1.82283e-19)
(0.740205 0.0255931 3.38835e-19)
(0.902584 0.048438 -1.57384e-19)
(1.04085 0.0703506 2.09686e-19)
(1.14893 0.088706 -4.72249e-21)
(1.22602 0.102027 -1.18537e-19)
(1.27539 0.109992 2.58486e-19)
(1.30255 0.113148 -3.80703e-19)
(1.31361 0.112501 0)
(1.31401 0.109164 -7.44096e-20)
(1.30799 0.104121 -1.9854e-19)
(1.29846 0.0981275 6.24284e-20)
(1.28726 0.0917117 2.667e-21)
(1.2754 0.0852159 -1.35911e-19)
(1.26344 0.0788549 9.1247e-21)
(1.25162 0.0727614 1.56874e-19)
(1.24004 0.0670186 -6.93876e-20)
(1.22875 0.0616899 -2.60875e-20)
(1.21774 0.0568159 8.13053e-20)
(1.20689 0.0512733 0)
(0.0353381 -0.00637284 0)
(0.151497 -0.0176093 5.80867e-20)
(0.307818 -0.0134544 -2.7842e-19)
(0.48919 0.00231514 1.01577e-19)
(0.678194 0.0261325 -9.55973e-20)
(0.857121 0.0540295 -8.71307e-20)
(1.01148 0.0816212 -1.54389e-19)
(1.13285 0.105268 7.69288e-20)
(1.21943 0.122857 6.71919e-20)
(1.27464 0.133864 0)
(1.3048 0.138937 1.52447e-19)
(1.31699 0.139331 -2.26309e-19)
(1.3175 0.136427 1.68676e-19)
(1.31113 0.131429 7.44497e-20)
(1.30117 0.125245 -6.07933e-20)
(1.2896 0.118489 -5.07917e-20)
(1.27752 0.111549 -4.73409e-20)
(1.26546 0.104661 1.41861e-19)
(1.25367 0.0979647 0)
(1.24223 0.091549 7.0862e-20)
(1.23116 0.0854753 5.92376e-20)
(1.22044 0.0797864 -1.47434e-19)
(1.21002 0.0744312 -1.00049e-19)
(1.19981 0.0689856 9.26803e-20)
(0.0529508 -0.0071694 -6.17043e-20)
(0.202313 -0.0150387 -1.93642e-21)
(0.387701 -0.00265795 5.65087e-20)
(0.58987 0.0230976 1.57646e-19)
(0.787773 0.0559158 4.57927e-20)
(0.962759 0.0899389 -8.8434e-20)
(1.1027 0.120092 8.10344e-20)
(1.20366 0.143185 -7.12211e-20)
(1.26855 0.158206 1.27195e-19)
(1.30435 0.165809 5.43133e-20)
(1.31924 0.167531 -1.53721e-19)
(1.32063 0.165109 4.54485e-20)
(1.31421 0.160064 7.7562e-20)
(1.3038 0.153527 -3.81462e-20)
(1.2917 0.146254 0)
(1.27917 0.138707 5.70112e-20)
(1.26677 0.131153 9.649e-20)
(1.25477 0.123747 1.65031e-20)
(1.24325 0.116581 -8.04148e-20)
(1.23219 0.109717 3.37168e-20)
(1.22158 0.103197 0)
(1.21135 0.0970333 -2.64508e-20)
(1.20144 0.0911639 -2.47568e-20)
(1.19175 0.0856092 0)
(0.0732901 -0.00615157 0)
(0.257998 -0.00714913 3.22313e-20)
(0.470895 0.0160055 5.97279e-20)
(0.688878 0.0527023 -1.6001e-19)
(0.888755 0.0937184 5.1449e-20)
(1.05329 0.13183 0)
(1.17476 0.162157 7.76066e-20)
(1.25445 0.1827 -1.08253e-19)
(1.29955 0.193882 -6.33403e-20)
(1.31943 0.197505 2.87458e-20)
(1.32294 0.195768 -4.57993e-20)
(1.31697 0.190636 1.11326e-19)
(1.30624 0.183582 5.59697e-20)
(1.29355 0.175577 -3.88348e-20)
(1.28039 0.167201 -3.58435e-21)
(1.26748 0.158779 -1.06971e-19)
(1.25509 0.150489 4.87466e-20)
(1.2433 0.142431 -1.12356e-21)
(1.2321 0.134664 0)
(1.22146 0.127232 -3.37515e-20)
(1.2113 0.12016 0)
(1.20155 0.113436 7.64607e-20)
(1.19214 0.107053 -9.11126e-20)
(1.18295 0.101242 4.15206e-20)
(0.0958496 -0.00283001 -1.65598e-20)
(0.316637 0.00689632 -8.09148e-20)
(0.55396 0.0429772 9.1819e-20)
(0.781882 0.090698 5.41768e-20)
(0.97727 0.13828 -2.59579e-20)
(1.12665 0.178081 4.35052e-20)
(1.22791 0.20636 -2.11812e-20)
(1.28749 0.222829 3.53087e-20)
(1.31577 0.229413 0)
(1.32334 0.228855 8.02256e-20)
(1.31879 0.223739 -3.1749e-21)
(1.30807 0.216045 -6.49726e-20)
(1.29482 0.20708 2.79455e-20)
(1.28094 0.197619 -3.1668e-20)
(1.26735 0.188083 -1.21815e-20)
(1.2544 0.178687 1.39102e-20)
(1.24219 0.169544 -1.08632e-20)
(1.2307 0.160717 -5.88412e-20)
(1.21989 0.152243 3.61096e-20)
(1.20969 0.144151 7.45742e-21)
(1.19999 0.136443 6.5818e-21)
(1.19073 0.129099 5.80953e-21)
(1.1818 0.122191 0)
(1.17307 0.115937 0)
(0.119952 0.00321535 1.65712e-20)
(0.376026 0.0276205 -1.66511e-20)
(0.633446 0.0781496 -3.05546e-20)
(0.865208 0.1361 0)
(1.05075 0.188068 -1.28465e-20)
(1.18216 0.227162 -1.14954e-20)
(1.26337 0.251568 -1.97683e-20)
(1.30511 0.262946 0)
(1.31984 0.264576 0)
(1.31833 0.259858 0)
(1.30835 0.25151 0)
(1.29475 0.241373 0)
(1.28015 0.230536 -1.76015e-20)
(1.2658 0.219584 8.02967e-21)
(1.25218 0.208801 1.40145e-20)
(1.23944 0.198323 6.54388e-21)
(1.22755 0.188215 1.63271e-20)
(1.21647 0.178512 0)
(1.20613 0.169237 -3.96192e-21)
(1.19643 0.160402 -3.74955e-21)
(1.18727 0.151992 -6.59221e-21)
(1.17855 0.143993 -5.81875e-21)
(1.17016 0.136562 0)
(1.16196 0.129725 4.23225e-21)
(-0.00268132 0.0444135 9.61404e-21)
(-0.00958507 0.0989365 -9.95748e-21)
(-0.0204884 0.12947 -1.88359e-20)
(-0.0336386 0.142914 0)
(-0.0479535 0.144793 -2.51144e-20)
(-0.0628443 0.1393 7.79633e-21)
(-0.0778714 0.129322 -1.50864e-20)
(-0.0927006 0.116584 0)
(-0.107089 0.101892 0)
(-0.120854 0.0854227 0)
(-0.133851 0.0669938 0)
(-0.145968 0.0462706 0)
(-0.157115 0.0229009 -3.0183e-22)
(-0.167106 -0.00343036 -1.0069e-20)
(-0.175812 -0.0328831 1.97873e-20)
(-0.1832 -0.0654301 2.77074e-20)
(-0.189113 -0.101002 9.17827e-21)
(-0.193407 -0.139298 0)
(-0.195964 -0.179821 7.36725e-21)
(-0.196695 -0.221868 -2.13363e-20)
(-0.195551 -0.264531 -1.33506e-20)
(-0.192494 -0.306735 -1.22876e-20)
(-0.18755 -0.347263 0)
(-0.181153 -0.384737 0)
(-0.00537253 0.0474946 -2.92221e-20)
(-0.0146176 0.107073 5.01235e-20)
(-0.0252159 0.141624 -1.94221e-20)
(-0.0366254 0.158085 -3.62762e-20)
(-0.0484206 0.162066 5.09753e-20)
(-0.0603331 0.157895 -3.25388e-20)
(-0.0720892 0.148621 4.56866e-20)
(-0.0834244 0.136112 2.97325e-20)
(-0.0941094 0.121297 0)
(-0.103953 0.104441 -2.60871e-20)
(-0.112799 0.0854177 -6.14932e-22)
(-0.120523 0.063922 2.29477e-20)
(-0.127029 0.0396185 3.43087e-20)
(-0.132234 0.012236 4.33432e-20)
(-0.135957 -0.0184511 -1.93644e-20)
(-0.138177 -0.0524915 -5.72807e-20)
(-0.138934 -0.089743 1.90776e-20)
(-0.138117 -0.129901 -7.01638e-20)
(-0.135727 -0.172451 0)
(-0.131822 -0.216646 1.43992e-20)
(-0.126527 -0.261502 1.3331e-20)
(-0.119956 -0.305811 1.22695e-20)
(-0.11205 -0.348142 0)
(-0.103405 -0.386768 0)
(-0.0081356 0.0487836 0)
(-0.0197959 0.111595 1.05059e-19)
(-0.0298504 0.149472 -3.95187e-20)
(-0.0390015 0.168864 3.70034e-20)
(-0.0475133 0.175141 -1.06479e-19)
(-0.0554656 0.17258 0)
(-0.0627776 0.164285 -6.39969e-20)
(-0.0692765 0.152246 3.04918e-20)
(-0.0747579 0.137518 -5.86134e-20)
(-0.0790216 0.120486 2.90297e-20)
(-0.0818911 0.101114 1.59096e-19)
(-0.0832216 0.0791606 -7.4876e-20)
(-0.0829009 0.0543217 -1.19569e-19)
(-0.0808466 0.0263343 -4.79735e-20)
(-0.0770303 -0.00497704 -1.14935e-21)
(-0.071364 -0.0397202 1.65001e-19)
(-0.0638493 -0.0776971 -7.78683e-20)
(-0.0545834 -0.118606 -2.17432e-21)
(-0.0436681 -0.161911 0)
(-0.0312893 -0.206836 -6.62585e-20)
(-0.0177559 -0.252347 0)
(-0.00340986 -0.297155 -5.19757e-20)
(0.0119139 -0.339631 1.99323e-19)
(0.028394 -0.37778 -3.82385e-21)
(-0.0106872 0.0481505 0)
(-0.024645 0.112046 1.2521e-21)
(-0.0340197 0.152251 4.12722e-20)
(-0.0406178 0.174246 -3.92214e-20)
(-0.0453453 0.182847 3.54399e-20)
(-0.0486351 0.182079 2.08037e-19)
(-0.050619 0.174992 -6.5265e-20)
(-0.0512447 0.16363 -6.32175e-20)
(-0.0503576 0.149168 1.18864e-19)
(-0.0477651 0.132119 -1.70549e-19)
(-0.043278 0.112564 5.44005e-20)
(-0.0367333 0.090343 5.27272e-20)
(-0.0280049 0.0652102 0)
(-0.0170099 0.0369305 4.6545e-20)
(-0.00372785 0.00534801 0)
(0.0118817 -0.029536 8.7797e-20)
(0.0297902 -0.0675925 -1.64559e-19)
(0.0498298 -0.108479 3.73192e-20)
(0.0717935 -0.151616 1.45486e-19)
(0.0953653 -0.196174 6.61742e-20)
(0.120051 -0.241083 0)
(0.145222 -0.285 -1.68741e-19)
(0.170662 -0.326059 5.34522e-20)
(0.199505 -0.361712 0)
(-0.0127753 0.0457103 0)
(-0.0287275 0.108425 -1.32438e-19)
(-0.0373935 0.149676 -4.21534e-20)
(-0.041399 0.173641 -7.90488e-20)
(-0.0421618 0.184344 7.443e-20)
(-0.0404239 0.185387 -6.98517e-20)
(-0.0365461 0.179632 1.35157e-19)
(-0.030625 0.169107 6.48991e-20)
(-0.022588 0.155067 -1.81399e-19)
(-0.0122765 0.138146 1.17659e-19)
(0.000493278 0.118545 -1.66932e-19)
(0.0158933 0.0962121 3.76547e-19)
(0.0340629 0.0709734 -2.02612e-19)
(0.0550979 0.0426487 9.86692e-20)
(0.079038 0.0111315 2.82518e-19)
(0.105872 -0.0235493 -8.54855e-20)
(0.135509 -0.0612377 -8.37199e-20)
(0.167728 -0.101543 -7.88379e-20)
(0.202185 -0.14383 0)
(0.238381 -0.187207 -1.37949e-19)
(0.275566 -0.230552 -1.23411e-19)
(0.313127 -0.272469 1.78948e-19)
(0.348894 -0.311353 2.04492e-19)
(0.392681 -0.342854 -1.92418e-19)
(-0.0142325 0.0418052 0)
(-0.0317186 0.101193 -1.82218e-19)
(-0.0397327 0.141998 -9.14901e-22)
(-0.0413148 0.166979 1.6091e-19)
(-0.0382104 0.179258 0)
(-0.0314036 0.181884 0)
(-0.0214676 0.177425 0)
(-0.00866245 0.167804 -6.56211e-20)
(0.00697681 0.154297 -1.89477e-21)
(0.0255505 0.137629 1.17569e-19)
(0.0472211 0.118114 -1.71314e-19)
(0.0721605 0.0958053 -1.53078e-21)
(0.100526 0.0706098 0)
(0.13243 0.0424408 -9.86068e-20)
(0.167917 0.0112411 9.69127e-20)
(0.206928 -0.0229288 -2.69798e-19)
(0.249274 -0.0598395 3.42134e-19)
(0.294589 -0.0990341 8.09618e-20)
(0.342282 -0.139803 -2.25003e-21)
(0.391574 -0.18116 -2.81766e-19)
(0.441152 -0.221969 -1.27608e-19)
(0.490972 -0.260479 4.02008e-19)
(0.534527 -0.296623 -2.65035e-19)
(0.592465 -0.322713 0)
(-0.0150169 0.0369421 9.08908e-20)
(-0.0334714 0.0912018 9.15659e-20)
(-0.0408943 0.129987 -8.74745e-20)
(-0.0403213 0.154762 -1.63735e-19)
(-0.0336126 0.167763 1.54158e-19)
(-0.0219009 0.171449 -1.46457e-19)
(-0.00592631 0.16802 2.0718e-19)
(0.0139008 0.159215 -6.59063e-20)
(0.0374363 0.146266 1.24396e-19)
(0.0647175 0.129936 0)
(0.0958845 0.110625 1.16681e-19)
(0.131096 0.0884724 -2.1681e-19)
(0.170532 0.0635208 2.10716e-19)
(0.214319 0.0357466 -1.97899e-19)
(0.262421 0.00516247 0)
(0.314666 -0.0280786 1.80304e-19)
(0.37064 -0.0636439 3.41544e-19)
(0.429641 -0.100972 -3.21178e-19)
(0.490612 -0.139263 -1.48276e-19)
(0.552348 -0.177395 -1.36698e-19)
(0.612556 -0.214434 3.84112e-19)
(0.672222 -0.247796 1.07684e-19)
(0.719875 -0.280035 -1.06124e-19)
(0.785831 -0.299042 8.73097e-20)
(-0.0152191 0.0317 -9.09033e-20)
(-0.0340318 0.0795435 2.81719e-19)
(-0.0408247 0.114818 -8.90455e-20)
(-0.0382822 0.138007 1.65669e-19)
(-0.0281848 0.150621 -1.55977e-19)
(-0.0117062 0.154567 1.57473e-23)
(0.01032 0.151657 6.94743e-20)
(0.0373833 0.1434 2.66153e-19)
(0.0692608 0.130923 3.1414e-21)
(0.105944 0.114978 -1.1823e-19)
(0.147552 0.0960154 0)
(0.19427 0.0742802 -1.10721e-19)
(0.246201 0.0498926 2.06532e-19)
(0.30333 0.0229099 1.99844e-19)
(0.365448 -0.00650821 -9.39157e-20)
(0.432018 -0.0380826 -1.27642e-21)
(0.502119 -0.0713535 -8.49102e-20)
(0.574418 -0.105639 1.5578e-19)
(0.647122 -0.140079 1.48229e-19)
(0.718429 -0.173426 -1.36634e-19)
(0.785109 -0.205182 1.2011e-19)
(0.848646 -0.231902 -1.0769e-19)
(0.895415 -0.258893 0)
(0.958682 -0.269749 -8.72584e-20)
(-0.0150318 0.026621 9.28064e-20)
(-0.0335825 0.0673479 -9.44443e-20)
(-0.0394746 0.0978619 8.95941e-20)
(-0.0348348 0.118117 0)
(-0.0212223 0.129134 0)
(0.000252873 0.132383 1.4914e-19)
(0.0287583 0.129325 -1.3958e-19)
(0.0637636 0.121226 1.33624e-19)
(0.105022 0.109079 -6.27919e-19)
(0.152502 0.093602 -1.2797e-21)
(0.206277 0.0752703 1.13258e-19)
(0.266394 0.0543862 0)
(0.33275 0.031148 -2.07627e-19)
(0.404943 0.00577838 3.92163e-19)
(0.48218 -0.0214391 -2.78889e-19)
(0.563182 -0.0500985 -4.39949e-19)
(0.646161 -0.0796349 1.24233e-21)
(0.728889 -0.10931 3.03422e-19)
(0.808773 -0.138299 0)
(0.883385 -0.165424 0)
(0.949358 -0.190565 -1.2011e-19)
(1.00767 -0.210144 1.07694e-19)
(1.04708 -0.231119 -3.59607e-19)
(1.09545 -0.234538 3.37099e-19)
(-0.0146805 0.0221093 0)
(-0.0323107 0.0555683 0)
(-0.0366408 0.0804534 -2.69413e-19)
(-0.0292081 0.0966622 8.55526e-20)
(-0.0112796 0.105002 4.18892e-22)
(0.0161824 0.10666 1.49694e-19)
(0.0524377 0.102823 0)
(0.0970069 0.094552 -1.32381e-19)
(0.149645 0.0827165 1.2546e-19)
(0.210229 0.067977 -2.38346e-19)
(0.278599 0.0508111 -1.22008e-21)
(0.354394 0.0315806 2.1569e-19)
(0.436877 0.0105918 2.04148e-21)
(0.524793 -0.0118409 1.94993e-19)
(0.616312 -0.0353492 -2.73516e-19)
(0.709045 -0.0594787 0)
(0.800171 -0.0836758 3.17593e-19)
(0.886638 -0.107308 -4.48969e-19)
(0.965459 -0.129702 1.32532e-19)
(1.03407 -0.150062 0)
(1.09013 -0.168306 1.081e-19)
(1.13406 -0.181839 3.8649e-19)
(1.15988 -0.197137 -3.62777e-19)
(1.18578 -0.195895 -3.69572e-19)
(-0.0143255 0.0183573 2.83708e-19)
(-0.0302282 0.0448137 -3.89039e-19)
(-0.031783 0.0636637 1.15041e-21)
(-0.0200727 0.0751505 8.61889e-20)
(0.00392198 0.0801164 -1.6037e-19)
(0.0394247 0.0796252 -1.4935e-19)
(0.085821 0.0747014 2.81545e-19)
(0.142659 0.0662589 6.10944e-22)
(0.209558 0.0550625 -2.49606e-19)
(0.286037 0.0417174 4.74275e-19)
(0.3713 0.0266996 2.63839e-21)
(0.464054 0.0103894 -2.11341e-19)
(0.562381 -0.00688858 0)
(0.663708 -0.0248267 0)
(0.764915 -0.0431053 -9.00336e-20)
(0.862538 -0.061378 -1.6304e-19)
(0.953087 -0.0792623 -3.04868e-19)
(1.03337 -0.0963796 2.86195e-19)
(1.10088 -0.11228 -1.32615e-19)
(1.15396 -0.126706 2.28696e-19)
(1.1922 -0.139235 -1.18461e-19)
(1.21643 -0.149197 1.71064e-19)
(1.2261 -0.159963 -4.20349e-19)
(1.23107 -0.158146 7.46153e-20)
(-0.0139621 0.015319 9.56183e-20)
(-0.027002 0.0352683 0)
(-0.0238889 0.0481564 1.83785e-19)
(-0.00551425 0.0548143 -1.73121e-19)
(0.0273367 0.0562925 1.60521e-19)
(0.0740224 0.0536641 0)
(0.133936 0.0478867 0)
(0.206418 0.0397836 -1.33269e-19)
(0.290564 0.0300344 -6.35034e-22)
(0.384996 0.0191739 1.17387e-19)
(0.487674 0.00760344 -1.11369e-19)
(0.595813 -0.00439041 2.09573e-19)
(0.705942 -0.0166092 0)
(0.814124 -0.0289128 3.69301e-19)
(0.916284 -0.0411889 -6.90258e-19)
(1.00861 -0.0533281 4.85685e-19)
(1.08796 -0.0651974 2.91148e-19)
(1.15214 -0.0766621 -2.73337e-19)
(1.2002 -0.0874748 0)
(1.2323 -0.0976999 0)
(1.2501 -0.106529 0)
(1.25524 -0.115393 0)
(1.25126 -0.122056 7.97632e-20)
(1.24243 -0.12534 -2.62427e-19)
(-0.173164 -0.423707 -6.51975e-21)
(-0.166792 -0.464951 6.56394e-21)
(-0.154546 -0.495864 -1.89052e-22)
(-0.136767 -0.512673 0)
(-0.111499 -0.511597 -5.2581e-21)
(-0.077143 -0.489075 1.02157e-20)
(-0.0325061 -0.442427 6.41257e-23)
(0.0211425 -0.370805 -4.88555e-21)
(0.0818117 -0.274862 0)
(0.147425 -0.158136 0)
(0.214922 -0.0261786 -2.70583e-22)
(0.282489 0.113896 -2.54872e-22)
(0.349256 0.2538 -4.01611e-21)
(0.413533 0.38089 3.67841e-21)
(0.471967 0.481669 0)
(0.520474 0.54757 0)
(0.556374 0.578372 1.73288e-21)
(0.579154 0.581564 -2.04651e-22)
(0.587229 0.572004 -1.3535e-21)
(0.576862 0.567089 -8.11566e-23)
(0.549675 0.570919 0)
(0.520006 0.561045 0)
(0.510295 0.498316 0)
(0.533669 0.359129 0)
(0.584911 0.15737 0)
(0.649313 -0.0632481 0)
(0.712502 -0.253975 5.69673e-22)
(0.764108 -0.384889 -9.51402e-22)
(0.797792 -0.454338 0)
(0.81421 -0.477938 0)
(0.81901 -0.472833 -3.19384e-22)
(0.812575 -0.46447 3.10412e-22)
(0.786687 -0.47147 1.3434e-22)
(0.741048 -0.484079 0)
(0.695161 -0.450926 0)
(0.672981 -0.332509 4.15354e-22)
(0.683874 -0.1406 -4.03749e-22)
(0.717462 0.0667617 0)
(0.759982 0.228373 3.10155e-22)
(0.801967 0.330913 -4.31309e-22)
(0.831861 0.37706 1.05866e-22)
(0.83479 0.415508 0)
(0.805633 0.434251 -1.78794e-22)
(0.758636 0.427251 1.73862e-22)
(0.730447 0.331507 0)
(0.73032 0.163345 0)
(0.76145 -0.0194909 -9.61901e-23)
(0.804326 -0.184158 2.74133e-22)
(0.831369 -0.259935 0)
(0.825711 -0.352695 0)
(0.792799 -0.355294 -4.71656e-23)
(0.763579 -0.344951 3.55368e-24)
(0.770571 -0.224929 -1.53649e-24)
(0.79165 -0.043451 3.36891e-23)
(0.812322 0.0651887 0)
(0.807405 0.2877 0)
(0.798802 0.28593 0)
(0.788735 0.34476 0)
(0.797013 0.243385 0)
(0.785344 -0.0404515 0)
(-0.0973327 -0.426099 -7.00759e-22)
(-0.102527 -0.470702 -2.62366e-20)
(-0.104778 -0.506433 1.90945e-21)
(-0.104963 -0.529356 2.27976e-20)
(-0.100926 -0.536004 3.10116e-22)
(-0.0896859 -0.522741 0)
(-0.0683456 -0.485906 -1.74389e-20)
(-0.0350093 -0.423543 3.43626e-20)
(0.0100549 -0.334891 -1.69141e-20)
(0.0642067 -0.223149 1.63899e-20)
(0.124161 -0.091472 -1.56591e-20)
(0.188889 0.0484293 1.43515e-20)
(0.256861 0.190019 -1.38763e-20)
(0.325352 0.32127 -3.36553e-22)
(0.391246 0.429729 -9.24007e-21)
(0.450313 0.506591 8.97948e-21)
(0.498887 0.550015 -6.39397e-21)
(0.534015 0.566643 6.04061e-21)
(0.551656 0.571241 -5.4371e-21)
(0.549104 0.578651 1.07215e-20)
(0.532602 0.587408 -5.28501e-21)
(0.520131 0.57114 -3.91602e-22)
(0.53191 0.493757 -7.78828e-21)
(0.574072 0.339563 1.61792e-20)
(0.637486 0.127899 -8.36741e-21)
(0.706974 -0.0965866 5.45299e-22)
(0.768193 -0.284634 7.00919e-21)
(0.812517 -0.40755 -1.08815e-21)
(0.836433 -0.466962 -9.22501e-21)
(0.842315 -0.482382 7.05634e-21)
(0.837057 -0.471395 -3.03151e-21)
(0.823828 -0.456099 2.79175e-22)
(0.794403 -0.454723 -1.34604e-22)
(0.745394 -0.462993 2.48263e-22)
(0.692518 -0.43487 0)
(0.661355 -0.32896 0)
(0.665046 -0.149823 -1.49374e-21)
(0.695826 0.0496914 1.11513e-21)
(0.740748 0.209598 8.38858e-22)
(0.787893 0.315769 -4.30396e-23)
(0.82363 0.370087 -1.00389e-21)
(0.829568 0.41916 1.80692e-22)
(0.80443 0.445866 0)
(0.761825 0.439199 0)
(0.739889 0.337116 0)
(0.742814 0.159946 0)
(0.773473 -0.0291969 4.75998e-22)
(0.814935 -0.193858 -1.80752e-22)
(0.839725 -0.262903 0)
(0.834707 -0.347671 0)
(0.799126 -0.34776 0)
(0.769728 -0.342011 -7.33615e-23)
(0.773535 -0.22824 1.66677e-23)
(0.791335 -0.0483156 -7.42709e-23)
(0.80992 0.063305 0)
(0.802275 0.289226 0)
(0.796328 0.28719 3.71673e-23)
(0.785567 0.344827 9.2691e-23)
(0.797804 0.243689 0)
(0.787978 -0.0391888 0)
(0.0343167 -0.416364 -3.73581e-21)
(0.0219831 -0.461251 -5.90947e-20)
(0.00875714 -0.498958 4.88264e-20)
(-0.00656543 -0.525551 -4.56859e-20)
(-0.0231049 -0.538367 -3.12197e-22)
(-0.0372155 -0.534721 0)
(-0.0441417 -0.510205 -3.05915e-20)
(-0.0393503 -0.460903 2.98897e-20)
(-0.0200242 -0.384838 2.37714e-22)
(0.0157989 -0.283787 3.54534e-22)
(0.0619387 -0.159161 3.40894e-22)
(0.116954 -0.0210688 4.23234e-22)
(0.181905 0.11966 -2.09921e-20)
(0.251235 0.253702 2.07391e-20)
(0.321513 0.368814 0)
(0.388162 0.456132 3.88236e-22)
(0.446314 0.512887 -1.13604e-20)
(0.490865 0.544774 1.12129e-20)
(0.516778 0.564738 0)
(0.523517 0.583551 0)
(0.520998 0.594954 -1.24934e-20)
(0.528285 0.571446 2.67746e-20)
(0.561413 0.482002 -3.02768e-20)
(0.620731 0.317842 -1.69986e-21)
(0.694505 0.101342 3.57523e-20)
(0.767601 -0.123513 -3.56481e-20)
(0.825917 -0.307232 2.98193e-20)
(0.862065 -0.422491 -3.53609e-21)
(0.87578 -0.473269 -1.07737e-20)
(0.871476 -0.482067 0)
(0.856614 -0.466937 0)
(0.836804 -0.446347 1.54723e-21)
(0.804577 -0.437279 -2.03715e-21)
(0.753587 -0.440961 -2.89074e-23)
(0.694864 -0.417732 2.24884e-21)
(0.654862 -0.325045 -2.18563e-21)
(0.650738 -0.160062 0)
(0.678048 0.0304761 3.3825e-22)
(0.724784 0.18801 2.31154e-21)
(0.776308 0.298016 -4.09305e-21)
(0.817294 0.361136 1.65469e-21)
(0.826277 0.421283 1.70731e-22)
(0.80572 0.456134 -1.94249e-21)
(0.76811 0.450202 1.53361e-21)
(0.752537 0.342865 5.09869e-22)
(0.758581 0.157897 5.52807e-22)
(0.788385 -0.0370282 -4.77201e-22)
(0.827747 -0.202249 0)
(0.849852 -0.265181 0)
(0.845301 -0.342193 -8.97311e-22)
(0.807014 -0.340012 4.10992e-22)
(0.777172 -0.33894 -2.9606e-22)
(0.777804 -0.231584 3.79118e-22)
(0.792455 -0.0529614 4.48506e-22)
(0.809102 0.0614175 -1.30834e-22)
(0.798444 0.290571 1.92522e-22)
(0.794855 0.288299 -1.59148e-22)
(0.783275 0.344509 7.05606e-23)
(0.799737 0.24363 0)
(0.791755 -0.0380029 0)
(0.204918 -0.399282 -1.25077e-19)
(0.190803 -0.441325 1.23239e-20)
(0.17203 -0.476434 1.06912e-19)
(0.148111 -0.501699 -6.91468e-22)
(0.117178 -0.516705 0)
(0.0817886 -0.519461 0)
(0.0477163 -0.506361 -5.11121e-20)
(0.0208999 -0.472661 3.95702e-21)
(0.00673375 -0.413443 6.45774e-20)
(0.0124345 -0.329205 -1.11633e-21)
(0.0368828 -0.220473 -1.90664e-20)
(0.0745088 -0.0905406 -1.67998e-20)
(0.128032 0.0458463 1.67651e-20)
(0.19337 0.180575 0)
(0.263754 0.300996 -1.21031e-20)
(0.334013 0.398157 1.10743e-20)
(0.397932 0.468527 0)
(0.44904 0.516142 0)
(0.48265 0.550898 9.47883e-21)
(0.500541 0.579145 1.18368e-21)
(0.514649 0.591328 -9.75201e-21)
(0.54288 0.561347 -1.47835e-20)
(0.596226 0.464067 1.49264e-20)
(0.670574 0.295413 -1.9455e-20)
(0.753061 0.0779325 -2.81022e-22)
(0.829139 -0.14434 1.86827e-20)
(0.884337 -0.322764 2.00977e-21)
(0.912069 -0.430927 -9.82773e-24)
(0.91543 -0.474339 0)
(0.901397 -0.477684 6.32008e-21)
(0.877551 -0.459793 -6.47094e-21)
(0.851243 -0.435729 2.70588e-22)
(0.816579 -0.41992 0)
(0.765043 -0.418287 -2.22088e-22)
(0.702234 -0.398933 3.81528e-21)
(0.6539 -0.319851 -7.53179e-21)
(0.641383 -0.170488 -7.81983e-22)
(0.664472 0.00969687 1.92241e-22)
(0.712166 0.16401 3.56646e-21)
(0.767105 0.277866 4.28749e-22)
(0.812726 0.350113 -2.86945e-21)
(0.82482 0.421531 2.43459e-21)
(0.809279 0.464664 -1.10982e-24)
(0.777115 0.460071 1.95605e-21)
(0.767927 0.3489 -2.41327e-21)
(0.777189 0.157469 -3.99344e-21)
(0.805891 -0.0427571 1.08584e-21)
(0.8426 -0.209248 1.53164e-21)
(0.861603 -0.26689 -2.62912e-21)
(0.857296 -0.336374 1.58462e-21)
(0.816271 -0.331985 -2.99994e-22)
(0.785655 -0.335588 4.08408e-22)
(0.783124 -0.2349 2.5873e-22)
(0.794874 -0.057438 -5.90804e-22)
(0.809809 0.0595014 -1.26026e-23)
(0.795896 0.291781 -1.58654e-22)
(0.794393 0.289307 0)
(0.781897 0.343796 -6.54925e-23)
(0.802844 0.243187 1.94562e-22)
(0.796693 -0.0368904 0)
(0.394783 -0.379085 1.26618e-19)
(0.381497 -0.418009 -2.35083e-19)
(0.361475 -0.447987 1.07362e-19)
(0.334055 -0.467826 7.91818e-20)
(0.296875 -0.478946 -1.42315e-19)
(0.250629 -0.480832 1.12222e-20)
(0.198601 -0.472585 5.1135e-20)
(0.146863 -0.451098 3.4097e-20)
(0.0994772 -0.412143 -3.34326e-20)
(0.0673723 -0.349491 0)
(0.0595557 -0.262356 -2.36919e-20)
(0.0702213 -0.151841 4.52002e-20)
(0.102588 -0.0248696 -2.17411e-20)
(0.155105 0.106003 0)
(0.218992 0.229137 0)
(0.287603 0.334652 2.9756e-22)
(0.353214 0.417659 -1.47323e-20)
(0.408689 0.479919 1.43118e-20)
(0.450201 0.527753 0)
(0.481049 0.563436 1.94316e-20)
(0.513421 0.575676 -4.13131e-20)
(0.562403 0.541431 5.04531e-20)
(0.633749 0.441274 -6.22421e-20)
(0.720494 0.273467 -5.20207e-21)
(0.810718 0.058968 7.71907e-20)
(0.889876 -0.158715 -3.90275e-20)
(0.941996 -0.33093 -1.02411e-21)
(0.961374 -0.432363 -1.07296e-20)
(0.954482 -0.469906 2.65345e-21)
(0.93135 -0.469294 8.31133e-21)
(0.899495 -0.449983 3.34039e-22)
(0.867056 -0.424289 -3.73297e-21)
(0.830168 -0.403235 6.78342e-21)
(0.779235 -0.395989 -3.40778e-21)
(0.714314 -0.379066 0)
(0.65877 -0.313079 -4.00281e-21)
(0.637475 -0.180448 3.94906e-21)
(0.655274 -0.0117756 -3.08323e-21)
(0.702827 0.137989 3.83771e-21)
(0.760087 0.255419 -3.27232e-22)
(0.809705 0.336785 0)
(0.824989 0.41949 -3.22599e-22)
(0.814774 0.471124 1.10328e-21)
(0.788377 0.468678 0)
(0.785471 0.35522 5.88735e-21)
(0.798091 0.15871 -2.1738e-21)
(0.825643 -0.0462423 1.1114e-21)
(0.859281 -0.214678 9.33284e-22)
(0.874796 -0.267975 0)
(0.870506 -0.330192 0)
(0.826742 -0.323613 -9.52532e-22)
(0.794957 -0.331871 1.2996e-21)
(0.789236 -0.238173 -6.14147e-22)
(0.798415 -0.0618168 1.60462e-22)
(0.811952 0.0575284 3.01746e-22)
(0.794607 0.292896 1.58806e-22)
(0.794952 0.290258 -2.57294e-22)
(0.781464 0.342681 0)
(0.807148 0.242327 -2.82441e-22)
(0.8028 -0.0358515 -1.22837e-22)
(0.588996 -0.357109 1.26206e-19)
(0.574893 -0.393408 -1.25471e-19)
(0.55491 -0.41913 7.96851e-22)
(0.526788 -0.433555 -6.44108e-22)
(0.48868 -0.438106 5.46021e-22)
(0.440577 -0.433792 -4.3526e-22)
(0.382988 -0.422085 6.01279e-22)
(0.317853 -0.404074 0)
(0.249194 -0.378771 -2.94832e-22)
(0.186643 -0.33654 1.95275e-22)
(0.141223 -0.274694 1.29665e-22)
(0.116817 -0.190333 -2.65846e-22)
(0.118064 -0.0823147 0)
(0.145765 0.0374245 0)
(0.193719 0.158143 7.42838e-23)
(0.253261 0.268178 0)
(0.315649 0.360928 -9.02421e-23)
(0.373279 0.435439 0)
(0.422602 0.49412 -1.27048e-20)
(0.467132 0.535688 2.83745e-20)
(0.517779 0.548322 -3.61418e-20)
(0.585766 0.512795 2.02667e-20)
(0.672174 0.414553 3.29297e-20)
(0.769028 0.252266 -3.19696e-20)
(0.866101 0.0441883 -3.9955e-20)
(0.948267 -0.16703 3.87904e-20)
(0.997587 -0.332132 0)
(1.00898 -0.427252 8.04543e-22)
(0.992267 -0.460488 0)
(0.960794 -0.457443 0)
(0.922059 -0.437801 8.58852e-21)
(0.883994 -0.412055 -8.96006e-21)
(0.844923 -0.387504 3.64393e-22)
(0.795419 -0.374752 3.4518e-22)
(0.730463 -0.358583 -2.76074e-22)
(0.669337 -0.304416 -2.86178e-21)
(0.639363 -0.189226 2.77904e-21)
(0.650638 -0.0338949 -3.30163e-21)
(0.696549 0.110298 2.8008e-21)
(0.754997 0.230748 6.08096e-22)
(0.807958 0.320922 -2.47658e-21)
(0.826504 0.414763 -6.37809e-22)
(0.821778 0.475216 1.94486e-21)
(0.801329 0.475934 0)
(0.804499 0.361747 -2.32011e-21)
(0.820683 0.161513 3.79894e-21)
(0.847235 -0.0473987 -4.91228e-21)
(0.877529 -0.21838 -9.3919e-22)
(0.889217 -0.268406 0)
(0.884709 -0.32367 3.38876e-22)
(0.83828 -0.314831 -7.97632e-22)
(0.804904 -0.32766 -2.07192e-23)
(0.795884 -0.241386 -1.0988e-22)
(0.802867 -0.0661946 1.72115e-22)
(0.815413 0.0554541 -2.32241e-22)
(0.794548 0.293939 0)
(0.79654 0.291187 2.57415e-22)
(0.782006 0.341147 0)