/*--------------------------------*- C++ -*----------------------------------*\
| =========                 |                                                 |
| \\      /  F ield         | OpenFOAM: The Open Source CFD Toolbox           |
|  \\    /   O peration     | Version:  2512                                  |
|   \\  /    A nd           | Website:  www.openfoam.com                      |
|    \\/     M anipulation  |                                                 |
\*---------------------------------------------------------------------------*/
FoamFile
{
    version     2.0;
    format      ascii;
    arch        "LSB;label=32;scalar=64";
    class       volVectorField;
    location    "76";
    object      U;
}
// * * * * * * * * * * * * * * * * * * * * * * * * * * * * * * * * * * * * * //

dimensions      [0 1 -1 0 0 0 0];

internalField   nonuniform List<vector> 
13248
(
(-0.0114731 0.0102588 6.3447e-20)
(-0.0206291 0.0197491 0)
(-0.0175968 0.0225353 -1.20286e-19)
(-0.00295347 0.0213426 1.13313e-19)
(0.0230646 0.0181058 1.06167e-19)
(0.0603366 0.014216 0)
(0.108718 0.0106769 0)
(0.167883 0.00821023 2.52743e-19)
(0.237166 0.00732303 -2.66856e-21)
(0.315445 0.00833904 -2.18148e-19)
(0.401093 0.0114083 1.98037e-19)
(0.492005 0.0165088 -1.23425e-19)
(0.585707 0.023451 0)
(0.679519 0.0318941 -2.01324e-19)
(0.77076 0.041375 3.72514e-19)
(0.856937 0.0513492 -8.76809e-20)
(0.935921 0.0612412 -1.51878e-19)
(1.00607 0.0704771 1.42574e-19)
(1.06632 0.0785988 0)
(1.11617 0.0850239 0)
(1.15584 0.0899688 0)
(1.18541 0.091688 0)
(1.20734 0.093902 4.29536e-20)
(1.22014 0.0873373 1.58182e-19)
(-0.0115254 0.00940263 -1.91791e-19)
(-0.0170066 0.0170453 1.31019e-19)
(-0.00641318 0.0187369 -1.06067e-21)
(0.0190963 0.0171003 -1.73296e-19)
(0.0588811 0.0141063 -1.0605e-19)
(0.112414 0.0112336 -1.00156e-19)
(0.178984 0.00953708 -1.82965e-19)
(0.257457 0.0097302 1.73038e-19)
(0.346103 0.0122327 0)
(0.442522 0.0171893 1.57038e-21)
(0.543712 0.0244811 3.5252e-21)
(0.646266 0.0337505 1.23907e-19)
(0.746655 0.044445 0)
(0.841542 0.0558831 0)
(0.928066 0.0673313 1.36332e-19)
(1.00406 0.0780829 -2.55862e-19)
(1.06819 0.0875275 1.50229e-19)
(1.11997 0.0951991 -1.41037e-19)
(1.1597 0.100811 -6.20554e-20)
(1.18842 0.104219 -1.11603e-19)
(1.20748 0.105563 -4.69682e-20)
(1.21906 0.104594 -8.81028e-20)
(1.2242 0.103 1.28848e-19)
(1.22603 0.096997 3.75091e-20)
(-0.0104333 0.00784915 0)
(-0.00973962 0.0128048 0)
(0.011148 0.0132306 6.13143e-20)
(0.0504309 0.0115318 5.64693e-20)
(0.106897 0.00962618 -1.48335e-21)
(0.179301 0.00899258 -1.03373e-19)
(0.265905 0.0106171 0)
(0.364215 0.0150372 -8.57779e-20)
(0.470883 0.0223764 8.00304e-20)
(0.581831 0.032372 6.10146e-22)
(0.692566 0.0444309 -1.34084e-19)
(0.798632 0.0577219 -1.20803e-19)
(0.896068 0.0712962 3.50787e-21)
(0.981794 0.0842169 -9.63835e-20)
(1.05385 0.095674 2.33634e-19)
(1.11147 0.105068 0)
(1.15501 0.112055 -1.47765e-19)
(1.18577 0.116538 7.15428e-20)
(1.2057 0.11866 6.19995e-20)
(1.21704 0.11865 0)
(1.22216 0.117045 5.0639e-20)
(1.22311 0.113757 -1.76504e-19)
(1.22133 0.110595 1.6569e-19)
(1.21956 0.104115 1.06329e-19)
(-0.00791318 0.00574895 -6.81163e-20)
(0.00198595 0.00749508 -7.04312e-20)
(0.0363052 0.00684317 6.36351e-20)
(0.0924492 0.00584273 0)
(0.168316 0.00623183 0)
(0.261444 0.00933602 -2.08794e-21)
(0.368451 0.0158564 0)
(0.484879 0.0258846 -2.61217e-19)
(0.605382 0.0389646 2.41584e-19)
(0.724213 0.0541966 -2.96641e-19)
(0.835886 0.0703995 6.7153e-20)
(0.935822 0.0863111 0)
(1.02083 0.100784 1.09246e-19)
(1.08934 0.112939 -2.01365e-19)
(1.14135 0.122249 4.76857e-20)
(1.17819 0.128555 1.2003e-19)
(1.20211 0.132011 -6.25866e-21)
(1.21586 0.132995 -1.33968e-19)
(1.22221 0.132002 0)
(1.22367 0.12953 0)
(1.22221 0.126088 -4.73334e-20)
(1.21923 0.121785 4.24892e-20)
(1.2156 0.117845 1.52639e-19)
(1.21218 0.111399 -1.43283e-19)
(-0.00364317 0.0032888 -7.19317e-20)
(0.0189869 0.00174048 -7.1534e-20)
(0.07014 0.000671996 2.01184e-19)
(0.14613 0.00157953 -1.21817e-19)
(0.243455 0.00581726 1.14665e-19)
(0.357767 0.0142981 2.07613e-19)
(0.483376 0.0271101 -1.46486e-19)
(0.613476 0.0435592 -1.76759e-19)
(0.740843 0.0623548 4.49189e-21)
(0.85878 0.0818757 2.24542e-19)
(0.962008 0.10048 0)
(1.04724 0.116784 6.089e-20)
(1.11337 0.129855 0)
(1.16124 0.139279 -9.7293e-20)
(1.19312 0.145118 1.3642e-19)
(1.21215 0.14779 9.41869e-22)
(1.22166 0.147909 -3.54399e-20)
(1.22473 0.146135 6.54171e-20)
(1.22385 0.143061 5.67712e-20)
(1.2208 0.139152 -5.08055e-20)
(1.21675 0.134757 4.73226e-20)
(1.21236 0.129954 -4.24792e-20)
(1.20787 0.125473 0)
(1.20395 0.119118 -3.26092e-20)
(0.0027229 0.000701737 7.19215e-20)
(0.0420002 -0.00368278 7.54976e-20)
(0.113398 -0.00396913 -6.74041e-20)
(0.211691 0.000487081 1.25334e-19)
(0.331293 0.0103283 -1.17968e-19)
(0.465246 0.0256664 1.06184e-19)
(0.605131 0.0455736 -5.1056e-20)
(0.741976 0.0682787 1.32865e-19)
(0.867581 0.0915965 -8.3509e-20)
(0.975734 0.113396 1.46336e-19)
(1.06293 0.131993 -3.36751e-19)
(1.12848 0.146381 1.23512e-19)
(1.17402 0.156268 -1.0654e-19)
(1.20275 0.161955 1.00072e-19)
(1.21856 0.164123 8.53492e-20)
(1.22527 0.163607 7.41994e-20)
(1.22614 0.161213 -2.06868e-19)
(1.22365 0.157604 1.28026e-19)
(1.21945 0.153258 -5.67735e-20)
(1.21455 0.148489 1.48075e-19)
(1.20951 0.143487 -4.7846e-20)
(1.20457 0.138312 -1.16474e-19)
(1.19984 0.133349 1.07539e-19)
(1.19553 0.127076 3.25988e-20)
(0.0115159 -0.0017177 0)
(0.0715554 -0.00785783 6.34281e-22)
(0.166262 -0.00564065 1.40997e-19)
(0.288287 0.00429808 -1.32248e-19)
(0.42922 0.0214164 -1.18786e-19)
(0.578984 0.0445465 2.20482e-19)
(0.726598 0.0713965 -1.02254e-19)
(0.86193 0.099061 1.35402e-19)
(0.977414 0.124743 -3.2938e-21)
(1.06902 0.146321 -7.63628e-20)
(1.13626 0.16264 1.64885e-19)
(1.18149 0.173502 -2.43015e-19)
(1.20876 0.17944 0)
(1.22269 0.181404 -4.7135e-20)
(1.22756 0.180455 -1.24843e-19)
(1.22688 0.177548 3.94209e-20)
(1.22314 0.173426 1.6369e-21)
(1.21796 0.168601 -8.47474e-20)
(1.21229 0.163396 5.65787e-21)
(1.20663 0.157996 9.7916e-20)
(1.20119 0.152501 -4.34803e-20)
(1.19604 0.146966 -1.6575e-20)
(1.19115 0.141537 5.09537e-20)
(1.18661 0.135317 0)
(0.0229916 -0.00360315 0)
(0.107825 -0.00975306 3.82873e-20)
(0.228146 -0.00288668 -1.84418e-19)
(0.373861 0.0145184 6.68464e-20)
(0.533151 0.0401544 -6.29137e-20)
(0.692878 0.0711315 -5.73272e-20)
(0.840495 0.103694 -1.00823e-19)
(0.966437 0.134123 5.05924e-20)
(1.06558 0.159618 4.36695e-20)
(1.13731 0.178711 0)
(1.1845 0.191216 9.81126e-20)
(1.21201 0.197885 -1.45457e-19)
(1.22523 0.199948 1.08033e-19)
(1.22902 0.198722 4.71591e-20)
(1.2272 0.195349 -3.83066e-20)
(1.22243 0.190685 -3.15836e-20)
(1.21638 0.185307 -2.93737e-20)
(1.20998 0.179565 8.86321e-20)
(1.20371 0.173657 0)
(1.19775 0.167688 4.40846e-20)
(1.19217 0.161715 3.69039e-20)
(1.18693 0.155776 -9.18783e-20)
(1.18198 0.149877 -6.28186e-20)
(1.17729 0.143655 5.79494e-20)
(0.037267 -0.00452137 -4.16161e-20)
(0.150493 -0.00827957 -1.6477e-21)
(0.297594 0.00562887 3.75532e-20)
(0.46522 0.0322286 1.04778e-19)
(0.638041 0.0668718 3.02966e-20)
(0.800713 0.104736 -5.86814e-20)
(0.940882 0.140905 5.34821e-20)
(1.05148 0.171524 -4.66459e-20)
(1.13116 0.194518 8.33389e-20)
(1.18302 0.209555 3.51674e-20)
(1.21267 0.217559 -9.99953e-20)
(1.2264 0.220072 2.92452e-20)
(1.2298 0.218723 4.95205e-20)
(1.2272 0.214906 -2.44515e-20)
(1.22156 0.209644 0)
(1.21466 0.203614 3.5822e-20)
(1.20751 0.197216 6.01113e-20)
(1.20058 0.190673 9.9445e-21)
(1.19407 0.184099 -4.98676e-20)
(1.18801 0.177557 2.06574e-20)
(1.18239 0.171079 0)
(1.17713 0.164678 -1.61017e-20)
(1.17215 0.158313 -1.53356e-20)
(1.16737 0.152004 0)
(0.0542587 -0.00399819 0)
(0.198669 -0.00238648 2.18312e-20)
(0.372291 0.0209694 4.02974e-20)
(0.558353 0.0579386 -1.06981e-19)
(0.738637 0.101152 3.46279e-20)
(0.897249 0.144053 0)
(1.02408 0.181277 5.15213e-20)
(1.11608 0.20967 -7.18936e-20)
(1.17605 0.228458 -4.16429e-20)
(1.21026 0.238629 1.87352e-20)
(1.22599 0.242063 -2.96319e-20)
(1.22982 0.240789 7.21266e-20)
(1.22683 0.236544 3.56776e-20)
(1.22045 0.2306 -2.50458e-20)
(1.21274 0.223782 -2.56837e-21)
(1.2048 0.216574 -6.68726e-20)
(1.19717 0.209237 3.03515e-20)
(1.19004 0.201904 -8.38475e-22)
(1.18346 0.194642 0)
(1.17742 0.187488 -2.06791e-20)
(1.17184 0.180459 0)
(1.16662 0.173542 4.61955e-20)
(1.16168 0.166721 -5.47436e-20)
(1.15688 0.160218 2.48917e-20)
(0.0736406 -0.00155836 -1.14402e-20)
(0.250866 0.00883047 -5.49691e-20)
(0.44922 0.0437933 6.25617e-20)
(0.648903 0.0915303 3.65999e-20)
(0.83023 0.141968 -1.74844e-20)
(0.978862 0.187491 2.92117e-20)
(1.0887 0.223239 -1.42046e-20)
(1.16136 0.24749 2.34692e-20)
(1.2034 0.261056 0)
(1.22319 0.266135 5.25506e-20)
(1.22861 0.265261 -2.3602e-21)
(1.22577 0.260649 -4.20554e-20)
(1.21885 0.25393 1.7839e-20)
(1.21035 0.246161 -1.99109e-20)
(1.2016 0.237952 -7.38043e-21)
(1.19321 0.22963 8.75321e-21)
(1.18541 0.221353 -6.60146e-21)
(1.17828 0.2132 -3.57183e-20)
(1.17177 0.205209 2.18317e-20)
(1.16583 0.197402 4.39072e-21)
(1.16036 0.189779 3.83773e-21)
(1.15526 0.182314 3.35631e-21)
(1.15041 0.175054 0)
(1.14565 0.168232 0)
(0.0948982 0.00323904 1.14481e-20)
(0.305198 0.0260397 -1.14205e-20)
(0.525092 0.0742663 -2.08451e-20)
(0.732827 0.132291 0)
(0.909267 0.1879 -8.68241e-21)
(1.04368 0.233467 -7.80972e-21)
(1.13503 0.265577 -1.3289e-20)
(1.18944 0.284395 0)
(1.21631 0.292299 0)
(1.22503 0.292416 0)
(1.22321 0.287614 0)
(1.21612 0.280055 0)
(1.20694 0.271148 -1.11427e-20)
(1.19737 0.261708 5.05757e-21)
(1.18819 0.252163 8.7113e-21)
(1.17969 0.242716 4.07024e-21)
(1.17196 0.23346 9.91346e-21)
(1.16496 0.224437 0)
(1.15865 0.215669 -2.314e-21)
(1.15292 0.207163 -2.22521e-21)
(1.14767 0.198904 -3.84385e-21)
(1.14278 0.190871 -3.36168e-21)
(1.13812 0.183185 0)
(1.13353 0.175919 2.33782e-21)
(-0.00050688 -0.0263283 7.90358e-21)
(-0.00483234 -0.0594837 -8.20773e-21)
(-0.0141199 -0.0789142 -1.55408e-20)
(-0.026059 -0.0883476 0)
(-0.0393112 -0.0908647 -2.08641e-20)
(-0.0531708 -0.0888886 6.60331e-21)
(-0.0671616 -0.0841637 -1.23041e-20)
(-0.0809668 -0.0778055 0)
(-0.0943927 -0.0704058 0)
(-0.107322 -0.0621653 0)
(-0.119675 -0.053028 0)
(-0.131391 -0.0427971 0)
(-0.142406 -0.0312234 1.9244e-22)
(-0.152643 -0.0180569 -8.17151e-21)
(-0.161998 -0.00308029 1.49371e-20)
(-0.170383 0.0138678 2.11537e-20)
(-0.177699 0.0328489 6.29888e-21)
(-0.1838 0.0538736 0)
(-0.188551 0.0768638 5.85787e-21)
(-0.191841 0.10164 -1.60223e-20)
(-0.193577 0.127926 -9.76516e-21)
(-0.193689 0.155379 -9.04918e-21)
(-0.192258 0.183662 0)
(-0.189895 0.212451 0)
(0.000632101 -0.0218747 -2.35644e-20)
(-0.00257198 -0.0490664 4.07879e-20)
(-0.0115989 -0.0646779 -1.50982e-20)
(-0.0236875 -0.0717775 -2.90085e-20)
(-0.0372296 -0.0729941 4.11532e-20)
(-0.0513653 -0.0704258 -2.57711e-20)
(-0.0655281 -0.0655799 3.6541e-20)
(-0.0793545 -0.0594105 2.25318e-20)
(-0.0926309 -0.0524103 0)
(-0.105233 -0.0447278 -2.04373e-20)
(-0.11708 -0.036288 6.92979e-23)
(-0.128104 -0.0268949 1.81087e-20)
(-0.138232 -0.0163112 2.47662e-20)
(-0.147372 -0.00431267 3.09888e-20)
(-0.15542 0.00928302 -1.51005e-20)
(-0.162257 0.0245935 -4.11144e-20)
(-0.167743 0.0416911 1.20503e-20)
(-0.171721 0.0605747 -4.62061e-20)
(-0.174031 0.0811714 0)
(-0.174535 0.103343 1.05088e-20)
(-0.173107 0.126895 9.75159e-21)
(-0.169562 0.151593 9.03629e-21)
(-0.163788 0.177253 0)
(-0.156888 0.20378 0)
(0.00123762 -0.0171412 0)
(-0.0013438 -0.0381882 7.93118e-20)
(-0.0100849 -0.0500554 -2.99817e-20)
(-0.0219841 -0.0550458 2.86396e-20)
(-0.0352725 -0.0552538 -7.99416e-20)
(-0.0489868 -0.0524005 0)
(-0.0624969 -0.0477293 -4.72869e-20)
(-0.075404 -0.0420252 2.19657e-20)
(-0.0874777 -0.0356863 -4.11745e-20)
(-0.0985877 -0.0288196 1.86893e-20)
(-0.108647 -0.0213405 1.08833e-19)
(-0.117579 -0.0130661 -5.10628e-20)
(-0.125307 -0.00378113 -7.96257e-20)
(-0.131734 0.00671262 -2.8447e-20)
(-0.136742 0.0185724 6.24079e-22)
(-0.140194 0.0319014 1.02153e-19)
(-0.141934 0.0467471 -4.76465e-20)
(-0.14179 0.0630967 1.41676e-21)
(-0.139579 0.0808835 0)
(-0.135133 0.0999998 -3.59452e-20)
(-0.12831 0.120319 0)
(-0.118852 0.141727 -3.22188e-20)
(-0.10626 0.164188 1.16632e-19)
(-0.0916675 0.187921 -3.90851e-22)
(0.00129659 -0.01242 0)
(-0.00120215 -0.0274634 -4.70245e-22)
(-0.00971264 -0.0358175 2.93216e-20)
(-0.0211795 -0.0389914 -2.76119e-20)
(-0.033778 -0.0385105 2.64985e-20)
(-0.0464949 -0.0356931 1.47598e-19)
(-0.0586668 -0.031505 -4.63719e-20)
(-0.069875 -0.0265574 -4.30149e-20)
(-0.0798782 -0.0211557 8.13625e-20)
(-0.0885375 -0.0153698 -1.14143e-19)
(-0.0957659 -0.0091137 3.51406e-20)
(-0.101488 -0.00222245 3.24879e-20)
(-0.105621 0.00549381 0)
(-0.108065 0.0142108 2.8996e-20)
(-0.1087 0.0240635 0)
(-0.107388 0.0351363 4.74367e-20)
(-0.10397 0.0474579 -8.84703e-20)
(-0.0982738 0.0610028 2.2935e-20)
(-0.0901097 0.0756966 7.63395e-20)
(-0.0792894 0.0914305 3.59081e-20)
(-0.0656668 0.108091 0)
(-0.0490627 0.125629 -8.81624e-20)
(-0.0285619 0.144328 2.8282e-20)
(-0.0044819 0.164879 0)
(0.000833593 -0.00792415 0)
(-0.00212527 -0.0173493 -9.26261e-20)
(-0.0105251 -0.0225448 -2.91456e-20)
(-0.0214076 -0.0242517 -5.48983e-20)
(-0.0329847 -0.0234263 5.16947e-20)
(-0.0442472 -0.0209793 -4.89302e-20)
(-0.0545307 -0.0175953 9.07996e-20)
(-0.0634146 -0.0137097 4.24916e-20)
(-0.0706552 -0.00953382 -1.20026e-19)
(-0.0761142 -0.00510185 7.37719e-20)
(-0.0797038 -0.000329346 -1.03756e-19)
(-0.0813516 0.00493362 2.22247e-19)
(-0.0809786 0.0108535 -1.1938e-19)
(-0.0784911 0.0175824 5.39055e-20)
(-0.0737771 0.0252367 1.49389e-19)
(-0.066708 0.0338863 -4.94543e-20)
(-0.0571411 0.0435497 -4.37167e-20)
(-0.0449205 0.0541927 -4.07727e-20)
(-0.0298768 0.0657304 0)
(-0.0118337 0.0780333 -6.43271e-20)
(0.00935097 0.0909443 -5.73922e-20)
(0.0338603 0.104381 8.39353e-20)
(0.0626385 0.118742 1.00987e-19)
(0.0969078 0.135177 -9.36182e-20)
(-0.000105081 -0.0037839 0)
(-0.00402947 -0.00814005 -1.219e-19)
(-0.0124598 -0.0106198 1.53458e-22)
(-0.0226494 -0.0112471 1.0867e-19)
(-0.0329258 -0.0104316 0)
(-0.0423356 -0.00868631 0)
(-0.050246 -0.00641896 0)
(-0.0562533 -0.00388962 -4.18237e-20)
(-0.0601214 -0.00121402 7.52686e-22)
(-0.0617153 0.00161311 7.31432e-20)
(-0.0609499 0.00468144 -1.01143e-19)
(-0.0577567 0.00812717 7.93186e-22)
(-0.0520637 0.012097 0)
(-0.0437867 0.016725 -5.38828e-20)
(-0.0328274 0.022115 4.67487e-20)
(-0.019074 0.0283303 -1.34459e-19)
(-0.00240423 0.0353879 1.62405e-19)
(0.0173107 0.0432556 3.32753e-20)
(0.0402073 0.0518494 -3.92888e-21)
(0.0664288 0.0610323 -1.25814e-19)
(0.0960988 0.0706114 -5.55583e-20)
(0.129352 0.0803788 1.79839e-19)
(0.166375 0.0904526 -1.18438e-19)
(0.213182 0.102089 0)
(-0.00145998 -6.73812e-05 5.85347e-20)
(-0.00676946 -2.24604e-06 6.0828e-20)
(-0.0153185 -0.000258921 -5.73072e-20)
(-0.0246616 -0.000201575 -1.07916e-19)
(-0.0333074 0.000271733 1.01616e-19)
(-0.0404028 0.00102593 -9.48679e-20)
(-0.0453751 0.00191922 1.33633e-19)
(-0.0478513 0.00286387 -4.15796e-20)
(-0.0476067 0.00384297 7.76624e-20)
(-0.0445072 0.00490895 0)
(-0.0384624 0.00616433 6.47238e-20)
(-0.0294013 0.00774297 -1.22741e-19)
(-0.0172505 0.00977915 1.11655e-19)
(-0.00192836 0.0123985 -1.04869e-19)
(0.0166541 0.0157006 0)
(0.0385918 0.0197502 8.69784e-20)
(0.0639819 0.0245712 1.54951e-19)
(0.0929191 0.0301408 -1.46419e-19)
(0.125493 0.0363866 -6.492e-20)
(0.161787 0.043182 -5.87512e-20)
(0.2018 0.0503337 1.66173e-19)
(0.24611 0.057619 4.79696e-20)
(0.291663 0.0646837 -4.60086e-20)
(0.355594 0.0724284 4.17471e-20)
(-0.00315529 0.00318567 -5.85427e-20)
(-0.010123 0.00696462 1.82178e-19)
(-0.018731 0.00842369 -5.71286e-20)
(-0.0269117 0.0087988 1.07656e-19)
(-0.033407 0.00866115 -1.0137e-19)
(-0.0374962 0.00822658 3.25486e-22)
(-0.0386822 0.00760412 4.44799e-20)
(-0.036625 0.00687341 1.63688e-19)
(-0.031102 0.00612067 -1.97005e-21)
(-0.0219689 0.00545908 -7.22391e-20)
(-0.00910943 0.00501452 0)
(0.00756876 0.00492553 -5.88664e-20)
(0.0281456 0.00533452 1.12516e-19)
(0.0527044 0.00637116 1.00686e-19)
(0.0813156 0.00813894 -4.81357e-20)
(0.114033 0.0107094 -6.23159e-22)
(0.150886 0.0141147 -3.91624e-20)
(0.191872 0.0183421 7.02204e-20)
(0.236946 0.0233273 6.49076e-20)
(0.286087 0.0289719 -5.91186e-20)
(0.338664 0.0349935 5.32636e-20)
(0.397032 0.0415658 -4.87592e-20)
(0.450612 0.047372 0)
(0.535764 0.0540826 -4.17001e-20)
(-0.00508562 0.00592979 5.88345e-20)
(-0.0137659 0.0126635 -6.07833e-20)
(-0.0221256 0.0153394 5.76399e-20)
(-0.0285454 0.0157242 0)
(-0.0320367 0.0148074 0)
(-0.0320258 0.0131241 9.4587e-20)
(-0.0280912 0.0110159 -8.88359e-20)
(-0.0199168 0.00872476 8.12113e-20)
(-0.00726037 0.00644958 -3.82031e-19)
(0.010053 0.00435581 9.3955e-22)
(0.0321467 0.00261437 6.52962e-20)
(0.0591377 0.00139568 0)
(0.0910944 0.000860612 -1.09077e-19)
(0.128031 0.00114274 2.02231e-19)
(0.169906 0.00234937 -1.40122e-19)
(0.216608 0.00455046 -2.08434e-19)
(0.267942 0.00777066 4.66174e-21)
(0.323628 0.0119836 1.41631e-19)
(0.383262 0.0170918 0)
(0.446646 0.0230558 0)
(0.511819 0.0292591 -5.32574e-20)
(0.583941 0.0367483 4.87527e-20)
(0.64293 0.0424472 -1.78121e-19)
(0.744745 0.0509697 1.67077e-19)
(-0.00710145 0.00809443 0)
(-0.0172528 0.0169572 0)
(-0.0247256 0.0203655 -1.73228e-19)
(-0.0284085 0.0205248 5.502e-20)
(-0.0276024 0.0187817 6.06056e-22)
(-0.0218787 0.0159532 9.6027e-20)
(-0.0108817 0.0125932 0)
(0.0056908 0.00909759 -8.27311e-20)
(0.0280732 0.00576247 7.64979e-20)
(0.0564561 0.00283668 -1.40451e-19)
(0.0909489 0.000552542 1.12589e-21)
(0.131558 -0.000896036 1.18799e-19)
(0.178189 -0.0013423 -2.68769e-21)
(0.230605 -0.00065457 9.69351e-20)
(0.288425 0.00125251 -1.40887e-19)
(0.35111 0.00440776 0)
(0.41798 0.0087763 1.51128e-19)
(0.488229 0.0142598 -2.1173e-19)
(0.560867 0.0206532 6.38289e-20)
(0.635316 0.0279153 0)
(0.70863 0.0350991 5.34483e-20)
(0.78673 0.0437946 1.94614e-19)
(0.846754 0.0495896 -1.82635e-19)
(0.947716 0.0598848 -2.11102e-19)
(-0.00900343 0.00958826 1.80233e-19)
(-0.0200181 0.0196694 -2.4844e-19)
(-0.0255813 0.0233345 3.31094e-22)
(-0.0251299 0.0231082 5.5359e-20)
(-0.0182618 0.0206191 -1.03277e-19)
(-0.00469091 0.0169239 -9.55802e-20)
(0.0158636 0.0127614 1.77597e-19)
(0.0436554 0.00866594 -2.71698e-21)
(0.0788637 0.00504064 -1.54963e-19)
(0.121546 0.00221389 2.83144e-19)
(0.1716 0.000443096 -2.92663e-21)
(0.228707 -6.57038e-05 -1.21868e-19)
(0.292312 0.000832995 0)
(0.361609 0.00321476 0)
(0.435558 0.00707551 -4.61762e-20)
(0.512916 0.012325 -8.4492e-20)
(0.592296 0.0187872 -1.51651e-19)
(0.672233 0.0262035 1.42348e-19)
(0.751218 0.0342411 -6.38497e-20)
(0.828036 0.0426008 1.15592e-19)
(0.900391 0.0505688 -5.5903e-20)
(0.971122 0.0588683 9.6116e-20)
(1.02579 0.0642677 -2.28962e-19)
(1.10423 0.0731319 4.19405e-20)
(-0.0105474 0.0103234 6.07983e-20)
(-0.0213915 0.0206298 0)
(-0.0236093 0.0240863 1.1838e-19)
(-0.0172041 0.0233937 -1.11521e-19)
(-0.00207609 0.0203763 1.03369e-19)
(0.0218985 0.0162821 0)
(0.0548677 0.0120025 0)
(0.0969206 0.00818755 -8.27718e-20)
(0.147985 0.00532062 2.51519e-21)
(0.207736 0.00376303 7.3076e-20)
(0.275523 0.00376894 -6.47264e-20)
(0.350327 0.00548889 1.22583e-19)
(0.430767 0.00896326 0)
(0.51515 0.0141166 2.00617e-19)
(0.601554 0.0207579 -3.71468e-19)
(0.687945 0.0285891 2.56444e-19)
(0.772301 0.0372272 1.52122e-19)
(0.852722 0.046208 -1.42795e-19)
(0.92757 0.055104 0)
(0.995437 0.0632787 0)
(1.05545 0.0706589 0)
(1.10736 0.0761827 0)
(1.14841 0.0804144 4.53931e-20)
(1.19262 0.0834928 -1.68146e-19)
(-0.187018 0.245897 -5.61029e-21)
(-0.18165 0.284516 5.6313e-21)
(-0.172201 0.320791 -1.61357e-22)
(-0.158812 0.35228 0)
(-0.140697 0.376412 -4.91943e-21)
(-0.11712 0.390238 9.59142e-21)
(-0.0873825 0.390685 7.80205e-23)
(-0.0509381 0.374851 -4.6204e-21)
(-0.00764681 0.340337 0)
(0.0421479 0.285803 0)
(0.0970362 0.211042 -3.10264e-22)
(0.15537 0.118203 -3.09471e-22)
(0.215142 0.0101797 -4.8806e-21)
(0.274712 -0.108258 4.44926e-21)
(0.333328 -0.229534 0)
(0.389408 -0.34338 0)
(0.440087 -0.437764 2.72924e-21)
(0.481462 -0.503192 -4.63345e-22)
(0.51054 -0.536875 -2.00551e-21)
(0.52561 -0.54424 -9.56504e-23)
(0.523222 -0.53908 0)
(0.498922 -0.5371 0)
(0.456844 -0.53956 0)
(0.416414 -0.522818 0)
(0.403064 -0.452074 0)
(0.428089 -0.312117 0)
(0.483365 -0.121666 5.67681e-22)
(0.553294 0.0795645 -8.83317e-22)
(0.623504 0.251254 0)
(0.682251 0.370949 0)
(0.722926 0.43767 -3.5015e-22)
(0.748255 0.460435 3.40304e-22)
(0.760032 0.459938 1.29424e-22)
(0.748865 0.466524 0)
(0.709489 0.488993 0)
(0.661149 0.486107 3.2587e-22)
(0.636355 0.400162 -3.16766e-22)
(0.651617 0.220053 0)
(0.694309 -0.000848586 3.87916e-22)
(0.743646 -0.194333 -5.62531e-22)
(0.785446 -0.320694 1.43866e-22)
(0.817423 -0.37681 0)
(0.828767 -0.402161 -1.54357e-22)
(0.805788 -0.42255 1.50098e-22)
(0.752284 -0.434847 0)
(0.704493 -0.373533 0)
(0.686864 -0.233405 -8.2434e-23)
(0.714537 -0.0327065 2.29678e-22)
(0.758466 0.137734 0)
(0.798884 0.262129 0)
(0.802082 0.353097 -4.4713e-23)
(0.769745 0.390912 1.62732e-24)
(0.728494 0.395738 3.81659e-25)
(0.726194 0.246692 4.5952e-23)
(0.736274 0.115876 0)
(0.771552 -0.10346 0)
(0.77249 -0.227107 0)
(0.745979 -0.307098 0)
(0.74399 -0.391669 0)
(0.725159 -0.135903 0)
(-0.150718 0.235023 -4.96726e-22)
(-0.139998 0.269974 -2.06539e-20)
(-0.12428 0.302564 1.62301e-22)
(-0.103633 0.329764 1.92353e-20)
(-0.0773127 0.349425 2.97637e-22)
(-0.0448512 0.35869 0)
(-0.00589847 0.354615 -1.94388e-20)
(0.0394596 0.3345 3.93039e-20)
(0.0906737 0.296355 -1.98689e-20)
(0.146752 0.239213 2.08864e-20)
(0.206043 0.16328 -1.99892e-20)
(0.266768 0.0704451 2.0418e-20)
(0.327046 -0.0368062 -1.98847e-20)
(0.385766 -0.15374 -6.16968e-22)
(0.442087 -0.273281 -1.66793e-20)
(0.49389 -0.384101 1.62084e-20)
(0.537391 -0.472813 -1.16646e-20)
(0.568497 -0.529716 1.10103e-20)
(0.585089 -0.553249 -7.28389e-21)
(0.587886 -0.549397 1.26758e-20)
(0.577018 -0.530841 -5.46153e-21)
(0.548111 -0.514877 -2.47954e-22)
(0.49922 -0.510155 -3.84206e-21)
(0.442943 -0.500373 7.78046e-21)
(0.405367 -0.449182 -3.93259e-21)
(0.406773 -0.330902 2.62683e-22)
(0.446231 -0.155406 5.19601e-21)
(0.509191 0.0394069 -4.26787e-23)
(0.579206 0.213548 -8.53217e-21)
(0.64246 0.341697 7.10028e-21)
(0.691439 0.418159 -3.13202e-21)
(0.726787 0.44967 2.76946e-22)
(0.745954 0.4591 -1.29696e-22)
(0.738449 0.477057 2.54068e-22)
(0.70289 0.506621 0)
(0.662841 0.500779 0)
(0.649123 0.403426 -1.70667e-21)
(0.673798 0.211251 1.19079e-21)
(0.721949 -0.0166238 1.22908e-21)
(0.771596 -0.210386 -7.24473e-23)
(0.808226 -0.333443 -1.49473e-21)
(0.832693 -0.38384 2.23776e-22)
(0.83931 -0.400062 0)
(0.813831 -0.410687 0)
(0.758733 -0.419075 0)
(0.705744 -0.363356 0)
(0.684106 -0.234623 2.61676e-22)
(0.708578 -0.0434591 -1.49648e-22)
(0.753377 0.125376 0)
(0.793675 0.255929 0)
(0.796924 0.356175 0)
(0.766132 0.399427 -9.14719e-23)
(0.72448 0.401341 -1.50058e-23)
(0.726263 0.245792 -8.49915e-23)
(0.737368 0.111079 0)
(0.776953 -0.107086 0)
(0.778684 -0.225131 4.84917e-23)
(0.751228 -0.303771 1.21631e-22)
(0.751273 -0.389942 0)
(0.730657 -0.134793 0)
(-0.0800888 0.216507 3.13429e-22)
(-0.0644114 0.247889 -3.87192e-20)
(-0.0433937 0.276282 3.90267e-20)
(-0.01726 0.299515 -3.65082e-20)
(0.0153009 0.315343 -2.99657e-22)
(0.0540136 0.320996 0)
(0.0987956 0.313723 -4.08957e-20)
(0.149257 0.291085 4.00948e-20)
(0.204559 0.251433 3.21557e-22)
(0.263402 0.194022 6.81644e-22)
(0.324105 0.11917 6.94732e-22)
(0.384841 0.0282365 6.6931e-22)
(0.4442 -0.0763308 -4.25055e-20)
(0.501344 -0.190546 4.19255e-20)
(0.55488 -0.307171 0)
(0.601679 -0.413977 1.02473e-21)
(0.636971 -0.496582 -2.44172e-20)
(0.656894 -0.545313 2.40532e-20)
(0.660569 -0.560084 0)
(0.650406 -0.548197 0)
(0.629853 -0.520548 -9.00685e-21)
(0.597037 -0.492548 1.61682e-20)
(0.545963 -0.477862 -1.35496e-20)
(0.480592 -0.470107 -5.54462e-23)
(0.423099 -0.436645 1.33939e-20)
(0.400402 -0.343056 -1.51549e-20)
(0.421005 -0.187165 1.54608e-20)
(0.473727 -0.00177065 -6.29144e-22)
(0.540881 0.172497 -7.58835e-21)
(0.606927 0.307802 0)
(0.663303 0.393707 0)
(0.707678 0.435006 1.56912e-21)
(0.733391 0.45583 -2.04109e-21)
(0.729826 0.485576 4.87979e-25)
(0.699364 0.521692 2.56434e-21)
(0.668464 0.512924 -2.49214e-21)
(0.665597 0.405534 0)
(0.699045 0.203101 4.69982e-22)
(0.752027 -0.0300483 4.11763e-21)
(0.801703 -0.223172 -7.36654e-21)
(0.833078 -0.342833 2.88393e-21)
(0.849681 -0.388559 2.379e-22)
(0.851322 -0.396923 -1.52239e-21)
(0.823631 -0.398411 1.15755e-21)
(0.767624 -0.402986 2.04889e-22)
(0.710244 -0.353019 2.04266e-22)
(0.684848 -0.2362 -2.62334e-22)
(0.705625 -0.0550237 0)
(0.750547 0.112226 0)
(0.790359 0.249173 -7.34161e-22)
(0.793472 0.358818 3.62156e-22)
(0.764277 0.407708 -3.47435e-22)
(0.722349 0.406976 5.88359e-22)
(0.727969 0.244857 8.638e-22)
(0.740079 0.106166 -1.66469e-22)
(0.783783 -0.11082 3.50083e-22)
(0.786305 -0.223058 -2.63188e-22)
(0.757638 -0.300327 1.26902e-22)
(0.759159 -0.388307 0)
(0.736658 -0.133645 0)
(0.0127583 0.190581 -7.49274e-20)
(0.0321064 0.218691 -5.59474e-22)
(0.0571071 0.243317 7.16194e-20)
(0.0876619 0.263303 -5.84931e-22)
(0.124145 0.276114 0)
(0.166413 0.279202 0)
(0.214186 0.270085 -8.30421e-20)
(0.266874 0.246631 -6.29108e-21)
(0.323506 0.207342 1.28479e-19)
(0.382738 0.151504 1.75141e-21)
(0.442948 0.0792721 -4.5054e-20)
(0.502802 -0.00835061 -4.42886e-20)
(0.561143 -0.109156 4.44189e-20)
(0.616818 -0.219881 0)
(0.667767 -0.332855 -3.65419e-20)
(0.7094 -0.434866 3.34214e-20)
(0.735866 -0.510897 0)
(0.743908 -0.551696 0)
(0.734578 -0.558645 1.47058e-20)
(0.711788 -0.540779 -3.30501e-21)
(0.680942 -0.507998 -1.03769e-20)
(0.643806 -0.471632 -6.74095e-21)
(0.59379 -0.445969 6.65934e-21)
(0.526441 -0.43436 -5.36759e-21)
(0.455451 -0.41367 -2.50074e-22)
(0.40986 -0.345828 5.3215e-21)
(0.409031 -0.2144 7.82868e-22)
(0.448057 -0.0425967 1.09789e-22)
(0.509434 0.12905 0)
(0.576475 0.269792 4.75474e-21)
(0.63888 0.364677 -4.86246e-21)
(0.690843 0.41658 2.54967e-22)
(0.722206 0.44973 0)
(0.722924 0.491198 -2.57653e-22)
(0.698623 0.533417 5.37784e-21)
(0.677373 0.522324 -1.11665e-20)
(0.685104 0.40697 -2.38866e-21)
(0.726762 0.196293 -7.07774e-22)
(0.783999 -0.0409651 7.13792e-21)
(0.833469 -0.232939 8.57077e-22)
(0.859735 -0.349156 -4.60505e-21)
(0.868269 -0.391153 4.01018e-21)
(0.864607 -0.393045 3.50213e-24)
(0.834871 -0.386077 8.8352e-22)
(0.778562 -0.386668 -1.06457e-21)
(0.717684 -0.34231 -1.33733e-21)
(0.68888 -0.237803 4.0293e-22)
(0.705554 -0.0670859 7.63524e-22)
(0.749877 0.0984107 -1.4566e-21)
(0.788873 0.241844 1.05737e-21)
(0.791732 0.360959 -3.7101e-22)
(0.764248 0.415696 2.40381e-22)
(0.722272 0.4127 3.57732e-22)
(0.731457 0.244006 -1.41297e-21)
(0.744463 0.101211 2.01436e-23)
(0.791997 -0.114664 -4.33587e-22)
(0.795271 -0.220904 0)
(0.76521 -0.296715 -1.21392e-22)
(0.767593 -0.386692 7.53701e-23)
(0.74309 -0.132439 0)
(0.118196 0.158567 7.17425e-20)
(0.140473 0.18407 -1.41832e-19)
(0.167425 0.206047 6.91928e-20)
(0.20011 0.22319 7.37263e-20)
(0.238452 0.233679 -1.48333e-19)
(0.282148 0.235271 -4.62386e-21)
(0.33079 0.225622 7.75902e-20)
(0.383754 0.20276 8.65014e-20)
(0.440097 0.165258 -8.47471e-20)
(0.498599 0.112268 0)
(0.557912 0.0434621 -9.37293e-20)
(0.617 -0.0395198 1.83923e-19)
(0.674714 -0.135852 -9.0225e-20)
(0.72943 -0.242124 0)
(0.777866 -0.35005 0)
(0.813793 -0.44574 1.06215e-21)
(0.830697 -0.514325 -5.09474e-20)
(0.826398 -0.547766 4.94942e-20)
(0.804349 -0.548655 0)
(0.770312 -0.526941 2.25359e-20)
(0.730123 -0.492325 -3.70975e-20)
(0.687904 -0.452276 2.73645e-20)
(0.639735 -0.417797 -2.11243e-20)
(0.576144 -0.398248 1.0131e-21)
(0.499819 -0.382966 1.58547e-20)
(0.435406 -0.337846 -7.88287e-21)
(0.411344 -0.234423 -3.36284e-22)
(0.433211 -0.0814539 -4.31817e-21)
(0.485984 0.0841808 2.23703e-22)
(0.551853 0.228194 4.18583e-21)
(0.618316 0.331323 2.45718e-22)
(0.676009 0.394275 -3.50927e-21)
(0.712103 0.440188 7.24051e-21)
(0.717465 0.493064 -4.20629e-21)
(0.700176 0.5412 0)
(0.688867 0.529035 -7.72839e-21)
(0.706906 0.408113 7.71821e-21)
(0.756272 0.191493 -7.75877e-21)
(0.81723 -0.0491182 9.68138e-21)
(0.866318 -0.239631 -9.3269e-22)
(0.887753 -0.352304 0)
(0.888188 -0.391453 -4.84128e-22)
(0.878958 -0.388401 9.86864e-22)
(0.84737 -0.373856 0)
(0.791232 -0.370375 1.666e-21)
(0.727665 -0.33133 -6.68724e-22)
(0.695855 -0.239243 3.64229e-22)
(0.708139 -0.0794373 2.80342e-22)
(0.751183 0.0840214 0)
(0.7891 0.233879 0)
(0.791667 0.362482 -1.00809e-21)
(0.766079 0.423305 1.84757e-21)
(0.724378 0.418531 -1.2742e-21)
(0.736854 0.243351 5.31477e-22)
(0.750577 0.0962634 1.02815e-21)
(0.801548 -0.118596 4.33995e-22)
(0.805489 -0.218653 -6.48783e-22)
(0.773938 -0.292859 0)
(0.776526 -0.385017 -1.47804e-22)
(0.749891 -0.131153 4.21337e-23)
(0.235949 0.123986 6.9946e-20)
(0.258373 0.147296 -6.9494e-20)
(0.284264 0.166674 5.52927e-22)
(0.316261 0.181311 -5.44023e-22)
(0.354196 0.190097 5.7778e-22)
(0.397341 0.190972 -6.00242e-22)
(0.445164 0.181656 1.22086e-21)
(0.497127 0.1603 0)
(0.55238 0.125493 -1.33592e-21)
(0.609657 0.0760754 1.38439e-21)
(0.668609 0.0115944 1.41341e-21)
(0.727642 -0.0663746 -1.45828e-21)
(0.784887 -0.157683 0)
(0.838415 -0.258226 0)
(0.883352 -0.359307 1.20027e-21)
(0.912149 -0.446982 0)
(0.918495 -0.50742 -8.67418e-22)
(0.901896 -0.534369 0)
(0.868055 -0.53135 -2.87018e-20)
(0.824551 -0.508026 4.98351e-20)
(0.777113 -0.473781 -3.61114e-20)
(0.729948 -0.4338 1.51221e-20)
(0.682565 -0.394275 7.92608e-21)
(0.625509 -0.365612 -7.69769e-21)
(0.551889 -0.348479 -5.52865e-21)
(0.475951 -0.319303 5.38003e-21)
(0.429118 -0.244362 0)
(0.430208 -0.11557 1.48522e-22)
(0.471131 0.0393075 0)
(0.533315 0.183746 0)
(0.6014 0.293972 5.31223e-21)
(0.662759 0.368002 -5.43384e-21)
(0.702707 0.42666 3.66364e-22)
(0.713011 0.490505 4.90432e-22)
(0.703348 0.544696 -5.75018e-22)
(0.702055 0.533125 -7.14021e-21)
(0.730081 0.409307 6.93198e-21)
(0.78675 0.188667 -1.03335e-20)
(0.851122 -0.0544199 8.93723e-21)
(0.899695 -0.243323 1.90308e-21)
(0.916688 -0.352394 -4.88192e-21)
(0.909178 -0.389441 9.25249e-22)
(0.894113 -0.383049 2.56482e-21)
(0.860863 -0.361927 0)
(0.805286 -0.354235 -6.14525e-22)
(0.739696 -0.320063 7.70886e-22)
(0.705253 -0.240362 -1.03003e-21)
(0.713036 -0.0918983 -2.82121e-22)
(0.754227 0.0691089 0)
(0.790872 0.225182 3.25084e-22)
(0.793197 0.363233 -5.43559e-22)
(0.769753 0.430418 1.31547e-24)
(0.728737 0.424468 -5.35846e-22)