/*--------------------------------*- C++ -*----------------------------------*\
| =========                 |                                                 |
| \\      /  F ield         | OpenFOAM: The Open Source CFD Toolbox           |
|  \\    /   O peration     | Version:  2512                                  |
|   \\  /    A nd           | Website:  www.openfoam.com                      |
|    \\/     M anipulation  |                                                 |
\*---------------------------------------------------------------------------*/
FoamFile
{
    version     2.0;
    format      ascii;
    arch        "LSB;label=32;scalar=64";
    class       volScalarField;
    location    "17";
    object      p;
}
// * * * * * * * * * * * * * * * * * * * * * * * * * * * * * * * * * * * * * //

dimensions      [0 2 -2 0 0 0 0];

internalField   nonuniform List<scalar> 
13248
(
-0.316092
-0.314581
-0.312401
-0.309741
-0.306826
-0.303872
-0.301056
-0.298494
-0.296253
-0.294354
-0.292773
-0.291447
-0.290283
-0.289167
-0.287973
-0.286576
-0.284858
-0.282722
-0.280082
-0.276915
-0.273088
-0.268779
-0.263174
-0.257214
-0.323079
-0.320957
-0.318174
-0.314932
-0.311451
-0.307963
-0.30463
-0.301548
-0.298751
-0.296219
-0.293888
-0.29166
-0.289417
-0.287038
-0.284407
-0.281428
-0.278025
-0.274154
-0.269787
-0.264919
-0.259524
-0.253623
-0.247011
-0.240429
-0.331661
-0.32871
-0.325192
-0.321293
-0.317202
-0.313138
-0.309235
-0.305544
-0.302048
-0.298677
-0.29533
-0.291894
-0.28826
-0.284336
-0.28006
-0.275398
-0.270346
-0.264924
-0.259156
-0.253081
-0.246686
-0.24004
-0.233002
-0.226115
-0.341958
-0.337965
-0.333584
-0.328953
-0.324186
-0.319466
-0.314873
-0.310391
-0.30594
-0.301414
-0.296703
-0.291721
-0.28641
-0.280755
-0.27477
-0.2685
-0.261998
-0.255322
-0.248516
-0.24161
-0.234607
-0.227552
-0.220338
-0.21351
-0.354021
-0.348804
-0.343447
-0.338006
-0.332475
-0.326962
-0.32147
-0.315905
-0.310143
-0.304079
-0.297647
-0.290839
-0.283691
-0.276277
-0.268686
-0.261008
-0.253318
-0.245671
-0.238096
-0.230604
-0.223188
-0.215863
-0.208564
-0.201663
-0.367827
-0.361237
-0.354825
-0.348502
-0.342076
-0.335548
-0.328833
-0.32178
-0.314272
-0.306269
-0.297812
-0.289007
-0.279993
-0.270913
-0.261892
-0.253025
-0.244369
-0.235953
-0.22778
-0.219839
-0.212109
-0.204582
-0.197208
-0.19025
-0.383252
-0.375197
-0.367677
-0.360378
-0.352855
-0.344978
-0.336592
-0.327559
-0.317849
-0.307563
-0.29689
-0.28605
-0.275255
-0.264673
-0.254419
-0.244557
-0.23511
-0.226071
-0.217417
-0.209118
-0.20114
-0.193455
-0.186033
-0.179009
-0.400014
-0.390469
-0.381805
-0.373391
-0.364466
-0.354779
-0.344183
-0.332656
-0.320352
-0.307563
-0.294621
-0.281827
-0.269409
-0.257511
-0.246205
-0.235508
-0.225402
-0.215848
-0.206801
-0.198214
-0.190043
-0.182247
-0.174805
-0.16774
-0.417635
-0.406644
-0.396797
-0.387053
-0.376307
-0.364258
-0.350894
-0.336434
-0.321287
-0.305934
-0.290809
-0.276226
-0.262379
-0.249352
-0.237157
-0.225762
-0.21511
-0.205137
-0.195778
-0.186972
-0.178664
-0.170808
-0.163376
-0.156305
-0.435402
-0.423071
-0.411978
-0.400594
-0.387517
-0.372533
-0.355931
-0.338267
-0.320219
-0.302406
-0.285288
-0.269134
-0.254062
-0.240083
-0.227148
-0.215179
-0.204088
-0.193787
-0.184197
-0.175243
-0.166859
-0.158996
-0.151602
-0.144565
-0.452372
-0.438845
-0.426387
-0.412964
-0.397008
-0.378592
-0.358446
-0.337509
-0.316674
-0.296619
-0.277754
-0.260262
-0.244168
-0.229408
-0.215878
-0.203461
-0.192043
-0.181518
-0.171789
-0.162771
-0.15439
-0.146587
-0.139275
-0.132338
-0.467451
-0.452918
-0.438949
-0.423038
-0.403669
-0.381411
-0.35755
-0.333392
-0.309967
-0.287928
-0.267581
-0.248992
-0.232089
-0.216735
-0.202776
-0.190063
-0.178456
-0.167833
-0.158085
-0.149115
-0.140844
-0.133199
-0.126065
-0.119375
-0.275346
-0.278225
-0.28009
-0.281451
-0.282752
-0.284121
-0.285621
-0.287296
-0.289165
-0.291233
-0.293496
-0.295946
-0.298568
-0.301346
-0.304259
-0.307284
-0.310392
-0.313554
-0.316738
-0.319912
-0.323031
-0.326063
-0.329067
-0.332164
-0.276355
-0.27902
-0.280764
-0.282056
-0.283305
-0.284634
-0.286105
-0.287757
-0.289612
-0.291675
-0.293944
-0.296411
-0.299066
-0.301894
-0.304877
-0.307995
-0.31122
-0.314524
-0.317878
-0.321251
-0.324594
-0.327843
-0.331046
-0.334568
-0.278566
-0.280823
-0.282334
-0.283487
-0.284633
-0.285879
-0.287281
-0.288879
-0.29069
-0.292721
-0.29497
-0.297431
-0.300096
-0.302953
-0.305988
-0.309179
-0.312503
-0.315927
-0.31942
-0.322951
-0.326472
-0.32987
-0.333101
-0.336902
-0.281657
-0.283375
-0.284564
-0.285513
-0.286492
-0.287593
-0.288868
-0.29035
-0.292056
-0.293993
-0.296158
-0.298549
-0.301157
-0.303975
-0.306987
-0.310176
-0.313517
-0.316976
-0.320514
-0.324094
-0.327678
-0.33115
-0.334273
-0.337616
-0.285242
-0.286369
-0.28718
-0.287863
-0.288604
-0.289482
-0.290544
-0.291823
-0.293333
-0.29508
-0.297065
-0.299285
-0.301735
-0.304406
-0.307286
-0.310359
-0.313599
-0.316974
-0.320439
-0.323947
-0.327448
-0.330846
-0.333874
-0.336855
-0.288964
-0.289527
-0.28994
-0.290301
-0.290729
-0.291293
-0.292042
-0.293009
-0.294211
-0.295656
-0.297348
-0.299283
-0.301459
-0.303869
-0.306502
-0.309343
-0.312368
-0.315542
-0.318824
-0.322158
-0.325463
-0.328662
-0.331644
-0.333697
-0.292566
-0.292654
-0.292679
-0.292674
-0.292717
-0.292878
-0.293212
-0.293758
-0.294543
-0.295578
-0.29687
-0.298421
-0.300229
-0.30229
-0.304592
-0.30712
-0.30985
-0.312742
-0.31575
-0.318808
-0.321868
-0.324684
-0.327726
-0.328482
-0.295942
-0.295676
-0.29534
-0.29494
-0.294539
-0.29422
-0.294053
-0.294093
-0.294374
-0.29492
-0.295744
-0.296852
-0.298245
-0.29992
-0.301851
-0.304034
-0.306435
-0.309015
-0.311712
-0.314431
-0.317181
-0.31938
-0.322449
-0.321875
-0.299154
-0.298651
-0.297983
-0.297167
-0.296282
-0.295433
-0.294714
-0.294196
-0.293933
-0.293958
-0.294292
-0.294944
-0.295915
-0.297193
-0.298773
-0.300609
-0.302661
-0.304871
-0.307174
-0.309421
-0.311743
-0.313187
-0.315946
-0.314421
-0.302422
-0.301752
-0.300765
-0.299519
-0.298128
-0.296729
-0.295444
-0.294364
-0.29356
-0.293076
-0.292938
-0.293155
-0.293722
-0.294614
-0.295797
-0.297215
-0.298802
-0.300476
-0.302166
-0.303708
-0.305291
-0.30598
-0.307903
-0.305951
-0.306083
-0.305241
-0.303918
-0.302222
-0.300315
-0.29837
-0.296532
-0.294914
-0.293595
-0.292629
-0.292037
-0.291818
-0.291946
-0.292375
-0.293037
-0.293847
-0.294708
-0.295517
-0.296184
-0.29661
-0.296901
-0.296663
-0.297246
-0.295188
-0.310522
-0.309422
-0.307707
-0.305532
-0.303104
-0.300625
-0.29826
-0.296135
-0.294333
-0.292897
-0.291837
-0.291126
-0.290709
-0.290505
-0.290411
-0.29031
-0.290081
-0.28961
-0.288785
-0.287565
-0.285886
-0.283912
-0.282111
-0.280007
-0.335721
-0.338598
-0.340225
-0.339985
-0.337343
-0.331702
-0.322852
-0.310199
-0.293395
-0.272256
-0.246798
-0.217308
-0.184397
-0.149038
-0.112473
-0.0763598
-0.0421825
-0.0112345
0.0150816
0.0361432
0.0517534
0.0621979
0.0681293
0.0703994
0.0698943
0.0674374
0.0637413
0.059341
0.0546381
0.0499087
0.04537
0.0410543
0.0370488
0.0333772
0.0300386
0.0270179
0.0243027
0.021855
0.0196466
0.0176437
0.0158259
0.0141677
0.0126644
0.011302
0.010079
0.00897982
0.00799492
0.00711139
0.00631342
0.00559419
0.00493522
0.00433458
0.00377142
0.00325135
0.00274341
0.00226836
0.0017774
0.00130876
0.000793109
0.000290306
-0.339279
-0.342776
-0.345049
-0.345441
-0.343385
-0.338282
-0.329791
-0.317391
-0.300683
-0.279475
-0.253742
-0.22377
-0.190199
-0.154065
-0.116479
-0.079427
-0.0442927
-0.0127173
0.0141566
0.0356112
0.0514641
0.0620465
0.0680569
0.0703795
0.069904
0.0674637
0.063765
0.0593644
0.0546546
0.0498867
0.0453877
0.0410881
0.0370964
0.033435
0.0301029
0.0270821
0.0243671
0.021918
0.0197086
0.0177052
0.0158837
0.0142215
0.0127106
0.0113428
0.0101134
0.0090098
0.00802081
0.00713358
0.00633301
0.00561086
0.00495015
0.00434694
0.00378308
0.00325996
0.00275252
0.00227377
0.00178411
0.00131085
0.00079739
0.000287836
-0.343545
-0.347697
-0.350727
-0.351997
-0.350844
-0.346671
-0.338901
-0.327151
-0.310912
-0.290016
-0.26438
-0.234264
-0.200314
-0.163697
-0.124564
-0.0867218
-0.0506712
-0.0181269
0.00963214
0.0318473
0.0483409
0.0594601
0.0659257
0.0686403
0.0685098
0.0663677
0.06293
0.0587529
0.0542404
0.0496897
0.0451226
0.0408507
0.0368953
0.0332788
0.0300022
0.0270208
0.0243395
0.0219071
0.0197107
0.0177196
0.0159061
0.0142488
0.0127371
0.0113691
0.0101373
0.00903202
0.00804091
0.00715142
0.00634925
0.00562494
0.00496304
0.00435769
0.00379347
0.00326759
0.00276086
0.00227866
0.00179044
0.00131278
0.000801575
0.00028541
-0.347056
-0.351309
-0.355104
-0.357261
-0.357133
-0.354018
-0.34726
-0.336488
-0.320821
-0.300703
-0.275634
-0.245859
-0.21195
-0.174924
-0.135964
-0.0972485
-0.0603132
-0.0268501
0.0018452
0.0249892
0.042384
0.0543615
0.061633
0.0650929
0.0656527
0.0640989
0.0611429
0.0573556
0.0531496
0.0488107
0.0445121
0.0404385
0.0366139
0.0330477
0.0297723
0.0268147
0.0242097
0.0218236
0.0196584
0.0176906
0.0158957
0.0142516
0.0127456
0.0113822
0.0101517
0.00904744
0.00805611
0.00716572
0.00636283
0.00563706
0.0049744
0.00436732
0.00380296
0.00327463
0.00276869
0.00228334
0.00179655
0.0013148
0.000805703
0.000283194
-0.346797
-0.352558
-0.356643
-0.359481
-0.360269
-0.3582
-0.352579
-0.342945
-0.32875
-0.309739
-0.285719
-0.256843
-0.223622
-0.186995
-0.148294
-0.109415
-0.0720991
-0.0380405
-0.00857852
0.0154711
0.0338778
0.0469289
0.0552844
0.0597989
0.0613463
0.0606662
0.0584372
0.055244
0.0515174
0.0475603
0.0435685
0.0397052
0.036039
0.0326309
0.0295037
0.0266479
0.0239966
0.0216563
0.019549
0.0176195
0.015854
0.01423
0.0127357
0.0113818
0.0101564
0.00905581
0.00806624
0.00717634
0.00637366
0.00564717
0.00498419
0.00437583
0.0038115
0.00328112
0.00277596
0.00228787
0.00180236
0.00131699
0.000809702
0.000281297
-0.344106
-0.350635
-0.354843
-0.358162
-0.359749
-0.358698
-0.354232
-0.345849
-0.333047
-0.315487
-0.292956
-0.265533
-0.233661
-0.198197
-0.160436
-0.122103
-0.0849843
-0.0507822
-0.0208564
0.00395144
0.0233656
0.0376001
0.0472223
0.0530074
0.0557658
0.0562012
0.0549141
0.0524914
0.0493869
0.0459221
0.0423184
0.0387509
0.0353205
0.032086
0.0290764
0.026311
0.023771
0.0214654
0.0193802
0.0175061
0.0157838
0.0141854
0.012708
0.0113678
0.0101513
0.00905692
0.00807106
0.00718306
0.00638152
0.00565511
0.00499224
0.00438312
0.00381896
0.003287
0.00278253
0.00229224
0.00180777
0.00131939
0.000813475
0.000279838
-0.338859
-0.34567
-0.349873
-0.353432
-0.355616
-0.355325
-0.351881
-0.344753
-0.333401
-0.317417
-0.296586
-0.270977
-0.241009
-0.20741
-0.171328
-0.134292
-0.0980175
-0.0641817
-0.0341567
-0.0088103
0.0115227
0.0269554
0.0379305
0.0451044
0.0492058
0.0509092
0.0507234
0.049206
0.0468333
0.0439529
0.0408131
0.0376034
0.0344463
0.0314179
0.0285665
0.0259207
0.0234709
0.0212341
0.0192142
0.0173469
0.0156865
0.0141194
0.0126637
0.0113409
0.0101366
0.00905084
0.00807055
0.00718581
0.00638633
0.00566081
0.00499845
0.00438913
0.00382523
0.00329225
0.00278831
0.00229645
0.00181268
0.00132204
0.000816929
0.000278966
-0.33149
-0.337886
-0.34187
-0.345548
-0.348068
-0.348273
-0.345638
-0.339636
-0.329691
-0.315378
-0.296454
-0.27292
-0.245129
-0.213834
-0.180104
-0.145133
-0.110387
-0.0774512
-0.0477129
-0.0220849
-0.000980865
0.0155853
0.0279107
0.0365076
0.0420044
0.0450212
0.0460318
0.0455113
0.0439452
0.0417135
0.0390917
0.0362855
0.0334395
0.0306504
0.0279807
0.0254697
0.0231315
0.020973
0.0189895
0.0171513
0.0155655
0.0140339
0.0126041
0.0113019
0.0101128
0.00903774
0.00806473
0.00718455
0.00638798
0.00566417
0.00500272
0.00439381
0.00383021
0.00329686
0.0027932
0.00230051
0.00181699
0.001325
0.000819975
0.000278861
-0.322306
-0.327232
-0.330833
-0.334553
-0.33711
-0.337621
-0.3357
-0.330727
-0.322127
-0.30951
-0.29262
-0.271408
-0.246138
-0.217438
-0.186316
-0.153939
-0.121345
-0.0898421
-0.0607898
-0.035167
-0.0134933
0.00406568
0.0176473
0.0276132
0.0344693
0.0387704
0.0410029
0.0415379
0.0408247
0.0392744
0.0371991
0.0348261
0.0323194
0.0297931
0.0273247
0.0249673
0.0227459
0.0206807
0.0187556
0.0170594
0.0154355
0.0139302
0.0125304
0.0112516
0.0100804
0.00901793
0.00805378
0.00717939
0.00638655
0.00566524
0.00500506
0.00439718
0.00383388
0.00330085
0.00279715
0.00230446
0.00182063
0.00132834
0.000822547
0.000279747
-0.311066
-0.313798
-0.317376
-0.320974
-0.32293
-0.323609
-0.322378
-0.318389
-0.311136
-0.300286
-0.28556
-0.266861
-0.244362
-0.218552
-0.190267
-0.160604
-0.130507
-0.100881
-0.0729225
-0.0476306
-0.0256401
-0.00728743
0.00739194
0.0186098
0.0267414
0.0322609
0.0356648
0.0373035
0.0375165
0.0366976
0.0351961
0.033274
0.0311206
0.0288699
0.0266148
0.0244206
0.0223249
0.0203558
0.0185176
0.0168189
0.0152528
0.0137995
0.0124424
0.0111916
0.0100407
0.00899251
0.00803857
0.00717095
0.0063825
0.00566434
0.00500565
0.00439938
0.00383623
0.00330426
0.00280007
0.00230829
0.00182349
0.00133207
0.000824568
0.000281917
-0.296958
-0.298651
-0.302661
-0.305737
-0.306997
-0.30786
-0.307328
-0.304366
-0.298549
-0.289554
-0.277079
-0.261009
-0.241433
-0.218686
-0.193396
-0.16646
-0.138881
-0.111358
-0.0848071
-0.0601353
-0.0380392
-0.019025
-0.00331724
0.00913234
0.0185605
0.0253314
0.0298671
0.0325768
0.0338017
0.0338322
0.0330015
0.0315973
0.0298412
0.0278946
0.0258713
0.0238528
0.0218909
0.0200232
0.0182617
0.016613
0.0150641
0.0136603
0.0123428
0.0111232
0.00999463
0.00896139
0.00801868
0.00715847
0.00637495
0.00566058
0.00500359
0.00439963
0.00383651
0.00330648
0.0028013
0.00231158
0.00182506
0.00133595
0.000825731
0.000285719
-0.281432
-0.284321
-0.287297
-0.288421
-0.289203
-0.289493
-0.289132
-0.28696
-0.28256
-0.275472
-0.26537
-0.252113
-0.235686
-0.21626
-0.194239
-0.170251
-0.145083
-0.119544
-0.0945049
-0.0708103
-0.0490471
-0.0297843
-0.0133911
2.62163e-05
0.010566
0.0184744
0.0240901
0.0277579
0.0298134
0.030616
0.0304603
0.0296141
0.0283066
0.0267142
0.0249673
0.023162
0.0213642
0.0196216
0.0179551
0.0163808
0.0148428
0.0134903
0.0122117
0.0110284
0.00992824
0.00891248
0.00798389
0.00713368
0.0063572
0.00564876
0.00499492
0.00439502
0.00383247
0.00330617
0.00279973
0.00231378
0.00182477
0.00133979
0.000825548
0.000291524
-0.265848
-0.274543
-0.276366
-0.276336
-0.276775
-0.277015
-0.275731
-0.273309
-0.269087
-0.262409
-0.252974
-0.240667
-0.225472
-0.207533
-0.187202
-0.165033
-0.141735
-0.118045
-0.0947029
-0.0724409
-0.0518636
-0.033482
-0.0176403
-0.00447092
0.00607414
0.0141774
0.0201144
0.0241981
0.0267351
0.0280104
0.0282871
0.0278222
0.0268418
0.0255235
0.0240043
0.0223839
0.0207369
0.0191133
0.0175476
0.0160526
0.0146176
0.0133109
0.0120798
0.0109192
0.00984963
0.00885446
0.00794196
0.00710468
0.00633709
0.00563587
0.00498667
0.00439155
0.00383
0.00330834
0.00280029
0.00231854
0.00182628
0.00134553
0.000825567
0.000298906
-0.249325
-0.260874
-0.262932
-0.261468
-0.260294
-0.259626
-0.258637
-0.256275
-0.252004
-0.245487
-0.236554
-0.225126
-0.211198
-0.194895
-0.17651
-0.156503
-0.135455
-0.113991
-0.0927427
-0.0723429
-0.0533398
-0.0361804
-0.0211867
-0.00851694
0.00182671
0.00996408
0.0161055
0.0205042
0.0234123
0.0250764
0.0257424
0.0256488
0.0250071
0.0239884
0.0227283
0.0213279
0.0198655
0.018395
0.0169552
0.0155611
0.0142198
0.0129493
0.0117994
0.0107074
0.00968208
0.00872442
0.00783967
0.00702575
0.00627519
0.00558827
0.00494959
0.00436341
0.00380803
0.00329263
0.00278778
0.00231065
0.00181976
0.00134291
0.000822246
0.000302013
-0.232611
-0.245128
-0.247606
-0.245636
-0.243729
-0.242749
-0.241662
-0.239239
-0.234972
-0.22872
-0.220406
-0.209967
-0.197391
-0.182767
-0.166322
-0.148414
-0.129513
-0.110145
-0.0908568
-0.0721961
-0.0546555
-0.0386441
-0.0244709
-0.0123134
-0.00221368
0.0058974
0.0121728
0.0168116
0.0200269
0.022039
0.0230703
0.0233357
0.0230294
0.0223136
0.0213204
0.0201511
0.0188855
0.0175807
0.0162786
0.0149992
0.0137577
0.0125802
0.0114913
0.0104514
0.00947193
0.00855514
0.00770294
0.00691648
0.00618737
0.00551839
0.00489368
0.00431919
0.00377279
0.00326536
0.00276619
0.00229482
0.00180752
0.00133541
0.000816518
0.000302867
-0.216507
-0.228672
-0.231579
-0.229795
-0.227692
-0.226422
-0.225111
-0.222675
-0.218593
-0.21275
-0.205118
-0.195658
-0.184359
-0.171282
-0.156597
-0.140592
-0.123647
-0.10621
-0.0887496
-0.0717357
-0.055605
-0.0407297
-0.0274002
-0.0158015
-0.0060052
0.00201514
0.00836242
0.0131895
0.0166742
0.0190065
0.0203811
0.0209889
0.0210075
0.0205891
0.0198611
0.0189237
0.0178578
0.0167225
0.0155631
0.0144053
0.0132715
0.0121844
0.0111566
0.0101742
0.00924455
0.00837061
0.0075531
0.00679587
0.00608995
0.00544037
0.00483095
0.00426936
0.00373286
0.0032344
0.00274154
0.00227673
0.0017935
0.0013268
0.000810304
0.000302961
-0.20046
-0.21214
-0.215462
-0.214078
-0.211978
-0.210484
-0.209038
-0.206694
-0.202911
-0.197545
-0.190594
-0.182058
-0.171934
-0.160268
-0.14719
-0.132928
-0.117793
-0.102156
-0.086413
-0.0709662
-0.0561971
-0.0424412
-0.0299678
-0.0189636
-0.00952214
-0.00165163
0.00470965
0.00967425
0.0133847
0.0159998
0.017687
0.0186146
0.0189429
0.0188131
0.0183465
0.0176407
0.0167767
0.0158147
0.0148034
0.0137723
0.0127477
0.0117492
0.0107929
0.00987377
0.00899762
0.0081694
0.00738917
0.00666342
0.00598264
0.00535417
0.00476145
0.00421406
0.00368845
0.00319997
0.00271411
0.00225665
0.00177798
0.00131724
0.000803715
0.000302336
-0.184749
-0.195991
-0.19956
-0.198547
-0.196568
-0.195016
-0.193554
-0.191368
-0.187923
-0.183057
-0.176779
-0.16912
-0.160089
-0.149723
-0.138122
-0.125462
-0.111996
-0.0980256
-0.0838851
-0.0699156
-0.0564487
-0.0437831
-0.0321672
-0.0217841
-0.0127419
-0.00507534
0.00124375
0.00629226
0.0101795
0.0130347
0.0149998
0.0162208
0.0168404
0.0169876
0.0167762
0.0163001
0.0156388
0.0148533
0.0139941
0.0130935
0.012181
0.0112767
0.0103985
0.00954636
0.00872706
0.00794766
0.00720762
0.00651594
0.00586259
0.00525729
0.00468303
0.00415142
0.00363802
0.00316067
0.00268281
0.00223355
0.00176027
0.00130602
0.000796385
0.00030083
-0.169854
-0.180391
-0.184017
-0.183339
-0.181583
-0.180101
-0.178707
-0.176715
-0.173625
-0.169267
-0.163655
-0.156832
-0.148821
-0.139653
-0.129402
-0.118207
-0.106268
-0.0938322
-0.0811776
-0.0685935
-0.056365
-0.044756
-0.0339927
-0.0242508
-0.0156461
-0.00823291
-0.0020102
0.00306834
0.00708228
0.0101337
0.0123398
0.0138252
0.0147145
0.015124
0.0151588
0.0149078
0.0144482
0.0138404
0.0131359
0.0123694
0.0115731
0.0107676
0.00997195
0.00919019
0.00843122
0.00770379
0.00700687
0.00635192
0.00572844
0.00514846
0.00459457
0.00408039
0.00358068
0.0031157
0.00264702
0.00220686
0.00173996
0.00129278
0.000788151
0.000298478
-0.155669
-0.165372
-0.168977
-0.168615
-0.167128
-0.165791
-0.16452
-0.162746
-0.160017
-0.156167
-0.151203
-0.145174
-0.138111
-0.130041
-0.121021
-0.111158
-0.100612
-0.0895844
-0.0783039
-0.0670141
-0.0559586
-0.0453681
-0.035446
-0.0263578
-0.0182218
-0.0111058
-0.00503
2.6688e-05
0.00411783
0.0073206
0.00972915
0.011447
0.0125816
0.0132356
0.0135047
0.0134717
0.0132104
0.0127797
0.0122315
0.0116019
0.0109246
0.010221
0.0095098
0.00880437
0.00810922
0.00743686
0.006786
0.00617044
0.00557929
0.00502685
0.00449531
0.00400032
0.00351587
0.00306458
0.00260633
0.00217624
0.00171685
0.00127732
0.000778946
0.000295386
-0.142111
-0.151053
-0.154597
-0.154505
-0.153286
-0.152129
-0.151016
-0.149473
-0.147104
-0.143747
-0.139403
-0.134119
-0.127931
-0.120864
-0.112963
-0.104312
-0.0950347
-0.0852951
-0.0752812
-0.065196
-0.0552462
-0.0456314
-0.0365329
-0.0281035
-0.0204602
-0.0136791
-0.007796
-0.00281011
0.00130988
0.00461882
0.00718954
0.00910598
0.0104586
0.0113364
0.0118251
0.0120004
0.0119318
0.0116759
0.0112838
0.0107924
0.010236
0.00963725
0.00901638
0.0083885
0.00776025
0.00714594
0.006544
0.00597051
0.00541422
0.00489158
0.00438446
0.00391048
0.00344297
0.00300676
0.00256034
0.00214131
0.00169068
0.00125947
0.000768663
0.00029163
-0.129364
-0.137547
-0.14096
-0.14108
-0.140111
-0.139145
-0.138208
-0.136904
-0.134883
-0.131993
-0.128232
-0.123641
-0.118257
-0.112105
-0.10522
-0.0976665
-0.0895423
-0.0809781
-0.0721276
-0.0631591
-0.0542465
-0.0455612
-0.0372628
-0.0294907
-0.022357
-0.0159419
-0.0102919
-0.00542214
-0.00131979
0.00205057
0.00474257
0.00682201
0.00836316
0.00944156
0.0101324
0.0105038
0.01062
0.0105344
0.0102965
0.00994315
0.00950875
0.0090171
0.00848924
0.00794204
0.0073836
0.00683019
0.00627997
0.00575117
0.00523225
0.00474171
0.00426117
0.00381007
0.0033613
0.0029416
0.00250854
0.00210164
0.00166114
0.001239
0.00075714
0.000287257
-0.117481
-0.124865
-0.128092
-0.128379
-0.12764
-0.126863
-0.126107
-0.125038
-0.123345
-0.120892
-0.117671
-0.113719
-0.109071
-0.103751
-0.0977851
-0.0912236
-0.0841434
-0.0766482
-0.0688626
-0.0609249
-0.0529808
-0.0451759
-0.0376494
-0.0305264
-0.0239123
-0.0178874
-0.0125053
-0.00779264
-0.0037516
-0.00036317
0.00240934
0.0046153
0.00631382
0.00756734
0.00844049
0.00899317
0.00928383
0.00936186
0.0092745
0.0090576
0.00874525
0.0083619
0.00792894
0.00746497
0.00697893
0.00648904
0.00599315
0.0055116
0.00503253
0.00457637
0.00412462
0.00369831
0.00327017
0.0028685
0.00245042
0.0020568
0.0016279
0.0012157
0.000744189
0.000282297
-0.106372
-0.112996
-0.116022
-0.11644
-0.115906
-0.115307
-0.114726
-0.113873
-0.112485
-0.110433
-0.107706
-0.104338
-0.100359
-0.0957898
-0.090653
-0.0849857
-0.0788478
-0.0723214
-0.0655067
-0.0585169
-0.0514726
-0.0444969
-0.0377097
-0.0312219
-0.0251304
-0.0195133
-0.0144277
-0.00990824
-0.00596857
-0.00260323
0.000209954
0.00250572
0.0043293
0.00573071
0.00676407
0.00748098
0.00793346
0.00816639
0.00822388
0.00814027
0.00794866
0.00767371
0.00733672
0.00695786
0.00654633
0.00612223
0.00568309
0.00525116
0.00481435
0.0043948
0.00397405
0.00357446
0.00316892
0.00278684
0.00238546
0.00200635
0.0015906
0.00118934
0.000729612
0.000276764
-0.0960306
-0.101959
-0.104771
-0.105283
-0.104924
-0.104487
-0.104056
-0.103399
-0.102288
-0.100603
-0.0983265
-0.0954855
-0.0921091
-0.0882156
-0.0838223
-0.0789575
-0.073667
-0.0680152
-0.0620823
-0.0559601
-0.0497478
-0.0435484
-0.0374641
-0.0315922
-0.0260202
-0.0208219
-0.016055
-0.0117594
-0.00795687
-0.0046528
-0.00183711
0.000512271
0.00242811
0.00394893
0.00511871
0.0059807
0.00658023
0.00695719
0.00715195
0.00719672
0.00712304
0.00695544
0.00671461
0.00642185
0.00608638
0.00572993
0.00534961
0.00496946
0.00457717
0.00419638
0.00380882
0.00343788
0.00305693
0.00269605
0.00231316
0.00194989
0.00154887
0.00115974
0.000713214
0.000270652
-0.0864838
-0.091751
-0.0943346
-0.094905
-0.094692
-0.0943938
-0.0941013
-0.0936208
-0.0927544
-0.0913943
-0.0895196
-0.0871509
-0.0843133
-0.0810229
-0.0772933
-0.0731453
-0.0686135
-0.0637481
-0.0586126
-0.0532807
-0.0478336
-0.0423566
-0.0369361
-0.0316561
-0.0265945
-0.0218195
-0.0173874
-0.0133405
-0.00970622
-0.006498
-0.00371555
-0.00134749
0.000628052
0.00223915
0.00352027
0.00450651
0.00523638
0.0057445
0.00606706
0.00623359
0.00627353
0.00621086
0.0060653
0.0058588
0.00560022
0.00531271
0.00499292
0.00466641
0.00432069
0.00398066
0.0036284
0.00328799
0.00293362
0.00259561
0.00223301
0.00188702
0.00150235
0.00112667
0.000694807
0.000263934
-0.0776922
-0.0823372
-0.0846892
-0.0852942
-0.0852022
-0.0850243
-0.0848528
-0.0845255
-0.0838751
-0.0827981
-0.081276
-0.0793247
-0.0769644
-0.0742087
-0.0710678
-0.0675566
-0.063701
-0.0595393
-0.0551213
-0.0505059
-0.0457587
-0.0409498
-0.0361515
-0.0314355
-0.02687
-0.022517
-0.0184296
-0.0146504
-0.0112103
-0.00812827
-0.00541172
-0.00305796
-0.00105437
0.000617881
0.00198454
0.00307293
0.00391485
0.00453949
0.00497853
0.00525854
0.00540626
0.00544462
0.00539224
0.0052713
0.00508961
0.00487168
0.00461361
0.00434223
0.00404488
0.0037474
0.00343242
0.00312436
0.00279853
0.00248506
0.00214456
0.00181739
0.0014507
0.00108995
0.000674221
0.000256573
-0.0696039
-0.0736843
-0.0758135
-0.0764346
-0.0764415
-0.0763673
-0.0763016
-0.0761114
-0.0756338
-0.0747993
-0.073584
-0.0719975
-0.0700561
-0.0677706
-0.0651483
-0.0621996
-0.0589432
-0.0554079
-0.0516324
-0.0476629
-0.0435523
-0.0393575
-0.0351383
-0.0309552
-0.0268671
-0.0229291
-0.0191904
-0.0156922
-0.0124667
-0.00953672
-0.00691509
-0.00460598
-0.00260443
-0.000899511
0.000526711
0.00169441
0.0026289
0.00335396
0.00389658
0.00428006
0.0045282
0.0046625
0.00469987
0.00466245
0.00455685
0.0044085
0.0042128
0.00399756
0.00375001
0.00349662
0.00322072
0.00294671
0.00265129
0.00236405
0.00204743
0.00174069
0.00139361
0.00104939
0.000651309
0.000248524
-0.0621928
-0.065763
-0.0676785
-0.0682989
-0.0683829
-0.0683915
-0.068409
-0.0683229
-0.0680014
-0.0673754
-0.0664255
-0.0651568
-0.0635807
-0.0617057
-0.0595373
-0.0570823
-0.0543538
-0.0513731
-0.0481695
-0.0447793
-0.0412442
-0.0376102
-0.033926
-0.0302421
-0.0266087
-0.0230742
-0.0196826
-0.016473
-0.0134773
-0.0107203
-0.00821855
-0.00598126
-0.00400961
-0.00229922
-0.000838975
0.000384891
0.00139167
0.00219995
0.00283199
0.00330751
0.00364723
0.00387097
0.00399335
0.00403629
0.00400503
0.00392545
0.00379207
0.00363349
0.00343673
0.00322867
0.00299337
0.00275498
0.00249168
0.00223233
0.0019413
0.00165666
0.00133083
0.00100481
0.000625954
0.000239741
-0.0554265
-0.0585339
-0.060246
-0.0608535
-0.0609968
-0.0610717
-0.0611554
-0.0611567
-0.0609661
-0.0605154
-0.0597892
-0.058791
-0.0575297
-0.0560105
-0.0542365
-0.052212
-0.0499458
-0.0474531
-0.0447559
-0.041882
-0.0388639
-0.0357385
-0.032545
-0.029325
-0.0261207
-0.0229735
-0.0199228
-0.0170041
-0.0142481
-0.0116801
-0.00931867
-0.00717678
-0.00526009
-0.00356951
-0.00209964
-0.000842395
0.000216031
0.00108943
0.00179553
0.00235058
0.00277187
0.00307721
0.00327871
0.00339775
0.00343796
0.00342543
0.00335361
0.00325157
0.00310612
0.00294423
0.00275075
0.00254933
0.00231968
0.00208983
0.001826
0.00156515
0.00126218
0.00095607
0.000598065
0.000230188
-0.0492598
-0.0519525
-0.0534753
-0.0540619
-0.0542499
-0.0543775
-0.054515
-0.0545875
-0.0544974
-0.0541897
-0.0536524
-0.0528868
-0.0518954
-0.0506816
-0.0492475
-0.0475956
-0.0457313
-0.0436654
-0.0414136
-0.0389969
-0.0364404
-0.0337731
-0.0310263
-0.0282337
-0.0254303
-0.0226512
-0.0199305
-0.0173002
-0.0147887
-0.0124207
-0.0102158
-0.00818893
-0.00634915
-0.0047013
-0.00324459
-0.00197569
-0.000885701
3.4625e-05
0.000798592
0.00141927
0.00191065
0.00228864
0.00256253
0.00275245
0.00286018
0.00291203
0.00290018
0.00285392
0.0027597
0.00264439
0.00249356
0.00233021
0.00213551
0.00193661
0.00170149
0.00146607
0.00118756
0.00090309
0.000567589
0.000219838
-0.0436522
-0.0459774
-0.0473267
-0.047887
-0.0481075
-0.0482752
-0.0484526
-0.0485782
-0.0485716
-0.0483859
-0.0480043
-0.0474299
-0.0466656
-0.0457123
-0.0445696
-0.043238
-0.041721
-0.0400257
-0.0381632
-0.0361488
-0.0340017
-0.031744
-0.0294007
-0.0269986
-0.0245664
-0.0221332
-0.0197282
-0.0173793
-0.0151125
-0.0129508
-0.0109138
-0.00901758
-0.00727313
-0.00568822
-0.00426562
-0.00300573
-0.00190363
-0.00095389
-0.000147505
0.000524948
0.00107386
0.00151363
0.00185141
0.00210604
0.00227664
0.0023894
0.00243513
0.00244316
0.00239949
0.00233066
0.00222288
0.00209837
0.00193964
0.00177298
0.00156792
0.00135948
0.00110698
0.00084584
0.000534512
0.000208679
-0.0385669
-0.0405674
-0.0417585
-0.042289
-0.0425321
-0.0427297
-0.0429371
-0.0431046
-0.0431648
-0.0430732
-0.0428173
-0.0424025
-0.0418302
-0.0410974
-0.040202
-0.0391437
-0.0379244
-0.0365485
-0.0350237
-0.0333609
-0.0315742
-0.0296803
-0.0276986
-0.0256503
-0.0235584
-0.0214469
-0.0193401
-0.0172621
-0.0152358
-0.0132824
-0.0114204
-0.00966606
-0.00803155
-0.00652643
-0.00515619
-0.00392431
-0.00282919
-0.00186832
-0.00103577
-0.000324759
0.0002711
0.000762967
0.00115478
0.00146562
0.00169294
0.0018622
0.00196229
0.00202244
0.00202797
0.00200499
0.00194019
0.00185492
0.00173286
0.00159948
0.00142565
0.00124559
0.00102058
0.000784379
0.000498869
0.00019672
-0.0339664
-0.0356813
-0.0367295
-0.0372287
-0.0374866
-0.0377056
-0.0379338
-0.0381309
-0.0382406
-0.0382266
-0.0380773
-0.0377924
-0.0373767
-0.0368272
-0.0361402
-0.0353137
-0.0343479
-0.0332455
-0.0320118
-0.0306541
-0.0291823
-0.0276091
-0.025949
-0.0242185
-0.0224358
-0.0206203
-0.018792
-0.0169712
-0.0151777
-0.0134304
-0.0117463
-0.0101412
-0.00862742
-0.00721548
-0.00591262
-0.00472453
-0.00365245
-0.00269698
-0.00185567
-0.00112343
-0.000495239
3.88543e-05
0.000478381
0.000839114
0.0011163
0.00133638
0.00148659
0.00159578
0.00164841
0.00166997
0.0016475
0.00160138
0.00151633
0.00141694
0.00127527
0.0011248
0.000928626
0.000718863
0.000460747
0.000183985
-0.0298155
-0.031281
-0.0322015
-0.0326689
-0.0329356
-0.0331694
-0.0334117
-0.03363
-0.0337781
-0.0338251
-0.0337591
-0.0335789
-0.0332917
-0.0328938
-0.0323813
-0.0317499
-0.0309983
-0.0301284
-0.0291434
-0.0280482
-0.0268497
-0.0255568
-0.0241803
-0.0227329
-0.0212285
-0.0196825
-0.0181113
-0.0165316
-0.01496
-0.0134131
-0.0119061
-0.0104537
-0.00906777
-0.00775917
-0.00653607
-0.00540546
-0.00437033
-0.00343288
-0.0025935
-0.00185131
-0.00120604
-0.000647436
-0.000174194
0.000227866
0.000549206
0.000814978
0.00101101
0.00116604
0.00126344
0.00132793
0.00134686
0.00133945
0.00129141
0.00122643
0.00111761
0.000997725
0.000831551
0.000649572
0.000420313
0.000170515
-0.026075
-0.0273233
-0.0281301
-0.0285664
-0.028837
-0.02908
-0.0293303
-0.0295625
-0.0297385
-0.0298328
-0.0298353
-0.0297448
-0.0295586
-0.0292843
-0.028915
-0.0284456
-0.0278743
-0.0272012
-0.0264278
-0.0255571
-0.0245939
-0.0235443
-0.022416
-0.0212186
-0.0199625
-0.0186598
-0.0173235
-0.0159669
-0.0146042
-0.0132493
-0.0119154
-0.0106158
-0.00936178
-0.0081637
-0.00703023
-0.00596913
-0.00498484
-0.00408092
-0.00325913
-0.00251677
-0.00185505
-0.00127171
-0.000778183
-0.000349035
5.98014e-06
0.000310437
0.000546259
0.000741797
0.000879777
0.000984077
0.00104223
0.00107212
0.00106037
0.00102962
0.000953861
0.000865246
0.000729974
0.00057691
0.00037785
0.000156409
-0.0227331
-0.0237944
-0.0245009
-0.0249071
-0.0251778
-0.0254253
-0.0256789
-0.0259184
-0.0261133
-0.0262432
-0.0262998
-0.026281
-0.0261855
-0.0260089
-0.0257508
-0.0254123
-0.0249906
-0.0244819
-0.0238857
-0.0232045
-0.0224416
-0.0216011
-0.0206882
-0.0197095
-0.0186728
-0.0175873
-0.016463
-0.0153105
-0.0141412
-0.0129667
-0.0117984
-0.0106479
-0.00952537
-0.00844057
-0.00740209
-0.00641815
-0.00549414
-0.0046346
-0.00384386
-0.00312411
-0.00247817
-0.00189117