/*--------------------------------*- C++ -*----------------------------------*\
| =========                 |                                                 |
| \\      /  F ield         | OpenFOAM: The Open Source CFD Toolbox           |
|  \\    /   O peration     | Version:  2512                                  |
|   \\  /    A nd           | Website:  www.openfoam.com                      |
|    \\/     M anipulation  |                                                 |
\*---------------------------------------------------------------------------*/
FoamFile
{
    version     2.0;
    format      ascii;
    arch        "LSB;label=32;scalar=64";
    class       volScalarField;
    location    "44.75";
    object      p;
}
// * * * * * * * * * * * * * * * * * * * * * * * * * * * * * * * * * * * * * //

dimensions      [0 2 -2 0 0 0 0];

internalField   nonuniform List<scalar> 
13248
(
-0.285705
-0.284253
-0.282196
-0.279706
-0.276988
-0.274245
-0.271636
-0.269269
-0.267208
-0.265469
-0.264033
-0.262849
-0.261837
-0.260898
-0.259921
-0.258796
-0.257416
-0.255691
-0.253543
-0.25095
-0.247788
-0.244254
-0.239613
-0.234929
-0.292339
-0.2903
-0.28766
-0.284604
-0.281334
-0.278068
-0.27496
-0.272101
-0.269528
-0.267227
-0.265145
-0.263196
-0.261278
-0.259281
-0.257101
-0.254647
-0.251846
-0.24865
-0.245034
-0.240988
-0.236494
-0.231581
-0.226079
-0.220699
-0.30044
-0.297619
-0.294276
-0.290584
-0.286719
-0.282893
-0.27924
-0.275816
-0.272612
-0.269575
-0.266616
-0.263635
-0.260528
-0.25721
-0.253615
-0.249703
-0.245461
-0.2409
-0.236039
-0.230912
-0.225518
-0.219925
-0.214022
-0.208289
-0.310142
-0.306343
-0.30218
-0.297784
-0.293269
-0.288816
-0.284518
-0.280373
-0.276321
-0.272271
-0.268125
-0.263797
-0.259227
-0.254386
-0.249274
-0.243919
-0.238364
-0.232656
-0.226838
-0.220943
-0.214979
-0.208997
-0.202901
-0.197188
-0.321511
-0.316555
-0.311467
-0.306299
-0.301056
-0.295861
-0.290739
-0.285623
-0.28041
-0.275004
-0.269338
-0.263389
-0.257173
-0.250739
-0.244157
-0.2375
-0.230836
-0.224215
-0.21767
-0.211216
-0.204853
-0.198597
-0.192392
-0.18658
-0.334535
-0.328275
-0.322182
-0.316175
-0.310092
-0.303964
-0.297739
-0.291295
-0.284528
-0.277392
-0.269905
-0.262143
-0.254213
-0.246232
-0.238308
-0.230524
-0.222939
-0.21558
-0.208457
-0.201564
-0.194885
-0.188415
-0.182107
-0.176207
-0.349098
-0.341438
-0.334285
-0.327355
-0.320257
-0.312905
-0.305182
-0.296965
-0.28822
-0.279015
-0.269497
-0.259849
-0.250247
-0.240841
-0.231736
-0.222993
-0.214639
-0.206672
-0.199076
-0.191823
-0.184886
-0.178237
-0.17185
-0.165854
-0.364937
-0.355844
-0.347595
-0.339622
-0.331242
-0.322258
-0.312547
-0.302078
-0.29097
-0.279458
-0.267825
-0.25633
-0.245178
-0.234504
-0.224377
-0.214819
-0.205817
-0.19734
-0.189347
-0.181797
-0.174648
-0.167863
-0.16142
-0.155349
-0.381606
-0.371112
-0.361737
-0.352533
-0.342499
-0.331381
-0.319162
-0.306013
-0.292276
-0.278365
-0.264661
-0.251451
-0.238915
-0.227139
-0.216141
-0.205893
-0.196348
-0.187447
-0.179132
-0.171345
-0.164036
-0.15716
-0.150691
-0.144577
-0.398439
-0.386642
-0.376088
-0.365379
-0.353229
-0.339444
-0.324259
-0.308145
-0.291687
-0.27544
-0.259821
-0.245087
-0.231354
-0.218642
-0.206909
-0.196088
-0.186098
-0.176858
-0.168295
-0.160337
-0.152924
-0.146007
-0.13954
-0.13342
-0.414551
-0.401587
-0.389754
-0.377182
-0.36241
-0.345479
-0.327013
-0.30783
-0.288727
-0.270325
-0.253012
-0.236969
-0.222229
-0.208741
-0.196412
-0.185135
-0.174805
-0.165321
-0.156595
-0.148545
-0.141101
-0.134207
-0.127784
-0.121722
-0.428913
-0.414966
-0.40173
-0.386887
-0.368989
-0.348507
-0.326564
-0.304328
-0.28274
-0.262413
-0.243648
-0.22652
-0.210974
-0.196887
-0.184119
-0.17253
-0.161991
-0.152385
-0.143609
-0.135572
-0.128199
-0.121421
-0.115132
-0.109262
-0.247334
-0.24908
-0.250206
-0.250975
-0.251625
-0.252217
-0.252782
-0.25334
-0.253897
-0.254454
-0.255005
-0.255544
-0.256062
-0.25655
-0.257001
-0.257404
-0.257752
-0.258038
-0.258258
-0.25841
-0.2585
-0.258539
-0.25856
-0.258603
-0.249254
-0.250777
-0.251771
-0.252464
-0.253066
-0.25364
-0.254215
-0.254816
-0.255451
-0.256124
-0.256835
-0.257579
-0.258355
-0.259158
-0.259983
-0.260826
-0.26168
-0.262538
-0.263393
-0.26424
-0.265077
-0.265904
-0.266729
-0.267623
-0.251702
-0.252937
-0.253754
-0.254334
-0.254855
-0.255376
-0.255931
-0.256542
-0.257224
-0.257983
-0.25882
-0.259737
-0.260735
-0.261814
-0.262972
-0.264206
-0.26551
-0.266873
-0.268282
-0.269722
-0.271179
-0.272624
-0.274011
-0.275513
-0.254503
-0.255412
-0.256015
-0.256448
-0.25685
-0.257278
-0.257768
-0.258346
-0.259028
-0.259823
-0.260737
-0.261774
-0.262936
-0.264228
-0.26565
-0.267199
-0.268868
-0.27064
-0.272494
-0.2744
-0.276333
-0.278264
-0.28009
-0.281335
-0.257483
-0.258059
-0.258428
-0.258678
-0.258918
-0.259202
-0.259572
-0.260057
-0.260677
-0.261443
-0.262363
-0.263445
-0.264694
-0.266113
-0.267705
-0.269466
-0.271385
-0.273442
-0.2756
-0.277814
-0.280027
-0.282139
-0.283906
-0.285547
-0.260501
-0.260766
-0.260888
-0.260923
-0.260952
-0.261035
-0.261218
-0.261538
-0.262018
-0.262674
-0.263518
-0.264556
-0.265797
-0.267243
-0.268895
-0.270748
-0.272788
-0.274986
-0.277297
-0.279658
-0.281985
-0.284157
-0.285924
-0.28696
-0.263469
-0.26347
-0.263339
-0.263126
-0.262893
-0.26271
-0.262633
-0.262709
-0.262967
-0.263428
-0.264106
-0.265009
-0.266145
-0.267515
-0.269118
-0.270944
-0.272972
-0.275164
-0.277468
-0.279802
-0.282067
-0.284069
-0.285901
-0.285789
-0.266385
-0.26616
-0.265785
-0.265289
-0.264742
-0.264229
-0.263821
-0.263576
-0.263533
-0.263719
-0.264151
-0.264839
-0.265788
-0.266997
-0.268457
-0.270151
-0.272051
-0.274111
-0.276261
-0.278398
-0.280455
-0.282001
-0.283964
-0.282598
-0.269321
-0.26892
-0.268291
-0.267477
-0.266567
-0.265666
-0.264866
-0.264237
-0.263831
-0.263682
-0.263809
-0.264223
-0.264925
-0.265908
-0.267157
-0.26864
-0.270313
-0.272114
-0.273965
-0.27573
-0.277446
-0.278338
-0.280249
-0.278007
-0.272454
-0.271891
-0.270988
-0.269818
-0.2685
-0.267167
-0.265931
-0.264878
-0.264071
-0.263549
-0.263336
-0.263439
-0.263852
-0.264555
-0.265513
-0.266679
-0.267987
-0.269358
-0.270712
-0.271896
-0.273045
-0.273291
-0.274732
-0.272231
-0.276033
-0.275276
-0.274058
-0.272488
-0.270723
-0.268924
-0.267225
-0.265729
-0.264496
-0.26358
-0.262999
-0.26275
-0.262811
-0.263141
-0.263681
-0.264356
-0.265078
-0.265751
-0.266288
-0.266585
-0.266743
-0.266308
-0.266794
-0.264518
-0.280355
-0.279318
-0.277717
-0.275697
-0.27345
-0.271163
-0.268985
-0.267026
-0.26537
-0.264045
-0.26306
-0.262395
-0.262003
-0.261813
-0.261737
-0.261674
-0.261515
-0.261158
-0.260499
-0.259496
-0.258097
-0.256397
-0.254937
-0.25297
-0.258677
-0.25846
-0.257779
-0.256833
-0.255467
-0.253596
-0.25115
-0.248094
-0.244452
-0.240325
-0.235897
-0.231438
-0.227296
-0.223874
-0.221564
-0.220626
-0.221134
-0.222763
-0.224735
-0.225758
-0.224066
-0.219698
-0.210291
-0.195993
-0.177867
-0.157966
-0.138955
-0.124235
-0.115628
-0.113474
-0.115272
-0.115954
-0.110517
-0.0972203
-0.0776097
-0.0556022
-0.03485
-0.0174617
-0.00416741
0.00498117
0.0101427
0.0120749
0.0121531
0.0119348
0.0122071
0.0130104
0.0139389
0.0146039
0.0146535
0.0141048
0.0128848
0.011377
0.00965451
0.00821488
0.00686371
0.00579655
0.00460949
0.00362995
0.00213398
0.000982092
-0.268927
-0.269515
-0.269693
-0.269357
-0.268295
-0.266414
-0.263567
-0.259638
-0.254582
-0.248448
-0.241393
-0.233651
-0.225582
-0.217683
-0.210518
-0.204546
-0.200108
-0.197197
-0.19542
-0.193902
-0.191433
-0.187506
-0.180703
-0.170791
-0.158514
-0.145442
-0.133966
-0.127016
-0.125957
-0.130075
-0.135775
-0.13723
-0.129693
-0.112655
-0.0886158
-0.0624957
-0.0384017
-0.0184932
-0.00331488
0.00734742
0.0138146
0.0166752
0.0170131
0.0163113
0.0156098
0.0153068
0.0152761
0.0152022
0.0147027
0.0137602
0.0122837
0.0106562
0.00894432
0.00762195
0.00643794
0.0055179
0.0044773
0.00358838
0.00215884
0.00101485
-0.278417
-0.279694
-0.280699
-0.281028
-0.280212
-0.278369
-0.275203
-0.270501
-0.264145
-0.256143
-0.246618
-0.235742
-0.223887
-0.211625
-0.199693
-0.188759
-0.179396
-0.171853
-0.166102
-0.16169
-0.157804
-0.153958
-0.149351
-0.143484
-0.137083
-0.131054
-0.127384
-0.128435
-0.13489
-0.144891
-0.153976
-0.155879
-0.146892
-0.126232
-0.0982854
-0.0686607
-0.0417854
-0.0197995
-0.00306884
0.00884284
0.0164468
0.0202742
0.0211476
0.0203406
0.0189641
0.0176939
0.0167245
0.015858
0.01474
0.0133589
0.011621
0.00989788
0.00822521
0.00704825
0.00603614
0.00525817
0.00435049
0.0035399
0.00217759
0.00103408
-0.286632
-0.288168
-0.289988
-0.29116
-0.290137
-0.28849
-0.285165
-0.279882
-0.272463
-0.262882
-0.251226
-0.237561
-0.222313
-0.206055
-0.189794
-0.174309
-0.160373
-0.14841
-0.138728
-0.131281
-0.125614
-0.12141
-0.118689
-0.116307
-0.115658
-0.116311
-0.12011
-0.128767
-0.142106
-0.157296
-0.169255
-0.171229
-0.161243
-0.137779
-0.106634
-0.074201
-0.0451393
-0.0215206
-0.00354441
0.00939156
0.0179621
0.0227161
0.0242922
0.0237074
0.0219915
0.019993
0.0181786
0.0165202
0.0147531
0.0129192
0.0109357
0.00915032
0.00753661
0.00652715
0.00567722
0.00502736
0.00423278
0.00348585
0.00218839
0.00103824
-0.291839
-0.294666
-0.296506
-0.297838
-0.297827
-0.296327
-0.292918
-0.287257
-0.27908
-0.268266
-0.254825
-0.238851
-0.220802
-0.201099
-0.181462
-0.162128
-0.14425
-0.128375
-0.115113
-0.104756
-0.0971927
-0.0921906
-0.0911025
-0.0913246
-0.096141
-0.102382
-0.112775
-0.128079
-0.147202
-0.166737
-0.1812
-0.182646
-0.172667
-0.147145
-0.113648
-0.0791742
-0.048528
-0.0236956
-0.00474977
0.00902015
0.0184007
0.023988
0.0263171
0.0261744
0.0244304
0.0219804
0.019482
0.0171019
0.0147131
0.0124544
0.010265
0.00845608
0.00690506
0.0060789
0.00536913
0.0048273
0.00412355
0.00342563
0.00218887
0.00102735
-0.294709
-0.29851
-0.300349
-0.301773
-0.30218
-0.300934
-0.297587
-0.291785
-0.283205
-0.271622
-0.256999
-0.239498
-0.219532
-0.197702
-0.175119
-0.152733
-0.131598
-0.112543
-0.0963273
-0.0834977
-0.0742611
-0.068399
-0.0684053
-0.0712275
-0.0787229
-0.0899682
-0.105847
-0.126365
-0.14993
-0.172887
-0.189746
-0.19514
-0.181288
-0.154268
-0.119324
-0.0836084
-0.0519616
-0.0262944
-0.00661533
0.00782992
0.0178874
0.0241957
0.027248
0.0276493
0.0261058
0.0234611
0.0204853
0.0175172
0.0145943
0.0119798
0.00964193
0.00784856
0.00634606
0.00570738
0.00511071
0.00465402
0.00401944
0.00335764
0.00217683
0.00100294
-0.294622
-0.29927
-0.301094
-0.302466
-0.303093
-0.302075
-0.298859
-0.293092
-0.284426
-0.272593
-0.257502
-0.239282
-0.218314
-0.195234
-0.171021
-0.146678
-0.123327
-0.101979
-0.083531
-0.0686983
-0.0578858
-0.0505557
-0.0513121
-0.0555779
-0.0651147
-0.0797596
-0.0994949
-0.123665
-0.150274
-0.175643
-0.194193
-0.1996
-0.186527
-0.159103
-0.12367
-0.0875059
-0.0554074
-0.0292426
-0.00902943
0.00596384
0.0165919
0.0235167
0.0272203
0.028184
0.0269758
0.0243368
0.0211027
0.0177194
0.0143936
0.0115182
0.00909516
0.00734746
0.00629907
0.00541499
0.00489547
0.00450084
0.00391639
0.00328044
0.00215091
0.000967675
-0.291664
-0.296612
-0.298377
-0.29977
-0.300501
-0.299678
-0.2967
-0.291199
-0.282799
-0.271214
-0.256325
-0.238205
-0.217174
-0.193819
-0.16902
-0.143779
-0.119217
-0.0964314
-0.0764397
-0.0601414
-0.0483429
-0.0424427
-0.0403074
-0.0447392
-0.0552772
-0.0717491
-0.0937253
-0.120043
-0.148407
-0.175214
-0.195
-0.200673
-0.188556
-0.161662
-0.126685
-0.0908239
-0.0587741
-0.0324136
-0.0118429
0.00358868
0.0146994
0.0221548
0.0264308
0.0279306
0.027117
0.0246216
0.0213339
0.0177157
0.0141337
0.0110975
0.00864538
0.00693762
0.00592645
0.00517989
0.00471462
0.00436095
0.00381118
0.00319354
0.00211107
0.000924759
-0.286107
-0.290494
-0.292182
-0.293752
-0.294468
-0.293841
-0.291305
-0.286356
-0.278564
-0.267677
-0.253576
-0.236278
-0.216022
-0.193317
-0.168926
-0.143783
-0.11895
-0.0955273
-0.0745943
-0.0571746
-0.0441474
-0.0356205
-0.0341343
-0.0381973
-0.048738
-0.0657095
-0.0884883
-0.115595
-0.144573
-0.171967
-0.192791
-0.198564
-0.187591
-0.162035
-0.128394
-0.0935328
-0.0619873
-0.0357022
-0.0149298
0.000848978
0.0123737
0.0202934
0.0250781
0.0270787
0.0266762
0.0244096
0.021243
0.0175514
0.0138504
0.010741
0.00829811
0.00662687
0.00564602
0.00499324
0.00455934
0.004229
0.00370216
0.00309772
0.00205861
0.000877511
-0.278236
-0.281151
-0.28312
-0.28508
-0.28585
-0.284865
-0.282801
-0.278656
-0.27183
-0.262076
-0.249282
-0.233411
-0.214617
-0.193314
-0.170152
-0.145945
-0.121661
-0.0983525
-0.0771049
-0.0590148
-0.0452249
-0.0376467
-0.0326844
-0.0353965
-0.0450356
-0.0613953
-0.0837698
-0.11052
-0.13913
-0.166191
-0.188125
-0.193582
-0.184155
-0.160652
-0.129115
-0.095888
-0.0652581
-0.0392635
-0.0183815
-0.00228273
0.00964802
0.0180162
0.0232843
0.0257756
0.0258091
0.0238231
0.0209192
0.0172836
0.0135769
0.0104603
0.00803772
0.00643255
0.0054455
0.00484417
0.00442259
0.00410149
0.00358905
0.00299471
0.00199588
0.00082904
-0.267799
-0.269682
-0.272338
-0.27448
-0.275408
-0.27509
-0.273046
-0.269625
-0.26394
-0.255587
-0.244418
-0.230321
-0.213369
-0.193888
-0.172421
-0.149688
-0.126526
-0.103808
-0.0825719
-0.0639359
-0.0490553
-0.0389419
-0.0343416
-0.0354252
-0.0434651
-0.0583543
-0.0794367
-0.105035
-0.132544
-0.158475
-0.177469
-0.185763
-0.178513
-0.157836
-0.12913
-0.0980611
-0.0686916
-0.043165
-0.0222411
-0.00582895
0.00652557
0.0153574
0.0211105
0.024099
0.0245946
0.0229403
0.0204363
0.0169577
0.0133369
0.0102615
0.00784496
0.00628782
0.00530571
0.00472376
0.00429904
0.00397632
0.00347215
0.00288623
0.00192522
0.000781946
-0.255437
-0.258077
-0.260304
-0.261244
-0.261805
-0.261998
-0.260791
-0.257699
-0.25312
-0.246452
-0.237406
-0.225715
-0.211331
-0.194455
-0.175463
-0.154908
-0.133524
-0.112168
-0.0917813
-0.0733161
-0.0577914
-0.046855
-0.0391336
-0.0385676
-0.0443405
-0.0567695
-0.0753657
-0.0985711
-0.123891
-0.148097
-0.165564
-0.175259
-0.170006
-0.152332
-0.126639
-0.0979486
-0.0701569
-0.0455323
-0.0250147
-0.00867384
0.00380711
0.0128774
0.0189393
0.0223045
0.0231989
0.021688
0.0197682
0.0165349
0.0130806
0.0100955
0.00771134
0.006171
0.0051907
0.00461311
0.00417987
0.00385054
0.00335185
0.00277379
0.00184819
0.000737844
-0.242532
-0.249555
-0.251077
-0.251105
-0.251486
-0.251947
-0.251462
-0.248986
-0.24391
-0.237308
-0.228843
-0.218005
-0.204685
-0.189053
-0.171448
-0.152364
-0.132439
-0.112424
-0.0931721
-0.0755813
-0.0605937
-0.0496362
-0.0426307
-0.0414014
-0.0462373
-0.0574943
-0.0747848
-0.0966131
-0.12052
-0.143223
-0.15991
-0.167839
-0.162412
-0.145446
-0.121181
-0.0942369
-0.0681204
-0.0448652
-0.0253265
-0.00961238
0.00251749
0.0114345
0.0174864
0.0209796
0.0221612
0.0220093
0.0190977
0.0159973
0.0126838
0.00979582
0.0074845
0.00600127
0.00504843
0.00448554
0.00405637
0.00372553
0.0032357
0.00266579
0.00177212
0.000698671
-0.228873
-0.238372
-0.240187
-0.239275
-0.238662
-0.238331
-0.237153
-0.234391
-0.230281
-0.224399
-0.216548
-0.206585
-0.194474
-0.180342
-0.164473
-0.14729
-0.129338
-0.111275
-0.0938582
-0.0778972
-0.064188
-0.0541146
-0.0477787
-0.04651
-0.0508285
-0.0609859
-0.0765961
-0.0962503
-0.117601
-0.137568
-0.151906
-0.157751
-0.152017
-0.136233
-0.114096
-0.0895504
-0.0656023
-0.0440472
-0.0257038
-0.010754
0.000939464
0.00965511
0.015673
0.0192612
0.0206525
0.0204847
0.01813
0.0152977
0.0122193
0.00949814
0.00731001
0.00587784
0.00493563
0.00437288
0.00393731
0.00359779
0.00311375
0.00255061
0.00169133
0.000656232
-0.21506
-0.22554
-0.227733
-0.226381
-0.225092
-0.224349
-0.223214
-0.22094
-0.217175
-0.211702
-0.204453
-0.195402
-0.184534
-0.171928
-0.157805
-0.14252
-0.126541
-0.110443
-0.0949033
-0.0806568
-0.068539
-0.059157
-0.0534673
-0.0522816
-0.0560629
-0.0649773
-0.0786083
-0.0956303
-0.113885
-0.130673
-0.142414
-0.146494
-0.140877
-0.126725
-0.106996
-0.0849452
-0.0631575
-0.0432664
-0.0260965
-0.0119124
-0.00067631
0.00780557
0.0137509
0.0173947
0.0189559
0.0189269
0.0170253
0.014493
0.0116918
0.00917435
0.00712659
0.00574582
0.00481613
0.00425054
0.0038071
0.00345826
0.00298039
0.00242611
0.00160383
0.00061184
-0.201658
-0.211964
-0.214525
-0.21328
-0.2118
-0.210925
-0.209919
-0.207907
-0.204435
-0.199404
-0.192849
-0.184766
-0.175135
-0.164009
-0.151562
-0.138095
-0.124008
-0.1098
-0.0960529
-0.0833975
-0.0725413
-0.0641488
-0.059002
-0.0577539
-0.0608051
-0.0682563
-0.0796863
-0.0939109
-0.109081
-0.122795
-0.132266
-0.135074
-0.129834
-0.117357
-0.0999645
-0.0803275
-0.0606567
-0.042426
-0.0264504
-0.0130623
-0.00231291
0.00591153
0.0117686
0.0154608
0.0171889
0.0173397
0.0158318
0.0136247
0.0111151
0.00881403
0.00691126
0.00559066
0.0046802
0.0041138
0.00366533
0.00330945
0.00283967
0.00229707
0.00151341
0.000568014
-0.188217
-0.198202
-0.201161
-0.200279
-0.198873
-0.197963
-0.197008
-0.195188
-0.192067
-0.187571
-0.18175
-0.174617
-0.16616
-0.156421
-0.145543
-0.133776
-0.12146
-0.109019
-0.0969488
-0.0858023
-0.0761839
-0.0687099
-0.0640001
-0.062595
-0.0648301
-0.0707584
-0.079991
-0.0915322
-0.103824
-0.11479
-0.122175
-0.124009
-0.11921
-0.10833
-0.0931493
-0.0758105
-0.0581744
-0.0415624
-0.0267741
-0.0141965
-0.00395688
0.00398816
0.00974186
0.0134726
0.015353
0.0156962
0.0145591
0.0126894
0.0104792
0.00840465
0.00665531
0.00540613
0.00452341
0.00396064
0.00351129
0.00315147
0.00269226
0.00216425
0.00142093
0.000524981
-0.175002
-0.184703
-0.187953
-0.187453
-0.186228
-0.185355
-0.184475
-0.182888
-0.180182
-0.176263
-0.171161
-0.164928
-0.157565
-0.149112
-0.139682
-0.129482
-0.118798
-0.107987
-0.0974695
-0.087737
-0.0792657
-0.0726085
-0.0682706
-0.0666927
-0.0681426
-0.0726389
-0.0798393
-0.0889184
-0.0985652
-0.107074
-0.112636
-0.113675
-0.109312
-0.099886
-0.0867149
-0.0714855
-0.0557506
-0.0406859
-0.0270616
-0.0153001
-0.00558822
0.00205688
0.00768963
0.0114423
0.0134599
0.0140074
0.0132171
0.0116769
0.00977806
0.00793905
0.00635215
0.0051859
0.00434087
0.00378811
0.00334321
0.00298342
0.00253784
0.00202762
0.0013267
0.000482811
-0.162444
-0.171633
-0.175019
-0.174872
-0.173891
-0.17314
-0.1724
-0.171086
-0.168809
-0.165462
-0.161074
-0.155673
-0.149323
-0.142048
-0.133943
-0.125173
-0.115977
-0.106653
-0.0975455
-0.0890632
-0.081662
-0.0757455
-0.0717438
-0.0700112
-0.0707554
-0.0739716
-0.0793627
-0.0862516
-0.0935596
-0.099937
-0.103946
-0.104319
-0.100332
-0.092157
-0.080743
-0.0674009
-0.0534118
-0.0398065
-0.02731
-0.016361
-0.00718938
0.000137377
0.00563096
0.00938899
0.0115314
0.0122857
0.0118186
0.0106085
0.0090127
0.00741361
0.00599686
0.00492489
0.00412839
0.00359357
0.00315947
0.00280458
0.0023763
0.0018874
0.0012311
0.000441684
-0.150464
-0.159021
-0.162463
-0.162646
-0.161944
-0.161377
-0.160824
-0.159794
-0.157935
-0.155134
-0.151415
-0.146829
-0.141403
-0.1352
-0.128292
-0.120814
-0.112961
-0.104986
-0.0971483
-0.0898123
-0.0833479
-0.0780965
-0.0744015
-0.0725422
-0.0726767
-0.074787
-0.0786203
-0.0836244
-0.0889525
-0.093526
-0.0962186
-0.0960159
-0.092316
-0.0851759
-0.075265
-0.0635853
-0.0511783
-0.0389333
-0.0275175
-0.0173687
-0.0087447
-0.00175194
0.00358534
0.00733275
0.00958641
0.0105415
0.010375
0.00948284
0.00818524
0.00682751
0.00558715
0.00462012
0.00388314
0.00337511
0.00295887
0.00261446
0.00220758
0.00174382
0.00113444
0.000401657
-0.138999
-0.146965
-0.150418
-0.150886
-0.150463
-0.150105
-0.149757
-0.149009
-0.147547
-0.145261
-0.142171
-0.138327
-0.133767
-0.128536
-0.122702
-0.116378
-0.109726
-0.102986
-0.0962546
-0.0899451
-0.0843202
-0.0796649
-0.0762534
-0.0743019
-0.0739299
-0.0751165
-0.0776497
-0.0810766
-0.0847555
-0.0878323
-0.0894188
-0.0887133
-0.0852204
-0.0789238
-0.0702825
-0.0600506
-0.0490625
-0.038073
-0.027683
-0.0183149
-0.0102401
-0.0035936
0.00157154
0.00529189
0.00764121
0.00878563
0.00889769
0.00830801
0.0073002
0.00618244
0.00512293
0.00427033
0.00360336
0.00313136
0.00274043
0.00241257
0.00203151
0.00159693
0.00103677
0.000362646
-0.128195
-0.135563
-0.138959
-0.139657
-0.139493
-0.139345
-0.139203
-0.138726
-0.137636
-0.13583
-0.133322
-0.130158
-0.12638
-0.122026
-0.117151
-0.111845
-0.106233
-0.100451
-0.0948375
-0.0894618
-0.0845939
-0.0804783
-0.0773334
-0.0753284
-0.0745547
-0.0749896
-0.0764569
-0.0786119
-0.0809315
-0.0827768
-0.083446
-0.0823112
-0.0789665
-0.0733533
-0.0657771
-0.0567967
-0.0470714
-0.0372311
-0.0278062
-0.0191925
-0.0116631
-0.00537151
-0.000393046
0.00328347
0.00571139
0.00702978
0.00739786
0.00709295
0.00636352
0.00548187
0.00460568
0.0038755
0.00328814
0.0028614
0.00250335
0.00219843
0.00184785
0.00144665
0.000938005
0.000324491
-0.118097
-0.124828
-0.128112
-0.128994
-0.129062
-0.129112
-0.129168
-0.128944
-0.128195
-0.126828
-0.12485
-0.122303
-0.119226
-0.115653
-0.111633
-0.107235
-0.102563
-0.097751
-0.0929845
-0.0884081
-0.0842109
-0.0805814
-0.0776909
-0.0756709
-0.0745916
-0.0744306
-0.0750464
-0.0761731
-0.0774112
-0.0782615
-0.0781856
-0.0766955
-0.0734611
-0.0684032
-0.0617189
-0.0538159
-0.0452079
-0.036412
-0.0278874
-0.019996
-0.0130027
-0.00707118
-0.00229226
0.00132386
0.00381209
0.00528608
0.00588696
0.00584716
0.00538226
0.00473048
0.00403806
0.00343657
0.0029373
0.00256467
0.00224699
0.00197161
0.00165631
0.00129282
0.000837984
0.000286995
-0.108635
-0.114755
-0.117902
-0.118924
-0.119192
-0.119421
-0.119656
-0.11966
-0.119219
-0.118244
-0.11674
-0.114743
-0.112289
-0.109409
-0.10614
-0.102541
-0.0986924
-0.0947028
-0.0907037
-0.0868284
-0.0832218
-0.0800297
-0.0773838
-0.0753833
-0.0740839
-0.0734669
-0.073423
-0.0737443
-0.0741275
-0.0741915
-0.073526
-0.0717536
-0.0686094
-0.0640083
-0.0580727
-0.0510955
-0.0434711
-0.0356182
-0.027927
-0.020721
-0.01425
-0.00867983
-0.00411125
-0.000571552
0.00195778
0.00356681
0.00437647
0.00458056
0.00436425
0.00393397
0.00342367
0.00295534
0.00255131
0.00224105
0.00197099
0.00173176
0.00145664
0.00113524
0.000736514
0.000249943
-0.0998069
-0.105358
-0.108347
-0.109466
-0.109898
-0.11028
-0.110671
-0.110873
-0.110701
-0.110071
-0.108984
-0.107471
-0.105563
-0.103287
-0.100674
-0.0977686
-0.0946346
-0.0913554
-0.0880311
-0.0847693
-0.0816832
-0.0788853
-0.0764741
-0.0745254
-0.073084
-0.0721371
-0.0715945
-0.0712997
-0.0710252
-0.0704845
-0.0693666
-0.0673825
-0.0643224
-0.0601043
-0.0548006
-0.0486186
-0.0418575
-0.034851
-0.0279257
-0.0213648
-0.0153977
-0.0101865
-0.00583679
-0.00238869
0.000162106
0.00188418
0.00287793
0.00330345
0.00331804
0.00309885
0.00276699
0.0024344
0.00213129
0.00189083
0.00167522
0.00147867
0.00124861
0.000973703
0.000633398
0.000213118
-0.0916263
-0.0966311
-0.0994407
-0.10062
-0.101182
-0.10169
-0.10221
-0.102579
-0.102634
-0.1023
-0.101574
-0.100479
-0.0990448
-0.0972916
-0.095244
-0.0929363
-0.0904172
-0.0877504
-0.0850119
-0.0822851
-0.0796579
-0.0772151
-0.0750302
-0.0731659
-0.0716535
-0.0704769
-0.0695708
-0.068822
-0.0680599
-0.0670701
-0.0656201
-0.0634908
-0.0605183
-0.0566293
-0.0518634
-0.0463657
-0.0403604
-0.0341103
-0.0278841
-0.0219255
-0.0164404
-0.0115824
-0.00745757
-0.00411503
-0.00156229
0.0002501
0.00140279
0.00202635
0.0022527
0.00223235
0.00207327
0.00187705
0.00167903
0.00151477
0.00135992
0.00121228
0.00103211
0.000808022
0.000528462
0.000176321
-0.0840593
-0.088547
-0.0911669
-0.0923754
-0.0930362
-0.0936443
-0.0942676
-0.094771
-0.095014
-0.0949278
-0.0945058
-0.0937681
-0.0927368
-0.0914296
-0.0898646
-0.0880673
-0.0860737
-0.0839316
-0.081698
-0.0794362
-0.0772126
-0.0750907
-0.0731329
-0.0713718
-0.069841
-0.0685209
-0.0673699
-0.0663041
-0.0651968
-0.0638899
-0.0622117
-0.0599982
-0.0571234
-0.0535247
-0.0492219
-0.0443152
-0.0389713
-0.0333944
-0.0278028
-0.0224024
-0.0173745
-0.0128608
-0.00896437
-0.00573978
-0.003204
-0.00132412
-3.77545e-05
0.000759842
0.00117773
0.00134233
0.0013485
0.00128737
0.001197
0.00111415
0.00102569
0.000932807
0.000807142
0.000638065
0.000421575
0.000139379
-0.0770659
-0.0810787
-0.0835075
-0.0847202
-0.0854513
-0.086133
-0.0868329
-0.0874399
-0.0878326
-0.0879485
-0.0877788
-0.0873387
-0.0866459
-0.085714
-0.0845561
-0.08319
-0.0816419
-0.0799465
-0.0781456
-0.0762864
-0.0744176
-0.0725855
-0.070834
-0.0692052
-0.0676998
-0.0663125
-0.0650147
-0.0637445
-0.0624099
-0.0608964
-0.0590786
-0.0568354
-0.0540716
-0.0507361
-0.0468373
-0.0424442
-0.0376794
-0.0327004
-0.027682
-0.0227956
-0.0181981
-0.0140172
-0.0103501
-0.0072541
-0.00475307
-0.00282805
-0.001433
-0.000485561
0.000102858
0.000437132
0.00059933
0.000670135
0.000688343
0.000690852
0.000673546
0.0006407
0.000573901
0.000463798
0.000312661
0.000102152
-0.0706212
-0.0741989
-0.0764373
-0.0776329
-0.0784088
-0.0791402
-0.0798926
-0.0805745
-0.0810814
-0.0813572
-0.0813913
-0.0811948
-0.0807811
-0.0801605
-0.0793415
-0.0783361
-0.0771622
-0.0758443
-0.0744125
-0.072901
-0.071345
-0.0697784
-0.0682338
-0.0667369
-0.0652925
-0.0638971
-0.0625299
-0.0611464
-0.059681
-0.0580516
-0.0561682
-0.0539427
-0.0513046
-0.0482137
-0.0446728
-0.040729
-0.0364728
-0.032024
-0.0275216
-0.0231061
-0.018911
-0.015049
-0.0116101
-0.00865116
-0.00620117
-0.00425239
-0.00277291
-0.00169966
-0.000962118
-0.000474509
-0.000167019
3.07962e-05
0.00015691
0.000247315
0.000304987
0.000336759
0.00033277
0.000285311
0.000201728
6.45433e-05
-0.0646955
-0.0678738
-0.0699252
-0.0710873
-0.0718865
-0.0726469
-0.07343
-0.0741612
-0.0747507
-0.0751483
-0.0753425
-0.0753407
-0.0751529
-0.0747861
-0.0742455
-0.0735383
-0.0726758
-0.0716746
-0.0705557
-0.0693429
-0.0680613
-0.0667355
-0.0653863
-0.064031
-0.0626751
-0.061317
-0.0599416
-0.0585172
-0.0569981
-0.0553262
-0.0534378
-0.0512699
-0.0487717
-0.0459128
-0.0426935
-0.0391466
-0.0353385
-0.0313603
-0.0273212
-0.0233352
-0.0195141
-0.0159558
-0.0127415
-0.00992618
-0.00754168
-0.00558908
-0.00404835
-0.00287274
-0.00200751
-0.00138367
-0.000942867
-0.000624579
-0.000392826
-0.000213415
-7.80085e-05
2.21596e-05
8.43941e-05
0.000102831
8.88631e-05
2.6506e-05
-0.0592525
-0.0620679
-0.0639392
-0.0650558
-0.0658605
-0.0666319
-0.0674273
-0.0681854
-0.0688299
-0.0693158
-0.0696314
-0.0697811
-0.0697721
-0.0696086
-0.0692933
-0.0688294
-0.0682235
-0.0674858
-0.0666301
-0.0656725
-0.0646307
-0.0635245
-0.0623568
-0.0611475
-0.0599001
-0.0586134
-0.0572766
-0.0558677
-0.054355
-0.0526982
-0.0508531
-0.0487755
-0.0464298
-0.0437939
-0.0408677
-0.0376746
-0.0342636
-0.0307037
-0.0270803
-0.0234847
-0.0200096
-0.0167386
-0.0137436
-0.0110763
-0.00876975
-0.00683151
-0.00525123
-0.00399579
-0.00302394
-0.00228138
-0.00172024
-0.00128943
-0.00095579
-0.000687705
-0.000472986
-0.00030155
-0.000170276
-8.31887e-05
-2.57507e-05
-1.19744e-05
-0.0542589
-0.056747
-0.058447
-0.0595091
-0.0603049
-0.0610726
-0.0618645
-0.062631
-0.0633068
-0.0638526
-0.0642564
-0.0645203
-0.0646492
-0.0646452
-0.0645089
-0.0642409
-0.0638439
-0.0633234
-0.0626874
-0.0619459
-0.0611096
-0.0601889
-0.0592008
-0.0581417
-0.0570168
-0.0558261
-0.0545625
-0.0532111
-0.0517502
-0.0501525
-0.0483879
-0.0464262
-0.044243
-0.0418232
-0.0391674
-0.0362926
-0.0332356
-0.0300487
-0.0267982
-0.023557
-0.0204008
-0.0174
-0.0146176
-0.0121007
-0.00988228
-0.00797454
-0.00637464
-0.00506061
-0.00400257
-0.00315884
-0.002491
-0.00195681
-0.00152643
-0.00117137
-0.000876966
-0.000632439
-0.000430059
-0.000272077
-0.000141739
-5.08518e-05
-0.0496847
-0.0518779
-0.0534161
-0.0544178
-0.0551934
-0.0559456
-0.0567217
-0.0574812
-0.0581692
-0.058751
-0.0592148
-0.0595614
-0.0597934
-0.0599117
-0.0599151
-0.0598022
-0.0595732
-0.05923
-0.0587769
-0.0582191
-0.0575631
-0.0568156
-0.0559842
-0.0550693
-0.0540727
-0.0529934
-0.0518268
-0.0505625
-0.0491865
-0.04768
-0.0460232
-0.0441959
-0.0421823
-0.0399727
-0.0375683
-0.0349826
-0.0322432
-0.02939
-0.0264746
-0.0235546
-0.0206915
-0.0179439
-0.0153659
-0.0130001
-0.0108779
-0.0090146
-0.00741301
-0.00606005
-0.00493523
-0.00400762
-0.00324707
-0.00261955
-0.0020988
-0.0016598
-0.00128652
-0.000968083
-0.000693413
-0.000463063
-0.000258669
-8.9967e-05
-0.0454998
-0.0474282
-0.0488151
-0.049753
-0.0505001
-0.0512279
-0.0519785
-0.0527194
-0.0534041
-0.0540024
-0.0545035
-0.0549064
-0.0552127
-0.0554219
-0.0555318
-0.0555397
-0.0554439
-0.055244
-0.0549413
-0.0545378
-0.0540367
-0.0534411
-0.0527549
-0.0519781
-0.0511105
-0.050151
-0.0490961
-0.0479387
-0.0466696
-0.0452764
-0.0437461
-0.0420658
-0.0402256
-0.0382198
-0.0360508
-0.0337292
-0.0312765
-0.0287232
-0.0261095
-0.0234807
-0.0208865
-0.0183752
-0.0159928
-0.0137768
-0.0117568
-0.00994966
-0.00836212
-0.00698812
-0.00581465
-0.00481981
-0.00398063
-0.00327044
-0.00266664
-0.00214796
-0.00169787
-0.00130579
-0.000958357
-0.000654927
-0.000376046
-0.000129211
-0.0416764
-0.0433679
-0.0446143
-0.0454872
-0.0462
-0.0468971
-0.0476153
-0.0483286
-0.0489983
-0.0495981
-0.0501179
-0.050556
-0.0509129
-0.0511873
-0.0513763
-0.0514764
-0.0514847
-0.0513991
-0.0512189
-0.0509439
-0.0505747
-0.0501118
-0.0495582
-0.0489109
-0.0481694
-0.0473321
-0.0463963
-0.0453571
-0.0442083
-0.0429418
-0.0415494
-0.0400228
-0.0383565
-0.0365477
-0.0345994
-0.0325205
-0.0303278
-0.028045
-0.0257035
-0.0233389
-0.0209912
-0.0186998
-0.0165033
-0.0144346
-0.0125208
-0.0107792
-0.0092192
-0.00784002
-0.00663455
-0.00558827
-0.00468425
-0.00390243
-0.00322372
-0.00263056
-0.00210677
-0.00164254
-0.00122296
-0.000846264
-0.000492885
-0.00016837
-0.0381894
-0.0396697
-0.0407866
-0.0415948
-0.0422697
-0.0429318
-0.0436131
-0.0442929
-0.0449389
-0.0455287
-0.0460529
-0.0465095
-0.0468981
-0.0472169
-0.0474627
-0.0476315
-0.0477196
-0.0477241
-0.0476428
-0.0474741
-0.0472173
-0.0468721
-0.0464347
-0.045906
-0.0452841
-0.044567
-0.043752
-0.0428355
-0.0418133
-0.0406801
-0.0394305
-0.0380597
-0.0365648
-0.0349448
-0.0332034
-0.0313479
-0.029392
-0.027354
-0.0252586
-0.0231339
-0.0210117
-0.0189244
-0.0169039
-0.0149787
-0.0131731
-0.0115042
-0.00998295
-0.00861236
-0.00738978
-0.00630668
-0.00535113
-0.00450872
-0.00376378
-0.0031023
-0.00250887
-0.00197477
-0.00148463
-0.00103589
-0.00060852
-0.000206978
-0.0350164
-0.0363088
-0.037307
-0.0380524
-0.0386876
-0.0393124
-0.0399543
-0.0405968
-0.0412132
-0.0417847
-0.0423028
-0.0427651
-0.0431706
-0.0435174
-0.0438021
-0.0440204
-0.0441686
-0.0442428
-0.0442403
-0.0441583
-0.043995
-0.0437482
-0.0434154
-0.0429952
-0.0424854
-0.0418833
-0.0411865
-0.040392
-0.0394971
-0.0384978
-0.0373911
-0.0361738
-0.0348448
-0.0334044
-0.0318562
-0.0302065
-0.0284665
-0.0266505
-0.0247779
-0.022871