/*--------------------------------*- C++ -*----------------------------------*\
| =========                 |                                                 |
| \\      /  F ield         | OpenFOAM: The Open Source CFD Toolbox           |
|  \\    /   O peration     | Version:  2512                                  |
|   \\  /    A nd           | Website:  www.openfoam.com                      |
|    \\/     M anipulation  |                                                 |
\*---------------------------------------------------------------------------*/
FoamFile
{
    version     2.0;
    format      ascii;
    arch        "LSB;label=32;scalar=64";
    class       surfaceScalarField;
    location    "163.75";
    object      phi;
}
// * * * * * * * * * * * * * * * * * * * * * * * * * * * * * * * * * * * * * //

dimensions      [0 3 -1 0 0 0 0];

oriented        oriented;

internalField   nonuniform List<scalar> 
26232
(
0.000198234
0.000877726
-0.00107596
0.000887194
0.00134438
-0.00203334
0.00217731
0.000645317
-0.00193543
0.00419105
-0.00116436
-0.000849381
0.00706266
-0.00404047
0.00116886
0.010928
-0.00794404
0.00407868
0.0159067
-0.0128292
0.00785051
0.0220788
-0.0186264
0.0124544
0.029461
-0.0252268
0.0178445
0.037988
-0.0324724
0.0239454
0.0475039
-0.0401579
0.030642
0.0577691
-0.0480431
0.037778
0.0684801
-0.0558738
0.0451628
0.0793018
-0.0634068
0.0525852
0.0899043
-0.070434
0.0598314
0.0999997
-0.0768008
0.0667054
0.109371
-0.0824173
0.0730456
0.117892
-0.0872598
0.0787388
0.125531
-0.0913628
0.0837244
0.13234
-0.0948109
0.0880021
0.138432
-0.0976972
0.0916047
0.143957
-0.100181
0.0946564
0.148907
-0.102194
0.0972434
-0.104212
0.0997587
0.153361
0.000227009
0.000650717
0.00106352
0.000507868
0.00266469
-0.000955847
0.00518441
-0.00368408
0.00877331
-0.00762937
0.0135608
-0.0127315
0.0196276
-0.0188961
0.0269771
-0.0259759
0.035512
-0.0337618
0.0450279
-0.0419883
0.0552252
-0.0503552
0.0657407
-0.0585586
0.0761915
-0.0663246
0.0862225
-0.0734378
0.0955488
-0.0797602
0.103985
-0.0852368
0.111457
-0.0898896
0.117999
-0.0938018
0.123733
-0.0970961
0.128834
-0.0999121
0.133519
-0.102383
0.137984
-0.104646
0.142514
-0.106724
-0.108993
0.147295
0.000277975
0.000372742
0.00131272
-0.000526881
0.00329708
-0.0029402
0.00640698
-0.00679399
0.0107899
-0.0120123
0.016535
-0.0184765
0.0236379
-0.025999
0.0319744
-0.0343123
0.0412932
-0.0430806
0.0512374
-0.0519325
0.0613885
-0.0605063
0.0713245
-0.0684946
0.0806782
-0.0756783
0.0891827
-0.0819424
0.0966969
-0.0872744
0.103207
-0.0917469
0.108808
-0.0954906
0.113671
-0.0986645
0.118003
-0.101429
0.122018
-0.103927
0.125905
-0.10627
0.129813
-0.108554
0.133878
-0.110789
-0.113207
0.138092
0.000356896
1.58456e-05
0.00164988
-0.00181987
0.00409333
-0.00538365
0.00786308
-0.0105637
0.0130689
-0.0172181
0.0197129
-0.0251206
0.0276563
-0.0339424
0.0366117
-0.0432678
0.0461718
-0.0526407
0.0558683
-0.061629
0.0652456
-0.0698836
0.0739298
-0.0771789
0.0816758
-0.0834243
0.0883851
-0.0886516
0.0940945
-0.0929838
0.0989433
-0.0965956
0.103129
-0.0996762
0.106865
-0.1024
0.110348
-0.104912
0.113739
-0.107318
0.117162
-0.109693
0.120699
-0.112091
0.124424
-0.114514
-0.117128
0.128346
0.000462986
-0.000447141
0.0020689
-0.00342578
0.00502865
-0.0083434
0.009484
-0.0150191
0.0154614
-0.0231954
0.0228273
-0.0324865
0.0312747
-0.0423898
0.0403556
-0.0523487
0.0495552
-0.0618403
0.0583832
-0.0704569
0.0664543
-0.0779548
0.0735376
-0.0842621
0.0795659
-0.0894526
0.0846119
-0.0936976
0.088842
-0.097214
0.0924655
-0.100219
0.0956908
-0.102901
0.0986972
-0.105407
0.101624
-0.107838
0.104569
-0.110264
0.107601
-0.112724
0.110758
-0.115248
0.114079
-0.117835
-0.120586
0.117538
0.0005914
-0.00103854
0.0025481
-0.00538248
0.00604543
-0.0118407
0.0111482
-0.0201219
0.0177516
-0.0297988
0.0255516
-0.0402864
0.0340737
-0.0509119
0.0427592
-0.0610343
0.0510762
-0.0701573
0.0586156
-0.0779964
0.0651454
-0.0844846
0.0706142
-0.0897309
0.0751153
-0.0939537
0.0788308
-0.0974132
0.0819745
-0.100358
0.0847485
-0.102993
0.087319
-0.105472
0.0898093
-0.107897
0.0923044
-0.110333
0.0948597
-0.112819
0.0975106
-0.115375
0.100278
-0.118016
0.103183
-0.120741
-0.123606
0.106203
0.000734723
-0.00177326
0.00305635
-0.00770411
0.00706653
-0.0158509
0.0127077
-0.0257631
0.019706
-0.0367971
0.0275813
-0.0481617
0.0357362
-0.0590669
0.0435872
-0.0688852
0.0506827
-0.0772528
0.0567684
-0.084082
0.0617894
-0.0895055
0.0658457
-0.0937872
0.0691267
-0.0972347
0.0718484
-0.100135
0.0742092
-0.102719
0.0763675
-0.105151
0.0784372
-0.107542
0.0804946
-0.109954
0.082588
-0.112427
0.0847479
-0.114979
0.0869926
-0.11762
0.0893328
-0.120356
0.0917788
-0.123187
-0.126135
0.0943085
0.000884433
-0.0026577
0.00355762
-0.0103773
0.00800705
-0.0203003
0.0140133
-0.0317693
0.0211188
-0.0439026
0.0287002
-0.0557431
0.036114
-0.0664807
0.0428438
-0.075615
0.0485865
-0.0829954
0.0532611
-0.0887567
0.0569597
-0.0932041
0.0598724
-0.0966998
0.0622176
-0.09958
0.0641943
-0.102112
0.0659585
-0.104483
0.0676204
-0.106813
0.0692515
-0.109173
0.0708964
-0.111599
0.0725822
-0.114113
0.0743259
-0.116722
0.076138
-0.119432
0.0780249
-0.122243
0.0799923
-0.125154
-0.128169
0.0820255
0.00103109
-0.00368879
0.00401391
-0.0133601
0.00878415
-0.0250706
0.0149369
-0.0379221
0.0218477
-0.0508134
0.0288139
-0.0627093
0.0352318
-0.0728986
0.0407188
-0.081102
0.0451404
-0.0874171
0.0485627
-0.0921789
0.0511688
-0.0958103
0.05318
-0.098711
0.0547997
-0.1012
0.0561874
-0.103499
0.0574538
-0.105749
0.0586698
-0.108029
0.0598782
-0.110381
0.0611044
-0.112826
0.0623642
-0.115373
0.0636677
-0.118026
0.0650212
-0.120786
0.0664292
-0.123651
0.0678941
-0.126619
-0.129682
0.0694073
0.00116435
-0.00485314
0.00438793
-0.0165837
0.00932629
-0.0300089
0.0153888
-0.0439845
0.0218304
-0.057255
0.0279465
-0.0688254
0.0332419
-0.078194
0.0374945
-0.0853546
0.0407198
-0.0906424
0.0430822
-0.0945413
0.0448032
-0.0975313
0.0460945
-0.100002
0.0471239
-0.102229
0.048008
-0.104383
0.0488204
-0.106562
0.0496043
-0.108813
0.050385
-0.111162
0.0511776
-0.113618
0.0519916
-0.116187
0.0528336
-0.118868
0.053708
-0.12166
0.0546177
-0.12456
0.0555637
-0.127565
-0.130661
0.0565435
0.00127418
-0.00612732
0.0046478
-0.0199573
0.00958261
-0.0349438
0.0153272
-0.0497291
0.0210813
-0.0630091
0.026209
-0.0739531
0.0303606
-0.0823456
0.0334669
-0.088461
0.0356534
-0.0928289
0.0371347
-0.0960226
0.0381315
-0.0985281
0.038825
-0.100696
0.0393427
-0.102747
0.039765
-0.104806
0.0401382
-0.106935
0.0404885
-0.109163
0.0408308
-0.111504
0.0411747
-0.113962
0.0415267
-0.116539
0.0418913
-0.119233
0.0422715
-0.12204
0.0426687
-0.124958
0.0430822
-0.127979
-0.131092
0.0435131
0.00135472
-0.00748204
0.00477378
-0.0233764
0.00952993
-0.0396999
0.0147592
-0.0549584
0.0196762
-0.0679261
0.0237633
-0.0780402
0.026822
-0.0854044
0.0289063
-0.0905452
0.0302074
-0.09413
0.030952
-0.0967672
0.0313378
-0.0989139
0.0315086
-0.100867
0.0315561
-0.102794
0.0315332
-0.104783
0.0314685
-0.10687
0.0313776
-0.109073
0.03127
-0.111396
0.031152
-0.113844
0.0310284
-0.116415
0.030903
-0.119107
0.0307782
-0.121916
0.030655
-0.124834
0.0305317
-0.127855
0.0304117
-0.130972
-0.000325508
0.000123499
0.000202009
-0.00110888
-0.00038276
0.00116613
-0.00224277
-0.00135613
0.00249002
-0.00365515
-0.00258414
0.00399653
-0.0052935
-0.00392625
0.0055646
-0.00711631
-0.00531299
0.00713581
-0.0090882
-0.00673173
0.00870362
-0.0111773
-0.0082064
0.0102955
-0.0133539
-0.00977702
0.0119536
-0.0155897
-0.0114835
0.0137193
-0.0178564
-0.0133559
0.0156227
-0.0201244
-0.0154101
0.017678
-0.0223602
-0.0176469
0.0198828
-0.0245255
-0.0200531
0.0222185
-0.0265753
-0.0226007
0.0246505
-0.0284571
-0.0252461
0.0271279
-0.0301109
-0.0279286
0.0295823
-0.0314695
-0.0305683
0.031927
-0.032461
-0.033065
0.0340565
-0.0330112
-0.0352996
0.0358498
-0.0330478
-0.0371384
0.037175
-0.0325058
-0.0384352
0.0378932
-0.0313482
-0.0390209
0.0378633
-0.0387462
-0.0295945
0.0369925
-0.000359933
0.000483432
-0.00122909
0.000486397
-0.0024872
-9.80154e-05
-0.00405097
-0.00102038
-0.00585904
-0.00211818
-0.00786493
-0.00330711
-0.0100325
-0.00456411
-0.0123332
-0.00590571
-0.0147434
-0.0073668
-0.0172428
-0.00898423
-0.0198117
-0.010787
-0.0224296
-0.0127921
-0.0250729
-0.0150037
-0.0277133
-0.0174127
-0.030317
-0.019997
-0.0328432
-0.0227199
-0.0352441
-0.0255277
-0.0374647
-0.0283477
-0.0394441
-0.0310856
-0.0411187
-0.0336251
-0.0424267
-0.0358304
-0.0433109
-0.0375509
-0.043723
-0.0386089
-0.0388159
-0.0436533
-0.000360135
0.000843567
-0.00123903
0.0013653
-0.00251599
0.00117894
-0.00410225
0.000565873
-0.00593024
-0.000290188
-0.00794817
-0.00128917
-0.0101175
-0.00239483
-0.0124092
-0.00361394
-0.0148018
-0.00497425
-0.0172776
-0.00650841
-0.0198208
-0.00824379
-0.022415
-0.010198
-0.0250415
-0.0123771
-0.0276785
-0.0147757
-0.0302999
-0.0173756
-0.0328748
-0.020145
-0.0353665
-0.023036
-0.0377315
-0.0259827
-0.0399188
-0.0288983
-0.0418723
-0.0316716
-0.0435381
-0.0341646
-0.044867
-0.036222
-0.0458013
-0.0376746
-0.0382939
-0.0463234
-0.000324517
0.00116808
-0.00113354
0.00217432
-0.00231932
0.00236473
-0.00379488
0.00204143
-0.00548829
0.00140323
-0.00734214
0.000564675
-0.009313
-0.000423965
-0.0113672
-0.00155975
-0.0134794
-0.00286208
-0.0156286
-0.00435914
-0.0177961
-0.00607635
-0.0199627
-0.00803136
-0.0221082
-0.0102316
-0.0242107
-0.0126732
-0.0262467
-0.0153396
-0.028191
-0.0182007
-0.0300163
-0.0212107
-0.0316912
-0.0243078
-0.0331778
-0.0274117
-0.0344289
-0.0304204
-0.035393
-0.0332005
-0.0360236
-0.0355914
-0.0362624
-0.0374358
-0.0385284
-0.0360279
-0.000257965
0.00142605
-0.000925692
0.00284204
-0.00191957
0.00335861
-0.00316006
0.00328192
-0.0045742
0.00281737
-0.00609939
0.00208986
-0.00768249
0.00115913
-0.00928108
3.88386e-05
-0.0108615
-0.00128161
-0.0123925
-0.00282818
-0.0138453
-0.00462361
-0.0151912
-0.00668543
-0.0164012
-0.00902154
-0.0174465
-0.011628
-0.018299
-0.0144871
-0.0189336
-0.0175661
-0.0193286
-0.0208157
-0.019466
-0.0241704
-0.0193294
-0.0275483
-0.0188924
-0.0308574
-0.0181215
-0.0339714
-0.0169726
-0.0367403
-0.0154232
-0.0389852
-0.040613
-0.0133386
-0.000170426
0.00159647
-0.000643693
0.00331531
-0.00136635
0.00408126
-0.00227058
0.00418616
-0.00328443
0.00383121
-0.00433897
0.0031444
-0.00537209
0.00219225
-0.00632888
0.000995629
-0.00715962
-0.000450872
-0.00781971
-0.00216809
-0.00826515
-0.00417817
-0.00845252
-0.00649806
-0.00833899
-0.00913508
-0.0078836
-0.0120834
-0.00704919
-0.0153215
-0.00580528
-0.01881
-0.00413031
-0.0224907
-0.00201314
-0.0262875
0.000547008
-0.0301085
0.0035321
-0.0338425
0.00694474
-0.037384
0.0108131
-0.0406087
0.0151443
-0.0433164
-0.0453936
0.0199249
-7.49924e-05
0.00167147
-0.000325766
0.00356609
-0.000728264
0.00448376
-0.00122763
0.00468552
-0.00175407
0.00435766
-0.00223323
0.00362356
-0.00259214
0.00255117
-0.00276173
0.00116522
-0.00267613
-0.000536472
-0.00227274
-0.00257148
-0.00149084
-0.00496007
-0.000271471
-0.00771743
0.00144137
-0.0108479
0.00369839
-0.0143404
0.00654139
-0.0181645
0.0100006
-0.0222692
0.014092
-0.026582
0.0188151
-0.0310107
0.0241536
-0.0354469
0.0300835
-0.0397724
0.0365642
-0.0438648
0.0435796
-0.0476241
0.0510678
-0.0508046
-0.0537849
0.0594591
1.48077e-05
0.00165666
-1.23694e-05
0.00359326
-7.97236e-05
0.00455111
-0.000142535
0.00474833
-0.00013295
0.00434807
2.84853e-05
0.00346212
0.000425487
0.00215417
0.00114169
0.000449012
0.00225951
-0.00165429
0.00385835
-0.00417032
0.00601395
-0.00711567
0.00879648
-0.0105
0.0122672
-0.0143186
0.0164742
-0.0185474
0.0214487
-0.0231389
0.0272005
-0.0280211
0.0337172
-0.0330987
0.0409639
-0.0382574
0.0488874
-0.0433704
0.0574227
-0.0483078
0.0664975
-0.0529395
0.0760591
-0.0571857
0.0860399
-0.0607854
-0.0644586
0.0967136
8.80475e-05
0.00156861
0.00026188
0.00341943
0.000514924
0.00429807
0.000887248
0.00437601
0.00144733
0.00378799
0.00228063
0.00262882
0.00348148
0.00095332
0.00514749
-0.001217
0.00737572
-0.00388252
0.0102587
-0.00705325
0.0138802
-0.0107372
0.0183103
-0.0149301
0.023599
-0.0196074
0.0297705
-0.0247189
0.0368179
-0.0301864
0.0447015
-0.0359047
0.0533497
-0.0417468
0.062664
-0.0475717
0.0725283
-0.0532347
0.0828181
-0.0585976
0.0934207
-0.0635421
0.10423
-0.0679949
0.115194
-0.07175
-0.075556
0.126292
0.000138943
0.00142967
0.000478125
0.00308025
0.00101806
0.00375813
0.00180337
0.0035907
0.00290816
0.00268319
0.00442639
0.0011106
0.00646374
-0.00108404
0.00913018
-0.00388344
0.0125326
-0.00728497
0.0167673
-0.0112879
0.021911
-0.0158808
0.0280115
-0.0210306
0.0350797
-0.0266755
0.0430825
-0.0327218
0.0519416
-0.0390454
0.0615357
-0.0454989
0.0717097
-0.0519208
0.0822873
-0.0581493
0.0930877
-0.0640351
0.103941
-0.0694512
0.11471
-0.0743103
0.125268
-0.0785536
0.135632
-0.082114
-0.0854639
0.14554
0.000168569
0.0012611
0.000637396
0.00261142
0.00143
0.00296552
0.00260573
0.00241497
0.00425114
0.00103778
0.00647251
-0.00111077
0.00938685
-0.00399837
0.0131111
-0.00760773
0.0177507
-0.0119245
0.0233855
-0.0169227
0.0300567
-0.0225521
0.0377552
-0.0287291
0.0464137
-0.035334
0.0559062
-0.0422143
0.0660543
-0.0491936
0.0766412
-0.0560857
0.0874307
-0.0627103
0.0981905
-0.0689091
0.108713
-0.0745576
0.118839
-0.0795775
0.128465
-0.0839359
0.137553
-0.0876414
0.146164
-0.0907254
-0.0932966
0.153997
0.00018514
0.000763219
0.00179331
0.0033589
0.00556555
0.00853345
0.0123856
0.0172322
0.0231523
0.0301749
0.0382648
0.0473137
0.0571426
0.0675135
0.0781513
0.088771
0.0991063
0.108936
0.118103
0.126527
0.134196
0.141211
0.147729
0.154192
-0.0245107
-0.0521905
0.0471068
-0.0183005
-0.0470664
0.0408562
-0.011055
-0.0387495
0.031504
-0.00287569
-0.0271274
0.0189481
0.00618125
-0.0122407
0.00318376
0.0158028
0.00564037
-0.0152619
0.0256042
0.0264744
-0.0362759
0.0355065
0.0487977
-0.0586999
0.0451933
0.0714178
-0.0811046
0.0543386
0.0925516
-0.101697
0.0623086
0.110867
-0.118837
0.0683125
0.125563
-0.131566
0.0716066
0.136825
-0.140119
0.0719873
0.145649
-0.14603
0.0705102
0.152453
-0.150976
0.0696281
0.155199
-0.154317
0.0721123
0.149015
-0.151499
0.0792612
0.128732
-0.135881
0.0902532
0.0922584
-0.10325
0.103276
0.0417383
-0.0547612
0.116624
-0.016902
0.00355391
0.128906
-0.0748774
0.0625956
0.138819
-0.122395
0.112482
0.145453
-0.153836
0.147203
0.148707
-0.170276
0.167022
0.149387
-0.17625
0.175569
0.14817
-0.17628
0.177497
0.14452
-0.175774
0.179424
0.137762
-0.181047
0.187805
0.129337
-0.190299
0.198724
0.12297
-0.187484
0.19385
0.121878
-0.152704
0.153796
0.126506
-0.0814235
0.0767955
0.134709
0.00772589
-0.015929
0.143613
0.0917025
-0.100606
0.151296
0.151202
-0.158884
0.156511
0.186342
-0.191557
0.157842
0.205298
-0.206629
0.154224
0.226234
-0.222617
0.146823
0.246171
-0.238769
0.139429
0.244063
-0.236668
0.135856
0.196851
-0.193279
0.137417
0.0968553
-0.0984155
0.143056
-0.0143088
0.00866936
0.149822
-0.120997
0.114231
0.153908
-0.178512
0.174426
0.152271
-0.225635
0.227272
0.145835
-0.249793
0.256229
0.139316
-0.255509
0.262029
0.137603
-0.221292
0.223005
0.141297
-0.101649
0.0979548
0.146497
-0.0114749
0.00627456
0.148049
0.141414
-0.142966
0.145755
0.211523
-0.209228
0.143062
0.289739
-0.287047
0.142374
0.306685
-0.305997
0.143106
0.1575
-0.158232
0.143333
0.118902
-0.119129
0.141674
-0.162188
0.163847
-0.233009
0.234907
-0.0405056
-0.0553382
-0.0358783
-0.0516938
-0.029811
-0.0448167
-0.0222755
-0.034663
-0.0134089
-0.0211073
-0.00343293
-0.00433563
0.00784784
0.0151937
0.0195461
0.0370994
0.0309149
0.060049
0.0418441
0.0816224
0.0515533
0.101158
0.0592975
0.117818
0.0646113
0.131511
0.0678076
0.142453
0.0703277
0.149933
0.0743477
0.15118
0.0815459
0.141817
0.0919576
0.11832
0.104159
0.0800574
0.116611
0.0292861
0.12815
-0.0284414
0.137908
-0.084635
0.145011
-0.129498
0.14899
-0.157816
0.149986
-0.171272
0.148836
-0.1751
0.146327
-0.173771
0.141955
-0.171401
0.134644
-0.173737
0.125368
-0.181022
0.117947
-0.180063
0.116289
-0.151047
0.121173
-0.0863072
0.13049
-0.00159146
0.140949
0.0812443
0.150358
0.141792
0.157096
0.179604
0.159566
0.202828
0.156887
0.228912
0.150362
0.252695
0.143621
0.250804
0.140025
0.200448
0.140728
0.0961517
0.144981
-0.0185616
0.15044
-0.126456
0.153763
-0.181835
0.151745
-0.223617
0.145141
-0.243189
0.138519
-0.248887
0.137005
-0.219779
0.140884
-0.105528
0.146208
-0.016799
0.147894
0.139728
0.145704
0.213713
0.143178
0.292266
0.142568
0.307295
0.143613
0.156455
0.144118
0.118396
0.14251
-0.16058
-0.231121
-0.0456975
-0.055964
-0.0435499
-0.0538414
-0.0397197
-0.0486469
-0.0340455
-0.0403372
-0.0264716
-0.0286811
-0.017119
-0.0136883
-0.00638169
0.00445636
0.0058247
0.024893
0.0183359
0.0475378
0.0307548
0.0692036
0.0422196
0.0896931
0.0521201
0.107918
0.0602372
0.123394
0.0671301
0.13556
0.0741422
0.142921
0.0827793
0.142542
0.0937
0.130896
0.106139
0.105881
0.118488
0.0677088
0.12967
0.0181039
0.139088
-0.0378598
0.146201
-0.0917479
0.15049
-0.133788
0.151902
-0.159227
0.150833
-0.170203
0.148086
-0.172352
0.144472
-0.170157
0.139622
-0.166552
0.132146
-0.16626
0.122355
-0.171231
0.113916
-0.171624
0.111379
-0.14851
0.116185
-0.0911135
0.126302
-0.0117081
0.138135
0.0694116
0.149196
0.130731
0.157466
0.171334
0.161208
0.199086
0.159694
0.230427
0.154228
0.258161
0.148167
0.256865
0.144476
0.204138
0.144235
0.0963922
0.147013
-0.0213389
0.151075
-0.130519
0.153633
-0.184393
0.151319
-0.221303
0.144623
-0.236493
0.137905
-0.242169
0.136527
-0.2184
0.140538
-0.109539
0.146007
-0.0222682
0.147866
0.137869
0.145765
0.215813
0.143368
0.294663
0.142855
0.307809
0.144254
0.155056
0.145075
0.117576
0.14352
-0.159026
-0.229241
-0.0380382
-0.0539537
-0.0388192
-0.0530604
-0.0379152
-0.0495509
-0.0350709
-0.0431815
-0.0300297
-0.0337223
-0.0227895
-0.0209285
-0.0132948
-0.00503835
-0.002463
0.0140612
0.0102133
0.0348614
0.0233758
0.0560411
0.0363533
0.0767156
0.0485171
0.095754
0.0597134
0.112198
0.0704166
0.124857
0.0815407
0.131797
0.0938533
0.13023
0.107236
0.117514
0.120496
0.0926208
0.132264
0.0559404
0.141805
0.00856277
0.149053
-0.0451081
0.153609
-0.0963032
0.155212
-0.135391
0.15419
-0.158206
0.151247
-0.167259
0.147127
-0.168233
0.14256
-0.16559
0.137375
-0.161367
0.130079
-0.158963
0.120232
-0.161384
0.110951
-0.162343
0.107286
-0.144846
0.111574
-0.0954014
0.122068
-0.0222021
0.135112
0.0563677
0.147725
0.118119
0.157529
0.161529
0.162682
0.193934
0.162542
0.230567
0.158287
0.262417
0.15293
0.262221
0.149086
0.207983
0.147841
0.097637
0.149107
-0.0226046
0.151712
-0.133124
0.153493
-0.186173
0.150948
-0.218758
0.144227
-0.229773
0.137413
-0.235355
0.136097
-0.217084
0.140216
-0.113658
0.14587
-0.0279217
0.147954
0.135785
0.14594
0.217828
0.143645
0.296957
0.143242
0.308212
0.145031
0.153267
0.146201
0.116406
0.1447
-0.157526
-0.227366
-0.0177166
-0.0495757
-0.0213377
-0.0494393
-0.0234381
-0.0474505
-0.0238015
-0.0428181
-0.0219888
-0.035535
-0.0176338
-0.0252835
-0.0109047
-0.0117675
-0.0019709
0.0051275
0.00966849
0.0232221
0.022573
0.0431365
0.0362479
0.0630407
0.0500342
0.0819678
0.0636911
0.0985407
0.0773902
0.111157
0.0915077
0.117679
0.106164
0.115573
0.120743
0.102935
0.13397
0.0793942
0.14474
0.0451699
0.152681
0.000621954
0.157843
-0.0502695
0.159952
-0.0984129
0.159005
-0.134443
0.155725
-0.154926
0.151121
-0.162655
0.145885
-0.162996
0.140556
-0.160261
0.135142
-0.155954
0.128262
-0.152083
0.118823
-0.151945
0.109052
-0.152572
0.104121
-0.139915
0.107444
-0.0987239
0.117866
-0.0326241
0.131838
0.0423953
0.145842
0.104114
0.157162
0.15021
0.16385
0.187246
0.16528
0.229136
0.162379
0.265318
0.157745
0.266855
0.153691
0.212036
0.151454
0.0998747
0.151209
-0.0223601
0.152324
-0.134239
0.153311
-0.18716
0.15059
-0.216037
0.143906
-0.223089
0.136986
-0.228436
0.135657
-0.215755
0.139869
-0.11787
0.145761
-0.0338142
0.14814
0.133406
0.146229
0.219738
0.144017
0.299169
0.143736
0.308494
0.14594
0.151063
0.147491
0.114855
0.146044
-0.156078
-0.225493
0.0135742
-0.0432249
0.00731965
-0.0431847
0.00195943
-0.0420903
-0.00156047
-0.0392982
-0.00295937
-0.0341361
-0.00207666
-0.0261662
0.00180976
-0.0156539
0.00926428
-0.00232702
0.0184538
0.0140325
0.0299109
0.0316795
0.043018
0.0499335
0.0571898
0.0677961
0.0720217
0.0837088
0.0873198
0.0958593
0.102948
0.102051
0.118528
0.0999934
0.133173
0.0882906
0.145699
0.0668682
0.155331
0.0355374
0.161865
-0.00591178
0.165162
-0.0535671
0.164992
-0.098243
0.161706
-0.131157
0.156423
-0.149644
0.150396
-0.156628
0.144288
-0.156888
0.138394
-0.154367
0.132815
-0.150375
0.126479
-0.145746
0.117853
-0.14332
0.10808
-0.142799
0.101964
-0.133798
0.1039
-0.100661
0.113797
-0.0425205
0.12828
0.0279122
0.143439
0.0889551
0.156215
0.137435
0.164541
0.178919
0.167715
0.225963
0.166302
0.266731
0.162424
0.270733
0.158165
0.216296
0.154943
0.103096
0.153255
-0.0206717
0.152873
-0.133857
0.153047
-0.187335
0.150198
-0.213187
0.14361
-0.216501
0.136572
-0.221398
0.135149
-0.214331
0.139439
-0.12216
0.145642
-0.0400173
0.148403
0.130646
0.146633
0.221508
0.144494
0.301308
0.14434
0.308648
0.146977
0.148426
0.148939
0.112892
0.147542
-0.154681
-0.223618
0.0523371
-0.0361029
0.0453743
-0.0362219
0.0387595
-0.0354755
0.0329175
-0.0334562
0.0284806
-0.0296993
0.0262169
-0.0239025
0.0265116
-0.0159486
0.0297262
-0.00554153
0.0357767
0.00798195
0.0446409
0.0228153
0.0559433
0.0386311
0.0691461
0.0545932
0.0837088
0.0691461
0.0991211
0.080447
0.114834
0.0863374
0.13012
0.0847076
0.143982
0.0744289
0.155427
0.0554226
0.163899
0.0270657
0.169175
-0.0111874
0.170784
-0.0551765
0.16854
-0.0959986
0.163185
-0.125802
0.156204
-0.142663
0.149015
-0.149439
0.142265
-0.150138
0.136011
-0.148113
0.13032
-0.144684
0.124524
-0.139951
0.116988
-0.135783
0.107756
-0.133568
0.100783
-0.126825
0.101099
-0.100977
0.109926
-0.0513474
0.124429
0.0134093
0.140421
0.0729631
0.15454
0.123316
0.164567
0.168891
0.169641
0.220889
0.169857
0.266516
0.166794
0.273796
0.162327
0.220763
0.158214
0.107209
0.155169
-0.0176258
0.153322
-0.13201
0.15266
-0.186673
0.149723
-0.21025
0.143296
-0.210074
0.13613
-0.214232
0.134523
-0.212725
0.138878
-0.126515
0.145457
-0.0465959
0.148712
0.127391
0.147146
0.223074
0.145083
0.303371
0.145057
0.308674
0.148137
0.145346
0.150538
0.110491
0.149185
-0.153329
-0.221739
0.0897847
-0.029174
0.0829898
-0.0294271
0.076273
-0.0287587
0.0697545
-0.0269376
0.063932
-0.0238768
0.0594194
-0.0193899
0.0567517
-0.0132809
0.056498
-0.00528784
0.0590991
0.00538086
0.064717
0.0171974
0.0732539
0.0300943
0.0843262
0.0435209
0.0973562
0.0561162
0.111628
0.0661752
0.126306
0.071659
0.140442
0.0705717
0.153025
0.0618459
0.163232
0.0452162
0.170574
0.0197237
0.174631
-0.0152449
0.174616
-0.0551618
0.170468
-0.0918504
0.163343
-0.118677
0.155014
-0.134334
0.146945
-0.141369
0.139755
-0.142948
0.13333
-0.141688
0.127596
-0.138951
0.122254
-0.134608
0.115896
-0.129425
0.107694
-0.125366
0.100387
-0.119518
0.099095
-0.0996845
0.106361
-0.0586136
0.120318
-0.000547179
0.136732
0.0565484
0.152017
0.108031
0.163752
0.157156
0.170825
0.213816
0.172791
0.26455
0.170649
0.275938
0.166049
0.225362
0.161132
0.112126
0.156872
-0.0133659
0.153622
-0.12876
0.152102
-0.185153
0.149112
-0.207261
0.142921
-0.203882
0.135624
-0.206935
0.133742
-0.210843
0.138134
-0.130906
0.145151
-0.0536137
0.149031
0.123511
0.147757
0.224348
0.145789
0.305339
0.145889
0.308574
0.149414
0.141821
0.152275
0.107631
0.15096
-0.152014
-0.219858
0.119907
-0.022789
0.113705
-0.0232251
0.107627
-0.0226813
0.101723
-0.0210328
0.096205
-0.0183592
0.0913902
-0.0145751
0.0876817
-0.00957239
0.0856894
-0.00329551
0.0856338
0.0054364
0.088144
0.0146872
0.093523
0.0247153
0.10168
0.0353638
0.112191
0.0456053
0.124329
0.0540376
0.137138
0.05885
0.14955
0.0581597
0.160556
0.0508393
0.169421
0.0363513
0.175557
0.0135878
0.178251
-0.0179384
0.176554
-0.0534653
0.170651
-0.0859471
0.162076
-0.110102
0.152767
-0.125026
0.144108
-0.13271
0.136652
-0.135493
0.130211
-0.135246
0.124533
-0.133273
0.119539
-0.129614
0.114283
-0.124169
0.107443
-0.118525
0.100413
-0.112488
0.0977943
-0.0970662
0.103219
-0.0640386
0.116017
-0.0133448
0.132377
0.0401881
0.148558
0.0918505
0.161931
0.143783
0.1711
0.204647
0.174971
0.260679
0.173844
0.277065
0.169193
0.230012
0.163601
0.117718
0.158281
-0.00804598
0.153717
-0.124195
0.151315
-0.182752
0.148301
-0.204247
0.142439
-0.198021
0.13503
-0.199526
0.132779
-0.208592
0.137158
-0.135285
0.144672
-0.0611281
0.14932
0.118864
0.148452
0.225215
0.146612
0.307179
0.146836
0.30835
0.150804
0.137853
0.154138
0.104298
0.152854
-0.15073
-0.217975
0.139954
-0.0172032
0.134556
-0.0178264
0.12932
-0.0174455
0.124471
-0.0161844
0.120139
-0.0140272
0.116384
-0.01082
0.113326
-0.00651371
0.111261
-0.00123076
0.110479
0.00621781
0.111483
0.0136834
0.114604
0.0215943
0.120077
0.0298914
0.12776
0.0379224
0.137182
0.044615
0.14753
0.0485021
0.157767
0.0479233
0.166898
0.0417076
0.174207
0.0290429
0.178923
0.00887151
0.179958
-0.0189734
0.176462
-0.0499691
0.168983
-0.0784682
0.159311
-0.10043
0.149381
-0.115096
0.140403
-0.123732
0.132831
-0.127921
0.126487
-0.128902
0.120984
-0.12777
0.116277
-0.124907
0.111937
-0.11983
0.106584
-0.113171
0.100392
-0.106296
0.0969607
-0.0936346
0.100495
-0.0675734
0.111651
-0.0245003
0.127413
0.0244259
0.144137
0.0751264
0.158981
0.128939
0.170205
0.193423
0.176065
0.254818
0.176134
0.276996
0.171603
0.234543
0.165532
0.12379
0.15933
-0.00184366
0.153577
-0.118442
0.150267
-0.179442
0.147239
-0.201218
0.141812
-0.192594
0.134342
-0.192056
0.13163
-0.20588
0.135925
-0.13958
0.143956
-0.069159
0.149531
0.113288
0.149205
0.225541
0.147548
0.308836
0.147895
0.308004
0.1523
0.133447
0.156112
0.100486
0.154856
-0.149475
-0.216095
0.149413
-0.0126195
0.144869
-0.0132824
0.140495
-0.0130713
0.136685
-0.0123743
0.133544
-0.0108867
0.131094
-0.00837001
0.129433
-0.00485289
0.128903
-0.00070007
0.129083
0.00603784
0.130113
0.0126525
0.132475
0.0192327
0.1365
0.0258666
0.142197
0.0322255
0.14929
0.0375213
0.157201
0.0405919
0.165118
0.0400057
0.172184
0.0346421
0.177632
0.023595
0.180299
0.00620405
0.179634
-0.0183087
0.174458
-0.0447926
0.165784
-0.0697946
0.155473
-0.0901189
0.145303
-0.104926
0.136262
-0.114691
0.128686
-0.120345
0.12247
-0.122685
0.117195
-0.122496
0.112712
-0.120424
0.109006
-0.116124
0.105016
-0.109181
0.100033
-0.101314
0.0963436
-0.0899448
0.0981411
-0.069371
0.107351
-0.0337104
0.121936
0.00984146
0.13875
0.0583126
0.154883
0.112806
0.168264
0.180042
0.176291
0.246792
0.177583
0.275704
0.173217
0.238909
0.166941
0.130065
0.160041
0.00505594
0.153284
-0.111685
0.149037
-0.175196
0.145966
-0.198146
0.141044
-0.187672
0.133592
-0.184604
0.130355
-0.202643
0.134444
-0.143668
0.142945
-0.0776607
0.14961
0.106624
0.149991
0.225161
0.148588
0.310238
0.14906
0.307532
0.153895
0.128612
0.158179
0.096202
0.156953
-0.148249
-0.214228
0.151068
-0.00949566
0.147428
-0.00964276
0.143998
-0.00964106
0.141012
-0.00938827
0.138613
-0.00848759
0.136957
-0.00671442
0.136107
-0.00400226
0.13586
-0.000453879
0.137117
0.00478097
0.139428
0.0103416
0.142583
0.0160775
0.146581
0.0218688
0.151529
0.0272778
0.157346
0.0317045
0.163653
0.0342848
0.169785
0.0338731
0.175007
0.0294205
0.178551
0.0200507
0.179883
0.00487259
0.17697
-0.0153959
0.170428
-0.0382505
0.161167
-0.0605334
0.150897
-0.079849
0.141018
-0.0950472
0.132259
-0.105932
0.12484
-0.112926
0.11875
-0.116596
0.11368
-0.117426
0.10935
-0.116094
0.105959
-0.112733
0.102991
-0.106213
0.0993216
-0.0976448
0.0958672
-0.0864905
0.0962951
-0.0697989
0.103361
-0.0407766
0.116299
-0.00309646
0.132542
0.0420697
0.149237
0.0961112
0.164355
0.164923
0.174709
0.236438
0.17766
0.272754
0.173854
0.242715
0.167621
0.136298
0.160388
0.0122891
0.15279
-0.104087
0.147693
-0.170099
0.144553
-0.195006
0.140157
-0.183277
0.132795
-0.177242
0.129024
-0.198873
0.132832
-0.147476
0.14167
-0.0864985
0.149513
0.0987804
0.150764
0.22391
0.149712
0.31129
0.150333
0.30691
0.155575
0.123371
0.160323
0.0914543
0.159142
-0.147069
-0.212357
0.183479
-0.00571739
-0.187257
0.180311
-0.00647477
0.177215
-0.00654555
0.174058
-0.00623113
0.170924
-0.00535338
0.167942
-0.00373282
0.165227
-0.00128744
0.162889
0.00188455
0.161499
0.00617062
0.160881
0.0109599
0.16105
0.0159083
0.16219
0.0207286
0.164485
0.0249828
0.168097
0.0280929
0.173088
0.029294
0.179278
0.0276827
0.186246
0.022452
0.193253
0.0130444
0.19912
-0.000995145
0.202567
-0.0188421
0.202763
-0.0384463
0.199805
-0.0575756
0.194421
-0.0744653
0.187496
-0.0881217
0.179785
-0.0982207
0.171814
-0.104955
0.163986
-0.108768
0.156458
-0.109898
0.149084
-0.10872
0.142054
-0.105703
0.135423
-0.0995818
0.128209
-0.0904305
0.120002
-0.0782836
0.113168
-0.0629649
0.111225
-0.0388331
0.115205
-0.00707729
0.122306
0.0349692
0.129764
0.0886534
0.136158
0.158529
0.141484
0.231113
0.146909
0.267328
0.154032
0.235592
0.162218
0.128112
0.166899
0.00760831
0.166767
-0.103954
0.163207
-0.166539
0.158195
-0.189994
0.151291
-0.176373
0.142347
-0.168297
0.135183
-0.191709
0.133456
-0.145749
0.135127
-0.088169
0.136634
0.0972736
0.13517
0.225374
0.134091
0.31237
0.137587
0.303414
0.144318
0.116639
0.149645
0.0861274
0.147908
-0.145332
-0.208461
0.194019
-0.00302873
-0.196708
0.191357
-0.00381257
0.188789
-0.00397781
0.186227
-0.00366888
0.183753
-0.00287997
0.181528
-0.00150798
0.17968
0.000560804
0.178267
0.00329814
0.177631
0.00680601
0.177821
0.0107701
0.178881
0.0148484
0.180879
0.0187301
0.183872
0.0219904
0.187879
0.0240863
0.19282
0.0243529
0.198425
0.0220777
0.204215
0.0166615
0.209543
0.00771698
0.213457
-0.00490952
0.215018
-0.020403
0.213821
-0.0372495
0.210032
-0.0537866
0.204206
-0.0686392
0.197051
-0.0809671
0.189244
-0.090414
0.181256
-0.0969669
0.173408
-0.100919
0.165894
-0.102385
0.158561
-0.101387
0.151437
-0.0985784
0.144814
-0.092959
0.138141
-0.0837575
0.130522
-0.0706644
0.12339
-0.0558329
0.120243
-0.0356867
0.122871
-0.00970517
0.129595
0.0282457
0.137405
0.0808431
0.144777
0.151157
0.151371
0.224519
0.158241
0.260457
0.166593
0.22724
0.175403
0.119303
0.180472
0.00253866
0.179607
-0.103089
0.174964
-0.161897
0.169036
-0.184065
0.16168
-0.169017
0.152201
-0.158819
0.144362
-0.18387
0.142012
-0.143399
0.143718
-0.0898746
0.145773
0.0952182
0.14472
0.226426
0.143961
0.313129
0.147877
0.299499
0.15516
0.109356
0.160917
0.080371
0.158697
-0.143112
-0.204083
0.204741
-0.000850983
-0.206919
0.202448