/*--------------------------------*- C++ -*----------------------------------*\
| =========                 |                                                 |
| \\      /  F ield         | OpenFOAM: The Open Source CFD Toolbox           |
|  \\    /   O peration     | Version:  2512                                  |
|   \\  /    A nd           | Website:  www.openfoam.com                      |
|    \\/     M anipulation  |                                                 |
\*---------------------------------------------------------------------------*/
FoamFile
{
    version     2.0;
    format      ascii;
    arch        "LSB;label=32;scalar=64";
    class       surfaceScalarField;
    location    "40.5";
    object      phi;
}
// * * * * * * * * * * * * * * * * * * * * * * * * * * * * * * * * * * * * * //

dimensions      [0 3 -1 0 0 0 0];

oriented        oriented;

internalField   nonuniform List<scalar> 
26232
(
5.88965e-05
0.000964902
-0.0010238
0.000380404
0.00191236
-0.00223387
0.0010972
0.0020197
-0.0027365
0.00233734
0.00133925
-0.00257939
0.0042306
-9.55322e-05
-0.00179773
0.00691007
-0.00226577
-0.000413699
0.010507
-0.00515886
0.00156198
0.0151429
-0.00876245
0.00412651
0.0209175
-0.0130535
0.00727892
0.0278942
-0.0179898
0.0110131
0.0360869
-0.0235041
0.0153114
0.0454498
-0.0295023
0.0201394
0.0558729
-0.0358656
0.0254426
0.0671839
-0.0424574
0.0311463
0.0791581
-0.0491318
0.0371576
0.0915326
-0.0557444
0.0433699
0.104026
-0.0621627
0.0496689
0.116362
-0.0682756
0.0559403
0.128285
-0.0739973
0.0620742
0.139587
-0.0792857
0.0679832
0.150104
-0.0840964
0.0735799
0.159751
-0.0885186
0.0788716
0.168398
-0.0923775
0.0837298
-0.0961988
0.0888129
0.175784
9.50158e-05
0.000869886
0.000558152
0.00144922
0.00155267
0.00102519
0.00323445
-0.000342534
0.00575764
-0.00261872
0.0092696
-0.00577774
0.0139013
-0.00979057
0.0197505
-0.0146116
0.0268639
-0.0201669
0.0352211
-0.026347
0.0447249
-0.033008
0.0552009
-0.0399783
0.0664069
-0.0470716
0.0780517
-0.0541022
0.0898209
-0.060901
0.101405
-0.0673286
0.112528
-0.0732852
0.122968
-0.0787158
0.13258
-0.08361
0.141296
-0.0880009
0.149141
-0.0919415
0.156178
-0.0955554
0.162602
-0.0988021
-0.102177
0.16858
0.000148989
0.000720897
0.00080104
0.000797171
0.00214777
-0.000321543
0.00436918
-0.00256395
0.00763337
-0.00588291
0.0120837
-0.0102281
0.0178189
-0.0155257
0.0248699
-0.0216626
0.0331815
-0.0284785
0.0426037
-0.0357692
0.0528971
-0.0433014
0.063753
-0.0508343
0.0748246
-0.0581431
0.0857637
-0.0650413
0.0962577
-0.0713949
0.10606
-0.0771312
0.115013
-0.0822379
0.123054
-0.0867565
0.130212
-0.0907688
0.136594
-0.094383
0.142362
-0.0977093
0.147682
-0.100875
0.152775
-0.103895
-0.107118
0.157715
0.000223688
0.000497209
0.00111654
-9.56802e-05
0.00289138
-0.00209638
0.00574078
-0.00541335
0.00982628
-0.0099684
0.0152539
-0.0156557
0.0220457
-0.0223175
0.0301173
-0.0297343
0.0392705
-0.0376316
0.049206
-0.0457047
0.0595564
-0.0536519
0.0699312
-0.061209
0.0799653
-0.0681773
0.0893624
-0.0744383
0.097924
-0.0799565
0.105563
-0.0847699
0.112297
-0.0889723
0.118232
-0.092691
0.123527
-0.096064
0.128365
-0.0992215
0.132926
-0.102269
0.137351
-0.105301
0.141781
-0.108324
-0.111566
0.146229
0.00031951
0.000177698
0.00150256
-0.00127873
0.00377003
-0.00436384
0.00730636
-0.00894969
0.0122338
-0.0148959
0.0185771
-0.021999
0.0262342
-0.0299746
0.0349681
-0.0384682
0.0444279
-0.0470914
0.0541943
-0.0554712
0.0638414
-0.0632989
0.0729962
-0.0703638
0.0813857
-0.0765668
0.0888612
-0.0819138
0.095399
-0.0864943
0.10108
-0.0904508
0.106055
-0.0939473
0.110506
-0.0971425
0.114614
-0.100172
0.118531
-0.103138
0.122374
-0.106112
0.126217
-0.109144
0.130124
-0.112232
-0.115521
0.134079
0.000434781
-0.000257083
0.00194843
-0.00279238
0.00474955
-0.00716496
0.00898389
-0.013184
0.0146924
-0.0206044
0.021772
-0.0290786
0.029962
-0.0381646
0.0388691
-0.0473753
0.0480279
-0.0562502
0.0569786
-0.0644219
0.0653398
-0.0716601
0.0728578
-0.0778819
0.0794245
-0.0831335
0.0850645
-0.0875538
0.0898999
-0.0913298
0.0941064
-0.0946573
0.0978704
-0.0977113
0.101358
-0.100631
0.104702
-0.103515
0.107992
-0.106429
0.111291
-0.109411
0.11463
-0.112483
0.118043
-0.115646
-0.118977
0.1215
0.000566075
-0.000823158
0.00243568
-0.00466198
0.00577724
-0.0105065
0.0106591
-0.0180659
0.0169965
-0.0269418
0.0245242
-0.0366063
0.0328198
-0.0464601
0.0413751
-0.0559306
0.0496926
-0.0645677
0.0573728
-0.0721021
0.0641682
-0.0784556
0.0699952
-0.0837088
0.0749089
-0.0880472
0.0790564
-0.0917013
0.0826249
-0.0948983
0.0857987
-0.0978311
0.0887327
-0.100645
0.091542
-0.10344
0.0943047
-0.106277
0.0970696
-0.109194
0.0998659
-0.112207
0.102709
-0.115327
0.105614
-0.118551
-0.121918
0.108555
0.000708232
-0.00153139
0.00293868
-0.00689243
0.00678526
-0.0143531
0.0121973
-0.023478
0.0189287
-0.0336731
0.0265455
-0.0442231
0.0345019
-0.0544165
0.0422543
-0.063683
0.0493685
-0.0716819
0.0555832
-0.0783168
0.0608196
-0.083692
0.0651468
-0.0880361
0.0687252
-0.0916256
0.071748
-0.0947241
0.0743979
-0.0975481
0.0768223
-0.100256
0.0791276
-0.10295
0.0813831
-0.105696
0.0836316
-0.108526
0.0858976
-0.11146
0.0881951
-0.114504
0.0905308
-0.117662
0.0929115
-0.120932
-0.124322
0.0953159
0.00085412
-0.00238551
0.00342558
-0.00946388
0.00769633
-0.0186239
0.0134604
-0.029242
0.0202966
-0.0405093
0.0276318
-0.0515583
0.0348687
-0.0616534
0.0415176
-0.0703319
0.0472782
-0.0774425
0.0520538
-0.0830925
0.0559115
-0.0875496
0.0590159
-0.0911405
0.0615648
-0.0941745
0.0637419
-0.0969013
0.0656929
-0.0994991
0.06752
-0.102083
0.0692886
-0.104719
0.0710375
-0.107444
0.0727888
-0.110277
0.0745549
-0.113226
0.0763425
-0.116292
0.0781548
-0.119475
0.0799935
-0.122771
-0.126174
0.0818448
0.000994677
-0.00338019
0.0038605
-0.0123297
0.00843247
-0.0231958
0.0143279
-0.0351375
0.0209669
-0.0471483
0.0276971
-0.0582886
0.0339527
-0.067909
0.0393652
-0.0757444
0.0437933
-0.0818706
0.0472835
-0.0865827
0.0499965
-0.0902625
0.0521332
-0.0932772
0.0538819
-0.0959232
0.0553911
-0.0984105
0.056764
-0.100872
0.0580653
-0.103384
0.0593324
-0.105986
0.0605863
-0.108698
0.0618387
-0.11153
0.0630962
-0.114483
0.064362
-0.117558
0.0656376
-0.12075
0.0669221
-0.124055
-0.127459
0.0682076
0.00112007
-0.00450026
0.00420855
-0.0154182
0.00892701
-0.0279143
0.0147169
-0.0409274
0.0208842
-0.0533155
0.0267725
-0.0641769
0.0319145
-0.073051
0.0360927
-0.0799225
0.0393094
-0.0850873
0.0417087
-0.088982
0.043492
-0.0920459
0.0448549
-0.0946401
0.0459536
-0.0970218
0.0468965
-0.0993534
0.047751
-0.101727
0.0485558
-0.104189
0.0493318
-0.106762
0.0500903
-0.109457
0.0508381
-0.112277
0.0515788
-0.115224
0.0523144
-0.118293
0.0530449
-0.121481
0.0537675
-0.124778
-0.12817
0.0544782
0.00122343
-0.00572369
0.00444343
-0.0186382
0.00913578
-0.0326067
0.0145928
-0.0463844
0.0200706
-0.0587934
0.0249778
-0.069084
0.0289832
-0.0770564
0.0320136
-0.082953
0.0341774
-0.087251
0.0356685
-0.0904732
0.0366905
-0.0930678
0.0374111
-0.0953607
0.0379491
-0.0975599
0.0383786
-0.0997828
0.0387413
-0.102089
0.0390595
-0.104507
0.0393448
-0.107047
0.0396038
-0.109716
0.0398407
-0.112514
0.0400582
-0.115441
0.0402575
-0.118493
0.0404384
-0.121662
0.0405978
-0.124937
0.040735
-0.128307
-0.000204674
0.000313733
-0.000109059
-0.000714885
0.00070447
-0.000194259
-0.00146542
0.000935269
-0.00018473
-0.00240647
0.00104794
-0.000106898
-0.00349913
0.00107487
1.77861e-05
-0.00471341
0.00104027
0.000174011
-0.00602644
0.000960667
0.000352365
-0.0074209
0.000845703
0.000548755
-0.0088836
0.000699414
0.000763291
-0.0104043
0.000521696
0.000998981
-0.0119745
0.000309708
0.00126046
-0.0135864
5.89715e-05
0.00155294
-0.0152327
-0.000234959
0.00188134
-0.0169054
-0.000577305
0.00224999
-0.0185956
-0.000971897
0.00266206
-0.0202936
-0.00142146
0.00311943
-0.0219896
-0.00192648
0.00362248
-0.0236743
-0.00248507
0.00416982
-0.025341
-0.00309144
0.00475816
-0.026988
-0.00373527
0.00538223
-0.0286213
-0.00440166
0.00603497
-0.0302581
-0.00507076
0.00670756
-0.0319331
-0.00571452
0.00738948
-0.00630101
-0.0337027
0.00807061
-0.000196986
0.000510719
-0.000690382
0.00119787
-0.00141818
0.00166306
-0.0023321
0.00196186
-0.00339387
0.00213665
-0.00457354
0.00221994
-0.005848
0.00223513
-0.00719964
0.00219734
-0.00861506
0.00211484
-0.0100839
0.00199055
-0.0115978
0.0018236
-0.0131494
0.00161058
-0.0147311
0.00134674
-0.0163351
0.00102664
-0.0179521
0.00064512
-0.0195708
0.000197309
-0.0211802
-0.000317157
-0.0227661
-0.000899173
-0.0243157
-0.00154181
-0.0258188
-0.0022321
-0.027272
-0.00294847
-0.0286828
-0.00366002
-0.0300772
-0.00432006
-0.00485943
-0.0315188
-0.000178259
0.000688978
-0.000628658
0.00164827
-0.00129566
0.00233006
-0.00213423
0.00280043
-0.00310739
0.00310981
-0.0041852
0.00329775
-0.00534376
0.00339368
-0.0065642
0.00341778
-0.00783164
0.00338228
-0.00913419
0.0032931
-0.0104619
0.0031513
-0.0118058
0.0029545
-0.0131571
0.00269798
-0.0145061
0.00237564
-0.0158417
0.00198073
-0.0171511
0.00150675
-0.018417
0.000948729
-0.0196195
0.000303379
-0.0207369
-0.000424498
-0.021744
-0.00122496
-0.0226184
-0.00207412
-0.0233462
-0.00293213
-0.0239292
-0.00373708
-0.00435735
-0.0244313
-0.000150539
0.000839517
-0.00053578
0.00203351
-0.00110877
0.00290305
-0.00182873
0.00352039
-0.00266027
0.00394135
-0.00357316
0.00421064
-0.00454196
0.00436248
-0.00554534
0.00442116
-0.0065654
0.00440234
-0.00758675
0.00431445
-0.0085957
0.00416025
-0.00957941
0.0039382
-0.010525
0.00364361
-0.011419
0.00326957
-0.012246
0.0028078
-0.0129887
0.00224941
-0.0136257
0.00158569
-0.0141317
0.000809371
-0.0144723
-8.38466e-05
-0.0146125
-0.00108477
-0.0145057
-0.00218087
-0.014112
-0.0033259
-0.0134059
-0.00444315
-0.00542049
-0.0123428
-0.000117078
0.000956595
-0.000421532
0.00233796
-0.000875359
0.00335688
-0.001442
0.00408703
-0.00208734
0.00458669
-0.0027803
0.00490359
-0.00349285
0.00507504
-0.00419985
0.00512816
-0.00487842
0.00508092
-0.0055074
0.00494342
-0.00606653
0.00471939
-0.00653579
0.00440746
-0.00689466
0.00400248
-0.00712153
0.00349644
-0.00719306
0.00287933
-0.00708359
0.00213995
-0.00676468
0.00126678
-0.00620196
0.000246654
-0.00536241
-0.000923398
-0.00419506
-0.00225212
-0.00264334
-0.00373259
-0.000630904
-0.00533834
0.00192125
-0.0069953
-0.00843665
0.0049374
-8.18032e-05
0.0010384
-0.00029783
0.00255399
-0.000617338
0.00367639
-0.00100677
0.00447647
-0.00143229
0.00501221
-0.00186085
0.00533215
-0.00226064
0.00547482
-0.00260098
0.0054685
-0.00285201
0.00533194
-0.00298408
0.0050755
-0.00296717
0.00470248
-0.00277024
0.00421053
-0.00236063
0.00359288
-0.0017037
0.00283951
-0.000762531
0.00193816
0.000502213
0.000875202
0.0021324
-0.000363411
0.00416894
-0.00178989
0.00666079
-0.00341525
0.00965559
-0.00524692
0.0132088
-0.00728578
0.0173868
-0.00951631
0.0222461
-0.0118546
-0.0143035
0.0281129
-4.86295e-05
0.00108703
-0.000176609
0.00268197
-0.000356774
0.00385655
-0.000556136
0.00467583
-0.00073928
0.00519535
-0.000869607
0.00546248
-0.000909785
0.005515
-0.00082168
0.0053804
-0.000566018
0.00507628
-0.00010188
0.00461136
0.000613843
0.00398675
0.00162694
0.00319743
0.00298618
0.00223363
0.00474344
0.00108225
0.00695341
-0.000271808
0.00967271
-0.0018441
0.0129588
-0.0036495
0.016869
-0.00570013
0.0214581
-0.00800429
0.0267756
-0.0105644
0.0328626
-0.0133728
0.0397833
-0.0164369
0.0475024
-0.0195738
-0.0233189
0.0565178
-2.06642e-05
0.00110769
-6.73307e-05
0.00272863
-0.000111031
0.00390025
-0.000115863
0.00468066
-4.21134e-05
0.0051216
0.000152741
0.00526762
0.000513957
0.00515378
0.00108971
0.00480464
0.00193153
0.00423447
0.00309466
0.00344822
0.00463843
0.00244298
0.00662627
0.0012096
0.00912528
-0.000265385
0.0122055
-0.00199801
0.0159385
-0.00400477
0.0203952
-0.00630076
0.0256432
-0.00889753
0.0317441
-0.011801
0.0387492
-0.0150094
0.0466982
-0.0185135
0.0556018
-0.0222764
0.0655096
-0.0263447
0.0762356
-0.0302997
-0.0354571
0.0883738
3.2182e-07
0.00110737
2.55373e-05
0.00270342
0.000112126
0.00381367
0.000303555
0.00448924
0.000647485
0.00477767
0.00119575
0.00471935
0.00200484
0.0043447
0.00313635
0.00367313
0.00465739
0.00271342
0.00664057
0.00146504
0.00916331
-7.97644e-05
0.0123072
-0.00193425
0.0161552
-0.00411346
0.0207899
-0.00663265
0.0262891
-0.00950396
0.0327223
-0.012734
0.040146
-0.0163213
0.0485997
-0.0202546
0.0581009
-0.0245107
0.0686452
-0.0290578
0.0801909
-0.033822
0.0927243
-0.0388782
0.106006
-0.0435815
-0.0499164
0.120465
1.54086e-05
0.00109196
0.000104411
0.00261441
0.00031864
0.00359944
0.000713812
0.00409406
0.00134999
0.00414149
0.00229268
0.00377667
0.00361381
0.00302357
0.00539225
0.00189469
0.00771347
0.000392204
0.0106683
-0.00148983
0.0143506
-0.00376205
0.0188531
-0.00643667
0.0242631
-0.00952348
0.0306568
-0.0130264
0.0380933
-0.0169404
0.0466083
-0.021249
0.0562099
-0.0259229
0.0668746
-0.0309193
0.0785463
-0.0361824
0.0911355
-0.041647
0.104528
-0.0472149
0.118577
-0.0529269
0.133124
-0.058128
-0.0648222
0.148029
2.71343e-05
0.00106483
0.000179717
0.00246183
0.000529974
0.00324918
0.00115134
0.00347269
0.00212142
0.00317142
0.00352419
0.0023739
0.00545105
0.00109671
0.00800034
-0.0006546
0.0112754
-0.00288282
0.0153796
-0.00559407
0.0204113
-0.00879372
0.0264556
-0.012481
0.0335767
-0.0166446
0.0418098
-0.0212594
0.0511538
-0.0262845
0.0615677
-0.0316629
0.0729679
-0.0373231
0.0852307
-0.043182
0.098197
-0.0491488
0.111682
-0.0551319
0.125499
-0.0610322
0.139405
-0.0668326
0.153395
-0.0721183
-0.0781625
0.166736
4.10284e-05
0.000268994
0.000781674
0.00167498
0.00304867
0.00500887
0.00766756
0.0111395
0.0155356
0.0209546
0.0274723
0.0351307
0.0439287
0.0538156
0.0646887
0.0763957
0.0887415
0.1015
0.114425
0.127277
0.139824
0.151863
0.163475
0.174125
-0.0345705
-0.0110504
0.0119182
-0.0354084
-0.0121563
0.0129942
-0.0362015
-0.0131231
0.0139162
-0.0369641
-0.0138375
0.0146001
-0.0377033
-0.014211
0.0149502
-0.0384215
-0.0141383
0.0148564
-0.03912
-0.0134963
0.0141948
-0.0397953
-0.0121587
0.012834
-0.0404381
-0.00999556
0.0106384
-0.0410304
-0.00688284
0.00747507
-0.0415371
-0.00270397
0.00321074
-0.0419927
0.00259985
-0.00214428
-0.0423551
0.00904498
-0.00868257
-0.042584
0.0165721
-0.0163433
-0.0426449
0.0250327
-0.0249719
-0.0424956
0.0341608
-0.0343101
-0.0420732
0.0435486
-0.043971
-0.0412785
0.0526346
-0.0534294
-0.0399612
0.0606962
-0.0620134
-0.0379113
0.066835
-0.0688849
-0.0348758
0.0700142
-0.0730498
-0.0305664
0.0691334
-0.0734428
-0.0247947
0.0632938
-0.0690655
-0.017579
0.0519654
-0.0591811
-0.0088303
0.0347199
-0.0434685
0.00102555
0.0127971
-0.0226529
0.0113682
-0.0121715
0.00182882
0.0218128
-0.0382359
0.0277913
0.0315452
-0.0623371
0.0526047
0.039723
-0.081713
0.0735353
0.0456985
-0.0947412
0.0887657
0.0491548
-0.101323
0.0978669
0.050614
-0.10221
0.100751
0.0515832
-0.0978711
0.096902
0.0540369
-0.0880947
0.085641
0.0593972
-0.0722073
0.066847
0.0677827
-0.0509554
0.0425699
0.0781093
-0.0265945
0.016268
0.0888423
-0.00267698
-0.00805606
0.0986888
0.0180162
-0.0278628
0.106869
0.0334133
-0.0415938
0.113152
0.0433869
-0.0496693
0.117777
0.0478738
-0.0524991
0.121278
0.0479369
-0.0514376
0.124336
0.043687
-0.046745
0.127472
0.0363871
-0.0395237
0.130981
0.0263465
-0.0298555
0.134751
0.0155202
-0.0192896
0.138578
0.00455246
-0.00837984
0.142086
-0.00459314
0.00108576
0.14518
-0.0118211
0.00872653
0.147721
-0.0160797
0.0135387
0.149942
-0.0178655
0.0156447
0.151893
-0.0168826
0.0149319
0.153838
-0.0136579
0.0117129
0.155736
-0.00869284
0.00679503
0.15767
-0.00264755
0.000713433
0.159441
0.00372166
-0.00549334
0.161168
0.00892608
-0.0106528
0.0152862
-0.0165935
-0.0324817
-0.0100876
-0.0334189
-0.011219
-0.0342935
-0.0122485
-0.0351218
-0.0130092
-0.0359107
-0.0134221
-0.0366557
-0.0133933
-0.0373567
-0.0127953
-0.0380064
-0.0115091
-0.0385899
-0.00941199
-0.0390772
-0.00639556
-0.0394136
-0.00236755
-0.0396431
0.00282934
-0.0396866
0.00908848
-0.0394712
0.0163567
-0.0389281
0.0244897
-0.0379842
0.0332169
-0.0365462
0.0421106
-0.0344885
0.0505769
-0.0316521
0.0578598
-0.0278579
0.0630408
-0.022955
0.0651113
-0.0167967
0.0629751
-0.0093164
0.0558135
-0.000581914
0.0432309
0.00862852
0.0255094
0.0186856
0.00274001
0.0289942
-0.0224801
0.0392067
-0.0484484
0.0486622
-0.0717926
0.0566214
-0.0896722
0.0624143
-0.100534
0.0655433
-0.104452
0.0660486
-0.102715
0.0648719
-0.0966944
0.0638313
-0.0870542
0.0648797
-0.0732557
0.0690463
-0.0551221
0.0759995
-0.0335477
0.0844974
-0.0111749
0.0931465
0.00936713
0.100969
0.0255908
0.10753
0.0368263
0.112938
0.0424658
0.117616
0.043258
0.122101
0.0392022
0.126708
0.0317805
0.13152
0.0215343
0.13627
0.0107703
0.140701
0.000121344
0.144452
-0.00834424
0.147498
-0.0148675
0.149762
-0.0183434
0.151553
-0.0196568
0.152979
-0.0183079
0.154387
-0.0150666
0.155794
-0.0100992
0.157344
-0.00419788
0.158862
0.00220415
0.160448
0.00733982
0.0139799
-0.0254197
-0.00909913
-0.0264073
-0.0102314
-0.0273103
-0.0113456
-0.0281402
-0.0121793
-0.0289043
-0.012658
-0.0295836
-0.012714
-0.0301749
-0.012204
-0.030667
-0.0110169
-0.0310415
-0.00903746
-0.031268
-0.00616909
-0.0312742
-0.00236137
-0.0310946
0.00264974
-0.0306563
0.00865017
-0.0298429
0.0155433
-0.0285558
0.0232026
-0.0267091
0.0313702
-0.0242069
0.0396084
-0.0209385
0.0473085
-0.0167764
0.0536977
-0.0115757
0.0578401
-0.0052546
0.0587901
0.00202738
0.0556931
0.0100761
0.0477647
0.0188235
0.0344836
0.0282351
0.0160978
0.037755
-0.00677987
0.047481
-0.0322061
0.0569595
-0.0579269
0.0656881
-0.0805212
0.0730511
-0.0970352
0.0785103
-0.105993
0.0816424
-0.107584
0.0822382
-0.103311
0.0805813
-0.0950375
0.0778022
-0.0842751
0.0757314
-0.0711848
0.0760126
-0.0554033
0.0792329
-0.0367681
0.084823
-0.016765
0.0916019
0.00258828
0.0985693
0.0186234
0.105118
0.030278
0.111165
0.0364186
0.116919
0.0375042
0.122667
0.0334539
0.128474
0.0259737
0.134229
0.0157792
0.13957
0.00542911
0.144249
-0.00455756
0.147968
-0.012063
0.150783
-0.0176824
0.152674
-0.0202347
0.153996
-0.0209787
0.154885
-0.0191967
0.155738
-0.0159198
0.156618
-0.0109795
0.157724
-0.00530324
0.158919
0.00100848
0.160287
0.00597207
0.0127305
-0.0133915
-0.00805038
-0.0144614
-0.00916157
-0.0154518
-0.0103552
-0.0163299
-0.0113012
-0.0171312
-0.0118567
-0.0177854
-0.0120598
-0.0182873
-0.0117021
-0.0186168
-0.0106874
-0.0187516
-0.00890262
-0.0186645
-0.00625618
-0.0183127
-0.00271315
-0.017619
0.00195602
-0.016626
0.00765717
-0.0151877
0.014105
-0.0131633
0.0211782
-0.010476
0.028683
-0.00703918
0.0361716
-0.00277465
0.043044
0.00237911
0.048544
0.00839496
0.0518243
0.0152519
0.0519332
0.0228555
0.0480895
0.0310764
0.0395438
0.0396221
0.025938
0.0484041
0.00731577
0.0571099
-0.0154857
0.0658274
-0.0409236
0.0742327
-0.0663321
0.0818674
-0.0881559
0.0882218
-0.10339
0.0929453
-0.110717
0.0958538
-0.110493
0.0968084
-0.104266
0.0957359
-0.093965
0.0929877
-0.0815269
0.0896996
-0.0678968
0.0874792
-0.0531829
0.0875595
-0.0368484
0.0902071
-0.0194126
0.0947729
-0.00197747
0.100471
0.0129257
0.106625
0.0241241
0.112956
0.0300874
0.119403
0.0310573
0.125965
0.0268916
0.132464
0.0194749
0.13864
0.00960282
0.144108
-3.9088e-05
0.14866
-0.0091095
0.152095
-0.0154979
0.15454
-0.0201271
0.156021
-0.0217157
0.156899
-0.021857
0.157315
-0.0196122
0.157672
-0.0162769
0.158067
-0.0113743
0.158731
-0.00596742
0.159585
0.000153897
0.160691
0.0048664
0.0115796
0.00386255
-0.00697552
0.00250791
-0.00780693
0.001185
-0.00903225
-2.74849e-05
-0.0100887
-0.00100253
-0.0108817
-0.0018336
-0.0112287
-0.0024484
-0.0110873
-0.00281501
-0.0103208
-0.00289985
-0.00881778
-0.00266414
-0.00649189
-0.00208137
-0.00329592
-0.00106372
0.000938373
0.000433067
0.00616038
0.00261404
0.011924
0.00540819
0.0183841
0.00886405
0.0252271
0.0130196
0.0320161
0.0178962
0.0381673
0.0235158
0.0429244
0.0298912
0.0454489
0.0369202
0.0449042
0.0444538
0.0405559
0.0523036
0.031694
0.0602528
0.0179888
0.0681105
-0.000541955
0.0758247
-0.0231999
0.0833701
-0.048469
0.0904825
-0.0734446
0.0967383
-0.0944116
0.101749
-0.1084
0.105365
-0.114333
0.107654
-0.112782
0.108695
-0.105307
0.108406
-0.0936768
0.106684
-0.0798042
0.103865
-0.0650779
0.10097
-0.0502882
0.0992938
-0.0351719
0.0996929
-0.0198117
0.102234
-0.00451903
0.10647
0.00869051
0.111872
0.0187213
0.118024
0.0239361
0.124619
0.0244615
0.131397
0.0201137
0.137985
0.0128876
0.144041
0.00354608
0.149196
-0.00519379
0.153308
-0.013222
0.156274
-0.0184636
0.158272
-0.022125
0.159358
-0.0228015
0.159869
-0.0223686
0.159928
-0.0196711
0.159909
-0.0162575
0.159923
-0.0113885
0.160212
-0.00625678
0.160759
-0.000392811
0.161603
0.00402273
0.0105452
0.0265252
-0.00538782
0.0248876
-0.00616932
0.0232621
-0.00740675
0.0217367
-0.00856328
0.0203022
-0.0094472
0.0190478
-0.00997437
0.0180352
-0.0100747
0.0173334
-0.00961909
0.0170031
-0.00848748
0.0170932
-0.00658197
0.0176286
-0.00383129
0.0188553
-0.000288332
0.0205026
0.00451304
0.0227755
0.00965112
0.0257604
0.0153992
0.0294665
0.021521
0.0339019
0.0275807
0.0390585
0.0330107
0.0448895
0.0370934
0.0513094
0.039029
0.0581824
0.0380312
0.0653453
0.0333929
0.0726003
0.024439
0.0797635
0.0108256
0.0866807
-0.00745921
0.0933142
-0.0298334
0.099586
-0.0547408
0.105224
-0.0790823
0.109864
-0.0990515
0.113286
-0.111823
0.115562
-0.116608
0.116956
-0.114176
0.117728
-0.106079
0.117933
-0.0938814
0.117372
-0.0792433
0.11588
-0.0635858
0.113769
-0.0481776
0.111905
-0.0333079
0.111265
-0.0191717
0.112421
-0.00567514
0.115367
0.00574534
0.119834
0.0142539
0.125397
0.0183726
0.131608
0.018251
0.138024
0.0136976
0.144155
0.00675667
0.149648
-0.00194713
0.154156
-0.00970188
0.157626
-0.0166919
0.160027
-0.0208643
0.161566
-0.0236639
0.162313
-0.0235486
0.162563
-0.0226182
0.162407
-0.0195156
0.162163
-0.0160137
0.161942
-0.0111671
0.16197
-0.00628522
0.162289
-0.00071136
0.162914
0.00339744
0.00961679
0.054294
-0.0031641
0.0521064
-0.00398167
0.0499512
-0.00525157
0.0478433
-0.00645536
0.0458067
-0.00741064
0.0439171
-0.00808475
0.0422488
-0.00840633
0.0408817
-0.00825197
0.0398991
-0.00750486
0.0393834
-0.00606628
0.0394168
-0.00386475
0.0400633
-0.000934761
0.0413905
0.00318584
0.0434405
0.00760107
0.0462847
0.0125549
0.0499277
0.017878
0.0543479
0.0231605
0.0594929
0.0278658
0.0652647
0.0313216
0.0715173
0.0327764
0.0780708
0.0314776
0.0847392
0.0267246
0.0913374
0.0178408
0.0976923
0.00447068
0.103679
-0.0134454
0.10918
-0.0353353
0.114063
-0.0596238
0.11804
-0.0830593
0.120867
-0.101878
0.122552
-0.113508
0.123392
-0.117448
0.1238
-0.114584
0.124114
-0.106393
0.124478
-0.0942458
0.124764
-0.0795293
0.124652
-0.0634742
0.12398
-0.0475048
0.123052
-0.0323809
0.122564
-0.0186833
0.123224
-0.00633531
0.125348
0.00362179
0.128949
0.0106525
0.13371
0.0136121
0.139163
0.0127972
0.144799
0.00806248
0.15011
0.00144576
0.154746
-0.00658329
0.158436
-0.0133926
0.161184
-0.01944
0.163015
-0.0226947
0.164139
-0.0247878
0.16463
-0.0240398
0.16473
-0.0227183
0.164501
-0.0192866
0.164189
-0.0157012
0.163889
-0.0108678
0.163797
-0.00619304
0.163997
-0.000910657
0.164484
0.00291022
0.00875612
0.0854307
-0.000220939
0.082664
-0.00121502
0.0799377
-0.0025253
0.0771875
-0.00370512
0.0744618
-0.00468497
0.0718524
-0.00547528
0.0694283
-0.00598222
0.0672593
-0.00608304
0.0654337
-0.00567926
0.0640481
-0.0046807
0.0631838
-0.0030004
0.06295
-0.000700955
0.0634551
0.00268077
0.0647692
0.00628696
0.066971
0.0103532
0.0700716
0.0147774
0.074034
0.0191981
0.078772
0.0231278
0.0841492
0.0259444
0.0899825
0.0269431
0.0960529
0.0254072
0.102133
0.0206443
0.108002
0.0119715
0.11366
-0.00118639
0.118708
-0.0184937
0.12307
-0.0396979
0.126462
-0.0630152
0.128607
-0.0852045
0.129482
-0.102753
0.12939
-0.113416
0.128824
-0.116882
0.128279
-0.11404
0.128095
-0.106208
0.128421
-0.0945714
0.129194
-0.0803028
0.130129
-0.0644087
0.130874
-0.04825
0.131318
-0.0328248
0.131749
-0.0191146
0.132693
-0.00727915
0.134569
0.00174557
0.137584
0.00763754
0.141561
0.00963511
0.14612
0.0082381
0.150784
0.00339864
0.15513
-0.00290064
0.158808
-0.0102605
0.16166
-0.0162446
0.163721
-0.0215015
0.165051
-0.0240242
0.165845
-0.0255821
0.166176
-0.0243711
0.166233
-0.0227747
0.166052
-0.0191061
0.165809
-0.0154576
0.165578
-0.010637
0.165508
-0.00612326
0.165709
-0.00111119
0.166161
0.00245819
0.00790312
0.116799
0.00344536
0.113295
0.00228894
0.110007
0.000762887
0.106805
-0.000502844
0.103571
-0.0014508
0.100414
-0.00231912
0.0973831
-0.00295099
0.0945321
-0.00323201
0.0919527
-0.00309989
0.089761
-0.00248897
0.0880695
-0.00130894
0.086827
0.00054157
0.0863595
0.00314828
0.0866794
0.00596708
0.0878981
0.00913442
0.0900571
0.0126184
0.093141
0.0161142
0.0970654
0.0192034
0.101683
0.0213266
0.106797
0.0218296
0.112164
0.0200395
0.117526
0.0152831
0.122589
0.00690789
0.127374
-0.00597161
0.131432
-0.0225513
0.134537
-0.0428023
0.136325
-0.064804
0.13659
-0.0854696
0.135532
-0.101695
0.13376
-0.111643
0.13194
-0.115063
0.130575
-0.112675
0.129947
-0.10558
0.130157
-0.0947818
0.131163
-0.081309
0.13275
-0.0659958
0.134566
-0.0500661
0.136296
-0.0345546
0.137891
-0.0207092
0.139594
-0.00898296
0.14168
-0.00033996
0.144458
0.00485942
0.147845
0.00624783
0.151582
0.00450182
0.155333
-0.000353009
0.158722
-0.00628938
0.161521
-0.0130597
0.163636
-0.0183593
0.16513
-0.0229958
0.166079
-0.0249727
0.166654
-0.0261571
0.166923
-0.0246405
0.167028
-0.0228793
0.166991
-0.0190695
0.166924
-0.0153907
0.166881
-0.0105936
0.16696
-0.00620297
0.167278
-0.00142903
0.167805
0.00193192
0.00698442
0.144222
0.00725315
0.140557
0.0059536
0.136729
0.00459108
0.132875
0.00335087
0.129243
0.00218098
0.125756
0.00116793
0.122454
0.000351496
0.119353
-0.00013087
0.116474
-0.000221308
0.113875
0.000109592
0.111515
0.00105157
0.109645
0.00241127
0.108477
0.00431667
0.107993
0.00645112
0.108302
0.00882561
0.109462
0.0114577
0.111502
0.0140745
0.114375
0.0163305
0.117963
0.0177388
0.122085
0.0177073
0.126497
0.0156276
0.130976
0.010804
0.135121
0.00276288
0.13882
-0.0096702
0.141665
-0.0253962
0.143277
-0.0444151
0.143292
-0.0648191
0.141666
-0.0838431
0.138852
-0.0988804
0.135657
-0.108449
0.13284
-0.112246
0.130853
-0.110687
0.129893
-0.10462
0.129997
-0.094886
0.131108
-0.0824193
0.13306
-0.0679486
0.135564
-0.05257
0.138259
-0.037249
0.140905
-0.0233552
0.143462
-0.0115398
0.1461
-0.00297862
0.148891
0.0020691
0.151937
0.00320114
0.155067
0.00137157
0.158075
-0.00336082
0.160684
-0.00889806
0.162782
-0.0151577
0.164337
-0.0199141
0.165429
-0.0240876
0.166139
-0.0256834
0.166613
-0.0266306
0.166913
-0.024941
0.167142
-0.0231084
0.167319
-0.0192463
0.167505
-0.0155769
0.167736
-0.0108239
0.168066
-0.0065331
0.168599
-0.00196276
0.169303
0.00122866
0.00592271
0.163294
0.0106945
0.159767
0.00948059
0.156014
0.00834397
0.152292
0.00707361
0.148687
0.00578533
0.145194
0.00466103
0.141792
0.00375359
0.138554
0.00310728
0.135558
0.00277466
0.132842
0.00282527
0.130555
0.00333845
0.128676
0.00429078
0.127322
0.00567083
0.126479
0.00729395
0.126284
0.00902038
0.126797
0.0109445
0.128042
0.0128296
0.129997
0.0143755
0.132579
0.0151572
0.135648
0.0146379
0.138985
0.0122906
0.142312
0.00747743
0.145285
-0.00021094
0.147796
-0.012181
0.149188
-0.0267882
0.149112
-0.0443385
0.147313
-0.0630207
0.143985
-0.0805147
0.139778
-0.0946733
0.135523
-0.104194
0.131973
-0.108695
0.129531
-0.108245
0.128317
-0.103407
0.128316
-0.0948842
0.129447
-0.0835504
0.131571
-0.0700729
0.134457
-0.0554559
0.137774
-0.0405655
0.141191
-0.026773
0.144526
-0.0148747
0.147733
-0.00618558
0.150775
-0.000972718
0.153689
0.000286912
0.15648
-0.00141938
0.158961
-0.00584139
0.161027
-0.0109647
0.162649
-0.0167797
0.163849
-0.0211132
0.164715
-0.0249535
0.165331
-0.0263002
0.165816
-0.0271151
0.166231
-0.0253557
0.166646
-0.023524
0.167085
-0.0196846
0.167573
-0.0160658
0.168133
-0.0113835
0.168785
-0.00718545
0.169611
-0.00278812
0.170578
0.000261774
0.00464491
0.171845
0.012975
0.16903
0.0122954
0.166079
0.0112947
0.16304
0.010113
0.159941
0.00888395
0.156857
0.00774487
0.153846
0.00676433
0.150967
0.00598656
0.148275
0.0054666
0.145833
0.00526735
0.143736
0.0054354
0.142046
0.00598148
0.140827
0.00688895
0.140093
0.00802797
0.139812
0.00930185
0.140058
0.0106984
0.140865
0.0120231
0.142218
0.0130218
0.144044
0.0133316
0.146206
0.0124762
0.148531
0.00996474
0.15077
0.00523861
0.152742
-0.00218314
0.153585
-0.0130239
0.153402
-0.0266047
0.151719
-0.0426554
0.148496
-0.0597984
0.144111
-0.0761295
0.139256
-0.089818
0.134623
-0.099561
0.13072
-0.104792
0.127887
-0.105412
0.126329
-0.101849
0.126071
-0.0946267
0.127033
-0.0845124
0.129086
-0.0721261
0.132043
-0.0584126
0.135622
-0.0441447
0.139488
-0.0306392
0.143343
-0.0187291
0.146995
-0.00983745
0.150327
-0.00430486
0.153334
-0.00272035
0.155944
-0.00402883
0.15814
-0.00803789
0.159904
-0.0127286
0.161277
-0.0181527
0.16232
-0.0221559
0.163127
-0.0257603
0.163781
-0.0269545
0.164377
-0.027711
0.164976
-0.025955
0.165628
-0.0241759
0.16636
-0.0204172
0.167182
-0.0168871
0.168102
-0.0123035
0.169122
-0.00820546
0.170291
-0.00395729
0.171588
-0.00103541
0.00308854
0.190247
0.0149171
-0.19219
0.188705
0.0138382
0.187036
0.0129635
0.185219
0.0119296
0.183273
0.0108303
0.181219
0.00979834
0.17908
0.00890344
0.176877
0.00819002
0.174642
0.00770181
0.172426
0.00748318
0.170297
0.00756398
0.168328
0.0079507
0.166596
0.00862043
0.165145
0.00947907
0.164022
0.0104248
0.163348
0.0113733
0.163227
0.0121437
0.163759
0.0124901
0.165008
0.0120824
0.166985
0.0104993
0.169645
0.00730495
0.172807
0.00207659
0.176255
-0.00563161
0.179402
-0.0161706
0.181881
-0.0290839
0.183098
-0.0438721
0.182672
-0.0593732
0.18055
-0.0740069
0.176996
-0.0862646
0.172456
-0.0950207
0.167423
-0.0997591
0.162376
-0.100365
0.157713
-0.0971864
0.153739
-0.0906529
0.150667
-0.0814396
0.148623
-0.0700825
0.147655
-0.057445
0.147705
-0.0441939
0.148612
-0.0315464
0.150162
-0.0202792
0.152121
-0.011797
0.154243
-0.00642634
0.156321
-0.00479868
0.158152
-0.00585937
0.159594
-0.00947985
0.16056
-0.0136954
0.161042
-0.0186341
0.161091
-0.0222049
0.1608
-0.025469
0.160279
-0.0264334
0.159638
-0.0270699
0.158972
-0.0252894
0.158352
-0.0235565
0.157828
-0.0198923
0.157424
-0.0164831
0.157143
-0.0120234
0.156991
-0.00805252
0.15697
-0.00393707
0.157066
-0.00113086
0.00281245
0.202907
0.0156871
-0.203677
0.202043
0.0147019
0.201147
0.0138597
0.200074
0.0130023
0.198809
0.0120959
0.197394
0.0112132
0.195867