/*--------------------------------*- C++ -*----------------------------------*\
| =========                 |                                                 |
| \\      /  F ield         | OpenFOAM: The Open Source CFD Toolbox           |
|  \\    /   O peration     | Version:  2512                                  |
|   \\  /    A nd           | Website:  www.openfoam.com                      |
|    \\/     M anipulation  |                                                 |
\*---------------------------------------------------------------------------*/
FoamFile
{
    version     2.0;
    format      ascii;
    arch        "LSB;label=32;scalar=64";
    class       surfaceScalarField;
    location    "25";
    object      phi;
}
// * * * * * * * * * * * * * * * * * * * * * * * * * * * * * * * * * * * * * //

dimensions      [0 3 -1 0 0 0 0];

oriented        oriented;

internalField   nonuniform List<scalar> 
26232
(
4.85551e-05
0.00097821
-0.00102676
0.000352969
0.00192514
-0.00222955
0.00105657
0.00201322
-0.00271682
0.00229673
0.00129754
-0.0025377
0.00421201
-0.00018874
-0.00172654
0.00694334
-0.00242777
-0.000303555
0.0106292
-0.00540878
0.0017229
0.0153969
-0.00911977
0.00435206
0.0213494
-0.0135365
0.007584
0.0285504
-0.0186134
0.0114124
0.0370106
-0.0242783
0.0158181
0.0466772
-0.0304304
0.0207638
0.0574302
-0.0369443
0.0261914
0.0690852
-0.0436775
0.0320224
0.0814044
-0.05048
0.0381608
0.0941121
-0.0572056
0.0444979
0.106916
-0.0637225
0.0509187
0.119529
-0.0699233
0.0573107
0.13169
-0.0757277
0.0635665
0.143186
-0.0811023
0.0696062
0.153854
-0.0860094
0.0753416
0.163599
-0.0905558
0.0808101
0.172318
-0.0945528
0.0858341
-0.0986037
0.0912378
0.179684
8.89798e-05
0.00088923
0.000545459
0.00146866
0.00154296
0.00101572
0.00324713
-0.000406624
0.00582106
-0.00276267
0.00942021
-0.00602692
0.0141811
-0.0101697
0.0202039
-0.0151425
0.0275333
-0.0208659
0.0361423
-0.0272224
0.0459225
-0.0340585
0.0566849
-0.0411928
0.0681715
-0.0484309
0.0800759
-0.0555819
0.0920706
-0.0624748
0.103837
-0.0689723
0.115095
-0.0749802
0.125623
-0.0804518
0.135282
-0.0853867
0.144009
-0.0898285
0.151838
-0.0938392
0.158835
-0.0975527
0.165206
-0.100924
-0.104478
0.171081
0.000147916
0.000741314
0.000805829
0.000810743
0.00217495
-0.000353399
0.00444468
-0.00267636
0.00779139
-0.00610938
0.0123642
-0.0105998
0.0182635
-0.016069
0.0255166
-0.0223956
0.0340587
-0.029408
0.0437251
-0.0368888
0.0542588
-0.0445922
0.065333
-0.0522671
0.0765857
-0.0596835
0.0876581
-0.0666543
0.0982336
-0.0730503
0.108069
-0.0788073
0.117013
-0.0839246
0.125017
-0.0884557
0.132124
-0.0924937
0.138451
-0.0961556
0.144169
-0.0995566
0.149444
-0.102828
0.154495
-0.105975
-0.109369
0.159386
0.000227423
0.00051389
0.00113887
-0.000100702
0.00295588
-0.00217042
0.00587927
-0.00559975
0.0100764
-0.0103065
0.0156547
-0.0161781
0.0226316
-0.0230458
0.0309109
-0.030675
0.0402773
-0.0387743
0.0504116
-0.0470232
0.0609277
-0.0551082
0.071421
-0.0627603
0.0815198
-0.0697823
0.0909292
-0.0760637
0.0994598
-0.0815809
0.107039
-0.086386
0.1137
-0.0905859
0.119563
-0.0943184
0.124797
-0.0977281
0.129589
-0.100948
0.134115
-0.104082
0.138508
-0.107222
0.1429
-0.110366
-0.113755
0.147286
0.000327558
0.000186332
0.00154108
-0.00131423
0.00386901
-0.00449835
0.00750171
-0.00923245
0.0125631
-0.0153679
0.0190727
-0.0226877
0.0269157
-0.0308888
0.0358364
-0.0395956
0.0454621
-0.0484
0.0553547
-0.0569158
0.0650758
-0.0648293
0.0742494
-0.0719339
0.0826088
-0.0781417
0.0900189
-0.0834738
0.0964729
-0.088035
0.102068
-0.091981
0.106967
-0.0954848
0.111358
-0.0987093
0.115419
-0.10179
0.119299
-0.104828
0.123106
-0.107889
0.126904
-0.11102
0.130751
-0.114213
-0.117622
0.134618
0.000446707
-0.000260375
0.00200148
-0.002869
0.00487869
-0.00737555
0.00922628
-0.01358
0.0150807
-0.0212223
0.0223261
-0.029933
0.0306815
-0.0392442
0.0397309
-0.048645
0.0489893
-0.0576585
0.0579859
-0.0659124
0.0663388
-0.0731822
0.073804
-0.0793991
0.0802892
-0.0846269
0.0858366
-0.0890211
0.0905831
-0.0927815
0.0947133
-0.0961112
0.0984162
-0.0991877
0.101856
-0.102149
0.105157
-0.105091
0.108404
-0.108075
0.111651
-0.111136
0.114925
-0.114294
0.118257
-0.117546
-0.120974
0.121609
0.000581615
-0.00084199
0.00250158
-0.00478897
0.00593123
-0.0108052
0.0109359
-0.0185847
0.0174187
-0.0277052
0.0250944
-0.0376087
0.0335165
-0.0476663
0.0421563
-0.0572848
0.0505049
-0.0660072
0.0581638
-0.0735713
0.0648966
-0.079915
0.0706364
-0.085139
0.0754557
-0.0894462
0.0795145
-0.0930799
0.0830071
-0.096274
0.0861184
-0.0992226
0.0889999
-0.102069
0.0917613
-0.10491
0.0944744
-0.107804
0.0971831
-0.110783
0.0999124
-0.113865
0.102675
-0.117056
0.105483
-0.120354
-0.123796
0.108305
0.000727163
-0.00156915
0.00301545
-0.00707725
0.00695745
-0.0147472
0.0124929
-0.0241201
0.0193563
-0.0345686
0.0270892
-0.0453416
0.0351231
-0.0557003
0.0429019
-0.0650636
0.0499916
-0.0730968
0.0561422
-0.0797218
0.0612916
-0.0850644
0.0655256
-0.089373
0.0690165
-0.0929371
0.0719635
-0.0960269
0.0745493
-0.0988598
0.0769181
-0.101591
0.0791711
-0.104322
0.081373
-0.107112
0.0835621
-0.109993
0.0857598
-0.112981
0.0879773
-0.116083
0.0902196
-0.119298
0.092492
-0.122626
-0.126075
0.0947708
0.00087606
-0.00244521
0.00351046
-0.00971165
0.00787833
-0.0191151
0.0137571
-0.0299988
0.020701
-0.0415126
0.0281122
-0.0527529
0.0353777
-0.0629658
0.0420058
-0.0716917
0.0477062
-0.0787972
0.0523984
-0.084414
0.0561655
-0.0888316
0.059184
-0.0923915
0.0616571
-0.0954103
0.063769
-0.0981387
0.065662
-0.100753
0.0674341
-0.103363
0.0691465
-0.106035
0.0708343
-0.1088
0.0725171
-0.111676
0.0742051
-0.114669
0.0759034
-0.117781
0.0776142
-0.121009
0.0793384
-0.124351
-0.127798
0.0810611
0.00101895
-0.00346417
0.00394983
-0.0126425
0.00861454
-0.0237798
0.0146078
-0.0359921
0.0213232
-0.048228
0.0280887
-0.0595184
0.0343322
-0.0692092
0.0396922
-0.0770517
0.0440428
-0.0831477
0.0474462
-0.0878174
0.050075
-0.0914603
0.0521361
-0.0944526
0.0538185
-0.0970927
0.0552683
-0.0995885
0.0565846
-0.102069
0.0578283
-0.104607
0.059034
-0.10724
0.0602204
-0.109986
0.0613972
-0.112853
0.06257
-0.115842
0.063741
-0.118952
0.0649111
-0.122179
0.0660786
-0.125518
-0.128955
0.0672357
0.00114572
-0.00460989
0.00429796
-0.0157948
0.00909907
-0.0285809
0.0149641
-0.0418572
0.0211749
-0.0544387
0.0270629
-0.0654064
0.0321636
-0.07431
0.0362723
-0.0811604
0.0394069
-0.0862823
0.0417241
-0.0901346
0.0434321
-0.0931683
0.044728
-0.0957486
0.0457662
-0.0981309
0.0466517
-0.100474
0.0474485
-0.102866
0.0481924
-0.105351
0.0489025
-0.10795
0.0495886
-0.110672
0.0502565
-0.113521
0.0509091
-0.116494
0.0515476
-0.119591
0.0521718
-0.122803
0.0527784
-0.126125
-0.12954
0.0533637
0.00124934
-0.00585923
0.00452839
-0.0190738
0.00928872
-0.0333412
0.0147956
-0.047364
0.0202865
-0.0599296
0.0251661
-0.070286
0.0291126
-0.0782564
0.0320671
-0.084115
0.0341513
-0.0883665
0.0355675
-0.0915508
0.0365218
-0.0941227
0.0371812
-0.096408
0.0376615
-0.0986112
0.0380335
-0.100846
0.0383365
-0.103169
0.0385909
-0.105606
0.038807
-0.108167
0.0389908
-0.110856
0.0391457
-0.113675
0.0392739
-0.116623
0.0393765
-0.119693
0.0394528
-0.12288
0.0394998
-0.126172
0.0395173
-0.129557
-0.000228887
0.000224072
4.81462e-06
-0.000796921
0.00051413
5.39035e-05
-0.00163186
0.000704219
0.000130719
-0.00268013
0.000823425
0.000224844
-0.0039011
0.000892496
0.000328476
-0.00526448
0.000926482
0.000436903
-0.00674832
0.000935615
0.000548221
-0.00833719
0.000926152
0.000662719
-0.0100207
0.000901377
0.000782135
-0.0117922
0.000862555
0.000908907
-0.0136475
0.000809757
0.00104555
-0.0155842
0.000742495
0.0011942
-0.0176008
0.000660181
0.00135643
-0.0196963
0.000562467
0.00153307
-0.0218701
0.000449511
0.00172429
-0.0241219
0.000322273
0.00192954
-0.0264524
0.000182817
0.00214767
-0.028863
3.36728e-05
0.00237688
-0.0313614
-0.000115819
0.00261429
-0.0339582
-0.000260441
0.00285719
-0.0366714
-0.000388976
0.00310217
-0.0395285
-0.000488162
0.00334527
-0.0425737
-0.000536806
0.00358205
-0.000505811
-0.0458769
0.00380895
-0.00021755
0.000441622
-0.000759956
0.00105654
-0.00155858
0.00150284
-0.00256121
0.00182606
-0.00372735
0.00205863
-0.00502604
0.00222517
-0.00643413
0.00234371
-0.00793467
0.00242668
-0.00951544
0.00248215
-0.0111677
0.00251485
-0.0128852
0.00252719
-0.0146628
0.00252009
-0.0164961
0.00249354
-0.0183809
0.00244724
-0.0203124
0.00238101
-0.0222854
0.00229532
-0.0242946
0.00219193
-0.0263356
0.00207471
-0.0284027
0.00195129
-0.0304964
0.00183328
-0.0326232
0.0017378
-0.0347987
0.00168736
-0.0370533
0.00171775
0.00189238
-0.0394515
-0.00019285
0.000634473
-0.000678212
0.0015419
-0.00139505
0.00221968
-0.00229444
0.00272545
-0.00333667
0.00310086
-0.00448985
0.00337835
-0.00572866
0.00358253
-0.00703313
0.00373115
-0.00838732
0.00383635
-0.00977827
0.00390579
-0.0111948
0.00394376
-0.0126268
0.00395205
-0.014064
0.00393072
-0.0154955
0.0038788
-0.0169094
0.00379484
-0.0182916
0.00367752
-0.019626
0.0035264
-0.0208943
0.00334297
-0.0220751
0.00313208
-0.0231462
0.00290441
-0.024088
0.00267964
-0.0248889
0.00248819
-0.0255481
0.00237695
0.00244652
-0.0261022
-0.000158593
0.000793066
-0.000563306
0.00194661
-0.00116297
0.00281934
-0.00191307
0.00347555
-0.00277504
0.00396284
-0.00371589
0.0043192
-0.00470751
0.00457415
-0.00572587
0.00474951
-0.00675007
0.00486054
-0.00776134
0.00491706
-0.00874212
0.00492455
-0.0096752
0.00488512
-0.0105429
0.00479838
-0.0113262
0.00466214
-0.0120043
0.00447299
-0.0125538
0.00422696
-0.0129474
0.00392006
-0.0131537
0.00354919
-0.0131349
0.00311334
-0.0128465
0.00261602
-0.0122374
0.00207051
-0.0112568
0.00150758
-0.00986334
0.000983506
0.000637318
-0.00805415
-0.0001198
0.000912866
-0.000430662
0.00225747
-0.000891253
0.00327993
-0.00146141
0.0040457
-0.00210363
0.00460506
-0.00278355
0.00499912
-0.00346989
0.00526048
-0.00413394
0.00541356
-0.00474896
0.00547556
-0.00528934
0.00545745
-0.00572989
0.00536509
-0.00604498
0.00520021
-0.00620793
0.00496133
-0.00619029
0.0046445
-0.00596128
0.00424398
-0.00548712
0.0037528
-0.00473027
0.00316321
-0.00364839
0.00246731
-0.00219281
0.00165776
-0.000305683
0.000728892
0.0020844
-0.000319571
0.00506201
-0.00147003
0.00872019
-0.00267467
-0.00379338
0.0131509
-8.16987e-05
0.000994565
-0.000296448
0.00247222
-0.000610313
0.0035938
-0.000986123
0.00442151
-0.00138661
0.00500554
-0.00177549
0.005388
-0.00211771
0.00560271
-0.00237928
0.00567513
-0.00252668
0.00562297
-0.00252632
0.00545709
-0.00234378
0.00518255
-0.00194318
0.00479961
-0.00128654
0.00430469
-0.00033329
0.00369124
0.00096017
0.00295052
0.00264075
0.00207222
0.00475889
0.00104507
0.00736901
-0.000142804
0.010529
-0.00150227
0.0143026
-0.00304462
0.0187611
-0.00477815
0.0239977
-0.0067066
0.0300853
-0.00876226
-0.0110949
0.0373868
-4.86974e-05
0.00104326
-0.000174353
0.00259788
-0.000345907
0.00376535
-0.000526521
0.00460213
-0.000677456
0.00515648
-0.000759145
0.00546968
-0.000731673
0.00557524
-0.000554341
0.0054978
-0.000185258
0.00525388
0.000419279
0.00485255
0.00130544
0.00429639
0.00252242
0.00358263
0.00412286
0.00270424
0.00616337
0.00165074
0.00870409
0.000409804
0.0118087
-0.00103237
0.0155436
-0.00268982
0.0199766
-0.00457587
0.0251765
-0.00670214
0.03121
-0.00907808
0.0381355
-0.0117037
0.0460477
-0.0146188
0.0548911
-0.0176057
-0.0214728
0.065269
-2.34988e-05
0.00106676
-7.27024e-05
0.00264708
-0.00011336
0.00380601
-0.000105265
0.00459403
-5.31498e-06
0.00505653
0.000231468
0.0052329
0.000652563
0.00515414
0.00130795
0.00484241
0.00225096
0.00431088
0.00353883
0.00356467
0.00523327
0.00260196
0.00740068
0.00141522
0.0101114
-6.47527e-06
0.0134412
-0.00167901
0.017467
-0.00361608
0.0222678
-0.00583316
0.027921
-0.00834303
0.0345
-0.0111549
0.0420705
-0.0142726
0.0506896
-0.0176972
0.0603819
-0.021396
0.0712321
-0.025469
0.0830194
-0.029393
-0.0348973
0.096444
-6.48714e-06
0.00107325
7.91695e-06
0.00263268
8.67012e-05
0.00372723
0.000278579
0.00440215
0.000634863
0.00470024
0.00121014
0.00465763
0.00206294
0.00430134
0.00325682
0.00364853
0.00486092
0.00270678
0.0069503
0.0014753
0.00960547
-5.32106e-05
0.0129119
-0.00189125
0.0169583
-0.00405288
0.0218323
-0.00655299
0.0276198
-0.00940359
0.0343991
-0.0126124
0.0422367
-0.0161806
0.051183
-0.0201012
0.0612675
-0.024357
0.0724979
-0.0289276
0.0848385
-0.0337366
0.0982948
-0.0389253
0.112595
-0.0436928
-0.0504693
0.128167
4.50237e-06
0.00106875
7.44472e-05
0.00256273
0.00027007
0.0035316
0.00065315
0.00401907
0.00128831
0.00406509
0.00224462
0.00370131
0.00359714
0.00294882
0.00542785
0.00181782
0.00782567
0.000308957
0.0108855
-0.0015845
0.0147057
-0.00387347
0.0193845
-0.00657001
0.0250152
-0.00968361
0.0316803
-0.0132181
0.0394453
-0.0171686
0.0483527
-0.0215198
0.0584166
-0.0262446
0.0696194
-0.031304
0.0819095
-0.0366471
0.0951999
-0.042218
0.109376
-0.0479129
0.124282
-0.0538306
0.139768
-0.0591789
-0.0663183
0.155617
1.395e-05
0.0010548
0.000142574
0.00243411
0.000467967
0.00320621
0.00107082
0.00341622
0.00203459
0.00310132
0.00344837
0.00228753
0.00540841
0.000988778
0.00801802
-0.000791797
0.0113856
-0.0030586
0.0156199
-0.0058188
0.0208243
-0.00907788
0.0270887
-0.0128345
0.0344813
-0.0170761
0.0430397
-0.0217765
0.0527645
-0.0268934
0.0636144
-0.0323697
0.0755041
-0.0381343
0.0883068
-0.0441067
0.101858
-0.0501987
0.115967
-0.0563266
0.130441
-0.0623867
0.145011
-0.0684012
0.159697
-0.073865
-0.0802568
0.173636
2.80308e-05
0.000232589
0.000721977
0.0016005
0.00297527
0.00495925
0.00767093
0.0112312
0.0157566
0.0213502
0.0280904
0.0360197
0.0451349
0.0553809
0.0666483
0.0787765
0.0915609
0.104765
0.118133
0.131412
0.144367
0.156776
0.168745
0.179726
-0.0484056
-0.00293289
0.00546165
-0.0509796
-0.00318246
0.00575647
-0.0535635
-0.00337677
0.00596068
-0.0561354
-0.00347121
0.00604301
-0.0586555
-0.00344966
0.00596983
-0.0610739
-0.00328742
0.00570576
-0.0633277
-0.00296202
0.0052159
-0.0653407
-0.00245482
0.00446777
-0.06702
-0.0017528
0.00343208
-0.0682617
-0.000841519
0.00208322
-0.0689335
0.000264749
0.000407086
-0.0689775
0.00150767
-0.00146366
-0.0682426
0.0028597
-0.00359457
-0.0666051
0.00425276
-0.00589031
-0.0639461
0.00558663
-0.00824567
-0.060158
0.00672879
-0.0105169
-0.0551363
0.00749325
-0.012515
-0.0487969
0.00770568
-0.0140451
-0.0411105
0.0072481
-0.0149344
-0.0321558
0.00603203
-0.0149868
-0.02195
0.00388811
-0.0140939
-0.0106318
0.000976565
-0.0122948
0.00156496
-0.00250691
-0.0096898
0.0142843
-0.00616305
-0.00655629
0.027264
-0.00983387
-0.00314579
0.0401637
-0.0130552
0.000155447
0.0526767
-0.0155234
0.00301044
0.0645519
-0.0170465
0.0051712
0.0756372
-0.0176016
0.00651638
0.0858681
-0.0171836
0.00695266
0.0952462
-0.0159954
0.00661722
0.103814
-0.0140784
0.00551104
0.111632
-0.0117322
0.00391347
0.11877
-0.00893597
0.0017981
0.125285
-0.00606469
-0.000450543
0.131225
-0.00298839
-0.00295101
0.136616
-0.000151567
-0.00523946
0.141499
0.00268388
-0.00756751
0.145897
0.00499683
-0.00939395
0.149831
0.0072873
-0.0112218
0.153338
0.0088149
-0.0123214
0.156454
0.0104208
-0.0135376
0.159224
0.0111061
-0.0138758
0.161687
0.0121686
-0.0146318
0.163886
0.0122203
-0.0144186
0.165859
0.0130263
-0.0149994
0.167652
0.0127048
-0.0144986
0.169309
0.0135541
-0.0152105
0.170862
0.0131156
-0.0146683
0.172307
0.0143966
-0.0158422
0.173623
0.0140928
-0.0154089
0.174759
0.016
-0.0171357
0.175678
0.0158383
-0.0167571
0.176346
0.018323
-0.0189914
0.176772
0.0182701
-0.018696
0.176958
0.0214584
-0.0216449
0.176955
0.0216203
-0.021617
0.17677
0.0256984
-0.0255137
0.176479
0.0262085
-0.0259173
0.0312931
-0.0308616
-0.0417295
-0.000654916
-0.0440948
-0.000817092
-0.0464803
-0.000991325
-0.0488707
-0.00108078
-0.0512297
-0.00109067
-0.053508
-0.00100907
-0.0556418
-0.00082831
-0.057548
-0.000548566
-0.0591198
-0.000180975
-0.0602852
0.000323898
-0.0608974
0.000876924
-0.0608446
0.0014548
-0.0600017
0.0020168
-0.0582356
0.00248672
-0.0554163
0.0027673
-0.051434
0.00274647
-0.0461829
0.00224223
-0.0395509
0.00107359
-0.0315506
-0.000752124
-0.0223064
-0.00321221
-0.0117897
-0.00662862
-0.000239673
-0.0105734
0.0118362
-0.0145828
0.0245078
-0.0188346
0.0372993
-0.0226254
0.0498265
-0.0255824
0.0617716
-0.0274685
0.0728981
-0.028173
0.0830814
-0.0277849
0.0922991
-0.0264012
0.100602
-0.0242978
0.10808
-0.0215566
0.114842
-0.0184942
0.120997
-0.0150914
0.126638
-0.0117056
0.131838
-0.00818787
0.136647
-0.00496116
0.141072
-0.00174113
0.145155
0.00091373
0.148895
0.00354778
0.152303
0.0054067
0.155397
0.00732696
0.158195
0.00830752
0.160721
0.00964264
0.163001
0.00994109
0.165062
0.0109649
0.166945
0.0108219
0.168689
0.0118096
0.170329
0.0114758
0.171862
0.0128642
0.173263
0.0126913
0.17448
0.0147834
0.175472
0.0148456
0.176204
0.0175909
0.176685
0.01779
0.176914
0.0212286
0.176947
0.0215872
0.176791
0.0258549
0.176525
0.0264744
0.0317058
-0.0277266
0.000969499
-0.029496
0.000952273
-0.0312968
0.000809451
-0.0331085
0.000730968
-0.0349051
0.000705865
-0.0366396
0.000725448
-0.0382534
0.000785548
-0.0396743
0.000872306
-0.0408259
0.000970613
-0.0415696
0.00106758
-0.0418051
0.00111249
-0.0414167
0.00106641
-0.0402853
0.000885326
-0.0382377
0.000439121
-0.0351326
-0.000337727
-0.0309583
-0.00142786
-0.0256095
-0.00310658
-0.0190493
-0.00548663
-0.0112135
-0.00858791
-0.00203324
-0.0123925
0.00797764
-0.0166395
0.0188773
-0.0214731
0.030556
-0.0262615
0.0425287
-0.0308073
0.0544518
-0.0345486
0.0659674
-0.0370979
0.0767764
-0.0382776
0.0866728
-0.0380693
0.0955607
-0.0366729
0.103445
-0.0342854
0.110403
-0.0312562
0.116552
-0.0277053
0.122022
-0.0239642
0.126948
-0.020017
0.131445
-0.0162032
0.135609
-0.0123522
0.139508
-0.00885933
0.143179
-0.00541259
0.146628
-0.00253528
0.149867
0.00030885
0.152893
0.00238106
0.155705
0.00451433
0.158301
0.00571189
0.160685
0.00725883
0.162866
0.00776025
0.164859
0.00897127
0.166694
0.00898717
0.168405
0.0100985
0.170024
0.00985717
0.171548
0.0113399
0.172955
0.011284
0.17419
0.0135483
0.175213
0.0138226
0.175983
0.0168209
0.176508
0.0172655
0.176784
0.0209519
0.176868
0.021504
0.17676
0.025962
0.176546
0.0266891
0.0320696
-0.00879949
0.00171484
-0.00977652
0.00192931
-0.010802
0.00183491
-0.0118226
0.00175155
-0.0128319
0.00171525
-0.0137955
0.00168902
-0.0146606
0.00165067
-0.0153692
0.00158088
-0.0158456
0.00144701
-0.0159883
0.00121027
-0.0156919
0.000816108
-0.0148168
0.000191269
-0.0132724
-0.000659048
-0.0110044
-0.0018289
-0.00789271
-0.00344941
-0.00372733
-0.00559324
0.00147426
-0.00830816
0.00766563
-0.011678
0.0149136
-0.0158359
0.0231858
-0.0206647
0.0324496
-0.0259033
0.0424347
-0.0314582
0.0529634
-0.0367901
0.06366
-0.0415039
0.0741913
-0.0450799
0.0842395
-0.0471461
0.0935521
-0.0475902
0.101969
-0.0464865
0.109428
-0.0441316
0.115949
-0.0408066
0.121614
-0.0369208
0.126536
-0.0326273
0.130835
-0.0282638
0.134642
-0.0238231
0.138071
-0.0196331
0.141229
-0.0155101
0.144193
-0.011823
0.147013
-0.00823295
0.149721
-0.00524328
0.152323
-0.00229261
0.154793
-8.94535e-05
0.157157
0.00215077
0.159383
0.00348597
0.161466
0.00517553
0.163403
0.00582307
0.165197
0.00717713
0.166865
0.00731921
0.168435
0.00852859
0.169935
0.00835737
0.171364
0.00991098
0.172702
0.00994597
0.173896
0.0123546
0.174906
0.0128126
0.175688
0.0160391
0.176246
0.0167072
0.176572
0.0206258
0.176718
0.0213583
0.17668
0.0259995
0.176542
0.0268276
0.0323546
0.0130724
0.00179331
0.0127967
0.00220501
0.0124708
0.00216078
0.0121934
0.00202895
0.0119508
0.00195788
0.0117539
0.00188597
0.0116461
0.00175839
0.011676
0.00155107
0.0118948
0.00122818
0.0123708
0.000734272
0.0132519
-6.50245e-05
0.0144726
-0.0010294
0.016203
-0.00238946
0.0185728
-0.00419875
0.0216525
-0.00652911
0.0255179
-0.00945862
0.0302309
-0.0130211
0.0358547
-0.0173018
0.0423445
-0.0223257
0.0496529
-0.0279731
0.0577326
-0.033983
0.0663603
-0.0400859
0.0753373
-0.0457671
0.084359
-0.0505257
0.0931358
-0.0538566
0.101413
-0.0554231
0.109008
-0.0551852
0.115822
-0.053301
0.121833
-0.0501424
0.127074
-0.0460479
0.131616
-0.0414624
0.13555
-0.0365616
0.138963
-0.0316766
0.14195
-0.0268098
0.144602
-0.0222852
0.147008
-0.0179166
0.149243
-0.0140578
0.151365
-0.0103545
0.153409
-0.00728709
0.155397
-0.00428125
0.157342
-0.00203378
0.159202
0.000290753
0.161002
0.00168511
0.162716
0.0034618
0.164337
0.0042021
0.16586
0.00565456
0.167292
0.00588739
0.168654
0.00716628
0.169971
0.00703969
0.171246
0.00863669
0.172462
0.00872973
0.173571
0.0112456
0.174536
0.0118471
0.175311
0.0152643
0.175897
0.0161215
0.176277
0.0202455
0.176499
0.0211368
0.176551
0.0259469
0.176514
0.0268651
0.0325314
0.0373793
0.00180086
0.0373584
0.00222586
0.0373906
0.00212858
0.0375163
0.0019033
0.037735
0.00173917
0.0380408
0.00158015
0.0384594
0.00133978
0.0390232
0.000987318
0.039762
0.000489347
0.040751
-0.000254732
0.0419115
-0.00122546
0.0434231
-0.00254103
0.0453247
-0.00429109
0.0476762
-0.00655019
0.0505577
-0.00941065
0.0540401
-0.012941
0.058189
-0.0171701
0.0630281
-0.0221409
0.0685341
-0.0278317
0.074656
-0.0340949
0.0813207
-0.0406477
0.088346
-0.0471112
0.0955333
-0.0529544
0.10264
-0.0576328
0.109447
-0.0606631
0.115784
-0.06176
0.121555
-0.0609566
0.126733
-0.0584785
0.131334
-0.0547437
0.135402
-0.0501156
0.138989
-0.0450495
0.142156
-0.0397285
0.144947
-0.0344685
0.147413
-0.029275
0.149601
-0.0244739
0.151569
-0.0198844
0.153369
-0.0158575
0.155049
-0.012035
0.156649
-0.00888718
0.158197
-0.00582889
0.159712
-0.00354896
0.161175
-0.00117153
0.162594
0.000265181
0.163968
0.0020884
0.165284
0.00288619
0.166535
0.0044038
0.167723
0.00469879
0.168865
0.00602398
0.169985
0.0059205
0.171085
0.00753616
0.17216
0.00765494
0.173167
0.0102388
0.174075
0.0109388
0.174837
0.014502
0.175453
0.0155063
0.175897
0.0198015
0.17621
0.0208235
0.176374
0.0257826
0.176463
0.0267764
0.0325708
0.0647217
0.00234812
0.0643336
0.00261397
0.0641567
0.00230546
0.0641487
0.00191128
0.0642973
0.00159053
0.0646142
0.00126334
0.0651126
0.000841375
0.0658116
0.000288246
0.0667198
-0.000418786
0.0677906
-0.0013256
0.0690993
-0.00253408
0.0706718
-0.00411357
0.0725371
-0.00615645
0.0747363
-0.00874932
0.0773057
-0.0119801
0.0802851
-0.0159204
0.0837268
-0.0206118
0.08765
-0.0260641
0.0920314
-0.0322132
0.0968171
-0.0388806
0.101922
-0.0457531
0.107191
-0.0523799
0.112447
-0.0582104
0.117516
-0.062702
0.122268
-0.0654148
0.126634
-0.0661259
0.130609
-0.0649316
0.134227
-0.0620968
0.137536
-0.058052
0.140573
-0.0531528
0.143368
-0.0478443
0.145943
-0.0423042
0.148308
-0.036833
0.150464
-0.0314308
0.152421
-0.0264311
0.154197
-0.0216602
0.155815
-0.0174758
0.157304
-0.013524
0.158694
-0.0102769
0.16001
-0.00714564
0.161273
-0.00481159
0.162488
-0.00238694
0.163656
-0.000902201
0.16478
0.000964612
0.165869
0.00179708
0.166908
0.00336502
0.167901
0.00370547
0.168861
0.00506393
0.169811
0.00497069
0.170759
0.00658813
0.171707
0.00670646
0.172623
0.00932302
0.173484
0.0100781
0.174244
0.0137421
0.1749
0.0148494
0.175424
0.0192778
0.175849
0.0203992
0.176148
0.0254835
0.176388
0.0265361
0.0324436
0.0949911
0.00380099
0.0938117
0.0037934
0.092941
0.00317617
0.0922971
0.00255518
0.0918717
0.00201591
0.0916955
0.00143956
0.0917682
0.000768607
0.0921327
-7.6232e-05
0.0926862
-0.000972227
0.0934878
-0.0021272
0.0945279
-0.00357422
0.0958126
-0.00539826
0.0973496
-0.00769349
0.0991485
-0.0105481
0.101215
-0.0140465
0.103555
-0.0182604
0.106171
-0.0232279
0.109047
-0.0289403
0.112155
-0.035321
0.115454
-0.0421791
0.118861
-0.0491609
0.122254
-0.0557722
0.125503
-0.0614598
0.128517
-0.0657157
0.131265
-0.0681632
0.133779
-0.0686397
0.136129
-0.0672814
0.138388
-0.064356
0.140609
-0.0602731
0.142811
-0.0553549
0.144989
-0.0500225
0.147129
-0.0444433
0.149206
-0.0389103
0.151186
-0.0334114
0.15305
-0.0282942
0.154782
-0.0233931
0.156382
-0.0190758
0.157855
-0.0149963
0.159215
-0.0116368
0.160478
-0.00840907
0.161665
-0.00599868
0.162781
-0.00350279
0.163849
-0.00197002
0.164838
-2.46799e-05
0.165811
0.000823788
0.166734
0.00244244
0.167614
0.00282499
0.168464
0.00421444
0.169306
0.00412815
0.170155
0.00574004
0.17102
0.00584069
0.171881
0.00846273
0.172723
0.0092359
0.173506
0.0129593
0.174227
0.0141277
0.174854
0.0186515
0.175412
0.0198406
0.175871
0.0250244
0.17629
0.0261177
0.0321209
0.125799
0.00616913
0.123811
0.00578067
0.122097
0.00489076
0.12059
0.00406222
0.119352
0.00325338
0.118418
0.00237388
0.117765
0.00142147
0.117373
0.000316066
0.117281
-0.00088103
0.117435
-0.00228029
0.117845
-0.00398425
0.118502
-0.00605524
0.119393
-0.00858498
0.120502
-0.0116569
0.121806
-0.015351
0.123283
-0.0197376
0.124904
-0.0248489
0.126625
-0.0306608
0.12838
-0.0370765
0.130093
-0.0438917
0.131706
-0.0507735
0.13317
-0.0572362
0.134437
-0.0627274
0.135512
-0.0667908
0.136461
-0.0691119
0.137389
-0.0695677
0.138409
-0.0683013
0.1396
-0.0655469
0.140996
-0.0616692
0.142585
-0.0569441
0.144325
-0.0517627
0.146166
-0.0462839
0.148064
-0.0408077
0.149958
-0.0353061
0.151805
-0.0301405
0.15357
-0.0251587
0.155235
-0.020741
0.156787
-0.0165477
0.158226
-0.0130756
0.159556
-0.00973952
0.160792
-0.00723426
0.161939
-0.00465015
0.163007
-0.00303792
0.164023
-0.00104058
0.164964
-0.000117017
0.165873
0.00153288
0.166735
0.00196325
0.167559
0.00338979
0.168373
0.00331463
0.169191
0.00492182
0.170036
0.00499631
0.170893
0.00760557
0.17176
0.00836827
0.172603
0.0121168
0.173421
0.0133098
0.174178
0.0178942
0.174898
0.0191209
0.175544
0.0243782
0.176167
0.0254943
0.0315738
0.152701
0.00908493
0.150225
0.00825687
0.147844
0.00727085
0.145629
0.00627768
0.143699
0.00518294
0.142048
0.00402585
0.140636
0.00283278
0.139462
0.00149071
0.138721
-0.000140497
0.138137
-0.00169619
0.137775
-0.00362276
0.137631
-0.00591069
0.137691
-0.0086453
0.137924
-0.0118898
0.138289
-0.0157154
0.138739
-0.0201875
0.139219
-0.0253299
0.139667
-0.0311083
0.140005
-0.0374143
0.140154
-0.0440408
0.140049
-0.050669
0.1397
-0.0568868
0.139182
-0.0622094
0.138603
-0.0662114
0.138103
-0.0686121
0.137825
-0.0692903
0.137884
-0.0683601
0.138335
-0.0659978
0.139178
-0.0625128
0.14037
-0.0581357
0.141838
-0.0532303
0.143501
-0.0479474
0.145302
-0.0426082
0.147177
-0.0371814
0.14906
-0.0320239
0.150903
-0.0270009
0.152674
-0.0225127
0.154351
-0.0182241
0.155924
-0.0146486
0.157387
-0.0112029
0.158749
-0.00859637
0.16001
-0.00591056
0.161182
-0.00420976
0.162277
-0.00213578
0.163315
-0.00115558
0.164284
0.000564494
0.165214
0.00103246
0.166098
0.00250618
0.166962
0.00245079
0.167825
0.00405915
0.168715
0.00410556
0.169629
0.00669149
0.170574
0.00742362
0.17152
0.0111706
0.172472
0.0123584
0.173393
0.016973
0.174303
0.0182108
0.175165
0.0235167
0.17602
0.0246384
0.0307738
0.171007
0.0117139
0.168517
0.0107466
0.165955
0.00983345
0.163529
0.00870375
0.161317
0.00739439
0.159303
0.00603999
0.157503
0.004633
0.155901
0.00309214
0.154417
0.00134356
0.153319
-0.000598168
0.152329
-0.00263278
0.151495
-0.00507654
0.150798
-0.00794842
0.150196
-0.0112875
0.14964
-0.0151597
0.149074
-0.0196216
0.148432
-0.024688
0.147645
-0.0303209
0.146643
-0.0364119
0.145369
-0.0427671
0.143802
-0.049102
0.141975
-0.05506
0.14006
-0.0602942
0.138258
-0.0644091
0.136746
-0.0671007
0.135669
-0.0682132
0.135119
-0.0678099
0.135118
-0.0659968
0.135635
-0.0630299
0.1366
-0.0591007
0.137924
-0.0545539
0.139511
-0.0495345
0.141284
-0.0443809
0.143177
-0.0390746
0.145128
-0.0339757
0.147075
-0.0289471
0.148978
-0.0244159
0.150805
-0.0200509
0.152541
-0.0163853
0.154174
-0.0128351
0.155706
-0.0101286
0.157132
-0.00733663
0.158464
-0.00554222
0.159714
-0.00338592
0.160899
-0.00234061
0.162013
-0.000548891
0.163068
-2.25942e-05
0.164083
0.00149133
0.165068
0.00146539
0.166045
0.00308276
0.167047
0.00310291
0.168078
0.00566038
0.169153
0.0063486
0.17025
0.0100743
0.171374
0.0112337
0.172494
0.0158531
0.173626
0.0170794
0.174732
0.0224105
0.175848
0.0235223
0.0296926
0.178132
0.0133083
0.176123
0.0127549
0.174114
0.0118434
0.172116
0.0107014
0.170138
0.00937201
0.168231
0.00794688
0.166428
0.00643621
0.164717
0.00480327
0.163094
0.00296609
0.161622
0.000874192
0.160313
-0.00132384
0.159041
-0.00380465
0.157801
-0.00670849
0.156561
-0.0100474
0.155279
-0.0138776
0.153901
-0.0182435
0.15237
-0.023157
0.150634
-0.0285848
0.148655
-0.0344332
0.146422
-0.0405337
0.143967
-0.0466469
0.141365
-0.0524581
0.138728
-0.0576571
0.136225
-0.0619064
0.134069
-0.0649449
0.132456
-0.0665999
0.131469
-0.0668227
0.131112
-0.0656407
0.131346
-0.0632639
0.132094
-0.0598481
0.133264
-0.0557238
0.134756
-0.051027
0.136489
-0.0461135
0.138384
-0.0409693
0.140376
-0.0359678
0.142404
-0.0309759
0.144426
-0.0264377
0.146399
-0.0220238
0.148303
-0.0182892
0.150116
-0.0146477
0.151838
-0.0118507
0.153458
-0.00895688
0.154987
-0.00707103
0.15643
-0.00482909
0.157801
-0.00371173
0.159107
-0.00185483
0.160366
-0.00128186
0.161553
0.000304112
0.162718
0.000300788
0.163866
0.00193508
0.165039
0.00193008
0.166242
0.00445709
0.167498
0.00509255
0.16879
0.0087825
0.170127
0.00989624
0.171481
0.0144993
0.172865
0.0156954
0.174245
0.0210307
0.175649
0.0221183
0.0283029
0.195569
0.0146306
-0.196891
0.194723
0.0136014
0.19383
0.0127358
0.192924
0.0116074
0.192025
0.0102712
0.191155
0.00881732
0.190341
0.00724939
0.189609
0.00553601
0.188942
0.00363302
0.188267
0.0015493
0.187687
-0.000744405
0.187275
-0.0033924
0.186919
-0.00635234
0.186606
-0.00973415
0.186298
-0.0135705
0.185938
-0.0178834
0.185453
-0.0226717
0.184762
-0.0278941
0.183785
-0.0334561
0.18245
-0.0391988
0.180714
-0.04491
0.178571
-0.0503159
0.17606
-0.0551456
0.173264
-0.0591108
0.170305
-0.0619855
0.167314
-0.0636092
0.164434
-0.0639425
0.161783
-0.0629901
0.159452
-0.0609328
0.157495
-0.0578909
0.155934
-0.0541623
0.154758
-0.0498515
0.153941
-0.0452963
0.153447
-0.040475
0.153234
-0.0357552
0.153256
-0.0309974
0.153461
-0.0266434
0.153801
-0.0223637
0.154232
-0.0187195
0.154713
-0.0151294
0.155216
-0.0123536
0.155713
-0.0094536
0.156185
-0.00754377
0.156622
-0.00526529
0.157016
-0.00410624
0.157364
-0.00220271
0.15766
-0.00157813
0.157899
6.54415e-05
0.158086
0.000113364
0.158226
0.00179558
0.158347
0.00180897
0.15846
0.00434387
0.158592
0.00496027
0.158743
0.00863163
0.158927
0.00971259
0.159126
0.0143007
0.15935
0.0154712
0.159571
0.020809
0.15981
0.0218795
0.0280773
0.208162
0.0149574
-0.208489
0.207859
0.0139037
0.207656
0.0129395
0.207393
0.0118705
0.207045