/*--------------------------------*- C++ -*----------------------------------*\
| =========                 |                                                 |
| \\      /  F ield         | OpenFOAM: The Open Source CFD Toolbox           |
|  \\    /   O peration     | Version:  2512                                  |
|   \\  /    A nd           | Website:  www.openfoam.com                      |
|    \\/     M anipulation  |                                                 |
\*---------------------------------------------------------------------------*/
FoamFile
{
    version     2.0;
    format      ascii;
    arch        "LSB;label=32;scalar=64";
    class       surfaceScalarField;
    location    "0.25";
    object      phi;
}
// * * * * * * * * * * * * * * * * * * * * * * * * * * * * * * * * * * * * * //

dimensions      [0 3 -1 0 0 0 0];

oriented        oriented;

internalField   nonuniform List<scalar> 
26232
(
0.001518
-0.0149494
0.0134314
0.0053062
-0.0462106
0.0424224
0.0101958
-0.0671521
0.0622625
0.0154076
-0.0774595
0.0722476
0.0206174
-0.081322
0.0761123
0.0257511
-0.0822427
0.077109
0.0308225
-0.0821268
0.0770554
0.0358594
-0.0817978
0.0767609
0.040884
-0.0815543
0.0765297
0.0459116
-0.0814852
0.0764576
0.0509536
-0.0816076
0.0765656
0.0560187
-0.0819169
0.0768517
0.0611144
-0.082404
0.0773084
0.0662463
-0.0830598
0.0779279
0.0714186
-0.0838766
0.0787042
0.0766335
-0.0848483
0.0796334
0.08189
-0.0859705
0.080714
0.087182
-0.08724
0.0819481
0.0924938
-0.0886545
0.0833426
0.0977897
-0.0902116
0.0849157
0.102978
-0.0918972
0.0867085
0.107858
-0.0937116
0.0888322
0.11182
-0.0953961
0.0914336
-0.0975594
0.0959238
0.113456
0.00156469
-0.0165141
0.0052956
-0.0499415
0.00997948
-0.071836
0.0148737
-0.0823537
0.0197083
-0.0861567
0.0244471
-0.0869815
0.029121
-0.0868007
0.0337633
-0.0864401
0.0383963
-0.0861873
0.043034
-0.0861229
0.047686
-0.0862596
0.0523594
-0.0865904
0.0570599
-0.0871045
0.0617915
-0.0877914
0.0665567
-0.0886418
0.0713559
-0.0896475
0.0761869
-0.0908015
0.0810438
-0.0920969
0.0859162
-0.0935269
0.090788
-0.0950833
0.0956448
-0.0967541
0.100456
-0.0985225
0.105391
-0.100331
-0.102082
0.109914
0.001597
-0.0181111
0.00522979
-0.0535743
0.00965858
-0.0762648
0.0141958
-0.0868909
0.0186281
-0.0905889
0.0229523
-0.0913057
0.027213
-0.0910614
0.0314464
-0.0906735
0.0356743
-0.0904151
0.0399092
-0.0903579
0.0441594
-0.0905098
0.0484309
-0.0908618
0.0527282
-0.0914018
0.0570547
-0.0921179
0.0614125
-0.0929995
0.065802
-0.094037
0.0702218
-0.0952213
0.0746683
-0.0965434
0.0791348
-0.0979934
0.0836115
-0.0995601
0.0880859
-0.101228
0.0925467
-0.102983
0.0969963
-0.104781
-0.106731
0.101645
0.00161279
-0.0197239
0.00511496
-0.0570765
0.00925716
-0.080407
0.0134118
-0.0910456
0.0174212
-0.0945983
0.0213135
-0.095198
0.0251449
-0.0948928
0.028954
-0.0944827
0.032762
-0.0942231
0.0365801
-0.094176
0.0404155
-0.0943452
0.0442733
-0.0947196
0.0481576
-0.0952861
0.0520717
-0.096032
0.056018
-0.0969458
0.0599981
-0.0980171
0.0640128
-0.099236
0.0680621
-0.100593
0.0721458
-0.102077
0.0762646
-0.103679
0.0804221
-0.105386
0.0846261
-0.107187
0.0889003
-0.109055
-0.111053
0.093222
0.00161206
-0.021336
0.00494915
-0.0604136
0.00877011
-0.0842279
0.0125153
-0.0947908
0.0160829
-0.0981659
0.0195291
-0.0986442
0.0229193
-0.098283
0.0262932
-0.0978565
0.0296703
-0.0976002
0.0330608
-0.0975665
0.036471
-0.0977553
0.0399053
-0.098154
0.0433678
-0.0987486
0.0468619
-0.099526
0.0503904
-0.100474
0.0539563
-0.101583
0.057562
-0.102842
0.0612104
-0.104241
0.064905
-0.105772
0.0686509
-0.107425
0.072456
-0.109191
0.0763312
-0.111062
0.0803026
-0.113027
-0.115143
0.0843928
0.00159268
-0.0229286
0.00473014
-0.063551
0.0081978
-0.0876956
0.0115099
-0.0981029
0.0146193
-0.101275
0.017607
-0.101632
0.020545
-0.101221
0.0234728
-0.100784
0.0264086
-0.100536
0.0293611
-0.100519
0.0323357
-0.10073
0.0353367
-0.101155
0.0383676
-0.101779
0.041432
-0.10259
0.0445334
-0.103576
0.0476753
-0.104725
0.0508616
-0.106028
0.0540966
-0.107476
0.0573856
-0.109061
0.0607354
-0.110774
0.0641543
-0.11261
0.0676523
-0.114561
0.0712469
-0.116621
-0.118833
0.0749369
0.00155434
-0.024483
0.00445876
-0.0664555
0.00754344
-0.0907802
0.0104017
-0.100961
0.0130389
-0.103912
0.0155578
-0.104151
0.0180346
-0.103698
0.0205074
-0.103257
0.0229925
-0.103021
0.0254974
-0.103024
0.0280266
-0.103259
0.0305839
-0.103712
0.0331726
-0.104368
0.0357964
-0.105214
0.0384587
-0.106238
0.0411637
-0.10743
0.0439156
-0.10878
0.0467194
-0.11028
0.049581
-0.111922
0.0525073
-0.113701
0.0555061
-0.115609
0.0585869
-0.117641
0.0617639
-0.119798
-0.122107
0.0650382
0.00149689
-0.0259799
0.00413591
-0.0690945
0.00681011
-0.0934545
0.00919618
-0.103347
0.0113497
-0.106066
0.0133914
-0.106192
0.0153993
-0.105706
0.0174091
-0.105267
0.0194353
-0.105047
0.0214838
-0.105072
0.0235583
-0.105334
0.0256619
-0.105816
0.0277977
-0.106504
0.029969
-0.107385
0.0321794
-0.108449
0.0344328
-0.109683
0.0367336
-0.111081
0.0390868
-0.112633
0.0414981
-0.114334
0.0439741
-0.116177
0.0465217
-0.118156
0.0491494
-0.120269
0.0518679
-0.122517
-0.124915
0.0546757
0.00142063
-0.0274005
0.0037634
-0.0714372
0.00600214
-0.0956932
0.00790062
-0.105246
0.00956151
-0.107727
0.0111195
-0.10775
0.0126524
-0.107239
0.014193
-0.106807
0.015753
-0.106607
0.0173373
-0.106657
0.0189485
-0.106945
0.020589
-0.107456
0.0222614
-0.108176
0.0239686
-0.109093
0.0257138
-0.110194
0.0275007
-0.11147
0.0293334
-0.112913
0.0312166
-0.114516
0.0331556
-0.116273
0.0351563
-0.118177
0.0372252
-0.120225
0.0393699
-0.122414
0.0415985
-0.124745
-0.127226
0.0439097
0.00132281
-0.0287233
0.00333851
-0.0734529
0.00511936
-0.097474
0.00651849
-0.106645
0.00768123
-0.10889
0.00875211
-0.108821
0.00980638
-0.108293
0.0108731
-0.107874
0.0119616
-0.107696
0.0130752
-0.10777
0.0142156
-0.108085
0.0153845
-0.108625
0.0165837
-0.109376
0.0178157
-0.110325
0.019083
-0.111461
0.0203891
-0.112776
0.0217374
-0.114262
0.0231324
-0.115911
0.0245786
-0.117719
0.0260813
-0.11968
0.0276463
-0.12179
0.0292806
-0.124048
0.0309906
-0.126455
-0.129013
0.0327774
0.00119855
-0.0299219
0.00285576
-0.0751101
0.00415873
-0.098777
0.00505114
-0.107537
0.00571508
-0.109554
0.00629927
-0.109406
0.00687432
-0.108868
0.00746503
-0.108465
0.00807845
-0.108309
0.00871642
-0.108408
0.00937977
-0.108749
0.0100694
-0.109315
0.0107866
-0.110093
0.011533
-0.111071
0.0123108
-0.112239
0.0131225
-0.113588
0.0139713
-0.115111
0.0148609
-0.116801
0.0157954
-0.118654
0.0167796
-0.120664
0.0178187
-0.122829
0.0189187
-0.125148
0.0200833
-0.12762
-0.130246
0.0213157
0.00105067
-0.0309725
0.0023236
-0.0763831
0.00313116
-0.0995846
0.00351407
-0.10792
0.00368232
-0.109722
0.0037828
-0.109506
0.00387995
-0.108965
0.00399396
-0.108579
0.00412987
-0.108445
0.00428849
-0.108567
0.00446987
-0.10893
0.00467418
-0.109519
0.00490195
-0.110321
0.0051541
-0.111323
0.00543202
-0.112517
0.00573759
-0.113893
0.00607324
-0.115446
0.006442
-0.11717
0.00684759
-0.119059
0.0072945
-0.121111
0.00778816
-0.123323
0.0083349
-0.125695
0.00893971
-0.128225
0.00961091
-0.130917
0.000950972
-0.000892006
-5.89668e-05
0.00450661
-0.00251298
-0.00104266
0.0100847
-0.003503
-0.00207508
0.0168131
-0.00393972
-0.00278872
0.0240639
-0.00407603
-0.0031747
0.0314965
-0.00409154
-0.00334106
0.0389596
-0.00407248
-0.00339065
0.0464009
-0.00405081
-0.00339053
0.0538129
-0.00403515
-0.00337678
0.0612055
-0.00402628
-0.00336638
0.0685951
-0.00402312
-0.00336643
0.0759989
-0.0040244
-0.00337944
0.083434
-0.00402901
-0.00340609
0.0909164
-0.00403596
-0.00344646
0.0984613
-0.00404432
-0.00350053
0.106083
-0.00405317
-0.00356836
0.113795
-0.0040616
-0.00365017
0.12161
-0.00406875
-0.00374627
0.129541
-0.00407371
-0.00385724
0.1376
-0.00407626
-0.00398335
0.145801
-0.00407481
-0.00412642
0.154159
-0.00407219
-0.00428591
0.162687
-0.00407301
-0.00445473
-0.00404541
0.171417
-0.00468474
0.000954724
-0.00184673
0.00451599
-0.00607424
0.010099
-0.00908606
0.0168304
-0.0106711
0.0240824
-0.011328
0.0315152
-0.0115243
0.0389781
-0.0115354
0.0464192
-0.011492
0.0538313
-0.0114472
0.0612249
-0.0114199
0.0686164
-0.0114146
0.0760235
-0.0114315
0.0834635
-0.011469
0.0909527
-0.0115251
0.0985064
-0.0115981
0.106139
-0.0116859
0.113865
-0.0117871
0.121696
-0.0118999
0.129645
-0.012023
0.137724
-0.0121555
0.145945
-0.0122952
0.154318
-0.0124458
0.162852
-0.0126071
-0.0127746
0.171582
0.000968806
-0.00281554
0.00454339
-0.00964882
0.0101243
-0.014667
0.0168364
-0.0173832
0.0240566
-0.0185482
0.0314506
-0.0189183
0.0388716
-0.0189564
0.0462702
-0.0188905
0.0536403
-0.0188174
0.0609931
-0.0187727
0.0683455
-0.018767
0.0757152
-0.0188013
0.0831198
-0.0188735
0.0905756
-0.018981
0.0980982
-0.0191207
0.105702
-0.0192899
0.113401
-0.0194862
0.121209
-0.0197072
0.129136
-0.0199506
0.137196
-0.0202148
0.145397
-0.0204962
0.153748
-0.020797
0.162246
-0.0211054
-0.0214438
0.170915
0.000993285
-0.00380882
0.00458671
-0.0132422
0.0101553
-0.0202355
0.0168229
-0.0240509
0.0239759
-0.0257011
0.0312899
-0.0262323
0.0386256
-0.0262921
0.0459378
-0.0262027
0.0532227
-0.0261023
0.0604923
-0.0260423
0.0677637
-0.0260384
0.075055
-0.0260925
0.0823834
-0.026202
0.0897655
-0.0263631
0.097217
-0.0265721
0.104752
-0.0268253
0.112385
-0.0271193
0.120129
-0.0274512
0.127997
-0.027818
0.135999
-0.0282173
0.144148
-0.0286452
0.152455
-0.0291037
0.160927
-0.0295779
-0.0301173
0.169601
0.00102717
-0.00483599
0.00464235
-0.0168574
0.0101856
-0.0257788
0.0167816
-0.0306468
0.0238307
-0.0327502
0.0310233
-0.0334249
0.0382305
-0.0334994
0.0454131
-0.0333853
0.0525701
-0.0332593
0.0597146
-0.0331868
0.0668639
-0.0331877
0.0740358
-0.0332644
0.0812477
-0.0334139
0.0885159
-0.0336314
0.095856
-0.0339122
0.103283
-0.0342519
0.11081
-0.0346465
0.118451
-0.0350922
0.126218
-0.0355854
0.134124
-0.0361231
0.14218
-0.0367016
0.150399
-0.0373226
0.158795
-0.0379733
-0.0387207
0.167398
0.00106927
-0.00590526
0.00470673
-0.0204949
0.0102096
-0.0312816
0.0167052
-0.0371424
0.0236132
-0.0396582
0.0306433
-0.040455
0.0376798
-0.0405358
0.0446906
-0.0403962
0.0516781
-0.0402467
0.0586563
-0.040165
0.0656427
-0.0401741
0.0726549
-0.0402766
0.0797099
-0.0404689
0.0868239
-0.0407454
0.0940123
-0.0411006
0.10129
-0.0415295
0.108671
-0.0420274
0.116168
-0.0425897
0.123795
-0.0432124
0.131564
-0.0438913
0.139484
-0.0446226
0.147567
-0.0454051
0.155819
-0.0462256
-0.0471586
0.164257
0.0011181
-0.00702336
0.00477571
-0.0241525
0.0102205
-0.0367264
0.0165856
-0.0435076
0.0233154
-0.046388
0.0301427
-0.0472823
0.0369673
-0.0473604
0.0437656
-0.0471944
0.0505432
-0.0470243
0.0573153
-0.0469371
0.064099
-0.0469578
0.0709116
-0.0470892
0.0777697
-0.0473269
0.084689
-0.0476647
0.0916851
-0.0480967
0.0987726
-0.0486171
0.105966
-0.0492208
0.113279
-0.0499029
0.120725
-0.0506585
0.128317
-0.0514825
0.136064
-0.05237
0.143974
-0.0533151
0.152051
-0.0543028
-0.0554168
0.160309
0.00117209
-0.00819545
0.00484484
-0.0278252
0.0102114
-0.042093
0.0164148
-0.049711
0.0229292
-0.0529024
0.0295146
-0.0538677
0.0360883
-0.0539341
0.0426352
-0.0537414
0.0491645
-0.0535536
0.0556919
-0.0534645
0.0622343
-0.0535002
0.0688082
-0.0536631
0.0754295
-0.0539482
0.0821138
-0.0543489
0.0888761
-0.0548591
0.0957318
-0.0554727
0.102696
-0.0561847
0.109782
-0.0569897
0.117007
-0.0578827
0.124382
-0.0588578
0.131923
-0.0599108
0.139637
-0.0610293
0.147529
-0.0621954
-0.063503
0.155616
0.00123
-0.00942545
0.00490998
-0.0315052
0.0101753
-0.0473583
0.0161844
-0.05572
0.022447
-0.059165
0.0287534
-0.0601742
0.0350395
-0.0602202
0.041299
-0.0600009
0.047544
-0.0597986
0.0537904
-0.0597109
0.0600544
-0.0597643
0.0663515
-0.0599602
0.0726966
-0.0602933
0.0791045
-0.0607569
0.0855906
-0.0613451
0.0921703
-0.0620524
0.0988599
-0.0628743
0.105676
-0.063806
0.112636
-0.0648427
0.119756
-0.0659771
0.127052
-0.0672074
0.13454
-0.0685168
0.142247
-0.0699024
-0.0715241
0.150268
0.00128869
-0.0107141
0.00496353
-0.03518
0.0101014
-0.0524962
0.0158825
-0.061501
0.0218584
-0.0651409
0.0278522
-0.066168
0.0338181
-0.0661861
0.0397581
-0.0659408
0.0456863
-0.0657268
0.0516186
-0.0656432
0.0575698
-0.0657154
0.0635537
-0.0659441
0.0695839
-0.0663235
0.0756741
-0.0668471
0.0818383
-0.0675093
0.0880921
-0.0683063
0.0944535
-0.0692356
0.100943
-0.0702959
0.107587
-0.0714859
0.114409
-0.0728
0.121437
-0.0742346
0.128671
-0.075751
0.136126
-0.0773577
-0.0795617
0.144164
0.00133954
-0.0120537
0.00498844
-0.038829
0.00996801
-0.0574758
0.0154877
-0.0670207
0.0211455
-0.0707987
0.026798
-0.0718206
0.032417
-0.0718051
0.0380109
-0.0715347
0.0435953
-0.0713112
0.049185
-0.071233
0.0547933
-0.0713237
0.0604321
-0.0715829
0.0661126
-0.072004
0.0718458
-0.0725802
0.077643
-0.0733065
0.0835164
-0.0741797
0.0894806
-0.0751998
0.0955548
-0.0763702
0.101768
-0.0776993
0.108169
-0.0792007
0.11483
-0.0808961
0.121836
-0.0827567
0.129133
-0.0846543
-0.0870158
0.136587
0.00137773
0.0049712
0.00975789
0.0149848
0.0202984
0.0255868
0.0308371
0.0360633
0.0412818
0.0465064
0.0517483
0.0570172
0.0623216
0.0676692
0.0730669
0.0785206
0.0840348
0.0896128
0.095256
0.100971
0.106783
0.112859
0.119638
0.128546
0.173801
0.00408278
-0.00646683
0.17601
0.00398532
-0.00619346
0.177977
0.00409595
-0.00606352
0.179696
0.00438556
-0.00610482
0.181203
0.00468643
-0.0061933
0.182529
0.00498124
-0.00630688
0.183694
0.00528897
-0.00645388
0.184716
0.00561063
-0.00663302
0.185613
0.00594278
-0.00684009
0.1864
0.00628651
-0.00707332
0.187088
0.00664408
-0.00733226
0.187689
0.00701569
-0.00761612
0.188211
0.00740288
-0.00792459
0.188661
0.00780696
-0.00825767
0.189048
0.00822918
-0.00861551
0.189375
0.00867093
-0.00899853
0.189649
0.00913367
-0.00940746
0.189873
0.00961914
-0.00984343
0.190052
0.0101292
-0.0103079
0.190189
0.0106659
-0.0108028
0.190287
0.0112318
-0.0113303
0.19035
0.0118301
-0.0118933
0.190381
0.0124645
-0.0124951
0.190381
0.013139
-0.0131393
0.190353
0.0138578
-0.0138297
0.190299
0.0146252
-0.0145705
0.190219
0.0154459
-0.0153662
0.190115
0.0163249
-0.0162214
0.189989
0.0172677
-0.0171417
0.189842
0.0182801
-0.0181325
0.189673
0.0193686
-0.0192004
0.189485
0.0205403
-0.0203523
0.189278
0.0218028
-0.0215958
0.189053
0.0231648
-0.0229396
0.18881
0.0246359
-0.0243929
0.18855
0.0262266
-0.0259666
0.188274
0.0279491
-0.0276725
0.187981
0.0298169
-0.0295242
0.187672
0.0318456
-0.031537
0.187348
0.0340527
-0.033728
0.187007
0.0364571
-0.0361161
0.186649
0.0390795
-0.0387219
0.186274
0.0419421
-0.0415674
0.185882
0.0450692
-0.044677
0.185472
0.0484874
-0.0480774
0.185044
0.0522263
-0.0517982
0.184598
0.0563184
-0.055872
0.184133
0.0607998
-0.0603346
0.183648
0.0657094
-0.0652252
0.183145
0.07109
-0.0705863
0.182621
0.0769872
-0.0764637
0.182077
0.0834499
-0.0829061
0.181513
0.0905292
-0.0899647
0.180927
0.098278
-0.0976924
0.18032
0.10675
-0.106142
0.17969
0.115997
-0.115367
0.179037
0.126069
-0.125417
0.17836
0.137015
-0.136338
0.177657
0.148795
-0.148092
0.162602
-0.161872
0.174171
0.00149346
0.176558
0.00159881
0.178619
0.00203449
0.180392
0.00261235
0.181934
0.0031445
0.183288
0.0036273
0.184476
0.00410142
0.185516
0.00456989
0.18643
0.00502925
0.187231
0.0054852
0.187932
0.0059436
0.188543
0.00640423
0.189074
0.00687162
0.189533
0.00734799
0.189927
0.00783579
0.19026
0.0083374
0.190539
0.00885499
0.190767
0.00939094
0.190949
0.00994743
0.191088
0.0105268
0.191188
0.0111317
0.191253
0.0117657
0.191284
0.0124332
0.191284
0.0131386
0.191256
0.0138864
0.1912
0.0146811
0.191118
0.0155275
0.191012
0.0164308
0.190883
0.0173968
0.190732
0.0184314
0.19056
0.0195411
0.190367
0.0207332
0.190154
0.0220154
0.189923
0.0233964
0.189673
0.0248858
0.189405
0.0264942
0.18912
0.0282338
0.188819
0.0301183
0.188501
0.0321636
0.188166
0.0343873
0.187815
0.0368088
0.187446
0.0394488
0.187058
0.0423294
0.186653
0.0454749
0.186228
0.048912
0.185784
0.0526701
0.185321
0.0567819
0.184837
0.0612834
0.184333
0.0662137
0.183807
0.0716154
0.18326
0.0775345
0.18269
0.0840197
0.182097
0.0911222
0.18148
0.098895
0.180839
0.107392
0.180171
0.116665
0.179475
0.126765
0.178751
0.137739
0.177995
0.149551
0.163392
0.173618
-0.00120972
0.176162
-0.000944223
0.178278
-8.20117e-05
0.180095
0.000795712
0.181658
0.00158144
0.183033
0.00225166
0.184238
0.00289637
0.185298
0.00351057
0.186233
0.00409382
0.187058
0.00466027
0.187781
0.00522033
0.188416
0.00576997
0.188968
0.0063193
0.189447
0.00686899
0.189859
0.00742335
0.190211
0.00798565
0.190507
0.00855877
0.190752
0.00914596
0.19095
0.0097496
0.191105
0.0103721
0.19122
0.0110162
0.1913
0.0116861
0.191346
0.0123869
0.191361
0.0131234
0.191347
0.0139004
0.191306
0.0147227
0.191238
0.0155951
0.191146
0.0165232
0.19103
0.0175127
0.190892
0.0185694
0.190732
0.0197006
0.190552
0.0209133
0.190352
0.0222153
0.190133
0.0236155
0.189896
0.0251233
0.18964
0.0267496
0.189368
0.0285065
0.189078
0.0304078
0.188772
0.0324697
0.188449
0.0347103
0.188109
0.0371491
0.18775
0.0398071
0.187373
0.0427063
0.186978
0.0458709
0.186562
0.0493274
0.186127
0.0531055
0.185671
0.0572379
0.185194
0.0617604
0.184695
0.0667125
0.184174
0.0721367
0.183629
0.078079
0.18306
0.0845883
0.182467
0.091716
0.181847
0.0995151
0.181199
0.108039
0.180522
0.117342
0.179815
0.127472
0.179075
0.13848
0.178299
0.150326
0.164206
0.172176
-0.00378477
0.174753
-0.00352116
0.176954
-0.00228311
0.178752
-0.00100223
0.180306
2.74318e-05
0.181772
0.00078521
0.183039
0.00162913
0.184129
0.00242063
0.185078
0.00314536
0.185911
0.00382693
0.186648
0.00448355
0.187308
0.00511015
0.18789
0.00573726
0.188401
0.00635806
0.188845
0.00697955
0.189227
0.00760317
0.189554
0.00823223
0.189828
0.00887118
0.190056
0.00952245
0.190239
0.0101886
0.190384
0.0108718
0.190492
0.0115772
0.190568
0.0123112
0.190613
0.0130788
0.190628
0.0138849
0.190617
0.0147345
0.190579
0.0156329
0.190516
0.0165855
0.190431
0.0175984
0.190323
0.0186776
0.190193
0.0198301
0.190043
0.0210631
0.189874
0.0223845
0.189686
0.0238037
0.18948
0.0253297
0.189256
0.0269735
0.189015
0.0287473
0.188758
0.030665
0.188484
0.0327431
0.188194
0.0350002
0.187887
0.0374562
0.187562
0.0401322
0.187218
0.0430501
0.186855
0.0462339
0.186473
0.0497101
0.18607
0.0535085
0.185646
0.0576617
0.1852
0.0622059
0.184732
0.0671803
0.184241
0.0726277
0.183726
0.0785943
0.183186
0.0851289
0.182619
0.0922831
0.182024
0.10011
0.181399
0.108664
0.180744
0.117997
0.180055
0.128161
0.179331
0.139204
0.178567
0.15109
0.165013
0.169905
-0.00629203
0.172511
-0.0061267
0.174668
-0.00444056
0.176524
-0.00285806
0.17818
-0.00162808
0.179485
-0.000520261
0.180701
0.000413353
0.18183
0.00129153
0.182871
0.00210442
0.183804
0.00289352
0.184586
0.00370209
0.185268
0.00442761
0.185868
0.00513799
0.18641
0.00581594
0.186892
0.00649735
0.187316
0.00717902
0.187685
0.00786341
0.188002
0.00855443
0.188271
0.00925357
0.188496
0.00996343
0.188682
0.0106851
0.188834
0.0114255
0.188953
0.012192
0.189042
0.0129901
0.189102
0.0138248
0.189135
0.0147013
0.189143
0.015625
0.189127
0.0166017
0.189088
0.0176373
0.189027
0.0187384
0.188946
0.0199117
0.188844
0.0211648
0.188723
0.0225056
0.188584
0.0239429
0.188427
0.0254862
0.188254
0.0271468
0.188064
0.0289366
0.18786
0.0308698
0.18764
0.0329633
0.187404
0.0352361
0.187151
0.0377086
0.186881
0.0404021
0.186593
0.0433383
0.186286
0.0465409
0.18596
0.0500367
0.185613
0.0538551
0.185245
0.0580291
0.184856
0.0625949
0.184445
0.0675917
0.18401
0.0730627
0.18355
0.0790538
0.183065
0.0856143
0.182552
0.0927957
0.182011
0.100651
0.181439
0.109236
0.180834
0.118602
0.180195
0.1288
0.179518
0.139881
0.1788
0.151809
0.165778
0.166779
-0.00881346
0.169304
-0.00865163
0.17137
-0.00650729
0.173186
-0.00467355
0.174861
-0.00330356
0.17639
-0.00204889
0.177646
-0.000842474
0.178728
0.000209031
0.179706
0.0011268
0.180592
0.0020071
0.181458
0.00283673
0.182269
0.00361581
0.182939
0.00446894
0.183519
0.00523552
0.184031
0.00598526
0.184497
0.00671256
0.184917
0.00744436
0.185286
0.00818475
0.185608
0.00893153
0.185886
0.00968535
0.186127
0.0104443
0.186334
0.0112183
0.18651
0.0120164
0.186656
0.0128439
0.186775
0.0137061
0.186868
0.0146084
0.186936
0.0155564
0.186982
0.016556
0.187006
0.0176134
0.187009
0.0187351
0.186993
0.0199283
0.186957
0.0212004
0.186903
0.0225595
0.186832
0.0240145
0.186743
0.0255748
0.186639
0.0272508
0.18652
0.0290552
0.186388
0.0310024
0.186241
0.0331098
0.18608
0.035397
0.185904
0.037885
0.185711
0.0405951
0.185501
0.0435487
0.185272
0.0467695
0.185025
0.0502839
0.184758
0.0541218
0.184471
0.058316
0.184163
0.0629028
0.183833
0.0679217
0.18348
0.0734159
0.183103
0.0794314
0.182699
0.0860177
0.182268
0.0932265
0.181809
0.101111
0.181318
0.109726
0.180794
0.119126
0.180235
0.129359
0.179637
0.140479
0.178996
0.152449
0.166467
0.162832
-0.0113355
0.165184
-0.0110039
0.167139
-0.00846219
0.168943
-0.00647826
0.170617
-0.00497753
0.172119
-0.00355087
0.173484
-0.0022071
0.174674
-0.000980505
0.17569
0.000110782
0.176634
0.00106288
0.177483
0.00198788
0.178235
0.00286374
0.179
0.00370395
0.179716
0.00451874
0.180304
0.00539789
0.180815
0.00620111
0.181278
0.00698152
0.181704
0.00775927
0.182088
0.00854758
0.182429
0.00934409
0.182735
0.0101384
0.183008
0.0109445
0.183252
0.0117726
0.183468
0.0126279
0.183659
0.0135159
0.183825
0.0144422
0.183968
0.0154127
0.184091
0.0164336
0.184193
0.017511
0.184276
0.0186518
0.184342
0.0198631
0.184389
0.0211526
0.18442
0.0225285
0.184435
0.0239995
0.184435
0.0255754
0.184419
0.0272665
0.18439
0.0290846
0.184349
0.0310434
0.184296
0.0331627
0.18423
0.0354625
0.184151
0.0379643
0.184056
0.0406898
0.183945
0.0436596
0.183818
0.0468971
0.183672
0.0504291
0.183509
0.0542852
0.183327
0.0584985
0.183124
0.0631053
0.1829
0.0681454
0.182654
0.0736619
0.182385
0.0797012
0.18209
0.0863127
0.181768
0.0935483
0.181418
0.101462
0.181037
0.110107
0.180623
0.119539
0.180174
0.129808
0.179687
0.140966
0.179157
0.152979
0.167046
0.158036
-0.0137561
0.160125
-0.0130931
0.161958
-0.0102948
0.163746
-0.00826597
0.165424
-0.00665647
0.166954
-0.00508006
0.168349
-0.00360256
0.169601
-0.00223226
0.170733
-0.00102088
0.171698
9.77241e-05
0.172614
0.0010713
0.17346
0.00201836
0.174226
0.00293785
0.174921
0.00382335
0.17564
0.00467874
0.176285
0.00555653
0.176823
0.00644323
0.1773
0.00728206
0.17774
0.00810771
0.178148
0.00893645
0.178527
0.00975914
0.178877
0.0105944
0.1792
0.0114502
0.179497
0.0123308
0.17977
0.0132422
0.180022
0.0141903
0.180254
0.0151811
0.180467
0.0162207
0.180662
0.0173159
0.18084
0.0184734
0.181003
0.0197006
0.18115
0.0210052
0.181283
0.0223955
0.181402
0.0238804
0.181508
0.0254697
0.181601
0.0271737
0.181681
0.0290041
0.181751
0.0309742
0.181811
0.0331026
0.181861
0.0354125
0.181899
0.0379261
0.181924
0.0406651
0.181934
0.0436494
0.181929
0.0469021
0.181908
0.0504499
0.181871
0.0543225
0.181816
0.0585533
0.181743
0.0631787
0.18165
0.0682384
0.181536
0.0737759
0.181399
0.0798376
0.181239
0.086473
0.181053
0.0937342
0.18084
0.101675
0.180597
0.11035
0.180323
0.119814
0.180014
0.130117
0.179669
0.141311
0.179282
0.153366
0.167481
0.152413
-0.0159011
0.15414
-0.0148197
0.155849
-0.0120043
0.157625
-0.0100423
0.159302
-0.00833282
0.160836
-0.00661389
0.162257
-0.00502362
0.163589
-0.00356441
0.164786
-0.00221774
0.165867
-0.000983303
0.166829
0.000109123
0.167739
0.00110817
0.168598
0.00207912
0.169398
0.00302343
0.170122
0.0039548
0.170813
0.00486472
0.171515
0.00574165
0.172126
0.00667111
0.172637
0.00759713
0.173101
0.0084721
0.173548
0.00931207
0.173975
0.0101672
0.174382
0.0110433
0.174769
0.0119442
0.175136
0.0128752
0.175484
0.0138417
0.175816
0.0148496
0.176131
0.0159052
0.176432
0.0170152
0.176719
0.0181864
0.176993
0.0194264
0.177255
0.0207431
0.177506
0.0221448
0.177746
0.0236407
0.177975
0.0252404
0.178194
0.0269545
0.178404
0.0287943
0.178605
0.0307732
0.178797
0.0329105
0.178982
0.0352274
0.179158
0.0377499
0.179323
0.0405004
0.179475
0.0434971
0.179614
0.0467629
0.17974
0.0503244
0.179851
0.0542115
0.179946
0.0584577
0.180026
0.0630995
0.180087
0.0681769
0.18013
0.0737334
0.180152
0.0798155
0.180152
0.086473
0.180128
0.093758
0.180078
0.101724
0.180002
0.110427
0.179895
0.11992
0.179757
0.130255
0.179583
0.141485
0.179371
0.153578
0.167739
0.146008
-0.0177453
0.147261
-0.016073
0.148842
-0.0135855
0.150632
-0.0118315
0.152325
-0.0100267
0.1539
-0.00818828
0.155378
-0.00650154
0.156757
-0.00494344
0.158047
-0.00350815
0.159233
-0.00216885
0.160284
-0.00094262
0.161241
0.000151628
0.162179
0.00114106
0.163066
0.00213608
0.163911
0.00311036
0.164699
0.00407627
0.165403
0.00503843
0.166092
0.00598142
0.166754
0.0069357
0.167322
0.00790342
0.167855
0.00877953
0.168364
0.00965849
0.168857
0.01055
0.169336
0.0114655
0.1698
0.012411
0.17025
0.0133913
0.170688
0.0144121
0.171113
0.0154795
0.171529
0.0166001
0.171934
0.0177809
0.172331
0.0190296
0.17272
0.0203541
0.173102
0.021763
0.173477
0.0232655
0.173846
0.0248715
0.174209
0.0265915
0.174567
0.0284367
0.17492
0.0304202
0.175267
0.0325635
0.175606
0.0348879
0.17594
0.0374165
0.176264
0.0401758
0.176579
0.0431825
0.176883
0.0464587
0.177176
0.0500313
0.177457
0.0539303
0.177726
0.0581893
0.17798
0.062845
0.178219
0.0679376
0.178442
0.0735105
0.178647
0.0796107
0.178832
0.0862878
0.178996
0.093594
0.179137
0.101583
0.179253
0.110311
0.179343
0.119831
0.179403
0.130195
0.179432
0.141456
0.179426
0.153584
0.167787
0.138212
-0.0193703
0.139401
-0.0172621
0.141114
-0.0152983
0.142881
-0.0135986
0.144505
-0.0116508
0.146039
-0.00972236
0.147502
-0.00796457
0.148894
-0.0063355
0.150214
-0.00482758
0.151458
-0.0034134
0.152642
-0.00212657
0.15377
-0.000976586
0.154809
0.000101983
0.155751
0.00119399
0.156658
0.0022036
0.157522
0.00321277
0.15834
0.00422062
0.159128
0.00519246
0.159868
0.00619592
0.160584
0.00718777
0.161245
0.00811884
0.161875
0.00902816
0.162484
0.00994043
0.163079
0.010871
0.163662
0.0118281
0.164235
0.0128183
0.1648
0.0138474
0.165357
0.0149219
0.165909
0.0160484
0.166456
0.0172342
0.166998
0.0184869
0.167538
0.0198146
0.168075
0.0212262
0.168609
0.0227309
0.169142
0.024339
0.169672
0.0260611
0.170201
0.027908
0.170728
0.0298924
0.171252
0.0320397
0.171768
0.0343721
0.172275
0.0369093
0.172776
0.0396752
0.17327
0.0426883
0.173757
0.0459716
0.174237
0.0495518
0.174708
0.0534593
0.175169
0.0577278
0.17562
0.0623942
0.176059
0.0674988
0.176484
0.0730851
0.176895
0.0792002
0.177289
0.0858937
0.177665
0.0932179
0.178021
0.101227
0.178357
0.109976
0.178669
0.119519
0.178956
0.129908
0.179215
0.141196
0.179446
0.153353
0.167592
0.12881
-0.0196339
0.129381
-0.017833
0.130876
-0.0167936
0.132795
-0.0155181
0.134744
-0.0135993
0.136622
-0.0116007
0.138374
-0.00971623
0.139981
-0.00794256
0.141483
-0.00632935
0.142907
-0.00483798
0.144227
-0.00344581
0.145413
-0.0021628
0.146509
-0.000994182
0.14758
0.000122614
0.148638
0.00114562
0.149658
0.00219283
0.150569
0.0033099
0.151429
0.00433237
0.152288
0.00533729
0.153144
0.00633147
0.15397
0.00729291
0.154764
0.0082345
0.155531
0.00917345
0.156278
0.0101236
0.157011
0.0110952
0.157733
0.0120963
0.158446
0.0131339
0.159153
0.0142148
0.159856
0.0153461
0.160555
0.0165351
0.161252
0.0177899
0.161948
0.0191187
0.162643
0.0205305
0.163339
0.022035
0.164036
0.0236425
0.164733
0.025364
0.16543
0.0272106
0.166125
0.0291974
0.166816
0.0313489
0.167504
0.0336845
0.168189
0.0362241
0.168873
0.0389905
0.169558
0.0420042
0.17024
0.0452888
0.170921
0.0488713
0.171598
0.0527821
0.172271
0.0570551
0.172938
0.0617273
0.173597
0.0668392
0.174248
0.0724344
0.174888
0.07856
0.175516
0.0852656
0.17613
0.0926037
0.176729
0.100628
0.177311
0.109394
0.177873
0.118956
0.178416
0.129366
0.178935
0.140676
0.179433
0.152855
0.167122
0.163211
-0.0166474
-0.166198
0.161288
-0.01591
0.159471
-0.0149758
0.157933
-0.0139806
0.156892
-0.0125583
0.156228
-0.0109371
0.155824
-0.00931201
0.155637
-0.00775496
0.155591
-0.0062838
0.155652
-0.00489855
0.155799
-0.00359363
0.155973
-0.00233641
0.156141
-0.00116259
0.156323
-5.85129e-05
0.156519
0.00094952
0.156716
0.00199571
0.156972
0.00305385
0.157216
0.00408773
0.157464
0.00508996
0.157713
0.006082
0.157953
0.0070528
0.158181
0.00800657
0.158396
0.00895868
0.158598
0.00992121
0.15879
0.0109038
0.158972
0.0119146
0.159145
0.0129608
0.15931
0.0140494
0.159469
0.0151877
0.159621
0.0163831
0.159767
0.0176436
0.159908
0.0189776
0.160044
0.020394
0.160177
0.0219027
0.160305
0.023514
0.16043
0.025239
0.160551
0.0270899
0.160667
0.0290819
0.160779
0.0312369
0.160888
0.0335746
0.160997
0.0361153
0.161106
0.0388814
0.161216
0.0418944
0.161327
0.0451781
0.161438
0.0487597
0.161551
0.0526699
0.161663
0.0569425
0.161776
0.0616146
0.161888
0.0667268
0.162
0.072323
0.16211
0.0784503
0.162216
0.0851588
0.162319
0.092501
0.162416
0.100531
0.162506
0.109305
0.162585
0.118876
0.162653
0.129298
0.162706
0.140623
0.162743
0.152818
0.167107
0.173421
-0.0141421
-0.175927
0.171523
-0.0140115
0.169918
-0.0133712
0.168425
-0.0124869
0.167254
-0.0113875
0.166431
-0.0101145
0.165893
-0.00877372
0.165569
-0.00743106
0.165401
-0.00611567
0.165347
-0.00484435
0.165364
-0.00361095
0.165444
-0.00241669
0.165593
-0.00131077
0.165783
-0.000248514
0.165925
0.000807581
0.166093
0.0018271
0.166292
0.00285485
0.166509
0.00387088
0.166733
0.00486611
0.166963
0.00585238
0.16719
0.00682489
0.167411
0.00778632
0.167621
0.00874787
0.167823
0.00971997
0.168015
0.0107116
0.168199
0.0117305
0.168376
0.0127842
0.168545
0.0138797
0.168709
0.0150242
0.168867
0.0162253
0.16902
0.0174909
0.169168
0.0188295
0.169311
0.0202501
0.169452
0.0217626
0.169588
0.0233773
0.169722
0.0251057
0.169851
0.0269603
0.169976
0.0289566
0.170099
0.0311145
0.170219
0.0334541
0.170339
0.0359956
0.170459
0.0387613
0.17058
0.0417732
0.170703
0.0450557
0.170826
0.0486363
0.170951
0.0525454
0.171076
0.0568172
0.171201
0.061489
0.171327
0.0666013
0.171452
0.0721983
0.171575
0.0783274
0.171695
0.0850388
0.17181
0.0923854
0.171919
0.100422
0.17202
0.109204
0.172111
0.118786
0.172187
0.129222
0.172247
0.140563
0.17229
0.152776
0.167091
0.18418
-0.0120829
-0.186239
0.182345
-0.0121773
0.180739
-0.0117647
0.179316
-0.0110641
0.178138
-0.0102094
0.177235
-0.00921123
0.176578
-0.00811653
0.176122
-0.00697511
0.175826
-0.00582007
0.175653
-0.00467143
0.175583
-0.00354029
0.175603
-0.00243684
0.175663
-0.00137065
0.175748
-0.000333802
0.175873
0.000682819
0.176014
0.0016853
0.176182