/*--------------------------------*- C++ -*----------------------------------*\
| =========                 |                                                 |
| \\      /  F ield         | OpenFOAM: The Open Source CFD Toolbox           |
|  \\    /   O peration     | Version:  2512                                  |
|   \\  /    A nd           | Website:  www.openfoam.com                      |
|    \\/     M anipulation  |                                                 |
\*---------------------------------------------------------------------------*/
FoamFile
{
    version     2.0;
    format      ascii;
    arch        "LSB;label=32;scalar=64";
    class       volScalarField;
    location    "139.5";
    object      p;
}
// * * * * * * * * * * * * * * * * * * * * * * * * * * * * * * * * * * * * * //

dimensions      [0 2 -2 0 0 0 0];

internalField   nonuniform List<scalar> 
13248
(
-0.441671
-0.43897
-0.436469
-0.434242
-0.432301
-0.430641
-0.429107
-0.427392
-0.425089
-0.421735
-0.416864
-0.410068
-0.401055
-0.389687
-0.376
-0.360195
-0.342603
-0.32364
-0.303746
-0.283356
-0.262777
-0.242385
-0.221785
-0.201448
-0.450568
-0.447119
-0.443749
-0.440553
-0.437547
-0.434741
-0.431963
-0.428876
-0.425041
-0.419988
-0.413287
-0.40462
-0.393823
-0.380913
-0.366067
-0.349595
-0.331878
-0.313326
-0.294324
-0.275208
-0.256235
-0.237646
-0.219358
-0.201869
-0.460457
-0.456143
-0.451859
-0.447686
-0.4436
-0.439587
-0.435436
-0.430771
-0.425137
-0.418098
-0.409318
-0.398622
-0.386011
-0.371655
-0.355845
-0.338943
-0.321325
-0.30334
-0.285286
-0.267406
-0.249873
-0.232859
-0.2163
-0.200384
-0.47171
-0.466368
-0.461113
-0.455941
-0.450725
-0.445381
-0.439642
-0.433097
-0.42532
-0.415974
-0.404886
-0.392061
-0.377676
-0.36202
-0.345444
-0.328298
-0.310899
-0.29351
-0.276333
-0.259526
-0.2432
-0.227469
-0.212273
-0.197833
-0.484504
-0.477965
-0.471663
-0.46544
-0.458979
-0.452093
-0.444455
-0.435663
-0.425391
-0.41348
-0.399964
-0.385046
-0.369037
-0.352289
-0.335143
-0.31789
-0.300758
-0.283916
-0.267486
-0.251554
-0.236183
-0.221428
-0.207251
-0.193799
-0.498809
-0.490932
-0.483509
-0.476135
-0.468229
-0.459483
-0.449545
-0.438101
-0.425015
-0.410368
-0.394422
-0.377538
-0.360099
-0.342452
-0.324876
-0.307573
-0.290683
-0.274294
-0.258461
-0.243221
-0.228599
-0.21461
-0.201231
-0.188562
-0.514391
-0.505091
-0.496473
-0.487791
-0.478139
-0.467108
-0.454406
-0.439918
-0.423783
-0.406354
-0.388086
-0.369432
-0.350774
-0.332397
-0.314488
-0.29716
-0.280471
-0.264446
-0.249092
-0.234407
-0.220386
-0.207019
-0.19429
-0.182227
-0.530809
-0.520075
-0.510186
-0.499962
-0.488158
-0.474337
-0.4584
-0.440552
-0.421263
-0.401134
-0.380741
-0.360546
-0.340868
-0.321897
-0.303723
-0.286377
-0.26985
-0.254121
-0.239159
-0.224935
-0.211421
-0.198589
-0.186425
-0.174884
-0.547408
-0.5353
-0.524049
-0.511971
-0.497523
-0.480389
-0.460826
-0.43945
-0.41706
-0.394432
-0.372173
-0.350681
-0.330171
-0.310727
-0.292349
-0.274999
-0.25862
-0.243152
-0.228536
-0.214722
-0.201661
-0.189317
-0.177663
-0.166595
-0.563308
-0.549947
-0.537211
-0.52289
-0.505282
-0.484388
-0.460972
-0.436095
-0.410819
-0.385991
-0.362162
-0.339617
-0.318451
-0.298647
-0.280131
-0.26281
-0.246589
-0.231376
-0.217092
-0.203666
-0.191036
-0.179155
-0.167971
-0.157356
-0.577433
-0.562965
-0.548572
-0.531574
-0.510333
-0.485382
-0.458085
-0.429909
-0.402071
-0.375387
-0.350288
-0.326923
-0.30527
-0.285226
-0.266655
-0.249421
-0.233397
-0.218469
-0.204538
-0.191516
-0.179328
-0.167915
-0.157191
-0.147038
-0.588612
-0.573218
-0.55698
-0.536867
-0.51158
-0.482389
-0.451293
-0.420086
-0.390029
-0.361824
-0.335745
-0.311794
-0.289841
-0.269706
-0.251201
-0.234155
-0.218413
-0.203843
-0.190328
-0.177768
-0.166081
-0.155191
-0.144984
-0.135397
-0.339568
-0.342233
-0.343821
-0.344824
-0.345686
-0.346549
-0.34748
-0.348512
-0.349651
-0.350885
-0.352201
-0.353588
-0.355045
-0.356577
-0.358205
-0.359955
-0.361863
-0.363965
-0.366303
-0.368913
-0.371786
-0.374816
-0.377939
-0.381522
-0.343704
-0.346858
-0.348819
-0.350163
-0.351381
-0.3526
-0.353859
-0.355161
-0.356479
-0.357758
-0.358934
-0.35994
-0.360706
-0.361168
-0.361266
-0.360953
-0.360194
-0.358971
-0.357294
-0.355201
-0.352688
-0.349641
-0.346201
-0.343632
-0.349469
-0.352874
-0.355092
-0.35673
-0.358286
-0.359862
-0.361468
-0.363072
-0.364608
-0.36598
-0.367069
-0.367743
-0.367862
-0.367282
-0.36586
-0.363465
-0.35998
-0.355319
-0.349445
-0.342377
-0.334103
-0.324479
-0.313787
-0.304329
-0.356897
-0.360286
-0.362614
-0.364473
-0.366328
-0.368243
-0.370195
-0.372118
-0.373905
-0.375414
-0.376474
-0.376891
-0.376454
-0.374938
-0.372121
-0.367788
-0.361746
-0.353839
-0.343977
-0.332151
-0.318371
-0.30251
-0.284795
-0.268143
-0.365786
-0.368884
-0.371168
-0.373156
-0.375233
-0.377426
-0.379696
-0.381917
-0.383948
-0.385603
-0.386662
-0.38687
-0.385949
-0.383604
-0.37954
-0.373471
-0.365144
-0.354355
-0.340972
-0.324968
-0.306409
-0.285313
-0.261678
-0.237768
-0.375734
-0.378305
-0.380378
-0.382369
-0.384568
-0.386965
-0.389438
-0.391871
-0.394076
-0.395821
-0.396834
-0.396809
-0.395409
-0.392281
-0.387071
-0.379449
-0.369129
-0.355895
-0.339618
-0.320285
-0.298032
-0.2731
-0.245465
-0.215144
-0.38622
-0.388086
-0.389793
-0.391634
-0.393791
-0.396214
-0.398765
-0.401267
-0.403502
-0.405195
-0.406031
-0.405657
-0.403687
-0.399726
-0.393388
-0.384326
-0.372261
-0.357013
-0.338522
-0.316866
-0.292283
-0.265074
-0.235778
-0.203617
-0.39671
-0.397769
-0.39897
-0.400492
-0.402417
-0.404665
-0.407077
-0.409442
-0.411492
-0.412923
-0.413378
-0.412463
-0.40976
-0.404849
-0.397341
-0.386906
-0.373315
-0.356471
-0.336424
-0.313386
-0.287765
-0.259855
-0.231183
-0.199323
-0.406775
-0.406999
-0.40758
-0.408605
-0.410086
-0.411928
-0.413957
-0.41593
-0.417552
-0.418477
-0.418314
-0.41664
-0.413017
-0.407028
-0.398307
-0.386582
-0.371714
-0.353719
-0.332788
-0.309256
-0.283713
-0.256391
-0.229309
-0.199518
-0.416177
-0.415599
-0.415474
-0.415839
-0.416666
-0.417869
-0.419268
-0.420602
-0.421546
-0.421723
-0.420711
-0.418067
-0.413355
-0.40618
-0.396235
-0.38334
-0.36747
-0.348778
-0.327584
-0.304335
-0.279687
-0.253928
-0.228812
-0.201976
-0.424928
-0.423606
-0.422715
-0.422279
-0.42227
-0.422626
-0.423174
-0.423642
-0.423681
-0.422884
-0.420807
-0.417
-0.411045
-0.4026
-0.391445
-0.377514
-0.360912
-0.341913
-0.32093
-0.298481
-0.27517
-0.251444
-0.228461
-0.204677
-0.433283
-0.431264
-0.429564
-0.428231
-0.427256
-0.426615
-0.426149
-0.425574
-0.424516
-0.422541
-0.419188
-0.414014
-0.406644
-0.396819
-0.384434
-0.369553
-0.352404
-0.333349
-0.312837
-0.291374
-0.269419
-0.247512
-0.226279
-0.205606
-0.386606
-0.392566
-0.396264
-0.395951
-0.390646
-0.378008
-0.357989
-0.330661
-0.297789
-0.262188
-0.227699
-0.19793
-0.175506
-0.162106
-0.158933
-0.166694
-0.184211
-0.206679
-0.225852
-0.233503
-0.220292
-0.192842
-0.158486
-0.126198
-0.101362
-0.0854678
-0.0777595
-0.0767767
-0.0823397
-0.0959798
-0.11643
-0.135424
-0.141306
-0.132715
-0.112347
-0.0907874
-0.0751897
-0.066494
-0.063758
-0.0684592
-0.0813011
-0.0958174
-0.100451
-0.0917793
-0.0764587
-0.0621321
-0.0523403
-0.0471769
-0.0479496
-0.0504579
-0.049861
-0.0470631
-0.0427109
-0.0370711
-0.0337116
-0.0312674
-0.0287731
-0.0291285
-0.0233951
-0.00645159
-0.342591
-0.342558
-0.341739
-0.33876
-0.332368
-0.320964
-0.305079
-0.283542
-0.258263
-0.23067
-0.204238
-0.18206
-0.166621
-0.159885
-0.163397
-0.17767
-0.200652
-0.226609
-0.24683
-0.252408
-0.237449
-0.206311
-0.168065
-0.132305
-0.104484
-0.0858457
-0.0754694
-0.0718573
-0.0744734
-0.08453
-0.101429
-0.118341
-0.125165
-0.118524
-0.101745
-0.0838691
-0.0715739
-0.0656551
-0.0654316
-0.0728603
-0.0883821
-0.10499
-0.110084
-0.0999998
-0.0820118
-0.0647898
-0.0527069
-0.0453453
-0.0442137
-0.0448597
-0.0440432
-0.0420656
-0.039221
-0.0356463
-0.033955
-0.0337462
-0.0319375
-0.0326359
-0.0263616
-0.00727179
-0.297116
-0.289744
-0.283247
-0.27636
-0.268133
-0.25728
-0.243614
-0.227571
-0.210897
-0.191039
-0.172784
-0.158573
-0.150743
-0.151393
-0.162052
-0.182656
-0.210308
-0.238821
-0.259707
-0.264473
-0.248243
-0.214884
-0.174167
-0.136062
-0.106071
-0.085248
-0.0725493
-0.0664815
-0.0662937
-0.0728333
-0.0861127
-0.100816
-0.108114
-0.103596
-0.0903269
-0.0760925
-0.0670927
-0.0639825
-0.0663156
-0.0764263
-0.0944728
-0.113036
-0.1187
-0.107426
-0.087018
-0.0670416
-0.0528087
-0.0434686
-0.0406584
-0.0395964
-0.0384853
-0.0370933
-0.0356218
-0.0340924
-0.034133
-0.0362051
-0.0350489
-0.0360115
-0.0292191
-0.00807309
-0.255285
-0.239849
-0.226916
-0.215002
-0.2039
-0.192514
-0.180101
-0.166362
-0.158972
-0.145741
-0.135471
-0.129343
-0.129425
-0.137676
-0.155236
-0.181385
-0.212704
-0.243072
-0.264544
-0.269259
-0.252647
-0.218469
-0.176734
-0.137511
-0.106252
-0.0838906
-0.0693301
-0.0611076
-0.0583401
-0.0615779
-0.0712769
-0.0835658
-0.0908931
-0.0883917
-0.0784458
-0.067679
-0.0618427
-0.0614431
-0.0662278
-0.0788427
-0.0992168
-0.119651
-0.12603
-0.113864
-0.0913781
-0.0688709
-0.0526637
-0.0415809
-0.0373343
-0.0347393
-0.0332549
-0.0322158
-0.0319575
-0.0324247
-0.0342405
-0.0386269
-0.0380799
-0.0392162
-0.031932
-0.00884617
-0.221365
-0.198177
-0.178851
-0.161642
-0.145967
-0.133526
-0.119948
-0.110472
-0.106131
-0.099796
-0.0966505
-0.0979745
-0.1055
-0.12074
-0.14424
-0.174705
-0.208534
-0.240036
-0.261917
-0.267063
-0.25099
-0.217371
-0.176093
-0.137002
-0.105331
-0.08202
-0.066063
-0.0560614
-0.0510637
-0.0512899
-0.0575181
-0.0672231
-0.0741542
-0.0733722
-0.0664275
-0.0588232
-0.0558874
-0.057984
-0.0650057
-0.0798846
-0.102354
-0.124564
-0.131801
-0.119139
-0.095017
-0.0702848
-0.052306
-0.0397103
-0.0342623
-0.0303286
-0.028406
-0.0275045
-0.028274
-0.0306568
-0.0342725
-0.0409904
-0.0409973
-0.0422073
-0.0344663
-0.00958189
-0.197093
-0.167123
-0.141995
-0.121939
-0.0997194
-0.0872362
-0.0723597
-0.0655445
-0.0612918
-0.0595194
-0.0616698
-0.0688793
-0.0823734
-0.103064
-0.130869
-0.164067
-0.199124
-0.230964
-0.253196
-0.258842
-0.243971
-0.212098
-0.172654
-0.134852
-0.103584
-0.0798678
-0.0629289
-0.0515182
-0.0446826
-0.0423449
-0.0453374
-0.0523425
-0.0584692
-0.0590229
-0.0545877
-0.049727
-0.0493156
-0.0536146
-0.0626008
-0.0794441
-0.103715
-0.127576
-0.135824
-0.123124
-0.0978732
-0.071289
-0.0517633
-0.037872
-0.0314397
-0.02638
-0.0239762
-0.0230251
-0.0246127
-0.0287993
-0.0342211
-0.0432682
-0.0437651
-0.0449477
-0.0367909
-0.0102706
-0.183203
-0.151671
-0.121888
-0.0963466
-0.0734843
-0.0562373
-0.0445079
-0.0335762
-0.0292148
-0.0294445
-0.034647
-0.0455044
-0.062726
-0.0866673
-0.116745
-0.150981
-0.186022
-0.217374
-0.239438
-0.245724
-0.232588
-0.203444
-0.166967
-0.131424
-0.101268
-0.0776317
-0.0600664
-0.0475708
-0.0392498
-0.03482
-0.0349783
-0.0393025
-0.0443016
-0.0460231
-0.0432232
-0.0406291
-0.0422967
-0.0484432
-0.0590471
-0.0774715
-0.103235
-0.1286
-0.137988
-0.125729
-0.0998898
-0.0718828
-0.0510553
-0.0360742
-0.0288456
-0.0228759
-0.0199813
-0.0188354
-0.0210092
-0.0268603
-0.034075
-0.0454308
-0.0463526
-0.0474035
-0.038877
-0.0109025
-0.178157
-0.147272
-0.115681
-0.0873698
-0.0625138
-0.0420795
-0.026426
-0.0153384
-0.0105421
-0.0110452
-0.0171436
-0.0292922
-0.0478175
-0.0726848
-0.103013
-0.136718
-0.170623
-0.200763
-0.222161
-0.228929
-0.217878
-0.192207
-0.159538
-0.126986
-0.0985147
-0.0753864
-0.0575203
-0.0442325
-0.03475
-0.0286616
-0.0264551
-0.0282771
-0.0319068
-0.0338675
-0.0325698
-0.0318
-0.0350525
-0.0426224
-0.0544557
-0.0740334
-0.100936
-0.127635
-0.138266
-0.12692
-0.101033
-0.0720712
-0.0502028
-0.0343265
-0.0264675
-0.0197832
-0.0164095
-0.0149797
-0.0174924
-0.024847
-0.0338206
-0.0474508
-0.0487293
-0.0495393
-0.0406991
-0.0114704
-0.178715
-0.15007
-0.119566
-0.0906209
-0.0643034
-0.0413023
-0.0224633
-0.0103125
-0.00427114
-0.00354897
-0.00866924
-0.0200205
-0.0376993
-0.0614558
-0.0902932
-0.122121
-0.153965
-0.182205
-0.202513
-0.209637
-0.200938
-0.179262
-0.150949
-0.121869
-0.0955097
-0.0732662
-0.0554072
-0.0415931
-0.031235
-0.0238647
-0.019764
-0.0193402
-0.0214467
-0.0231572
-0.0229435
-0.0235062
-0.0278241
-0.0363633
-0.0489334
-0.0691944
-0.0969395
-0.124794
-0.136707
-0.126721
-0.101335
-0.0719342
-0.0492909
-0.0326708
-0.0243161
-0.0171043
-0.0132511
-0.0114546
-0.0140845
-0.0227645
-0.0334424
-0.0493023
-0.050867
-0.0513245
-0.0422327
-0.01197
-0.182077
-0.156449
-0.129108
-0.101925
-0.0760406
-0.0521779
-0.0297287
-0.0172551
-0.00848212
-0.005327
-0.00794632
-0.0168614
-0.0320093
-0.0530523
-0.0789846
-0.107822
-0.136755
-0.162473
-0.181416
-0.189091
-0.183086
-0.165788
-0.142151
-0.116833
-0.0928893
-0.0718308
-0.054226
-0.0400656
-0.0290115
-0.0206112
-0.0149812
-0.0125771
-0.0130773
-0.0142531
-0.0145645
-0.0159516
-0.0208029
-0.0298588
-0.0427777
-0.0633059
-0.0913865
-0.120201
-0.133399
-0.125199
-0.100866
-0.0716111
-0.0484751
-0.0311917
-0.0223864
-0.0148399
-0.0105515
-0.00819956
-0.0107931
-0.0206244
-0.0329229
-0.0509528
-0.0527329
-0.0527366
-0.0434508
-0.0123943
-0.185688
-0.163225
-0.13955
-0.114658
-0.0900573
-0.0672698
-0.0471587
-0.0301953
-0.0191302
-0.013286
-0.0123492
-0.0176553
-0.0291576
-0.0464057
-0.0685988
-0.0939097
-0.119599
-0.143278
-0.159731
-0.16787
-0.164712
-0.15207
-0.133352
-0.112037
-0.0907494
-0.0711022
-0.053945
-0.0395652
-0.0279274
-0.0186942
-0.0118292
-0.00768904
-0.00662268
-0.0072092
-0.00762726
-0.00934902
-0.0142713
-0.0233059
-0.0359105
-0.0562182
-0.0847232
-0.114407
-0.128346
-0.122267
-0.0993609
-0.0708611
-0.0476084
-0.0297994
-0.0205531
-0.0127828
-0.0082742
-0.00570523
-0.00763752
-0.0184036
-0.0322397
-0.0523893
-0.0542762
-0.0537529
-0.0443213
-0.0127158
-0.189661
-0.172177
-0.152889
-0.131096
-0.109192
-0.0886777
-0.0700415
-0.050262
-0.0356826
-0.0264776
-0.0226109
-0.0237889
-0.030537
-0.042737
-0.0595982
-0.0796474
-0.100887
-0.120508
-0.137492
-0.144637
-0.143845
-0.135528
-0.121407
-0.103977
-0.0854881
-0.0676089
-0.0514055
-0.0373379
-0.0256
-0.0160518
-0.00854468
-0.0031633
-0.000752139
-0.000872233
-0.00177993
-0.00356566
-0.00849587
-0.0172984
-0.0293571
-0.0488851
-0.076919
-0.106801
-0.121505
-0.117181
-0.0960496
-0.0686015
-0.0457081
-0.0278681
-0.0185093
-0.0105063
-0.00595158
-0.00349229
-0.00465456
-0.0162072
-0.0313808
-0.0535298
-0.0554879
-0.0543687
-0.0448492
-0.0128877
-0.178949
-0.170747
-0.152727
-0.131483
-0.111038
-0.0917887
-0.0738861
-0.0569908
-0.043682
-0.03449
-0.0294137
-0.0289799
-0.0337339
-0.0436241
-0.0579978
-0.0755329
-0.0944281
-0.112853
-0.125253
-0.131224
-0.130082
-0.122263
-0.109436
-0.0937162
-0.0769985
-0.0606888
-0.0457236
-0.0325069
-0.0212456
-0.0118803
-0.00430479
0.00156358
0.00492933
0.00571011
0.00517162
0.00332826
-0.00120632
-0.00905105
-0.0201532
-0.0394837
-0.0689382
-0.101475
-0.118306
-0.114614
-0.0926917
-0.065235
-0.0426815
-0.0252622
-0.0163383
-0.00815246
-0.00342434
-0.000477135
-0.00111582
-0.0135217
-0.0301659
-0.0545675
-0.0566991
-0.0546899
-0.0451402
-0.0129316
-0.169026
-0.16281
-0.14605
-0.126317
-0.108518
-0.0918256
-0.0765934
-0.0624557
-0.0506521
-0.0419519
-0.03685
-0.0358615
-0.039282
-0.0470243
-0.0585201
-0.0726431
-0.0877353
-0.10132
-0.111189
-0.115651
-0.114138
-0.107239
-0.0962681
-0.0828093
-0.068318
-0.0539213
-0.0404415
-0.0282605
-0.0176456
-0.00865067
-0.00118904
0.00489638
0.00875872
0.00993842
0.00929367
0.00747315
0.00378561
-0.00300854
-0.0130138
-0.0317046
-0.0617548
-0.0954057
-0.11256
-0.108294
-0.0871585
-0.0608382
-0.0394054
-0.0227139
-0.0141282
-0.0059919
-0.00148407
0.00169185
0.0013517
-0.011363
-0.0291901
-0.0552747
-0.0575293
-0.0544598
-0.04497
-0.0129069
-0.158769
-0.153628
-0.139621
-0.123099
-0.106952
-0.0924575
-0.0791961
-0.0669836
-0.0565558
-0.0486821
-0.0438687
-0.0424481
-0.0445866
-0.0501707
-0.0586987
-0.0692402
-0.0804374
-0.0905251
-0.0978275
-0.100993
-0.0995761
-0.0938823
-0.0847515
-0.0733191
-0.0607352
-0.0479485
-0.03572
-0.0244442
-0.0144081
-0.00573207
0.00156668
0.00768493
0.0118699
0.013463
0.0130168
0.0113125
0.0080207
0.00179847
-0.00767171
-0.0258796
-0.0552492
-0.0877604
-0.10459
-0.100509
-0.0807718
-0.0560642
-0.0359429
-0.0200783
-0.011893
-0.00389636
0.000365048
0.00365195
0.00330788
-0.00965913
-0.0284267
-0.0556213
-0.0579557
-0.0537465
-0.0443744
-0.0128368
-0.147029
-0.144139
-0.132881
-0.118467
-0.104543
-0.0920806
-0.0807206
-0.0702853
-0.0612308
-0.0541696
-0.0495338
-0.0475934
-0.0484708
-0.0520617
-0.0579726
-0.0655002
-0.0735769
-0.0808902
-0.0861577
-0.088358
-0.0869956
-0.0821567
-0.0744079
-0.0645948
-0.0536302
-0.0422893
-0.0312387
-0.0208574
-0.0114325
-0.00311625
0.00396248
0.0100013
0.0144105
0.0164768
0.0164185
0.0150175
0.0122462
0.00654085
-0.00254158
-0.0199633
-0.0476859
-0.0787239
-0.0954544
-0.091712
-0.0735322
-0.0507577
-0.0322194
-0.0173602
-0.00963772
-0.00185308
0.0021764
0.00545205
0.00509316
-0.00803136
-0.0274677
-0.055485
-0.0579584
-0.052582
-0.0433131
-0.0126889
-0.135688
-0.134679
-0.1257
-0.113419
-0.101462
-0.0908154
-0.0811818
-0.0723222
-0.0644841
-0.0581305
-0.0536493
-0.0512872
-0.051142
-0.0531349
-0.0569616
-0.0620534
-0.0676276
-0.0726821
-0.0762653
-0.077541
-0.0760569
-0.0718092
-0.065165
-0.0567164
-0.0471563
-0.0371008
-0.0271219
-0.017581
-0.00876786
-0.000834981
0.00600447
0.0118952
0.016411
0.0188816
0.0193141
0.0184548
0.0164307
0.0114668
0.0031128
-0.0129929
-0.0389272
-0.0686841
-0.0851125
-0.0818563
-0.0655073
-0.0450087
-0.0282975
-0.0145933
-0.00738184
0.000133527
0.00393475
0.00703114
0.00677019
-0.00627361
-0.0261101
-0.0547405
-0.0574178
-0.0509006
-0.0417356
-0.0124332
-0.125054
-0.12512
-0.118096
-0.107878
-0.0977501
-0.088729
-0.0806031
-0.073103
-0.0663394
-0.0606598
-0.0564014
-0.0537819
-0.0528808
-0.0536326
-0.0557977
-0.0589318
-0.0624921
-0.0657123
-0.0678628
-0.0683019
-0.0666477
-0.0628259
-0.0570433
-0.0496979
-0.0413121
-0.0323747
-0.0233665
-0.014616
-0.00641249
0.00110617
0.0076887
0.0133954
0.0179167
0.0206967
0.0216829
0.0215273
0.0204354
0.0164943
0.00921757
-0.00539087
-0.0295698
-0.0577911
-0.0737088
-0.0711668
-0.0569101
-0.038929
-0.0242267
-0.0118053
-0.00514488
0.00204825
0.00563555
0.00839645
0.0083132
-0.00437086
-0.0243031
-0.0531953
-0.0561676
-0.0486501
-0.0396145
-0.0120408
-0.114561
-0.115487
-0.110229
-0.101909
-0.0934454
-0.0858669
-0.0790541
-0.07274
-0.066946
-0.0619208
-0.0579403
-0.0551912
-0.0537431
-0.0535455
-0.0544211
-0.0560692
-0.0580137
-0.0597594
-0.0607435
-0.060474
-0.0586231
-0.055077
-0.0499426
-0.0434824
-0.0360824
-0.0281207
-0.019992
-0.0119812
-0.0043724
0.00270756
0.00901051
0.0145253
0.0189954
0.0219916
0.0235172
0.0240829
0.0240637
0.0213864
0.0153614
0.00223526
-0.0200664
-0.0464056
-0.0616282
-0.0599626
-0.0479919
-0.0326665
-0.0200739
-0.0090288
-0.00294584
0.00387942
0.00728541
0.00957795
0.00968897
-0.00234658
-0.0219633
-0.0506275
-0.0540449
-0.0458071
-0.036948
-0.0114868
-0.10429
-0.106043
-0.10229
-0.0956152
-0.0886227
-0.0823178
-0.0766517
-0.0713739
-0.0664468
-0.0620377
-0.0583648
-0.0555876
-0.053772
-0.0528866
-0.0527951
-0.0532866
-0.0540245
-0.0546306
-0.0546897
-0.0538267
-0.0517718
-0.0484033
-0.0437657
-0.0380228
-0.0314508
-0.0243364
-0.0169993
-0.0096786
-0.00264257
0.00398583
0.00998247
0.0152982
0.0196927
0.0228261
0.0246611
0.0260057
0.0270528
0.0257947
0.021153
0.00948036
-0.0109206
-0.0350665
-0.0492935
-0.0485946
-0.039044
-0.0264011
-0.0159164
-0.00629473
-0.000799181
0.00562013
0.00889279
0.0106264
0.0109012
-0.000167302
-0.0189675
-0.0468482
-0.0509062
-0.0423787
-0.0337714
-0.0107547
-0.0946716
-0.0969382
-0.0943583
-0.0890774
-0.0833721
-0.0781853
-0.0735167
-0.0691391
-0.0649789
-0.0611424
-0.0577984
-0.055082
-0.0530547
-0.0516994
-0.050924
-0.0505662
-0.050399
-0.0501385
-0.04948
-0.0481418
-0.0459092
-0.042666
-0.0384169
-0.0332579
-0.0273826
-0.0210041
-0.0143785
-0.00770133
-0.00121363
0.00496255
0.0106308
0.0157281
0.0200345
0.0232728
0.0254693
0.0272953
0.0291872
0.0292712
0.026012
0.0157522
-0.00268086
-0.0241876
-0.0369542
-0.0374744
-0.0303817
-0.020326
-0.0118408
-0.00363376
0.00128508
0.00726825
0.0104666
0.0116271
0.0120133
0.00223649
-0.0152344
-0.0417574
-0.0466623
-0.038406
-0.0301635
-0.00984166
-0.0856599
-0.0881538
-0.0864932
-0.082393
-0.0778024
-0.0735853
-0.0697771
-0.0661777
-0.0626939
-0.0593866
-0.0563836
-0.0537964
-0.0516812
-0.0500332
-0.0487926
-0.0478438
-0.0470222
-0.046126
-0.0449353
-0.0432404
-0.0408731
-0.0377295
-0.0337937
-0.0291178
-0.0238345
-0.018099
-0.0121125
-0.00603358
-6.92425e-05
0.00566111
0.0109871
0.0158422
0.0200402
0.0233435
0.0258105
0.0279588
0.0303586
0.0313964
0.0292414
0.0204346
0.00432483
-0.0141028
-0.0254283
-0.0270781
-0.0223131
-0.0146259
-0.007939
-0.00107868
0.00329754
0.00882692
0.0120147
0.0126959
0.0131357
0.00491194
-0.0107798
-0.0354023
-0.041321
-0.0339703
-0.0262458
-0.00876309
-0.0770764
-0.0797235
-0.0788035
-0.0756817
-0.0720322
-0.068641
-0.0655677
-0.0626372
-0.0597464
-0.0569229
-0.0542611
-0.0518519
-0.0497461
-0.0479476
-0.0464184
-0.0450777
-0.0438101
-0.0424738
-0.0409113
-0.0389682
-0.0365159
-0.0334675
-0.029798
-0.025532
-0.0207584
-0.0155881
-0.0101767
-0.00465225
0.000813033
0.00610799
0.0110844
0.0156748
0.0197293
0.023048
0.0256942
0.0280282
0.0305839
0.0320403
0.0306077
0.0233531
0.00994827
-0.00524176
-0.0151492
-0.017831
-0.0150899
-0.00944877
-0.00429846
0.00133545
0.00522061
0.0102963
0.0135368
0.013947
0.0143944
0.00785299
-0.00574864
-0.0280304
-0.0349666
-0.0291996
-0.0221769
-0.00755468
-0.0690096
-0.071734
-0.0713731
-0.0690367
-0.0661667
-0.0634701
-0.0610183
-0.0586582
-0.056283
-0.0538967
-0.0515675
-0.0493683
-0.0473442
-0.0455041
-0.0438246
-0.0422519
-0.0407067
-0.0390896
-0.0372897
-0.0351957
-0.0327118
-0.0297681
-0.0263377
-0.0224294
-0.0181016
-0.0134327
-0.0085412
-0.00352934
0.00146115
0.00633247
0.0109567
0.0152626
0.0191333
0.0224124
0.0251412
0.0275382
0.0299959
0.0314686
0.0304659
0.0247192
0.0140475
0.00189613
-0.00662941
-0.0100241
-0.00886047
-0.00488511
-0.000990644
0.00357563
0.00702626
0.0116584
0.0150066
0.0154432
0.0158919
0.0109888
-0.000432786
-0.020122
-0.0277138
-0.0242596
-0.0181335
-0.00627218
-0.0615266
-0.0642019
-0.0642364
-0.0625258
-0.0602984
-0.0581809
-0.0562497
-0.0543715
-0.052441
-0.0504457
-0.0484336
-0.0464622
-0.0445694
-0.0427688
-0.0410456
-0.0393655
-0.0376744
-0.0359044
-0.0339786
-0.0318187
-0.0293546
-0.0265325
-0.0233278
-0.019741
-0.0158104
-0.0115907
-0.00717172
-0.00263406
0.00190716
0.00636732
0.0106375
0.0146459
0.0183011
0.0214793
0.024191
0.0265465
0.0287722
0.0300688
0.0293133
0.0248528
0.016596
0.00708362
-9.51716e-05
-0.00373584
-0.00365671
-0.000966277
0.00193669
0.00561345
0.00868319
0.0128772
0.0163505
0.0171309
0.0176469
0.014169
0.00475354
-0.0123472
-0.0205848
-0.0193698
-0.0142885
-0.00498442
-0.0545535
-0.057112
-0.0574286
-0.056215
-0.0545122
-0.0528716
-0.0513714
-0.0498966
-0.0483462
-0.0466969
-0.0449807
-0.043243
-0.0415154
-0.0398103
-0.0381216
-0.0364276
-0.0346922
-0.0328699
-0.0309083
-0.0287534
-0.0263555
-0.0236749
-0.0206913
-0.0174016
-0.0138313
-0.0100187
-0.00603158
-0.00193301
0.00218398
0.00624757
0.0101645
0.0138683
0.0172811
0.0203016
0.0229116
0.0251471
0.0270936
0.0281609
0.027551
0.0241189
0.0178461
0.010515
0.00459182
0.00113248
0.000573492
0.00231957
0.00446237
0.00742308
0.0101615
0.0139177
0.0174613
0.018802
0.0194932
0.0171172
0.0093417
-0.00534805
-0.0139128
-0.0147381
-0.0107878
-0.00376265
-0.0480616
-0.0504779
-0.050988
-0.0501604
-0.0488783
-0.0476256
-0.0464785
-0.045338
-0.0441094
-0.0427629
-0.041318
-0.0398098
-0.0382647
-0.0366938
-0.035095
-0.0334555
-0.0317518
-0.0299537
-0.0280265
-0.025934
-0.023642
-0.0211224
-0.0183599
-0.015351
-0.0121131
-0.00867332
-0.00508323
-0.00139197
0.00232521
0.00600894
0.00957789
0.012972
0.01612
0.0189425
0.021395
0.0234595
0.0251322
0.0259931
0.0254919
0.0228772
0.0181765
0.0125911
0.00776933
0.00478074
0.0039273
0.00500951
0.00658757
0.00898061
0.0114291
0.014757
0.018249
0.0201503
0.0210475
0.019412
0.0128961
0.000428955
-0.00798539
-0.0105317
-0.00773171
-0.00266873
-0.0420612
-0.0443048
-0.0449322
-0.0443985
-0.0434511
-0.042511
-0.0416504
-0.0407843
-0.0398256
-0.0387409
-0.0375408
-0.036252
-0.0348957
-0.0334815
-0.0320092
-0.0304714
-0.0288534
-0.0271358
-0.0252956
-0.0233098
-0.0211555
-0.018814
-0.0162746
-0.013535
-0.0106077
-0.00751272
-0.00428966
-0.000976868
0.00236469
0.00568582
0.00891509
0.0120003
0.0148735
0.0174717
0.0197317
0.0216053
0.0230415
0.023749
0.023357
0.0213978
0.0179179
0.0137183
0.00987805
0.00744076
0.00651789
0.00715431
0.00832646
0.0102666
0.0124524
0.0153659
0.0186548
0.020925
0.0218966
0.0206575
0.0151432
0.0047843
-0.00294729
-0.00687328
-0.00516874
-0.00174633
-0.0365268
-0.0385783
-0.0392672
-0.0389556
-0.0382728
-0.0375825
-0.0369521
-0.036309
-0.0355744
-0.0347137
-0.0337311
-0.0326469
-0.0314776
-0.0302303
-0.0289055
-0.0274998
-0.0260039
-0.0244056
-0.0226901
-0.0208431
-0.0188503
-0.0166999
-0.0143855
-0.011906
-0.00927179
-0.00649784
-0.00361549
-0.000654774
0.00233417
0.00531106
0.00821319
0.0109966
0.0135954
0.0159559
0.0180078
0.0196938
0.0209407
0.0215511
0.0212784
0.0198511
0.0173182
0.0142147
0.0112612
0.00932137
0.00845879
0.00881051
0.00969855
0.0112724
0.0132041
0.0157131
0.0186466
0.0210135
0.0218526
0.02078
0.0161109
0.00769367
-0.000117581
-0.00386133
-0.00309706
-0.00101281
-0.0314295
-0.0332858
-0.0339968
-0.0338501
-0.0333742
-0.0328818
-0.0324345
-0.0319709
-0.0314207
-0.03075
-0.0299579
-0.0290598
-0.0280687
-0.0269895
-0.0258223
-0.0245657
-0.0232141
-0.0217599
-0.0201937
-0.018507
-0.0166916
-0.0147407
-0.0126513
-0.0104237
-0.00806715
-0.00559346
-0.00302819
-0.000395122
0.00226384
0.00491618
0.00750747
0.00999996
0.012331
0.0144548
0.0163004
0.0178135
0.0189147
0.0194743
0.0193282
0.0183337
0.016538
0.0142948
0.0121068
0.0105903
0.00985608
0.0100365
0.0107279
0.0120014
0.0136712
0.0157942
0.0182592
0.0204915
0.0210548
0.0200457
0.0160994
0.00946282
0.00284735
-0.00138537
-0.00146772
-0.000456284
-0.026751
-0.0284139
-0.0291177
-0.0290906
-0.028775
-0.0284383
-0.0281356
-0.0278154
-0.0274156
-0.0269042
-0.0262772
-0.0255446
-0.0247179
-0.0238019
-0.0227944
-0.0216938
-0.0204973
-0.0192005
-0.0177974
-0.0162834
-0.0146539
-0.0129061
-0.0110391
-0.00905476
-0.00696142
-0.00476908
-0.002499
-0.000170296
0.00218172
0.00453044
0.00682863
0.00904438
0.0111203
0.0130176
0.0146676
0.0160281
0.0170197
0.0175599
0.0175406
0.0168969
0.0156705
0.0140957
0.0125318
0.0113834
0.010803
0.0108906
0.0114433
0.0124679
0.0138677
0.0156226
0.0175596
0.0191339
0.0197525
0.0188137
0.0154753
0.0103062
0.00479421
0.000537128
-0.000217305
-4.64272e-05
-0.022468
-0.0239439
-0.0246209
-0.0246789
-0.0244869
-0.0242716
-0.0240822
-0.0238754
-0.0235972
-0.023218
-0.0227322
-0.0221454
-0.0214676
-0.0207048
-0.0198524
-0.0189072
-0.0178679
-0.0167328
-0.015498
-0.014161
-0.0127197
-0.0111736
-0.0095237
-0.00777262
-0.00592819
-0.00399913
-0.00200335
4.3332e-05
0.00211133
0.00417856
0.00620368
0.00816013
0.00999679
0.0116826
0.0131542
0.0143816
0.0152887
0.0158278
0.0159277
0.0155636
0.0147716
0.0137112
0.0126396
0.0118066
0.0113809
0.0114282
0.011877
0.0126938
0.0138306
0.015243
0.0167151
0.0179306
0.0182559
0.0173679
0.0145342
0.010483
0.00594213
0.00194762
0.000716396
0.000249428
-0.018557
-0.0198569
-0.0204946
-0.0206117
-0.020514
-0.020393
-0.0202916
-0.020174
-0.0199934
-0.0197231
-0.0193566
-0.0188964
-0.0183479
-0.0177288
-0.0170224
-0.0162264
-0.0153404
-0.0143641
-0.0132957
-0.0121338
-0.0108776
-0.00952789
-0.0080867
-0.00655729
-0.0049469
-0.00326323
-0.00152151
0.00026499
0.00207135
0.00387923
0.00565326
0.0073709
0.0089871
0.0104788
0.0117973
0.0128996
0.0137384
0.0142838
0.0144859
0.0143398
0.0138799
0.0132091
0.0125135
0.0119431
0.0116605
0.0116992
0.0120657
0.0127097
0.0136025
0.0147027
0.0157812
0.0166397
0.0167171
0.0158774
0.0134674
0.0102309
0.00651644
0.00292125
0.00138669
0.000458164
-0.0149967
-0.0161334
-0.0167245
-0.016881
-0.0168549
-0.0168067
-0.0167733
-0.0167254
-0.0166234
-0.0164437
-0.0161805
-0.0158359
-0.0154151
-0.0149081
-0.0143289
-0.0136701
-0.0129281
-0.0121028
-0.0111937
-0.0102
-0.00912133
-0.00795902
-0.0067156
-0.00539457
-0.0040025
-0.00254619
-0.00103873
0.000508884
0.0020756
0.00364584
0.00519035
0.00669032
0.00810672
0.00941932
0.0105874
0.0115857
0.0123714
0.0129224
0.0132058
0.0132269
0.0130162
0.0126357
0.0122222
0.011864
0.0117026
0.0117491
0.012049
0.012549
0.0132247
0.0140426
0.0147474
0.01534
0.015228
0.0144328
0.0123839
0.00973609
0.00669691
0.00353857
0.00183859
0.000599274
-0.0117653
-0.0127529
-0.0132942
-0.0134756
-0.0135035
-0.0135108
-0.0135294
-0.0135351
-0.0134946
-0.0133873
-0.013207
-0.0129545
-0.0126305
-0.0122358
-0.0117771
-0.0112466
-0.0106397
-0.00995608
-0.00919612
-0.00836015
-0.00744828
-0.00646168
-0.00540295
-0.00427551
-0.00308521
-0.00183813
-0.000545143
0.000784218
0.00213244
0.00348696
0.00482279
0.00612465
0.00736123
0.00851379
0.00954539
0.0104427
0.0111815
0.011733
0.0120766
0.012221
0.0121918
0.0120248
0.0118202
0.0116261
0.0115603
0.0116213
0.0118653
0.0122456
0.0127364
0.0133186
0.0137676
0.0140968
0.0138402
0.0130793
0.01134
0.00912419
0.00661603
0.00387905
0.00211563
0.000687299
-0.00884209
-0.00969524
-0.0101865
-0.0103824
-0.0104505
-0.0105001
-0.0105581
-0.0106047
-0.0106124
-0.0105637
-0.0104526
-0.0102795
-0.0100455
-0.00975094
-0.00939136
-0.00897147
-0.00848572
-0.00793123
-0.00730807
-0.00661708
-0.00585875
-0.00503409
-0.00414537
-0.00319563
-0.00219001
-0.00113374
-3.59203e-05
0.00109545
0.00224608
0.00340528
0.00455284
0.00567619
0.00674937
0.00775908
0.00867513
0.00949116
0.0101642
0.010704
0.0110864
0.0113156
0.0114136
0.0114006
0.0113452
0.0112737
0.0112795
0.0113547
0.0115507
0.0118321
0.0121704
0.012559
0.0128027
0.0129311
0.0125752
0.0118386
0.0103594
0.00847158
0.00637094
0.0040141
0.0022592
0.000734552
-0.00620778
-0.00694117
-0.00738399
-0.007587
-0.00768479
-0.00776632
-0.00785378
-0.00793145
-0.00797659
-0.00797454
-0.0079199
-0.00781225
-0.0076523
-0.00743922
-0.00717195
-0.00684964
-0.00647142
-0.00603339
-0.00553415
-0.00497441
-0.00435511
-0.00367731
-0.00294285
-0.00215426
-0.00131584
-0.000432017
0.000489737
0.00144283
0.00241559