/*--------------------------------*- C++ -*----------------------------------*\
| =========                 |                                                 |
| \\      /  F ield         | OpenFOAM: The Open Source CFD Toolbox           |
|  \\    /   O peration     | Version:  2512                                  |
|   \\  /    A nd           | Website:  www.openfoam.com                      |
|    \\/     M anipulation  |                                                 |
\*---------------------------------------------------------------------------*/
FoamFile
{
    version     2.0;
    format      ascii;
    arch        "LSB;label=32;scalar=64";
    class       surfaceScalarField;
    location    "101";
    object      phi;
}
// * * * * * * * * * * * * * * * * * * * * * * * * * * * * * * * * * * * * * //

dimensions      [0 3 -1 0 0 0 0];

oriented        oriented;

internalField   nonuniform List<scalar> 
26232
(
8.48503e-06
0.000823472
-0.000831957
0.000192815
0.00135083
-0.00153516
0.000725176
0.000965707
-0.00149807
0.00178343
-0.000248322
-0.000809927
0.00354588
-0.00225294
0.000490488
0.00618641
-0.00503188
0.00239135
0.00986476
-0.00857507
0.00489672
0.0147142
-0.0128627
0.00801321
0.0208269
-0.0178511
0.0117384
0.0282393
-0.0234641
0.0160517
0.0369213
-0.0295902
0.0209082
0.0467718
-0.0360876
0.0262371
0.0576219
-0.0427945
0.0319444
0.069246
-0.0495424
0.0379184
0.0813795
-0.0561714
0.0440379
0.0937398
-0.0625427
0.0501823
0.106049
-0.0685489
0.0562394
0.118055
-0.0741206
0.0621145
0.129549
-0.0792262
0.0677322
0.140377
-0.0838803
0.0730524
0.150445
-0.088104
0.0780359
0.159719
-0.0920252
0.0827518
0.168193
-0.0955626
0.0870885
-0.0991955
0.0917282
0.17566
8.90158e-05
0.000734456
0.000522694
0.000917154
0.00148615
2.24985e-06
0.00317053
-0.0019327
0.00576428
-0.00484669
0.00944083
-0.00870843
0.0143406
-0.0134748
0.0205503
-0.0190724
0.028084
-0.0253848
0.0368694
-0.0322496
0.0467462
-0.039467
0.0574752
-0.0468167
0.0687603
-0.0540796
0.0802771
-0.0610593
0.0917052
-0.0675995
0.102758
-0.0735958
0.113209
-0.079
0.122907
-0.0838182
0.131783
-0.0881021
0.139843
-0.0919404
0.147171
-0.0954324
0.153871
-0.0987249
0.160118
-0.101809
-0.105126
0.166048
0.00017227
0.000562186
0.000872857
0.000216567
0.00230389
-0.00142878
0.00466676
-0.00429557
0.00814852
-0.00832845
0.0128987
-0.0134586
0.0190018
-0.0195779
0.0264518
-0.0265225
0.0351362
-0.0340692
0.0448363
-0.0419497
0.0552464
-0.049877
0.0660076
-0.0575778
0.0767505
-0.0648226
0.0871386
-0.0714473
0.0969038
-0.0773646
0.105871
-0.0825625
0.113965
-0.0870946
0.12121
-0.0910628
0.127704
-0.0945967
0.133599
-0.0978352
0.139069
-0.100903
0.144269
-0.103924
0.149368
-0.106908
-0.110167
0.154409
0.000263607
0.000298579
0.00125589
-0.000775711
0.00319327
-0.00336617
0.00627739
-0.00737969
0.0106709
-0.012722
0.0164629
-0.0192506
0.0236352
-0.0267502
0.032042
-0.0349293
0.0414128
-0.04344
0.0513816
-0.0519185
0.061536
-0.0600314
0.0714745
-0.0675164
0.0808599
-0.074208
0.0894571
-0.0800445
0.0971509
-0.0850584
0.103942
-0.0893541
0.109928
-0.0930798
0.115264
-0.096399
0.120134
-0.0994668
0.124713
-0.102414
0.129148
-0.105338
0.133539
-0.108315
0.137974
-0.111343
-0.114627
0.142434
0.000368257
-6.96772e-05
0.0016821
-0.00208955
0.00416113
-0.00584519
0.00798591
-0.0112045
0.0132597
-0.0179958
0.0199652
-0.025956
0.0279359
-0.0347209
0.0368595
-0.0438529
0.046317
-0.0528975
0.055848
-0.0614495
0.0650243
-0.0692077
0.0735122
-0.0760043
0.0811101
-0.0818058
0.0877561
-0.0866905
0.0935098
-0.0908122
0.0985157
-0.09436
0.102959
-0.0975234
0.107028
-0.100468
0.110883
-0.103321
0.114644
-0.106176
0.118394
-0.109088
0.122174
-0.112095
0.126024
-0.115193
-0.118508
0.129905
0.000489035
-0.000558712
0.00215289
-0.00375341
0.00519275
-0.00888505
0.00973533
-0.0157471
0.0157804
-0.0240408
0.0231595
-0.0333351
0.0315334
-0.0430948
0.040438
-0.0527575
0.0493668
-0.0618263
0.0578621
-0.0699448
0.0655874
-0.076933
0.0723639
-0.0827809
0.0781684
-0.0876103
0.0831
-0.0916221
0.0873313
-0.0950435
0.0910592
-0.0980879
0.0944659
-0.10093
0.0976975
-0.103699
0.100858
-0.106481
0.104012
-0.10933
0.107198
-0.112274
0.110432
-0.11533
0.113734
-0.118495
-0.121836
0.117062
0.000625003
-0.00118371
0.00265641
-0.00578482
0.00624566
-0.0124743
0.0114242
-0.0209256
0.0180444
-0.030661
0.025761
-0.0410517
0.0340761
-0.0514099
0.0424361
-0.0611176
0.0503441
-0.0697343
0.0574456
-0.0770463
0.063567
-0.0830544
0.0687049
-0.0879187
0.072981
-0.0918864
0.0765833
-0.0952244
0.0797128
-0.098173
0.0825464
-0.100921
0.0852197
-0.103603
0.0878255
-0.106305
0.0904215
-0.109077
0.09304
-0.111948
0.0956975
-0.114931
0.0983995
-0.118032
0.101152
-0.121247
-0.124607
0.103923
0.00077124
-0.00195495
0.00316792
-0.00818149
0.00725341
-0.0165598
0.0129212
-0.0265935
0.0198467
-0.0375865
0.0275153
-0.0487204
0.0353277
-0.0592223
0.0427335
-0.0685233
0.0493382
-0.076339
0.0549503
-0.0826584
0.0595664
-0.0876705
0.0633167
-0.091669
0.066397
-0.0949667
0.0690113
-0.0978387
0.0713344
-0.100496
0.073497
-0.103084
0.0755866
-0.105693
0.0776563
-0.108375
0.0797356
-0.111157
0.0818398
-0.114053
0.0839752
-0.117067
0.0861429
-0.1202
0.0883442
-0.123449
-0.126818
0.0905552
0.000919731
-0.00287469
0.00365347
-0.0109152
0.00813659
-0.0210429
0.014091
-0.0325478
0.021012
-0.0445075
0.0282618
-0.0559702
0.0352234
-0.0661839
0.0414369
-0.0747368
0.0466649
-0.0815671
0.050882
-0.0868755
0.054213
-0.0910015
0.0568568
-0.0943127
0.0590213
-0.0971311
0.0608835
-0.0997009
0.0625742
-0.102187
0.0641795
-0.104689
0.0657508
-0.107264
0.0673165
-0.10994
0.0688915
-0.112732
0.0704824
-0.115644
0.0720919
-0.118676
0.0737197
-0.121827
0.0753643
-0.125093
-0.128464
0.077011
0.00106031
-0.00393499
0.00407501
-0.0139299
0.00881673
-0.0257846
0.0148211
-0.0385522
0.0214327
-0.0511191
0.0279625
-0.0625
0.0338589
-0.0720802
0.0388067
-0.0796846
0.0427317
-0.085492
0.0457373
-0.0898811
0.0480192
-0.0932834
0.0497901
-0.0960837
0.0512339
-0.0985749
0.0524859
-0.100953
0.0536348
-0.103336
0.0547331
-0.105788
0.0558095
-0.108341
0.056879
-0.11101
0.057949
-0.113802
0.059023
-0.116717
0.0601015
-0.119755
0.0611839
-0.12291
0.0622674
-0.126177
-0.129541
0.0633443
0.0011824
-0.00511739
0.00439698
-0.0171445
0.00923046
-0.0306181
0.0150425
-0.0443643
0.0210832
-0.0571597
0.0266898
-0.0681067
0.0314348
-0.0768252
0.0351615
-0.0834113
0.0379296
-0.0882601
0.0399212
-0.0918727
0.041353
-0.0947152
0.0424187
-0.0971494
0.0432634
-0.0994196
0.0439825
-0.101672
0.0446323
-0.103986
0.0452432
-0.106399
0.0458311
-0.108929
0.0464041
-0.111583
0.0469664
-0.114364
0.0475199
-0.117271
0.0480645
-0.120299
0.0485989
-0.123444
0.0491193
-0.126697
-0.130045
0.0496225
0.00127905
-0.00639644
0.00459431
-0.0204598
0.00934038
-0.0353642
0.0147377
-0.0497616
0.020012
-0.0624341
0.0245916
-0.0726862
0.0281972
-0.0804309
0.0308125
-0.0860266
0.0325876
-0.0900353
0.0337373
-0.0930223
0.034467
-0.0954448
0.0349361
-0.0976185
0.0352514
-0.0997349
0.0354762
-0.101897
0.0356445
-0.104154
0.0357738
-0.106528
0.0358728
-0.109028
0.0359465
-0.111657
0.0359977
-0.114415
0.0360276
-0.117301
0.0360366
-0.120308
0.0360231
-0.123431
0.0359834
-0.126657
0.0359172
-0.129978
-0.00023007
-0.00231563
0.0025457
-0.000831843
-0.00556428
0.00616605
-0.0017488
-0.00781862
0.00873558
-0.00293027
-0.00928225
0.0104637
-0.00433039
-0.0101474
0.0115475
-0.00591022
-0.010587
0.0121668
-0.00763884
-0.0107406
0.0124692
-0.00949272
-0.0107067
0.0125605
-0.011454
-0.0105416
0.0125029
-0.0135081
-0.0102647
0.0123188
-0.0156415
-0.00986578
0.0119992
-0.0178395
-0.00931457
0.0115126
-0.0200843
-0.00856809
0.0108129
-0.0223537
-0.00757675
0.00984606
-0.0246198
-0.0062881
0.00855428
-0.0268485
-0.00465058
0.0068792
-0.0289984
-0.00261338
0.00476335
-0.0310035
-0.000138184
0.00214322
-0.0328325
0.0027917
-0.000962674
-0.0344309
0.0062191
-0.00462069
-0.0357382
0.010143
-0.00883574
-0.0367084
0.0145505
-0.0135803
-0.0373248
0.0194286
-0.0188122
0.0247622
-0.0376474
-0.0244396
-0.00029805
-0.00201758
-0.0010417
-0.00482063
-0.00213482
-0.00672551
-0.00350137
-0.0079157
-0.00508121
-0.00856758
-0.00682896
-0.00883922
-0.00871208
-0.00885747
-0.0107077
-0.00871102
-0.0127991
-0.00845022
-0.014972
-0.00809181
-0.0172113
-0.00762647
-0.0194989
-0.00702701
-0.0218114
-0.00625558
-0.0241191
-0.005269
-0.0263848
-0.00402244
-0.028565
-0.00247041
-0.0306022
-0.000576171
-0.0324189
0.00167853
-0.0339669
0.00433969
-0.0351656
0.00741783
-0.0359432
0.0109206
-0.0362354
0.0148427
-0.0359834
0.0191767
0.0239674
-0.0351887
-0.00034521
-0.00167237
-0.00118218
-0.00398366
-0.00238231
-0.00552537
-0.00384784
-0.00645017
-0.00550516
-0.00691027
-0.00730103
-0.00704335
-0.00919825
-0.00696024
-0.0111706
-0.00673862
-0.013198
-0.00642288
-0.0152615
-0.00602829
-0.0173403
-0.00554769
-0.0194086
-0.00495866
-0.0214342
-0.00422998
-0.0233768
-0.00332643
-0.025187
-0.00221228
-0.0268064
-0.000850937
-0.0281579
0.000775248
-0.0291774
0.00269805
-0.0297697
0.00493198
-0.0298385
0.00748664
-0.0292859
0.010368
-0.028024
0.0135808
-0.0259678
0.0171205
0.0209985
-0.0229989
-0.000371821
-0.00130055
-0.00125614
-0.00309934
-0.00250017
-0.00428135
-0.00398864
-0.0049617
-0.00563572
-0.00526318
-0.00737938
-0.00529969
-0.00917529
-0.00516432
-0.0109906
-0.00492332
-0.012798
-0.00461547
-0.0145708
-0.00425546
-0.0162792
-0.00383931
-0.0178874
-0.0033505
-0.0193521
-0.0027653
-0.0206213
-0.00205715
-0.0216345
-0.00119913
-0.022316
-0.000169458
-0.0225917
0.00105094
-0.0223688
0.00247523
-0.0215462
0.00410937
-0.0200122
0.00595264
-0.0176452
0.00800099
-0.0143187
0.0102542
-0.00993722
0.012739
0.0156283
-0.00456698
-0.000380379
-0.000920168
-0.00127208
-0.00220764
-0.00250646
-0.00304697
-0.0039554
-0.00351276
-0.00552276
-0.00369583
-0.00713753
-0.00368492
-0.00874693
-0.00355493
-0.0103094
-0.00336081
-0.0117887
-0.00313624
-0.0131483
-0.00289585
-0.0143481
-0.00263946
-0.0153418
-0.00235681
-0.0160752
-0.00203195
-0.0164855
-0.0016468
-0.0165007
-0.00118396
-0.016041
-0.000629187
-0.0150176
2.76069e-05
-0.0133328
0.00079045
-0.0108792
0.00165568
-0.00753868
0.00261217
-0.00317886
0.00364117
0.00234733
0.00472805
0.00920971
0.00587665
0.00713829
0.0176997
-0.000373724
-0.000546444
-0.00123894
-0.00134242
-0.0024187
-0.0018672
-0.00377664
-0.00215482
-0.00520845
-0.00226401
-0.00663479
-0.00225857
-0.00799393
-0.0021958
-0.00923479
-0.00211995
-0.0103109
-0.00206012
-0.0111755
-0.00203126
-0.0117779
-0.00203704
-0.0120614
-0.00207335
-0.0119617
-0.0021316
-0.011407
-0.00220152
-0.0103175
-0.00227344
-0.0086066
-0.0023401
-0.00618045
-0.00239854
-0.00293961
-0.00245039
0.00122151
-0.00250544
0.00641571
-0.00258203
0.0127654
-0.00270853
0.0204179
-0.00292447
0.0295031
-0.00320856
-0.00391922
0.0405607
-0.000353709
-0.000192736
-0.00116196
-0.000534174
-0.00224582
-0.000783338
-0.00346451
-0.00093614
-0.00470725
-0.00102127
-0.00588692
-0.0010789
-0.00693212
-0.00115059
-0.00778099
-0.00127108
-0.00837544
-0.00146567
-0.00865664
-0.00175006
-0.00856185
-0.00213182
-0.00802262
-0.00261259
-0.00696387
-0.00319035
-0.00530401
-0.00386138
-0.00295547
-0.00462198
0.000174349
-0.00546992
0.00418168
-0.00640587
0.00916604
-0.00743475
0.0152282
-0.00856761
0.0224691
-0.00982297
0.0309841
-0.0112235
0.0409144
-0.0128548
0.0522054
-0.0144996
-0.0174018
0.0656879
-0.000320735
0.000128
-0.00104135
0.000186437
-0.00198565
0.000160968
-0.00301097
8.91805e-05
-0.00399975
-3.24992e-05
-0.00485732
-0.000221325
-0.00549972
-0.0005082
-0.00585142
-0.000919382
-0.00583911
-0.00147798
-0.00538795
-0.00220123
-0.00441917
-0.0031006
-0.00284904
-0.00418272
-0.000588918
-0.00545048
0.0024538
-0.0069041
0.00637403
-0.00854222
0.0112671
-0.010363
0.0172264
-0.0123652
0.0243413
-0.0145497
0.0326944
-0.0169208
0.0423623
-0.0194908
0.053389
-0.0222503
0.065898
-0.0253637
0.0796333
-0.0282348
-0.0331889
0.0954204
-0.000274427
0.000402426
-0.000874371
0.000786381
-0.00162909
0.000915683
-0.00239412
0.00085422
-0.00304696
0.000620339
-0.00347735
0.000209064
-0.0035877
-0.000397847
-0.00328431
-0.00122278
-0.00247368
-0.00228861
-0.0010608
-0.0036141
0.00105188
-0.00521328
0.00396376
-0.0070946
0.00777407
-0.00926078
0.0125789
-0.011709
0.018468
-0.0144313
0.025521
-0.0174159
0.0338042
-0.0206484
0.0433677
-0.0241133
0.0542421
-0.0277951
0.06644
-0.0316886
0.0799308
-0.035741
0.0947317
-0.0401646
0.110577
-0.0440804
-0.0504269
0.127815
-0.000215284
0.00061771
-0.000660441
0.00123154
-0.00117075
0.00142599
-0.00159899
0.00128247
-0.00181187
0.000833219
-0.00168517
8.23559e-05
-0.00110161
-0.000981403
5.47617e-05
-0.00237915
0.00189839
-0.00413224
0.00454279
-0.0062585
0.00809815
-0.00876864
0.0126675
-0.0116639
0.0183417
-0.014935
0.0251944
-0.0185616
0.0332768
-0.0225137
0.0426141
-0.0267533
0.0532032
-0.0312374
0.0650107
-0.0359209
0.0779743
-0.0407587
0.0920014
-0.0457158
0.106978
-0.0507181
0.122733
-0.055919
0.139185
-0.060533
-0.067123
0.155881
-0.000145513
0.000763223
-0.000403968
0.00148999
-0.00061485
0.00163687
-0.000625302
0.00129292
-0.000289452
0.000497369
0.000533801
-0.000740898
0.00198301
-0.00243061
0.00419264
-0.00458878
0.00729165
-0.00723124
0.0113987
-0.0103655
0.0166155
-0.0139855
0.0230196
-0.0180681
0.030657
-0.0225724
0.0395364
-0.027441
0.0496259
-0.0326033
0.0608529
-0.0379803
0.0731059
-0.0434904
0.0862399
-0.0490549
0.100083
-0.0546016
0.114443
-0.0600759
0.129136
-0.0654114
0.143889
-0.0706714
0.158793
-0.0754368
-0.0811509
0.17282
-6.87341e-05
-0.000113904
2.49004e-05
0.000507891
0.00149575
0.0031462
0.0056123
0.00903673
0.0135439
0.0192301
0.0261528
0.0343219
0.043694
0.0541714
0.0656061
0.077808
0.0905571
0.103617
0.116747
0.129724
0.142348
0.154429
0.16608
0.176658
-0.035884
0.0403646
-0.042128
-0.0335271
0.0512039
-0.0535607
-0.0304656
0.0623456
-0.0654072
-0.0265955
0.0731852
-0.0770552
-0.0217298
0.0829728
-0.0878385
-0.0156042
0.0908203
-0.0969459
-0.00796122
0.0957683
-0.103411
0.00147289
0.0966315
-0.106066
0.0127532
0.0923816
-0.103662
0.0254936
0.0821494
-0.0948898
0.0392775
0.065614
-0.0793979
0.0533344
0.042856
-0.0569129
0.0671063
0.0144311
-0.028203
0.0802995
-0.0187065
0.0055133
0.0927498
-0.0553553
0.0429051
0.104099
-0.0920412
0.0806922
0.11363
-0.123769
0.114238
0.120531
-0.146397
0.139495
0.124451
-0.158949
0.15503
0.125728
-0.163233
0.161956
0.124655
-0.162186
0.163259
0.120754
-0.160123
0.164024
0.11384
-0.161941
0.168855
0.105835
-0.167328
0.175332
0.100656
-0.165903
0.171082
0.101431
-0.142206
0.141431
0.108338
-0.0895317
0.0826241
0.119232
-0.0168096
0.00591571
0.131072
0.0578927
-0.0697327
0.141243
0.119411
-0.129582
0.148414
0.161005
-0.168177
0.152669
0.183562
-0.187817
0.153935
0.193309
-0.194575
0.151251
0.202693
-0.200008
0.144632
0.219755
-0.213137
0.136807
0.231913
-0.224088
0.131805
0.213176
-0.208173
0.131837
0.143885
-0.143917
0.136504
0.0416495
-0.0463168
0.143315
-0.0659618
0.0591506
0.150189
-0.14529
0.138416
0.154785
-0.194894
0.190297
0.154653
-0.218802
0.218935
0.148853
-0.236718
0.242518
0.140165
-0.250978
0.259666
0.13369
-0.226227
0.232702
0.133447
-0.165579
0.165822
0.138836
-0.040932
0.0355431
0.146102
0.0574089
-0.0646747
0.149669
0.161997
-0.165564
0.147292
0.228361
-0.225983
0.141645
0.271966
-0.26632
0.138177
0.294682
-0.291214
0.139509
0.178001
-0.179332
0.143542
0.115797
-0.11983
0.144776
-0.0711221
0.0698879
0.143199
-0.169515
0.171092
0.141341
-0.249213
0.251071
0.139934
-0.361207
0.362614
-0.125715
0.127157
-0.03213
0.037306
-0.0281464
0.0472203
-0.0230931
0.0572923
-0.0169211
0.0670132
-0.00948843
0.0755402
-0.000645342
0.0819772
0.00970026
0.0854227
0.0214138
0.084918
0.0342814
0.079514
0.0478403
0.0685905
0.0614919
0.0519624
0.0745991
0.0297488
0.0868247
0.00220542
0.0979375
-0.0298193
0.107946
-0.065364
0.116516
-0.100611
0.12304
-0.130293
0.126968
-0.150324
0.128174
-0.160155
0.127163
-0.162222
0.124518
-0.159541
0.119844
-0.155448
0.112327
-0.154424
0.103015
-0.158016
0.095736
-0.158623
0.0946374
-0.141107
0.100873
-0.0957677
0.112405
-0.0283416
0.125725
0.0445735
0.137753
0.107383
0.146918
0.151841
0.152987
0.177493
0.155594
0.190702
0.15391
0.204377
0.148317
0.225348
0.141548
0.238682
0.137116
0.217608
0.136855
0.144147
0.140493
0.0380116
0.145778
-0.071247
0.151034
-0.150545
0.154391
-0.198251
0.153637
-0.218049
0.147516
-0.230597
0.138576
-0.242038
0.131962
-0.219613
0.132052
-0.165669
0.138069
-0.046949
0.14587
0.0496083
0.149803
0.158064
0.147585
0.230579
0.142072
0.277479
0.138462
0.298292
0.139766
0.176697
0.144062
0.111501
0.145461
-0.0725214
0.143902
-0.167955
0.14196
-0.247271
0.140511
-0.359758
-0.124223
-0.0187908
0.0330979
-0.0135005
0.04193
-0.0069599
0.0507516
0.00103488
0.0590184
0.0104294
0.0661457
0.0210017
0.0714048
0.0326641
0.0737603
0.0452435
0.0723386
0.0583576
0.0663999
0.0714885
0.0554596
0.0840895
0.0393613
0.0956523
0.0181861
0.105817
-0.0079597
0.114743
-0.0387449
0.122266
-0.072887
0.128053
-0.106398
0.131595
-0.133835
0.132642
-0.151372
0.13137
-0.158883
0.128384
-0.159236
0.124406
-0.155563
0.11924
-0.150283
0.111669
-0.146853
0.101703
-0.14805
0.0926177
-0.149538
0.0893477
-0.137837
0.0943157
-0.100736
0.105919
-0.0399445
0.120315
0.0301771
0.13402
0.0936778
0.145143
0.140718
0.153049
0.169587
0.157111
0.186639
0.156675
0.204813
0.152365
0.229658
0.146727
0.244321
0.142759
0.221575
0.142039
0.144867
0.144472
0.0355786
0.148199
-0.0749739
0.151812
-0.154159
0.153934
-0.200373
0.152658
-0.216773
0.146394
-0.224333
0.137342
-0.232986
0.130604
-0.212876
0.130909
-0.165973
0.137414
-0.0534541
0.145684
0.0413379
0.150023
0.153724
0.148031
0.232571
0.142682
0.282828
0.138914
0.302059
0.140142
0.175468
0.144712
0.10693
0.146297
-0.0741067
0.14473
-0.166387
0.142677
-0.245219
0.141197
-0.358278
-0.122706
0.000781703
0.0277492
0.00740726
0.0353044
0.0152453
0.0429136
0.0242315
0.0500322
0.0343215
0.0560558
0.04546
0.0602663
0.0573985
0.0618218
0.0698019
0.0599351
0.0822364
0.0539654
0.0942112
0.0434848
0.105263
0.0283096
0.115011
0.00843757
0.12329
-0.0162382
0.130111
-0.0455654
0.135321
-0.0780972
0.138481
-0.109558
0.139178
-0.134533
0.137498
-0.149692
0.133992
-0.155377
0.129345
-0.154589
0.124247
-0.150465
0.118748
-0.144785
0.111575
-0.139679
0.101755
-0.13823
0.0914589
-0.139242
0.0858726
-0.132251
0.0889062
-0.103769
0.0997933
-0.0508316
0.114842
0.0151285
0.129999
0.0785211
0.143002
0.127715
0.152749
0.15984
0.158387
0.181001
0.159436
0.203764
0.156624
0.23247
0.152181
0.248764
0.148572
0.225184
0.147208
0.146231
0.14839
0.0343971
0.15053
-0.0771142
0.152521
-0.15615
0.153407
-0.201259
0.15167
-0.215036
0.145416
-0.218079
0.136392
-0.223961
0.129555
-0.20604
0.12995
-0.166369
0.136814
-0.0603182
0.145511
0.0326412
0.150312
0.148923
0.148631
0.234252
0.143498
0.287962
0.139564
0.305993
0.140657
0.174375
0.145488
0.1021
0.147274
-0.0758932
0.145679
-0.164792
0.14349
-0.243029
0.141981
-0.356768
-0.121186
0.0238941
0.0215549
0.0309002
0.0282982
0.0389833
0.0348305
0.0481839
0.0408316
0.0583776
0.0458621
0.0693638
0.04928
0.0808535
0.0503322
0.0924755
0.0483131
0.103794
0.0426467
0.11437
0.0329087
0.123816
0.0188643
0.132028
0.000225519
0.138694
-0.0229043
0.143759
-0.0506303
0.14685
-0.0811889
0.147466
-0.110174
0.145435
-0.132501
0.141255
-0.145511
0.13583
-0.149953
0.129905
-0.148663
0.123989
-0.144549
0.118256
-0.139052
0.111705
-0.133128
0.102731
-0.129256
0.0920927
-0.128603
0.0844242
-0.124582
0.0848841
-0.104229
0.0943045
-0.0602519
0.109383
4.96073e-05
0.125662
0.062242
0.140382
0.112995
0.151924
0.148298
0.159247
0.173678
0.161996
0.201015
0.160877
0.233589
0.157695
0.251946
0.154376
0.228503
0.152293
0.148313
0.152091
0.0345995
0.152707
-0.0777301
0.153125
-0.156568
0.152784
-0.200918
0.150634
-0.212886
0.14452
-0.211965
0.135651
-0.215092
0.12874
-0.199129
0.12911
-0.166738
0.136211
-0.0674199
0.145305
0.0235481
0.150639
0.143589
0.149379
0.235512
0.144534
0.292806
0.140438
0.31009
0.141328
0.173485
0.14638
0.0970477
0.148379
-0.0778922
0.146744
-0.163157
0.144394
-0.24068
0.142852
-0.355226
-0.119687
0.0467405
0.015375
0.0536561
0.0213827
0.061532
0.0269545
0.0704328
0.0319308
0.0801908
0.0361042
0.0905502
0.0389205
0.10121
0.039672
0.111805
0.0377187
0.121927
0.0325246
0.131215
0.0236204
0.139329
0.0107502
0.146293
-0.00673783
0.151675
-0.0282868
0.155228
-0.0541833
0.15635
-0.0823104
0.154568
-0.108392
0.150065
-0.127999
0.143749
-0.139195
0.136777
-0.142981
0.129933
-0.141819
0.123513
-0.138129
0.117635
-0.133173
0.111718
-0.127212
0.104063
-0.121601
0.0940501
-0.118591
0.0849868
-0.115519
0.0826309
-0.101873
0.0897305
-0.0673515
0.104068
-0.0142879
0.120998
0.0453122
0.137151
0.0968426
0.150382
0.135066
0.159459
0.1646
0.164087
0.196387
0.164835
0.232841
0.163019
0.253762
0.159996
0.231525
0.157124
0.151185
0.155507
0.0362163
0.154658
-0.076881
0.153585
-0.155494
0.152035
-0.199368
0.1495
-0.210351
0.143633
-0.206097
0.135033
-0.206492
0.128073
-0.192168
0.128307
-0.166972
0.135538
-0.0746511
0.145008
0.0140784
0.150962
0.137635
0.15025
0.236224
0.145791
0.297266
0.141547
0.314333
0.142161
0.172871
0.147385
0.0918234
0.149596
-0.080103
0.147916
-0.161476
0.145384
-0.238148
0.1438
-0.353643
-0.118231
0.07052
0.010543
0.07626
0.0156426
0.0830805
0.0201341
0.0909741
0.0240371
0.0997066
0.0273717
0.109008
0.0296189
0.118581
0.0300993
0.12806
0.0282401
0.137057
0.023527
0.145268
0.0154095
0.152357
0.00366096
0.158216
-0.0125969
0.16242
-0.0324904
0.164426
-0.0561892
0.163547
-0.0814312
0.159498
-0.104344
0.152855
-0.121356
0.14485
-0.13119
0.136749
-0.134881
0.129315
-0.134384
0.122676
-0.13149
0.11677
-0.127267
0.111351
-0.121793
0.105123
-0.115373
0.0965829
-0.11005
0.0872158
-0.106152
0.0823202
-0.0969778
0.0864607
-0.071492
0.0990571
-0.0268843
0.116029
0.0283399
0.133206
0.079666
0.147942
0.12033
0.158785
0.153758
0.165424
0.189749
0.168205
0.230059
0.167871
0.254096
0.165206
0.23419
0.161544
0.154847
0.158557
0.0392035
0.156309
-0.0746335
0.153854
-0.153039
0.151126
-0.19664
0.148216
-0.207442
0.142681
-0.200562
0.13445
-0.198262
0.127463
-0.185182
0.127461
-0.16697
0.134721
-0.0819108
0.144556
0.00424325
0.151226
0.130965
0.151208
0.236242
0.147251
0.301223
0.142893
0.318692
0.143165
0.172599
0.148488
0.0865002
0.150907
-0.0825219
0.149183
-0.159753
0.14645
-0.235414
0.144813
-0.352006
-0.116841
0.0977625
0.00820086
0.101312
0.0120928
0.106166
0.0152804
0.112192
0.0180111
0.119141
0.0204222
0.126787
0.0219729
0.134836
0.0220509
0.142908
0.0201676
0.150612
0.0158236
0.157509
0.0085128
0.163769
-0.00259953
0.168265
-0.0170933
0.170982
-0.0352072
0.171156
-0.0563629
0.168172
-0.0784476
0.162047
-0.0982185
0.153696
-0.113004
0.144518
-0.122012
0.135732
-0.126095
0.127994
-0.126646
0.121344
-0.124841
0.115551
-0.121474
0.110485
-0.116727
0.105464
-0.110352
0.0988358
-0.103422
0.0903561
-0.0976723
0.083812
-0.0904337
0.0847107
-0.0723907
0.094708
-0.0368815
0.110853
0.012195
0.1285
0.0620193
0.144472
0.104358
0.157022
0.141207
0.165718
0.181053
0.170615
0.225162
0.171888
0.252823
0.169739
0.23634
0.165421
0.159165
0.161116
0.0435079
0.157574
-0.0710913
0.153869
-0.149334
0.150017
-0.192788
0.146727
-0.204152
0.141592
-0.195426
0.133822
-0.190492
0.126824
-0.178183
0.126493
-0.166639
0.133688
-0.0891057
0.143878
-0.00594643
0.151367
0.123476
0.152199
0.23541
0.14888
0.304541
0.144462
0.32311
0.144337
0.172723
0.149675
0.0811624
0.152291
-0.0851386
0.150532
-0.157993
0.147579
-0.232462
0.145877
-0.350304
-0.115541
0.127777
0.008239
0.129048
0.0108218
0.131615
0.0127137
0.135299
0.0143272
0.139948
0.0157727
0.145412
0.0165097
0.151404
0.0160581
0.15757
0.0140025
0.163548
0.00984497
0.168836
0.00322465
0.173285
-0.00704773
0.176107
-0.0199159
0.176892
-0.0359922
0.174962
-0.0544324
0.169911
-0.0733974
0.162073
-0.0903799
0.152559
-0.10349
0.14275
-0.112203
0.133695
-0.117041
0.125891
-0.118841
0.119351
-0.118301
0.113784
-0.115907
0.109013
-0.111956
0.104835
-0.106173
0.100064
-0.0986514
0.0933927
-0.0910006
0.0865369
-0.0835779
0.0846139
-0.0704677
0.0913212
-0.0435888
0.105649
-0.00213248
0.123043
0.0446247
0.139871
0.0875304
0.153981
0.127097
0.164754
0.17028
0.171896
0.21802
0.174898
0.249822
0.173355
0.237883
0.168556
0.163964
0.1631
0.0489636
0.158356
-0.0663473
0.153549
-0.144526
0.148648
-0.187888
0.144961
-0.200464
0.140282
-0.190748
0.133075
-0.183285
0.126082
-0.17119
0.125325
-0.165882
0.132373
-0.0961539
0.142904
-0.0164774
0.151313
0.115067
0.153158
0.233564
0.150629
0.307071
0.146221
0.327518
0.145673
0.173272
0.150928
0.0759068
0.153729
-0.0879396
0.151945
-0.156209
0.148759
-0.229275
0.146978
-0.348523
-0.114361
0.154569
0.0095512
0.154435
0.0109557
0.155281
0.0118682
0.15698
0.0126276
0.159549
0.0132043
0.16286
0.013198
0.166651
0.0122676
0.170617
0.0100362
0.174438
0.00602431
0.177878
-0.000215142
0.180033
-0.00920282
0.180721
-0.0206045
0.179317
-0.0345878
0.175299
-0.0504143
0.168514
-0.0666132
0.159518
-0.0813835
0.14944
-0.0934118
0.139482
-0.102245
0.130478
-0.108037
0.122782
-0.111146
0.116411
-0.11193
0.111134
-0.11063
0.106695
-0.107518
0.103074
-0.102552
0.099759
-0.0953368
0.0952677
-0.0865093
0.0894496
-0.0777598
0.085853
-0.0668711
0.0892262
-0.046962
0.100665
-0.0135712
0.116957
0.0283323
0.134116
0.070372
0.149539
0.111673
0.162267
0.157553
0.17159
0.208697
0.176432
0.24498
0.175753
0.238562
0.170737
0.168981
0.164428
0.0552719
0.158599
-0.060518
0.15283
-0.138758
0.146987
-0.182044
0.142871
-0.196349
0.138682
-0.186559
0.132159
-0.176763
0.125199
-0.16423
0.123909
-0.164593
0.130701
-0.102946
0.141578
-0.027354
0.150989
0.105657
0.154002
0.230551
0.152422
0.308651
0.148131
0.33181
0.147147
0.174256
0.152232
0.0708219
0.155198
-0.0909057
0.153404
-0.154415
0.149973
-0.225845
0.148104
-0.346655
-0.113335
0.171429
0.0109429
0.170906
0.0114781
0.170906
0.0118689
0.171516
0.0120176
0.172799
0.011921
0.174604
0.0113928
0.176719
0.0101527
0.178907
0.00784806
0.180772
0.00416015
0.182075
-0.0015187
0.18234
-0.00946776
0.181067
-0.0193312
0.177805
-0.031326
0.17222
-0.0448289
0.164392
-0.0587853
0.154968
-0.0719594
0.144947
-0.0833907
0.135275
-0.0925738
0.126581
-0.0993419
0.119123
-0.103688
0.112933
-0.10574
0.107895
-0.105592
0.103766
-0.103389
0.100486
-0.0992717
0.0980459
-0.092897
0.0954574
-0.0839208
0.09151
-0.0738124
0.0876885
-0.0630497
0.0883212
-0.0475947
0.0964181
-0.021668
0.110536
0.0142143
0.127267
0.0536411
0.143688
0.0952523
0.158398
0.142842
0.170105
0.196991
0.176894
0.23819
0.177033
0.238423
0.172089
0.173924
0.165161
0.0622001
0.158459
-0.053816
0.151838
-0.132137
0.145184
-0.175391
0.140579
-0.191744
0.136832
-0.182811
0.13109
-0.17102
0.1242
-0.157339
0.122269
-0.162662
0.128679
-0.109356
0.139801
-0.0384756
0.150314
0.0951431
0.154665
0.2262
0.154192
0.309124
0.150127
0.335875
0.148754
0.175629
0.153558
0.0660176
0.156679
-0.094027
0.15489
-0.152626
0.151208
-0.222162
0.14925
-0.344697
-0.112499
0.176122
0.0114789
0.17574
0.01186
0.175708
0.0119008
0.176006
0.0117194
0.176653
0.0112736
0.177588
0.0104585
0.178653
0.00908727
0.179667
0.00683378
0.18047
0.00335709
0.180516
-0.00156422
0.179334
-0.00828597
0.176772
-0.0167689
0.172456
-0.02701
0.166249
-0.0386224
0.158366
-0.0509021
0.149404
-0.0629975
0.140136
-0.0741225
0.131238
-0.0836759
0.123163
-0.0912666
0.116123
-0.0966478
0.11017
-0.0997871
0.105293
-0.100714
0.101352
-0.0994483
0.0982193
-0.0961391
0.0960775
-0.0907553
0.0946355
-0.0824788
0.0925582
-0.0717351
0.0896104
-0.0601018
0.0886552
-0.0466395
0.093302
-0.0263149
0.104433
0.00308303
0.119612
0.0384624
0.136015
0.0788498
0.151979
0.126877
0.165893
0.183077
0.174909
0.229174
0.176482
0.23685
0.17226
0.178146
0.16541
0.0690506
0.157895
-0.0463012
0.150606
-0.124848
0.143373
-0.168158
0.138257
-0.186628
0.134828
-0.179382
0.129904
-0.166096
0.123117
-0.150552
0.120504
-0.160049
0.126453
-0.115305
0.137647
-0.0496697
0.149214
0.0835764
0.15501
0.220404
0.155824
0.30831
0.152162
0.339537
0.150459
0.177332
0.154896
0.061581
0.15815
-0.0972817
0.156378
-0.150854
0.152461
-0.218245
0.150411
-0.342647
-0.111885
0.193858
0.0121127
-0.194491
0.193804
0.0119137
0.19397
0.0117342
0.194405
0.0112846
0.195187
0.0104921
0.19635
0.00929548
0.197914
0.00752323
0.199811
0.00493618
0.201806
0.00136283
0.203811
-0.00356936
0.205447
-0.00992225
0.206413
-0.0177351
0.206312
-0.026909
0.204828
-0.0371378
0.201827
-0.0479016
0.1974
-0.0585706
0.191794
-0.0685158
0.185308
-0.0771902
0.178244
-0.0842027
0.170875
-0.0892784
0.163419
-0.0923319
0.156063
-0.0933578
0.148922
-0.0923077
0.141964
-0.0891803
0.135303
-0.0840944
0.129143
-0.0763189
0.12285
-0.0654423
0.115398
-0.0526498
0.107683
-0.0389243
0.102973
-0.0216051
0.103556
0.00249991
0.108677
0.0333419
0.115809
0.0717173
0.12296
0.119727
0.129804
0.176232
0.137165
0.221814
0.146741
0.227274
0.158967
0.165921
0.169251
0.0587658
0.174412
-0.0514616
0.173409
-0.123845
0.167555
-0.162304
0.160302
-0.179375
0.153485
-0.172565
0.145586
-0.158197
0.136442
-0.141408
0.129813
-0.153421
0.129245
-0.114737
0.132462
-0.0528865
0.135845
0.0801933
0.136816
0.219433
0.136902
0.308223
0.137727
0.338712
0.140944
0.174116
0.147825
0.0547003
0.151804
-0.101261
0.149124
-0.148174
0.144057
-0.213178
0.139238
-0.337827
-0.109178
0.206173
0.0120446
-0.206105
0.206507
0.0115799
0.207118
0.0111228
0.207947
0.0104561
0.208991
0.00944767
0.210271
0.0080156
0.211756
0.00603817
0.213346
0.00334603
0.214956
-0.00024677
0.216334
-0.00494764
0.217243
-0.0108306
0.217412
-0.0179049
0.216577
-0.0260731
0.214528
-0.0350895
0.211185
-0.044558
0.2066
-0.0539861
0.200946
-0.0628613
0.194465
-0.0707093
0.187433
-0.0771715
0.180126
-0.0819705
0.172765
-0.0849714
0.16551
-0.0861027
0.158491
-0.0852883
0.151712
-0.0824013
0.145168
-0.0775507
0.139113
-0.0702636
0.133428
-0.059758
0.127096
-0.0463171
0.119864
-0.0316931
0.113868
-0.0156086
0.112176
0.00419205
0.115546
0.0299722
0.122231
0.0650323
0.130177
0.11178
0.138362
0.168048
0.147471
0.212704
0.159261
0.215485
0.17307
0.152112
0.183969
0.0478664
0.188402
-0.0558943
0.186349
-0.121792
0.179328
-0.155283
0.171001
-0.171049
0.16358
-0.165144
0.155593
-0.15021
0.146122
-0.131937
0.138844
-0.146144
0.137673
-0.113565
0.140792
-0.0560054
0.144663
0.0763223
0.146328
0.217767
0.147412
0.30714
0.149032
0.337092
0.15234
0.170808
0.159264
0.047776
0.163138
-0.105134