/*--------------------------------*- C++ -*----------------------------------*\
| =========                 |                                                 |
| \\      /  F ield         | OpenFOAM: The Open Source CFD Toolbox           |
|  \\    /   O peration     | Version:  2512                                  |
|   \\  /    A nd           | Website:  www.openfoam.com                      |
|    \\/     M anipulation  |                                                 |
\*---------------------------------------------------------------------------*/
FoamFile
{
    version     2.0;
    format      ascii;
    arch        "LSB;label=32;scalar=64";
    class       volVectorField;
    location    "69.75";
    object      U;
}
// * * * * * * * * * * * * * * * * * * * * * * * * * * * * * * * * * * * * * //

dimensions      [0 1 -1 0 0 0 0];

internalField   nonuniform List<vector> 
13248
(
(-0.0132781 0.0125249 7.91811e-20)
(-0.0240904 0.0270412 0)
(-0.0190695 0.035372 -1.49482e-19)
(0.000854481 0.0391361 1.4081e-19)
(0.0349887 0.039755 1.31786e-19)
(0.0827758 0.0384345 0)
(0.143629 0.0361285 0)
(0.216777 0.0335709 3.2052e-19)
(0.30108 0.0312984 -4.55428e-22)
(0.39486 0.0296514 -2.81998e-19)
(0.495808 0.0287744 2.64432e-19)
(0.601011 0.0286278 -1.65613e-19)
(0.707096 0.0290137 0)
(0.81047 0.0296172 -2.89867e-19)
(0.90762 0.0300596 5.42209e-19)
(0.995418 0.0299576 -1.29464e-19)
(1.07139 0.0289833 -2.31345e-19)
(1.13391 0.0268906 2.17189e-19)
(1.1823 0.0236235 0)
(1.2168 0.0189704 0)
(1.23868 0.0138005 0)
(1.24891 0.00562718 0)
(1.25103 0.00189978 6.33895e-20)
(1.24319 -0.0181832 2.24568e-19)
(-0.0125969 0.0105276 -2.39011e-19)
(-0.0182265 0.0205291 1.6275e-19)
(-0.00461766 0.0250625 -1.48691e-21)
(0.0268956 0.0260877 -2.14959e-19)
(0.075371 0.0252166 -1.31645e-19)
(0.139916 0.0237534 -1.24595e-19)
(0.219346 0.0226553 -2.29718e-19)
(0.311933 0.0225714 2.17109e-19)
(0.415206 0.0238606 0)
(0.525884 0.026593 4.96041e-22)
(0.639993 0.0305654 8.03103e-22)
(0.753148 0.0353464 1.64755e-19)
(0.860954 0.0403508 0)
(0.959433 0.0449346 0)
(1.0454 0.0484938 1.9673e-19)
(1.11675 0.0505515 -3.69723e-19)
(1.17255 0.0508176 2.2115e-19)
(1.21308 0.0492141 -2.07633e-19)
(1.2396 0.045861 -9.09448e-20)
(1.25416 0.0410353 -1.65985e-19)
(1.2591 0.0351822 -6.78177e-20)
(1.25698 0.0284149 -1.27395e-19)
(1.24982 0.023031 1.87983e-19)
(1.23937 0.0130589 5.30863e-20)
(-0.0109582 0.00833561 0)
(-0.00883881 0.0138773 0)
(0.0165455 0.0152436 7.60424e-20)
(0.0631831 0.0145486 7.00925e-20)
(0.129546 0.0135077 -1.58058e-21)
(0.213928 0.0134597 -1.28483e-19)
(0.313913 0.0152592 0)
(0.426106 0.0193022 -1.08124e-19)
(0.546091 0.0255528 1.01795e-19)
(0.668665 0.0335805 4.0506e-22)
(0.788311 0.0426438 -1.75451e-19)
(0.899801 0.0518216 -1.61833e-19)
(0.998778 0.0601701 2.33695e-21)
(1.08219 0.0668723 -1.35333e-19)
(1.14851 0.0713532 3.24076e-19)
(1.19774 0.0733399 0)
(1.23121 0.0728643 -2.11343e-19)
(1.25118 0.0702062 1.03041e-19)
(1.26044 0.0658399 9.0871e-20)
(1.26178 0.0602364 0)
(1.25781 0.0541511 7.41352e-20)
(1.25039 0.0473733 -2.52168e-19)
(1.24114 0.0424431 2.36723e-19)
(1.23095 0.0330691 1.46749e-19)
(-0.00789589 0.00585251 -8.42578e-20)
(0.00515211 0.00707201 -8.70645e-20)
(0.0458259 0.00617903 7.88232e-20)
(0.111111 0.00515999 0)
(0.198391 0.00565341 0)
(0.304463 0.00885901 -2.66372e-21)
(0.424906 0.0152961 0)
(0.554021 0.0248268 -3.29934e-19)
(0.685194 0.036747 3.07021e-19)
(0.811618 0.0499368 -3.7996e-19)
(0.927152 0.0630773 8.7582e-20)
(1.02708 0.074893 0)
(1.10857 0.0843629 1.46618e-19)
(1.17083 0.0908575 -2.7189e-19)
(1.21485 0.0941799 6.48629e-20)
(1.24296 0.0945205 1.67186e-19)
(1.25828 0.0923481 -7.10855e-21)
(1.26407 0.0882789 -1.85416e-19)
(1.26331 0.0829464 0)
(1.25841 0.0769234 0)
(1.2511 0.0707044 -6.63801e-20)
(1.24245 0.064387 5.94798e-20)
(1.23323 0.0593801 2.13064e-19)
(1.22362 0.0512343 -2.00045e-19)
(-0.00294928 0.00310687 -8.86057e-20)
(0.0247442 0.000360176 -8.83656e-20)
(0.084327 -0.0015652 2.48593e-19)
(0.171368 -0.00116672 -1.51041e-19)
(0.28149 0.00282949 1.42168e-19)
(0.409175 0.0111761 2.58834e-19)
(0.547316 0.0237019 -1.82961e-19)
(0.687673 0.0394031 -2.23153e-19)
(0.821898 0.0567065 4.02666e-21)
(0.942727 0.0738147 2.86583e-19)
(1.04496 0.0890655 0)
(1.12599 0.101219 7.92042e-20)
(1.18571 0.10961 0)
(1.22609 0.114151 -1.30375e-19)
(1.25039 0.115218 1.83584e-19)
(1.2624 0.113471 2.0452e-21)
(1.26575 0.109672 -4.82713e-20)
(1.26348 0.104537 9.10213e-20)
(1.25784 0.0986565 7.82253e-20)
(1.25036 0.0924657 -7.02477e-20)
(1.24195 0.0862896 6.63646e-20)
(1.23311 0.0801916 -5.94651e-20)
(1.22415 0.0749805 0)
(1.21524 0.0675842 -4.49436e-20)
(0.00430732 0.000256765 8.8593e-20)
(0.050735 -0.00570282 9.29085e-20)
(0.132665 -0.00704482 -8.32818e-20)
(0.243716 -0.0031956 1.55288e-19)
(0.376953 0.00633867 -1.46158e-19)
(0.523801 0.0214218 1.32458e-19)
(0.674196 0.0407808 -6.35296e-20)
(0.817893 0.0623078 1.67477e-19)
(0.946127 0.0836049 -1.05268e-19)
(1.05292 0.102519 1.87173e-19)
(1.13567 0.117533 -4.32333e-19)
(1.19488 0.127929 1.58815e-19)
(1.23341 0.133738 -1.39981e-19)
(1.25539 0.135539 1.31487e-19)
(1.26523 0.134191 1.14158e-19)
(1.26689 0.130604 1.00637e-19)
(1.2635 0.125581 -2.79725e-19)
(1.25725 0.119743 1.73838e-19)
(1.24954 0.113528 -7.82286e-20)
(1.24119 0.107226 2.04133e-19)
(1.23262 0.101021 -6.59439e-20)
(1.22404 0.0950004 -1.60531e-19)
(1.21557 0.0895703 1.48231e-19)
(1.20722 0.0827419 4.49294e-20)
(0.014215 -0.00238285 0)
(0.0836056 -0.0102374 7.72052e-22)
(0.190785 -0.00898944 1.73926e-19)
(0.326804 0.000492376 -1.63141e-19)
(0.4814 0.0173711 -1.474e-19)
(0.642578 0.04011 2.74073e-19)
(0.797816 0.0660269 -1.27339e-19)
(0.936278 0.0919559 1.70113e-19)
(1.05067 0.115068 -3.52989e-21)
(1.13799 0.133432 -9.6562e-20)
(1.19914 0.14621 2.11691e-19)
(1.23775 0.153534 -3.12508e-19)
(1.25881 0.156193 0)
(1.26738 0.15527 -6.16273e-20)
(1.26785 0.151852 -1.65304e-19)
(1.26351 0.146851 5.18777e-20)
(1.25661 0.140947 2.00749e-21)
(1.24851 0.1346 -1.15183e-19)
(1.23998 0.128104 6.92697e-21)
(1.23139 0.121641 1.334e-19)
(1.22293 0.115323 -5.97622e-20)
(1.21464 0.109229 -2.27194e-20)
(1.20651 0.103491 6.99872e-20)
(1.19856 0.0970138 0)
(0.0269749 -0.00440767 0)
(0.123379 -0.0121901 4.71355e-20)
(0.257804 -0.00599946 -2.26493e-19)
(0.418098 0.0112265 8.24867e-20)
(0.590207 0.0366929 -7.76323e-20)
(0.759065 0.0670419 -7.09558e-20)
(0.911092 0.0981802 -1.25717e-19)
(1.03686 0.126319 6.25823e-20)
(1.13232 0.148857 5.46559e-20)
(1.19837 0.164682 0)
(1.23928 0.173968 1.25277e-19)
(1.26089 0.17772 -1.86622e-19)
(1.26909 0.177287 1.39123e-19)
(1.2688 0.173983 6.166e-20)
(1.26367 0.168883 -5.06521e-20)
(1.25609 0.162762 -4.26055e-20)
(1.24748 0.156131 -4.00019e-20)
(1.2386 0.149304 1.19071e-19)
(1.22982 0.142469 0)
(1.22128 0.135739 6.01786e-20)
(1.21303 0.129187 5.08339e-20)
(1.20504 0.122871 -1.26009e-19)
(1.19726 0.116787 -8.65285e-20)
(1.18966 0.110515 7.99124e-20)
(0.0426442 -0.0053448 -5.0634e-20)
(0.16956 -0.0104243 -1.81728e-21)
(0.331954 0.00324606 4.60615e-20)
(0.514036 0.0299683 1.28723e-19)
(0.698091 0.0644218 3.74839e-20)
(0.867219 0.101304 -7.23964e-20)
(1.00884 0.135536 6.62025e-20)
(1.11686 0.163443 -5.8198e-20)
(1.1915 0.183341 1.04371e-19)
(1.23744 0.19531 4.46696e-20)
(1.26141 0.200566 -1.26551e-19)
(1.27026 0.200777 3.74627e-20)
(1.26971 0.197567 6.41352e-20)
(1.26394 0.192247 -3.15419e-20)
(1.25565 0.185744 0)
(1.24641 0.178653 4.74549e-20)
(1.23702 0.171329 8.05022e-20)
(1.22785 0.163974 1.39498e-20)
(1.21906 0.156706 -6.72877e-20)
(1.21066 0.149599 2.82342e-20)
(1.20264 0.142702 0)
(1.19492 0.136041 -2.22887e-20)
(1.18744 0.129573 -2.1181e-20)
(1.18013 0.123321 0)
(0.0610652 -0.00468975 0)
(0.221059 -0.00386199 2.65061e-20)
(0.41065 0.0197774 4.90735e-20)
(0.610391 0.057113 -1.31098e-19)
(0.799864 0.0999894 4.22909e-20)
(0.962317 0.141488 0)
(1.08829 0.176338 6.38148e-20)
(1.17628 0.201796 -8.90867e-20)
(1.23084 0.217571 -5.20765e-20)
(1.25956 0.225016 2.36167e-20)
(1.27046 0.226184 -3.7822e-20)
(1.27035 0.223118 9.18347e-20)
(1.2642 0.217469 4.62406e-20)
(1.25522 0.210398 -3.20662e-20)
(1.24525 0.202635 -2.91432e-21)
(1.23521 0.194604 -8.85481e-20)
(1.22551 0.186537 4.03771e-20)
(1.21632 0.178562 -1.05353e-21)
(1.20764 0.170753 0)
(1.19945 0.163158 -2.82636e-20)
(1.19168 0.155809 0)
(1.18425 0.148703 6.4244e-20)
(1.17708 0.141831 -7.65445e-20)
(1.17006 0.135436 3.49213e-20)
(0.0818348 -0.00195426 -1.37682e-20)
(0.276205 0.00838985 -6.67298e-20)
(0.490676 0.0441816 7.58685e-20)
(0.70277 0.0924224 4.46655e-20)
(0.891113 0.142267 -2.13428e-20)
(1.04137 0.185975 3.59065e-20)
(1.14879 0.219054 -1.74419e-20)
(1.21685 0.240339 2.91071e-20)
(1.25369 0.251115 0)
(1.26868 0.253844 6.62045e-20)
(1.27007 0.251121 -2.64436e-21)
(1.26401 0.245091 -5.35925e-20)
(1.25446 0.237268 2.30315e-20)
(1.24372 0.228597 -2.60803e-20)
(1.23292 0.219616 -9.99511e-21)
(1.22257 0.210607 1.14882e-20)
(1.21284 0.201718 -8.91109e-21)
(1.20376 0.193026 -4.85585e-20)
(1.19529 0.184579 2.9762e-20)
(1.18736 0.176407 6.11834e-21)
(1.17989 0.168521 5.40253e-21)
(1.17277 0.160902 4.77176e-21)
(1.16592 0.153615 0)
(1.15918 0.1469 0)
(0.10437 0.00329948 1.37778e-20)
(0.332973 0.0269526 -1.38002e-20)
(0.568649 0.0765242 -2.52743e-20)
(0.78724 0.135075 0)
(0.96867 0.189783 -1.05923e-20)
(1.10303 0.233201 -9.52949e-21)
(1.19109 0.262501 -1.63537e-20)
(1.24086 0.278457 0)
(1.26301 0.28385 0)
(1.26762 0.281958 0)
(1.26245 0.275624 0)
(1.25265 0.266897 0)
(1.24118 0.257063 -1.44648e-20)
(1.22957 0.246847 6.59042e-21)
(1.21848 0.236619 1.15084e-20)
(1.20813 0.22656 5.38965e-21)
(1.19855 0.216756 1.33768e-20)
(1.18972 0.207252 0)
(1.18156 0.198077 -3.23071e-21)
(1.17398 0.189246 -3.09488e-21)
(1.16689 0.180752 -5.41112e-21)
(1.16017 0.172582 -4.77936e-21)
(1.15369 0.164871 0)
(1.14733 0.157683 3.44966e-21)
(-0.00196104 0.0255969 7.94482e-21)
(-0.00758505 0.0583463 -8.2351e-21)
(-0.0167429 0.0780257 -1.55827e-20)
(-0.0277688 0.088176 0)
(-0.0397073 0.091665 -2.07842e-20)
(-0.0520608 0.0907432 6.47714e-21)
(-0.0644757 0.0870525 -1.23993e-20)
(-0.0767014 0.0816713 0)
(-0.0885743 0.0752036 0)
(-0.0999897 0.0678935 0)
(-0.110877 0.0597408 0)
(-0.121185 0.0506034 0)
(-0.130866 0.0402736 -1.55364e-22)
(-0.139876 0.0285314 -8.14208e-21)
(-0.148162 0.0151737 1.57416e-20)
(-0.155641 3.58082e-05 2.21018e-20)
(-0.162219 -0.016976 7.20026e-21)
(-0.167823 -0.0358813 0)
(-0.17237 -0.0566224 5.99723e-21)
(-0.175775 -0.0790486 -1.72638e-20)
(-0.177989 -0.102893 -1.08918e-20)
(-0.179025 -0.1278 -1.0171e-20)
(-0.179018 -0.153351 0)
(-0.17827 -0.179059 0)
(-0.00366401 0.0286357 -2.40531e-20)
(-0.0109382 0.0658758 4.13365e-20)
(-0.0202041 0.0888192 -1.58692e-20)
(-0.0304693 0.101266 -2.97938e-20)
(-0.04116 0.106278 4.19454e-20)
(-0.0519831 0.106275 -2.6597e-20)
(-0.0627056 0.103049 3.7412e-20)
(-0.0731406 0.097804 2.40084e-20)
(-0.0831499 0.091243 0)
(-0.0926325 0.0836811 -2.10331e-20)
(-0.101513 0.0751644 -2.75056e-22)
(-0.109731 0.0655748 1.85266e-20)
(-0.117238 0.0547109 2.7109e-20)
(-0.123983 0.0423448 3.41274e-20)
(-0.129917 0.02826 -1.54945e-20)
(-0.134968 0.0122784 -4.51507e-20)
(-0.139043 -0.00573537 1.48205e-20)
(-0.142063 -0.0258382 -5.48958e-20)
(-0.14397 -0.0479471 0)
(-0.144686 -0.0718938 1.16179e-20)
(-0.144155 -0.0973345 1.08769e-20)
(-0.142365 -0.123762 1.01569e-20)
(-0.139323 -0.150485 0)
(-0.135362 -0.176562 0)
(-0.00556127 0.0306507 0)
(-0.0146826 0.0712901 8.54103e-20)
(-0.0239638 0.0970409 -3.21538e-20)
(-0.0331522 0.111687 3.01696e-20)
(-0.0420925 0.118314 -8.63897e-20)
(-0.0507165 0.119402 0)
(-0.0589283 0.116835 -5.14878e-20)
(-0.0666159 0.111913 2.44427e-20)
(-0.0736705 0.105433 -4.65605e-20)
(-0.0799927 0.0977866 2.26631e-20)
(-0.0854935 0.0890815 1.24954e-19)
(-0.0900944 0.0792393 -5.87583e-20)
(-0.0937253 0.0680804 -9.30897e-20)
(-0.0963207 0.0553818 -3.66666e-20)
(-0.0978159 0.0409187 -6.98554e-22)
(-0.0981482 0.0244925 1.27214e-19)
(-0.0972539 0.00594869 -6.00218e-20)
(-0.0950223 -0.014794 -1.37003e-21)
(-0.0913946 -0.0377267 0)
(-0.086362 -0.0626508 -5.20927e-20)
(-0.0798804 -0.0891939 0)
(-0.0719409 -0.116734 -4.32832e-20)
(-0.0622692 -0.144332 1.66457e-19)
(-0.051031 -0.170514 -9.69338e-22)
(-0.00747254 0.0314961 0)
(-0.0184922 0.0741986 7.70674e-22)
(-0.0277102 0.102103 3.3231e-20)
(-0.0355871 0.118699 -3.14745e-20)
(-0.0423777 0.126917 2.88064e-20)
(-0.0482395 0.129189 1.66878e-19)
(-0.0532217 0.127416 -5.23002e-20)
(-0.0572968 0.122957 -5.0155e-20)
(-0.0603922 0.116682 9.40828e-20)
(-0.0624109 0.109064 -1.33928e-19)
(-0.0632464 0.100275 4.25428e-20)
(-0.0627915 0.0902923 4.07953e-20)
(-0.0609442 0.0789726 0)
(-0.0576081 0.0661128 3.58904e-20)
(-0.0526909 0.0514945 0)
(-0.0461077 0.0349174 6.70045e-20)
(-0.0377875 0.0162214 -1.26218e-19)
(-0.027707 -0.00469446 2.79937e-20)
(-0.0157825 -0.0278471 1.12335e-19)
(-0.00197601 -0.0530678 5.20342e-20)
(0.0136315 -0.0800397 0)
(0.0308738 -0.108175 -1.39147e-19)
(0.0500739 -0.136308 4.33716e-20)
(0.0727882 -0.162236 0)
(-0.00922044 0.031157 0)
(-0.0220409 0.074453 -1.0638e-19)
(-0.0311458 0.103676 -3.38535e-20)
(-0.0375831 0.121786 -6.33914e-20)
(-0.0419616 0.131411 5.96888e-20)
(-0.0446445 0.134833 -5.59444e-20)
(-0.0458252 0.133896 1.07239e-19)
(-0.0455679 0.129965 5.09264e-20)
(-0.043845 0.123962 -1.43118e-19)
(-0.0405695 0.116422 9.16851e-20)
(-0.0356197 0.107587 -1.29697e-19)
(-0.0288556 0.097494 2.90352e-19)
(-0.0201377 0.0860467 -1.55984e-19)
(-0.00933332 0.0730781 7.54631e-20)
(0.00368743 0.0583977 2.15507e-19)
(0.019036 0.0418229 -6.50642e-20)
(0.0367889 0.023205 -6.35687e-20)
(0.0569872 0.00246119 -6.00971e-20)
(0.079645 -0.0203737 0)
(0.104708 -0.0451911 -1.10015e-19)
(0.131979 -0.0717206 -1.03066e-19)
(0.161203 -0.0994748 1.45017e-19)
(0.192262 -0.127241 1.76795e-19)
(0.229903 -0.152151 -1.67185e-19)
(-0.0106661 0.0297575 0)
(-0.0250551 0.0721791 -1.45644e-19)
(-0.0340151 0.101737 -6.37642e-22)
(-0.0389817 0.120727 1.28761e-19)
(-0.0408175 0.131382 0)
(-0.0400534 0.135754 0)
(-0.0370148 0.135563 0)
(-0.0318596 0.132132 -5.15289e-20)
(-0.0246133 0.126394 -9.19286e-22)
(-0.0152078 0.118928 9.20609e-20)
(-0.00351382 0.110035 -1.32369e-19)
(0.0106324 0.0998093 -8.23929e-22)
(0.0274098 0.0882063 0)
(0.0469924 0.0751089 -7.54218e-20)
(0.0695406 0.0603672 7.41858e-20)
(0.0951851 0.0438361 -2.06502e-19)
(0.124007 0.0254086 2.63433e-19)
(0.156021 0.00505028 6.48981e-20)
(0.191156 -0.0171779 1.71392e-21)
(0.229233 -0.0411057 -2.22766e-19)
(0.269834 -0.06643 -1.04829e-19)
(0.312916 -0.092613 3.40671e-19)
(0.355455 -0.119107 -2.27766e-19)
(0.411875 -0.141582 0)
(-0.0117388 0.0275418 7.23569e-20)
(-0.0273639 0.0677572 7.31377e-20)
(-0.0361325 0.0965805 -6.98848e-20)
(-0.0396329 0.115639 -1.30758e-19)
(-0.0388664 0.126744 1.23115e-19)
(-0.0344779 0.131677 -1.16429e-19)
(-0.0268989 0.131987 1.64648e-19)
(-0.0163712 0.128913 -5.16952e-20)
(-0.00297341 0.123359 9.80382e-20)
(0.0133403 0.115922 0)
(0.0327012 0.106944 9.03317e-20)
(0.0552906 0.0965686 -1.68417e-19)
(0.0813216 0.0848021 1.62107e-19)
(0.110994 0.0715883 -1.52251e-19)
(0.144477 0.0568301 0)
(0.181887 0.0404355 1.38844e-19)
(0.223244 0.0223554 2.66164e-19)
(0.268449 0.00261608 -2.49762e-19)
(0.31724 -0.0186589 -1.18262e-19)
(0.369244 -0.0412003 -1.12228e-19)
(0.42339 -0.0647326 3.14451e-19)
(0.480847 -0.0881894 9.57399e-20)
(0.532438 -0.112809 -9.11311e-20)
(0.607246 -0.131123 8.07775e-20)
(-0.0124489 0.0248281 -7.23667e-20)
(-0.0289087 0.0617554 2.24873e-19)
(-0.0373647 0.0887794 -7.10343e-20)
(-0.0393396 0.106974 1.32325e-19)
(-0.03586 0.11778 -1.24589e-19)
(-0.0276259 0.122714 2.72933e-22)
(-0.0151354 0.123137 5.5416e-20)
(0.00131212 0.120171 2.10464e-19)
(0.0216015 0.114663 1.52754e-21)
(0.0457657 0.107202 -9.30093e-20)
(0.0739421 0.0981467 0)
(0.106314 0.0876802 -8.59299e-20)
(0.143098 0.0758837 1.60203e-19)
(0.184496 0.0627508 1.54505e-19)
(0.230603 0.0482425 -7.22974e-20)
(0.281402 0.0323377 -3.74743e-22)
(0.336707 0.0150646 -6.6039e-20)
(0.396123 -0.00347109 1.23894e-19)
(0.458962 -0.0230834 1.18227e-19)
(0.524546 -0.0433489 -1.11148e-19)
(0.590605 -0.0642879 1.01758e-19)
(0.660092 -0.0837337 -9.39939e-20)
(0.71699 -0.105622 0)
(0.803324 -0.118293 -8.06914e-20)
(-0.0128783 0.0219492 7.39466e-20)
(-0.0297188 0.054824 -7.53733e-20)
(-0.0375757 0.0790827 7.16469e-20)
(-0.0377539 0.0954633 0)
(-0.0312159 0.105146 0)
(-0.0186582 0.109427 1.19097e-19)
(-0.000595427 0.109494 -1.11292e-19)
(0.0226584 0.106343 1.05778e-19)
(0.0509813 0.100751 -4.96525e-19)
(0.0844038 0.0932762 -5.80107e-22)
(0.123057 0.0842907 8.8952e-20)
(0.167121 0.0740257 0)
(0.216716 0.0626033 -1.61652e-19)
(0.271861 0.050065 3.05411e-19)
(0.332422 0.0364559 -2.1702e-19)
(0.398015 0.0218305 -3.45547e-19)
(0.467967 0.00628509 -1.78589e-21)
(0.541302 -0.0100105 2.42904e-19)
(0.616648 -0.0268576 0)
(0.692795 -0.0436963 0)
(0.766443 -0.0609684 -1.0175e-19)
(0.841048 -0.0755581 9.39866e-20)
(0.898187 -0.0938331 -3.33083e-19)
(0.98239 -0.10022 3.12238e-19)
(-0.0131423 0.0191844 0)
(-0.029833 0.0475663 0)
(-0.03652 0.0682866 -2.15549e-19)
(-0.0342386 0.082014 6.85008e-20)
(-0.0238355 0.0898116 4.14829e-22)
(-0.00595352 0.0928341 1.19922e-19)
(0.0189292 0.0921314 0)
(0.0505279 0.0885907 -1.05436e-19)
(0.0887336 0.0829221 9.93306e-20)
(0.133557 0.0756584 -1.88244e-19)
(0.185047 0.0671755 -6.10973e-22)
(0.243193 0.0577253 1.6915e-19)
(0.307831 0.0474598 1.52096e-21)
(0.378532 0.0364921 1.53426e-19)
(0.454557 0.0249066 -2.1436e-19)
(0.534798 0.012787 0)
(0.617775 0.000239751 2.55876e-19)
(0.701692 -0.0125874 -3.61747e-19)
(0.784456 -0.0255418 1.10302e-19)
(0.864148 -0.0381824 0)
(0.937578 -0.0510093 9.42797e-20)
(1.00658 -0.0611561 3.50004e-19)
(1.05718 -0.075429 -3.28495e-19)
(1.12338 -0.0769972 -3.5711e-19)
(-0.013328 0.0166998 2.26813e-19)
(-0.0291829 0.0404215 -3.11323e-19)
(-0.0337125 0.0571001 8.32633e-22)
(-0.0277406 0.0675889 6.9073e-20)
(-0.011991 0.0729788 -1.2854e-19)
(0.0129775 0.0743694 -1.19484e-19)
(0.0467512 0.0727289 2.24728e-19)
(0.0890732 0.0688739 -2.63172e-22)
(0.139794 0.0634617 -1.987e-19)
(0.198764 0.056994 3.75481e-19)
(0.265716 0.0498355 1.34348e-21)
(0.340135 0.0422375 -1.66837e-19)
(0.421155 0.034358 0)
(0.507484 0.0262882 0)
(0.597396 0.0180714 -7.11631e-20)
(0.688779 0.00972178 -1.31307e-19)
(0.779237 0.00124967 -2.48879e-19)
(0.866232 -0.00734657 2.3362e-19)
(0.947315 -0.0159939 -1.10357e-19)
(1.02025 -0.0246804 1.9818e-19)
(1.08311 -0.0333617 -9.87208e-20)
(1.13588 -0.0410233 1.60908e-19)
(1.17274 -0.0515605 -3.84936e-19)
(1.21158 -0.0521284 7.1043e-20)
(-0.013423 0.0145152 7.65021e-20)
(-0.0274676 0.0335907 0)
(-0.0283128 0.0460433 1.47374e-19)
(-0.0167242 0.0530857 -1.38827e-19)
(0.00665169 0.0559464 1.28659e-19)
(0.0413226 0.0557497 0)
(0.0868964 0.0534396 0)
(0.143023 0.0497863 -1.06162e-19)
(0.209282 0.0453954 -1.01953e-23)
(0.285031 0.0407224 9.35822e-20)
(0.369253 0.036076 -8.84206e-20)
(0.460444 0.0316293 1.66136e-19)
(0.556585 0.0274357 0)
(0.655181 0.0234487 2.95238e-19)
(0.753392 0.0195477 -5.54068e-19)
(0.848224 0.015566 3.91331e-19)
(0.936757 0.0113317 2.40629e-19)
(1.01637 0.00665763 -2.2589e-19)
(1.08502 0.00152132 0)
(1.14119 -0.00442826 0)
(1.18463 -0.0104399 0)
(1.21517 -0.018049 0)
(1.234 -0.0249864 7.39789e-20)
(1.24723 -0.0304316 -2.53597e-19)
(-0.176878 -0.208811 -5.82168e-21)
(-0.177684 -0.245525 5.85921e-21)
(-0.175925 -0.281305 -1.76602e-22)
(-0.172281 -0.314319 0)
(-0.166301 -0.342568 -4.86098e-21)
(-0.157392 -0.363686 9.35241e-21)
(-0.144842 -0.37504 -6.25472e-23)
(-0.127785 -0.373898 -4.31171e-21)
(-0.105295 -0.357566 0)
(-0.0764973 -0.323727 0)
(-0.0406771 -0.270944 -2.37407e-22)
(0.00160944 -0.199101 -2.33442e-22)
(0.0497996 -0.109778 -4.17949e-21)
(0.102561 -0.00507452 3.84e-21)
(0.157489 0.10776 0)
(0.213383 0.220508 0)
(0.268449 0.324217 2.69191e-21)
(0.319506 0.409607 -3.61299e-22)
(0.36231 0.470856 -2.07175e-21)
(0.391918 0.508897 -9.96769e-23)
(0.403035 0.531984 0)
(0.39355 0.549525 0)
(0.37129 0.559797 0)
(0.355742 0.543247 0)
(0.367201 0.473802 0)
(0.41083 0.340798 0)
(0.476823 0.15777 6.28764e-22)
(0.552203 -0.0443603 -1.04706e-21)
(0.625415 -0.226837 0)
(0.686151 -0.360459 0)
(0.726693 -0.439061 -4.16349e-22)
(0.747326 -0.470732 4.04641e-22)
(0.755461 -0.46924 1.41165e-22)
(0.747639 -0.461511 0)
(0.711827 -0.472242 0)
(0.65481 -0.48352 2.79754e-22)
(0.608547 -0.436312 -2.71945e-22)
(0.602495 -0.292458 0)
(0.63479 -0.0805735 3.68571e-22)
(0.68431 0.130111 -5.22593e-22)
(0.733407 0.286099 1.3599e-22)
(0.776037 0.368387 0)
(0.799372 0.407975 -1.73258e-22)
(0.787013 0.441088 1.68477e-22)
(0.739377 0.466095 0)
(0.690378 0.423005 0)
(0.668749 0.278502 -1.02854e-22)
(0.688593 0.0678369 3.18718e-22)
(0.730416 -0.130689 0)
(0.775661 -0.258693 0)
(0.78869 -0.351483 -5.16819e-23)
(0.765369 -0.393059 4.06179e-24)
(0.719515 -0.411215 -3.17889e-24)
(0.69312 -0.3062 2.93099e-23)
(0.685705 -0.165163 0)
(0.712649 0.022267 0)
(0.735475 0.182083 0)
(0.731806 0.242464 0)
(0.694242 0.352769 0)
(0.688065 0.178956 0)
(-0.131348 -0.205668 -6.20324e-22)
(-0.135377 -0.244267 -2.43889e-20)
(-0.137325 -0.28204 1.05573e-21)
(-0.138878 -0.31716 2.18684e-20)
(-0.139834 -0.34779 3.19027e-22)
(-0.139673 -0.371716 0)
(-0.137728 -0.386479 -1.67745e-20)
(-0.133011 -0.389505 3.25539e-20)
(-0.124208 -0.378138 -1.57675e-20)
(-0.109796 -0.349955 1.45855e-20)
(-0.0882086 -0.3032 -1.39391e-20)
(-0.0585846 -0.237311 1.36323e-20)
(-0.0197377 -0.152572 -1.31723e-20)
(0.0261855 -0.0529932 -3.61742e-22)
(0.0760873 0.0593852 -1.1846e-20)
(0.130312 0.172572 1.15119e-20)
(0.1865 0.27902 -9.37214e-21)
(0.240683 0.370347 8.86304e-21)
(0.287993 0.441274 -6.90698e-21)
(0.322814 0.492332 1.2536e-20)
(0.340663 0.529288 -5.67539e-21)
(0.342726 0.556362 -3.03744e-22)
(0.340268 0.566488 -5.25087e-21)
(0.351911 0.53955 1.09715e-20)
(0.3908 0.455691 -5.70295e-21)
(0.454576 0.311439 4.57239e-22)
(0.532021 0.122236 7.78159e-21)
(0.611922 -0.0812898 -1.08729e-22)
(0.683354 -0.260323 -1.27427e-20)
(0.737382 -0.385651 1.04026e-20)
(0.768864 -0.453617 -4.51307e-21)
(0.778687 -0.476726 3.7057e-22)
(0.776458 -0.468594 -1.4144e-22)
(0.76327 -0.451691 2.27307e-22)
(0.726203 -0.452289 0)
(0.66573 -0.461048 0)
(0.609898 -0.423781 -1.1389e-21)
(0.591663 -0.295969 8.27619e-22)
(0.61508 -0.0962157 9.88685e-22)
(0.661855 0.11005 5.64977e-23)
(0.714185 0.267363 -1.2523e-21)
(0.762933 0.355514 1.99325e-22)
(0.790468 0.405453 0)
(0.780711 0.449763 0)
(0.735872 0.480306 0)
(0.693103 0.43388 0)
(0.677586 0.280134 4.74096e-22)
(0.700395 0.0603379 -2.18897e-22)
(0.741399 -0.142167 0)
(0.784943 -0.266374 0)
(0.798098 -0.350241 0)
(0.772183 -0.385104 -7.19654e-23)
(0.727796 -0.402613 2.23533e-23)
(0.698764 -0.302805 -6.6655e-23)
(0.69227 -0.167195 0)
(0.714428 0.0172586 0)
(0.732966 0.180038 3.83073e-23)
(0.727976 0.246685 8.09504e-23)
(0.685153 0.357453 0)
(0.682173 0.178522 0)
(-0.0429588 -0.198093 -9.76979e-22)
(-0.0486163 -0.237308 -5.37609e-20)
(-0.0527048 -0.276173 4.8778e-20)
(-0.058041 -0.312544 -4.56067e-20)
(-0.0648043 -0.344593 -3.21178e-22)
(-0.0725981 -0.370431 0)
(-0.0809058 -0.387881 -3.30014e-20)
(-0.0887913 -0.394645 3.22836e-20)
(-0.0948005 -0.38818 2.2873e-22)
(-0.0970055 -0.366102 3.70153e-22)
(-0.0930216 -0.326667 3.37487e-22)
(-0.0805013 -0.268399 3.9302e-22)
(-0.0579818 -0.191 -2.13964e-20)
(-0.0235195 -0.0982478 2.11579e-20)
(0.01806 0.00923337 0)
(0.0647381 0.122175 4.89309e-22)
(0.11775 0.230472 -1.5486e-20)
(0.171731 0.327408 1.52937e-20)
(0.221273 0.407831 0)
(0.260973 0.471003 0)
(0.288 0.519299 -1.01602e-20)
(0.306021 0.552208 2.01453e-20)
(0.327003 0.559543 -2.0564e-20)
(0.365804 0.523166 -1.61446e-21)
(0.428368 0.429535 2.62817e-20)
(0.507908 0.279692 -3.0581e-20)
(0.593803 0.088956 3.08226e-20)
(0.676283 -0.112759 -1.81278e-21)
(0.744355 -0.286756 -1.4606e-20)
(0.790188 -0.40395 0)
(0.811907 -0.462282 0)
(0.811428 -0.478014 1.90977e-21)
(0.798969 -0.465317 -2.58396e-21)
(0.780098 -0.4414 -1.38162e-23)
(0.742571 -0.432229 1.54775e-21)
(0.680479 -0.437324 -1.50422e-21)
(0.616586 -0.40923 0)
(0.586168 -0.298224 2.806e-22)
(0.599863 -0.112291 2.51785e-21)
(0.643299 0.0879671 -4.64226e-21)
(0.698219 0.245993 1.94633e-21)
(0.752179 0.34052 1.61864e-22)
(0.783307 0.401516 -1.68897e-21)
(0.776197 0.457289 1.31913e-21)
(0.734807 0.493357 3.58863e-22)
(0.69887 0.443994 4.36992e-22)
(0.689741 0.282091 -4.75312e-22)
(0.715404 0.0543587 0)
(0.754932 -0.152172 0)
(0.79607 -0.273281 -1.27946e-21)
(0.809137 -0.348482 5.71113e-22)
(0.780597 -0.376909 -3.37884e-22)
(0.737285 -0.394195 3.74386e-22)
(0.705867 -0.299734 3.61763e-22)
(0.70036 -0.169294 -1.17391e-22)
(0.717755 0.0128398 1.54184e-22)
(0.731446 0.178482 -1.3124e-22)
(0.72533 0.251368 3.31151e-23)
(0.677338 0.362388 0)
(0.677536 0.177955 0)
(0.0849201 -0.18932 -1.16402e-19)
(0.0793954 -0.226427 5.7292e-21)
(0.0746492 -0.264836 1.04971e-19)
(0.0675304 -0.300929 -7.26954e-22)
(0.056963 -0.332787 0)
(0.0429741 -0.358933 0)
(0.025956 -0.37759 -6.34613e-20)
(0.00672541 -0.386893 6.02573e-21)
(-0.0134085 -0.384628 7.74482e-20)
(-0.0326895 -0.36812 -2.47501e-21)
(-0.0479522 -0.336878 -2.08816e-20)
(-0.0554452 -0.287807 -1.67725e-20)
(-0.0529877 -0.220109 1.67672e-20)
(-0.0372445 -0.135093 0)
(-0.00942098 -0.0365578 -1.39916e-20)
(0.025914 0.0723607 1.27591e-20)
(0.0698678 0.180536 0)
(0.119811 0.281657 0)
(0.169466 0.369978 9.55793e-21)
(0.21403 0.442832 -3.56224e-22)
(0.252031 0.499225 -8.38539e-21)
(0.288047 0.535016 -9.77677e-21)
(0.332502 0.538815 9.81257e-21)
(0.395305 0.495774 -1.33626e-20)
(0.476625 0.397733 -2.18894e-21)
(0.567516 0.247722 1.48092e-20)
(0.659009 0.0595349 2.13452e-21)
(0.742662 -0.138497 -3.05439e-23)
(0.80679 -0.306624 0)
(0.843772 -0.416168 1.01105e-20)
(0.855214 -0.466003 -1.03547e-20)
(0.845045 -0.475209 3.79762e-22)
(0.822839 -0.459518 0)
(0.79774 -0.43105 -2.1608e-22)
(0.760075 -0.412903 2.68797e-21)
(0.698347 -0.412681 -5.034e-21)
(0.628543 -0.392079 -7.79586e-22)
(0.586565 -0.298425 -5.40622e-22)
(0.589869 -0.128258 3.04384e-21)
(0.629126 0.0642629 4.91565e-22)
(0.685652 0.222335 -2.9893e-21)
(0.743746 0.323568 2.54114e-21)
(0.777831 0.396042 2.02316e-23)
(0.773415 0.46334 1.41387e-21)
(0.736049 0.504939 -1.73474e-21)
(0.707292 0.453231 -3.40346e-21)
(0.704718 0.284601 8.42852e-22)
(0.733225 0.0502404 2.10935e-21)
(0.770877 -0.160521 -3.74434e-21)
(0.808927 -0.279455 2.34105e-21)
(0.821612 -0.346366 -3.41565e-22)
(0.790519 -0.368497 5.89749e-22)
(0.74773 -0.385843 3.11766e-22)
(0.71402 -0.296901 -4.47999e-22)
(0.709535 -0.171445 -1.25979e-23)
(0.722377 0.00903014 -8.15537e-23)
(0.730923 0.177419 0)
(0.723745 0.256466 -5.83493e-23)
(0.670898 0.367554 7.10675e-23)
(0.674377 0.177273 0)
(0.243674 -0.179435 1.20962e-19)
(0.241437 -0.214682 -2.31075e-19)
(0.236153 -0.251151 1.08925e-19)
(0.228719 -0.284917 9.29003e-20)
(0.216495 -0.314555 -1.73153e-19)
(0.198799 -0.338834 9.15762e-21)
(0.17574 -0.356359 6.98291e-20)
(0.147947 -0.365805 5.04823e-20)
(0.116883 -0.365824 -4.94418e-20)
(0.0824258 -0.355131 0)
(0.0483558 -0.331387 -2.95645e-20)
(0.0205664 -0.291845 5.36646e-20)
(0.00138824 -0.235183 -2.43585e-20)
(-0.00483125 -0.160625 0)
(0.00353507 -0.0720795 0)
(0.022458 0.0265655 3.46858e-22)
(0.0533878 0.131808 -1.55522e-20)
(0.0950425 0.234108 1.51088e-20)
(0.141996 0.327195 0)
(0.190095 0.40642 1.41984e-20)
(0.238474 0.467905 -2.83902e-20)
(0.291144 0.504926 3.18338e-20)
(0.355746 0.506125 -3.86375e-20)
(0.437317 0.460188 -5.56247e-21)
(0.531878 0.362872 5.74371e-20)
(0.630072 0.217081 -3.12905e-20)
(0.724949 0.0339523 -1.09583e-21)
(0.808932 -0.158502 -1.51761e-20)
(0.869001 -0.319699 2.26416e-21)
(0.896953 -0.421801 1.31154e-20)
(0.897805 -0.464553 5.38002e-22)
(0.878623 -0.468432 -5.31258e-21)
(0.847732 -0.451046 8.96175e-21)
(0.816159 -0.420517 -4.07383e-21)
(0.778293 -0.395017 0)
(0.71862 -0.38827 -2.48613e-21)
(0.645329 -0.3729 2.44447e-21)
(0.593055 -0.296223 -2.53163e-21)
(0.585662 -0.143443 3.15108e-21)
(0.61972 0.0394529 -3.23915e-22)
(0.676544 0.196721 0)
(0.737516 0.304703 -2.82572e-22)
(0.773904 0.388812 8.99634e-22)
(0.772242 0.467559 0)
(0.739377 0.514784 4.28732e-21)
(0.717886 0.461592 -1.48474e-21)
(0.72192 0.287644 1.13425e-21)
(0.753378 0.0477347 1.24645e-21)
(0.789026 -0.167064 0)
(0.823371 -0.28475 0)
(0.835301 -0.343884 -1.34418e-21)
(0.801879 -0.359818 1.66651e-21)
(0.758965 -0.377465 -7.043e-22)
(0.72287 -0.294272 1.33714e-22)
(0.719379 -0.173662 1.87189e-22)
(0.728044 0.00581171 8.16311e-23)
(0.731383 0.176844 -8.06835e-23)
(0.723085 0.261922 0)
(0.665939 0.372894 -1.11174e-22)
(0.672854 0.176485 -7.47203e-24)
(0.423305 -0.168128 1.23685e-19)
(0.423273 -0.203051 -1.22906e-19)
(0.419218 -0.237088 8.50246e-22)
(0.412192 -0.267464 -7.626e-22)
(0.399636 -0.293638 6.84686e-22)
(0.380608 -0.314506 -5.96462e-22)
(0.354843 -0.328805 9.85208e-22)
(0.322244 -0.335794 0)
(0.283233 -0.335384 -6.38236e-22)
(0.238457 -0.327575 4.92728e-22)
(0.190801 -0.308901 3.64155e-22)
(0.145117 -0.278151 -3.61051e-22)
(0.105604 -0.23336 0)
(0.0767286 -0.172301 0)
(0.0619032 -0.0970616 8.58207e-23)
(0.0614546 -0.00955909 0)
(0.0766739 0.0881195 -6.07966e-23)
(0.105885 0.187198 0)
(0.146488 0.280896 -7.98701e-21)
(0.194958 0.362875 1.69491e-20)
(0.250394 0.426882 -2.05352e-20)
(0.315393 0.464396 1.13246e-20)
(0.394491 0.46462 1.99633e-20)
(0.488556 0.419377 -1.93832e-20)
(0.590727 0.326998 -3.19748e-20)
(0.692459 0.188847 3.12192e-20)
(0.789568 0.0128199 0)
(0.873804 -0.172636 1.07061e-21)
(0.929588 -0.326143 0)
(0.948653 -0.42106 0)
(0.938985 -0.458315 1.40044e-20)
(0.911445 -0.458278 -1.46497e-20)
(0.873241 -0.440099 5.23661e-22)
(0.835233 -0.409632 3.8615e-22)
(0.796695 -0.3789 -2.5496e-22)
(0.740402 -0.364946 -1.72952e-21)
(0.666193 -0.352202 1.67942e-21)
(0.605385 -0.291321 -2.41753e-21)
(0.587377 -0.157324 2.06936e-21)
(0.615165 0.0140872 5.75078e-22)
(0.670792 0.169478 -2.16088e-21)
(0.733281 0.283935 -3.10449e-22)
(0.77135 0.37955 1.55912e-21)
(0.772482 0.469595 0)
(0.744456 0.522736 -1.55824e-21)
(0.730062 0.469117 3.59373e-21)
(0.740548 0.291157 -4.45778e-21)
(0.775306 0.0467658 -1.25438e-21)
(0.809209 -0.171648 0)
(0.839262 -0.289027 5.19736e-22)
(0.849957 -0.341075 -1.2808e-21)
(0.814548 -0.350858 -1.25595e-23)
(0.770863 -0.368912 -1.39175e-22)
(0.732137 -0.291762 4.38854e-23)