/*--------------------------------*- C++ -*----------------------------------*\
| =========                 |                                                 |
| \\      /  F ield         | OpenFOAM: The Open Source CFD Toolbox           |
|  \\    /   O peration     | Version:  2512                                  |
|   \\  /    A nd           | Website:  www.openfoam.com                      |
|    \\/     M anipulation  |                                                 |
\*---------------------------------------------------------------------------*/
FoamFile
{
    version     2.0;
    format      ascii;
    arch        "LSB;label=32;scalar=64";
    class       volScalarField;
    location    "50.75";
    object      p;
}
// * * * * * * * * * * * * * * * * * * * * * * * * * * * * * * * * * * * * * //

dimensions      [0 2 -2 0 0 0 0];

internalField   nonuniform List<scalar> 
13248
(
-0.283709
-0.28251
-0.280821
-0.278771
-0.276481
-0.274044
-0.2715
-0.268848
-0.266057
-0.263078
-0.259853
-0.256326
-0.252451
-0.2482
-0.243566
-0.23857
-0.233252
-0.227677
-0.221914
-0.216072
-0.210173
-0.204486
-0.198617
-0.193587
-0.290657
-0.288747
-0.286381
-0.283686
-0.280771
-0.277742
-0.274641
-0.271453
-0.268128
-0.264597
-0.260784
-0.256624
-0.252072
-0.24711
-0.241752
-0.23604
-0.230036
-0.22382
-0.217478
-0.211095
-0.20474
-0.198498
-0.192301
-0.186656
-0.298783
-0.29602
-0.292876
-0.289459
-0.285856
-0.282175
-0.278446
-0.27463
-0.270648
-0.266403
-0.26181
-0.256806
-0.251363
-0.245493
-0.239246
-0.232696
-0.225935
-0.219061
-0.212165
-0.205336
-0.198618
-0.192095
-0.1857
-0.179733
-0.308256
-0.304491
-0.30047
-0.29627
-0.29192
-0.287514
-0.283052
-0.278453
-0.273605
-0.268398
-0.262752
-0.256634
-0.250063
-0.243102
-0.235846
-0.228407
-0.2209
-0.213427
-0.206074
-0.198904
-0.191949
-0.185263
-0.178767
-0.172809
-0.319206
-0.314287
-0.309307
-0.304268
-0.299103
-0.293861
-0.288494
-0.282877
-0.276874
-0.270389
-0.263389
-0.255907
-0.24803
-0.239882
-0.231602
-0.22332
-0.215149
-0.207175
-0.199455
-0.192024
-0.184894
-0.178085
-0.171542
-0.165519
-0.331678
-0.325477
-0.319471
-0.313538
-0.307458
-0.301205
-0.294672
-0.287702
-0.28018
-0.272073
-0.263439
-0.254403
-0.24513
-0.235791
-0.226538
-0.217495
-0.208746
-0.200343
-0.192313
-0.184661
-0.177382
-0.17047
-0.163881
-0.157803
-0.345599
-0.338021
-0.330943
-0.324045
-0.316892
-0.309356
-0.301288
-0.292553
-0.283118
-0.273074
-0.262602
-0.251925
-0.241261
-0.230794
-0.220659
-0.210943
-0.201691
-0.192918
-0.184618
-0.176774
-0.169364
-0.162364
-0.155744
-0.149608
-0.360728
-0.351738
-0.343557
-0.335583
-0.327106
-0.317906
-0.307849
-0.296903
-0.285199
-0.272993
-0.260594
-0.24829
-0.236314
-0.224821
-0.213904
-0.203598
-0.193906
-0.184808
-0.176272
-0.168262
-0.160743
-0.15368
-0.147048
-0.140868
-0.376634
-0.36626
-0.356945
-0.347718
-0.337568
-0.326233
-0.313701
-0.300148
-0.285928
-0.271471
-0.257176
-0.243349
-0.230187
-0.217791
-0.206192
-0.195377
-0.185306
-0.17593
-0.167198
-0.159058
-0.151461
-0.144368
-0.137749
-0.131552
-0.392662
-0.380997
-0.370498
-0.359759
-0.347498
-0.333528
-0.318093
-0.30167
-0.284852
-0.268203
-0.25215
-0.236963
-0.222768
-0.209597
-0.197419
-0.186173
-0.175789
-0.166193
-0.157313
-0.149087
-0.141455
-0.134371
-0.127789
-0.12161
-0.407942
-0.395117
-0.383341
-0.370747
-0.355895
-0.33884
-0.320212
-0.300829
-0.281489
-0.262818
-0.24521
-0.228852
-0.213787
-0.199973
-0.187324
-0.17574
-0.165123
-0.155377
-0.146418
-0.138169
-0.130562
-0.123542
-0.117036
-0.110933
-0.421461
-0.407659
-0.394487
-0.37965
-0.36173
-0.341207
-0.319204
-0.296881
-0.275175
-0.254699
-0.235759
-0.218435
-0.202678
-0.188375
-0.175391
-0.163591
-0.152852
-0.143062
-0.134121
-0.125943
-0.118453
-0.111586
-0.105237
-0.0993403
-0.258982
-0.260856
-0.262041
-0.262819
-0.26345
-0.263998
-0.264491
-0.264943
-0.265358
-0.265729
-0.266045
-0.26629
-0.26645
-0.266507
-0.266445
-0.266246
-0.265895
-0.26538
-0.264688
-0.263817
-0.26278
-0.261577
-0.260261
-0.259012
-0.257031
-0.258965
-0.260167
-0.260929
-0.26151
-0.261971
-0.262334
-0.26261
-0.2628
-0.262893
-0.262874
-0.262725
-0.262427
-0.261963
-0.261312
-0.26046
-0.259392
-0.258099
-0.256583
-0.254854
-0.252926
-0.250804
-0.248573
-0.246666
-0.255902
-0.257808
-0.258975
-0.259686
-0.260191
-0.260546
-0.260766
-0.260859
-0.260822
-0.26064
-0.260296
-0.259768
-0.259035
-0.258077
-0.256873
-0.255409
-0.253671
-0.251654
-0.249363
-0.246818
-0.244047
-0.241052
-0.237909
-0.235301
-0.255601
-0.257404
-0.258486
-0.259113
-0.259518
-0.259747
-0.259812
-0.259718
-0.259455
-0.259009
-0.258356
-0.257474
-0.25634
-0.254931
-0.253227
-0.251212
-0.248875
-0.246211
-0.243225
-0.239945
-0.236411
-0.232631
-0.228608
-0.225114
-0.256091
-0.25773
-0.258684
-0.259195
-0.259472
-0.259556
-0.259454
-0.259166
-0.258682
-0.257981
-0.25704
-0.255835
-0.25434
-0.252532
-0.25039
-0.2479
-0.24505
-0.241839
-0.238273
-0.234376
-0.230199
-0.225763
-0.220981
-0.216534
-0.257311
-0.258739
-0.259528
-0.259889
-0.26001
-0.259926
-0.25964
-0.259151
-0.258444
-0.257499
-0.256291
-0.254793
-0.252979
-0.250826
-0.248314
-0.245429
-0.242164
-0.238519
-0.234501
-0.230133
-0.225461
-0.220508
-0.215153
-0.209863
-0.259192
-0.260376
-0.260965
-0.261142
-0.261073
-0.260792
-0.260301
-0.259597
-0.258665
-0.257483
-0.256024
-0.254261
-0.252169
-0.249723
-0.246908
-0.24371
-0.240124
-0.236156
-0.231818
-0.227133
-0.222139
-0.21686
-0.211303
-0.204803
-0.26168
-0.262592
-0.262945
-0.262898
-0.262601
-0.262088
-0.261364
-0.260427
-0.25926
-0.257841
-0.256144
-0.254139
-0.251802
-0.249109
-0.246044
-0.242599
-0.238773
-0.234577
-0.23003
-0.225158
-0.220014
-0.214506
-0.209279
-0.201637
-0.264749
-0.26536
-0.265434
-0.265116
-0.264544
-0.263756
-0.262766
-0.261568
-0.26015
-0.258487
-0.256553
-0.254317
-0.251754
-0.24884
-0.245563
-0.241914
-0.237901
-0.233539
-0.228859
-0.223886
-0.218759
-0.213087
-0.208524
-0.200495
-0.268411
-0.268681
-0.268424
-0.267778
-0.266874
-0.265762
-0.26446
-0.262968
-0.261272
-0.259347
-0.257162
-0.254687
-0.251893
-0.248759
-0.245268
-0.24142
-0.237226
-0.232715
-0.227933
-0.222905
-0.217877
-0.212266
-0.208235
-0.200879
-0.272721
-0.272592
-0.271937
-0.270892
-0.269588
-0.268089
-0.26642
-0.264584
-0.262567
-0.26034
-0.257869
-0.255118
-0.252056
-0.248657
-0.244909
-0.240814
-0.236391
-0.231679
-0.226743
-0.221638
-0.216598
-0.21129
-0.207393
-0.201421
-0.277778
-0.277167
-0.276031
-0.274509
-0.272729
-0.270771
-0.268672
-0.266437
-0.264045
-0.261462
-0.258647
-0.255555
-0.252149
-0.2484
-0.244298
-0.239848
-0.235079
-0.230042
-0.224799
-0.219452
-0.214099
-0.20887
-0.204394
-0.199799
-0.257704
-0.25591
-0.25401
-0.252029
-0.250047
-0.248184
-0.246626
-0.245634
-0.245521
-0.246615
-0.249197
-0.253458
-0.259405
-0.266721
-0.274587
-0.281986
-0.287204
-0.288264
-0.283394
-0.271523
-0.252571
-0.228287
-0.201145
-0.175
-0.153506
-0.139771
-0.136058
-0.142457
-0.155321
-0.167472
-0.171143
-0.162655
-0.143648
-0.119927
-0.0974003
-0.0795198
-0.0672766
-0.0618281
-0.0646792
-0.0724628
-0.0773813
-0.0736379
-0.0616812
-0.0461681
-0.0311668
-0.018697
-0.00925245
-0.00292435
-3.48142e-06
0.000390144
-0.000371744
-0.000311509
0.000433553
0.00196184
0.0033116
0.0041154
0.00418967
0.00351647
0.00202664
0.00100845
-0.245218
-0.243329
-0.241704
-0.240398
-0.239566
-0.239332
-0.239916
-0.241605
-0.244727
-0.249548
-0.256206
-0.264771
-0.275046
-0.286489
-0.297763
-0.307941
-0.314794
-0.316185
-0.310159
-0.295479
-0.27225
-0.242458
-0.209397
-0.177147
-0.149377
-0.129088
-0.118582
-0.118739
-0.12726
-0.138059
-0.143695
-0.139666
-0.126767
-0.109513
-0.092894
-0.079917
-0.0718449
-0.0706988
-0.0775959
-0.0876749
-0.091988
-0.0851908
-0.0696259
-0.0508561
-0.0333799
-0.0192021
-0.00862875
-0.00141336
0.0023578
0.00329553
0.00253381
0.00206057
0.00203513
0.00288384
0.00372515
0.00416763
0.00397739
0.00318715
0.00165014
0.000805727
-0.234023
-0.231995
-0.230593
-0.229859
-0.230121
-0.231311
-0.233742
-0.237713
-0.24356
-0.251545
-0.261531
-0.273591
-0.287315
-0.301949
-0.316187
-0.328396
-0.336426
-0.337917
-0.330779
-0.313633
-0.286662
-0.252107
-0.213789
-0.176078
-0.142878
-0.116999
-0.100483
-0.0945758
-0.0984165
-0.107394
-0.114654
-0.115088
-0.10829
-0.0975389
-0.0868677
-0.0788935
-0.0753887
-0.0790446
-0.0902114
-0.102463
-0.105887
-0.0960229
-0.0769311
-0.0551564
-0.0354864
-0.0198188
-0.0082604
-0.000285492
0.00426302
0.00581916
0.00526227
0.00444243
0.00375513
0.00392369
0.00420209
0.00423138
0.00373332
0.0028257
0.00127123
0.000600702
-0.22448
-0.222223
-0.220947
-0.220468
-0.221992
-0.22421
-0.228047
-0.233766
-0.241685
-0.251998
-0.264593
-0.279293
-0.295602
-0.31261
-0.328894
-0.342558
-0.351267
-0.353016
-0.345084
-0.326086
-0.296224
-0.257893
-0.215226
-0.173009
-0.135317
-0.104788
-0.0831312
-0.0716192
-0.0703742
-0.0766567
-0.0847021
-0.0891498
-0.0881734
-0.0837379
-0.0788873
-0.0759729
-0.0774435
-0.0863591
-0.102018
-0.116364
-0.11873
-0.105924
-0.0835359
-0.0590603
-0.0374922
-0.0205623
-0.00816572
0.000450664
0.00567908
0.00787428
0.00769068
0.00671805
0.0055222
0.00504529
0.00472877
0.0043055
0.00347016
0.00245135
0.00091172
0.000408689
-0.216849
-0.214502
-0.213158
-0.213143
-0.214694
-0.217768
-0.222683
-0.2297
-0.239069
-0.250938
-0.265219
-0.281639
-0.299616
-0.318162
-0.335784
-0.35045
-0.359796
-0.361596
-0.353222
-0.333109
-0.301384
-0.260471
-0.214771
-0.169309
-0.128174
-0.0938808
-0.0678839
-0.051309
-0.0448638
-0.0473701
-0.0548156
-0.0621375
-0.0662583
-0.0677006
-0.0684747
-0.0707077
-0.0775506
-0.092168
-0.112529
-0.128905
-0.130085
-0.114668
-0.089371
-0.0625656
-0.0394047
-0.0214326
-0.0083392
0.000811901
0.0066125
0.00941556
0.00971155
0.00876242
0.00723557
0.006181
0.00527075
0.00437913
0.00319915
0.00208353
0.000589226
0.000241534
-0.211081
-0.208963
-0.207268
-0.207245
-0.20897
-0.212466
-0.217946
-0.225662
-0.23582
-0.248509
-0.263644
-0.280908
-0.29968
-0.318962
-0.337314
-0.352794
-0.362242
-0.364004
-0.355482
-0.334955
-0.302445
-0.260382
-0.213216
-0.165955
-0.122587
-0.0854906
-0.0559432
-0.0349057
-0.0233471
-0.0212862
-0.0264231
-0.0347432
-0.0428362
-0.049293
-0.055308
-0.0628235
-0.0754374
-0.0961038
-0.121285
-0.13965
-0.13956
-0.122087
-0.0943814
-0.0656704
-0.0412273
-0.0224188
-0.00875759
0.000833233
0.00710209
0.0104453
0.0112578
0.0104691
0.00878303
0.00724508
0.00578064
0.0044363
0.00293085
0.00174049
0.000316254
0.000106163
-0.207384
-0.205761
-0.203521
-0.20311
-0.204782
-0.208368
-0.213965
-0.22183
-0.232163
-0.245015
-0.260271
-0.277597
-0.296371
-0.315592
-0.333929
-0.350393
-0.359126
-0.360801
-0.352432
-0.332177
-0.299967
-0.258162
-0.211076
-0.163481
-0.119139
-0.0802709
-0.0480246
-0.02324
-0.00692504
0.000132212
-0.00129348
-0.00848753
-0.0186099
-0.0288448
-0.0395416
-0.0523977
-0.0710937
-0.097933
-0.127895
-0.148238
-0.147396
-0.128117
-0.0985206
-0.0683616
-0.0429495
-0.0234972
-0.00938341
0.000563364
0.00720791
0.0110052
0.0123134
0.011771
0.0100652
0.00815624
0.00621266
0.00446369
0.00267687
0.00143834
0.000100376
4.62901e-06
-0.205511
-0.204652
-0.201855
-0.20082
-0.202168
-0.20553
-0.210844
-0.218379
-0.228344
-0.240763
-0.255505
-0.272241
-0.290366
-0.308868
-0.32621
-0.339954
-0.350689
-0.352718
-0.344842
-0.325461
-0.294517
-0.254234
-0.208607
-0.161998
-0.117842
-0.0782157
-0.0441854
-0.016499
0.00389203
0.0158809
0.0190661
0.0147609
0.00500049
-0.00748702
-0.0220027
-0.0399223
-0.0646811
-0.0975541
-0.132062
-0.154354
-0.153599
-0.132704
-0.101743
-0.0706081
-0.0445436
-0.0246317
-0.0101698
6.00149e-05
0.00700127
0.0111653
0.0129109
0.0126492
0.0110221
0.00886015
0.0065372
0.00445727
0.00245051
0.00118978
-5.57751e-05
-6.46048e-05
-0.204964
-0.204766
-0.201625
-0.200071
-0.200969
-0.203802
-0.208479
-0.215301
-0.224463
-0.235964
-0.249678
-0.265306
-0.282289
-0.299717
-0.316308
-0.32929
-0.33879
-0.340792
-0.333558
-0.315526
-0.286658
-0.248923
-0.20584
-0.161248
-0.118219
-0.0787133
-0.0438009
-0.0141567
0.00938028
0.0256697
0.0336968
0.033413
0.0260144
0.0130567
-0.00401101
-0.0262186
-0.0565426
-0.0950437
-0.133647
-0.157814
-0.157482
-0.135728
-0.104035
-0.0724298
-0.046026
-0.0258229
-0.0110977
-0.000636811
0.00654366
0.0110023
0.0131149
0.0131321
0.0116443
0.00934085
0.00674848
0.00442445
0.00226561
0.00100295
-0.000153665
-0.000105442
-0.204891
-0.204674
-0.201642
-0.200072
-0.200578
-0.20267
-0.20647
-0.212311
-0.220329
-0.230521
-0.24279
-0.256868
-0.272229
-0.288167
-0.304483
-0.315951
-0.324134
-0.326079
-0.31968
-0.30346
-0.277344
-0.242941
-0.203167
-0.161286
-0.120032
-0.081293
-0.0462038
-0.0154237
0.0103308
0.0299956
0.0423934
0.0466425
0.0426924
0.0310176
0.0129201
-0.0123319
-0.0471306
-0.0903862
-0.132584
-0.158556
-0.158919
-0.137185
-0.10554
-0.0740005
-0.0475415
-0.027169
-0.0122218
-0.00154273
0.00585491
0.0105663
0.0129884
0.0132756
0.0119645
0.0096175
0.006863
0.0043819
0.00213472
0.000880972
-0.000119734
-0.000122525
-0.203986
-0.203233
-0.200922
-0.199775
-0.199975
-0.201376
-0.204329
-0.209105
-0.215812
-0.224513
-0.235158
-0.247529
-0.261113
-0.275124
-0.288673
-0.299711
-0.307258
-0.30942
-0.304247
-0.290433
-0.267801
-0.23749
-0.201704
-0.163081
-0.124045
-0.0864741
-0.0515902
-0.0201528
0.00713144
0.0293522
0.0454362
0.0542333
0.0540099
0.0450803
0.0275866
0.000836134
-0.0371433
-0.0842309
-0.129268
-0.156517
-0.157895
-0.136976
-0.106217
-0.0752754
-0.0490288
-0.0286092
-0.0134914
-0.00261536
0.00497659
0.0099057
0.012587
0.0131287
0.0120275
0.00972366
0.00690556
0.00434662
0.00206529
0.000819809
-0.000114826
-0.000122504
-0.200945
-0.200386
-0.198987
-0.198014
-0.197922
-0.19888
-0.201116
-0.204775
-0.210008
-0.216935
-0.225544
-0.235664
-0.246806
-0.258442
-0.269234
-0.281036
-0.287468
-0.2894
-0.285405
-0.27411
-0.255139
-0.229122
-0.197592
-0.16262
-0.126332
-0.0905657
-0.0566848
-0.025607
0.00197451
0.025335
0.0436919
0.0560564
0.0601223
0.0541969
0.0385907
0.0122015
-0.0268108
-0.075816
-0.122725
-0.151328
-0.153429
-0.134169
-0.104818
-0.0749172
-0.0493245
-0.0292516
-0.0142674
-0.00340847
0.00422306
0.00924259
0.0120723
0.0128017
0.0118826
0.00968393
0.00688171
0.00431175
0.00204144
0.000806368
-7.55188e-05
-0.00011088
-0.194961
-0.196966
-0.19602
-0.194902
-0.194769
-0.195786
-0.197932
-0.201279
-0.205991
-0.212199
-0.219905
-0.228953
-0.238946
-0.249348
-0.259331
-0.268119
-0.273489
-0.274527
-0.26988
-0.258496
-0.240135
-0.215443
-0.185816
-0.153085
-0.119107
-0.0854828
-0.0534152
-0.0237282
0.00295029
0.025992
0.0447383
0.0583097
0.0642393
0.0607894
0.0471133
0.0215332
-0.0184103
-0.0699565
-0.119279
-0.148469
-0.150369
-0.130308
-0.10135
-0.0724515
-0.0478981
-0.0286254
-0.0141524
-0.0035832
0.00390237
0.00886723
0.011719
0.0125323
0.0117145
0.00957567
0.00680541
0.00425601
0.00202287
0.000808896
-2.4866e-05
-9.59012e-05
-0.188222
-0.192161
-0.191786
-0.190513
-0.190333
-0.191516
-0.193807
-0.197108
-0.201511
-0.207121
-0.213933
-0.221787
-0.230322
-0.238973
-0.246937
-0.253472
-0.257087
-0.25659
-0.250995
-0.239565
-0.222173
-0.199383
-0.172342
-0.142531
-0.111468
-0.0805007
-0.0506943
-0.0228378
0.00244917
0.0245896
0.0430178
0.0563903
0.0634462
0.0613173
0.0489419
0.0243924
-0.0151205
-0.0664952
-0.114961
-0.142589
-0.14298
-0.123426
-0.0960956
-0.0691125
-0.0461442
-0.027959
-0.0141426
-0.00393611
0.00336424
0.00825538
0.0111134
0.0120153
0.0113166
0.00932151
0.00666445
0.0041948
0.0020389
0.000845348
4.74272e-05
-7.27876e-05
-0.180413
-0.185805
-0.186188
-0.185096
-0.185
-0.186354
-0.188789
-0.192036
-0.19609
-0.201027
-0.206841
-0.213371
-0.220264
-0.227062
-0.233127
-0.23771
-0.239634
-0.237965
-0.231945
-0.221007
-0.205035
-0.184439
-0.160082
-0.133129
-0.104836
-0.0763767
-0.0487337
-0.0226751
0.00116892
0.0221997
0.0398552
0.0529407
0.0599108
0.05815
0.0463487
0.0225627
-0.0156672
-0.0644757
-0.109212
-0.1339
-0.133316
-0.115171
-0.0901954
-0.0654957
-0.0442629
-0.0272325
-0.0141187
-0.00431297
0.00276975
0.00755917
0.0103942
0.0113767
0.0108008
0.00897486
0.00647965
0.00412891
0.00207678
0.000899952
0.000133521
-4.49026e-05
-0.171942
-0.178247
-0.179463
-0.178811
-0.178884
-0.180323
-0.182774
-0.185866
-0.189503
-0.193728
-0.198543
-0.203804
-0.209225
-0.214453
-0.218909
-0.221859
-0.222475
-0.220038
-0.213913
-0.203628
-0.189058
-0.170492
-0.148593
-0.124298
-0.0986495
-0.0726545
-0.0472011
-0.0230201
-0.000741089
0.0190178
0.0356521
0.0480669
0.0546526
0.0530686
0.0418792
0.0192895
-0.0165161
-0.0611686
-0.101167
-0.122551
-0.122043
-0.10595
-0.0837495
-0.0615698
-0.0422124
-0.0264253
-0.0140738
-0.00470831
0.00213274
0.00680806
0.00961263
0.0106675
0.0102141
0.00857423
0.00626867
0.00405851
0.00212388
0.000963944
0.000224087
-1.45696e-05
-0.16296
-0.16986
-0.171878
-0.171766
-0.17205
-0.173517
-0.1759
-0.178792
-0.182026
-0.185609
-0.189545
-0.193724
-0.19792
-0.201798
-0.204864
-0.206525
-0.206171
-0.203208
-0.197104
-0.18748
-0.174219
-0.15753
-0.13792
-0.116124
-0.0929926
-0.0693833
-0.0460923
-0.0238145
-0.0031736
0.0151978
0.0306609
0.0421943
0.0482847
0.0468671
0.0365378
0.0157986
-0.0164947
-0.0560478
-0.0910966
-0.109802
-0.109645
-0.0960809
-0.0769581
-0.0574502
-0.0400467
-0.0255554
-0.0140093
-0.00511842
0.00145714
0.00600591
0.00877327
0.00989089
0.00956429
0.0081235
0.00602664
0.00397313
0.00216713
0.00102882
0.000312377
1.67815e-05
-0.15367
-0.160975
-0.163665
-0.164076
-0.16459
-0.166076
-0.168362
-0.171052
-0.173933
-0.176973
-0.180172
-0.183447
-0.186607
-0.189348
-0.191285
-0.19196
-0.190877
-0.18755
-0.181559
-0.172601
-0.160573
-0.145616
-0.128108
-0.108622
-0.0878496
-0.0665179
-0.045337
-0.0249602
-0.00599506
0.0109282
0.0251432
0.0357175
0.0412889
0.040089
0.0308544
0.012449
-0.0157026
-0.0497186
-0.0798009
-0.0962052
-0.0968356
-0.0860474
-0.070085
-0.0532555
-0.0378103
-0.0246343
-0.0139226
-0.0055356
0.000751581
0.00515935
0.00788193
0.0090564
0.0088611
0.00762344
0.00574742
0.00386309
0.0021956
0.00108654
0.000392402
4.7445e-05
-0.144372
-0.151824
-0.155004
-0.155874
-0.156618
-0.158128
-0.160316
-0.162815
-0.16539
-0.167977
-0.170565
-0.173091
-0.175395
-0.177232
-0.178297
-0.17822
-0.176603
-0.173062
-0.167268
-0.158979
-0.148099
-0.134721
-0.119126
-0.101759
-0.083182
-0.0640102
-0.0448692
-0.0263636
-0.00907613
0.00637862
0.0193252
0.0289419
0.0340248
0.0331098
0.0251233
0.00928279
-0.0145248
-0.042987
-0.0683451
-0.0828099
-0.0843969
-0.0763154
-0.0633634
-0.0490918
-0.0355467
-0.0236758
-0.013813
-0.00595256
2.56937e-05
0.00427806
0.00694972
0.00817629
0.00811355
0.00707796
0.00542865
0.00372184
0.00219788
0.00113013
0.000459303
7.57246e-05
-0.13517
-0.142547
-0.146057
-0.147308
-0.148264
-0.1498
-0.151892
-0.154214
-0.156523
-0.158734
-0.160825
-0.162747
-0.164376
-0.165518
-0.165921
-0.165292
-0.163316
-0.159693
-0.154162
-0.146531
-0.136715
-0.124773
-0.110915
-0.0954899
-0.0789501
-0.0618125
-0.044624
-0.0279361
-0.0122981
0.00170329
0.0134132
0.0221083
0.0267521
0.0261681
0.0194891
0.00623998
-0.0133795
-0.0366891
-0.0577675
-0.070497
-0.0729364
-0.0672365
-0.0569765
-0.0450491
-0.0332963
-0.0226938
-0.0136807
-0.00636239
-0.000710278
0.00337311
0.00598791
0.00726103
0.00732995
0.00649229
0.00507027
0.00354568
0.00216879
0.00115446
0.000509793
0.00010017
-0.126093
-0.133282
-0.136991
-0.138534
-0.139664
-0.141218
-0.143216
-0.145374
-0.147454
-0.149356
-0.151053
-0.152506
-0.153618
-0.154234
-0.154154
-0.153144
-0.150957
-0.147357
-0.14214
-0.135152
-0.126324
-0.115694
-0.103418
-0.0897676
-0.075109
-0.0598738
-0.0445361
-0.0295925
-0.0155512
-0.00295714
0.00758014
0.0154043
0.0196635
0.0194291
0.0140336
0.00322692
-0.0126307
-0.0314297
-0.0487197
-0.059784
-0.062795
-0.0590185
-0.0510461
-0.0411962
-0.0310943
-0.0217024
-0.0135267
-0.0067588
-0.00144615
0.00245579
0.00500736
0.00632084
0.00651843
0.00587197
0.0046736
0.00333326
0.0021051
0.00115622
0.000542065
0.000119618
-0.117258
-0.124164
-0.127947
-0.12969
-0.130947
-0.132503
-0.134409
-0.136416
-0.138299
-0.139952
-0.141342
-0.142438
-0.143165
-0.143397
-0.142984
-0.141735
-0.139457
-0.135965
-0.131099
-0.124742
-0.116836
-0.107406
-0.096569
-0.0845385
-0.0716093
-0.0581414
-0.0445422
-0.0312522
-0.0187341
-0.00748296
0.00195262
0.00897885
0.012906
0.0130163
0.00881057
0.000182099
-0.0124445
-0.0274073
-0.0413883
-0.0508357
-0.0540792
-0.0517444
-0.0456391
-0.0375818
-0.0289707
-0.0207155
-0.0133532
-0.00713639
-0.00217228
0.0015374
0.00401907
0.00536602
0.00568717
0.00522384
0.00424169
0.0030851
0.00200592
0.00113361
0.00055547
0.000133214
-0.108756
-0.115277
-0.119026
-0.120888
-0.122227
-0.123768
-0.12558
-0.127448
-0.129163
-0.130616
-0.131771
-0.132603
-0.133053
-0.133021
-0.132398
-0.131023
-0.128749
-0.125431
-0.120947
-0.115205
-0.10816
-0.0998286
-0.0903018
-0.0797462
-0.0684003
-0.0565631
-0.0445818
-0.0328413
-0.021756
-0.0117679
-0.00335795
0.00294545
0.00658781
0.00701997
0.00387499
-0.00286537
-0.0127634
-0.0245068
-0.0356501
-0.0435549
-0.0467391
-0.0454127
-0.0407831
-0.0342392
-0.0269509
-0.0197468
-0.0131635
-0.00749078
-0.00287973
0.000629081
0.00303397
0.00440677
0.00484416
0.00455434
0.00377889
0.00280379
0.00187225
0.00108601
0.000550187
0.000140422
-0.100588
-0.106671
-0.110313
-0.112228
-0.113609
-0.115116
-0.116832
-0.118571
-0.12014
-0.121433
-0.122413
-0.123057
-0.123323
-0.123143
-0.122386
-0.120971
-0.118774
-0.115682
-0.111598
-0.106452
-0.100211
-0.092887
-0.0845511
-0.075335
-0.0654316
-0.0550882
-0.0445985
-0.0342945
-0.0245403
-0.0157239
-0.00826488
-0.00261096
0.000787918
0.00151029
-0.000706165
-0.00582879
-0.0134487
-0.0225294
-0.03125
-0.0377206
-0.0406449
-0.039976
-0.03648
-0.0311892
-0.0250561
-0.0188096
-0.0129617
-0.00781875
-0.00356054
-0.000258659
0.00206261
0.00345305
0.00399726
0.00387015
0.0032901
0.00249238
0.00170624
0.00101369
0.000526939
0.000141015
-0.0927748
-0.0984049
-0.101886
-0.103797
-0.105183
-0.10664
-0.108257
-0.109874
-0.111315
-0.112479
-0.113328
-0.113843
-0.113991
-0.113708
-0.112916
-0.111538
-0.10948
-0.106649
-0.102974
-0.0984026
-0.0929107
-0.0865092
-0.0792541
-0.0712506
-0.0626546
-0.0536699
-0.0445428
-0.0355555
-0.0270241
-0.019286
-0.0126936
-0.00762195
-0.00443583
-0.00345991
-0.00487671
-0.00863056
-0.0143658
-0.0212635
-0.0279707
-0.0331114
-0.035648
-0.0353651
-0.0327152
-0.0284434
-0.023303
-0.0179163
-0.0127528
-0.00811834
-0.00420799
-0.00111633
0.00111489
0.00251434
0.00315433
0.00317809
0.00278081
0.00215461
0.00151076
0.000917594
0.000486805
0.000135036
-0.0853632
-0.0905236
-0.0937996
-0.0956633
-0.0970236
-0.0984173
-0.0999334
-0.101435
-0.102763
-0.103822
-0.104575
-0.105005
-0.105086
-0.104769
-0.103996
-0.102703
-0.100818
-0.098272
-0.095007
-0.0909847
-0.0861886
-0.0806294
-0.0743523
-0.0674419
-0.0600242
-0.0522662
-0.0443733
-0.0365821
-0.0291599
-0.0223991
-0.0165958
-0.0120482
-0.0090511
-0.00786046
-0.00860372
-0.0112162
-0.0153946
-0.0205031
-0.0255759
-0.0295324
-0.0316028
-0.0315007
-0.029463
-0.0260045
-0.0217041
-0.017078
-0.0125422
-0.00838889
-0.00481679
-0.00193574
0.000199795
0.00159947
0.00232306
0.00248487
0.00225676
0.00179463
0.00128918
0.000799244
0.000431098
0.000122758
-0.0783655
-0.0830493
-0.0860928
-0.0878775
-0.0891909
-0.0905111
-0.0919254
-0.0933168
-0.0945432
-0.0955163
-0.0962004
-0.0965799
-0.096634
-0.0963267
-0.0956144
-0.0944398
-0.092753
-0.0904993
-0.0876359
-0.0841335
-0.0799805
-0.0751875
-0.069792
-0.0638622
-0.0575003
-0.0508421
-0.0440566
-0.0373416
-0.030918
-0.0250332
-0.01994
-0.0158669
-0.0130458
-0.0116835
-0.0118721
-0.0135455
-0.0164526
-0.0201031
-0.0238243
-0.0267761
-0.0283626
-0.0283013
-0.02669
-0.0238682
-0.0202676
-0.0163041
-0.0123357
-0.008631
-0.00538325
-0.00271023
-0.000674882
0.000716345
0.00151078
0.00179704
0.00172387
0.00141699
0.00104526
0.000660668
0.000361311
0.000104642
-0.0717744
-0.0759958
-0.0787953
-0.0804802
-0.0817311
-0.0829713
-0.0842845
-0.0855713
-0.0867057
-0.087607
-0.0882413
-0.088595
-0.0886523
-0.0883858
-0.0877539
-0.0867177
-0.0852414
-0.0832837
-0.0808076
-0.0777918
-0.0742292
-0.0701299
-0.0655253
-0.0604707
-0.0550488
-0.0493695
-0.0435702
-0.037814
-0.0322835
-0.027179
-0.0227126
-0.0190654
-0.0164292
-0.0149398
-0.0146807
-0.0155967
-0.017481
-0.0199647
-0.022566
-0.0246688
-0.0257938
-0.0256843
-0.024357
-0.0220238
-0.0189967
-0.0156021
-0.012139
-0.00884644
-0.00590526
-0.00343485
-0.00150271
-0.000128146
0.000724265
0.00112088
0.00118808
0.00102648
0.000783049
0.000504339
0.000279098
8.12887e-05
-0.0655942
-0.0693753
-0.0719275
-0.0734995
-0.0746774
-0.0758342
-0.0770485
-0.0782362
-0.0792866
-0.0801267
-0.0807252
-0.0810699
-0.0811478
-0.0809365
-0.0804041
-0.07952
-0.0782579
-0.0765861
-0.0744757
-0.0719099
-0.0688848
-0.0654098
-0.0615109
-0.057233
-0.0526427
-0.0478285
-0.0429013
-0.0379929
-0.0332527
-0.0288411
-0.0249275
-0.0216748
-0.0192207
-0.017652
-0.0170438
-0.0173565
-0.0184243
-0.0200001
-0.0216944
-0.0230798
-0.023779
-0.0235693
-0.0224202
-0.0204546
-0.0178905
-0.014977
-0.0119572
-0.00903782
-0.00638225
-0.00410634
-0.00227876
-0.000928302
-3.04475e-05
0.000462288
0.000655248
0.000628104
0.000506799
0.000333107
0.000186262
5.33996e-05
-0.059827
-0.0631909
-0.0654988
-0.0669511
-0.0680508
-0.0691237
-0.0702427
-0.0713372
-0.0723102
-0.073097
-0.0736688
-0.0740146
-0.0741242
-0.0739802
-0.0735587
-0.0728318
-0.0717724
-0.0703675
-0.0685971
-0.0664444
-0.0639049
-0.0609877
-0.0577144
-0.0541216
-0.0502625
-0.0462077
-0.042046
-0.0378826
-0.0338368
-0.0300375
-0.026618
-0.0237091
-0.0214168
-0.0198341
-0.0189759
-0.0188246
-0.0192762
-0.0201228
-0.0211007
-0.0218928
-0.0222152
-0.0218803
-0.0208339
-0.0191394
-0.0169435
-0.0144311
-0.0117949
-0.00920835
-0.006815
-0.00472311
-0.00299963
-0.00167967
-0.000748173
-0.000173318
0.000130984
0.000226912
0.000220894
0.000150111
8.47396e-05
2.17448e-05
-0.0544634
-0.0574381
-0.0595109
-0.0608427
-0.0618625
-0.0628535
-0.063882
-0.0648891
-0.0657909
-0.0665302
-0.0670811
-0.0674339
-0.0675803
-0.0675066
-0.0671929
-0.0666169
-0.0657582
-0.0646021
-0.0631384
-0.061357
-0.0592526
-0.0568306
-0.0541085
-0.0511162
-0.0478959
-0.0445037
-0.0410095
-0.0374964
-0.0340588
-0.0307984
-0.0278208
-0.0252265
-0.0231026
-0.0215128
-0.0204873
-0.0200021
-0.0199791
-0.0202745
-0.0206938
-0.0210099
-0.0210115
-0.020546
-0.0195516
-0.0180535
-0.0161466
-0.0139643
-0.0116552
-0.00936143
-0.00720536
-0.00528505
-0.00366344
-0.00237905
-0.00142467
-0.000781119
-0.000379451
-0.000172089
-7.02301e-05
-4.13211e-05
-2.34345e-05
-1.28656e-05
-0.0494915
-0.0521091
-0.0539606
-0.0551746
-0.0561157
-0.0570282
-0.0579718
-0.0588975
-0.0597335
-0.0604297
-0.0609632
-0.0613253
-0.0615091
-0.0615037
-0.0612932
-0.0608598
-0.0601864
-0.0592588
-0.0580724
-0.05662
-0.0548992
-0.0529127
-0.050673
-0.0482035
-0.0455379
-0.0427201
-0.0398047
-0.0368564
-0.033949
-0.031162
-0.0285773
-0.0262734
-0.0243186
-0.022763
-0.0216302
-0.0209055
-0.0205344
-0.020415
-0.0204082
-0.0203517
-0.0200896
-0.0195015
-0.0185273
-0.0171701
-0.0154877
-0.0135738
-0.0115401
-0.00950031
-0.00755595
-0.0057933
-0.00426965
-0.0030245
-0.00205668
-0.00135697
-0.000871252
-0.000564099
-0.000362206
-0.000237749
-0.000136157
-4.96141e-05
-0.0449014
-0.0471937
-0.0488394
-0.0499411
-0.0508066
-0.0516451
-0.0525099
-0.0533604
-0.0541355
-0.0547921
-0.0553098
-0.0556811
-0.0559003
-0.0559584
-0.0558429
-0.0555392
-0.0550335
-0.0543142
-0.0533723
-0.0522095
-0.0508227
-0.0492147
-0.0473937
-0.0453766
-0.0431896
-0.0408668
-0.0384504
-0.0359904
-0.0335434
-0.0311708
-0.0289358
-0.0268989
-0.0251134
-0.0236185
-0.022434
-0.0215523
-0.0209365
-0.0205161
-0.0201934
-0.0198533
-0.0193824
-0.0186882
-0.0177173
-0.0164609
-0.0149519
-0.0132543
-0.01145
-0.00962778
-0.00786977
-0.00624997
-0.00481893
-0.00361521
-0.00264197
-0.00189749
-0.00134016
-0.000944597
-0.000650853
-0.000435771
-0.000251285
-8.76789e-05
-0.0406794
-0.0426778
-0.0441348
-0.0451314
-0.0459258
-0.0466957
-0.0474879
-0.0482692
-0.0489882
-0.0496078
-0.0501104
-0.0504893
-0.0507398
-0.0508547
-0.0508235
-0.0506345
-0.0502766
-0.0497401
-0.049018
-0.0481051
-0.0470068
-0.0457239
-0.0442626
-0.0426339
-0.0408572
-0.0389587
-0.0369706
-0.0349308
-0.0328823
-0.0308718
-0.0289478
-0.0271565
-0.025539
-0.0241262
-0.0229351
-0.0219631
-0.0211866
-0.020558
-0.0200101
-0.0194625
-0.0188339
-0.0180548
-0.0170807
-0.0158977
-0.014523
-0.0129988
-0.0113838
-0.00974591
-0.00814993
-0.00665781
-0.0053129
-0.0041514
-0.00317922
-0.00240008
-0.00178258
-0.00130949
-0.000932197
-0.000632122
-0.000366755
-0.000126252
-0.0368099
-0.0385455
-0.0398314
-0.0407313
-0.0414599
-0.0421669
-0.0428928
-0.0436109
-0.0442781
-0.0448629
-0.0453503
-0.0457344
-0.0460112
-0.0461746
-0.0462163
-0.0461265
-0.045896
-0.0455169
-0.0449832
-0.0442912
-0.0434389
-0.0424327
-0.0412766
-0.0399787
-0.0385517
-0.0370147
-0.0353923
-0.0337128
-0.0320081
-0.0303136
-0.0286659
-0.0271
-0.0256476
-0.0243328
-0.0231703
-0.0221611
-0.0212908
-0.0205288
-0.0198297
-0.0191384
-0.0183976
-0.0175567
-0.0165801
-0.0154533
-0.0141837
-0.0127986
-0.011339
-0.00985595
-0.0083993
-0.00701989
-0.00575387
-0.00463414
-0.00366804
-0.00286293
-0.00219556
-0.00165523
-0.00120266
-0.000823664
-0.00048059
-0.000164603
-0.0332776
-0.0347798
-0.0359123
-0.0367242
-0.0373926
-0.0380424
-0.0387083
-0.0393689
-0.0399883
-0.0405404
-0.0410122
-0.0413985
-0.041696
-0.0418997
-0.0420026
-0.0419966
-0.0418741
-0.0416282
-0.041254
-0.040748
-0.0401087
-0.0393367
-0.0384381
-0.0374185
-0.036287
-0.0350566
-0.0337449
-0.0323727
-0.0309639
-0.0295446
-0.028142
-0.0267825
-0.0254902
-0.0242841
-0.0231767
-0.0221709
-0.0212593
-0.0204227
-0.0196318
-0.0188494
-0.0180363
-0.0171564
-0.0161827
-0.0151022
-0.0139169
-0.0126442
-0.011312
-0.0099582
-0.00862038
-0.0073394
-0.00614465
-0.00506521
-0.0041088
-0.00328503
-0.00257688
-0.0019788
-0.00145915
-0.00100764
-0.000590885
-0.000202016
-0.0300668
-0.0313633
-0.0323592
-0.0330919
-0.0337058
-0.034304
-0.0349159
-0.0355243
-0.0360999
-0.036621
-0.0370766
-0.0374623
-0.0377751
-0.0380109
-0.0381638
-0.038227
-0.0381942
-0.0380594
-0.0378184
-0.0374677
-0.0370058
-0.0364327
-0.0357501
-0.0349638
-0.0340799
-0.0331073
-0.0320582
-0.0309475
-0.0297925
-0.0286121
-0.0274264
-0.026255
-0.0251161
-0.0240245
-0.0229907
-0.0220187