/*--------------------------------*- C++ -*----------------------------------*\
| =========                 |                                                 |
| \\      /  F ield         | OpenFOAM: The Open Source CFD Toolbox           |
|  \\    /   O peration     | Version:  2512                                  |
|   \\  /    A nd           | Website:  www.openfoam.com                      |
|    \\/     M anipulation  |                                                 |
\*---------------------------------------------------------------------------*/
FoamFile
{
    version     2.0;
    format      ascii;
    arch        "LSB;label=32;scalar=64";
    class       volVectorField;
    location    "71.75";
    object      U;
}
// * * * * * * * * * * * * * * * * * * * * * * * * * * * * * * * * * * * * * //

dimensions      [0 1 -1 0 0 0 0];

internalField   nonuniform List<vector> 
13248
(
(-0.0133089 0.0119862 7.25976e-20)
(-0.0254452 0.0257416 0)
(-0.0233135 0.0334637 -1.37016e-19)
(-0.00729691 0.0371978 1.2907e-19)
(0.0223219 0.0384753 1.20535e-19)
(0.0652891 0.038448 0)
(0.121289 0.0379832 0)
(0.189804 0.0377349 2.89414e-19)
(0.269942 0.0381583 -1.11431e-21)
(0.360298 0.0395232 -2.53388e-19)
(0.45886 0.0419075 2.36711e-19)
(0.563012 0.045197 -1.48075e-19)
(0.669643 0.0491019 0)
(0.77535 0.0531923 -2.6105e-19)
(0.876684 0.056951 4.9002e-19)
(0.970429 0.0598356 -1.16521e-19)
(1.05385 0.0613498 -2.14228e-19)
(1.12492 0.0610767 2.01114e-19)
(1.18243 0.0588284 0)
(1.22606 0.0542264 0)
(1.25648 0.0482332 0)
(1.27449 0.0379044 0)
(1.28274 0.0318093 6.38201e-20)
(1.28132 0.00695668 2.34734e-19)
(-0.0133591 0.0107443 -2.19225e-19)
(-0.0211559 0.0209686 1.49404e-19)
(-0.0108025 0.0254788 -1.45068e-21)
(0.016716 0.0267067 -1.97233e-19)
(0.0607689 0.0264485 -1.20405e-19)
(0.120741 0.0260379 -1.13872e-19)
(0.195735 0.0264164 -2.08667e-19)
(0.284327 0.0281957 1.97571e-19)
(0.384363 0.0316891 0)
(0.492876 0.0369179 5.92808e-22)
(0.606177 0.0436211 1.35161e-21)
(0.720098 0.0512927 1.48295e-19)
(0.830344 0.0592501 0)
(0.932895 0.0667264 0)
(1.02437 0.0729733 1.79816e-19)
(1.10231 0.0773575 -3.37931e-19)
(1.16536 0.0794348 2.05888e-19)
(1.21329 0.0789928 -1.933e-19)
(1.24691 0.0760497 -8.61914e-20)
(1.26791 0.0708313 -1.6031e-19)
(1.27842 0.0637519 -6.78571e-20)
(1.281 0.0550079 -1.28504e-19)
(1.27748 0.0468383 1.85852e-19)
(1.27095 0.0340161 5.36033e-20)
(-0.0123504 0.00905511 0)
(-0.0131948 0.0155686 0)
(0.00857 0.0174439 6.97658e-20)
(0.0511425 0.0172321 6.41511e-20)
(0.11324 0.0168572 -1.68142e-21)
(0.19343 0.017737 -1.17986e-19)
(0.289617 0.020758 0)
(0.398756 0.026324 -9.82326e-20)
(0.516771 0.0343903 9.26813e-20)
(0.638738 0.0445006 8.69697e-22)
(0.759311 0.0558638 -1.58977e-19)
(0.873284 0.0674789 -1.46915e-19)
(0.976156 0.0782903 1.70723e-21)
(1.06458 0.0873438 -1.24378e-19)
(1.13665 0.0939142 2.96375e-19)
(1.19191 0.0975843 0)
(1.23127 0.0982668 -1.97538e-19)
(1.25668 0.0961594 9.5814e-20)
(1.27074 0.0917091 8.61219e-20)
(1.27619 0.0853734 0)
(1.2757 0.0780143 7.19593e-20)
(1.27125 0.0693389 -2.48367e-19)
(1.26444 0.0623502 2.33156e-19)
(1.25693 0.0504999 1.48436e-19)
(-0.00982185 0.00685577 -7.76706e-20)
(-0.000484995 0.00952613 -8.03574e-20)
(0.0361861 0.00952595 7.2541e-20)
(0.0973201 0.00921228 0)
(0.18053 0.010431 0)
(0.282913 0.0144913 -2.77835e-21)
(0.40041 0.021984 0)
(0.527676 0.0328173 -3.01664e-19)
(0.658373 0.0463047 2.80534e-19)
(0.785823 0.0613081 -3.46592e-19)
(0.903832 0.0764477 7.96211e-20)
(1.00745 0.0903452 0)
(1.09349 0.101846 1.34435e-19)
(1.16072 0.110177 -2.49791e-19)
(1.20973 0.115006 5.94451e-20)
(1.24254 0.116423 1.55695e-19)
(1.26205 0.114837 -5.32542e-21)
(1.27149 0.110851 -1.73894e-19)
(1.27387 0.105115 0)
(1.27171 0.0982477 0)
(1.2668 0.090789 -6.39171e-20)
(1.26029 0.0828918 5.77485e-20)
(1.25291 0.0760848 2.10327e-19)
(1.2453 0.066009 -1.97457e-19)
(-0.00533973 0.00423177 -8.20616e-20)
(0.0179449 0.00316935 -8.17076e-20)
(0.0731456 0.00234192 2.29733e-19)
(0.155975 0.00356501 -1.39258e-19)
(0.262315 0.00831641 1.31078e-19)
(0.386991 0.017482 2.37932e-19)
(0.52326 0.0309919 -1.68328e-19)
(0.663155 0.0479079 -2.05231e-19)
(0.798422 0.0666735 3.77737e-21)
(0.921677 0.0854497 2.62618e-19)
(1.02742 0.102479 0)
(1.11259 0.116392 7.2975e-20)
(1.17668 0.126384 0)
(1.22127 0.132248 -1.20645e-19)
(1.24939 0.134276 1.69857e-19)
(1.26473 0.133092 1.74337e-21)
(1.27094 0.129456 -4.52292e-20)
(1.27115 0.124112 8.56736e-20)
(1.26771 0.117689 7.4105e-20)
(1.26221 0.110654 -6.6959e-20)
(1.2556 0.103378 6.39033e-20)
(1.24839 0.0959315 -5.77353e-20)
(1.24086 0.0892449 0)
(1.23343 0.0802715 -4.40343e-20)
(0.00148227 0.00140617 8.20498e-20)
(0.0428719 -0.00282946 8.6257e-20)
(0.120102 -0.0030334 -7.70147e-20)
(0.226986 0.00166377 1.43581e-19)
(0.356898 0.0119639 -1.3514e-19)
(0.501625 0.0278812 1.22247e-19)
(0.651379 0.0482535 -5.87608e-20)
(0.795995 0.071024 1.54065e-19)
(0.926533 0.0937727 -9.7049e-20)
(1.03664 0.114258 1.72636e-19)
(1.12323 0.130833 -3.99118e-19)
(1.18636 0.142648 1.46971e-19)
(1.22854 0.149626 -1.29703e-19)
(1.25373 0.15228 1.21831e-19)
(1.26631 0.151453 1.06409e-19)
(1.27029 0.148066 9.43329e-20)
(1.26891 0.142954 -2.62551e-19)
(1.26446 0.136769 1.63376e-19)
(1.2584 0.129976 -7.41092e-20)
(1.25156 0.122891 1.94791e-19)
(1.2444 0.115714 -6.28823e-20)
(1.23711 0.108549 -1.54871e-19)
(1.22979 0.101863 1.43278e-19)
(1.22259 0.0937009 4.40209e-20)
(0.0109643 -0.00128511 0)
(0.0747775 -0.00752249 8.09799e-22)
(0.177072 -0.00520314 1.61582e-19)
(0.309144 0.00509875 -1.51469e-19)
(0.461079 0.0227669 -1.3663e-19)
(0.621177 0.0464189 2.53982e-19)
(0.777003 0.0734585 -1.17972e-19)
(0.91752 0.100717 1.57425e-19)
(1.035 0.125282 -3.25151e-21)
(1.1259 0.14509 -8.94402e-20)
(1.19065 0.159172 1.9604e-19)
(1.23256 0.167562 -2.89856e-19)
(1.25643 0.170998 0)
(1.26736 0.17056 -5.74344e-20)
(1.26979 0.167357 -1.54402e-19)
(1.26714 0.162339 4.84374e-20)
(1.26174 0.156214 1.72584e-21)
(1.25503 0.149467 -1.08928e-19)
(1.2478 0.142409 5.97012e-21)
(1.24044 0.135234 1.26436e-19)
(1.23311 0.128065 -5.71402e-20)
(1.22587 0.120995 -2.19651e-20)
(1.21869 0.114188 6.70476e-20)
(1.21162 0.106592 0)
(0.0233258 -0.00341967 0)
(0.113731 -0.00978882 4.38464e-20)
(0.243254 -0.00265476 -2.11103e-19)
(0.400026 0.0153544 7.67922e-20)
(0.570306 0.0416712 -7.22728e-20)
(0.739152 0.0730669 -6.61452e-20)
(0.892799 0.10547 -1.16927e-19)
(1.02135 0.135011 5.83133e-20)
(1.12015 0.158952 5.07374e-20)
(1.18958 0.176039 0)
(1.23355 0.18635 1.16527e-19)
(1.25776 0.190848 -1.73986e-19)
(1.26806 0.190888 1.296e-19)
(1.2695 0.187817 5.74651e-20)
(1.26583 0.182749 -4.7485e-20)
(1.25954 0.176494 -4.01131e-20)
(1.25212 0.169586 -3.77598e-20)
(1.24437 0.162353 1.12e-19)
(1.23666 0.154993 0)
(1.22913 0.147625 5.7136e-20)
(1.22181 0.14033 4.86615e-20)
(1.21469 0.133175 -1.2021e-19)
(1.20769 0.126176 -8.32827e-20)
(1.20081 0.118948 7.68108e-20)
(0.0386369 -0.00451514 -4.74898e-20)
(0.15928 -0.00845082 -1.88214e-21)
(0.316948 0.0060157 4.30147e-20)
(0.496111 0.033509 1.20395e-19)
(0.679237 0.0689185 3.50706e-20)
(0.849296 0.107006 -6.77623e-20)
(0.993234 0.142623 6.18331e-20)
(1.10432 0.171945 -5.42364e-20)
(1.18216 0.19313 9.74393e-20)
(1.23103 0.206148 4.16395e-20)
(1.25746 0.21217 -1.182e-19)
(1.26829 0.212875 3.4932e-20)
(1.26933 0.209928 5.99311e-20)
(1.26488 0.204686 -2.94495e-20)
(1.25774 0.198115 0)
(1.24954 0.190836 4.44545e-20)
(1.24113 0.18322 7.56342e-20)
(1.23291 0.175478 1.32617e-20)
(1.22501 0.167731 -6.33588e-20)
(1.21745 0.160056 2.66537e-20)
(1.21022 0.152512 0)
(1.20322 0.145129 -2.11558e-20)
(1.19641 0.137877 -2.02681e-20)
(1.18969 0.130811 0)
(0.0567629 -0.00406217 0)
(0.210379 -0.00239832 2.49049e-20)
(0.395597 0.0219028 4.61154e-20)
(0.593134 0.0600399 -1.22944e-19)
(0.782529 0.104009 3.97666e-20)
(0.946615 0.146858 0)
(1.07524 0.183157 5.98234e-20)
(1.16624 0.209974 -8.35536e-20)
(1.22364 0.226879 -4.87061e-20)
(1.25476 0.235163 2.20236e-20)
(1.26759 0.236887 -3.54447e-20)
(1.26899 0.234136 8.59617e-20)
(1.26408 0.228618 4.32646e-20)
(1.25615 0.221539 -2.99786e-20)
(1.24711 0.213661 -2.70139e-21)
(1.23795 0.205427 -8.29711e-20)
(1.2291 0.197078 3.78514e-20)
(1.2207 0.188745 -1.01587e-21)
(1.21278 0.180506 0)
(1.20531 0.172412 -2.66816e-20)
(1.19821 0.1645 0)
(1.1914 0.156771 6.09405e-20)
(1.18479 0.149227 -7.26815e-20)
(1.17826 0.142135 3.32033e-20)
(0.0773228 -0.00156421 -1.30394e-20)
(0.265388 0.00929557 -6.28853e-20)
(0.475978 0.0456488 7.16076e-20)
(0.686604 0.094764 4.20795e-20)
(0.875573 0.145846 -2.00741e-20)
(1.02788 0.191006 3.37975e-20)
(1.13801 0.225531 -1.63967e-20)
(1.2088 0.248067 2.73262e-20)
(1.24802 0.259803 0)
(1.26494 0.26319 6.21081e-20)
(1.26783 0.260866 -2.5102e-21)
(1.26296 0.255036 -5.0231e-20)
(1.2544 0.247269 2.15678e-20)
(1.24452 0.23855 -2.442e-20)
(1.23453 0.22944 -9.35488e-21)
(1.22493 0.220234 1.07621e-20)
(1.21593 0.211083 -8.34052e-21)
(1.20754 0.202068 -4.55525e-20)
(1.19972 0.19324 2.79148e-20)
(1.19241 0.184632 5.73812e-21)
(1.18551 0.176258 5.07287e-21)
(1.17893 0.168106 4.48703e-21)
(1.17256 0.160245 0)
(1.16624 0.152931 0)
(0.0997482 0.00342905 1.30484e-20)
(0.322286 0.0272896 -1.30506e-20)
(0.55466 0.0773668 -2.38775e-20)
(0.772465 0.136893 0)
(0.955027 0.19296 -9.98063e-21)
(1.09161 0.237876 -9.00704e-21)
(1.18222 0.268562 -1.54137e-20)
(1.23434 0.285635 0)
(1.25845 0.291829 0)
(1.26458 0.290452 0)
(1.2606 0.284409 0)
(1.25175 0.275813 0)
(1.2411 0.265999 -1.35514e-20)
(1.23024 0.255722 6.17363e-21)
(1.21985 0.245371 1.07717e-20)
(1.21016 0.23513 5.04727e-21)
(1.20121 0.225092 1.25167e-20)
(1.19298 0.215303 0)
(1.18539 0.205794 -3.0229e-21)
(1.17835 0.196585 -2.9092e-21)
(1.17175 0.18767 -5.08096e-21)
(1.16549 0.179043 -4.49421e-21)
(1.15944 0.170845 0)
(1.15344 0.163141 3.24658e-21)
(-0.00172094 0.0247709 7.97363e-21)
(-0.00673069 0.0622261 -8.25382e-21)
(-0.0148824 0.0904321 -1.56029e-20)
(-0.0248036 0.11096 0)
(-0.0356574 0.125335 -2.08203e-20)
(-0.0469518 0.135065 6.51684e-21)
(-0.0583005 0.141527 -1.23735e-20)
(-0.0694055 0.145858 0)
(-0.080056 0.148894 0)
(-0.0901107 0.151166 0)
(-0.0994775 0.152933 0)
(-0.108097 0.154239 0)
(-0.115926 0.154975 -5.48126e-23)
(-0.12293 0.154931 -8.23774e-21)
(-0.12907 0.153839 1.58471e-20)
(-0.134299 0.151402 2.24652e-20)
(-0.138559 0.147308 7.28981e-21)
(-0.141783 0.141252 0)
(-0.143897 0.132947 6.31578e-21)
(-0.14483 0.122144 -1.81652e-20)
(-0.144521 0.108661 -1.16271e-20)
(-0.142937 0.0923769 -1.10438e-20)
(-0.140146 0.0732373 0)
(-0.136406 0.0513894 0)
(-0.0031897 0.0270269 -2.40375e-20)
(-0.00961929 0.0680196 4.13305e-20)
(-0.0175252 0.0989911 -1.57174e-20)
(-0.0262315 0.121605 -2.95999e-20)
(-0.035291 0.137446 4.17557e-20)
(-0.0444213 0.148086 -2.63591e-20)
(-0.0533719 0.15498 3.71614e-20)
(-0.0619247 0.159348 2.35655e-20)
(-0.0699037 0.162114 0)
(-0.0771707 0.163885 -2.09733e-20)
(-0.0836187 0.164985 -2.85666e-22)
(-0.0891638 0.165505 1.8493e-20)
(-0.0937378 0.165362 2.67481e-20)
(-0.0972795 0.164358 3.39443e-20)
(-0.0997282 0.162221 -1.54524e-20)
(-0.101018 0.158643 -4.53003e-20)
(-0.101074 0.153293 1.49527e-20)
(-0.0998112 0.145846 -5.549e-20)
(-0.0971282 0.135997 0)
(-0.0929148 0.123497 1.22176e-20)
(-0.0870796 0.108201 1.16091e-20)
(-0.0795209 0.0900399 1.10264e-20)
(-0.0700614 0.0692284 0)
(-0.0586897 0.0464634 0)
(-0.00476389 0.0280174 0)
(-0.0127966 0.0710245 8.39714e-20)
(-0.0205232 0.103946 -3.16354e-20)
(-0.0279275 0.128275 2.97465e-20)
(-0.0349372 0.145486 -8.45014e-20)
(-0.0414807 0.1571 0)
(-0.0474556 0.164558 -5.0192e-20)
(-0.0527384 0.16911 2.36662e-20)
(-0.0572012 0.171728 -4.48924e-20)
(-0.0607196 0.173088 2.14459e-20)
(-0.0631759 0.173576 1.20821e-19)
(-0.0644629 0.173341 -5.68078e-20)
(-0.0644825 0.172344 -9.05909e-20)
(-0.0631432 0.170412 -3.54806e-20)
(-0.0603574 0.167291 -9.67008e-22)
(-0.0560374 0.162669 1.24845e-19)
(-0.0500931 0.156211 -5.90885e-20)
(-0.0424304 0.147572 -7.7846e-22)
(-0.0329415 0.136423 0)
(-0.0214805 0.122482 -5.29562e-20)
(-0.00800077 0.105537 0)
(0.00759241 0.0855418 -4.79051e-20)
(0.0258125 0.0628492 1.82812e-19)
(0.0471134 0.0385912 1.53731e-21)
(-0.00626254 0.0277787 0)
(-0.0159306 0.07121 3.56882e-22)
(-0.0235827 0.105112 3.20909e-20)
(-0.0297302 0.130604 -3.02555e-20)
(-0.0346086 0.148923 2.81815e-20)
(-0.038332 0.16143 1.60586e-19)
(-0.0409462 0.16948 -5.03679e-20)
(-0.0424311 0.174287 -4.77416e-20)
(-0.0427221 0.176836 8.99846e-20)
(-0.0417248 0.177842 -1.28072e-19)
(-0.0393234 0.177748 4.02292e-20)
(-0.0353956 0.176763 3.84597e-20)
(-0.0298197 0.1749 0)
(-0.0224746 0.172034 3.45386e-20)
(-0.0132446 0.167941 0)
(-0.00201827 0.162331 6.36831e-20)
(0.0113111 0.154881 -1.22689e-19)
(0.0268456 0.145248 2.62851e-20)
(0.0446835 0.133094 1.10474e-19)
(0.0649207 0.118104 5.28941e-20)
(0.0876148 0.0999909 0)
(0.112799 0.0786472 -1.48304e-19)
(0.140895 0.0543789 4.5959e-20)
(0.174135 0.0284375 0)
(-0.00754438 0.0264898 0)
(-0.0187494 0.0688386 -1.02473e-19)
(-0.026463 0.102654 -3.22728e-20)
(-0.0315129 0.128574 -6.06397e-20)
(-0.034346 0.147526 5.70963e-20)
(-0.035218 0.160654 -5.36021e-20)
(-0.0343001 0.169164 1.01532e-19)
(-0.0316801 0.174183 4.81225e-20)
(-0.027371 0.176663 -1.35269e-19)
(-0.021325 0.177325 8.59365e-20)
(-0.0134498 0.176652 -1.21759e-19)
(-0.00362425 0.174902 2.70293e-19)
(0.0082874 0.172145 -1.45676e-19)
(0.0224274 0.168309 6.98741e-20)
(0.0389371 0.163216 2.01538e-19)
(0.0579541 0.156616 -6.10912e-20)
(0.0796099 0.148215 -5.8615e-20)
(0.104023 0.137699 -5.74662e-20)
(0.131301 0.12475 0)
(0.161526 0.109065 -1.09873e-19)
(0.194724 0.0903825 -1.07894e-19)
(0.231011 0.0685126 1.48005e-19)
(0.26954 0.0436186 1.92887e-19)
(0.318116 0.0170002 -1.81469e-19)
(-0.00854076 0.0244394 0)
(-0.0210943 0.0644196 -1.38207e-19)
(-0.0290085 0.0970555 -3.86359e-23)
(-0.0331916 0.122515 1.2216e-19)
(-0.03418 0.141417 0)
(-0.0323176 0.154677 0)
(-0.0278747 0.163323 0)
(-0.0210378 0.168357 -4.8119e-20)
(-0.0119017 0.170658 -4.68552e-22)
(-0.0004786 0.170924 8.5283e-20)
(0.0132864 0.169645 -1.22623e-19)
(0.0294985 0.167113 -6.37588e-22)
(0.048297 0.163445 0)
(0.0698413 0.15862 -6.98387e-20)
(0.0942999 0.152513 6.79458e-20)
(0.121839 0.144922 -1.90045e-19)
(0.152637 0.135579 2.45978e-19)
(0.186838 0.124232 6.2847e-20)
(0.224564 0.110606 5.32134e-21)
(0.265927 0.0944485 -2.14538e-19)
(0.310761 0.0755376 -1.03669e-19)
(0.360005 0.0538156 3.51144e-19)
(0.40877 0.028995 -2.36503e-19)
(0.47618 0.00280644 0)
(-0.00926976 0.0219818 6.79456e-20)
(-0.0229455 0.0586356 6.92642e-20)
(-0.0311583 0.089063 -6.54725e-20)
(-0.0346825 0.113088 -1.22487e-19)
(-0.0340347 0.131096 1.15325e-19)
(-0.0295929 0.143807 -1.08131e-19)
(-0.0216929 0.152076 1.52551e-19)
(-0.0105977 0.156767 -4.81363e-20)
(0.00352734 0.158662 9.01173e-20)
(0.020615 0.158406 0)
(0.0406857 0.156469 8.12676e-20)
(0.0638324 0.153156 -1.51793e-19)
(0.0902035 0.148614 1.46568e-19)
(0.119987 0.142863 -1.37655e-19)
(0.153393 0.135823 0)
(0.190601 0.127328 1.26535e-19)
(0.231828 0.117208 2.44817e-19)
(0.277272 0.105244 -2.30428e-19)
(0.32699 0.0912021 -1.1096e-19)
(0.381106 0.0749287 -1.10688e-19)
(0.438677 0.0561316 3.0737e-19)
(0.502678 0.0353809 9.95523e-20)
(0.560838 0.0112542 -9.16634e-20)
(0.648412 -0.0129966 8.73263e-20)
(-0.00982966 0.0194777 -6.7955e-20)
(-0.0244019 0.0522285 2.09756e-19)
(-0.0329006 0.0795725 -6.61e-20)
(-0.0358215 0.101209 1.22932e-19)
(-0.0335855 0.117417 -1.15743e-19)
(-0.0265611 0.128792 1.74027e-22)
(-0.0151104 0.136051 5.09236e-20)
(0.000465402 0.139932 1.9078e-19)
(0.0199653 0.141116 3.8783e-22)
(0.0432994 0.140176 -8.47477e-20)
(0.0704833 0.137549 0)
(0.101624 0.13353 -7.63625e-20)
(0.136895 0.128281 1.43315e-19)
(0.176512 0.121852 1.38257e-19)
(0.220707 0.114203 -6.48315e-20)
(0.269708 0.105247 -8.59704e-22)
(0.32363 0.0948464 -6.02946e-20)
(0.382474 0.082818 1.13714e-19)
(0.446046 0.0689986 1.10939e-19)
(0.514376 0.0534501 -1.06383e-19)
(0.585078 0.0355755 9.93926e-20)
(0.663412 0.0171266 -9.44559e-20)
(0.729023 -0.00544001 0)
(0.831833 -0.0253852 -8.72652e-20)
(-0.0103655 0.0172283 6.85848e-20)
(-0.025606 0.045865 -7.01718e-20)
(-0.0341657 0.0694804 6.6228e-20)
(-0.03622 0.0879155 0)
(-0.0320635 0.101498 0)
(-0.0220237 0.11079 1.08308e-19)
(-0.00644311 0.116427 -1.01771e-19)
(0.0143935 0.119053 9.49752e-20)
(0.040307 0.119263 -4.47193e-19)
(0.0712374 0.117562 -1.78508e-22)
(0.107234 0.114346 7.91403e-20)
(0.148432 0.109892 0)
(0.195013 0.104371 -1.43396e-19)
(0.247152 0.0978542 2.71157e-19)
(0.304953 0.0903356 -1.93168e-19)
(0.368398 0.0817566 -3.10787e-19)
(0.437279 0.0720025 -4.29907e-21)
(0.51113 0.0609986 2.20866e-19)
(0.589057 0.0486029 0)
(0.670514 0.0350927 0)
(0.751846 0.0194956 -9.93896e-20)
(0.838545 0.00470298 9.4453e-20)
(0.907348 -0.015278 -3.50922e-19)
(1.01109 -0.0289231 3.28793e-19)
(-0.0110101 0.0154137 0)
(-0.0266215 0.0400088 0)
(-0.0346736 0.0595274 -1.98777e-19)
(-0.0350937 0.0742101 6.32723e-20)
(-0.0280623 0.0845812 8.41075e-22)
(-0.0138433 0.0912611 1.09351e-19)
(0.00728686 0.0948741 0)
(0.0351184 0.0960139 -9.50697e-20)
(0.0695439 0.0952174 8.92985e-20)
(0.110556 0.0929409 -1.67313e-19)
(0.158213 0.0895443 -3.17128e-22)
(0.212582 0.0852858 1.49614e-19)
(0.273665 0.0803244 1.33483e-21)
(0.341317 0.0747316 1.36378e-19)
(0.415165 0.0685052 -1.89856e-19)
(0.494544 0.0615884 0)
(0.578449 0.0538869 2.32993e-19)
(0.665531 0.0453079 -3.30128e-19)
(0.754015 0.0357105 1.0316e-19)
(0.842291 0.0253006 0)
(0.926689 0.0131936 9.21394e-20)
(1.00992 0.00215937 3.56191e-19)
(1.07433 -0.0144494 -3.34288e-19)
(1.15941 -0.0223908 -3.84297e-19)
(-0.0118104 0.014051 2.08427e-19)
(-0.0272971 0.0348319 -2.86096e-19)
(-0.0337949 0.0501751 9.09113e-22)
(-0.0311506 0.0609066 6.3384e-20)
(-0.0194787 0.0678587 -1.17496e-19)
(0.00102926 0.0717925 -1.08943e-19)
(0.0301867 0.0733826 2.03052e-19)
(0.0678704 0.073219 -1.26467e-21)
(0.114013 0.0718156 -1.78522e-19)
(0.16855 0.0695947 3.3441e-19)
(0.231341 0.0668783 5.7286e-22)
(0.302072 0.0638835 -1.47881e-19)
(0.380153 0.0607239 0)
(0.464647 0.0574144 0)
(0.554221 0.0538832 -6.33108e-20)
(0.64715 0.0499868 -1.1828e-19)
(0.741364 0.0455412 -2.27566e-19)
(0.834528 0.0403171 2.13607e-19)
(0.924202 0.0341704 -1.0321e-19)
(1.00799 0.0268544 1.91571e-19)
(1.08337 0.0183069 -9.22591e-20)
(1.15006 0.00922856 1.6761e-19)
(1.20037 -0.00379412 -3.9141e-19)
(1.25352 -0.00996407 7.53752e-20)
(-0.012663 0.0129917 7.0182e-20)
(-0.0271657 0.030197 0)
(-0.0304829 0.0415506 1.35104e-19)
(-0.0226095 0.0485278 -1.27271e-19)
(-0.00367509 0.0523209 1.17606e-19)
(0.0261697 0.0538839 0)
(0.0667812 0.0539754 0)
(0.117999 0.0532169 -9.52671e-20)
(0.17958 0.0521109 8.47027e-22)
(0.251069 0.0510337 8.4032e-20)
(0.331681 0.0502317 -7.86608e-20)
(0.420199 0.0498163 1.47722e-19)
(0.514925 0.0497638 0)
(0.613693 0.049925 2.63839e-19)
(0.713951 0.0500459 -4.96852e-19)
(0.812896 0.0497961 3.52253e-19)
(0.907658 0.0488206 2.21365e-19)
(0.995478 0.0467255 -2.07798e-19)
(1.07398 0.0433322 0)
(1.14115 0.0380239 0)
(1.19603 0.0316762 0)
(1.23792 0.0221259 0)
(1.26699 0.0128525 7.58498e-20)
(1.28927 0.00194903 -2.68232e-19)
(-0.131301 0.0232205 -6.78142e-21)
(-0.127511 -0.0175637 6.82775e-21)
(-0.121674 -0.0651879 -2.17379e-22)
(-0.114149 -0.118659 0)
(-0.105141 -0.176708 -5.94685e-21)
(-0.0949236 -0.237498 1.13289e-20)
(-0.0839655 -0.298656 -2.91971e-22)
(-0.0728757 -0.357427 -4.95892e-21)
(-0.0622009 -0.410883 0)
(-0.0521866 -0.455876 0)
(-0.0421954 -0.489264 -2.18438e-22)
(-0.030063 -0.507445 -1.93862e-22)
(-0.0121121 -0.505748 -3.04871e-21)
(0.0151445 -0.479081 2.79255e-21)
(0.0541542 -0.422805 0)
(0.104904 -0.335437 0)
(0.165566 -0.221601 2.82032e-21)
(0.23281 -0.0871068 5.68593e-24)
(0.302684 0.0587572 -2.5172e-21)
(0.372617 0.203511 -1.38062e-22)
(0.43934 0.330591 0)
(0.497724 0.425846 0)
(0.543187 0.483432 0)
(0.574027 0.507142 0)
(0.58778 0.510988 0)
(0.578095 0.515607 0)
(0.544506 0.529598 3.35919e-22)
(0.504418 0.530275 -5.50359e-22)
(0.487065 0.473629 0)
(0.509101 0.33431 0)
(0.56347 0.131661 -6.74033e-22)
(0.632434 -0.0827285 6.55043e-22)
(0.69863 -0.259857 2.91566e-22)
(0.748288 -0.377203 0)
(0.777072 -0.435891 0)
(0.792199 -0.448569 2.41353e-22)
(0.791668 -0.444616 -2.3461e-22)
(0.763205 -0.456067 0)
(0.708632 -0.470151 2.25535e-22)
(0.657942 -0.42954 -3.31122e-22)
(0.642138 -0.289831 1.32538e-22)
(0.664184 -0.0818116 0)
(0.707038 0.124076 -2.53058e-22)
(0.755886 0.268651 2.46066e-22)
(0.795731 0.348961 0)
(0.80614 0.399988 0)
(0.774113 0.436882 -6.58295e-23)
(0.723537 0.434919 2.01024e-22)
(0.687872 0.329467 0)
(0.691974 0.15533 0)
(0.731822 -0.0550859 -6.65373e-23)
(0.771348 -0.197344 -5.84529e-24)
(0.787268 -0.316636 -9.93522e-24)
(0.763369 -0.379708 3.22385e-23)
(0.729892 -0.382885 0)
(0.706624 -0.322992 0)
(0.705123 -0.116838 0)
(0.724346 -0.015889 0)
(0.729236 0.21676 0)
(0.705765 0.235799 0)
(-0.0451232 0.0185275 -7.2343e-22)
(-0.0371144 -0.0234105 -3.00575e-20)
(-0.0268701 -0.0726078 3.59731e-22)
(-0.0154416 -0.12755 2.78365e-20)
(-0.00341445 -0.186718 4.3321e-22)
(0.0086192 -0.24809 0)
(0.0197951 -0.309066 -2.19601e-20)
(0.0289709 -0.36678 4.1735e-20)
(0.0350141 -0.418456 -1.97619e-20)
(0.0368349 -0.461676 1.54206e-20)
(0.0340481 -0.494319 -1.47704e-20)
(0.0283591 -0.513932 1.15931e-20)
(0.0236901 -0.516953 -1.12712e-20)
(0.025447 -0.498503 -2.89945e-22)
(0.0392201 -0.452828 -9.46897e-21)
(0.0672441 -0.375664 9.20211e-21)
(0.110459 -0.269034 -9.34674e-21)
(0.167022 -0.138263 8.82807e-21)
(0.231978 0.00602591 -8.74851e-21)
(0.301323 0.151551 1.61766e-20)
(0.370835 0.28296 -7.4673e-21)
(0.435494 0.38631 -3.35742e-22)
(0.490155 0.454561 -4.46588e-21)
(0.530713 0.49061 8.17702e-21)
(0.551437 0.508684 -3.72899e-21)
(0.546589 0.527026 2.11175e-22)
(0.521167 0.547752 3.93533e-21)
(0.497099 0.543037 8.5858e-22)
(0.500789 0.471819 -9.59694e-21)
(0.540834 0.317387 1.10037e-20)
(0.606279 0.105023 -5.72167e-21)
(0.679073 -0.112665 7.40091e-22)
(0.743004 -0.285819 -2.92136e-22)
(0.786567 -0.394378 4.8287e-22)
(0.806178 -0.44474 0)
(0.811257 -0.450904 0)
(0.804498 -0.438487 -8.00962e-22)
(0.774098 -0.439979 6.01934e-22)
(0.716883 -0.449877 6.20519e-22)
(0.659055 -0.41605 2.63731e-22)
(0.633276 -0.28979 -1.02784e-21)
(0.648764 -0.093384 2.43639e-22)
(0.690568 0.107026 0)
(0.743133 0.252586 0)
(0.78681 0.340247 0)
(0.799628 0.402461 0)
(0.769606 0.448028 2.7096e-22)
(0.721913 0.446939 -1.37136e-22)
(0.691552 0.334543 0)
(0.697519 0.15055 0)
(0.73952 -0.0647888 0)
(0.778222 -0.204264 -1.10167e-22)
(0.795493 -0.315665 2.1659e-23)
(0.769967 -0.373472 -7.4116e-23)
(0.736083 -0.3769 0)
(0.714512 -0.320208 0)
(0.708731 -0.118998 3.49176e-23)
(0.727815 -0.01774 7.99785e-23)
(0.725235 0.219048 0)
(0.700175 0.23746 0)
(0.0682084 0.0104373 1.62701e-21)
(0.0814538 -0.0307435 -6.43671e-20)
(0.0964132 -0.0801999 6.37308e-20)
(0.112303 -0.135524 -5.95699e-20)
(0.127891 -0.194678 -4.3609e-22)
(0.142348 -0.255483 0)
(0.154631 -0.3151 -4.80145e-20)
(0.163283 -0.370425 4.70173e-20)
(0.16663 -0.418653 2.98584e-22)
(0.162992 -0.457823 5.2705e-22)
(0.15119 -0.486693 4.41838e-22)
(0.13156 -0.504477 3.81105e-22)
(0.10692 -0.509765 -1.90787e-20)
(0.0827156 -0.49894 1.88342e-20)
(0.0670112 -0.465766 0)
(0.0664995 -0.403978 3.98489e-22)
(0.0849816 -0.310423 -1.45643e-20)
(0.123691 -0.188678 1.44087e-20)
(0.177977 -0.0486969 0)
(0.242879 0.0957035 0)
(0.312504 0.230183 -1.11414e-20)
(0.380937 0.340778 2.03298e-20)
(0.442066 0.419845 -1.68325e-20)
(0.489411 0.469626 7.8261e-22)
(0.515582 0.503028 1.35361e-20)
(0.517061 0.53413 -1.39875e-20)
(0.50347 0.559101 1.45168e-20)
(0.498299 0.547808 1.24224e-21)
(0.522991 0.46411 -9.3277e-21)
(0.579587 0.298692 0)
(0.654536 0.0803596 0)
(0.729583 -0.137954 4.20919e-21)
(0.789704 -0.306362 -5.57668e-21)
(0.826196 -0.406433 1.88078e-23)
(0.836773 -0.449157 2.5454e-21)
(0.831849 -0.450401 -2.47372e-21)
(0.818624 -0.431406 0)
(0.786749 -0.423596 1.7736e-22)
(0.728136 -0.42882 1.53415e-21)
(0.664432 -0.401377 -3.20656e-21)
(0.628993 -0.289256 1.51613e-21)
(0.63752 -0.105813 1.65935e-22)
(0.67767 0.0880831 -1.96438e-21)
(0.733127 0.234601 1.53395e-21)
(0.779886 0.330149 2.94153e-22)
(0.794869 0.403938 2.74824e-22)
(0.76715 0.45836 -2.71663e-22)
(0.723003 0.458396 0)
(0.698329 0.33976 0)
(0.706189 0.146547 -1.60354e-21)
(0.749486 -0.0736939 7.46584e-22)
(0.786946 -0.210725 -5.90164e-22)
(0.805278 -0.314347 6.41061e-22)
(0.778064 -0.366932 5.47974e-22)
(0.743172 -0.371128 -1.38324e-22)
(0.723304 -0.317606 1.48662e-22)
(0.713342 -0.120921 -1.10344e-22)
(0.732144 -0.019071 1.05229e-23)
(0.722467 0.222068 0)
(0.695545 0.239382 0)
(0.200577 -0.00031698 -1.38555e-19)
(0.219943 -0.040929 7.33319e-23)
(0.238711 -0.0897715 1.3165e-19)
(0.258622 -0.144352 -9.79467e-22)
(0.277662 -0.202458 0)
(0.294487 -0.261829 0)
(0.307973 -0.31939 -1.00254e-19)
(0.316549 -0.371689 8.21531e-21)
(0.318449 -0.415575 1.23654e-19)
(0.311964 -0.448886 -5.53067e-21)
(0.295436 -0.47093 -3.1245e-20)
(0.267785 -0.482625 -2.03602e-20)
(0.229704 -0.485217 2.04667e-20)
(0.184911 -0.478102 0)
(0.141279 -0.456073 -1.19143e-20)
(0.109234 -0.411888 1.08857e-20)
(0.0967054 -0.33749 0)
(0.10927 -0.231972 0)
(0.145045 -0.102167 9.94385e-21)
(0.199401 0.0380766 -3.7089e-22)
(0.264922 0.173743 -8.70807e-21)
(0.333667 0.290632 -7.64874e-21)
(0.397956 0.380541 7.53222e-21)
(0.449424 0.444525 -6.49463e-21)
(0.480556 0.492807 -7.01997e-23)
(0.490559 0.534662 6.1943e-21)
(0.491969 0.561688 9.0222e-22)
(0.507225 0.544021 -3.34027e-24)
(0.551955 0.45125 0)
(0.623068 0.279412 1.35374e-20)
(0.706103 0.0587988 -1.40216e-20)
(0.78269 -0.158271 7.92554e-22)
(0.838014 -0.321819 0)
(0.866654 -0.414107 -5.07508e-22)
(0.868471 -0.449725 5.16452e-21)
(0.853849 -0.447247 -8.23239e-21)
(0.833791 -0.423706 4.004e-22)
(0.800602 -0.407546 3.89937e-22)
(0.741874 -0.407251 2.05886e-21)
(0.673944 -0.385159 3.2391e-22)
(0.629627 -0.287639 -2.90862e-21)
(0.63087 -0.118626 2.41417e-21)
(0.668531 0.0676375 6.58462e-23)
(0.725864 0.214952 1.20448e-21)
(0.774908 0.31869 -1.46618e-21)
(0.791807 0.404242 -1.9253e-21)
(0.766718 0.467612 5.23651e-22)
(0.726739 0.469118 1.49648e-21)
(0.708064 0.345219 -3.16713e-21)
(0.717909 0.143691 2.50304e-21)
(0.76166 -0.0815681 -5.99733e-22)
(0.79743 -0.216737 9.04011e-22)
(0.816481 -0.312786 6.06565e-22)
(0.787564 -0.360071 -8.29408e-22)
(0.751054 -0.365447 3.95562e-23)
(0.732668 -0.31513 -9.51825e-23)
(0.718747 -0.122592 0)
(0.73722 -0.0199343 -5.22341e-23)
(0.720837 0.225794 2.36954e-23)
(0.691919 0.241589 0)
(0.346336 -0.0115301 1.42715e-19)
(0.370238 -0.0526516 -2.80528e-19)
(0.39254 -0.10084 1.35914e-19)
(0.415539 -0.153634 1.3053e-19)
(0.437067 -0.209542 -2.50642e-19)
(0.455374 -0.266529 7.10578e-21)
(0.469253 -0.321323 1.10808e-19)
(0.47716 -0.370227 8.93764e-20)
(0.477407 -0.40982 -8.75056e-20)
(0.468529 -0.437602 0)
(0.449214 -0.45271 -5.06626e-20)
(0.418194 -0.456444 8.87475e-20)
(0.374583 -0.451826 -3.84341e-20)
(0.319183 -0.441743 0)
(0.256595 -0.424815 0)
(0.196923 -0.39511 2.93498e-22)
(0.151535 -0.342302 -1.29175e-20)
(0.131165 -0.259445 1.255e-20)
(0.139574 -0.147499 0)
(0.174866 -0.0168734 1.23709e-20)
(0.22956 0.1162 -2.3144e-20)
(0.293696 0.237481 2.16944e-20)
(0.35743 0.337281 -2.09071e-20)
(0.410995 0.4146 -4.50229e-22)
(0.447505 0.476187 2.15838e-20)
(0.468308 0.526595 -1.12419e-20)
(0.486914 0.554468 -4.4912e-22)
(0.522809 0.532037 -9.60734e-21)
(0.585712 0.434356 -2.58272e-21)
(0.669235 0.260561 1.20927e-20)
(0.758974 0.04058 8.81472e-22)
(0.836635 -0.173443 -1.24963e-20)
(0.886931 -0.331773 2.21058e-20)
(0.907142 -0.41712 -1.07427e-20)
(0.900525 -0.446441 0)
(0.876911 -0.441323 -4.20273e-21)
(0.849883 -0.41531 3.95253e-21)
(0.815415 -0.392232 -1.84032e-21)
(0.757688 -0.385904 2.30707e-21)
(0.687225 -0.367832 -2.11503e-22)
(0.635185 -0.284757 0)
(0.629008 -0.131373 -2.68129e-22)
(0.663222 0.0461042 8.48476e-22)
(0.72126 0.193841 0)
(0.771747 0.305806 2.55987e-21)
(0.790329 0.403127 -9.89026e-22)
(0.7682 0.475485 5.68826e-22)
(0.732937 0.478953 7.2108e-22)
(0.720466 0.350912 0)
(0.732472 0.142071 0)
(0.775969 -0.0882361 -2.35943e-21)
(0.809572 -0.222209 3.28991e-21)
(0.828941 -0.310955 -1.56209e-21)
(0.798371 -0.352819 3.9673e-22)
(0.759681 -0.359743 4.55912e-22)
(0.742329 -0.312759 9.52717e-23)
(0.724768 -0.124026 -2.6627e-23)
(0.742926 -0.0203874 0)
(0.720227 0.230187 -4.83462e-23)
(0.68934 0.244089 4.35486e-24)
(0.503335 -0.0245445 1.44435e-19)
(0.528844 -0.0654289 -1.43734e-19)
(0.553588 -0.112172 1.0885e-21)
(0.578417 -0.162102 -1.03143e-21)
(0.600714 -0.214749 9.9479e-22)
(0.618842 -0.268298 -9.26014e-22)
(0.631574 -0.319336 1.65739e-21)
(0.637246 -0.364242 0)
(0.634311 -0.399711 -1.26703e-21)
(0.621755 -0.423119 1.05665e-21)
(0.599005 -0.433173 8.49611e-22)
(0.565636 -0.430534 -6.83861e-22)
(0.520951 -0.418073 0)
(0.464106 -0.400457 0)
(0.395432 -0.380786 2.14976e-22)
(0.320269 -0.357553 0)
(0.248898 -0.322132 -6.88355e-23)
(0.195242 -0.263778 0)
(0.170028 -0.17614 -5.13767e-21)
(0.176908 -0.063067 1.02567e-20)
(0.211732 0.0617784 -1.1001e-20)
(0.264474 0.183535 5.58553e-21)
(0.323083 0.290532 6.58889e-21)
(0.376777 0.379059 -6.39856e-21)
(0.419014 0.451764 -9.37349e-21)
(0.452011 0.508838 9.1591e-21)
(0.488517 0.537359 0)
(0.543851 0.512684 5.11023e-22)
(0.622262 0.414515 0)
(0.715678 0.242788 0)
(0.811314 0.0258334 2.68255e-20)
(0.890307 -0.183468 -2.77801e-20)
(0.935562 -0.336233 1.42084e-21)
(0.947018 -0.415652 1.07306e-21)
(0.932308 -0.43972 -7.55937e-22)
(0.90069 -0.432788 -3.59671e-21)
(0.866714 -0.406178 3.4925e-21)
(0.830798 -0.377914 -2.13664e-21)
(0.775029 -0.365283 1.80973e-21)
(0.70369 -0.349678 3.78077e-22)
(0.645293 -0.280436 -1.82421e-21)
(0.631802 -0.143578 -2.76086e-22)
(0.661635 0.0239145 1.3238e-21)
(0.719124 0.171439 0)
(0.770216 0.291396 -8.99218e-22)
(0.790263 0.400305 1.65186e-21)
(0.771392 0.481713 -2.09618e-21)
(0.741283 0.487782 -7.25706e-22)
(0.735082 0.356757 0)
(0.749538 0.141793 9.21215e-22)
(0.792286 -0.093489 -1.92779e-21)
(0.823256 -0.227026 3.31749e-23)
(0.842468 -0.308856 -4.88217e-22)
(0.810354 -0.345138 4.37813e-22)
(0.769034 -0.353864 -4.36011e-22)
(0.752068 -0.310443 0)
(0.731249 -0.125258 2.66392e-23)
(0.749132 -0.0204924 0)
(0.720519 0.235188 0)
(0.687848 0.246876 -2.84528e-24)
(0.671423 -0.0388674 -1.43952e-19)
(0.694884 -0.0782073 1.42304e-19)