/*--------------------------------*- C++ -*----------------------------------*\
| =========                 |                                                 |
| \\      /  F ield         | OpenFOAM: The Open Source CFD Toolbox           |
|  \\    /   O peration     | Version:  2512                                  |
|   \\  /    A nd           | Website:  www.openfoam.com                      |
|    \\/     M anipulation  |                                                 |
\*---------------------------------------------------------------------------*/
FoamFile
{
    version     2.0;
    format      ascii;
    arch        "LSB;label=32;scalar=64";
    class       volVectorField;
    location    "96.75";
    object      U;
}
// * * * * * * * * * * * * * * * * * * * * * * * * * * * * * * * * * * * * * //

dimensions      [0 1 -1 0 0 0 0];

internalField   nonuniform List<vector> 
13248
(
(-0.0139486 0.0122344 7.67008e-20)
(-0.0266653 0.0257153 0)
(-0.0245857 0.0327532 -1.44747e-19)
(-0.00778547 0.0358039 1.36352e-19)
(0.0237063 0.0365469 1.27234e-19)
(0.0698226 0.0361522 0)
(0.130346 0.0354502 0)
(0.204736 0.0350333 3.0361e-19)
(0.29193 0.035293 -1.49139e-21)
(0.390186 0.0364277 -2.65219e-19)
(0.497006 0.0384368 2.47299e-19)
(0.609182 0.0411223 -1.5459e-19)
(0.722973 0.0441113 0)
(0.834375 0.0469015 -2.72488e-19)
(0.939448 0.0489265 5.11564e-19)
(1.03465 0.0496311 -1.2167e-19)
(1.11715 0.0485504 -2.23672e-19)
(1.18505 0.0453494 2.09985e-19)
(1.23751 0.0399542 0)
(1.27476 0.0321461 0)
(1.29818 0.0230296 0)
(1.30931 0.00967323 0)
(1.31095 0.00131461 6.58485e-20)
(1.30434 -0.0273658 2.40452e-19)
(-0.0143054 0.0113196 -2.31666e-19)
(-0.0225462 0.0215488 1.57968e-19)
(-0.0114914 0.0254524 -1.55607e-21)
(0.0179814 0.0258992 -2.08533e-19)
(0.0653681 0.0248933 -1.27095e-19)
(0.130113 0.0238453 -1.20261e-19)
(0.211251 0.0237036 -2.19723e-19)
(0.307112 0.0250486 2.08319e-19)
(0.415098 0.0281337 0)
(0.53164 0.0328965 7.03955e-22)
(0.652351 0.0389782 1.8519e-21)
(0.772375 0.0457731 1.55328e-19)
(0.88685 0.0525147 0)
(0.991388 0.0583849 0)
(1.0825 0.0626315 1.87741e-19)
(1.15789 0.0646706 -3.52883e-19)
(1.21662 0.0641562 2.14593e-19)
(1.25905 0.0610097 -2.01478e-19)
(1.2867 0.0553913 -8.95962e-20)
(1.30188 0.0476717 -1.66278e-19)
(1.30724 0.0383238 -6.98978e-20)
(1.30557 0.0277212 -1.32205e-19)
(1.29872 0.0179314 1.91795e-19)
(1.28984 0.00385709 5.50015e-20)
(-0.0134025 0.00974569 0)
(-0.0143089 0.0163911 0)
(0.00910708 0.0177656 7.37838e-20)
(0.0549683 0.0168047 6.78079e-20)
(0.121948 0.0156452 -1.8408e-21)
(0.208469 0.0158064 -1.24969e-19)
(0.312104 0.0182 0)
(0.429261 0.0231975 -1.03495e-19)
(0.555139 0.0306781 9.77702e-20)
(0.68402 0.0400813 1.1521e-21)
(0.809833 0.0505073 -1.6704e-19)
(0.926859 0.0608686 -1.54091e-19)
(1.03038 0.0700682 1.982e-21)
(1.11718 0.0771698 -1.29921e-19)
(1.18573 0.0815255 3.09965e-19)
(1.23623 0.0828402 0)
(1.2703 0.0811684 -2.05734e-19)
(1.29055 0.0768399 9.98703e-20)
(1.30005 0.0703999 8.9528e-20)
(1.30182 0.0623526 0)
(1.2985 0.0535791 7.45102e-20)
(1.29187 0.043706 -2.56014e-19)
(1.2833 0.0358563 2.40336e-19)
(1.27401 0.022862 1.51787e-19)
(-0.0107754 0.00748688 -8.2257e-20)
(-0.000874348 0.0102497 -8.51495e-20)
(0.0385286 0.00982089 7.6803e-20)
(0.104317 0.00884619 0)
(0.193843 0.00935308 0)
(0.303778 0.0127423 -3.13127e-21)
(0.429407 0.0196114 0)
(0.564534 0.029806 -3.18923e-19)
(0.701918 0.0425331 2.96374e-19)
(0.834111 0.0565404 -3.65645e-19)
(0.954454 0.0703646 8.37632e-20)
(1.05792 0.0826043 0)
(1.14165 0.0921538 1.40983e-19)
(1.205 0.0983483 -2.61738e-19)
(1.24931 0.101001 6.22646e-20)
(1.27733 0.100342 1.6238e-19)
(1.2925 0.0968889 -5.89643e-21)
(1.29836 0.0912993 -1.8116e-19)
(1.29798 0.0842244 0)
(1.29371 0.0762555 0)
(1.28712 0.0678592 -6.61586e-20)
(1.27914 0.0591911 5.96398e-20)
(1.27033 0.0516923 2.16263e-19)
(1.26132 0.0408236 -2.03042e-19)
(-0.00601415 0.00469653 -8.70199e-20)
(0.0186863 0.00357218 -8.66637e-20)
(0.0777853 0.00235334 2.43589e-19)
(0.16657 0.0030377 -1.47666e-19)
(0.280388 0.00722599 1.3899e-19)
(0.413305 0.0158481 2.52159e-19)
(0.557592 0.0287855 -1.78457e-19)
(0.704244 0.0449876 -2.17377e-19)
(0.844153 0.0627728 4.24901e-21)
(0.969477 0.0802196 2.7748e-19)
(1.07474 0.0955676 0)
(1.15736 0.107529 7.68508e-20)
(1.21755 0.115442 0)
(1.2577 0.119262 -1.26416e-19)
(1.28153 0.11942 1.77905e-19)
(1.29315 0.11662 1.77235e-21)
(1.2964 0.111644 -4.72121e-20)
(1.29435 0.105205 8.91896e-20)
(1.28917 0.0978787 7.70866e-20)
(1.28224 0.0900743 -6.95248e-20)
(1.27437 0.0821206 6.61446e-20)
(1.26595 0.0740735 -5.96264e-20)
(1.25723 0.0668299 0)
(1.24854 0.0572492 -4.53243e-20)
(0.00123794 0.00166473 8.70074e-20)
(0.0450905 -0.00282176 9.15415e-20)
(0.127427 -0.00337551 -8.16862e-20)
(0.241413 0.000946727 1.52402e-19)
(0.379564 0.0108827 -1.43439e-19)
(0.532554 0.0264048 1.29736e-19)
(0.689395 0.0462238 -6.24053e-20)
(0.838923 0.0681341 1.632e-19)
(0.971682 0.0896212 -1.02833e-19)
(1.08139 0.108453 1.82383e-19)
(1.1655 0.123096 -4.21313e-19)
(1.22492 0.132877 1.5506e-19)
(1.26299 0.137901 -1.36286e-19)
(1.2843 0.138817 1.28017e-19)
(1.2936 0.136532 1.11425e-19)
(1.29501 0.131968 9.85274e-20)
(1.29167 0.125908 -2.74233e-19)
(1.28569 0.118944 1.70509e-19)
(1.27838 0.111486 -7.70914e-20)
(1.27044 0.10381 2.0223e-19)
(1.26222 0.0960945 -6.52782e-20)
(1.25387 0.08845 -1.60239e-19)
(1.24546 0.0813028 1.48144e-19)
(1.23709 0.0726732 4.53114e-20)
(0.0112775 -0.00122238 0)
(0.0787511 -0.00785745 9.02443e-22)
(0.187337 -0.00579681 1.71652e-19)
(0.327405 0.00434011 -1.60867e-19)
(0.487825 0.0218532 -1.45155e-19)
(0.655519 0.0452074 2.69792e-19)
(0.816849 0.0716158 -1.25298e-19)
(0.960111 0.097781 1.66927e-19)
(1.07759 0.120793 -3.58808e-21)
(1.16636 0.138725 -9.46994e-20)
(1.2277 0.150816 2.06887e-19)
(1.2658 0.157306 -3.05772e-19)
(1.28611 0.159077 0)
(1.29405 0.157268 -6.04034e-20)
(1.29413 0.152975 -1.61987e-19)
(1.28969 0.147093 5.08694e-20)
(1.28291 0.140265 1.87518e-21)
(1.27505 0.13292 -1.13633e-19)
(1.26679 0.125331 6.46222e-21)
(1.25845 0.11767 1.31749e-19)
(1.25014 0.110053 -5.93204e-20)
(1.24189 0.102572 -2.2719e-20)
(1.23367 0.095365 6.96075e-20)
(1.22552 0.0873948 0)
(0.0243042 -0.00350868 0)
(0.119655 -0.0103247 4.65811e-20)
(0.256543 -0.00328271 -2.24279e-19)
(0.42185 0.014801 8.1632e-20)
(0.600302 0.0411285 -7.68266e-20)
(0.7755 0.072217 -7.03134e-20)
(0.932753 0.103801 -1.24149e-19)
(1.06202 0.131977 6.20143e-20)
(1.15923 0.154146 5.38409e-20)
(1.22565 0.169294 0)
(1.26612 0.177732 1.23082e-19)
(1.28699 0.180589 -1.83622e-19)
(1.29449 0.179286 1.36679e-19)
(1.29372 0.175157 6.04364e-20)
(1.28836 0.169262 -4.98852e-20)
(1.28076 0.162342 -4.20243e-20)
(1.27225 0.154872 -3.94199e-20)
(1.26353 0.147143 1.17252e-19)
(1.25489 0.139328 0)
(1.24645 0.131536 5.95873e-20)
(1.2382 0.123848 5.05776e-20)
(1.23013 0.116331 -1.25107e-19)
(1.22216 0.108988 -8.63414e-20)
(1.21426 0.101459 7.97097e-20)
(0.0403649 -0.00468913 -5.04374e-20)
(0.167248 -0.00899265 -2.01495e-21)
(0.33315 0.00562337 4.57173e-20)
(0.520964 0.0334241 1.28039e-19)
(0.711445 0.0689192 3.72899e-20)
(0.886281 0.10657 -7.20368e-20)
(1.03199 0.141113 6.57152e-20)
(1.14225 0.168837 -5.75607e-20)
(1.2176 0.188155 1.03299e-19)
(1.26327 0.199313 4.40261e-20)
(1.28656 0.203679 -1.2508e-19)
(1.29468 0.203025 3.68835e-20)
(1.29359 0.199012 6.32104e-20)
(1.28749 0.192943 -3.10502e-20)
(1.27907 0.185715 0)
(1.26981 0.177889 4.67095e-20)
(1.26047 0.169791 7.94239e-20)
(1.25136 0.161609 1.38575e-20)
(1.24259 0.153453 -6.64544e-20)
(1.23416 0.145397 2.79519e-20)
(1.22603 0.137497 0)
(1.21813 0.129787 -2.21323e-20)
(1.21039 0.122232 -2.10879e-20)
(1.20273 0.114906 0)
(0.0592932 -0.00423883 0)
(0.22037 -0.00272698 2.64512e-20)
(0.414407 0.0220174 4.90241e-20)
(0.620292 0.0606461 -1.30764e-19)
(0.815876 0.104664 4.23e-20)
(0.983116 0.146857 0)
(1.112 0.18183 6.35266e-20)
(1.2012 0.206902 -8.87152e-20)
(1.25578 0.221961 -5.16422e-20)
(1.28393 0.22855 2.33111e-20)
(1.29411 0.228859 -3.75111e-20)
(1.29339 0.224995 9.09712e-20)
(1.28683 0.218619 4.56927e-20)
(1.27763 0.210866 -3.16772e-20)
(1.26756 0.202433 -2.88977e-21)
(1.25748 0.193717 -8.74968e-20)
(1.24776 0.18493 3.98993e-20)
(1.23853 0.17619 -1.01183e-21)
(1.22978 0.16757 0)
(1.22147 0.15912 -2.79812e-20)
(1.21352 0.150879 0)
(1.20585 0.142848 6.38228e-20)
(1.19838 0.135033 -7.61201e-20)
(1.19097 0.127713 3.47582e-20)
(0.0806681 -0.00165207 -1.38474e-20)
(0.277261 0.00939898 -6.68533e-20)
(0.496933 0.0465065 7.61358e-20)
(0.715256 0.0962171 4.47557e-20)
(0.909099 0.147209 -2.13546e-20)
(1.06312 0.19146 3.59155e-20)
(1.17243 0.224457 -1.74299e-20)
(1.24094 0.245197 2.90068e-20)
(1.2774 0.255188 0)
(1.29171 0.257075 6.58376e-20)
(1.29245 0.253555 -2.67768e-21)
(1.2859 0.246803 -5.32104e-20)
(1.27605 0.23832 2.28343e-20)
(1.26513 0.22902 -2.58462e-20)
(1.25422 0.219412 -9.90639e-21)
(1.24379 0.209758 1.13705e-20)
(1.23397 0.200193 -8.83441e-21)
(1.22478 0.190792 -4.80891e-20)
(1.21616 0.1816 2.94858e-20)
(1.20804 0.172654 6.07078e-21)
(1.20033 0.163968 5.36441e-21)
(1.19294 0.155532 4.7425e-21)
(1.18575 0.147416 0)
(1.17863 0.139892 0)
(0.103879 0.00352373 1.38569e-20)
(0.335795 0.0280231 -1.38706e-20)
(0.577203 0.0791471 -2.53917e-20)
(0.801818 0.139281 0)
(0.98797 0.195056 -1.06166e-20)
(1.12512 0.238823 -9.5752e-21)
(1.21425 0.267852 -1.63744e-20)
(1.26395 0.283154 0)
(1.28553 0.287743 0)
(1.28947 0.285052 0)
(1.28375 0.277989 0)
(1.27355 0.268605 0)
(1.26184 0.258163 -1.43768e-20)
(1.25006 0.247357 6.55384e-21)
(1.23884 0.236536 1.14161e-20)
(1.22836 0.225866 5.33918e-21)
(1.21865 0.215426 1.32674e-20)
(1.20964 0.20526 0)
(1.20128 0.1954 -3.20738e-21)
(1.19346 0.185863 -3.06918e-21)
(1.18609 0.176647 -5.37297e-21)
(1.17906 0.167746 -4.75008e-21)
(1.17225 0.159298 0)
(1.16551 0.151406 3.44013e-21)
(-0.00182289 0.0294713 8.85345e-21)
(-0.00700544 0.0772414 -9.15445e-21)
(-0.0153507 0.115825 -1.72903e-20)
(-0.0256253 0.145999 0)
(-0.0370254 0.16889 -2.30655e-20)
(-0.049014 0.185979 7.23398e-21)
(-0.0611107 0.198856 -1.36918e-20)
(-0.0729005 0.208957 0)
(-0.0840533 0.217392 0)
(-0.0943183 0.224876 0)
(-0.103509 0.231741 0)
(-0.111483 0.238008 0)
(-0.118122 0.243461 -5.07752e-24)
(-0.123319 0.247728 -9.27215e-21)
(-0.12696 0.250337 1.79031e-20)
(-0.128924 0.250749 2.55866e-20)
(-0.129079 0.24839 8.34648e-21)
(-0.127287 0.242672 0)
(-0.123415 0.233021 7.39209e-21)
(-0.117336 0.218916 -2.12921e-20)
(-0.108942 0.199957 -1.37596e-20)
(-0.0981486 0.175889 -1.31819e-20)
(-0.0848962 0.146587 0)
(-0.0694286 0.112527 0)
(-0.00339532 0.0313327 -2.66384e-20)
(-0.0100021 0.0822703 4.57915e-20)
(-0.0176425 0.123606 -1.73429e-20)
(-0.0259644 0.156063 -3.26718e-20)
(-0.0346552 0.180696 4.61295e-20)
(-0.0434399 0.198924 -2.90698e-20)
(-0.0520079 0.212328 4.10279e-20)
(-0.0600402 0.222382 2.59009e-20)
(-0.0672381 0.23027 0)
(-0.0733363 0.236795 -2.33313e-20)
(-0.0781072 0.242374 -4.22648e-22)
(-0.0813572 0.24709 2.0577e-20)
(-0.0829187 0.250768 2.97734e-20)
(-0.0826416 0.253058 3.81151e-20)
(-0.0803865 0.25349 -1.72466e-20)
(-0.0760211 0.251524 -5.12655e-20)
(-0.0694217 0.246583 1.71485e-20)
(-0.0604784 0.238082 -6.35485e-20)
(-0.0490977 0.225455 0)
(-0.0351911 0.208192 1.43286e-20)
(-0.0186912 0.185892 1.37359e-20)
(0.000328671 0.158322 1.31589e-20)
(0.022069 0.125589 0)
(0.0469118 0.0886605 0)
(-0.00499025 0.0314708 0)
(-0.0131787 0.0834272 9.23305e-20)
(-0.020275 0.126283 -3.47917e-20)
(-0.0266692 0.160407 3.27174e-20)
(-0.0324748 0.186558 -9.25834e-20)
(-0.0376742 0.205945 0)
(-0.0421347 0.220012 -5.49611e-20)
(-0.0456609 0.230177 2.58194e-20)
(-0.0480174 0.237639 -4.89759e-20)
(-0.0489548 0.24326 2.32225e-20)
(-0.048229 0.247539 1.32659e-19)
(-0.0456138 0.250644 -6.23799e-20)
(-0.040906 0.252472 -1.00391e-19)
(-0.0339275 0.252729 -3.95572e-20)
(-0.0245259 0.25099 -1.50053e-21)
(-0.012574 0.246751 1.40223e-19)
(0.00202662 0.239472 -6.65838e-20)
(0.0193413 0.228603 -5.43318e-22)
(0.0393983 0.213617 0)
(0.0621906 0.194035 -6.09569e-20)
(0.087669 0.169446 0)
(0.115715 0.139554 -5.72848e-20)
(0.146498 0.104491 2.16802e-19)
(0.181758 0.0651096 2.26166e-21)
(-0.00639116 0.0300779 0)
(-0.0161499 0.0809566 1.76462e-22)
(-0.0229408 0.123941 3.49545e-20)
(-0.0276596 0.158849 -3.28611e-20)
(-0.0307203 0.18602 3.08805e-20)
(-0.0322897 0.206354 1.74517e-19)
(-0.0324131 0.221057 -5.47722e-20)
(-0.0310364 0.231402 -5.16514e-20)
(-0.0280219 0.238533 9.77433e-20)
(-0.0231769 0.243329 -1.39489e-19)
(-0.0162816 0.246353 4.3526e-20)
(-0.00711274 0.247858 4.17346e-20)
(0.00453825 0.247837 0)
(0.0188538 0.246081 3.81402e-20)
(0.0359827 0.242243 0)
(0.0560355 0.235894 7.02601e-20)
(0.0790817 0.226559 -1.37618e-19)
(0.105146 0.213754 2.8812e-20)
(0.13421 0.197011 1.24834e-19)
(0.166209 0.175901 6.08805e-20)
(0.201029 0.150048 0)
(0.238596 0.119139 -1.72835e-19)
(0.278093 0.0832476 5.37983e-20)
(0.325562 0.0428101 0)
(-0.00745767 0.0275319 0)
(-0.018636 0.0755133 -1.11524e-19)
(-0.0254296 0.117176 -3.48813e-20)
(-0.0289056 0.151741 -6.56843e-20)
(-0.0296136 0.179136 6.18444e-20)
(-0.0278344 0.199906 -5.8111e-20)
(-0.0237541 0.21497 1.09459e-19)
(-0.0174606 0.225394 5.19718e-20)
(-0.00893961 0.232204 -1.45897e-19)
(0.00190518 0.236241 9.25726e-20)
(0.0152242 0.238097 -1.3147e-19)
(0.0311941 0.238095 2.91213e-19)
(0.0499929 0.23632 -1.57429e-19)
(0.0717816 0.232664 7.54126e-20)
(0.0966915 0.226877 2.19704e-19)
(0.124818 0.218621 -6.66304e-20)
(0.156222 0.207502 -6.33303e-20)
(0.190922 0.193115 -6.38224e-20)
(0.22891 0.175049 0)
(0.270149 0.152932 -1.24061e-19)
(0.314428 0.126454 -1.2337e-19)
(0.362507 0.0953751 1.68495e-19)
(0.410535 0.0596186 2.22582e-19)
(0.473427 0.0193192 -2.081e-19)
(-0.00816448 0.0243204 0)
(-0.0205463 0.0680371 -1.49183e-19)
(-0.0276519 0.106997 3.52664e-22)
(-0.0303995 0.139954 1.31756e-19)
(-0.0293061 0.166504 0)
(-0.0246873 0.186887 0)
(-0.0168223 0.20174 0)
(-0.00592196 0.2119 -5.15511e-20)
(0.00789938 0.21823 -4.04157e-22)
(0.0246198 0.22149 9.09832e-20)
(0.044291 0.222256 -1.31516e-19)
(0.0670139 0.220887 -7.9219e-22)
(0.0929152 0.217541 0)
(0.122127 0.212199 -7.53736e-20)
(0.154774 0.204708 7.3043e-20)
(0.19096 0.19482 -2.04855e-19)
(0.230801 0.1822 2.67988e-19)
(0.274361 0.166536 6.94911e-20)
(0.32169 0.147488 7.42475e-21)
(0.37297 0.12476 -2.36943e-19)
(0.427545 0.0979897 -1.14762e-19)
(0.488028 0.0672614 3.93848e-19)
(0.544639 0.0319725 -2.646e-19)
(0.625743 -0.00745634 0)
(-0.00860682 0.0209668 7.29463e-20)
(-0.0219893 0.059613 7.46885e-20)
(-0.0296537 0.094702 -7.01082e-20)
(-0.0321248 0.124774 -1.31087e-19)
(-0.0297608 0.149258 1.23419e-19)
(-0.0228464 0.168197 -1.15128e-19)
(-0.0117032 0.182005 1.62183e-19)
(0.00337168 0.191307 -5.14721e-20)
(0.0221588 0.196797 9.54751e-20)
(0.0445316 0.199124 0)
(0.0704528 0.19881 8.5444e-20)
(0.0999609 0.196215 -1.59568e-19)
(0.133153 0.191534 1.55252e-19)
(0.170171 0.18481 -1.45807e-19)
(0.211186 0.17596 0)
(0.25633 0.164791 1.35316e-19)
(0.30581 0.151106 2.62945e-19)
(0.359856 0.134638 -2.48182e-19)
(0.418474 0.115065 -1.19919e-19)
(0.481998 0.0922422 -1.22285e-19)
(0.548698 0.0655698 3.38017e-19)
(0.623648 0.0360827 1.09558e-19)
(0.689245 0.00183527 -1.00356e-19)
(0.788593 -0.0346068 9.62202e-20)
(-0.0089755 0.0179436 -7.29564e-20)
(-0.0232185 0.0512864 2.24077e-19)
(-0.0315348 0.0816603 -7.05217e-20)
(-0.0339386 0.107726 1.30897e-19)
(-0.0305688 0.128959 -1.2324e-19)
(-0.0216398 0.145339 1.14293e-22)
(-0.00746746 0.157151 5.38363e-20)
(0.0116216 0.164863 2.00192e-19)
(0.0353617 0.169024 -3.81223e-23)
(0.0635833 0.170166 -8.93066e-20)
(0.0962236 0.168742 0)
(0.133323 0.165081 -7.9693e-20)
(0.175009 0.159384 1.50159e-19)
(0.221472 0.151722 1.45461e-19)
(0.272941 0.142059 -6.83254e-20)
(0.329682 0.130298 -1.46977e-21)
(0.391813 0.116271 -6.44398e-20)
(0.45935 0.099737 1.21106e-19)
(0.532023 0.0804455 1.19902e-19)
(0.609936 0.0585663 -1.15626e-19)
(0.689922 0.0331256 1.07389e-19)
(0.778066 0.00664667 -1.02395e-19)
(0.851138 -0.0253925 0)
(0.960627 -0.0554051 -9.61947e-20)
(-0.00949616 0.0155885 7.30443e-20)
(-0.0245014 0.043877 -7.48811e-20)
(-0.0332787 0.0690845 7.03238e-20)
(-0.0353659 0.0903448 0)
(-0.0306916 0.107388 0)
(-0.019383 0.120277 1.13759e-19)
(-0.00169798 0.129268 -1.07272e-19)
(0.0220842 0.13475 9.90552e-20)
(0.0517445 0.137169 -4.67448e-19)
(0.0871664 0.136965 -9.19092e-23)
(0.128347 0.134519 8.22853e-20)
(0.175385 0.13012 0)
(0.228447 0.123955 -1.49502e-19)
(0.287708 0.116104 2.83055e-19)
(0.353273 0.106555 -2.02226e-19)
(0.425102 0.0952302 -3.27439e-19)
(0.502912 0.0819722 -5.7297e-21)
(0.586077 0.0666914 2.32971e-19)
(0.673421 0.0491936 0)
(0.763978 0.0298784 0)
(0.853718 0.00753236 -1.07392e-19)
(0.946649 -0.0142007 1.02398e-19)
(1.02116 -0.0424648 -3.78198e-19)
(1.12267 -0.0636025 3.54177e-19)
(-0.0103385 0.0140362 0)
(-0.0259352 0.0378282 0)
(-0.0345336 0.0578212 -2.10736e-19)
(-0.035373 0.0739182 6.7164e-20)
(-0.0282331 0.0862768 1.21069e-21)
(-0.0131456 0.0951608 1.15077e-19)
(0.00974289 0.100901 0)
(0.0402797 0.103877 -9.93921e-20)
(0.0783708 0.104492 9.32267e-20)
(0.124 0.103124 -1.73723e-19)
(0.17721 0.1001 -3.22066e-22)
(0.23804 0.0956647 1.55311e-19)
(0.30645 0.0899687 1.57291e-21)
(0.382211 0.0830703 1.424e-19)
(0.464807 0.0749458 -1.97714e-19)
(0.553341 0.0655113 0)
(0.646477 0.0546461 2.45392e-19)
(0.742418 0.0422396 -3.4825e-19)
(0.838882 0.0281671 1.08956e-19)
(0.933502 0.0126641 0)
(1.02253 -0.00508001 9.76318e-20)
(1.10626 -0.0220015 3.79276e-19)
(1.17144 -0.0453094 -3.55964e-19)
(1.24521 -0.0587365 -4.0573e-19)
(-0.0115213 0.0131866 2.20557e-19)
(-0.027274 0.0331245 -3.02709e-19)
(-0.0344547 0.048209 1.08207e-21)
(-0.0322755 0.0592778 6.69919e-20)
(-0.0204621 0.0670144 -1.23869e-19)
(0.00104322 0.0719683 -1.14635e-19)
(0.0322265 0.0746168 2.12567e-19)
(0.0730687 0.0753969 -1.94925e-21)
(0.12355 0.0747098 -1.86325e-19)
(0.183605 0.0729042 3.47701e-19)
(0.253035 0.0702537 3.45168e-22)
(0.331395 0.066939 -1.5351e-19)
(0.417887 0.0630388 0)
(0.511266 0.0585302 0)
(0.609798 0.0533008 -6.60233e-20)
(0.711265 0.0471687 -1.23597e-19)
(0.813051 0.0399267 -2.38847e-19)
(0.912237 0.0313282 2.24195e-19)
(1.00585 0.0212944 -1.09013e-19)
(1.09098 0.00955409 2.02006e-19)
(1.16505 -0.00364414 -9.78178e-20)
(1.22674 -0.0177694 1.76167e-19)
(1.27171 -0.035872 -4.11548e-19)
(1.31017 -0.0463088 7.95428e-20)
(-0.0128527 0.0127249 7.41856e-20)
(-0.0278538 0.0293201 0)
(-0.0317 0.0400578 1.42712e-19)
(-0.0238874 0.046687 -1.34438e-19)
(-0.00420652 0.0504275 1.23986e-19)
(0.0274318 0.0521491 0)
(0.0710585 0.0525084 0)
(0.126612 0.0520271 -9.95363e-20)
(0.193847 0.0511202 1.28476e-21)
(0.272196 0.0500936 8.78269e-20)
(0.360644 0.0491318 -8.19259e-20)
(0.45762 0.0482853 1.53702e-19)
(0.560962 0.0474678 0)
(0.66796 0.0464676 2.75002e-19)
(0.775479 0.0449741 -5.18252e-19)
(0.880151 0.0426162 3.67829e-19)
(0.978609 0.0390275 2.31686e-19)
(1.06773 0.0338331 -2.1749e-19)
(1.14496 0.0269399 0)
(1.20833 0.0177885 0)
(1.25717 0.00754941 0)
(1.2913 -0.00618025 0)
(1.3121 -0.0190055 7.93641e-20)
(1.32337 -0.0336255 -2.77199e-19)
(-0.0499305 0.0687833 -8.31347e-21)
(-0.0280628 0.00693615 8.37504e-21)
(-0.00387277 -0.0651412 -2.66168e-22)
(0.0234526 -0.144454 0)
(0.0527047 -0.227867 -7.13578e-21)
(0.0824984 -0.311466 1.34395e-20)
(0.1116 -0.390624 -5.26448e-22)
(0.13806 -0.4608 -5.63324e-21)
(0.159242 -0.518635 0)
(0.172627 -0.562271 0)
(0.176931 -0.592359 -2.10368e-22)
(0.173461 -0.609174 -1.7842e-22)
(0.168118 -0.609337 -2.70672e-21)
(0.170733 -0.58415 2.47901e-21)
(0.191268 -0.522548 0)
(0.233852 -0.418417 0)
(0.294695 -0.275507 2.70926e-21)
(0.366233 -0.105474 4.01332e-23)
(0.441644 0.0756075 -2.44913e-21)
(0.515229 0.246232 -1.34382e-22)
(0.581286 0.382961 0)
(0.634218 0.472604 0)
(0.670585 0.517104 0)
(0.691706 0.52709 0)
(0.700719 0.518173 0)
(0.694636 0.51179 0)
(0.668159 0.522061 3.41673e-22)
(0.628196 0.531224 -5.57277e-22)
(0.597896 0.49124 0)
(0.598844 0.364296 0)
(0.633006 0.162086 -7.01971e-22)
(0.686171 -0.0594779 6.82205e-22)
(0.742061 -0.244993 3.06296e-22)
(0.785434 -0.364867 0)
(0.813706 -0.422982 0)
(0.82834 -0.4346 2.6443e-22)
(0.827737 -0.437253 -2.57042e-22)
(0.800237 -0.449366 0)
(0.750885 -0.457393 2.41054e-22)
(0.704192 -0.404412 -3.53701e-22)
(0.686829 -0.265267 1.36342e-22)
(0.702007 -0.0737452 0)
(0.741149 0.117451 -2.48382e-22)
(0.784769 0.243955 2.41521e-22)
(0.822825 0.331865 0)
(0.825738 0.369332 0)
(0.795021 0.413266 -6.9569e-23)
(0.749336 0.387015 2.11629e-22)
(0.726491 0.290638 0)
(0.7375 0.129685 0)
(0.782883 -0.0658733 -6.40629e-23)
(0.81236 -0.16111 -4.69797e-24)
(0.825396 -0.305948 -8.2271e-24)
(0.79229 -0.320638 3.50241e-23)
(0.776991 -0.354762 0)
(0.775125 -0.270439 0)
(0.797391 -0.0672945 0)
(0.793049 -0.00397085 0)
(0.799702 0.289157 0)
(0.779981 0.260368 0)
(0.0754025 0.0434338 -8.74003e-22)
(0.102155 -0.0201419 -3.66349e-20)
(0.130426 -0.0939367 5.78989e-22)
(0.160507 -0.174647 3.3799e-20)
(0.190949 -0.258867 5.12471e-22)
(0.220528 -0.342224 0)
(0.247908 -0.41953 -2.45162e-20)
(0.27112 -0.485537 4.57719e-20)
(0.287669 -0.536325 -2.12391e-20)
(0.294839 -0.57045 1.51604e-20)
(0.290165 -0.589909 -1.45259e-20)
(0.272566 -0.598582 1.04586e-20)
(0.245261 -0.597818 -1.01698e-20)
(0.2176 -0.581593 -2.52347e-22)
(0.203181 -0.536874 -8.51137e-21)
(0.212829 -0.451148 8.27178e-21)
(0.248593 -0.321959 -9.01887e-21)
(0.30462 -0.15927 8.51344e-21)
(0.373263 0.0191842 -8.58188e-21)
(0.446795 0.191801 1.57973e-20)
(0.517898 0.335985 -7.25649e-21)
(0.579713 0.437233 -3.18038e-22)
(0.627401 0.494211 -4.15116e-21)
(0.660714 0.514969 7.64326e-21)
(0.679852 0.516088 -3.50747e-21)
(0.680207 0.520471 2.06459e-22)
(0.659145 0.539211 3.93099e-21)
(0.628278 0.548683 8.76116e-22)
(0.61176 0.499282 -9.65294e-21)
(0.626471 0.358332 1.11567e-20)
(0.670321 0.144472 -5.82861e-21)
(0.727402 -0.0831324 7.64852e-22)
(0.781856 -0.267219 -3.06896e-22)
(0.81948 -0.380625 5.1062e-22)
(0.83918 -0.431691 0)
(0.844508 -0.436825 0)
(0.838099 -0.431209 -8.92235e-22)
(0.807589 -0.434397 6.68392e-22)
(0.755169 -0.438886 6.72799e-22)
(0.701861 -0.391666 2.52713e-22)
(0.677099 -0.264407 -1.08258e-21)
(0.688071 -0.0837745 2.46429e-22)
(0.727201 0.101807 0)
(0.774908 0.229247 0)
(0.815402 0.324681 0)
(0.82108 0.372698 0)
(0.791346 0.423677 2.81275e-22)
(0.750001 0.396861 -1.4411e-22)
(0.730301 0.292765 0)
(0.743143 0.123489 0)
(0.789649 -0.0754949 0)
(0.818696 -0.166175 -1.09519e-22)
(0.834014 -0.303627 1.69788e-23)
(0.798574 -0.315404 -7.83436e-23)
(0.783676 -0.352688 0)
(0.779031 -0.272375 0)
(0.797592 -0.0694111 4.25631e-23)
(0.79142 -0.00385486 1.07645e-22)
(0.794821 0.290686 0)
(0.777181 0.261425 0)
(0.215027 0.0184546 2.25617e-21)
(0.246031 -0.0452849 -7.72037e-20)
(0.276983 -0.119013 7.61048e-20)
(0.308882 -0.199507 -7.11541e-20)
(0.339906 -0.28301 -5.15852e-22)
(0.368492 -0.365113 0)
(0.393205 -0.440255 -5.26948e-20)
(0.412096 -0.502615 5.15686e-20)
(0.423003 -0.547594 3.11187e-22)
(0.423969 -0.573236 5.15981e-22)
(0.413001 -0.581546 4.1309e-22)
(0.38775 -0.578525 3.46305e-22)
(0.347705 -0.570622 -1.65868e-20)
(0.29812 -0.55762 1.63753e-20)
(0.252276 -0.52843 0)
(0.226459 -0.465765 3.64484e-22)
(0.230889 -0.358446 -1.42063e-20)
(0.26468 -0.210475 1.40573e-20)
(0.320523 -0.039197 0)
(0.389437 0.132304 0)
(0.462268 0.282155 -1.0807e-20)
(0.53047 0.394135 1.94928e-20)
(0.588012 0.463698 -1.5861e-20)
(0.632424 0.496569 6.78071e-22)
(0.660775 0.509634 1.29287e-20)
(0.667693 0.52566 -1.36401e-20)
(0.653511 0.552178 1.43234e-20)
(0.633419 0.561276 1.23059e-21)
(0.631026 0.503586 -9.2269e-21)
(0.659067 0.351745 0)
(0.711881 0.129266 0)
(0.771876 -0.102113 4.3713e-21)
(0.823867 -0.284109 -5.77983e-21)
(0.855141 -0.391372 1.94118e-23)
(0.866277 -0.436239 2.76419e-21)
(0.862321 -0.436374 -2.68635e-21)
(0.85007 -0.423986 0)
(0.817147 -0.418864 1.99715e-22)
(0.762808 -0.419691 1.72141e-21)
(0.703794 -0.37833 -3.5399e-21)
(0.671741 -0.263658 1.6431e-21)
(0.678088 -0.0951573 1.76306e-22)
(0.716607 0.0842212 -1.9705e-21)
(0.767602 0.212721 1.53635e-21)
(0.809918 0.316277 2.99584e-22)
(0.818307 0.375158 2.79983e-22)
(0.790056 0.433275 -2.82003e-22)
(0.753545 0.40635 0)
(0.737281 0.295172 0)
(0.751658 0.118205 -1.50778e-21)
(0.798628 -0.0844878 6.98088e-22)
(0.826728 -0.170949 -5.54892e-22)
(0.844112 -0.300985 6.38461e-22)
(0.806082 -0.309933 5.94936e-22)
(0.791092 -0.350334 -1.4306e-22)
(0.783718 -0.274149 1.87794e-22)
(0.798967 -0.0711442 -1.50324e-22)
(0.791014 -0.00347003 3.95821e-23)
(0.790955 0.29219 0)
(0.775243 0.262413 0)
(0.360626 -0.00377152 -1.62809e-19)
(0.395295 -0.0678764 2.03545e-23)
(0.428658 -0.141129 1.54974e-19)
(0.462289 -0.220044 -1.15378e-21)
(0.493892 -0.301511 0)
(0.521398 -0.381299 0)
(0.54307 -0.453486 -1.08163e-19)
(0.556823 -0.511902 1.23552e-20)
(0.560748 -0.551759 1.26848e-19)
(0.553762 -0.570784 -6.87218e-21)
(0.535483 -0.570237 -2.97625e-20)
(0.504957 -0.555597 -1.79374e-20)
(0.460115 -0.535793 1.80402e-20)
(0.400568 -0.517514 0)
(0.33371 -0.496647 -1.06202e-20)
(0.276102 -0.456342 9.68534e-21)
(0.245665 -0.37741 0)
(0.250525 -0.25335 0)
(0.287101 -0.0962864 1.0424e-20)
(0.346194 0.0701294 -5.58301e-22)
(0.416572 0.223123 -8.98087e-21)
(0.488 0.344229 -7.40806e-21)
(0.553106 0.426021 7.29763e-21)
(0.606691 0.47194 -6.21752e-21)
(0.642977 0.498183 -1.86101e-22)
(0.65656 0.525985 6.04889e-21)
(0.650489 0.559388 8.94074e-22)
(0.642253 0.568058 1.02844e-24)
(0.653992 0.504251 0)
(0.694584 0.345302 1.35142e-20)
(0.75572 0.11716 -1.40033e-20)
(0.818438 -0.116216 8.14782e-22)
(0.867413 -0.296097 0)
(0.891986 -0.397829 -5.362e-22)
(0.894747 -0.437142 5.62359e-21)
(0.881682 -0.433514 -9.07371e-21)
(0.863406 -0.416008 3.53404e-22)
(0.828424 -0.40335 4.0634e-22)
(0.773376 -0.39997 2.39937e-21)
(0.709998 -0.363994 3.65002e-22)
(0.671022 -0.262442 -3.11245e-21)
(0.672278 -0.107346 2.599e-21)
(0.709386 0.0650735 5.87898e-23)
(0.762745 0.194576 1.22744e-21)
(0.80629 0.306613 -1.49397e-21)
(0.817374 0.376481 -1.96404e-21)
(0.791121 0.441808 5.34904e-22)
(0.759854 0.415387 1.48503e-21)
(0.747342 0.298035 -3.07909e-21)
(0.762965 0.114105 2.38224e-21)
(0.809742 -0.0926565 -5.64778e-22)
(0.836345 -0.175451 8.01873e-22)
(0.855556 -0.298085 5.64953e-22)
(0.814736 -0.304159 -8.97309e-22)
(0.799116 -0.34761 2.73853e-23)
(0.789018 -0.275764 -1.428e-22)
(0.801416 -0.0725469 0)
(0.791769 -0.00281424 -7.27983e-23)
(0.788069 0.293699 9.37646e-23)
(0.774171 0.263349 0)
(0.508276 -0.025428 1.64122e-19)
(0.544763 -0.0889164 -3.2305e-19)
(0.58108 -0.16034 1.56484e-19)
(0.616756 -0.236039 1.48301e-19)
(0.64859 -0.313843 -2.82523e-19)
(0.674426 -0.389685 1.0768e-20)
(0.69238 -0.457396 1.21097e-19)
(0.700123 -0.510842 9.16137e-20)
(0.695955 -0.54555 -8.96884e-20)
(0.679592 -0.559591 0)
(0.652059 -0.553928 -4.61905e-20)
(0.614726 -0.532374 7.98189e-20)
(0.567405 -0.502271 -3.39739e-20)
(0.507348 -0.473352 0)
(0.433997 -0.450299 0)
(0.356666 -0.423836 2.70724e-22)
(0.294652 -0.372986 -1.37213e-20)
(0.265934 -0.280298 1.33312e-20)
(0.275961 -0.146468 0)
(0.319025 0.0091598 1.38344e-20)
(0.382403 0.160738 -2.52925e-20)
(0.453395 0.288514 2.26901e-20)
(0.522934 0.381613 -2.10418e-20)
(0.583016 0.440923 -4.43266e-22)
(0.625706 0.480903 2.15584e-20)
(0.645971 0.520176 -1.12939e-20)
(0.649006 0.559831 -4.45736e-22)
(0.65325 0.568718 -9.3023e-21)
(0.678778 0.501767 -2.54381e-21)
(0.73092 0.339274 1.17558e-20)
(0.799992 0.108988 8.85492e-22)
(0.865596 -0.125148 -1.28749e-20)
(0.911573 -0.302849 2.29442e-20)
(0.929289 -0.39975 -1.12607e-20)
(0.923991 -0.434321 0)
(0.902285 -0.42814 -4.73697e-21)
(0.877958 -0.407282 4.47215e-21)
(0.841172 -0.388256 -2.21786e-21)
(0.786463 -0.380365 2.77864e-21)
(0.720242 -0.348911 -2.62038e-22)
(0.674997 -0.260518 0)
(0.670713 -0.119879 -2.96528e-22)
(0.70544 0.0447347 8.94975e-22)
(0.760157 0.17495 0)
(0.804371 0.295551 2.62853e-21)
(0.818149 0.376376 -1.02006e-21)
(0.794414 0.449019 5.81237e-22)
(0.768696 0.423878 7.25405e-22)
(0.760229 0.301436 0)
(0.776883 0.111369 0)
(0.822894 -0.0998102 -2.13725e-21)
(0.847419 -0.179623 3.0376e-21)
(0.868188 -0.294889 -1.49419e-21)
(0.824472 -0.297989 3.80805e-22)
(0.807658 -0.344436 5.24726e-22)
(0.794769 -0.277248 1.42934e-22)
(0.804824 -0.0736877 -1.50579e-22)
(0.793613 -0.00189183 0)
(0.786124 0.295236 -1.48862e-22)
(0.773966 0.264248 -1.35623e-23)
(0.65907 -0.0496648 1.62521e-19)
(0.695597 -0.11031 -1.61932e-19)
(0.73373 -0.17743 1.23808e-21)
(0.770097 -0.247838 -1.14183e-21)
(0.800376 -0.320148 1.11131e-21)
(0.82262 -0.390197 -1.01489e-21)
(0.834995 -0.451842 1.74045e-21)
(0.83521 -0.499448 0)
(0.822066 -0.529006 -1.25305e-21)
(0.79613 -0.538907 1.01138e-21)
(0.759315 -0.530325 7.88873e-22)
(0.714214 -0.506399 -6.13767e-22)
(0.663003 -0.47181 0)
(0.60491 -0.434065 0)
(0.535782 -0.402032 1.99851e-22)
(0.454953 -0.377001 0)
(0.373825 -0.345155 -9.15503e-23)
(0.313602 -0.284452 0)
(0.29145 -0.182181 -7.80737e-21)
(0.310133 -0.0465726 1.53595e-20)
(0.359904 0.0975389 -1.51749e-20)
(0.426404 0.228485 7.37852e-21)
(0.49677 0.331215 7.34622e-21)
(0.560476 0.403624 -7.13386e-21)
(0.60809 0.457284 -9.95881e-21)
(0.635032 0.507482 9.72869e-21)
(0.647873 0.553017 0)
(0.664858 0.563313 4.92386e-22)
(0.703364 0.496328 0)
(0.766064 0.33421 0)
(0.842857 0.104307 2.70469e-20)
(0.911933 -0.129134 -2.79848e-20)
(0.955456 -0.30445 1.47558e-21)
(0.966411 -0.397348 1.13459e-21)
(0.953486 -0.428086 -8.18075e-22)
(0.923816 -0.420383 -4.0938e-21)
(0.893484 -0.39786 3.97517e-21)
(0.855011 -0.373851 -2.65612e-21)
(0.801493 -0.361295 2.25912e-21)
(0.734013 -0.333257 4.84023e-22)
(0.683433 -0.257601 -2.14422e-21)
(0.673292 -0.132227 -2.26294e-22)
(0.704565 0.023601 1.49974e-21)
(0.759583 0.153947 0)
(0.803956 0.282916 -9.39787e-22)
(0.820432 0.374541 1.67556e-21)
(0.799699 0.454667 -2.12782e-21)
(0.779718 0.431712 -7.30053e-22)
(0.775582 0.305367 0)
(0.793157 0.110032 8.21699e-22)
(0.837941 -0.105766 -1.75184e-21)
(0.859803 -0.183388 2.34819e-23)
(0.881812 -0.291395 -4.72112e-22)
(0.835219 -0.291354 5.15351e-22)
(0.816662 -0.340705 -5.10076e-22)
(0.800814 -0.278616 0)
(0.809054 -0.0746472 1.50648e-22)
(0.796459 -0.000713934 0)
(0.785076 0.296817 0)
(0.774626 0.265115 2.23927e-23)
(0.817324 -0.0739894 -1.58697e-19)
(0.850183 -0.130156 1.57043e-19)
(0.88634 -0.190668 -1.1487e-21)
(0.919517 -0.253788 1.16893e-21)
(0.944585 -0.318889 0)