/*--------------------------------*- C++ -*----------------------------------*\
| =========                 |                                                 |
| \\      /  F ield         | OpenFOAM: The Open Source CFD Toolbox           |
|  \\    /   O peration     | Version:  2512                                  |
|   \\  /    A nd           | Website:  www.openfoam.com                      |
|    \\/     M anipulation  |                                                 |
\*---------------------------------------------------------------------------*/
FoamFile
{
    version     2.0;
    format      ascii;
    arch        "LSB;label=32;scalar=64";
    class       surfaceScalarField;
    location    "81";
    object      phi;
}
// * * * * * * * * * * * * * * * * * * * * * * * * * * * * * * * * * * * * * //

dimensions      [0 3 -1 0 0 0 0];

oriented        oriented;

internalField   nonuniform List<scalar> 
26232
(
0.000145662
0.000969424
-0.00111509
0.000742676
0.00170925
-0.00230626
0.00193391
0.00136893
-0.00256016
0.00385541
-1.32794e-05
-0.00190823
0.00664855
-0.0024146
-0.000378535
0.0104532
-0.00581321
0.00200857
0.0153985
-0.0101859
0.00524059
0.0215827
-0.0154898
0.00930566
0.0290498
-0.021649
0.0141819
0.0377682
-0.0285438
0.0198254
0.0476162
-0.0360079
0.0261599
0.05838
-0.0438348
0.033071
0.0697655
-0.0517923
0.0404068
0.0814235
-0.0596427
0.0479847
0.0929842
-0.0671644
0.0556037
0.104096
-0.0741725
0.0630608
0.114462
-0.0805342
0.0701679
0.123871
-0.0861775
0.0767688
0.132213
-0.0910907
0.082749
0.139478
-0.0953225
0.0880575
0.145742
-0.0989329
0.0926684
0.151115
-0.102091
0.0967176
0.155543
-0.104608
0.100181
-0.107253
0.103759
0.159036
0.00017428
0.000795144
0.00090684
0.000976685
0.0023834
-0.000107635
0.00477713
-0.00240701
0.00825069
-0.00588816
0.0129486
-0.0105111
0.0189718
-0.0162091
0.0263512
-0.0228692
0.0350226
-0.0303205
0.044814
-0.0383351
0.0554488
-0.0466427
0.0665696
-0.0549555
0.0777756
-0.0629983
0.0886695
-0.0705366
0.0989038
-0.0773986
0.108219
-0.0834876
0.116468
-0.0887831
0.123622
-0.0933317
0.129761
-0.0972297
0.13504
-0.100602
0.139682
-0.103575
0.143878
-0.106287
0.148009
-0.10874
-0.111405
0.152162
0.000230967
0.000564177
0.00116528
4.23674e-05
0.00302281
-0.00196516
0.00600022
-0.00538443
0.0102645
-0.0101525
0.0159284
-0.016175
0.023017
-0.0232977
0.0314396
-0.0312919
0.0409773
-0.0398582
0.0512946
-0.0486523
0.0619756
-0.0573237
0.0725778
-0.0655577
0.0826903
-0.0731108
0.0919861
-0.0798324
0.100258
-0.0856701
0.10743
-0.0906601
0.113553
-0.0949057
0.11877
-0.0985494
0.123285
-0.101745
0.127319
-0.104635
0.131077
-0.107333
0.13473
-0.109939
0.138432
-0.112441
-0.115145
0.142171
0.000317053
0.000247124
0.00152011
-0.00116069
0.00384698
-0.00429202
0.00749619
-0.00903364
0.0126032
-0.0152595
0.0192016
-0.0227733
0.0271876
-0.0312838
0.036307
-0.0404113
0.0461738
-0.049725
0.0563215
-0.0588
0.0662728
-0.067275
0.0756108
-0.0748957
0.0840341
-0.0815342
0.0913863
-0.0871846
0.0976551
-0.0919389
0.102947
-0.0959518
0.107444
-0.0994032
0.111362
-0.102467
0.114906
-0.105289
0.118253
-0.107982
0.121539
-0.110619
0.124857
-0.113257
0.128302
-0.115887
-0.118715
0.131873
0.000429217
-0.000182093
0.001957
-0.00268848
0.00481631
-0.00715133
0.0091745
-0.0133918
0.0150895
-0.0211745
0.0224642
-0.030148
0.0310263
-0.0398459
0.040351
-0.0497359
0.0499262
-0.0593003
0.0592409
-0.0681147
0.0678689
-0.0759031
0.0755279
-0.0825547
0.0821005
-0.0881068
0.0876199
-0.0927039
0.0922288
-0.0965478
0.0961285
-0.0998515
0.0995308
-0.102806
0.102625
-0.105561
0.10556
-0.108224
0.108444
-0.110866
0.111352
-0.113528
0.11433
-0.116235
0.117427
-0.118984
-0.121892
0.120603
0.000561805
-0.000743898
0.00245176
-0.00457843
0.00586824
-0.0105678
0.0109056
-0.0184292
0.0174949
-0.0277638
0.0253683
-0.0380214
0.0340775
-0.0485551
0.0430698
-0.0587281
0.0517949
-0.0680254
0.0598065
-0.0761263
0.0668259
-0.0829225
0.0727578
-0.0884865
0.0776629
-0.0930119
0.0817056
-0.0967466
0.0850954
-0.0999376
0.0880388
-0.102795
0.0907102
-0.105477
0.0932415
-0.108092
0.0957244
-0.110707
0.0982196
-0.113361
0.100767
-0.116075
0.103393
-0.11886
0.106123
-0.121714
-0.124701
0.108933
0.000708254
-0.00145215
0.00297459
-0.00684477
0.00692692
-0.0145201
0.0125411
-0.0240434
0.0195798
-0.0348025
0.0275926
-0.0460342
0.0359926
-0.0569551
0.0441828
-0.0669183
0.0516784
-0.075521
0.058183
-0.0826308
0.0636023
-0.0883418
0.0680082
-0.0928925
0.0715758
-0.0965795
0.0745187
-0.0996895
0.0770399
-0.102459
0.0793051
-0.10506
0.0814354
-0.107607
0.0835124
-0.110169
0.0855884
-0.112783
0.0876966
-0.115469
0.0898583
-0.118237
0.092087
-0.121089
0.0943971
-0.124025
-0.127069
0.096765
0.000861068
-0.00231322
0.00349184
-0.00947554
0.00791001
-0.0189383
0.0139316
-0.0300649
0.0211315
-0.0420024
0.0289028
-0.0538056
0.0365952
-0.0646475
0.0436641
-0.0739872
0.0497682
-0.0816251
0.0547904
-0.087653
0.0587968
-0.0923482
0.0619649
-0.0960605
0.0645112
-0.0991259
0.0666393
-0.101818
0.0685119
-0.104331
0.0702454
-0.106794
0.0719161
-0.109278
0.0735715
-0.111824
0.0752409
-0.114452
0.0769428
-0.117171
0.0786896
-0.119984
0.0804902
-0.12289
0.0823533
-0.125888
-0.12898
0.0842644
0.00101158
-0.0033248
0.00396704
-0.012431
0.00873537
-0.0237067
0.0149458
-0.0362753
0.0219968
-0.0490535
0.0291869
-0.0609956
0.0358909
-0.0713515
0.0416919
-0.0797882
0.0464212
-0.0863545
0.0501197
-0.0913515
0.0529578
-0.0951863
0.0551546
-0.0982573
0.0569178
-0.100889
0.058413
-0.103313
0.0597571
-0.105676
0.0610251
-0.108062
0.0622624
-0.110515
0.0634961
-0.113058
0.064743
-0.115699
0.0660144
-0.118443
0.067318
-0.121288
0.0686601
-0.124232
0.070045
-0.127272
-0.1304
0.0714648
0.00114976
-0.00447456
0.00436306
-0.0156443
0.00932966
-0.0286733
0.0154876
-0.0424333
0.0221023
-0.0556682
0.0284563
-0.0673496
0.0340248
-0.07692
0.038553
-0.0843164
0.0420306
-0.089832
0.0446081
-0.0939289
0.0465035
-0.0970818
0.047932
-0.0996859
0.0490675
-0.102025
0.0500324
-0.104278
0.0509043
-0.106548
0.0517293
-0.108887
0.0525337
-0.11132
0.0533335
-0.113858
0.054139
-0.116505
0.0549577
-0.119261
0.055795
-0.122125
0.0566554
-0.125092
0.0575413
-0.128158
-0.13131
0.058451
0.00126553
-0.00574009
0.00464714
-0.0190259
0.00963871
-0.0336648
0.0155087
-0.0483033
0.0214544
-0.0616139
0.0268172
-0.0727124
0.0312166
-0.0813194
0.0345565
-0.0876563
0.036946
-0.0922215
0.0385942
-0.0955772
0.0397243
-0.0982118
0.0405227
-0.100484
0.0411229
-0.102625
0.0416094
-0.104764
0.0420315
-0.10697
0.0424166
-0.109272
0.0427803
-0.111683
0.0431327
-0.11421
0.0434808
-0.116853
0.0438298
-0.11961
0.0441837
-0.122479
0.0445451
-0.125453
0.0449144
-0.128528
-0.131688
0.0452931
0.00135274
-0.00709284
0.0047981
-0.0224713
0.00963575
-0.0385025
0.0150108
-0.0536784
0.0201247
-0.0667278
0.0244327
-0.0770204
0.0277086
-0.0845953
0.0299871
-0.0899348
0.031451
-0.0936855
0.0323271
-0.0964533
0.0328177
-0.0987024
0.0330723
-0.100739
0.0331872
-0.10274
0.0332184
-0.104795
0.033196
-0.106947
0.0331365
-0.109212
0.0330494
-0.111596
0.0329418
-0.114102
0.0328188
-0.11673
0.0326847
-0.119476
0.0325428
-0.122337
0.032395
-0.125306
0.0322404
-0.128373
0.0320825
-0.13153
-0.000264973
0.00134512
-0.00108015
-0.000917613
0.00288911
-0.00223647
-0.00187224
0.00365417
-0.00269955
-0.00306653
0.00386108
-0.00266678
-0.00445432
0.00368554
-0.00229775
-0.00600166
0.00325751
-0.00171016
-0.00768349
0.00266094
-0.000979105
-0.00948222
0.00193837
-0.000139647
-0.0113795
0.00110028
0.000796961
-0.0133625
0.000133046
0.00185003
-0.0154186
-0.000986774
0.0030428
-0.0175326
-0.00229086
0.00440488
-0.0196878
-0.00380914
0.00596435
-0.021864
-0.00556887
0.0077451
-0.0240368
-0.00759204
0.00976484
-0.026177
-0.00989323
0.0120334
-0.0282505
-0.0124773
0.0145508
-0.0302196
-0.0153362
0.0173053
-0.0320445
-0.0184462
0.0202711
-0.0336872
-0.0217644
0.023407
-0.0351155
-0.0252282
0.0266564
-0.036308
-0.0287558
0.0299483
-0.037267
-0.0322404
0.0331995
-0.035554
-0.0380409
0.0363279
-0.000237923
0.00158304
-0.00083883
0.00349001
-0.00173301
0.00454835
-0.00286584
0.00499391
-0.00419343
0.00501312
-0.00568121
0.00474529
-0.00730259
0.00428232
-0.00903739
0.00367317
-0.0108696
0.0029325
-0.0127875
0.00205094
-0.0147775
0.00100321
-0.0168316
-0.00023674
-0.018937
-0.00170369
-0.0210793
-0.00342659
-0.0232402
-0.00543117
-0.0253974
-0.00773599
-0.0275246
-0.0103501
-0.0295911
-0.0132697
-0.031564
-0.0164733
-0.0334106
-0.0199177
-0.035105
-0.0235338
-0.0366333
-0.0272275
-0.0380016
-0.0308721
-0.0342823
-0.0392733
-0.000189769
0.00177281
-0.000689794
0.00399004
-0.00145267
0.00531122
-0.00243445
0.00597569
-0.00359449
0.00617316
-0.00489698
0.00604778
-0.00631177
0.00569711
-0.00781433
0.00517573
-0.00938505
0.00450322
-0.0110081
0.00367401
-0.0126716
0.00266668
-0.014359
0.00145063
-0.016059
-3.70027e-06
-0.01776
-0.0017255
-0.0194436
-0.00374765
-0.0210902
-0.00608933
-0.0226779
-0.00876244
-0.0241816
-0.011766
-0.0255733
-0.0150816
-0.0268234
-0.0186676
-0.0279056
-0.0224516
-0.0288051
-0.026328
-0.0295165
-0.0301607
-0.0337243
-0.0300746
-0.000125146
0.00189796
-0.000483164
0.00434805
-0.00105272
0.00588078
-0.00180265
0.00672563
-0.00269644
0.00706695
-0.00369669
0.00704802
-0.00476813
0.00676855
-0.00587925
0.00628685
-0.00700265
0.00562662
-0.00811451
0.00478587
-0.00919355
0.00374572
-0.0102205
0.00247755
-0.0111716
0.000947436
-0.0120281
-0.000869001
-0.012768
-0.00300773
-0.0133682
-0.00548914
-0.0138057
-0.00832498
-0.0140579
-0.0115137
-0.0141033
-0.0150362
-0.0139199
-0.0188509
-0.0134853
-0.0228863
-0.0127845
-0.0270287
-0.0118228
-0.0311224
-0.035015
-0.0105321
-5.18908e-05
0.00194985
-0.0002418
0.00453796
-0.000573985
0.00621296
-0.00103049
0.00718213
-0.0015793
0.00761576
-0.00218139
0.0076501
-0.00279557
0.00738273
-0.00338151
0.00687279
-0.00390113
0.00614624
-0.00431866
0.00520341
-0.00460012
0.00402718
-0.00471244
0.00258987
-0.00462119
0.000856184
-0.00429302
-0.00119716
-0.00369299
-0.00360777
-0.00278839
-0.00639374
-0.001549
-0.00956438
5.04273e-05
-0.0131132
0.00202805
-0.0170139
0.00439372
-0.0212166
0.00715271
-0.0256453
0.010317
-0.030193
0.0138758
-0.0346812
-0.0389093
0.0177701
2.06392e-05
0.00192921
6.13026e-06
0.00455247
-6.92177e-05
0.00628831
-0.000197588
0.0073105
-0.000351069
0.00776924
-0.000489124
0.00778816
-0.000564513
0.00745812
-0.000527356
0.00683564
-0.000327394
0.00594628
8.51605e-05
0.00479085
0.000759828
0.00335251
0.00174627
0.00160343
0.00309135
-0.000488899
0.00485004
-0.00295586
0.00706809
-0.00582581
0.00979052
-0.00911617
0.0130559
-0.0128297
0.0168928
-0.0169501
0.0213165
-0.0214376
0.0263266
-0.0262267
0.0319053
-0.031224
0.0380342
-0.0363219
0.0446317
-0.0412787
-0.0462235
0.051946
8.27477e-05
0.00184646
0.000230162
0.00440506
0.000406077
0.0061124
0.000611371
0.00710521
0.000871987
0.00750863
0.00123066
0.00742949
0.00174077
0.006948
0.00246194
0.00611447
0.00345714
0.00495108
0.00479115
0.00345684
0.00652977
0.00161389
0.00873903
-0.000605833
0.0114845
-0.00323438
0.0148303
-0.00630161
0.0188341
-0.0098297
0.0235451
-0.0138271
0.0289985
-0.0182831
0.0352114
-0.023163
0.0421787
-0.0284048
0.0498714
-0.0339194
0.0582317
-0.0395843
0.0672008
-0.045291
0.0766561
-0.050734
-0.056382
0.0868146
0.000127643
0.00171882
0.000408368
0.00412433
0.000806985
0.00571378
0.00132538
0.00658681
0.00199122
0.0068428
0.00285128
0.00656943
0.00396616
0.00583312
0.00540595
0.00467469
0.00724689
0.00311013
0.00956941
0.00113432
0.0124555
-0.00127218
0.0159863
-0.00413663
0.0202389
-0.00748701
0.0252821
-0.0113448
0.0311706
-0.0157181
0.0379383
-0.0205949
0.0455929
-0.0259377
0.0541104
-0.0316805
0.0634329
-0.0377273
0.0734689
-0.0439554
0.0841014
-0.0502168
0.0951943
-0.0563839
0.106587
-0.0621263
-0.0681093
0.118314
0.000151903
0.00156691
0.000528555
0.00374768
0.00110956
0.00513277
0.00190619
0.00579018
0.00295359
0.00579539
0.00430666
0.00521636
0.00603616
0.00410362
0.00822495
0.0024859
0.010963
0.00037203
0.0143477
-0.00225034
0.0184727
-0.00539713
0.0234268
-0.00909075
0.0292856
-0.0133458
0.0361031
-0.0181624
0.0439033
-0.0235182
0.052672
-0.0293636
0.0623522
-0.035618
0.0728421
-0.0421703
0.0839983
-0.0488835
0.0956417
-0.0555988
0.107581
-0.0621563
0.119598
-0.0684008
0.131561
-0.0740892
-0.0797486
0.1432
0.000157241
0.00140967
0.0005951
0.00330982
0.00132082
0.00440705
0.00236421
0.00474679
0.00377532
0.00438428
0.00562319
0.00336849
0.00799345
0.00173337
0.010984
-0.0005047
0.0147018
-0.00334577
0.0192502
-0.00679872
0.0247265
-0.0108734
0.031207
-0.0155713
0.0387369
-0.0208757
0.0473187
-0.0267442
0.0569036
-0.0331031
0.067387
-0.039847
0.0786097
-0.0468407
0.0903664
-0.053927
0.102419
-0.0609364
0.114519
-0.0676983
0.126424
-0.0740615
0.137905
-0.0798817
0.148873
-0.0850571
-0.0897878
0.158912
0.000150705
0.00125897
0.000629628
0.0028309
0.00148191
0.00355477
0.00276468
0.00346402
0.00455096
0.002598
0.00693058
0.000988869
0.0100081
-0.00134416
0.0138969
-0.00439353
0.018709
-0.0081578
0.0245427
-0.0126325
0.0314685
-0.0177992
0.0395127
-0.0236156
0.0486451
-0.0300081
0.0587697
-0.0368688
0.0697236
-0.0440569
0.0812829
-0.0514063
0.0931778
-0.0587356
0.105115
-0.0658641
0.116802
-0.0726235
0.127985
-0.0788817
0.138459
-0.084535
0.148129
-0.0895514
0.15695
-0.0938787
-0.09752
0.164682
0.000143882
0.000668522
0.00166313
0.00321893
0.00543839
0.00843583
0.0123323
0.0172444
0.0232685
0.0304614
0.0388221
0.0482775
0.0586762
0.0697921
0.0813388
0.0929934
0.104426
0.11533
0.125456
0.134632
0.142765
0.149931
0.156234
0.162473
-0.0370099
-0.0545272
0.0534962
-0.0352364
-0.0595138
0.0577404
-0.0326001
-0.0632351
0.0605987
-0.0289688
-0.0652183
0.061587
-0.0242167
-0.0648464
0.0600944
-0.0182615
-0.0614801
0.0555249
-0.0111069
-0.0545343
0.0473797
-0.00286519
-0.0435613
0.0353195
0.00649204
-0.0284573
0.0191
0.0165704
-0.00932787
-0.000750513
0.0268644
0.0137269
-0.0240209
0.0372506
0.0391569
-0.0495431
0.0474979
0.0653041
-0.0755514
0.0571519
0.0901947
-0.0998486
0.0655016
0.111927
-0.120277
0.0716417
0.129327
-0.135467
0.0746674
0.142633
-0.145659
0.0742558
0.153293
-0.152882
0.0715578
0.16209
-0.159392
0.0693996
0.166512
-0.164354
0.0709379
0.160295
-0.161833
0.077526
0.137014
-0.143602
0.0881776
0.0945504
-0.105202
0.101046
0.036228
-0.049096
0.114359
-0.0293307
0.0160177
0.126492
-0.0910046
0.0788709
0.135924
-0.138344
0.128913
0.141736
-0.167868
0.162056
0.144304
-0.182412
0.179844
0.144452
-0.18618
0.186032
0.141649
-0.185239
0.188042
0.134834
-0.188873
0.195688
0.125454
-0.199163
0.208543
0.118034
-0.199592
0.207012
0.116713
-0.165879
0.167201
0.121907
-0.0905283
0.0853337
0.130869
0.0058685
-0.0148302
0.140284
0.0966662
-0.106081
0.148261
0.160427
-0.168404
0.153277
0.197048
-0.202065
0.153287
0.218971
-0.21898
0.147601
0.24488
-0.239193
0.138914
0.26414
-0.255453
0.132382
0.245597
-0.239065
0.131525
0.168914
-0.168056
0.136222
0.0439712
-0.0486676
0.143865
-0.0731087
0.0654651
0.149978
-0.168958
0.162846
0.150383
-0.213551
0.213146
0.14475
-0.264204
0.269837
0.137209
-0.275122
0.282662
0.134032
-0.253018
0.256195
0.136554
-0.160946
0.158424
0.141226
-0.00700284
0.00233154
0.142795
0.0914617
-0.0930311
0.139495
0.269538
-0.266238
0.135789
0.280837
-0.277131
0.134104
0.327391
-0.325706
0.132754
0.229063
-0.227713
-0.042771
0.0445712
-0.0399751
-0.0538254
-0.0401512
-0.0593377
-0.0396124
-0.0637739
-0.0381811
-0.0666496
-0.0356183
-0.0674092
-0.0317033
-0.0653951
-0.0262646
-0.059973
-0.0192191
-0.0506068
-0.0106764
-0.037
-0.000916893
-0.0190873
0.0107658
0.0020442
0.022566
0.0273566
0.0343086
0.0535616
0.0455308
0.0789724
0.0554201
0.102038
0.0630499
0.121697
0.0677667
0.137917
0.0698125
0.151247
0.0708082
0.161095
0.0733179
0.164002
0.0793169
0.154296
0.0888488
0.127482
0.100423
0.0829763
0.112601
0.0240495
0.124097
-0.0408266
0.133841
-0.100748
0.140784
-0.145287
0.144332
-0.171415
0.144921
-0.183001
0.143611
-0.18487
0.140128
-0.181756
0.133017
-0.181762
0.122978
-0.189124
0.114425
-0.191039
0.112211
-0.163665
0.117329
-0.0956467
0.127133
-0.0039351
0.137974
0.0858248
0.14756
0.150841
0.153856
0.190752
0.154705
0.218122
0.149728
0.249857
0.141799
0.272068
0.135765
0.251631
0.134668
0.17001
0.138386
0.0402532
0.144834
-0.0795567
0.150182
-0.174306
0.150238
-0.213608
0.144461
-0.258427
0.136885
-0.267545
0.133797
-0.249931
0.136461
-0.16361
0.141045
-0.0115867
0.142661
0.0898462
0.139385
0.272813
0.13572
0.284502
0.13414
0.328972
0.132881
0.230322
-0.0410502
-0.032344
-0.0515559
-0.0344385
-0.0572433
-0.0360709
-0.0621416
-0.0370737
-0.0656468
-0.037135
-0.0673479
-0.0359154
-0.0666146
-0.0330725
-0.0628159
-0.0283309
-0.0553484
-0.0215563
-0.0437746
-0.0127581
-0.0278856
-0.0024807
-0.0082332
0.0100204
0.0148555
0.0225167
0.0410653
0.034989
0.0665001
0.0463773
0.0906495
0.0558292
0.112245
0.0629691
0.130777
0.0683701
0.145846
0.073634
0.155831
0.0806379
0.156999
0.0902389
0.144695
0.101628
0.116093
0.113264
0.0713407
0.124134
0.0131791
0.13353
-0.0502221
0.140728
-0.107946
0.145123
-0.149683
0.146493
-0.172785
0.145294
-0.181802
0.142663
-0.182238
0.138658
-0.177751
0.131595
-0.174699
0.121286
-0.178815
0.111704
-0.181457
0.108348
-0.160309
0.113088
-0.100387
0.123414
-0.014261
0.135575
0.0736636
0.146703
0.139713
0.154289
0.183165
0.156117
0.216294
0.152057
0.253917
0.145019
0.279105
0.139478
0.257172
0.138073
0.171416
0.140691
0.0376353
0.145857
-0.0847227
0.1504
-0.178849
0.150162
-0.21337
0.144299
-0.252563
0.136685
-0.259931
0.133651
-0.246897
0.13644
-0.166399
0.140963
-0.0161092
0.142667
0.0881417
0.139415
0.276066
0.135753
0.288164
0.1343
0.330425
0.133192
0.231429
-0.0394301
-0.0140401
-0.0480479
-0.0177648
-0.0535186
-0.0213556
-0.0585507
-0.0247418
-0.0622606
-0.0275124
-0.0645773
-0.0292571
-0.0648699
-0.0295229
-0.0625502
-0.0278703
-0.057001
-0.0239414
-0.0477035
-0.0175577
-0.0342693
-0.00902682
-0.0167641
0.0016285
0.00420022
0.0142291
0.0284647
0.0272918
0.0534374
0.0399317
0.0780095
0.0513666
0.10081
0.0613376
0.120806
0.0704026
0.136781
0.0797648
0.146469
0.0905047
0.146259
0.102604
0.132595
0.114834
0.103863
0.125854
0.0603207
0.135089
0.00394418
0.142306
-0.0574392
0.146996
-0.112636
0.148893
-0.15158
0.148188
-0.172081
0.145403
-0.179017
0.141582
-0.178417
0.137117
-0.173286
0.130368
-0.167951
0.120258
-0.168704
0.109922
-0.171121
0.105245
-0.155633
0.109188
-0.10433
0.119781
-0.0248538
0.133065
0.0603801
0.145636
0.127142
0.15452
0.174281
0.157471
0.213344
0.154518
0.25687
0.148475
0.285148
0.143402
0.262246
0.141614
0.173203
0.143106
0.0361429
0.146912
-0.088529
0.15061
-0.182547
0.150124
-0.212884
0.144222
-0.246662
0.136563
-0.252271
0.133541
-0.243876
0.136453
-0.16931
0.140959
-0.020616
0.142803
0.086298
0.139581
0.279288
0.13589
0.291855
0.134588
0.331727
0.13369
0.232327
-0.0379333
0.0133416
-0.0436194
0.00831878
-0.0484958
0.00292605
-0.053158
-0.00231373
-0.0570208
-0.00736531
-0.0595257
-0.0118212
-0.0604141
-0.0151708
-0.0592005
-0.0168467
-0.0553251
-0.0163086
-0.0482416
-0.0132012
-0.0373767
-0.00758424
-0.022381
0.000834438
-0.00421846
0.0121669
0.0171322
0.024806
0.0407983
0.0380219
0.0647937
0.0510189
0.0878129
0.0634881
0.108337
0.0757141
0.124555
0.0883434
0.133839
0.10173
0.132872
0.11527
0.119056
0.127572
0.0915604
0.137598
0.0502948
0.145065
-0.00352324
0.150183
-0.0625571
0.152465
-0.114918
0.151954
-0.15107
0.149298
-0.169424
0.145149
-0.174868
0.140331
-0.1736
0.135453
-0.168409
0.129174
-0.161672
0.119702
-0.159232
0.109033
-0.160452
0.103016
-0.149616
0.105814
-0.107127
0.116261
-0.0353006
0.13042
0.0462208
0.144285
0.113277
0.154467
0.164099
0.158682
0.209129
0.157009
0.258542
0.152031
0.290127
0.147391
0.266885
0.145192
0.175403
0.145557
0.0357781
0.147975
-0.0909468
0.150786
-0.185357
0.150091
-0.212189
0.144201
-0.240772
0.136479
-0.244549
0.133417
-0.240814
0.136457
-0.17235
0.14101
-0.0251694
0.143054
0.0842538
0.139881
0.28246
0.136134
0.295602
0.135005
0.332857
0.134375
0.232956
-0.0365845
0.0470754
-0.0387489
0.0417922
-0.0432126
0.0359499
-0.0473157
0.0294784
-0.0505493
0.0226387
-0.0526859
0.0157656
-0.053541
0.00937016
-0.052805
0.00412089
-0.0500759
0.00071718
-0.0448379
0.000163113
-0.0368226
0.00323021
-0.0254481
0.00935496
-0.0103432
0.0180468
0.00844045
0.0291355
0.0297095
0.0418608
0.0520684
0.0554487
0.074225
0.0694266
0.0943588
0.0836952
0.110287
0.098337
0.119198
0.113133
0.118076
0.127133
0.105056
0.138981
0.0797125
0.147917
0.0413588
0.153887
-0.00949329
0.156981
-0.0656507
0.156956
-0.114893
0.154188
-0.148302
0.149744
-0.16498
0.14445
-0.169573
0.138854
-0.168004
0.133599
-0.163153
0.127829
-0.155902
0.119357
-0.150761
0.108871
-0.149966
0.101699
-0.142444
0.103045
-0.108474
0.11294
-0.0451956
0.127609
0.0315518
0.142562
0.0983239
0.154023
0.152638
0.159633
0.20352
0.159394
0.258781
0.155538
0.293983
0.151297
0.271126
0.148676
0.178023
0.147984
0.0364703
0.149011
-0.0919737
0.150894
-0.187241
0.150025
-0.211321
0.144203
-0.23495
0.136402
-0.236748
0.133231
-0.237642
0.136405
-0.175524
0.141082
-0.0298468
0.143401
0.0819354
0.14031
0.285551
0.136488
0.299425
0.135551
0.333794
0.135247
0.23326
-0.0354086
0.0818163
-0.0337506
0.076493
-0.0378893
0.0706301
-0.0414528
0.0641305
-0.0440497
0.0571037
-0.0456592
0.0497006
-0.0461379
0.0422061
-0.0453105
0.0351465
-0.0430163
0.0293063
-0.0389976
0.0254359
-0.0329522
0.0242359
-0.0242481
0.0262904
-0.0123977
0.0317194
0.00301151
0.0402175
0.0212113
0.0513282
0.0409578
0.0643131
0.0612401
0.0785307
0.0801412
0.0935087
0.0953086
0.108842
0.103865
0.123889
0.103028
0.137527
0.0914183
0.148554
0.0686856
0.156434
0.0334785
0.161119
-0.0141785
0.162415
-0.0669462
0.160273
-0.112751
0.155482
-0.143511
0.149462
-0.158961
0.14323
-0.163342
0.137092
-0.161865
0.13152
-0.157581
0.126186
-0.150568
0.118931
-0.143505
0.10917
-0.140205
0.101208
-0.134482
0.100951
-0.108217
0.109849
-0.0540935
0.124596
0.0168044
0.140376
0.0825448
0.153068
0.139946
0.16019
0.196398
0.161532
0.25744
0.15885
0.296664
0.154978
0.274998
0.151949
0.181052
0.150306
0.0381138
0.149985
-0.0916527
0.150903
-0.188159
0.149883
-0.210301
0.144195
-0.229261
0.136308
-0.228862
0.132947
-0.234281
0.136249
-0.178826
0.141139
-0.0347375
0.143819
0.0792555
0.140862
0.288508
0.136952
0.303335
0.136227
0.334519
0.136305
0.233182
-0.0344331
0.113159
-0.0285958
0.107751
-0.0324808
0.101914
-0.0356166
0.0956467
-0.0377819
0.0890449
-0.0390574
0.0821429
-0.0392358
0.0749666
-0.0381342
0.0676993
-0.035749
0.0607882
-0.0320866
0.0548752
-0.0270392
0.0508014
-0.0201743
0.0493871
-0.0109834
0.0512935
0.00110506
0.0565991
0.0159057
0.0651776
0.0323792
0.0764567
0.049961
0.0897131
0.0668848
0.104182
0.0808397
0.119077
0.0889698
0.133468
0.0886369
0.146182
0.0787043
0.156211
0.0586568
0.163136
0.026553
0.166679
-0.0177214
0.166337
-0.0666043
0.16228
-0.108693
0.155741
-0.136972
0.148406
-0.151626
0.141432
-0.156368
0.134969
-0.155402
0.129183
-0.151795
0.124154
-0.145539
0.118147
-0.137499
0.109583
-0.131641
0.101348
-0.126247
0.0995091
-0.106378
0.10698
-0.0615646
0.121338
0.00244701
0.137639
0.0662435
0.151488
0.126096
0.160206
0.18768
0.163246
0.254401
0.161794
0.298116
0.158293
0.278498
0.154924
0.184421
0.15242
0.0406183
0.150853
-0.0900858
0.150777
-0.188083
0.149617
-0.209141
0.14414
-0.223784
0.13618
-0.220902
0.132538
-0.230639
0.135943
-0.18223
0.14114
-0.0399348
0.144282
0.0761138
0.141527
0.291263
0.137529
0.307333
0.137036
0.335012
0.137549
0.232668
-0.0336863
0.13793
-0.023326
0.132418
-0.0269684
0.126509
-0.0297074
0.12037
-0.0316427
0.114183
-0.0328704
0.107993
-0.0330459
0.101785
-0.0319266
0.095567
-0.0295308
0.0894324
-0.025952
0.0836309
-0.0212378
0.0787056
-0.015249
0.0754473
-0.00772513
0.0744878
0.00206457
0.0765853
0.0138082
0.0820794
0.0268852
0.0907674
0.041273
0.102038
0.0556141
0.114993
0.0678848
0.128586
0.0753768
0.141692
0.0755312
0.153158
0.0672379
0.162136
0.0496787
0.168151
0.0205384
0.170571
-0.0201418
0.168641
-0.0646744
0.16284
-0.102892
0.154846
-0.128977
0.146489
-0.14327
0.138959
-0.148838
0.132355
-0.148798
0.126501
-0.14594
0.121657
-0.140696
0.11677
-0.132611
0.109729
-0.1246
0.101803
-0.118321
0.0985914
-0.103166
0.104323
-0.0672959
0.117797
-0.0110277
0.134279
0.0497622
0.149163
0.111211
0.159545
0.177298
0.164428
0.249518
0.164268
0.298276
0.161135
0.281631
0.157451
0.188105
0.154288
0.0437811
0.151564
-0.087362
0.150473
-0.186992
0.149171
-0.207838
0.143998
-0.218611
0.13601
-0.212914
0.131989
-0.226618
0.135447
-0.185689
0.141043
-0.0455307
0.144757
0.0724
0.142296
0.293723
0.138223
0.311407
0.137979
0.335256
0.138981
0.231666
-0.0331943
0.153848
-0.0182623
0.148429
-0.0215494
0.142598
-0.0238761
0.136694
-0.025739
0.130921
-0.0270972
0.125344
-0.0274694
0.120053
-0.0266349
0.115115
-0.0245935
0.110498
-0.0213346
0.10618
-0.01692
0.102297
-0.011366
0.0991683
-0.00459632
0.0972799
0.00395301
0.0976151
0.013473
0.100576
0.0239239
0.106473
0.0353767
0.115103
0.0469834
0.125766
0.0572223
0.13739
0.0637524
0.148761
0.06416
0.158763
0.0572358
0.166661
0.0417808
0.17168
0.0155201
0.172821
-0.0212833
0.16924
-0.0610936
0.161852
-0.0955034
0.152695
-0.11982
0.143618
-0.134193
0.135713
-0.140933
0.129103
-0.142187
0.123352
-0.14019
0.118639
-0.135982
0.114638
-0.12861
0.109253
-0.119215
0.102211
-0.111279
0.0980262
-0.0989809
0.101839
-0.0711089
0.113962
-0.0231505
0.130244
0.0334801
0.146004
0.0954515
0.158043
0.165259
0.164831
0.24273
0.166064
0.297043
0.16338
0.284315
0.159499
0.191986
0.155822
0.0474585
0.152088
-0.0836285
0.149972
-0.184875
0.148501
-0.206368
0.143729
-0.213839
0.135794
-0.204979
0.131306
-0.222129
0.134728
-0.189112
0.140806
-0.0516085
0.145211
0.067995
0.143156
0.295779
0.139034
0.315529
0.139062
0.335228
0.140601
0.230126
-0.032983
0.160263
-0.0138432
0.155217
-0.0165034
0.149757
-0.0184154
0.144344
-0.0203266
0.139105
-0.021858
0.134157
-0.0225218
0.129715
-0.0221929
0.125896
-0.0207744
0.122706
-0.0181438
0.120098
-0.0143127
0.11807
-0.00933788
0.116822
-0.00334821
0.116128
0.0046466
0.116268
0.0133339
0.118114
0.0220771
0.122142
0.0313489
0.128454
0.0406714
0.136658
0.0490187
0.145952
0.0544583
0.155264
0.0548478
0.1636
0.0488998
0.17019
0.0351911
0.173807
0.0119024
0.173521
-0.0209973
0.168322
-0.0558939
0.159628
-0.0868099
0.149677
-0.109869
0.140205
-0.124722
0.132098
-0.132826
0.125529
-0.135618
0.119978
-0.134639
0.115359
-0.131363
0.111911
-0.125162
0.108058
-0.115362
0.102337
-0.105559
0.0976843
-0.094328
0.0995391
-0.0729637
0.10986
-0.0334713
0.125486
0.0178537
0.141919
0.0790184
0.155689
0.151489
0.164576
0.233843
0.16727
0.29435
0.164991
0.286594
0.161076
0.1959
0.157063
0.0514711
0.152478
-0.079043
0.149346
-0.181744
0.147641
-0.204663
0.14334
-0.209538
0.135548
-0.197186
0.130538
-0.217119
0.133791
-0.192364
0.140392
-0.0582104
0.145596
0.0627918
0.144087
0.297288
0.139961
0.319654
0.140288
0.334901
0.142408
0.228006
-0.0330773
0.159104
-0.0104748
0.154701
-0.0121004
0.150168
-0.0138815
0.145633
-0.015792
0.14117
-0.0173947
0.13699
-0.0183423
0.13327
-0.0184729
0.130166
-0.0176704
0.127838
-0.0158159
0.126342
-0.0128167
0.125627
-0.00862262
0.125501
-0.00322259
0.126399
0.00374859
0.128289
0.0114439
0.130933
0.0194339
0.134678
0.027603
0.139827
0.0355227
0.146366
0.0424801
0.153771
0.0470526
0.1612
0.0474188
0.167807
0.0422928
0.172732
0.0302669
0.174987
0.00964703
0.172497
-0.018507
0.165778
-0.049175
0.156289
-0.0773214
0.146152
-0.0997314
0.136756
-0.115326
0.128698
-0.124767
0.122193
-0.129113
0.116843
-0.129289
0.112287
-0.126808
0.109033
-0.121907
0.10634
-0.11267
0.102131
-0.101349
0.097527
-0.0897242
0.0976228
-0.0730595
0.10576
-0.0416085
0.120227
0.00338624
0.136776
0.0624703
0.151903
0.136362
0.16295
0.222796
0.167375
0.289925
0.165771
0.288198
0.161982
0.199689
0.157972
0.0554815
0.152661
-0.0737318
0.148636
-0.177719
0.146644
-0.202671
0.142848
-0.205742
0.135266
-0.189605
0.129732
-0.211585
0.132713
-0.195345
0.139825
-0.0653225
0.145895
0.0567214
0.145077
0.298106
0.141006
0.323725
0.141666
0.334241
0.144411
0.225261
-0.0335032
0.191102
-0.0068681
-0.194708
0.188154
-0.00915251
0.185092
-0.01082
0.181708
-0.0124079
0.178034
-0.0137205
0.174182
-0.0144903
0.170253
-0.0145435
0.166334
-0.0137517
0.162522
-0.0120036
0.158911
-0.00920601
0.155591
-0.00530265
0.152676
-0.000308033
0.150486
0.005939
0.149012
0.0129182
0.148305
0.020141
0.14867
0.0272375
0.150486
0.0337061
0.154145
0.038822
0.159817
0.0413805
0.167249
0.039986
0.175972
0.0335702
0.185192
0.0210469
0.19306
0.00177964
0.197852
-0.0232991
0.198392
-0.0497152
0.195026
-0.0739554
0.188878
-0.0935832
0.181141
-0.107589
0.172711
-0.116338
0.164344
-0.120746
0.156345
-0.12129
0.148505
-0.118968
0.141257
-0.114659
0.13477
-0.106182
0.12735
-0.0939289
0.118424
-0.0807989
0.111473
-0.066108
0.110701
-0.0408365
0.115871
-0.00178389
0.122873
0.055468
0.128672
0.130563
0.132622
0.218846
0.136112
0.286435
0.142083
0.282227
0.151438
0.190334
0.159507
0.0474121
0.162292
-0.0765164
0.160555
-0.175982
0.156847
-0.198963
0.150724
-0.199619
0.141398
-0.180279
0.133455
-0.203642
0.131027
-0.192916
0.132349
-0.0666447
0.132962
0.0561077
0.13008
0.300988
0.126858
0.326947
0.128892
0.332207
0.13313
0.221023
-0.0334402
0.200958
-0.00425141
-0.203574
0.198239
-0.00643357
0.195524
-0.00810506
0.192564
-0.00944835
0.189356
-0.0105119
0.186004
-0.0111385
0.182614
-0.0111533
0.179284
-0.0104224
0.176124
-0.00884328
0.173256
-0.00633811
0.170832
-0.00287874
0.168937
0.00158747
0.167825
0.00705052
0.167567
0.0131762
0.16821
0.0194981
0.169876
0.0255715
0.172748
0.0308339
0.177019
0.0345512
0.182716
0.0356837
0.189553
0.0331494
0.197003
0.0261203
0.204185
0.0138641
0.209782
-0.00381684
0.21214
-0.0256571
0.210876
-0.0484515
0.206321
-0.0694007
0.199406
-0.086668
0.191212
-0.0993943
0.182542
-0.107669
0.174007
-0.112211
0.165957
-0.11324
0.158123
-0.111133
0.150664
-0.107201
0.144148
-0.0996661
0.137381
-0.0871614
0.128938
-0.0723559
0.121221
-0.0583913
0.118845
-0.0384605
0.122788
-0.0057273
0.12978
0.0484768
0.136306
0.124037
0.141372
0.213779
0.146216
0.281591
0.153684
0.274759
0.164161
0.179857
0.172925
0.0386485
0.175313
-0.0789046
0.172539
-0.173208
0.167788
-0.194212
0.161118
-0.19295
0.15126
-0.170421
0.142446
-0.194829
0.139505
-0.189975
0.14079
-0.0679295
0.141817
0.0550805
0.139125
0.303681
0.135781
0.330291
0.138254
0.329734