/*--------------------------------*- C++ -*----------------------------------*\
| =========                 |                                                 |
| \\      /  F ield         | OpenFOAM: The Open Source CFD Toolbox           |
|  \\    /   O peration     | Version:  2512                                  |
|   \\  /    A nd           | Website:  www.openfoam.com                      |
|    \\/     M anipulation  |                                                 |
\*---------------------------------------------------------------------------*/
FoamFile
{
    version     2.0;
    format      ascii;
    arch        "LSB;label=32;scalar=64";
    class       volScalarField;
    location    "197.25";
    object      p;
}
// * * * * * * * * * * * * * * * * * * * * * * * * * * * * * * * * * * * * * //

dimensions      [0 2 -2 0 0 0 0];

internalField   nonuniform List<scalar> 
13248
(
-0.357548
-0.356415
-0.354981
-0.353281
-0.351253
-0.348772
-0.34565
-0.341664
-0.33659
-0.330237
-0.322471
-0.313241
-0.302593
-0.290674
-0.277716
-0.264012
-0.249888
-0.235666
-0.221637
-0.208057
-0.195081
-0.182924
-0.171408
-0.160897
-0.36601
-0.363837
-0.361453
-0.358859
-0.355964
-0.352652
-0.348734
-0.343969
-0.33812
-0.330992
-0.322468
-0.312533
-0.301283
-0.288913
-0.275693
-0.261929
-0.247935
-0.233997
-0.220358
-0.207206
-0.194665
-0.182841
-0.171639
-0.161273
-0.375285
-0.372017
-0.36861
-0.365044
-0.361192
-0.356946
-0.352104
-0.346404
-0.339592
-0.331483
-0.321993
-0.311164
-0.299155
-0.286213
-0.272637
-0.258738
-0.244805
-0.231084
-0.217763
-0.204981
-0.192812
-0.181329
-0.17043
-0.160215
-0.385637
-0.381194
-0.376712
-0.372127
-0.367251
-0.361958
-0.35602
-0.34915
-0.341093
-0.331702
-0.320962
-0.309001
-0.296053
-0.282418
-0.268413
-0.254334
-0.24043
-0.226891
-0.213851
-0.201395
-0.189564
-0.178396
-0.167792
-0.15791
-0.397296
-0.391578
-0.385979
-0.380339
-0.374356
-0.367858
-0.360578
-0.352219
-0.342567
-0.331561
-0.319302
-0.306022
-0.292033
-0.277668
-0.263233
-0.248982
-0.235104
-0.221728
-0.208933
-0.196758
-0.185219
-0.174322
-0.163993
-0.154361
-0.410363
-0.403275
-0.396522
-0.389779
-0.38256
-0.374614
-0.365649
-0.355404
-0.343771
-0.330838
-0.31685
-0.302148
-0.287094
-0.272016
-0.257176
-0.242763
-0.228898
-0.215651
-0.203052
-0.191109
-0.179814
-0.169153
-0.15907
-0.149663
-0.424755
-0.416232
-0.408293
-0.400357
-0.391686
-0.381944
-0.370862
-0.358296
-0.344326
-0.329235
-0.313417
-0.297289
-0.281216
-0.265481
-0.250274
-0.23571
-0.221844
-0.208694
-0.196254
-0.184506
-0.173425
-0.162979
-0.153133
-0.143923
-0.44017
-0.430197
-0.421036
-0.411753
-0.401311
-0.389325
-0.375644
-0.360352
-0.343785
-0.326429
-0.308795
-0.291317
-0.274316
-0.257994
-0.242459
-0.227752
-0.213873
-0.200799
-0.188494
-0.17692
-0.166038
-0.155807
-0.146199
-0.137184
-0.456068
-0.444698
-0.434267
-0.423401
-0.410766
-0.396031
-0.379301
-0.360987
-0.341708
-0.322124
-0.302791
-0.284101
-0.266288
-0.24946
-0.233644
-0.218815
-0.204928
-0.191927
-0.179754
-0.168354
-0.157675
-0.147672
-0.138311
-0.129505
-0.47167
-0.459017
-0.447235
-0.434462
-0.419155
-0.401193
-0.381084
-0.359628
-0.337701
-0.316055
-0.295218
-0.275489
-0.256996
-0.239752
-0.22371
-0.208796
-0.194925
-0.182016
-0.169993
-0.158784
-0.148328
-0.138573
-0.129465
-0.120888
-0.485982
-0.472193
-0.458929
-0.443858
-0.425399
-0.403837
-0.380196
-0.355662
-0.331289
-0.30783
-0.285721
-0.265141
-0.246107
-0.228549
-0.212357
-0.197416
-0.183613
-0.170843
-0.159013
-0.148039
-0.13785
-0.128382
-0.119553
-0.111254
-0.497886
-0.483151
-0.468251
-0.450465
-0.428407
-0.40297
-0.375763
-0.348307
-0.321738
-0.296735
-0.273596
-0.252366
-0.232955
-0.215216
-0.19899
-0.184123
-0.170478
-0.157932
-0.146377
-0.135719
-0.125878
-0.116781
-0.108316
-0.100426
-0.353704
-0.355667
-0.356785
-0.357544
-0.358428
-0.359629
-0.361223
-0.363227
-0.365625
-0.368382
-0.371457
-0.3748
-0.378348
-0.382016
-0.385693
-0.389236
-0.392465
-0.395167
-0.397097
-0.39799
-0.397545
-0.395459
-0.391688
-0.386471
-0.344744
-0.347429
-0.348903
-0.349764
-0.350565
-0.35148
-0.352559
-0.353795
-0.35515
-0.356564
-0.357967
-0.359284
-0.360427
-0.361298
-0.361784
-0.361758
-0.361078
-0.359599
-0.357182
-0.35369
-0.348994
-0.3426
-0.335067
-0.327496
-0.33691
-0.340146
-0.341892
-0.342819
-0.343518
-0.344138
-0.344702
-0.345179
-0.345507
-0.345599
-0.345359
-0.344687
-0.343473
-0.341608
-0.338979
-0.335474
-0.330987
-0.325425
-0.318711
-0.310797
-0.301608
-0.291298
-0.279964
-0.269682
-0.330715
-0.334307
-0.336231
-0.337191
-0.337785
-0.338131
-0.338222
-0.338005
-0.337394
-0.336278
-0.33454
-0.332059
-0.328713
-0.324386
-0.31897
-0.312377
-0.304536
-0.295408
-0.284989
-0.273336
-0.260562
-0.246817
-0.232169
-0.218953
-0.326512
-0.330255
-0.332257
-0.333217
-0.333707
-0.33381
-0.33349
-0.33267
-0.331244
-0.329082
-0.326051
-0.322016
-0.316851
-0.310444
-0.302703
-0.293569
-0.283016
-0.271065
-0.257784
-0.243306
-0.227854
-0.211638
-0.194357
-0.176441
-0.324483
-0.328173
-0.33015
-0.33107
-0.331453
-0.331344
-0.330678
-0.329356
-0.327253
-0.324227
-0.320131
-0.314827
-0.308191
-0.300122
-0.290556
-0.279471
-0.266899
-0.252929
-0.237714
-0.221481
-0.204546
-0.187256
-0.169752
-0.15303
-0.324635
-0.328075
-0.32992
-0.330753
-0.331019
-0.330722
-0.329772
-0.328048
-0.32541
-0.321704
-0.316778
-0.310494
-0.302736
-0.293423
-0.282524
-0.270062
-0.256129
-0.240886
-0.224565
-0.207471
-0.189978
-0.17249
-0.15546
-0.138337
-0.326822
-0.329825
-0.331425
-0.332111
-0.332234
-0.331761
-0.330575
-0.328537
-0.325491
-0.321275
-0.315736
-0.308738
-0.300181
-0.29001
-0.278229
-0.264915
-0.250217
-0.234366
-0.217663
-0.200471
-0.183223
-0.166176
-0.150584
-0.133463
-0.330769
-0.333166
-0.334407
-0.334864
-0.334792
-0.334125
-0.332719
-0.330416
-0.327049
-0.322446
-0.316454
-0.308946
-0.299842
-0.289116
-0.276818
-0.263075
-0.248099
-0.232177
-0.215666
-0.198946
-0.182541
-0.16638
-0.152556
-0.136707
-0.336122
-0.337772
-0.338528
-0.338653
-0.338302
-0.337374
-0.335709
-0.333132
-0.32946
-0.324516
-0.318147
-0.31024
-0.300739
-0.289655
-0.277087
-0.263215
-0.248305
-0.23269
-0.216755
-0.200869
-0.185577
-0.170686
-0.158236
-0.144527
-0.34253
-0.343323
-0.343462
-0.343116
-0.342347
-0.341042
-0.33902
-0.336089
-0.332054
-0.326733
-0.31998
-0.311697
-0.301859
-0.290521
-0.27783
-0.264015
-0.249381
-0.23428
-0.219091
-0.20417
-0.189934
-0.176412
-0.164819
-0.153188
-0.34972
-0.349578
-0.348961
-0.347994
-0.346653
-0.344811
-0.342288
-0.338878
-0.334373
-0.328588
-0.321382
-0.31268
-0.302491
-0.290914
-0.278139
-0.264434
-0.250121
-0.235546
-0.221045
-0.206939
-0.193479
-0.180905
-0.169643
-0.159355
-0.378539
-0.365696
-0.34862
-0.327738
-0.304341
-0.280625
-0.258753
-0.241275
-0.230639
-0.228521
-0.235037
-0.248258
-0.264096
-0.276974
-0.280922
-0.271128
-0.246486
-0.210791
-0.171904
-0.137479
-0.111814
-0.0958439
-0.0885611
-0.0885292
-0.0955509
-0.110792
-0.132788
-0.15358
-0.162073
-0.153538
-0.132043
-0.107136
-0.0865998
-0.0738475
-0.0681647
-0.0686236
-0.0770493
-0.0935994
-0.110952
-0.11709
-0.107073
-0.088783
-0.0710006
-0.0586519
-0.0514852
-0.0512729
-0.0564274
-0.060208
-0.057812
-0.0525377
-0.0454632
-0.0406292
-0.0373426
-0.0361024
-0.0365126
-0.0357749
-0.0300586
-0.0238297
-0.0129416
-0.00228474
-0.318877
-0.307707
-0.294092
-0.278621
-0.262374
-0.247287
-0.235111
-0.228081
-0.227875
-0.235588
-0.250344
-0.269439
-0.288571
-0.302468
-0.305611
-0.293658
-0.265605
-0.225791
-0.182723
-0.144476
-0.115372
-0.0961288
-0.085621
-0.0823868
-0.0858696
-0.0969275
-0.114817
-0.133087
-0.142007
-0.136164
-0.118891
-0.0981086
-0.0811711
-0.0714769
-0.0684025
-0.0713492
-0.0825613
-0.101867
-0.121182
-0.127702
-0.116112
-0.0951765
-0.0743373
-0.0594174
-0.0499445
-0.0475776
-0.0504998
-0.0529587
-0.0510839
-0.0472403
-0.0424368
-0.0394356
-0.0385699
-0.0391768
-0.0406014
-0.0401868
-0.0333599
-0.0262735
-0.0137365
-0.00204843
-0.260775
-0.250863
-0.240194
-0.229763
-0.220208
-0.213178
-0.210379
-0.212883
-0.222072
-0.237979
-0.259029
-0.28217
-0.303288
-0.317684
-0.320468
-0.307316
-0.277289
-0.23505
-0.189449
-0.148724
-0.117178
-0.0953553
-0.0820411
-0.0757709
-0.0758053
-0.0826992
-0.0963343
-0.111864
-0.120884
-0.117636
-0.104525
-0.0878477
-0.0745608
-0.0679946
-0.0675906
-0.0730417
-0.0869086
-0.108712
-0.129819
-0.136864
-0.123986
-0.100757
-0.0771326
-0.0598123
-0.0482417
-0.0439464
-0.0448502
-0.0460603
-0.0445434
-0.0419211
-0.0392426
-0.0380634
-0.0397506
-0.042277
-0.0446301
-0.0444549
-0.0365103
-0.0285894
-0.0145033
-0.00183287
-0.211046
-0.201856
-0.193384
-0.186351
-0.183505
-0.183125
-0.187511
-0.197746
-0.214019
-0.235662
-0.26078
-0.286315
-0.308462
-0.323075
-0.325784
-0.312259
-0.281595
-0.238601
-0.192166
-0.150416
-0.11749
-0.0938471
-0.078275
-0.0693486
-0.0661929
-0.0691386
-0.0785205
-0.09103
-0.099678
-0.098643
-0.0894612
-0.0766963
-0.0669599
-0.0634367
-0.0656097
-0.0734099
-0.0896574
-0.113699
-0.136539
-0.144245
-0.130469
-0.105391
-0.0793545
-0.0598683
-0.046436
-0.0404688
-0.0396031
-0.0396386
-0.0383081
-0.0366587
-0.035925
-0.0365186
-0.0408639
-0.045372
-0.0485616
-0.0485324
-0.0394708
-0.0307496
-0.0152314
-0.00163666
-0.174992
-0.164676
-0.15808
-0.154159
-0.154172
-0.158676
-0.168364
-0.183621
-0.204226
-0.229147
-0.256345
-0.282887
-0.305298
-0.319968
-0.322688
-0.309332
-0.279177
-0.237041
-0.191469
-0.150103
-0.11677
-0.0919712
-0.0746644
-0.0635264
-0.0576297
-0.0569987
-0.062251
-0.0715178
-0.0792963
-0.0798697
-0.0741754
-0.0649652
-0.0585301
-0.0578057
-0.0623413
-0.0722266
-0.0905296
-0.116561
-0.141056
-0.149574
-0.135394
-0.109002
-0.0810046
-0.0596392
-0.0445886
-0.037199
-0.0348247
-0.0337826
-0.0324816
-0.0315353
-0.0325264
-0.034804
-0.0418833
-0.0484205
-0.0523457
-0.0523661
-0.0422017
-0.0327273
-0.0159107
-0.00145843
-0.147743
-0.138978
-0.133379
-0.131402
-0.133797
-0.141057
-0.153469
-0.171113
-0.19355
-0.219587
-0.247173
-0.273536
-0.295817
-0.310104
-0.312706
-0.299843
-0.27112
-0.231225
-0.188003
-0.148257
-0.115407
-0.0900595
-0.0714756
-0.0585476
-0.0503646
-0.0467374
-0.0482078
-0.0541023
-0.0605602
-0.0635844
-0.0591379
-0.0529708
-0.0494539
-0.0511744
-0.057785
-0.0694451
-0.0894235
-0.117121
-0.143129
-0.152696
-0.138697
-0.111542
-0.0820827
-0.0591666
-0.0427421
-0.0341622
-0.0305405
-0.0285413
-0.0271454
-0.0266251
-0.0290865
-0.0329212
-0.0427737
-0.0513641
-0.0559294
-0.0559087
-0.0446665
-0.0344965
-0.0165282
-0.00129543
-0.133737
-0.125657
-0.119737
-0.118129
-0.121384
-0.129565
-0.142664
-0.160608
-0.182899
-0.208344
-0.23495
-0.260075
-0.281077
-0.294966
-0.297305
-0.285254
-0.258791
-0.222279
-0.182554
-0.14538
-0.113739
-0.0883739
-0.0689142
-0.0545645
-0.0445053
-0.0384083
-0.0366426
-0.0392365
-0.0437846
-0.0466218
-0.0445544
-0.0410892
-0.0400071
-0.0437447
-0.0520784
-0.0651254
-0.0863174
-0.115301
-0.14267
-0.153576
-0.14033
-0.112975
-0.0825818
-0.0584772
-0.0409235
-0.0313613
-0.0267327
-0.0239186
-0.0223547
-0.0219941
-0.0256446
-0.0308707
-0.0434923
-0.0541367
-0.0592673
-0.0591172
-0.0468319
-0.0360355
-0.0170713
-0.0011428
-0.130237
-0.122808
-0.115708
-0.11302
-0.115675
-0.123303
-0.13553
-0.152223
-0.172911
-0.196478
-0.221124
-0.24451
-0.263456
-0.275976
-0.277923
-0.267032
-0.243518
-0.211223
-0.175756
-0.141785
-0.111889
-0.0869624
-0.067003
-0.0515753
-0.0400259
-0.0319543
-0.0275354
-0.0271139
-0.0294756
-0.0316823
-0.0310744
-0.0297633
-0.0305351
-0.0357904
-0.0454196
-0.0594323
-0.0813454
-0.111162
-0.13977
-0.152198
-0.140243
-0.113284
-0.0825038
-0.0575944
-0.0391533
-0.028796
-0.0233719
-0.0198834
-0.01813
-0.0176972
-0.0222393
-0.0286553
-0.0439914
-0.0566707
-0.0623132
-0.0619501
-0.04867
-0.0373298
-0.0175353
-0.000994377
-0.134558
-0.127637
-0.118967
-0.114643
-0.115628
-0.121362
-0.131419
-0.145691
-0.163685
-0.184327
-0.206153
-0.228137
-0.244167
-0.254508
-0.256002
-0.246619
-0.226603
-0.199022
-0.168179
-0.137734
-0.109937
-0.085834
-0.0657417
-0.0495672
-0.0368824
-0.0272802
-0.0207695
-0.0177446
-0.0178558
-0.0191107
-0.0191641
-0.0193665
-0.0213804
-0.0276266
-0.0380718
-0.0525336
-0.0746551
-0.104943
-0.134626
-0.148642
-0.138485
-0.112544
-0.0819441
-0.0566262
-0.037512
-0.026492
-0.0204531
-0.0164199
-0.0144753
-0.0137687
-0.0189073
-0.026274
-0.0442267
-0.0588942
-0.0650174
-0.0643724
-0.0501619
-0.0383706
-0.0179267
-0.000846081
-0.142204
-0.135507
-0.126275
-0.12064
-0.119463
-0.122381
-0.129375
-0.140408
-0.15491
-0.171828
-0.189707
-0.206718
-0.222535
-0.231559
-0.23313
-0.225784
-0.209669
-0.186984
-0.160829
-0.134021
-0.108547
-0.085576
-0.0656685
-0.0490092
-0.0354298
-0.0246018
-0.0164193
-0.0112002
-0.00910716
-0.00912721
-0.0100312
-0.0101647
-0.0128168
-0.0195313
-0.0303133
-0.0448571
-0.0667663
-0.0969301
-0.127449
-0.143063
-0.135211
-0.110923
-0.0810881
-0.0557732
-0.0361606
-0.0245055
-0.0179493
-0.0135255
-0.0114422
-0.0102439
-0.0156703
-0.0237508
-0.0441492
-0.060724
-0.0673282
-0.0663537
-0.0512927
-0.039145
-0.0182394
-0.000694024
-0.149406
-0.142472
-0.13395
-0.127796
-0.124775
-0.124775
-0.128444
-0.135809
-0.146462
-0.159616
-0.174305
-0.188691
-0.200312
-0.2083
-0.210514
-0.205626
-0.19362
-0.175838
-0.154336
-0.131213
-0.108201
-0.0865522
-0.0670337
-0.0500634
-0.0357245
-0.0238671
-0.0143383
-0.00729043
-0.00309847
-0.00160303
-0.0017559
-0.0023067
-0.00517342
-0.0118162
-0.0223401
-0.0363422
-0.0575844
-0.0877651
-0.119011
-0.135539
-0.130353
-0.108184
-0.0796627
-0.0548082
-0.0349535
-0.0227379
-0.0156616
-0.0110041
-0.00899905
-0.00727519
-0.0125872
-0.0210342
-0.043718
-0.0621133
-0.069194
-0.0678251
-0.0520132
-0.0396227
-0.018414
-0.000514338
-0.153886
-0.147564
-0.140483
-0.13402
-0.1296
-0.127824
-0.128762
-0.132519
-0.138992
-0.147866
-0.158729
-0.169033
-0.178756
-0.184873
-0.187084
-0.184109
-0.175546
-0.16197
-0.144587
-0.124909
-0.104429
-0.0844107
-0.0657624
-0.0490591
-0.0345247
-0.0222083
-0.0120155
-0.0038579
0.00198589
0.00494116
0.00535093
0.00426768
0.00141094
-0.00493993
-0.0149505
-0.0282421
-0.0483175
-0.0774555
-0.108534
-0.125858
-0.122709
-0.103263
-0.0763179
-0.0523771
-0.0328359
-0.0206054
-0.0131943
-0.00840859
-0.00655754
-0.00454794
-0.00973488
-0.018327
-0.0428814
-0.0629265
-0.0705793
-0.0687568
-0.0522401
-0.0397717
-0.0183581
-0.000255639
-0.151135
-0.148167
-0.141722
-0.135188
-0.130582
-0.128353
-0.128428
-0.130911
-0.135811
-0.142875
-0.151746
-0.159473
-0.166795
-0.171602
-0.17273
-0.169239
-0.1609
-0.148231
-0.132253
-0.114238
-0.0954497
-0.0769685
-0.059577
-0.0437918
-0.029821
-0.0177427
-0.00752347
0.000940205
0.00752189
0.0116445
0.0130394
0.0131562
0.00931853
0.0036624
-0.0051099
-0.0172938
-0.0369845
-0.0674775
-0.101511
-0.121564
-0.118915
-0.0985196
-0.0717736
-0.0485331
-0.0296096
-0.0179625
-0.0106835
-0.00586731
-0.00366395
-0.000458247
-0.00600687
-0.014715
-0.041364
-0.063745
-0.0719585
-0.0696561
-0.0521063
-0.0396395
-0.018116
3.40061e-05
-0.14767
-0.146285
-0.14033
-0.133891
-0.129315
-0.127021
-0.126779
-0.128456
-0.131924
-0.136818
-0.14208
-0.148516
-0.153608
-0.156448
-0.156154
-0.152125
-0.144222
-0.132834
-0.118721
-0.102848
-0.08619
-0.0696113
-0.0537777
-0.0391613
-0.025981
-0.0143865
-0.00440774
0.00410213
0.0110662
0.0157866
0.0175391
0.0166608
0.0143507
0.00973893
0.00226027
-0.00871155
-0.0277109
-0.0587101
-0.0938102
-0.114152
-0.110853
-0.0911433
-0.0658762
-0.0442463
-0.0265325
-0.0154902
-0.0083457
-0.00370924
-0.00142651
0.00176051
-0.00337532
-0.011886
-0.0399096
-0.0642535
-0.0725691
-0.0696781
-0.0514504
-0.0390289
-0.0177224
0.000187715
-0.1417
-0.141765
-0.136894
-0.130976
-0.126627
-0.124387
-0.123909
-0.124844
-0.126977
-0.130067
-0.133675
-0.137606
-0.140582
-0.141792
-0.140583
-0.136489
-0.129341
-0.119344
-0.107007
-0.0930373
-0.0782033
-0.0632307
-0.0487077
-0.0350896
-0.0226141
-0.0114478
-0.00168702
0.0067442
0.0138206
0.0189376
0.0212229
0.0208609
0.0187843
0.0148413
0.0081506
-0.0022416
-0.0208005
-0.0508774
-0.0844087
-0.104216
-0.101244
-0.0829649
-0.0596713
-0.0398209
-0.0233861
-0.0130026
-0.00608868
-0.00162822
0.000664185
0.00373319
-0.00131938
-0.00978814
-0.0386106
-0.0642126
-0.0724268
-0.0690221
-0.0503694
-0.0380537
-0.0172411
0.000275361
-0.13367
-0.135552
-0.132063
-0.126876
-0.122809
-0.120577
-0.119828
-0.120126
-0.121234
-0.122982
-0.125075
-0.127167
-0.128572
-0.128647
-0.126836
-0.122732
-0.116156
-0.107221
-0.096285
-0.08389
-0.0706416
-0.0571356
-0.0438682
-0.0312504
-0.0195213
-0.00885067
0.000623347
0.00888563
0.0159351
0.0213452
0.0242205
0.0245299
0.0230018
0.0198773
0.0139385
0.00398887
-0.0138259
-0.0420462
-0.073754
-0.0931813
-0.0906352
-0.0740433
-0.0529758
-0.0351063
-0.0201375
-0.0105182
-0.00390712
0.000395118
0.00264608
0.00566225
0.000574716
-0.00781084
-0.036902
-0.0633686
-0.0715848
-0.0677146
-0.0488642
-0.036706
-0.0166308
0.000318677
-0.125027
-0.128264
-0.126027
-0.121637
-0.117914
-0.115718
-0.114774
-0.114624
-0.114991
-0.115717
-0.116614
-0.117412
-0.117658
-0.116849
-0.114536
-0.110394
-0.104269
-0.0962224
-0.0865033
-0.0755043
-0.063683
-0.0515156
-0.0394165
-0.0277528
-0.0167658
-0.00662931
0.00250569
0.0105539
0.0174833
0.0230239
0.0263765
0.0274252
0.0267546
0.0247143
0.0198649
0.0107814
-0.00589132
-0.0323954
-0.0624839
-0.0810632
-0.0790497
-0.0644973
-0.045957
-0.0302209
-0.0168398
-0.00805824
-0.00181045
0.00235341
0.00451062
0.00745328
0.00241131
-0.00563255
-0.0344808
-0.0615808
-0.0698956
-0.0656362
-0.0468818
-0.0349673
-0.0158743
0.000323272
-0.116081
-0.120113
-0.11895
-0.11539
-0.112094
-0.110012
-0.108966
-0.10851
-0.108348
-0.108344
-0.108373
-0.108233
-0.107605
-0.106122
-0.103445
-0.099319
-0.093612
-0.0863423
-0.0776689
-0.0678735
-0.0573017
-0.046335
-0.0353192
-0.0245736
-0.0143299
-0.00476417
0.00397213
0.0117596
0.0185103
0.0240612
0.0277771
0.0294973
0.0297528
0.0289879
0.0256193
0.0177933
0.00221324
-0.0228257
-0.0508931
-0.0681254
-0.0667968
-0.0546129
-0.038797
-0.0252547
-0.0135282
-0.00563787
0.000188667
0.00423275
0.00626456
0.00908929
0.00419145
-0.00325971
-0.031312
-0.0586615
-0.0671492
-0.0626932
-0.0443984
-0.0328427
-0.0149528
0.000299526
-0.106817
-0.111387
-0.111133
-0.108367
-0.105539
-0.103633
-0.10256
-0.101919
-0.101417
-0.100918
-0.100333
-0.0995268
-0.0982824
-0.09634
-0.0934439
-0.089392
-0.0840669
-0.0774634
-0.0696842
-0.0609328
-0.0514687
-0.0415918
-0.0315855
-0.0217221
-0.0122159
-0.00324292
0.00504477
0.0125238
0.0190613
0.0245475
0.0285193
0.0307733
0.0318411
0.0322866
0.0305108
0.0240559
0.00952191
-0.0138502
-0.0392925
-0.0547583
-0.0542743
-0.0446955
-0.0316953
-0.0203223
-0.0102483
-0.0032736
0.00208287
0.00602488
0.00792594
0.0105745
0.00589713
-0.000787959
-0.0273695
-0.0544283
-0.0631983
-0.0588432
-0.0414183
-0.0303556
-0.0138529
0.000261552
-0.0975417
-0.102418
-0.102865
-0.100802
-0.0984406
-0.0967528
-0.0957213
-0.0949947
-0.0942912
-0.093478
-0.0924927
-0.0912515
-0.0896115
-0.0873865
-0.0843846
-0.0804481
-0.0754799
-0.0694655
-0.0624703
-0.0546387
-0.0461629
-0.0372751
-0.0282061
-0.0191861
-0.010408
-0.00204084
0.00576137
0.0128849
0.0191814
0.0245499
0.028602
0.0313001
0.0329813
0.0343187
0.0338299
0.0286529
0.0154544
-0.00569029
-0.0279428
-0.0413447
-0.0419715
-0.0350888
-0.0248582
-0.0155425
-0.00704781
-0.000978865
0.00387278
0.00772474
0.00951819
0.011934
0.00754304
0.00176192
-0.0226178
-0.0488053
-0.0579791
-0.054096
-0.0379765
-0.0275519
-0.012568
0.000226204
-0.0884824
-0.093421
-0.0943728
-0.0929091
-0.0909917
-0.0895453
-0.0886031
-0.0878636
-0.0870644
-0.0860801
-0.0848656
-0.0833721
-0.0815057
-0.0791361
-0.0761225
-0.0723457
-0.0677277
-0.0622503
-0.0559532
-0.0489383
-0.0413475
-0.0333601
-0.0251621
-0.0169464
-0.00888345
-0.00112879
0.00616481
0.0128924
0.018911
0.0241195
0.0281942
0.0311625
0.0332342
0.0350251
0.0352811
0.0311896
0.0197991
0.00156427
-0.0171878
-0.0287824
-0.0304783
-0.0261388
-0.018471
-0.0110265
-0.00397748
0.0012311
0.0055644
0.00932997
0.011069
0.0132149
0.00920471
0.00442296
-0.0171151
-0.0418756
-0.0515396
-0.048529
-0.0341436
-0.0245005
-0.0111019
0.000211441
-0.0797087
-0.0845529
-0.0858532
-0.0848843
-0.083368
-0.0821646
-0.0813403
-0.0806397
-0.0798251
-0.078778
-0.077463
-0.0758539
-0.0738927
-0.0714906
-0.0685464
-0.0649708
-0.0607023
-0.0557224
-0.0500553
-0.0437732
-0.0369813
-0.0298173
-0.0224297
-0.0149785
-0.00761268
-0.000471568
0.00629987
0.0126004
0.0182976
0.0232989
0.02734
0.0304397
0.0327175
0.0346198
0.0351437
0.0319343
0.0226501
0.00771046
-0.00762456
-0.0176473
-0.0203222
-0.0181281
-0.0126734
-0.00686325
-0.00108839
0.00333391
0.00716222
0.0108402
0.0126094
0.0144956
0.010991
0.00720972
-0.0110577
-0.0339129
-0.0440779
-0.0422998
-0.0300242
-0.0212916
-0.00947098
0.000234301
-0.0713055
-0.0759468
-0.0774617
-0.0768853
-0.0757184
-0.0747459
-0.0740535
-0.0734258
-0.0726531
-0.0716207
-0.0702993
-0.0686777
-0.0667229
-0.0643762
-0.0615654
-0.0582245
-0.0543061
-0.0497942
-0.0447039
-0.039087
-0.0330215
-0.026613
-0.0199796
-0.0132528
-0.00656147
-2.88951e-05
0.00621267
0.0120658
0.0174061
0.0221512
0.0260863
0.029209
0.0315576
0.0333862
0.0339255
0.0314231
0.0241639
0.0123905
0.000106189
-0.00852081
-0.0118235
-0.0112169
-0.00754599
-0.00311222
0.0015737
0.00530076
0.00866017
0.0122468
0.0141526
0.0158625
0.0129974
0.0101025
-0.0047669
-0.0253886
-0.0359561
-0.0356443
-0.0257484
-0.0180299
-0.00770938
0.000308268
-0.0633315
-0.0676889
-0.0693135
-0.0690419
-0.0681724
-0.0674112
-0.0668522
-0.0663109
-0.0656221
-0.0646581
-0.0633965
-0.0618365
-0.0599619
-0.0577349
-0.055105
-0.0520239
-0.0484564
-0.0443896
-0.0398334
-0.0348254
-0.0294239
-0.0237105
-0.0177787
-0.0117364
-0.00569325
0.000242722
0.00595249
0.0113443
0.0163046
0.0207517
0.024512
0.0275653
0.0298835
0.0315615
0.0320319
0.0300748
0.0245013
0.0154453
0.00576865
-0.00154881
-0.00502611
-0.00543646
-0.00311457
0.000196399
0.00397157
0.0071032
0.010044
0.0135247
0.0156599
0.0173607
0.0152581
0.0130519
0.00134714
-0.0169308
-0.0276743
-0.0288599
-0.0214587
-0.014824
-0.00587691
0.000437571
-0.0558077
-0.059842
-0.0615015
-0.0614609
-0.0608394
-0.060267
-0.0598411
-0.0594073
-0.0588087
-0.0579398
-0.056779
-0.0553293
-0.053585
-0.0515225
-0.0491065
-0.0463025
-0.0430843
-0.0394424
-0.0353838
-0.0309367
-0.026145
-0.0210724
-0.0157929
-0.0103946
-0.00497026
0.000386264
0.00556983
0.0104939
0.0150564
0.0191765
0.0227095
0.0256204
0.027834
0.0293436
0.0297386
0.0282005
0.0239533
0.0171002
0.00959902
0.00352286
0.000230847
-0.00072706
0.000633138
0.00305613
0.00607873
0.00871505
0.011298
0.0146406
0.0170241
0.0189215
0.0176719
0.0159285
0.00683109
-0.00920203
-0.0197747
-0.0222633
-0.0172951
-0.0117725
-0.00405921
0.000610202
-0.0487684
-0.0524564
-0.0540912
-0.0542182
-0.0537987
-0.0533901
-0.0530903
-0.0527769
-0.0522638
-0.0515027
-0.0504662
-0.0491573
-0.0475753
-0.0457059
-0.0435245
-0.0410063
-0.0381322
-0.0348956
-0.0313021
-0.0273733
-0.0231433
-0.0186617
-0.0139876
-0.00919295
-0.00435539
0.00044337
0.00511289
0.00957204
0.0137275
0.017502
0.0207732
0.0234908
0.0255569
0.0269109
0.0272581
0.0260684
0.0228611
0.0177431
0.0120222
0.00710501
0.00419264
0.00301862
0.00373278
0.00547579
0.00788271
0.0101138
0.012401
0.0155622
0.0181157
0.0203414
0.0199136
0.0184212
0.0112387
-0.00270168
-0.0126954
-0.0161368
-0.0133818
-0.00895594
-0.00235734
0.00079716
-0.042226
-0.0455531
-0.0471188
-0.0473622
-0.0471031
-0.0468288
-0.04663
-0.0463985
-0.0460015
-0.045367
-0.0444727
-0.0433229
-0.0419215
-0.0402605
-0.0383232
-0.0360917
-0.0335523
-0.0307007
-0.0275418
-0.0240928
-0.0203802
-0.0164435
-0.0123299
-0.00809834
-0.00381351
0.000453988
0.00462706
0.00863031
0.0123799
0.0158031
0.0187929
0.02129
0.0231915
0.0244169
0.0247545
0.0238745
0.0214958
0.0177291
0.0134342
0.00955563
0.00710166
0.00592462
0.00623399
0.00747378
0.00938384
0.0112838
0.01332
0.0162413
0.0188457
0.0213769
0.0215175
0.0200976
0.0142502
0.00235462
-0.00669903
-0.0107019
-0.00981733
-0.00643706
-0.000877183
0.000960861
-0.0361629
-0.0391363
-0.0406078
-0.0409293
-0.0407967
-0.0406334
-0.0405232
-0.0403741
-0.0400767
-0.0395652
-0.0388157
-0.0378305
-0.0366156
-0.0351675
-0.0334746
-0.031524
-0.0293058
-0.0268176
-0.0240635
-0.0210577
-0.0178212
-0.0143858
-0.0107893
-0.00708036
-0.00331223
0.000453984
0.00415238
0.00771534
0.0110691
0.0141452
0.0168489
0.019118
0.0208549
0.0219806
0.0223418
0.0217439
0.0200318
0.0173104
0.0141408
0.0111694
0.00917657
0.00811707
0.00819495
0.00907624
0.0105905
0.012213
0.0140233
0.0166276
0.0191241
0.0218893
0.0221352
0.0207162
0.015843
0.00599156
-0.00191146
-0.00611309
-0.00666691
-0.0042581
0.000290482
0.00106692
-0.0305703
-0.0332087
-0.0345715
-0.0349411
-0.0349064
-0.0348329
-0.0347971
-0.0347228
-0.0345154
-0.0341182
-0.0335074
-0.0326833
-0.0316517
-0.0304122
-0.0289568
-0.0272756
-0.0253614
-0.0232129
-0.0208339
-0.0182362
-0.0154364
-0.0124606
-0.00933906
-0.00611211
-0.00282358
0.000473946
0.00372477
0.00686943
0.00984248
0.0125814
0.0150031
0.017054
0.0186362
0.0196863
0.0200925
0.0197468
0.0185678
0.0166543
0.0143696
0.0121641
0.0105984
0.00971372
0.00967903
0.010314
0.0115151
0.0128939
0.0144893
0.0167123
0.0188819
0.0205142
0.0217016
0.0203941
0.016292
0.00836946
0.00166022
-0.00244085
-0.00396955
-0.00243328
0.00110939
0.00109683
-0.025441
-0.0277631
-0.0290083
-0.0294031
-0.0294431
-0.0294415
-0.0294677
-0.0294576
-0.0293294
-0.0290356
-0.0285538
-0.0278818
-0.0270245
-0.0259831
-0.0247523
-0.0233244
-0.0216939
-0.01986
-0.0178261
-0.0156019
-0.0132009
-0.0106443
-0.00795669
-0.00517134
-0.00232452
0.000539558
0.00337382
0.00612608
0.00873952
0.0111599
0.0133231
0.0151564
0.0165961
0.0175872
0.0180463
0.0179193
0.0171638
0.015873
0.0142777
0.0126958
0.0115122
0.0108203
0.0107504
0.0112205
0.0121743
0.0133337
0.0147171
0.0165483
0.0183942
0.0197889
0.0206708
0.0194562
0.0159872
0.00973254
0.00413561
0.000344473
-0.00174165
-0.000963286
0.00160958
0.00105717
-0.0207515
-0.0227807
-0.0239071
-0.0243111
-0.024408
-0.0244636
-0.0245397
-0.0245839
-0.0245275
-0.0243224
-0.0239555
-0.0234227
-0.0227268
-0.0218693
-0.0208466
-0.0196529
-0.0182834
-0.0167376
-0.0150184
-0.0131337
-0.0110946
-0.00891825
-0.00662454
-0.004241
-0.00179705
0.000669823
0.0031198
0.00550852
0.00778755
0.00990868
0.0118161
0.0134568
0.0147694
0.0157118
0.016222
0.0162778
0.0158553
0.0150381
0.0139741
0.0128887
0.0120355
0.0115303
0.0114704
0.0118317
0.0125914
0.0135501
0.0147232
0.0161829
0.0176937
0.018772
0.0193176
0.0181964
0.0152649
0.0103584
0.00572279
0.00235413
2.8101e-05
0.000171826
0.00186152
0.000975282
-0.0164771
-0.018241
-0.0192525
-0.0196548
-0.0197938
-0.0198941
-0.0200098
-0.0200979
-0.0200964
-0.0199689
-0.019705
-0.0192994
-0.018751
-0.0180609
-0.0172275
-0.0162464
-0.0151139
-0.013829
-0.012394
-0.0108155
-0.00910233
-0.00726845
-0.00532982
-0.00330893
-0.00122994
0.000875913
0.00297597
0.00503226
0.00700339
0.00884864
0.0105208
0.0119815
0.0131773
0.014074
0.0146235
0.014823
0.0146579
0.0141987
0.0135398
0.0128394
0.0122616
0.0119236
0.0118967
0.0121868
0.0127934
0.01357
0.0145377
0.0156617
0.0168416
0.0176011
0.0178514
0.0168166
0.0143508
0.010495
0.00664626
0.00372892
0.00137711
0.00101396
0.00195089
0.000883842
-0.0125971
-0.0141226
-0.0150253
-0.0154182
-0.0155878
-0.0157221
-0.0158677
-0.0159898
-0.0160373
-0.0159785
-0.0158009
-0.0155047
-0.015087
-0.0145471
-0.0138833
-0.0130928
-0.0121723
-0.011121
-0.00994031
-0.00863545
-0.00721344
-0.00568553
-0.00406452
-0.00236859
-0.000617343
0.00116357
0.00294727
0.00470266
0.00639505
0.007989
0.00944606
0.010742
0.011824
0.0126721
0.013246
0.0135517
0.0135772
0.0133836
0.0130321
0.0126205
0.0122643
0.0120679
0.0120821
0.0123252
0.0128096
0.0134244
0.0141967
0.0150305
0.0159048
0.0163814
0.0163995
0.0154431
0.013374
0.0103237
0.00709823
0.00449245
0.00236099
0.00162088
0.00195077
0.000802902
-0.00908772
-0.0104008
-0.0112023
-0.011581
-0.0117722
-0.0119323
-0.0121011
-0.0122504
-0.0123381
-0.0123342
-0.0122292
-0.0120271
-0.0117246
-0.0113177
-0.0108039
-0.0101816
-0.0094485
-0.00860367
-0.007648
-0.00658533
-0.00542113
-0.00416431
-0.00282508
-0.00141787
4.14399e-05
0.00153235
0.00303305
0.00451743
0.00595813
0.00732736
0.00859039
0.00972387
0.010696
0.0114929
0.0120769
0.0124542
0.012616
0.0126118
0.0124677
0.0122818
0.0121024
0.0120211
0.0120753
0.0122854
0.0126703
0.0131443
0.0137388
0.0143273
0.0149068
0.0151776
0.0150309
0.0141471
0.0124031
0.00996994
0.00726118
0.00506176
0.00306746
0.00205529
0.00191301
0.000740404
-0.00592397
-0.00704996
-0.00775941
-0.00812137
-0.00832755
-0.00850688
-0.00869285
-0.00886277
-0.00898215
-0.0090271
-0.00898808
-0.00886195
-0.00865449
-0.0083616
-0.00797869
-0.00750322
-0.0069336
-0.00626919
-0.00551042
-0.00465995
-0.00372188
-0.00270314
-0.00161172
-0.000458958
0.000742624
0.0019767
0.00322567
0.00446911
0.00568459
0.00684938
0.00793698
0.00892657
0.00979348
0.0105236
0.0110992
0.0115182
0.011772
0.0118993
0.0119088
0.0118746
0.0118265
0.0118323
0.0119191
0.0121036
0.0124073
0.012762
0.0131997
0.0135925
0.0139555
0.014041
0.0137779
0.0129601
0.011477
0.00951614
0.00723655
0.00534813
0.00353407
0.00235868
0.00186467
0.000693096
-0.00308265
-0.00404536
-0.00467212
-0.00501608
-0.00523204
-0.00542515
-0.00562331
-0.00580856
-0.00595264
-0.00603598
-0.00604992
-0.00599264
-0.00586429
-0.00566706
-0.00539639
-0.00504793
-0.00461971
-0.00411129
-0.00352296
-0.00285649
-0.00211486
-0.00130327
-0.000427895
0.00050255
0.00147833
0.00248672
0.00351389
0.00454367
0.00555809
0.00653948
0.00746715
0.00832514
0.00909137
0.00975731
0.0103004
0.0107322
0.0110398
0.0112481
0.0113626
0.0114326
0.0114767
0.0115433
0.0116519
0.0118141
0.0120509
0.0123071
0.0126105
0.0128479
0.0130367
0.0129886
0.0126479
0.0118914
0.010617
0.00901265
0.00709201
0.00543811
0.00381288
0.00256449
0.00181832
0.000657661
-0.000541405
-0.00136261
-0.00191592
-0.00224169
-0.00246352
-0.00266621
-0.00287271
-0.00306886
-0.00323196
-0.00334584
-0.00340327
-0.00340236
-0.00334302
-0.00322459
-0.00304698
-0.00280626
-0.00249919
-0.00212456
-0.00168235
-0.00117386
-0.000601232
3.17545e-05
0.000720465
0.00145831
0.00223787
0.00304944
0.00388225
0.00472377
0.00556
0.00637726
0.00715902
0.00789289
0.00856122
0.00915684
0.00966428
0.0100866