/*--------------------------------*- C++ -*----------------------------------*\
| =========                 |                                                 |
| \\      /  F ield         | OpenFOAM: The Open Source CFD Toolbox           |
|  \\    /   O peration     | Version:  2512                                  |
|   \\  /    A nd           | Website:  www.openfoam.com                      |
|    \\/     M anipulation  |                                                 |
\*---------------------------------------------------------------------------*/
FoamFile
{
    version     2.0;
    format      ascii;
    arch        "LSB;label=32;scalar=64";
    class       volScalarField;
    location    "168.5";
    object      p;
}
// * * * * * * * * * * * * * * * * * * * * * * * * * * * * * * * * * * * * * //

dimensions      [0 2 -2 0 0 0 0];

internalField   nonuniform List<scalar> 
13248
(
-0.372557
-0.370823
-0.367804
-0.363829
-0.359288
-0.354585
-0.350103
-0.346177
-0.343054
-0.340864
-0.339606
-0.339138
-0.339199
-0.339428
-0.339416
-0.338752
-0.337069
-0.334088
-0.32962
-0.323613
-0.315919
-0.306738
-0.294853
-0.281186
-0.381187
-0.378681
-0.375084
-0.370687
-0.365833
-0.360886
-0.356166
-0.35191
-0.34826
-0.345238
-0.342743
-0.340572
-0.338442
-0.336041
-0.333064
-0.329259
-0.324448
-0.318534
-0.311487
-0.303311
-0.294001
-0.283578
-0.271761
-0.259425
-0.392144
-0.388583
-0.384214
-0.379273
-0.374007
-0.368712
-0.363604
-0.358796
-0.354299
-0.350031
-0.345836
-0.341513
-0.336852
-0.331669
-0.32583
-0.319261
-0.311943
-0.303896
-0.295151
-0.285745
-0.275662
-0.264975
-0.253483
-0.241829
-0.405305
-0.400457
-0.395154
-0.389543
-0.383726
-0.377893
-0.372124
-0.366385
-0.360572
-0.354549
-0.348182
-0.341365
-0.334035
-0.326176
-0.317815
-0.309006
-0.299805
-0.290264
-0.280416
-0.270276
-0.259849
-0.249179
-0.238168
-0.227418
-0.420536
-0.414237
-0.407881
-0.401479
-0.39493
-0.388276
-0.38144
-0.374259
-0.366577
-0.358296
-0.349401
-0.339948
-0.330042
-0.31981
-0.309376
-0.298837
-0.288257
-0.277671
-0.267085
-0.256495
-0.245891
-0.235287
-0.224626
-0.21428
-0.437689
-0.429842
-0.42236
-0.415044
-0.407518
-0.399638
-0.391188
-0.381952
-0.37183
-0.360872
-0.349251
-0.337199
-0.324951
-0.312705
-0.300605
-0.288731
-0.277117
-0.265762
-0.254645
-0.24374
-0.233023
-0.222482
-0.212087
-0.202069
-0.45653
-0.447102
-0.438448
-0.430061
-0.421209
-0.41156
-0.400839
-0.388908
-0.375855
-0.36196
-0.347595
-0.333122
-0.31883
-0.304915
-0.291482
-0.278566
-0.266157
-0.254219
-0.242707
-0.231577
-0.22079
-0.210314
-0.200132
-0.190327
-0.476654
-0.465676
-0.455808
-0.446117
-0.435461
-0.423385
-0.409704
-0.394517
-0.378207
-0.361305
-0.344329
-0.327692
-0.311659
-0.296368
-0.28186
-0.268115
-0.255081
-0.242693
-0.230886
-0.2196
-0.208783
-0.198392
-0.18841
-0.178808
-0.497425
-0.484991
-0.473844
-0.462511
-0.449463
-0.434262
-0.417009
-0.398187
-0.378512
-0.358714
-0.339372
-0.320862
-0.303371
-0.286953
-0.271579
-0.257177
-0.243658
-0.230934
-0.218923
-0.20755
-0.196751
-0.186478
-0.176695
-0.167296
-0.517946
-0.504203
-0.491659
-0.478247
-0.462162
-0.443209
-0.421968
-0.39938
-0.376453
-0.354016
-0.332616
-0.312529
-0.293839
-0.276509
-0.260447
-0.245536
-0.231659
-0.218706
-0.206578
-0.195188
-0.184462
-0.174342
-0.164767
-0.155595
-0.537087
-0.522201
-0.508074
-0.492069
-0.472335
-0.449167
-0.423763
-0.397508
-0.3716
-0.34686
-0.323727
-0.302348
-0.282696
-0.264654
-0.248073
-0.232801
-0.218694
-0.205625
-0.19348
-0.182159
-0.171577
-0.161664
-0.152321
-0.143423
-0.553589
-0.537758
-0.521829
-0.5027
-0.478771
-0.451072
-0.421487
-0.391777
-0.363214
-0.33652
-0.311976
-0.289588
-0.269219
-0.250679
-0.233771
-0.218309
-0.204127
-0.19108
-0.179041
-0.167899
-0.157564
-0.14795
-0.138932
-0.130445
-0.348519
-0.34986
-0.350626
-0.351136
-0.351744
-0.352629
-0.353898
-0.355616
-0.35782
-0.360541
-0.363811
-0.367671
-0.37216
-0.377319
-0.38317
-0.389714
-0.396912
-0.404677
-0.412858
-0.421235
-0.429501
-0.43726
-0.444037
-0.44947
-0.351999
-0.352414
-0.352616
-0.352772
-0.353124
-0.353853
-0.355088
-0.356916
-0.359399
-0.362592
-0.366555
-0.371355
-0.377062
-0.383739
-0.391428
-0.400138
-0.409823
-0.420367
-0.431577
-0.443155
-0.454678
-0.465633
-0.475334
-0.483178
-0.355278
-0.354801
-0.354431
-0.354191
-0.354216
-0.354691
-0.355764
-0.357544
-0.360115
-0.363551
-0.36793
-0.373334
-0.379846
-0.387539
-0.396459
-0.406609
-0.417927
-0.430272
-0.443399
-0.456948
-0.470433
-0.483241
-0.494583
-0.50348
-0.357916
-0.356675
-0.355763
-0.355089
-0.354703
-0.35479
-0.355525
-0.357043
-0.359449
-0.362835
-0.367288
-0.372898
-0.379747
-0.387905
-0.397407
-0.408243
-0.42033
-0.433498
-0.44747
-0.461844
-0.476077
-0.489483
-0.501384
-0.51006
-0.359669
-0.357872
-0.356492
-0.355363
-0.354477
-0.354033
-0.354235
-0.35525
-0.357212
-0.360232
-0.364408
-0.36983
-0.376573
-0.384694
-0.394212
-0.405093
-0.417233
-0.430437
-0.444403
-0.458726
-0.472696
-0.485616
-0.49724
-0.504639
-0.3605
-0.358402
-0.35666
-0.355074
-0.353622
-0.352521
-0.352012
-0.352302
-0.353564
-0.355937
-0.359532
-0.36444
-0.37073
-0.378442
-0.387573
-0.398064
-0.409784
-0.422507
-0.435824
-0.44929
-0.462562
-0.474275
-0.484797
-0.489938
-0.360576
-0.358439
-0.356451
-0.354431
-0.352379
-0.350541
-0.349201
-0.348615
-0.349
-0.350532
-0.353343
-0.357533
-0.363165
-0.370262
-0.378797
-0.388675
-0.399708
-0.411624
-0.424095
-0.436456
-0.448271
-0.458013
-0.466546
-0.468618
-0.36025
-0.358291
-0.356161
-0.353742
-0.351097
-0.34851
-0.346309
-0.344802
-0.344256
-0.344886
-0.346853
-0.350269
-0.355192
-0.361621
-0.369492
-0.378664
-0.388901
-0.399825
-0.410974
-0.421628
-0.431325
-0.438408
-0.443952
-0.442502
-0.360034
-0.358376
-0.356167
-0.35339
-0.3502
-0.346923
-0.343932
-0.341582
-0.340186
-0.339997
-0.341202
-0.343915
-0.348178
-0.353958
-0.36112
-0.369432
-0.378547
-0.387995
-0.397216
-0.405453
-0.412221
-0.416058
-0.417869
-0.412936
-0.360556
-0.359194
-0.356914
-0.353816
-0.350159
-0.346314
-0.342688
-0.339672
-0.337613
-0.336785
-0.33738
-0.339496
-0.343127
-0.348161
-0.354367
-0.3614
-0.368802
-0.376026
-0.382479
-0.387517
-0.390736
-0.391184
-0.389485
-0.381877
-0.362473
-0.361268
-0.358859
-0.355467
-0.351436
-0.347171
-0.3431
-0.339629
-0.337109
-0.335808
-0.335887
-0.33739
-0.340232
-0.3442
-0.348955
-0.354049
-0.358958
-0.363131
-0.366036
-0.367268
-0.366608
-0.363849
-0.359614
-0.351079
-0.366356
-0.365049
-0.3624
-0.358714
-0.354385
-0.349833
-0.345483
-0.341723
-0.338876
-0.337161
-0.336674
-0.337373
-0.339076
-0.341473
-0.344148
-0.346617
-0.348381
-0.348981
-0.348027
-0.345331
-0.340732
-0.334577
-0.327268
-0.318683
-0.454399
-0.455061
-0.448891
-0.435189
-0.413359
-0.383763
-0.34804
-0.308836
-0.269489
-0.233568
-0.204158
-0.183513
-0.173204
-0.173868
-0.184219
-0.199992
-0.214111
-0.218766
-0.209303
-0.186198
-0.155956
-0.126593
-0.103675
-0.0893468
-0.0832853
-0.084163
-0.0917417
-0.107691
-0.131699
-0.156377
-0.169202
-0.162141
-0.139448
-0.111868
-0.0885297
-0.0732074
-0.0650463
-0.0631068
-0.069174
-0.0822483
-0.0940098
-0.0947968
-0.0848532
-0.071063
-0.0597699
-0.0526353
-0.0511696
-0.0554815
-0.0607635
-0.0615658
-0.0554834
-0.0489304
-0.0416593
-0.0351413
-0.0322153
-0.0301421
-0.0279072
-0.0261228
-0.0181911
-0.00384512
-0.49102
-0.492674
-0.486305
-0.471197
-0.446551
-0.412712
-0.371491
-0.325962
-0.279975
-0.237383
-0.201385
-0.174202
-0.157142
-0.150895
-0.154894
-0.166054
-0.178324
-0.184286
-0.178518
-0.16111
-0.137077
-0.113342
-0.0951132
-0.0847046
-0.081997
-0.0858656
-0.096545
-0.116016
-0.143508
-0.170651
-0.183851
-0.174788
-0.148901
-0.117999
-0.0916363
-0.0736588
-0.0631764
-0.0589325
-0.0623287
-0.0727483
-0.0829157
-0.0840307
-0.0759396
-0.064992
-0.0566697
-0.0520344
-0.05309
-0.060047
-0.0670453
-0.0683156
-0.0604976
-0.0520919
-0.0428742
-0.0344143
-0.029983
-0.0263004
-0.0241318
-0.0224809
-0.0158171
-0.00345921
-0.51334
-0.516011
-0.509501
-0.493489
-0.467027
-0.4303
-0.385206
-0.335039
-0.283906
-0.235958
-0.194587
-0.161943
-0.139131
-0.12664
-0.124325
-0.130318
-0.139953
-0.146653
-0.144585
-0.132945
-0.115275
-0.0973957
-0.084125
-0.0778662
-0.0786181
-0.0854755
-0.0990989
-0.121658
-0.152049
-0.181317
-0.195118
-0.18469
-0.156322
-0.122688
-0.0937614
-0.0734616
-0.0608919
-0.054541
-0.0554003
-0.0632177
-0.0718267
-0.0731302
-0.0668721
-0.0586201
-0.0531743
-0.051048
-0.054721
-0.0644259
-0.0731989
-0.0749171
-0.0652949
-0.0549608
-0.0438783
-0.0336233
-0.0278048
-0.0225356
-0.0203744
-0.0188135
-0.0134303
-0.00307399
-0.520604
-0.523844
-0.517722
-0.501669
-0.474534
-0.436448
-0.389383
-0.336711
-0.282631
-0.231377
-0.186329
-0.14955
-0.122017
-0.104113
-0.0958362
-0.0962236
-0.10222
-0.108559
-0.109709
-0.103077
-0.0914927
-0.0793561
-0.0710218
-0.0688536
-0.0729029
-0.0824781
-0.0985958
-0.123628
-0.156408
-0.187669
-0.202449
-0.191502
-0.16149
-0.125817
-0.0948922
-0.0727013
-0.0583423
-0.0501419
-0.0486865
-0.0540362
-0.061107
-0.0624346
-0.0578768
-0.0520771
-0.0493362
-0.049644
-0.0559411
-0.0684362
-0.0790466
-0.0812241
-0.069797
-0.0574983
-0.0446491
-0.0327661
-0.0256999
-0.018881
-0.0166744
-0.0151571
-0.0110515
-0.00269416
-0.514327
-0.516959
-0.511491
-0.496392
-0.469744
-0.431854
-0.384925
-0.332222
-0.27773
-0.225494
-0.178719
-0.139337
-0.108221
-0.0857196
-0.0719783
-0.0666781
-0.0681152
-0.072583
-0.0753231
-0.0728256
-0.0667719
-0.0599046
-0.0561482
-0.0576986
-0.0646694
-0.076548
-0.0946179
-0.12151
-0.156171
-0.189247
-0.205456
-0.194986
-0.164333
-0.12741
-0.0951066
-0.0714863
-0.0556744
-0.0459119
-0.0424162
-0.045473
-0.0510606
-0.0522598
-0.0491542
-0.045487
-0.0451949
-0.0477787
-0.0566274
-0.0718977
-0.0843814
-0.0870605
-0.0739204
-0.0596725
-0.0451737
-0.0318414
-0.0236826
-0.0153671
-0.0130687
-0.0115458
-0.00870001
-0.00232432
-0.497048
-0.497803
-0.493025
-0.479479
-0.454253
-0.418043
-0.373262
-0.322851
-0.270354
-0.219408
-0.172885
-0.132535
-0.0991594
-0.0730782
-0.0545455
-0.043713
-0.0399809
-0.0412222
-0.0438374
-0.0439732
-0.0423484
-0.0398643
-0.0399919
-0.044676
-0.0540735
-0.0677882
-0.087259
-0.115343
-0.151308
-0.186025
-0.203986
-0.195006
-0.164807
-0.127524
-0.0944891
-0.0699081
-0.0529886
-0.0419573
-0.0367369
-0.0377265
-0.0419141
-0.0428685
-0.0408898
-0.0389741
-0.0407933
-0.0454289
-0.0566752
-0.0746328
-0.0889923
-0.0922543
-0.0775855
-0.0614607
-0.0454425
-0.0308433
-0.0217582
-0.0120194
-0.0095877
-0.00801114
-0.006391
-0.00196887
-0.471629
-0.469394
-0.465141
-0.453432
-0.430373
-0.397189
-0.356318
-0.310115
-0.261535
-0.213706
-0.169093
-0.129236
-0.0949147
-0.0664627
-0.0441563
-0.0283869
-0.0193399
-0.0162751
-0.0171083
-0.0190922
-0.0193622
-0.0201319
-0.0232579
-0.0303472
-0.0415666
-0.0565836
-0.0768932
-0.105514
-0.142185
-0.178263
-0.198337
-0.191658
-0.162949
-0.126238
-0.0931247
-0.0680387
-0.0503493
-0.0383354
-0.0316991
-0.030886
-0.0337877
-0.034437
-0.0332548
-0.0326641
-0.0361988
-0.0425986
-0.0560026
-0.0764844
-0.0926956
-0.0966449
-0.0807127
-0.0628451
-0.0454526
-0.0297685
-0.0199214
-0.00885442
-0.00625472
-0.00458057
-0.00413577
-0.00163227
-0.44038
-0.434577
-0.430913
-0.42117
-0.400846
-0.371816
-0.336178
-0.295505
-0.252115
-0.208606
-0.167048
-0.128802
-0.0946491
-0.0649998
-0.0401469
-0.0205083
-0.00662326
0.00126274
0.00389118
0.00319505
0.0016184
-0.00139704
-0.00660216
-0.0153112
-0.0276905
-0.0434695
-0.0641387
-0.092748
-0.129536
-0.166668
-0.189042
-0.185236
-0.15889
-0.123633
-0.0910776
-0.065923
-0.0477927
-0.0350732
-0.0273214
-0.0249729
-0.0267205
-0.0270488
-0.0263663
-0.0266836
-0.0314934
-0.0393231
-0.054569
-0.0773334
-0.0953422
-0.100095
-0.0832381
-0.0638178
-0.0452132
-0.028626
-0.0181778
-0.00588135
-0.00308511
-0.00127797
-0.0019419
-0.00131948
-0.405391
-0.396769
-0.394096
-0.386168
-0.368883
-0.344706
-0.314954
-0.280368
-0.242703
-0.204045
-0.166119
-0.13016
-0.0969817
-0.0671057
-0.0408857
-0.0186986
-0.00107599
0.0113281
0.0182301
0.0204059
0.0195952
0.0157482
0.00950151
-5.18746e-05
-0.0129498
-0.0289989
-0.0496544
-0.0779566
-0.114513
-0.152316
-0.17676
-0.176142
-0.152907
-0.119921
-0.0885403
-0.0637203
-0.0454464
-0.0322616
-0.0236531
-0.0200073
-0.0207238
-0.0207163
-0.0202863
-0.0211461
-0.0267779
-0.0356432
-0.0523521
-0.0771232
-0.0968317
-0.102502
-0.0851235
-0.0644011
-0.0447606
-0.0274391
-0.0165648
-0.00312601
-8.58126e-05
0.00187751
0.000186713
-0.0010361
-0.370002
-0.360585
-0.359061
-0.352309
-0.338006
-0.318768
-0.294782
-0.266126
-0.234087
-0.200263
-0.166073
-0.13267
-0.100925
-0.0714842
-0.0447882
-0.0211941
-0.00111106
0.0148285
0.0258782
0.0317558
0.0328698
0.0305342
0.0245741
0.0149637
0.00208057
-0.0138773
-0.0343271
-0.0621169
-0.09799
-0.136057
-0.16228
-0.164915
-0.145501
-0.115577
-0.0859705
-0.0618171
-0.0435965
-0.0300975
-0.0207922
-0.0159984
-0.015783
-0.0154679
-0.0150744
-0.016142
-0.0221169
-0.0316737
-0.0494298
-0.075806
-0.0971051
-0.103789
-0.0863421
-0.0646466
-0.0441458
-0.0262211
-0.0150894
-0.000647499
0.00273032
0.00486842
0.00224868
-0.000788915
-0.33823
-0.330547
-0.32947
-0.322931
-0.311315
-0.296574
-0.277784
-0.254623
-0.227922
-0.198788
-0.168334
-0.137612
-0.107541
-0.0788543
-0.0520442
-0.0275924
-0.00592105
0.0124992
0.0270766
0.0369998
0.0420483
0.0420275
0.0377263
0.029131
0.016964
0.00152357
-0.0185234
-0.0458821
-0.0814613
-0.119342
-0.146027
-0.152091
-0.136559
-0.110389
-0.08318
-0.0600307
-0.0420205
-0.0283669
-0.018528
-0.0126994
-0.0116179
-0.0111472
-0.0108245
-0.0119125
-0.0176477
-0.0273764
-0.0457124
-0.0735225
-0.0962337
-0.103833
-0.0867268
-0.0644856
-0.0432893
-0.0249034
-0.0136028
0.00158456
0.00533404
0.00766365
0.00424975
-0.000584227
-0.310851
-0.307651
-0.305016
-0.297088
-0.286968
-0.275229
-0.26034
-0.241739
-0.219763
-0.195068
-0.168452
-0.14077
-0.11287
-0.0855279
-0.0593933
-0.0350253
-0.0128901
0.00660468
0.0230024
0.0358388
0.0448376
0.0489193
0.0472177
0.0406113
0.0299185
0.0154977
-0.00374913
-0.0301257
-0.0643278
-0.100918
-0.127174
-0.134936
-0.123825
-0.101888
-0.0776184
-0.0561029
-0.0388594
-0.0256007
-0.0157616
-0.00934666
-0.00757587
-0.00701127
-0.00697225
-0.00817489
-0.013574
-0.0232701
-0.0415746
-0.0700966
-0.0940111
-0.102695
-0.0859424
-0.0635424
-0.0418422
-0.0232795
-0.0118656
0.0038847
0.00779784
0.0102903
0.00617129
-0.00043583
-0.284846
-0.293803
-0.288574
-0.27812
-0.267115
-0.255391
-0.241334
-0.224075
-0.203719
-0.180871
-0.156272
-0.130665
-0.104761
-0.0792183
-0.0546098
-0.0314263
-0.0101002
0.00901407
0.025575
0.0391772
0.049781
0.0552417
0.0560258
0.0518102
0.0430221
0.0300414
0.0115517
-0.0155345
-0.0523521
-0.091776
-0.119418
-0.126279
-0.113712
-0.0924714
-0.0698256
-0.0499768
-0.0340091
-0.0216198
-0.0122634
-0.00586075
-0.00376343
-0.00288667
-0.00261421
-0.00286798
-0.00792839
-0.0174588
-0.0360308
-0.0661758
-0.0922916
-0.102668
-0.0852714
-0.062013
-0.0399079
-0.0214352
-0.0100682
0.00631048
0.0104452
0.0129143
0.00801574
-0.000362429
-0.257698
-0.270188
-0.265818
-0.25448
-0.242832
-0.231455
-0.218624
-0.203115
-0.184844
-0.164369
-0.142362
-0.119422
-0.0960966
-0.0729153
-0.0503818
-0.0289533
-0.00902702
0.00907099
0.0250651
0.0386012
0.0486635
0.0559837
0.058576
0.0562538
0.0493403
0.0380042
0.0205574
-0.00657798
-0.0438342
-0.0823335
-0.107207
-0.11169
-0.0998058
-0.0809663
-0.0612374
-0.0437466
-0.0293826
-0.0180536
-0.0093158
-0.00304767
-0.000751215
0.000203337
0.000382829
0.00027013
-0.00405738
-0.0130147
-0.0313677
-0.062311
-0.0895136
-0.100445
-0.0831097
-0.0595497
-0.0375528
-0.0193538
-0.00818709
0.00835308
0.0122928
0.015188
0.00956818
-0.000281485
-0.232888
-0.245588
-0.242575
-0.231949
-0.220617
-0.209921
-0.198389
-0.18466
-0.168462
-0.150239
-0.130582
-0.11
-0.0889365
-0.0678384
-0.0471569
-0.0273165
-0.00869522
0.00838445
0.023639
0.0367507
0.0470657
0.0545353
0.0579186
0.0567132
0.0509947
0.0406895
0.0238948
-0.00250253
-0.0372622
-0.0711787
-0.0922078
-0.0956778
-0.0856218
-0.069808
-0.0530378
-0.0377954
-0.024939
-0.0145992
-0.00650141
-0.000452565
0.00198104
0.00301857
0.0031453
0.00309144
-0.00100826
-0.00972576
-0.0278034
-0.0584299
-0.085275
-0.0965961
-0.0799362
-0.0565242
-0.034893
-0.017107
-0.0062318
0.0102732
0.0140694
0.0172729
0.0109801
-0.000158509
-0.210486
-0.222062
-0.220179
-0.210883
-0.200353
-0.19036
-0.179896
-0.167681
-0.153312
-0.137097
-0.119551
-0.101124
-0.0821863
-0.063105
-0.0442634
-0.0260411
-0.00879235
0.00717257
0.0215631
0.0340449
0.0441179
0.0515048
0.0553409
0.0549497
0.0501736
0.0407762
0.0250193
0.000763824
-0.0297799
-0.0586479
-0.0762737
-0.0793565
-0.0715518
-0.0588005
-0.044911
-0.0319032
-0.0205686
-0.0112275
-0.00381573
0.00194055
0.00446447
0.00564606
0.00580126
0.00587033
0.00192745
-0.00664983
-0.0241426
-0.0536284
-0.079764
-0.0915264
-0.0757777
-0.0529357
-0.0319131
-0.0146929
-0.00418066
0.0120621
0.0157954
0.0191889
0.012324
4.3247e-06
-0.189326
-0.19999
-0.198966
-0.190989
-0.181447
-0.172244
-0.162774
-0.151936
-0.13926
-0.124924
-0.109354
-0.0929427
-0.0760066
-0.0588451
-0.0417822
-0.025157
-0.00930199
0.00548179
0.0189012
0.0306243
0.0402302
0.0473874
0.0514201
0.0516373
0.0477447
0.0394455
0.0254224
0.00437734
-0.0214216
-0.0454195
-0.06014
-0.0634306
-0.0580441
-0.0483008
-0.0371348
-0.0262418
-0.0163742
-0.00799367
-0.00127113
0.00413909
0.00670324
0.00805848
0.0082963
0.00851574
0.00488089
-0.00332149
-0.019738
-0.0477572
-0.0731012
-0.0850716
-0.0705546
-0.0487584
-0.0286358
-0.0121355
-0.0020472
0.013695
0.0173708
0.0209155
0.0136038
0.000203274
-0.169734
-0.179576
-0.179094
-0.172263
-0.163776
-0.155469
-0.146993
-0.137431
-0.126308
-0.113704
-0.0999567
-0.0854077
-0.0703317
-0.0549798
-0.0396262
-0.0245692
-0.010115
0.00344623
0.0158352
0.0267596
0.0357749
0.0425876
0.0466476
0.0473426
0.0443259
0.0372944
0.0253813
0.00792538
-0.0130721
-0.0325597
-0.0450102
-0.0488071
-0.045686
-0.0386205
-0.0298583
-0.0208799
-0.0123974
-0.0049312
0.00112233
0.00614851
0.00870361
0.0102397
0.0106387
0.0110202
0.00784583
0.000287598
-0.0147164
-0.0410171
-0.0652636
-0.0772404
-0.0642893
-0.0440148
-0.0251012
-0.00946842
0.000153745
0.0151516
0.0187642
0.0224124
0.0147823
0.000443758
-0.151926
-0.160721
-0.160574
-0.154768
-0.147338
-0.139971
-0.13247
-0.124084
-0.11437
-0.103344
-0.0912705
-0.0784407
-0.0650943
-0.0514448
-0.0377237
-0.0241894
-0.0111182
0.00121743
0.0125455
0.0225602
0.0309786
0.0373986
0.0414021
0.0424845
0.0403034
0.03459
0.0248747
0.0109328
-0.00565949
-0.021271
-0.0318935
-0.0361198
-0.0348047
-0.0299276
-0.023193
-0.015891
-0.00868517
-0.00207766
0.00335039
0.00797512
0.0104866
0.0121957
0.0128435
0.0133969
0.0107909
0.00402841
-0.00934253
-0.0335253
-0.0563529
-0.0682025
-0.0570859
-0.0387608
-0.0213614
-0.0067338
0.00240311
0.0164191
0.0199568
0.0236403
0.0158254
0.000739857
-0.135475
-0.143294
-0.143435
-0.138554
-0.132121
-0.125668
-0.119099
-0.111795
-0.103357
-0.0937663
-0.0832266
-0.0719818
-0.0602392
-0.0481815
-0.0360042
-0.0239294
-0.0122025
-0.00107392
0.00919863
0.0183352
0.0260703
0.0320622
0.0359541
0.0373406
0.0359233
0.0314972
0.0238634
0.0130179
0.000128525
-0.0122604
-0.021249
-0.0255745
-0.0255076
-0.0223021
-0.0172102
-0.0113286
-0.0052692
0.000539162
0.00539853
0.00962645
0.0120752
0.013938
0.0149145
0.0156759
0.0136951
0.00783478
-0.00370065
-0.0254275
-0.0466337
-0.0582279
-0.0491249
-0.0330929
-0.01748
-0.00397903
0.00467717
0.0174991
0.0209457
0.0245734
0.0167208
0.00111248
-0.120281
-0.127311
-0.127687
-0.123609
-0.118078
-0.11248
-0.106784
-0.100474
-0.0931948
-0.0849055
-0.0757641
-0.0659731
-0.0557097
-0.0451302
-0.0344001
-0.0237098
-0.0132744
-0.00331965
0.00591865
0.014189
0.0212383
0.0267834
0.0305257
0.0321449
0.0314027
0.0281477
0.0223211
0.0140326
0.00416221
-0.00552683
-0.0129793
-0.017076
-0.0177514
-0.0157451
-0.0119388
-0.00722871
-0.00217194
0.00289999
0.00724914
0.0111075
0.0134867
0.0154769
0.0168358
0.0178979
0.0165959
0.011756
0.00214678
-0.0170105
-0.0364966
-0.0476846
-0.0406589
-0.0271483
-0.0135293
-0.00125154
0.00694481
0.0184151
0.021754
0.0252074
0.0174784
0.00158937
-0.106478
-0.112732
-0.11325
-0.109862
-0.105147
-0.100338
-0.0954481
-0.090045
-0.0838127
-0.0766991
-0.0688256
-0.0603598
-0.0514524
-0.0422365
-0.0328523
-0.0234617
-0.0142509
-0.00541899
0.00282244
0.0102485
0.0166318
0.021731
0.0253015
0.0270918
0.0269158
0.0246627
0.0203502
0.0141431
0.00672627
-0.000684132
-0.00672894
-0.0103822
-0.0114079
-0.0102087
-0.00737734
-0.00361138
0.000592033
0.00499501
0.00888451
0.0124162
0.0147328
0.0168204
0.0185701
0.02009
0.0195549
0.0158367
0.00802699
-0.00869717
-0.0264188
-0.037038
-0.0320266
-0.0211056
-0.00958616
0.00140572
0.00916387
0.019218
0.0224364
0.0255635
0.0181279
0.00220511
-0.0939341
-0.0994234
-0.100034
-0.0972543
-0.0932748
-0.0891843
-0.085026
-0.0804408
-0.0751489
-0.069091
-0.0623601
-0.0550944
-0.0474213
-0.0394538
-0.0313095
-0.0231254
-0.0150606
-0.00728694
8.21173e-06
0.00662592
0.0123707
0.0170355
0.0204196
0.022325
0.0226091
0.0211974
0.0181394
0.0136147
0.00818023
0.00273751
-0.00211373
-0.0052153
-0.00631711
-0.00561886
-0.00350145
-0.000480561
0.00301469
0.00682178
0.010294
0.0135397
0.0158148
0.0179764
0.0200723
0.0222075
0.0225209
0.0199761
0.0136352
-0.000991386
-0.016912
-0.0267775
-0.0235952
-0.0151699
-0.00572978
0.00395521
0.0112792
0.0199775
0.0230701
0.0256927
0.018718
0.00299424
-0.0824629
-0.0873004
-0.0879918
-0.0857401
-0.0824098
-0.0789609
-0.0754579
-0.0716024
-0.0671479
-0.0620313
-0.0563227
-0.0501356
-0.0435773
-0.0367423
-0.0297294
-0.0226523
-0.0156465
-0.00886059
-0.00245259
0.00340647
0.00854739
0.0127929
0.0159801
0.0179544
0.018607
0.0178886
0.0158545
0.0126737
0.0088095
0.00518519
0.0011648
-0.0013251
-0.00231212
-0.00188589
-0.000270376
0.00217466
0.00509453
0.0083819
0.0114774
0.0144618
0.0167151
0.0189376
0.021299
0.0241366
0.0251832
0.023749
0.0184969
0.00564666
-0.0084
-0.0173158
-0.0156937
-0.00954875
-0.00204127
0.0063594
0.0132236
0.0207576
0.0237212
0.0256722
0.0193003
0.00396991
-0.0720565
-0.0763215
-0.0770582
-0.0752505
-0.0724855
-0.0696049
-0.0666836
-0.0634733
-0.0597582
-0.0554744
-0.0506736
-0.0454483
-0.0398881
-0.0340719
-0.0280811
-0.0220101
-0.0159713
-0.0100911
-0.00450482
0.000645758
0.00522072
0.00906829
0.0120534
0.0140565
0.0149946
0.0148318
0.0136201
0.0114809
0.00867069
0.00532687
0.00323652
0.00151615
0.000770026
0.0010875
0.00236771
0.0043773
0.00683774
0.00967937
0.0124397
0.0151761
0.0174062
0.0196579
0.022158
0.0258152
0.0270691
0.0264989
0.0220847
0.0109382
-0.00112312
-0.00897301
-0.00861088
-0.00443126
0.00139856
0.00857414
0.0149245
0.0215837
0.0244799
0.0255902
0.0198895
0.00508826
-0.0626914
-0.0663978
-0.0671358
-0.0657058
-0.0634377
-0.0610582
-0.0586482
-0.0560032
-0.0529352
-0.0493819
-0.0453803
-0.0410053
-0.0363307
-0.0314219
-0.0263456
-0.0211791
-0.0160145
-0.0109562
-0.00611979
-0.0016209
0.00242794
0.00589824
0.00867747
0.0106721
0.0118197
0.0120938
0.0115354
0.0102446
0.00842188
0.00633728
0.00475277
0.00357872
0.00309678
0.00340411
0.00447221
0.00615932
0.00825786
0.0107213
0.0131871
0.0156854
0.0178678
0.020086
0.0224369
0.0245045
0.0277018
0.0277956
0.0241374
0.0148059
0.00477441
-0.00198906
-0.00255782
4.7118e-05
0.00451366
0.0105487
0.0163143
0.0223967
0.025384
0.0255173
0.0204258
0.00621378
-0.0542085
-0.0574299
-0.0581585
-0.0570455
-0.0552078
-0.0532662
-0.0513009
-0.0491456
-0.0466385
-0.0437201
-0.0404158
-0.0367853
-0.0328895
-0.0287815
-0.0245153
-0.0201528
-0.0157695
-0.0114511
-0.0072915
-0.00338583
0.000179396
0.00329211
0.00586208
0.00781578
0.00910378
0.00970926
0.00966405
0.00904895
0.00802586
0.00679044
0.00575388
0.0050324
0.00480804
0.00516251
0.00610606
0.00755854
0.00937443
0.0115195
0.0137262
0.0159966
0.0180947
0.0202448
0.0225459
0.0248314
0.0274561
0.0277669
0.024808
0.0173204
0.00922577
0.00352139
0.0023724
0.00382327
0.00723964
0.0122375
0.0173473
0.0230212
0.0261902
0.0254626
0.0207716
0.00712985
-0.0465493
-0.0493541
-0.0500676
-0.0492164
-0.0477397
-0.0461726
-0.0445904
-0.0428559
-0.0408306
-0.0384591
-0.0357578
-0.0327736
-0.0295558
-0.0261475
-0.0225918
-0.0189374
-0.0152445
-0.011583
-0.00802951
-0.00466333
-0.00153885
0.00123653
0.00359458
0.00547828
0.00684753
0.0076908
0.00803591
0.00794671
0.00749899
0.00689287
0.00634959
0.00601285
0.00602513
0.00645497
0.00733264
0.00861616
0.0102116
0.0120902
0.0140662
0.01612
0.0180928
0.0201306
0.0223848
0.0244409
0.0265151
0.0268332
0.0244831
0.0186894
0.0123233
0.00763104
0.00621885
0.00689988
0.00952551
0.0136061
0.01802
0.0232442
0.0264065
0.0252911
0.0207319
0.00763602
-0.0396687
-0.0421005
-0.0427891
-0.0421501
-0.0409757
-0.039724
-0.0384677
-0.037092
-0.0354777
-0.0335734
-0.0313886
-0.0289599
-0.026327
-0.0235245
-0.0205858
-0.0175489
-0.0144611
-0.011376
-0.00835101
-0.00543678
-0.00274937
-0.000298848
0.0018451
0.00363341
0.00503178
0.00603098
0.00665876
0.00700351
0.00693552
0.00678463
0.00664696
0.00663133
0.00685124
0.00736521
0.00821327
0.009375
0.0107974
0.0124534
0.0142205
0.0160673
0.0178812
0.0197235
0.0214872
0.0235295
0.0251616
0.0254132
0.0235684
0.0192085
0.0143045
0.0105476
0.00910764
0.00932116
0.0113404
0.0146231
0.0183533
0.0229606
0.0259832
0.024746
0.0201044
0.00765982
-0.03349
-0.0355876
-0.0362428
-0.0357869
-0.034866
-0.0338741
-0.0328902
-0.0318158
-0.0305485
-0.0290397
-0.0272936
-0.0253386
-0.023206
-0.020923
-0.0185158
-0.0160136
-0.0134521
-0.0108738
-0.00832711
-0.00585909
-0.0035302
-0.00136692
0.000570507
0.00224367
0.00362512
0.00470014
0.00547049
0.00592945
0.00633343
0.00655631
0.00673995
0.00698161
0.00737471
0.00796818
0.00880567
0.00987806
0.0111622
0.0126312
0.0142083
0.0158594
0.0175014
0.0191586
0.0207487
0.0223911
0.0236279
0.023804
0.0223743
0.0191638
0.0154484
0.0125128
0.0111893
0.0111458
0.0126807
0.0152725
0.0183512
0.0221575
0.024809
0.0235908
0.0188086
0.00727015
-0.027941
-0.0297484
-0.0303672
-0.0300598
-0.0293616
-0.0286001
-0.0278334
-0.0269967
-0.0260182
-0.0248399
-0.0234626
-0.0219073
-0.0201985
-0.0183572
-0.0164036
-0.0143595
-0.0122519
-0.0101137
-0.00798514
-0.00590686
-0.00392465
-0.00201327
-0.000276299
0.00126731
0.00259854
0.00370408
0.004593
0.00528143
0.00584502
0.00629829
0.0067097
0.0071433
0.00767091
0.00833019
0.00916364
0.0101673
0.0113371
0.0126476
0.0140537
0.0155213
0.0169845
0.018452
0.0198347
0.0211424
0.0220622
0.0221819
0.0210907
0.0187701
0.0159966
0.0137449
0.012606
0.0124359
0.0135735
0.0155591
0.0180301
0.0209323
0.0230258
0.021811
0.01697
0.00659889
-0.0229696
-0.0245245
-0.0251038
-0.0249145
-0.0243972
-0.0238263
-0.023259
-0.0226377
-0.0218796
-0.0209634
-0.0198889
-0.0186667
-0.0173133
-0.0158438
-0.0142734
-0.0126181
-0.0108981
-0.00913658
-0.00736082
-0.0055974
-0.00386443
-0.00225663
-0.000738541
0.000659107
0.00191334
0.0030148
0.00395531
0.0047547
0.00544245
0.00604659
0.00661157
0.00717909
0.0078025
0.00850897
0.00933647
0.0102825
0.0113542
0.012529
0.0137804
0.0150777
0.0163673
0.0176449
0.0188187
0.0198632
0.0205476
0.0206366
0.0198182
0.0181693
0.0161284
0.0144261
0.0134843
0.0132589
0.0140665
0.0155167
0.0174275
0.0194448
0.0208752
0.0196058
0.0148546
0.0057822
-0.0185241
-0.0198573
-0.0203945
-0.0202977
-0.0199267
-0.0195099
-0.0190974
-0.0186425
-0.0180861
-0.0173971
-0.0165699
-0.0156191
-0.0145588
-0.0134
-0.0121518
-0.0108253
-0.00943469
-0.00799717
-0.00653365
-0.00506514
-0.00361617
-0.00221593
-0.000878997
0.000375221
0.00153162
0.00258473
0.00352991
0.00437394
0.0051325
0.00582622
0.00648554
0.00713748
0.00782077
0.00855378
0.00936826
0.0102618
0.0112461
0.0123017
0.0134134
0.014555
0.0156817
0.0167808
0.0177654
0.0186075
0.0191253
0.0192043
0.0186053
0.0174508
0.0159697
0.0146975
0.0139344
0.013685
0.0142189
0.0152014
0.0165945
0.0178413
0.0185965
0.0172376
0.0127264
0.00493543
-0.014552
-0.0156925
-0.0161877
-0.016163
-0.0159106
-0.0156193
-0.0153327
-0.0150143
-0.0146153
-0.0141081
-0.0134883
-0.0127641
-0.0119462
-0.0110432
-0.010063
-0.00901321
-0.0079016
-0.00674008
-0.00554467
-0.00433189
-0.00311993
-0.00192603
-0.000766089
0.000346071
0.00139752
0.00238157
0.00329403
0.00413745
0.00491999
0.00565429
0.00636049
0.00705556
0.00776691
0.00850592
0.00929772
0.0101395
0.0110432
0.0119923
0.0129783
0.013979
0.0149565
0.0158966
0.01672
0.0174074
0.0178117
0.0178936
0.0174698
0.0166715
0.0156074
0.0146633
0.0140489
0.0137845
0.0140918
0.0146776
0.0156003
0.0162242
0.0163698
0.0149148
0.0107582
0.00413928
-0.0110088
-0.0119829
-0.0124372
-0.0124679
-0.0123107
-0.0121205
-0.0119352
-0.0117259
-0.0114528
-0.0110922
-0.0106394
-0.0100998
-0.00948092
-0.00878893
-0.00802875
-0.00720542
-0.0063273
-0.00540193
-0.00443655
-0.00344445
-0.00243935
-0.00143319
-0.000438892
0.000532321
0.00147006
0.00236845
0.00322305
0.00403373
0.00480401
0.00554065
0.00625633
0.00696097
0.00767317
0.00839939
0.00915823
0.00994619
0.0107737
0.0116268
0.0124997
0.0133744
0.0142191
0.0150212
0.0157116
0.0162807
0.0166092
0.0166989
0.0164112
0.015866
0.0151074
0.0144035
0.0139007
0.0136215
0.0137445
0.0140066
0.0145113
0.0146575
0.0143082
0.0127701
0.00902879
0.00343707
-0.0078552
-0.00868538
-0.00910025
-0.00917252
-0.00909096
-0.00898165
-0.00887674
-0.00875388
-0.00858059
-0.00833694
-0.00801804
-0.00762735
-0.00717024
-0.00665088
-0.00607238
-0.00543777
-0.00475179
-0.00402021
-0.00325117
-0.00244984
-0.00162631
-0.000789266
5.1338e-05
0.000886945
0.001709
0.00251221
0.00329226
0.00404763
0.00477905
0.00548936
0.0061858
0.00687349
0.00756445
0.00826151
0.00897761
0.00970878
0.0104627
0.0112283
0.0119996
0.0127626
0.013491
0.0141754
0.0147576
0.0152349
0.015512
0.0156097
0.0154242
0.0150543
0.0145138
0.01398
0.0135518
0.013243
0.0132317
0.01324
0.013386
0.0131804
0.0124685
0.0108727
0.00755582
0.00284329
-0.00505431
-0.00576054
-0.00613792
-0.00624075
-0.00621865
-0.00617327
-0.0061316
-0.00607639
-0.00598145
-0.00583016
-0.00561776
-0.00534633
-0.00501958
-0.00464024
-0.00421013
-0.00373081
-0.00320489
-0.00263613
-0.00202972
-0.00139115
-0.000725542
-3.90904e-05
0.000661187
0.00136885
0.00207699
0.00278091
0.00347658
0.00416194
0.00483613
0.00549951
0.00615564
0.00680638
0.0074589
0.00811355
0.0087785
0.00944985
0.0101319
0.0108158
0.0114961
0.012161
0.0127888
0.0133731
0.0138668
0.014271
0.0145118