/*--------------------------------*- C++ -*----------------------------------*\
| =========                 |                                                 |
| \\      /  F ield         | OpenFOAM: The Open Source CFD Toolbox           |
|  \\    /   O peration     | Version:  2512                                  |
|   \\  /    A nd           | Website:  www.openfoam.com                      |
|    \\/     M anipulation  |                                                 |
\*---------------------------------------------------------------------------*/
FoamFile
{
    version     2.0;
    format      ascii;
    arch        "LSB;label=32;scalar=64";
    class       volVectorField;
    location    "64.5";
    object      U;
}
// * * * * * * * * * * * * * * * * * * * * * * * * * * * * * * * * * * * * * //

dimensions      [0 1 -1 0 0 0 0];

internalField   nonuniform List<vector> 
13248
(
(-0.0116448 0.010791 6.58294e-20)
(-0.0205819 0.0212832 0)
(-0.0166405 0.0250435 -1.24795e-19)
(-0.00080777 0.0245027 1.1756e-19)
(0.0263722 0.0215209 1.10319e-19)
(0.0645618 0.0175097 0)
(0.113458 0.0135124 0)
(0.17263 0.0102914 2.65369e-19)
(0.241362 0.00839261 -2.0963e-21)
(0.318527 0.00817823 -2.30335e-19)
(0.402526 0.00984184 2.10635e-19)
(0.491311 0.0134143 -1.31455e-19)
(0.582482 0.0187715 0)
(0.673447 0.0256505 -2.16398e-19)
(0.761617 0.0336765 4.00537e-19)
(0.844597 0.042399 -9.46013e-20)
(0.920357 0.0513369 -1.62724e-19)
(0.987357 0.0600067 1.52758e-19)
(1.04463 0.0680248 0)
(1.09174 0.0748866 0)
(1.12908 0.0808128 0)
(1.15647 0.0842424 0)
(1.17728 0.0884765 4.41228e-20)
(1.18774 0.0856111 1.58628e-19)
(-0.0112901 0.00945507 -1.98934e-19)
(-0.0162591 0.0174941 1.35813e-19)
(-0.00489936 0.019783 -1.04812e-21)
(0.0213777 0.0186296 -1.797e-19)
(0.061713 0.0158794 -1.10198e-19)
(0.11542 0.01298 -1.04173e-19)
(0.181679 0.010988 -1.91228e-19)
(0.259309 0.0106335 1.80671e-19)
(0.346591 0.0123641 0)
(0.44119 0.0163627 1.36849e-21)
(0.540206 0.0225608 2.93756e-21)
(0.640355 0.0306631 1.31414e-19)
(0.738236 0.0401905 0)
(0.830631 0.0505416 0)
(0.914779 0.0610648 1.45846e-19)
(0.988593 0.0711305 -2.73756e-19)
(1.05078 0.0801957 1.60085e-19)
(1.10088 0.0878473 -1.5029e-19)
(1.13921 0.0938346 -6.56963e-20)
(1.16678 0.0980308 -1.17272e-19)
(1.18489 0.100591 -4.85559e-20)
(1.19565 0.101213 -9.06254e-20)
(1.20022 0.101677 1.33958e-19)
(1.2008 0.0976741 3.86618e-20)
(-0.00990979 0.00761485 0)
(-0.00852174 0.0125416 0)
(0.0129221 0.0132351 6.35883e-20)
(0.0524936 0.0118202 5.86682e-20)
(0.10885 0.010076 -1.37527e-21)
(0.180661 0.00942285 -1.07205e-19)
(0.266156 0.0108257 0)
(0.362873 0.0148261 -8.97027e-20)
(0.467565 0.0215718 8.3745e-20)
(0.576297 0.030843 3.90326e-22)
(0.684746 0.0421039 -1.41417e-19)
(0.788615 0.0545908 -1.27925e-19)
(0.884072 0.0674261 3.46766e-21)
(0.96812 0.0797406 -1.02578e-19)
(1.03883 0.090782 2.4844e-19)
(1.09543 0.0999946 0)
(1.13822 0.10706 -1.56849e-19)
(1.16841 0.111895 7.60739e-20)
(1.18786 0.114634 6.56356e-20)
(1.19874 0.115508 0)
(1.20335 0.115003 5.31067e-20)
(1.20368 0.113092 -1.84209e-19)
(1.20129 0.11133 1.72921e-19)
(1.19858 0.10656 1.09954e-19)
(-0.00721802 0.00538487 -7.04054e-20)
(0.00344037 0.00686225 -7.27494e-20)
(0.0380597 0.00623988 6.58602e-20)
(0.0940026 0.0053458 0)
(0.169121 0.0057899 0)
(0.260953 0.00883134 -1.99677e-21)
(0.366181 0.0151439 0)
(0.480482 0.0248239 -2.72391e-19)
(0.598704 0.0374466 2.5234e-19)
(0.715309 0.0521632 -3.10638e-19)
(0.825001 0.0678537 7.06914e-20)
(0.923334 0.0833171 0)
(1.00718 0.0974583 1.15433e-19)
(1.07494 0.109434 -2.1292e-19)
(1.12653 0.118739 5.05011e-20)
(1.16318 0.125215 1.27196e-19)
(1.187 0.129011 -6.69249e-21)
(1.20061 0.130493 -1.41754e-19)
(1.20671 0.130143 0)
(1.20777 0.128452 0)
(1.20578 0.125932 -4.99163e-20)
(1.20218 0.122679 4.47405e-20)
(1.19801 0.119894 1.59849e-19)
(1.19383 0.114724 -1.50053e-19)
(-0.002873 0.0029016 -7.41191e-20)
(0.0204666 0.000995028 -7.38107e-20)
(0.0716195 -0.000187546 2.07657e-19)
(0.146922 0.000688241 -1.25974e-19)
(0.242912 0.00487064 1.18579e-19)
(0.355342 0.0132152 2.15293e-19)
(0.478702 0.0257943 -1.51899e-19)
(0.606429 0.0419342 -1.83824e-19)
(0.731559 0.0603899 4.28722e-21)
(0.847621 0.079597 2.34533e-19)
(0.94947 0.0979654 0)
(1.03386 0.114149 6.38473e-20)
(1.09961 0.12723 0)
(1.14742 0.136791 -1.02628e-19)
(1.17943 0.14288 1.44008e-19)
(1.19859 0.145896 1.07892e-21)
(1.20814 0.146437 -3.74563e-20)
(1.21109 0.145158 6.92094e-20)
(1.20991 0.142658 6.00498e-20)
(1.20645 0.139411 -5.37404e-20)
(1.20194 0.135777 4.99042e-20)
(1.19709 0.131845 -4.47294e-20)
(1.19221 0.128312 0)
(1.18786 0.122997 -3.44659e-20)
(0.00349364 0.000351304 7.41086e-20)
(0.0433208 -0.00438368 7.76879e-20)
(0.114368 -0.00485943 -6.95474e-20)
(0.211493 -0.000543595 1.29389e-19)
(0.329249 0.00913067 -1.21786e-19)
(0.460897 0.0242438 1.09902e-19)
(0.598317 0.0438809 -5.27538e-20)
(0.732859 0.0663162 1.38121e-19)
(0.856589 0.0894216 -8.67475e-20)
(0.963449 0.111113 1.52694e-19)
(1.04996 0.12973 -3.51724e-19)
(1.11532 0.144262 1.2904e-19)
(1.161 0.154395 -1.11928e-19)
(1.19002 0.160396 1.05131e-19)
(1.20608 0.16292 8.99863e-20)
(1.21293 0.162788 7.84248e-20)
(1.21378 0.160805 -2.18546e-19)
(1.2111 0.157645 1.35314e-19)
(1.20661 0.153805 -6.00516e-20)
(1.20137 0.149613 1.56746e-19)
(1.19598 0.14527 -5.0586e-20)
(1.19073 0.140834 -1.23517e-19)
(1.18575 0.136681 1.14071e-19)
(1.1812 0.131281 3.44542e-20)
(0.0122268 -0.00200377 0)
(0.072554 -0.00844091 6.0743e-22)
(0.166509 -0.00645789 1.45089e-19)
(0.286908 0.00324225 -1.3613e-19)
(0.425593 0.0200823 -1.22532e-19)
(0.572838 0.0429047 2.27589e-19)
(0.718049 0.0694687 -1.05623e-19)
(0.851426 0.0969345 1.40363e-19)
(0.965592 0.122555 -3.23155e-21)
(1.05653 0.144225 -7.93319e-20)
(1.12366 0.160769 1.72172e-19)
(1.16911 0.171948 -2.53858e-19)
(1.19674 0.17825 0)
(1.211 0.180589 -4.94822e-20)
(1.21608 0.18001 -1.31464e-19)
(1.21544 0.17747 4.14722e-20)
(1.21161 0.173728 1.68727e-21)
(1.20625 0.169314 -8.98366e-20)
(1.20034 0.164567 5.83214e-21)
(1.19442 0.159683 1.0383e-19)
(1.18874 0.154768 -4.61259e-20)
(1.18339 0.149874 -1.7733e-20)
(1.17837 0.145144 5.43768e-20)
(1.17373 0.139653 0)
(0.0235872 -0.00381778 0)
(0.108357 -0.0102062 3.93572e-20)
(0.227495 -0.00361905 -1.89344e-19)
(0.371178 0.0134476 6.87329e-20)
(0.527973 0.0387042 -6.46896e-20)
(0.685199 0.0693228 -5.89946e-20)
(0.830721 0.101631 -1.04115e-19)
(0.955228 0.131973 5.20633e-20)
(1.05364 0.157568 4.51675e-20)
(1.12523 0.176917 0)
(1.17265 0.18978 1.02258e-19)
(1.20055 0.196846 -1.51855e-19)
(1.21413 0.199303 1.12917e-19)
(1.21818 0.198449 4.95071e-20)
(1.21647 0.195424 -4.03913e-20)
(1.21169 0.191102 -3.35086e-20)
(1.20553 0.186077 -3.11972e-20)
(1.19897 0.180716 9.38096e-20)
(1.19251 0.175229 0)
(1.18639 0.169729 4.6957e-20)
(1.18066 0.164273 3.94888e-20)
(1.17533 0.158898 -9.80542e-20)
(1.17032 0.153606 -6.72655e-20)
(1.16563 0.148007 6.21376e-20)
(0.0376939 -0.00467048 -4.25513e-20)
(0.150437 -0.00863057 -1.59393e-21)
(0.295925 0.00493588 3.85142e-20)
(0.461209 0.0310961 1.07448e-19)
(0.63147 0.0652862 3.11528e-20)
(0.791873 0.102792 -6.02765e-20)
(0.930412 0.13879 5.503e-20)
(1.04013 0.16946 -4.81778e-20)
(1.11957 0.192696 8.62222e-20)
(1.17162 0.208101 3.659e-20)
(1.20166 0.216521 -1.03898e-19)
(1.21577 0.219445 3.05182e-20)
(1.21946 0.218476 5.18824e-20)
(1.21702 0.215003 -2.55758e-20)
(1.21142 0.210064 0)
(1.20449 0.204352 3.77934e-20)
(1.19724 0.198286 6.37135e-20)
(1.19019 0.192101 1.07405e-20)
(1.18356 0.185919 -5.30068e-20)
(1.17741 0.179805 2.20973e-20)
(1.17172 0.173792 0)
(1.16643 0.16789 -1.73396e-20)
(1.16146 0.162055 -1.64714e-20)
(1.15674 0.15628 0)
(0.0544678 -0.00409723 0)
(0.197934 -0.00268818 2.22996e-20)
(0.369556 0.0202413 4.11758e-20)
(0.553096 0.0566796 -1.09558e-19)
(0.730937 0.099409 3.54032e-20)
(0.887661 0.142008 0)
(1.01337 0.179182 5.3038e-20)
(1.10497 0.207759 -7.40291e-20)
(1.16504 0.226895 -4.30578e-20)
(1.19961 0.237488 1.94351e-20)
(1.21573 0.241346 -3.08959e-20)
(1.21989 0.240464 7.51258e-20)
(1.2171 0.236567 3.74061e-20)
(1.21081 0.230938 -2.61359e-20)
(1.2031 0.224419 -2.56966e-21)
(1.19512 0.217512 -7.06733e-20)
(1.18742 0.210491 3.21332e-20)
(1.18022 0.203496 -8.50286e-22)
(1.17359 0.196599 0)
(1.16751 0.189837 -2.21204e-20)
(1.16191 0.183228 0)
(1.15672 0.176756 4.99042e-20)
(1.15183 0.170397 -5.9357e-20)
(1.14713 0.164359 2.70459e-20)
(0.0735912 -0.0016307 -1.16386e-20)
(0.249403 0.00851011 -5.60823e-20)
(0.445447 0.0429471 6.37886e-20)
(0.642574 0.0900862 3.74075e-20)
(0.821718 0.14006 -1.78697e-20)
(0.96891 0.185381 2.99663e-20)
(1.0781 0.22121 -1.45604e-20)
(1.15071 0.245758 2.41791e-20)
(1.19305 0.259734 0)
(1.21324 0.265247 5.45104e-20)
(1.21901 0.264779 -2.3414e-21)
(1.21641 0.260525 -4.38208e-20)
(1.20963 0.254123 1.86802e-20)
(1.20118 0.246643 -2.09669e-20)
(1.19242 0.238717 -7.87448e-21)
(1.184 0.230681 9.22351e-21)
(1.17617 0.222706 -7.03601e-21)
(1.169 0.214872 -3.81776e-20)
(1.16248 0.207222 2.33663e-20)
(1.15654 0.199775 4.74654e-21)
(1.1511 0.192531 4.16987e-21)
(1.14605 0.185462 3.66617e-21)
(1.14129 0.178607 0)
(1.13665 0.172196 0)
(0.0945627 0.0031637 1.16466e-20)
(0.303003 0.0256261 -1.163e-20)
(0.520379 0.0732242 -2.12481e-20)
(0.725657 0.13062 0)
(0.900262 0.185832 -8.87159e-21)
(1.03367 0.231323 -7.98485e-21)
(1.12475 0.263636 -1.36433e-20)
(1.17936 0.28283 0)
(1.2066 0.291172 0)
(1.2157 0.291712 0)
(1.21417 0.287285 0)
(1.20725 0.280051 0)
(1.19816 0.271434 -1.16933e-20)
(1.18862 0.262267 5.31524e-21)
(1.17943 0.25299 9.20421e-21)
(1.17093 0.243819 4.30391e-21)
(1.16318 0.234851 1.05646e-20)
(1.15619 0.22613 0)
(1.14989 0.217679 -2.50342e-21)
(1.14419 0.209504 -2.40374e-21)
(1.139 0.20159 -4.17651e-21)
(1.1342 0.19391 -3.67203e-21)
(1.12964 0.18658 0)
(1.12517 0.179682 2.60724e-21)
(-0.000554832 -0.0199045 7.56601e-21)
(-0.00447265 -0.047778 -7.85532e-21)
(-0.012747 -0.0669544 -1.48744e-20)
(-0.0233715 -0.0793522 0)
(-0.0351744 -0.086685 -1.9939e-20)
(-0.0475144 -0.0904464 6.28651e-21)
(-0.0599388 -0.0918413 -1.17858e-20)
(-0.0721358 -0.0917554 0)
(-0.0839121 -0.0907655 0)
(-0.095156 -0.0891812 0)
(-0.105806 -0.0871024 0)
(-0.115828 -0.0844826 0)
(-0.125198 -0.0811847 1.09607e-22)
(-0.133894 -0.0770246 -7.77869e-21)
(-0.141885 -0.0718011 1.43853e-20)
(-0.149133 -0.0653154 2.03427e-20)
(-0.155592 -0.057383 6.16704e-21)
(-0.161208 -0.0478411 0)
(-0.165936 -0.0365559 5.64683e-21)
(-0.169749 -0.0234271 -1.55639e-20)
(-0.17258 -0.00837737 -9.55407e-21)
(-0.174443 0.00863604 -8.8802e-21)
(-0.175517 0.0276579 0)
(-0.17647 0.0487766 0)
(0.000184201 -0.0159057 -2.26355e-20)
(-0.00302991 -0.038346 3.91255e-20)
(-0.0113114 -0.0539918 -1.46074e-20)
(-0.0222828 -0.0642066 -2.79312e-20)
(-0.0345573 -0.0703252 3.95506e-20)
(-0.047375 -0.0735639 -2.48389e-20)
(-0.0602101 -0.0749135 3.51462e-20)
(-0.072709 -0.0751003 2.1883e-20)
(-0.0846589 -0.0745896 0)
(-0.0959414 -0.0736186 -1.96228e-20)
(-0.106494 -0.0722465 2.49739e-23)
(-0.116282 -0.0704088 1.73708e-20)
(-0.125283 -0.0679669 2.40889e-20)
(-0.13347 -0.0647451 3.01387e-20)
(-0.140809 -0.0605557 -1.44867e-20)
(-0.147256 -0.055214 -3.99341e-20)
(-0.152758 -0.048545 1.19613e-20)
(-0.157257 -0.0403854 -4.55086e-20)
(-0.160698 -0.0305815 0)
(-0.163027 -0.0189871 1.02498e-20)
(-0.164224 -0.00547122 9.54176e-21)
(-0.164211 0.0100581 8.86854e-21)
(-0.162969 0.0278058 0)
(-0.161829 0.0479329 0)
(0.000415657 -0.0115373 0)
(-0.00259741 -0.0281936 7.7201e-20)
(-0.0109111 -0.0402255 -2.9158e-20)
(-0.0219626 -0.0483374 2.77514e-20)
(-0.034252 -0.0534089 -7.79983e-20)
(-0.046954 -0.0563275 0)
(-0.0595013 -0.0578391 -4.62056e-20)
(-0.0715164 -0.0584957 2.15965e-20)
(-0.0827742 -0.0586477 -4.06117e-20)
(-0.0931509 -0.0584637 1.87732e-20)
(-0.102581 -0.0579687 1.07398e-19)
(-0.111029 -0.0570879 -5.04091e-20)
(-0.118467 -0.0556871 -7.8627e-20)
(-0.124866 -0.0536036 -2.86216e-20)
(-0.130186 -0.0506664 4.66047e-22)
(-0.134375 -0.0467075 1.01801e-19)
(-0.137371 -0.0415644 -4.75489e-20)
(-0.139095 -0.0350782 9.6823e-22)
(-0.139469 -0.0270857 0)
(-0.138437 -0.0174118 -3.63859e-20)
(-0.135961 -0.00588493 0)
(-0.13185 0.0077408 -3.19198e-20)
(-0.125799 0.0237744 1.15942e-19)
(-0.119494 0.0424801 -9.54038e-22)
(0.000120334 -0.00707528 0)
(-0.00321409 -0.0179103 -1.45714e-22)
(-0.0116013 -0.026396 2.89731e-20)
(-0.0224802 -0.0325434 -2.73524e-20)
(-0.0343439 -0.0367426 2.58867e-20)
(-0.0463583 -0.039527 1.45916e-19)
(-0.0579496 -0.0413825 -4.57986e-20)
(-0.0687357 -0.0426801 -4.28861e-20)
(-0.0784884 -0.0436544 8.07993e-20)
(-0.0870809 -0.0444078 -1.13535e-19)
(-0.0944454 -0.0449352 3.52911e-20)
(-0.100542 -0.0451548 3.2837e-20)
(-0.105342 -0.0449398 0)
(-0.108809 -0.0441426 2.9005e-20)
(-0.110902 -0.0426104 0)
(-0.111566 -0.0401943 4.86892e-20)
(-0.110732 -0.0367517 -9.0302e-20)
(-0.108317 -0.0321431 2.31098e-20)
(-0.104223 -0.0262228 7.8021e-20)
(-0.098381 -0.0188251 3.63521e-20)
(-0.0907381 -0.00971293 0)
(-0.081083 0.00146398 -8.85376e-20)
(-0.0687101 0.0152589 2.85224e-20)
(-0.0547129 0.0324114 0)
(-0.000672802 -0.00276715 0)
(-0.00482225 -0.00802545 -9.18027e-20)
(-0.0133237 -0.013166 -2.90981e-20)
(-0.0237867 -0.0175345 -5.46284e-20)
(-0.0347959 -0.0210365 5.14408e-20)
(-0.0455638 -0.0238496 -4.8552e-20)
(-0.0555439 -0.0261985 9.09653e-20)
(-0.064369 -0.0282738 4.26301e-20)
(-0.0718166 -0.0301952 -1.20424e-19)
(-0.07776 -0.0320007 7.46955e-20)
(-0.082128 -0.0336553 -1.0503e-19)
(-0.0848767 -0.0350702 2.27372e-19)
(-0.0859709 -0.0361253 -1.21921e-19)
(-0.0853736 -0.0366861 5.58856e-20)
(-0.0830402 -0.0366158 1.54873e-19)
(-0.0789174 -0.0357837 -5.0473e-20)
(-0.0729419 -0.0340688 -4.56246e-20)
(-0.0650377 -0.0313585 -4.20407e-20)
(-0.0551126 -0.0275434 0)
(-0.0430573 -0.0224987 -6.64482e-20)
(-0.028826 -0.0160445 -5.82006e-20)
(-0.0123467 -0.00785373 8.59965e-20)
(0.00740392 0.00301271 9.98159e-20)
(0.0307832 0.0182017 -9.26915e-20)
(-0.00189395 0.00118438 0)
(-0.00727378 0.00101884 -1.22477e-19)
(-0.0158985 -0.00109495 -2.19913e-22)
(-0.025685 -0.00391215 1.0906e-19)
(-0.0353918 -0.00688986 0)
(-0.0443256 -0.00986745 0)
(-0.0519971 -0.0128193 0)
(-0.0580702 -0.0157613 -4.24047e-20)
(-0.062334 -0.0187011 4.2172e-22)
(-0.064661 -0.0216118 7.47337e-20)
(-0.0649722 -0.0244262 -1.03753e-19)
(-0.063214 -0.0270454 5.32773e-22)
(-0.0593422 -0.0293524 0)
(-0.0533128 -0.0312191 -5.58632e-20)
(-0.0450785 -0.0325172 4.97605e-20)
(-0.0345891 -0.0331259 -1.41989e-19)
(-0.0217927 -0.0329353 1.7174e-19)
(-0.00663412 -0.0318505 3.54736e-20)
(0.0109478 -0.0297923 -4.64544e-21)
(0.0310179 -0.0266972 -1.32618e-19)
(0.0536052 -0.0225142 -5.81261e-20)
(0.0787643 -0.0170625 1.83354e-19)
(0.107309 -0.00942933 -1.1998e-19)
(0.14243 0.00276522 0)
(-0.0034416 0.00462413 5.94582e-20)
(-0.010339 0.0088721 6.12437e-20)
(-0.0190196 0.00936462 -5.82245e-20)
(-0.0278043 0.00783314 -1.09469e-19)
(-0.0356858 0.0052114 1.03079e-19)
(-0.0420999 0.00196598 -9.67711e-20)
(-0.0466348 -0.00164673 1.36595e-19)
(-0.0489939 -0.00547866 -4.22462e-20)
(-0.0489771 -0.00942878 7.98847e-20)
(-0.0464496 -0.0134033 0)
(-0.0413149 -0.0172986 6.83319e-20)
(-0.0335003 -0.0210021 -1.29152e-19)
(-0.0229445 -0.0243874 1.1815e-19)
(-0.00958942 -0.0273221 -1.10971e-19)
(0.00661344 -0.0296765 0)
(0.0257029 -0.0313273 9.30927e-20)
(0.0477044 -0.0321622 1.67038e-19)
(0.0726265 -0.0320861 -1.57297e-19)
(0.100461 -0.0310258 -6.98853e-20)
(0.131183 -0.0289389 -6.15538e-20)
(0.164708 -0.0258285 1.7516e-19)
(0.201125 -0.0216958 4.84404e-20)
(0.239212 -0.0163429 -4.76404e-20)
(0.291126 -0.0065834 4.07098e-20)
(-0.00519084 0.0074413 -5.94663e-20)
(-0.0137161 0.01527 1.85969e-19)
(-0.022253 0.0178612 -5.84718e-20)
(-0.0295827 0.0173156 1.10082e-19)
(-0.0349677 0.0148878 -1.03655e-19)
(-0.037991 0.0113087 4.7513e-22)
(-0.038326 0.00703927 4.5869e-20)
(-0.0357138 0.00237764 1.70666e-19)
(-0.0299571 -0.00247058 -1.15846e-21)
(-0.0209026 -0.0073431 -7.4922e-20)
(-0.00843068 -0.0120967 0)
(0.00755769 -0.0165885 -6.3217e-20)
(0.0271418 -0.0206703 1.19742e-19)
(0.0503719 -0.0241985 1.08445e-19)
(0.0772674 -0.0270319 -5.15179e-20)
(0.107808 -0.0290368 -2.3255e-22)
(0.141928 -0.0300926 -4.23071e-20)
(0.17951 -0.0300984 7.64427e-20)
(0.220383 -0.0289798 6.98682e-20)
(0.264351 -0.0266877 -6.31507e-20)
(0.310895 -0.0232895 5.63431e-20)
(0.361156 -0.0185178 -5.0555e-20)
(0.407877 -0.013659 0)
(0.480562 -0.00359109 -4.06498e-20)
(-0.00699957 0.00956331 6.04322e-20)
(-0.0170393 0.0200234 -6.21758e-20)
(-0.0250416 0.0241325 5.93199e-20)
(-0.0302674 0.024242 0)
(-0.0322589 0.0218536 0)
(-0.0307482 0.0179161 9.8521e-20)
(-0.0254894 0.0130658 -9.2011e-20)
(-0.0162538 0.00773457 8.54872e-20)
(-0.00284139 0.00222657 -4.00935e-19)
(0.0149171 -0.00322681 6.41391e-22)
(0.0371582 -0.00842876 6.95205e-20)
(0.0639765 -0.0131954 0)
(0.0954086 -0.0173565 -1.17755e-19)
(0.13142 -0.0207491 2.18911e-19)
(0.171894 -0.0232202 -1.52036e-19)
(0.216618 -0.024633 -2.27528e-19)
(0.265281 -0.0248733 5.14303e-21)
(0.317476 -0.023857 1.54828e-19)
(0.372694 -0.0215447 0)
(0.430515 -0.0178644 0)
(0.489394 -0.0131912 -5.63338e-20)
(0.552852 -0.00635431 5.05458e-20)
(0.604855 -0.000951462 -1.76825e-19)
(0.694366 0.0116373 1.65944e-19)
(-0.0087143 0.0109516 0)
(-0.0198877 0.0230117 0)
(-0.0267145 0.0280009 -1.78638e-19)
(-0.028925 0.0284124 5.67243e-20)
(-0.0263316 0.0259231 3.4587e-22)
(-0.0188046 0.021654 9.99217e-20)
(-0.00617162 0.0163861 0)
(0.0117641 0.010668 -8.67802e-20)
(0.0351891 0.00489603 8.04221e-20)
(0.0642514 -0.000624922 -1.49588e-19)
(0.0990298 -0.00564146 8.53223e-22)
(0.139503 -0.00993499 1.27954e-19)
(0.185521 -0.0133122 -2.22171e-21)
(0.236782 -0.0156037 1.06032e-19)
(0.292818 -0.0166697 -1.53296e-19)
(0.353005 -0.016407 0)
(0.416569 -0.0147566 1.64964e-19)
(0.482622 -0.0117072 -2.31042e-19)
(0.550151 -0.00732964 6.88869e-20)
(0.618439 -0.00155978 0)
(0.685018 0.00481358 5.61976e-20)
(0.754712 0.013682 1.98635e-19)
(0.807513 0.0197341 -1.86412e-19)
(0.898483 0.0341907 -2.04594e-19)
(-0.0101745 0.0115991 1.86623e-19)
(-0.0217908 0.0241845 -2.57192e-19)
(-0.0264959 0.0293873 2.75509e-22)
(-0.0244605 0.0297512 5.73761e-20)
(-0.0157455 0.0270627 -1.07284e-19)
(-0.000349955 0.0225734 -9.93892e-20)
(0.0218184 0.0171807 1.86045e-19)
(0.0508905 0.0115324 -2.09178e-21)
(0.0869676 0.00610771 -1.6314e-19)
(0.130056 0.00127623 3.00959e-19)
(0.180004 -0.00266769 -2.27897e-21)
(0.236456 -0.00548808 -1.30533e-19)
(0.298813 -0.00700239 0)
(0.366226 -0.00708448 0)
(0.437614 -0.00567075 -5.03103e-20)
(0.511704 -0.00276587 -9.17867e-20)
(0.587094 0.00155574 -1.64731e-19)
(0.662332 0.00715045 1.54628e-19)
(0.735966 0.0138015 -6.89092e-20)
(0.80683 0.0213571 1.22172e-19)
(0.872908 0.0291052 -6.06225e-20)
(0.936905 0.038275 9.59146e-20)
(0.985163 0.0444809 -2.32943e-19)
(1.05777 0.0575951 4.11267e-20)
(-0.0112101 0.0115274 6.30483e-20)
(-0.0222211 0.0235697 0)
(-0.0234921 0.0283427 1.22773e-19)
(-0.015605 0.0283638 -1.15659e-19)
(0.00114733 0.0254757 1.07379e-19)
(0.0266308 0.0210241 0)
(0.0608086 0.0159935 0)
(0.103643 0.0111067 -8.73376e-20)
(0.154981 0.00690148 1.8417e-21)
(0.214449 0.0037794 7.70697e-20)
(0.281371 0.0020322 -6.93046e-20)
(0.354722 0.00185142 1.31037e-19)
(0.433128 0.00332905 0)
(0.514914 0.00645587 2.16967e-19)
(0.59819 0.0111227 -4.01996e-19)
(0.68097 0.0171271 2.77991e-19)
(0.761302 0.024191 1.64116e-19)
(0.837375 0.0319646 -1.54057e-19)
(0.907671 0.0401155 0)
(0.970907 0.0481573 0)
(1.02642 0.0559547 0)
(1.07399 0.062946 0)
(1.11109 0.0685636 4.58516e-20)
(1.15265 0.0760303 -1.65277e-19)
(-0.178568 0.0753425 -5.5728e-21)
(-0.179613 0.109542 5.59314e-21)
(-0.178699 0.147062 -1.58305e-22)
(-0.175901 0.186869 0)
(-0.170805 0.227697 -4.76997e-21)
(-0.163013 0.267962 9.16445e-21)
(-0.152141 0.305687 -1.00198e-22)
(-0.137735 0.338455 -4.18111e-21)
(-0.119196 0.363494 0)
(-0.095795 0.377726 0)
(-0.0667503 0.377972 -2.38318e-22)
(-0.0313253 0.361082 -2.39935e-22)
(0.0109245 0.324442 -4.08676e-21)
(0.0596409 0.266442 3.73478e-21)
(0.113615 0.187382 0)
(0.171244 0.089406 0)
(0.230237 -0.0229195 3.67675e-21)
(0.28914 -0.143065 -1.80574e-22)
(0.346663 -0.261368 -3.08979e-21)
(0.400163 -0.36562 -1.77669e-22)
(0.445581 -0.444481 0)
(0.479009 -0.492502 0)
(0.497393 -0.51319 0)
(0.496097 -0.519542 0)
(0.470453 -0.526883 0)
(0.426216 -0.535431 0)
(0.386134 -0.519538 4.5542e-22)
(0.377296 -0.444211 -7.04133e-22)
(0.407824 -0.298058 0)
(0.466297 -0.103794 0)
(0.53717 0.0974401 -6.47511e-22)
(0.606175 0.267 6.29283e-22)
(0.660886 0.384622 2.31439e-22)
(0.698158 0.447379 0)
(0.721656 0.466165 0)
(0.72303 0.472924 2.87472e-22)
(0.689882 0.494591 -2.79445e-22)
(0.635315 0.508523 0)
(0.596232 0.451036 3.80784e-22)
(0.599202 0.290087 -5.82601e-22)
(0.63782 0.0639298 2.22121e-22)
(0.687612 -0.153568 0)
(0.731498 -0.308554 -2.88388e-22)
(0.768319 -0.384399 2.8042e-22)
(0.781608 -0.413793 0)
(0.755934 -0.439807 0)
(0.698973 -0.447125 -8.36317e-23)
(0.649312 -0.387277 2.40766e-22)
(0.631973 -0.227964 0)
(0.651519 -0.0290687 0)
(0.692847 0.150193 -7.63967e-23)
(0.734023 0.258976 5.31674e-24)
(0.743006 0.326526 -9.32364e-24)
(0.71515 0.365156 4.4329e-23)
(0.66788 0.332203 0)
(0.659766 0.255347 0)
(0.679471 0.0741608 0)
(0.710914 -0.025586 0)
(0.765436 -0.148595 0)
(0.78 -0.163349 0)
(-0.163836 0.0734792 -4.87253e-22)
(-0.16336 0.105632 -2.00226e-20)
(-0.160322 0.140936 4.70054e-22)
(-0.154947 0.178321 1.83605e-20)
(-0.146547 0.216426 2.64891e-22)
(-0.134474 0.253805 0)
(-0.11824 0.28858 -1.60701e-20)
(-0.0973211 0.318156 3.17794e-20)
(-0.071155 0.339707 -1.57121e-20)
(-0.0391239 0.350354 1.56918e-20)
(-0.000803564 0.346885 -1.50132e-20)
(0.0438317 0.326295 1.59613e-20)
(0.0944599 0.286365 -1.55224e-20)
(0.15009 0.225902 -5.33174e-22)
(0.209017 0.145601 -1.70884e-20)
(0.269414 0.0476961 1.66057e-20)
(0.329286 -0.0640984 -1.60866e-20)
(0.387477 -0.183164 1.51377e-20)
(0.442562 -0.299514 -1.31848e-20)
(0.491205 -0.399666 2.36763e-20)
(0.528822 -0.471558 -1.05799e-20)
(0.552069 -0.510313 -4.85086e-22)
(0.560304 -0.519732 -5.52271e-21)
(0.552238 -0.512185 9.8985e-21)
(0.522608 -0.505461 -4.40387e-21)
(0.470563 -0.507684 2.18075e-22)
(0.412479 -0.500089 4.08942e-21)
(0.378287 -0.444387 6.76955e-22)
(0.386576 -0.317787 -9.05367e-21)
(0.431403 -0.135951 9.5313e-21)
(0.496495 0.0610448 -4.74037e-21)
(0.565514 0.234218 4.9134e-22)
(0.625134 0.359879 -2.31927e-22)
(0.67146 0.431133 3.48423e-22)
(0.703349 0.459676 0)
(0.708563 0.479064 0)
(0.677909 0.511175 -1.25682e-21)
(0.62991 0.525736 8.85106e-22)
(0.602123 0.45833 1.28606e-21)
(0.615837 0.284576 4.22718e-22)
(0.661948 0.0501701 -2.02164e-21)
(0.714363 -0.168791 4.37948e-22)
(0.754235 -0.321681 0)
(0.784116 -0.3924 0)
(0.793866 -0.412001 0)
(0.766875 -0.427843 0)
(0.707736 -0.431841 2.78397e-22)
(0.654674 -0.377477 -1.59573e-22)
(0.631513 -0.22802 0)
(0.648563 -0.0375009 0)
(0.689076 0.139182 0)
(0.730033 0.252633 -1.10349e-22)
(0.734903 0.328815 1.65254e-23)
(0.705524 0.373407 -9.62169e-23)
(0.661448 0.33789 0)
(0.656058 0.254185 0)
(0.685585 0.0686078 7.36582e-23)
(0.715758 -0.034151 2.01453e-22)
(0.772222 -0.155223 0)
(0.789878 -0.165411 0)
(-0.118714 0.0666797 -4.2726e-22)
(-0.116225 0.0965779 -3.72313e-20)
(-0.110357 0.129506 3.55771e-20)
(-0.101993 0.164573 -3.33007e-20)
(-0.0901964 0.199592 -2.66704e-22)
(-0.0739504 0.233815 0)
(-0.0529672 0.265245 -3.1409e-20)
(-0.026907 0.291437 3.07598e-20)
(0.00511529 0.309829 2.41604e-22)
(0.0434663 0.317486 4.82318e-22)
(0.0879894 0.311241 4.98625e-22)
(0.138362 0.288352 5.05765e-22)
(0.193828 0.246953 -3.52153e-20)
(0.25303 0.186164 3.47572e-20)
(0.314127 0.106698 0)
(0.375063 0.0104329 1.14253e-21)
(0.43439 -0.0991439 -3.43054e-20)
(0.491187 -0.215912 3.3829e-20)
(0.543189 -0.329349 0)
(0.586064 -0.424822 0)
(0.614883 -0.489754 -1.88803e-20)
(0.627072 -0.520251 3.2878e-20)
(0.62381 -0.521151 -2.47132e-20)
(0.607475 -0.503318 2.28271e-21)
(0.574936 -0.483605 1.53568e-20)
(0.520262 -0.476163 -1.37093e-20)
(0.450789 -0.472253 1.25239e-20)
(0.394172 -0.435506 4.11322e-22)
(0.378535 -0.332267 -6.95119e-21)
(0.406745 -0.166843 0)
(0.463326 0.0233143 0)
(0.530371 0.198294 2.53188e-21)
(0.593902 0.330852 -3.34632e-21)
(0.648193 0.410902 -3.26499e-23)
(0.686962 0.450729 2.42409e-21)
(0.695552 0.483639 -2.35581e-21)
(0.66843 0.525692 0)
(0.628337 0.540353 3.38009e-22)
(0.611941 0.463836 4.08648e-21)
(0.635621 0.278833 -8.61039e-21)
(0.688548 0.0379862 3.90898e-21)
(0.743536 -0.181398 4.94882e-22)
(0.779625 -0.331715 -3.30884e-21)
(0.801888 -0.398407 2.49524e-21)
(0.807607 -0.409548 4.01311e-22)
(0.779576 -0.415575 3.04904e-22)
(0.718556 -0.416346 -2.79091e-22)
(0.662833 -0.367604 0)
(0.634792 -0.228299 0)
(0.649544 -0.0464442 -1.02208e-21)
(0.688123 0.127866 5.15141e-22)
(0.727648 0.24662 -4.52376e-22)
(0.72794 0.331566 6.47783e-22)
(0.697295 0.381498 8.06488e-22)
(0.656745 0.343098 -1.85777e-22)
(0.654521 0.252029 3.89508e-22)
(0.693467 0.0624223 -3.54242e-22)
(0.723378 -0.0426513 1.89382e-22)
(0.780142 -0.162152 0)
(0.799838 -0.167732 0)
(-0.0494077 0.0553761 -7.06551e-20)
(-0.0450519 0.0830931 2.19731e-21)
(-0.0359854 0.113293 6.48386e-20)
(-0.0249536 0.144813 -5.15232e-22)
(-0.0106393 0.176795 0)
(0.00898015 0.208047 0)
(0.033574 0.236339 -6.04139e-20)
(0.0636064 0.259602 -2.78138e-21)
(0.0996485 0.275402 9.03923e-20)
(0.14178 0.28071 1.50219e-21)
(0.189773 0.272713 -3.17442e-20)
(0.243055 0.248986 -3.40433e-20)
(0.300605 0.207807 3.41075e-20)
(0.360945 0.148399 0)
(0.422198 0.0712429 -3.80707e-20)
(0.482743 -0.0221146 3.46552e-20)
(0.541341 -0.128383 0)
(0.596624 -0.242151 0)
(0.645408 -0.352077 2.85164e-20)
(0.681968 -0.442426 -4.09059e-21)
(0.70122 -0.500332 -2.22978e-20)
(0.701965 -0.523069 -1.48177e-20)
(0.686886 -0.51728 1.46654e-20)
(0.660977 -0.492852 -8.53973e-21)
(0.625096 -0.463107 1.72447e-21)
(0.571665 -0.444129 6.33414e-21)
(0.4983 -0.437827 6.49555e-22)
(0.424754 -0.416228 8.7235e-23)
(0.384707 -0.338781 0)
(0.393278 -0.194716 6.55013e-21)
(0.438682 -0.0144806 -6.72405e-21)
(0.50185 0.15981 4.21206e-22)
(0.56788 0.297994 0)
(0.628384 0.387131 -3.19766e-22)
(0.672345 0.43933 4.70311e-21)
(0.684018 0.486025 -8.93419e-21)
(0.661466 0.53735 -1.40269e-21)
(0.630272 0.552003 -1.25136e-21)
(0.625187 0.467863 5.54915e-21)
(0.658296 0.273549 1.01505e-21)
(0.717219 0.0273452 -8.27812e-21)
(0.774486 -0.191685 7.10428e-21)
(0.80733 -0.338931 -3.04313e-23)
(0.821565 -0.402491 1.94441e-21)
(0.822555 -0.406674 -2.29296e-21)
(0.793705 -0.403266 -1.97944e-21)
(0.731149 -0.400636 6.06361e-22)
(0.673299 -0.357554 9.08601e-22)
(0.641427 -0.228735 -1.79676e-21)
(0.654132 -0.0556819 1.38195e-21)
(0.689675 0.116516 -4.77656e-22)
(0.72675 0.241061 4.50826e-22)
(0.722182 0.334745 4.13148e-22)
(0.690547 0.38936 -1.24468e-21)
(0.65383 0.347785 5.25425e-24)
(0.655275 0.248934 -4.66498e-22)
(0.702752 0.0555901 0)
(0.733533 -0.0510483 -1.70442e-22)
(0.789409 -0.169134 2.90992e-22)
(0.809954 -0.170205 0)
(0.040188 0.0396916 6.67272e-20)
(0.0450948 0.0653112 -1.28803e-19)
(0.0546552 0.0923322 6.14239e-20)
(0.0676982 0.120237 5.93806e-20)
(0.0846539 0.149481 -1.16343e-19)
(0.106308 0.177941 -7.5626e-22)
(0.133021 0.203622 5.65843e-20)
(0.165205 0.224472 5.94719e-20)
(0.203195 0.238074 -5.82712e-20)
(0.247008 0.241804 0)
(0.296322 0.23312 -6.78242e-20)
(0.350417 0.209782 1.37246e-19)
(0.408184 0.170133 -6.9325e-20)
(0.468207 0.113317 0)
(0.528876 0.0393688 0)
(0.588862 -0.0496827 1.19529e-21)
(0.646891 -0.151983 -7.33326e-20)
(0.700923 -0.261858 7.12313e-20)
(0.74632 -0.367126 0)
(0.775921 -0.451414 4.97892e-20)
(0.784869 -0.502306 -8.47086e-20)
(0.774006 -0.518307 6.56749e-20)
(0.747893 -0.507531 -5.01932e-20)
(0.712543 -0.479757 4.96294e-21)
(0.672139 -0.444328 2.77267e-20)
(0.621335 -0.415042 -1.18815e-20)
(0.550698 -0.401469 -2.94387e-22)
(0.468181 -0.388174 -3.90127e-21)
(0.405869 -0.335467 -5.30324e-22)
(0.391955 -0.217464 4.46968e-21)
(0.423295 -0.0518262 3.63866e-22)
(0.480558 0.119248 -4.78432e-21)
(0.547333 0.261757 9.10599e-21)
(0.611765 0.360055 -4.82069e-21)
(0.659191 0.425197 0)
(0.673838 0.485469 -5.48615e-21)
(0.656863 0.545417 5.40514e-21)
(0.635282 0.560494 -6.21916e-21)
(0.641385 0.470757 7.72393e-21)
(0.683436 0.269274 -1.13401e-21)
(0.747636 0.0184654 0)
(0.806793 -0.19967 -1.03185e-21)
(0.836846 -0.343255 2.3934e-21)
(0.842957 -0.404373 0)
(0.83847 -0.403301 3.56933e-21)
(0.80903 -0.39106 -1.55901e-21)
(0.745372 -0.384837 4.57751e-22)
(0.685562 -0.347437 3.4897e-22)
(0.650745 -0.229375 0)
(0.661715 -0.065078 0)
(0.693343 0.105335 -1.19292e-21)
(0.727196 0.236001 1.94249e-21)
(0.717674 0.338273 -1.18166e-21)
(0.685358 0.396915 3.82835e-22)
(0.652718 0.351914 8.615e-22)
(0.658349 0.244975 4.66945e-22)
(0.713128 0.0481247 -9.33369e-22)
(0.745852 -0.0593627 0)
(0.800118 -0.175966 -4.53212e-22)
(0.820297 -0.172714 -8.57162e-23)
(0.152996 0.0224706 6.44107e-20)
(0.156244 0.0457771 -6.39096e-20)
(0.163172 0.0696645 4.74799e-22)
(0.175176 0.0945953 -4.37084e-22)
(0.191891 0.120482 4.4761e-22)
(0.213414 0.145904 -4.42315e-22)
(0.240095 0.168932 8.53804e-22)
(0.272308 0.187511 0)
(0.310266 0.199422 -9.06635e-22)
(0.353896 0.202293 9.51117e-22)
(0.402813 0.193764 1.00424e-21)
(0.456274 0.171731 -1.08359e-21)
(0.513207 0.134546 0)
(0.572201 0.081098 0)
(0.632488 0.011252 1.19235e-21)
(0.692322 -0.0729975 0)
(0.749852 -0.170678 -1.16165e-21)
(0.802419 -0.275452 0)
(0.843626 -0.374594 -5.6853e-20)
(0.865291 -0.451802 1.03999e-19)
(0.863395 -0.495936 -8.41074e-20)
(0.841083 -0.506741 3.71557e-20)
(0.805144 -0.492791 2.13409e-20)
(0.761831 -0.463941 -2.07257e-20)
(0.716349 -0.426756 -1.15011e-20)
(0.667362 -0.390322 1.10758e-20)
(0.603519 -0.367127 0)
(0.520789 -0.35453 1.53338e-22)
(0.442021 -0.321543 0)
(0.403679 -0.232228 0)
(0.417376 -0.0869987 7.06737e-21)
(0.466548 0.0775158 -7.22043e-21)
(0.531787 0.222652 3.91288e-22)
(0.597704 0.329831 4.96098e-22)
(0.64709 0.407954 -4.51557e-22)
(0.664761 0.481246 -4.77634e-21)
(0.654227 0.549392 4.63792e-21)
(0.642773 0.565862 -8.00292e-21)
(0.659893 0.472766 7.01045e-21)
(0.710608 0.26637 2.32635e-21)
(0.779496 0.0115707 -9.0677e-21)
(0.839931 -0.205369 6.19112e-23)
(0.867622 -0.344828 5.79128e-21)
(0.865858 -0.403937 0)
(0.85511 -0.399405 -1.5877e-21)
(0.825186 -0.379142 1.33304e-21)
(0.761044 -0.368974 -1.83596e-21)
(0.699161 -0.33718 -3.51177e-22)