/*--------------------------------*- C++ -*----------------------------------*\
| =========                 |                                                 |
| \\      /  F ield         | OpenFOAM: The Open Source CFD Toolbox           |
|  \\    /   O peration     | Version:  2512                                  |
|   \\  /    A nd           | Website:  www.openfoam.com                      |
|    \\/     M anipulation  |                                                 |
\*---------------------------------------------------------------------------*/
FoamFile
{
    version     2.0;
    format      ascii;
    arch        "LSB;label=32;scalar=64";
    class       surfaceScalarField;
    location    "53.5";
    object      phi;
}
// * * * * * * * * * * * * * * * * * * * * * * * * * * * * * * * * * * * * * //

dimensions      [0 3 -1 0 0 0 0];

oriented        oriented;

internalField   nonuniform List<scalar> 
26232
(
7.6569e-05
0.000930182
-0.00100675
0.000433428
0.00175494
-0.0021118
0.00119741
0.00169444
-0.00245842
0.00249664
0.00080874
-0.00210797
0.00446392
-0.000863725
-0.00110356
0.00723506
-0.0032992
0.000528064
0.0109426
-0.00648112
0.00277362
0.0157048
-0.0103904
0.00562812
0.0216129
-0.0149942
0.0090861
0.0287156
-0.0202369
0.0131342
0.0370062
-0.0260342
0.0177436
0.0464147
-0.0322733
0.0228648
0.0568054
-0.0388166
0.0284259
0.0679836
-0.0455113
0.0343331
0.0797079
-0.0521999
0.0404756
0.091709
-0.0587328
0.0467317
0.103711
-0.0649793
0.0529768
0.115456
-0.070837
0.0590926
0.126719
-0.0762355
0.0649722
0.137333
-0.08115
0.0705366
0.147176
-0.0855609
0.0757176
0.156214
-0.0895649
0.0805263
0.164346
-0.0930337
0.0849016
-0.0964315
0.089369
0.171409
0.000116732
0.000813449
0.000628519
0.00124315
0.00169208
0.000630881
0.00346149
-0.000960671
0.00609042
-0.00349265
0.00972533
-0.00693411
0.0144922
-0.011248
0.0204787
-0.0163769
0.0277153
-0.0222308
0.0361598
-0.0286814
0.0456902
-0.0355646
0.0561072
-0.0426903
0.0671488
-0.0498583
0.0785128
-0.0568753
0.0898853
-0.0635723
0.10097
-0.0698179
0.111518
-0.0755265
0.121342
-0.0806619
0.130341
-0.0852345
0.138487
-0.0892958
0.145843
-0.0929166
0.152504
-0.0962259
0.158676
-0.0992057
-0.10231
0.164555
0.000171756
0.000641694
0.000878779
0.000536126
0.00230644
-0.000796779
0.00463119
-0.00328542
0.00801746
-0.00687892
0.0126022
-0.0115188
0.0184723
-0.0171181
0.0256412
-0.0235458
0.0340306
-0.0306202
0.0434652
-0.0381159
0.0536822
-0.0457816
0.0643565
-0.0533646
0.0751355
-0.0606373
0.0856787
-0.0674184
0.095694
-0.0735877
0.104967
-0.0790908
0.113377
-0.0839361
0.120899
-0.0881845
0.127598
-0.0919334
0.133603
-0.0953004
0.139087
-0.098401
0.14422
-0.101359
0.149212
-0.104197
-0.107227
0.154129
0.000246081
0.000395613
0.00119599
-0.000413779
0.00305668
-0.00265748
0.00601531
-0.00624404
0.0102256
-0.0110892
0.0157808
-0.017074
0.0226841
-0.0240215
0.0308273
-0.031689
0.0399863
-0.0397792
0.0498398
-0.0479695
0.0600071
-0.0559488
0.0700968
-0.0634543
0.0797573
-0.0702978
0.0887176
-0.0763787
0.0968127
-0.0816828
0.103991
-0.0862688
0.110302
-0.0902471
0.115873
-0.0937558
0.120877
-0.0969372
0.125498
-0.0999211
0.129907
-0.10281
0.134241
-0.105693
0.138622
-0.108578
-0.111673
0.143067
0.00034134
5.42721e-05
0.00158158
-0.00165402
0.00393538
-0.00501128
0.00757898
-0.00988764
0.0126217
-0.0161319
0.0190689
-0.0235212
0.0267939
-0.0317465
0.0355337
-0.0404288
0.0449158
-0.0491612
0.0545098
-0.0575635
0.0638926
-0.0653316
0.0727083
-0.07227
0.0807115
-0.078301
0.0877861
-0.0834534
0.0939396
-0.0878363
0.0992765
-0.0916057
0.103962
-0.0949324
0.108182
-0.0979756
0.112112
-0.100868
0.115898
-0.103707
0.119649
-0.106561
0.123432
-0.109476
0.127306
-0.112452
-0.115621
0.131254
0.000456382
-0.00040211
0.00202648
-0.00322411
0.00491094
-0.00789574
0.00924335
-0.0142201
0.015046
-0.0219346
0.0221912
-0.0306664
0.0303915
-0.0399468
0.039232
-0.0492693
0.0482371
-0.0581663
0.0569516
-0.066278
0.0650129
-0.0733929
0.0721951
-0.0794522
0.0784205
-0.0845264
0.0837397
-0.0887726
0.0882927
-0.0923893
0.0922628
-0.0955758
0.0958361
-0.0985057
0.099174
-0.101314
0.102401
-0.104094
0.105602
-0.106909
0.108835
-0.109794
0.112129
-0.11277
0.115516
-0.115839
-0.119072
0.118966
0.000587769
-0.000989878
0.00251202
-0.00514837
0.00593016
-0.0113139
0.0108936
-0.0191835
0.0172936
-0.0283346
0.0248385
-0.0382112
0.0330829
-0.0481913
0.0415079
-0.0576943
0.0496205
-0.0662789
0.0570397
-0.0736973
0.0635451
-0.0798982
0.0690806
-0.0849877
0.0737236
-0.0891694
0.0776345
-0.0926835
0.081005
-0.0957597
0.0840171
-0.0985879
0.0868204
-0.101309
0.0895243
-0.104018
0.0922021
-0.106772
0.0948997
-0.109606
0.0976443
-0.112538
0.100451
-0.115576
0.103332
-0.11872
-0.122004
0.106264
0.000729834
-0.00171971
0.0030114
-0.00742994
0.00692345
-0.0152259
0.0123936
-0.0246536
0.0191492
-0.0350902
0.0267323
-0.0457944
0.034584
-0.0560429
0.0421633
-0.0652736
0.049053
-0.0731686
0.055017
-0.0796614
0.0600021
-0.0848833
0.0640969
-0.0890825
0.0674725
-0.092545
0.070325
-0.0955361
0.0728344
-0.098269
0.0751431
-0.100897
0.0773523
-0.103518
0.0795277
-0.106193
0.0817095
-0.108954
0.083921
-0.111818
0.0861755
-0.114793
0.0884795
-0.11788
0.090839
-0.12108
-0.124399
0.0932342
0.00087499
-0.0025947
0.00349164
-0.0100466
0.00781232
-0.0195466
0.013606
-0.0304472
0.0204261
-0.0419103
0.0276829
-0.0530512
0.034778
-0.0631381
0.0412359
-0.0717315
0.0467794
-0.0787121
0.0513356
-0.0842176
0.0549896
-0.0885374
0.0579161
-0.092009
0.0603151
-0.0949439
0.0623675
-0.0975885
0.0642144
-0.100116
0.0659534
-0.102636
0.0676465
-0.105211
0.0693305
-0.107877
0.0710266
-0.11065
0.0727467
-0.113538
0.0744972
-0.116543
0.0762815
-0.119665
0.078101
-0.122899
-0.12624
0.0799426
0.00101387
-0.00360857
0.00391634
-0.012949
0.00851918
-0.0241494
0.0144139
-0.0363419
0.021
-0.0484965
0.0276191
-0.0596703
0.0337149
-0.0692339
0.0389394
-0.0769559
0.0431738
-0.0829465
0.0464824
-0.0875262
0.0490356
-0.0910906
0.0510371
-0.0940105
0.0526728
-0.0965796
0.0540868
-0.0990026
0.0553782
-0.101407
0.0566083
-0.103866
0.0578129
-0.106416
0.0590121
-0.109076
0.0602171
-0.111855
0.0614346
-0.114756
0.0626679
-0.117777
0.0639184
-0.120915
0.0651852
-0.124166
-0.127516
0.0664608
0.00113655
-0.00474513
0.00425085
-0.0160633
0.00897919
-0.0288778
0.0147395
-0.0421023
0.0208252
-0.0545821
0.0265836
-0.0654286
0.0315641
-0.0742144
0.0355702
-0.080962
0.0386223
-0.0859986
0.0408752
-0.0897791
0.0425339
-0.0927493
0.0437922
-0.0952688
0.0448024
-0.0975898
0.045669
-0.0998692
0.0464563
-0.102195
0.0472011
-0.10461
0.0479234
-0.107138
0.0486343
-0.109787
0.0493406
-0.112561
0.050046
-0.115461
0.0507525
-0.118483
0.0514601
-0.121623
0.052166
-0.124872
-0.128216
0.0528665
0.00123629
-0.00598142
0.00446968
-0.0192967
0.00915093
-0.033559
0.0145539
-0.0475052
0.0199312
-0.0599594
0.0247023
-0.0701998
0.0285554
-0.0780675
0.0314354
-0.083842
0.0334627
-0.0880259
0.0348365
-0.0911529
0.0357595
-0.0936723
0.0363965
-0.0959058
0.0368623
-0.0980556
0.0372277
-0.100235
0.0375327
-0.1025
0.0377986
-0.104876
0.0380366
-0.107376
0.0382534
-0.110004
0.0384534
-0.112761
0.0386391
-0.115647
0.0388121
-0.118656
0.0389719
-0.121783
0.0391155
-0.125016
0.0392423
-0.128343
-0.000208438
-8.5742e-05
0.00029418
-0.000726497
-0.000357401
0.00087546
-0.00148719
-0.000691196
0.00145189
-0.00243963
-0.00105333
0.00200576
-0.00354408
-0.00142234
0.00252679
-0.00476955
-0.00178902
0.0030145
-0.00609193
-0.00215396
0.00347634
-0.00749237
-0.00252429
0.00392472
-0.00895596
-0.00291044
0.00437403
-0.0104706
-0.00332337
0.004838
-0.0120259
-0.00377259
0.00532785
-0.0136121
-0.00426493
0.0058512
-0.0152198
-0.00480407
0.00641177
-0.0168388
-0.00539046
0.00700939
-0.0184578
-0.00602123
0.0076403
-0.020065
-0.00669005
0.00829726
-0.021648
-0.00738668
0.00896966
-0.0231951
-0.00809632
0.00964343
-0.0246974
-0.00879869
0.010301
-0.0261515
-0.00946751
0.0109215
-0.0275623
-0.0100709
0.0114817
-0.0289468
-0.0105707
0.0119553
-0.0303405
-0.0109169
0.0123106
-0.0110548
-0.0318017
0.012516
-0.000219302
0.00013356
-0.00076282
0.000186117
-0.0015587
0.000104688
-0.00255225
-5.97841e-05
-0.00370086
-0.000273725
-0.00497164
-0.000518238
-0.00633944
-0.000786166
-0.00778506
-0.00107867
-0.00929374
-0.00140176
-0.0108539
-0.00176325
-0.0124555
-0.00217098
-0.0140893
-0.00263112
-0.0157457
-0.00314767
-0.0174139
-0.00372218
-0.0190817
-0.00435348
-0.0207346
-0.00503716
-0.0223565
-0.00576481
-0.0239301
-0.0065227
-0.0254388
-0.00729
-0.0268695
-0.00803676
-0.0282173
-0.00872309
-0.029489
-0.00929898
-0.0307089
-0.00969697
-0.00982987
-0.0319339
-0.0002172
0.00035076
-0.000755834
0.000724751
-0.00154347
0.000892326
-0.00252386
0.000920608
-0.00365262
0.000855027
-0.00489508
0.000724222
-0.00622455
0.000543304
-0.00762055
0.000317339
-0.00906699
4.46829e-05
-0.0105517
-0.00027856
-0.0120633
-0.000659318
-0.0135915
-0.00110296
-0.0151253
-0.00161385
-0.0166523
-0.00219523
-0.0181575
-0.0028482
-0.0196233
-0.00357139
-0.0210282
-0.00435993
-0.022347
-0.0052039
-0.0235511
-0.00608591
-0.0246105
-0.00697731
-0.0254995
-0.00783412
-0.0262026
-0.00859587
-0.0267198
-0.00917976
-0.0094351
-0.0271146
-0.000202369
0.000553129
-0.000706196
0.00122858
-0.00144247
0.0016286
-0.00235553
0.00183367
-0.00340002
0.00189951
-0.00453943
0.00186363
-0.00574472
0.0017486
-0.00699282
0.00156543
-0.0082653
0.00131717
-0.00954595
0.00100209
-0.010821
0.000615713
-0.012076
0.000152015
-0.0132975
-0.00039235
-0.0144689
-0.0010238
-0.0155717
-0.00174535
-0.0165842
-0.00255895
-0.0174801
-0.00346399
-0.0182281
-0.00445595
-0.0187898
-0.00552417
-0.0191197
-0.00664747
-0.0191674
-0.00778633
-0.0188892
-0.00887416
-0.0182513
-0.0098176
-0.0104797
-0.0172068
-0.000176661
0.000729791
-0.000619188
0.0016711
-0.00126492
0.00227433
-0.0020602
0.00262895
-0.00295911
0.00279842
-0.00392291
0.00282743
-0.00491907
0.00274476
-0.00592011
0.00256647
-0.00690226
0.00229931
-0.00784392
0.00194375
-0.00872463
0.00149642
-0.00952442
0.000951809
-0.0102202
0.000303468
-0.0107899
-0.000454178
-0.0112077
-0.00132754
-0.0114453
-0.00232136
-0.0114711
-0.00343815
-0.0112495
-0.00467752
-0.0107393
-0.00603444
-0.00989043
-0.0074963
-0.00864036
-0.00903639
-0.00691434
-0.0106002
-0.00465396
-0.012078
-0.0131916
-0.00194202
-0.000143125
0.000872916
-0.000503696
0.00203168
-0.0010265
0.00279714
-0.00166028
0.00326273
-0.00235833
0.00349647
-0.0030787
0.00354781
-0.00378386
0.00344991
-0.00443969
0.0032223
-0.0050144
0.00287403
-0.00547729
0.00240664
-0.00579753
0.00181667
-0.00594332
0.0010976
-0.00588061
0.000240763
-0.00557406
-0.000760731
-0.00498524
-0.00191635
-0.00407416
-0.00323244
-0.00279922
-0.0047131
-0.00111766
-0.00635908
0.00101447
-0.00816658
0.0036441
-0.0101259
0.00682619
-0.0122185
0.0106297
-0.0144037
0.0151277
-0.016576
-0.0186642
0.0206003
-0.000105533
0.000978449
-0.000370769
0.00229691
-0.000746872
0.00317325
-0.00118402
0.00369988
-0.00163363
0.00394607
-0.00204912
0.0039633
-0.00238592
0.00378671
-0.00260075
0.00343713
-0.0026507
0.00292398
-0.00249218
0.00224812
-0.0020799
0.00140439
-0.00136623
0.000383924
-0.000301726
-0.000823743
0.00116728
-0.00222974
0.00309497
-0.00384405
0.00553643
-0.0056739
0.00854588
-0.00772255
0.0121747
-0.00998792
0.0164696
-0.0124614
0.0214708
-0.0151272
0.0272116
-0.0179592
0.0337467
-0.0209388
0.0410548
-0.0238842
-0.0272123
0.049603
-6.77159e-05
0.00104617
-0.000231628
0.00246082
-0.000445952
0.00338757
-0.000659994
0.00391392
-0.00082124
0.00410732
-0.000876344
0.00401841
-0.000771276
0.00368164
-0.000450768
0.00311662
0.000142351
0.00233086
0.00106783
0.00132263
0.00238874
8.34901e-05
0.00417002
-0.00139736
0.00648024
-0.00313396
0.00938854
-0.00513804
0.0129631
-0.00741861
0.0172688
-0.0099796
0.0223642
-0.012818
0.0282987
-0.0159224
0.0351092
-0.0192719
0.0428188
-0.0228368
0.0514247
-0.0265652
0.0609586
-0.0304727
0.0712649
-0.0341904
-0.0388658
0.0829183
-3.27767e-05
0.00107894
-9.52427e-05
0.00252329
-0.000139402
0.00343173
-0.000110116
0.00388463
5.21199e-05
0.00394508
0.000410217
0.00366031
0.00103068
0.00306118
0.00198372
0.00216359
0.00334346
0.000971123
0.00518779
-0.000521698
0.00759723
-0.00232595
0.0106545
-0.00445468
0.0144406
-0.00691999
0.0190322
-0.00972962
0.0244979
-0.0128843
0.0308939
-0.0163757
0.0382602
-0.0201843
0.0466169
-0.024279
0.0559617
-0.0286168
0.0662708
-0.0331458
0.0774885
-0.0377829
0.0895777
-0.0425619
0.102307
-0.0469192
-0.0525688
0.11601
-2.30455e-06
0.00108125
3.42553e-05
0.00248673
0.000166068
0.00329992
0.000457654
0.00359305
0.000979379
0.00342335
0.00180742
0.00283226
0.00302371
0.00184489
0.00471599
0.000471305
0.00697636
-0.00128924
0.0098995
-0.00344484
0.0135795
-0.00600599
0.0181058
-0.00898097
0.0235575
-0.0123716
0.0299976
-0.0161698
0.0374678
-0.0203545
0.0459829
-0.0248908
0.0555282
-0.0297295
0.0660577
-0.0348085
0.0774959
-0.040055
0.0897392
-0.0453891
0.10267
-0.0507135
0.116143
-0.0560356
0.130045
-0.0608204
-0.0668043
0.14428
2.42779e-05
0.00105697
0.00015909
0.00235192
0.000476662
0.00298234
0.00105573
0.00301398
0.0019821
0.00249699
0.003349
0.00146536
0.00525594
-6.20502e-05
0.0078092
-0.00208196
0.0111151
-0.00459513
0.015277
-0.00760675
0.0203878
-0.0111168
0.0265219
-0.0151151
0.0337274
-0.0195771
0.0420185
-0.0244609
0.0513707
-0.0297066
0.061718
-0.0352381
0.0729545
-0.0409661
0.0849392
-0.0467932
0.0975038
-0.0526196
0.110464
-0.0583497
0.123646
-0.0638948
0.136834
-0.0692238
0.150043
-0.0740295
-0.0793534
0.162592
5.0218e-05
0.00029034
0.000814262
0.00172027
0.0031137
0.00510712
0.00781869
0.0113649
0.0158558
0.0213833
0.0280101
0.0357598
0.0446086
0.0544808
0.0652498
0.0767434
0.0887541
0.101054
0.113406
0.125593
0.137416
0.148718
0.15959
0.169606
-0.0322743
-0.016432
0.0169045
-0.0326797
-0.0158896
0.016295
-0.0330104
-0.0146094
0.0149401
-0.0332519
-0.012459
0.0127006
-0.0333758
-0.00927737
0.00940128
-0.0333232
-0.00489604
0.00484344
-0.0330984
0.000796585
-0.0010214
-0.0326835
0.00794653
-0.00836136
-0.0320008
0.0165548
-0.0172375
-0.0309945
0.0265673
-0.0275737
-0.0296182
0.0378201
-0.0391964
-0.0278383
0.0500069
-0.0517868
-0.0256012
0.062619
-0.0648561
-0.0228312
0.0749679
-0.0777379
-0.0194242
0.0862062
-0.0896132
-0.0151757
0.0952069
-0.0994554
-0.00981815
0.100633
-0.105991
-0.00315608
0.101083
-0.107745
0.00496766
0.095052
-0.103176
0.0144013
0.0813746
-0.0908082
0.0247486
0.0594801
-0.0698273
0.0355247
0.0295469
-0.040323
0.0462035
-0.00722096
-0.00345783
0.0567452
-0.048424
0.0378823
0.0666373
-0.0901886
0.0802966
0.0751069
-0.127091
0.118622
0.0811348
-0.154802
0.148774
0.0835141
-0.172138
0.169759
0.080837
-0.182152
0.184829
0.0729582
-0.191094
0.198973
0.0632562
-0.201439
0.211141
0.0578546
-0.203361
0.208763
0.0603788
-0.17917
0.176646
0.0693411
-0.121732
0.11277
0.0817756
-0.041824
0.0293896
0.0947429
0.042445
-0.0554123
0.105847
0.115532
-0.126636
0.113875
0.16797
-0.175999
0.118175
0.197256
-0.201556
0.116272
0.211789
-0.209886
0.106942
0.225908
-0.216578
0.0955777
0.235815
-0.224451
0.0910133
0.213953
-0.209388
0.096341
0.144425
-0.149753
0.107717
0.0468739
-0.0582501
0.119745
-0.0447965
0.032769
0.129355
-0.111862
0.102252
0.135694
-0.147925
0.141586
0.138513
-0.158892
0.156073
0.136819
-0.152064
0.153758
0.131438
-0.14212
0.147502
0.126269
-0.124478
0.129647
0.125589
-0.098325
0.0990048
0.129817
-0.055304
0.0510767
0.13639
-0.0100173
0.00344374
0.142365
0.0271705
-0.0331456
0.146185
0.0573862
-0.0612056
0.147763
0.0612016
-0.0627803
0.1476
0.0764385
-0.0762757
0.0510152
-0.0513243
-0.0324115
-0.0159544
-0.0327707
-0.0155304
-0.0330084
-0.0143717
-0.0331053
-0.0123621
-0.0330272
-0.00935554
-0.0327008
-0.00522241
-0.0321066
0.000202399
-0.0312538
0.0070937
-0.030018
0.0153191
-0.0283053
0.0248546
-0.0260295
0.0355443
-0.0231502
0.0471276
-0.0196006
0.0590694
-0.015271
0.0706382
-0.010102
0.0810373
-0.00391016
0.089015
0.00327924
0.0934436
0.0115501
0.0928125
0.020808
0.0857941
0.0307669
0.0714157
0.0409644
0.0492825
0.0509689
0.0195425
0.0604726
-0.0167247
0.0695187
-0.0574701
0.0777688
-0.0984387
0.0845049
-0.133827
0.0889129
-0.15921
0.0902302
-0.173456
0.0872096
-0.179131
0.0787361
-0.18262
0.0666784
-0.189382
0.0571742
-0.193857
0.056135
-0.178131
0.0636536
-0.129251
0.0759949
-0.0541653
0.0895842
0.0288557
0.101814
0.103303
0.11117
0.158614
0.116022
0.192404
0.113628
0.214183
0.104278
0.235258
0.0946437
0.245449
0.0926198
0.215977
0.0996568
0.137388
0.111652
0.034879
0.123576
-0.0567213
0.132636
-0.120922
0.138318
-0.153606
0.141048
-0.161623
0.140104
-0.15112
0.135298
-0.137314
0.129353
-0.118532
0.126592
-0.0955645
0.128616
-0.0573278
0.133761
-0.0151623
0.139009
0.0219221
0.142771
0.0536245
0.144489
0.0594836
0.145108
0.0758195
0.0498344
-0.0275671
-0.0155018
-0.0278563
-0.0152412
-0.0279502
-0.0142778
-0.0278302
-0.0124822
-0.0274677
-0.00971803
-0.0268169
-0.00587321
-0.0257049
-0.000909552
-0.0243454
0.00573422
-0.0225098
0.0134835
-0.0200775
0.0224223
-0.0169153
0.032382
-0.0129977
0.04321
-0.0083005
0.0543722
-0.0026855
0.0650232
0.0039746
0.0743772
0.011492
0.0814976
0.0199071
0.0850285
0.029102
0.0836176
0.0388199
0.0760761
0.0486844
0.0615513
0.0582535
0.0397134
0.0671225
0.0106734
0.0752467
-0.0248489
0.0826824
-0.0649059
0.0891852
-0.104942
0.0940851
-0.138727
0.0966939
-0.161819
0.0966863
-0.173448
0.0933974
-0.175842
0.0852096
-0.174433
0.0721614
-0.176333
0.0592281
-0.180924
0.0539553
-0.172858
0.059048
-0.134344
0.0709195
-0.0660368
0.0850112
0.014764
0.0982835
0.0900307
0.108697
0.1482
0.113797
0.187305
0.111108
0.216872
0.102388
0.243977
0.0948793
0.252958
0.0951849
0.215671
0.103514
0.12906
0.115781
0.0226116
0.12741
-0.0683501
0.135852
-0.129364
0.140787
-0.158541
0.143162
-0.163998
0.142797
-0.150756
0.138881
-0.133398
0.132852
-0.112503
0.128537
-0.0912499
0.128411
-0.0572012
0.131872
-0.0186237
0.136139
0.0176556
0.139755
0.0500085
0.141696
0.0575421
0.143292
0.074224
0.0476824
-0.0178019
-0.0149066
-0.0181871
-0.0148561
-0.0182813
-0.0141835
-0.0180536
-0.01271
-0.0174738
-0.0102977
-0.0165036
-0.00684344
-0.0150856
-0.00232752
-0.013161
0.00380958
-0.0107818
0.0111043
-0.00772515
0.0193656
-0.00390894
0.0285658
0.000912399
0.0383887
0.00684317
0.0484414
0.0135797
0.0582867
0.021089
0.0668679
0.0294117
0.0731749
0.0384397
0.0760005
0.0479391
0.0741182
0.0575691
0.0664461
0.0669146
0.0522057
0.0755583
0.0310697
0.0832211
0.00301065
0.0899163
-0.0315441
0.0957432
-0.0707328
0.100466
-0.109665
0.103482
-0.141743
0.104232
-0.162569
0.102712
-0.171928
0.098965
-0.172096
0.0915741
-0.167042
0.0789722
-0.163732
0.0639458
-0.165897
0.0543281
-0.16324
0.0558659
-0.135881
0.0665493
-0.0767202
0.0809536
0.000359707
0.0951354
0.0758489
0.106305
0.13703
0.111505
0.182105
0.108908
0.219469
0.101434
0.251451
0.0962422
0.25815
0.0985734
0.21334
0.107815
0.119818
0.120032
0.0103949
0.131143
-0.0794617
0.138891
-0.137112
0.14307
-0.16272
0.144915
-0.165844
0.144882
-0.150723
0.141972
-0.130487
0.136456
-0.106987
0.131249
-0.0860421
0.129258
-0.0552107
0.130946
-0.0203114
0.134058
0.0145433
0.137453
0.0466131
0.139692
0.0553036
0.142372
0.071544
0.0445531
-0.00279163
-0.014057
-0.00369877
-0.0139489
-0.0041737
-0.0137086
-0.00421596
-0.0126677
-0.00379545
-0.0107183
-0.00285838
-0.00778051
-0.00141304
-0.00377286
0.000902422
0.00149412
0.00394131
0.00806539
0.0077457
0.0155612
0.0124009
0.0239106
0.0178955
0.0328941
0.0241981
0.0421388
0.0314003
0.0510845
0.0394099
0.0588583
0.0481103
0.0644745
0.057302
0.0668089
0.0666895
0.0647308
0.0758944
0.0572412
0.084502
0.0435981
0.0921192
0.0234525
0.0986335
-0.00350365
0.103974
-0.0368842
0.108259
-0.0750179
0.111184
-0.112589
0.112246
-0.142806
0.111168
-0.16149
0.108164
-0.168925
0.103742
-0.167674
0.0971838
-0.160483
0.0861242
-0.152672
0.0707484
-0.150521
0.0575252
-0.150017
0.0545768
-0.132933
0.0629571
-0.0851004
0.0772006
-0.0138838
0.0920712
0.0609783
0.103794
0.125308
0.109176
0.176723
0.107185
0.22146
0.101462
0.257173
0.0986116
0.261
0.102633
0.209318
0.112481
0.10997
0.124324
-0.00144797
0.134711
-0.0898489
0.141658
-0.144059
0.145105
-0.166166
0.14635
-0.167089
0.146401
-0.150773
0.144434
-0.128521
0.139863
-0.102416
0.134461
-0.0806403
0.131102
-0.0518519
0.131132
-0.0203417
0.133041
0.0126348
0.136161
0.0434931
0.13874
0.0527248
0.142502
0.0677817
0.0405389
0.0188268
-0.0122836
0.0172061
-0.0123282
0.015909
-0.0124115
0.0151278
-0.0118865
0.0149251
-0.0105156
0.0153642
-0.00821956
0.0164967
-0.00490536
0.0186537
-0.000662903
0.0214065
0.00531256
0.0250814
0.0118863
0.0297462
0.0192458
0.0353526
0.0272877
0.0418656
0.0356259
0.0492596
0.0436905
0.0574196
0.0506983
0.0661689
0.0557252
0.0752423
0.0577355
0.0842933
0.0556798
0.0929298
0.0486047
0.100762
0.0357656
0.10744
0.0167751
0.112908
-0.00897152
0.117061
-0.0410376
0.119866
-0.0778227
0.120946
-0.11367
0.119991
-0.14185
0.117145
-0.158645
0.112828
-0.164607
0.107669
-0.162514
0.101682
-0.154497
0.0926748
-0.143665
0.0786637
-0.13651
0.0634044
-0.134758
0.0557329
-0.125261
0.0604159
-0.0897834
0.0735692
-0.0270371
0.0887452
0.0458023
0.10097
0.113083
0.106867
0.170826
0.106045
0.222282
0.102443
0.260775
0.10183
0.261613
0.107202
0.203946
0.117337
0.0998356
0.128625
-0.0127361
0.138055
-0.0992788
0.144084
-0.150089
0.146822
-0.168904
0.147484
-0.167752
0.147425
-0.150714
0.146219
-0.127315
0.142817
-0.0990147
0.137855
-0.0756774
0.133762
-0.0477592
0.132458
-0.0190381
0.133263
0.0118299
0.136085
0.0406719
0.139007
0.0498022
0.143737
0.063052
0.0358181
0.046716
-0.00939652
0.0440555
-0.00966778
0.0416735
-0.0100295
0.0397178
-0.00993073
0.0383163
-0.0091141
0.0375874
-0.00749065
0.0376623
-0.0049803
0.0385792
-0.00157973
0.0405455
0.0033462
0.0435261
0.00890573
0.0476356
0.0151363
0.0528333
0.0220901
0.0590612
0.0293979
0.0662246
0.0365271
0.0741565
0.0427664
0.0826236
0.0472581
0.0913188
0.0490403
0.0998683
0.0471303
0.107873
0.0405996
0.114978
0.0286612
0.120838
0.0109148
0.125463
-0.0135961
0.128625
-0.0441999
0.130053
-0.0792509
0.129326
-0.112943
0.126415
-0.138939
0.121904
-0.154134
0.116485
-0.159189
0.110709
-0.156738
0.104978
-0.148766
0.0979245
-0.136611
0.0864969
-0.125083
0.0712657
-0.119527
0.0596904
-0.113686
0.0595388
-0.0896318
0.0702057
-0.037704
0.0850154
0.0309927
0.0977526
0.100346
0.10464
0.163939
0.105546
0.221376
0.104281
0.26204
0.105712
0.260182
0.112124
0.197534
0.122265
0.0896942
0.132805
-0.0232762
0.141111
-0.107585
0.146119
-0.155096
0.14816
-0.170945
0.148309
-0.1679
0.148031
-0.150436
0.147352
-0.126637
0.145148
-0.0968106
0.141106
-0.0716352
0.136948
-0.0436013
0.134799
-0.0168891
0.134749
0.0118806
0.137294
0.0381266
0.140529
0.0465668
0.146021
0.0575606
0.0306253
0.0790513
-0.00552951
0.075399
-0.00601544
0.0719677
-0.00659825
0.06882
-0.00678299
0.0660889
-0.00638307
0.0639272
-0.00532896
0.0624739
-0.00352699
0.0618773
-0.00098307
0.0623055
0.00291799
0.0638692
0.00734206
0.0666837
0.0123217
0.070756
0.0180177
0.0760314
0.0241225
0.0823839
0.0301746
0.0896048
0.0355455
0.0974121
0.0394509
0.105463
0.0409893
0.113361
0.039232
0.120697
0.0332643
0.12714
0.0222176
0.1323
0.00575528
0.136206
-0.0175019
0.138442
-0.0464366
0.138507
-0.0793152
0.136019
-0.110454
0.131292
-0.134212
0.125297
-0.148139
0.118987
-0.152879
0.112818
-0.150569
0.107164
-0.143112
0.10157
-0.131017
0.0931614
-0.116675
0.0799098
-0.106275
0.0662764
-0.100053
0.061077
-0.0844324
0.0677646
-0.0443916
0.0811721
0.0175852
0.0942779
0.0872401
0.102564
0.155653
0.10567
0.21827
0.106831
0.260879
0.110068
0.256945
0.11722
0.190383
0.127138
0.0797768
0.136748
-0.032887
0.143811
-0.114647
0.147725
-0.15901
0.149076
-0.172296
0.148799
-0.167623
0.148278
-0.149915
0.147909
-0.126267
0.146778
-0.0956797
0.143938
-0.0687958
0.140314
-0.0399767
0.137889
-0.014465
0.137348
0.0124218
0.139696
0.0357791
0.143193
0.0430692
0.149188
0.0515662
0.0252132
0.111574
-0.00109368
0.107389
-0.00183042
0.103342
-0.00255114
0.0994225
-0.00286379
0.0957566
-0.00271719
0.0925088
-0.00208114
0.0898883
-0.000906546
0.0877047
0.00120049
0.0865389
0.00408388
0.0864362
0.00744467
0.0875472
0.0112107
0.0899569
0.0156081
0.0936711
0.0204083
0.0986029
0.0252427
0.104557
0.0295914
0.111241
0.0327667
0.118296
0.0339346
0.125313
0.032215
0.131858
0.0267188
0.137545
0.0165312
0.142073
0.00122745
0.14519
-0.0206197
0.146387
-0.0476334
0.14498
-0.0779083
0.140758
-0.106232
0.134421
-0.127875
0.127216
-0.140934
0.12023
-0.145893
0.113886
-0.144225
0.108324
-0.137549
0.103627
-0.12632
0.0979357
-0.110983
0.08794
-0.0962793
0.0746038
-0.0867166
0.0654524
-0.075281
0.0671822
-0.0461214
0.077911
0.00685638
0.0909094
0.0742416
0.100762
0.1458
0.106338
0.212694
0.109914
0.257303
0.114681
0.252178
0.122323
0.18274
0.131818
0.0702815
0.140341
-0.0414098
0.146069
-0.120375
0.148858
-0.1618
0.149532
-0.17297
0.14892
-0.167011
0.1482
-0.149195
0.147979
-0.126046
0.147711
-0.0954122
0.146157
-0.0672411
0.143513
-0.0373326
0.14137
-0.0123229
0.140763
0.0130296
0.143043
0.0334991
0.146752
0.03936
0.152984
0.045334
0.0198122
0.139586
0.00360037
0.13515
0.00260563
0.130827
0.00177179
0.126649
0.00131384
0.12271
0.00122222
0.119023
0.0016059
0.115595
0.00252127
0.112781
0.00401493
0.110725
0.00613915
0.109503
0.00866743
0.109237
0.0114764
0.110085
0.0147598
0.112124
0.0183696
0.115354
0.0220129
0.119664
0.0252816
0.124822
0.0276083
0.130505
0.0282513
0.136313
0.0264077
0.141804
0.0212277
0.146532
0.0118028
0.150419
-0.0026589
0.152405
-0.0226059
0.152248
-0.0474766
0.149183
-0.0748436
0.143278
-0.100327
0.135583
-0.12018
0.127479
-0.132831
0.120032
-0.138446
0.113667
-0.137859
0.108326
-0.132208
0.104171
-0.122165
0.100488
-0.1073
0.0941106
-0.0899021
0.0831744
-0.0757804
0.0722431
-0.0643497
0.0691882
-0.0430665
0.0761173
-7.27582e-05
0.0881631
0.0621958
0.0993645
0.134599
0.107399
0.20466
0.113306
0.251396
0.119379
0.246105
0.127297
0.174822
0.136206
0.0613733
0.143487
-0.048691
0.147808
-0.124696
0.14948
-0.163472
0.149512
-0.173002
0.148646
-0.166145
0.147805
-0.148353
0.147648
-0.12589
0.148016
-0.0957798
0.147665
-0.0668908
0.14626
-0.0359268
0.144856
-0.010919
0.144596
0.0132892
0.146974
0.0311218
0.15086
0.0354738
0.157101
0.039093
0.0145986
0.15862
0.00757264
0.154595
0.006631
0.150426
0.00594047
0.146388
0.00535189
0.142607
0.00500286
0.139125
0.00508824
0.135996
0.00565004
0.133305
0.00670556
0.131184
0.00826017
0.129649
0.0102025
0.128774
0.0123517
0.12877
0.0147642
0.129702
0.0174369
0.131607
0.0201081
0.134443
0.0224452
0.138071
0.0239811
0.142249
0.0240734
0.146655
0.0220011
0.150868
0.0170151
0.154306
0.00836471
0.156871
-0.00522454
0.157661
-0.0233951
0.155896
-0.0457119
0.151125
-0.0700726
0.143784
-0.0929869
0.135142
-0.111537
0.126537
-0.124226
0.118869
-0.130778
0.112536
-0.131526
0.107444
-0.127116
0.103602
-0.118322
0.101064
-0.104762
0.0977648
-0.0866031
0.0904197
-0.0684353
0.0801715
-0.0541014
0.0738008
-0.0366958
0.0765233
-0.00279533
0.0865845
0.0521347
0.0985883
0.122595
0.108886
0.194362
0.116823
0.243459
0.123939
0.238989
0.132091
0.16667
0.140334
0.0531304
0.146213
-0.05457
0.149069
-0.127552
0.149659
-0.164063
0.149088
-0.172431
0.148019
-0.165076
0.147126
-0.14746
0.147002
-0.125766
0.147799
-0.0965764
0.148466
-0.0675587
0.148365
-0.0358251
0.148002
-0.0105568
0.148431
0.0128604
0.151077
0.0284764
0.155128
0.0314224
0.161215
0.0330058
0.00967548
0.167042
0.0101367
0.163951
0.00972234
0.160758
0.00913347
0.157584
0.00852514
0.154501
0.00808578
0.151619
0.00797075
0.149033
0.0082357
0.146835
0.00890369
0.145116
0.0099797
0.143923
0.0113948
0.143243
0.0130322
0.14311
0.0148975
0.143631
0.0169156
0.144855
0.0188844
0.146775
0.0205252
0.149297
0.0214585
0.15223
0.0211405
0.155299
0.0189317
0.158171
0.0141432
0.160505
0.00603109
0.161398
-0.00611738
0.16041
-0.0224075
0.15695
-0.0422515
0.150848
-0.0639707
0.142799
-0.0849379
0.133997
-0.102736
0.125525
-0.115753
0.11804
-0.123294
0.111867
-0.125353
0.106993
-0.122242
0.103291
-0.11462
0.101091
-0.102562
0.0996495
-0.0851619
0.0957598
-0.0645456
0.0878851
-0.0462268
0.0803462
-0.0291569
0.0793376
-0.00178676
0.0866816
0.0447907
0.0984329
0.110844
0.110201
0.182595
0.119778
0.233881
0.128154
0.230613
0.136774
0.15805
0.144258
0.0456463
0.148534
-0.0588457
0.149934
-0.128951
0.14953
-0.163659
0.148396
-0.171297
0.147136
-0.163816
0.146225
-0.146549
0.14613
-0.125671
0.147193
-0.0976385
0.148644
-0.0690101
0.149756
-0.0369368
0.150562
-0.011363
0.151899
0.0115231
0.154957
0.0254184
0.159182
0.0271972
0.165034
0.0271538
0.00506737
0.187359
0.0124664
-0.189688
0.185398
0.0116828
0.183323
0.0112091
0.181098
0.0107501
0.178771
0.0104124
0.176408
0.0103336
0.174072
0.0105722
0.17183
0.011145
0.169766
0.0120442
0.167942
0.0132187
0.166394
0.0145802
0.165231
0.0160607
0.164593
0.0175535
0.164616
0.0188608
0.165434
0.0197072
0.16715
0.0197429
0.169796
0.0184941
0.173326
0.015402
0.177563
0.00990593
0.182097
0.0014968
0.186408
-0.0104279
0.189709
-0.0257089
0.191129
-0.0436708
0.190041
-0.0628834
0.186396
-0.0812924
0.180592
-0.0969318
0.173245
-0.108406
0.164984
-0.115033
0.15639
-0.11676
0.147913
-0.113765
0.139682
-0.106389
0.132018
-0.0948987
0.125248
-0.0783918
0.117671
-0.056969
0.10671
-0.0352658
0.0935013
-0.0159479
0.0831153
0.00859922
0.0787324
0.0491736
0.0801845
0.109392
0.0858494
0.17693
0.0963036
0.223427
0.113284
0.213633
0.133974
0.13736
0.151174
0.0284462
0.161257
-0.0689287
0.164349
-0.132043
0.162767
-0.162077
0.158952
-0.167482
0.154516
-0.15938
0.150398
-0.142431
0.147119
-0.122392
0.145212
-0.0957312
0.144307
-0.0681057
0.143892
-0.0365218
0.143743
-0.0112139
0.144313
0.0109532
0.146361
0.0233707
0.14927
0.0242877
0.153253
0.0231714
0.002454
0.19976
0.0135782
-0.200872
0.198559
0.012884
0.197321
0.0124473
0.195944
0.0121274
0.194445
0.0119106
0.192902
0.0118768
0.191384
0.0120904
0.189955
0.0125741
0.188681
0.0133177
0.187625
0.0142755
0.186842
0.0153627
0.186413
0.0164899
0.186428
0.0175382
0.186978
0.018311
0.188142
0.0185432
0.189975
0.0179104
0.19247
0.0159984
0.195526
0.012346
0.198904
0.0065288
0.202313
-0.00191268
0.205156
-0.0132706
0.206785
-0.0273377
0.206565
-0.0434508
0.20408
-0.0603988
0.199325
-0.0765378
0.19265
-0.0902564
0.184637
-0.100393
0.175928
-0.106323
0.167066
-0.107898
0.158492
-0.10519
0.150349
-0.098246
0.142733
-0.0872829
0.136157
-0.071816