/*--------------------------------*- C++ -*----------------------------------*\
| =========                 |                                                 |
| \\      /  F ield         | OpenFOAM: The Open Source CFD Toolbox           |
|  \\    /   O peration     | Version:  2512                                  |
|   \\  /    A nd           | Website:  www.openfoam.com                      |
|    \\/     M anipulation  |                                                 |
\*---------------------------------------------------------------------------*/
FoamFile
{
    version     2.0;
    format      ascii;
    arch        "LSB;label=32;scalar=64";
    class       volVectorField;
    location    "53.5";
    object      U;
}
// * * * * * * * * * * * * * * * * * * * * * * * * * * * * * * * * * * * * * //

dimensions      [0 1 -1 0 0 0 0];

internalField   nonuniform List<vector> 
13248
(
(-0.0122986 0.0116864 6.71627e-20)
(-0.022408 0.024512 0)
(-0.0189296 0.0309419 -1.27115e-19)
(-0.00305002 0.0328963 1.19744e-19)
(0.0244518 0.0320071 1.12359e-19)
(0.0630375 0.02961 0)
(0.112248 0.0267327 0)
(0.171564 0.0241461 2.72793e-19)
(0.240252 0.0224138 -1.15166e-21)
(0.317229 0.0219154 -2.38633e-19)
(0.400978 0.0228602 2.21112e-19)
(0.489538 0.0252986 -1.38261e-19)
(0.580578 0.0291345 0)
(0.671534 0.0341461 -2.34563e-19)
(0.759791 0.0400147 4.36366e-19)
(0.842881 0.0463607 -1.03507e-19)
(0.918664 0.0527879 -1.81481e-19)
(0.985474 0.0589061 1.70367e-19)
(1.04223 0.0644375 0)
(1.08838 0.0689525 0)
(1.12432 0.0728605 0)
(1.14965 0.0743205 0)
(1.16823 0.0777343 4.95965e-20)
(1.17493 0.0720741 1.76579e-19)
(-0.0116901 0.00990488 -2.02869e-19)
(-0.0176168 0.0193785 1.38325e-19)
(-0.0069364 0.0234671 -1.11793e-21)
(0.0188701 0.0241023 -1.82934e-19)
(0.0588132 0.0229312 -1.12239e-19)
(0.112092 0.0213072 -1.0619e-19)
(0.177815 0.0202411 -1.95724e-19)
(0.254791 0.0204455 1.84848e-19)
(0.341354 0.0223659 0)
(0.435265 0.0261924 8.76325e-22)
(0.533735 0.0318717 1.74015e-21)
(0.633574 0.0391332 1.37799e-19)
(0.731426 0.0475326 0)
(0.82406 0.0565135 0)
(0.908645 0.0654787 1.58864e-19)
(0.982978 0.0738612 -2.98327e-19)
(1.04563 0.0811861 1.76647e-19)
(1.09601 0.0871133 -1.6584e-19)
(1.1343 0.0914645 -7.27715e-20)
(1.16144 0.0941906 -1.31167e-19)
(1.17872 0.095515 -5.42399e-20)
(1.1882 0.0951946 -1.01358e-19)
(1.19122 0.0952637 1.49714e-19)
(1.18936 0.0906567 4.29926e-20)
(-0.0102092 0.00785322 0)
(-0.0096895 0.0136541 0)
(0.0108708 0.0155139 6.4725e-20)
(0.0495371 0.0153235 5.97376e-20)
(0.104915 0.0147137 -1.31053e-21)
(0.175641 0.0150147 -1.09199e-19)
(0.259959 0.0171369 0)
(0.355481 0.0215939 -9.19539e-20)
(0.459078 0.0285249 8.61841e-20)
(0.566953 0.0377161 3.03715e-22)
(0.674901 0.0486497 -1.47391e-19)
(0.778687 0.0605885 -1.34817e-19)
(0.874476 0.0726877 2.67357e-21)
(0.959191 0.0841148 -1.10764e-19)
(1.03077 0.0941569 2.66408e-19)
(1.08828 0.1023 0)
(1.13187 0.108271 -1.7151e-19)
(1.1626 0.112032 8.32322e-20)
(1.18225 0.113768 7.27039e-20)
(1.19293 0.113757 0)
(1.19694 0.112547 5.91824e-20)
(1.19628 0.110125 -2.04566e-19)
(1.19265 0.108212 1.92032e-19)
(1.18817 0.10311 1.21587e-19)
(-0.007526 0.00555406 -7.16176e-20)
(0.00224493 0.00760245 -7.39841e-20)
(0.0357841 0.00773226 6.70128e-20)
(0.090466 0.00765398 0)
(0.164149 0.00888027 0)
(0.254418 0.0125976 -2.04614e-21)
(0.358053 0.019433 0)
(0.470886 0.0294604 -2.79466e-19)
(0.587934 0.0422531 2.59653e-19)
(0.70381 0.0569739 -3.20835e-19)
(0.813304 0.0725217 7.36073e-20)
(0.911967 0.0877157 0)
(0.99658 0.101479 1.22146e-19)
(1.0654 0.112984 -2.26077e-19)
(1.11815 0.12174 5.37341e-20)
(1.15587 0.127608 1.37552e-19)
(1.18053 0.130758 -6.28061e-21)
(1.19465 0.131588 -1.53403e-19)
(1.20088 0.130616 0)
(1.20169 0.128374 0)
(1.19912 0.12542 -5.48504e-20)
(1.19467 0.121873 4.92935e-20)
(1.18949 0.119041 1.76789e-19)
(1.18398 0.113741 -1.6596e-19)
(-0.00325419 0.00306855 -7.53082e-20)
(0.0190865 0.00159358 -7.50427e-20)
(0.0689488 0.000913226 2.1115e-19)
(0.142684 0.00232235 -1.28212e-19)
(0.23689 0.00701558 1.20685e-19)
(0.347442 0.0158022 2.19592e-19)
(0.469015 0.0287297 -1.55074e-19)
(0.595263 0.0451215 -1.887e-19)
(0.719412 0.0637445 3.6668e-21)
(0.835102 0.0830499 2.42007e-19)
(0.937199 0.101458 0)
(1.02235 0.117622 6.66885e-20)
(1.08921 0.130618 0)
(1.13827 0.140019 -1.08943e-19)
(1.17145 0.145867 1.53139e-19)
(1.19157 0.148564 1.34068e-21)
(1.20177 0.148728 -4.028e-20)
(1.20502 0.147042 7.51493e-20)
(1.20381 0.144143 6.52103e-20)
(1.20005 0.140546 -5.86064e-20)
(1.195 0.136649 5.48368e-20)
(1.18947 0.13257 -4.92809e-20)
(1.18383 0.129055 0)
(1.17855 0.12375 -3.80631e-20)
(0.00300327 0.000535146 7.52975e-20)
(0.0416408 -0.00382617 7.89227e-20)
(0.111155 -0.00395314 -7.07162e-20)
(0.206433 0.000694023 1.31677e-19)
(0.322149 0.0106661 -1.2394e-19)
(0.45177 0.0260316 1.1217e-19)
(0.587435 0.0458834 -5.37905e-20)
(0.720732 0.0685179 1.41692e-19)
(0.84388 0.0918273 -8.9046e-20)
(0.950845 0.113734 1.58107e-19)
(1.03804 0.132564 -3.65107e-19)
(1.10447 0.147278 1.34232e-19)
(1.15138 0.157528 -1.17813e-19)
(1.18157 0.163557 1.10659e-19)
(1.19862 0.166011 9.58002e-20)
(1.20616 0.165719 8.42457e-20)
(1.2074 0.163509 -2.34619e-19)
(1.20484 0.160091 1.45597e-19)
(1.20023 0.156 -6.5212e-20)
(1.1947 0.151601 1.70962e-19)
(1.18888 0.147124 -5.51058e-20)
(1.18312 0.142645 -1.35638e-19)
(1.17758 0.138572 1.25417e-19)
(1.1724 0.133279 3.80496e-20)
(0.0116023 -0.00180773 0)
(0.0704825 -0.00790594 6.19043e-22)
(0.162631 -0.00568726 1.47501e-19)
(0.280933 0.00418418 -1.38389e-19)
(0.417429 0.0211532 -1.24838e-19)
(0.562678 0.0440914 2.32084e-19)
(0.70638 0.0708001 -1.0781e-19)
(0.838935 0.0984763 1.44004e-19)
(0.953016 0.124383 -2.98206e-21)
(1.04451 0.146396 -8.17524e-20)
(1.11261 0.163292 1.79011e-19)
(1.15923 0.17478 -2.64402e-19)
(1.18798 0.181306 0)
(1.20319 0.183761 -5.21349e-20)
(1.20897 0.183192 -1.39531e-19)
(1.20878 0.180577 4.38939e-20)
(1.20515 0.176705 1.65243e-21)
(1.1998 0.172142 -9.71833e-20)
(1.19376 0.167258 5.72149e-21)
(1.1876 0.162277 1.12561e-19)
(1.1816 0.157322 -5.03854e-20)
(1.17589 0.152462 -1.95812e-20)
(1.17047 0.147854 5.96889e-20)
(1.16541 0.142521 0)
(0.022804 -0.00362314 0)
(0.105818 -0.009718 3.99894e-20)
(0.222864 -0.00300276 -1.92309e-19)
(0.364257 0.0140973 6.99165e-20)
(0.518849 0.0393582 -6.58039e-20)
(0.674293 0.0700224 -6.015e-20)
(0.818718 0.10248 -1.0655e-19)
(0.942908 0.133105 5.30519e-20)
(1.0417 0.159095 4.62837e-20)
(1.11414 0.178894 0)
(1.16264 0.192192 1.06252e-19)
(1.1916 0.199621 -1.58428e-19)
(1.2061 0.202336 1.17995e-19)
(1.21084 0.201626 5.21609e-20)
(1.20959 0.19865 -4.29631e-20)
(1.20507 0.194309 -3.60926e-20)
(1.199 0.189227 -3.37793e-20)
(1.19242 0.183802 1.00717e-19)
(1.18584 0.178265 0)
(1.17954 0.172748 5.11286e-20)
(1.17359 0.167322 4.34381e-20)
(1.168 0.162033 -1.0733e-19)
(1.16273 0.156892 -7.42514e-20)
(1.15777 0.151482 6.86245e-20)
(0.0367259 -0.00449435 -4.31376e-20)
(0.147374 -0.00823316 -1.59392e-21)
(0.290508 0.00534565 3.91116e-20)
(0.453401 0.0314218 1.09235e-19)
(0.621594 0.065544 3.18078e-20)
(0.780579 0.103098 -6.14652e-20)
(0.918512 0.139317 5.61733e-20)
(1.02839 0.170375 -4.93863e-20)
(1.10853 0.194106 8.87201e-20)
(1.16156 0.210027 3.79519e-20)
(1.1926 0.218911 -1.07653e-19)
(1.2076 0.2222 3.18158e-20)
(1.21197 0.221483 5.449e-20)
(1.21001 0.21816 -2.67884e-20)
(1.20469 0.213294 0)
(1.1979 0.207606 4.02212e-20)
(1.1907 0.201542 6.83414e-20)
(1.18362 0.195357 1.19001e-20)
(1.1769 0.189191 -5.71634e-20)
(1.17062 0.183119 2.40523e-20)
(1.16479 0.177184 0)
(1.15933 0.171404 -1.90873e-20)
(1.1542 0.165737 -1.81742e-20)
(1.14932 0.160163 0)
(0.0532915 -0.0039596 0)
(0.19432 -0.00243435 2.26003e-20)
(0.363381 0.0203851 4.1768e-20)
(0.54455 0.0566511 -1.11364e-19)
(0.720593 0.0993004 3.59641e-20)
(0.876346 0.142015 0)
(1.00193 0.179521 5.43077e-20)
(1.09404 0.208594 -7.58513e-20)
(1.15498 0.228293 -4.43144e-20)
(1.19051 0.239425 2.00693e-20)
(1.2075 0.243736 -3.22384e-20)
(1.21233 0.243194 7.82206e-20)
(1.21002 0.239532 3.93339e-20)
(1.20404 0.234053 -2.72818e-20)
(1.19651 0.227627 -2.49358e-21)
(1.18861 0.22078 -7.52618e-20)
(1.18093 0.213806 3.43166e-20)
(1.17371 0.206861 -8.86072e-22)
(1.16702 0.200027 0)
(1.16086 0.193349 -2.40773e-20)
(1.15518 0.18685 0)
(1.14989 0.180521 5.51004e-20)
(1.1449 0.174338 -6.58381e-20)
(1.14011 0.168506 3.00922e-20)
(0.0721914 -0.00155453 -1.17864e-20)
(0.245245 0.00856544 -5.6869e-20)
(0.438609 0.0427731 6.46908e-20)
(0.633504 0.0896928 3.8028e-20)
(0.811214 0.139633 -1.81475e-20)
(0.95789 0.185182 3.0605e-20)
(1.06733 0.221465 -1.48438e-20)
(1.14068 0.246594 2.4808e-20)
(1.18392 0.261166 0)
(1.20497 0.267209 5.64691e-20)
(1.21143 0.267161 -2.27598e-21)
(1.20933 0.263216 -4.5678e-20)
(1.20287 0.257031 1.96063e-20)
(1.19462 0.249703 -2.21835e-20)
(1.18597 0.241887 -8.48325e-21)
(1.1776 0.233941 9.77391e-21)
(1.16979 0.226048 -7.56768e-21)
(1.1626 0.218301 -4.12954e-20)
(1.15605 0.210746 2.5313e-20)
(1.15008 0.203411 5.207e-21)
(1.14459 0.196299 4.60636e-21)
(1.1395 0.189385 4.07903e-21)
(1.13469 0.182706 0)
(1.13001 0.176499 0)
(0.0929365 0.0031534 1.17945e-20)
(0.29835 0.0254317 -1.17866e-20)
(0.513025 0.0726976 -2.15542e-20)
(0.716312 0.129876 0)
(0.889888 0.185149 -9.01639e-21)
(1.02319 0.230999 -8.13705e-21)
(1.11479 0.263876 -1.3961e-20)
(1.17022 0.283706 0)
(1.19832 0.292647 0)
(1.20813 0.293687 0)
(1.20713 0.289643 0)
(1.20056 0.28269 0)
(1.19169 0.274277 -1.23097e-20)
(1.18227 0.265265 5.60635e-21)
(1.17316 0.256116 9.78045e-21)
(1.16469 0.247058 4.58145e-21)
(1.15696 0.238199 1.13577e-20)
(1.14997 0.22959 0)
(1.14365 0.221257 -2.74443e-21)
(1.13795 0.213212 -2.63864e-21)
(1.13274 0.205442 -4.61369e-21)
(1.12792 0.197921 -4.08553e-21)
(1.12336 0.190764 0)
(1.11888 0.184068 2.97166e-21)
(-0.00105446 -0.00338782 7.01309e-21)
(-0.00544536 -0.0106946 -7.28206e-21)
(-0.0136436 -0.0181361 -1.3793e-20)
(-0.0238037 -0.0252309 0)
(-0.034895 -0.0317261 -1.84527e-20)
(-0.046377 -0.0375751 5.78507e-21)
(-0.0578655 -0.0428692 -1.09468e-20)
(-0.0690868 -0.0477739 0)
(-0.0798615 -0.0524739 0)
(-0.0900755 -0.0571335 0)
(-0.0996578 -0.0618724 0)
(-0.108563 -0.0667569 0)
(-0.116762 -0.0718012 -1.19927e-23)
(-0.124231 -0.0769748 -7.13827e-21)
(-0.13095 -0.0822092 1.34233e-20)
(-0.136897 -0.0874043 1.88854e-20)
(-0.142056 -0.0924314 5.8915e-21)
(-0.146417 -0.097135 0)
(-0.149988 -0.101334 5.18619e-21)
(-0.152812 -0.104826 -1.45342e-20)
(-0.154957 -0.1074 -9.02683e-21)
(-0.156504 -0.108826 -8.42208e-21)
(-0.157631 -0.108832 0)
(-0.158947 -0.107169 0)
(-0.00125728 0.000274807 -2.11025e-20)
(-0.00589904 -0.00206738 3.63988e-20)
(-0.0143441 -0.00626696 -1.37717e-20)
(-0.0247168 -0.0113303 -2.61378e-20)
(-0.0359759 -0.0166632 3.69088e-20)
(-0.0475805 -0.0219773 -2.32769e-20)
(-0.059145 -0.0271821 3.28381e-20)
(-0.0703948 -0.0323086 2.07347e-20)
(-0.0811507 -0.0374455 0)
(-0.0913017 -0.0426905 -1.82781e-20)
(-0.10078 -0.0481216 -3.06033e-23)
(-0.109544 -0.0537806 1.61478e-20)
(-0.117566 -0.0596707 2.28793e-20)
(-0.124826 -0.0657586 2.85892e-20)
(-0.131301 -0.0719773 -1.345e-20)
(-0.136966 -0.0782268 -3.77541e-20)
(-0.141797 -0.0843729 1.17144e-20)
(-0.145769 -0.0902426 -4.40612e-20)
(-0.148875 -0.0956191 0)
(-0.151141 -0.100242 9.65388e-21)
(-0.152614 -0.103813 9.01577e-21)
(-0.153297 -0.105998 8.41163e-21)
(-0.153304 -0.106404 0)
(-0.153757 -0.104724 0)
(-0.00187992 0.00396173 0)
(-0.00718234 0.00662933 7.34992e-20)
(-0.0158676 0.0057084 -2.77179e-20)
(-0.0261899 0.00269769 2.62127e-20)
(-0.0371836 -0.00146495 -7.44294e-20)
(-0.0483522 -0.00624149 0)
(-0.0593374 -0.0113513 -4.41621e-20)
(-0.0698815 -0.0166839 2.08218e-20)
(-0.0798147 -0.0222271 -3.93371e-20)
(-0.0890328 -0.0280123 1.86581e-20)
(-0.0974736 -0.0340741 1.04199e-19)
(-0.105097 -0.0404326 -4.89373e-20)
(-0.11188 -0.0470836 -7.64516e-20)
(-0.117801 -0.0539984 -2.87216e-20)
(-0.122838 -0.06112 1.5627e-22)
(-0.126963 -0.0683607 1.00704e-19)
(-0.130143 -0.0755966 -4.71794e-20)
(-0.132338 -0.0826572 1.85632e-23)
(-0.133512 -0.0893122 0)
(-0.13366 -0.0952578 -3.7837e-20)
(-0.132793 -0.100108 0)
(-0.130806 -0.103389 -3.22209e-20)
(-0.127616 -0.104536 1.19935e-19)
(-0.124856 -0.10309 -8.77205e-22)
(-0.00288162 0.00741754 0)
(-0.00921019 0.0148437 3.09237e-22)
(-0.0181051 0.0170875 2.8177e-20)
(-0.0280957 0.016083 -2.6666e-20)
(-0.0383705 0.0130794 2.47662e-20)
(-0.0485182 0.00885079 1.41768e-19)
(-0.0582343 0.0038629 -4.4435e-20)
(-0.0672934 -0.00163299 -4.21369e-20)
(-0.0755454 -0.00752339 7.89961e-20)
(-0.0828924 -0.0137698 -1.11355e-19)
(-0.0892722 -0.0203631 3.50767e-20)
(-0.0946462 -0.0273017 3.30047e-20)
(-0.0989891 -0.034577 0)
(-0.102282 -0.0421624 2.88009e-20)
(-0.1045 -0.0500142 0)
(-0.105616 -0.0580656 5.07479e-20)
(-0.105597 -0.0662184 -9.39182e-20)
(-0.104401 -0.0743304 2.28313e-20)
(-0.10198 -0.0821958 8.19392e-20)
(-0.0983045 -0.089517 3.78033e-20)
(-0.0933757 -0.0958656 0)
(-0.0870393 -0.100631 -9.52904e-20)
(-0.0788042 -0.102977 3.02684e-20)
(-0.0701115 -0.102018 0)
(-0.00417791 0.0104164 0)
(-0.0118154 0.0220762 -8.97297e-20)
(-0.0208643 0.0272208 -2.86367e-20)
(-0.030236 0.0281008 -5.35737e-20)
(-0.0393326 0.0262142 5.04469e-20)
(-0.0478606 0.0225395 -4.74017e-20)
(-0.0555896 0.0177101 8.99281e-20)
(-0.0623384 0.0121093 4.22626e-20)
(-0.0679769 0.00594979 -1.19337e-19)
(-0.0724142 -0.000658756 7.50623e-20)
(-0.0755858 -0.0076639 -1.05635e-19)
(-0.0774462 -0.0150377 2.32455e-19)
(-0.0779556 -0.0227582 -1.24484e-19)
(-0.0770818 -0.0307966 5.85605e-20)
(-0.0747994 -0.0391171 1.63478e-19)
(-0.0710815 -0.0476669 -5.14314e-20)
(-0.0659023 -0.0563711 -4.84555e-20)
(-0.0592371 -0.0651231 -4.43927e-20)
(-0.0510593 -0.0737667 0)
(-0.0413581 -0.082067 -7.43464e-20)
(-0.0301898 -0.0896576 -6.64547e-20)
(-0.0175575 -0.0959114 9.64575e-20)
(-0.00269835 -0.0996114 1.12895e-19)
(0.0151763 -0.0987017 -1.06036e-19)
(-0.00565408 0.0127898 0)
(-0.0147683 0.0279299 -1.21826e-19)
(-0.0238827 0.0355651 -5.78533e-22)
(-0.032343 0.0381176 1.08168e-19)
(-0.0397984 0.0372548 0)
(-0.0460918 0.0341145 0)
(-0.0510802 0.0294706 0)
(-0.0546325 0.0238227 -4.26097e-20)
(-0.0566392 0.0174747 -9.82981e-23)
(-0.0570097 0.0106035 7.57826e-20)
(-0.0556663 0.00330981 -1.06349e-19)
(-0.0525419 -0.00434537 4.32551e-23)
(-0.047575 -0.0123178 0)
(-0.0407121 -0.0205707 -5.85351e-20)
(-0.0319088 -0.0290578 5.48498e-20)
(-0.021132 -0.037721 -1.54357e-19)
(-0.00836524 -0.0464864 1.9016e-19)
(0.00638786 -0.0552581 4.23757e-20)
(0.0231034 -0.0639102 -2.97253e-21)
(0.0417272 -0.0722754 -1.51835e-19)
(0.0621199 -0.0801163 -6.86849e-20)
(0.0841318 -0.086964 2.16587e-19)
(0.10843 -0.0914648 -1.43075e-19)
(0.138044 -0.0906182 0)
(-0.00718423 0.0144427 6.00131e-20)
(-0.0178044 0.0321427 6.10857e-20)
(-0.0268442 0.0417211 -5.85376e-20)
(-0.0340789 0.0456302 -1.0977e-19)
(-0.0394086 0.0456246 1.0336e-19)
(-0.0428172 0.042951 -9.75656e-20)
(-0.0442522 0.0384897 1.37979e-19)
(-0.0436327 0.0328352 -4.26151e-20)
(-0.0408662 0.0263707 8.13896e-20)
(-0.0358548 0.0193364 0)
(-0.028498 0.0118814 7.23048e-20)
(-0.0186984 0.00410367 -1.35852e-19)
(-0.00636659 -0.00392681 1.26533e-19)
(0.00857621 -0.0121467 -1.18846e-19)
(0.0261897 -0.0204865 0)
(0.0465006 -0.028867 1.03192e-19)
(0.0694959 -0.0371919 1.90781e-19)
(0.0951138 -0.0453442 -1.78885e-19)
(0.123237 -0.0531842 -8.18963e-20)
(0.153689 -0.0605511 -7.31747e-20)
(0.186177 -0.0672733 2.078e-19)
(0.220516 -0.0730811 5.95524e-20)
(0.255502 -0.0773212 -5.81921e-20)
(0.302589 -0.0755258 4.95958e-20)
(-0.00865085 0.0153578 -6.00212e-20)
(-0.0206518 0.0346015 1.8799e-19)
(-0.029393 0.0454584 -5.92974e-20)
(-0.0350268 0.0503006 1.11201e-19)
(-0.0376824 0.0508999 -1.04706e-19)
(-0.0374747 0.0485634 5.1478e-22)
(-0.0344356 0.0442431 4.66605e-20)
(-0.0285283 0.0386041 1.7576e-19)
(-0.019671 0.0320948 6.34051e-23)
(-0.00775357 0.0250116 -7.70134e-20)
(0.00734868 0.0175516 0)
(0.0257578 0.00985114 -6.82607e-20)
(0.0475791 0.00201662 1.2788e-19)
(0.072888 -0.00585395 1.19077e-19)
(0.101711 -0.0136623 -5.60117e-20)
(0.13401 -0.0212992 1.64392e-22)
(0.169665 -0.0286381 -4.80385e-20)
(0.208467 -0.0355331 8.88877e-20)
(0.250109 -0.0418195 8.18727e-20)
(0.294213 -0.0473065 -7.50559e-20)
(0.340059 -0.0518718 6.80706e-20)
(0.388368 -0.0549655 -6.15162e-20)
(0.432327 -0.0578058 0)
(0.499628 -0.0527502 -4.95128e-20)
(-0.00995899 0.0155865 6.15663e-20)
(-0.0230481 0.0353338 -6.29866e-20)
(-0.0311332 0.0467214 6.02669e-20)
(-0.0346643 0.0519811 0)
(-0.0339607 0.0528542 0)
(-0.0292469 0.0506713 1.00856e-19)
(-0.020624 0.0464242 -9.38729e-20)
(-0.0080896 0.040826 8.86505e-20)
(0.00843143 0.0343765 -4.15088e-19)
(0.0290557 0.027422 1.21372e-22)
(0.0539114 0.0202057 7.33164e-20)
(0.0831089 0.0129081 0)
(0.116711 0.00567722 -1.28045e-19)
(0.154701 -0.00135577 2.39753e-19)
(0.19696 -0.00806228 -1.68024e-19)
(0.243249 -0.0143084 -2.58338e-19)
(0.293189 -0.0199519 2.9305e-21)
(0.346266 -0.0248414 1.78799e-19)
(0.401817 -0.0288274 0)
(0.459216 -0.0316831 0)
(0.516816 -0.0335901 -6.80592e-20)
(0.577381 -0.033036 6.15049e-20)
(0.626283 -0.0340395 -2.14523e-19)
(0.708203 -0.0247983 2.01346e-19)
(-0.01104 0.0152272 0)
(-0.0247375 0.0344779 0)
(-0.0316079 0.0456161 -1.81669e-19)
(-0.0323173 0.0507264 5.76961e-20)
(-0.0273302 0.0515012 1.82322e-22)
(-0.0169541 0.0492716 1.02005e-19)
(-0.00134156 0.0450475 0)
(0.0194831 0.0395729 -8.93241e-20)
(0.0455764 0.033389 8.32877e-20)
(0.0770263 0.0268864 -1.57029e-19)
(0.113901 0.0203536 2.56746e-22)
(0.156196 0.0140138 1.37339e-19)
(0.203789 0.00804761 -7.35438e-22)
(0.256401 0.00260984 1.18579e-19)
(0.313568 -0.00216182 -1.68735e-19)
(0.374632 -0.00614309 0)
(0.438749 -0.00922261 1.89848e-19)
(0.504918 -0.0113016 -2.6673e-19)
(0.571985 -0.0123235 8.03455e-20)
(0.639007 -0.012068 0)
(0.703572 -0.011143 6.65368e-20)
(0.769549 -0.00725727 2.37874e-19)
(0.818993 -0.00640996 -2.23243e-19)
(0.901979 0.00594553 -2.41451e-19)
(-0.0118407 0.0143951 1.90719e-19)
(-0.0254455 0.0322407 -2.62469e-19)
(-0.0302573 0.0423837 3.75035e-22)
(-0.0271043 0.0467998 5.84945e-20)
(-0.0165554 0.0471408 -1.0935e-19)
(0.00102302 0.0447311 -1.01466e-19)
(0.0254334 0.0405875 1.91019e-19)
(0.0566052 0.035479 -1.11137e-21)
(0.094526 0.029977 -1.68405e-19)
(0.139155 0.0245069 3.14744e-19)
(0.190346 0.0193898 -7.7199e-22)
(0.24778 0.0148693 -1.38201e-19)
(0.310905 0.0111282 0)
(0.378907 0.00829838 0)
(0.450714 0.0064654 -5.5744e-20)
(0.525021 0.00567031 -1.0238e-19)
(0.600353 0.00591263 -1.87938e-19)
(0.67514 0.0071506 1.76415e-19)
(0.747804 0.00930082 -8.03747e-20)
(0.816986 0.0123584 1.43101e-19)
(0.880728 0.0157632 -7.12672e-20)
(0.941104 0.0210927 1.12729e-19)
(0.985854 0.0232116 -2.73205e-19)
(1.05179 0.0350467 4.85164e-20)
(-0.0122939 0.0131903 6.44629e-20)
(-0.0248257 0.0288477 0)
(-0.0263558 0.0373653 1.25104e-19)
(-0.0178669 0.0406698 -1.17852e-19)
(-1.57194e-05 0.0403917 1.09448e-19)
(0.026776 0.0378534 0)
(0.062242 0.0340794 0)
(0.106186 0.0298478 -9.0212e-20)
(0.158377 0.0257418 8.14824e-22)
(0.218436 0.022198 7.95676e-20)
(0.285729 0.0195273 -7.33902e-20)
(0.359297 0.0179334 1.38292e-19)
(0.437832 0.0175229 0)
(0.5197 0.0183126 2.36753e-19)
(0.603016 0.0202365 -4.41217e-19)
(0.685748 0.0231571 3.07977e-19)
(0.765855 0.0268827 1.85166e-19)
(0.841407 0.0311686 -1.73819e-19)
(0.910763 0.035808 0)
(0.972501 0.0404287 0)
(1.02595 0.0450616 0)
(1.07067 0.0492229 0)
(1.10468 0.0522252 5.32915e-20)
(1.14201 0.058941 -1.87903e-19)
(-0.161587 -0.103526 -5.25139e-21)
(-0.164311 -0.0968234 5.2746e-21)
(-0.166537 -0.0860953 -1.54739e-22)
(-0.168488 -0.0709391 0)
(-0.169983 -0.0508585 -4.80043e-21)
(-0.170801 -0.0254488 9.31125e-21)
(-0.17082 0.0056031 -3.2882e-23)
(-0.169963 0.0422305 -4.35744e-21)
(-0.167945 0.083898 0)
(-0.16439 0.12981 0)
(-0.159014 0.178703 -2.23735e-22)
(-0.151598 0.228796 -2.12038e-22)
(-0.141928 0.277687 -3.5011e-21)
(-0.129728 0.32249 3.20776e-21)
(-0.114559 0.360016 0)
(-0.0955847 0.386511 0)
(-0.0715122 0.39781 2.76546e-21)
(-0.0408599 0.389771 8.332e-23)
(-0.00239645 0.358576 -2.51439e-21)
(0.0441136 0.301699 -1.84181e-22)
(0.0974058 0.21925 0)
(0.155017 0.114256 0)
(0.213775 -0.00685251 0)
(0.272149 -0.135238 0)
(0.328606 -0.25776 0)
(0.378974 -0.359584 0)
(0.418179 -0.430241 5.67895e-22)
(0.441556 -0.469176 -9.39846e-22)
(0.442582 -0.487876 0)
(0.413547 -0.503357 0)
(0.35954 -0.5177 -4.56334e-22)
(0.310221 -0.502566 4.43522e-22)
(0.301336 -0.420683 2.28763e-22)
(0.336892 -0.268506 0)
(0.398079 -0.0790972 0)
(0.468676 0.105328 5.052e-22)
(0.534134 0.252779 -4.9106e-22)
(0.584046 0.348269 0)
(0.618313 0.391308 2.67314e-22)
(0.631168 0.400842 -3.78191e-22)
(0.600262 0.40828 1.02054e-22)
(0.532251 0.412892 0)
(0.480417 0.36896 -1.98983e-22)
(0.489676 0.248666 1.93487e-22)
(0.546179 0.0860874 0)
(0.618723 -0.061927 0)
(0.680465 -0.16545 -6.16692e-23)
(0.725707 -0.216858 1.64774e-22)
(0.752188 -0.228578 0)
(0.760023 -0.215043 0)
(0.736555 -0.197684 -8.06377e-24)
(0.705138 -0.168747 4.0698e-24)
(0.682867 -0.127606 -4.05551e-25)
(0.703198 -0.067142 1.70622e-24)
(0.73394 -0.00879155 0)
(0.781109 0.0348728 0)
(0.805529 0.067101 0)
(0.829561 0.0680857 0)
(0.828177 0.0815598 0)
(0.835952 0.0530104 0)
(-0.157079 -0.100851 -4.84375e-22)
(-0.160779 -0.0948415 -1.98854e-20)
(-0.163525 -0.0847312 3.92859e-22)
(-0.1661 -0.0702512 1.83007e-20)
(-0.168224 -0.0509474 2.65285e-22)
(-0.169619 -0.0265061 0)
(-0.170081 0.00323029 -1.59195e-20)
(-0.169559 0.0385178 3.1177e-20)
(-0.167628 0.0785904 -1.52541e-20)
(-0.16361 0.122708 1.4087e-20)
(-0.156924 0.169682 -1.34686e-20)
(-0.147102 0.217889 1.25999e-20)
(-0.133646 0.264842 -1.22093e-20)
(-0.115916 0.307554 -3.54326e-22)
(-0.0933415 0.342871 -1.14174e-20)
(-0.0652416 0.366557 1.10955e-20)
(-0.0306135 0.374708 -1.14522e-20)
(0.011275 0.363157 1.0766e-20)
(0.0604355 0.328396 -1.24264e-20)
(0.115997 0.268669 2.47957e-20)
(0.175833 0.184736 -1.23498e-20)
(0.237181 0.0798264 -8.34253e-22)
(0.297458 -0.040939 -1.24383e-20)
(0.3557 -0.168284 2.34642e-20)
(0.410124 -0.288709 -1.10561e-20)
(0.456001 -0.385889 5.69423e-22)
(0.488146 -0.44904 6.73051e-21)
(0.503932 -0.477659 -1.02642e-21)
(0.50072 -0.482437 -9.07686e-21)
(0.470506 -0.482726 7.41961e-21)
(0.410219 -0.489643 -3.34201e-21)
(0.341086 -0.483473 3.48627e-22)
(0.304146 -0.422061 -2.29213e-22)
(0.318828 -0.287394 4.12865e-22)
(0.368868 -0.1069 0)
(0.434064 0.0757493 0)
(0.498798 0.227248 -1.52637e-21)
(0.553136 0.329466 1.15769e-21)
(0.59327 0.38125 7.8141e-22)
(0.605307 0.404319 5.03945e-24)
(0.569636 0.425432 -9.90812e-22)
(0.506269 0.431738 2.18605e-22)
(0.471979 0.374429 0)
(0.499403 0.237637 0)
(0.567308 0.0663209 0)
(0.644856 -0.0819887 0)
(0.707113 -0.180881 3.26038e-22)
(0.748821 -0.226835 -1.04894e-22)
(0.771937 -0.233534 0)
(0.780742 -0.213941 0)
(0.762678 -0.191206 0)
(0.729997 -0.161677 -1.59869e-24)
(0.69827 -0.125715 7.74041e-24)
(0.702825 -0.0715181 -6.00745e-24)
(0.722863 -0.0164553 0)
(0.763633 0.0276648 0)
(0.78536 0.062179 -2.9563e-25)
(0.811317 0.0656838 -7.17299e-24)
(0.809232 0.0807638 0)
(0.826846 0.0516476 0)
(-0.127065 -0.0989931 -5.07073e-22)
(-0.131784 -0.0940779 -3.8629e-20)
(-0.134582 -0.0848703 3.6409e-20)
(-0.137179 -0.0713413 -3.40732e-20)
(-0.139252 -0.0530592 -2.67106e-22)
(-0.140572 -0.0297725 0)
(-0.14059 -0.00138432 -2.93477e-20)
(-0.139454 0.032132 2.87077e-20)
(-0.136934 0.0702928 2.2117e-22)
(-0.131882 0.11225 3.73902e-22)
(-0.123429 0.156852 3.57534e-22)
(-0.11103 0.202753 3.84202e-22)
(-0.0940884 0.247369 -2.25669e-20)
(-0.0715638 0.28738 2.22878e-20)
(-0.043008 0.319802 0)
(-0.00786717 0.340759 6.79532e-22)
(0.0346036 0.346321 -2.3531e-20)
(0.0842119 0.332266 2.32289e-20)
(0.140274 0.295615 0)
(0.201248 0.235144 0)
(0.264595 0.151846 -2.8817e-20)
(0.327418 0.0485831 5.67174e-20)
(0.387824 -0.0701503 -5.37017e-20)
(0.445232 -0.19571 2.44452e-21)
(0.497003 -0.313476 4.37337e-20)
(0.537511 -0.405827 -3.78985e-20)
(0.56159 -0.462026 2.89507e-20)
(0.568038 -0.482444 -3.47019e-21)
(0.558356 -0.476558 -9.90821e-21)
(0.527713 -0.462639 0)
(0.466954 -0.458374 0)
(0.385454 -0.455886 1.98311e-21)
(0.322078 -0.414702 -2.54185e-21)
(0.311858 -0.30212 -9.31785e-23)
(0.348028 -0.134045 3.19838e-21)
(0.406561 0.0454703 -3.10833e-21)
(0.469848 0.199822 0)
(0.527497 0.30848 3.27308e-22)
(0.570454 0.370663 2.35075e-21)
(0.579431 0.408826 -4.39206e-21)
(0.54104 0.442202 1.84223e-21)
(0.48646 0.447129 2.68186e-22)
(0.470869 0.375503 -2.71892e-21)
(0.515021 0.223932 2.11056e-21)
(0.592834 0.0458366 5.63896e-22)
(0.673856 -0.101741 4.73189e-22)
(0.735658 -0.195319 -3.26854e-22)
(0.773497 -0.235601 0)
(0.792022 -0.238025 0)
(0.799528 -0.213725 -2.68282e-22)
(0.786624 -0.185744 1.09563e-22)
(0.755864 -0.154028 -8.01541e-24)
(0.718944 -0.121406 -1.04062e-23)
(0.709212 -0.073062 -1.9587e-23)
(0.717679 -0.022152 -5.25249e-24)
(0.749953 0.0215346 -4.32523e-25)
(0.767983 0.0574196 3.58484e-24)
(0.795634 0.0631142 -6.41339e-24)
(0.793769 0.0790298 0)
(0.822162 0.0493232 0)
(-0.0701391 -0.0971457 -7.67796e-20)
(-0.0768898 -0.0937485 3.10174e-21)
(-0.0802329 -0.0859253 6.97537e-20)
(-0.0831337 -0.0737934 -5.25286e-22)
(-0.0852458 -0.0569358 0)
(-0.0863536 -0.0351519 0)
(-0.0860281 -0.00845578 -5.30918e-20)
(-0.0841752 0.0232051 1.06955e-21)
(-0.0805551 0.0593082 7.23393e-20)
(-0.0742894 0.098738 -7.79661e-22)
(-0.0639897 0.140676 -2.23023e-20)
(-0.0491084 0.183548 -2.05625e-20)
(-0.0296362 0.224896 2.05905e-20)
(-0.00396472 0.262156 0)
(0.0289577 0.291871 -2.16422e-20)
(0.0690711 0.310597 1.96735e-20)
(0.116481 0.31413 0)
(0.170656 0.298708 0)
(0.230487 0.261781 2.72044e-20)
(0.294033 0.202342 2.16463e-21)
(0.358601 0.121337 -2.68953e-20)
(0.421568 0.0209202 -3.01958e-20)
(0.481642 -0.0947897 3.02698e-20)
(0.53806 -0.218023 -2.6237e-20)
(0.586933 -0.332852 3.65851e-21)
(0.621427 -0.420258 2.11341e-20)
(0.636866 -0.469642 1.90024e-21)
(0.63329 -0.483108 3.67764e-24)
(0.614993 -0.469842 0)
(0.582578 -0.444585 5.59999e-21)
(0.525395 -0.427122 -5.7189e-21)
(0.440153 -0.421678 2.84337e-22)
(0.355722 -0.396933 0)
(0.317425 -0.309973 -3.23918e-22)
(0.335658 -0.159278 5.09413e-21)
(0.386166 0.0147032 -9.44175e-21)
(0.447259 0.17081 -3.61653e-22)
(0.506287 0.286136 2.6185e-22)
(0.548953 0.360239 3.71381e-21)
(0.554007 0.41392 4.83777e-22)
(0.515853 0.457399 -4.02095e-21)
(0.473445 0.458496 3.41733e-21)
(0.476756 0.372697 -6.45348e-23)
(0.536289 0.208339 2.48436e-21)
(0.622548 0.0252516 -2.98078e-21)
(0.705394 -0.120796 -3.25166e-21)
(0.76547 -0.208652 9.44378e-22)
(0.799182 -0.24309 7.96603e-22)
(0.81265 -0.241691 -1.23379e-21)
(0.816916 -0.214029 6.02717e-22)
(0.8079 -0.181542 -5.25449e-24)
(0.781099 -0.146651 8.99391e-23)
(0.743221 -0.115461 -4.89128e-24)
(0.722059 -0.071989 7.02912e-23)
(0.719231 -0.0256486 -1.20048e-23)
(0.741576 0.0167517 1.80951e-23)
(0.755223 0.0529315 0)
(0.784198 0.0602999 6.08207e-24)
(0.783563 0.0762029 -8.49609e-24)
(0.822617 0.046002 0)
(0.0177404 -0.0941771 7.5292e-20)
(0.00703011 -0.0916937 -1.43604e-19)
(0.00146011 -0.0861082 6.76957e-20)
(-0.00322557 -0.0761063 6.044e-20)
(-0.00681221 -0.0613204 -1.15239e-19)
(-0.00909947 -0.0417082 2.88384e-21)
(-0.00918747 -0.0171826 5.09528e-20)
(-0.0071678 0.011698 4.52887e-20)
(-0.00345982 0.045022 -4.43773e-20)
(0.00328941 0.08162 0)
(0.0145763 0.120684 -3.97378e-20)
(0.0307622 0.160278 7.77167e-20)
(0.052212 0.198486 -3.80485e-20)
(0.0802084 0.233276 0)
(0.115466 0.260833 0)
(0.158098 0.27763 6.77758e-22)
(0.207907 0.279853 -4.83515e-20)
(0.264108 0.264184 4.69683e-20)
(0.325287 0.22828 0)
(0.389366 0.171199 6.07611e-20)
(0.453668 0.0936558 -1.18056e-19)
(0.516156 -0.00270644 1.19632e-19)
(0.575927 -0.114876 -1.18646e-19)
(0.631591 -0.235204 3.77178e-21)
(0.67746 -0.346405 9.72981e-20)
(0.705305 -0.428502 -4.47469e-20)
(0.711555 -0.471361 -9.66625e-22)
(0.698193 -0.47889 -9.33053e-21)
(0.670685 -0.461024 2.58644e-21)
(0.634215 -0.428618 6.9733e-21)
(0.581676 -0.398977 2.80932e-22)
(0.50039 -0.385199 -3.02611e-21)
(0.403817 -0.369783 5.94578e-21)
(0.337595 -0.308456 -3.22942e-21)
(0.332353 -0.1806 0)
(0.372006 -0.0159826 -4.57905e-21)
(0.429639 0.140644 4.4524e-21)
(0.487854 0.263055 -3.44726e-21)
(0.52799 0.350028 4.27309e-21)
(0.529763 0.418606 -4.63901e-22)
(0.495246 0.469853 0)
(0.467443 0.465606 -5.79531e-22)
(0.489227 0.366649 1.97874e-21)
(0.562892 0.191421 0)
(0.656172 0.0045493 6.18297e-21)
(0.739201 -0.13877 -2.54434e-21)
(0.796122 -0.220681 7.58366e-22)
(0.825272 -0.249276 5.25685e-22)
(0.83372 -0.24431 0)
(0.833483 -0.214435 0)
(0.826507 -0.178573 -1.1578e-22)
(0.804435 -0.140202 8.10071e-24)
(0.769203 -0.10876 7.57952e-23)
(0.740425 -0.0687983 -5.3562e-23)
(0.727842 -0.0269469 -7.2348e-23)
(0.739812 0.0134566 -1.81124e-23)
(0.74882 0.0487974 4.24539e-23)
(0.778556 0.0571847 0)
(0.780059 0.0722388 1.48021e-23)
(0.828505 0.0417564 9.18297e-24)
(0.140805 -0.0876425 7.48492e-20)
(0.12667 -0.085891 -7.42195e-20)
(0.115522 -0.0828766 5.20792e-22)
(0.106974 -0.0757523 -4.62338e-22)
(0.0995438 -0.0639559 4.43654e-22)
(0.0936084 -0.0473961 -4.0933e-22)
(0.0898023 -0.0259719 7.08156e-22)
(0.0891967 -0.000239194 0)
(0.0916318 0.0294296 -6.08041e-22)
(0.0972991 0.0627271 5.75774e-22)
(0.107829 0.0985265 5.54381e-22)
(0.1238 0.135066 -5.89558e-22)
(0.145644 0.170575 0)
(0.174188 0.202638 0)
(0.209963 0.228015 6.00804e-22)
(0.253064 0.243287 0)
(0.303177 0.244975 -7.03772e-22)
(0.359386 0.230001 0)
(0.420175 0.196131 -5.49889e-20)
(0.4835 0.142351 1.1318e-19)
(0.5469 0.069078 -1.18237e-19)
(0.608783 -0.0225677 6.00899e-20)
(0.668552 -0.130721 5.90978e-20)
(0.723797 -0.247342 -5.73802e-20)
(0.766413 -0.35395 -4.71547e-20)
(0.787016 -0.430333 4.55588e-20)
(0.783559 -0.46741 0)
(0.760812 -0.470232 7.20742e-22)
(0.724976 -0.44967 0)
(0.682912 -0.414061 0)
(0.633479 -0.375355 5.73918e-21)
(0.561055 -0.350406 -5.99404e-21)
(0.462753 -0.336255 1.76234e-22)
(0.373893 -0.296196 3.13079e-22)
(0.340189 -0.195212 -2.11308e-22)
(0.363523 -0.0452958 -2.95479e-21)
(0.415078 0.109872 2.86927e-21)
(0.470441 0.239341 -3.8359e-21)
(0.507211 0.339399 3.2902e-21)
(0.507629 0.421682 9.09726e-22)
(0.480106 0.478691 -4.51688e-21)
(0.468375 0.468562 -1.6131e-21)
(0.507767 0.357932 3.82168e-21)
(0.594201 0.17386 0)
(0.69322 -0.0155845 -2.84055e-21)
(0.775062 -0.155198 2.89498e-21)
(0.827304 -0.23116 -3.89371e-21)