/*--------------------------------*- C++ -*----------------------------------*\
| =========                 |                                                 |
| \\      /  F ield         | OpenFOAM: The Open Source CFD Toolbox           |
|  \\    /   O peration     | Version:  2512                                  |
|   \\  /    A nd           | Website:  www.openfoam.com                      |
|    \\/     M anipulation  |                                                 |
\*---------------------------------------------------------------------------*/
FoamFile
{
    version     2.0;
    format      ascii;
    arch        "LSB;label=32;scalar=64";
    class       volScalarField;
    location    "56";
    object      p;
}
// * * * * * * * * * * * * * * * * * * * * * * * * * * * * * * * * * * * * * //

dimensions      [0 2 -2 0 0 0 0];

internalField   nonuniform List<scalar> 
13248
(
-0.33829
-0.336327
-0.333957
-0.331349
-0.328707
-0.32625
-0.324122
-0.322383
-0.321012
-0.319924
-0.318972
-0.317964
-0.316682
-0.314899
-0.312407
-0.309028
-0.304636
-0.299166
-0.292607
-0.28503
-0.276416
-0.267038
-0.256119
-0.244572
-0.345513
-0.342962
-0.339968
-0.336717
-0.333418
-0.330298
-0.327493
-0.325036
-0.322871
-0.320867
-0.318839
-0.316574
-0.313853
-0.31048
-0.306304
-0.301226
-0.295211
-0.28828
-0.280495
-0.271946
-0.262707
-0.252895
-0.242343
-0.231804
-0.354157
-0.35083
-0.347106
-0.343164
-0.339177
-0.33536
-0.331817
-0.32853
-0.325393
-0.322231
-0.318842
-0.315023
-0.3106
-0.305454
-0.299524
-0.292811
-0.285368
-0.277282
-0.268651
-0.259585
-0.250144
-0.240455
-0.230407
-0.220471
-0.364418
-0.360114
-0.355554
-0.350864
-0.34614
-0.341548
-0.337131
-0.332807
-0.328418
-0.323771
-0.318686
-0.313024
-0.306705
-0.299715
-0.292097
-0.283934
-0.275332
-0.266398
-0.257227
-0.247899
-0.238465
-0.229011
-0.219457
-0.210276
-0.376379
-0.37091
-0.365413
-0.35991
-0.354359
-0.348845
-0.343329
-0.337663
-0.331663
-0.325174
-0.318095
-0.310399
-0.302128
-0.293373
-0.284253
-0.274891
-0.265396
-0.255854
-0.246329
-0.236863
-0.227484
-0.218232
-0.20906
-0.200286
-0.390008
-0.383223
-0.376705
-0.370308
-0.36379
-0.357116
-0.350166
-0.342756
-0.334743
-0.326071
-0.316778
-0.306975
-0.296815
-0.28646
-0.276056
-0.265716
-0.255519
-0.245514
-0.235724
-0.226159
-0.216824
-0.207725
-0.198831
-0.190362
-0.405137
-0.396943
-0.389341
-0.381943
-0.374235
-0.366053
-0.357226
-0.347612
-0.337191
-0.326075
-0.314467
-0.302603
-0.290706
-0.278953
-0.267471
-0.256332
-0.245571
-0.235193
-0.22519
-0.215544
-0.206239
-0.197258
-0.188583
-0.180322
-0.421443
-0.411811
-0.403077
-0.394518
-0.385299
-0.375149
-0.363933
-0.351657
-0.338512
-0.324817
-0.310922
-0.297138
-0.283698
-0.270748
-0.258363
-0.246564
-0.235336
-0.224651
-0.214471
-0.204759
-0.195481
-0.186606
-0.17812
-0.170035
-0.438406
-0.427381
-0.417465
-0.407512
-0.396356
-0.383703
-0.369588
-0.354282
-0.338243
-0.321981
-0.305941
-0.290442
-0.275672
-0.261715
-0.24858
-0.236234
-0.224625
-0.213693
-0.203378
-0.193626
-0.18439
-0.17563
-0.167323
-0.159401
-0.455289
-0.442977
-0.431803
-0.420136
-0.406545
-0.390857
-0.373434
-0.354901
-0.335978
-0.317307
-0.29935
-0.282373
-0.266485
-0.251693
-0.237945
-0.22516
-0.213253
-0.202139
-0.19174
-0.181988
-0.172821
-0.164195
-0.156063
-0.148313
-0.47114
-0.457682
-0.445125
-0.43135
-0.414805
-0.395638
-0.374669
-0.3529
-0.331259
-0.310432
-0.290826
-0.272614
-0.255813
-0.240352
-0.226124
-0.213011
-0.200899
-0.189683
-0.179269
-0.169576
-0.160532
-0.152081
-0.144142
-0.136601
-0.484878
-0.470459
-0.456368
-0.440053
-0.420061
-0.397064
-0.372434
-0.347531
-0.323403
-0.3007
-0.279719
-0.260516
-0.243011
-0.227061
-0.212511
-0.199208
-0.187013
-0.175805
-0.165476
-0.155932
-0.147097
-0.1389
-0.131229
-0.124022
-0.276007
-0.277877
-0.279074
-0.279892
-0.280591
-0.281238
-0.281857
-0.282465
-0.283062
-0.28364
-0.284185
-0.284666
-0.285073
-0.285376
-0.28555
-0.285564
-0.285391
-0.285003
-0.284381
-0.283509
-0.282385
-0.281016
-0.279441
-0.277745
-0.280405
-0.282134
-0.283277
-0.284111
-0.284882
-0.285657
-0.286461
-0.28731
-0.288201
-0.289123
-0.290059
-0.290983
-0.291866
-0.292673
-0.29336
-0.293881
-0.294187
-0.294215
-0.293908
-0.293211
-0.292072
-0.29044
-0.2883
-0.285793
-0.285412
-0.286902
-0.287929
-0.288736
-0.289542
-0.290413
-0.291375
-0.29244
-0.293605
-0.294856
-0.296172
-0.297525
-0.298878
-0.300188
-0.301397
-0.302437
-0.303217
-0.303669
-0.303674
-0.30313
-0.301933
-0.29995
-0.297079
-0.293651
-0.290835
-0.292004
-0.292856
-0.293587
-0.294381
-0.295301
-0.296374
-0.297609
-0.299002
-0.300536
-0.302188
-0.303925
-0.305703
-0.307469
-0.309154
-0.31067
-0.31191
-0.312733
-0.313007
-0.312571
-0.311262
-0.308867
-0.305127
-0.300488
-0.296453
-0.297247
-0.297871
-0.29847
-0.299191
-0.300093
-0.301206
-0.302537
-0.304081
-0.305818
-0.307721
-0.309752
-0.311861
-0.313982
-0.316033
-0.317909
-0.319478
-0.320579
-0.321021
-0.320594
-0.319082
-0.316223
-0.311592
-0.30532
-0.30205
-0.302446
-0.3028
-0.303208
-0.30378
-0.304578
-0.305636
-0.306961
-0.308547
-0.310373
-0.312404
-0.314596
-0.316892
-0.319214
-0.321464
-0.32352
-0.325226
-0.326393
-0.326803
-0.326202
-0.32433
-0.320885
-0.315478
-0.307559
-0.307456
-0.307463
-0.307515
-0.307666
-0.308004
-0.308597
-0.309485
-0.310681
-0.312177
-0.31395
-0.31596
-0.318154
-0.320462
-0.322794
-0.325035
-0.32704
-0.328634
-0.329608
-0.329718
-0.328696
-0.32627
-0.322077
-0.316235
-0.306591
-0.312576
-0.31223
-0.311956
-0.311787
-0.311799
-0.312076
-0.31267
-0.313604
-0.31487
-0.316441
-0.318273
-0.320302
-0.322443
-0.324589
-0.326606
-0.328329
-0.329559
-0.330072
-0.329615
-0.327914
-0.324776
-0.319639
-0.313553
-0.302606
-0.317424
-0.316771
-0.316149
-0.315596
-0.315193
-0.315048
-0.315232
-0.315776
-0.316679
-0.317913
-0.319423
-0.321133
-0.322943
-0.324723
-0.326316
-0.327533
-0.32816
-0.327964
-0.326707
-0.324118
-0.320151
-0.314045
-0.307593
-0.296062
-0.322133
-0.321206
-0.320214
-0.319216
-0.318321
-0.317663
-0.317337
-0.317389
-0.317821
-0.318602
-0.319669
-0.320929
-0.322254
-0.323491
-0.324455
-0.324937
-0.324714
-0.323561
-0.321281
-0.317662
-0.312773
-0.305944
-0.298957
-0.287505
-0.326953
-0.32575
-0.324352
-0.322853
-0.321399
-0.320159
-0.31925
-0.318729
-0.318605
-0.31884
-0.319352
-0.320024
-0.320699
-0.321192
-0.321292
-0.320777
-0.319429
-0.317055
-0.313509
-0.308706
-0.302752
-0.29545
-0.288048
-0.277455
-0.332218
-0.330687
-0.328828
-0.326777
-0.324719
-0.322852
-0.321315
-0.320175
-0.319436
-0.319042
-0.318886
-0.318817
-0.318643
-0.31815
-0.317114
-0.315317
-0.312568
-0.308726
-0.3037
-0.29751
-0.290194
-0.282047
-0.273702
-0.264778
-0.275684
-0.272984
-0.270328
-0.267868
-0.265814
-0.264401
-0.263839
-0.26428
-0.265749
-0.268071
-0.27084
-0.273307
-0.274386
-0.272948
-0.267991
-0.258604
-0.244629
-0.227187
-0.207637
-0.188699
-0.173825
-0.166065
-0.167532
-0.178463
-0.196007
-0.214123
-0.225036
-0.222205
-0.204174
-0.175642
-0.144727
-0.118343
-0.0999684
-0.0898115
-0.0878561
-0.0959978
-0.11247
-0.128552
-0.133673
-0.124864
-0.106735
-0.0873698
-0.0720155
-0.0613285
-0.0558169
-0.0574686
-0.0627644
-0.064868
-0.0596621
-0.0488442
-0.0365413
-0.0251058
-0.0160694
-0.00946113
-0.00613122
-0.0056942
-0.00506263
-0.00436367
-0.00318274
-0.000412292
-0.282747
-0.278004
-0.272817
-0.267294
-0.261651
-0.256179
-0.251158
-0.246857
-0.243465
-0.24103
-0.239399
-0.238138
-0.236478
-0.233533
-0.228699
-0.221243
-0.210814
-0.199098
-0.185911
-0.174049
-0.166871
-0.167184
-0.176551
-0.194298
-0.216737
-0.237388
-0.248338
-0.243322
-0.221129
-0.187455
-0.151378
-0.120201
-0.0975145
-0.0835965
-0.0778962
-0.0818665
-0.0946596
-0.109046
-0.115595
-0.110435
-0.0971331
-0.0827
-0.0715601
-0.0640736
-0.0615555
-0.0659654
-0.0726362
-0.0740314
-0.0666177
-0.0532251
-0.0387505
-0.0257903
-0.0158398
-0.00849303
-0.00463213
-0.00376015
-0.00331382
-0.00316372
-0.00247539
-0.000223287
-0.290085
-0.283335
-0.275662
-0.267116
-0.257891
-0.248371
-0.238881
-0.229809
-0.2215
-0.2142
-0.207997
-0.202756
-0.198078
-0.193228
-0.187923
-0.181957
-0.174492
-0.168131
-0.161145
-0.156534
-0.157216
-0.165515
-0.182361
-0.206155
-0.232671
-0.255382
-0.266424
-0.259899
-0.23438
-0.196488
-0.156154
-0.121016
-0.0946445
-0.0773127
-0.0681706
-0.0681524
-0.0773236
-0.0898209
-0.0973465
-0.0955362
-0.086966
-0.0775228
-0.0706349
-0.0665107
-0.0672511
-0.0745452
-0.0825226
-0.0829833
-0.0732795
-0.0573657
-0.0408546
-0.026489
-0.0156966
-0.0077013
-0.00333847
-0.0019379
-0.0016063
-0.00187436
-0.00166593
-2.55526e-06
-0.297203
-0.288547
-0.278602
-0.267306
-0.25475
-0.241564
-0.227916
-0.21436
-0.201389
-0.189429
-0.178783
-0.169579
-0.161768
-0.154988
-0.148578
-0.143731
-0.138446
-0.137521
-0.135404
-0.137783
-0.145852
-0.161354
-0.184578
-0.213297
-0.243063
-0.267558
-0.279346
-0.271618
-0.243729
-0.202704
-0.159116
-0.120922
-0.0916055
-0.0713291
-0.0591414
-0.0554167
-0.0609984
-0.071384
-0.0793686
-0.0805407
-0.0764737
-0.0718935
-0.0691612
-0.0685157
-0.0727261
-0.0830221
-0.0922763
-0.0915992
-0.0795849
-0.061232
-0.0428345
-0.0272025
-0.0156497
-0.00709353
-0.00227074
-0.000285443
4.48144e-06
-0.000529889
-0.00077575
0.000245474
-0.30289
-0.292936
-0.280943
-0.267376
-0.251937
-0.23615
-0.218906
-0.201457
-0.184384
-0.168266
-0.1536
-0.140733
-0.129915
-0.121218
-0.113377
-0.109089
-0.107359
-0.10804
-0.111159
-0.119326
-0.133606
-0.155031
-0.183208
-0.215599
-0.247772
-0.273737
-0.286229
-0.278296
-0.249173
-0.206249
-0.160512
-0.120181
-0.0886448
-0.0659494
-0.0511201
-0.0440761
-0.0460746
-0.0541757
-0.0621166
-0.0658034
-0.0658513
-0.065814
-0.067017
-0.0699135
-0.0777808
-0.0912068
-0.101721
-0.0996982
-0.0854646
-0.0647973
-0.0446763
-0.0279255
-0.0157009
-0.00666679
-0.00143646
0.00114481
0.00146281
0.000819254
0.000155522
0.000508544
-0.305644
-0.295587
-0.282095
-0.267083
-0.250179
-0.231674
-0.211836
-0.191393
-0.171051
-0.15154
-0.133551
-0.117669
-0.104377
-0.0941385
-0.0855512
-0.0816321
-0.0804103
-0.0831315
-0.0900099
-0.102424
-0.121306
-0.147051
-0.178696
-0.213489
-0.247216
-0.274285
-0.287531
-0.280031
-0.25079
-0.207256
-0.160582
-0.119033
-0.085954
-0.0613717
-0.0443051
-0.0343901
-0.0328936
-0.0385278
-0.0459711
-0.0516062
-0.0552273
-0.05923
-0.0640548
-0.070519
-0.0822148
-0.0988909
-0.110653
-0.107094
-0.0908615
-0.0680426
-0.0463697
-0.0286484
-0.0158437
-0.00640965
-0.000829941
0.0023147
0.00272183
0.00210985
0.00107347
0.000767878
-0.304912
-0.295018
-0.281061
-0.265483
-0.247917
-0.228275
-0.207014
-0.184802
-0.162372
-0.140528
-0.120078
-0.101756
-0.0862486
-0.0743364
-0.066495
-0.0607307
-0.0597597
-0.0637456
-0.0728199
-0.0879084
-0.109658
-0.138013
-0.171632
-0.207663
-0.242173
-0.269941
-0.28392
-0.277224
-0.248797
-0.205945
-0.159559
-0.117675
-0.0836661
-0.0576922
-0.0387829
-0.0264431
-0.0216825
-0.024631
-0.03117
-0.0380971
-0.0446189
-0.0520439
-0.0601441
-0.070166
-0.085842
-0.105854
-0.118873
-0.113735
-0.0957421
-0.0709451
-0.0479017
-0.0293567
-0.0160636
-0.00630334
-0.000433807
0.00320653
0.00374921
0.00327554
0.00191952
0.00100247
-0.300311
-0.290743
-0.277423
-0.262328
-0.245007
-0.225379
-0.203912
-0.181187
-0.15789
-0.134834
-0.112882
-0.0928718
-0.0756015
-0.061854
-0.0521108
-0.046267
-0.0454431
-0.0498281
-0.0598319
-0.0761377
-0.0991436
-0.128538
-0.162784
-0.199027
-0.233614
-0.261703
-0.276162
-0.270494
-0.243649
-0.202594
-0.157571
-0.116168
-0.0817853
-0.0548665
-0.0345185
-0.0201804
-0.0125228
-0.0125965
-0.0178034
-0.0249042
-0.0339782
-0.0441599
-0.055185
-0.0687155
-0.0884709
-0.111881
-0.126181
-0.12106
-0.100086
-0.0734789
-0.0492592
-0.0300357
-0.0163419
-0.00632456
-0.000222045
0.0038251
0.00453163
0.00425935
0.00264379
0.00119459
-0.292317
-0.282954
-0.271165
-0.257531
-0.241311
-0.222676
-0.202114
-0.180047
-0.15705
-0.133886
-0.111394
-0.0904165
-0.071776
-0.0561896
-0.0442924
-0.0382321
-0.0370232
-0.0410089
-0.0508517
-0.067104
-0.0900039
-0.119127
-0.152881
-0.188453
-0.222506
-0.250765
-0.265116
-0.260546
-0.235913
-0.197574
-0.154809
-0.114613
-0.0803737
-0.052894
-0.031485
-0.0155213
-0.00541541
-0.00255886
-0.00597947
-0.0128795
-0.0232831
-0.0354977
-0.0490639
-0.0660404
-0.0899846
-0.116807
-0.132329
-0.126636
-0.103771
-0.0756439
-0.0504641
-0.0306978
-0.0166768
-0.00645854
-0.000169335
0.00419209
0.0050762
0.00502428
0.00321491
0.00133441
-0.281743
-0.272674
-0.263024
-0.251381
-0.236832
-0.219954
-0.201164
-0.180668
-0.158928
-0.136636
-0.114561
-0.0935087
-0.0743115
-0.0576579
-0.0433013
-0.0366
-0.0341155
-0.0368631
-0.0455721
-0.0607109
-0.0824005
-0.110174
-0.142461
-0.176587
-0.209447
-0.237827
-0.251404
-0.248216
-0.226466
-0.191694
-0.151983
-0.113639
-0.0799904
-0.052208
-0.0299774
-0.0126323
-0.000427086
0.00529267
0.00412219
-0.00185577
-0.0124869
-0.0260048
-0.0417592
-0.0620885
-0.0901907
-0.12042
-0.137154
-0.131002
-0.106771
-0.077505
-0.0515928
-0.0313956
-0.0170956
-0.0067111
-0.000263133
0.00433241
0.0054021
0.00555758
0.00362441
0.00142194
-0.270011
-0.261407
-0.253887
-0.244122
-0.231503
-0.216906
-0.200423
-0.182007
-0.162057
-0.141226
-0.120154
-0.0994965
-0.0801395
-0.0631495
-0.049609
-0.0398249
-0.0357895
-0.0365099
-0.0432668
-0.0564415
-0.0761274
-0.101853
-0.132126
-0.164299
-0.195402
-0.224242
-0.235231
-0.233755
-0.21563
-0.18532
-0.149413
-0.113445
-0.080748
-0.0528493
-0.0299543
-0.0114998
0.00250691
0.0109872
0.0125314
0.00799866
-0.00185957
-0.0157804
-0.0331127
-0.0566455
-0.0892128
-0.122842
-0.140495
-0.134122
-0.108958
-0.0789656
-0.0525639
-0.0320665
-0.0175537
-0.00704935
-0.000475415
0.00428013
0.00553479
0.00586649
0.00388293
0.00146448
-0.259776
-0.253093
-0.245501
-0.236391
-0.225502
-0.213459
-0.199812
-0.184257
-0.16699
-0.14849
-0.129359
-0.110249
-0.0918198
-0.0747522
-0.0605629
-0.0482756
-0.0416029
-0.040418
-0.0445715
-0.0548326
-0.0713576
-0.0937099
-0.120585
-0.149447
-0.177218
-0.197274
-0.215402
-0.215648
-0.201125
-0.17522
-0.143154
-0.109871
-0.0787455
-0.0514591
-0.0285763
-0.00984228
0.00508346
0.015672
0.0199735
0.0172079
0.00821462
-0.00533279
-0.0237441
-0.0499704
-0.0865209
-0.123357
-0.142258
-0.135353
-0.109717
-0.0792998
-0.052742
-0.0322492
-0.0177422
-0.00726666
-0.000670189
0.00413722
0.00553394
0.00598726
0.00401447
0.00147071
-0.242823
-0.246406
-0.240275
-0.229314
-0.217805
-0.206307
-0.193722
-0.179496
-0.163654
-0.146609
-0.128875
-0.111002
-0.0935664
-0.0771464
-0.0633332
-0.0523776
-0.045789
-0.0436856
-0.0467409
-0.0556371
-0.0705696
-0.0912157
-0.116268
-0.143229
-0.169001
-0.189395
-0.202879
-0.201955
-0.187329
-0.162492
-0.132332
-0.101198
-0.0720041
-0.0461415
-0.0241098
-0.00578515
0.00920472
0.0205228
0.0266336
0.0262967
0.0205445
0.00764669
-0.011346
-0.0406389
-0.0826021
-0.124333
-0.144987
-0.137013
-0.109452
-0.0783939
-0.0519322
-0.0317668
-0.0175148
-0.00722881
-0.000720778
0.00403316
0.00549506
0.00599687
0.00405767
0.00145129
-0.225686
-0.231281
-0.224943
-0.213997
-0.203624
-0.193734
-0.182882
-0.170358
-0.156295
-0.141143
-0.125382
-0.109517
-0.0940695
-0.079628
-0.0672684
-0.0575678
-0.0513852
-0.049338
-0.0520651
-0.0600595
-0.0734586
-0.0919048
-0.114137
-0.137848
-0.160182
-0.177305
-0.187018
-0.184632
-0.170507
-0.147792
-0.120558
-0.0923513
-0.0655985
-0.0414757
-0.0205188
-0.0028451
0.0120316
0.0239822
0.0315559
0.0331647
0.0289637
0.0180935
-0.000792627
-0.0326811
-0.0791898
-0.124382
-0.145261
-0.135462
-0.107265
-0.0764913
-0.0507115
-0.0311748
-0.0173101
-0.00728329
-0.000879399
0.00379085
0.0053243
0.00586138
0.00401017
0.00141843
-0.209247
-0.215417
-0.210584
-0.20112
-0.191718
-0.182647
-0.172987
-0.161979
-0.149638
-0.136345
-0.12253
-0.10864
-0.095141
-0.0825197
-0.0715896
-0.0629815
-0.0574855
-0.0556996
-0.0581243
-0.0651384
-0.0767941
-0.0926606
-0.111529
-0.131342
-0.149725
-0.163221
-0.169907
-0.16675
-0.15395
-0.13388
-0.10971
-0.0843174
-0.0598098
-0.0373069
-0.0173605
-0.000255663
0.0144045
0.0266638
0.0352824
0.0387596
0.0365224
0.0272574
0.00803478
-0.0268653
-0.0769376
-0.123377
-0.143278
-0.132093
-0.103951
-0.0740319
-0.0492341
-0.030471
-0.0170698
-0.00735068
-0.00107387
0.00347184
0.00507188
0.00562218
0.00389782
0.0013806
-0.19361
-0.199977
-0.196636
-0.18858
-0.180063
-0.171941
-0.163474
-0.15396
-0.143292
-0.131768
-0.119779
-0.107716
-0.0959926
-0.085067
-0.0755388
-0.0680243
-0.0631699
-0.0614836
-0.0633905
-0.0691816
-0.0788415
-0.0919117
-0.107311
-0.123334
-0.137733
-0.148493
-0.153038
-0.14961
-0.138231
-0.120625
-0.0992882
-0.0765643
-0.0542512
-0.0333978
-0.0145368
0.00195225
0.0162761
0.0285961
0.0379297
0.0430486
0.0429512
0.0354789
0.0159525
-0.0217822
-0.0742798
-0.120751
-0.139322
-0.127068
-0.0995384
-0.0709767
-0.0474663
-0.0296422
-0.0167922
-0.00742756
-0.0012978
0.00309816
0.00475984
0.00530549
0.00373729
0.00133974
-0.17858
-0.185108
-0.182963
-0.1762
-0.168694
-0.161562
-0.154277
-0.146165
-0.137053
-0.12717
-0.116872
-0.106512
-0.0964396
-0.0870482
-0.0788263
-0.0722897
-0.0679534
-0.0662564
-0.0675536
-0.0720562
-0.07971
-0.0900915
-0.102307
-0.114959
-0.126206
-0.13424
-0.13716
-0.133628
-0.123579
-0.108255
-0.0895542
-0.0693333
-0.0490999
-0.0298471
-0.0121071
0.00371442
0.0176274
0.0298012
0.0394891
0.0457392
0.0476471
0.0421605
0.0228913
-0.0167342
-0.0704987
-0.116161
-0.133046
-0.120196
-0.0939996
-0.0673457
-0.0454249
-0.0286921
-0.016476
-0.00751105
-0.00155085
0.00267805
0.00439264
0.0049268
0.00353462
0.00129266
-0.164415
-0.170918
-0.169688
-0.164127
-0.157701
-0.151575
-0.145397
-0.138567
-0.130882
-0.122508
-0.113755
-0.104936
-0.096351
-0.0883331
-0.0812713
-0.0755851
-0.0716955
-0.069969
-0.070686
-0.0739932
-0.0798209
-0.0877993
-0.0971912
-0.106843
-0.115308
-0.121077
-0.122703
-0.119151
-0.110304
-0.0969952
-0.0806259
-0.0626651
-0.044371
-0.0266617
-0.0100742
0.00500237
0.0184401
0.0303011
0.0400219
0.0468633
0.0502485
0.0466088
0.028179
-0.0120361
-0.0655815
-0.109247
-0.123746
-0.111503
-0.087447
-0.0632096
-0.043138
-0.0276257
-0.0161185
-0.00759543
-0.0018299
0.00222033
0.00397625
0.0045023
0.00329379
0.00123567
-0.151157
-0.157422
-0.156925
-0.152473
-0.147108
-0.141958
-0.136801
-0.131131
-0.124734
-0.117725
-0.110364
-0.102925
-0.0956662
-0.0888626
-0.0828257
-0.077895
-0.0744089
-0.0726605
-0.0728661
-0.0751264
-0.0793634
-0.0852611
-0.0922129
-0.0992706
-0.105398
-0.109307
-0.109892
-0.106343
-0.0984946
-0.086885
-0.0725345
-0.0565952
-0.0401011
-0.0238708
-0.00844508
0.00580672
0.0186899
0.0301202
0.0396335
0.0465684
0.0506948
0.0484077
0.0311633
-0.00807723
-0.0594034
-0.0997982
-0.112411
-0.101266
-0.0800863
-0.0586731
-0.0406457
-0.0264526
-0.0157176
-0.00767413
-0.00213011
0.00173473
0.0035184
0.00404607
0.00301986
0.00116585
-0.138657
-0.144652
-0.144771
-0.141311
-0.136928
-0.132688
-0.128464
-0.123832
-0.118585
-0.112795
-0.106677
-0.100464
-0.0943778
-0.0886442
-0.0835124
-0.0792511
-0.0761261
-0.0743681
-0.0741422
-0.0755142
-0.0784058
-0.082557
-0.0874848
-0.0924846
-0.0965987
-0.0989763
-0.0987073
-0.0951412
-0.0880939
-0.0778989
-0.0652848
-0.0511391
-0.0363027
-0.0214851
-0.00721594
0.00614368
0.0183753
0.0292764
0.0384007
0.0450837
0.0492591
0.0476455
0.0318026
-0.00468242
-0.0516777
-0.0878597
-0.0990757
-0.0899494
-0.0722113
-0.0538724
-0.0379994
-0.0251865
-0.0152723
-0.00774014
-0.00244495
0.00123095
0.00302736
0.00356976
0.00271902
0.00108171
-0.126956
-0.132673
-0.13328
-0.130676
-0.127173
-0.123757
-0.120372
-0.11666
-0.112428
-0.107716
-0.102695
-0.0975625
-0.0925063
-0.0877098
-0.08337
-0.0796962
-0.076895
-0.0751455
-0.0745715
-0.0752152
-0.0770062
-0.0797287
-0.082994
-0.0862681
-0.0888174
-0.0899587
-0.0889911
-0.085398
-0.0789953
-0.0699767
-0.0588506
-0.0462903
-0.0329739
-0.019504
-0.00637817
0.00604224
0.0175273
0.0278047
0.0363346
0.04263
0.0464174
0.0449479
0.0307669
-0.00137346
-0.0424625
-0.0740823
-0.0846374
-0.0782136
-0.064175
-0.0489605
-0.0352565
-0.0238442
-0.0147826
-0.00778656
-0.0027664
0.000718569
0.00251218
0.00308253
0.00239835
0.000983757
-0.116116
-0.121488
-0.122455
-0.120576
-0.117847
-0.115165
-0.11252
-0.109615
-0.106268
-0.102496
-0.098434
-0.0942459
-0.0900865
-0.0861042
-0.0824531
-0.0792947
-0.0767878
-0.0750689
-0.0742298
-0.0742973
-0.0752114
-0.0767924
-0.07871
-0.0806179
-0.0819214
-0.0820811
-0.0805576
-0.0769453
-0.0710708
-0.0630351
-0.0531868
-0.0420294
-0.0301034
-0.0179142
-0.00591372
0.00554064
0.0162049
0.0257724
0.0336684
0.0394272
0.0426598
0.0411235
0.0288737
0.00191652
-0.0326497
-0.0598731
-0.0703192
-0.0667805
-0.0563257
-0.044085
-0.0324744
-0.0224444
-0.0142501
-0.00780707
-0.00308542
0.000207261
0.001983
0.0025919
0.00206551
0.000874106
-0.106058
-0.111057
-0.112289
-0.111019
-0.108958
-0.106916
-0.104914
-0.102704
-0.100118
-0.0971575
-0.0939243
-0.090552
-0.087167
-0.083888
-0.0808343
-0.0781291
-0.0758924
-0.0742265
-0.073199
-0.0728261
-0.0730571
-0.073749
-0.0746701
-0.0754642
-0.0757819
-0.075175
-0.0732263
-0.0696159
-0.0641871
-0.0569833
-0.0482393
-0.0383263
-0.0276706
-0.0166922
-0.00579229
0.00468484
0.0144794
0.0232698
0.0304962
0.03568
0.0383641
0.0367728
0.0265198
0.00466552
-0.0236313
-0.0468082
-0.0572005
-0.0562322
-0.0489359
-0.039368
-0.0297057
-0.0210068
-0.0136775
-0.00779633
-0.00339248
-0.000293409
0.0014507
0.00210489
0.00172853
0.000756192
-0.0967198
-0.101358
-0.10278
-0.102009
-0.100513
-0.0990157
-0.0975609
-0.0959404
-0.0940019
-0.0917308
-0.0892047
-0.08653
-0.0838086
-0.0811337
-0.0785967
-0.0762899
-0.0743027
-0.0727105
-0.0715617
-0.0708651
-0.0705771
-0.0705839
-0.0707135
-0.0707042
-0.0702738
-0.0690893
-0.0668335
-0.0632548
-0.0582171
-0.0517298
-0.0439479
-0.0351424
-0.0256464
-0.0158068
-0.00597333
0.00353026
0.0124314
0.0204111
0.026949
0.031563
0.0337645
0.0321807
0.0237414
0.00634157
-0.0164027
-0.0358643
-0.0459122
-0.0468928
-0.0421715
-0.0348989
-0.0269962
-0.0195516
-0.0130693
-0.00775029
-0.0036783
-0.000774195
0.00092615
0.00162821
0.00139474
0.000633321
-0.0880964
-0.0923755
-0.0939119
-0.0935395
-0.0925112
-0.0914701
-0.090472
-0.0893431
-0.0879448
-0.0862525
-0.0843224
-0.0822381
-0.0800802
-0.077921
-0.0758291
-0.0738725
-0.0721164
-0.0706152
-0.0694029
-0.0684845
-0.0678225
-0.0673254
-0.0668726
-0.0662678
-0.0652907
-0.063693
-0.0612359
-0.0577242
-0.0530436
-0.0471848
-0.0402491
-0.0324328
-0.0239947
-0.0152198
-0.00640943
0.00213922
0.010151
0.0173155
0.0231634
0.0272283
0.0290196
0.0274955
0.02058
0.00683734
-0.011204
-0.0272821
-0.0366193
-0.0388579
-0.0361082
-0.0307378
-0.0243851
-0.0180991
-0.0124315
-0.00766645
-0.00393444
-0.00122653
0.000419812
0.00116816
0.00107079
0.000509345
-0.0801505
-0.0840658
-0.0856571
-0.0855972
-0.0849507
-0.0842837
-0.0836592
-0.0829323
-0.0819777
-0.0807638
-0.0793295
-0.0777392
-0.0760556
-0.0743335
-0.0726236
-0.0709747
-0.0694333
-0.0680379
-0.0668117
-0.0657564
-0.0648419
-0.0640026
-0.0631343
-0.0621057
-0.0607477
-0.0588757
-0.0563105
-0.0529027
-0.048559
-0.043262
-0.0370776
-0.0301479
-0.0226735
-0.0148878
-0.00704815
0.000577979
0.00772624
0.014096
0.0192717
0.0228217
0.0242807
0.0228692
0.0172235
0.00643147
-0.00772937
-0.0208123
-0.0291768
-0.0320839
-0.0307637
-0.0269232
-0.0219057
-0.0166694
-0.0117715
-0.00754399
-0.00415384
-0.00164283
-5.87333e-05
0.000730755
0.000762259
0.000387984
-0.0728226
-0.0763878
-0.07799
-0.078169
-0.0778272
-0.0774604
-0.0771349
-0.0767299
-0.076133
-0.0753083
-0.0742807
-0.0730988
-0.0718104
-0.0704564
-0.069073
-0.0676945
-0.0663528
-0.0650743
-0.0638741
-0.0627513
-0.0616824
-0.0606193
-0.0594839
-0.0581772
-0.0565762
-0.0545456
-0.0519525
-0.0486836
-0.0446656
-0.0398793
-0.0343679
-0.0282354
-0.0216373
-0.0147637
-0.00783415
-0.00108545
0.00523721
0.0108531
0.0153975
0.0184815
0.0196888
0.0184441
0.0138755
0.00545558
-0.00555537
-0.0160605
-0.0233222
-0.026463
-0.0261223
-0.0234775
-0.019585
-0.0152817
-0.0110978
-0.00738388
-0.00433128
-0.00201672
-0.000501306
0.00032175
0.000473807
0.000272298
-0.0660736
-0.069307
-0.0708844
-0.0712389
-0.0711341
-0.0710024
-0.0709102
-0.0707572
-0.0704428
-0.0699292
-0.0692304
-0.0683819
-0.0674198
-0.0663735
-0.0652682
-0.0641269
-0.0629705
-0.0618162
-0.0606733
-0.0595393
-0.0583966
-0.057209
-0.0559186
-0.0544519
-0.0527205
-0.0506263
-0.0480721
-0.0449737
-0.0412752
-0.0369595
-0.0320559
-0.0266418
-0.0208382
-0.0148001
-0.00871313
-0.00278513
0.00276155
0.00767613
0.0116421
0.0143213
0.015353
0.0143185
0.0106784
0.00416433
-0.00432128
-0.0126424
-0.0187796
-0.0218619
-0.0221487
-0.0204099
-0.0174443
-0.0139539
-0.0104201
-0.00718884
-0.00446357
-0.00234328
-0.00090141
-5.37024e-05
0.000208981
0.000164647
-0.0598691
-0.0627856
-0.0643094
-0.0647866
-0.0648615
-0.0649094
-0.0649944
-0.0650334
-0.0649373
-0.0646677
-0.0642304
-0.0636508
-0.0629552
-0.0621644
-0.0612949
-0.0603613
-0.0593763
-0.0583503
-0.0572881
-0.0561863
-0.0550318
-0.0537979
-0.0524415
-0.0509086
-0.0491361
-0.0470542
-0.0445932
-0.0416918
-0.0383087
-0.0344308
-0.0300796
-0.0253136
-0.0202285
-0.0149504
-0.00963415
-0.00446114
0.000370973
0.00464472
0.00809086
0.0104272
0.0113471
0.0105499
0.00771274
0.00273063
-0.00374036
-0.010242
-0.0153068
-0.0181493
-0.0187955
-0.0177188
-0.0154985
-0.0127019
-0.00974883
-0.00696328
-0.00454973
-0.00261936
-0.00125439
-0.00039143
-2.96736e-05
6.67623e-05
-0.0541674
-0.0567848
-0.0582347
-0.0587921
-0.0589992
-0.0591798
-0.059395
-0.0595758
-0.0596438
-0.0595614
-0.0593287
-0.058963
-0.0584829
-0.0579027
-0.0572323
-0.05648
-0.0556528
-0.0547556
-0.0537907
-0.0527535
-0.0516338
-0.0504122
-0.0490584
-0.0475318
-0.0457876
-0.0437772
-0.0414515
-0.0387674
-0.0356957
-0.0322275
-0.0283803
-0.0241996
-0.0197616
-0.0151698
-0.010552
-0.00606224
-0.00187539
0.00182194
0.00481208
0.00686223
0.00771658
0.00716391
0.00501842
0.00126724
-0.00360983
-0.0086027
-0.0126944
-0.0151966
-0.016008
-0.0153935
-0.0137563
-0.0115392
-0.0090943
-0.00671302
-0.00459095
-0.00284369
-0.00155749
-0.000688477
-0.000240527
-2.02469e-05
-0.0489305
-0.0512693
-0.0526317
-0.0532354
-0.0535356
-0.0538106
-0.0541172
-0.0543985
-0.0545861
-0.0546439
-0.0545682
-0.0543701
-0.0540625
-0.0536544
-0.0531512
-0.0525567
-0.0518735
-0.0511031
-0.0502455
-0.0492952
-0.0482431
-0.0470777
-0.0457777
-0.0443119
-0.0426478
-0.0407526
-0.0385934
-0.0361405
-0.0333744
-0.0302905
-0.0269039
-0.0232517
-0.0193945
-0.0154172
-0.0114263
-0.00754813
-0.00393345
-0.000742803
0.00186519
0.00366087
0.00448157
0.00416507
0.00260806
-0.000157564
-0.00377713
-0.00753171
-0.0107711
-0.0128878
-0.0137267
-0.0134153
-0.0122206
-0.0104759
-0.00846659
-0.006445
-0.00459042
-0.00301686
-0.00180987
-0.000943279
-0.000422819
-9.58308e-05
-0.0441264
-0.0462066
-0.0474727
-0.0480964
-0.0484583
-0.0487968
-0.0491638
-0.0495126
-0.0497836
-0.0499434
-0.0499856
-0.0499169
-0.0497456
-0.0494773
-0.0491139
-0.0486559
-0.0481031
-0.0474544
-0.0467082
-0.0458593
-0.0448995
-0.0438205
-0.0426092
-0.0412423
-0.0396953
-0.0379463
-0.0359742
-0.03376
-0.0312915
-0.0285676
-0.0256022
-0.0224258
-0.0190882
-0.0156578
-0.0122231
-0.00888864
-0.00577611
-0.00302493
-0.000773986
0.000826654
0.00163993
0.00154231
0.00047862
-0.00150004
-0.0041321
-0.0069585
-0.00940716
-0.0111189
-0.0118906
-0.0117593
-0.0108883
-0.00951922
-0.00787485
-0.00616684
-0.00455303
-0.00314134
-0.00201249
-0.00115572
-0.000576634
-0.00015992
-0.0397242
-0.0415657
-0.0427312
-0.0433549
-0.0437542
-0.044132
-0.0445352
-0.0449255
-0.0452516
-0.0454829
-0.0456115
-0.045641
-0.0455764
-0.0454206
-0.0451733
-0.0448328
-0.044397
-0.0438633
-0.0432286
-0.0424884
-0.0416353
-0.0406628
-0.0395632
-0.0383198
-0.036914
-0.035331
-0.0335579
-0.0315838
-0.0294019
-0.0270139
-0.0244327
-0.0216841
-0.0188087
-0.0158626
-0.0129175
-0.0100597
-0.00738722
-0.00501371
-0.00305908
-0.0016299
-0.000818364
-0.000725713
-0.00138285
-0.00273373
-0.00458259
-0.00663089
-0.00845992
-0.00978944
-0.010439
-0.0103967
-0.0097518
-0.0086727
-0.00732688
-0.0058864
-0.00448492
-0.00322123
-0.00216795
-0.00132707
-0.000702849
-0.000212845
-0.0356955
-0.0373185
-0.0383824
-0.0389919
-0.0394101
-0.0398089
-0.0402299
-0.0406419
-0.041001
-0.04128
-0.0414702
-0.0415727
-0.0415906
-0.0415247
-0.0413733
-0.0411335
-0.0408017
-0.0403746
-0.0398483
-0.0392186
-0.0384795
-0.0376253
-0.036649
-0.0355426
-0.0342917
-0.0328853
-0.0313157
-0.0295774
-0.0276683
-0.0255918
-0.0233599
-0.0209944
-0.0185289
-0.0160089
-0.0134923
-0.0110486
-0.00875816
-0.0067094
-0.00499622
-0.00370046
-0.00290825
-0.00266382
-0.00299245
-0.00384888
-0.00509187
-0.00651273
-0.00782795
-0.00881249
-0.00931326
-0.00929538
-0.00879915
-0.00793666
-0.00682877
-0.0056113
-0.00439309
-0.00326193
-0.00228025
-0.00145988
-0.00080306
-0.00025526
-0.0320154
-0.0334394
-0.0344038
-0.0349892
-0.0354127
-0.0358188
-0.036244
-0.0366631
-0.037039
-0.0373473
-0.0375796
-0.0377354
-0.0378162
-0.0378216
-0.037749
-0.0375947
-0.0373546
-0.0370249
-0.0366012
-0.0360798
-0.0354556
-0.0347221
-0.0338748
-0.032911
-0.0318201
-0.0305928
-0.0292248
-0.027714
-0.0260612
-0.0242713
-0.0223553
-0.0203317
-0.018228
-0.016081
-0.0139374
-0.0118525
-0.00988992
-0.00811897
-0.00661069
-0.00543489
-0.00465129
-0.00429401
-0.00436484
-0.00483567
-0.00561154
-0.0065429
-0.00743405
-0.00811435
-0.00845863
-0.00842241
-0.00801527
-0.00730832
-0.00638462
-0.00534846
-0.00428486
-0.00326981
-0.00235449
-0.00155777
-0.000879498
-0.000288063
-0.0286614
-0.0299055
-0.0307744
-0.0313295
-0.0317487
-0.0321524
-0.0325723
-0.0329881
-0.0333687
-0.0336929
-0.0339524
-0.0341461
-0.0342743
-0.0343356
-0.0343273
-0.0342452
-0.0340851
-0.0338428
-0.0335142
-0.033095
-0.0325813
-0.0319678
-0.0312509
-0.0304276
-0.0294936
-0.0284418
-0.0272683
-0.0259729
-0.0245581
-0.0230297
-0.0213976
-0.0196776
-0.0178919
-0.0160702
-0.0142496
-0.0124739
-0.0107927
-0.00925978
-0.00793011
-0.00685641
-0.00608116
-0.00563197
-0.00551473
-0.0056973
-0.00611609
-0.00666694
-0.00721384
-0.00763356
-0.00782565
-0.00774484
-0.00738287
-0.00678217
-0.00599646
-0.00510373
-0.0041674
-0.00325176
-0.00239651
-0.00162511
-0.000934889
-0.000312341
-0.0256137
-0.0266962
-0.027475
-0.0279964
-0.0284049
-0.0287997
-0.029208
-0.0296135
-0.0299904
-0.0303206
-0.0305964
-0.0308161
-0.0309793
-0.0310843
-0.031128
-0.0311064
-0.0310153
-0.0308504
-0.0306079