/*--------------------------------*- C++ -*----------------------------------*\
| =========                 |                                                 |
| \\      /  F ield         | OpenFOAM: The Open Source CFD Toolbox           |
|  \\    /   O peration     | Version:  2512                                  |
|   \\  /    A nd           | Website:  www.openfoam.com                      |
|    \\/     M anipulation  |                                                 |
\*---------------------------------------------------------------------------*/
FoamFile
{
    version     2.0;
    format      ascii;
    arch        "LSB;label=32;scalar=64";
    class       surfaceScalarField;
    location    "143.75";
    object      phi;
}
// * * * * * * * * * * * * * * * * * * * * * * * * * * * * * * * * * * * * * //

dimensions      [0 3 -1 0 0 0 0];

oriented        oriented;

internalField   nonuniform List<scalar> 
26232
(
2.61166e-05
0.00108592
-0.00111203
0.000416168
0.00200341
-0.00239346
0.00141363
0.00183202
-0.00282948
0.00322834
0.0006055
-0.00242021
0.00605521
-0.00167676
-0.00115012
0.0100759
-0.00502722
0.00100653
0.0154489
-0.00945074
0.00407777
0.0222889
-0.0149248
0.00808478
0.0306417
-0.0213821
0.0130294
0.0404579
-0.0286993
0.0188831
0.0515761
-0.0366954
0.0255773
0.0637196
-0.045141
0.0329976
0.076511
-0.0537755
0.0409841
0.0895032
-0.0623306
0.0493383
0.102224
-0.0705556
0.0578349
0.114226
-0.0782412
0.066239
0.125139
-0.0852387
0.0743258
0.134708
-0.0914716
0.0819024
0.142824
-0.096936
0.0888204
0.149507
-0.101701
0.0950175
0.154904
-0.105841
0.100443
0.159141
-0.109572
0.105335
0.16217
-0.112557
0.109528
-0.115994
0.114215
0.163948
8.645e-05
0.000999466
0.000668603
0.00142125
0.00201919
0.000481442
0.00438079
-0.0017561
0.00797247
-0.00526843
0.0129773
-0.0100321
0.0195176
-0.015991
0.0276236
-0.0230308
0.0372061
-0.0309647
0.048043
-0.0395362
0.0597865
-0.0484389
0.0719938
-0.0573484
0.0841756
-0.0659573
0.0958543
-0.0740093
0.106622
-0.0813235
0.116189
-0.0878077
0.124408
-0.0934581
0.131283
-0.0983463
0.136942
-0.102596
0.141593
-0.106351
0.145502
-0.109749
0.148849
-0.112919
0.152123
-0.11583
-0.119052
0.155181
0.000180423
0.000819044
0.00103889
0.000562783
0.00286522
-0.00134489
0.00591677
-0.00480765
0.010407
-0.00975867
0.0164752
-0.0161003
0.0241485
-0.0236643
0.03331
-0.0321922
0.0436875
-0.0413422
0.0548727
-0.0507214
0.0663688
-0.0599351
0.0776579
-0.0686374
0.0882719
-0.0765713
0.0978542
-0.0835916
0.106198
-0.0896672
0.113256
-0.0948655
0.11912
-0.0993225
0.123982
-0.103208
0.128076
-0.10669
0.131638
-0.109913
0.134863
-0.112974
0.137904
-0.11596
0.140882
-0.118808
-0.121907
0.143737
0.000299057
0.000519987
0.00149712
-0.000635279
0.00388561
-0.00373338
0.00771014
-0.00863217
0.0131369
-0.0151855
0.0202059
-0.0231693
0.0287903
-0.0322487
0.0385842
-0.0419862
0.0491314
-0.0518893
0.0598905
-0.0614805
0.0703219
-0.0703665
0.0799708
-0.0782862
0.0885282
-0.0851287
0.0958575
-0.090921
0.101985
-0.0957942
0.107057
-0.0999382
0.111292
-0.103557
0.114917
-0.106833
0.118137
-0.10991
0.12111
-0.112886
0.123956
-0.11582
0.126746
-0.11875
0.129587
-0.12165
-0.124771
0.132452
0.000435217
8.47698e-05
0.00201489
-0.00221495
0.0050118
-0.00673029
0.00962448
-0.0132448
0.0159215
-0.0214825
0.0237878
-0.0310356
0.0329034
-0.0413643
0.0427764
-0.0518592
0.0528254
-0.0619383
0.062486
-0.0711411
0.0713072
-0.0791878
0.0790126
-0.0859916
0.0855141
-0.0916302
0.0908849
-0.0962918
0.0953042
-0.100214
0.0989961
-0.10363
0.102178
-0.106739
0.105031
-0.109686
0.107689
-0.112568
0.110243
-0.115441
0.112757
-0.118334
0.115271
-0.121264
0.117835
-0.124214
-0.127317
0.12038
0.000584292
-0.000499522
0.00256845
-0.00419911
0.0061786
-0.0103404
0.0115229
-0.0185891
0.0185201
-0.0284798
0.0268603
-0.0393757
0.0360309
-0.0505349
0.0454126
-0.0612408
0.0544062
-0.0709319
0.0625468
-0.0792817
0.069568
-0.086209
0.0754075
-0.0918312
0.0801656
-0.0963883
0.0840387
-0.100165
0.0872534
-0.103428
0.0900186
-0.106395
0.0924998
-0.10922
0.0948151
-0.112001
0.097043
-0.114796
0.0992339
-0.117632
0.101422
-0.120522
0.103628
-0.12347
0.105885
-0.12647
-0.129589
0.108157
0.000742822
-0.00124234
0.00313417
-0.00659046
0.00731788
-0.0145241
0.0132645
-0.0245357
0.0207015
-0.0359168
0.029118
-0.0477921
0.0378603
-0.0592773
0.0462819
-0.0696624
0.0538796
-0.0785296
0.0603702
-0.0857723
0.065693
-0.0915318
0.0699578
-0.096096
0.0733695
-0.0998
0.0761569
-0.102952
0.0785247
-0.105796
0.0806307
-0.108501
0.0825844
-0.111174
0.0844557
-0.113873
0.086288
-0.116628
0.0881086
-0.119452
0.089936
-0.122349
0.0917833
-0.125318
0.0936676
-0.128354
-0.131482
0.0955602
0.000905379
-0.00214772
0.00368326
-0.00936835
0.00835381
-0.0191947
0.0147078
-0.0308897
0.0222658
-0.0434748
0.0303537
-0.05588
0.0382663
-0.06719
0.0454356
-0.0768317
0.0515298
-0.0846238
0.056463
-0.0907056
0.0603381
-0.0954068
0.0633613
-0.0991193
0.065765
-0.102204
0.0677552
-0.104942
0.0694885
-0.107529
0.0710716
-0.110084
0.0725708
-0.112673
0.0740258
-0.115328
0.0754607
-0.118063
0.0768916
-0.120883
0.0783302
-0.123788
0.0797867
-0.126774
0.081272
-0.129839
-0.132982
0.0827727
0.00106406
-0.00321178
0.00418106
-0.0124853
0.00920704
-0.0242207
0.0157275
-0.0374102
0.0230756
-0.0508229
0.0304882
-0.0632926
0.0373067
-0.0740085
0.0431155
-0.0826405
0.0477725
-0.0892808
0.0513532
-0.0942863
0.0540575
-0.0981111
0.0561215
-0.101183
0.0577575
-0.10384
0.059127
-0.106312
0.0603389
-0.108741
0.0614598
-0.111205
0.0625284
-0.113742
0.0635671
-0.116367
0.0645903
-0.119086
0.0656081
-0.121901
0.0666289
-0.124809
0.0676603
-0.127806
0.0687084
-0.130888
-0.134041
0.0697675
0.00120869
-0.00442047
0.00459028
-0.0158669
0.00980539
-0.0294358
0.0162342
-0.043839
0.0230758
-0.0576645
0.0295661
-0.0697829
0.0351693
-0.0796117
0.0396489
-0.0871201
0.0430266
-0.0926584
0.0454825
-0.0967422
0.0472541
-0.0998827
0.0485637
-0.102493
0.0495833
-0.104859
0.0504294
-0.107158
0.0511724
-0.109484
0.0518523
-0.111885
0.0524916
-0.114381
0.0531035
-0.116979
0.0536976
-0.11968
0.0542812
-0.122485
0.0548608
-0.125388
0.0554423
-0.128387
0.0560304
-0.131476
-0.134637
0.0566265
0.00132874
-0.00574921
0.00487775
-0.0194159
0.0100967
-0.0346547
0.0161887
-0.0499311
0.0222924
-0.0637681
0.0277217
-0.0752122
0.0321022
-0.0839922
0.0353644
-0.0903823
0.0376469
-0.0949409
0.0391806
-0.0982759
0.0401989
-0.100901
0.0408893
-0.103183
0.041381
-0.105351
0.0417526
-0.107529
0.042048
-0.10978
0.042291
-0.112128
0.0424949
-0.114585
0.0426685
-0.117152
0.0428188
-0.11983
0.0429513
-0.122617
0.0430712
-0.125508
0.0431825
-0.128498
0.0432872
-0.13158
-0.13474
0.0433896
0.00141787
-0.00716708
0.00502273
-0.0230208
0.0100581
-0.0396902
0.0156036
-0.0554766
0.0208154
-0.0689799
0.0251383
-0.0795351
0.0283634
-0.0872173
0.0305524
-0.0925714
0.0319123
-0.0963008
0.0326836
-0.0990471
0.0330726
-0.10129
0.0332268
-0.103338
0.0332378
-0.105362
0.0331567
-0.107448
0.0330105
-0.109633
0.0328131
-0.111931
0.0325733
-0.114345
0.0322973
-0.116876
0.0319904
-0.119524
0.0316578
-0.122285
0.0313039
-0.125154
0.0309323
-0.128127
0.0305438
-0.131192
0.0301449
-0.134341
-0.000114321
0.00272753
-0.00261321
-0.000466602
0.00697718
-0.0066249
-0.00106232
0.0103441
-0.00974834
-0.00188924
0.0129372
-0.0121103
-0.00291946
0.0148821
-0.0138519
-0.00411545
0.0163221
-0.0151261
-0.00543611
0.017397
-0.0160763
-0.00684125
0.0182231
-0.016818
-0.00829383
0.0188817
-0.0174292
-0.00976027
0.0194149
-0.0179485
-0.0112093
0.0198285
-0.0183795
-0.0126101
0.0200986
-0.0186978
-0.0139305
0.0201788
-0.0188584
-0.0151353
0.020007
-0.0188022
-0.0161856
0.0195106
-0.0184602
-0.0170384
0.0186105
-0.0177576
-0.0176467
0.0172243
-0.0166159
-0.01796
0.0152694
-0.014956
-0.0179249
0.0126668
-0.0127019
-0.0174863
0.00934535
-0.00978397
-0.016599
0.0052567
-0.00614401
-0.0152469
0.000368854
-0.00172095
-0.0132903
-0.00524799
0.00329146
-0.01153
-0.0108014
0.00904099
3.00747e-07
0.00272723
-8.48762e-05
0.00706236
-0.000309143
0.0105683
-0.000692486
0.0133205
-0.00122722
0.0154168
-0.00188508
0.0169799
-0.00262503
0.0181369
-0.00340018
0.0189983
-0.00416286
0.0196444
-0.00486735
0.0201194
-0.00547082
0.020432
-0.00593293
0.0205607
-0.0062149
0.0204607
-0.00627861
0.0200707
-0.00608609
0.019318
-0.00559938
0.0181237
-0.00478077
0.0164056
-0.00359318
0.0140818
-0.00200008
0.0110737
3.41966e-05
0.00731107
0.00256442
0.00272647
0.00560656
-0.00267329
0.00925324
-0.00889466
-0.0158173
0.0135406
0.000108105
0.00261913
0.000283512
0.00688695
0.000437607
0.0104142
0.000523951
0.0132342
0.000531662
0.0154091
0.000478686
0.0170329
0.000403502
0.0182121
0.000356822
0.019045
0.000394611
0.0196066
0.000573025
0.019941
0.000945457
0.0200596
0.00156124
0.0199449
0.00246547
0.0195565
0.00369919
0.0188369
0.00529972
0.0177175
0.00730076
0.0161227
0.00973242
0.013974
0.0126214
0.0111928
0.0159915
0.00770362
0.019865
0.00343757
0.024251
-0.00165956
0.0291967
-0.00761894
0.0347161
-0.0144141
-0.0220452
0.040944
0.000195539
0.00242359
0.000598337
0.00648415
0.00109991
0.00991265
0.00163738
0.0126967
0.00218562
0.0148609
0.0027521
0.0164664
0.00336969
0.0175945
0.00408846
0.0183262
0.00496776
0.0187273
0.0060698
0.018839
0.00745493
0.0186744
0.00917891
0.0182209
0.0112916
0.0174438
0.0138366
0.016292
0.0168514
0.0147026
0.0203683
0.0126059
0.0244144
0.00992792
0.0290127
0.00659444
0.0341838
0.00253251
0.0399514
-0.00233006
0.0463272
-0.00803537
0.0533377
-0.0146294
0.0609517
-0.0220281
-0.030441
0.0693475
0.000253677
0.00216991
0.000825725
0.0059121
0.0016071
0.00913128
0.00253073
0.0117731
0.003564
0.0138276
0.00470578
0.0153247
0.00598146
0.0163188
0.00743608
0.0168716
0.00912689
0.0170365
0.0111166
0.0168493
0.0134677
0.0163233
0.0162394
0.0154492
0.0194851
0.0141981
0.0232522
0.0125249
0.0275826
0.0103723
0.0325136
0.0076749
0.0380815
0.00435996
0.0443064
0.000369571
0.0512494
-0.00441054
0.0589207
-0.0100013
0.0673418
-0.0164565
0.0765326
-0.0238202
0.086404
-0.0318995
-0.0412052
0.0971681
0.000277038
0.00189287
0.000943664
0.00524548
0.00190894
0.00816601
0.00311468
0.0105674
0.00452929
0.012413
0.00614734
0.0137066
0.00798733
0.0144788
0.0100872
0.0147717
0.0124986
0.0146252
0.0152807
0.0140672
0.0184957
0.0131082
0.022205
0.0117399
0.0264677
0.00993548
0.0313398
0.00765272
0.0368771
0.00483504
0.0431252
0.00142674
0.0501518
-0.00266662
0.0580161
-0.00749467
0.0667404
-0.0131349
0.0763694
-0.0196303
0.0869062
-0.0269933
0.0983134
-0.0352273
0.110425
-0.0440111
-0.0541016
0.123321
0.000264951
0.00162792
0.000946171
0.00456426
0.00198663
0.00712555
0.00334874
0.00920526
0.00501088
0.0107509
0.00696963
0.0117479
0.0092406
0.0122079
0.0118567
0.0121555
0.0148652
0.0116167
0.0183233
0.010609
0.0222954
0.00913613
0.0268503
0.00718502
0.0320604
0.00472539
0.0379974
0.00171572
0.0447433
-0.00191082
0.0523812
-0.0062112
0.0609711
-0.0112565
0.0705791
-0.0171026
0.0812332
-0.023789
0.0929151
-0.0313123
0.105558
-0.0396365
0.118974
-0.0486431
0.132937
-0.057974
-0.0683061
0.147142
0.00022197
0.00140595
0.000846182
0.00394005
0.00186106
0.00611067
0.00325869
0.00780763
0.00503589
0.00897365
0.0071994
0.00958436
0.00976969
0.00963757
0.0127826
0.00914267
0.0162888
0.00811044
0.0203531
0.0065448
0.0250519
0.00443731
0.0304711
0.00176584
0.0367059
-0.00150945
0.0438575
-0.00543594
0.0520159
-0.0100692
0.0612655
-0.0154607
0.071658
-0.0216491
0.0832013
-0.0286459
0.0958381
-0.0364258
0.109418
-0.0448922
0.123723
-0.0539411
0.138359
-0.0632799
0.153074
-0.0726889
-0.0823074
0.167076
0.000158252
0.0012477
0.000677083
0.00342121
0.00159725
0.0051905
0.00294707
0.00645782
0.00474992
0.0071708
0.00703276
0.00730152
0.00983291
0.00683742
0.0132024
0.00577315
0.0172101
0.00410277
0.0219412
0.00181375
0.027495
-0.00111655
0.0339812
-0.00472036
0.0415074
-0.00903567
0.0501712
-0.0140997
0.0600412
-0.0199392
0.07114
-0.0265595
0.0834231
-0.0339323
0.0967616
-0.0419844
0.11093
-0.0505937
0.125603
-0.0595661
0.140379
-0.068717
0.154751
-0.0776511
0.168427
-0.0863653
-0.0943157
0.180435
8.9414e-05
0.00115829
0.000491309
0.00301932
0.00130124
0.00438058
0.00258858
0.00517048
0.0044117
0.00534767
0.00682955
0.00488367
0.00991031
0.00375666
0.0137369
0.00194659
0.0184077
-0.000568075
0.024034
-0.00381257
0.0307308
-0.00781327
0.0386035
-0.0125931
0.0477309
-0.0181631
0.0581443
-0.0245131
0.0698069
-0.0316018
0.0825966
-0.0393492
0.0962951
-0.0476308
0.11059
-0.0562791
0.125081
-0.0650854
0.13933
-0.0738151
0.152847
-0.0822339
0.165232
-0.0900362
0.176147
-0.0972802
-0.103189
0.185021
3.45323e-05
0.00112375
0.000352423
0.00270143
0.00110237
0.00363063
0.00239853
0.00387433
0.00434198
0.00340422
0.00703374
0.00219191
0.010582
0.00020842
0.0151052
-0.00257663
0.0207254
-0.00618823
0.0275571
-0.0106443
0.0356897
-0.0159459
0.0451652
-0.0220686
0.0559565
-0.0289544
0.0679494
-0.0365059
0.0809318
-0.0445842
0.0945948
-0.0530122
0.108546
-0.0615821
0.122339
-0.0700719
0.135509
-0.0782554
0.147644
-0.0859506
0.158386
-0.0929758
0.167655
-0.0993047
0.175218
-0.104844
-0.109247
0.181276
1.17216e-05
0.000319693
0.00112084
0.00257495
0.00482906
0.00802749
0.0123137
0.0178218
0.024663
0.0329017
0.0425331
0.053462
0.0654918
0.0783241
0.0915748
0.104802
0.117545
0.129376
0.139941
0.149008
0.156475
0.162506
0.16719
0.172158
-0.00737163
-0.0253862
0.0219565
-0.00371098
-0.0385402
0.0348795
0.000132589
-0.0529404
0.0490968
0.00383666
-0.067696
0.063992
0.00713464
-0.0821366
0.0788387
0.00978495
-0.0955994
0.0929491
0.0116258
-0.107523
0.105683
0.0127806
-0.117527
0.116373
0.0139552
-0.125315
0.124141
0.0162079
-0.130022
0.127769
0.0208605
-0.130083
0.12543
0.0287935
-0.123141
0.115208
0.0399414
-0.106997
0.0958491
0.0533702
-0.080805
0.0673762
0.0679261
-0.0455192
0.0309633
0.0826744
-0.00351888
-0.0112294
0.096993
0.0417331
-0.0560518
0.110037
0.084863
-0.0979067
0.120738
0.120333
-0.131034
0.128303
0.145032
-0.152597
0.132737
0.159148
-0.163581
0.134538
0.16511
-0.166912
0.13373
0.167526
-0.166718
0.129901
0.172555
-0.168726
0.123752
0.182325
-0.176175
0.118046
0.188059
-0.182353
0.11616
0.17269
-0.170804
0.119576
0.124093
-0.127509
0.127376
0.0474707
-0.0552709
0.137146
-0.0377915
0.0280219
0.146266
-0.110657
0.101537
0.152843
-0.16042
0.153843
0.156573
-0.186938
0.183208
0.157695
-0.196434
0.195313
0.155501
-0.200053
0.202246
0.149277
-0.208428
0.214651
0.140606
-0.220493
0.229165
0.133339
-0.211265
0.218532
0.130935
-0.163211
0.165614
0.133992
-0.0719494
0.0688924
0.14087
0.0283055
-0.0351839
0.148752
0.117492
-0.125373
0.154428
0.176738
-0.182414
0.154872
0.21673
-0.217174
0.14961
0.252634
-0.247371
0.141897
0.262981
-0.255268
0.136936
0.245201
-0.24024
0.137473
0.144103
-0.14464
0.143131
0.0357908
-0.0414486
0.148896
-0.0886331
0.0828675
0.150311
-0.171187
0.169772
0.146705
-0.228087
0.231693
0.142462
-0.295978
0.300222
0.141275
-0.234808
0.235994
0.143229
-0.207408
0.205454
0.144466
-0.025685
0.0244481
0.143782
0.106209
-0.105525
0.142222
0.202691
-0.201131
0.140487
0.373787
-0.372053
0.171773
-0.170093
0.0166366
-0.0284823
0.0196351
-0.0415386
0.0225362
-0.0558415
0.0251801
-0.0703399
0.0272484
-0.0842049
0.0283827
-0.0967337
0.0282202
-0.107361
0.0265736
-0.115881
0.023666
-0.122408
0.020618
-0.126974
0.0192138
-0.128679
0.021371
-0.125298
0.0281453
-0.113771
0.0392224
-0.0918821
0.053323
-0.0596198
0.0691239
-0.0193198
0.0853418
0.0255153
0.10082
0.069385
0.114208
0.106944
0.124494
0.134746
0.13145
0.152192
0.13528
0.16128
0.135922
0.166885
0.133374
0.175103
0.128868
0.186831
0.125129
0.191798
0.124721
0.173098
0.128328
0.120485
0.135122
0.0406774
0.143064
-0.0457333
0.150118
-0.117711
0.154668
-0.16497
0.156558
-0.188829
0.15628
-0.196156
0.153261
-0.197034
0.146491
-0.201657
0.137214
-0.211217
0.129385
-0.203435
0.126921
-0.160747
0.13066
-0.0756887
0.138836
0.0201302
0.148136
0.108192
0.154886
0.169988
0.156083
0.215533
0.151401
0.257316
0.144167
0.270215
0.139225
0.250143
0.139175
0.144153
0.144119
0.0308467
0.149371
-0.0938846
0.150604
-0.17242
0.146751
-0.224234
0.142399
-0.291626
0.141166
-0.233575
0.142983
-0.209225
0.144108
-0.0268102
0.14334
0.106976
0.141867
0.204164
0.140212
0.375443
0.17341
0.043208
-0.0307464
0.0454664
-0.043797
0.0474862
-0.0578613
0.0490724
-0.0719261
0.050022
-0.0851545
0.0500512
-0.096763
0.0487361
-0.106046
0.0455882
-0.112733
0.0403581
-0.117178
0.0334915
-0.120107
0.0266011
-0.121788
0.0222317
-0.120929
0.022842
-0.114382
0.0294714
-0.0985114
0.0413903
-0.0715386
0.0568579
-0.0347874
0.0742664
0.00810673
0.0916653
0.0519861
0.107466
0.0911436
0.120403
0.12181
0.12992
0.142675
0.135881
0.155319
0.138215
0.164551
0.137333
0.175984
0.134818
0.189346
0.133084
0.193532
0.133889
0.172293
0.137395
0.116979
0.142828
0.0352448
0.148745
-0.0516505
0.153617
-0.122584
0.156162
-0.167515
0.156313
-0.188979
0.154745
-0.194588
0.15108
-0.193369
0.144043
-0.194621
0.134397
-0.201571
0.126041
-0.195079
0.123355
-0.158061
0.127573
-0.0799072
0.136841
0.0108623
0.147443
0.0975891
0.155274
0.162157
0.157362
0.213444
0.153443
0.261236
0.1468
0.276858
0.141888
0.255055
0.141159
0.144881
0.145254
0.0267524
0.149923
-0.0985544
0.150989
-0.173485
0.1469
-0.220145
0.142373
-0.2871
0.141079
-0.23228
0.142817
-0.210964
0.14389
-0.0278828
0.143038
0.107828
0.14164
0.205562
0.140085
0.376998
0.174976
0.0709093
-0.0323081
0.0723885
-0.0452761
0.0735019
-0.0589747
0.0739393
-0.0723635
0.0735764
-0.0847917
0.0722871
-0.0954736
0.0698624
-0.103621
0.0659629
-0.108833
0.0600893
-0.111304
0.0518693
-0.111887
0.0418383
-0.111757
0.0320932
-0.111184
0.0259062
-0.108195
0.0261345
-0.0987397
0.0336171
-0.0790212
0.047022
-0.0481922
0.0643398
-0.00921113
0.0828532
0.0334727
0.100587
0.0734102
0.11593
0.106466
0.127911
0.130695
0.136048
0.147181
0.140301
0.160299
0.141417
0.174867
0.141119
0.189644
0.141378
0.193272
0.143159
0.170512
0.146284
0.113854
0.150226
0.0313027
0.154043
-0.0554678
0.156725
-0.125266
0.157328
-0.168118
0.155856
-0.187507
0.153089
-0.191822
0.148893
-0.189172
0.141837
-0.187565
0.132111
-0.191844
0.123326
-0.186295
0.120265
-0.155
0.124686
-0.084328
0.134834
0.000714693
0.14661
0.0858131
0.155538
0.153229
0.158664
0.210319
0.155684
0.264215
0.149751
0.282791
0.144883
0.259923
0.143404
0.14636
0.146525
0.0236314
0.150534
-0.102563
0.151441
-0.174392
0.147133
-0.215837
0.142364
-0.282331
0.140988
-0.230904
0.142709
-0.212685
0.143798
-0.0289714
0.142869
0.108756
0.141535
0.206897
0.140108
0.378424
0.176436
0.0983956
-0.0335356
0.0991782
-0.0460587
0.0992208
-0.0590173
0.0982898
-0.0714325
0.096364
-0.0828659
0.0934606
-0.0925702
0.0895879
-0.0997484
0.0847288
-0.103974
0.0786696
-0.105245
0.0708406
-0.104058
0.0606725
-0.101589
0.0487032
-0.0992147
0.0374655
-0.0969571
0.0308219
-0.0920961
0.0318184
-0.0800176
0.04091
-0.0572839
0.0561032
-0.0244043
0.0746711
0.0149049
0.0936191
0.0544621
0.110906
0.0891791
0.125071
0.116529
0.13533
0.136922
0.141662
0.153967
0.145029
0.171501
0.147122
0.187552
0.149346
0.191047
0.151981
0.167878
0.154581
0.111254
0.157045
0.0288385
0.158819
-0.057242
0.15936
-0.125806
0.158096
-0.166854
0.155143
-0.184554
0.151297
-0.187975
0.146666
-0.184542
0.139793
-0.180691
0.13028
-0.182331
0.121236
-0.177251
0.117668
-0.151432
0.122017
-0.0886774
0.132759
-0.0100273
0.14556
0.073012
0.155604
0.143185
0.159911
0.206011
0.158047
0.26608
0.152934
0.287904
0.148146
0.264711
0.145869
0.148638
0.147912
0.0215878
0.151177
-0.105828
0.151931
-0.175146
0.147432
-0.211338
0.142357
-0.277256
0.140871
-0.229418
0.142633
-0.214447
0.143814
-0.030152
0.142823
0.109746
0.141547
0.208174
0.140285
0.379686
0.177753
0.124073
-0.034287
0.124057
-0.0460434
0.122931
-0.0578907
0.12054
-0.069042
0.116996
-0.0793214
0.112432
-0.0880064
0.106996
-0.0943128
0.100884
-0.0978619
0.0942427
-0.0986035
0.0869158
-0.0967311
0.078201
-0.0928743
0.0673041
-0.0883178
0.0547408
-0.0843938
0.0433876
-0.0807429
0.0374763
-0.0741064
0.0399815
-0.0597891
0.0507027
-0.0351254
0.0674914
-0.00188385
0.0864918
0.0354617
0.105017
0.0706541
0.120976
0.100571
0.133245
0.124653
0.141758
0.145454
0.147542
0.165716
0.152104
0.18299
0.156287
0.186864
0.159766
0.164399
0.161972
0.109048
0.163019
0.0277918
0.162932
-0.057155
0.16143
-0.124305
0.158406
-0.16383
0.154133
-0.180281
0.149335
-0.183177
0.144337
-0.179544
0.137792
-0.174146
0.128771
-0.17331
0.119696
-0.168175
0.115572
-0.147308
0.119575
-0.0926804
0.13053
-0.0209818
0.144203
0.0593384
0.155374
0.132014
0.161001
0.200385
0.160413
0.266667
0.156238
0.292079
0.151566
0.269382
0.148507
0.151697
0.149372
0.0207231
0.151822
-0.108278
0.152424
-0.175748
0.147775
-0.206689
0.142341
-0.271822
0.140706
-0.227783
0.14256
-0.216301
0.143916
-0.0315079
0.14289
0.110773
0.141671
0.209393
0.140617
0.380739
0.178889
0.146945
-0.0340909
0.145755
-0.0448526
0.143167
-0.0553026
0.139143
-0.0650186
0.133922
-0.0740999
0.127733
-0.081818
0.120846
-0.0874258
0.113579
-0.0905948
0.106221
-0.0912454
0.0989351
-0.0894452
0.0915025
-0.0854418
0.0830557
-0.0798709
0.0726131
-0.0739513
0.0606886
-0.0688184
0.0503521
-0.0637699
0.0459262
-0.0553632
0.0501168
-0.039316
0.0622612
-0.0140283
0.0795193
0.0182036
0.0981224
0.052051
0.115296
0.083397
0.129401
0.110548
0.140147
0.134707
0.148444
0.15742
0.155493
0.17594
0.161583
0.180774
0.165913
0.16007
0.167918
0.107042
0.167936
0.0277747
0.166221
-0.0554403
0.162847
-0.120931
0.158196
-0.159178
0.152772
-0.174857
0.147171
-0.177577
0.141856
-0.174228
0.135715
-0.168005
0.127416
-0.165012
0.118575
-0.159333
0.113923
-0.142657
0.117287
-0.0960437
0.128144
-0.0318394
0.142451
0.0450316
0.154739
0.119726
0.161808
0.193316
0.162647
0.265828
0.159524
0.295203
0.155028
0.273879
0.151223
0.155502
0.150877
0.0210684
0.152437
-0.109838
0.152881
-0.176191
0.148137
-0.201946
0.142309
-0.265994
0.140477
-0.225951
0.142461
-0.218285
0.144082
-0.0331296
0.143056
0.111799
0.1419
0.210549
0.141104
0.381535
0.179801
0.165432
-0.0324471
0.16267
-0.0420911
0.158387
-0.051019
0.152705
-0.0593365
0.145935
-0.0673299
0.13834
-0.0742231
0.130266
-0.0793524
0.122123
-0.0824512
0.11426
-0.083383
0.106921
-0.0821062
0.100184
-0.0787045
0.0937074
-0.0733944
0.0864786
-0.0667225
0.0774306
-0.0597704
0.0670931
-0.0534324
0.0585373
-0.0468073
0.0559052
-0.036684
0.0614412
-0.0195643
0.0742583
0.00538654
0.0909951
0.0353142
0.108282
0.06611
0.123756
0.0950742
0.136617
0.121847
0.147412
0.146624
0.156917
0.166435
0.164876
0.172815
0.170135
0.154811
0.172209
0.104967
0.171507
0.0284768
0.168522
-0.0524552
0.163519
-0.115928
0.157402
-0.153062
0.150998
-0.168453
0.144756
-0.171335
0.139167
-0.168639
0.133445
-0.162283
0.126029
-0.157595
0.117686
-0.150991
0.112626
-0.137597
0.11515
-0.0985679
0.125545
-0.0422341
0.140229
0.0303477
0.15359
0.106365
0.162195
0.184711
0.164592
0.263431
0.162633
0.297162
0.158386
0.278125
0.15393
0.159958
0.152374
0.0226241
0.152986
-0.11045
0.15326
-0.176465
0.148487
-0.197173
0.142257
-0.259763
0.140177
-0.223872
0.142308
-0.220415
0.14429
-0.0351115
0.14331
0.112778
0.142229
0.21163
0.141747
0.382017
0.180444
0.17731
-0.0293219
0.172982
-0.037763
0.167173
-0.0452096
0.160198
-0.0523617
0.152355
-0.0594866
0.143879
-0.065747
0.135136
-0.0706098
0.126548
-0.0738635
0.118487
-0.0753221
0.111231
-0.0748494
0.104943
-0.0724165
0.0996103
-0.0680621
0.0947802
-0.0618924
0.0893658
-0.054356
0.0823243
-0.0463909
0.0741764
-0.0386594
0.0677833
-0.0302909
0.0668663
-0.0186473
0.0733153
-0.00106252
0.0857633
0.0228663
0.101304
0.0505693
0.117052
0.0793264
0.131482
0.107417
0.144507
0.133599
0.156302
0.154639
0.166044
0.163074
0.172329
0.148527
0.17476
0.102536
0.173702
0.0295344
0.169743
-0.0484961
0.163343
-0.109528
0.155928
-0.145646
0.148706
-0.161231
0.141997
-0.164626
0.136189
-0.162831
0.130859
-0.156953
0.124416
-0.151153
0.116809
-0.143384
0.111528
-0.132316
0.113113
-0.100152
0.122716
-0.0518375
0.137482
0.0155817
0.151822
0.0920248
0.162031
0.174502
0.166113
0.259349
0.165412
0.297863
0.161516
0.282021
0.156521
0.164953
0.153807
0.0253384
0.153429
-0.110072
0.153515
-0.176551
0.148791
-0.192449
0.142181
-0.253153
0.139801
-0.221493
0.142074
-0.222687
0.144514
-0.0375515
0.143639
0.113653
0.142651
0.212618
0.142545
0.382123
0.180773
0.181033
-0.0253339
0.175702
-0.0324327
0.16903
-0.0385373
0.161499
-0.044831
0.153302
-0.0512894
0.144633
-0.0570774
0.135849
-0.0618258
0.127334
-0.0653485
0.119431
-0.067419
0.112427
-0.0678457
0.106536
-0.0665255
0.101875
-0.0634009
0.0983626
-0.0583803
0.0955004
-0.0514937
0.0922207
-0.0431112
0.087528
-0.0339667
0.0818796
-0.0246425
0.077781
-0.0145487
0.0784552
-0.00173669
0.0850763
0.0162452
0.0967205
0.0389251
0.110946
0.0651007
0.125754
0.092609
0.140282
0.119072
0.153945
0.140976
0.165303
0.151716
0.17267
0.141159
0.175647
0.0995602
0.174653
0.030528
0.169884
-0.0437274
0.16226
-0.101904
0.1537
-0.137086
0.145807
-0.153339
0.138808
-0.157627
0.132861
-0.156884
0.127865
-0.151957
0.122424
-0.145711
0.115747
-0.136708
0.110451
-0.12702
0.111102
-0.100803
0.119646
-0.0603812
0.134189
0.00103926
0.149365
0.0768483
0.161178
0.162689
0.167012
0.253515
0.167675
0.2972
0.164264
0.285432
0.158894
0.170323
0.155137
0.0290952
0.153738
-0.108673
0.153603
-0.176416
0.149014
-0.18786
0.142086
-0.246225
0.13936
-0.218767
0.14173
-0.225057
0.144729
-0.0405505
0.144029
0.114353
0.14316
0.213488
0.143497
0.381786
0.18074
0.1773
-0.021358
0.171765
-0.0268969
0.165086
-0.0318589
0.157773
-0.0375178
0.149884
-0.0434003
0.141622
-0.0488153
0.133314
-0.0535177
0.125281
-0.0573155
0.117831
-0.0599699
0.111255
-0.0612695
0.105798
-0.061068
0.101607
-0.0592103
0.0987201
-0.0554934
0.0970078
-0.0497815
0.0959966
-0.0421
0.0948146
-0.0327846
0.0926779
-0.0225059
0.0898514
-0.0117221
0.0884401
-0.000325426
0.0901409
0.0145444
0.0968436
0.0322224
0.107643
0.0543008
0.121017
0.0792355
0.135726
0.104362
0.15042
0.126282
0.162887
0.13925
0.17127
0.132776
0.175301
0.095529
0.17452
0.0313092
0.169214
-0.038422
0.160544
-0.0932339
0.151021
-0.127563
0.142578
-0.144897
0.13542
-0.150469
0.129389
-0.150852
0.124601
-0.147169
0.120075
-0.141185
0.114444
-0.131077
0.109315
-0.121891
0.109068
-0.100556
0.11634
-0.0676538
0.130327
-0.012947
0.146136
0.0610393
0.159594
0.149231
0.167303
0.245806
0.16937
0.295133
0.166521
0.288281
0.161022
0.175823
0.156339
0.0337783
0.153939
-0.106274
0.153526
-0.176003
0.149148
-0.183482
0.141994
-0.239072
0.138878
-0.215651
0.14127
-0.227449
0.144911
-0.0441918
0.144467
0.114797
0.143752
0.214202
0.144604
0.380934
0.180298
0.168751
-0.0179501
0.163517
-0.0216634
0.157689
-0.0260305
0.151265
-0.0310947
0.144293
-0.0364275
0.137056
-0.0415788
0.129816
-0.0462773
0.122818
-0.0503177
0.116321
-0.0534728
0.110555
-0.0555031
0.105682
-0.0561954
0.101829
-0.055357
0.0991261
-0.0527908
0.0976723
-0.0483276
0.0974281
-0.0418558
0.0980266
-0.0333831
0.0986802
-0.0231594
0.098652
-0.0116939
0.0979108
0.000415764
0.0987306
0.0137246
0.102133
0.0288197
0.109125
0.0473095
0.119475
0.0688855
0.132426
0.0914103
0.146512
0.112196
0.159388
0.126374
0.169117
0.123047
0.174458
0.0901876
0.174251
0.0315161
0.167957
-0.0321281
0.158294
-0.083571
0.148123
-0.117391
0.139355
-0.136129
0.132154
-0.143268
0.126074
-0.144771
0.121319
-0.142415
0.117499
-0.137364
0.112927
-0.126505
0.108118
-0.117082
0.107047
-0.0994856
0.113031
-0.0736375
0.126056
-0.0259721
0.14215
0.0449451
0.156926
0.134455
0.166524
0.236208
0.170172
0.291484
0.168113
0.290339
0.162721
0.181215
0.157383
0.039116
0.15401
-0.1029
0.153293
-0.175286
0.149183
-0.179372
0.141907
-0.231796
0.138354
-0.212098
0.140731
-0.229825
0.145059
-0.0485197
0.144943
0.114913
0.144419
0.214726
0.145859
0.379494
0.179389
0.204599
-0.0147776
-0.207771
0.202259
-0.0193237
0.199596
-0.0233668
0.196325
-0.0278237
0.192386
-0.0324889
0.187845
-0.0370373
0.182784
-0.0412167
0.177272
-0.0448062
0.171398
-0.0475988
0.16528
-0.0493849
0.159045
-0.04996
0.152822
-0.0491338
0.146753
-0.0467224
0.140988
-0.0425628
0.135666
-0.0365337
0.130832
-0.0285493
0.126277
-0.0186039
0.121647
-0.00706396
0.116321
0.00574142
0.110969
0.019077
0.106532
0.0332565
0.104506
0.0493357
0.106112
0.0672795
0.111903
0.0856192
0.121661
0.102439
0.13543
0.112605
0.153488
0.104989
0.172865
0.070811
0.186988
0.0173924
0.193218
-0.0383577
0.191893
-0.0822464
0.185729
-0.111227
0.177476
-0.127875
0.168765
-0.134557
0.160104
-0.13611
0.152097
-0.134408
0.144921
-0.130188
0.137209
-0.118794
0.128523
-0.108395
0.121822
-0.0927839
0.120404
-0.0722204
0.124797
-0.030365
0.131337
0.0384056
0.136971
0.128821
0.140728
0.232451
0.144379
0.287833
0.149153
0.285565
0.15432
0.176049
0.157626
0.0358101
0.158737
-0.104011
0.157756
-0.174305
0.152945
-0.17456
0.144253
-0.223105
0.137972
-0.205817
0.135753
-0.227606
0.135022
-0.0477888
0.132331
0.117604
0.130484
0.216572
0.132847
0.377131
0.177924
0.213396
-0.0123791
-0.215795
0.210775
-0.0167023
0.208118
-0.0207098
0.204971
-0.0246772
0.201215
-0.0287321
0.196896
-0.0327191
0.192085
-0.036405
0.18685
-0.0395715
0.181279
-0.0420279
0.175485
-0.0435908
0.169599
-0.0440742
0.163762
-0.0432963
0.15812
-0.0410811
0.152824
-0.0372658
0.14801
-0.0317202
0.143813
-0.0243525
0.140262
-0.015053
0.137057
-0.00385821
0.133891
0.00890727
0.130573
0.0223944
0.127509
0.0363203
0.125946
0.0508991
0.127398
0.065828
0.132879
0.0801381
0.142746
0.092571
0.157305
0.0980462
0.175557
0.0867376
0.193084
0.0532838
0.204661
0.00581559
0.208013
-0.0417093
0.204678
-0.0789117
0.197161
-0.103711
0.188051
-0.118765
0.178898
-0.125404
0.169993
-0.127205
0.161663
-0.126079
0.15435
-0.122875
0.146926
-0.11137
0.13845
-0.0999191
0.131226
-0.0855595
0.128901
-0.0698956
0.132698
-0.0341618
0.139446
0.0316576
0.145793
0.122474
0.150481
0.227763
0.155297
0.283017
0.161257
0.279606
0.167077
0.170229
0.170535
0.0323517
0.170881
-0.104357
0.169149
-0.172573
0.163711
-0.169122
0.154271
-0.213665
0.147048
-0.198594
0.144485
-0.225042
0.143898
-0.0472025
0.141034
0.120469
0.139101
0.218505
0.142071
0.374161
0.176149
0.221938
-0.0105587
-0.223758
0.219574
-0.0143389
0.216926
-0.0180612
0.213897
-0.0216489
0.21036
-0.0251948
0.206302
-0.0286605
0.201776
-0.0318788
0.196854
-0.0346503
0.191621
-0.0367944
0.186177
-0.0381471
0.180647
-0.0385438
0.175168
-0.0378182
0.169894
-0.0358068
0.164983
-0.0323545
0.160589
-0.0273267
0.156863
-0.0206263
0.153949