/*--------------------------------*- C++ -*----------------------------------*\
| =========                 |                                                 |
| \\      /  F ield         | OpenFOAM: The Open Source CFD Toolbox           |
|  \\    /   O peration     | Version:  2512                                  |
|   \\  /    A nd           | Website:  www.openfoam.com                      |
|    \\/     M anipulation  |                                                 |
\*---------------------------------------------------------------------------*/
FoamFile
{
    version     2.0;
    format      ascii;
    arch        "LSB;label=32;scalar=64";
    class       volScalarField;
    location    "19";
    object      p;
}
// * * * * * * * * * * * * * * * * * * * * * * * * * * * * * * * * * * * * * //

dimensions      [0 2 -2 0 0 0 0];

internalField   nonuniform List<scalar> 
13248
(
-0.306957
-0.30552
-0.303461
-0.300953
-0.2982
-0.295389
-0.292666
-0.290122
-0.287804
-0.28572
-0.283842
-0.282116
-0.280469
-0.278814
-0.277061
-0.275123
-0.272924
-0.270404
-0.267513
-0.264254
-0.260523
-0.256515
-0.251504
-0.246466
-0.313909
-0.311843
-0.309165
-0.306058
-0.302722
-0.299364
-0.296117
-0.293055
-0.290196
-0.287515
-0.284949
-0.282413
-0.279812
-0.277054
-0.274056
-0.270754
-0.267105
-0.263085
-0.258691
-0.253929
-0.248785
-0.243288
-0.237256
-0.231384
-0.322358
-0.319461
-0.316038
-0.312259
-0.308294
-0.304341
-0.300514
-0.296848
-0.293315
-0.289844
-0.286342
-0.28271
-0.27886
-0.274726
-0.270269
-0.265478
-0.260365
-0.254963
-0.249306
-0.243436
-0.237348
-0.23111
-0.224593
-0.218299
-0.332438
-0.328512
-0.324224
-0.3197
-0.315044
-0.310422
-0.305903
-0.30146
-0.29701
-0.29245
-0.287679
-0.282622
-0.27724
-0.271529
-0.265521
-0.259268
-0.252836
-0.246287
-0.23967
-0.23302
-0.226341
-0.219678
-0.212925
-0.206598
-0.344225
-0.339094
-0.333834
-0.328495
-0.323064
-0.317646
-0.312237
-0.306741
-0.301036
-0.295019
-0.28863
-0.281867
-0.274774
-0.26743
-0.259932
-0.252376
-0.244842
-0.237388
-0.230049
-0.222837
-0.215749
-0.208795
-0.201913
-0.195458
-0.357716
-0.351232
-0.344924
-0.338701
-0.332376
-0.325954
-0.319349
-0.312415
-0.305034
-0.297167
-0.288853
-0.280197
-0.271339
-0.262424
-0.25358
-0.244904
-0.236461
-0.228281
-0.220371
-0.212723
-0.205318
-0.198145
-0.191155
-0.184601
-0.372801
-0.36487
-0.35746
-0.350266
-0.342857
-0.335113
-0.326886
-0.318038
-0.308537
-0.298475
-0.288034
-0.277427
-0.266865
-0.256514
-0.246493
-0.23687
-0.227672
-0.218896
-0.210523
-0.202523
-0.194864
-0.187518
-0.180454
-0.173804
-0.389211
-0.379802
-0.371255
-0.362959
-0.354177
-0.344671
-0.334301
-0.323038
-0.311026
-0.29854
-0.285902
-0.273404
-0.261271
-0.249651
-0.238617
-0.228191
-0.218359
-0.209085
-0.200328
-0.192042
-0.184183
-0.176711
-0.169604
-0.162887
-0.40648
-0.395632
-0.385913
-0.37631
-0.365752
-0.35395
-0.340892
-0.326779
-0.312
-0.297016
-0.282248
-0.268005
-0.25448
-0.241762
-0.229866
-0.218763
-0.208401
-0.198718
-0.189653
-0.181145
-0.173141
-0.165595
-0.158479
-0.151732
-0.423911
-0.411726
-0.400774
-0.389568
-0.37674
-0.362084
-0.345872
-0.328632
-0.311014
-0.29362
-0.276896
-0.261113
-0.246389
-0.232739
-0.22012
-0.208457
-0.197665
-0.18766
-0.178363
-0.169703
-0.161614
-0.154047
-0.146952
-0.140217
-0.440578
-0.427197
-0.414901
-0.401704
-0.386073
-0.368069
-0.348393
-0.327945
-0.307588
-0.287986
-0.269544
-0.252443
-0.236713
-0.222297
-0.209093
-0.196989
-0.185874
-0.175644
-0.166206
-0.157476
-0.14938
-0.141859
-0.134831
-0.128178
-0.455404
-0.441017
-0.427236
-0.411613
-0.392652
-0.370891
-0.34757
-0.323953
-0.301042
-0.27948
-0.259572
-0.241387
-0.224858
-0.209854
-0.196227
-0.18383
-0.172526
-0.162197
-0.152733
-0.144042
-0.136046
-0.128671
-0.121805
-0.11538
-0.269439
-0.272006
-0.273664
-0.274848
-0.275938
-0.27704
-0.278209
-0.279481
-0.280873
-0.282392
-0.284035
-0.285798
-0.287673
-0.289652
-0.291722
-0.293874
-0.296094
-0.298374
-0.300704
-0.303076
-0.305476
-0.307903
-0.310436
-0.313224
-0.269913
-0.272329
-0.273898
-0.275025
-0.276065
-0.277121
-0.278243
-0.279466
-0.280807
-0.282272
-0.28386
-0.285566
-0.287384
-0.289307
-0.291325
-0.293431
-0.295612
-0.297862
-0.300173
-0.302544
-0.30496
-0.307395
-0.309932
-0.312964
-0.271451
-0.273556
-0.274942
-0.275953
-0.276898
-0.27787
-0.278913
-0.280059
-0.281325
-0.282714
-0.284226
-0.285857
-0.287602
-0.289454
-0.291407
-0.293453
-0.295582
-0.297785
-0.300055
-0.302391
-0.304784
-0.307168
-0.309561
-0.312705
-0.273819
-0.275501
-0.276627
-0.277467
-0.278266
-0.279104
-0.28002
-0.281044
-0.282189
-0.283459
-0.284852
-0.286365
-0.287993
-0.289733
-0.291577
-0.29352
-0.295552
-0.297662
-0.299838
-0.302079
-0.304382
-0.306675
-0.30882
-0.311537
-0.27673
-0.277936
-0.278753
-0.279367
-0.279962
-0.280603
-0.281329
-0.282165
-0.283122
-0.284205
-0.285412
-0.286741
-0.288188
-0.289749
-0.291421
-0.293196
-0.295067
-0.297023
-0.299049
-0.301133
-0.30327
-0.305409
-0.307347
-0.309575
-0.279904
-0.280644
-0.281127
-0.281469
-0.281797
-0.282171
-0.282629
-0.283195
-0.283884
-0.284699
-0.285642
-0.286711
-0.287902
-0.289215
-0.290645
-0.292188
-0.293838
-0.295584
-0.297411
-0.299298
-0.301223
-0.303151
-0.304962
-0.306305
-0.283135
-0.283468
-0.283616
-0.283644
-0.283645
-0.283678
-0.283787
-0.284001
-0.284339
-0.284809
-0.285414
-0.286155
-0.287032
-0.288042
-0.289183
-0.290453
-0.291845
-0.293345
-0.294938
-0.296596
-0.2983
-0.299915
-0.301783
-0.301869
-0.286332
-0.286342
-0.286163
-0.285844
-0.285464
-0.28509
-0.28478
-0.284572
-0.284493
-0.284559
-0.284777
-0.28515
-0.285681
-0.286367
-0.287206
-0.288193
-0.289319
-0.290568
-0.291916
-0.293314
-0.294792
-0.295915
-0.297945
-0.296754
-0.289539
-0.289295
-0.288804
-0.28811
-0.287304
-0.286474
-0.285695
-0.28502
-0.284487
-0.28412
-0.283933
-0.283931
-0.284116
-0.284484
-0.285029
-0.285737
-0.286589
-0.287558
-0.288615
-0.289669
-0.290869
-0.291387
-0.293372
-0.291355
-0.292918
-0.292467
-0.291656
-0.29056
-0.289296
-0.28798
-0.286707
-0.285549
-0.284555
-0.283757
-0.283171
-0.282804
-0.282651
-0.282698
-0.282924
-0.283302
-0.283794
-0.28436
-0.284968
-0.285509
-0.286208
-0.286177
-0.287649
-0.285448
-0.296739
-0.296062
-0.294902
-0.29337
-0.291621
-0.289801
-0.288028
-0.286387
-0.284938
-0.283716
-0.282734
-0.281989
-0.281463
-0.281123
-0.280924
-0.280816
-0.28074
-0.280637
-0.280465
-0.280166
-0.279892
-0.279241
-0.279702
-0.27776
-0.301319
-0.300333
-0.298759
-0.296749
-0.294489
-0.292155
-0.289881
-0.287765
-0.285867
-0.284216
-0.282812
-0.281634
-0.280637
-0.279762
-0.278939
-0.278089
-0.277134
-0.276006
-0.274639
-0.273027
-0.271146
-0.269148
-0.267548
-0.265792
-0.316687
-0.320081
-0.322935
-0.324843
-0.325442
-0.324279
-0.320852
-0.31462
-0.305082
-0.291867
-0.274935
-0.254073
-0.228901
-0.200116
-0.168296
-0.134408
-0.0997389
-0.0657738
-0.0339073
-0.00556262
0.0182922
0.0371021
0.0508089
0.0597812
0.0646968
0.0663619
0.0655852
0.0630774
0.0595747
0.0554342
0.0510404
0.0466251
0.042352
0.0383012
0.034531
0.0310654
0.0279051
0.0250489
0.0224739
0.0201568
0.018076
0.0161988
0.0144966
0.0129416
0.011522
0.0102274
0.00905296
0.00799254
0.00703586
0.00617562
0.0053955
0.00469159
0.00404034
0.00344815
0.00288068
0.00235751
0.00183054
0.00133498
0.000802656
0.000291061
-0.317354
-0.321265
-0.32472
-0.327311
-0.328667
-0.328318
-0.325706
-0.320217
-0.31123
-0.29894
-0.282431
-0.261689
-0.236617
-0.207588
-0.175275
-0.140688
-0.105047
-0.069984
-0.0370017
-0.00776506
0.0168487
0.036241
0.0503554
0.0595937
0.0646713
0.0664379
0.0657222
0.0633114
0.0597157
0.0555426
0.0511205
0.0466776
0.042411
0.0383626
0.0345929
0.0311294
0.0279652
0.0251075
0.0225275
0.0202099
0.0181279
0.0162532
0.014548
0.0129908
0.011565
0.0102659
0.00908551
0.00802092
0.00705983
0.00619613
0.00541328
0.00470613
0.00405369
0.00345825
0.00289058
0.00236392
0.00183768
0.0013377
0.000806948
0.000289185
-0.318639
-0.323138
-0.327268
-0.330647
-0.332879
-0.333498
-0.331887
-0.327406
-0.319682
-0.308105
-0.292284
-0.272048
-0.247273
-0.218231
-0.185615
-0.150215
-0.113572
-0.0774831
-0.0434655
-0.0131003
0.0125148
0.0327594
0.0475762
0.0573856
0.0629268
0.0650733
0.0646695
0.0624791
0.059113
0.0551132
0.0508145
0.0464672
0.0421946
0.0381682
0.034432
0.0310216
0.0278942
0.0250702
0.0225041
0.0201987
0.0181267
0.016265
0.0145658
0.013014
0.011588
0.0102895
0.00910718
0.00804136
0.00707792
0.00621229
0.00542776
0.00471815
0.00406508
0.00346685
0.00289933
0.00236951
0.00184422
0.00134011
0.000811048
0.000287309
-0.319618
-0.324349
-0.329092
-0.333293
-0.336384
-0.33795
-0.337395
-0.333952
-0.32742
-0.317007
-0.301794
-0.282406
-0.258251
-0.229566
-0.196941
-0.16138
-0.12429
-0.0873955
-0.0524537
-0.0210842
0.00552688
0.0267239
0.0424314
0.0530615
0.0593502
0.0621659
0.0623587
0.0606564
0.0576982
0.054012
0.0499587
0.0458125
0.0417459
0.0378611
0.0341971
0.0307775
0.0276696
0.0249245
0.0224035
0.0201294
0.0180775
0.0162377
0.0145524
0.0130125
0.0115924
0.0102992
0.00911875
0.00805451
0.00709074
0.00622464
0.00543941
0.00472813
0.00407487
0.00347435
0.00290716
0.00237458
0.0018503
0.00134243
0.000814993
0.000285579
-0.318509
-0.324171
-0.329122
-0.333868
-0.337763
-0.34018
-0.340583
-0.338333
-0.332769
-0.323422
-0.30969
-0.291338
-0.26815
-0.240263
-0.208189
-0.172875
-0.135784
-0.0986187
-0.063178
-0.0311214
-0.00369375
0.0184145
0.0350963
0.046725
0.0539957
0.0577445
0.0587939
0.0578292
0.0554828
0.0522899
0.0486374
0.0448002
0.0409651
0.0372487
0.0337415
0.0304872
0.0274977
0.024689
0.0222072
0.0199944
0.0179826
0.016174
0.0145095
0.0129869
0.0115781
0.0102949
0.00912005
0.00806011
0.00709814
0.00623305
0.00544812
0.00473601
0.00408298
0.00348075
0.00291403
0.00237915
0.00185585
0.00134472
0.000818716
0.000284088
-0.315884
-0.322187
-0.327054
-0.332011
-0.336474
-0.339597
-0.340754
-0.339507
-0.335044
-0.326861
-0.314432
-0.297399
-0.275536
-0.248907
-0.217958
-0.183575
-0.147125
-0.11029
-0.0748742
-0.042547
-0.0145787
0.00831226
0.0259712
0.0387025
0.0471211
0.0519996
0.0541085
0.0540955
0.0525461
0.0500023
0.046871
0.0434413
0.0399238
0.0364597
0.0331419
0.0300175
0.0271229
0.0244578
0.0220184
0.0197905
0.0178393
0.0160776
0.0144404
0.0129388
0.0115462
0.0102767
0.0091111
0.00805804
0.00709993
0.00623731
0.00545371
0.00474166
0.00408926
0.00348595
0.0029198
0.0023832
0.00186076
0.001347
0.000822128
0.000282937
-0.311823
-0.318475
-0.323058
-0.327886
-0.332572
-0.336103
-0.337864
-0.33732
-0.333837
-0.326803
-0.315682
-0.300067
-0.279723
-0.25471
-0.225409
-0.192588
-0.157469
-0.121628
-0.0868093
-0.0546661
-0.0264765
-0.00298408
0.0155918
0.0294573
0.0391145
0.0452388
0.0485346
0.0496243
0.049013
0.0472367
0.0447249
0.0417886
0.0386584
0.0354935
0.0324021
0.0294526
0.0266914
0.0241201
0.0217596
0.0196146
0.0176334
0.0159451
0.0143475
0.0128705
0.011498
0.0102456
0.00909238
0.00804847
0.00709614
0.00623738
0.00545608
0.004745
0.0040936
0.00348993
0.00292436
0.00238671
0.00186493
0.00134931
0.000825143
0.000282254
-0.306485
-0.313018
-0.317147
-0.321675
-0.326272
-0.329874
-0.331935
-0.331923
-0.329202
-0.323184
-0.313343
-0.299232
-0.280574
-0.257375
-0.23
-0.199239
-0.166124
-0.131968
-0.0983377
-0.0668358
-0.0387515
-0.0148652
0.00451922
0.0194838
0.0303974
0.0378111
0.0423526
0.0446105
0.0450284
0.0441004
0.0422762
0.0398931
0.0372001
0.0343761
0.0315479
0.0288006
0.0261897
0.023741
0.0214738
0.0193983
0.0175234
0.0157925
0.0142358
0.0127847
0.0114355
0.0102027
0.00906449
0.0080317
0.00708687
0.00623328
0.00545517
0.004746
0.00409589
0.00349265
0.00292762
0.00238969
0.00186827
0.00135169
0.00082768
0.000282193
-0.299898
-0.305413
-0.309022
-0.313289
-0.317519
-0.320891
-0.323085
-0.323435
-0.321298
-0.316166
-0.307543
-0.294959
-0.278116
-0.256979
-0.231834
-0.20336
-0.17261
-0.140705
-0.108826
-0.0784146
-0.0507635
-0.0267137
-0.00667789
0.00928062
0.0213868
0.0300577
0.035828
0.0392446
0.0407392
0.0407128
0.0396143
0.0378144
0.0355881
0.0331339
0.0305942
0.0280697
0.0256293
0.0233126
0.021144
0.0191395
0.0172806
0.0155948
0.0141032
0.0126819
0.0113603
0.0101493
0.00902818
0.00800822
0.0070724
0.00622517
0.00545104
0.0047447
0.00409613
0.00349413
0.00292955
0.00239215
0.00187071
0.00135419
0.000829677
0.000282947
-0.291674
-0.295336
-0.298734
-0.302826
-0.306368
-0.309059
-0.311319
-0.311928
-0.310301
-0.306021
-0.298622
-0.287629
-0.272729
-0.253848
-0.231186
-0.205291
-0.177074
-0.147647
-0.117918
-0.0890106
-0.0621352
-0.0381831
-0.0176942
-0.00089521
0.0122861
0.0221335
0.0290721
0.0335918
0.0361679
0.0371081
0.0367965
0.035616
0.0338776
0.0318083
0.0295703
0.0272809
0.0250212
0.0228441
0.0207811
0.0188574
0.0170727
0.0154233
0.0139257
0.012555
0.0112731
0.0100871
0.00898488
0.00797911
0.00705351
0.00621361
0.00544406
0.00474136
0.00409443
0.00349444
0.0029301
0.00239411
0.00187217
0.00135682
0.000831079
0.000284771
-0.280984
-0.283215
-0.286812
-0.290356
-0.293494
-0.296515
-0.29826
-0.298926
-0.297787
-0.294335
-0.288164
-0.278798
-0.265928
-0.249443
-0.229451
-0.206342
-0.180831
-0.153884
-0.126447
-0.0993176
-0.0735029
-0.0498726
-0.0290734
-0.0115089
0.00272148
0.0137578
0.0219019
0.0275575
0.0311553
0.033088
0.0336644
0.0332029
0.032026
0.0303904
0.0284862
0.0264526
0.0243876
0.0223588
0.0204085
0.0185687
0.0168475
0.0152207
0.0137586
0.0124199
0.0111757
0.0100172
0.00893533
0.00794433
0.00702978
0.00619792
0.00543343
0.00473522
0.00409001
0.00349301
0.00292865
0.00239516
0.00187218
0.00135938
0.00083161
0.00028798
-0.268172
-0.271263
-0.274203
-0.276051
-0.27801
-0.280196
-0.281876
-0.282586
-0.281781
-0.279187
-0.274344
-0.266739
-0.256073
-0.242195
-0.225107
-0.205042
-0.182478
-0.158128
-0.132825
-0.107434
-0.0828863
-0.0599589
-0.0392552
-0.0212875
-0.00630296
0.00569803
0.0148946
0.0215921
0.0261522
0.0289214
0.0302514
0.0304773
0.0298831
0.0287221
0.027197
0.0254613
0.023628
0.0217775
0.0199641
0.0182278
0.0165828
0.0150331
0.0135738
0.0122783
0.011057
0.00992679
0.00886931
0.00789484
0.00699365
0.00617198
0.00541422
0.00472265
0.00407994
0.00348786
0.00292363
0.00239437
0.00186988
0.00136147
0.000830714
0.000292863
-0.25481
-0.262516
-0.264502
-0.265174
-0.266702
-0.26901
-0.270678
-0.270724
-0.269396
-0.266779
-0.262123
-0.254917
-0.2449
-0.231938
-0.216034
-0.197397
-0.176456
-0.153845
-0.130325
-0.106666
-0.0836562
-0.0620205
-0.0423451
-0.0250894
-0.0105029
0.00137552
0.0106686
0.0176172
0.0225311
0.0257361
0.0275291
0.028189
0.027985
0.0271624
0.0259253
0.0244274
0.0227917
0.0211005
0.0194177
0.0177823
0.0162205
0.0147426
0.0133612
0.0121084
0.0109347
0.00982217
0.00879337
0.00783809
0.00695292
0.00614325
0.00539336
0.00470989
0.00406998
0.00348358
0.00291955
0.00239494
0.00186837
0.00136467
0.000829642
0.000298922
-0.240409
-0.25084
-0.25319
-0.252867
-0.253268
-0.254485
-0.255339
-0.25529
-0.253978
-0.251119
-0.246358
-0.239354
-0.229874
-0.217805
-0.203171
-0.186157
-0.167131
-0.146618
-0.125255
-0.103699
-0.0826267
-0.062676
-0.0443735
-0.0281293
-0.0141961
-0.0026524
0.00656828
0.0136419
0.0188169
0.0223602
0.0245253
0.0255648
0.0257305
0.0252511
0.0243213
0.0230918
0.0216854
0.0201875
0.0186658
0.0171631
0.015711
0.0143243
0.0130203
0.0118045
0.0106878
0.00963637
0.00864582
0.00772319
0.00686304
0.00607395
0.00533943
0.00466906
0.00403813
0.0034602
0.00290141
0.00238256
0.00185866
0.0013597
0.000825163
0.000301002
-0.225655
-0.237283
-0.240129
-0.239319
-0.238854
-0.239374
-0.239987
-0.239837
-0.238318
-0.235224
-0.230436
-0.223739
-0.214922
-0.203873
-0.190606
-0.175273
-0.158164
-0.139702
-0.120407
-0.100845
-0.0815988
-0.0632291
-0.0462152
-0.0309386
-0.0176553
-0.00647521
0.00262214
0.00975843
0.0151251
0.0189408
0.0214298
0.0228205
0.0233405
0.0231989
0.0225782
0.0216242
0.0204571
0.0191648
0.0178167
0.01646
0.0151292
0.0138447
0.0126233
0.011481
0.0104184
0.00941281
0.00846201
0.00757501
0.00674399
0.00597928
0.00526413
0.00460991
0.00399138
0.00342413
0.00287331
0.00236176
0.00184295
0.00134976
0.000818203
0.000300986
-0.211241
-0.222767
-0.226028
-0.225264
-0.224426
-0.224553
-0.224925
-0.224555
-0.222875
-0.219736
-0.215087
-0.208794
-0.200682
-0.190642
-0.178675
-0.164898
-0.149545
-0.132957
-0.115568
-0.0978604
-0.0803341
-0.0634773
-0.0477218
-0.0334192
-0.0208196
-0.0100535
-0.00113756
0.00600233
0.0115075
0.0155556
0.0183398
0.0200599
0.0209177
0.0211028
0.0207851
0.0201041
0.0191771
0.018093
0.0169224
0.015716
0.0145111
0.0133335
0.0122022
0.011135
0.0101264
0.00917029
0.00826287
0.00741334
0.0066134
0.00587469
0.00518044
0.00454378
0.00393883
0.00338339
0.00284141
0.00233811
0.00182504
0.00133839
0.000810581
0.000300222
-0.196654
-0.207869
-0.21153
-0.211061
-0.210138
-0.209987
-0.210087
-0.209546
-0.207836
-0.204794
-0.200386
-0.194533
-0.187109
-0.178019
-0.167254
-0.154907
-0.141166
-0.12631
-0.110695
-0.0947258
-0.0788284
-0.0634236
-0.0488955
-0.0355653
-0.0236735
-0.0133634
-0.00468195
0.00240575
0.00799871
0.0122361
0.0152789
0.0172978
0.0184701
0.0189658
0.0189415
0.0185289
0.0178413
0.016967
0.0159773
0.0149255
0.0138517
0.0127857
0.0117478
0.0107557
0.0098085
0.00890734
0.00804667
0.00723717
0.00647055
0.00575984
0.00508816
0.00447062
0.00388049
0.00333808
0.00280584
0.00231174
0.00180509
0.00132565
0.000802344
0.000298715
-0.182171
-0.193097
-0.197023
-0.196862
-0.195979
-0.195654
-0.195562
-0.194943
-0.193293
-0.19043
-0.18632
-0.180928
-0.174171
-0.165978
-0.156336
-0.145312
-0.133058
-0.1198
-0.105828
-0.0914786
-0.0771108
-0.0630861
-0.049743
-0.0373729
-0.0262034
-0.0163846
-0.00798559
-0.00100305
0.0046259
0.00900509
0.0122642
0.0145468
0.0160063
0.0167931
0.0170495
0.0168985
0.0164477
0.0157836
0.0149776
0.0140844
0.0131463
0.012196
0.0112552
0.0103437
0.0094636
0.0086208
0.00780991
0.00704323
0.00631246
0.00563203
0.00498497
0.00438837
0.00381467
0.0032867
0.00276543
0.00228157
0.00178238
0.00131085
0.000793114
0.00029631
-0.168307
-0.17867
-0.182676
-0.182788
-0.182022
-0.181638
-0.181455
-0.18083
-0.179292
-0.176652
-0.17288
-0.167965
-0.161863
-0.154521
-0.145924
-0.136122
-0.125233
-0.113441
-0.100981
-0.0881295
-0.0751898
-0.06247
-0.0502653
-0.0388374
-0.0283988
-0.0191006
-0.0110272
-0.00419999
0.00141339
0.00588547
0.00931723
0.0118265
0.0135433
0.0145989
0.0151206
0.0152212
0.0150023
0.014547
0.0139257
0.0131938
0.0123949
0.0115641
0.0107248
0.00989886
0.00909008
0.00830908
0.00755107
0.00683005
0.00613772
0.00548995
0.00486969
0.00429595
0.00374042
0.00322838
0.0027195
0.002247
0.00175648
0.00129361
0.000782714
0.00029304
-0.155001
-0.16464
-0.168633
-0.168993
-0.168392
-0.168032
-0.167832
-0.167249
-0.165855
-0.163468
-0.16006
-0.155634
-0.150168
-0.143629
-0.136002
-0.127322
-0.117683
-0.10723
-0.0961554
-0.0846869
-0.0730765
-0.0615857
-0.0504697
-0.0399611
-0.0302553
-0.0215004
-0.0137899
-0.00716425
-0.00161586
0.00290092
0.00646107
0.00915818
0.0111003
0.0123994
0.0131678
0.0135076
0.0135129
0.0132627
0.0128252
0.0122559
0.0115988
0.010891
0.0101568
0.00942029
0.00868698
0.00797125
0.00726924
0.00659671
0.00594547
0.00533277
0.00474152
0.00419262
0.00365713
0.00316258
0.0026676
0.00220765
0.00172713
0.00127373
0.000771053
0.000288988
-0.142185
-0.151138
-0.155065
-0.155631
-0.155203
-0.154911
-0.154739
-0.154231
-0.153006
-0.150889
-0.147855
-0.143916
-0.139064
-0.133278
-0.126546
-0.118895
-0.110396
-0.101165
-0.091359
-0.0811628
-0.0707858
-0.0604477
-0.0503676
-0.0407499
-0.0317724
-0.0235765
-0.0162603
-0.0098777
-0.00444057
7.4157e-05
0.00371833
0.00656331
0.00869642
0.0102113
0.0112051
0.0117688
0.011988
0.0119369
0.0116807
0.0112736
0.0107597
0.0101773
0.00955116
0.00890749
0.00825339
0.00760632
0.00696345
0.00634225
0.00573473
0.00515954
0.00459961
0.00407759
0.00356408
0.00308867
0.00260922
0.00216307
0.00169402
0.00125097
0.000757994
0.000284209
-0.130044
-0.138296
-0.142084
-0.1428
-0.142535
-0.14233
-0.142213
-0.141805
-0.140758
-0.138918
-0.136258
-0.132793
-0.128526
-0.123442
-0.117535
-0.110824
-0.103364
-0.0952474
-0.0865987
-0.07757
-0.0683331
-0.0590718
-0.0499724
-0.041213
-0.0329533
-0.0253257
-0.0184288
-0.0123254
-0.00704192
-0.00257391
0.00111053
0.00406283
0.0063512
0.0080519
0.00924743
0.010017
0.0104376
0.0105773
0.0104974
0.0102507
0.00987991
0.00942417
0.00890837
0.00836056
0.00778882
0.00721356
0.00663283
0.00606574
0.00550456
0.00496933
0.00444307
0.00395002
0.00346054
0.00300597
0.00254381
0.00211278
0.00165679
0.00122508
0.00074335
0.000278731
-0.118652
-0.12615
-0.129736
-0.130561
-0.130444
-0.130334
-0.130288
-0.129983
-0.129116
-0.127552
-0.125259
-0.122249
-0.118531
-0.1141
-0.108951
-0.103097
-0.0965817
-0.0894768
-0.0818825
-0.0739217
-0.0657352
-0.0574756
-0.0493003
-0.0413629
-0.033805
-0.0267486
-0.0202897
-0.0144958
-0.0094041
-0.00502455
-0.0013421
0.00167723
0.00408437
0.00593947
0.00731076
0.00826585
0.00887258
0.00919251
0.00928227
0.00919198
0.00896278
0.00863384
0.00822977
0.00777998
0.00729327
0.00679262
0.00627678
0.00576642
0.00525415
0.00476128
0.00427106
0.00380909
0.00334577
0.00291379
0.0024708
0.0020563
0.00161505
0.00119582
0.000726913
0.000272566
-0.10794
-0.114706
-0.118069
-0.118966
-0.118979
-0.118959
-0.118987
-0.118787
-0.118099
-0.116797
-0.114851
-0.11227
-0.109066
-0.105236
-0.100779
-0.0957041
-0.0900445
-0.0838565
-0.0772195
-0.0702327
-0.0630105
-0.0556791
-0.0483702
-0.0412152
-0.0343382
-0.0278498
-0.0218413
-0.0163814
-0.0115145
-0.00726155
-0.00362104
-0.000573935
0.00191538
0.00389237
0.00541183
0.00653003
0.00730545
0.00779269
0.00804305
0.00810349
0.00801273
0.0078094
0.00751729
0.00716687
0.00676728
0.00634352
0.00589499
0.00544378
0.00498287
0.00453467
0.00408285
0.00365406
0.00321907
0.00281149
0.00238962
0.00199314
0.00156841
0.00116292
0.000708469
0.00026571
-0.0979105
-0.103996
-0.107121
-0.108057
-0.108173
-0.108236
-0.108333
-0.108237
-0.107717
-0.106659
-0.105034
-0.10285
-0.100117
-0.0968363
-0.0930077
-0.088638
-0.0837511
-0.0783911
-0.0726206
-0.0665189
-0.0601789
-0.0537038
-0.0472032
-0.0407884
-0.0345671
-0.0286379
-0.0230858
-0.0179785
-0.0133642
-0.00927162
-0.00571001
-0.00267266
-0.000137167
0.00192882
0.00356769
0.00482486
0.00574949
0.006389
0.00678889
0.00699241
0.00703522
0.00695482
0.0067737
0.00652304
0.00621193
0.00586676
0.00548754
0.0050976
0.00469029
0.00428898
0.00387783
0.00348429
0.00307981
0.00269848
0.00229972
0.00192286
0.00151646
0.00112616
0.000687806
0.000258144
-0.0885998
-0.0940322
-0.0969034
-0.0978469
-0.0980464
-0.0981798
-0.0983397
-0.098337
-0.0979676
-0.0971352
-0.0958021
-0.0939781
-0.091674
-0.0888917
-0.0856302
-0.0818945
-0.0777022
-0.073087
-0.0680978
-0.0627978
-0.0572614
-0.0515728
-0.0458224
-0.0401036
-0.0345088
-0.0291251
-0.0240296
-0.0192875
-0.0149479
-0.0110449
-0.0075955
-0.00460298
-0.00205601
6.63484e-05
0.00179526
0.00316602
0.00421872
0.00499356
0.00552994
0.00586697
0.00603674
0.00607505
0.00600273
0.0058511
0.00562884
0.00536333
0.00505493
0.00472799
0.0043763
0.00402386
0.00365555
0.00329927
0.00292745
0.00257424
0.00220059
0.00184505
0.00145882
0.0010853
0.000664723
0.000249831
-0.0799821
-0.084794
-0.0874075
-0.0883389
-0.0886033
-0.0887969
-0.0890135
-0.0890956
-0.088869
-0.088222
-0.0871479
-0.0856478
-0.0837289
-0.0813933
-0.0786398
-0.0754713
-0.0719003
-0.0679521
-0.0636646
-0.0590874
-0.05428
-0.0493104
-0.0442525
-0.0391842
-0.0341838
-0.0293269
-0.0246831
-0.0203126
-0.0162645
-0.0125751
-0.00926719
-0.00635149
-0.00382575
-0.00167871
0.000110902
0.00156915
0.00272754
0.00361919
0.00427725
0.00473641
0.00502481
0.00517608
0.00520893
0.00515431
0.00502032
0.00483487
0.00459819
0.00433549
0.00404106
0.00373925
0.00341578
0.00309866
0.00276155
0.00243834
0.0020918
0.00175935
0.00139514
0.00104012
0.000639045
0.000240727
-0.0720162
-0.0762595
-0.0786235
-0.0795277
-0.0798395
-0.0800802
-0.0803403
-0.0804889
-0.0803708
-0.0798985
-0.0790559
-0.0778458
-0.0762716
-0.0743339
-0.072032
-0.0693674
-0.066349
-0.0629951
-0.0593348
-0.0554065
-0.0512573
-0.0469416
-0.0425196
-0.0380553
-0.0336145
-0.0292623
-0.0250599
-0.0210625
-0.0173167
-0.0138599
-0.0107182
-0.00790773
-0.00543332
-0.00329169
-0.00147007
4.93977e-05
0.0012903
0.00227901
0.0030425
0.00361082
0.00400787
0.00426477
0.00439773
0.00443697
0.00438957
0.00428349
0.00411876
0.00392108
0.00368515
0.00343542
0.00315852
0.00288231
0.00258185
0.00229048
0.00197298
0.00166545
0.00132512
0.000990436
0.00061062
0.000230783
-0.0646835
-0.0684091
-0.0705337
-0.0713986
-0.0717423
-0.0720183
-0.0723113
-0.0725122
-0.0724889
-0.0721638
-0.0715246
-0.0705661
-0.0692932
-0.067706
-0.0658024
-0.0635827
-0.0610526
-0.0582254
-0.0551227
-0.051774
-0.0482161
-0.0444922
-0.0406506
-0.0367437
-0.0328261
-0.0289529
-0.0251774
-0.0215491
-0.0181115
-0.014901
-0.0119454
-0.00926453
-0.00686844
-0.0047601
-0.00293386
-0.00137896
-7.89765e-05
0.000986197
0.0018376
0.00250074
0.00299504
0.0033489
0.00357557
0.00370419
0.00374043
0.00371204
0.00361878
0.00348626
0.00330956
0.00311296
0.00288405
0.00265032
0.00238825
0.0021305
0.00184388
0.00156314
0.00124852
0.000936077
0.000579331
0.000219955
-0.0579597
-0.0612127
-0.0631097
-0.0639272
-0.064291
-0.0645924
-0.06491
-0.0651545
-0.0652135
-0.0650195
-0.064542
-0.0637974
-0.0627855
-0.061503
-0.0599472
-0.058117
-0.0560156
-0.0536522
-0.0510426
-0.0482088
-0.0451792
-0.0419878
-0.038673
-0.035277
-0.0318448
-0.0284225
-0.0250558
-0.0217882
-0.0186593
-0.0157037
-0.0129494
-0.0104182
-0.00812387
-0.00607401
-0.00426869
-0.00270308
-0.00136706
-0.00024621
0.000674828
0.00141714
0.00199585
0.00243656
0.0027494
0.00296177
0.00307763
0.00312432
0.00310107
0.0030331
0.00291576
0.00277289
0.00259301
0.00240306
0.0021809
0.00195844
0.00170443
0.0014523
0.00116521
0.000876928
0.000545097
0.000208205
-0.0518068
-0.0546339
-0.0563191
-0.057085
-0.0574592
-0.0577772
-0.0581104
-0.0583849
-0.058505
-0.05841
-0.0580791
-0.0575194
-0.0567325
-0.0557149
-0.0544614
-0.0529699
-0.0512423
-0.0492848
-0.0471084
-0.0447294
-0.0421692
-0.0394541
-0.0366143
-0.0336836
-0.0306984
-0.0276969
-0.0247176
-0.0217982
-0.0189741
-0.0162772
-0.0137346
-0.0113688
-0.00919568
-0.00722635
-0.0054652
-0.00391212
-0.00256234
-0.00140629
-0.000433868
0.000371677
0.00102096
0.00153676
0.00192643
0.00221579
0.00240646
0.00252473
0.00256912
0.0025643
0.00250575
0.0024167
0.00228643
0.00214123
0.00196022
0.00177453
0.00155471
0.00133293
0.00107514
0.000812934
0.000507879
0.000195515
-0.0461902
-0.0486376
-0.0501284
-0.050841
-0.051218
-0.0515453
-0.0518867
-0.0521819
-0.0523497
-0.0523385
-0.0521309
-0.0517242
-0.0511266
-0.0503336
-0.0493392
-0.0481401
-0.0467361
-0.0451313
-0.0433331
-0.0413534
-0.0392077
-0.036916
-0.0345019
-0.0319919
-0.0294152
-0.026803
-0.0241874
-0.0216005
-0.0190731
-0.0166341
-0.0143089
-0.0121196
-0.0100833
-0.00821306
-0.0065165
-0.00499717
-0.00365475
-0.00248372
-0.00147844
-0.000625723
8.06416e-05
0.00065998
0.00111617
0.00147363
0.00173249
0.00191787
0.0020268
0.00208303
0.00208205
0.00204633
0.00196575
0.00186589
0.00172693
0.00157925
0.00139502
0.00120522
0.000978407
0.000744127
0.000467689
0.000181879
-0.0410782
-0.0431885
-0.044502
-0.0451612
-0.0455353
-0.045866
-0.0462098
-0.0465176
-0.0467212
-0.0467763
-0.0466656
-0.0463873
-0.0459488
-0.0453468
-0.0445743
-0.0436257
-0.0424999
-0.0411993
-0.0397291
-0.0380973
-0.0363153
-0.0343977
-0.0323623
-0.03023
-0.0280238
-0.0257688
-0.0234913
-0.0212182
-0.0189759
-0.01679
-0.0146837
-0.0126778
-0.0107897
-0.00903335
-0.00741859
-0.00595158
-0.00463554
-0.00346838
-0.00244859
-0.00156614
-0.000818081
-0.000187222
0.000326541
0.000744571
0.00106414
0.00131001
0.00147887
0.00159309
0.00164772
0.0016642
0.00163286
0.00157847
0.0014821
0.00137337
0.00122591
0.0010695
0.000875236
0.000670635
0.000424594
0.000167317
-0.0364376
-0.0382501
-0.0394037
-0.040011
-0.040378
-0.0407077
-0.0410494
-0.0413632
-0.0415922
-0.0416988
-0.0416683
-0.0414993
-0.0411907
-0.0407464
-0.0401593
-0.0394227
-0.0385342
-0.0374944
-0.0363065
-0.0349761
-0.0335109
-0.0319215
-0.030221
-0.0284253
-0.0265524
-0.0246223
-0.0226561
-0.020676
-0.0187044
-0.0167633
-0.0148733
-0.0130537
-0.0113211
-0.00968978
-0.00817075
-0.00677182
-0.00549887
-0.00435225
-0.00333386
-0.0024369
-0.00166273
-0.000996146
-0.000438654
3.05821e-05
0.000405641
0.000707547
0.000931308
0.0010994
0.00120677
0.00127355
0.00129034
0.001281
0.00122727
0.00115805
0.00104821
0.000926368
0.000766045
0.000592717
0.000378732
0.000151865
-0.0322363
-0.0337877
-0.0347982
-0.0353562
-0.0357134
-0.0360388
-0.0363747
-0.0366893
-0.0369355
-0.0370813
-0.0371137
-0.0370306
-0.0368326
-0.036518
-0.0360849
-0.0355271
-0.0348398
-0.034022
-0.0330756
-0.0320042
-0.030813
-0.0295092
-0.0281025
-0.0266046
-0.0250292
-0.0233919
-0.0217095
-0.0200002
-0.0182823
-0.0165746
-0.014895
-0.0132607
-0.0116872
-0.0101884
-0.00877569
-0.00745777
-0.00624241
-0.00513172
-0.00413025
-0.00323261
-0.00244309
-0.00175014
-0.00116075
-0.000654967
-0.000237058
0.000112822
0.000386875
0.000604917
0.000761865
0.000876774
0.000940278
0.000975264
0.000963963
0.000934512
0.000862922
0.000776585
0.000651394
0.00051075
0.000330331
0.000135586
-0.0284409
-0.0297642
-0.0306475
-0.0311592
-0.0315046
-0.031823
-0.0321504
-0.0324615
-0.0327174
-0.0328917
-0.0329732
-0.0329593
-0.0328484
-0.0326405
-0.0323367
-0.0319292
-0.0314114
-0.0307818
-0.0300409
-0.0291908
-0.0282351
-0.0271785
-0.0260278
-0.0247913
-0.0234794
-0.0221038
-0.020678
-0.0192162
-0.0177335
-0.0162454
-0.0147672
-0.013314
-0.0118998
-0.0105374
-0.00923836
-0.00801138
-0.00686561
-0.00580417
-0.00483393
-0.00395155
-0.00316387
-0.00245773
-0.00184015
-0.00129793
-0.000845938
-0.000458538
-0.000142871
0.000119613
0.000321777
0.000480972
0.000588311
0.000665621
0.000695462
0.000705225
0.000671814
0.000621415
0.000532186
0.000425289
0.000279746
0.00011865
-0.0250347
-0.0261608
-0.0269321
-0.0274012
-0.0277339
-0.0280438
-0.0283613
-0.028666
-0.0289265
-0.0291208
-0.0292398
-0.0292813
-0.0292451
-0.029129
-0.0289262
-0.0286353
-0.0282559
-0.0277838
-0.0272158
-0.0265525
-0.0257966
-0.0249517
-0.024022
-0.0230133
-0.0219328
-0.0207895
-0.0195934
-0.0183558
-0.0170886
-0.0158044
-0.014516
-0.0132363
-0.0119778
-0.010752
-0.0095697
-0.00843955
-0.00737133
-0.00636866
-0.00544024
-0.00458322
-0.00380769
-0.00310532
-0.00248853
-0.00193249
-0.00144405