/*--------------------------------*- C++ -*----------------------------------*\
| =========                 |                                                 |
| \\      /  F ield         | OpenFOAM: The Open Source CFD Toolbox           |
|  \\    /   O peration     | Version:  2512                                  |
|   \\  /    A nd           | Website:  www.openfoam.com                      |
|    \\/     M anipulation  |                                                 |
\*---------------------------------------------------------------------------*/
FoamFile
{
    version     2.0;
    format      ascii;
    arch        "LSB;label=32;scalar=64";
    class       volVectorField;
    location    "19";
    object      U;
}
// * * * * * * * * * * * * * * * * * * * * * * * * * * * * * * * * * * * * * //

dimensions      [0 1 -1 0 0 0 0];

internalField   nonuniform List<vector> 
13248
(
(-0.0128501 0.0117655 6.5169e-20)
(-0.0250425 0.025329 0)
(-0.0244384 0.0327941 -1.23281e-19)
(-0.011717 0.0361804 1.16133e-19)
(0.0126521 0.0370849 1.087e-19)
(0.0483348 0.0367596 0)
(0.0950441 0.0361608 0)
(0.152426 0.0360109 2.619e-19)
(0.219921 0.0368389 -1.24815e-21)
(0.296632 0.0389953 -2.28881e-19)
(0.381229 0.0426546 2.12597e-19)
(0.471915 0.0478172 -1.32916e-19)
(0.566476 0.0543171 0)
(0.662392 0.0618397 -2.30267e-19)
(0.756996 0.0699525 4.30972e-19)
(0.847666 0.0781455 -1.01976e-19)
(0.932002 0.0858842 -1.86258e-19)
(1.00799 0.0926313 1.74847e-19)
(1.07414 0.0980006 0)
(1.12947 0.101371 0)
(1.17392 0.103282 0)
(1.20695 0.101195 0)
(1.23144 0.101071 5.73114e-20)
(1.24451 0.0878996 2.15205e-19)
(-0.0128616 0.0104806 -1.9683e-19)
(-0.0214735 0.021016 1.34261e-19)
(-0.0139215 0.0260346 -1.17673e-21)
(0.0086905 0.0277576 -1.77428e-19)
(0.0456506 0.0279276 -1.08584e-19)
(0.0963762 0.0278967 -1.02654e-19)
(0.160183 0.028654 -1.88495e-19)
(0.236084 0.0308904 1.78252e-19)
(0.322601 0.0350243 0)
(0.417657 0.0412093 7.36958e-22)
(0.518572 0.0493405 1.58593e-21)
(0.62219 0.0590744 1.33042e-19)
(0.725101 0.0698715 0)
(0.823921 0.0810593 0)
(0.91557 0.0919089 1.58739e-19)
(0.997521 0.101716 -2.98154e-19)
(1.06797 0.109873 1.81498e-19)
(1.12596 0.115923 -1.70391e-19)
(1.17131 0.1196 -7.66196e-20)
(1.20472 0.120797 -1.4239e-19)
(1.22726 0.119718 -6.17896e-20)
(1.24105 0.116139 -1.17078e-19)
(1.24711 0.112229 1.67956e-19)
(1.24868 0.103264 4.95786e-20)
(-0.0119711 0.00881674 0)
(-0.0146814 0.0160147 0)
(0.00265132 0.0188601 6.27591e-20)
(0.0383341 0.0196244 5.78025e-20)
(0.0912007 0.0201138 -1.42965e-21)
(0.160102 0.0217197 -1.05967e-19)
(0.243494 0.0253757 0)
(0.339176 0.0315958 -8.86197e-20)
(0.444158 0.040498 8.33549e-20)
(0.554701 0.0518234 6.54773e-22)
(0.666559 0.0649819 -1.42762e-19)
(0.775352 0.0791372 -1.3152e-19)
(0.877002 0.0933226 1.75441e-21)
(0.968119 0.10657 -1.10799e-19)
(1.04629 0.11803 2.64186e-19)
(1.11023 0.127067 0)
(1.1598 0.133313 -1.76236e-19)
(1.19584 0.136666 8.50098e-20)
(1.22001 0.137306 7.655e-20)
(1.23441 0.135499 0)
(1.24144 0.131936 6.4564e-20)
(1.24324 0.126465 -2.27334e-19)
(1.24148 0.121515 2.13408e-19)
(1.23927 0.112577 1.40017e-19)
(-0.00979421 0.00674998 -6.96732e-20)
(-0.00370042 0.0104296 -7.20668e-20)
(0.0266407 0.0116402 6.51371e-20)
(0.0787302 0.0124917 0)
(0.150604 0.014713 0)
(0.240034 0.0195948 -2.25847e-21)
(0.343973 0.0278168 0)
(0.458362 0.0394664 -2.70959e-19)
(0.578229 0.0540906 2.51931e-19)
(0.698071 0.0707864 -3.11341e-19)
(0.812447 0.0883509 7.14789e-20)
(0.916596 0.105475 0)
(1.00694 0.120941 1.20599e-19)
(1.08138 0.133789 -2.241e-19)
(1.13937 0.143418 5.31803e-20)
(1.18173 0.149617 1.39859e-19)
(1.21036 0.152527 -4.43508e-21)
(1.2278 0.152555 -1.57357e-19)
(1.23679 0.15026 0)
(1.23993 0.146234 0)
(1.23935 0.141104 -5.86851e-20)
(1.23664 0.135028 5.33947e-20)
(1.2329 0.129573 1.96368e-19)
(1.22908 0.121269 -1.84319e-19)
(-0.00592571 0.0043484 -7.35369e-20)
(0.0124216 0.00458677 -7.32151e-20)
(0.0592365 0.00504475 2.05912e-19)
(0.13092 0.00740023 -1.2483e-19)
(0.224192 0.0130752 1.17501e-19)
(0.335057 0.0230052 2.13414e-19)
(0.458263 0.0373009 -1.50886e-19)
(0.587416 0.0552902 -1.83991e-19)
(0.715554 0.0756864 3.30303e-21)
(0.836006 0.0968374 2.35746e-19)
(0.943254 0.117028 0)
(1.03356 0.134769 6.57016e-20)
(1.10525 0.149007 0)
(1.15859 0.159222 -1.08798e-19)
(1.19542 0.165408 1.53064e-19)
(1.21857 0.167964 1.3064e-21)
(1.23128 0.167537 -4.11027e-20)
(1.23664 0.164859 7.75681e-20)
(1.23728 0.160621 6.78216e-20)
(1.23517 0.155381 -6.15736e-20)
(1.23161 0.149591 5.86721e-20)
(1.22738 0.143367 -5.33824e-20)
(1.22279 0.137645 0)
(1.21866 0.129858 -4.16915e-20)
(2.64059e-05 0.001781 7.35264e-20)
(0.0345156 -0.000926589 7.7256e-20)
(0.10128 8.83106e-05 -6.90064e-20)
(0.195197 0.00571556 1.28533e-19)
(0.310996 0.0167305 -1.2098e-19)
(0.44216 0.0333259 1.09446e-19)
(0.580719 0.054637 -5.25683e-20)
(0.717996 0.0789228 1.38149e-19)
(0.84581 0.103972 -8.70201e-20)
(0.957674 0.127563 1.55227e-19)
(1.04959 0.147874 -3.59231e-19)
(1.12025 0.163744 1.32529e-19)
(1.17075 0.17475 -1.17233e-19)
(1.20388 0.18111 1.10114e-19)
(1.22329 0.183487 9.65842e-20)
(1.23278 0.182754 8.59251e-20)
(1.23569 0.179792 -2.39603e-19)
(1.23461 0.175355 1.49127e-19)
(1.23137 0.170012 -6.78248e-20)
(1.22708 0.16415 1.79821e-19)
(1.22238 0.158019 -5.78954e-20)
(1.21757 0.151711 -1.45094e-19)
(1.21281 0.145726 1.34558e-19)
(1.20839 0.138334 4.16776e-20)
(0.00841373 -0.000676966 0)
(0.0631761 -0.00528315 6.91113e-22)
(0.15305 -0.00195362 1.44559e-19)
(0.27084 0.00896278 -1.35539e-19)
(0.408526 0.0271126 -1.22208e-19)
(0.556495 0.0514553 2.27229e-19)
(0.704096 0.0797748 -1.05571e-19)
(0.841237 0.109162 1.41192e-19)
(0.960056 0.136724 -2.75429e-21)
(1.05598 0.16018 -8.03932e-20)
(1.12792 0.17819 1.7681e-19)
(1.17765 0.190401 -2.61783e-19)
(1.20886 0.197255 0)
(1.22599 0.199683 -5.22023e-20)
(1.23332 0.198783 -1.40675e-19)
(1.23446 0.195588 4.41555e-20)
(1.23203 0.190926 1.42141e-21)
(1.22779 0.185388 -1.00498e-19)
(1.22279 0.179361 4.93526e-21)
(1.21757 0.173077 1.16871e-19)
(1.21241 0.166674 -5.31278e-20)
(1.20739 0.160233 -2.09962e-20)
(1.20253 0.15396 6.31348e-20)
(1.19796 0.146856 0)
(0.0195051 -0.00265971 0)
(0.0986423 -0.00747651 3.92252e-20)
(0.214078 0.000324908 -1.8896e-19)
(0.355934 0.0185889 6.86786e-20)
(0.512815 0.0452388 -6.4638e-20)
(0.671943 0.0775267 -5.92213e-20)
(0.820853 0.111735 -1.04846e-19)
(0.949692 0.144061 5.21901e-20)
(1.05277 0.171528 4.54875e-20)
(1.12882 0.192459 0)
(1.18015 0.20649 1.05347e-19)
(1.21125 0.21427 -1.57772e-19)
(1.22736 0.217004 1.17525e-19)
(1.23337 0.21605 5.22291e-20)
(1.2332 0.21262 -4.35134e-20)
(1.22965 0.207656 -3.69917e-20)
(1.22449 0.201802 -3.48559e-20)
(1.21876 0.195468 1.02994e-19)
(1.21298 0.188893 0)
(1.20739 0.182215 5.32576e-20)
(1.20205 0.175513 4.59223e-20)
(1.19696 0.168846 -1.12753e-19)
(1.19207 0.162249 -7.91573e-20)
(1.1874 0.155327 7.30281e-20)
(0.0334322 -0.00372792 -4.25942e-20)
(0.140667 -0.00640676 -1.72284e-21)
(0.283024 0.00827868 3.85021e-20)
(0.447407 0.0357037 1.07761e-19)
(0.618847 0.0714658 3.14483e-20)
(0.782135 0.110846 -6.07547e-20)
(0.924662 0.148877 5.5435e-20)
(1.03879 0.181523 -4.87236e-20)
(1.12246 0.206473 8.7829e-20)
(1.17818 0.223193 3.76682e-20)
(1.21119 0.232482 -1.06986e-19)
(1.22761 0.235849 3.16742e-20)
(1.23305 0.234961 5.45829e-20)
(1.23197 0.231282 -2.67747e-20)
(1.22744 0.225916 0)
(1.22139 0.219608 4.07147e-20)
(1.21489 0.212812 6.96893e-20)
(1.20847 0.205788 1.25034e-20)
(1.20235 0.198681 -5.8609e-20)
(1.19659 0.191569 2.48411e-20)
(1.19119 0.184504 0)
(1.18608 0.177514 -1.99446e-20)
(1.18119 0.170569 -1.92165e-20)
(1.17647 0.163699 0)
(0.0501342 -0.00339938 0)
(0.188428 -0.000994474 2.23564e-20)
(0.357662 0.0230221 4.13493e-20)
(0.541293 0.0608789 -1.10142e-19)
(0.721283 0.105417 3.56528e-20)
(0.881552 0.150089 0)
(1.01143 0.189359 5.38539e-20)
(1.1071 0.219814 -7.52726e-20)
(1.17074 0.240441 -4.39486e-20)
(1.20816 0.252074 1.98814e-20)
(1.22646 0.256541 -3.22556e-20)
(1.23223 0.255903 7.80902e-20)
(1.23065 0.251966 3.94665e-20)
(1.22531 0.246085 -2.72427e-20)
(1.21838 0.239153 -2.35991e-21)
(1.21106 0.231708 -7.61606e-20)
(1.20392 0.224048 3.47978e-20)
(1.19719 0.216331 -9.27721e-22)
(1.19094 0.208641 0)
(1.18515 0.201029 -2.48672e-20)
(1.17976 0.193525 0)
(1.17469 0.186127 5.75876e-20)
(1.16985 0.178822 -6.90088e-20)
(1.16512 0.171868 3.16314e-20)
(0.0693114 -0.00118831 -1.17471e-20)
(0.240496 0.00970328 -5.6451e-20)
(0.435021 0.0452762 6.43227e-20)
(0.633195 0.0940577 3.77837e-20)
(0.815227 0.146087 -1.79938e-20)
(0.966263 0.19362 3.04362e-20)
(1.07943 0.231519 -1.47329e-20)
(1.15558 0.257774 2.46565e-20)
(1.20075 0.272996 0)
(1.22307 0.279301 5.63425e-20)
(1.23037 0.27924 -2.21965e-21)
(1.22889 0.275096 -4.5682e-20)
(1.22296 0.268588 1.96629e-20)
(1.21519 0.260844 -2.23398e-20)
(1.207 0.252535 -8.61948e-21)
(1.19907 0.244021 9.85841e-21)
(1.19166 0.235487 -7.68238e-21)
(1.18484 0.227027 -4.21644e-20)
(1.1786 0.218692 2.58572e-20)
(1.17287 0.210514 5.34957e-21)
(1.16757 0.202503 4.75407e-21)
(1.1626 0.194639 4.22995e-21)
(1.15786 0.186976 0)
(1.15318 0.179789 0)
(0.0904744 0.00336069 1.17552e-20)
(0.295023 0.0264011 -1.17381e-20)
(0.511805 0.0752688 -2.14564e-20)
(0.718956 0.13457 0)
(0.896907 0.192048 -8.95918e-21)
(1.03414 0.239805 -8.11842e-21)
(1.12878 0.27408 -1.39129e-20)
(1.18628 0.294771 0)
(1.21568 0.304122 0)
(1.22631 0.305249 0)
(1.22585 0.301083 0)
(1.2197 0.293876 0)
(1.21121 0.28512 -1.23668e-20)
(1.20216 0.275696 5.63715e-21)
(1.19339 0.26607 9.86622e-21)
(1.18525 0.256474 4.62974e-21)
(1.17781 0.247015 1.15225e-20)
(1.17107 0.237746 0)
(1.16496 0.228698 -2.81053e-21)
(1.1594 0.219888 -2.71943e-21)
(1.1543 0.211307 -4.76168e-21)
(1.14953 0.202939 -4.23673e-21)
(1.14497 0.194914 0)
(1.14045 0.187349 3.11377e-21)
(-0.00160972 0.000152688 7.07673e-21)
(-0.00788835 0.000564573 -7.36186e-21)
(-0.0192525 0.00102571 -1.39619e-20)
(-0.0332532 0.00155299 0)
(-0.0485729 0.00211546 -1.87435e-20)
(-0.0645716 0.00268012 5.88803e-21)
(-0.080822 0.0032322 -1.11512e-20)
(-0.0970408 0.00377474 0)
(-0.113062 0.00432323 0)
(-0.128796 0.00489918 0)
(-0.144199 0.00552429 0)
(-0.159253 0.00621651 0)
(-0.173949 0.00698822 3.0744e-23)
(-0.188285 0.00784619 -7.50052e-21)
(-0.202254 0.00879246 1.42307e-20)
(-0.215849 0.00982594 2.02234e-20)
(-0.229062 0.0109435 6.38747e-21)
(-0.24189 0.0121379 0)
(-0.254333 0.0134016 5.728e-21)
(-0.266407 0.0147265 -1.61661e-20)
(-0.27812 0.0161017 -1.02084e-20)
(-0.28949 0.017516 -9.65893e-21)
(-0.300691 0.0189771 0)
(-0.312136 0.0204941 0)
(-0.00197984 0.0048924 -2.12897e-20)
(-0.00853652 0.0116567 3.67758e-20)
(-0.0197028 0.0163246 -1.38788e-20)
(-0.033227 0.0196097 -2.64518e-20)
(-0.047884 0.0219259 3.73859e-20)
(-0.063071 0.0235489 -2.36296e-20)
(-0.0783792 0.0246908 3.3374e-20)
(-0.0935325 0.0255178 2.10724e-20)
(-0.108363 0.0261589 0)
(-0.122773 0.026711 -1.88849e-20)
(-0.136708 0.0272425 -2.05996e-22)
(-0.150133 0.0277974 1.6684e-20)
(-0.163026 0.0284001 2.383e-20)
(-0.175365 0.0290605 3.01367e-20)
(-0.187126 0.0297798 -1.40118e-20)
(-0.198281 0.0305543 -4.02162e-20)
(-0.208798 0.0313802 1.27936e-20)
(-0.218645 0.032259 -4.79999e-20)
(-0.227795 0.0332009 0)
(-0.236238 0.0342254 1.07736e-20)
(-0.243954 0.0353588 1.01938e-20)
(-0.250876 0.0366384 9.64492e-21)
(-0.257079 0.038163 0)
(-0.263359 0.0400608 0)
(-0.00277177 0.00906595 0)
(-0.00993674 0.0215559 7.40178e-20)
(-0.0207047 0.030117 -2.79226e-20)
(-0.0332327 0.0360067 2.64875e-20)
(-0.0464921 0.0400048 -7.50133e-20)
(-0.0599624 0.0426527 0)
(-0.0732786 0.0443624 -4.47189e-20)
(-0.0861839 0.0454476 2.10098e-20)
(-0.0985112 0.046142 -3.9877e-20)
(-0.110152 0.0466137 1.88719e-20)
(-0.121034 0.0469773 1.06866e-19)
(-0.1311 0.0473036 -5.01977e-20)
(-0.140304 0.0476301 -7.95701e-20)
(-0.148599 0.0479705 -3.04256e-20)
(-0.155936 0.0483237 -3.89277e-22)
(-0.162259 0.0486815 1.07362e-19)
(-0.167506 0.0490362 -5.05847e-20)
(-0.17161 0.0493886 8.06932e-24)
(-0.174502 0.0497561 0)
(-0.176132 0.0501824 -4.29567e-20)
(-0.176445 0.0507446 0)
(-0.175248 0.0515651 -3.87904e-20)
(-0.172287 0.0528574 1.45618e-19)
(-0.1688 0.0549099 9.10401e-22)
(-0.00385806 0.0123551 0)
(-0.0119006 0.0295625 2.36438e-22)
(-0.0221681 0.0414834 2.82584e-20)
(-0.0333437 0.0496958 -2.67481e-20)
(-0.04466 0.0552278 2.49112e-20)
(-0.0557125 0.0588197 1.42427e-19)
(-0.0662041 0.0610422 -4.47003e-20)
(-0.0759138 0.0623313 -4.23533e-20)
(-0.0846861 0.0630114 7.98204e-20)
(-0.0924093 0.0633161 -1.13185e-19)
(-0.0989965 0.0634048 3.54524e-20)
(-0.104375 0.0633771 3.36428e-20)
(-0.108477 0.063287 0)
(-0.111237 0.0631553 3.00032e-20)
(-0.112588 0.0629802 0)
(-0.112458 0.0627474 5.361e-20)
(-0.110769 0.0624381 -1.01781e-19)
(-0.107436 0.0620386 2.3291e-20)
(-0.102365 0.0615505 9.03561e-20)
(-0.0954711 0.0610067 4.29072e-20)
(-0.0866936 0.0604984 0)
(-0.0758175 0.0602352 -1.15366e-19)
(-0.0620834 0.0606651 3.60819e-20)
(-0.0459316 0.0624685 0)
(-0.00508767 0.0146028 0)
(-0.0141978 0.0352755 -8.99383e-20)
(-0.0239765 0.0498313 -2.85738e-20)
(-0.0336414 0.0599373 -5.35988e-20)
(-0.0427029 0.0667444 5.04697e-20)
(-0.0508921 0.0711179 -4.75366e-20)
(-0.0579992 0.0737386 9.00539e-20)
(-0.063858 0.0751341 4.25995e-20)
(-0.068342 0.0757015 -1.19846e-19)
(-0.0713503 0.0757305 7.56784e-20)
(-0.0727966 0.0754222 -1.0691e-19)
(-0.072602 0.0749066 2.35687e-19)
(-0.0706912 0.0742584 -1.26731e-19)
(-0.0669902 0.073511 5.99391e-20)
(-0.0614248 0.072669 1.70267e-19)
(-0.0539197 0.0717171 -5.29011e-20)
(-0.0443975 0.0706291 -4.98265e-20)
(-0.0327761 0.0693743 -4.7602e-20)
(-0.0189644 0.067926 0)
(-0.00287072 0.0662701 -8.57172e-20)
(0.0155657 0.0644316 -8.15944e-20)
(0.0364766 0.0625836 1.14076e-19)
(0.0608026 0.061364 1.44906e-19)
(0.0899612 0.0620535 -1.36234e-19)
(-0.00632646 0.0158233 0)
(-0.0166097 0.0386254 -1.2148e-19)
(-0.0260043 0.0549474 -3.59613e-22)
(-0.0341749 0.066367 1.078e-19)
(-0.0408851 0.0740552 0)
(-0.0460045 0.0789368 0)
(-0.0494232 0.0817566 0)
(-0.0510461 0.0831019 -4.25958e-20)
(-0.0507924 0.083422 -2.12128e-22)
(-0.0485887 0.08305 7.55124e-20)
(-0.0443628 0.0822228 -1.07231e-19)
(-0.0380419 0.0810993 -1.94738e-22)
(-0.0295513 0.0797775 0)
(-0.0188148 0.0783093 -5.9908e-20)
(-0.0057547 0.0767124 5.67044e-20)
(0.00970663 0.0749811 -1.5952e-19)
(0.0276473 0.073093 2.01612e-19)
(0.0481461 0.0710148 4.82915e-20)
(0.0712833 0.0687068 1.12131e-21)
(0.0971361 0.0661232 -1.69133e-19)
(0.12576 0.0632235 -7.97534e-20)
(0.157247 0.0600051 2.65124e-19)
(0.1916 0.0569078 -1.77724e-19)
(0.235844 0.0558542 0)
(-0.00748938 0.0161754 5.96515e-20)
(-0.0189713 0.0398393 6.08663e-20)
(-0.028121 0.0569846 -5.79458e-20)
(-0.0349072 0.0690134 -1.08697e-19)
(-0.0392947 0.0770585 1.02347e-19)
(-0.0412805 0.0820591 -9.63564e-20)
(-0.0408567 0.0847891 1.3607e-19)
(-0.0380061 0.0858677 -4.25745e-20)
(-0.0327018 0.0857764 8.02879e-20)
(-0.0249047 0.0848781 0)
(-0.014561 0.0834375 7.13858e-20)
(-0.00160409 0.0816391 -1.33842e-19)
(0.0140437 0.0796044 1.26671e-19)
(0.0324681 0.0774063 -1.18973e-19)
(0.0537602 0.0750818 0)
(0.0780115 0.0726428 1.05927e-19)
(0.10531 0.0700823 2.00059e-19)
(0.135738 0.0673801 -1.88172e-19)
(0.169363 0.0645049 -8.85736e-20)
(0.20625 0.0614193 -8.49719e-20)
(0.246294 0.0580619 2.37901e-19)
(0.290205 0.0544297 7.49031e-20)
(0.33411 0.0502428 -6.98641e-20)
(0.397335 0.0481422 6.58213e-20)
(-0.00855421 0.0159053 -5.96597e-20)
(-0.0211826 0.0393453 1.85687e-19)
(-0.0301719 0.0563826 -5.85111e-20)
(-0.0356437 0.0682532 1.09486e-19)
(-0.0377051 0.0760451 -1.03089e-19)
(-0.0364588 0.0806962 2.86622e-22)
(-0.0319869 0.0829892 4.56303e-20)
(-0.0243405 0.0835569 1.71175e-19)
(-0.013537 0.0828976 -4.61908e-24)
(0.000441023 0.0813936 -7.56178e-20)
(0.0176435 0.0793302 0)
(0.0381478 0.0769141 -6.687e-20)
(0.0620511 0.0742899 1.25736e-19)
(0.089461 0.0715541 1.18657e-19)
(0.120489 0.0687679 -5.58412e-20)
(0.155235 0.0659649 -4.30175e-22)
(0.193776 0.0631584 -4.97624e-20)
(0.236147 0.0603466 9.29389e-20)
(0.28232 0.0575118 8.85546e-20)
(0.332317 0.0546621 -8.35491e-20)
(0.385296 0.0516108 7.78487e-20)
(0.444069 0.0489129 -7.32647e-20)
(0.49659 0.0448138 0)
(0.581621 0.0437593 -6.5742e-20)
(-0.00955034 0.0152713 6.06831e-20)
(-0.0231826 0.0376511 -6.21429e-20)
(-0.0319218 0.0537405 5.90635e-20)
(-0.0359443 0.0647062 0)
(-0.035439 0.0716334 0)
(-0.0305871 0.0754666 9.76964e-20)
(-0.0215328 0.0769937 -9.14505e-20)
(-0.00836618 0.0768548 8.5595e-20)
(0.00888229 0.0755581 -4.02106e-19)
(0.0302377 0.0734998 8.97231e-23)
(0.055771 0.0709834 7.07887e-20)
(0.0855844 0.0682364 0)
(0.119792 0.0654266 -1.2527e-19)
(0.158499 0.0626735 2.35486e-19)
(0.201772 0.0600581 -1.66243e-19)
(0.249617 0.0576288 -2.61155e-19)
(0.301957 0.0554103 -6.22771e-22)
(0.358607 0.0534083 1.83595e-19)
(0.419197 0.0515853 0)
(0.483619 0.0500545 0)
(0.549567 0.0482309 -7.78419e-20)
(0.622795 0.0477531 7.32567e-20)
(0.681587 0.0446225 -2.73804e-19)
(0.783627 0.0466716 2.56787e-19)
(-0.0105143 0.0144857 0)
(-0.0248761 0.0352077 0)
(-0.0329858 0.0496626 -1.7765e-19)
(-0.0350365 0.059097 5.64547e-20)
(-0.0312677 0.0646539 4.65795e-22)
(-0.0219049 0.0673103 9.86939e-20)
(-0.00711482 0.0678717 0)
(0.0130151 0.0669899 -8.60135e-20)
(0.0384749 0.0651853 8.04581e-20)
(0.0693146 0.0628693 -1.50635e-19)
(0.105616 0.0603626 1.09076e-22)
(0.147457 0.0579108 1.3268e-19)
(0.194867 0.0556958 -2.44706e-23)
(0.24779 0.0538448 1.17128e-19)
(0.306038 0.0524353 -1.65065e-19)
(0.369266 0.0515008 0)
(0.436945 0.0510333 1.9464e-19)
(0.508372 0.050995 -2.7466e-19)
(0.582558 0.0512596 8.5333e-20)
(0.658956 0.0519714 0)
(0.734199 0.0521719 7.52516e-20)
(0.814696 0.0541584 2.86327e-19)
(0.875799 0.0522896 -2.68706e-19)
(0.978506 0.0574188 -3.15318e-19)
(-0.011454 0.0136575 1.86135e-19)
(-0.0260534 0.0323029 -2.55917e-19)
(-0.0327432 0.0446391 5.46913e-22)
(-0.0317684 0.0521229 5.6884e-20)
(-0.0234099 0.0560189 -1.05932e-19)
(-0.00790827 0.0573712 -9.82803e-20)
(0.0145799 0.057023 1.83854e-19)
(0.0439889 0.0556497 -1.26497e-21)
(0.0803175 0.0537902 -1.61679e-19)
(0.12358 0.0518697 3.01646e-19)
(0.173744 0.0502166 -3.87899e-22)
(0.230664 0.0490732 -1.32586e-19)
(0.294017 0.048602 0)
(0.363259 0.0488889 0)
(0.437592 0.0499448 -5.48165e-20)
(0.515961 0.0517096 -1.02025e-19)
(0.597085 0.0540586 -1.92397e-19)
(0.679502 0.056808 1.80595e-19)
(0.761596 0.0597238 -8.53653e-20)
(0.841995 0.0626459 1.5872e-19)
(0.917996 0.0649219 -7.5528e-20)
(0.992639 0.0677492 1.39469e-19)
(1.04974 0.0669091 -3.25991e-19)
(1.13171 0.0718876 6.20122e-20)
(-0.0122901 0.012779 6.27754e-20)
(-0.0263122 0.0290305 0)
(-0.0302903 0.0389773 1.21465e-19)
(-0.0246186 0.0443623 -1.14425e-19)
(-0.00963837 0.0466134 1.06029e-19)
(0.0143987 0.0468699 0)
(0.0473325 0.0460298 0)
(0.0890599 0.0447981 -8.6338e-20)
(0.139459 0.043725 1.00687e-21)
(0.198291 0.0432281 7.6167e-20)
(0.265106 0.0436035 -7.0453e-20)
(0.339161 0.0450295 1.32619e-19)
(0.41937 0.0475677 0)
(0.504306 0.0511654 2.31551e-19)
(0.592232 0.0556629 -4.34172e-19)
(0.681191 0.060805 3.05591e-19)
(0.769105 0.0662676 1.89705e-19)
(0.853892 0.0716496 -1.78074e-19)
(0.933644 0.0766303 0)
(1.00657 0.0805859 0)
(1.07148 0.0837189 0)
(1.12775 0.084681 0)
(1.17204 0.084609 6.41708e-20)
(1.21985 0.0837665 -2.35958e-19)
(-0.325928 0.0221392 -6.22538e-21)
(-0.342831 0.0225618 6.24554e-21)
(-0.357547 0.0226546 -1.93098e-22)
(-0.370781 0.0221789 0)
(-0.381732 0.0210161 -5.86278e-21)
(-0.389966 0.0190233 1.13616e-20)
(-0.394838 0.0161038 -8.20456e-23)
(-0.395691 0.0122828 -5.27129e-21)
(-0.391867 0.007644 0)
(-0.382841 0.00222185 0)
(-0.36813 -0.00396895 -2.65395e-22)
(-0.347201 -0.0107051 -2.38701e-22)
(-0.319486 -0.0177416 -3.30008e-21)
(-0.284628 -0.024659 3.00373e-21)
(-0.242535 -0.0309882 0)
(-0.193274 -0.0363854 0)
(-0.137479 -0.0400254 1.06571e-21)
(-0.0758562 -0.0417763 -4.10833e-22)
(-0.00940496 -0.0412167 -5.80229e-22)
(0.0603138 -0.0384305 -4.90725e-24)
(0.131746 -0.033631 0)
(0.203403 -0.0272655 0)
(0.273758 -0.0199163 0)
(0.341484 -0.0122445 0)
(0.405585 -0.0048368 0)
(0.465391 0.00187235 0)
(0.520497 0.00763495 -2.30964e-22)
(0.570714 0.0123743 3.75265e-22)
(0.616123 0.0161041 0)
(0.656962 0.0188332 0)
(0.693514 0.0206851 2.0999e-22)
(0.726162 0.0218274 -2.04083e-22)
(0.755354 0.022301 -8.60147e-23)
(0.781478 0.0224468 0)
(0.804898 0.0221455 0)
(0.826006 0.0218869 -1.09985e-22)
(0.84512 0.0212689 1.0691e-22)
(0.862561 0.021099 0)
(0.87859 0.0204084 -7.30366e-23)
(0.893501 0.0205973 1.04594e-22)
(0.907453 0.0199646 -2.92891e-23)
(0.920574 0.0206952 0)
(0.932776 0.0202335 4.20055e-23)
(0.943918 0.0214806 -4.08458e-23)
(0.953819 0.0211009 0)
(0.962336 0.0226879 0)
(0.969487 0.0222684 1.16707e-23)
(0.975343 0.0243218 -3.26604e-23)
(0.980042 0.0238521 0)
(0.983859 0.026667 0)
(0.986799 0.026146 6.18487e-24)
(0.989293 0.0297373 -2.58904e-26)
(0.991134 0.0292262 7.21578e-25)
(0.992864 0.0334758 -3.56407e-24)
(0.994031 0.0329704 0)
(0.995402 0.0380047 0)
(0.996105 0.0374694 0)
(0.997361 0.0433732 0)
(0.997711 0.0430215 0)
(0.999021 0.0498316 0)
(-0.272032 0.0421989 -6.0241e-22)
(-0.287035 0.0403744 -2.54167e-20)
(-0.298918 0.0379829 -3.82492e-23)
(-0.309279 0.0346782 2.38851e-20)
(-0.317415 0.0303115 3.74146e-22)
(-0.322888 0.0247573 0)
(-0.325053 0.017899 -2.17538e-20)
(-0.32327 0.00975612 4.25017e-20)
(-0.31712 0.000568258 -2.07441e-20)
(-0.306181 -0.00993876 1.82839e-20)
(-0.289936 -0.0214496 -1.75058e-20)
(-0.267836 -0.0336135 1.45541e-20)
(-0.239552 -0.0459792 -1.41839e-20)
(-0.204845 -0.0580484 -3.73305e-22)
(-0.1638 -0.0691454 -8.6274e-21)
(-0.116313 -0.0789202 8.38385e-21)
(-0.0632315 -0.0857132 -4.5192e-21)
(-0.00541839 -0.0895057 4.27608e-21)
(0.0562988 -0.0899146 -1.1257e-21)
(0.120267 -0.0869711 8.66763e-22)
(0.185104 -0.0808766 1.99984e-22)
(0.249607 -0.0722479 9.61485e-23)
(0.312581 -0.061938 2.37931e-21)
(0.373048 -0.0508321 -4.92659e-21)
(0.430316 -0.039763 2.54064e-21)
(0.483966 -0.0294058 -1.63389e-22)
(0.533782 -0.0201556 -2.57247e-21)
(0.579676 -0.0121601 3.82752e-23)
(0.621644 -0.00545257 4.34857e-21)
(0.659824 -4.4673e-05 -3.93599e-21)
(0.694449 0.00413001 1.8385e-21)
(0.725758 0.00740839 -1.9491e-22)
(0.75409 0.00983333 8.61895e-23)
(0.779699 0.0116471 -1.5126e-22)
(0.802869 0.0127528 0)
(0.823888 0.0136726 0)
(0.843048 0.0140322 3.85569e-22)
(0.860575 0.0146688 -2.86269e-22)
(0.87676 0.0146417 -2.16153e-22)
(0.891819 0.0153854 -4.2853e-24)
(0.905976 0.0152245 2.78042e-22)
(0.919297 0.0164 -5.12317e-23)
(0.931749 0.0163949 0)
(0.943134 0.0181323 0)
(0.953281 0.0182651 0)
(0.962016 0.0203575 0)
(0.969344 0.0203998 -4.9833e-23)
(0.97535 0.0228576 2.13302e-23)
(0.980151 0.0227124 0)
(0.984059 0.025792 0)
(0.987053 0.0254678 0)
(0.989613 0.0292108 9.70955e-24)
(0.99148 0.0288103 -1.50996e-24)
(0.99327 0.0331433 7.79814e-24)
(0.994449 0.0326945 0)
(0.995884 0.0377777 0)
(0.996594 0.0372714 -3.31262e-24)
(0.997922 0.0432041 -7.62772e-24)
(0.998276 0.0428659 0)
(0.999672 0.0496981 0)
(-0.169105 0.0577205 1.32502e-21)
(-0.179971 0.054211 -5.08452e-20)
(-0.187115 0.0495938 5.14872e-20)
(-0.192517 0.043801 -4.81399e-20)
(-0.195948 0.0365846 -3.76653e-22)
(-0.196997 0.0278791 0)
(-0.195087 0.0175898 -4.57772e-20)
(-0.189466 0.00576789 4.48503e-20)
(-0.180206 -0.00784222 3.209e-22)
(-0.16669 -0.023006 6.18122e-22)
(-0.148286 -0.0391913 5.70962e-22)
(-0.124759 -0.0559877 4.98538e-22)
(-0.0958878 -0.0730149 -2.70672e-20)
(-0.0615281 -0.0895943 2.66793e-20)
(-0.0221921 -0.10489 0)
(0.0226206 -0.117658 5.19164e-22)
(0.0724988 -0.127172 -9.9241e-21)
(0.12547 -0.132624 9.75883e-21)
(0.180864 -0.133687 0)
(0.237349 -0.130316 0)
(0.293647 -0.122763 2.10204e-21)
(0.348713 -0.111854 -5.79063e-21)
(0.401692 -0.0986991 8.05942e-21)
(0.451988 -0.0844481 5.06604e-22)
(0.499264 -0.0701344 -1.00543e-20)
(0.543408 -0.056595 1.04665e-20)
(0.584462 -0.0443611 -9.67115e-21)
(0.622481 -0.03364 4.99465e-22)
(0.657535 -0.0245274 4.46068e-21)
(0.689741 -0.0169236 0)
(0.719327 -0.0107624 0)
(0.746464 -0.00574874 -1.10264e-21)
(0.771292 -0.00180005 1.45035e-21)
(0.793932 0.00130013 9.97459e-25)
(0.814651 0.00362292 -1.01118e-21)
(0.833612 0.00569856 9.82688e-22)
(0.851066 0.00702573 0)
(0.867123 0.00844672 -8.88753e-23)
(0.88208 0.00904786 -6.66093e-22)
(0.896044 0.0103087 1.22045e-21)
(0.909283 0.010587 -4.99055e-22)
(0.921795 0.0121764 -5.13597e-23)
(0.933608 0.0125999 4.28861e-22)
(0.944477 0.0148036 -3.2991e-22)
(0.954251 0.015432 -6.73376e-23)
(0.962726 0.0180199 -5.81497e-23)
(0.969878 0.0185185 4.99596e-23)
(0.975786 0.0213788 0)
(0.980523 0.021557 0)
(0.984416 0.0249019 1.2166e-22)
(0.987399 0.0247738 -5.72325e-23)
(0.989984 0.0286702 4.51307e-23)
(0.991854 0.0283795 -5.66936e-23)
(0.993693 0.0327977 -6.01984e-23)
(0.994877 0.0324052 1.41022e-23)
(0.996371 0.0375387 -2.03227e-23)
(0.997086 0.037061 1.54343e-23)
(0.998485 0.0430246 -6.4859e-24)
(0.998841 0.0426994 0)
(1.00032 0.0495558 0)
(-0.0377237 0.0652047 -1.0576e-19)
(-0.0428882 0.0618236 -7.06069e-22)
(-0.0443873 0.0558213 1.00991e-19)
(-0.0440651 0.0480949 -7.85847e-22)
(-0.0420992 0.0386905 0)
(-0.0381385 0.0274025 0)
(-0.0316465 0.0142083 -9.42184e-20)
(-0.0224935 -0.000868965 6.44458e-22)
(-0.0104902 -0.0180908 1.30099e-19)
(0.00535153 -0.0367109 -2.25818e-21)
(0.0256323 -0.0564727 -3.90394e-20)
(0.0502796 -0.0771034 -3.15851e-20)
(0.0792016 -0.098013 3.17451e-20)
(0.112625 -0.118344 0)
(0.150232 -0.137139 -1.98807e-20)
(0.191626 -0.152397 1.82298e-20)
(0.236564 -0.164029 0)
(0.283669 -0.170825 0)
(0.331892 -0.172153 3.65351e-21)
(0.380022 -0.167956 -2.78416e-21)
(0.426965 -0.158703 -7.69728e-22)
(0.471906 -0.145438 3.20376e-21)
(0.514305 -0.129525 -3.24369e-21)
(0.553896 -0.112362 4.94583e-21)
(0.590631 -0.0951636 2.21463e-22)
(0.624615 -0.0788658 -4.89795e-21)
(0.65609 -0.0641353 -6.07519e-22)
(0.685268 -0.0511971 -1.1083e-23)
(0.712287 -0.0400882 0)
(0.737279 -0.030706 -3.73661e-21)
(0.760431 -0.0229214 3.84524e-21)
(0.781864 -0.0165573 -1.95525e-22)
(0.801691 -0.0114901 0)
(0.820002 -0.00735565 1.52064e-22)
(0.837015 -0.00411867 -2.02183e-21)
(0.852684 -0.00129 3.5002e-21)
(0.867222 0.000684223 3.04509e-23)
(0.880693 0.00285543 -1.50293e-22)
(0.893396 0.00404059 -1.15818e-21)
(0.905323 0.00575102 -1.35759e-22)
(0.916767 0.00639029 8.98768e-22)
(0.927659 0.00831783 -7.70093e-22)
(0.938091 0.00909574 -1.74262e-25)
(0.947795 0.011695 -2.95772e-22)
(0.95665 0.0127558 3.55114e-22)
(0.964429 0.0157877 3.95746e-22)
(0.971076 0.016702 -1.13771e-22)
(0.97665 0.0199363 -1.62516e-22)
(0.981163 0.0204172 2.96883e-22)
(0.984935 0.024015 -1.98035e-22)
(0.98784 0.0240742 4.66329e-23)
(0.990411 0.0281205 -5.83106e-23)
(0.99226 0.0279363 -4.41652e-23)
(0.994134 0.0324398 9.18504e-23)
(0.995315 0.0321024 -2.56876e-24)
(0.996865 0.0372874 2.03571e-23)
(0.997581 0.0368378 0)
(0.999051 0.0428341 6.48222e-24)
(0.999408 0.0425217 -8.61105e-24)
(1.00098 0.0494046 0)
(0.104337 0.0641912 1.0698e-19)
(0.106407 0.0618646 -2.10707e-19)
(0.109615 0.0556278 1.02481e-19)
(0.11531 0.0470433 1.03259e-19)
(0.122499 0.0365026 -2.02524e-19)
(0.131124 0.0236661 3.57584e-22)
(0.141786 0.00847289 9.69197e-20)
(0.154456 -0.00911771 9.21628e-20)
(0.169508 -0.028785 -9.02617e-20)
(0.187473 -0.0499677 0)
(0.208801 -0.0724236 -7.5784e-20)
(0.233644 -0.096058 1.42228e-19)
(0.261982 -0.119989 -6.66157e-20)
(0.293762 -0.143217 0)
(0.328615 -0.164581 0)
(0.366006 -0.182464 5.70035e-22)
(0.405388 -0.195749 -2.49063e-20)
(0.445572 -0.203308 2.41945e-20)
(0.485491 -0.204519 0)
(0.52418 -0.199349 3.64695e-21)
(0.560873 -0.188411 -1.96699e-21)
(0.595125 -0.172957 -6.20169e-21)
(0.62678 -0.154579 1.22288e-20)
(0.655903 -0.134875 1.6404e-21)
(0.682677 -0.11522 -1.81012e-20)
(0.707309 -0.0966062 9.39355e-21)
(0.730091 -0.0797595 3.00027e-22)
(0.751292 -0.0649798 4.0781e-21)
(0.771037 -0.052273 -2.06629e-22)
(0.789401 -0.041507 -3.9155e-21)
(0.806519 -0.0325372 -2.1734e-22)
(0.822482 -0.0251079 2.9403e-21)
(0.837387 -0.0190737 -5.4605e-21)
(0.851253 -0.0140388 2.82763e-21)
(0.864239 -0.0101137 0)
(0.876291 -0.00677075 2.00317e-21)
(0.887678 -0.00429948 -1.9232e-21)
(0.898275 -0.00177584 1.17367e-21)
(0.908302 -0.000198101 -1.46764e-21)
(0.917772 0.00192847 1.3502e-22)
(0.926989 0.0028587 0)
(0.935836 0.00503428 1.03292e-22)
(0.944457 0.00606918 -2.70569e-22)
(0.952591 0.00896562 0)
(0.96016 0.0103649 -6.5014e-22)
(0.966936 0.013759 2.64794e-22)
(0.972832 0.0150216 -1.01122e-22)
(0.977889 0.0185791 -8.68297e-23)
(0.982047 0.0193255 0)
(0.985608 0.0231519 0)
(0.988376 0.0233818 1.54597e-22)
(0.990896 0.0275694 -2.28282e-22)
(0.9927 0.0274852 1.20579e-22)
(0.994596 0.0320722 -3.66694e-23)
(0.995764 0.031788 -5.64742e-23)
(0.997366 0.0370249 -2.03765e-23)
(0.998081 0.0366028 3.09718e-23)
(0.999621 0.0426331 0)
(0.999977 0.0423334 1.39602e-23)
(1.00163 0.0492446 3.24045e-24)
(0.25227 0.0577711 1.08133e-19)
(0.25943 0.0555447 -1.07421e-19)
(0.266063 0.04949 8.26277e-22)
(0.275542 0.0409635 -8.07874e-22)
(0.286779 0.0302394 8.02495e-22)
(0.29919 0.0169509 -7.86483e-22)
(0.313148 0.00093442 1.52617e-21)
(0.328712 -0.0177717 0)
(0.34619 -0.0388234 -1.42071e-21)
(0.365886 -0.0618637 1.34912e-21)
(0.388091 -0.086522 1.26363e-21)
(0.412907 -0.112348 -1.14715e-21)
(0.440254 -0.138527 0)
(0.469921 -0.163933 0)
(0.501426 -0.187222 7.91998e-22)
(0.534056 -0.206726 0)
(0.566982 -0.221033 -5.1342e-22)
(0.599107 -0.22894 0)
(0.629492 -0.229812 -1.14791e-20)
(0.657528 -0.223691 1.71051e-20)
(0.682935 -0.21133 -6.03191e-21)
(0.705785 -0.194153 6.16059e-22)
(0.726414 -0.173917 -5.83414e-21)
(0.745247 -0.152331 5.66552e-21)
(0.762682 -0.130859 8.72028e-21)
(0.778966 -0.110528 -8.49026e-21)
(0.79431 -0.0920345 0)
(0.80892 -0.0757917 -2.53098e-22)
(0.822833 -0.0618105 0)
(0.835985 -0.0499359 0)
(0.84839 -0.0399989 -6.05349e-21)
(0.860054 -0.0317162 6.27528e-21)
(0.871022 -0.0249449 -3.3112e-22)
(0.881265 -0.0192861 -3.01588e-22)
(0.890916 -0.0148021 2.60392e-22)
(0.899909 -0.0109141 1.76485e-21)
(0.908432 -0.00799041 -1.71361e-21)
(0.916398 -0.00522545 1.53213e-21)
(0.92405 -0.00343835 -1.31411e-21)
(0.931219 -0.00111954 -2.71541e-22)
(0.938231 5.03728e-05 9.04151e-22)
(0.94501 0.0024028 1.48277e-23)
(0.951739 0.0036003 -5.8531e-22)
(0.958188 0.00669332 0)
(0.96433 0.00832916 2.73329e-22)
(0.969964 0.0119923 -3.27978e-22)
(0.974979 0.013523 4.33336e-22)