/*--------------------------------*- C++ -*----------------------------------*\
| =========                 |                                                 |
| \\      /  F ield         | OpenFOAM: The Open Source CFD Toolbox           |
|  \\    /   O peration     | Version:  2512                                  |
|   \\  /    A nd           | Website:  www.openfoam.com                      |
|    \\/     M anipulation  |                                                 |
\*---------------------------------------------------------------------------*/
FoamFile
{
    version     2.0;
    format      ascii;
    arch        "LSB;label=32;scalar=64";
    class       volVectorField;
    location    "171";
    object      U;
}
// * * * * * * * * * * * * * * * * * * * * * * * * * * * * * * * * * * * * * //

dimensions      [0 1 -1 0 0 0 0];

internalField   nonuniform List<vector> 
13248
(
(-0.0121037 0.0103 6.46134e-20)
(-0.0228616 0.0199171 0)
(-0.0216232 0.0228507 -1.22415e-19)
(-0.00832073 0.0221276 1.15319e-19)
(0.0172529 0.019737 1.07715e-19)
(0.0552724 0.0170157 0)
(0.105793 0.0148926 0)
(0.16859 0.014013 2.53257e-19)
(0.242993 0.0148012 -3.16041e-21)
(0.32776 0.0174888 -2.17734e-19)
(0.421027 0.0221176 1.97326e-19)
(0.520348 0.0285368 -1.22857e-19)
(0.622828 0.0364106 0)
(0.725316 0.0452412 -2.03222e-19)
(0.824644 0.0544116 3.77886e-19)
(0.917856 0.0632412 -8.87745e-20)
(1.00242 0.0710539 -1.59022e-19)
(1.0764 0.0772195 1.49282e-19)
(1.13852 0.0812963 0)
(1.18831 0.0827127 0)
(1.22594 0.0819975 0)
(1.25235 0.0768155 0)
(1.2686 0.0732659 4.79668e-20)
(1.27754 0.055766 1.79725e-19)
(-0.012747 0.0100156 -1.95315e-19)
(-0.0200307 0.0181997 1.33477e-19)
(-0.010727 0.0200323 -1.18938e-21)
(0.0144081 0.0185738 -1.76392e-19)
(0.055048 0.0159673 -1.07595e-19)
(0.110868 0.0137271 -1.01529e-19)
(0.181244 0.0128916 -1.84406e-19)
(0.264995 0.0141262 1.74747e-19)
(0.360186 0.0177749 0)
(0.464065 0.0238786 1.61485e-21)
(0.57316 0.032189 3.9132e-21)
(0.683533 0.0421987 1.24186e-19)
(0.791121 0.0531994 0)
(0.892113 0.0643634 0)
(0.983288 0.0748401 1.39658e-19)
(1.06226 0.083851 -2.62175e-19)
(1.12765 0.09077 1.56927e-19)
(1.17907 0.0951759 -1.47327e-19)
(1.21712 0.0968772 -6.56995e-20)
(1.24317 0.0958845 -1.20507e-19)
(1.25908 0.0924522 -5.1676e-20)
(1.26726 0.0866363 -9.75794e-20)
(1.26912 0.080166 1.40763e-19)
(1.26888 0.0694669 4.11528e-20)
(-0.0120654 0.008793 0)
(-0.0131455 0.0145766 0)
(0.00718958 0.0152359 6.23968e-20)
(0.0473106 0.0136314 5.73265e-20)
(0.106153 0.0119041 -1.69761e-21)
(0.182514 0.0116214 -1.05315e-19)
(0.274547 0.013785 0)
(0.379468 0.018893 -8.65097e-20)
(0.493464 0.0269821 8.09707e-20)
(0.611868 0.0376642 1.05446e-21)
(0.729564 0.0501969 -1.35181e-19)
(0.841533 0.0635968 -1.2216e-19)
(0.943397 0.0767832 3.14602e-21)
(1.03186 0.0887294 -9.88288e-20)
(1.10495 0.0985918 2.38347e-19)
(1.16211 0.105798 0)
(1.20406 0.110086 -1.53938e-19)
(1.23255 0.111476 7.43628e-20)
(1.24996 0.110252 6.56448e-20)
(1.25894 0.10675 0)
(1.26203 0.101694 5.46056e-20)
(1.26133 0.0948539 -1.9062e-19)
(1.25818 0.0887237 1.78944e-19)
(1.25519 0.078447 1.15376e-19)
(-0.0097424 0.00679245 -6.95922e-20)
(-0.001341 0.00946178 -7.20335e-20)
(0.0333273 0.00912992 6.49345e-20)
(0.0916295 0.00824259 0)
(0.171412 0.00876138 0)
(0.270026 0.0121149 -2.44746e-21)
(0.383705 0.019019 0)
(0.507414 0.0295065 -2.65338e-19)
(0.635097 0.0430058 2.45318e-19)
(0.760294 0.0584701 -3.00794e-19)
(0.876937 0.0745723 6.79166e-20)
(0.980098 0.0899374 0)
(1.06652 0.103362 1.11393e-19)
(1.13484 0.113977 -2.05698e-19)
(1.18545 0.121323 4.86608e-20)
(1.22019 0.125349 1.24147e-19)
(1.24183 0.12633 -5.62327e-21)
(1.25348 0.124754 -1.39023e-19)
(1.25817 0.121183 0)
(1.2584 0.11617 0)
(1.25604 0.110208 -5.00111e-20)
(1.25228 0.103442 4.50713e-20)
(1.24771 0.0971601 1.6338e-19)
(1.24344 0.0880158 -1.5337e-19)
(-0.00546616 0.00426174 -7.37499e-20)
(0.0161891 0.00356029 -7.32791e-20)
(0.0687162 0.00285381 2.05992e-19)
(0.148197 0.00394319 -1.24547e-19)
(0.250839 0.00836896 1.17233e-19)
(0.371809 0.0171215 2.11816e-19)
(0.50472 0.0302645 -1.49608e-19)
(0.641923 0.046999 -1.80571e-19)
(0.775374 0.0658868 4.62908e-21)
(0.897757 0.0851647 2.28646e-19)
(1.0035 0.103096 0)
(1.08937 0.118279 6.22478e-20)
(1.15463 0.129831 0)
(1.20066 0.137445 -9.98276e-20)
(1.23031 0.141309 1.40005e-19)
(1.24719 0.141952 9.49551e-22)
(1.25494 0.140062 -3.66866e-20)
(1.25672 0.136328 6.81135e-20)
(1.25496 0.13134 5.92063e-20)
(1.25127 0.12553 -5.31782e-20)
(1.24665 0.119237 5.00006e-20)
(1.24159 0.112513 -4.50613e-20)
(1.23628 0.106173 0)
(1.23141 0.0977465 -3.45005e-20)
(0.00108325 0.00150638 7.37393e-20)
(0.0401427 -0.0022106 7.75662e-20)
(0.114034 -0.0021188 -6.90589e-20)
(0.217088 0.0026288 1.28481e-19)
(0.343135 0.0127912 -1.20929e-19)
(0.484397 0.0284899 1.08765e-19)
(0.631466 0.0486998 -5.23941e-20)
(0.77441 0.0714932 1.35743e-19)
(0.904324 0.0945357 -8.54747e-20)
(1.01471 0.115614 1.49759e-19)
(1.10221 0.133054 -3.44805e-19)
(1.16661 0.145944 1.26658e-19)
(1.21017 0.154129 -1.09327e-19)
(1.2367 0.15805 1.02691e-19)
(1.25051 0.158491 8.7955e-20)
(1.25565 0.156335 7.67904e-20)
(1.25543 0.152387 -2.14176e-19)
(1.25219 0.147277 1.32693e-19)
(1.24746 0.141446 -5.92097e-20)
(1.2421 0.135179 1.54928e-19)
(1.23655 0.128651 -5.00517e-20)
(1.23099 0.121939 -1.22336e-19)
(1.22549 0.115451 1.13023e-19)
(1.22027 0.107551 3.44904e-20)
(0.0102131 -0.00111883 0)
(0.0709975 -0.00679283 7.32586e-22)
(0.169367 -0.00416371 1.45056e-19)
(0.297276 0.00622205 -1.35972e-19)
(0.445386 0.0238339 -1.22088e-19)
(0.602484 0.0474096 2.26587e-19)
(0.756444 0.0744795 -1.05075e-19)
(0.896287 0.101964 1.38993e-19)
(1.0141 0.126977 -3.40237e-21)
(1.10601 0.147428 -7.84113e-20)
(1.17209 0.162288 1.6917e-19)
(1.21537 0.171529 -2.49576e-19)
(1.24052 0.17584 0)
(1.25255 0.176271 -4.85537e-20)
(1.25596 0.173916 -1.28789e-19)
(1.25424 0.169715 4.0645e-20)
(1.2498 0.164367 1.62871e-21)
(1.24413 0.158342 -8.81156e-20)
(1.23804 0.151929 5.62364e-21)
(1.23193 0.145296 1.01915e-19)
(1.22596 0.138546 -4.54818e-20)
(1.22016 0.131747 -1.73437e-20)
(1.21448 0.125045 5.32424e-20)
(1.20902 0.117536 0)
(0.0221619 -0.00320367 0)
(0.108862 -0.00904192 3.942e-20)
(0.233996 -0.00167518 -1.90088e-19)
(0.386465 0.0163726 6.89085e-20)
(0.553178 0.0426649 -6.48534e-20)
(0.719647 0.0741014 -5.9169e-20)
(0.872253 0.106703 -1.03885e-19)
(1.00093 0.136628 5.22123e-20)
(1.10067 0.161102 4.49374e-20)
(1.17143 0.178808 0)
(1.21679 0.189762 1.00966e-19)
(1.24227 0.194891 -1.49905e-19)
(1.25366 0.195535 1.11268e-19)
(1.25603 0.193044 4.85794e-20)
(1.2532 0.188538 -3.96303e-20)
(1.24773 0.18283 -3.27863e-20)
(1.24118 0.176445 -3.05162e-20)
(1.23435 0.169699 9.18727e-20)
(1.22766 0.162771 0)
(1.22122 0.155759 4.59227e-20)
(1.21508 0.148727 3.85734e-20)
(1.20918 0.141723 -9.58991e-20)
(1.20344 0.134758 -6.57367e-20)
(1.19786 0.12749 6.06236e-20)
(0.0370286 -0.00428402 -4.30273e-20)
(0.153339 -0.00779105 -1.80595e-21)
(0.306294 0.00677614 3.87659e-20)
(0.481202 0.0342288 1.08348e-19)
(0.661186 0.0696301 3.1354e-20)
(0.829536 0.107859 -6.07202e-20)
(0.973132 0.143803 5.52657e-20)
(1.08488 0.173598 -4.81153e-20)
(1.16394 0.195325 8.60278e-20)
(1.21418 0.208883 3.6247e-20)
(1.24191 0.215402 -1.03224e-19)
(1.25385 0.216555 3.0147e-20)
(1.25584 0.214017 5.11411e-20)
(1.25221 0.209162 -2.52206e-20)
(1.24584 0.202969 0)
(1.23842 0.196062 3.70553e-20)
(1.23083 0.188803 6.23423e-20)
(1.22347 0.181392 1.04096e-20)
(1.2165 0.173934 -5.17908e-20)
(1.20993 0.166491 2.15121e-20)
(1.20371 0.159104 0)
(1.19778 0.151795 -1.68112e-20)
(1.19204 0.144531 -1.60288e-20)
(1.18641 0.137357 0)
(0.0547059 -0.00386318 0)
(0.203435 -0.00194169 2.25931e-20)
(0.383755 0.0222931 4.17523e-20)
(0.577241 0.0603021 -1.10807e-19)
(0.763998 0.104279 3.59217e-20)
(0.926984 0.147348 0)
(1.05577 0.184051 5.33388e-20)
(1.14772 0.211365 -7.44479e-20)
(1.20639 0.228767 -4.30361e-20)
(1.23881 0.237493 1.93159e-20)
(1.25279 0.239588 -3.0685e-20)
(1.25519 0.237152 7.46123e-20)
(1.25113 0.231916 3.69134e-20)
(1.24397 0.225105 -2.5875e-20)
(1.23569 0.217492 -2.62792e-21)
(1.22729 0.209519 -6.93476e-20)
(1.21922 0.201421 3.14911e-20)
(1.21165 0.193318 -8.4731e-22)
(1.20459 0.185274 0)
(1.198 0.17733 -2.15348e-20)
(1.19181 0.169509 0)
(1.18593 0.161807 4.82616e-20)
(1.18025 0.154219 -5.72401e-20)
(1.17466 0.146983 2.6044e-20)
(0.0748349 -0.00144959 -1.18888e-20)
(0.257551 0.00943258 -5.70435e-20)
(0.463186 0.0455313 6.49877e-20)
(0.670065 0.0944353 3.80083e-20)
(0.856898 0.145538 -1.81415e-20)
(1.00859 0.19097 3.03166e-20)
(1.11919 0.225925 -1.4733e-20)
(1.19103 0.248934 2.43153e-20)
(1.23149 0.261099 0)
(1.24958 0.264837 5.4447e-20)
(1.25352 0.262792 -2.44335e-21)
(1.24955 0.257193 -4.35787e-20)
(1.2418 0.249633 1.84939e-20)
(1.23268 0.241114 -2.06694e-20)
(1.22343 0.232202 -7.69266e-21)
(1.21459 0.22319 9.07894e-21)
(1.20635 0.214224 -6.87925e-21)
(1.19874 0.205375 -3.72061e-20)
(1.19173 0.196684 2.27548e-20)
(1.18523 0.188175 4.59307e-21)
(1.17915 0.179854 4.02023e-21)
(1.17339 0.171702 3.52088e-21)
(1.16784 0.16378 0)
(1.16233 0.156317 0)
(0.096863 0.00340771 1.1897e-20)
(0.31369 0.0270004 -1.18702e-20)
(0.541158 0.0766239 -2.16694e-20)
(0.755565 0.135862 0)
(0.936437 0.191955 -9.01817e-21)
(1.07275 0.237159 -8.12346e-21)
(1.164 0.268262 -1.38009e-20)
(1.21718 0.285759 0)
(1.24243 0.292314 0)
(1.24964 0.291221 0)
(1.24662 0.2854 0)
(1.23862 0.276988 0)
(1.22877 0.267344 -1.1581e-20)
(1.21866 0.257232 5.26118e-21)
(1.20901 0.247043 9.05957e-21)
(1.20007 0.23696 4.22926e-21)
(1.19187 0.227069 1.03342e-20)
(1.18439 0.217409 0)
(1.17755 0.208004 -2.42337e-21)
(1.17126 0.198867 -2.3252e-21)
(1.16541 0.189985 -4.02666e-21)
(1.15988 0.181347 -3.52652e-21)
(1.15456 0.173079 0)
(1.14928 0.165238 2.46747e-21)
(-0.000987282 -0.0263613 8.77023e-21)
(-0.0071276 -0.0525581 -9.11182e-21)
(-0.0193103 -0.0610471 -1.72521e-20)
(-0.034504 -0.0578191 0)
(-0.0510738 -0.047433 -2.31876e-20)
(-0.0682397 -0.0330437 7.36519e-21)
(-0.0854878 -0.0165417 -1.36332e-20)
(-0.102451 0.00118896 0)
(-0.118868 0.0199505 0)
(-0.13453 0.0399169 0)
(-0.14924 0.0613978 0)
(-0.162812 0.0846769 0)
(-0.175057 0.109925 2.75121e-22)
(-0.185771 0.137164 -9.0441e-21)
(-0.194731 0.166256 1.63577e-20)
(-0.201693 0.196901 2.31522e-20)
(-0.206396 0.228633 6.83883e-21)
(-0.208566 0.260816 0)
(-0.207933 0.292648 6.37769e-21)
(-0.204257 0.323186 -1.75162e-20)
(-0.197323 0.351388 -1.07628e-20)
(-0.186915 0.376166 -1.00693e-20)
(-0.172927 0.396468 0)
(-0.15587 0.411517 0)
(0.000214734 -0.0208125 -2.60766e-20)
(-0.00470071 -0.0399859 4.51835e-20)
(-0.0161767 -0.0441806 -1.66012e-20)
(-0.030882 -0.0383997 -3.20115e-20)
(-0.0469791 -0.0265817 4.54935e-20)
(-0.0635595 -0.0115003 -2.83829e-20)
(-0.0800438 0.00517415 4.03258e-20)
(-0.0960373 0.0226631 2.46111e-20)
(-0.111259 0.0408059 0)
(-0.125473 0.059793 -2.25158e-20)
(-0.138455 0.0799311 1.46791e-22)
(-0.149974 0.101491 1.99507e-20)
(-0.159786 0.124623 2.69563e-20)
(-0.167628 0.149323 3.37156e-20)
(-0.173216 0.175425 -1.65589e-20)
(-0.176248 0.2026 -4.47751e-20)
(-0.176404 0.230363 1.30846e-20)
(-0.173357 0.258077 -5.03484e-20)
(-0.166793 0.284968 0)
(-0.15643 0.31015 1.15111e-20)
(-0.142036 0.33268 1.07454e-20)
(-0.123385 0.351649 1.00526e-20)
(-0.100197 0.366307 0)
(-0.0729227 0.376436 0)
(0.00087169 -0.015568 0)
(-0.00323382 -0.0282773 8.68178e-20)
(-0.0138136 -0.0286958 -3.2834e-20)
(-0.0274906 -0.0208438 3.14042e-20)
(-0.0423399 -0.00801847 -8.71533e-20)
(-0.0573656 0.00739635 0)
(-0.0719403 0.0239388 -5.1363e-20)
(-0.0856494 0.0409131 2.37237e-20)
(-0.0982009 0.05817 -4.42943e-20)
(-0.109349 0.0758777 1.97579e-20)
(-0.118853 0.0943183 1.16995e-19)
(-0.126455 0.113744 -5.48724e-20)
(-0.131877 0.134292 -8.56824e-20)
(-0.134821 0.155948 -3.038e-20)
(-0.134975 0.178538 5.77713e-22)
(-0.132012 0.201733 1.10124e-19)
(-0.125603 0.225054 -5.14556e-20)
(-0.115417 0.247881 1.51227e-21)
(-0.101164 0.269513 0)
(-0.0825954 0.289119 -4.0639e-20)
(-0.0595219 0.305854 0)
(-0.0317815 0.318936 -3.8539e-20)
(0.00109365 0.32784 1.41862e-19)
(0.0389667 0.332804 1.9329e-21)
(0.00104804 -0.0109456 0)
(-0.00269451 -0.0180842 -7.96809e-22)
(-0.0123929 -0.015425 3.16662e-20)
(-0.0247762 -0.00610079 -2.96868e-20)
(-0.0379091 0.00720928 2.8907e-20)
(-0.050741 0.0225069 1.58794e-19)
(-0.062612 0.0385332 -4.9909e-20)
(-0.0730975 0.0546625 -4.58316e-20)
(-0.0819085 0.0707365 8.69743e-20)
(-0.0888083 0.0868805 -1.21835e-19)
(-0.0935628 0.103334 3.71849e-20)
(-0.0959184 0.12032 3.42598e-20)
(-0.0955972 0.137965 0)
(-0.0923016 0.156259 3.09589e-20)
(-0.0857246 0.175045 0)
(-0.0755596 0.19402 5.05595e-20)
(-0.0615263 0.212744 -9.60585e-20)
(-0.0433036 0.230677 2.36699e-20)
(-0.0206647 0.247167 8.41537e-20)
(0.00652327 0.261486 4.05896e-20)
(0.0383785 0.272891 0)
(0.0748826 0.280667 -1.08024e-19)
(0.116376 0.284365 3.3946e-20)
(0.164843 0.284176 0)
(0.000820008 -0.00705653 0)
(-0.00302542 -0.00966233 -9.98688e-20)
(-0.0120543 -0.00474355 -3.1128e-20)
(-0.0231534 0.00533861 -5.88086e-20)
(-0.0344187 0.0184873 5.53755e-20)
(-0.0447732 0.0330856 -5.2458e-20)
(-0.0535401 0.0480824 9.63393e-20)
(-0.0602957 0.0629267 4.49602e-20)
(-0.064767 0.0774492 -1.27091e-19)
(-0.0667452 0.0917244 7.75088e-20)
(-0.0660306 0.105936 -1.09134e-19)
(-0.0624078 0.12027 2.3217e-19)
(-0.0556388 0.134837 -1.25021e-19)
(-0.0454635 0.149638 5.62046e-20)
(-0.0316208 0.164542 1.57495e-19)
(-0.0138608 0.179294 -5.17197e-20)
(0.0080511 0.193525 -4.55096e-20)
(0.0343175 0.206782 -4.38677e-20)
(0.0650915 0.218487 0)
(0.100448 0.228051 -7.54038e-20)
(0.140401 0.234845 -7.26902e-20)
(0.184945 0.238217 1.0136e-19)
(0.233195 0.23779 1.33836e-19)
(0.292123 0.232795 -1.24432e-19)
(0.000232469 -0.00382759 0)
(-0.00419624 -0.00290378 -1.29808e-19)
(-0.0129063 0.00341615 6.77355e-22)
(-0.0229284 0.0134651 1.15623e-19)
(-0.032413 0.0257037 0)
(-0.0402865 0.0388978 0)
(-0.0458756 0.0522188 0)
(-0.0487702 0.0652096 -4.3856e-20)
(-0.0487239 0.0777056 1.10358e-21)
(-0.0455692 0.0897394 7.61065e-20)
(-0.0391589 0.101441 -1.05303e-19)
(-0.0293386 0.112951 9.23194e-22)
(-0.0159369 0.124363 0)
(0.00123371 0.135684 -5.61767e-20)
(0.0223641 0.146815 4.89106e-20)
(0.0476343 0.157558 -1.40774e-19)
(0.0772041 0.167622 1.74247e-19)
(0.1112 0.176627 3.91649e-20)
(0.149708 0.184127 1.63763e-22)
(0.192772 0.189633 -1.43129e-19)
(0.24025 0.192635 -6.69056e-20)
(0.292895 0.192541 2.29347e-19)
(0.346706 0.189283 -1.53738e-19)
(0.417612 0.180061 0)
(-0.000719884 -0.00106608 6.17956e-20)
(-0.00621058 0.00255288 6.46639e-20)
(-0.0149775 0.00946988 -6.02167e-20)
(-0.0241716 0.0187028 -1.13398e-19)
(-0.0320222 0.0292663 1.06774e-19)
(-0.0374959 0.0403157 -9.88751e-20)
(-0.0399471 0.0512642 1.38921e-19)
(-0.0389915 0.0617752 -4.35527e-20)
(-0.0344132 0.0717174 8.01654e-20)
(-0.0260841 0.081104 0)
(-0.0139077 0.0900261 6.55336e-20)
(0.00221321 0.0985904 -1.24432e-19)
(0.0223896 0.106873 1.14028e-19)
(0.0467473 0.114886 -1.07092e-19)
(0.0754209 0.122567 0)
(0.108544 0.12977 9.0579e-20)
(0.146238 0.136273 1.65519e-19)
(0.188603 0.141785 -1.56744e-19)
(0.235706 0.14595 -7.21774e-20)
(0.287692 0.148391 -7.08726e-20)
(0.34392 0.148633 1.97359e-19)
(0.407198 0.14624 6.35789e-20)
(0.46722 0.141472 -5.79193e-20)
(0.555155 0.129606 5.76314e-20)
(-0.00207669 0.00144599 -6.18041e-20)
(-0.0090556 0.00715105 1.90574e-19)
(-0.0181188 0.0140047 -5.96221e-20)
(-0.0265561 0.0217617 1.12069e-19)
(-0.0327153 0.0300043 -1.05523e-19)
(-0.0356421 0.0382862 1.38237e-22)
(-0.0347387 0.046281 4.57623e-20)
(-0.0296472 0.0538007 1.66136e-19)
(-0.020168 0.0607796 -2.81889e-21)
(-0.00618504 0.0672446 -7.38987e-20)
(0.0123863 0.0732762 0)
(0.0356291 0.0789676 -5.88312e-20)
(0.0636406 0.0843892 1.1322e-19)
(0.0965333 0.089566 1.02044e-19)
(0.13443 0.0944636 -4.88226e-20)
(0.17745 0.0989807 -1.06945e-21)
(0.225698 0.102949 -4.12767e-20)
(0.279242 0.106143 7.52275e-20)
(0.338044 0.108259 7.21693e-20)
(0.402362 0.109056 -6.81462e-20)
(0.470373 0.107898 6.35518e-20)
(0.547934 0.104921 -6.072e-20)
(0.615276 0.0997473 0)
(0.723448 0.0884578 -5.76022e-20)
(-0.0038612 0.00385079 6.12183e-20)
(-0.0126025 0.0112265 -6.34455e-20)
(-0.0218789 0.0175611 5.95581e-20)
(-0.0292097 0.0234154 0)
(-0.033115 0.028954 0)
(-0.0327477 0.0341356 9.58774e-20)
(-0.0275592 0.0389084 -9.07965e-20)
(-0.0171971 0.0432568 8.13799e-20)
(-0.00143778 0.0472124 -3.84496e-19)
(0.0198733 0.0508514 1.2266e-21)
(0.0468625 0.0542753 6.48808e-20)
(0.0796445 0.0575853 0)
(0.118326 0.0608605 -1.08794e-19)
(0.162999 0.0641383 2.02311e-19)
(0.213715 0.0673993 -1.41035e-19)
(0.27046 0.0705595 -2.14693e-19)
(0.333128 0.0734701 1.31566e-21)
(0.401499 0.0759271 1.48888e-19)
(0.47507 0.0776163 0)
(0.553847 0.0784446 0)
(0.634523 0.0774389 -6.35505e-20)
(0.724645 0.0756999 6.0718e-20)
(0.797773 0.0708674 -2.34226e-19)
(0.916514 0.0634035 2.1947e-19)
(-0.00601209 0.0061431 0)
(-0.0164976 0.0148598 0)
(-0.025418 0.0204324 -1.78394e-19)
(-0.0306728 0.024252 5.67105e-20)
(-0.0310126 0.0270597 1.08347e-21)
(-0.0257063 0.0292158 9.73574e-20)
(-0.0142379 0.0309484 0)
(0.00377056 0.0324307 -8.29976e-20)
(0.028598 0.0338156 7.67393e-20)
(0.0604517 0.0352534 -1.3895e-19)
(0.0994747 0.0368867 1.21842e-21)
(0.145738 0.0388381 1.17459e-19)
(0.199212 0.0411917 -2.34334e-21)
(0.259737 0.0439739 9.74986e-20)
(0.326982 0.0471412 -1.40431e-19)
(0.400426 0.0505742 0)
(0.479325 0.0540754 1.58719e-19)
(0.56273 0.057384 -2.23448e-19)
(0.649341 0.0601275 6.97065e-20)
(0.738258 0.0621582 0)
(0.825841 0.0624318 6.2116e-20)
(0.917173 0.0623486 2.4025e-19)
(0.989869 0.0581031 -2.25461e-19)
(1.09589 0.0546338 -2.72564e-19)
(-0.00833502 0.00815814 1.84849e-19)
(-0.0201102 0.0178265 -2.54567e-19)
(-0.0275305 0.022553 5.63315e-22)
(-0.0290463 0.0244873 5.65301e-20)
(-0.0236921 0.0248988 -1.04928e-19)
(-0.0108568 0.0245275 -9.7012e-20)
(0.00994432 0.0238732 1.78337e-19)
(0.0390955 0.0232974 -3.46229e-21)
(0.0768656 0.0230814 -1.5472e-19)
(0.123383 0.0234542 2.80478e-19)
(0.178594 0.0245956 -3.1576e-21)
(0.242213 0.0266263 -1.20296e-19)
(0.313682 0.0295909 0)
(0.392138 0.0334437 0)
(0.476412 0.0380399 -4.6342e-20)
(0.565047 0.0431326 -8.6178e-20)
(0.656337 0.0483863 -1.59065e-19)
(0.748397 0.0533751 1.49302e-19)
(0.839211 0.0576759 -6.97334e-20)
(0.926888 0.0607577 1.31241e-19)
(1.00887 0.0622011 -6.14206e-20)
(1.08584 0.0620201 1.18446e-19)
(1.14736 0.0581888 -2.74403e-19)
(1.21955 0.0551493 5.32631e-20)
(-0.0104997 0.00962827 6.21698e-20)
(-0.0225661 0.0196748 0)
(-0.0267758 0.023537 1.20641e-19)
(-0.0222745 0.0239389 -1.13652e-19)
(-0.00843359 0.0225777 1.05022e-19)
(0.0152003 0.0205254 0)
(0.0490043 0.0185217 0)
(0.0932236 0.0170963 -8.2403e-20)
(0.147879 0.0166354 3.16361e-21)
(0.212675 0.0174108 7.28075e-20)
(0.286921 0.0195853 -6.41298e-20)
(0.369486 0.0232045 1.21318e-19)
(0.45879 0.0281842 0)
(0.552853 0.0343055 2.01261e-19)
(0.649389 0.04122 -3.74757e-19)
(0.745925 0.0484681 2.60653e-19)
(0.839949 0.0555193 1.59464e-19)
(0.929042 0.0617691 -1.49685e-19)
(1.01105 0.0667542 0)
(1.08412 0.0696436 0)
(1.14698 0.0708257 0)
(1.19901 0.0682479 0)
(1.23885 0.0647619 5.41695e-20)
(1.27391 0.0569696 -2.0009e-19)
(-0.133521 0.42268 -6.45065e-21)
(-0.10217 0.423456 6.48255e-21)
(-0.0631434 0.407958 -2.05895e-22)
(-0.0171674 0.374602 0)
(0.0353639 0.322114 -6.63588e-21)
(0.0928103 0.250357 1.30932e-20)
(0.153322 0.160769 1.20457e-22)
(0.215 0.0556322 -6.39379e-21)
(0.276215 -0.061871 0)
(0.336165 -0.187067 0)
(0.394097 -0.312495 -3.40664e-22)
(0.448562 -0.427328 -2.95628e-22)
(0.496569 -0.51917 -3.74486e-21)
(0.5345 -0.579137 3.4004e-21)
(0.560014 -0.605769 0)
(0.573066 -0.604698 0)
(0.573482 -0.588017 1.59548e-21)
(0.557989 -0.572307 -7.82082e-23)
(0.525206 -0.566761 -1.34599e-21)
(0.484852 -0.558022 -8.62059e-23)
(0.457984 -0.511826 0)
(0.463313 -0.398468 0)
(0.50252 -0.219575 0)
(0.563016 -0.0083734 0)
(0.630054 0.190758 0)
(0.691659 0.342255 0)
(0.739615 0.435106 3.93297e-22)
(0.770576 0.477879 -6.30226e-22)
(0.787992 0.485745 0)
(0.794031 0.480185 0)
(0.782783 0.485251 -3.24603e-22)
(0.749896 0.505628 3.1549e-22)
(0.708445 0.501917 1.92857e-22)
(0.681791 0.423846 0)
(0.686462 0.252925 0)
(0.715956 0.0359258 4.9487e-22)
(0.758221 -0.16497 -4.81022e-22)
(0.796982 -0.302957 0)
(0.828887 -0.37325 2.63294e-22)
(0.846595 -0.403531 -3.71847e-22)
(0.83902 -0.41857 9.54306e-23)
(0.800985 -0.437731 0)
(0.75207 -0.407362 -2.01094e-22)
(0.718175 -0.318934 1.95547e-22)
(0.722933 -0.141883 0)
(0.751519 0.0358187 0)
(0.797935 0.184624 -8.0933e-23)
(0.826754 0.288531 2.18226e-22)
(0.823483 0.340633 0)
(0.788662 0.399954 0)
(0.762595 0.328717 -5.55628e-23)
(0.756134 0.247444 -7.20161e-24)
(0.792818 0.0572701 -2.55307e-24)
(0.813784 -0.0963219 4.94703e-23)
(0.821549 -0.204124 0)
(0.80501 -0.368034 0)
(0.799968 -0.284501 0)
(0.792071 -0.303072 0)
(0.801974 -0.0847265 0)
(0.785782 0.145709 0)
(-0.0404268 0.38329 -6.13404e-22)
(0.000295425 0.378514 -2.70317e-20)
(0.0479197 0.357994 -9.58274e-22)
(0.101422 0.320511 2.62651e-20)
(0.159618 0.265373 4.41055e-22)
(0.220741 0.192665 0)
(0.282942 0.10363 -2.79246e-20)
(0.344423 0.000113262 5.52421e-20)
(0.404176 -0.115151 -2.73138e-20)
(0.461607 -0.238033 2.41975e-20)
(0.515595 -0.360834 -2.31773e-20)
(0.563634 -0.471347 1.78803e-20)
(0.601801 -0.555889 -1.74504e-20)
(0.626678 -0.605651 -4.1396e-22)
(0.637065 -0.620991 -9.31111e-21)
(0.634576 -0.609323 9.04922e-21)
(0.622003 -0.581825 -6.21325e-21)
(0.598444 -0.55378 5.86649e-21)
(0.559908 -0.538228 -5.35765e-21)
(0.509509 -0.529678 1.06568e-20)
(0.4641 -0.497841 -5.29291e-21)
(0.446073 -0.407195 -3.50906e-22)
(0.465623 -0.248528 -6.8524e-21)
(0.515202 -0.0488624 1.32899e-20)
(0.579664 0.147831 -6.44362e-21)
(0.644668 0.305191 3.10349e-22)
(0.699883 0.408383 4.05846e-21)
(0.740509 0.461416 -4.99499e-22)
(0.768234 0.477654 -5.88247e-21)
(0.782472 0.480583 5.32427e-21)
(0.776686 0.495066 -2.55167e-21)
(0.748985 0.52199 3.50471e-22)
(0.715665 0.517156 -1.93261e-22)
(0.698772 0.43057 5.00266e-22)
(0.711831 0.248705 0)
(0.746035 0.0236215 0)
(0.788733 -0.18031 -1.82873e-21)
(0.822975 -0.316525 1.36524e-21)
(0.847363 -0.382113 7.83388e-22)
(0.858411 -0.404982 -8.77398e-23)
(0.846722 -0.410553 -9.31826e-22)
(0.806615 -0.422858 1.61562e-22)
(0.752892 -0.393306 0)
(0.714523 -0.313808 0)
(0.714835 -0.147497 0)
(0.744006 0.0232001 0)
(0.791338 0.172748 2.98287e-22)
(0.821129 0.284226 -1.3965e-22)
(0.819158 0.345061 0)
(0.784646 0.407833 0)
(0.762203 0.332981 0)
(0.755869 0.244178 -1.28372e-22)
(0.796832 0.0508515 -1.26499e-23)
(0.819728 -0.099954 -9.92164e-23)
(0.828543 -0.202923 0)
(0.811747 -0.36547 0)
(0.80326 -0.28361 3.7608e-23)
(0.79531 -0.302952 8.31813e-23)
(0.800492 -0.083795 0)
(0.783932 0.147158 0)
(0.078288 0.33609 2.90889e-21)
(0.124797 0.327846 -5.20828e-20)
(0.176618 0.304796 5.71729e-20)
(0.233315 0.265951 -5.34494e-20)
(0.29331 0.210944 -4.44005e-22)
(0.354788 0.139895 0)
(0.416117 0.0535249 -5.98336e-20)
(0.476 -0.0462998 5.86361e-20)
(0.533619 -0.15765 4.29724e-22)
(0.588215 -0.276769 8.25499e-22)
(0.637992 -0.395428 7.45037e-22)
(0.679049 -0.500354 6.28854e-22)
(0.706524 -0.577227 -3.09282e-20)
(0.717628 -0.617711 3.04741e-20)
(0.713004 -0.623729 0)
(0.695798 -0.60457 5.09465e-22)
(0.670588 -0.570721 -1.20357e-20)
(0.63919 -0.534137 1.18693e-20)
(0.597197 -0.508567 0)
(0.541775 -0.496472 0)
(0.483293 -0.475371 -1.01483e-20)
(0.444341 -0.40785 2.10392e-20)
(0.442881 -0.273522 -2.19092e-20)
(0.478197 -0.0900099 2.00458e-22)
(0.536809 0.101165 2.07197e-20)
(0.60281 0.262771 -1.87e-20)
(0.663567 0.375702 1.48706e-20)
(0.712948 0.439285 -1.29719e-21)
(0.75037 0.465022 -5.7036e-21)
(0.772496 0.477659 0)
(0.772634 0.501958 0)
(0.751187 0.5353 2.47058e-21)
(0.726659 0.529896 -3.09278e-21)
(0.71937 0.436449 2.76512e-23)
(0.740533 0.246051 4.7914e-21)
(0.778921 0.014247 -4.65593e-21)
(0.821463 -0.191603 0)
(0.851121 -0.326055 4.13921e-22)
(0.867805 -0.387773 2.5709e-21)
(0.871958 -0.404621 -4.3949e-21)
(0.856303 -0.401733 1.67354e-21)
(0.814875 -0.407508 1.40486e-22)
(0.757225 -0.378896 -1.56685e-21)
(0.714804 -0.308837 1.24468e-21)
(0.710417 -0.154074 3.14689e-22)
(0.739541 0.00934017 2.96574e-22)
(0.787038 0.159769 -2.9905e-22)
(0.817415 0.279216 0)
(0.816818 0.348853 0)
(0.782828 0.41538 -9.57047e-22)
(0.764161 0.337348 4.76278e-22)
(0.757834 0.241027 -5.58916e-22)
(0.802664 0.0445121 8.0188e-22)
(0.827284 -0.10363 8.84927e-22)
(0.837016 -0.201315 -1.85829e-22)
(0.819472 -0.362441 2.73607e-22)
(0.807351 -0.282437 -1.79759e-22)
(0.799427 -0.302467 5.51233e-23)
(0.800127 -0.082642 0)
(0.783138 0.14862 0)
(0.206858 0.285053 -1.05834e-19)
(0.255757 0.274707 -5.58525e-21)
(0.308629 0.250998 1.06017e-19)
(0.36557 0.213021 -8.89445e-22)
(0.424966 0.160334 0)
(0.484946 0.0927603 0)
(0.544646 0.0107373 -1.22095e-19)
(0.602979 -0.0843076 -1.48812e-21)
(0.658934 -0.191127 1.7218e-19)
(0.711529 -0.305781 -3.74523e-21)
(0.757687 -0.419331 -5.1078e-20)
(0.7918 -0.517563 -3.74886e-20)
(0.808273 -0.586141 3.76939e-20)
(0.805334 -0.617907 0)
(0.785942 -0.616222 -1.91424e-20)
(0.755145 -0.59172 1.75781e-20)
(0.718346 -0.554875 0)
(0.679376 -0.514042 0)
(0.63543 -0.480081 8.30705e-21)
(0.579676 -0.460888 -2.58999e-22)
(0.514486 -0.444781 -7.3252e-21)
(0.458628 -0.398277 -8.88189e-21)
(0.435568 -0.29159 8.83317e-21)
(0.453554 -0.129355 -9.45032e-21)
(0.502989 0.0525874 7.66688e-22)
(0.567002 0.216148 8.16782e-21)
(0.631255 0.337633 8.10564e-22)
(0.688112 0.411723 5.32489e-23)
(0.734281 0.447762 0)
(0.763857 0.470833 5.03233e-21)
(0.770307 0.504936 -5.20106e-21)
(0.755874 0.544593 3.62655e-22)
(0.74044 0.539694 0)
(0.74269 0.441825 -5.34179e-22)
(0.77142 0.245362 1.00963e-20)
(0.813661 0.00855649 -1.81176e-20)
(0.855926 -0.199018 -2.59077e-23)
(0.881035 -0.331959 1.66903e-21)
(0.890065 -0.390533 5.44727e-21)
(0.887118 -0.402744 4.80754e-22)
(0.867456 -0.392556 -2.66767e-21)
(0.825334 -0.391974 2.2883e-21)
(0.764805 -0.363999 3.25781e-23)
(0.718887 -0.303612 1.16883e-21)
(0.709569 -0.161247 -1.45222e-21)
(0.737934 -0.00537509 -1.86721e-21)
(0.784902 0.145787 5.70435e-22)
(0.815544 0.273432 9.10338e-22)
(0.816478 0.351868 -1.80907e-21)
(0.783297 0.422515 1.36715e-21)
(0.768604 0.341886 -5.83553e-22)
(0.762201 0.23818 4.88482e-22)
(0.810319 0.0383842 5.90787e-22)
(0.836364 -0.107331 -1.41072e-21)
(0.846903 -0.199322 4.62371e-23)
(0.828145 -0.358903 -2.87998e-22)
(0.812188 -0.280956 0)
(0.804351 -0.301639 -6.88659e-23)
(0.800801 -0.0812897 4.06156e-23)
(0.783354 0.150097 0)
(0.334354 0.232727 1.04366e-19)
(0.383284 0.22194 -2.11203e-19)
(0.435365 0.198963 1.05142e-19)
(0.491114 0.163208 1.1677e-19)
(0.549044 0.114047 -2.3422e-19)
(0.607515 0.0505828 -4.04231e-21)
(0.66602 -0.0260252 1.18957e-19)
(0.723537 -0.115847 1.18356e-19)
(0.778882 -0.217342 -1.15922e-19)
(0.830026 -0.326049 0)
(0.872178 -0.432345 -9.16921e-20)
(0.898356 -0.521793 1.66802e-19)
(0.903084 -0.581123 -7.55345e-20)
(0.886239 -0.605111 0)
(0.853149 -0.59828 0)
(0.810798 -0.57125 5.16211e-22)
(0.764735 -0.534249 -2.27163e-20)
(0.719049 -0.493274 2.20707e-20)
(0.673342 -0.454745 0)
(0.620204 -0.427615 1.34911e-20)
(0.554731 -0.410388 -2.53661e-20)
(0.488033 -0.379113 2.54426e-20)
(0.44487 -0.300286 -2.72433e-20)
(0.4427 -0.163849 -6.03481e-22)
(0.479107 0.00467527 2.74784e-20)
(0.538034 0.166448 -1.32961e-20)
(0.603458 0.294637 -3.72363e-22)
(0.66607 0.378774 -4.21155e-21)
(0.719691 0.425531 -4.47525e-23)
(0.756132 0.459381 4.31523e-21)
(0.769149 0.50313 3.15282e-22)
(0.762232 0.549223 -6.58829e-21)
(0.756001 0.546436 1.46092e-20)
(0.767479 0.446935 -9.09432e-21)
(0.803511 0.246866 0)
(0.849385 0.00685842 -1.15e-20)
(0.89114 -0.20246 1.10741e-20)
(0.912129 -0.334114 -5.57021e-21)
(0.913757 -0.390233 6.98831e-21)
(0.903677 -0.39924 -4.83848e-22)
(0.879978 -0.383139 0)
(0.837652 -0.376613 -2.64525e-22)
(0.775272 -0.348881 7.11403e-22)
(0.726473 -0.297999 0)
(0.712088 -0.168673 2.40363e-21)
(0.738919 -0.0208402 -9.56162e-22)
(0.784706 0.130846 4.63463e-22)
(0.815388 0.266735 3.93699e-22)
(0.818084 0.353912 0)
(0.786073 0.429132 0)
(0.77558 0.346622 -1.76866e-21)
(0.76907 0.23582 3.10229e-21)
(0.819766 0.0325834 -1.87972e-21)
(0.846863 -0.111026 6.07517e-22)
(0.858117 -0.196912 9.17911e-22)
(0.837714 -0.354759 2.88267e-22)
(0.817717 -0.279146 -3.06185e-22)
(0.810006 -0.300497 0)
(0.802429 -0.0797604 -8.18479e-23)
(0.784528 0.151593 -7.51157e-24)
(0.458737 0.180482 1.02688e-19)
(0.506089 0.170754 -1.02255e-19)
(0.556331 0.149459 8.57022e-22)
(0.610452 0.11668 -8.53761e-22)
(0.666737 0.0714509 9.15129e-22)
(0.724686 0.0127497 -9.35211e-22)
(0.783073 -0.0584318 1.80292e-21)
(0.840181 -0.142719 0)
(0.894797 -0.237738 -1.71592e-21)
(0.94333 -0.338541 1.60683e-21)
(0.97942 -0.435152 1.45204e-21)
(0.995627 -0.513965 -1.31252e-21)
(0.987731 -0.563758 0)
(0.957823 -0.581374 0)
(0.913091 -0.572023 6.63756e-22)
(0.861714 -0.545252 0)
(0.809196 -0.510167 -3.8775e-22)
(0.758595 -0.471617 0)
(0.710858 -0.432328 -1.30381e-20)
(0.660929 -0.398848 2.37877e-20)
(0.600081 -0.376175 -2.03575e-20)
(0.529967 -0.352436 9.58896e-21)
(0.470829 -0.297779 1.00772e-20)
(0.447366 -0.190283 -9.78717e-21)
(0.466591 -0.0407776 -1.03322e-20)
(0.516538 0.114946 1.00105e-20)
(0.580646 0.247367 0)
(0.646827 0.340598 1.99354e-22)
(0.706292 0.39813 0)
(0.748874 0.442826 0)
(0.768509 0.49595 9.81038e-21)
(0.769324 0.548788 -1.00533e-20)
(0.772147 0.549911 8.69235e-22)
(0.792331 0.451743 1.13497e-21)
(0.835284 0.251082 -1.32682e-21)
(0.884901 0.00823525 -1.07201e-20)
(0.926446 -0.201997 1.04069e-20)
(0.94382 -0.332662 -7.61226e-21)
(0.938495 -0.386963 6.47449e-21)
(0.921367 -0.394138 9.73172e-22)
(0.893592 -0.373623 -2.45317e-21)
(0.85139 -0.36166 2.39084e-22)
(0.788122 -0.333673 1.4011e-21)
(0.737113 -0.291816 0)
(0.717584 -0.175976 -8.30875e-22)
(0.742144 -0.0369187 1.10755e-21)
(0.786235 0.11495 -1.49562e-21)
(0.816756 0.258944 -3.96214e-22)
(0.821511 0.354773 0)
(0.791091 0.435085 6.16192e-22)
(0.785033 0.351551 -1.06523e-21)
(0.778469 0.234062 4.00505e-23)
(0.830951 0.0272333 -7.29722e-22)
(0.858666 -0.114669 1.04014e-21)
(0.870542 -0.194071 -9.61436e-22)
(0.848114 -0.349926 0)
(0.823882 -0.276979 3.06324e-22)
(0.816316 -0.299065 0)
(0.804916 -0.0780777 0)
(0.7866 0.153106 1.22898e-23)
(0.592834 0.130881 -1.01311e-19)