/*--------------------------------*- C++ -*----------------------------------*\
| =========                 |                                                 |
| \\      /  F ield         | OpenFOAM: The Open Source CFD Toolbox           |
|  \\    /   O peration     | Version:  2512                                  |
|   \\  /    A nd           | Website:  www.openfoam.com                      |
|    \\/     M anipulation  |                                                 |
\*---------------------------------------------------------------------------*/
FoamFile
{
    version     2.0;
    format      ascii;
    arch        "LSB;label=32;scalar=64";
    class       surfaceScalarField;
    location    "46";
    object      phi;
}
// * * * * * * * * * * * * * * * * * * * * * * * * * * * * * * * * * * * * * //

dimensions      [0 3 -1 0 0 0 0];

oriented        oriented;

internalField   nonuniform List<scalar> 
26232
(
2.27378e-05
0.00094828
-0.000971018
0.000268001
0.00190241
-0.00214767
0.000887288
0.0020586
-0.00267789
0.00202067
0.00146645
-0.00259984
0.00380596
0.000153752
-0.00193904
0.0063815
-0.00186637
-0.000709172
0.00988338
-0.00458794
0.00108607
0.0144388
-0.00800468
0.0034493
0.0201543
-0.0121003
0.0063848
0.0271035
-0.0168406
0.00989136
0.035313
-0.0221675
0.013958
0.0447519
-0.0279977
0.0185588
0.0553261
-0.0342248
0.0236507
0.0668782
-0.0407243
0.0291722
0.0791949
-0.047362
0.0350454
0.092019
-0.0540034
0.0411793
0.105067
-0.0605221
0.0474745
0.118047
-0.0668099
0.0538297
0.130683
-0.0727788
0.0601432
0.14273
-0.0783833
0.0663357
0.153986
-0.0835651
0.0723097
0.164302
-0.0884197
0.0781028
0.173537
-0.09272
0.0834859
-0.0970905
0.0894048
0.181222
6.3856e-05
0.000884424
0.000457479
0.00150879
0.00135996
0.00115612
0.00293885
-0.000112431
0.0053571
-0.0022645
0.00876989
-0.00527916
0.0133156
-0.00913362
0.0191005
-0.0137896
0.0261819
-0.0191817
0.0345516
-0.0252103
0.044126
-0.0317419
0.0547438
-0.0386155
0.0661733
-0.0456544
0.0781299
-0.0526808
0.0902983
-0.0595305
0.10236
-0.0660652
0.114021
-0.0721828
0.125033
-0.0778226
0.135221
-0.082966
0.144475
-0.0876376
0.152789
-0.0918796
0.160184
-0.0958142
0.166839
-0.0993755
-0.103104
0.172853
0.000124744
0.00075968
0.000719438
0.000914091
0.00198796
-0.000112399
0.00412085
-0.00224532
0.00729551
-0.00543916
0.0116645
-0.00964817
0.0173364
-0.0148054
0.0243533
-0.0208065
0.0326724
-0.0275008
0.0421563
-0.0346942
0.0525766
-0.0421622
0.0636322
-0.049671
0.0749779
-0.0570001
0.0862604
-0.0639633
0.097154
-0.0704241
0.107393
-0.076304
0.116793
-0.0815834
0.125267
-0.086296
0.132818
-0.0905168
0.139529
-0.0943493
0.14555
-0.0978999
0.151035
-0.101299
0.156205
-0.104546
-0.108035
0.161136
0.000205778
0.000553902
0.00105387
6.59977e-05
0.00276624
-0.00182477
0.00554487
-0.00502394
0.00956093
-0.00945523
0.0149311
-0.0150183
0.0216893
-0.0215636
0.0297638
-0.028881
0.0389684
-0.0367055
0.0490136
-0.0447394
0.0595369
-0.0526855
0.0701463
-0.0602804
0.0804685
-0.0673223
0.0901923
-0.0736871
0.0990999
-0.0793317
0.107083
-0.084287
0.11414
-0.0886406
0.12036
-0.0925159
0.125893
-0.0960495
0.130915
-0.0993718
0.135605
-0.10259
0.140104
-0.105798
0.144557
-0.108999
-0.112441
0.148964
0.000306079
0.000247823
0.00145457
-0.0010825
0.00367366
-0.00404385
0.00715664
-0.00850693
0.0120362
-0.0143348
0.0183491
-0.0213312
0.026006
-0.0292206
0.0347821
-0.0376572
0.044335
-0.0462583
0.0542487
-0.0546531
0.0640937
-0.0625305
0.073487
-0.0696737
0.0821405
-0.0759758
0.0898882
-0.0814348
0.0966899
-0.0861333
0.102613
-0.0902098
0.107799
-0.0938266
0.112426
-0.0971432
0.116673
-0.100297
0.120693
-0.103392
0.124605
-0.106501
0.128479
-0.109673
0.132383
-0.112902
-0.116347
0.136288
0.000423963
-0.00017614
0.00191047
-0.002569
0.00467508
-0.00680847
0.00887279
-0.0127046
0.014556
-0.020018
0.0216342
-0.0284094
0.0298587
-0.037445
0.0388441
-0.0466426
0.0481274
-0.0555416
0.0572441
-0.0637699
0.0658022
-0.0710885
0.0735336
-0.0774051
0.0803153
-0.0827575
0.086159
-0.0872785
0.0911782
-0.0911526
0.0955439
-0.0945754
0.0994413
-0.0977241
0.103038
-0.10074
0.106465
-0.103724
0.109815
-0.106742
0.113147
-0.109833
0.116492
-0.113018
0.119885
-0.116295
-0.119748
0.123287
0.000556712
-0.000732852
0.00240488
-0.00441717
0.00572072
-0.0101243
0.0105828
-0.0175667
0.0169183
-0.0263535
0.0244737
-0.0359648
0.0328346
-0.0458059
0.0414948
-0.0553028
0.0499517
-0.0639985
0.0577953
-0.0716134
0.0647648
-0.078058
0.0707637
-0.083404
0.0758375
-0.0878313
0.0801275
-0.0915685
0.0838189
-0.094844
0.0870963
-0.0978529
0.0901157
-0.100743
0.092993
-0.103617
0.0958062
-0.106537
0.0986031
-0.109539
0.101412
-0.112642
0.104246
-0.115853
0.107121
-0.11917
-0.122632
0.110006
0.000700021
-0.00143287
0.00291436
-0.00663151
0.00674612
-0.0139561
0.0121557
-0.0229763
0.0189083
-0.0331061
0.0265784
-0.0436349
0.0346223
-0.0538498
0.042492
-0.0631725
0.0497432
-0.0712497
0.0561023
-0.0779725
0.0614792
-0.083435
0.0659355
-0.0878603
0.0696272
-0.0915231
0.0727473
-0.0946885
0.0754791
-0.0975758
0.0779718
-0.100346
0.0803323
-0.103104
0.0826304
-0.105915
0.0849078
-0.108814
0.0871883
-0.11182
0.0894845
-0.114938
0.0918022
-0.118171
0.0941475
-0.121515
-0.124981
0.0964966
0.00084729
-0.00228016
0.00340844
-0.00919265
0.00767583
-0.0182235
0.0134545
-0.028755
0.0203323
-0.0399839
0.0277394
-0.051042
0.0350748
-0.0611853
0.0418398
-0.0699374
0.0477224
-0.0771324
0.052616
-0.0828661
0.0565806
-0.0873995
0.059778
-0.0910577
0.0624058
-0.094151
0.0646494
-0.0969321
0.0666557
-0.0995821
0.0685282
-0.102218
0.0703325
-0.104908
0.072107
-0.10769
0.073873
-0.11058
0.075642
-0.113588
0.0774195
-0.116716
0.0792083
-0.119959
0.0810097
-0.123317
-0.12678
0.0828084
0.000989669
-0.00326983
0.00385166
-0.0120546
0.00843193
-0.0228037
0.0143575
-0.0346806
0.0210534
-0.0466798
0.0278656
-0.0578542
0.03422
-0.0675397
0.0397375
-0.075455
0.0442672
-0.0816621
0.047849
-0.0864478
0.0506407
-0.0901913
0.0528436
-0.0932605
0.0546475
-0.0959548
0.0562026
-0.0984872
0.0576133
-0.100993
0.0589447
-0.103549
0.0602344
-0.106198
0.0615025
-0.108958
0.06276
-0.111838
0.0640126
-0.114841
0.0652632
-0.117966
0.0665126
-0.121209
0.0677597
-0.124564
-0.128016
0.068996
0.0011173
-0.00438713
0.00420886
-0.0151462
0.00894663
-0.0275415
0.0147791
-0.040513
0.0210126
-0.0529133
0.0269846
-0.0638262
0.0322181
-0.0727732
0.0364857
-0.0797226
0.0397832
-0.0849595
0.0422517
-0.0889163
0.0440925
-0.0920321
0.0455027
-0.0946707
0.0466403
-0.0970925
0.0476153
-0.0994622
0.0484958
-0.101873
0.0493205
-0.104374
0.0501097
-0.106987
0.0508746
-0.109723
0.0516209
-0.112584
0.0523521
-0.115572
0.0530696
-0.118684
0.0537731
-0.121912
0.0544598
-0.12525
-0.128682
0.0551252
0.00122318
-0.00561032
0.00445311
-0.0183761
0.00917426
-0.0322626
0.0146823
-0.046021
0.0202297
-0.0584607
0.0252163
-0.0688128
0.0293016
-0.0768585
0.0324052
-0.0828261
0.0346315
-0.0871859
0.0361744
-0.0904592
0.0372383
-0.093096
0.0379932
-0.0954256
0.0385592
-0.0976585
0.0390114
-0.0999143
0.0393918
-0.102254
0.0397224
-0.104705
0.0400146
-0.107279
0.0402745
-0.109982
0.0405059
-0.112816
0.040711
-0.115777
0.0408909
-0.118863
0.0410453
-0.122067
0.0411708
-0.125376
0.0412671
-0.128778
-0.000190337
0.000455157
-0.00026482
-0.000667196
0.00121914
-0.000742281
-0.00137113
0.00188882
-0.00118488
-0.002256
0.00247427
-0.00158941
-0.00328501
0.00298481
-0.00195579
-0.00442895
0.00343284
-0.0022889
-0.00566473
0.00383313
-0.00259735
-0.00697409
0.00420107
-0.00289171
-0.00834247
0.00455115
-0.00318278
-0.00975797
0.00489554
-0.00348004
-0.0112105
0.00524319
-0.00379071
-0.0126908
0.00559947
-0.00411917
-0.01419
0.00596616
-0.00446694
-0.015699
0.00634184
-0.00483281
-0.0172083
0.00672233
-0.00521308
-0.0187077
0.00710114
-0.0056017
-0.0201872
0.00747
-0.00599045
-0.0216377
0.00781938
-0.00636889
-0.0230525
0.00813917
-0.00672439
-0.0244297
0.00841953
-0.00704238
-0.0257746
0.00865162
-0.0073067
-0.0271031
0.00882798
-0.0074994
-0.0284498
0.00894495
-0.00759826
0.00900738
-0.0298764
-0.00758078
-0.000164811
0.000619968
-0.000581844
0.00163617
-0.00120062
0.0025076
-0.00198041
0.00325406
-0.0028876
0.00389199
-0.00389443
0.00443967
-0.00497794
0.00491664
-0.00611901
0.00534214
-0.00730152
0.00573367
-0.00851164
0.00610565
-0.00973709
0.00646864
-0.0109666
0.00682895
-0.0121892
0.00718877
-0.0133939
0.0075466
-0.0145694
0.00789777
-0.0157034
0.00823516
-0.0167832
0.00854983
-0.0177958
0.00883195
-0.0187286
0.009072
-0.0195716
0.00926245
-0.0203195
0.00939957
-0.0209766
0.00948507
-0.0215663
0.00953462
0.00959883
-0.0221577
-0.0001324
0.000752368
-0.000472323
0.0019761
-0.000979505
0.00301478
-0.0016191
0.00389366
-0.00236074
0.00463363
-0.0031779
0.00525684
-0.00404733
0.00578607
-0.00494844
0.00624325
-0.00586276
0.00664799
-0.00677349
0.00701639
-0.00766504
0.00736019
-0.00852255
0.00768647
-0.00933154
0.00799776
-0.0100774
0.00829242
-0.0107448
0.00856519
-0.0113175
0.00880786
-0.0117776
0.00900992
-0.0121051
0.00915949
-0.0122778
0.00924465
-0.0122709
0.00925562
-0.0120599
0.00918858
-0.0116256
0.00905071
-0.01096
0.00886906
0.00873138
-0.0100926
-9.71341e-05
0.000849502
-0.000351081
0.00223004
-0.000731089
0.00339479
-0.00120754
0.00437011
-0.00175269
0.00517878
-0.00234073
0.00584488
-0.00294754
0.00639288
-0.00355041
0.00684612
-0.00412774
0.00722532
-0.00465873
0.00754737
-0.00512313
0.00782459
-0.005501
0.00806433
-0.00577234
0.0082691
-0.00591678
0.00843686
-0.0059131
0.00856152
-0.00573871
0.00863346
-0.00536885
0.00864006
-0.00477567
0.00856632
-0.00392686
0.00839584
-0.00278388
0.00811264
-0.00130021
0.00770491
0.000578048
0.00717245
0.00290023
0.00654688
0.00597132
0.00566029
-6.32927e-05
0.000912795
-0.000231666
0.00239841
-0.000481197
0.00364432
-0.000785627
0.00467454
-0.00111854
0.0055117
-0.00145388
0.00618021
-0.00176591
0.00670491
-0.00202909
0.0071093
-0.00221786
0.00741408
-0.00230639
0.00763591
-0.00226847
0.00778668
-0.00207731
0.00787317
-0.00170529
0.00789708
-0.00112376
0.00785532
-0.000302664
0.00774043
0.000789816
0.00754098
0.00218789
0.00724198
0.00392892
0.00682529
0.00605466
0.0062701
0.00861349
0.00555381
0.0116638
0.0046546
0.0152757
0.00356055
0.0195347
0.00228786
0.000913867
0.0245922
-3.48478e-05
0.000947643
-0.000126718
0.00249028
-0.00025415
0.00377175
-0.000391374
0.00481176
-0.00051133
0.00563166
-0.000586313
0.00625519
-0.000587936
0.00670653
-0.000486867
0.00700823
-0.000252574
0.00717978
0.000146939
0.00723639
0.000745357
0.00718826
0.00157825
0.00704028
0.00268326
0.00679207
0.00410032
0.00643826
0.00587184
0.0059689
0.00804296
0.00536987
0.0106616
0.0046233
0.0137791
0.00370787
0.0174496
0.00259957
0.0217312
0.00127214
0.0266876
-0.000301738
0.0324013
-0.00215313
0.038927
-0.00423783
-0.00678026
0.0466211
-1.47165e-05
0.000962359
-4.54815e-05
0.00252105
-6.7762e-05
0.00379403
-5.27071e-05
0.0047967
2.98788e-05
0.00554907
0.000211298
0.00607377
0.000524299
0.00639353
0.00100353
0.00652901
0.00168611
0.0064972
0.00261212
0.00631038
0.00382492
0.00597546
0.00537145
0.00549375
0.00730241
0.00486111
0.00967237
0.0040683
0.0125398
0.00310143
0.015967
0.00194271
0.0200189
0.000571389
0.0247639
-0.00103712
0.0302709
-0.00290744
0.036609
-0.0050659
0.0438386
-0.00753135
0.0520551
-0.0103696
0.0611926
-0.0133753
-0.0174443
0.0718566
-4.06425e-06
0.000966423
8.67668e-06
0.00250831
7.16326e-05
0.00373107
0.000220842
0.00464749
0.000492891
0.00527702
0.000925377
0.00564129
0.00155795
0.00576096
0.00243336
0.00565359
0.00359839
0.00533217
0.00510453
0.00480424
0.00700843
0.00407156
0.00937213
0.00313005
0.012263
0.0019702
0.0157533
0.000578067
0.0199194
-0.00106472
0.0248406
-0.0029785
0.0305973
-0.00518525
0.0372673
-0.00770713
0.0449239
-0.0105641
0.0536345
-0.0137765
0.0634345
-0.0173313
0.0744235
-0.0213586
0.0863754
-0.0253272
-0.0310844
0.100015
-1.58379e-06
0.000968007
4.01662e-05
0.00246656
0.000173564
0.00359768
0.00044603
0.00437503
0.000904295
0.00481876
0.00159614
0.00494944
0.00257229
0.00478481
0.00388808
0.0043378
0.0056047
0.00361555
0.00778984
0.00261911
0.0105179
0.00134354
0.0138691
-0.000221145
0.017929
-0.00208979
0.0227859
-0.00427884
0.0285277
-0.00680651
0.035239
-0.00968978
0.0429966
-0.0129428
0.0518645
-0.016575
0.0618884
-0.0205881
0.0730947
-0.0249828
0.0854624
-0.029699
0.0990194
-0.0349156
0.113478
-0.0397857
-0.0469182
0.129312
-3.42092e-06
0.000971428
6.20051e-05
0.00240113
0.000264693
0.00339499
0.000667889
0.00397183
0.00133313
0.00415351
0.00232349
0.00395908
0.00370627
0.00340203
0.0055549
0.00248917
0.00795036
0.00122009
0.0109802
-0.000410746
0.0147377
-0.00241396
0.019319
-0.0048024
0.0248184
-0.00758922
0.0313246
-0.010785
0.0389136
-0.0143956
0.0476435
-0.0184197
0.057548
-0.0228473
0.0686315
-0.0276586
0.0808654
-0.0328219
0.0941841
-0.0383015
0.108487
-0.0440017
0.123631
-0.0500595
0.139439
-0.0555937
-0.0632094
0.15573
-3.96239e-06
0.000975391
9.40084e-05
0.00230316
0.000385825
0.00310317
0.000955092
0.00340257
0.00188337
0.00322524
0.00325464
0.00258781
0.00515837
0.0014983
0.00768963
-4.20903e-05
0.0109517
-0.00204201
0.0150485
-0.00450752
0.0200826
-0.00744809
0.0261481
-0.0108678
0.0333222
-0.0147633
0.0416576
-0.0191204
0.0511748
-0.0239128
0.0618562
-0.029101
0.0736419
-0.034633
0.0864293
-0.040446
0.100075
-0.0464677
0.1144
-0.0526269
0.129219
-0.0588203
0.144252
-0.0650927
0.159502
-0.0708435
-0.0777786
0.174071
4.37229e-06
0.000159863
0.000585146
0.00138787
0.00267407
0.00455271
0.00713708
0.0105443
0.0148871
0.0202709
0.0267808
0.0344717
0.0433591
0.0534109
0.0645434
0.0766217
0.0894632
0.102847
0.116522
0.130231
0.143721
0.156731
0.169373
0.180999
-0.0305213
0.0106203
-0.00997553
-0.0311621
0.00987518
-0.00923431
-0.0317789
0.00858029
-0.00796352
-0.0323728
0.00666926
-0.00607534
-0.0329502
0.00403544
-0.0034581
-0.0334734
0.000555603
-3.23586e-05
-0.0339689
-0.00374883
0.00424431
-0.0344066
-0.00905199
0.00948971
-0.0347683
-0.0153248
0.0156865
-0.0350349
-0.0225246
0.0227911
-0.035189
-0.0305345
0.0306886
-0.0352145
-0.0391476
0.0391731
-0.035094
-0.0480518
0.0479313
-0.0348023
-0.0568243
0.0565326
-0.034277
-0.0649579
0.0644327
-0.0334188
-0.0717988
0.0709406
-0.032071
-0.076575
0.0752272
-0.030044
-0.0784057
0.0763787
-0.0271295
-0.0763315
0.0734171
-0.0231043
-0.0694352
0.06541
-0.0179375
-0.0570114
0.0518446
-0.0116922
-0.0386966
0.0324512
-0.00460215
-0.0147966
0.00770656
0.00291735
0.013383
-0.0209025
0.0103041
0.0441441
-0.0515309
0.0166646
0.0750958
-0.0814563
0.0210023
0.103721
-0.108058
0.0227572
0.127968
-0.129723
0.0220341
0.147264
-0.146541
0.020506
0.159744
-0.158216
0.0211819
0.161083
-0.161759
0.0267072
0.145664
-0.151189
0.0375395
0.11079
-0.121623
0.0520924
0.0601976
-0.0747505
0.0679428
0.003199
-0.0190494
0.0828976
-0.0497241
0.0347693
0.0953803
-0.0909855
0.0785027
0.104495
-0.117069
0.107954
0.10986
-0.128782
0.123417
0.111075
-0.129246
0.128031
0.108252
-0.123429
0.126252
0.103354
-0.114432
0.119329
0.100092
-0.101196
0.104459
0.101349
-0.0798448
0.0785875
0.107224
-0.0501107
0.044236
0.115516
-0.0166329
0.00834058
0.123811
0.0139788
-0.0222742
0.130483
0.0373035
-0.0439753
0.134964
0.0521347
-0.0566153
0.137388
0.0591235
-0.0615482
0.138546
0.0595163
-0.0606735
0.139334
0.0542725
-0.0550611
0.140625
0.0438778
-0.0451688
0.142569
0.0308199
-0.0327633
0.145127
0.0150415
-0.0175994
0.147629
0.00320859
-0.00571115
0.149996
-0.0103648
0.00799806
0.151844
-0.0129619
0.0111135
0.153496
-0.0209456
0.0192936
-0.0131752
0.0116311
-0.0226153
0.011078
-0.0231228
0.0103827
-0.0236525
0.00910999
-0.0242071
0.00722377
-0.0247903
0.00461866
-0.0254183
0.0011836
-0.0260468
-0.00312033
-0.0267005
-0.00839831
-0.0273714
-0.0146538
-0.0280544
-0.0218417
-0.0287474
-0.0298415
-0.029448
-0.0384469
-0.0301496
-0.0473502
-0.0308712
-0.0561028
-0.0315772
-0.0642519
-0.0321925
-0.0711835
-0.0325609
-0.0762066
-0.0324453
-0.0785213
-0.0315553
-0.0772215
-0.0295288
-0.0714617
-0.0261441
-0.0603961
-0.021324
-0.0435167
-0.0152051
-0.0209155
-0.00827361
0.00645148
-0.00115968
0.0370302
0.00562851
0.0683076
0.0107354
0.0986139
0.0140511
0.124652
0.0162033
0.145112
0.01894
0.157007
0.0245369
0.155486
0.0342393
0.135961
0.0474966
0.097533
0.0628389
0.0448554
0.0783795
-0.0123416
0.092548
-0.0638926
0.104004
-0.102441
0.112148
-0.125213
0.117027
-0.133661
0.118586
-0.130806
0.116484
-0.121328
0.111395
-0.109343
0.1061
-0.0959012
0.10395
-0.0776943
0.106406
-0.0525664
0.112256
-0.022483
0.119247
0.00698741
0.12547
0.0310811
0.130066
0.0475384
0.133037
0.0561528
0.135134
0.0574186
0.137162
0.0522451
0.139773
0.0412665
0.142888
0.0277051
0.14626
0.0116693
0.149232
0.00023676
0.151666
-0.0127984
0.15339
-0.014686
0.154642
-0.0221974
-0.0143159
-0.0101461
0.0111315
-0.0103396
0.0105763
-0.0106078
0.00937811
-0.0109431
0.0075591
-0.0113624
0.00503794
-0.0118903
0.00171153
-0.0124934
-0.0025172
-0.0132052
-0.00768657
-0.0140332
-0.0138258
-0.014987
-0.0208879
-0.016082
-0.0287465
-0.0173261
-0.0372028
-0.0186839
-0.0459924
-0.0202686
-0.0545181
-0.0220612
-0.0624593
-0.0240165
-0.0692282
-0.0259894
-0.0742337
-0.0277221
-0.0767886
-0.028928
-0.0760156
-0.0291077
-0.071282
-0.0278794
-0.0616244
-0.0249831
-0.0464129
-0.0203943
-0.0255043
-0.014455
0.000512148
-0.00770471
0.0302799
-0.00103786
0.0616408
0.00542517
0.0921509
0.0110651
0.119012
0.0165638
0.139613
0.0234079
0.150163
0.0328929
0.146001
0.0451959
0.123658
0.0594234
0.0833056
0.0745772
0.0297015
0.0892274
-0.0269918
0.102162
-0.0768274
0.112275
-0.112554
0.119186
-0.132125
0.123235
-0.137709
0.124808
-0.132378
0.123616
-0.120136
0.119375
-0.105101
0.113515
-0.0900417
0.109012
-0.0731908
0.108262
-0.051817
0.111286
-0.0255064
0.116436
0.00183677
0.121822
0.0256952
0.126384
0.0429768
0.12995
0.0525869
0.133114
0.0542541
0.136459
0.0489003
0.14034
0.0373855
0.144465
0.0235795
0.148439
0.0076956
0.151694
-0.00301824
0.154068
-0.0151725
0.155608
-0.0162253
0.156448
-0.0230377
-0.0150457
0.0061735
0.0106183
0.00639865
0.0103511
0.00651873
0.00925804
0.00655131
0.00752652
0.00645733
0.00513192
0.00620241
0.00196644
0.00582188
-0.00213667
0.0052544
-0.00711909
0.00448542
-0.0130568
0.00349303
-0.0198955
0.00225068
-0.0275041
0.000685398
-0.0356375
-0.00136902
-0.043938
-0.00368423
-0.0522029
-0.00638748
-0.059756
-0.00946643
-0.0661493
-0.0128026
-0.0708975
-0.0161159
-0.0734753
-0.0192549
-0.0728766
-0.021532
-0.0690049
-0.0224851
-0.0606712
-0.0216915
-0.0472066
-0.0189433
-0.0282524
-0.0143156
-0.00411559
-0.00823318
0.0241975
-0.00144914
0.0548567
0.00633359
0.0843681
0.014245
0.111101
0.0227533
0.131105
0.0327892
0.140127
0.044783
0.134008
0.0582859
0.110156
0.0724667
0.0691248
0.0867871
0.0153811
0.100103
-0.040308
0.111444
-0.0881686
0.119952
-0.121061
0.12548
-0.137653
0.12852
-0.14075
0.12976
-0.133618
0.129255
-0.119631
0.126337
-0.102183
0.121174
-0.0848788
0.115723
-0.0677401
0.112601
-0.0486948
0.11292
-0.0258254
0.115963
-0.00120642
0.120211
0.021447
0.12456
0.0386278
0.128658
0.0484888
0.132838
0.0500748
0.137369
0.0443689
0.142282
0.0324731
0.147123
0.0187385
0.151417
0.00340103
0.154744
-0.00634547
0.156944
-0.0173726
0.158262
-0.0175425
0.158724
-0.0235005
-0.0154036
0.0253684
0.00984205
0.0260033
0.00971621
0.0265143
0.00874702
0.0269257
0.00711515
0.0271894
0.00486814
0.0272569
0.001899
0.0271486
-0.00202842
0.0267968
-0.00676727
0.0261787
-0.0124387
0.0252585
-0.0189752
0.0239933
-0.026239
0.022346
-0.0339902
0.020303
-0.041895
0.0176642
-0.049564
0.0143937
-0.0564856
0.010464
-0.0622196
0.00589921
-0.0663327
0.000850058
-0.0684262
-0.00359968
-0.0684268
-0.00759896
-0.0650057
-0.0104662
-0.057804
-0.0116476
-0.0460251
-0.0107538
-0.0291463
-0.00761347
-0.00725587
-0.00254866
0.0191327
0.00484276
0.0474653
0.0134206
0.0757903
0.022959
0.101562
0.0336012
0.120463
0.0456362
0.128092
0.0588405
0.120803
0.072485
0.096511
0.0859782
0.0556316
0.0989651
0.00239415
0.110642
-0.0519852
0.120108
-0.0976341
0.126802
-0.127755
0.130853
-0.141703
0.132847
-0.142744
0.133559
-0.134331
0.133379
-0.11945
0.131742
-0.100546
0.128026
-0.0811624
0.122967
-0.0626819
0.118706
-0.0444336
0.116967
-0.0240866
0.118032
-0.0022706
0.121007
0.0184716
0.124967
0.0346681
0.129419
0.0440361
0.134385
0.0451086
0.139793
0.0389618
0.145365
0.0269011
0.150553
0.01355
0.154874
-0.000919979
0.158074
-0.00954514
0.160014
-0.0193131
0.161099
-0.0186273
0.161255
-0.0236563
-0.0154668
0.0474617
0.00900143
0.0482818
0.00889614
0.0490611
0.00796773
0.0497697
0.00640648
0.0503374
0.00430046
0.0507124
0.00152406
0.0508846
-0.00220062
0.05079
-0.00667271
0.0503902
-0.0120389
0.0496416
-0.0182267
0.0484964
-0.0250938
0.0468944
-0.0323882
0.0447672
-0.0397678
0.0420218
-0.0468186
0.0386
-0.0530638
0.0344428
-0.0580624
0.0295525
-0.0614424
0.0240822
-0.0629559
0.0181041
-0.0624487
0.012363
-0.0592645
0.00750571
-0.0529468
0.00428414
-0.0428035
0.00339612
-0.0282583
0.00527717
-0.00913693
0.00988893
0.0145209
0.0167645
0.0405897
0.0254557
0.0670991
0.0357892
0.0912288
0.0475563
0.108696
0.0604742
0.115175
0.0738744
0.107403
0.0869449
0.0834405
0.0993589
0.0432176
0.110654
-0.00890105
0.120488
-0.0618195
0.127884
-0.10503
0.13264
-0.132512
0.135173
-0.144236
0.136155
-0.143726
0.136301
-0.134477
0.136153
-0.119303
0.135466
-0.0998587
0.133378
-0.0790747
0.129641
-0.0589446
0.125507
-0.0402996
0.122727
-0.0213064
0.122317
-0.00186043
0.124125
0.0166635
0.127576
0.0312168
0.132139
0.0394733
0.137546
0.0397018
0.143411
0.0330966
0.149216
0.0210956
0.154385
0.00838165
0.158469
-0.00500422
0.161384
-0.0124603
0.163018
-0.0209472
0.163887
-0.0194958
0.16383
-0.0235997
-0.0153391
0.0723699
0.00848817
0.0729993
0.0082667
0.0737241
0.007243
0.0744368
0.00569372
0.0750476
0.00368965
0.0755149
0.0010568
0.0757749
-0.00246059
0.075776
-0.00667386
0.0754435
-0.0117064
0.0747193
-0.0175025
0.0735503
-0.0239248
0.0718883
-0.0307262
0.0696889
-0.0375684
0.0669028
-0.0440325
0.0634841
-0.0496451
0.0593747
-0.053953
0.0545259
-0.0565936
0.048939
-0.0573689
0.0426958
-0.0562056
0.0362947
-0.0528633
0.0303992
-0.0470513
0.0258213
-0.0382256
0.0233338
-0.0257708
0.023497
-0.0093002
0.0265834
0.0114346
0.0324473
0.0347259
0.0407117
0.0588347
0.0510697
0.0808707
0.0630689
0.0966967
0.0760019
0.102242
0.0888965
0.0945086
0.100957
0.0713798
0.11197
0.0322047
0.121584
-0.0185152
0.129333
-0.0695685
0.13454
-0.110236
0.137329
-0.135301
0.138373
-0.14528
0.13841
-0.143762
0.138043
-0.134111
0.137783
-0.119042
0.137662
-0.0997381
0.136976
-0.078388
0.13494
-0.0569093
0.131896
-0.0372549
0.129148
-0.0185591
0.128033
-0.000744978
0.12901
0.0156862
0.131947
0.0282796
0.136387
0.035034
0.141861
0.0342279
0.147753
0.0272038
0.153395
0.0154541
0.158235
0.00354177
0.161891
-0.00866037
0.164424
-0.0149934
0.165747
-0.0222705
0.166438
-0.0201865
0.166274
-0.0234353
-0.0151355
0.0997931
0.00871056
0.0998043
0.00825543
0.0999928
0.00705459
0.100232
0.00545436
0.100456
0.00346608
0.100618
0.000894487
0.100595
-0.00243802
0.100352
-0.00642999
0.0997896
-0.0111445
0.0988384
-0.0165513
0.0974392
-0.0225255
0.0955478
-0.0288348
0.0931389
-0.0351595
0.0902021
-0.0410957
0.086736
-0.046179
0.0827306
-0.0499476
0.0781537
-0.0520167
0.072949
-0.0521642
0.0670929
-0.0503495
0.0608023
-0.0465727
0.0545522
-0.0408012
0.0490919
-0.0327653
0.0452951
-0.021974
0.0439304
-0.0079355
0.0455227
0.00984222
0.050137
0.0301116
0.0575157
0.0514559
0.0672776
0.0711089
0.0788056
0.0851686
0.0911516
0.0898956
0.103158
0.0825027
0.11402
0.0605176
0.123537
0.0226872
0.131368
-0.0263458
0.136928
-0.075129
0.1399
-0.113208
0.140777
-0.136179
0.140431
-0.144934
0.139619
-0.14295
0.138826
-0.133318
0.138429
-0.118645
0.138593
-0.0999021
0.138906
-0.0787011
0.138489
-0.0564925
0.137019
-0.0357844
0.13516
-0.0167006
0.134141
0.000274571
0.134778
0.0150485
0.137328
0.0257298
0.141492
0.0308701
0.146721
0.0289988
0.152285
0.0216397
0.157459
0.0102806
0.161761
-0.000760832
0.164888
-0.0117874
0.167008
-0.0171135
0.168057
-0.0233186
0.168626
-0.0207559
0.168457
-0.0232662
-0.0149698
0.128094
0.00992774
0.127212
0.00913806
0.126512
0.00775395
0.125883
0.00608424
0.125314
0.00403434
0.124782
0.00142679
0.124123
-0.00177943
0.12327
-0.00557661
0.122143
-0.0100174
0.120664
-0.0150722
0.11877
-0.0206318
0.116418
-0.0264829
0.113595
-0.0323362
0.110318
-0.0378188
0.106631
-0.0424916
0.102587
-0.0459043
0.0982286
-0.047658
0.0935447
-0.0474804
0.088481
-0.0452858
0.083041
-0.0411327
0.0773945
-0.0351547
0.072001
-0.0273718
0.0676132
-0.0175862
0.0651384
-0.00546068
0.0652683
0.00971234
0.068447
0.0269329
0.074584
0.0453189
0.0832749
0.062418
0.0938007
0.0746428
0.105102
0.0785938
0.115991
0.0716138
0.12569
0.0508187
0.133806
0.0145711
0.139781
-0.0323208
0.143068
-0.0784157
0.143818
-0.113958
0.142909
-0.135269
0.141333
-0.143358
0.139798
-0.141415
0.138672
-0.132191
0.138179
-0.118153
0.138484
-0.100207
0.139425
-0.0796422
0.14029
-0.0573573
0.140434
-0.0359284
0.139937
-0.0162037
0.139647
0.000564164
0.140453
0.0142427
0.142839
0.0233437
0.14669
0.0270191
0.151484
0.0242046
0.156493
0.0166311
0.161026
0.0057476
0.164697
-0.0044318
0.167285
-0.0143757
0.169024
-0.0188523
0.169865
-0.0241596
0.170382
-0.0212729
0.170302
-0.023186
-0.0149445
0.153702
0.0119559
0.152007
0.0108325
0.15038
0.009381
0.148796
0.00766833
0.147295
0.00553526
0.145824
0.00289841
0.144406
-0.00036144
0.142767
-0.00393831
0.140887
-0.00813689
0.138693
-0.0128782
0.136131
-0.0180699
0.133162
-0.0235138
0.129784
-0.0289581
0.126034
-0.0340692
0.121989
-0.0384461
0.117753
-0.0416683
0.113439
-0.0433445
0.109133
-0.0431744
0.104858
-0.0410103
0.100574
-0.036849
0.0962382
-0.0308187
0.0919575
-0.0230911
0.0880861
-0.0137148
0.0853703
-0.00274489
0.08458
0.0105026
0.0864404
0.0250726
0.0911446
0.0406147
0.098423
0.0551395
0.107577
0.0654893
0.117543
0.0686272
0.127185
0.0619724
0.135743
0.0422608
0.142443
0.00787078
0.146526
-0.0364043
0.147537
-0.0794264
0.146166
-0.112586
0.143661
-0.132764
0.141061
-0.140758
0.138958
-0.139312
0.137597
-0.13083
0.137073
-0.117629
0.137479
-0.100613
0.138794
-0.0809569
0.140553
-0.0591171
0.142073
-0.0374483
0.143037
-0.0171679
0.143842
-0.000239976
0.145211
0.0128733
0.147683
0.0208715
0.151284
0.0234179
0.155589
0.0199
0.159959
0.0122608
0.163816
0.00189091
0.16687
-0.00748587
0.168987
-0.0164924
0.170425
-0.0202904
0.171149
-0.0248842
0.17169
-0.0218133
0.171779
-0.023275
-0.0151458
0.171922
0.0141047
0.169857
0.0128979
0.167683
0.0115555
0.165556
0.00979489
0.163518
0.00757336
0.161438
0.00497839
0.159186
0.00189045
0.156885
-0.00163711
0.154301
-0.00555293
0.151427
-0.0100039
0.148218
-0.0148609
0.14464
-0.0199361
0.140705
-0.0250231
0.136466
-0.0298305
0.132024
-0.0340036
0.127523
-0.0371673
0.123144
-0.0389657
0.119088
-0.039118
0.115477
-0.0373992
0.112293
-0.0336656
0.109433
-0.0279586
0.106804
-0.0204619
0.104434
-0.0113452
0.102779
-0.00108921
0.10199
0.0112911
0.103227
0.0238361
0.10677
0.0370711
0.112587
0.0493225
0.120178
0.0578989
0.128642
0.0601629
0.136979
0.0536348
0.144319
0.0349213
0.149464
0.00272532
0.151555
-0.038495
0.15037
-0.0782412
0.147134
-0.109351
0.143297
-0.128927
0.139869
-0.13733
0.13732
-0.136763
0.135779
-0.129289
0.135246
-0.117096
0.135733
-0.1011
0.137261
-0.0824848
0.139579
-0.0614352
0.142118
-0.039987
0.14437
-0.0194195
0.146379
-0.00224886
0.148528
0.0107242
0.151294
0.018105
0.154766
0.0199464
0.158637
0.0160293
0.16241
0.00848689
0.165666
-0.00136478
0.168203
-0.0100228
0.169968
-0.0182577
0.171218
-0.0215405
0.171928
-0.025594
0.172569
-0.0224546
0.172894
-0.0235995
-0.0156416
0.17956
0.0155436
0.177713
0.0147451
0.175813
0.0134553
0.173826
0.0117824
0.171709
0.00969003
0.169428
0.00725949
0.166948
0.00437064
0.164416
0.000894323
0.161542
-0.00267819
0.158311
-0.00677311
0.154714
-0.0112643
0.150768
-0.0159896
0.146518
-0.0207734
0.14205
-0.0253629
0.137497
-0.0294502
0.133026
-0.0326968
0.128823
-0.0347619
0.125053
-0.0353488
0.121863
-0.034209
0.119371
-0.0311736
0.1176
-0.0261871
0.116445
-0.019307
0.115803
-0.0107042
0.115352
-0.000637874
0.115963
0.0106803
0.117493
0.0223065
0.120591
0.033973
0.125416
0.0444967
0.13167
0.0516453
0.138681
0.0531517
0.145617
0.0466994
0.15138
0.0291582
0.154815
-0.000710367
0.154603
-0.0382826
0.151549
-0.0751871
0.147023
-0.104825
0.142361
-0.124265
0.13837
-0.133339
0.135434
-0.133826
0.133669
-0.127525
0.133058
-0.116485
0.133551
-0.101593
0.135154
-0.0840884
0.137752
-0.0640332
0.14094
-0.0431749
0.14418
-0.0226596
0.147231
-0.00530019
0.15021
0.00774584
0.15339
0.0149246
0.156856
0.0164802
0.160413
0.0124723
0.163727
0.00517324
0.166522
-0.00415955
0.168699
-0.0122002
0.170264
-0.019822
0.171453
-0.0227295
0.17225
-0.0263916
0.173067
-0.0232712
0.173681
-0.0242132
-0.0164822
0.195437
0.0166903
-0.196583
0.194806
0.0153753
0.194138
0.0141235
0.19348
0.0124404
0.19283
0.0103404
0.192195
0.007894
0.191502
0.00506379
0.190457
0.00193909
0.189354
-0.00157455
0.188028
-0.00544758
0.186344
-0.00958016
0.184254
-0.0138991
0.181699
-0.018219
0.178649
-0.0223126
0.175114
-0.0259158
0.171153
-0.0287357
0.166864
-0.0304725
0.162369
-0.0308536
0.157805
-0.0296454
0.153307
-0.0266753
0.148982
-0.0218626
0.14491
-0.0152346
0.141195
-0.00698877
0.137847
0.00271011
0.135184
0.013343
0.133481
0.0240094
0.133348
0.034106
0.135388
0.0424567
0.139888
0.0471451
0.146703
0.0463375
0.155393
0.0380094
0.164762
0.0197892
0.172822
-0.00877054
0.177575
-0.0430362
0.178509
-0.076121
0.176217
-0.102533
0.171783
-0.119831
0.166305
-0.127862
0.160679
-0.1282
0.155514
-0.12236
0.151162
-0.112132
0.147808
-0.0982389
0.145593
-0.0818736
0.144604
-0.0630444
0.144726
-0.0432972
0.145641
-0.0235746
0.1471
-0.00675832
0.148933
0.0059127
0.151186
0.0126712
0.153728
0.0139387
0.156257
0.00994248
0.158409
0.00302139
0.159927
-0.00567775
0.160755
-0.0130282
0.160929
-0.0199959
0.16071
-0.0225106
0.160126
-0.0258072
0.159566
-0.0227109
0.158872
-0.0235195
-0.0160412
0.208279
0.0168406
-0.208429
0.208151
0.0155037
0.208127
0.0141467
0.208019
0.0125486
0.20776
0.0105993
0.207348
0.00830649
0.206709
0.00570278
0.205867
0.00278123
0.20478
-0.000488052
0.203359
-0.00402649
0.201558
-0.00777926
0.199324
-0.011665
0.19663
-0.0155248
0.193475
-0.0191573
0.189891
-0.0223323
0.18595
-0.0247949
0.181759
-0.0262807
0.177447
-0.0265421
0.173165
-0.0253636
0.169067