/*--------------------------------*- C++ -*----------------------------------*\
| =========                 |                                                 |
| \\      /  F ield         | OpenFOAM: The Open Source CFD Toolbox           |
|  \\    /   O peration     | Version:  2512                                  |
|   \\  /    A nd           | Website:  www.openfoam.com                      |
|    \\/     M anipulation  |                                                 |
\*---------------------------------------------------------------------------*/
FoamFile
{
    version     2.0;
    format      ascii;
    arch        "LSB;label=32;scalar=64";
    class       volVectorField;
    location    "66.25";
    object      U;
}
// * * * * * * * * * * * * * * * * * * * * * * * * * * * * * * * * * * * * * //

dimensions      [0 1 -1 0 0 0 0];

internalField   nonuniform List<vector> 
13248
(
(-0.0121448 0.0117189 7.31831e-20)
(-0.0206533 0.0236608 0)
(-0.014469 0.0286718 -1.38625e-19)
(0.00496592 0.0288298 1.30585e-19)
(0.0367599 0.0259165 1.22666e-19)
(0.0803204 0.0213893 0)
(0.135119 0.0163569 0)
(0.200504 0.0116439 2.98205e-19)
(0.275517 0.00784779 -1.47967e-21)
(0.358745 0.0053718 -2.60413e-19)
(0.448255 0.00444286 2.40109e-19)
(0.54163 0.0051241 -1.50083e-19)
(0.636101 0.00732934 0)
(0.728748 0.0108452 -2.49823e-19)
(0.816739 0.0153628 4.62674e-19)
(0.897561 0.0205172 -1.09869e-19)
(0.969211 0.0259315 -1.87438e-19)
(1.03033 0.031244 1.75964e-19)
(1.08027 0.0361987 0)
(1.11901 0.0404228 0)
(1.14739 0.0442673 0)
(1.16574 0.0461041 0)
(1.17765 0.0498195 4.7758e-20)
(1.17954 0.0452821 1.65277e-19)
(-0.0111998 0.00969176 -2.21051e-19)
(-0.014918 0.0181107 1.50737e-19)
(-0.000815249 0.0208555 -1.14725e-21)
(0.0294014 0.0198962 -1.99444e-19)
(0.0746078 0.016962 -1.22533e-19)
(0.13388 0.0134933 -1.1593e-19)
(0.206137 0.0105664 -2.13849e-19)
(0.289897 0.00893489 2.01837e-19)
(0.383085 0.00906565 0)
(0.482965 0.0111535 1.19497e-21)
(0.586221 0.0151384 2.3268e-21)
(0.689183 0.0207381 1.49275e-19)
(0.78815 0.0275009 0)
(0.879736 0.0348755 0)
(0.961179 0.0422878 1.67144e-19)
(1.03055 0.0492141 -3.13822e-19)
(1.08689 0.0552391 1.82348e-19)
(1.13014 0.0600903 -1.71196e-19)
(1.1611 0.063655 -7.39128e-20)
(1.18124 0.065936 -1.30828e-19)
(1.19231 0.0671806 -5.24363e-20)
(1.19655 0.0671656 -9.73222e-20)
(1.19559 0.0678124 1.46247e-19)
(1.19077 0.0640829 4.12042e-20)
(-0.00930733 0.0073927 0)
(-0.0058262 0.0119013 0)
(0.0189699 0.0124061 7.05775e-20)
(0.0629424 0.0107546 6.52142e-20)
(0.124519 0.00860611 -1.35259e-21)
(0.202099 0.00734365 -1.18986e-19)
(0.29357 0.00791234 0)
(0.396049 0.0108342 -1.00382e-19)
(0.505817 0.0162328 9.37722e-20)
(0.618468 0.0238624 1.1214e-22)
(0.729282 0.0331704 -1.59586e-19)
(0.833703 0.0433987 -1.44879e-19)
(0.927826 0.0537094 3.73003e-21)
(1.00878 0.0633126 -1.1647e-19)
(1.07494 0.0715713 2.82193e-19)
(1.12595 0.07807 0)
(1.16262 0.0826387 -1.76993e-19)
(1.18662 0.0853304 8.62887e-20)
(1.20019 0.0863895 7.38466e-20)
(1.20577 0.086121 0)
(1.20576 0.0850418 5.87834e-20)
(1.20211 0.0831052 -2.00361e-19)
(1.19643 0.0818977 1.88085e-19)
(1.1902 0.0775482 1.16068e-19)
(-0.00614742 0.00487832 -7.79054e-20)
(0.00748086 0.0054032 -8.04306e-20)
(0.0461741 0.00414871 7.29584e-20)
(0.107092 0.00272748 0)
(0.187821 0.00263568 0)
(0.285542 0.00506976 -2.05319e-21)
(0.396464 0.0106419 0)
(0.515727 0.0193799 -3.03946e-19)
(0.637652 0.0307914 2.81984e-19)
(0.756294 0.0439767 -3.47932e-19)
(0.866145 0.0578005 7.95861e-20)
(0.962784 0.0710964 0)
(1.04333 0.0828559 1.30029e-19)
(1.10662 0.0923655 -2.39844e-19)
(1.15308 0.0992696 5.70656e-20)
(1.18441 0.10356 1.42978e-19)
(1.20314 0.105508 -8.00478e-21)
(1.21217 0.105562 -1.58321e-19)
(1.21429 0.10424 0)
(1.21195 0.102035 0)
(1.20703 0.0994208 -5.48614e-20)
(1.20084 0.0964538 4.88378e-20)
(1.19431 0.094301 1.72209e-19)
(1.18764 0.0896357 -1.61674e-19)
(-0.00133232 0.00222549 -8.17311e-20)
(0.025895 -0.000943339 -8.1511e-20)
(0.0819137 -0.00299587 2.29404e-19)
(0.162794 -0.0027804 -1.39449e-19)
(0.264704 0.000831776 1.3126e-19)
(0.382895 0.00860047 2.3897e-19)
(0.51126 0.0204893 -1.68587e-19)
(0.64265 0.0357128 -2.04452e-19)
(0.769674 0.0529382 4.46928e-21)
(0.885683 0.0705651 2.61863e-19)
(0.985652 0.0870347 0)
(1.0667 0.101098 7.12833e-20)
(1.12816 0.111981 0)
(1.17129 0.119423 -1.14892e-19)
(1.1987 0.123615 1.61372e-19)
(1.21366 0.125056 1.45785e-21)
(1.21956 0.124397 -4.17048e-20)
(1.21941 0.122299 7.72015e-20)
(1.2156 0.119334 6.64863e-20)
(1.20982 0.11594 -5.92657e-20)
(1.2032 0.112429 5.48477e-20)
(1.19637 0.108864 -4.88252e-20)
(1.18963 0.105897 0)
(1.18328 0.101091 -3.71252e-20)
(0.00554099 -0.000419717 8.17194e-20)
(0.0502041 -0.0065476 8.5531e-20)
(0.126905 -0.00795447 -7.6802e-20)
(0.23012 -0.0042982 1.42987e-19)
(0.353874 0.00483873 -1.34583e-19)
(0.490782 0.0193958 1.2174e-19)
(0.63207 0.0383066 -5.83381e-20)
(0.768612 0.0597191 1.53554e-19)
(0.892312 0.0814451 -9.63195e-20)
(0.997297 0.101429 1.69887e-19)
(1.08055 0.118118 -3.91335e-19)
(1.14185 0.130659 1.43376e-19)
(1.18326 0.138898 -1.24718e-19)
(1.20823 0.143236 1.17147e-19)
(1.22074 0.144406 1.00185e-19)
(1.22457 0.143254 8.71976e-20)
(1.2229 0.140568 -2.42598e-19)
(1.21808 0.136985 1.50199e-19)
(1.21169 0.13296 -6.64879e-20)
(1.2047 0.12879 1.72531e-19)
(1.19764 0.124648 -5.57292e-20)
(1.19078 0.120584 -1.34652e-19)
(1.18425 0.116943 1.24149e-19)
(1.1781 0.112046 3.71127e-20)
(0.0148298 -0.00281239 0)
(0.0809424 -0.0106298 6.16747e-22)
(0.181254 -0.00950395 1.59766e-19)
(0.308047 -0.000374006 -1.49952e-19)
(0.452473 0.0159796 -1.35264e-19)
(0.604074 0.03821 2.51354e-19)
(0.751697 0.0639095 -1.16709e-19)
(0.885341 0.0901483 1.55411e-19)
(0.997843 0.114199 -3.5073e-21)
(1.08572 0.134074 -8.78707e-20)
(1.14904 0.148769 1.91164e-19)
(1.19055 0.158212 -2.81632e-19)
(1.21453 0.163016 0)
(1.22564 0.164157 -5.48568e-20)
(1.22812 0.162685 -1.45833e-19)
(1.22534 0.159526 4.59604e-20)
(1.21969 0.155393 1.95325e-21)
(1.21271 0.150778 -9.91846e-20)
(1.2053 0.145988 6.73915e-21)
(1.19794 0.141202 1.1449e-19)
(1.19087 0.136514 -5.06155e-20)
(1.18416 0.131972 -1.92114e-20)
(1.17781 0.127693 5.94456e-20)
(1.17182 0.12268 0)
(0.0267859 -0.00460671 0)
(0.118247 -0.0122416 4.32892e-20)
(0.244282 -0.0063448 -2.07917e-19)
(0.394379 0.0102781 7.56031e-20)
(0.556298 0.0350685 -7.11553e-20)
(0.716675 0.06498 -6.4874e-20)
(0.863075 0.0962077 -1.14784e-19)
(0.98637 0.125097 5.72654e-20)
(1.08205 0.148988 4.9887e-20)
(1.1501 0.166569 0)
(1.19384 0.177782 1.13097e-19)
(1.21834 0.18344 -1.67798e-19)
(1.22905 0.184788 1.24914e-19)
(1.23074 0.183113 5.48846e-20)
(1.22712 0.179519 -4.46581e-20)
(1.22073 0.174827 -3.70485e-20)
(1.21315 0.169589 -3.44907e-20)
(1.20527 0.164143 1.03748e-19)
(1.19756 0.158681 0)
(1.1902 0.153307 5.16641e-20)
(1.18327 0.148076 4.31956e-20)
(1.17675 0.143019 -1.07531e-19)
(1.17059 0.138127 -7.32236e-20)
(1.16475 0.132971 6.7707e-20)
(0.0415038 -0.00537575 -4.6461e-20)
(0.161751 -0.010342 -1.60247e-21)
(0.314457 0.00275532 4.22344e-20)
(0.485865 0.0285885 1.17761e-19)
(0.660343 0.0622693 3.41778e-20)
(0.82258 0.0988823 -6.60758e-20)
(0.960645 0.133562 6.04386e-20)
(1.06814 0.162606 -5.30467e-20)
(1.14437 0.184112 9.48618e-20)
(1.19295 0.197888 4.03754e-20)
(1.21977 0.204922 -1.1443e-19)
(1.23115 0.206759 3.37097e-20)
(1.23263 0.204992 5.73125e-20)
(1.22841 0.200965 -2.82532e-20)
(1.22133 0.195659 0)
(1.21311 0.189721 4.18218e-20)
(1.20467 0.183536 7.04513e-20)
(1.19649 0.177322 1.18413e-20)
(1.18875 0.171192 -5.85746e-20)
(1.18152 0.165209 2.44051e-20)
(1.17476 0.159403 0)
(1.16842 0.153783 -1.90888e-20)
(1.16244 0.148298 -1.8014e-20)
(1.15672 0.142924 0)
(0.0588721 -0.00464972 0)
(0.210509 -0.00391553 2.43112e-20)
(0.389424 0.0187857 4.4919e-20)
(0.578526 0.0549686 -1.1982e-19)
(0.759519 0.0970753 3.86308e-20)
(0.916852 0.13856 0)
(1.04109 0.174214 5.81032e-20)
(1.12994 0.201085 -8.10753e-20)
(1.18679 0.218568 -4.73025e-20)
(1.21826 0.227734 2.14172e-20)
(1.23172 0.230469 -3.39869e-20)
(1.23372 0.228762 8.26831e-20)
(1.22922 0.224291 4.12865e-20)
(1.22152 0.218276 -2.8813e-20)
(1.21261 0.211507 -2.80023e-21)
(1.20353 0.204447 -7.81645e-20)
(1.19478 0.19735 3.55506e-20)
(1.18658 0.190348 -9.15163e-22)
(1.17895 0.183508 0)
(1.1719 0.176867 -2.44305e-20)
(1.16535 0.17044 0)
(1.15922 0.164211 5.49808e-20)
(1.15342 0.158156 -6.53565e-20)
(1.14784 0.152472 2.97516e-20)
(0.0785392 -0.00196174 -1.2604e-20)
(0.263001 0.00790588 -6.1036e-20)
(0.466171 0.042344 6.93432e-20)
(0.668108 0.0892362 4.07607e-20)
(0.849337 0.138421 -1.94947e-20)
(0.99615 0.182416 3.27025e-20)
(1.10326 0.216596 -1.59031e-20)
(1.17299 0.239451 2.64641e-20)
(1.21236 0.251916 0)
(1.22993 0.256217 5.98136e-20)
(1.23354 0.254849 -2.50727e-21)
(1.22924 0.249963 -4.81924e-20)
(1.22108 0.24313 2.0596e-20)
(1.21146 0.235361 -2.31676e-20)
(1.20166 0.227243 -8.74664e-21)
(1.19227 0.219088 1.01898e-20)
(1.1835 0.211053 -7.81081e-21)
(1.17541 0.203215 -4.23405e-20)
(1.16799 0.195613 2.5927e-20)
(1.16118 0.188268 5.28219e-21)
(1.15488 0.181179 4.64115e-21)
(1.14899 0.174315 4.07963e-21)
(1.14341 0.167719 0)
(1.13798 0.16161 0)
(0.0999733 0.00311601 1.26127e-20)
(0.317333 0.0257506 -1.26178e-20)
(0.541459 0.0735434 -2.30842e-20)
(0.750704 0.13064 0)
(0.926448 0.184878 -9.66586e-21)
(1.05878 0.228877 -8.68008e-21)
(1.14751 0.259493 -1.48764e-20)
(1.19936 0.277076 0)
(1.22401 0.284074 0)
(1.23093 0.283593 0)
(1.22766 0.278437 0)
(1.21936 0.270699 0)
(1.20912 0.261735 -1.29008e-20)
(1.19857 0.252327 5.86814e-21)
(1.18846 0.242883 1.01868e-20)
(1.17907 0.233601 4.76264e-21)
(1.17046 0.224572 1.17305e-20)
(1.16263 0.215837 0)
(1.15551 0.207419 -2.79239e-21)
(1.14902 0.199324 -2.66892e-21)
(1.14304 0.191533 -4.64853e-21)
(1.13747 0.184023 -4.08614e-21)
(1.13218 0.176911 0)
(1.12701 0.170264 2.90942e-21)
(-0.000904792 -0.0112412 7.6272e-21)
(-0.00530551 -0.0309159 -7.92145e-21)
(-0.0139642 -0.0480221 -1.50046e-20)
(-0.0248768 -0.0623857 0)
(-0.0369097 -0.0741415 -2.00794e-20)
(-0.0494514 -0.0836957 6.29964e-21)
(-0.0620541 -0.0915925 -1.1909e-20)
(-0.0743914 -0.0983904 0)
(-0.0862445 -0.104573 0)
(-0.0974741 -0.110494 0)
(-0.107995 -0.116365 0)
(-0.117755 -0.122262 0)
(-0.126724 -0.128153 1.53623e-23)
(-0.134876 -0.133925 -7.80494e-21)
(-0.142188 -0.139407 1.46366e-20)
(-0.148637 -0.144386 2.06416e-20)
(-0.154195 -0.148616 6.39063e-21)
(-0.158838 -0.151822 0)
(-0.16256 -0.153705 5.72134e-21)
(-0.16538 -0.153953 -1.59268e-20)
(-0.167338 -0.152254 -9.86042e-21)
(-0.168446 -0.148287 -9.20048e-21)
(-0.16884 -0.141661 0)
(-0.169362 -0.132045 0)
(-0.000760521 -0.0070681 -2.29285e-20)
(-0.00508302 -0.021128 3.95689e-20)
(-0.0140827 -0.0345913 -1.49417e-20)
(-0.025523 -0.0466826 -2.84009e-20)
(-0.0381477 -0.0571485 4.01195e-20)
(-0.0512863 -0.0661254 -2.52946e-20)
(-0.0644517 -0.0739538 3.56984e-20)
(-0.0772936 -0.0810401 2.25126e-20)
(-0.0895837 -0.0877557 0)
(-0.101182 -0.0943776 -1.98928e-20)
(-0.112009 -0.101065 -3.03539e-23)
(-0.122018 -0.107867 1.75874e-20)
(-0.131184 -0.114739 2.48393e-20)
(-0.139488 -0.121567 3.10438e-20)
(-0.14691 -0.128184 -1.46831e-20)
(-0.153427 -0.13438 -4.1042e-20)
(-0.159014 -0.139909 1.25992e-20)
(-0.163645 -0.144482 -4.7539e-20)
(-0.167315 -0.14777 0)
(-0.170058 -0.149407 1.05435e-20)
(-0.171919 -0.149003 9.84879e-21)
(-0.172826 -0.146134 9.18949e-21)
(-0.172867 -0.140311 0)
(-0.173706 -0.13119 0)
(-0.00113298 -0.00254157 0)
(-0.005858 -0.0105747 7.965e-20)
(-0.0151545 -0.0201938 -3.00454e-20)
(-0.0267647 -0.0299507 2.84505e-20)
(-0.0394229 -0.0391483 -8.07139e-20)
(-0.0524566 -0.0476091 0)
(-0.0653744 -0.0554381 -4.79054e-20)
(-0.0778227 -0.0628683 2.25663e-20)
(-0.0895721 -0.07015 -4.26297e-20)
(-0.100484 -0.077481 2.0163e-20)
(-0.11048 -0.0849746 1.128e-19)
(-0.119518 -0.0926577 -5.29616e-20)
(-0.127573 -0.100483 -8.26223e-20)
(-0.134627 -0.108343 -3.07901e-20)
(-0.14066 -0.116084 3.08379e-22)
(-0.145648 -0.123512 1.08126e-19)
(-0.149558 -0.13039 -5.05814e-20)
(-0.152354 -0.136429 3.61997e-22)
(-0.154009 -0.141285 0)
(-0.154539 -0.144541 -3.95398e-20)
(-0.153962 -0.14571 0)
(-0.152095 -0.144224 -3.38104e-20)
(-0.148802 -0.139456 1.24035e-19)
(-0.146471 -0.131026 -1.26707e-21)
(-0.00201535 0.0019951 0)
(-0.0076011 1.94282e-05 2.93248e-22)
(-0.0171117 -0.00573083 3.04961e-20)
(-0.0284872 -0.0131547 -2.88732e-20)
(-0.0405685 -0.0211071 2.68369e-20)
(-0.0527404 -0.0290823 1.53618e-19)
(-0.0645422 -0.0369362 -4.81532e-20)
(-0.0756353 -0.0447189 -4.56483e-20)
(-0.0857969 -0.0525541 8.55714e-20)
(-0.0948897 -0.0605595 -1.20486e-19)
(-0.102833 -0.0688036 3.79142e-20)
(-0.109582 -0.0772946 3.55823e-20)
(-0.115109 -0.0859841 0)
(-0.119393 -0.0947761 3.09959e-20)
(-0.122416 -0.103535 0)
(-0.124156 -0.112089 5.38501e-20)
(-0.124583 -0.120227 -9.91093e-20)
(-0.123663 -0.12769 2.48307e-20)
(-0.121357 -0.134153 8.58505e-20)
(-0.117657 -0.139201 3.95049e-20)
(-0.112578 -0.142288 0)
(-0.105881 -0.142684 -9.64575e-20)
(-0.096939 -0.139463 3.10532e-20)
(-0.0880071 -0.131898 0)
(-0.00333369 0.00620569 0)
(-0.0101601 0.00994266 -9.7033e-20)
(-0.0197623 0.00791085 -3.10275e-20)
(-0.0304703 0.00275691 -5.80121e-20)
(-0.0413339 -0.00397205 5.46274e-20)
(-0.0518452 -0.011459 -5.13617e-20)
(-0.061606 -0.019316 9.74228e-20)
(-0.0703076 -0.0274114 4.57454e-20)
(-0.0777371 -0.0357434 -1.29224e-19)
(-0.0837551 -0.0443457 8.11094e-20)
(-0.088272 -0.053238 -1.14025e-19)
(-0.0912299 -0.0624088 2.50239e-19)
(-0.0925903 -0.0718047 -1.33897e-19)
(-0.0923264 -0.081335 6.25915e-20)
(-0.0904181 -0.0908766 1.73568e-19)
(-0.086852 -0.100276 -5.53086e-20)
(-0.0816202 -0.109349 -5.15512e-20)
(-0.0747183 -0.117876 -4.67815e-20)
(-0.0661421 -0.125585 0)
(-0.0559105 -0.132131 -7.50738e-20)
(-0.0441101 -0.137032 -6.50118e-20)
(-0.0306712 -0.139514 9.64711e-20)
(-0.0145652 -0.13822 1.08947e-19)
(0.00424112 -0.131343 -1.0164e-19)
(-0.00495789 0.00980287 0)
(-0.0132764 0.0185675 -1.31744e-19)
(-0.0228037 0.0199293 -7.09776e-22)
(-0.0323908 0.0169071 1.17093e-19)
(-0.0413708 0.011363 0)
(-0.0493818 0.00438127 0)
(-0.0561094 -0.00342918 0)
(-0.0612879 -0.0117655 -4.6123e-20)
(-0.0647112 -0.0205005 -2.41915e-23)
(-0.0662247 -0.0295825 8.20463e-20)
(-0.0657226 -0.0389809 -1.1459e-19)
(-0.0631253 -0.0486563 2.0039e-22)
(-0.05837 -0.0585393 0)
(-0.0514149 -0.0685319 -6.25635e-20)
(-0.0422371 -0.0785073 5.77288e-20)
(-0.0308357 -0.088311 -1.63011e-19)
(-0.0172356 -0.0977631 1.9809e-19)
(-0.00148887 -0.106658 4.19576e-20)
(0.0163277 -0.114762 -5.33888e-21)
(0.0361068 -0.121814 -1.5369e-19)
(0.0576578 -0.127491 -6.74879e-20)
(0.0808045 -0.131233 2.0822e-19)
(0.106263 -0.1316 -1.35948e-19)
(0.137714 -0.125439 0)
(-0.00672221 0.012578 6.48667e-20)
(-0.016614 0.0254047 6.60543e-20)
(-0.0258414 0.0296617 -6.34376e-20)
(-0.033831 0.0285357 -1.19031e-19)
(-0.0402344 0.0240907 1.12082e-19)
(-0.0448552 0.0176173 -1.05917e-19)
(-0.047474 0.00990967 1.49847e-19)
(-0.0478686 0.00142362 -4.61041e-20)
(-0.0458413 -0.00759451 8.83343e-20)
(-0.0412191 -0.0170104 0)
(-0.033863 -0.0267432 7.80166e-20)
(-0.0236663 -0.0367079 -1.46804e-19)
(-0.0105423 -0.0468083 1.35518e-19)
(0.00555915 -0.0569256 -1.27284e-19)
(0.0246484 -0.066913 0)
(0.0466866 -0.0765961 1.08594e-19)
(0.0715795 -0.085774 1.97387e-19)
(0.0991732 -0.0942232 -1.85159e-19)
(0.129252 -0.101706 -8.29243e-20)
(0.161545 -0.107979 -7.17264e-20)
(0.195673 -0.112816 2.0491e-19)
(0.231439 -0.115908 5.52619e-20)
(0.267386 -0.116643 -5.53583e-20)
(0.316482 -0.110215 4.48582e-20)
(-0.00845234 0.01442 -6.48754e-20)
(-0.0198006 0.030141 2.03761e-19)
(-0.0284178 0.0366298 -6.42726e-20)
(-0.0342835 0.0370452 1.2076e-19)
(-0.0373639 0.0335391 -1.13708e-19)
(-0.0376273 0.0275388 6.36115e-22)
(-0.0349499 0.0199786 5.07815e-20)
(-0.0291523 0.0114409 1.91347e-19)
(-0.0200408 0.00227649 -8.75889e-23)
(-0.00743443 -0.00730182 -8.36427e-20)
(0.00883492 -0.0171443 0)
(0.0288973 -0.0271162 -7.34889e-20)
(0.0528232 -0.037087 1.37837e-19)
(0.0806239 -0.0469044 1.26873e-19)
(0.112231 -0.0563912 -5.98707e-20)
(0.147482 -0.0653448 1.87003e-22)
(0.186116 -0.0735393 -4.99953e-20)
(0.227771 -0.0807334 9.12497e-20)
(0.271985 -0.08668 8.28954e-20)
(0.318255 -0.091125 -7.47e-20)
(0.365726 -0.09393 6.62706e-20)
(0.415245 -0.0944767 -5.85749e-20)
(0.459305 -0.0942434 0)
(0.527844 -0.0852292 -4.4777e-20)
(-0.009991 0.01532 6.67243e-20)
(-0.0224627 0.0326566 -6.82833e-20)
(-0.0300321 0.040573 6.55029e-20)
(-0.0331476 0.0420509 0)
(-0.0320535 0.0392336 0)
(-0.0268663 0.0336169 1.10082e-19)
(-0.0175496 0.0262292 -1.02285e-19)
(-0.00396767 0.0177498 9.66994e-20)
(0.0140597 0.00861919 -4.52314e-19)
(0.0367137 -0.000868174 2.51738e-22)
(0.0641405 -0.0104906 7.96874e-20)
(0.0964211 -0.0200658 0)
(0.133534 -0.029414 -1.37539e-19)
(0.175333 -0.0383447 2.56644e-19)
(0.221528 -0.0466525 -1.78969e-19)
(0.271674 -0.0541176 -2.70643e-19)
(0.325175 -0.0605123 5.54279e-21)
(0.381299 -0.0656105 1.84783e-19)
(0.439186 -0.0692083 0)
(0.498072 -0.0710446 0)
(0.556183 -0.071335 -6.62563e-20)
(0.616401 -0.0685402 5.85617e-20)
(0.663954 -0.0668941 -1.97179e-19)
(0.744222 -0.0545233 1.85049e-19)
(-0.0112148 0.0153567 0)
(-0.0242449 0.0330137 0)
(-0.0301391 0.0414607 -1.97613e-19)
(-0.0296999 0.0434248 6.27245e-20)
(-0.0233904 0.04097 7.70649e-23)
(-0.0114519 0.0356101 1.11391e-19)
(0.00607431 0.0284278 0)
(0.0292719 0.0201733 -9.76113e-20)
(0.0582746 0.0113639 9.08359e-20)
(0.0931974 0.00236985 -1.71149e-19)
(0.134072 -0.0065239 4.95728e-22)
(0.180791 -0.0150774 1.4853e-19)
(0.233063 -0.0230695 -1.57046e-21)
(0.290381 -0.0302875 1.25672e-19)
(0.352012 -0.0365257 -1.80397e-19)
(0.417013 -0.0415904 0)
(0.484262 -0.0453081 1.96237e-19)
(0.552516 -0.0475333 -2.75056e-19)
(0.620442 -0.0481839 8.12374e-20)
(0.686983 -0.0470497 0)
(0.749809 -0.0447345 6.497e-20)
(0.812428 -0.0391706 2.2477e-19)
(0.858414 -0.0360575 -2.10947e-19)
(0.934024 -0.021934 -2.18413e-19)
(-0.0120363 0.0146675 2.07436e-19)
(-0.024806 0.0314245 -2.85635e-19)
(-0.028121 0.0394927 2.9657e-22)
(-0.0230384 0.0413325 6.37338e-20)
(-0.0101801 0.038902 -1.1936e-19)
(0.0101178 0.0337045 -1.10767e-19)
(0.0377294 0.0268472 2.08834e-19)
(0.0726464 0.019129 -1.3111e-21)
(0.114871 0.0111288 -1.84097e-19)
(0.164314 0.00327801 3.43305e-19)
(0.220699 -0.00408821 -1.36702e-21)
(0.283489 -0.0106987 -1.50212e-19)
(0.351849 -0.0163303 0)
(0.424632 -0.0208023 0)
(0.500417 -0.0239793 -5.92677e-20)
(0.577575 -0.0257754 -1.07727e-19)
(0.654365 -0.0261565 -1.9428e-19)
(0.729046 -0.025146 1.82369e-19)
(0.799984 -0.0228186 -8.12664e-20)
(0.865848 -0.0192193 1.41252e-19)
(0.925031 -0.0148343 -7.18971e-20)
(0.979249 -0.0083909 1.05071e-19)
(1.01869 -0.00430553 -2.5971e-19)
(1.07508 0.00899661 4.45413e-20)
(-0.0123776 0.0134074 7.01599e-20)
(-0.0237679 0.028195 0)
(-0.0232295 0.0350624 1.36397e-19)
(-0.012008 0.0362487 -1.2849e-19)
(0.00915071 0.0336122 1.19466e-19)
(0.0398181 0.0286303 0)
(0.0797401 0.0224157 0)
(0.128707 0.015794 -9.86594e-20)
(0.186408 0.00937899 1.07035e-21)
(0.25229 0.00362722 8.70067e-20)
(0.325451 -0.00112688 -7.96099e-20)
(0.404586 -0.00465182 1.50295e-19)
(0.487989 -0.00681044 0)
(0.57363 -0.00755594 2.52613e-19)
(0.659268 -0.00692728 -4.68639e-19)
(0.742618 -0.00504112 3.25092e-19)
(0.821506 -0.00207436 1.91377e-19)
(0.894026 0.00173685 -1.79652e-19)
(0.958704 0.00618733 0)
(1.01443 0.0109041 0)
(1.06094 0.0159228 0)
(1.09812 0.0206818 0)
(1.12526 0.0247013 5.04394e-20)
(1.15356 0.0320127 -1.74378e-19)
(-0.171408 -0.117776 -5.88391e-21)
(-0.171534 -0.0959169 5.90498e-21)
(-0.170206 -0.0670344 -1.69778e-22)
(-0.167148 -0.0308995 0)
(-0.162151 0.0127616 -5.3441e-21)
(-0.155159 0.0635496 1.03063e-20)
(-0.145862 0.12038 -1.24693e-22)
(-0.134099 0.181525 -4.709e-21)
(-0.120033 0.244707 0)
(-0.104024 0.307184 0)
(-0.0864004 0.365695 -2.13987e-22)
(-0.0673299 0.416935 -1.96598e-22)
(-0.0462295 0.456903 -3.12283e-21)
(-0.0213171 0.481616 2.85822e-21)
(0.0100002 0.4861 0)
(0.0504396 0.464822 0)
(0.101854 0.413503 2.74004e-21)
(0.163612 0.330942 1.7245e-22)
(0.232478 0.220284 -2.56804e-21)
(0.304063 0.0872531 -1.88509e-22)
(0.375536 -0.0596804 0)
(0.445147 -0.20763 0)
(0.509143 -0.337764 0)
(0.561695 -0.43331 0)
(0.598129 -0.488283 0)
(0.618396 -0.507164 0)
(0.623743 -0.503211 3.21205e-22)
(0.608234 -0.498618 -5.19531e-22)
(0.566217 -0.507854 0)
(0.511274 -0.511831 0)
(0.475776 -0.462679 -5.08845e-22)
(0.483017 -0.328971 4.94544e-22)
(0.52847 -0.129916 2.6933e-22)
(0.593279 0.0817251 0)
(0.657268 0.25829 0)
(0.707049 0.376573 3.5587e-22)
(0.74219 0.433248 -3.45918e-22)
(0.762597 0.449466 0)
(0.753419 0.464918 2.36396e-22)
(0.710096 0.491507 -3.49522e-22)
(0.656404 0.48129 1.35121e-22)
(0.630624 0.374521 0)
(0.644333 0.173455 -3.39542e-22)
(0.683265 -0.0560367 3.30158e-22)
(0.726867 -0.237086 0)
(0.770669 -0.340962 0)
(0.787938 -0.388173 -8.05462e-23)
(0.767611 -0.425872 2.19969e-22)
(0.714701 -0.433536 0)
(0.667671 -0.373191 0)
(0.650099 -0.218119 -7.03572e-23)
(0.671435 -0.022127 7.64662e-24)
(0.707446 0.139138 -6.61348e-24)
(0.746686 0.263379 4.33806e-23)
(0.731983 0.313854 0)
(0.706026 0.366948 0)
(0.67262 0.284221 0)
(0.6646 0.187599 0)
(0.696423 0.0262522 0)
(0.743722 -0.108078 0)
(-0.178873 -0.117495 -5.14557e-22)
(-0.181642 -0.0973407 -2.12628e-20)
(-0.182819 -0.0703142 4.59884e-22)
(-0.182567 -0.0364284 1.95433e-20)
(-0.180267 0.00451081 2.72781e-22)
(-0.175802 0.0526405 0)
(-0.168662 0.10669 -1.64471e-20)
(-0.158153 0.165148 3.18967e-20)
(-0.14387 0.226007 -1.54479e-20)
(-0.12566 0.286703 1.35704e-20)
(-0.103149 0.343511 -1.2976e-20)
(-0.0761159 0.3935 1.16347e-20)
(-0.0437254 0.431009 -1.1278e-20)
(-0.00433365 0.45237 -3.32949e-22)
(0.0434158 0.452323 -1.1056e-20)
(0.100504 0.425914 1.07438e-20)
(0.166728 0.37016 -1.19919e-20)
(0.23964 0.285115 1.12615e-20)
(0.315142 0.174209 -1.30016e-20)
(0.389791 0.0425874 2.52739e-20)
(0.461936 -0.102985 -1.22756e-20)
(0.529758 -0.248543 -7.16064e-22)
(0.58855 -0.373559 -8.68547e-21)
(0.632302 -0.460389 1.53147e-20)
(0.657406 -0.504868 -6.68073e-21)
(0.665081 -0.514137 2.86059e-22)
(0.660048 -0.500409 3.48078e-21)
(0.640099 -0.483384 -2.24566e-22)
(0.596263 -0.481794 -5.7111e-21)
(0.533626 -0.486088 5.80517e-21)
(0.481352 -0.451698 -2.95571e-21)
(0.469646 -0.338304 4.16361e-22)
(0.501751 -0.154457 -2.69876e-22)
(0.560248 0.0513752 4.53078e-22)
(0.623804 0.230749 0)
(0.678816 0.355701 0)
(0.722602 0.419986 -1.1124e-21)
(0.749511 0.446518 8.29687e-22)
(0.743235 0.474127 7.47982e-22)
(0.702956 0.508113 2.3337e-22)
(0.656582 0.494991 -1.18162e-21)
(0.640816 0.377859 3.539e-22)
(0.662716 0.1667 0)
(0.705119 -0.0680917 0)
(0.745915 -0.250273 0)
(0.784759 -0.350113 0)
(0.798978 -0.387869 3.55429e-22)
(0.777638 -0.415952 -1.4176e-22)
(0.722505 -0.420301 0)
(0.673922 -0.364575 0)
(0.652394 -0.21853 0)
(0.671729 -0.0295392 -1.01072e-22)
(0.706639 0.130141 2.02317e-23)
(0.741963 0.260541 -9.91873e-23)
(0.725838 0.318193 0)
(0.6961 0.373256 0)
(0.669336 0.287924 5.62569e-23)
(0.663711 0.185248 1.72155e-22)
(0.698262 0.0188202 0)
(0.74906 -0.112969 0)
(-0.1515 -0.117975 -7.74851e-22)
(-0.15614 -0.0997681 -3.92835e-20)
(-0.158429 -0.0746486 3.65835e-20)
(-0.159627 -0.0430895 -3.42599e-20)
(-0.158472 -0.0048285 -2.74659e-22)
(-0.155081 0.0400002 0)
(-0.149101 0.0907688 -2.8569e-20)
(-0.139056 0.145734 2.79229e-20)
(-0.123919 0.203162 2.16515e-22)
(-0.103485 0.261316 3.43521e-22)
(-0.0763988 0.314998 3.27696e-22)
(-0.0428806 0.36137 3.56511e-22)
(-0.00205442 0.395811 -2.13279e-20)
(0.0482096 0.413899 2.10612e-20)
(0.107359 0.410365 0)
(0.175061 0.381038 7.21113e-22)
(0.249794 0.3238 -2.55692e-20)
(0.328328 0.239357 2.52365e-20)
(0.406698 0.13102 0)
(0.481807 0.00277498 0)
(0.552935 -0.139441 -2.61386e-20)
(0.61797 -0.281103 4.82914e-20)
(0.670354 -0.400185 -3.99424e-20)
(0.70406 -0.478563 3.9597e-21)
(0.717423 -0.513584 2.44994e-20)
(0.712949 -0.515105 -1.91965e-20)
(0.697187 -0.494908 1.41251e-20)
(0.672245 -0.468337 -1.23586e-21)
(0.628513 -0.455389 -5.27584e-21)
(0.562443 -0.456796 0)
(0.496595 -0.435217 0)
(0.46596 -0.343773 2.4679e-21)
(0.48275 -0.177919 -3.13299e-21)
(0.532842 0.0198828 -7.40904e-23)
(0.594768 0.200281 2.83358e-21)
(0.654339 0.33104 -2.75375e-21)
(0.705694 0.403589 0)
(0.738092 0.441693 2.52643e-22)
(0.73472 0.481885 2.29659e-21)
(0.698379 0.522905 -4.83228e-21)
(0.65999 0.506903 2.24007e-21)
(0.65382 0.380389 4.113e-22)
(0.683504 0.16062 -4.11146e-21)
(0.729624 -0.077988 3.16894e-21)
(0.767726 -0.260829 6.66918e-22)
(0.80081 -0.357567 4.9621e-22)
(0.811617 -0.386893 -3.56315e-22)
(0.789391 -0.405663 0)
(0.732085 -0.407008 0)
(0.682539 -0.356184 -7.87056e-22)
(0.657854 -0.219257 3.98977e-22)
(0.675099 -0.0372268 -3.56784e-22)
(0.707938 0.121367 5.47662e-22)
(0.738417 0.258144 6.64548e-22)
(0.721016 0.322926 -1.70367e-22)
(0.687477 0.379355 2.86322e-22)
(0.66733 0.290863 -2.62631e-22)
(0.665224 0.182468 1.57089e-22)
(0.702657 0.0109819 0)
(0.755565 -0.118129 0)
(-0.0907611 -0.118961 -7.41897e-20)
(-0.0975399 -0.10305 3.85083e-21)
(-0.100353 -0.0801285 6.65307e-20)
(-0.102136 -0.0510384 -5.09623e-22)
(-0.101623 -0.0156623 0)
(-0.0984303 0.0257942 0)
(-0.0923893 0.0733554 -4.82533e-20)
(-0.0823396 0.124133 1.22843e-21)
(-0.065712 0.177452 6.52017e-20)
(-0.0436003 0.230546 -6.61915e-22)
(-0.0147281 0.280243 -2.00563e-20)
(0.0232321 0.322518 -1.91884e-20)
(0.0700315 0.354164 1.92036e-20)
(0.126483 0.369485 0)
(0.191774 0.363743 -2.29015e-20)
(0.264658 0.333486 2.07917e-20)
(0.34284 0.277186 0)
(0.422894 0.195826 0)
(0.501095 0.0921169 2.87951e-20)
(0.575301 -0.0315257 3.66497e-22)
(0.645132 -0.169196 -2.66884e-20)
(0.707019 -0.306166 -2.39294e-20)
(0.752582 -0.418827 2.38213e-20)
(0.775616 -0.489104 -1.53213e-20)
(0.776945 -0.515694 3.64985e-21)
(0.761058 -0.510738 1.08108e-20)
(0.734883 -0.486628 8.72483e-22)
(0.704031 -0.454073 2.21368e-23)
(0.661278 -0.430457 0)
(0.596099 -0.42523 4.19333e-21)
(0.521188 -0.41262 -4.30767e-21)
(0.472461 -0.343575 3.40216e-22)
(0.472298 -0.199093 0)
(0.512033 -0.0120041 -3.8389e-22)
(0.570979 0.167303 4.88042e-21)
(0.633981 0.302985 -8.52365e-21)
(0.691441 0.384332 -2.60668e-22)
(0.72827 0.434835 -8.48281e-23)
(0.727872 0.487664 3.33943e-21)
(0.696263 0.53538 5.35179e-22)
(0.666185 0.516982 -5.88927e-21)
(0.669035 0.382464 4.95214e-21)
(0.706022 0.155694 -5.3187e-23)
(0.756074 -0.0857541 3.10191e-21)
(0.791985 -0.268847 -3.68449e-21)
(0.818725 -0.363383 -3.293e-21)
(0.825623 -0.385475 9.90708e-22)
(0.802617 -0.395189 9.32567e-22)
(0.743199 -0.393614 -1.664e-21)
(0.692998 -0.347936 1.11432e-21)
(0.665926 -0.22022 -3.64419e-22)
(0.681096 -0.0450375 3.51709e-22)
(0.711057 0.112981 2.8559e-22)
(0.736045 0.256212 -9.39992e-22)
(0.717477 0.328016 -3.78097e-24)
(0.680332 0.385247 -3.02727e-22)
(0.666641 0.292972 0)
(0.66896 0.179161 -1.35679e-22)
(0.709572 0.0028409 3.31869e-22)
(0.763314 -0.123426 0)
(0.00418169 -0.119154 6.93906e-20)
(-0.00664951 -0.105367 -1.3105e-19)
(-0.0114899 -0.0858098 6.11403e-20)
(-0.0149379 -0.0599645 5.24639e-20)
(-0.0154697 -0.0278521 -9.87716e-20)
(-0.0122111 0.00991186 2.6516e-21)
(-0.00664782 0.0525841 4.28924e-20)
(0.00272674 0.0989179 3.84278e-20)
(0.0191952 0.147709 -3.76627e-20)
(0.0422301 0.195479 0)
(0.0728855 0.241347 -3.54214e-20)
(0.112632 0.280475 7.08216e-20)
(0.161709 0.309049 -3.54264e-20)
(0.220224 0.322136 0)
(0.28725 0.315497 0)
(0.361054 0.286068 7.40572e-22)
(0.439035 0.232576 -5.42864e-20)
(0.517861 0.155909 5.27299e-20)
(0.594229 0.0579849 0)
(0.667028 -0.0596997 5.99268e-20)
(0.735753 -0.192249 -1.10656e-19)
(0.794537 -0.323539 1.00121e-19)
(0.832923 -0.428874 -8.63573e-20)
(0.844981 -0.491252 7.6213e-21)
(0.83427 -0.510961 5.26487e-20)
(0.808006 -0.501205 -2.2467e-20)
(0.772823 -0.475151 -4.3565e-22)
(0.735615 -0.440173 -4.28807e-21)
(0.693454 -0.408484 7.53392e-22)
(0.632409 -0.394307 3.62608e-21)
(0.553885 -0.385455 2.35925e-22)
(0.489438 -0.336913 -3.98026e-21)
(0.471145 -0.216433 8.21924e-21)
(0.498743 -0.0435608 -4.70798e-21)
(0.553138 0.132292 0)
(0.617938 0.271902 -4.27493e-21)
(0.679675 0.362296 4.1214e-21)
(0.719863 0.425607 -3.38205e-21)
(0.722601 0.49089 4.1994e-21)
(0.696427 0.545153 -5.58925e-22)
(0.674727 0.5253 0)
(0.686027 0.384542 -8.61751e-22)
(0.729762 0.151743 2.83334e-21)
(0.783894 -0.0915908 0)
(0.818292 -0.274257 6.55388e-21)
(0.838332 -0.367315 -2.83078e-21)
(0.840759 -0.38356 7.27154e-22)
(0.817118 -0.384595 4.9142e-22)
(0.755733 -0.380147 0)
(0.704794 -0.339871 0)
(0.675914 -0.22143 -8.32012e-22)
(0.689157 -0.0528596 1.27898e-21)
(0.715686 0.105083 -7.59611e-22)
(0.734825 0.254732 2.49728e-22)
(0.715156 0.333395 5.62511e-22)
(0.674854 0.390926 3.0302e-22)
(0.667296 0.294225 -6.6592e-22)
(0.674628 0.175219 0)
(0.718813 -0.00551881 -4.92792e-22)
(0.772307 -0.128745 -1.31776e-22)
(0.137585 -0.115675 6.65682e-20)
(0.121494 -0.104187 -6.59909e-20)
(0.110545 -0.0889571 4.54723e-22)
(0.102947 -0.0676442 -3.76994e-22)
(0.0980539 -0.03997 3.70775e-22)
(0.0973441 -0.00669761 -3.33589e-22)
(0.100831 0.0304228 5.43069e-22)
(0.108958 0.0722351 0)
(0.123678 0.116254 -4.73991e-22)
(0.145729 0.160108 4.61419e-22)
(0.175886 0.20171 4.6538e-22)
(0.21498 0.237281 -5.32889e-22)
(0.263359 0.262964 0)
(0.320861 0.274506 0)
(0.386453 0.268061 6.46814e-22)
(0.458275 0.240766 0)
(0.533778 0.191277 -7.94191e-22)
(0.609902 0.120128 0)
(0.684099 0.0282597 -5.76456e-20)
(0.755815 -0.0827187 1.14447e-19)
(0.823583 -0.209208 -1.09804e-19)
(0.87883 -0.333478 5.30866e-20)
(0.909376 -0.430591 3.93151e-20)
(0.910438 -0.485476 -3.81771e-20)
(0.888224 -0.500123 -2.35292e-20)
(0.852688 -0.487513 2.26564e-20)
(0.810354 -0.46091 0)
(0.767144 -0.426162 2.99667e-22)
(0.724358 -0.389751 0)
(0.669066 -0.366144 0)
(0.592505 -0.355708 4.96532e-21)
(0.516643 -0.323515 -5.08292e-21)
(0.479726 -0.228454 3.15635e-22)
(0.493331 -0.0738218 4.85756e-22)
(0.541512 0.0959103 -3.54404e-22)
(0.606072 0.238173 -3.18255e-21)
(0.670086 0.337513 3.09025e-21)
(0.712635 0.413613 -4.07404e-21)
(0.71869 0.490992 3.52911e-21)
(0.698495 0.552015 1.12392e-21)
(0.685162 0.532099 -6.4903e-21)
(0.704343 0.386812 -2.22277e-21)
(0.754356 0.149062 5.44466e-21)
(0.812626 -0.0955352 0)
(0.846194 -0.277112 -3.01927e-21)
(0.859453 -0.369219 2.61283e-21)
(0.856776 -0.38115 -3.57976e-21)
(0.832592 -0.374006 -4.94526e-22)
(0.769565 -0.366555 0)
(0.717491 -0.331882 2.37803e-22)