/*--------------------------------*- C++ -*----------------------------------*\
| =========                 |                                                 |
| \\      /  F ield         | OpenFOAM: The Open Source CFD Toolbox           |
|  \\    /   O peration     | Version:  2512                                  |
|   \\  /    A nd           | Website:  www.openfoam.com                      |
|    \\/     M anipulation  |                                                 |
\*---------------------------------------------------------------------------*/
FoamFile
{
    version     2.0;
    format      ascii;
    arch        "LSB;label=32;scalar=64";
    class       volVectorField;
    location    "10";
    object      U;
}
// * * * * * * * * * * * * * * * * * * * * * * * * * * * * * * * * * * * * * //

dimensions      [0 1 -1 0 0 0 0];

internalField   nonuniform List<vector> 
13248
(
(-0.0135408 0.0123215 7.78792e-20)
(-0.0260338 0.0271371 0)
(-0.0236001 0.0361074 -1.47056e-19)
(-0.00659489 0.0409279 1.38526e-19)
(0.0246873 0.042965 1.2938e-19)
(0.069995 0.0433102 0)
(0.129012 0.0428171 0)
(0.201214 0.0421507 3.12707e-19)
(0.285673 0.0417985 -6.37822e-22)
(0.380885 0.0420628 -2.7478e-19)
(0.484648 0.0430485 2.57846e-19)
(0.594061 0.0446635 -1.61478e-19)
(0.705652 0.0466385 0)
(0.815609 0.0485678 -2.852e-19)
(0.920089 0.04997 5.34725e-19)
(1.01555 0.0503566 -1.27644e-19)
(1.09904 0.0493064 -2.31184e-19)
(1.16849 0.0465023 2.17035e-19)
(1.22284 0.0418649 0)
(1.26208 0.0351543 0)
(1.28732 0.0274103 0)
(1.30003 0.015826 0)
(1.30281 0.0090049 6.51236e-20)
(1.29719 -0.0163359 2.33597e-19)
(-0.0135119 0.0108688 -2.35028e-19)
(-0.0214741 0.0215525 1.60119e-19)
(-0.0107203 0.0266509 -1.52822e-21)
(0.0179045 0.0284087 -2.11379e-19)
(0.0638543 0.0285231 -1.29242e-19)
(0.126569 0.0282808 -1.22182e-19)
(0.205156 0.0286003 -2.24587e-19)
(0.298121 0.0300878 2.12406e-19)
(0.40314 0.0330543 0)
(0.516968 0.0375124 4.76948e-22)
(0.635536 0.0431865 7.9196e-22)
(0.754239 0.0495552 1.6092e-19)
(0.868349 0.0559287 0)
(0.973481 0.0615521 0)
(1.06601 0.0657173 1.94684e-19)
(1.14342 0.0678633 -3.65953e-19)
(1.20447 0.0676484 2.20753e-19)
(1.24921 0.0649837 -2.0726e-19)
(1.27889 0.0600148 -9.13306e-20)
(1.29566 0.0530897 -1.68019e-19)
(1.3021 0.0446895 -6.93467e-20)
(1.30107 0.0351193 -1.30697e-19)
(1.29456 0.0265029 1.9156e-19)
(1.28582 0.0135686 5.43765e-20)
(-0.012477 0.00911693 0)
(-0.0132248 0.0157633 0)
(0.00929537 0.0178292 7.47521e-20)
(0.0534461 0.0178008 6.87973e-20)
(0.118049 0.0175595 -1.70599e-21)
(0.201698 0.0184945 -1.26281e-19)
(0.302212 0.0214666 0)
(0.416322 0.0268496 -1.05718e-19)
(0.539593 0.0345585 9.9682e-20)
(0.666648 0.0440879 6.47079e-22)
(0.791654 0.0545973 -1.71711e-19)
(0.908974 0.0650515 -1.58783e-19)
(1.01381 0.0743897 1.92002e-21)
(1.10268 0.0816921 -1.33944e-19)
(1.17376 0.0863102 3.19802e-19)
(1.22686 0.087937 0)
(1.26327 0.0866141 -2.10776e-19)
(1.28538 0.0826647 1.02628e-19)
(1.29617 0.0766377 9.12593e-20)
(1.29869 0.0690545 0)
(1.29573 0.0607992 7.50725e-20)
(1.28927 0.0515545 -2.56117e-19)
(1.28077 0.0442701 2.40433e-19)
(1.27178 0.0321541 1.50158e-19)
(-0.00989774 0.00689191 -8.29564e-20)
(-9.55269e-05 0.00951159 -8.57937e-20)
(0.03789 0.00949022 7.75879e-20)
(0.101312 0.00918303 0)
(0.18783 0.0104277 0)
(0.294451 0.0145147 -2.80119e-21)
(0.416859 0.0219959 0)
(0.549288 0.0327181 -3.23702e-19)
(0.684882 0.0459167 3.01219e-19)
(0.816439 0.0603745 -3.72616e-19)
(0.937348 0.0746536 8.58354e-20)
(1.04243 0.0873581 0)
(1.12849 0.0973681 1.44543e-19)
(1.1945 0.103992 -2.68363e-19)
(1.24141 0.107017 6.39832e-20)
(1.27163 0.10666 1.66202e-19)
(1.28848 0.103442 -6.4706e-21)
(1.29545 0.0980467 -1.8471e-19)
(1.2957 0.0911618 0)
(1.29174 0.0834108 0)
(1.28532 0.075296 -6.67723e-20)
(1.27748 0.0669579 5.99852e-20)
(1.26885 0.0598307 2.16073e-19)
(1.26011 0.0494231 -2.02857e-19)
(-0.00529708 0.00422923 -8.74385e-20)
(0.0189434 0.00299182 -8.71492e-20)
(0.076158 0.00204608 2.45113e-19)
(0.162098 0.00322134 -1.48757e-19)
(0.27256 0.0079949 1.40017e-19)
(0.402094 0.0172242 2.54547e-19)
(0.543484 0.0307709 -1.80029e-19)
(0.688182 0.0475967 -2.19674e-19)
(0.827364 0.0660388 3.91021e-21)
(0.953235 0.0841782 2.81706e-19)
(1.06012 0.10023 0)
(1.14507 0.112862 7.81574e-20)
(1.20785 0.121359 0)
(1.25045 0.125636 -1.29041e-19)
(1.27633 0.12611 1.81731e-19)
(1.28948 0.123499 1.99981e-21)
(1.29376 0.118624 -4.80393e-20)
(1.29232 0.112245 9.08291e-20)
(1.28749 0.10498 7.81769e-20)
(1.28077 0.097272 -7.03544e-20)
(1.27305 0.0894613 6.67581e-20)
(1.2648 0.0816006 -5.99716e-20)
(1.25627 0.0745659 0)
(1.24788 0.0652449 -4.53906e-20)
(0.00172745 0.00134597 8.74259e-20)
(0.0446872 -0.00315885 9.18251e-20)
(0.124718 -0.00350048 -8.21455e-20)
(0.235542 0.00118671 1.53169e-19)
(0.370254 0.011583 -1.44161e-19)
(0.520134 0.0276382 1.30567e-19)
(0.674741 0.0480749 -6.26928e-20)
(0.823272 0.0707034 1.64874e-19)
(0.956351 0.0929994 -1.0377e-19)
(1.06749 0.112683 1.84688e-19)
(1.15375 0.128147 -4.26866e-19)
(1.21558 0.13864 1.57014e-19)
(1.25592 0.144213 -1.38548e-19)
(1.27913 0.145496 1.30141e-19)
(1.28985 0.143416 1.13323e-19)
(1.29224 0.138935 1.00159e-19)
(1.28952 0.132891 -2.78471e-19)
(1.28394 0.125922 1.7316e-19)
(1.27689 0.118467 -7.81817e-20)
(1.26914 0.110823 2.04465e-19)
(1.26109 0.103172 -6.6037e-20)
(1.25294 0.0956139 -1.6131e-19)
(1.24476 0.0885765 1.49037e-19)
(1.2367 0.0800693 4.53773e-20)
(0.0114984 -0.00140786 0)
(0.0776107 -0.00797134 8.24285e-22)
(0.183529 -0.00574061 1.72009e-19)
(0.320284 0.00466215 -1.61272e-19)
(0.477441 0.0225461 -1.45636e-19)
(0.642578 0.0464033 2.70789e-19)
(0.802526 0.073476 -1.2581e-19)
(0.945737 0.10046 1.68057e-19)
(1.06433 0.124386 -3.45023e-21)
(1.15497 0.14323 -9.54763e-20)
(1.21849 0.156131 2.09374e-19)
(1.25867 0.163257 -3.09375e-19)
(1.28074 0.165465 0)
(1.29002 0.163908 -6.11707e-20)
(1.29105 0.159728 -1.64235e-19)
(1.28726 0.153869 5.1528e-20)
(1.2809 0.147022 1.94364e-21)
(1.27335 0.139648 -1.14985e-19)
(1.26533 0.132039 6.70371e-21)
(1.2572 0.124376 1.33262e-19)
(1.2491 0.116777 -5.98807e-20)
(1.24107 0.109329 -2.28249e-20)
(1.23311 0.102171 7.01475e-20)
(1.22525 0.094241 0)
(0.0242318 -0.00359152 0)
(0.117756 -0.0102857 4.66431e-20)
(0.251707 -0.00312242 -2.24405e-19)
(0.41373 0.0151498 8.16996e-20)
(0.58932 0.0418058 -7.68904e-20)
(0.762684 0.0734223 -7.03729e-20)
(0.919412 0.105748 -1.24552e-19)
(1.04937 0.134826 6.20544e-20)
(1.14812 0.157945 5.40915e-20)
(1.21645 0.17397 0)
(1.25882 0.183122 1.2421e-19)
(1.28133 0.186491 -1.85286e-19)
(1.2901 0.185507 1.38065e-19)
(1.29026 0.181543 6.1204e-20)
(1.28556 0.175706 -5.04219e-20)
(1.27842 0.168785 -4.2492e-20)
(1.27025 0.161288 -3.99113e-20)
(1.2618 0.153526 1.18653e-19)
(1.2534 0.145684 0)
(1.24518 0.137876 6.01591e-20)
(1.23716 0.130181 5.09497e-20)
(1.22932 0.122663 -1.26158e-19)
(1.22161 0.115325 -8.68615e-20)
(1.214 0.107782 8.0194e-20)
(0.0399897 -0.00470582 -5.03456e-20)
(0.164626 -0.00888822 -1.93323e-21)
(0.327442 0.00578974 4.56959e-20)
(0.51218 0.0337297 1.27884e-19)
(0.700355 0.0695628 3.7281e-20)
(0.87411 0.10781 -7.19909e-20)
(1.01999 0.143176 6.57499e-20)
(1.13139 0.171839 -5.77396e-20)
(1.20838 0.192073 1.03691e-19)
(1.25577 0.204011 4.43428e-20)
(1.28058 0.208965 -1.25798e-19)
(1.28993 0.208702 3.72028e-20)
(1.28974 0.204915 6.37794e-20)
(1.28431 0.198955 -3.13424e-20)
(1.27636 0.191762 0)
(1.26747 0.183931 4.72312e-20)
(1.25843 0.175812 8.02371e-20)
(1.24959 0.167604 1.39707e-20)
(1.24106 0.159423 -6.71191e-20)
(1.23286 0.151345 2.82019e-20)
(1.22496 0.143426 0)
(1.2173 0.135697 -2.23047e-20)
(1.20981 0.128123 -2.12331e-20)
(1.20242 0.120757 0)
(0.0586234 -0.00422718 0)
(0.217111 -0.00264307 2.63897e-20)
(0.40805 0.0221015 4.8883e-20)
(0.61121 0.0608553 -1.30483e-19)
(0.805106 0.105265 4.21651e-20)
(0.971925 0.148139 0)
(1.10147 0.183989 6.35519e-20)
(1.19197 0.209986 -8.87538e-20)
(1.24808 0.225879 -5.17993e-20)
(1.27765 0.233129 2.34443e-20)
(1.28901 0.233904 -3.77021e-20)
(1.28919 0.230336 9.146e-20)
(1.28329 0.224125 4.60417e-20)
(1.27458 0.216453 -3.19071e-20)
(1.26489 0.208051 -2.88885e-21)
(1.25513 0.199338 -8.82497e-20)
(1.24569 0.19054 4.02491e-20)
(1.23671 0.181785 -1.0411e-21)
(1.2282 0.173146 0)
(1.22012 0.164676 -2.82315e-20)
(1.21239 0.15641 0)
(1.20495 0.148352 6.43044e-20)
(1.19773 0.140501 -7.66641e-20)
(1.19059 0.133128 3.49946e-20)
(0.07973 -0.00164804 -1.3783e-20)
(0.273495 0.00938919 -6.66029e-20)
(0.490189 0.0464448 7.58169e-20)
(0.706225 0.0963029 4.46026e-20)
(0.898964 0.147766 -2.12836e-20)
(1.05306 0.192772 3.58524e-20)
(1.16328 0.226662 -1.73964e-20)
(1.23308 0.24827 2.90219e-20)
(1.27085 0.258992 0)
(1.2863 0.261424 6.60336e-20)
(1.28793 0.258272 -2.64494e-21)
(1.28205 0.251749 -5.34458e-20)
(1.2727 0.243397 2.29655e-20)
(1.26217 0.234169 -2.6014e-20)
(1.25159 0.224596 -9.98012e-21)
(1.24144 0.214958 1.14539e-20)
(1.23189 0.205397 -8.89702e-21)
(1.22294 0.195991 -4.84752e-20)
(1.21455 0.186789 2.97169e-20)
(1.20665 0.177827 6.116e-21)
(1.19916 0.169119 5.40387e-21)
(1.19198 0.160652 4.77659e-21)
(1.18503 0.152496 0)
(1.17815 0.144917 0)
(0.102716 0.00348907 1.37925e-20)
(0.331682 0.0278664 -1.38071e-20)
(0.570336 0.0789056 -2.52785e-20)
(0.79313 0.139239 0)
(0.978665 0.195568 -1.05789e-20)
(1.11621 0.240137 -9.54161e-21)
(1.20633 0.270036 -1.63483e-20)
(1.2572 0.286127 0)
(1.27986 0.291341 0)
(1.28469 0.289098 0)
(1.27964 0.282331 0)
(1.26995 0.273134 0)
(1.25863 0.262809 -1.44441e-20)
(1.24719 0.252075 6.58355e-21)
(1.23625 0.2413 1.1487e-20)
(1.22604 0.230659 5.37703e-21)
(1.21657 0.220236 1.33579e-20)
(1.20779 0.210079 0)
(1.19965 0.200217 -3.22992e-21)
(1.19204 0.190672 -3.09332e-21)
(1.18488 0.181439 -5.41249e-21)
(1.17806 0.17251 -4.78423e-21)
(1.17146 0.164024 0)
(1.16494 0.15608 3.46281e-21)
(-0.0039434 0.00383205 7.98106e-21)
(-0.0181751 0.00803507 -8.37082e-21)
(-0.0429057 0.00998693 -1.59634e-20)
(-0.0725111 0.0105753 0)
(-0.104125 0.0103228 -2.16976e-20)
(-0.136516 0.00954088 6.82058e-21)
(-0.16893 0.00841498 -1.31559e-20)
(-0.200887 0.00704659 0)
(-0.232097 0.00548678 0)
(-0.262355 0.00376102 0)
(-0.291475 0.00188485 0)
(-0.319264 -0.000127636 0)
(-0.34551 -0.00225959 5.6011e-23)
(-0.36998 -0.00448962 -9.65036e-21)
(-0.39242 -0.00679101 1.87412e-20)
(-0.412565 -0.00913125 2.68536e-20)
(-0.430141 -0.0114717 8.61748e-21)
(-0.444879 -0.0137672 0)
(-0.456528 -0.0159663 7.58452e-21)
(-0.464853 -0.0180135 -2.14482e-20)
(-0.469614 -0.0198527 -1.33807e-20)
(-0.470628 -0.0214224 -1.2412e-20)
(-0.468026 -0.0226296 0)
(-0.46236 -0.0233731 0)
(-0.00485275 0.0146471 -2.41361e-20)
(-0.0194027 0.0323367 4.18622e-20)
(-0.0430756 0.0425907 -1.58898e-20)
(-0.0709835 0.0482046 -3.06047e-20)
(-0.100578 0.0508554 4.3261e-20)
(-0.130729 0.0516119 -2.7821e-20)
(-0.160712 0.0511629 3.93221e-20)
(-0.190045 0.0499162 2.53855e-20)
(-0.21842 0.0480823 0)
(-0.245611 0.0457476 -2.35138e-20)
(-0.271417 0.0429289 -9.36542e-22)
(-0.295639 0.0396114 2.07571e-20)
(-0.318062 0.0357708 3.08376e-20)
(-0.338455 0.0313859 3.96576e-20)
(-0.356575 0.0264458 -1.80478e-20)
(-0.372164 0.0209538 -5.34759e-20)
(-0.384959 0.0149321 1.73562e-20)
(-0.394695 0.00842663 -6.49991e-20)
(-0.401125 0.00151482 0)
(-0.40402 -0.00568757 1.43062e-20)
(-0.403131 -0.0130246 1.33598e-20)
(-0.398163 -0.0202953 1.23923e-20)
(-0.3891 -0.0272083 0)
(-0.376998 -0.0334054 0)
(-0.0064776 0.0235891 0)
(-0.0214817 0.053048 8.5608e-20)
(-0.0428885 0.0710522 -3.22885e-20)
(-0.0672274 0.0816666 3.08742e-20)
(-0.0925715 0.0873977 -8.79019e-20)
(-0.117993 0.0899104 0)
(-0.142834 0.0903235 -5.37886e-20)
(-0.166615 0.0893323 2.52383e-20)
(-0.188991 0.0873198 -4.92141e-20)
(-0.209699 0.0844583 2.39002e-20)
(-0.228511 0.0807939 1.36298e-19)
(-0.245212 0.0763069 -6.40311e-20)
(-0.259592 0.0709509 -1.0446e-19)
(-0.27144 0.0646753 -4.1693e-20)
(-0.280542 0.0574373 -1.42073e-21)
(-0.286684 0.0492089 1.45649e-19)
(-0.289652 0.0399829 -6.89372e-20)
(-0.289226 0.0297799 -5.86431e-22)
(-0.285196 0.0186634 0)
(-0.277358 0.00676656 -5.93072e-20)
(-0.265475 -0.005662 0)
(-0.249129 -0.0182324 -4.95017e-20)
(-0.227768 -0.0304879 1.87945e-19)
(-0.202923 -0.0416974 -2.01966e-21)
(-0.00843353 0.0296797 0)
(-0.0239767 0.0681255 7.15906e-22)
(-0.0423794 0.0928224 3.33111e-20)
(-0.0619044 0.108216 -3.18534e-20)
(-0.0814195 0.117169 2.89222e-20)
(-0.100286 0.121691 1.70474e-19)
(-0.117972 0.123201 -5.36882e-20)
(-0.134033 0.122636 -5.19909e-20)
(-0.148115 0.120554 9.89272e-20)
(-0.159929 0.117245 -1.43061e-19)
(-0.16923 0.112822 4.48809e-20)
(-0.175807 0.107297 4.39256e-20)
(-0.179472 0.100636 0)
(-0.180055 0.0927863 4.00284e-20)
(-0.177405 0.0836941 0)
(-0.171386 0.0733154 7.41561e-20)
(-0.161876 0.0616169 -1.41844e-19)
(-0.14876 0.0485793 3.17788e-20)
(-0.131927 0.0342083 1.26364e-19)
(-0.111253 0.0185547 5.92161e-20)
(-0.0866025 0.00175349 0)
(-0.0580259 -0.0159701 -1.55188e-19)
(-0.0247931 -0.0338893 4.86374e-20)
(0.0163559 -0.0501208 0)
(-0.0102869 0.0325416 0)
(-0.0263777 0.0765275 -1.06265e-19)
(-0.0416064 0.106325 -3.40254e-20)
(-0.0558686 0.1259 -6.3906e-20)
(-0.068834 0.13799 6.01761e-20)
(-0.0802038 0.144663 -5.70373e-20)
(-0.0896376 0.147471 1.10268e-19)
(-0.0967927 0.147507 5.36338e-20)
(-0.101361 0.145484 -1.48822e-19)
(-0.103078 0.141819 9.67261e-20)
(-0.101723 0.136723 -1.37735e-19)
(-0.0971162 0.130279 3.09571e-19)
(-0.0891195 0.122495 -1.67322e-19)
(-0.077628 0.113345 8.10432e-20)
(-0.0625668 0.102792 2.34486e-19)
(-0.0438851 0.0907982 -7.1484e-20)
(-0.0215544 0.07733 -6.87133e-20)
(0.00445009 0.0623565 -6.67124e-20)
(0.0341407 0.0458659 0)
(0.0675307 0.0278531 -1.20716e-19)
(0.104554 0.0082966 -1.12594e-19)
(0.145273 -0.0127696 1.59228e-19)
(0.189345 -0.0346199 1.93069e-19)
(0.245692 -0.0549623 -1.81873e-19)
(-0.0116889 0.0324131 0)
(-0.0282477 0.0783363 -1.45441e-19)
(-0.0406444 0.111174 -8.71579e-22)
(-0.0499721 0.13383 1.28988e-19)
(-0.0565524 0.148554 0)
(-0.0604188 0.157223 0)
(-0.0614726 0.161349 0)
(-0.0595402 0.162077 -5.33525e-20)
(-0.0544321 0.160218 -1.63074e-21)
(-0.0459714 0.1563 9.5207e-20)
(-0.0340115 0.15064 -1.39936e-19)
(-0.0184432 0.143404 -1.37652e-21)
(0.000803697 0.134667 0)
(0.0237662 0.12445 -8.0977e-20)
(0.0504522 0.112743 7.87062e-20)
(0.0808625 0.0995183 -2.20238e-19)
(0.114969 0.084757 2.82997e-19)
(0.152769 0.0684466 6.92329e-20)
(0.194253 0.0505687 1.96197e-21)
(0.239439 0.0311095 -2.39706e-19)
(0.288046 0.0100474 -1.11971e-19)
(0.34119 -0.0124084 3.66713e-19)
(0.393209 -0.0364924 -2.44755e-19)
(0.467476 -0.0594969 0)
(-0.0124763 0.0300173 7.21979e-20)
(-0.0293552 0.0746391 7.29923e-20)
(-0.039595 0.108198 -6.97222e-20)
(-0.0448777 0.132345 -1.30968e-19)
(-0.0459401 0.148682 1.23312e-19)
(-0.0430856 0.158745 -1.17335e-19)
(-0.0364554 0.163879 1.65804e-19)
(-0.0260881 0.165178 -5.3456e-20)
(-0.0119645 0.163476 9.9645e-20)
(0.00595719 0.159368 0)
(0.0277184 0.153253 9.26779e-20)
(0.0533484 0.145381 -1.72182e-19)
(0.082861 0.135892 1.68648e-19)
(0.116268 0.12485 -1.58392e-19)
(0.153557 0.112289 0)
(0.194752 0.098225 1.45664e-19)
(0.239888 0.0826536 2.78576e-19)
(0.288994 0.065557 -2.62727e-19)
(0.342016 0.0469054 -1.2374e-19)
(0.399088 0.026759 -1.19758e-19)
(0.459099 0.00494331 3.33813e-19)
(0.525644 -0.0176208 1.01635e-19)
(0.584638 -0.04271 -9.64296e-20)
(0.676399 -0.0658418 8.6525e-20)
(-0.0127103 0.0263261 -7.22077e-20)
(-0.0297375 0.067187 2.24028e-19)
(-0.0385739 0.099202 -7.07189e-20)
(-0.0409128 0.122956 1.31998e-19)
(-0.0376422 0.139454 -1.24278e-19)
(-0.0292421 0.14987 -2.17729e-22)
(-0.0160522 0.155322 5.51519e-20)
(0.00169338 0.156781 2.10439e-19)
(0.0238479 0.155042 2.10454e-21)
(0.0503277 0.150717 -9.42239e-20)
(0.0810935 0.144248 0)
(0.116143 0.135938 -8.67938e-20)
(0.155486 0.125983 1.62976e-19)
(0.199184 0.114515 1.58137e-19)
(0.24733 0.101612 -7.45087e-20)
(0.299995 0.0873011 -1.67339e-21)
(0.357197 0.0715768 -6.87412e-20)
(0.418929 0.0544464 1.2726e-19)
(0.48493 0.0359006 1.23702e-19)
(0.555259 0.0162104 -1.16655e-19)
(0.627376 -0.00519306 1.06183e-19)
(0.706885 -0.0261041 -9.87539e-20)
(0.772366 -0.050625 0)
(0.875888 -0.0705769 -8.64499e-20)
(-0.012633 0.022303 7.3621e-20)
(-0.0296495 0.0579299 -7.50345e-20)
(-0.0376341 0.0865179 7.10836e-20)
(-0.037896 0.108034 0)
(-0.0312658 0.123095 0)
(-0.0182924 0.132594 1.17552e-19)
(0.000571426 0.137437 -1.10515e-19)
(0.0249769 0.138457 1.04669e-19)
(0.0546908 0.136377 -4.93333e-19)
(0.0895861 0.131784 -8.24981e-22)
(0.129623 0.125131 8.81982e-20)
(0.174845 0.116756 0)
(0.225351 0.106905 -1.62188e-19)
(0.281234 0.0957323 3.06879e-19)
(0.342536 0.0833193 -2.19126e-19)
(0.409218 0.0697125 -3.5063e-19)
(0.48103 0.0549522 -2.95597e-21)
(0.557485 0.0390989 2.45837e-19)
(0.637616 0.0221483 0)
(0.72072 0.00455986 0)
(0.803146 -0.0145869 -1.06176e-19)
(0.889633 -0.0320046 9.87481e-20)
(0.958027 -0.0542318 -3.53493e-19)
(1.05831 -0.0682086 3.31166e-19)
(-0.012557 0.0186895 0)
(-0.0293831 0.0485585 0)
(-0.0365902 0.0724597 -2.13571e-19)
(-0.0349608 0.0902851 6.78261e-20)
(-0.0251499 0.102546 5.58249e-22)
(-0.00767081 0.109992 1.17888e-19)
(0.01703 0.113393 0)
(0.0486177 0.113475 -1.03574e-19)
(0.0868931 0.110889 9.83025e-20)
(0.131783 0.106187 -1.84616e-19)
(0.183306 0.0998139 -8.61926e-22)
(0.241502 0.0921093 1.67149e-19)
(0.306366 0.0833104 1.91353e-21)
(0.377754 0.0735678 1.53007e-19)
(0.455269 0.0629786 -2.13186e-19)
(0.538186 0.0515925 0)
(0.625382 0.0394361 2.58047e-19)
(0.715322 0.0265367 -3.65718e-19)
(0.806003 0.0128917 1.12085e-19)
(0.895431 -0.00118197 0)
(0.98 -0.0164203 9.72952e-20)
(1.06105 -0.0298898 3.666e-19)
(1.12361 -0.0485278 -3.44064e-19)
(1.20082 -0.0567991 -3.79286e-19)
(-0.0127151 0.0158705 2.24365e-19)
(-0.0290102 0.0401666 -3.07709e-19)
(-0.034799 0.0588371 9.57112e-22)
(-0.0304337 0.0721766 6.81256e-20)
(-0.0163631 0.0808483 -1.26466e-19)
(0.00701864 0.0856153 -1.1772e-19)
(0.0393799 0.0872081 2.20316e-19)
(0.0804969 0.0863003 -1.01636e-22)
(0.130249 0.0834938 -1.94504e-19)
(0.188559 0.0792982 3.67325e-19)
(0.255296 0.0741181 1.94934e-21)
(0.330153 0.0682464 -1.63278e-19)
(0.412523 0.0618742 0)
(0.501392 0.0550939 0)
(0.595279 0.0479162 -7.06303e-20)
(0.692222 0.0402859 -1.30371e-19)
(0.789847 0.0321158 -2.49699e-19)
(0.88547 0.0232729 2.34384e-19)
(0.976304 0.0137382 -1.1214e-19)
(1.05962 0.00333308 2.03233e-19)
(1.13286 -0.00781413 -1.00358e-19)
(1.19509 -0.0190112 1.69075e-19)
(1.24078 -0.0336726 -4.0114e-19)
(1.28388 -0.0401112 7.51675e-20)
(-0.013123 0.0138443 7.553e-20)
(-0.0281693 0.0331153 0)
(-0.0310392 0.0466641 1.45167e-19)
(-0.0219179 0.0554706 -1.36749e-19)
(-0.00109994 0.0605231 1.26587e-19)
(0.0311589 0.0627182 0)
(0.0746476 0.0628266 0)
(0.129178 0.0615129 -1.03357e-19)
(0.194497 0.0593366 2.08354e-22)
(0.270149 0.0567375 9.10852e-20)
(0.355317 0.0540242 -8.61334e-20)
(0.448693 0.051365 1.62018e-19)
(0.548403 0.0487902 0)
(0.652017 0.0462039 2.90514e-19)
(0.756643 0.0434089 -5.46539e-19)
(0.859095 0.040139 3.87489e-19)
(0.956125 0.0361155 2.40786e-19)
(1.04466 0.0310317 -2.26031e-19)
(1.12211 0.0248133 0)
(1.18644 0.0169435 0)
(1.23679 0.00843157 0)
(1.27285 -0.00284514 0)
(1.29549 -0.0133534 7.71403e-20)
(1.30947 -0.0244018 -2.65772e-19)
(-0.452225 -0.0238958 -6.84034e-21)
(-0.436327 -0.0249582 6.86123e-21)
(-0.409512 -0.0248493 -1.85924e-22)
(-0.373855 -0.0239458 0)
(-0.328172 -0.0220346 -3.80996e-21)
(-0.273021 -0.0192073 6.61305e-21)
(-0.208724 -0.0156314 -7.91014e-22)
(-0.136393 -0.011227 -1.98e-21)
(-0.0574745 -0.00683731 0)
(0.0259311 -0.00220298 0)
(0.11142 0.00221336 1.82409e-23)
(0.196774 0.00616546 4.20896e-23)
(0.279825 0.00952457 1.08678e-21)
(0.358727 0.0122335 -9.99794e-22)
(0.432174 0.0142988 0)
(0.499415 0.0157936 0)
(0.560167 0.0168515 -1.05643e-21)
(0.614452 0.0175826 5.34183e-23)
(0.662682 0.0182054 8.88667e-22)
(0.705486 0.0187072 5.14127e-23)
(0.743442 0.0191148 0)
(0.777125 0.0194831 0)
(0.807041 0.0198615 0)
(0.83356 0.0202995 0)
(0.857034 0.0206874 0)
(0.877712 0.021118 0)
(0.895697 0.0215877 -1.20799e-22)
(0.911133 0.0220931 1.97022e-22)
(0.924214 0.0226051 0)
(0.935184 0.0231059 0)
(0.944335 0.0236073 9.83878e-23)
(0.951972 0.0241447 -9.5623e-23)
(0.958376 0.0247574 -4.03462e-23)
(0.963787 0.0254737 0)
(0.968391 0.0263028 0)
(0.972331 0.0272382 -5.45777e-23)
(0.975721 0.0282662 5.30527e-23)
(0.97865 0.0293741 0)
(0.981197 0.0305548 -3.95166e-23)
(0.983423 0.0318083 5.69128e-23)
(0.985383 0.033137 -1.67051e-23)
(0.987114 0.0345563 0)
(0.988664 0.0360587 2.64802e-23)
(0.990037 0.0377007 -2.57492e-23)
(0.991292 0.0393916 0)
(0.992395 0.0413715 0)
(0.993436 0.0431823 9.02996e-24)
(0.994329 0.0457705 -2.57498e-23)
(0.995205 0.0474169 0)
(0.995948 0.0511764 0)
(0.996678 0.0521054 6.01023e-24)
(0.997336 0.0577429 -1.99566e-27)
(0.997936 0.0576277 4.9206e-25)
(0.998532 0.0651688 -4.0945e-24)
(0.999069 0.0647495 0)
(0.999603 0.0733617 0)
(1.00006 0.0733614 0)
(1.0007 0.0833891 0)
(1.00093 0.0831611 0)
(1.00178 0.0951505 0)
(-0.361433 -0.0404362 -7.03455e-22)
(-0.349055 -0.0524557 -2.59395e-20)
(-0.324186 -0.0627142 2.65429e-21)
(-0.291323 -0.0718767 2.17986e-20)
(-0.249131 -0.0795077 2.78836e-22)
(-0.198112 -0.0851815 0)
(-0.138399 -0.0889374 -8.33579e-21)
(-0.0712822 -0.0895322 1.349e-20)
(0.00210934 -0.0874941 -5.14275e-21)
(0.0799493 -0.0830968 -3.4764e-23)
(0.159495 -0.0766691 1.54969e-23)
(0.238886 -0.0686633 -3.15479e-21)
(0.31619 -0.0596871 3.03875e-21)
(0.389694 -0.0503824 1.27548e-22)
(0.45817 -0.0413225 4.55089e-21)
(0.520926 -0.0329488 -4.42246e-21)
(0.577702 -0.025469 4.2019e-21)
(0.62864 -0.0189368 -3.9604e-21)
(0.674064 -0.0132276 3.5786e-21)
(0.714408 -0.00834787 -6.63454e-21)
(0.750288 -0.00420655 3.07177e-21)
(0.782272 -0.000657857 1.61997e-22)
(0.810844 0.00242127 2.20204e-21)
(0.83629 0.0051351 -4.07944e-21)
(0.858922 0.00779899 1.88483e-21)
(0.878997 0.0103204 -9.80249e-23)
(0.896573 0.0126116 -1.35941e-21)
(0.911756 0.014696 8.4597e-23)
(0.924682 0.0165717 2.14169e-21)
(0.93556 0.0182349 -1.88561e-21)
(0.944657 0.0196888 8.71352e-22)
(0.952265 0.0209835 -9.15061e-23)
(0.958658 0.0221892 4.04282e-23)
(0.96407 0.0233698 -7.19357e-23)
(0.968683 0.0245663 0)
(0.97264 0.0257957 0)
(0.97605 0.0270611 1.9645e-22)
(0.979002 0.0283617 -1.45118e-22)
(0.981572 0.0296989 -1.17539e-22)
(0.983821 0.0310797 -7.40087e-24)
(0.985805 0.0325124 1.55948e-22)
(0.98756 0.0340173 -3.03483e-23)
(0.989134 0.0355904 0)
(0.990534 0.0372922 0)
(0.991814 0.0390324 0)
(0.992946 0.0410567 0)
(0.994014 0.0429003 -3.74991e-23)
(0.994938 0.0455259 1.69837e-23)
(0.995847 0.0471895 0)
(0.99662 0.0509852 0)
(0.997393 0.0519181 0)
(0.998077 0.0575876 1.0242e-23)
(0.998729 0.0574763 -9.62308e-25)
(0.99936 0.0650321 8.6837e-24)
(0.999937 0.0646272 0)
(1.00054 0.0732425 0)
(1.00102 0.0732492 -4.31696e-24)
(1.00174 0.0832873 -1.02628e-23)
(1.00199 0.0830597 0)
(1.00294 0.0950545 0)
(-0.179064 -0.0524268 -2.28391e-21)
(-0.167326 -0.0741212 -5.85491e-20)
(-0.144126 -0.0944925 4.89977e-20)
(-0.113759 -0.11316 -4.58059e-20)
(-0.0758727 -0.129672 -2.80668e-22)
(-0.0310837 -0.143361 0)
(0.0214205 -0.153165 -1.9244e-20)
(0.0811053 -0.158573 1.8804e-20)
(0.145172 -0.159192 6.33329e-23)
(0.212285 -0.15548 7.12387e-23)
(0.28059 -0.147526 2.48851e-25)
(0.34829 -0.135987 -7.45221e-23)
(0.413735 -0.121951 7.29905e-21)
(0.475568 -0.106636 -7.22146e-21)
(0.532847 -0.0911702 0)
(0.585112 -0.0764648 -2.56004e-22)
(0.632307 -0.0631095 8.14861e-21)
(0.674622 -0.0512823 -8.04158e-21)
(0.712367 -0.0410954 0)
(0.745975 -0.0324034 0)
(0.775981 -0.0250132 5.75146e-21)
(0.802866 -0.0187049 -1.06922e-20)
(0.82702 -0.0132653 9.19961e-21)
(0.848864 -0.00849888 -5.17757e-22)
(0.868576 -0.00406369 -7.05478e-21)
(0.886136 -1.56315e-05 6.40424e-21)
(0.901686 0.00386391 -5.37311e-21)
(0.915344 0.00751777 3.91235e-22)
(0.927178 0.0106933 2.25396e-21)
(0.937295 0.0134538 0)
(0.945871 0.0158163 0)
(0.953133 0.0178409 -5.19928e-22)
(0.959304 0.0196217 6.83958e-22)
(0.964581 0.0212549 -7.31015e-26)
(0.969118 0.0228114 -4.94203e-22)
(0.973035 0.0243308 4.80284e-22)
(0.97643 0.0258318 0)
(0.979383 0.0273245 -4.60274e-23)
(0.981962 0.0288183 -3.60817e-22)
(0.984227 0.0303269 6.73306e-22)
(0.98623 0.0318639 -2.80046e-22)
(0.988007 0.0334546 -3.0578e-23)
(0.989603 0.0350985 2.69088e-22)
(0.991029 0.0368601 -2.07824e-22)
(0.992334 0.0386493 -4.5597e-23)
(0.993495 0.0407182 -4.14316e-23)
(0.99459 0.0425944 3.75946e-23)
(0.995545 0.0452574 0)
(0.996486 0.0469382 0)
(0.997288 0.0507701 1.09902e-22)
(0.998106 0.0517074 -5.24311e-23)
(0.998815 0.0574095 4.50275e-23)
(0.999521 0.0573016 -5.98491e-23)
(1.00019 0.0648747 -6.76289e-23)
(1.0008 0.0644822 1.58902e-23)
(1.00147 0.0731051 -2.47692e-23)
(1.00197 0.0731174 1.96306e-23)
(1.00277 0.08317 -8.42306e-24)
(1.00304 0.0829423 0)
(1.00409 0.0949481 0)
(0.0452289 -0.066503 -1.2633e-19)
(0.0584454 -0.0925894 8.76427e-21)
(0.0812598 -0.120152 1.11444e-19)
(0.109856 -0.146495 -7.19691e-22)
(0.143831 -0.170279 0)
(0.183067 -0.190689 0)
(0.227351 -0.205702 -4.4484e-20)
(0.276384 -0.215354 1.25709e-20)
(0.32862 -0.218833 3.80718e-20)
(0.382559 -0.21579 -5.14685e-21)
(0.436631 -0.206531 -3.29734e-21)
(0.489416 -0.192001 3.9094e-21)
(0.539729 -0.173676 -3.84608e-21)
(0.586699 -0.153267 0)
(0.62979 -0.132387 7.86673e-21)
(0.668802 -0.112309 -7.15524e-21)
(0.703896 -0.093966 0)
(0.735389 -0.0777854 0)
(0.763568 -0.0638261 -6.66334e-21)
(0.788771 -0.0519251 4.18441e-22)
(0.811391 -0.0418408 5.70309e-21)
(0.831803 -0.0332843 5.03078e-21)
(0.850326 -0.0259374 -5.00908e-21)
(0.867244 -0.0194881 3.96195e-21)
(0.882691 -0.0138281 -4.46785e-22)
(0.896828 -0.00865982 -3.29455e-21)
(0.909712 -0.00376829 -3.4517e-22)
(0.921157 0.000889434 -9.66931e-25)
(0.931243 0.0052466 0)
(0.940122 0.00897189 -1.81292e-21)
(0.947836 0.0121258 1.86585e-21)
(0.95451 0.0148002 -9.2664e-23)
(0.960292 0.0171033 0)
(0.965318 0.0191551 7.28728e-23)
(0.969699 0.0210504 -9.96465e-22)
(0.973524 0.0228473 1.74261e-21)
(0.976869 0.0245773 3.59174e-23)
(0.979799 0.026259 -5.8962e-23)
(0.982373 0.0279084 -6.11931e-22)
(0.984644 0.0295446 -7.51545e-23)
(0.986659 0.0311863 5.24748e-22)
(0.988455 0.0328634 -4.48588e-22)
(0.990071 0.0345786 1.04839e-25)
(0.991521 0.0364005 -1.95421e-22)
(0.99285 0.0382389 2.35741e-22)
(0.99404 0.0403528 2.86253e-22)
(0.995161 0.0422617 -8.09797e-23)
(0.996147 0.0449626 -1.32814e-22)
(0.997122 0.0466607 2.49278e-22)
(0.997952 0.0505292 -1.72984e-22)
(0.998816 0.0514711 4.64759e-23)
(0.999548 0.0572066 -5.31709e-23)
(1.00031 0.0571018 -4.40198e-23)
(1.00101 0.0646952 1.02765e-22)
(1.00166 0.0643131 -2.0961e-24)
(1.0024 0.072948 2.49335e-23)
(1.00292 0.072965 0)
(1.0038 0.0830361 8.54887e-24)
(1.0041 0.0828082 -1.20342e-23)
(1.00524 0.0948307 0)
(0.273 -0.0778668 1.31013e-19)
(0.291644 -0.108192 -2.49287e-19)
(0.313371 -0.14075 1.16958e-19)
(0.340271 -0.172065 9.54636e-20)
(0.370652 -0.200783 -1.74421e-19)
(0.403963 -0.226001 1.34566e-20)
(0.440139 -0.245964 6.43705e-20)
(0.478633 -0.259185 3.63342e-20)
(0.51817 -0.264685 -3.5517e-20)
(0.557546 -0.262131 0)
(0.595743 -0.251884 -2.99179e-21)
(0.631966 -0.235072 -9.30068e-22)
(0.665676 -0.213478 3.79875e-21)
(0.696617 -0.189195 0)
(0.724758 -0.164214 0)
(0.75018 -0.140077 -2.33164e-22)
(0.773136 -0.117857 1.40693e-20)
(0.794018 -0.0982371 -1.36681e-20)
(0.813068 -0.0813376 0)
(0.830416 -0.066969 -1.19601e-20)
(0.846234 -0.0548349 2.18097e-20)
(0.860711 -0.044588 -1.97324e-20)
(0.874029 -0.0358607 1.80005e-20)
(0.886368 -0.0283024 -6.82112e-22)
(0.897853 -0.0216219 -1.4296e-20)
(0.908549 -0.0154956 6.72471e-21)
(0.918536 -0.00987757 1.73678e-22)
(0.927807 -0.00467022 2.17995e-21)
(0.936154 0.00038079 -2.07515e-22)
(0.943593 0.00490934 -1.99962e-21)
(0.950289 0.00871335 -1.05662e-22)
(0.956257 0.0119309 1.42929e-21)
(0.961554 0.0146833 -2.65713e-21)
(0.966254 0.0171051 1.37942e-21)
(0.970421 0.0193078 0)
(0.97411 0.0213623 1.01613e-21)
(0.977371 0.0233092 -9.78038e-22)
(0.980255 0.0251731 6.29114e-22)
(0.982808 0.0269745 -7.86553e-22)
(0.985074 0.0287368 7.60019e-23)
(0.987096 0.0304825 0)
(0.988905 0.0322458 6.20396e-23)
(0.990539 0.0340323 -1.68487e-22)
(0.992012 0.0359147 0)
(0.993363 0.0378025 -4.50441e-22)
(0.99458 0.0399616 1.79823e-22)
(0.995729 0.0419032 -7.61813e-23)
(0.996745 0.0446422 -6.92384e-23)
(0.997753 0.0463578 0)
(0.998611 0.0502631 0)
(0.999521 0.0512099 1.48527e-22)
(1.00028 0.0569797 -2.27236e-22)
(1.00109 0.0568774 1.24685e-22)
(1.00183 0.0644938 -3.92122e-23)
(1.00252 0.0641205 -6.41919e-23)
(1.00332 0.0727713 -2.49573e-23)
(1.00386 0.0727923 3.9657e-23)
(1.00484 0.0828856 0)
(1.00515 0.0826577 1.92933e-23)
(1.00639 0.0947022 4.56183e-24)
(0.490143 -0.0846398 1.33835e-19)
(0.510244 -0.119578 -1.33098e-19)
(0.532401 -0.155488 9.13747e-22)
(0.557882 -0.189632 -8.29297e-22)
(0.584796 -0.221611 7.09001e-22)
(0.612411 -0.250255 -5.94452e-22)
(0.640542 -0.273303 1.0239e-21)
(0.6684 -0.288851 0)
(0.69486 -0.29572 -5.92973e-22)
(0.719103 -0.293515 4.01702e-22)
(0.740773 -0.282675 2.3685e-22)
(0.759881 -0.264494 -2.3547e-23)
(0.776707 -0.240953 0)
(0.791697 -0.21436 0)
(0.805352 -0.186905 -1.25613e-22)
(0.818062 -0.160307 0)
(0.830064 -0.135657 1.71885e-22)
(0.841634 -0.11369 0)
(0.852952 -0.0947194 1.13665e-20)
(0.863928 -0.0785811 -2.19669e-20)
(0.874431 -0.0649401 2.04114e-20)
(0.884395 -0.0534213 -9.79354e-21)
(0.893811 -0.0436376 -8.2892e-21)
(0.902718 -0.0352108 8.04967e-21)
(0.911163 -0.0278126 6.86766e-21)
(0.919196 -0.0211259 -6.65093e-21)
(0.926847 -0.0149111 0)
(0.934171 -0.00913586 -1.51004e-22)
(0.941041 -0.00384416 0)
(0.947265 0.00124444 0)
(0.952959 0.00557909 -3.04006e-21)
(0.958216 0.00924753 3.1568e-21)
(0.963006 0.0123785 -1.66715e-22)
(0.967349 0.0151214 -1.48845e-22)
(0.971268 0.017598 1.32347e-22)
(0.974789 0.0198876 9.09914e-22)
(0.977941 0.0220366 -8.83503e-22)
(0.980757 0.0240736 8.26572e-22)
(0.983273 0.0260216 -7.10431e-22)
(0.985523 0.0279069 -1.53663e-22)
(0.987543 0.0297551 5.35821e-22)
(0.98936 0.0316041 2.72473e-23)
(0.991008 0.0334614 -3.57275e-22)
(0.992501 0.0354045 0)
(0.993873 0.0373413 1.8671e-22)
(0.995117 0.039546 -2.43406e-22)
(0.996291 0.0415201 3.18581e-22)
(0.997336 0.0442975 6.96793e-23)
(0.998378 0.0460305 0)
(0.999264 0.049973 -5.27467e-23)
(1.00022 0.0509247 1.06622e-22)
(1.001 0.0567297 -1.00421e-25)
(1.00187 0.0566294 4.059e-23)