/*--------------------------------*- C++ -*----------------------------------*\
| =========                 |                                                 |
| \\      /  F ield         | OpenFOAM: The Open Source CFD Toolbox           |
|  \\    /   O peration     | Version:  2512                                  |
|   \\  /    A nd           | Website:  www.openfoam.com                      |
|    \\/     M anipulation  |                                                 |
\*---------------------------------------------------------------------------*/
FoamFile
{
    version     2.0;
    format      ascii;
    arch        "LSB;label=32;scalar=64";
    class       volScalarField;
    location    "118.5";
    object      p;
}
// * * * * * * * * * * * * * * * * * * * * * * * * * * * * * * * * * * * * * //

dimensions      [0 2 -2 0 0 0 0];

internalField   nonuniform List<scalar> 
13248
(
-0.45248
-0.449557
-0.445891
-0.441813
-0.437761
-0.434212
-0.43151
-0.429812
-0.429073
-0.429044
-0.429303
-0.429301
-0.428429
-0.426103
-0.421834
-0.415292
-0.406331
-0.394989
-0.381444
-0.365983
-0.348782
-0.330215
-0.309252
-0.286836
-0.461428
-0.457912
-0.453682
-0.449066
-0.444455
-0.44027
-0.436776
-0.434029
-0.431879
-0.429991
-0.427902
-0.425089
-0.421058
-0.41541
-0.407895
-0.398426
-0.38707
-0.374004
-0.35946
-0.343677
-0.326849
-0.309159
-0.290445
-0.271569
-0.472587
-0.468182
-0.463236
-0.458013
-0.452791
-0.447887
-0.44344
-0.439377
-0.435443
-0.431262
-0.426408
-0.420492
-0.413219
-0.404432
-0.394112
-0.38236
-0.369351
-0.355293
-0.340386
-0.32481
-0.308685
-0.292184
-0.275186
-0.258239
-0.485954
-0.480397
-0.474582
-0.468651
-0.462688
-0.456861
-0.451152
-0.445356
-0.439162
-0.432236
-0.424298
-0.415171
-0.404803
-0.393255
-0.380671
-0.367235
-0.353132
-0.338529
-0.323565
-0.30835
-0.292977
-0.277563
-0.262065
-0.247001
-0.501401
-0.494486
-0.48767
-0.480895
-0.473983
-0.466907
-0.459492
-0.451452
-0.442511
-0.43249
-0.421335
-0.409116
-0.395993
-0.382168
-0.367846
-0.353206
-0.338388
-0.323493
-0.308594
-0.293748
-0.279002
-0.264417
-0.249975
-0.235982
-0.518702
-0.510301
-0.502378
-0.494595
-0.486431
-0.47765
-0.467969
-0.457123
-0.445001
-0.43167
-0.417339
-0.402292
-0.386815
-0.371157
-0.355505
-0.339983
-0.324664
-0.309587
-0.294771
-0.280231
-0.265983
-0.252045
-0.238417
-0.225282
-0.53751
-0.527575
-0.518463
-0.509452
-0.499621
-0.488555
-0.475976
-0.461794
-0.446178
-0.429494
-0.41218
-0.394646
-0.377214
-0.360098
-0.343421
-0.327235
-0.311549
-0.29635
-0.28162
-0.267338
-0.25349
-0.240068
-0.22707
-0.214551
-0.557316
-0.545873
-0.535488
-0.524951
-0.51292
-0.498907
-0.482812
-0.464879
-0.445636
-0.425719
-0.405714
-0.386057
-0.367021
-0.348743
-0.331262
-0.314563
-0.2986
-0.283322
-0.268677
-0.254622
-0.24112
-0.228143
-0.215685
-0.203697
-0.577394
-0.564536
-0.552772
-0.540316
-0.525467
-0.507846
-0.487738
-0.465839
-0.443034
-0.420149
-0.397805
-0.376378
-0.356046
-0.336846
-0.31874
-0.301652
-0.285495
-0.270185
-0.255647
-0.241816
-0.228637
-0.21607
-0.204088
-0.19257
-0.596779
-0.58265
-0.569353
-0.554502
-0.536205
-0.514431
-0.490033
-0.464195
-0.438082
-0.412594
-0.388286
-0.365422
-0.344059
-0.324143
-0.305566
-0.288203
-0.271935
-0.256651
-0.242256
-0.228666
-0.215812
-0.203644
-0.1921
-0.181033
-0.614299
-0.599056
-0.584013
-0.566247
-0.543937
-0.51766
-0.488935
-0.459389
-0.430343
-0.402655
-0.376751
-0.352751
-0.330599
-0.310157
-0.291259
-0.273744
-0.257461
-0.242282
-0.22809
-0.214786
-0.20229
-0.190533
-0.179417
-0.168814
-0.62868
-0.612508
-0.595482
-0.574284
-0.54749
-0.516504
-0.483554
-0.450609
-0.419025
-0.389528
-0.362373
-0.337532
-0.314837
-0.294076
-0.275036
-0.257519
-0.241353
-0.226387
-0.212492
-0.199555
-0.187488
-0.176207
-0.16558
-0.15555
-0.360643
-0.362354
-0.363462
-0.364422
-0.365657
-0.367321
-0.369458
-0.372064
-0.375103
-0.378518
-0.382237
-0.386167
-0.390189
-0.394157
-0.397904
-0.401243
-0.403365
-0.40458
-0.40448
-0.40275
-0.399149
-0.39352
-0.385809
-0.376124
-0.373553
-0.374544
-0.375349
-0.376315
-0.377787
-0.37992
-0.382765
-0.38632
-0.39055
-0.395401
-0.400798
-0.40664
-0.412787
-0.419056
-0.425204
-0.430912
-0.435742
-0.439428
-0.44146
-0.441395
-0.438825
-0.433408
-0.424806
-0.413094
-0.386079
-0.386253
-0.386664
-0.387536
-0.38912
-0.39157
-0.394945
-0.399245
-0.404431
-0.410447
-0.417209
-0.424605
-0.432475
-0.440599
-0.448689
-0.456377
-0.463224
-0.468623
-0.472085
-0.47299
-0.470752
-0.464963
-0.454895
-0.44051
-0.397619
-0.396959
-0.396907
-0.397562
-0.399086
-0.401638
-0.405287
-0.410032
-0.415834
-0.422626
-0.430313
-0.438763
-0.447792
-0.457145
-0.466488
-0.475392
-0.483332
-0.489672
-0.493746
-0.494828
-0.492218
-0.485276
-0.473421
-0.456118
-0.407724
-0.406297
-0.405739
-0.406047
-0.407312
-0.409705
-0.413314
-0.418145
-0.424159
-0.431277
-0.43939
-0.448343
-0.457922
-0.46784
-0.477718
-0.487073
-0.495314
-0.501751
-0.50562
-0.506116
-0.502473
-0.493946
-0.480315
-0.460059
-0.416143
-0.414095
-0.413027
-0.41287
-0.413675
-0.415639
-0.41888
-0.423425
-0.429239
-0.436238
-0.444296
-0.453234
-0.462809
-0.472697
-0.482468
-0.491595
-0.499434
-0.505236
-0.508188
-0.507444
-0.502271
-0.491811
-0.476502
-0.453672
-0.422863
-0.420395
-0.418851
-0.418141
-0.418314
-0.419608
-0.422188
-0.426112
-0.431361
-0.437854
-0.445451
-0.453949
-0.463068
-0.472437
-0.481591
-0.489933
-0.496769
-0.501314
-0.502738
-0.500197
-0.493105
-0.480541
-0.463627
-0.438952
-0.428116
-0.425443
-0.423484
-0.422169
-0.421592
-0.422042
-0.423742
-0.426795
-0.431209
-0.436911
-0.44375
-0.451487
-0.459806
-0.46829
-0.476393
-0.483466
-0.488766
-0.491486
-0.490834
-0.486041
-0.476739
-0.462133
-0.443752
-0.418158
-0.432351
-0.429655
-0.427344
-0.425414
-0.424033
-0.423555
-0.424261
-0.426307
-0.429734
-0.434475
-0.44036
-0.447126
-0.454381
-0.461631
-0.468264
-0.473571
-0.476782
-0.477126
-0.473925
-0.466613
-0.455069
-0.438812
-0.419413
-0.393889
-0.436188
-0.433572
-0.430954
-0.428427
-0.426257
-0.424859
-0.424569
-0.425591
-0.427984
-0.431685
-0.436496
-0.44208
-0.447974
-0.453598
-0.458267
-0.461243
-0.461791
-0.459269
-0.453209
-0.443366
-0.429892
-0.412731
-0.393262
-0.36886
-0.440355
-0.437804
-0.434884
-0.431795
-0.428895
-0.426653
-0.425441
-0.425485
-0.426856
-0.429454
-0.433023
-0.437152
-0.441294
-0.444792
-0.446936
-0.44703
-0.444464
-0.438803
-0.429836
-0.417647
-0.402598
-0.385144
-0.366484
-0.344413
-0.445583
-0.44296
-0.439696
-0.436078
-0.432533
-0.429555
-0.427527
-0.426665
-0.427003
-0.428385
-0.430474
-0.432775
-0.434677
-0.435509
-0.43462
-0.431449
-0.425598
-0.416874
-0.405292
-0.391111
-0.374643
-0.35661
-0.337695
-0.318
-0.362991
-0.344775
-0.325416
-0.306367
-0.289519
-0.276711
-0.269337
-0.26768
-0.274485
-0.281151
-0.287636
-0.289642
-0.283012
-0.265396
-0.237155
-0.202362
-0.167327
-0.137823
-0.117171
-0.105995
-0.10326
-0.108228
-0.121764
-0.144203
-0.170722
-0.190412
-0.192181
-0.174546
-0.145503
-0.115567
-0.0916606
-0.0762717
-0.0685547
-0.0671478
-0.0729631
-0.0871217
-0.104496
-0.11397
-0.108436
-0.0924047
-0.0752546
-0.0631202
-0.0560486
-0.0552801
-0.0620122
-0.0715138
-0.0752554
-0.0691154
-0.0582967
-0.0488622
-0.0406572
-0.037267
-0.0351572
-0.0337962
-0.0326669
-0.0297704
-0.0221759
-0.0161371
-0.00942734
-0.00340749
-0.397704
-0.37385
-0.347465
-0.320023
-0.293522
-0.270191
-0.252085
-0.240808
-0.237358
-0.238471
-0.241697
-0.242924
-0.237946
-0.224563
-0.202516
-0.175033
-0.147327
-0.124405
-0.109331
-0.102758
-0.103909
-0.112632
-0.130282
-0.156863
-0.186592
-0.207489
-0.207919
-0.187232
-0.154472
-0.121128
-0.0943353
-0.0763702
-0.0662965
-0.0625837
-0.0656582
-0.0767691
-0.0917168
-0.100534
-0.0964451
-0.0833268
-0.0694995
-0.0604004
-0.0559887
-0.0577576
-0.0672791
-0.0789256
-0.0835222
-0.0760386
-0.0627192
-0.0509988
-0.0406198
-0.0355373
-0.0314356
-0.0293859
-0.028098
-0.0259268
-0.0200568
-0.0152461
-0.0102179
-0.00425714
-0.423467
-0.394888
-0.362358
-0.327636
-0.292785
-0.260237
-0.232149
-0.210821
-0.198364
-0.192671
-0.19059
-0.191059
-0.187708
-0.178688
-0.163239
-0.14345
-0.123454
-0.107465
-0.0981995
-0.0962848
-0.101252
-0.113566
-0.134926
-0.165016
-0.197386
-0.219419
-0.219263
-0.196455
-0.160928
-0.124932
-0.0958295
-0.0757
-0.0635323
-0.0576988
-0.0581705
-0.0662527
-0.0787173
-0.0868346
-0.0841042
-0.0738275
-0.0632293
-0.057113
-0.055397
-0.0597612
-0.0720755
-0.0858684
-0.0913536
-0.0826071
-0.0668082
-0.0528425
-0.0404334
-0.0338411
-0.027919
-0.0251513
-0.0235501
-0.0220416
-0.017894
-0.0143291
-0.011011
-0.00512831
-0.437088
-0.405697
-0.36851
-0.328287
-0.287024
-0.247129
-0.210715
-0.179559
-0.160746
-0.147479
-0.139318
-0.137377
-0.135103
-0.130233
-0.121132
-0.109008
-0.0966307
-0.0874249
-0.0837424
-0.0861329
-0.0945294
-0.109978
-0.13449
-0.167587
-0.202302
-0.225688
-0.225756
-0.201914
-0.164685
-0.126912
-0.0961794
-0.0743961
-0.0604783
-0.0527763
-0.0508679
-0.0560573
-0.0660228
-0.0733174
-0.0718005
-0.0641664
-0.0565868
-0.0533046
-0.054215
-0.0611094
-0.076149
-0.0920736
-0.098513
-0.0886739
-0.0705032
-0.0543724
-0.0400955
-0.0321839
-0.024633
-0.0211266
-0.0190781
-0.0181542
-0.015709
-0.0133926
-0.0117997
-0.00601512
-0.439176
-0.405831
-0.366255
-0.322964
-0.277712
-0.232912
-0.191039
-0.154639
-0.126495
-0.105975
-0.0922214
-0.0863661
-0.0839492
-0.0826351
-0.0777865
-0.0730082
-0.0676489
-0.064608
-0.0658579
-0.0719755
-0.0833381
-0.10149
-0.128692
-0.16435
-0.201205
-0.226128
-0.227229
-0.203533
-0.165782
-0.127206
-0.0955387
-0.0726111
-0.0573239
-0.0480557
-0.044058
-0.0465458
-0.0540525
-0.0604111
-0.0599082
-0.0545795
-0.0497039
-0.0490023
-0.0523694
-0.0616421
-0.0792798
-0.097276
-0.10475
-0.0940835
-0.0737509
-0.0555833
-0.0396112
-0.0305651
-0.0215907
-0.0173403
-0.014736
-0.014305
-0.0135224
-0.012443
-0.0125751
-0.00690997
-0.430756
-0.396637
-0.35752
-0.314133
-0.267725
-0.22086
-0.176033
-0.135482
-0.101202
-0.0742441
-0.0550087
-0.043861
-0.0386112
-0.0374289
-0.0348007
-0.0368857
-0.0372774
-0.0393929
-0.044751
-0.0540567
-0.0680372
-0.088582
-0.118049
-0.155763
-0.194472
-0.221087
-0.223815
-0.201356
-0.164305
-0.125959
-0.0940604
-0.0704793
-0.054196
-0.0436724
-0.0379358
-0.0380045
-0.043151
-0.0484758
-0.0488653
-0.0452761
-0.0427103
-0.0442486
-0.049829
-0.0612553
-0.0812878
-0.101255
-0.10985
-0.0986992
-0.0765062
-0.0564731
-0.0389842
-0.0289746
-0.0187931
-0.013813
-0.0105739
-0.0105295
-0.0113524
-0.0114852
-0.0133253
-0.00780442
-0.414068
-0.380246
-0.344022
-0.303383
-0.258642
-0.212528
-0.167426
-0.125143
-0.0873751
-0.0555672
-0.030789
-0.0137343
-0.00389024
-0.000770645
-0.0034401
-0.00340582
-0.00686764
-0.0126446
-0.0212517
-0.0332741
-0.0496175
-0.0723089
-0.103637
-0.142847
-0.182974
-0.211261
-0.215996
-0.195678
-0.160473
-0.123344
-0.0918943
-0.0681143
-0.0511778
-0.0396962
-0.0325568
-0.0305603
-0.0335183
-0.037757
-0.0386171
-0.0364391
-0.035755
-0.0391366
-0.0466119
-0.0598889
-0.0820549
-0.103839
-0.113648
-0.102408
-0.0787278
-0.0570396
-0.038219
-0.0274015
-0.0162234
-0.0105538
-0.0066364
-0.0068553
-0.00921498
-0.0105225
-0.014038
-0.00869007
-0.391755
-0.359242
-0.327554
-0.29156
-0.250619
-0.207579
-0.16459
-0.123021
-0.0842754
-0.0497549
-0.0206817
0.00193055
0.0175193
0.0258051
0.0276686
0.0264843
0.0216678
0.0138757
0.00306233
-0.0111256
-0.0295569
-0.0541296
-0.086869
-0.126965
-0.167957
-0.197616
-0.204491
-0.18696
-0.154542
-0.119503
-0.0891356
-0.0655812
-0.0483093
-0.0361514
-0.0279329
-0.0242358
-0.0252333
-0.0283798
-0.0293497
-0.0282794
-0.0290147
-0.0337844
-0.0427806
-0.0575545
-0.0815208
-0.104923
-0.116043
-0.105117
-0.0803825
-0.0572899
-0.0373256
-0.0258501
-0.0138691
-0.00755797
-0.00295852
-0.00330286
-0.00712422
-0.00955788
-0.0147017
-0.00955871
-0.36676
-0.336714
-0.310265
-0.279488
-0.243367
-0.204824
-0.165549
-0.126474
-0.0887642
-0.0536867
-0.0224057
0.00407172
0.0248747
0.0391423
0.0466877
0.0484389
0.0450484
0.0374237
0.0259024
0.0104425
-0.00955302
-0.0355691
-0.0691914
-0.109526
-0.15062
-0.181226
-0.190116
-0.175791
-0.146912
-0.114708
-0.0859916
-0.0630541
-0.0457292
-0.0331418
-0.0241235
-0.0190688
-0.0183451
-0.0203968
-0.0213275
-0.0209694
-0.0226583
-0.0283434
-0.0384072
-0.0542602
-0.0797069
-0.104505
-0.116995
-0.106779
-0.0814825
-0.0572818
-0.0363438
-0.0243436
-0.0117567
-0.00483504
0.000436492
0.000117004
-0.00509241
-0.00859368
-0.0153049
-0.0104025
-0.342214
-0.315871
-0.294359
-0.268139
-0.236829
-0.203209
-0.168247
-0.132512
-0.0970679
-0.0629271
-0.0311823
-0.00289668
0.0210359
0.039868
0.0527907
0.0596547
0.0600808
0.0550149
0.0446322
0.029172
0.00852481
-0.0181176
-0.0517561
-0.0914692
-0.131998
-0.163094
-0.173599
-0.162951
-0.138305
-0.109575
-0.0829966
-0.0609939
-0.0438023
-0.0309325
-0.0212933
-0.0151226
-0.0128833
-0.0138619
-0.0146198
-0.0145906
-0.0168094
-0.0229199
-0.0336499
-0.0501969
-0.0766593
-0.102593
-0.116499
-0.107381
-0.0820666
-0.057114
-0.0353482
-0.0228913
-0.00989895
-0.00243813
0.00349682
0.00340508
-0.00313123
-0.00763165
-0.0158358
-0.0112131
-0.320649
-0.299486
-0.281964
-0.259119
-0.232177
-0.203317
-0.172613
-0.140438
-0.107748
-0.0752895
-0.0439693
-0.0147466
0.0114231
0.0334788
0.0504862
0.0618868
0.0659711
0.0649858
0.0576909
0.0438948
0.0237893
-0.00262144
-0.0356534
-0.0742601
-0.11339
-0.143926
-0.155714
-0.148571
-0.128651
-0.103996
-0.0800161
-0.0592507
-0.0423474
-0.0293072
-0.0192119
-0.0121312
-0.00853659
-0.00852793
-0.00917635
-0.00922651
-0.0116997
-0.0177097
-0.0284731
-0.0452304
-0.0725874
-0.0994898
-0.114563
-0.106706
-0.0819353
-0.0566501
-0.0342652
-0.021402
-0.00811958
-0.000322909
0.00612511
0.00655029
-0.00124518
-0.00666979
-0.0162863
-0.0119804
-0.301006
-0.287204
-0.272152
-0.251397
-0.22835
-0.204002
-0.177587
-0.149175
-0.11956
-0.0895788
-0.0600737
-0.0318783
-0.00571916
0.0176181
0.0377097
0.0527672
0.0629393
0.0658423
0.0624402
0.0520861
0.0345552
0.0103249
-0.0203071
-0.0559886
-0.0924087
-0.122099
-0.133583
-0.130039
-0.115258
-0.0950472
-0.0741041
-0.0551491
-0.0391104
-0.0264015
-0.0163552
-0.00889689
-0.00433531
-0.0034976
-0.00415375
-0.00468365
-0.00721007
-0.0130211
-0.0235529
-0.0400127
-0.0674932
-0.0948264
-0.11125
-0.104371
-0.080522
-0.0552086
-0.0325942
-0.0196262
-0.00605555
0.00184952
0.008569
0.00955006
0.000526377
-0.00571603
-0.0166343
-0.012706
-0.274142
-0.274521
-0.258626
-0.236893
-0.214661
-0.191994
-0.167738
-0.141651
-0.114314
-0.0864992
-0.0589408
-0.0323491
-0.00736719
0.0154315
0.035308
0.0504696
0.0608051
0.0658001
0.0648486
0.0566765
0.0407801
0.0176938
-0.0120498
-0.0471046
-0.0826703
-0.113427
-0.121013
-0.116768
-0.102955
-0.0846027
-0.0657177
-0.048563
-0.0338434
-0.0219816
-0.0124255
-0.00512014
-0.000198207
0.00127327
0.00103055
0.000711411
-0.00139245
-0.00649107
-0.0164962
-0.0329796
-0.0617342
-0.0910961
-0.10958
-0.103379
-0.0786766
-0.052915
-0.0302806
-0.0176591
-0.00385484
0.00408321
0.0114157
0.0126721
0.00231819
-0.00473963
-0.016892
-0.0134148
-0.248161
-0.252251
-0.237939
-0.216886
-0.195947
-0.175511
-0.154066
-0.130947
-0.106542
-0.0815941
-0.0567854
-0.032716
-0.00997609
0.0108809
0.0291401
0.0437813
0.0542291
0.0598408
0.0598135
0.0530311
0.0389415
0.0179533
-0.00925888
-0.0408638
-0.0714292
-0.0899174
-0.103054
-0.0999253
-0.0883851
-0.0730399
-0.0569953
-0.0420975
-0.0289382
-0.0180605
-0.0091323
-0.0021055
0.00294475
0.00474259
0.00463599
0.00411913
0.0022725
-0.00195308
-0.0111581
-0.0272026
-0.0564488
-0.0868325
-0.10569
-0.0997214
-0.0752585
-0.0499385
-0.0277634
-0.0154733
-0.00173783
0.00589502
0.0137413
0.0150224
0.00380519
-0.00394895
-0.0170047
-0.0139213
-0.224964
-0.229292
-0.217432
-0.198569
-0.179504
-0.16121
-0.142298
-0.121888
-0.100186
-0.0778707
-0.0555945
-0.0339056
-0.0133266
0.00565711
0.0224528
0.036133
0.0459864
0.0513967
0.0516477
0.0458408
0.0335288
0.0151393
-0.00835082
-0.0347493
-0.0593782
-0.0758172
-0.0854397
-0.0836319
-0.0748288
-0.0624807
-0.049021
-0.0361149
-0.0243612
-0.0143805
-0.00602943
0.000661436
0.00570758
0.00777268
0.00783811
0.00730639
0.00554854
0.00166424
-0.00717155
-0.0229233
-0.051741
-0.0814127
-0.0998278
-0.0946041
-0.0710492
-0.0465598
-0.0250447
-0.0131667
0.000365864
0.00764904
0.0158519
0.0169888
0.00508167
-0.00327332
-0.0169325
-0.0142603
-0.203054
-0.207448
-0.197992
-0.181653
-0.164574
-0.148183
-0.131462
-0.113505
-0.0943381
-0.0745246
-0.0546681
-0.0352651
-0.0167611
0.000391211
0.0155821
0.0280858
0.037245
0.0424634
0.0431158
0.0385075
0.0283309
0.0130589
-0.00620524
-0.0274956
-0.0473825
-0.0615571
-0.0692857
-0.068745
-0.0623084
-0.0525443
-0.0413933
-0.0303367
-0.0199503
-0.0108731
-0.00311023
0.00319218
0.00814309
0.0104435
0.0107924
0.0103833
0.00876937
0.00520435
-0.00337694
-0.0186652
-0.0462609
-0.0747116
-0.0927733
-0.0883403
-0.0660352
-0.0427076
-0.0221179
-0.0107385
0.00247393
0.00935098
0.0177486
0.0187649
0.00626725
-0.00258875
-0.0166572
-0.0144385
-0.182501
-0.18724
-0.179738
-0.16571
-0.150612
-0.136049
-0.121337
-0.10564
-0.088851
-0.0714023
-0.0538328
-0.0365988
-0.0201047
-0.00478021
0.00884044
0.0201811
0.0286663
0.0337568
0.0349249
0.0316634
0.0237733
0.011672
-0.00366646
-0.0206233
-0.0366109
-0.0485338
-0.0551165
-0.0554877
-0.0509901
-0.0434424
-0.0343224
-0.0249218
-0.0158037
-0.00760023
-0.00040872
0.00549087
0.0102772
0.0127577
0.0134265
0.0132389
0.0118732
0.00881101
0.000748346
-0.0135994
-0.0396581
-0.0669694
-0.0845012
-0.0808433
-0.0601897
-0.0384118
-0.0190122
-0.00821732
0.0045767
0.0109839
0.0193731
0.0203582
0.00741016
-0.00184731
-0.0161606
-0.0144237
-0.164001
-0.168669
-0.16264
-0.150676
-0.137517
-0.124739
-0.1119
-0.0982696
-0.0836726
-0.0684268
-0.0530004
-0.0378139
-0.0232352
-0.00964443
0.00251463
0.0127565
0.0205868
0.0255406
0.02719
0.0251719
0.0193576
0.0100842
-0.00183488
-0.0150729
-0.0276805
-0.0374678
-0.0431325
-0.0440946
-0.0410667
-0.0352914
-0.027871
-0.0199103
-0.0119465
-0.00458228
0.00205303
0.00755703
0.0121266
0.0147277
0.0157236
0.0158803
0.014837
0.0124614
0.00523449
-0.00784895
-0.0322439
-0.0582457
-0.0750189
-0.072209
-0.0535851
-0.0337225
-0.0157618
-0.00563321
0.00665611
0.0125415
0.0206862
0.0217151
0.00850357
-0.00103941
-0.0153899
-0.0141679
-0.147147
-0.151479
-0.146687
-0.136597
-0.12527
-0.11419
-0.103081
-0.0913265
-0.0787271
-0.0655113
-0.0520742
-0.0387916
-0.0259952
-0.0140189
-0.00322041
0.00597908
0.0131629
0.0179427
0.0199768
0.0190067
0.0149579
0.00811027
-0.000876107
-0.0109631
-0.0206679
-0.0285286
-0.0333262
-0.0345514
-0.0325304
-0.0281059
-0.0220762
-0.0153497
-0.0084161
-0.00184264
0.00425221
0.0093861
0.0137141
0.0163866
0.0176965
0.0183019
0.0176246
0.016104
0.0098951
-0.001765
-0.0242192
-0.0486419
-0.064544
-0.0626455
-0.0463482
-0.0287141
-0.0124115
-0.00301927
0.00869005
0.014029
0.0216623
0.0227881
0.00955189
-0.000123303
-0.0142723
-0.0136191
-0.131476
-0.135633
-0.13194
-0.123507
-0.113844
-0.10433
-0.0948011
-0.0847412
-0.073947
-0.0625801
-0.0509663
-0.0394339
-0.0282776
-0.0177914
-0.00826027
-4.45638e-05
0.00651167
0.0110885
0.0134158
0.0133094
0.0107346
0.00591667
-0.000642435
-0.00813945
-0.0154645
-0.0215683
-0.0254745
-0.0266887
-0.0253038
-0.0218742
-0.0169552
-0.0112682
-0.00523684
0.000607436
0.00617728
0.0109706
0.0150632
0.0177694
0.0193584
0.0204918
0.020283
0.0197009
0.0146223
0.00452357
-0.0157441
-0.0384562
-0.0534164
-0.0524493
-0.0386708
-0.023488
-0.00901353
-0.000409303
0.010653
0.0154633
0.0222985
0.0235684
0.0106069
0.000982017
-0.0127363
-0.0127253
-0.117178
-0.121171
-0.118367
-0.111358
-0.103181
-0.0950883
-0.08699
-0.078452
-0.0692775
-0.0595784
-0.04962
-0.0396828
-0.0300211
-0.0208779
-0.012529
-0.00523154
0.000725147
0.00507875
0.00761515
0.00820036
0.00681787
0.00364249
-0.000944794
-0.00632395
-0.0117447
-0.0162827
-0.0192908
-0.0203043
-0.0192776
-0.016553
-0.0125001
-0.00767582
-0.00242467
0.00276249
0.00782717
0.0123004
0.016182
0.0189056
0.0207298
0.0224383
0.023863
0.0232557
0.0194275
0.0109302
-0.00717835
-0.028162
-0.0420704
-0.0419964
-0.0308021
-0.0181697
-0.0056247
0.00216343
0.0125166
0.0168704
0.0226378
0.0241054
0.0117641
0.00237507
-0.0107225
-0.0114441
-0.104297
-0.107962
-0.105845
-0.100078
-0.0932309
-0.0864163
-0.0795994
-0.0724175
-0.0646853
-0.0564766
-0.048006
-0.0395092
-0.0312045
-0.023292
-0.0160012
-0.00954481
-0.00415556
-4.48282e-05
0.00261747
0.00372991
0.00328425
0.00141857
-0.00157245
-0.00522164
-0.00906545
-0.0123182
-0.0144833
-0.0151895
-0.0143231
-0.0120782
-0.00868683
-0.00456817
1.44888e-05
0.00462146
0.0092093
0.0133724
0.017064
0.019805
0.0218231
0.0239466
0.0258396
0.0265054
0.0241354
0.017108
0.000932896
-0.018276
-0.03097
-0.0317019
-0.0230292
-0.0129044
-0.00230423
0.00466733
0.014254
0.0182761
0.0227874
0.0245102
0.0131467
0.00415299
-0.0082013
-0.0097607
-0.0925136
-0.0958614
-0.0943407
-0.0896493
-0.0839679
-0.0782819
-0.0725974
-0.066611
-0.0601506
-0.0532605
-0.0461117
-0.0389028
-0.0318251
-0.0250102
-0.0186735
-0.012986
-0.0081332
-0.00428326
-0.00157125
-7.54072e-05
0.000198671
-0.000647178
-0.00237913
-0.00458425
-0.00719751
-0.00937584
-0.0107876
-0.0111432
-0.0103067
-0.00837394
-0.00547875
-0.00192851
0.0020855
0.00618686
0.010335
0.0141947
0.0177008
0.0204558
0.0226397
0.0250699
0.0273601
0.0291414
0.0281514
0.0223876
0.00804456
-0.00918402
-0.0205311
-0.0219779
-0.0156487
-0.00784808
0.000885886
0.0070698
0.0158449
0.0196921
0.0229205
0.0249432
0.0148841
0.00638153
-0.00520198
-0.00771469
-0.0817357
-0.084869
-0.0838337
-0.0800249
-0.0753525
-0.0706521
-0.0659575
-0.0610146
-0.0556638
-0.0499283
-0.043941
-0.0378633
-0.0318431
-0.0260385
-0.0205673
-0.0155829
-0.0112365
-0.00766104
-0.0049649
-0.00321106
-0.0024061
-0.0024816
-0.00328831
-0.00466842
-0.00599221
-0.00723104
-0.00798022
-0.00798256
-0.00709724
-0.00535711
-0.00282871
0.000269102
0.00380285
0.00746571
0.0112152
0.0147816
0.0180945
0.020846
0.0231582
0.0258216
0.028343
0.0308017
0.0307823
0.0261129
0.01378
-0.00114979
-0.0111305
-0.013203
-0.00893034
-0.00315105
0.00388188
0.00933128
0.0172708
0.021098
0.0232514
0.0255799
0.0170642
0.00904608
-0.00184995
-0.00541935
-0.0720099
-0.074894
-0.0742572
-0.0712411
-0.0673861
-0.063513
-0.0596639
-0.0556193
-0.0512284
-0.0464954
-0.0415248
-0.0364435
-0.0313713
-0.0264331
-0.0217319
-0.0173871
-0.0135163
-0.0102248
-0.00759934
-0.00569257
-0.00451352
-0.00400898
-0.00405178
-0.0045588
-0.00514995
-0.00567057
-0.00586743
-0.00554388
-0.00457008
-0.00294174
-0.000682414
0.00205747
0.0051886
0.00847104
0.0118611
0.0151473
0.0182587
0.0209725
0.0233478
0.0259856
0.0286719
0.031297
0.0317633
0.0280668
0.0179594
0.00554004
-0.00312545
-0.00566939
-0.00306897
0.00106687
0.00662557
0.0114047
0.0185073
0.0224233
0.0239635
0.0265425
0.0196621
0.0119951
0.00160968
-0.00306126
-0.0632083
-0.0658115
-0.0654645
-0.0630794
-0.0599774
-0.0568364
-0.0537121
-0.0504283
-0.046853
-0.0429766
-0.0388755
-0.034658
-0.0304186
-0.026247
-0.0222326
-0.0184665
-0.0150406
-0.0120379
-0.00952808
-0.00755536
-0.00613253
-0.00522827
-0.00478203
-0.00460149
-0.00458102
-0.00453813
-0.00428941
-0.00368374
-0.00260953
-0.00104258
0.00101861
0.00347516
0.00626955
0.00922117
0.0122885
0.015307
0.0182109
0.0208451
0.023226
0.0257924
0.0283786
0.0307872
0.0313797
0.0285081
0.0205825
0.0106288
0.0032622
0.000491932
0.00185002
0.0047331
0.00907146
0.0132451
0.019529
0.0235541
0.0250828
0.0278196
0.0224843
0.0149166
0.00483812
-0.000870879
-0.0552023
-0.0575561
-0.0574432
-0.0555917
-0.0531115
-0.0505862
-0.0480791
-0.0454437
-0.0425616
-0.0394156
-0.0360625
-0.0325839
-0.0290582
-0.0255566
-0.0221479
-0.0189018
-0.0158892
-0.0131751
-0.0108148
-0.00884523
-0.00728153
-0.00610348
-0.00526111
-0.00465272
-0.00417799
-0.00370918
-0.00311457
-0.00227872
-0.00111073
0.000422195
0.00233426
0.00456439
0.00707636
0.00973926
0.0125159
0.015279
0.0179722
0.0204835
0.0228029
0.0252117
0.0275576
0.0295846
0.0301149
0.0278984
0.0218687
0.0141307
0.00805825
0.00531926
0.00584022
0.00782321
0.0111877
0.0148189
0.0203248
0.0243794
0.0263752
0.0291836
0.0251508
0.0174074
0.00750495
0.000946907
-0.047953
-0.0500804
-0.0501437
-0.0487276
-0.0467629
-0.0447532
-0.0427628
-0.0406703
-0.0383701
-0.0358394
-0.0331184
-0.0302709
-0.027359
-0.0244379
-0.0215602
-0.0187791
-0.0161486
-0.0137183
-0.0115323
-0.00962185
-0.00800239
-0.00666265
-0.00556937
-0.00466059
-0.00386311
-0.00308587
-0.00223512
-0.00122354
1.97093e-05
0.00152921
0.00332393
0.00536891
0.00764217
0.0100516
0.0125648
0.0150838
0.017563
0.0199157
0.0221131
0.0243028
0.0263491
0.0279815
0.0283873
0.026683
0.0221922
0.0163219
0.0114728
0.008966
0.00897794
0.0103484
0.012955
0.0161012
0.0208848
0.0248456
0.0274168
0.0301595
0.0271406
0.0191299
0.00941169
0.00228682
-0.0414136
-0.0433173
-0.043503
-0.0424389
-0.0409009
-0.0393197
-0.0377576
-0.0361149
-0.0342982
-0.0322815
-0.0300923
-0.0277793
-0.0253908
-0.0229695
-0.020555
-0.0181873
-0.015907
-0.0137516
-0.0117562
-0.00994943
-0.00834055
-0.00692664
-0.00568893
-0.00458951
-0.00357871
-0.00259194
-0.00156409
-0.00042991
0.000863508
0.0023487
0.00404445
0.00593284
0.00800115
0.0101857
0.0124596
0.0147461
0.0170083
0.0191754
0.0212114
0.0231576
0.0249025
0.0261956
0.026488
0.0251925
0.0219094
0.0175475
0.0137838
0.011629
0.011367
0.012338
0.0143644
0.0170731
0.0211797
0.0249206
0.0278228
0.0302646
0.0279799
0.0199364
0.0105387
0.00315179
-0.0355023
-0.037195
-0.0374659
-0.0366859
-0.0354983
-0.0342699
-0.0330597
-0.0317861
-0.0303675
-0.0287764
-0.0270307
-0.0251668
-0.0232219
-0.0212284
-0.0192158
-0.0172137
-0.0152519
-0.0133589
-0.0115677
-0.00988715
-0.00833883
-0.00691834
-0.00561977
-0.00441872
-0.00328337
-0.00216918
-0.00103234
0.000175084
0.00149094
0.00294365
0.0045488
0.00629937
0.00818768
0.0101702
0.0122257
0.0142926
0.0163418
0.0183072
0.0201588
0.0218663
0.0233416
0.0243704
0.0245913
0.0236316
0.0212754
0.0181027
0.0152513
0.013496
0.0131162
0.0138319
0.0154137
0.0177245
0.0211879
0.0245731
0.0274007
0.0292773
0.0275213
0.0198798
0.0109856
0.00360555
-0.0301574
-0.0316593
-0.0319869
-0.0314329
-0.0305299
-0.029589
-0.0286651
-0.0276916
-0.0265978
-0.0253562
-0.0239773
-0.0224881
-0.0209167
-0.0192872
-0.0176215
-0.0159412
-0.014268
-0.0126232
-0.0110253
-0.00949679
-0.00804331
-0.00666895
-0.0053724
-0.00413878
-0.00294951
-0.0017747
-0.000586158
0.000650621
0.00196126
0.00336912
0.00488557
0.00650972
0.00823607
0.0100351
0.0118906
0.0137512
0.015596
0.0173593
0.0190178
0.0205058
0.0217569
0.0225945
0.0227879
0.0221091
0.0204553
0.0181979
0.0160889
0.014728
0.0143302
0.0148773
0.0161159
0.0180588
0.0209016
0.0238138
0.0262419
0.0274325
0.0259966
0.0191221
0.0108923
0.00373479
-0.0253362
-0.0266619
-0.0270211
-0.026644
-0.02597
-0.0252616
-0.0245688
-0.0238372
-0.0230061
-0.0220492
-0.0209716
-0.0197928
-0.0185338
-0.0172125
-0.0158446
-0.0144455
-0.0130331
-0.0116274
-0.0102182
-0.00884209
-0.00750561
-0.00621266
-0.0049635
-0.00374953
-0.00256095
-0.00137845
-0.000185006
0.00104352
0.00232328
0.00367241
0.00509812
0.00660212
0.0081798
0.0098105
0.0114817
0.0131503
0.0148017
0.0163724
0.017845
0.0191398
0.0202116
0.020918
0.0211177
0.0206741
0.0195461
0.0179828
0.0164627
0.0154578
0.0150993
0.0155275
0.0164952
0.0180934
0.0203418
0.0226919
0.0245958
0.0251264
0.0238046
0.0178654
0.0104151
0.00363667
-0.0209902
-0.0221533
-0.022525
-0.0222853
-0.0217946
-0.0212729
-0.0207649
-0.0202267
-0.0196065
-0.0188796
-0.0180478
-0.0171246
-0.0161254
-0.0150629
-0.013948
-0.0127906
-0.0116021
-0.0103918
-0.00918455
-0.00797354
-0.00677132
-0.00558399
-0.00441423
-0.0032578
-0.00211067
-0.000961016
0.000200379
0.00138976
0.00261628
0.00389323
0.00522406
0.00661112
0.00804994
0.00952488
0.0110261
0.0125176
0.0139892
0.0153819
0.0166839
0.0178149
0.0187461
0.0193662
0.019591
0.0193407
0.0186045
0.0175623
0.0164993
0.0157914
0.0155005
0.0158392
0.0165829
0.0178587
0.0195626
0.0213062
0.0226199
0.0226678
0.0213239
0.016312
0.00970002
0.00340217
-0.0170738
-0.0180897
-0.0184608
-0.0183265
-0.0179813
-0.0176082
-0.017247
-0.0168621
-0.0164098
-0.0158677
-0.0152349
-0.0145211
-0.0137371
-0.0128917
-0.0119925
-0.0110461
-0.0100609
-0.00904525
-0.00800713
-0.0069522
-0.00588779
-0.00481873
-0.00374855
-0.00267546
-0.00159871
-0.000511616
0.000589795
0.00171591
0.00287092
0.00406384
0.00529539
0.00656699
0.00787399
0.00920422
0.0105496
0.011879
0.0131853
0.0144173
0.0155675
0.0165623
0.0173839
0.0179471
0.0182035
0.0181092
0.0176631
0.0170053
0.0162907
0.0158188
0.0155999
0.0158658
0.0164198
0.0173935
0.0186227
0.0198148
0.0206354
0.0202674
0.0188334
0.0146333
0.00885894
0.00310186
-0.0135503
-0.0144335
-0.0147941
-0.0147394
-0.0145086
-0.0142531
-0.0140074
-0.0137431
-0.0134235
-0.0130288
-0.0125565
-0.0120131
-0.0114063
-0.010742
-0.010025
-0.00925928
-0.00844971
-0.00760151
-0.00672666
-0.00582281
-0.00489599
-0.00395079
-0.00299141
-0.00201763
-0.0010304
-2.63217e-05
0.000995277
0.00204042
0.00311011
0.00420979
0.00533805
0.00649516
0.0076764
0.00887131
0.0100733
0.0112561
0.0124135
0.0135019
0.0145174
0.0153988
0.0161343
0.0166589
0.0169453
0.0169723
0.0167396
0.0163599
0.0159041
0.0156112
0.015455
0.0156569
0.0160489
0.016745
0.0175741
0.0182915
0.0186923
0.0180306
0.0165001
0.0129546
0.00796981
0.00278133
-0.0103861
-0.0111499
-0.0114931
-0.0114978
-0.0113563
-0.011193
-0.0110377
-0.0108676
-0.0106523
-0.0103744
-0.0100307
-0.00962533
-0.00916375
-0.00864981
-0.00808623
-0.00747535
-0.00682009
-0.00612437
-0.00539328
-0.00462876
-0.00383401
-0.00301231
-0.00216783
-0.00130143
-0.000414809
0.000493568
0.00142247
0.00237493
0.00334983
0.00434987
0.00537246
0.00641647
0.00747725
0.00854556
0.00961533
0.0106654
0.0116897
0.0126514
0.0135481
0.0143338
0.0149992
0.0154946
0.0158043
0.015922
0.0158431
0.0156574
0.0153892
0.0152278
0.0151177
0.0152588
0.0155137
0.0159622
0.0164629
0.0167919
0.0168469
0.015999
0.0144027
0.011361
0.00708599
0.00246675
-0.0075504
-0.00820773
-0.00852959
-0.00857753
-0.00850536
-0.00841415
-0.00832892
-0.00823184
-0.00809786
-0.007912
-0.00767079
-0.00737675
-0.0070335
-0.0066435
-0.00620808
-0.00572832
-0.00520573
-0.00464214
-0.00404085
-0.00340423
-0.00273412
-0.00203211
-0.00130181
-0.000544861
0.000236542
0.00104287
0.00187212
0.00272528
0.0036001
0.00449731
0.00541361