/*--------------------------------*- C++ -*----------------------------------*\
| =========                 |                                                 |
| \\      /  F ield         | OpenFOAM: The Open Source CFD Toolbox           |
|  \\    /   O peration     | Version:  2512                                  |
|   \\  /    A nd           | Website:  www.openfoam.com                      |
|    \\/     M anipulation  |                                                 |
\*---------------------------------------------------------------------------*/
FoamFile
{
    version     2.0;
    format      ascii;
    arch        "LSB;label=32;scalar=64";
    class       volScalarField;
    location    "64";
    object      p;
}
// * * * * * * * * * * * * * * * * * * * * * * * * * * * * * * * * * * * * * //

dimensions      [0 2 -2 0 0 0 0];

internalField   nonuniform List<scalar> 
13248
(
-0.302395
-0.301277
-0.299629
-0.297571
-0.295195
-0.292546
-0.289621
-0.286378
-0.282758
-0.278696
-0.274135
-0.269037
-0.26339
-0.257216
-0.250569
-0.243536
-0.236221
-0.228745
-0.221223
-0.213787
-0.20648
-0.199534
-0.19259
-0.18643
-0.30981
-0.307873
-0.305478
-0.302729
-0.299695
-0.296433
-0.292933
-0.28914
-0.284972
-0.280342
-0.275182
-0.269448
-0.263139
-0.256292
-0.248985
-0.241323
-0.233424
-0.225413
-0.217406
-0.209502
-0.20177
-0.194284
-0.186949
-0.180192
-0.318392
-0.315508
-0.312262
-0.308736
-0.304967
-0.30101
-0.296845
-0.292384
-0.287516
-0.282133
-0.276158
-0.269563
-0.262371
-0.254655
-0.246528
-0.238121
-0.229573
-0.221014
-0.212554
-0.204284
-0.196244
-0.188505
-0.180973
-0.173923
-0.328303
-0.324337
-0.320149
-0.31578
-0.311206
-0.306464
-0.301499
-0.296184
-0.290374
-0.283955
-0.276871
-0.269134
-0.260822
-0.252062
-0.243007
-0.233818
-0.22464
-0.215597
-0.20678
-0.198249
-0.190029
-0.182163
-0.174555
-0.167524
-0.339677
-0.334494
-0.329288
-0.324022
-0.318564
-0.312905
-0.30694
-0.300496
-0.293419
-0.285626
-0.277121
-0.267995
-0.258399
-0.248517
-0.238535
-0.228617
-0.218893
-0.209457
-0.200366
-0.191649
-0.183313
-0.175367
-0.167746
-0.160683
-0.352568
-0.346051
-0.339771
-0.333552
-0.327098
-0.320319
-0.313053
-0.305111
-0.296377
-0.286853
-0.276652
-0.265965
-0.255016
-0.244024
-0.233174
-0.222606
-0.212413
-0.202647
-0.193331
-0.184465
-0.176038
-0.168037
-0.160413
-0.153336
-0.366897
-0.358966
-0.351572
-0.344323
-0.336692
-0.328487
-0.319516
-0.309635
-0.29884
-0.28728
-0.275202
-0.262891
-0.250613
-0.238583
-0.226954
-0.215819
-0.205221
-0.195173
-0.185665
-0.176675
-0.168177
-0.160142
-0.152535
-0.145443
-0.382405
-0.373035
-0.364497
-0.356092
-0.347005
-0.336958
-0.3258
-0.313527
-0.300328
-0.286534
-0.272519
-0.258623
-0.245107
-0.232144
-0.219829
-0.208198
-0.197248
-0.186955
-0.177284
-0.168195
-0.159648
-0.151604
-0.144037
-0.136951
-0.398625
-0.387855
-0.378139
-0.36838
-0.357455
-0.345067
-0.331228
-0.316181
-0.300364
-0.284283
-0.268393
-0.253032
-0.238411
-0.224632
-0.211724
-0.199668
-0.188419
-0.177924
-0.168126
-0.158971
-0.150407
-0.14239
-0.13489
-0.127839
-0.414857
-0.40279
-0.391835
-0.380436
-0.367209
-0.351971
-0.33504
-0.316992
-0.298517
-0.280244
-0.26264
-0.245987
-0.230413
-0.215941
-0.202535
-0.190128
-0.178641
-0.167996
-0.158119
-0.148941
-0.140402
-0.132452
-0.125041
-0.11806
-0.43018
-0.416956
-0.404655
-0.391248
-0.375226
-0.356699
-0.336418
-0.315326
-0.29431
-0.274046
-0.254945
-0.237195
-0.220828
-0.205792
-0.191992
-0.17932
-0.167671
-0.156947
-0.147057
-0.13792
-0.129467
-0.12164
-0.114357
-0.107508
-0.443535
-0.429341
-0.415561
-0.39974
-0.380441
-0.358266
-0.334498
-0.310425
-0.28706
-0.265043
-0.24468
-0.22604
-0.209059
-0.19361
-0.17955
-0.166735
-0.155035
-0.144334
-0.134528
-0.125527
-0.117253
-0.109638
-0.102572
-0.09599
-0.289415
-0.291415
-0.292637
-0.293414
-0.29405
-0.294627
-0.295176
-0.295711
-0.296227
-0.296709
-0.297136
-0.297483
-0.297722
-0.297822
-0.29775
-0.29747
-0.296941
-0.296122
-0.294971
-0.293547
-0.291765
-0.289619
-0.287181
-0.284713
-0.284988
-0.287141
-0.288419
-0.289171
-0.289711
-0.290113
-0.2904
-0.290578
-0.290638
-0.290561
-0.290319
-0.289884
-0.289224
-0.288308
-0.287107
-0.285593
-0.28373
-0.28151
-0.278931
-0.276014
-0.272771
-0.269205
-0.265439
-0.262118
-0.281531
-0.283734
-0.285009
-0.285706
-0.28613
-0.286347
-0.28637
-0.286201
-0.285824
-0.285215
-0.284344
-0.283178
-0.281684
-0.279833
-0.277596
-0.274951
-0.271898
-0.268426
-0.264554
-0.260326
-0.2558
-0.251001
-0.246025
-0.241771
-0.279124
-0.281289
-0.282508
-0.283118
-0.28341
-0.283435
-0.283201
-0.282701
-0.281916
-0.280817
-0.279372
-0.277546
-0.275308
-0.272629
-0.269489
-0.265875
-0.26179
-0.257247
-0.252279
-0.24695
-0.241358
-0.235574
-0.2296
-0.224166
-0.27779
-0.27984
-0.280957
-0.281453
-0.281595
-0.281424
-0.280938
-0.280127
-0.278966
-0.277425
-0.275469
-0.273064
-0.270181
-0.266795
-0.262892
-0.25847
-0.253542
-0.248138
-0.24231
-0.236138
-0.229738
-0.223207
-0.216536
-0.210562
-0.277509
-0.279387
-0.280359
-0.28071
-0.280683
-0.280308
-0.279576
-0.278471
-0.276968
-0.275033
-0.272633
-0.269733
-0.266308
-0.262339
-0.257819
-0.252757
-0.247178
-0.24113
-0.234681
-0.227923
-0.220985
-0.213991
-0.206934
-0.200256
-0.278244
-0.279898
-0.280684
-0.28086
-0.280641
-0.280049
-0.279073
-0.277693
-0.27588
-0.273602
-0.270824
-0.267515
-0.263655
-0.259229
-0.254239
-0.248706
-0.242671
-0.236195
-0.229364
-0.222283
-0.215086
-0.20789
-0.20091
-0.193205
-0.279952
-0.281333
-0.28189
-0.281852
-0.281412
-0.280588
-0.279366
-0.277724
-0.275632
-0.273058
-0.269968
-0.266335
-0.262139
-0.257375
-0.252057
-0.246214
-0.239901
-0.233197
-0.226201
-0.219029
-0.211841
-0.204583
-0.198216
-0.189634
-0.282598
-0.283649
-0.283924
-0.283627
-0.282928
-0.281847
-0.280369
-0.27847
-0.276116
-0.273287
-0.269938
-0.266046
-0.261597
-0.256592
-0.251053
-0.245023
-0.23857
-0.231786
-0.224786
-0.217678
-0.210719
-0.203512
-0.197982
-0.189372
-0.286158
-0.286809
-0.286737
-0.286121
-0.285114
-0.283737
-0.281979
-0.279815
-0.277217
-0.274133
-0.270544
-0.266424
-0.26176
-0.256559
-0.250851
-0.24469
-0.238157
-0.231358
-0.224425
-0.217456
-0.210791
-0.203882
-0.198921
-0.191272
-0.290626
-0.290792
-0.290289
-0.289276
-0.287888
-0.286155
-0.284066
-0.281595
-0.278707
-0.275358
-0.271514
-0.267149
-0.262253
-0.256837
-0.250941
-0.244627
-0.237987
-0.231137
-0.224212
-0.217339
-0.210793
-0.204337
-0.199488
-0.19326
-0.296024
-0.295604
-0.294568
-0.293066
-0.291209
-0.289038
-0.286547
-0.283707
-0.280474
-0.276799
-0.272639
-0.267963
-0.262761
-0.25705
-0.250872
-0.244302
-0.237436
-0.230392
-0.223292
-0.216285
-0.209493
-0.20309
-0.197608
-0.192448
-0.281854
-0.277901
-0.273536
-0.268871
-0.26421
-0.260021
-0.256899
-0.255521
-0.256531
-0.260304
-0.267068
-0.276275
-0.286621
-0.296058
-0.301961
-0.301597
-0.292279
-0.273059
-0.245014
-0.211758
-0.178371
-0.149476
-0.12791
-0.114824
-0.110979
-0.117357
-0.132935
-0.151938
-0.164786
-0.164128
-0.149187
-0.126469
-0.104218
-0.0882393
-0.0801515
-0.0787366
-0.0848091
-0.100477
-0.121389
-0.135623
-0.132832
-0.115134
-0.0932349
-0.0760171
-0.0652534
-0.0605101
-0.0637644
-0.0723724
-0.0775887
-0.0743664
-0.0656945
-0.0562976
-0.0479221
-0.0415397
-0.039099
-0.03963
-0.0351767
-0.0280518
-0.0185235
-0.00474078
-0.25931
-0.255929
-0.252907
-0.250355
-0.248628
-0.248232
-0.249679
-0.253564
-0.260389
-0.269857
-0.282265
-0.296437
-0.310744
-0.322868
-0.330036
-0.329362
-0.318269
-0.295689
-0.263001
-0.224377
-0.185504
-0.151417
-0.125155
-0.107722
-0.0994043
-0.100888
-0.111722
-0.127509
-0.140004
-0.141792
-0.131409
-0.113902
-0.0966579
-0.0851443
-0.0807056
-0.0823714
-0.0917547
-0.110945
-0.134549
-0.149357
-0.144662
-0.123713
-0.0979872
-0.0770941
-0.0634408
-0.0561192
-0.0566661
-0.0628002
-0.0671052
-0.0653979
-0.0597921
-0.0536392
-0.0479553
-0.0441132
-0.0435447
-0.0449505
-0.0399732
-0.031051
-0.0200529
-0.00516178
-0.239358
-0.236583
-0.234815
-0.23412
-0.23489
-0.23771
-0.242954
-0.251047
-0.262331
-0.276517
-0.293129
-0.31094
-0.32808
-0.342076
-0.350116
-0.349291
-0.336915
-0.311849
-0.275635
-0.232864
-0.189666
-0.151381
-0.121153
-0.0998588
-0.0874195
-0.0841921
-0.090285
-0.102588
-0.114268
-0.118271
-0.112165
-0.0998162
-0.0877158
-0.0807969
-0.08006
-0.0848993
-0.0976406
-0.12026
-0.146398
-0.161677
-0.155161
-0.131216
-0.102038
-0.0777536
-0.0614112
-0.0517653
-0.0498731
-0.0536931
-0.0570777
-0.0567034
-0.0539329
-0.0508534
-0.0478727
-0.0467019
-0.048106
-0.0502996
-0.0446913
-0.0340482
-0.021573
-0.00557013
-0.222423
-0.220673
-0.219852
-0.220529
-0.223212
-0.228362
-0.236388
-0.247585
-0.262026
-0.279352
-0.298807
-0.319035
-0.338039
-0.353259
-0.361937
-0.361116
-0.348
-0.321383
-0.282895
-0.237376
-0.191234
-0.150009
-0.116763
-0.0922569
-0.0762235
-0.0686706
-0.070018
-0.0785306
-0.0887392
-0.0943151
-0.0920414
-0.0846415
-0.0776121
-0.0751962
-0.078027
-0.0859647
-0.101946
-0.127864
-0.156502
-0.172328
-0.16418
-0.137516
-0.105314
-0.0780215
-0.0592342
-0.0475349
-0.0435157
-0.0452449
-0.0477067
-0.048435
-0.0481876
-0.0479618
-0.0476722
-0.0492819
-0.0527436
-0.0556323
-0.0493578
-0.0369984
-0.0230592
-0.00596374
-0.210065
-0.207992
-0.207592
-0.209285
-0.213346
-0.220146
-0.229999
-0.243081
-0.259357
-0.278423
-0.299422
-0.320922
-0.340898
-0.356956
-0.365916
-0.36513
-0.351742
-0.324516
-0.285086
-0.238369
-0.190859
-0.148012
-0.112742
-0.085722
-0.0666248
-0.0552572
-0.0520435
-0.0564544
-0.0645459
-0.070802
-0.0717407
-0.0688344
-0.0665403
-0.0682807
-0.0743876
-0.0852075
-0.104238
-0.133334
-0.164466
-0.181006
-0.171536
-0.14254
-0.107795
-0.0779477
-0.0569896
-0.0435003
-0.0376591
-0.0375678
-0.0391396
-0.0407141
-0.0426131
-0.044979
-0.0473436
-0.051822
-0.0574131
-0.0609041
-0.0539156
-0.0398567
-0.0244854
-0.00633979
-0.200892
-0.199242
-0.19877
-0.200789
-0.20554
-0.213177
-0.223873
-0.237751
-0.254722
-0.274345
-0.295748
-0.317507
-0.337549
-0.353531
-0.362807
-0.362051
-0.348777
-0.32179
-0.282719
-0.2364
-0.189078
-0.145888
-0.109562
-0.0807539
-0.0591547
-0.0445009
-0.0371326
-0.0372758
-0.0426268
-0.0486659
-0.0519625
-0.052841
-0.0546629
-0.0600171
-0.0690134
-0.0824266
-0.104252
-0.136343
-0.169934
-0.187402
-0.177066
-0.146246
-0.109467
-0.0775649
-0.0547366
-0.0397076
-0.0323234
-0.0307042
-0.0314524
-0.0336132
-0.0372459
-0.0419116
-0.0468708
-0.0542853
-0.0620632
-0.0660758
-0.0583156
-0.0425827
-0.0258263
-0.00669486
-0.195324
-0.194318
-0.193371
-0.19502
-0.199809
-0.207571
-0.218278
-0.232026
-0.248724
-0.267922
-0.288797
-0.310087
-0.330009
-0.344834
-0.353743
-0.352952
-0.34014
-0.314157
-0.27664
-0.232152
-0.186401
-0.144006
-0.107484
-0.0775619
-0.0540335
-0.0366416
-0.0256345
-0.0215969
-0.0236745
-0.0285933
-0.0332307
-0.0370213
-0.0421658
-0.0504821
-0.0618969
-0.0775421
-0.101843
-0.136673
-0.172639
-0.191276
-0.180676
-0.148614
-0.110327
-0.0768832
-0.0525121
-0.0361833
-0.027493
-0.0246249
-0.0246431
-0.0271469
-0.0321062
-0.0387635
-0.0462352
-0.0566331
-0.0666386
-0.0711109
-0.0625171
-0.0451411
-0.027058
-0.00702469
-0.193091
-0.192819
-0.191133
-0.191882
-0.196133
-0.203391
-0.213406
-0.226278
-0.241928
-0.2599
-0.279389
-0.299351
-0.319715
-0.332203
-0.339959
-0.339022
-0.32694
-0.302649
-0.267724
-0.226238
-0.183152
-0.142467
-0.106474
-0.0760341
-0.0511452
-0.0315946
-0.0175564
-0.00968902
-0.00815021
-0.0110729
-0.0157647
-0.0215942
-0.0292366
-0.0398153
-0.0531205
-0.0705963
-0.0969724
-0.134189
-0.17242
-0.192489
-0.182308
-0.149633
-0.11039
-0.075914
-0.0503469
-0.0329485
-0.0231538
-0.0192661
-0.0186479
-0.0212467
-0.0272041
-0.0355379
-0.0454166
-0.0588245
-0.0710777
-0.0759667
-0.0664825
-0.0475025
-0.0281619
-0.00732485
-0.193399
-0.193496
-0.191045
-0.190868
-0.194195
-0.200361
-0.209085
-0.220495
-0.234493
-0.250624
-0.268
-0.285254
-0.299947
-0.315143
-0.32236
-0.321406
-0.310357
-0.288369
-0.256848
-0.219194
-0.179503
-0.141164
-0.106275
-0.0758373
-0.0501139
-0.0289943
-0.0125782
-0.00145811
0.00371637
0.00350269
-0.00026135
-0.00675639
-0.0160358
-0.0281819
-0.0428127
-0.0616492
-0.089734
-0.129072
-0.169387
-0.191058
-0.181926
-0.149375
-0.109806
-0.074798
-0.0483717
-0.0300804
-0.0193296
-0.0145898
-0.0133899
-0.0153113
-0.0225457
-0.0322321
-0.0443866
-0.0608225
-0.075315
-0.0805945
-0.0701748
-0.0496473
-0.0291304
-0.0075935
-0.194657
-0.19428
-0.19152
-0.190899
-0.193139
-0.197767
-0.20479
-0.214323
-0.226207
-0.240055
-0.255173
-0.270672
-0.284047
-0.296101
-0.302419
-0.301644
-0.292012
-0.272888
-0.245359
-0.212047
-0.176175
-0.140576
-0.107205
-0.0771825
-0.0510225
-0.0287918
-0.0105345
0.00325176
0.0117935
0.0147522
0.0129783
0.0073037
-0.00275447
-0.0157828
-0.031233
-0.0510727
-0.080469
-0.121391
-0.163626
-0.18709
-0.179591
-0.148056
-0.1089
-0.0738195
-0.0468241
-0.0277246
-0.0160567
-0.0105529
-0.00888105
-0.010703
-0.018135
-0.0288421
-0.0431293
-0.0625708
-0.0792739
-0.0849243
-0.0735551
-0.051562
-0.0299625
-0.00783186
-0.194873
-0.193576
-0.191306
-0.190652
-0.191775
-0.194825
-0.200098
-0.207608
-0.217227
-0.228707
-0.241591
-0.256433
-0.266416
-0.275624
-0.281229
-0.280958
-0.273264
-0.25757
-0.234538
-0.20597
-0.174242
-0.141661
-0.110069
-0.0807188
-0.0543591
-0.0312976
-0.0116037
0.00437428
0.0159373
0.0223223
0.0234177
0.0200017
0.0100588
-0.00296038
-0.018525
-0.0388473
-0.0693854
-0.112157
-0.156041
-0.180565
-0.175184
-0.145426
-0.107434
-0.0726768
-0.045446
-0.0257134
-0.0131791
-0.00692395
-0.00496693
-0.00669195
-0.0139731
-0.0253197
-0.0415589
-0.0640568
-0.0829118
-0.0888601
-0.0765387
-0.0531943
-0.0306275
-0.00802995
-0.192392
-0.191366
-0.189845
-0.188851
-0.189032
-0.190836
-0.194412
-0.199714
-0.206713
-0.215133
-0.224534
-0.233401
-0.245728
-0.253501
-0.257833
-0.257794
-0.251888
-0.239433
-0.220639
-0.196572
-0.168898
-0.13949
-0.110065
-0.0819646
-0.0560929
-0.0329572
-0.0127773
0.00425842
0.0178481
0.0273508
0.0316265
0.0294976
0.0215618
0.00936284
-0.00587041
-0.0262379
-0.0571343
-0.100578
-0.145391
-0.171212
-0.16742
-0.139898
-0.103418
-0.0694528
-0.042658
-0.0229721
-0.0100953
-0.00326711
-0.0011081
-0.00282482
-0.00998104
-0.021783
-0.0397349
-0.0651362
-0.086073
-0.0923554
-0.079006
-0.0544159
-0.0310369
-0.00814828
-0.186583
-0.188433
-0.187065
-0.185575
-0.185445
-0.186948
-0.18998
-0.194469
-0.200402
-0.207616
-0.215793
-0.224498
-0.232774
-0.238987
-0.242191
-0.241175
-0.234798
-0.22255
-0.204688
-0.182183
-0.156481
-0.129191
-0.101787
-0.0754273
-0.0509016
-0.0286781
-0.00898658
0.00799515
0.0220342
0.0327735
0.0391824
0.0404798
0.0344249
0.0238442
0.00964024
-0.0106312
-0.0430865
-0.0901652
-0.13898
-0.167192
-0.162575
-0.133473
-0.0971628
-0.0641604
-0.0383058
-0.0192592
-0.00673821
0.000274891
0.00286997
0.00175387
-0.00499789
-0.0172487
-0.0370285
-0.0657115
-0.0891268
-0.0957906
-0.0811344
-0.0552168
-0.0311705
-0.00817477
-0.179712
-0.183556
-0.182647
-0.180827
-0.180411
-0.181742
-0.184489
-0.188404
-0.193396
-0.199327
-0.205872
-0.21243
-0.218414
-0.222693
-0.22411
-0.221744
-0.214822
-0.202995
-0.186506
-0.166133
-0.14301
-0.118401
-0.093494
-0.0692654
-0.0464211
-0.0254234
-0.00655996
0.0100274
0.0242492
0.0358003
0.0435558
0.0447839
0.0423842
0.034044
0.0213767
0.00162138
-0.0319663
-0.0814418
-0.131762
-0.159301
-0.153028
-0.12418
-0.089497
-0.0584109
-0.03408
-0.0159201
-0.00368665
0.00346113
0.00622214
0.00539288
-0.00103654
-0.0134317
-0.0347603
-0.0663167
-0.0917555
-0.09836
-0.0824979
-0.0555517
-0.0310628
-0.00817622
-0.171364
-0.176711
-0.176577
-0.174838
-0.174279
-0.175452
-0.177916
-0.181251
-0.185261
-0.189797
-0.194652
-0.199393
-0.20344
-0.205875
-0.205847
-0.202659
-0.195732
-0.184791
-0.16997
-0.151806
-0.13114
-0.10897
-0.0862843
-0.063942
-0.042607
-0.0227395
-0.00464266
0.0114952
0.0255938
0.0374359
0.0461442
0.0495406
0.048368
0.0415835
0.0299206
0.0100802
-0.0247441
-0.074645
-0.122995
-0.148441
-0.141214
-0.113799
-0.0814737
-0.0525774
-0.0298064
-0.0125724
-0.00071432
0.00652268
0.00951877
0.00903506
0.0027447
-0.0100838
-0.0330981
-0.0671308
-0.0939531
-0.100238
-0.0833014
-0.0555393
-0.0307671
-0.00816017
-0.162113
-0.16846
-0.169187
-0.167803
-0.167214
-0.168179
-0.17029
-0.173034
-0.176141
-0.179502
-0.182991
-0.186229
-0.188673
-0.189702
-0.188686
-0.185041
-0.178293
-0.168196
-0.154812
-0.138532
-0.120004
-0.100026
-0.0794161
-0.0589057
-0.039092
-0.0204153
-0.00317261
0.0123984
0.0261559
0.0379681
0.0471681
0.0521893
0.0523568
0.0470648
0.036343
0.0164972
-0.0187379
-0.0673161
-0.112439
-0.13403
-0.127611
-0.102313
-0.0728513
-0.0464435
-0.0254013
-0.00922831
0.00216276
0.00944898
0.0127988
0.0127986
0.00672557
-0.00666981
-0.0314415
-0.06766
-0.0955866
-0.101449
-0.0834975
-0.0551409
-0.0302598
-0.008113
-0.152274
-0.159257
-0.160787
-0.159873
-0.159344
-0.160115
-0.161879
-0.16411
-0.166504
-0.168949
-0.171314
-0.173309
-0.174542
-0.174545
-0.172809
-0.168854
-0.162304
-0.152957
-0.140848
-0.126261
-0.109682
-0.09173
-0.0730642
-0.0543007
-0.0359724
-0.0185033
-0.00218549
0.0127229
0.0260075
0.0375406
0.0468478
0.0527261
0.0540269
0.0501034
0.0405272
0.0213999
-0.0129177
-0.0590036
-0.100325
-0.119132
-0.112514
-0.0899741
-0.0638812
-0.0401997
-0.0209682
-0.00592788
0.00492842
0.012217
0.0160137
0.0166006
0.0109472
-0.00292637
-0.0293655
-0.0676129
-0.0965155
-0.101782
-0.0829266
-0.0542836
-0.0295185
-0.00802288
-0.142081
-0.149461
-0.151654
-0.151217
-0.150816
-0.151449
-0.152922
-0.154739
-0.156573
-0.158284
-0.159759
-0.160805
-0.161132
-0.160366
-0.158099
-0.15396
-0.147657
-0.139029
-0.128085
-0.11502
-0.100191
-0.0840752
-0.0672036
-0.0500949
-0.0332184
-0.0169725
-0.00164517
0.0125038
0.0252097
0.0362963
0.0453994
0.0515568
0.0535336
0.0506426
0.0422216
0.0244122
-0.00776012
-0.0500192
-0.0866124
-0.102519
-0.0964542
-0.0772254
-0.0547971
-0.0339616
-0.0165769
-0.00270566
0.00756317
0.0147934
0.0191052
0.0203989
0.0153689
0.00117823
-0.0267926
-0.0668632
-0.0964896
-0.100981
-0.0814419
-0.0529078
-0.0285285
-0.00787903
-0.13185
-0.13935
-0.142022
-0.142019
-0.141786
-0.142342
-0.143586
-0.14507
-0.146459
-0.147603
-0.148415
-0.148759
-0.148414
-0.147089
-0.144474
-0.140282
-0.134282
-0.12634
-0.116449
-0.10474
-0.0914783
-0.0770295
-0.0618196
-0.0462804
-0.0308184
-0.0158002
-0.00151089
0.0117928
0.0238255
0.0343613
0.0430605
0.0491234
0.0513896
0.0491546
0.041668
0.025481
-0.00335135
-0.0402939
-0.0715215
-0.0849316
-0.0801625
-0.064559
-0.0458594
-0.0278689
-0.0123148
0.000394946
0.0100434
0.0171509
0.0220056
0.0241225
0.0199056
0.00556964
-0.0237572
-0.0652343
-0.0952217
-0.0988122
-0.0789189
-0.0509665
-0.0272823
-0.0076718
-0.121729
-0.129112
-0.132101
-0.132469
-0.132417
-0.13294
-0.134009
-0.135229
-0.13628
-0.137009
-0.137342
-0.137181
-0.136362
-0.134669
-0.131864
-0.127722
-0.12206
-0.11477
-0.105834
-0.0953447
-0.0834954
-0.0705665
-0.0568955
-0.0428393
-0.0287475
-0.0149517
-0.00173046
0.010662
0.021939
0.0318468
0.0400236
0.0457952
0.0481342
0.0463274
0.0396316
0.025358
0.000826113
-0.0299594
-0.0558838
-0.0674754
-0.0644776
-0.0524826
-0.0373225
-0.0220443
-0.00826035
0.00333069
0.0123438
0.0192698
0.0246389
0.0276602
0.0244253
0.0101502
-0.0202248
-0.0624996
-0.0924381
-0.0950779
-0.0752668
-0.0484337
-0.0257827
-0.00739393
-0.111775
-0.118919
-0.122096
-0.12276
-0.122875
-0.123391
-0.124329
-0.125349
-0.126151
-0.126586
-0.126586
-0.126082
-0.124957
-0.12305
-0.120177
-0.116165
-0.110869
-0.104202
-0.0961456
-0.0867615
-0.0761921
-0.0646506
-0.0524035
-0.0397444
-0.0269726
-0.0143838
-0.00224409
0.00919493
0.0196529
0.0288693
0.0364604
0.041855
0.0441766
0.0427451
0.036904
0.024817
0.0048602
-0.0198979
-0.0410733
-0.0513509
-0.0501643
-0.0414102
-0.0293936
-0.0165885
-0.0044812
0.00605372
0.0144385
0.0211342
0.0269291
0.0308743
0.0287622
0.0148283
-0.0161146
-0.0584604
-0.0878951
-0.0896533
-0.0704545
-0.0453152
-0.0240456
-0.00704154
-0.102124
-0.108932
-0.112175
-0.113053
-0.113309
-0.11383
-0.114673
-0.115545
-0.11617
-0.116402
-0.116184
-0.115468
-0.114171
-0.112171
-0.109328
-0.105509
-0.100602
-0.0945365
-0.0872945
-0.0789183
-0.0695124
-0.0592393
-0.0483093
-0.0369629
-0.0254547
-0.0140464
-0.00298657
0.00748037
0.0170831
0.0255342
0.0325358
0.0375301
0.0398106
0.0387762
0.0338933
0.0240188
0.00824322
-0.0112222
-0.0282981
-0.0374277
-0.0376982
-0.0315882
-0.0222118
-0.0115766
-0.00102717
0.00851266
0.0162994
0.0227313
0.0288087
0.0336208
0.0327401
0.0194926
-0.0113846
-0.0529943
-0.0814215
-0.0825037
-0.0645383
-0.041658
-0.0221017
-0.00661513
-0.0928815
-0.0992521
-0.102456
-0.103477
-0.103846
-0.104377
-0.105149
-0.105912
-0.106415
-0.106517
-0.106172
-0.105346
-0.10398
-0.101981
-0.0992443
-0.0956674
-0.0911645
-0.0856796
-0.0791961
-0.0717433
-0.0633989
-0.0542874
-0.0445748
-0.0344577
-0.0241511
-0.0138847
-0.00388704
0.00560984
0.0143498
0.0220498
0.028429
0.0330195
0.0352486
0.0346091
0.0306857
0.022812
0.0105386
-0.00452455
-0.0180947
-0.0260354
-0.0272224
-0.0230986
-0.015848
-0.00706111
0.0020706
0.0106619
0.0178905
0.02405
0.0302367
0.0357647
0.0361726
0.0239687
-0.00608728
-0.0461034
-0.0729861
-0.0737488
-0.0576808
-0.037556
-0.0199961
-0.00612024
-0.0840545
-0.0899395
-0.0930367
-0.0941434
-0.0945965
-0.0951363
-0.0958538
-0.0965361
-0.0969569
-0.0969877
-0.0965836
-0.0957243
-0.0943653
-0.0924386
-0.0898647
-0.0865652
-0.0824743
-0.0775482
-0.0717728
-0.0651693
-0.0577959
-0.0497488
-0.0411592
-0.0321878
-0.023016
-0.0138429
-0.00487497
0.00367279
0.0115612
0.018525
0.0242952
0.0284921
0.0306573
0.030377
0.0273413
0.0211835
0.0117558
0.000261308
-0.0103463
-0.0170368
-0.0186417
-0.0159116
-0.0103196
-0.0030759
0.00479261
0.0124745
0.019172
0.0250686
0.0312027
0.0372007
0.0388183
0.0279585
-0.000417255
-0.037917
-0.0627452
-0.0637054
-0.0501596
-0.0331487
-0.0177866
-0.00556772
-0.0756653
-0.0810588
-0.0840023
-0.0851456
-0.0856544
-0.0861966
-0.0868696
-0.0874921
-0.0878624
-0.0878615
-0.0874471
-0.086608
-0.0853129
-0.0835097
-0.0811379
-0.078138
-0.0744596
-0.0700691
-0.0649554
-0.0591339
-0.0526494
-0.0455768
-0.0380204
-0.0301113
-0.0220022
-0.0138645
-0.00588205
0.00175126
0.00881692
0.0150709
0.0202648
0.0240899
0.0261854
0.0262255
0.0239855
0.0192823
0.0121499
0.00349395
-0.0046406
-0.0100825
-0.0117452
-0.00993746
-0.00560781
0.000363069
0.00712377
0.0139443
0.0201173
0.0257466
0.0317114
0.0378625
0.0403732
0.0310617
0.00529038
-0.0286945
-0.0511353
-0.0529192
-0.042357
-0.0286107
-0.0155387
-0.00497313
-0.0677657
-0.0726593
-0.0754104
-0.0765501
-0.0770908
-0.0776293
-0.0782639
-0.0788407
-0.0791808
-0.0791757
-0.078785
-0.0780054
-0.0768115
-0.0751653
-0.0730203
-0.070331
-0.0670588
-0.0631784
-0.0586814
-0.0535797
-0.0479083
-0.041726
-0.0351164
-0.0281867
-0.0210644
-0.013896
-0.00684329
-7.90005e-05
0.0062034
0.0117853
0.0164454
0.01993
0.0219586
0.0222818
0.0207423
0.0172656
0.0119767
0.00557021
-0.000534724
-0.00480276
-0.00629888
-0.00506126
-0.00167082
0.00325843
0.0090546
0.0150745
0.0207189
0.0260471
0.0317559
0.0377285
0.0406235
0.0329396
0.0105672
-0.0190571
-0.0390384
-0.0421295
-0.0347048
-0.0241289
-0.013318
-0.00435523
-0.060365
-0.0647588
-0.0672944
-0.0684028
-0.0689575
-0.0694869
-0.0700871
-0.0706283
-0.0709525
-0.0709631
-0.0706264
-0.069922
-0.0688501
-0.0673798
-0.065474
-0.0630967
-0.0602183
-0.0568199
-0.0528954
-0.0484546
-0.043525
-0.0381536
-0.0324077
-0.0263745
-0.0201608
-0.0138906
-0.00770282
-0.00175077
0.0037968
0.00875204
0.0129232
0.0161
0.0180669
0.0186361
0.0177014
0.0152511
0.011443
0.00681209
0.00235159
-0.00086871
-0.00207441
-0.00116087
0.00154518
0.00562903
0.0105865
0.015871
0.0209835
0.0259533
0.031305
0.0367971
0.0395728
0.0334347
0.0148018
-0.0100976
-0.0276763
-0.0321069
-0.0275918
-0.0198681
-0.011182
-0.00373357
-0.0534492
-0.0573661
-0.0596795
-0.0607379
-0.0612922
-0.0618075
-0.0623752
-0.0628863
-0.0632028
-0.0632379
-0.0629552
-0.0623462
-0.0614109
-0.0601288
-0.0584668
-0.0563951
-0.0538923
-0.050945
-0.0475488
-0.0437119
-0.0394566
-0.0348205
-0.0298579
-0.0246402
-0.0192553
-0.0138079
-0.00841735
-0.00321519
0.00165623
0.00603649
0.00976168
0.0126605
0.0145675
0.0153445
0.014922
0.0133188
0.010696
0.00746463
0.00431356
0.00199771
0.00113312
0.0018879
0.00410193
0.00750501
0.0117337
0.0163446
0.0209224
0.0254684
0.0303451
0.0351007
0.0374081
0.0325608
0.0175167
-0.00280131
-0.0180221
-0.0233987
-0.0212693
-0.015944
-0.0091745
-0.00312635
-0.0470182
-0.0504881
-0.0525796
-0.053575
-0.0541179
-0.0546151
-0.0551517
-0.0556365
-0.0559492
-0.056012
-0.0557935
-0.0552886
-0.0544916
-0.0533934
-0.0519673
-0.0501887
-0.0480398
-0.0455105
-0.0425984
-0.0393106
-0.035665
-0.0316922
-0.0274358
-0.0229541
-0.0183197
-0.0136191
-0.00895271
-0.00443263
-0.000178212
0.00367748
0.00699844
0.00964565
0.0114921
0.0124367
0.0124358
0.0115205
0.00983517
0.00769748
0.005593
0.00403129
0.00350634
0.00420319
0.00606544
0.00892354
0.0125201
0.016512
0.0205575
0.0246147
0.0289217
0.0327733
0.0344673
0.0305662
0.0186551
0.00245007
-0.0104526
-0.0162152
-0.015833
-0.0124224
-0.00732657
-0.00254907
-0.0410687
-0.0441207
-0.045995
-0.0469199
-0.0474441
-0.0479204
-0.048427
-0.0488878
-0.0491992
-0.0492928
-0.0491407
-0.0487353
-0.048073
-0.0471498
-0.0459475
-0.0444452
-0.0426254
-0.0404798
-0.0380076
-0.0352154
-0.0321179
-0.0287395
-0.0251157
-0.0212935
-0.0173322
-0.0133032
-0.00928889
-0.00538211
-0.00168477
0.00169613
0.00465065
0.00706813
0.00884946
0.00992077
0.0102555
0.00988615
0.00893158
0.00763482
0.00635674
0.00541283
0.0051996
0.00589526
0.00750495
0.00992542
0.0129771
0.0164027
0.0199205
0.0234293
0.0268976
0.0300419
0.0311509
0.0279258
0.0186134
0.00589373
-0.00481309
-0.0104846
-0.0112712
-0.0093327
-0.00565934
-0.00201401
-0.0355822
-0.0382497
-0.0399177
-0.0407696
-0.0412706
-0.0417248
-0.0422028
-0.0426416
-0.0429524
-0.0430756
-0.0429862
-0.0426776
-0.0421471
-0.0413859
-0.0403885
-0.0391379
-0.0376183
-0.0358209
-0.0337453
-0.0313971
-0.0287885
-0.0259393
-0.0228778
-0.0196418
-0.0162795
-0.0128488
-0.00941676
-0.00605915
-0.00285958
9.58729e-05
0.00271877
0.00492227
0.00663044
0.00778762
0.00837729
0.00842945
0.00803914
0.00738208
0.00669832
0.00627322
0.00633991
0.00706619
0.00849024
0.0105564
0.0131414
0.0160532
0.0190607
0.0220352
0.0248606
0.0271879
0.0277949
0.0250792
0.0178571
0.00798188
-0.000757018
-0.00603062
-0.00752565
-0.00667974
-0.00418555
-0.00152999
-0.0305395
-0.032859
-0.034335
-0.0351146
-0.0355901
-0.0360216
-0.0364722
-0.03689
-0.0371995
-0.0373492
-0.0373171
-0.0370973
-0.0366867
-0.0360789
-0.0352669
-0.0342417
-0.0329911
-0.0315059
-0.0297843
-0.027831
-0.0256556
-0.0232739
-0.0207086
-0.0179901
-0.0151565
-0.0122544
-0.00933753
-0.00646818
-0.00371195
-0.00113729
0.00118572
0.00318841
0.00481256
0.00601715
0.00679013
0.00715634
0.00719019
0.00701586
0.00679445
0.00674925
0.0070429
0.00780703
0.00908981
0.010866
0.0130517
0.015502
0.0180322
0.0204982
0.0227315
0.0243846
0.0246088
0.0223058
0.0167273
0.00911405
0.00206976
-0.00264759
-0.00451417
-0.00445144
-0.00291081
-0.00110263
-0.0259233
-0.0279299
-0.0292295
-0.0299395
-0.0303884
-0.0307975
-0.0312222
-0.0316199
-0.0319271
-0.0320998
-0.0321187
-0.0319785
-0.0316765
-0.0312071
-0.0305614
-0.0297352
-0.0287205
-0.0275106
-0.0261019
-0.0244967
-0.0227022
-0.0207308
-0.0186006
-0.0163355
-0.0139653
-0.0115272
-0.00906398
-0.00662436
-0.00426101
-0.0020262
2.36557e-05
0.00183628
0.00336593
0.00458181
0.00547522
0.00606462
0.00640514
0.00658494
0.00670963
0.00694248
0.00740628
0.00820008
0.00936964
0.0109051
0.0127488
0.0147922
0.0168865
0.0188847
0.0206057
0.0217395
0.0216975
0.0197469
0.0154419
0.00959167
0.00396791
-0.000138783
-0.00214689
-0.0026233
-0.00183388
-0.000734595
-0.0217128
-0.0234403
-0.0245799
-0.0252244
-0.0256473
-0.0260347
-0.026435
-0.0268136
-0.0271173
-0.0273089
-0.0273715
-0.0273006
-0.0270939
-0.0267472
-0.026253
-0.0256011
-0.0247887
-0.0238173
-0.0226809
-0.0213794
-0.0199171
-0.0183029
-0.0165511
-0.0146805
-0.0127143
-0.0106809
-0.00861362
-0.00655138
-0.00453564
-0.00260412
-0.000802567
0.000828818
0.00225456
0.00345045
0.00440963
0.00514437
0.0056945
0.00612821
0.00649259
0.0069243
0.00750851
0.00831769
0.0093909
0.0107237
0.0122761
0.0139668
0.0156745
0.0172586
0.0185575
0.0193065
0.0190988
0.017455
0.0141271
0.00963772
0.0051749
0.00166639
-0.000334862
-0.0011618
-0.000947346
-0.000425951
-0.0178858
-0.0193668
-0.020363
-0.0209472
-0.0213451
-0.0217121
-0.0220897
-0.02245
-0.0227491
-0.0229554
-0.0230547
-0.0230429
-0.0229181
-0.0226765
-0.0223122
-0.0218185
-0.0211898
-0.02042
-0.0195118
-0.0184702
-0.0172936
-0.0159877
-0.0145625
-0.0130324
-0.0114151
-0.00973236
-0.00801026
-0.00627937
-0.00457213
-0.00290787
-0.00133221
0.00012576
0.00143908
0.00258849
0.00356737
0.00438245
0.00505872
0.0056312
0.00618203
0.00675259
0.00741526
0.00822372
0.00920947
0.0103705
0.0116766
0.0130653
0.0144411
0.0156764
0.0166384
0.0171088
0.0168112
0.0154353
0.0128535
0.00940215
0.00587864
0.00291743
0.00100997
-2.78869e-05
-0.000238856
-0.000174591
-0.014421
-0.0156858
-0.0165548
-0.0170842
-0.0174586
-0.0178065
-0.0181631
-0.0185061
-0.0187993
-0.0190166
-0.019146
-0.0191836
-0.0191277
-0.0189753
-0.0187215
-0.0183606
-0.0178877
-0.0172992
-0.016594
-0.0157692
-0.014832
-0.0137867
-0.0126403
-0.0114015
-0.010084
-0.00870384
-0.00728101
-0.00584159
-0.00438917
-0.00297149
-0.001605
-0.000314503
0.000879454
0.00196125
0.00292394
0.00377078
0.00451817
0.00518904
0.00583094
0.00647999
0.00718242
0.00797386
0.0088766
0.0098898
0.0109896
0.0121243
0.0132226
0.0141818
0.0148755
0.0151494
0.0148137
0.0136686
0.0116564
0.00899296
0.00621909
0.0037344
0.00196698
0.000820733
0.000308079
2.33917e-05
-0.0112971
-0.0123737
-0.0131307
-0.0136109
-0.0139636
-0.0142939
-0.0146311
-0.0149577
-0.0152442
-0.0154692
-0.0156224
-0.0157006
-0.015702
-0.0156241
-0.0154628
-0.0152131
-0.0148708
-0.0144324
-0.0138963
-0.0132618
-0.0125311
-0.0117074
-0.0107953
-0.00980297
-0.00873955
-0.0076169
-0.00644786
-0.00524453
-0.0040392
-0.00283943
-0.00166488
-0.000534529
0.000536136
0.0015345
0.00245362
0.00329308
0.00406191
0.00477646
0.00546263
0.00614606
0.00685624
0.00761569
0.00843856
0.00932229
0.0102493
0.011175
0.0120444
0.012778
0.0132755
0.0134169
0.0130774
0.0121274
0.0105498
0.00848156
0.00629829
0.00421297