/*--------------------------------*- C++ -*----------------------------------*\
| =========                 |                                                 |
| \\      /  F ield         | OpenFOAM: The Open Source CFD Toolbox           |
|  \\    /   O peration     | Version:  2512                                  |
|   \\  /    A nd           | Website:  www.openfoam.com                      |
|    \\/     M anipulation  |                                                 |
\*---------------------------------------------------------------------------*/
FoamFile
{
    version     2.0;
    format      ascii;
    arch        "LSB;label=32;scalar=64";
    class       surfaceScalarField;
    location    "96";
    object      phi;
}
// * * * * * * * * * * * * * * * * * * * * * * * * * * * * * * * * * * * * * //

dimensions      [0 3 -1 0 0 0 0];

oriented        oriented;

internalField   nonuniform List<scalar> 
26232
(
2.26338e-05
0.0010617
-0.00108433
0.000382191
0.00199712
-0.00235668
0.00130774
0.00190326
-0.00282881
0.002998
0.000814689
-0.00250495
0.0056393
-0.00126569
-0.00137561
0.00940807
-0.00434774
0.000578979
0.0144631
-0.00843747
0.00338242
0.0209282
-0.0135199
0.00705484
0.0288689
-0.019543
0.0116023
0.0382687
-0.0264067
0.0170069
0.0490106
-0.0339598
0.0232178
0.0608705
-0.0420051
0.0301453
0.0735243
-0.0503134
0.0376596
0.0865714
-0.0586422
0.045595
0.0995696
-0.0667569
0.0537587
0.112078
-0.0744521
0.0619434
0.123705
-0.0815693
0.0699426
0.134146
-0.0880104
0.0775698
0.143219
-0.0937408
0.0846671
0.150867
-0.0987981
0.0911507
0.157163
-0.103227
0.0969307
0.162185
-0.107238
0.102217
0.165876
-0.110475
0.106784
-0.114172
0.111862
0.168186
7.83444e-05
0.000983351
0.000619965
0.0014555
0.00188392
0.000639307
0.004102
-0.00140339
0.00748645
-0.00465015
0.0122201
-0.00908143
0.0184349
-0.0146522
0.0261831
-0.0212681
0.0354112
-0.0287711
0.0459432
-0.0369387
0.0574825
-0.045499
0.0696334
-0.054156
0.081941
-0.062621
0.0939413
-0.0706425
0.105215
-0.0780302
0.115433
-0.0846707
0.124395
-0.0905309
0.132036
-0.0956516
0.138425
-0.10013
0.143723
-0.104095
0.148174
-0.107678
0.151951
-0.111016
0.155554
-0.114078
-0.117456
0.158838
0.000166501
0.00081685
0.000971514
0.000650491
0.00269341
-0.00108259
0.00558152
-0.0042915
0.00984783
-0.00891646
0.0156405
-0.0148741
0.023009
-0.0220207
0.0318727
-0.0301318
0.0420059
-0.0389042
0.0530486
-0.0479815
0.0645448
-0.0569952
0.0759995
-0.0656107
0.0869446
-0.0735661
0.0969984
-0.0806963
0.105909
-0.0869412
0.113575
-0.0923362
0.120034
-0.09699
0.125437
-0.101054
0.129997
-0.10469
0.133947
-0.108046
0.137494
-0.111225
0.140806
-0.114328
0.14402
-0.117292
-0.120524
0.147088
0.00027948
0.000537369
0.00141148
-0.00048151
0.00367951
-0.00335062
0.00732639
-0.00793838
0.0125254
-0.0141155
0.0193373
-0.021686
0.0276706
-0.030354
0.0372648
-0.0397261
0.0477095
-0.0493489
0.0584985
-0.0587704
0.0691066
-0.0676033
0.0790694
-0.0755735
0.0880461
-0.0825428
0.0958543
-0.0885045
0.102471
-0.0935583
0.108006
-0.0978708
0.11265
-0.101634
0.116627
-0.105031
0.120145
-0.108209
0.123376
-0.111276
0.126449
-0.114298
0.129441
-0.11732
0.132463
-0.120314
-0.123542
0.13548
0.000410777
0.000126592
0.001914
-0.00198474
0.00477932
-0.00621594
0.00921004
-0.0123691
0.0152926
-0.0201981
0.0229449
-0.0293382
0.0318905
-0.0392997
0.0416818
-0.0495174
0.0517692
-0.0594363
0.0615981
-0.0685992
0.0707027
-0.0767079
0.0787722
-0.0836431
0.0856756
-0.0894461
0.0914452
-0.0942742
0.0962316
-0.0983447
0.100245
-0.101884
0.103703
-0.105092
0.106794
-0.108122
0.109662
-0.111076
0.112406
-0.11402
0.115094
-0.116986
0.117768
-0.119994
0.120481
-0.123027
-0.126225
0.123165
0.000555982
-0.00042939
0.00245641
-0.00388517
0.00593059
-0.00969012
0.0111007
-0.0175392
0.0179148
-0.0270121
0.0261041
-0.0375275
0.0351998
-0.0483954
0.0446134
-0.058931
0.0537544
-0.0685773
0.062142
-0.0769867
0.0694759
-0.0840418
0.0756541
-0.0898213
0.0807424
-0.0945344
0.0849149
-0.0984467
0.0883903
-0.10182
0.0913794
-0.104874
0.0940554
-0.107768
0.0965449
-0.110611
0.0989327
-0.113464
0.101273
-0.116361
0.103603
-0.119316
0.105942
-0.122334
0.108324
-0.125408
-0.128611
0.11071
0.000711523
-0.00114091
0.00301565
-0.00618929
0.00706686
-0.0137413
0.0128597
-0.0233321
0.0201599
-0.0343123
0.0284994
-0.045867
0.0372577
-0.0571536
0.0457985
-0.0674719
0.053605
-0.0763838
0.0603623
-0.083744
0.0659731
-0.0896526
0.0705169
-0.0943651
0.0741799
-0.0981974
0.0771851
-0.101452
0.07974
-0.104375
0.0820096
-0.107143
0.0841106
-0.10987
0.086119
-0.112619
0.0880815
-0.115427
0.0900268
-0.118306
0.0919736
-0.121262
0.0939346
-0.124295
0.0959262
-0.1274
-0.130603
0.0979179
0.000872221
-0.00201313
0.00356359
-0.00888066
0.00811324
-0.018291
0.0143449
-0.0295638
0.0218211
-0.0417885
0.0299037
-0.0539497
0.0379037
-0.0651535
0.0452434
-0.0748116
0.0515632
-0.0827036
0.0567436
-0.0889244
0.060859
-0.0937681
0.0640988
-0.0976049
0.0666899
-0.100788
0.0688408
-0.103603
0.0707147
-0.106249
0.0724249
-0.108853
0.0740429
-0.111488
0.0756116
-0.114188
0.0771563
-0.116971
0.0786933
-0.119843
0.0802337
-0.122803
0.081787
-0.125848
0.0833632
-0.128976
-0.132187
0.084947
0.00103039
-0.00304353
0.00406604
-0.0119163
0.00899
-0.0232149
0.0154265
-0.0360003
0.022748
-0.04911
0.0302144
-0.0614161
0.0371652
-0.0721043
0.043162
-0.0808084
0.048032
-0.0875735
0.0518232
-0.0927157
0.0547187
-0.0966635
0.0569481
-0.0998344
0.0587257
-0.102566
0.0602188
-0.105096
0.0615423
-0.107572
0.0627676
-0.110079
0.0639364
-0.112656
0.0650724
-0.115324
0.0661901
-0.118089
0.0672994
-0.120952
0.0684082
-0.123912
0.069523
-0.126963
0.0706495
-0.130103
-0.133317
0.0717804
0.00117602
-0.00421955
0.0044856
-0.0152259
0.00962293
-0.0283523
0.0160082
-0.0423857
0.0228713
-0.0559731
0.0294561
-0.0680009
0.0352116
-0.0778597
0.0398739
-0.0854708
0.0434379
-0.0911375
0.0460657
-0.0953435
0.0479869
-0.0985848
0.0494245
-0.101272
0.0505552
-0.103697
0.051501
-0.106042
0.0523371
-0.108408
0.0531062
-0.110848
0.0538323
-0.113382
0.054529
-0.116021
0.0552055
-0.118766
0.0558688
-0.121616
0.0565245
-0.124567
0.057178
-0.127617
0.0578331
-0.130758
-0.133974
0.05849
0.00129858
-0.00551813
0.00478834
-0.0187156
0.00995642
-0.0335203
0.0160425
-0.0484717
0.0222042
-0.0621348
0.0277505
-0.0735472
0.0322849
-0.0823942
0.0357122
-0.088898
0.0381513
-0.0935766
0.0398231
-0.0970153
0.0409597
-0.0997214
0.0417522
-0.102064
0.0423347
-0.104279
0.0427904
-0.106497
0.0431662
-0.108784
0.0434873
-0.111169
0.0437676
-0.113663
0.0440158
-0.116269
0.0442385
-0.118988
0.0444409
-0.121818
0.0446274
-0.124754
0.0448016
-0.127791
0.0449648
-0.130921
-0.13413
0.0451202
0.00139151
-0.00690963
0.00495214
-0.0222763
0.00996347
-0.0385317
0.0155343
-0.0540426
0.020828
-0.0674285
0.0252757
-0.0779949
0.0286452
-0.0857637
0.0309775
-0.0912303
0.0324668
-0.0950658
0.0333497
-0.0978982
0.0338346
-0.100206
0.0340732
-0.102303
0.0341615
-0.104368
0.0341538
-0.10649
0.0340785
-0.108709
0.0339505
-0.111041
0.0337786
-0.113491
0.0335687
-0.116059
0.033326
-0.118746
0.0330551
-0.121547
0.03276
-0.124459
0.0324435
-0.127474
0.0321061
-0.130584
0.0317529
-0.133777
-0.000137772
0.00230958
-0.00217181
-0.00052879
0.00594675
-0.00555573
-0.00116015
0.0088698
-0.00823844
-0.00201067
0.0111633
-0.0103128
-0.00305084
0.0129251
-0.0118849
-0.00424626
0.0142697
-0.0130743
-0.00556149
0.0153118
-0.0139966
-0.00696295
0.0161506
-0.0147491
-0.0084205
0.016859
-0.0154015
-0.00990754
0.0174796
-0.0159926
-0.0113999
0.0180253
-0.0165329
-0.0128745
0.0184834
-0.0170089
-0.0143068
0.0188211
-0.0173887
-0.0156701
0.0189903
-0.017627
-0.0169333
0.0189317
-0.0176686
-0.0180605
0.0185776
-0.0174504
-0.0190107
0.0178543
-0.0169041
-0.0197373
0.0166842
-0.0159575
-0.0201891
0.0149892
-0.0145373
-0.0203112
0.0126949
-0.0125728
-0.0200463
0.00973602
-0.0100009
-0.0193446
0.00606556
-0.00676731
-0.0182086
0.00168173
-0.00281769
-0.00329736
-0.016618
0.00170669
-3.86032e-05
0.00234819
-0.000199586
0.00610773
-0.000510564
0.00918078
-0.000977737
0.0116305
-0.00158873
0.0135361
-0.00231726
0.0149982
-0.00312834
0.0161229
-0.00398315
0.0170054
-0.00484267
0.0177185
-0.00566964
0.0183066
-0.00642918
0.0187848
-0.00708821
0.0191424
-0.00761432
0.0193472
-0.00797502
0.019351
-0.00813609
0.0190928
-0.00806146
0.018503
-0.00771292
0.0175057
-0.00705004
0.0160213
-0.00602987
0.013969
-0.00460621
0.0112712
-0.00272828
0.00785809
-0.000333094
0.00367038
0.00260729
-0.00125866
-0.00685562
0.00616556
5.67253e-05
0.00229146
0.000125454
0.006039
0.00014659
0.00915964
9.13033e-05
0.0116857
-4.3543e-05
0.0136709
-0.00023991
0.0151946
-0.000464463
0.0163474
-0.000674581
0.0172155
-0.000823335
0.0178673
-0.000863182
0.0183465
-0.000748139
0.0186698
-0.000434657
0.0188289
0.000118394
0.0187941
0.000951027
0.0185184
0.00210091
0.0179429
0.00360477
0.0169992
0.00549818
0.0156123
0.00781559
0.0137039
0.0105901
0.0111945
0.0138541
0.00800722
0.017643
0.00406914
0.0219806
-0.000667195
0.0269289
-0.00620702
-0.0125486
0.0326219
0.000137127
0.00215433
0.000411391
0.00576474
0.000743875
0.00882716
0.00109104
0.0113386
0.00143819
0.0133238
0.00179541
0.0148373
0.00219249
0.0159504
0.00267304
0.016735
0.00328872
0.0172516
0.00409449
0.0175407
0.00514507
0.0176192
0.00649298
0.017481
0.00818748
0.0170996
0.010274
0.0164319
0.0127948
0.0154221
0.0157888
0.0140051
0.0192919
0.0121093
0.0233366
0.0096591
0.0279524
0.00657879
0.0331645
0.0027951
0.0390022
-0.00176856
0.0454964
-0.00716139
0.0526375
-0.0133482
-0.0205445
0.0606334
0.000193909
0.00196042
0.000627573
0.00533108
0.00121854
0.00823619
0.00191873
0.0106384
0.00270743
0.0125351
0.00358871
0.0139561
0.00458782
0.0149512
0.00574621
0.0155766
0.0071161
0.0158817
0.00875542
0.0159014
0.0107237
0.0156509
0.0130793
0.0151254
0.0158776
0.0143014
0.01917
0.0131394
0.0230049
0.0115873
0.0274271
0.00958292
0.0324783
0.00705811
0.0382014
0.00393591
0.0446202
0.000160032
0.0518015
-0.0043862
0.0597469
-0.00971399
0.0685031
-0.0159175
0.0779933
-0.0228384
-0.031071
0.0885199
0.000221358
0.00173907
0.000752308
0.00480013
0.00152296
0.00746554
0.0024917
0.00966964
0.00363894
0.0113879
0.00496634
0.0126287
0.00649519
0.0134224
0.00826313
0.0138086
0.0103199
0.0138249
0.0127231
0.0134982
0.0155341
0.0128399
0.0188152
0.0118442
0.0226283
0.0104883
0.0270336
0.0087341
0.0320895
0.00653137
0.0378577
0.00381472
0.0443815
0.000534347
0.0517417
-0.00342429
0.0599917
-0.00808995
0.0691524
-0.0135469
0.0792581
-0.0198197
0.0903289
-0.0269883
0.102206
-0.0347151
-0.0440325
0.115167
0.000217768
0.0015213
0.000777192
0.0042407
0.00163528
0.00660745
0.00276715
0.00853777
0.00416188
0.00999313
0.00582388
0.0109667
0.00777357
0.0114727
0.0100463
0.0115359
0.01269
0.0111812
0.0157625
0.0104257
0.0193285
0.00927399
0.0234575
0.00771521
0.0282227
0.00572306
0.0337019
0.00325491
0.0399603
0.000272971
0.0470985
-0.00332347
0.0551942
-0.00756139
0.0642941
-0.0125241
0.0744637
-0.0182595
0.0857168
-0.0248
0.0980315
-0.0321345
0.111321
-0.0402779
0.125365
-0.0487586
-0.0588036
0.140136
0.000186128
0.00133517
0.000710439
0.00371639
0.00156805
0.00574984
0.00275914
0.00734668
0.00428877
0.0084635
0.00617082
0.00908462
0.0084311
0.00921242
0.0111088
0.0088582
0.0142565
0.00803349
0.0179391
0.00674306
0.0222327
0.00498044
0.0272229
0.00272505
0.0329978
-5.1858e-05
0.0396615
-0.00340882
0.047319
-0.00738451
0.0560385
-0.0120429
0.0659044
-0.0174274
0.0769508
-0.0235705
0.0891699
-0.0304786
0.10248
-0.0381098
0.11674
-0.0463952
0.131665
-0.0552027
0.147026
-0.0641192
-0.0740258
0.162248
0.000134665
0.0012005
0.000578978
0.00327208
0.00137356
0.00495525
0.00255005
0.00617018
0.00413675
0.0068768
0.00616556
0.00705581
0.00867766
0.00670032
0.0117272
0.00580863
0.0153831
0.00437758
0.0197298
0.00239637
0.024863
-0.000152689
0.0308906
-0.00330263
0.0379251
-0.00708636
0.0460621
-0.0115458
0.055391
-0.0167134
0.0659581
-0.0226101
0.0777637
-0.0292329
0.0907388
-0.0365456
0.104733
-0.044473
0.119504
-0.0528808
0.134736
-0.0616268
0.149967
-0.0704344
0.164961
-0.0791125
-0.0877918
0.178727
7.68194e-05
0.00112368
0.000427769
0.00292113
0.00114248
0.00424054
0.00228908
0.00502359
0.00392682
0.00523905
0.00611603
0.0048666
0.00892561
0.00389074
0.0124379
0.00229638
0.0167477
6.77192e-05
0.0219671
-0.00282297
0.0282101
-0.00639569
0.0355852
-0.0106778
0.0441854
-0.0156865
0.0540647
-0.0214251
0.0652251
-0.0278738
0.0775974
-0.0349824
0.0910297
-0.0426652
0.105283
-0.0507989
0.120032
-0.0592215
0.134892
-0.0677409
0.149415
-0.0761498
0.163159
-0.084179
0.17581
-0.0917634
-0.0985135
0.186532
2.95881e-05
0.0010941
0.000313319
0.0026374
0.00098957
0.00356429
0.002167
0.00384616
0.00394333
0.00346272
0.00641684
0.00239309
0.00969324
0.000614337
0.0138879
-0.00189829
0.019124
-0.00516836
0.0255164
-0.00921537
0.0331665
-0.0140458
0.0421364
-0.0196477
0.0524324
-0.0259825
0.0639866
-0.0329794
0.076645
-0.0405322
0.0901635
-0.0485009
0.104213
-0.0567152
0.118401
-0.0649865
0.132292
-0.0731122
0.145471
-0.0809204
0.157538
-0.0882169
0.168313
-0.0949539
0.177508
-0.100958
-0.106008
0.185002
9.76745e-06
0.000290484
0.00102597
0.00236717
0.00445429
0.00742636
0.0114231
0.0165797
0.0230136
0.0308051
0.0399771
0.0504747
0.0621518
0.0747674
0.0879939
0.101436
0.114664
0.127247
0.138802
0.149032
0.157746
0.165009
0.170835
0.176689
-0.0139841
-0.0129587
0.0103249
-0.0110166
-0.024468
0.0215005
-0.00776186
-0.0375816
0.0343268
-0.00434905
-0.0517603
0.0483475
-0.000986245
-0.0664039
0.063041
0.00207055
-0.0808512
0.0777944
0.00447157
-0.094367
0.091966
0.00621836
-0.106495
0.104748
0.00753575
-0.116758
0.11544
0.00915651
-0.124644
0.123024
0.0121457
-0.129115
0.126126
0.0176132
-0.1284
0.122932
0.0262319
-0.120238
0.111619
0.0377556
-0.102739
0.0912151
0.0511912
-0.0753688
0.0619331
0.0655346
-0.0392775
0.0249342
0.0800081
0.00306003
-0.0175335
0.094065
0.048129
-0.062186
0.106824
0.0905033
-0.103262
0.117187
0.124861
-0.135224
0.124428
0.148461
-0.155702
0.128625
0.161612
-0.165809
0.130034
0.167101
-0.16851
0.12827
0.170521
-0.168757
0.123137
0.177895
-0.172762
0.116367
0.188012
-0.181243
0.111628
0.187911
-0.183172
0.111995
0.160201
-0.160568
0.117845
0.0987528
-0.104603
0.127374
0.0151927
-0.0247218
0.137746
-0.0682195
0.0578483
0.146392
-0.13369
0.125043
0.152009
-0.175135
0.169518
0.15482
-0.194594
0.191784
0.154753
-0.200495
0.200562
0.150688
-0.204191
0.208256
0.142678
-0.216263
0.224273
0.133805
-0.222209
0.231083
0.128543
-0.198392
0.203654
0.129105
-0.12592
0.125358
0.13479
-0.0245928
0.0189083
0.14285
0.075487
-0.0835472
0.150368
0.152348
-0.159865
0.153932
0.198268
-0.201831
0.151345
0.239572
-0.236985
0.143923
0.260849
-0.253426
0.136621
0.269816
-0.262514
0.133915
0.201211
-0.198505
0.137587
0.096114
-0.0997857
0.144371
-0.0318046
0.0250204
0.149089
-0.140162
0.135443
0.147882
-0.19255
0.193757
0.142892
-0.283518
0.288507
0.139125
-0.257041
0.260808
0.139878
-0.256291
0.255538
0.142414
-0.122428
0.119892
0.143077
0.036997
-0.0376595
0.14155
0.110725
-0.109198
0.139517
0.349763
-0.34773
0.229407
-0.227922
0.00899904
-0.0157922
0.0116969
-0.0271659
0.0144393
-0.0403239
0.0170826
-0.0544036
0.0193996
-0.0687209
0.0211152
-0.0825668
0.0219425
-0.0951943
0.0215369
-0.10609
0.0198164
-0.115037
0.0171595
-0.121988
0.01478
-0.126735
0.0144191
-0.128039
0.0177451
-0.123564
0.0254959
-0.11049
0.0371366
-0.0870095
0.0513792
-0.0535201
0.067054
-0.0126147
0.083003
0.0321799
0.0980941
0.0754122
0.111024
0.111931
0.120881
0.138603
0.127449
0.155044
0.130634
0.163917
0.130124
0.171031
0.126335
0.181685
0.121473
0.192874
0.118828
0.190557
0.120453
0.158576
0.126171
0.0930342
0.134438
0.00692587
0.14292
-0.0767011
0.149556
-0.140325
0.15322
-0.178799
0.154333
-0.195707
0.153152
-0.199315
0.148523
-0.199561
0.140041
-0.207781
0.130523
-0.212691
0.124771
-0.192641
0.1255
-0.126649
0.132088
-0.0311804
0.141529
0.0660462
0.150281
0.143596
0.1547
0.193848
0.15267
0.241602
0.145764
0.267754
0.138786
0.276794
0.135829
0.204168
0.138841
0.093102
0.144956
-0.03792
0.149446
-0.144651
0.148096
-0.1912
0.14302
-0.278441
0.139271
-0.253292
0.139933
-0.256953
0.142306
-0.124801
0.142689
0.0366145
0.14107
0.112343
0.139029
0.351804
0.230888
0.0350114
-0.0181816
0.0373903
-0.0295449
0.0395934
-0.0425269
0.0414947
-0.056305
0.0429258
-0.070152
0.0436873
-0.0833283
0.0434893
-0.0949963
0.0418884
-0.104489
0.0384402
-0.111589
0.0330605
-0.116608
0.0264207
-0.120096
0.0203151
-0.121934
0.0172153
-0.120464
0.0192393
-0.112514
0.0270248
-0.094795
0.0396053
-0.0661005
0.0552876
-0.0282971
0.0725388
0.0149288
0.0895203
0.0584307
0.104787
0.0966641
0.117185
0.126206
0.126105
0.146124
0.131151
0.15887
0.132204
0.169978
0.130214
0.183675
0.127564
0.195524
0.126929
0.191192
0.129504
0.156
0.134762
0.0877765
0.141396
0.000292005
0.147819
-0.0831243
0.152372
-0.144879
0.154152
-0.180578
0.153668
-0.195223
0.151484
-0.197131
0.146509
-0.194586
0.137845
-0.199117
0.127853
-0.202699
0.121543
-0.186331
0.122255
-0.127361
0.129531
-0.0384567
0.140191
0.0553862
0.150111
0.133675
0.155452
0.188507
0.154144
0.24291
0.147918
0.27398
0.141333
0.283379
0.138086
0.207415
0.140313
0.0908755
0.145648
-0.043255
0.149876
-0.148879
0.148418
-0.189743
0.143224
-0.273247
0.139441
-0.249509
0.140025
-0.257537
0.142309
-0.127085
0.142448
0.0364752
0.140727
0.114064
0.13867
0.353861
0.232349
0.0625723
-0.0201205
0.064493
-0.0314656
0.0661391
-0.044173
0.0672517
-0.0574175
0.0677192
-0.0706195
0.0674213
-0.0830304
0.0661568
-0.0937318
0.06365
-0.101982
0.0595082
-0.107447
0.0532568
-0.110356
0.0447289
-0.111568
0.0348182
-0.112023
0.0258837
-0.111529
0.0210856
-0.107715
0.0228678
-0.0965773
0.0315922
-0.0748249
0.0456278
-0.0423327
0.0631326
-0.00257606
0.081309
0.0402543
0.0985161
0.079457
0.11321
0.111512
0.124354
0.13498
0.131338
0.151887
0.134263
0.167052
0.134442
0.183496
0.134179
0.195788
0.135435
0.189936
0.138622
0.152814
0.143163
0.0832347
0.148067
-0.004612
0.152349
-0.0874056
0.154818
-0.147348
0.154805
-0.180566
0.152837
-0.193255
0.149721
-0.194015
0.144552
-0.189417
0.135994
-0.190559
0.125778
-0.192483
0.118902
-0.179454
0.119363
-0.127823
0.127093
-0.0461864
0.138787
0.0436928
0.149807
0.122654
0.156147
0.182167
0.155732
0.243326
0.150341
0.279371
0.144218
0.289502
0.140655
0.210979
0.141991
0.0895391
0.146434
-0.0476977
0.150358
-0.152804
0.148825
-0.18821
0.143486
-0.267907
0.139608
-0.245631
0.140124
-0.258054
0.1424
-0.129361
0.142345
0.03653
0.140512
0.115897
0.138441
0.355933
0.233769
0.0903027
-0.0219033
0.0918228
-0.0329858
0.0927901
-0.0451403
0.0929308
-0.0575582
0.0921809
-0.0698696
0.090511
-0.0813605
0.087869
-0.0910899
0.084208
-0.0983209
0.0794204
-0.10266
0.0731729
-0.104109
0.0648752
-0.10327
0.0542165
-0.101364
0.0422176
-0.0995306
0.0317352
-0.097233
0.0265078
-0.0913499
0.0290756
-0.0773927
0.0393595
-0.0526166
0.0550466
-0.0182631
0.0735604
0.0217405
0.0920927
0.0609248
0.108652
0.0949529
0.121787
0.121845
0.130748
0.142925
0.135812
0.161988
0.138459
0.180849
0.140705
0.193542
0.143735
0.186906
0.147375
0.149174
0.151006
0.0796032
0.154227
-0.00783246
0.156398
-0.0895763
0.156813
-0.147763
0.155114
-0.178867
0.151807
-0.189949
0.147842
-0.190049
0.142592
-0.184167
0.134397
-0.182364
0.12424
-0.182327
0.116859
-0.172073
0.116876
-0.12784
0.124748
-0.0540579
0.137258
0.0311824
0.1493
0.110613
0.156721
0.174747
0.157364
0.242682
0.152959
0.283777
0.147359
0.295101
0.143474
0.214864
0.143848
0.089165
0.147296
-0.0511453
0.150865
-0.156374
0.149292
-0.186636
0.143788
-0.262403
0.139752
-0.241594
0.1402
-0.258502
0.142556
-0.131717
0.142368
0.0367182
0.140419
0.117846
0.138343
0.358009
0.235122
0.116718
-0.0234538
0.117729
-0.0339978
0.11786
-0.0452709
0.116881
-0.0565786
0.1148
-0.0677892
0.111658
-0.0782184
0.107507
-0.0869391
0.102466
-0.0932799
0.0966792
-0.0968728
0.090184
-0.0976137
0.0826666
-0.0957526
0.07338
-0.0920776
0.0618196
-0.0879702
0.0490643
-0.0844777
0.0383706
-0.0806562
0.0338137
-0.0728358
0.0377799
-0.0565827
0.0495356
-0.0300189
0.0665307
0.00474542
0.0853101
0.0421453
0.103098
0.0771655
0.117946
0.106996
0.128916
0.131956
0.136331
0.154573
0.141642
0.175537
0.146438
0.188746
0.151187
0.182158
0.155226
0.145135
0.158039
0.0767899
0.15968
-0.0094732
0.159855
-0.0897513
0.158281
-0.14619
0.155017
-0.175603
0.15054
-0.185471
0.14581
-0.18532
0.14054
-0.178897
0.132915
-0.174738
0.123119
-0.172532
0.115375
-0.164329
0.114777
-0.127242
0.122482
-0.0617626
0.135537
0.0181276
0.148506
0.0976433
0.157083
0.16617
0.158947
0.240818
0.155663
0.287061
0.150652
0.300112
0.146469
0.219047
0.145838
0.0897954
0.148211
-0.0535179
0.151366
-0.159529
0.149787
-0.185057
0.144117
-0.256733
0.139858
-0.237335
0.140225
-0.258869
0.142751
-0.134243
0.142501
0.036968
0.140439
0.119908
0.138376
0.360072
0.236381
0.140994
-0.0243116
0.141119
-0.0341236
0.14008
-0.0442315
0.137713
-0.054212
0.134124
-0.0641997
0.129411
-0.0735058
0.123726
-0.0812537
0.117319
-0.0868736
0.110475
-0.090028
0.103431
-0.09057
0.096256
-0.0885776
0.0885722
-0.0843938
0.0794469
-0.0788449
0.0682018
-0.0732326
0.0559495
-0.0684039
0.0461634
-0.0630497
0.0429565
-0.0533758
0.0483529
-0.0354152
0.0613195
-0.00822126
0.0785269
0.024938
0.0964988
0.0591935
0.112618
0.0908765
0.125549
0.119026
0.135436
0.144686
0.143499
0.167475
0.15081
0.181434
0.157184
0.175784
0.161646
0.140673
0.163912
0.0745238
0.164229
-0.00979027
0.162588
-0.08811
0.159148
-0.14275
0.154454
-0.170909
0.148987
-0.180005
0.143596
-0.179929
0.138324
-0.173626
0.131401
-0.167815
0.122248
-0.163379
0.114347
-0.156428
0.113032
-0.125928
0.120261
-0.0689912
0.133553
0.00483565
0.147334
0.0838617
0.15713
0.156374
0.160365
0.237583
0.158329
0.289098
0.153971
0.30447
0.149531
0.223488
0.147918
0.0914086
0.14915
-0.0547507
0.151828
-0.162207
0.150276
-0.183505
0.144458
-0.250916
0.139919
-0.232796
0.140173
-0.259123
0.142956
-0.137025
0.142728
0.0371957
0.140565
0.122071
0.138542
0.362096
0.237512
0.161828
-0.023892
0.160553
-0.0328478
0.157937
-0.0416156
0.153951
-0.0502264
0.14877
-0.0590182
0.142516
-0.0672523
0.135416
-0.074154
0.127822
-0.0792795
0.120107
-0.0823125
0.112589
-0.0830525
0.105484
-0.0814728
0.0987897
-0.0776991
0.0919967
-0.0720519
0.0840212
-0.065257
0.0740907
-0.0584735
0.0633336
-0.0522926
0.0552019
-0.0452442
0.053603
-0.0338163
0.060209
-0.0148272
0.0733896
0.0117574
0.0898162
0.042767
0.106271
0.0744212
0.120785
0.104512
0.133027
0.132444
0.143764
0.156738
0.153478
0.17172
0.161392
0.16787
0.166374
0.135692
0.168324
0.0725733
0.167649
-0.00911543
0.164465
-0.0849262
0.159341
-0.137625
0.153358
-0.164926
0.14709
-0.173737
0.141157
-0.173995
0.135872
-0.16834
0.129707
-0.16165
0.121432
-0.155104
0.113616
-0.148611
0.111579
-0.123891
0.118036
-0.0754481
0.131244
-0.00837257
0.145697
0.0694091
0.156752
0.145319
0.161482
0.232853
0.160805
0.289775
0.157168
0.308106
0.15255
0.228105
0.150011
0.0939476
0.150079
-0.0548187
0.152216
-0.164344
0.150717
-0.182005
0.144795
-0.244994
0.139935
-0.227936
0.140027
-0.259214
0.143143
-0.140142
0.143032
0.0373069
0.140791
0.124312
0.138841
0.364045
0.238478
0.176819
-0.021984
0.173927
-0.0299556
0.169647
-0.0373363
0.164153
-0.0447321
0.157625
-0.0524901
0.150175
-0.0598021
0.142073
-0.0660521
0.133704
-0.0709107
0.125464
-0.0740731
0.117711
-0.0752988
0.11071
-0.0744716
0.1046
-0.0715895
0.0992757
-0.0667276
0.0941104
-0.0600917
0.0879439
-0.0523069
0.0800135
-0.0443623
0.0713991
-0.0366298
0.0653346
-0.0277517
0.0653261
-0.0148187
0.0724911
0.00459234
0.0851612
0.0300968
0.100325
0.0592576
0.115445
0.0893913
0.129485
0.118404
0.142531
0.143691
0.154373
0.159879
0.163707
0.158537
0.169317
0.130082
0.171227
0.0706627
0.169855
-0.00774377
0.165373
-0.080444
0.158758
-0.13101
0.151631
-0.157799
0.144743
-0.166849
0.138416
-0.167668
0.133098
-0.163022
0.127684
-0.156236
0.120466
-0.147887
0.112986
-0.141131
0.110292
-0.121197
0.115767
-0.0809234
0.128564
-0.0211697
0.143512
0.0544612
0.155836
0.132995
0.162179
0.22651
0.162964
0.28899
0.160109
0.310961
0.15541
0.232804
0.152047
0.0973112
0.150957
-0.0537294
0.152492
-0.165878
0.151067
-0.180581
0.145109
-0.239036
0.139911
-0.222738
0.139768
-0.259071
0.143285
-0.143659
0.143395
0.0371973
0.141108
0.126598
0.139276
0.365877
0.239243
0.18359
-0.0190418
0.179448
-0.0258135
0.173976
-0.0318649
0.167557
-0.0383131
0.160293
-0.0452263
0.152279
-0.0517879
0.143806
-0.0575791
0.135239
-0.0623435
0.126944
-0.0657786
0.119268
-0.067622
0.112494
-0.0676984
0.106828
-0.0659233
0.102349
-0.0622483
0.0988683
-0.0566112
0.0957156
-0.0491542
0.0917426
-0.0403893
0.0862126
-0.0310998
0.0801022
-0.0216413
0.0762733
-0.0109899
0.0775917
0.003274
0.0849179
0.0227706
0.0968246
0.0473509
0.110952
0.0752642
0.125674
0.103682
0.140276
0.129089
0.153771
0.146383
0.164325
0.147982
0.17063
0.123777
0.172743
0.0685503
0.170895
-0.00589636
0.165263
-0.0748119
0.157328
-0.123075
0.149194
-0.149665
0.141851
-0.159506
0.135302
-0.161119
0.129944
-0.157665
0.125214
-0.151505
0.119175
-0.141848
0.11227
-0.134225
0.10904
-0.117967
0.113386
-0.0852693
0.12549
-0.0332739
0.140725
0.0392261
0.154282
0.119438
0.162295
0.218496
0.164623
0.286662
0.162642
0.312942
0.157993
0.237454
0.153963
0.101341
0.151753
-0.0515196
0.152625
-0.16675
0.151288
-0.179244
0.145386
-0.233134
0.139857
-0.217209
0.139389
-0.258603
0.143354
-0.147624
0.143799
0.0367532
0.14151
0.128887
0.139846
0.367541
0.239765
0.181854
-0.0158939
0.177219
-0.0211781
0.171416
-0.026062
0.164886
-0.0317826
0.157614
-0.0379548
0.149731
-0.0439045
0.141517
-0.0493655
0.133282
-0.0541084
0.125351
-0.0578471
0.118046
-0.0603174
0.111662
-0.0613138
0.106439
-0.0607003
0.102497
-0.0583065
0.0998251
-0.0539394
0.0981872
-0.0475162
0.0969619
-0.039164
0.09522
-0.0293578
0.0923864
-0.0188078
0.0892856
-0.00788908
0.0877114
0.00484821
0.0902049
0.0202771
0.0976544
0.0399014
0.108977
0.0639413
0.122731
0.089928
0.137665
0.114155
0.151979
0.13207
0.163312
0.136649
0.170448
0.116641
0.173153
0.0658458
0.171039
-0.00378268
0.164408
-0.0681809
0.155337
-0.114003
0.146351
-0.14068
0.138667
-0.151822
0.132034
-0.154486
0.126607
-0.152238
0.122387
-0.147285
0.117535
-0.136997
0.111401
-0.128091
0.107756
-0.114322
0.110867
-0.08838
0.121993
-0.0443997
0.137263
0.0239556
0.152012
0.104689
0.161828
0.208681
0.16577
0.28272
0.16467
0.314041
0.16023
0.241894
0.155721
0.10585
0.152479
-0.0482772
0.152633
-0.166904
0.15137
-0.17798
0.145628
-0.227393
0.139788
-0.211369
0.138911
-0.257726
0.143337
-0.15205
0.144226
0.0358639
0.141989
0.131125
0.140556
0.368974
0.240004
0.173866
-0.0130707
0.169319
-0.0166316
0.164139
-0.0208817
0.158284
-0.0259278
0.151729
-0.0313992
0.144704
-0.0368804
0.137443
-0.0421045
0.130187
-0.0468517
0.123213
-0.0508735
0.116798
-0.0539019
0.111166
-0.0556821
0.10647
-0.0560042
0.102836
-0.0546727
0.100391
-0.0514941
0.0991931
-0.0463187
0.099105
-0.039076
0.0995994
-0.0298522
0.0998155
-0.0190239
0.0990719
-0.00714547
0.0983942
0.00552584
0.0993354
0.019336
0.103416
0.0358209
0.111249
0.0561086
0.122412
0.0787643
0.135896
0.100672
0.149754
0.118212
0.161617
0.124785
0.169944
0.108314
0.173368
0.0624217
0.170683
-0.00109814
0.162858
-0.0603559
0.152917
-0.104062
0.143408
-0.13117
0.135538
-0.143951
0.128923
-0.147871
0.123383
-0.146699
0.119417
-0.143319
0.115618
-0.133198
0.110391
-0.122865
0.106455
-0.110386
0.108338
-0.0902626
0.118238
-0.0543
0.133261
0.00893247
0.148835
0.0891156
0.160373
0.197143
0.166046
0.277047
0.166
0.314088
0.161989
0.245905
0.157249
0.11059
0.153091
-0.0441189
0.152527
-0.166341
0.151312
-0.176764
0.145831
-0.221913
0.139689
-0.205226
0.138379
-0.256416
0.143246
-0.156917
0.144673
0.0344367
0.142541
0.133257
0.141405
0.370109
0.239916
0.205719
-0.0104787
-0.208311
0.203906
-0.0148187
0.201798
-0.0187738
0.199112
-0.0232418
0.195761
-0.0280486
0.19177
-0.032889
0.187188
-0.0375226
0.182062
-0.0417258
0.176467
-0.0452786
0.170517
-0.047952
0.164348
-0.0495133
0.158095
-0.0497511
0.151896
-0.0484733
0.1459
-0.0454981
0.140253
-0.0406716
0.135068
-0.033891
0.130314
-0.0250983
0.125657
-0.0143666
0.120764
-0.00225287
0.11518
0.0111098
0.109741
0.0247747
0.105738
0.0398236
0.104752
0.0570956
0.10795
0.0755656
0.115601
0.0930213
0.127288
0.106525
0.143085
0.108988
0.162095
0.0893041
0.179461
0.045055
0.189874
-0.011511
0.192409
-0.0628905
0.188596
-0.10025
0.181218
-0.123793
0.172653
-0.135386
0.163903
-0.139121
0.155331
-0.138126
0.147798
-0.135786
0.14072
-0.126119
0.132315
-0.11446
0.123868
-0.101939
0.11928
-0.0856745
0.121046
-0.0560663
0.126948
0.0030302
0.132935
0.0831288
0.136744
0.193334
0.13941
0.274381
0.143123
0.310374
0.148637
0.240391
0.15373
0.105497
0.156369
-0.0467584
0.156915
-0.166886
0.154663
-0.174512
0.147904
-0.215153
0.139972
-0.197294
0.135351
-0.251796
0.13506
-0.156626
0.133221
0.036276
0.129073
0.137405
0.128272
0.37091
0.23913
0.214713
-0.00853537
-0.216656
0.212587
-0.0126933
0.21045
-0.016636
0.207841
-0.0206335
0.204616
-0.0248237
0.200797
-0.0290697
0.196425
-0.0331501
0.191548
-0.0368491
0.186238
-0.0399691
0.180599
-0.042313
0.174762
-0.0436756
0.168867
-0.0438567
0.163063
-0.0426691
0.157503
-0.0399383
0.152336
-0.0355037
0.147699
-0.0292544
0.143702
-0.021101
0.140293
-0.0109583
0.13703
0.00101075
0.133775
0.0143651
0.130368
0.0281811
0.127625
0.0425666
0.12706
0.0576611
0.130152
0.0724733
0.137591
0.0855827
0.149494
0.0946216
0.1657
0.0927826
0.183796
0.0712075
0.198745
0.0301063
0.206273
-0.0190385
0.206357
-0.0629746
0.200835
-0.0947283
0.192309
-0.115266
0.183035
-0.126112
0.173962
-0.130048
0.165108
-0.129271
0.157239
-0.127918
0.150231
-0.119111
0.142215
-0.106444
0.133637
-0.0933606
0.128159
-0.0801968
0.129043
-0.05695
0.134747
-0.00267434
0.141233
0.076643
0.145814
0.188753
0.149453
0.270741
0.154384
0.305444
0.160934
0.233841
0.166581
0.0998505
0.16885
-0.0490276
0.16862
-0.166657
0.165622
-0.171514
0.158312
-0.207844
0.149522
-0.188503
0.144068
-0.246343
0.143803
-0.15636
0.141941
0.0381388
0.137459
0.141886
0.136802
0.371567
0.238132
0.223358
-0.00710125
-0.224792
0.221451
-0.0107871
0.219284
-0.0144687
0.216743
-0.0180921
0.213684
-0.0217653
0.210077
-0.0254621
0.205952
-0.0290254
0.201363
-0.0322601
0.196377
-0.0349829
0.191084
-0.0370197
0.185601
-0.0381929
0.180066
-0.0383216
0.174627
-0.0372301
0.169443