/*--------------------------------*- C++ -*----------------------------------*\
| =========                 |                                                 |
| \\      /  F ield         | OpenFOAM: The Open Source CFD Toolbox           |
|  \\    /   O peration     | Version:  2512                                  |
|   \\  /    A nd           | Website:  www.openfoam.com                      |
|    \\/     M anipulation  |                                                 |
\*---------------------------------------------------------------------------*/
FoamFile
{
    version     2.0;
    format      ascii;
    arch        "LSB;label=32;scalar=64";
    class       volVectorField;
    location    "98";
    object      U;
}
// * * * * * * * * * * * * * * * * * * * * * * * * * * * * * * * * * * * * * //

dimensions      [0 1 -1 0 0 0 0];

internalField   nonuniform List<vector> 
13248
(
(-0.0132655 0.011433 6.82083e-20)
(-0.025746 0.0234638 0)
(-0.0250722 0.0289803 -1.28872e-19)
(-0.0111963 0.0307259 1.214e-19)
(0.0159812 0.0305344 1.13272e-19)
(0.0565246 0.0296536 0)
(0.110388 0.0289585 0)
(0.177253 0.0290652 2.67785e-19)
(0.256344 0.0303736 -2.30695e-21)
(0.346299 0.0330923 -2.32132e-19)
(0.445086 0.0372359 2.13814e-19)
(0.550039 0.0426228 -1.33398e-19)
(0.65798 0.0488871 0)
(0.765439 0.055511 -2.30158e-19)
(0.868908 0.0618762 4.31135e-19)
(0.965115 0.067329 -1.01885e-19)
(1.05127 0.0712551 -1.87649e-19)
(1.12527 0.0731215 1.76159e-19)
(1.18584 0.0726317 0)
(1.23258 0.0693268 0)
(1.26602 0.0640826 0)
(1.28727 0.054059 0)
(1.29799 0.047425 5.75757e-20)
(1.30079 0.0228742 2.15158e-19)
(-0.013898 0.0109058 -2.06123e-19)
(-0.022619 0.02064 1.40691e-19)
(-0.0136503 0.0240151 -1.36515e-21)
(0.0122369 0.0240299 -1.85771e-19)
(0.0546536 0.0227732 -1.13147e-19)
(0.113198 0.0217108 -1.06935e-19)
(0.187149 0.0218389 -1.94589e-19)
(0.275196 0.0237796 1.8455e-19)
(0.375224 0.0278305 0)
(0.484239 0.0339805 1.08737e-21)
(0.598476 0.0419234 2.79564e-21)
(0.713668 0.0510955 1.34656e-19)
(0.825422 0.0607436 0)
(0.929629 0.0700183 0)
(1.02284 0.0780806 1.59383e-19)
(1.10257 0.0842038 -2.99424e-19)
(1.16741 0.0878533 1.82371e-19)
(1.21713 0.0887357 -1.71219e-19)
(1.25255 0.0868036 -7.67658e-20)
(1.27537 0.0822354 -1.42887e-19)
(1.28777 0.0753973 -6.13291e-20)
(1.29235 0.0665215 -1.16272e-19)
(1.29078 0.0575655 1.67085e-19)
(1.28715 0.0441984 4.86502e-20)
(-0.0132562 0.00957906 0)
(-0.0154525 0.0163883 0)
(0.004985 0.0179201 6.57219e-20)
(0.0463434 0.0171279 6.03429e-20)
(0.107473 0.0161783 -1.76544e-21)
(0.187062 0.0166263 -1.11207e-19)
(0.2831 0.0194376 0)
(0.392568 0.0250556 -9.15196e-20)
(0.511346 0.0334466 8.62145e-20)
(0.63441 0.0441421 1.21046e-21)
(0.756283 0.0563193 -1.45815e-19)
(0.871627 0.0689289 -1.33586e-19)
(0.975835 0.0808541 2.20889e-21)
(1.0655 0.0910719 -1.11477e-19)
(1.13867 0.0987874 2.66478e-19)
(1.19494 0.103518 0)
(1.23527 0.10512 -1.76636e-19)
(1.26166 0.103744 8.54125e-20)
(1.27678 0.0998052 7.67046e-20)
(1.28346 0.0937282 0)
(1.28436 0.0863675 6.44218e-20)
(1.28149 0.077395 -2.23949e-19)
(1.27627 0.0697998 2.10234e-19)
(1.27081 0.0574129 1.35187e-19)
(-0.0109426 0.00750523 -7.34367e-20)
(-0.00325983 0.0108741 -7.6046e-20)
(0.0321067 0.0110205 6.84895e-20)
(0.0923278 0.0105576 0)
(0.175081 0.0115173 0)
(0.277507 0.0153355 -2.81468e-21)
(0.395548 0.0226891 0)
(0.523793 0.033538 -2.82087e-19)
(0.655771 0.0472163 2.61598e-19)
(0.784633 0.06258 -3.21852e-19)
(0.904012 0.0782223 7.3257e-20)
(1.00883 0.0927245 0)
(1.09583 0.104886 1.22551e-19)
(1.16379 0.113887 -2.27251e-19)
(1.21336 0.119356 5.38972e-20)
(1.24664 0.121349 1.40329e-19)
(1.26666 0.120246 -5.09419e-21)
(1.27672 0.116627 -1.57213e-19)
(1.27991 0.111116 0)
(1.27874 0.104313 0)
(1.27496 0.096722 -5.76913e-20)
(1.2697 0.0885076 5.21725e-20)
(1.26352 0.0810978 1.904e-19)
(1.25741 0.0705048 -1.78742e-19)
(-0.00659343 0.00487886 -7.78897e-20)
(0.0148355 0.00464916 -7.74347e-20)
(0.0687519 0.00420866 2.17615e-19)
(0.150907 0.00553283 -1.31649e-19)
(0.257202 0.0102397 1.23916e-19)
(0.382443 0.0193237 2.24216e-19)
(0.51979 0.0327921 -1.58616e-19)
(0.661109 0.0497498 -1.92561e-19)
(0.797926 0.0686518 4.19629e-21)
(0.922638 0.0876473 2.44795e-19)
(1.02958 0.104955 0)
(1.11562 0.119177 6.75339e-20)
(1.18026 0.129489 0)
(1.22518 0.135665 -1.10267e-19)
(1.25352 0.137988 1.54973e-19)
(1.26911 0.137067 1.31046e-21)
(1.27569 0.133647 -4.1139e-20)
(1.27642 0.128452 7.73683e-20)
(1.27367 0.122086 6.71745e-20)
(1.26898 0.114989 -6.06415e-20)
(1.26326 0.107513 5.76794e-20)
(1.257 0.0997138 -5.21611e-20)
(1.25039 0.0924983 0)
(1.24403 0.083031 -3.99007e-20)
(0.000129124 0.00199711 7.78785e-20)
(0.0395512 -0.00142712 8.20057e-20)
(0.115562 -0.00116619 -7.29857e-20)
(0.222012 0.00376139 1.35999e-19)
(0.352257 0.0141658 -1.28003e-19)
(0.497975 0.0301446 1.15446e-19)
(0.649182 0.0505861 -5.56062e-20)
(0.795441 0.0734505 1.44651e-19)
(0.92754 0.0963101 -9.12014e-20)
(1.03892 0.116907 1.61111e-19)
(1.12639 0.133581 -3.71876e-19)
(1.19004 0.145481 1.36906e-19)
(1.23248 0.152538 -1.19613e-19)
(1.2578 0.155271 1.12353e-19)
(1.27049 0.154524 9.74479e-20)
(1.27469 0.151216 8.59557e-20)
(1.27365 0.14616 -2.39543e-19)
(1.26966 0.139989 1.48824e-19)
(1.26418 0.133144 -6.71787e-20)
(1.25801 0.125917 1.76566e-19)
(1.25156 0.118492 -5.69997e-20)
(1.245 0.11097 -1.40337e-19)
(1.23839 0.103794 1.29811e-19)
(1.23195 0.0951425 3.98893e-20)
(0.00952796 -0.000768904 0)
(0.0713475 -0.00628934 8.27739e-22)
(0.172559 -0.00350846 1.53625e-19)
(0.304475 0.00709259 -1.43953e-19)
(0.457093 0.024979 -1.29547e-19)
(0.618503 0.0488164 2.4063e-19)
(0.775964 0.0760196 -1.11682e-19)
(0.918109 0.103406 1.48363e-19)
(1.03695 0.128041 -3.33272e-21)
(1.12882 0.147857 -8.40393e-20)
(1.19413 0.161894 1.82784e-19)
(1.23631 0.170213 -2.70141e-19)
(1.26029 0.173576 0)
(1.27129 0.173081 -5.31645e-20)
(1.27385 0.169839 -1.42129e-19)
(1.27143 0.164789 4.47061e-20)
(1.26636 0.158622 1.64726e-21)
(1.26008 0.1518 -9.92691e-20)
(1.25334 0.144616 5.689e-21)
(1.24652 0.137246 1.151e-19)
(1.23975 0.129806 -5.18423e-20)
(1.23307 0.122379 -1.99103e-20)
(1.22642 0.115124 6.08153e-20)
(1.2199 0.107067 0)
(0.0218269 -0.00298578 0)
(0.110294 -0.00875747 4.17369e-20)
(0.238944 -0.00119161 -2.0125e-19)
(0.395862 0.0171641 7.30889e-20)
(0.567118 0.0437911 -6.87871e-20)
(0.737452 0.075464 -6.29172e-20)
(0.892717 0.108081 -1.10763e-19)
(1.02269 0.137739 5.54883e-20)
(1.12255 0.161687 4.79545e-20)
(1.19263 0.178686 0)
(1.23693 0.18885 1.09056e-19)
(1.26128 0.193184 -1.6255e-19)
(1.27166 0.193072 1.20835e-19)
(1.27321 0.189873 5.31932e-20)
(1.2697 0.184699 -4.38048e-20)
(1.26367 0.178348 -3.67144e-20)
(1.25657 0.171334 -3.43871e-20)
(1.2492 0.16397 1.02585e-19)
(1.2419 0.156437 0)
(1.23481 0.148844 5.20053e-20)
(1.22793 0.141266 4.41184e-20)
(1.22124 0.133765 -1.09185e-19)
(1.21466 0.126356 -7.54437e-20)
(1.20817 0.118689 6.9575e-20)
(0.0371069 -0.00416928 -4.55039e-20)
(0.155944 -0.00762804 -1.92591e-21)
(0.312997 0.00724258 4.10628e-20)
(0.492593 0.0351248 1.14977e-19)
(0.676892 0.070913 3.3409e-20)
(0.848455 0.109325 -6.46148e-20)
(0.993837 0.145154 5.88408e-20)
(1.10605 0.174545 -5.1382e-20)
(1.18464 0.195662 9.21624e-20)
(1.23392 0.208519 3.90924e-20)
(1.26055 0.214335 -1.11244e-19)
(1.27148 0.214832 3.26669e-20)
(1.27263 0.211699 5.5811e-20)
(1.26832 0.206296 -2.74512e-20)
(1.26139 0.199585 0)
(1.25345 0.192171 4.09814e-20)
(1.24535 0.184411 6.94729e-20)
(1.23746 0.176502 1.19776e-20)
(1.22991 0.168556 -5.8023e-20)
(1.22271 0.160644 2.43092e-20)
(1.21582 0.152817 0)
(1.20916 0.145105 -1.9196e-20)
(1.20267 0.137479 -1.83652e-20)
(1.19624 0.130005 0)
(0.0552417 -0.00380825 0)
(0.207245 -0.00177722 2.38939e-20)
(0.392122 0.0229122 4.42286e-20)
(0.590324 0.061476 -1.17622e-19)
(0.780969 0.105862 3.81247e-20)
(0.946439 0.149034 0)
(1.07625 0.1855 5.6944e-20)
(1.16807 0.212318 -7.95232e-20)
(1.22596 0.229091 -4.61205e-20)
(1.25735 0.237168 2.07518e-20)
(1.27031 0.238661 -3.32887e-20)
(1.27183 0.235691 8.07785e-20)
(1.26706 0.229979 4.0332e-20)
(1.25932 0.222729 -2.80751e-20)
(1.25052 0.214695 -2.66612e-21)
(1.24162 0.206305 -7.67036e-20)
(1.23305 0.197789 3.49276e-20)
(1.22494 0.189272 -9.24534e-22)
(1.21732 0.180822 0)
(1.21014 0.172488 -2.43348e-20)
(1.20332 0.164303 0)
(1.19677 0.156267 5.52377e-20)
(1.19042 0.148381 -6.57642e-20)
(1.18412 0.140914 3.00052e-20)
(0.0758523 -0.0014021 -1.2577e-20)
(0.26254 0.00973263 -6.04317e-20)
(0.473045 0.0464697 6.88761e-20)
(0.684484 0.0960372 4.03724e-20)
(0.874664 0.147536 -1.92516e-20)
(1.02815 0.192977 3.23136e-20)
(1.13918 0.2276 -1.56811e-20)
(1.21053 0.250067 2.60021e-20)
(1.25008 0.261625 0)
(1.26717 0.264785 5.86943e-20)
(1.2702 0.26223 -2.49573e-21)
(1.26547 0.256189 -4.72397e-20)
(1.2571 0.248234 2.01761e-20)
(1.24744 0.239345 -2.27214e-20)
(1.23768 0.230072 -8.60573e-21)
(1.22834 0.220701 9.99382e-21)
(1.21959 0.211375 -7.68258e-21)
(1.21145 0.20217 -4.17688e-20)
(1.20389 0.193131 2.55812e-20)
(1.19682 0.184289 5.22495e-21)
(1.19015 0.175657 4.60246e-21)
(1.18378 0.16722 4.05675e-21)
(1.17761 0.159048 0)
(1.17147 0.151396 0)
(0.0983664 0.00350485 1.25857e-20)
(0.319781 0.0275691 -1.25721e-20)
(0.552283 0.0780307 -2.29772e-20)
(0.770957 0.138013 0)
(0.954604 0.194463 -9.57821e-21)
(1.09212 0.239587 -8.64677e-21)
(1.18337 0.270292 -1.47326e-20)
(1.23587 0.287241 0)
(1.26019 0.29323 0)
(1.26648 0.291626 0)
(1.26265 0.285365 0)
(1.25397 0.276573 0)
(1.24354 0.266584 -1.26742e-20)
(1.2329 0.256144 5.76903e-21)
(1.22274 0.245631 1.00019e-20)
(1.21329 0.235225 4.67645e-21)
(1.20459 0.225012 1.15365e-20)
(1.19658 0.215036 0)
(1.18921 0.205323 -2.75546e-21)
(1.18237 0.195892 -2.6463e-21)
(1.17596 0.186737 -4.60982e-21)
(1.16988 0.177848 -4.06325e-21)
(1.16399 0.169364 0)
(1.15814 0.161363 2.9044e-21)
(-0.00160191 0.00461457 8.49413e-21)
(-0.00765782 0.0206301 -8.80647e-21)
(-0.0181988 0.0402211 -1.6656e-20)
(-0.0309959 0.0608386 0)
(-0.0448553 0.0808238 -2.22899e-20)
(-0.0591657 0.0994286 7.03503e-21)
(-0.073463 0.116612 -1.3142e-20)
(-0.0873684 0.132759 0)
(-0.100577 0.148416 0)
(-0.112841 0.16409 0)
(-0.123953 0.180128 0)
(-0.133733 0.196679 0)
(-0.14202 0.213698 1.14255e-22)
(-0.148655 0.230976 -8.70365e-21)
(-0.153476 0.248165 1.62741e-20)
(-0.156315 0.264804 2.3141e-20)
(-0.156994 0.280327 7.24545e-21)
(-0.155337 0.294077 0)
(-0.151176 0.305323 6.58388e-21)
(-0.144375 0.313294 -1.86444e-20)
(-0.134825 0.317231 -1.18978e-20)
(-0.12242 0.316422 -1.13855e-20)
(-0.107113 0.31024 0)
(-0.0893152 0.298447 0)
(-0.00189966 0.00839451 -2.541e-20)
(-0.00807167 0.0293753 4.38544e-20)
(-0.0176886 0.0522582 -1.63602e-20)
(-0.0289497 0.0750651 -3.11706e-20)
(-0.0408578 0.0964492 4.41533e-20)
(-0.0528832 0.115824 -2.76399e-20)
(-0.0646232 0.133231 3.91342e-20)
(-0.0757393 0.149103 2.4252e-20)
(-0.0859392 0.164027 0)
(-0.0949611 0.178552 -2.18947e-20)
(-0.102566 0.193068 -6.40116e-23)
(-0.108533 0.207759 1.93454e-20)
(-0.112656 0.222602 2.7029e-20)
(-0.114734 0.237398 3.4178e-20)
(-0.11457 0.251801 -1.60487e-20)
(-0.111967 0.265344 -4.56806e-20)
(-0.106731 0.277464 1.45054e-20)
(-0.0986802 0.287518 -5.45343e-20)
(-0.0876483 0.294805 0)
(-0.0734998 0.298599 1.24431e-20)
(-0.0561485 0.298203 1.18775e-20)
(-0.0355419 0.29302 1.13656e-20)
(-0.0115102 0.282687 0)
(0.0158591 0.267522 0)
(-0.00247162 0.010914 0)
(-0.00905558 0.0352671 8.63939e-20)
(-0.0177918 0.0604696 -3.26078e-20)
(-0.0273465 0.0848786 3.0887e-20)
(-0.0369381 0.107333 -8.66067e-20)
(-0.0461299 0.127318 0)
(-0.0545962 0.144885 -5.10856e-20)
(-0.0620597 0.160451 2.38215e-20)
(-0.0682654 0.174596 -4.47288e-20)
(-0.0729624 0.187879 2.05976e-20)
(-0.0759023 0.200725 1.19334e-19)
(-0.0768426 0.21336 -5.60506e-20)
(-0.075547 0.225804 -8.87719e-20)
(-0.0717888 0.237893 -3.34229e-20)
(-0.0653529 0.249313 -5.08103e-22)
(-0.0560382 0.259625 1.19736e-19)
(-0.0436556 0.2683 -5.65146e-20)
(-0.0280468 0.274735 3.20334e-22)
(-0.009094 0.27828 0)
(0.0132831 0.278272 -4.96314e-20)
(0.0390958 0.274067 0)
(0.0682914 0.265112 -4.79137e-20)
(0.10112 0.251138 1.79855e-19)
(0.138374 0.232624 3.14454e-21)
(-0.00314912 0.0121775 0)
(-0.0103548 0.038235 -2.80124e-22)
(-0.0184089 0.0646347 3.21398e-20)
(-0.0263544 0.0898733 -3.01429e-20)
(-0.0335838 0.112878 2.88468e-20)
(-0.039739 0.133146 1.60468e-19)
(-0.0445711 0.150682 -5.03692e-20)
(-0.0478779 0.165841 -4.68297e-20)
(-0.0494665 0.179145 8.8604e-20)
(-0.0491282 0.191135 -1.25139e-19)
(-0.0466357 0.202243 3.86891e-20)
(-0.041759 0.212731 3.63633e-20)
(-0.0342651 0.22267 0)
(-0.023925 0.231956 3.30085e-20)
(-0.0105281 0.240332 0)
(0.00611189 0.247423 5.8053e-20)
(0.0261512 0.252762 -1.1275e-19)
(0.0497054 0.255818 2.47641e-20)
(0.076839 0.256023 1.01361e-19)
(0.107563 0.252801 4.95704e-20)
(0.141824 0.245588 0)
(0.179492 0.233863 -1.40375e-19)
(0.220288 0.217381 4.36791e-20)
(0.268116 0.196153 0)
(-0.00380988 0.012395 0)
(-0.0117746 0.0386227 -1.02028e-19)
(-0.0194668 0.0650361 -3.18399e-20)
(-0.0261242 0.0901622 -6.00251e-20)
(-0.0312334 0.112978 5.65178e-20)
(-0.0344827 0.132975 -5.32385e-20)
(-0.0356872 0.150092 9.8942e-20)
(-0.0347207 0.164592 4.64549e-20)
(-0.0314673 0.176915 -1.3105e-19)
(-0.0257911 0.187542 8.15021e-20)
(-0.0175281 0.196886 -1.15252e-19)
(-0.00649415 0.205224 2.50652e-19)
(0.00750668 0.212675 -1.35235e-19)
(0.0246688 0.219197 6.31061e-20)
(0.0451705 0.224608 1.81225e-19)
(0.0691636 0.228611 -5.65146e-20)
(0.0967644 0.230828 -5.21519e-20)
(0.128046 0.230816 -5.19471e-20)
(0.163035 0.228106 0)
(0.201711 0.222211 -9.84133e-20)
(0.243955 0.212659 -9.83604e-20)
(0.29006 0.198955 1.34047e-19)
(0.337697 0.180949 1.80869e-19)
(0.39755 0.157615 -1.68809e-19)
(-0.00442129 0.0119117 0)
(-0.0132517 0.0370933 -1.34729e-19)
(-0.0209579 0.0623821 5.34666e-22)
(-0.0267748 0.086347 1.19379e-19)
(-0.0301887 0.108045 0)
(-0.0309007 0.126986 0)
(-0.0287703 0.143064 0)
(-0.0237401 0.156452 -4.58006e-20)
(-0.0157758 0.167495 4.2611e-22)
(-0.00482856 0.176596 8.01752e-20)
(0.00918065 0.184124 -1.13459e-19)
(0.026361 0.190349 9.53043e-23)
(0.0468435 0.195418 0)
(0.0707677 0.199342 -6.30747e-20)
(0.098269 0.20201 5.88235e-20)
(0.129467 0.20321 -1.6646e-19)
(0.164457 0.202652 2.14194e-19)
(0.203313 0.199985 5.37241e-20)
(0.246073 0.194824 4.97097e-21)
(0.292802 0.186773 -1.86506e-19)
(0.343116 0.175419 -9.02384e-20)
(0.398786 0.160356 3.12964e-19)
(0.453026 0.141603 -2.10794e-19)
(0.528006 0.116608 0)
(-0.00503853 0.0111411 6.51285e-20)
(-0.0148564 0.0344872 6.73068e-20)
(-0.0229329 0.0576708 -6.29184e-20)
(-0.0283317 0.0794349 -1.1793e-19)
(-0.0304769 0.0990002 1.11036e-19)
(-0.0290615 0.115958 -1.03042e-19)
(-0.0239724 0.1302 1.44952e-19)
(-0.0152046 0.141843 -4.56264e-20)
(-0.00279228 0.151151 8.438e-20)
(0.0132365 0.15845 0)
(0.0328843 0.164052 7.2377e-20)
(0.0561927 0.168205 -1.36154e-19)
(0.0832396 0.171063 1.29204e-19)
(0.114131 0.172673 -1.21344e-19)
(0.148992 0.172982 0)
(0.187957 0.171848 1.08982e-19)
(0.231154 0.169057 2.08118e-19)
(0.278717 0.16434 -1.96631e-19)
(0.330724 0.157381 -9.41415e-20)
(0.387504 0.147896 -9.59213e-20)
(0.447907 0.135393 2.65371e-19)
(0.51635 0.119823 8.77535e-20)
(0.578344 0.100972 -7.94201e-20)
(0.672667 0.0757734 7.88262e-20)
(-0.00579941 0.0104726 -6.51375e-20)
(-0.0167489 0.0316349 2.00242e-19)
(-0.025405 0.0519915 -6.28615e-20)
(-0.0305884 0.0706674 1.17195e-19)
(-0.0316428 0.0871661 -1.10344e-19)
(-0.0282511 0.101239 1.65367e-22)
(-0.0203117 0.112836 4.79802e-20)
(-0.00784336 0.122068 1.75974e-19)
(0.00909 0.129154 -1.53927e-21)
(0.0304305 0.13436 -7.83664e-20)
(0.0561579 0.13795 0)
(0.086304 0.140145 -6.64443e-20)
(0.120954 0.141093 1.26291e-19)
(0.16024 0.140862 1.18997e-19)
(0.204325 0.139436 -5.62495e-20)
(0.25339 0.13672 -1.18926e-21)
(0.3076 0.132557 -5.1233e-20)
(0.367087 0.126738 9.57527e-20)
(0.431767 0.118967 9.41324e-20)
(0.502071 0.109151 -9.07085e-20)
(0.575444 0.0964891 8.52489e-20)
(0.658959 0.0819006 -8.20877e-20)
(0.72942 0.0636802 0)
(0.841875 0.0414865 -7.87978e-20)
(-0.00685507 0.0101762 6.48649e-20)
(-0.0190488 0.0291759 -6.68056e-20)
(-0.0281926 0.0463009 6.2683e-20)
(-0.0329145 0.0612908 0)
(-0.0325095 0.0740553 0)
(-0.0266565 0.0845828 1.00895e-19)
(-0.0152421 0.0929499 -9.5349e-20)
(0.00174092 0.0993141 8.66121e-20)
(0.0242665 0.103891 -4.08993e-19)
(0.052325 0.106924 6.13438e-22)
(0.0859514 0.108646 7.05455e-20)
(0.125232 0.109257 0)
(0.170296 0.108897 -1.23989e-19)
(0.221287 0.107636 2.33214e-19)
(0.278322 0.10547 -1.65148e-19)
(0.341445 0.10232 -2.62392e-19)
(0.410567 0.0980467 -3.13703e-21)
(0.48544 0.0924729 1.85988e-19)
(0.565385 0.0853023 0)
(0.65025 0.0766364 0)
(0.736237 0.0653211 -8.52501e-20)
(0.830287 0.0534749 8.20881e-20)
(0.906311 0.0368354 -3.13273e-19)
(1.02253 0.0207074 2.93422e-19)
(-0.00828811 0.0103328 0)
(-0.0216756 0.0274062 0)
(-0.0307426 0.0412181 -1.87752e-19)
(-0.0340929 0.0523093 5.98093e-20)
(-0.0310337 0.0610891 1.19351e-21)
(-0.0212444 0.0678463 1.02318e-19)
(-0.00456537 0.0728384 0)
(0.0190939 0.0763187 -8.76309e-20)
(0.0498064 0.0785444 8.15865e-20)
(0.0876539 0.0797661 -1.49917e-19)
(0.132726 0.0802105 4.5056e-22)
(0.185093 0.0800595 1.30822e-19)
(0.244761 0.0794328 -2.1596e-22)
(0.311606 0.0783761 1.15704e-19)
(0.385315 0.076855 -1.62625e-19)
(0.465322 0.0747596 0)
(0.550755 0.071914 1.96993e-19)
(0.640436 0.0681007 -2.78883e-19)
(0.732741 0.0630167 8.80507e-20)
(0.826238 0.0566591 0)
(0.917179 0.0479999 7.99986e-20)
(1.00865 0.0391848 3.14227e-19)
(1.08168 0.0248232 -2.94895e-19)
(1.17792 0.0144815 -3.49991e-19)
(-0.010029 0.0108087 1.95663e-19)
(-0.0242211 0.0262098 -2.68917e-19)
(-0.0320459 0.0368962 8.43043e-22)
(-0.0323241 0.0442819 5.95851e-20)
(-0.0244527 0.0493087 -1.10248e-19)
(-0.00811682 0.0526026 -1.01905e-19)
(0.0169027 0.054637 1.8791e-19)
(0.0507813 0.0557931 -2.78547e-21)
(0.0936482 0.0563975 -1.63778e-19)
(0.145554 0.0567269 3.01297e-19)
(0.206416 0.0570001 -1.38853e-21)
(0.275943 0.0573633 -1.31311e-19)
(0.353559 0.0578742 0)
(0.438347 0.0584931 0)
(0.529011 0.0590803 -5.41869e-20)
(0.623879 0.0594029 -1.01746e-19)
(0.720942 0.0591606 -1.94355e-19)
(0.817922 0.0579759 1.82428e-19)
(0.91239 0.0555501 -8.80908e-20)
(1.00192 0.051411 1.66323e-19)
(1.08386 0.0454326 -7.84501e-20)
(1.1576 0.0377878 1.50708e-19)
(1.21547 0.0260176 -3.48275e-19)
(1.27536 0.0175687 6.82515e-20)
(-0.0118206 0.011296 6.58022e-20)
(-0.0259183 0.0251105 0)
(-0.0306998 0.0330272 1.27011e-19)
(-0.0254484 0.0372421 -1.1965e-19)
(-0.00974756 0.0391929 1.1035e-19)
(0.0166701 0.0398424 0)
(0.0540121 0.039876 0)
(0.102387 0.0398082 -8.73763e-20)
(0.161726 0.0400305 2.24637e-21)
(0.231671 0.0408228 7.71575e-20)
(0.311472 0.0423514 -7.01613e-20)
(0.399907 0.0446572 1.32021e-19)
(0.495257 0.0476468 0)
(0.595332 0.051092 2.2989e-19)
(0.697563 0.0546446 -4.31851e-19)
(0.799131 0.0578614 3.04603e-19)
(0.897147 0.0602578 1.91445e-19)
(0.988815 0.0612933 -1.79708e-19)
(1.07166 0.0606519 0)
(1.1436 0.0575459 0)
(1.20337 0.0528072 0)
(1.25025 0.0439879 0)
(1.28402 0.0350832 6.79973e-20)
(1.30975 0.0223325 -2.45768e-19)
(-0.0668729 0.278831 -7.55103e-21)
(-0.0378952 0.243251 7.59922e-21)
(-0.00499553 0.193281 -2.49641e-22)
(0.0319727 0.129304 0)
(0.0721674 0.0520867 -7.55407e-21)
(0.114621 -0.0367814 1.46101e-20)
(0.158735 -0.134147 -2.2165e-22)
(0.203592 -0.235881 -6.65133e-21)
(0.248001 -0.335947 0)
(0.290444 -0.426933 0)
(0.328776 -0.501187 -2.83864e-22)
(0.360263 -0.553471 -2.34609e-22)
(0.381717 -0.583171 -2.98479e-21)
(0.389442 -0.59554 2.71546e-21)
(0.380408 -0.599541 0)
(0.356703 -0.599793 0)
(0.329879 -0.58761 1.86059e-21)
(0.318034 -0.542094 1.52682e-22)
(0.334933 -0.444448 -1.79051e-21)
(0.380876 -0.293189 -1.24155e-22)
(0.446075 -0.105147 0)
(0.519 0.0921977 0)
(0.58998 0.267098 0)
(0.651264 0.395075 0)
(0.696962 0.47028 0)
(0.725428 0.50161 0)
(0.740582 0.50307 2.87882e-22)
(0.743715 0.494625 -4.64594e-22)
(0.728331 0.498771 0)
(0.692058 0.516505 0)
(0.650959 0.508218 -4.78288e-22)
(0.630682 0.4232 4.64851e-22)
(0.645323 0.247462 3.05979e-22)
(0.685918 0.0274503 0)
(0.737475 -0.176219 0)
(0.781331 -0.318038 3.90129e-22)
(0.813762 -0.392697 -3.79217e-22)
(0.833138 -0.415983 0)
(0.834362 -0.424905 2.09199e-22)
(0.806055 -0.442227 -2.9843e-22)
(0.756069 -0.440659 9.42119e-23)
(0.710036 -0.383507 0)
(0.697528 -0.231797 -2.55152e-22)
(0.714173 -0.0492151 2.48108e-22)
(0.758003 0.136002 0)
(0.800258 0.249328 0)
(0.827923 0.328117 -6.99384e-23)
(0.813425 0.379634 1.94649e-22)
(0.775234 0.38814 0)
(0.736566 0.357896 0)
(0.741269 0.186492 -6.29658e-23)
(0.764862 0.055839 -8.68603e-24)
(0.813316 -0.132184 -6.75323e-24)
(0.816493 -0.230032 4.26592e-23)
(0.804456 -0.307683 0)
(0.781079 -0.38512 0)
(0.787568 -0.225369 0)
(0.7869 -0.202212 0)
(0.799733 0.0689082 0)
(0.781591 0.216605 0)
(0.0480523 0.245882 -7.60589e-22)
(0.0834014 0.207814 -3.34616e-20)
(0.121461 0.15535 -7.74231e-22)
(0.16249 0.089257 3.21147e-20)
(0.205319 0.010529 5.22065e-22)
(0.249013 -0.0789531 0)
(0.292846 -0.176568 -2.91397e-20)
(0.335981 -0.278031 5.59446e-20)
(0.377205 -0.37693 -2.67937e-20)
(0.414635 -0.465151 2.07527e-20)
(0.445729 -0.534432 -1.98869e-20)
(0.467909 -0.57904 1.38457e-20)
(0.479254 -0.598005 -1.35101e-20)
(0.477958 -0.596421 -3.09239e-22)
(0.461053 -0.58515 -7.70299e-21)
(0.426742 -0.57476 7.48661e-21)
(0.381208 -0.563875 -6.47689e-21)
(0.341271 -0.533569 6.11362e-21)
(0.326448 -0.458379 -7.20299e-21)
(0.345859 -0.326771 1.45225e-20)
(0.394336 -0.150569 -7.29827e-21)
(0.460241 0.041969 -4.16939e-22)
(0.531695 0.219538 -6.11719e-21)
(0.598639 0.356283 1.09641e-20)
(0.653283 0.443322 -4.87799e-21)
(0.692671 0.485627 2.11444e-22)
(0.718687 0.496155 3.10792e-21)
(0.72975 0.49719 9.36449e-23)
(0.719381 0.511338 -5.93495e-21)
(0.688904 0.534678 6.5184e-21)
(0.657778 0.522764 -3.41746e-21)
(0.649618 0.426487 5.84626e-22)
(0.674368 0.238094 -3.06603e-22)
(0.720386 0.0095377 6.6969e-22)
(0.77267 -0.195838 0)
(0.812505 -0.333782 0)
(0.837284 -0.402697 -1.25956e-21)
(0.848204 -0.419438 9.54007e-22)
(0.844026 -0.419546 5.99219e-22)
(0.813195 -0.428013 4.58231e-23)
(0.759681 -0.423462 -8.14261e-22)
(0.708111 -0.372611 1.86018e-22)
(0.688731 -0.232277 0)
(0.703438 -0.0599782 0)
(0.747665 0.121178 0)
(0.793284 0.237661 0)
(0.822075 0.325551 2.73251e-22)
(0.808896 0.386413 -1.26754e-22)
(0.772946 0.398073 0)
(0.736222 0.363115 0)
(0.744703 0.183395 0)
(0.768036 0.047269 -1.28922e-22)
(0.819983 -0.13803 2.64517e-24)
(0.823387 -0.22948 -9.09322e-23)
(0.811495 -0.303579 0)
(0.787319 -0.383111 0)
(0.790657 -0.226368 3.63894e-23)
(0.789047 -0.203054 8.59089e-23)
(0.796797 0.0698492 0)
(0.779068 0.21792 0)
(0.176055 0.20952 3.74622e-21)
(0.215876 0.170604 -6.70404e-20)
(0.256997 0.117966 7.14371e-20)
(0.300333 0.0521521 -6.67813e-20)
(0.344766 -0.0255492 -5.25536e-22)
(0.389138 -0.11361 0)
(0.432525 -0.209748 -6.28393e-20)
(0.474086 -0.309482 6.15446e-20)
(0.512176 -0.406038 4.08033e-22)
(0.544238 -0.490749 7.3009e-22)
(0.567267 -0.554916 6.11979e-22)
(0.578866 -0.592805 4.89548e-22)
(0.578227 -0.603735 -2.27667e-20)
(0.56588 -0.592265 2.2438e-20)
(0.541319 -0.568286 0)
(0.501399 -0.545072 3.8227e-22)
(0.445905 -0.529262 -1.09887e-20)
(0.385873 -0.509051 1.08611e-20)
(0.342167 -0.457074 0)
(0.3325 -0.351136 0)
(0.359366 -0.193642 -1.26481e-20)
(0.41354 -0.0100994 2.44325e-20)
(0.481842 0.167098 -2.17255e-20)
(0.551634 0.31114 1.65114e-21)
(0.613474 0.409574 1.53647e-20)
(0.662868 0.463405 -1.33448e-20)
(0.698987 0.48451 1.14024e-20)
(0.717584 0.496436 -9.80796e-23)
(0.712902 0.520785 -5.66332e-21)
(0.689617 0.549153 0)
(0.669325 0.533999 0)
(0.67304 0.428391 4.05984e-21)
(0.707381 0.230178 -5.11873e-21)
(0.758173 -0.00498912 4.08584e-23)
(0.810286 -0.211037 4.50143e-21)
(0.84562 -0.345052 -4.37433e-21)
(0.862651 -0.408855 0)
(0.864982 -0.420437 2.7141e-22)
(0.85533 -0.41308 1.78556e-21)
(0.822545 -0.413289 -3.23655e-21)
(0.766553 -0.405707 1.33143e-21)
(0.710261 -0.361355 1.36882e-22)
(0.684067 -0.23318 -1.91083e-21)
(0.696432 -0.0720963 1.51354e-21)
(0.740292 0.104719 3.21822e-22)
(0.788521 0.224785 2.81986e-22)
(0.818077 0.322111 -2.73955e-22)
(0.806375 0.392585 0)
(0.773151 0.407525 0)
(0.738694 0.368388 -1.23736e-21)
(0.750857 0.180852 6.0491e-22)
(0.77344 0.0390431 -6.23466e-22)
(0.828291 -0.143694 7.83032e-22)
(0.831802 -0.228803 7.66025e-22)
(0.819747 -0.299043 -1.6868e-22)
(0.794196 -0.380869 2.22102e-22)
(0.794488 -0.227121 -1.51176e-22)
(0.792198 -0.203485 3.87406e-23)
(0.795 0.0710016 0)
(0.777498 0.219241 0)
(0.307361 0.172464 -1.39616e-19)
(0.349687 0.133315 -5.11046e-21)
(0.392628 0.0815824 1.37805e-19)
(0.437679 0.0175382 -1.10585e-21)
(0.483564 -0.0571617 0)
(0.528768 -0.142518 0)
(0.572284 -0.236056 -1.29083e-19)
(0.612919 -0.333003 6.37118e-21)
(0.648203 -0.426199 1.66584e-19)
(0.674742 -0.50646 -6.86758e-21)
(0.689198 -0.564809 -4.36381e-20)
(0.68963 -0.595876 -2.80796e-20)
(0.676297 -0.599974 2.82589e-20)
(0.651493 -0.582006 0)
(0.617839 -0.549814 -1.35693e-20)
(0.57432 -0.515085 1.2448e-20)
(0.516601 -0.489418 0)
(0.446837 -0.471215 0)
(0.381193 -0.438344 8.64803e-21)
(0.342602 -0.361566 7.40236e-22)
(0.343905 -0.230006 -8.54658e-21)
(0.381405 -0.0612546 -9.55858e-21)
(0.442094 0.11168 9.43423e-21)
(0.511484 0.260776 -7.42508e-21)
(0.578341 0.369552 1.07398e-21)
(0.636253 0.435126 5.92811e-21)
(0.681261 0.467926 6.46997e-22)
(0.706897 0.491565 2.47382e-23)
(0.708481 0.525822 0)
(0.693403 0.558846 7.67076e-21)
(0.684294 0.541514 -7.97386e-21)
(0.699665 0.429416 6.25506e-22)
(0.743084 0.224322 0)
(0.79815 -0.015599 -7.1883e-22)
(0.849585 -0.222 9.44531e-21)
(0.880217 -0.352407 -1.53907e-20)
(0.889635 -0.411599 9.50951e-22)
(0.883378 -0.419234 1.24204e-21)
(0.86804 -0.405921 3.41622e-21)
(0.833657 -0.398535 3.41385e-22)
(0.776311 -0.387504 -2.4052e-21)
(0.716415 -0.349368 2.01222e-21)
(0.683641 -0.234024 5.58742e-23)
(0.693169 -0.0850924 1.27249e-21)
(0.735811 0.0869239 -1.56013e-21)
(0.785848 0.21079 -1.82424e-21)
(0.815888 0.31768 5.39295e-22)
(0.805858 0.397948 1.043e-21)
(0.77587 0.416354 -2.20594e-21)
(0.744043 0.373785 1.77606e-21)
(0.759767 0.179043 -6.4213e-22)
(0.781093 0.031449 7.28648e-22)
(0.838142 -0.149137 6.54862e-22)
(0.841629 -0.228031 -1.20532e-21)
(0.829168 -0.294049 4.66464e-23)
(0.801636 -0.378307 -2.10898e-22)
(0.798947 -0.227642 0)
(0.79626 -0.203549 -6.22074e-23)
(0.794277 0.072358 5.57948e-23)
(0.776854 0.220583 0)
(0.436673 0.134711 1.39688e-19)
(0.48008 0.0965384 -2.79988e-19)
(0.524436 0.0464481 1.38051e-19)
(0.571693 -0.0140535 1.4387e-19)
(0.619332 -0.0850122 -2.82693e-19)
(0.665357 -0.166765 2.08669e-21)
(0.709275 -0.256289 1.33958e-19)
(0.748925 -0.348657 1.1784e-19)
(0.780802 -0.436527 -1.15387e-19)
(0.80082 -0.510631 0)
(0.805659 -0.562332 -7.3179e-20)
(0.794326 -0.58697 1.29299e-19)
(0.768588 -0.585657 -5.65587e-20)
(0.731979 -0.563971 0)
(0.68871 -0.528626 0)
(0.640947 -0.487548 3.57139e-22)
(0.584949 -0.451836 -1.55269e-20)
(0.515615 -0.428173 1.50858e-20)
(0.439068 -0.405374 0)
(0.376482 -0.355301 1.32477e-20)
(0.349981 -0.254873 -2.6093e-20)
(0.365674 -0.108327 2.6642e-20)
(0.414025 0.0553741 -2.61562e-20)
(0.479451 0.206342 1.08001e-21)
(0.548599 0.323735 2.0926e-20)
(0.612828 0.400786 -9.81766e-21)
(0.665059 0.445932 -3.06948e-22)
(0.697105 0.481649 -5.01572e-21)
(0.705386 0.525423 -1.08046e-21)
(0.699196 0.563097 6.08541e-21)
(0.701334 0.545308 5.27163e-22)
(0.727779 0.429977 -1.14495e-20)
(0.779726 0.221025 2.34404e-20)
(0.839121 -0.0219308 -1.34989e-20)
(0.889776 -0.22845 0)
(0.915641 -0.355659 -8.52687e-21)
(0.917714 -0.410807 8.03534e-21)
(0.903112 -0.415696 -3.36836e-21)
(0.881985 -0.398081 4.22707e-21)
(0.84627 -0.384096 -3.00918e-22)
(0.788571 -0.369347 0)
(0.726297 -0.336796 -2.37321e-22)
(0.687387 -0.234507 8.03416e-22)
(0.693534 -0.0986273 0)
(0.73402 0.0680498 2.4449e-21)
(0.785072 0.19569 -9.86529e-22)
(0.815402 0.31207 4.75512e-22)
(0.807262 0.402252 4.72817e-22)
(0.781034 0.424413 0)
(0.752184 0.379319 0)
(0.771375 0.17811 -2.21137e-21)
(0.791 0.024552 3.49201e-21)
(0.849399 -0.15429 -1.89296e-21)
(0.852731 -0.227139 5.36948e-22)
(0.839708 -0.288515 7.49389e-22)
(0.809583 -0.375333 2.11095e-22)
(0.803924 -0.227964 -1.99922e-22)
(0.801134 -0.203298 0)
(0.794555 0.0739117 -9.73296e-23)
(0.777097 0.221961 -1.11464e-23)
(0.566393 0.095565 1.38107e-19)
(0.609682 0.0595911 -1.37594e-19)
(0.655818 0.0123763 1.11504e-21)
(0.704847 -0.0434941 -1.0769e-21)
(0.75318 -0.110461 1.11e-21)
(0.799596 -0.1874 -1.08206e-21)
(0.842891 -0.271151 1.98278e-21)
(0.879888 -0.356803 0)
(0.906299 -0.43715 -1.6606e-21)
(0.917845 -0.503418 1.44625e-21)
(0.911791 -0.547926 1.21544e-21)
(0.888407 -0.56703 -1.01311e-21)
(0.851073 -0.562237 0)
(0.804548 -0.539074 0)
(0.753319 -0.503895 4.41477e-22)
(0.700884 -0.461841 0)
(0.646541 -0.419943 -2.29508e-22)
(0.583479 -0.387505 0)
(0.507853 -0.364754 -8.4305e-21)
(0.431425 -0.332811 1.64161e-20)
(0.378904 -0.263843 -1.65019e-20)
(0.368347 -0.146556 8.37114e-21)
(0.399036 0.00159965 8.53059e-21)
(0.456403 0.149476 -8.28467e-21)
(0.524586 0.272877 -7.5948e-21)
(0.592369 0.360598 7.36258e-21)
(0.64985 0.418282 0)
(0.68754 0.466064 2.46322e-22)
(0.70274 0.518982 0)
(0.705789 0.561619 0)
(0.718924 0.545463 1.81455e-20)
(0.755646 0.430221 -1.85996e-20)
(0.815601 0.220584 1.51528e-21)
(0.879666 -0.0239167 1.55291e-21)
(0.929965 -0.230362 -1.38358e-21)
(0.951251 -0.354967 -7.63971e-21)
(0.946407 -0.406692 7.41773e-21)
(0.92389 -0.409896 -4.46398e-21)
(0.896919 -0.389631 3.78839e-21)
(0.860016 -0.37022 5.87887e-22)
(0.802802 -0.351546 -1.83856e-21)
(0.739405 -0.323698 -1.93315e-22)
(0.69498 -0.234323 1.25829e-21)
(0.697243 -0.112284 0)
(0.734681 0.0483462 -8.48488e-22)
(0.785944 0.179458 1.2256e-21)
(0.816455 0.305063 -1.61707e-21)
(0.810422 0.405231 -4.75846e-22)
(0.788453 0.431537 0)
(0.76292 0.38496 8.21132e-22)
(0.785482 0.178146 -1.51483e-21)
(0.803104 0.0184347 4.66549e-23)
(0.861951 -0.159054 -6.75757e-22)
(0.864952 -0.22612 8.16507e-22)
(0.851299 -0.282389 -7.68386e-22)
(0.817992 -0.371836 0)
(0.809318 -0.228109 2.00013e-22)
(0.806713 -0.202787 0)
(0.795745 0.0756494 0)
(0.778188 0.223382 1.68529e-23)
(0.708105 0.0567592 -1.35481e-19)
(0.748505 0.0228102 1.34026e-19)
(0.794073 -0.0197744 -1.03997e-21)
(0.84224 -0.0709828 1.1025e-21)
(0.888576 -0.132828 0)
(0.932491 -0.203368 0)