/*--------------------------------*- C++ -*----------------------------------*\
| =========                 |                                                 |
| \\      /  F ield         | OpenFOAM: The Open Source CFD Toolbox           |
|  \\    /   O peration     | Version:  2512                                  |
|   \\  /    A nd           | Website:  www.openfoam.com                      |
|    \\/     M anipulation  |                                                 |
\*---------------------------------------------------------------------------*/
FoamFile
{
    version     2.0;
    format      ascii;
    arch        "LSB;label=32;scalar=64";
    class       volScalarField;
    location    "102.5";
    object      p;
}
// * * * * * * * * * * * * * * * * * * * * * * * * * * * * * * * * * * * * * //

dimensions      [0 2 -2 0 0 0 0];

internalField   nonuniform List<scalar> 
13248
(
-0.386637
-0.384865
-0.383076
-0.381298
-0.379474
-0.377516
-0.375238
-0.37238
-0.368643
-0.363729
-0.357371
-0.349372
-0.339638
-0.32819
-0.315168
-0.300814
-0.285444
-0.269411
-0.253065
-0.236745
-0.220684
-0.20519
-0.190019
-0.175581
-0.395281
-0.392593
-0.389877
-0.387157
-0.384367
-0.381435
-0.378172
-0.374296
-0.36949
-0.363448
-0.355927
-0.346784
-0.336
-0.323684
-0.310056
-0.295413
-0.280088
-0.264416
-0.248704
-0.233212
-0.21813
-0.203636
-0.189647
-0.176484
-0.404706
-0.401034
-0.397338
-0.39363
-0.389818
-0.38583
-0.381459
-0.376397
-0.370311
-0.362911
-0.354007
-0.343541
-0.331596
-0.318373
-0.304156
-0.289269
-0.274035
-0.258745
-0.24364
-0.22891
-0.214678
-0.201069
-0.187998
-0.175592
-0.415257
-0.410493
-0.405769
-0.401044
-0.396158
-0.391007
-0.385349
-0.378849
-0.371184
-0.362121
-0.35157
-0.339595
-0.326389
-0.312236
-0.29746
-0.282374
-0.267258
-0.252336
-0.237778
-0.223703
-0.210189
-0.197309
-0.184982
-0.173385
-0.427171
-0.421188
-0.415384
-0.409607
-0.403562
-0.39708
-0.389876
-0.381611
-0.37202
-0.36099
-0.348577
-0.334985
-0.320509
-0.305483
-0.290221
-0.274994
-0.260011
-0.245421
-0.231327
-0.217792
-0.204855
-0.192545
-0.180802
-0.169762
-0.440518
-0.433198
-0.426263
-0.419372
-0.412021
-0.403948
-0.394843
-0.38442
-0.372548
-0.359291
-0.344883
-0.329655
-0.313967
-0.29815
-0.282473
-0.267132
-0.252261
-0.23794
-0.224215
-0.211109
-0.198629
-0.186775
-0.175506
-0.16492
-0.455166
-0.446429
-0.438316
-0.4302
-0.421304
-0.411275
-0.399834
-0.38684
-0.372377
-0.356731
-0.340303
-0.32351
-0.306718
-0.29021
-0.274177
-0.258736
-0.243949
-0.229838
-0.216407
-0.203646
-0.191541
-0.18007
-0.169206
-0.158986
-0.470765
-0.460594
-0.451251
-0.441733
-0.430948
-0.418502
-0.404257
-0.388322
-0.371064
-0.35299
-0.334622
-0.316398
-0.298634
-0.281531
-0.265192
-0.249658
-0.234928
-0.220983
-0.207792
-0.195323
-0.183542
-0.172415
-0.161921
-0.152027
-0.486741
-0.475188
-0.464552
-0.453372
-0.440261
-0.424893
-0.407414
-0.38829
-0.368182
-0.347775
-0.327637
-0.308159
-0.289568
-0.271965
-0.255371
-0.23976
-0.225083
-0.211285
-0.198311
-0.186109
-0.17463
-0.163833
-0.153689
-0.144107
-0.502288
-0.489465
-0.477442
-0.464259
-0.448333
-0.429579
-0.408575
-0.386189
-0.363347
-0.340821
-0.319145
-0.298614
-0.279344
-0.261341
-0.244551
-0.228894
-0.214286
-0.200643
-0.187888
-0.175952
-0.164775
-0.154309
-0.144501
-0.135233
-0.516391
-0.502445
-0.48889
-0.473302
-0.454086
-0.4316
-0.406957
-0.381421
-0.356087
-0.331725
-0.308769
-0.287389
-0.267591
-0.249295
-0.232386
-0.216742
-0.202248
-0.188796
-0.176293
-0.164655
-0.15381
-0.143698
-0.134236
-0.125314
-0.527924
-0.513039
-0.49779
-0.479375
-0.456437
-0.429972
-0.401693
-0.373198
-0.345654
-0.319749
-0.295771
-0.273755
-0.2536
-0.23515
-0.218238
-0.202706
-0.188411
-0.17523
-0.163051
-0.151781
-0.14134
-0.131653
-0.12261
-0.114153
-0.338526
-0.340657
-0.341909
-0.342713
-0.343497
-0.344422
-0.345566
-0.346963
-0.34862
-0.350529
-0.352681
-0.355065
-0.357673
-0.360491
-0.363496
-0.366655
-0.369911
-0.373187
-0.376382
-0.379366
-0.38196
-0.383922
-0.3851
-0.385718
-0.335091
-0.337877
-0.339508
-0.340524
-0.341416
-0.342334
-0.34333
-0.344415
-0.345567
-0.346747
-0.347911
-0.349008
-0.349989
-0.350798
-0.351377
-0.35166
-0.351576
-0.351046
-0.349996
-0.348351
-0.345992
-0.342716
-0.338597
-0.334718
-0.332952
-0.336216
-0.338137
-0.339322
-0.3403
-0.341199
-0.342044
-0.342819
-0.343473
-0.343934
-0.34412
-0.34394
-0.343301
-0.342106
-0.34026
-0.337666
-0.334233
-0.329877
-0.324539
-0.318187
-0.310753
-0.302049
-0.292282
-0.283461
-0.332473
-0.336001
-0.338102
-0.33941
-0.340454
-0.341334
-0.342047
-0.342547
-0.342755
-0.342565
-0.341858
-0.340506
-0.338376
-0.335334
-0.331251
-0.326008
-0.319497
-0.311633
-0.302368
-0.291711
-0.279666
-0.266095
-0.251152
-0.237387
-0.333837
-0.337393
-0.339555
-0.340932
-0.34202
-0.342886
-0.343493
-0.343769
-0.343604
-0.342862
-0.34139
-0.339026
-0.335603
-0.330957
-0.324936
-0.317404
-0.308252
-0.297405
-0.284835
-0.270584
-0.254754
-0.23734
-0.218301
-0.199723
-0.337035
-0.340371
-0.342483
-0.343866
-0.344964
-0.345809
-0.346332
-0.346431
-0.34597
-0.344782
-0.342687
-0.339492
-0.335004
-0.329039
-0.321429
-0.312038
-0.30077
-0.28758
-0.272478
-0.255551
-0.236986
-0.21701
-0.195585
-0.17245
-0.341901
-0.344866
-0.346729
-0.348021
-0.349072
-0.349869
-0.350308
-0.350258
-0.349555
-0.348008
-0.34541
-0.341546
-0.336204
-0.329188
-0.320329
-0.309505
-0.29665
-0.281767
-0.264932
-0.246305
-0.226138
-0.20471
-0.182281
-0.158364
-0.348043
-0.350397
-0.35195
-0.35307
-0.354
-0.354684
-0.354999
-0.354784
-0.353847
-0.351975
-0.348938
-0.344505
-0.338453
-0.330585
-0.320749
-0.30885
-0.294872
-0.278884
-0.261045
-0.241601
-0.220903
-0.19918
-0.177593
-0.153509
-0.355087
-0.356715
-0.357814
-0.358634
-0.359321
-0.359793
-0.359895
-0.359441
-0.358216
-0.355983
-0.352495
-0.347511
-0.340807
-0.332201
-0.32157
-0.30887
-0.294149
-0.277557
-0.259339
-0.23981
-0.219458
-0.198306
-0.178334
-0.155723
-0.362653
-0.363474
-0.363996
-0.364373
-0.364667
-0.364775
-0.364526
-0.363705
-0.362077
-0.359385
-0.35537
-0.349787
-0.342426
-0.333133
-0.321834
-0.308552
-0.293412
-0.276646
-0.258576
-0.239568
-0.220167
-0.200347
-0.181999
-0.161862
-0.370468
-0.370441
-0.370272
-0.370052
-0.369779
-0.369344
-0.368565
-0.367212
-0.365028
-0.361741
-0.357084
-0.35082
-0.342764
-0.332808
-0.320939
-0.307254
-0.291957
-0.275345
-0.257787
-0.239686
-0.221521
-0.203484
-0.186809
-0.169708
-0.378435
-0.377537
-0.376583
-0.375618
-0.374609
-0.373455
-0.371974
-0.369922
-0.367023
-0.362993
-0.357563
-0.35051
-0.341687
-0.331042
-0.318635
-0.304637
-0.289314
-0.273005
-0.256081
-0.238939
-0.221929
-0.20544
-0.190067
-0.175601
-0.385723
-0.383369
-0.376954
-0.365688
-0.349102
-0.327405
-0.301754
-0.27417
-0.247147
-0.22327
-0.205665
-0.196741
-0.19779
-0.208214
-0.224819
-0.241852
-0.252147
-0.251104
-0.23372
-0.202899
-0.166472
-0.132806
-0.107014
-0.0905739
-0.0827082
-0.0819473
-0.0880333
-0.102275
-0.123306
-0.143021
-0.149932
-0.141928
-0.121301
-0.0980874
-0.0799635
-0.0694048
-0.0652398
-0.0673957
-0.0781096
-0.0948325
-0.106966
-0.105232
-0.0910305
-0.0739263
-0.0602346
-0.051252
-0.0482459
-0.0508297
-0.0545339
-0.0543286
-0.0492271
-0.0440205
-0.0389016
-0.0346644
-0.0334696
-0.0327018
-0.0297993
-0.028585
-0.0206767
-0.0042503
-0.330838
-0.325676
-0.318091
-0.30763
-0.293907
-0.276964
-0.257777
-0.238135
-0.220127
-0.205339
-0.197267
-0.197876
-0.207719
-0.225277
-0.24666
-0.265853
-0.274599
-0.273412
-0.252984
-0.218087
-0.177409
-0.139861
-0.110644
-0.0910169
-0.0800569
-0.0762669
-0.07902
-0.0892892
-0.106409
-0.123825
-0.131704
-0.125994
-0.109331
-0.0900698
-0.0754929
-0.067928
-0.0663321
-0.0711072
-0.0846455
-0.103897
-0.117269
-0.114927
-0.0985654
-0.0785481
-0.0619993
-0.0507066
-0.0455666
-0.0458769
-0.0481568
-0.0475192
-0.0439835
-0.0405092
-0.037433
-0.0354558
-0.0359185
-0.0367577
-0.0336174
-0.032054
-0.0231139
-0.00475625
-0.275927
-0.26712
-0.257497
-0.247221
-0.235836
-0.223021
-0.209916
-0.197759
-0.188757
-0.183467
-0.185029
-0.194733
-0.212359
-0.235672
-0.26063
-0.282044
-0.295318
-0.28856
-0.265479
-0.227925
-0.184499
-0.144325
-0.112623
-0.0904746
-0.0768326
-0.0701965
-0.0697423
-0.0760965
-0.0892277
-0.10416
-0.112468
-0.10916
-0.0963452
-0.0810047
-0.0700126
-0.0654939
-0.0665282
-0.0739298
-0.0901353
-0.111718
-0.126279
-0.12355
-0.105317
-0.0826295
-0.0633898
-0.049951
-0.0429108
-0.0411847
-0.0421624
-0.0410084
-0.0388092
-0.0368632
-0.0358295
-0.0362048
-0.0384044
-0.0408259
-0.0374696
-0.0353817
-0.0254597
-0.00525586
-0.22695
-0.214343
-0.201884
-0.191433
-0.181806
-0.172337
-0.164047
-0.159365
-0.157589
-0.160944
-0.170939
-0.188133
-0.211664
-0.238976
-0.266129
-0.288324
-0.300289
-0.294696
-0.270914
-0.232312
-0.187741
-0.146309
-0.113144
-0.089208
-0.0734156
-0.0642948
-0.0608915
-0.0635585
-0.0727259
-0.0849188
-0.0930897
-0.0919789
-0.0827602
-0.0711676
-0.0636583
-0.0620949
-0.0656734
-0.0755485
-0.0941881
-0.117932
-0.133726
-0.130874
-0.11113
-0.0861037
-0.0644129
-0.0490221
-0.0403345
-0.0368377
-0.0366502
-0.0348915
-0.033777
-0.0331314
-0.034108
-0.0369017
-0.0409073
-0.0448734
-0.0411209
-0.0385284
-0.0276852
-0.00574248
-0.18817
-0.171865
-0.155697
-0.145852
-0.136761
-0.130887
-0.12687
-0.126339
-0.130573
-0.140406
-0.156554
-0.178951
-0.20628
-0.235863
-0.264013
-0.286499
-0.298069
-0.293134
-0.269766
-0.231662
-0.187567
-0.146263
-0.112596
-0.0875268
-0.0700964
-0.0589144
-0.0529783
-0.0523104
-0.0576269
-0.0668684
-0.0743598
-0.0750105
-0.0689669
-0.0608079
-0.0565313
-0.0576953
-0.0636171
-0.0757221
-0.0965394
-0.122284
-0.139359
-0.136656
-0.11587
-0.0889332
-0.0650992
-0.0479675
-0.0378779
-0.0328758
-0.0316761
-0.0292493
-0.0289571
-0.0293643
-0.0322825
-0.0375311
-0.0434012
-0.0488614
-0.0446089
-0.0414547
-0.0297625
-0.00620952
-0.162351
-0.144627
-0.132459
-0.116297
-0.106416
-0.100785
-0.0989998
-0.101734
-0.109703
-0.123424
-0.143123
-0.168285
-0.19735
-0.227643
-0.255757
-0.278314
-0.289488
-0.285128
-0.262938
-0.226638
-0.1845
-0.144582
-0.111313
-0.0857165
-0.0670986
-0.0542609
-0.0462153
-0.0427493
-0.0445147
-0.0506636
-0.0569773
-0.0589562
-0.055342
-0.0501838
-0.0487534
-0.052323
-0.0603209
-0.0743624
-0.0970354
-0.124588
-0.142962
-0.140765
-0.119451
-0.0910859
-0.0654719
-0.0468236
-0.035559
-0.0293069
-0.0272632
-0.0241414
-0.0244054
-0.0256118
-0.0303632
-0.0380698
-0.0458506
-0.0527483
-0.047901
-0.0441248
-0.0316641
-0.00664936
-0.14736
-0.12822
-0.110829
-0.0961418
-0.087327
-0.0823027
-0.0815376
-0.0856884
-0.0952548
-0.110533
-0.131419
-0.157182
-0.186216
-0.215927
-0.243037
-0.263856
-0.275648
-0.272015
-0.251646
-0.218222
-0.179225
-0.141707
-0.109598
-0.0840073
-0.0645936
-0.0504539
-0.0406813
-0.0349131
-0.0336209
-0.0367199
-0.0414516
-0.0440098
-0.0422454
-0.0396175
-0.040538
-0.0461211
-0.0558546
-0.0714521
-0.0956084
-0.124746
-0.144445
-0.143123
-0.12181
-0.0925289
-0.0655414
-0.0456143
-0.0333826
-0.026109
-0.0233943
-0.0196011
-0.0201654
-0.0219254
-0.0283548
-0.0384868
-0.0482159
-0.0564902
-0.0509603
-0.046507
-0.0333665
-0.00705377
-0.142616
-0.12395
-0.104657
-0.089113
-0.0793487
-0.074042
-0.0731088
-0.0771465
-0.086596
-0.10156
-0.121768
-0.146441
-0.174052
-0.202183
-0.227807
-0.247734
-0.258293
-0.255183
-0.237096
-0.207352
-0.172335
-0.137937
-0.107572
-0.0824516
-0.0626044
-0.0474871
-0.0363466
-0.0287355
-0.0249209
-0.0252067
-0.0280945
-0.0303862
-0.0301085
-0.0294687
-0.0321645
-0.039289
-0.0503543
-0.0670919
-0.0923011
-0.122789
-0.143833
-0.143677
-0.122905
-0.0932432
-0.065321
-0.0443591
-0.0313524
-0.0232579
-0.0200282
-0.0156273
-0.0162667
-0.0183567
-0.0262581
-0.0387467
-0.0504533
-0.0600386
-0.0537499
-0.0485737
-0.034853
-0.00741631
-0.145416
-0.1285
-0.10912
-0.0931171
-0.0810086
-0.0743676
-0.0721889
-0.0748678
-0.0828073
-0.0960029
-0.114128
-0.136436
-0.161508
-0.187212
-0.211164
-0.229157
-0.238432
-0.235885
-0.220487
-0.194972
-0.164429
-0.133574
-0.105359
-0.0811059
-0.0611749
-0.0453835
-0.0332014
-0.0241529
-0.0183345
-0.0161518
-0.0170807
-0.0187365
-0.0193286
-0.0200539
-0.0239208
-0.0320825
-0.0439928
-0.0613456
-0.0872369
-0.118857
-0.141215
-0.142466
-0.122779
-0.0932943
-0.064911
-0.043141
-0.0295059
-0.0207512
-0.0171503
-0.0122106
-0.0127141
-0.0149561
-0.0240643
-0.0388125
-0.0525146
-0.0633419
-0.0562378
-0.0503025
-0.0361109
-0.00773445
-0.151681
-0.135706
-0.117171
-0.101726
-0.089076
-0.0809536
-0.0769617
-0.077375
-0.0827827
-0.0931475
-0.108174
-0.127179
-0.148855
-0.171349
-0.193065
-0.20874
-0.217077
-0.215557
-0.203316
-0.182373
-0.156522
-0.129421
-0.103627
-0.0805579
-0.0608378
-0.0445969
-0.0315829
-0.0213723
-0.0139358
-0.00962484
-0.00856496
-0.00925329
-0.010089
-0.0115793
-0.0160375
-0.0247258
-0.0370419
-0.0546311
-0.0807006
-0.113034
-0.136722
-0.139667
-0.121546
-0.0928272
-0.0644875
-0.0421256
-0.0279227
-0.0185757
-0.0147423
-0.00940075
-0.00951778
-0.0117592
-0.0217747
-0.0386483
-0.0543398
-0.0663388
-0.0584021
-0.0516789
-0.0371174
-0.00800257
-0.159594
-0.145889
-0.128756
-0.112824
-0.100021
-0.0906762
-0.0850616
-0.0828668
-0.0850392
-0.0918477
-0.103095
-0.118287
-0.136246
-0.155395
-0.173767
-0.186842
-0.194929
-0.19499
-0.186295
-0.170142
-0.149109
-0.125906
-0.10272
-0.0810402
-0.0617328
-0.045194
-0.0314638
-0.0202846
-0.0115409
-0.00540771
-0.00239101
-0.00192429
-0.00254515
-0.00428891
-0.00881645
-0.0174777
-0.0295441
-0.0467425
-0.0728364
-0.106079
-0.130668
-0.135585
-0.118995
-0.0915938
-0.0637827
-0.0411711
-0.0265018
-0.0165859
-0.0125957
-0.00713497
-0.00679909
-0.00887047
-0.0193192
-0.0382151
-0.0559005
-0.0689644
-0.0601849
-0.0526858
-0.0378306
-0.00819157
-0.16626
-0.154247
-0.140764
-0.126396
-0.113111
-0.102472
-0.0950021
-0.0908928
-0.0901477
-0.093158
-0.100047
-0.110456
-0.12355
-0.138287
-0.151689
-0.164874
-0.171713
-0.172756
-0.167112
-0.155184
-0.138489
-0.118963
-0.0984673
-0.0785023
-0.0601094
-0.0438495
-0.0299411
-0.0183487
-0.00896475
-0.00165241
0.0030009
0.00458965
0.00404855
0.002056
-0.00249169
-0.0108606
-0.0224488
-0.0388975
-0.0642149
-0.0973311
-0.122613
-0.127463
-0.114246
-0.0884853
-0.0614853
-0.0392228
-0.0245859
-0.0144225
-0.0103331
-0.00483242
-0.00425421
-0.00632779
-0.0168402
-0.0374854
-0.0570591
-0.0711897
-0.0614953
-0.0532928
-0.0382286
-0.00824993
-0.159965
-0.15406
-0.141985
-0.128448
-0.116385
-0.106689
-0.099508
-0.094927
-0.0931768
-0.0947973
-0.0999462
-0.10832
-0.119188
-0.131341
-0.142886
-0.152856
-0.158401
-0.158573
-0.152802
-0.141594
-0.126261
-0.108438
-0.0897022
-0.0713251
-0.0542118
-0.0388632
-0.0254902
-0.014107
-0.00468043
0.00298756
0.00847576
0.0112047
0.0113535
0.00988268
0.00531683
-0.00210701
-0.012557
-0.0283227
-0.0542643
-0.0900991
-0.118663
-0.129667
-0.110682
-0.0844866
-0.0578257
-0.0360993
-0.0220114
-0.0121406
-0.00812715
-0.00216778
0.00113949
-0.00292486
-0.0136148
-0.0362558
-0.0579963
-0.0734348
-0.0626308
-0.0535195
-0.0383836
-0.0082089
-0.154459
-0.150431
-0.139497
-0.127201
-0.116586
-0.108176
-0.101797
-0.0974921
-0.0955911
-0.0964759
-0.100229
-0.10656
-0.114826
-0.123965
-0.132578
-0.139588
-0.143092
-0.142124
-0.136387
-0.126295
-0.112828
-0.0972246
-0.0807017
-0.0642745
-0.0487235
-0.0345087
-0.0218713
-0.010923
-0.00168369
0.00611413
0.0120853
0.0154227
0.0158016
0.0140789
0.0105444
0.0042827
-0.00493856
-0.0197669
-0.0457697
-0.0829874
-0.112523
-0.120982
-0.10394
-0.0786398
-0.0534592
-0.032965
-0.0195642
-0.00999126
-0.00611297
-0.000224096
-0.000584159
-0.000556703
-0.0111821
-0.035207
-0.0586951
-0.074985
-0.063202
-0.053163
-0.038163
-0.00817623
-0.147388
-0.144634
-0.135509
-0.124793
-0.115521
-0.108268
-0.102773
-0.0989625
-0.0970366
-0.0972371
-0.0996098
-0.103913
-0.10964
-0.116023
-0.122027
-0.126548
-0.128392
-0.126823
-0.121555
-0.11278
-0.101137
-0.0875242
-0.072903
-0.058124
-0.0438882
-0.0306509
-0.0186755
-0.00810233
0.000952925
0.00871791
0.0149128
0.0187504
0.0196216
0.0182387
0.0151428
0.00962395
0.00105086
-0.0133982
-0.0390329
-0.0752901
-0.103847
-0.111584
-0.0959859
-0.0722334
-0.048851
-0.0297051
-0.0170719
-0.0078714
-0.00414372
0.00163213
0.0014284
0.00134477
-0.00941341
-0.0343877
-0.0590581
-0.0758709
-0.0633184
-0.0523466
-0.0376254
-0.00814772
-0.138339
-0.137679
-0.130657
-0.12155
-0.113496
-0.107246
-0.102523
-0.0991106
-0.0970794
-0.0966065
-0.097754
-0.100367
-0.104044
-0.108238
-0.112074
-0.114753
-0.115427
-0.11346
-0.108541
-0.100746
-0.0905183
-0.0785326
-0.0655504
-0.0522683
-0.0392858
-0.0270225
-0.0157483
-0.00560761
0.00320639
0.0108377
0.0171166
0.0214059
0.0229099
0.0221216
0.019711
0.015001
0.00694838
-0.00718019
-0.0317244
-0.0661302
-0.0937816
-0.101222
-0.0870207
-0.0651516
-0.0438181
-0.0262636
-0.0145429
-0.00578316
-0.00220679
0.00343469
0.0034097
0.00306568
-0.00776316
-0.0332876
-0.0588106
-0.0760863
-0.0629619
-0.0510951
-0.03672
-0.0080951
-0.129024
-0.130126
-0.124941
-0.117342
-0.110414
-0.105031
-0.10095
-0.097875
-0.0957898
-0.0948257
-0.0950554
-0.0963801
-0.0985125
-0.100906
-0.103061
-0.104322
-0.104025
-0.101657
-0.0969536
-0.0899371
-0.0809036
-0.070336
-0.0588104
-0.0468822
-0.0350582
-0.0237184
-0.0131438
-0.003474
0.0050626
0.0125138
0.0187597
0.0233468
0.0254592
0.0254756
0.0240472
0.0204318
0.0132587
-0.000109355
-0.0232495
-0.0559834
-0.082607
-0.0896997
-0.0770926
-0.0575179
-0.0384833
-0.0226977
-0.0120036
-0.00373894
-0.00030521
0.005151
0.00522397
0.00467437
-0.00594166
-0.0316174
-0.0577988
-0.0754436
-0.0620101
-0.0493599
-0.0354116
-0.00799723
-0.119871
-0.121991
-0.118346
-0.112173
-0.106314
-0.101712
-0.0982006
-0.0954654
-0.0934223
-0.09215
-0.09171
-0.0920395
-0.0929269
-0.0940051
-0.0948582
-0.0949893
-0.0939065
-0.09122
-0.086706
-0.0803413
-0.0723061
-0.0629363
-0.0526669
-0.0419407
-0.0311838
-0.0207273
-0.0108515
-0.00169258
0.0065199
0.0137603
0.0198958
0.0246343
0.027277
0.028115
0.0278367
0.0256194
0.0197817
0.00743395
-0.0144372
-0.045392
-0.0704816
-0.0772152
-0.0664878
-0.0495387
-0.0329553
-0.0190473
-0.00947275
-0.00175234
0.00155087
0.00677092
0.00689749
0.00616111
-0.00392936
-0.0293181
-0.0558433
-0.0736914
-0.0603388
-0.0471175
-0.0336808
-0.00783095
-0.11051
-0.113391
-0.111089
-0.106221
-0.101359
-0.0974744
-0.0944863
-0.0920889
-0.0901492
-0.0886998
-0.0877934
-0.0873967
-0.0873672
-0.0874482
-0.0873121
-0.0865927
-0.0849286
-0.0820187
-0.0776709
-0.0718373
-0.0646257
-0.0562702
-0.0470954
-0.0374464
-0.0276756
-0.0180628
-0.00887574
-0.000254095
0.00758599
0.0145853
0.0205773
0.0253695
0.0283891
0.0299616
0.0307754
0.030081
0.0258399
0.0145676
-0.0060477
-0.0347793
-0.0577782
-0.0641457
-0.0555437
-0.041445
-0.0273731
-0.0153688
-0.00697042
0.000165132
0.00335473
0.00829748
0.00845895
0.00751341
-0.00179166
-0.026334
-0.0527394
-0.070621
-0.0578486
-0.044372
-0.0315276
-0.00757459
-0.101153
-0.104651
-0.10344
-0.0996932
-0.0957257
-0.092496
-0.0899846
-0.0879098
-0.0861133
-0.0845935
-0.0833929
-0.0825015
-0.0818242
-0.0811809
-0.0803304
-0.079002
-0.0769249
-0.0738671
-0.0696726
-0.0642881
-0.057775
-0.0502919
-0.0420764
-0.0333921
-0.024528
-0.0157187
-0.00720743
0.000862634
0.00829029
0.0150093
0.0208347
0.0256202
0.0289198
0.0310298
0.0326885
0.0332981
0.0305881
0.0204996
0.0014356
-0.0244977
-0.0448864
-0.0509431
-0.0446526
-0.0334945
-0.0218895
-0.0117269
-0.00451314
0.00200781
0.00510336
0.00974181
0.00993969
0.00875044
0.000463355
-0.0225781
-0.0483469
-0.0660976
-0.054473
-0.0411537
-0.0289766
-0.00721041
-0.0921614
-0.0959652
-0.0955688
-0.0927609
-0.0895826
-0.0869408
-0.084861
-0.0830929
-0.0814694
-0.0799639
-0.0786072
-0.077405
-0.0762981
-0.0751615
-0.0738205
-0.0720753
-0.0697252
-0.0665957
-0.0625644
-0.0575793
-0.0516711
-0.0449449
-0.0375734
-0.0297558
-0.0217265
-0.0136802
-0.00583075
0.00168147
0.00866947
0.0150669
0.0206938
0.0254212
0.0289077
0.0313763
0.0335333
0.0349585
0.0334002
0.0246749
0.00773419
-0.014765
-0.032266
-0.0381847
-0.03425
-0.0259402
-0.0166533
-0.00819292
-0.00211786
0.00377434
0.0067967
0.0111246
0.0113861
0.00994931
0.00288864
-0.0180223
-0.042646
-0.0600984
-0.0501977
-0.0375226
-0.0260829
-0.00672773
-0.0835258
-0.0874098
-0.0876203
-0.0855914
-0.0830952
-0.0809721
-0.0792798
-0.0778004
-0.0763671
-0.0749369
-0.0735305
-0.0721611
-0.0707959
-0.0693498
-0.0676978
-0.0656951
-0.0631949
-0.0600678
-0.0562185
-0.0516003
-0.0462266
-0.0401662
-0.0335443
-0.02651
-0.0192502
-0.0119261
-0.00472164
0.00223163
0.0087623
0.0148023
0.0201872
0.0248014
0.0283847
0.0310661
0.0334259
0.0351385
0.0342445
0.027034
0.0127761
-0.00590513
-0.0206171
-0.0265488
-0.0247613
-0.0189975
-0.0117892
-0.00483975
0.000193165
0.00546217
0.00843403
0.0124789
0.0128654
0.0112376
0.00553656
-0.0127544
-0.0357788
-0.0527593
-0.0450816
-0.0335676
-0.0229328
-0.00612602
-0.075222
-0.0790899
-0.0797455
-0.0783423
-0.0764188
-0.0747435
-0.0733935
-0.0721803
-0.0709432
-0.0696297
-0.0682514
-0.0668242
-0.0653327
-0.0637215
-0.0619029
-0.0597731
-0.0572255
-0.0541648
-0.0505187
-0.0462485
-0.0413586
-0.0358937
-0.0299443
-0.0236214
-0.0170723
-0.0104298
-0.00384995
0.00254798
0.00860921
0.0142632
0.0193642
0.0238072
0.0273938
0.0301666
0.0325369
0.0341921
0.0336153
0.0279093
0.016482
0.00150878
-0.0106992
-0.0165907
-0.0164912
-0.0128111
-0.00738304
-0.00173204
0.00239066
0.00706072
0.0100047
0.0138353
0.0144485
0.0127623
0.00843256
-0.00699453
-0.028075
-0.0443977
-0.0392712
-0.0294005
-0.019641
-0.00541746
-0.0673463
-0.071102
-0.0720545
-0.0711394
-0.0696877
-0.0683923
-0.0673398
-0.0663672
-0.0653241
-0.0641524
-0.062856
-0.0614509
-0.0599329
-0.0582678
-0.0563951
-0.0542406
-0.0517276
-0.0487872
-0.0453661
-0.041434
-0.036991
-0.0320666
-0.0267261
-0.0210525
-0.0151612
-0.00916036
-0.00318197
0.00266878
0.00825451
0.0135021
0.0182856
0.022503
0.0260008
0.0287621
0.0310297
0.0324852
0.032054
0.0276393
0.0187535
0.00703345
-0.00294019
-0.00853745
-0.00955651
-0.00744478
-0.00347927
0.00108045
0.00444227
0.00855107
0.0114817
0.0151924
0.0161713
0.0146471
0.0115691
-0.00109243
-0.0200366
-0.0355039
-0.0329993
-0.0251446
-0.0163402
-0.00462873
-0.059933
-0.0634906
-0.0646237
-0.064085
-0.0630177
-0.0620397
-0.0612411
-0.0604821
-0.0596232
-0.0586048
-0.0574251
-0.0560981
-0.0546262
-0.0529894
-0.0511465
-0.0490452
-0.046631
-0.0438546
-0.0406779
-0.0370781
-0.0330543
-0.0286264
-0.0238422
-0.0187642
-0.0134824
-0.00808469
-0.00268171
0.00263502
0.00774487
0.0125738
0.0170114
0.0209607
0.0242963
0.0269614
0.0290612
0.030293
0.0299328
0.0265258
0.0197375
0.0107309
0.00274586
-0.00230766
-0.00392187
-0.00289893
-8.88757e-05
0.00356534
0.00631546
0.00991191
0.0128245
0.0164815
0.0179773
0.0169144
0.0148522
0.00450217
-0.0122683
-0.0266707
-0.0265647
-0.0209259
-0.0131645
-0.00379947
-0.0529737
-0.0562895
-0.0575183
-0.0572637
-0.0565042
-0.055787
-0.0552014
-0.0546281
-0.0539395
-0.0530758
-0.0520316
-0.050819
-0.049443
-0.0478925
-0.0461402
-0.0441495
-0.0418818
-0.0393025
-0.0363849
-0.033113
-0.0294861
-0.0255187
-0.0212465
-0.0167168
-0.0120003
-0.00716799
-0.00231245
0.00248744
0.00712675
0.0115333
0.0156068
0.0192582
0.0223786
0.0248864
0.0267913
0.0278297
0.0275254
0.0249047
0.0197905
0.0129815
0.00670771
0.00235375
0.000537169
0.000865366
0.00279927
0.00570772
0.00798034
0.0111212
0.0139922
0.0175748
0.0196881
0.0193323
0.0179728
0.00929208
-0.00535407
-0.0184506
-0.0202781
-0.0168636
-0.0102333
-0.00297633
-0.0464781
-0.0495264
-0.0507847
-0.0507379
-0.0502214
-0.0497153
-0.0493057
-0.0488905
-0.0483546
-0.0476406
-0.0467403
-0.045663
-0.044414
-0.0429881
-0.0413676
-0.039527
-0.0374389
-0.0350794
-0.0324301
-0.0294808
-0.0262316
-0.022694
-0.0188952
-0.0148717
-0.0106795
-0.00637588
-0.00203811
0.00226628
0.00644627
0.010434
0.014137
0.017474
0.0203454
0.0226616
0.0243757
0.0252725
0.0250401
0.0230581
0.0192622
0.0141867
0.00935155
0.00574549
0.00398168
0.00390833
0.0052076
0.00750639
0.00941593
0.012149
0.0149416
0.0183639
0.0210283
0.0213494
0.0203863
0.0128526
0.000298354
-0.0112432
-0.0144222
-0.013065
-0.00764256
-0.00220637
-0.0404432
-0.0432104
-0.0444507
-0.0445523
-0.0442252
-0.0438881
-0.0436215
-0.0433389
-0.0429375
-0.0423628
-0.0416051
-0.040672
-0.0395675
-0.0382891
-0.0368256
-0.0351596
-0.0332715
-0.0311449
-0.0287675
-0.0261333
-0.0232437
-0.0201082
-0.0167482
-0.0131926
-0.00948615
-0.00567512
-0.00182423
0.00200931
0.00574639
0.00932561
0.0126618
0.0156811
0.01829
0.020403
0.0219465
0.0227525
0.0226185
0.0211677
0.0183992
0.0146793
0.0110238
0.00814028
0.00657192
0.00630273
0.00716596
0.00896954
0.0106056
0.0129662
0.0156192
0.0187595
0.0212522
0.0224123
0.0216189
0.0150193
0.00452743
-0.00529187
-0.00924705
-0.00962427
-0.00545322
-0.00153142
-0.0348557
-0.0373432
-0.0385337
-0.0387375
-0.0385562
-0.0383525
-0.0382003
-0.0380269
-0.0377414
-0.0372927
-0.0366704
-0.0358815
-0.0349281
-0.033808
-0.0325142
-0.0310353
-0.029357
-0.0274681
-0.0253604
-0.0230311
-0.0204825
-0.017723
-0.01477
-0.0116467
-0.00838914
-0.00503522
-0.00163919
0.00175114
0.00506665
0.00825288
0.0112331
0.0139425
0.0162919
0.0182065
0.0196035
0.0203602
0.0203423
0.0193362
0.0173672
0.0146987
0.0119951
0.00976114
0.00845751
0.00812594
0.00870701
0.0101142
0.0115353
0.0135532
0.0159898
0.0187804
0.0211151
0.0223887
0.0216294
0.0159641
0.00738226
-0.000714685
-0.00493904
-0.00661268
-0.00367233
-0.000979288
-0.0297057
-0.0319213
-0.0330403
-0.0333106
-0.0332398
-0.0331401
-0.0330783
-0.0329932
-0.0328055
-0.0324682
-0.0319708
-0.0313206
-0.0305166
-0.0295564
-0.0284355
-0.0271464
-0.0256791
-0.0240255
-0.0221803
-0.0201426
-0.0179155
-0.0155064
-0.01293
-0.010205
-0.00736111
-0.00442929
-0.00145496
0.00152169
0.00444077
0.00725563
0.00989662
0.0123096
0.0144115
0.0161416
0.0174163
0.0181525
0.0182559
0.0176172
0.0162698
0.0144087
0.0124697
0.010794
0.00977128
0.00945706
0.00986677
0.0109619
0.0121998
0.0139049
0.0160527
0.0184388
0.020422
0.0215188
0.0207447
0.0160256
0.00906846
0.00253461
-0.00157748
-0.00406264
-0.00225493
-0.000554604
-0.0249757
-0.0269324
-0.0279672
-0.0282776
-0.0282897
-0.0282704
-0.0282793
-0.0282649
-0.0281588
-0.0279181
-0.0275306
-0.0270102
-0.0263486
-0.0255438
-0.0245919
-0.0234883
-0.0222262
-0.0207997
-0.0192052
-0.0174431
-0.0155165
-0.0134324
-0.0112029
-0.00884371
-0.00637926
-0.00383474
-0.0012484
0.001346
0.00389704
0.00636523
0.00868849
0.0108238
0.0126959
0.0142578
0.0154294
0.0161591
0.0163774
0.0160393
0.0151713
0.0139207
0.0125815
0.011379
0.0106257
0.0103712
0.0106855
0.0115384
0.0126087
0.0140283
0.0158427
0.0178016
0.0193601
0.0201584
0.0193534
0.0155282
0.00988526
0.00465902
0.00087955
-0.0019833
-0.00114043
-0.000238302
-0.0206441
-0.0223603
-0.0233058
-0.0236374
-0.023711
-0.0237533
-0.023817
-0.0238593
-0.0238224
-0.0236695
-0.0233889
-0.0229727
-0.0224379
-0.0217777
-0.0209857
-0.020058
-0.0189901
-0.017778
-0.016419
-0.0149138
-0.0132656
-0.0114805
-0.00956899
-0.00754384
-0.00542535
-0.00323414
-0.00100234
0.00124224
0.00345581
0.00560522
0.00763573
0.0095137
0.0111765
0.0125827
0.0136651
0.0143922
0.0147109
0.0146114
0.0141109
0.0133223
0.0124325
0.011625
0.0111136
0.01094
0.0112055
0.0118723
0.0127833
0.0139446
0.015413
0.0169554
0.0181028
0.0185935
0.0177523
0.0147126
0.0101243
0.00592447
0.00256492
-0.000357694
-0.000273137
-2.40326e-06
-0.0166919
-0.0181878
-0.0190433
-0.0193822
-0.0195004
-0.0195889
-0.0196935
-0.0197789
-0.0197955
-0.0197114
-0.0195132
-0.0192014
-0.0187852
-0.018259
-0.0176159
-0.0168521
-0.0159646
-0.0149511
-0.0138097
-0.012541
-0.0111479
-0.0096358
-0.0080134
-0.00629136
-0.00448639
-0.00261535
-0.000704985
0.00122214
0.00312905
0.00498856
0.0067532
0.00839564
0.00986618
0.0111274
0.01213
0.0128518
0.0132499
0.0133336
0.0131125
0.0126721
0.0121315
0.0116252
0.0113168
0.011227
0.0114695
0.0119946
0.0127538
0.0136827
0.0148224
0.0159856
0.0167751
0.0170045
0.0161319
0.0137372
0.0100034
0.00657937
0.00365038
0.000861658
0.00039024
0.000175041
-0.0130987
-0.0143949
-0.0151627
-0.0154995
-0.0156495
-0.0157723
-0.0159073
-0.0160257
-0.0160856
-0.0160598
-0.0159377
-0.0157188
-0.0154017
-0.0149921
-0.0144828
-0.0138681
-0.0131451
-0.0123123
-0.0113688
-0.0103149
-0.00915311
-0.00788778
-0.00652622
-0.00507716
-0.00355427
-0.00197129
-0.00034999
0.00129107
0.00292074
0.00451806
0.0060434
0.00747167
0.00875923
0.00988941
0.0108195
0.0115293
0.0119838
0.0122015
0.0121876
0.0120037
0.0117293
0.0114521
0.0113038
0.0112891
0.0115198
0.0119368
0.0125546
0.0132773
0.0141275
0.0149625
0.0154541
0.0154857
0.0145999
0.0127012
0.00966653
0.00682255
0.00430046
0.00174287
0.00088364
0.000307333
-0.00984275
-0.0109602
-0.0116452
-0.0119739
-0.012146
-0.012294
-0.0124511
-0.012594
-0.0126879
-0.0127094
-0.0126494
-0.0125059
-0.0122804
-0.0119728
-0.0115821
-0.0111014
-0.0105266
-0.00985637
-0.00909039
-0.00822923
-0.00727465
-0.00623021
-0.00510183
-0.00389658
-0.00262554
-0.00129969
6.31767e-05
0.00144811
0.00283022
0.0041917
0.00550026
0.00673806
0.00786611
0.00887647
0.00972297
0.0104092
0.0108984
0.0112085
0.0113419
0.0113409
0.0112609
0.0111556
0.0111293
0.0111762
0.0113975
0.0117315
0.0122209
0.0127664
0.0133698
0.013936
0.0141895
0.0140805
0.0132061
0.0116678
0.00920601
0.00679937
0.0046189
0.00235273
0.00124016
0.000404114
-0.00690344
-0.00786271
-0.00847141
-0.00878821
-0.00897533
-0.00914133
-0.00931419
-0.00947506
-0.00959536
-0.00965549
-0.00964724
-0.00956875
-0.00941902
-0.00919828
-0.00891095
-0.00854817
-0.0081049
-0.00757915
-0.00697061
-0.00628004
-0.00550898
-0.00466017
-0.00373827
-0.00274892
-0.0017009
-0.000602959
0.000530743
0.00168838
0.00284966
0.00400059
0.00511516
0.00617954
0.00716281
0.00805453
0.00882494
0.00947355
0.00997626
0.0103434
0.0105758
0.0107014
0.0107574
0.0107761
0.0108376
0.010931
0.0111413
0.0114108
0.0117878
0.0121847
0.0125781
0.0129408
0.0130121
0.012803
0.0119643
0.0106787
0.00868193
0.00662563
0.00474502
0.00274419
0.00148765
0.000473788
-0.00426105
-0.00508159
-0.00562096
-0.00592393
-0.00612074
-0.00629946
-0.00648322
-0.00665703
-0.00679765
-0.00688896
-0.00692393
-0.00690098
-0.00681972
-0.0066795
-0.00647391
-0.00620861
-0.00587771
-0.00547751
-0.00500665
-0.00446536
-0.00385494
-0.00317753
-0.00243666
-0.00163669
-0.000784514
0.00011308
0.001045
0.00200191
0.00296778
0.00393172
0.00487303
0.0057808
0.00663094