/*--------------------------------*- C++ -*----------------------------------*\
| =========                 |                                                 |
| \\      /  F ield         | OpenFOAM: The Open Source CFD Toolbox           |
|  \\    /   O peration     | Version:  2512                                  |
|   \\  /    A nd           | Website:  www.openfoam.com                      |
|    \\/     M anipulation  |                                                 |
\*---------------------------------------------------------------------------*/
FoamFile
{
    version     2.0;
    format      ascii;
    arch        "LSB;label=32;scalar=64";
    class       surfaceScalarField;
    location    "16";
    object      phi;
}
// * * * * * * * * * * * * * * * * * * * * * * * * * * * * * * * * * * * * * //

dimensions      [0 3 -1 0 0 0 0];

oriented        oriented;

internalField   nonuniform List<scalar> 
26232
(
3.10703e-05
0.000996283
-0.00102735
0.000320573
0.00198504
-0.00227454
0.00103273
0.00211191
-0.00282407
0.00231845
0.00142106
-0.00270678
0.00432682
-6.52832e-05
-0.00194309
0.00720847
-0.00234014
-0.00054151
0.0111109
-0.00540174
0.00149929
0.0161698
-0.00924535
0.00418648
0.022494
-0.013851
0.00752677
0.0301493
-0.0191743
0.011519
0.0391414
-0.0251399
0.0161478
0.0494048
-0.031641
0.0213776
0.0607972
-0.0385426
0.0271502
0.0731031
-0.0456902
0.0333843
0.0860457
-0.0529205
0.039978
0.0993052
-0.0600737
0.0468142
0.112543
-0.0670052
0.053767
0.125429
-0.0735969
0.0607115
0.137665
-0.0797604
0.067524
0.149008
-0.085461
0.0741186
0.159287
-0.0906524
0.0803728
0.168374
-0.0954769
0.0863896
0.176139
-0.0996202
0.0918557
-0.104015
0.0979504
0.182204
7.02827e-05
0.000926001
0.000507113
0.00154821
0.00150751
0.00111151
0.00325485
-0.000326273
0.00592717
-0.0027376
0.00969238
-0.00610535
0.0146967
-0.0104061
0.0210453
-0.0155939
0.0287808
-0.0215866
0.0378656
-0.028259
0.0481709
-0.0354452
0.0594784
-0.0429484
0.0714934
-0.0505577
0.0838696
-0.0580664
0.0962399
-0.0652908
0.108251
-0.0720848
0.119596
-0.0783504
0.130042
-0.0840424
0.139448
-0.0891667
0.147763
-0.0937764
0.155056
-0.0979445
0.161393
-0.101814
0.167103
-0.10533
-0.109107
0.172195
0.000134668
0.000791333
0.000783254
0.000899619
0.00217027
-0.000275507
0.00450448
-0.00266048
0.00797821
-0.00621133
0.0127521
-0.0108792
0.0189313
-0.0165853
0.026539
-0.0232016
0.0354957
-0.0305432
0.0456114
-0.0383748
0.0565955
-0.0464294
0.0680835
-0.0544364
0.079676
-0.0621501
0.0909831
-0.0693735
0.101667
-0.0759749
0.111477
-0.0818947
0.120269
-0.0871418
0.12801
-0.0917837
0.13477
-0.0959271
0.140695
-0.0997014
0.145976
-0.103226
0.150801
-0.106639
0.155386
-0.109915
-0.113495
0.159774
0.000222516
0.000568817
0.0011427
-2.0564e-05
0.00300327
-0.00213607
0.00602335
-0.00568056
0.0103838
-0.0105718
0.0161981
-0.0166935
0.0234791
-0.0238662
0.0321141
-0.0318366
0.0418601
-0.0402892
0.0523627
-0.0488774
0.0631988
-0.0572655
0.0739318
-0.0651694
0.0841681
-0.0723864
0.0936044
-0.0788098
0.102057
-0.0844278
0.109471
-0.0893081
0.115903
-0.0935746
0.121499
-0.0973791
0.126446
-0.100875
0.130941
-0.104196
0.13516
-0.107445
0.139225
-0.110704
0.143268
-0.113958
-0.117484
0.147257
0.000331069
0.000237748
0.00157294
-0.00126244
0.00397241
-0.00453554
0.00773468
-0.00944284
0.0129914
-0.0158286
0.019759
-0.0234611
0.0279063
-0.0320135
0.0371491
-0.0410794
0.0470794
-0.0502195
0.0572238
-0.0590218
0.0671167
-0.0671584
0.0763681
-0.0744208
0.0847121
-0.0807303
0.0920271
-0.0861249
0.0983282
-0.0907289
0.103736
-0.0947154
0.10843
-0.0982695
0.112611
-0.10156
0.116457
-0.10472
0.120109
-0.107848
0.123667
-0.111003
0.127187
-0.114225
0.130728
-0.117499
-0.120994
0.134239
0.000457459
-0.000219711
0.00205869
-0.00286367
0.00503286
-0.00750971
0.00953742
-0.0139474
0.015608
-0.0218992
0.0231141
-0.0309672
0.0317472
-0.0406466
0.0410559
-0.0503882
0.0505216
-0.0596851
0.0596492
-0.0681495
0.0680482
-0.0755574
0.0754805
-0.0818531
0.0818715
-0.0871213
0.0872852
-0.0915386
0.0918786
-0.0953223
0.0958493
-0.0986861
0.099391
-0.101811
0.102665
-0.104833
0.105789
-0.107845
0.108842
-0.110901
0.111872
-0.114033
0.114903
-0.117256
0.117967
-0.120563
-0.124044
0.121017
0.000598472
-0.000818182
0.00258049
-0.00484569
0.0061279
-0.0110571
0.0113082
-0.0191277
0.0180132
-0.0286042
0.0259319
-0.0388859
0.0345829
-0.0492976
0.0434039
-0.0592092
0.0518632
-0.0681444
0.0595554
-0.0758417
0.0662528
-0.0822547
0.0719071
-0.0875074
0.0766115
-0.0918257
0.0805435
-0.0954706
0.083907
-0.0986858
0.0868893
-0.101668
0.0896387
-0.10456
0.0922593
-0.107454
0.0948176
-0.110403
0.0973531
-0.113436
0.0998883
-0.116568
0.102434
-0.119802
0.105005
-0.123134
-0.126603
0.107564
0.000749412
-0.00156759
0.00311273
-0.00720901
0.00718763
-0.015132
0.0129069
-0.024847
0.0199831
-0.0356803
0.0279237
-0.0468265
0.0361258
-0.0574997
0.0440089
-0.0670924
0.051132
-0.0752674
0.0572533
-0.081963
0.062329
-0.0873305
0.0664648
-0.0916432
0.0698485
-0.0952094
0.0726877
-0.0983098
0.0751667
-0.101165
0.0774271
-0.103929
0.0795654
-0.106699
0.0816416
-0.10953
0.0836904
-0.112452
0.0857312
-0.115477
0.0877742
-0.118611
0.0898245
-0.121852
0.0918885
-0.125198
-0.128656
0.0939415
0.000903198
-0.00247079
0.0036229
-0.00992871
0.00813233
-0.0196415
0.0141922
-0.0309068
0.0213256
-0.0428138
0.028899
-0.0543998
0.0362717
-0.0648724
0.0429414
-0.0737621
0.0486242
-0.0809502
0.0532563
-0.0865951
0.0569399
-0.0910141
0.0598663
-0.0945696
0.0622471
-0.0975902
0.0642683
-0.100331
0.0660701
-0.102967
0.0677467
-0.105605
0.0693553
-0.108307
0.070928
-0.111103
0.0724826
-0.114006
0.0740284
-0.117023
0.0755705
-0.120153
0.0771121
-0.123394
0.0786549
-0.126741
-0.130186
0.0801845
0.0010504
-0.00352119
0.00407371
-0.012952
0.00888172
-0.0244495
0.0150432
-0.0370683
0.0219159
-0.0496864
0.0287957
-0.0612797
0.0350943
-0.071171
0.0404523
-0.0791201
0.0447578
-0.0852557
0.0480914
-0.0899287
0.0506405
-0.0935632
0.052621
-0.0965501
0.0542246
-0.0991939
0.055596
-0.101702
0.0568312
-0.104202
0.0579879
-0.106762
0.0590979
-0.109417
0.0601783
-0.112183
0.0612383
-0.115066
0.062283
-0.118068
0.0633154
-0.121185
0.064337
-0.124415
0.0653475
-0.127751
-0.131178
0.0663402
0.00118065
-0.00470185
0.00442891
-0.0162003
0.00936832
-0.0293889
0.015381
-0.043081
0.0217129
-0.0560184
0.0276721
-0.0672388
0.0327891
-0.076288
0.0368695
-0.0832005
0.0399479
-0.0883341
0.0421964
-0.0921772
0.0438331
-0.0951999
0.0450592
-0.0977762
0.0460287
-0.100163
0.0468441
-0.102518
0.0475667
-0.104925
0.04823
-0.107425
0.0488514
-0.110039
0.0494404
-0.112772
0.0500024
-0.115628
0.0505405
-0.118606
0.0510567
-0.121702
0.0515514
-0.12491
0.0520225
-0.128222
-0.131624
0.0524677
0.00128676
-0.0059886
0.0046617
-0.0195752
0.00954951
-0.0342767
0.0151789
-0.0487104
0.0207561
-0.0615956
0.0256721
-0.0721548
0.0296089
-0.0802248
0.0325218
-0.0861134
0.0345478
-0.0903602
0.0359008
-0.0935301
0.0367922
-0.0960914
0.0373902
-0.0983742
0.0378087
-0.100582
0.0381164
-0.102825
0.0383504
-0.105159
0.0385297
-0.107605
0.0386641
-0.110173
0.0387592
-0.112867
0.0388186
-0.115688
0.0388451
-0.118632
0.0388402
-0.121697
0.0388043
-0.124874
0.0387351
-0.128153
0.0386335
-0.131522
-0.00034904
0.000353823
-4.78297e-06
-0.00119935
0.000879843
-2.95308e-05
-0.00244033
0.00130086
-5.98824e-05
-0.0039964
0.0016462
-9.01239e-05
-0.00581408
0.0019353
-0.000117622
-0.00785651
0.0021843
-0.000141875
-0.0100996
0.0024068
-0.000163741
-0.0125286
0.0026137
-0.000184687
-0.0151355
0.00281313
-0.00020617
-0.0179168
0.00301049
-0.000229238
-0.0208711
0.00320867
-0.000254373
-0.023998
0.00340844
-0.000281503
-0.0272969
0.00360892
-0.00031008
-0.0307657
0.00380802
-0.000339174
-0.034401
0.0040028
-0.000367516
-0.0381973
0.00418976
-0.000393506
-0.0421472
0.0043651
-0.000415194
-0.0462419
0.00452499
-0.000430227
-0.0504723
0.00466612
-0.000435784
-0.0548296
0.00478591
-0.000428594
-0.059306
0.0048816
-0.000405156
-0.0638952
0.0049506
-0.000361421
-0.0686046
0.00500038
-0.000291044
0.00505701
-0.0734752
-0.000186386
-0.000317293
0.000671117
-0.00109729
0.00165984
-0.00224097
0.00244454
-0.00367818
0.0030834
-0.00535721
0.00361433
-0.00724046
0.00406755
-0.00930116
0.00446751
-0.0115207
0.0048332
-0.013886
0.0051785
-0.016388
0.00551245
-0.0190192
0.00583985
-0.0217726
0.00616183
-0.0246404
0.00647672
-0.027613
0.00678071
-0.0306787
0.00706846
-0.0338227
0.00733372
-0.0370273
0.00756975
-0.0402723
0.00776998
-0.0435351
0.00792895
-0.0467928
0.00804364
-0.0500246
0.00811334
-0.0532117
0.00813774
-0.056341
0.0081296
0.00816363
-0.0594476
-0.000257239
0.000928356
-0.000902526
0.00230513
-0.00185775
0.00339977
-0.00306252
0.00428817
-0.00446841
0.00502023
-0.00603653
0.00563566
-0.00773552
0.0061665
-0.00953981
0.00663749
-0.0114279
0.00706656
-0.0133807
0.00746532
-0.0153805
0.00783963
-0.0174092
0.00819049
-0.0194474
0.00851494
-0.0214736
0.00880693
-0.0234633
0.00905815
-0.0253882
0.00925866
-0.027216
0.00939753
-0.0289096
0.00946356
-0.0304269
0.00944623
-0.0317211
0.00933784
-0.0327448
0.00913701
-0.0334568
0.0088498
-0.033812
0.00848476
0.00808695
-0.0337353
-0.000180145
0.0011085
-0.000649
0.00277398
-0.00135358
0.00410435
-0.00224549
0.00518008
-0.00328063
0.00605537
-0.00441905
0.00677408
-0.00562445
0.00737191
-0.00686354
0.00787658
-0.00810515
0.00830817
-0.00931939
0.00867956
-0.0104768
0.008997
-0.0115472
0.00926098
-0.0124995
0.00946723
-0.0133002
0.00960761
-0.0139131
0.00967104
-0.0142986
0.00964411
-0.0144128
0.00951172
-0.0142068
0.0092576
-0.0136255
0.00886495
-0.0126054
0.0083177
-0.0110724
0.00760406
-0.00894709
0.00672448
-0.00616243
0.0057001
0.00462938
-0.00270487
-9.97813e-05
0.00120828
-0.000379057
0.00305326
-0.000808233
0.00453352
-0.00135036
0.00572221
-0.00196591
0.00667091
-0.00261457
0.00742274
-0.00325609
0.00801343
-0.0038506
0.00847109
-0.00435854
0.00881612
-0.00474048
0.0090615
-0.00495673
0.00921325
-0.00496694
0.00927118
-0.00472959
0.00922988
-0.00420155
0.00907957
-0.00333754
0.00880703
-0.00208964
0.00839622
-0.000406755
0.00782883
0.00176622
0.00708463
0.00448937
0.0061418
0.00783
0.00497707
0.011867
0.00356707
0.016695
0.00189647
0.022404
-8.9042e-06
-0.00224366
0.029277
-2.93777e-05
0.00123766
-0.000134297
0.00315818
-0.000301676
0.0047009
-0.000502756
0.00592329
-0.000701566
0.00686972
-0.000857973
0.00757915
-0.000929262
0.00808472
-0.000871064
0.00841289
-0.000637844
0.0085829
-0.00018311
0.00860677
0.000540554
0.00848958
0.00158164
0.0082301
0.00298992
0.0078216
0.00481688
0.00725261
0.00711612
0.00650779
0.00994366
0.00556869
0.0133585
0.00441401
0.0174233
0.00301985
0.0222037
0.00136133
0.0277699
-0.000589094
0.0341969
-0.00285994
0.0415934
-0.00550006
0.0499758
-0.00839128
-0.0121212
0.0598534
2.15405e-05
0.00121612
5.33012e-05
0.00312642
0.000102907
0.0046513
0.000196123
0.00583007
0.000367641
0.00669821
0.000657852
0.00728894
0.00111117
0.00763141
0.00177504
0.00774902
0.00269936
0.00765858
0.00393623
0.00736989
0.00553987
0.00688595
0.00756668
0.00620328
0.0100755
0.00531278
0.0131277
0.00420045
0.0167889
0.00284654
0.0211269
0.00123074
0.0262128
-0.000671895
0.0321229
-0.00289034
0.0389335
-0.00544921
0.0467242
-0.00837979
0.0555539
-0.0116897
0.0655524
-0.0154985
0.0765791
-0.019418
-0.0249095
0.0893674
4.80601e-05
0.00116806
0.000167972
0.0030065
0.000373181
0.00444609
0.000693079
0.00551017
0.00116487
0.00622642
0.00183132
0.00662249
0.00273987
0.00672285
0.00394218
0.00654671
0.00549397
0.00610678
0.00745511
0.00540876
0.00988968
0.00445138
0.0128663
0.00322671
0.0164581
0.00172089
0.0207395
-8.09135e-05
0.0257977
-0.00221164
0.0317141
-0.00468566
0.0385748
-0.00753261
0.0464619
-0.0107774
0.0554528
-0.0144401
0.0656183
-0.0185453
0.076985
-0.0230564
0.0896609
-0.0281744
0.103369
-0.033126
-0.040326
0.118785
5.21172e-05
0.00111594
0.000213976
0.00284465
0.00051611
0.00414395
0.000998453
0.00502783
0.00170601
0.00551887
0.00268857
0.00563992
0.00400125
0.00541017
0.00570503
0.00484293
0.00786734
0.00394447
0.0105623
0.00271376
0.0138709
0.00114285
0.0178799
-0.000782322
0.0226814
-0.00308057
0.028373
-0.00577254
0.0350428
-0.00888146
0.0427828
-0.0124257
0.0516706
-0.0164203
0.0617664
-0.0208732
0.0731061
-0.0257799
0.0856972
-0.0311363
0.0994938
-0.036853
0.114463
-0.0431435
0.130352
-0.0490151
-0.0573006
0.147327
4.10401e-05
0.0010749
0.000214792
0.00267089
0.00057776
0.00378099
0.0011875
0.00441808
0.00210374
0.00460263
0.00339062
0.00435303
0.0051189
0.00368189
0.00736735
0.00259448
0.0102234
0.0010884
0.0137826
-0.000845417
0.0181466
-0.00322118
0.0234197
-0.00605542
0.0297034
-0.00936424
0.0370905
-0.0131596
0.0456555
-0.0174465
0.055449
-0.0222192
0.0664883
-0.0274596
0.0787512
-0.0331361
0.0921712
-0.0391999
0.106634
-0.0455987
0.121986
-0.0522058
0.137981
-0.059138
0.154499
-0.0655331
-0.0737337
0.170932
2.64043e-05
0.0010485
0.00020797
0.00248933
0.000633175
0.00335578
0.00138399
0.00366727
0.00254271
0.00344392
0.00419652
0.00269922
0.00644043
0.00143798
0.00937801
-0.000343101
0.0131206
-0.00265414
0.0177821
-0.00550695
0.0234733
-0.00891234
0.0302924
-0.0128745
0.038315
-0.0173868
0.0475833
-0.022428
0.0580969
-0.02796
0.0698048
-0.0339272
0.0826026
-0.0402574
0.0963323
-0.0468658
0.110786
-0.0536538
0.125721
-0.0605333
0.140881
-0.0673659
0.155938
-0.0741949
0.170853
-0.0804488
-0.0874543
0.184574
2.11445e-05
0.000235934
0.000767647
0.00172813
0.00322896
0.00538667
0.00832394
0.0121673
0.0170399
0.023052
0.0302874
0.0387905
0.0485539
0.0595101
0.0715281
0.0844151
0.0979248
0.111771
0.125641
0.139226
0.152233
0.164428
0.175834
0.186331
-0.0765208
0.00308177
-3.61722e-05
-0.0789966
0.00221812
0.000257715
-0.0808572
0.00122898
0.000631651
-0.0819132
-2.04706e-05
0.00107646
-0.0821484
-0.00130418
0.00153934
-0.0814024
-0.00278637
0.00204035
-0.079544
-0.0044087
0.00255037
-0.0764596
-0.00613138
0.00304697
-0.0720542
-0.00791024
0.00350476
-0.0662366
-0.00967172
0.00385417
-0.0589362
-0.0113267
0.00402624
-0.0501197
-0.0127675
0.00395096
-0.0398384
-0.0138875
0.00360621
-0.0281557
-0.0146083
0.00292561
-0.0152704
-0.0147096
0.00182434
-0.00139966
-0.014314
0.000443265
0.0130784
-0.0133012
-0.00117681
0.0278535
-0.0117969
-0.00297821
0.0425627
-0.00989973
-0.00480954
0.0568612
-0.00775911
-0.00653935
0.0704615
-0.00554085
-0.00805943
0.083159
-0.00340028
-0.00929726
0.0948262
-0.00143769
-0.0102295
0.105403
0.000292749
-0.0108695
0.114897
0.00175323
-0.0112474
0.123351
0.00296543
-0.0114192
0.13084
0.00394645
-0.0114359
0.137454
0.00473282
-0.0113461
0.143288
0.00536419
-0.0111983
0.148452
0.00585577
-0.0110202
0.15303
0.00627536
-0.0108531
0.157107
0.00665202
-0.0107289
0.160757
0.00700981
-0.0106596
0.164048
0.00736725
-0.010658
0.167029
0.00774421
-0.0107258
0.169739
0.00818187
-0.0108919
0.172191
0.00865948
-0.0111112
0.174376
0.00929035
-0.0114754
0.176277
0.00991024
-0.0118112
0.177874
0.0107735
-0.0123707
0.179167
0.0114247
-0.0127179
0.180166
0.0125288
-0.0135271
0.180904
0.0131023
-0.0138403
0.18141
0.0145863
-0.0150932
0.181729
0.0150871
-0.0154062
0.181889
0.0171146
-0.017274
0.18192
0.0176031
-0.0176347
0.181847
0.0201936
-0.0201204
0.181687
0.020757
-0.020597
0.181456
0.0239094
-0.0236785
0.181168
0.0245512
-0.0242626
0.180824
0.0285072
-0.0281638
0.180441
0.0290776
-0.0286942
0.180015
0.0341821
-0.0337558
0.179553
0.0347445
-0.0342824
0.179057
0.0410744
-0.0405789
0.178531
0.0419172
-0.0413913
0.177972
0.0497149
-0.049156
0.177389
0.0508988
-0.0503156
0.060546
-0.0599311
-0.0620257
0.00565991
-0.0641564
0.00434885
-0.0657076
0.00278018
-0.0665734
0.00084524
-0.0666091
-0.00126845
-0.065782
-0.0036135
-0.063956
-0.00623468
-0.0610244
-0.00906298
-0.056894
-0.0120407
-0.0514771
-0.0150885
-0.0447102
-0.0180936
-0.0365653
-0.0209124
-0.0270994
-0.0233534
-0.0162865
-0.0254211
-0.00440153
-0.0265946
0.00825552
-0.0269711
0.021525
-0.0265707
0.0350761
-0.0253479
0.0485754
-0.023399
0.0617219
-0.0209056
0.0742684
-0.0180874
0.0860369
-0.0151688
0.0969247
-0.0123255
0.10687
-0.00965227
0.115855
-0.00723156
0.123914
-0.00509369
0.131105
-0.00324522
0.137502
-0.00166341
0.143167
-0.000301405
0.14822
0.000803222
0.152719
0.00177648
0.156742
0.00262838
0.160357
0.00339488
0.163631
0.00409303
0.166609
0.00476656
0.169329
0.00546227
0.171802
0.00618628
0.174019
0.00707308
0.175959
0.00796992
0.177599
0.00913413
0.178933
0.0100905
0.179969
0.0114932
0.18074
0.0123314
0.181275
0.0140506
0.181621
0.0147416
0.181804
0.0169315
0.181859
0.0175482
0.181807
0.0202458
0.181668
0.0208955
0.181456
0.0241211
0.181188
0.0248196
0.180863
0.0288326
0.180498
0.029442
0.180088
0.0345924
0.179643
0.0351891
0.179161
0.0415565
0.17865
0.0424285
0.1781
0.0502643
0.177527
0.0514718
0.0611574
-0.0354367
0.00736132
-0.0367767
0.00568884
-0.0376978
0.00370122
-0.0380788
0.00122625
-0.0377867
-0.00156046
-0.0367491
-0.00465112
-0.0348687
-0.00811514
-0.0320266
-0.011905
-0.0281631
-0.0159041
-0.0231904
-0.0200613
-0.0170468
-0.0242372
-0.00969535
-0.0282639
-0.00111184
-0.0319369
0.0082238
-0.0347568
0.0185576
-0.0369285
0.0296526
-0.038066
0.0412098
-0.038128
0.0529455
-0.0370837
0.0645819
-0.0350354
0.0758699
-0.0321936
0.0866121
-0.0288296
0.0966735
-0.0252302
0.105984
-0.0216356
0.114504
-0.0181731
0.122229
-0.0149561
0.129185
-0.0120496
0.135418
-0.00947854
0.14099
-0.00723553
0.145985
-0.00529629
0.15043
-0.00364176
0.154414
-0.0022075
0.157992
-0.000948964
0.161218
0.000168782
0.164166
0.0011444
0.166863
0.00206934
0.169351
0.00297503
0.171633
0.00390361
0.173704
0.00500214
0.17554
0.006134
0.177113
0.00756163
0.178411
0.00879221
0.179435
0.0104696
0.180211
0.0115547
0.180765
0.0134967
0.181139
0.0143683
0.181355
0.0167151
0.181448
0.017455
0.181436
0.0202584
0.18134
0.0209912
0.18117
0.0242906
0.180946
0.0250436
0.180664
0.0291148
0.180345
0.0297612
0.179978
0.0349596
0.179579
0.0355882
0.179139
0.0419962
0.178672
0.0428953
0.178163
0.0507732
0.177632
0.0520027
0.0617324
-0.002864
0.00752045
-0.00332574
0.00615058
-0.00346795
0.00384343
-0.00322406
0.000982352
-0.00253786
-0.00224666
-0.00126684
-0.00592214
0.000645479
-0.0100275
0.00321913
-0.0144787
0.00661649
-0.0193015
0.0109099
-0.0243547
0.016153
-0.0294803
0.0223594
-0.0344703
0.0294795
-0.039057
0.0375678
-0.0428451
0.0463689
-0.0457295
0.0557211
-0.0474182
0.0653829
-0.0477897
0.0751153
-0.0468161
0.0846905
-0.0446105
0.0939135
-0.0414167
0.102636
-0.0375524
0.110762
-0.0333558
0.118247
-0.0291211
0.125088
-0.0250138
0.131286
-0.0211537
0.136869
-0.0176332
0.141881
-0.0144904
0.146374
-0.0117288
0.150399
-0.00932095
0.154002
-0.0072444
0.15724
-0.00544627
0.16017
-0.0038784
0.162841
-0.00250247
0.165273
-0.0012871
0.167503
-0.00016051
0.169598
0.00087985
0.171544
0.00195688
0.173341
0.00320585
0.174964
0.00451035
0.176385
0.00614067
0.177586
0.00759123
0.178558
0.00949815
0.179318
0.0107943
0.179882
0.0129326
0.180285
0.013965
0.180545
0.016456
0.180691
0.0173087
0.180736
0.0202132
0.180704
0.0210234
0.180599
0.0243954
0.180444
0.0251992
0.18023
0.0293287
0.179982
0.0300091
0.179685
0.0352565
0.179359
0.0359137
0.178991
0.0423645
0.178599
0.0432878
0.178161
0.0512106
0.177704
0.0524596
0.0622378
0.0297605
0.00703703
0.0303324
0.00557868
0.030956
0.00321979
0.0317243
0.000214051
0.0326974
-0.00321976
0.0340106
-0.00723534
0.0357637
-0.0117806
0.0380804
-0.0167953
0.0410067
-0.0222278
0.0446152
-0.0279632
0.048957
-0.033822
0.0540447
-0.0395579
0.0598512
-0.0448635
0.0663686
-0.0493625
0.0734224
-0.0527833
0.0808562
-0.0548521
0.0884839
-0.0554174
0.0961201
-0.0544523
0.103595
-0.0520851
0.110769
-0.0485908
0.11754
-0.0443236
0.12384
-0.0396558
0.129637
-0.0349186
0.134943
-0.0303193
0.139757
-0.0259677
0.144099
-0.0219757
0.148001
-0.0183924
0.1515
-0.0152274
0.154636
-0.0124565
0.157446
-0.0100548
0.159976
-0.00797685
0.162266
-0.00616781
0.16435
-0.00458693
0.166258
-0.00319513
0.168045
-0.00194731
0.169691
-0.000766436
0.171261
0.00038732
0.172739
0.00172794
0.174107
0.0031421
0.175339
0.00490855
0.176415
0.006516
0.177315
0.00859742
0.17805
0.0100594
0.178624
0.0123592
0.179063
0.0135257
0.179376
0.0161428
0.179591
0.017094
0.179712
0.0200917
0.179764
0.0209715
0.179746
0.0244131
0.179683
0.025263
0.179562
0.0294494
0.179411
0.03016
0.179211
0.0354563
0.178987
0.0361381
0.178718
0.0426327
0.17843
0.0435764
0.178095
0.0515456
0.177743
0.0528109
0.0626406
0.0608983
0.00599208
0.0620493
0.00442774
0.0632442
0.00202485
0.0644198
-0.000961504
0.0656755
-0.00447548
0.0670654
-0.0086252
0.0686825
-0.0133977
0.0706112
-0.0187241
0.0729259
-0.0245425
0.0756988
-0.0307361
0.0789785
-0.0371018
0.08278
-0.0433594
0.0870866
-0.0491701
0.0918614
-0.0541373
0.0969864
-0.0579083
0.102338
-0.0602038
0.107795
-0.0608747
0.113247
-0.0599041
0.118598
-0.0574355
0.123773
-0.0537662
0.128718
-0.0492684
0.133386
-0.0443237
0.137744
-0.0392772
0.141793
-0.0343681
0.145524
-0.029699
0.148929
-0.0253799
0.152014
-0.0214778
0.154796
-0.0180094
0.157298
-0.014958
0.159542
-0.0122992
0.161559
-0.00999425
0.16338
-0.00798833
0.165033
-0.00623974
0.166542
-0.00470422
0.167938
-0.00334345
0.169251
-0.00207933
0.170493
-0.000854817
0.171688
0.000533125
0.172825
0.00200475
0.173882
0.00385204
0.17484
0.00555814
0.175676
0.00776075
0.176393
0.00934254
0.176985
0.0117675
0.177472
0.0130388
0.177853
0.0157616
0.178152
0.0167946
0.178369
0.0198754
0.178525
0.0208155
0.178616
0.0243219
0.178667
0.0252119
0.178664
0.0294527
0.178635
0.0301887
0.178559
0.0355327
0.178462
0.0362344
0.178323
0.0427723
0.178167
0.0437321
0.177965
0.051748
0.17775
0.0530254
0.0629081
0.0904388
0.00492066
0.0916478
0.00321876
0.0929396
0.00073304
0.0942128
-0.00223467
0.0954807
-0.00574341
0.0967888
-0.00993329
0.0981712
-0.0147801
0.099664
-0.0202169
0.101305
-0.0261837
0.103131
-0.0325622
0.10518
-0.0391508
0.107498
-0.0456767
0.110093
-0.0517656
0.112941
-0.0569853
0.115976
-0.0609434
0.119128
-0.0633557
0.12235
-0.0640965
0.125615
-0.0631687
0.128905
-0.0607261
0.13221
-0.0570713
0.135514
-0.0525725
0.138784
-0.0475936
0.141975
-0.0424679
0.145054
-0.037447
0.148003
-0.0326476
0.150771
-0.0281484
0.153336
-0.0240428
0.155687
-0.0203604
0.157823
-0.0170945
0.159752
-0.0142273
0.161487
-0.0117295
0.16305
-0.00955129
0.164461
-0.00765088
0.165738
-0.00598099
0.166908
-0.00451368
0.167993
-0.00316411
0.169035
-0.00189713
0.170027
-0.000459286
0.171002
0.00102975
0.171935
0.00291957
0.172813
0.00468034
0.173613
0.00696031
0.174334
0.00862186
0.174962
0.011139
0.175514
0.0124873
0.17598
0.0152952
0.176382
0.0163928
0.176712
0.0195456
0.176992
0.0205351
0.177214
0.0241003
0.177402
0.0250234
0.17754
0.0293149
0.177658
0.0300707
0.177731
0.0354599
0.177789
0.0361759
0.177806
0.0427556
0.177812
0.0437265
0.177772
0.0517876
0.177725
0.0530726
0.063008
0.119281
0.00442548
0.120002
0.00249754
0.120848
-0.000112758
0.121663
-0.00305002
0.122475
-0.00655536
0.12329
-0.0107481
0.124079
-0.0155689
0.124836
-0.0209742
0.12557
-0.0269176
0.126283
-0.0332755
0.126975
-0.0398425
0.127645
-0.0463467
0.128326
-0.052447
0.129085
-0.0577442
0.129931
-0.0617896
0.130869
-0.0642937
0.131931
-0.0651586
0.133167
-0.0644041
0.134622
-0.0621809
0.136326
-0.058776
0.138282
-0.0545279
0.140452
-0.0497639
0.142769
-0.044785
0.145161
-0.0398387
0.147581
-0.0350682
0.149957
-0.0305244
0.152228
-0.0263134
0.154358
-0.0224909
0.156329
-0.0190648
0.158129
-0.0160278
0.159761
-0.0133617
0.161235
-0.0110252
0.162564
-0.00897967
0.16376
-0.00717688
0.164843
-0.00559698
0.165839
-0.00415943
0.166775
-0.00283328
0.167692
-0.00137605
0.168577
0.00014405
0.169454
0.00204242
0.170304
0.00383026
0.171109
0.00615592
0.171865
0.00786591
0.172555
0.0104485
0.173193
0.0118496
0.173764
0.0147242
0.174287
0.0158695
0.17475
0.0190827
0.175175
0.0201106
0.175547
0.0237275
0.175895
0.0246758
0.176197
0.0290129
0.176486
0.0297822
0.176733
0.0352129
0.176971
0.0359371
0.177171
0.0425555
0.177366
0.043532
0.177518
0.0516352
0.177668
0.0529228
0.0629087
0.146794
0.00495764
0.146604
0.00268767
0.146519
-2.78384e-05
0.146373
-0.00290417
0.146256
-0.00643819
0.146116
-0.0106076
0.145883
-0.0153358
0.145527
-0.0206184
0.145027
-0.0264176
0.144361
-0.0326092
0.143515
-0.0389965
0.142485
-0.0453172
0.14129
-0.051252
0.139989
-0.0564435
0.138732
-0.0605325
0.137634
-0.063195
0.136804
-0.0643296
0.13635
-0.0639495
0.136347
-0.0621783
0.136836
-0.0592652
0.137808
-0.0554992
0.139205
-0.0511612
0.140934
-0.0465138
0.142886
-0.0417907
0.144976
-0.0371581
0.14713
-0.0326789
0.149259
-0.0284417
0.151302
-0.024534
0.153225
-0.0209883
0.155009
-0.0178115
0.156645
-0.0149974
0.158134
-0.0125146
0.159484
-0.0103298
0.160702
-0.00839515
0.161803
-0.00669759
0.162806
-0.00516253
0.163746
-0.00377312
0.164652
-0.00228192
0.165546
-0.000750207
0.166428
0.00116065
0.167307
0.00295156
0.168159
0.00530334
0.168986
0.00703919
0.169767
0.00966752
0.170515
0.0111016
0.171212
0.0140272
0.171877
0.0152048
0.172492
0.0184671
0.173081
0.0195221
0.173625
0.0231827
0.174153
0.0241479
0.174642
0.0285246
0.175124
0.0293003
0.175569
0.0347674
0.176013
0.0354933
0.176423
0.0421455
0.176833
0.0431217
0.177206
0.0512623
0.177582
0.0525471
0.0625792
0.169547
0.00634227
0.168444
0.00379073
0.167203
0.00121355
0.166006
-0.00170716
0.164784
-0.00521664
0.163472
-0.00929533
0.162009
-0.0138729
0.160363
-0.0189721
0.158493
-0.0245479
0.156369
-0.0304845
0.153977
-0.0366048
0.151327
-0.0426676
0.148462
-0.0483871
0.145465
-0.0534466
0.142496
-0.0575629
0.139788
-0.060487
0.13753
-0.0620717
0.135861
-0.0622801
0.13486
-0.0611778
0.134552
-0.0589566
0.134898
-0.0558461
0.135817
-0.0520796
0.137191
-0.0478879
0.138889
-0.0434887
0.140791
-0.0390595
0.142823
-0.0347114
0.144902
-0.030521
0.146946
-0.0265773
0.148898
-0.022941
0.150731
-0.0196445
0.152431
-0.0166966
0.153993
-0.0140774
0.155424
-0.0117601
0.156726
-0.00969699
0.157909
-0.00788057
0.158988
-0.00624216
0.159998
-0.00478257
0.160962
-0.0032468
0.161926
-0.00171372
0.162869
0.000217933
0.163828
0.00199276
0.16477
0.00436049
0.165703
0.00610654
0.166604
0.00876659
0.167488
0.010218
0.168333
0.0131819
0.16916
0.0143782
0.169948
0.0176788
0.17072
0.01875
0.171457
0.0224459
0.172186
0.0234191
0.172882
0.0278285
0.173579
0.0286029
0.174246
0.0341
0.174919
0.0348205
0.175564
0.0415005
0.176216
0.0424699
0.176837
0.0506415
0.177466
0.0519178
0.0619895
0.183152
0.00776406
0.181505
0.00543841
0.179464
0.00325364
0.177601
0.000155974
0.175531
-0.00314603
0.17326
-0.00702512
0.170779
-0.0113915
0.168052
-0.0162454
0.165038
-0.0215338
0.161717
-0.0271635
0.158092
-0.0329798
0.154195
-0.03877
0.150094
-0.0442869
0.145915
-0.0492668
0.141819
-0.0534676
0.13808
-0.0567472
0.134939
-0.0589311
0.132541
-0.0598822
0.130954
-0.0595906
0.130184
-0.058187
0.130175
-0.0558365
0.130822
-0.0527272
0.131999
-0.0490645
0.133565
-0.045055
0.135392
-0.0408868
0.137378
-0.0366975
0.139448
-0.0325906
0.141533
-0.0286626
0.143563
-0.0249705
0.145493
-0.0215746
0.147301
-0.0185051
0.148981
-0.015757
0.150533
-0.0133124
0.151961
-0.0111246
0.153271
-0.00919038
0.154474
-0.0074455
0.1556
-0.00590861
0.156681
-0.00432754
0.157749
-0.00278246
0.158808
-0.000841087
0.159882
0.000919009
0.160954
0.00328846
0.162026
0.00503493
0.163075
0.00771735
0.164119
0.00917373
0.165136
0.0121655
0.166146
0.0133685
0.167127
0.0166977
0.168102
0.0177745
0.169051
0.0214971
0.170001
0.0224693
0.170926
0.0269036
0.17186
0.0276687
0.172771
0.0331883
0.173696
0.0338959
0.174601
0.040596
0.175519
0.0415519
0.176414
0.0497463
0.177323
0.0510082
0.0611105
0.185378
0.00871691
0.183647
0.00716901
0.181798
0.00510265
0.179643
0.00231134
0.177478
-0.000980861
0.174908
-0.00445509
0.172035
-0.00851861
0.16882
-0.0130303
0.165248
-0.0179622
0.161331
-0.0232461
0.157105
-0.0287541
0.152645
-0.0343103
0.148064
-0.0397057
0.143514
-0.0447168
0.13916
-0.0491142
0.13514
-0.0527271
0.131611
-0.0554018
0.128746
-0.0570175
0.126709
-0.0575532
0.12553
-0.0570079
0.125154
-0.0554604
0.125483
-0.0530568
0.126397
-0.049978
0.127761
-0.046419
0.129446
-0.0425723
0.131348
-0.0385994
0.133379
-0.0346211
0.135455
-0.0307391
0.13752
-0.0270349
0.139524
-0.0235787
0.141436
-0.020417
0.143239
-0.0175604
0.144929
-0.0150027
0.146505
-0.0127005
0.14797
-0.0106549
0.149329
-0.00880513
0.15061
-0.00718885
0.151841
-0.00555913
0.153057
-0.00399809
0.154279
-0.00206377
0.155494
-0.000296013
0.156726
0.00205668
0.157966
0.00379529
0.15919
0.00649361
0.160419
0.00794409
0.161629
0.0109555
0.162843
0.0121545
0.164038
0.015503
0.165236
0.016576
0.166417
0.0203165
0.167608
0.0212788
0.168781
0.0257297
0.169973
0.0264772
0.171151
0.0320105
0.172349
0.0326979
0.173536
0.0394085
0.174744
0.0403442
0.175939
0.0485513
0.177154
0.0497933
0.0599144
0.203964
0.00953348
-0.204781
0.20378
0.0073525
0.203605
0.00527813
0.203271
0.00264576
0.202679
-0.000389373
0.202185
-0.00396087
0.201485
-0.00781842
0.200542
-0.0120879
0.199298
-0.0167174
0.197683
-0.0216312
0.195651
-0.026722
0.193184
-0.031844
0.190299
-0.0368204
0.187045
-0.0414628
0.183509
-0.0455784
0.17979
-0.0490075
0.176002
-0.0516146
0.172274
-0.0532892
0.168716
-0.0539946
0.16544
-0.0537318
0.162533
-0.052554
0.160052
-0.050576
0.158022
-0.0479474
0.156436
-0.0448329
0.155263
-0.0413993
0.154456
-0.0377924
0.153963
-0.0341285
0.153733
-0.0305091
0.153716
-0.0270173
0.153856
-0.0237195
0.154106
-0.0206667
0.154423
-0.0178769
0.154772
-0.0153526
0.155129
-0.0130571
0.155471
-0.0109973
0.155785
-0.00911902
0.156065
-0.00746836
0.156315
-0.00580945
0.156547
-0.00423014
0.156773
-0.00228995
0.157017
-0.000539173
0.157249
0.00182421
0.157502
0.00354241
0.157763
0.00623261
0.158032
0.0076749
0.158297
0.0106908
0.158563
0.0118883
0.158814
0.0152518
0.159063
0.0163272
0.159293
0.020086
0.159519
0.0210531
0.159728
0.025521
0.159935
0.0262702
0.160125
0.0318208
0.16032
0.0325024
0.1605
0.0392282
0.160691
0.0401535
0.160871
0.0483715
0.161067
0.0495971
0.0597255
0.21544
0.00971183
-0.215618
0.215305
0.00748688
0.215325
0.00525816
0.215199
0.00277211
0.214941
-0.000130995
0.214424
-0.00344399
0.213687
-0.00708199
0.212651
-0.0110513
0.211262
-0.0153292
0.209481
-0.0198501
0.207281
-0.0245219
0.204661
-0.0292235
0.201646
-0.033806
0.198292
-0.0381082
0.194678
-0.0419648
0.190899
-0.0452287
0.187062
-0.0477779
0.183286
-0.0495132
0.179679
-0.0503868
0.176339
-0.0503917