/*--------------------------------*- C++ -*----------------------------------*\
| =========                 |                                                 |
| \\      /  F ield         | OpenFOAM: The Open Source CFD Toolbox           |
|  \\    /   O peration     | Version:  2512                                  |
|   \\  /    A nd           | Website:  www.openfoam.com                      |
|    \\/     M anipulation  |                                                 |
\*---------------------------------------------------------------------------*/
FoamFile
{
    version     2.0;
    format      ascii;
    arch        "LSB;label=32;scalar=64";
    class       surfaceScalarField;
    location    "91.5";
    object      phi;
}
// * * * * * * * * * * * * * * * * * * * * * * * * * * * * * * * * * * * * * //

dimensions      [0 3 -1 0 0 0 0];

oriented        oriented;

internalField   nonuniform List<scalar> 
26232
(
0.000162822
0.000892479
-0.0010553
0.000741396
0.0014386
-0.00201718
0.00184866
0.000891146
-0.00199841
0.00361188
-0.000683771
-0.00107945
0.00617019
-0.00323881
0.000680506
0.00966524
-0.00673774
0.00324268
0.0142262
-0.0111441
0.00658318
0.0199501
-0.0164055
0.0106816
0.0268811
-0.0224384
0.0155073
0.0349925
-0.0291177
0.0210062
0.0441767
-0.0362757
0.0270916
0.0542456
-0.0437101
0.0336412
0.0649442
-0.0511994
0.0405009
0.0759734
-0.0585235
0.0474944
0.0870206
-0.0654841
0.0544369
0.0977916
-0.0719221
0.0611511
0.10804
-0.07773
0.0674819
0.117587
-0.0828569
0.0733092
0.126339
-0.0873053
0.0785534
0.134282
-0.0911297
0.0831872
0.141467
-0.0943973
0.0872118
0.148006
-0.0972565
0.0907183
0.153887
-0.0996417
0.0937608
-0.102021
0.0967586
0.159149
0.000199621
0.000692859
0.000941362
0.000696862
0.00237628
-0.000543777
0.00465903
-0.00296652
0.00794424
-0.00652402
0.0123709
-0.0111644
0.0180386
-0.0168118
0.0249811
-0.023348
0.0331439
-0.0306012
0.0423739
-0.0383477
0.0524243
-0.0463261
0.0629769
-0.0542627
0.073677
-0.0618995
0.0841743
-0.0690209
0.0941635
-0.0754733
0.103416
-0.0811744
0.111799
-0.0861129
0.119281
-0.0903388
0.125923
-0.0939475
0.131854
-0.0970613
0.137262
-0.0998046
0.142326
-0.102321
0.147314
-0.10463
-0.107123
0.152416
0.000252682
0.000440176
0.00119736
-0.000247813
0.00302003
-0.00236645
0.00589638
-0.00584287
0.00998122
-0.0106089
0.0153819
-0.0165651
0.0221263
-0.0235561
0.030135
-0.0313567
0.0392108
-0.039677
0.0490491
-0.048186
0.0592721
-0.0565492
0.0694774
-0.064468
0.0792909
-0.0717129
0.0884136
-0.0781436
0.0966528
-0.0837125
0.103935
-0.0884561
0.110296
-0.0924741
0.115862
-0.0959045
0.120812
-0.0988981
0.12535
-0.101599
0.12967
-0.104125
0.133933
-0.106584
0.138294
-0.10899
-0.111592
0.142764
0.000329125
0.000111051
0.00152843
-0.00144712
0.0038067
-0.00464472
0.00734298
-0.00937915
0.0122623
-0.0155282
0.0185976
-0.0229004
0.0262556
-0.0312141
0.0350033
-0.0401045
0.0444853
-0.0491589
0.0542699
-0.0579706
0.063914
-0.0661932
0.0730281
-0.0735821
0.0813279
-0.0800127
0.0886614
-0.085477
0.0950097
-0.0900609
0.100465
-0.0939119
0.105196
-0.0972045
0.109402
-0.100111
0.113283
-0.102779
0.117011
-0.105327
0.120723
-0.107837
0.124511
-0.110372
0.128455
-0.112935
-0.1157
0.132563
0.000430557
-0.000319506
0.00193541
-0.00295197
0.00472508
-0.00743439
0.00895216
-0.0136062
0.0146699
-0.0212459
0.0217883
-0.0300189
0.0300542
-0.0394801
0.0390711
-0.0491213
0.0483586
-0.0584465
0.0574345
-0.0670465
0.0658933
-0.0746521
0.073462
-0.0811508
0.0800216
-0.0865724
0.0855961
-0.0910515
0.0903158
-0.0947806
0.0943711
-0.0979672
0.0979671
-0.1008
0.10129
-0.103434
0.104491
-0.10598
0.107679
-0.108515
0.110928
-0.111086
0.114282
-0.113726
0.117781
-0.116434
-0.119317
0.121399
0.00055404
-0.000873546
0.00240315
-0.00480109
0.00573016
-0.0107614
0.0106215
-0.0184975
0.0170113
-0.0276357
0.0246476
-0.0376552
0.0331076
-0.04794
0.0418674
-0.0578812
0.0504024
-0.0669814
0.058282
-0.0749261
0.0652325
-0.0816025
0.0711537
-0.087072
0.0760966
-0.0915153
0.0802148
-0.0951697
0.0837102
-0.098276
0.0867858
-0.101043
0.0896161
-0.103631
0.0923348
-0.106153
0.0950354
-0.108681
0.0977792
-0.111259
0.100605
-0.113912
0.103533
-0.116655
0.106586
-0.119487
-0.122469
0.109738
0.000693588
-0.00156713
0.00290494
-0.00701244
0.00675301
-0.0146095
0.0122134
-0.023958
0.0190609
-0.0344832
0.0268674
-0.0454617
0.0350732
-0.0561459
0.043105
-0.0659129
0.0504919
-0.0743683
0.05694
-0.0813742
0.0623491
-0.0870117
0.0667813
-0.0915041
0.0704019
-0.0951359
0.0734185
-0.0981863
0.076032
-0.100889
0.078409
-0.10342
0.080673
-0.105895
0.0829075
-0.108387
0.085166
-0.110939
0.087481
-0.113574
0.0898721
-0.116303
0.0923494
-0.119132
0.0949229
-0.122061
-0.125115
0.0975688
0.000841318
-0.00240845
0.00340696
-0.00957807
0.00771218
-0.0189147
0.0135809
-0.0298266
0.0206073
-0.0415096
0.0282104
-0.0530648
0.0357633
-0.0636989
0.0427358
-0.0728854
0.0487889
-0.0804214
0.0537996
-0.086385
0.0578241
-0.0910362
0.0610307
-0.0947107
0.0636303
-0.0977355
0.0658247
-0.100381
0.0677776
-0.102842
0.0696077
-0.10525
0.0713936
-0.107681
0.0731839
-0.110177
0.075008
-0.112763
0.0768835
-0.115449
0.0788204
-0.11824
0.0808245
-0.121136
0.0829007
-0.124137
-0.127247
0.0850322
0.000988023
-0.00339647
0.00387181
-0.0124619
0.00852448
-0.0235674
0.0145905
-0.0358927
0.0214928
-0.0484118
0.0285542
-0.0601262
0.0351661
-0.0703108
0.0409161
-0.0786353
0.0456303
-0.0851357
0.04934
-0.0900947
0.0522067
-0.0939028
0.0544433
-0.0969473
0.0562555
-0.0995477
0.0578097
-0.101935
0.0592247
-0.104257
0.0605778
-0.106603
0.0619156
-0.109018
0.0632657
-0.111527
0.0646444
-0.114142
0.0660616
-0.116866
0.0675231
-0.119701
0.0690323
-0.122645
0.0705909
-0.125696
-0.128844
0.0721885
0.00112339
-0.00451987
0.00426171
-0.0156002
0.00911531
-0.028421
0.0151434
-0.0419208
0.021637
-0.0549055
0.0278986
-0.0663877
0.0334115
-0.0758237
0.0379183
-0.0831421
0.0414002
-0.0886175
0.0439982
-0.0926927
0.0459241
-0.0958287
0.0473901
-0.0984132
0.0485699
-0.100728
0.0495878
-0.102953
0.0505233
-0.105193
0.0514237
-0.107503
0.0523162
-0.109911
0.0532166
-0.112428
0.0541344
-0.11506
0.0550757
-0.117808
0.0560441
-0.12067
0.0570417
-0.123643
0.0580685
-0.126722
-0.129896
0.0591202
0.00123726
-0.00575713
0.0045435
-0.0189064
0.00942914
-0.0333066
0.0151873
-0.047679
0.021039
-0.0607571
0.026339
-0.0716878
0.0307084
-0.0801931
0.0340445
-0.0864782
0.0364472
-0.0910203
0.0381186
-0.0943641
0.0392777
-0.0969878
0.0401103
-0.0992459
0.0407508
-0.101368
0.0412854
-0.103487
0.0417646
-0.105672
0.0422167
-0.107955
0.0426575
-0.110352
0.0430965
-0.112867
0.04354
-0.115503
0.043992
-0.11826
0.0444548
-0.121132
0.0449291
-0.124117
0.0454135
-0.127207
-0.13039
0.0459071
0.00132343
-0.00708056
0.00469558
-0.0222786
0.00943747
-0.0380485
0.0147199
-0.0529614
0.0197636
-0.0658008
0.0240313
-0.0759555
0.0272937
-0.0834555
0.0295776
-0.088762
0.031058
-0.0925007
0.0319567
-0.0952628
0.0324741
-0.0975052
0.0327599
-0.0995317
0.0329116
-0.10152
0.0329864
-0.103562
0.0330153
-0.105701
0.033015
-0.107955
0.032995
-0.110332
0.0329618
-0.112834
0.0329197
-0.115461
0.0328719
-0.118212
0.0328204
-0.121081
0.0327654
-0.124062
0.0327045
-0.127146
0.0326395
-0.130325
-0.000277454
-0.00040867
0.000686124
-0.000956487
-0.00151124
0.00219027
-0.00194984
-0.00277031
0.00376366
-0.00319594
-0.0040672
0.0053133
-0.00464744
-0.00533224
0.00678374
-0.00626565
-0.0065445
0.00816271
-0.00801756
-0.00771944
0.00947135
-0.0098743
-0.00889304
0.0107498
-0.0118103
-0.0101071
0.0120431
-0.0138028
-0.0113982
0.0133906
-0.0158303
-0.0127917
0.0148192
-0.0178717
-0.0142995
0.0163409
-0.0199045
-0.0159204
0.0179532
-0.0219033
-0.0176416
0.0196404
-0.0238388
-0.0194388
0.0213743
-0.0256769
-0.0212765
0.0231146
-0.0273785
-0.0231072
0.0248089
-0.0289002
-0.0248697
0.0263915
-0.0301955
-0.0264885
0.0277838
-0.0312171
-0.0278745
0.028896
-0.031919
-0.0289282
0.0296301
-0.0322614
-0.0295394
0.0298818
-0.0322267
-0.0295744
0.0295397
-0.0289095
-0.0318411
0.0285239
-0.000323714
-8.49557e-05
-0.00111051
-0.00072445
-0.00225336
-0.00162746
-0.0036762
-0.00264436
-0.00532175
-0.00368669
-0.00714591
-0.00472035
-0.00911437
-0.00575099
-0.0112002
-0.00680719
-0.0133821
-0.00792523
-0.0156422
-0.00913804
-0.0179649
-0.010469
-0.0203342
-0.0119301
-0.0227327
-0.0135219
-0.0251401
-0.0152342
-0.0275319
-0.0170469
-0.0298793
-0.0189292
-0.0321485
-0.020838
-0.0343017
-0.0227165
-0.0362984
-0.0244918
-0.0380987
-0.0260742
-0.0396675
-0.0273594
-0.0409761
-0.0282307
-0.0420039
-0.0285466
-0.0281543
-0.0427591
-0.00034336
0.000258405
-0.00117768
0.000109868
-0.00238565
-0.000419485
-0.00388142
-0.00114859
-0.00560016
-0.00196795
-0.00749254
-0.00282797
-0.00952174
-0.00372178
-0.0116605
-0.00466842
-0.0138884
-0.00569734
-0.0161892
-0.00683723
-0.0185485
-0.0081097
-0.0209519
-0.00952682
-0.0233828
-0.0110909
-0.0258219
-0.0127951
-0.0282459
-0.0146229
-0.0306271
-0.016548
-0.0329325
-0.0185326
-0.0351239
-0.0205252
-0.037158
-0.0224577
-0.0389901
-0.0242421
-0.0405815
-0.025768
-0.0419026
-0.0269097
-0.0429244
-0.0275248
-0.0274159
-0.0436628
-0.000333072
0.000591476
-0.00114839
0.000925191
-0.00232951
0.000761631
-0.00378606
0.000307963
-0.00544908
-0.00030493
-0.0072632
-0.00101385
-0.00918737
-0.0017976
-0.0111908
-0.00266499
-0.01325
-0.00363814
-0.0153456
-0.00474158
-0.0174601
-0.00599527
-0.0195752
-0.00741169
-0.0216712
-0.00899499
-0.0237255
-0.0107408
-0.0257125
-0.0126358
-0.0276031
-0.0146574
-0.0293636
-0.0167722
-0.0309545
-0.0189343
-0.0323289
-0.0210834
-0.0334314
-0.0231395
-0.0342042
-0.0249953
-0.0345982
-0.0265156
-0.0345636
-0.0275594
-0.027909
-0.0340705
-0.000294193
0.00088567
-0.0010256
0.00165659
-0.00208918
0.00182522
-0.00339802
0.0016168
-0.00487692
0.00117397
-0.00646657
0.000575791
-0.00811912
-0.000145052
-0.00979597
-0.000988145
-0.0114665
-0.00196757
-0.0131029
-0.00310526
-0.0146784
-0.00441971
-0.0161661
-0.00592397
-0.0175374
-0.00762376
-0.0187616
-0.00951647
-0.0198071
-0.0115903
-0.0206409
-0.0138237
-0.0212291
-0.0161839
-0.0215363
-0.0186271
-0.0215225
-0.0210972
-0.0211382
-0.0235238
-0.0203187
-0.0258148
-0.0189948
-0.0278395
-0.0171143
-0.0294399
-0.030498
-0.0145253
-0.000232323
0.00111799
-0.00082514
0.00224941
-0.00169272
0.0026928
-0.00275332
0.0026774
-0.00393149
0.00235214
-0.00516126
0.00180556
-0.00638557
0.00107926
-0.00755157
0.000177855
-0.00862164
-0.0008975
-0.00955098
-0.00217592
-0.0102993
-0.00367143
-0.010825
-0.00539821
-0.0110855
-0.00736324
-0.0110375
-0.00956454
-0.0106382
-0.0119897
-0.00984731
-0.0146145
-0.00862861
-0.0174026
-0.00695084
-0.0203049
-0.0047876
-0.0232604
-0.00211402
-0.0261974
0.00110566
-0.0290345
0.00494184
-0.0316757
0.00944854
-0.0339466
-0.0356896
0.0146402
-0.000156175
0.00127417
-0.000572025
0.00266526
-0.00118379
0.00330456
-0.0019175
0.00341112
-0.0026971
0.00313174
-0.00344933
0.00255779
-0.00410558
0.00173551
-0.00460548
0.000677755
-0.00488326
-0.000619727
-0.00488371
-0.00217547
-0.00454807
-0.00400707
-0.00381742
-0.00612886
-0.00263324
-0.00854742
-0.000938922
-0.0112589
0.00131791
-0.0142465
0.00418275
-0.0174794
0.00769174
-0.0209116
0.0118698
-0.024483
0.0167301
-0.0281207
0.0222755
-0.0317427
0.0285006
-0.0352596
0.035425
-0.0386001
0.0430012
-0.0415228
-0.0444566
0.0517681
-7.62005e-05
0.00135037
-0.000296911
0.00288597
-0.000617575
0.00362522
-0.000971421
0.00376496
-0.00128128
0.0034416
-0.00146643
0.00274295
-0.00144629
0.00171537
-0.00114193
0.000373397
-0.000474414
-0.00128724
0.000633013
-0.0032829
0.00225631
-0.00563037
0.00446894
-0.00834149
0.00733993
-0.0114184
0.0109305
-0.0148494
0.0152905
-0.0186065
0.0204548
-0.0226437
0.026441
-0.0268979
0.0332486
-0.0312905
0.0408593
-0.0357314
0.0492415
-0.040125
0.0583474
-0.0443655
0.0681575
-0.0484102
0.0785682
-0.0519335
-0.0558729
0.0899845
-2.42247e-06
0.00135279
-2.9604e-05
0.00291315
-4.86819e-05
0.0036443
3.75102e-06
0.00371253
0.000207782
0.00323757
0.000652654
0.00229808
0.00143207
0.000935944
0.00264113
-0.000835657
0.00437557
-0.00302168
0.00672804
-0.00563538
0.0097864
-0.00868872
0.0136298
-0.0121849
0.0183238
-0.0161124
0.023915
-0.0204407
0.0304267
-0.0251182
0.0378555
-0.0300724
0.0461702
-0.0352126
0.0553138
-0.0404341
0.065208
-0.0456256
0.0757598
-0.0506767
0.0868727
-0.0554783
0.098457
-0.0599945
0.110411
-0.0638876
-0.0682818
0.12282
5.81621e-05
0.00129463
0.000207566
0.00276375
0.000481602
0.00337026
0.000946213
0.00324792
0.00168779
0.00249598
0.00280589
0.00117999
0.00440768
-0.00066585
0.00660324
-0.00303122
0.00950085
-0.00591929
0.0132013
-0.00933585
0.0177916
-0.013279
0.0233372
-0.0177305
0.029875
-0.0226502
0.037407
-0.0279727
0.0458965
-0.0336076
0.0552679
-0.0394439
0.0654112
-0.0453558
0.0761893
-0.0512122
0.0874495
-0.0568859
0.0990342
-0.0622615
0.110801
-0.0672454
0.122601
-0.071794
0.134412
-0.0756984
-0.0798335
0.145963
0.00010309
0.00119154
0.000406958
0.00245988
0.000958132
0.00281909
0.00183309
0.00237297
0.00312944
0.00119963
0.00495938
-0.000649952
0.00744315
-0.00314963
0.0107008
-0.00628888
0.0148436
-0.0100621
0.0199634
-0.0144557
0.0261217
-0.0194372
0.0333391
-0.0249479
0.0415877
-0.0308988
0.0507875
-0.0371725
0.0608088
-0.043629
0.07148
-0.0501151
0.0826007
-0.0564765
0.0939587
-0.0625702
0.105347
-0.0682747
0.116587
-0.0735013
0.127537
-0.0781952
0.138088
-0.0823446
0.148275
-0.0858859
-0.0891638
0.157606
0.000136237
0.000578941
0.00139962
0.00269313
0.00457327
0.007166
0.0105996
0.0149923
0.0204376
0.0269881
0.0346424
0.0433357
0.0529378
0.0632596
0.0740675
0.0851035
0.0961089
0.106848
0.117127
0.126813
0.135829
0.144203
0.152078
0.159672
-0.0288689
-0.0386884
0.0357163
-0.0250614
-0.033875
0.0300675
-0.020366
-0.0264946
0.0217993
-0.0147458
-0.0163708
0.0107505
-0.00840199
-0.00347371
-0.00287007
-0.00134378
0.0119461
-0.0190044
0.00624244
0.0296869
-0.0372731
0.0141183
0.048881
-0.0567568
0.021688
0.0689097
-0.0764795
0.0285503
0.0881943
-0.0950566
0.0343285
0.105528
-0.111306
0.0384713
0.120551
-0.124694
0.0408818
0.132974
-0.135385
0.0423237
0.142271
-0.143713
0.0444885
0.146842
-0.149007
0.0493453
0.143661
-0.148518
0.0579646
0.12935
-0.13797
0.0698154
0.102105
-0.113956
0.0834102
0.0625713
-0.0761661
0.0974643
0.0131073
-0.0271614
0.110947
-0.0411514
0.0276684
0.122911
-0.0929424
0.0809791
0.132257
-0.133837
0.12449
0.13821
-0.159851
0.153899
0.140888
-0.172698
0.17002
0.141147
-0.17635
0.176091
0.139175
-0.17505
0.177023
0.134038
-0.175275
0.180411
0.125803
-0.182043
0.190278
0.117425
-0.188931
0.197308
0.113288
-0.176101
0.180238
0.115673
-0.127624
0.125239
0.123514
-0.0476435
0.0398027
0.133554
0.0408998
-0.0509398
0.142896
0.117015
-0.126357
0.15008
0.167738
-0.174921
0.154348
0.194752
-0.19902
0.154343
0.210301
-0.210296
0.149238
0.229758
-0.224654
0.141019
0.249454
-0.241234
0.134085
0.239022
-0.232088
0.13203
0.179949
-0.177894
0.135243
0.0701082
-0.0733206
0.14187
-0.042304
0.0356766
0.149007
-0.141174
0.134036
0.152962
-0.193175
0.18922
0.150855
-0.230074
0.232181
0.143621
-0.254469
0.261702
0.136168
-0.253755
0.261209
0.13399
-0.22054
0.222718
0.138107
-0.0958581
0.0917416
0.144594
-0.00271167
-0.00377614
0.147381
0.141033
-0.14382
0.144968
0.214564
-0.21215
0.140828
0.284661
-0.280522
0.139292
0.320399
-0.318863
0.140812
0.170821
-0.17234
0.14175
0.144233
-0.145171
0.140097
-0.123012
0.124664
-0.228547
0.230702
-0.0411504
-0.0402972
-0.0385345
-0.0364909
-0.0348619
-0.0301672
-0.0300111
-0.0212216
-0.0239649
-0.00951995
-0.0169029
0.00488416
-0.00904393
0.0218279
-0.000704397
0.0405414
0.00843101
0.0597743
0.0166716
0.0799537
0.0242984
0.0979013
0.0308773
0.113972
0.0366442
0.127207
0.0424802
0.136436
0.0496942
0.139628
0.0593477
0.134007
0.0714742
0.117224
0.0849757
0.0886035
0.098503
0.0490439
0.111141
0.000468956
0.122468
-0.0524777
0.131761
-0.102236
0.138299
-0.140375
0.141678
-0.16323
0.142158
-0.173178
0.140683
-0.174875
0.137668
-0.172036
0.132065
-0.169672
0.123262
-0.17324
0.113739
-0.179407
0.108313
-0.170675
0.110108
-0.12942
0.118324
-0.0558593
0.12953
0.0296935
0.140494
0.106051
0.14942
0.158812
0.155119
0.189053
0.156095
0.209325
0.151824
0.234029
0.144475
0.256803
0.138178
0.245319
0.136055
0.182072
0.138406
0.0677572
0.143656
-0.0475537
0.149501
-0.147019
0.152732
-0.196406
0.150317
-0.227659
0.14298
-0.247132
0.13544
-0.246215
0.133449
-0.218549
0.137789
-0.100198
0.144427
-0.00934999
0.147302
0.138158
0.144885
0.216981
0.140827
0.288719
0.139251
0.321975
0.141069
0.169002
0.142399
0.142903
0.140881
-0.121493
-0.226436
-0.0434865
-0.0404735
-0.0423314
-0.037646
-0.0400706
-0.032428
-0.0365206
-0.0247716
-0.0315628
-0.0144777
-0.0250734
-0.00160533
-0.0174972
0.0142518
-0.00888582
0.03193
2.58226e-05
0.0508627
0.0100998
0.0698797
0.019925
0.0880762
0.02945
0.104447
0.0389039
0.117753
0.0489321
0.126407
0.0602882
0.128272
0.0732646
0.121031
0.087295
0.103194
0.101135
0.0747633
0.113694
0.0364852
0.124474
-0.0103108
0.133399
-0.0614029
0.139944
-0.108781
0.143679
-0.14411
0.144593
-0.164145
0.143107
-0.171692
0.140122
-0.17189
0.136237
-0.168151
0.130475
-0.163909
0.121564
-0.164329
0.111212
-0.169055
0.104387
-0.16385
0.105197
-0.13023
0.113361
-0.0640237
0.12547
0.017585
0.137927
0.0935946
0.148552
0.148187
0.155709
0.181896
0.157822
0.207212
0.154616
0.237235
0.148285
0.263134
0.142599
0.251005
0.140306
0.184364
0.141688
0.0663754
0.145504
-0.0513706
0.149987
-0.151501
0.152502
-0.198921
0.149871
-0.225027
0.142529
-0.23979
0.134938
-0.238624
0.133079
-0.21669
0.137562
-0.104681
0.144339
-0.0161267
0.147339
0.135158
0.144929
0.219391
0.14092
0.292729
0.139295
0.3236
0.141443
0.166854
0.143211
0.141134
0.141836
-0.120118
-0.224365
-0.0352158
-0.0393282
-0.0355254
-0.0373364
-0.0347343
-0.0332191
-0.0326519
-0.026854
-0.0290983
-0.0180313
-0.0239104
-0.00679322
-0.0170726
0.00741397
-0.00884095
0.0236984
0.000213265
0.0418085
0.0112518
0.0588412
0.0228205
0.0765074
0.0348053
0.0924622
0.0472534
0.105305
0.060417
0.113244
0.074484
0.114205
0.0892164
0.106298
0.103763
0.0886473
0.116966
0.0615605
0.128023
0.0254278
0.136818
-0.0191062
0.143372
-0.0679566
0.147283
-0.112692
0.148342
-0.145169
0.146931
-0.162733
0.143701
-0.168462
0.139428
-0.167617
0.134781
-0.163504
0.129043
-0.158171
0.120503
-0.15579
0.109821
-0.158372
0.101649
-0.155678
0.10105
-0.129632
0.108661
-0.0716348
0.121362
0.00488416
0.13515
0.0798061
0.147401
0.135936
0.156042
0.173254
0.159451
0.203803
0.157525
0.239161
0.152325
0.268334
0.147203
0.256127
0.144627
0.186941
0.145015
0.0659866
0.147375
-0.0537303
0.150452
-0.154578
0.152248
-0.200717
0.149472
-0.222251
0.142205
-0.232524
0.134594
-0.231013
0.132807
-0.214903
0.137381
-0.109255
0.144303
-0.0230487
0.147481
0.131979
0.145105
0.221767
0.141124
0.29671
0.139442
0.325282
0.141937
0.164358
0.144185
0.138886
0.14296
-0.118893
-0.222332
-0.0170255
-0.036828
-0.018873
-0.035489
-0.019574
-0.0325181
-0.0189834
-0.0274446
-0.0169049
-0.0201098
-0.0132541
-0.010444
-0.00760917
0.00176902
-0.000535006
0.0166242
0.00954847
0.031725
0.0204734
0.0479163
0.0327588
0.064222
0.0460485
0.0791724
0.0601716
0.0911821
0.0750006
0.0984146
0.0902739
0.0989314
0.105413
0.0911588
0.119488
0.0745727
0.131503
0.0495456
0.140955
0.0159758
0.14786
-0.026011
0.152179
-0.0722764
0.153576
-0.114088
0.152099
-0.143692
0.148541
-0.159176
0.143807
-0.163728
0.13852
-0.16233
0.133249
-0.158233
0.127622
-0.152544
0.119812
-0.14798
0.109388
-0.147949
0.100163
-0.146452
0.0978352
-0.127304
0.104396
-0.0781956
0.11725
-0.00796993
0.132123
0.0649332
0.145869
0.12219
0.156006
0.163117
0.160865
0.198945
0.160418
0.239608
0.156441
0.272312
0.151837
0.260731
0.148915
0.189864
0.148273
0.0666286
0.149222
-0.0546802
0.150872
-0.156228
0.151938
-0.201782
0.149079
-0.219392
0.141958
-0.225403
0.13434
-0.223395
0.132562
-0.213124
0.137192
-0.113885
0.144284
-0.0301404
0.147709
0.128554
0.145415
0.224061
0.141457
0.300668
0.139706
0.327033
0.142553
0.161511
0.145317
0.136122
0.144248
-0.117824
-0.220332
0.0105629
-0.0327508
0.00678947
-0.0317155
0.00412218
-0.0298508
0.00287956
-0.0262019
0.00335198
-0.0205822
0.00576304
-0.012855
0.0105277
-0.00299566
0.0172886
0.00986334
0.0256295
0.0233841
0.0358714
0.0376743
0.0478361
0.0522573
0.0612064
0.0658021
0.0756443
0.0767443
0.0907327
0.0833262
0.105906
0.0837583
0.120412
0.0766528
0.133352
0.0616329
0.143961
0.0389363
0.151955
0.00798163
0.157257
-0.0313127
0.159549
-0.0745684
0.158576
-0.113115
0.154783
-0.139899
0.149332
-0.153725
0.143338
-0.157734
0.1373
-0.156292
0.131557
-0.15249
0.126045
-0.147032
0.11917
-0.141105
0.109587
-0.138366
0.0998381
-0.136703
0.095726
-0.123192
0.100752
-0.0832218
0.113173
-0.0203911
0.128797
0.0493094
0.143838
0.107149
0.155456
0.151499
0.161906
0.192495
0.163114
0.238401
0.160452
0.274973
0.156348
0.264835
0.153013
0.193199
0.151384
0.0682574
0.15099
-0.054286
0.151217
-0.156455
0.151535
-0.2021
0.148644
-0.216501
0.141734
-0.218494
0.134113
-0.215774
0.132275
-0.211287
0.136935
-0.118544
0.144235
-0.037441
0.147996
0.124793
0.145855
0.226202
0.141931
0.304592
0.1401
0.328864
0.143293
0.158318
0.146602
0.132813
0.145694
-0.116917
-0.218365
0.0463325
-0.0273151
0.0413786
-0.0267616
0.0370746
-0.0255467
0.033911
-0.0230384
0.0322485
-0.0189197
0.0323954
-0.013002
0.0345823
-0.00518252
0.0391983
0.00524735
0.0458688
0.0167136
0.0546878
0.0288553
0.0654968
0.0414483
0.0779742
0.0533247
0.091669
0.0630495
0.105982
0.0690133
0.120175
0.0695656
0.133429
0.0633985
0.144944
0.0501178
0.154152
0.0297284
0.160902
0.00123172
0.164772
-0.0351828
0.165205
-0.0750019
0.162074
-0.109984
0.156255
-0.134079
0.149221
-0.146691
0.142219
-0.150731
0.135674
-0.149747
0.129641
-0.146457
0.124201
-0.141592
0.11827
-0.135174
0.10999
-0.130086
0.100404
-0.127117
0.0947569
-0.117544
0.0978251
-0.0862899
0.109268
-0.031834
0.125145
0.0334326
0.141199
0.091094
0.154237
0.138462
0.162389
0.184342
0.165424
0.235366
0.164184
0.276212
0.160595
0.268425
0.156818
0.196976
0.154237
0.0708377
0.152613
-0.0526617
0.151453
-0.155295
0.150999
-0.201646
0.148118
-0.21362
0.141486
-0.211862
0.133858
-0.208145
0.131881
-0.20931
0.136549
-0.123212
0.144105
-0.0449973
0.14831
0.120589
0.146419
0.228092
0.142559
0.308451
0.140637
0.330787
0.144159
0.154796
0.148031
0.128941
0.147288
-0.116174
-0.21643
0.0839803
-0.0213109
0.0783415
-0.0211228
0.0730755
-0.0202807
0.06845
-0.0184129
0.0648743
-0.0153439
0.0627587
-0.0108864
0.0624467
-0.00487056
0.0644107
0.00328334
0.0686403
0.012484
0.0752371
0.0222585
0.0840774
0.032608
0.0948317
0.0425705
0.106981
0.0509003
0.119826
0.056168
0.132543
0.0568484
0.144294
0.0516476
0.154368
0.0400442
0.162302
0.0217945
0.167917
-0.00438352
0.170384
-0.03765
0.169016
-0.0736344
0.163929
-0.104896
0.156416
-0.126567
0.148162
-0.138437
0.140414
-0.142983
0.133561
-0.142894
0.127422
-0.140317
0.122035
-0.136205
0.11689
-0.130029
0.110141
-0.123337
0.101427
-0.118403
0.0947842
-0.110901
0.0957365
-0.0872423
0.105584
-0.0416817
0.121156
0.0178608
0.137868
0.0743825
0.152212
0.124118
0.162126
0.174428
0.167106
0.230386
0.167411
0.275907
0.164414
0.271422
0.160182
0.201208
0.15676
0.0742591
0.154022
-0.0499232
0.151542
-0.152816
0.150287
-0.20039
0.147447
-0.210781
0.141169
-0.205585
0.133533
-0.200509
0.131329
-0.207106
0.135974
-0.127857
0.143835
-0.0528588
0.14861
0.115814
0.147091
0.229612
0.143346
0.312195
0.141325
0.332808
0.145149
0.150972
0.149602
0.124488
0.149022
-0.115595
-0.214529
0.116972
-0.0154633
0.111415
-0.0155653
0.106119
-0.0149852
0.101203
-0.0134966
0.0969383
-0.011079
0.0936707
-0.00761883
0.0918193
-0.00301918
0.0915499
0.0035527
0.0932668
0.0107672
0.0972405
0.0182848
0.103493
0.0263556
0.111805
0.034258
0.121713
0.0409932
0.132525
0.045356
0.143402
0.0459714
0.153495
0.0415538
0.162116
0.0314233
0.168781
0.0151298
0.173086
-0.0086882
0.174011
-0.0385754
0.170827
-0.0704503
0.164002
-0.0980713
0.155166
-0.117731
0.146071
-0.129342
0.137845
-0.134757
0.130837
-0.135887
0.124755
-0.134235
0.119461
-0.130912
0.114881
-0.125449
0.109628
-0.118084
0.102356
-0.111131
0.0954585
-0.104004
0.0944283
-0.0862122
0.102223
-0.049476
0.116858
0.00322599
0.133794
0.0574461
0.149255
0.108656
0.160941
0.162742
0.168014
0.223314
0.170014
0.273907
0.167664
0.273773
0.163063
0.20581
0.158832
0.0784905
0.155139
-0.0462303
0.15143
-0.149107
0.149345
-0.198305
0.146567
-0.208003
0.140738
-0.199755
0.13311
-0.192881
0.13058
-0.204576
0.13516
-0.132436
0.143365
-0.0610637
0.14885
0.110328
0.147847
0.230616
0.144293
0.31575
0.14217
0.334931
0.146266
0.146877
0.151301
0.119453
0.150886
-0.115179
-0.212665
0.140805
-0.0103047
0.135866
-0.0106268
0.131117
-0.0102356
0.126757
-0.00913665
0.122969
-0.00729185
0.119856
-0.00450513
0.117719
-0.00088289
0.11663
0.00464232
0.117069
0.0103275
0.11916
0.0161941
0.123125
0.022391
0.128921
0.0284622
0.136269
0.0336446
0.144654
0.0369711
0.153342
0.037283
0.16151
0.033386
0.168478
0.0244555
0.173693
0.00991499
0.17638
-0.0113756
0.175476
-0.0376709
0.170469
-0.0654436
0.162187
-0.0897889
0.152421
-0.107966
0.142843
-0.119763
0.134385
-0.1263
0.127343
-0.128844
0.121437
-0.128328
0.116338
-0.125813
0.112147
-0.121258
0.108154
-0.114091
0.102632
-0.105609
0.0962762
-0.0976487
0.0937408
-0.0836767
0.0992264
-0.0549616
0.112317
-0.00986512
0.128973
0.0407909
0.14529
0.0923388
0.158658
0.149373
0.167829
0.214143
0.171648
0.270088
0.170149
0.275272
0.165306
0.210652
0.160437
0.0833596
0.155909
-0.0417019
0.151087
-0.144285
0.148143
-0.195361
0.145426
-0.205286
0.14015
-0.19448
0.132579
-0.18531
0.129623
-0.20162
0.134067
-0.13688
0.142633
-0.0696293
0.14898
0.103981
0.148655
0.23094
0.14539
0.319015
0.143177
0.337144
0.147508
0.142545
0.153119
0.113842
0.152867
-0.114927
-0.210845
0.153454
-0.00615285
0.149355
-0.00652782
0.145398
-0.00627899
0.141911
-0.00564912
0.139048
-0.00442929
0.136944
-0.00240092
0.135547
0.000514323
0.135093
0.00509591
0.135515
0.00990545
0.136962
0.0147476
0.13979
0.0195623
0.143978
0.0242746
0.149369
0.028254
0.155592
0.0307472
0.162119
0.0307561
0.168268
0.0272371
0.173351
0.0193726
0.176537
0.00672897
0.177495
-0.0123333
0.174713
-0.0348895
0.168139
-0.058869
0.158864
-0.080514
0.148651
-0.0977528
0.138954
-0.110066
0.130493
-0.117839
0.123491
-0.121842
0.117775
-0.122612
0.112923
-0.120962
0.108968
-0.117303
0.105831
-0.110955
0.102015
-0.101792
0.0968328
-0.0924668
0.0934689
-0.0803129
0.0966316
-0.0581243
0.107637
-0.0208702
0.12342
0.0250078
0.140257
0.0755011
0.15528
0.134351
0.166727
0.202696
0.172519
0.264296
0.17187
0.275921
0.166918
0.215604
0.161591
0.0886869
0.156392
-0.0365036
0.150604
-0.138497
0.146775
-0.191532
0.144069
-0.202579
0.139411
-0.189822
0.131968
-0.177866
0.128511
-0.198164
0.132702
-0.141071
0.141584
-0.0785111
0.148939
0.0966258
0.149478
0.230402
0.146621
0.321872
0.144339
0.339426
0.14888
0.138004
0.155042
0.107679
0.154955
-0.11484
-0.209079
0.15686
-0.00334009
0.153724
-0.00339175
0.150744
-0.0032996
0.148104
-0.003009
0.145919
-0.00224404
0.144351
-0.000833018
0.143281
0.001584
0.143483
0.00489384
0.144685
0.00870413
0.146745
0.0126869
0.14955
0.0167576
0.153179
0.0206461
0.157558
0.0238748
0.162452
0.0258529
0.167422
0.0257859
0.171894
0.0227656
0.175252
0.016014
0.177158
0.00482341
0.17587
-0.0110452
0.171432
-0.0304517
0.163856
-0.0512928
0.154356
-0.0710146
0.14439
-0.0877869
0.135063
-0.100739
0.126894
-0.10967
0.12004
-0.114987
0.11447
-0.117042
0.109832
-0.116325
0.105985
-0.113455
0.103242
-0.108212
0.100747
-0.0992965
0.097028
-0.0887479
0.0935334
-0.0768183
0.0946977
-0.0592886
0.103121
-0.0292936
0.11743
0.0106986
0.134062
0.0588699
0.150131
0.118281
0.163677
0.18915
0.171725
0.256249
0.172392
0.275253
0.167685
0.220312
0.162257
0.0941147
0.156506
-0.0307521
0.149971
-0.131963
0.145335
-0.186896
0.142577
-0.199821
0.138545
-0.18579
0.13129
-0.170612
0.127317
-0.194191
0.131173
-0.144928
0.140254
-0.0875916
0.148684
0.088196
0.150268
0.228817
0.14797
0.32417
0.145664
0.341732
0.150378
0.13329
0.157052
0.101005
0.157148
-0.114936
-0.207352
0.18515
-0.000238311
-0.188252
0.182426
-0.000667059
0.179798
-0.000672235
0.177096
-0.000306698
0.174493
0.000358835
0.172031
0.0016289
0.169974
0.00364074
0.168511
0.00635724
0.16769
0.00952477
0.167505
0.0128718
0.168085
0.0161778
0.169589
0.019142
0.172132
0.0213319
0.175778
0.0222075
0.180462
0.0211013
0.185926
0.0173019
0.191672
0.0102676
0.196941
-0.000445026
0.200763
-0.014868
0.202182
-0.03187
0.200724
-0.0498347
0.196657
-0.0669482
0.190633
-0.0817624
0.183383
-0.093489
0.175527
-0.101815
0.167511
-0.106971
0.159701
-0.109231
0.152185
-0.108809
0.144824
-0.106094
0.137951
-0.101339
0.131533
-0.0928782
0.124232
-0.0814467
0.115771
-0.0683576
0.10917
-0.0526872
0.108205
-0.0283296
0.11288
0.006024
0.120113
0.0516371
0.126827
0.111567
0.132299
0.183678
0.137189
0.251359
0.143447
0.268995
0.152326
0.211433
0.161644
0.0847964
0.166935
-0.0360425
0.1661
-0.131128
0.161805
-0.182601
0.156473
-0.194489
0.149574
-0.178891
0.140605
-0.161642
0.133423
-0.187008
0.1319
-0.143405
0.133977
-0.0896685
0.1358
0.0863723
0.134378
0.23024
0.131954
0.326593
0.132842
0.340843
0.139266
0.126866
0.146343
0.0939293
0.14602
-0.114613
-0.203734
0.195939
0.00196196
-0.198139
0.193889
0.00138262
0.191926
0.00129155
0.190036
0.00158284
0.188179
0.00221643
0.186512
0.00329556
0.185226
0.00492706
0.184482
0.00710059
0.184364
0.00964259
0.18492
0.0123159
0.186216
0.0148822
0.188308
0.0170499
0.191219
0.0184214
0.194912
0.0185139
0.199237
0.0167769
0.203862
0.0126769
0.208337
0.00579183
0.212038
-0.00414546
0.21413
-0.0169602
0.214028
-0.0317683
0.21151
-0.0473168
0.206804
-0.0622414
0.200412
-0.0753708
0.192954
-0.0860314
0.185014
-0.0938741
0.176985
-0.0989429
0.16916
-0.101406
0.161691
-0.10134
0.154391
-0.0987943
0.147411
-0.0943585
0.141088
-0.0865553
0.134528
-0.074887
0.126677
-0.0605064
0.119439
-0.0454487
0.116705
-0.0255954
0.120001
0.0027276
0.1269
0.0447383
0.134207
0.10426
0.140832
0.177053
0.147201
0.24499
0.15522
0.260975
0.165422
0.201231
0.175372
0.0748458
0.180516
-0.0411865
0.178861
-0.129473
0.173377
-0.177118
0.167107
-0.188218
0.15983
-0.171614
0.150406
-0.152219
0.142575
-0.179177
0.140418
-0.141248
0.142415
-0.0916659
0.144683
0.0841048
0.143759
0.231164
0.141745
0.328607
0.142873
0.339716
0.149697
0.120042
0.157358
0.0862679