/*--------------------------------*- C++ -*----------------------------------*\
| =========                 |                                                 |
| \\      /  F ield         | OpenFOAM: The Open Source CFD Toolbox           |
|  \\    /   O peration     | Version:  2512                                  |
|   \\  /    A nd           | Website:  www.openfoam.com                      |
|    \\/     M anipulation  |                                                 |
\*---------------------------------------------------------------------------*/
FoamFile
{
    version     2.0;
    format      ascii;
    arch        "LSB;label=32;scalar=64";
    class       surfaceScalarField;
    location    "6";
    object      phi;
}
// * * * * * * * * * * * * * * * * * * * * * * * * * * * * * * * * * * * * * //

dimensions      [0 3 -1 0 0 0 0];

oriented        oriented;

internalField   nonuniform List<scalar> 
26232
(
7.30595e-05
0.00113343
-0.00120649
0.000629438
0.00216161
-0.00271799
0.00191486
0.00203414
-0.00331956
0.00413407
0.000725197
-0.0029444
0.00747787
-0.00180658
-0.00153722
0.0121252
-0.00560076
0.000953418
0.0182288
-0.0106741
0.0045705
0.0258853
-0.0169972
0.00934066
0.0350986
-0.0244723
0.015259
0.0457447
-0.0329192
0.0222731
0.0575529
-0.0420746
0.0302664
0.0701115
-0.0516071
0.0390486
0.0829031
-0.0611479
0.0483563
0.0953659
-0.0703308
0.057868
0.10697
-0.0788365
0.0672319
0.117297
-0.0864313
0.0761044
0.126098
-0.0929931
0.0841927
0.13332
-0.0985177
0.0912951
0.139099
-0.103101
0.0973223
0.14369
-0.106907
0.102316
0.147409
-0.110097
0.106378
0.150502
-0.112899
0.109806
0.152971
-0.115097
0.112629
-0.117638
0.11567
0.154939
0.000105605
0.00102782
0.000797407
0.00146981
0.00237333
0.000458213
0.00508916
-0.00199063
0.00917057
-0.00588799
0.014797
-0.0112272
0.0220684
-0.0179455
0.0309649
-0.0258936
0.0413134
-0.0348208
0.0527778
-0.0443836
0.0648805
-0.0541773
0.0770575
-0.0637842
0.0887361
-0.0728264
0.0994188
-0.0810135
0.108756
-0.0881736
0.116588
-0.0942637
0.122951
-0.0993555
0.128035
-0.103602
0.132126
-0.107192
0.135529
-0.11031
0.13854
-0.113108
0.141351
-0.115711
0.144352
-0.118097
-0.120803
0.147516
0.000193903
0.000833919
0.001148
0.000515706
0.00318669
-0.00158048
0.00658755
-0.00539149
0.0115685
-0.010869
0.0182499
-0.0179085
0.0266077
-0.0263034
0.0364394
-0.0357253
0.0473597
-0.0457412
0.0588392
-0.0558631
0.070279
-0.065617
0.0811045
-0.0746097
0.0908559
-0.0825778
0.0992516
-0.0894092
0.106212
-0.0951339
0.111838
-0.0998901
0.116358
-0.103876
0.120057
-0.1073
0.123213
-0.110348
0.126061
-0.113159
0.128777
-0.115824
0.131484
-0.118418
0.134289
-0.120902
-0.123605
0.137091
0.000320183
0.000513735
0.00162632
-0.000790427
0.00424254
-0.0041967
0.00842962
-0.00957857
0.0143437
-0.016783
0.0219805
-0.0255453
0.0311323
-0.0354553
0.0413862
-0.0459791
0.0521741
-0.0565291
0.0628684
-0.0665574
0.0728922
-0.0756409
0.0818151
-0.0835326
0.0894075
-0.0901702
0.0956455
-0.0956472
0.10067
-0.100159
0.104722
-0.103942
0.108069
-0.107223
0.110958
-0.110189
0.113583
-0.112973
0.116088
-0.115664
0.118576
-0.118313
0.121115
-0.120956
0.12379
-0.123577
-0.126403
0.126588
0.000468439
4.52963e-05
0.00217788
-0.00249986
0.00542409
-0.00744291
0.0104062
-0.0145607
0.0171601
-0.023537
0.0255
-0.0338852
0.0350069
-0.0449621
0.0450857
-0.0560579
0.0550786
-0.0665221
0.0643951
-0.0758739
0.072615
-0.0838608
0.0795378
-0.0904553
0.085172
-0.0958045
0.0896807
-0.100156
0.0933065
-0.103785
0.0963047
-0.10694
0.0988981
-0.109816
0.101258
-0.112549
0.103507
-0.115222
0.105726
-0.117883
0.107972
-0.120559
0.110281
-0.123264
0.112695
-0.125992
-0.128858
0.11515
0.000628697
-0.0005834
0.00276254
-0.0046337
0.0066355
-0.0113159
0.0123359
-0.0202611
0.0197254
-0.0309264
0.0284047
-0.0425645
0.0377646
-0.0543221
0.0471134
-0.0654067
0.0558288
-0.0752374
0.0634764
-0.0835216
0.0698597
-0.0902441
0.0749996
-0.0955952
0.0790685
-0.0998734
0.0823098
-0.103397
0.0849702
-0.106445
0.0872583
-0.109228
0.0893301
-0.111888
0.0912926
-0.114511
0.0932155
-0.117144
0.0951443
-0.119812
0.0971102
-0.122525
0.0991357
-0.12529
0.101249
-0.128104
-0.131031
0.103422
0.000796143
-0.00137954
0.00334969
-0.00718725
0.00779479
-0.015761
0.0140597
-0.026526
0.0217949
-0.0386616
0.0303974
-0.051167
0.0391405
-0.0630651
0.0473505
-0.0736167
0.0545497
-0.0824367
0.060517
-0.0894889
0.0652648
-0.094992
0.0689649
-0.0992952
0.07186
-0.102768
0.0741934
-0.105731
0.0761673
-0.108419
0.0779298
-0.11099
0.0795796
-0.113538
0.0811793
-0.116111
0.082768
-0.118733
0.0843721
-0.121416
0.0860105
-0.124163
0.0876974
-0.126977
0.0894494
-0.129857
-0.132824
0.0912419
0.000964661
-0.0023442
0.00390812
-0.0101307
0.0088219
-0.0206748
0.0154344
-0.0331385
0.0231802
-0.0464075
0.0313078
-0.0592946
0.0390757
-0.0708329
0.0459307
-0.0804717
0.0515946
-0.0881005
0.0560474
-0.0939416
0.0594477
-0.0983923
0.0620364
-0.101884
0.064058
-0.10479
0.0657158
-0.107388
0.0671568
-0.10986
0.0684775
-0.112311
0.0697372
-0.114798
0.0709717
-0.117345
0.0722043
-0.119966
0.0734515
-0.122663
0.0747263
-0.125438
0.07604
-0.12829
0.0774041
-0.131221
-0.134228
0.078808
0.00112623
-0.00347043
0.00440264
-0.0134071
0.00963841
-0.0259105
0.0163431
-0.0398432
0.0237688
-0.0538331
0.031102
-0.0666278
0.0376844
-0.0774154
0.0431425
-0.0859298
0.0473936
-0.0923516
0.0505666
-0.0971146
0.0528953
-0.100721
0.0546288
-0.103617
0.0559775
-0.106139
0.0570941
-0.108505
0.0580777
-0.110844
0.0589878
-0.113221
0.059859
-0.115669
0.0607127
-0.118199
0.0615634
-0.120817
0.0624226
-0.123522
0.0632999
-0.126315
0.064204
-0.129195
0.065142
-0.132159
-0.135196
0.0661103
0.00127058
-0.00474102
0.00479653
-0.0169331
0.0101766
-0.0312906
0.016711
-0.0463776
0.0235341
-0.0606562
0.0298626
-0.0729563
0.0351874
-0.0827402
0.0393241
-0.0900666
0.0423461
-0.0953736
0.0444693
-0.0992378
0.0459471
-0.102199
0.0470018
-0.104672
0.047798
-0.106935
0.0484424
-0.109149
0.0489984
-0.1114
0.0495017
-0.113725
0.0499731
-0.11614
0.0504261
-0.118652
0.050871
-0.121261
0.0513163
-0.123968
0.0517697
-0.126769
0.0522386
-0.129663
0.0527283
-0.132648
-0.135709
0.0532416
0.00138726
-0.00612828
0.00505827
-0.0206041
0.0103913
-0.0366236
0.0165151
-0.0525014
0.0225267
-0.0666679
0.0277469
-0.0781765
0.0318423
-0.0868355
0.0347927
-0.093017
0.0367754
-0.0973563
0.0380413
-0.100504
0.0388275
-0.102985
0.0393157
-0.10516
0.0396262
-0.107245
0.0398301
-0.109353
0.0399669
-0.111536
0.040058
-0.113816
0.0401165
-0.116199
0.0401517
-0.118687
0.0401715
-0.121281
0.0401825
-0.123979
0.0401907
-0.126777
0.0402014
-0.129674
0.0402174
-0.132664
-0.135735
0.0402434
0.00147033
-0.0075986
0.00516983
-0.0243036
0.0102677
-0.0417215
0.0157828
-0.0580165
0.0208531
-0.0717382
0.024948
-0.0822714
0.0279025
-0.08979
0.0298192
-0.0949337
0.0309302
-0.0984673
0.0314845
-0.101058
0.0316857
-0.103186
0.0316734
-0.105148
0.0315317
-0.107104
0.0313064
-0.109128
0.0310219
-0.111252
0.0306915
-0.113485
0.0303238
-0.115831
0.029926
-0.118289
0.0295041
-0.120859
0.0290638
-0.123538
0.0286106
-0.126324
0.0281485
-0.129212
0.0276796
-0.132195
0.0272105
-0.135266
-0.00112617
0.000716706
0.00040946
-0.00367172
0.00161376
0.000931789
-0.00717196
0.00221818
0.00128207
-0.0113288
0.00263744
0.00151942
-0.0159475
0.00293569
0.00168294
-0.0209021
0.00315528
0.00179933
-0.0261064
0.00332042
0.00188397
-0.0314899
0.00344042
0.00194305
-0.0369805
0.00351402
0.00197661
-0.0424952
0.00353343
0.00198125
-0.0479343
0.00348713
0.00195192
-0.0531788
0.00336152
0.00188296
-0.0580891
0.00314182
0.00176851
-0.0625044
0.00281255
0.00160278
-0.0662425
0.00235783
0.00138027
-0.0691005
0.00176212
0.00109589
-0.070858
0.00101308
0.000744369
-0.071256
8.20257e-05
0.000316026
-0.0701338
-0.000956127
-0.000166098
-0.0672534
-0.00217931
-0.000701061
-0.062414
-0.00353469
-0.00130479
-0.0554821
-0.0049691
-0.00196275
-0.0464328
-0.00639074
-0.00265861
-0.00756227
-0.0355331
-0.00333737
-0.00102174
0.00173844
-0.00336382
0.00395585
-0.00661128
0.00546563
-0.0104862
0.00651236
-0.0147979
0.00724743
-0.0194163
0.00777366
-0.0242474
0.00815153
-0.0292127
0.00840568
-0.0342337
0.00853498
-0.0392224
0.0085222
-0.0440765
0.00834115
-0.0486759
0.00796094
-0.0528823
0.0073483
-0.0565388
0.00646897
-0.05947
0.0052891
-0.061483
0.00377511
-0.0623585
0.00188855
-0.0619032
-0.000373306
-0.0599324
-0.00292693
-0.0562375
-0.00587415
-0.0506413
-0.00913088
-0.0430213
-0.0125892
-0.0333343
-0.0160778
-0.019277
-0.0216195
-0.000784161
0.0025226
-0.00265404
0.00582573
-0.0053071
0.00811869
-0.00851449
0.00971974
-0.0120986
0.0108316
-0.0159224
0.0115975
-0.0198768
0.0121059
-0.0238673
0.0123962
-0.0278031
0.0124707
-0.0315884
0.0123075
-0.035118
0.0118707
-0.0382744
0.0111173
-0.0409268
0.0100007
-0.0429313
0.00847344
-0.0441309
0.00648874
-0.0443574
0.00400159
-0.0433995
0.000930688
-0.0412012
-0.00257162
-0.0374827
-0.00664547
-0.0321282
-0.0112287
-0.0250055
-0.0162536
-0.016028
-0.0215666
-0.00512912
-0.0269767
-0.0320863
0.00768015
-0.00046634
0.00298895
-0.00168312
0.00704251
-0.00349458
0.00993015
-0.00574285
0.011968
-0.00827634
0.0133651
-0.0109567
0.0142778
-0.0136606
0.0148098
-0.0162769
0.0150125
-0.0187013
0.0148952
-0.0208314
0.0144377
-0.0225625
0.0136018
-0.0237848
0.0123396
-0.0243824
0.0105983
-0.0242324
0.00832347
-0.0232059
0.00546215
-0.0211567
0.00195246
-0.0180306
-0.00219545
-0.0135868
-0.00701541
-0.00773254
-0.0124997
-0.000374233
-0.018587
0.00851806
-0.0251459
0.0189784
-0.0320269
0.0309315
-0.0389298
-0.0457776
0.0446228
-0.000135168
0.00312411
-0.00063687
0.00754421
-0.00149419
0.0107875
-0.00262919
0.013103
-0.00392961
0.0146655
-0.00526878
0.015617
-0.00651936
0.0160604
-0.00756044
0.0160536
-0.00827966
0.0156144
-0.00857211
0.0147301
-0.00833799
0.0133677
-0.00748038
0.011482
-0.00590314
0.00902106
-0.00350977
0.0059301
-0.00019993
0.00215231
0.00410928
-0.00235676
0.00953512
-0.00762129
0.0161739
-0.0136542
0.0240953
-0.0204212
0.0333351
-0.0278268
0.0438922
-0.035703
0.0556664
-0.0438012
0.0684918
-0.0517551
-0.059652
0.0823662
0.000146592
0.00297752
0.000297532
0.00739328
0.00035494
0.0107301
0.000324547
0.0131334
0.000272222
0.0147178
0.000298719
0.0155905
0.00052019
0.0158389
0.00105392
0.0155198
0.00201043
0.0146579
0.00349056
0.01325
0.0055858
0.0112725
0.00837967
0.00868813
0.0119487
0.00545201
0.016375
0.0015038
0.0217404
-0.00321304
0.0281145
-0.00873092
0.035575
-0.0150818
0.0441746
-0.0222538
0.0539302
-0.0301768
0.0647982
-0.0386947
0.0766722
-0.047577
0.0893258
-0.0564548
0.10253
-0.0649596
-0.0730602
0.115938
0.000335586
0.00264193
0.000976097
0.00675276
0.00177044
0.00993571
0.00267625
0.0122276
0.00371715
0.0136769
0.00496034
0.0143473
0.0064974
0.0143018
0.00842872
0.0135885
0.010853
0.0122336
0.0138625
0.0102406
0.017542
0.00759289
0.0219737
0.00425649
0.0271964
0.000229287
0.0333587
-0.00465847
0.0404882
-0.0103426
0.0486591
-0.0169017
0.0579124
-0.0243351
0.0682422
-0.0325836
0.0795711
-0.0415057
0.0917243
-0.0508479
0.104454
-0.0603067
0.117376
-0.0693768
0.130233
-0.0778164
-0.085221
0.142394
0.000415683
0.00222625
0.00132848
0.00583997
0.00259203
0.00867217
0.00414802
0.0106716
0.00599341
0.0118315
0.00816563
0.0121751
0.0107292
0.0117383
0.0137634
0.0105543
0.0173533
0.00864364
0.0215852
0.00600872
0.0265457
0.00263235
0.0323214
-0.00151922
0.0390459
-0.0064952
0.0467374
-0.01235
0.0555017
-0.0191069
0.065366
-0.026766
0.0762937
-0.0352628
0.0881543
-0.0444442
0.100708
-0.0540597
0.113608
-0.0637476
0.126446
-0.073145
0.138757
-0.0816873
0.150298
-0.0893578
-0.0953412
0.160418
0.000397133
0.00182912
0.00136768
0.00486942
0.00281644
0.00722341
0.00470084
0.0087872
0.00701392
0.00951844
0.00977972
0.00940929
0.0130482
0.00846974
0.0168898
0.00671278
0.0213905
0.00414297
0.0266439
0.00075529
0.0327673
-0.00349111
0.0398678
-0.00861967
0.0480444
-0.0146718
0.0573586
-0.0216641
0.0678213
-0.0295696
0.079349
-0.0382937
0.0917411
-0.0476549
0.104674
-0.0573775
0.11772
-0.0671053
0.130397
-0.0764243
0.142228
-0.0849762
0.152846
-0.0923054
0.162103
-0.0986149
-0.102922
0.169684
0.000310819
0.0015183
0.00118086
0.00399937
0.00259466
0.00580962
0.00455119
0.00683067
0.00706544
0.00700419
0.0101739
0.00630081
0.0139377
0.00470592
0.0184425
0.002208
0.0237948
-0.0012093
0.0301206
-0.0055705
0.037532
-0.0109026
0.0461308
-0.0172185
0.0559612
-0.0245022
0.0669818
-0.0326847
0.0790366
-0.0416245
0.0918391
-0.0510962
0.104979
-0.0607948
0.117959
-0.070358
0.130258
-0.0794042
0.141422
-0.0875883
0.151109
-0.094663
0.159242
-0.100439
0.165828
-0.105201
-0.108169
0.171075
0.000200321
0.00131798
0.000904821
0.00329487
0.0021891
0.00452534
0.00411215
0.00490761
0.00673541
0.00438094
0.0101354
0.00290085
0.0144095
0.000431826
0.0196763
-0.00305887
0.0260631
-0.0075961
0.0336856
-0.013193
0.0426171
-0.0198341
0.0528559
-0.0274572
0.06429
-0.0359363
0.0766762
-0.0450709
0.0896384
-0.0545867
0.102693
-0.0641512
0.115303
-0.0734047
0.126951
-0.0820054
0.13722
-0.0896732
0.14588
-0.096248
0.152892
-0.101675
0.158528
-0.106074
0.16295
-0.109623
-0.112025
0.166806
0.000111493
0.000688379
0.00189415
0.00385736
0.00670108
0.0105554
0.0155577
0.0218395
0.0295024
0.0385825
0.0490148
0.0606062
0.0730262
0.0858232
0.0984685
0.110422
0.12121
0.130499
0.138148
0.144216
0.148919
0.152651
0.155657
0.159301
-0.0188039
-0.0113961
-0.00533309
-0.00125146
-0.0113384
-0.00621406
0.0166782
-0.0109418
-0.00698792
0.0345606
-0.0102744
-0.007608
0.0519564
-0.00935335
-0.00804239
0.0684938
-0.00823915
-0.00829828
0.083909
-0.00701148
-0.00840376
0.0980449
-0.00574078
-0.00839508
0.110826
-0.00446984
-0.00831139
0.122237
-0.00322276
-0.00818766
0.132307
-0.00202225
-0.00804844
0.141094
-0.00087789
-0.00790866
0.148685
0.000181305
-0.00777243
0.155192
0.0011434
-0.00765018
0.160704
0.00205205
-0.00756451
0.16533
0.00289841
-0.00752388
0.169171
0.00369303
-0.00753435
0.172357
0.00439663
-0.00758307
0.174977
0.00506227
-0.00768164
0.177133
0.00566364
-0.0078203
0.178915
0.00622023
-0.00800171
0.180395
0.00675166
-0.00823156
0.181631
0.00728012
-0.00851608
0.182666
0.00782407
-0.00885946
0.183533
0.00839562
-0.00926239
0.184255
0.00900027
-0.00972255
0.184852
0.00963961
-0.0102365
0.185339
0.0103142
-0.0108016
0.185731
0.0110254
-0.0114169
0.186038
0.0117759
-0.0120832
0.186271
0.0125699
-0.0128031
0.186439
0.013413
-0.0135805
0.186548
0.0143115
-0.0144205
0.186605
0.0152725
-0.0153291
0.186614
0.0163039
-0.016313
0.186579
0.0174143
-0.01738
0.186505
0.0186127
-0.0185385
0.186394
0.0199092
-0.0197981
0.186249
0.0213148
-0.0211693
0.186071
0.0228416
-0.0226637
0.185862
0.0245027
-0.0242943
0.185625
0.026313
-0.0260756
0.18536
0.0282888
-0.0280237
0.185068
0.0304483
-0.0301568
0.184751
0.0328119
-0.0324949
0.184409
0.0354025
-0.0350608
0.184044
0.0382446
-0.0378789
0.183655
0.0413699
-0.0409809
0.183243
0.044797
-0.0443852
0.182808
0.0486037
-0.0481692
0.182353
0.0526997
-0.0522442
0.181873
0.0574868
-0.0570068
0.181377
0.0621005
-0.0616044
0.180849
0.0687041
-0.0681766
0.180314
0.0729527
-0.0724175
0.179742
0.0830674
-0.0824959
0.179157
0.085871
-0.085286
0.178551
0.100031
-0.0994242
0.177916
0.102968
-0.102333
0.119685
-0.119023
-0.00610067
-0.026915
0.00992555
-0.0273646
0.026439
-0.0274552
0.0429805
-0.0268158
0.0590898
-0.0254627
0.0744128
-0.0235622
0.0887062
-0.0213049
0.101828
-0.0188623
0.113717
-0.0163596
0.124364
-0.0138696
0.1338
-0.0114582
0.142093
-0.00917033
0.149309
-0.00703499
0.155519
-0.00506621
0.160821
-0.00325091
0.165305
-0.0015848
0.169029
-3.07709e-05
0.172166
0.00125912
0.174752
0.00247583
0.176897
0.00351886
0.178674
0.0044431
0.180156
0.00527015
0.181398
0.00603762
0.182444
0.00677796
0.183325
0.00751499
0.184063
0.00826208
0.184677
0.00902563
0.185182
0.00980924
0.185591
0.0106162
0.185916
0.0114509
0.186167
0.0123191
0.186352
0.0132278
0.186479
0.0141847
0.186553
0.0151982
0.18658
0.016277
0.186564
0.0174304
0.186508
0.0186685
0.186416
0.0200018
0.186289
0.0214416
0.18613
0.0230005
0.185941
0.024692
0.185722
0.0265312
0.185477
0.0285345
0.185204
0.0307206
0.184907
0.0331098
0.184584
0.0357253
0.184237
0.0385917
0.183866
0.0417409
0.183471
0.0451915
0.183053
0.0490221
0.182612
0.0531404
0.182145
0.0579538
0.18166
0.0625856
0.18114
0.0692235
0.180611
0.0734827
0.180039
0.0836391
0.179452
0.0864576
0.178832
0.10065
0.178184
0.103616
0.120374
0.0203337
-0.0395685
0.0337477
-0.0407786
0.0475854
-0.041293
0.0614596
-0.04069
0.0749727
-0.0389758
0.0878154
-0.0364049
0.0997806
-0.03327
0.110754
-0.0298362
0.120705
-0.0263106
0.129651
-0.0228147
0.137626
-0.0194339
0.144689
-0.0162328
0.1509
-0.0132459
0.156321
-0.0104875
0.161023
-0.00795295
0.165076
-0.00563805
0.168573
-0.00352727
0.171488
-0.00165604
0.173925
3.87653e-05
0.175995
0.00144836
0.177734
0.00270424
0.1792
0.00380474
0.180442
0.0047954
0.181499
0.00572076
0.182399
0.00661544
0.183161
0.00749978
0.183802
0.00838425
0.184337
0.0092749
0.184776
0.0101766
0.185132
0.0110948
0.185415
0.0120368
0.185632
0.0130106
0.185791
0.0140255
0.185899
0.0150908
0.185959
0.0162164
0.185977
0.0174124
0.185956
0.0186895
0.185899
0.0200588
0.185809
0.0215322
0.185687
0.0231225
0.185535
0.0248437
0.185355
0.026711
0.185148
0.0287413
0.184916
0.0309533
0.184658
0.0333677
0.184375
0.0360077
0.184069
0.0388981
0.183739
0.0420712
0.183385
0.0455453
0.183007
0.0494002
0.182606
0.0535412
0.182178
0.058382
0.18173
0.0630331
0.181247
0.0697074
0.18075
0.0739789
0.180208
0.0841818
0.17965
0.0870153
0.179048
0.101252
0.17842
0.104244
0.121059
0.0533685
-0.0483142
0.0631552
-0.0505653
0.0734531
-0.0515909
0.083852
-0.051089
0.0940324
-0.0491561
0.103755
-0.046127
0.11285
-0.0423651
0.12122
-0.0382064
0.128839
-0.0339298
0.135741
-0.0297166
0.141962
-0.0256547
0.147544
-0.021815
0.152537
-0.0182386
0.156987
-0.0149375
0.160939
-0.0119049
0.164427
-0.00912685
0.167495
-0.00659478
0.17016
-0.00432143
0.172481
-0.00228161
0.174406
-0.000476588
0.176088
0.00102144
0.177528
0.00236541
0.178766
0.00355701
0.179836
0.00465096
0.180759
0.00569194
0.181553
0.00670575
0.182232
0.00770585
0.182807
0.00870008
0.183289
0.00969423
0.183689
0.0106945
0.184017
0.011709
0.184281
0.0127472
0.184487
0.0138191
0.184642
0.0149353
0.184752
0.0161067
0.18482
0.0173442
0.184851
0.0186592
0.184846
0.0200634
0.184809
0.0215692
0.184742
0.0231898
0.184646
0.0249394
0.184523
0.0268337
0.184375
0.0288898
0.184202
0.0311265
0.184004
0.0335649
0.183784
0.0362283
0.18354
0.0391418
0.183273
0.0423379
0.182984
0.0458348
0.18267
0.0497136
0.182334
0.0538771
0.181971
0.0587456
0.181588
0.0634164
0.181167
0.0701281
0.180733
0.0744129
0.180249
0.084666
0.17975
0.0875139
0.179198
0.101804
0.178622
0.10482
0.121704
0.0868921
-0.0528401
0.0925097
-0.0561828
0.0987651
-0.0578463
0.10526
-0.0575834
0.111779
-0.0556754
0.118176
-0.0525238
0.124317
-0.0485068
0.130106
-0.0439955
0.135494
-0.0393171
0.140477
-0.0347001
0.145085
-0.0302628
0.149328
-0.0260575
0.153221
-0.0221317
0.156785
-0.018502
0.160042
-0.0151614
0.163008
-0.0120926
0.165694
-0.00928103
0.168094
-0.00672187
0.170228
-0.00441568
0.172125
-0.00237303
0.173716
-0.000569465
0.175136
0.000945299
0.176374
0.00231857
0.177461
0.00356414
0.178415
0.00473825
0.179248
0.00587217
0.179973
0.00698112
0.180599
0.00807412
0.181136
0.00915744
0.181593
0.0102375
0.181979
0.0113227
0.182303
0.0124235
0.182571
0.0135511
0.182789
0.0147168
0.182963
0.0159326
0.183097
0.0172102
0.183195
0.0185615
0.183259
0.0199991
0.183293
0.0215356
0.183298
0.0231848
0.183276
0.0249611
0.183229
0.0268806
0.183159
0.0289607
0.183065
0.0312204
0.182949
0.033681
0.182811
0.0363661
0.182652
0.0393011
0.182471
0.0425187
0.182269
0.046037
0.182044
0.0499385
0.181798
0.0541233
0.181524
0.0590189
0.181232
0.0637088
0.180902
0.0704583
0.180558
0.0747565
0.180162
0.0850624
0.179753
0.087923
0.179281
0.102276
0.17879
0.105311
0.122276
0.116669
-0.0535708
0.118244
-0.0577576
0.120454
-0.0600559
0.123049
-0.0601785
0.125967
-0.0585937
0.129163
-0.05572
0.132539
-0.0518832
0.135995
-0.0474506
0.139448
-0.0427706
0.142838
-0.0380904
0.146134
-0.0335588
0.149324
-0.0292472
0.152377
-0.0251851
0.155277
-0.0214013
0.158015
-0.0178996
0.160588
-0.0146656
0.162987
-0.0116797
0.165196
-0.00893152
0.167206
-0.00642523
0.16901
-0.00417694
0.170635
-0.00219511
0.172013
-0.000432524
0.173267
0.00106485
0.174382
0.00244933
0.175374
0.00374608
0.176256
0.00499048
0.177036
0.00620064
0.177724
0.0073866
0.178326
0.00855485
0.178852
0.00971139
0.17931
0.0108649
0.179707
0.0120263
0.180051
0.0132075
0.180347
0.014421
0.1806
0.0156793
0.180815
0.016995
0.180996
0.0183808
0.181146
0.0198496
0.181266
0.0214147
0.181361
0.0230902
0.181431
0.0248911
0.181478
0.0268334
0.181504
0.0289351
0.181509
0.0312154
0.181494
0.0336958
0.18146
0.0364004
0.181407
0.0393544
0.181334
0.0425913
0.181242
0.0461287
0.18113
0.0500511
0.180998
0.0542552
0.18084
0.0591766
0.180665
0.0638841
0.180452
0.0706709
0.180227
0.0749812
0.179948
0.0853418
0.179658
0.0882126
0.179299
0.102634
0.178925
0.105686
0.122741
0.140081
-0.0512587
0.138236
-0.0559125
0.136873
-0.0586928
0.136017
-0.0593218
0.135789
-0.0583658
0.136221
-0.0561519
0.137238
-0.0529004
0.138738
-0.0489507
0.140613
-0.0446452
0.142751
-0.0402286
0.145055
-0.0358628
0.147458
-0.0316508
0.149916
-0.0276424
0.152366
-0.0238521
0.154767
-0.0203007
0.157091
-0.0169894
0.159314
-0.0139029
0.161411
-0.0110284
0.163358
-0.00837183
0.165136
-0.00595507
0.166739
-0.0037981
0.168203
-0.00189671
0.169445
-0.000177146
0.170607
0.00128774
0.17165
0.00270337
0.172589
0.00405109
0.173435
0.0053547
0.174194
0.00662712
0.174874
0.00787537
0.175481
0.0091046
0.176022
0.0103232
0.176506
0.0115425
0.176939
0.012775
0.177326
0.0140338
0.177673
0.0153323
0.177984
0.0166838
0.178263
0.0181015
0.178514
0.0195991
0.178738
0.0211902
0.178939
0.0228893
0.179118
0.0247119
0.179277
0.0266743
0.179418
0.0287945
0.179541
0.0310925
0.179647
0.0335897
0.179737
0.0363107
0.17981
0.0392808
0.179867
0.0425341
0.179908
0.0460877
0.179931
0.0500283
0.179938
0.0542489
0.17992
0.0591939
0.179888
0.0639164
0.17982
0.0707393
0.179741
0.0750595
0.179608
0.0854756
0.179467
0.088353
0.179252
0.102849
0.179026
0.105912
0.123065
0.155904
-0.0467446
0.151546
-0.051554
0.147434
-0.0545811
0.143922
-0.0558094
0.141288
-0.0557318
0.139593
-0.0544574
0.138782
-0.052089
0.138763
-0.0489316
0.139413
-0.0452956
0.140591
-0.041406
0.142159
-0.0374311
0.144002
-0.0334939
0.146032
-0.0296724
0.148183
-0.0260032
0.150379
-0.0224961
0.152563
-0.0191743
0.154699
-0.016038
0.15675
-0.0130796
0.158685
-0.0103071
0.160479
-0.00774887
0.162117
-0.00543661
0.1636
-0.00337903
0.164964
-0.00154189
0.166147
0.000105303
0.167257
0.00159319
0.168265
0.00304277
0.169187
0.00443329
0.170029
0.00578521
0.170796
0.00710813
0.171495
0.00840575
0.172132
0.00968587
0.172715
0.0109598
0.173249
0.0122406
0.173741
0.013542
0.174195
0.0148779
0.174617
0.0162623
0.175009
0.0177091
0.175376
0.0192324
0.17572
0.0208464
0.176043
0.022566
0.176348
0.0244068
0.176637
0.0263858
0.17691
0.0285213
0.177169
0.0308332
0.177415
0.0333437
0.177648
0.0360773
0.177869
0.0390598
0.178078
0.0423258
0.178273
0.0458919
0.178454
0.0498472
0.178623
0.0540808
0.17877
0.0590465
0.178906
0.0637804
0.179008
0.0706374
0.179104
0.0749638
0.179144
0.0854354
0.179182
0.0883152
0.179141
0.10289
0.179095
0.105959
0.123215
0.163885
-0.0409459
0.158073
-0.0457418
0.152326
-0.0488342
0.14718
-0.050663
0.143008
-0.0515601
0.139881
-0.0513305
0.137784
-0.0499918
0.136663
-0.0478103
0.136403
-0.0450352
0.136854
-0.0418575
0.137866
-0.0384428
0.139297
-0.0349255
0.141026
-0.0314015
0.142958
-0.0279352
0.145017
-0.0245551
0.147126
-0.0212826
0.149226
-0.018138
0.151273
-0.0151275
0.153232
-0.0122656
0.155069
-0.00958649
0.156767
-0.00713431
0.15832
-0.00493202
0.159745
-0.00296646
0.161037
-0.00118651
0.162209
0.000420654
0.163304
0.00194821
0.164313
0.00342391
0.165249
0.00484959
0.166115
0.00624207
0.166917
0.00760372
0.167661
0.00894148
0.168354
0.0102666
0.169003
0.0115924
0.169612
0.012933
0.170186
0.0143031
0.170731
0.0157172
0.171251
0.0171897
0.171748
0.0187352
0.172226
0.0203685
0.172687
0.0221047
0.173134
0.02396
0.173568
0.0259516
0.173992
0.0280981
0.174405
0.0304199
0.174809
0.0329393
0.175205
0.0356813
0.175593
0.0386717
0.175973
0.0419461
0.176345
0.0455203
0.176706
0.0494861
0.177059
0.0537279
0.177394
0.0587108
0.177723
0.0634513
0.178021
0.0703399
0.178317
0.0746677
0.178559
0.0851938
0.178803
0.0880709
0.178968
0.102725
0.179131
0.105796
0.123158
0.165002
-0.0348725
0.158696
-0.0394361
0.152348
-0.042486
0.146545
-0.0448603
0.141623
-0.0466384
0.137675
-0.0473824
0.134768
-0.0470844
0.132902
-0.0459448
0.131992
-0.0441246
0.131905
-0.0417705
0.132493
-0.0390306
0.133605
-0.0360384
0.135105
-0.0329007
0.136869
-0.0296996
0.13881
-0.0264962
0.140861
-0.0233334
0.142951
-0.0202275
0.145024
-0.0172011
0.147036
-0.0142772
0.148945
-0.0114961
0.150727
-0.00891552
0.152371
-0.00657616
0.153881
-0.00447718
0.155282
-0.00258721
0.156538
-0.000835191
0.157723
0.000763188
0.158836
0.00231071
0.159879
0.00380679
0.160856
0.00526526
0.161772
0.00668722
0.162635
0.00807906
0.163449
0.00945187
0.164223
0.0108191
0.16496
0.0121954
0.165667
0.013596
0.166349
0.015036
0.167008
0.0165303
0.167649
0.0180941
0.168275
0.0197424
0.168889
0.021491
0.169493
0.0233563
0.170088
0.025356
0.170678
0.0275088
0.171262
0.0298357
0.171842
0.0323591
0.172419
0.0351045
0.172993
0.0380978
0.173564
0.0413754
0.174132
0.0449524
0.174694
0.0489238
0.175253
0.0531685
0.1758
0.0581642
0.176346
0.0629053
0.176863
0.0698225
0.177386
0.0741452
0.177855
0.0847241
0.178334
0.0875925
0.178733
0.102325
0.179135
0.105394
0.122861
0.161244
-0.0293104
0.155088
-0.0332807
0.148773
-0.0361705
0.142933
-0.0390208
0.137758
-0.0414626
0.133411
-0.0430354
0.130047
-0.0437213
0.127706
-0.043603
0.126336
-0.0427554
0.125845
-0.0412789
0.126099
-0.0392846
0.126951
-0.036891
0.128261
-0.03421
0.1299
-0.0313391
0.131764
-0.02836
0.133767
-0.0253367
0.135849
-0.0223091
0.137955
-0.0193076
0.14004
-0.0163616
0.142051
-0.0135072
0.14395
-0.0108146
0.145716
-0.00834253
0.14735
-0.00611114
0.148858
-0.00409501
0.150272
-0.0022489
0.151548
-0.000512835
0.152776
0.00108242
0.153941
0.00264133
0.155042
0.00416514
0.156084
0.00564439
0.157076
0.0070872
0.158024
0.00850434
0.158933
0.00990948
0.159811
0.0113179
0.160662
0.0127451
0.161491
0.0142069
0.162303
0.0157187
0.1631
0.0172962
0.163888
0.018955
0.164668
0.0207111
0.165443
0.0225815
0.166214
0.024584
0.166985
0.026738
0.167756
0.0290645
0.168529
0.0315864
0.169304
0.0343296
0.170082
0.03732
0.170862
0.0405952
0.171646
0.044169
0.172429
0.0481404
0.173216
0.0523816
0.173995
0.057385
0.174781
0.0621197
0.175542
0.0690618
0.176315
0.0733716
0.177039
0.0840006
0.177777
0.0868538
0.17844
0.101663
0.179109
0.104725
0.122294
0.154904
-0.024913
0.149279
-0.0276559
0.143747
-0.0306383
0.138468
-0.0337424
0.133542
-0.0365365
0.12921
-0.0387028
0.12564
-0.0401514
0.122929
-0.0408918
0.121115
-0.0409418
0.120158
-0.0403219
0.119967
-0.0390932
0.120423
-0.0373472
0.121401
-0.0351882
0.12278
-0.0327178
0.124451
-0.0300312
0.126327
-0.0272123
0.128336
-0.0243181
0.130416
-0.0213882
0.132512
-0.0184571
0.134575
-0.0155706
0.136561
-0.0128008
0.138439
-0.0102201
0.140197
-0.00786892
0.14184
-0.00573806
0.143373
-0.00378207
0.144827
-0.00196652
0.14615
-0.00024098
0.147451
0.00134069
0.148689
0.00292728
0.149872
0.00446108
0.151006
0.00595264
0.152099
0.00741143
0.153157
0.00885143
0.154187
0.0102883
0.155194
0.0117384
0.156183
0.0132178
0.157159
0.0147427
0.158126
0.0163292
0.159087
0.0179934
0.160047
0.0197519
0.161006
0.0216219
0.161968
0.0236218
0.162935
0.0257711
0.163908
0.0280913
0.164889
0.0306056
0.165878
0.0333404
0.166877
0.0363216
0.167884
0.0395879
0.168901
0.0431519
0.169925
0.0471168
0.170959
0.0513474
0.171991
0.0563529
0.173038
0.0610729
0.174064
0.0680359
0.175112
0.0723233
0.176113
0.0829994
0.177137
0.0858297
0.178091
0.100709
0.179054
0.103762
0.121425
0.198524
-0.0206765
-0.202761
0.195148
-0.02428
0.191678
-0.0271683
0.187922
-0.0299859
0.183947
-0.0325614
0.179913
-0.0346693
0.175959
-0.036197
0.172173
-0.0371061
0.168631
-0.0373994
0.165404
-0.0370955
0.162549
-0.0362378
0.160096
-0.0348945
0.158055
-0.0331467
0.156414
-0.0310771
0.155148
-0.0287659
0.154222
-0.0262861
0.153597
-0.0236923
0.153231
-0.0210226
0.153086
-0.0183119
0.153123
-0.0156081
0.153304
-0.0129818
0.15359
-0.0105059
0.153945
-0.00822379
0.154339
-0.00613219
0.15475
-0.00419309
0.155162
-0.0023788
0.155596
-0.000674955
0.155974
0.000963321
0.156348
0.0025527
0.156709
0.00410065
0.157054
0.00560703
0.157383
0.00708238
0.157695
0.00853984
0.157989
0.00999426
0.158266
0.0114614
0.158527
0.012957
0.158772
0.0144971
0.159004
0.0160976
0.159223
0.0177746
0.15943
0.0195445
0.159627
0.0214247
0.159816
0.0234335
0.159996
0.0255905
0.16017
0.0279173
0.160339
0.030437
0.160503
0.033176
0.160664
0.0361604
0.160823
0.0394289
0.160981
0.0429942
0.161139
0.0469593
0.161296
0.0511903
0.161456
0.0561929
0.161614
0.0609146
0.161778
0.0678716
0.161942
0.0721592
0.162103
0.0828387
0.162283
0.0856493
0.162432
0.100561
0.162617
0.103576
0.12128
0.207635
-0.0175158
-0.210796
0.204349
-0.020994
0.201082
-0.0239014
0.197593
-0.0264971
0.193898
-0.0288663
0.190126
-0.0308975
0.186394
-0.0324646
0.182787
-0.033499
0.179376
-0.033988
0.176226
-0.0339456
0.173391
-0.0334031
0.170906
-0.0324098
0.168786
-0.0310264
0.167027
-0.0293185
0.165615
-0.0273531
0.164523
-0.0251946
0.163724
-0.0228936
0.163187
-0.0204854
0.162879
-0.0180038
0.162768
-0.0154972
0.16282
-0.0130339
0.162999
-0.0106847
0.163269
-0.00849332
0.163598
-0.00646132
0.163966
-0.00456093
0.164353
-0.00276613
0.164736
-0.00105848
0.165115
0.000585038
0.165485
0.00218238
0.165846
0.00373935
0.166195
0.00525817
0.16653
0.00674811
0.166848
0.00822139
0.16715
0.00969209
0.167436
0.0111753
0.167707
0.0126865
0.167962
0.0142413
0.168205
0.0158554
0.168434
0.0175448
0.168653
0.0193259
0.168862
0.021216
0.169062
0.0232334
0.169255
0.0253979
0.169441
0.0277308
0.169623
0.0302556
0.1698
0.0329985
0.169975
0.0359858
0.170147
0.039256
0.170319
0.0428223
0.170492
0.046787
0.170664
0.0510178
0.17084
0.0560175
0.171015
0.0607392
0.171195
0.0676916
0.171378
0.0719761
0.171555
0.082662