/*--------------------------------*- C++ -*----------------------------------*\
| =========                 |                                                 |
| \\      /  F ield         | OpenFOAM: The Open Source CFD Toolbox           |
|  \\    /   O peration     | Version:  2512                                  |
|   \\  /    A nd           | Website:  www.openfoam.com                      |
|    \\/     M anipulation  |                                                 |
\*---------------------------------------------------------------------------*/
FoamFile
{
    version     2.0;
    format      ascii;
    arch        "LSB;label=32;scalar=64";
    class       surfaceScalarField;
    location    "42.5";
    object      phi;
}
// * * * * * * * * * * * * * * * * * * * * * * * * * * * * * * * * * * * * * //

dimensions      [0 3 -1 0 0 0 0];

oriented        oriented;

internalField   nonuniform List<scalar> 
26232
(
5.26777e-05
0.000967046
-0.00101972
0.000368654
0.00193333
-0.0022493
0.00108699
0.00206916
-0.0027875
0.0023388
0.00142219
-0.002674
0.00425467
2.26141e-05
-0.00193848
0.00696929
-0.00211569
-0.000598935
0.010614
-0.00498101
0.00133632
0.0153115
-0.00856393
0.00386639
0.0211629
-0.0128434
0.00699205
0.0282332
-0.0177793
0.010709
0.0365379
-0.0233066
0.015002
0.0460318
-0.0293332
0.0198393
0.0566041
-0.0357421
0.0251698
0.0680799
-0.0423979
0.030922
0.0802293
-0.0491553
0.0370059
0.0927815
-0.0558692
0.0433169
0.105445
-0.0624051
0.0497413
0.11793
-0.0686491
0.0561642
0.129969
-0.0745114
0.0624728
0.141338
-0.079947
0.0685778
0.151861
-0.0849041
0.0743809
0.161433
-0.0894784
0.0799066
0.169906
-0.0934511
0.0849778
-0.0974468
0.090387
0.176966
8.76074e-05
0.000879439
0.000540951
0.00147998
0.00153021
0.0010799
0.00321536
-0.000262958
0.00575378
-0.00251581
0.00929393
-0.00565583
0.013969
-0.00965606
0.019878
-0.0144729
0.0270687
-0.0200341
0.0355212
-0.0262318
0.0451373
-0.0329228
0.0557404
-0.0399362
0.0670839
-0.0470856
0.0788709
-0.0541849
0.0907789
-0.0610633
0.102489
-0.0675795
0.113716
-0.0736313
0.124228
-0.0791611
0.133872
-0.0841561
0.142572
-0.0886473
0.150354
-0.0926858
0.157271
-0.0963951
0.163546
-0.0997263
-0.103204
0.169304
0.000142581
0.000736857
0.000785557
0.000837006
0.00212712
-0.000261662
0.0043519
-0.00248774
0.00763146
-0.00579537
0.0121115
-0.0101359
0.0178925
-0.015437
0.0250061
-0.0215866
0.0333969
-0.0284249
0.042913
-0.0357478
0.0533115
-0.0433213
0.0642789
-0.0509036
0.0754622
-0.0582689
0.086506
-0.0652288
0.0970906
-0.0716479
0.106963
-0.077452
0.115959
-0.0826277
0.124014
-0.0872159
0.131156
-0.0912981
0.137491
-0.0949824
0.143184
-0.0983782
0.148403
-0.101614
0.153372
-0.104696
-0.107994
0.158162
0.000219385
0.000517472
0.00110674
-5.03496e-05
0.00288056
-0.00203548
0.00573786
-0.00534504
0.00984349
-0.009901
0.0153056
-0.015598
0.0221472
-0.0222786
0.0302831
-0.0297226
0.0395128
-0.0376546
0.0495332
-0.0457682
0.0599717
-0.0537599
0.0704321
-0.061364
0.0805437
-0.0683804
0.0900046
-0.0746897
0.0986128
-0.080256
0.106278
-0.0851176
0.11302
-0.0893689
0.118941
-0.0931377
0.124206
-0.0965624
0.128996
-0.0997732
0.133493
-0.102875
0.137839
-0.10596
0.142174
-0.109031
-0.112327
0.146507
0.000317481
0.000199992
0.00149951
-0.00123238
0.00377156
-0.00430753
0.00732186
-0.00889534
0.0122753
-0.0148545
0.0186577
-0.0219804
0.0263664
-0.0299873
0.0351621
-0.0385183
0.0446897
-0.0471822
0.0545253
-0.0556038
0.0642376
-0.0634721
0.0734491
-0.0705756
0.0818835
-0.0768148
0.0893902
-0.0821964
0.0959452
-0.086811
0.10163
-0.0908023
0.106596
-0.0943354
0.111028
-0.0975694
0.115105
-0.100639
0.118979
-0.103647
0.122767
-0.106663
0.126542
-0.109735
0.130369
-0.112858
-0.116183
0.134225
0.000434668
-0.000234676
0.00195148
-0.00274919
0.0047626
-0.00711865
0.00901661
-0.0131493
0.0147559
-0.0205938
0.0218772
-0.0291017
0.0301173
-0.0382274
0.0390791
-0.0474801
0.0482926
-0.0563957
0.0572935
-0.0646046
0.0656968
-0.0718754
0.0732468
-0.0781256
0.0798349
-0.0834029
0.0854861
-0.0878476
0.0903239
-0.0916488
0.0945248
-0.0950032
0.0982757
-0.0980863
0.101743
-0.101037
0.105057
-0.103953
0.108309
-0.106899
0.111558
-0.109912
0.114837
-0.113014
0.118182
-0.116203
-0.119558
0.121557
0.000567418
-0.000802093
0.00244363
-0.00462541
0.00579971
-0.0104747
0.0107057
-0.0180553
0.0170767
-0.0269648
0.0246457
-0.0366706
0.0329864
-0.0465681
0.0415863
-0.05608
0.0499437
-0.0647531
0.0576562
-0.0723171
0.0644751
-0.0786944
0.0703171
-0.0839676
0.0752383
-0.0883241
0.0793871
-0.0919965
0.0829516
-0.0952133
0.0861162
-0.0981679
0.0890355
-0.101006
0.0918238
-0.103825
0.0945583
-0.106688
0.0972872
-0.109628
0.100039
-0.112665
0.10283
-0.115805
0.105676
-0.119048
-0.12243
0.108547
0.000710691
-0.00151278
0.00295047
-0.00686519
0.00681498
-0.0143392
0.0122539
-0.0234943
0.0190196
-0.0337304
0.0266746
-0.0443256
0.0346686
-0.0545621
0.0424542
-0.0638656
0.0495945
-0.0718934
0.0558275
-0.0785501
0.0610749
-0.0839418
0.0654072
-0.0882999
0.068986
-0.0919029
0.0720055
-0.095016
0.0746485
-0.0978562
0.0770621
-0.100581
0.0793518
-0.103295
0.0815864
-0.10606
0.083808
-0.108909
0.0860409
-0.111861
0.0882988
-0.114923
0.0905886
-0.118095
0.0929176
-0.121377
-0.124777
0.0952642
0.00085749
-0.00237027
0.00344038
-0.00944808
0.00773137
-0.0186302
0.0135234
-0.0292863
0.0203923
-0.0405993
0.0277604
-0.0516938
0.0350264
-0.0618281
0.0416979
-0.0705371
0.0474738
-0.0776693
0.0522582
-0.0833345
0.0561194
-0.087803
0.0592236
-0.0914041
0.0617696
-0.0944488
0.0639411
-0.0971876
0.0658837
-0.0997988
0.0676989
-0.102397
0.0694516
-0.105048
0.07118
-0.107788
0.0729061
-0.110635
0.0746419
-0.113597
0.0763941
-0.116675
0.0781663
-0.119867
0.0799607
-0.123171
-0.126579
0.0817634
0.000998822
-0.0033691
0.00387763
-0.0123269
0.00847102
-0.0232236
0.0143939
-0.0352092
0.021062
-0.0472674
0.0278189
-0.0584506
0.0340954
-0.0681046
0.0395219
-0.0759636
0.0439578
-0.0821052
0.0474509
-0.0868276
0.0501634
-0.0905155
0.0522973
-0.093538
0.0540413
-0.0961928
0.0555437
-0.09869
0.0569072
-0.101162
0.0581961
-0.103686
0.0594474
-0.106299
0.0606817
-0.109022
0.0619106
-0.111864
0.0631405
-0.114827
0.0643751
-0.117909
0.0656159
-0.121108
0.0668624
-0.124418
-0.127824
0.0681072
0.00112486
-0.00449396
0.00422732
-0.0154293
0.00896731
-0.0279636
0.0147827
-0.0410245
0.0209746
-0.0534594
0.0268831
-0.0643591
0.0320391
-0.0732606
0.0362251
-0.0801495
0.0394447
-0.0853248
0.0418436
-0.0892265
0.0436244
-0.0922963
0.0449832
-0.0948968
0.0460761
-0.0972857
0.0470114
-0.0996253
0.0478561
-0.102007
0.0486484
-0.104478
0.049409
-0.10706
0.050149
-0.109763
0.0508752
-0.11259
0.0515913
-0.115543
0.0522994
-0.118617
0.0529999
-0.121808
0.0536901
-0.125108
-0.128501
0.0543665
0.00122873
-0.00572268
0.00446312
-0.0186637
0.00917616
-0.0326766
0.0146556
-0.046504
0.0201534
-0.0589572
0.025075
-0.0692808
0.029089
-0.0772746
0.0321231
-0.0831836
0.0342868
-0.0874886
0.0357759
-0.0907156
0.0367941
-0.0933146
0.0375099
-0.0956125
0.0380416
-0.0978175
0.0384631
-0.100047
0.0388158
-0.10236
0.0391217
-0.104784
0.0393922
-0.10733
0.0396341
-0.110004
0.0398514
-0.112808
0.040047
-0.115738
0.0402223
-0.118793
0.0403773
-0.121963
0.0405091
-0.12524
0.0406177
-0.128609
-0.000196808
0.000582155
-0.000385346
-0.000689814
0.00140466
-0.000911657
-0.00141758
0.00199374
-0.00126597
-0.00233253
0.00240064
-0.00148569
-0.00339711
0.00266761
-0.00160303
-0.00458198
0.00283009
-0.00164522
-0.00586461
0.00291619
-0.00163356
-0.0072279
0.00294625
-0.00158297
-0.00865886
0.0029332
-0.00150223
-0.0101475
0.00288334
-0.00139471
-0.0116857
0.00279757
-0.00125937
-0.0132663
0.0026726
-0.001092
-0.0148824
0.00250228
-0.00088623
-0.0165264
0.00227857
-0.00063448
-0.0181907
0.00199259
-0.00032833
-0.0198656
0.00163551
3.93619e-05
-0.0215414
0.00119904
0.000476752
-0.0232089
0.000676401
0.000991145
-0.0248597
6.26703e-05
0.00158809
-0.0264928
-0.000638451
0.0022716
-0.0281112
-0.00142653
0.00304493
-0.0297302
-0.00229074
0.00390974
-0.031383
-0.00321585
0.00486864
-0.00418117
-0.0331266
0.00592474
-0.000177911
0.000760065
-0.000628452
0.0018552
-0.00129823
0.00266352
-0.00214453
0.00324694
-0.0031325
0.00365557
-0.00423403
0.00393163
-0.00542689
0.00410905
-0.00669369
0.00421306
-0.00802103
0.00426053
-0.00939849
0.00426081
-0.0108178
0.00421685
-0.0122718
0.00412663
-0.0137539
0.00398438
-0.0152571
0.00378179
-0.0167736
0.00350909
-0.0182941
0.00315597
-0.0198077
0.00271266
-0.0213026
0.00217129
-0.0227676
0.00152768
-0.0241894
0.000783349
-0.0255651
-5.08737e-05
-0.0269022
-0.000953619
-0.0282268
-0.00189123
-0.00279961
-0.0296084
-0.00014948
0.000909546
-0.00053445
0.00224017
-0.00111193
0.00324099
-0.00184515
0.00398016
-0.00270235
0.00451277
-0.00365649
0.00488578
-0.00468498
0.00513754
-0.00576919
0.00529726
-0.00689391
0.00538525
-0.00804672
0.00541361
-0.00921726
0.0053874
-0.0103965
0.00530589
-0.011576
0.00516388
-0.0127471
0.00495289
-0.0139002
0.00466212
-0.0150237
0.00427954
-0.0161039
0.00379287
-0.0171237
0.00319111
-0.0180627
0.00246668
-0.0188981
0.00161872
-0.0196051
0.000656071
-0.0201717
-0.000386989
-0.0206003
-0.00146259
-0.00244923
-0.0209507
-0.00011452
0.00102407
-0.000416761
0.00254241
-0.00087489
0.00369912
-0.00145827
0.00456354
-0.00213808
0.00519258
-0.00288788
0.00563558
-0.00368392
0.00593358
-0.00450516
0.0061185
-0.00533305
0.00621314
-0.00615118
0.00623175
-0.00694481
0.00618103
-0.00770026
0.00606134
-0.00840431
0.00586792
-0.00904347
0.00559205
-0.00960329
0.00522195
-0.0100675
0.00474376
-0.0104171
0.00414244
-0.0106289
0.00340298
-0.0106745
0.00251223
-0.0105181
0.00146234
-0.0101133
0.000251287
-0.00942516
-0.00107516
-0.00841199
-0.00247576
-0.00378485
-0.00707637
-7.69783e-05
0.00110104
-0.000287501
0.00275294
-0.00060957
0.00402119
-0.00101766
0.00497163
-0.00148503
0.00565995
-0.00198504
0.00613559
-0.00249182
0.00644037
-0.00298066
0.00660734
-0.00342802
0.00666049
-0.00381137
0.0066151
-0.00410888
0.00647854
-0.00429899
0.00625145
-0.00435989
0.00592882
-0.00426898
0.00550114
-0.00400238
0.00495535
-0.00353433
0.00427571
-0.00283657
0.00344467
-0.00187749
0.0024439
-0.000620694
0.00125544
0.00097844
-0.00013679
0.0029656
-0.00173587
0.00542133
-0.0035309
0.00841301
-0.00546745
-0.00738225
0.0120104
-4.11873e-05
0.00114223
-0.000160096
0.00287185
-0.000341167
0.00420226
-0.000561704
0.00519216
-0.000795491
0.00589374
-0.00101441
0.0063545
-0.00118928
0.00661524
-0.00129037
0.00670843
-0.00128746
0.00665758
-0.00114975
0.00647739
-0.000845632
0.00617443
-0.000342319
0.00574814
0.000394567
0.00519193
0.00140136
0.00449435
0.00271657
0.00364013
0.00438108
0.00261121
0.00643797
0.00138778
0.0089326
-5.07301e-05
0.0119112
-0.00172315
0.0154216
-0.00364718
0.0195193
-0.0058336
0.0242723
-0.00828385
0.029728
-0.0109232
-0.0138479
0.0361936
-1.1125e-05
0.00115336
-4.68126e-05
0.00290753
-9.28871e-05
0.00424834
-0.000126091
0.00522537
-0.000118335
0.00588598
-3.82009e-05
0.00627437
0.000148382
0.00642866
0.000477884
0.00637893
0.000989138
0.00614632
0.00172348
0.00574304
0.00272501
0.0051729
0.00404085
0.0044323
0.00572136
0.00351142
0.00782021
0.00239551
0.0103941
0.00106621
0.0135024
-0.000497021
0.0172056
-0.00231547
0.0215641
-0.00440926
0.0266366
-0.00679558
0.0324763
-0.00948695
0.0391261
-0.0124834
0.0466546
-0.0158123
0.0549993
-0.019268
-0.0235236
0.0646751
1.06912e-05
0.00114267
4.40019e-05
0.00287422
0.000119467
0.00417287
0.000265108
0.00507973
0.000514011
0.00563708
0.000903499
0.00588488
0.00147501
0.00585715
0.00227418
0.00557976
0.00335111
0.0050694
0.00476054
0.00433361
0.00656198
0.00337145
0.00881968
0.0021746
0.0116021
0.000728999
0.0149814
-0.000983781
0.0190318
-0.00298418
0.0238276
-0.00529286
0.0294407
-0.00792854
0.0359369
-0.0109055
0.0433722
-0.0142309
0.0517908
-0.0179055
0.0612044
-0.0218971
0.0716683
-0.0262761
0.082978
-0.0305777
-0.0362846
0.095739
2.33171e-05
0.00111935
0.000110519
0.00278702
0.000293053
0.00399034
0.000608609
0.00476417
0.0010993
0.00514639
0.00181202
0.00517215
0.0027992
0.00486998
0.00411934
0.00425961
0.00583748
0.00335126
0.00802511
0.00214598
0.0107596
0.000636913
0.0141234
-0.00118918
0.0182016
-0.00334921
0.0230795
-0.00586161
0.0288387
-0.00874343
0.0355534
-0.0120076
0.0432849
-0.01566
0.0520769
-0.0196975
0.0619501
-0.0241041
0.0729008
-0.0288562
0.0848835
-0.0338798
0.0978774
-0.03927
0.111627
-0.0443272
-0.0511582
0.126501
2.88733e-05
0.00109048
0.000159424
0.00265647
0.000441738
0.00370802
0.000928326
0.00427758
0.00167517
0.00439955
0.0027436
0.00410373
0.00420177
0.0034118
0.00612559
0.0023358
0.00859866
0.000878193
0.0117111
-0.000966437
0.0155572
-0.00320919
0.0202316
-0.00586363
0.0258248
-0.00894243
0.032417
-0.0124538
0.0400715
-0.016398
0.0488287
-0.0207648
0.0587001
-0.0255314
0.0696637
-0.0306611
0.0816623
-0.0361027
0.094601
-0.0417949
0.108356
-0.047635
0.122761
-0.0536745
0.137651
-0.0592173
-0.0663202
0.152813
3.18459e-05
0.00105863
0.000205886
0.00248243
0.000596471
0.00331744
0.00127614
0.00359791
0.00232013
0.00335556
0.00380954
0.00261432
0.00583313
0.00138822
0.00848712
-0.00031819
0.0118742
-0.00250891
0.0160983
-0.0051905
0.0212592
-0.00837011
0.0274451
-0.0120495
0.0347236
-0.016221
0.0431336
-0.0208637
0.0526773
-0.0259416
0.063315
-0.0314024
0.0749621
-0.0371785
0.0874909
-0.0431898
0.100734
-0.0493459
0.114495
-0.055556
0.128572
-0.0617121
0.142705
-0.067807
0.156871
-0.0733833
-0.0797327
0.170283
3.89059e-05
0.000272034
0.000801973
0.00172589
0.00314297
0.00515835
0.00788289
0.0114311
0.0159142
0.0214327
0.0280646
0.0358543
0.0448032
0.0548615
0.0659258
0.0778402
0.0904029
0.103377
0.116504
0.129526
0.142195
0.154294
0.165889
0.176543
-0.0340139
-0.008891
0.00977834
-0.0348632
-0.0111896
0.0120389
-0.0356444
-0.0137151
0.0144963
-0.0363603
-0.0163755
0.0170913
-0.0370101
-0.019103
0.0197528
-0.0375928
-0.0217997
0.0223824
-0.0381084
-0.0243354
0.024851
-0.0385566
-0.0265496
0.0269978
-0.0389333
-0.0282525
0.0286292
-0.0392305
-0.0292218
0.0295189
-0.0394326
-0.0292094
0.0294115
-0.0395159
-0.0279471
0.0280304
-0.0394483
-0.0251591
0.0250916
-0.0391927
-0.0205767
0.020321
-0.0386932
-0.0139752
0.0134758
-0.0379078
-0.00519594
0.0044105
-0.0369308
0.0056716
-0.00664862
-0.0357372
0.0185656
-0.0197592
-0.0343685
0.0330822
-0.0344508
-0.0328781
0.0485852
-0.0500756
-0.0312658
0.0641591
-0.0657714
-0.0294451
0.0786858
-0.0805066
-0.0271571
0.0907955
-0.0930835
-0.0239052
0.0987874
-0.102039
-0.0190492
0.100749
-0.105605
-0.0120786
0.0949881
-0.101959
-0.00274625
0.0801839
-0.0895163
0.00860407
0.0564813
-0.0678316
0.0214699
0.0251954
-0.0380612
0.0348032
-0.0102446
-0.00308867
0.0478716
-0.0452412
0.0321728
0.059537
-0.0752108
0.0635454
0.0687951
-0.0968043
0.0875463
0.0748359
-0.109016
0.102975
0.0772693
-0.113103
0.110669
0.0766271
-0.111198
0.11184
0.0748075
-0.104895
0.106715
0.0745609
-0.0935174
0.093764
0.0779337
-0.0757363
0.0723635
0.0850759
-0.0514892
0.044347
0.0945092
-0.0239838
0.0145505
0.104291
0.00272484
-0.012507
0.112958
0.0246621
-0.0333291
0.119719
0.0404651
-0.0472262
0.124486
0.0496061
-0.0543723
0.12761
0.0531636
-0.056288
0.129842
0.0514771
-0.0537094
0.131887
0.0456678
-0.0477119
0.134348
0.0361025
-0.0385635
0.137282
0.0244379
-0.0273727
0.140572
0.0119526
-0.0152418
0.143763
0.000572056
-0.00376392
0.146649
-0.00857061
0.0056847
0.149031
-0.0147659
0.0123844
0.151063
-0.017724
0.0156914
0.152815
-0.017426
0.0156746
0.154604
-0.0148452
0.0130558
0.156277
-0.00856792
0.00689502
0.158166
-0.00429845
0.00240965
0.00663781
-0.00822029
-0.0307064
-0.00779295
-0.0318113
-0.0100847
-0.0328705
-0.0126559
-0.0338839
-0.0153621
-0.034849
-0.0181379
-0.035761
-0.0208877
-0.0366175
-0.0234789
-0.0374186
-0.0257484
-0.0381596
-0.0275115
-0.0388336
-0.0285478
-0.0394238
-0.0286191
-0.0399008
-0.0274702
-0.0402202
-0.0248397
-0.0403207
-0.0204762
-0.0401261
-0.0141698
-0.0395396
-0.00578241
-0.038614
0.00474601
-0.0372696
0.0172212
-0.0354669
0.0312794
-0.0332029
0.0463212
-0.0303793
0.0613355
-0.0268353
0.0751419
-0.0223031
0.0862633
-0.0164141
0.0928983
-0.00873227
0.0930674
0.000771167
0.0854846
0.0117147
0.0692404
0.0239257
0.0442703
0.0369379
0.0121832
0.0499223
-0.0232291
0.0623544
-0.0576733
0.073313
-0.0861695
0.0819914
-0.105483
0.0877982
-0.114823
0.0903269
-0.115631
0.0895402
-0.110411
0.0864053
-0.10176
0.0831913
-0.0903034
0.082473
-0.075018
0.0855418
-0.054558
0.0918392
-0.0302813
0.0996725
-0.00510844
0.107431
0.0169038
0.114036
0.03386
0.1192
0.044442
0.123169
0.0491943
0.12661
0.0480365
0.130066
0.0422116
0.133927
0.0322416
0.138029
0.0203359
0.14213
0.0078515
0.145749
-0.00304727
0.14873
-0.0115514
0.15094
-0.0169755
0.152612
-0.0193967
0.15389
-0.0187042
0.155162
-0.0161171
0.156381
-0.00978676
0.157869
-0.00578671
0.00523551
-0.0221424
-0.00660127
-0.0234129
-0.00881421
-0.0246805
-0.0113883
-0.0259291
-0.0141135
-0.0271526
-0.0169144
-0.0283386
-0.0197016
-0.0294755
-0.0223421
-0.0305589
-0.024665
-0.0315756
-0.0264948
-0.0325145
-0.0276089
-0.0333561
-0.0277775
-0.0340691
-0.0267572
-0.0346044
-0.0243043
-0.034891
-0.0201897
-0.0348344
-0.0142264
-0.0342912
-0.00632562
-0.0332669
0.00372173
-0.0316316
0.0155859
-0.0292402
0.028888
-0.0260903
0.0431713
-0.0219894
0.0572346
-0.0167991
0.0699515
-0.0103544
0.0798186
-0.00237819
0.0849221
0.00687098
0.0838182
0.01746
0.0748956
0.0290536
0.0576469
0.0411608
0.0321631
0.0534304
-8.64876e-05
0.0654788
-0.0352774
0.0767939
-0.0689884
0.0865966
-0.0959722
0.0942527
-0.113139
0.0994492
-0.120019
0.102033
-0.118215
0.101806
-0.110184
0.0988921
-0.0988468
0.094533
-0.0859443
0.0910187
-0.0715038
0.0903851
-0.0539243
0.0931736
-0.0330698
0.0984239
-0.0103587
0.104676
0.0106514
0.11075
0.0277864
0.116159
0.0390325
0.120961
0.0443929
0.125611
0.0433861
0.130396
0.0374268
0.13545
0.0271879
0.140427
0.0153582
0.145029
0.00324983
0.148812
-0.0068303
0.151701
-0.0144406
0.153638
-0.0189124
0.154909
-0.0206675
0.155707
-0.0195021
0.156448
-0.0168583
0.157191
-0.0105299
0.158226
-0.0068214
0.00406821
-0.00820095
-0.00547669
-0.0095927
-0.00742246
-0.0110389
-0.00994206
-0.0125003
-0.0126521
-0.0139749
-0.0154398
-0.0154448
-0.0182317
-0.016879
-0.0209079
-0.0182765
-0.0232675
-0.0195908
-0.0251804
-0.0207931
-0.0264066
-0.0218506
-0.0267201
-0.0227242
-0.0258836
-0.0233618
-0.0236667
-0.0236911
-0.0198603
-0.0236172
-0.0143003
-0.0230138
-0.00692903
-0.0217472
0.00245507
-0.019763
0.0136017
-0.0167578
0.0258828
-0.0128749
0.0392884
-0.00775087
0.0521106
-0.00137542
0.0635761
0.00640916
0.072034
0.0153566
0.0759747
0.0254661
0.0737088
0.0363738
0.0639878
0.0476778
0.0463429
0.0590296
0.0208113
0.070103
-0.0111599
0.0808659
-0.0460402
0.0907377
-0.0788603
0.0990489
-0.104283
0.105338
-0.119428
0.109541
-0.124222
0.111812
-0.120486
0.112132
-0.110503
0.110248
-0.0969631
0.106383
-0.0820797
0.101908
-0.0670286
0.0988457
-0.0508617
0.0985757
-0.0327998
0.101101
-0.0128843
0.105482
0.00627059
0.110675
0.0225935
0.116067
0.0336408
0.121481
0.0389788
0.127083
0.0377839
0.132856
0.0316541
0.138689
0.0213545
0.14412
0.00992713
0.148855
-0.00148461
0.152529
-0.0105052
0.155164
-0.0170747
0.156767
-0.020516
0.157647
-0.0215468
0.158018
-0.0198736
0.158283
-0.0171236
0.158591
-0.0108381
0.159179
-0.00740903
0.00315628
0.0109237
-0.00438998
0.0094892
-0.00598796
0.00791659
-0.00836945
0.00626769
-0.0110032
0.00452525
-0.0136973
0.00269489
-0.0164013
0.000807411
-0.0190204
-0.00100842
-0.0214517
-0.00274241
-0.0234464
-0.00434032
-0.0248087
-0.00574386
-0.0253166
-0.00688793
-0.0247395
-0.00770292
-0.0228517
-0.00811079
-0.0194525
-0.00801926
-0.0143918
-0.00733573
-0.00761256
-0.00583558
0.000954916
-0.00360369
0.0113699
-0.000392293
0.0226714
0.00462569
0.0342705
0.0106464
0.0460899
0.0177797
0.0564428
0.0259887
0.063825
0.035278
0.0666853
0.0453872
0.0635996
0.0558929
0.0534821
0.0663862
0.0358497
0.0765844
0.0106131
0.0863332
-0.0209087
0.0955719
-0.055279
0.103754
-0.087042
0.110311
-0.110841
0.115
-0.124117
0.117977
-0.127199
0.11961
-0.12212
0.120127
-0.11102
0.119316
-0.0961524
0.116827
-0.07959
0.113009
-0.0632108
0.109222
-0.0470747
0.107068
-0.0306464
0.107358
-0.0131737
0.109882
0.00374641
0.113976
0.0184995
0.119038
0.0285793
0.124689
0.0333273
0.130794
0.0316788
0.13705
0.025398
0.14315
0.0152545
0.148585
0.00449286
0.153098
-0.00599797
0.156437
-0.0138448
0.158701
-0.0193382
0.159955
-0.02177
0.160497
-0.0220885
0.160541
-0.0199179
0.160439
-0.0170219
0.160407
-0.0108057
0.160613
-0.00761472
0.00248108
0.0348665
-0.00306288
0.0333804
-0.00450185
0.0317503
-0.0067393
0.0299645
-0.00921744
0.0280201
-0.011753
0.0259426
-0.0143238
0.0237749
-0.0168527
0.0215351
-0.0192119
0.0192979
-0.0212092
0.0171458
-0.0226566
0.0151757
-0.0233464
0.0134963
-0.0230602
0.0122264
-0.0215818
0.0114881
-0.0187141
0.0113992
-0.014303
0.0120507
-0.00826404
0.0137472
-0.000741599
0.0163145
0.00880258
0.0200924
0.0188935
0.0248666
0.0294962
0.0309205
0.040036
0.0381552
0.049208
0.0464248
0.0555555
0.0555269
0.0575832
0.0651454
0.0539812
0.0748548
0.0437727
0.0842812
0.0264232
0.093204
0.00169031
0.101544
-0.0292485
0.109125
-0.0628599
0.115424
-0.0933417
0.120041
-0.115458
0.122996
-0.127071
0.124661
-0.128864
0.12551
-0.122969
0.125902
-0.111412
0.125816
-0.0960664
0.124797
-0.0785707
0.122521
-0.060935
0.119477
-0.0440308
0.1169
-0.0280695
0.115942
-0.0122154
0.117049
0.00263914
0.120061
0.0154881
0.124544
0.0240963
0.130021
0.0278497
0.13612
0.0255801
0.142323
0.0191948
0.148195
0.0093825
0.153243
-0.000555261
0.157262
-0.0100165
0.160113
-0.0166965
0.161951
-0.0211754
0.162879
-0.0226988
0.163166
-0.0223751
0.163007
-0.0197587
0.162679
-0.0166939
0.162435
-0.0105624
0.16237
-0.00754965
0.00198727
0.0629451
-0.00133289
0.0612147
-0.00277146
0.0593876
-0.0049122
0.0573809
-0.00721078
0.0551943
-0.00956631
0.0528444
-0.0119739
0.0503456
-0.0143539
0.0477174
-0.0165837
0.0450186
-0.0185104
0.0423298
-0.0199678
0.0397547
-0.0207713
0.0374205
-0.0207259
0.0354761
-0.0196374
0.0340846
-0.0173226
0.0334089
-0.0136273
0.0336039
-0.0084591
0.0347807
-0.00191841
0.0370982
0.00648513
0.0406177
0.015374
0.0452927
0.0248212
0.0512066
0.0341221
0.0582628
0.0421518
0.0662508
0.0475675
0.0748643
0.0489697
0.0837473
0.0450982
0.0925027
0.0350172
0.100798
0.0181276
0.108442
-0.00595377
0.11533
-0.0361364
0.121137
-0.0686668
0.125403
-0.0976079
0.127978
-0.118032
0.129174
-0.128267
0.129549
-0.129239
0.129616
-0.123037
0.129734
-0.11153
0.130002
-0.0963336
0.1301
-0.0786689
0.129484
-0.0603192
0.12798
-0.0425268
0.126184
-0.0262734
0.125107
-0.011138
0.125529
0.00221706
0.127734
0.0132831
0.131554
0.0202762
0.136541
0.0228623
0.142201
0.0199206
0.147907
0.013489
0.153175
0.00411452
0.157562
-0.00494316
0.160929
-0.0133834
0.16323
-0.0189968
0.164646
-0.022592
0.165306
-0.0233587
0.165434
-0.0225028
0.165197
-0.0195222
0.164792
-0.0162881
0.16448
-0.0102505
0.164282
-0.00735228
0.0015918
0.0934094
0.000996704
0.0912832
-0.000645287
0.0890492
-0.00267818
0.0866382
-0.00479985
0.0840858
-0.00701392
0.0814034
-0.00929147
0.0785775
-0.0115281
0.0756088
-0.013615
0.0725299
-0.0154315
0.0693999
-0.0168378
0.0663029
-0.0176743
0.0633505
-0.0177735
0.0606864
-0.0169733
0.0584881
-0.0151243
0.0569536
-0.0120928
0.0562813
-0.00778678
0.0565986
-0.00223576
0.0581666
0.00491716
0.0610206
0.0125201
0.0651647
0.0206771
0.0705848
0.0287019
0.0771362
0.0356004
0.0845553
0.0401484
0.0924866
0.0410383
0.100542
0.0370431
0.108342
0.027217
0.115553
0.0109167
0.122028
-0.012429
0.127425
-0.0415338
0.131326
-0.0725676
0.133443
-0.0997249
0.133965
-0.118554
0.133486
-0.127788
0.132681
-0.128434
0.132047
-0.122403
0.131869
-0.111352
0.13226
-0.096724
0.133053
-0.0794621
0.133767
-0.0610329
0.133918
-0.0426782
0.133533
-0.0258879
0.133211
-0.0108169
0.133712
0.00171599
0.135554
0.0114414
0.138817
0.0170136
0.143175
0.0185041
0.148135
0.014961
0.153066
0.00855738
0.157527
-0.000346636
0.161128
-0.00854376
0.163805
-0.0160607
0.165576
-0.0207673
0.166629
-0.0236451
0.167099
-0.0238285
0.167165
-0.0225688
0.166965
-0.0193227
0.166618
-0.0159413
0.166374
-0.0100058
0.166189
-0.00716729
0.00119604
0.12355
0.00394722
0.12068
0.00222443
0.118078
-7.55939e-05
0.115187
-0.00190862
0.112178
-0.00400499
0.109059
-0.00617267
0.105839
-0.00830843
0.102529
-0.0103047
0.0991431
-0.0120457
0.0957179
-0.0134126
0.0923107
-0.0142671
0.0889986
-0.0144614
0.0858851
-0.0138598
0.0831144
-0.0123536
0.080869
-0.00984737
0.0793478
-0.00626552
0.0787818
-0.00166978
0.079302
0.00439697
0.081137
0.010685
0.0843324
0.0174817
0.0888595
0.0241749
0.0945502
0.0299097
0.101112
0.0335871
0.10816
0.0339904
0.115277
0.0299255
0.122084
0.02041
0.128249
0.0047517
0.133547
-0.0177263
0.137425
-0.0454126
0.13938
-0.0745217
0.139345
-0.0996901
0.137915
-0.117124
0.135946
-0.125819
0.134144
-0.126632
0.132934
-0.121192
0.132503
-0.110921
0.132914
-0.0971359
0.134086
-0.0806339
0.135685
-0.0626318
0.137199
-0.0441917
0.138309
-0.0269981
0.139176
-0.011684
0.140315
0.000576765
0.142244
0.009513
0.145182
0.0140753
0.148952
0.0147342
0.153148
0.0107646
0.157231
0.00447423
0.16084
-0.00395511
0.163674
-0.0113776
0.165725
-0.0181116
0.167054
-0.0220963
0.167838
-0.0244294
0.168208
-0.0241988
0.168304
-0.0226644
0.168236
-0.0192544
0.168061
-0.0157664
0.167998
-0.00994308
0.167958
-0.0071277
0.000698516
0.149572
0.00718825
0.14641
0.00538627
0.142842
0.00349242
0.139501
0.00143177
0.136286
-0.000789621
0.132894
-0.00278096
0.129374
-0.00478756
0.125779
-0.00671033
0.122159
-0.00842517
0.118556
-0.00980979
0.115024
-0.0107353
0.111619
-0.0110565
0.108408
-0.0106489
0.10549
-0.00943488
0.102997
-0.00735474
0.101053
-0.00432206
0.0998589
-0.000475255
0.0996295
0.00462639
0.100519
0.00979591
0.102654
0.0153464
0.106057
0.0207714
0.110612
0.0253555
0.116057
0.0281413
0.122019
0.0280288
0.128065
0.0238793
0.133805
0.0146703
0.138944
-0.000387385
0.142856
-0.0216387
0.145014
-0.0475699
0.144941
-0.0744493
0.142886
-0.0976353
0.139752
-0.11399
0.136566
-0.122633
0.133997
-0.124063
0.132364
-0.119559
0.131757
-0.110314
0.132175
-0.0975544
0.133554
-0.0820124
0.135681
-0.0647592
0.138141
-0.0466516
0.140505
-0.0293617
0.142607
-0.0137861
0.14464
-0.00145634
0.146979
0.00717449
0.149851
0.0112026
0.153192
0.0113935
0.156719
0.00723717
0.160043
0.0011508
0.162892
-0.00680438
0.165082
-0.0135677
0.166641
-0.0196706
0.167658
-0.023113
0.168288
-0.0250596
0.168653
-0.0245634
0.168859
-0.0228705
0.168994
-0.0193899
0.169076
-0.0158483
0.169283
-0.0101501
0.169498
-0.00734322
5.66203e-06
0.167286
0.0101853
0.164122
0.00855006
0.160657
0.00695772
0.157031
0.00505829
0.153311
0.00292952
0.1499
0.000630158
0.146439
-0.00132592
0.142871
-0.00314312
0.139243
-0.00479651
0.135636
-0.0062031
0.132143
-0.0072426
0.128838
-0.00775137
0.125795
-0.00760551
0.123087
-0.00672698
0.120807
-0.00507456
0.119102
-0.00261723
0.117911
0.000715692
0.117423
0.00511482
0.117825
0.00939324
0.119253
0.0139188
0.121741
0.0182827
0.125217
0.0218796
0.129498
0.0238603
0.134278
0.0232493
0.139144
0.0190134
0.143601
0.0102127
0.147442
-0.00422839
0.149836
-0.0240322
0.150107
-0.0478409
0.148066
-0.0724087
0.144294
-0.0938627
0.139844
-0.109541
0.135732
-0.118521
0.13259
-0.120921
0.130639
-0.117608
0.129892
-0.109567
0.130297
-0.0979595
0.131776
-0.0834915
0.134186
-0.0671692
0.137222
-0.0496876
0.140471
-0.0326107
0.1436
-0.016915
0.146571
-0.00442754
0.149457
0.00428801
0.152471
0.00818878
0.15558
0.00828484
0.158614
0.0042035
0.161369
-0.00160422
0.163635
-0.00907122
0.165362
-0.0152944
0.166599
-0.0209071
0.167449
-0.023963
0.168043
-0.0256544
0.168492
-0.0250117
0.168877
-0.0232563
0.169271
-0.019783
0.169668
-0.0162459
0.170206
-0.0106876
0.170758
-0.00789522
-0.000961373
0.174517
0.0122116
0.171859
0.0112084
0.169014
0.00980195
0.16601
0.00806315
0.162846
0.00609317
0.159388
0.00408834
0.155944
0.00211754
0.152795
5.79693e-06
0.149472
-0.0014734
0.14617
-0.00290126
0.142994
-0.00406573
0.140012
-0.00477011
0.137309
-0.00490227
0.134966
-0.0043839
0.133042
-0.0031508
0.131628
-0.0012029
0.130689
0.00165434
0.13063
0.00517424
0.131152
0.00887138
0.132387
0.0126834
0.134401
0.0162686
0.137163
0.0191178
0.140522
0.0205009
0.144217
0.0195545
0.147899
0.0153316
0.151197
0.00691439
0.153394
-0.00642483
0.153963
-0.0246012
0.152429
-0.0463065
0.148881
-0.0688613
0.144092
-0.0890735
0.139042
-0.104491
0.134508
-0.113987
0.130963
-0.117376
0.128658
-0.115303
0.127662
-0.108571
0.127917
-0.0982145
0.129329
-0.0849037
0.131784
-0.0696235
0.135059
-0.0529632
0.138813
-0.0363642
0.142647
-0.0207497
0.146355
-0.00813502
0.149789
0.000853793
0.153047
0.00493076
0.156093
0.00523897
0.15886
0.00143668
0.161236
-0.00398076
0.163143
-0.010978
0.164606
-0.0167575
0.165697
-0.0219976
0.166523
-0.0247897
0.167195
-0.0263261
0.167807
-0.025624
0.168431
-0.0238799
0.169121
-0.0204726
0.169872
-0.0169972
0.170778
-0.0115933
0.17172
-0.00883781
-0.00226296
0.192755
0.0139412
-0.194485
0.191485
0.0124792
0.190093
0.0111935
0.188549
0.00960752
0.186816
0.00782571
0.184923
0.00598201
0.182913
0.00412672
0.180527
0.00239219
0.178112
0.000941728
0.175495
-0.000284301
0.172825
-0.0013963
0.170061
-0.00200581
0.167253
-0.00209408
0.164457
-0.00158765
0.161726
-0.000420512
0.159198
0.00132517
0.157017
0.0038359
0.155326
0.00686521
0.154147
0.0100505
0.153658
0.0131719
0.154034
0.0158931
0.15543
0.0177215
0.157933
0.0179978
0.161515
0.0159723
0.16599
0.0108566
0.170933
0.0019713
0.17575
-0.0112421
0.179569
-0.0284193
0.18154
-0.048278
0.181216
-0.0685375
0.178734
-0.0865911
0.174615
-0.100372
0.169519
-0.108891
0.164092
-0.11195
0.158879
-0.11009
0.154274
-0.103966
0.150539
-0.0944796
0.147835
-0.0821994
0.146254
-0.0680429
0.145801
-0.0525099
0.146355
-0.0369184
0.147691
-0.0220853
0.149561
-0.0100047
0.151741
-0.00132638
0.154025
0.00264658
0.156257
0.0030071
0.158221
-0.00052708
0.159734
-0.00549426
0.160691
-0.0119355
0.161107
-0.0171726
0.161059
-0.0219496
0.160672
-0.0244031
0.160084
-0.0257385
0.159411
-0.0249509
0.158755
-0.023223
0.15818
-0.0198982
0.157706
-0.0165233
0.157402
-0.0112893
0.157167
-0.00860217
-0.00231885
0.205098
0.0146143
-0.205771
0.204341
0.0132367
0.203581
0.0119531
0.202615
0.0105733
0.201399
0.00904223
0.199958
0.0074228
0.198275
0.00581034
0.196362
0.00430432
0.194331