/*--------------------------------*- C++ -*----------------------------------*\
| =========                 |                                                 |
| \\      /  F ield         | OpenFOAM: The Open Source CFD Toolbox           |
|  \\    /   O peration     | Version:  2512                                  |
|   \\  /    A nd           | Website:  www.openfoam.com                      |
|    \\/     M anipulation  |                                                 |
\*---------------------------------------------------------------------------*/
FoamFile
{
    version     2.0;
    format      ascii;
    arch        "LSB;label=32;scalar=64";
    class       volScalarField;
    location    "157.25";
    object      p;
}
// * * * * * * * * * * * * * * * * * * * * * * * * * * * * * * * * * * * * * //

dimensions      [0 2 -2 0 0 0 0];

internalField   nonuniform List<scalar> 
13248
(
-0.34441
-0.343027
-0.340344
-0.336664
-0.332322
-0.327643
-0.322939
-0.318514
-0.314618
-0.311429
-0.309032
-0.307411
-0.306443
-0.305913
-0.305539
-0.305001
-0.303983
-0.302205
-0.299438
-0.295562
-0.290358
-0.283954
-0.275205
-0.264924
-0.352721
-0.350521
-0.34723
-0.343107
-0.338444
-0.333539
-0.328659
-0.324027
-0.319802
-0.316065
-0.312811
-0.309948
-0.307312
-0.304692
-0.301857
-0.298591
-0.294715
-0.290101
-0.284669
-0.27837
-0.271144
-0.262968
-0.25354
-0.243663
-0.363246
-0.359968
-0.355876
-0.351182
-0.346093
-0.34086
-0.335668
-0.330631
-0.325794
-0.321139
-0.316591
-0.312036
-0.307341
-0.302376
-0.297032
-0.291236
-0.28495
-0.278163
-0.270872
-0.263078
-0.254733
-0.245879
-0.236301
-0.22661
-0.375868
-0.371296
-0.36625
-0.360861
-0.355216
-0.349483
-0.343735
-0.337954
-0.332075
-0.326014
-0.319692
-0.313051
-0.306062
-0.298729
-0.291077
-0.28315
-0.27499
-0.266627
-0.258076
-0.24933
-0.240369
-0.231216
-0.221752
-0.212557
-0.390484
-0.384467
-0.378354
-0.372162
-0.365803
-0.359319
-0.352649
-0.345652
-0.338198
-0.330218
-0.321715
-0.312759
-0.303461
-0.293948
-0.284337
-0.274719
-0.265152
-0.255659
-0.246237
-0.236869
-0.22753
-0.218217
-0.208861
-0.199827
-0.406987
-0.399431
-0.392188
-0.385091
-0.377804
-0.370208
-0.362111
-0.35331
-0.343706
-0.333347
-0.322393
-0.311067
-0.299599
-0.288183
-0.276961
-0.266015
-0.255376
-0.245041
-0.234984
-0.225169
-0.215565
-0.206148
-0.196875
-0.18798
-0.425187
-0.416057
-0.407649
-0.399514
-0.39099
-0.381784
-0.371636
-0.360395
-0.348121
-0.335062
-0.321561
-0.307964
-0.294554
-0.281528
-0.268996
-0.256999
-0.245528
-0.234548
-0.224011
-0.21387
-0.204079
-0.1946
-0.185407
-0.17659
-0.444722
-0.434044
-0.424439
-0.415063
-0.404868
-0.393431
-0.380556
-0.366296
-0.350979
-0.335084
-0.319102
-0.303429
-0.288334
-0.273961
-0.26036
-0.247517
-0.235386
-0.223902
-0.213002
-0.202623
-0.19271
-0.183215
-0.174117
-0.165394
-0.464997
-0.452859
-0.442006
-0.431087
-0.418668
-0.404322
-0.3881
-0.370404
-0.351878
-0.3332
-0.314927
-0.297429
-0.280903
-0.265412
-0.250938
-0.237418
-0.224767
-0.212901
-0.201738
-0.191204
-0.181234
-0.171776
-0.162795
-0.154189
-0.485157
-0.4717
-0.4595
-0.446629
-0.431366
-0.413483
-0.393465
-0.372154
-0.350477
-0.329225
-0.308931
-0.289878
-0.27216
-0.255754
-0.240579
-0.226526
-0.213483
-0.201345
-0.190015
-0.179406
-0.169444
-0.160073
-0.15123
-0.142779
-0.504106
-0.489497
-0.475781
-0.460469
-0.441753
-0.419847
-0.395818
-0.370939
-0.34634
-0.322815
-0.300801
-0.280458
-0.261773
-0.244643
-0.228929
-0.214488
-0.201182
-0.188888
-0.177495
-0.166904
-0.157032
-0.14781
-0.139142
-0.130904
-0.520614
-0.505052
-0.489618
-0.471346
-0.448626
-0.422352
-0.394251
-0.365976
-0.338746
-0.31327
-0.28984
-0.268477
-0.24906
-0.231412
-0.215347
-0.200686
-0.187272
-0.174962
-0.163634
-0.153179
-0.143509
-0.134538
-0.126146
-0.11826
-0.339115
-0.340958
-0.341987
-0.342566
-0.34306
-0.34362
-0.34434
-0.345282
-0.346483
-0.347975
-0.349792
-0.35198
-0.354597
-0.357714
-0.361407
-0.365753
-0.37082
-0.376652
-0.38326
-0.390609
-0.398593
-0.406997
-0.415514
-0.423931
-0.338386
-0.339405
-0.339896
-0.340076
-0.34021
-0.340448
-0.340904
-0.341662
-0.342788
-0.344342
-0.346393
-0.349027
-0.35234
-0.356445
-0.361456
-0.36748
-0.374605
-0.382874
-0.392275
-0.402727
-0.414052
-0.425935
-0.437899
-0.449556
-0.338089
-0.338289
-0.33823
-0.337994
-0.33774
-0.337615
-0.33775
-0.338252
-0.33921
-0.340712
-0.342852
-0.345741
-0.349501
-0.354261
-0.360165
-0.367324
-0.375826
-0.385703
-0.396914
-0.409326
-0.422693
-0.436637
-0.450579
-0.463853
-0.337801
-0.337281
-0.336706
-0.336042
-0.335359
-0.334802
-0.334519
-0.334642
-0.335284
-0.336557
-0.338574
-0.34146
-0.345351
-0.350386
-0.356701
-0.364406
-0.373575
-0.384219
-0.396266
-0.409544
-0.42376
-0.438474
-0.45321
-0.466634
-0.337239
-0.336184
-0.33517
-0.334081
-0.332926
-0.331853
-0.331033
-0.330624
-0.330771
-0.331607
-0.333265
-0.33588
-0.339589
-0.344528
-0.350821
-0.358563
-0.367804
-0.378528
-0.390634
-0.403915
-0.418067
-0.432508
-0.447114
-0.459531
-0.3363
-0.334946
-0.333596
-0.332099
-0.330439
-0.328775
-0.327303
-0.326216
-0.325694
-0.325901
-0.326988
-0.329101
-0.332377
-0.336944
-0.342909
-0.350348
-0.359281
-0.369664
-0.381365
-0.394115
-0.407647
-0.421106
-0.434923
-0.445407
-0.335069
-0.333657
-0.332083
-0.330208
-0.32803
-0.325728
-0.323529
-0.321667
-0.320361
-0.31981
-0.320191
-0.321664
-0.324368
-0.328424
-0.333922
-0.340913
-0.349384
-0.359238
-0.370319
-0.382274
-0.394853
-0.406808
-0.419154
-0.426909
-0.333815
-0.332544
-0.33084
-0.328621
-0.325938
-0.322999
-0.320068
-0.317419
-0.315312
-0.313986
-0.313647
-0.314472
-0.316607
-0.320161
-0.325194
-0.331725
-0.339692
-0.348939
-0.359208
-0.370021
-0.381142
-0.391049
-0.401084
-0.405661
-0.332973
-0.331949
-0.330167
-0.327636
-0.324489
-0.320971
-0.317382
-0.314034
-0.311228
-0.309237
-0.308293
-0.308586
-0.310256
-0.313391
-0.318016
-0.324062
-0.331381
-0.339717
-0.348722
-0.357822
-0.366719
-0.373938
-0.380607
-0.381638
-0.333093
-0.332299
-0.330434
-0.327616
-0.324071
-0.320083
-0.315982
-0.312111
-0.308798
-0.306338
-0.304975
-0.30489
-0.306195
-0.30892
-0.313007
-0.318294
-0.324523
-0.331337
-0.338309
-0.344899
-0.350765
-0.354869
-0.357847
-0.3557
-0.334754
-0.334042
-0.332025
-0.328935
-0.325067
-0.320739
-0.3163
-0.312105
-0.308489
-0.305743
-0.30409
-0.303674
-0.304543
-0.306644
-0.309816
-0.313796
-0.318228
-0.322698
-0.326763
-0.33003
-0.33223
-0.33302
-0.332858
-0.328915
-0.338439
-0.337555
-0.335257
-0.331885
-0.327751
-0.32319
-0.318559
-0.314194
-0.310408
-0.307456
-0.305508
-0.304636
-0.304804
-0.305864
-0.307566
-0.309578
-0.311512
-0.312978
-0.313593
-0.313119
-0.311309
-0.308367
-0.30457
-0.299734
-0.433865
-0.44295
-0.447744
-0.446554
-0.437581
-0.419623
-0.392488
-0.357111
-0.316073
-0.273273
-0.233032
-0.198975
-0.173462
-0.157764
-0.152628
-0.158254
-0.172891
-0.191265
-0.205081
-0.206335
-0.191815
-0.165543
-0.135793
-0.109907
-0.0917233
-0.0819838
-0.0796193
-0.0836426
-0.0951579
-0.115503
-0.140346
-0.158354
-0.15842
-0.140932
-0.114932
-0.0908741
-0.0742279
-0.0647061
-0.0613926
-0.0657741
-0.07739
-0.0883881
-0.0885971
-0.0802757
-0.0678096
-0.0572616
-0.0508179
-0.0494355
-0.0532818
-0.057363
-0.055295
-0.0513961
-0.0452665
-0.0377151
-0.0331457
-0.0291228
-0.0264088
-0.0261756
-0.0203985
-0.00531933
-0.463607
-0.475414
-0.481786
-0.481296
-0.471942
-0.452229
-0.421825
-0.381877
-0.335284
-0.286386
-0.239924
-0.199841
-0.168646
-0.147418
-0.136547
-0.136184
-0.145253
-0.159779
-0.172573
-0.175894
-0.165816
-0.14532
-0.121229
-0.100146
-0.0859273
-0.0795634
-0.0801398
-0.0869991
-0.10171
-0.125513
-0.153222
-0.172428
-0.171286
-0.15111
-0.121886
-0.094727
-0.0753031
-0.0633934
-0.0578029
-0.0595667
-0.068629
-0.0778957
-0.0786084
-0.0716983
-0.0620743
-0.0543359
-0.0503294
-0.051557
-0.0576932
-0.0636228
-0.0609577
-0.0558865
-0.0480095
-0.0384657
-0.0324051
-0.0263665
-0.0230783
-0.0224805
-0.0174239
-0.00456841
-0.480718
-0.494465
-0.501794
-0.501879
-0.492471
-0.471807
-0.439443
-0.396575
-0.34626
-0.293088
-0.242054
-0.197355
-0.161532
-0.135536
-0.119481
-0.113342
-0.116642
-0.126708
-0.13778
-0.142746
-0.137014
-0.122409
-0.104138
-0.0880692
-0.0780529
-0.0752274
-0.0788019
-0.0884505
-0.106094
-0.132858
-0.163011
-0.183399
-0.181581
-0.159313
-0.127414
-0.0975933
-0.0757232
-0.061661
-0.0540012
-0.0533088
-0.0599045
-0.0674909
-0.0685025
-0.0630487
-0.056103
-0.0510492
-0.0495081
-0.0534646
-0.0620092
-0.0698585
-0.066463
-0.0601684
-0.0505022
-0.0390578
-0.0316276
-0.0236719
-0.0197928
-0.0187831
-0.0144439
-0.00381779
-0.484572
-0.499479
-0.507451
-0.508125
-0.498963
-0.478078
-0.445001
-0.400936
-0.348971
-0.293763
-0.240382
-0.192978
-0.153996
-0.124288
-0.103838
-0.0924902
-0.0900095
-0.0949943
-0.103338
-0.108979
-0.107034
-0.0979111
-0.085206
-0.0740802
-0.0682552
-0.0688775
-0.0752673
-0.0873948
-0.107466
-0.136638
-0.168943
-0.190683
-0.188917
-0.1653
-0.13137
-0.0994282
-0.0755442
-0.0596327
-0.0501655
-0.0472579
-0.0515465
-0.057503
-0.0586257
-0.0545154
-0.0500059
-0.0474473
-0.0483212
-0.0550473
-0.0660736
-0.075942
-0.0735358
-0.0642069
-0.0527074
-0.0394758
-0.0308133
-0.0210616
-0.0165815
-0.0151227
-0.0114847
-0.00307426
-0.476805
-0.490734
-0.499702
-0.501207
-0.49258
-0.472063
-0.439437
-0.395927
-0.344506
-0.289669
-0.236243
-0.188096
-0.147499
-0.115234
-0.0912457
-0.0753537
-0.0674949
-0.0670903
-0.0716922
-0.0767701
-0.0775855
-0.0728744
-0.0651515
-0.0586174
-0.0566795
-0.0604289
-0.0692932
-0.0834681
-0.105396
-0.136424
-0.170553
-0.193849
-0.192977
-0.168931
-0.133736
-0.100282
-0.0748551
-0.0574351
-0.0464467
-0.0416067
-0.0437859
-0.0481931
-0.0492656
-0.0462842
-0.04389
-0.0435654
-0.0467257
-0.0561896
-0.0697166
-0.081598
-0.0788632
-0.0678764
-0.054595
-0.0397085
-0.0299608
-0.0185549
-0.0134704
-0.0115362
-0.00857111
-0.00234425
-0.460606
-0.472948
-0.481447
-0.48339
-0.475285
-0.455586
-0.424478
-0.383136
-0.334266
-0.281982
-0.230604
-0.183535
-0.142802
-0.109167
-0.0826153
-0.0629845
-0.0503225
-0.044617
-0.0447767
-0.0478714
-0.0500499
-0.0483807
-0.0448294
-0.0422584
-0.0436423
-0.0500484
-0.0609716
-0.0767253
-0.0999034
-0.132145
-0.167737
-0.192779
-0.19358
-0.170116
-0.134517
-0.100215
-0.0737329
-0.055158
-0.0429408
-0.0364711
-0.0367796
-0.0397569
-0.0406447
-0.0385198
-0.0378539
-0.0394443
-0.0446936
-0.0567833
-0.0727608
-0.0866431
-0.083649
-0.0711296
-0.0561421
-0.0397457
-0.0290607
-0.016166
-0.0104812
-0.00805655
-0.00572415
-0.00163356
-0.438384
-0.447676
-0.455021
-0.45714
-0.449423
-0.430972
-0.402399
-0.36465
-0.320014
-0.272021
-0.224313
-0.179749
-0.140095
-0.106136
-0.0779929
-0.0555693
-0.0389454
-0.0284024
-0.0238148
-0.0237131
-0.0252807
-0.025624
-0.0251905
-0.0257176
-0.0297125
-0.0381816
-0.0506564
-0.0674688
-0.0912726
-0.124065
-0.160731
-0.187653
-0.190674
-0.168817
-0.133753
-0.0992903
-0.072238
-0.0528605
-0.0396999
-0.0318934
-0.0305865
-0.0322946
-0.032917
-0.0313662
-0.0319964
-0.0351475
-0.0422158
-0.0567314
-0.0750455
-0.0909209
-0.0878527
-0.0739188
-0.0573314
-0.0395816
-0.0281038
-0.0138993
-0.00762864
-0.00471276
-0.00295986
-0.000947899
-0.412574
-0.41686
-0.422877
-0.424788
-0.417396
-0.40079
-0.375728
-0.342706
-0.303498
-0.260949
-0.217948
-0.176829
-0.139137
-0.105697
-0.0768172
-0.052546
-0.0329728
-0.0184281
-0.00930386
-0.00529791
-0.00488522
-0.00578749
-0.00698614
-0.0096879
-0.0155224
-0.0253678
-0.0388152
-0.0561843
-0.0800761
-0.112804
-0.1501
-0.178857
-0.184535
-0.165134
-0.131507
-0.0975614
-0.0704105
-0.0505763
-0.0367513
-0.0278888
-0.025217
-0.0258179
-0.0261483
-0.0249434
-0.0264215
-0.0307539
-0.0393097
-0.0559657
-0.0764379
-0.0942885
-0.0913605
-0.0762075
-0.0581572
-0.0392186
-0.0270975
-0.011763
-0.00491954
-0.0015284
-0.000289398
-0.000293333
-0.382679
-0.382572
-0.387571
-0.389022
-0.382126
-0.368044
-0.34721
-0.319544
-0.286319
-0.249676
-0.211792
-0.174547
-0.139332
-0.107022
-0.0781043
-0.0528203
-0.0313129
-0.0138416
-0.000908749
0.00708198
0.0105132
0.0108093
0.00932886
0.00531569
-0.00158396
-0.0121027
-0.025931
-0.0433851
-0.0669546
-0.0992416
-0.136729
-0.167104
-0.175667
-0.159357
-0.127972
-0.0952102
-0.0684084
-0.0484328
-0.0341888
-0.0245053
-0.0206846
-0.0203224
-0.0203481
-0.0192987
-0.021223
-0.0263611
-0.0359891
-0.0544393
-0.0768555
-0.0966471
-0.0940937
-0.0779794
-0.0586433
-0.0386758
-0.0260648
-0.00979784
-0.00236387
0.00147889
0.00228111
0.000323901
-0.3511
-0.348244
-0.352723
-0.353413
-0.347281
-0.336186
-0.319773
-0.297477
-0.270149
-0.239272
-0.206416
-0.173083
-0.140545
-0.109739
-0.0813023
-0.0556425
-0.0329951
-0.0135667
0.0022217
0.0137467
0.0206589
0.0234679
0.0232222
0.0188903
0.0117733
0.00118565
-0.0125432
-0.0297644
-0.0528141
-0.0842502
-0.121435
-0.153189
-0.164596
-0.151931
-0.123567
-0.0926668
-0.0666074
-0.0467123
-0.0322103
-0.0218428
-0.0169932
-0.0157873
-0.015539
-0.0145225
-0.016473
-0.0220395
-0.0323462
-0.0521769
-0.0762286
-0.0979304
-0.0960374
-0.0792351
-0.0588297
-0.0379843
-0.0249953
-0.00804503
6.4976e-06
0.00428255
0.00475031
0.000897001
-0.321431
-0.318439
-0.322127
-0.32149
-0.316294
-0.308168
-0.295864
-0.27858
-0.256773
-0.231332
-0.203314
-0.173871
-0.14412
-0.115025
-0.0873489
-0.0616465
-0.0382825
-0.01753
0.000339458
0.0147894
0.0251465
0.0311804
0.034009
0.0303206
0.0241117
0.0141777
0.00109333
-0.015522
-0.0379022
-0.0687819
-0.105814
-0.138018
-0.152106
-0.142731
-0.118027
-0.0897243
-0.0648111
-0.0451913
-0.0306033
-0.0197079
-0.0139173
-0.0119362
-0.0115622
-0.0106849
-0.0123703
-0.0179207
-0.0282954
-0.0491248
-0.0746819
-0.098153
-0.0971132
-0.0798712
-0.058628
-0.0370937
-0.0237858
-0.00639469
0.00219419
0.0068365
0.00711761
0.00141977
-0.295459
-0.295368
-0.296515
-0.293226
-0.288152
-0.281735
-0.272265
-0.258892
-0.241649
-0.220937
-0.197395
-0.171833
-0.145149
-0.118241
-0.0919195
-0.0668534
-0.0435536
-0.0224056
-0.00371086
0.0121978
0.0248524
0.033503
0.0346419
0.0386634
0.0342906
0.0256284
0.0136148
-0.00216515
-0.023615
-0.053211
-0.0889056
-0.120703
-0.134624
-0.129663
-0.109157
-0.0839906
-0.0608165
-0.042047
-0.0279217
-0.0170494
-0.0107631
-0.00815785
-0.00774187
-0.0071821
-0.00866293
-0.0142173
-0.024309
-0.0455262
-0.072
-0.0971556
-0.0962471
-0.0796091
-0.0577126
-0.0357518
-0.0222907
-0.00454223
0.00436006
0.0092193
0.00937219
0.00187787
-0.272517
-0.28286
-0.281045
-0.27492
-0.268492
-0.261482
-0.252214
-0.239618
-0.22352
-0.204292
-0.182538
-0.158958
-0.134307
-0.109346
-0.084779
-0.0611878
-0.0390263
-0.0186565
-0.00036363
0.0155924
0.0288849
0.0391331
0.0472348
0.0478455
0.0450189
0.0380673
0.0276371
0.0130686
-0.00816083
-0.0395533
-0.0786022
-0.113002
-0.129911
-0.120945
-0.100208
-0.0762718
-0.0546588
-0.0371937
-0.0239949
-0.0136388
-0.00746089
-0.00456917
-0.00396456
-0.00304646
-0.00362355
-0.00895383
-0.0187384
-0.0407208
-0.0689074
-0.096625
-0.0984237
-0.0791431
-0.0563005
-0.0340016
-0.0206952
-0.00255642
0.00647061
0.011653
0.0114946
0.00226473
-0.247611
-0.26124
-0.26001
-0.252545
-0.244851
-0.237444
-0.228628
-0.217055
-0.202416
-0.185072
-0.16559
-0.144538
-0.122489
-0.100027
-0.0777271
-0.0561003
-0.0355736
-0.0164904
0.000875731
0.0163131
0.0296143
0.0404944
0.0481606
0.0511815
0.0500973
0.0449733
0.0363496
0.0232194
0.0024141
-0.0298639
-0.0696336
-0.102743
-0.11587
-0.107503
-0.0885825
-0.0673675
-0.0482019
-0.0324606
-0.0204239
-0.010754
-0.00473747
-0.00168768
-0.00109257
-0.000141654
-0.000574147
-0.00524189
-0.0144886
-0.0365634
-0.0656991
-0.0946134
-0.0963012
-0.077219
-0.0541809
-0.0318916
-0.0188157
-0.000719304
0.00818327
0.0137595
0.0132132
0.00260366
-0.224472
-0.238442
-0.238118
-0.230759
-0.222738
-0.215355
-0.207193
-0.196818
-0.183779
-0.168351
-0.151023
-0.132261
-0.112506
-0.0922228
-0.0719011
-0.0520046
-0.0329371
-0.015031
0.00143778
0.0162444
0.0291954
0.0401499
0.0479767
0.0520688
0.0521506
0.0483491
0.0410002
0.0287223
0.00806995
-0.0235892
-0.0605972
-0.0897086
-0.100407
-0.0931576
-0.0769401
-0.0587172
-0.0419734
-0.0278763
-0.0169396
-0.00797234
-0.00219952
0.000945921
0.00155505
0.00251872
0.00210606
-0.00233162
-0.0113893
-0.0332805
-0.0621904
-0.0909425
-0.0930654
-0.074411
-0.051572
-0.0295205
-0.0167522
0.0010672
0.00982681
0.0157077
0.0147221
0.00294337
-0.203611
-0.216347
-0.216709
-0.210153
-0.20243
-0.195252
-0.187655
-0.178314
-0.166687
-0.152937
-0.137487
-0.12074
-0.103058
-0.0848117
-0.0664011
-0.0482257
-0.0306523
-0.0139952
0.00147401
0.015519
0.0279009
0.0382367
0.0463563
0.0511106
0.0521473
0.0494436
0.0431473
0.0316788
0.0118565
-0.0175348
-0.0504372
-0.0754647
-0.0843562
-0.0785396
-0.0652221
-0.0500291
-0.0357401
-0.023322
-0.0135049
-0.0052948
0.000162745
0.00335623
0.0040541
0.00505046
0.00475397
0.000425822
-0.0084855
-0.0297749
-0.057659
-0.0859318
-0.0887368
-0.0707743
-0.0484515
-0.0268946
-0.0144836
0.00280902
0.0114062
0.0174836
0.0160893
0.00328667
-0.183663
-0.195342
-0.196231
-0.190582
-0.183429
-0.176617
-0.169575
-0.161179
-0.150858
-0.138672
-0.124964
-0.110085
-0.0943317
-0.0779967
-0.0614025
-0.0448896
-0.0287902
-0.013403
0.00100542
0.0141942
0.0259015
0.0357967
0.0436632
0.0487049
0.0503996
0.0485706
0.0432247
0.0328433
0.0148232
-0.0111729
-0.0394398
-0.0603873
-0.0680725
-0.0640701
-0.053805
-0.0416038
-0.0296963
-0.0189132
-0.0101788
-0.00273706
0.0023549
0.00554473
0.00638
0.00741199
0.0073044
0.00317937
-0.00528674
-0.0254755
-0.0520502
-0.0796382
-0.0831325
-0.0662154
-0.0448077
-0.024027
-0.0120385
0.00450289
0.0128885
0.0190463
0.0173024
0.0036243
-0.164942
-0.17574
-0.176917
-0.172064
-0.165599
-0.159312
-0.152884
-0.145391
-0.136283
-0.125544
-0.11344
-0.100269
-0.0862821
-0.0717155
-0.0568306
-0.041916
-0.0272677
-0.013164
0.0001395
0.0124032
0.0233641
0.0327199
0.0402144
0.0452748
0.0473699
0.0462222
0.0417295
0.0326255
0.0170407
-0.00483394
-0.0281182
-0.0453402
-0.0525042
-0.0504935
-0.0431213
-0.0336468
-0.0239328
-0.0147011
-0.00699758
-0.000310177
0.00438252
0.00751227
0.00851648
0.00961721
0.00974584
0.00593443
-0.00177739
-0.0205124
-0.0455152
-0.0720054
-0.0762064
-0.0607323
-0.0406668
-0.0209497
-0.00945333
0.00614615
0.0142517
0.020358
0.0183115
0.00394952
-0.147838
-0.157525
-0.158804
-0.154669
-0.148944
-0.143279
-0.137508
-0.130872
-0.122875
-0.113457
-0.102817
-0.0912074
-0.078842
-0.0659145
-0.0526378
-0.0392532
-0.0260201
-0.0131924
-0.00101321
0.0102817
0.0204443
0.0291894
0.0362476
0.0411762
0.0435086
0.0429164
0.0392237
0.0315184
0.0186727
0.00108724
-0.0175309
-0.0316103
-0.0386071
-0.0383603
-0.0334519
-0.0263149
-0.0185405
-0.0107421
-0.00400312
0.00197051
0.00625223
0.00927586
0.0104678
0.0116908
0.0120812
0.00866313
0.00187352
-0.0151024
-0.0381428
-0.0631436
-0.0680634
-0.0543901
-0.0360774
-0.0177062
-0.00677587
0.00773808
0.0154834
0.0213685
0.019069
0.00426329
-0.131975
-0.140578
-0.141934
-0.138467
-0.133471
-0.128454
-0.123342
-0.117516
-0.110534
-0.102317
-0.0930154
-0.0828359
-0.0719606
-0.0605501
-0.0487781
-0.0368458
-0.0249772
-0.0134018
-0.00234717
0.00796255
0.0172946
0.0253821
0.0319636
0.0366804
0.0391433
0.0390234
0.0361292
0.0298887
0.0197029
0.00593649
-0.00877025
-0.0205484
-0.0269541
-0.0279476
-0.0249519
-0.0197133
-0.0135866
-0.00707671
-0.00122808
0.0040892
0.00797099
0.0108583
0.0122434
0.0136526
0.0143156
0.0113553
0.00559554
-0.00931303
-0.0300948
-0.0533232
-0.0589142
-0.047322
-0.0311152
-0.0143515
-0.00406224
0.00928225
0.0165805
0.0220905
0.0195488
0.00457333
-0.117218
-0.124938
-0.126355
-0.123474
-0.119156
-0.114766
-0.110294
-0.105226
-0.0991741
-0.0920502
-0.083967
-0.0750942
-0.0655848
-0.0555727
-0.0452007
-0.0346362
-0.0240713
-0.0137102
-0.00376052
0.00556846
0.0140587
0.0214658
0.027548
0.0320069
0.0345269
0.0348136
0.0326947
0.0278291
0.0199239
0.00929765
-0.00218893
-0.0118603
-0.017589
-0.0192841
-0.0176539
-0.0138888
-0.00911551
-0.00373433
0.00130282
0.00602731
0.00954183
0.0122774
0.0138518
0.0155095
0.0164749
0.0140678
0.00943404
-0.00323136
-0.0216616
-0.0429244
-0.0490835
-0.0397396
-0.025885
-0.0109478
-0.00137388
0.0107888
0.0175496
0.0225148
0.0197529
0.00489308
-0.103736
-0.11061
-0.112022
-0.109644
-0.105947
-0.10215
-0.0982839
-0.0939199
-0.0887173
-0.0825849
-0.0756072
-0.0679233
-0.0596614
-0.0509333
-0.0418566
-0.0325706
-0.0232388
-0.0140402
-0.00516065
0.00320942
0.0108675
0.0175938
0.0231702
0.0273471
0.0298708
0.0304938
0.0290682
0.0253932
0.0193618
0.0112729
0.00242941
-0.00533053
-0.0102759
-0.0122404
-0.0115102
-0.00884619
-0.00515256
-0.00073427
0.00357436
0.00776476
0.0109614
0.0135459
0.015298
0.0172426
0.0185952
0.0168951
0.0134249
0.00293887
-0.0132459
-0.0324369
-0.0389964
-0.0319209
-0.0205183
-0.00756044
0.0012277
0.0122688
0.0184178
0.0226738
0.0197193
0.00524201
-0.0914531
-0.0974902
-0.0988591
-0.0969264
-0.0937988
-0.0905532
-0.0872484
-0.0835287
-0.0790952
-0.0738574
-0.0678778
-0.0612702
-0.0541422
-0.0465867
-0.0387009
-0.0306001
-0.022422
-0.0143215
-0.00646338
0.000982159
0.0078337
0.0138952
0.0189734
0.0228576
0.0253445
0.0262321
0.0254016
0.0227412
0.0182517
0.0121968
0.00550495
-0.000558562
-0.00468186
-0.00662182
-0.0064312
-0.00455943
-0.00170511
0.0019126
0.0055808
0.00928529
0.0122174
0.014672
0.0165796
0.018796
0.0206629
0.0198623
0.0175129
0.00888979
-0.00534056
-0.0224054
-0.0291195
-0.0241838
-0.0151698
-0.00425588
0.00368893
0.0137184
0.0192262
0.0226357
0.0195295
0.00564434
-0.080163
-0.0854944
-0.0868308
-0.0852888
-0.0826691
-0.079923
-0.0771282
-0.0739898
-0.0702465
-0.0658103
-0.0607263
-0.0550874
-0.0489836
-0.0424921
-0.0356928
-0.0286806
-0.0215711
-0.0144958
-0.00759832
-0.00102998
0.00505115
0.0104744
0.0150708
0.0186617
0.0210839
0.0221772
0.0218513
0.0200477
0.0168193
0.0123965
0.00744033
0.00282868
-0.000489667
-0.00222215
-0.00230814
-0.000982482
0.00123604
0.00420211
0.00732224
0.0105832
0.0132923
0.0156484
0.0176844
0.0201004
0.0225464
0.0227664
0.021402
0.0141877
0.0015886
-0.0132951
-0.0198798
-0.0168468
-0.0100115
-0.00110238
0.00596699
0.0151063
0.0200091
0.0224925
0.0193012
0.00612043
-0.0700338
-0.0746486
-0.0759022
-0.0746809
-0.0725038
-0.0702025
-0.067864
-0.065244
-0.0621143
-0.0583909
-0.054105
-0.0493322
-0.0441471
-0.0386139
-0.0327977
-0.0267763
-0.0206457
-0.0145168
-0.00851288
-0.00276354
0.00259452
0.00741333
0.0115497
0.0148533
0.017192
0.0184416
0.0185344
0.0174401
0.0152364
0.0121197
0.00855505
0.00514612
0.00258411
0.00115577
0.000974081
0.00194316
0.00369382
0.00613788
0.00880055
0.0116617
0.014172
0.0164492
0.0185807
0.0211081
0.0239793
0.0251242
0.0244961
0.0183416
0.00724768
-0.0054062
-0.0116087
-0.0101864
-0.00521889
0.00183138
0.00802502
0.0163656
0.0207771
0.0223366
0.0191474
0.00666614
-0.0607365
-0.0647793
-0.0659608
-0.0650147
-0.0632309
-0.0613291
-0.0593977
-0.0572358
-0.0546469
-0.0515523
-0.0479723
-0.0439678
-0.0396004
-0.0349231
-0.0299889
-0.0248607
-0.0196174
-0.0143514
-0.00916737
-0.00417436
0.000512109
0.00476669
0.00846981
0.0114955
0.0137362
0.0150954
0.0155239
0.0150084
0.0136265
0.011543
0.00909357
0.00666714
0.00477933
0.00369092
0.00353035
0.00428337
0.00570046
0.00773258
0.0100192
0.0125269
0.0148495
0.0170486
0.019218
0.0217602
0.0247394
0.0264706
0.0262597
0.0210451
0.0115405
0.00108341
-0.0045531
-0.00440391
-0.000947479
0.00448399
0.00982787
0.01739
0.021481
0.0222474
0.0191147
0.007225
-0.0523571
-0.0558667
-0.0569591
-0.0562435
-0.0548014
-0.0532503
-0.0516765
-0.0499151
-0.0477979
-0.0452528
-0.0422917
-0.0389629
-0.0353171
-0.0313976
-0.0272471
-0.0229161
-0.0184687
-0.0139809
-0.00953946
-0.005237
-0.00116926
0.00256199
0.00586296
0.00862221
0.0107517
0.0121783
0.0128649
0.0128076
0.0120716
0.0107935
0.00925153
0.00759387
0.00629024
0.00554029
0.00547063
0.00610742
0.00729435
0.00900658
0.0109846
0.0131855
0.0153224
0.0174266
0.0195593
0.0220072
0.0248105
0.0266704
0.0266249
0.0223447
0.0145118
0.00609087
0.00112906
0.000396458
0.00269563
0.00680855
0.0113437
0.0180619
0.0219841
0.0222473
0.0191385
0.00767997
-0.0447761
-0.0478149
-0.0488312
-0.0483104
-0.0471602
-0.0459113
-0.0446472
-0.0432326
-0.0415232
-0.0394538
-0.0370303
-0.0342906
-0.0312759
-0.0280213
-0.0245609
-0.0209345
-0.0171938
-0.0133998
-0.0096238
-0.00594406
-0.00244163
0.000804066
0.00373777
0.00624355
0.00825035
0.00970432
0.0105774
0.0108679
0.0106274
0.00995522
0.00900008
0.00806068
0.00727098
0.00684156
0.00689756
0.00748506
0.00851798
0.00998492
0.0117081
0.0136445
0.0155941
0.0175738
0.0195986
0.0218533
0.0243014
0.0259784
0.0259474
0.0225477
0.0163162
0.00968017
0.00544433
0.00421855
0.00566954
0.0087683
0.0125517
0.0183134
0.0221043
0.0222097
0.0190284
0.00789334
-0.0379591
-0.0405847
-0.0415202
-0.0411502
-0.0402466
-0.039257
-0.0382587
-0.0371413
-0.0357814
-0.0341203
-0.0321596
-0.0299289
-0.027461
-0.0247842
-0.0219255
-0.018916
-0.0157958
-0.0126132
-0.00942674
-0.00630143
-0.003309
-0.000534584
0.00208867
0.00435188
0.00622338
0.00766749
0.00866238
0.00920772
0.00934411
0.00914469
0.00871783
0.00824428
0.00786314
0.00771398
0.00790421
0.00848384
0.00941585
0.0106954
0.0122068
0.0139149
0.0156741
0.0174964
0.0193574
0.0213566
0.0233797
0.0247499
0.0246702
0.0220341
0.0172056
0.0120681
0.00855377
0.00714629
0.00799591
0.0103296
0.0134339
0.0181578
0.0217119
0.0218758
0.0185147
0.00776849
-0.031837
-0.0340945
-0.0349508
-0.034713
-0.0340093
-0.0332374
-0.0324639
-0.0315978
-0.0305341
-0.0292201
-0.0276542
-0.0258591
-0.0238609
-0.0216818
-0.0193428
-0.0168674
-0.0142867
-0.0116383
-0.00896661
-0.00631822
-0.00373932
-0.00125274
0.00093499
0.00292892
0.00464773
0.00604799
0.00710895
0.00782867
0.00823574
0.00838025
0.0083442
0.00823612
0.00817475
0.00825762
0.00857347
0.00916712
0.0100323
0.0111682
0.0125026
0.0140101
0.0155789
0.017221
0.0188821
0.0205985
0.0222108
0.0232687
0.0231317
0.0211237
0.0174549
0.0135322
0.0106853
0.00929671
0.00973286
0.0114728
0.0139687
0.01764
0.0207692
0.0209943
0.0174065
0.00729716
-0.0263387
-0.0282755
-0.0290568
-0.0289255
-0.0284019
-0.0278079
-0.0272188
-0.0265604
-0.0257446
-0.0247231
-0.0234912
-0.0220657
-0.0204674
-0.0187133
-0.0168193
-0.0148031
-0.0126885
-0.0105042
-0.00828461
-0.00606722
-0.00389483
-0.00181076
0.00012452
0.00190512
0.00347718
0.00481232
0.00589345
0.00671981
0.00730992
0.00769539
0.00793865
0.00810617
0.00828906
0.00855532
0.00897795
0.00959298
0.0104114
0.0114351
0.0126194
0.013948
0.0153339
0.0167862
0.018227
0.019664
0.020924
0.0217166
0.0215412
0.0200333
0.0172857
0.0143198
0.0120514
0.0107898
0.010952
0.0122043
0.0141536
0.0168349
0.0193586
0.0194813
0.0157433
0.00656002
-0.0214129
-0.023072
-0.023782
-0.0237346
-0.0233578
-0.0229221
-0.022484
-0.0219911
-0.0213799
-0.0206016
-0.0196501
-0.0185361
-0.0172753
-0.0158809
-0.0143647
-0.0127403
-0.011025
-0.00924026
-0.00741299
-0.00557252
-0.00375194
-0.00198495
-0.000302107
0.00125376
0.00266987
0.00391941
0.00498064
0.00586223
0.00656537
0.00711205
0.0075457
0.00791002
0.00827079
0.0086745
0.00917995
0.00981402
0.0105957
0.0115276
0.0125828
0.0137523
0.0149661
0.01623
0.0174563
0.0186384
0.019609
0.0201965
0.0200113
0.0188912
0.0168541
0.0146204
0.012791
0.0117349
0.0117268
0.0125623
0.0140184
0.0158395
0.0176273
0.0175129
0.0137627
0.00568262
-0.0170111
-0.0184283
-0.019071
-0.0190892
-0.0188331
-0.0185279
-0.0182251
-0.0178791
-0.0174239
-0.0168335
-0.0161148
-0.0152601
-0.0142817
-0.0131892
-0.0119911
-0.0106973
-0.00932071
-0.00787735
-0.00638754
-0.00487303
-0.00335833
-0.00186899
-0.000432203
0.000925465
0.00218658
0.00333316
0.00435788
0.00524183
0.00599995
0.00664124
0.00719523
0.00768948
0.00817083
0.00866983
0.00923236
0.00987716
0.0106248
0.0114779
0.0124209
0.0134485
0.0145033
0.0155898
0.0166202
0.0175854
0.0183266
0.018763
0.0185904
0.017765
0.0162666
0.0145904
0.0131627
0.0122225
0.012131
0.0126097
0.0136207
0.0147377
0.0157185
0.015348
0.0117354
0.00478676
-0.0130822
-0.0142903
-0.0148707
-0.0149395
-0.0147812
-0.0145818
-0.0143862
-0.0141588
-0.0138507
-0.0134334
-0.0128879
-0.0122357
-0.0114867
-0.0106433
-0.00971013
-0.00869328
-0.00760201
-0.00644776
-0.00524516
-0.00401023
-0.00276189
-0.00151928
-0.000302606
0.000869625
0.00198103
0.00301775
0.00396999
0.00482971
0.00559937
0.00628422
0.00690353
0.00747387
0.00802795
0.00858499
0.00917926
0.0098233
0.0105355
0.011318
0.012161
0.0130619
0.0139738
0.0148995
0.0157566
0.0165418
0.017112
0.017439
0.0172919
0.0166862
0.0155919
0.0143375
0.0132454
0.0124427
0.0122444
0.0124177
0.013027
0.0135921
0.0138977
0.0132189
0.00985157
0.00395813
-0.00958168
-0.01061
-0.0111331
-0.0112399
-0.0111597
-0.011045
-0.0109342
-0.0107993
-0.0106002
-0.0103117
-0.00992707
-0.00945127
-0.00888872
-0.00824794
-0.00753288
-0.00674653
-0.00589385
-0.00498246
-0.00402285
-0.00302695
-0.00200891
-0.000982256
3.83925e-05
0.00103911
0.0020058
0.00292728
0.00379486
0.00460245
0.00534974
0.00603829
0.00667981
0.00728336
0.00787103
0.00845409
0.00905716
0.00968783
0.0103608
0.0110774
0.0118301
0.012618
0.0134034
0.014188
0.0148978
0.015536
0.0159796
0.0162288
0.0161125
0.0156685
0.0148701
0.0139282
0.0130813
0.0123896
0.0121151
0.0120463
0.0123009
0.0124396
0.0122196
0.0112703
0.00820386
0.00324076
-0.00647022
-0.0073442
-0.00781468
-0.0079491
-0.00793078
-0.00788366
-0.00784017
-0.00777869
-0.00766667
-0.00748333
-0.00722257
-0.00688685
-0.00648086
-0.00600845
-0.00547215
-0.00487456
-0.00421938
-0.00351068
-0.0027558
-0.001963
-0.00114258
-0.000304161
0.000541509
0.00138395
0.00221221
0.0030173
0.00379203
0.00453098
0.00523242
0.00589553
0.00652687
0.00713053
0.00772076
0.00830344
0.00889539
0.00950065
0.0101295
0.0107825
0.0114532
0.012141
0.012815
0.0134775
0.0140652
0.0145846
0.0149346
0.0151281
0.0150413
0.0147142
0.0141278
0.0134111
0.0127404
0.0121296
0.0117936
0.0115457
0.0114989
0.0113124
0.0107185
0.00956836
0.00681556
0.00264614
-0.00371136
-0.00445314
-0.00487583
-0.00502973
-0.00505998
-0.00506628
-0.00507577
-0.00507181
-0.00502835
-0.00492817
-0.00476574
-0.00454244
-0.00426147
-0.00392517
-0.00353493
-0.00309195
-0.00259851
-0.00205861
-0.00147652
-0.000854862
-0.000203014
0.000472146
0.00116279
0.00186151
0.0025601
0.00325137
0.00392929
0.00458915
0.0052286
0.00584554
0.00644302
0.00702206
0.00759111
0.00815262
0.00871709
0.00928625
0.00986623
0.0104568
0.0110521
0.0116511
0.0122277
0.0127854
0.0132726
0.0136965