/*--------------------------------*- C++ -*----------------------------------*\
| =========                 |                                                 |
| \\      /  F ield         | OpenFOAM: The Open Source CFD Toolbox           |
|  \\    /   O peration     | Version:  2512                                  |
|   \\  /    A nd           | Website:  www.openfoam.com                      |
|    \\/     M anipulation  |                                                 |
\*---------------------------------------------------------------------------*/
FoamFile
{
    version     2.0;
    format      ascii;
    arch        "LSB;label=32;scalar=64";
    class       surfaceScalarField;
    location    "77";
    object      phi;
}
// * * * * * * * * * * * * * * * * * * * * * * * * * * * * * * * * * * * * * //

dimensions      [0 3 -1 0 0 0 0];

oriented        oriented;

internalField   nonuniform List<scalar> 
26232
(
3.31988e-05
0.000857867
-0.000891065
0.000276598
0.00147136
-0.00171476
0.000885278
0.00117415
-0.00178283
0.00201909
4.52534e-05
-0.00117906
0.00384098
-0.00187472
5.2826e-05
0.00651314
-0.00456453
0.00189237
0.0101861
-0.00801107
0.00433814
0.0149884
-0.0121938
0.00739143
0.0210118
-0.0170717
0.0110483
0.0282965
-0.0225743
0.0152897
0.0368198
-0.028598
0.0200747
0.0464909
-0.035009
0.0253379
0.0571523
-0.041652
0.0309906
0.0685902
-0.0483628
0.0369249
0.0805504
-0.0549818
0.0430216
0.0927588
-0.0613671
0.0491586
0.104944
-0.067405
0.0552201
0.116857
-0.0730175
0.0611046
0.12829
-0.078163
0.0667294
0.139092
-0.0828462
0.072044
0.149165
-0.087079
0.0770062
0.158483
-0.0909781
0.0816608
0.167023
-0.0944705
0.08593
-0.0979844
0.090404
0.174604
0.000100639
0.000757227
0.000563595
0.00100841
0.00156238
0.000175369
0.00327467
-0.00166704
0.00587679
-0.00447683
0.00953345
-0.00822119
0.0143803
-0.0128579
0.0205043
-0.0183178
0.0279249
-0.0244923
0.0365797
-0.0312291
0.0463209
-0.0383392
0.0569231
-0.0456112
0.0681027
-0.0528316
0.0795446
-0.0598047
0.0909334
-0.0663706
0.101983
-0.0724171
0.112464
-0.0778855
0.122216
-0.0827699
0.131164
-0.0871105
0.139304
-0.0909862
0.146713
-0.0944885
0.153496
-0.0977607
0.159819
-0.100794
-0.104025
0.16586
0.000174442
0.000582785
0.000881089
0.000301759
0.00231455
-0.00125809
0.00466693
-0.00401942
0.00811717
-0.00792707
0.0128104
-0.0129144
0.0188319
-0.0188794
0.026182
-0.0256679
0.0347593
-0.0330696
0.0443595
-0.0408293
0.0546913
-0.048671
0.0654078
-0.0563277
0.0761465
-0.0635703
0.0865714
-0.0702296
0.0964089
-0.0762081
0.105473
-0.0814814
0.113677
-0.0860895
0.12103
-0.0901226
0.12762
-0.093701
0.133592
-0.0969581
0.139121
-0.100017
0.144363
-0.103003
0.149502
-0.105933
-0.109113
0.15459
0.000259847
0.000322938
0.00124194
-0.000680333
0.00315806
-0.00317421
0.00620409
-0.00706545
0.0105391
-0.0122621
0.0162534
-0.0186287
0.0233354
-0.0259615
0.0316516
-0.0339841
0.0409467
-0.0423646
0.0508694
-0.050752
0.0610179
-0.0588196
0.0709952
-0.0663049
0.0804602
-0.0730353
0.0891678
-0.0789371
0.096988
-0.0840283
0.103906
-0.0883997
0.110005
-0.0921883
0.115433
-0.0955505
0.12037
-0.0986382
0.124995
-0.101583
0.129464
-0.104486
0.133887
-0.107426
0.138362
-0.110408
-0.113633
0.142882
0.000361063
-3.81248e-05
0.00165409
-0.00197336
0.00409595
-0.00561607
0.00786498
-0.0108345
0.0130659
-0.017463
0.0196883
-0.0252511
0.0275786
-0.0338518
0.0364403
-0.0428458
0.0458693
-0.0517936
0.0554151
-0.0602978
0.0646515
-0.068056
0.0732383
-0.0748917
0.0809606
-0.0807576
0.0877402
-0.0857167
0.0936212
-0.0899093
0.0987363
-0.0935149
0.103266
-0.0967177
0.107397
-0.099682
0.111297
-0.102538
0.115095
-0.105381
0.11888
-0.10827
0.122701
-0.111247
0.126602
-0.114309
-0.117584
0.130554
0.000479671
-0.000517796
0.00211582
-0.0036095
0.00510861
-0.00860887
0.00958638
-0.0153123
0.0155557
-0.0234323
0.0228609
-0.0325564
0.0311793
-0.0421701
0.0400623
-0.0517287
0.049013
-0.0607444
0.0575748
-0.0688595
0.0654029
-0.0758841
0.0723042
-0.0817931
0.0782389
-0.0866923
0.0832917
-0.0907695
0.0876261
-0.0942437
0.0914355
-0.0973243
0.0949041
-0.100186
0.0981834
-0.102961
0.101383
-0.105738
0.104576
-0.108573
0.107804
-0.111498
0.111088
-0.114531
0.11445
-0.117671
-0.120986
0.117852
0.000614013
-0.00113181
0.0026132
-0.00560869
0.00615033
-0.012146
0.0112628
-0.0204247
0.0178151
-0.0299846
0.0254786
-0.0402199
0.0337719
-0.0504634
0.0421521
-0.060109
0.0501234
-0.0687156
0.0573228
-0.0760589
0.0635623
-0.0821236
0.0688225
-0.0870533
0.0732122
-0.0910819
0.0769115
-0.0944689
0.0801194
-0.0974515
0.0830149
-0.10022
0.0857382
-0.10291
0.0883875
-0.105611
0.091025
-0.108376
0.0936871
-0.111235
0.0963933
-0.114205
0.0991514
-0.117289
0.101969
-0.120489
-0.123833
0.104816
0.000758871
-0.00189068
0.00312076
-0.00797058
0.00715352
-0.0161788
0.0127611
-0.0260323
0.0196351
-0.0368586
0.0272784
-0.0478632
0.035104
-0.058289
0.0425641
-0.067569
0.0492569
-0.0754085
0.0549773
-0.0817793
0.0597065
-0.0868529
0.0635627
-0.0909095
0.0667347
-0.0942539
0.0694246
-0.0971588
0.0718094
-0.0998363
0.0740236
-0.102434
0.0761589
-0.105045
0.0782723
-0.107724
0.0803964
-0.1105
0.0825488
-0.113388
0.0847376
-0.116393
0.0869651
-0.119517
0.0892337
-0.122757
-0.126119
0.0915199
0.000906326
-0.002797
0.00360475
-0.010669
0.00803883
-0.0206128
0.013945
-0.0319385
0.0208364
-0.04375
0.0280899
-0.0551167
0.0350938
-0.0652929
0.041383
-0.0738583
0.046708
-0.0807334
0.0510288
-0.0861001
0.0544586
-0.0902827
0.0571893
-0.0936402
0.059427
-0.0964916
0.0613503
-0.0990821
0.0630932
-0.101579
0.0647455
-0.104086
0.0663617
-0.106661
0.0679729
-0.109335
0.0695954
-0.112123
0.0712376
-0.11503
0.0729027
-0.118058
0.0745914
-0.121206
0.0763026
-0.124468
-0.127838
0.0780217
0.00104643
-0.00384343
0.00402749
-0.0136501
0.00872777
-0.0253131
0.0147
-0.0379107
0.0213055
-0.0503555
0.0278642
-0.0616754
0.0338225
-0.0712513
0.0388553
-0.0788911
0.0428747
-0.0847528
0.0459725
-0.0891979
0.0483371
-0.0926474
0.0501791
-0.0954822
0.0516831
-0.0979956
0.0529874
-0.100386
0.0541837
-0.102776
0.0553274
-0.10523
0.0564492
-0.107783
0.0575654
-0.110451
0.0586847
-0.113242
0.059811
-0.116156
0.0609457
-0.119193
0.0620884
-0.122348
0.0632366
-0.125617
-0.128984
0.0643821
0.00116878
-0.00501221
0.0043536
-0.0168349
0.00915628
-0.0301158
0.0149542
-0.0437086
0.0210101
-0.0564114
0.0266642
-0.0673295
0.0314815
-0.0760686
0.0352933
-0.0827028
0.0381474
-0.087607
0.0402182
-0.0912687
0.0417191
-0.0941483
0.0428442
-0.0966072
0.0437409
-0.0988923
0.0445074
-0.101153
0.0452024
-0.103471
0.0458581
-0.105886
0.0464917
-0.108417
0.047112
-0.111072
0.0477239
-0.113854
0.0483296
-0.116762
0.0489296
-0.119793
0.0495227
-0.122941
0.050105
-0.126199
-0.129552
0.0506729
0.00126646
-0.00627866
0.00455778
-0.0201262
0.00928553
-0.0348435
0.0146861
-0.0491092
0.019993
-0.0617183
0.0246314
-0.071968
0.0283123
-0.0797494
0.0310075
-0.085398
0.0328586
-0.0894581
0.0340759
-0.092486
0.0348645
-0.0949368
0.0353853
-0.0971281
0.0357477
-0.0992546
0.0360171
-0.101422
0.0362295
-0.103683
0.0364032
-0.106059
0.0365479
-0.108561
0.0366687
-0.111192
0.0367688
-0.113954
0.0368499
-0.116843
0.0369124
-0.119856
0.036955
-0.122984
0.0369739
-0.126218
0.0369688
-0.129547
-0.000222466
-0.00158906
0.00181152
-0.000790374
-0.00389299
0.0044609
-0.00164114
-0.00556359
0.00641436
-0.00272342
-0.00671884
0.00780112
-0.00399395
-0.00747429
0.00874482
-0.00541748
-0.0079389
0.00936243
-0.00696654
-0.00820564
0.00975471
-0.00862072
-0.00834479
0.00999897
-0.0103652
-0.00840154
0.010146
-0.012189
-0.0083971
0.010221
-0.0140835
-0.00833243
0.0102269
-0.0160402
-0.00819299
0.0101497
-0.0180494
-0.00795339
0.00996259
-0.020099
-0.00758129
0.00963083
-0.022173
-0.00704013
0.00911419
-0.0242514
-0.0062909
0.00836929
-0.0263088
-0.00529383
0.00735117
-0.0283164
-0.00400719
0.00601487
-0.0302404
-0.00239223
0.00431615
-0.0320351
-0.000410272
0.00220499
-0.0336782
0.00194215
-0.000299049
-0.0351615
0.00472168
-0.00323836
-0.0364742
0.00795533
-0.00664262
0.0116832
-0.037664
-0.0104934
-0.000269576
-0.00131948
-0.000937639
-0.00322493
-0.00191466
-0.00458658
-0.00313117
-0.00550233
-0.00453277
-0.00607269
-0.00607813
-0.00639354
-0.00773702
-0.00654675
-0.00948789
-0.00659393
-0.0113153
-0.00657417
-0.0132071
-0.00650524
-0.0151526
-0.006387
-0.0171398
-0.00620577
-0.0191545
-0.00593867
-0.0211787
-0.00555706
-0.0231898
-0.00502902
-0.0251599
-0.00432078
-0.0270557
-0.00339811
-0.0288376
-0.00222524
-0.0304653
-0.000764504
-0.0318763
0.0010007
-0.033055
0.00312085
-0.0339586
0.00562529
-0.0345577
0.00855438
0.0119827
-0.0348572
-0.000300272
-0.00101921
-0.00103003
-0.00249517
-0.00207852
-0.00353809
-0.00336125
-0.0042196
-0.00481379
-0.00462015
-0.0063883
-0.00481902
-0.00805014
-0.00488492
-0.00977419
-0.00486988
-0.0115414
-0.00480699
-0.0133354
-0.00471125
-0.0151399
-0.00458242
-0.0169368
-0.00440889
-0.0187041
-0.00417137
-0.0204152
-0.00384594
-0.022038
-0.00340622
-0.0235341
-0.00282471
-0.0248585
-0.00207369
-0.025959
-0.00112474
-0.0267705
4.69484e-05
-0.0272398
0.00147006
-0.0273002
0.00318119
-0.0268948
0.0052199
-0.0259721
0.00763171
0.0104968
-0.0244862
-0.000314625
-0.000704584
-0.00106896
-0.00174083
-0.00213739
-0.00246966
-0.00342397
-0.00293303
-0.00485567
-0.00318845
-0.00637806
-0.00329664
-0.00795087
-0.00331211
-0.0095436
-0.00327714
-0.0111314
-0.00321916
-0.0126916
-0.0031511
-0.0142004
-0.00307356
-0.0156315
-0.00297788
-0.0169536
-0.0028492
-0.0181305
-0.00266902
-0.0191197
-0.00241706
-0.0198718
-0.00207261
-0.0203302
-0.00161525
-0.0204295
-0.00102546
-0.0200977
-0.000284869
-0.0192525
0.000624879
-0.0178028
0.00173146
-0.015656
0.00307314
-0.0127285
0.00470421
0.00679218
-0.00902389
-0.000314196
-0.000390387
-0.00105953
-0.000995504
-0.00210182
-0.00142737
-0.00333726
-0.00169759
-0.00468592
-0.00183979
-0.00608695
-0.0018956
-0.00749377
-0.00190529
-0.00886925
-0.00190165
-0.0101814
-0.00190701
-0.0113996
-0.00193291
-0.0124917
-0.00198145
-0.013422
-0.00204753
-0.0141501
-0.00212119
-0.0146294
-0.00218963
-0.0148077
-0.00223879
-0.0146259
-0.00225447
-0.0140178
-0.00222329
-0.0129098
-0.00213348
-0.0112193
-0.00197534
-0.00885131
-0.00174314
-0.00569461
-0.00142524
-0.00161795
-0.00100353
0.00350389
-0.000417631
0.000496313
0.00979976
-0.000300917
-8.94708e-05
-0.00100758
-0.000288844
-0.00198267
-0.000452268
-0.00311774
-0.000562517
-0.00432739
-0.000630144
-0.00554456
-0.000678432
-0.00671564
-0.000734208
-0.00779562
-0.000821674
-0.00874406
-0.000958574
-0.00952099
-0.00115599
-0.0100844
-0.00141803
-0.0103884
-0.00174356
-0.0103819
-0.00212768
-0.0100083
-0.00256325
-0.00920505
-0.003042
-0.00790404
-0.00355549
-0.00603131
-0.00409601
-0.00350725
-0.00465755
-0.000245862
-0.00523672
0.00384312
-0.00583212
0.0088695
-0.00645163
0.0149626
-0.00709664
0.0222677
-0.00772272
-0.00846449
0.0312285
-0.000276421
0.000186951
-0.000917564
0.000352299
-0.00178705
0.000417215
-0.00277401
0.000424441
-0.00378828
0.000384129
-0.00475611
0.000289397
-0.00561553
0.00012521
-0.00631104
-0.00012616
-0.00679205
-0.000477567
-0.00700591
-0.000942122
-0.00689786
-0.00152608
-0.00640883
-0.0022326
-0.00547463
-0.00306187
-0.00402598
-0.0040119
-0.00198883
-0.00507916
0.000714908
-0.00625922
0.00416638
-0.00754748
0.00844878
-0.00893995
0.0136464
-0.0104344
0.0198457
-0.0120314
0.027128
-0.0137339
0.0356145
-0.0155831
0.0452942
-0.0174024
-0.0200537
0.0568834
-0.000241844
0.000428795
-0.000791954
0.000902409
-0.0015172
0.00114246
-0.00230511
0.00121236
-0.0030602
0.00113922
-0.00370021
0.000929408
-0.00415192
0.000576914
-0.00434742
6.93454e-05
-0.00421895
-0.00060604
-0.00369843
-0.00146264
-0.00271383
-0.00251068
-0.00118905
-0.00375737
0.000955967
-0.00520689
0.00380431
-0.00686025
0.00744054
-0.00871538
0.0119487
-0.0107674
0.0174104
-0.0130092
0.0239025
-0.015432
0.0314947
-0.0180266
0.0402503
-0.020787
0.0502055
-0.0236891
0.0614599
-0.0268375
0.0738036
-0.0297462
-0.0342617
0.0880116
-0.000198157
0.000626952
-0.000632292
0.00133654
-0.00117288
0.00168304
-0.00170504
0.00174452
-0.00212597
0.00156015
-0.00234192
0.00114536
-0.00226464
0.000499631
-0.00180827
-0.000387024
-0.000886062
-0.00152825
0.000590779
-0.00293948
0.00271333
-0.00463322
0.00557422
-0.00661827
0.00926552
-0.00889819
0.0138757
-0.0114705
0.0194865
-0.0143261
0.026169
-0.01745
0.0339811
-0.0208213
0.0429645
-0.0244153
0.0531419
-0.0282041
0.0645196
-0.0321647
0.0770665
-0.036236
0.0907981
-0.040569
0.10546
-0.0444086
-0.0502811
0.12148
-0.000146695
0.000773647
-0.000440948
0.0016308
-0.000755115
0.00199721
-0.000969578
0.00195898
-0.000971258
0.00156183
-0.000651471
0.000825569
9.66672e-05
-0.000248507
0.00137927
-0.00166962
0.00330415
-0.00345313
0.00597809
-0.00561342
0.00950534
-0.00816047
0.0139834
-0.0110964
0.0194983
-0.014413
0.0261189
-0.0180911
0.0338928
-0.0221
0.0428418
-0.026399
0.05296
-0.0309395
0.0642131
-0.0356685
0.0765395
-0.0405304
0.0898508
-0.045476
0.104041
-0.0504264
0.118966
-0.0554935
0.134524
-0.0599664
-0.0661927
0.150435
-8.93935e-05
0.00086304
-0.00022211
0.00176351
-0.000268544
0.00204364
-0.000101265
0.0017917
0.000406376
0.00105419
0.00138041
-0.00014847
0.00294694
-0.00181503
0.0052317
-0.00395439
0.00835637
-0.0065778
0.0124342
-0.00969128
0.0175634
-0.0132897
0.0238195
-0.0173525
0.0312484
-0.0218418
0.0398599
-0.0267027
0.0496251
-0.0318652
0.0604749
-0.0372488
0.0723032
-0.0427678
0.0849716
-0.0483368
0.0983168
-0.0538757
0.112159
-0.0593181
0.126328
-0.0645956
0.140579
-0.0697444
0.154993
-0.0743804
-0.0798809
0.168681
-2.80252e-05
2.07269e-05
0.000281539
0.000894179
0.00200119
0.00374509
0.0062682
0.00970524
0.0141758
0.0197741
0.0265591
0.0345446
0.0436933
0.0539155
0.0650719
0.0769817
0.089434
0.102202
0.115056
0.127781
0.140192
0.152108
0.163658
0.174181
-0.0372401
0.020373
-0.020797
-0.036373
0.0288303
-0.0296974
-0.0349906
0.0382551
-0.0396375
-0.0330096
0.0483494
-0.0503304
-0.0303485
0.0587361
-0.0613972
-0.0269121
0.0688975
-0.0723338
-0.0225326
0.0781092
-0.0824888
-0.017
0.0855382
-0.0910707
-0.0100913
0.0902094
-0.0971181
-0.00162762
0.0910398
-0.0995035
0.00845937
0.0869429
-0.0970299
0.019907
0.0770698
-0.0885174
0.03232
0.0609434
-0.0733565
0.0451444
0.0385504
-0.0513748
0.0577932
0.0103706
-0.0230195
0.070183
-0.0224947
0.0101049
0.0820843
-0.0585683
0.046667
0.0931096
-0.0942995
0.0832742
0.102485
-0.124975
0.1156
0.109383
-0.146936
0.140038
0.113461
-0.159304
0.155226
0.114668
-0.163553
0.162346
0.112452
-0.163239
0.165454
0.106284
-0.163994
0.170162
0.0976558
-0.16909
0.177718
0.090679
-0.172461
0.179438
0.0895408
-0.159184
0.160322
0.095339
-0.11751
0.111712
0.106297
-0.0503447
0.039387
0.119211
0.0265624
-0.0394765
0.131123
0.0962624
-0.108175
0.140052
0.148299
-0.157227
0.14578
0.180138
-0.185867
0.148437
0.194745
-0.197403
0.146921
0.203652
-0.202136
0.140603
0.219521
-0.213203
0.132044
0.237319
-0.22876
0.126148
0.228887
-0.222991
0.126112
0.168837
-0.168801
0.13137
0.0646925
-0.0699505
0.138999
-0.0507484
0.0431189
0.146632
-0.142108
0.134476
0.152113
-0.19853
0.193048
0.152851
-0.22417
0.223432
0.147393
-0.246777
0.252234
0.138135
-0.261015
0.270273
0.130578
-0.250866
0.258423
0.129461
-0.17876
0.179876
0.134777
-0.0599711
0.0546555
0.142224
0.0619109
-0.0693581
0.146037
0.174708
-0.178522
0.143289
0.241925
-0.239177
0.137208
0.319724
-0.313642
0.132946
0.290556
-0.286295
0.132961
0.237784
-0.237799
0.136187
0.0784826
-0.0817091
0.136966
-0.0813184
0.0805394
0.134339
-0.167045
0.169672
0.131958
-0.365177
0.367558
-0.214185
0.215752
-0.0336183
0.0191341
-0.031756
0.026968
-0.0291929
0.0356919
-0.0257867
0.0449432
-0.0214184
0.0543678
-0.0160566
0.0635358
-0.00953919
0.0715918
-0.00176805
0.0777671
0.0072778
0.0811636
0.0175672
0.0807504
0.0289042
0.0756059
0.0409427
0.0650313
0.0531894
0.0486967
0.0651242
0.0266156
0.0763916
-0.000896729
0.0869634
-0.0330664
0.0967303
-0.0683353
0.105333
-0.102902
0.112097
-0.13174
0.116363
-0.151202
0.117975
-0.160915
0.117278
-0.162857
0.114103
-0.160064
0.107481
-0.157371
0.0977325
-0.159342
0.0883673
-0.163096
0.0844641
-0.155281
0.0885774
-0.121624
0.099322
-0.0610892
0.113228
0.0126561
0.126721
0.0827694
0.13757
0.137451
0.145214
0.172494
0.149291
0.190668
0.148653
0.204289
0.143172
0.225001
0.135711
0.244781
0.130741
0.233857
0.130878
0.1687
0.13548
0.0600903
0.141809
-0.0570766
0.147854
-0.148153
0.152042
-0.202717
0.152091
-0.224219
0.14633
-0.241015
0.136845
-0.251531
0.129147
-0.243168
0.128233
-0.177845
0.134079
-0.065817
0.142017
0.0539724
0.146139
0.170586
0.143612
0.244452
0.137574
0.325762
0.133283
0.294847
0.133282
0.237785
0.13667
0.0750949
0.137665
-0.0823134
0.135074
-0.164454
0.132879
-0.362982
-0.21277
-0.0223526
0.0170005
-0.0194546
0.02407
-0.0157965
0.0320339
-0.011152
0.0402987
-0.00544757
0.0486633
0.00153372
0.0565545
0.00965949
0.063466
0.0188364
0.0685901
0.0290361
0.070964
0.0400792
0.0697073
0.0516555
0.0640296
0.0633454
0.0533414
0.0746851
0.037357
0.0852742
0.0160264
0.0948328
-0.0104553
0.103419
-0.0416521
0.11093
-0.0758465
0.117
-0.108973
0.121076
-0.135815
0.122753
-0.152879
0.122065
-0.160228
0.119593
-0.160384
0.115589
-0.15606
0.109004
-0.150787
0.0990226
-0.14936
0.0879789
-0.152052
0.0812754
-0.148578
0.0830816
-0.12343
0.0929697
-0.0709774
0.107388
-0.00176256
0.122206
0.0679515
0.134911
0.124746
0.14445
0.162955
0.149986
0.185132
0.150428
0.203847
0.14607
0.22936
0.139846
0.251005
0.135689
0.238013
0.135779
0.16861
0.139568
0.0563013
0.14456
-0.0620685
0.149003
-0.152596
0.151888
-0.205602
0.151332
-0.223664
0.145423
-0.235107
0.135856
-0.241963
0.128059
-0.235371
0.127259
-0.177044
0.133501
-0.0720599
0.141876
0.0455979
0.146336
0.166126
0.144089
0.246699
0.138102
0.331749
0.133755
0.299194
0.13373
0.23781
0.137293
0.0715323
0.138539
-0.0835594
0.135984
-0.161898
0.133915
-0.360913
-0.211481
-0.00605299
0.0140296
-0.0024303
0.0204473
0.00246678
0.0271368
0.00837264
0.0343928
0.0152913
0.0417446
0.0231691
0.0486767
0.0320211
0.054614
0.0417987
0.0588125
0.0523162
0.0604465
0.0633022
0.0587213
0.0743963
0.0529356
0.0851788
0.0425589
0.0952529
0.0272829
0.104303
0.00697661
0.112169
-0.0183213
0.118843
-0.0483262
0.124194
-0.0811976
0.127797
-0.112576
0.129215
-0.137233
0.128372
-0.152036
0.12559
-0.157446
0.121525
-0.156319
0.116738
-0.151272
0.110477
-0.144526
0.101127
-0.14001
0.0894285
-0.140354
0.0802427
-0.139392
0.0791689
-0.122356
0.087417
-0.0792255
0.101738
-0.0160835
0.117603
0.0520866
0.132041
0.110307
0.143413
0.151584
0.150453
0.178093
0.152182
0.202118
0.149204
0.232338
0.144305
0.255904
0.140852
0.241466
0.140683
0.16878
0.143533
0.0534513
0.147192
-0.0657279
0.150066
-0.15547
0.151645
-0.207181
0.150538
-0.222557
0.144614
-0.229183
0.135097
-0.232447
0.127246
-0.227519
0.126475
-0.176273
0.133003
-0.0785881
0.141772
0.0368294
0.146612
0.161285
0.144719
0.248593
0.138809
0.337659
0.134389
0.303614
0.134319
0.237879
0.138053
0.0677981
0.139581
-0.0850872
0.137063
-0.159381
0.135059
-0.358909
-0.210295
0.0136692
0.0101601
0.0181923
0.0159242
0.0234957
0.0218334
0.0298114
0.0280771
0.0371278
0.0344283
0.0453785
0.040426
0.0544883
0.0455042
0.0643213
0.0489795
0.0746405
0.0501274
0.0851266
0.0482351
0.0954079
0.0426542
0.105102
0.0328645
0.113854
0.0185316
0.121564
-0.000733777
0.127924
-0.0246815
0.132897
-0.053299
0.136193
-0.0844935
0.137358
-0.113741
0.136161
-0.136036
0.132935
-0.14881
0.128333
-0.152844
0.122998
-0.150984
0.117524
-0.145798
0.111617
-0.138619
0.103472
-0.131866
0.0922522
-0.129134
0.0813895
-0.128529
0.0771913
-0.118158
0.0829814
-0.0850155
0.0964264
-0.0295286
0.11296
0.0355529
0.1289
0.0943672
0.141979
0.138505
0.150564
0.169508
0.153785
0.198897
0.152412
0.233711
0.148918
0.259397
0.146067
0.244318
0.145503
0.169344
0.14727
0.0516842
0.149641
-0.0680994
0.151009
-0.156837
0.151289
-0.207461
0.149672
-0.22094
0.143853
-0.223364
0.134505
-0.223099
0.126633
-0.219648
0.125817
-0.175457
0.132531
-0.0853023
0.141666
0.0276951
0.146942
0.156009
0.145494
0.250041
0.139706
0.343448
0.135204
0.308116
0.13506
0.238023
0.138946
0.063912
0.14078
-0.0869209
0.138307
-0.156907
0.136307
-0.35691
-0.209189
0.0349616
0.00642704
0.0393269
0.011559
0.0445511
0.0166092
0.0508155
0.0218127
0.0580708
0.0271729
0.0662051
0.0322917
0.0750997
0.0366096
0.0845707
0.0395085
0.0943514
0.0403467
0.104112
0.0384743
0.113493
0.033273
0.122167
0.0241911
0.129809
0.0108898
0.136396
-0.00732124
0.141549
-0.0298338
0.145045
-0.0567957
0.146408
-0.0858563
0.145226
-0.112559
0.141597
-0.132408
0.136253
-0.143465
0.130138
-0.146729
0.123885
-0.144731
0.117913
-0.139825
0.112256
-0.132963
0.105499
-0.125109
0.0957466
-0.119381
0.084409
-0.117192
0.0773625
-0.111111
0.0799517
-0.0876047
0.0916963
-0.0412732
0.108313
0.0189358
0.125389
0.077292
0.139983
0.12391
0.150131
0.159359
0.15503
0.193999
0.15546
0.233281
0.153473
0.261384
0.151183
0.246607
0.150069
0.170458
0.150741
0.0510122
0.151838
-0.0691955
0.151795
-0.156795
0.150794
-0.20646
0.14869
-0.218836
0.143083
-0.217757
0.134007
-0.214022
0.126138
-0.211779
0.125209
-0.174528
0.132021
-0.0921144
0.141508
0.0182086
0.14729
0.150227
0.146396
0.250935
0.140794
0.349049
0.136214
0.312696
0.135965
0.238271
0.139969
0.0599087
0.142124
-0.0890766
0.139703
-0.154486
0.137651
-0.354858
-0.208141
0.0592449
0.00406556
0.0624079
0.00839597
0.0665795
0.0124375
0.0719166
0.0164757
0.0783192
0.0207703
0.0856573
0.0249536
0.0937812
0.0284857
0.102469
0.0308206
0.111432
0.0313841
0.120334
0.0295716
0.128821
0.0247865
0.136602
0.0164102
0.143356
0.00413581
0.148951
-0.0129166
0.152995
-0.0338782
0.155029
-0.0588289
0.154472
-0.0852998
0.151068
-0.109156
0.145286
-0.126626
0.138194
-0.136373
0.130911
-0.139446
0.124069
-0.137889
0.117846
-0.133602
0.112337
-0.127454
0.106778
-0.11955
0.0990562
-0.11166
0.0886044
-0.10674
0.0796448
-0.102152
0.078647
-0.0866069
0.0877668
-0.0503929
0.103665
0.00303772
0.121382
0.0595746
0.137242
0.108051
0.148941
0.14766
0.155674
0.187266
0.158098
0.230856
0.157722
0.26176
0.156014
0.248316
0.154342
0.172129
0.153808
0.0515466
0.153709
-0.0690965
0.152376
-0.155462
0.150135
-0.204219
0.147545
-0.216245
0.142243
-0.212456
0.133536
-0.205314
0.125678
-0.203921
0.124567
-0.173418
0.1314
-0.0989469
0.141239
0.00836967
0.14761
0.143856
0.147397
0.251148
0.142067
0.354379
0.137429
0.317334
0.137043
0.238657
0.141116
0.0558355
0.1436
-0.0915604
0.141238
-0.152124
0.139082
-0.352702
-0.207132
0.0881493
0.00392792
0.0892994
0.00724582
0.0916154
0.0101215
0.0951633
0.0129278
0.0998462
0.0160874
0.105586
0.019214
0.112239
0.0218321
0.119569
0.0234912
0.127279
0.0236735
0.13503
0.0218212
0.142442
0.0173744
0.149112
0.00974025
0.155155
-0.00190769
0.15956
-0.017321
0.162288
-0.0366066
0.16266
-0.0592002
0.160119
-0.082759
0.154658
-0.103695
0.147094
-0.119061
0.138708
-0.127987
0.13064
-0.131378
0.123478
-0.130728
0.117239
-0.127362
0.111869
-0.122084
0.107133
-0.114814
0.101445
-0.105972
0.0929743
-0.0982686
0.0835599
-0.0927375
0.0793215
-0.0823685
0.0849066
-0.0559781
0.0990457
-0.0111013
0.116748
0.0418721
0.133574
0.0912242
0.146788
0.134447
0.155451
0.178603
0.159986
0.226322
0.161335
0.260411
0.160317
0.249333
0.158163
0.174284
0.156428
0.0532813
0.15518
-0.0678482
0.15269
-0.152972
0.149279
-0.200807
0.146187
-0.213153
0.141267
-0.207537
0.133029
-0.197076
0.12518
-0.196072
0.123811
-0.172049
0.130589
-0.105724
0.14079
-0.00183212
0.147846
0.136799
0.148453
0.250541
0.143503
0.359329
0.138848
0.321989
0.138297
0.239208
0.142385
0.0517478
0.145192
-0.0943679
0.142897
-0.149828
0.140591
-0.350396
-0.206151
0.119716
0.00569145
0.119023
0.00793951
0.11943
0.00971401
0.12092
0.0114379
0.123504
0.0135034
0.12718
0.015538
0.131834
0.0171785
0.137257
0.0180677
0.143193
0.0177381
0.14932
0.0156938
0.155276
0.0114184
0.160541
0.00447528
0.165093
-0.00645949
0.168059
-0.020287
0.169106
-0.0376538
0.167575
-0.0576695
0.163054
-0.0782378
0.155826
-0.0964674
0.146953
-0.110188
0.137769
-0.118803
0.1293
-0.122908
0.122031
-0.123459
0.115929
-0.12126
0.110776
-0.116931
0.106541
-0.110579
0.102457
-0.101888
0.096462
-0.0922737
0.0881575
-0.0844329
0.0818419
-0.0760529
0.0835236
-0.0576598
0.09469
-0.0222678
0.111455
0.0251068
0.128813
0.0738662
0.143449
0.119811
0.15414
0.167912
0.160949
0.219512
0.16413
0.25723
0.163863
0.2496
0.161328
0.176818
0.158558
0.0560517
0.156168
-0.0654582
0.152653
-0.149458
0.148171
-0.196325
0.144552
-0.209534
0.140076
-0.20306
0.132428
-0.189428
0.124588
-0.188233
0.12287
-0.170331
0.12951
-0.112364
0.140093
-0.0124154
0.147935
0.128958
0.149517
0.248959
0.145071
0.363775
0.140461
0.3266
0.139726
0.239943
0.143768
0.0477052
0.146884
-0.0974839
0.14466
-0.147604
0.142167
-0.347903
-0.205192
0.147817
0.0083099
0.146213
0.0095428
0.145431
0.0104959
0.145409
0.0114601
0.146329
0.0125832
0.1482
0.013668
0.150919
0.0144592
0.154346
0.0146407
0.158282
0.0138022
0.162443
0.0115324
0.166544
0.00731735
0.170112
0.000907353
0.172672
-0.00901926
0.173766
-0.0213807
0.172827
-0.0367149
0.169306
-0.0541485
0.163005
-0.0719367
0.154454
-0.087917
0.144801
-0.100534
0.135276
-0.109278
0.126721
-0.114354
0.119503
-0.116241
0.113611
-0.115368
0.108775
-0.112095
0.104909
-0.106713
0.101877
-0.0988561
0.0982063
-0.088603
0.0921565
-0.0783831
0.0854957
-0.0693921
0.0838248
-0.0559889
0.0911234
-0.0295663
0.10575
0.0104804
0.122938
0.0566785
0.138773
0.103975
0.151461
0.155224
0.160539
0.210434
0.165644
0.252125
0.166339
0.248905
0.163716
0.179442
0.160086
0.0596817
0.156633
-0.0620048
0.152202
-0.145027
0.146782
-0.190906
0.14261
-0.205362
0.138601
-0.199051
0.131685
-0.182512
0.123883
-0.180431
0.121699
-0.168148
0.128095
-0.11876
0.139077
-0.0233975
0.14781
0.120225
0.15052
0.246249
0.146723
0.367572
0.142243
0.33108
0.141318
0.240868
0.145258
0.0437658
0.148657
-0.100883
0.146506
-0.145453
0.143802
-0.345199
-0.204258
0.16632
0.010671
0.164722
0.0111403
0.163578
0.0116407
0.162955
0.0120829
0.163061
0.012477
0.163878
0.0128507
0.165324
0.0130139
0.167288
0.0126765
0.169606
0.0114843
0.172042
0.00909626
0.174202
0.0051569
0.175928
-0.000818627
0.176628
-0.00971865
0.175829
-0.0205822
0.173027
-0.0339129
0.167825
-0.0489462
0.160269
-0.0643808
0.151038
-0.0786855
0.141203
-0.0906995
0.131779
-0.0998537
0.123411
-0.105986
0.116359
-0.10919
0.110655
-0.109663
0.106108
-0.107548
0.102526
-0.103131
0.100025
-0.0963554
0.0980077
-0.0865856
0.0945314
-0.0749068
0.089133
-0.0639936
0.0855503
-0.0524063
0.0888835
-0.0328995
0.100207
-0.000842861
0.116172
0.0407133
0.132765
0.0873826
0.147506
0.140482
0.159116
0.198825
0.166249
0.244991
0.167805
0.24735
0.165295
0.181951
0.161145
0.0638317
0.156729
-0.0575888
0.151458
-0.139756
0.145253
-0.184701
0.14049
-0.200599
0.136883
-0.195444
0.130806
-0.176435
0.123098
-0.172723
0.120333
-0.165383
0.126319
-0.124746
0.137653
-0.0347314
0.147393
0.110485
0.151403
0.242239
0.148407
0.370569
0.144152
0.335334
0.143053
0.241967
0.146846
0.0399734
0.150495
-0.104532
0.148414
-0.143372
0.145494
-0.34228
-0.203363
0.173009
0.0118428
0.171894
0.0122553
0.171096
0.0124389
0.170648
0.0125309
0.170576
0.0125487
0.170945
0.0124818
0.171737
0.0122221
0.172852
0.0115614
0.174118
0.0102182
0.175358
0.00785611
0.176392
0.00412295
0.17683
-0.00125617
0.175909
-0.00879816
0.173631
-0.0183036
0.16953
-0.0298123
0.163425
-0.0428408
0.155533
-0.0564895
0.146525
-0.0696773
0.137257
-0.0814308
0.128465
-0.0910621
0.120618
-0.0981392
0.11391
-0.102482
0.1084
-0.104153
0.104029
-0.103177
0.100599
-0.0997015
0.0982047
-0.0939609
0.0969275
-0.0853084
0.0954498
-0.0734291
0.0920776
-0.0606214
0.0882028
-0.0485315
0.0883921
-0.0330888
0.095649
-0.00809978
0.10914
0.0272224
0.125266
0.0712566
0.141279
0.12447
0.155222
0.184881
0.16455
0.235664
0.167522
0.244377
0.165853
0.183621
0.161774
0.0679102
0.156428
-0.0522422
0.150456
-0.133784
0.143705
-0.177949
0.138355
-0.19525
0.135015
-0.192104
0.129811
-0.171231
0.122272
-0.165183
0.118842
-0.161953
0.124321
-0.130225
0.135843
-0.0462534
0.14662
0.0997082
0.15207
0.236789
0.150071
0.372568
0.146164
0.339241
0.144909
0.243222
0.148535
0.0363467
0.152367
-0.108364
0.150374
-0.141379
0.147249
-0.339154
-0.202493
0.191439
0.0129998
-0.192596
0.190793
0.0129016
0.190308
0.0129231
0.190018
0.0128211
0.190002
0.0125654
0.190338
0.0121456
0.191094
0.0114662
0.192306
0.0103486
0.193976
0.00854858
0.19604
0.00579238
0.198294
0.00186873
0.200616
-0.00357779
0.202554
-0.010737
0.203804
-0.0195535
0.203897
-0.0299053
0.202454
-0.0413979
0.199317
-0.0533519
0.194597
-0.064958
0.188594
-0.0754273
0.18167
-0.0841378
0.174189
-0.0906585
0.166466
-0.0947588
0.158756
-0.096443
0.151272
-0.0956925
0.144053
-0.0924829
0.137129
-0.0870367
0.130816
-0.0789954
0.124861
-0.0674742
0.117793
-0.0535538
0.109051
-0.0397891
0.101188
-0.0252259
0.0981393
-0.00505102
0.100377
0.0249846
0.106156
0.0654773
0.112885
0.117741
0.119717
0.178049
0.127513
0.227867
0.138725
0.233165
0.153502
0.168844
0.166103
0.0553091
0.17267
-0.0588087
0.17242
-0.133534
0.166725
-0.172254
0.159195
-0.187719
0.152348
-0.185257
0.144342
-0.163225
0.134482
-0.155324
0.12713
-0.154601
0.126233
-0.129328
0.129627
-0.0496475
0.132764
0.0965716
0.133173
0.236379
0.131314
0.374427
0.131509
0.339046
0.134974
0.239758
0.141378
0.0299419
0.144935
-0.11192
0.1424
-0.138845
0.13712
-0.333874
-0.199163
0.204025
0.0132439
-0.20427
0.203973
0.0129544
0.204127
0.0127686
0.204446
0.0125019
0.204955
0.0120566
0.205711
0.0113898
0.206757
0.01042
0.208101
0.00900431
0.209696
0.00695359
0.211434
0.00405454
0.213206
9.69069e-05
0.214787
-0.00515856
0.215857
-0.0118076
0.216125
-0.0198213
0.215277
-0.029057
0.213067
-0.0391882
0.209405
-0.0496898
0.204373
-0.0599259
0.198196
-0.0692503
0.191183
-0.0771249
0.183676
-0.0831515
0.17599
-0.0870725
0.168359
-0.0888123
0.160971
-0.0883039
0.153915
-0.0854268
0.147154
-0.0802762
0.140886
-0.0727275
0.135289
-0.0618774
0.129374
-0.0476388
0.121779
-0.0321932
0.113491
-0.0169383
0.107885
0.000555327
0.10773
0.0251391
0.11236
0.0608474
0.119593
0.110508
0.127848
0.169794
0.137754
0.217962
0.151685
0.219233
0.168322
0.152208
0.181406
0.0422249
0.187011
-0.0644136
0.185497
-0.13202
0.178552
-0.165309
0.169848
-0.179015
0.162341
-0.17775
0.154224
-0.155108
0.144053
-0.145152
0.135928
-0.146476
0.134392
-0.127792
0.137733