/*--------------------------------*- C++ -*----------------------------------*\
| =========                 |                                                 |
| \\      /  F ield         | OpenFOAM: The Open Source CFD Toolbox           |
|  \\    /   O peration     | Version:  2512                                  |
|   \\  /    A nd           | Website:  www.openfoam.com                      |
|    \\/     M anipulation  |                                                 |
\*---------------------------------------------------------------------------*/
FoamFile
{
    version     2.0;
    format      ascii;
    arch        "LSB;label=32;scalar=64";
    class       volVectorField;
    location    "78";
    object      U;
}
// * * * * * * * * * * * * * * * * * * * * * * * * * * * * * * * * * * * * * //

dimensions      [0 1 -1 0 0 0 0];

internalField   nonuniform List<vector> 
13248
(
(-0.0116132 0.011152 7.43323e-20)
(-0.0188617 0.0214162 0)
(-0.0116608 0.0244317 -1.4103e-19)
(0.00855063 0.0226057 1.32852e-19)
(0.0409677 0.0178898 1.2487e-19)
(0.0850903 0.0118155 0)
(0.140455 0.00551982 0)
(0.206427 -0.000164997 3.02431e-19)
(0.282003 -0.00463971 -2.14812e-21)
(0.365681 -0.0074976 -2.62899e-19)
(0.455419 -0.00850611 2.40334e-19)
(0.548695 -0.00759787 -1.50058e-19)
(0.642671 -0.00486061 0)
(0.734413 -0.000518489 -2.44175e-19)
(0.821139 0.00509775 4.50268e-19)
(0.900442 0.0115895 -1.06672e-19)
(0.97047 0.0185356 -1.78394e-19)
(1.03003 0.0255226 1.67473e-19)
(1.07864 0.0322298 0)
(1.11643 0.0382491 0)
(1.14428 0.0437879 0)
(1.16273 0.0474893 0)
(1.17506 0.0523146 4.41028e-20)
(1.17847 0.0508134 1.5148e-19)
(-0.010681 0.00928316 -2.24556e-19)
(-0.0131374 0.0165254 1.53252e-19)
(0.00219103 0.017862 -1.08735e-21)
(0.0335555 0.0154523 -2.02888e-19)
(0.0798593 0.0111442 -1.24733e-19)
(0.140207 0.00644805 -1.17937e-19)
(0.213515 0.00248003 -2.17246e-19)
(0.298251 1.64533e-05 2.04999e-19)
(0.392243 -0.00046245 0)
(0.492634 0.00124692 1.59325e-21)
(0.595991 0.00508917 3.21304e-21)
(0.698567 0.0107819 1.49359e-19)
(0.796647 0.0178676 0)
(0.8869 0.0257829 0)
(0.966683 0.0339355 1.62335e-19)
(1.03424 0.041777 -3.0469e-19)
(1.08877 0.0488612 1.74773e-19)
(1.13042 0.0548786 -1.64084e-19)
(1.16011 0.0596753 -7.03677e-20)
(1.17941 0.0632059 -1.22977e-19)
(1.19011 0.0656745 -4.88432e-20)
(1.19446 0.0668119 -9.02392e-20)
(1.19399 0.0683592 1.36606e-19)
(1.19022 0.0657114 3.83951e-20)
(-0.00871333 0.00702217 0)
(-0.00389429 0.0106314 0)
(0.0223056 0.0101233 7.18017e-20)
(0.0677042 0.0074177 6.63813e-20)
(0.130715 0.00424018 -1.38026e-21)
(0.20971 0.00202821 -1.20925e-19)
(0.302506 0.00176472 0)
(0.406108 0.00399559 -1.01848e-19)
(0.516658 0.00885825 9.48193e-20)
(0.62962 0.0161137 7.50835e-23)
(0.740186 0.0252114 -1.60129e-19)
(0.843785 0.035393 -1.44214e-19)
(0.936577 0.0458196 4.50676e-21)
(1.01583 0.0556981 -1.13727e-19)
(1.0801 0.0643863 2.77159e-19)
(1.12923 0.071458 0)
(1.1642 0.0767255 -1.70705e-19)
(1.18683 0.0802167 8.32544e-20)
(1.19943 0.0821406 7.03048e-20)
(1.20447 0.0827678 0)
(1.20432 0.0825531 5.53598e-20)
(1.20091 0.0814559 -1.8853e-19)
(1.19573 0.0808501 1.76978e-19)
(1.19031 0.0773275 1.08709e-19)
(-0.00542867 0.00449421 -7.9127e-20)
(0.00967284 0.00425487 -8.16779e-20)
(0.049933 0.00223257 7.41527e-20)
(0.112484 3.20906e-05 0)
(0.194869 -0.000826027 0)
(0.294184 0.000887396 -1.96214e-21)
(0.406506 0.00580908 0)
(0.526814 0.0139805 -3.07674e-19)
(0.649276 0.0249152 2.84917e-19)
(0.767845 0.0377161 -3.50794e-19)
(0.876996 0.0512526 7.98552e-20)
(0.972383 0.0643672 0)
(1.05128 0.0760644 1.2885e-19)
(1.11272 0.0856437 -2.37032e-19)
(1.15734 0.0927579 5.633e-20)
(1.18701 0.0973978 1.39166e-19)
(1.2044 0.0998209 -8.69273e-21)
(1.21244 0.100451 -1.53889e-19)
(1.21396 0.0997725 0)
(1.21136 0.0982363 0)
(1.20647 0.0962745 -5.24599e-20)
(1.20054 0.0939171 4.65226e-20)
(1.19442 0.0922204 1.62751e-19)
(1.18834 0.0881058 -1.52794e-19)
(-0.00046728 0.0018203 -8.29349e-20)
(0.0284144 -0.00204797 -8.27373e-20)
(0.0861653 -0.00471781 2.32882e-19)
(0.16884 -0.00509071 -1.41599e-19)
(0.272531 -0.00204603 1.33284e-19)
(0.392347 0.00518395 2.4253e-19)
(0.522 0.0165661 -1.70943e-19)
(0.654161 0.0313121 -2.06568e-19)
(0.781314 0.0480871 5.02946e-21)
(0.896785 0.0652959 2.63908e-19)
(0.995632 0.0813972 0)
(1.07514 0.0951691 7.12008e-20)
(1.13487 0.105867 0)
(1.17627 0.113258 -1.13453e-19)
(1.20211 0.117541 1.59158e-19)
(1.21581 0.119213 1.29736e-21)
(1.22077 0.118905 -4.07536e-20)
(1.22 0.117245 7.48092e-20)
(1.21585 0.114772 6.44149e-20)
(1.20997 0.111883 -5.71864e-20)
(1.20341 0.108857 5.24468e-20)
(1.19679 0.105737 -4.65106e-20)
(1.19035 0.103109 0)
(1.18439 0.0986756 -3.53139e-20)
(0.00655984 -0.00083151 8.29231e-20)
(0.0530923 -0.00761235 8.67302e-20)
(0.131698 -0.00953026 -7.79492e-20)
(0.23683 -0.00632017 1.45049e-19)
(0.362395 0.00240072 -1.36524e-19)
(0.500816 0.0165523 1.23342e-19)
(0.643113 0.0350477 -5.91034e-20)
(0.780008 0.0560193 1.55208e-19)
(0.903362 0.077279 -9.72623e-20)
(1.00739 0.0967922 1.70601e-19)
(1.08924 0.113045 -3.923e-19)
(1.14895 0.12523 1.43488e-19)
(1.18876 0.133231 -1.23856e-19)
(1.2123 0.137471 1.16338e-19)
(1.22364 0.138687 9.86759e-20)
(1.22659 0.137708 8.53043e-20)
(1.22431 0.135295 -2.37417e-19)
(1.21911 0.13205 1.46715e-19)
(1.21252 0.128397 -6.44165e-20)
(1.20547 0.124601 1.66521e-19)
(1.19846 0.120814 -5.3809e-20)
(1.19174 0.117068 -1.29191e-19)
(1.18541 0.113673 1.18976e-19)
(1.17951 0.109023 3.53023e-20)
(0.0160067 -0.00320993 0)
(0.084224 -0.0116224 5.92371e-22)
(0.186608 -0.0109125 1.61906e-19)
(0.315391 -0.00211292 -1.51994e-19)
(0.461553 0.0139352 -1.37006e-19)
(0.614416 0.0358384 2.54475e-19)
(0.762642 0.0611521 -1.18102e-19)
(0.896164 0.0869327 1.56837e-19)
(1.00789 0.110471 -3.75789e-21)
(1.09454 0.129827 -8.84223e-20)
(1.1564 0.144053 1.91346e-19)
(1.19644 0.153128 -2.81535e-19)
(1.2191 0.157696 0)
(1.22914 0.158743 -5.44315e-20)
(1.23079 0.157304 -1.43987e-19)
(1.22742 0.154282 4.54736e-20)
(1.22137 0.150359 2.03506e-21)
(1.21413 0.145997 -9.65994e-20)
(1.20659 0.141479 7.01189e-21)
(1.19919 0.136963 1.11291e-19)
(1.19213 0.132528 -4.88451e-20)
(1.1855 0.128211 -1.84247e-20)
(1.17926 0.124107 5.73027e-20)
(1.17343 0.119256 0)
(0.0281258 -0.00496907 0)
(0.121932 -0.013117 4.38623e-20)
(0.25018 -0.00753769 -2.10585e-19)
(0.402264 0.008851 7.65383e-20)
(0.565734 0.0334033 -7.20354e-20)
(0.727012 0.0630073 -6.55695e-20)
(0.873557 0.0938219 -1.15852e-19)
(0.996299 0.1222 5.79111e-20)
(1.09092 0.145531 5.03356e-20)
(1.15764 0.16257 0)
(1.20002 0.173321 1.13176e-19)
(1.22331 0.17864 -1.67482e-19)
(1.233 0.179783 1.24572e-19)
(1.23392 0.178031 5.44592e-20)
(1.22973 0.174464 -4.40628e-20)
(1.22294 0.169875 -3.62687e-20)
(1.21508 0.164791 -3.36058e-20)
(1.20702 0.159526 1.01694e-19)
(1.1992 0.154257 0)
(1.19179 0.149073 5.01651e-20)
(1.18484 0.144018 4.16355e-20)
(1.17835 0.139115 -1.03986e-19)
(1.17224 0.134343 -7.0332e-20)
(1.16648 0.129288 6.50713e-20)
(0.0430103 -0.00568299 -4.70083e-20)
(0.165827 -0.0110535 -1.57921e-21)
(0.320837 0.00182861 4.27533e-20)
(0.494141 0.0275002 1.19083e-19)
(0.669883 0.0609635 3.44827e-20)
(0.832603 0.0972355 -6.66998e-20)
(0.970386 0.131438 6.10149e-20)
(1.07701 0.159911 -5.34646e-20)
(1.15206 0.180828 9.53769e-20)
(1.19937 0.194072 4.04337e-20)
(1.22504 0.200682 -1.14624e-19)
(1.23546 0.202225 3.36614e-20)
(1.2362 0.20029 5.69947e-20)
(1.23143 0.1962 -2.81321e-20)
(1.22396 0.19091 0)
(1.21544 0.185043 4.12594e-20)
(1.20681 0.178963 6.92144e-20)
(1.19848 0.172872 1.14152e-20)
(1.19064 0.166873 -5.7359e-20)
(1.18333 0.161016 2.37911e-20)
(1.17654 0.155328 0)
(1.1702 0.149808 -1.84833e-20)
(1.16422 0.144403 -1.73562e-20)
(1.15853 0.139086 0)
(0.0605432 -0.00488256 0)
(0.214941 -0.00442028 2.45884e-20)
(0.396179 0.0181649 4.54088e-20)
(0.586995 0.0542277 -1.21079e-19)
(0.768901 0.0960919 3.9018e-20)
(0.926308 0.137165 0)
(1.04993 0.172265 5.8508e-20)
(1.13774 0.19852 -8.16049e-20)
(1.19341 0.215412 -4.75356e-20)
(1.22377 0.22408 2.14958e-20)
(1.23631 0.226441 -3.39133e-20)
(1.23759 0.224487 8.26047e-20)
(1.23255 0.219877 4.10443e-20)
(1.22446 0.213806 -2.87454e-20)
(1.21526 0.207038 -2.89549e-21)
(1.20596 0.200018 -7.72062e-20)
(1.19705 0.192985 3.50622e-20)
(1.18872 0.18606 -8.8785e-22)
(1.181 0.179302 0)
(1.17387 0.17274 -2.38158e-20)
(1.16727 0.166387 0)
(1.1611 0.160219 5.32016e-20)
(1.15529 0.154213 -6.31123e-20)
(1.14969 0.148554 2.86794e-20)
(0.080364 -0.00210162 -1.27226e-20)
(0.267726 0.00764357 -6.16607e-20)
(0.47316 0.0420516 7.00182e-20)
(0.676555 0.0888289 4.11328e-20)
(0.85833 0.137708 -1.9691e-20)
(1.00487 0.181203 3.2937e-20)
(1.11115 0.214762 -1.60358e-20)
(1.1798 0.236979 2.66131e-20)
(1.21809 0.248875 0)
(1.23473 0.252724 5.98873e-20)
(1.23762 0.251033 -2.57795e-21)
(1.23279 0.245939 -4.812e-20)
(1.22424 0.238986 2.05026e-20)
(1.21434 0.23116 -2.29794e-20)
(1.20432 0.223027 -8.60781e-21)
(1.19475 0.214884 1.00941e-20)
(1.18585 0.206879 -7.69361e-21)
(1.17765 0.199081 -4.15414e-20)
(1.17013 0.191524 2.54267e-20)
(1.16324 0.184223 5.15475e-21)
(1.15687 0.177174 4.51396e-21)
(1.15093 0.170343 3.95398e-21)
(1.1453 0.163772 0)
(1.13984 0.157663 0)
(0.101931 0.00308579 1.27314e-20)
(0.322263 0.0257555 -1.27375e-20)
(0.548518 0.0735816 -2.32999e-20)
(0.758923 0.130532 0)
(0.93487 0.184377 -9.75473e-21)
(1.06667 0.227789 -8.74167e-21)
(1.15447 0.257737 -1.49646e-20)
(1.20528 0.274684 0)
(1.229 0.281149 0)
(1.23518 0.280265 0)
(1.23136 0.274831 0)
(1.22267 0.266912 0)
(1.21215 0.257837 -1.28308e-20)
(1.20138 0.248366 5.8323e-21)
(1.1911 0.238891 1.00891e-20)
(1.18156 0.229598 4.71024e-21)
(1.17284 0.220572 1.15599e-20)
(1.1649 0.21185 0)
(1.15769 0.203448 -2.72948e-21)
(1.15112 0.19537 -2.60035e-21)
(1.14507 0.187594 -4.52113e-21)
(1.13944 0.180097 -3.96029e-21)
(1.13408 0.172989 0)
(1.12887 0.16632 2.79299e-21)
(-0.000437968 -0.0249127 8.15306e-21)
(-0.00425539 -0.0630162 -8.4658e-21)
(-0.012761 -0.0920553 -1.6031e-20)
(-0.0239288 -0.113408 0)
(-0.0365367 -0.128569 -2.148e-20)
(-0.0498737 -0.139099 6.76194e-21)
(-0.0634024 -0.146435 -1.27226e-20)
(-0.0767299 -0.151758 0)
(-0.0895973 -0.155913 0)
(-0.101847 -0.15941 0)
(-0.113391 -0.162468 0)
(-0.124179 -0.165078 0)
(-0.134184 -0.167075 1.12266e-22)
(-0.143378 -0.168199 -8.48167e-21)
(-0.151727 -0.168132 1.57935e-20)
(-0.159186 -0.166524 2.24261e-20)
(-0.165694 -0.163014 6.83535e-21)
(-0.171179 -0.157238 0)
(-0.175569 -0.14884 6.33804e-21)
(-0.178805 -0.137491 -1.74488e-20)
(-0.180826 -0.122913 -1.07542e-20)
(-0.181528 -0.104865 -1.00402e-20)
(-0.180988 -0.0830633 0)
(-0.180169 -0.0573592 0)
(0.000430563 -0.0205087 -2.44221e-20)
(-0.00264368 -0.0525748 4.21986e-20)
(-0.0115206 -0.0776178 -1.58087e-20)
(-0.0235964 -0.0964279 -3.01832e-20)
(-0.0373325 -0.110119 4.27071e-20)
(-0.0518572 -0.119975 -2.68769e-20)
(-0.0665366 -0.127213 3.80006e-20)
(-0.0809271 -0.132831 2.37886e-20)
(-0.0947525 -0.137544 0)
(-0.107858 -0.141767 -2.13093e-20)
(-0.120168 -0.14566 -5.17159e-23)
(-0.131649 -0.149186 1.88698e-20)
(-0.142287 -0.152177 2.63753e-20)
(-0.15207 -0.154379 3.3096e-20)
(-0.160976 -0.155496 -1.58245e-20)
(-0.168973 -0.155201 -4.39802e-20)
(-0.176015 -0.153154 1.32555e-20)
(-0.182043 -0.149003 -5.03615e-20)
(-0.187009 -0.14239 0)
(-0.190894 -0.132957 1.14857e-20)
(-0.193659 -0.120365 1.07418e-20)
(-0.1951 -0.104276 1.00285e-20)
(-0.195233 -0.0842901 0)
(-0.19606 -0.0601905 0)
(0.000694917 -0.0153027 0)
(-0.00220196 -0.0404845 8.37646e-20)
(-0.0114094 -0.0611997 -3.16276e-20)
(-0.0239883 -0.0774446 3.00728e-20)
(-0.0382158 -0.0898105 -8.4804e-20)
(-0.0531271 -0.0992069 0)
(-0.0680322 -0.106566 -5.03462e-20)
(-0.0824564 -0.112677 2.35871e-20)
(-0.0961117 -0.118109 -4.4499e-20)
(-0.108842 -0.123187 2.07404e-20)
(-0.120574 -0.128023 1.17887e-19)
(-0.131278 -0.132563 -5.53251e-20)
(-0.140943 -0.136642 -8.64613e-20)
(-0.149559 -0.140026 -3.16787e-20)
(-0.157108 -0.142439 4.51907e-22)
(-0.163558 -0.143581 1.1232e-19)
(-0.168866 -0.143132 -5.2478e-20)
(-0.172973 -0.140755 1.1779e-21)
(-0.175827 -0.136086 0)
(-0.17741 -0.128735 -3.97627e-20)
(-0.17769 -0.118283 0)
(-0.176356 -0.10427 -3.50182e-20)
(-0.173161 -0.0862184 1.25587e-19)
(-0.170943 -0.0639553 -1.48347e-21)
(0.000298328 -0.00969338 0)
(-0.00301362 -0.0275839 5.45289e-24)
(-0.0124753 -0.043838 3.16791e-20)
(-0.0250955 -0.0575585 -2.9963e-20)
(-0.0391196 -0.0687321 2.81394e-20)
(-0.0535673 -0.0778371 1.59807e-19)
(-0.0677358 -0.0854842 -5.0142e-20)
(-0.081142 -0.0922355 -4.72303e-20)
(-0.0934918 -0.098509 8.88407e-20)
(-0.104625 -0.104543 -1.24961e-19)
(-0.114462 -0.110407 3.89939e-20)
(-0.122969 -0.116039 3.64007e-20)
(-0.130131 -0.121281 0)
(-0.135933 -0.12592 3.20154e-20)
(-0.140357 -0.129706 0)
(-0.14337 -0.132365 5.38842e-20)
(-0.144929 -0.13361 -9.94123e-20)
(-0.144975 -0.133131 2.58443e-20)
(-0.143439 -0.130586 8.55233e-20)
(-0.140274 -0.125585 3.97273e-20)
(-0.135448 -0.11765 0)
(-0.128616 -0.106179 -9.3969e-20)
(-0.11898 -0.0904544 3.0726e-20)
(-0.109182 -0.0700203 0)
(-0.000732414 -0.00409487 0)
(-0.00500784 -0.0147283 -1.0048e-19)
(-0.0146057 -0.0265685 -3.20387e-20)
(-0.0267634 -0.037843 -6.00039e-20)
(-0.0398481 -0.0479228 5.6504e-20)
(-0.0529399 -0.0568387 -5.32859e-20)
(-0.0653662 -0.0648672 1.00429e-19)
(-0.0766563 -0.0723359 4.713e-20)
(-0.0865159 -0.0795125 -1.331e-19)
(-0.0947769 -0.0865493 8.29291e-20)
(-0.10135 -0.0934766 -1.16533e-19)
(-0.10619 -0.100222 2.5335e-19)
(-0.109273 -0.106639 -1.35673e-19)
(-0.110579 -0.11253 6.24037e-20)
(-0.11009 -0.117668 1.72134e-19)
(-0.107784 -0.121806 -5.62377e-20)
(-0.103634 -0.124687 -5.09356e-20)
(-0.0976042 -0.126043 -4.63904e-20)
(-0.0896426 -0.125585 0)
(-0.0797028 -0.122987 -7.07844e-20)
(-0.0678039 -0.117827 -5.96943e-20)
(-0.0538194 -0.10943 9.05216e-20)
(-0.0364677 -0.0965956 1.00014e-19)
(-0.015639 -0.0776782 -9.21932e-20)
(-0.00228962 0.00110664 0)
(-0.00796074 -0.00271868 -1.35124e-19)
(-0.0175216 -0.0103615 -5.54979e-22)
(-0.0286752 -0.0193003 1.20348e-19)
(-0.0400386 -0.0283522 0)
(-0.0508221 -0.0371136 0)
(-0.0604166 -0.0455354 0)
(-0.0683813 -0.0537148 -4.71361e-20)
(-0.0744254 -0.0617714 2.81566e-22)
(-0.0783678 -0.0697701 8.3468e-20)
(-0.0801006 -0.0776984 -1.15812e-19)
(-0.0795604 -0.0854698 5.12954e-22)
(-0.0767091 -0.0929386 0)
(-0.0715233 -0.0999165 -6.23769e-20)
(-0.063991 -0.106187 5.55753e-20)
(-0.0541105 -0.111517 -1.5845e-19)
(-0.0418911 -0.115668 1.89621e-19)
(-0.0273498 -0.1184 3.74689e-20)
(-0.0105033 -0.119478 -7.25355e-21)
(0.00863311 -0.118672 -1.42476e-19)
(0.0300277 -0.115717 -6.04018e-20)
(0.0535966 -0.110178 1.84491e-19)
(0.0802914 -0.100695 -1.18778e-19)
(0.113724 -0.0842 0)
(-0.00419873 0.00558421 6.59898e-20)
(-0.011513 0.00774793 6.76463e-20)
(-0.0207798 0.00391395 -6.47663e-20)
(-0.030341 -0.00285724 -1.21732e-19)
(-0.0391482 -0.0109242 1.14629e-19)
(-0.0465759 -0.0195021 -1.08097e-19)
(-0.0521132 -0.0282482 1.52813e-19)
(-0.0553568 -0.0370472 -4.69961e-20)
(-0.0560204 -0.0458675 8.96922e-20)
(-0.053902 -0.0546817 0)
(-0.0488661 -0.0634265 7.75227e-20)
(-0.0408255 -0.0719901 -1.4641e-19)
(-0.029729 -0.0802151 1.33432e-19)
(-0.0155573 -0.0879079 -1.25325e-19)
(0.00167657 -0.0948483 0)
(0.0219248 -0.100801 1.04196e-19)
(0.045103 -0.105526 1.84748e-19)
(0.0710915 -0.10879 -1.73799e-19)
(0.0997425 -0.110379 -7.56805e-20)
(0.13089 -0.110115 -6.38199e-20)
(0.164309 -0.107876 1.83182e-19)
(0.199948 -0.103534 4.64486e-20)
(0.236768 -0.0965494 -4.75081e-20)
(0.287343 -0.0826864 3.73318e-20)
(-0.00624664 0.00909902 -6.59987e-20)
(-0.0152205 0.0161263 2.07449e-19)
(-0.0238335 0.0155396 -6.53251e-20)
(-0.0311265 0.0106958 1.23121e-19)
(-0.0364398 0.00356231 -1.15934e-19)
(-0.0393412 -0.00477982 6.68217e-22)
(-0.0394261 -0.0137339 5.16497e-20)
(-0.0363285 -0.0229854 1.935e-19)
(-0.0297563 -0.0323589 -8.42036e-22)
(-0.0194934 -0.0417328 -8.45687e-20)
(-0.0053825 -0.050982 0)
(0.0126739 -0.0599543 -7.21913e-20)
(0.0347117 -0.0684655 1.36257e-19)
(0.0607006 -0.0763023 1.22967e-19)
(0.0905393 -0.0832296 -5.84145e-20)
(0.12405 -0.0890013 -5.20058e-23)
(0.160981 -0.0933726 -4.70793e-20)
(0.201007 -0.0961144 8.42305e-20)
(0.243749 -0.0970279 7.5654e-20)
(0.288807 -0.0959502 -6.70062e-20)
(0.335507 -0.0928608 5.81642e-20)
(0.38478 -0.087379 -5.05165e-20)
(0.429491 -0.0809175 0)
(0.499744 -0.0668887 -3.72644e-20)
(-0.00820868 0.0115199 6.76488e-20)
(-0.0185873 0.0220651 -6.94482e-20)
(-0.0260407 0.0240031 6.66187e-20)
(-0.030291 0.0207453 0)
(-0.0310591 0.0144352 0)
(-0.0281066 0.00637528 1.11799e-19)
(-0.0211333 -0.00263334 -1.03959e-19)
(-0.00982487 -0.0121049 9.75571e-20)
(0.00609984 -0.0217353 -4.5646e-19)
(0.0268567 -0.0313031 6.02893e-22)
(0.0525821 -0.0406106 7.95939e-20)
(0.0833178 -0.0494535 0)
(0.118992 -0.0576108 -1.34503e-19)
(0.159406 -0.0648442 2.49648e-19)
(0.204229 -0.0709066 -1.72865e-19)
(0.252995 -0.0755539 -2.55669e-19)
(0.305121 -0.0785603 7.89898e-21)
(0.359927 -0.0797331 1.7188e-19)
(0.41665 -0.078935 0)
(0.474649 -0.0760156 0)
(0.532329 -0.0712932 -5.81501e-20)
(0.592779 -0.0635114 5.05037e-20)
(0.641012 -0.0565853 -1.66455e-19)
(0.723917 -0.0404518 1.5622e-19)
(-0.00987914 0.0128259 0)
(-0.0211152 0.0254172 0)
(-0.0267113 0.0290133 -2.00972e-19)
(-0.0269814 0.0268858 6.3763e-20)
(-0.0219874 0.0212298 1.03106e-22)
(-0.0116685 0.0134867 1.13321e-19)
(0.00416659 0.00460676 0)
(0.0257638 -0.00478592 -9.89365e-20)
(0.0533462 -0.0142659 9.16972e-20)
(0.0870527 -0.0235147 -1.71586e-19)
(0.12689 -0.0322595 9.47772e-22)
(0.172696 -0.040243 1.46713e-19)
(0.224108 -0.0472129 -2.79946e-21)
(0.280552 -0.0529237 1.20392e-19)
(0.341246 -0.0571473 -1.74959e-19)
(0.405229 -0.0596874 0)
(0.471403 -0.060394 1.82984e-19)
(0.538599 -0.0591753 -2.55714e-19)
(0.605598 -0.0560315 7.44577e-20)
(0.6715 -0.0508711 0)
(0.734115 -0.044396 5.80304e-20)
(0.797353 -0.0348103 1.9573e-19)
(0.84435 -0.0274083 -1.8369e-19)
(0.923728 -0.0103631 -1.88089e-19)
(-0.0110903 0.0130957 2.10396e-19)
(-0.0223274 0.0262434 -2.90017e-19)
(-0.0251149 0.0305477 1.76665e-22)
(-0.0202337 0.0290178 6.47924e-20)
(-0.0080293 0.0238075 -1.21486e-19)
(0.0113971 0.016429 -1.12662e-19)
(0.0381111 0.00793392 2.11982e-19)
(0.0722328 -0.000945567 -1.94488e-21)
(0.113824 -0.00968369 -1.86374e-19)
(0.16279 -0.0178775 3.44954e-19)
(0.218802 -0.0251949 -2.50033e-21)
(0.281241 -0.031351 -1.49771e-19)
(0.349182 -0.0361022 0)
(0.421403 -0.0392523 0)
(0.49644 -0.040663 -5.7155e-20)
(0.572666 -0.0402658 -1.03118e-19)
(0.648397 -0.0380679 -1.82227e-19)
(0.721993 -0.034157 1.71054e-19)
(0.791957 -0.0286978 -7.44819e-20)
(0.857125 -0.0218415 1.27797e-19)
(0.915996 -0.014194 -6.5517e-20)
(0.970498 -0.0047277 9.21411e-20)
(1.01063 0.00241001 -2.30467e-19)
(1.06876 0.0170111 3.86073e-20)
(-0.0117082 0.0124768 7.11633e-20)
(-0.0217498 0.024788 0)
(-0.020434 0.0288651 1.38741e-19)
(-0.00889745 0.0274097 -1.307e-19)
(0.012285 0.0224821 1.21592e-19)
(0.0428476 0.0156162 0)
(0.0826694 0.00792244 0)
(0.131618 0.000204615 -9.98613e-20)
(0.189395 -0.00694423 1.76217e-21)
(0.255401 -0.0130765 8.80842e-20)
(0.328647 -0.0178544 -7.93004e-20)
(0.407722 -0.0210365 1.50092e-19)
(0.490831 -0.0224767 0)
(0.57588 -0.0221278 2.46106e-19)
(0.660621 -0.0200425 -4.54345e-19)
(0.742815 -0.0163681 3.12793e-19)
(0.820392 -0.0113304 1.80803e-19)
(0.891587 -0.00522808 -1.69725e-19)
(0.95508 0.00164865 0)
(1.00993 0.00886391 0)
(1.05596 0.0163006 0)
(1.09319 0.0234501 0)
(1.12079 0.0296268 4.49512e-20)
(1.15006 0.0386536 -1.56107e-19)
(-0.180298 -0.0236451 -6.52222e-21)
(-0.176325 0.0229441 6.5412e-21)
(-0.170062 0.0770194 -1.81982e-22)
(-0.161269 0.137189 0)
(-0.1498 0.201666 -5.53631e-21)
(-0.135818 0.268134 1.05181e-20)
(-0.119638 0.333734 -2.851e-22)
(-0.10159 0.395144 -4.57654e-21)
(-0.0818163 0.448986 0)
(-0.0597219 0.49132 0)
(-0.0337139 0.518397 -2.0454e-22)
(-0.00109811 0.524959 -1.96118e-22)
(0.0409574 0.505743 -3.29119e-21)
(0.0943094 0.456393 3.00962e-21)
(0.158601 0.375375 0)
(0.230714 0.2656 0)
(0.306013 0.132323 3.32453e-21)
(0.380574 -0.0168484 -5.59075e-23)
(0.452962 -0.171994 -2.88837e-21)
(0.520591 -0.315272 -1.71166e-22)
(0.57815 -0.427237 0)
(0.620764 -0.496925 0)
(0.646223 -0.526496 0)
(0.657009 -0.525673 0)
(0.655312 -0.509851 0)
(0.635737 -0.500078 0)
(0.593881 -0.505827 3.26251e-22)
(0.542625 -0.503485 -5.08953e-22)
(0.510879 -0.445523 0)
(0.519281 -0.304893 0)
(0.564009 -0.104415 -6.01216e-22)
(0.627037 0.101651 5.84297e-22)
(0.689707 0.267774 2.31171e-22)
(0.738828 0.374921 0)
(0.772574 0.425091 0)
(0.793379 0.43675 2.38574e-22)
(0.792387 0.444854 -2.31908e-22)
(0.760812 0.469068 0)
(0.711178 0.475433 2.64713e-22)
(0.676554 0.405669 -4.0682e-22)
(0.678514 0.236338 1.72053e-22)
(0.709318 0.0230869 0)
(0.753214 -0.170125 -2.62271e-22)
(0.795392 -0.290357 2.55023e-22)
(0.82734 -0.354583 0)
(0.827456 -0.386548 0)
(0.789799 -0.41268 -6.18213e-23)
(0.737156 -0.397291 1.75752e-22)
(0.706603 -0.292749 0)
(0.716542 -0.131931 0)
(0.758709 0.0695818 -5.74398e-23)
(0.794842 0.190915 5.31733e-24)
(0.799193 0.327514 -6.14013e-24)
(0.771912 0.368287 3.5238e-23)
(0.743387 0.37875 0)
(0.732587 0.27874 0)
(0.76177 0.0659105 0)
(0.756379 -0.0224489 0)
(0.763142 -0.301843 0)
(0.74047 -0.262175 0)
(-0.201492 -0.0284086 -5.41958e-22)
(-0.200363 0.0148423 -2.23993e-20)
(-0.196815 0.0656266 6.55992e-22)
(-0.190342 0.122355 2.04334e-20)
(-0.180134 0.18356 2.76062e-22)
(-0.165795 0.247117 0)
(-0.147099 0.310365 -1.60994e-20)
(-0.123652 0.369577 3.10008e-20)
(-0.0951614 0.421609 -1.4904e-20)
(-0.060529 0.461071 1.33018e-20)
(-0.0186347 0.483985 -1.27239e-20)
(0.0319616 0.48536 1.26472e-20)
(0.0925693 0.460321 -1.22853e-20)
(0.162653 0.405948 -4.21893e-22)
(0.239824 0.3221 -1.42885e-20)
(0.319895 0.212078 1.38845e-20)
(0.398937 0.0806915 -1.463e-20)
(0.474515 -0.0664362 1.3757e-20)
(0.545416 -0.218351 -1.26754e-20)
(0.608115 -0.35667 2.28307e-20)
(0.656727 -0.460323 -1.02359e-20)
(0.687382 -0.518858 -4.63057e-22)
(0.699656 -0.537272 -4.9586e-21)
(0.697266 -0.527605 8.71943e-21)
(0.68544 -0.503189 -3.79076e-21)
(0.661462 -0.482424 1.80274e-22)
(0.617419 -0.479031 3.05328e-21)
(0.558762 -0.478254 4.69416e-22)
(0.511516 -0.435486 -6.86761e-21)
(0.502401 -0.315506 7.7244e-21)
(0.534685 -0.130517 -3.99854e-21)
(0.592267 0.0694981 4.64929e-22)
(0.655245 0.238669 -2.31653e-22)
(0.709603 0.353168 3.31401e-22)
(0.75199 0.411071 0)
(0.78067 0.431633 0)
(0.783984 0.450753 -9.21148e-22)
(0.755387 0.483813 6.62036e-22)
(0.711848 0.490646 8.94737e-22)
(0.68622 0.412618 3.90042e-22)
(0.696727 0.23267 -1.50502e-21)
(0.73188 0.0121525 3.76539e-22)
(0.775331 -0.183652 0)
(0.811895 -0.301972 0)
(0.839136 -0.359274 0)
(0.83613 -0.381194 0)
(0.797456 -0.399875 2.27063e-22)
(0.742426 -0.38549 -1.15731e-22)
(0.708068 -0.289853 0)
(0.716109 -0.138906 0)
(0.755316 0.0591366 0)
(0.792087 0.185494 -8.11328e-23)
(0.793912 0.329947 1.35944e-23)
(0.768498 0.374248 -7.57555e-23)
(0.740174 0.382928 0)
(0.731096 0.277459 0)
(0.764705 0.0626384 6.90591e-23)
(0.760275 -0.0222446 2.13444e-22)
(0.769843 -0.300027 0)
(0.745756 -0.261021 0)
(-0.177133 -0.0345099 -9.52287e-22)
(-0.177703 0.00496285 -3.93677e-20)
(-0.175069 0.0520136 3.64994e-20)
(-0.169701 0.104647 -3.41985e-20)
(-0.159787 0.161594 -2.77969e-22)
(-0.144349 0.220935 0)
(-0.123038 0.2808 -2.81733e-20)
(-0.0945115 0.336154 2.75393e-20)
(-0.0588173 0.38393 2.11822e-22)
(-0.0151827 0.41951 3.67541e-22)
(0.0383159 0.438316 3.72346e-22)
(0.10132 0.435737 3.93614e-22)
(0.173298 0.407436 -2.73801e-20)
(0.252509 0.351438 2.70305e-20)
(0.335684 0.268374 0)
(0.418692 0.16152 9.73863e-22)
(0.498061 0.0348048 -3.12142e-20)
(0.572405 -0.107675 3.07893e-20)
(0.640583 -0.254929 0)
(0.697421 -0.387013 0)
(0.736073 -0.482181 -1.8326e-20)
(0.753967 -0.530828 3.165e-20)
(0.753256 -0.540023 -2.32804e-20)
(0.738666 -0.523973 2.36517e-21)
(0.716894 -0.494336 1.35898e-20)
(0.688511 -0.465079 -1.16382e-20)
(0.64423 -0.451892 1.00704e-20)
(0.581897 -0.449785 1.46802e-22)
(0.522028 -0.420525 -5.26391e-21)
(0.49536 -0.322614 0)
(0.513271 -0.15601 0)
(0.563241 0.0357821 2.41965e-21)
(0.62495 0.206373 -3.18391e-21)
(0.683684 0.327347 -4.26733e-23)
(0.733915 0.393364 1.98761e-21)
(0.76963 0.424035 -1.93159e-21)
(0.777121 0.454886 0)
(0.752272 0.496649 2.34347e-22)
(0.715574 0.503941 2.78343e-21)
(0.6988 0.418533 -6.1324e-21)
(0.717473 0.229526 2.90088e-21)
(0.756813 0.00305192 4.4204e-22)
(0.799715 -0.194321 -3.14087e-21)
(0.830505 -0.311052 2.37166e-21)
(0.852544 -0.362539 3.88018e-22)
(0.846395 -0.375259 2.81461e-22)
(0.806937 -0.386822 -2.2763e-22)
(0.750075 -0.373584 0)
(0.712219 -0.287124 0)
(0.718215 -0.146286 -7.48254e-22)
(0.753941 0.0483473 3.75533e-22)
(0.791053 0.179762 -3.15343e-22)
(0.790306 0.332143 4.65622e-22)
(0.766498 0.380023 6.25826e-22)
(0.738268 0.387004 -1.49721e-22)
(0.730873 0.276032 3.3987e-22)
(0.76885 0.0589825 -3.2485e-22)
(0.765568 -0.0222129 1.87974e-22)
(0.777814 -0.298134 0)
(0.751824 -0.259847 0)
(-0.112454 -0.0421059 -7.03971e-20)
(-0.114207 -0.00660166 3.80685e-21)
(-0.111087 0.0366042 6.29509e-20)
(-0.105528 0.0850013 -4.97351e-22)
(-0.0952213 0.136959 0)
(-0.077998 0.191274 0)
(-0.0546894 0.245226 -4.79831e-20)
(-0.0241538 0.29556 -3.64892e-22)
(0.0160112 0.338412 6.82578e-20)
(0.0656208 0.370329 6.90746e-22)
(0.125375 0.386027 -2.30762e-20)
(0.194403 0.38091 -2.52422e-20)
(0.271269 0.351603 2.52659e-20)
(0.3535 0.296719 0)
(0.437618 0.217226 -3.16758e-20)
(0.519834 0.115928 2.87915e-20)
(0.597379 -0.00473697 0)
(0.669832 -0.141271 0)
(0.735207 -0.282939 2.75267e-20)
(0.786086 -0.408116 -3.6375e-21)
(0.814563 -0.494722 -2.18162e-20)
(0.819498 -0.534537 -1.43542e-20)
(0.806111 -0.53618 1.42058e-20)
(0.780514 -0.515425 -7.99557e-21)
(0.749398 -0.483301 1.73563e-21)
(0.716176 -0.448788 5.80798e-21)
(0.67283 -0.42606 5.59474e-22)
(0.610782 -0.419009 5.20541e-23)
(0.542289 -0.399768 0)
(0.498855 -0.32431 5.46947e-21)
(0.500579 -0.179195 -5.62568e-21)
(0.540669 0.00165292 3.92568e-22)
(0.599452 0.171437 0)
(0.661439 0.297819 -2.92431e-22)
(0.718362 0.372206 3.65449e-21)
(0.760147 0.41383 -6.71039e-21)
(0.77173 0.456707 -7.58922e-22)
(0.751311 0.506971 -6.83084e-22)
(0.721862 0.515045 3.65361e-21)
(0.713682 0.423767 7.08443e-22)
(0.739931 0.227189 -6.87575e-21)
(0.783489 -0.00423893 5.85667e-21)
(0.8261 -0.202242 -3.73296e-23)
(0.851045 -0.317719 1.91705e-21)
(0.867416 -0.364569 -2.25297e-21)
(0.858039 -0.369019 -1.83766e-21)
(0.817926 -0.373677 5.60533e-22)
(0.75973 -0.361472 7.06531e-22)
(0.718717 -0.284333 -1.37008e-21)
(0.722607 -0.153875 1.02745e-21)
(0.75446 0.0372957 -3.30513e-22)
(0.791674 0.173685 3.17479e-22)
(0.788369 0.334079 2.75383e-22)
(0.765985 0.385637 -9.46228e-22)
(0.737779 0.391018 -1.16108e-23)
(0.732021 0.27452 -4.18123e-22)
(0.774196 0.0549962 0)
(0.772232 -0.0223704 -1.69978e-22)
(0.787018 -0.296131 3.65654e-22)
(0.758659 -0.258601 0)
(-0.0142361 -0.0514718 6.20331e-20)
(-0.0179922 -0.0191319 -1.16742e-19)
(-0.0143054 0.0185209 5.4244e-20)
(-0.00893036 0.0614498 4.84642e-20)
(0.00123281 0.10812 -9.26299e-20)
(0.0185566 0.157074 1.51478e-21)
(0.0429202 0.204928 4.18744e-20)
(0.075244 0.250558 4.09896e-20)
(0.117045 0.289466 -4.01747e-20)
(0.168492 0.317822 0)
(0.229643 0.330937 -4.72913e-20)
(0.299515 0.32478 9.73967e-20)
(0.376262 0.296448 -5.00118e-20)
(0.457196 0.244779 0)
(0.538967 0.170614 0)
(0.618259 0.0760669 1.01278e-21)
(0.693443 -0.0374725 -6.59988e-20)
(0.764365 -0.167335 6.41055e-20)
(0.82709 -0.302374 0)
(0.871703 -0.419479 4.86342e-20)
(0.889743 -0.497171 -8.29423e-20)
(0.881983 -0.529402 6.43854e-20)
(0.85665 -0.525829 -4.89852e-20)
(0.821662 -0.502327 4.8943e-21)
(0.782751 -0.469793 2.68252e-20)
(0.744481 -0.433412 -1.14799e-20)
(0.702087 -0.403238 -2.64275e-22)
(0.643462 -0.388759 -3.29512e-21)
(0.571235 -0.374576 -3.19432e-22)
(0.51325 -0.319748 3.6476e-21)
(0.497515 -0.198471 3.14818e-22)
(0.525444 -0.0318519 -4.39575e-21)
(0.579396 0.134423 8.21264e-21)
(0.643154 0.264911 -4.23403e-21)
(0.705228 0.347656 0)
(0.752002 0.400686 -3.81323e-21)
(0.767633 0.455614 3.73576e-21)
(0.752211 0.514274 -3.99184e-21)
(0.730248 0.523949 4.95467e-21)
(0.730256 0.428545 -7.76677e-22)
(0.763536 0.226104 0)
(0.811314 -0.00914454 -9.09055e-22)
(0.853956 -0.207368 2.3012e-21)
(0.873224 -0.32181 0)
(0.88352 -0.365249 3.58629e-21)
(0.870887 -0.362514 -1.57941e-21)
(0.830218 -0.360552 4.10506e-22)
(0.771037 -0.349226 2.97626e-22)
(0.727159 -0.281406 0)
(0.728954 -0.161543 0)
(0.756686 0.0260374 -8.02855e-22)
(0.793834 0.167202 1.26774e-21)
(0.788072 0.335705 -7.73088e-22)
(0.767019 0.391091 2.41939e-22)
(0.738809 0.395005 6.64118e-22)
(0.734643 0.272969 4.18524e-22)
(0.780744 0.0506494 -8.37006e-22)
(0.780228 -0.0227473 0)
(0.797401 -0.29396 -5.48015e-22)
(0.766241 -0.257225 -8.37534e-23)
(0.116472 -0.0612009 5.68022e-20)
(0.107773 -0.032413 -5.63102e-20)
(0.106806 -0.000183966 3.94135e-22)
(0.111212 0.036529 -3.21909e-22)
(0.120112 0.0776837 3.3939e-22)
(0.135759 0.121177 -3.1861e-22)
(0.158977 0.164416 5.40133e-22)
(0.190508 0.205239 0)
(0.231146 0.24002 -5.59026e-22)
(0.281157 0.265075 5.96962e-22)
(0.340332 0.276398 6.52312e-22)
(0.407626 0.270409 -7.55386e-22)
(0.481147 0.244448 0)
(0.558361 0.197245 0)
(0.636315 0.129201 9.45455e-22)
(0.712389 0.0415231 0)
(0.785634 -0.06438 -1.01009e-21)
(0.855315 -0.187032 0)
(0.91497 -0.31396 -5.42542e-20)
(0.952384 -0.421648 1.00026e-19)
(0.959627 -0.490346 -8.20306e-20)
(0.93995 -0.516441 3.64087e-20)
(0.903965 -0.510058 2.10208e-20)
(0.861202 -0.485791 -2.04148e-20)
(0.816408 -0.454179 -1.15935e-20)
(0.773396 -0.418482 1.11692e-20)
(0.73108 -0.383812 0)
(0.677654 -0.361094 1.62589e-22)
(0.606802 -0.346795 0)
(0.538311 -0.308593 0)
(0.504876 -0.212254 6.30901e-21)
(0.518338 -0.0637784 -6.44569e-21)
(0.565332 0.0960811 3.40215e-22)
(0.628935 0.229034 4.0949e-22)
(0.694305 0.319776 -3.079e-22)
(0.744941 0.384287 -3.14516e-21)
(0.764565 0.451065 3.05396e-21)
(0.754537 0.518169 -5.00718e-21)
(0.740139 0.530685 4.3807e-21)
(0.747954 0.433104 1.58165e-21)
(0.787777 0.226454 -7.55657e-21)
(0.839687 -0.0118883 -6.44557e-22)
(0.882771 -0.209794 5.24463e-21)
(0.896738 -0.323289 0)
(0.900601 -0.364547 -1.64814e-21)
(0.884695 -0.355847 1.32987e-21)
(0.843582 -0.347534 -1.83219e-21)
(0.783635 -0.336818 -2.99509e-22)
(0.737089 -0.278237 0)
(0.736849 -0.169197 2.38154e-22)