/*--------------------------------*- C++ -*----------------------------------*\
| =========                 |                                                 |
| \\      /  F ield         | OpenFOAM: The Open Source CFD Toolbox           |
|  \\    /   O peration     | Version:  2512                                  |
|   \\  /    A nd           | Website:  www.openfoam.com                      |
|    \\/     M anipulation  |                                                 |
\*---------------------------------------------------------------------------*/
FoamFile
{
    version     2.0;
    format      ascii;
    arch        "LSB;label=32;scalar=64";
    class       volVectorField;
    location    "17";
    object      U;
}
// * * * * * * * * * * * * * * * * * * * * * * * * * * * * * * * * * * * * * //

dimensions      [0 1 -1 0 0 0 0];

internalField   nonuniform List<vector> 
13248
(
(-0.012996 0.0118668 6.70903e-20)
(-0.0254059 0.0256936 0)
(-0.0247998 0.0334797 -1.26897e-19)
(-0.0117924 0.0372077 1.19539e-19)
(0.0131806 0.038444 1.11838e-19)
(0.0498026 0.0384159 0)
(0.0977926 0.0380629 0)
(0.156789 0.0380968 2.69498e-19)
(0.226209 0.0390394 -1.17416e-21)
(0.30511 0.0412326 -2.35722e-19)
(0.392089 0.0448393 2.19382e-19)
(0.485251 0.0498434 -1.37194e-19)
(0.582262 0.0560577 0)
(0.680466 0.0631441 -2.39052e-19)
(0.777061 0.0706474 4.47897e-19)
(0.869293 0.0780395 -1.0609e-19)
(0.95466 0.084776 -1.94554e-19)
(1.03107 0.0903198 1.82635e-19)
(1.09701 0.0943018 0)
(1.15152 0.0961126 0)
(1.19455 0.0963818 0)
(1.22581 0.0924004 0)
(1.24786 0.0907929 5.98228e-20)
(1.25892 0.0746657 2.24085e-19)
(-0.0130426 0.010586 -2.02597e-19)
(-0.0217992 0.0212519 1.38179e-19)
(-0.0141088 0.0263874 -1.22545e-21)
(0.00897474 0.0282348 -1.82579e-19)
(0.0467723 0.0285378 -1.11719e-19)
(0.0987172 0.0286409 -1.05611e-19)
(0.164118 0.0295239 -1.93932e-19)
(0.241952 0.0318662 1.83411e-19)
(0.33067 0.0360719 0)
(0.428087 0.042275 6.83743e-22)
(0.531384 0.0503451 1.45793e-21)
(0.637252 0.059909 1.37297e-19)
(0.742126 0.0703966 0)
(0.842482 0.0811084 0)
(0.935138 0.0912975 1.64935e-19)
(1.01751 0.100254 -3.09831e-19)
(1.08779 0.10738 1.89013e-19)
(1.14505 0.112244 -1.77447e-19)
(1.18924 0.114618 -7.97761e-20)
(1.22115 0.114446 -1.48541e-19)
(1.24204 0.111974 -6.4284e-20)
(1.25411 0.107065 -1.2185e-19)
(1.25855 0.101917 1.74866e-19)
(1.25881 0.0917917 5.14383e-20)
(-0.0121783 0.00893516 0)
(-0.0149184 0.0161904 0)
(0.00277276 0.0190363 6.45779e-20)
(0.0392198 0.0197986 5.94721e-20)
(0.0932687 0.0203056 -1.4726e-21)
(0.163759 0.0219537 -1.09048e-19)
(0.249096 0.0256699 0)
(0.346985 0.0319524 -9.11993e-20)
(0.454292 0.0408936 8.58457e-20)
(0.567105 0.0522012 6.8919e-22)
(0.680994 0.0652468 -1.47235e-19)
(0.791415 0.0791574 -1.35863e-19)
(0.894168 0.0929374 1.66076e-21)
(0.985798 0.105604 -1.14879e-19)
(1.0639 0.11631 2.73649e-19)
(1.12725 0.124442 0)
(1.17582 0.129666 -1.83048e-19)
(1.21061 0.13193 8.83605e-20)
(1.23344 0.131464 7.97053e-20)
(1.24654 0.128576 0)
(1.25239 0.124015 6.72305e-20)
(1.25318 0.117592 -2.35988e-19)
(1.2506 0.111931 2.21533e-19)
(1.24761 0.102052 1.44726e-19)
(-0.00999418 0.00686593 -7.16686e-20)
(-0.00375961 0.0105529 -7.41353e-20)
(0.0272258 0.011707 6.70205e-20)
(0.080439 0.0125 0)
(0.153886 0.0146907 0)
(0.245273 0.0195786 -2.34651e-21)
(0.351431 0.027833 0)
(0.468127 0.0395144 -2.79028e-19)
(0.590178 0.0541303 2.59517e-19)
(0.711876 0.0707329 -3.20819e-19)
(0.827611 0.0880775 7.37186e-20)
(0.93252 0.104827 0)
(1.02301 0.119754 1.24636e-19)
(1.09705 0.131913 -2.31699e-19)
(1.15422 0.140735 5.50143e-20)
(1.19551 0.146054 1.44925e-19)
(1.22298 0.14806 -4.50162e-21)
(1.23931 0.147202 -1.62925e-19)
(1.24733 0.144071 0)
(1.24967 0.13928 0)
(1.24845 0.133451 -6.07704e-20)
(1.2452 0.126748 5.52574e-20)
(1.24093 0.120755 2.0308e-19)
(1.23662 0.111793 -1.90623e-19)
(-0.00607373 0.00444016 -7.56224e-20)
(0.012644 0.00464128 -7.53179e-20)
(0.0604349 0.00502212 2.11826e-19)
(0.133624 0.00731068 -1.28454e-19)
(0.228841 0.012955 1.20912e-19)
(0.341943 0.0228925 2.19671e-19)
(0.467469 0.0372105 -1.55334e-19)
(0.59878 0.0551938 -1.89531e-19)
(0.72868 0.0755048 3.33213e-21)
(0.850323 0.0964463 2.42937e-19)
(0.958112 0.116277 0)
(1.04834 0.133505 6.7778e-20)
(1.11945 0.147102 0)
(1.17187 0.156591 -1.12426e-19)
(1.20765 0.162015 1.58215e-19)
(1.22976 0.163817 1.40741e-21)
(1.24155 0.162679 -4.25018e-20)
(1.24617 0.159347 8.03456e-20)
(1.24623 0.154515 7.01493e-20)
(1.24364 0.148732 -6.3678e-20)
(1.23966 0.142439 6.07572e-20)
(1.23502 0.13574 -5.52449e-20)
(1.23001 0.129589 0)
(1.22541 0.121296 -4.29938e-20)
(-2.26548e-05 0.00183363 7.56116e-20)
(0.0351226 -0.000953629 7.94493e-20)
(0.103219 -1.29582e-05 -7.099e-20)
(0.199009 0.00557354 1.32266e-19)
(0.317044 0.01659 -1.24493e-19)
(0.45057 0.0332124 1.1268e-19)
(0.591329 0.0545316 -5.41173e-20)
(0.730372 0.0787495 1.42296e-19)
(0.859327 0.103605 -8.9639e-20)
(0.971639 0.12685 1.60006e-19)
(1.06337 0.14667 -3.70353e-19)
(1.13338 0.161938 1.3664e-19)
(1.18295 0.172281 -1.20996e-19)
(1.21508 0.177971 1.13649e-19)
(1.23356 0.17971 9.97674e-20)
(1.24227 0.178394 8.88129e-20)
(1.24457 0.174908 -2.47579e-19)
(1.24302 0.169997 1.54128e-19)
(1.23939 0.164216 -7.01529e-20)
(1.23475 0.157942 1.85861e-19)
(1.22972 0.151415 -5.98553e-20)
(1.22456 0.144729 -1.49753e-19)
(1.21942 0.138388 1.38845e-19)
(1.21459 0.130598 4.29798e-20)
(0.0085071 -0.000667976 0)
(0.0642593 -0.00538537 7.14339e-22)
(0.155824 -0.0021045 1.48714e-19)
(0.275798 0.00882239 -1.3943e-19)
(0.415888 0.0270214 -1.25786e-19)
(0.566153 0.0514069 2.33911e-19)
(0.715621 0.0796977 -1.08689e-19)
(0.853972 0.108926 1.45427e-19)
(0.973268 0.136171 -2.81516e-21)
(1.06901 0.159162 -8.28281e-20)
(1.1403 0.176604 1.8228e-19)
(1.18914 0.188201 -2.69897e-19)
(1.21941 0.194453 0)
(1.23568 0.196324 -5.38544e-20)
(1.24232 0.194931 -1.45204e-19)
(1.24291 0.1913 4.55595e-20)
(1.24006 0.186248 1.47193e-21)
(1.23549 0.18035 -1.03788e-19)
(1.23018 0.17398 5.1098e-21)
(1.22467 0.167364 1.2069e-19)
(1.2192 0.160639 -5.48634e-20)
(1.21386 0.153887 -2.1612e-20)
(1.20865 0.147314 6.51021e-20)
(1.2037 0.139898 0)
(0.0197779 -0.00268776 0)
(0.100272 -0.00762405 4.03451e-20)
(0.217736 0.000178066 -1.94317e-19)
(0.361999 0.0185197 7.0662e-20)
(0.521297 0.0452643 -6.65043e-20)
(0.682475 0.0775883 -6.09506e-20)
(0.832775 0.1117 -1.07954e-19)
(0.962232 0.143761 5.37168e-20)
(1.06523 0.170802 4.68455e-20)
(1.14069 0.191198 0)
(1.19118 0.204654 1.08573e-19)
(1.22139 0.211875 -1.62631e-19)
(1.2367 0.214107 1.21165e-19)
(1.24206 0.212715 5.38824e-20)
(1.24138 0.208909 -4.49006e-20)
(1.23744 0.203612 -3.8196e-20)
(1.23196 0.197455 -3.59992e-20)
(1.22595 0.190831 1.06331e-19)
(1.2199 0.183975 0)
(1.21403 0.177021 5.4962e-20)
(1.20841 0.170049 4.73533e-20)
(1.20301 0.163121 -1.16314e-19)
(1.19779 0.156269 -8.15542e-20)
(1.19277 0.149097 7.5242e-20)
(0.0339137 -0.00377757 -4.37631e-20)
(0.142885 -0.00655111 -1.75941e-21)
(0.28756 0.00820734 3.95917e-20)
(0.454462 0.0357816 1.10843e-19)
(0.628181 0.0716657 3.23699e-20)
(0.793136 0.111045 -6.25148e-20)
(0.936534 0.148891 5.70541e-20)
(1.05077 0.181171 -5.01679e-20)
(1.13398 0.205627 9.04434e-20)
(1.18894 0.221801 3.88121e-20)
(1.22112 0.23056 -1.10219e-19)
(1.23676 0.233454 3.26479e-20)
(1.24157 0.232162 5.62865e-20)
(1.23999 0.228143 -2.76039e-20)
(1.23508 0.222483 0)
(1.22872 0.21591 4.20193e-20)
(1.22195 0.208864 7.19373e-20)
(1.21527 0.201598 1.29135e-20)
(1.20888 0.194252 -6.05028e-20)
(1.20286 0.186905 2.56463e-20)
(1.19718 0.17961 0)
(1.19177 0.172396 -2.05791e-20)
(1.18657 0.165237 -1.98084e-20)
(1.18153 0.158165 0)
(0.0508443 -0.00344889 0)
(0.191243 -0.0010758 2.29665e-20)
(0.363016 0.0231041 4.24964e-20)
(0.549157 0.061174 -1.13273e-19)
(0.731163 0.105834 3.66571e-20)
(0.892662 0.150439 0)
(1.02294 0.189434 5.54255e-20)
(1.11836 0.219452 -7.74707e-20)
(1.18135 0.239564 -4.52528e-20)
(1.21799 0.250683 2.04779e-20)
(1.23553 0.254689 -3.32459e-20)
(1.24067 0.253661 8.04775e-20)
(1.2386 0.249403 4.07038e-20)
(1.23287 0.24325 -2.80815e-20)
(1.22563 0.236079 -2.42026e-21)
(1.21803 0.228412 -7.86153e-20)
(1.21064 0.220539 3.59245e-20)
(1.20366 0.212612 -9.4967e-22)
(1.19715 0.204714 0)
(1.1911 0.196898 -2.56733e-20)
(1.18544 0.189196 0)
(1.18009 0.181606 5.94235e-20)
(1.17496 0.174121 -7.11926e-20)
(1.16993 0.167001 3.26249e-20)
(0.0702589 -0.00121201 -1.20596e-20)
(0.243885 0.00974872 -5.8004e-20)
(0.441084 0.0455851 6.60907e-20)
(0.641648 0.0946254 3.88478e-20)
(0.825363 0.146747 -1.85002e-20)
(0.977208 0.194138 3.13099e-20)
(1.09041 0.231686 -1.51549e-20)
(1.16609 0.257468 2.53774e-20)
(1.21055 0.27219 0)
(1.23215 0.278035 5.80395e-20)
(1.23881 0.277584 -2.27042e-21)
(1.23683 0.273122 -4.70871e-20)
(1.23049 0.266351 2.0282e-20)
(1.22239 0.258382 -2.30596e-20)
(1.21393 0.249869 -8.91257e-21)
(1.20574 0.241161 1.01741e-20)
(1.19809 0.232438 -7.94183e-21)
(1.19102 0.223793 -4.35709e-20)
(1.18453 0.215276 2.6724e-20)
(1.17854 0.20692 5.53359e-21)
(1.17298 0.198736 4.91753e-21)
(1.16775 0.190708 4.37474e-21)
(1.16273 0.182893 0)
(1.15777 0.175566 0)
(0.0916564 0.00339025 1.2068e-20)
(0.298932 0.0266344 -1.20564e-20)
(0.518432 0.0758659 -2.20473e-20)
(0.727774 0.135449 0)
(0.907056 0.192971 -9.21157e-21)
(1.04474 0.240512 -8.34734e-21)
(1.13917 0.274386 -1.43133e-20)
(1.19609 0.2946 0)
(1.22481 0.303487 0)
(1.2348 0.304211 0)
(1.23381 0.299716 0)
(1.22724 0.292243 0)
(1.21841 0.283266 -1.27643e-20)
(1.20907 0.273646 5.82016e-21)
(1.20004 0.26384 1.01909e-20)
(1.19165 0.254069 4.78116e-21)
(1.18397 0.24444 1.19131e-20)
(1.17698 0.235005 0)
(1.17063 0.225795 -2.90928e-21)
(1.16482 0.216829 -2.81103e-21)
(1.15946 0.208099 -4.9254e-21)
(1.15444 0.19959 -4.38175e-21)
(1.14963 0.191439 0)
(1.14486 0.183755 3.22093e-21)
(-0.00189457 0.00212313 7.23878e-21)
(-0.00906871 0.00526232 -7.53652e-21)
(-0.021909 0.00758638 -1.43011e-20)
(-0.0376694 0.00932772 0)
(-0.0548875 0.0106289 -1.92193e-20)
(-0.0728665 0.0116013 6.03623e-21)
(-0.0911446 0.012345 -1.1458e-20)
(-0.109418 0.012946 0)
(-0.127508 0.0134722 0)
(-0.145317 0.0139718 0)
(-0.162792 0.0144735 0)
(-0.179905 0.0149892 0)
(-0.196636 0.0155185 3.06775e-23)
(-0.212964 0.0160518 -7.79482e-21)
(-0.228865 0.0165745 1.48696e-20)
(-0.24431 0.0170683 2.11851e-20)
(-0.259265 0.0175135 6.73421e-21)
(-0.273698 0.0178898 0)
(-0.287581 0.0181778 6.04067e-21)
(-0.300895 0.0183596 -1.70947e-20)
(-0.31361 0.0184165 -1.0832e-20)
(-0.325709 0.0183315 -1.02666e-20)
(-0.337345 0.0181091 0)
(-0.348908 0.0177687 0)
(-0.00239942 0.00744477 -2.17959e-20)
(-0.00993012 0.0176685 3.76605e-20)
(-0.0224663 0.0246791 -1.4231e-20)
(-0.0375541 0.0295056 -2.71372e-20)
(-0.0538695 0.0327901 3.83496e-20)
(-0.0707706 0.0349868 -2.42845e-20)
(-0.0878223 0.0364451 3.42967e-20)
(-0.104729 0.0374285 2.17181e-20)
(-0.121307 0.0381267 0)
(-0.137447 0.0386662 -1.95369e-20)
(-0.153079 0.039122 -2.96176e-22)
(-0.168155 0.0395293 1.72563e-20)
(-0.182635 0.0398953 2.48124e-20)
(-0.196477 0.0402086 3.14958e-20)
(-0.209638 0.0404481 -1.45531e-20)
(-0.222064 0.0405889 -4.21478e-20)
(-0.233699 0.0406072 1.35388e-20)
(-0.244482 0.0404853 -5.07129e-20)
(-0.254359 0.0402157 0)
(-0.26329 0.0398044 1.14073e-20)
(-0.271222 0.0392665 1.08162e-20)
(-0.278051 0.0386305 1.02513e-20)
(-0.283838 0.0379959 0)
(-0.289363 0.0375193 0)
(-0.00334418 0.0120011 0)
(-0.0115334 0.0284858 7.60044e-20)
(-0.0234589 0.0397955 -2.8669e-20)
(-0.0372095 0.0475424 2.72048e-20)
(-0.0517197 0.0527552 -7.71146e-20)
(-0.0664536 0.0561685 0)
(-0.0810299 0.0583432 -4.60947e-20)
(-0.0951739 0.0596992 2.16596e-20)
(-0.1087 0.0605372 -4.12398e-20)
(-0.121481 0.0610597 1.95937e-20)
(-0.133425 0.0613898 1.11039e-19)
(-0.144456 0.0615896 -5.21625e-20)
(-0.154505 0.0616778 -8.31098e-20)
(-0.163506 0.0616444 -3.20824e-20)
(-0.171388 0.0614626 -6.06118e-22)
(-0.178072 0.0610994 1.13123e-19)
(-0.183477 0.0605233 -5.33901e-20)
(-0.187509 0.0597123 -9.88466e-23)
(-0.190081 0.0586637 0)
(-0.191118 0.0574048 -4.59852e-20)
(-0.190546 0.0560013 0)
(-0.188139 0.0545691 -4.16273e-20)
(-0.18358 0.0533231 1.56667e-19)
(-0.178102 0.0526024 1.05131e-21)
(-0.00456586 0.0154167 0)
(-0.0136461 0.0368894 2.99354e-22)
(-0.024793 0.0518517 2.9091e-20)
(-0.0367631 0.0622033 -2.75608e-20)
(-0.0488181 0.069202 2.55919e-20)
(-0.0605646 0.0737727 1.46796e-19)
(-0.0717015 0.0766321 -4.60862e-20)
(-0.0819944 0.0783239 -4.37799e-20)
(-0.0912691 0.0792437 8.26013e-20)
(-0.0993921 0.0796641 -1.17453e-19)
(-0.106254 0.0797579 3.68022e-20)
(-0.111759 0.0796197 3.50951e-20)
(-0.115821 0.0792867 0)
(-0.118353 0.0787568 3.14409e-20)
(-0.119271 0.0780026 0)
(-0.118489 0.076984 5.67009e-20)
(-0.115917 0.0756569 -1.08174e-19)
(-0.111458 0.0739829 2.43631e-20)
(-0.105009 0.0719395 9.63995e-20)
(-0.0964763 0.0695365 4.59291e-20)
(-0.0857985 0.0668433 0)
(-0.0727714 0.0640531 -1.24556e-19)
(-0.0565446 0.0616203 3.88886e-20)
(-0.0370738 0.0603332 0)
(-0.00587816 0.017527 0)
(-0.0159956 0.0424406 -9.26376e-20)
(-0.0263588 0.0601806 -2.94446e-20)
(-0.0363742 0.0726394 -5.52403e-20)
(-0.045639 0.0811433 5.20154e-20)
(-0.0539188 0.0867111 -4.90112e-20)
(-0.0610145 0.0901524 9.30673e-20)
(-0.0667554 0.092095 4.41734e-20)
(-0.0710009 0.093007 -1.24069e-19)
(-0.073631 0.093221 7.86678e-20)
(-0.0745389 0.0929572 -1.11279e-19)
(-0.0736265 0.0923466 2.46131e-19)
(-0.0708019 0.0914529 -1.32474e-19)
(-0.0659779 0.0902911 6.29715e-20)
(-0.0590709 0.0888434 1.79762e-19)
(-0.0500001 0.0870719 -5.54998e-20)
(-0.0386864 0.0849271 -5.25231e-20)
(-0.0250492 0.082356 -5.05763e-20)
(-0.00900307 0.0793096 0)
(0.00953636 0.0757489 -9.23715e-20)
(0.0306226 0.0716664 -8.85385e-20)
(0.0543549 0.0671985 1.23275e-19)
(0.081635 0.0629664 1.57435e-19)
(0.11469 0.060268 -1.48055e-19)
(-0.00712354 0.0183872 0)
(-0.0183375 0.0451247 -1.25338e-19)
(-0.0280511 0.0645983 -3.95294e-22)
(-0.0361832 0.0784755 1.11179e-19)
(-0.042621 0.0880284 0)
(-0.0472864 0.0942867 0)
(-0.0500945 0.0980956 0)
(-0.0509584 0.100127 -4.41484e-20)
(-0.0497936 0.100894 -3.73276e-22)
(-0.0465166 0.100775 7.83334e-20)
(-0.0410437 0.10003 -1.11848e-19)
(-0.0332909 0.0988258 -3.63368e-22)
(-0.0231754 0.0972558 0)
(-0.0106168 0.0953594 -6.29362e-20)
(0.00446425 0.0931369 6.0027e-20)
(0.0221428 0.0905649 -1.6861e-19)
(0.0424912 0.0876016 2.14485e-19)
(0.0655823 0.0841945 5.21899e-20)
(0.0914862 0.0802873 1.9974e-21)
(0.120264 0.0758166 -1.81653e-19)
(0.151961 0.0707298 -8.61025e-20)
(0.186724 0.0649894 2.87571e-19)
(0.224005 0.0589324 -1.92971e-19)
(0.272933 0.0544245 0)
(-0.00821305 0.018232 6.1646e-20)
(-0.0205085 0.0453012 6.28154e-20)
(-0.0297763 0.0653855 -5.98e-20)
(-0.0362465 0.0798386 -1.12163e-19)
(-0.0400141 0.0898103 1.05609e-19)
(-0.0411417 0.0962931 -9.95142e-20)
(-0.0396572 0.100126 1.40531e-19)
(-0.0355654 0.101993 -4.41433e-20)
(-0.0288508 0.102426 8.3101e-20)
(-0.019478 0.101831 0)
(-0.00739486 0.100497 7.44054e-20)
(0.00746468 0.0986207 -1.39286e-19)
(0.0251761 0.0963256 1.32699e-19)
(0.0458202 0.0936771 -1.24633e-19)
(0.0694885 0.0906967 0)
(0.0962671 0.0873857 1.11964e-19)
(0.126236 0.0837201 2.12713e-19)
(0.159477 0.0796649 -2.00163e-19)
(0.196054 0.0751736 -9.46895e-20)
(0.236045 0.0702002 -9.17831e-20)
(0.279255 0.064668 2.56385e-19)
(0.326769 0.0586147 8.12664e-20)
(0.373256 0.0515844 -7.55612e-20)
(0.441616 0.0461358 7.14695e-20)
(-0.00914195 0.0174018 -6.16544e-20)
(-0.0224437 0.0435853 1.91699e-19)
(-0.0314288 0.0631905 -6.04214e-20)
(-0.0364462 0.0772975 1.12966e-19)
(-0.037713 0.0869413 -1.06365e-19)
(-0.035395 0.0930673 2.33604e-22)
(-0.02962 0.0964879 4.70738e-20)
(-0.0204744 0.0978749 1.76905e-19)
(-0.0080011 0.0977655 2.32106e-22)
(0.00779904 0.0965749 -7.83024e-20)
(0.0269626 0.0946122 0)
(0.0495577 0.092098 -6.97387e-20)
(0.0756751 0.0891806 1.31063e-19)
(0.105412 0.0859505 1.24472e-19)
(0.138883 0.0824671 -5.85498e-20)
(0.176201 0.078752 -5.9379e-22)
(0.217444 0.0748019 -5.27626e-20)
(0.262652 0.0706015 9.86739e-20)
(0.311788 0.0661164 9.46686e-20)
(0.364927 0.0613625 -8.96722e-20)
(0.420979 0.0560905 8.35863e-20)
(0.48351 0.0510108 -7.88988e-20)
(0.53831 0.0441455 0)
(0.628084 0.0398553 -7.1388e-20)
(-0.00997231 0.0162499 6.26982e-20)
(-0.0241389 0.0406745 -6.41602e-20)
(-0.0328388 0.0588482 6.09235e-20)
(-0.0363966 0.0717254 0)
(-0.0350857 0.0802944 0)
(-0.0291396 0.0854702 1.00681e-19)
(-0.0187501 0.088042 -9.43186e-20)
(-0.00404904 0.0886669 8.83755e-20)
(0.0148991 0.0878774 -4.15393e-19)
(0.0380941 0.0860936 -1.74547e-23)
(0.0655894 0.0836375 7.32943e-20)
(0.0974779 0.0807491 0)
(0.133873 0.077601 -1.30651e-19)
(0.174889 0.0743158 2.45994e-19)
(0.2206 0.0709691 -1.74116e-19)
(0.271016 0.0675911 -2.75203e-19)
(0.326073 0.064197 -1.45856e-21)
(0.385589 0.0607822 1.9392e-19)
(0.449155 0.0572917 0)
(0.516713 0.053867 0)
(0.585609 0.0498355 -8.35799e-20)
(0.662243 0.0470165 7.88912e-20)
(0.723219 0.0412052 -2.95125e-19)
(0.828311 0.0401901 2.76719e-19)
(-0.0107875 0.015052 0)
(-0.0255644 0.0371736 0)
(-0.0336595 0.0531875 -1.8319e-19)
(-0.0353268 0.0641195 5.82151e-20)
(-0.0308545 0.0710026 5.03784e-22)
(-0.0205051 0.0747654 1.01613e-19)
(-0.00448583 0.0761958 0)
(0.017078 0.0759471 -8.86169e-20)
(0.0441464 0.0745513 8.30617e-20)
(0.0767491 0.072435 -1.55571e-19)
(0.114958 0.0699325 -2.1241e-23)
(0.15885 0.0672987 1.37691e-19)
(0.20846 0.0647199 3.19954e-22)
(0.263741 0.0623221 1.22615e-19)
(0.324511 0.0601712 -1.72247e-19)
(0.390411 0.0582927 0)
(0.46089 0.0566682 2.0527e-19)
(0.535202 0.0552504 -2.90001e-19)
(0.612273 0.0538989 9.02892e-20)
(0.691494 0.05277 0)
(0.769296 0.0508791 8.00391e-20)
(0.85202 0.0505798 3.06272e-19)
(0.914984 0.0461508 -2.87425e-19)
(1.01785 0.0484719 -3.36971e-19)
(-0.0116265 0.0139485 1.91996e-19)
(-0.0265552 0.0334697 -2.63856e-19)
(-0.0332752 0.0468629 6.13468e-22)
(-0.032021 0.0554051 5.86044e-20)
(-0.0230862 0.0602637 -1.09058e-19)
(-0.00672856 0.062432 -1.01223e-19)
(0.0168712 0.0627283 1.89298e-19)
(0.047624 0.0618205 -1.15242e-21)
(0.0855118 0.0602508 -1.66533e-19)
(0.13054 0.0584523 3.11235e-19)
(0.182671 0.0567603 -6.72597e-23)
(0.241756 0.0554208 -1.37065e-19)
(0.307466 0.0545954 0)
(0.379234 0.0543638 0)
(0.456222 0.0547259 -5.72402e-20)
(0.537316 0.0556084 -1.06624e-19)
(0.621145 0.0568733 -2.02256e-19)
(0.706138 0.0583211 1.89849e-19)
(0.790557 0.0597185 -9.03249e-20)
(0.872873 0.06087 1.68179e-19)
(0.950346 0.0612113 -8.00587e-20)
(1.02551 0.0617782 1.48318e-19)
(1.08326 0.0585905 -3.46104e-19)
(1.1625 0.0608981 6.6181e-20)
(-0.0124237 0.0129266 6.47221e-20)
(-0.026716 0.0296778 0)
(-0.0307418 0.0402588 1.25082e-19)
(-0.0248422 0.0463019 -1.17831e-19)
(-0.00934151 0.0491681 1.09159e-19)
(0.0155119 0.0499562 0)
(0.0495537 0.0495406 0)
(0.0926738 0.0486162 -8.88612e-20)
(0.144741 0.0477308 9.19333e-22)
(0.205505 0.0473018 7.83844e-20)
(0.274495 0.0476246 -7.27854e-20)
(0.350929 0.0488726 1.36958e-19)
(0.433667 0.0510976 0)
(0.521197 0.0542325 2.40732e-19)
(0.611684 0.0580997 -4.51984e-19)
(0.703047 0.0624254 3.18825e-19)
(0.793079 0.0668699 1.98788e-19)
(0.879566 0.0710161 -1.866e-19)
(0.960477 0.0745533 0)
(1.03392 0.0768174 0)
(1.09866 0.0781473 0)
(1.15396 0.0769217 0)
(1.19701 0.0748844 6.79323e-20)
(1.24137 0.0714401 -2.481e-19)
(-0.362355 0.0170819 -6.5947e-21)
(-0.378537 0.0144523 6.61445e-21)
(-0.391347 0.0114174 -2.04329e-22)
(-0.401699 0.00768403 0)
(-0.408436 0.00333603 -6.03805e-21)
(-0.411097 -0.00157713 1.16156e-20)
(-0.409099 -0.00694665 -1.82958e-22)
(-0.401964 -0.0127053 -5.25205e-21)
(-0.389026 -0.0186085 0)
(-0.369694 -0.0244211 0)
(-0.343452 -0.0298388 -2.38327e-22)
(-0.309901 -0.034517 -2.04123e-22)
(-0.26881 -0.0380715 -2.57179e-21)
(-0.22022 -0.040208 2.33566e-21)
(-0.164499 -0.0405865 0)
(-0.102361 -0.0388343 0)
(-0.0347062 -0.0354626 3.45821e-22)
(0.0370248 -0.0301113 -3.57574e-22)
(0.111057 -0.0234601 9.84654e-24)
(0.185762 -0.0160522 2.64092e-23)
(0.259455 -0.00847178 0)
(0.330572 -0.00126827 0)
(0.397881 0.00512153 0)
(0.460556 0.0104302 0)
(0.518065 0.01459 0)
(0.570245 0.0177463 0)
(0.617212 0.0199256 -2.19857e-22)
(0.659212 0.0212823 3.57739e-22)
(0.696643 0.0219984 0)
(0.729932 0.0222682 0)
(0.759587 0.022147 1.85823e-22)
(0.786105 0.0218421 -1.80597e-22)
(0.809884 0.0214497 -7.52366e-23)
(0.831316 0.0210601 0)
(0.850791 0.0206736 0)
(0.868609 0.0204657 -9.57131e-23)
(0.885058 0.0202385 9.30377e-23)
(0.900319 0.0203745 0)
(0.914496 0.0203428 -6.38851e-23)
(0.927517 0.0209618 9.15215e-23)
(0.939273 0.0209963 -2.56527e-23)
(0.949612 0.0220771 0)
(0.958473 0.0219326 3.66899e-23)
(0.96589 0.0234643 -3.56771e-23)
(0.971988 0.0231531 0)
(0.976939 0.0252341 0)
(0.980959 0.0249754 1.03423e-23)
(0.984181 0.027617 -2.9015e-23)
(0.986831 0.0274718 0)
(0.98898 0.0307108 0)
(0.990749 0.0304633 5.68332e-24)
(0.992304 0.0345148 -1.77664e-26)
(0.993501 0.0340014 6.28538e-25)
(0.994735 0.0389256 -3.38157e-24)
(0.995572 0.0383587 0)
(0.996632 0.0440773 0)
(0.997188 0.043583 0)
(0.998235 0.0503229 0)
(0.998513 0.0499319 0)
(0.999657 0.0577591 0)
(-0.296666 0.0366541 -6.45184e-22)
(-0.310982 0.0305394 -2.70651e-20)
(-0.320919 0.0239706 1.01804e-22)
(-0.328585 0.0163329 2.52957e-20)
(-0.332892 0.00763991 3.92648e-22)
(-0.333435 -0.00201353 0)
(-0.329649 -0.0125934 -2.17946e-20)
(-0.3211 -0.0238463 4.21056e-20)
(-0.307276 -0.0354619 -2.03051e-20)
(-0.287665 -0.0471365 1.67738e-20)
(-0.261835 -0.0584384 -1.60649e-20)
(-0.22946 -0.0688657 1.2088e-20)
(-0.190417 -0.0778463 -1.17933e-20)
(-0.144786 -0.0848149 -2.78553e-22)
(-0.0927376 -0.0894243 -5.35502e-21)
(-0.0353036 -0.0905084 5.20379e-21)
(0.0268413 -0.0885026 -1.47958e-21)
(0.0924888 -0.0835314 1.4136e-21)
(0.159714 -0.0760028 1.21277e-21)
(0.227368 -0.066498 -3.24477e-21)
(0.294056 -0.0558394 1.99257e-21)
(0.358508 -0.0448725 1.69309e-22)
(0.419733 -0.0343384 2.99845e-21)
(0.477068 -0.0248084 -5.86689e-21)
(0.530166 -0.0165762 2.86975e-21)
(0.5788 -0.00960811 -1.66257e-22)
(0.622932 -0.00395504 -2.45649e-21)
(0.662783 0.000506552 1.01284e-22)
(0.698647 0.00392481 3.98896e-21)
(0.730812 0.00649428 -3.5441e-21)
(0.759685 0.00856367 1.64224e-21)
(0.785692 0.0101113 -1.71451e-22)
(0.80914 0.011265 7.53894e-23)
(0.830365 0.0121572 -1.31852e-22)
(0.849736 0.012821 0)
(0.867516 0.0134744 0)
(0.883984 0.0139549 3.36243e-22)
(0.899309 0.0147183 -2.49532e-22)
(0.913602 0.0152753 -1.89225e-22)
(0.926771 0.0164929 -3.94053e-24)
(0.938711 0.0171357 2.43588e-22)
(0.949228 0.0188364 -4.48535e-23)
(0.958267 0.0192745 0)
(0.965823 0.0213374 0)
(0.972041 0.0214719 0)
(0.977079 0.0239187 0)
(0.981166 0.0239481 -4.39956e-23)
(0.98445 0.0268123 1.89745e-23)
(0.987135 0.0268359 0)
(0.989335 0.0302066 0)
(0.991127 0.0300503 0)
(0.992729 0.0341801 9.05835e-24)
(0.993944 0.033718 -1.30369e-24)
(0.99523 0.0386857 7.35203e-24)
(0.996078 0.0381517 0)
(0.997203 0.0438975 0)
(0.997766 0.0434203 -3.2285e-24)
(0.998889 0.0501807 -7.48997e-24)
(0.999172 0.0497984 0)
(1.00041 0.0576403 0)
(-0.176117 0.0520804 1.39415e-21)
(-0.186028 0.0431058 -5.47655e-20)
(-0.191058 0.0333137 5.50027e-20)
(-0.1939 0.0222542 -5.14241e-20)
(-0.193947 0.00985518 -3.95263e-22)
(-0.19089 -0.00385779 0)
(-0.184109 -0.0188866 -4.62548e-20)
(-0.173058 -0.0349716 4.53107e-20)
(-0.157382 -0.0516185 3.11062e-22)
(-0.13673 -0.0683622 5.84088e-22)
(-0.110787 -0.0848021 5.18976e-22)
(-0.0793114 -0.100285 4.27795e-22)
(-0.0423379 -0.114064 -2.11759e-20)
(-0.000276278 -0.125197 2.08587e-20)
(0.0474661 -0.132812 0)
(0.0997815 -0.136493 3.06524e-22)
(0.154926 -0.135725 -3.58844e-21)
(0.212285 -0.13106 3.51101e-21)
(0.270411 -0.122592 0)
(0.32817 -0.111098 0)
(0.384512 -0.0976444 5.09927e-21)
(0.438571 -0.0833423 -1.07765e-20)
(0.489711 -0.0691821 1.13221e-20)
(0.537555 -0.0559477 -6.57073e-23)
(0.581959 -0.0441443 -1.102e-20)
(0.622834 -0.0339762 1.07302e-20)
(0.660182 -0.025383 -9.45099e-21)
(0.694162 -0.0182649 6.01572e-22)
(0.724979 -0.0124786 4.14574e-21)
(0.752951 -0.00783085 0)
(0.778288 -0.0039971 0)
(0.801201 -0.000938284 -9.65566e-22)
(0.82201 0.0014476 1.27179e-21)
(0.840983 0.00349937 7.70106e-25)
(0.858424 0.00521717 -8.8091e-22)
(0.874533 0.00673599 8.56089e-22)
(0.889562 0.00790013 0)
(0.903647 0.00924265 -7.76216e-23)
(0.916896 0.0103372 -5.83741e-22)
(0.929202 0.0121099 1.07037e-21)
(0.940477 0.0133258 -4.37848e-22)
(0.950486 0.0156201 -4.51039e-23)
(0.959178 0.0166238 3.74942e-22)
(0.966488 0.0192078 -2.88358e-22)
(0.972559 0.0197815 -5.89378e-23)
(0.977506 0.0225914 -5.10622e-23)
(0.981545 0.0229059 4.41075e-23)
(0.984819 0.0259927 0)
(0.987496 0.0261836 0)
(0.989722 0.029687 1.10403e-22)
(0.991523 0.0296212 -5.20558e-23)
(0.993164 0.0338305 4.16847e-23)
(0.994393 0.0334188 -5.29078e-23)
(0.995728 0.038432 -5.68638e-23)
(0.996587 0.0379296 1.3325e-23)
(0.997776 0.0437047 -1.95199e-23)
(0.998344 0.0432439 1.49623e-23)
(0.999544 0.0500269 -6.31766e-24)
(0.999831 0.0496526 0)
(1.00116 0.0575119 0)
(-0.0263726 0.0590728 -1.14683e-19)
(-0.0304511 0.0500428 -4.09446e-22)
(-0.0295795 0.038076 1.09181e-19)
(-0.0267601 0.0241777 -8.39465e-22)
(-0.021856 0.00876092 0)
(-0.014741 -0.00826577 0)
(-0.00481112 -0.0268873 -9.59775e-20)
(0.00857155 -0.0466557 2.86629e-21)
(0.0261548 -0.0671385 1.28064e-19)
(0.0479082 -0.0880217 -3.47395e-21)
(0.0738494 -0.108724 -3.63539e-20)
(0.104273 -0.128413 -2.67225e-20)
(0.139119 -0.146195 2.68894e-20)
(0.177925 -0.160789 0)
(0.220574 -0.170793 -1.29508e-20)
(0.266311 -0.176484 1.1926e-20)
(0.313873 -0.176842 0)
(0.362288 -0.171976 0)
(0.410412 -0.16231 -1.30737e-21)
(0.457323 -0.148788 -1.9482e-21)
(0.502303 -0.132696 2.99466e-21)
(0.54486 -0.11539 5.40619e-21)
(0.584703 -0.0980819 -5.41697e-21)
(0.621707 -0.0817018 5.76352e-21)
(0.655943 -0.0669383 -2.13915e-22)
(0.687516 -0.0540512 -5.23238e-21)
(0.71648 -0.0429998 -5.96424e-22)
(0.742969 -0.0336858 -8.36251e-24)
(0.767153 -0.025936 0)
(0.789241 -0.0195327 -3.35415e-21)
(0.809404 -0.0143802 3.45074e-21)
(0.827791 -0.0101615 -1.72233e-22)
(0.84467 -0.00674353 0)
(0.860238 -0.00382267 1.32654e-22)
(0.874617 -0.00142278 -1.76077e-21)
(0.887955 0.000678092 3.05152e-21)
(0.900513 0.00248949 3.02679e-23)
(0.912406 0.0043531 -1.29904e-22)
(0.923739 0.00588829 -1.01471e-21)
(0.934394 0.0081124 -1.19202e-22)
(0.944313 0.0098056 7.896e-22)
(0.95324 0.0126099 -6.7673e-22)
(0.96113 0.0141113 -4.68199e-27)
(0.967853 0.0171648 -2.58851e-22)
(0.973531 0.0181398 3.10792e-22)
(0.978219 0.0212877 3.48204e-22)
(0.9821 0.0218693 -9.98852e-23)
(0.985293 0.0251693 -1.45158e-22)
(0.987919 0.0255201 2.66278e-22)
(0.990145 0.0291539 -1.78734e-22)
(0.991939 0.0291763 4.30583e-23)
(0.99361 0.0334655 -5.30052e-23)
(0.994849 0.0331032 -4.07916e-23)
(0.996231 0.0381634 8.67004e-23)
(0.997096 0.0376917 -2.29506e-24)
(0.99835 0.043498 1.95755e-23)
(0.998922 0.0430532 0)
(1.0002 0.0498607 6.33486e-24)
(1.00049 0.0494944 -8.54005e-24)
(1.00191 0.0573738 0)
(0.131181 0.0577106 1.1638e-19)
(0.135176 0.0497259 -2.28998e-19)
(0.140496 0.0371729 1.11248e-19)
(0.148559 0.0220037 1.10656e-19)
(0.158438 0.00486754 -2.15827e-19)
(0.169713 -0.0143649 1.92361e-21)
(0.183066 -0.0355496 1.01187e-19)
(0.198981 -0.0580046 9.2252e-20)
(0.217943 -0.0813736 -9.03366e-20)
(0.240166 -0.105478 0)
(0.265734 -0.129498 -6.84266e-20)
(0.294683 -0.15247 1.25421e-19)
(0.326838 -0.173294 -5.7223e-20)
(0.36171 -0.190648 0)
(0.398861 -0.203198 0)
(0.437486 -0.210218 3.52467e-22)
(0.476519 -0.211064 -1.17281e-20)
(0.515081 -0.205761 1.13931e-20)
(0.552377 -0.194843 0)
(0.587838 -0.179415 -4.82628e-21)
(0.621144 -0.160973 1.22388e-20)
(0.652182 -0.141081 -1.67484e-20)
(0.680976 -0.121137 1.96572e-20)
(0.707579 -0.102174 5.28178e-22)
(0.732163 -0.0849407 -2.07343e-20)
(0.754942 -0.0698326 1.02551e-20)
(0.77599 -0.0568271 2.96137e-22)
(0.795368 -0.0458002 3.84078e-21)
(0.813179 -0.036562 -2.87144e-22)
(0.829556 -0.0288842 -3.60006e-21)
(0.844621 -0.0225709 -1.94158e-22)
(0.85847 -0.0173486 2.59682e-21)
(0.871267 -0.0130326 -4.80908e-21)
(0.883132 -0.00947337 2.48262e-21)
(0.894186 -0.00659904 0)
(0.904581 -0.00406954 1.74939e-21)
(0.914424 -0.0019838 -1.67981e-21)
(0.923753 0.000249099 1.03142e-21)
(0.932776 0.00214763 -1.28953e-21)
(0.941392 0.00470749 1.19207e-22)
(0.949579 0.00675136 0)
(0.957082 0.00994763 9.10055e-23)
(0.963877 0.0118453 -2.37609e-22)
(0.969778 0.015287 0)
(0.974886 0.0166012 -5.71019e-22)
(0.979186 0.0200438 2.32241e-22)
(0.982817 0.0208616 -8.93874e-23)
(0.985869 0.0243566 -7.73552e-23)
(0.988404 0.0248547 0)
(0.990606 0.028613 0)
(0.992377 0.0287191 1.41843e-22)
(0.994069 0.0330872 -2.10817e-22)
(0.995311 0.0327725 1.1214e-22)
(0.996738 0.0378809 -3.43134e-23)
(0.997608 0.0374388 -5.34877e-23)
(0.998926 0.0432778 -1.95941e-23)
(0.999501 0.0428487 3.00846e-23)
(1.00085 0.0496826 0)
(1.00115 0.049324 1.38043e-23)
(1.00266 0.057226 3.20708e-24)
(0.290749 0.0516368 1.17689e-19)
(0.300264 0.0433016 -1.16949e-19)
(0.309378 0.03083 8.95836e-22)
(0.321352 0.0157513 -8.71062e-22)
(0.335032 -0.0017251 8.56894e-22)
(0.349738 -0.0217739 -8.2934e-22)
(0.365962 -0.044127 1.58781e-21)
(0.384037 -0.0683022 0)
(0.404293 -0.093821 -1.41538e-21)
(0.426878 -0.120202 1.30613e-21)
(0.451786 -0.146659 1.18215e-21)
(0.478906 -0.172098 -1.01775e-21)
(0.507908 -0.195212 0)
(0.538187 -0.214535 0)
(0.569039 -0.228625 5.92678e-22)
(0.599594 -0.236466 0)
(0.628969 -0.237455 -3.08575e-22)
(0.656562 -0.231632 0)
(0.682042 -0.219631 -1.58221e-21)
(0.705347 -0.2027 -9.02888e-22)
(0.726663 -0.182492 8.31642e-21)
(0.7463 -0.160703 -5.65995e-21)
(0.76458 -0.138833 -9.06053e-21)
(0.781694 -0.117995 8.79868e-21)
(0.797786 -0.0989055 9.86465e-21)
(0.813051 -0.0820852 -9.57854e-21)
(0.82753 -0.0675655 0)
(0.841145 -0.0552061 -2.48188e-22)
(0.853865 -0.0448003 0)
(0.865707 -0.0361018 0)
(0.876711 -0.0288936 -5.43031e-21)
(0.8869 -0.0229201 5.63347e-21)
(0.896365 -0.0179904 -2.9398e-22)
(0.905184 -0.0138855 -2.64799e-22)
(0.913442 -0.0105013 2.29004e-22)
(0.921187 -0.00757495 1.54682e-21)
(0.928581 -0.00529196 -1.50192e-21)
(0.935645 -0.00296149 1.34621e-21)
(0.942478 -0.000860482 -1.15486e-21)
(0.949068 0.0019521 -2.39954e-22)
(0.95548 0.0042291 7.98926e-22)
(0.961482 0.00769666 1.155e-23)
(0.967083 0.00988045 -5.1623e-22)
(0.972064 0.0136189 0)
(0.976511 0.0151999 2.40337e-22)
(0.980348 0.0188849 -2.90084e-22)
(0.983671 0.0199007 3.82812e-22)
(0.986539 0.0235669 7.78476e-23)