/*--------------------------------*- C++ -*----------------------------------*\
| =========                 |                                                 |
| \\      /  F ield         | OpenFOAM: The Open Source CFD Toolbox           |
|  \\    /   O peration     | Version:  2512                                  |
|   \\  /    A nd           | Website:  www.openfoam.com                      |
|    \\/     M anipulation  |                                                 |
\*---------------------------------------------------------------------------*/
FoamFile
{
    version     2.0;
    format      ascii;
    arch        "LSB;label=32;scalar=64";
    class       volScalarField;
    location    "24.75";
    object      p;
}
// * * * * * * * * * * * * * * * * * * * * * * * * * * * * * * * * * * * * * //

dimensions      [0 2 -2 0 0 0 0];

internalField   nonuniform List<scalar> 
13248
(
-0.299539
-0.298017
-0.29599
-0.293616
-0.291073
-0.288529
-0.286099
-0.283835
-0.281745
-0.279795
-0.27792
-0.276033
-0.274038
-0.271838
-0.269344
-0.266486
-0.263217
-0.259519
-0.255391
-0.250886
-0.245968
-0.240872
-0.235027
-0.229402
-0.306607
-0.304446
-0.301778
-0.298774
-0.295609
-0.292468
-0.289462
-0.286628
-0.283948
-0.281357
-0.27876
-0.276051
-0.273121
-0.269879
-0.266257
-0.262215
-0.257746
-0.252869
-0.247622
-0.242057
-0.236209
-0.230147
-0.223747
-0.217648
-0.315037
-0.312059
-0.308639
-0.304938
-0.301107
-0.297327
-0.29369
-0.290198
-0.286793
-0.283373
-0.279821
-0.276026
-0.271896
-0.267375
-0.262443
-0.257116
-0.251436
-0.245468
-0.239277
-0.232934
-0.226466
-0.219959
-0.213317
-0.206976
-0.325004
-0.321025
-0.316746
-0.312287
-0.307737
-0.303248
-0.298871
-0.294554
-0.290191
-0.285657
-0.280837
-0.275651
-0.270063
-0.264083
-0.257758
-0.251163
-0.244382
-0.237499
-0.230584
-0.223689
-0.216837
-0.210085
-0.203346
-0.197071
-0.336612
-0.331457
-0.326222
-0.320945
-0.315602
-0.310285
-0.30498
-0.299574
-0.293929
-0.287933
-0.281518
-0.274682
-0.267474
-0.259982
-0.252314
-0.244577
-0.236866
-0.229253
-0.221783
-0.214482
-0.207359
-0.200432
-0.193646
-0.187321
-0.349869
-0.343395
-0.33713
-0.330971
-0.32472
-0.318377
-0.31185
-0.304986
-0.297663
-0.289836
-0.281542
-0.272884
-0.264004
-0.25505
-0.246157
-0.23743
-0.22894
-0.220726
-0.212806
-0.205178
-0.197832
-0.190763
-0.183928
-0.177554
-0.364663
-0.356775
-0.349426
-0.3423
-0.33496
-0.327283
-0.319127
-0.310355
-0.300935
-0.290955
-0.280593
-0.27006
-0.259561
-0.249265
-0.239293
-0.229716
-0.220568
-0.211851
-0.203553
-0.195651
-0.188118
-0.180929
-0.174057
-0.167623
-0.380719
-0.371383
-0.362915
-0.354694
-0.345982
-0.33655
-0.326268
-0.315112
-0.303227
-0.290882
-0.27839
-0.266037
-0.254043
-0.242554
-0.231645
-0.22134
-0.211629
-0.202484
-0.193865
-0.185732
-0.178045
-0.170768
-0.163879
-0.1574
-0.397564
-0.386819
-0.377196
-0.367679
-0.357207
-0.345506
-0.332578
-0.318627
-0.304038
-0.289261
-0.274706
-0.260674
-0.247351
-0.234825
-0.223114
-0.21219
-0.202004
-0.1925
-0.183619
-0.175304
-0.167505
-0.160179
-0.153298
-0.146804
-0.414503
-0.40245
-0.391614
-0.380512
-0.367802
-0.353298
-0.33728
-0.320275
-0.30292
-0.2858
-0.269353
-0.253837
-0.239368
-0.225962
-0.213575
-0.202136
-0.191562
-0.181774
-0.172695
-0.164256
-0.156396
-0.149065
-0.142216
-0.13574
-0.430617
-0.417397
-0.405239
-0.392179
-0.376719
-0.35894
-0.339542
-0.31941
-0.299392
-0.280131
-0.262021
-0.245238
-0.22981
-0.215678
-0.202746
-0.190901
-0.180037
-0.170053
-0.160858
-0.152369
-0.144516
-0.137242
-0.130466
-0.124075
-0.444846
-0.430646
-0.417032
-0.401596
-0.382881
-0.361439
-0.338492
-0.315279
-0.292782
-0.271623
-0.252099
-0.234277
-0.218088
-0.203405
-0.190081
-0.177971
-0.166944
-0.156881
-0.147678
-0.139242
-0.131499
-0.124376
-0.117765
-0.111599
-0.256592
-0.258703
-0.260065
-0.261008
-0.261824
-0.262588
-0.263336
-0.264093
-0.264867
-0.265661
-0.266469
-0.267284
-0.268098
-0.268901
-0.269687
-0.270447
-0.271175
-0.271867
-0.272533
-0.273175
-0.273804
-0.274438
-0.275148
-0.276095
-0.257755
-0.259775
-0.261089
-0.262008
-0.262813
-0.263574
-0.264326
-0.265089
-0.265872
-0.266673
-0.267485
-0.268299
-0.269102
-0.269882
-0.270626
-0.271322
-0.271957
-0.272522
-0.273006
-0.273416
-0.273751
-0.273999
-0.274229
-0.274798
-0.259739
-0.261559
-0.262755
-0.263605
-0.26436
-0.265086
-0.265812
-0.266556
-0.267325
-0.268113
-0.26891
-0.269704
-0.270479
-0.271218
-0.271903
-0.272516
-0.273034
-0.27344
-0.273715
-0.273853
-0.273846
-0.273646
-0.273282
-0.273383
-0.2624
-0.263935
-0.264954
-0.265689
-0.266352
-0.267002
-0.267664
-0.268355
-0.269075
-0.269817
-0.270569
-0.271314
-0.272033
-0.272706
-0.273309
-0.273817
-0.274201
-0.274431
-0.274479
-0.274324
-0.273954
-0.273301
-0.272282
-0.271636
-0.265557
-0.266755
-0.267551
-0.268124
-0.268648
-0.269172
-0.269723
-0.270311
-0.270936
-0.271588
-0.272251
-0.272908
-0.273535
-0.274108
-0.2746
-0.274978
-0.275211
-0.275258
-0.27508
-0.274643
-0.273923
-0.272858
-0.271258
-0.269646
-0.269025
-0.26987
-0.27041
-0.270778
-0.271109
-0.271452
-0.271831
-0.272257
-0.27273
-0.273236
-0.273761
-0.274281
-0.274772
-0.275207
-0.275554
-0.27578
-0.275844
-0.275706
-0.275316
-0.274628
-0.2736
-0.272169
-0.270138
-0.267498
-0.272658
-0.273162
-0.273426
-0.273545
-0.273627
-0.273725
-0.273866
-0.274065
-0.274321
-0.274623
-0.274952
-0.275286
-0.275597
-0.275854
-0.276024
-0.276069
-0.275948
-0.275614
-0.275016
-0.274097
-0.272807
-0.27104
-0.268924
-0.264937
-0.276377
-0.276571
-0.276542
-0.276367
-0.276144
-0.27593
-0.275767
-0.275671
-0.275647
-0.275685
-0.275767
-0.275867
-0.275956
-0.275999
-0.275959
-0.275795
-0.275461
-0.274908
-0.274081
-0.272918
-0.271408
-0.269225
-0.267371
-0.262199
-0.280191
-0.280105
-0.279762
-0.27925
-0.278662
-0.278075
-0.277542
-0.277091
-0.27673
-0.276453
-0.276241
-0.276066
-0.275894
-0.275688
-0.275402
-0.274989
-0.274396
-0.273573
-0.27247
-0.271006
-0.269293
-0.266664
-0.265096
-0.259467
-0.284202
-0.283839
-0.283164
-0.282263
-0.281255
-0.280237
-0.279279
-0.27842
-0.277676
-0.277042
-0.276496
-0.276008
-0.275534
-0.275026
-0.27443
-0.273688
-0.272743
-0.271543
-0.270054
-0.268194
-0.266184
-0.263269
-0.261667
-0.256418
-0.288595
-0.287933
-0.286874
-0.285532
-0.284047
-0.282545
-0.281114
-0.279805
-0.278636
-0.277602
-0.276676
-0.275817
-0.274969
-0.274067
-0.273044
-0.271831
-0.270366
-0.268598
-0.266504
-0.264062
-0.261455
-0.258338
-0.256267
-0.251852
-0.29362
-0.292586
-0.291077
-0.289232
-0.287218
-0.285188
-0.283246
-0.28145
-0.27982
-0.278342
-0.276977
-0.275664
-0.27433
-0.27289
-0.271262
-0.26937
-0.267148
-0.264556
-0.26157
-0.258229
-0.254567
-0.250748
-0.247348
-0.243715
-0.277528
-0.279134
-0.280868
-0.282625
-0.284313
-0.285796
-0.286889
-0.287403
-0.287004
-0.2853
-0.281959
-0.276651
-0.268889
-0.258289
-0.244549
-0.227483
-0.207039
-0.183351
-0.156948
-0.128678
-0.099225
-0.0698489
-0.0420692
-0.0167086
0.00530552
0.0233437
0.0371535
0.046831
0.0528101
0.0557039
0.0561838
0.0548981
0.0524116
0.04919
0.0455783
0.0418367
0.0381228
0.0345816
0.0312181
0.0280815
0.0251933
0.0225551
0.0201476
0.0179575
0.0159723
0.0141775
0.0125585
0.0111012
0.00978702
0.00859698
0.00750451
0.00649741
0.00555358
0.0046823
0.00385671
0.00310252
0.00236838
0.0016977
0.0010035
0.000364201
-0.276223
-0.277341
-0.278568
-0.279815
-0.280998
-0.281994
-0.282598
-0.282808
-0.282213
-0.280532
-0.277347
-0.272375
-0.265205
-0.255446
-0.242758
-0.22691
-0.20778
-0.185322
-0.160323
-0.133491
-0.104941
-0.0766464
-0.0482322
-0.0223445
0.000481385
0.019428
0.0341353
0.0446329
0.051309
0.0547622
0.0556728
0.0546988
0.0524256
0.0493396
0.0458034
0.042087
0.038376
0.0347886
0.0313964
0.028235
0.0253167
0.022652
0.02022
0.0180146
0.0160154
0.014215
0.0125889
0.0111312
0.0098143
0.00862595
0.00753077
0.00652333
0.00557558
0.00470168
0.00387269
0.00311493
0.00237875
0.00170394
0.00100878
0.000364225
-0.275214
-0.27592
-0.276719
-0.277596
-0.27844
-0.279177
-0.279733
-0.279728
-0.279106
-0.277582
-0.274803
-0.270412
-0.263995
-0.255113
-0.243478
-0.229123
-0.211842
-0.191549
-0.167965
-0.142145
-0.112739
-0.0845501
-0.0562061
-0.0295976
-0.00583608
0.0141484
0.0298692
0.0412873
0.0487597
0.052879
0.054335
0.0537916
0.0518437
0.0489957
0.0456252
0.0420175
0.0383743
0.0348087
0.0314203
0.0282462
0.0253322
0.0226691
0.0202284
0.0180193
0.0160157
0.0142174
0.0125895
0.0111361
0.00982011
0.0086372
0.00754264
0.00653817
0.0055891
0.00471494
0.0038842
0.0031243
0.00238701
0.0017089
0.00101337
0.000363918
-0.274395
-0.274676
-0.275059
-0.27568
-0.276316
-0.276894
-0.277321
-0.277415
-0.276997
-0.275826
-0.273578
-0.269874
-0.264428
-0.25689
-0.24683
-0.233727
-0.217495
-0.197932
-0.175517
-0.150358
-0.122532
-0.0939812
-0.0652967
-0.0379851
-0.013313
0.00768254
0.0244143
0.0367832
0.0451155
0.0499939
0.0521064
0.0521186
0.0506159
0.0481149
0.0450092
0.0415981
0.0380877
0.0346088
0.0312864
0.0281714
0.0252251
0.0225983
0.0201741
0.0179739
0.015976
0.0141871
0.012563
0.0111175
0.0098059
0.00863134
0.00754059
0.00654194
0.00559423
0.00472205
0.00389127
0.00313067
0.00239319
0.00171269
0.00101726
0.000363356
-0.273404
-0.273519
-0.273415
-0.273783
-0.274294
-0.274795
-0.275206
-0.27541
-0.275247
-0.274485
-0.272803
-0.269958
-0.26539
-0.25875
-0.249708
-0.237944
-0.223181
-0.205088
-0.183717
-0.159295
-0.132197
-0.103726
-0.0748673
-0.0470531
-0.0216556
0.000199513
0.0178515
0.0311485
0.0403773
0.0460948
0.0489715
0.0496604
0.0487255
0.0466833
0.0439422
0.0408128
0.0375113
0.0341947
0.0309807
0.0279421
0.0251131
0.0224359
0.0200524
0.0178792
0.0158981
0.014126
0.0125114
0.0110772
0.00977327
0.00860919
0.00752512
0.00653462
0.00559089
0.00472277
0.00389371
0.00313388
0.00239716
0.00171523
0.00102039
0.000362581
-0.272091
-0.272445
-0.271781
-0.271787
-0.272175
-0.272619
-0.273014
-0.273285
-0.273299
-0.272894
-0.271845
-0.269537
-0.265733
-0.260114
-0.25225
-0.241685
-0.22808
-0.21121
-0.190973
-0.167507
-0.14123
-0.113151
-0.0843972
-0.0563915
-0.0305582
-0.00807225
0.0103553
0.0245215
0.0346594
0.0412764
0.0450076
0.0464758
0.0462204
0.0447396
0.0424535
0.0396847
0.0366633
0.0335632
0.030509
0.027582
0.0248171
0.0222456
0.0198596
0.0177337
0.0157845
0.0140369
0.0124376
0.0110179
0.00972449
0.00857227
0.00749725
0.00651659
0.00557925
0.004717
0.0038914
0.00313376
0.00239875
0.00171645
0.00102263
0.000361655
-0.27046
-0.271297
-0.270094
-0.269627
-0.26987
-0.270226
-0.270543
-0.270795
-0.270829
-0.270868
-0.270036
-0.268228
-0.265126
-0.260327
-0.253388
-0.24388
-0.231439
-0.215773
-0.196724
-0.174368
-0.149092
-0.121742
-0.0934516
-0.065626
-0.0396945
-0.0168427
0.00218789
0.0171396
0.0281738
0.0357242
0.0403689
0.0426898
0.0432002
0.0423628
0.0406047
0.0382613
0.0355773
0.0327406
0.0298852
0.0271071
0.0244567
0.0219649
0.0196561
0.0175371
0.0156375
0.013923
0.0123444
0.0109424
0.0096621
0.00852257
0.00745843
0.00648871
0.00555977
0.00470491
0.00388434
0.00313028
0.00239786
0.00171631
0.00102391
0.000360672
-0.26819
-0.269542
-0.268036
-0.267175
-0.267218
-0.267423
-0.267612
-0.267842
-0.268204
-0.26795
-0.267276
-0.265817
-0.263203
-0.259037
-0.252888
-0.244312
-0.232902
-0.218353
-0.200506
-0.179416
-0.15539
-0.129136
-0.101705
-0.0744442
-0.0487525
-0.0257989
-0.00634307
0.00929417
0.0211856
0.029672
0.0352531
0.0384652
0.0397936
0.0396547
0.0384732
0.0366004
0.0342956
0.0317589
0.0291357
0.0265338
0.0240177
0.0216282
0.0193859
0.0172859
0.0154532
0.013787
0.0122346
0.0108531
0.00958827
0.0084621
0.00741016
0.00645204
0.00553308
0.00468685
0.00387268
0.00312348
0.00239444
0.00171482
0.00102415
0.000359755
-0.265018
-0.266301
-0.26482
-0.263999
-0.263928
-0.263967
-0.264037
-0.264149
-0.264193
-0.264024
-0.263444
-0.262157
-0.259839
-0.256124
-0.250596
-0.24281
-0.232357
-0.21891
-0.202276
-0.182485
-0.159877
-0.135051
-0.10887
-0.0825436
-0.0574056
-0.0345959
-0.0148924
0.00131019
0.0139834
0.0233651
0.0298623
0.0339611
0.0361232
0.0367218
0.0361479
0.0347696
0.032867
0.030653
0.028284
0.0258791
0.0235132
0.0212443
0.0190953
0.0171373
0.0152068
0.0136214
0.0121093
0.0107524
0.00950476
0.00839254
0.0073538
0.00640777
0.00549993
0.00466337
0.00385666
0.00311352
0.00238853
0.00171202
0.00102332
0.000359063
-0.260481
-0.260901
-0.259916
-0.259562
-0.259444
-0.259352
-0.259318
-0.259194
-0.258794
-0.258631
-0.258116
-0.256961
-0.254867
-0.251513
-0.24651
-0.239431
-0.229881
-0.21753
-0.202172
-0.183803
-0.162705
-0.13948
-0.114857
-0.0898058
-0.0655228
-0.0430951
-0.0233224
-0.00668521
0.00667624
0.0168921
0.0242704
0.0292306
0.0322123
0.0335877
0.0336716
0.0328216
0.0313414
0.0294648
0.0273625
0.0251658
0.0229621
0.0208188
0.0187742
0.0168739
0.0151345
0.0134351
0.0119683
0.0106427
0.00941363
0.00831575
0.00729082
0.0063573
0.00546135
0.00463523
0.00383674
0.00310072
0.00238022
0.00170802
0.00102144
0.000358836
-0.253647
-0.253578
-0.253619
-0.253645
-0.253486
-0.253545
-0.253773
-0.253894
-0.253658
-0.252705
-0.251968
-0.250829
-0.248864
-0.245793
-0.241244
-0.234821
-0.226161
-0.214946
-0.200958
-0.184155
-0.164746
-0.143224
-0.120316
-0.0967836
-0.0736
-0.0517475
-0.0320301
-0.0150239
-0.000995904
0.0100624
0.0183523
0.0242071
0.028014
0.0301542
0.0309499
0.0306946
0.02969
0.0281883
0.026379
0.0244095
0.0223811
0.0203729
0.0184304
0.016603
0.0148753
0.0132586
0.0117791
0.0105139
0.00931352
0.00823311
0.00722275
0.00630158
0.00541777
0.00460253
0.00381267
0.00308485
0.00236918
0.00170264
0.00101831
0.000359378
-0.244691
-0.245568
-0.245973
-0.245526
-0.245214
-0.245408
-0.245677
-0.245699
-0.245428
-0.244838
-0.243891
-0.242651
-0.240795
-0.23802
-0.233938
-0.228189
-0.220451
-0.210427
-0.197892
-0.182764
-0.16516
-0.145434
-0.12416
-0.102073
-0.080051
-0.0589802
-0.0395789
-0.022468
-0.0080136
0.00368192
0.0127213
0.0193512
0.0239011
0.0267074
0.0280953
0.0283854
0.0278517
0.0267402
0.025248
0.0235314
0.0217027
0.0198506
0.0180293
0.0162927
0.0146482
0.0131215
0.0117175
0.0103717
0.00919977
0.0081384
0.00714512
0.00623608
0.00536536
0.00456242
0.00378204
0.00306424
0.00235393
0.00169497
0.00101308
0.000360787
-0.234141
-0.239191
-0.239254
-0.238164
-0.237756
-0.238011
-0.238388
-0.238605
-0.238626
-0.238304
-0.237266
-0.235577
-0.233521
-0.230701
-0.226658
-0.221039
-0.213551
-0.203924
-0.191956
-0.17758
-0.160907
-0.142263
-0.122186
-0.101349
-0.0805209
-0.060498
-0.041965
-0.0254856
-0.0114087
0.000141559
0.00922827
0.0160456
0.0208758
0.0240288
0.025793
0.0264424
0.0262346
0.0254071
0.0241572
0.0226421
0.0209802
0.019263
0.0175518
0.0159016
0.0143286
0.0128482
0.0114731
0.0102229
0.00907124
0.00801823
0.00704976
0.00616027
0.00530668
0.00451915
0.00374942
0.00304252
0.00233761
0.00168655
0.00100664
0.000362461
-0.222785
-0.230238
-0.230804
-0.229244
-0.228461
-0.228649
-0.229109
-0.229346
-0.229178
-0.228524
-0.227405
-0.225906
-0.223804
-0.220842
-0.216699
-0.211078
-0.203725
-0.194422
-0.183012
-0.169456
-0.153868
-0.136543
-0.117948
-0.0986681
-0.0793668
-0.0607365
-0.043387
-0.0278156
-0.0143523
-0.00314144
0.00583805
0.0127276
0.0177549
0.0211792
0.0232506
0.0242169
0.0243194
0.023782
0.0227928
0.0215065
0.0200407
0.0184895
0.0169169
0.0153797
0.0138983
0.0124932
0.0111815
0.00997233
0.00886388
0.00785886
0.00691793
0.00605357
0.00522109
0.00445216
0.00369819
0.00300474
0.00231045
0.00166888
0.000995781
0.000360341
-0.210829
-0.219525
-0.220801
-0.219238
-0.218244
-0.218371
-0.218893
-0.219165
-0.218958
-0.218284
-0.217193
-0.215622
-0.213374
-0.210251
-0.206026
-0.200457
-0.193326
-0.184452
-0.173715
-0.161093
-0.14669
-0.130751
-0.113671
-0.095948
-0.0781524
-0.0608819
-0.0446795
-0.0299958
-0.0171487
-0.00630034
0.00253345
0.00944852
0.0146219
0.0182691
0.0206109
0.0218728
0.0222752
0.0220259
0.0213017
0.0202527
0.018994
0.0176215
0.0161998
0.0147884
0.0134107
0.0120957
0.0108556
0.00970486
0.0086418
0.00767406
0.0067628
0.0059248
0.00511624
0.00436813
0.0036331
0.00295543
0.00227491
0.00164479
0.000981529
0.00035616
-0.198812
-0.207859
-0.209846
-0.208658
-0.207691
-0.207783
-0.208336
-0.208666
-0.208495
-0.20783
-0.2067
-0.205029
-0.202682
-0.199492
-0.195281
-0.189853
-0.183024
-0.174644
-0.164621
-0.152941
-0.139692
-0.125083
-0.109442
-0.0931953
-0.0768316
-0.0608658
-0.045779
-0.0319789
-0.0197661
-0.00931283
-0.00066447
0.00623471
0.0115167
0.0153583
0.0179508
0.0194946
0.0201875
0.0202206
0.0197591
0.0189477
0.0178983
0.0167078
0.015441
0.01416
0.0128914
0.0116694
0.0105039
0.00941614
0.0084019
0.00747232
0.00659419
0.00578453
0.00500177
0.00427606
0.00356139
0.00290088
0.00223534
0.00161791
0.000965823
0.000351146
-0.186554
-0.195724
-0.198376
-0.197705
-0.196911
-0.197008
-0.197575
-0.197961
-0.197843
-0.197188
-0.19602
-0.194303
-0.191929
-0.188758
-0.184641
-0.179417
-0.172934
-0.165074
-0.155763
-0.144996
-0.13285
-0.1195
-0.105222
-0.0903755
-0.0753769
-0.0606669
-0.0466678
-0.0337458
-0.0221819
-0.0121533
-0.00372891
0.00311313
0.00846608
0.0124707
0.0152882
0.0170934
0.0180618
0.0183676
0.0181639
0.0175886
0.0167499
0.015744
0.0146361
0.0134901
0.0123353
0.0112096
0.0101232
0.00910151
0.00813954
0.00725272
0.00641106
0.00563234
0.00487738
0.00417585
0.00348296
0.00284101
0.00219172
0.00158816
0.000948576
0.000345241
-0.174306
-0.183507
-0.186667
-0.186497
-0.185943
-0.186093
-0.18668
-0.187117
-0.187062
-0.186442
-0.185282
-0.183581
-0.181244
-0.178158
-0.174192
-0.169216
-0.163111
-0.155782
-0.147175
-0.13729
-0.126195
-0.114036
-0.101043
-0.0875174
-0.0738105
-0.0602987
-0.0473498
-0.0352911
-0.0243833
-0.0148036
-0.00663836
0.000106775
0.0054917
0.00962407
0.0126362
0.014678
0.0159034
0.0164693
0.016516
0.0161738
0.0155457
0.0147265
0.0137811
0.0127746
0.0117383
0.0107133
0.00971071
0.00875902
0.00785367
0.00701359
0.00621141
0.00546629
0.00474129
0.00406588
0.00339648
0.00277466
0.00214318
0.00155481
0.000929347
0.000338304
-0.162431
-0.1714
-0.174882
-0.175153
-0.174868
-0.175111
-0.175734
-0.176225
-0.176243
-0.175694
-0.174595
-0.172951
-0.170702
-0.167747
-0.163977
-0.159288
-0.153585
-0.146797
-0.138883
-0.129847
-0.119748
-0.108709
-0.0969193
-0.0846304
-0.0721379
-0.0597623
-0.0478219
-0.0366076
-0.0263586
-0.0172481
-0.00937409
-0.00276408
0.00261355
0.00683689
0.0100113
0.0122628
0.0137244
0.0145354
0.0148229
0.0147083
0.0142891
0.0136574
0.012877
0.0120136
0.0111001
0.01018
0.0092656
0.008388
0.00754342
0.00675366
0.00599405
0.00528528
0.00459255
0.0039453
0.00330123
0.00270122
0.00208926
0.0015175
0.000907936
0.000330366
-0.150923
-0.15949
-0.163165
-0.163813
-0.163794
-0.164154
-0.164826
-0.165374
-0.165474
-0.165018
-0.164013
-0.162468
-0.160343
-0.157558
-0.154022
-0.149651
-0.144371
-0.138127
-0.130891
-0.122668
-0.113508
-0.103516
-0.0928487
-0.081714
-0.0703601
-0.0590587
-0.0480838
-0.0376916
-0.0280999
-0.0194746
-0.0119202
-0.00548118
-0.000149192
0.00412811
0.00743138
0.00986408
0.0115387
0.0125774
0.0130936
0.0131991
0.012985
0.0125399
0.0119258
0.011208
0.0104208
0.00960946
0.00878727
0.00798763
0.00720772
0.00647188
0.00575806
0.0050885
0.00443046
0.00381354
0.00319673
0.00262027
0.00202965
0.00147599
0.000884209
0.000321478
-0.139769
-0.147899
-0.151669
-0.152617
-0.152835
-0.153312
-0.154039
-0.154644
-0.154829
-0.154479
-0.153591
-0.152174
-0.150204
-0.147621
-0.144348
-0.140318
-0.135472
-0.12977
-0.123189
-0.11574
-0.107465
-0.0984505
-0.0888274
-0.0787682
-0.0684799
-0.0581913
-0.0481374
-0.0385422
-0.029602
-0.0214732
-0.014263
-0.00802783
-0.00277815
0.00151648
0.00491445
0.00749816
0.0093607
0.0106073
0.0113378
0.0116536
0.0116389
0.0113777
0.0109296
0.0103592
0.00970095
0.00900145
0.00827513
0.00755706
0.00684559
0.00616729
0.00550253
0.00487512
0.00425429
0.00366991
0.00308243
0.00253132
0.00196397
0.00143002
0.000857986
0.00031165
-0.129109
-0.136745
-0.140507
-0.141671
-0.142087
-0.142668
-0.143447
-0.144107
-0.144375
-0.144136
-0.143377
-0.14211
-0.14032
-0.13796
-0.13497
-0.131294
-0.126887
-0.121716
-0.115767
-0.109052
-0.101607
-0.0935044
-0.0848525
-0.0757939
-0.0665004
-0.0571644
-0.047986
-0.03916
-0.0308618
-0.0232366
-0.0163909
-0.0103891
-0.00525618
-0.000979983
0.00247824
0.0051817
0.00720531
0.00863797
0.00956597
0.0100802
0.0102571
0.0101754
0.00989173
0.00946885
0.00894132
0.00835625
0.00772889
0.00709572
0.00645629
0.00583903
0.00522659
0.00464424
0.00406325
0.0035137
0.00295771
0.00243386
0.00189181
0.0013793
0.000829052
0.000300867
-0.119002
-0.126074
-0.129742
-0.131055
-0.131627
-0.132295
-0.133118
-0.133826
-0.134172
-0.134042
-0.133421
-0.132316
-0.130719
-0.128597
-0.125901
-0.122585
-0.118611
-0.113958
-0.108615
-0.102593
-0.0959257
-0.0886721
-0.0809217
-0.0727919
-0.0644254
-0.055983
-0.0476344
-0.0395478
-0.0318786
-0.0247597
-0.0182946
-0.012552
-0.00756767
-0.00334423
0.000140186
0.00293158
0.00508811
0.00668326
0.00779002
0.00848857
0.0088472
0.00893875
0.00881613
0.00853982
0.00814361
0.00767463
0.00714877
0.00660343
0.00603933
0.0054864
0.00492944
0.00439505
0.00385657
0.0033442
0.00282198
0.00232737
0.00181275
0.00132353
0.000797181
0.000289106
-0.109416
-0.115911
-0.119434
-0.120837
-0.121525
-0.122259
-0.123113
-0.12386
-0.124275
-0.12425
-0.123765
-0.122828
-0.121433
-0.119554
-0.117154
-0.114194
-0.110646
-0.106491
-0.101724
-0.096356
-0.0904143
-0.083949
-0.0770336
-0.0697647
-0.0622602
-0.0546539
-0.0470892
-0.0397104
-0.032654
-0.0260403
-0.0199674
-0.0145059
-0.00969882
-0.0055604
-0.00208291
0.000764597
0.00302509
0.0047577
0.00602263
0.00688941
0.00741787
0.00767453
0.00770794
0.00757568
0.00731019
0.00695809
0.0065355
0.0060804
0.00559452
0.00510894
0.00461046
0.00412687
0.00363359
0.00316078
0.00267466
0.00221137
0.00172637
0.00126245
0.000762155
0.000276332
-0.100361
-0.106295
-0.109634
-0.111074
-0.111841
-0.112618
-0.113489
-0.114261
-0.114735
-0.114806
-0.114453
-0.11368
-0.112487
-0.11085
-0.108742
-0.10613
-0.102992
-0.099313
-0.0950907
-0.0903343
-0.0850678
-0.0793327
-0.073189
-0.0667163
-0.0600114
-0.0531856
-0.046359
-0.0396549
-0.033192
-0.0270783
-0.0214052
-0.0162425
-0.0116378
-0.00761418
-0.00417522
-0.00130291
0.00103226
0.00287628
0.0042773
0.0052944
0.00597891
0.00639062
0.00657328
0.006581
0.00644434
0.0062088
0.00589041
0.00552726
0.00512201
0.00470651
0.00426928
0.00383915
0.00339375
0.00296289
0.00251526
0.00208545
0.00163231
0.00119582
0.000723773
0.000262506
-0.0918693
-0.0972468
-0.100368
-0.101804
-0.102617
-0.103417
-0.104291
-0.105077
-0.105595
-0.105752
-0.10552
-0.104904
-0.103905
-0.102505
-0.100678
-0.0984002
-0.0956525
-0.0924235
-0.0887114
-0.0845249
-0.079884
-0.0748229
-0.0693907
-0.0636524
-0.0576875
-0.0515879
-0.0454539
-0.03939
-0.033499
-0.0278765
-0.0226065
-0.0177561
-0.0133754
-0.00949321
-0.00612235
-0.00325545
-0.000874705
0.00105413
0.00256799
0.00371598
0.00454098
0.00509591
0.00541931
0.00556133
0.00555017
0.0054297
0.00521551
0.00494524
0.00462239
0.00427928
0.00390574
0.0035316
0.00313665
0.00275013
0.00234336
0.00194924
0.00153023
0.00112342
0.000681863
0.000247584
-0.0839283
-0.0887629
-0.0916486
-0.0930502
-0.093883
-0.0946876
-0.0955524
-0.0963393
-0.0968914
-0.0971201
-0.0969996
-0.0965309
-0.0957108
-0.0945329
-0.0929741
-0.0910124
-0.0886318
-0.0858234
-0.0825861
-0.078927
-0.074863
-0.0704218
-0.0656434
-0.0605806
-0.0552984
-0.0498723
-0.0443858
-0.0389268
-0.0335837
-0.0284402
-0.0235725
-0.0190439
-0.0149046
-0.0111874
-0.00791172
-0.00507884
-0.00268087
-0.000693895
0.000908848
0.00216709
0.00311552
0.00380014
0.00425409
0.00452317
0.00463276
0.00462459
0.00451347
0.0043362
0.0040968
0.00382782
0.00351995
0.00320413
0.00286208
0.00252223
0.00215865
0.00180249
0.00141988
0.00104509
0.000636295
0.000231529
-0.0765159
-0.0808385
-0.0834835
-0.0848282
-0.0856597
-0.0864545
-0.0872985
-0.0880757
-0.0886484
-0.0889353
-0.088911
-0.0885737
-0.0879216
-0.0869487
-0.0856391
-0.0839728
-0.0819342
-0.0795154
-0.0767159
-0.0735419
-0.0700069
-0.0661334
-0.0619535
-0.0575098
-0.0528553
-0.0480517
-0.0431682
-0.0382782
-0.033457
-0.0287775
-0.0243076
-0.020106
-0.0162217
-0.0126893
-0.0095329
-0.00676055
-0.00437248
-0.00235359
-0.00068617
0.000660888
0.00171448
0.0025138
0.0030865
0.00347383
0.00369801
0.00379811
0.00378779
0.00370264
0.00354688
0.00335296
0.00311241
0.00285699
0.00257007
0.00227912
0.00196099
0.00164508
0.0013011
0.000960721
0.00058698
0.000214308
-0.0696231
-0.0734674
-0.0758721
-0.0771437
-0.0779572
-0.0787304
-0.0795445
-0.0803026
-0.0808842
-0.0812158
-0.0812722
-0.081051
-0.0805519
-0.0797687
-0.0786867
-0.0772895
-0.0755639
-0.0735022
-0.0711033
-0.0683721
-0.0653195
-0.0619632
-0.0583288
-0.0544505
-0.050371
-0.0461407
-0.0418163
-0.0374589
-0.0331321
-0.0288986
-0.0248187
-0.0209454
-0.0173256
-0.013994
-0.0109779
-0.0082901
-0.0059373
-0.00391177
-0.00220367
-0.000789621
0.000350053
0.00124794
0.00192625
0.00242147
0.00275253
0.00295558
0.0030427
0.00304772
0.00297473
0.00285348
0.0026841
0.00249082
0.00226097
0.00202101
0.00175044
0.00147698
0.00117383
0.00087027
0.000533881
0.000195902
-0.0632359
-0.0666349
-0.0688044
-0.0699928
-0.0707765
-0.0715192
-0.0722968
-0.0730281
-0.0736086
-0.0739726
-0.074096
-0.0739755
-0.0736107
-0.0729973
-0.0721209
-0.0709676
-0.0695256
-0.0677876
-0.0657518
-0.0634218
-0.060806
-0.0579183
-0.0547788
-0.0514145
-0.0478596
-0.0441548
-0.0403465
-0.0364851
-0.0326241
-0.0288166
-0.0251154
-0.0215681
-0.0182183
-0.0150999
-0.0122415
-0.00965932
-0.00736499
-0.00535668
-0.00363118
-0.00217192
-0.000965768
1.37225e-05
0.000783493
0.00137514
0.00180404
0.00210321
0.00228302
0.00237532
0.00238389
0.0023382
0.00223703
0.00210672
0.0019355
0.00174838
0.00152728
0.00129838
0.00103815
0.000773775
0.000477018
0.000176308
-0.0573312
-0.0603206
-0.0622654
-0.0633656
-0.0641116
-0.0648181
-0.0655545
-0.0662534
-0.0668248
-0.0672105
-0.0673883
-0.0673544
-0.067107
-0.0666392
-0.0659439
-0.0650085
-0.0638212
-0.0623741
-0.0606648
-0.0586955
-0.0564727
-0.054007
-0.051314
-0.0484146
-0.0453361
-0.0421109
-0.0387768
-0.035375
-0.0319498
-0.0285463
-0.02521
-0.0219829
-0.0189048
-0.016008
-0.0133212
-0.0108626
-0.00864741
-0.00667829
-0.0049575
-0.00347427
-0.00222129
-0.00117778
-0.000331722
0.000343871
0.000860776
0.00124838
0.0015149
0.00169022
0.00177772
0.0018056
0.00177254
0.00170604
0.00159478
0.00146203
0.00129208
0.00110966
0.000894328
0.000671382
0.000416482
0.000155542
-0.0518864
-0.0545036
-0.0562372
-0.0572482
-0.0579516
-0.0586182
-0.0593107
-0.0599733
-0.060529
-0.0609266
-0.0611456
-0.0611817
-0.0610327
-0.0606938
-0.0601591
-0.0594157
-0.0584531
-0.0572641
-0.0558456
-0.0541981
-0.0523264
-0.0502383
-0.0479458
-0.0454648
-0.0428166
-0.0400269
-0.0371261
-0.0341476
-0.031128
-0.0281048
-0.0251171
-0.0222012
-0.0193931
-0.0167225
-0.0142176
-0.0118972
-0.00977888
-0.00786864
-0.00617305
-0.00468611
-0.00340552
-0.00231556
-0.00140889
-0.000663044
-6.95019e-05
0.000397874
0.00074493
0.000998534
0.00116089
0.00125906
0.00129249
0.00129062
0.00124034
0.00116317
0.0010457
0.00091144
0.000742776
0.000563357
0.000352429
0.000133647
-0.0468805
-0.0491613
-0.050699
-0.0516223
-0.0522807
-0.0529058
-0.0535533
-0.0541775
-0.0547126
-0.0551141
-0.0553634
-0.0554551
-0.0553866
-0.0551522
-0.0547618
-0.0541873
-0.0534219
-0.0524601
-0.0512978
-0.0499349
-0.0483742
-0.0466216
-0.0446859
-0.0425792
-0.0403175
-0.0379211
-0.0354141
-0.0328232
-0.0301786
-0.0275109
-0.0248534
-0.022237
-0.0196938
-0.0172506
-0.0149342
-0.0127632
-0.0107564
-0.00892215
-0.00727022
-0.00579842
-0.00450865
-0.00338951
-0.00243775
-0.00163522
-0.000977113
-0.000440632
-2.15135e-05
0.000304795
0.000538432
0.000703465
0.000799201
0.000863088
0.00087449
0.000853526
0.000789414
0.000704618
0.000584133
0.000450114
0.000285099
0.000110685
-0.0422914
-0.0442701
-0.045628
-0.0464672
-0.0470803
-0.0476637
-0.0482666
-0.0488516
-0.0493631
-0.0497632
-0.0500356
-0.0501763
-0.0501837
-0.0500536
-0.0497638
-0.0493252
-0.0487273
-0.0479617
-0.0470234
-0.0459101
-0.044623
-0.0431664
-0.0415466
-0.0397724
-0.0378559
-0.0358124
-0.033661
-0.0314228
-0.0291224
-0.0267846
-0.0244372
-0.0221063
-0.01982
-0.017602
-0.0154772
-0.0134633
-0.0115797
-0.00983576
-0.00824366
-0.00680408
-0.00552228
-0.00439062
-0.00340949
-0.00256417
-0.00185286
-0.00125666
-0.000774452
-0.000384027
-8.55977e-05
0.000141741
0.000293179
0.000427032
0.00050024
0.000535332
0.000524894
0.000490448
0.000419313
0.000332273
0.000214872
8.67943e-05
-0.0380959
-0.0398054
-0.041
-0.0417602
-0.0423289
-0.0428717
-0.0434312
-0.0439769
-0.0444625
-0.0448553
-0.0451409
-0.0453147
-0.0453741
-0.0453141
-0.0451277
-0.0448152
-0.0443639
-0.0437682
-0.0430238
-0.0421275
-0.0410795
-0.039882
-0.0385397
-0.037059
-0.0354487
-0.0337201
-0.0318878
-0.0299684
-0.0279815
-0.0259473
-0.0238887
-0.0218272
-0.0197873
-0.0177892
-0.0158559
-0.0140035
-0.0122512
-0.010609
-0.00909033
-0.00769797
-0.0064398
-0.00531111
-0.00431538
-0.00344161
-0.00269067
-0.0020455
-0.001507
-0.00105717
-0.000698819
-0.000415554
-0.000247131
-1.25179e-05
0.000121123
0.000210879
0.000253773
0.00027012
0.000249167
0.000210401
0.000142082
6.20224e-05
-0.0342733
-0.0357443
-0.036792
-0.0374789
-0.0380053
-0.0385092
-0.0390271
-0.0395345
-0.0399929
-0.0403746
-0.0406672
-0.0408666
-0.0409706
-0.0409754
-0.040875
-0.0406593
-0.0403287
-0.0398768
-0.039298
-0.0385889
-0.0377482
-0.0367762
-0.0356762
-0.0344527
-0.0331122
-0.0316626
-0.0301148
-0.0284815
-0.0267784
-0.0250214
-0.0232293
-0.0214195
-0.0196131
-0.0178269
-0.0160819
-0.0143922
-0.0127763
-0.0112441
-0.00980961
-0.00847706
-0.00725616
-0.00614464
-0.00514827
-0.00425857
-0.00347959
-0.00279831
-0.00221699
-0.00171629
-0.00129831
-0.000939896
-0.00060566
-0.000428598
-0.000255602
-0.000115172
-2.03582e-05
4.63939e-05
7.57129e-05
8.58558e-05
6.75718e-05
3.69038e-05
-0.0308023
-0.0320633
-0.0329799
-0.0335999
-0.0340868
-0.0345543
-0.0350333
-0.0355043
-0.0359355
-0.0363039
-0.0365988
-0.0368164
-0.0369545
-0.0370093
-0.0369752
-0.036846
-0.0366179
-0.0362864
-0.0358475
-0.0352981
-0.0346354
-0.0338581
-0.0329677
-0.0319677
-0.0308629
-0.0296585
-0.0283627
-0.0269846
-0.0255365
-0.0240306
-0.0224823
-0.0209055
-0.0193179
-0.0177335
-0.0161707
-0.0146419
-0.0131644
-0.0117472
-0.0104048
-0.00914197
-0.00796971
-0.00688731
-0.00590268
-0.00500981
-0.00421414
-0.00350385
-0.00288539
-0.00234631
-0.00189007
-0.00149686