/*--------------------------------*- C++ -*----------------------------------*\
| =========                 |                                                 |
| \\      /  F ield         | OpenFOAM: The Open Source CFD Toolbox           |
|  \\    /   O peration     | Version:  2512                                  |
|   \\  /    A nd           | Website:  www.openfoam.com                      |
|    \\/     M anipulation  |                                                 |
\*---------------------------------------------------------------------------*/
FoamFile
{
    version     2.0;
    format      ascii;
    arch        "LSB;label=32;scalar=64";
    class       volScalarField;
    location    "34";
    object      p;
}
// * * * * * * * * * * * * * * * * * * * * * * * * * * * * * * * * * * * * * //

dimensions      [0 2 -2 0 0 0 0];

internalField   nonuniform List<scalar> 
13248
(
-0.274007
-0.272735
-0.270899
-0.268652
-0.266162
-0.263575
-0.260995
-0.25848
-0.256052
-0.253706
-0.251414
-0.249134
-0.246819
-0.244417
-0.241885
-0.239186
-0.236299
-0.233217
-0.229941
-0.226518
-0.222906
-0.219348
-0.215334
-0.211951
-0.280772
-0.278855
-0.276393
-0.273545
-0.270474
-0.267343
-0.264255
-0.261254
-0.258343
-0.25549
-0.252643
-0.24974
-0.246717
-0.243522
-0.240117
-0.236482
-0.232615
-0.228532
-0.224261
-0.219837
-0.215286
-0.210662
-0.205862
-0.201472
-0.288866
-0.286134
-0.282933
-0.279411
-0.275707
-0.271985
-0.268335
-0.264773
-0.261265
-0.257749
-0.254146
-0.250383
-0.246404
-0.242175
-0.237688
-0.232961
-0.228029
-0.222942
-0.217751
-0.212512
-0.207243
-0.202015
-0.196747
-0.191823
-0.29844
-0.294718
-0.29067
-0.286409
-0.282016
-0.277638
-0.27333
-0.269061
-0.264755
-0.260319
-0.255671
-0.250755
-0.245551
-0.240074
-0.234368
-0.228497
-0.222535
-0.216553
-0.21061
-0.204751
-0.198993
-0.193383
-0.187834
-0.182772
-0.309594
-0.304717
-0.299728
-0.294666
-0.289516
-0.284375
-0.279243
-0.274033
-0.268633
-0.262951
-0.256937
-0.250591
-0.243962
-0.237129
-0.23019
-0.223243
-0.216374
-0.209648
-0.203107
-0.196774
-0.190653
-0.184757
-0.179032
-0.173779
-0.322351
-0.31618
-0.310176
-0.304255
-0.298248
-0.29217
-0.285952
-0.279463
-0.272593
-0.265299
-0.257614
-0.249629
-0.241472
-0.23328
-0.225179
-0.217269
-0.209619
-0.202269
-0.195235
-0.188514
-0.182095
-0.17597
-0.170092
-0.164684
-0.336624
-0.329063
-0.321995
-0.315144
-0.308119
-0.30083
-0.293152
-0.284955
-0.276199
-0.266954
-0.257373
-0.247647
-0.237966
-0.228491
-0.219342
-0.21059
-0.20227
-0.19439
-0.186938
-0.17989
-0.173221
-0.166904
-0.160908
-0.155356
-0.352173
-0.343184
-0.335021
-0.327128
-0.318836
-0.309949
-0.300339
-0.289968
-0.278944
-0.267499
-0.255915
-0.244457
-0.233337
-0.2227
-0.212624
-0.20314
-0.194243
-0.185907
-0.178097
-0.170772
-0.163894
-0.157426
-0.151343
-0.145676
-0.368565
-0.358179
-0.348893
-0.339782
-0.329869
-0.318899
-0.306851
-0.293881
-0.280316
-0.266562
-0.252996
-0.239911
-0.22749
-0.215828
-0.20495
-0.194836
-0.185445
-0.176722
-0.168614
-0.161065
-0.154026
-0.147453
-0.141319
-0.135573
-0.38515
-0.37346
-0.363003
-0.352414
-0.340431
-0.32686
-0.31192
-0.296061
-0.279851
-0.263833
-0.248422
-0.233876
-0.220319
-0.207776
-0.196213
-0.185569
-0.175767
-0.166731
-0.15839
-0.150676
-0.143529
-0.136902
-0.130747
-0.124966
-0.401056
-0.388196
-0.376474
-0.364059
-0.349513
-0.332866
-0.314718
-0.295857
-0.277062
-0.258945
-0.24189
-0.226083
-0.211563
-0.198284
-0.186161
-0.17509
-0.164971
-0.155709
-0.147214
-0.139409
-0.132226
-0.125608
-0.119479
-0.113729
-0.415265
-0.401418
-0.388313
-0.373675
-0.356069
-0.335942
-0.314382
-0.292524
-0.271291
-0.251289
-0.23282
-0.215963
-0.200667
-0.186819
-0.174281
-0.162919
-0.152607
-0.143232
-0.134693
-0.1269
-0.119781
-0.113267
-0.107253
-0.101671
-0.24374
-0.245654
-0.24688
-0.247704
-0.248384
-0.248983
-0.249528
-0.250038
-0.25052
-0.250971
-0.251382
-0.251746
-0.25205
-0.252285
-0.25244
-0.252507
-0.252479
-0.252355
-0.252136
-0.251835
-0.251466
-0.251052
-0.250656
-0.250402
-0.243446
-0.245271
-0.246434
-0.247205
-0.247827
-0.248359
-0.248829
-0.249254
-0.24964
-0.249986
-0.250283
-0.250524
-0.2507
-0.250803
-0.250825
-0.250762
-0.25061
-0.250371
-0.250054
-0.249674
-0.249253
-0.248811
-0.248419
-0.24835
-0.243894
-0.245549
-0.246596
-0.247278
-0.247811
-0.248253
-0.248626
-0.248947
-0.249223
-0.249452
-0.249626
-0.249739
-0.249783
-0.249752
-0.249639
-0.249441
-0.249158
-0.248791
-0.24835
-0.247852
-0.247323
-0.246766
-0.24623
-0.246192
-0.244987
-0.246413
-0.247302
-0.247859
-0.248274
-0.248594
-0.248845
-0.24904
-0.249187
-0.249281
-0.24932
-0.249294
-0.249198
-0.249026
-0.248774
-0.248438
-0.248019
-0.247517
-0.246937
-0.246295
-0.245619
-0.2449
-0.244099
-0.243733
-0.246606
-0.247768
-0.248467
-0.248868
-0.249129
-0.249296
-0.249392
-0.249432
-0.249421
-0.24936
-0.249241
-0.249061
-0.248812
-0.24849
-0.248091
-0.247613
-0.247056
-0.246419
-0.245704
-0.244918
-0.244082
-0.243178
-0.242095
-0.241389
-0.248633
-0.249523
-0.250008
-0.25022
-0.250291
-0.250266
-0.250169
-0.250016
-0.249815
-0.249566
-0.249266
-0.248908
-0.248489
-0.248003
-0.247449
-0.246824
-0.246129
-0.245362
-0.244522
-0.243607
-0.242626
-0.241559
-0.240246
-0.23885
-0.250979
-0.251604
-0.25186
-0.251851
-0.251692
-0.251431
-0.251096
-0.250709
-0.25028
-0.24981
-0.249298
-0.24874
-0.248131
-0.247468
-0.24675
-0.245974
-0.24514
-0.244248
-0.243294
-0.242269
-0.241167
-0.239943
-0.238642
-0.236156
-0.253605
-0.253983
-0.253994
-0.253729
-0.253296
-0.252752
-0.252134
-0.251469
-0.250772
-0.250048
-0.249298
-0.248519
-0.247706
-0.246857
-0.245969
-0.245041
-0.244071
-0.243057
-0.241991
-0.240861
-0.239675
-0.238215
-0.237259
-0.233647
-0.256536
-0.256678
-0.256422
-0.255862
-0.25511
-0.254237
-0.253291
-0.252309
-0.25131
-0.250305
-0.249296
-0.248282
-0.247256
-0.246216
-0.245157
-0.244073
-0.24296
-0.241813
-0.240626
-0.239363
-0.238131
-0.236366
-0.235859
-0.231686
-0.259868
-0.259763
-0.259207
-0.258306
-0.257188
-0.25594
-0.254628
-0.253294
-0.251968
-0.250662
-0.24938
-0.248118
-0.246868
-0.245622
-0.244368
-0.243097
-0.241797
-0.24046
-0.239086
-0.237626
-0.236294
-0.234339
-0.233992
-0.230109
-0.263756
-0.26336
-0.26245
-0.261156
-0.25962
-0.257953
-0.256235
-0.254521
-0.252841
-0.251212
-0.249632
-0.248095
-0.246584
-0.24508
-0.243562
-0.242009
-0.240404
-0.238734
-0.237003
-0.235195
-0.233498
-0.231484
-0.23083
-0.227873
-0.268403
-0.267626
-0.266293
-0.26454
-0.262532
-0.260401
-0.258244
-0.25612
-0.254063
-0.252081
-0.250168
-0.248302
-0.246454
-0.24459
-0.242675
-0.240677
-0.23857
-0.23634
-0.233982
-0.231529
-0.229019
-0.226557
-0.224763
-0.22283
-0.250326
-0.250178
-0.250148
-0.250258
-0.25053
-0.250985
-0.251633
-0.252462
-0.253428
-0.254448
-0.255383
-0.256033
-0.256123
-0.255307
-0.253186
-0.249403
-0.243528
-0.235207
-0.224242
-0.21064
-0.194629
-0.176597
-0.15704
-0.136499
-0.115443
-0.0943135
-0.0731353
-0.0522944
-0.0323309
-0.0137845
0.00265063
0.0162794
0.0267222
0.0340014
0.0384527
0.0405408
0.04084
0.0398767
0.0381113
0.035887
0.0334349
0.030893
0.0283256
0.0258
0.0233136
0.0209218
0.0186171
0.0164695
0.0144699
0.0126722
0.0110246
0.00955456
0.00819384
0.00698641
0.00580596
0.00475757
0.00365026
0.00271068
0.00158364
0.000684672
-0.248936
-0.249358
-0.250039
-0.251028
-0.252334
-0.253965
-0.255924
-0.258168
-0.260616
-0.263129
-0.265508
-0.267478
-0.268682
-0.268679
-0.266971
-0.263062
-0.256457
-0.246773
-0.233805
-0.217605
-0.198508
-0.177068
-0.154007
-0.130209
-0.106483
-0.0836304
-0.0617107
-0.0413268
-0.0227146
-0.0060725
0.00815724
0.0196562
0.0282772
0.0341499
0.0376467
0.0391611
0.0392102
0.038242
0.0366353
0.0346707
0.0325033
0.0302378
0.027918
0.0255982
0.0232754
0.0210038
0.0187784
0.0166753
0.0146826
0.0128771
0.0111976
0.00969459
0.00829687
0.00706408
0.005858
0.00479514
0.00367342
0.00272979
0.00159376
0.00069501
-0.247703
-0.248585
-0.24986
-0.251627
-0.253855
-0.256505
-0.259624
-0.263117
-0.266868
-0.270694
-0.274333
-0.277438
-0.279582
-0.280288
-0.27896
-0.274966
-0.267777
-0.256977
-0.242362
-0.224027
-0.202412
-0.178192
-0.152247
-0.125741
-0.0996925
-0.0755019
-0.0527637
-0.0325124
-0.0148414
0.000193322
0.0125249
0.0221502
0.0290749
0.0336358
0.0362839
0.0373325
0.0372435
0.036375
0.0350179
0.0333532
0.031494
0.0295149
0.0274402
0.0253198
0.0231552
0.0210033
0.0188632
0.0168135
0.0148425
0.013034
0.0113384
0.00980984
0.00838158
0.00712723
0.00589809
0.00482222
0.00368783
0.00274095
0.00159904
0.000700497
-0.246683
-0.247749
-0.249466
-0.251871
-0.254895
-0.25827
-0.262346
-0.266841
-0.271635
-0.276513
-0.281168
-0.285197
-0.288102
-0.289343
-0.288316
-0.284296
-0.276703
-0.2651
-0.249291
-0.229404
-0.205939
-0.179686
-0.151704
-0.123308
-0.0957274
-0.0701454
-0.046915
-0.0267169
-0.00969176
0.00419611
0.0150296
0.0231057
0.0288302
0.0323663
0.0343874
0.035133
0.0350571
0.0343872
0.0333248
0.0319898
0.030443
0.02874
0.0268959
0.0249624
0.0229484
0.0209136
0.0188627
0.0168737
0.014938
0.0131364
0.011448
0.00989131
0.00844304
0.00717283
0.00592487
0.00483808
0.00369343
0.002744
0.00159947
0.000700859
-0.24535
-0.24697
-0.248833
-0.251569
-0.255059
-0.259161
-0.263874
-0.269083
-0.27463
-0.280272
-0.285673
-0.290396
-0.293902
-0.295597
-0.294814
-0.290833
-0.283031
-0.270955
-0.254408
-0.233541
-0.208896
-0.181371
-0.152165
-0.122661
-0.0941731
-0.0678582
-0.0443509
-0.0242098
-0.00761465
0.00550372
0.0154017
0.0224269
0.0271585
0.0302278
0.0318828
0.0326339
0.0327041
0.0323209
0.0315921
0.0305903
0.0293443
0.0279005
0.0262723
0.0245153
0.0226464
0.0207275
0.0187698
0.0168486
0.0149601
0.0131806
0.0114929
0.0099323
0.00847685
0.00719808
0.00593713
0.00484217
0.00369046
0.00273914
0.00159534
0.000696142
-0.244107
-0.2463
-0.248046
-0.250841
-0.254624
-0.259124
-0.264229
-0.269857
-0.275855
-0.281963
-0.287825
-0.292999
-0.296937
-0.298942
-0.298381
-0.294513
-0.286698
-0.274469
-0.257633
-0.236359
-0.211226
-0.183195
-0.15352
-0.123614
-0.0948127
-0.0682601
-0.0447087
-0.0246782
-0.00835481
0.00434232
0.0137366
0.0203067
0.0246798
0.0274832
0.0290773
0.0299272
0.030255
0.0302073
0.0298229
0.029144
0.0281828
0.0269822
0.0255591
0.0239719
0.022246
0.0204444
0.0185846
0.0167384
0.0149074
0.0131629
0.011483
0.00993392
0.00848115
0.00720157
0.00593437
0.00483451
0.00367955
0.00272697
0.00158733
0.000686761
-0.242835
-0.245757
-0.2472
-0.249732
-0.253573
-0.258229
-0.263466
-0.269227
-0.275381
-0.281662
-0.2877
-0.293042
-0.297254
-0.29945
-0.299069
-0.295379
-0.287741
-0.27568
-0.259005
-0.237891
-0.212925
-0.185085
-0.155625
-0.125938
-0.097326
-0.0709109
-0.0474894
-0.0275716
-0.0113557
0.00122737
0.010511
0.0170119
0.0213701
0.0242141
0.0259882
0.0271013
0.0277559
0.0280598
0.028015
0.0276435
0.026951
0.0259813
0.0247559
0.0233359
0.0217532
0.0200717
0.0183144
0.0165498
0.0147847
0.0130852
0.0114294
0.00990033
0.0084562
0.00718355
0.00591697
0.00481571
0.00366166
0.00270843
0.00157627
0.000673453
-0.241355
-0.245039
-0.246136
-0.248221
-0.251908
-0.256481
-0.261592
-0.267223
-0.273266
-0.279453
-0.285418
-0.290683
-0.294761
-0.297217
-0.297014
-0.293583
-0.286301
-0.274703
-0.2586
-0.238158
-0.213946
-0.186912
-0.158267
-0.129331
-0.101313
-0.0753048
-0.0521245
-0.0322931
-0.0160366
-0.00331947
0.00616022
0.0129014
0.0175264
0.0206537
0.0227633
0.024228
0.0252386
0.0258903
0.0261726
0.0260927
0.0256551
0.0249066
0.023874
0.0226199
0.0211813
0.0196228
0.0179717
0.016294
0.0146013
0.0129553
0.0113371
0.0098356
0.00840377
0.00714565
0.00588592
0.00478678
0.00363777
0.0026846
0.00156301
0.000657163
-0.239523
-0.243458
-0.244263
-0.246047
-0.249477
-0.253721
-0.258481
-0.263778
-0.269489
-0.275355
-0.281043
-0.286205
-0.290242
-0.292522
-0.292425
-0.289302
-0.282528
-0.271654
-0.256484
-0.237158
-0.214194
-0.18847
-0.161115
-0.133346
-0.106248
-0.0808577
-0.0580069
-0.0382425
-0.0218372
-0.00880986
0.00108131
0.00828405
0.0133757
0.016947
0.0194836
0.0213448
0.0227202
0.0237071
0.0243021
0.024502
0.0243102
0.0237762
0.0229325
0.0218433
0.020549
0.019115
0.0175721
0.0159849
0.0143685
0.0127828
0.0112117
0.00974684
0.00832626
0.00709049
0.00584263
0.00474894
0.00360879
0.00265659
0.00154823
0.000638931
-0.236887
-0.240175
-0.240941
-0.242812
-0.245945
-0.249696
-0.253994
-0.258832
-0.264048
-0.269411
-0.27464
-0.279316
-0.283364
-0.285548
-0.28558
-0.282838
-0.276722
-0.266798
-0.252861
-0.235003
-0.213663
-0.189615
-0.163879
-0.137563
-0.111623
-0.0870175
-0.0645772
-0.0448856
-0.0282797
-0.0148479
-0.00442461
0.00336665
0.00904111
0.0131495
0.0161668
0.0184477
0.0201896
0.0214991
0.022393
0.0228677
0.0229213
0.0226021
0.0219477
0.021024
0.0198745
0.0185661
0.0171322
0.0156374
0.0140992
0.012578
0.0110619
0.00968228
0.00822222
0.00702091
0.00578888
0.00470376
0.00357569
0.00262554
0.00153255
0.000619879
-0.232609
-0.234829
-0.236005
-0.238069
-0.240834
-0.244162
-0.248087
-0.252479
-0.25718
-0.262059
-0.266913
-0.271487
-0.274746
-0.276921
-0.277167
-0.274914
-0.269618
-0.260862
-0.248427
-0.232344
-0.212943
-0.190857
-0.166957
-0.142253
-0.117618
-0.093907
-0.0719227
-0.0522836
-0.0354087
-0.0214745
-0.0104057
-0.00191067
0.00445257
0.00918545
0.0127432
0.015479
0.0176044
0.01924
0.0204226
0.0211674
0.0214701
0.0213724
0.0209134
0.0201606
0.01916
0.0179808
0.0166583
0.0152588
0.0138012
0.0123481
0.0108919
0.00952892
0.00808267
0.00693669
0.00572602
0.00465233
0.00353904
0.00259219
0.00151618
0.000601121
-0.226295
-0.228382
-0.229803
-0.231429
-0.233633
-0.236546
-0.240021
-0.243859
-0.24797
-0.252238
-0.256443
-0.260363
-0.263613
-0.265574
-0.265977
-0.264301
-0.25997
-0.252583
-0.241898
-0.227866
-0.21069
-0.190842
-0.169012
-0.146051
-0.122823
-0.100173
-0.078871
-0.0594919
-0.0425003
-0.0281547
-0.0164758
-0.00727364
-0.000195654
0.0051932
0.0093178
0.0125248
0.0150409
0.0170013
0.0184642
0.0194577
0.0199914
0.0201048
0.0198362
0.0192524
0.0184007
0.0173518
0.0161423
0.0148406
0.0134662
0.0120847
0.0106904
0.00936672
0.0081264
0.00683863
0.00565092
0.00459127
0.00349549
0.00255454
0.0014971
0.0005829
-0.218067
-0.222823
-0.224261
-0.225357
-0.227307
-0.230121
-0.233444
-0.237041
-0.24084
-0.244757
-0.24871
-0.252429
-0.255294
-0.256766
-0.256912
-0.255126
-0.250848
-0.243726
-0.233553
-0.220298
-0.204154
-0.185552
-0.165113
-0.143601
-0.1218
-0.10046
-0.0802707
-0.0617888
-0.0454433
-0.0314844
-0.0199552
-0.0107109
-0.00345554
0.00218646
0.00659302
0.0100777
0.0128541
0.0150512
0.0167314
0.0179278
0.0186542
0.0189457
0.0188409
0.0184046
0.017685
0.0167527
0.015645
0.0144313
0.0131319
0.0118143
0.0104732
0.00919143
0.00795366
0.00672826
0.00556298
0.00451982
0.00344299
0.00251183
0.00147385
0.000564868
-0.208893
-0.215832
-0.217774
-0.218386
-0.219911
-0.22254
-0.225748
-0.229155
-0.232642
-0.236145
-0.239538
-0.242501
-0.244649
-0.245737
-0.245446
-0.243329
-0.238957
-0.232032
-0.22239
-0.210018
-0.195091
-0.177976
-0.159204
-0.139422
-0.119308
-0.0995223
-0.0806795
-0.0632925
-0.0477544
-0.0343101
-0.0230294
-0.0138156
-0.00643714
-0.000583321
0.00406746
0.00779215
0.0107871
0.0131782
0.0150324
0.0163897
0.0172687
0.0177069
0.0177433
0.0174417
0.0168485
0.0160334
0.0150328
0.0139156
0.0127023
0.0114603
0.0101853
0.00895703
0.00775332
0.00658317
0.00545032
0.00443089
0.00338009
0.00246126
0.00144722
0.000545193
-0.199103
-0.20745
-0.209969
-0.210438
-0.211647
-0.214071
-0.21714
-0.220339
-0.223467
-0.226465
-0.229219
-0.231536
-0.233185
-0.233842
-0.233142
-0.230778
-0.226433
-0.219847
-0.210877
-0.199512
-0.18589
-0.170311
-0.153211
-0.135135
-0.116668
-0.098395
-0.0808652
-0.0645493
-0.0498144
-0.0369011
-0.0259016
-0.0167612
-0.00930501
-0.00328225
0.00157587
0.00551062
0.00870027
0.0112667
0.0132793
0.0147844
0.0158063
0.0163859
0.0165613
0.0163946
0.0159301
0.0152361
0.0143479
0.0133337
0.0122135
0.0110546
0.00985341
0.00868725
0.00753194
0.00641396
0.00531865
0.0043264
0.00330631
0.00240269
0.00141662
0.00052434
-0.189186
-0.19797
-0.201036
-0.201685
-0.202766
-0.204994
-0.207881
-0.210851
-0.213642
-0.216193
-0.218449
-0.220288
-0.221488
-0.221737
-0.220742
-0.218264
-0.21405
-0.207875
-0.199612
-0.189245
-0.176882
-0.162764
-0.147252
-0.1308
-0.113913
-0.097101
-0.0808524
-0.0655944
-0.0516687
-0.0393096
-0.0286266
-0.0196018
-0.0121114
-0.00595872
-0.000923929
0.0031995
0.00657083
0.00930551
0.0114736
0.0131262
0.0142927
0.0150157
0.0153325
0.0153031
0.0149703
0.0144003
0.0136277
0.0127195
0.0116957
0.0106228
0.00949854
0.00839745
0.00729476
0.00622876
0.00517451
0.00421209
0.00322524
0.00233933
0.00138348
0.000503652
-0.178829
-0.187777
-0.191384
-0.192375
-0.193465
-0.195529
-0.198219
-0.200972
-0.203486
-0.205689
-0.207556
-0.208985
-0.209784
-0.20971
-0.208527
-0.206022
-0.201989
-0.196241
-0.188666
-0.179246
-0.168067
-0.15532
-0.1413
-0.126384
-0.111001
-0.0955928
-0.0805885
-0.0663728
-0.0532616
-0.041481
-0.0311531
-0.0222908
-0.0148144
-0.00857572
-0.00339986
0.000886191
0.00442176
0.00731393
0.00963158
0.0114287
0.0127381
0.0136035
0.0140615
0.0141701
0.0139702
0.0135263
0.0128717
0.0120722
0.0111476
0.0101635
0.00911908
0.00808559
0.00703917
0.00602664
0.00501725
0.00408767
0.00313651
0.00227112
0.00134747
0.000483234
-0.168242
-0.177304
-0.181342
-0.182676
-0.183843
-0.185792
-0.188303
-0.190864
-0.193157
-0.195089
-0.196639
-0.197728
-0.198215
-0.197914
-0.196621
-0.194149
-0.190325
-0.185003
-0.178089
-0.169562
-0.159486
-0.148014
-0.135384
-0.121907
-0.107941
-0.0938679
-0.080061
-0.0668641
-0.0545666
-0.0433843
-0.0334476
-0.0247941
-0.0173813
-0.0111035
-0.00582625
-0.00140814
0.0022699
0.005305
0.00776296
0.00969859
0.0111467
0.0121517
0.0127491
0.0129951
0.0129286
0.0126119
0.0120773
0.0113888
0.0105663
0.0096739
0.00871236
0.0077494
0.0067637
0.00580681
0.00484577
0.00395213
0.00303922
0.0021975
0.00130799
0.000463009
-0.157874
-0.166786
-0.171079
-0.172711
-0.173989
-0.175869
-0.178231
-0.180627
-0.182741
-0.184462
-0.185765
-0.186602
-0.186868
-0.186417
-0.185075
-0.18268
-0.179093
-0.174195
-0.167911
-0.160219
-0.151166
-0.14087
-0.129525
-0.117383
-0.104744
-0.0919309
-0.0792693
-0.0670623
-0.0555727
-0.0450045
-0.0354917
-0.0270911
-0.0197908
-0.0135214
-0.00818409
-0.00366687
0.000129242
0.00329018
0.00587684
0.00794298
0.00952412
0.0106646
0.0113988
0.0117807
0.0118472
0.0116582
0.011245
0.0106696
0.0099517
0.0091537
0.00827797
0.00738876
0.00646806
0.00556905
0.00465945
0.00380492
0.00293281
0.00211815
0.00126468
0.00044292
-0.147747
-0.156308
-0.160731
-0.162613
-0.16401
-0.165853
-0.168095
-0.170351
-0.172318
-0.173878
-0.175003
-0.175665
-0.175786
-0.175247
-0.173905
-0.171626
-0.168296
-0.16382
-0.158135
-0.15122
-0.143108
-0.133894
-0.12373
-0.112822
-0.101418
-0.0897908
-0.0782192
-0.0669693
-0.0562776
-0.0463343
-0.0372737
-0.0291663
-0.0220248
-0.0158102
-0.0104545
-0.00587255
-0.00198484
0.00128247
0.00398394
0.00617066
0.00787757
0.00914814
0.0100153
0.0105306
0.0107288
0.0106674
0.0103764
0.00991542
0.00930432
0.00860311
0.00781596
0.0070036
0.00615163
0.00531283
0.00445778
0.00364565
0.00281687
0.00203282
0.0012173
0.000422828
-0.137818
-0.145992
-0.150457
-0.152524
-0.154025
-0.155843
-0.157984
-0.160118
-0.161966
-0.163406
-0.164408
-0.164955
-0.164989
-0.164415
-0.163116
-0.160986
-0.157928
-0.153866
-0.148747
-0.142554
-0.135309
-0.127086
-0.118006
-0.108235
-0.0979773
-0.0874602
-0.0769216
-0.0665927
-0.0566842
-0.0473715
-0.0387862
-0.0310079
-0.0240678
-0.0179521
-0.0126191
-0.00800753
-0.00405637
-0.000704273
0.00209593
0.00439131
0.00621501
0.0076088
0.00860387
0.00924881
0.00957668
0.00964177
0.00947302
0.00912732
0.0086246
0.00802226
0.00732619
0.00659357
0.00581374
0.00503772
0.00424021
0.00347384
0.00269097
0.00194124
0.00116562
0.000402492
-0.128242
-0.135972
-0.140381
-0.142561
-0.144135
-0.145927
-0.147978
-0.150006
-0.151755
-0.153105
-0.154025
-0.154502
-0.154496
-0.153929
-0.152711
-0.150752
-0.147975
-0.144316
-0.139733
-0.134209
-0.127761
-0.120446
-0.112359
-0.103633
-0.094435
-0.0849538
-0.0753902
-0.0659435
-0.0567995
-0.0481181
-0.0400258
-0.032607
-0.0259069
-0.0199313
-0.0146608
-0.0100547
-0.00606932
-0.00265572
0.000225198
0.00261537
0.00454509
0.00605368
0.00717015
0.00794005
0.00839424
0.00858392
0.00853668
0.0083065
0.00791324
0.00741145
0.00680863
0.00615842
0.00545385
0.00474334
0.00400624
0.00328906
0.0025547
0.00184309
0.00110946
0.000381629
-0.119105
-0.126306
-0.130575
-0.132807
-0.134425
-0.136184
-0.13815
-0.14008
-0.141744
-0.143026
-0.143894
-0.144337
-0.144322
-0.143794
-0.142686
-0.140917
-0.138424
-0.135155
-0.131076
-0.126172
-0.120457
-0.113972
-0.106793
-0.0990258
-0.0908056
-0.082288
-0.0736412
-0.0650355
-0.0566336
-0.0485795
-0.0409923
-0.0339582
-0.0275318
-0.0217341
-0.0165636
-0.0119976
-0.00800778
-0.00455723
-0.00161531
0.000853996
0.0028773
0.00449074
0.00572078
0.00660962
0.0071858
0.00749716
0.00756985
0.00745469
0.00717134
0.00677131
0.00626352
0.00569814
0.00507164
0.00442933
0.00375546
0.00309091
0.00240769
0.00173803
0.00104865
0.00035995
-0.110373
-0.117024
-0.121105
-0.123339
-0.12497
-0.126686
-0.128565
-0.130402
-0.13199
-0.133217
-0.134052
-0.134485
-0.13449
-0.134027
-0.133043
-0.131475
-0.129264
-0.12637
-0.122764
-0.118434
-0.113391
-0.107665
-0.101314
-0.094425
-0.0871045
-0.0794804
-0.0716926
-0.0638853
-0.0561997
-0.0487639
-0.0416886
-0.0350588
-0.0289349
-0.0233489
-0.0183134
-0.0138208
-0.00985615
-0.00639402
-0.00341217
-0.000880941
0.00122192
0.0029288
0.0042632
0.00526374
0.00595639
0.00638553
0.00657561
0.00657421
0.00640051
0.0061029
0.00569147
0.00521299
0.004667
0.00409557
0.00348759
0.00287908
0.00224967
0.00162575
0.000983069
0.000337197
-0.10206
-0.108173
-0.112029
-0.114221
-0.115835
-0.117494
-0.119283
-0.121028
-0.122543
-0.123724
-0.124538
-0.124976
-0.125023
-0.124643
-0.123794
-0.122424
-0.120489
-0.117951
-0.114787
-0.110988
-0.106559
-0.101525
-0.0959306
-0.0898428
-0.0833481
-0.07655
-0.069564
-0.0625113
-0.0555131
-0.0486826
-0.0421207
-0.0359093
-0.0301113
-0.0247664
-0.0198978
-0.0155099
-0.0115995
-0.00815148
-0.00515168
-0.00257702
-0.000410014
0.00137748
0.00280569
0.00390941
0.00471187
0.00525378
0.00555776
0.00566796
0.00560291
0.00540775
0.00509349
0.00470353
0.00424013
0.00374211
0.00320253
0.00265334
0.00208043
0.00150596
0.00091264
0.000313155
-0.0942101
-0.0997834
-0.103385
-0.105498
-0.107071
-0.108661
-0.110355
-0.112007
-0.11345
-0.114588
-0.115388
-0.115842
-0.115938
-0.115649
-0.11494
-0.113768
-0.112095
-0.109892
-0.107139
-0.103827
-0.0999602
-0.0955559
-0.0906493
-0.0852922
-0.0795536
-0.0735167
-0.0672764
-0.0609337
-0.0545917
-0.0483492
-0.0422973
-0.0365129
-0.031059
-0.0259798
-0.0213063
-0.0170522
-0.013224
-0.00981544
-0.00682015
-0.00422148
-0.00200693
-0.000152901
0.00135731
0.00255446
0.00345886
0.00410744
0.00452079
0.00473952
0.0047813
0.00468793
0.00447102
0.00417076
0.00379155
0.00336921
0.0029004
0.00241362
0.00189988
0.00137846
0.000837323
0.000287666
-0.0868208
-0.0918616
-0.0951907
-0.0972015
-0.0987141
-0.100225
-0.101821
-0.103378
-0.104749
-0.105844
-0.106632
-0.107105
-0.107254
-0.107057
-0.106487
-0.105506
-0.104082
-0.102191
-0.0998166
-0.0969507
-0.0935949
-0.0897625
-0.0854799
-0.0807872
-0.0757388
-0.0704013
-0.0648519
-0.0591742
-0.0534552
-0.0477801
-0.04223
-0.0368758
-0.0317789
-0.0269854
-0.0225312
-0.018437
-0.0147169
-0.0113725
-0.00840423
-0.00580152
-0.00355691
-0.00165148
-7.22282e-05
0.00120743
0.00220477
0.0029528
0.00346995
0.00379317
0.00393905
0.00394604
0.00382602
0.00361605
0.00332219
0.00297746
0.00258149
0.00216001
0.00170813
0.00124315
0.000757126
0.00026063
-0.0798732
-0.0844085
-0.0874623
-0.0893536
-0.0907916
-0.0922157
-0.0937106
-0.0951714
-0.0964679
-0.0975193
-0.0982952
-0.0987882
-0.09899
-0.0988838
-0.0984409
-0.0976385
-0.0964472
-0.094845
-0.0928175
-0.0903575
-0.0874655
-0.0841506
-0.0804327
-0.0763424
-0.0719223
-0.0672252
-0.0623135
-0.0572557
-0.0521247
-0.0469933
-0.0419328
-0.0370073
-0.032275
-0.0277821
-0.0235672
-0.0196557
-0.0160675
-0.0128106
-0.00989125
-0.0073046
-0.00504796
-0.00310708
-0.00147273
-0.00012252
0.000957648
0.00179685
0.00241115
0.00283386
0.00308023
0.00318532
0.00316099
0.00304125
0.00283339
0.00256777
0.00224641
0.00189288
0.00150531
0.00110009
0.00067212
0.000232004
-0.0733664
-0.0774261
-0.0802068
-0.0819678
-0.0833209
-0.0846533
-0.0860453
-0.0874088
-0.0886295
-0.0896345
-0.0903951
-0.0909037
-0.0911536
-0.0911288
-0.0908071
-0.0901681
-0.0891902
-0.0878528
-0.0861415
-0.0840492
-0.0815757
-0.0787274
-0.0755187
-0.0719729
-0.0681229
-0.0640101
-0.0596847
-0.0552021
-0.0506231
-0.0460091
-0.041422
-0.0369191
-0.0325541
-0.0283719
-0.0244118
-0.0207022
-0.017267
-0.0141191
-0.0112696
-0.00871879
-0.00646833
-0.00450846
-0.00283369
-0.0014258
-0.00027388
0.000647182
0.00135098
0.00186718
0.00220948
0.00240959
0.00247899
0.00244873
0.00232691
0.00214144
0.00189612
0.00161282
0.00129214
0.000949507
0.000582452
0.000201796
-0.067295
-0.0709082
-0.0734223
-0.0750477
-0.0763099
-0.0775483
-0.0788376
-0.0801038
-0.0812474
-0.0822033
-0.0829445
-0.0834633
-0.0837534
-0.0838018
-0.0835911
-0.0831031
-0.0823176
-0.0812172
-0.0797897
-0.0780279
-0.0759303
-0.0735008
-0.0707498
-0.0676943
-0.0643597
-0.060778
-0.0569892
-0.0530379
-0.0489741
-0.0448491
-0.0407161
-0.0366254
-0.0326258
-0.0287596
-0.0250655
-0.0215731
-0.0183088
-0.0152892
-0.0125291
-0.0100331
-0.0078068
-0.0058446
-0.00414457
-0.00269255
-0.00148079
-0.000488077
0.000296637
0.000899357
0.00133208
0.00162323
0.00178363
0.00184142
0.00180505
0.00170017
0.00153191
0.00132069
0.001069
0.00079165
0.000488312
0.000170062
-0.061642
-0.0648414
-0.0671009
-0.0685904
-0.0697595
-0.0709039
-0.072092
-0.0732624
-0.0743286
-0.0752329
-0.0759505
-0.0764738
-0.076797
-0.0769096
-0.0767962
-0.0764423
-0.0758284
-0.0749396
-0.073765
-0.0722978
-0.0705355
-0.0684799
-0.0661381
-0.0635224
-0.0606517
-0.0575508
-0.0542509
-0.0507877
-0.047202
-0.0435361
-0.0398351
-0.0361427
-0.0325025
-0.0289531
-0.0255317
-0.0222678
-0.0191891
-0.0163144
-0.0136613
-0.0112379
-0.00905306
-0.007105
-0.00539505
-0.00391288
-0.00265382
-0.00160044
-0.00074426
-6.28409e-05
0.000453958
0.00083125
0.00107899
0.0012226
0.00127053
0.00124615
0.0011555
0.0010177
0.000836735
0.00062696
0.000389972
0.000136891
-0.056392
-0.0592124
-0.0612325
-0.0625891
-0.0636654
-0.0647176
-0.0658078
-0.0668847
-0.0678742
-0.0687254
-0.0694158
-0.0699382
-0.0702876
-0.0704546
-0.0704258
-0.0701848
-0.069721
-0.0690195
-0.0680688
-0.0668624
-0.0653972
-0.0636735
-0.0616959
-0.0594727
-0.0570179
-0.0543502
-0.0514937
-0.0484766
-0.0453318
-0.0420939
-0.0388008
-0.0354895
-0.0321986
-0.0289628
-0.0258167
-0.0227887
-0.0199067
-0.0171905
-0.0146598
-0.0123251
-0.010198
-0.00828001
-0.00657532
-0.00507714
-0.00378371
-0.00268121
-0.00176371
-0.00101225
-0.000418579
3.92581e-05
0.00037
0.000596278
0.000726417
0.000781753
0.000768835
0.000705399
0.000596505
0.000456217
0.000287861
0.000102412
-0.0515311
-0.0540062
-0.0558035
-0.0570325
-0.0580186
-0.0589821
-0.0599785
-0.0609657
-0.06188
-0.0626773
-0.0633373
-0.0638533
-0.0642204
-0.0644306
-0.064472
-0.0643305
-0.0639953
-0.0634556
-0.0627015
-0.0617248
-0.0605213
-0.0590906
-0.0574351
-0.0555606
-0.0534767
-0.0511973
-0.0487409
-0.0461292
-0.0433886
-0.0405469
-0.0376357
-0.034686
-0.0317312
-0.0288018
-0.0259295
-0.0231409
-0.0204631
-0.017916
-0.0155205
-0.0132886
-0.0112342
-0.00936114
-0.00767637
-0.00617617
-0.00486146
-0.00372175
-0.00275358
-0.00194133
-0.00127876
-0.00074696
-0.000338267
-3.28803e-05
0.00017683
0.000310139
0.000374129
0.000385359
0.000349597
0.000280342
0.000182526
6.68427e-05
-0.047043
-0.0492055
-0.0507976
-0.0519066
-0.0528066
-0.053686
-0.054594
-0.0554958
-0.0563376
-0.057081
-0.0577082
-0.0582126
-0.0585899
-0.058833
-0.0589317
-0.0588748
-0.0586518
-0.0582522
-0.0576668
-0.0568888
-0.0559138
-0.0547398
-0.0533677
-0.0518008
-0.0500459
-0.0481128
-0.0460152
-0.0437698
-0.0413973
-0.03892
-0.0363635
-0.0337537
-0.0311188
-0.0284855
-0.0258819
-0.0233325
-0.0208627
-0.0184922
-0.0162417
-0.0141246
-0.0121557
-0.0103414
-0.00869031
-0.0072016
-0.00587851
-0.00471364
-0.00370582
-0.00284252
-0.00211945
-0.00152082
-0.00104038
-0.000660616
-0.000374353
-0.000164756
-2.51177e-05
6.00121e-05
9.75149e-05
0.000100317
7.45089e-05
3.03436e-05
-0.0429113
-0.0447928
-0.0461979
-0.0471954
-0.0480147
-0.0488155
-0.0496411
-0.0504628
-0.0512353
-0.0519258
-0.0525186
-0.0530077
-0.053389
-0.0536564
-0.0538011
-0.0538145
-0.053685
-0.0534042
-0.0529635
-0.0523568
-0.0515796
-0.0506289
-0.0495044
-0.0482075
-0.0467427
-0.0451163
-0.0433387
-0.0414222
-0.0393827
-0.0372378
-0.0350082
-0.0327148
-0.0303816
-0.028031
-0.025688
-0.0233741
-0.0211129
-0.0189229
-0.0168246
-0.0148314
-0.0129592
-0.0112155
-0.0096107
-0.00814615
-0.00682713
-0.00564892
-0.00461249
-0.00370825
-0.00293374
-0.00227579
-0.00172974
-0.00128106
-0.000923125
-0.000640548
-0.000426535
-0.000267495
-0.0001568
-8.20303e-05
-3.52628e-05
-6.90953e-06
-0.0391204
-0.040751
-0.041987
-0.0428821
-0.0436267
-0.0443551
-0.0451045
-0.0458518
-0.0465591
-0.0471985
-0.0477563
-0.0482274
-0.048608
-0.0488928
-0.0490739
-0.0491409
-0.0490867
-0.0489051
-0.0485889
-0.0481299
-0.047523
-0.0467651
-0.0458553
-0.0447937
-0.0435828
-0.0422267
-0.0407325
-0.0391092
-0.0373689
-0.035525
-0.033594
-0.0315928
-0.029541
-0.0274575
-0.0253638
-0.0232786
-0.0212233
-0.0192149
-0.0172727
-0.0154102
-0.0136432
-0.0119803
-0.0104329
-0.00900403
-0.00770069
-0.00652053
-0.00546637
-0.00453113
-0.00371432
-0.00300554
-0.00240102
-0.0018884
-0.00146273
-0.00111139
-0.000827116
-0.000596677
-0.000413063
-0.00026557
-0.000145723
-4.39801e-05
-0.0356553
-0.037063
-0.0381474
-0.0389495
-0.039626
-0.0402883
-0.0409682
-0.041647
-0.0422935
-0.0428843
-0.0434075
-0.0438583
-0.0442335
-0.0445282
-0.0447354
-0.0448474
-0.0448571
-0.0447584
-0.0445445
-0.044209
-0.0437469
-0.0431542
-0.0424292
-0.0415711
-0.0405811
-0.0394613
-0.0382164
-0.0368528
-0.0353793
-0.0338059
-0.0321456
-0.0304114
-0.0286197
-0.0267856
-0.0249274
-0.0230614
-0.0212062
-0.0193772
-0.0175924
-0.0158644
-0.0142088
-0.0126346
-0.0111538
-0.00977078
-0.00849378
-0.00732229
-0.00626082
-0.00530463
-0.00445464
-0.00370283
-0.00304753
-0.00247862
-0.00199047
-0.00157241