/*--------------------------------*- C++ -*----------------------------------*\
| =========                 |                                                 |
| \\      /  F ield         | OpenFOAM: The Open Source CFD Toolbox           |
|  \\    /   O peration     | Version:  2512                                  |
|   \\  /    A nd           | Website:  www.openfoam.com                      |
|    \\/     M anipulation  |                                                 |
\*---------------------------------------------------------------------------*/
FoamFile
{
    version     2.0;
    format      ascii;
    arch        "LSB;label=32;scalar=64";
    class       volScalarField;
    location    "5.5";
    object      p;
}
// * * * * * * * * * * * * * * * * * * * * * * * * * * * * * * * * * * * * * //

dimensions      [0 2 -2 0 0 0 0];

internalField   nonuniform List<scalar> 
13248
(
-0.430399
-0.427044
-0.422558
-0.417418
-0.412327
-0.408049
-0.40516
-0.403921
-0.404211
-0.405514
-0.406981
-0.407552
-0.406131
-0.401789
-0.393919
-0.382332
-0.367249
-0.349212
-0.328933
-0.307158
-0.284445
-0.261378
-0.237341
-0.21316
-0.439206
-0.435381
-0.43043
-0.424851
-0.419297
-0.414445
-0.410744
-0.408301
-0.40684
-0.405737
-0.404131
-0.401095
-0.395822
-0.387773
-0.37676
-0.362934
-0.346702
-0.32861
-0.309224
-0.289053
-0.268494
-0.247884
-0.227193
-0.207198
-0.451037
-0.446304
-0.440702
-0.434653
-0.42865
-0.423204
-0.418562
-0.414627
-0.410975
-0.406956
-0.401837
-0.394978
-0.385955
-0.374629
-0.361126
-0.345769
-0.328976
-0.311177
-0.292762
-0.27406
-0.255315
-0.236779
-0.218409
-0.200613
-0.465721
-0.459729
-0.453281
-0.446645
-0.440055
-0.433787
-0.427841
-0.421923
-0.41554
-0.408146
-0.399283
-0.388678
-0.376287
-0.362264
-0.346895
-0.33052
-0.313473
-0.296046
-0.278483
-0.260981
-0.243706
-0.22682
-0.210318
-0.194577
-0.482939
-0.475461
-0.468007
-0.460619
-0.453183
-0.44569
-0.437902
-0.429406
-0.419779
-0.408728
-0.396151
-0.382137
-0.366919
-0.350798
-0.334083
-0.317043
-0.299897
-0.282816
-0.265931
-0.249351
-0.233169
-0.217472
-0.202262
-0.187755
-0.502368
-0.493265
-0.484693
-0.476351
-0.46769
-0.458406
-0.448101
-0.436396
-0.423107
-0.408297
-0.392222
-0.375239
-0.357718
-0.339978
-0.322264
-0.304746
-0.287536
-0.270713
-0.25433
-0.238435
-0.223071
-0.208276
-0.194059
-0.180541
-0.523519
-0.512803
-0.503036
-0.493472
-0.483071
-0.471289
-0.457732
-0.442257
-0.425057
-0.406576
-0.387346
-0.367857
-0.348489
-0.329495
-0.31102
-0.293138
-0.275876
-0.259243
-0.24324
-0.227868
-0.213129
-0.199024
-0.18556
-0.172747
-0.545833
-0.533565
-0.522513
-0.511364
-0.498577
-0.483518
-0.466028
-0.44639
-0.425238
-0.403331
-0.381346
-0.359779
-0.338931
-0.318947
-0.299874
-0.2817
-0.26439
-0.247902
-0.232197
-0.217244
-0.203013
-0.189483
-0.176649
-0.164436
-0.568482
-0.554788
-0.542326
-0.529119
-0.513222
-0.494148
-0.472221
-0.44827
-0.423335
-0.398364
-0.374045
-0.350782
-0.328753
-0.307991
-0.288453
-0.270059
-0.252726
-0.236376
-0.220937
-0.20635
-0.192564
-0.17954
-0.167247
-0.15555
-0.590388
-0.575434
-0.561375
-0.545554
-0.525837
-0.50218
-0.475585
-0.447437
-0.419065
-0.391463
-0.365221
-0.3406
-0.317645
-0.296284
-0.276401
-0.257865
-0.240554
-0.22436
-0.209186
-0.19495
-0.181583
-0.169033
-0.157234
-0.146033
-0.610257
-0.594213
-0.578302
-0.559276
-0.535137
-0.506572
-0.475348
-0.443324
-0.41196
-0.382173
-0.354392
-0.328715
-0.305063
-0.283278
-0.263181
-0.244602
-0.227386
-0.211401
-0.196527
-0.182665
-0.169731
-0.157655
-0.14633
-0.13563
-0.626705
-0.609761
-0.591715
-0.568918
-0.539879
-0.506254
-0.470584
-0.435067
-0.401161
-0.369611
-0.340649
-0.314214
-0.290109
-0.268099
-0.247957
-0.229474
-0.212471
-0.19679
-0.182297
-0.168877
-0.156437
-0.144887
-0.134088
-0.123988
-0.328214
-0.337875
-0.344422
-0.3505
-0.357854
-0.36662
-0.376477
-0.386919
-0.397289
-0.406816
-0.414645
-0.419867
-0.421549
-0.418783
-0.410745
-0.39676
-0.376461
-0.34999
-0.317666
-0.280225
-0.238892
-0.195253
-0.151185
-0.109033
-0.332838
-0.341795
-0.348045
-0.354039
-0.361399
-0.37025
-0.380276
-0.390975
-0.401698
-0.411686
-0.420089
-0.426002
-0.428494
-0.426643
-0.419588
-0.406623
-0.387328
-0.361902
-0.330417
-0.293584
-0.252561
-0.208847
-0.164114
-0.120633
-0.343604
-0.350933
-0.356454
-0.362192
-0.369497
-0.378468
-0.3888
-0.400008
-0.411464
-0.422428
-0.432071
-0.439497
-0.443771
-0.44395
-0.439122
-0.428541
-0.411784
-0.38841
-0.358689
-0.323166
-0.282843
-0.239125
-0.193552
-0.147826
-0.358276
-0.363314
-0.367723
-0.372963
-0.380016
-0.388948
-0.399472
-0.411125
-0.423305
-0.435302
-0.446311
-0.455451
-0.46178
-0.464324
-0.462147
-0.454413
-0.440449
-0.419762
-0.392352
-0.358566
-0.319301
-0.275879
-0.229997
-0.182736
-0.37415
-0.376599
-0.379597
-0.38402
-0.390465
-0.398971
-0.409284
-0.420966
-0.433447
-0.44605
-0.458002
-0.468443
-0.476441
-0.481016
-0.481182
-0.475995
-0.464603
-0.44646
-0.421317
-0.389398
-0.35149
-0.308804
-0.263505
-0.215957
-0.388794
-0.388762
-0.390186
-0.393439
-0.398796
-0.406306
-0.415773
-0.426805
-0.438872
-0.45134
-0.463474
-0.474448
-0.483348
-0.48919
-0.490943
-0.487597
-0.478236
-0.462147
-0.438969
-0.408828
-0.372507
-0.331124
-0.287264
-0.240902
-0.400606
-0.398565
-0.398422
-0.400204
-0.403985
-0.40988
-0.417787
-0.427402
-0.438267
-0.449804
-0.461328
-0.472046
-0.481058
-0.48737
-0.489947
-0.487706
-0.479648
-0.464985
-0.443318
-0.414758
-0.380177
-0.340695
-0.299088
-0.255237
-0.409019
-0.405675
-0.404148
-0.404301
-0.406157
-0.409945
-0.415714
-0.423293
-0.43233
-0.442332
-0.452659
-0.46253
-0.471079
-0.477299
-0.480054
-0.478207
-0.470711
-0.456771
-0.436053
-0.408787
-0.376013
-0.338947
-0.300324
-0.260017
-0.414403
-0.410499
-0.407897
-0.406461
-0.406294
-0.407781
-0.411153
-0.416408
-0.423336
-0.431539
-0.440365
-0.449141
-0.456892
-0.46251
-0.464798
-0.462559
-0.454761
-0.44073
-0.420347
-0.394107
-0.36325
-0.329066
-0.29405
-0.257895
-0.417807
-0.413926
-0.410583
-0.40777
-0.405759
-0.4051
-0.406206
-0.409245
-0.41413
-0.42052
-0.427899
-0.435375
-0.441912
-0.446309
-0.447297
-0.443708
-0.434668
-0.41979
-0.399298
-0.374009
-0.345293
-0.314423
-0.283491
-0.251677
-0.42066
-0.417086
-0.413263
-0.409373
-0.405892
-0.403509
-0.402779
-0.403986
-0.407138
-0.41191
-0.417669
-0.423473
-0.428167
-0.430482
-0.429198
-0.423339
-0.412356
-0.39625
-0.375565
-0.351323
-0.324807
-0.297261
-0.270308
-0.242801
-0.424452
-0.421138
-0.416968
-0.412308
-0.407797
-0.404206
-0.402151
-0.401973
-0.403647
-0.406788
-0.410652
-0.414202
-0.416238
-0.415564
-0.41119
-0.402498
-0.389348
-0.372084
-0.351421
-0.328325
-0.303723
-0.278674
-0.254023
-0.229903
-0.0643312
-0.0191194
0.0182265
0.0469415
0.0672565
0.0800882
0.086733
0.0885946
0.0869906
0.083077
0.0777933
0.0718219
0.065781
0.0598712
0.0543165
0.0492162
0.0446641
0.0405736
0.0369586
0.0337612
0.0309365
0.0284429
0.0262433
0.0243047
0.022595
0.0210849
0.019749
0.0185655
0.0175154
0.0165822
0.0157513
0.0150097
0.0143458
0.0137495
0.0132115
0.0127237
0.0122786
0.0118696
0.0114904
0.0111355
0.0107995
0.0104774
0.0101644
0.00985581
0.00954689
0.00923276
0.0089088
0.00856907
0.00820957
0.00782103
0.00740332
0.00693692
0.00643567
0.00585474
0.00523661
0.00450589
0.00370846
0.00281388
0.00175276
0.000650187
-0.0755305
-0.0283939
0.0106659
0.0407471
0.0621793
0.0759659
0.0834459
0.0860364
0.085057
0.0816612
0.0767975
0.0712108
0.0652944
0.0595191
0.0540697
0.0489773
0.0445772
0.0405534
0.0370065
0.0338213
0.0309981
0.0285052
0.0263049
0.0243655
0.0226547
0.0211428
0.0198044
0.0186177
0.0175642
0.0166275
0.0157932
0.0150484
0.0143814
0.0137822
0.0132415
0.0127512
0.0123037
0.0118925
0.0115113
0.0111545
0.0108168
0.0104931
0.0101787
0.00986867
0.0095585
0.00924323
0.0089182
0.00857756
0.00821708
0.00782798
0.00740909
0.00694291
0.00643958
0.00586029
0.00523902
0.00450977
0.00371213
0.00281243
0.00175866
0.000643436
-0.101931
-0.0516696
-0.00868802
0.024599
0.048638
0.0646891
0.0741848
0.0785551
0.0791277
0.0770333
0.0732383
0.068502
0.0633466
0.0581607
0.0531554
0.0485288
0.0440761
0.0400873
0.0367746
0.0336885
0.0309146
0.0284528
0.0262759
0.0243562
0.0226605
0.0211589
0.0198269
0.018644
0.0175924
0.0166565
0.0158222
0.0150767
0.0144088
0.0138084
0.0132664
0.0127747
0.0123258
0.0119132
0.0115306
0.0111725
0.0108335
0.0105086
0.010193
0.00988192
0.00957076
0.00925459
0.00892869
0.00858733
0.00822604
0.00783651
0.00741655
0.00695071
0.00644533
0.00586774
0.00524326
0.00451542
0.00371746
0.00281234
0.00176554
0.000637136
-0.136574
-0.0840335
-0.0367912
0.000553805
0.0281015
0.047322
0.0597225
0.0667153
0.0696164
0.0695489
0.0674397
0.0640709
0.0600171
0.0556821
0.0513315
0.0471541
0.0431856
0.0396242
0.0362467
0.0333102
0.0306768
0.0282917
0.0261598
0.0242802
0.0226161
0.0211368
0.0198201
0.0186475
0.0176029
0.0166716
0.0158403
0.0150966
0.0144297
0.0138297
0.0132876
0.0127954
0.012346
0.0119326
0.0115492
0.0111902
0.0108504
0.0105246
0.0102082
0.00989634
0.00958443
0.00926757
0.00894102
0.00859911
0.00823716
0.00784735
0.00742643
0.00696099
0.00645363
0.00587772
0.00525
0.00452342
0.00372486
0.00281417
0.00177355
0.000631638
-0.170618
-0.118226
-0.068767
-0.0281299
0.00289867
0.0255775
0.0413102
0.0514134
0.0571372
0.0595979
0.0596669
0.0580781
0.0554498
0.0522424
0.0487727
0.0452551
0.0418105
0.038557
0.0354588
0.0327098
0.0302355
0.0280062
0.0259496
0.0241332
0.0225184
0.0210745
0.0197825
0.0186272
0.0175948
0.0166724
0.0158472
0.0151079
0.0144439
0.0138458
0.0133049
0.0128134
0.0123642
0.0119508
0.0115672
0.0112078
0.0108675
0.0105412
0.0102243
0.00991191
0.00959951
0.0092822
0.0089552
0.00861293
0.00825048
0.00786053
0.00743879
0.00697382
0.00646456
0.00589026
0.00525933
0.00453387
0.00373435
0.00281814
0.00178258
0.000627167
-0.197375
-0.147521
-0.0992396
-0.0576076
-0.0241582
0.00156487
0.0205177
0.0338046
0.0425339
0.0477178
0.0502321
0.0507381
0.0498109
0.047948
0.0455285
0.0428205
0.0400047
0.037207
0.0344611
0.0319174
0.0296421
0.0275586
0.0256219
0.023911
0.0223656
0.0209702
0.0197128
0.0185819
0.0175674
0.016658
0.0158425
0.0151101
0.0144512
0.0138566
0.0133181
0.0128283
0.0123802
0.0119674
0.0115842
0.011225
0.0108846
0.0105582
0.0102411
0.00992847
0.00961583
0.0092983
0.00897105
0.0086286
0.00826584
0.00787588
0.00745346
0.00698901
0.00647798
0.00590521
0.00527113
0.00454666
0.00374578
0.00282432
0.00179244
0.00062394
-0.21425
-0.168338
-0.124227
-0.0844292
-0.050343
-0.0226213
-0.00107469
0.0150712
0.0266852
0.0345825
0.0395376
0.0422418
0.0432038
0.0428695
0.0416523
0.0398819
0.0377919
0.0355472
0.0332603
0.0310148
0.02889
0.0269571
0.0251122
0.0235989
0.0221551
0.0208229
0.0196098
0.0185109
0.0175199
0.0166282
0.0158257
0.0151031
0.0144512
0.0138619
0.0133272
0.0128401
0.0123939
0.0119825
0.0116002
0.0112416
0.0109016
0.0105755
0.0102584
0.00994589
0.00963325
0.00931572
0.00898843
0.00864599
0.00828309
0.00789325
0.0074703
0.0070064
0.00649379
0.0059224
0.00528532
0.00456168
0.003759
0.0028328
0.00180293
0.000622242
-0.222129
-0.180724
-0.142339
-0.106475
-0.0735871
-0.0452728
-0.0221294
-0.00376358
0.0103586
0.0207648
0.0280646
0.0328757
0.0357378
0.0370485
0.0371651
0.0364447
0.0351752
0.0335701
0.0317849
0.0299357
0.0280779
0.026285
0.0244104
0.0231801
0.0218815
0.0206321
0.0194729
0.018413
0.0174514
0.0165821
0.0157965
0.0150864
0.0144439
0.0138615
0.013332
0.0128486
0.0124053
0.0119959
0.0116151
0.0112576
0.0109185
0.010593
0.0102763
0.00996411
0.00965171
0.00933438
0.00900725
0.00866499
0.00830212
0.00791252
0.00748923
0.00702587
0.00651191
0.00594171
0.00530183
0.00457888
0.00377388
0.00284368
0.00181387
0.000622432
-0.223484
-0.187026
-0.154484
-0.123208
-0.0927474
-0.0652034
-0.0415861
-0.0218117
-0.00574486
0.00680345
0.0162324
0.0230364
0.0276881
0.0306121
0.0321303
0.032554
0.0321872
0.0312872
0.0300514
0.0286298
0.0271274
0.0256163
0.0244499
0.0227429
0.0215407
0.0203965
0.0193012
0.018287
0.0173609
0.0165191
0.0157543
0.0150598
0.0144291
0.0138555
0.0133325
0.0128541
0.0124144
0.0120078
0.011629
0.0112731
0.0109352
0.0106106
0.0102948
0.00998311
0.00967118
0.00935427
0.00902748
0.00868557
0.00832289
0.00793365
0.00751019
0.00704735
0.00653232
0.00596302
0.00532065
0.00459819
0.00379031
0.00285713
0.0018251
0.000624961
-0.221038
-0.189938
-0.162726
-0.135366
-0.107689
-0.0818865
-0.0587812
-0.0384294
-0.0210794
-0.0068718
0.00436178
0.0129516
0.0192689
0.023691
0.0265825
0.0282156
0.0288469
0.0287403
0.0281197
0.0271673
0.0260296
0.0248183
0.023638
0.0224258
0.0211275
0.0200967
0.0190877
0.018132
0.0172493
0.0164407
0.0157008
0.015025
0.0144082
0.013845
0.0133298
0.0128571
0.0124217
0.0120184
0.0116421
0.0112881
0.0109517
0.0106283
0.0103134
0.0100026
0.00969135
0.00937504
0.00904877
0.00870738
0.00834508
0.0079563
0.00753289
0.00707055
0.00655479
0.00598612
0.00534164
0.00461952
0.00380816
0.00287327
0.0018365
0.000630432
-0.216933
-0.191904
-0.169384
-0.144975
-0.120004
-0.0964645
-0.0745646
-0.0543582
-0.0363432
-0.0209145
-0.00814563
0.00209597
0.0100407
0.0159733
0.0202034
0.0230377
0.0247499
0.0255755
0.0257276
0.0253857
0.0247165
0.0238563
0.0229069
0.0218492
0.0208246
0.0197834
0.0188456
0.0179552
0.0171193
0.0163465
0.0156341
0.0149793
0.0143783
0.0138271
0.0133209
0.012855
0.0124247
0.0120253
0.011652
0.0113004
0.0109658
0.010644
0.0103304
0.0100207
0.00971039
0.00939494
0.00906945
0.00872879
0.00836712
0.00797898
0.00755591
0.00709412
0.00657806
0.00600987
0.00536374
0.004642
0.00382661
0.00289169
0.00184763
0.000639599
-0.210202
-0.192863
-0.174235
-0.15195
-0.129427
-0.10809
-0.0876662
-0.0682563
-0.0503099
-0.0343004
-0.0204929
-0.00894044
0.000436153
0.00780456
0.0133895
0.017433
0.0201736
0.0218594
0.0227352
0.023018
0.0228689
0.0224235
0.0217886
0.0209972
0.0201386
0.0192789
0.0184293
0.0176529
0.0168998
0.0161847
0.0155146
0.0148919
0.0143153
0.0137826
0.0132908
0.012836
0.0124144
0.0120217
0.0116538
0.0113064
0.0109753
0.0106562
0.0103449
0.0100371
0.00972848
0.00941441
0.00909011
0.00875048
0.00838967
0.00800228
0.00757979
0.00711834
0.00660249
0.00603398
0.0053871
0.00466499
0.00384522
0.00291198
0.00185742
0.000653089
-0.19255
-0.187445
-0.169056
-0.146782
-0.125672
-0.106112
-0.0873764
-0.0693896
-0.0525846
-0.0374255
-0.0241774
-0.0129129
-0.00358825
0.00391295
0.00976078
0.0141586
0.0173235
0.0194589
0.0207611
0.0214116
0.0215705
0.0213807
0.0209556
0.0203633
0.0196662
0.018912
0.0181746
0.0174257
0.0167254
0.0160523
0.0154166
0.0148217
0.0142676
0.0137531
0.0132757
0.0128326
0.0124203
0.0120351
0.0116731
0.0113306
0.0110033
0.0106874
0.0103787
0.010073
0.00976596
0.00945319
0.0091299
0.00879093
0.00843067
0.00804313
0.00762112
0.00715778
0.00664333
0.00606974
0.00542482
0.00469667
0.00387221
0.00293905
0.00186861
0.000670369
-0.17512
-0.173315
-0.156903
-0.136234
-0.117116
-0.0999535
-0.0836601
-0.0678348
-0.0528018
-0.0390271
-0.026799
-0.0162153
-0.00726718
0.000111463
0.00603223
0.0106398
0.0140957
0.0165641
0.018211
0.0191986
0.0196759
0.0197747
0.0196004
0.0192243
0.0187089
0.0180992
0.017501
0.0169136
0.0163165
0.015726
0.0151567
0.0146153
0.0141042
0.0136243
0.013175
0.0127545
0.0123605
0.0119901
0.0116402
0.0113073
0.010988
0.0106785
0.0103751
0.0100737
0.0097702
0.00946032
0.00913941
0.00880238
0.00844376
0.00805735
0.00763664
0.0071733
0.00666053
0.00608476
0.00544247
0.00471018
0.00388584
0.00295131
0.00187309
0.000679777
-0.159162
-0.158104
-0.144632
-0.126636
-0.109689
-0.094612
-0.0803881
-0.0664347
-0.0529507
-0.040392
-0.0290776
-0.0191332
-0.0105745
-0.00336764
0.00255368
0.00728577
0.0109507
0.0136845
0.0156287
0.0169234
0.0177007
0.0180786
0.0181548
0.018003
0.0176886
0.0172781
0.0168288
0.0163448
0.0158407
0.0153334
0.0148344
0.0143514
0.0138888
0.0134489
0.0130325
0.0126391
0.0122673
0.0119151
0.0115801
0.0112594
0.01095
0.0106487
0.0103518
0.0100558
0.0097567
0.00945041
0.00913243
0.00879777
0.00844116
0.00805624
0.00763708
0.00717434
0.00666328
0.00608669
0.0054468
0.00471234
0.00388931
0.00295438
0.00187234
0.000684559
-0.143023
-0.143258
-0.13267
-0.117369
-0.10247
-0.0891721
-0.0767156
-0.064457
-0.0524543
-0.0411017
-0.0307241
-0.0214692
-0.0133726
-0.00642339
-0.000588464
0.00418931
0.00799685
0.0109418
0.0131392
0.0147055
0.0157545
0.0163916
0.0167076
0.0167771
0.0166664
0.0164319
0.016114
0.015743
0.01534
0.0149191
0.0144926
0.0140702
0.0136582
0.0132603
0.0128788
0.0125141
0.012166
0.0118334
0.0115144
0.0112068
0.0109082
0.0106157
0.010326
0.0100359
0.00974166
0.00943928
0.0091245
0.00879242
0.00843797
0.00805465
0.00763712
0.007175
0.00666564
0.00608839
0.00545053
0.0047146
0.00389202
0.0029576
0.00187159
0.000688486
-0.127867
-0.129348
-0.121051
-0.108131
-0.0951825
-0.0835409
-0.072686
-0.0619935
-0.0514088
-0.0412423
-0.0318057
-0.0232664
-0.0156807
-0.00905492
-0.00337871
0.00137369
0.00525729
0.00835299
0.0107515
0.0125465
0.0138342
0.0147073
0.0152483
0.0155271
0.0156044
0.0155322
0.0153553
0.0151074
0.0148093
0.0144777
0.0141269
0.0137682
0.0134097
0.0130565
0.0127121
0.0123784
0.0120559
0.0117444
0.0114429
0.0111498
0.0108631
0.0105803
0.0102987
0.0100152
0.00972631
0.00942837
0.00911723
0.0087881
0.00843614
0.0080547
0.00763903
0.00717775
0.00667015
0.00609245
0.0054564
0.00471934
0.00389648
0.00296295
0.00187228
0.000692231
-0.11434
-0.116288
-0.109757
-0.0989618
-0.0878723
-0.077802
-0.0684123
-0.0591459
-0.0498831
-0.0408554
-0.0323468
-0.0245352
-0.0174952
-0.0112463
-0.00579297
-0.00113348
0.00275991
0.00594465
0.00848983
0.0104681
0.011958
0.0130389
0.0137834
0.0142547
0.0145096
0.0145986
0.0145643
0.014439
0.0142465
0.014006
0.0137335
0.0134415
0.0131392
0.0128335
0.0125289
0.0122284
0.0119336
0.0116452
0.0113629
0.0110856
0.010812
0.0105401
0.0102675
0.00999137
0.00970864
0.00941573
0.00910877
0.00878305
0.00843398
0.00805477
0.00764123
0.0071811
0.00667538
0.0060976
0.00546319
0.00472544
0.00390191
0.00296942
0.0018739
0.000695362
-0.101724
-0.103914
-0.0988964
-0.0900003
-0.0806218
-0.072005
-0.0639454
-0.0559665
-0.04792
-0.0399721
-0.0323697
-0.0252897
-0.0188198
-0.0129901
-0.00781461
-0.00330893
0.000532459
0.00374706
0.00638521
0.00850009
0.0101529
0.01141
0.0123339
0.0129807
0.0134021
0.0136443
0.0137467
0.0137417
0.0136549
0.0135067
0.0133141
0.0130908
0.0128471
0.0125911
0.0123286
0.0120635
0.0117985
0.011535
0.0112734
0.0110135
0.0107543
0.0104943
0.0102316
0.00996371
0.00968781
0.00940055
0.00909828
0.00877644
0.00843066
0.00805404
0.00764291
0.00718425
0.00668052
0.00610304
0.0054701
0.00473214
0.00390765
0.00297628
0.00187601
0.000697687
-0.0898425
-0.0923605
-0.088624
-0.0813556
-0.0734933
-0.0661898
-0.0593301
-0.0525111
-0.0455759
-0.0386403
-0.0319115
-0.0255563
-0.0196697
-0.0142894
-0.00943581
-0.00513619
-0.00140249
0.00178656
0.00446563
0.00667034
0.00844561
0.0098453
0.0109221
0.0117238
0.0122956
0.012679
0.012911
0.0130227
0.0130399
0.0129836
0.0128715
0.0127181
0.0125347
0.0123303
0.0121118
0.011884
0.0116505
0.0114136
0.0111743
0.0109331
0.0106895
0.0104426
0.0101908
0.00993197
0.00966362
0.00938266
0.00908564
0.00876815
0.00842606
0.00805241
0.00764397
0.00718711
0.00668549
0.00610869
0.00547709
0.00473935
0.00391365
0.00298342
0.00187858
0.00069937
-0.0790563
-0.081709
-0.0789581
-0.0730601
-0.0665278
-0.0603984
-0.0546149
-0.0488376
-0.0429115
-0.0369141
-0.0310159
-0.025368
-0.0200669
-0.0151552
-0.0106565
-0.00660592
-0.00302853
8.43959e-05
0.00275516
0.00500415
0.00686116
0.00836828
0.00956853
0.0105013
0.0112047
0.0117158
0.0120681
0.0122906
0.0124079
0.0124415
0.0124092
0.0123258
0.0122035
0.012052
0.011879
0.0116901
0.0114898
0.011281
0.0110655
0.0108443
0.0106176
0.0103848
0.0101448
0.00989596
0.00963594
0.00936194
0.00907076
0.00875814
0.00842019
0.00804991
0.00764448
0.00718977
0.00669041
0.00611467
0.00548434
0.00474721
0.00392013
0.00299096
0.0018818
0.000700726
-0.0692722
-0.0718488
-0.0698728
-0.0651442
-0.0597744
-0.054683
-0.0498553
-0.0450068
-0.0399894
-0.0348521
-0.0297327
-0.0247644
-0.0200409
-0.0156064
-0.0114849
-0.00771658
-0.0043361
-0.00134383
0.00127345
0.00352338
0.00542206
0.00700077
0.0082937
0.00933193
0.0101466
0.0107694
0.0112299
0.0115545
0.0117663
0.0118861
0.0119315
0.0119173
0.0118561
0.011758
0.0116313
0.0114826
0.0113167
0.0111373
0.0109468
0.0107469
0.0105382
0.0103207
0.0100935
0.00985548
0.00960456
0.00933821
0.00905349
0.0087463
0.00841296
0.00804649
0.00764443
0.00719226
0.00669534
0.00612106
0.00549198
0.00475581
0.00392729
0.00299905
0.00188589
0.000702
-0.0602171
-0.06273
-0.0614017
-0.0576592
-0.0532858
-0.0490971
-0.0451079
-0.0410794
-0.0368725
-0.0325148
-0.028116
-0.0237911
-0.0196278
-0.0156688
-0.0119367
-0.00847411
-0.00532263
-0.0024887
3.49687e-05
0.00224586
0.00414806
0.0057632
0.00711761
0.00823459
0.00913814
0.00985445
0.010409
0.010825
0.0111237
0.0113244
0.0114438
0.0114967
0.0114954
0.0114504
0.0113705
0.0112624
0.0111318
0.0109829
0.0108186
0.0106411
0.0104514
0.0102501
0.0100367
0.00981033
0.00956928
0.00931129
0.00903366
0.00873245
0.00840424
0.00804205
0.00764373
0.00719452
0.00670029
0.00612787
0.00550009
0.00476521
0.00393525
0.00300779
0.0018909
0.000703328
-0.0519379
-0.0543848
-0.0535604
-0.0506259
-0.0470944
-0.0436828
-0.040422
-0.0371105
-0.0336198
-0.0299613
-0.0262211
-0.0224968
-0.0188682
-0.0153742
-0.0120342
-0.00889156
-0.00599256
-0.00334721
-0.000951361
0.00118493
0.00305545
0.00467343
0.00605848
0.00722691
0.00819593
0.00898617
0.00961885
0.0101138
0.0104898
0.0107641
0.0109526
0.0110689
0.0111254
0.0111324
0.0110986
0.0110313
0.0109364
0.0108186
0.0106813
0.010527
0.0103573
0.0101731
0.00997433
0.00976038
0.00952996
0.00928102
0.00901111
0.00871648
0.00839391
0.0080365
0.00764233
0.0071965
0.00670523
0.00613507
0.00550872
0.00477541
0.00394411
0.00301727
0.00189686
0.000704834
-0.0444796
-0.0467716
-0.0463116
-0.0440392
-0.0412204
-0.0384744
-0.0358408
-0.0331505
-0.0302865
-0.0272489
-0.0241036
-0.0209323
-0.0178063
-0.0147592
-0.0118058
-0.00898857
-0.00635705
-0.00392284
-0.00168252
0.000348705
0.00215612
0.00374587
0.0051321
0.00632507
0.00733572
0.00817937
0.00887305
0.00943295
0.0098749
0.0102141
0.0104649
0.01064
0.0107508
0.0108075
0.0108185
0.0107913
0.010732
0.0106455
0.0105356
0.0104051
0.0102561
0.0100898
0.00990636
0.00970562
0.00948653
0.00924731
0.00898575
0.00869828
0.00838189
0.00802974
0.00764017
0.00719816
0.00671018
0.00614268
0.00551796
0.00478648
0.00395398
0.00302759
0.0019038
0.000706669
-0.0377021
-0.0398101
-0.0396303
-0.0379048
-0.035685
-0.0335027
-0.0314031
-0.0292455
-0.0269245
-0.0244323
-0.0218181
-0.0191493
-0.0164888
-0.0138642
-0.0112844
-0.00879031
-0.00643334
-0.00422527
-0.00216148
-0.000260184
0.00145722
0.00299107
0.00435124
0.00554307
0.0065719
0.00744815
0.00818472
0.00879428
0.00928958
0.00968363
0.0099888
0.0102165
0.0103771
0.0104801
0.0105337
0.0105452
0.0105207
0.0104652
0.0103827
0.0102763
0.0101485
0.0100005
0.00983303
0.00964612
0.009439
0.00921013
0.00895751
0.00867777
0.00836809
0.00802174
0.00763722
0.0071995
0.00671517
0.00615072
0.0055279
0.0047985
0.00396499
0.00303894
0.0019118
0.000708964
-0.0315263
-0.0334715
-0.0335087
-0.0322263
-0.0305012
-0.0287901
-0.0271406
-0.0254353
-0.0235801
-0.0215618
-0.0194161
-0.0171982
-0.0149629
-0.0127314
-0.0105064
-0.00832637
-0.00624389
-0.00426978
-0.00239682
-0.000644408
0.000960978
0.00241525
0.00372511
0.00489198
0.00591666
0.00680514
0.00756617
0.00820926
0.00874446
0.00918215
0.00953254
0.00980545
0.0100101
0.0101552
0.0102483
0.0102962
0.010305
0.0102795
0.010224
0.0101417
0.010035
0.00990574
0.0097547
0.00958212
0.0093875
0.00916952
0.0089264
0.00865495
0.0083525
0.00801245
0.00763345
0.0072005
0.00672023
0.00615925
0.00553864
0.00481158
0.00397728
0.00305149
0.00192093
0.000711821
-0.0259528
-0.0277299
-0.0279184
-0.0269887
-0.0256696
-0.0243503
-0.0230771
-0.0217521
-0.0202926
-0.0186818
-0.016945
-0.0151268
-0.0132748
-0.0114037
-0.00951005
-0.00762957
-0.00581531
-0.00407651
-0.0024023
-0.000811807
0.000664853
0.00202029
0.00325905
0.00437981
0.00537963
0.00626057
0.00702797
0.00768884
0.00824996
0.00871921
0.00910469
0.0094145
0.00965655
0.00983832
0.00996672
0.0100481
0.0100879
0.010091
0.0100615
0.0100026
0.00991697
0.00980638
0.00967192
0.00951398
0.00933227
0.00912564
0.0088925
0.00862983
0.00833512
0.00800188
0.00762889
0.00720116
0.00672541
0.0061683
0.00555028
0.00482585
0.00399098
0.00306544
0.0019313
0.000715329
-0.0209355
-0.0225315
-0.0228199
-0.022172
-0.0211865
-0.0201911
-0.0192299
-0.018222
-0.0170951
-0.0158314
-0.0144475
-0.0129794
-0.0114686
-0.00992344
-0.00833453
-0.0067347
-0.00517723
-0.00366936
-0.002196
-0.000775003
0.000561346
0.00180337
0.00295434
0.004011
0.00496747
0.0058228
0.00657937
0.00724254
0.00781553
0.0083039
0.00871368
0.00905126
0.00932306
0.00953536
0.00969413
0.00980496
0.00987289
0.00990239
0.00989732
0.00986089
0.00979563
0.00970343
0.00958548
0.00944228
0.0092737
0.00907875
0.00885599
0.00860253
0.00831602
0.00799005
0.00762356
0.00720154
0.00673076
0.00617796
0.00556296
0.00484146
0.00400625
0.00308102
0.00194301
0.000719569
-0.0163994
-0.0178305
-0.0181846
-0.0177594
-0.0170448
-0.016315
-0.0156104
-0.0148645
-0.014015
-0.0130437
-0.0119611
-0.0107964
-0.00958542
-0.00833118
-0.00701839
-0.00567732
-0.0043612
-0.00307513
-0.00179954
-0.000550245
0.000639019
0.00175725
0.00280765
0.00378582
0.00468347
0.00549748
0.00622927
0.00687873
0.00744955
0.00794447
0.00836745
0.00872314
0.00901644
0.00925234
0.00943578
0.00957149
0.00966388
0.00971695
0.0097342
0.00971865
0.0096727
0.0095982
0.00949637
0.00936777
0.00921236
0.00902925
0.00881714
0.00857323
0.00829533
0.00797707
0.00761754
0.00720169
0.00673639
0.00618832
0.0055768
0.00485858
0.00402327
0.00309847
0.00195622
0.000724623
-0.0123125
-0.013593
-0.0139903
-0.0137344
-0.0132345
-0.0127195
-0.0122242
-0.0116931
-0.0110728
-0.0103458
-0.00951792
-0.00861309
-0.00766268
-0.00666468
-0.00559869
-0.00449261
-0.00339954
-0.0023225
-0.00123744
-0.000157465
0.000883004
0.00187183
0.00281241
0.00370082
0.0045269
0.00528568
0.00597798
0.0066021
0.00715842
0.00764792
0.00807311
0.00843707
0.00874322
0.00899527
0.00919707
0.00935241
0.00946498
0.00953816
0.00957506
0.00957832
0.00955016
0.00949229
0.00940585
0.00929142
0.00914897
0.00897769
0.00877635
0.00854224
0.00827325
0.00796309
0.00761095
0.00720171
0.00674239
0.00619951
0.00559195
0.00487741
0.00404222
0.00311805
0.00197109
0.000730577
-0.00863897
-0.00977723
-0.0101961
-0.0100756
-0.00974535
-0.00940043
-0.0090731
-0.00871608
-0.00828332
-0.00775858
-0.00714422
-0.00645991
-0.00573343
-0.00495851
-0.00411021
-0.0032144
-0.00232416
-0.00144059
-0.00053536
0.000381144
0.00127456
0.00213273
0.00295942
0.00374973
0.00449214
0.00518944
0.00583077
0.00641721
0.00694695
0.00741973
0.00783658
0.00819909
0.00850934
0.00876981
0.00898324
0.00915248
0.0092804
0.00936975
0.00942306
0.00944259
0.00943024
0.00938751
0.0093154
0.0092144
0.00908446
0.00892478
0.00873416
0.00850993
0.00825009
0.00794831
0.00760396
0.00720174
0.0067489
0.00621167
0.00560859
0.00489818
0.00406332
0.00314004
0.00198784
0.000737527
-0.00533859
-0.00634628
-0.00677185
-0.00675517
-0.0065635
-0.00635441
-0.00615713
-0.00593595
-0.00565656
-0.00529806
-0.00486082
-0.00436204
-0.00382615
-0.00324321
-0.00258461
-0.00187453
-0.00116607
-0.000458514
0.00028022
0.00104223
0.00179375
0.0025228
0.00323453
0.00392428
0.00458674
0.00520595
0.00578665
0.00632485
0.00681761
0.00726353
0.00766224
0.00801407
0.00831988
0.00858102
0.00879918
0.00897628
0.00911436
0.00921545
0.00928152
0.00931432
0.00931539
0.00928591
0.00922669
0.00913807
0.00901991
0.00887137
0.00869123
0.00847683
0.00822622
0.00793303
0.00759679
0.00720196
0.00675609
0.00622497
0.00562688
0.00492111
0.00408679
0.00316476
0.00200669
0.000745581
-0.00237774
-0.00326806
-0.00368996
-0.0037513
-0.0036677
-0.00356923
-0.00348101
-0.00337298
-0.00320859
-0.00297955
-0.00268361
-0.00234042
-0.00196533
-0.00154566
-0.00105014
-0.000501904
4.58593e-05
0.000595421
0.00118233
0.00180135
0.00241878
0.00302187
0.00362096
0.00421153
0.00478136
0.00532504
0.00583968
0.00632242
0.00677018
0.0071807
0.00755266
0.00788538
0.00817873
0.00843307
0.00864912
0.00882794
0.00897077
0.00907892
0.00915373
0.00919644
0.00920815
0.00918968
0.00914159
0.00906398
0.00895659
0.00881847
0.00864837
0.00844355
0.00820212
0.0079176
0.00758973
0.00720259
0.00676415
0.00623957
0.00564702
0.00494645
0.00411286
0.00319252
0.00202791
0.000754863
0.000272962
-0.000511944
-0.000922538
-0.00104139
-0.0010412
-0.00102787
-0.00102257
-0.00100073
-0.000935644
-0.000816758
-0.000642252
-0.000419212
-0.000173969
0.000110092
0.000467809
0.000877241
0.00128526
0.00169539
0.0021463
0.00263515
0.00312939
0.00361875
0.00410653
0.00459554
0.00507532
0.00553888
0.00598324
0.00640546
0.00680212
0.00717041
0.0075084
0.0078147
0.00808838
0.00832897
0.00853641
0.00871096
0.00885311
0.00896349
0.00904283
0.00909183
0.0091111
0.0091011
0.00906203
0.00899379
0.00889589
0.00876723
0.00860648
0.00841082
0.00817837
0.00790248
0.0075831
0.00720388
0.00677329
0.00625567
0.0056692
0.00497444
0.00414174
0.00322367
0.00205177
0.000765506
0.00264311
0.00195213
0.00155763
0.00139713
0.00133347
0.00128118
0.00122239
0.00117702
0.0011671
0.00120196
0.00128423
0.00140252
0.00153774
0.00170781
0.001949
0.00224016
0.00252814
0.00281704
0.00314755
0.0035191
0.00390012
0.00428003
0.00466673
0.00506046
0.00545227
0.0058358
0.00620836
0.0065671
0.0069085
0.00722955
0.00752793
0.00780179
0.00804962
0.00827034
0.00846323
0.00862788
0.00876413
0.00887198
0.00895159
0.00900311
0.00902669
0.00902237
0.00899001
0.00892921
0.00883925
0.00871886
0.00856658
0.00837945
0.00815559
0.00788814
0.00757729
0.00720612
0.00678373
0.00627344
0.00569355
0.0050053
0.0041736
0.00325855
0.00207854
0.000777645
0.00475104
0.00414248
0.00376704
0.00357772
0.00346639
0.00336464
0.00325763
0.00316153
0.00309432
0.00306357
0.00307177
0.00310793
0.0031546
0.00323141
0.00337584
0.00356731
0.00375292
0.00393745
0.00416319
0.00443138
0.00471139
0.004993
0.00528526
0.00558936
0.00589721
0.00620295
0.00650425
0.00679857
0.00708255
0.00735315
0.00760792
0.00784472
0.00806173
0.00825742
0.00843058
0.00858027
0.00870579
0.0088066
0.00888232
0.00893261
0.00895716
0.0089556
0.00892744
0.00887195