/*--------------------------------*- C++ -*----------------------------------*\
| =========                 |                                                 |
| \\      /  F ield         | OpenFOAM: The Open Source CFD Toolbox           |
|  \\    /   O peration     | Version:  2512                                  |
|   \\  /    A nd           | Website:  www.openfoam.com                      |
|    \\/     M anipulation  |                                                 |
\*---------------------------------------------------------------------------*/
FoamFile
{
    version     2.0;
    format      ascii;
    arch        "LSB;label=32;scalar=64";
    class       surfaceScalarField;
    location    "5.5";
    object      phi;
}
// * * * * * * * * * * * * * * * * * * * * * * * * * * * * * * * * * * * * * //

dimensions      [0 3 -1 0 0 0 0];

oriented        oriented;

internalField   nonuniform List<scalar> 
26232
(
8.69112e-05
0.00117113
-0.00125804
0.000700984
0.00222419
-0.00283826
0.00209775
0.00205764
-0.00345441
0.00448795
0.000630877
-0.00302108
0.00806567
-0.0021088
-0.00146892
0.0130091
-0.0062064
0.00126297
0.0194629
-0.0116754
0.00522161
0.0275021
-0.0184713
0.0104321
0.0370935
-0.0264674
0.016876
0.0480587
-0.0354406
0.0244754
0.0600597
-0.0450745
0.0330736
0.0726167
-0.0549823
0.0424253
0.0851597
-0.0647468
0.0522038
0.0971068
-0.0739726
0.0620256
0.107953
-0.0823372
0.0714912
0.117349
-0.0896328
0.0802369
0.125149
-0.0957861
0.0879853
0.131416
-0.100851
0.0945846
0.136375
-0.104977
0.100018
0.140337
-0.10836
0.104398
0.143628
-0.11118
0.107889
0.146481
-0.113651
0.110797
0.14888
-0.11559
0.113191
-0.117835
0.115772
0.150943
0.000118644
0.00105249
0.000867823
0.00147501
0.00255775
0.000367711
0.00545136
-0.00226273
0.0097755
-0.00643294
0.0157016
-0.0121325
0.0233082
-0.0192819
0.0325371
-0.0277002
0.0431615
-0.0370919
0.0547825
-0.0470616
0.0668635
-0.0571555
0.0788008
-0.0669195
0.0900146
-0.0759607
0.100041
-0.0839988
0.108598
-0.0908947
0.115617
-0.0966514
0.121218
-0.101388
0.125659
-0.105292
0.129254
-0.108572
0.132311
-0.111417
0.135105
-0.113973
0.137811
-0.116357
0.140772
-0.118551
-0.121059
0.143996
0.000209111
0.000843377
0.0012252
0.000458913
0.00338439
-0.00179147
0.00696913
-0.00584747
0.0121923
-0.0116561
0.0191549
-0.0190951
0.0277969
-0.0279239
0.0378641
-0.0377674
0.048913
-0.0481407
0.0603625
-0.0585112
0.0715839
-0.0683769
0.0820055
-0.0773411
0.0912048
-0.08516
0.0989641
-0.0917581
0.105277
-0.097208
0.110311
-0.101685
0.114333
-0.10541
0.117644
-0.108602
0.120515
-0.111444
0.123167
-0.114069
0.125756
-0.116562
0.128391
-0.118991
0.131167
-0.121327
-0.123869
0.133977
0.000339367
0.00050401
0.00171451
-0.000916234
0.00445806
-0.00453502
0.00882992
-0.0102193
0.0149715
-0.0177977
0.0228463
-0.02697
0.0321994
-0.037277
0.0425633
-0.0481313
0.0533242
-0.0589016
0.0638308
-0.0690178
0.0735142
-0.0780603
0.0819813
-0.0858082
0.0890592
-0.0922379
0.0947831
-0.0974821
0.0993413
-0.101766
0.103
-0.105343
0.106033
-0.108443
0.10868
-0.111249
0.111125
-0.113889
0.113499
-0.116443
0.115897
-0.11896
0.11838
-0.121475
0.121028
-0.123975
-0.126669
0.123828
0.000492044
1.19654e-05
0.00227705
-0.00270124
0.0056541
-0.00791207
0.0108127
-0.015378
0.0177627
-0.0247477
0.0262758
-0.0354831
0.0358827
-0.0468838
0.0459452
-0.0581939
0.055785
-0.0687414
0.0648202
-0.078053
0.0726657
-0.0859058
0.0791702
-0.0923127
0.0843906
-0.0974582
0.088525
-0.101616
0.0918339
-0.105075
0.0945751
-0.108084
0.096965
-0.110833
0.0991659
-0.11345
0.101291
-0.116014
0.103417
-0.118568
0.105595
-0.121138
0.107857
-0.123737
0.110244
-0.126362
-0.12912
0.112695
0.000655049
-0.000643084
0.00286927
-0.00491546
0.00687062
-0.0119134
0.0127282
-0.0212355
0.0202672
-0.0322867
0.0290421
-0.0442579
0.0384017
-0.0562434
0.0476328
-0.067425
0.0561201
-0.0772288
0.0634606
-0.0853934
0.0695005
-0.0919457
0.0743014
-0.0971136
0.0780641
-0.101221
0.0810452
-0.104597
0.0834921
-0.107522
0.0856076
-0.1102
0.0875396
-0.112765
0.0893884
-0.115299
0.0912189
-0.117844
0.0930737
-0.120423
0.0949826
-0.123047
0.0969675
-0.125722
0.0990552
-0.128449
-0.131286
0.101221
0.000825254
-0.00146834
0.00345948
-0.00754969
0.00802292
-0.0164769
0.0144147
-0.0276273
0.0222431
-0.0401152
0.0308635
-0.0528783
0.0395245
-0.0649043
0.0475547
-0.0754552
0.0545027
-0.0841767
0.060185
-0.0910758
0.06465
-0.0964107
0.0680936
-0.100557
0.07077
-0.103897
0.0729225
-0.10675
0.0747481
-0.109348
0.0763878
-0.111839
0.0779345
-0.114312
0.0794468
-0.116811
0.080962
-0.11936
0.0825054
-0.121967
0.0840958
-0.124637
0.0857474
-0.127374
0.087476
-0.130178
-0.133068
0.0892586
0.000994981
-0.00246332
0.0040152
-0.0105699
0.00902991
-0.0214916
0.0157313
-0.0343286
0.0235124
-0.0478963
0.0315922
-0.0609581
0.0392246
-0.0725367
0.0458764
-0.082107
0.0513021
-0.0896025
0.0555144
-0.0952881
0.0586949
-0.0995912
0.061095
-0.102957
0.06296
-0.105762
0.0644884
-0.108278
0.0658209
-0.11068
0.0670487
-0.113067
0.0682277
-0.115491
0.0693919
-0.117976
0.070564
-0.120532
0.0717604
-0.123163
0.0729943
-0.125871
0.0742771
-0.128657
0.07562
-0.131521
-0.134462
0.0770136
0.00115608
-0.0036194
0.00450109
-0.0139149
0.00981469
-0.0268052
0.0165673
-0.0410813
0.0239767
-0.0553056
0.0312157
-0.0681972
0.0376378
-0.0789588
0.0428971
-0.0873663
0.0469412
-0.0936466
0.0499217
-0.0982685
0.0520838
-0.101753
0.0536785
-0.104552
0.0549122
-0.106996
0.055932
-0.109298
0.0568318
-0.11158
0.0576678
-0.113903
0.058473
-0.116296
0.0592682
-0.118771
0.060068
-0.121331
0.0608839
-0.123979
0.0617259
-0.126713
0.0626028
-0.129534
0.0635219
-0.13244
-0.13542
0.0644798
0.00129841
-0.00491781
0.00488121
-0.0174977
0.0103128
-0.0322368
0.0168564
-0.0476249
0.0236233
-0.0620725
0.0298314
-0.0744053
0.0349927
-0.0841201
0.0389505
-0.0913241
0.0418012
-0.0964973
0.043774
-0.100241
0.0451256
-0.103105
0.0460759
-0.105502
0.046784
-0.107704
0.0473521
-0.109866
0.0478402
-0.112068
0.0482821
-0.114345
0.048698
-0.116712
0.0491014
-0.119174
0.0495028
-0.121733
0.0499111
-0.124387
0.0503343
-0.127136
0.0507797
-0.129979
0.0512528
-0.132913
-0.135924
0.0517567
0.00141169
-0.0063295
0.00512536
-0.0212114
0.0104833
-0.0375948
0.0165836
-0.0537251
0.0225126
-0.0680015
0.0276029
-0.0794956
0.031545
-0.0880621
0.034342
-0.0941212
0.0361865
-0.0983418
0.0373351
-0.10139
0.0380241
-0.103794
0.0384308
-0.105909
0.0386709
-0.107944
0.0388121
-0.110007
0.0388918
-0.112148
0.0389307
-0.114384
0.0389417
-0.116723
0.0389343
-0.119167
0.0389165
-0.121715
0.0388953
-0.124366
0.0388771
-0.127118
0.0388671
-0.129969
0.0388684
-0.132914
-0.135941
0.0388858
0.00149034
-0.00781984
0.00521721
-0.0249382
0.0103157
-0.0426933
0.0157825
-0.059192
0.0207562
-0.0729752
0.0247232
-0.0834626
0.0275411
-0.09088
0.0293296
-0.0959097
0.0303297
-0.0993418
0.0307915
-0.101852
0.0309155
-0.103918
0.030837
-0.105831
0.0306365
-0.107744
0.0303579
-0.109729
0.0300242
-0.111814
0.0296484
-0.114008
0.0292395
-0.116314
0.0288045
-0.118732
0.0283499
-0.12126
0.0278816
-0.123898
0.027405
-0.126642
0.0269247
-0.129489
0.0264427
-0.132432
0.0259657
-0.135464
-0.0012091
0.000768104
0.000440997
-0.0039241
0.00172184
0.000993166
-0.00763216
0.00235386
0.0013542
-0.0120036
0.00278091
0.00159049
-0.0168222
0.00307336
0.00174527
-0.0219464
0.0032771
0.00184714
-0.0272755
0.00341722
0.00191183
-0.0327224
0.00350202
0.00194496
-0.0381966
0.00352841
0.00194578
-0.0435934
0.00348666
0.00191012
-0.0487894
0.00336363
0.00183235
-0.0536405
0.00314471
0.00170644
-0.0579819
0.00281487
0.00152651
-0.0616285
0.00235937
0.00128718
-0.0643769
0.00176454
0.000983876
-0.0660105
0.00102104
0.000612609
-0.066277
0.000106992
0.000159506
-0.0650419
-0.000916129
-0.000319022
-0.062071
-0.00210924
-0.000861628
-0.057186
-0.00343061
-0.00145443
-0.0502563
-0.00484848
-0.00208123
-0.0412138
-0.00631496
-0.0027275
-0.0300822
-0.00774757
-0.00338402
-0.00893914
-0.0171215
-0.00402161
-0.00109856
0.00186666
-0.00360063
0.00422391
-0.00704711
0.00580034
-0.0111298
0.00686363
-0.0156371
0.00758058
-0.0204227
0.00806278
-0.0253786
0.00837308
-0.0304106
0.00853406
-0.0354228
0.00854052
-0.0403069
0.00837082
-0.0449383
0.00799506
-0.0491735
0.00737984
-0.0528497
0.00649111
-0.0557867
0.00529633
-0.0577873
0.00376513
-0.058631
0.00186482
-0.0581298
-0.000394264
-0.0560999
-0.002946
-0.0523514
-0.0058578
-0.0467313
-0.00905066
-0.0391357
-0.0124441
-0.0295201
-0.0159305
-0.0179148
-0.0193529
-0.0223797
-0.00447427
-0.000845044
0.00271171
-0.00284875
0.00622761
-0.00567462
0.00862622
-0.00906742
0.0102564
-0.0128293
0.0113424
-0.0168072
0.0120407
-0.0208783
0.0124442
-0.0249347
0.0125904
-0.0288703
0.0124762
-0.032573
0.0120735
-0.0359189
0.011341
-0.0387709
0.0102318
-0.0409774
0.00869762
-0.0423732
0.0066921
-0.0427813
0.00417324
-0.0419863
0.00106979
-0.0399063
-0.00247429
-0.0362802
-0.00657207
-0.0309872
-0.0111508
-0.0239154
-0.0161224
-0.0150184
-0.0213411
-0.00430335
-0.0266456
0.00815968
-0.0318159
-0.0366311
0.0224111
-0.000504387
0.00321609
-0.00181516
0.00753839
-0.00375707
0.0105681
-0.0061523
0.0126517
-0.00883088
0.014021
-0.0116388
0.0148487
-0.0144397
0.0152451
-0.0171106
0.0152612
-0.0195356
0.0149012
-0.0216
0.0141379
-0.0231855
0.0129265
-0.0241674
0.0112138
-0.0244139
0.0089441
-0.0237856
0.00606385
-0.0221261
0.00251367
-0.0193552
-0.00170114
-0.0152402
-0.00658925
-0.00967308
-0.0121392
-0.0025554
-0.0182685
0.0061504
-0.0248282
0.0164499
-0.0316406
0.0282607
-0.0384564
0.0414073
-0.0449625
-0.0511665
0.0559427
-0.000147854
0.00336395
-0.000695646
0.00808618
-0.00162874
0.0115012
-0.00285773
0.0138807
-0.00425568
0.015419
-0.00568143
0.0162744
-0.00699518
0.0165589
-0.00806559
0.0163316
-0.00877133
0.0156069
-0.00899902
0.0143656
-0.00863994
0.0125674
-0.00758699
0.0101608
-0.0057325
0.00708961
-0.00296537
0.00329672
0.000809961
-0.00126166
0.00571747
-0.00660865
0.0118725
-0.0127442
0.0193516
-0.0196183
0.0281963
-0.0271132
0.038401
-0.0350329
0.0498716
-0.0431112
0.0624329
-0.0510177
0.0758397
-0.0583694
-0.0652577
0.0899309
0.000156979
0.00320697
0.000310208
0.00793295
0.000351953
0.0114595
0.000290224
0.0139424
0.00020002
0.0155092
0.0001939
0.0162805
0.000399684
0.0163531
0.000943975
0.0157874
0.0019446
0.0146063
0.0035086
0.0128016
0.00573371
0.0103423
0.00871118
0.00718334
0.0125299
0.00327092
0.0172761
-0.00144949
0.0230376
-0.00702314
0.0298981
-0.0134692
0.0379205
-0.0207666
0.0471287
-0.0288264
0.0574868
-0.0374714
0.0688781
-0.0464241
0.0811107
-0.0553438
0.0938854
-0.0637925
0.106943
-0.0714265
-0.0781715
0.119856
0.000362913
0.00284405
0.00104665
0.00724921
0.00188189
0.0106242
0.00282069
0.0130036
0.0038896
0.0144403
0.00516357
0.0150066
0.00674323
0.0147734
0.00873758
0.013793
0.0112525
0.0120913
0.0143862
0.00966795
0.0182286
0.00649987
0.0228648
0.00254717
0.0283828
-0.0022471
0.0348651
-0.00793185
0.0423824
-0.0145404
0.0509854
-0.0220722
0.0606774
-0.0304587
0.0713885
-0.0395376
0.0829578
-0.0490407
0.0951245
-0.0585908
0.107569
-0.0677883
0.119891
-0.0761145
0.13186
-0.0833954
-0.0892315
0.14292
0.000451923
0.00239213
0.00143571
0.00626542
0.00278444
0.00927551
0.00442959
0.0113584
0.00636573
0.0125041
0.00863361
0.0127387
0.0113043
0.0121027
0.0144648
0.0106325
0.0182084
0.00834772
0.0226299
0.00524637
0.0278197
0.00131015
0.0338899
-0.00352302
0.0409247
-0.00928196
0.0490024
-0.0160095
0.0581683
-0.0237062
0.0684021
-0.0323061
0.0795909
-0.0416475
0.0915099
-0.0514566
0.103828
-0.0613584
0.116136
-0.0708995
0.128021
-0.0796726
0.139092
-0.087186
0.14921
-0.0935129
-0.097968
0.157946
0.000434563
0.00195757
0.00148862
0.00521136
0.0030495
0.00771464
0.0050636
0.00934434
0.00751881
0.0100489
0.0104394
0.0098181
0.0138797
0.00866239
0.0179175
0.00659478
0.0226476
0.00361763
0.0281706
-0.000276652
0.03462
-0.00513922
0.0420864
-0.0109895
0.0506608
-0.0178563
0.0603748
-0.0257235
0.0711736
-0.034505
0.0828859
-0.0440183
0.0952113
-0.0539729
0.107737
-0.0639824
0.119985
-0.0736067
0.131492
-0.0824057
0.141875
-0.0900557
0.15093
-0.0962411
0.158674
-0.101257
-0.10434
0.165045
0.000343717
0.00161385
0.00129669
0.00425838
0.00283251
0.00617882
0.00494173
0.00723512
0.00763453
0.00735611
0.0109469
0.00650572
0.0149433
0.00466599
0.0197164
0.00182168
0.0253801
-0.00204602
0.0320656
-0.00696216
0.039877
-0.0129506
0.048895
-0.0200074
0.0591203
-0.0280817
0.0704431
-0.0370463
0.0826169
-0.0466789
0.0952592
-0.0566606
0.107882
-0.066596
0.119959
-0.0760592
0.131006
-0.0846541
0.140682
-0.0920816
0.148819
-0.0981927
0.155517
-0.102939
0.160945
-0.106684
-0.108833
0.165438
0.000225867
0.00138798
0.00100479
0.00347946
0.00240921
0.0047744
0.00449446
0.00514987
0.0073199
0.00453067
0.010963
0.00286266
0.0155217
0.000107293
0.0211221
-0.00377879
0.0278876
-0.00881148
0.0359234
-0.014998
0.0452741
-0.0223013
0.0558879
-0.0306213
0.0675814
-0.0397752
0.0800254
-0.0494903
0.092761
-0.0594144
0.105247
-0.0691467
0.116938
-0.0782868
0.127373
-0.0864942
0.136257
-0.0935386
0.14352
-0.099344
0.149287
-0.10396
0.153933
-0.107585
0.157705
-0.110456
-0.11234
0.161212
0.000129942
0.000771145
0.00209114
0.00421993
0.00728168
0.0114073
0.0167362
0.0233895
0.031454
0.0409314
0.0517037
0.0635076
0.0759363
0.0884715
0.100548
0.111638
0.121337
0.129427
0.135907
0.14096
0.144889
0.148102
0.150837
0.154269
0.00106685
-0.0120303
-0.00615802
0.0193256
-0.0114185
-0.00684021
0.0373616
-0.0106438
-0.00739225
0.0548244
-0.00967099
-0.0077918
0.0713725
-0.00851595
-0.00803214
0.0867486
-0.00724354
-0.0081326
0.1008
-0.0059253
-0.00812599
0.113456
-0.00460752
-0.00804851
0.124705
-0.00331776
-0.00793131
0.134581
-0.00207922
-0.00779641
0.143142
-0.000902862
-0.00765811
0.150485
0.000179033
-0.00752224
0.156731
0.00115641
-0.00740284
0.161984
0.00207109
-0.00732389
0.166364
0.00291303
-0.00729341
0.169994
0.00368237
-0.00731233
0.172997
0.00437212
-0.00737439
0.175472
0.00500647
-0.00748138
0.17752
0.0055794
-0.00762734
0.179224
0.00611071
-0.00781565
0.180653
0.00662382
-0.00805262
0.181856
0.00714053
-0.00834366
0.182871
0.00767591
-0.00869089
0.183726
0.0082382
-0.00909298
0.184442
0.00883046
-0.00954669
0.185038
0.00945337
-0.0100487
0.185527
0.0101077
-0.0105971
0.185923
0.0107954
-0.0111918
0.186238
0.0115196
-0.0118341
0.18648
0.0122849
-0.0125271
0.186658
0.0130966
-0.0132746
0.186779
0.0139609
-0.0140815
0.186848
0.0148845
-0.0149533
0.186869
0.0158745
-0.0158964
0.186848
0.0169391
-0.0169181
0.186788
0.0180866
-0.0180261
0.186691
0.0193264
-0.0192292
0.186559
0.0206686
-0.0205373
0.186396
0.0221245
-0.0219611
0.186202
0.0237062
-0.0235125
0.18598
0.0254274
-0.025205
0.18573
0.0273032
-0.0270534
0.185454
0.0293505
-0.0290744
0.185153
0.0315879
-0.0312866
0.184827
0.0340364
-0.0337106
0.184477
0.0367193
-0.0363698
0.184105
0.0396624
-0.0392897
0.18371
0.0428956
-0.0425004
0.183292
0.0464462
-0.0460288
0.182853
0.0503684
-0.0499291
0.182392
0.0546395
-0.0541791
0.181909
0.0594944
-0.059011
0.181408
0.0644459
-0.0639449
0.180878
0.0709075
-0.0703779
0.180339
0.075823
-0.0752837
0.179763
0.0855807
-0.0850051
0.179178
0.0890104
-0.0884245
0.178566
0.103342
-0.102731
0.177926
0.106261
-0.105621
0.123418
-0.122753
0.0122624
-0.028767
0.0290553
-0.0282115
0.0456919
-0.0272804
0.0618235
-0.0258026
0.0771198
-0.0238122
0.0913461
-0.0214699
0.104369
-0.0189485
0.116135
-0.0163731
0.126633
-0.0138159
0.135895
-0.0113416
0.14399
-0.00899777
0.150988
-0.00681873
0.156967
-0.00482241
0.162036
-0.0029983
0.166288
-0.00133857
0.169827
0.000143693
0.172785
0.00141328
0.175236
0.00255556
0.177275
0.0035408
0.178978
0.0044077
0.18041
0.00519139
0.181622
0.00592916
0.182649
0.00664892
0.183518
0.00736871
0.184251
0.00809788
0.184863
0.00884086
0.18537
0.00960083
0.185784
0.0103815
0.186116
0.0111877
0.186376
0.0120254
0.186571
0.0129013
0.186709
0.013823
0.186795
0.0147981
0.186835
0.015835
0.186832
0.0169421
0.186789
0.0181289
0.186711
0.0194051
0.186598
0.0207813
0.186453
0.022269
0.186279
0.0238808
0.186075
0.0256306
0.185845
0.0275337
0.185588
0.0296072
0.185306
0.03187
0.185
0.0343431
0.184669
0.03705
0.184315
0.0400165
0.183937
0.043273
0.183537
0.0468466
0.183113
0.050792
0.182667
0.0550855
0.182197
0.0599653
0.181706
0.0649367
0.181183
0.0714299
0.180648
0.0763582
0.180071
0.0861575
0.179482
0.0895999
0.178856
0.103969
0.178202
0.106915
0.124114
0.0360256
-0.0423816
0.0499105
-0.0420964
0.0637371
-0.0411069
0.0771684
-0.0392339
0.0899082
-0.036552
0.101758
-0.0333193
0.112614
-0.0298049
0.122451
-0.0262099
0.131282
-0.0226476
0.139141
-0.0191999
0.146077
-0.0159337
0.152149
-0.0128914
0.157423
-0.0100957
0.161973
-0.00754865
0.165883
-0.00524918
0.169217
-0.00318997
0.172001
-0.00137027
0.174342
0.000214529
0.176323
0.00155968
0.178001
0.00272913
0.179427
0.00376607
0.180644
0.00471209
0.181686
0.00560702
0.182576
0.00647792
0.183334
0.00733987
0.183975
0.00820039
0.184511
0.00906455
0.184955
0.00993743
0.185318
0.0108251
0.185609
0.0117347
0.185835
0.0126745
0.186005
0.0136531
0.186124
0.0146793
0.186197
0.0157624
0.186227
0.0169116
0.186219
0.018137
0.186175
0.0194489
0.186098
0.0208584
0.18599
0.0223772
0.185852
0.0240184
0.185687
0.0257961
0.185495
0.0277259
0.185277
0.029825
0.185034
0.0321125
0.184768
0.0346097
0.184477
0.0373402
0.184164
0.0403301
0.183827
0.0436098
0.183467
0.0472064
0.183084
0.0511755
0.182677
0.055492
0.182245
0.0603979
0.181791
0.0653906
0.181303
0.0719174
0.180801
0.076861
0.180252
0.086706
0.179689
0.0901624
0.179079
0.104579
0.178444
0.107551
0.124807
0.0654196
-0.0518584
0.0754646
-0.0521414
0.0856483
-0.0512906
0.0956259
-0.0492115
0.105153
-0.0460788
0.114072
-0.0422385
0.122297
-0.0380298
0.129803
-0.0337156
0.136618
-0.0294628
0.142772
-0.0253543
0.148299
-0.0214609
0.15324
-0.0178322
0.157636
-0.0144913
0.161528
-0.0114405
0.164949
-0.00867099
0.16794
-0.00618021
0.170541
-0.00397114
0.172782
-0.00202682
0.174652
-0.000310381
0.176295
0.00108649
0.177707
0.00235382
0.178929
0.00349028
0.179989
0.00454714
0.180907
0.00555972
0.181698
0.0065481
0.182377
0.00752195
0.182954
0.00848759
0.18344
0.00945094
0.183847
0.0104188
0.184182
0.0113995
0.184454
0.0124023
0.18467
0.013437
0.184836
0.0145134
0.184957
0.0156417
0.185036
0.016832
0.185078
0.018095
0.185086
0.0194415
0.185061
0.020883
0.185007
0.0224319
0.184924
0.0241013
0.184814
0.0259056
0.184679
0.0278608
0.18452
0.0299843
0.184337
0.0322954
0.184131
0.0348157
0.183903
0.0375688
0.183652
0.0405811
0.183378
0.0438831
0.183082
0.0475023
0.182763
0.0514947
0.182421
0.0558341
0.182053
0.0607664
0.181662
0.0657808
0.181237
0.0723425
0.180795
0.0773028
0.180305
0.0871968
0.179799
0.0906678
0.179237
0.105141
0.178652
0.108136
0.125463
0.0948535
-0.0567809
0.100573
-0.0578614
0.106703
-0.0574204
0.112917
-0.0554252
0.119039
-0.052201
0.124956
-0.0481552
0.130577
-0.0436507
0.135846
-0.0389846
0.140753
-0.0343703
0.145321
-0.0299223
0.149552
-0.0256912
0.153449
-0.0217295
0.157024
-0.0180665
0.16029
-0.0147061
0.163257
-0.011638
0.165931
-0.008854
0.168309
-0.00634983
0.170411
-0.00412892
0.172282
-0.00218144
0.173847
-0.000477755
0.175251
0.000949025
0.176482
0.0022599
0.177564
0.00346478
0.178516
0.00460752
0.17935
0.00571437
0.180076
0.00679593
0.180705
0.00785912
0.181245
0.00891026
0.181708
0.00995645
0.182101
0.0110066
0.182432
0.0120711
0.182708
0.0131605
0.182936
0.0142859
0.183119
0.015458
0.183263
0.016688
0.183371
0.0179871
0.183446
0.0193667
0.18349
0.0208387
0.183506
0.0224159
0.183496
0.0241117
0.183461
0.025941
0.183402
0.0279199
0.18332
0.030066
0.183216
0.032399
0.183092
0.0349405
0.182946
0.0377145
0.182779
0.0407476
0.182592
0.0440707
0.182383
0.047711
0.182152
0.0517255
0.181899
0.0560868
0.181621
0.061045
0.181321
0.0660809
0.180985
0.0726779
0.180633
0.0776552
0.180229
0.0876005
0.179812
0.0910855
0.179329
0.105623
0.178827
0.108638
0.126049
0.120575
-0.0574999
0.122113
-0.0593994
0.124266
-0.0595732
0.126819
-0.0579784
0.129697
-0.0550789
0.132829
-0.0512869
0.13611
-0.0469316
0.139444
-0.0423185
0.142762
-0.0376882
0.146025
-0.0331856
0.149214
-0.0288807
0.152292
-0.024807
0.15523
-0.0210043
0.158011
-0.0174877
0.160623
-0.0142499
0.163048
-0.011279
0.165269
-0.00857094
0.167275
-0.00613442
0.16907
-0.00397727
0.170686
-0.0020937
0.172056
-0.000420285
0.173308
0.00100778
0.174422
0.00235082
0.175416
0.00361349
0.1763
0.0048302
0.177083
0.00601286
0.177774
0.00716867
0.17838
0.00830403
0.17891
0.00942585
0.179374
0.0105434
0.179777
0.0116676
0.180128
0.0128101
0.180431
0.0139826
0.180692
0.0151969
0.180915
0.0164648
0.181104
0.017798
0.181262
0.0192087
0.181392
0.0207091
0.181495
0.0223124
0.181574
0.0240326
0.181631
0.0258846
0.181666
0.0278848
0.181681
0.0300512
0.181676
0.0324036
0.181653
0.034964
0.181611
0.0377567
0.18155
0.0408083
0.18147
0.0441501
0.181372
0.0478094
0.181253
0.0518443
0.181114
0.0562257
0.180951
0.0612086
0.180767
0.0662645
0.180549
0.0728963
0.180314
0.0778899
0.180026
0.0878881
0.179726
0.0913854
0.179355
0.105995
0.178968
0.109026
0.126529
0.140267
-0.0548469
0.138323
-0.0574553
0.137068
-0.0583183
0.136477
-0.0573876
0.136595
-0.0551963
0.137381
-0.0520733
0.138716
-0.0482669
0.140472
-0.0440747
0.142535
-0.0397509
0.144803
-0.0354537
0.1472
-0.0312775
0.149674
-0.0272806
0.15216
-0.0234907
0.154608
-0.0199356
0.156981
-0.0166224
0.159245
-0.0135431
0.161368
-0.0106947
0.163326
-0.00809215
0.165105
-0.00575609
0.166705
-0.00369367
0.168166
-0.00188125
0.16941
-0.000236776
0.170571
0.00119029
0.171618
0.00256616
0.172562
0.00388651
0.173412
0.00516326
0.174174
0.00640594
0.174857
0.00762125
0.175468
0.00881537
0.176013
0.00999749
0.176502
0.0111791
0.17694
0.0123724
0.177332
0.01359
0.177685
0.0148443
0.178002
0.0161477
0.178287
0.0175128
0.178544
0.0189521
0.178774
0.0204785
0.178981
0.0221053
0.179167
0.023847
0.179333
0.0257189
0.17948
0.0277376
0.17961
0.0299213
0.179723
0.0322903
0.17982
0.0348666
0.179902
0.0376749
0.179969
0.040742
0.180019
0.0440997
0.180053
0.0477752
0.18007
0.0518278
0.180069
0.0562266
0.180045
0.061232
0.180004
0.0663057
0.179929
0.0729712
0.17984
0.0779791
0.179697
0.0880307
0.179545
0.0915378
0.179316
0.106223
0.179076
0.109266
0.126872
0.152986
-0.0498864
0.148581
-0.0530509
0.14482
-0.0545573
0.141885
-0.0544519
0.139929
-0.0532402
0.138928
-0.0510723
0.13876
-0.048099
0.13929
-0.0446049
0.14038
-0.0408412
0.141895
-0.0369683
0.143713
-0.0330959
0.145739
-0.0293067
0.147904
-0.0256558
0.150131
-0.0221623
0.152356
-0.0188472
0.15453
-0.0157173
0.156611
-0.0127754
0.158562
-0.0100432
0.16036
-0.00755403
0.161996
-0.00533033
0.163478
-0.0033625
0.164846
-0.0016048
0.166024
1.24772e-05
0.167141
0.00144913
0.168154
0.0028728
0.16908
0.0042376
0.169925
0.00556083
0.170695
0.00685125
0.171397
0.00811385
0.172037
0.00935734
0.172622
0.0105935
0.17316
0.011835
0.173655
0.0130949
0.174113
0.0143866
0.174537
0.015723
0.174933
0.0171172
0.175303
0.0185823
0.17565
0.0201315
0.175976
0.0217788
0.176284
0.0235388
0.176576
0.0254272
0.176853
0.0274609
0.177115
0.0296586
0.177365
0.0320404
0.177603
0.0346291
0.177828
0.0374494
0.178042
0.0405284
0.178243
0.0438983
0.178432
0.0475863
0.178607
0.0516533
0.178767
0.0560659
0.178908
0.061091
0.179035
0.066179
0.17913
0.0728762
0.179214
0.0778954
0.179244
0.0880002
0.179269
0.0915134
0.179213
0.106279
0.179151
0.109328
0.127042
0.15893
-0.0437711
0.1532
-0.0473209
0.147951
-0.049308
0.143563
-0.050064
0.140258
-0.0499356
0.138022
-0.0488356
0.136763
-0.0468407
0.136374
-0.0442158
0.136718
-0.0411851
0.137648
-0.0378979
0.139024
-0.0344727
0.140725
-0.031007
0.142646
-0.0275771
0.144712
-0.024228
0.146842
-0.0209772
0.14897
-0.0178459
0.151044
-0.0148492
0.153019
-0.0120176
0.154861
-0.00939665
0.156557
-0.00702573
0.158106
-0.00491159
0.159523
-0.00302238
0.160829
-0.00129306
0.161998
0.000280281
0.163097
0.00177373
0.16411
0.00322412
0.165048
0.0046226
0.165916
0.00598331
0.16672
0.00731042
0.167465
0.0086118
0.168159
0.00989926
0.168809
0.0111859
0.169418
0.0124853
0.169994
0.0138113
0.170539
0.0151775
0.171059
0.0165976
0.171556
0.0180851
0.172034
0.0196538
0.172494
0.0213179
0.172941
0.0230925
0.173374
0.0249935
0.173797
0.0270383
0.17421
0.0292457
0.174614
0.0316364
0.17501
0.0342331
0.175398
0.037061
0.175779
0.0401476
0.176152
0.0435255
0.176517
0.0472216
0.176871
0.0512987
0.177216
0.0557209
0.177545
0.0607619
0.177865
0.0658598
0.178155
0.0725861
0.178438
0.0776119
0.178669
0.0877691
0.178899
0.0912837
0.179047
0.106131
0.179193
0.109182
0.127008
0.159192
-0.0375245
0.153079
-0.0412084
0.147236
-0.0434652
0.142179
-0.0450066
0.138138
-0.0458951
0.135126
-0.0458227
0.133124
-0.0448385
0.13207
-0.0431622
0.131849
-0.0409641
0.132322
-0.0383707
0.133347
-0.0354978
0.134788
-0.0324486
0.136522
-0.0293109
0.138449
-0.0261551
0.140501
-0.023029
0.142605
-0.0199497
0.144697
-0.0169411
0.146722
-0.0140434
0.148638
-0.0113126
0.150418
-0.00880545
0.152057
-0.0065505
0.153563
-0.00452868
0.154964
-0.00269335
0.156228
-0.000983818
0.15741
0.000591153
0.158526
0.00210813
0.15957
0.0035786
0.160548
0.00500602
0.161464
0.00639415
0.162325
0.0077502
0.163139
0.00908579
0.163911
0.0104142
0.164646
0.0117498
0.165351
0.0131067
0.166029
0.0144993
0.166685
0.0159415
0.167322
0.0174476
0.167945
0.0190317
0.168554
0.0207085
0.169153
0.0224934
0.169744
0.0244027
0.170328
0.026454
0.170907
0.0286665
0.171483
0.0310611
0.172055
0.033661
0.172624
0.0364917
0.173191
0.0395807
0.173755
0.0429615
0.174316
0.0466607
0.174872
0.0507429
0.175423
0.0551694
0.175963
0.060222
0.176499
0.0653242
0.177009
0.0720764
0.177518
0.0771027
0.177976
0.0873107
0.178439
0.0908209
0.17882
0.10575
0.179204
0.108799
0.126735
0.155503
-0.0318153
0.149518
-0.0352235
0.143609
-0.0375568
0.138373
-0.0397698
0.133977
-0.0414996
0.130504
-0.0423496
0.128016
-0.0423508
0.126488
-0.0416343
0.125837
-0.0403124
0.125945
-0.0384789
0.126679
-0.0362322
0.127903
-0.0336728
0.129489
-0.0308961
0.131323
-0.0279893
0.133316
-0.0250217
0.1354
-0.0220342
0.137517
-0.0190576
0.13961
-0.016137
0.141628
-0.0133303
0.143527
-0.0107047
0.14529
-0.00831294
0.146919
-0.00615789
0.148426
-0.00420084
0.149839
-0.0023961
0.151122
-0.00069199
0.152349
0.00088049
0.153514
0.00241419
0.154612
0.00390742
0.155653
0.0053537
0.156642
0.00676153
0.157585
0.00814221
0.15849
0.00950926
0.159362
0.0108774
0.160208
0.0122616
0.16103
0.0136766
0.161835
0.0151371
0.162625
0.0166575
0.163404
0.0182526
0.164175
0.0199374
0.164941
0.0217278
0.165703
0.0236403
0.166464
0.025693
0.167225
0.0279054
0.167988
0.0302986
0.168752
0.0328962
0.16952
0.035724
0.170291
0.0388098
0.171065
0.0421877
0.171841
0.0458841
0.172618
0.0499658
0.173397
0.0543905
0.17417
0.0594494
0.174945
0.0645492
0.175698
0.0713236
0.176457
0.076343
0.177169
0.0865995
0.177891
0.0900984
0.178534
0.105107
0.179184
0.10815
0.126194
0.149775
-0.027322
0.144271
-0.0297189
0.139013
-0.0322987
0.134149
-0.0349057
0.129775
-0.0371258
0.126102
-0.0386765
0.12326
-0.0395094
0.121297
-0.0396707
0.120178
-0.0391942
0.11983
-0.03813
0.120148
-0.0365506
0.121017
-0.0345422
0.122318
-0.0321972
0.123939
-0.0296102
0.125786
-0.0268687
0.127785
-0.0240326
0.129869
-0.0211415
0.131973
-0.0182419
0.134041
-0.015398
0.136026
-0.0126895
0.137898
-0.0101846
0.139649
-0.00790891
0.141288
-0.0058399
0.142821
-0.00392888
0.144271
-0.00214295
0.145599
-0.000446901
0.146894
0.00111872
0.148129
0.00267303
0.149308
0.00417491
0.150436
0.00563277
0.151522
0.00705622
0.152572
0.00845913
0.153593
0.00985678
0.15459
0.0112646
0.155569
0.0126981
0.156533
0.0141724
0.157488
0.0157027
0.158437
0.0173039
0.159382
0.0189918
0.160328
0.0207825
0.161275
0.0226929
0.162227
0.0247414
0.163184
0.0269479
0.164149
0.0293339
0.165122
0.0319231
0.166104
0.0347418
0.167096
0.0378181
0.168097
0.0411868
0.169107
0.0448737
0.170125
0.0489484
0.171151
0.0533645
0.172176
0.0584238
0.173212
0.0635135
0.17423
0.0703057
0.175264
0.0753088
0.176252
0.0856113
0.17726
0.0890908
0.178192
0.104174
0.179134
0.107208
0.125352
0.195771
-0.0228062
-0.200287
0.192151
-0.0260991
0.188503
-0.0286502
0.184644
-0.0310468
0.180656
-0.0331376
0.176698
-0.0347193
0.172898
-0.0357087
0.16933
-0.0361026
0.16606
-0.0359242
0.163142
-0.0352124
0.160614
-0.0340224
0.158492
-0.0324198
0.156771
-0.0304769
0.155432
-0.0282712
0.154441
-0.0258773
0.153759
-0.0233506
0.153348
-0.0207302
0.153167
-0.0180611
0.153177
-0.015408
0.153337
-0.0128492
0.153605
-0.0104526
0.153944
-0.00824805
0.154324
-0.0062202
0.154723
-0.00432832
0.155127
-0.00254642
0.15555
-0.000870333
0.155926
0.000742756
0.156297
0.00230204
0.156655
0.00381713
0.156999
0.00528903
0.157327
0.00672835
0.157638
0.00814819
0.157931
0.00956297
0.158209
0.0109876
0.15847
0.0124371
0.158715
0.0139265
0.158947
0.0154707
0.159167
0.0170847
0.159374
0.0187841
0.159572
0.0205851
0.15976
0.0225046
0.15994
0.024561
0.160114
0.0267742
0.160282
0.0291659
0.160445
0.0317597
0.160605
0.034582
0.160763
0.0376608
0.160918
0.0410312
0.161073
0.044719
0.161228
0.0487936
0.161383
0.0532095
0.16154
0.0582665
0.161697
0.063357
0.161859
0.0701438
0.162019
0.0751486
0.162179
0.0854513
0.162353
0.088917
0.162496
0.10403
0.162677
0.107027
0.125216
0.204993
-0.0194254
-0.208373
0.201519
-0.0226251
0.198084
-0.0252154
0.194491
-0.0274539
0.190771
-0.0294176
0.187054
-0.0310027
0.18345
-0.0321046
0.180032
-0.0326839
0.176858
-0.0327504
0.173981
-0.0323354
0.171438
-0.0314801
0.169251
-0.0302329
0.167424
-0.0286489
0.165943
-0.0267912
0.164789
-0.0247232
0.163934
-0.0224953
0.163348
-0.0201443
0.163
-0.0177133
0.162858
-0.0152653
0.162884
-0.0128758
0.163041
-0.0106097
0.163291
-0.00849813
0.163603
-0.00653184
0.163955
-0.00468068
0.164331
-0.00292189
0.164704
-0.00124401
0.165076
0.00037141
0.165441
0.00193706
0.165798
0.00346006
0.166144
0.00494334
0.166475
0.00639641
0.166792
0.00783141
0.167093
0.00926192
0.167379
0.0107023
0.167649
0.0121671
0.167904
0.0136709
0.168147
0.0152285
0.168376
0.0168549
0.168595
0.0185655
0.168804
0.0203764
0.169003
0.0223048
0.169196
0.0243688
0.169381
0.0265885
0.169562
0.0289855
0.169738
0.0315836
0.169911
0.0344091
0.170082
0.0374901
0.170251
0.0408617
0.17042
0.0445499
0.17059
0.048624
0.17076
0.0530391
0.170933
0.0580935
0.171107
0.0631836
0.171284
0.0699659
0.171463
0.0749697
0.171639
0.0852755
0.171832
0.0887238
0.171993
0.10387
0.172191
0.106829