/*--------------------------------*- C++ -*----------------------------------*\
| =========                 |                                                 |
| \\      /  F ield         | OpenFOAM: The Open Source CFD Toolbox           |
|  \\    /   O peration     | Version:  2512                                  |
|   \\  /    A nd           | Website:  www.openfoam.com                      |
|    \\/     M anipulation  |                                                 |
\*---------------------------------------------------------------------------*/
FoamFile
{
    version     2.0;
    format      ascii;
    arch        "LSB;label=32;scalar=64";
    class       volScalarField;
    location    "28";
    object      p;
}
// * * * * * * * * * * * * * * * * * * * * * * * * * * * * * * * * * * * * * //

dimensions      [0 2 -2 0 0 0 0];

internalField   nonuniform List<scalar> 
13248
(
-0.294908
-0.293374
-0.291302
-0.288861
-0.286246
-0.283643
-0.281194
-0.278974
-0.27701
-0.275284
-0.273741
-0.272297
-0.270848
-0.269284
-0.267495
-0.265384
-0.262876
-0.25992
-0.256489
-0.252615
-0.248237
-0.243588
-0.238051
-0.23264
-0.301839
-0.29969
-0.297002
-0.293953
-0.290737
-0.287566
-0.284568
-0.281805
-0.279278
-0.276936
-0.274691
-0.272431
-0.270039
-0.267403
-0.264431
-0.261057
-0.257247
-0.252997
-0.248325
-0.243268
-0.237851
-0.232142
-0.226004
-0.220121
-0.310178
-0.307232
-0.303813
-0.300092
-0.29624
-0.292459
-0.288863
-0.285476
-0.282256
-0.279111
-0.275925
-0.272579
-0.268965
-0.265006
-0.260657
-0.255913
-0.250795
-0.245351
-0.239635
-0.233712
-0.227605
-0.221401
-0.215001
-0.20887
-0.320093
-0.316159
-0.311899
-0.307445
-0.302904
-0.298449
-0.29415
-0.289976
-0.285831
-0.281597
-0.277153
-0.272406
-0.267304
-0.261834
-0.256023
-0.24993
-0.243625
-0.237184
-0.230669
-0.224132
-0.217595
-0.211115
-0.204604
-0.198537
-0.331676
-0.326577
-0.321376
-0.316126
-0.310822
-0.305576
-0.300389
-0.295165
-0.289774
-0.284098
-0.278063
-0.27165
-0.26489
-0.257854
-0.250635
-0.24333
-0.236026
-0.22879
-0.221665
-0.214678
-0.207834
-0.201155
-0.194586
-0.188459
-0.344928
-0.338516
-0.332297
-0.326186
-0.320006
-0.313772
-0.307406
-0.300766
-0.293727
-0.286237
-0.278319
-0.270062
-0.261591
-0.253042
-0.244542
-0.236189
-0.22805
-0.220165
-0.212547
-0.205196
-0.198103
-0.191261
-0.184628
-0.178442
-0.359731
-0.351909
-0.344619
-0.337564
-0.330325
-0.3228
-0.314849
-0.306339
-0.297229
-0.287595
-0.277599
-0.26744
-0.257312
-0.247376
-0.237749
-0.2285
-0.21966
-0.211232
-0.203202
-0.195548
-0.188243
-0.181263
-0.17458
-0.168321
-0.375812
-0.366548
-0.35815
-0.350021
-0.341447
-0.332209
-0.322176
-0.311316
-0.29976
-0.287761
-0.27562
-0.263613
-0.251954
-0.240786
-0.230182
-0.220167
-0.210729
-0.20184
-0.193461
-0.185551
-0.178071
-0.170985
-0.16427
-0.157955
-0.392707
-0.382036
-0.372495
-0.363097
-0.352801
-0.341338
-0.328697
-0.315068
-0.300817
-0.286379
-0.272155
-0.25844
-0.24542
-0.233182
-0.221742
-0.211076
-0.201134
-0.191859
-0.183193
-0.17508
-0.167468
-0.160316
-0.153595
-0.147251
-0.409729
-0.397751
-0.38701
-0.376056
-0.363563
-0.349337
-0.333638
-0.31697
-0.299951
-0.283157
-0.267017
-0.251791
-0.237596
-0.224447
-0.212304
-0.201095
-0.190739
-0.181156
-0.17227
-0.164012
-0.156321
-0.149148
-0.142446
-0.136109
-0.425971
-0.412824
-0.400776
-0.387896
-0.372691
-0.355224
-0.336165
-0.316375
-0.296684
-0.277728
-0.259902
-0.243383
-0.228201
-0.214301
-0.201586
-0.189947
-0.179278
-0.169476
-0.160453
-0.152126
-0.144426
-0.137294
-0.130651
-0.124385
-0.440379
-0.42625
-0.412763
-0.397539
-0.379115
-0.358011
-0.335412
-0.312535
-0.290347
-0.269471
-0.250206
-0.232621
-0.216653
-0.202176
-0.189046
-0.177119
-0.166264
-0.156364
-0.147313
-0.139021
-0.131412
-0.124415
-0.117922
-0.111864
-0.251601
-0.253569
-0.25484
-0.255716
-0.256467
-0.257161
-0.257829
-0.258494
-0.259163
-0.259836
-0.260507
-0.261167
-0.261807
-0.262418
-0.262988
-0.263511
-0.263977
-0.264382
-0.264724
-0.26501
-0.265248
-0.265456
-0.26569
-0.26606
-0.253363
-0.255184
-0.256372
-0.257206
-0.257936
-0.25863
-0.259318
-0.26002
-0.260745
-0.261492
-0.262254
-0.263022
-0.263786
-0.264535
-0.265257
-0.265938
-0.266568
-0.267132
-0.267623
-0.268036
-0.26837
-0.268617
-0.268818
-0.269205
-0.255821
-0.257404
-0.25845
-0.259199
-0.259872
-0.260533
-0.261209
-0.261922
-0.262677
-0.263472
-0.264301
-0.265154
-0.266018
-0.266881
-0.267726
-0.268537
-0.269293
-0.269973
-0.270555
-0.271023
-0.271361
-0.271525
-0.271513
-0.271772
-0.258814
-0.260092
-0.260945
-0.261568
-0.262144
-0.26273
-0.263355
-0.264038
-0.264784
-0.265591
-0.266449
-0.267348
-0.268274
-0.269211
-0.27014
-0.271039
-0.271878
-0.272626
-0.273247
-0.273708
-0.273979
-0.273985
-0.273614
-0.273394
-0.262159
-0.263096
-0.263721
-0.264176
-0.264607
-0.265069
-0.265591
-0.266192
-0.266876
-0.26764
-0.268475
-0.269368
-0.270304
-0.271264
-0.272226
-0.27316
-0.274034
-0.274805
-0.275422
-0.275833
-0.275989
-0.2758
-0.275047
-0.274163
-0.265685
-0.266279
-0.266649
-0.266895
-0.26713
-0.267409
-0.267766
-0.268219
-0.268776
-0.269433
-0.27018
-0.271004
-0.271887
-0.272808
-0.273741
-0.274653
-0.275503
-0.276244
-0.276813
-0.277141
-0.277156
-0.276754
-0.275702
-0.273851
-0.269264
-0.269539
-0.26964
-0.269636
-0.269619
-0.26965
-0.26977
-0.270003
-0.270359
-0.270837
-0.271426
-0.272112
-0.272875
-0.273691
-0.274528
-0.275351
-0.276113
-0.276758
-0.277218
-0.27741
-0.277247
-0.276572
-0.275493
-0.272349
-0.272842
-0.272837
-0.272657
-0.27236
-0.272035
-0.27175
-0.271561
-0.2715
-0.271582
-0.271809
-0.272172
-0.272654
-0.273234
-0.273881
-0.27456
-0.275228
-0.275831
-0.276306
-0.276577
-0.27655
-0.276179
-0.275079
-0.274233
-0.269921
-0.276454
-0.2762
-0.275729
-0.275098
-0.274405
-0.27374
-0.273174
-0.272751
-0.272495
-0.27241
-0.27249
-0.272714
-0.273056
-0.273479
-0.27394
-0.274383
-0.274748
-0.274961
-0.274949
-0.274593
-0.273971
-0.272362
-0.271703
-0.266869
-0.280228
-0.27974
-0.278951
-0.27794
-0.276826
-0.275726
-0.274728
-0.273891
-0.273247
-0.272805
-0.272556
-0.272476
-0.272528
-0.272664
-0.272826
-0.272946
-0.27295
-0.27276
-0.272312
-0.271487
-0.270469
-0.268467
-0.267644
-0.263045
-0.284378
-0.283631
-0.282481
-0.281038
-0.279452
-0.277868
-0.276395
-0.275105
-0.274035
-0.273196
-0.272573
-0.272131
-0.271818
-0.271567
-0.2713
-0.270933
-0.270379
-0.269559
-0.268416
-0.266893
-0.26514
-0.262787
-0.261357
-0.257423
-0.289178
-0.288098
-0.286521
-0.28459
-0.282486
-0.28038
-0.278402
-0.276632
-0.275109
-0.273837
-0.272785
-0.271902
-0.27111
-0.270319
-0.26943
-0.268344
-0.266969
-0.265231
-0.263075
-0.260509
-0.257538
-0.254315
-0.251401
-0.248134
-0.266697
-0.267302
-0.267968
-0.268652
-0.269324
-0.269943
-0.27044
-0.270724
-0.27067
-0.270114
-0.268856
-0.266651
-0.263195
-0.258127
-0.251035
-0.241484
-0.22904
-0.213643
-0.195149
-0.173658
-0.149345
-0.123168
-0.0959687
-0.0688314
-0.0429429
-0.0191942
0.00127109
0.01809
0.031197
0.0404755
0.0465151
0.04978
0.0508072
0.0501359
0.0482499
0.0455645
0.0424012
0.0390082
0.035584
0.0322465
0.0290719
0.0261215
0.0233995
0.0209162
0.0186398
0.0165783
0.0146987
0.0129911
0.0114355
0.0100231
0.0087365
0.00757511
0.00650865
0.00553744
0.00460916
0.003747
0.00288018
0.00208101
0.00122697
0.000465645
-0.270176
-0.270648
-0.271093
-0.27146
-0.271696
-0.271749
-0.271545
-0.270989
-0.269962
-0.26832
-0.265888
-0.262459
-0.257787
-0.251591
-0.243562
-0.233382
-0.220774
-0.205603
-0.187823
-0.167266
-0.144315
-0.12009
-0.0948861
-0.0695562
-0.0451651
-0.0223322
-0.0025797
0.0140673
0.0272784
0.0372262
0.0439193
0.0478058
0.0493941
0.0491991
0.0476963
0.045307
0.0423617
0.0391235
0.0357892
0.0324985
0.0293289
0.0263618
0.0236071
0.0211012
0.0187822
0.016689
0.0147785
0.0130514
0.0114781
0.0100573
0.00876196
0.00759952
0.00653007
0.00556021
0.00462928
0.00376622
0.0028958
0.00209323
0.00123527
0.000468702
-0.273425
-0.273727
-0.273954
-0.274054
-0.273933
-0.273529
-0.272764
-0.271543
-0.269755
-0.267271
-0.263941
-0.259593
-0.25403
-0.247036
-0.238385
-0.22785
-0.215238
-0.200443
-0.183458
-0.164325
-0.143422
-0.120582
-0.0969744
-0.0728862
-0.0498105
-0.0282366
-0.00830791
0.00877887
0.0226176
0.033218
0.0406419
0.0452303
0.0474457
0.047785
0.0467179
0.0446732
0.0419942
0.0389563
0.03576
0.0325583
0.0294362
0.0264818
0.0237323
0.0212043
0.0188634
0.0167527
0.01482
0.0130801
0.0114945
0.0100693
0.00876829
0.00760754
0.00653742
0.00557155
0.00464023
0.0037787
0.00290653
0.00210226
0.00124184
0.000470457
-0.276336
-0.276229
-0.276223
-0.276098
-0.275703
-0.274947
-0.273756
-0.272041
-0.269704
-0.266634
-0.262702
-0.257765
-0.251667
-0.244245
-0.23533
-0.22476
-0.21239
-0.198124
-0.181955
-0.163992
-0.144272
-0.123151
-0.101003
-0.0782981
-0.0558467
-0.0345364
-0.0147575
0.00266148
0.0171624
0.0285183
0.0367271
0.0420609
0.0449469
0.0458694
0.0452906
0.0436405
0.0412773
0.0384859
0.0354741
0.0324039
0.0293717
0.0264674
0.0237311
0.0212101
0.0188691
0.0167651
0.0148218
0.0130771
0.0114857
0.0100604
0.00875676
0.00759988
0.00653131
0.0055715
0.00464204
0.00378419
0.00291223
0.00210792
0.00124659
0.000470865
-0.278076
-0.278192
-0.277779
-0.277359
-0.276787
-0.275769
-0.274256
-0.272188
-0.269481
-0.266035
-0.261745
-0.256494
-0.250159
-0.242612
-0.233725
-0.223374
-0.211442
-0.197858
-0.182619
-0.16574
-0.147284
-0.127416
-0.106437
-0.0847555
-0.0629897
-0.0418363
-0.0219284
-0.00407443
0.0110859
0.0231979
0.0321918
0.0382841
0.0418718
0.0434212
0.0433871
0.042188
0.0401943
0.0376992
0.0349198
0.0320251
0.0291219
0.0263083
0.0236239
0.0211262
0.0187977
0.0167214
0.0147826
0.0130418
0.0114524
0.0100313
0.00872876
0.00757758
0.00651264
0.00556037
0.00463488
0.00378252
0.00291275
0.00210999
0.00124936
0.000469906
-0.278863
-0.27945
-0.278577
-0.277914
-0.277065
-0.275854
-0.274116
-0.27181
-0.268869
-0.265206
-0.260732
-0.255355
-0.248978
-0.241498
-0.232816
-0.222833
-0.211464
-0.198639
-0.184321
-0.168482
-0.15114
-0.132395
-0.112438
-0.0915943
-0.0703713
-0.049406
-0.0294025
-0.011183
0.00454744
0.0173486
0.02709
0.0339348
0.038244
0.0404595
0.0410236
0.0403327
0.0387616
0.0366118
0.0341099
0.0314316
0.0286948
0.0260035
0.0234086
0.0209462
0.018721
0.0166231
0.0147015
0.0129749
0.011396
0.0099837
0.00868615
0.00754223
0.00648286
0.00553895
0.00461926
0.00377376
0.00290809
0.00210835
0.00125005
0.000467648
-0.278411
-0.279655
-0.278376
-0.277251
-0.276341
-0.275064
-0.273206
-0.27076
-0.267693
-0.26393
-0.259396
-0.254022
-0.247732
-0.240444
-0.232075
-0.222543
-0.211771
-0.199691
-0.186246
-0.171382
-0.155067
-0.137337
-0.118309
-0.0982397
-0.0775565
-0.05686
-0.0368781
-0.0184371
-0.00227643
0.0111092
0.0215359
0.0291119
0.0341499
0.0370615
0.0382635
0.0381288
0.0370256
0.035263
0.0330766
0.0306496
0.0281106
0.0255692
0.0230867
0.0207133
0.0185075
0.0164778
0.014581
0.0128785
0.0113187
0.00991959
0.00863098
0.00749579
0.00644365
0.00550846
0.004596
0.0037583
0.0028984
0.00210303
0.0012486
0.000464255
-0.276416
-0.278202
-0.276776
-0.275461
-0.274416
-0.273104
-0.271249
-0.268809
-0.265742
-0.261993
-0.257508
-0.252236
-0.246121
-0.239099
-0.231095
-0.222039
-0.211859
-0.200481
-0.187829
-0.173839
-0.158464
-0.141683
-0.123556
-0.104273
-0.0842025
-0.0639087
-0.0441147
-0.02563
-0.00919891
0.00465139
0.0156884
0.0239606
0.0297203
0.0333387
0.035202
0.0356574
0.035053
0.033706
0.0318623
0.0297131
0.027396
0.025027
0.0226767
0.0204101
0.0182541
0.0162734
0.0144181
0.0127547
0.0112229
0.00984097
0.00856506
0.00744005
0.0063966
0.00547021
0.00456604
0.00373672
0.002884
0.00209417
0.00124504
0.000459978
-0.272784
-0.274424
-0.273218
-0.272244
-0.271297
-0.269641
-0.267863
-0.26564
-0.262761
-0.259171
-0.254852
-0.249777
-0.243912
-0.237206
-0.229595
-0.221015
-0.211399
-0.200672
-0.18875
-0.175547
-0.161
-0.145097
-0.127866
-0.109425
-0.0900774
-0.0703417
-0.0509121
-0.0325615
-0.0160176
-0.00182643
0.00973297
0.0186464
0.0250977
0.0294068
0.0319318
0.0330004
0.0329179
0.0320033
0.0305169
0.0286604
0.0265802
0.024399
0.022196
0.020045
0.017983
0.0160435
0.0142122
0.0126045
0.0111113
0.00974977
0.00848976
0.00737643
0.00634295
0.00542545
0.00453028
0.00370977
0.00286531
0.0020821
0.00123946
0.000455144
-0.267327
-0.268015
-0.267426
-0.267097
-0.26639
-0.26505
-0.262846
-0.260724
-0.258181
-0.254961
-0.251
-0.24628
-0.24079
-0.234488
-0.227319
-0.219235
-0.210175
-0.200067
-0.188826
-0.176362
-0.162602
-0.147517
-0.131148
-0.113605
-0.0951065
-0.0760983
-0.0572156
-0.0391732
-0.0226687
-0.00825962
0.00372997
0.0132213
0.0203268
0.025304
0.0284759
0.030171
0.030646
0.0301928
0.0290816
0.02753
0.0256963
0.0237118
0.0216649
0.0196365
0.0176689
0.0157706
0.0140666
0.0124302
0.0109844
0.00964753
0.00840633
0.00730635
0.0062839
0.00537551
0.00448979
0.00367835
0.00284288
0.00206723
0.00123205
0.000450196
-0.259352
-0.259591
-0.260097
-0.260278
-0.259845
-0.259157
-0.257962
-0.255524
-0.252876
-0.249966
-0.246405
-0.242106
-0.237065
-0.231224
-0.224531
-0.216954
-0.208447
-0.198944
-0.188365
-0.176625
-0.163651
-0.149403
-0.133906
-0.11728
-0.0997256
-0.081589
-0.0634077
-0.0458099
-0.0294486
-0.0148899
-0.00250652
0.00755136
0.01532
0.0209848
0.0248187
0.0271236
0.0281778
0.0282285
0.0275308
0.0263129
0.0247465
0.0229745
0.0210955
0.0191984
0.017328
0.015523
0.0138421
0.0122198
0.0108357
0.00953373
0.00831621
0.00723136
0.00622084
0.00532147
0.00444531
0.00364297
0.00281686
0.00204975
0.00122279
0.000445658
-0.249362
-0.250582
-0.251324
-0.250977
-0.250502
-0.250212
-0.249582
-0.248224
-0.245807
-0.243034
-0.239875
-0.236142
-0.231741
-0.226545
-0.220487
-0.213544
-0.205683
-0.196848
-0.18697
-0.175976
-0.163797
-0.150395
-0.135776
-0.120027
-0.103331
-0.0860123
-0.0685486
-0.0514762
-0.0353763
-0.0208073
-0.00817533
0.00230818
0.0106143
0.016863
0.0212771
0.0241223
0.0256606
0.0261595
0.0258572
0.0249736
0.0236842
0.0221384
0.0204421
0.0186907
0.0169346
0.0152295
0.0136194
0.0121603
0.0106977
0.00940501
0.00821466
0.00714552
0.0061492
0.0052594
0.00439377
0.00360159
0.0027856
0.0020287
0.00121074
0.000441732
-0.238127
-0.243681
-0.244004
-0.242991
-0.242481
-0.242393
-0.242108
-0.24125
-0.23968
-0.237008
-0.233574
-0.229867
-0.225681
-0.220761
-0.215009
-0.208394
-0.200885
-0.192432
-0.182971
-0.172433
-0.160759
-0.147913
-0.133905
-0.118824
-0.10285
-0.0862833
-0.0695465
-0.0531479
-0.0376273
-0.0234957
-0.0111344
-0.000757609
0.00758792
0.0139884
0.0186327
0.0217593
0.0236099
0.0244152
0.0243953
0.0237619
0.0226888
0.0213255
0.0197809
0.0181536
0.0164988
0.0148779
0.013332
0.0118956
0.0105029
0.00924973
0.00808556
0.00703652
0.00605906
0.00518521
0.00433424
0.00355572
0.00275149
0.0020058
0.0011969
0.000438005
-0.226101
-0.234082
-0.234883
-0.233336
-0.232392
-0.232204
-0.231975
-0.23112
-0.229415
-0.227041
-0.224357
-0.221104
-0.217197
-0.21257
-0.207148
-0.200885
-0.193746
-0.185687
-0.176654
-0.166589
-0.155446
-0.143205
-0.12989
-0.115592
-0.10049
-0.0848586
-0.0690774
-0.0536036
-0.0389144
-0.0254589
-0.013585
-0.00350091
0.00472993
0.011163
0.0159481
0.0192853
0.0213833
0.0224501
0.0226906
0.0223045
0.0214572
0.0202949
0.0189252
0.0174475
0.0159195
0.014406
0.0129436
0.0115678
0.010242
0.00903954
0.00791509
0.00689886
0.00594618
0.00509219
0.00425903
0.00349545
0.00270668
0.00197337
0.00117815
0.000430389
-0.213642
-0.22278
-0.22424
-0.222647
-0.221464
-0.221222
-0.221131
-0.220511
-0.219166
-0.217258
-0.214836
-0.211816
-0.208136
-0.20377
-0.198657
-0.19274
-0.18598
-0.178335
-0.169759
-0.160206
-0.149645
-0.138068
-0.125507
-0.112055
-0.0978794
-0.083228
-0.0684371
-0.0539079
-0.0400603
-0.0272918
-0.0159225
-0.00615638
0.001927
0.00835541
0.0132421
0.0167522
0.0190673
0.020377
0.0208684
0.0207272
0.0201087
0.0191546
0.0179694
0.0166529
0.0152634
0.0138691
0.012502
0.0112036
0.00995002
0.00880058
0.00771956
0.00673835
0.00581426
0.00498231
0.00416972
0.00342287
0.00265238
0.00193346
0.00115524
0.000420569
-0.201292
-0.210641
-0.212758
-0.211532
-0.210392
-0.210169
-0.210234
-0.209886
-0.208874
-0.207232
-0.20501
-0.202215
-0.198804
-0.194734
-0.18995
-0.184399
-0.178037
-0.170829
-0.162736
-0.153724
-0.143772
-0.132882
-0.121094
-0.108495
-0.0952406
-0.0815544
-0.0677317
-0.0541234
-0.0410995
-0.0290129
-0.018156
-0.00872643
-0.000815511
0.00558048
0.0105424
0.0142042
0.016722
0.0182649
0.019001
0.0191015
0.018711
0.0179663
0.0169682
0.0158162
0.0145691
0.0132971
0.0120302
0.0108145
0.009635
0.00854153
0.00750688
0.00656304
0.00567017
0.00486229
0.00407217
0.00334372
0.00259298
0.00188993
0.00113034
0.000409958
-0.188787
-0.198153
-0.200894
-0.200193
-0.199261
-0.199111
-0.199304
-0.199175
-0.198411
-0.196993
-0.194995
-0.192453
-0.189329
-0.18557
-0.181125
-0.175946
-0.169994
-0.163236
-0.155641
-0.147185
-0.137855
-0.127661
-0.116644
-0.10489
-0.0925414
-0.0797979
-0.0669187
-0.0542097
-0.0419958
-0.030589
-0.0202547
-0.0111817
-0.00347022
0.00286349
0.0078724
0.0116622
0.0143635
0.0161245
0.0170944
0.0174295
0.0172639
0.0167279
0.0159185
0.0149337
0.0138328
0.0126864
0.0115246
0.0103961
0.00929265
0.0082593
0.00727506
0.00637198
0.00551312
0.00473187
0.00396625
0.00325801
0.00252853
0.00184283
0.00110337
0.000398554
-0.176371
-0.185697
-0.188915
-0.188723
-0.188068
-0.188033
-0.188339
-0.18839
-0.187849
-0.186671
-0.184921
-0.18264
-0.179803
-0.176356
-0.172253
-0.16745
-0.161913
-0.155613
-0.148526
-0.140634
-0.131931
-0.122432
-0.112181
-0.10126
-0.0897972
-0.0779704
-0.0660065
-0.0541713
-0.0427486
-0.032014
-0.0222071
-0.0135071
-0.00601961
0.000222899
0.00524974
0.00914073
0.0120026
0.0139627
0.0151523
0.0157126
0.0157667
0.0154373
0.0148171
0.0140018
0.0130503
0.0120333
0.0109816
0.00994491
0.00892078
0.00795238
0.00702237
0.00616346
0.00534151
0.00458964
0.00385074
0.00316473
0.00245824
0.00179153
0.00107391
0.000386277
-0.164408
-0.173445
-0.176959
-0.177216
-0.176865
-0.17698
-0.177402
-0.177616
-0.17729
-0.176355
-0.174857
-0.172838
-0.170282
-0.167148
-0.163388
-0.158964
-0.153846
-0.148009
-0.141434
-0.134109
-0.126033
-0.117226
-0.107731
-0.097624
-0.0870214
-0.0760805
-0.064999
-0.0540074
-0.0433533
-0.0332795
-0.0240019
-0.0156887
-0.00844796
-0.00232466
0.00269062
0.0066548
0.00965232
0.0117911
0.0131844
0.0139585
0.0142249
0.0140985
0.0136666
0.0130219
0.0122223
0.0113381
0.0104004
0.00946006
0.00851921
0.00761997
0.00674785
0.00593637
0.00515435
0.00443469
0.00372491
0.00306332
0.00238167
0.00173576
0.00104181
0.000373201
-0.152865
-0.161458
-0.165151
-0.165796
-0.165742
-0.166024
-0.166566
-0.166931
-0.166806
-0.166103
-0.164851
-0.163089
-0.160813
-0.157988
-0.154572
-0.150528
-0.14583
-0.140457
-0.134395
-0.127635
-0.120183
-0.112057
-0.103301
-0.0939861
-0.0842149
-0.0741262
-0.0638923
-0.053713
-0.0438037
-0.0343779
-0.0256293
-0.0177144
-0.0107412
-0.00476378
0.000210833
0.00421972
0.00732715
0.00962236
0.0112015
0.0121761
0.0126458
0.0127167
0.0124706
0.0119963
0.0113501
0.0106012
0.00978108
0.00894129
0.00808739
0.00726104
0.00645042
0.00568978
0.00495082
0.00426634
0.00358822
0.00295335
0.00229857
0.00167537
0.00100698
0.000359387
-0.14171
-0.149846
-0.153627
-0.154584
-0.154796
-0.155238
-0.155895
-0.156396
-0.156452
-0.155963
-0.154948
-0.153439
-0.151438
-0.148918
-0.145841
-0.142174
-0.137894
-0.132983
-0.127429
-0.12123
-0.11439
-0.106932
-0.0988957
-0.0903461
-0.081375
-0.0721039
-0.0626826
-0.0532841
-0.0440952
-0.0353032
-0.0270813
-0.0195738
-0.0128864
-0.00707998
-0.00217427
0.00185088
0.0050416
0.00746974
0.00921523
0.0103748
0.0110367
0.0112977
0.0112334
0.0109278
0.0104355
0.00982359
0.00912387
0.00838817
0.00762459
0.00687471
0.00612918
0.00542282
0.00473014
0.00408387
0.00344008
0.00283437
0.00220858
0.00161015
0.000969269
0.00034483
-0.131081
-0.138711
-0.142484
-0.14367
-0.144104
-0.144688
-0.145447
-0.146065
-0.146279
-0.145987
-0.145194
-0.143928
-0.142195
-0.139973
-0.137229
-0.133933
-0.130064
-0.125608
-0.120555
-0.114905
-0.108665
-0.101855
-0.0945156
-0.0867032
-0.0784997
-0.0700113
-0.0613676
-0.052718
-0.0442244
-0.0360506
-0.0283509
-0.0212575
-0.0148722
-0.00925975
-0.00444992
-0.000436638
0.0028103
0.00534675
0.00723743
0.00856503
0.0094061
0.00984802
0.00995967
0.00981992
0.00948047
0.00900644
0.00842924
0.00780052
0.00713035
0.00646034
0.00578337
0.00513467
0.00449151
0.00388652
0.00327986
0.00270584
0.00211132
0.00153983
0.000928495
0.000329486
-0.121026
-0.128087
-0.13177
-0.133117
-0.13373
-0.134431
-0.135273
-0.135989
-0.136339
-0.136221
-0.135634
-0.134599
-0.133124
-0.131189
-0.128768
-0.125833
-0.122366
-0.118353
-0.113789
-0.108673
-0.103014
-0.0968328
-0.0901633
-0.0830581
-0.0755886
-0.0678472
-0.0599458
-0.0520131
-0.0441891
-0.0366168
-0.029433
-0.0227578
-0.0166883
-0.0112906
-0.00660214
-0.00262811
0.000647884
0.00326734
0.00528089
0.00675783
0.00776339
0.00837531
0.00865542
0.0086769
0.00848819
0.00815174
0.00769823
0.00717871
0.00660465
0.00601756
0.00541243
0.00482465
0.00423424
0.00367362
0.00310696
0.00256726
0.00200638
0.00146415
0.000884464
0.000313288
-0.1115
-0.117989
-0.121534
-0.122983
-0.12373
-0.124521
-0.125425
-0.126216
-0.126679
-0.126715
-0.126314
-0.125494
-0.12426
-0.1226
-0.120489
-0.117902
-0.114823
-0.111239
-0.107148
-0.102548
-0.0974491
-0.0918704
-0.085843
-0.0794128
-0.0726427
-0.065612
-0.0584174
-0.0511694
-0.0439889
-0.037
-0.0303238
-0.0240687
-0.018326
-0.0131615
-0.0086179
-0.00470937
-0.0014311
0.00124571
0.00335887
0.00496518
0.00611887
0.00688813
0.0073275
0.00750408
0.00746254
0.00726218
0.00693258
0.00652365
0.00604784
0.00554633
0.00501603
0.00449227
0.00395774
0.00344456
0.00292081
0.00241814
0.00189338
0.00138283
0.000836985
0.00029616
-0.102514
-0.108448
-0.111816
-0.113313
-0.114152
-0.115004
-0.115948
-0.116793
-0.117346
-0.117513
-0.117278
-0.116653
-0.115643
-0.11424
-0.112422
-0.110167
-0.107459
-0.104287
-0.100648
-0.0965426
-0.0919797
-0.0869762
-0.0815601
-0.0757715
-0.0696647
-0.0633082
-0.0567847
-0.050189
-0.043625
-0.0372003
-0.0310215
-0.0251859
-0.0197782
-0.0148628
-0.0104854
-0.00666706
-0.00341253
-0.000703949
0.001485
0.0031996
0.00448367
0.005396
0.00598377
0.00630772
0.0064083
0.00634128
0.0061347
0.00583685
0.00546076
0.00504698
0.00459414
0.00413725
0.00366162
0.00319885
0.00272094
0.00225805
0.00177195
0.00129565
0.000785885
0.000278021
-0.0940918
-0.0994758
-0.102634
-0.104136
-0.105031
-0.105918
-0.106881
-0.107759
-0.10838
-0.108653
-0.108561
-0.108111
-0.107308
-0.106144
-0.1046
-0.102657
-0.1003
-0.0975179
-0.0943083
-0.0906724
-0.0866178
-0.0821596
-0.0773221
-0.07214
-0.0666599
-0.0609403
-0.055052
-0.0490757
-0.0431006
-0.0372196
-0.0315261
-0.0261068
-0.0210396
-0.0163864
-0.0121941
-0.00848893
-0.00528298
-0.00256777
-0.000327043
0.00147403
0.00286954
0.00390925
0.00463298
0.00509497
0.00533119
0.00539341
0.00530776
0.0051205
0.00484481
0.00452028
0.00414711
0.00375956
0.00334568
0.0029362
0.00250699
0.00208666
0.00164178
0.00120237
0.000731015
0.000258795
-0.086216
-0.0910657
-0.093996
-0.0954698
-0.0963911
-0.0972912
-0.098255
-0.0991463
-0.0998127
-0.100171
-0.100199
-0.0999037
-0.0992867
-0.0983414
-0.097051
-0.0953979
-0.093368
-0.0909522
-0.0881466
-0.0849525
-0.0813764
-0.0774313
-0.0731381
-0.0685262
-0.0636353
-0.0585151
-0.0532256
-0.0478355
-0.042421
-0.0370619
-0.0318397
-0.0268311
-0.0221073
-0.0177264
-0.0137356
-0.0101642
-0.00703011
-0.00433254
-0.00206385
-0.00019852
0.00128864
0.00243883
0.00328467
0.00387389
0.00423776
0.00442376
0.00445574
0.0043775
0.00420201
0.00396754
0.00367564
0.00335938
0.00301003
0.00265651
0.00227874
0.00190374
0.00150265
0.00110284
0.000672265
0.000238415
-0.0788624
-0.0832086
-0.0859044
-0.0873253
-0.0882487
-0.0891431
-0.0900915
-0.0909794
-0.0916728
-0.0920949
-0.0922234
-0.0920603
-0.0916077
-0.0908594
-0.0897999
-0.0884131
-0.0866858
-0.0846096
-0.0821802
-0.0793982
-0.076269
-0.0728032
-0.0690185
-0.0649395
-0.0605998
-0.056041
-0.0513138
-0.0464763
-0.0415934
-0.0367331
-0.0319664
-0.0273606
-0.0229801
-0.0188789
-0.0151031
-0.0116837
-0.00864293
-0.00598602
-0.00371259
-0.00180521
-0.000246723
0.000996098
0.00194902
0.00265329
0.0031354
0.00343832
0.00358336
0.00361147
0.00353505
0.00339072
0.00318105
0.00293813
0.00265499
0.00235995
0.00203618
0.00170921
0.00135444
0.000996931
0.00060957
0.000216829
-0.0720207
-0.0758958
-0.0783558
-0.0797056
-0.0806118
-0.0814854
-0.0824053
-0.083276
-0.0839799
-0.0844471
-0.0846552
-0.0846039
-0.0842943
-0.083721
-0.0828691
-0.0817237
-0.0802728
-0.0785083
-0.0764257
-0.0740248
-0.0713093
-0.0682878
-0.0649749
-0.061391
-0.0575639
-0.0535284
-0.0493268
-0.045008
-0.0406269
-0.0362414
-0.0319126
-0.0276995
-0.0236595
-0.0198423
-0.0162921
-0.0130403
-0.0101121
-0.00751728
-0.00526132
-0.00333372
-0.00172441
-0.000407408
0.000636593
0.00144258
0.00203228
0.00244395
0.00269614
0.0028267
0.00284721
0.00279229
0.00266509
0.00249657
0.00228096
0.00204703
0.00177955
0.00150314
0.00119715
0.000884629
0.000542916
0.000194007
-0.0656745
-0.0691103
-0.0713382
-0.0726049
-0.0734799
-0.0743214
-0.0752033
-0.0760456
-0.0767464
-0.0772425
-0.0775119
-0.0775524
-0.0773638
-0.076944
-0.0762764
-0.0753476
-0.0741464
-0.0726649
-0.0708988
-0.0688466
-0.0665109
-0.0638981
-0.0610199
-0.0578929
-0.0545399
-0.0509894
-0.0472767
-0.0434425
-0.0395329
-0.0355969
-0.0316869
-0.027854
-0.0241492
-0.0206175
-0.0173005
-0.0142292
-0.0114304
-0.00891701
-0.00669935
-0.00477258
-0.0031327
-0.00176026
-0.00064186
0.000251541
0.000937004
0.00144814
0.0018005
0.00202846
0.00214255
0.00217525
0.00213011
0.0020365
0.00189037
0.00171864
0.00150936
0.00128584
0.00103095
0.000766003
0.00047235
0.000169941
-0.0598001
-0.0628312
-0.064836
-0.0660132
-0.0668473
-0.0676488
-0.0684856
-0.0692915
-0.0699783
-0.0704898
-0.0708054
-0.0709219
-0.0708383
-0.0705442
-0.0700357
-0.0692986
-0.0683206
-0.0670938
-0.0656135
-0.0638776
-0.0618873
-0.0596473
-0.0571666
-0.0544584
-0.051541
-0.0484375
-0.0451771
-0.0417931
-0.0383243
-0.0348117
-0.0312999
-0.0278329
-0.0244555
-0.0212079
-0.0181287
-0.0152479
-0.0125924
-0.0101778
-0.0080175
-0.00611144
-0.00446067
-0.00305142
-0.00187562
-0.000909772
-0.000141345
0.000458736
0.000903095
0.00122256
0.00142608
0.00154363
0.00157903
0.00155999
0.0014839
0.00137584
0.00122641
0.00105783
0.000856179
0.000641247
0.000397992
0.000144654
-0.0543755
-0.0570376
-0.0588314
-0.0599165
-0.0607033
-0.0614597
-0.062247
-0.0630106
-0.0636748
-0.0641899
-0.0645364
-0.0647103
-0.0647095
-0.0645283
-0.0641578
-0.0635872
-0.0628062
-0.0618062
-0.0605818
-0.0591301
-0.0574513
-0.0555487
-0.0534287
-0.0511015
-0.0485816
-0.0458876
-0.043043
-0.0400752
-0.0370162
-0.0339
-0.0307646
-0.0276471
-0.0245869
-0.0216193
-0.0187797
-0.0160961
-0.0135955
-0.0112942
-0.00920842
-0.00734141
-0.00569842
-0.00427053
-0.00305436
-0.00203139
-0.0011933
-0.00051558
1.12938e-05
0.000414884
0.000702711
0.000901893
0.0010157
0.00107012
0.00106376
0.00102009
0.00093178
0.000819892
0.000673386
0.000510692
0.000320033
0.000118193
-0.0493799
-0.0517072
-0.0533039
-0.0542974
-0.0550338
-0.0557422
-0.0564778
-0.0571955
-0.0578308
-0.0583403
-0.058706
-0.0589234
-0.0589905
-0.0589018
-0.0586494
-0.0582235
-0.0576142
-0.0568132
-0.0558147
-0.0546155
-0.053215
-0.0516148
-0.0498195
-0.0478363
-0.0456768
-0.0433553
-0.0408908
-0.0383052
-0.0356248
-0.0328776
-0.0300955
-0.0273097
-0.0245543
-0.02186
-0.0192589
-0.0167766
-0.0144392
-0.0122634
-0.0102668
-0.00845536
-0.00683749
-0.00540827
-0.00416835
-0.0031037
-0.00220979
-0.00146615
-0.000866452
-0.000386906
-2.16804e-05
0.000254076
0.000443546
0.000570275
0.000632824
0.000653508
0.000627046
0.000573184
0.000483391
0.00037487
0.000238784
9.06395e-05
-0.0447914
-0.0468171
-0.0482318
-0.0491366
-0.0498214
-0.0504812
-0.0511647
-0.0518349
-0.0524372
-0.0529341
-0.0533095
-0.0535588
-0.0536796
-0.0536671
-0.053514
-0.0532112
-0.0527494
-0.0521208
-0.0513199
-0.0503433
-0.0491893
-0.047858
-0.0463523
-0.0446774
-0.042842
-0.0408571
-0.0387375
-0.0365006
-0.0341678
-0.0317618
-0.0293091
-0.0268358
-0.0243709
-0.0219409
-0.0195744
-0.0172944
-0.0151257
-0.0130847
-0.0111896
-0.00944812
-0.00787105
-0.00645664
-0.00520888
-0.00411758
-0.00318177
-0.00238488
-0.00172301
-0.00117563
-0.000739287
-0.000392494
-0.000132449
6.30889e-05
0.000193371
0.000278466
0.000314081
0.000319067
0.000287202
0.000234462
0.00015467
6.21754e-05
-0.0405885
-0.0423444
-0.0435929
-0.0444135
-0.0450475
-0.0456594
-0.0462917
-0.0469144
-0.0474815
-0.0479609
-0.0483383
-0.0486093
-0.0487715
-0.0488202
-0.0487493
-0.0485501
-0.0482137
-0.0477331
-0.0471034
-0.0463208
-0.0453829
-0.0442886
-0.0430395
-0.0416387
-0.0400928
-0.0384097
-0.0366011
-0.0346802
-0.0326642
-0.0305713
-0.0284235
-0.0262421
-0.0240517
-0.0218748
-0.0197365
-0.0176572
-0.0156599
-0.0137601
-0.0119762
-0.0103166
-0.00879408
-0.0074091
-0.00616841
-0.005065
-0.00410077
-0.00326278
-0.00255019
-0.00194554
-0.00144609
-0.00103293
-0.000705274
-0.000444032
-0.000249475
-0.000102007
-4.91697e-06
5.91614e-05
8.59422e-05
9.01739e-05
6.80555e-05
3.27805e-05
-0.0367512
-0.038267
-0.039365
-0.0401072
-0.0406925
-0.0412584
-0.0418417
-0.042418
-0.0429492
-0.0434079
-0.0437815
-0.0440658
-0.0442581
-0.0443549
-0.0443514
-0.0442378
-0.0440064
-0.0436521
-0.0431699
-0.0425548
-0.0418042
-0.0409167
-0.0398927
-0.0387337
-0.0374441
-0.0360295
-0.034499
-0.0328624
-0.0311333
-0.0293258
-0.027458
-0.0255471
-0.0236139
-0.0216769
-0.0197581
-0.0178752
-0.0160492
-0.0142942
-0.0126283
-0.0110603
-0.00960375
-0.008261
-0.00704076
-0.00593871
-0.00495935
-0.00409253
-0.00333933
-0.00268621
-0.00213338
-0.00166369
-0.00127488
-0.00095025
-0.000692461
-0.000483867
-0.000326318
-0.000203507
-0.000118024
-5.63459e-05
-2.00064e-05
3.25294e-06
-0.0332596
-0.0345631
-0.0355262
-0.0361961
-0.0367356
-0.0372582
-0.0377953
-0.0383274
-0.0388229
-0.0392591
-0.039625
-0.0399168
-0.040132
-0.0402665
-0.0403137
-0.0402689
-0.0401263
-0.0398792
-0.0395214
-0.0390492
-0.0384599
-0.0377514
-0.036923
-0.0359752
-0.0349106
-0.0337332
-0.0324494
-0.0310665
-0.029595
-0.0280456
-0.0264329
-0.0247706
-0.023076
-0.0213643
-0.0196544
-0.0179612
-0.0163037
-0.0146945
-0.0131508
-0.0116813
-0.0102999
-0.00901009
-0.00782207
-0.00673352
-0.0057509
-0.00486693
-0.00408509
-0.00339332
-0.00279217
-0.0022699
-0.00182891
-0.00145131
-0.00113425
-0.000865979