/*--------------------------------*- C++ -*----------------------------------*\
| =========                 |                                                 |
| \\      /  F ield         | OpenFOAM: The Open Source CFD Toolbox           |
|  \\    /   O peration     | Version:  2512                                  |
|   \\  /    A nd           | Website:  www.openfoam.com                      |
|    \\/     M anipulation  |                                                 |
\*---------------------------------------------------------------------------*/
FoamFile
{
    version     2.0;
    format      ascii;
    arch        "LSB;label=32;scalar=64";
    class       surfaceScalarField;
    location    "48";
    object      phi;
}
// * * * * * * * * * * * * * * * * * * * * * * * * * * * * * * * * * * * * * //

dimensions      [0 3 -1 0 0 0 0];

oriented        oriented;

internalField   nonuniform List<scalar> 
26232
(
1.31836e-05
0.000925481
-0.000938665
0.000225002
0.00183169
-0.00204351
0.000787256
0.0019471
-0.00250935
0.00184208
0.00132734
-0.00238217
0.00352907
4.1717e-06
-0.00169116
0.00598986
-0.00200958
-0.000451216
0.00936149
-0.00470491
0.00133329
0.0137721
-0.00807578
0.00366514
0.0193296
-0.0121055
0.00654799
0.0261088
-0.0167596
0.00998033
0.0341392
-0.0219805
0.0139501
0.0433948
-0.0276861
0.0184305
0.0537888
-0.0337718
0.0233778
0.0651745
-0.0401168
0.0287311
0.0773515
-0.0465913
0.0344143
0.0900779
-0.0530665
0.0403401
0.103086
-0.0594225
0.0464144
0.116101
-0.0655577
0.052543
0.128858
-0.0713906
0.0586334
0.141125
-0.0768805
0.0646129
0.152703
-0.0819768
0.070399
0.163454
-0.0867666
0.0760154
0.173262
-0.0910788
0.081271
-0.0954096
0.0870268
0.181645
5.97509e-05
0.00086573
0.000432772
0.00145867
0.00129528
0.00108459
0.00281438
-0.000191761
0.00515415
-0.0023356
0.00846938
-0.00532481
0.0129
-0.00913553
0.0185538
-0.0137295
0.0254903
-0.0190421
0.0337061
-0.0249753
0.0431239
-0.0313983
0.0535914
-0.0381535
0.0648883
-0.0450687
0.0767424
-0.0519709
0.0888515
-0.0587004
0.100909
-0.0651241
0.11263
-0.0711436
0.123773
-0.0767009
0.134162
-0.0817791
0.143684
-0.0864029
0.152321
-0.0906136
0.160088
-0.0945335
0.167109
-0.0980995
-0.10182
0.173519
0.000123256
0.000742474
0.000704097
0.000877833
0.00194191
-0.000153219
0.0040252
-0.00227505
0.00713069
-0.00544109
0.011411
-0.00960512
0.0169762
-0.0147007
0.0238719
-0.0206252
0.0320608
-0.027231
0.0414134
-0.0343278
0.0517112
-0.0416961
0.0626642
-0.0491066
0.0739387
-0.0563432
0.0851911
-0.0632232
0.0961031
-0.0696125
0.106412
-0.0754333
0.115934
-0.0806657
0.124575
-0.0853418
0.132331
-0.0895345
0.139273
-0.0933452
0.145539
-0.0968799
0.151274
-0.100268
0.15669
-0.103516
-0.107001
0.161872
0.000204481
0.000537994
0.00104031
4.20035e-05
0.00272457
-0.00183748
0.00545657
-0.00500705
0.00940661
-0.00939113
0.0146924
-0.0148909
0.0213514
-0.0213597
0.029318
-0.0285918
0.0384146
-0.0363277
0.0483621
-0.0442753
0.0588084
-0.0521424
0.0693708
-0.0596691
0.0796829
-0.0666553
0.0894365
-0.0729768
0.0984129
-0.0785889
0.106499
-0.0835195
0.113687
-0.0878532
0.120056
-0.0917108
0.125748
-0.0952272
0.130936
-0.0985333
0.135794
-0.101737
0.140463
-0.104937
0.145085
-0.108138
-0.111581
0.149664
0.000303519
0.000234475
0.00143807
-0.00109255
0.00362756
-0.00402697
0.00706313
-0.00844262
0.0118777
-0.0142057
0.0181109
-0.0211241
0.0256799
-0.0289286
0.0343684
-0.0372803
0.043844
-0.0458033
0.0537007
-0.054132
0.0635162
-0.0619578
0.0729115
-0.0690644
0.0815986
-0.0753424
0.089408
-0.0807861
0.0962931
-0.085474
0.102314
-0.0895408
0.107608
-0.0931466
0.112347
-0.0964502
0.116709
-0.0995896
0.120848
-0.102672
0.124882
-0.105771
0.128885
-0.10894
0.13292
-0.112173
-0.115627
0.136967
0.000419628
-0.000185153
0.0018892
-0.00256212
0.00462132
-0.00675908
0.00877023
-0.0125915
0.0143906
-0.019826
0.0213976
-0.0281311
0.0295507
-0.0370818
0.0384747
-0.0462043
0.0477151
-0.0550437
0.0568135
-0.0632304
0.0653799
-0.0705242
0.0731443
-0.0768288
0.0799787
-0.0821769
0.0858888
-0.0866963
0.0909824
-0.0905676
0.0954264
-0.0939848
0.0994044
-0.0971245
0.103084
-0.100129
0.106597
-0.103103
0.110038
-0.106113
0.113467
-0.1092
0.116914
-0.112387
0.120412
-0.115672
-0.119138
0.123923
0.000550704
-0.000735857
0.00237902
-0.00439043
0.00565993
-0.01004
0.0104734
-0.017405
0.0167513
-0.0261039
0.0242479
-0.0356278
0.0325583
-0.0453922
0.0411846
-0.0548306
0.0496293
-0.0634884
0.0574833
-0.0710843
0.0644829
-0.0775238
0.0705263
-0.0828723
0.0756533
-0.0873039
0.0800006
-0.0910436
0.0837507
-0.0943177
0.0870878
-0.0973218
0.0901685
-0.100205
0.0931103
-0.103071
0.0959921
-0.105985
0.0988626
-0.108984
0.101749
-0.112087
0.104666
-0.115303
0.107625
-0.118631
-0.122109
0.110597
0.000692685
-0.00142854
0.00288505
-0.00658279
0.00668097
-0.0138359
0.0120446
-0.0227686
0.018748
-0.0328074
0.0263749
-0.0432546
0.0343897
-0.053407
0.0422494
-0.0626903
0.0495103
-0.0707493
0.0558956
-0.0774697
0.0613101
-0.0829382
0.0658096
-0.0873719
0.0695468
-0.0910411
0.0727124
-0.0942091
0.0754899
-0.0970952
0.0780292
-0.0998611
0.0804388
-0.102615
0.0827893
-0.105422
0.0851231
-0.108319
0.087464
-0.111324
0.0898242
-0.114447
0.0922086
-0.117688
0.0946224
-0.121045
-0.124528
0.097041
0.000839029
-0.00226757
0.00337716
-0.00912092
0.00760965
-0.0180684
0.0133475
-0.0285065
0.0201871
-0.0396469
0.027567
-0.0506346
0.0348919
-0.060732
0.041664
-0.0694623
0.0475685
-0.0766538
0.0524935
-0.0823947
0.0564942
-0.0869389
0.0597287
-0.0906064
0.0623932
-0.0937055
0.0646727
-0.0964886
0.0667154
-0.0991379
0.0686259
-0.101772
0.0704708
-0.10446
0.0722892
-0.10724
0.0741024
-0.110132
0.0759216
-0.113144
0.0777518
-0.116277
0.079595
-0.119531
0.0814517
-0.122902
-0.126382
0.0833057
0.000980874
-0.00324845
0.00381994
-0.01196
0.00836802
-0.0226165
0.0142599
-0.0343983
0.0209292
-0.0463163
0.0277287
-0.057434
0.0340862
-0.0670896
0.0396207
-0.0749968
0.0441766
-0.0812096
0.0477888
-0.086007
0.0506118
-0.0897619
0.0528451
-0.0928396
0.0546782
-0.0955387
0.0562625
-0.0980729
0.0577033
-0.100579
0.0590668
-0.103135
0.060391
-0.105784
0.0616962
-0.108545
0.0629934
-0.111429
0.0642878
-0.114438
0.0655819
-0.117571
0.0668757
-0.120825
0.0681674
-0.124193
-0.127662
0.0694476
0.00110834
-0.00435679
0.00417808
-0.0150297
0.00888782
-0.0273262
0.0146946
-0.0402051
0.0209126
-0.0525343
0.0268831
-0.0634045
0.0321283
-0.0723347
0.0364169
-0.0792854
0.0397401
-0.0845329
0.0422354
-0.0885022
0.0441021
-0.0916286
0.045537
-0.0942745
0.0466987
-0.0967004
0.0476981
-0.0990723
0.0486043
-0.101485
0.0494564
-0.103987
0.0502753
-0.106603
0.0510717
-0.109342
0.0518515
-0.112209
0.0526176
-0.115204
0.0533708
-0.118324
0.0541105
-0.121565
0.054833
-0.124916
-0.128363
0.0555334
0.0012144
-0.00557119
0.00442448
-0.0182398
0.00912266
-0.0320244
0.014613
-0.0456955
0.0201541
-0.0580753
0.0251467
-0.0683971
0.0292479
-0.0764359
0.0323728
-0.0824104
0.0346223
-0.0867824
0.0361878
-0.0900677
0.0372731
-0.0927139
0.0380484
-0.0950498
0.0386347
-0.0972867
0.0391078
-0.0995455
0.0395105
-0.101888
0.039865
-0.104342
0.0401827
-0.10692
0.0404695
-0.109629
0.040729
-0.112468
0.0409632
-0.115438
0.0411726
-0.118534
0.0413563
-0.121748
0.0415106
-0.12507
0.0416345
-0.128487
-0.000198771
1.59611e-05
0.00018281
-0.000693513
0.000158028
0.000336713
-0.00142023
0.000386088
0.000340626
-0.00233001
0.000673279
0.000236503
-0.00338461
0.000996471
5.81302e-05
-0.00455436
0.00133976
-0.000170007
-0.00581619
0.00169478
-0.000432959
-0.00715208
0.00205981
-0.000723921
-0.00854763
0.00243827
-0.00104272
-0.00999083
0.00283696
-0.00139376
-0.0114711
0.00326426
-0.00178403
-0.0129781
0.00372866
-0.00222161
-0.0145015
0.00423776
-0.00271433
-0.0160302
0.00479763
-0.00326899
-0.0175518
0.00541254
-0.00389087
-0.0190534
0.00608487
-0.00458333
-0.0205212
0.0068152
-0.00534741
-0.0219421
0.00760248
-0.00618153
-0.0233054
0.00844436
-0.0070811
-0.0246048
0.00933782
-0.00803841
-0.0258415
0.0102796
-0.0090429
-0.0270268
0.0112668
-0.0100814
-0.0281895
0.0123011
-0.0111384
0.0133928
-0.0293836
-0.0121988
-0.000184173
0.000200134
-0.000643044
0.000616899
-0.00131581
0.00105886
-0.00215496
0.00151242
-0.00312276
0.00196427
-0.00418931
0.00240631
-0.00533068
0.00283616
-0.00652739
0.00325651
-0.00776294
0.00367383
-0.00902279
0.0040968
-0.0102933
0.00453477
-0.0115611
0.00499642
-0.0128122
0.00548893
-0.0140321
0.00601752
-0.0152049
0.00658534
-0.0163136
0.00719358
-0.0173403
0.00784184
-0.0182664
0.00852863
-0.0190744
0.00925235
-0.0197492
0.0100126
-0.0202812
0.0108116
-0.0206693
0.0116549
-0.0209282
0.01256
0.0135754
-0.0211108
-0.000161646
0.00036178
-0.000565471
0.00102072
-0.00115594
0.00164933
-0.0018879
0.00224438
-0.00272445
0.00280082
-0.00363534
0.0033172
-0.00459541
0.00379623
-0.00558314
0.00424424
-0.00657937
0.00467005
-0.00756627
0.00508371
-0.00852656
0.00549505
-0.00944279
0.00591264
-0.0102969
0.00634303
-0.0110698
0.00679039
-0.0117409
0.00725645
-0.012288
0.00774072
-0.012687
0.00824084
-0.0129116
0.00875324
-0.0129335
0.00927423
-0.0127228
0.00980192
-0.012251
0.0103397
-0.0114964
0.0109004
-0.010438
0.0115016
0.0122455
-0.00910811
-0.000134848
0.000496628
-0.000472232
0.00135811
-0.000962293
0.00213939
-0.00156228
0.00284437
-0.00223591
0.00347445
-0.00295224
0.00403353
-0.00368442
0.00452842
-0.0044084
0.00496822
-0.00510177
0.00536342
-0.00574282
0.00572476
-0.00630985
0.00606208
-0.00678059
0.00638338
-0.00713181
0.00669425
-0.00733895
0.00699753
-0.00737578
0.00729328
-0.00721398
0.00757892
-0.0068226
0.00784946
-0.00616723
0.00809787
-0.00520915
0.00831614
-0.00390366
0.00849643
-0.00219846
0.00863452
-3.46265e-05
0.00873653
0.00261726
0.00884974
0.00909741
0.00576538
-0.000107685
0.000604313
-0.000375614
0.00162604
-0.000758276
0.00252205
-0.00121436
0.00330045
-0.00170741
0.0039675
-0.00220517
0.00453129
-0.00267849
0.00500174
-0.00310019
0.00538991
-0.00344396
0.00570719
-0.00368351
0.00596431
-0.00379183
0.0061704
-0.00374077
0.00633232
-0.00350064
0.00645412
-0.00303994
0.00653684
-0.00232513
0.00657846
-0.00132021
0.00657401
1.36294e-05
0.00651562
0.00171867
0.00639283
0.00384227
0.00619255
0.00643857
0.00590012
0.0095715
0.00550159
0.0133155
0.00499253
0.0177725
0.00439271
0.00380255
0.0230674
-8.36849e-05
0.000687997
-0.000286686
0.00182904
-0.000564962
0.00280032
-0.000876791
0.00361228
-0.00118424
0.00427495
-0.00145267
0.00479973
-0.00164977
0.00519883
-0.00174432
0.00548447
-0.00170519
0.00566806
-0.00150032
0.00575944
-0.00109611
0.00576619
-0.000456823
0.00569304
0.000455675
0.00554162
0.00168224
0.00531027
0.00326662
0.00499409
0.00525555
0.00458508
0.00769898
0.00407219
0.0106504
0.00344138
0.0141672
0.00267579
0.0183115
0.00175584
0.0231533
0.000659781
0.0287813
-0.000635502
0.0352736
-0.00209962
-0.00389257
0.0429687
-6.52928e-05
0.00075329
-0.000212974
0.00197672
-0.000396483
0.00298383
-0.000571131
0.00378693
-0.000695626
0.00439944
-0.000731418
0.00483552
-0.000641438
0.00510885
-0.000388934
0.00523197
6.3909e-05
0.00521522
0.000756947
0.00506641
0.00173288
0.00479025
0.00303784
0.00438808
0.0047217
0.00385776
0.00683825
0.00319371
0.00944542
0.00238692
0.0126048
0.00142571
0.0163813
0.000295707
0.0208431
-0.00102041
0.0260602
-0.00254131
0.0321038
-0.00428779
0.0390413
-0.00627768
0.0469727
-0.00856692
0.0558613
-0.0109883
-0.0143477
0.0663164
-5.32339e-05
0.000806524
-0.000156368
0.00207986
-0.000255756
0.00308322
-0.000300658
0.00383183
-0.000243822
0.00434261
-4.03827e-05
0.00463208
0.000353857
0.00471461
0.000984289
0.00460153
0.00189865
0.00430086
0.0031483
0.00381675
0.00478913
0.00314942
0.00688195
0.00229527
0.00949264
0.00124707
0.0126914
-5.01264e-06
0.0165536
-0.00147536
0.0211567
-0.00317736
0.0265799
-0.00512748
0.0329015
-0.00734199
0.0401966
-0.0098364
0.0485363
-0.0126275
0.0579651
-0.0157064
0.0685927
-0.0191946
0.0802098
-0.0226053
-0.0277241
0.0935862
-4.61259e-05
0.00085265
-0.000111813
0.00214554
-0.000131774
0.00310318
-4.53546e-05
0.00374541
0.000203416
0.00409384
0.000669679
0.00416582
0.00140906
0.00397523
0.00247978
0.00353082
0.00394443
0.00283621
0.00587098
0.0018902
0.00833315
0.000687246
0.0114102
-0.000781738
0.0151856
-0.00252841
0.0197464
-0.00456579
0.0251783
-0.00690724
0.0315655
-0.00956458
0.0389854
-0.0125474
0.0475049
-0.0158615
0.0571755
-0.0195071
0.0680339
-0.0234859
0.0800718
-0.0277444
0.0933447
-0.0324674
0.107559
-0.0368195
-0.0434604
0.123295
-4.05221e-05
0.000893172
-6.74145e-05
0.00217243
1.06148e-06
0.00303471
0.00023745
0.00350903
0.000712846
0.00361844
0.00149677
0.0033819
0.00266127
0.00281072
0.00428303
0.00190906
0.00644446
0.000674779
0.00923373
-0.000899072
0.0127436
-0.00282259
0.0170688
-0.00510699
0.0223029
-0.00776246
0.0285332
-0.0107961
0.0358359
-0.01421
0.044271
-0.0179997
0.053877
-0.0221533
0.0646666
-0.0266511
0.0766236
-0.031464
0.0896998
-0.0365621
0.103813
-0.041858
0.118858
-0.0475114
0.134647
-0.0526086
-0.059939
0.151125
-3.15315e-05
0.000924704
-6.06419e-06
0.00214697
0.000175911
0.00285273
0.000607027
0.00307791
0.00137528
0.00285018
0.00257032
0.00218686
0.00428573
0.00109532
0.0066202
-0.00042541
0.00967702
-0.00238204
0.0135611
-0.00478318
0.0183748
-0.00763621
0.0242112
-0.0109434
0.0311479
-0.0146991
0.0392388
-0.0188871
0.0485084
-0.0234795
0.0589457
-0.0284371
0.0705021
-0.0337097
0.0830897
-0.0392387
0.0965846
-0.044959
0.110829
-0.0508066
0.125662
-0.0566908
0.14082
-0.0626694
0.156332
-0.068121
-0.0749356
0.171329
-1.39607e-05
8.94941e-05
0.000432873
0.00112862
0.00228763
0.00402327
0.00645188
0.0096916
0.0138576
0.0190547
0.0253686
0.0328557
0.0415344
0.0513784
0.0623131
0.0742161
0.0869209
0.100225
0.1139
0.127706
0.141414
0.15476
0.16791
0.180001
-0.0296558
0.0183426
-0.0180704
-0.0298591
0.019977
-0.0197737
-0.0299733
0.021363
-0.0212488
-0.030005
0.0224043
-0.0223725
-0.0299581
0.0229448
-0.0229917
-0.029834
0.0228047
-0.0229288
-0.0296301
0.0217808
-0.0219847
-0.0293392
0.0196502
-0.0199412
-0.0289463
0.0161756
-0.0165685
-0.0284192
0.0111095
-0.0116366
-0.027763
0.00426931
-0.00492554
-0.0269504
-0.00436137
0.00354878
-0.0260079
-0.0149105
0.013968
-0.0249623
-0.0272483
0.0262027
-0.0238621
-0.0410672
0.0399669
-0.0227856
-0.0558782
0.0548018
-0.0218198
-0.0710178
0.070052
-0.0210041
-0.0856808
0.0848651
-0.0202349
-0.0989633
0.0981941
-0.0191961
-0.109819
0.10878
-0.017348
-0.116871
0.115023
-0.0139974
-0.11835
0.114999
-0.00862415
-0.112345
0.106971
-0.00110244
-0.0970948
0.0895731
0.00864393
-0.072046
0.0622996
0.0194859
-0.0375394
0.0266975
0.0305922
0.00374861
-0.0148549
0.0415273
0.0469736
-0.0579087
0.0512209
0.0876861
-0.0973796
0.0583058
0.121841
-0.128926
0.0612086
0.148169
-0.151072
0.0589169
0.168393
-0.166101
0.0527174
0.183792
-0.177593
0.0471841
0.189652
-0.184119
0.0477399
0.174956
-0.175512
0.0562
0.132667
-0.141127
0.0701399
0.0687553
-0.0826952
0.0857179
-0.000922834
-0.0146552
0.0999945
-0.0620016
0.047725
0.111211
-0.105893
0.0946759
0.118803
-0.130904
0.123312
0.122618
-0.139167
0.135353
0.122198
-0.135908
0.136328
0.117794
-0.127358
0.131762
0.112177
-0.116331
0.121948
0.109479
-0.099283
0.101981
0.111994
-0.0720019
0.0694865
0.118596
-0.0366047
0.0300029
0.126561
-0.000436366
-0.00752862
0.133544
0.0293851
-0.0363681
0.138438
0.0494336
-0.054327
0.141005
0.0606333
-0.0632005
0.142009
0.062694
-0.0636987
0.142289
0.0601042
-0.0603838
0.143039
0.0481868
-0.0489372
0.144461
0.0371292
-0.0385509
0.146616
0.0171104
-0.0192653
0.148906
0.00654728
-0.00883729
0.151033
-0.00968616
0.0075593
-0.0149251
0.0132375
-0.0209112
0.018143
-0.0206656
0.0197314
-0.0203422
0.0210396
-0.0199444
0.0220065
-0.0194782
0.0224786
-0.0189504
0.022277
-0.0183663
0.0211967
-0.0177303
0.0190142
-0.0170537
0.015499
-0.0162915
0.0103474
-0.0154765
0.00345429
-0.0146195
-0.00521829
-0.0137529
-0.0157771
-0.0129377
-0.0280635
-0.0122651
-0.0417398
-0.0118657
-0.0562776
-0.011888
-0.0709955
-0.0124482
-0.0851206
-0.0135818
-0.0978297
-0.0150899
-0.108311
-0.0163669
-0.115594
-0.0165017
-0.118215
-0.0145431
-0.114303
-0.00975862
-0.101879
-0.00231474
-0.0794899
0.00801056
-0.0478647
0.0193807
-0.00762149
0.0307693
0.0355849
0.0409179
0.0775376
0.0482979
0.114461
0.0515434
0.144924
0.0504482
0.169488
0.0472817
0.186959
0.0465612
0.190373
0.0519453
0.169572
0.0634132
0.121199
0.0783927
0.0537758
0.0938046
-0.0163348
0.107351
-0.0755477
0.117588
-0.11613
0.124263
-0.137579
0.127752
-0.142656
0.127926
-0.136083
0.124319
-0.123751
0.118278
-0.11029
0.113325
-0.09433
0.112662
-0.0713392
0.116522
-0.0404652
0.122815
-0.00672912
0.12908
0.0231202
0.133875
0.0446385
0.136788
0.0577204
0.138524
0.0609582
0.139909
0.0587193
0.141891
0.0462048
0.144511
0.0345087
0.147499
0.014123
0.150304
0.00374229
0.152565
-0.011947
-0.0164143
-0.00830612
0.0173411
-0.00750211
0.0189274
-0.00662648
0.020164
-0.00566906
0.0210491
-0.0046442
0.0214537
-0.00356466
0.0211974
-0.0024404
0.0200724
-0.00127985
0.0178537
-8.76442e-05
0.0143068
0.000971846
0.00928787
0.00192965
0.00249649
0.00286927
-0.0061579
0.00369781
-0.0166057
0.00434372
-0.0287094
0.00470224
-0.0420984
0.00461339
-0.0561887
0.00384986
-0.070232
0.00217429
-0.083445
-0.000518412
-0.095137
-0.00416606
-0.104663
-0.00828598
-0.111474
-0.0119305
-0.11457
-0.0139191
-0.112315
-0.0128908
-0.102908
-0.00842232
-0.0839583
-0.000903818
-0.0553832
0.00984617
-0.0183715
0.021128
0.0243031
0.0315955
0.06707
0.0395263
0.10653
0.0438738
0.140576
0.0451679
0.168194
0.0460201
0.186107
0.0500482
0.186345
0.0591256
0.160495
0.0722899
0.108035
0.0874534
0.0386122
0.102169
-0.0310505
0.11462
-0.0879985
0.123663
-0.125174
0.12925
-0.143166
0.132097
-0.145503
0.13258
-0.136566
0.130055
-0.121226
0.124607
-0.104842
0.118577
-0.0882996
0.115345
-0.068107
0.116361
-0.0414813
0.120544
-0.0109128
0.125684
0.0179807
0.130182
0.04014
0.133466
0.0544371
0.136078
0.0583459
0.13871
0.0560874
0.141951
0.0429636
0.145675
0.0307845
0.149336
0.0104619
0.152497
0.000581459
0.154787
-0.0142365
-0.0176702
0.00719205
0.0159144
0.00855129
0.0175681
0.00995944
0.0187558
0.0114455
0.019563
0.0129784
0.0199208
0.0145287
0.0196471
0.016074
0.0185271
0.0175874
0.0163403
0.0190315
0.0128626
0.0204335
0.00788594
0.0216681
0.00126182
0.0228151
-0.00730485
0.0237214
-0.017512
0.024339
-0.029327
0.0245704
-0.0423298
0.0242692
-0.0558875
0.0232354
-0.0691982
0.021176
-0.0813857
0.0176964
-0.0916574
0.0126202
-0.0995869
0.00614817
-0.105002
-0.000697932
-0.107724
-0.00623992
-0.106773
-0.00926958
-0.0998779
-0.00878569
-0.0844422
-0.00426036
-0.0599085
0.00377101
-0.0264028
0.0141987
0.0138754
0.024636
0.0566327
0.0333803
0.0977857
0.0395677
0.134389
0.0439685
0.163793
0.0489723
0.181103
0.0569458
0.178371
0.0684345
0.149006
0.0822691
0.0942003
0.0969815
0.0238998
0.110563
-0.0446318
0.121587
-0.0990231
0.129247
-0.132833
0.133677
-0.147596
0.135721
-0.147547
0.136171
-0.137016
0.134637
-0.119692
0.130422
-0.100627
0.124492
-0.0823705
0.119692
-0.0633067
0.11823
-0.040019
0.120165
-0.0128483
0.123897
0.0142492
0.127917
0.0361198
0.131536
0.0508186
0.135046
0.0548359
0.138893
0.0522398
0.143252
0.0386045
0.147849
0.0261876
0.151951
0.00636025
0.155276
-0.00274396
0.15749
-0.0164497
-0.0186834
0.0248567
0.0141251
0.0266505
0.0157743
0.028508
0.0168983
0.0304616
0.0176095
0.032472
0.0179104
0.0344923
0.0176268
0.0364891
0.0165302
0.0384259
0.0144035
0.0402547
0.0110339
0.0419308
0.00620984
0.0434968
-0.000304238
0.044777
-0.00858498
0.0457488
-0.0184838
0.0463518
-0.0299301
0.0465094
-0.0424873
0.0461033
-0.0554814
0.0449223
-0.0680172
0.0426533
-0.0791167
0.038966
-0.0879701
0.0335424
-0.0941633
0.0262941
-0.0977535
0.0175987
-0.099029
0.00848276
-0.0976567
0.000782507
-0.0921777
-0.00259345
-0.0810662
-0.00192309
-0.0605789
0.00322543
-0.0315514
0.0118127
0.00528816
0.0217079
0.0467374
0.0312024
0.0882912
0.0394513
0.12614
0.0470237
0.156221
0.0556
0.172526
0.0663805
0.167591
0.0791335
0.136253
0.0929004
0.0804333
0.106621
0.010179
0.118734
-0.0567448
0.128061
-0.10835
0.134171
-0.138942
0.137416
-0.150842
0.138641
-0.148771
0.138814
-0.137189
0.137969
-0.118847
0.135184
-0.0978414
0.130268
-0.0774554
0.125055
-0.058093
0.121899
-0.0368629
0.121816
-0.012766
0.124069
0.0119966
0.127477
0.0327114
0.131327
0.0469691
0.135614
0.0505482
0.140475
0.0473788
0.145671
0.0334091
0.150819
0.0210392
0.155096
0.00208329
0.158395
-0.00604242
0.160443
-0.0184981
-0.0194698
0.0447592
0.0123347
0.0466449
0.0138886
0.0486796
0.0148636
0.0508757
0.0154134
0.0531701
0.015616
0.0555018
0.0152951
0.0578255
0.0142066
0.0600877
0.0121413
0.0622179
0.00890369
0.0641352
0.00429252
0.0659307
-0.00209975
0.0673229
-0.0099772
0.0683314
-0.0194922
0.0688723
-0.030471
0.068855
-0.0424701
0.0681737
-0.0548
0.0666987
-0.0665422
0.0642607
-0.0766787
0.0606132
-0.0843226
0.0554256
-0.0889756
0.0483796
-0.0907075
0.0394062
-0.0900556
0.029146
-0.0873964
0.0192371
-0.0822689
0.011428
-0.073257
0.00798976
-0.0571407
0.00946861
-0.0330302
0.0152439
-0.000487153
0.0239024
0.038079
0.0336916
0.078502
0.0436295
0.116202
0.0538253
0.146025
0.0650221
0.16133
0.0774596
0.155153
0.0905693
0.123143
0.103738
0.0672646
0.116033
-0.00211587
0.126425
-0.0671367
0.133862
-0.115787
0.138312
-0.143393
0.140365
-0.152895
0.140826
-0.149232
0.140625
-0.136988
0.140137
-0.118358
0.138631
-0.0963356
0.135225
-0.0740495
0.130626
-0.0534944
0.126782
-0.033019
0.125271
-0.0112542
0.126222
0.0110455
0.128975
0.029958
0.132907
0.0430375
0.137738
0.045717
0.143284
0.0418332
0.148951
0.0277418
0.154299
0.0156906
0.158497
-0.00211417
0.161606
-0.00915114
0.163428
-0.0203203
-0.0200679
0.0675391
0.011112
0.0690028
0.0124248
0.0707602
0.0131062
0.0727835
0.0133901
0.0749813
0.0134182
0.0772939
0.0129825
0.0796655
0.0118349
0.0820167
0.00979015
0.0842563
0.00666413
0.0862434
0.00230542
0.0880431
-0.00389946
0.0893862
-0.0113203
0.0902422
-0.0203482
0.090512
-0.0307408
0.0901193
-0.0420774
0.0889974
-0.0536781
0.0870875
-0.0646323
0.084329
-0.0739202
0.080625
-0.0806186
0.0757894
-0.0841401
0.0695111
-0.0844291
0.0614449
-0.0819895
0.0516207
-0.0775721
0.0409048
-0.0715529
0.0309446
-0.0632969
0.0241189
-0.050315
0.0218515
-0.0307628
0.0245071
-0.00314277
0.031278
0.0313081
0.0406634
0.0691166
0.0515237
0.105342
0.0634409
0.134108
0.0762342
0.148536
0.0893496
0.142038
0.102145
0.110347
0.114276
0.0551336
0.124976
-0.0128154
0.133395
-0.0755556
0.138826
-0.121218
0.141583
-0.14615
0.142465
-0.153777
0.142244
-0.149012
0.141684
-0.136428
0.141309
-0.117983
0.140753
-0.0957793
0.138934
-0.0722308
0.135644
-0.0502038
0.132094
-0.0294695
0.12995
-0.00910985
0.130009
0.0109865
0.132187
0.0277804
0.136056
0.0391684
0.141142
0.0406311
0.146989
0.0359859
0.15275
0.0219811
0.157975
0.0104658
0.161885
-0.00602465
0.16469
-0.0119562
0.166259
-0.0218889
-0.0205332
0.0937094
0.0109889
0.0942355
0.0118987
0.0951938
0.0121478
0.096503
0.012081
0.0980824
0.0118388
0.0998842
0.0111807
0.101834
0.00988468
0.103829
0.00779532
0.105779
0.00471424
0.107504
0.000580473
0.108961
-0.00535683
0.10998
-0.0123385
0.110446
-0.0208142
0.110249
-0.030544
0.109308
-0.0411361
0.107574
-0.0519444
0.10504
-0.0620987
0.10174
-0.0706204
0.0977285
-0.0766067
0.0930205
-0.079432
0.0874952
-0.0789038
0.0808261
-0.0753204
0.0726444
-0.0693905
0.0629892
-0.0618978
0.0527853
-0.0530929
0.0440776
-0.0416073
0.0388873
-0.0255725
0.0385054
-0.00276081
0.0429698
0.0268436
0.0512337
0.0608528
0.0621227
0.0944528
0.0747684
0.121462
0.0882308
0.135074
0.10132
0.128948
0.113354
0.0983137
0.124197
0.0442901
0.133136
-0.0217536
0.139438
-0.0818584
0.142817
-0.124597
0.143922
-0.147254
0.143698
-0.153553
0.142879
-0.148193
0.142034
-0.135583
0.141654
-0.117604
0.1417
-0.0958256
0.141251
-0.0717814
0.139555
-0.0485083
0.137041
-0.026955
0.135072
-0.00714075
0.134787
0.0112712
0.13659
0.0259777
0.140306
0.0354526
0.145374
0.0355625
0.151164
0.0301965
0.15669
0.0164542
0.161541
0.0056156
0.165029
-0.00951263
0.167475
-0.0144028
0.168799
-0.0232127
-0.0209326
0.122127
0.0121568
0.121481
0.012545
0.121298
0.0123311
0.121485
0.0118935
0.12202
0.0113043
0.122867
0.0103334
0.123935
0.00881664
0.125112
0.00661772
0.126264
0.0035623
0.127431
-0.000586058
0.128131
-0.00605722
0.128468
-0.0126756
0.12824
-0.0205857
0.127317
-0.0296214
0.125607
-0.0394262
0.123071
-0.0494079
0.119738
-0.0587655
0.115717
-0.0665994
0.111183
-0.0720734
0.106326
-0.0745745
0.101241
-0.0738195
0.0958085
-0.0698875
0.0896353
-0.0632172
0.0822611
-0.0545236
0.0737045
-0.0445363
0.0651189
-0.0330218
0.0584435
-0.0188971
0.0556101
7.25945e-05
0.0576531
0.0248006
0.0642204
0.0542855
0.0743142
0.084359
0.0867668
0.109009
0.100086
0.121755
0.112694
0.11634
0.123815
0.087193
0.13324
0.0348648
0.140286
-0.0288
0.144375
-0.0859473
0.145712
-0.125934
0.145265
-0.146807
0.144047
-0.152335
0.142723
-0.146869
0.141682
-0.134542
0.141283
-0.117205
0.141675
-0.0962168
0.142248
-0.0723546
0.14209
-0.0483507
0.141006
-0.0258705
0.139852
-0.00598651
0.139779
0.0113441
0.141487
0.0242695
0.145039
0.0319004
0.149892
0.0307091
0.155351
0.0247383
0.160412
0.0113924
0.164738
0.00129009
0.167749
-0.0125233
0.169842
-0.0164961
0.170963
-0.0243341
-0.0213392
0.14902
0.0142623
0.147427
0.0141374
0.14617
0.0135882
0.145224
0.01284
0.14464
0.0118882
0.14438
0.0105937
0.14435
0.00884661
0.144467
0.00649995
0.144645
0.00338479
0.144703
-0.000644521
0.144468
-0.00582181
0.143847
-0.0120547
0.142677
-0.0194155
0.140812
-0.027757
0.138155
-0.0367691
0.134678
-0.0459302
0.130444
-0.0545314
0.125625
-0.0617813
0.120488
-0.0669361
0.115331
-0.0694175
0.110406
-0.0688947
0.105809
-0.0652901
0.10135
-0.0587583
0.0965164
-0.04969
0.0907599
-0.0387798
0.0841884
-0.0264503
0.0779272
-0.0126358
0.073901
0.00409874
0.0739171
0.0247845
0.0784969
0.0497057
0.0871403
0.0757157
0.0986352
0.0975145
0.111164
0.109226
0.122946
0.104558
0.133134
0.0770056
0.141181
0.0268177
0.146244
-0.0338634
0.148049
-0.0877525
0.147406
-0.12529
0.14556
-0.144962
0.143501
-0.150276
0.141778
-0.145146
0.140629
-0.133393
0.140254
-0.116831
0.140849
-0.0968116
0.142112
-0.0736174
0.143231
-0.0494693
0.14364
-0.0262796
0.143681
-0.00602839
0.144261
0.0107648
0.146165
0.0223648
0.149617
0.028449
0.154159
0.0261669
0.159132
0.0197651
0.163617
0.00690756
0.167372
-0.00246483
0.169929
-0.0150799
0.171726
-0.0182932
0.172714
-0.0253227
-0.021828
0.1691
0.0164914
0.167163
0.0160746
0.165357
0.0153938
0.163767
0.0144298
0.162452
0.0132039
0.161364
0.0116812
0.160442
0.00976851
0.159617
0.00732508
0.158812
0.00418989
0.157797
0.000370142
0.156619
-0.00464321
0.154989
-0.0104249
0.152808
-0.0172341
0.149934
-0.0248839
0.146288
-0.0331224
0.141863
-0.0415051
0.136763
-0.049432
0.131214
-0.0562316
0.125536
-0.0612579
0.120096
-0.0639783
0.115257
-0.0640551
0.111237
-0.0612709
0.107977
-0.0554978
0.105131
-0.0468441
0.102125
-0.0357734
0.0985042
-0.0228298
0.0945717
-0.0087033
0.0911634
0.00750703
0.0903311
0.0256168
0.0932174
0.0468194
0.10006
0.0688734
0.109992
0.0875819
0.121237
0.097982
0.132025
0.0937692
0.141313
0.067718
0.147942
0.0201885
0.150948
-0.0368688
0.150522
-0.0873267
0.148063
-0.122832
0.145005
-0.141903
0.142248
-0.147519
0.140203
-0.143101
0.138986
-0.132176
0.138663
-0.116508
0.139388
-0.0975359
0.141074
-0.0753037
0.143129
-0.0515246
0.144863
-0.0280134
0.14621
-0.00737501
0.147706
0.00926864
0.150043
0.0200279
0.153498
0.0249932
0.15773
0.0219356
0.162184
0.0153108
0.166096
0.00299577
0.169325
-0.00569398
0.171513
-0.0172683
0.17311
-0.0198894
0.174053
-0.0262666
-0.0224719
0.178505
0.017988
0.176932
0.0176473
0.175408
0.0169182
0.17393
0.0159075
0.172519
0.0146153
0.171178
0.013022
0.169869
0.011077
0.168501
0.00869348
0.167008
0.00568296
0.165501
0.00187653
0.163513
-0.00265494
0.161095
-0.00800663
0.15809
-0.0142297
0.154418
-0.0212113
0.150039
-0.0287432
0.145001
-0.0364675
0.139465
-0.043896
0.133696
-0.0504622
0.128024
-0.0555867
0.122783
-0.0587374
0.118238
-0.0595094
0.114572
-0.0576051
0.111905
-0.0528306
0.110207
-0.0451469
0.109149
-0.0347146
0.108168
-0.0218489
0.106726
-0.00726177
0.105508
0.00872492
0.105317
0.0258085
0.107596
0.0445404
0.113008
0.0634613
0.121237
0.0793526
0.130969
0.0882503
0.140607
0.0841305
0.148621
0.0597046
0.153507
0.0153019
0.154192
-0.0375535
0.151781
-0.0849162
0.147941
-0.118992
0.144006
-0.137968
0.140703
-0.144216
0.138353
-0.140751
0.13703
-0.130853
0.136724
-0.116202
0.13751
-0.0983224
0.139415
-0.0772078
0.142072
-0.0541819
0.144836
-0.0307775
0.147359
-0.00989822
0.149843
0.00678476
0.152748
0.0171233
0.156314
0.0214272
0.160302
0.0179473
0.164301
0.0113121
0.167736
-0.000439323
0.170554
-0.00851274
0.172503
-0.0192165
0.174015
-0.0214019
0.175011
-0.0272626
-0.0233386
0.193606
0.0190924
-0.194711
0.192951
0.018303
0.192321
0.0175476
0.191771
0.0164582
0.191349
0.0150365
0.191066
0.013305
0.19092
0.0112235
0.190928
0.00868575
0.191028
0.00558286
0.191007
0.00189734
0.190929
-0.00257739
0.19063
-0.00770764
0.189943
-0.0135419
0.188714
-0.0199825
0.186785
-0.0268144
0.184042
-0.0337245
0.180447
-0.040301
0.176049
-0.0460644
0.17098
-0.0505176
0.165433
-0.0531899
0.159622
-0.0536991
0.153767
-0.05175
0.148066
-0.0471298
0.142662
-0.039742
0.137589
-0.0296423
0.132718
-0.0169775
0.12791
-0.00245435
0.123041
0.0135942
0.118798
0.0300513
0.116488
0.0468507
0.11751
0.0624394
0.122533
0.0743296
0.131415
0.0793684
0.143513
0.072032
0.156881
0.0463365
0.167908
0.0042749
0.174437
-0.0440821
0.17595
-0.0864293
0.173644
-0.116686
0.16905
-0.133374
0.16353
-0.138696
0.158064
-0.135286
0.153221
-0.126009
0.149272
-0.112253
0.146405
-0.0954553
0.144793
-0.0755964
0.144386
-0.0537744
0.144819
-0.031211
0.145767
-0.0108456
0.147145
0.00540619
0.14912
0.0151489
0.1517
0.0188471
0.154522
0.0151254
0.157166
0.00866778
0.159109
-0.00238264
0.160359
-0.00976275
0.160745
-0.0196016
0.160711
-0.0213686
0.160213
-0.026764
-0.0228024
0.207093
0.0190996
-0.2071
0.207142
0.0182544
0.207305
0.017384
0.207459
0.0163048
0.207584
0.0149108
0.207706
0.0131829
0.207836
0.0110938
0.207947
0.00857455
0.207951
0.00557934
0.207826
0.00202191
0.207453
-0.00220447
0.206751
-0.00700569
0.205586
-0.0123762
0.203834
-0.0182309
0.201393
-0.0243729
0.198195
-0.0305268
0.194237
-0.0363427
0.189584
-0.0414116
0.184371
-0.0453046
0.178786
-0.0476046
0.173043
-0.0479559
0.167365
-0.0460728