/*--------------------------------*- C++ -*----------------------------------*\
| =========                 |                                                 |
| \\      /  F ield         | OpenFOAM: The Open Source CFD Toolbox           |
|  \\    /   O peration     | Version:  2512                                  |
|   \\  /    A nd           | Website:  www.openfoam.com                      |
|    \\/     M anipulation  |                                                 |
\*---------------------------------------------------------------------------*/
FoamFile
{
    version     2.0;
    format      ascii;
    arch        "LSB;label=32;scalar=64";
    class       surfaceScalarField;
    location    "159";
    object      phi;
}
// * * * * * * * * * * * * * * * * * * * * * * * * * * * * * * * * * * * * * //

dimensions      [0 3 -1 0 0 0 0];

oriented        oriented;

internalField   nonuniform List<scalar> 
26232
(
-5.96983e-05
0.000933749
-0.00087405
2.0851e-05
0.00172632
-0.00180687
0.000466052
0.00164071
-0.00208591
0.00148477
0.000737365
-0.00175608
0.003277
-0.000966906
-0.000825332
0.00603471
-0.0034762
0.000718495
0.0099359
-0.00679982
0.00289862
0.0151325
-0.0109369
0.0057403
0.0217341
-0.015862
0.00926037
0.0297906
-0.0215152
0.0134587
0.0392771
-0.0277983
0.0183118
0.0500849
-0.0345776
0.0237697
0.0620216
-0.0416928
0.0297561
0.07482
-0.0489696
0.0361713
0.0881555
-0.056234
0.0428985
0.10167
-0.0633261
0.0498113
0.115001
-0.0701119
0.0567811
0.127807
-0.076493
0.0636874
0.1398
-0.0824088
0.0704158
0.150755
-0.0878536
0.0768981
0.160554
-0.0928176
0.083019
0.169102
-0.0974714
0.0889236
0.176354
-0.101522
0.0942689
-0.105976
0.100237
0.182094
2.59878e-05
0.000907761
0.000355847
0.00139646
0.00122735
0.000769201
0.00286736
-0.000902637
0.00549237
-0.00359192
0.00929947
-0.0072833
0.0144497
-0.01195
0.0210461
-0.0175333
0.0291119
-0.0239277
0.0385734
-0.0309767
0.0492549
-0.0384797
0.0608862
-0.0462089
0.0731249
-0.0539315
0.0855876
-0.0614323
0.0978871
-0.0685336
0.10967
-0.0751093
0.120651
-0.0810924
0.130633
-0.086475
0.139526
-0.0913019
0.147333
-0.0956605
0.154169
-0.0996534
0.160128
-0.103431
0.165562
-0.106955
-0.110815
0.1704
0.000124573
0.000783188
0.000746719
0.000774313
0.00211519
-0.000599272
0.00446791
-0.00325536
0.00802131
-0.00714532
0.0129487
-0.0122106
0.0193514
-0.0183528
0.0272311
-0.025413
0.0364702
-0.0331668
0.0468303
-0.0413368
0.0579713
-0.0496207
0.0694878
-0.0577254
0.0809569
-0.0654006
0.0919878
-0.0724632
0.102265
-0.0788111
0.11158
-0.0844244
0.119843
-0.0893551
0.127078
-0.0937095
0.1334
-0.0976244
0.138985
-0.101246
0.144027
-0.104695
0.1487
-0.108104
0.153175
-0.11143
-0.115097
0.157458
0.000233494
0.000549694
0.00118149
-0.000173679
0.00309966
-0.00251744
0.00622296
-0.00637866
0.010741
-0.0116633
0.0167618
-0.0182315
0.0242755
-0.0258665
0.0331306
-0.0342682
0.0430358
-0.043072
0.0535903
-0.0518913
0.0643376
-0.060368
0.0748299
-0.0682178
0.0846885
-0.0752592
0.093648
-0.0814227
0.101578
-0.0867414
0.108481
-0.0913266
0.114462
-0.0953367
0.119697
-0.0989443
0.124382
-0.10231
0.1287
-0.105563
0.132799
-0.108794
0.136766
-0.112071
0.140704
-0.115369
-0.11895
0.144557
0.000353103
0.000196591
0.00165531
-0.00147588
0.0041586
-0.00502073
0.00807191
-0.010292
0.0135198
-0.0171112
0.0204952
-0.0252069
0.0288276
-0.034199
0.0381848
-0.0436253
0.0481141
-0.0530013
0.0581145
-0.0618917
0.0677181
-0.0699717
0.07656
-0.0770597
0.0844204
-0.0831195
0.0912336
-0.088236
0.0970669
-0.0925747
0.102077
-0.0963372
0.106463
-0.0997223
0.110418
-0.102899
0.114103
-0.105995
0.117635
-0.109095
0.121089
-0.112248
0.124504
-0.115485
0.127925
-0.11879
-0.122315
0.131289
0.000485082
-0.000288491
0.00216455
-0.00315535
0.00526656
-0.00812275
0.00994023
-0.0149656
0.0161982
-0.0233691
0.0238706
-0.0328793
0.0326005
-0.0429288
0.0418922
-0.0529171
0.0512015
-0.0623106
0.060036
-0.0707261
0.0680347
-0.0779704
0.0750086
-0.0840335
0.0809366
-0.0890475
0.0859281
-0.0932275
0.090168
-0.0968146
0.0938618
-0.100031
0.0971951
-0.103056
0.100312
-0.106016
0.103311
-0.108994
0.106254
-0.112037
0.109175
-0.115169
0.11209
-0.118401
0.115022
-0.121723
-0.125214
0.117922
0.000629408
-0.000917899
0.00269857
-0.00522451
0.00638129
-0.0118055
0.0117242
-0.0203085
0.0185817
-0.0302266
0.0265941
-0.0408917
0.0352341
-0.0515689
0.0439129
-0.0615958
0.0521012
-0.0704989
0.059424
-0.078049
0.0657013
-0.0842477
0.0709349
-0.0892671
0.0752577
-0.0933703
0.0788689
-0.0968387
0.0819766
-0.0999223
0.0847598
-0.102814
0.0873521
-0.105648
0.0898421
-0.108506
0.0922832
-0.111435
0.094705
-0.114459
0.0971224
-0.117587
0.0995413
-0.120819
0.101971
-0.124152
-0.127616
0.104373
0.000782595
-0.00170049
0.00323542
-0.00767733
0.00743925
-0.0160093
0.0132939
-0.0261632
0.0204646
-0.0373973
0.0284109
-0.048838
0.0364991
-0.0596571
0.0441472
-0.069244
0.0509414
-0.0772931
0.0566847
-0.0837923
0.0613799
-0.0889428
0.0651681
-0.0930554
0.0682563
-0.0964584
0.0708552
-0.0994376
0.0731416
-0.102209
0.0752446
-0.104917
0.0772483
-0.107651
0.079202
-0.11046
0.0811327
-0.113366
0.0830538
-0.11638
0.0849718
-0.119505
0.0868891
-0.122737
0.0888096
-0.126073
-0.129516
0.090709
0.000937443
-0.00263794
0.00374278
-0.0104827
0.00836241
-0.0206289
0.0145143
-0.032315
0.0216723
-0.0445554
0.029166
-0.0563316
0.0363459
-0.066837
0.042731
-0.0756291
0.0480775
-0.0826395
0.0523651
-0.0880799
0.0557296
-0.0923074
0.0583807
-0.0957065
0.0605335
-0.0986112
0.0623675
-0.101272
0.0640127
-0.103854
0.0655524
-0.106457
0.0670351
-0.109134
0.0684865
-0.111911
0.0699201
-0.1148
0.0713422
-0.117802
0.0727559
-0.120918
0.0741626
-0.124144
0.0755629
-0.127473
-0.130896
0.0769431
0.00108395
-0.00372188
0.00418265
-0.0135814
0.00907184
-0.0255181
0.0152727
-0.0385159
0.0221001
-0.0513828
0.0288315
-0.0630631
0.0348906
-0.0728962
0.0399525
-0.0806909
0.0439459
-0.0866329
0.0469844
-0.0911183
0.0492743
-0.0945973
0.0510364
-0.0974686
0.0524578
-0.100033
0.053674
-0.102488
0.0547717
-0.104952
0.0558009
-0.107486
0.0567882
-0.110121
0.0577471
-0.11287
0.0586846
-0.115737
0.0596041
-0.118722
0.0605073
-0.121822
0.0613948
-0.125031
0.062266
-0.128344
-0.131745
0.0631153
0.00121133
-0.00493321
0.00451881
-0.0168889
0.00950326
-0.0305026
0.0155007
-0.0445133
0.0217277
-0.0576098
0.0274928
-0.0688281
0.032353
-0.0777564
0.036151
-0.084489
0.0389549
-0.0894368
0.0409571
-0.0931206
0.042383
-0.0960233
0.0434309
-0.0985165
0.0442469
-0.100849
0.0449253
-0.103166
0.0455204
-0.105547
0.0460609
-0.108027
0.0465615
-0.110622
0.0470294
-0.113338
0.047469
-0.116177
0.0478824
-0.119135
0.0482707
-0.12221
0.0486338
-0.125394
0.0489696
-0.12868
-0.132052
0.049277
0.00131236
-0.00624557
0.00472562
-0.0203021
0.00961924
-0.0353962
0.0151835
-0.0500776
0.0206117
-0.063038
0.0253104
-0.0735268
0.028994
-0.0814399
0.0316509
-0.087146
0.0334413
-0.0912271
0.0345888
-0.0942682
0.0353048
-0.0967392
0.0357508
-0.0989624
0.0360333
-0.101131
0.0362142
-0.103347
0.0363264
-0.105659
0.036386
-0.108086
0.0364011
-0.110637
0.0363764
-0.113313
0.036315
-0.116115
0.0362187
-0.119039
0.0360889
-0.12208
0.0359252
-0.125231
0.0357252
-0.12848
0.0354907
-0.131818
-0.000319919
-0.00127574
0.00159566
-0.00109084
-0.00251524
0.00328617
-0.00220297
-0.00283783
0.00394997
-0.00358151
-0.00250903
0.00388757
-0.00517425
-0.00174541
0.00333815
-0.00694427
-0.000704108
0.00247413
-0.00886338
0.000518356
0.00140075
-0.0109062
0.00187908
0.000163753
-0.013051
0.00337535
-0.0012306
-0.0152711
0.00503062
-0.0028105
-0.0175381
0.00687854
-0.00461156
-0.0198192
0.00895275
-0.00667164
-0.022076
0.0112798
-0.00902302
-0.0242628
0.0138752
-0.0116883
-0.0263257
0.0167407
-0.0146778
-0.0282012
0.0198626
-0.0179871
-0.0298161
0.0232091
-0.0215943
-0.0310879
0.0267281
-0.0254564
-0.0319264
0.0303455
-0.029507
-0.0322367
0.0339654
-0.0336551
-0.0319236
0.0374728
-0.0377859
-0.0308979
0.0407374
-0.0417631
-0.0290908
0.0436265
-0.0454337
0.0460542
-0.0264896
-0.0486554
-0.000308892
-0.000966847
-0.00104118
-0.00178296
-0.00208037
-0.00179865
-0.00334743
-0.00124197
-0.00478853
-0.000304312
-0.0063658
0.000873163
-0.00804928
0.00220183
-0.00981051
0.00364032
-0.0116189
0.00518376
-0.0134387
0.00685038
-0.0152283
0.00866814
-0.0169398
0.0106643
-0.0185183
0.0128583
-0.0199008
0.0152577
-0.0210158
0.0178557
-0.0217825
0.0206294
-0.0221114
0.023538
-0.021905
0.0265218
-0.0210606
0.0295011
-0.0194718
0.0323766
-0.0170345
0.0350355
-0.0136527
0.0373556
-0.0092481
0.0392219
0.0406127
-0.00380655
-0.000277406
-0.000689441
-0.000926123
-0.00113424
-0.00182969
-0.000895078
-0.00290668
-0.000164978
-0.00410067
0.000889682
-0.00537095
0.00214344
-0.00668384
0.00351471
-0.00800564
0.00496212
-0.00929797
0.00647609
-0.0105152
0.00806759
-0.0116036
0.00975656
-0.0125016
0.0115622
-0.0131395
0.0134963
-0.0134403
0.0155584
-0.0133195
0.0177349
-0.0126854
0.0199953
-0.01144
0.0222926
-0.00948163
0.0245634
-0.00670649
0.026726
-0.00301325
0.0286834
0.00169701
0.0303252
0.00751495
0.0315377
0.0145242
0.0322127
0.032298
0.0228389
-0.000236576
-0.000452865
-0.000780928
-0.000589888
-0.00151903
-0.000156979
-0.00236676
0.000682751
-0.0032634
0.00178632
-0.00416335
0.00304339
-0.00502769
0.00437906
-0.00581702
0.00575145
-0.00648637
0.00714544
-0.0069824
0.00856362
-0.00724256
0.0100167
-0.00719564
0.0115153
-0.00676278
0.0130634
-0.00585596
0.0146516
-0.00438578
0.0162647
-0.00225635
0.0178659
0.000629504
0.0194067
0.00437018
0.0208227
0.00906004
0.0220361
0.0147874
0.022956
0.021632
0.0234806
0.0296666
0.0235031
0.0389363
0.0229429
0.0215663
0.0496681
-0.000197921
-0.000254944
-0.000642009
-0.0001458
-0.00121901
0.000420023
-0.00184039
0.00130414
-0.00243921
0.00238513
-0.00296313
0.00356732
-0.0033669
0.00478283
-0.00360548
0.00599003
-0.00362885
0.00716881
-0.00337911
0.00831389
-0.00278896
0.00942656
-0.00178293
0.0105093
-0.000277753
0.0115582
0.00181018
0.0125637
0.00457702
0.0134978
0.00811499
0.0143279
0.0125159
0.0150058
0.0178673
0.0154713
0.0242505
0.0156529
0.0317375
0.015469
0.0403864
0.0148317
0.0502653
0.0136243
0.0613392
0.011869
0.00888075
0.0740247
-0.000170769
-8.41747e-05
-0.000538696
0.000222127
-0.000986996
0.000868323
-0.00142042
0.00173756
-0.00176414
0.00272885
-0.00195796
0.00376114
-0.00194963
0.0047745
-0.00168857
0.00572896
-0.00112103
0.00660128
-0.000186801
0.00737965
0.00118121
0.00805855
0.00305861
0.00863189
0.00552613
0.00909072
0.0086711
0.00941872
0.0125789
0.00959
0.0173373
0.0095695
0.0230313
0.00931188
0.0297409
0.00876169
0.0375404
0.00785335
0.0464974
0.00651207
0.0566579
0.00467121
0.0681192
0.00216296
0.0807339
-0.000745722
-0.00556387
0.0951785
-0.000159755
7.55799e-05
-0.00048547
0.000547843
-0.000851396
0.00123425
-0.00115345
0.00203961
-0.00130791
0.00288331
-0.00124609
0.00369932
-0.000908215
0.00443662
-0.000237749
0.0050585
0.000823268
0.00554026
0.00233739
0.00586553
0.00437363
0.00602231
0.00700678
0.00599874
0.0103176
0.00577985
0.0143913
0.00534502
0.0193152
0.00466612
0.0251776
0.00370714
0.0320659
0.00242357
0.0400639
0.000763676
0.0492538
-0.00133658
0.0597138
-0.0039479
0.0714866
-0.00710161
0.084729
-0.0110794
0.0991543
-0.0151711
-0.0219983
0.115589
-0.000163245
0.000238825
-0.000476561
0.000861159
-0.000800397
0.00155809
-0.00102005
0.00225926
-0.00104187
0.00290513
-0.000787449
0.00344489
-0.000187528
0.0038367
0.000823404
0.00404757
0.00231188
0.00405179
0.00434849
0.00382892
0.00700999
0.00336081
0.0103796
0.00262909
0.0145473
0.00161218
0.019608
0.000284358
0.0256605
-0.0013864
0.0328047
-0.00343703
0.0411386
-0.00591038
0.0507564
-0.00885413
0.0617376
-0.0123177
0.074154
-0.0163643
0.0880234
-0.020971
0.103442
-0.026498
0.120103
-0.0318317
-0.0404208
0.138525
-0.000173161
0.000411986
-0.000485497
0.00117349
-0.000780558
0.00185315
-0.000931026
0.00240973
-0.000830883
0.00280499
-0.000388384
0.00300239
0.000480381
0.00296794
0.00185724
0.00267071
0.00382621
0.00208281
0.00647649
0.00117864
0.00990469
-6.73881e-05
0.0142125
-0.00167868
0.0195078
-0.00368319
0.0259001
-0.00610793
0.0334954
-0.00898172
0.0423918
-0.0123334
0.0526718
-0.0161904
0.0643949
-0.0205772
0.0775873
-0.0255102
0.0922346
-0.0310116
0.108269
-0.0370056
0.125554
-0.0437828
0.143912
-0.0501902
-0.0595366
0.163028
-0.000177092
0.000589078
-0.000471874
0.00146828
-0.000710002
0.00209128
-0.000748754
0.00244848
-0.000465139
0.00252138
0.000252344
0.00228491
0.00151054
0.00170974
0.0034166
0.000764651
0.00608161
-0.000582197
0.0096207
-0.00236045
0.014152
-0.00459865
0.0197939
-0.00732064
0.0266567
-0.010546
0.0348362
-0.0142875
0.0444049
-0.0185503
0.0554022
-0.0233307
0.0678265
-0.0286146
0.081627
-0.0343778
0.0966975
-0.0405807
0.112871
-0.0471845
0.129937
-0.0540724
0.147514
-0.0613592
0.165554
-0.0682305
-0.0768945
0.182912
-0.00016267
0.000751748
-0.000395009
0.00170062
-0.000505682
0.00220195
-0.000333288
0.00227609
0.000267519
0.00192057
0.0014346
0.00111783
0.00330408
-0.00015975
0.00601178
-0.00194305
0.00969408
-0.0042645
0.0144831
-0.00714948
0.0204987
-0.0106142
0.0278394
-0.0146614
0.0365713
-0.0192778
0.0467171
-0.0244333
0.0582474
-0.0300806
0.071074
-0.0361573
0.0850472
-0.0425878
0.0999575
-0.0492881
0.115538
-0.0561617
0.131486
-0.0631319
0.147471
-0.0700576
0.163101
-0.0769896
0.178295
-0.0834237
-0.090406
0.191806
-0.000122303
-0.000228553
-0.000112515
0.000407497
0.00150273
0.00333906
0.00607794
0.00987519
0.0148711
0.0211803
0.0288778
0.0379862
0.0484645
0.0602024
0.0730203
0.0866742
0.100868
0.115267
0.129521
0.143287
0.156249
0.168183
0.179028
0.188859
-0.0208247
0.0639897
-0.0696545
-0.0138065
0.0651639
-0.0721821
-0.00548432
0.0636264
-0.0719486
0.00404767
0.058897
-0.068429
0.0145607
0.0505463
-0.0610593
0.0256987
0.0382845
-0.0494225
0.0371147
0.02206
-0.0334759
0.0484768
0.00190207
-0.0132642
0.0596102
-0.0216618
0.0105285
0.0703598
-0.0481868
0.0374371
0.0806264
-0.0761011
0.0658345
0.0900774
-0.102868
0.0934167
0.0981066
-0.125415
0.117386
0.104088
-0.141411
0.13543
0.107691
-0.150248
0.146645
0.108763
-0.152956
0.151884
0.106886
-0.152088
0.153964
0.10179
-0.151565
0.156661
0.0947195
-0.153884
0.160955
0.0889164
-0.15555
0.161353
0.0879367
-0.146468
0.147448
0.0931278
-0.116639
0.111448
0.103278
-0.0647208
0.0545706
0.115896
0.000285941
-0.0129044
0.128545
0.0649871
-0.0776353
0.139142
0.117514
-0.128111
0.146496
0.15317
-0.160524
0.150726
0.17318
-0.17741
0.152411
0.181688
-0.183374
0.151225
0.186654
-0.185468
0.146492
0.197029
-0.192296
0.139269
0.21259
-0.205367
0.132833
0.214505
-0.208068
0.13045
0.18046
-0.178077
0.133045
0.102855
-0.105449
0.139229
0.00296856
-0.0091535
0.146498
-0.0911756
0.0839074
0.152932
-0.157923
0.151489
0.157081
-0.194371
0.190221
0.157277
-0.212936
0.21274
0.152378
-0.225129
0.230027
0.143956
-0.240216
0.248639
0.136249
-0.227549
0.235256
0.133546
-0.180597
0.1833
0.136749
-0.0784169
0.0752141
0.143898
0.0281687
-0.0353174
0.150492
0.123622
-0.130217
0.152215
0.19687
-0.198593
0.148156
0.240534
-0.236475
0.142007
0.288154
-0.282005
0.13877
0.238787
-0.23555
0.141132
0.178447
-0.180809
0.145676
0.0328841
-0.0374289
0.147793
-0.0856245
0.0835074
0.146172
-0.175203
0.176825
0.14359
-0.315307
0.317889
0.142483
-0.247468
0.248576
0.142091
-0.269242
0.269633
0.14076
-0.0668497
0.0681809
0.147818
-0.145839
0.00361045
0.0565727
0.0119767
0.0567977
0.0212181
0.054385
0.0311559
0.0489592
0.0415001
0.0402021
0.0519212
0.0278634
0.062145
0.0118362
0.0718605
-0.00781343
0.0810714
-0.0308727
0.0896616
-0.056777
0.0975142
-0.0839536
0.104285
-0.109639
0.109445
-0.130575
0.112514
-0.14448
0.11336
-0.151094
0.112193
-0.151789
0.108921
-0.148816
0.102927
-0.145571
0.094435
-0.145392
0.0860047
-0.14712
0.0817852
-0.142249
0.0845811
-0.119435
0.093987
-0.0741268
0.107487
-0.0132137
0.12191
0.0505638
0.134661
0.104763
0.144225
0.143605
0.15051
0.166895
0.153839
0.17836
0.153856
0.186636
0.150234
0.200652
0.144274
0.21855
0.138924
0.219854
0.136842
0.182542
0.138757
0.10094
0.143596
-0.0018707
0.149159
-0.0967386
0.153836
-0.1626
0.15653
-0.197064
0.155853
-0.21226
0.150475
-0.219751
0.141652
-0.231392
0.133616
-0.219514
0.131035
-0.178016
0.13499
-0.0823718
0.143096
0.0200631
0.150474
0.116244
0.152645
0.194699
0.148965
0.244214
0.142965
0.294154
0.139575
0.242177
0.141774
0.176249
0.146271
0.0283872
0.148455
-0.0878086
0.146605
-0.173353
0.14383
-0.312532
0.142592
-0.24623
0.141984
-0.268634
0.140498
-0.0653637
0.149851
0.0310349
0.0483767
0.0399388
0.0478938
0.0493249
0.0449989
0.0589557
0.0393284
0.0685436
0.0306142
0.0778071
0.0186
0.0865375
0.00310571
0.0945597
-0.0158356
0.101812
-0.0381255
0.108239
-0.0632036
0.113661
-0.0893754
0.11771
-0.113689
0.119973
-0.132838
0.120206
-0.144713
0.118493
-0.149381
0.115278
-0.148574
0.11081
-0.144348
0.104437
-0.139198
0.0954766
-0.136432
0.0853473
-0.136991
0.0781323
-0.135034
0.0779794
-0.119283
0.0858507
-0.0819981
0.0994948
-0.0268577
0.115218
0.0348408
0.129876
0.0901051
0.141608
0.131874
0.14999
0.158512
0.155061
0.173289
0.156502
0.185195
0.154299
0.202855
0.149813
0.223036
0.145534
0.224133
0.143594
0.184482
0.144578
0.0999564
0.147899
-0.00519205
0.151688
-0.100528
0.154607
-0.165519
0.155876
-0.198333
0.154433
-0.210817
0.148788
-0.214106
0.139765
-0.222369
0.131465
-0.211214
0.1289
-0.175451
0.133433
-0.0869047
0.142337
0.0111588
0.150469
0.108112
0.153164
0.192005
0.149969
0.247409
0.144173
0.29995
0.1406
0.24575
0.142565
0.174284
0.146981
0.023971
0.149242
-0.0900694
0.147155
-0.171266
0.144135
-0.309513
0.142777
-0.244872
0.142008
-0.267866
0.140407
-0.0637625
0.151921
0.0581037
0.039941
0.0669609
0.0390367
0.0760043
0.0359555
0.0849687
0.0303641
0.093586
0.0219969
0.101573
0.010613
0.108992
-0.00431313
0.115472
-0.0223156
0.12102
-0.0436732
0.1255
-0.067684
0.128633
-0.0925086
0.130027
-0.115082
0.129421
-0.132232
0.126907
-0.142199
0.122867
-0.145341
0.117853
-0.14356
0.112343
-0.138838
0.105943
-0.132798
0.0974164
-0.127905
0.0867996
-0.126374
0.0772835
-0.125518
0.0738566
-0.115856
0.079282
-0.0874234
0.0920404
-0.0396161
0.108497
0.018384
0.124745
0.0738573
0.138544
0.118075
0.14903
0.148026
0.15594
0.166379
0.159018
0.182116
0.1585
0.203373
0.15565
0.225887
0.152429
0.227354
0.15046
0.186451
0.150377
0.100039
0.152042
-0.00685686
0.154044
-0.10253
0.155246
-0.166721
0.155123
-0.19821
0.15298
-0.208675
0.147242
-0.208368
0.138229
-0.213355
0.129754
-0.202739
0.127092
-0.172789
0.132011
-0.091824
0.14157
0.00159946
0.150439
0.0992431
0.153753
0.188691
0.151166
0.249996
0.145648
0.305468
0.141874
0.249523
0.143524
0.172634
0.147792
0.0197028
0.150139
-0.0924165
0.147814
-0.168941
0.144498
-0.306197
0.143029
-0.243403
0.142149
-0.266985
0.140474
-0.0620872
0.154012
0.0823643
0.0316014
0.0908483
0.0305526
0.0993177
0.0274861
0.107526
0.0221552
0.115253
0.0142704
0.122279
0.00358666
0.128603
-0.0106371
0.133935
-0.0276476
0.13813
-0.0478681
0.140898
-0.0704518
0.141835
-0.0934454
0.140613
-0.113861
0.137254
-0.128873
0.132228
-0.137173
0.126214
-0.139327
0.119804
-0.13715
0.113469
-0.132502
0.107134
-0.126463
0.0995792
-0.120351
0.0896772
-0.116472
0.0790653
-0.114906
0.0725761
-0.109367
0.074671
-0.0895183
0.0855467
-0.0504919
0.101887
0.00204328
0.11926
0.0564848
0.134908
0.102426
0.147422
0.135513
0.156227
0.157574
0.161128
0.177216
0.162513
0.201987
0.16145
0.226951
0.159321
0.229482
0.157243
0.188529
0.155956
0.101326
0.155925
-0.00682579
0.156154
-0.102758
0.155712
-0.166278
0.154249
-0.196748
0.151461
-0.205887
0.145772
-0.202678
0.136968
-0.204551
0.128426
-0.194196
0.125566
-0.169929
0.130659
-0.0969171
0.140733
-0.00847437
0.150333
0.0896429
0.154376
0.184648
0.152532
0.25184
0.147382
0.310619
0.143411
0.253494
0.144652
0.171394
0.148697
0.015657
0.151129
-0.0948478
0.148574
-0.166386
0.144915
-0.302538
0.14334
-0.241828
0.142394
-0.266039
0.140687
-0.0603804
0.1561
0.103158
0.0236219
0.11114
0.0225708
0.119031
0.0195954
0.126582
0.0146034
0.133478
0.00737456
0.140084
-0.00301945
0.145486
-0.0160387
0.149848
-0.03201
0.152785
-0.0508051
0.153857
-0.0715236
0.152616
-0.0922044
0.148905
-0.11015
0.14308
-0.123048
0.135937
-0.13003
0.128377
-0.131767
0.121016
-0.12979
0.114174
-0.12566
0.107912
-0.120202
0.101419
-0.113857
0.0930833
-0.108136
0.0828184
-0.104641
0.074189
-0.100737
0.0725935
-0.0879227
0.0804166
-0.058315
0.0956003
-0.0131404
0.113447
0.038638
0.130573
0.0853007
0.144937
0.121149
0.155634
0.146876
0.162483
0.170368
0.165938
0.198532
0.1668
0.226089
0.165842
0.23044
0.163687
0.190685
0.16116
0.103852
0.159436
-0.00510153
0.157945
-0.101267
0.155957
-0.16429
0.153225
-0.194016
0.149829
-0.202491
0.144295
-0.197144
0.13588
-0.196137
0.12739
-0.185706
0.124251
-0.16679
0.129313
-0.101979
0.139752
-0.0189136
0.150084
0.0793109
0.154976
0.179756
0.154024
0.252791
0.149348
0.315295
0.145201
0.257641
0.145951
0.170643
0.149677
0.0119317
0.152188
-0.0973587
0.149419
-0.163618
0.145377
-0.298495
0.143699
-0.240151
0.142726
-0.265066
0.141031
-0.0586847
0.158158
0.12263
0.0165802
0.129793
0.0154084
0.136932
0.0124567
0.143773
0.00776162
0.149985
0.00116295
0.155697
-0.00873148
0.160251
-0.0205932
0.163466
-0.0352247
0.164895
-0.0522338
0.164041
-0.0706696
0.16055
-0.088713
0.154524
-0.104124
0.146634
-0.115159
0.137897
-0.121293
0.129287
-0.123156
0.121395
-0.121898
0.114381
-0.118646
0.108239
-0.11406
0.102592
-0.10821
0.0960783
-0.101623
0.0874196
-0.0959821
0.0781763
-0.0914938
0.0733177
-0.0830641
0.0773012
-0.0622985
0.0899273
-0.0257666
0.107413
0.0211526
0.125462
0.0672518
0.141391
0.10522
0.153898
0.134368
0.162745
0.161521
0.168378
0.192898
0.17127
0.223197
0.171559
0.230151
0.169437
0.192807
0.165821
0.107468
0.16246
-0.00174097
0.159338
-0.098145
0.155927
-0.16088
0.152016
-0.190105
0.14804
-0.198515
0.142728
-0.191832
0.134852
-0.18826
0.126537
-0.177391
0.123064
-0.163317
0.127903
-0.106818
0.138554
-0.0295646
0.149615
0.0682494
0.155481
0.17389
0.155577
0.252695
0.151493
0.319379
0.14722
0.261915
0.147407
0.170456
0.150709
0.0086296
0.153289
-0.0999386
0.150333
-0.160662
0.145877
-0.29404
0.144098
-0.238371
0.143133
-0.264101
0.14149
-0.0570417
0.160155
0.143779
0.0113262
0.149441
0.00974708
0.155187
0.00671012
0.16051
0.00243889
0.165897
-0.00422372
0.170009
-0.0128443
0.173066
-0.0236493
0.174541
-0.0367002
0.173969
-0.0516615
0.170906
-0.0676074
0.165199
-0.0830053
0.157215
-0.0961397
0.14783
-0.105774
0.13812
-0.111583
0.128986
-0.114022
0.12093
-0.113842
0.114014
-0.111729
0.108101
-0.108146
0.103026
-0.103135
0.0980373
-0.0966343
0.0916018
-0.0895465
0.0833981
-0.0832901
0.0766438
-0.0763098
0.0765679
-0.0622226
0.0855364
-0.034735
0.101407
0.00528185
0.119584
0.049075
0.136661
0.0881425
0.150814
0.120215
0.161631
0.150704
0.169453
0.185077
0.174404
0.218246
0.17604
0.228515
0.174128
0.194719
0.169663
0.111933
0.164872
0.00305059
0.160233
-0.0935064
0.155551
-0.156197
0.150576
-0.18513
0.146041
-0.193981
0.140986
-0.186777
0.133768
-0.181042
0.125747
-0.169371
0.121918
-0.159487
0.126362
-0.111261
0.137066
-0.0402694
0.148845
0.0564711
0.155802
0.166932
0.157101
0.251396
0.153746
0.322734
0.149419
0.266242
0.148993
0.170882
0.151775
0.00584697
0.154404
-0.102568
0.151292
-0.157549
0.146407
-0.289155
0.144528
-0.236492
0.143597
-0.26317
0.142049
-0.0554936
0.162055
0.166016
0.00833789
0.169589
0.00617471
0.17317
0.00312885
0.176762
-0.00115256
0.179748
-0.00721036
0.181838
-0.0149339
0.182713
-0.0245248
0.181928
-0.0359146
0.179061
-0.0487952
0.173818
-0.0623646
0.166262
-0.0754493
0.156938
-0.0868153
0.146762
-0.0955983
0.136716
-0.101536
0.127538
-0.104844
0.119603
-0.105907
0.112937
-0.105064
0.107354
-0.102564
0.102703
-0.0984832
0.0987223
-0.0926538
0.094366
-0.0851903
0.0883386
-0.0772627
0.081595
-0.0695662
0.0784153
-0.0590429
0.0830493
-0.0393691
0.0959084
-0.00757727
0.113088
0.031895
0.13069
0.0705409
0.146206
0.104699
0.158898
0.138012
0.16894
0.175035
0.176044
0.211142
0.179099
0.225459
0.177513
0.196305
0.17249
0.116956
0.166479
0.00906206
0.160527
-0.0875548
0.15473
-0.1504
0.148831
-0.17923
0.143762
-0.188912
0.138974
-0.181989
0.132516
-0.174583
0.124901
-0.161756
0.120715
-0.155301
0.124622
-0.115169
0.135232
-0.0508786
0.14769
0.0440132
0.155846
0.158776
0.158501
0.248741
0.156014
0.325221
0.151735
0.270521
0.150667
0.17195
0.152854
0.00366007
0.155499
-0.105213
0.152274
-0.154324
0.146958
-0.28384
0.144985
-0.234519
0.144107
-0.262292
0.142694
-0.0540812
0.163817
0.183965
0.00728461
0.185514
0.00462617
0.18693
0.00171236
0.188159
-0.00238137
0.188759
-0.00781017
0.188568
-0.0147427
0.187151
-0.0231082
0.184164
-0.0329274
0.17929
-0.0439213
0.172406
-0.0554802
0.163726
-0.0667695
0.153839
-0.0769285
0.143565
-0.0853246
0.133702
-0.0916727
0.124813
-0.0959549
0.11717
-0.0982644
0.110805
-0.0987
0.105585
-0.0973429
0.101338
-0.094236
0.0979867
-0.089303
0.0951254
-0.082329
0.0915285
-0.0736657
0.0864791
-0.0645168
0.0821414
-0.0547052
0.0829851
-0.0402128
0.0916269
-0.0162191
0.106443
0.0170789
0.123598
0.0533856
0.140002
0.0882953
0.154365
0.123649
0.166488
0.162912
0.175674
0.201956
0.180302
0.220831
0.179346
0.19726
0.174128
0.122173
0.167277
0.0159132
0.16018
-0.0804571
0.153394
-0.143615
0.146724
-0.172561
0.141157
-0.183344
0.136615
-0.177448
0.131006
-0.168974
0.123912
-0.154662
0.119371
-0.15076
0.122624
-0.118421
0.132994
-0.0612491
0.146077
0.0309298
0.155512
0.149342
0.159649
0.244603
0.158183
0.326687
0.154084
0.274621
0.152421
0.173613
0.153891
0.00218962
0.15654
-0.107862
0.153254
-0.151038
0.147525
-0.278111
0.145466
-0.232459
0.144646
-0.261472
0.143411
-0.0528464
0.165396
0.192025
0.0070655
0.192158
0.00449329
0.191934
0.001936
0.191403
-0.0018502
0.19034
-0.00674644
0.188426
-0.0128288
0.185379
-0.0200613
0.180935
-0.0284837
0.174909
-0.0378952
0.167308
-0.047879
0.158405
-0.0578668
0.148731
-0.0672539
0.138942
-0.075536
0.129642
-0.082373
0.121253
-0.0875659
0.11399
-0.0910009
0.107907
-0.0926176
0.102962
-0.0923978
0.0990368
-0.0903105
0.0960619
-0.0863281
0.0940078
-0.0802748
0.0922663
-0.0719243
0.0896098
-0.0618603
0.0861267
-0.0512221
0.0847973
-0.0388835
0.0893682
-0.02079
0.10051
0.00593723
0.115881
0.0380141
0.13235
0.071827
0.148107
0.107892
0.162406
0.148612
0.17392
0.190443
0.180143
0.214608
0.179763
0.197641
0.174839
0.127097
0.16734
0.023412
0.15941
-0.0725266
0.151727
-0.135932
0.144436
-0.165269
0.138396
-0.177304
0.133998
-0.17305
0.129258
-0.164234
0.122783
-0.148188
0.117894
-0.145871
0.120362
-0.120889
0.130309
-0.0711959
0.143921
0.0173174
0.154717
0.138546
0.160482
0.238838
0.160161
0.327007
0.156379
0.278403
0.154174
0.175818
0.154914
0.00144897
0.157506
-0.110454
0.154214
-0.147746
0.148113
-0.27201
0.145964
-0.23031
0.145204
-0.260712
0.144187
-0.0518289
0.166745
0.188901
0.00702291
0.188202
0.0051929
0.187457
0.00268106
0.186338
-0.000731366
0.184523
-0.00493117
0.18187
-0.0101763
0.178227
-0.0164184
0.17341
-0.0236671
0.167326
-0.031811
0.160044
-0.0405968
0.151825
-0.0496477
0.143092
-0.0585207
0.134331
-0.0667756
0.12598
-0.0740214
0.118354
-0.0799398
0.11164
-0.0842869
0.105913
-0.086891
0.10119
-0.0876745
0.097438
-0.0865589
0.0945968
-0.0834869
0.0927363
-0.0784143
0.0918176
-0.0710056
0.0909983
-0.0610409
0.0892948
-0.0495186
0.0876861
-0.0372748
0.0892164
-0.0223202
0.0962639
-0.0011103
0.108534
0.0257439
0.123552
0.0568086
0.139449
0.0919955
0.155174
0.132887
0.16886
0.176757
0.177021
0.206448
0.178104
0.196557
0.174157
0.131044
0.167122
0.0304466
0.158236
-0.0636402
0.14983
-0.127526
0.142141
-0.157581
0.135698
-0.170861
0.131283
-0.168635
0.127339
-0.160289
0.121545
-0.142394
0.116336
-0.140662
0.117945
-0.122499
0.127333
-0.0805832
0.141269
0.00338086
0.153316
0.126499
0.160758
0.231397
0.161773
0.325992
0.158532
0.281644
0.15587
0.17848
0.155898
0.00142075
0.158368
-0.112924
0.155135
-0.144512
0.148713
-0.265588
0.146452
-0.228049
0.145781
-0.260041
0.145015
-0.051063
0.167816
0.206682
0.00682853
-0.206487
0.207403
0.00447134
0.208114
0.00196989
0.208758
-0.00137468
0.209286
-0.00545929
0.209504
-0.0103942
0.209254
-0.0161686
0.208326
-0.0227396
0.20653
-0.0300142
0.203742
-0.037809
0.199935
-0.0458413
0.195178
-0.0537634
0.189607
-0.0612048
0.183394
-0.0678077
0.176715
-0.073261
0.169747
-0.0773189
0.16265
-0.0797938
0.155564
-0.0805894
0.148614
-0.0796087
0.141855
-0.0767273
0.135348
-0.0719081
0.129283
-0.06494
0.123523
-0.055281
0.117225
-0.0432211
0.110016
-0.0300656
0.1035
-0.0158042
0.100436
0.00195363
0.101729
0.0244516
0.106794
0.0517432
0.113798
0.0849914
0.121646
0.125039
0.129972
0.168431
0.139512
0.196908
0.152325
0.183744
0.167036
0.116333
0.177268
0.0202143
0.180794
-0.0671657
0.178064
-0.124797
0.171353
-0.150869
0.163021
-0.16253
0.155301
-0.160915
0.147974
-0.152962
0.139386
-0.133807
0.130776
-0.132052
0.12679
-0.118512
0.128514
-0.0823075
0.133282
-0.00138737
0.137247
0.122534
0.139629
0.229016
0.141394
0.324227
0.143949
0.279089
0.147929
0.1745
0.1523
-0.00295069
0.155357
-0.115981
0.152353
-0.141508
0.144646
-0.257881
0.139865
-0.223268
0.136102
-0.256278
0.13265
-0.0476106
0.169378
0.217371
0.00652117
-0.217063
0.2178
0.00404175
0.21845
0.00132047
0.218993
-0.00191782
0.219299
-0.0057659
0.219227
-0.0103222
0.218647
-0.015588
0.217415
-0.0215073
0.215395
-0.0279949
0.212494
-0.0349081
0.208681
-0.0420275
0.203991
-0.0490737
0.198522
-0.0557357
0.192416
-0.061702
0.185845
-0.0666897
0.178992
-0.0704657
0.172032
-0.0728342
0.165111
-0.0736685
0.158352
-0.0728497
0.151841
-0.0702161
0.145606
-0.0656732
0.13977
-0.0591039
0.134467
-0.0499776
0.129256
-0.03801
0.12333
-0.0241405
0.116909
-0.00938298
0.112165
0.00669742
0.111087
0.0255299
0.114264
0.0485667
0.120782
0.0784735
0.129348
0.116473
0.139037
0.158742
0.150812
0.185134
0.166166
0.16839
0.182094
0.100405
0.192526
0.00978221
0.194778
-0.0694171
0.190677
-0.120696
0.182842
-0.143035
0.173636
-0.153324
0.165252
-0.152531
0.157797
-0.145507
0.149257
-0.125267
0.140259
-0.123054
0.135525
-0.113778
0.136763
-0.0835454
0.141666
-0.00629011
0.146233
0.117967
0.149555
0.225693
0.152474
0.321308
0.155922
0.275641
0.160146
0.170277
0.164124
-0.00692923
0.166933
-0.11879
0.163341
-0.137916
0.15464
-0.24918
0.149186
-0.217814
0.145013
-0.252105
0.141309
-0.0439064
0.170969
0.227289
0.00611313
-0.226881
0.227749
0.00358125
0.228241
0.000828966
0.228613
-0.00229046