/*--------------------------------*- C++ -*----------------------------------*\
| =========                 |                                                 |
| \\      /  F ield         | OpenFOAM: The Open Source CFD Toolbox           |
|  \\    /   O peration     | Version:  2512                                  |
|   \\  /    A nd           | Website:  www.openfoam.com                      |
|    \\/     M anipulation  |                                                 |
\*---------------------------------------------------------------------------*/
FoamFile
{
    version     2.0;
    format      ascii;
    arch        "LSB;label=32;scalar=64";
    class       volVectorField;
    location    "159";
    object      U;
}
// * * * * * * * * * * * * * * * * * * * * * * * * * * * * * * * * * * * * * //

dimensions      [0 1 -1 0 0 0 0];

internalField   nonuniform List<vector> 
13248
(
(-0.0121797 0.0103628 6.4674e-20)
(-0.0230756 0.0201182 0)
(-0.0219299 0.0231975 -1.22507e-19)
(-0.00866414 0.0226187 1.15406e-19)
(0.0169313 0.0203646 1.07784e-19)
(0.0550304 0.0177677 0)
(0.105688 0.0157534 0)
(0.168678 0.0149647 2.53405e-19)
(0.243328 0.0158232 -3.12714e-21)
(0.328391 0.0185578 -2.17927e-19)
(0.421997 0.0232067 1.9765e-19)
(0.521688 0.0296156 -1.23068e-19)
(0.62455 0.0374447 0)
(0.727414 0.0461928 -2.04076e-19)
(0.827087 0.05524 3.79664e-19)
(0.920591 0.0639048 -8.92126e-20)
(1.00537 0.071512 -1.6018e-19)
(1.07948 0.0774348 1.50369e-19)
(1.14163 0.0812384 0)
(1.19134 0.082356 0)
(1.22881 0.0813389 0)
(1.25499 0.0758166 0)
(1.27094 0.0720286 4.84461e-20)
(1.27958 0.054024 1.81598e-19)
(-0.0128361 0.010078 -1.95498e-19)
(-0.0202546 0.0183676 1.33594e-19)
(-0.0110324 0.020297 -1.1992e-21)
(0.0140817 0.0189308 -1.76536e-19)
(0.0547642 0.0164125 -1.07664e-19)
(0.11069 0.0142552 -1.01601e-19)
(0.181235 0.0134955 -1.84525e-19)
(0.265214 0.0147963 1.74877e-19)
(0.360684 0.0184982 0)
(0.46488 0.024638 1.58832e-21)
(0.574315 0.0329628 3.86493e-21)
(0.685028 0.0429605 1.24415e-19)
(0.792935 0.0539178 0)
(0.894205 0.0650037 0)
(0.985595 0.0753659 1.40358e-19)
(1.06471 0.0842267 -2.635e-19)
(1.13016 0.0909634 1.57944e-19)
(1.18157 0.0951609 -1.48282e-19)
(1.21953 0.0966356 -6.61691e-20)
(1.24545 0.095408 -1.21524e-19)
(1.2612 0.0917402 -5.21449e-20)
(1.2692 0.0857007 -9.85038e-20)
(1.27087 0.079032 1.42012e-19)
(1.27046 0.0681296 4.15188e-20)
(-0.0121675 0.00885755 0)
(-0.0133748 0.0147281 0)
(0.00690298 0.0154543 6.24477e-20)
(0.0470372 0.013909 5.7367e-20)
(0.105963 0.0122386 -1.70352e-21)
(0.182475 0.0120115 -1.05419e-19)
(0.274721 0.0142286 0)
(0.379905 0.0193853 -8.65783e-20)
(0.494198 0.027514 8.10686e-20)
(0.612913 0.0382215 1.07233e-21)
(0.730908 0.0507596 -1.35419e-19)
(0.843143 0.0641393 -1.22469e-19)
(0.945221 0.0772762 3.08644e-21)
(1.03383 0.0891417 -9.92716e-20)
(1.107 0.0988931 2.39272e-19)
(1.16418 0.105962 0)
(1.2061 0.110091 -1.5483e-19)
(1.23451 0.11131 7.47916e-20)
(1.25183 0.10991 6.61142e-20)
(1.2607 0.106232 0)
(1.26369 0.10101 5.50519e-20)
(1.26289 0.0940094 -1.92162e-19)
(1.25964 0.0877567 1.80391e-19)
(1.25653 0.0773151 1.16326e-19)
(-0.00985309 0.00685642 -6.96681e-20)
(-0.00156488 0.00959977 -7.2116e-20)
(0.0330798 0.0093174 6.49991e-20)
(0.0914404 0.00847029 0)
(0.171356 0.00902761 0)
(0.27017 0.0124206 -2.47108e-21)
(0.384102 0.0193643 0)
(0.508093 0.0298881 -2.65669e-19)
(0.636064 0.043415 2.45658e-19)
(0.761528 0.058892 -3.01252e-19)
(0.878394 0.0749862 6.80422e-20)
(0.981721 0.0903186 0)
(1.06825 0.103684 1.11736e-19)
(1.1366 0.114215 -2.06385e-19)
(1.1872 0.121456 4.88279e-20)
(1.2219 0.125362 1.24749e-19)
(1.24348 0.126214 -5.5697e-21)
(1.25507 0.124506 -1.39715e-19)
(1.25969 0.120804 0)
(1.25987 0.115665 0)
(1.25745 0.109583 -5.03374e-20)
(1.25362 0.102704 4.53795e-20)
(1.24897 0.0963245 1.64605e-19)
(1.24462 0.0870638 -1.5452e-19)
(-0.00557902 0.00432083 -7.38447e-20)
(0.0159846 0.00368154 -7.33708e-20)
(0.0685279 0.00301414 2.06243e-19)
(0.148117 0.0041341 -1.24693e-19)
(0.250942 0.00858969 1.1737e-19)
(0.372154 0.0173738 2.12063e-19)
(0.505338 0.0305483 -1.49799e-19)
(0.642816 0.0473094 -1.80856e-19)
(0.776515 0.0662125 4.60239e-21)
(0.899094 0.0854885 2.2903e-19)
(1.00497 0.103397 0)
(1.09091 0.118534 6.24017e-20)
(1.15619 0.130021 0)
(1.20219 0.137554 -1.00174e-19)
(1.23179 0.141326 1.40506e-19)
(1.24863 0.141871 9.63904e-22)
(1.25633 0.139883 -3.68509e-20)
(1.25807 0.13605 6.84739e-20)
(1.25627 0.130966 5.95192e-20)
(1.25255 0.125062 -5.34789e-20)
(1.24788 0.118679 5.03269e-20)
(1.24276 0.111868 -4.53696e-20)
(1.2374 0.105451 0)
(1.23246 0.0969375 -3.47344e-20)
(0.000975042 0.0015571 7.38341e-20)
(0.039972 -0.00210994 7.76758e-20)
(0.113923 -0.00198539 -6.91461e-20)
(0.217133 0.0027895 1.28654e-19)
(0.343407 0.0129797 -1.21091e-19)
(0.484936 0.0287074 1.08921e-19)
(0.632277 0.0489438 -5.24725e-20)
(0.775461 0.0717547 1.35953e-19)
(0.90556 0.0947995 -8.56177e-20)
(1.01606 0.115861 1.50072e-19)
(1.10362 0.133265 -3.45573e-19)
(1.16802 0.146102 1.26961e-19)
(1.21155 0.154223 -1.09656e-19)
(1.23803 0.158072 1.03e-19)
(1.2518 0.158438 8.82847e-20)
(1.25691 0.156207 7.71265e-20)
(1.25665 0.152184 -2.15107e-19)
(1.25339 0.147 1.33293e-19)
(1.24863 0.141095 -5.95226e-20)
(1.24324 0.134756 1.55798e-19)
(1.23765 0.128157 -5.0331e-20)
(1.23205 0.121378 -1.2308e-19)
(1.22649 0.114827 1.1372e-19)
(1.22121 0.106861 3.47243e-20)
(0.0101159 -0.00107836 0)
(0.0708737 -0.00671418 7.38961e-22)
(0.169347 -0.00405543 1.45277e-19)
(0.297456 0.00635894 -1.36174e-19)
(0.445824 0.0240009 -1.22278e-19)
(0.603194 0.0476057 2.26948e-19)
(0.7574 0.0746974 -1.05245e-19)
(0.89743 0.10219 1.39243e-19)
(1.01536 0.127192 -3.39508e-21)
(1.10732 0.147614 -7.85693e-20)
(1.1734 0.16243 1.69574e-19)
(1.21665 0.171618 -2.50202e-19)
(1.24175 0.175871 0)
(1.25374 0.176243 -4.87067e-20)
(1.25712 0.173829 -1.29249e-19)
(1.25537 0.16957 4.07829e-20)
(1.25091 0.164165 1.62603e-21)
(1.24521 0.158082 -8.85388e-20)
(1.2391 0.15161 5.61442e-21)
(1.23297 0.14492 1.02421e-19)
(1.22696 0.138114 -4.57366e-20)
(1.22112 0.13126 -1.74475e-20)
(1.2154 0.124508 5.35429e-20)
(1.20988 0.116948 0)
(0.0220812 -0.00317362 0)
(0.108796 -0.00898337 3.94813e-20)
(0.234079 -0.00158684 -1.90394e-19)
(0.386783 0.0164943 6.90236e-20)
(0.553768 0.042821 -6.49617e-20)
(0.720494 0.0742865 -5.92774e-20)
(0.873303 0.106904 -1.04081e-19)
(1.00211 0.136826 5.23058e-20)
(1.10191 0.161279 4.50218e-20)
(1.17266 0.178949 0)
(1.218 0.189858 1.01215e-19)
(1.24343 0.194938 -1.5031e-19)
(1.25478 0.195533 1.11574e-19)
(1.25712 0.192994 4.87325e-20)
(1.25426 0.188442 -3.97768e-20)
(1.24877 0.182688 -3.29305e-20)
(1.2422 0.176257 -3.06616e-20)
(1.23536 0.169465 9.22633e-20)
(1.22864 0.162489 0)
(1.22218 0.155431 4.61558e-20)
(1.216 0.148353 3.87924e-20)
(1.21006 0.141305 -9.6418e-20)
(1.20429 0.134297 -6.6126e-20)
(1.19866 0.12699 6.09806e-20)
(0.036969 -0.00426324 -4.3102e-20)
(0.15334 -0.00774784 -1.81454e-21)
(0.306485 0.00685276 3.88317e-20)
(0.481652 0.0343455 1.08547e-19)
(0.661905 0.0697854 3.14178e-20)
(0.830481 0.108041 -6.08406e-20)
(0.974228 0.143993 5.53732e-20)
(1.08605 0.173776 -4.82122e-20)
(1.16513 0.195474 8.62172e-20)
(1.21534 0.208994 3.6336e-20)
(1.24303 0.215471 -1.03479e-19)
(1.25493 0.216581 3.02277e-20)
(1.25688 0.214003 5.12969e-20)
(1.25322 0.20911 -2.52939e-20)
(1.24683 0.20288 0)
(1.23939 0.195935 3.71928e-20)
(1.23178 0.188639 6.25987e-20)
(1.22441 0.181189 1.04704e-20)
(1.21741 0.173692 -5.20187e-20)
(1.21082 0.16621 2.16162e-20)
(1.20457 0.158785 0)
(1.1986 0.151439 -1.69021e-20)
(1.19282 0.14414 -1.61205e-20)
(1.18715 0.136935 0)
(0.0546714 -0.00384953 0)
(0.203509 -0.00190705 2.26335e-20)
(0.384053 0.022368 4.18308e-20)
(0.57781 0.0604245 -1.1102e-19)
(0.764818 0.104442 3.59933e-20)
(0.927989 0.147534 0)
(1.05688 0.184237 5.34541e-20)
(1.14886 0.211531 -7.46115e-20)
(1.20752 0.228901 -4.31335e-20)
(1.23991 0.237589 1.93602e-20)
(1.25384 0.239647 -3.07727e-20)
(1.2562 0.237176 7.48165e-20)
(1.25211 0.231906 3.7029e-20)
(1.24493 0.225063 -2.59475e-20)
(1.23663 0.21742 -2.6273e-21)
(1.22821 0.209415 -6.96054e-20)
(1.22013 0.201285 3.16124e-20)
(1.21253 0.193149 -8.50373e-22)
(1.20544 0.185072 0)
(1.19883 0.177095 -2.16389e-20)
(1.19261 0.169242 0)
(1.18669 0.161509 4.85268e-20)
(1.18099 0.153892 -5.75651e-20)
(1.17535 0.146631 2.61957e-20)
(0.0748281 -0.00144026 -1.19127e-20)
(0.257698 0.00946656 -5.71554e-20)
(0.463584 0.0456148 6.51192e-20)
(0.670733 0.0945732 3.80873e-20)
(0.857791 0.145716 -1.81777e-20)
(1.00963 0.191165 3.03834e-20)
(1.12029 0.226113 -1.47641e-20)
(1.19214 0.249097 2.43705e-20)
(1.23256 0.26123 0)
(1.25062 0.264934 5.4589e-20)
(1.25451 0.262856 -2.44464e-21)
(1.25051 0.257226 -4.37021e-20)
(1.24274 0.249638 1.85512e-20)
(1.2336 0.241092 -2.07405e-20)
(1.22433 0.232153 -7.72527e-21)
(1.21547 0.223114 9.11071e-21)
(1.20721 0.21412 -6.90785e-21)
(1.19958 0.205243 -3.73707e-20)
(1.19254 0.196523 2.28569e-20)
(1.18601 0.187985 4.61619e-21)
(1.17991 0.179637 4.04171e-21)
(1.17411 0.171459 3.5408e-21)
(1.16853 0.163512 0)
(1.16299 0.156027 0)
(0.0968857 0.00341602 1.19209e-20)
(0.313909 0.027042 -1.18944e-20)
(0.541647 0.0767257 -2.17143e-20)
(0.756312 0.136023 0)
(0.937376 0.192154 -9.03695e-21)
(1.07379 0.237368 -8.14178e-21)
(1.16508 0.268459 -1.38327e-20)
(1.21824 0.285929 0)
(1.24346 0.292452 0)
(1.25063 0.291328 0)
(1.24757 0.285478 0)
(1.23955 0.277041 0)
(1.22967 0.267372 -1.16189e-20)
(1.21954 0.257236 5.27886e-21)
(1.20987 0.247023 9.09254e-21)
(1.2009 0.236916 4.24494e-21)
(1.19268 0.226999 1.0377e-20)
(1.18518 0.217314 0)
(1.17831 0.207884 -2.43544e-21)
(1.172 0.198722 -2.33702e-21)
(1.16612 0.189815 -4.04817e-21)
(1.16057 0.181154 -3.54648e-21)
(1.15522 0.172865 0)
(1.14991 0.165005 2.48389e-21)
(-0.00103832 -0.0249144 8.75588e-21)
(-0.00724909 -0.0489688 -9.0966e-21)
(-0.019461 -0.0558843 -1.7223e-20)
(-0.034649 -0.0515427 0)
(-0.0511898 -0.040399 -2.31443e-20)
(-0.068312 -0.0255104 7.35001e-21)
(-0.0855068 -0.00868293 -1.36067e-20)
(-0.102405 0.00926242 0)
(-0.118743 0.0281714 0)
(-0.13431 0.0482366 0)
(-0.148906 0.0697749 0)
(-0.16234 0.0930623 0)
(-0.174421 0.118253 2.67991e-22)
(-0.184942 0.145349 -9.01683e-21)
(-0.193678 0.174192 1.63237e-20)
(-0.200385 0.204463 2.31041e-20)
(-0.2048 0.235676 6.84111e-21)
(-0.206649 0.267178 0)
(-0.205664 0.298154 6.37146e-21)
(-0.201605 0.327651 -1.75279e-20)
(-0.194261 0.354628 -1.07942e-20)
(-0.183421 0.378001 -1.01148e-20)
(-0.168973 0.396726 0)
(-0.151427 0.410054 0)
(9.53592e-05 -0.019398 -2.60393e-20)
(-0.00494519 -0.0364857 4.51134e-20)
(-0.0164201 -0.0391456 -1.65833e-20)
(-0.031046 -0.0322727 -3.1964e-20)
(-0.047018 -0.0197064 4.54215e-20)
(-0.0634459 -0.00412935 -2.8337e-20)
(-0.0797603 0.012866 4.0256e-20)
(-0.0955691 0.0305616 2.45764e-20)
(-0.110588 0.0488355 0)
(-0.12458 0.0679 -2.24656e-20)
(-0.137313 0.0880671 1.45525e-22)
(-0.148554 0.109601 1.99033e-20)
(-0.158054 0.132638 2.69172e-20)
(-0.165549 0.157157 3.3673e-20)
(-0.170755 0.182971 -1.65109e-20)
(-0.173368 0.209735 -4.47237e-20)
(-0.173073 0.236945 1.31194e-20)
(-0.169548 0.263949 -5.04294e-20)
(-0.162483 0.289959 0)
(-0.151601 0.314083 1.15285e-20)
(-0.136683 0.335382 1.07766e-20)
(-0.117521 0.352948 1.00979e-20)
(-0.0938405 0.366047 0)
(-0.0659887 0.374498 0)
(0.000694478 -0.0142516 0)
(-0.0035843 -0.0250016 8.67567e-20)
(-0.0141398 -0.0239548 -3.28082e-20)
(-0.0276767 -0.0150413 3.13661e-20)
(-0.04232 -0.00147396 -8.70789e-20)
(-0.0571006 0.0144417 0)
(-0.0714064 0.0313112 -5.13083e-20)
(-0.0848288 0.048492 2.3707e-20)
(-0.0970756 0.0658716 -4.42629e-20)
(-0.107898 0.0836391 1.97644e-20)
(-0.11705 0.102084 1.16925e-19)
(-0.12427 0.121454 -5.48425e-20)
(-0.129276 0.141875 -8.56638e-20)
(-0.13177 0.163318 -3.04452e-20)
(-0.131438 0.185595 5.33229e-22)
(-0.127957 0.208357 1.10321e-19)
(-0.121002 0.231113 -5.15732e-20)
(-0.110258 0.253242 1.44496e-21)
(-0.0954409 0.274008 0)
(-0.0763015 0.292591 -4.10121e-20)
(-0.052669 0.308147 0)
(-0.0244127 0.319894 -3.89906e-20)
(0.00892093 0.327319 1.43742e-19)
(0.0472754 0.330683 2.0535e-21)
(0.000831082 -0.00977825 0)
(-0.00312098 -0.0151413 -7.77728e-22)
(-0.0127809 -0.0111155 3.16649e-20)
(-0.0249815 -0.000772913 -2.96824e-20)
(-0.0378486 0.0132705 2.88899e-20)
(-0.0503648 0.0290781 1.58731e-19)
(-0.0618902 0.0454454 -4.98848e-20)
(-0.07201 0.061791 -4.58221e-20)
(-0.0804382 0.0779889 8.69393e-20)
(-0.0869365 0.0941846 -1.21808e-19)
(-0.091267 0.110626 3.71961e-20)
(-0.0931736 0.127537 3.42932e-20)
(-0.0923786 0.145036 0)
(-0.0885748 0.16309 3.09881e-20)
(-0.0814646 0.181554 0)
(-0.0707458 0.200096 5.07908e-20)
(-0.0561171 0.218273 -9.66435e-20)
(-0.0373137 0.235524 2.36288e-20)
(-0.0141226 0.251192 8.48316e-20)
(0.013625 0.264562 4.09621e-20)
(0.0460094 0.274883 0)
(0.0829876 0.281446 -1.09619e-19)
(0.124848 0.283803 3.44142e-20)
(0.173725 0.282125 0)
(0.000585675 -0.00607098 0)
(-0.00348965 -0.00712649 -9.98922e-20)
(-0.0124753 -0.000966168 -3.11327e-20)
(-0.0233694 0.0100754 -5.88122e-20)
(-0.0343338 0.0239406 5.53787e-20)
(-0.044328 0.039056 -5.24447e-20)
(-0.0526985 0.054411 9.63406e-20)
(-0.0590351 0.0694889 4.49608e-20)
(-0.0630708 0.0841469 -1.27097e-19)
(-0.0645983 0.0984779 7.756e-20)
(-0.0634145 0.112674 -1.09225e-19)
(-0.0593035 0.126925 2.32576e-19)
(-0.0520473 0.141331 -1.25254e-19)
(-0.0413489 0.155896 5.63869e-20)
(-0.0269496 0.170483 1.58227e-19)
(-0.0086406 0.184816 -5.18042e-20)
(0.0138294 0.198526 -4.56976e-20)
(0.0406497 0.211132 -4.4152e-20)
(0.0719537 0.222085 0)
(0.107815 0.230785 -7.64665e-20)
(0.148231 0.236605 -7.39902e-20)
(0.193199 0.238901 1.02933e-19)
(0.24172 0.237307 1.36337e-19)
(0.301027 0.230982 -1.26792e-19)
(3.45079e-06 -0.00303783 0)
(-0.00465823 -0.000812126 -1.29911e-19)
(-0.0133283 0.00660318 6.79281e-22)
(-0.0231438 0.0175344 1.15682e-19)
(-0.0323188 0.0304585 0)
(-0.0398159 0.0441677 0)
(-0.0449866 0.0578605 0)
(-0.0474368 0.0711038 -4.38777e-20)
(-0.0469289 0.0837538 1.083e-21)
(-0.0433028 0.0958565 7.61637e-20)
(-0.0364082 0.107552 -1.05468e-19)
(-0.0260915 0.118985 8.88287e-22)
(-0.0121888 0.130244 0)
(0.00549015 0.14135 -5.63589e-20)
(0.0271417 0.152173 4.9265e-20)
(0.0529311 0.162523 -1.4165e-19)
(0.0830146 0.172099 1.75787e-19)
(0.117511 0.18052 3.98483e-20)
(0.156499 0.187339 4.81002e-22)
(0.200018 0.192069 -1.4506e-19)
(0.247903 0.194205 -6.80292e-20)
(0.300959 0.193158 2.33596e-19)
(0.354984 0.188892 -1.56679e-19)
(0.426323 0.178516 0)
(-0.000924458 -0.000468004 6.18829e-20)
(-0.00663614 0.00420022 6.47225e-20)
(-0.0153741 0.012052 -6.0271e-20)
(-0.0243795 0.0220714 -1.13471e-19)
(-0.0319377 0.0332707 1.06843e-19)
(-0.0370481 0.0448172 -9.89267e-20)
(-0.0390895 0.0561392 1.38995e-19)
(-0.037695 0.0669155 -4.35801e-20)
(-0.0326597 0.0770292 8.02205e-20)
(-0.0238632 0.0865038 0)
(-0.0112136 0.09544 6.56935e-20)
(0.00538534 0.103945 -1.24685e-19)
(0.0260408 0.112097 1.14455e-19)
(0.0508777 0.11991 -1.07493e-19)
(0.0800301 0.127313 0)
(0.113628 0.134159 9.12347e-20)
(0.15179 0.140224 1.67228e-19)
(0.194614 0.145211 -1.5834e-19)
(0.242164 0.14877 -7.31417e-20)
(0.294591 0.150522 -7.20782e-20)
(0.351216 0.149994 2.00593e-19)
(0.414966 0.146762 6.4852e-20)
(0.475229 0.141109 -5.90046e-20)
(0.563707 0.128254 5.87904e-20)
(-0.00224495 0.00187122 -6.18914e-20)
(-0.00942365 0.00838579 1.90785e-19)
(-0.018476 0.0160076 -5.9696e-20)
(-0.0267599 0.0244398 1.12154e-19)
(-0.0326673 0.0332487 -1.05603e-19)
(-0.0352716 0.0419892 1.38946e-22)
(-0.0339975 0.050341 4.5792e-20)
(-0.0285043 0.0581248 1.66259e-19)
(-0.0186043 0.0652831 -2.78164e-21)
(-0.00419049 0.07185 -7.39626e-20)
(0.0148163 0.0779118 0)
(0.0384957 0.0835646 -5.90295e-20)
(0.0669435 0.0888798 1.13541e-19)
(0.100272 0.093882 1.02577e-19)
(0.138605 0.0985348 -4.90436e-20)
(0.182065 0.102735 -1.07289e-21)
(0.230757 0.106312 -4.16626e-20)
(0.284753 0.109039 7.60821e-20)
(0.344011 0.110613 7.31337e-20)
(0.408805 0.110797 -6.91898e-20)
(0.477255 0.108951 6.46116e-20)
(0.555346 0.105234 -6.18098e-20)
(0.622998 0.0992515 0)
(0.731679 0.0871259 -5.87617e-20)
(-0.00399005 0.00413343 6.13063e-20)
(-0.0129078 0.0121061 -6.35202e-20)
(-0.0221985 0.0190456 5.96163e-20)
(-0.029424 0.0254537 0)
(-0.0331362 0.0314721 0)
(-0.0325095 0.0370539 9.59299e-20)
(-0.0270145 0.042147 -9.08494e-20)
(-0.0163147 0.0467394 8.14401e-20)
(-0.000197491 0.0508666 -3.84796e-19)
(0.0214832 0.0546091 1.20568e-21)
(0.0488498 0.0580722 6.49796e-20)
(0.0820156 0.0613575 0)
(0.121087 0.0645452 -1.09213e-19)
(0.16616 0.0676724 2.03222e-19)
(0.217289 0.070718 -1.41801e-19)
(0.274467 0.0735963 -2.1647e-19)
(0.337589 0.0761571 1.03251e-21)
(0.406436 0.0781961 1.50389e-19)
(0.480496 0.0793978 0)
(0.559777 0.0796781 0)
(0.640927 0.0780538 -6.46106e-20)
(0.731513 0.0756667 6.1808e-20)
(0.804999 0.0700957 -2.38529e-19)
(0.923912 0.0619423 2.23495e-19)
(-0.00610772 0.00632037 0)
(-0.0167505 0.0154588 0)
(-0.0257141 0.0214852 -1.78558e-19)
(-0.0309174 0.0257357 5.67706e-20)
(-0.0311304 0.028927 1.09772e-21)
(-0.0256378 0.0314106 9.74094e-20)
(-0.0139381 0.0334111 0)
(0.00433399 0.0351015 -8.30359e-20)
(0.0294493 0.0366364 7.6794e-20)
(0.0616102 0.0381672 -1.39112e-19)
(0.100957 0.0398376 1.18681e-21)
(0.147564 0.0417702 1.17768e-19)
(0.201405 0.04405 -2.23565e-21)
(0.262323 0.046701 9.81127e-20)
(0.329991 0.0496786 -1.41102e-19)
(0.403887 0.0528614 0)
(0.483263 0.0560511 1.60271e-19)
(0.567159 0.0589867 -2.2572e-19)
(0.654257 0.0612973 7.05245e-20)
(0.74363 0.0628408 0)
(0.831623 0.0625731 6.30002e-20)
(0.923213 0.0619274 2.44167e-19)
(0.996176 0.0570321 -2.29137e-19)
(1.10191 0.0530133 -2.77032e-19)
(-0.00841018 0.00826796 1.8506e-19)
(-0.0203308 0.0182246 -2.54828e-19)
(-0.0278214 0.0232749 5.80477e-22)
(-0.029334 0.0255253 5.65784e-20)
(-0.0239125 0.026225 -1.04989e-19)
(-0.0109556 0.0261047 -9.70614e-20)
(0.0100123 0.0256596 1.78411e-19)
(0.0393682 0.0252491 -3.44646e-21)
(0.077376 0.0251539 -1.54795e-19)
(0.124164 0.0256028 2.80756e-19)
(0.179678 0.0267751 -3.0808e-21)
(0.243636 0.0287911 -1.20498e-19)
(0.31548 0.031693 0)
(0.394348 0.0354334 0)
(0.479065 0.0398653 -4.6598e-20)
(0.56816 0.0447401 -8.67407e-20)
(0.659913 0.0497217 -1.60499e-19)
(0.752414 0.054384 1.50648e-19)
(0.84362 0.0583086 -7.05521e-20)
(0.931603 0.060964 1.32935e-19)
(1.01379 0.0619482 -6.21845e-20)
(1.09078 0.0612751 1.20228e-19)
(1.15231 0.0569067 -2.78323e-19)
(1.2239 0.0534163 5.41134e-20)
(-0.0105692 0.00970316 6.22377e-20)
(-0.0227755 0.0199456 0)
(-0.0270739 0.024028 1.20733e-19)
(-0.0226012 0.0246488 -1.13738e-19)
(-0.00873069 0.0234915 1.05083e-19)
(0.0149864 0.0216205 0)
(0.048923 0.0197709 0)
(0.093322 0.0184698 -8.2448e-20)
(0.148203 0.0181024 3.13168e-21)
(0.21327 0.0189383 7.2847e-20)
(0.287833 0.0211385 -6.42552e-20)
(0.370757 0.0247462 1.21517e-19)
(0.460455 0.0296744 0)
(0.554937 0.035701 2.02152e-19)
(0.651899 0.0424752 -3.76639e-19)
(0.748846 0.0495354 2.62199e-19)
(0.843241 0.0563511 1.60763e-19)
(0.93264 0.0623183 -1.50904e-19)
(1.01486 0.0669802 0)
(1.08803 0.0695046 0)
(1.15086 0.0703071 0)
(1.20272 0.0673047 0)
(1.24233 0.0634281 5.49101e-20)
(1.27686 0.0552307 -2.02628e-19)
(-0.128528 0.419169 -6.50666e-21)
(-0.0965439 0.417251 6.53943e-21)
(-0.0570507 0.398928 -2.08676e-22)
(-0.0107924 0.362791 0)
(0.0417491 0.307739 -6.71684e-21)
(0.0989168 0.233767 1.32402e-20)
(0.158806 0.142522 9.92938e-23)
(0.219688 0.0362649 -6.43781e-21)
(0.280054 -0.0816512 0)
(0.339167 -0.206356 0)
(0.396218 -0.330012 -3.37989e-22)
(0.449605 -0.441581 -2.91787e-22)
(0.496225 -0.529038 -3.67868e-21)
(0.532556 -0.584424 3.34022e-21)
(0.556537 -0.607165 0)
(0.568186 -0.60359 0)
(0.566752 -0.586609 1.59029e-21)
(0.548658 -0.57258 -6.49664e-23)
(0.513869 -0.567958 -1.35333e-21)
(0.474345 -0.555652 -8.76568e-23)
(0.451918 -0.500474 0)
(0.4632 -0.376602 0)
(0.507005 -0.190825 0)
(0.569685 0.021059 0)
(0.636836 0.215134 0)
(0.697176 0.358783 0)
(0.743047 0.444242 3.84638e-22)
(0.772003 0.481532 -6.16701e-22)
(0.787975 0.486246 0)
(0.792306 0.48062 0)
(0.778507 0.487759 -3.29608e-22)
(0.743566 0.508038 3.20355e-22)
(0.702708 0.498137 1.9899e-22)
(0.679288 0.409487 0)
(0.687781 0.230111 0)
(0.719499 0.0120724 4.96793e-22)
(0.762167 -0.184089 -4.82891e-22)
(0.800444 -0.314508 0)
(0.831288 -0.37868 2.59315e-22)
(0.846999 -0.406123 -3.66248e-22)
(0.836574 -0.42096 9.4598e-23)
(0.796296 -0.438516 0)
(0.747774 -0.402751 -2.04283e-22)
(0.716415 -0.307109 1.98647e-22)
(0.724114 -0.125671 0)
(0.754459 0.0505068 0)
(0.800918 0.19548 -7.99341e-23)
(0.827696 0.295289 2.15577e-22)
(0.821841 0.345535 0)
(0.7858 0.400609 0)
(0.760995 0.323155 -5.51817e-23)
(0.756529 0.237343 -7.31911e-24)
(0.794548 0.0447808 -2.75323e-24)
(0.814611 -0.105638 4.84771e-23)
(0.821088 -0.213041 0)
(0.803949 -0.371446 0)
(0.79954 -0.282365 0)
(0.791831 -0.297545 0)
(0.802006 -0.0725791 0)
(0.785581 0.15211 0)
(-0.032871 0.379368 -6.21276e-22)
(0.00821266 0.37207 -2.74277e-20)
(0.0559964 0.348938 -9.84667e-22)
(0.109419 0.308908 2.66611e-20)
(0.16724 0.251444 4.47447e-22)
(0.227709 0.17673 0)
(0.289033 0.086114 -2.81658e-20)
(0.349546 -0.0184884 5.56164e-20)
(0.408285 -0.134268 -2.74465e-20)
(0.464741 -0.256759 2.40723e-20)
(0.517623 -0.377736 -2.30584e-20)
(0.564238 -0.484745 1.76073e-20)
(0.600661 -0.5646 -1.7185e-20)
(0.623693 -0.609637 -4.05325e-22)
(0.632436 -0.621194 -9.13112e-21)
(0.62874 -0.607036 8.87431e-21)
(0.615011 -0.578812 -6.15845e-21)
(0.589484 -0.552199 5.81457e-21)
(0.548592 -0.538548 -5.40696e-21)
(0.497569 -0.528622 1.08029e-20)
(0.455079 -0.489797 -5.38747e-21)
(0.442716 -0.388925 -3.5818e-22)
(0.467743 -0.222276 -6.90669e-21)
(0.520673 -0.0208394 1.3319e-20)
(0.586183 0.172246 -6.42064e-21)
(0.650591 0.322683 3.05125e-22)
(0.704155 0.418783 3.98051e-21)
(0.743023 0.466161 -4.69721e-22)
(0.769227 0.479139 -5.8359e-21)
(0.781412 0.482147 5.33907e-21)
(0.772875 0.498656 -2.57256e-21)
(0.74335 0.524773 3.59261e-22)
(0.711039 0.512721 -1.99406e-22)
(0.697409 0.414817 5.16011e-22)
(0.714059 0.22463 0)
(0.750036 -0.00142327 0)
(0.792617 -0.199626 -1.80933e-21)
(0.825938 -0.327771 1.35396e-21)
(0.84913 -0.386943 7.69691e-22)
(0.858364 -0.406713 -8.18988e-23)
(0.844046 -0.41207 -9.19106e-22)
(0.801632 -0.423289 1.61194e-22)
(0.748092 -0.389136 0)
(0.71224 -0.302919 0)
(0.715727 -0.1321 0)
(0.746909 0.0375991 0)
(0.794332 0.183914 2.95488e-22)
(0.822121 0.29164 -1.37971e-22)
(0.817579 0.350481 0)
(0.78195 0.408527 0)
(0.760802 0.327041 0)
(0.756469 0.233663 -1.26039e-22)
(0.798799 0.0383025 -1.07693e-23)
(0.820678 -0.109018 -9.72844e-23)
(0.828103 -0.211626 0)
(0.81059 -0.368896 0)
(0.802759 -0.281552 3.73472e-23)
(0.79494 -0.29747 8.33106e-23)
(0.80036 -0.0716393 0)
(0.783671 0.153554 0)
(0.0870709 0.332083 3.01556e-21)
(0.133825 0.321525 -5.29497e-20)
(0.1856 0.296099 5.81303e-20)
(0.242006 0.254952 -5.43442e-20)
(0.301445 0.197838 -4.50439e-22)
(0.362128 0.124963 0)
(0.422511 0.0371078 -6.03316e-20)
(0.481404 -0.0639154 5.91219e-20)
(0.538029 -0.175933 4.30725e-22)
(0.591574 -0.29476 8.23439e-22)
(0.640005 -0.411563 7.39123e-22)
(0.679238 -0.512835 6.20462e-22)
(0.704584 -0.584872 -3.03222e-20)
(0.713666 -0.620596 2.98766e-20)
(0.707402 -0.623017 0)
(0.68911 -0.601596 4.98259e-22)
(0.663237 -0.566739 -1.18646e-20)
(0.630648 -0.530956 1.17017e-20)
(0.586461 -0.507531 0)
(0.529384 -0.495865 0)
(0.472146 -0.470145 -1.03352e-20)
(0.437922 -0.393521 2.14159e-20)
(0.442253 -0.250531 -2.21958e-20)
(0.482072 -0.0634702 3.22442e-22)
(0.542897 0.12542 2.05911e-20)
(0.60893 0.281068 -1.84426e-20)
(0.668551 0.387312 1.46296e-20)
(0.716478 0.445185 -1.23557e-21)
(0.752323 0.46763 -5.65527e-21)
(0.772115 0.480442 0)
(0.769412 0.506607 0)
(0.746386 0.538418 2.54697e-21)
(0.723163 0.52494 -3.18513e-21)
(0.719162 0.419628 2.78802e-23)
(0.743577 0.220755 4.91874e-21)
(0.783323 -0.0114507 -4.77967e-21)
(0.825335 -0.211041 0)
(0.853576 -0.337023 4.06314e-22)
(0.868911 -0.392107 2.51471e-21)
(0.871448 -0.405603 -4.30473e-21)
(0.853444 -0.402427 1.64302e-21)
(0.809691 -0.40759 1.3866e-22)
(0.751997 -0.375184 -1.58291e-21)
(0.712021 -0.298939 1.25828e-21)
(0.710999 -0.139576 3.16184e-22)
(0.742358 0.023416 2.95184e-22)
(0.790001 0.17125 -2.96244e-22)
(0.818448 0.287292 0)
(0.815321 0.354795 0)
(0.78033 0.416134 -9.61248e-22)
(0.76298 0.331059 4.77899e-22)
(0.75864 0.230123 -5.55708e-22)
(0.804855 0.031987 7.8413e-22)
(0.828351 -0.112417 8.66418e-22)
(0.836585 -0.209785 -1.81894e-22)
(0.818198 -0.365891 2.6797e-22)
(0.806772 -0.28046 -1.76598e-22)
(0.798939 -0.297029 5.35225e-23)
(0.799838 -0.0704862 0)
(0.782815 0.155006 0)
(0.216023 0.281287 -1.07806e-19)
(0.265056 0.26881 -5.67096e-21)
(0.317806 0.242929 1.07983e-19)
(0.374407 0.202855 -9.04279e-22)
(0.43326 0.148216 0)
(0.492504 0.0788435 0)
(0.551308 -0.00466054 -1.23056e-19)
(0.608739 -0.100978 -1.09634e-21)
(0.663807 -0.208575 1.72699e-19)
(0.715292 -0.322978 -4.00738e-21)
(0.759785 -0.434587 -5.08191e-20)
(0.791593 -0.529026 -3.6898e-20)
(0.805509 -0.592729 3.71033e-20)
(0.800368 -0.619841 0)
(0.779431 -0.614785 -1.8696e-20)
(0.74771 -0.588343 1.71678e-20)
(0.710561 -0.550479 0)
(0.671153 -0.509752 0)
(0.625639 -0.477458 8.25911e-21)
(0.567743 -0.45976 -1.75886e-22)
(0.502182 -0.441529 -7.35699e-21)
(0.44958 -0.387846 -9.02467e-21)
(0.432347 -0.272412 8.97363e-21)
(0.4556 -0.105081 -9.45296e-21)
(0.508033 0.0761911 8.42628e-22)
(0.572972 0.234968 8.09296e-21)
(0.636777 0.350336 7.9888e-22)
(0.69254 0.418806 5.11066e-23)
(0.737113 0.451571 0)
(0.764164 0.474855 5.11487e-21)
(0.767767 0.510581 -5.28806e-21)
(0.752004 0.548058 3.72549e-22)
(0.738101 0.534376 0)
(0.743514 0.424268 -5.50341e-22)
(0.775286 0.219298 1.03719e-20)
(0.818483 -0.0178143 -1.8494e-20)
(0.859691 -0.218559 2.34555e-22)
(0.882998 -0.342668 1.69685e-21)
(0.890497 -0.394462 5.32147e-21)
(0.886123 -0.403101 4.7002e-22)
(0.864438 -0.392487 -2.62719e-21)
(0.820044 -0.391683 2.25117e-21)
(0.759244 -0.360725 3.39581e-23)
(0.715638 -0.294752 1.17725e-21)
(0.70982 -0.147656 -1.4619e-21)
(0.740628 0.00825608 -1.85706e-21)
(0.787803 0.157579 5.67319e-22)
(0.81662 0.282167 9.08196e-22)
(0.815085 0.358334 -1.81085e-21)
(0.781031 0.423354 1.37345e-21)
(0.767665 0.335276 -5.7955e-22)
(0.763224 0.226941 5.03303e-22)
(0.81271 0.0258799 5.86774e-22)
(0.837527 -0.115826 -1.38e-21)
(0.846468 -0.207538 4.47577e-23)
(0.826731 -0.362381 -2.80826e-22)
(0.811525 -0.279066 0)
(0.803756 -0.296245 -6.80848e-23)
(0.800366 -0.0691404 4.21869e-23)
(0.782971 0.156471 0)
(0.343411 0.229351 1.0642e-19)
(0.392419 0.21661 -2.15313e-19)
(0.444413 0.191644 1.07159e-19)
(0.499897 0.153958 1.18656e-19)
(0.557358 0.10292 -2.3772e-19)
(0.615318 0.0375648 -3.81524e-21)
(0.673167 -0.040466 1.2032e-19)
(0.729944 -0.131578 1.18911e-19)
(0.784417 -0.233836 -1.16464e-19)
(0.834226 -0.34221 0)
(0.874263 -0.446424 -9.07487e-20)
(0.897628 -0.532019 1.64687e-19)
(0.899445 -0.586635 -7.4369e-20)
(0.880304 -0.606304 0)
(0.845842 -0.596413 0)
(0.802821 -0.567718 5.0391e-22)
(0.756584 -0.529851 -2.21946e-20)
(0.710937 -0.488527 2.15638e-20)
(0.664489 -0.450814 0)
(0.609384 -0.425342 1.34182e-20)
(0.542354 -0.407935 -2.53783e-20)
(0.477121 -0.371928 2.5684e-20)
(0.43887 -0.285177 -2.75578e-20)
(0.442557 -0.142678 -4.82292e-22)
(0.482995 0.026588 2.74125e-20)
(0.543643 0.185408 -1.32113e-20)
(0.609331 0.308262 -3.67811e-22)
(0.67124 0.387016 -4.22399e-21)
(0.723292 0.43057 -9.14244e-23)
(0.757123 0.464618 4.37048e-21)
(0.767346 0.5097 3.2215e-22)
(0.759356 0.553131 -6.79884e-21)
(0.754788 0.540928 1.50626e-20)
(0.769367 0.428935 -9.36655e-21)
(0.808024 0.220524 0)
(0.854482 -0.0203281 -1.14042e-20)
(0.894939 -0.22204 1.09496e-20)
(0.913627 -0.344578 -5.42476e-21)
(0.913516 -0.39385 6.80585e-21)
(0.902182 -0.39911 -4.69982e-22)
(0.876819 -0.382396 0)
(0.832339 -0.375936 -2.59869e-22)
(0.769483 -0.346 7.11081e-22)
(0.72282 -0.290195 0)
(0.711966 -0.15604 2.4027e-21)
(0.741436 -0.00762954 -9.58966e-22)
(0.787544 0.142936 4.60361e-22)
(0.81651 0.276114 3.93679e-22)
(0.816822 0.360906 0)
(0.784069 0.430079 0)
(0.774912 0.339736 -1.77738e-21)
(0.770304 0.22421 3.08367e-21)
(0.822336 0.0200233 -1.84021e-21)
(0.848118 -0.119228 5.92533e-22)
(0.85767 -0.204852 8.97663e-22)
(0.836141 -0.35827 2.81088e-22)
(0.816961 -0.277353 -2.96722e-22)
(0.809314 -0.295152 0)
(0.801856 -0.0676219 -8.34813e-23)
(0.784087 0.157952 -8.19969e-24)
(0.467563 0.177512 1.04733e-19)
(0.515032 0.165984 -1.04298e-19)
(0.565333 0.142868 8.73083e-22)
(0.619349 0.108313 -8.68366e-22)
(0.675252 0.0612466 9.28829e-22)
(0.732985 0.000981047 -9.46182e-22)
(0.790993 -0.0717965 1.82152e-21)
(0.847329 -0.157396 0)
(0.900903 -0.253067 -1.72041e-21)
(0.9477 -0.353346 1.60337e-21)
(0.981153 -0.44774 1.44145e-21)
(0.994123 -0.522797 -1.29546e-21)
(0.983154 -0.568242 0)
(0.951028 -0.582039 0)
(0.905152 -0.570021 6.48455e-22)
(0.853403 -0.541785 0)
(0.800874 -0.505971 -3.77525e-22)
(0.750494 -0.466889 0)
(0.702682 -0.427615 -1.27398e-20)
(0.651469 -0.395266 2.33064e-20)
(0.588599 -0.373461 -2.01277e-20)
(0.518226 -0.347446 9.53578e-21)
(0.462508 -0.286562 1.01703e-20)
(0.444544 -0.172505 -9.87757e-21)
(0.468823 -0.0203906 -1.03553e-20)
(0.521722 0.133812 1.00314e-20)
(0.586639 0.261705 0)
(0.652526 0.349932 2.00992e-22)
(0.710526 0.404395 0)
(0.750519 0.449223 0)
(0.767468 0.503399 1.01034e-20)
(0.767434 0.553221 -1.0353e-20)
(0.772 0.544543 8.99135e-22)
(0.795304 0.433688 1.16592e-21)
(0.84043 0.224119 -1.33556e-21)
(0.890368 -0.0190155 -1.03598e-20)
(0.930352 -0.22155 1.00572e-20)
(0.944898 -0.342905 -7.40072e-21)
(0.937598 -0.390355 6.29256e-21)
(0.919364 -0.393665 9.4401e-22)
(0.8903 -0.372305 -2.39353e-21)
(0.846125 -0.360588 2.13368e-22)
(0.782208 -0.331129 1.37729e-21)
(0.733106 -0.285058 0)
(0.717089 -0.164429 -8.31297e-22)
(0.744441 -0.0240472 1.10153e-21)
(0.788973 0.12731 -1.4878e-21)
(0.817932 0.268945 -3.96194e-22)
(0.820406 0.362293 0)
(0.789379 0.436185 6.23573e-22)
(0.784652 0.344426 -1.08178e-21)
(0.779906 0.222048 4.10141e-23)
(0.833677 0.0146392 -6.98899e-22)
(0.859997 -0.12257 1.01631e-21)
(0.870075 -0.201711 -9.39774e-22)
(0.846364 -0.353473 0)
(0.823024 -0.275296 2.96856e-22)
(0.815533 -0.293775 0)
(0.804214 -0.0659502 0)
(0.786104 0.159448 1.30964e-23)
(0.601518 0.128225 -1.0328e-19)
(0.644733 0.117856 1.02117e-19)
(0.691469 0.0966236 -8.22112e-22)