/*--------------------------------*- C++ -*----------------------------------*\
| =========                 |                                                 |
| \\      /  F ield         | OpenFOAM: The Open Source CFD Toolbox           |
|  \\    /   O peration     | Version:  2512                                  |
|   \\  /    A nd           | Website:  www.openfoam.com                      |
|    \\/     M anipulation  |                                                 |
\*---------------------------------------------------------------------------*/
FoamFile
{
    version     2.0;
    format      ascii;
    arch        "LSB;label=32;scalar=64";
    class       volVectorField;
    location    "144.75";
    object      U;
}
// * * * * * * * * * * * * * * * * * * * * * * * * * * * * * * * * * * * * * //

dimensions      [0 1 -1 0 0 0 0];

internalField   nonuniform List<vector> 
13248
(
(-0.0143413 0.0124902 7.78378e-20)
(-0.0273847 0.0260363 0)
(-0.025258 0.0328868 -1.46831e-19)
(-0.00794021 0.0356813 1.38314e-19)
(0.0246204 0.0361689 1.29038e-19)
(0.0724171 0.0355359 0)
(0.135257 0.034605 0)
(0.212565 0.033948 3.0723e-19)
(0.303169 0.0339302 -1.60053e-21)
(0.405138 0.0347203 -2.68207e-19)
(0.515712 0.0362862 2.49972e-19)
(0.631378 0.0383992 -1.56222e-19)
(0.748077 0.0406603 0)
(0.861518 0.0425507 -2.75298e-19)
(0.967549 0.0435033 5.16759e-19)
(1.06252 0.0429829 -1.22964e-19)
(1.14362 0.0405656 -2.25577e-19)
(1.20908 0.03598 2.11776e-19)
(1.25835 0.0292213 0)
(1.29201 0.0201598 0)
(1.31182 0.00993798 0)
(1.31963 -0.00430397 0)
(1.31844 -0.0132649 6.56655e-20)
(1.30954 -0.0427671 2.38546e-19)
(-0.014787 0.0116629 -2.35148e-19)
(-0.023238 0.0220211 1.60357e-19)
(-0.0117701 0.025754 -1.60105e-21)
(0.0187562 0.0259039 -2.11673e-19)
(0.0678638 0.0245605 -1.28896e-19)
(0.134995 0.0231715 -1.22023e-19)
(0.219123 0.0226934 -2.22684e-19)
(0.31843 0.023696 2.11256e-19)
(0.430082 0.0264092 0)
(0.550197 0.0307382 7.34055e-22)
(0.674044 0.0362881 2.0336e-21)
(0.796443 0.0424204 1.57155e-19)
(0.912282 0.0483467 0)
(1.01704 0.0532466 0)
(1.10723 0.0563888 1.89493e-19)
(1.18072 0.0572342 -3.56209e-19)
(1.23681 0.0555002 2.16133e-19)
(1.27622 0.0511796 -2.02927e-19)
(1.3008 0.044499 -9.00016e-20)
(1.31319 0.0358835 -1.66659e-19)
(1.31621 0.0258236 -6.96523e-20)
(1.31268 0.0147334 -1.31624e-19)
(1.3044 0.00461742 1.91471e-19)
(1.29442 -0.00966413 5.46787e-20)
(-0.0138835 0.0100895 0)
(-0.0147824 0.0168615 0)
(0.00948584 0.0180797 7.4907e-20)
(0.0569863 0.0168201 6.88166e-20)
(0.126344 0.0153029 -1.89695e-21)
(0.215882 0.0150907 -1.26986e-19)
(0.322988 0.0171075 0)
(0.443783 0.0217131 -1.04927e-19)
(0.573104 0.0287569 9.91867e-20)
(0.704853 0.0376396 1.25728e-21)
(0.832635 0.0474247 -1.69188e-19)
(0.950522 0.0570022 -1.55925e-19)
(1.05375 0.0652762 2.12754e-21)
(1.1392 0.071339 -1.31096e-19)
(1.20563 0.0745961 3.13068e-19)
(1.25356 0.0748195 0)
(1.28495 0.0721319 -2.07042e-19)
(1.30271 0.0669177 1.00595e-19)
(1.31012 0.059753 8.99346e-20)
(1.31023 0.0511513 0)
(1.30564 0.0419768 7.4583e-20)
(1.29799 0.0318359 -2.5541e-19)
(1.28857 0.0238305 2.3977e-19)
(1.27839 0.0106266 1.5058e-19)
(-0.0111734 0.00776915 -8.36205e-20)
(-0.00094714 0.0105919 -8.65792e-20)
(0.0397933 0.0100024 7.80348e-20)
(0.107803 0.00874509 0)
(0.200288 0.00891471 0)
(0.313693 0.011948 -3.28537e-21)
(0.442968 0.0184445 0)
(0.581502 0.0282238 -3.23837e-19)
(0.721632 0.0404519 3.00842e-19)
(0.855575 0.0538368 -3.70934e-19)
(0.976496 0.0668939 8.48749e-20)
(1.0794 0.0782307 0)
(1.16161 0.0867818 1.42547e-19)
(1.22284 0.091946 -2.6449e-19)
(1.26477 0.093608 6.29238e-20)
(1.29048 0.0920596 1.6354e-19)
(1.30364 0.0878574 -6.21585e-21)
(1.30788 0.0816723 -1.82217e-19)
(1.30624 0.0741441 0)
(1.30098 0.0658425 0)
(1.29357 0.057201 -6.6188e-20)
(1.28486 0.0483727 5.95613e-20)
(1.27535 0.0407534 2.15325e-19)
(1.26563 0.0297503 -2.02169e-19)
(-0.00625974 0.00488504 -8.85464e-20)
(0.0191732 0.00371862 -8.81661e-20)
(0.0801237 0.00232569 2.47768e-19)
(0.17167 0.00275985 -1.50167e-19)
(0.288892 0.0066632 1.41343e-19)
(0.425476 0.0149788 2.5633e-19)
(0.573221 0.0275649 -1.81445e-19)
(0.722643 0.043324 -2.20903e-19)
(0.864267 0.0605291 4.44798e-21)
(0.990091 0.0772378 2.81651e-19)
(1.09471 0.0917069 0)
(1.17582 0.102702 7.78409e-20)
(1.23398 0.109637 0)
(1.27197 0.112542 -1.27661e-19)
(1.29378 0.111902 1.79622e-19)
(1.30372 0.108451 1.78849e-21)
(1.30563 0.102967 -4.75221e-20)
(1.30254 0.0961424 8.96504e-20)
(1.29653 0.0885251 7.73743e-20)
(1.28891 0.0805 -6.9679e-20)
(1.28042 0.072378 6.61741e-20)
(1.27141 0.0642121 -5.95479e-20)
(1.26212 0.0568716 0)
(1.25282 0.0471944 -4.51144e-20)
(0.00120263 0.00175317 8.85337e-20)
(0.0462696 -0.0028769 9.31891e-20)
(0.13098 -0.00360637 -8.31026e-20)
(0.248189 0.000520813 1.55086e-19)
(0.389996 0.010246 -1.45964e-19)
(0.546549 0.0255167 1.31984e-19)
(0.706309 0.0449876 -6.35131e-20)
(0.857686 0.0663948 1.65852e-19)
(0.991042 0.0871975 -1.04516e-19)
(1.10018 0.105187 1.85047e-19)
(1.18288 0.118895 -4.27243e-19)
(1.24043 0.127735 1.57162e-19)
(1.27654 0.131894 -1.37803e-19)
(1.29607 0.132073 1.29443e-19)
(1.30389 0.129197 1.12384e-19)
(1.30414 0.124177 9.91785e-20)
(1.2999 0.117772 -2.76e-19)
(1.29322 0.110545 1.71525e-19)
(1.2853 0.102881 -7.73793e-20)
(1.27681 0.0950431 2.02595e-19)
(1.26807 0.0871997 -6.54174e-20)
(1.25921 0.0794628 -1.60028e-19)
(1.25027 0.0722373 1.47868e-19)
(1.24135 0.0635409 4.51019e-20)
(0.0115018 -0.00122223 0)
(0.0807246 -0.00807187 9.43204e-22)
(0.192182 -0.00615871 1.74808e-19)
(0.335808 0.00386159 -1.63802e-19)
(0.499901 0.0212411 -1.47783e-19)
(0.670756 0.0443736 2.74636e-19)
(0.834216 0.0703935 -1.2753e-19)
(0.978331 0.0959612 1.69713e-19)
(1.09546 0.118188 -3.73817e-21)
(1.18299 0.135222 -9.61883e-20)
(1.24263 0.146402 2.09717e-19)
(1.27894 0.152057 -3.09837e-19)
(1.29763 0.153123 0)
(1.30422 0.150755 -6.10501e-20)
(1.30326 0.146036 -1.6345e-19)
(1.29802 0.139831 5.13548e-20)
(1.29059 0.132756 1.94537e-21)
(1.28218 0.125216 -1.14108e-19)
(1.27342 0.117469 6.69163e-21)
(1.2646 0.109677 1.32205e-19)
(1.25582 0.101955 -5.93787e-20)
(1.24709 0.0943927 -2.26388e-20)
(1.23839 0.0871158 6.95713e-20)
(1.22974 0.0790946 0)
(0.0248293 -0.00357325 0)
(0.122487 -0.0106249 4.74459e-20)
(0.262681 -0.0036649 -2.28476e-19)
(0.431712 0.0143938 8.31606e-20)
(0.61361 0.040644 -7.82648e-20)
(0.79134 0.0714937 -7.16126e-20)
(0.949848 0.102605 -1.26322e-19)
(1.07911 0.130082 6.31699e-20)
(1.17533 0.151403 5.47653e-20)
(1.24024 0.165664 0)
(1.27906 0.173281 1.24783e-19)
(1.29842 0.175442 -1.85994e-19)
(1.30466 0.173589 1.38393e-19)
(1.30292 0.169043 6.10837e-20)
(1.29681 0.162833 -5.03142e-20)
(1.2886 0.155671 -4.22724e-20)
(1.27959 0.14801 -3.95885e-20)
(1.2704 0.140122 1.17991e-19)
(1.26132 0.132172 0)
(1.25243 0.124267 5.97367e-20)
(1.24375 0.116486 5.05472e-20)
(1.23523 0.108896 -1.25208e-19)
(1.22682 0.101494 -8.6145e-20)
(1.21847 0.0939266 7.95465e-20)
(0.0412213 -0.00478683 -5.14011e-20)
(0.170959 -0.00928784 -2.07062e-21)
(0.340496 0.00534456 4.65856e-20)
(0.532012 0.0332073 1.30493e-19)
(0.725505 0.0686418 3.79785e-20)
(0.902137 0.105989 -7.33766e-20)
(1.0483 0.139957 6.69168e-20)
(1.15793 0.166903 -5.85479e-20)
(1.23199 0.185363 1.04977e-19)
(1.27615 0.1957 4.46535e-20)
(1.29801 0.199363 -1.2691e-19)
(1.30493 0.198148 3.73685e-20)
(1.30289 0.193709 6.39478e-20)
(1.29607 0.187321 -3.14234e-20)
(1.28707 0.179849 0)
(1.27733 0.171828 4.71136e-20)
(1.26755 0.163569 7.99863e-20)
(1.25802 0.155248 1.386e-20)
(1.24883 0.146971 -6.68412e-20)
(1.24 0.138811 2.80678e-20)
(1.23145 0.130826 0)
(1.22314 0.123047 -2.21624e-20)
(1.21499 0.115438 -2.1068e-20)
(1.20691 0.108076 0)
(0.0604963 -0.0043326 0)
(0.224927 -0.0029207 2.69588e-20)
(0.422796 0.0219591 4.99783e-20)
(0.63218 0.0607144 -1.33288e-19)
(0.830218 0.104643 4.31251e-20)
(0.998539 0.146437 0)
(1.12727 0.18074 6.46417e-20)
(1.21548 0.204996 -9.02597e-20)
(1.2687 0.219233 -5.2481e-20)
(1.29549 0.225094 2.36659e-20)
(1.30449 0.224816 -3.80184e-20)
(1.30284 0.220503 9.22332e-20)
(1.29556 0.213791 4.6231e-20)
(1.28579 0.205782 -3.20923e-20)
(1.27524 0.197147 -2.97239e-21)
(1.26474 0.18826 -8.83178e-20)
(1.25463 0.179326 4.02509e-20)
(1.245 0.170457 -1.00803e-21)
(1.23587 0.161724 0)
(1.22716 0.153177 -2.80972e-20)
(1.21883 0.144852 0)
(1.21078 0.136755 6.38983e-20)
(1.20292 0.12889 -7.61482e-20)
(1.19514 0.121535 3.47466e-20)
(0.082215 -0.00170211 -1.41167e-20)
(0.282581 0.00939944 -6.81632e-20)
(0.50614 0.0467662 7.76322e-20)
(0.727623 0.0966334 4.56224e-20)
(0.923325 0.147469 -2.17731e-20)
(1.07782 0.191219 3.65711e-20)
(1.18656 0.223478 -1.77554e-20)
(1.25393 0.243404 2.95029e-20)
(1.28911 0.252637 0)
(1.30226 0.253893 6.68345e-20)
(1.30206 0.249885 -2.75025e-21)
(1.29478 0.242768 -5.39544e-20)
(1.28435 0.234008 2.3126e-20)
(1.27296 0.22449 -2.61422e-20)
(1.26164 0.214701 -9.99437e-21)
(1.25082 0.20489 1.14917e-20)
(1.24064 0.195185 -8.91542e-21)
(1.23107 0.185659 -4.84364e-20)
(1.22209 0.176358 2.96965e-20)
(1.21361 0.167316 6.10525e-21)
(1.20553 0.158548 5.38805e-21)
(1.19778 0.150045 4.7571e-21)
(1.19024 0.14188 0)
(1.18277 0.134314 0)
(0.105749 0.00355692 1.41264e-20)
(0.341756 0.0282984 -1.4143e-20)
(0.586971 0.079795 -2.58918e-20)
(0.814326 0.140079 0)
(1.00178 0.195609 -1.08232e-20)
(1.13895 0.238786 -9.75524e-21)
(1.22728 0.267043 -1.66663e-20)
(1.27583 0.281561 0)
(1.29627 0.285465 0)
(1.29925 0.282231 0)
(1.29277 0.274757 0)
(1.28198 0.265064 0)
(1.26979 0.254381 -1.45629e-20)
(1.25761 0.243378 6.63808e-21)
(1.24601 0.232386 1.1544e-20)
(1.23517 0.221564 5.39448e-21)
(1.2251 0.210987 1.3393e-20)
(1.21575 0.200699 0)
(1.20704 0.190729 -3.22897e-21)
(1.19888 0.181095 -3.08343e-21)
(1.19117 0.171795 -5.39663e-21)
(1.1838 0.162827 -4.7647e-21)
(1.17666 0.154329 0)
(1.16961 0.146386 3.44075e-21)
(-0.00187913 0.0316397 9.11034e-21)
(-0.00716379 0.0838694 -9.41671e-21)
(-0.0156423 0.126763 -1.77802e-20)
(-0.0261397 0.16082 0)
(-0.0378599 0.18704 -2.37169e-20)
(-0.050235 0.206941 7.44288e-21)
(-0.0627283 0.222227 -1.40764e-20)
(-0.0748582 0.23447 0)
(-0.0862274 0.244876 0)
(-0.096524 0.254202 0)
(-0.105507 0.262765 0)
(-0.112988 0.270526 0)
(-0.118804 0.277184 1.46267e-23)
(-0.122805 0.282262 -9.6126e-21)
(-0.124838 0.285173 1.86075e-20)
(-0.124748 0.285263 2.66814e-20)
(-0.122379 0.281845 8.72873e-21)
(-0.11758 0.274231 0)
(-0.110224 0.261764 7.78421e-21)
(-0.100224 0.24387 -2.24327e-20)
(-0.0875204 0.2201 -1.45333e-20)
(-0.0720608 0.190226 -1.39468e-20)
(-0.0537901 0.154289 0)
(-0.032964 0.112996 0)
(-0.00350508 0.0333495 -2.73965e-20)
(-0.0102131 0.0886162 4.70889e-20)
(-0.0177697 0.134285 -1.78136e-20)
(-0.025973 0.170744 -3.35575e-20)
(-0.0345671 0.198845 4.73922e-20)
(-0.043271 0.219985 -2.98536e-20)
(-0.0517329 0.235815 4.21492e-20)
(-0.059575 0.247928 2.65794e-20)
(-0.0664299 0.257599 0)
(-0.0719609 0.265679 -2.40654e-20)
(-0.0758756 0.272581 -4.97332e-22)
(-0.0779241 0.278341 2.12254e-20)
(-0.0778909 0.282705 3.07593e-20)
(-0.075587 0.285225 3.95331e-20)
(-0.0708444 0.28533 -1.78269e-20)
(-0.063517 0.282381 -5.33468e-20)
(-0.053484 0.275714 1.79497e-20)
(-0.0406524 0.264673 -6.64622e-20)
(-0.0249763 0.248645 0)
(-0.00650107 0.227095 1.5099e-20)
(0.0146988 0.199616 1.45075e-20)
(0.0385456 0.166006 1.39216e-20)
(0.0651574 0.126413 0)
(0.0950383 0.0818337 0)
(-0.00512159 0.0331337 0)
(-0.013407 0.0890145 9.47383e-20)
(-0.0202432 0.136051 -3.56994e-20)
(-0.0262237 0.17418 3.35699e-20)
(-0.0315498 0.203889 -9.48827e-20)
(-0.0362129 0.226281 0)
(-0.040055 0.242814 -5.63268e-20)
(-0.0428356 0.254979 2.64263e-20)
(-0.0442717 0.264052 -5.01566e-20)
(-0.0440375 0.270949 2.37354e-20)
(-0.041824 0.27618 1.36311e-19)
(-0.0373515 0.279879 -6.41009e-20)
(-0.0303738 0.281886 -1.03617e-19)
(-0.020685 0.281829 -4.09859e-20)
(-0.00812183 0.279204 -1.74936e-21)
(0.00743232 0.273434 1.4563e-19)
(0.0260428 0.263923 -6.92439e-20)
(0.0477195 0.250088 -4.44736e-22)
(0.0724107 0.231391 0)
(0.0999909 0.207362 -6.38035e-20)
(0.13027 0.177654 0)
(0.163013 0.142044 -6.04731e-20)
(0.198063 0.100625 2.2813e-19)
(0.238001 0.0541028 2.22251e-21)
(-0.00649486 0.0312543 0)
(-0.0163314 0.0854299 1.15849e-22)
(-0.0227666 0.132249 3.57619e-20)
(-0.0268767 0.171017 -3.3584e-20)
(-0.0291632 0.20174 3.16499e-20)
(-0.0298136 0.225126 1.78389e-19)
(-0.0288711 0.242329 -5.60003e-20)
(-0.0262563 0.254636 -5.2732e-20)
(-0.0217933 0.263247 9.99528e-20)
(-0.0152366 0.269087 -1.42861e-19)
(-0.00631485 0.272739 4.44708e-20)
(0.00523693 0.274447 4.27291e-20)
(0.0196555 0.274168 0)
(0.0371331 0.271646 3.93373e-20)
(0.0578071 0.266481 0)
(0.0817539 0.258199 7.25196e-20)
(0.108986 0.246299 -1.4291e-19)
(0.13945 0.230292 2.97067e-20)
(0.173035 0.209727 1.2994e-19)
(0.209573 0.184216 6.37222e-20)
(0.248834 0.153434 0)
(0.290786 0.117143 -1.81001e-19)
(0.333817 0.0754962 5.64747e-20)
(0.386098 0.0286045 0)
(-0.00748673 0.0281778 0)
(-0.0187097 0.0786907 -1.14083e-19)
(-0.0251303 0.123668 -3.55966e-20)
(-0.0279313 0.161784 -6.70746e-20)
(-0.0277164 0.192575 6.31526e-20)
(-0.0247819 0.216342 -5.93526e-20)
(-0.0193223 0.233883 1.11606e-19)
(-0.0114215 0.246229 5.30498e-20)
(-0.00104902 0.254421 -1.48821e-19)
(0.0119166 0.259334 9.44549e-20)
(0.0276515 0.26158 -1.34293e-19)
(0.046351 0.261491 2.97414e-19)
(0.0681984 0.259141 -1.60992e-19)
(0.0933425 0.2544 7.71476e-20)
(0.121883 0.246996 2.2573e-19)
(0.153864 0.236573 -6.84503e-20)
(0.189275 0.222736 -6.4876e-20)
(0.228057 0.205086 -6.60442e-20)
(0.270125 0.183226 0)
(0.315364 0.156829 -1.28849e-19)
(0.3634 0.125643 -1.28309e-19)
(0.415546 0.0895114 1.75285e-19)
(0.466338 0.048352 2.31568e-19)
(0.533812 0.0019111 -2.16016e-19)
(-0.00809044 0.0244807 0)
(-0.0204779 0.0699325 -1.52222e-19)
(-0.0272721 0.111562 5.00313e-22)
(-0.0294087 0.147586 1.34381e-19)
(-0.0274066 0.177202 0)
(-0.0215768 0.200377 0)
(-0.0122057 0.217581 0)
(0.00048512 0.229569 -5.24622e-20)
(0.0163739 0.237184 -4.02317e-22)
(0.0354347 0.241196 9.24718e-20)
(0.0577144 0.242196 -1.34053e-19)
(0.0833042 0.240562 -8.91449e-22)
(0.112311 0.236455 0)
(0.144837 0.229857 -7.71075e-20)
(0.180963 0.220616 7.46739e-20)
(0.220751 0.208482 -2.0962e-19)
(0.264247 0.19315 2.7536e-19)
(0.311448 0.174289 7.16973e-20)
(0.362366 0.151598 8.05862e-21)
(0.417287 0.124832 -2.4441e-19)
(0.475239 0.0935913 -1.18266e-19)
(0.539588 0.0581053 4.06796e-19)
(0.598633 0.0176213 -2.72842e-19)
(0.683979 -0.0275027 0)
(-0.00843385 0.0207584 7.43178e-20)
(-0.0217968 0.0604151 7.61888e-20)
(-0.029277 0.0974724 -7.13524e-20)
(-0.0313091 0.129995 -1.33355e-19)
(-0.0281953 0.157048 1.25553e-19)
(-0.0201886 0.178405 -1.1689e-19)
(-0.00760879 0.194293 1.64582e-19)
(0.00923104 0.205228 -5.23401e-20)
(0.0300873 0.211855 9.67748e-20)
(0.0548062 0.214809 0)
(0.0833213 0.21462 8.64644e-20)
(0.11564 0.211663 -1.61426e-19)
(0.151824 0.206147 1.57669e-19)
(0.19198 0.198127 -1.48076e-19)
(0.236239 0.187532 0)
(0.284745 0.174195 1.38068e-19)
(0.337665 0.157897 2.68735e-19)
(0.395206 0.138394 -2.53913e-19)
(0.457353 0.115385 -1.22767e-19)
(0.524509 0.0887733 -1.25935e-19)
(0.594657 0.0578265 3.4765e-19)
(0.673411 0.0239481 1.12161e-19)
(0.741636 -0.0152095 -1.02803e-19)
(0.844067 -0.0564584 9.82426e-20)
(-0.00874584 0.0175274 -7.43282e-20)
(-0.022981 0.0513086 2.27908e-19)
(-0.0312824 0.0829714 -7.17018e-20)
(-0.0334805 0.110807 1.32954e-19)
(-0.029609 0.133993 -1.25175e-19)
(-0.0198255 0.152275 1.08182e-22)
(-0.00443006 0.165757 5.45392e-20)
(0.0162388 0.174791 2.02256e-19)
(0.041888 0.179859 -1.73079e-22)
(0.0723138 0.181468 -9.03537e-20)
(0.107418 0.180063 0)
(0.147211 0.175984 -8.04683e-20)
(0.191793 0.169444 1.51804e-19)
(0.241342 0.160531 1.4743e-19)
(0.296082 0.149223 -6.92736e-20)
(0.356244 0.135413 -1.70592e-21)
(0.421966 0.118928 -6.57423e-20)
(0.493278 0.0995839 1.23358e-19)
(0.569808 0.0770931 1.22753e-19)
(0.651562 0.0517351 -1.18508e-19)
(0.73517 0.0224084 1.09614e-19)
(0.826352 -0.00785954 -1.04434e-19)
(0.901916 -0.0442779 0)
(1.0115 -0.0777713 -9.82319e-20)
(-0.0092833 0.0151362 7.42303e-20)
(-0.0243432 0.0434877 -7.61396e-20)
(-0.0332793 0.0693972 7.13943e-20)
(-0.0353875 0.0917638 0)
(-0.030459 0.11011 0)
(-0.0185453 0.124312 1.1502e-19)
(0.00012842 0.134478 -1.08569e-19)
(0.0252868 0.140889 9.9883e-20)
(0.0566974 0.143924 -4.71711e-19)
(0.0942233 0.143986 -8.17231e-23)
(0.137842 0.141442 8.29248e-20)
(0.187639 0.136583 0)
(0.243771 0.129598 -1.50965e-19)
(0.306404 0.120573 2.86023e-19)
(0.375623 0.109498 -2.04624e-19)
(0.451343 0.0962928 -3.32253e-19)
(0.533192 0.0808319 -6.2338e-21)
(0.620421 0.0630315 2.36428e-19)
(0.711655 0.0427129 0)
(0.80558 0.0203743 0)
(0.898092 -0.00523251 -1.09618e-19)
(0.991986 -0.0300384 1.0444e-19)
(1.06745 -0.0618319 -3.83231e-19)
(1.1646 -0.0851853 3.58841e-19)
(-0.0102267 0.0136944 0)
(-0.0259818 0.0373732 0)
(-0.034866 0.057624 -2.13836e-19)
(-0.0358636 0.0742602 6.82031e-20)
(-0.0286045 0.0873246 1.35483e-21)
(-0.0130313 0.0969566 1.1648e-19)
(0.0107629 0.103376 0)
(0.0426535 0.106879 -1.00344e-19)
(0.0825582 0.107805 9.40447e-20)
(0.130462 0.1065 -1.75022e-19)
(0.186401 0.103268 -3.50789e-22)
(0.250397 0.0983438 1.56551e-19)
(0.322371 0.0918731 1.72079e-21)
(0.402027 0.0839099 1.44016e-19)
(0.488734 0.07443 -1.99679e-19)
(0.581428 0.063353 0)
(0.678549 0.0505747 2.48849e-19)
(0.778018 0.0360064 -3.53362e-19)
(0.877255 0.0195728 1.10424e-19)
(0.973492 0.00156514 0)
(1.06292 -0.0187307 9.87597e-20)
(1.14482 -0.0380806 3.83294e-19)
(1.20806 -0.0639406 -3.59742e-19)
(1.2742 -0.0787612 -4.06825e-19)
(-0.0115752 0.0130455 2.23736e-19)
(-0.0275976 0.0328572 -3.07069e-19)
(-0.0350897 0.047919 1.14973e-21)
(-0.0330401 0.0591089 6.79368e-20)
(-0.0210296 0.0670807 -1.25487e-19)
(0.00109644 0.0723185 -1.16007e-19)
(0.0333946 0.0752298 2.14745e-19)
(0.0758921 0.0761915 -2.22471e-21)
(0.128591 0.0755579 -1.88041e-19)
(0.191419 0.0736434 3.50532e-19)
(0.264135 0.0706975 2.75919e-22)
(0.346212 0.0668825 -1.54729e-19)
(0.436712 0.0622623 0)
(0.5342 0.0568029 0)
(0.636695 0.0503862 -6.67258e-20)
(0.741697 0.0428325 -1.24955e-19)
(0.846283 0.0339514 -2.41745e-19)
(0.947239 0.0235248 2.26916e-19)
(1.04135 0.0115363 -1.10485e-19)
(1.1255 -0.002239 2.04045e-19)
(1.19715 -0.0174062 -9.93205e-20)
(1.25483 -0.0334263 1.76704e-19)
(1.29546 -0.0532471 -4.13605e-19)
(1.32642 -0.0646508 7.98151e-20)
(-0.0130913 0.0128033 7.52444e-20)
(-0.0284336 0.0293585 0)
(-0.0324809 0.0399406 1.44714e-19)
(-0.0245658 0.0464352 -1.36324e-19)
(-0.0043572 0.0500964 1.25604e-19)
(0.0283261 0.0517767 0)
(0.0735819 0.0520987 0)
(0.131381 0.0515467 -1.00561e-19)
(0.20146 0.0505006 1.41367e-21)
(0.283182 0.0492352 8.87415e-20)
(0.375389 0.0479069 -8.27295e-20)
(0.476308 0.0465407 1.55105e-19)
(0.583518 0.0450278 0)
(0.694013 0.0431391 2.77797e-19)
(0.804355 0.0405559 -5.23602e-19)
(0.910894 0.0369125 3.71751e-19)
(1.01005 0.0318663 2.34062e-19)
(1.09856 0.0250866 -2.19722e-19)
(1.17388 0.0165451 0)
(1.23418 0.00575952 0)
(1.27905 -0.0060004 0)
(1.3087 -0.0211209 0)
(1.32505 -0.0350239 7.95465e-20)
(1.33159 -0.0504194 -2.75881e-19)
(-0.00760304 0.0608416 -8.81583e-21)
(0.0213624 -0.010903 8.88421e-21)
(0.0528908 -0.0931121 -2.79249e-22)
(0.0869102 -0.181837 0)
(0.122035 -0.272997 -7.31408e-21)
(0.157223 -0.361753 1.36806e-20)
(0.190952 -0.442633 -6.24893e-22)
(0.220952 -0.510336 -5.60154e-21)
(0.244483 -0.561417 0)
(0.258641 -0.595868 0)
(0.261206 -0.616711 -1.98117e-22)
(0.252765 -0.626748 -1.67824e-22)
(0.239556 -0.623439 -2.59344e-21)
(0.233491 -0.596044 2.37689e-21)
(0.247022 -0.530097 0)
(0.285785 -0.417408 0)
(0.345575 -0.262499 2.71519e-21)
(0.41739 -0.0798232 2.87341e-23)
(0.492908 0.110081 -2.4436e-21)
(0.565177 0.281563 -1.31957e-22)
(0.627931 0.411332 0)
(0.676058 0.490229 0)
(0.7073 0.524837 0)
(0.724096 0.528367 0)
(0.729999 0.517294 0)
(0.722198 0.512178 0)
(0.695772 0.524443 3.47095e-22)
(0.657467 0.532355 -5.6542e-22)
(0.628838 0.487173 0)
(0.629653 0.353003 0)
(0.660976 0.146644 -7.07561e-22)
(0.710191 -0.0753416 6.8764e-22)
(0.761344 -0.256812 3.03793e-22)
(0.8013 -0.370939 0)
(0.827733 -0.423238 0)
(0.841221 -0.433141 2.64894e-22)
(0.838077 -0.439734 -2.57493e-22)
(0.80845 -0.452773 0)
(0.7598 -0.455701 2.49342e-22)
(0.71681 -0.389556 -3.66338e-22)
(0.701733 -0.245576 1.3999e-22)
(0.718521 -0.0518436 0)
(0.75641 0.130913 -2.46174e-22)
(0.799029 0.252541 2.39374e-22)
(0.831849 0.337093 0)
(0.828464 0.373589 0)
(0.79481 0.416169 -7.16311e-23)
(0.75464 0.370501 2.18925e-22)
(0.738867 0.268422 0)
(0.758756 0.0951973 0)
(0.800827 -0.0837359 -6.46569e-23)
(0.822825 -0.182177 -4.54122e-24)
(0.823963 -0.326641 -8.15324e-24)
(0.793978 -0.32375 3.56957e-23)
(0.7877 -0.350988 0)
(0.791019 -0.22013 0)
(0.805378 -0.0278304 0)
(0.798247 0.0603138 0)
(0.803653 0.340579 0)
(0.784696 0.245311 0)
(0.12831 0.0276845 -9.21241e-22)
(0.161118 -0.0454866 -3.84618e-20)
(0.194558 -0.128827 8.93461e-22)
(0.229335 -0.218583 3.52148e-20)
(0.263863 -0.310081 5.23778e-22)
(0.296783 -0.39805 0)
(0.326577 -0.476329 -2.41884e-20)
(0.351143 -0.538934 4.47935e-20)
(0.368085 -0.581924 -2.05878e-20)
(0.374909 -0.605052 1.42743e-20)
(0.368991 -0.612603 -1.36769e-20)
(0.348463 -0.611491 9.81785e-21)
(0.315731 -0.6051 -9.54261e-21)
(0.28094 -0.586604 -2.40969e-22)
(0.259697 -0.539407 -8.41008e-21)
(0.264855 -0.447602 8.17343e-21)
(0.298983 -0.308405 -9.1019e-21)
(0.355421 -0.134254 8.59078e-21)
(0.424827 0.0529851 -8.56335e-21)
(0.498153 0.228006 1.56276e-20)
(0.567232 0.366823 -7.11156e-21)
(0.625153 0.458269 -3.07983e-22)
(0.668047 0.505309 -4.01954e-21)
(0.69683 0.518861 7.43889e-21)
(0.712593 0.51675 -3.43315e-21)
(0.711383 0.521244 2.05915e-22)
(0.690684 0.541082 3.97592e-21)
(0.661344 0.549206 9.12979e-22)
(0.645354 0.495286 -9.81998e-21)
(0.658537 0.348235 1.13159e-20)
(0.698202 0.130506 -5.89682e-21)
(0.750492 -0.09711 7.62423e-22)
(0.799704 -0.277257 -3.04388e-22)
(0.833542 -0.3855 5.0298e-22)
(0.851257 -0.431274 0)
(0.855838 -0.434571 0)
(0.847252 -0.432736 -9.01259e-22)
(0.814221 -0.437452 6.74044e-22)
(0.76206 -0.437915 6.98383e-22)
(0.712249 -0.37801 2.59699e-22)
(0.690955 -0.245669 -1.11884e-21)
(0.704336 -0.0622651 2.49387e-22)
(0.743354 0.115534 0)
(0.789817 0.238957 0)
(0.824943 0.331665 0)
(0.824377 0.37828 0)
(0.791998 0.426355 2.8914e-22)
(0.756591 0.378727 -1.49406e-22)
(0.742872 0.268499 0)
(0.764789 0.0881358 0)
(0.807728 -0.0920837 0)
(0.830025 -0.184802 -1.09171e-22)
(0.832633 -0.32326 1.84708e-23)
(0.799324 -0.319775 -7.97605e-23)
(0.793377 -0.350496 0)
(0.79255 -0.221781 0)
(0.803979 -0.0287953 4.83964e-23)
(0.795403 0.0607001 1.20685e-22)
(0.798895 0.341927 0)
(0.78259 0.246405 0)
(0.274386 -0.000845826 2.13645e-21)
(0.310056 -0.0746974 -8.08858e-20)
(0.344832 -0.157991 7.87803e-20)
(0.380048 -0.246957 -7.36647e-20)
(0.413731 -0.337185 -5.27229e-22)
(0.444005 -0.423325 0)
(0.469118 -0.498743 -5.16917e-20)
(0.486903 -0.556962 5.05737e-20)
(0.495412 -0.593665 2.97866e-22)
(0.493422 -0.60805 4.83579e-22)
(0.479709 -0.603895 3.83102e-22)
(0.45209 -0.589621 3.22472e-22)
(0.409045 -0.574095 -1.56244e-20)
(0.355223 -0.557722 1.54285e-20)
(0.304679 -0.526805 0)
(0.275427 -0.460094 3.65814e-22)
(0.2786 -0.344621 -1.44521e-20)
(0.313163 -0.186318 1.42997e-20)
(0.370917 -0.00632741 0)
(0.44107 0.168664 0)
(0.513131 0.314784 -1.05785e-20)
(0.578556 0.418258 1.90257e-20)
(0.631885 0.478195 -1.54555e-20)
(0.671922 0.503213 6.08498e-22)
(0.697042 0.51181 1.27823e-20)
(0.702734 0.526652 -1.36124e-20)
(0.689045 0.553558 1.44093e-20)
(0.669914 0.561604 1.27824e-21)
(0.666723 0.500448 -9.34863e-21)
(0.691713 0.343446 0)
(0.739197 0.117478 0)
(0.793818 -0.113843 4.33071e-21)
(0.840175 -0.292252 -5.73295e-21)
(0.867428 -0.395057 1.82054e-23)
(0.876438 -0.435298 2.73381e-21)
(0.872103 -0.43347 -2.65683e-21)
(0.858166 -0.424523 0)
(0.822464 -0.421437 2.02848e-22)
(0.767912 -0.419452 1.78866e-21)
(0.712006 -0.366114 -3.68277e-21)
(0.684512 -0.246223 1.70793e-21)
(0.694045 -0.0742367 1.80651e-22)
(0.733549 0.0981556 -1.97152e-21)
(0.783039 0.223605 1.53598e-21)
(0.819979 0.325036 3.00761e-22)
(0.822332 0.381998 2.82808e-22)
(0.79175 0.43577 -2.89888e-22)
(0.761479 0.386784 0)
(0.750001 0.26904 0)
(0.773502 0.081945 -1.49766e-21)
(0.816664 -0.0999579 6.92234e-22)
(0.8389 -0.187079 -5.50512e-22)
(0.842792 -0.319398 6.3217e-22)
(0.805754 -0.31545 5.9499e-22)
(0.799811 -0.349702 -1.48029e-22)
(0.795076 -0.223243 2.00786e-22)
(0.803872 -0.0294794 -1.70445e-22)
(0.793777 0.0611562 4.9098e-23)
(0.795157 0.34312 0)
(0.781447 0.247398 0)
(0.422752 -0.0255614 -1.69164e-19)
(0.460456 -0.0995304 7.94028e-22)
(0.497318 -0.182033 1.6036e-19)
(0.533699 -0.268963 -1.18496e-21)
(0.566942 -0.356638 0)
(0.594702 -0.439793 0)
(0.614914 -0.511353 -1.05499e-19)
(0.625269 -0.564661 1.35789e-20)
(0.624128 -0.595591 1.21011e-19)
(0.611351 -0.603502 -6.84887e-21)
(0.587839 -0.591331 -2.77028e-20)
(0.553749 -0.566006 -1.66042e-20)
(0.506827 -0.538108 1.66972e-20)
(0.445532 -0.515516 0)
(0.376744 -0.492925 -1.05225e-20)
(0.317951 -0.449934 9.58556e-21)
(0.287988 -0.364458 0)
(0.295008 -0.230822 0)
(0.33467 -0.0648857 1.06241e-20)
(0.396221 0.105872 -6.96437e-22)
(0.467345 0.256787 -9.0389e-21)
(0.537385 0.370961 -7.30132e-21)
(0.599273 0.443732 7.1959e-21)
(0.649188 0.481254 -6.15391e-21)
(0.682857 0.50174 -2.24653e-22)
(0.695652 0.527067 6.02786e-21)
(0.68993 0.560423 8.99074e-22)
(0.681716 0.568722 2.49166e-24)
(0.691147 0.50272 0)
(0.727325 0.339473 1.35448e-20)
(0.782156 0.108493 -1.40307e-20)
(0.838805 -0.125424 8.095e-22)
(0.882024 -0.302313 0)
(0.902555 -0.400325 -5.27256e-22)
(0.903083 -0.435784 5.55112e-21)
(0.889934 -0.430149 -8.9917e-21)
(0.870558 -0.415596 3.1276e-22)
(0.832705 -0.405286 3.6298e-22)
(0.777011 -0.400355 2.45339e-21)
(0.716149 -0.353389 3.82212e-22)
(0.682622 -0.246674 -3.20804e-21)
(0.687759 -0.0872913 2.68455e-21)
(0.726914 0.0791284 5.68525e-23)
(0.778568 0.206636 1.23329e-21)
(0.816875 0.317114 -1.50084e-21)
(0.822283 0.384495 -1.99978e-21)
(0.794021 0.444184 5.40016e-22)
(0.769213 0.394643 1.52673e-21)
(0.76022 0.270269 -3.12927e-21)
(0.784851 0.076942 2.3875e-21)
(0.827547 -0.107209 -5.61344e-22)
(0.849316 -0.189071 7.88569e-22)
(0.854323 -0.315087 5.56294e-22)
(0.813202 -0.31069 -8.89255e-22)
(0.80688 -0.348547 2.50752e-23)
(0.79847 -0.224549 -1.49157e-22)
(0.804987 -0.0299118 0)
(0.793318 0.0616961 -8.43068e-23)
(0.792415 0.344178 1.04195e-22)
(0.781283 0.248299 0)
(0.569893 -0.0500466 1.69242e-19)
(0.60883 -0.122304 -3.3246e-19)
(0.64835 -0.202025 1.60636e-19)
(0.686311 -0.284955 1.49958e-19)
(0.718748 -0.368198 -2.84061e-19)
(0.743227 -0.446491 1.24819e-20)
(0.757618 -0.512556 1.19334e-19)
(0.759622 -0.56002 8.74349e-20)
(0.748173 -0.585326 -8.5595e-20)
(0.724121 -0.588408 0)
(0.689711 -0.57217 -4.26107e-20)
(0.647499 -0.541553 7.36724e-20)
(0.597818 -0.504491 -3.13795e-20)
(0.537192 -0.471441 0)
(0.463965 -0.446774 0)
(0.387541 -0.418637 2.74316e-22)
(0.328057 -0.362817 -1.46449e-20)
(0.303666 -0.261286 1.42287e-20)
(0.318942 -0.118132 0)
(0.366178 0.04265 1.434e-20)
(0.431701 0.19454 -2.59859e-20)
(0.502802 0.317188 2.29702e-20)
(0.570515 0.402064 -2.10849e-20)
(0.628205 0.452603 -4.39628e-22)
(0.669286 0.485658 2.15611e-20)
(0.689204 0.521358 -1.1311e-20)
(0.692125 0.560804 -4.48206e-22)
(0.695122 0.570294 -9.35503e-21)
(0.71671 0.502489 -2.52301e-21)
(0.763291 0.336754 1.17895e-20)
(0.825139 0.103233 8.83034e-22)
(0.884113 -0.131836 -1.27027e-20)
(0.924378 -0.30717 2.2596e-20)
(0.938222 -0.401088 -1.10631e-20)
(0.930652 -0.432638 0)
(0.909062 -0.424512 -4.70606e-21)
(0.884274 -0.406024 4.44777e-21)
(0.844676 -0.389452 -2.2721e-21)
(0.788977 -0.381222 2.8458e-21)
(0.724517 -0.339985 -2.77209e-22)
(0.685307 -0.24666 0)
(0.685473 -0.100981 -3.05981e-22)
(0.723278 0.0587836 9.08368e-22)
(0.776204 0.188127 0)
(0.815475 0.30771 2.66273e-21)
(0.824088 0.38547 -1.03159e-21)
(0.798665 0.451369 6.01391e-22)
(0.779578 0.402236 7.52881e-22)
(0.773341 0.27229 0)
(0.798699 0.0733642 0)
(0.840265 -0.113674 -2.07925e-21)
(0.861115 -0.190751 2.96268e-21)
(0.86709 -0.310268 -1.4569e-21)
(0.82162 -0.305393 3.73903e-22)
(0.814478 -0.346995 5.12816e-22)
(0.802594 -0.22575 1.49298e-22)
(0.807234 -0.0301322 -1.88099e-22)
(0.79396 0.0623356 0)
(0.790642 0.345115 -1.66846e-22)
(0.782108 0.249111 -2.06348e-23)
(0.718504 -0.0763931 1.66343e-19)
(0.757167 -0.144744 -1.65803e-19)
(0.797956 -0.21893 1.26258e-21)
(0.835666 -0.295402 -1.14752e-21)
(0.865093 -0.372007 1.11378e-21)
(0.884048 -0.443354 -1.00412e-21)
(0.890638 -0.502394 1.68794e-21)
(0.882931 -0.543533 0)
(0.860757 -0.563817 -1.18136e-21)
(0.8261 -0.563418 9.42343e-22)
(0.782031 -0.545373 7.29089e-22)
(0.731883 -0.513962 -5.65327e-22)
(0.678242 -0.473987 0)
(0.620004 -0.432989 0)
(0.551947 -0.399849 1.94967e-22)
(0.473 -0.374278 0)
(0.395454 -0.33937 -1.05786e-22)
(0.341345 -0.271108 0)
(0.326739 -0.158953 -8.93175e-21)
(0.352726 -0.0160686 1.73593e-20)
(0.407309 0.130574 -1.65847e-20)
(0.475397 0.258206 7.93165e-21)
(0.545566 0.353709 7.51919e-21)
(0.608449 0.41723 -7.30177e-21)
(0.655552 0.46308 -1.00622e-20)
(0.682396 0.508911 9.82975e-21)
(0.694303 0.554323 0)
(0.708468 0.566328 4.9474e-22)
(0.74141 0.499905 0)
(0.797313 0.335265 0)
(0.866313 0.101778 2.6742e-20)
(0.928577 -0.133091 -2.767e-20)
(0.96642 -0.306923 1.448e-21)
(0.973812 -0.39759 1.11242e-21)
(0.958666 -0.426137 -8.01917e-22)
(0.929196 -0.41668 -4.06025e-21)
(0.899057 -0.395911 3.94259e-21)
(0.857966 -0.374239 -2.70998e-21)
(0.803222 -0.36244 2.30758e-21)
(0.736687 -0.325959 5.13404e-22)
(0.692383 -0.245817 -2.24715e-21)
(0.687027 -0.1147 -2.00619e-22)
(0.722374 0.0374904 1.55145e-21)
(0.775685 0.168122 0)
(0.81556 0.296602 -9.54822e-22)
(0.827517 0.384617 1.73109e-21)
(0.805421 0.457109 -2.18964e-21)
(0.792227 0.409456 -7.57702e-22)
(0.789066 0.275127 0)
(0.814841 0.0711551 7.9081e-22)
(0.854672 -0.119203 -1.70526e-21)
(0.874113 -0.192092 1.79845e-23)
(0.88092 -0.304928 -4.49972e-22)
(0.830965 -0.299464 4.9068e-22)
(0.822521 -0.344981 -4.91662e-22)
(0.807307 -0.226897 0)
(0.810508 -0.0301919 1.88185e-22)
(0.79563 0.0630857 0)
(0.789801 0.345936 0)
(0.783928 0.249828 3.10229e-23)
(0.873701 -0.101798 -1.61162e-19)
(0.907937 -0.164526 1.59537e-19)
(0.945539 -0.230684 -1.15339e-21)
(0.978498 -0.29841 1.17476e-21)
(1.00085 -0.366414 0)
(1.011 -0.429131 0)