/*--------------------------------*- C++ -*----------------------------------*\
| =========                 |                                                 |
| \\      /  F ield         | OpenFOAM: The Open Source CFD Toolbox           |
|  \\    /   O peration     | Version:  2512                                  |
|   \\  /    A nd           | Website:  www.openfoam.com                      |
|    \\/     M anipulation  |                                                 |
\*---------------------------------------------------------------------------*/
FoamFile
{
    version     2.0;
    format      ascii;
    arch        "LSB;label=32;scalar=64";
    class       volScalarField;
    location    "61.5";
    object      p;
}
// * * * * * * * * * * * * * * * * * * * * * * * * * * * * * * * * * * * * * //

dimensions      [0 2 -2 0 0 0 0];

internalField   nonuniform List<scalar> 
13248
(
-0.294763
-0.29363
-0.2917
-0.289155
-0.286183
-0.282944
-0.279554
-0.276114
-0.272698
-0.269356
-0.266125
-0.263023
-0.260057
-0.257221
-0.2545
-0.251868
-0.24929
-0.24673
-0.24414
-0.241505
-0.238701
-0.235875
-0.23234
-0.228981
-0.301779
-0.299924
-0.297355
-0.294242
-0.290754
-0.287051
-0.283249
-0.279422
-0.275611
-0.271836
-0.268098
-0.264386
-0.260683
-0.256967
-0.253216
-0.24941
-0.245528
-0.241553
-0.237466
-0.233249
-0.228858
-0.22428
-0.219313
-0.214555
-0.310345
-0.307578
-0.304236
-0.300462
-0.296382
-0.292152
-0.287862
-0.283544
-0.279195
-0.27479
-0.270298
-0.26569
-0.260947
-0.256062
-0.25104
-0.245895
-0.240648
-0.235323
-0.229938
-0.224507
-0.218998
-0.213442
-0.20769
-0.202197
-0.320526
-0.316668
-0.312432
-0.307911
-0.303163
-0.298312
-0.293402
-0.288407
-0.28327
-0.277929
-0.272345
-0.266503
-0.260422
-0.254142
-0.247722
-0.241228
-0.234723
-0.228257
-0.221863
-0.215553
-0.209308
-0.203147
-0.196952
-0.191194
-0.332365
-0.327258
-0.322029
-0.316687
-0.311178
-0.305565
-0.299827
-0.293869
-0.287594
-0.280941
-0.273903
-0.26653
-0.258908
-0.251147
-0.24336
-0.235644
-0.228074
-0.220699
-0.213536
-0.206585
-0.199824
-0.193249
-0.186783
-0.180756
-0.345852
-0.339374
-0.333082
-0.326852
-0.320456
-0.313868
-0.306985
-0.299668
-0.291825
-0.283455
-0.274641
-0.265529
-0.256287
-0.247079
-0.238038
-0.229263
-0.220811
-0.212703
-0.204937
-0.197493
-0.190342
-0.183461
-0.176793
-0.170569
-0.360883
-0.352956
-0.345558
-0.338356
-0.330883
-0.322996
-0.314538
-0.305379
-0.295514
-0.28507
-0.274261
-0.26333
-0.252503
-0.241958
-0.231815
-0.22214
-0.212954
-0.204249
-0.195998
-0.188165
-0.180711
-0.173598
-0.166789
-0.160403
-0.377194
-0.367798
-0.359267
-0.350965
-0.342128
-0.332502
-0.321944
-0.31044
-0.298157
-0.2854
-0.27251
-0.259798
-0.2475
-0.235765
-0.224668
-0.214228
-0.204428
-0.195228
-0.186583
-0.17844
-0.170753
-0.163474
-0.156578
-0.150078
-0.394323
-0.383503
-0.373808
-0.364206
-0.353604
-0.341708
-0.32851
-0.314227
-0.299267
-0.284111
-0.269192
-0.25483
-0.241219
-0.228451
-0.21654
-0.205457
-0.195146
-0.185544
-0.176586
-0.168209
-0.160355
-0.152976
-0.146039
-0.139478
-0.41157
-0.399433
-0.388519
-0.377322
-0.364469
-0.349753
-0.333456
-0.31612
-0.298408
-0.280932
-0.264145
-0.24832
-0.233577
-0.219931
-0.207339
-0.195724
-0.185002
-0.175087
-0.165898
-0.157361
-0.14941
-0.141992
-0.135054
-0.128484
-0.428011
-0.414702
-0.402458
-0.389287
-0.373659
-0.355642
-0.335945
-0.315478
-0.295111
-0.275509
-0.257078
-0.240001
-0.224308
-0.20994
-0.196799
-0.18477
-0.173743
-0.163614
-0.154287
-0.145678
-0.137712
-0.130329
-0.123443
-0.116939
-0.442574
-0.428282
-0.414573
-0.399002
-0.380084
-0.35837
-0.335102
-0.311546
-0.288704
-0.267215
-0.247383
-0.229279
-0.212834
-0.19792
-0.184386
-0.172088
-0.16089
-0.150672
-0.141325
-0.132756
-0.124885
-0.11764
-0.110907
-0.104618
-0.282925
-0.284853
-0.286037
-0.286777
-0.287341
-0.287797
-0.288173
-0.288488
-0.288749
-0.28895
-0.289085
-0.289146
-0.289126
-0.289021
-0.288832
-0.288565
-0.288235
-0.287866
-0.287492
-0.287162
-0.286937
-0.28689
-0.287124
-0.287812
-0.2806
-0.282306
-0.283325
-0.283913
-0.284305
-0.284565
-0.284721
-0.284797
-0.284804
-0.284747
-0.284628
-0.28445
-0.284222
-0.283958
-0.283678
-0.283414
-0.283205
-0.283101
-0.283164
-0.28347
-0.284107
-0.28517
-0.286778
-0.289214
-0.279048
-0.28047
-0.281283
-0.281692
-0.281892
-0.28194
-0.281866
-0.281696
-0.281448
-0.281134
-0.280765
-0.280356
-0.279927
-0.279508
-0.279136
-0.278861
-0.27874
-0.278843
-0.27925
-0.28005
-0.281346
-0.28324
-0.285823
-0.289437
-0.27813
-0.279244
-0.279829
-0.280037
-0.280025
-0.27984
-0.279517
-0.279085
-0.278568
-0.277985
-0.277356
-0.276706
-0.276066
-0.275477
-0.27499
-0.274667
-0.274581
-0.274814
-0.275449
-0.276595
-0.278352
-0.280804
-0.283985
-0.288384
-0.27771
-0.278532
-0.278884
-0.278874
-0.278626
-0.278184
-0.277585
-0.276864
-0.276051
-0.275175
-0.274264
-0.273351
-0.272476
-0.271689
-0.271052
-0.270635
-0.27052
-0.270796
-0.271557
-0.272903
-0.274933
-0.27773
-0.281263
-0.285792
-0.277691
-0.278263
-0.278389
-0.278148
-0.277639
-0.276909
-0.276001
-0.274957
-0.273817
-0.272617
-0.271395
-0.270191
-0.269053
-0.26804
-0.267219
-0.266667
-0.26647
-0.266723
-0.267518
-0.268949
-0.271105
-0.274053
-0.277822
-0.281898
-0.278035
-0.278415
-0.278328
-0.277841
-0.277046
-0.275997
-0.274747
-0.273348
-0.271851
-0.2703
-0.268744
-0.267231
-0.265816
-0.264564
-0.263546
-0.262845
-0.262548
-0.262746
-0.263527
-0.264971
-0.267155
-0.270015
-0.274062
-0.277187
-0.278786
-0.279025
-0.278733
-0.277984
-0.276879
-0.275484
-0.273868
-0.272094
-0.270223
-0.268314
-0.266423
-0.264607
-0.262929
-0.261459
-0.260266
-0.259438
-0.25906
-0.259215
-0.259979
-0.261397
-0.263584
-0.266148
-0.270421
-0.27235
-0.280072
-0.280192
-0.279689
-0.278658
-0.277217
-0.275463
-0.273471
-0.271321
-0.269087
-0.266837
-0.264638
-0.262554
-0.260653
-0.259005
-0.257691
-0.256778
-0.256344
-0.256454
-0.257167
-0.258466
-0.260556
-0.262634
-0.266824
-0.2678
-0.282087
-0.282065
-0.28132
-0.279975
-0.278189
-0.276067
-0.273706
-0.271199
-0.268632
-0.266083
-0.263622
-0.261319
-0.259241
-0.257453
-0.256021
-0.255003
-0.25445
-0.254404
-0.254901
-0.25588
-0.257584
-0.259134
-0.262648
-0.263136
-0.285063
-0.284819
-0.28377
-0.282076
-0.279918
-0.277423
-0.274706
-0.271868
-0.269001
-0.266185
-0.263492
-0.260986
-0.258724
-0.256756
-0.255125
-0.253862
-0.252986
-0.252504
-0.252418
-0.252692
-0.253465
-0.254325
-0.256609
-0.257016
-0.28923
-0.288629
-0.287185
-0.285086
-0.282522
-0.279642
-0.276573
-0.273417
-0.270264
-0.267189
-0.264253
-0.261502
-0.258975
-0.256695
-0.254673
-0.252906
-0.25138
-0.250068
-0.248928
-0.247952
-0.247096
-0.246479
-0.24653
-0.246821
-0.289308
-0.29169
-0.29499
-0.299244
-0.30438
-0.310159
-0.315916
-0.321306
-0.325171
-0.326575
-0.323126
-0.314998
-0.301276
-0.281902
-0.258081
-0.231985
-0.206076
-0.183558
-0.167305
-0.15956
-0.161382
-0.171531
-0.1858
-0.197649
-0.200222
-0.190402
-0.169505
-0.143883
-0.120489
-0.103887
-0.0952427
-0.0939341
-0.101118
-0.118441
-0.141625
-0.159138
-0.159949
-0.143772
-0.119021
-0.0958489
-0.0799779
-0.071198
-0.0693614
-0.0763385
-0.0888074
-0.0967594
-0.093352
-0.0816772
-0.0690242
-0.0585293
-0.0508779
-0.047512
-0.0491555
-0.048742
-0.04432
-0.0361893
-0.0253889
-0.0156449
-0.00792813
0.000411839
-0.293532
-0.29896
-0.305577
-0.313393
-0.322196
-0.331766
-0.340387
-0.348946
-0.355094
-0.357481
-0.354506
-0.345199
-0.328824
-0.305495
-0.276607
-0.244634
-0.212603
-0.183678
-0.160707
-0.145977
-0.140872
-0.14506
-0.155363
-0.165978
-0.170442
-0.164292
-0.149087
-0.129695
-0.112189
-0.100661
-0.0960959
-0.0983828
-0.10955
-0.131116
-0.157644
-0.176046
-0.174691
-0.154752
-0.125868
-0.0987048
-0.079271
-0.0676406
-0.0630564
-0.0670632
-0.0770501
-0.0842018
-0.0825551
-0.074372
-0.0655846
-0.0582087
-0.0532318
-0.0522195
-0.0553877
-0.0550263
-0.049185
-0.039265
-0.026896
-0.016203
-0.00776877
0.00039406
-0.296571
-0.304347
-0.313562
-0.324158
-0.335772
-0.34791
-0.359615
-0.370146
-0.378096
-0.380984
-0.378003
-0.367554
-0.348835
-0.322062
-0.288797
-0.251778
-0.214338
-0.179863
-0.15123
-0.130545
-0.119178
-0.117438
-0.123413
-0.132341
-0.138087
-0.136003
-0.126528
-0.113428
-0.101929
-0.0955123
-0.0950215
-0.101004
-0.116216
-0.141922
-0.171579
-0.190802
-0.187501
-0.16409
-0.131483
-0.100813
-0.0781806
-0.0639376
-0.0568668
-0.0581219
-0.0656908
-0.0719375
-0.0718599
-0.0670143
-0.0619595
-0.0576774
-0.0555175
-0.0570126
-0.0616829
-0.0612891
-0.0539533
-0.0422568
-0.0283624
-0.0167315
-0.00766957
0.000308732
-0.297467
-0.307296
-0.318258
-0.330755
-0.344353
-0.358371
-0.371842
-0.383552
-0.391788
-0.395888
-0.392957
-0.381667
-0.361228
-0.331886
-0.29527
-0.254252
-0.21249
-0.173579
-0.14036
-0.114759
-0.0980102
-0.0906865
-0.0919433
-0.0984736
-0.104935
-0.106499
-0.102479
-0.0954377
-0.0897467
-0.088217
-0.0915906
-0.10117
-0.1203
-0.149975
-0.182654
-0.202825
-0.198044
-0.17162
-0.135779
-0.102151
-0.0767859
-0.0602124
-0.0509467
-0.0497262
-0.0550145
-0.0602633
-0.0615139
-0.059735
-0.058182
-0.0569284
-0.0576955
-0.061838
-0.0679836
-0.067468
-0.058569
-0.045123
-0.0297694
-0.0172389
-0.00763204
0.000171585
-0.296529
-0.307741
-0.319591
-0.333036
-0.347711
-0.362774
-0.377209
-0.389798
-0.398663
-0.4027
-0.399615
-0.387819
-0.366388
-0.33552
-0.296856
-0.253369
-0.208796
-0.166757
-0.130041
-0.100452
-0.0790939
-0.066642
-0.062982
-0.0662172
-0.0723384
-0.07682
-0.0774429
-0.0759124
-0.0755547
-0.0784461
-0.0853729
-0.0983462
-0.12122
-0.154679
-0.190263
-0.211583
-0.205962
-0.177235
-0.138769
-0.102766
-0.0751806
-0.0565854
-0.0454133
-0.0420022
-0.045218
-0.0494385
-0.0517363
-0.0526426
-0.0542721
-0.0559394
-0.0597149
-0.0666364
-0.0742264
-0.0734945
-0.0629856
-0.0478265
-0.0310984
-0.0177307
-0.00765293
-2.45834e-06
-0.293938
-0.305993
-0.317991
-0.331517
-0.346415
-0.361672
-0.376205
-0.38934
-0.39803
-0.401762
-0.398455
-0.386486
-0.364829
-0.333626
-0.29446
-0.250232
-0.204562
-0.160924
-0.121958
-0.0893483
-0.0641162
-0.0469894
-0.0383387
-0.0374389
-0.0417431
-0.0474764
-0.0518689
-0.0550041
-0.0592223
-0.0659733
-0.0761446
-0.092327
-0.118744
-0.15574
-0.194051
-0.216747
-0.210996
-0.180859
-0.140489
-0.102714
-0.0734307
-0.0531418
-0.0403408
-0.0350145
-0.0364105
-0.0396361
-0.0426926
-0.0458129
-0.0502353
-0.0546788
-0.0615198
-0.0713354
-0.0803435
-0.0793047
-0.0671658
-0.0503373
-0.0323326
-0.0182078
-0.00772545
-0.000199396
-0.290092
-0.302406
-0.313847
-0.326776
-0.341201
-0.355931
-0.369878
-0.381539
-0.390583
-0.393934
-0.3905
-0.378711
-0.35755
-0.327135
-0.288929
-0.245622
-0.200543
-0.156859
-0.116974
-0.082425
-0.0541646
-0.0329499
-0.0194496
-0.0138053
-0.0148553
-0.0199627
-0.0266137
-0.0329715
-0.0408345
-0.0508849
-0.0640076
-0.0832053
-0.112903
-0.153115
-0.193925
-0.218164
-0.213065
-0.182457
-0.140982
-0.102051
-0.0715689
-0.0499315
-0.0357648
-0.0287702
-0.0285927
-0.0309146
-0.0344388
-0.0392866
-0.0460735
-0.0531148
-0.0630537
-0.0758551
-0.0862609
-0.084828
-0.0710744
-0.0526298
-0.0334569
-0.0186649
-0.00784004
-0.000406039
-0.285329
-0.297095
-0.3074
-0.319282
-0.332607
-0.346111
-0.359369
-0.369907
-0.377673
-0.380411
-0.376925
-0.365644
-0.345654
-0.317036
-0.281061
-0.240087
-0.197028
-0.154651
-0.115078
-0.0796971
-0.0493936
-0.0249113
-0.00705416
0.00349956
0.00680231
0.00421355
-0.00273938
-0.0104497
-0.020897
-0.0336408
-0.0494014
-0.0713629
-0.103963
-0.146954
-0.190046
-0.215991
-0.212139
-0.181986
-0.140291
-0.100824
-0.0696108
-0.0469823
-0.0316997
-0.02327
-0.021706
-0.0232212
-0.0264904
-0.0330901
-0.0417891
-0.0512216
-0.0642559
-0.0801092
-0.0918941
-0.0899789
-0.0746744
-0.0546859
-0.0344613
-0.0190937
-0.00798592
-0.000610015
-0.279607
-0.289687
-0.298493
-0.3091
-0.320905
-0.332772
-0.343839
-0.353827
-0.360206
-0.362392
-0.358972
-0.348549
-0.330331
-0.304327
-0.27155
-0.233934
-0.193908
-0.153822
-0.115525
-0.0802879
-0.0489632
-0.0222442
-0.000915522
0.0141184
0.0222129
0.0237053
0.0205457
0.0113807
-0.000410874
-0.0150809
-0.0330562
-0.0574347
-0.0925337
-0.137855
-0.18292
-0.210555
-0.208371
-0.179561
-0.13859
-0.0992295
-0.067713
-0.0444239
-0.0282226
-0.0185529
-0.0157189
-0.0165052
-0.0198765
-0.0272462
-0.0373792
-0.0489578
-0.0650721
-0.0840158
-0.0971586
-0.094666
-0.0779368
-0.056505
-0.0353519
-0.019491
-0.00815586
-0.000801138
-0.272293
-0.279729
-0.287149
-0.2963
-0.306174
-0.316349
-0.32608
-0.334302
-0.33965
-0.341439
-0.338318
-0.329147
-0.31321
-0.290407
-0.261443
-0.227782
-0.191346
-0.154092
-0.117657
-0.0832543
-0.0517439
-0.0237745
-2.41935e-05
0.0186033
0.0311412
0.0371036
0.0369721
0.0305262
0.0191705
0.00354939
-0.0160636
-0.0423446
-0.0792914
-0.126253
-0.172917
-0.20223
-0.202143
-0.175559
-0.136308
-0.0977278
-0.0662421
-0.0425283
-0.0255128
-0.014688
-0.0105995
-0.0107252
-0.0139725
-0.0216753
-0.0328248
-0.0463194
-0.0654396
-0.0874598
-0.101957
-0.0988193
-0.0808487
-0.0580989
-0.0361451
-0.0198609
-0.00834796
-0.000973466
-0.262717
-0.267805
-0.274288
-0.281716
-0.289533
-0.297913
-0.306065
-0.312903
-0.31771
-0.319446
-0.317056
-0.309581
-0.296365
-0.277197
-0.252461
-0.223137
-0.190631
-0.156509
-0.122239
-0.0890419
-0.0577985
-0.0291828
-0.0038612
0.017454
0.0337836
0.0441299
0.0480994
0.0454657
0.0362556
0.0210197
0.000631946
-0.0269264
-0.0652318
-0.113576
-0.161208
-0.19127
-0.193649
-0.169835
-0.133245
-0.0961237
-0.0649426
-0.0410243
-0.0233896
-0.0115081
-0.00611351
-0.00565876
-0.00877954
-0.016414
-0.0280915
-0.0431632
-0.0652962
-0.0904495
-0.1062
-0.102615
-0.0833396
-0.0594016
-0.0367937
-0.020176
-0.00854596
-0.00112042
-0.251157
-0.255843
-0.260803
-0.265581
-0.27103
-0.277505
-0.28397
-0.289527
-0.293281
-0.294812
-0.293116
-0.287338
-0.276869
-0.261373
-0.240925
-0.21607
-0.187752
-0.157166
-0.12558
-0.0941787
-0.0639417
-0.0356535
-0.0099703
0.0125404
0.0311709
0.0450607
0.0528149
0.0553524
0.0489246
0.0352885
0.0152717
-0.0123328
-0.0505188
-0.0986415
-0.146375
-0.177087
-0.181158
-0.16056
-0.126896
-0.0917678
-0.0615245
-0.0380451
-0.0204886
-0.00816214
-0.00174467
-0.000711269
-0.00374451
-0.0113602
-0.0233241
-0.0396783
-0.0645535
-0.0926557
-0.109766
-0.106137
-0.0851947
-0.0601776
-0.0371075
-0.0203283
-0.008689
-0.00122228
-0.239158
-0.247503
-0.251278
-0.254377
-0.258777
-0.26438
-0.27002
-0.27406
-0.27682
-0.277557
-0.275301
-0.269316
-0.259077
-0.244304
-0.225079
-0.201888
-0.175557
-0.147121
-0.11768
-0.088261
-0.0597223
-0.0327579
-0.00795728
0.0142135
0.0332245
0.048418
0.0597651
0.0632107
0.0598055
0.0482746
0.0289361
0.00107942
-0.0380889
-0.0883192
-0.138365
-0.169979
-0.173032
-0.151258
-0.118121
-0.084484
-0.0557507
-0.0333515
-0.0164213
-0.00437558
0.00240184
0.00417539
0.00195422
-0.00478954
-0.0170028
-0.0346675
-0.0627331
-0.0945554
-0.113512
-0.109739
-0.0865615
-0.0604284
-0.0370509
-0.0202837
-0.00873592
-0.00127132
-0.225747
-0.236685
-0.240626
-0.242423
-0.245284
-0.249311
-0.25333
-0.256453
-0.258063
-0.257611
-0.254469
-0.24808
-0.238035
-0.224128
-0.20644
-0.185364
-0.161553
-0.135833
-0.109085
-0.0821615
-0.0558082
-0.0306603
-0.0072695
0.0139466
0.0325871
0.0481408
0.0593404
0.0647954
0.0633035
0.0534414
0.0351848
0.00792001
-0.0309682
-0.0808895
-0.129734
-0.158828
-0.159798
-0.138419
-0.107497
-0.0765635
-0.049965
-0.0290032
-0.0129389
-0.0011176
0.00601795
0.00831231
0.00655919
0.000284379
-0.0116592
-0.0303068
-0.0612023
-0.0961762
-0.11622
-0.111254
-0.0869578
-0.060146
-0.0367778
-0.0201562
-0.00875649
-0.00133901
-0.211869
-0.22406
-0.228261
-0.229211
-0.230705
-0.233396
-0.236373
-0.23855
-0.239142
-0.237771
-0.234075
-0.227646
-0.218149
-0.205402
-0.18944
-0.17053
-0.149161
-0.125977
-0.101701
-0.0770672
-0.0527475
-0.0293339
-0.00735467
0.0127683
0.0306532
0.0456861
0.0569671
0.063061
0.0623929
0.0533557
0.0357676
0.0091593
-0.0284662
-0.0754028
-0.119575
-0.144741
-0.144392
-0.124603
-0.0967007
-0.0687462
-0.0443477
-0.0247631
-0.00952346
0.00199715
0.0093682
0.0122656
0.0111399
0.00530714
-0.00670535
-0.026713
-0.0603448
-0.0975564
-0.117934
-0.111848
-0.0866896
-0.05949
-0.0363346
-0.0199471
-0.00875657
-0.00141539
-0.198292
-0.210287
-0.21462
-0.215236
-0.215906
-0.217663
-0.219762
-0.221091
-0.220936
-0.218998
-0.21504
-0.208761
-0.199882
-0.188235
-0.17382
-0.15683
-0.137639
-0.116767
-0.0948078
-0.0723841
-0.0500874
-0.0284552
-0.00798636
0.0108949
0.0277953
0.0420564
0.0529039
0.0591019
0.0589347
0.050655
0.0339738
0.00864148
-0.0264748
-0.0687905
-0.107415
-0.128742
-0.127658
-0.110083
-0.0855216
-0.0607418
-0.0386898
-0.0205572
-0.00619887
0.00493469
0.0124477
0.0160445
0.0157974
0.0106687
-0.00146679
-0.0230891
-0.059305
-0.0982326
-0.118728
-0.11153
-0.085716
-0.0584208
-0.0356955
-0.0196514
-0.00873078
-0.00149614
-0.184348
-0.195914
-0.200401
-0.200989
-0.201206
-0.202252
-0.203593
-0.204268
-0.203622
-0.201359
-0.197303
-0.191248
-0.182979
-0.172353
-0.159355
-0.144124
-0.126948
-0.108235
-0.0884671
-0.0681647
-0.0478438
-0.027994
-0.0090879
0.00845094
0.0242017
0.037511
0.0476739
0.0536463
0.0537877
0.0464009
0.0311318
0.00793143
-0.0235889
-0.0605426
-0.093523
-0.111282
-0.110155
-0.0952979
-0.0743519
-0.0528249
-0.0331568
-0.0164873
-0.00300898
0.00767696
0.0152429
0.0195553
0.0203759
0.0162706
0.0042532
-0.0189138
-0.0575286
-0.0979834
-0.118377
-0.110047
-0.083904
-0.0568903
-0.0348405
-0.0192642
-0.00867206
-0.00158047
-0.17031
-0.181522
-0.186074
-0.186699
-0.186646
-0.187172
-0.187946
-0.188159
-0.187199
-0.184772
-0.180744
-0.174983
-0.167338
-0.15769
-0.146017
-0.132411
-0.117091
-0.100376
-0.0826554
-0.0643659
-0.0459558
-0.0278694
-0.0105502
0.0055848
0.0201043
0.032386
0.0417572
0.0473318
0.0476875
0.0413257
0.0278652
0.00739609
-0.0199126
-0.0511666
-0.0785878
-0.0933464
-0.0927776
-0.0809045
-0.0635532
-0.0451565
-0.0278177
-0.0126093
7.30948e-06
0.0102013
0.0177292
0.0227024
0.0247428
0.0219461
0.0103735
-0.014144
-0.0549399
-0.0965885
-0.116532
-0.107175
-0.0811653
-0.0548729
-0.0337559
-0.0187813
-0.00857441
-0.00166633
-0.156805
-0.167383
-0.171842
-0.172509
-0.172318
-0.172512
-0.172905
-0.172807
-0.171658
-0.16919
-0.165298
-0.159901
-0.152894
-0.144184
-0.133741
-0.121629
-0.10801
-0.0931349
-0.0773218
-0.0609342
-0.0443607
-0.0279993
-0.0122604
0.00245007
0.0157082
0.0269373
0.0354973
0.0406349
0.0411946
0.03594
0.0244948
0.00706102
-0.015784
-0.0413954
-0.0637456
-0.0761552
-0.0764479
-0.067446
-0.0534175
-0.0379
-0.022759
-0.00898582
0.00279877
0.0124836
0.0198901
0.0254014
0.0287361
0.0274577
0.016657
-0.00897938
-0.05152
-0.0937599
-0.112888
-0.102758
-0.0774515
-0.052361
-0.0324349
-0.0182001
-0.0084329
-0.00174986
-0.143795
-0.153565
-0.157863
-0.158594
-0.158366
-0.15837
-0.158519
-0.15822
-0.156988
-0.154578
-0.150908
-0.145925
-0.139559
-0.13174
-0.122439
-0.111697
-0.0996382
-0.0864595
-0.0724189
-0.0578194
-0.0429955
-0.0283011
-0.0141102
-0.000808952
0.0111909
0.0213752
0.029152
0.0338797
0.0346551
0.0305144
0.0211315
0.00679497
-0.0117278
-0.0322364
-0.0502309
-0.0607263
-0.0618345
-0.0553017
-0.0441546
-0.0311802
-0.018046
-0.00566071
0.00531178
0.0144962
0.0217168
0.0275861
0.0321533
0.0324996
0.0227708
-0.00361908
-0.0471541
-0.0892306
-0.107217
-0.0967186
-0.0727671
-0.0493725
-0.0308813
-0.0175196
-0.00824368
-0.00182573
-0.131201
-0.140219
-0.144334
-0.145125
-0.144914
-0.144819
-0.144809
-0.1444
-0.143172
-0.1409
-0.137509
-0.13297
-0.12724
-0.120266
-0.112025
-0.102543
-0.0919152
-0.0802967
-0.0678968
-0.0549678
-0.0417958
-0.0286934
-0.0159979
-0.00406562
0.00670772
0.0158861
0.0229263
0.0272882
0.0282824
0.0251956
0.0177756
0.00633674
-0.0083422
-0.0245028
-0.0388135
-0.0476217
-0.0492579
-0.0446496
-0.0358724
-0.0250784
-0.0137316
-0.00266461
0.00749771
0.0161987
0.0231932
0.0292313
0.0348031
0.0367184
0.0283292
0.00177676
-0.0417496
-0.0827988
-0.0993993
-0.0890932
-0.0671891
-0.0459559
-0.0291108
-0.0167409
-0.00800406
-0.00188773
-0.119241
-0.127507
-0.131387
-0.132213
-0.13204
-0.131901
-0.131812
-0.131368
-0.130201
-0.128113
-0.125039
-0.12096
-0.115851
-0.109678
-0.102419
-0.0940961
-0.0847788
-0.0745912
-0.0637033
-0.0523249
-0.0406998
-0.0291009
-0.0178276
-0.00720165
0.00242508
0.0106289
0.0169837
0.0210238
0.0222266
0.0200823
0.0144085
0.00550153
-0.00592698
-0.0184723
-0.0296426
-0.0368999
-0.038728
-0.0355068
-0.0286017
-0.0196381
-0.0098561
-1.6404e-05
0.00932556
0.0175443
0.0242878
0.0303285
0.0365692
0.0397748
0.0328929
0.00698603
-0.035331
-0.0743662
-0.0894305
-0.0800635
-0.0608765
-0.0421915
-0.0271518
-0.015868
-0.00771263
-0.00192964
-0.108012
-0.115474
-0.119076
-0.119921
-0.119803
-0.119663
-0.119547
-0.119113
-0.118057
-0.116184
-0.113442
-0.109825
-0.105318
-0.0998972
-0.0935493
-0.0862879
-0.0781682
-0.0692884
-0.0597871
-0.0498385
-0.0396496
-0.0294553
-0.0195164
-0.0101233
-0.00159354
0.00572201
0.0114503
0.0152067
0.0165962
0.0152598
0.0110799
0.00431653
-0.00441237
-0.0139776
-0.0225029
-0.0283489
-0.0300866
-0.0277927
-0.0223231
-0.014872
-0.00644761
0.00227026
0.0107861
0.0184957
0.0249648
0.0308648
0.0370407
0.041417
0.0360006
0.0117085
-0.0280049
-0.063983
-0.0773649
-0.0699839
-0.0540704
-0.038188
-0.0250438
-0.014908
-0.00736948
-0.00194623
-0.0974448
-0.104133
-0.107454
-0.108308
-0.108254
-0.108142
-0.108042
-0.107671
-0.106723
-0.105075
-0.102671
-0.0995048
-0.0955713
-0.0908556
-0.0853466
-0.0790556
-0.0720259
-0.0643363
-0.0560997
-0.0474603
-0.0385919
-0.0296956
-0.0209972
-0.012749
-0.00522834
0.00126635
0.00642156
0.00992314
0.0114717
0.0108179
0.00789265
0.00291823
-0.00359026
-0.0107518
-0.0172186
-0.021662
-0.0231031
-0.021383
-0.0169886
-0.0107704
-0.00351911
0.00418288
0.0118847
0.0190407
0.0252038
0.030889
0.0368871
0.0415964
0.0373842
0.0157133
-0.0199576
-0.052041
-0.0643533
-0.0594428
-0.047079
-0.0340724
-0.022834
-0.0138713
-0.00697638
-0.00193394
-0.0875486
-0.0935281
-0.0965698
-0.0974161
-0.0974228
-0.0973491
-0.0972757
-0.0969595
-0.0961527
-0.0947469
-0.0926782
-0.0899457
-0.0865525
-0.0824899
-0.0777501
-0.0723417
-0.0662996
-0.0596871
-0.0525962
-0.0451461
-0.0374818
-0.0297729
-0.0222122
-0.0150142
-0.00841615
-0.00267118
0.00196308
0.00523321
0.00691098
0.00682506
0.00493951
0.00143755
-0.00326329
-0.00848412
-0.0132824
-0.0164899
-0.017533
-0.0161341
-0.0125322
-0.00730908
-0.00106715
0.00571496
0.0126308
0.0191952
0.0250027
0.0304055
0.0360079
0.0404742
0.0371681
0.0188405
-0.0117534
-0.0395637
-0.0513601
-0.0491319
-0.0402277
-0.0299731
-0.0205723
-0.0127718
-0.00653692
-0.00189136
-0.0783706
-0.0836757
-0.0864339
-0.0872585
-0.0873204
-0.087293
-0.0872638
-0.0870331
-0.0863811
-0.0851766
-0.0834166
-0.0810963
-0.0782078
-0.074745
-0.0707049
-0.0660948
-0.0609421
-0.0552982
-0.0492381
-0.0428596
-0.0362828
-0.0296488
-0.0231194
-0.016877
-0.0111164
-0.00604969
-0.00188643
0.00116967
0.00294423
0.00331871
0.00227925
-2.501e-05
-0.00326169
-0.00691161
-0.0102889
-0.0125201
-0.0131458
-0.011902
-0.00887806
-0.00445358
0.000924599
0.00687286
0.0130374
0.0189903
0.0243813
0.0294266
0.0344857
0.0383389
0.0356958
0.0208245
-0.00443309
-0.0280126
-0.0394507
-0.0396476
-0.0337853
-0.0260005
-0.0183059
-0.0116256
-0.00605658
-0.00181917
-0.0698871
-0.0745567
-0.0770387
-0.077834
-0.0779461
-0.0779664
-0.0779826
-0.0778269
-0.0773111
-0.0763288
-0.0748612
-0.0729136
-0.070486
-0.06757
-0.064162
-0.0602685
-0.0559118
-0.0511328
-0.0459932
-0.0405723
-0.0349681
-0.0292982
-0.0236984
-0.0183188
-0.013307
-0.00884857
-0.00511282
-0.00226077
-0.000424885
0.000312587
-5.05722e-05
-0.00139644
-0.00346505
-0.00585808
-0.00808061
-0.00950206
-0.00973708
-0.00854882
-0.00594476
-0.00216095
0.00248051
0.00767603
0.0131275
0.0184639
0.023384
0.0279938
0.0323829
0.0354515
0.0332468
0.0214312
0.00114101
-0.0184594
-0.0292979
-0.0313336
-0.0279173
-0.0222364
-0.016077
-0.0104511
-0.00554259
-0.00171991
-0.0620579
-0.0661512
-0.0683745
-0.0691353
-0.0692904
-0.0693561
-0.069418
-0.069338
-0.0689559
-0.0681785
-0.0669762
-0.0653639
-0.0633475
-0.0609218
-0.0580791
-0.0548237
-0.0511736
-0.0471616
-0.0428368
-0.0382636
-0.0335226
-0.0287088
-0.0239358
-0.0193464
-0.0149853
-0.011071
-0.00772429
-0.00507064
-0.00320965
-0.00219983
-0.00203754
-0.00263016
-0.00377762
-0.00518103
-0.00648972
-0.00724695
-0.00713324
-0.00594531
-0.00364872
-0.000381078
0.00363187
0.008152
0.0129334
0.0176603
0.0220638
0.0261541
0.0298074
0.0320735
0.0301138
0.0207667
0.00476872
-0.0112174
-0.021133
-0.0242852
-0.0226961
-0.0187368
-0.0139224
-0.00926787
-0.00500382
-0.00159753
-0.0548671
-0.0584406
-0.0604224
-0.0611441
-0.0613347
-0.0614421
-0.0615475
-0.0615374
-0.0612754
-0.0606802
-0.0597259
-0.0584123
-0.056756
-0.0547615
-0.052418
-0.0497261
-0.0466986
-0.0433611
-0.0397525
-0.0359246
-0.0319412
-0.0278761
-0.0238164
-0.0198529
-0.0161421
-0.0127324
-0.00974716
-0.0072903
-0.00543898
-0.00423748
-0.00368154
-0.00369964
-0.00413883
-0.00477121
-0.00537476
-0.00559769
-0.00518791
-0.00397499
-0.0019075
0.000940665
0.00441623
0.00833407
0.0124919
0.0166252
0.0204863
0.023951
0.0269342
0.028491
0.0266733
0.0192819
0.00683098
-0.00600952
-0.0147871
-0.0184455
-0.0181353
-0.0155377
-0.0118738
-0.00809649
-0.00445037
-0.00145698
-0.0482909
-0.0513943
-0.0531517
-0.0538319
-0.0540514
-0.0541957
-0.0543402
-0.0543917
-0.0542348
-0.0537992
-0.0530631
-0.052027
-0.0506933
-0.0490645
-0.0471523
-0.0449508
-0.0424653
-0.0397155
-0.0367321
-0.0335549
-0.0302337
-0.0268287
-0.0234104
-0.0200497
-0.016851
-0.0138804
-0.0112249
-0.00896317
-0.00715498
-0.00583292
-0.0049938
-0.00458604
-0.00449851
-0.00458384
-0.00462735
-0.00442581
-0.00377381
-0.00253152
-0.000641162
0.00186179
0.00487583
0.00825867
0.0118443
0.0154125
0.0187411
0.0216516
0.0239657
0.0249479
0.0232508
0.017412
0.00780171
-0.00239484
-0.00996117
-0.0136885
-0.0142146
-0.0126601
-0.00995783
-0.00695723
-0.00389319
-0.00130371
-0.0422911
-0.0449747
-0.0465276
-0.0471661
-0.0474085
-0.0475844
-0.0477623
-0.0478664
-0.0477993
-0.0475006
-0.0469505
-0.0461494
-0.0451014
-0.0438082
-0.0422661
-0.0404808
-0.0384601
-0.0362183
-0.0337745
-0.0311591
-0.028412
-0.0255844
-0.022717
-0.0198799
-0.0171402
-0.0145612
-0.0122088
-0.0101414
-0.00840471
-0.00702408
-0.00599742
-0.00528763
-0.00480972
-0.00448894
-0.00413938
-0.00362042
-0.00278368
-0.00152019
0.000225568
0.00244015
0.00505649
0.00796611
0.0110345
0.0140789
0.0168989
0.0192973
0.021048
0.0216029
0.0200444
0.0154392
0.008061
4.12406e-05
-0.00632757
-0.00986857
-0.0108953
-0.0101126
-0.00819543
-0.00586917
-0.00334351
-0.0011433
-0.036832
-0.0391451
-0.0405138
-0.0411112
-0.0413708
-0.0415725
-0.041778
-0.0419256
-0.0419336
-0.0417506
-0.0413589
-0.0407586
-0.0399532
-0.038943
-0.0377262
-0.0363042
-0.0346824
-0.0328693
-0.0308829
-0.0287467
-0.0264899
-0.0241455
-0.0217661
-0.0193854
-0.0170558
-0.0148294
-0.0127565
-0.010882
-0.00924082
-0.00785368
-0.00672098
-0.00581858
-0.00510061
-0.00446535
-0.00383363
-0.00309002
-0.00212495
-0.000856245
0.000763368
0.0027324
0.00500608
0.00750001
0.0101066
0.0126749
0.0150276
0.0169698
0.0182768
0.0185403
0.017148
0.0135245
0.00788031
0.00162819
-0.00362144
-0.00684253
-0.00812776
-0.00789356
-0.00660174
-0.00484935
-0.00281233
-0.000981174
-0.0318812
-0.0338682
-0.0350716
-0.0356291
-0.0359008
-0.0361231
-0.0363502
-0.0365326
-0.0366023
-0.0365155
-0.0362566
-0.0358252
-0.035224
-0.0344531
-0.0335108
-0.0323966
-0.031113
-0.0296672
-0.0280718
-0.0263443
-0.0245069
-0.0225862
-0.0206142
-0.0186245
-0.0166548
-0.0147434
-0.0129283
-0.011244
-0.00971727
-0.00836466
-0.00718778
-0.00616882
-0.00528473
-0.00446675
-0.00365148
-0.0027614
-0.00171959
-0.000465522
0.00103797
0.00279338
0.00477076
0.0069036
0.0091041
0.0112492
0.0131886
0.0147441
0.0157134
0.0157953
0.0145875
0.0117495
0.00744773
0.00260888
-0.00164249
-0.00448272
-0.00585672
-0.00599266
-0.00518583
-0.00391185
-0.00230982
-0.0008223
-0.0274037
-0.0291052
-0.0301614
-0.0306807
-0.0309605
-0.0311983
-0.0314417
-0.0316509
-0.0317698
-0.0317614
-0.0316121
-0.031321
-0.03089
-0.0303189
-0.0296059
-0.0287494
-0.0277507
-0.0266144
-0.025349
-0.023967
-0.0224846
-0.0209219
-0.0193018
-0.01765
-0.0159943
-0.0143633
-0.0127855
-0.0112868
-0.009888
-0.00860242
-0.0074341
-0.00637548
-0.00539726
-0.00447087
-0.00354805
-0.00257614
-0.00150204
-0.000283016
0.00110885
0.00267511
0.00439502
0.00621713
0.00806732
0.00984546
0.0114305
0.0126688
0.0133895
0.0133718
0.0123557
0.0101474
0.00687969
0.00316179
-0.000232067
-0.00267301
-0.00402434
-0.00439288
-0.00395108
-0.00306735
-0.00184477
-0.000671019
-0.0233653
-0.0248185
-0.0257445
-0.0262278
-0.026512
-0.0267609
-0.0270156
-0.0272445
-0.0274014
-0.0274556
-0.0273952
-0.0272189
-0.0269278
-0.0265216
-0.0259981
-0.0253556
-0.0245938
-0.0237155
-0.0227261
-0.0216343
-0.0204514
-0.0191918
-0.0178722
-0.0165113
-0.0151295
-0.0137478
-0.0123873
-0.0110677
-0.00980496
-0.00860979
-0.00748796
-0.00642965
-0.00542711
-0.00445701
-0.00348847
-0.00248732
-0.00141807
-0.000252462
0.00102887
0.00242574
0.00392154
0.00547658
0.0070303
0.00849856
0.00978685
0.0107727
0.0113161
0.0112553
0.0104264
0.0087241
0.00625437
0.00341545
0.000738728
-0.00131471
-0.00257346
-0.00307174
-0.00289543
-0.00232268
-0.0014242
-0.000530886
-0.0197339
-0.0209722
-0.0217835
-0.0222332
-0.0225186
-0.0227747
-0.0230363
-0.0232787
-0.0234642
-0.0235672
-0.0235775
-0.0234936
-0.0233161
-0.0230442
-0.0226759
-0.022209
-0.0216424
-0.0209774
-0.0202173
-0.0193674
-0.0184355
-0.0174315
-0.0163673
-0.0152561
-0.0141126
-0.0129522
-0.0117902
-0.010641
-0.00951718
-0.00842656
-0.00737257
-0.00636097
-0.00537879
-0.00441378
-0.00344706
-0.00245763
-0.00142313
-0.000326157
0.000844776
0.00208801
0.00338902
0.00471505
0.0060205
0.00723467
0.00828009
0.00906662
0.00948778
0.0094222
0.00876794
0.00747101
0.00561556
0.00346487
0.00137368
-0.000321703
-0.00144958
-0.00200359
-0.00201216
-0.00168084
-0.00105298
-0.000404595
-0.0164792
-0.0175323
-0.0182431
-0.0186614
-0.0189456
-0.0192054
-0.0194703
-0.0197209
-0.0199267
-0.0200669
-0.0201324
-0.0201219
-0.0200352
-0.0198716
-0.0196289
-0.0193047
-0.0188975
-0.0184075
-0.0178361
-0.0171867
-0.016464
-0.0156746
-0.0148266
-0.0139292
-0.0129926
-0.0120279
-0.0110462
-0.0100579
-0.00907284
-0.00809836
-0.00713771
-0.0061929
-0.00526097
-0.00433558
-0.00340547
-0.00245835
-0.0014812