/*--------------------------------*- C++ -*----------------------------------*\
| =========                 |                                                 |
| \\      /  F ield         | OpenFOAM: The Open Source CFD Toolbox           |
|  \\    /   O peration     | Version:  2512                                  |
|   \\  /    A nd           | Website:  www.openfoam.com                      |
|    \\/     M anipulation  |                                                 |
\*---------------------------------------------------------------------------*/
FoamFile
{
    version     2.0;
    format      ascii;
    arch        "LSB;label=32;scalar=64";
    class       volScalarField;
    location    "73";
    object      p;
}
// * * * * * * * * * * * * * * * * * * * * * * * * * * * * * * * * * * * * * //

dimensions      [0 2 -2 0 0 0 0];

internalField   nonuniform List<scalar> 
13248
(
-0.314897
-0.313522
-0.311159
-0.308046
-0.30445
-0.300627
-0.296802
-0.293173
-0.289893
-0.287069
-0.284753
-0.282944
-0.281584
-0.280567
-0.279747
-0.278953
-0.277998
-0.276705
-0.274906
-0.272497
-0.269259
-0.265295
-0.259617
-0.253048
-0.322307
-0.320222
-0.317257
-0.313631
-0.30959
-0.305382
-0.301212
-0.297234
-0.29355
-0.290207
-0.2872
-0.284472
-0.28193
-0.279447
-0.276887
-0.274112
-0.270999
-0.267447
-0.263378
-0.258735
-0.253437
-0.247459
-0.240512
-0.233361
-0.331602
-0.328572
-0.324846
-0.320609
-0.316049
-0.311391
-0.30679
-0.302334
-0.298052
-0.293922
-0.289889
-0.285871
-0.281777
-0.277517
-0.273017
-0.268223
-0.263101
-0.25764
-0.25183
-0.24567
-0.23911
-0.232183
-0.224695
-0.21723
-0.34278
-0.338595
-0.333967
-0.329021
-0.32385
-0.318623
-0.313423
-0.308248
-0.303045
-0.297744
-0.292275
-0.286584
-0.280641
-0.274443
-0.268008
-0.261369
-0.254563
-0.247622
-0.240562
-0.233382
-0.226057
-0.218608
-0.210908
-0.203524
-0.355812
-0.350303
-0.344662
-0.338916
-0.333014
-0.327036
-0.320967
-0.314709
-0.308159
-0.301244
-0.293947
-0.286301
-0.278378
-0.270274
-0.262083
-0.253889
-0.245749
-0.237695
-0.229732
-0.221848
-0.214017
-0.206237
-0.198432
-0.190976
-0.370629
-0.363674
-0.356947
-0.350314
-0.343517
-0.336512
-0.32918
-0.321363
-0.312968
-0.304003
-0.294569
-0.284821
-0.274937
-0.265078
-0.255371
-0.2459
-0.236705
-0.227794
-0.219149
-0.210744
-0.202544
-0.194527
-0.186641
-0.179138
-0.387072
-0.378607
-0.370749
-0.363121
-0.355188
-0.346758
-0.337645
-0.327715
-0.316986
-0.305624
-0.293883
-0.282035
-0.27032
-0.258916
-0.247932
-0.237418
-0.227378
-0.217791
-0.208617
-0.199813
-0.191336
-0.183147
-0.175217
-0.167659
-0.404828
-0.394851
-0.38583
-0.377046
-0.367622
-0.357245
-0.345757
-0.333169
-0.319712
-0.305752
-0.291688
-0.277857
-0.264504
-0.25177
-0.239716
-0.228343
-0.217617
-0.207487
-0.197895
-0.188785
-0.180104
-0.171807
-0.163867
-0.156289
-0.423372
-0.411948
-0.401724
-0.391537
-0.380153
-0.367227
-0.352778
-0.337096
-0.320685
-0.304105
-0.287837
-0.272219
-0.257442
-0.243583
-0.230638
-0.21856
-0.207279
-0.196721
-0.18681
-0.177478
-0.168664
-0.160318
-0.152406
-0.144847
-0.441935
-0.429186
-0.417685
-0.405749
-0.391854
-0.375786
-0.357911
-0.338895
-0.319514
-0.300454
-0.2822
-0.265029
-0.249046
-0.234249
-0.220574
-0.207928
-0.196213
-0.185332
-0.175196
-0.165725
-0.156848
-0.148511
-0.140656
-0.133161
-0.459515
-0.445597
-0.432683
-0.418566
-0.401592
-0.381888
-0.360316
-0.337941
-0.315745
-0.294451
-0.274479
-0.255999
-0.239022
-0.223467
-0.209215
-0.196138
-0.184112
-0.173022
-0.162765
-0.153249
-0.144395
-0.136138
-0.128386
-0.121024
-0.474968
-0.460076
-0.445583
-0.428813
-0.408221
-0.3845
-0.359103
-0.333466
-0.308689
-0.285444
-0.26403
-0.244493
-0.226743
-0.210625
-0.195974
-0.182627
-0.170437
-0.159273
-0.149022
-0.13958
-0.130864
-0.122795
-0.115254
-0.108179
-0.297246
-0.299051
-0.300149
-0.300836
-0.301393
-0.301912
-0.302441
-0.303017
-0.303655
-0.304367
-0.30516
-0.306047
-0.307044
-0.308175
-0.309469
-0.310961
-0.312689
-0.314693
-0.317019
-0.319707
-0.322795
-0.326301
-0.330249
-0.33472
-0.297238
-0.298551
-0.299328
-0.299782
-0.300132
-0.300467
-0.300845
-0.301311
-0.301896
-0.302626
-0.303526
-0.304631
-0.305979
-0.307622
-0.309616
-0.312023
-0.31491
-0.31834
-0.32237
-0.327051
-0.332416
-0.338464
-0.345157
-0.352614
-0.297738
-0.298525
-0.29895
-0.299142
-0.299254
-0.299371
-0.29956
-0.299875
-0.30036
-0.301054
-0.301999
-0.303244
-0.304848
-0.30688
-0.309419
-0.312544
-0.316338
-0.320877
-0.32622
-0.332412
-0.339466
-0.347338
-0.355891
-0.365246
-0.298465
-0.298748
-0.298818
-0.298724
-0.298562
-0.298413
-0.298354
-0.29845
-0.298756
-0.299327
-0.300216
-0.301486
-0.303205
-0.30546
-0.308337
-0.311927
-0.316321
-0.321595
-0.327805
-0.334979
-0.343104
-0.352103
-0.36175
-0.371956
-0.299204
-0.29906
-0.298797
-0.298401
-0.297924
-0.297451
-0.297068
-0.296855
-0.296883
-0.297219
-0.297927
-0.299081
-0.300758
-0.303047
-0.30604
-0.309831
-0.314508
-0.320141
-0.326778
-0.334424
-0.343037
-0.3525
-0.362649
-0.372703
-0.299829
-0.299378
-0.298822
-0.298114
-0.297284
-0.296422
-0.295635
-0.295018
-0.29466
-0.294643
-0.295044
-0.295943
-0.297425
-0.299578
-0.302494
-0.306261
-0.310959
-0.316646
-0.323351
-0.331055
-0.339689
-0.349009
-0.359216
-0.368277
-0.300338
-0.299714
-0.298915
-0.29789
-0.296672
-0.295369
-0.294105
-0.293
-0.292164
-0.291697
-0.291689
-0.292229
-0.293405
-0.295306
-0.298017
-0.301619
-0.306176
-0.31172
-0.318256
-0.325718
-0.334061
-0.342731
-0.352601
-0.359948
-0.300858
-0.300183
-0.299184
-0.29784
-0.296211
-0.29443
-0.292646
-0.291005
-0.28964
-0.288671
-0.288204
-0.288339
-0.289166
-0.290773
-0.293233
-0.29661
-0.300945
-0.306246
-0.312467
-0.319451
-0.327218
-0.334785
-0.343787
-0.349038
-0.301643
-0.300991
-0.299817
-0.298149
-0.296102
-0.293836
-0.291529
-0.289354
-0.287467
-0.286008
-0.285101
-0.284852
-0.285351
-0.286676
-0.288888
-0.292015
-0.296052
-0.300951
-0.306621
-0.312807
-0.319567
-0.325665
-0.333022
-0.336095
-0.303051
-0.302423
-0.301062
-0.299066
-0.296607
-0.293881
-0.291091
-0.288434
-0.286089
-0.284211
-0.282931
-0.282355
-0.282566
-0.283613
-0.285515
-0.288253
-0.29176
-0.295921
-0.300592
-0.305498
-0.310648
-0.315027
-0.32011
-0.321272
-0.305488
-0.3048
-0.3032
-0.300859
-0.298003
-0.294859
-0.291652
-0.288595
-0.285875
-0.283655
-0.282059
-0.281178
-0.281061
-0.281716
-0.283103
-0.285134
-0.287674
-0.290551
-0.293567
-0.296514
-0.299315
-0.301578
-0.304111
-0.303812
-0.309342
-0.308424
-0.306496
-0.303777
-0.300533
-0.297012
-0.293452
-0.290067
-0.28704
-0.284518
-0.282603
-0.281347
-0.28075
-0.280762
-0.281278
-0.282149
-0.28319
-0.284195
-0.284944
-0.28529
-0.285044
-0.284342
-0.283455
-0.282088
-0.340707
-0.347598
-0.354181
-0.359629
-0.362882
-0.362828
-0.358043
-0.347283
-0.330831
-0.308367
-0.281108
-0.251214
-0.221422
-0.194701
-0.17388
-0.161237
-0.158105
-0.163997
-0.175789
-0.187852
-0.193456
-0.187595
-0.16948
-0.143524
-0.116712
-0.0948638
-0.0808808
-0.0748072
-0.0755365
-0.0836434
-0.100828
-0.124148
-0.143295
-0.146773
-0.13276
-0.108674
-0.0845599
-0.0670656
-0.0572129
-0.0533189
-0.0565467
-0.0680429
-0.0808787
-0.0839474
-0.0761389
-0.0632482
-0.0524202
-0.0449244
-0.0423941
-0.0462826
-0.0506314
-0.0494973
-0.0447528
-0.0368305
-0.0294038
-0.0225565
-0.0169049
-0.0146768
-0.0103944
-0.00376949
-0.362866
-0.372927
-0.3828
-0.391061
-0.396417
-0.397452
-0.392637
-0.380737
-0.361346
-0.33468
-0.302122
-0.266134
-0.229818
-0.196326
-0.168485
-0.148597
-0.138134
-0.13732
-0.144094
-0.153699
-0.159811
-0.157013
-0.144104
-0.124314
-0.103521
-0.0869954
-0.0774993
-0.0750891
-0.0790566
-0.0907091
-0.111797
-0.13844
-0.158963
-0.160981
-0.143808
-0.116121
-0.0886566
-0.0681133
-0.0556672
-0.0494828
-0.0501424
-0.0589126
-0.069861
-0.0731404
-0.0671445
-0.0574339
-0.0497305
-0.0450132
-0.0451601
-0.0517808
-0.0579915
-0.0564447
-0.050346
-0.0400971
-0.0306502
-0.0214454
-0.0140529
-0.0108216
-0.00676866
-0.00243668
-0.378646
-0.391765
-0.403755
-0.413889
-0.420617
-0.422368
-0.417358
-0.404273
-0.3825
-0.352362
-0.315408
-0.274325
-0.232445
-0.193186
-0.159511
-0.133581
-0.116779
-0.109621
-0.111108
-0.117718
-0.123886
-0.124127
-0.116337
-0.102729
-0.0880993
-0.0770956
-0.0722018
-0.0734624
-0.0806789
-0.0957991
-0.120515
-0.150148
-0.171928
-0.172856
-0.152914
-0.122086
-0.091739
-0.0685524
-0.0537712
-0.0455067
-0.0437856
-0.0499195
-0.0589795
-0.0622946
-0.0580664
-0.051387
-0.0466966
-0.0447944
-0.0477675
-0.0572617
-0.0654073
-0.0632561
-0.0557884
-0.043171
-0.0317668
-0.020401
-0.0114155
-0.00722319
-0.00333941
-0.00117367
-0.38763
-0.402728
-0.415883
-0.427128
-0.434665
-0.436755
-0.431526
-0.4176
-0.394247
-0.361752
-0.321699
-0.276872
-0.230858
-0.187257
-0.149033
-0.118237
-0.0961195
-0.0832904
-0.0794087
-0.0823319
-0.0876913
-0.0904905
-0.0872408
-0.0795438
-0.0709011
-0.0652917
-0.0648107
-0.069504
-0.0797393
-0.0980314
-0.126037
-0.15845
-0.18157
-0.181938
-0.159849
-0.126452
-0.0937647
-0.0684286
-0.0516441
-0.0415485
-0.0376984
-0.0413736
-0.0485812
-0.0517479
-0.0491105
-0.0452186
-0.0433615
-0.0442396
-0.0501088
-0.062581
-0.0727426
-0.0697579
-0.061022
-0.0460182
-0.0327363
-0.0194109
-0.0089851
-0.00388401
-0.00010654
1.63731e-05
-0.389551
-0.405632
-0.419171
-0.430936
-0.43881
-0.440884
-0.435437
-0.421103
-0.397036
-0.363459
-0.321936
-0.275273
-0.227038
-0.180804
-0.139463
-0.104955
-0.0784342
-0.0605477
-0.0513976
-0.0499499
-0.0532971
-0.0572202
-0.0579002
-0.0554706
-0.0522978
-0.0516236
-0.0550737
-0.0628063
-0.0757248
-0.0968501
-0.127839
-0.162806
-0.187409
-0.187861
-0.164459
-0.129223
-0.0947934
-0.0678222
-0.0494021
-0.0377446
-0.032047
-0.0334833
-0.0389299
-0.041798
-0.0404777
-0.0390386
-0.0397569
-0.0433033
-0.0520655
-0.0675777
-0.0798284
-0.0757434
-0.0660064
-0.0486118
-0.0335456
-0.0184601
-0.00675035
-0.000802777
0.00293202
0.00113155
-0.38518
-0.401186
-0.414902
-0.42605
-0.433812
-0.435542
-0.429934
-0.415625
-0.391716
-0.358399
-0.317166
-0.270676
-0.222288
-0.175341
-0.132519
-0.0956095
-0.0656738
-0.043386
-0.0291593
-0.0228069
-0.0228309
-0.026244
-0.0295036
-0.0311132
-0.0325945
-0.036101
-0.0428793
-0.0532278
-0.0685058
-0.0921299
-0.125737
-0.163019
-0.189234
-0.190439
-0.166664
-0.130419
-0.0948999
-0.0668038
-0.0471275
-0.0341815
-0.0269248
-0.0263858
-0.0302122
-0.0326754
-0.0323465
-0.0329472
-0.0359151
-0.0419477
-0.053523
-0.0720725
-0.0865003
-0.0810534
-0.0707317
-0.0509277
-0.0341795
-0.0175271
-0.004696
0.00202433
0.00578153
0.00217258
-0.375552
-0.390015
-0.402678
-0.41388
-0.420887
-0.422031
-0.416382
-0.402532
-0.379604
-0.347792
-0.308453
-0.263967
-0.21732
-0.171467
-0.128781
-0.0908603
-0.0586707
-0.0328741
-0.0140564
-0.00261382
0.00178631
0.000779196
-0.00287832
-0.00710356
-0.0120856
-0.0188925
-0.0283826
-0.0409351
-0.0582655
-0.084049
-0.119871
-0.159226
-0.187127
-0.189623
-0.166422
-0.130087
-0.0941642
-0.0654297
-0.0448702
-0.0309051
-0.0223643
-0.0201225
-0.0225128
-0.0245277
-0.0248625
-0.0270445
-0.0318879
-0.0401469
-0.0543737
-0.0759009
-0.0926452
-0.0862169
-0.0751864
-0.0529403
-0.0346258
-0.0165919
-0.00280212
0.00460621
0.00845096
0.00314257
-0.362194
-0.374475
-0.38544
-0.395528
-0.401229
-0.40181
-0.396329
-0.383404
-0.362242
-0.333036
-0.296925
-0.255894
-0.212458
-0.169121
-0.127916
-0.0902456
-0.0570005
-0.0288126
-0.00630518
0.00985067
0.0191973
0.0221386
0.0203171
0.0155942
0.00865813
-0.000437887
-0.0120013
-0.0263726
-0.0454801
-0.0730837
-0.110695
-0.151776
-0.181385
-0.185571
-0.16378
-0.128289
-0.0926517
-0.063742
-0.0426579
-0.0279389
-0.0183757
-0.0146902
-0.0158302
-0.0174115
-0.0181241
-0.0214337
-0.0277382
-0.0379017
-0.0545343
-0.0789167
-0.0981513
-0.0951952
-0.0793543
-0.05463
-0.034882
-0.015652
-0.0010552
0.00695734
0.0109541
0.00404665
-0.345323
-0.353017
-0.362924
-0.371751
-0.376343
-0.37655
-0.37158
-0.360089
-0.341385
-0.315626
-0.283665
-0.24703
-0.207715
-0.167779
-0.128952
-0.0924846
-0.0592358
-0.0298259
-0.00484202
0.0150365
0.0290262
0.0366548
0.0384236
0.0356055
0.0284913
0.0183884
0.00551349
-0.0102531
-0.0308518
-0.0599865
-0.0990205
-0.141422
-0.172528
-0.178663
-0.15899
-0.125219
-0.0905571
-0.0619118
-0.0406222
-0.0253836
-0.0150093
-0.010098
-0.0101417
-0.0113156
-0.0121729
-0.0162198
-0.0235451
-0.0351967
-0.0539342
-0.0810185
-0.102699
-0.10151
-0.0830609
-0.056007
-0.0349675
-0.0147285
0.000535298
0.00908138
0.0133094
0.00489177
-0.325756
-0.329886
-0.338117
-0.345194
-0.348586
-0.348683
-0.344631
-0.335021
-0.319274
-0.297454
-0.270087
-0.238241
-0.203403
-0.167215
-0.131166
-0.0964321
-0.0639041
-0.0342065
-0.00790385
0.0144457
0.0320804
0.0441405
0.0503059
0.0513571
0.0457315
0.0362084
0.0229588
0.00631239
-0.0154038
-0.0456273
-0.0854922
-0.128753
-0.161142
-0.1694
-0.152507
-0.121312
-0.0883315
-0.0603357
-0.0390512
-0.0234508
-0.0123791
-0.00634971
-0.00539338
-0.00622725
-0.00712291
-0.0114617
-0.019355
-0.0321065
-0.0525749
-0.0820773
-0.106138
-0.106749
-0.0862246
-0.0570956
-0.0349068
-0.0138221
0.001962
0.0109572
0.0155322
0.00568619
-0.303872
-0.30607
-0.313142
-0.318368
-0.320754
-0.321198
-0.318411
-0.311015
-0.298531
-0.280864
-0.258234
-0.231289
-0.201042
-0.168732
-0.135628
-0.102883
-0.0714113
-0.0418203
-0.0147592
0.00918407
0.0293635
0.0450674
0.0555981
0.0618517
0.0584904
0.0513601
0.0390457
0.0223291
3.20361e-05
-0.0309042
-0.0714731
-0.115111
-0.14787
-0.158175
-0.144227
-0.116378
-0.085794
-0.0588245
-0.0377026
-0.0219186
-0.0103072
-0.00323687
-0.00130075
-0.00195982
-0.00302063
-0.00730352
-0.0152412
-0.0284943
-0.0503466
-0.0822096
-0.108444
-0.115238
-0.0886481
-0.0577594
-0.0346137
-0.0128115
0.00330302
0.0126122
0.0176318
0.00643646
-0.282567
-0.285776
-0.29006
-0.291891
-0.292897
-0.293267
-0.291241
-0.285693
-0.276143
-0.262315
-0.244182
-0.222032
-0.196455
-0.168299
-0.13857
-0.108304
-0.0784548
-0.0498024
-0.0230409
0.00124551
0.0225304
0.0402021
0.0535328
0.0604865
0.0654964
0.061717
0.0515245
0.0358097
0.0139859
-0.0164315
-0.0562341
-0.0991029
-0.13175
-0.142861
-0.13236
-0.108207
-0.0804539
-0.0551049
-0.0347041
-0.0192942
-0.00771458
-8.56736e-05
0.0026623
0.00213251
0.00075632
-0.00356745
-0.0114271
-0.0247872
-0.047439
-0.0810539
-0.109135
-0.115222
-0.089777
-0.0575523
-0.0337868
-0.011446
0.00472557
0.0142314
0.0196706
0.00714897
-0.264002
-0.275176
-0.277005
-0.275549
-0.274884
-0.27424
-0.271732
-0.266146
-0.256904
-0.243788
-0.226824
-0.206274
-0.182636
-0.156632
-0.129125
-0.101015
-0.0731303
-0.0461667
-0.0207324
0.0026471
0.0235232
0.0413971
0.0555467
0.0651924
0.0711086
0.0702224
0.0623417
0.0478901
0.0265057
-0.00434664
-0.0458504
-0.0907726
-0.123955
-0.134633
-0.122613
-0.0989299
-0.0727109
-0.0490531
-0.0299432
-0.0153848
-0.00430572
0.00321412
0.00635329
0.00618347
0.00515212
0.00161909
-0.00593767
-0.0193107
-0.0430031
-0.0791384
-0.11003
-0.118412
-0.0903909
-0.056595
-0.0324622
-0.00985053
0.00614126
0.0158862
0.0216515
0.00782603
-0.243067
-0.256858
-0.258903
-0.256323
-0.253975
-0.252113
-0.249026
-0.243294
-0.234298
-0.221936
-0.206325
-0.187704
-0.166455
-0.143129
-0.118399
-0.0929894
-0.0675934
-0.0428286
-0.0192505
0.00264835
0.022451
0.0397627
0.0540614
0.0644538
0.0710955
0.0717565
0.0655004
0.052403
0.0319968
0.00171372
-0.0391971
-0.0825141
-0.112905
-0.120804
-0.109008
-0.0874355
-0.0640449
-0.0428158
-0.0253506
-0.0118845
-0.00142619
0.00599167
0.00940997
0.00933181
0.00828891
0.00497543
-0.00188387
-0.0149394
-0.0391179
-0.0769379
-0.109442
-0.113908
-0.0894564
-0.0549453
-0.0307234
-0.00816405
0.00744095
0.0173836
0.0232485
0.00837735
-0.222887
-0.237407
-0.240058
-0.236978
-0.233515
-0.230741
-0.227287
-0.221676
-0.21324
-0.20191
-0.187828
-0.171185
-0.152248
-0.131414
-0.109208
-0.0862305
-0.0630857
-0.0403385
-0.0185051
0.0019456
0.0206074
0.0371149
0.0510201
0.0614802
0.0681467
0.0693579
0.0639043
0.0516451
0.032082
0.00312644
-0.0347525
-0.0731096
-0.0990204
-0.105094
-0.0946506
-0.0759859
-0.0556283
-0.0368061
-0.0209275
-0.00846494
0.00136667
0.0085804
0.0122105
0.0122871
0.0112846
0.00807265
0.00145488
-0.011649
-0.0362439
-0.0745476
-0.107311
-0.111673
-0.0875876
-0.0527985
-0.0286748
-0.00637334
0.00876276
0.0188293
0.0246916
0.00887559
-0.204448
-0.217991
-0.220837
-0.217839
-0.213979
-0.210718
-0.207084
-0.201722
-0.193932
-0.183619
-0.170923
-0.156018
-0.139109
-0.120498
-0.100598
-0.0799033
-0.0589314
-0.0381807
-0.0181183
0.00081704
0.0182348
0.0337734
0.0469031
0.0569953
0.0634781
0.0649793
0.0602188
0.0489068
0.0306523
0.00415578
-0.0291961
-0.0619169
-0.0835265
-0.0886767
-0.080122
-0.0645174
-0.0471868
-0.030796
-0.016546
-0.00510003
0.00405506
0.0109858
0.0147781
0.015129
0.014287
0.0113139
0.00482944
-0.00847634
-0.0332328
-0.071161
-0.103855
-0.108364
-0.0847154
-0.0500862
-0.0262896
-0.00444412
0.0101033
0.0201884
0.0260293
0.00934116
-0.186308
-0.198838
-0.20186
-0.199223
-0.195382
-0.191923
-0.188233
-0.183161
-0.176024
-0.16669
-0.155285
-0.141973
-0.126925
-0.110368
-0.0926215
-0.0740827
-0.0551874
-0.0363725
-0.0180617
-0.000666598
0.0154322
0.0298611
0.0420968
0.0516051
0.0577723
0.0594536
0.0554659
0.045448
0.0291786
0.00604935
-0.0222977
-0.0496247
-0.0675897
-0.072276
-0.0658877
-0.0534012
-0.03901
-0.0249646
-0.0123148
-0.00185384
0.00662178
0.0132138
0.0171082
0.0178116
0.0172369
0.0146549
0.00845467
-0.00482446
-0.0293082
-0.0665576
-0.0990522
-0.103679
-0.080726
-0.0467765
-0.023579
-0.0023932
0.0114496
0.0214325
0.027238
0.00976245
-0.168754
-0.180505
-0.183599
-0.181328
-0.177676
-0.174226
-0.170612
-0.165884
-0.159411
-0.151035
-0.140855
-0.129025
-0.115687
-0.101016
-0.0852574
-0.0687292
-0.0517974
-0.0348436
-0.0182501
-0.00239843
0.0123461
0.0256076
0.0369044
0.0457385
0.0515284
0.0533497
0.0502093
0.041732
0.0278286
0.00838251
-0.0149812
-0.0372965
-0.0522346
-0.0568303
-0.0525965
-0.0430024
-0.0312767
-0.0193893
-0.00827541
0.00123407
0.00905214
0.0152642
0.0191937
0.0202849
0.0201169
0.018062
0.0123417
-0.000573481
-0.0244686
-0.060807
-0.0927596
-0.0974895
-0.0755721
-0.0428664
-0.0205676
-0.000239509
0.0127873
0.0225308
0.0282719
0.010119
-0.15243
-0.163166
-0.166181
-0.16423
-0.16087
-0.157591
-0.154175
-0.149843
-0.144032
-0.136578
-0.127553
-0.117091
-0.105319
-0.092372
-0.0784414
-0.063782
-0.0486991
-0.0335235
-0.0185958
-0.00426329
0.00912847
0.0212123
0.0315524
0.0396866
0.0450924
0.0470421
0.0447504
0.0378691
0.0264126
0.0105997
-0.00811886
-0.0260425
-0.0384942
-0.0430968
-0.0406755
-0.0335401
-0.0241224
-0.0141535
-0.00447695
0.00412031
0.0113266
0.0171362
0.0210435
0.0225167
0.0228951
0.0214872
0.0164382
0.00414021
-0.0189239
-0.0539188
-0.0849422
-0.0897721
-0.069256
-0.0383798
-0.0172971
0.00198685
0.0140987
0.0234499
0.029082
0.0103933
-0.137096
-0.146735
-0.149621
-0.148017
-0.145018
-0.142007
-0.138872
-0.134968
-0.129806
-0.123225
-0.115278
-0.106079
-0.0957393
-0.0843689
-0.0721174
-0.059189
-0.0458366
-0.0323439
-0.0190121
-0.0061536
0.00591205
0.0168375
0.0262291
0.0336698
0.0387054
0.040769
0.0392666
0.0339161
0.0247981
0.0122894
-0.00241275
-0.0166422
-0.0269636
-0.0314124
-0.030313
-0.0251303
-0.0176363
-0.00932055
-0.000954399
0.00677224
0.0134234
0.018833
0.0226745
0.0244889
0.0255203
0.024854
0.0206585
0.0091962
-0.0127283
-0.045925
-0.075678
-0.080582
-0.061844
-0.033376
-0.0138269
0.00424671
0.0153656
0.0241584
0.0296196
0.010572
-0.122596
-0.131306
-0.134081
-0.132794
-0.130162
-0.127458
-0.124645
-0.121184
-0.116649
-0.110888
-0.103941
-0.0959055
-0.0868764
-0.0769456
-0.0662316
-0.054898
-0.0431534
-0.0312391
-0.0194187
-0.00797143
0.00281314
0.0126192
0.0210934
0.027867
0.0325528
0.0347135
0.0339143
0.0299465
0.022913
0.0132206
0.00183744
-0.00928862
-0.017693
-0.0217723
-0.0215191
-0.0177992
-0.0118592
-0.00493586
0.0022653
0.00916695
0.0153131
0.0203557
0.0241021
0.0262003
0.0279308
0.0281028
0.024932
0.0145757
-0.00589583
-0.0369711
-0.0651341
-0.0700795
-0.053486
-0.0279548
-0.0102311
0.00649368
0.016571
0.0246346
0.0298417
0.0106469
-0.109143
-0.116976
-0.119591
-0.118562
-0.116296
-0.113918
-0.111442
-0.108422
-0.104484
-0.0994883
-0.0934642
-0.0864951
-0.0786624
-0.0700424
-0.0607304
-0.0508579
-0.0405965
-0.0301503
-0.0197464
-0.00963063
-6.38113e-05
0.00867563
0.0162783
0.0224217
0.026781
0.0290193
0.0288219
0.0260416
0.0207838
0.013433
0.00477431
-0.00375487
-0.0104487
-0.0139951
-0.0141945
-0.0115141
-0.00679769
-0.00102836
0.00516149
0.0112934
0.0169641
0.0216926
0.0253383
0.0276623
0.0300475
0.0312491
0.0292212
0.0202541
0.00142943
-0.0273407
-0.0536075
-0.0585655
-0.0444284
-0.0222568
-0.00659437
0.0086789
0.0177037
0.0248772
0.0297217
0.0106188
-0.0967571
-0.103703
-0.106144
-0.105381
-0.103422
-0.101358
-0.099218
-0.0966219
-0.0932437
-0.0889561
-0.0837781
-0.0777809
-0.0710347
-0.0636033
-0.0555637
-0.0470221
-0.038119
-0.0290252
-0.0199349
-0.0110613
-0.00263396
0.00510487
0.0118888
0.017443
0.0214961
0.0237874
0.0240897
0.0223052
0.0185339
0.0131106
0.00667525
0.000304864
-0.00490048
-0.00782499
-0.00818994
-0.00621058
-0.00243465
0.00239014
0.00771836
0.0131486
0.0183568
0.0228136
0.0263786
0.0288967
0.031795
0.0340731
0.0334205
0.0260656
0.00891329
-0.0174901
-0.0415473
-0.046481
-0.0350096
-0.0164579
-0.00300572
0.010756
0.0187617
0.0249205
0.0292657
0.0105045
-0.0852888
-0.0914241
-0.0936836
-0.0931217
-0.0914908
-0.0897395
-0.0879239
-0.0857288
-0.0828692
-0.0792288
-0.0748197
-0.0697025
-0.0639374
-0.0575781
-0.0506869
-0.0433494
-0.0356804
-0.0278213
-0.0199366
-0.0122079
-0.00483211
0.001977
0.00800025
0.0130069
0.0167713
0.0190895
0.0197982
0.018836
0.0162922
0.0124448
0.00780331
0.00314455
-0.000740583
-0.00300685
-0.00334219
-0.00180726
0.00126327
0.00532343
0.00992619
0.0147313
0.0194879
0.023688
0.0271924
0.0299022
0.0331535
0.0362698
0.0371724
0.0315115
0.0159918
-0.0079588
-0.029462
-0.0343547
-0.0256373
-0.0107603
0.000447511
0.0126839
0.0197527
0.024851
0.0285336
0.0103456
-0.0747245
-0.0801443
-0.0822301
-0.0818509
-0.0805133
-0.0790379
-0.0775158
-0.0756883
-0.0733031
-0.0702495
-0.0665335
-0.062207
-0.057322
-0.0519233
-0.0460616
-0.0398054
-0.033248
-0.0265059
-0.0197159
-0.0130316
-0.00661938
-0.000656991
0.00466711
0.0091645
0.0126517
0.0149699
0.0159998
0.0157031
0.014158
0.0115894
0.0083849
0.00504172
0.00231488
0.000696511
0.000509906
0.00178574
0.00433982
0.00778809
0.0117831
0.0160398
0.0203631
0.024303
0.0277393
0.0306209
0.0341402
0.0377576
0.0398855
0.0357701
0.0219988
0.000798391
-0.0178789
-0.0227784
-0.0167521
-0.00537471
0.00368229
0.0144274
0.0206831
0.0248137
0.0276565
0.0102135
-0.0650774
-0.0698311
-0.0717349
-0.0715018
-0.0704176
-0.0692034
-0.0679554
-0.0664577
-0.0644948
-0.0619656
-0.0588691
-0.0552475
-0.0511458
-0.0466016
-0.0416559
-0.0363633
-0.0307987
-0.0250573
-0.019252
-0.0135105
-0.00797013
-0.00277665
0.00190914
0.00593601
0.00915682
0.0114469
0.0127178
0.0129457
0.0121971
0.0106543
0.00862051
0.00636752
0.00453689
0.00349994
0.00351843
0.00466196
0.00684587
0.00981006
0.0132964
0.0170748
0.0209886
0.024659
0.0279935
0.0309685
0.0347507
0.0383548
0.041091
0.0382071
0.0264455
0.00837931
-0.00741942
-0.01237
-0.00877098
-0.000488463
0.0066243
0.0159544
0.0215422
0.0249819
0.0268252
0.0102087
-0.0562771
-0.06042
-0.0621472
-0.0620384
-0.0611832
-0.0602079
-0.0591959
-0.0579902
-0.0563984
-0.054331
-0.0517818
-0.0487832
-0.0453727
-0.0415824
-0.0374451
-0.0330043
-0.0283192
-0.0234667
-0.018538
-0.0136369
-0.00887865
-0.00438526
-0.000278705
0.00331725
0.00628179
0.00851558
0.00995307
0.0105794
0.0104454
0.00970462
0.00867413
0.00721355
0.00611285
0.00558136
0.00582158
0.00691469
0.0088371
0.011421
0.0144823
0.0178418
0.0213713
0.0247637
0.0279462
0.0308515
0.0339031
0.0379631
0.0407394
0.0387554
0.0291546
0.0143602
0.00129004
-0.00362736
-0.00198513
0.00376755
0.00922001
0.0172322
0.0222872
0.0254717
0.0262396
0.0104305
-0.0482556
-0.0518591
-0.0534231
-0.053416
-0.0527592
-0.0519942
-0.0512045
-0.0502421
-0.0489704
-0.0473034
-0.0452311
-0.0427772
-0.0399718
-0.0368413
-0.0334115
-0.0297169
-0.0258043
-0.021734
-0.0175791
-0.0134237
-0.00936195
-0.00549221
-0.00190876
0.00128869
0.0040028
0.00615436
0.00769142
0.00860178
0.00891892
0.0087269
0.00809805
0.00763037
0.00718326
0.00708898
0.00754338
0.00863381
0.0103719
0.0126573
0.0153627
0.0183518
0.0215232
0.0246324
0.0276231
0.0304415
0.0334113
0.0368472
0.039222
0.0378082
0.0302373
0.0185074
0.00791553
0.00323596
0.00350477
0.00732932
0.0114394
0.0182285
0.0228359
0.0262055
0.0259611
0.0108776
-0.0409754
-0.0441006
-0.0455099
-0.0455822
-0.0450934
-0.0445094
-0.0439096
-0.0431763
-0.0421731
-0.0408455
-0.0391808
-0.0371971
-0.0349164
-0.0323586
-0.0295435
-0.0264977
-0.0232573
-0.0198697
-0.0163927
-0.0128926
-0.0094451
-0.00612737
-0.0030156
-0.000186617
0.00228233
0.00432802
0.0059087
0.00701261
0.00766617
0.0079414
0.00792586
0.00788571
0.00789959
0.00815322
0.00879416
0.00990354
0.0115093
0.0135574
0.015963
0.0186236
0.021461
0.0242837
0.0270472
0.0297105
0.0324074
0.0351859
0.0370175
0.0359162
0.0300786
0.0209969
0.0125761
0.00830823
0.00775718
0.0101936
0.0132586
0.0189049
0.0230908
0.0268019
0.0256729
0.0113156
-0.0343878
-0.037086
-0.0383495
-0.0384832
-0.0381363
-0.0377066
-0.0372681
-0.0367255
-0.0359661
-0.0349258
-0.0336022
-0.0320184
-0.0301869
-0.0281213
-0.0258354
-0.0233487
-0.0206888
-0.017892
-0.0150034
-0.0120756
-0.00916677
-0.00633757
-0.00364787
-0.001158
0.00107209
0.00299226
0.00456844
0.00578909
0.00667549
0.00727119
0.0076726
0.0079978
0.00835721
0.00887746
0.00966892
0.010801
0.0123069
0.0141618
0.0163117
0.0186798
0.0212056
0.0237432
0.0262487
0.028665
0.031019
0.033198
0.0345124
0.0335797
0.0291468
0.0222326
0.0156292
0.0117169
0.010916
0.0123954
0.0146541
0.0192116
0.0229438
0.0267322
0.0248492
0.0113526
-0.028434
-0.0307566
-0.0318866
-0.0320672
-0.0318391
-0.0315396
-0.0312362
-0.0308523
-0.0302935
-0.029507
-0.028484
-0.0272322
-0.0257734
-0.0241229
-0.0222869
-0.0202776
-0.018115
-0.0158248
-0.0134436
-0.0110113
-0.00857234
-0.00617524
-0.00386216
-0.0016827
0.000317211
0.00209748
0.00362819
0.00489417
0.00593509
0.00675601
0.00742386
0.00801978
0.00862989
0.00934529
0.0102483
0.0113957
0.0128196
0.0145116
0.0164394
0.0185459
0.0207835
0.0230399
0.025268
0.0273781
0.0293868
0.031065
0.031962
0.0311413
0.0278086
0.0226094
0.0175059
0.0142159
0.0131873
0.0139849
0.0156061
0.0191197
0.0222842
0.0256251
0.0231328
0.0107594
-0.0230646
-0.0250594
-0.0260679
-0.026283
-0.0261526
-0.0259613
-0.0257699
-0.0255166
-0.0251228
-0.0245433
-0.0237677
-0.0228046
-0.0216664
-0.020361
-0.0189
-0.0172946
-0.0155619
-0.0136953
-0.0117458
-0.00974021
-0.00771087
-0.00569671
-0.00371498
-0.00181885
-3.97384e-05
0.00159029
0.00304767
0.00433599
0.00543072
0.00638039
0.00721783
0.00799601
0.0087765
0.00962447
0.0106004
0.011749
0.0130983
0.0146478
0.0163794
0.0182499
0.0202221
0.0222083
0.0241591
0.0259802
0.0276397
0.0289177
0.029509
0.0287886
0.0262973
0.0224218
0.0185234
0.0158207
0.0147092
0.01502
0.0161104
0.0186466
0.021101
0.02351
0.0205555
0.0096117
-0.0182346
-0.0199432
-0.020841
-0.02108
-0.0210292
-0.0209268
-0.0208267
-0.0206796
-0.0204202
-0.0200096
-0.0194379
-0.0187106
-0.0178367
-0.0168225
-0.0156734
-0.0143951
-0.0129942
-0.0115105
-0.00993759
-0.00829968
-0.00662206
-0.00492572
-0.00325325
-0.00162101
-5.98796e-05
0.00140883
0.00276863
0.00400783
0.00512678
0.00613984
0.00707209
0.00795901
0.00884301
0.00976962
0.0107824
0.0119149
0.0131901
0.0146102
0.0161654
0.0178225
0.0195514
0.0212824
0.0229672
0.0245141
0.0258682
0.0268387
0.0272211
0.0266029
0.0247461
0.0218711
0.0189147
0.0167053
0.0156065
0.0155685
0.016197
0.0178595
0.019393
0.0207377
0.0175392
0.00816178
-0.0138979
-0.0153578
-0.0161557
-0.0164103
-0.0164233
-0.016393
-0.0163663
-0.0163042
-0.016153
-0.0158792
-0.0154737
-0.0149401
-0.0142847
-0.0135124
-0.0126266
-0.0116312
-0.0105335
-0.00934582
-0.00807908
-0.00674841
-0.00537139
-0.00396669
-0.00255709
-0.00116312
0.000197805
0.00150365
0.00274577
0.00391424
0.0050061
0.00602822
0.0069961
0.00793223
0.00886481
0.00982447
0.0108417
0.0119404
0.0131379
0.0144364
0.0158308
0.0172943
0.0188025
0.0202975
0.0217348
0.023034
0.0241339
0.0248745
0.0251229
0.0246072
0.0232241
0.0210933
0.0188497
0.0170412
0.0159473
0.0157041
0.0159361
0.0168622
0.0175834
0.0178387
0.0145367
0.0066659
-0.0100122
-0.011257
-0.0119654
-0.0122287
-0.0122922
-0.0123194
-0.0123508
-0.0123558
-0.0122903
-0.0121263
-0.011855
-0.0114786
-0.0110018
-0.0104278
-0.00975838
-0.00899584
-0.0081442
-0.00721017
-0.00620266
-0.0051327
-0.0040131
-0.00285792
-0.00168231
-0.000501133
0.000669027
0.00181811
0.00293498
0.00401113
0.00504331
0.00603414
0.0069922
0.00793089
0.00886809
0.00982336
0.0108172
0.0118652
0.0129798
0.0141619
0.0154079
0.0166956
0.0180053
0.0192872
0.0204982
0.021586
0.0224778
0.0230488
0.0232153
0.0227964
0.0217634
0.020178
0.018464
0.0169803
0.0159742
0.0155202
0.0153972
0.015723
0.0157403
0.0151624
0.011858
0.00530687
-0.00653913
-0.00759863
-0.00822682
-0.00849351
-0.00859611
-0.00866839
-0.00874501
-0.00880201
-0.00880351
-0.00872609
-0.00856187
-0.00831188
-0.00797926
-0.00756602
-0.00707291
-0.00650075
-0.00585156
-0.00512925
-0.00433964
-0.00349037
-0.00259046
-0.00164974
-0.000679265
0.000308767
0.00130518
0.00230192
0.00328974
0.00426098
0.00521203
0.00614287
0.00705769
0.00796368
0.00887151
0.0097927
0.0107401
0.0117231
0.0127497
0.0138185
0.0149266
0.016055
0.0171878
0.0182851
0.0193196
0.020206
0.0209252
0.0213704
0.0214871
0.0211538
0.0203764
0.0191848
0.0178593
0.0166286
0.015687
0.015087
0.0146826
0.0145072
0.0139688
0.0128294
0.00963175
0.00417447
-0.00344331
-0.00434346
-0.00490025
-0.00516608
-0.00529835
-0.00540542
-0.00551645
-0.00561292
-0.00566589
-0.00565598
-0.00557614
-0.00542659
-0.00520933
-0.00492546
-0.00457496
-0.00415769
-0.00367434
-0.00312696
-0.002519
-0.00185534
-0.00114205
-0.000386087
0.000404984
0.00122256
0.00206013
0.00291176
0.00377047
0.00462988
0.00548625
0.00633789
0.00718613
0.00803404
0.00888741
0.00975207
0.0106355
0.011542
0.012476
0.0134342
0.0144132
0.0153968
0.0163721
0.0173035
0.0181673
0.0189029
0.0194866
0.0198376
0.0199232
0.0196598
0.0190665
0.0181554
0.0171096
0.0160706
0.0151752
0.0144688
0.0138392
0.0132851
0.0123496
0.0108765
0.00786137
0.00328434
-0.000692471