/*--------------------------------*- C++ -*----------------------------------*\
| =========                 |                                                 |
| \\      /  F ield         | OpenFOAM: The Open Source CFD Toolbox           |
|  \\    /   O peration     | Version:  2512                                  |
|   \\  /    A nd           | Website:  www.openfoam.com                      |
|    \\/     M anipulation  |                                                 |
\*---------------------------------------------------------------------------*/
FoamFile
{
    version     2.0;
    format      ascii;
    arch        "LSB;label=32;scalar=64";
    class       volVectorField;
    location    "156.75";
    object      U;
}
// * * * * * * * * * * * * * * * * * * * * * * * * * * * * * * * * * * * * * //

dimensions      [0 1 -1 0 0 0 0];

internalField   nonuniform List<vector> 
13248
(
(-0.0143366 0.0124709 7.73409e-20)
(-0.0274203 0.025974 0)
(-0.025414 0.0327707 -1.45894e-19)
(-0.00828459 0.0355227 1.37432e-19)
(0.0240303 0.0359898 1.28209e-19)
(0.0715346 0.0353628 0)
(0.134048 0.0344659 0)
(0.211009 0.033871 3.05066e-19)
(0.301264 0.0339422 -1.64633e-21)
(0.402901 0.034847 -2.66215e-19)
(0.513184 0.036552 2.47989e-19)
(0.628624 0.0388268 -1.54967e-19)
(0.745184 0.04127 0)
(0.858595 0.0433588 -2.72936e-19)
(0.964713 0.0445207 5.12327e-19)
(1.05989 0.0442126 -1.21872e-19)
(1.1413 0.0420014 -2.23719e-19)
(1.20716 0.0376053 2.10032e-19)
(1.25689 0.0310098 0)
(1.29103 0.0220752 0)
(1.31129 0.0119413 0)
(1.31953 -0.00225713 0)
(1.31868 -0.0112228 6.529e-20)
(1.31017 -0.0407006 2.37468e-19)
(-0.0148056 0.0116692 -2.33656e-19)
(-0.0233386 0.0220368 1.59347e-19)
(-0.0120217 0.0257655 -1.59299e-21)
(0.0182929 0.0259124 -2.10338e-19)
(0.0671371 0.0245757 -1.28069e-19)
(0.133964 0.0232072 -1.21236e-19)
(0.217763 0.0227662 -2.21184e-19)
(0.316735 0.0238241 2.09847e-19)
(0.428072 0.0266119 0)
(0.547918 0.0310355 7.50421e-22)
(0.671568 0.0367004 2.08413e-21)
(0.793866 0.0429677 1.55949e-19)
(0.909711 0.0490467 0)
(1.01458 0.0541125 0)
(1.105 0.0574273 1.87962e-19)
(1.17878 0.0584433 -3.53324e-19)
(1.23522 0.0568685 2.14463e-19)
(1.27501 0.0526868 -2.01359e-19)
(1.29996 0.0461171 -8.93534e-20)
(1.31269 0.0375794 -1.6552e-19)
(1.316 0.0275617 -6.92537e-20)
(1.31273 0.0164776 -1.30894e-19)
(1.30467 0.00632605 1.903e-19)
(1.29491 -0.00798928 5.43835e-20)
(-0.0139222 0.0101111 0)
(-0.0149471 0.0169281 0)
(0.0091318 0.0181768 7.44348e-20)
(0.0563879 0.0169425 6.83764e-20)
(0.125457 0.015451 -1.89554e-21)
(0.214678 0.0152691 -1.26189e-19)
(0.321459 0.017324 0)
(0.441951 0.021979 -1.04217e-19)
(0.571022 0.0290868 9.8514e-20)
(0.7026 0.0380509 1.27139e-21)
(0.83031 0.0479363 -1.67961e-19)
(0.948234 0.0576319 -1.54762e-19)
(1.0516 0.0660383 2.12377e-21)
(1.13728 0.0722417 -1.301e-19)
(1.20398 0.0756392 3.10682e-19)
(1.25221 0.0759943 0)
(1.28391 0.0734215 -2.05523e-19)
(1.30195 0.0682993 9.98376e-20)
(1.30961 0.0612006 8.92867e-20)
(1.30993 0.0526374 0)
(1.30552 0.0434762 7.40913e-20)
(1.29804 0.0333228 -2.53859e-19)
(1.28877 0.0252841 2.38314e-19)
(1.27876 0.012052 1.49795e-19)
(-0.0112324 0.00779996 -8.31146e-20)
(-0.00117875 0.0106893 -8.60591e-20)
(0.0393278 0.0101511 7.7554e-20)
(0.107055 0.00893513 0)
(0.199226 0.00914069 0)
(0.312308 0.0122085 -3.27745e-21)
(0.441283 0.0187429 0)
(0.579574 0.0285689 -3.21711e-19)
(0.719547 0.0408574 2.98842e-19)
(0.853439 0.0543196 -3.68416e-19)
(0.974416 0.0674713 8.42722e-20)
(1.07747 0.0789168 0)
(1.1599 0.0875844 1.41526e-19)
(1.22138 0.0928651 -2.62592e-19)
(1.26358 0.0946354 6.2463e-20)
(1.28953 0.0931808 1.62368e-19)
(1.30292 0.0890536 -6.15469e-21)
(1.30734 0.082923 -1.80952e-19)
(1.30586 0.0754293 0)
(1.30074 0.0671434 0)
(1.29346 0.0585004 -6.57585e-20)
(1.28487 0.0496544 5.9186e-20)
(1.27549 0.0420018 2.14055e-19)
(1.2659 0.0309698 -2.00975e-19)
(-0.00634171 0.00492186 -8.80315e-20)
(0.0188689 0.00383337 -8.76431e-20)
(0.0795387 0.00250058 2.46292e-19)
(0.170766 0.0029818 -1.49252e-19)
(0.287657 0.00692375 1.40481e-19)
(0.423932 0.0152747 2.54727e-19)
(0.571426 0.0278995 -1.80313e-19)
(0.720691 0.0437077 -2.19501e-19)
(0.862268 0.0609767 4.43912e-21)
(0.988155 0.0777654 2.79795e-19)
(1.09293 0.0923275 0)
(1.17424 0.103422 7.73239e-20)
(1.23264 0.110456 0)
(1.27086 0.11345 -1.26781e-19)
(1.29289 0.112888 1.78374e-19)
(1.303 0.109497 1.76416e-21)
(1.30507 0.104057 -4.71988e-20)
(1.3021 0.097262 8.90309e-20)
(1.29621 0.0896605 7.68559e-20)
(1.28869 0.081639 -6.92183e-20)
(1.2803 0.0735091 6.57447e-20)
(1.27139 0.0653239 -5.91727e-20)
(1.26219 0.0579547 0)
(1.253 0.0482505 -4.48409e-20)
(0.00109377 0.00179404 8.80189e-20)
(0.0458866 -0.00275437 9.26565e-20)
(0.130272 -0.00342379 -8.26098e-20)
(0.247134 0.000748442 1.54161e-19)
(0.38861 0.0105103 -1.45093e-19)
(0.54489 0.0258167 1.31179e-19)
(0.704474 0.0453305 -6.31323e-20)
(0.855792 0.0667941 1.64803e-19)
(0.989203 0.0876686 -1.03863e-19)
(1.09849 0.105741 1.83863e-19)
(1.18139 0.119539 -4.24501e-19)
(1.23916 0.128465 1.56161e-19)
(1.27548 0.132702 -1.36891e-19)
(1.29519 0.132945 1.28586e-19)
(1.30317 0.130119 1.1163e-19)
(1.30354 0.125136 9.85084e-20)
(1.29941 0.118755 -2.74151e-19)
(1.29282 0.111543 1.70373e-19)
(1.28499 0.103885 -7.68608e-20)
(1.27659 0.0960436 2.01262e-19)
(1.26793 0.0881893 -6.49875e-20)
(1.25915 0.0804332 -1.59004e-19)
(1.25029 0.0731816 1.46926e-19)
(1.24146 0.0644582 4.48285e-20)
(0.0113623 -0.00117937 0)
(0.0802592 -0.00794992 9.41761e-22)
(0.191354 -0.00598319 1.73807e-19)
(0.33462 0.00407558 -1.62861e-19)
(0.498404 0.0214885 -1.46914e-19)
(0.669044 0.0446592 2.73014e-19)
(0.832413 0.0707299 -1.26773e-19)
(0.976559 0.096364 1.68682e-19)
(1.09382 0.118669 -3.72248e-21)
(1.18154 0.135787 -9.55995e-20)
(1.24138 0.147047 2.08389e-19)
(1.27789 0.152772 -3.07882e-19)
(1.29674 0.153895 0)
(1.30348 0.15157 -6.06577e-20)
(1.30263 0.146881 -1.62379e-19)
(1.29748 0.140698 5.10216e-20)
(1.29012 0.133636 1.93179e-21)
(1.28179 0.126102 -1.13349e-19)
(1.27311 0.118354 6.64542e-21)
(1.26436 0.110557 1.31328e-19)
(1.25565 0.102822 -5.89897e-20)
(1.247 0.0952422 -2.24928e-20)
(1.23837 0.0879423 6.91121e-20)
(1.22978 0.0798962 0)
(0.0246568 -0.00353115 0)
(0.121939 -0.010512 4.71782e-20)
(0.261744 -0.00350928 -2.2721e-19)
(0.430419 0.0145796 8.26913e-20)
(0.612048 0.0408615 -7.78232e-20)
(0.789634 0.0717551 -7.12095e-20)
(0.948132 0.102927 -1.25589e-19)
(1.07749 0.130479 6.28139e-20)
(1.17389 0.151881 5.44415e-20)
(1.23898 0.166221 0)
(1.27799 0.173905 1.24018e-19)
(1.29751 0.17612 -1.84851e-19)
(1.30388 0.174306 1.37532e-19)
(1.30225 0.169788 6.0691e-20)
(1.29622 0.163597 -4.9988e-20)
(1.28809 0.156447 -4.19899e-20)
(1.27914 0.148792 -3.93218e-20)
(1.27002 0.140906 1.17209e-19)
(1.261 0.132953 0)
(1.25218 0.125041 5.93369e-20)
(1.24356 0.117248 5.02094e-20)
(1.2351 0.109641 -1.24373e-19)
(1.22675 0.102218 -8.55776e-20)
(1.21846 0.0946276 7.90177e-20)
(0.0410149 -0.00474893 -5.11351e-20)
(0.170334 -0.009193 -2.06947e-21)
(0.339467 0.00546885 4.63318e-20)
(0.530648 0.0333544 1.29787e-19)
(0.723927 0.0688219 3.77701e-20)
(0.900486 0.106221 -7.29776e-20)
(1.0467 0.140259 6.65448e-20)
(1.15647 0.167286 -5.82117e-20)
(1.23071 0.185824 1.04374e-19)
(1.27505 0.19623 4.43855e-20)
(1.29706 0.199946 -1.26162e-19)
(1.30411 0.198772 3.71398e-20)
(1.30217 0.194361 6.35486e-20)
(1.29543 0.187991 -3.12287e-20)
(1.2865 0.18053 0)
(1.27682 0.172516 4.68061e-20)
(1.2671 0.16426 7.94548e-20)
(1.25763 0.155938 1.37612e-20)
(1.24851 0.147658 -6.63922e-20)
(1.23972 0.139491 2.78745e-20)
(1.23124 0.131494 0)
(1.22298 0.123701 -2.20074e-20)
(1.21488 0.116073 -2.09253e-20)
(1.20685 0.108691 0)
(0.0602572 -0.00430273 0)
(0.224234 -0.00285257 2.68216e-20)
(0.421698 0.0220425 4.97223e-20)
(0.630783 0.0608155 -1.32584e-19)
(0.828664 0.104781 4.29034e-20)
(0.996974 0.146636 0)
(1.1258 0.181016 6.42896e-20)
(1.21416 0.205353 -8.97686e-20)
(1.26756 0.219662 -5.21836e-20)
(1.29449 0.225582 2.3527e-20)
(1.30362 0.225346 -3.77924e-20)
(1.30207 0.221063 9.16859e-20)
(1.29488 0.214371 4.59429e-20)
(1.28517 0.206375 -3.18982e-20)
(1.27469 0.197747 -2.95998e-21)
(1.26424 0.188865 -8.774e-20)
(1.25418 0.179933 3.9985e-20)
(1.24461 0.171063 -1.00334e-21)
(1.23553 0.162325 0)
(1.22688 0.153771 -2.79037e-20)
(1.21859 0.145437 0)
(1.21059 0.137327 6.34448e-20)
(1.20279 0.129446 -7.56015e-20)
(1.19505 0.122072 3.4496e-20)
(0.0819462 -0.00168407 -1.40504e-20)
(0.281833 0.0094332 -6.78237e-20)
(0.504999 0.0468016 7.72507e-20)
(0.726225 0.0966846 4.53913e-20)
(0.921826 0.147564 -2.16616e-20)
(1.07636 0.191383 3.63808e-20)
(1.18522 0.223722 -1.76626e-20)
(1.25274 0.243725 2.93429e-20)
(1.28807 0.253023 0)
(1.30134 0.254328 6.64533e-20)
(1.30125 0.250354 -2.74089e-21)
(1.29405 0.243259 -5.36353e-20)
(1.28369 0.234514 2.29838e-20)
(1.27236 0.225007 -2.59751e-20)
(1.26109 0.215223 -9.92504e-21)
(1.25033 0.205416 1.14181e-20)
(1.24019 0.195714 -8.85402e-21)
(1.23068 0.186187 -4.80997e-20)
(1.22174 0.176882 2.94886e-20)
(1.21331 0.167834 6.06032e-21)
(1.20528 0.159057 5.34763e-21)
(1.19757 0.150544 4.72077e-21)
(1.19007 0.142366 0)
(1.18264 0.134784 0)
(0.105455 0.0035597 1.40601e-20)
(0.340969 0.0282919 -1.40751e-20)
(0.585812 0.0797783 -2.57654e-20)
(0.812956 0.140079 0)
(1.00036 0.19566 -1.07685e-20)
(1.13758 0.23891 -9.70683e-21)
(1.22604 0.267247 -1.65799e-20)
(1.27474 0.281837 0)
(1.29531 0.285798 0)
(1.29839 0.282605 0)
(1.292 0.275158 0)
(1.28128 0.265484 0)
(1.26915 0.254815 -1.44722e-20)
(1.25702 0.24382 6.59631e-21)
(1.24547 0.232834 1.14686e-20)
(1.23468 0.222016 5.35907e-21)
(1.22466 0.211441 1.33008e-20)
(1.21535 0.201153 0)
(1.20669 0.191181 -3.20496e-21)
(1.19857 0.181543 -3.06097e-21)
(1.1909 0.172236 -5.35615e-21)
(1.18358 0.163259 -4.72831e-21)
(1.17647 0.15475 0)
(1.16945 0.146794 3.41242e-21)
(-0.00187672 0.030551 9.08894e-21)
(-0.0072236 0.081514 -9.39571e-21)
(-0.0158286 0.12378 -1.77416e-20)
(-0.0264651 0.157663 0)
(-0.0383188 0.184015 -2.36681e-20)
(-0.0508182 0.204237 7.43003e-21)
(-0.0634262 0.21996 -1.40418e-20)
(-0.0756603 0.232709 0)
(-0.0871211 0.243671 0)
(-0.0974938 0.253595 0)
(-0.106534 0.262801 0)
(-0.11405 0.271257 0)
(-0.119876 0.278663 2.13965e-23)
(-0.123858 0.284545 -9.57896e-21)
(-0.125842 0.288316 1.85178e-20)
(-0.125668 0.289316 2.65527e-20)
(-0.123176 0.286849 8.67424e-21)
(-0.118214 0.280212 0)
(-0.110655 0.268731 7.74943e-21)
(-0.100409 0.251808 -2.23204e-20)
(-0.0874191 0.22897 -1.44608e-20)
(-0.0716399 0.199964 -1.38831e-20)
(-0.0530274 0.164796 0)
(-0.0318409 0.12414 0)
(-0.00344348 0.0323562 -2.7324e-20)
(-0.0101489 0.0864381 4.69728e-20)
(-0.0178082 0.131499 -1.7756e-20)
(-0.0261518 0.167776 -3.3466e-20)
(-0.034894 0.19599 4.72709e-20)
(-0.0437422 0.217432 -2.97653e-20)
(-0.0523413 0.23368 4.20316e-20)
(-0.0603104 0.24628 2.64791e-20)
(-0.0672794 0.256484 0)
(-0.0729088 0.265135 -2.39771e-20)
(-0.0769011 0.272645 -4.78489e-22)
(-0.0790044 0.279059 2.11497e-20)
(-0.0790008 0.284126 3.06009e-20)
(-0.0766968 0.287398 3.93154e-20)
(-0.0719204 0.288304 -1.77532e-20)
(-0.0645212 0.286199 -5.30494e-20)
(-0.0543742 0.280411 1.78224e-20)
(-0.0413838 0.270273 -6.60242e-20)
(-0.0255049 0.255154 0)
(-0.00677743 0.234503 1.50195e-20)
(0.0147245 0.207893 1.44351e-20)
(0.0389126 0.175101 1.38581e-20)
(0.0658917 0.13625 0)
(0.0961441 0.0923104 0)
(-0.00501227 0.0322442 0)
(-0.0132373 0.0870325 9.43933e-20)
(-0.0201501 0.133483 -3.55719e-20)
(-0.0262671 0.171419 3.34587e-20)
(-0.0317515 0.201215 -9.4525e-20)
(-0.0365724 0.223882 0)
(-0.0405691 0.240805 -5.60944e-20)
(-0.0434974 0.253431 2.63079e-20)
(-0.0450665 0.263008 -4.99021e-20)
(-0.044955 0.270444 2.35808e-20)
(-0.0428388 0.276247 1.35524e-19)
(-0.0384377 0.280556 -6.37272e-20)
(-0.031512 0.283212 -1.02961e-19)
(-0.0218452 0.283847 -4.066e-20)
(-0.00926987 0.281954 -1.71249e-21)
(0.0063347 0.276953 1.44562e-19)
(0.0250379 0.26824 -6.87278e-20)
(0.0468525 0.255223 -4.00669e-22)
(0.0717267 0.23735 0)
(0.0995348 0.21414 -6.33013e-20)
(0.130085 0.185229 0)
(0.16314 0.150376 -6.01598e-20)
(0.19853 0.10966 2.26854e-19)
(0.238833 0.0637359 2.34722e-21)
(-0.00635032 0.0304722 0)
(-0.0160794 0.0836555 9.05293e-23)
(-0.022567 0.129915 3.55984e-20)
(-0.0268079 0.168476 -3.34232e-20)
(-0.0292587 0.199255 3.15307e-20)
(-0.0300839 0.22288 1.77549e-19)
(-0.0293139 0.240438 -5.57364e-20)
(-0.0268635 0.253174 -5.24425e-20)
(-0.0225527 0.262256 9.94052e-20)
(-0.0161333 0.2686 -1.42011e-19)
(-0.00732984 0.272788 4.41851e-20)
(0.0041258 0.275057 4.24176e-20)
(0.0184712 0.275372 0)
(0.0359031 0.273476 3.90525e-20)
(0.056563 0.268972 0)
(0.0805306 0.261381 7.18774e-20)
(0.107821 0.250196 -1.41673e-19)
(0.138383 0.234922 2.94648e-20)
(0.172102 0.215099 1.28816e-19)
(0.208806 0.19033 6.32207e-20)
(0.248258 0.160282 0)
(0.290427 0.124703 -1.79733e-19)
(0.333685 0.0837197 5.60731e-20)
(0.386138 0.0373772 0)
(-0.00731986 0.0275036 0)
(-0.0184014 0.0771311 -1.13537e-19)
(-0.0248557 0.121581 -3.54179e-20)
(-0.0277836 0.159476 -6.67414e-20)
(-0.0277409 0.190287 6.2839e-20)
(-0.024997 0.214251 -5.90613e-20)
(-0.0197296 0.232106 1.10975e-19)
(-0.0120134 0.244841 5.27187e-20)
(-0.00181316 0.253468 -1.47931e-19)
(0.0109956 0.258847 9.37991e-20)
(0.0265913 0.261585 -1.33341e-19)
(0.0451711 0.26201 2.95064e-19)
(0.0669201 0.260198 -1.59716e-19)
(0.0919892 0.256021 7.64589e-20)
(0.12048 0.249208 2.23656e-19)
(0.152438 0.2394 -6.78792e-20)
(0.187852 0.226199 -6.42569e-20)
(0.226662 0.209203 -6.54399e-20)
(0.268776 0.188015 0)
(0.314078 0.162297 -1.27702e-19)
(0.362187 0.131787 -1.27299e-19)
(0.414378 0.0963101 1.73812e-19)
(0.465249 0.055796 2.30016e-19)
(0.532734 0.0098514 -2.14539e-19)
(-0.00791414 0.023913 0)
(-0.0201417 0.0685918 -1.5139e-19)
(-0.0269583 0.109733 5.16682e-22)
(-0.0292218 0.145527 1.3366e-19)
(-0.0274023 0.175127 0)
(-0.0217813 0.198449 0)
(-0.0126255 0.215915 0)
(-0.000144544 0.228244 -5.21167e-20)
(0.0155462 0.23625 -3.5455e-22)
(0.0344238 0.240684 9.18221e-20)
(0.0565368 0.24213 -1.32996e-19)
(0.0819766 0.240961 -8.47788e-22)
(0.11085 0.237339 0)
(0.143258 0.231248 -7.64192e-20)
(0.179282 0.222534 7.39114e-20)
(0.218976 0.210952 -2.07551e-19)
(0.262387 0.196187 2.72594e-19)
(0.309514 0.17792 7.09703e-20)
(0.360359 0.155836 8.03601e-21)
(0.415184 0.129687 -2.42014e-19)
(0.473046 0.0990692 -1.17171e-19)
(0.537325 0.0641777 4.03453e-19)
(0.596349 0.0243213 -2.7066e-19)
(0.681657 -0.0204324 0)
(-0.00826081 0.0202943 7.38713e-20)
(-0.0214614 0.0592948 7.57647e-20)
(-0.0289619 0.0959108 -7.09337e-20)
(-0.0311254 0.1282 -1.3258e-19)
(-0.0282072 0.155202 1.24823e-19)
(-0.0204301 0.176655 -1.16163e-19)
(-0.00809269 0.192749 1.63544e-19)
(0.00850599 0.203968 -5.19885e-20)
(0.0291301 0.210931 9.61014e-20)
(0.0536292 0.214257 0)
(0.0819376 0.214463 8.56887e-20)
(0.114061 0.211921 -1.60026e-19)
(0.15006 0.206838 1.56174e-19)
(0.190036 0.199271 -1.46671e-19)
(0.234118 0.189149 0)
(0.282436 0.176302 1.36648e-19)
(0.335158 0.160521 2.65901e-19)
(0.392493 0.141559 -2.51256e-19)
(0.454432 0.119104 -1.21501e-19)
(0.521393 0.0930581 -1.24754e-19)
(0.591366 0.0626859 3.44346e-19)
(0.670037 0.0293139 1.11303e-19)
(0.738254 -0.00929179 -1.01917e-19)
(0.840881 -0.0503507 9.76255e-20)
(-0.00858801 0.0171629 -7.38816e-20)
(-0.0226744 0.0504067 2.26524e-19)
(-0.0310028 0.0816833 -7.12578e-20)
(-0.0333405 0.109292 1.32143e-19)
(-0.0296787 0.132401 -1.24412e-19)
(-0.0201464 0.15073 1.13144e-22)
(-0.00502213 0.16436 5.41862e-20)
(0.0153702 0.173617 2.00772e-19)
(0.0407463 0.178962 -2.638e-22)
(0.0709055 0.180884 -8.96868e-20)
(0.10575 0.179821 0)
(0.145286 0.176105 -7.96865e-20)
(0.189611 0.169949 1.50391e-19)
(0.238898 0.161439 1.45925e-19)
(0.293367 0.150554 -6.85802e-20)
(0.353255 0.137193 -1.69891e-21)
(0.418699 0.121185 -6.50466e-20)
(0.489731 0.102331 1.22061e-19)
(0.56601 0.0803451 1.21488e-19)
(0.64758 0.0554873 -1.17335e-19)
(0.731085 0.0266499 1.08626e-19)
(0.822376 -0.00321843 -1.03583e-19)
(0.898108 -0.0391963 0)
(1.00835 -0.0726602 -9.76149e-20)
(-0.00915092 0.0148651 7.37574e-20)
(-0.0240891 0.0427971 -7.5671e-20)
(-0.0330656 0.068383 7.09455e-20)
(-0.0353234 0.0905414 0)
(-0.0306174 0.108795 0)
(-0.0189735 0.123007 1.14237e-19)
(-0.000596743 0.133271 -1.07846e-19)
(0.0242515 0.139847 9.9115e-20)
(0.0553475 0.143098 -4.68115e-19)
(0.092558 0.143417 -4.14458e-23)
(0.135861 0.141162 8.22083e-20)
(0.185339 0.136617 0)
(0.241149 0.12997 -1.49473e-19)
(0.303453 0.121307 2.83142e-19)
(0.372344 0.110618 -2.02515e-19)
(0.447748 0.0978239 -3.2873e-19)
(0.52931 0.0827885 -6.18921e-21)
(0.616304 0.0654254 2.3398e-19)
(0.707392 0.0455453 0)
(0.801306 0.0236288 0)
(0.893953 -0.00158761 -1.0863e-19)
(0.98826 -0.0260914 1.03589e-19)
(1.06418 -0.0575762 -3.80823e-19)
(1.1624 -0.0809892 3.56583e-19)
(-0.0101268 0.0135074 0)
(-0.0257969 0.0368797 0)
(-0.0347383 0.0568754 -2.12481e-19)
(-0.0358949 0.0733343 6.77738e-20)
(-0.0288667 0.0863065 1.36199e-21)
(-0.0135752 0.0959268 1.15711e-19)
(0.00990418 0.102406 0)
(0.04146 0.106027 -9.96196e-20)
(0.0810182 0.107121 9.3327e-20)
(0.128569 0.106023 -1.7356e-19)
(0.184151 0.103032 -3.11059e-22)
(0.247789 0.0983777 1.55087e-19)
(0.319408 0.0922037 1.64393e-21)
(0.398721 0.0845628 1.42524e-19)
(0.485115 0.0754282 -1.97664e-19)
(0.577546 0.0647155 0)
(0.674481 0.0523131 2.46335e-19)
(0.773877 0.0381232 -3.49779e-19)
(0.873181 0.022057 1.09403e-19)
(0.96966 0.00439048 0)
(1.05951 -0.0156105 9.79746e-20)
(1.14206 -0.0347401 3.80658e-19)
(1.20601 -0.0604101 -3.57267e-19)
(1.27328 -0.0753163 -4.04863e-19)
(-0.0115101 0.0129299 2.22276e-19)
(-0.0274889 0.0325386 -3.05083e-19)
(-0.0350567 0.0474163 1.14093e-21)
(-0.0331736 0.0584703 6.74993e-20)
(-0.0213979 0.0663652 -1.24671e-19)
(0.000442086 0.0715858 -1.15236e-19)
(0.0324176 0.0745357 2.13233e-19)
(0.0745679 0.0755855 -2.28492e-21)
(0.126904 0.0750831 -1.86651e-19)
(0.189362 0.0733371 3.47686e-19)
(0.261709 0.0705925 1.82685e-22)
(0.343426 0.0670084 -1.53384e-19)
(0.433592 0.062646 0)
(0.530789 0.0574682 0)
(0.633062 0.0513528 -6.60601e-20)
(0.737937 0.0441141 -1.2377e-19)
(0.842517 0.0355532 -2.39445e-19)
(0.943611 0.0254411 2.24756e-19)
(1.03801 0.0137484 -1.09463e-19)
(1.12262 0.000235557 2.02411e-19)
(1.19488 -0.0147173 -9.83878e-20)
(1.25327 -0.0305877 1.75716e-19)
(1.29465 -0.0503035 -4.10987e-19)
(1.32647 -0.0617918 7.93997e-20)
(-0.0130587 0.0127438 7.47525e-20)
(-0.0283998 0.0291849 0)
(-0.032543 0.0396519 1.43784e-19)
(-0.0248025 0.0460576 -1.35448e-19)
(-0.00483141 0.0496679 1.24788e-19)
(0.0275645 0.051339 0)
(0.0724957 0.0516931 0)
(0.129945 0.051212 -9.98179e-20)
(0.199661 0.0502724 1.47072e-21)
(0.281018 0.0491457 8.80902e-20)
(0.372877 0.0479857 -8.20311e-20)
(0.47348 0.0468147 1.53803e-19)
(0.580431 0.0455212 0)
(0.690747 0.0438722 2.75254e-19)
(0.801013 0.041544 -5.188e-19)
(0.9076 0.0381638 3.68297e-19)
(1.00694 0.0333799 2.31987e-19)
(1.09577 0.0268505 -2.17774e-19)
(1.17153 0.0185358 0)
(1.23237 0.00794009 0)
(1.27784 -0.00367351 0)
(1.3081 -0.0187038 0)
(1.32503 -0.0325621 7.90792e-20)
(1.33207 -0.0480206 -2.74619e-19)
(-0.00601866 0.0725519 -8.78953e-21)
(0.023743 0.00117568 8.85794e-21)
(0.0559528 -0.0809035 -2.7951e-22)
(0.0906613 -0.170005 0)
(0.126577 -0.262129 -7.3701e-21)
(0.162675 -0.352388 1.37999e-20)
(0.1975 -0.435259 -6.20872e-22)
(0.228853 -0.505125 -5.66673e-21)
(0.254059 -0.558086 0)
(0.270154 -0.593739 0)
(0.274558 -0.615128 -2.00186e-22)
(0.267001 -0.625887 -1.68823e-22)
(0.252654 -0.624925 -2.57477e-21)
(0.24298 -0.602515 2.35887e-21)
(0.25131 -0.543561 0)
(0.285099 -0.437698 0)
(0.341587 -0.287379 2.68577e-21)
(0.411954 -0.106316 5.05924e-23)
(0.487256 0.0850552 -2.43688e-21)
(0.560205 0.261055 -1.33383e-22)
(0.624352 0.397161 0)
(0.674333 0.482205 0)
(0.707437 0.52148 0)
(0.725597 0.52797 0)
(0.732736 0.517673 0)
(0.726902 0.51099 0)
(0.702675 0.521772 3.40237e-22)
(0.664806 0.532636 -5.54065e-22)
(0.633596 0.496243 0)
(0.630272 0.372495 0)
(0.658164 0.171812 -7.05185e-22)
(0.705759 -0.0514382 6.85331e-22)
(0.757074 -0.239297 3.08809e-22)
(0.798321 -0.360919 0)
(0.826171 -0.419182 0)
(0.841063 -0.431955 2.68796e-22)
(0.840089 -0.438332 -2.61286e-22)
(0.812897 -0.450913 0)
(0.765233 -0.456975 2.45517e-22)
(0.720598 -0.397878 -3.60459e-22)
(0.702594 -0.260624 1.38185e-22)
(0.716864 -0.0690216 0)
(0.75348 0.116804 -2.48454e-22)
(0.796126 0.243286 2.41591e-22)
(0.83072 0.331581 0)
(0.82997 0.369726 0)
(0.798173 0.414894 -7.12529e-23)
(0.757369 0.374762 2.16957e-22)
(0.739612 0.278171 0)
(0.7574 0.10771 0)
(0.799099 -0.0735754 -6.49811e-23)
(0.822294 -0.173985 -4.73395e-24)
(0.825297 -0.321361 -8.20662e-24)
(0.795572 -0.322572 3.60265e-23)
(0.788746 -0.35389 0)
(0.791071 -0.228939 0)
(0.805516 -0.0358794 0)
(0.798613 0.0510777 0)
(0.804363 0.335119 0)
(0.785177 0.247134 0)
(0.129853 0.0387973 -9.1857e-22)
(0.163375 -0.0339686 -3.84422e-20)
(0.197525 -0.117258 7.97702e-22)
(0.233032 -0.20742 3.52876e-20)
(0.268363 -0.299932 5.26959e-22)
(0.302201 -0.389564 0)
(0.333073 -0.470075 -2.44845e-20)
(0.358912 -0.535177 4.53721e-20)
(0.37735 -0.580466 -2.08704e-20)
(0.385972 -0.605138 1.44623e-20)
(0.382193 -0.613073 -1.38576e-20)
(0.363725 -0.611531 9.87046e-21)
(0.331809 -0.6054 -9.59632e-21)
(0.295313 -0.589723 -2.40451e-22)
(0.269693 -0.548465 -8.28287e-21)
(0.269278 -0.464037 8.04984e-21)
(0.298619 -0.330803 -8.99942e-21)
(0.352059 -0.15949 8.49324e-21)
(0.420052 0.0283657 -8.60495e-21)
(0.49321 0.207016 1.57674e-20)
(0.563095 0.35155 -7.20693e-21)
(0.622517 0.44889 -3.14141e-22)
(0.667063 0.500755 -4.07769e-21)
(0.69723 0.517481 7.51374e-21)
(0.714562 0.516061 -3.45098e-21)
(0.715637 0.518879 2.03569e-22)
(0.697 0.537764 3.88908e-21)
(0.667511 0.549944 8.70993e-22)
(0.648539 0.505831 -9.56955e-21)
(0.65767 0.369464 1.1094e-20)
(0.694392 0.157172 -5.80603e-21)
(0.745684 -0.0725982 7.66002e-22)
(0.795581 -0.259962 -3.09415e-22)
(0.831121 -0.376097 5.15576e-22)
(0.850466 -0.427869 0)
(0.856326 -0.434125 0)
(0.849599 -0.432223 -9.10243e-22)
(0.818884 -0.436261 6.81333e-22)
(0.767909 -0.439123 6.88275e-22)
(0.716673 -0.385521 2.54032e-22)
(0.692358 -0.259647 -1.10287e-21)
(0.702918 -0.0786903 2.48694e-22)
(0.740351 0.101654 0)
(0.786738 0.229367 0)
(0.823677 0.325444 0)
(0.825757 0.373749 0)
(0.795136 0.424868 2.87136e-22)
(0.759006 0.38329 -1.47804e-22)
(0.743353 0.278794 0)
(0.76326 0.101038 0)
(0.805907 -0.0820008 0)
(0.829425 -0.176981 -1.10458e-22)
(0.834007 -0.318223 1.81013e-23)
(0.800975 -0.318569 -8.0434e-23)
(0.794469 -0.353223 0)
(0.79274 -0.230498 0)
(0.804212 -0.0368716 4.84932e-23)
(0.795833 0.0514125 1.21324e-22)
(0.799575 0.33647 0)
(0.783043 0.248238 0)
(0.275584 0.00938118 2.25898e-21)
(0.311882 -0.0639603 -8.06971e-20)
(0.347396 -0.147098 7.89164e-20)
(0.383387 -0.236429 -7.37915e-20)
(0.417958 -0.32766 -5.30431e-22)
(0.449264 -0.4155 0)
(0.475561 -0.49323 -5.23511e-20)
(0.494641 -0.554089 5.12203e-20)
(0.504473 -0.593347 3.02346e-22)
(0.503844 -0.609721 4.92101e-22)
(0.491764 -0.606435 3.89919e-22)
(0.466266 -0.591611 3.26018e-22)
(0.425294 -0.57494 -1.57169e-20)
(0.371966 -0.558954 1.55179e-20)
(0.319001 -0.531806 0)
(0.284788 -0.471841 3.62285e-22)
(0.282368 -0.363366 -1.42973e-20)
(0.312547 -0.209511 1.41473e-20)
(0.367499 -0.0301992 0)
(0.436461 0.14748 0)
(0.508712 0.298574 -1.07639e-20)
(0.575164 0.407579 1.93616e-20)
(0.629849 0.472387 -1.56821e-20)
(0.671281 0.500685 6.81972e-22)
(0.698276 0.509901 1.27305e-20)
(0.706448 0.523123 -1.34299e-20)
(0.694578 0.549707 1.41021e-20)
(0.674785 0.562837 1.21464e-21)
(0.668345 0.51227 -9.0846e-21)
(0.68947 0.366141 0)
(0.734444 0.145269 0)
(0.788632 -0.0889338 4.38637e-21)
(0.83626 -0.275223 -5.79447e-21)
(0.865594 -0.386233 1.9195e-23)
(0.876422 -0.432441 2.80579e-21)
(0.873246 -0.433627 -2.72677e-21)
(0.860819 -0.424805 0)
(0.827254 -0.420897 2.04297e-22)
(0.774072 -0.420596 1.77226e-21)
(0.717016 -0.372772 -3.64009e-21)
(0.686477 -0.259081 1.68555e-21)
(0.692894 -0.0897996 1.80092e-22)
(0.730522 0.0845319 -1.98287e-21)
(0.779835 0.213659 1.5454e-21)
(0.81859 0.318087 3.01892e-22)
(0.823562 0.376793 2.82349e-22)
(0.794619 0.434052 -2.87879e-22)
(0.763549 0.391611 0)
(0.750224 0.279844 0)
(0.771826 0.0952046 -1.49659e-21)
(0.814762 -0.0899542 6.93069e-22)
(0.838238 -0.179639 -5.56309e-22)
(0.844216 -0.314605 6.40778e-22)
(0.807484 -0.314203 6.03235e-22)
(0.800948 -0.352243 -1.49211e-22)
(0.795387 -0.23187 2.02074e-22)
(0.804189 -0.0375762 -1.71022e-22)
(0.794275 0.051828 4.92863e-23)
(0.795816 0.337669 0)
(0.781874 0.24924 0)
(0.423202 -0.0161657 -1.68557e-19)
(0.461561 -0.0895127 4.09917e-22)
(0.499106 -0.171811 1.60155e-19)
(0.536311 -0.259079 -1.18835e-21)
(0.570574 -0.347752 0)
(0.599547 -0.432632 0)
(0.621128 -0.506535 -1.06869e-19)
(0.6329 -0.562492 1.3526e-20)
(0.633073 -0.595973 1.22975e-19)
(0.621395 -0.605991 -6.9312e-21)
(0.598868 -0.595175 -2.82309e-20)
(0.566096 -0.569974 -1.69095e-20)
(0.521202 -0.540809 1.70061e-20)
(0.461875 -0.516876 0)
(0.39312 -0.495329 -1.05163e-20)
(0.33123 -0.457074 9.5829e-21)
(0.295886 -0.378562 0)
(0.297499 -0.25078 0)
(0.333198 -0.0872372 1.06518e-20)
(0.392539 0.0849581 -6.25003e-22)
(0.463002 0.239918 -9.12953e-21)
(0.533443 0.359115 -7.41812e-21)
(0.596326 0.436657 7.3089e-21)
(0.647637 0.477461 -6.13348e-21)
(0.683417 0.498539 -1.64235e-22)
(0.698764 0.52246 5.94779e-21)
(0.694567 0.556137 8.77499e-22)
(0.685237 0.570377 3.46244e-24)
(0.691244 0.515515 0)
(0.723727 0.36315 1.33307e-20)
(0.776502 0.13695 -1.3814e-20)
(0.833353 -0.100232 8.13608e-22)
(0.878386 -0.285528 0)
(0.901326 -0.392034 -5.40998e-22)
(0.903832 -0.433399 5.70905e-21)
(0.891743 -0.430769 -9.23296e-21)
(0.873515 -0.416559 3.42237e-22)
(0.837545 -0.405389 4.00471e-22)
(0.783352 -0.401508 2.47382e-21)
(0.721656 -0.35918 3.77217e-22)
(0.685152 -0.258295 -3.18578e-21)
(0.686932 -0.101932 2.66419e-21)
(0.72392 0.0657909 5.75772e-23)
(0.775291 0.196328 1.23801e-21)
(0.815376 0.309434 -1.50657e-21)
(0.823338 0.37862 -1.9869e-21)
(0.796585 0.442221 5.39269e-22)
(0.770915 0.399666 1.50488e-21)
(0.760176 0.28149 -3.09619e-21)
(0.783055 0.0905343 2.37406e-21)
(0.825603 -0.0972619 -5.67349e-22)
(0.848606 -0.18201 7.91841e-22)
(0.855803 -0.310542 5.62946e-22)
(0.815036 -0.309393 -9.03945e-22)
(0.808066 -0.35089 2.61582e-23)
(0.798883 -0.233085 -1.51156e-22)
(0.805377 -0.0380259 0)
(0.793887 0.0523366 -8.46124e-23)
(0.79306 0.338735 1.05093e-22)
(0.781686 0.25015 0)
(0.569254 -0.0413925 1.68569e-19)
(0.60883 -0.113047 -3.31519e-19)
(0.649065 -0.192581 1.60361e-19)
(0.687967 -0.275857 1.50499e-19)
(0.721602 -0.3601 -2.85503e-19)
(0.747494 -0.440103 1.21845e-20)
(0.763424 -0.508466 1.20501e-19)
(0.766936 -0.55849 8.88162e-20)
(0.756787 -0.586205 -8.69478e-20)
(0.733719 -0.591235 0)
(0.699969 -0.576402 -4.35936e-20)
(0.658314 -0.546521 7.54275e-20)
(0.609733 -0.509028 -3.21553e-20)
(0.551106 -0.474409 0)
(0.479658 -0.448756 0)
(0.40273 -0.422594 2.74557e-22)
(0.339551 -0.372168 -1.46263e-20)
(0.30966 -0.276917 1.42106e-20)
(0.31989 -0.137765 0)
(0.363818 0.0229355 1.44461e-20)
(0.427786 0.177439 -2.62968e-20)
(0.498572 0.304385 2.33379e-20)
(0.566887 0.393763 -2.12869e-20)
(0.625946 0.447482 -3.11777e-22)
(0.669264 0.481152 2.1271e-20)
(0.691694 0.515768 -1.11086e-20)
(0.695795 0.556136 -4.36797e-22)
(0.6973 0.572223 -9.06184e-21)
(0.715356 0.515832 -2.4985e-21)
(0.75847 0.360972 1.14736e-20)
(0.818665 0.132259 8.74264e-22)
(0.878356 -0.106433 -1.28449e-20)
(0.921015 -0.29061 2.2963e-20)
(0.937597 -0.393271 -1.13157e-20)
(0.932134 -0.430639 0)
(0.911527 -0.425456 -4.83773e-21)
(0.88753 -0.407523 4.57014e-21)
(0.849503 -0.390163 -2.29921e-21)
(0.795364 -0.382445 2.88007e-21)
(0.73043 -0.344952 -2.75568e-22)
(0.688383 -0.257 0)
(0.685001 -0.114629 -3.05321e-22)
(0.720384 0.0457805 9.09985e-22)
(0.772904 0.177476 0)
(0.813876 0.299311 2.65225e-21)
(0.824946 0.378932 -1.03044e-21)
(0.800889 0.449138 5.92863e-22)
(0.780897 0.407397 7.3785e-22)
(0.773059 0.283839 0)
(0.796828 0.0870976 0)
(0.838309 -0.103792 -2.09709e-21)
(0.860367 -0.184068 2.99832e-21)
(0.86863 -0.305979 -1.4796e-21)
(0.82358 -0.304038 3.81419e-22)
(0.815725 -0.349122 5.23133e-22)
(0.803093 -0.234189 1.51298e-22)
(0.807682 -0.0382614 -1.90118e-22)
(0.794601 0.0529521 0)
(0.791278 0.339682 -1.68174e-22)
(0.782486 0.250969 -2.05628e-23)
(0.716695 -0.0686214 1.65665e-19)
(0.75603 -0.136411 -1.65132e-19)
(0.797646 -0.210454 1.26178e-21)
(0.836473 -0.287297 -1.14948e-21)
(0.8673 -0.364883 1.11928e-21)
(0.887848 -0.437857 -1.0122e-21)
(0.896084 -0.49903 1.70572e-21)
(0.889878 -0.542512 0)
(0.868879 -0.565003 -1.201e-21)
(0.835012 -0.566385 9.60977e-22)
(0.791407 -0.549611 7.46074e-22)
(0.741486 -0.519079 -5.79837e-22)
(0.688149 -0.479454 0)
(0.631006 -0.437735 0)
(0.564982 -0.403095 2.04206e-22)
(0.487539 -0.3772 0)
(0.408897 -0.345086 -1.1051e-22)
(0.350667 -0.282188 0)
(0.3308 -0.175 -9.18065e-21)
(0.352251 -0.0340879 1.78979e-20)
(0.404102 0.113685 -1.70636e-20)
(0.471236 0.244734 8.12317e-21)
(0.541601 0.344272 7.51972e-21)
(0.605747 0.410764 -7.3023e-21)
(0.655082 0.457301 -9.83394e-21)
(0.684276 0.502422 9.60489e-21)
(0.696992 0.549303 0)
(0.709336 0.568299 4.77313e-22)
(0.738742 0.513411 0)
(0.791414 0.359735 0)
(0.858956 0.131205 2.66667e-20)
(0.922409 -0.107556 -2.75769e-20)
(0.963307 -0.290558 1.47464e-21)
(0.97378 -0.390169 1.14317e-21)
(0.960838 -0.424441 -8.27903e-22)
(0.932295 -0.417817 -4.18441e-21)
(0.902613 -0.397791 4.06314e-21)
(0.86274 -0.3755 -2.76188e-21)
(0.809534 -0.363787 2.35101e-21)
(0.742865 -0.330204 5.11585e-22)
(0.695958 -0.254878 -2.237e-21)
(0.686961 -0.127293 -2.0921e-22)
(0.719643 0.0248787 1.54922e-21)
(0.772405 0.157164 0)
(0.813867 0.287511 -9.50735e-22)
(0.82816 0.377427 1.70073e-21)
(0.807284 0.454566 -2.1555e-21)
(0.793156 0.414698 -7.42576e-22)
(0.788493 0.286933 0)
(0.812908 0.0851621 7.97278e-22)
(0.852776 -0.10933 -1.70945e-21)
(0.873353 -0.185775 1.8962e-23)
(0.882518 -0.300904 -4.59593e-22)
(0.833075 -0.298048 5.04068e-22)
(0.823845 -0.346868 -5.03381e-22)
(0.807877 -0.23523 0)
(0.811001 -0.0383363 1.90206e-22)
(0.796343 0.053684 0)
(0.790432 0.340516 0)
(0.784278 0.251694 3.10178e-23)
(0.871149 -0.0950511 -1.60533e-19)
(0.906167 -0.157295 1.58916e-19)
(0.944718 -0.223385 -1.15239e-21)
(0.978938 -0.291498 1.17677e-21)
(1.00282 -0.360419 0)