/*--------------------------------*- C++ -*----------------------------------*\
| =========                 |                                                 |
| \\      /  F ield         | OpenFOAM: The Open Source CFD Toolbox           |
|  \\    /   O peration     | Version:  2512                                  |
|   \\  /    A nd           | Website:  www.openfoam.com                      |
|    \\/     M anipulation  |                                                 |
\*---------------------------------------------------------------------------*/
FoamFile
{
    version     2.0;
    format      ascii;
    arch        "LSB;label=32;scalar=64";
    class       surfaceScalarField;
    location    "173.5";
    object      phi;
}
// * * * * * * * * * * * * * * * * * * * * * * * * * * * * * * * * * * * * * //

dimensions      [0 3 -1 0 0 0 0];

oriented        oriented;

internalField   nonuniform List<scalar> 
26232
(
6.28264e-05
0.000805841
-0.000868668
0.000362833
0.00122378
-0.00152378
0.00104765
0.000655442
-0.00134026
0.00228128
-0.000806636
-0.000426994
0.00423432
-0.00311342
0.00116038
0.00707389
-0.00623792
0.00339835
0.0109511
-0.0101581
0.00628088
0.0159863
-0.0148395
0.00980428
0.022253
-0.0202201
0.0139534
0.0297637
-0.0262015
0.0186908
0.0384604
-0.0326479
0.0239511
0.0482137
-0.0393932
0.0296399
0.0588298
-0.0462543
0.0356381
0.0700666
-0.0530474
0.0418107
0.0816546
-0.059605
0.0480169
0.0933216
-0.0657896
0.0541227
0.104815
-0.0715036
0.0600102
0.115922
-0.0766941
0.0655871
0.126484
-0.081351
0.0707889
0.136405
-0.08551
0.0755892
0.145645
-0.0892185
0.0799782
0.154234
-0.0926056
0.0840164
0.162192
-0.0956511
0.0876931
-0.0987126
0.0914503
0.169455
0.000136335
0.000669506
0.000677973
0.00068214
0.00178941
-0.000455999
0.00364776
-0.00266498
0.00643093
-0.00589659
0.0103013
-0.0101083
0.0153849
-0.0152417
0.0217488
-0.0212034
0.0293819
-0.0278532
0.0381838
-0.0350034
0.0479662
-0.0424302
0.0584675
-0.0498945
0.0693796
-0.0571664
0.0803802
-0.0640479
0.0911664
-0.0703912
0.101485
-0.0761079
0.111152
-0.081171
0.120067
-0.0856094
0.128213
-0.0894964
0.13564
-0.0929371
0.142465
-0.0960436
0.148823
-0.0989633
0.154879
-0.101708
-0.104662
0.160829
0.000210915
0.000458591
0.0010061
-0.000113042
0.00257173
-0.00202163
0.00509602
-0.00518927
0.00875285
-0.00955342
0.0136758
-0.0150313
0.0199285
-0.0214943
0.0274784
-0.0287533
0.0361838
-0.0365586
0.0457983
-0.0446179
0.055996
-0.0526279
0.0664103
-0.0603088
0.0766801
-0.0674362
0.0864928
-0.0738607
0.0956174
-0.0795158
0.103923
-0.0844134
0.111381
-0.0886289
0.118053
-0.0922815
0.124068
-0.0955113
0.129592
-0.0984611
0.134804
-0.101256
0.139854
-0.104013
0.144899
-0.106753
-0.10974
0.149977
0.00029526
0.000163331
0.00136954
-0.00118732
0.00342697
-0.00407907
0.00665589
-0.00841819
0.0112025
-0.0141
0.017134
-0.0209628
0.0244047
-0.0287651
0.0328384
-0.0371871
0.0421368
-0.045857
0.0519153
-0.0543964
0.0617575
-0.0624701
0.0712749
-0.0698262
0.0801583
-0.0763196
0.0882108
-0.0819132
0.0953587
-0.0866637
0.10164
-0.0906951
0.107179
-0.094168
0.112149
-0.0972506
0.116735
-0.100097
0.121108
-0.102835
0.125409
-0.105556
0.129729
-0.108333
0.134144
-0.111169
-0.114242
0.138647
0.000395835
-0.000232504
0.00178254
-0.00257403
0.00436862
-0.00666514
0.00831944
-0.012369
0.013717
-0.0194976
0.0205163
-0.027762
0.0285195
-0.0367683
0.0373861
-0.0460536
0.046679
-0.0551499
0.0559361
-0.0636535
0.0647449
-0.0712788
0.0728014
-0.0778828
0.079941
-0.0834592
0.0861386
-0.0881108
0.091483
-0.0920081
0.0961366
-0.0953487
0.100292
-0.098323
0.104134
-0.101093
0.107817
-0.103781
0.111456
-0.106473
0.115125
-0.109226
0.118865
-0.112073
0.12271
-0.115013
-0.118161
0.126629
0.000514928
-0.000747432
0.00224536
-0.00430446
0.00537977
-0.00979956
0.0100259
-0.0170151
0.0161569
-0.0256286
0.0235732
-0.0351783
0.0319063
-0.0451014
0.0406737
-0.054821
0.0493673
-0.0638436
0.0575461
-0.0718323
0.0649031
-0.0786358
0.0712943
-0.084274
0.0767282
-0.0888931
0.0813266
-0.0927092
0.0852739
-0.0959554
0.0887687
-0.0988435
0.091989
-0.101543
0.0950746
-0.104178
0.0981232
-0.106829
0.101197
-0.109547
0.104331
-0.11236
0.107542
-0.115284
0.110847
-0.118318
-0.121524
0.11421
0.000650238
-0.00139767
0.00274259
-0.00639681
0.006412
-0.013469
0.0116661
-0.0222692
0.018327
-0.0322895
0.0260194
-0.0428707
0.0342252
-0.0533072
0.0423881
-0.0629839
0.0500262
-0.0714818
0.0568135
-0.0786195
0.0626084
-0.0844307
0.0674354
-0.0891011
0.0714347
-0.0928924
0.0748021
-0.0960766
0.077738
-0.0988913
0.0804146
-0.10152
0.0829615
-0.10409
0.0854669
-0.106684
0.0879854
-0.109348
0.0905479
-0.11211
0.0931705
-0.114983
0.0958586
-0.117972
0.0986176
-0.121077
-0.124324
0.101418
0.000795653
-0.00219332
0.00324623
-0.00884739
0.00739383
-0.0176166
0.0131039
-0.0279793
0.0200215
-0.0392071
0.0276091
-0.0504584
0.035261
-0.0609591
0.0424392
-0.070162
0.0487752
-0.0778178
0.0541074
-0.0839517
0.0584577
-0.088781
0.0619722
-0.0926155
0.0648528
-0.095773
0.0673022
-0.098526
0.0694902
-0.101079
0.0715421
-0.103572
0.0735411
-0.106089
0.0755375
-0.10868
0.0775601
-0.11137
0.0796237
-0.114173
0.0817347
-0.117094
0.0838946
-0.120132
0.0861043
-0.123287
-0.126562
0.0883419
0.000942424
-0.00313575
0.00372053
-0.0116255
0.00824393
-0.02214
0.0142046
-0.03394
0.0210721
-0.0460745
0.028197
-0.0575833
0.0349701
-0.0677321
0.0409538
-0.0761458
0.045939
-0.0828029
0.049924
-0.0879367
0.053049
-0.091906
0.0555183
-0.0950848
0.0575386
-0.0977933
0.0592821
-0.10027
0.0608744
-0.102672
0.0623974
-0.105095
0.0639002
-0.107592
0.0654102
-0.11019
0.0669419
-0.112902
0.0685025
-0.115734
0.0700946
-0.118686
0.0717183
-0.121756
0.0733722
-0.124941
-0.128232
0.0750424
0.00108011
-0.00421586
0.00412707
-0.0146725
0.00888481
-0.0268977
0.0148607
-0.0399159
0.0213817
-0.0525956
0.0277599
-0.0639615
0.0334614
-0.0734336
0.0381969
-0.0808813
0.0419156
-0.0865217
0.0447366
-0.0907578
0.0468618
-0.0940311
0.0485033
-0.0967263
0.0498403
-0.0991303
0.0510032
-0.101433
0.0520768
-0.103745
0.0531111
-0.106129
0.0541336
-0.108615
0.0551591
-0.111216
0.0561953
-0.113938
0.0572459
-0.116784
0.0583118
-0.119752
0.0593924
-0.122836
0.060485
-0.126033
-0.12933
0.0615828
0.0011982
-0.00541406
0.00443101
-0.0179053
0.00925592
-0.0317226
0.0150093
-0.0456693
0.020934
-0.0585203
0.0263788
-0.0694062
0.0309384
-0.0779933
0.0344797
-0.0844226
0.0370791
-0.089121
0.0389263
-0.092605
0.0402386
-0.0953434
0.0412059
-0.0976936
0.0419685
-0.0998929
0.0426177
-0.102082
0.0432072
-0.104335
0.0437663
-0.106688
0.0443105
-0.109159
0.0448479
-0.111753
0.0453831
-0.114474
0.0459181
-0.117319
0.0464532
-0.120287
0.046987
-0.12337
0.0475158
-0.126562
-0.129851
0.048037
0.00128999
-0.00670405
0.00460858
-0.0212238
0.00932329
-0.0364373
0.0146389
-0.0509849
0.019784
-0.0636653
0.0242042
-0.0738265
0.027643
-0.081432
0.0301019
-0.0868815
0.0317412
-0.0907603
0.0327778
-0.0936416
0.0334145
-0.0959801
0.0338063
-0.0980854
0.0340557
-0.100142
0.0342233
-0.102249
0.0343417
-0.104453
0.0344279
-0.106774
0.0344905
-0.109221
0.0345347
-0.111797
0.0345635
-0.114502
0.0345784
-0.117334
0.0345798
-0.120288
0.0345663
-0.123357
0.0345341
-0.12653
0.0344827
-0.1298
-0.000208096
-0.00247535
0.00268345
-0.000770537
-0.00620398
0.00676642
-0.00164928
-0.00903409
0.00991283
-0.00280371
-0.0111089
0.0122633
-0.00418991
-0.0125843
0.0139705
-0.00576458
-0.0136212
0.0151958
-0.00748876
-0.0143635
0.0160877
-0.00932963
-0.0149229
0.0167638
-0.0112606
-0.0153711
0.0173021
-0.0132594
-0.015741
0.0177399
-0.0153063
-0.0160319
0.0180787
-0.0173805
-0.0162177
0.0182919
-0.0194586
-0.0162547
0.0183328
-0.0215122
-0.016087
0.0181406
-0.0235066
-0.0156515
0.017646
-0.0254004
-0.0148803
0.0167741
-0.027145
-0.013703
0.0154476
-0.0286848
-0.0120497
0.0135896
-0.0299606
-0.0098513
0.0111271
-0.0309074
-0.00704648
0.00799327
-0.0314651
-0.00356646
0.00412415
-0.0315793
0.000529367
-0.000415165
-0.0312386
0.00531062
-0.00565132
0.0108099
-0.0304955
-0.011553
-0.000305771
-0.00216958
-0.00107872
-0.00543104
-0.00222915
-0.00788365
-0.00368306
-0.00965498
-0.00537733
-0.0108901
-0.00726034
-0.0117381
-0.00929214
-0.0123317
-0.0114432
-0.0127718
-0.0136921
-0.0131223
-0.0160219
-0.0134113
-0.0184167
-0.013637
-0.020859
-0.0137754
-0.0233264
-0.0137873
-0.0257901
-0.0136233
-0.0282133
-0.0132283
-0.0305503
-0.0125433
-0.0327458
-0.0115075
-0.0347362
-0.0100593
-0.0364485
-0.00813897
-0.0378143
-0.0056807
-0.0387607
-0.00262004
-0.0392104
0.00097902
-0.0391505
0.0052507
0.0102559
-0.0385965
-0.000381524
-0.00178806
-0.00131187
-0.00450069
-0.00265661
-0.00653891
-0.00431256
-0.00799903
-0.00619938
-0.00900324
-0.00825671
-0.00968081
-0.0104412
-0.0101472
-0.0127224
-0.0104905
-0.0150788
-0.0107659
-0.0174926
-0.0109975
-0.0199462
-0.0111834
-0.022419
-0.0113027
-0.0248846
-0.0113217
-0.0273095
-0.0111984
-0.0296515
-0.0108863
-0.0318587
-0.0103361
-0.0338687
-0.00949752
-0.0356085
-0.00831954
-0.0369951
-0.00675239
-0.0379332
-0.00474257
-0.0383206
-0.00223264
-0.0381252
0.000783662
-0.0372552
0.00438065
0.00868894
-0.0356882
-0.000430459
-0.0013576
-0.00145771
-0.00347344
-0.00291329
-0.00508333
-0.00467101
-0.00624132
-0.00663593
-0.00703832
-0.00873879
-0.00757795
-0.0109304
-0.00795561
-0.0131757
-0.00824516
-0.015448
-0.0084936
-0.0177237
-0.00872182
-0.019978
-0.0089291
-0.022182
-0.00909867
-0.0243006
-0.00920302
-0.0262911
-0.00920792
-0.028102
-0.0090754
-0.0296723
-0.0087658
-0.0309306
-0.00823922
-0.0317935
-0.00745666
-0.0321656
-0.00638027
-0.0319346
-0.0049736
-0.0309757
-0.00319148
-0.0292218
-0.000970239
-0.0265418
0.00170062
0.00492256
-0.0227754
-0.000450763
-0.000906835
-0.00151212
-0.00241209
-0.00299459
-0.00360086
-0.00475622
-0.00447968
-0.00669073
-0.00510381
-0.00872022
-0.00554846
-0.010788
-0.00588781
-0.0128516
-0.00618164
-0.0148757
-0.00646943
-0.0168275
-0.00677003
-0.0186718
-0.00708481
-0.0203685
-0.00740193
-0.0218711
-0.00770049
-0.0231251
-0.00795385
-0.0240684
-0.00813216
-0.0246299
-0.00820431
-0.0247296
-0.00813949
-0.0242776
-0.0079087
-0.0231718
-0.007486
-0.0212978
-0.00684767
-0.0185191
-0.0059701
-0.0146758
-0.00481359
-0.00967933
-0.00329585
-0.00124341
-0.00351335
-0.000442664
-0.000464171
-0.00147642
-0.00137833
-0.00290398
-0.0021733
-0.00457496
-0.0028087
-0.00637494
-0.00330383
-0.00821783
-0.00370557
-0.0100382
-0.0040674
-0.0117839
-0.00443597
-0.0134091
-0.00484425
-0.0148691
-0.00530998
-0.0161167
-0.00583724
-0.0170993
-0.00641939
-0.0177578
-0.00704197
-0.0180263
-0.0076853
-0.017832
-0.00832646
-0.0170952
-0.0089411
-0.0157295
-0.00950519
-0.0136414
-0.00999681
-0.0107292
-0.0103982
-0.00687917
-0.0106977
-0.00195862
-0.0108907
0.00419828
-0.0109705
0.0117794
-0.0108769
-0.0106996
0.0212355
-0.000407977
-5.61946e-05
-0.00135564
-0.000430664
-0.00264947
-0.000879473
-0.00413692
-0.00132125
-0.0056978
-0.00174296
-0.00723764
-0.00216573
-0.00868054
-0.00262449
-0.00996202
-0.0031545
-0.0110227
-0.00378355
-0.0118036
-0.00452907
-0.0122428
-0.00539813
-0.0122733
-0.00638888
-0.0118229
-0.0074923
-0.0108143
-0.0086939
-0.00916553
-0.00997525
-0.00679105
-0.0113156
-0.00360267
-0.0126936
0.000489812
-0.0140893
0.00557836
-0.0154868
0.011757
-0.0168763
0.0191222
-0.0182559
0.027812
-0.0196603
0.0378573
-0.0209222
-0.0228922
0.0500498
-0.000350165
0.00029397
-0.00115863
0.000377805
-0.00224425
0.000206138
-0.00345645
-0.000109053
-0.00467015
-0.000529251
-0.00578117
-0.00105471
-0.00670026
-0.00170539
-0.00734703
-0.00250773
-0.00764464
-0.00348594
-0.00751599
-0.00465772
-0.00688149
-0.00603263
-0.00565844
-0.00761192
-0.00376156
-0.00938919
-0.00110444
-0.011351
0.00239856
-0.0134782
0.0068304
-0.0157474
0.0122697
-0.0181329
0.0187894
-0.020609
0.0264556
-0.023153
0.0353288
-0.0257496
0.0454475
-0.0283745
0.056913
-0.0311258
0.0695442
-0.0335534
-0.0374854
0.0841374
-0.000274353
0.000568324
-0.000899131
0.00100258
-0.0017101
0.00101711
-0.0025598
0.000740651
-0.00331754
0.000228482
-0.00386761
-0.000504634
-0.00410425
-0.00146875
-0.00392773
-0.00268426
-0.00324095
-0.00417272
-0.00194722
-0.00595144
4.96904e-05
-0.00802955
0.00284437
-0.0104066
0.0065269
-0.0130717
0.0111799
-0.016004
0.016875
-0.0191734
0.0236707
-0.0225431
0.0316096
-0.0260718
0.0407183
-0.0297177
0.0510063
-0.033441
0.0624696
-0.0372129
0.0750762
-0.0409811
0.0888333
-0.0448828
0.103533
-0.0482533
-0.053491
0.119539
-0.000187927
0.000756251
-0.000597004
0.00141166
-0.00107905
0.00149915
-0.00148931
0.00115091
-0.00169054
0.000429704
-0.00155283
-0.000642345
-0.000952483
-0.00206909
0.000229819
-0.00386656
0.00210981
-0.00605271
0.00479792
-0.00863955
0.00839677
-0.0116284
0.0129966
-0.0150064
0.0186701
-0.0187453
0.0254682
-0.0228021
0.0334158
-0.027121
0.0425106
-0.0316378
0.0527227
-0.0362839
0.063997
-0.040992
0.0762564
-0.0457004
0.0894039
-0.0503603
0.103335
-0.0549122
0.117904
-0.0594521
0.13306
-0.0634093
-0.0688675
0.148437
-9.88885e-05
0.000855139
-0.0002746
0.00158737
-0.000390048
0.0016146
-0.000300494
0.00106136
0.000140021
-1.08116e-05
0.00107527
-0.00157759
0.00264541
-0.00363923
0.00498445
-0.00620559
0.0082165
-0.00928476
0.0124503
-0.0128734
0.0177719
-0.01695
0.0242376
-0.0214721
0.0318675
-0.0263752
0.0406421
-0.0315766
0.0505013
-0.0369803
0.0613477
-0.0424842
0.0730522
-0.0479884
0.0854621
-0.0534019
0.0984103
-0.0586486
0.111724
-0.063674
0.125247
-0.068435
0.138763
-0.072968
0.152371
-0.0770178
-0.0817012
0.165205
-1.35285e-05
5.00586e-05
0.0003244
0.000958766
0.00210833
0.00392909
0.00657073
0.0101694
0.014838
0.0206555
0.0276566
0.0358245
0.0450874
0.0553215
0.0663582
0.0779966
0.0900185
0.102204
0.114344
0.126259
0.137802
0.148851
0.159526
0.169275
-0.0273537
0.0223707
-0.0255126
-0.0237989
0.0349579
-0.0385126
-0.0198201
0.0486979
-0.0526768
-0.0155428
0.0630442
-0.0673215
-0.0110616
0.0773667
-0.0818479
-0.00648758
0.0909143
-0.0954883
-0.00168925
0.102812
-0.107611
0.00374754
0.112046
-0.117483
0.0104486
0.117418
-0.124119
0.0191232
0.117481
-0.126155
0.030193
0.110652
-0.121721
0.0434716
0.0958425
-0.109121
0.0581312
0.0728343
-0.0874939
0.0731057
0.0422471
-0.0572216
0.0876458
0.00505412
-0.0195942
0.101284
-0.0365847
0.0229466
0.113612
-0.0793538
0.0670254
0.12389
-0.117049
0.106771
0.131304
-0.144359
0.136945
0.135479
-0.159825
0.155651
0.136816
-0.165803
0.164465
0.136086
-0.16577
0.166501
0.13332
-0.163473
0.166239
0.127855
-0.163884
0.16935
0.12013
-0.169673
0.177398
0.11299
-0.173979
0.181118
0.110201
-0.16067
0.16346
0.113543
-0.116601
0.113258
0.121998
-0.0457367
0.0372818
0.132698
0.0342965
-0.0449961
0.14278
0.104066
-0.114148
0.150449
0.153618
-0.161287
0.155375
0.181353
-0.186278
0.157314
0.194145
-0.196084
0.15532
0.205261
-0.203267
0.149292
0.222812
-0.216783
0.141582
0.236993
-0.229283
0.135965
0.217754
-0.212137
0.13501
0.152463
-0.151508
0.13861
0.0471809
-0.0507813
0.144925
-0.0578524
0.0515369
0.151516
-0.143527
0.136937
0.155676
-0.192904
0.188744
0.15468
-0.22054
0.221537
0.148354
-0.243734
0.25006
0.140199
-0.246335
0.254491
0.135579
-0.227341
0.23196
0.136973
-0.13087
0.129476
0.143199
-0.0317949
0.0255681
0.148823
0.0913276
-0.0969509
0.149644
0.177951
-0.178773
0.145854
0.243244
-0.239453
0.14192
0.304409
-0.300476
0.141348
0.229165
-0.228593
0.143896
0.189999
-0.192547
0.145323
0.00430124
-0.00572824
0.144621
-0.11765
0.118352
0.14294
-0.213237
0.214917
0.141079
-0.370333
0.372194
-0.157585
0.159382
-0.0351897
0.0189639
-0.0309754
0.0307436
-0.0259468
0.0436693
-0.0201603
0.0572578
-0.0136272
0.0708335
-0.00642141
0.0837086
0.00174554
0.0946453
0.011102
0.10269
0.021876
0.106644
0.0342953
0.105061
0.0482266
0.0967202
0.0630857
0.0809835
0.0779926
0.0579275
0.0920669
0.0281727
0.104724
-0.00760335
0.116037
-0.047897
0.125579
-0.0888958
0.132776
-0.124246
0.137128
-0.148712
0.13858
-0.161277
0.137659
-0.164882
0.135225
-0.163337
0.131446
-0.159693
0.125404
-0.157842
0.116867
-0.161136
0.108294
-0.165405
0.103968
-0.156344
0.106602
-0.119235
0.11547
-0.0546044
0.127495
0.0222717
0.139312
0.0922482
0.148892
0.144038
0.155606
0.174639
0.158937
0.190814
0.15801
0.206188
0.153021
0.227801
0.146301
0.243713
0.141172
0.222883
0.13988
0.153755
0.142391
0.0446694
0.147136
-0.0625975
0.152148
-0.148539
0.155237
-0.195994
0.153692
-0.218995
0.147085
-0.237127
0.138692
-0.237942
0.13412
-0.222769
0.135934
-0.132683
0.142655
-0.0385162
0.148685
0.0852972
0.149717
0.17692
0.146174
0.246787
0.142236
0.308347
0.14168
0.229721
0.14446
0.187219
0.146045
0.00271625
0.145379
-0.116984
0.143558
-0.211416
0.141615
-0.36839
-0.15577
-0.0320657
0.0153414
-0.0273311
0.026009
-0.0213919
0.0377301
-0.0142702
0.050136
-0.00613068
0.062694
0.00359536
0.0739825
0.0145707
0.08367
0.0266841
0.0905762
0.0400004
0.093328
0.0543645
0.090697
0.0693337
0.081751
0.0842068
0.0661103
0.0981374
0.0439969
0.110523
0.0157868
0.121056
-0.0181363
0.129838
-0.056679
0.136561
-0.0956189
0.140729
-0.128414
0.14214
-0.150123
0.141096
-0.160232
0.13824
-0.162026
0.134393
-0.15949
0.129843
-0.155143
0.123606
-0.151605
0.114768
-0.152298
0.105091
-0.155728
0.0991071
-0.15036
0.100552
-0.12068
0.109325
-0.0633778
0.122278
0.00931899
0.135607
0.0789195
0.147037
0.132608
0.15555
0.166126
0.160375
0.185988
0.160738
0.205826
0.157031
0.231507
0.151403
0.249341
0.146705
0.227581
0.144917
0.155544
0.146233
0.0433525
0.149352
-0.0657156
0.152739
-0.151926
0.154763
-0.198018
0.152782
-0.217014
0.146049
-0.230394
0.137513
-0.229406
0.132945
-0.218201
0.135061
-0.1348
0.14218
-0.0456345
0.148617
0.0788594
0.149912
0.175625
0.14664
0.250058
0.142675
0.312312
0.142106
0.23029
0.145142
0.184183
0.146918
0.00094041
0.146279
-0.116346
0.144305
-0.209441
0.14228
-0.366365
-0.153957
-0.0189111
0.0114771
-0.013905
0.0210029
-0.0075747
0.0313997
0.000413018
0.0421483
0.0104006
0.0527064
0.0215314
0.0628517
0.0338337
0.0713677
0.0472523
0.0771576
0.0615431
0.0790372
0.0762933
0.0759468
0.0909214
0.0671229
0.104733
0.0522984
0.117055
0.031675
0.127437
0.00540483
0.135847
-0.0265463
0.142269
-0.0631007
0.146349
-0.0996988
0.147665
-0.12973
0.146325
-0.148783
0.143021
-0.156928
0.138533
-0.157537
0.133537
-0.154495
0.128373
-0.149979
0.12221
-0.145443
0.113644
-0.143732
0.103431
-0.145515
0.0958306
-0.14276
0.095586
-0.120435
0.103577
-0.0713691
0.117029
-0.00413231
0.13161
0.0643378
0.144794
0.119424
0.155095
0.155825
0.161522
0.179562
0.163384
0.203963
0.161174
0.233717
0.156711
0.253804
0.15238
0.231912
0.150019
0.157905
0.150016
0.0433557
0.151527
-0.067227
0.153283
-0.153682
0.154238
-0.198973
0.1519
-0.214677
0.145177
-0.22367
0.136596
-0.220825
0.131981
-0.213586
0.134287
-0.137106
0.141727
-0.0530752
0.148591
0.0719955
0.150219
0.173997
0.147262
0.253016
0.14326
0.316314
0.142646
0.230905
0.145945
0.180884
0.147932
-0.00104661
0.147316
-0.11573
0.145178
-0.207303
0.143066
-0.364253
-0.152161
0.000847172
0.00711657
0.00649022
0.0153599
0.013639
0.0242509
0.0222658
0.0335215
0.0321626
0.0428096
0.0434563
0.051558
0.0559572
0.0588668
0.0694118
0.063703
0.0834235
0.0650254
0.0974591
0.0619112
0.110903
0.0536786
0.123146
0.0400562
0.133649
0.0211716
0.142268
-0.00321384
0.148832
-0.033111
0.153144
-0.067412
0.154711
-0.101266
0.153308
-0.128327
0.14945
-0.144925
0.144181
-0.151659
0.138392
-0.151747
0.132565
-0.148668
0.126957
-0.144371
0.121009
-0.139495
0.113154
-0.135876
0.103094
-0.135456
0.0942333
-0.133899
0.0919354
-0.118138
0.0985403
-0.0779739
0.111714
-0.0173062
0.127292
0.0487602
0.142054
0.104663
0.154088
0.143791
0.1622
0.171449
0.165761
0.200403
0.165233
0.234244
0.162028
0.25701
0.15804
0.235899
0.155006
0.160939
0.153662
0.0447003
0.153602
-0.0671672
0.15375
-0.15383
0.153635
-0.198858
0.151002
-0.212044
0.144408
-0.217077
0.135866
-0.212282
0.131161
-0.20888
0.133542
-0.139487
0.141243
-0.0607762
0.148569
0.0646702
0.150622
0.171944
0.148043
0.255596
0.144012
0.320345
0.143316
0.2316
0.146865
0.177335
0.149076
-0.00325777
0.148481
-0.115135
0.14617
-0.204992
0.143962
-0.362045
-0.150399
0.0256088
0.00274332
0.0308159
0.0101528
0.0373668
0.0177
0.0454743
0.025414
0.0549999
0.033284
0.065813
0.0407449
0.0777136
0.0469662
0.0903839
0.0510327
0.103366
0.0520435
0.116102
0.0491753
0.128012
0.0417688
0.138598
0.02947
0.147487
0.0122823
0.154605
-0.0103318
0.159633
-0.038139
0.162046
-0.0698244
0.161268
-0.100489
0.157392
-0.124451
0.151366
-0.138899
0.144492
-0.144786
0.137717
-0.144972
0.131347
-0.142299
0.125458
-0.138481
0.119757
-0.133794
0.112876
-0.128994
0.103658
-0.126239
0.0941929
-0.124434
0.0898021
-0.113747
0.0943349
-0.0825067
0.10659
-0.0295617
0.122655
0.032696
0.138703
0.0886143
0.152349
0.130145
0.162198
0.1616
0.167619
0.194982
0.168946
0.232917
0.16711
0.258846
0.163483
0.239527
0.159755
0.164667
0.157064
0.0473916
0.155509
-0.065613
0.154104
-0.152425
0.152917
-0.197671
0.150033
-0.20916
0.143671
-0.210715
0.135246
-0.203856
0.130405
-0.204039
0.132759
-0.141842
0.140665
-0.0686817
0.148501
0.0568338
0.151092
0.169353
0.148979
0.257709
0.144944
0.324379
0.144125
0.232419
0.1479
0.173561
0.150338
-0.0056953
0.149765
-0.114563
0.147275
-0.202502
0.144958
-0.359727
-0.148685
0.0528331
-3.98976e-05
0.0566594
0.00632646
0.0618962
0.0124632
0.0687577
0.0185525
0.07711
0.0249317
0.0867572
0.0310977
0.0974555
0.0362679
0.108843
0.039645
0.120443
0.0404435
0.131715
0.0379031
0.142131
0.0313532
0.151285
0.0203156
0.158845
0.00472285
0.16469
-0.0161773
0.168253
-0.0417018
0.168777
-0.0703486
0.165776
-0.097488
0.159728
-0.118403
0.151951
-0.131122
0.143877
-0.136711
0.136417
-0.137512
0.129757
-0.135639
0.123757
-0.132482
0.118268
-0.128305
0.112375
-0.123102
0.104532
-0.118395
0.0953268
-0.115229
0.0892383
-0.107658
0.0912364
-0.0845048
0.101855
-0.0401802
0.11775
0.0168005
0.134667
0.0716978
0.149725
0.115087
0.161297
0.150028
0.168692
0.187587
0.172034
0.229574
0.171704
0.259177
0.168518
0.242712
0.164086
0.169099
0.160135
0.0513427
0.15717
-0.0626474
0.154302
-0.149558
0.152049
-0.195417
0.14894
-0.206051
0.142898
-0.204673
0.134658
-0.195617
0.129639
-0.19902
0.131868
-0.14407
0.139925
-0.076739
0.148331
0.0484279
0.151589
0.166095
0.150053
0.259245
0.146058
0.328375
0.145084
0.233393
0.149039
0.169605
0.1517
-0.00835637
0.151155
-0.114017
0.14848
-0.199827
0.146039
-0.357286
-0.147036
0.0840884
9.09711e-06
0.0855763
0.00483854
0.0886506
0.00938899
0.0933468
0.0138563
0.0995963
0.0186822
0.107249
0.0234451
0.116062
0.0274549
0.125652
0.0300547
0.135546
0.0305498
0.14522
0.0282291
0.15415
0.0224234
0.16184
0.0126251
0.168386
-0.00182284
0.172767
-0.0205581
0.174647
-0.0435821
0.17315
-0.068851
0.168051
-0.0923897
0.160209
-0.11056
0.151164
-0.122077
0.142318
-0.127865
0.134457
-0.129652
0.127691
-0.128872
0.121739
-0.126529
0.116438
-0.123004
0.111359
-0.118024
0.105095
-0.112131
0.096998
-0.107132
0.0900252
-0.100686
0.0894566
-0.0839362
0.0977448
-0.0484684
0.112701
0.001844
0.129933
0.0544661
0.146109
0.0989112
0.15932
0.136817
0.168727
0.17818
0.174174
0.224127
0.175481
0.257869
0.172892
0.245301
0.167886
0.174105
0.162737
0.0564915
0.158499
-0.0584093
0.154288
-0.145347
0.150984
-0.192113
0.147661
-0.202727
0.142021
-0.199034
0.134034
-0.187629
0.128797
-0.193783
0.130804
-0.146077
0.138956
-0.0848914
0.147992
0.0393919
0.152057
0.16203
0.151236
0.260066
0.147347
0.332263
0.146191
0.234548
0.150272
0.165525
0.153147
-0.0112314
0.152636
-0.113506
0.149769
-0.196961
0.14719
-0.354708
-0.145472
0.117331
0.00221677
0.116734
0.00543607
0.117614
0.0085091
0.11988
0.0115902
0.123626
0.0149363
0.128786
0.0182845
0.135168
0.0210736
0.142433
0.0227888
0.150168
0.0228148
0.157887
0.0205105
0.165071
0.0152394
0.171141
0.006555
0.175929
-0.00661042
0.178587
-0.0232163
0.17846
-0.0434552
0.174867
-0.0652581
0.167931
-0.0854535
0.158779
-0.101408
0.148977
-0.112276
0.139768
-0.118656
0.131758
-0.121642
0.12501
-0.122124
0.11922
-0.12074
0.114137
-0.11792
0.109642
-0.113529
0.104832
-0.107321
0.0984155
-0.100715
0.0915977
-0.0938677
0.0889814
-0.0813199
0.0944951
-0.053982
0.107695
-0.011356
0.124567
0.0375942
0.141452
0.0820266
0.156113
0.122156
0.167519
0.166774
0.175196
0.21645
0.178287
0.254778
0.176413
0.247175
0.170997
0.179521
0.164763
0.0627255
0.159397
-0.0530432
0.153987
-0.139937
0.149663
-0.187789
0.146121
-0.199185
0.14097
-0.193883
0.13331
-0.17997
0.12782
-0.188293
0.129512
-0.147769
0.137695
-0.0930739
0.147415
0.0296717
0.152435
0.15701
0.152484
0.260017
0.148792
0.335956
0.147441
0.235899
0.151584
0.161382
0.154659
-0.0143065
0.154189
-0.113036
0.151126
-0.193897
0.148397
-0.351978
-0.144016
0.145665
0.00498856
0.144168
0.00693304
0.14381
0.00886668
0.144453
0.0109472
0.146297
0.0130922
0.149356
0.0152262
0.153455
0.0169741
0.158355
0.0178891
0.163738
0.017432
0.169186
0.0150621
0.174248
0.0101778
0.178335
0.00246752
0.180942
-0.00921705
0.181463
-0.0237377
0.179163
-0.0411551
0.173642
-0.0597372
0.165322
-0.0771329
0.155418
-0.0915046
0.14534
-0.102198
0.136098
-0.109414
0.128134
-0.113677
0.121488
-0.115478
0.115929
-0.115181
0.111139
-0.11313
0.107075
-0.109466
0.103395
-0.10364
0.0988267
-0.0961472
0.0931181
-0.088159
0.0894072
-0.077609
0.0922573
-0.0568322
0.102935
-0.0220339
0.118714
0.0218154
0.135781
0.0649593
0.151603
0.106334
0.164859
0.153518
0.174706
0.206603
0.179696
0.249788
0.178796
0.248075
0.173179
0.185137
0.166165
0.0697394
0.159798
-0.0466759
0.153354
-0.133493
0.148054
-0.182488
0.144267
-0.195398
0.139682
-0.189299
0.132451
-0.172739
0.126685
-0.182527
0.127957
-0.149041
0.136082
-0.101199
0.14653
0.0192245
0.152649
0.15089
0.153735
0.258931
0.150356
0.339335
0.148821
0.237434
0.152957
0.157246
0.156217
-0.0175665
0.155795
-0.112614
0.152532
-0.190635
0.149643
-0.349089
-0.142696
0.162902
0.00729145
0.161548
0.00828686
0.160915
0.00950005
0.161018
0.0108442
0.161966
0.0121444
0.163849
0.0133426
0.166497
0.0143257
0.169717
0.0146701
0.173244
0.013905
0.176734
0.0115717
0.179718
0.00719375
0.181618
0.000567911
0.18225
-0.0098492
0.180748
-0.0222357
0.176621
-0.0370287
0.169746
-0.0528614
0.160727
-0.0681145
0.1507
-0.0814773
0.140805
-0.0923027
0.131813
-0.100422
0.124049
-0.105913
0.11755
-0.10898
0.112198
-0.109829
0.107702
-0.108635
0.10395
-0.105713
0.10097
-0.10066
0.0979705
-0.0931481
0.0939013
-0.0840898
0.0901619
-0.0738696
0.0908469
-0.0575172
0.0987338
-0.0299208
0.112596
0.0079533
0.129177
0.0483779
0.145796
0.0897151
0.160855
0.138459
0.173032
0.194427
0.180058
0.242761
0.180131
0.248002
0.174537
0.190732
0.166966
0.0773099
0.159814
-0.0395239
0.152501
-0.12618
0.146289
-0.176276
0.142189
-0.191298
0.138182
-0.185291
0.131475
-0.166032
0.125438
-0.176491
0.126164
-0.149767
0.13409
-0.109125
0.145257
0.00805833
0.152622
0.143525
0.154934
0.256619
0.151995
0.342273
0.150309
0.23912
0.154373
0.153182
0.157802
-0.0209959
0.157435
-0.112246
0.153969
-0.187169
0.150922
-0.346041
-0.141548
0.168238
0.00832857
0.167372
0.00915273
0.166976
0.00989632
0.167162
0.010658
0.167905
0.0114013
0.169203
0.0120445
0.171029
0.0125003
0.173219
0.0124795
0.17552
0.0116039
0.177646
0.00944603
0.179253
0.00558706
0.180101
-0.000280439
0.178974
-0.00872253
0.176058
-0.0193191
0.17091
-0.0318805
0.163629
-0.0455805
0.154832
-0.0593175
0.145427
-0.0720728
0.136247
-0.083122
0.127844
-0.092019
0.12048
-0.0985488
0.114207
-0.102707
0.109007
-0.104629
0.104712
-0.104341
0.101142
-0.102143
0.0984427
-0.0979605
0.0964231
-0.0911285
0.0939501
-0.0816169
0.0909653
-0.0708847
0.0903338
-0.0568858
0.095404
-0.034991
0.10668
-0.00332309
0.121936
0.0331221
0.138454
0.0731976
0.154558
0.122355
0.168795
0.18019
0.178127
0.233429
0.179765
0.246364
0.174754
0.195744
0.167191
0.0848725
0.159387
-0.0317195
0.151424
-0.118217
0.144482
-0.169335
0.140023
-0.186839
0.136534
-0.181802
0.130404
-0.159902
0.124141
-0.170228
0.124233
-0.149858
0.131839
-0.116731
0.143622
-0.00372499
0.152267
0.13488
0.155964
0.252923
0.153654
0.344583
0.151889
0.240885
0.155812
0.149259
0.159392
-0.0245761
0.159079
-0.111932
0.155433
-0.183523
0.152227
-0.342835
-0.140592
0.188775
0.00962484
-0.190072
0.188013
0.00991516
0.187541
0.010368
0.187383
0.0108159
0.187612
0.0111727
0.18829
0.0113661
0.18951
0.0112809
0.191306
0.0106832
0.193654
0.00925626
0.19643
0.00666965
0.199362
0.00265511
0.202245
-0.00316401
0.204476
-0.0109535
0.205685
-0.0205272
0.205382
-0.0315776
0.20331
-0.0435089
0.199524
-0.0555319
0.194313
-0.066861
0.188048
-0.0768569
0.181093
-0.085065
0.173777
-0.0912328
0.166345
-0.0952748
0.159
-0.0972829
0.151861
-0.0972017
0.144873
-0.0951545
0.138101
-0.0911888
0.131752
-0.0847798
0.125256
-0.0751203
0.117717
-0.0633461
0.110233
-0.0494014
0.105957
-0.0307153
0.107414
-0.00477999
0.113117
0.0274191
0.120735
0.0655789
0.127993
0.115098
0.134654
0.173528
0.141293
0.22679
0.149299
0.238358
0.159198
0.185844
0.168157
0.0759138
0.17297
-0.0365327
0.171828
-0.117074
0.166364
-0.163871
0.159843
-0.180318
0.15307
-0.175028
0.144604
-0.151437
0.135705
-0.161329
0.1311
-0.145253
0.131628
-0.117259
0.135138
-0.00723453
0.137269
0.132748
0.137624
0.252569
0.13739
0.344817
0.139712
0.238563
0.146709
0.142261
0.151937
-0.0298038
0.151214
-0.111209
0.146802
-0.179112
0.141091
-0.337123
-0.137461
0.201032
0.0100702
-0.201478
0.200851
0.0100963
0.200932
0.0102872
0.201288
0.0104598
0.201959
0.0105023
0.202991
0.0103333
0.204429
0.00984328
0.206264
0.00884872
0.208416
0.00710419
0.210736
0.00434932
0.213042
0.000348924
0.21504
-0.00516228
0.216323
-0.0122365
0.216559
-0.0207627
0.215454
-0.0304724
0.212854
-0.0409097
0.208799
-0.0514766
0.203482
-0.0615436
0.197192
-0.070567
0.190251
-0.078124
0.182977
-0.0839593
0.175619
-0.087916
0.168343
-0.090007
0.161281
-0.0901398
0.154423
-0.0882965
0.147717
-0.0844827
0.141412
-0.0784751
0.135413
-0.0691215
0.128807
-0.0567399
0.121651
-0.0422461
0.116335
-0.0253984
0.115734
-0.00417959
0.120194
0.0229589
0.127534
0.0582389
0.13549
0.107142
0.143365
0.165653
0.151518
0.218637
0.161374
0.228502
0.172666
0.174553
0.182226
0.0663535
0.18667
-0.0409769
0.184697
-0.115101
0.178096
-0.157271
0.170537
-0.172758
0.163294
-0.167786
0.154596
-0.142738
0.145244
-0.151977
0.139901
-0.13991
0.140049
-0.117408
0.143712
-0.0108969
0.146471
0.129988
0.147717
0.251322
0.148225
0.344309
0.150796
0.235992
0.158071
0.134986
0.163373
-0.0351063
0.162363
-0.110199
0.157122
-0.173871
0.150664
-0.330666