/*--------------------------------*- C++ -*----------------------------------*\
| =========                 |                                                 |
| \\      /  F ield         | OpenFOAM: The Open Source CFD Toolbox           |
|  \\    /   O peration     | Version:  2512                                  |
|   \\  /    A nd           | Website:  www.openfoam.com                      |
|    \\/     M anipulation  |                                                 |
\*---------------------------------------------------------------------------*/
FoamFile
{
    version     2.0;
    format      ascii;
    arch        "LSB;label=32;scalar=64";
    class       surfaceScalarField;
    location    "14.75";
    object      phi;
}
// * * * * * * * * * * * * * * * * * * * * * * * * * * * * * * * * * * * * * //

dimensions      [0 3 -1 0 0 0 0];

oriented        oriented;

internalField   nonuniform List<scalar> 
26232
(
3.34192e-05
0.00100115
-0.00103457
0.000337653
0.00199198
-0.00229621
0.00108094
0.00210945
-0.00285274
0.00241664
0.00139422
-0.00272992
0.0044959
-0.000134557
-0.0019447
0.00747092
-0.00247202
-0.000503
0.0114907
-0.00561828
0.00159852
0.0166912
-0.00956882
0.00436834
0.0231799
-0.0143025
0.00781373
0.0310183
-0.0197716
0.0119332
0.0402046
-0.0258963
0.0167099
0.050662
-0.0325629
0.0221055
0.0622336
-0.0396291
0.0280575
0.0746869
-0.0469322
0.0344788
0.0877275
-0.0543011
0.0412605
0.101019
-0.0615694
0.048278
0.114209
-0.0685875
0.0553972
0.126958
-0.0752348
0.0624855
0.13897
-0.0814232
0.0694121
0.150002
-0.0871205
0.0760878
0.159903
-0.0922851
0.0823839
0.168555
-0.0970694
0.0884175
0.175831
-0.10114
0.0938636
-0.105502
0.099935
0.181398
7.13696e-05
0.000929785
0.000520184
0.00154317
0.00154895
0.00108068
0.00334498
-0.000401805
0.00608928
-0.00287886
0.00995193
-0.00633467
0.0150793
-0.0107457
0.0215741
-0.0160636
0.0294731
-0.0222015
0.0387286
-0.0290271
0.0491983
-0.0363659
0.0606475
-0.0440121
0.0727647
-0.0517463
0.0851877
-0.0593552
0.0975376
-0.0666509
0.109455
-0.0734864
0.120632
-0.0797654
0.130845
-0.0854477
0.139968
-0.0905459
0.147968
-0.0951204
0.154935
-0.0992519
0.160952
-0.103086
0.166384
-0.106572
-0.110335
0.171217
0.000136605
0.000793181
0.000798923
0.000880848
0.00221735
-0.000337747
0.00460506
-0.00278951
0.00815725
-0.00643105
0.0130351
-0.0112125
0.0193408
-0.0170514
0.0270905
-0.0238133
0.036193
-0.031304
0.0464433
-0.0392774
0.057534
-0.0474567
0.0690848
-0.0555629
0.0806839
-0.0633454
0.0919351
-0.0706063
0.102501
-0.0772169
0.112138
-0.0831235
0.120716
-0.0883433
0.12822
-0.0929519
0.134738
-0.0970634
0.140429
-0.100812
0.145496
-0.104318
0.150129
-0.10772
0.154541
-0.110984
-0.114558
0.158764
0.000226522
0.000566659
0.00116487
-5.7497e-05
0.00306312
-0.002236
0.00614411
-0.0058705
0.0105898
-0.0108768
0.016511
-0.0171337
0.0239129
-0.0244533
0.0326706
-0.032571
0.0425252
-0.0411586
0.0531059
-0.0498582
0.0639757
-0.0583264
0.0746891
-0.0662763
0.0848509
-0.0735073
0.0941638
-0.0799192
0.102456
-0.0855091
0.109687
-0.0903546
0.115931
-0.0945876
0.121345
-0.0983654
0.126125
-0.101843
0.130467
-0.105155
0.134548
-0.108399
0.138482
-0.111654
0.142399
-0.114901
-0.11842
0.146261
0.00033749
0.000229169
0.00160286
-0.00132287
0.00404685
-0.00467999
0.00787652
-0.00970016
0.0132215
-0.0162217
0.0200909
-0.0240031
0.0283413
-0.0327037
0.0376727
-0.0419023
0.0476609
-0.0511468
0.0578204
-0.0600177
0.0676796
-0.0681857
0.0768507
-0.0754474
0.0850767
-0.0817332
0.0922497
-0.0870921
0.0983991
-0.0916586
0.103657
-0.0956129
0.108214
-0.0991438
0.112268
-0.10242
0.115999
-0.105574
0.119543
-0.108699
0.122996
-0.111851
0.12641
-0.115068
0.129845
-0.118335
-0.121819
0.133244
0.000466158
-0.000236988
0.00209574
-0.00295244
0.00511992
-0.00770418
0.00969502
-0.0142753
0.0158505
-0.0223772
0.023444
-0.0315966
0.0321513
-0.0414111
0.0415057
-0.0512567
0.0509768
-0.0606179
0.0600661
-0.0691069
0.0683868
-0.0765064
0.0757116
-0.0827722
0.0819794
-0.088001
0.0872669
-0.0923797
0.0917404
-0.096132
0.0956016
-0.0994741
0.0990443
-0.102586
0.102227
-0.105602
0.105264
-0.108611
0.10823
-0.111665
0.111173
-0.114794
0.114114
-0.11801
0.117088
-0.121309
-0.124776
0.120045
0.000609086
-0.000846074
0.00262314
-0.0049665
0.00622348
-0.0113045
0.0114727
-0.0195245
0.0182521
-0.0291566
0.0262355
-0.03958
0.034926
-0.0501016
0.0437499
-0.0600806
0.0521725
-0.0690405
0.0597931
-0.0767275
0.0663949
-0.0831082
0.0719425
-0.0883198
0.0765403
-0.0925988
0.0803729
-0.0962123
0.0836467
-0.0994058
0.0865481
-0.102376
0.0892224
-0.105261
0.0917707
-0.108151
0.0942568
-0.111097
0.0967189
-0.114127
0.0991785
-0.117253
0.101647
-0.120479
0.104137
-0.123799
-0.127253
0.106614
0.000761501
-0.00160757
0.003159
-0.00736399
0.00728651
-0.015432
0.013068
-0.025306
0.0202019
-0.0362904
0.0281799
-0.0475581
0.0363873
-0.0583089
0.0442396
-0.0679329
0.0513
-0.0761009
0.0573376
-0.082765
0.0623204
-0.0880911
0.0663644
-0.0923637
0.0696632
-0.0958977
0.0724263
-0.0989754
0.0748369
-0.101816
0.0770338
-0.104572
0.0791107
-0.107338
0.0811256
-0.110166
0.0831118
-0.113083
0.0850879
-0.116103
0.087064
-0.119229
0.0890456
-0.12246
0.0910393
-0.125793
-0.129235
0.0930213
0.00091626
-0.00252383
0.00367047
-0.0101182
0.00822883
-0.0199904
0.0143396
-0.0314168
0.0215104
-0.0434612
0.0290941
-0.0551418
0.0364444
-0.0656592
0.0430621
-0.0745505
0.0486724
-0.0817113
0.0532232
-0.0873158
0.0568261
-0.091694
0.0596781
-0.0952158
0.0619925
-0.0982121
0.0639541
-0.100937
0.0657009
-0.103563
0.0673245
-0.106196
0.06888
-0.108893
0.0703986
-0.111684
0.0718971
-0.114582
0.073385
-0.117591
0.0748675
-0.120712
0.0763481
-0.123941
0.0778289
-0.127274
-0.130702
0.0792963
0.00106386
-0.00358769
0.00412013
-0.0131745
0.00897031
-0.0248406
0.0151684
-0.0376149
0.0220575
-0.0503503
0.028925
-0.0620092
0.0351828
-0.0719171
0.0404794
-0.0798472
0.0447136
-0.0859455
0.0479753
-0.0905775
0.0504577
-0.0941764
0.0523786
-0.0971367
0.0539291
-0.0997626
0.0552517
-0.10226
0.0564402
-0.104752
0.0575503
-0.107306
0.0586129
-0.109956
0.0596443
-0.112716
0.0606537
-0.115591
0.0616464
-0.118584
0.0626253
-0.121691
0.0635926
-0.124908
0.0645482
-0.12823
-0.13164
0.0654863
0.00119387
-0.00478156
0.00447177
-0.0164524
0.00944428
-0.0298131
0.0154782
-0.0436489
0.021808
-0.05668
0.0277383
-0.0679396
0.0328052
-0.0769839
0.0368235
-0.0838655
0.0398373
-0.0889593
0.0420249
-0.092765
0.0436071
-0.0957586
0.0447848
-0.0983144
0.04571
-0.100688
0.0464835
-0.103033
0.0471646
-0.105433
0.0477859
-0.107927
0.0483642
-0.110534
0.0489087
-0.11326
0.0494248
-0.116107
0.049916
-0.119075
0.0503843
-0.122159
0.0508305
-0.125354
0.0512529
-0.128652
-0.132037
0.0516497
0.00129912
-0.00608068
0.00469891
-0.0198522
0.00960948
-0.0347237
0.0152455
-0.0492849
0.020806
-0.0622405
0.0256834
-0.072817
0.0295674
-0.0808679
0.0324224
-0.0867205
0.0343923
-0.0909292
0.0356944
-0.0940671
0.0365407
-0.0966049
0.0370979
-0.0988715
0.0374782
-0.101068
0.0377484
-0.103303
0.0379448
-0.105629
0.0380856
-0.108068
0.0381805
-0.110629
0.0382349
-0.113315
0.0382527
-0.116125
0.0382368
-0.119059
0.0381891
-0.122111
0.0381101
-0.125275
0.0379979
-0.12854
0.0378538
-0.131893
-0.000388782
0.00042912
-4.0338e-05
-0.00133106
0.00104849
-0.000106212
-0.00270195
0.00152714
-0.000156247
-0.00441701
0.00190522
-0.000190155
-0.00641699
0.00220989
-0.000209916
-0.00866144
0.00246301
-0.000218554
-0.0111242
0.00268194
-0.000219218
-0.0137893
0.00287961
-0.000214509
-0.0166479
0.00306476
-0.000206115
-0.0196956
0.00324241
-0.000194757
-0.0229297
0.00341451
-0.000180352
-0.0263481
0.00358067
-0.000162261
-0.0299475
0.00373886
-0.000139501
-0.0337226
0.00388596
-0.000110864
-0.0376657
0.00401811
-7.50216e-05
-0.0417665
0.00413104
-3.01556e-05
-0.0460115
0.00422042
2.45396e-05
-0.0503852
0.00428194
9.17329e-05
-0.0548704
0.00431211
0.000173146
-0.0594499
0.00430847
0.000270944
-0.0641055
0.00426855
0.000387138
-0.0688195
0.00419037
0.000523619
-0.0735877
0.00408384
0.000684343
0.00398025
-0.0784436
0.000875658
-0.000350816
0.000779936
-0.00121013
0.0019078
-0.00246758
0.00278459
-0.00404554
0.00348318
-0.00588706
0.00405141
-0.00795087
0.00452682
-0.0102078
0.00493881
-0.0126373
0.00530917
-0.0152253
0.00565274
-0.0179611
0.00597822
-0.0208358
0.00628916
-0.0238402
0.0065851
-0.0269639
0.00686257
-0.030194
0.00711603
-0.0335144
0.00733852
-0.0369056
0.00752228
-0.0403444
0.00765922
-0.043804
0.00774152
-0.0472546
0.00776274
-0.0506653
0.0077192
-0.0540068
0.00760996
-0.0572507
0.00743431
-0.0603718
0.00720489
0.00700328
-0.0633948
-0.0002796
0.00105954
-0.00098085
0.00260905
-0.00201925
0.003823
-0.00332945
0.00479337
-0.00485877
0.00558074
-0.00656473
0.00623277
-0.00841295
0.00678703
-0.0103753
0.00727151
-0.012428
0.00770543
-0.0145499
0.00810012
-0.0167208
0.00846012
-0.0189203
0.00878452
-0.0211258
0.00906814
-0.0233125
0.00930274
-0.0254518
0.00947782
-0.027511
0.00958142
-0.0294524
0.00960068
-0.0312335
0.00952259
-0.0328057
0.0093349
-0.0341149
0.00902841
-0.0351057
0.00860084
-0.0357296
0.00805814
-0.0359312
0.00740655
0.00668392
-0.0356119
-0.000188689
0.00124823
-0.000683701
0.00310407
-0.00143148
0.00457077
-0.00238176
0.00574365
-0.00348772
0.0066867
-0.00470619
0.00745124
-0.00599753
0.00807837
-0.00732512
0.00859911
-0.00865471
0.00903501
-0.00995342
0.00939883
-0.0111889
0.00969561
-0.0123283
0.0099239
-0.0133373
0.0100771
-0.0141794
0.0101448
-0.0148151
0.0101135
-0.0152013
0.00996767
-0.0152907
0.00969
-0.0150304
0.00926232
-0.0143614
0.00866586
-0.0132155
0.00788255
-0.0115132
0.00689851
-0.00916762
0.00571259
-0.00610747
0.0043464
0.00288906
-0.00231261
-9.45351e-05
0.00134276
-0.000369047
0.00337858
-0.000798665
0.00500039
-0.00134772
0.0062927
-0.00197572
0.0073147
-0.00264
0.00811552
-0.00329712
0.00873549
-0.00390368
0.00920568
-0.00441663
0.00954796
-0.00479319
0.0097754
-0.00499063
0.00989305
-0.00496581
0.00989908
-0.0046747
0.00978602
-0.00407181
0.00954194
-0.00310967
0.00915141
-0.00173833
0.00859632
9.52997e-05
0.00785637
0.00244808
0.00690954
0.00538159
0.00573235
0.00896515
0.004299
0.0132784
0.00258527
0.0184189
0.000572111
0.0244729
-0.00170761
-0.00439785
0.0317598
-1.28918e-05
0.00135565
-8.61616e-05
0.00345185
-0.000215394
0.00512963
-0.00037561
0.00645292
-0.000531654
0.00747074
-0.000642215
0.00822608
-0.000662153
0.00875543
-0.000544054
0.00908758
-0.000239191
0.0092431
0.000301935
0.00923427
0.00112938
0.0090656
0.0022938
0.00873466
0.00384671
0.00823312
0.00584089
0.00754775
0.00833092
0.00666138
0.0113736
0.00555367
0.0150288
0.00420119
0.0193597
0.00257864
0.0244308
0.000661191
0.0303171
-0.00158725
0.0370887
-0.00418636
0.0448593
-0.00719853
0.0536286
-0.0104769
-0.0147039
0.0639346
4.52016e-05
0.00131045
0.000127254
0.0033698
0.000243491
0.00501339
0.000414381
0.00628203
0.000672336
0.00721279
0.00105758
0.00784083
0.00161575
0.00819726
0.00239623
0.0083071
0.00345111
0.00818822
0.00483453
0.00785085
0.00660237
0.00729776
0.00881226
0.00652477
0.0115238
0.00552159
0.0147989
0.00427265
0.0187032
0.00275711
0.0233039
0.000952937
0.0286739
-0.00116883
0.0348887
-0.00363617
0.0420267
-0.00647678
0.0501639
-0.00972442
0.0593599
-0.0133824
0.0697447
-0.0175833
0.0811611
-0.0218934
-0.0278815
0.0943388
7.41006e-05
0.00123635
0.00025273
0.00319117
0.000539444
0.00472667
0.000957919
0.00586355
0.00154218
0.00662853
0.00233365
0.00704937
0.00337962
0.00715129
0.00473232
0.0069544
0.00644833
0.0064722
0.00858835
0.00571083
0.0112171
0.00466898
0.0144037
0.00333821
0.0182214
0.00170384
0.0227462
-0.00025206
0.0280632
-0.00255993
0.0342561
-0.00523999
0.0414097
-0.00832236
0.0496066
-0.0118331
0.058923
-0.0157931
0.0694255
-0.0202269
0.0811364
-0.0250933
0.0941497
-0.0305967
0.108192
-0.0359352
-0.0435555
0.123866
7.60857e-05
0.00116027
0.000295074
0.00297218
0.000679579
0.00434217
0.0012644
0.00527873
0.00209113
0.0058018
0.00320742
0.00593308
0.0046672
0.0056915
0.00653096
0.00509064
0.00886601
0.00413715
0.0117467
0.00283014
0.0152542
0.00116148
0.019476
-0.000883635
0.0245051
-0.00332518
0.0304382
-0.00618521
0.0373662
-0.00948788
0.0453794
-0.0132532
0.0545536
-0.0174966
0.0649455
-0.0222251
0.0765841
-0.0274317
0.0894647
-0.0331075
0.10353
-0.0391585
0.118711
-0.0457781
0.134779
-0.0520028
-0.0605456
0.151769
5.97698e-05
0.0011005
0.000281436
0.00275051
0.000716566
0.00390704
0.00141892
0.00457637
0.00244526
0.00477546
0.00385759
0.00452075
0.00572523
0.00382386
0.00812623
0.00268964
0.011148
0.00111543
0.0148863
-0.000908211
0.0194439
-0.00339609
0.0249258
-0.00636551
0.031434
-0.00983338
0.0390609
-0.0138122
0.0478795
-0.0183064
0.0579357
-0.0233094
0.0692393
-0.0288001
0.0817565
-0.0347423
0.0954051
-0.0410804
0.110051
-0.0477531
0.125519
-0.0546267
0.141525
-0.0617844
0.157949
-0.0684267
-0.0766517
0.174055
3.85626e-05
0.00106193
0.000255175
0.0025339
0.000736704
0.00342551
0.0015632
0.00374988
0.00281521
0.00352345
0.00457866
0.00275731
0.00694788
0.00145464
0.0100265
-0.000388985
0.0139264
-0.00278447
0.0187624
-0.00574424
0.0246458
-0.00927945
0.0316744
-0.0133942
0.0399217
-0.0180807
0.0494252
-0.0233156
0.060176
-0.0290573
0.0721118
-0.0352452
0.0851122
-0.0418005
0.0990003
-0.0486304
0.113547
-0.0556268
0.128487
-0.0626938
0.143543
-0.0696826
0.158383
-0.0766238
0.172938
-0.0829816
-0.0899012
0.186187
2.73588e-05
0.000265043
0.000837811
0.00185777
0.00343652
0.00569083
0.00874398
0.0127233
0.0177526
0.0239416
0.0313721
0.0400835
0.0500603
0.0612235
0.0734267
0.0864595
0.100056
0.113911
0.127697
0.141091
0.153792
0.165586
0.176468
0.186502
-0.0811193
0.00114829
0.00152738
-0.082999
-7.42337e-05
0.00195391
-0.0841051
-0.00125697
0.00236307
-0.084277
-0.00260024
0.00277212
-0.0833903
-0.0040416
0.0031549
-0.0813091
-0.00556109
0.00347997
-0.0779096
-0.00710456
0.00370499
-0.073115
-0.00864018
0.0038456
-0.0668353
-0.0100857
0.00380605
-0.0590019
-0.0113581
0.00352471
-0.0496042
-0.012369
0.00297132
-0.0386971
-0.0130261
0.002119
-0.0263452
-0.0132927
0.000940857
-0.0128358
-0.013002
-0.000507505
0.00161692
-0.0123005
-0.00215218
0.0166191
-0.0110817
-0.00392047
0.0318119
-0.00950846
-0.00568428
0.0468173
-0.00768722
-0.00731825
0.0612856
-0.00575007
-0.00871821
0.0749385
-0.00383429
-0.00981858
0.0875915
-0.00205643
-0.0105966
0.0991289
-0.000457694
-0.0110797
0.109529
0.000903444
-0.0113037
0.11881
0.00205477
-0.0113357
0.127039
0.00300512
-0.0112337
0.134307
0.00378362
-0.0110518
0.140715
0.00442603
-0.0108341
0.14637
0.00496507
-0.0106197
0.15138
0.00542094
-0.0104314
0.155836
0.00583521
-0.0102916
0.15982
0.00623669
-0.0102206
0.163398
0.0066478
-0.0102258
0.166632
0.00706256
-0.0102959
0.16955
0.00753073
-0.010449
0.172169
0.00805738
-0.010676
0.174482
0.00867045
-0.0109833
0.176475
0.00934665
-0.0113405
0.178142
0.010105
-0.0117713
0.179487
0.0108566
-0.0122021
0.180533
0.011726
-0.0127716
0.181315
0.0124996
-0.0132821
0.18187
0.0135875
-0.0141423
0.18224
0.0143877
-0.0147577
0.182451
0.0159006
-0.016112
0.18254
0.0166663
-0.0167553
0.18252
0.0187865
-0.0187663
0.182418
0.0194242
-0.0193218
0.182241
0.022243
-0.0220664
0.182004
0.0228074
-0.0225706
0.181717
0.0263002
-0.0260128
0.181383
0.0269805
-0.0266462
0.181007
0.0312193
-0.0308435
0.180597
0.032001
-0.0315913
0.180148
0.0374135
-0.0369644
0.17967
0.0381251
-0.0376473
0.179161
0.0450359
-0.0445267
0.178622
0.0459557
-0.0454167
0.178054
0.0544168
-0.0538493
0.177463
0.0557874
-0.0551964
0.0662552
-0.0656341
-0.0657555
0.00350898
-0.0674979
0.00166814
-0.0683811
-0.00037373
-0.0684686
-0.00251271
-0.0676073
-0.00490293
-0.0656686
-0.00749984
-0.0625504
-0.0102227
-0.0581537
-0.0130369
-0.052393
-0.0158464
-0.0452065
-0.0185446
-0.0365782
-0.0209973
-0.026587
-0.0230173
-0.015166
-0.0247137
-0.00267504
-0.0254929
0.0105474
-0.025523
0.0243552
-0.0248895
0.0383795
-0.0235328
0.0522606
-0.0215683
0.0656835
-0.0191729
0.0783986
-0.0165494
0.0902363
-0.0138941
0.10111
-0.0113312
0.110957
-0.00894391
0.119796
-0.00678366
0.127675
-0.00487415
0.134672
-0.00321348
0.140874
-0.00177606
0.146364
-0.000524492
0.151253
0.00053174
0.155621
0.00146737
0.15954
0.0023172
0.163071
0.00311746
0.166281
0.0038522
0.169191
0.00462066
0.171818
0.0054305
0.174152
0.00633672
0.176175
0.00732287
0.177876
0.00840452
0.179256
0.00947689
0.180333
0.0106485
0.181144
0.0116884
0.181725
0.0130069
0.182119
0.0139935
0.182353
0.0156666
0.182464
0.0165552
0.182465
0.0187858
0.182384
0.0195056
0.182226
0.0224001
0.18201
0.0230236
0.181741
0.0265696
0.181426
0.0272951
0.181067
0.0315781
0.180676
0.0323924
0.180242
0.0378473
0.179781
0.0385863
0.179284
0.0455328
0.178759
0.046481
0.178199
0.0549765
0.177616
0.05637
0.0668754
-0.037174
0.0050711
-0.0383084
0.00280258
-0.0387676
8.54642e-05
-0.0385644
-0.00271589
-0.0375637
-0.00590371
-0.0356554
-0.00940808
-0.0327395
-0.0131386
-0.0287311
-0.0170454
-0.0235458
-0.0210317
-0.0171204
-0.02497
-0.00941357
-0.0287042
-0.000396191
-0.0320347
0.00933039
-0.0344403
0.0201109
-0.0362734
0.0316783
-0.0370903
0.0436849
-0.0368961
0.0558306
-0.0356785
0.0678166
-0.0335542
0.0793777
-0.030734
0.0903083
-0.02748
0.100474
-0.0240601
0.109812
-0.020669
0.118284
-0.017416
0.125905
-0.0144043
0.132717
-0.0116865
0.138784
-0.0092801
0.144181
-0.00717374
0.149001
-0.00534364
0.153295
-0.00376248
0.157145
-0.00238273
0.160619
-0.00115704
0.163749
-1.2515e-05
0.166635
0.000966813
0.169269
0.00198647
0.171676
0.00302293
0.17384
0.00417311
0.175742
0.00542087
0.177363
0.00678352
0.178698
0.00814214
0.179757
0.00958964
0.180569
0.0108764
0.181164
0.0124115
0.181583
0.0135747
0.181848
0.0154014
0.181995
0.0164082
0.182034
0.0187469
0.181994
0.0195459
0.181877
0.0225164
0.181704
0.0231966
0.181477
0.026797
0.181207
0.0275654
0.180891
0.0318941
0.180544
0.032739
0.180153
0.0382385
0.179737
0.0390027
0.179281
0.0459886
0.178799
0.0469628
0.178278
0.0554975
0.177736
0.0569121
0.0674616
-0.00231472
0.00507321
-0.00264456
0.00313242
-0.00257616
1.70686e-05
-0.00196374
-0.00332831
-0.000744875
-0.00712257
0.00109606
-0.011249
0.00368339
-0.0157259
0.00713224
-0.0204942
0.0115254
-0.0254249
0.0169165
-0.0303611
0.0233151
-0.0351028
0.0306582
-0.0393778
0.039041
-0.042823
0.0481385
-0.045371
0.0577948
-0.0467466
0.0677521
-0.0468534
0.0777573
-0.0456837
0.0875678
-0.0433648
0.0969766
-0.0401428
0.105827
-0.0363305
0.114019
-0.0322523
0.121519
-0.0281683
0.128316
-0.0242135
0.134427
-0.0205148
0.139891
-0.0171505
0.144762
-0.0141512
0.149105
-0.0115169
0.15298
-0.00921913
0.156447
-0.0072292
0.159564
-0.00549971
0.162386
-0.00397902
0.164988
-0.00261405
0.167354
-0.00139976
0.169534
-0.000192997
0.171573
0.000983468
0.173437
0.00230962
0.175108
0.00374919
0.176565
0.00532635
0.177795
0.00691296
0.178796
0.00858864
0.179587
0.0100852
0.180189
0.0118097
0.180634
0.0131296
0.180939
0.0150963
0.181136
0.0162114
0.18123
0.0186525
0.18125
0.0195258
0.181196
0.0225705
0.181089
0.0233038
0.180927
0.0269588
0.180726
0.0277667
0.180478
0.0321421
0.180202
0.0330145
0.179881
0.0385599
0.179537
0.0393463
0.179152
0.046374
0.178743
0.0473711
0.178292
0.0559486
0.177823
0.057382
0.0679807
0.0321951
0.00463792
0.0328418
0.00248566
0.0334995
-0.000640631
0.0344305
-0.00425927
0.0356741
-0.00836622
0.0373742
-0.0129491
0.0396406
-0.0179923
0.0425446
-0.0233982
0.046159
-0.0290393
0.0505374
-0.0347395
0.0556904
-0.0402558
0.0615939
-0.0452813
0.0682356
-0.0494648
0.0754246
-0.0525599
0.0829972
-0.0543193
0.0907591
-0.0546153
0.0985165
-0.053441
0.106091
-0.0509391
0.113336
-0.0473882
0.120144
-0.0431384
0.126444
-0.0385522
0.132212
-0.0339361
0.137458
-0.02946
0.142187
-0.0252434
0.146426
-0.0213895
0.150213
-0.0179385
0.153592
-0.0148961
0.15661
-0.0122373
0.159313
-0.00993162
0.161746
-0.00793263
0.163952
-0.0061849
0.165973
-0.00463548
0.167831
-0.00325814
0.169586
-0.00194737
0.171202
-0.000632392
0.172732
0.000779151
0.174138
0.00234369
0.175399
0.0040651
0.176498
0.00581391
0.177425
0.0076614
0.178188
0.00932237
0.178796
0.0112017
0.179273
0.0126522
0.179629
0.0147407
0.17989
0.0159507
0.180057
0.0184858
0.180156
0.0194261
0.180185
0.0225417
0.180166
0.0233231
0.180093
0.0270318
0.179984
0.0278749
0.17983
0.0322968
0.179651
0.0331931
0.179427
0.0387844
0.179184
0.0395893
0.178897
0.0466603
0.178592
0.0476763
0.178242
0.0562989
0.177876
0.0577478
0.0683994
0.0648853
0.00368722
0.0660042
0.00136679
0.0671473
-0.00178377
0.068348
-0.00545991
0.0696548
-0.00967306
0.0711881
-0.0144824
0.0730313
-0.0198356
0.0752616
-0.0256285
0.0779578
-0.0317354
0.0811749
-0.0379566
0.0849286
-0.0440095
0.0892033
-0.049556
0.0939573
-0.0542189
0.099068
-0.0576706
0.104409
-0.0596601
0.109856
-0.0600624
0.115295
-0.0588801
0.120627
-0.0562706
0.125773
-0.0525349
0.130676
-0.0480411
0.135286
-0.0431624
0.139575
-0.0382249
0.14355
-0.033435
0.147198
-0.0288908
0.150514
-0.0247057
0.15351
-0.0209347
0.156204
-0.0175902
0.158622
-0.014655
0.16079
-0.0121001
0.162739
-0.009882
0.1645
-0.0079459
0.166106
-0.00624123
0.16758
-0.00473213
0.168959
-0.00332612
0.170274
-0.00194774
0.171504
-0.000450601
0.172681
0.00116714
0.173768
0.00297785
0.17475
0.00483138
0.175614
0.00679765
0.176358
0.00857849
0.176982
0.0105773
0.177504
0.0121309
0.177923
0.0143212
0.178263
0.0156105
0.17852
0.0182293
0.178718
0.0192279
0.17885
0.0224096
0.17894
0.023233
0.178979
0.0269932
0.178987
0.0278666
0.178951
0.0323334
0.178894
0.0332494
0.178793
0.0388855
0.178678
0.0397046
0.178519
0.0468189
0.178346
0.0478492
0.178127
0.0565179
0.177897
0.0579784
0.0686851
0.0953549
0.00267107
0.0965164
0.000205314
0.0977279
-0.0029953
0.098909
-0.00664101
0.100093
-0.0108566
0.10135
-0.0157398
0.102714
-0.0211993
0.10421
-0.0271246
0.105878
-0.0334033
0.107764
-0.0398431
0.10992
-0.0461656
0.112359
-0.0519949
0.115055
-0.0569151
0.117945
-0.0605602
0.12096
-0.0626755
0.124057
-0.063159
0.127208
-0.0620314
0.130396
-0.0594585
0.133607
-0.055746
0.136823
-0.0512563
0.140005
-0.0463448
0.143109
-0.0413294
0.146112
-0.0364372
0.148987
-0.0317662
0.151686
-0.0274048
0.154186
-0.0234351
0.156477
-0.0198813
0.158559
-0.0167366
0.160439
-0.01398
0.162132
-0.0115747
0.163656
-0.00947059
0.165035
-0.00762008
0.166289
-0.00598605
0.167453
-0.00449028
0.16855
-0.00304458
0.169618
-0.00151802
0.170626
0.0001583
0.171599
0.0020055
0.172506
0.00392407
0.173337
0.00596685
0.174085
0.00783007
0.174745
0.00991762
0.175327
0.0115488
0.175827
0.0138214
0.176263
0.0151741
0.176627
0.0178656
0.176943
0.0189122
0.177198
0.0221542
0.177418
0.0230124
0.177591
0.0268208
0.177739
0.0277186
0.177844
0.0322279
0.177935
0.0331584
0.177983
0.0388373
0.178023
0.0396653
0.17802
0.0468219
0.178007
0.0478614
0.17795
0.0565754
0.177885
0.058043
0.0688051
0.124365
0.00217173
0.12509
-0.000519551
0.125831
-0.00373672
0.126491
-0.00730125
0.127115
-0.0114801
0.127721
-0.0163455
0.128282
-0.0217609
0.128793
-0.0276357
0.129264
-0.0338741
0.129699
-0.0402776
0.1301
-0.0465668
0.130512
-0.0524065
0.131009
-0.0574129
0.131609
-0.0611597
0.132322
-0.0633882
0.133185
-0.0640224
0.13425
-0.0630964
0.135561
-0.0607699
0.137146
-0.0573305
0.139
-0.0531102
0.141081
-0.0484264
0.143319
-0.0435675
0.145644
-0.0387618
0.14801
-0.0341322
0.150337
-0.0297316
0.152564
-0.0256627
0.154657
-0.0219738
0.156593
-0.018673
0.158365
-0.0157511
0.159971
-0.0131812
0.161421
-0.0109206
0.162728
-0.00892671
0.163907
-0.00716532
0.164988
-0.00557163
0.166004
-0.00405982
0.166983
-0.00249697
0.167933
-0.000792509
0.168853
0.001086
0.16974
0.00303668
0.17058
0.00512751
0.171364
0.00704525
0.172085
0.00919744
0.172749
0.0108847
0.173347
0.0132227
0.173898
0.0146234
0.174387
0.0173765
0.174839
0.0184605
0.175237
0.021756
0.175609
0.0226412
0.175936
0.0264933
0.176246
0.0274089
0.176517
0.031957
0.176779
0.0328963
0.177002
0.0386145
0.177221
0.0394458
0.177401
0.0466419
0.177578
0.0476849
0.177711
0.0564419
0.177842
0.0579118
0.0687277
0.151266
0.00267474
0.151138
-0.000391855
0.150888
-0.00348666
0.150535
-0.00694772
0.150144
-0.0110892
0.149669
-0.0158709
0.149043
-0.0211344
0.148241
-0.0268342
0.147255
-0.0328881
0.146075
-0.0390974
0.144702
-0.0451936
0.143164
-0.0508688
0.141537
-0.0557858
0.139982
-0.0596052
0.138622
-0.0620279
0.137572
-0.0629719
0.136936
-0.0624609
0.136789
-0.0606232
0.137166
-0.0577066
0.138048
-0.0539928
0.139374
-0.0497522
0.141043
-0.0452364
0.142945
-0.0406639
0.144997
-0.0361846
0.14712
-0.0318546
0.149221
-0.0277639
0.151241
-0.023993
0.153142
-0.0205744
0.154906
-0.0175149
0.156524
-0.0147991
0.157996
-0.0123926
0.159328
-0.0102588
0.160531
-0.00836811
0.161627
-0.00666834
0.162651
-0.0050837
0.163629
-0.00347487
0.164598
-0.00176133
0.165529
0.000154822
0.166451
0.00211436
0.167342
0.00423648
0.168198
0.0061896
0.169007
0.00838893
0.169776
0.0101151
0.170494
0.0125045
0.171179
0.0139391
0.171811
0.0167436
0.172418
0.0178542
0.172978
0.0211958
0.17352
0.0220994
0.174023
0.0259897
0.174516
0.0269161
0.174975
0.0314981
0.175432
0.0324397
0.175853
0.0381926
0.176278
0.039021
0.176668
0.0462524
0.17706
0.0472929
0.177413
0.0560888
0.177769
0.0575557
0.0684216
0.172765
0.00396504
0.171647
0.000726139
0.170284
-0.00212402
0.168781
-0.00544478
0.167206
-0.00951371
0.165465
-0.0141302
0.1635
-0.0191686
0.161288
-0.0246223
0.158808
-0.030409
0.156053
-0.0363423
0.153042
-0.0421819
0.149829
-0.0476564
0.146511
-0.0524673
0.143258
-0.0563523
0.14031
-0.0590795
0.137856
-0.0605178
0.136031
-0.0606367
0.134912
-0.0595041
0.134514
-0.0573087
0.134794
-0.0542724
0.135661
-0.050619
0.136993
-0.0465687
0.138656
-0.042327
0.140529
-0.0380579
0.142541
-0.0338661
0.144602
-0.0298246
0.146628
-0.0260193
0.148564
-0.0225101
0.150379
-0.0193308
0.152062
-0.0164819
0.153609
-0.013939
0.15502
-0.0116705
0.156304
-0.00965194
0.157478
-0.00784179
0.158571
-0.00617659
0.159618
-0.00452188
0.160644
-0.00278814
0.161655
-0.000855981
0.162651
0.00111878
0.163635
0.00325207
0.164595
0.00522951
0.16552
0.00746415
0.166419
0.00921602
0.167278
0.0116458
0.168115
0.0131018
0.168911
0.0159482
0.16969
0.0170746
0.170431
0.0204547
0.171162
0.0213682
0.171862
0.0252901
0.172559
0.0262197
0.173227
0.0308296
0.1739
0.0317664
0.174545
0.0375482
0.175199
0.0383668
0.175823
0.0456279
0.176457
0.0466594
0.177057
0.0554884
0.177666
0.0569468
0.0678566
0.184787
0.00536524
0.182875
0.00263807
0.180841
-9.0184e-05
0.178569
-0.00317249
0.176104
-0.00704876
0.173376
-0.0114021
0.170362
-0.0161551
0.167044
-0.0213043
0.163407
-0.0267714
0.159462
-0.0323973
0.155255
-0.037975
0.150868
-0.0432696
0.146432
-0.0480316
0.142118
-0.0520377
0.138198
-0.0551602
0.134913
-0.0572328
0.132402
-0.0581251
0.130727
-0.0578293
0.129891
-0.0564725
0.129831
-0.0542124
0.130439
-0.0512274
0.131584
-0.0477133
0.133123
-0.0438661
0.134927
-0.0398622
0.136894
-0.0358329
0.138947
-0.0318775
0.141017
-0.0280894
0.143031
-0.0245238
0.144944
-0.0212439
0.146735
-0.018273
0.148397
-0.0156008
0.149929
-0.0132026
0.151335
-0.011058
0.152628
-0.00913519
0.153836
-0.00738419
0.154993
-0.00567912
0.156124
-0.00391926
0.157257
-0.001989
0.158358
1.75219e-05
0.159472
0.0021385
0.160567
0.00413437
0.161635
0.00639647
0.162687
0.00816344
0.163708
0.0106251
0.164719
0.0120913
0.165696
0.0149712
0.166667
0.0161033
0.167608
0.0195142
0.168547
0.0204286
0.169462
0.0243749
0.170382
0.0252997
0.171281
0.0299306
0.172193
0.030855
0.173082
0.0366586
0.173989
0.0374603
0.174873
0.0447437
0.175773
0.0457597
0.176647
0.0546139
0.177536
0.0560584
0.0670033
0.185438
0.00642874
0.18352
0.00455622
0.181329
0.00210109
0.179148
-0.0009919
0.176483
-0.00438412
0.173448
-0.0083667
0.170058
-0.0127653
0.166301
-0.0175473
0.162185
-0.0226552
0.157757
-0.0279689
0.153102
-0.0333199
0.148341
-0.0385089
0.143632
-0.0433231
0.139142
-0.0475471
0.135004
-0.0510227
0.131377
-0.053605
0.128431
-0.0551794
0.126326
-0.0557249
0.125091
-0.0552376
0.124669
-0.0537895
0.124959
-0.0515176
0.125838
-0.0485927
0.127172
-0.0451999
0.128831
-0.0415211
0.13071
-0.0377116
0.13272
-0.0338879
0.134778
-0.0301471
0.136823
-0.0265688
0.138806
-0.0232273
0.140697
-0.0201639
0.14248
-0.0173838
0.144148
-0.0148704
0.145699
-0.0126091
0.147141
-0.010577
0.148496
-0.00873908
0.149796
-0.00697944
0.151075
-0.00519839
0.152344
-0.00325794
0.153616
-0.00125458
0.15487
0.000884964
0.156126
0.00287798
0.157361
0.00516158
0.15859
0.00693417
0.159794
0.0094211
0.160999
0.0108868
0.162177
0.0137934
0.163359
0.0149209
0.164518
0.0183552
0.165684
0.019262
0.166834
0.0232248
0.167997
0.024137
0.169147
0.0287807
0.170317
0.0296851
0.171473
0.0355022
0.172654
0.0362796
0.173821
0.0435763
0.175011
0.0445702
0.176185
0.0534398
0.177378
0.0548651
0.0658336
0.205195
0.00727291
-0.20604
0.204949
0.00480275
0.204605
0.00244538
0.203993
-0.000380585
0.203432
-0.00382293
0.202647
-0.00758155
0.201613
-0.0117316
0.200277
-0.0162107
0.198567
-0.0209451
0.196437
-0.0258395
0.193877
-0.0307599
0.190907
-0.0355387
0.187581
-0.0399969
0.183987
-0.0439529
0.180221
-0.0472572
0.176398
-0.049782
0.17264
-0.0514218
0.169056
-0.0521406
0.165755
-0.0519364
0.162822
-0.0508566
0.160312
-0.0490076
0.158249
-0.0465299
0.156628
-0.0435789
0.155419
-0.0403116
0.154575
-0.0368676
0.154046
-0.0333589
0.15378
-0.029882
0.153729
-0.026517
0.153836
-0.0233346
0.154053
-0.0203808
0.154337
-0.0176683
0.154655
-0.0151881
0.154979
-0.0129329
0.15529
-0.0108879
0.155579
-0.00902804
0.155847
-0.00724799
0.156105
-0.00545612
0.15636
-0.00351288
0.156634
-0.00152918
0.1569
0.000619298
0.157177
0.00260101
0.157462
0.0048766
0.157749
0.00664726
0.158034
0.00913621
0.158312
0.0106082
0.15858
0.0135258
0.15884
0.014661
0.159082
0.0181136
0.159319
0.0190247
0.159535
0.023009
0.159749
0.0239225
0.159946
0.0285842
0.160143
0.029488
0.160325
0.0353197
0.160515
0.0360895
0.160691
0.0434011
0.16088
0.0443806
0.161058
0.0532615
0.161255
0.0546681
0.0656443
0.216221
0.00759463
-0.216543
0.215916
0.00510779
0.215739
0.0026217
0.215489
-0.000130435
0.214956
-0.00328913
0.214178
-0.00680364
0.213095
-0.0106488
0.211663
-0.0147789
0.209842
-0.0191241
0.207606
-0.0236032
0.204954
-0.0281085
0.201917
-0.0325012
0.198548
-0.0366286
0.19493
-0.0403346
0.191154
-0.0434807
0.187323
-0.0459516
0.183554
-0.0476528
0.179951
-0.0485375
0.176611
-0.0485963
0.173614
-0.0478595
0.171012
-0.0464061
0.168832
-0.0443491
0.167071
-0.0418185
0.165708
-0.0389486