/*--------------------------------*- C++ -*----------------------------------*\
| =========                 |                                                 |
| \\      /  F ield         | OpenFOAM: The Open Source CFD Toolbox           |
|  \\    /   O peration     | Version:  2512                                  |
|   \\  /    A nd           | Website:  www.openfoam.com                      |
|    \\/     M anipulation  |                                                 |
\*---------------------------------------------------------------------------*/
FoamFile
{
    version     2.0;
    format      ascii;
    arch        "LSB;label=32;scalar=64";
    class       volVectorField;
    location    "102.25";
    object      U;
}
// * * * * * * * * * * * * * * * * * * * * * * * * * * * * * * * * * * * * * //

dimensions      [0 1 -1 0 0 0 0];

internalField   nonuniform List<vector> 
13248
(
(-0.0111796 0.0108775 7.98633e-20)
(-0.0167914 0.0199279 0)
(-0.0074281 0.0213663 -1.51749e-19)
(0.0152898 0.0177654 1.42949e-19)
(0.0504992 0.0112 1.34466e-19)
(0.0976769 0.00328663 0)
(0.156312 -0.00478538 0)
(0.225662 -0.0121493 3.25781e-19)
(0.304545 -0.0181767 -2.62673e-21)
(0.391216 -0.0224319 -2.82597e-19)
(0.483356 -0.0246543 2.57038e-19)
(0.578174 -0.0247519 -1.60415e-19)
(0.672621 -0.0227943 0)
(0.763642 -0.018995 -2.56651e-19)
(0.848453 -0.0136815 4.71546e-19)
(0.924766 -0.00725556 -1.11656e-19)
(0.990953 -0.000146497 -1.82992e-19)
(1.04612 0.00722212 1.71791e-19)
(1.09011 0.0145087 0)
(1.1234 0.0213098 0)
(1.14711 0.0277415 0)
(1.16211 0.0326395 0)
(1.17149 0.0383579 4.32641e-20)
(1.17316 0.0388825 1.45687e-19)
(-0.00999812 0.00887178 -2.41221e-19)
(-0.010446 0.014934 1.64686e-19)
(0.0074805 0.0149233 -1.07441e-21)
(0.0418725 0.0110336 -2.18144e-19)
(0.0915454 0.00517416 -1.34318e-19)
(0.155519 -0.00108166 -1.26933e-19)
(0.232573 -0.00657134 -2.3394e-19)
(0.320961 -0.0104849 2.20605e-19)
(0.418232 -0.0123167 0)
(0.521209 -0.0118448 1.96431e-21)
(0.626159 -0.0091116 3.91061e-21)
(0.729109 -0.00439048 1.59465e-19)
(0.826239 0.00186936 0)
(0.914261 0.00911472 0)
(0.990715 0.0167669 1.69289e-19)
(1.05414 0.0242941 -3.17675e-19)
(1.10411 0.031267 1.79854e-19)
(1.14113 0.0373891 -1.68857e-19)
(1.16649 0.0425124 -7.17639e-20)
(1.18199 0.0465852 -1.23699e-19)
(1.18962 0.0497911 -4.83066e-20)
(1.19163 0.0518402 -8.86896e-20)
(1.18963 0.0543385 1.35831e-19)
(1.18488 0.0528079 3.78444e-20)
(-0.00773023 0.00646035 0)
(-0.000448855 0.00882895 0)
(0.0288021 0.00708781 7.72035e-20)
(0.0777103 0.00310581 7.14591e-20)
(0.144569 -0.00137895 -1.41247e-21)
(0.227585 -0.00489395 -1.29857e-19)
(0.324329 -0.00642819 0)
(0.431479 -0.00541987 -1.09563e-19)
(0.544809 -0.00172647 1.01686e-19)
(0.659445 0.00441146 -9.2099e-23)
(0.770342 0.0124423 -1.71003e-19)
(0.872848 0.0216144 -1.53098e-19)
(0.963224 0.0311087 5.45002e-21)
(1.03899 0.0401658 -1.1883e-19)
(1.09908 0.0481866 2.91103e-19)
(1.14375 0.0547891 0)
(1.17438 0.0598217 -1.76224e-19)
(1.1931 0.0633326 8.60699e-20)
(1.20243 0.0655279 7.17006e-20)
(1.20491 0.0666611 0)
(1.20292 0.0671296 5.56804e-20)
(1.19827 0.0668782 -1.88672e-19)
(1.19233 0.0671002 1.7711e-19)
(1.18633 0.0645178 1.07427e-19)
(-0.00411454 0.00380712 -8.47814e-20)
(0.0139768 0.00224534 -8.74707e-20)
(0.0577745 -0.000947995 7.95713e-20)
(0.124291 -0.00426959 0)
(0.210894 -0.00622582 0)
(0.314412 -0.00558407 -1.88753e-21)
(0.430553 -0.00171114 0)
(0.553877 0.00541849 -3.29837e-19)
(0.678169 0.0152968 3.05094e-19)
(0.797128 0.0270123 -3.7522e-19)
(0.905173 0.0394391 8.52036e-20)
(0.998115 0.051451 0)
(1.07356 0.0621079 1.36033e-19)
(1.13096 0.0707786 -2.4969e-19)
(1.1714 0.0771835 5.93224e-20)
(1.19715 0.0813652 1.44675e-19)
(1.21112 0.083606 -9.92872e-21)
(1.21639 0.0843247 -1.59603e-19)
(1.21579 0.0839751 0)
(1.21163 0.0829594 0)
(1.20565 0.0816473 -5.34766e-20)
(1.19895 0.0800285 4.71955e-20)
(1.19229 0.0790425 1.63317e-19)
(1.18577 0.0756519 -1.53333e-19)
(0.00120249 0.0010493 -8.86154e-20)
(0.0336633 -0.00419283 -8.85131e-20)
(0.0954639 -0.00797114 2.49216e-19)
(0.182515 -0.00932095 -1.5173e-19)
(0.290643 -0.00718399 1.42818e-19)
(0.41457 -0.000828584 2.60076e-19)
(0.547536 0.00966701 -1.83135e-19)
(0.681777 0.0234649 -2.20755e-19)
(0.809494 0.0391956 5.74392e-21)
(0.923971 0.0552631 2.81839e-19)
(1.02047 0.0701674 0)
(1.09666 0.0827626 7.54665e-20)
(1.15259 0.0923973 0)
(1.19015 0.0989232 -1.19248e-19)
(1.21249 0.102601 1.6716e-19)
(1.22321 0.103951 1.28774e-21)
(1.22579 0.103592 -4.24412e-20)
(1.2232 0.102114 7.73683e-20)
(1.21768 0.100002 6.6555e-20)
(1.21077 0.0975986 -5.8847e-20)
(1.20343 0.0951323 5.3463e-20)
(1.19619 0.0926148 -4.71832e-20)
(1.18927 0.0905611 0)
(1.18286 0.0866946 -3.57352e-20)
(0.00861092 -0.00164135 8.86028e-20)
(0.0593544 -0.00978781 9.25372e-20)
(0.142516 -0.0127183 -8.33821e-20)
(0.252339 -0.0103314 1.55136e-19)
(0.382348 -0.0023478 -1.46017e-19)
(0.524465 0.0110692 1.31914e-19)
(0.669214 0.0287479 -6.31588e-20)
(0.806986 0.0487566 1.65908e-19)
(0.92959 0.0688931 -1.0382e-19)
(1.03147 0.0871691 1.81398e-19)
(1.11024 0.102165 -4.16552e-19)
(1.16641 0.113186 1.52098e-19)
(1.20272 0.120217 -1.3062e-19)
(1.2231 0.123748 1.22693e-19)
(1.2318 0.124536 1.03406e-19)
(1.23267 0.123391 8.89188e-20)
(1.22877 0.121032 -2.47488e-19)
(1.22233 0.118008 1.52702e-19)
(1.21477 0.114692 -6.65565e-20)
(1.20693 0.111311 1.71401e-19)
(1.19928 0.107982 -5.53822e-20)
(1.19202 0.104721 -1.32172e-19)
(1.18522 0.101793 1.21572e-19)
(1.17888 0.0975959 3.57238e-20)
(0.0184649 -0.0040136 0)
(0.0915389 -0.0137109 5.68828e-22)
(0.19893 -0.0138724 1.72667e-19)
(0.33256 -0.00573365 -1.62158e-19)
(0.482908 0.00971043 -1.46238e-19)
(0.638744 0.0309374 2.71574e-19)
(0.788327 0.0553998 -1.26016e-19)
(0.921494 0.080115 1.6712e-19)
(1.0314 0.102417 -4.15816e-21)
(1.11522 0.120472 -9.40148e-20)
(1.17381 0.133465 2.02804e-19)
(1.21063 0.141492 -2.98032e-19)
(1.23041 0.145267 0)
(1.23806 0.145795 -5.7324e-20)
(1.23783 0.144091 -1.51132e-19)
(1.23298 0.141012 4.78013e-20)
(1.22578 0.137189 2.23006e-21)
(1.21763 0.133038 -1.00359e-19)
(1.20931 0.128808 7.66883e-21)
(1.20125 0.124629 1.15412e-19)
(1.19362 0.120562 -5.02943e-20)
(1.18648 0.11663 -1.88834e-20)
(1.17978 0.112904 5.90473e-20)
(1.17351 0.108419 0)
(0.0310109 -0.0057205 0)
(0.130295 -0.0149968 4.67405e-20)
(0.263891 -0.0101079 -2.24126e-19)
(0.420769 0.00577394 8.1502e-20)
(0.587899 0.0297955 -7.67069e-20)
(0.751209 0.0586891 -6.972e-20)
(0.897976 0.0885349 -1.23213e-19)
(1.01934 0.115712 6.16147e-20)
(1.11147 0.137722 5.35616e-20)
(1.17519 0.153475 0)
(1.21456 0.163103 1.19788e-19)
(1.23516 0.167547 -1.7693e-19)
(1.24263 0.168085 1.31564e-19)
(1.2418 0.165976 5.73532e-20)
(1.23625 0.162253 -4.62474e-20)
(1.22838 0.157661 -3.78933e-20)
(1.21964 0.152681 -3.49614e-20)
(1.21084 0.147595 1.06245e-19)
(1.20235 0.142556 0)
(1.19435 0.137638 5.2064e-20)
(1.18687 0.132873 4.2963e-20)
(1.17989 0.128274 -1.07547e-19)
(1.17333 0.123807 -7.22877e-20)
(1.16713 0.119048 6.69738e-20)
(0.0463277 -0.00633387 -4.9828e-20)
(0.175178 -0.0126053 -1.55474e-21)
(0.335719 -0.000209024 4.54465e-20)
(0.513538 0.0250776 1.26436e-19)
(0.692204 0.0580081 3.65698e-20)
(0.855946 0.0934569 -7.07345e-20)
(0.992969 0.126535 6.47771e-20)
(1.09754 0.153694 -5.67666e-20)
(1.16985 0.173275 1.01064e-19)
(1.21434 0.185318 4.27877e-20)
(1.23745 0.190963 -1.21236e-19)
(1.24575 0.191808 3.55683e-20)
(1.24482 0.189424 6.00972e-20)
(1.23876 0.185087 -2.96728e-20)
(1.23026 0.179702 0)
(1.2209 0.173846 4.33164e-20)
(1.21154 0.167852 7.25406e-20)
(1.20257 0.161899 1.18523e-20)
(1.19414 0.156076 -6.00047e-20)
(1.18629 0.150423 2.48585e-20)
(1.179 0.144959 0)
(1.17218 0.139678 -1.92373e-20)
(1.16576 0.134519 -1.79324e-20)
(1.15965 0.129441 0)
(0.0642774 -0.00538328 0)
(0.225157 -0.00553344 2.60348e-20)
(0.411927 0.0167717 4.80765e-20)
(0.606777 0.0525183 -1.28337e-19)
(0.790764 0.0937735 4.12893e-20)
(0.948265 0.133864 0)
(1.07042 0.167696 6.19293e-20)
(1.15584 0.19258 -8.63428e-20)
(1.20887 0.208186 -5.03213e-20)
(1.23676 0.215782 2.27649e-20)
(1.24722 0.217339 -3.57919e-20)
(1.24687 0.214835 8.7244e-20)
(1.24057 0.209887 4.32871e-20)
(1.23149 0.203634 -3.03435e-20)
(1.22147 0.196794 -3.0935e-21)
(1.21148 0.189778 -8.12573e-20)
(1.20194 0.182802 3.68817e-20)
(1.19303 0.175973 -8.87265e-22)
(1.18477 0.169342 0)
(1.17714 0.162932 -2.48843e-20)
(1.17005 0.156748 0)
(1.16344 0.150765 5.54296e-20)
(1.15719 0.144954 -6.57314e-20)
(1.1512 0.139484 2.98432e-20)
(0.0844757 -0.00240425 -1.34005e-20)
(0.278626 0.00706136 -6.51645e-20)
(0.48941 0.0413737 7.39232e-20)
(0.696219 0.0878396 4.34675e-20)
(0.879239 0.135978 -2.08342e-20)
(1.02513 0.178325 3.47966e-20)
(1.12952 0.210513 -1.69592e-20)
(1.19575 0.231362 2.81348e-20)
(1.23165 0.242066 0)
(1.24624 0.244983 6.32498e-20)
(1.24749 0.242628 -2.72453e-21)
(1.2414 0.237094 -5.08089e-20)
(1.23187 0.229872 2.16437e-20)
(1.22118 0.221895 -2.42489e-20)
(1.21048 0.213691 -9.08225e-21)
(1.2003 0.205533 1.06387e-20)
(1.19083 0.197554 -8.12003e-21)
(1.18211 0.189814 -4.37132e-20)
(1.1741 0.182342 2.67668e-20)
(1.16673 0.175148 5.431e-21)
(1.15991 0.168223 4.75199e-21)
(1.15354 0.161532 4.1586e-21)
(1.1475 0.155113 0)
(1.14166 0.149146 0)
(0.106358 0.00302343 1.34098e-20)
(0.333622 0.0257696 -1.34307e-20)
(0.564886 0.073644 -2.45843e-20)
(0.778021 0.130227 0)
(0.954475 0.183173 -1.03078e-20)
(1.08512 0.225297 -9.21476e-21)
(1.17086 0.253826 -1.57918e-20)
(1.2194 0.269454 0)
(1.24105 0.27484 0)
(1.24556 0.273153 0)
(1.24046 0.267162 0)
(1.23078 0.258878 0)
(1.21947 0.249571 -1.35543e-20)
(1.20804 0.239957 6.16295e-21)
(1.19717 0.230399 1.06542e-20)
(1.18709 0.221068 4.9676e-21)
(1.17786 0.212037 1.2207e-20)
(1.16945 0.203339 0)
(1.16178 0.194986 -2.88346e-21)
(1.15476 0.186977 -2.73248e-21)
(1.14829 0.179289 -4.75954e-21)
(1.14224 0.171895 -4.16522e-21)
(1.1365 0.164898 0)
(1.13093 0.15833 2.94112e-21)
(-8.00564e-05 -0.0352408 8.86329e-21)
(-0.0034304 -0.0887706 -9.20069e-21)
(-0.0119011 -0.129143 -1.74172e-20)
(-0.023498 -0.158413 0)
(-0.0369208 -0.178817 -2.33467e-20)
(-0.0513392 -0.192677 7.35801e-21)
(-0.0660891 -0.202102 -1.3837e-20)
(-0.0806667 -0.208768 0)
(-0.0947288 -0.213824 0)
(-0.108058 -0.217904 0)
(-0.120521 -0.221215 0)
(-0.132034 -0.223648 0)
(-0.14253 -0.224892 1.81924e-22)
(-0.151938 -0.22451 -9.39566e-21)
(-0.160172 -0.222003 1.7509e-20)
(-0.167124 -0.216845 2.50246e-20)
(-0.172661 -0.208506 7.59362e-21)
(-0.176633 -0.196477 0)
(-0.178887 -0.180292 7.20766e-21)
(-0.179281 -0.159575 -1.97367e-20)
(-0.177664 -0.134083 -1.21595e-20)
(-0.173846 -0.103701 -1.13687e-20)
(-0.167865 -0.068349 0)
(-0.16085 -0.0282724 0)
(0.00125926 -0.0305627 -2.65131e-20)
(-0.0010011 -0.077525 4.58271e-20)
(-0.0101249 -0.113414 -1.7123e-20)
(-0.0232101 -0.139731 -3.27373e-20)
(-0.0384649 -0.158369 4.63455e-20)
(-0.0548192 -0.171387 -2.91733e-20)
(-0.0714759 -0.180662 4.12757e-20)
(-0.0878729 -0.18767 2.58099e-20)
(-0.103662 -0.193402 0)
(-0.118649 -0.19838 -2.3329e-20)
(-0.132741 -0.202747 -1.41541e-22)
(-0.145892 -0.206372 2.06805e-20)
(-0.158077 -0.20895 2.88909e-20)
(-0.169259 -0.210076 3.64385e-20)
(-0.179385 -0.209294 -1.74559e-20)
(-0.188376 -0.206125 -4.86788e-20)
(-0.196124 -0.200085 1.46077e-20)
(-0.202497 -0.190698 -5.56451e-20)
(-0.207366 -0.177511 0)
(-0.210625 -0.16012 1.2957e-20)
(-0.212128 -0.138201 1.21467e-20)
(-0.211536 -0.111485 1.13567e-20)
(-0.208839 -0.0796755 0)
(-0.20644 -0.0428005 0)
(0.00190109 -0.0245771 0)
(9.60996e-05 -0.0636152 9.05243e-20)
(-0.00958603 -0.0945057 -3.41918e-20)
(-0.0236241 -0.117845 3.25638e-20)
(-0.0398944 -0.134942 -9.16571e-20)
(-0.0571688 -0.147434 0)
(-0.0745638 -0.156868 -5.45049e-20)
(-0.0914792 -0.16447 2.54791e-20)
(-0.107561 -0.171059 -4.81407e-20)
(-0.122627 -0.177056 2.2342e-20)
(-0.1366 -0.182553 1.27925e-19)
(-0.149457 -0.187412 -6.0017e-20)
(-0.161188 -0.191347 -9.41455e-20)
(-0.171779 -0.193989 -3.43485e-20)
(-0.181199 -0.194928 4.67433e-22)
(-0.189391 -0.193733 1.22329e-19)
(-0.196274 -0.189966 -5.71572e-20)
(-0.201744 -0.183184 1.82961e-21)
(-0.205694 -0.172947 0)
(-0.208054 -0.158821 -4.25894e-20)
(-0.208703 -0.140386 0)
(-0.207162 -0.117225 -3.83763e-20)
(-0.20318 -0.0889359 1.35255e-19)
(-0.200283 -0.0555688 -1.81559e-21)
(0.00173247 -0.0177877 0)
(-0.000303831 -0.0480979 -9.91216e-23)
(-0.0103817 -0.0737214 3.41093e-20)
(-0.0247342 -0.0941306 -3.22663e-20)
(-0.0411053 -0.10989 3.03736e-20)
(-0.0582069 -0.122109 1.72331e-19)
(-0.075121 -0.13194 -5.4099e-20)
(-0.09123 -0.140334 -5.09231e-20)
(-0.106174 -0.147933 9.59547e-20)
(-0.119769 -0.15506 -1.35059e-19)
(-0.131939 -0.161768 4.19994e-20)
(-0.142659 -0.167918 3.91935e-20)
(-0.151923 -0.173247 0)
(-0.159722 -0.177422 3.46749e-20)
(-0.166034 -0.180073 0)
(-0.170819 -0.180815 5.7463e-20)
(-0.174017 -0.179256 -1.06182e-19)
(-0.175542 -0.175 2.8243e-20)
(-0.175293 -0.167639 9.09578e-20)
(-0.173202 -0.156738 4.25522e-20)
(-0.169185 -0.141804 0)
(-0.162717 -0.122244 -9.80439e-20)
(-0.152902 -0.0974344 3.25102e-20)
(-0.143331 -0.0672861 0)
(0.000753496 -0.0107513 0)
(-0.00216466 -0.0321004 -1.08056e-19)
(-0.0124114 -0.0523992 -3.44713e-20)
(-0.0263726 -0.0699467 -6.4567e-20)
(-0.0418698 -0.0845037 6.08023e-20)
(-0.0576548 -0.0966011 -5.74231e-20)
(-0.0728278 -0.106971 1.08145e-19)
(-0.0867756 -0.116275 5.08128e-20)
(-0.0991334 -0.124977 -1.43392e-19)
(-0.109708 -0.133308 8.92163e-20)
(-0.118412 -0.141287 -1.25352e-19)
(-0.12521 -0.148774 2.71693e-19)
(-0.130089 -0.155528 -1.45538e-19)
(-0.133043 -0.161243 6.6463e-20)
(-0.134058 -0.165583 1.82693e-19)
(-0.133116 -0.168198 -6.05604e-20)
(-0.130187 -0.168742 -5.39873e-20)
(-0.125224 -0.166868 -4.92116e-20)
(-0.118156 -0.162232 0)
(-0.10892 -0.154468 -7.21804e-20)
(-0.0975102 -0.14312 -5.91704e-20)
(-0.0836228 -0.127483 9.17355e-20)
(-0.0657146 -0.106412 9.8463e-20)
(-0.0447071 -0.0788195 -8.97544e-20)
(-0.000920447 -0.00401315 0)
(-0.00524333 -0.0167202 -1.44992e-19)
(-0.0153646 -0.0318321 -6.13622e-22)
(-0.028181 -0.0465942 1.29282e-19)
(-0.0417801 -0.0600013 0)
(-0.0550426 -0.0720124 0)
(-0.0671336 -0.082938 0)
(-0.0774636 -0.0931527 -5.06759e-20)
(-0.0856651 -0.102944 3.70637e-22)
(-0.0915299 -0.112447 8.96825e-20)
(-0.0949501 -0.121645 -1.24105e-19)
(-0.0958759 -0.130393 6.70328e-22)
(-0.094289 -0.138462 0)
(-0.090188 -0.145565 -6.64337e-20)
(-0.0835827 -0.151385 5.80147e-20)
(-0.0744911 -0.155596 -1.66317e-19)
(-0.0629369 -0.157877 1.96725e-19)
(-0.0489423 -0.157925 3.66818e-20)
(-0.0325141 -0.155463 -9.44662e-21)
(-0.0136422 -0.150241 -1.43821e-19)
(0.00764736 -0.142001 -5.89452e-20)
(0.031338 -0.130293 1.77011e-19)
(0.0585931 -0.113768 -1.1219e-19)
(0.0934937 -0.0892829 0)
(-0.00307525 0.0019415 7.06558e-20)
(-0.00911588 -0.00294675 7.25586e-20)
(-0.0187376 -0.0132037 -6.95231e-20)
(-0.0296118 -0.0252798 -1.30788e-19)
(-0.040233 -0.0375246 1.23158e-19)
(-0.0496773 -0.0493774 -1.16229e-19)
(-0.0572097 -0.0607528 1.64332e-19)
(-0.0622777 -0.0717496 -5.04702e-20)
(-0.0645112 -0.0824782 9.63982e-20)
(-0.0636807 -0.0929735 0)
(-0.0596548 -0.103169 8.27002e-20)
(-0.052369 -0.112904 -1.56427e-19)
(-0.0418075 -0.121946 1.41464e-19)
(-0.0279945 -0.130011 -1.32869e-19)
(-0.0109908 -0.136788 0)
(0.00910824 -0.141958 1.08545e-19)
(0.0321762 -0.145211 1.88822e-19)
(0.0580628 -0.146265 -1.77954e-19)
(0.0866098 -0.144887 -7.55868e-20)
(0.117665 -0.140909 -6.19482e-20)
(0.151047 -0.134252 1.78784e-19)
(0.186757 -0.124836 4.20703e-20)
(0.224008 -0.112139 -4.43136e-20)
(0.275691 -0.0918717 3.31113e-20)
(-0.00542844 0.00673965 -7.06653e-20)
(-0.0132221 0.00841549 2.22571e-19)
(-0.0218753 0.00247301 -7.0062e-20)
(-0.0299656 -0.00708241 1.32328e-19)
(-0.0364685 -0.0181312 -1.24606e-19)
(-0.0406924 -0.0296841 7.62967e-22)
(-0.042025 -0.0413099 5.55765e-20)
(-0.0399622 -0.0528496 2.08145e-19)
(-0.0341337 -0.0642381 -1.13265e-21)
(-0.0242928 -0.0754004 -9.08636e-20)
(-0.0102959 -0.0862051 0)
(0.007913 -0.0964559 -7.66297e-20)
(0.0303075 -0.105898 1.45018e-19)
(0.0567814 -0.114238 1.29253e-19)
(0.0871491 -0.121156 -6.16705e-20)
(0.12115 -0.126335 -1.9346e-22)
(0.158458 -0.129475 -4.83722e-20)
(0.198695 -0.130317 8.50821e-20)
(0.241455 -0.128663 7.5557e-20)
(0.286347 -0.124387 -6.57436e-20)
(0.332763 -0.117532 5.5656e-20)
(0.381678 -0.107829 -4.72593e-20)
(0.426133 -0.0967521 0)
(0.496791 -0.0781456 -3.30485e-20)
(-0.00768251 0.0101567 7.25069e-20)
(-0.016951 0.0168121 -7.45018e-20)
(-0.0240439 0.0144286 7.15875e-20)
(-0.0284427 0.00711306 0)
(-0.0296171 -0.00274828 0)
(-0.0271187 -0.0138501 1.20499e-19)
(-0.020466 -0.0254779 -1.11947e-19)
(-0.00921816 -0.0372436 1.05007e-19)
(0.00697008 -0.048914 -4.91037e-19)
(0.028327 -0.0602959 8.02656e-22)
(0.0549529 -0.0711792 8.52875e-20)
(0.086815 -0.0813152 0)
(0.12374 -0.0904165 -1.42326e-19)
(0.165408 -0.0981714 2.63203e-19)
(0.211361 -0.104262 -1.81337e-19)
(0.261016 -0.108387 -2.63563e-19)
(0.313689 -0.110286 1.05273e-20)
(0.368637 -0.109757 1.74685e-19)
(0.425081 -0.106689 0)
(0.482397 -0.100991 0)
(0.539109 -0.093054 -5.56405e-20)
(0.598321 -0.081804 4.72458e-20)
(0.645443 -0.0710562 -1.50569e-19)
(0.727299 -0.0515858 1.41312e-19)
(-0.00956484 0.0121329 0)
(-0.0196994 0.0219866 0)
(-0.0244856 0.022205 -2.16077e-19)
(-0.024191 0.0166934 6.85043e-20)
(-0.0187356 0.00791897 1.09314e-23)
(-0.00790684 -0.00261196 1.22172e-19)
(0.00863024 -0.0139704 0)
(0.0312196 -0.0255787 -1.06666e-19)
(0.060119 -0.0370488 9.86927e-20)
(0.0954437 -0.0480693 -1.84251e-19)
(0.137122 -0.0583455 1.27806e-21)
(0.184867 -0.0675739 1.56226e-19)
(0.238161 -0.0754422 -3.84631e-21)
(0.29626 -0.081643 1.25461e-19)
(0.358217 -0.0858941 -1.84032e-19)
(0.422931 -0.0879621 0)
(0.489208 -0.0876845 1.86144e-19)
(0.555838 -0.0849846 -2.59493e-19)
(0.621626 -0.0799037 7.4301e-20)
(0.685732 -0.0724367 0)
(0.746194 -0.0633238 5.61466e-20)
(0.80676 -0.0510689 1.83321e-19)
(0.851695 -0.0405802 -1.72044e-19)
(0.927646 -0.0213658 -1.70254e-19)
(-0.0108656 0.0127633 2.26e-19)
(-0.0209225 0.0239864 -3.11699e-19)
(-0.022437 0.0257061 6.56506e-23)
(-0.0162832 0.0214299 6.97083e-20)
(-0.00275397 0.0135605 -1.30915e-19)
(0.0181424 0.00370516 -1.21447e-19)
(0.0465621 -0.00706201 2.28634e-19)
(0.0826754 -0.018017 -2.25636e-21)
(0.126529 -0.0286397 -2.00897e-19)
(0.177946 -0.0385154 3.70677e-19)
(0.236457 -0.0472816 -3.28982e-21)
(0.301258 -0.0546086 -1.60277e-19)
(0.371213 -0.0602027 0)
(0.444895 -0.0638216 0)
(0.520665 -0.0652935 -5.97938e-20)
(0.596778 -0.0645348 -1.06955e-19)
(0.671503 -0.0615599 -1.85807e-19)
(0.743234 -0.0564863 1.74415e-19)
(0.810585 -0.0495265 -7.43243e-20)
(0.872547 -0.0409123 1.2521e-19)
(0.927919 -0.0312737 -6.50892e-20)
(0.978503 -0.019847 8.60892e-20)
(1.01567 -0.0103314 -2.19188e-19)
(1.06907 0.00572951 3.54888e-20)
(-0.0114391 0.0122565 7.64551e-20)
(-0.0201242 0.0231327 0)
(-0.0170836 0.0252293 1.49322e-19)
(-0.0036211 0.0215767 -1.40667e-19)
(0.0196747 0.0144263 1.31027e-19)
(0.0525736 0.00541076 0)
(0.0949821 -0.00431476 0)
(0.146749 -0.0139268 -1.07593e-19)
(0.207487 -0.0228147 2.19109e-21)
(0.276439 -0.0305054 9.48977e-20)
(0.352402 -0.036627 -8.46688e-20)
(0.433722 -0.0408997 1.6059e-19)
(0.518362 -0.0431415 0)
(0.604029 -0.0432779 2.58703e-19)
(0.688351 -0.0413476 -4.75686e-19)
(0.769054 -0.0374994 3.25562e-19)
(0.844135 -0.0319757 1.84909e-19)
(0.911989 -0.0251032 -1.73581e-19)
(0.971526 -0.0172162 0)
(1.02209 -0.00878148 0)
(1.06376 3.57815e-06 0)
(1.09682 0.00863699 0)
(1.12094 0.0163624 4.27704e-20)
(1.14611 0.026733 -1.47359e-19)
(-0.153382 0.0224318 -7.42014e-21)
(-0.13824 0.0898004 7.44161e-21)
(-0.120278 0.163793 -2.02019e-22)
(-0.0996275 0.241451 0)
(-0.0767812 0.319496 -5.8579e-21)
(-0.0526845 0.393929 1.09717e-20)
(-0.0286724 0.4612 -4.35455e-22)
(-0.00589301 0.518296 -4.56356e-21)
(0.015768 0.561859 0)
(0.0382696 0.588491 0)
(0.065452 0.593831 -1.97134e-22)
(0.102553 0.5714 -1.94008e-22)
(0.15377 0.515119 -3.36955e-21)
(0.219635 0.422348 3.08162e-21)
(0.295826 0.296248 0)
(0.376004 0.144269 0)
(0.45507 -0.0242748 3.27908e-21)
(0.530135 -0.195533 -2.39056e-22)
(0.597316 -0.348153 -2.68852e-21)
(0.651365 -0.460876 -1.42807e-22)
(0.688707 -0.524959 0)
(0.708522 -0.54732 0)
(0.71415 -0.541416 0)
(0.710199 -0.521925 0)
(0.694599 -0.507661 0)
(0.661102 -0.510731 0)
(0.614377 -0.514732 3.99478e-22)
(0.576329 -0.473322 -6.20238e-22)
(0.570046 -0.349535 0)
(0.599502 -0.154114 0)
(0.651385 0.0605406 -6.17947e-22)
(0.708361 0.241263 6.0056e-22)
(0.756888 0.361957 2.16899e-22)
(0.791584 0.421088 0)
(0.814308 0.43913 0)
(0.818942 0.445751 2.488e-22)
(0.796796 0.468438 -2.41853e-22)
(0.753492 0.478959 0)
(0.713293 0.430905 3.23004e-22)
(0.701306 0.286264 -4.93639e-22)
(0.718451 0.085367 1.87538e-22)
(0.753623 -0.111175 0)
(0.795077 -0.255933 -2.38298e-22)
(0.827465 -0.328255 2.31714e-22)
(0.839498 -0.377261 0)
(0.810965 -0.3911 0)
(0.764626 -0.40376 -6.98644e-23)
(0.72858 -0.314784 2.01598e-22)
(0.729098 -0.177855 0)
(0.761799 -0.00152701 0)
(0.805049 0.159891 -5.59513e-23)
(0.816354 0.241157 3.87428e-24)
(0.803228 0.366601 -4.88756e-24)
(0.772046 0.328877 3.86086e-23)
(0.767708 0.315394 0)
(0.785653 0.156758 0)
(0.805968 -0.0311289 0)
(0.797576 -0.108353 0)
(0.802887 -0.361445 0)
(0.784306 -0.237142 0)
(-0.20816 0.00431447 -5.99162e-22)
(-0.197407 0.0677423 -2.47418e-20)
(-0.183529 0.138012 9.99568e-22)
(-0.165487 0.212653 2.23142e-20)
(-0.143244 0.288606 2.89475e-22)
(-0.117142 0.362357 0)
(-0.0874376 0.429845 -1.6159e-20)
(-0.0546835 0.488265 3.08467e-20)
(-0.0184655 0.530972 -1.4692e-20)
(0.0238844 0.55497 1.29977e-20)
(0.0751787 0.554964 -1.24355e-20)
(0.137577 0.525073 1.29071e-20)
(0.211848 0.461406 -1.25423e-20)
(0.295425 0.363997 -4.47066e-22)
(0.382761 0.237295 -1.50242e-20)
(0.468218 0.0878045 1.45992e-20)
(0.548519 -0.0771935 -1.43048e-20)
(0.621657 -0.243764 1.34663e-20)
(0.682829 -0.389333 -1.09086e-20)
(0.726349 -0.491779 1.91036e-20)
(0.750307 -0.543621 -8.29026e-21)
(0.756421 -0.55461 -3.55902e-22)
(0.749156 -0.540591 -4.07461e-21)
(0.734539 -0.514793 7.44504e-21)
(0.712735 -0.492435 -3.38708e-21)
(0.676177 -0.48687 1.8574e-22)
(0.624249 -0.489048 3.67651e-21)
(0.574823 -0.458116 7.46553e-22)
(0.553816 -0.352928 -8.5467e-21)
(0.571468 -0.174362 9.1635e-21)
(0.617633 0.0313511 -4.58462e-21)
(0.674447 0.212476 4.75342e-22)
(0.727377 0.339161 -2.17354e-22)
(0.770141 0.405667 3.15711e-22)
(0.801105 0.431907 0)
(0.811662 0.448525 0)
(0.793257 0.480535 -1.05024e-21)
(0.755662 0.494411 7.43538e-22)
(0.723075 0.441516 1.08261e-21)
(0.718855 0.287526 3.63865e-22)
(0.740411 0.0780366 -1.70416e-21)
(0.775555 -0.123144 3.67304e-22)
(0.812796 -0.267899 0)
(0.839474 -0.335055 0)
(0.849022 -0.374863 0)
(0.817992 -0.380199 0)
(0.770676 -0.391759 2.40401e-22)
(0.730066 -0.309569 -1.33772e-22)
(0.7289 -0.182737 0)
(0.759501 -0.011741 0)
(0.801408 0.152335 0)
(0.812514 0.241075 -8.54208e-23)
(0.797776 0.371577 8.72809e-24)
(0.769069 0.33281 -7.96866e-23)
(0.76394 0.313888 0)
(0.786789 0.152963 0)
(0.810506 -0.0329845 6.82873e-23)
(0.803067 -0.107703 2.01711e-22)
(0.809794 -0.359925 0)
(0.788485 -0.236153 0)
(-0.206144 -0.012775 -1.1468e-21)
(-0.199904 0.0448914 -4.20341e-20)
(-0.189782 0.11023 3.84152e-20)
(-0.174466 0.180406 -3.60162e-20)
(-0.152909 0.252298 -2.91495e-22)
(-0.124996 0.323423 0)
(-0.0893995 0.388904 -2.80331e-20)
(-0.048163 0.443874 2.73929e-20)
(-0.000142645 0.483841 2.07763e-22)
(0.0586603 0.504747 3.64677e-22)
(0.127689 0.500474 3.77041e-22)
(0.206963 0.466255 4.00844e-22)
(0.294909 0.399964 -2.89623e-20)
(0.387506 0.303221 2.85925e-20)
(0.479228 0.180746 0)
(0.565501 0.0375007 1.00418e-21)
(0.644583 -0.120927 -3.02547e-20)
(0.714421 -0.280715 2.98319e-20)
(0.768681 -0.41787 0)
(0.801029 -0.51017 0)
(0.811314 -0.551655 -1.41338e-20)
(0.804197 -0.553909 2.43894e-20)
(0.785321 -0.534331 -1.82513e-20)
(0.760972 -0.504928 1.40603e-21)
(0.733358 -0.476658 1.23273e-20)
(0.695009 -0.462645 -1.1772e-20)
(0.640403 -0.46135 1.14029e-20)
(0.581946 -0.439532 5.94292e-22)
(0.546686 -0.353838 -6.70584e-21)
(0.551121 -0.194375 0)
(0.58967 0.000565663 0)
(0.644767 0.180411 2.418e-21)
(0.701085 0.312235 -3.21425e-21)
(0.751171 0.386263 -3.15531e-23)
(0.789693 0.421658 2.06642e-21)
(0.806014 0.449034 -2.00822e-21)
(0.791962 0.490512 0)
(0.760783 0.507956 2.78516e-22)
(0.735885 0.451108 3.38447e-21)
(0.739104 0.289435 -7.1707e-21)
(0.764992 0.0725789 3.27511e-21)
(0.800044 -0.132132 4.16333e-22)
(0.832898 -0.277039 -2.77207e-21)
(0.853392 -0.340079 2.09083e-21)
(0.860228 -0.371731 3.40538e-22)
(0.826984 -0.368973 2.61318e-22)
(0.779202 -0.379557 -2.41002e-22)
(0.734394 -0.304538 0)
(0.731453 -0.187981 0)
(0.759435 -0.0224509 -7.88057e-22)
(0.799618 0.14456 3.92551e-22)
(0.810411 0.240694 -3.3685e-22)
(0.793958 0.376372 5.03287e-22)
(0.767551 0.33679 6.93498e-22)
(0.761502 0.312136 -1.55368e-22)
(0.789274 0.14879 3.45762e-22)
(0.816435 -0.035156 -3.17253e-22)
(0.809806 -0.107035 1.72172e-22)
(0.817596 -0.358164 0)
(0.793423 -0.23503 0)
(-0.14845 -0.0282539 -7.06393e-20)
(-0.146522 0.0225246 4.18988e-21)
(-0.138322 0.0823308 6.2753e-20)
(-0.12544 0.147448 -5.07188e-22)
(-0.104678 0.213403 0)
(-0.0756474 0.278642 0)
(-0.0386694 0.338804 -4.67106e-20)
(0.00768846 0.388671 -3.81018e-22)
(0.064533 0.425951 6.67872e-20)
(0.132664 0.44383 1.18092e-21)
(0.211131 0.436947 -2.32742e-20)
(0.29849 0.40158 -2.65706e-20)
(0.391799 0.336713 2.659e-20)
(0.486506 0.244682 0)
(0.577586 0.129746 -3.29182e-20)
(0.661893 -0.00515727 2.99447e-20)
(0.738928 -0.155785 0)
(0.805474 -0.308001 0)
(0.852818 -0.436231 2.32046e-20)
(0.874052 -0.518618 -4.22036e-21)
(0.870944 -0.551187 -1.73157e-20)
(0.851231 -0.546789 -1.09088e-20)
(0.822051 -0.523446 1.07988e-20)
(0.789104 -0.492564 -6.70703e-21)
(0.755837 -0.460993 9.65989e-22)
(0.716438 -0.439321 5.3644e-21)
(0.661871 -0.432252 6.18313e-22)
(0.597625 -0.416679 6.78052e-23)
(0.549242 -0.350363 0)
(0.539309 -0.212507 6.7663e-21)
(0.568125 -0.0306844 -6.95359e-21)
(0.619722 0.145741 4.15177e-22)
(0.678282 0.281595 0)
(0.734673 0.363124 -2.87757e-22)
(0.779921 0.408303 3.93152e-21)
(0.801843 0.446792 -7.37549e-21)
(0.792669 0.497704 -1.07953e-21)
(0.768308 0.519177 -1.01363e-21)
(0.751086 0.459786 4.47591e-21)
(0.761301 0.292251 8.41293e-22)
(0.791454 0.0695916 -6.95491e-21)
(0.826591 -0.138108 5.9689e-21)
(0.855121 -0.283454 -2.7944e-23)
(0.869093 -0.343492 1.65265e-21)
(0.87291 -0.368126 -1.94833e-21)
(0.837622 -0.357646 -1.728e-21)
(0.789811 -0.367116 5.1939e-22)
(0.741218 -0.299443 7.91476e-22)
(0.736429 -0.193363 -1.51889e-21)
(0.761394 -0.0335774 1.11422e-21)
(0.799575 0.136556 -3.53735e-22)
(0.81002 0.23996 3.27041e-22)
(0.791842 0.380989 3.07971e-22)
(0.767647 0.340872 -1.07155e-21)
(0.76057 0.310214 -5.15139e-24)
(0.793161 0.144252 -4.1347e-22)
(0.823717 -0.037628 0)
(0.817781 -0.106325 -1.646e-22)
(0.826264 -0.356134 2.93682e-22)
(0.799078 -0.233753 0)
(-0.0457576 -0.0423998 5.81774e-20)
(-0.0473661 0.00337808 -1.09025e-19)
(-0.0392159 0.0557412 5.04291e-20)
(-0.0288869 0.112133 4.40288e-20)
(-0.0114772 0.170871 -8.4297e-20)
(0.0166002 0.228996 9.94318e-22)
(0.0541133 0.283283 3.85671e-20)
(0.102425 0.329515 3.91447e-20)
(0.161895 0.363059 -3.83712e-20)
(0.2325 0.37826 0)
(0.313022 0.370495 -4.90821e-20)
(0.4012 0.336666 1.01972e-19)
(0.493551 0.276148 -5.27666e-20)
(0.585585 0.191279 0)
(0.673008 0.0853999 0)
(0.754401 -0.0402493 1.03586e-21)
(0.829661 -0.182301 -6.28684e-20)
(0.892992 -0.325719 6.10654e-20)
(0.933048 -0.443879 0)
(0.943094 -0.516385 3.83543e-20)
(0.927293 -0.54174 -6.4276e-20)
(0.896128 -0.533357 4.86882e-20)
(0.858278 -0.508399 -3.7281e-20)
(0.818442 -0.477747 3.09048e-21)
(0.780035 -0.445457 2.27559e-20)
(0.739725 -0.418221 -1.02257e-20)
(0.68721 -0.404144 -2.87244e-22)
(0.62093 -0.391018 -4.26628e-21)
(0.561747 -0.341832 -6.39916e-22)
(0.53681 -0.227179 4.92951e-21)
(0.553718 -0.0616378 3.83447e-22)
(0.599813 0.109082 -4.79503e-21)
(0.65919 0.247599 8.80699e-21)
(0.720551 0.336324 -4.46604e-21)
(0.77153 0.391545 0)
(0.798858 0.441214 -4.3903e-21)
(0.795007 0.501568 4.31774e-21)
(0.777671 0.527811 -4.93132e-21)
(0.767993 0.467757 6.1232e-21)
(0.784805 0.296126 -9.14496e-22)
(0.819143 0.0690759 0)
(0.854525 -0.141095 -8.64786e-22)
(0.879074 -0.287001 2.01501e-21)
(0.886338 -0.345138 0)
(0.886864 -0.364033 3.10232e-21)
(0.849673 -0.346338 -1.3449e-21)
(0.802126 -0.354524 4.14816e-22)
(0.750129 -0.294215 3.2768e-22)
(0.743425 -0.198718 0)
(0.765117 -0.0450023 0)
(0.801125 0.128288 -9.0596e-22)
(0.811283 0.238786 1.46718e-21)
(0.791479 0.385395 -9.12049e-22)
(0.769499 0.345098 3.16761e-22)
(0.761302 0.308185 7.58151e-22)
(0.798481 0.139361 4.13864e-22)
(0.832308 -0.0403899 -7.74526e-22)
(0.826965 -0.105543 0)
(0.835752 -0.353776 -4.50871e-22)
(0.805403 -0.232298 -4.83862e-23)
(0.0951059 -0.0565594 5.16099e-20)
(0.086931 -0.0158777 -5.11452e-20)
(0.0887106 0.0281834 3.56752e-22)
(0.0973593 0.0761542 -2.68513e-22)
(0.1131 0.128214 2.99644e-22)
(0.138356 0.180156 -2.83521e-22)
(0.173665 0.228963 4.67943e-22)
(0.219808 0.27042 0)
(0.277066 0.300118 -5.27052e-22)
(0.345077 0.313383 5.87638e-22)
(0.422396 0.306134 6.64876e-22)
(0.506532 0.275578 -7.91493e-22)
(0.594091 0.221011 0)
(0.681038 0.144194 0)
(0.764118 0.0472202 9.78284e-22)
(0.843001 -0.0689805 0)
(0.916608 -0.201804 -9.74784e-22)
(0.975913 -0.334804 0)
(1.00762 -0.441718 -4.50837e-20)
(1.00638 -0.504746 8.10645e-20)
(0.979093 -0.524716 -6.34001e-20)
(0.938159 -0.514823 2.75648e-20)
(0.893293 -0.490235 1.60074e-20)
(0.848317 -0.46096 -1.55461e-20)
(0.805536 -0.429796 -9.92761e-21)
(0.764009 -0.399548 9.59139e-21)
(0.714681 -0.378523 0)
(0.650114 -0.364069 1.90924e-22)
(0.583755 -0.328222 0)
(0.544127 -0.236918 0)
(0.547214 -0.0910534 7.97102e-21)
(0.585679 0.0712866 -8.18727e-21)
(0.643985 0.210711 3.97088e-22)
(0.708637 0.305955 4.41312e-22)
(0.764235 0.371141 -3.67639e-22)
(0.796727 0.431809 -3.74352e-21)
(0.798479 0.501611 3.63503e-21)
(0.788223 0.533698 -6.21864e-21)
(0.785858 0.474944 5.44513e-21)
(0.808834 0.301365 1.85927e-21)
(0.847305 0.0704621 -7.58622e-21)
(0.883334 -0.141231 3.78048e-23)
(0.904361 -0.287667 4.85719e-21)
(0.904857 -0.344958 0)
(0.90183 -0.3595 -1.38239e-21)
(0.862882 -0.335165 1.24054e-21)
(0.815752 -0.341788 -1.68527e-21)
(0.760685 -0.288748 -3.29754e-22)
(0.751992 -0.203883 0)