/*--------------------------------*- C++ -*----------------------------------*\
| =========                 |                                                 |
| \\      /  F ield         | OpenFOAM: The Open Source CFD Toolbox           |
|  \\    /   O peration     | Version:  2512                                  |
|   \\  /    A nd           | Website:  www.openfoam.com                      |
|    \\/     M anipulation  |                                                 |
\*---------------------------------------------------------------------------*/
FoamFile
{
    version     2.0;
    format      ascii;
    arch        "LSB;label=32;scalar=64";
    class       surfaceScalarField;
    location    "162";
    object      phi;
}
// * * * * * * * * * * * * * * * * * * * * * * * * * * * * * * * * * * * * * //

dimensions      [0 3 -1 0 0 0 0];

oriented        oriented;

internalField   nonuniform List<scalar> 
26232
(
0.000100384
0.000816768
-0.000917151
0.000490517
0.00122281
-0.00161294
0.00130147
0.000597256
-0.00140821
0.00268512
-0.000967871
-0.000415776
0.00480313
-0.00341876
0.00130076
0.0078154
-0.00672198
0.00370972
0.0118661
-0.0108481
0.00679744
0.017067
-0.0157542
0.0105532
0.0234805
-0.0213679
0.0149545
0.0311047
-0.0275791
0.0199549
0.0398649
-0.0342384
0.0254781
0.049614
-0.0411662
0.0314172
0.0601417
-0.0481667
0.0376389
0.0711935
-0.055046
0.0439943
0.0824938
-0.0616301
0.0503298
0.0937725
-0.0677797
0.056501
0.104788
-0.0733996
0.0623837
0.115349
-0.0784435
0.067883
0.125323
-0.0829106
0.0729369
0.134645
-0.0868466
0.0775244
0.143307
-0.0903099
0.0816475
0.151371
-0.0934335
0.0853692
0.158856
-0.0962086
0.0887245
-0.0989684
0.0920759
0.165748
0.000164336
0.000652431
0.000778424
0.000608722
0.00199575
-0.00062007
0.00398362
-0.00295574
0.00691156
-0.00634671
0.0109338
-0.0107442
0.0161668
-0.0160811
0.0226657
-0.0222531
0.0304043
-0.0291065
0.0392648
-0.0364396
0.0490414
-0.044015
0.0594576
-0.0515825
0.0701958
-0.0589048
0.0809316
-0.0657818
0.0913696
-0.0720681
0.101272
-0.0776821
0.110479
-0.0826066
0.118917
-0.0868813
0.126596
-0.0905894
0.133593
-0.093844
0.140046
-0.0967626
0.146104
-0.0994921
0.151948
-0.102052
-0.104808
0.157787
0.00023158
0.000420851
0.0010846
-0.0002443
0.00273855
-0.00227402
0.00537397
-0.00559117
0.00915644
-0.0101292
0.0142095
-0.0157973
0.0205837
-0.0224554
0.0282306
-0.0299
0.0369903
-0.0378662
0.0465992
-0.0460484
0.0567176
-0.0541334
0.0669724
-0.0618373
0.0770046
-0.0689371
0.086513
-0.0752902
0.0952853
-0.0808404
0.103214
-0.0856111
0.110296
-0.0896884
0.116614
-0.0931995
0.122314
-0.0962894
0.127572
-0.0991019
0.13257
-0.101761
0.137459
-0.10438
0.142391
-0.106984
-0.109816
0.147399
0.000311695
0.000109156
0.00143421
-0.00136682
0.00356745
-0.00440726
0.00689288
-0.00891659
0.0115471
-0.0147834
0.0175844
-0.0218346
0.0249424
-0.0298134
0.0334263
-0.0383838
0.0427202
-0.0471602
0.0524274
-0.0557556
0.0621271
-0.0638331
0.0714362
-0.0711464
0.0800593
-0.0775602
0.0878196
-0.0830504
0.0946651
-0.0876859
0.100654
-0.0916004
0.105926
-0.0949601
0.110662
-0.0979353
0.115051
-0.100679
0.119264
-0.103314
0.123436
-0.105933
0.127658
-0.108603
0.132003
-0.11133
-0.114282
0.13647
0.000410671
-0.000301515
0.00184051
-0.00279666
0.004494
-0.00706074
0.00852875
-0.0129513
0.0140148
-0.0202695
0.0208905
-0.0287103
0.0289395
-0.0378624
0.0378038
-0.047248
0.0470346
-0.056391
0.0561671
-0.0648881
0.064796
-0.072462
0.0726325
-0.0789828
0.0795313
-0.084459
0.0854866
-0.0890057
0.0906026
-0.092802
0.0950515
-0.0960493
0.0990292
-0.0989378
0.102721
-0.101627
0.106278
-0.104236
0.109811
-0.106848
0.113395
-0.109517
0.117069
-0.112276
0.120866
-0.115127
-0.118177
0.124761
0.000529672
-0.000831187
0.00230059
-0.00456757
0.0054956
-0.0102558
0.0102123
-0.0176681
0.0164089
-0.026466
0.0238671
-0.0361686
0.0322012
-0.0461964
0.0409167
-0.0559636
0.0495038
-0.0649781
0.0575289
-0.0729132
0.0647005
-0.0796336
0.0708927
-0.0851751
0.0761306
-0.0896969
0.0805478
-0.0934229
0.0843348
-0.096589
0.0876911
-0.0994056
0.090793
-0.10204
0.0937773
-0.104611
0.0967393
-0.107198
0.0997399
-0.109849
0.102815
-0.112592
0.10598
-0.115442
0.109254
-0.1184
-0.121526
0.112603
0.000665283
-0.00149647
0.00279584
-0.00669814
0.00651825
-0.0139782
0.011827
-0.0229768
0.0185268
-0.0331658
0.0262247
-0.0438665
0.0343902
-0.054362
0.0424643
-0.0640377
0.0499725
-0.0724863
0.0566032
-0.0795439
0.0622318
-0.0852622
0.0668974
-0.0898406
0.0707494
-0.093549
0.0739878
-0.0966613
0.0768128
-0.0994139
0.079394
-0.101987
0.0818583
-0.104504
0.0842918
-0.107044
0.086748
-0.109654
0.0892579
-0.112359
0.0918378
-0.115171
0.094494
-0.118098
0.0972323
-0.121139
-0.124318
0.100025
0.000810662
-0.00230713
0.00329616
-0.00918364
0.00748707
-0.0181691
0.0132331
-0.0287228
0.0201615
-0.0400942
0.0277213
-0.0514264
0.0353022
-0.0619428
0.0423718
-0.0711074
0.0485753
-0.0786897
0.0537664
-0.0847351
0.0579806
-0.0894763
0.061372
-0.093232
0.0641457
-0.0963227
0.0665036
-0.0990192
0.068613
-0.101523
0.0705965
-0.10397
0.0725351
-0.106443
0.0744784
-0.108988
0.0764548
-0.11163
0.0784795
-0.114383
0.0805597
-0.117252
0.0826975
-0.120236
0.0848945
-0.123336
-0.126554
0.0871298
0.00095674
-0.00326387
0.00376489
-0.0119918
0.00831973
-0.0227239
0.0142962
-0.0346992
0.0211485
-0.0469465
0.0282199
-0.0584978
0.0349044
-0.0686273
0.040776
-0.076979
0.0456401
-0.0835538
0.0495077
-0.0886027
0.0525269
-0.0924955
0.0549048
-0.0956099
0.0568474
-0.0982652
0.0585245
-0.100696
0.0600589
-0.103058
0.0615306
-0.105442
0.0629876
-0.1079
0.0644571
-0.110457
0.0659539
-0.113127
0.0674856
-0.115915
0.0690554
-0.118822
0.0706642
-0.121845
0.0723107
-0.124982
-0.128225
0.073982
0.00109302
-0.00435689
0.00416363
-0.0150624
0.00893956
-0.0274998
0.0149117
-0.0406714
0.0213964
-0.0534312
0.0277051
-0.0648065
0.0333128
-0.074235
0.0379437
-0.0816098
0.0415592
-0.0871693
0.0442867
-0.0913302
0.0463313
-0.0945401
0.0479048
-0.0971834
0.049184
-0.0995445
0.0502969
-0.101809
0.0513261
-0.104087
0.0523204
-0.106436
0.0533072
-0.108886
0.0543013
-0.111451
0.0553108
-0.114137
0.0563398
-0.116944
0.0573897
-0.119871
0.0584604
-0.122916
0.0595496
-0.126072
-0.129327
0.060651
0.00120906
-0.00556595
0.00445805
-0.0183114
0.0092877
-0.0323295
0.0150206
-0.0464043
0.0208943
-0.0593049
0.0262627
-0.0701749
0.0307322
-0.0787045
0.0341819
-0.0850594
0.0366968
-0.0896842
0.0384709
-0.0931044
0.0397218
-0.0957909
0.0406374
-0.098099
0.0413556
-0.100263
0.0419656
-0.102419
0.0425199
-0.104641
0.0430471
-0.106964
0.0435629
-0.109402
0.0440755
-0.111964
0.0445901
-0.114651
0.0451088
-0.117463
0.0456324
-0.120395
0.0461598
-0.123443
0.0466878
-0.1266
-0.129853
0.0472139
0.00129834
-0.00686429
0.00462512
-0.0216382
0.00933213
-0.0370365
0.0146143
-0.0516864
0.0197003
-0.0643909
0.0240445
-0.0745192
0.0274019
-0.0820619
0.0297836
-0.0874411
0.0313551
-0.0912557
0.0323346
-0.094084
0.0329236
-0.09638
0.0332749
-0.0984503
0.0334889
-0.100477
0.0336248
-0.102555
0.0337145
-0.104731
0.0337747
-0.107024
0.0338144
-0.109442
0.0338389
-0.111988
0.0338515
-0.114664
0.0338541
-0.117465
0.0338473
-0.120388
0.0338299
-0.123426
0.0337983
-0.126568
0.0337526
-0.129807
-0.000217113
-0.00217566
0.00239278
-0.000793177
-0.00561651
0.00619258
-0.0016848
-0.00837246
0.00926409
-0.00285014
-0.0105213
0.0116866
-0.00424524
-0.0121676
0.0135627
-0.00582617
-0.0134369
0.0150178
-0.00755214
-0.0144532
0.0161792
-0.00938764
-0.0153201
0.0171556
-0.011303
-0.0161095
0.0180249
-0.0132734
-0.0168591
0.0188295
-0.0152766
-0.0175755
0.0195787
-0.0172903
-0.0182399
0.0202537
-0.0192897
-0.0188149
0.0208143
-0.021245
-0.0192493
0.0212046
-0.0231201
-0.0194817
0.0213568
-0.0248717
-0.0194428
0.0211943
-0.0264487
-0.0190571
0.0206341
-0.027793
-0.0182449
0.0195892
-0.0288416
-0.0169241
0.0179728
-0.02953
-0.0150143
0.0157028
-0.0297904
-0.0124428
0.0127032
-0.0295634
-0.00914134
0.00891428
-0.0288266
-0.00502889
0.00429207
-0.00010044
-0.0276878
-0.00103828
-0.000316
-0.00185966
-0.00110791
-0.0048246
-0.00228209
-0.00719827
-0.00376377
-0.00903959
-0.00548958
-0.0104417
-0.00740688
-0.0115196
-0.00947376
-0.0123864
-0.0116583
-0.0131356
-0.0139367
-0.0138312
-0.0162902
-0.0145056
-0.0187026
-0.0151632
-0.0211562
-0.0157863
-0.02363
-0.0163412
-0.0260969
-0.0167824
-0.0285224
-0.0170562
-0.0308632
-0.0171019
-0.0330669
-0.0168534
-0.035072
-0.0162398
-0.0368101
-0.015186
-0.0382095
-0.0136149
-0.0392021
-0.0114503
-0.0397257
-0.0086177
-0.0397301
-0.00502449
-0.000505124
-0.0393254
-0.00039181
-0.00146785
-0.00134399
-0.00387243
-0.00271994
-0.00582232
-0.00441659
-0.00734294
-0.00635365
-0.00850469
-0.00847009
-0.00940313
-0.0107212
-0.0101353
-0.0130751
-0.0107817
-0.0155088
-0.0113974
-0.0180044
-0.0120099
-0.0205451
-0.0126225
-0.0231122
-0.0132193
-0.0256825
-0.0137709
-0.0282268
-0.0142381
-0.0307084
-0.0145745
-0.0330819
-0.0147285
-0.0352921
-0.0146432
-0.0372744
-0.0142575
-0.0389549
-0.0135054
-0.040256
-0.0123139
-0.0411032
-0.010603
-0.0414326
-0.00828832
-0.0411722
-0.00528493
-0.00142823
-0.0402491
-0.000437945
-0.00102991
-0.0014838
-0.00282657
-0.00296986
-0.00433625
-0.0047715
-0.00554131
-0.00679474
-0.00648144
-0.00897049
-0.00722739
-0.0112492
-0.00785652
-0.0135956
-0.00843531
-0.0159831
-0.00900992
-0.0183892
-0.00960389
-0.0207912
-0.0102204
-0.0231638
-0.0108467
-0.0254765
-0.0114582
-0.0276928
-0.0120218
-0.0297687
-0.0124986
-0.0316523
-0.0128449
-0.033282
-0.0130135
-0.0345859
-0.0129537
-0.0354801
-0.0126112
-0.0358691
-0.0119248
-0.0356535
-0.0108186
-0.0347393
-0.0092025
-0.0330429
-0.00698135
-0.00397999
-0.0304911
-0.000451384
-0.000578526
-0.00151942
-0.00175854
-0.00301969
-0.00283598
-0.004814
-0.003747
-0.00679818
-0.00449727
-0.0088954
-0.00513017
-0.0110496
-0.00570231
-0.0132189
-0.00626598
-0.0153696
-0.00685929
-0.0174705
-0.0075029
-0.0194899
-0.0082011
-0.0213918
-0.00894478
-0.0231354
-0.00971461
-0.0246734
-0.0104838
-0.0259522
-0.0112197
-0.0269111
-0.011886
-0.0274815
-0.0124431
-0.0275856
-0.0128496
-0.0271341
-0.0130628
-0.0260212
-0.0130377
-0.0241198
-0.01272
-0.0212926
-0.0120298
-0.0174187
-0.0108553
-0.00904179
-0.0123569
-0.000432229
-0.000146297
-0.00145143
-0.000739337
-0.00287106
-0.00141635
-0.00454703
-0.00207103
-0.00636813
-0.00267616
-0.00824986
-0.00324844
-0.0101277
-0.00382446
-0.0119504
-0.00444334
-0.0136734
-0.00513623
-0.0152544
-0.00592196
-0.0166488
-0.00680661
-0.0178085
-0.00778512
-0.0186798
-0.00884329
-0.0192039
-0.00995964
-0.0193167
-0.011107
-0.0189491
-0.0122537
-0.0180268
-0.0133654
-0.01647
-0.0144064
-0.0141908
-0.015342
-0.0110887
-0.0161397
-0.00703922
-0.0167695
-0.00187807
-0.0171909
0.00457435
-0.0173077
-0.0170179
0.0125505
-0.000383658
0.000237361
-0.00128845
0.000165451
-0.00253819
-0.000166608
-0.00398899
-0.000620227
-0.00552475
-0.0011404
-0.0070527
-0.00172049
-0.0084973
-0.00237987
-0.00979422
-0.00314641
-0.0108847
-0.00404579
-0.0117108
-0.00509586
-0.0122126
-0.00630479
-0.0123266
-0.0076711
-0.0119854
-0.00918448
-0.0111182
-0.0108268
-0.00965194
-0.0125732
-0.00751218
-0.0143934
-0.00462416
-0.0162534
-0.000913125
-0.0181174
0.00369572
-0.0199508
0.00927946
-0.0217235
0.0159209
-0.023411
0.0237459
-0.0250159
0.0328069
-0.0263686
-0.0281227
0.0439117
-0.000311514
0.000548876
-0.00104736
0.000901297
-0.00204845
0.000834483
-0.0031758
0.000507124
-0.00430883
-7.37696e-06
-0.00534565
-0.000683669
-0.00619629
-0.00152923
-0.00677972
-0.00256298
-0.00701878
-0.00380674
-0.00683682
-0.00527782
-0.00615598
-0.00698563
-0.0048969
-0.00893018
-0.00297975
-0.0111016
-0.000326103
-0.0134805
0.00313896
-0.0160383
0.00748484
-0.0187393
0.0127739
-0.0215424
0.0190607
-0.0244042
0.0263919
-0.0272821
0.0348079
-0.0301395
0.0443318
-0.0329348
0.0550419
-0.0357261
0.0668014
-0.0381281
-0.0416659
0.0803446
-0.000224596
0.000773472
-0.000751085
0.00142779
-0.00144128
0.00152468
-0.00216152
0.00122736
-0.0027878
0.000618906
-0.00320487
-0.000266608
-0.00330766
-0.00142644
-0.00299588
-0.00287476
-0.00217232
-0.0046303
-0.000741733
-0.0067084
0.00138888
-0.00911624
0.00430834
-0.0118496
0.00809827
-0.0148916
0.0128296
-0.0182118
0.0185592
-0.021768
0.0253279
-0.025508
0.033159
-0.0293735
0.0420585
-0.0333037
0.0520166
-0.0372401
0.0630112
-0.0411341
0.0750009
-0.0449246
0.0879729
-0.048698
0.10175
-0.0519051
-0.0565555
0.116639
-0.000132673
0.000906145
-0.000428117
0.00172323
-0.000765779
0.00186235
-0.00101599
0.00147757
-0.00104891
0.000651826
-0.000737733
-0.000577781
4.02252e-05
-0.0022044
0.00140348
-0.00423801
0.00346543
-0.00669225
0.00633281
-0.00957578
0.0101018
-0.0128852
0.0148529
-0.0166008
0.0206463
-0.0206849
0.0275166
-0.0250821
0.0354705
-0.0297219
0.0444857
-0.0345232
0.0545127
-0.0394005
0.0654787
-0.0442697
0.077293
-0.0490544
0.089851
-0.0536921
0.10305
-0.0581237
0.116757
-0.062405
0.130945
-0.0660927
-0.0709317
0.145321
-4.47972e-05
0.000950942
-0.000104509
0.00178294
-6.83511e-05
0.00182619
0.000193141
0.00121607
0.000816995
2.79719e-05
0.00194248
-0.00170327
0.00370654
-0.00396846
0.00623988
-0.00677135
0.00966208
-0.0101144
0.0140747
-0.0139884
0.0195535
-0.018364
0.0261414
-0.0231887
0.0338421
-0.0283857
0.0426176
-0.0338576
0.0523889
-0.0394931
0.0630407
-0.045175
0.0744298
-0.0507895
0.086395
-0.0562349
0.0987685
-0.0614279
0.111387
-0.0663102
0.124108
-0.0708457
0.136758
-0.0750545
0.149432
-0.0787662
-0.0828741
0.161374
3.37909e-05
0.000203789
0.000621763
0.00142206
0.00275079
0.00475724
0.00758623
0.0113681
0.0162081
0.0221746
0.0292888
0.0375172
0.0467705
0.0569071
0.0677438
0.0790698
0.0906639
0.102312
0.113821
0.125035
0.135837
0.146152
0.15611
0.165312
-0.0238596
0.00682534
-0.0106535
-0.019549
0.0190985
-0.0234092
-0.0146824
0.0331026
-0.0379692
-0.00945193
0.0483312
-0.0535617
-0.00408943
0.0641658
-0.0695283
0.00114127
0.0798935
-0.0851242
0.00597862
0.0947651
-0.0996024
0.0102941
0.10806
-0.112375
0.0145773
0.118605
-0.122888
0.0195094
0.125621
-0.130553
0.0261403
0.127468
-0.134098
0.0353651
0.122196
-0.131421
0.0473741
0.108117
-0.120126
0.0614177
0.0846172
-0.0986608
0.0762637
0.0522956
-0.0671416
0.090903
0.0124618
-0.0271011
0.104745
-0.0324377
0.018596
0.117214
-0.0781366
0.0656674
0.127495
-0.11786
0.107579
0.134773
-0.146097
0.138818
0.13874
-0.161759
0.157792
0.139894
-0.16771
0.166556
0.139046
-0.16769
0.168538
0.136181
-0.165614
0.168479
0.130573
-0.166713
0.172321
0.122711
-0.173304
0.181166
0.115548
-0.177479
0.184643
0.112831
-0.161692
0.164409
0.116238
-0.113685
0.110277
0.124628
-0.0388287
0.0304386
0.134987
0.0428175
-0.053176
0.144559
0.112476
-0.122048
0.151783
0.160094
-0.167317
0.156308
0.18561
-0.190135
0.157541
0.198356
-0.199589
0.154496
0.21164
-0.208594
0.147673
0.23181
-0.224986
0.140075
0.238039
-0.230441
0.135534
0.207342
-0.202801
0.135826
0.124451
-0.124743
0.140473
0.0168773
-0.0215238
0.147085
-0.0880288
0.081417
0.153195
-0.162354
0.156244
0.155603
-0.203418
0.20101
0.152288
-0.233238
0.236553
0.144659
-0.24523
0.252859
0.137724
-0.252185
0.259119
0.135757
-0.185855
0.187822
0.139976
-0.0974831
0.0932643
0.146305
0.028571
-0.0349002
0.149582
0.133722
-0.136998
0.147603
0.206394
-0.204415
0.14344
0.29748
-0.293317
0.14136
0.255154
-0.253074
0.14288
0.240724
-0.242243
0.144662
0.0788681
-0.0806499
0.144661
-0.064186
0.0641864
0.143234
-0.155525
0.156953
0.141248
-0.363379
0.365365
-0.19613
0.1979
-0.0356821
0.00318205
-0.0312114
0.0146278
-0.0259229
0.0278141
-0.0199112
0.0423196
-0.0133258
0.0575804
-0.00636815
0.0729359
0.000754365
0.0876426
0.00855563
0.100258
0.0168906
0.11027
0.0263511
0.116161
0.0374958
0.116323
0.0505195
0.109173
0.0649855
0.0936508
0.0799199
0.0696827
0.0942424
0.0379732
0.107285
-0.000580784
0.11885
-0.0440026
0.128555
-0.0878422
0.135783
-0.125088
0.140061
-0.150375
0.1414
-0.163097
0.140398
-0.166707
0.13794
-0.165233
0.134122
-0.161796
0.127954
-0.160544
0.119282
-0.164633
0.110759
-0.168956
0.1067
-0.157634
0.109609
-0.116593
0.118554
-0.0477736
0.13027
0.0311012
0.141585
0.101161
0.15068
0.150999
0.156887
0.179403
0.159387
0.195856
0.157368
0.213658
0.151565
0.237613
0.144837
0.244766
0.140558
0.21162
0.140238
0.124772
0.143648
0.0134672
0.148629
-0.0930101
0.153375
-0.167101
0.154974
-0.205016
0.151297
-0.229561
0.143411
-0.237344
0.136363
-0.245137
0.134628
-0.184119
0.139265
-0.10212
0.146022
0.0218137
0.149497
0.130247
0.14778
0.20811
0.1437
0.301561
0.141616
0.257238
0.143328
0.239012
0.145327
0.0768692
0.145468
-0.0643269
0.143954
-0.154012
0.141886
-0.36131
-0.194353
-0.036928
-0.000139015
-0.0325801
0.0102799
-0.0271249
0.022359
-0.0205815
0.0357761
-0.0128755
0.0498744
-0.00444784
0.0645082
0.00540168
0.0777931
0.0160713
0.0895886
0.0277142
0.0986273
0.0405007
0.103374
0.0544954
0.102328
0.0694321
0.094236
0.0846188
0.0784641
0.0990782
0.0552233
0.111985
0.0250667
0.122961
-0.0115573
0.132056
-0.0530974
0.138953
-0.0947391
0.143174
-0.129309
0.144573
-0.151774
0.143508
-0.162032
0.140659
-0.163858
0.13686
-0.161434
0.132325
-0.157262
0.125975
-0.154194
0.116978
-0.155636
0.107366
-0.159344
0.101799
-0.152066
0.103755
-0.118549
0.112761
-0.0567799
0.125491
0.0183715
0.13837
0.0882818
0.149289
0.14008
0.157201
0.171491
0.161097
0.19196
0.160341
0.214414
0.155772
0.242183
0.149964
0.250574
0.145863
0.215721
0.144832
0.125803
0.146851
0.0114483
0.150177
-0.0963362
0.153516
-0.17044
0.154351
-0.20585
0.150442
-0.225652
0.142434
-0.229336
0.135293
-0.237997
0.13371
-0.182535
0.138654
-0.107065
0.145803
0.0146642
0.149512
0.126538
0.148097
0.209526
0.14408
0.305577
0.141959
0.259359
0.143883
0.237088
0.146137
0.0746149
0.146425
-0.0646152
0.144818
-0.152405
0.142658
-0.359151
-0.192579
-0.0275049
-0.00312524
-0.0233051
0.00608009
-0.0177825
0.0168364
-0.011188
0.0291816
-0.00308899
0.0417754
0.00722445
0.0541948
0.0186026
0.066415
0.0310819
0.0771092
0.044647
0.0850622
0.0591559
0.0888652
0.0743061
0.0871779
0.0895677
0.0789744
0.104178
0.0638539
0.117303
0.0420979
0.128352
0.0140182
0.137226
-0.0204314
0.143954
-0.0598261
0.148204
-0.0989887
0.149595
-0.1307
0.148302
-0.150481
0.145061
-0.158791
0.140651
-0.159449
0.135751
-0.156533
0.130647
-0.152157
0.124392
-0.14794
0.115625
-0.146869
0.105423
-0.149142
0.0983116
-0.144955
0.0987999
-0.119037
0.107262
-0.0652417
0.120618
0.00501524
0.134856
0.0740441
0.147517
0.127419
0.157142
0.161865
0.162567
0.186535
0.163295
0.213685
0.160144
0.245333
0.155298
0.25542
0.151276
0.219744
0.14943
0.127649
0.150061
0.0108169
0.151704
-0.0979786
0.153612
-0.172349
0.153704
-0.205941
0.149666
-0.221615
0.141658
-0.221328
0.134444
-0.230783
0.132931
-0.181022
0.138088
-0.112222
0.145611
0.00714134
0.149613
0.122536
0.148552
0.210587
0.144599
0.30953
0.142411
0.261547
0.144552
0.234947
0.147086
0.0720812
0.147528
-0.0650574
0.145821
-0.150697
0.143556
-0.356886
-0.190819
-0.00984419
-0.0056379
-0.00600773
0.00224363
-0.00093741
0.011766
0.00656267
0.0216815
0.0155861
0.0327519
0.0258752
0.0439057
0.0375974
0.0546928
0.0505864
0.0641202
0.064634
0.0710147
0.0793827
0.0741165
0.0943167
0.0722438
0.108784
0.0645069
0.122065
0.0505734
0.133498
0.0306648
0.142755
0.00476106
0.149772
-0.0274483
0.154363
-0.064417
0.156097
-0.100723
0.154797
-0.129399
0.151038
-0.146722
0.145899
-0.153652
0.140241
-0.153791
0.134531
-0.150823
0.129007
-0.146633
0.122999
-0.141931
0.114909
-0.138779
0.104753
-0.138986
0.096345
-0.136547
0.0949405
-0.117633
0.102248
-0.072549
0.115696
-0.00843262
0.130997
0.0587431
0.145248
0.113168
0.156559
0.150554
0.163629
0.179465
0.166046
0.211269
0.16448
0.2469
0.160639
0.259261
0.156648
0.223735
0.153934
0.130363
0.153156
0.0115948
0.153163
-0.0979863
0.153637
-0.172823
0.152999
-0.205303
0.148919
-0.217535
0.141018
-0.213427
0.133745
-0.223509
0.132222
-0.179499
0.137507
-0.117507
0.145401
-0.000752505
0.149776
0.11816
0.149142
0.211221
0.145272
0.3134
0.142994
0.263825
0.145339
0.232602
0.148166
0.0692536
0.148768
-0.0656596
0.146957
-0.148886
0.144571
-0.3545
-0.189081
0.0146358
-0.00772327
0.0183224
-0.00144292
0.02334
0.00674845
0.0296822
0.0153393
0.037848
0.0245862
0.047605
0.0341486
0.0588351
0.0434627
0.0713447
0.0516106
0.0848136
0.0575459
0.0987682
0.0601619
0.112605
0.0584075
0.125656
0.0514554
0.137289
0.0389403
0.147019
0.0209346
0.15479
-0.00300991
0.160214
-0.0328716
0.162894
-0.0670978
0.162289
-0.100117
0.158539
-0.12565
0.15265
-0.140833
0.145946
-0.146948
0.139331
-0.147177
0.133081
-0.144573
0.127278
-0.14083
0.121555
-0.136208
0.114434
-0.131658
0.104991
-0.129544
0.0958401
-0.127396
0.0924157
-0.114208
0.0979516
-0.0780849
0.110792
-0.0212726
0.126762
0.0427728
0.142354
0.0975759
0.155273
0.137636
0.164075
0.170662
0.168351
0.206993
0.168527
0.246724
0.165779
0.262009
0.161803
0.227711
0.158185
0.133981
0.156061
0.0137178
0.154501
-0.0964258
0.153557
-0.171879
0.152194
-0.20394
0.148141
-0.213482
0.140445
-0.205731
0.133122
-0.216187
0.131511
-0.177887
0.136844
-0.12284
0.14512
-0.00902865
0.149964
0.113316
0.149852
0.211333
0.146108
0.317144
0.143721
0.266213
0.146243
0.23008
0.149366
0.0661308
0.150135
-0.0664285
0.148217
-0.146969
0.145692
-0.351974
-0.187375
0.0443574
-0.00816903
0.0459968
-0.00308235
0.0494572
0.0032881
0.054453
0.0103435
0.0612589
0.0177803
0.0697392
0.0256683
0.0797616
0.0334403
0.0910771
0.0402951
0.103293
0.0453298
0.115888
0.0475669
0.128244
0.0460512
0.139728
0.0399717
0.149816
0.0288527
0.158109
0.0126413
0.16453
-0.00943097
0.168519
-0.03686
0.169349
-0.067928
0.166548
-0.0973164
0.160648
-0.119751
0.153025
-0.13321
0.145128
-0.13905
0.137837
-0.139885
0.131287
-0.138024
0.125355
-0.134898
0.119876
-0.130728
0.113784
-0.125566
0.105611
-0.12137
0.0964955
-0.118281
0.0913053
-0.109018
0.0945925
-0.0813721
0.106075
-0.0327549
0.122164
0.0266838
0.138738
0.0810018
0.153117
0.123256
0.163684
0.160096
0.169957
0.20072
0.172033
0.244648
0.170496
0.263546
0.166599
0.231608
0.162102
0.138479
0.158632
0.017187
0.155654
-0.0934476
0.153335
-0.169559
0.151243
-0.201849
0.147275
-0.209514
0.139869
-0.198325
0.132507
-0.208825
0.13073
-0.17611
0.13603
-0.128139
0.144708
-0.0177068
0.150132
0.107891
0.150659
0.210806
0.147107
0.320696
0.144602
0.268717
0.147264
0.227418
0.150672
0.0627231
0.151614
-0.0673713
0.149589
-0.144943
0.146905
-0.34929
-0.185711
0.0783251
-0.00614954
0.0777095
-0.00246672
0.0788256
0.00217198
0.0815682
0.00760089
0.0860853
0.0132632
0.0923976
0.0193559
0.100386
0.0254521
0.109775
0.0309062
0.120148
0.0349567
0.130977
0.0367379
0.141652
0.0353762
0.151559
0.0300646
0.160209
0.0202024
0.167204
0.00564659
0.17228
-0.014507
0.174687
-0.0392672
0.173573
-0.0668135
0.168709
-0.0924532
0.16102
-0.112061
0.152117
-0.124307
0.143426
-0.13036
0.135717
-0.132176
0.12905
-0.131357
0.12314
-0.128988
0.11786
-0.125449
0.112655
-0.120361
0.106028
-0.114743
0.0977697
-0.110023
0.0914666
-0.102715
0.0922935
-0.0821991
0.101802
-0.0422633
0.117287
0.0111992
0.134364
0.0639247
0.149972
0.107648
0.162264
0.147804
0.170598
0.192386
0.174683
0.240562
0.174507
0.263722
0.170809
0.235306
0.165501
0.143787
0.160838
0.0218501
0.156556
-0.089165
0.152927
-0.165931
0.150096
-0.199017
0.14626
-0.205678
0.139229
-0.191294
0.131836
-0.201432
0.129819
-0.174093
0.135001
-0.133322
0.144099
-0.026805
0.150224
0.101767
0.151526
0.209504
0.148259
0.323963
0.145644
0.271333
0.148394
0.224667
0.152073
0.0590449
0.153193
-0.0684917
0.151056
-0.142806
0.148195
-0.34643
-0.184103
0.113121
-0.00263137
0.110975
-0.000320397
0.109997
0.00315039
0.110566
0.0070312
0.112649
0.0111807
0.116445
0.0155592
0.121888
0.0200099
0.128766
0.0240277
0.136741
0.0269815
0.145345
0.0281348
0.154001
0.0267194
0.162095
0.0219708
0.169043
0.0132546
0.174643
4.61644e-05
0.17799
-0.0178534
0.178481
-0.0397584
0.175318
-0.0636507
0.168616
-0.0857513
0.159585
-0.10303
0.149882
-0.114603
0.140782
-0.12126
0.132887
-0.124281
0.126227
-0.124696
0.120463
-0.123224
0.115391
-0.120377
0.110844
-0.115815
0.105726
-0.109625
0.0989545
-0.103251
0.092451
-0.0962115
0.0911334
-0.0808815
0.0981366
-0.0492665
0.112278
-0.00294261
0.12926
0.0469426
0.145761
0.0911475
0.159646
0.133918
0.170079
0.181954
0.176323
0.234318
0.177641
0.262404
0.174247
0.238699
0.168294
0.14974
0.162547
0.0275974
0.157119
-0.0837368
0.152273
-0.161086
0.148689
-0.195433
0.145022
-0.202012
0.138464
-0.184735
0.131061
-0.194029
0.128731
-0.171763
0.133703
-0.138294
0.143231
-0.0363333
0.150174
0.0948232
0.152407
0.207272
0.149543
0.326827
0.14684
0.274036
0.149627
0.22188
0.15355
0.0551217
0.154853
-0.0697944
0.152601
-0.140554
0.149546
-0.343375
-0.182567
0.141756
0.000933462
0.138798
0.00263767
0.137183
0.00476587
0.136692
0.00752132
0.137344
0.0105292
0.139324
0.0135788
0.142644
0.0166901
0.147182
0.01949
0.152716
0.0214476
0.158895
0.021956
0.165234
0.0203795
0.171187
0.0160181
0.176173
0.00826872
0.1798
-0.00358095
0.181075
-0.0191282
0.179422
-0.0381053
0.174308
-0.0585372
0.166162
-0.0776052
0.156307
-0.0931748
0.146257
-0.104554
0.137068
-0.112071
0.129178
-0.11639
0.122608
-0.118127
0.117074
-0.11769
0.112278
-0.115581
0.108206
-0.111743
0.104332
-0.105751
0.0993347
-0.0982536
0.0935619
-0.0904388
0.0908297
-0.0781492
0.0952798
-0.0537166
0.107284
-0.0149468
0.123537
0.0306899
0.140485
0.0741995
0.155729
0.118674
0.168144
0.169539
0.17654
0.225922
0.179534
0.25941
0.176704
0.241529
0.170287
0.156157
0.163697
0.0341873
0.157283
-0.0773228
0.151337
-0.155139
0.146983
-0.191079
0.1435
-0.198528
0.137524
-0.17876
0.130163
-0.186667
0.127445
-0.169044
0.132084
-0.142933
0.142039
-0.0462889
0.149917
0.0869458
0.15324
0.203948
0.150922
0.329144
0.148179
0.27678
0.150951
0.219108
0.155086
0.0509874
0.156574
-0.0712831
0.154205
-0.138184
0.150945
-0.340115
-0.181129
0.158355
0.00395209
0.156121
0.00487231
0.154629
0.00625792
0.154059
0.00809123
0.154386
0.0102024
0.155585
0.0123789
0.157808
0.0144679
0.160938
0.0163599
0.164783
0.0176019
0.169056
0.0176835
0.173387
0.0160479
0.177291
0.0121146
0.180095
0.00546459
0.181573
-0.00505863
0.180886
-0.0184415
0.177341
-0.0345603
0.170763
-0.0519589
0.161804
-0.0686465
0.151726
-0.0830967
0.141779
-0.0946067
0.13278
-0.103072
0.125046
-0.108656
0.118606
-0.111687
0.113289
-0.112374
0.108782
-0.111073
0.105028
-0.107989
0.101978
-0.102701
0.0986154
-0.0948911
0.0942026
-0.086026
0.0909795
-0.0749261
0.0931223
-0.0558594
0.102609
-0.0244332
0.117365
0.0159337
0.134182
0.0573829
0.150517
0.102338
0.164942
0.155114
0.175674
0.21519
0.180437
0.254648
0.178189
0.243777
0.171633
0.162712
0.164298
0.0415222
0.157145
-0.0701694
0.15023
-0.148224
0.145098
-0.185947
0.141742
-0.195172
0.136423
-0.173441
0.129185
-0.179429
0.126003
-0.165863
0.130154
-0.147084
0.140458
-0.056593
0.14937
0.0780338
0.153966
0.199352
0.152358
0.330752
0.149637
0.279501
0.15235
0.216395
0.156663
0.0466743
0.158338
-0.072958
0.155847
-0.135693
0.152382
-0.33665
-0.179814
0.163738
0.00552598
0.162236
0.00637443
0.161198
0.00729563
0.160863
0.00842655
0.161273
0.00979245
0.162396
0.0112555
0.164171
0.0126933
0.166559
0.0139715
0.169409
0.0147519
0.172467
0.0146257
0.175403
0.0131116
0.177833
0.00968483
0.179466
0.00383165
0.179191
-0.00478391
0.176887
-0.016137
0.172118
-0.0297919
0.164951
-0.0447916
0.156081
-0.0597762
0.146534
-0.0735495
0.13723
-0.0853029
0.128764
-0.0946061
0.121384
-0.101276
0.115137
-0.105439
0.109976
-0.107213
0.105681
-0.106778
0.1021
-0.104408
0.0994215
-0.100023
0.0972064
-0.092676
0.0943005
-0.08312
0.0913822
-0.0720078
0.0918465
-0.0563238
0.0985333
-0.03112
0.111186
0.00328138
0.127039
0.0415291
0.143622
0.0857558
0.159414
0.139321
0.172406
0.202198
0.179333
0.247721
0.178272
0.244838
0.171961
0.169023
0.16447
0.0490138
0.156629
-0.0623283
0.14899
-0.140585
0.143158
-0.180115
0.139849
-0.191863
0.135191
-0.168783
0.128165
-0.172403
0.124458
-0.162156
0.128056
-0.150681
0.138557
-0.0670943
0.148507
0.068084
0.154478
0.193381
0.153781
0.331449
0.151194
0.282087
0.1538
0.213789
0.158274
0.0421994
0.160112
-0.0747956
0.157522
-0.133103
0.153856
-0.332984
-0.178634
0.186328
0.00738544
-0.188187
0.184975
0.00772733
0.183893
0.00837744
0.183117
0.00920286
0.182759
0.0101499
0.182877
0.0111377
0.183535
0.0120358
0.184836
0.0126703
0.186823
0.0127644
0.189485
0.0119644
0.192729
0.00986759
0.196311
0.0061019
0.199816
0.000327575
0.202822
-0.00779013
0.204729
-0.0180441
0.204976
-0.0300392
0.203236
-0.0430513
0.199574
-0.0561147
0.194341
-0.0683159
0.187972
-0.0789346
0.180895
-0.0875287
0.173469
-0.0938502
0.16596
-0.0979301
0.158582
-0.0998354
0.151427
-0.0996231
0.144403
-0.0973839
0.137658
-0.0932778
0.131299
-0.0863172
0.124494
-0.0763152
0.116666
-0.0641797
0.109644
-0.0493016
0.106853
-0.0283291
0.109707
0.000427284
0.116385
0.0348515
0.124055
0.078086
0.131036
0.13234
0.137373
0.19586
0.143949
0.241146
0.152034
0.236753
0.161638
0.159419
0.169187
0.0414651
0.172049
-0.0651911
0.169186
-0.137722
0.163346
-0.174275
0.157131
-0.185647
0.149735
-0.161388
0.14053
-0.163198
0.133424
-0.15505
0.131276
-0.148533
0.133764
-0.0695823
0.136491
0.0653574
0.137374
0.192498
0.136639
0.332185
0.13728
0.281446
0.143185
0.207884
0.149879
0.0355053
0.151647
-0.0765634
0.148617
-0.130074
0.142795
-0.327162
-0.175159
0.198394
0.00827809
-0.199287
0.197721
0.00840036
0.197281
0.00881743
0.197118
0.00936604
0.197306
0.0099622
0.197911
0.0105325
0.198986
0.010961
0.20057
0.0110863
0.202656
0.0106782
0.205177
0.00944322
0.207983
0.00706182
0.210834
0.00325112
0.213449
-0.00228788
0.215346
-0.00968657
0.216112
-0.0188102
0.215391
-0.0293183
0.212999
-0.0406594
0.208988
-0.0521038
0.2036
-0.0629283
0.197178
-0.0725127
0.190096
-0.0804466
0.182705
-0.0864592
0.17526
-0.090485
0.167933
-0.0925085
0.160851
-0.0925407
0.153938
-0.0904713
0.147202
-0.0865419
0.140921
-0.0800363
0.134736
-0.07013
0.127747
-0.057191
0.120676
-0.0422303
0.116492
-0.024145
0.117591
-0.000672015
0.123348
0.0290949
0.131081
0.0703534
0.138949
0.124471
0.146557
0.188252
0.154743
0.23296
0.164559
0.226937
0.17515
0.148828
0.183151
0.0334642
0.185467
-0.0675078
0.181676
-0.133932
0.174654
-0.167253
0.167632
-0.178625
0.159892
-0.153649
0.150374
-0.15368
0.142594
-0.14727
0.139822
-0.145761
0.142228
-0.0719885
0.145375
0.0622108
0.14705
0.190823
0.147073
0.332162
0.148069
0.28045
0.154307
0.201646
0.16124
0.0285722
0.162965
-0.0782883
0.159261