/*--------------------------------*- C++ -*----------------------------------*\
| =========                 |                                                 |
| \\      /  F ield         | OpenFOAM: The Open Source CFD Toolbox           |
|  \\    /   O peration     | Version:  2512                                  |
|   \\  /    A nd           | Website:  www.openfoam.com                      |
|    \\/     M anipulation  |                                                 |
\*---------------------------------------------------------------------------*/
FoamFile
{
    version     2.0;
    format      ascii;
    arch        "LSB;label=32;scalar=64";
    class       surfaceScalarField;
    location    "153";
    object      phi;
}
// * * * * * * * * * * * * * * * * * * * * * * * * * * * * * * * * * * * * * //

dimensions      [0 3 -1 0 0 0 0];

oriented        oriented;

internalField   nonuniform List<scalar> 
26232
(
0.000179911
0.000936564
-0.00111647
0.000893352
0.00151462
-0.00222807
0.00228944
0.000904161
-0.00230025
0.00450767
-0.000865579
-0.00135265
0.00768898
-0.00377329
0.000591975
0.0119708
-0.00779642
0.00351459
0.0174698
-0.0128979
0.00739888
0.0242579
-0.0190089
0.0122207
0.0323342
-0.0260129
0.0179366
0.0416028
-0.0337369
0.0244683
0.051863
-0.0419531
0.0316929
0.0628178
-0.0503939
0.0394392
0.0740989
-0.058775
0.0474939
0.0853071
-0.0668244
0.0556163
0.0960582
-0.0743099
0.0635588
0.106029
-0.0810614
0.0710908
0.114992
-0.0869831
0.0780201
0.122836
-0.0920563
0.084212
0.12957
-0.0963284
0.089595
0.135296
-0.0999004
0.0941739
0.140184
-0.102877
0.0979889
0.1444
-0.105434
0.101218
0.147902
-0.107417
0.103915
-0.109507
0.106683
0.150725
0.000206912
0.000729652
0.0010545
0.000667035
0.00273919
-0.000780529
0.00543849
-0.00356488
0.00931517
-0.00764997
0.0145011
-0.0129823
0.0210688
-0.0194656
0.0290003
-0.0269403
0.0381623
-0.035175
0.048301
-0.0438755
0.059058
-0.0527101
0.07001
-0.0613459
0.0807214
-0.0694865
0.0908008
-0.0769038
0.0999488
-0.083458
0.10799
-0.0891026
0.114882
-0.0938755
0.120705
-0.0978785
0.125627
-0.101251
0.129867
-0.104141
0.133674
-0.106684
0.137248
-0.109008
0.140949
-0.111118
-0.113442
0.144884
0.000267024
0.000462628
0.00132432
-0.00039026
0.00340233
-0.00285854
0.0067005
-0.00686305
0.0113767
-0.0123262
0.0175159
-0.0191215
0.025093
-0.0270428
0.0339461
-0.0357934
0.043773
-0.0450018
0.0541592
-0.0542617
0.0646323
-0.0631832
0.0747296
-0.0714432
0.0840634
-0.0788203
0.0923697
-0.0852101
0.0995311
-0.0906193
0.105571
-0.0951429
0.110628
-0.0989317
0.114907
-0.102158
0.118641
-0.104985
0.122054
-0.107553
0.125331
-0.109961
0.128617
-0.112294
0.132037
-0.114539
-0.116962
0.135557
0.000359602
0.000103026
0.00169864
-0.0017293
0.00426121
-0.00542111
0.00824076
-0.0108426
0.013749
-0.0178344
0.0207717
-0.0261442
0.0291344
-0.0354055
0.0385
-0.045159
0.0484065
-0.0549083
0.0583378
-0.064193
0.0678078
-0.0726532
0.0764343
-0.0800697
0.083986
-0.086372
0.0903942
-0.0916183
0.0957322
-0.0959574
0.100172
-0.0995833
0.103936
-0.102695
0.107245
-0.105467
0.110297
-0.108037
0.113246
-0.110501
0.116207
-0.112923
0.119262
-0.115348
0.122492
-0.117769
-0.120374
0.125905
0.000479008
-0.000375982
0.00215582
-0.00340612
0.00526121
-0.00852649
0.00994437
-0.0155258
0.016221
-0.0241111
0.0239269
-0.0338501
0.0327084
-0.0441869
0.0420658
-0.0545164
0.0514414
-0.0642839
0.0603207
-0.0730723
0.0683178
-0.0806504
0.0752214
-0.0869732
0.0809955
-0.0921461
0.0857456
-0.0963683
0.0896635
-0.0998753
0.0929725
-0.102892
0.0958836
-0.105606
0.0985715
-0.108155
0.101168
-0.110633
0.103765
-0.113099
0.106427
-0.115586
0.109195
-0.118116
0.112112
-0.120686
-0.123402
0.11514
0.000618
-0.000993983
0.00266592
-0.00545404
0.00632815
-0.0121887
0.0116644
-0.020862
0.0185449
-0.0309917
0.0266234
-0.0419285
0.0353762
-0.0529397
0.0442036
-0.0633438
0.0525525
-0.0726328
0.0600168
-0.0805366
0.066386
-0.0870196
0.0716395
-0.0922267
0.0758999
-0.0964065
0.0793695
-0.099838
0.0822711
-0.102777
0.0848062
-0.105427
0.0871352
-0.107935
0.0893742
-0.110394
0.0916026
-0.112862
0.093873
-0.115369
0.0962208
-0.117933
0.0986693
-0.120564
0.101245
-0.123261
-0.126081
0.103923
0.000768942
-0.00176292
0.00319549
-0.0078806
0.00737935
-0.0163726
0.0132444
-0.0267271
0.0204797
-0.0382269
0.0285578
-0.0500067
0.0368399
-0.0612218
0.0447205
-0.0712244
0.0517504
-0.0796628
0.0576968
-0.086483
0.0625343
-0.0918571
0.0663896
-0.0960821
0.0694699
-0.0994868
0.071998
-0.102366
0.0741708
-0.10495
0.0761407
-0.107397
0.0780149
-0.109809
0.0798644
-0.112244
0.0817345
-0.114732
0.0836548
-0.117289
0.0856453
-0.119924
0.087719
-0.122638
0.08989
-0.125432
-0.128328
0.0921372
0.000923796
-0.00268672
0.00370899
-0.0106658
0.00833001
-0.0209936
0.0145367
-0.0329338
0.0218267
-0.045517
0.029533
-0.057713
0.0369861
-0.0686749
0.043668
-0.0779062
0.0492943
-0.0852891
0.0538122
-0.0910008
0.0573392
-0.0953841
0.0600824
-0.0988253
0.0622669
-0.101671
0.0640903
-0.104189
0.0657031
-0.106563
0.0672092
-0.108903
0.0686752
-0.111275
0.0701426
-0.113711
0.0716376
-0.116227
0.0731779
-0.11883
0.0747759
-0.121522
0.0764409
-0.124303
0.0781819
-0.127173
-0.130133
0.0799869
0.00107358
-0.0037603
0.0041694
-0.0137616
0.00909942
-0.0259236
0.0154187
-0.0392531
0.0224573
-0.0525555
0.0294794
-0.0647351
0.0358728
-0.0750683
0.0412686
-0.083302
0.0455578
-0.0895784
0.0488317
-0.0942747
0.0512908
-0.0978432
0.053164
-0.100698
0.0546544
-0.103162
0.0559166
-0.105452
0.0570559
-0.107702
0.0581383
-0.109986
0.0592035
-0.11234
0.0602758
-0.114783
0.0613712
-0.117322
0.0625009
-0.119959
0.0636732
-0.122694
0.064895
-0.125525
0.0661711
-0.128449
-0.131458
0.0674956
0.00120814
-0.00496843
0.0045403
-0.0170938
0.00961902
-0.0310023
0.0158089
-0.0454429
0.0223248
-0.0590714
0.0284434
-0.0708537
0.033675
-0.0803
0.0378194
-0.0874463
0.0409164
-0.0926753
0.043149
-0.0965073
0.0447481
-0.0994424
0.0459267
-0.101877
0.046849
-0.104084
0.0476265
-0.106229
0.0483284
-0.108404
0.0489948
-0.110652
0.0496497
-0.112995
0.0503078
-0.115441
0.0509795
-0.117994
0.0516728
-0.120653
0.0523937
-0.123415
0.0531474
-0.126279
0.053937
-0.129239
-0.132283
0.0547626
0.00131753
-0.00628596
0.00479079
-0.020567
0.00984161
-0.0360532
0.0156741
-0.0512754
0.0214578
-0.0648551
0.0265514
-0.0759473
0.0306201
-0.0843687
0.0336175
-0.0904438
0.0356889
-0.0947467
0.0370603
-0.0978788
0.0379563
-0.100338
0.0385556
-0.102476
0.0389817
-0.10451
0.0393105
-0.106558
0.0395857
-0.108679
0.0398315
-0.110898
0.0400626
-0.113226
0.0402888
-0.115668
0.0405175
-0.118223
0.0407544
-0.120889
0.0410041
-0.123665
0.0412699
-0.126544
0.041553
-0.129522
-0.132586
0.0418555
0.0013961
-0.00768206
0.00490249
-0.0240734
0.00974824
-0.0408989
0.0150297
-0.0565569
0.0199426
-0.069768
0.0239741
-0.0799788
0.0269444
-0.087339
0.0289275
-0.0924269
0.0301289
-0.0959481
0.0307813
-0.0985311
0.031082
-0.100639
0.0311719
-0.102566
0.0311386
-0.104477
0.0310322
-0.106452
0.0308795
-0.108526
0.0306954
-0.110714
0.0304893
-0.11302
0.0302681
-0.115446
0.0300374
-0.117992
0.0298022
-0.120654
0.0295662
-0.123429
0.0293321
-0.12631
0.0291
-0.12929
0.0288739
-0.132359
-0.000312033
0.00186548
-0.00155345
-0.00107718
0.00394395
-0.0031788
-0.0021939
0.0049082
-0.00379149
-0.00358938
0.00508535
-0.00368987
-0.00521027
0.00473174
-0.00311084
-0.00701759
0.00403151
-0.0022242
-0.00898196
0.00309746
-0.00113309
-0.0110793
0.00198026
0.000117072
-0.0132873
0.000682779
0.00152525
-0.0155885
-0.000815266
0.00311641
-0.0179611
-0.00255498
0.00492758
-0.0203825
-0.00457466
0.00699612
-0.0228265
-0.0069095
0.00935344
-0.0252615
-0.00958609
0.0120211
-0.0276503
-0.0126196
0.0150084
-0.0299487
-0.0160111
0.0183096
-0.0321056
-0.0197444
0.0219013
-0.0340633
-0.0237818
0.0257395
-0.0357582
-0.0280614
0.0297563
-0.037124
-0.0324938
0.0338596
-0.0380944
-0.0369633
0.0379337
-0.0386062
-0.0413299
0.0418417
-0.038613
-0.0454234
0.0454302
-0.049045
-0.0381257
0.0485577
-0.00026756
0.00213304
-0.000948831
0.00462522
-0.00196773
0.0059271
-0.00326261
0.00638024
-0.00478238
0.0062515
-0.00648575
0.00573489
-0.00834003
0.00495173
-0.0103193
0.00395952
-0.012404
0.00276752
-0.014573
0.00135369
-0.0168134
-0.000314584
-0.0191088
-0.00227926
-0.0214407
-0.0045776
-0.0237879
-0.00723887
-0.0261258
-0.0102818
-0.0284258
-0.0137111
-0.0306559
-0.0175143
-0.03278
-0.0216577
-0.0347591
-0.0260823
-0.0365528
-0.0307002
-0.0381228
-0.0353933
-0.0394353
-0.0400173
-0.0404586
-0.0444002
-0.0483017
-0.0412019
-0.000195046
0.00232809
-0.000727262
0.00515744
-0.0015548
0.00675463
-0.00263157
0.00745701
-0.00391045
0.00753038
-0.00534754
0.00717197
-0.00690464
0.00650883
-0.00855012
0.005605
-0.0102585
0.00447594
-0.01201
0.00310513
-0.0137825
0.00145789
-0.0155613
-0.000500376
-0.0173312
-0.00280773
-0.0190727
-0.0054974
-0.0207666
-0.00858787
-0.0223935
-0.0120841
-0.0239346
-0.0159732
-0.0253716
-0.0202207
-0.0266874
-0.0247665
-0.0278664
-0.0295211
-0.0288978
-0.0343619
-0.0297804
-0.0391347
-0.0305076
-0.043673
-0.0477595
-0.0310498
-0.000102705
0.00243079
-0.000435018
0.00548975
-0.000993896
0.00731351
-0.0017521
0.00821522
-0.00266854
0.00844682
-0.00369717
0.0082006
-0.00479315
0.00760481
-0.00591618
0.00672803
-0.00703169
0.00559144
-0.00811031
0.00418375
-0.00912723
0.00247482
-0.0100485
0.000420861
-0.0108643
-0.00199191
-0.0115441
-0.00481762
-0.0120659
-0.00806601
-0.0124097
-0.0117404
-0.0125616
-0.0158213
-0.0125107
-0.0202717
-0.0122562
-0.0250209
-0.011805
-0.0299724
-0.0111695
-0.0349974
-0.0103737
-0.0399305
-0.00947007
-0.0445767
-0.0488048
-0.00842477
-2.93482e-06
0.00243373
-0.000108003
0.00559482
-0.000349494
0.007555
-0.000719602
0.00858533
-0.00118495
0.00891217
-0.00169879
0.00871445
-0.00220991
0.00811592
-0.00266832
0.00718645
-0.00302792
0.00595104
-0.00324676
0.00440259
-0.00328641
0.00251447
-0.00311568
0.000250131
-0.00268867
-0.00241892
-0.00197781
-0.00552847
-0.000951235
-0.00909258
0.000417697
-0.0131093
0.00215243
-0.0175561
0.00425729
-0.0223765
0.00672654
-0.0274901
0.00953702
-0.0327828
0.0126529
-0.0381133
0.0160398
-0.0433174
0.019629
-0.0481659
-0.0524574
0.0232816
9.06112e-05
0.00234311
0.000211823
0.00547361
0.000300924
0.0074659
0.000348771
0.00853748
0.000380707
0.00888023
0.000442718
0.00865243
0.000590883
0.00796776
0.00088426
0.00689307
0.00138081
0.00545449
0.00213575
0.00364765
0.00320163
0.00144859
0.0046271
-0.00117534
0.00646481
-0.00425664
0.00875816
-0.00782182
0.0115476
-0.0118821
0.0148657
-0.0164274
0.0187303
-0.0214206
0.0231463
-0.0267925
0.0280966
-0.0324404
0.0335434
-0.0382297
0.0394286
-0.0439985
0.0456866
-0.0495754
0.0522163
-0.0546956
-0.0594051
0.059164
0.000165492
0.00217762
0.000485187
0.00515392
0.000881993
0.00706909
0.00133653
0.00808294
0.00186795
0.00834882
0.00252098
0.0079994
0.00335547
0.00713327
0.00443856
0.00580998
0.00583971
0.00405334
0.00762806
0.0018593
0.00987096
-0.000794316
0.0126334
-0.00393778
0.0159763
-0.00759951
0.0199526
-0.0117982
0.024604
-0.0165334
0.0299549
-0.0217783
0.0360076
-0.0274733
0.0427381
-0.033523
0.050094
-0.0397964
0.0579966
-0.0461323
0.0663457
-0.0523476
0.0750321
-0.0582618
0.0839591
-0.0636226
-0.0686564
0.0932104
0.000213454
0.00196417
0.000683724
0.00468365
0.00133693
0.00641588
0.002153
0.00726688
0.00314977
0.00735204
0.00437278
0.0067764
0.00588626
0.00561979
0.00776579
0.00393044
0.0100928
0.00172638
0.0129505
-0.000998453
0.016421
-0.00426484
0.0205803
-0.00809704
0.0254943
-0.0125135
0.0312119
-0.0175157
0.0377574
-0.0230789
0.0451233
-0.0291443
0.0532651
-0.0356151
0.0620986
-0.0423565
0.071504
-0.0492018
0.0813319
-0.0559602
0.0914265
-0.0624421
0.101616
-0.0684511
0.111793
-0.0737996
-0.0787266
0.121863
0.000232022
0.00173215
0.000796776
0.00411889
0.00164169
0.00557097
0.00275748
0.0061511
0.00416836
0.00594116
0.00592582
0.00501893
0.00810213
0.00344348
0.0107837
0.00124886
0.0140654
-0.00155531
0.0180433
-0.00497632
0.0228075
-0.00902906
0.0284346
-0.0137242
0.034977
-0.0190559
0.0424524
-0.0249911
0.0508341
-0.0314606
0.0600451
-0.0383553
0.0699572
-0.0455272
0.0803965
-0.0527958
0.0911566
-0.0599619
0.102015
-0.0668188
0.112764
-0.0731914
0.123203
-0.0788896
0.133266
-0.0838622
-0.0881478
0.142687
0.000225523
0.00150662
0.000835603
0.00350881
0.00181478
0.00459179
0.00317646
0.00478942
0.00496102
0.0041566
0.00723377
0.00274618
0.0100808
0.000596456
0.0136032
-0.00227359
0.0179063
-0.00585836
0.0230904
-0.0101604
0.0292375
-0.0151762
0.0363969
-0.0208836
0.0445705
-0.0272296
0.0537019
-0.0341224
0.0636698
-0.0414285
0.0742906
-0.0489762
0.0853293
-0.0565658
0.096519
-0.0639855
0.107587
-0.0710296
0.118284
-0.0775161
0.128406
-0.0833131
0.137813
-0.0882967
0.146486
-0.0925354
-0.0958669
0.154205
0.000204757
0.00130187
0.000832982
0.00288059
0.00191776
0.00350701
0.00350591
0.00320127
0.00566421
0.0019983
0.00847898
-6.86016e-05
0.0120571
-0.00298168
0.0165083
-0.0067248
0.0219381
-0.0112881
0.0284272
-0.0166495
0.0360131
-0.022762
0.0446718
-0.0295423
0.0543062
-0.036864
0.0647416
-0.0445578
0.0757334
-0.0524203
0.0869853
-0.060228
0.0981768
-0.0677573
0.108997
-0.0748056
0.119177
-0.0812094
0.128527
-0.0868664
0.13694
-0.0917265
0.144457
-0.0958136
0.151119
-0.0991967
-0.101707
0.156959
0.000185391
0.000837912
0.00204467
0.00389329
0.00648357
0.00992956
0.0143468
0.0198427
0.0264912
0.03431
0.0432408
0.0531376
0.0637676
0.074826
0.0859645
0.0968272
0.10709
0.116497
0.124882
0.13219
0.138452
0.143857
0.148575
0.153551
-0.0349156
-0.0725708
0.0693606
-0.0303063
-0.0762743
0.0716651
-0.0242011
-0.0772893
0.071184
-0.0165417
-0.0750644
0.067405
-0.00742296
-0.0688989
0.0597801
0.00303924
-0.0583692
0.0479071
0.0144897
-0.0432295
0.031779
0.0264348
-0.0233297
0.0113846
0.0384608
0.000439185
-0.0124652
0.0504031
0.0274232
-0.0393655
0.0621908
0.0558315
-0.0676193
0.0734944
0.0835993
-0.0949029
0.083707
0.108236
-0.118448
0.0921231
0.127611
-0.136027
0.0981281
0.14083
-0.146835
0.101112
0.148846
-0.15183
0.100568
0.154477
-0.153933
0.0969904
0.160404
-0.156826
0.0926844
0.165387
-0.161081
0.0910821
0.162349
-0.160747
0.0945525
0.141943
-0.145413
0.102861
0.0995769
-0.107885
0.114231
0.038708
-0.0500787
0.126449
-0.0296789
0.0174611
0.137601
-0.0925266
0.0813744
0.146116
-0.139126
0.130611
0.1512
-0.166948
0.161864
0.153253
-0.179949
0.177896
0.153135
-0.18325
0.183368
0.150651
-0.182997
0.185481
0.144884
-0.186939
0.192707
0.136529
-0.197413
0.205768
0.128906
-0.199608
0.207232
0.125728
-0.171846
0.175024
0.128218
-0.103041
0.100551
0.134975
-0.0106742
0.00391753
0.14328
0.0798823
-0.0881879
0.151032
0.146394
-0.154146
0.156334
0.186242
-0.191544
0.157197
0.212624
-0.213488
0.152733
0.235209
-0.230744
0.144953
0.256603
-0.248824
0.138097
0.240655
-0.233799
0.135939
0.181866
-0.179709
0.138983
0.067301
-0.070345
0.145533
-0.0462992
0.03975
0.151464
-0.139392
0.133461
0.152689
-0.201845
0.200619
0.148205
-0.233467
0.237951
0.141838
-0.275763
0.28213
0.138624
-0.230373
0.233587
0.14095
-0.179481
0.177156
0.145263
-0.0371846
0.0328713
0.147071
0.0852823
-0.0870904
0.145474
0.181883
-0.180286
0.143076
0.321537
-0.31914
0.142245
0.248431
-0.247601
0.142257
0.267142
-0.267154
0.141198
0.0639479
-0.0628886
-0.146711
0.14864
-0.0409785
-0.0727942
-0.0395476
-0.0777052
-0.0365771
-0.0802598
-0.0317906
-0.0798508
-0.0249794
-0.0757101
-0.0161919
-0.0671567
-0.0057026
-0.0537188
0.00667564
-0.0357079
0.0201781
-0.0130633
0.0339664
0.0136349
0.0478326
0.0419654
0.0613719
0.0700599
0.0739385
0.095669
0.0847174
0.116832
0.0928631
0.132684
0.0976321
0.144077
0.0988647
0.153244
0.0977499
0.161519
0.0969064
0.16623
0.0991063
0.160149
0.105368
0.135681
0.114663
0.090282
0.125365
0.0280062
0.135693
-0.0400072
0.144373
-0.101206
0.150329
-0.145082
0.153117
-0.169736
0.153224
-0.180056
0.151621
-0.181648
0.148246
-0.179621
0.141933
-0.180627
0.132902
-0.188382
0.124398
-0.191105
0.120661
-0.168109
0.123355
-0.105735
0.131104
-0.0184234
0.140915
0.0700713
0.150294
0.137015
0.156989
0.179546
0.158857
0.210757
0.155232
0.238834
0.14822
0.263616
0.141806
0.247069
0.139366
0.184306
0.141367
0.0653002
0.146683
-0.0516154
0.151717
-0.144426
0.152549
-0.202677
0.147819
-0.228737
0.14136
-0.269304
0.138224
-0.227237
0.140628
-0.181885
0.144989
-0.0415458
0.146758
0.083514
0.145345
0.183296
0.14304
0.323842
0.142356
0.249115
0.142688
0.266811
0.141842
0.0647941
-0.144845
-0.0337912
-0.0700528
-0.0358869
-0.0756094
-0.0367697
-0.0793769
-0.0360011
-0.0806195
-0.0330254
-0.0786858
-0.0274903
-0.0726918
-0.0192347
-0.0619745
-0.00868745
-0.0462551
0.00417614
-0.0259269
0.019172
-0.00136096
0.0345064
0.026631
0.0499106
0.0546557
0.0645254
0.0810542
0.077374
0.103984
0.087497
0.122561
0.0942562
0.137318
0.0979149
0.149585
0.100047
0.159386
0.103072
0.163205
0.108793
0.154428
0.117168
0.127306
0.126813
0.0806372
0.136223
0.0185961
0.144471
-0.0482553
0.150571
-0.107307
0.15396
-0.148471
0.154559
-0.170334
0.152908
-0.178406
0.149991
-0.178731
0.145916
-0.175546
0.139377
-0.174087
0.130003
-0.179008
0.120726
-0.181828
0.116228
-0.163611
0.118842
-0.108348
0.127314
-0.0268953
0.138454
0.0589306
0.149376
0.126094
0.157479
0.171444
0.160496
0.20774
0.157926
0.241404
0.151837
0.269704
0.145884
0.253023
0.143099
0.187091
0.143956
0.064443
0.147923
-0.0555825
0.152
-0.148503
0.152474
-0.203151
0.147565
-0.223828
0.141009
-0.262748
0.137902
-0.22413
0.140362
-0.184345
0.144808
-0.045992
0.146573
0.0817488
0.145329
0.18454
0.143087
0.326085
0.142565
0.249637
0.143271
0.266105
0.142673
0.0653922
-0.143051
-0.0133907
-0.0650869
-0.018474
-0.070526
-0.0230072
-0.0748438
-0.0266679
-0.0769588
-0.0284584
-0.0768953
-0.0276551
-0.0734952
-0.0236687
-0.0659608
-0.0163256
-0.0535983
-0.00600197
-0.0362505
0.00744932
-0.0148123
0.02303
0.0110503
0.0393439
0.0383419
0.0553481
0.06505
0.0698978
0.089434
0.081981
0.110478
0.0911163
0.128182
0.0978291
0.142872
0.103686
0.153529
0.110564
0.156328
0.119313
0.145679
0.129103
0.117517
0.13843
0.0713101
0.146438
0.0105881
0.152508
-0.0543257
0.156096
-0.110895
0.157
-0.149375
0.155532
-0.168866
0.152315
-0.175189
0.148238
-0.174654
0.14358
-0.170888
0.137065
-0.167573
0.127743
-0.169686
0.117925
-0.17201
0.112527
-0.158213
0.114711
-0.110533
0.123554
-0.0357388
0.135842
0.0466434
0.148197
0.113738
0.157721
0.16192
0.162038
0.203423
0.160726
0.242716
0.155688
0.274742
0.150219
0.258492
0.147053
0.190257
0.146682
0.0648139
0.14923
-0.0581303
0.152292
-0.151565
0.152429
-0.203288
0.147403
-0.218802
0.140736
-0.256082
0.137608
-0.221001
0.140108
-0.186845
0.144693
-0.0505772
0.146508
0.0799338
0.145423
0.185624
0.143221
0.328287
0.142875
0.249983
0.14401
0.264969
0.143693
0.065709
-0.141337
0.0169847
-0.0587901
0.0098721
-0.0634134
0.00237185
-0.0673435
-0.00445277
-0.0701341
-0.0104743
-0.0708737
-0.0146666
-0.069303
-0.0160144
-0.0646129
-0.0137328
-0.05588
-0.00775598
-0.0422273
0.00171835
-0.0242866
0.0156965
-0.0029279
0.0312658
0.0227726
0.047526
0.0487898
0.0631306
0.0738294
0.0769844
0.0966239
0.088667
0.1165
0.0986686
0.132871
0.108235
0.143963
0.118558
0.146004
0.129674
0.134563
0.140301
0.10689
0.149107
0.0625035
0.155623
0.00407305
0.159614
-0.0583168
0.1608
-0.112081
0.15933
-0.147906
0.155945
-0.16548
0.151374
-0.170618
0.146333
-0.169613
0.1412
-0.165755
0.134886
-0.161258
0.125982
-0.160783
0.115966
-0.161993
0.109643
-0.15189
0.111029
-0.111919
0.119896
-0.0446052
0.133032
0.0335074
0.146666
0.100104
0.157608
0.150977
0.163368
0.197664
0.163501
0.242583
0.15963
0.278613
0.154656
0.263466
0.151087
0.193826
0.149494
0.0664067
0.150571
-0.0592067
0.152565
-0.153559
0.15238
-0.203104
0.147295
-0.213717
0.140502
-0.249288
0.137293
-0.217793
0.139819
-0.189371
0.144611
-0.0553697
0.146545
0.078
0.145622
0.186547
0.143446
0.330464
0.143288
0.250141
0.144904
0.263354
0.1449
0.065713
-0.139712
0.0526566
-0.0522827
0.0455638
-0.0563206
0.0376891
-0.0594688
0.0289142
-0.0613592
0.0198773
-0.0618368
0.0113367
-0.0607624
0.00439148
-0.0576677
0.000480124
-0.0519686
0.00109113
-0.0428383
0.00654819
-0.0297436
0.0158
-0.0121797
0.028675
0.00989758
0.0435382
0.0339266
0.0590322
0.0583354
0.0739802
0.0816759
0.0878072
0.102673
0.1007
0.119978
0.113383
0.13128
0.126355
0.133032
0.139052
0.121866
0.150059
0.0958828
0.158313
0.0542492
0.163431
-0.00104487
0.165565
-0.0604503
0.164503
-0.111019
0.160851
-0.144253
0.155739
-0.160368
0.15003
-0.164909
0.14423
-0.163813
0.138712
-0.160237
0.132689
-0.155235
0.124507
-0.1526
0.11471
-0.152196
0.107604
-0.144784
0.107922
-0.112237
0.116336
-0.0530191
0.129973
0.0198698
0.144672
0.0854063
0.157004
0.138644
0.164334
0.190334
0.166083
0.240834
0.163484
0.281212
0.15903
0.26792
0.155083
0.197772
0.152291
0.0691985
0.151901
-0.0588169
0.152783
-0.15444
0.152286
-0.202607
0.147202
-0.208633
0.140271
-0.242357
0.136917
-0.214439
0.139446
-0.191899
0.144525
-0.0604486
0.146664
0.0758605
0.145921
0.187289
0.143765
0.33262
0.143807
0.250099
0.14595
0.261211
0.146288
0.0653747
-0.138184
0.0868435
-0.0459158
0.0800825
-0.0495596
0.0726807
-0.052067
0.0644857
-0.0531643
0.0556052
-0.0529562
0.0462977
-0.0514549
0.0372525
-0.0486225
0.0295783
-0.0442944
0.0245633
-0.0378233
0.0233685
-0.0285488
0.02667
-0.0154811
0.0346871
0.00188049
0.0461507
0.0224629
0.0599056
0.0445805
0.0746618
0.0669198
0.0895531
0.0877813
0.104305
0.105225
0.119034
0.116551
0.133607
0.11846
0.147059
0.108414
0.158
0.0849412
0.16565
0.0466001
0.169714
-0.00510954
0.170149
-0.0608854
0.167061
-0.107931
0.161471
-0.138663
0.154856
-0.153753
0.14822
-0.158274
0.141875
-0.157468
0.136067
-0.154429
0.130344
-0.149512
0.123074
-0.145331
0.113923
-0.143045
0.106332
-0.137193
0.105413
-0.111318
0.11296
-0.0605656
0.12664
0.00618985
0.142122
0.0699239
0.155771
0.124995
0.164767
0.181338
0.168292
0.237309
0.167076
0.282428
0.163183
0.271813
0.158872
0.202084
0.155004
0.0730668
0.153172
-0.0569847
0.152907
-0.154176
0.152103
-0.201803
0.147084
-0.203614
0.140016
-0.235289
0.13645
-0.210873
0.138941
-0.19439
0.14439
-0.0658973
0.146839
0.073412
0.146313
0.187815
0.144183
0.33475
0.14443
0.249852
0.147146
0.258495
0.147854
0.0646663
-0.136761
0.115456
-0.0395088
0.108832
-0.0429357
0.101871
-0.045106
0.0945727
-0.0458659
0.0869607
-0.0453442
0.0789641
-0.0434584
0.0705987
-0.0402571
0.062226
-0.0359217
0.0547662
-0.0303636
0.0494062
-0.0231888
0.047423
-0.0134979
0.0500385
-0.000735078
0.0567112
0.0157902
0.0671039
0.0341879
0.0800549
0.0539688
0.0944957
0.0733405
0.109684
0.0900376
0.125135
0.1011
0.140178
0.103417
0.153609
0.0949835
0.164178
0.0743721
0.171219
0.0395591
0.174346
-0.00823666
0.173254
-0.0597941
0.168357
-0.103034
0.161109
-0.131415
0.153253
-0.145897
0.145893
-0.150914
0.139199
-0.150774
0.13321
-0.148439
0.127744
-0.144047
0.121443
-0.139029
0.113293
-0.134895
0.105645
-0.129545
0.103536
-0.109209
0.109802
-0.0668311
0.123034
-0.00704269
0.138948
0.0540104
0.153785
0.110158
0.164497
0.170626
0.169917
0.231889
0.170188
0.282157
0.166936
0.275065
0.162347
0.206672
0.157505
0.0779091
0.154326
-0.0538057
0.152895
-0.152745
0.151781
-0.200689
0.146897
-0.19873
0.139716
-0.228108
0.135872
-0.207028
0.138268
-0.196787
0.144159
-0.0717884
0.147039
0.0705322
0.146788
0.188067
0.144701
0.336837
0.14516
0.249392
0.148488
0.255168
0.149591
0.0635627
-0.135452
0.136315
-0.0331368
0.129782
-0.0364028
0.123021
-0.0383453
0.116254
-0.0390991
0.109655
-0.0387446
0.103201
-0.0370043
0.0967645
-0.033821
0.0902424
-0.0293995
0.0837861
-0.0239074
0.0779235
-0.0173262
0.073734
-0.00930835
0.072187
0.000811911
0.0743191
0.0136581
0.0804961
0.0280109
0.0902483
0.0442165
0.10269
0.0608985
0.116818
0.0759097
0.131661
0.0862573
0.146123
0.0889546
0.158878
0.0822287
0.168795
0.0644552
0.17518
0.033174
0.17735
-0.0104071
0.174798
-0.0572416
0.168276
-0.0965124
0.159658
-0.122797
0.150841
-0.13708
0.142952
-0.143025
0.136081
-0.143903
0.130038
-0.142396
0.124782
-0.13879
0.119389
-0.133636
0.11248
-0.127987
0.105235
-0.1223
0.102162
-0.106135
0.106936
-0.071605
0.119182
-0.0192893
0.135128
0.0380643
0.150943
0.094343
0.163369
0.158201
0.170811
0.224447
0.172684
0.280284
0.170135
0.277615
0.165366
0.211441
0.159708
0.0835666
0.155299
-0.0493961
0.152697
-0.150143
0.151264
-0.199257
0.146592
-0.194058
0.13935
-0.220865
0.135174
-0.202853
0.137391
-0.199004
0.143786
-0.0781837
0.147231
0.0670875
0.147334
0.187963
0.145319
0.338851
0.145997
0.248714
0.14997
0.251195
0.151491
0.0620416
-0.134267
0.148234
-0.0271656
0.142018
-0.0301871
0.135582
-0.0319094
0.129327
-0.0328438
0.123499
-0.0329162
0.118184
-0.0316893
0.113386
-0.0290227
0.108983
-0.0249972
0.104832
-0.0197567
0.100915
-0.0134083
0.0975202
-0.00591395
0.0951193
0.00321285
0.0951283
0.0136491
0.0980372
0.025102
0.104323
0.0379309
0.113761
0.0514601
0.125576
0.0640946
0.138645
0.0731891
0.151634
0.0759651
0.163167
0.0706955
0.172179
0.0554429
0.17773
0.0276236
0.178783
-0.0114604
0.174719
-0.0531778
0.166732
-0.088525
0.157032
-0.113097
0.14754
-0.127588
0.139303
-0.134787
0.132392
-0.136992
0.126434
-0.136438
0.121368
-0.133724
0.116751
-0.129019
0.111177
-0.122413
0.10475
-0.115874
0.10109
-0.102475
0.104306
-0.0748212
0.115186
-0.0301687
0.13069
0.02256
0.147196
0.077837
0.161238
0.144159
0.170721
0.214963
0.174299
0.276706
0.172596
0.279318
0.167796
0.216241
0.16154
0.0898226
0.156047
-0.0439024
0.152286
-0.146383
0.150505
-0.197475
0.146124
-0.189677
0.138911
-0.213652
0.134369
-0.198311
0.136285
-0.200919
0.143222
-0.0851202
0.147375
0.062934
0.147936
0.187402
0.146037
0.34075
0.146942
0.24781
0.151587
0.246549
0.153545
0.0600839
-0.133215
0.151766
-0.0219726
0.146069
-0.0244899
0.140138
-0.0259789
0.134526
-0.0272316
0.129435
-0.0278249
0.125014
-0.0272687
0.121398
-0.0254066
0.118591
-0.0221898
0.116486
-0.0176523
0.114965
-0.0118867
0.114084
-0.00503282
0.113657
0.00363968
0.11382
0.0134859
0.11562
0.0233025
0.119829
0.0337212
0.126648
0.0446415
0.135754
0.0549884
0.146326
0.0626171
0.157148
0.0651431
0.166975
0.0608688
0.174732
0.0476854
0.179008
0.0233479
0.178775
-0.0112271
0.173234
-0.0476376
0.164045
-0.0793359
0.153607
-0.102659
0.143739
-0.11772
0.135317
-0.126365
0.12843
-0.130105
0.122633
-0.130642
0.117724
-0.128815
0.113659
-0.124955
0.10933
-0.118083
0.104002
-0.110546
0.100146
-0.0986192
0.101884
-0.0765588
0.111118
-0.0394032
0.125684
0.00799391
0.142503
0.0610177
0.158082
0.12858
0.169752
0.203294
0.175152
0.271305
0.174279
0.280192
0.169565
0.220955
0.163016
0.0963709
0.15661
-0.0374957
0.151733
-0.141507
0.149543
-0.195285
0.145498
-0.185632
0.13842
-0.206574
0.133499
-0.19339
0.134972
-0.202393
0.142431
-0.0925786
0.147427
0.0579375
0.148576
0.186254
0.146853
0.342473
0.147994
0.246669
0.153333
0.24121
0.155742
0.0576752
-0.132307
0.14967
-0.0180918
0.144729
-0.0195494
0.139821
-0.0210702
0.135121
-0.0225324
0.130745
-0.023449
0.126928
-0.0234515
0.123899
-0.0223775
0.12184
-0.0201305
0.120793
-0.0166055
0.120667
-0.0117602
0.121215
-0.00558075
0.122652
0.00220198
0.125107
0.011031
0.128242
0.0201676
0.13241
0.0295533
0.138108
0.0389436
0.14544
0.0476563
0.153921
0.0541357
0.162656
0.056409
0.170624
0.0528999
0.176722
0.0415881
0.179594
0.020476
0.177288
-0.00892112
0.17027
-0.0406198
0.160281
-0.0693469
0.149652
-0.0920296
0.139853
-0.107921
0.13149
-0.118002
0.124676
-0.12329
0.11905
-0.125016
0.114251
-0.124016
0.110467
-0.121171
0.107113
-0.114729
0.102985
-0.106418
0.0992856
-0.0949198
0.099782
-0.0770552
0.107195
-0.0468161
0.120428
-0.00523946
0.136943
0.0445035
0.153455
0.112068
0.167119
0.18963
0.174586
0.263838
0.174887
0.279891
0.170525
0.225317
0.163994
0.102902
0.156895
-0.0303965
0.151039
-0.135651
0.148437
-0.192683
0.144732
-0.181927
0.137891
-0.199733
0.132578
-0.188077
0.133566
-0.203381
0.141439
-0.100451
0.14738
0.0519957
0.149225
0.184409
0.147756
0.343943
0.149154
0.245271
0.155199
0.235164
0.158081
0.0547934
-0.131543
0.187647
-0.0136357
-0.192103
0.183979
-0.0158813
0.180212
-0.0173032
0.176151
-0.0184715
0.171865
-0.0191631
0.167503
-0.0190896
0.163199
-0.018074
0.159067
-0.0159982
0.155216
-0.0127547
0.151732
-0.00827598
0.148762
-0.00261082
0.146505
0.00445867
0.145045
0.0124919
0.144322
0.0208904
0.144621
0.0292544
0.146408
0.0371565
0.15022
0.0438443
0.156352
0.0480036
0.164617
0.0481437
0.174576
0.0429412
0.185305
0.0308586
0.194602
0.0111795
0.200288
-0.0146072
0.201264
-0.0415957
0.198009
-0.0660926
0.191875
-0.0858954
0.184167
-0.100213
0.175839
-0.109674
0.167586
-0.115036
0.15968
-0.11711
0.151976
-0.116312
0.144726
-0.113921
0.137935
-0.107938
0.130417
-0.0988995
0.122028
-0.0865306
0.115523
-0.0705503
0.114351
-0.0456448
0.11891
-0.00979849
0.126101
0.0373125
0.13318
0.104989
0.138832
0.183978
0.143254
0.259415
0.148419
0.274726
0.15552
0.218217
0.161957
0.0964645
0.164556
-0.0329961
0.163133
-0.134228
0.159828
-0.189378
0.154237
-0.176336
0.145706
-0.191202
0.137983
-0.180354
0.134296
-0.199694
0.135361
-0.101517
0.135997
0.0513595
0.134195
0.186211
0.133064
0.345074
0.135948
0.242387
0.143068
0.228044
0.146445
0.0514171
-0.129474
0.197305
-0.010328
-0.200612
0.193881
-0.0124574
0.190471
-0.0138932
0.186853
-0.0148536
0.183058
-0.0153686
0.179229
-0.0152603
0.1755
-0.0143448
0.171992
-0.0124903
0.168844
-0.00960663
0.166217
-0.00564876
0.16421
-0.000604375
0.163062
0.00560743
0.162881
0.0126726
0.163679
0.0200918
0.165551
0.0273829
0.16871
0.0339971
0.173421
0.0391339
0.179769
0.0416552
0.187527
0.0403862
0.196166
0.0343016
0.204612
0.0224126
0.211217
0.00457501
0.214237
-0.0176269
0.213287
-0.040646
0.208866
-0.0616723
0.202066
-0.0790948
0.194009
-0.0921567
0.185517
-0.101182
0.177154
-0.106673
0.169215
-0.109172
0.161497
-0.108595
0.154085
-0.106508
0.147287
-0.10114
0.140272
-0.0918851
0.132295
-0.0785533
0.125329
-0.0635846
0.123052
-0.043368
0.126568
-0.0133138
0.133651
0.0302292
0.141286
0.0973543
0.147971
0.177292
0.153596
0.253791
0.160038
0.268283
0.168177
0.210079
0.175232
0.0894095
0.177698
-0.0354622
0.175388
-0.131917
0.171123
-0.185114
0.164864
-0.170077
0.155832
-0.182171
0.147361
-0.171883
0.142958
-0.19529
0.144012
-0.102571
0.145003
0.0503684
0.143455
0.187759
0.142508
0.346021
0.145763
0.239132
0.15376
0.220047
0.157369
0.047808
-0.127128
0.207147
-0.00767129
-0.209804
0.204077
-0.00938704
0.200905
-0.0107213
0.197643
-0.0115916
0.19428
-0.0120062
0.190908