/*--------------------------------*- C++ -*----------------------------------*\
| =========                 |                                                 |
| \\      /  F ield         | OpenFOAM: The Open Source CFD Toolbox           |
|  \\    /   O peration     | Version:  2512                                  |
|   \\  /    A nd           | Website:  www.openfoam.com                      |
|    \\/     M anipulation  |                                                 |
\*---------------------------------------------------------------------------*/
FoamFile
{
    version     2.0;
    format      ascii;
    arch        "LSB;label=32;scalar=64";
    class       surfaceScalarField;
    location    "124.25";
    object      phi;
}
// * * * * * * * * * * * * * * * * * * * * * * * * * * * * * * * * * * * * * //

dimensions      [0 3 -1 0 0 0 0];

oriented        oriented;

internalField   nonuniform List<scalar> 
26232
(
-3.37391e-05
0.000842738
-0.000808999
6.91496e-05
0.00144288
-0.00154577
0.000507011
0.00116483
-0.0016027
0.0014747
8.37402e-05
-0.00105143
0.00316185
-0.0017723
8.51515e-05
0.00575467
-0.00439637
0.00180355
0.00942147
-0.00778853
0.00412172
0.0143059
-0.0119382
0.00705376
0.0205106
-0.0168111
0.0106064
0.0280822
-0.0223404
0.0147688
0.0369989
-0.0284234
0.0195066
0.0471647
-0.0349262
0.0247605
0.0584102
-0.0416928
0.0304473
0.0705028
-0.048558
0.0364653
0.083163
-0.0553616
0.0427014
0.0960853
-0.0619614
0.0490391
0.108962
-0.0682433
0.0553669
0.121504
-0.0741287
0.0615864
0.133466
-0.0795747
0.0676126
0.144655
-0.0845868
0.0733982
0.15495
-0.0891713
0.0788758
0.164274
-0.093469
0.0841454
0.172604
-0.0973185
0.0889883
-0.101391
0.0943284
0.179666
5.40961e-05
0.000788642
0.00041735
0.00107963
0.00129827
0.000283912
0.00290504
-0.00152303
0.00543982
-0.00430708
0.00908834
-0.00804489
0.0140019
-0.012702
0.0202775
-0.0182138
0.0279379
-0.0244716
0.0369175
-0.0313199
0.0470577
-0.0385636
0.0581161
-0.0459846
0.0697864
-0.0533631
0.0817275
-0.0604991
0.0935962
-0.0672303
0.10508
-0.0734448
0.115922
-0.0790861
0.125946
-0.0841525
0.135061
-0.08869
0.143258
-0.0927835
0.150617
-0.0965303
0.157226
-0.100078
0.163311
-0.103403
-0.107006
0.168926
0.000146734
0.000641908
0.000794278
0.000432085
0.00216375
-0.00108555
0.00447273
-0.00383201
0.00792194
-0.00775629
0.0126731
-0.0127961
0.0188215
-0.0188504
0.0263696
-0.0257619
0.0352102
-0.0333122
0.0451252
-0.0412349
0.0558034
-0.0492419
0.0668746
-0.0570558
0.0779526
-0.0644411
0.0886799
-0.0712264
0.0987667
-0.077317
0.108017
-0.0826951
0.116341
-0.0874099
0.12375
-0.091562
0.130342
-0.0952812
0.136266
-0.098708
0.141702
-0.101966
0.146809
-0.105185
0.151759
-0.108353
-0.111831
0.156584
0.000246486
0.000395423
0.00120304
-0.000524473
0.00310129
-0.0029838
0.00615713
-0.00688784
0.0105461
-0.0121453
0.0163687
-0.0186186
0.0236156
-0.0260974
0.0321463
-0.0342926
0.0416901
-0.0428561
0.0518751
-0.0514199
0.0622769
-0.0596437
0.0724782
-0.0672571
0.0821238
-0.0740866
0.0909615
-0.0800641
0.0988625
-0.0852181
0.105819
-0.0896519
0.111924
-0.093515
0.117336
-0.0969733
0.122239
-0.100184
0.12681
-0.103279
0.131199
-0.106355
0.135499
-0.109485
0.139806
-0.11266
-0.116106
0.14408
0.000357256
3.81669e-05
0.00164962
-0.00181684
0.00410918
-0.00544337
0.00792909
-0.0107077
0.0132242
-0.0174404
0.0199866
-0.025381
0.0280556
-0.0341664
0.037119
-0.0433559
0.0467515
-0.0524886
0.0564812
-0.0611496
0.0658652
-0.0690277
0.0745546
-0.0759465
0.0823346
-0.0818666
0.0891348
-0.0868642
0.0950107
-0.091094
0.100107
-0.0947478
0.10461
-0.0980183
0.10871
-0.101073
0.112568
-0.104042
0.116304
-0.107016
0.119998
-0.110049
0.123689
-0.113176
0.127418
-0.116388
-0.119824
0.131136
0.000482043
-0.000443876
0.00213529
-0.00347009
0.00517201
-0.00848008
0.00973009
-0.0152658
0.015819
-0.0235293
0.0232767
-0.0328387
0.0317645
-0.0426542
0.0408127
-0.0524041
0.0499037
-0.0615796
0.0585663
-0.0698122
0.0664508
-0.0769122
0.0733685
-0.0828642
0.0792904
-0.0877886
0.0843145
-0.0918882
0.0886146
-0.0953941
0.0923898
-0.098523
0.0958239
-0.101452
0.099063
-0.104312
0.102209
-0.107189
0.105327
-0.110133
0.108452
-0.113174
0.111601
-0.116324
0.114792
-0.119579
-0.123012
0.117979
0.0006208
-0.00106468
0.00265022
-0.00549951
0.00625017
-0.01208
0.0114618
-0.0204775
0.0181444
-0.0302119
0.0259543
-0.0406486
0.0343888
-0.0510886
0.0428841
-0.0608994
0.0509304
-0.069626
0.0581615
-0.0770433
0.0643957
-0.0831464
0.0696259
-0.0880943
0.0739737
-0.0921364
0.0776295
-0.095544
0.0807964
-0.098561
0.0836527
-0.101379
0.0863342
-0.104134
0.0889327
-0.106911
0.0915043
-0.10976
0.0940801
-0.112709
0.0966753
-0.115769
0.0992949
-0.118944
0.101946
-0.12223
-0.125658
0.104591
0.000769417
-0.00183409
0.00317164
-0.00790174
0.00727993
-0.0161883
0.0129954
-0.026193
0.0199964
-0.0372129
0.0277649
-0.0484171
0.035692
-0.0590157
0.0432153
-0.0684227
0.0499292
-0.0763399
0.0556351
-0.0827492
0.0603266
-0.0878379
0.0641345
-0.0919022
0.0672572
-0.0952592
0.0699012
-0.098188
0.0722428
-0.100903
0.074413
-0.103549
0.0764984
-0.106219
0.0785512
-0.108964
0.0805996
-0.111809
0.0826578
-0.114767
0.0847315
-0.117843
0.0868219
-0.121034
0.0889306
-0.124339
-0.12776
0.0910326
0.00092031
-0.0027544
0.00366661
-0.010648
0.00818297
-0.0207047
0.014196
-0.032206
0.0211993
-0.0442162
0.0285471
-0.0557649
0.0356108
-0.0660795
0.0419196
-0.0747314
0.0472288
-0.0816492
0.0515103
-0.0870306
0.0548897
-0.0912173
0.0575684
-0.0945809
0.059757
-0.0974478
0.0616342
-0.100065
0.0633314
-0.1026
0.0649342
-0.105152
0.0664933
-0.107778
0.068036
-0.110506
0.0695763
-0.113349
0.0711205
-0.116311
0.0726706
-0.119393
0.0742267
-0.122591
0.0757877
-0.1259
-0.129311
0.0773388
0.00106339
-0.00381779
0.00409711
-0.0136818
0.00888045
-0.025488
0.01495
-0.0382755
0.0216444
-0.0509106
0.0282639
-0.0623844
0.0342455
-0.0720612
0.0392665
-0.0797524
0.0432491
-0.0856318
0.0462974
-0.0900789
0.0486093
-0.0935292
0.0504007
-0.0963722
0.0518569
-0.098904
0.0531145
-0.101323
0.0542619
-0.103747
0.0553512
-0.106242
0.0564102
-0.108837
0.0574531
-0.111549
0.058487
-0.114383
0.0595149
-0.117339
0.0605375
-0.120416
0.0615541
-0.123607
0.0625624
-0.126908
-0.130304
0.0635554
0.00118798
-0.00500578
0.00442716
-0.0169209
0.0093081
-0.030369
0.0151875
-0.0441549
0.0213061
-0.0570292
0.0269902
-0.0680684
0.031803
-0.076874
0.0355836
-0.083533
0.0383913
-0.0884395
0.0404103
-0.0920979
0.0418602
-0.0949791
0.0429368
-0.0974488
0.0437865
-0.0997537
0.0445049
-0.102041
0.0451478
-0.10439
0.0457453
-0.106839
0.0463127
-0.109405
0.0468575
-0.112094
0.0473838
-0.114909
0.0478932
-0.117849
0.0483859
-0.120908
0.0488605
-0.124082
0.0493137
-0.127361
-0.130733
0.049743
0.00128697
-0.00629275
0.00463124
-0.0202652
0.00942783
-0.0351656
0.0148906
-0.0496177
0.0202346
-0.0623733
0.024878
-0.0727118
0.0285356
-0.0805316
0.0311894
-0.0861867
0.0329909
-0.0902411
0.0341578
-0.0932648
0.0348977
-0.095719
0.0353716
-0.0979227
0.0356867
-0.100069
0.0359063
-0.102261
0.0360643
-0.104548
0.0361775
-0.106952
0.0362544
-0.109482
0.0362996
-0.112139
0.0363157
-0.114926
0.0363042
-0.117837
0.0362654
-0.120869
0.0361981
-0.124014
0.0360987
-0.127262
0.0359674
-0.130602
-0.000269965
-0.00229223
0.0025622
-0.000955511
-0.0052611
0.00594665
-0.00197897
-0.00708426
0.00810772
-0.00327798
-0.00803404
0.00933305
-0.00480201
-0.00835006
0.0098741
-0.00651213
-0.00822962
0.00993973
-0.00837927
-0.00781774
0.00968488
-0.0103815
-0.00720486
0.00920705
-0.0125008
-0.00643201
0.00855131
-0.0147205
-0.00550112
0.00772086
-0.017023
-0.00438731
0.00668983
-0.0193879
-0.00305039
0.00541529
-0.0217918
-0.00144151
0.00384543
-0.0241914
0.000477969
0.00192156
-0.0265656
0.00275326
-0.000379022
-0.0288675
0.0054167
-0.00311476
-0.031042
0.00849129
-0.00631687
-0.0330286
0.0119848
-0.00999822
-0.0347609
0.0158879
-0.0141555
-0.0361695
0.0201712
-0.0187627
-0.0371858
0.0247837
-0.0237673
-0.0377464
0.0296516
-0.029091
-0.0378066
0.0346952
-0.034635
0.0398552
-0.0373971
-0.0402647
-0.000318828
-0.0019734
-0.00109941
-0.00448052
-0.00223088
-0.00595279
-0.00363047
-0.00663446
-0.005237
-0.00674353
-0.00700718
-0.00645944
-0.00891079
-0.00591413
-0.0109255
-0.00519018
-0.0130318
-0.00432564
-0.0152096
-0.00332335
-0.0174349
-0.00216202
-0.0196798
-0.000805515
-0.0219016
0.000780297
-0.0240611
0.00263749
-0.0261046
0.00479674
-0.0279693
0.0072814
-0.0295818
0.0101038
-0.0308594
0.0132624
-0.0317108
0.0167392
-0.0320392
0.0204997
-0.0317486
0.024493
-0.0307505
0.0286535
-0.0289628
0.0329074
0.0372147
-0.0263223
-0.000343916
-0.00162949
-0.00116624
-0.0036582
-0.00233151
-0.00478752
-0.00374002
-0.00522595
-0.00531993
-0.00516361
-0.00702126
-0.00475811
-0.00880908
-0.00412631
-0.0106567
-0.00334261
-0.0125394
-0.00244294
-0.01443
-0.00143272
-0.0162955
-0.000296467
-0.0180935
0.000992413
-0.019777
0.00246382
-0.0212858
0.00414634
-0.022551
0.00606185
-0.023493
0.00822342
-0.0240218
0.0106327
-0.0240373
0.0132779
-0.0234304
0.0161323
-0.0220851
0.0191545
-0.0198822
0.0222901
-0.0167059
0.0254773
-0.0124634
0.028665
0.0319053
-0.00715406
-0.000349803
-0.00127969
-0.00117196
-0.00283604
-0.00231399
-0.00364548
-0.00366234
-0.0038776
-0.00513451
-0.00369144
-0.00667187
-0.00322076
-0.00823183
-0.00256635
-0.00978017
-0.00179427
-0.0112843
-0.000938757
-0.0127083
-8.74976e-06
-0.014009
0.00100422
-0.0151346
0.00211798
-0.0160238
0.00335309
-0.0166052
0.00472772
-0.0167973
0.0062539
-0.0165088
0.00793491
-0.0156392
0.00976315
-0.0140797
0.0117184
-0.011713
0.0137656
-0.00841695
0.0158584
-0.00406272
0.0179358
0.0014794
0.0199352
0.00834602
0.0217983
0.0235329
0.0167185
-0.000343297
-0.000936389
-0.00113817
-0.00204117
-0.00222094
-0.00256271
-0.00346704
-0.0026315
-0.00478383
-0.00237465
-0.00610305
-0.00190153
-0.00737277
-0.00129664
-0.00854956
-0.000617475
-0.00959177
0.000103448
-0.0104543
0.000853753
-0.011085
0.00163497
-0.0114232
0.00245616
-0.0113985
0.00332839
-0.0109312
0.00426039
-0.00993259
0.00525532
-0.00830602
0.00630835
-0.00594781
0.00740494
-0.00274891
0.00851949
0.00140158
0.00961509
0.00662103
0.010639
0.0130287
0.0115282
0.0207518
0.012212
0.0299095
0.0126407
0.0125955
0.0408469
-0.000330758
-0.000605631
-0.00108449
-0.00128744
-0.0020902
-0.001557
-0.0032149
-0.0015068
-0.00435703
-0.00123252
-0.00543891
-0.000819652
-0.00639892
-0.000336629
-0.00718402
0.000167626
-0.0077433
0.000662728
-0.00802307
0.00113352
-0.00796357
0.00157547
-0.00749715
0.00198975
-0.00654778
0.00237902
-0.00503131
0.00274391
-0.0028564
0.00308042
7.40788e-05
0.00337787
0.00386174
0.00361727
0.00861101
0.00377022
0.0144282
0.00379786
0.021417
0.00365021
0.0296785
0.00326664
0.0393383
0.00255221
0.0504082
0.00157084
-0.000514107
0.0635177
-0.000315737
-0.000289893
-0.0010214
-0.000581776
-0.00194104
-0.000637357
-0.00293554
-0.000512301
-0.0038958
-0.000272266
-0.00473541
1.99548e-05
-0.00538314
0.000311108
-0.005776
0.000560484
-0.00585333
0.000740052
-0.00555217
0.000832369
-0.00480461
0.000827899
-0.00353576
0.000720905
-0.00166358
0.000506832
0.000900746
0.000179591
0.00425177
-0.00027061
0.00848828
-0.000858643
0.0137116
-0.00160607
0.0200237
-0.00254186
0.0275252
-0.00370366
0.0363144
-0.00513896
0.0464699
-0.0068889
0.0581386
-0.00911643
0.0711466
-0.0114372
-0.0157391
0.0863716
-0.00029771
7.8172e-06
-0.000946388
6.69013e-05
-0.00176672
0.000182973
-0.00261478
0.000335758
-0.00337448
0.000487432
-0.00395026
0.000595743
-0.00425999
0.000620831
-0.00422835
0.000528844
-0.00378196
0.000293668
-0.00284416
-0.000105437
-0.00133481
-0.000681449
0.000833448
-0.00144735
0.00375386
-0.00241358
0.00752468
-0.00359123
0.0122476
-0.00499349
0.0180254
-0.0066365
0.0249596
-0.00854028
0.0331471
-0.0107293
0.0426758
-0.0132324
0.0536271
-0.0160902
0.0660363
-0.0192981
0.0800394
-0.0231196
0.0953165
-0.0267142
-0.0330728
0.11265
-0.000272577
0.000280394
-0.000845518
0.000639843
-0.00153724
0.000874696
-0.00219891
0.00099743
-0.00270599
0.000994513
-0.00295104
0.000840787
-0.00283688
0.000506678
-0.00227023
-3.78121e-05
-0.00115955
-0.000817014
0.000590695
-0.00185568
0.00308147
-0.00317222
0.00641631
-0.0047822
0.0107012
-0.00669848
0.0160416
-0.00893161
0.0225385
-0.0114904
0.0302843
-0.0143823
0.039358
-0.017614
0.0498211
-0.0211924
0.0617106
-0.025122
0.0750403
-0.0294198
0.0897696
-0.0340274
0.105888
-0.0392383
0.123134
-0.0439595
-0.051608
0.141669
-0.000234993
0.000515387
-0.000700454
0.0011053
-0.00121321
0.00138745
-0.0016178
0.00140202
-0.00177779
0.00115451
-0.0015692
0.000632188
-0.000873495
-0.000189021
0.000422405
-0.00133371
0.00243686
-0.00283147
0.0052864
-0.00470522
0.00908744
-0.00697326
0.0139521
-0.00964685
0.0199829
-0.0127293
0.0272671
-0.0162158
0.0358703
-0.0200935
0.0458307
-0.0243427
0.0571548
-0.0289381
0.0698132
-0.0338508
0.0837383
-0.039047
0.0988212
-0.0445027
0.114923
-0.0501289
0.131799
-0.0561152
0.149391
-0.0615515
-0.0691921
0.166975
-0.000181462
0.000696849
-0.000498018
0.00142186
-0.000764892
0.00165433
-0.000817382
0.0014545
-0.000503233
0.000840361
0.000322125
-0.00019317
0.00179828
-0.00166518
0.0040654
-0.00360083
0.00725741
-0.00602348
0.0115011
-0.00894894
0.0169089
-0.012381
0.0235705
-0.0163085
0.0315451
-0.020704
0.0408538
-0.0255245
0.051474
-0.0307137
0.0633368
-0.0362055
0.076327
-0.0419283
0.0902859
-0.0478097
0.105016
-0.0537771
0.120289
-0.0597762
0.135876
-0.0657155
0.151438
-0.0716773
0.167032
-0.0771455
-0.083607
0.181447
-0.00011215
-0.000236061
-0.000184429
0.000218642
0.00114415
0.00275454
0.00521108
0.00866401
0.013247
0.0190668
0.0261924
0.0346445
0.0443878
0.0553286
0.0673163
0.0801499
0.0935886
0.107365
0.121201
0.134823
0.147983
0.160451
0.172294
0.183015
-0.0344784
0.0599857
-0.0629044
-0.0305256
0.0685873
-0.0725401
-0.0253141
0.0760221
-0.0812336
-0.0186509
0.0815418
-0.088205
-0.0103721
0.0842935
-0.0925723
-0.000417476
0.0833878
-0.0933424
0.0111187
0.0780201
-0.0895562
0.0238311
0.0676273
-0.0803397
0.037265
0.051963
-0.0653969
0.0507785
0.0310849
-0.0445985
0.0639095
0.00537988
-0.0185109
0.0765022
-0.02438
0.0117874
0.0884337
-0.0572614
0.0453299
0.0994291
-0.0904839
0.0794884
0.108874
-0.119912
0.110468
0.115993
-0.14172
0.134601
0.12033
-0.154478
0.150141
0.122046
-0.15934
0.157625
0.121399
-0.158766
0.159413
0.11804
-0.156464
0.159823
0.111743
-0.156983
0.163281
0.104064
-0.161254
0.168932
0.0985783
-0.16157
0.167056
0.0985952
-0.144097
0.144081
0.104748
-0.100041
0.0938876
0.115346
-0.0342238
0.0236263
0.127464
0.0380787
-0.0501969
0.138544
0.101299
-0.112379
0.146804
0.146646
-0.154906
0.151947
0.173687
-0.17883
0.15439
0.185835
-0.188278
0.153723
0.192513
-0.191846
0.149193
0.203985
-0.199455
0.141845
0.220986
-0.213639
0.135033
0.223276
-0.216464
0.132157
0.186094
-0.183218
0.13422
0.104186
-0.106249
0.139906
-0.00160472
-0.00408163
0.146921
-0.0964229
0.0894084
0.153153
-0.165315
0.159083
0.15663
-0.199539
0.196062
0.155234
-0.2221
0.223496
0.148638
-0.235141
0.241737
0.140029
-0.245564
0.254172
0.134309
-0.218214
0.223934
0.134661
-0.140374
0.140022
0.140491
-0.0356042
0.0297742
0.147571
0.0838461
-0.0909261
0.151026
0.154236
-0.157691
0.148595
0.240024
-0.237592
0.142929
0.266233
-0.260567
0.139403
0.275592
-0.272066
0.140664
0.205202
-0.206463
0.144543
0.0619899
-0.0658687
0.146498
-0.0201057
0.01815
0.144862
-0.212956
0.214592
0.142842
-0.23967
0.24169
0.141581
-0.310422
0.311683
0.140231
-0.262699
0.26405
0.00888094
-0.00699426
-0.0212601
0.0549235
-0.015065
0.0623922
-0.00749472
0.0684518
0.00146234
0.0725847
0.0117638
0.073992
0.0232555
0.0718962
0.0356366
0.0656391
0.0484831
0.0547807
0.0612795
0.0391666
0.0735644
0.0188
0.0849138
-0.0059695
0.0953844
-0.0348506
0.104863
-0.0667402
0.113087
-0.0987079
0.119508
-0.126333
0.12357
-0.145782
0.125047
-0.155955
0.124279
-0.158573
0.121823
-0.15631
0.117485
-0.152126
0.110514
-0.150012
0.101546
-0.152286
0.0938496
-0.153873
0.0916107
-0.141858
0.0966362
-0.105066
0.107545
-0.0451323
0.121072
0.0245517
0.134042
0.088328
0.144362
0.136326
0.151506
0.166544
0.155589
0.181752
0.156116
0.191986
0.152637
0.207464
0.146443
0.22718
0.140594
0.229125
0.137928
0.18876
0.139315
0.1028
0.143683
-0.00597303
0.149022
-0.101762
0.153612
-0.169904
0.155907
-0.201834
0.153897
-0.22009
0.146956
-0.228199
0.138005
-0.236613
0.132212
-0.21242
0.132961
-0.141123
0.139584
-0.0422276
0.147309
0.0761215
0.151204
0.150341
0.149083
0.242145
0.143519
0.271796
0.139975
0.279136
0.141087
0.20409
0.14514
0.0579374
0.147189
-0.0221551
0.14541
-0.211176
0.143258
-0.237519
0.141846
-0.30901
0.140377
-0.26123
0.010835
-0.000583047
0.0483525
0.00742526
0.0543838
0.0165171
0.05936
0.0266791
0.0624228
0.0377873
0.0628838
0.0495868
0.0600967
0.0617108
0.053515
0.0737248
0.0427668
0.0851929
0.0276985
0.0957082
0.00828475
0.105093
-0.0153546
0.113325
-0.0430822
0.120334
-0.073749
0.125796
-0.10417
0.129216
-0.129753
0.130295
-0.146861
0.129122
-0.154782
0.126191
-0.155642
0.122196
-0.152314
0.117158
-0.147088
0.110053
-0.142907
0.100527
-0.14276
0.091087
-0.144434
0.0864323
-0.137204
0.0897375
-0.108371
0.100268
-0.0556627
0.114729
0.010091
0.129298
0.0737589
0.141598
0.124026
0.150756
0.157386
0.156553
0.175955
0.158469
0.19007
0.156327
0.209607
0.151488
0.232018
0.146595
0.234019
0.143984
0.191371
0.144498
0.102286
0.147423
-0.00889776
0.151046
-0.105386
0.15398
-0.172838
0.155126
-0.202981
0.152634
-0.217598
0.145549
-0.221115
0.136393
-0.227457
0.130509
-0.206536
0.131516
-0.142131
0.138773
-0.0494847
0.147077
0.0678175
0.15146
0.145958
0.149731
0.243874
0.144306
0.277222
0.140721
0.282721
0.141643
0.203168
0.145854
0.0537266
0.148023
-0.0243242
0.14608
-0.209233
0.143762
-0.235201
0.142213
-0.30746
0.140667
-0.259685
0.0128293
0.024456
0.040615
0.0330599
0.0457799
0.0426534
0.0497665
0.0531016
0.0519745
0.0641496
0.0518358
0.0754657
0.0487807
0.086675
0.0423057
0.0973825
0.0320592
0.107213
0.0178677
0.115998
-0.000499705
0.123497
-0.0228541
0.129706
-0.049291
0.134452
-0.0784953
0.137311
-0.107029
0.137858
-0.1303
0.136096
-0.145099
0.132506
-0.151192
0.127735
-0.150871
0.122454
-0.147034
0.116892
-0.141526
0.110069
-0.136084
0.100811
-0.133502
0.0904089
-0.134032
0.0834084
-0.130203
0.0843392
-0.109302
0.093666
-0.0649895
0.108455
-0.00469803
0.12428
0.0579343
0.138432
0.109874
0.149583
0.146235
0.157161
0.168377
0.16066
0.186571
0.160106
0.210161
0.156788
0.235337
0.152837
0.237969
0.15018
0.194028
0.149633
0.102833
0.151043
-0.010308
0.152958
-0.107301
0.154259
-0.174138
0.154274
-0.202996
0.151389
-0.214713
0.144341
-0.214066
0.135128
-0.218244
0.129137
-0.200545
0.130261
-0.143255
0.138005
-0.0572287
0.14684
0.0589823
0.151776
0.141023
0.150537
0.245113
0.145313
0.282446
0.141673
0.286361
0.142349
0.202492
0.14668
0.049395
0.148988
-0.0266318
0.146868
-0.207113
0.14435
-0.232684
0.142673
-0.305783
0.14109
-0.258102
0.0148356
0.0490083
0.0324535
0.057851
0.0369372
0.067405
0.0402125
0.0775594
0.0418201
0.0880317
0.0413634
0.0984784
0.038334
0.108553
0.0322312
0.117935
0.0226775
0.126282
0.00952029
0.133619
-0.00783709
0.139636
-0.028871
0.14419
-0.0538452
0.146884
-0.0811884
0.147219
-0.107364
0.144997
-0.128079
0.140626
-0.140728
0.134952
-0.145518
0.128752
-0.144671
0.122548
-0.14083
0.116606
-0.135583
0.110247
-0.129725
0.101904
-0.125159
0.0915211
-0.123648
0.0826977
-0.12138
0.0807999
-0.107404
0.0881133
-0.0723029
0.102328
-0.0189127
0.118997
0.0412653
0.134771
0.0940995
0.147817
0.133189
0.157212
0.158982
0.162466
0.181317
0.163722
0.208905
0.162079
0.23698
0.159103
0.240946
0.156288
0.196843
0.154615
0.104507
0.154453
-0.0101459
0.154703
-0.107552
0.154421
-0.173856
0.153327
-0.201901
0.150119
-0.211506
0.143263
-0.20721
0.134136
-0.209117
0.128037
-0.194446
0.129131
-0.14435
0.137214
-0.0653114
0.146549
0.0496474
0.152115
0.135456
0.151485
0.245744
0.146547
0.287383
0.142853
0.290055
0.143215
0.20213
0.147609
0.0450014
0.150068
-0.0290909
0.147764
-0.204809
0.145019
-0.229938
0.143218
-0.303982
0.141631
-0.256515
0.016825
0.0714878
0.0244835
0.0799811
0.0284439
0.089052
0.0311417
0.0985698
0.0323023
0.108233
0.0316999
0.117722
0.0288451
0.126729
0.0232245
0.134994
0.014412
0.142266
0.00224915
0.148468
-0.0140395
0.153291
-0.0336945
0.156358
-0.0569113
0.157087
-0.0819173
0.155019
-0.105297
0.150283
-0.123343
0.14369
-0.134134
0.136351
-0.13818
0.129122
-0.137442
0.122363
-0.13407
0.116203
-0.129424
0.110299
-0.123822
0.103221
-0.118081
0.0938194
-0.114247
0.0841265
-0.111687
0.0794569
-0.102735
0.0839146
-0.0767607
0.0966056
-0.0316037
0.113498
0.0243727
0.130519
0.0770785
0.14527
0.118439
0.156465
0.147786
0.163599
0.174183
0.166848
0.205656
0.167029
0.236799
0.1651
0.242875
0.162127
0.199816
0.15928
0.107353
0.157553
-0.00841903
0.156211
-0.106209
0.154428
-0.172073
0.15225
-0.199723
0.148765
-0.208021
0.14223
-0.200675
0.133323
-0.20021
0.127122
-0.188244
0.128055
-0.145283
0.136329
-0.0735857
0.146143
0.0398333
0.152431
0.129168
0.15254
0.245635
0.148
0.291923
0.144269
0.293786
0.144255
0.202144
0.148625
0.0406314
0.151245
-0.031711
0.148757
-0.202321
0.145762
-0.226944
0.14384
-0.302059
0.142275
-0.25495
0.0187669
0.0931239
0.0177311
0.100511
0.0210571
0.108561
0.0230913
0.117063
0.0238007
0.125697
0.0230651
0.134174
0.0203685
0.142203
0.0151954
0.149368
0.00724745
0.156039
-0.00442186
0.161108
-0.0191084
0.164676
-0.0372628
0.16611
-0.0583454
0.164772
-0.0805795
0.160396
-0.10092
0.153477
-0.116424
0.145142
-0.125799
0.136623
-0.12966
0.128749
-0.129568
0.121753
-0.127075
0.115564
-0.123235
0.110017
-0.118275
0.104178
-0.112242
0.0964455
-0.106515
0.0871097
-0.102351
0.0803423
-0.0959673
0.0814483
-0.0778666
0.0916557
-0.0418111
0.107914
0.00811466
0.125634
0.0593582
0.141792
0.102281
0.154696
0.134882
0.163767
0.165112
0.169143
0.200279
0.171288
0.234654
0.170525
0.243637
0.167498
0.202843
0.163479
0.111373
0.160247
-0.00518785
0.157407
-0.103369
0.154235
-0.168901
0.15101
-0.196498
0.147271
-0.204283
0.141157
-0.194561
0.132589
-0.191642
0.126303
-0.181959
0.126956
-0.145936
0.135276
-0.0819059
0.145555
0.0295539
0.152659
0.122065
0.153654
0.24464
0.149644
0.295933
0.145913
0.297517
0.145452
0.202605
0.149725
0.0363588
0.152495
-0.0344808
0.149832
-0.199659
0.146575
-0.223686
0.144529
-0.300014
0.143007
-0.253428
0.0206294
0.117118
0.013263
0.122541
0.0156344
0.128837
0.0167951
0.135684
0.0169536
0.142788
0.0159616
0.149879
0.013277
0.156669
0.00840559
0.162733
0.00118324
0.167976
-0.00966482
0.171751
-0.0228829
0.173673
-0.0391847
0.173124
-0.0577969
0.169589
-0.0770437
0.163098
-0.0944291
0.154461
-0.107787
0.144958
-0.116296
0.135769
-0.120471
0.127601
-0.1214
0.1206
-0.120074
0.114557
-0.117192
0.109303
-0.11302
0.104417
-0.107356
0.0985417
-0.100639
0.0906786
-0.0944881
0.0830804
-0.0883692
0.0810111
-0.0757973
0.0878891
-0.0486892
0.10247
-0.00646608
0.120149
0.0416787
0.137294
0.0851362
0.151732
0.120444
0.16272
0.154125
0.170262
0.192737
0.174443
0.230474
0.174978
0.243101
0.172068
0.205753
0.167081
0.11636
0.162433
-0.000539938
0.158207
-0.0991431
0.153786
-0.164479
0.149561
-0.192274
0.145574
-0.200295
0.13996
-0.188947
0.131834
-0.183516
0.125486
-0.17561
0.125757
-0.146207
0.133983
-0.0901319
0.144712
0.0188251
0.152724
0.114053
0.154759
0.242605
0.151428
0.299264
0.147759
0.301186
0.146806
0.203557
0.150881
0.0322845
0.153793
-0.0373932
0.150972
-0.196838
0.147448
-0.220162
0.145276
-0.297842
0.143813
-0.251965
0.0223779
0.143628
0.0113038
0.146749
0.0125137
0.150778
0.012766
0.155385
0.0123469
0.160378
0.0109682
0.165492
0.00816256
0.17024
0.00365754
0.174879
-0.00345553
0.178024
-0.0128101
0.179807
-0.024666
0.179581
-0.0389585
0.176799
-0.0550143
0.171161
-0.0714065
0.162987
-0.0862543
0.153247
-0.0980472
0.143181
-0.10623
0.133796
-0.111087
0.125625
-0.113229
0.118756
-0.113204
0.112966
-0.111402
0.108014
-0.108068
0.103764
-0.103107
0.0994686
-0.0963431
0.0936966
-0.0887162
0.0867373
-0.0814099
0.0825101
-0.0715701
0.0857856
-0.0519647
0.0974491
-0.0181297
0.114199
0.0249288
0.131747
0.067588
0.147435
0.104756
0.160241
0.141319
0.169996
0.182982
0.176335
0.224135
0.178257
0.24118
0.175583
0.208427
0.169868
0.122075
0.16398
0.00534755
0.158504
-0.0936675
0.152996
-0.158971
0.147842
-0.18712
0.143595
-0.196048
0.138547
-0.183899
0.130969
-0.175938
0.124581
-0.169222
0.124389
-0.146015
0.132386
-0.0981288
0.143542
0.00766916
0.152541
0.105054
0.155778
0.239369
0.153288
0.301753
0.149765
0.30471
0.148296
0.205026
0.15207
0.0285099
0.155112
-0.0404352
0.152158
-0.193884
0.148371
-0.216374
0.146065
-0.295536
0.144678
-0.250578
0.0239745
0.167235
0.0110447
0.168524
0.0112241
0.170449
0.0108413
0.172849
0.00994706
0.175632
0.00818495
0.178559
0.00523543
0.181249
0.000967742
0.183356
-0.00556288
0.184325
-0.0137785
0.183821
-0.0241624
0.181354
-0.036491
0.176523
-0.0501834
0.169263
-0.0641466
0.160066
-0.0770578
0.149894
-0.0878747
0.1398
-0.0961365
0.130572
-0.101859
0.122593
-0.10525
0.115925
-0.106537
0.110418
-0.105895
0.105821
-0.10347
0.102031
-0.0993174
0.0988419
-0.0931538
0.0951517
-0.085026
0.0899852
-0.0762434
0.0851918
-0.0667766
0.0853553
-0.0521282
0.0934246
-0.026199
0.108102
0.010251
0.125236
0.0504549
0.141749
0.0882418
0.15617
0.126898
0.168004
0.171148
0.176456
0.215683
0.179945
0.23769
0.177816
0.210556
0.171738
0.128153
0.164781
0.0123049
0.158242
-0.0871291
0.151802
-0.152531
0.145814
-0.181132
0.141281
-0.191515
0.136843
-0.17946
0.129932
-0.169028
0.123538
-0.162828
0.122789
-0.145267
0.130426
-0.105765
0.141979
-0.00388394
0.152028
0.0950045
0.15661
0.234787
0.155133
0.30323
0.151875
0.307968
0.149883
0.207017
0.15328
0.0251132
0.156423
-0.0435787
0.153374
-0.190835
0.149331
-0.212332
0.146882
-0.293088
0.145587
-0.249282
0.0253777
0.181164
0.0113281
0.181477
0.0109107
0.182066
0.0102526
0.182986
0.009027
0.184155
0.00701613
0.185273
0.00411747
0.185995
0.000245372
0.186128
-0.00569615
0.185199
-0.0128487
0.182832
-0.0217953
0.178671
-0.0323305
0.172504
-0.0440166
0.164443
-0.0560859
0.155025
-0.0676397
0.145073
-0.0779224
0.135402
-0.0864656
0.126595
-0.0930516
0.11894
-0.0975946
0.112501
-0.100098
0.10722
-0.100614
0.102925
-0.0991754
0.0994699
-0.0958626
0.0968913
-0.0905753
0.094727
-0.0828616
0.0917224
-0.0732388
0.0878568
-0.0629109
0.0862252
-0.0504967
0.0907278
-0.0307016
0.102367
-0.00138843
0.118019
0.0348034
0.134724
0.0715363
0.15056
0.111063
0.164568
0.15714
0.175344
0.204907
0.180425
0.23261
0.178828
0.212153
0.17281
0.134171
0.164994
0.0201206
0.157598
-0.0797328
0.150355
-0.145288
0.14364
-0.174416
0.138759
-0.186634
0.134881
-0.175583
0.128741
-0.162887
0.122376
-0.156464
0.120978
-0.143868
0.128063
-0.112851
0.139959
-0.0157792
0.151091
0.0838723
0.157192
0.228686
0.156888
0.303535
0.154005
0.310851
0.151548
0.209475
0.154489
0.0221716
0.157699
-0.0467887
0.154607
-0.187742
0.150312
-0.208037
0.147717
-0.290493
0.14653
-0.248095
0.0265441
0.183023
0.0113206
0.182964
0.0109699
0.183095
0.0101213
0.183315
0.00880691
0.183507
0.00682455
0.183568
0.00405573
0.183543
0.000270389
0.182404
-0.0045566
0.180351
-0.0107957
0.177005
-0.0184501
0.172142
-0.027467
0.165686
-0.0375604
0.157832
-0.0482321
0.149057
-0.0588648
0.139987
-0.068852
0.131202
-0.0776813
0.123122
-0.0849715
0.115981
-0.0904536
0.10986
-0.0939767
0.104765
-0.0955192
0.100644
-0.0950535
0.0973589
-0.0925779
0.0949624
-0.0881787
0.0935028
-0.0814021
0.0921592
-0.0718953
0.0899092
-0.060661
0.087959
-0.0485465
0.0897893
-0.0325319
0.0974979
-0.00909697
0.110729
0.0215724
0.126431
0.055834
0.142662
0.0948327
0.15823
0.141572
0.171295
0.191841
0.178353
0.225552
0.178062
0.212444
0.172638
0.139595
0.164928
0.0278311
0.156561
-0.071366
0.14873
-0.137458
0.14148
-0.167166
0.136211
-0.181364
0.132756
-0.172128
0.127435
-0.157565
0.12114
-0.150169
0.119035
-0.141763
0.125499
-0.119315
0.137531
-0.0278107
0.149655
0.0717477
0.157336
0.221005
0.158394
0.302477
0.156085
0.31316
0.15324
0.21232
0.155693
0.0197178
0.15891
-0.050005
0.155842
-0.184675
0.151287
-0.203482
0.148567
-0.287772
0.1475
-0.247028
0.0274283
0.19948
0.0113617
-0.199521
0.200039
0.0104102
0.200782
0.00937879
0.201781
0.00780797
0.203012
0.00559366
0.204357
0.00271061
0.205704
-0.00107688
0.206958
-0.0058106
0.207838
-0.0116754
0.208072
-0.0186841
0.20737
-0.0267649
0.205502
-0.0356932
0.20237
-0.0451
0.198029
-0.0545231
0.192652
-0.063475
0.186468
-0.0714971
0.179711
-0.0782147
0.172607
-0.0833495
0.165352
-0.086722
0.158109
-0.0882761
0.151018
-0.0879623
0.144112
-0.0856726
0.137412
-0.0814782
0.131121
-0.0751113
0.125128
-0.0659025
0.118511
-0.0540442
0.110962
-0.0409973
0.104476
-0.0260455
0.102178
-0.00679896
0.10474
0.0190102
0.110893
0.0496807
0.118262
0.0874637
0.12565
0.134185
0.133127
0.184364
0.141534
0.217144
0.152775
0.201203
0.165496
0.126874
0.174214
0.0191135
0.1772
-0.0743527
0.174277
-0.134535
0.167438
-0.160327
0.159711
-0.173637
0.152734
-0.165151
0.144608
-0.149439
0.135531
-0.141093
0.129305
-0.135537
0.128761
-0.118771
0.132511
-0.0315609
0.136248
0.068011
0.138249
0.219004
0.138926
0.3018
0.140604
0.311482
0.144033
0.208891
0.149581
0.01417
0.153942
-0.0543664
0.150806
-0.181539
0.14484
-0.197516
0.14
-0.282932
0.135848
-0.242876
0.0297005
0.211305
0.0109612
-0.210905
0.211957
0.00975863
0.212911
0.0084252
0.214005
0.00671309
0.21514
0.00445907
0.216292
0.00155909
0.217325
-0.00211069
0.218119
-0.00660468
0.218456
-0.0120118
0.218126
-0.0183544
0.216925
-0.0255642
0.214698
-0.0334659
0.211373
-0.0417752
0.206978
-0.0501278
0.201627
-0.0581238
0.195499
-0.065369
0.188808
-0.0715245
0.181782
-0.0763233
0.17463
-0.0795698
0.16751
-0.0811561
0.160551
-0.0810037
0.15383
-0.0789506
0.147332
-0.0749802
0.14117
-0.06895
0.135523
-0.0602548
0.129874
-0.0483955
0.123396
-0.034519
0.116778
-0.0194279
0.112481
-0.00250229
0.112882
0.0186098
0.117602
0.0449604
0.124952
0.0801138
0.133352
0.125785
0.142239
0.175477
0.152602
0.206782
0.16604
0.187765
0.179912
0.113001
0.18899
0.0100353
0.190907
-0.0762692
0.186816
-0.130444
0.178868
-0.152378
0.170181
-0.164951
0.162727
-0.157697
0.154552
-0.141265
0.145225
-0.131766
0.138284
-0.128596
0.137209
-0.117696
0.140815
-0.0351667
0.145077
0.063749
0.147914
0.216167
0.149596
0.300118
0.15219
0.308888
0.155788
0.205293
0.161206
0.00875186
0.165475
-0.0586348
0.161754
-0.177818
0.154937
-0.190699
0.149358