/*--------------------------------*- C++ -*----------------------------------*\
| =========                 |                                                 |
| \\      /  F ield         | OpenFOAM: The Open Source CFD Toolbox           |
|  \\    /   O peration     | Version:  2512                                  |
|   \\  /    A nd           | Website:  www.openfoam.com                      |
|    \\/     M anipulation  |                                                 |
\*---------------------------------------------------------------------------*/
FoamFile
{
    version     2.0;
    format      ascii;
    arch        "LSB;label=32;scalar=64";
    class       volScalarField;
    location    "101";
    object      p;
}
// * * * * * * * * * * * * * * * * * * * * * * * * * * * * * * * * * * * * * //

dimensions      [0 2 -2 0 0 0 0];

internalField   nonuniform List<scalar> 
13248
(
-0.328498
-0.327632
-0.326206
-0.324301
-0.321931
-0.319031
-0.315492
-0.311185
-0.305991
-0.299817
-0.292621
-0.284419
-0.275296
-0.2654
-0.25493
-0.244118
-0.233202
-0.22241
-0.211934
-0.201941
-0.192499
-0.183776
-0.175496
-0.168109
-0.336527
-0.334646
-0.332339
-0.329649
-0.326548
-0.32298
-0.31883
-0.313951
-0.308205
-0.301488
-0.293757
-0.28504
-0.275442
-0.265133
-0.254326
-0.243253
-0.23214
-0.221187
-0.210554
-0.200362
-0.190669
-0.181527
-0.172812
-0.164768
-0.345598
-0.342613
-0.339327
-0.335753
-0.33182
-0.327476
-0.322592
-0.316995
-0.310522
-0.303059
-0.294571
-0.285115
-0.274829
-0.263915
-0.252605
-0.241138
-0.229727
-0.218554
-0.207749
-0.197407
-0.187555
-0.178239
-0.169336
-0.161012
-0.355877
-0.351695
-0.347358
-0.342833
-0.337988
-0.332753
-0.326972
-0.320435
-0.312959
-0.304442
-0.294888
-0.284408
-0.273196
-0.261498
-0.249568
-0.237643
-0.225921
-0.214548
-0.203622
-0.1932
-0.183294
-0.173924
-0.164979
-0.156682
-0.367534
-0.362055
-0.356612
-0.35109
-0.345248
-0.33897
-0.332055
-0.324266
-0.31543
-0.305499
-0.294561
-0.282813
-0.270518
-0.257957
-0.24539
-0.233032
-0.22104
-0.209515
-0.198516
-0.188064
-0.178155
-0.168787
-0.159879
-0.151601
-0.380656
-0.373788
-0.367202
-0.360635
-0.353671
-0.346119
-0.337734
-0.328287
-0.317678
-0.305975
-0.293388
-0.280213
-0.266769
-0.253346
-0.240177
-0.227428
-0.215202
-0.203553
-0.1925
-0.182038
-0.172149
-0.16281
-0.153961
-0.14573
-0.395174
-0.386854
-0.379099
-0.371406
-0.363119
-0.353953
-0.343661
-0.332098
-0.319314
-0.30555
-0.291155
-0.276506
-0.261937
-0.247708
-0.233995
-0.2209
-0.208471
-0.196716
-0.185623
-0.175166
-0.165311
-0.156023
-0.147264
-0.139086
-0.410811
-0.401028
-0.392076
-0.383119
-0.373204
-0.361977
-0.349279
-0.335151
-0.319876
-0.303888
-0.287653
-0.271578
-0.255966
-0.241011
-0.226816
-0.213416
-0.200807
-0.188963
-0.177843
-0.167405
-0.157603
-0.148397
-0.139753
-0.131653
-0.427059
-0.415867
-0.40568
-0.395238
-0.383282
-0.36948
-0.353889
-0.336849
-0.318912
-0.300686
-0.282695
-0.265317
-0.248781
-0.233194
-0.218582
-0.204923
-0.192167
-0.180259
-0.169137
-0.158744
-0.149025
-0.139934
-0.131434
-0.123444
-0.443167
-0.430678
-0.419186
-0.406948
-0.392469
-0.375588
-0.356728
-0.3366
-0.316014
-0.295679
-0.276108
-0.257595
-0.240271
-0.224154
-0.2092
-0.195335
-0.182478
-0.170545
-0.159459
-0.149149
-0.13955
-0.130611
-0.122276
-0.114431
-0.45816
-0.444523
-0.431603
-0.417182
-0.399684
-0.379313
-0.356981
-0.333781
-0.310707
-0.288491
-0.26756
-0.2481
-0.230134
-0.213599
-0.198391
-0.184395
-0.171501
-0.159606
-0.148617
-0.138448
-0.129027
-0.120293
-0.112161
-0.10452
-0.470931
-0.456337
-0.441844
-0.424819
-0.403833
-0.379657
-0.353772
-0.327615
-0.302281
-0.278436
-0.256383
-0.236178
-0.21774
-0.200929
-0.18559
-0.171576
-0.158749
-0.146988
-0.136187
-0.126251
-0.117101
-0.108664
-0.100827
-0.0935311
-0.342724
-0.344845
-0.346065
-0.346867
-0.347711
-0.348752
-0.35004
-0.351581
-0.353345
-0.35529
-0.357359
-0.359487
-0.361594
-0.363582
-0.365336
-0.366719
-0.367569
-0.367708
-0.366832
-0.365023
-0.362007
-0.357654
-0.352023
-0.345496
-0.332714
-0.335322
-0.336743
-0.337526
-0.338167
-0.338805
-0.339474
-0.340163
-0.340833
-0.341424
-0.341869
-0.342091
-0.342004
-0.341516
-0.340528
-0.338936
-0.336626
-0.333427
-0.329437
-0.324506
-0.31861
-0.311725
-0.304099
-0.296847
-0.323862
-0.326802
-0.328348
-0.329083
-0.329513
-0.329759
-0.329833
-0.329711
-0.329341
-0.328651
-0.327565
-0.325999
-0.323868
-0.321089
-0.31758
-0.313269
-0.308089
-0.302059
-0.29517
-0.287477
-0.279075
-0.270014
-0.260534
-0.252228
-0.316529
-0.319647
-0.321246
-0.321911
-0.32214
-0.322025
-0.321561
-0.32071
-0.319408
-0.317577
-0.315134
-0.311995
-0.308083
-0.30333
-0.297681
-0.291104
-0.283598
-0.27521
-0.266022
-0.256177
-0.245886
-0.235322
-0.224586
-0.214983
-0.310942
-0.3141
-0.315684
-0.316261
-0.316298
-0.315862
-0.314926
-0.313441
-0.311335
-0.308525
-0.30493
-0.300472
-0.295084
-0.28872
-0.281358
-0.273009
-0.263726
-0.253609
-0.242809
-0.231538
-0.22008
-0.208716
-0.197566
-0.187844
-0.307223
-0.310297
-0.311802
-0.312267
-0.312118
-0.311393
-0.310049
-0.308024
-0.305242
-0.301621
-0.297081
-0.291556
-0.284996
-0.27738
-0.26872
-0.25907
-0.248533
-0.237266
-0.225477
-0.213432
-0.20146
-0.189914
-0.17902
-0.169375
-0.305403
-0.30828
-0.30964
-0.309963
-0.309626
-0.30864
-0.306946
-0.304474
-0.301143
-0.296874
-0.291594
-0.285249
-0.27781
-0.269282
-0.259713
-0.2492
-0.237891
-0.225993
-0.213764
-0.20151
-0.189581
-0.178322
-0.168282
-0.15837
-0.305445
-0.308009
-0.309152
-0.309296
-0.30876
-0.307535
-0.305547
-0.302718
-0.298965
-0.294211
-0.288392
-0.281468
-0.273432
-0.264317
-0.254206
-0.243235
-0.231596
-0.219534
-0.207343
-0.195347
-0.183927
-0.173187
-0.164471
-0.154398
-0.307246
-0.309374
-0.310219
-0.310136
-0.309383
-0.307927
-0.30569
-0.302583
-0.29852
-0.293426
-0.287247
-0.279958
-0.271571
-0.26215
-0.251807
-0.240716
-0.229103
-0.217244
-0.205448
-0.194019
-0.183413
-0.173333
-0.165942
-0.156491
-0.310644
-0.312208
-0.31266
-0.312281
-0.311266
-0.309567
-0.307096
-0.303754
-0.299453
-0.294117
-0.2877
-0.280188
-0.271617
-0.262074
-0.251703
-0.240706
-0.229334
-0.217876
-0.206645
-0.195905
-0.186123
-0.176881
-0.170277
-0.162194
-0.31544
-0.31631
-0.316256
-0.315485
-0.314128
-0.312128
-0.309381
-0.305787
-0.30125
-0.295693
-0.289073
-0.281391
-0.272698
-0.263108
-0.252788
-0.24196
-0.230886
-0.219847
-0.20913
-0.198983
-0.189738
-0.181277
-0.174843
-0.168159
-0.321441
-0.321494
-0.320806
-0.319516
-0.317697
-0.315287
-0.312179
-0.308262
-0.303429
-0.297602
-0.290739
-0.282851
-0.274007
-0.264338
-0.25403
-0.243313
-0.23244
-0.221668
-0.21123
-0.201348
-0.192178
-0.183898
-0.176887
-0.170799
-0.336776
-0.324426
-0.310333
-0.295404
-0.281152
-0.269239
-0.261853
-0.259755
-0.263859
-0.273256
-0.285816
-0.298055
-0.305386
-0.304346
-0.290447
-0.263158
-0.22584
-0.185443
-0.149161
-0.1215
-0.103806
-0.0952664
-0.0945302
-0.101491
-0.117013
-0.138817
-0.158517
-0.165178
-0.155272
-0.132991
-0.10775
-0.0869988
-0.0740237
-0.0683613
-0.0687809
-0.0766953
-0.093234
-0.112068
-0.121327
-0.11381
-0.0950727
-0.0760631
-0.0617537
-0.0531878
-0.0506646
-0.0552359
-0.0617119
-0.0626066
-0.056585
-0.049617
-0.0424089
-0.0385536
-0.0369565
-0.0364051
-0.036048
-0.0341523
-0.0275078
-0.0215143
-0.0111176
-0.0014223
-0.289345
-0.280375
-0.271273
-0.262937
-0.256957
-0.253736
-0.256915
-0.263838
-0.276256
-0.292497
-0.309926
-0.324764
-0.331884
-0.331
-0.315008
-0.284154
-0.242404
-0.197387
-0.156781
-0.125177
-0.103745
-0.0915731
-0.0872531
-0.0902767
-0.101285
-0.118873
-0.136212
-0.143753
-0.136916
-0.119192
-0.0983277
-0.0813545
-0.0716137
-0.0686689
-0.0716438
-0.0823801
-0.101832
-0.122846
-0.132628
-0.123663
-0.102257
-0.0801873
-0.0630024
-0.0521561
-0.0473006
-0.0496352
-0.054214
-0.0546985
-0.0502105
-0.0452911
-0.0405281
-0.0386333
-0.039533
-0.0406056
-0.0406625
-0.0385697
-0.0305382
-0.0235707
-0.0116287
-0.00114159
-0.246246
-0.240758
-0.236084
-0.233089
-0.235501
-0.239921
-0.249772
-0.264393
-0.28316
-0.304248
-0.324922
-0.341878
-0.352105
-0.348143
-0.330403
-0.297338
-0.252857
-0.204914
-0.161423
-0.126999
-0.102644
-0.0873381
-0.0796333
-0.0787985
-0.0852763
-0.0984593
-0.113165
-0.121154
-0.117282
-0.10401
-0.0875187
-0.0744166
-0.0680158
-0.0678613
-0.0734296
-0.0868839
-0.108988
-0.131991
-0.142357
-0.132227
-0.108509
-0.0836856
-0.0638382
-0.0508999
-0.0439447
-0.0442543
-0.0470793
-0.047113
-0.043933
-0.0408461
-0.038461
-0.0385909
-0.0421486
-0.0449105
-0.0452419
-0.0428404
-0.0334288
-0.0255289
-0.0121373
-0.000893956
-0.210146
-0.209299
-0.207966
-0.209748
-0.215958
-0.226445
-0.241719
-0.26127
-0.283976
-0.307871
-0.330272
-0.348112
-0.357686
-0.354618
-0.336525
-0.30268
-0.257209
-0.208137
-0.16333
-0.12728
-0.100868
-0.0830563
-0.0724185
-0.068055
-0.0702098
-0.0789187
-0.0906128
-0.0984576
-0.0971045
-0.0879787
-0.075685
-0.066383
-0.0632581
-0.0658017
-0.0738255
-0.0897347
-0.114226
-0.139121
-0.150217
-0.139289
-0.113689
-0.0865021
-0.0642862
-0.0494803
-0.0406905
-0.0392278
-0.0404696
-0.0399891
-0.0378582
-0.0363472
-0.0362315
-0.0384091
-0.0447632
-0.0492763
-0.0497458
-0.0469168
-0.0361434
-0.0273658
-0.0126354
-0.000675988
-0.18599
-0.184505
-0.185889
-0.190927
-0.2003
-0.214203
-0.232531
-0.25461
-0.27916
-0.30418
-0.327103
-0.345506
-0.354731
-0.352066
-0.334258
-0.300867
-0.256092
-0.207705
-0.163143
-0.126569
-0.0988573
-0.0791238
-0.0660403
-0.0586603
-0.0569245
-0.0612566
-0.0696243
-0.0766483
-0.0771665
-0.071618
-0.0631643
-0.0574256
-0.0573327
-0.0623512
-0.0725788
-0.0906176
-0.117231
-0.143927
-0.155908
-0.144637
-0.1177
-0.088625
-0.0643964
-0.0479666
-0.0376062
-0.0346278
-0.0344871
-0.0334393
-0.0320859
-0.0318615
-0.0338586
-0.0380642
-0.0473256
-0.0536393
-0.0541191
-0.0507502
-0.0386469
-0.0290591
-0.0131143
-0.00048436
-0.169121
-0.168633
-0.170972
-0.177339
-0.188165
-0.203425
-0.222757
-0.245416
-0.270138
-0.294959
-0.31729
-0.334322
-0.344398
-0.342092
-0.32501
-0.293067
-0.250446
-0.204345
-0.161401
-0.125314
-0.0969952
-0.0758537
-0.0607872
-0.0508771
-0.0458692
-0.0461985
-0.0510517
-0.0566718
-0.0591985
-0.0554121
-0.0503177
-0.047745
-0.0503089
-0.0575015
-0.0696234
-0.0894114
-0.117812
-0.146148
-0.159219
-0.148181
-0.120494
-0.0900454
-0.0642066
-0.0464089
-0.0347302
-0.0304833
-0.0291843
-0.0275402
-0.0267028
-0.0274518
-0.0313592
-0.0375276
-0.0497693
-0.0579154
-0.0583054
-0.0542984
-0.0409073
-0.0305862
-0.0135628
-0.000314606
-0.159888
-0.16036
-0.162368
-0.16843
-0.179244
-0.194378
-0.213187
-0.234971
-0.258587
-0.282199
-0.303732
-0.32019
-0.328953
-0.326487
-0.310392
-0.280752
-0.241504
-0.198937
-0.158672
-0.123893
-0.0955728
-0.0734775
-0.0568391
-0.044848
-0.0371326
-0.0340055
-0.0354062
-0.0390147
-0.041365
-0.0396738
-0.0375976
-0.0376557
-0.0424018
-0.0513935
-0.0650118
-0.086087
-0.115863
-0.145675
-0.160069
-0.149882
-0.122041
-0.0907547
-0.0637375
-0.0448393
-0.0320773
-0.0267834
-0.0245537
-0.0223295
-0.0217739
-0.0231791
-0.0287509
-0.0367668
-0.0520177
-0.0620128
-0.0622534
-0.0575195
-0.0428948
-0.0319281
-0.0139689
-0.000160332
-0.157485
-0.158546
-0.159205
-0.163709
-0.173334
-0.187165
-0.204299
-0.224151
-0.245634
-0.267027
-0.287026
-0.302083
-0.309344
-0.306645
-0.291907
-0.265338
-0.230379
-0.192187
-0.155301
-0.122428
-0.0946194
-0.0719964
-0.0541749
-0.0405349
-0.030651
-0.0246784
-0.0228972
-0.0241923
-0.025809
-0.0250209
-0.0255436
-0.0275505
-0.0339092
-0.0442358
-0.0589135
-0.0807731
-0.111443
-0.142577
-0.158485
-0.149699
-0.122322
-0.0907552
-0.0630065
-0.0432807
-0.0296537
-0.0235068
-0.0205516
-0.0177961
-0.0173365
-0.0191029
-0.0260531
-0.0357499
-0.0539919
-0.0658316
-0.0659063
-0.0603764
-0.0445853
-0.0330728
-0.0143281
-1.3671e-05
-0.160321
-0.161183
-0.159966
-0.162395
-0.169943
-0.18142
-0.19596
-0.213098
-0.231843
-0.250901
-0.267482
-0.280583
-0.286624
-0.284019
-0.271101
-0.248211
-0.21809
-0.184681
-0.151521
-0.120927
-0.0940509
-0.0713132
-0.0526854
-0.0378019
-0.0262446
-0.0180273
-0.0134981
-0.0124092
-0.0129715
-0.0117611
-0.014607
-0.0178069
-0.0251662
-0.0363053
-0.0515055
-0.0736195
-0.10481
-0.137029
-0.154583
-0.147698
-0.12142
-0.0901495
-0.0621261
-0.0418291
-0.0275064
-0.0206487
-0.0171555
-0.0139127
-0.0134139
-0.0152833
-0.0232833
-0.0344436
-0.0556182
-0.0692662
-0.0692044
-0.0628435
-0.0459663
-0.0340135
-0.0146477
0.000131464
-0.165244
-0.164912
-0.162289
-0.162962
-0.167945
-0.176311
-0.187642
-0.20147
-0.216937
-0.23374
-0.247114
-0.257438
-0.262537
-0.260476
-0.249906
-0.231109
-0.206018
-0.177457
-0.148124
-0.120029
-0.0944119
-0.071919
-0.052796
-0.0369538
-0.0240725
-0.0140637
-0.00722434
-0.00381207
-0.00327507
-0.00572797
-0.00524028
-0.00870884
-0.016466
-0.0279005
-0.0432258
-0.065184
-0.0962723
-0.129274
-0.14855
-0.144038
-0.119526
-0.0891653
-0.0613142
-0.0406758
-0.0257416
-0.0182026
-0.0143283
-0.0107026
-0.0101399
-0.0117466
-0.0204633
-0.032845
-0.0568079
-0.072208
-0.0720907
-0.0648938
-0.0470291
-0.0347382
-0.0149234
0.000280106
-0.168956
-0.16693
-0.1641
-0.163683
-0.16603
-0.171184
-0.179224
-0.189597
-0.201512
-0.213795
-0.225062
-0.233814
-0.23852
-0.237489
-0.229697
-0.215196
-0.195137
-0.171377
-0.145903
-0.120439
-0.0962727
-0.0742463
-0.0548292
-0.0381891
-0.0241996
-0.0127427
-0.00397543
0.00169653
0.00403933
0.00349767
0.00291641
-0.000533203
-0.00810251
-0.0192138
-0.0340172
-0.0553655
-0.0865095
-0.120247
-0.140516
-0.138635
-0.116388
-0.0875644
-0.0603065
-0.039644
-0.0242356
-0.0160312
-0.0118249
-0.0080509
-0.00754457
-0.00858537
-0.0175724
-0.0308757
-0.0575433
-0.0745688
-0.0744764
-0.0664615
-0.0477262
-0.0352155
-0.0150965
0.000455392
-0.16916
-0.16698
-0.164674
-0.163296
-0.16356
-0.166091
-0.17091
-0.177564
-0.18572
-0.194125
-0.203702
-0.21021
-0.213873
-0.21346
-0.207957
-0.197108
-0.181394
-0.161902
-0.140041
-0.117276
-0.0948777
-0.0738182
-0.0547225
-0.0379089
-0.0234435
-0.0113034
-0.00143314
0.00598131
0.0102099
0.0110671
0.00984042
0.0065908
-0.000561053
-0.0110838
-0.0251717
-0.0454467
-0.0755987
-0.109003
-0.130209
-0.130063
-0.110787
-0.0838547
-0.0575761
-0.0374812
-0.0221431
-0.0137108
-0.0092065
-0.0054053
-0.00514593
-0.00571578
-0.0148009
-0.0286832
-0.057654
-0.0762243
-0.0763183
-0.0674957
-0.0479496
-0.035406
-0.015069
0.000707923
-0.165108
-0.16566
-0.163317
-0.161084
-0.160614
-0.162301
-0.165955
-0.171231
-0.177676
-0.1846
-0.191331
-0.196411
-0.198854
-0.197566
-0.191784
-0.181337
-0.166664
-0.148693
-0.128614
-0.107673
-0.0869533
-0.0672971
-0.0492575
-0.033131
-0.0190042
-0.00690965
0.00319791
0.0112626
0.0166853
0.0189866
0.0196228
0.0152982
0.00890356
-0.000305838
-0.0132668
-0.0332267
-0.0649197
-0.101455
-0.125623
-0.126286
-0.105566
-0.0787907
-0.0532777
-0.0340118
-0.0192361
-0.0112195
-0.00664277
-0.00263636
-0.00200989
-0.00181761
-0.0110638
-0.0255455
-0.057106
-0.077994
-0.0781702
-0.0683317
-0.0477744
-0.0353411
-0.0148704
0.000989771
-0.159749
-0.162083
-0.159959
-0.157175
-0.1561
-0.157145
-0.159891
-0.163836
-0.1685
-0.17332
-0.177807
-0.180899
-0.181641
-0.179258
-0.173211
-0.16339
-0.150139
-0.134162
-0.116365
-0.0977136
-0.079073
-0.0611533
-0.0444559
-0.0292743
-0.0157593
-0.00400777
0.00606514
0.0144822
0.0206042
0.0236006
0.0232914
0.0208078
0.0156292
0.00786793
-0.00386337
-0.023288
-0.0557299
-0.093549
-0.11786
-0.117635
-0.0974517
-0.0721562
-0.0484197
-0.0305824
-0.0166373
-0.00893339
-0.00435102
-0.000509502
0.000225843
0.000738499
-0.0083113
-0.0229991
-0.0562909
-0.0791115
-0.0790619
-0.0683793
-0.0471483
-0.0348594
-0.0145574
0.0011244
-0.152233
-0.156064
-0.154646
-0.151796
-0.150304
-0.15075
-0.152623
-0.155327
-0.158448
-0.161574
-0.164162
-0.165535
-0.165027
-0.162054
-0.156197
-0.147319
-0.135611
-0.12155
-0.105805
-0.0891367
-0.0722669
-0.0558213
-0.0402739
-0.0259333
-0.0129675
-0.00151936
0.00841827
0.0169015
0.0234261
0.027145
0.0276017
0.0256512
0.0213447
0.0145349
0.00336117
-0.0159773
-0.0479061
-0.0842388
-0.10741
-0.107209
-0.0884488
-0.0652058
-0.0434485
-0.0270826
-0.0140263
-0.00669516
-0.00217332
0.00149702
0.00229418
0.0028242
-0.00626724
-0.0211425
-0.0552688
-0.0793415
-0.0791587
-0.067811
-0.0461603
-0.0340656
-0.0141944
0.00118838
-0.143327
-0.148372
-0.147825
-0.145212
-0.143472
-0.143394
-0.144548
-0.146319
-0.148244
-0.149962
-0.15113
-0.151306
-0.149982
-0.146681
-0.141046
-0.132932
-0.122447
-0.109937
-0.095916
-0.0809888
-0.0657468
-0.0507189
-0.036326
-0.0228704
-0.0105256
0.000544112
0.0102561
0.0186591
0.0254245
0.0298117
0.031129
0.0300576
0.0268482
0.0210262
0.0103073
-0.00877321
-0.0393098
-0.0737438
-0.0958106
-0.095651
-0.078645
-0.0577631
-0.0381827
-0.0234428
-0.0114104
-0.00451814
-9.6947e-05
0.00344675
0.00427249
0.00480012
-0.00438923
-0.0192521
-0.0535239
-0.0785865
-0.0785149
-0.0666151
-0.0447994
-0.0329456
-0.0137469
0.00120322
-0.133743
-0.139571
-0.139842
-0.137632
-0.13583
-0.135393
-0.136003
-0.137039
-0.138043
-0.138746
-0.138916
-0.138229
-0.136298
-0.132752
-0.127306
-0.119838
-0.110411
-0.0992728
-0.0868018
-0.0734601
-0.059718
-0.0460186
-0.0327332
-0.0201558
-0.00847026
0.00215944
0.0115917
0.0198227
0.0266318
0.031493
0.033627
0.0336385
0.0317861
0.0273435
0.017582
-0.000851697
-0.0300649
-0.0626976
-0.083102
-0.0830031
-0.0681754
-0.0500197
-0.0327772
-0.0197354
-0.00881688
-0.00241125
0.00187655
0.00532673
0.00611464
0.00668002
-0.00243206
-0.0169105
-0.050825
-0.076693
-0.0769293
-0.0646925
-0.0430267
-0.0314858
-0.0132008
0.0011725
-0.123749
-0.13004
-0.131011
-0.129275
-0.127561
-0.126906
-0.127105
-0.127597
-0.127957
-0.127953
-0.127406
-0.126091
-0.123732
-0.120054
-0.114839
-0.107978
-0.0994987
-0.089567
-0.0784568
-0.066522
-0.0541387
-0.0416776
-0.0294617
-0.0177638
-0.00677407
0.00334932
0.0124386
0.0204391
0.0271624
0.0322282
0.0350765
0.0360886
0.0356121
0.0328244
0.0244249
0.00675692
-0.0210968
-0.0512851
-0.0694959
-0.0696506
-0.0573787
-0.0421852
-0.0273465
-0.0160082
-0.00626333
-0.000381327
0.00373586
0.00712743
0.00783279
0.00844923
-0.00036792
-0.0141238
-0.0471195
-0.0734344
-0.0742154
-0.0619776
-0.0408285
-0.0296896
-0.0125376
0.00110443
-0.113635
-0.120117
-0.121627
-0.120359
-0.118821
-0.118065
-0.117992
-0.118118
-0.118043
-0.117553
-0.116516
-0.114787
-0.11218
-0.108489
-0.103543
-0.0972462
-0.0896025
-0.0807249
-0.0708139
-0.0601403
-0.0490011
-0.0377006
-0.0265158
-0.0156919
-0.0054201
0.00414373
0.0128264
0.0205511
0.0271254
0.0322787
0.0355757
0.0373452
0.0379586
0.0366033
0.0295513
0.0129817
-0.0127379
-0.0396089
-0.0553223
-0.0560848
-0.0466252
-0.0344792
-0.0220236
-0.0123261
-0.00377036
0.00156866
0.00547722
0.00884976
0.00945255
0.0100999
0.00175213
-0.0109914
-0.0423488
-0.0686567
-0.0702507
-0.0584415
-0.0382131
-0.0275753
-0.0117415
0.00101168
-0.103631
-0.110056
-0.111944
-0.111105
-0.109791
-0.109032
-0.108808
-0.108699
-0.108342
-0.107544
-0.106212
-0.104254
-0.101541
-0.0979238
-0.0932703
-0.0875005
-0.0806074
-0.0726682
-0.0638283
-0.0542923
-0.0442923
-0.0340758
-0.0238789
-0.0139184
-0.00437896
0.00458728
0.0128076
0.0201984
0.02657
0.0317119
0.0352669
0.0375017
0.03873
0.0382276
0.0323413
0.0175871
-0.00494096
-0.0279012
-0.041278
-0.0429521
-0.036335
-0.0271214
-0.0169329
-0.0087564
-0.00135754
0.00344162
0.00710656
0.0104963
0.0110033
0.0116376
0.00391826
-0.00752335
-0.0365093
-0.0623429
-0.0649891
-0.0540946
-0.0352135
-0.0251795
-0.0107985
0.000910744
-0.0938356
-0.100061
-0.102199
-0.101731
-0.100659
-0.0999593
-0.0996646
-0.0994218
-0.0989048
-0.097943
-0.0964651
-0.0944135
-0.0917035
-0.0882297
-0.083892
-0.0786264
-0.0724209
-0.0653268
-0.0574489
-0.0489413
-0.0399855
-0.0307813
-0.0215283
-0.0124155
-0.00361547
0.00472619
0.012441
0.0194436
0.0255547
0.0305933
0.0342588
0.0367274
0.0381841
0.0380115
0.0331656
0.0208404
0.00216946
-0.0167954
-0.0283212
-0.0309628
-0.0269056
-0.0202999
-0.0121762
-0.00536538
0.000952578
0.00523853
0.00863657
0.012072
0.0125274
0.0131054
0.00619873
-0.00370577
-0.029732
-0.0546285
-0.0584976
-0.049005
-0.0318903
-0.0225581
-0.009699
0.000821264
-0.0843886
-0.0903152
-0.0925851
-0.0924164
-0.0915756
-0.0909692
-0.0906635
-0.090363
-0.0897788
-0.0887575
-0.0872426
-0.0852006
-0.0825789
-0.0793046
-0.0753035
-0.0705247
-0.0649547
-0.0586275
-0.0516192
-0.0440462
-0.03605
-0.0277912
-0.0194367
-0.0111496
-0.00308801
0.00461186
0.0117894
0.0183575
0.0241506
0.0290033
0.0326619
0.0352119
0.036703
0.0366112
0.032718
0.0229314
0.00809847
-0.0072072
-0.017185
-0.0206313
-0.0186116
-0.0141465
-0.00782472
-0.00221116
0.00313484
0.00694999
0.0100772
0.0135815
0.0140871
0.0145964
0.00869113
0.000417551
-0.0222889
-0.045824
-0.0509766
-0.0432981
-0.0283268
-0.0197846
-0.00843955
0.000764531
-0.0754091
-0.080935
-0.0832319
-0.0832952
-0.0826657
-0.0821686
-0.0818923
-0.081589
-0.0810026
-0.0799956
-0.0785231
-0.0765675
-0.0740978
-0.0710648
-0.0674138
-0.0631056
-0.0581271
-0.0525018
-0.046285
-0.0395651
-0.0324522
-0.0250751
-0.0175722
-0.0100833
-0.00275077
0.00430023
0.0109194
0.0170168
0.0224429
0.0270447
0.0306038
0.0331351
0.0345833
0.03451
0.031435
0.0238672
0.0123801
0.000235238
-0.00832123
-0.01215
-0.0115626
-0.00872978
-0.00392033
0.000661391
0.00516392
0.00855597
0.0114253
0.0150151
0.0157355
0.0162335
0.0114774
0.00474054
-0.0145783
-0.036431
-0.0427413
-0.0371336
-0.0246183
-0.0169459
-0.00702802
0.000760739
-0.066907
-0.0719841
-0.0742404
-0.07448
-0.0740369
-0.0736531
-0.0734288
-0.0731558
-0.0726108
-0.0716699
-0.0702953
-0.0684792
-0.066205
-0.0634405
-0.0601461
-0.056292
-0.0518672
-0.0468878
-0.0413948
-0.0354555
-0.029156
-0.0225995
-0.0159003
-0.00917751
-0.00255663
0.00384781
0.00989937
0.0155058
0.020526
0.0248248
0.0282151
0.030657
0.0320289
0.0319801
0.0295648
0.0237721
0.0150186
0.00553779
-0.00163821
-0.00543144
-0.00573394
-0.00406657
-0.000481038
0.00322298
0.0070137
0.0100339
0.0126669
0.0163338
0.0174516
0.0181163
0.014594
0.00909966
-0.00710114
-0.027071
-0.0342124
-0.030721
-0.0208641
-0.0141315
-0.00549193
0.000823897
-0.058898
-0.0635255
-0.0656964
-0.0660622
-0.0657763
-0.0655001
-0.0653349
-0.0651112
-0.0646353
-0.0637939
-0.0625521
-0.0609083
-0.0588562
-0.0563752
-0.053437
-0.0500192
-0.0461128
-0.0417294
-0.0368998
-0.0316759
-0.0261251
-0.0203303
-0.0143856
-0.00839192
-0.00245853
0.00331138
0.00879505
0.0138998
0.018494
0.0224589
0.0256303
0.0279347
0.0292239
0.0292252
0.0273477
0.0229565
0.0163749
0.00908714
0.00322283
-0.000246708
-0.00102431
-0.000137871
0.00249189
0.00546091
0.008657
0.0113602
0.0137849
0.0174777
0.0191051
0.020203
0.0179059
0.0132172
-0.000392991
-0.0183437
-0.0258746
-0.0243251
-0.0171654
-0.0114212
-0.00388433
0.000953641
-0.051433
-0.0556064
-0.057652
-0.0580999
-0.057942
-0.0577624
-0.0576613
-0.0574974
-0.0571036
-0.0563775
-0.055287
-0.0538334
-0.0520164
-0.0498234
-0.0472343
-0.0442323
-0.0408101
-0.0369768
-0.0327556
-0.028187
-0.0233241
-0.0182339
-0.0129933
-0.00768781
-0.00241155
0.00274332
0.00766822
0.0122733
0.0164371
0.0200537
0.0229775
0.0251216
0.0263376
0.026418
0.025005
0.021729
0.0168415
0.0113267
0.00666492
0.00366865
0.00270037
0.00309914
0.00500768
0.0073753
0.0100732
0.012507
0.0147565
0.0183869
0.0204984
0.0221205
0.0209315
0.0166543
0.00510618
-0.0106948
-0.0181658
-0.0182151
-0.0136211
-0.00888231
-0.00228102
0.00113196
-0.0445153
-0.048236
-0.0501309
-0.0506281
-0.0505742
-0.0504798
-0.0504405
-0.0503389
-0.050032
-0.0494273
-0.0484949
-0.0472371
-0.0456571
-0.0437478
-0.0414946
-0.0388849
-0.035913
-0.032586
-0.0289219
-0.0249526
-0.0207201
-0.0162786
-0.0116912
-0.00702978
-0.00237457
0.00219274
0.00657649
0.0106931
0.0144334
0.0177015
0.0203692
0.0223485
0.0235066
0.0236916
0.0226877
0.0203016
0.0167351
0.0126363
0.00902918
0.00655405
0.00557956
0.00570329
0.00708512
0.00897203
0.0112513
0.0134495
0.0155469
0.0189976
0.0214524
0.0234303
0.0230217
0.0189784
0.00916878
-0.00436201
-0.0114237
-0.0126508
-0.0103204
-0.00657116
-0.000784576
0.00132736
-0.0381175
-0.0414112
-0.0431476
-0.0436705
-0.0436992
-0.0436778
-0.0436945
-0.0436523
-0.0434297
-0.0429449
-0.042169
-0.0411037
-0.0397542
-0.0381171
-0.0361816
-0.0339381
-0.0313822
-0.0285193
-0.0253635
-0.0219404
-0.0182831
-0.0144358
-0.0104501
-0.00638614
-0.0023119
0.00170086
0.00556938
0.00921745
0.0125481
0.0154758
0.0178946
0.0197181
0.0208326
0.0211326
0.0204875
0.018814
0.0162726
0.0132962
0.0105835
0.00862177
0.00774671
0.00774079
0.00875053
0.0102616
0.0121871
0.0141642
0.0161142
0.0192473
0.0218297
0.0237909
0.0237908
0.0200521
0.0118185
0.00056596
-0.00587145
-0.0078493
-0.00733245
-0.00453158
0.000482607
0.00150064
-0.0322311
-0.0351304
-0.0367064
-0.037236
-0.0373283
-0.0373667
-0.0374328
-0.0374471
-0.0373005
-0.0369271
-0.0362994
-0.0354175
-0.0342863
-0.0329047
-0.031265
-0.0293596
-0.0271847
-0.0247446
-0.0220504
-0.0191226
-0.0159874
-0.0126812
-0.00924544
-0.00573069
-0.00219421
0.00130197
0.00468731
0.00789273
0.0108334
0.0134352
0.0156225
0.017302
0.0183817
0.018793
0.0184564
0.0173533
0.015605
0.0135086
0.0115339
0.0100437
0.00932361
0.00928142
0.0100372
0.0112568
0.0128832
0.0146369
0.0164241
0.01913
0.0216159
0.023264
0.0233589
0.0200651
0.0132705
0.00413124
-0.0015869
-0.00392944
-0.00470002
-0.00278942
0.00142126
0.00161893
-0.0268454
-0.0293791
-0.0307958
-0.0313179
-0.0314586
-0.0315464
-0.0316546
-0.0317139
-0.0316342
-0.0313636
-0.0308746
-0.0301632
-0.0292341
-0.0280879
-0.0267192
-0.025122
-0.0232929
-0.0212352
-0.0189574
-0.0164761
-0.013812
-0.0109947
-0.00805789
-0.00504376
-0.00199968
0.00102195
0.00396063
0.00675514
0.00933204
0.011615
0.0136008
0.0151458
0.0161926
0.0167022
0.0166234
0.0159689
0.0148288
0.0134189
0.0120373
0.0109624
0.010417
0.0103936
0.0109826
0.0119749
0.0133458
0.0148697
0.0164723
0.0186977
0.0207587
0.0221252
0.0221368
0.0193443
0.0138299
0.00651406
0.00152248
-0.000893629
-0.00244947
-0.00134804
0.00199658
0.00168287
-0.0219316
-0.0241324
-0.025397
-0.0259029
-0.0260797
-0.026206
-0.0263472
-0.0264461
-0.0264256
-0.0262464
-0.0258809
-0.0253242
-0.0245788
-0.0236459
-0.022522
-0.0212024
-0.0196839
-0.0179691
-0.0160642
-0.0139826
-0.0117406
-0.00936212
-0.00687434
-0.00431202
-0.00171375
0.000876239
0.00340738
0.00583053
0.00809106
0.0101588
0.0118719
0.0132742
0.014283
0.0148699
0.0149965
0.0146904
0.0140135
0.0131328
0.0122155
0.0114919
0.0111206
0.0111434
0.0116254
0.01244
0.0135894
0.0148824
0.0162815
0.018045
0.0197083
0.0206814
0.0205332
0.0182032
0.013787
0.00798421
0.00365769
0.00134156
-0.00060045
-0.000213529
0.0022349
0.00175197
-0.0174621
-0.0193654
-0.0204886
-0.020973
-0.0211763
-0.0213339
-0.0215035
-0.0216399
-0.0216787
-0.0215692
-0.021307
-0.0208852
-0.0203028
-0.0195598
-0.0186539
-0.0175812
-0.0163389
-0.0149286
-0.0133549
-0.0116282
-0.00976144
-0.00777378
-0.0056868
-0.0035288
-0.00133123
0.000869402
0.00303161
0.00511416
0.00706674
0.00884959
0.0103931
0.0116809
0.0126517
0.0132927
0.0135756
0.0135322
0.0132005
0.0127045
0.0121585
0.0117243
0.0115133
0.0115915
0.0120054
0.0126802
0.0136356
0.0147053
0.0158903
0.0172347
0.0185085
0.0191324
0.0188298
0.0168821
0.0133658
0.00879982
0.00505088
0.00290624
0.000851207
0.000636508
0.00218059
0.000898818
-0.0134131
-0.0150517
-0.0160449
-0.0165042
-0.0167257
-0.0169067
-0.0170967
-0.0172591
-0.0173388
-0.0172999
-0.0171286
-0.0168247
-0.0163859
-0.0158106
-0.0150967
-0.0142414
-0.0132421
-0.0120997
-0.0108175
-0.00940335
-0.00786739
-0.00622478
-0.00449259
-0.00269344
-0.000852692
0.000999967
0.00283115
0.00460624
0.00628119
0.00782243
0.00918325
0.0103629
0.0112897
0.0119599
0.0123526
0.0125014
0.0124239
0.0122108
0.0119428
0.0117366
0.0116633
0.0117939
0.0121629
0.0127256
0.0135113
0.0143744
0.0153436
0.0163308
0.0172516
0.0175939
0.0171793
0.0155384
0.0127281
0.00915312
0.00590664
0.00394226
0.0019427
0.00126566
0.00206002
0.000917937
-0.00975756
-0.0111624
-0.0120375
-0.0124704
-0.0127041
-0.0129027
-0.0131082
-0.0132913
-0.0134065
-0.0134222
-0.0133284
-0.013124
-0.0128092
-0.0123802
-0.0118339
-0.011168
-0.0103802
-0.0094712
-0.00844306
-0.00730176
-0.00605495
-0.00471448
-0.00329364
-0.00181029
-0.000284469
0.00126023
0.00279629
0.00429658
0.00572829
0.00706402
0.00827371
0.0093117
0.010179
0.0108554
0.0113178
0.011597
0.0117016
0.0116957
0.0116272
0.011591
0.0116274
0.0118011
0.0121371
0.012608
0.0132462
0.0139252
0.014689
0.0153841
0.0160066
0.0161333
0.0156509
0.0142593
0.0119855
0.00918459
0.00638504
0.00457743
0.00272384
0.00173375
0.00191974
0.000855204
-0.00646795
-0.0076686
-0.0084382
-0.00884472
-0.00908615
-0.00929744
-0.00951443
-0.00971345
-0.00985748
-0.00991994
-0.00988873
-0.00976415
-0.00955516
-0.00925203
-0.00885037
-0.00834767
-0.00774232
-0.00703452
-0.00622571
-0.00532023
-0.00432384
-0.00324557
-0.00209567
-0.000887912
0.00036204
0.00163564
0.00291152
0.00416832
0.00537939
0.00652342
0.00757045
0.00850461
0.00929641
0.00995585
0.0104544
0.0108154
0.0110372
0.0111772
0.0112517
0.0113369
0.0114546
0.0116582
0.0119662
0.0123602
0.0128712
0.0133914
0.0139693
0.0144342
0.0148157
0.0147857
0.0142679
0.0130815
0.0112116
0.00899814
0.00660219
0.00491836
0.00324852
0.00208012
0.0017955
0.000770171
-0.00351873
-0.00454231
-0.00521853
-0.00559959
-0.00584527
-0.00606562
-0.00629063
-0.00650171
-0.00666889
-0.00677085
-0.0067981
-0.00674905
-0.0066186
-0.00641479
-0.00613298
-0.00576834
-0.00531833
-0.00478236
-0.00416114
-0.00345772
-0.0026763
-0.00182363
-0.000907499
6.1667e-05
0.00107191
0.00210903
0.0031564
0.00419723
0.00521063
0.00618047
0.00708352
0.00790803
0.00863001
0.00924809
0.00974988
0.0101528
0.0104482
0.0106778
0.0108472
0.0110128
0.0111852
0.0114049
0.0116861
0.012014
0.0124166
0.0128032
0.0132197
0.0135077
0.0137025
0.0135635
0.0130319
0.0120141
0.0104539
0.00867182
0.00663771
0.00507814
0.00356859
0.00232781
0.00170462
0.000692762
-0.000885198
-0.00175616
-0.00235037
-0.00270731
-0.00295449
-0.00318063
-0.00341045
-0.00362939
-0.00381339
-0.00394497
-0.00401606
-0.00402434
-0.00396893
-0.0038496
-0.00366687
-0.00341793
-0.00309915
-0.00270863
-0.00224644
-0.00171464
-0.0011162
-0.000455991
0.000260111
0.00102437
0.00182785
0.00265982
0.00350757
0.00435833
0.00519603
0.00600804
0.00677608
0.00749099
0.00813385
0.00870461
0.00918986
0.00960265
0.00993335
0.0102118
0.0104372
0.0106494
0.0108529
0.0110759
0.0113291
0.0115993