/*--------------------------------*- C++ -*----------------------------------*\
| =========                 |                                                 |
| \\      /  F ield         | OpenFOAM: The Open Source CFD Toolbox           |
|  \\    /   O peration     | Version:  2512                                  |
|   \\  /    A nd           | Website:  www.openfoam.com                      |
|    \\/     M anipulation  |                                                 |
\*---------------------------------------------------------------------------*/
FoamFile
{
    version     2.0;
    format      ascii;
    arch        "LSB;label=32;scalar=64";
    class       volVectorField;
    location    "20.5";
    object      U;
}
// * * * * * * * * * * * * * * * * * * * * * * * * * * * * * * * * * * * * * //

dimensions      [0 1 -1 0 0 0 0];

internalField   nonuniform List<vector> 
13248
(
(-0.0127445 0.0117083 6.42316e-20)
(-0.0247011 0.0251036 0)
(-0.0239066 0.0323662 -1.21505e-19)
(-0.0110972 0.0355239 1.1446e-19)
(0.0132257 0.0361883 1.07168e-19)
(0.0487077 0.035625 0)
(0.0950477 0.0348015 0)
(0.151884 0.0344483 2.58291e-19)
(0.218657 0.0351 -1.26695e-21)
(0.294475 0.0371122 -2.25659e-19)
(0.378027 0.0406663 2.094e-19)
(0.467547 0.0457722 -1.30905e-19)
(0.560865 0.0522763 0)
(0.655514 0.0598788 -2.25948e-19)
(0.748891 0.068163 4.22544e-19)
(0.838439 0.0766343 -9.99512e-20)
(0.921819 0.0847707 -1.81813e-19)
(0.997075 0.0920442 1.70674e-19)
(1.06275 0.0980686 0)
(1.1179 0.102232 0)
(1.16247 0.105026 0)
(1.19583 0.104042 0)
(1.22111 0.104822 5.5641e-20)
(1.23474 0.0935369 2.08721e-19)
(-0.0127014 0.0103912 -1.9402e-19)
(-0.0210653 0.0207926 1.32342e-19)
(-0.0133563 0.0256996 -1.1538e-21)
(0.009278 0.0273064 -1.74905e-19)
(0.046095 0.0273481 -1.07053e-19)
(0.096493 0.0271795 -1.01215e-19)
(0.159777 0.027796 -1.85879e-19)
(0.23496 0.0298937 1.75758e-19)
(0.320582 0.033898 0)
(0.414598 0.0399724 7.6354e-22)
(0.514377 0.0480247 1.63797e-21)
(0.616827 0.0577271 1.31003e-19)
(0.718608 0.0685575 0)
(0.816403 0.0798608 0)
(0.907195 0.0909231 1.55545e-19)
(0.988504 0.10105 -2.92134e-19)
(1.05856 0.10964 1.77397e-19)
(1.1164 0.116231 -1.6654e-19)
(1.16184 0.120548 -7.48025e-20)
(1.19554 0.122465 -1.3868e-19)
(1.21851 0.122172 -6.01286e-20)
(1.23285 0.119404 -1.13846e-19)
(1.2395 0.116301 1.63502e-19)
(1.24153 0.108155 4.82949e-20)
(-0.0117609 0.00869782 0)
(-0.0142299 0.0157702 0)
(0.00318498 0.0185478 6.18684e-20)
(0.0387679 0.019257 5.69859e-20)
(0.0913335 0.019683 -1.40515e-21)
(0.159723 0.0212114 -1.04455e-19)
(0.242398 0.0247767 0)
(0.337184 0.0308983 -8.73765e-20)
(0.441139 0.0397049 8.21414e-20)
(0.550589 0.0509526 6.18336e-22)
(0.661367 0.0640697 -1.40584e-19)
(0.769171 0.0782397 -1.29368e-19)
(0.869993 0.0925139 1.83532e-21)
(0.960493 0.105938 -1.08661e-19)
(1.03828 0.11767 2.59323e-19)
(1.10208 0.127072 0)
(1.15171 0.133766 -1.72459e-19)
(1.18797 0.137638 8.31856e-20)
(1.21246 0.138844 7.47338e-20)
(1.22724 0.137635 0)
(1.23464 0.134665 6.29248e-20)
(1.23678 0.129811 -2.21738e-19)
(1.23532 0.125358 2.08153e-19)
(1.23338 0.117098 1.36682e-19)
(-0.00955092 0.00661708 -6.87024e-20)
(-0.00324683 0.010175 -7.10552e-20)
(0.0270685 0.0113356 6.42146e-20)
(0.0789001 0.0121592 0)
(0.150283 0.014347 0)
(0.239003 0.0191791 -2.20796e-21)
(0.342048 0.0273355 0)
(0.45542 0.0389117 -2.66999e-19)
(0.574227 0.0534705 2.48198e-19)
(0.693061 0.0701288 -3.06675e-19)
(0.806565 0.0877048 7.03771e-20)
(0.910041 0.104907 0)
(0.999948 0.12053 1.18522e-19)
(1.07419 0.133616 -2.20152e-19)
(1.13219 0.143558 5.22354e-20)
(1.17472 0.150131 1.37079e-19)
(1.2036 0.153458 -4.48112e-21)
(1.22133 0.153928 -1.54219e-19)
(1.2306 0.152084 0)
(1.23397 0.148505 0)
(1.23359 0.143815 -5.7404e-20)
(1.23105 0.138169 5.22191e-20)
(1.22748 0.133102 1.91919e-19)
(1.22383 0.125288 -1.80142e-19)
(-0.00567353 0.00421869 -7.25188e-20)
(0.0128238 0.00434883 -7.21826e-20)
(0.0594847 0.00476478 2.03011e-19)
(0.130736 0.00709668 -1.23049e-19)
(0.223326 0.0127422 1.15825e-19)
(0.333307 0.0226271 2.10336e-19)
(0.455499 0.0368652 -1.4869e-19)
(0.583607 0.0547985 -1.81227e-19)
(0.710776 0.0751609 3.30487e-21)
(0.830427 0.0963225 2.3216e-19)
(0.937103 0.116586 0)
(1.02709 0.13447 6.46274e-20)
(1.09869 0.14892 0)
(1.15212 0.159405 -1.06862e-19)
(1.18915 0.165903 1.50315e-19)
(1.21255 0.168793 1.26187e-21)
(1.2255 0.16871 -4.03152e-20)
(1.23107 0.166374 7.59842e-20)
(1.23188 0.162474 6.6457e-20)
(1.2299 0.157568 -6.03129e-20)
(1.22646 0.152109 5.73911e-20)
(1.22237 0.146218 -5.2207e-20)
(1.21794 0.140809 0)
(1.21399 0.133404 -4.08307e-20)
(0.000264659 0.00166936 7.25084e-20)
(0.034813 -0.00112507 7.61779e-20)
(0.101279 -0.000152103 -6.8032e-20)
(0.19459 0.00544267 1.26692e-19)
(0.309538 0.0164153 -1.19247e-19)
(0.439694 0.0329547 1.07841e-19)
(0.577203 0.0542072 -5.17977e-20)
(0.713513 0.0784532 1.3608e-19)
(0.840547 0.103504 -8.57038e-20)
(0.951881 0.127157 1.52778e-19)
(1.04352 0.147596 -3.53489e-19)
(1.11415 0.163655 1.3038e-19)
(1.16477 0.174895 -1.15227e-19)
(1.1981 0.181516 1.08229e-19)
(1.21775 0.184165 9.48317e-20)
(1.22745 0.183703 8.42942e-20)
(1.23053 0.181006 -2.35076e-19)
(1.22959 0.17683 1.46275e-19)
(1.22645 0.171745 -6.646e-20)
(1.22227 0.166144 1.76178e-19)
(1.21768 0.160277 -5.67194e-20)
(1.213 0.154237 -1.42161e-19)
(1.20839 0.148512 1.3184e-19)
(1.20414 0.141424 4.0817e-20)
(0.00861819 -0.000764087 0)
(0.0633232 -0.0054335 6.76489e-22)
(0.152742 -0.00215075 1.42501e-19)
(0.269762 0.0087128 -1.33616e-19)
(0.406465 0.026795 -1.20426e-19)
(0.553372 0.0510629 2.23893e-19)
(0.699977 0.0793223 -1.0401e-19)
(0.836312 0.10869 1.39043e-19)
(0.954589 0.136294 -2.73717e-21)
(1.05025 0.159856 -7.91402e-20)
(1.12214 0.178029 1.73945e-19)
(1.172 0.190443 -2.57496e-19)
(1.20341 0.197519 0)
(1.22075 0.200171 -5.12975e-20)
(1.22828 0.199491 -1.38158e-19)
(1.22957 0.196506 4.33769e-20)
(1.22727 0.192049 1.40431e-21)
(1.22313 0.186716 -9.85599e-20)
(1.21823 0.180895 4.87485e-21)
(1.21311 0.174822 1.14605e-19)
(1.20806 0.168634 -5.20672e-20)
(1.20317 0.162411 -2.05974e-20)
(1.19845 0.156354 6.1909e-20)
(1.19404 0.149488 0)
(0.0196576 -0.00272134 0)
(0.0985974 -0.00758232 3.86717e-20)
(0.213419 0.000158447 -1.86303e-19)
(0.354361 0.0183384 6.76888e-20)
(0.510179 0.0448882 -6.37066e-20)
(0.668266 0.0770829 -5.83447e-20)
(0.816308 0.111235 -1.03258e-19)
(0.944545 0.143568 5.14164e-20)
(1.04731 0.171111 4.47952e-20)
(1.12329 0.192176 0)
(1.17471 0.206381 1.0363e-19)
(1.206 0.21435 -1.55142e-19)
(1.22231 0.217276 1.15556e-19)
(1.2285 0.216503 5.13237e-20)
(1.22849 0.213245 -4.27251e-20)
(1.22505 0.208446 -3.62881e-20)
(1.22 0.202756 -3.4184e-20)
(1.21437 0.196587 1.01066e-19)
(1.20869 0.190182 0)
(1.20319 0.183677 5.22287e-20)
(1.19797 0.177152 4.50279e-20)
(1.19301 0.170664 -1.10562e-19)
(1.18826 0.164246 -7.76301e-20)
(1.18375 0.15751 7.1621e-20)
(0.0335164 -0.00376743 -4.20125e-20)
(0.140396 -0.00648271 -1.69946e-21)
(0.281982 0.00811601 3.79592e-20)
(0.445342 0.035417 1.06208e-19)
(0.615699 0.0710458 3.09721e-20)
(0.77803 0.110321 -5.9852e-20)
(0.919856 0.148308 5.46054e-20)
(1.03358 0.180986 -4.79764e-20)
(1.11712 0.206034 8.64505e-20)
(1.1729 0.222898 3.70562e-20)
(1.20606 0.232351 -1.05246e-19)
(1.22267 0.235883 3.11469e-20)
(1.22829 0.23515 5.36392e-20)
(1.22736 0.231615 -2.63201e-20)
(1.22295 0.226386 0)
(1.21701 0.220211 3.99744e-20)
(1.21061 0.213548 6.83852e-20)
(1.20428 0.206661 1.22478e-20)
(1.19826 0.199694 -5.74963e-20)
(1.19262 0.192726 2.43579e-20)
(1.18733 0.185807 0)
(1.18235 0.178963 -1.95536e-20)
(1.1776 0.172164 -1.88445e-20)
(1.17302 0.165439 0)
(0.0501357 -0.00342347 0)
(0.187905 -0.0010633 2.20508e-20)
(0.356227 0.0228274 4.07708e-20)
(0.538766 0.0605151 -1.08551e-19)
(0.717705 0.104892 3.514e-20)
(0.877144 0.149456 0)
(1.00649 0.188698 5.30274e-20)
(1.10194 0.219206 -7.41112e-20)
(1.16557 0.239941 -4.32558e-20)
(1.20311 0.251712 1.95657e-20)
(1.22158 0.256323 -3.17047e-20)
(1.22752 0.255821 7.67754e-20)
(1.2261 0.25201 3.87736e-20)
(1.22088 0.246244 -2.67812e-20)
(1.21407 0.239423 -2.33337e-21)
(1.20685 0.232087 -7.47507e-20)
(1.19981 0.224539 3.41472e-20)
(1.19318 0.216935 -9.16474e-22)
(1.18703 0.209362 0)
(1.18136 0.201869 -2.43835e-20)
(1.17609 0.194484 0)
(1.17114 0.187204 5.64523e-20)
(1.16643 0.180016 -6.76471e-20)
(1.16184 0.173174 3.10083e-20)
(0.0692183 -0.00120625 -1.15866e-20)
(0.239706 0.00961356 -5.56612e-20)
(0.433201 0.0450097 6.34168e-20)
(0.630254 0.0935762 3.72336e-20)
(0.811311 0.145423 -1.77356e-20)
(0.961662 0.192853 2.99747e-20)
(1.07446 0.230742 -1.45133e-20)
(1.1505 0.257061 2.42719e-20)
(1.19574 0.272391 0)
(1.21821 0.278821 5.54096e-20)
(1.22568 0.278881 -2.19674e-21)
(1.22436 0.274849 -4.48998e-20)
(1.21856 0.268442 1.93141e-20)
(1.2109 0.260793 -2.19282e-20)
(1.20283 0.252575 -8.44676e-21)
(1.195 0.244153 9.67788e-21)
(1.18769 0.235713 -7.52998e-21)
(1.18098 0.227348 -4.13321e-20)
(1.17484 0.21911 2.53429e-20)
(1.16923 0.211029 5.23848e-21)
(1.16405 0.203114 4.65445e-21)
(1.1592 0.195345 4.14081e-21)
(1.15457 0.187772 0)
(1.15002 0.18067 0)
(0.0902775 0.00333748 1.15946e-20)
(0.293962 0.0262593 -1.15745e-20)
(0.509621 0.0748903 -2.11517e-20)
(0.715664 0.133934 0)
(0.892742 0.191218 -8.82878e-21)
(1.02943 0.23888 -7.99673e-21)
(1.12383 0.273158 -1.3698e-20)
(1.18132 0.293919 0)
(1.21083 0.303372 0)
(1.22161 0.304608 0)
(1.22131 0.300544 0)
(1.21531 0.293428 0)
(1.20694 0.284757 -1.21399e-20)
(1.198 0.275412 5.5321e-21)
(1.18934 0.265864 9.67869e-21)
(1.1813 0.256345 4.54227e-21)
(1.17397 0.246965 1.12931e-20)
(1.16734 0.237775 0)
(1.16134 0.228807 -2.75106e-21)
(1.15589 0.220075 -2.664e-21)
(1.1509 0.211571 -4.6619e-21)
(1.14625 0.203277 -4.14746e-21)
(1.1418 0.195321 0)
(1.1374 0.187818 3.0463e-21)
(-0.0014598 -0.000831453 6.97211e-21)
(-0.00725517 -0.00198325 -7.24999e-21)
(-0.0178171 -0.00277404 -1.37459e-20)
(-0.030854 -0.00323341 0)
(-0.0451238 -0.00343756 -1.84423e-20)
(-0.060015 -0.00346896 5.79313e-21)
(-0.0751166 -0.00339236 -1.09615e-20)
(-0.0901549 -0.00324963 0)
(-0.104969 -0.00306088 0)
(-0.119472 -0.0028286 0)
(-0.133624 -0.00254357 0)
(-0.147408 -0.00219035 0)
(-0.160824 -0.00175153 2.73989e-23)
(-0.173873 -0.00121017 -7.32494e-21)
(-0.186561 -0.000550697 1.38589e-20)
(-0.198891 0.000240965 1.96603e-20)
(-0.210867 0.00117781 6.18799e-21)
(-0.222498 0.00227229 0)
(-0.233802 0.00353666 5.5399e-21)
(-0.244813 0.00498234 -1.561e-20)
(-0.255564 0.00661769 -9.83032e-21)
(-0.266091 0.00845311 -9.28392e-21)
(-0.276583 0.0105208 0)
(-0.287489 0.0128368 0)
(-0.00176419 0.00359915 -2.09685e-20)
(-0.00779767 0.00841009 3.6214e-20)
(-0.0182208 0.0115663 -1.36624e-20)
(-0.0308897 0.0136805 -2.60277e-20)
(-0.0446312 0.0150922 3.67862e-20)
(-0.0588613 0.0160104 -2.32311e-20)
(-0.0731834 0.0165859 3.28095e-20)
(-0.0873297 0.0169334 2.06932e-20)
(-0.101139 0.0171428 0)
(-0.114519 0.0172853 -1.84981e-20)
(-0.127422 0.0174172 -1.59565e-22)
(-0.139821 0.0175812 1.63436e-20)
(-0.151702 0.0178088 2.32694e-20)
(-0.163055 0.0181226 2.93594e-20)
(-0.173867 0.0185401 -1.36959e-20)
(-0.184126 0.0190768 -3.9105e-20)
(-0.193813 0.0197506 1.23685e-20)
(-0.202913 0.0205848 -4.64435e-20)
(-0.211418 0.0216124 0)
(-0.219337 0.0228769 1.03949e-20)
(-0.226674 0.0244286 9.81661e-21)
(-0.233383 0.0263279 9.27073e-21)
(-0.239556 0.0286888 0)
(-0.24602 0.0316425 0)
(-0.00248202 0.00757591 0)
(-0.00910124 0.0178404 7.28263e-20)
(-0.0192437 0.0246808 -2.74738e-20)
(-0.031105 0.029231 2.60543e-20)
(-0.0436765 0.0321855 -7.37723e-20)
(-0.0564449 0.0340116 0)
(-0.0690522 0.0350558 -4.39224e-20)
(-0.0812492 0.0355775 2.06391e-20)
(-0.0928773 0.0357691 -3.91139e-20)
(-0.103838 0.0357723 1.84849e-20)
(-0.114068 0.0356886 1.04548e-19)
(-0.123524 0.0355878 -4.91071e-20)
(-0.132172 0.0355152 -7.7605e-20)
(-0.139978 0.0354983 -2.95225e-20)
(-0.146907 0.0355541 -2.65674e-22)
(-0.15292 0.0356955 1.0416e-19)
(-0.15797 0.035938 -4.9022e-20)
(-0.162004 0.0363068 5.03559e-23)
(-0.164971 0.0368453 0)
(-0.166838 0.0376234 -4.12089e-20)
(-0.167568 0.0387448 0)
(-0.166992 0.0403563 -3.70099e-20)
(-0.164897 0.0426901 1.38706e-19)
(-0.162544 0.0460185 7.03312e-22)
(-0.00350558 0.0108104 0)
(-0.0110023 0.025673 2.16059e-22)
(-0.0207978 0.0357366 2.77833e-20)
(-0.0315415 0.0424709 -2.629e-20)
(-0.0424527 0.046828 2.45077e-20)
(-0.0531226 0.0494796 1.3996e-19)
(-0.0632551 0.0509342 -4.39177e-20)
(-0.0726351 0.0515748 -4.15721e-20)
(-0.0811163 0.0516852 7.82887e-20)
(-0.0885984 0.0514716 -1.1085e-19)
(-0.095008 0.0510792 3.47287e-20)
(-0.100286 0.0506051 3.28722e-20)
(-0.10438 0.05011 0)
(-0.107238 0.0496277 2.92206e-20)
(-0.108806 0.0491743 0)
(-0.109025 0.0487564 5.19549e-20)
(-0.107829 0.0483787 -9.82662e-20)
(-0.105144 0.0480531 2.27393e-20)
(-0.100885 0.0478087 8.69854e-20)
(-0.0949773 0.0477083 4.11633e-20)
(-0.0873665 0.0478776 0)
(-0.0778387 0.0485575 -1.09765e-19)
(-0.0656977 0.0502151 3.43901e-20)
(-0.051646 0.0534875 0)
(-0.00470276 0.0131474 0)
(-0.0132925 0.0315217 -8.84102e-20)
(-0.0227601 0.0441744 -2.8092e-20)
(-0.0322318 0.0527126 -5.26837e-20)
(-0.0411783 0.0582387 4.96082e-20)
(-0.049316 0.061566 -4.67126e-20)
(-0.0564303 0.0633238 8.842e-20)
(-0.062357 0.0639929 4.17551e-20)
(-0.0669767 0.0639326 -1.17572e-19)
(-0.0701991 0.0634056 7.4102e-20)
(-0.0719502 0.0625974 -1.04602e-19)
(-0.0721643 0.0616332 2.30254e-19)
(-0.0707784 0.0605915 -1.2373e-19)
(-0.0677299 0.0595165 5.83719e-20)
(-0.0629543 0.0584281 1.65282e-19)
(-0.0563841 0.0573297 -5.15404e-20)
(-0.0479478 0.0562161 -4.84418e-20)
(-0.0375675 0.0550801 -4.59956e-20)
(-0.0251549 0.0539197 0)
(-0.0106156 0.0527523 -8.18967e-20)
(0.00611124 0.0516421 -7.73977e-20)
(0.0251687 0.0508052 1.08672e-19)
(0.0474946 0.0509215 1.37e-19)
(0.0740839 0.0533008 -1.28783e-19)
(-0.00595116 0.014576 0)
(-0.0157639 0.0352785 -1.19374e-19)
(-0.0249881 0.0497537 -3.58915e-22)
(-0.0331672 0.0595851 1.05954e-19)
(-0.0400101 0.0659342 0)
(-0.045365 0.0696973 0)
(-0.0491115 0.0715841 0)
(-0.051151 0.0721455 -4.17793e-20)
(-0.0514046 0.0717983 -1.429e-22)
(-0.0498042 0.0708509 7.40531e-20)
(-0.0462852 0.0695239 -1.04847e-19)
(-0.0407823 0.0679694 -1.12854e-22)
(-0.0332282 0.0662862 0)
(-0.0235522 0.0645335 -5.83431e-20)
(-0.0116814 0.0627414 5.49962e-20)
(0.00245933 0.0609197 -1.54829e-19)
(0.0189469 0.0590637 1.94797e-19)
(0.0378592 0.05716 4.61076e-20)
(0.059277 0.0551899 4.78233e-22)
(0.0832843 0.0531324 -1.62189e-19)
(0.109935 0.0509684 -7.60971e-20)
(0.139298 0.0487403 2.51609e-19)
(0.171646 0.0469854 -1.68445e-19)
(0.212846 0.0477299 0)
(-0.00716574 0.015209 5.85906e-20)
(-0.0182447 0.0370883 5.98078e-20)
(-0.0273228 0.0525434 -5.69635e-20)
(-0.0342503 0.0630476 -1.06858e-19)
(-0.0389353 0.0697641 1.00616e-19)
(-0.0413514 0.0736304 -9.47115e-20)
(-0.0414755 0.0754032 1.33759e-19)
(-0.0392801 0.0756779 -4.1753e-20)
(-0.0347323 0.0749117 7.8855e-20)
(-0.02779 0.0734464 0)
(-0.0183988 0.0715319 6.99048e-20)
(-0.00649176 0.0693445 -1.31169e-19)
(0.00800837 0.0670043 1.23669e-19)
(0.0251872 0.0645892 -1.16154e-19)
(0.0451352 0.0621459 0)
(0.0679428 0.0596989 1.02847e-19)
(0.0936974 0.0572571 1.93455e-19)
(0.122478 0.0548169 -1.81892e-19)
(0.154347 0.0523656 -8.52719e-20)
(0.189358 0.0498825 -8.10566e-20)
(0.227433 0.0473251 2.27378e-19)
(0.269091 0.0446925 7.09823e-20)
(0.311238 0.0418263 -6.64833e-20)
(0.37117 0.0415589 6.21785e-20)
(-0.00831084 0.0152374 -5.85986e-20)
(-0.0206104 0.0372738 1.82538e-19)
(-0.0295722 0.0528583 -5.75159e-20)
(-0.0352343 0.0633529 1.07678e-19)
(-0.0376541 0.069908 -1.01387e-19)
(-0.0369136 0.0734808 3.19538e-22)
(-0.0330765 0.074854 4.48986e-20)
(-0.0261773 0.07465 1.68357e-19)
(-0.016219 0.0733514 -9.13221e-23)
(-0.00317308 0.0713248 -7.42757e-20)
(0.013019 0.0688432 0)
(0.0324405 0.0661057 -6.54963e-20)
(0.0551919 0.0632549 1.23154e-19)
(0.0813821 0.0603905 1.15804e-19)
(0.111119 0.0575806 -5.4509e-20)
(0.144495 0.0548698 -3.2611e-22)
(0.181578 0.0522856 -4.82177e-20)
(0.22239 0.0498412 8.99462e-20)
(0.266895 0.0475376 8.52535e-20)
(0.315075 0.0453916 -8.01459e-20)
(0.366204 0.0432604 7.45536e-20)
(0.422645 0.0416365 -6.99058e-20)
(0.473621 0.0388708 0)
(0.555469 0.0397156 -6.20998e-20)
(-0.00939136 0.0148715 5.96426e-20)
(-0.0227604 0.0362305 -6.10919e-20)
(-0.031468 0.0511561 5.81135e-20)
(-0.0356477 0.0609673 0)
(-0.0354629 0.0668246 0)
(-0.0310778 0.0697067 9.6232e-20)
(-0.0226174 0.0704156 -9.00171e-20)
(-0.0101513 0.0695912 8.42654e-20)
(0.0063083 0.0677346 -3.9569e-19)
(0.0268015 0.0652319 1.32098e-22)
(0.0514095 0.0623774 6.96096e-20)
(0.0802396 0.059393 0)
(0.113405 0.0564443 -1.22703e-19)
(0.151002 0.0536531 2.30445e-19)
(0.193087 0.0511066 -1.62427e-19)
(0.239651 0.0488643 -2.5413e-19)
(0.290598 0.0469631 -5.79026e-23)
(0.345728 0.0454224 1.78303e-19)
(0.404668 0.0442235 0)
(0.467263 0.0434746 0)
(0.5314 0.0426506 -7.45463e-20)
(0.60235 0.0433162 6.98974e-20)
(0.659602 0.0415199 -2.60215e-19)
(0.759109 0.0454669 2.44079e-19)
(-0.0104246 0.0142842 0)
(-0.0245634 0.0343213 0)
(-0.0325975 0.0479183 -1.74841e-19)
(-0.0347217 0.0564595 5.55617e-20)
(-0.0311706 0.061164 4.31911e-22)
(-0.0221611 0.0630494 9.72623e-20)
(-0.00784437 0.0629421 0)
(0.0117097 0.0615008 -8.47672e-20)
(0.0365065 0.0592447 7.921e-20)
(0.0666065 0.05658 -1.48343e-19)
(0.102095 0.0538218 1.68313e-22)
(0.143047 0.0512118 1.30342e-19)
(0.189483 0.0489316 -2.04413e-22)
(0.241331 0.0471113 1.14477e-19)
(0.29839 0.0458359 -1.61648e-19)
(0.3603 0.0451484 0)
(0.426526 0.0450527 1.8918e-19)
(0.496367 0.0455234 -2.66742e-19)
(0.568861 0.0464513 8.2645e-20)
(0.643456 0.0479801 0)
(0.716939 0.0491806 7.24472e-20)
(0.795569 0.0523422 2.73985e-19)
(0.855146 0.0517839 -2.57124e-19)
(0.956596 0.0586972 -3.0064e-19)
(-0.0113972 0.0135705 1.83202e-19)
(-0.0257876 0.03179 -2.51949e-19)
(-0.0323426 0.043547 5.09134e-22)
(-0.031346 0.0504007 5.60294e-20)
(-0.0230916 0.0536776 -1.04393e-19)
(-0.0078214 0.0544593 -9.68325e-20)
(0.0143142 0.0536103 1.81244e-19)
(0.0432577 0.0518158 -1.29445e-21)
(0.0790135 0.049617 -1.59384e-19)
(0.121597 0.0474376 2.9719e-19)
(0.17097 0.0456039 -5.34547e-22)
(0.22698 0.0443574 -1.30516e-19)
(0.289297 0.043863 0)
(0.357368 0.0442119 0)
(0.430398 0.045424 -5.36491e-20)
(0.507344 0.0474507 -9.97356e-20)
(0.58695 0.0501807 -1.8729e-19)
(0.667795 0.0534452 1.75802e-19)
(0.748315 0.0570194 -8.26756e-20)
(0.827204 0.0607693 1.53246e-19)
(0.90182 0.0640066 -7.30975e-20)
(0.975365 0.068037 1.33653e-19)
(1.03139 0.0684537 -3.1323e-19)
(1.11361 0.0751215 5.92221e-20)
(-0.0122249 0.0127323 6.18098e-20)
(-0.0260297 0.0287268 0)
(-0.0298277 0.0383171 1.19678e-19)
(-0.0240703 0.0433011 -1.12741e-19)
(-0.00912462 0.0451454 1.04489e-19)
(0.0147447 0.045017 0)
(0.0473724 0.0438306 0)
(0.0886522 0.0423008 -8.51573e-20)
(0.138458 0.0409821 1.02514e-21)
(0.196549 0.0402938 7.51271e-20)
(0.262473 0.0405338 -6.93681e-20)
(0.335488 0.0418842 1.30606e-19)
(0.414522 0.0444134 0)
(0.498167 0.0480787 2.27122e-19)
(0.584724 0.0527331 -4.25467e-19)
(0.67228 0.0581361 2.99032e-19)
(0.758818 0.0639783 1.84929e-19)
(0.84232 0.0698752 -1.73591e-19)
(0.920947 0.0755091 0)
(0.992971 0.080292 0)
(1.05727 0.0843539 0)
(1.11328 0.0865346 0)
(1.15747 0.087575 6.17216e-20)
(1.20624 0.088435 -2.27291e-19)
(-0.300947 0.0156154 -5.97329e-21)
(-0.317626 0.0177452 5.99369e-21)
(-0.332806 0.0198596 -1.84669e-22)
(-0.347051 0.0217832 0)
(-0.359745 0.0233446 -5.67252e-21)
(-0.370509 0.0244109 1.10269e-20)
(-0.3788 0.0247826 -3.45438e-23)
(-0.384045 0.0242824 -5.17594e-21)
(-0.385597 0.0227701 0)
(-0.382788 0.020176 0)
(-0.374917 0.0164949 -2.73432e-22)
(-0.361395 0.0119748 -2.5189e-22)
(-0.341801 0.00620769 -3.65697e-21)
(-0.315682 -0.00067447 3.33272e-21)
(-0.282671 -0.00828035 0)
(-0.242584 -0.0161776 0)
(-0.195391 -0.0240235 1.56003e-21)
(-0.141644 -0.0309005 -4.12646e-22)
(-0.0820936 -0.0364338 -1.01565e-21)
(-0.0177055 -0.0399242 -3.13846e-23)
(0.0500157 -0.0409871 0)
(0.119518 -0.0396169 0)
(0.189352 -0.035978 0)
(0.258083 -0.0304989 0)
(0.324479 -0.0237714 0)
(0.387596 -0.0164328 0)
(0.446806 -0.00909366 -2.285e-22)
(0.501742 -0.00218083 3.70179e-22)
(0.552223 0.00398505 0)
(0.598187 0.00926509 0)
(0.6398 0.0136086 2.24594e-22)
(0.677337 0.0170187 -2.18276e-22)
(0.710998 0.0194384 -9.34111e-23)
(0.741193 0.0211191 0)
(0.768268 0.0219156 0)
(0.79257 0.0224713 -1.2105e-22)
(0.814396 0.0222064 1.17666e-22)
(0.834141 0.022233 0)
(0.852022 0.0214511 -8.03859e-23)
(0.868399 0.0214521 1.15088e-22)
(0.883453 0.0205228 -3.21472e-23)
(0.897509 0.0207709 0)
(0.910725 0.0199428 4.6012e-23)
(0.923247 0.0206681 -4.47416e-23)
(0.935012 0.020078 0)
(0.945881 0.0213893 0)
(0.955592 0.0208302 1.28366e-23)
(0.964073 0.022666 -3.59156e-23)
(0.971124 0.0219553 0)
(0.977008 0.0243572 0)
(0.981602 0.0236648 6.70386e-24)
(0.985403 0.0267237 -3.11388e-26)
(0.988209 0.0261614 8.06892e-25)
(0.990688 0.0299581 -3.78741e-24)
(0.992337 0.0294073 0)
(0.994121 0.0339763 0)
(0.995057 0.0334731 0)
(0.996551 0.0387698 0)
(0.996995 0.0384458 0)
(0.998494 0.0445779 0)
(-0.255275 0.0352651 -5.73725e-22)
(-0.270421 0.0358933 -2.4212e-20)
(-0.283238 0.0362088 -5.13971e-23)
(-0.295005 0.0360198 2.27694e-20)
(-0.305183 0.0351012 3.56411e-22)
(-0.313377 0.0333104 0)
(-0.319078 0.0304599 -2.11732e-20)
(-0.321716 0.0263624 4.16073e-20)
(-0.320639 0.0208876 -2.04311e-20)
(-0.315201 0.0140537 1.85755e-20)
(-0.304644 0.0061661 -1.77813e-20)
(-0.288868 -0.00354385 1.55422e-20)
(-0.2677 -0.0145254 -1.51362e-20)
(-0.240247 -0.0266078 -4.1952e-22)
(-0.206266 -0.0392437 -1.05146e-20)
(-0.165913 -0.0518326 1.02178e-20)
(-0.119119 -0.0639012 -6.61263e-21)
(-0.0666586 -0.0739377 6.24461e-21)
(-0.00945902 -0.081503 -3.03695e-21)
(0.0516378 -0.0859412 4.36512e-21)
(0.11493 -0.0869385 -1.39698e-21)
(0.178872 -0.0843877 1.93853e-23)
(0.242256 -0.0786243 1.60074e-21)
(0.303918 -0.0703353 -3.64309e-21)
(0.362958 -0.0603832 2.02858e-21)
(0.418776 -0.0496549 -1.4865e-22)
(0.471076 -0.0389544 -2.52182e-21)
(0.51975 -0.0288497 -3.89262e-23)
(0.564792 -0.0197027 4.45914e-21)
(0.606293 -0.0116832 -4.12269e-21)
(0.644362 -0.00485978 1.94364e-21)
(0.679136 0.000746368 -2.10008e-22)
(0.710817 0.00504446 9.36007e-23)
(0.739645 0.00865995 -1.65343e-22)
(0.765912 0.0111094 0)
(0.789752 0.0130705 0)
(0.811449 0.0139885 4.24846e-22)
(0.831203 0.0150128 -3.15459e-22)
(0.84926 0.0150652 -2.37814e-22)
(0.865822 0.0157707 -4.20161e-24)
(0.881139 0.0154227 3.05401e-22)
(0.895428 0.0161433 -5.60814e-23)
(0.908923 0.0157087 0)
(0.921712 0.0167968 0)
(0.933774 0.0165818 0)
(0.944933 0.0183117 0)
(0.954927 0.0181983 -5.4829e-23)
(0.96366 0.0204936 2.34535e-23)
(0.970917 0.0202089 0)
(0.976973 0.0229897 0)
(0.981682 0.0226091 0)
(0.985593 0.0259178 1.04312e-23)
(0.988453 0.025543 -1.69684e-24)
(0.991009 0.0294853 8.32095e-24)
(0.992682 0.0290335 0)
(0.994533 0.0336811 0)
(0.995479 0.0332273 -3.46035e-24)
(0.997046 0.0385682 -7.93001e-24)
(0.997493 0.0382641 0)
(0.999074 0.0444273 0)
(-0.164279 0.0505081 1.14042e-21)
(-0.175739 0.0501198 -4.81361e-20)
(-0.184241 0.0488274 4.86959e-20)
(-0.191417 0.046802 -4.55331e-20)
(-0.1971 0.0436979 -3.58808e-22)
(-0.200875 0.0393205 0)
(-0.202315 0.0335379 -4.41568e-20)
(-0.200903 0.0262066 4.32644e-20)
(-0.195976 0.0172111 3.16724e-22)
(-0.186729 0.00676381 6.14435e-22)
(-0.173531 -0.00568814 5.79925e-22)
(-0.155663 -0.0204086 5.22523e-22)
(-0.132302 -0.0359807 -2.96895e-20)
(-0.10352 -0.0525006 2.92743e-20)
(-0.0690931 -0.0694468 0)
(-0.0294874 -0.0860789 6.45486e-22)
(0.015628 -0.101154 -1.42987e-20)
(0.0659317 -0.113805 1.40756e-20)
(0.119528 -0.122993 0)
(0.175521 -0.128018 0)
(0.232504 -0.128574 -8.83657e-22)
(0.289029 -0.124525 -5.73596e-22)
(0.343949 -0.116433 4.21496e-21)
(0.396366 -0.105278 1.03253e-21)
(0.445716 -0.0922097 -8.30063e-21)
(0.491743 -0.0783335 9.42312e-21)
(0.534467 -0.0646054 -9.22175e-21)
(0.574067 -0.0517306 3.35652e-22)
(0.61078 -0.0400767 4.50807e-21)
(0.644787 -0.0297765 0)
(0.676285 -0.0210443 0)
(0.705388 -0.0136818 -1.19477e-21)
(0.732424 -0.00779607 1.56898e-21)
(0.7574 -0.00278301 1.21147e-24)
(0.780422 0.000857662 -1.11084e-21)
(0.80159 0.00399708 1.07954e-21)
(0.821162 0.00603887 0)
(0.839142 0.0080201 -9.7899e-23)
(0.855795 0.00886714 -7.32754e-22)
(0.871139 0.010232 1.3412e-21)
(0.885468 0.0104312 -5.47902e-22)
(0.898864 0.0116006 -5.61008e-23)
(0.91162 0.0115386 4.68867e-22)
(0.923754 0.0129672 -3.60768e-22)
(0.935293 0.0131068 -7.37836e-23)
(0.946034 0.0152372 -6.38701e-23)
(0.955726 0.0155574 5.49683e-23)
(0.964251 0.0183058 0)
(0.971372 0.0184441 0)
(0.977358 0.0216043 1.32769e-22)
(0.982019 0.0215358 -6.23874e-23)
(0.985936 0.0250963 4.87775e-23)
(0.988784 0.0249092 -6.08863e-23)
(0.991379 0.028999 -6.41574e-23)
(0.993055 0.0286464 1.50278e-23)
(0.994962 0.0333743 -2.14301e-23)
(0.995911 0.0329698 1.61778e-23)
(0.997546 0.0383567 -6.77728e-24)
(0.997995 0.0380721 0)
(0.999656 0.0442683 0)
(-0.0452434 0.0582969 -9.96066e-20)
(-0.0514057 0.0581405 -5.19864e-22)
(-0.0546346 0.0558856 9.4964e-20)
(-0.0562367 0.0524533 -7.41226e-22)
(-0.0566022 0.0477081 0)
(-0.0553024 0.0413201 0)
(-0.0519179 0.0330883 -9.02241e-20)
(-0.0460633 0.0229623 -3.55114e-22)
(-0.0369946 0.0109047 1.26572e-19)
(-0.0248231 -0.00311308 -1.49567e-21)
(-0.00956391 -0.0196154 -3.90653e-20)
(0.0104188 -0.0374122 -3.32403e-20)
(0.0353445 -0.0565967 3.33883e-20)
(0.06465 -0.0768507 0)
(0.0986475 -0.0974315 -2.37508e-20)
(0.13705 -0.117467 2.17363e-20)
(0.179438 -0.135032 0)
(0.225572 -0.149716 0)
(0.27405 -0.160236 7.76965e-21)
(0.323692 -0.165555 -3.15777e-21)
(0.373144 -0.165252 -4.19045e-21)
(0.421133 -0.15943 7.53517e-22)
(0.466711 -0.14888 -8.14499e-22)
(0.509271 -0.134862 3.7023e-21)
(0.54855 -0.1188 6.63396e-22)
(0.58456 -0.102014 -4.1672e-21)
(0.617521 -0.085573 -5.75034e-22)
(0.647782 -0.070273 -1.35774e-23)
(0.67574 -0.0565409 0)
(0.701649 -0.0444589 -3.93385e-21)
(0.725776 -0.0341433 4.04968e-21)
(0.748249 -0.0253654 -2.10425e-22)
(0.769366 -0.0181571 0)
(0.789084 -0.0122248 1.66098e-22)
(0.807608 -0.00768562 -2.22096e-21)
(0.824892 -0.0037145 3.84983e-21)
(0.841085 -0.000973927 3.26088e-23)
(0.856059 0.00171833 -1.67027e-22)
(0.870143 0.00329769 -1.27377e-21)
(0.883214 0.00525624 -1.49149e-22)
(0.895582 0.00592455 9.83577e-22)
(0.907195 0.00747378 -8.42849e-22)
(0.918375 0.00772459 -3.36457e-25)
(0.929082 0.00943622 -3.23489e-22)
(0.939389 0.0098722 3.88528e-22)
(0.949084 0.0123459 4.34541e-22)
(0.957941 0.0130482 -1.24972e-22)
(0.965829 0.0162065 -1.7839e-22)
(0.972488 0.0167336 3.25436e-22)
(0.978169 0.020249 -2.16618e-22)
(0.982622 0.0204747 5.04178e-23)
(0.986439 0.0242768 -6.36041e-23)
(0.98921 0.0242702 -4.77305e-23)
(0.991805 0.0285045 9.79294e-23)
(0.993459 0.0282485 -2.82984e-24)
(0.995408 0.033057 2.14477e-23)
(0.996353 0.032701 0)
(0.998052 0.0381351 6.7605e-24)
(0.998501 0.03787 -8.88809e-24)
(1.00024 0.044101 0)
(0.0867137 0.0579008 1.00492e-19)
(0.0869854 0.058748 -1.97676e-19)
(0.0883584 0.0564308 9.60392e-20)
(0.092023 0.0523228 9.67992e-20)
(0.0969424 0.0466818 -1.9014e-19)
(0.103112 0.0391339 -1.50606e-22)
(0.110968 0.0293378 9.16122e-20)
(0.120924 0.0172036 8.87254e-20)
(0.133482 0.00290933 -8.69018e-20)
(0.148487 -0.0140658 0)
(0.166333 -0.0330678 -7.69999e-20)
(0.187651 -0.0533691 1.46379e-19)
(0.212842 -0.0754406 -6.9508e-20)
(0.241795 -0.0986027 0)
(0.274466 -0.121982 0)
(0.310505 -0.144521 6.98024e-22)
(0.349363 -0.164608 -3.39487e-20)
(0.390503 -0.180981 3.29783e-20)
(0.432662 -0.192273 0)
(0.474609 -0.197475 1.13319e-20)
(0.51519 -0.19616 -1.54197e-20)
(0.553453 -0.188574 4.77018e-21)
(0.588822 -0.175727 3.6456e-21)
(0.621092 -0.15913 2.64209e-21)
(0.65035 -0.140432 -1.38925e-20)
(0.676851 -0.121127 7.74756e-21)
(0.700917 -0.102371 2.82046e-22)
(0.722906 -0.0849839 4.05959e-21)
(0.743231 -0.069483 -8.47169e-23)
(0.762118 -0.0559181 -4.01214e-21)
(0.779779 -0.0443403 -2.30296e-22)
(0.796298 -0.0344982 3.16319e-21)
(0.811941 -0.0263996 -5.89794e-21)
(0.826659 -0.0196203 3.06813e-21)
(0.840658 -0.0142829 0)
(0.853798 -0.00970665 2.19896e-21)
(0.866315 -0.00647865 -2.11137e-21)
(0.878025 -0.00332909 1.29082e-21)
(0.889159 -0.00141472 -1.61391e-21)
(0.899505 0.00105434 1.48015e-22)
(0.909447 0.00213828 0)
(0.918831 0.00399343 1.12626e-22)
(0.927976 0.00447935 -2.94774e-22)
(0.936806 0.00639879 0)
(0.94543 0.00705189 -7.11435e-22)
(0.95366 0.00978649 2.89539e-22)
(0.961301 0.0107914 -1.11074e-22)
(0.968234 0.0142885 -9.52451e-23)
(0.974176 0.0151451 0)
(0.979363 0.0189707 0)
(0.98347 0.0194569 1.67662e-22)
(0.987095 0.023479 -2.4665e-22)
(0.989729 0.0236379 1.29733e-22)
(0.992287 0.0280088 -3.92998e-23)
(0.993896 0.0278442 -6.0078e-23)
(0.995875 0.0327317 -2.14681e-23)
(0.996807 0.0324225 3.24095e-23)
(0.998566 0.0379045 0)
(0.999011 0.0376586 1.44403e-23)
(1.00083 0.0439257 3.35891e-24)
(0.22782 0.0520814 1.01526e-19)
(0.232652 0.0532131 -1.00834e-19)
(0.236981 0.0510512 7.73334e-22)
(0.244155 0.0468848 -7.5576e-22)
(0.253053 0.0410227 7.52317e-22)
(0.263074 0.0330382 -7.40177e-22)
(0.274484 0.0225797 1.44309e-21)
(0.28779 0.00954304 0)
(0.303055 -0.00608859 -1.37114e-21)
(0.320289 -0.0244814 1.32115e-21)
(0.339982 -0.0451394 1.26036e-21)
(0.362325 -0.0677275 -1.17662e-21)
(0.387601 -0.091996 0)
(0.415747 -0.11734 0)
(0.44657 -0.142819 8.92825e-22)
(0.479625 -0.167222 0)
(0.514203 -0.188893 -6.45786e-22)
(0.549455 -0.206292 0)
(0.584156 -0.217922 -1.96531e-20)
(0.617136 -0.222741 3.25747e-20)
(0.647535 -0.220384 -1.94686e-20)
(0.674876 -0.211252 6.77778e-21)
(0.699118 -0.196545 -1.99727e-21)
(0.720586 -0.177968 1.93953e-21)
(0.739774 -0.1573 6.83104e-21)
(0.757182 -0.136122 -6.67894e-21)
(0.773199 -0.115645 0)
(0.788091 -0.0966488 -2.40618e-22)
(0.802157 -0.0797247 0)
(0.815514 -0.0649484 0)
(0.828215 -0.0523401 -6.40158e-21)
(0.840214 -0.0416198 6.63083e-21)
(0.851671 -0.032776 -3.5529e-22)
(0.862492 -0.0253357 -3.27798e-22)
(0.872852 -0.0194503 2.83402e-22)
(0.882597 -0.0143659 1.93322e-21)
(0.891961 -0.0106263 -1.8771e-21)
(0.900698 -0.00711905 1.68163e-21)
(0.909163 -0.00492381 -1.44206e-21)
(0.917052 -0.00229671 -2.97492e-22)
(0.924633 -0.000927023 9.86305e-22)
(0.931801 0.00121477 1.39742e-23)
(0.938867 0.00187953 -6.37172e-22)
(0.945737 0.00394025 0)
(0.952542 0.00473215 2.98335e-22)
(0.959147 0.00764129 -3.59141e-22)
(0.965396 0.00885979 4.74552e-22)