/*--------------------------------*- C++ -*----------------------------------*\
| =========                 |                                                 |
| \\      /  F ield         | OpenFOAM: The Open Source CFD Toolbox           |
|  \\    /   O peration     | Version:  2512                                  |
|   \\  /    A nd           | Website:  www.openfoam.com                      |
|    \\/     M anipulation  |                                                 |
\*---------------------------------------------------------------------------*/
FoamFile
{
    version     2.0;
    format      ascii;
    arch        "LSB;label=32;scalar=64";
    class       surfaceScalarField;
    location    "44.5";
    object      phi;
}
// * * * * * * * * * * * * * * * * * * * * * * * * * * * * * * * * * * * * * //

dimensions      [0 3 -1 0 0 0 0];

oriented        oriented;

internalField   nonuniform List<scalar> 
26232
(
3.60357e-05
0.000959908
-0.000995943
0.000316027
0.00192897
-0.00220896
0.000987364
0.00208657
-0.0027579
0.00218653
0.00147972
-0.00267888
0.00404839
0.000135742
-0.00199761
0.00670913
-0.00193199
-0.000728747
0.0103029
-0.00471654
0.00112273
0.0149551
-0.00821044
0.00355826
0.0207698
-0.0123958
0.0065811
0.0278171
-0.0172362
0.010189
0.0361183
-0.0226709
0.0143697
0.0456357
-0.0286129
0.0190955
0.0562664
-0.0349511
0.0243204
0.0678432
-0.0415559
0.0299791
0.0801422
-0.0482878
0.0359888
0.0928963
-0.0550064
0.0422522
0.105814
-0.0615804
0.0486631
0.118598
-0.0678976
0.055113
0.130972
-0.0738672
0.0614931
0.142697
-0.0794424
0.0677182
0.153576
-0.0845652
0.0736858
0.163477
-0.0893333
0.079432
0.172248
-0.0935067
0.0847362
-0.0977477
0.0905067
0.179489
7.34713e-05
0.000886436
0.000494485
0.00150796
0.00144006
0.00114099
0.00307538
-0.000155601
0.00556123
-0.00235011
0.00905061
-0.00542136
0.0136795
-0.00934544
0.0195512
-0.0140821
0.0267184
-0.0195631
0.0351673
-0.0256851
0.0448065
-0.0323101
0.0554659
-0.0392723
0.066905
-0.0463901
0.0788301
-0.0534811
0.0909194
-0.0603771
0.102851
-0.0669375
0.114329
-0.0730589
0.125113
-0.0786812
0.135033
-0.0837876
0.143996
-0.088405
0.15201
-0.0925795
0.15911
-0.0964337
0.165511
-0.0999074
-0.103545
0.171308
0.000131616
0.000754821
0.000747959
0.000891616
0.00205238
-0.000163427
0.00423406
-0.00233729
0.00746863
-0.00558468
0.0119062
-0.00985894
0.0176517
-0.015091
0.0247425
-0.0211729
0.0331291
-0.0279496
0.0426659
-0.0352219
0.053116
-0.0427602
0.06417
-0.0503263
0.0754762
-0.0576964
0.0866776
-0.0646824
0.0974484
-0.0711479
0.107527
-0.0770157
0.116737
-0.0822689
0.125
-0.0869446
0.132333
-0.091121
0.138832
-0.0949039
0.144654
-0.098401
0.149963
-0.101743
0.154983
-0.104927
-0.108347
0.159784
0.000211199
0.000543621
0.00107754
2.5274e-05
0.00282127
-0.00190715
0.00564349
-0.0051595
0.00971337
-0.00965457
0.0151441
-0.0152897
0.0219644
-0.0219112
0.0300954
-0.0293039
0.0393427
-0.0371969
0.0494084
-0.0452876
0.059923
-0.0532747
0.0704898
-0.0608931
0.0807345
-0.0679411
0.0903487
-0.0742966
0.0991209
-0.0799201
0.106951
-0.0848461
0.113848
-0.0891661
0.11991
-0.0930059
0.125292
-0.0965032
0.130177
-0.0997884
0.134743
-0.102967
0.139132
-0.106132
0.143489
-0.109284
-0.112672
0.147815
0.000311187
0.000232434
0.00147657
-0.00114011
0.0037247
-0.00415529
0.00724769
-0.00868249
0.0121753
-0.0145822
0.018539
-0.0216534
0.0262426
-0.0296149
0.035053
-0.0381143
0.0446197
-0.0467636
0.0545206
-0.0551886
0.0643234
-0.0630775
0.0736459
-0.0702157
0.0822048
-0.0765
0.0898411
-0.0819329
0.0965228
-0.0866017
0.102325
-0.0906479
0.107394
-0.0942358
0.111913
-0.0975248
0.116061
-0.100651
0.11999
-0.103717
0.123817
-0.106794
0.127615
-0.10993
0.131448
-0.113118
-0.116515
0.135292
0.000429411
-0.000196977
0.0019327
-0.0026434
0.00472505
-0.00694764
0.00895927
-0.0129167
0.0146832
-0.0203061
0.0217998
-0.02877
0.030052
-0.037867
0.0390469
-0.0471092
0.0483161
-0.0560328
0.0573934
-0.0642658
0.0658889
-0.0715729
0.0735399
-0.0778668
0.0802307
-0.0831907
0.0859799
-0.0876822
0.0909068
-0.0915286
0.0951856
-0.0949267
0.0990027
-0.0980528
0.102525
-0.101047
0.105883
-0.104009
0.109167
-0.107002
0.112438
-0.110065
0.115727
-0.113219
0.119069
-0.11646
-0.119872
0.122427
0.000562704
-0.000759682
0.0024278
-0.00450849
0.00576988
-0.0102897
0.0106638
-0.0178107
0.0170307
-0.026673
0.0246093
-0.0363485
0.0329777
-0.0462354
0.0416247
-0.0557562
0.0500464
-0.0644546
0.0578357
-0.0720551
0.0647374
-0.0784746
0.0706617
-0.0837911
0.0756601
-0.0881892
0.0798782
-0.0919003
0.0835029
-0.0951533
0.0867189
-0.0981427
0.0896812
-0.101015
0.0925048
-0.103871
0.0952669
-0.106771
0.0980154
-0.109751
0.100778
-0.112828
0.103571
-0.116011
0.106408
-0.119297
-0.122724
0.10926
0.000706423
-0.0014661
0.00293739
-0.00673946
0.00679289
-0.0141452
0.012228
-0.0232458
0.0190007
-0.0334457
0.0266781
-0.044026
0.0347115
-0.0542687
0.0425513
-0.063596
0.0497561
-0.0716594
0.0560578
-0.0783568
0.0613727
-0.0837895
0.0657674
-0.0881858
0.0694015
-0.0918232
0.0724687
-0.0949675
0.0751523
-0.0978369
0.0776003
-0.100591
0.0799186
-0.103333
0.0821762
-0.106128
0.0844149
-0.109009
0.0866584
-0.111994
0.08892
-0.11509
0.0912061
-0.118297
0.0935236
-0.121615
-0.125051
0.0958497
0.000853806
-0.00231991
0.00343052
-0.00931617
0.00771786
-0.0184326
0.0135143
-0.0290423
0.0204004
-0.0403317
0.0278005
-0.0514261
0.035112
-0.0615802
0.0418381
-0.0703221
0.0476722
-0.0774935
0.0525133
-0.0831979
0.0564263
-0.0877026
0.059576
-0.0913354
0.0621607
-0.094408
0.0643653
-0.097172
0.0663358
-0.0998073
0.0681744
-0.102429
0.0699463
-0.105105
0.0716895
-0.107871
0.0734254
-0.110745
0.0751659
-0.113735
0.0769172
-0.116841
0.0786824
-0.120063
0.0804634
-0.123396
-0.126833
0.0822459
0.000995954
-0.00331586
0.0038716
-0.0121918
0.00846695
-0.0230279
0.0144019
-0.0349772
0.0210951
-0.0470249
0.0278895
-0.0582205
0.0342123
-0.067903
0.0396888
-0.0757986
0.0441736
-0.0819782
0.0477112
-0.0867355
0.0504622
-0.0904536
0.0526287
-0.093502
0.0544002
-0.0961794
0.0559257
-0.0986976
0.0573088
-0.10119
0.0586138
-0.103734
0.0598778
-0.106369
0.0611212
-0.109115
0.0623552
-0.111979
0.0635858
-0.114965
0.0648164
-0.118072
0.0660483
-0.121295
0.0672807
-0.124628
-0.128058
0.0685059
0.00112303
-0.00443889
0.00422561
-0.0152944
0.00897293
-0.0277752
0.0148066
-0.0408109
0.0210286
-0.053247
0.0269762
-0.064168
0.0321755
-0.0731024
0.0364045
-0.0800276
0.0396633
-0.0852371
0.0420961
-0.0891683
0.0439053
-0.0922628
0.0452877
-0.0948843
0.0464003
-0.0972921
0.0473522
-0.0996495
0.0482107
-0.102049
0.0490141
-0.104538
0.0497829
-0.107138
0.0505281
-0.10986
0.0512559
-0.112707
0.0519701
-0.11568
0.0526724
-0.118774
0.053363
-0.121985
0.0540392
-0.125304
-0.128716
0.0546973
0.00122808
-0.00566697
0.00446591
-0.0185322
0.00919101
-0.0325003
0.0146933
-0.0463131
0.0202231
-0.0587768
0.0251822
-0.0691272
0.0292345
-0.0771547
0.032304
-0.083097
0.0344984
-0.0874315
0.036013
-0.0906829
0.0370523
-0.0933021
0.0377854
-0.0956174
0.0383316
-0.0978383
0.0387651
-0.100083
0.0391276
-0.102411
0.039441
-0.104851
0.0397166
-0.107414
0.0399608
-0.110104
0.0401776
-0.112924
0.0403696
-0.115871
0.040538
-0.118942
0.0406829
-0.12213
0.0408013
-0.125423
0.040893
-0.128808
-0.000189098
0.000628255
-0.000439158
-0.000664452
0.00159391
-0.00111855
-0.0013679
0.0023627
-0.00165925
-0.00225393
0.00297008
-0.00208406
-0.00328604
0.00344659
-0.00241448
-0.00443521
0.0038212
-0.00267203
-0.00567867
0.00412029
-0.00287683
-0.00699868
0.00436612
-0.00304611
-0.00838146
0.0045759
-0.00319313
-0.00981616
0.00476135
-0.00332664
-0.0112939
0.00492873
-0.00345096
-0.012807
0.00507942
-0.00356633
-0.0143481
0.00521067
-0.0036696
-0.0159096
0.00531649
-0.00375496
-0.0174836
0.00538847
-0.00381449
-0.0190615
0.00541654
-0.00383866
-0.0206345
0.00538968
-0.00381667
-0.0221945
0.00529668
-0.00373671
-0.0237354
0.00512707
-0.00358613
-0.0252557
0.00487213
-0.0033518
-0.026761
0.0045257
-0.00302046
-0.0282671
0.00408426
-0.00257815
-0.0298086
0.00354908
-0.00200755
0.00293028
-0.0314516
-0.00128735
-0.000162861
0.000791116
-0.00057782
0.00200887
-0.00119699
0.00298188
-0.00198123
0.00375432
-0.00289782
0.00436318
-0.00391958
0.00484296
-0.00502416
0.00522487
-0.0061933
0.00553526
-0.00741218
0.00579478
-0.00866865
0.00601782
-0.0099526
0.00621267
-0.0112552
0.006382
-0.0125682
0.0065237
-0.0138835
0.00663182
-0.0151926
0.00669749
-0.0164858
0.00670982
-0.017753
0.00665686
-0.018983
0.00652666
-0.0201648
0.00630885
-0.0212893
0.00599666
-0.0223527
0.00558909
-0.0233608
0.00509238
-0.0243392
0.00452749
0.00395937
-0.0253683
-0.000129103
0.000920219
-0.000464846
0.00234461
-0.000971005
0.00348804
-0.00161535
0.00439867
-0.00236902
0.00511685
-0.00320645
0.00568039
-0.00410518
0.0061236
-0.00504565
0.00647573
-0.00601086
0.00675999
-0.00698604
0.00699299
-0.00795812
0.00718476
-0.00891534
0.00733922
-0.00984659
0.00745495
-0.0107409
0.0075261
-0.0115867
0.00754329
-0.0123713
0.00749445
-0.0130802
0.00736578
-0.0136964
0.00714286
-0.0141999
0.00681238
-0.0145682
0.00636487
-0.0147784
0.00579935
-0.0148155
0.00512942
-0.0146781
0.00439012
0.00364575
-0.0143645
-9.16167e-05
0.00101184
-0.000337081
0.00259007
-0.00071129
0.00386224
-0.00118835
0.00487572
-0.00174271
0.00567122
-0.00234985
0.00628753
-0.00298654
0.00676028
-0.00363102
0.0071202
-0.00426298
0.00739196
-0.0048635
0.00759351
-0.00541474
0.00773601
-0.00589973
0.0078242
-0.00630187
0.00785709
-0.0066045
0.00782874
-0.00679028
0.00772908
-0.00684051
0.00754467
-0.00673418
0.00725945
-0.00644689
0.00685558
-0.00594925
0.00631474
-0.00520495
0.00562057
-0.0041687
0.00476309
-0.00278616
0.00374688
-0.00101224
0.00261621
0.00155279
0.00108072
-5.46943e-05
0.00106653
-0.000207995
0.00274337
-0.000443297
0.00409755
-0.000739199
0.00517162
-0.00107221
0.00600423
-0.00141785
0.00663317
-0.00175128
0.00709371
-0.00204763
0.00741656
-0.00228217
0.0076265
-0.00243031
0.00774165
-0.00246754
0.00777324
-0.00236923
0.0077259
-0.00211036
0.00759822
-0.00166512
0.0073835
-0.00100652
0.00707048
-0.000105882
0.00664403
0.00106779
0.00608578
0.00254862
0.00537475
0.00437508
0.00448828
0.00659226
0.00340339
0.00925502
0.00210033
0.0124307
0.000571205
0.0161931
-0.00114622
-0.00296727
0.0207132
-2.25707e-05
0.0010891
-9.10002e-05
0.0028118
-0.000192665
0.00419921
-0.000307719
0.00528668
-0.000412699
0.00610921
-0.000481777
0.00670225
-0.000487372
0.00709931
-0.000400449
0.00732963
-0.000190636
0.00741668
0.000173772
0.00737724
0.000725888
0.00722112
0.00150042
0.00695137
0.00253387
0.00656477
0.00386483
0.00605254
0.00553423
0.00540107
0.00758554
0.00459272
0.0100649
0.00360647
0.013021
0.00241864
0.0165052
0.00100406
0.0205717
-0.000663123
0.0252792
-0.00260718
0.0307012
-0.00485076
0.0368904
-0.00733548
-0.0102594
0.0441825
1.30329e-06
0.0010878
3.24135e-06
0.00280987
1.99378e-05
0.00418251
7.35948e-05
0.00523302
0.000190421
0.00599238
0.000399585
0.00649309
0.000733034
0.00676586
0.00122551
0.00683715
0.00191469
0.00672751
0.00284129
0.00645064
0.00404933
0.00601309
0.00558624
0.00541445
0.00750305
0.00464796
0.00985437
0.00370122
0.0126988
0.00255659
0.016098
0.00119359
0.0201158
-0.000411373
0.0248185
-0.002284
0.0302711
-0.00444855
0.0365369
-0.00692899
0.043668
-0.00973829
0.0517489
-0.0129316
0.0607072
-0.0162937
-0.0206633
0.0711111
1.53814e-05
0.00107242
6.89939e-05
0.00275625
0.000183757
0.00406775
0.000388496
0.00502828
0.000715315
0.00566556
0.00119952
0.00600889
0.00188002
0.00608535
0.00279994
0.00591724
0.00400703
0.00552042
0.00555413
0.00490354
0.00749933
0.00406788
0.00990607
0.00300772
0.012843
0.00171107
0.0163819
0.000162316
0.0206011
-0.00166267
0.025578
-0.00378326
0.0313904
-0.00622383
0.0381123
-0.00900588
0.0458104
-0.0121466
0.0545423
-0.0156609
0.0643323
-0.0195283
0.0752593
-0.0238586
0.0871003
-0.0281348
-0.0340843
0.100521
1.99443e-05
0.00105247
0.000108718
0.00266748
0.000303991
0.00387248
0.000646014
0.00468626
0.00117697
0.0051346
0.0019422
0.00524366
0.00299159
0.00503596
0.00438079
0.00452804
0.00617201
0.00372919
0.00843439
0.00264116
0.0112438
0.00125851
0.0146817
-0.00043025
0.0188344
-0.00244162
0.0237907
-0.00479401
0.0296354
-0.00750734
0.0364507
-0.0105986
0.0443077
-0.0140808
0.0532621
-0.0179603
0.0633486
-0.0222332
0.074579
-0.0268913
0.086919
-0.0318683
0.100368
-0.0373077
0.114652
-0.0424183
-0.049597
0.130164
1.84301e-05
0.00103404
0.000133386
0.00255252
0.000403244
0.00360262
0.000884503
0.004205
0.00163426
0.00438484
0.00271303
0.00416489
0.00418702
0.00356197
0.00612964
0.00258543
0.00862249
0.00123634
0.011754
-0.000490346
0.0156182
-0.00260567
0.0203112
-0.00512322
0.0259265
-0.00805697
0.0325503
-0.0114178
0.040254
-0.015211
0.0490886
-0.0194331
0.0590781
-0.0240703
0.0702144
-0.0290967
0.0824541
-0.0344729
0.0957148
-0.040152
0.10988
-0.0460338
0.124787
-0.0522147
0.140268
-0.0578987
-0.0654189
0.15609
1.6534e-05
0.00101751
0.000162168
0.00240689
0.00052062
0.00324417
0.00116942
0.00355619
0.00218595
0.00336831
0.00365158
0.00269927
0.00565434
0.0015592
0.0082887
-4.89306e-05
0.0116579
-0.0021329
0.0158656
-0.00469805
0.0210137
-0.00775375
0.0271943
-0.0113038
0.0344813
-0.0153439
0.0429218
-0.0198584
0.0525284
-0.0248176
0.0632729
-0.0301776
0.0750828
-0.0358801
0.0878408
-0.0418547
0.101388
-0.0480203
0.115532
-0.054296
0.130072
-0.0605731
0.144728
-0.0668715
0.159483
-0.0726538
-0.0794045
0.173469
2.15643e-05
0.000219489
0.000705756
0.00158307
0.00295377
0.00492429
0.00760623
0.0111156
0.0155638
0.0210547
0.0276706
0.0354623
0.0444387
0.0545595
0.0657306
0.0778052
0.0905882
0.103846
0.117319
0.130741
0.143854
0.156415
0.168497
0.179599
-0.0323363
0.00123735
-0.000352617
-0.0331844
-0.000817438
0.00166558
-0.034004
-0.00338104
0.00420059
-0.0347809
-0.00647839
0.00725532
-0.0355039
-0.0101221
0.0108451
-0.0361604
-0.0143077
0.0149642
-0.0367365
-0.019
0.0195761
-0.0372187
-0.0241221
0.0246044
-0.037594
-0.0295478
0.0299231
-0.0378474
-0.0350952
0.0353485
-0.0379584
-0.0405202
0.0406312
-0.0379015
-0.0455043
0.0454474
-0.0376425
-0.0496539
0.0493949
-0.0371264
-0.0525118
0.0519957
-0.0362686
-0.0535737
0.0527159
-0.0349842
-0.0522907
0.0510062
-0.0331753
-0.0480988
0.04629
-0.0307638
-0.0404851
0.0380735
-0.0277076
-0.0290777
0.0260216
-0.0239939
-0.0137086
0.00999479
-0.0198853
0.00510924
-0.00921775
-0.0156034
0.0269119
-0.0311938
-0.0114869
0.0504697
-0.0545862
-0.00796137
0.0742739
-0.0777994
-0.00540036
0.0965997
-0.0991607
-0.0038152
0.115853
-0.117438
-0.00247751
0.13002
-0.131358
4.91517e-05
0.13645
-0.138976
0.00542175
0.131833
-0.137206
0.0144601
0.113498
-0.122536
0.0268768
0.081159
-0.0935757
0.0415453
0.0379606
-0.0526291
0.0568161
-0.00936824
-0.00590257
0.0712
-0.0536265
0.0392427
0.0833654
-0.0885555
0.0763901
0.0923873
-0.111045
0.102023
0.0976838
-0.121486
0.116189
0.0988865
-0.122421
0.121218
0.0964537
-0.117701
0.120133
0.0925743
-0.109357
0.113236
0.0906386
-0.0963563
0.098292
0.0930334
-0.0757943
0.0733995
0.0996518
-0.0480494
0.0414311
0.108481
-0.0170183
0.00818931
0.117311
0.0114964
-0.0203269
0.124629
0.0337888
-0.0411065
0.129851
0.0483846
-0.0536069
0.133027
0.0558832
-0.059059
0.134833
0.057146
-0.0589518
0.13608
0.0531215
-0.0543688
0.137616
0.0445112
-0.0460467
0.139751
0.0324562
-0.034592
0.142467
0.018741
-0.0214562
0.145296
0.00561718
-0.0084469
0.147979
-0.00582318
0.00314031
0.150146
-0.0127668
0.0105999
0.152076
-0.0184818
0.0165516
0.153619
-0.0159404
0.0143976
0.155302
-0.0173602
0.0156771
-0.00542271
0.00380524
-0.0263232
0.00219228
-0.0272775
0.000136823
-0.0282739
-0.0023846
-0.0292767
-0.00547561
-0.0302836
-0.00911521
-0.0312861
-0.0133053
-0.0322722
-0.0180138
-0.0332303
-0.023164
-0.03415
-0.0286281
-0.035021
-0.0342242
-0.0358296
-0.0397116
-0.0365593
-0.0447746
-0.0371851
-0.0490282
-0.0376618
-0.052035
-0.0378985
-0.0533371
-0.0377816
-0.0524075
-0.0371675
-0.0487129
-0.0359082
-0.0417444
-0.0338858
-0.0311001
-0.031009
-0.0165854
-0.0274414
0.00154164
-0.0233821
0.0228527
-0.019056
0.0461435
-0.0148188
0.0700367
-0.0107898
0.0925706
-0.0067981
0.111861
-0.00197394
0.125196
0.00459035
0.129885
0.0137372
0.122686
0.025573
0.101662
0.0393991
0.0673328
0.0543252
0.0230345
0.0691085
-0.0241515
0.0826418
-0.0671599
0.0938236
-0.0997373
0.102009
-0.11923
0.106991
-0.126468
0.108552
-0.123982
0.106534
-0.115682
0.10192
-0.104743
0.0974276
-0.0918642
0.0960527
-0.0744194
0.0990065
-0.0510032
0.105192
-0.0232035
0.112552
0.00413648
0.119316
0.0270241
0.124608
0.0430927
0.128315
0.0521763
0.131061
0.0544003
0.133559
0.0506231
0.136473
0.0415979
0.139867
0.0290618
0.143532
0.015076
0.146933
0.0022166
0.149815
-0.00870598
0.151907
-0.0148586
0.153513
-0.0200873
0.154657
-0.0170844
0.155809
-0.0185124
-0.00667314
-0.0152196
0.00304743
-0.0161453
0.00106255
-0.0171422
-0.00138771
-0.0182164
-0.00440139
-0.019371
-0.00796062
-0.0205977
-0.0120786
-0.0218849
-0.0167267
-0.0232201
-0.0218287
-0.0245927
-0.0272555
-0.0259935
-0.0328234
-0.0274115
-0.0382936
-0.0288351
-0.043351
-0.0302393
-0.047624
-0.0315969
-0.0506774
-0.0328061
-0.0521278
-0.0337471
-0.0514666
-0.0342533
-0.0482067
-0.0341302
-0.0418676
-0.0331858
-0.0320445
-0.0312546
-0.0185166
-0.0283022
-0.00141074
-0.0245115
0.019062
-0.0198965
0.0415286
-0.0147441
0.0648843
-0.00895859
0.0867851
-0.00249564
0.105398
0.00532233
0.117378
0.014953
0.120255
0.0265609
0.111078
0.0397098
0.0885133
0.0537028
0.0533399
0.0680115
0.00872582
0.081731
-0.037871
0.0939767
-0.0794056
0.103808
-0.109569
0.1108
-0.126223
0.115069
-0.130736
0.116763
-0.125677
0.11561
-0.114529
0.111584
-0.100718
0.106182
-0.086462
0.102156
-0.070393
0.101657
-0.0505044
0.104783
-0.0263301
0.110077
-0.00115721
0.115832
0.0212692
0.120973
0.0379517
0.1252
0.0479492
0.12897
0.05063
0.132774
0.0468196
0.136999
0.0373727
0.141468
0.0245925
0.145835
0.0107093
0.149573
-0.00152136
0.152479
-0.011612
0.1544
-0.0167792
0.155639
-0.0213267
0.156381
-0.0178259
0.156996
-0.0191278
-0.00753022
0.000930956
0.00319719
0.000179777
0.00181373
-0.00072652
-0.000481418
-0.00177284
-0.00335507
-0.00296543
-0.00676802
-0.00431178
-0.0107322
-0.00580639
-0.0152321
-0.00743933
-0.0201958
-0.00919404
-0.0255008
-0.011055
-0.0309624
-0.0130226
-0.036326
-0.0150841
-0.0412895
-0.0171883
-0.0455198
-0.019355
-0.0485107
-0.0214204
-0.0500624
-0.0232646
-0.0496224
-0.0247147
-0.0467566
-0.025557
-0.0410252
-0.0255552
-0.0320462
-0.0244895
-0.0195824
-0.0221396
-0.00376062
-0.0186353
0.0155577
-0.0137823
0.0366756
-0.00786797
0.0589699
-0.000820413
0.0797375
0.00796984
0.0966079
0.0179255
0.107423
0.0294146
0.108766
0.0421404
0.0983525
0.0554611
0.0751926
0.068882
0.039919
0.0819249
-0.00431709
0.0942462
-0.0501923
0.104864
-0.0900235
0.113063
-0.117767
0.11864
-0.1318
0.121921
-0.134017
0.123374
-0.127129
0.122968
-0.114124
0.120209
-0.0979592
0.115375
-0.0816276
0.110278
-0.0652956
0.107286
-0.0475125
0.107538
-0.0265826
0.110522
-0.00414095
0.114921
0.0168698
0.119668
0.0332055
0.124281
0.0433359
0.128962
0.0459486
0.133892
0.0418897
0.139148
0.032117
0.14435
0.0193902
0.149083
0.00597618
0.152893
-0.00533081
0.155652
-0.014371
0.15733
-0.0184574
0.158206
-0.0222025
0.158588
-0.0182086
0.158724
-0.0192632
-0.00801617
0.0204727
0.00343772
0.020033
0.00225339
0.0193961
0.000155515
0.0186111
-0.00257014
0.0176195
-0.00577638
0.0163973
-0.00950999
0.0149396
-0.0137744
0.0132419
-0.0184981
0.0112996
-0.0235585
0.00910562
-0.0287685
0.0066453
-0.0338657
0.00391927
-0.0385635
0.000959306
-0.0425599
-0.00189838
-0.045653
-0.00473509
-0.0472257
-0.00738042
-0.0469771
-0.0096424
-0.0444946
-0.0112878
-0.0393798
-0.0120575
-0.0312765
-0.0116943
-0.0199457
-0.00996451
-0.00549038
-0.00676317
0.0123564
-0.00203066
0.0319431
0.0049434
0.0519959
0.0133702
0.0713107
0.0229787
0.0869994
0.0340077
0.0963935
0.0462275
0.0965459
0.0590347
0.0855453
0.0717497
0.0624776
0.0840609
0.0276077
0.0956548
-0.015911
0.106243
-0.0607808
0.11496
-0.0987404
0.121307
-0.124114
0.125341
-0.135834
0.12753
-0.136205
0.128481
-0.12808
0.128459
-0.114102
0.127001
-0.0965015
0.123613
-0.0782396
0.118949
-0.0606314
0.114878
-0.0434413
0.113062
-0.0247664
0.113954
-0.00503345
0.116883
0.0139408
0.12102
0.0290684
0.125779
0.0385771
0.131078
0.0406496
0.136766
0.0362022
0.142624
0.0262582
0.148138
0.0138771
0.152883
0.00123026
0.156515
-0.00896249
0.15899
-0.0168461
0.160388
-0.0198555
0.160942
-0.0227561
0.161046
-0.0183128
0.160809
-0.0190261
-0.00819776
0.0439679
0.00365236
0.0436723
0.00254896
0.0432489
0.000578928
0.0426466
-0.00196787
0.0418256
-0.0049554
0.0407487
-0.00843307
0.0393947
-0.0124204
0.0377395
-0.0168429
0.0357566
-0.0215756
0.0334276
-0.0264395
0.0307582
-0.0311963
0.0277687
-0.035574
0.0245045
-0.0392957
0.0209449
-0.0420933
0.0172812
-0.043562
0.013696
-0.0433919
0.0104457
-0.0412443
0.00783795
-0.0367721
0.00621266
-0.0296512
0.00591211
-0.0196451
0.00719617
-0.00677445
0.0103129
0.00923968
0.0153438
0.0269123
0.0220803
0.0452594
0.0305484
0.0628426
0.0405007
0.0770471
0.0517683
0.0851259
0.0638705
0.0844437
0.0760747
0.0733411
0.0877411
0.0508113
0.0986695
0.0166793
0.108652
-0.0258935
0.117314
-0.069443
0.123942
-0.105368
0.128308
-0.12848
0.130747
-0.138273
0.131845
-0.137303
0.132208
-0.128442
0.132248
-0.114142
0.131757
-0.0960105
0.130015
-0.0764978
0.12677
-0.0573858
0.123011
-0.0396822
0.120314
-0.0220702
0.119763
-0.00448196
0.121412
0.0122921
0.124833
0.0256474
0.129463
0.0339463
0.134989
0.0351242
0.140971
0.0302201
0.146957
0.0202718
0.152366
0.00846791
0.156816
-0.00321994
0.160077
-0.0122225
0.162182
-0.0189516
0.163298
-0.0209712
0.163599
-0.0230576
0.163527
-0.0182407
0.163057
-0.0185561
-0.00817523
0.0706492
0.0041143
0.0702125
0.00298561
0.0697469
0.00104458
0.0691415
-0.00136256
0.068323
-0.0041369
0.0672678
-0.00737785
0.0659281
-0.0110806
0.0642565
-0.0151714
0.0622247
-0.0195437
0.0598185
-0.0240334
0.0570352
-0.028413
0.0538816
-0.0324204
0.0503717
-0.0357858
0.0465188
-0.0382404
0.0424378
-0.0394809
0.0382983
-0.0392525
0.0343635
-0.0373095
0.0309792
-0.0333878
0.028532
-0.027204
0.0273974
-0.0185106
0.0278709
-0.00724792
0.0302375
0.00687312
0.034631
0.0225187
0.0409308
0.0389596
0.0490895
0.0546838
0.0588164
0.0673202
0.069721
0.0742214
0.0811619
0.0730028
0.0923773
0.0621258
0.10279
0.0403986
0.112232
0.00723739
0.120511
-0.0341727
0.127115
-0.0760469
0.131545
-0.109798
0.133901
-0.130836
0.134779
-0.139151
0.134852
-0.137377
0.134658
-0.128248
0.134589
-0.114074
0.134662
-0.096083
0.134298
-0.0761336
0.132802
-0.0558906
0.130322
-0.0372019
0.127914
-0.0196625
0.12682
-0.0033873
0.127646
0.0114656
0.130411
0.0228824
0.134702
0.0296559
0.140074
0.0297516
0.145904
0.0243899
0.151595
0.0145814
0.156566
0.00349666
0.160498
-0.00715146
0.163273
-0.0149978
0.164981
-0.0206598
0.165844
-0.0218347
0.165981
-0.0231939
0.16584
-0.0181003
0.165287
-0.0180027
-0.00806719
0.0995065
0.00512917
0.0985643
0.0039278
0.0976462
0.00196261
0.0966719
-0.000388205
0.0955294
-0.00299437
0.0942144
-0.00606287
0.0926573
-0.00952355
0.0907961
-0.0133101
0.0885973
-0.0173449
0.0860447
-0.0214809
0.0831344
-0.0255026
0.0798736
-0.0291596
0.0762756
-0.0321877
0.0723548
-0.0343196
0.0681654
-0.0352915
0.0638076
-0.0348947
0.0594717
-0.0329736
0.0554641
-0.0293801
0.0521902
-0.0239302
0.0500936
-0.0164139
0.0495632
-0.00671748
0.0509737
0.00546262
0.0544827
0.0190097
0.0600407
0.0334016
0.0675322
0.0471923
0.0766043
0.0582481
0.0867451
0.0640806
0.0972457
0.0625022
0.107332
0.052039
0.116474
0.0312566
0.124472
-0.000759869
0.130953
-0.0406538
0.135392
-0.080486
0.137581
-0.111988
0.137991
-0.131246
0.137424
-0.138585
0.136582
-0.136535
0.135909
-0.127574
0.135694
-0.113859
0.136042
-0.0964313
0.136623
-0.0767144
0.136704
-0.0559716
0.135887
-0.0363851
0.134588
-0.0183634
0.133822
-0.00262132
0.134417
0.010871
0.136748
0.0205508
0.140614
0.0257897
0.145562
0.0248036
0.150905
0.0190469
0.155997
0.0094901
0.160323
-0.000829229
0.163624
-0.0104531
0.165885
-0.0172582
0.167224
-0.0219989
0.167892
-0.0225026
0.167956
-0.023258
0.167849
-0.0179934
0.167353
-0.0175072
-0.00799523
0.128345
0.00694897
0.126691
0.00558176
0.125063
0.00359001
0.123366
0.00130938
0.12165
-0.00127912
0.119786
-0.00419893
0.117728
-0.00746467
0.115427
-0.0110093
0.112853
-0.0147713
0.10999
-0.0186175
0.106834
-0.0223466
0.103401
-0.0257272
0.0997214
-0.0285078
0.0958264
-0.0304247
0.0917564
-0.0312216
0.0875598
-0.030698
0.0833276
-0.0287413
0.079242
-0.0252946
0.0756085
-0.0202967
0.0728402
-0.0136457
0.0714095
-0.00528683
0.0717047
0.00516749
0.0740709
0.0166435
0.0785614
0.028911
0.0850417
0.040712
0.0931108
0.050179
0.102186
0.0550052
0.111544
0.0531444
0.120452
0.0431306
0.128398
0.0233106
0.135051
-0.00741281
0.139718
-0.0453202
0.141926
-0.0826949
0.141905
-0.111966
0.140515
-0.129856
0.138688
-0.136757
0.137079
-0.134926
0.136024
-0.12652
0.135691
-0.113526
0.136169
-0.0969095
0.137319
-0.0778641
0.138578
-0.0572313
0.139341
-0.0371479
0.139503
-0.0185253
0.139666
-0.0027838
0.140578
0.00995849
0.142786
0.0183425
0.146282
0.0222942
0.150688
0.0203979
0.155367
0.0143671
0.159718
0.00513918
0.163321
-0.0044316
0.165993
-0.0131259
0.167784
-0.0190492
0.168828
-0.0230422
0.169376
-0.0230509
0.169459
-0.0233413
0.169474
-0.0180084
0.169156
-0.0171892
-0.0080714
0.153564
0.00947456
0.151317
0.0078289
0.148934
0.00597253
0.146421
0.00382304
0.144057
0.00108427
0.141624
-0.00176597
0.138977
-0.00481709
0.136122
-0.00815413
0.133054
-0.0117039
0.129771
-0.0153341
0.126277
-0.0188525
0.1226
-0.02205
0.118786
-0.0246946
0.114894
-0.0265326
0.110986
-0.0273132
0.107118
-0.0268305
0.103347
-0.0249703
0.0997477
-0.021695
0.0964677
-0.0170167
0.0937508
-0.0109288
0.091932
-0.00346802
0.0915182
0.00558131
0.0928451
0.0153166
0.0961306
0.0256254
0.101342
0.0355012
0.108132
0.0433883
0.115927
0.0472102
0.124014
0.0450575
0.131724
0.0354213
0.13849
0.0165447
0.143704
-0.0126271
0.146449
-0.0480649
0.146454
-0.0827003
0.144379
-0.109891
0.141421
-0.126897
0.138567
-0.133903
0.136367
-0.132727
0.135041
-0.125193
0.134648
-0.113132
0.135215
-0.0974765
0.136694
-0.079343
0.13873
-0.0592676
0.140745
-0.0391623
0.142337
-0.0201179
0.14369
-0.00413634
0.145292
0.00835603
0.147674
0.0159605
0.150943
0.0190254
0.154833
0.0165083
0.158831
0.0103687
0.16245
0.00152023
0.165374
-0.00735546
0.167504
-0.0152562
0.168927
-0.020472
0.169778
-0.0238932
0.170293
-0.0235659
0.17048
-0.0235282
0.170689
-0.0182177
0.170641
-0.0171414
-0.00839008
0.171016
0.0119279
0.168534
0.0103107
0.165821
0.00868588
0.163033
0.00661038
0.160054
0.00406338
0.157135
0.00115282
0.154126
-0.0018074
0.150876
-0.00490413
0.147423
-0.00825091
0.143788
-0.0116989
0.139992
-0.0150567
0.136079
-0.0181378
0.132118
-0.0207327
0.128193
-0.0226084
0.124418
-0.0235372
0.120912
-0.0233251
0.117745
-0.0218034
0.114938
-0.0188876
0.112527
-0.0146054
0.110602
-0.00900435
0.109452
-0.0023182
0.108964
0.00607005
0.109843
0.0144369
0.112276
0.0231924
0.116338
0.0314399
0.121805
0.0379206
0.128223
0.0407925
0.134965
0.0383156
0.141405
0.0289814
0.146766
0.0111835
0.150409
-0.0162705
0.151117
-0.0487729
0.149046
-0.0806293
0.14524
-0.106085
0.141023
-0.122681
0.137365
-0.130245
0.134712
-0.130074
0.133177
-0.123658
0.132741
-0.112697
0.13337
-0.0981047
0.135031
-0.0810044
0.137525
-0.0617617
0.140403
-0.0420401
0.143161
-0.0228757
0.14569
-0.00666556
0.148142
0.00590391
0.150909
0.0131934
0.154121
0.0158132
0.157616
0.0130138
0.161031
0.00695347
0.164039
-0.00148781
0.166415
-0.00973106
0.168145
-0.0169869
0.169334
-0.0216603
0.170109
-0.0246689
0.17068
-0.0241365
0.171045
-0.0238937
0.171507
-0.0186789
0.171795
-0.0174296
-0.00902451
0.17797
0.0135567
0.175751
0.0125304
0.173402
0.0110347
0.170892
0.00912019
0.168148
0.00680712
0.165109
0.00419195
0.162053
0.00124844
0.158849
-0.00169964
0.155366
-0.00476852
0.151677
-0.00800934
0.147834
-0.0112135
0.143916
-0.0142199
0.140018
-0.0168346
0.136247
-0.0188381
0.132721
-0.0200112
0.129551
-0.0201551
0.126847
-0.0190995
0.124704
-0.0167442
0.123158
-0.0130592
0.122209
-0.00805577
0.12173
-0.00183914
0.12225
0.00554996
0.123456
0.0132312
0.125704
0.0209448
0.129121
0.028022
0.133624
0.033418
0.138849
0.0355676
0.144271
0.0328932
0.149288
0.0239651
0.153265
0.00720645
0.154755
-0.0177605
0.153486
-0.0475043
0.149795
-0.0769381
0.144921
-0.101211
0.140032
-0.117792
0.135876
-0.126089
0.132832
-0.12703
0.131031
-0.121857
0.13046
-0.112126
0.131044
-0.0986892
0.132738
-0.0826977
0.135422
-0.0644463
0.138791
-0.0454086
0.142365
-0.0264504
0.145827
-0.0101275
0.149096
0.00263523
0.152335
0.00995478
0.155628
0.0125201
0.158884
0.00975789
0.161895
0.00394255
0.164458
-0.00405153
0.16647
-0.011743
0.167971
-0.0184879
0.16907
-0.0227593
0.169889
-0.0254875
0.1706
-0.0248479
0.171208
-0.0245018
0.171966
-0.0194364
0.172633
-0.0180966
-0.0100265
0.195005
0.0149212
-0.19637
0.194146
0.0133893
0.193212
0.011969
0.192212
0.0101203
0.191108
0.00791101
0.189883
0.00541706
0.188375
0.00275666
0.186536
0.000138502
0.18468
-0.00291168
0.182511
-0.00584035
0.180029
-0.00873152
0.177235
-0.0114258
0.174137
-0.0137373
0.170774
-0.015475
0.167209
-0.0164465
0.163525
-0.016471
0.159819
-0.0153931
0.156187
-0.0131118
0.152718
-0.0095901
0.149533
-0.00487141
0.146747
0.000947224
0.144614
0.00768243
0.143231
0.0146147
0.142917
0.0212589
0.144003
0.0269357
0.146759
0.0306615
0.151235
0.0310919
0.157204
0.0269239
0.16419
0.0169796
0.171216
0.000179998
0.176825
-0.0233692
0.179758
-0.0504371
0.179606
-0.0767865
0.176829
-0.0984336
0.17227
-0.113233
0.166819
-0.120638
0.161242
-0.121453
0.156095
-0.11671
0.151728
-0.107759
0.148342
-0.0953027
0.146065
-0.0804206
0.144973
-0.0633545
0.14501
-0.0454452
0.14594
-0.0273806
0.147492
-0.0116799
0.149434
0.00069314
0.151674
0.00771505
0.154096
0.0100984
0.156463
0.00739064
0.158491
0.0019139
0.159969
-0.00552905
0.160802
-0.0125756
0.16105
-0.0187368
0.160847
-0.0225558
0.160339
-0.0249791
0.159718
-0.0242269
0.159021
-0.0238055
0.158488
-0.0189028
0.157934
-0.0175427
-0.00978655
0.207471
0.0153013
-0.207851
0.207062
0.0137983
0.206717
0.0123142
0.20621
0.0106273
0.205468
0.00865235
0.204456
0.00642962
0.203155
0.00405772
0.201764
0.00152961
0.199985
-0.00113303
0.197919
-0.00377441
0.195541
-0.006354
0.192856
-0.00874057
0.189896
-0.0107765
0.186713