/*--------------------------------*- C++ -*----------------------------------*\
| =========                 |                                                 |
| \\      /  F ield         | OpenFOAM: The Open Source CFD Toolbox           |
|  \\    /   O peration     | Version:  2512                                  |
|   \\  /    A nd           | Website:  www.openfoam.com                      |
|    \\/     M anipulation  |                                                 |
\*---------------------------------------------------------------------------*/
FoamFile
{
    version     2.0;
    format      ascii;
    arch        "LSB;label=32;scalar=64";
    class       volVectorField;
    location    "5.25";
    object      U;
}
// * * * * * * * * * * * * * * * * * * * * * * * * * * * * * * * * * * * * * //

dimensions      [0 1 -1 0 0 0 0];

internalField   nonuniform List<vector> 
13248
(
(-0.0159636 0.0145964 9.24549e-20)
(-0.0294522 0.0328304 0)
(-0.0222245 0.0445863 -1.73389e-19)
(0.00593491 0.0508391 1.63322e-19)
(0.0550412 0.0524365 1.52196e-19)
(0.124834 0.0501463 0)
(0.214499 0.0446472 0)
(0.32234 0.0365457 3.70326e-19)
(0.445402 0.0263672 5.69157e-22)
(0.579225 0.0145355 -3.27541e-19)
(0.717884 0.00138162 3.08772e-19)
(0.854423 -0.0128179 -1.93624e-19)
(0.981635 -0.027786 0)
(1.09305 -0.0431951 -3.31355e-19)
(1.18386 -0.0586407 6.13513e-19)
(1.25163 -0.0736524 -1.48015e-19)
(1.29647 -0.0877426 -2.43782e-19)
(1.32075 -0.100479 2.28905e-19)
(1.32833 -0.111519 0)
(1.32356 -0.120784 0)
(1.31066 -0.127833 0)
(1.29229 -0.13443 0)
(1.27194 -0.135568 5.28367e-20)
(1.24687 -0.148068 1.69611e-19)
(-0.0154818 0.0124681 -2.79061e-19)
(-0.0219654 0.0242115 1.8954e-19)
(-0.00301118 0.0294927 -2.21256e-21)
(0.0408942 0.030351 -2.49665e-19)
(0.10929 0.0282517 -1.52032e-19)
(0.201137 0.0242941 -1.44153e-19)
(0.3142 0.0192506 -2.65246e-19)
(0.444599 0.0136266 2.50995e-19)
(0.586616 0.00767897 0)
(0.732941 0.00143061 6.17631e-22)
(0.875393 -0.00527322 5.92351e-22)
(1.006 -0.0126632 1.90926e-19)
(1.11813 -0.0209254 0)
(1.20745 -0.0300989 0)
(1.2724 -0.0400267 2.15768e-19)
(1.3141 -0.050373 -4.05797e-19)
(1.33575 -0.0606945 2.29721e-19)
(1.34172 -0.0705311 -2.1571e-19)
(1.33651 -0.0794859 -8.97525e-20)
(1.3241 -0.0872591 -1.55153e-19)
(1.30746 -0.0936143 -5.70819e-20)
(1.2887 -0.0987043 -1.05163e-19)
(1.26906 -0.100704 1.64399e-19)
(1.24876 -0.107281 4.37064e-20)
(-0.0136902 0.0101296 0)
(-0.00975824 0.0160463 0)
(0.0253 0.0164786 8.83147e-20)
(0.0896986 0.013983 8.10635e-20)
(0.181711 0.0104009 -2.08944e-21)
(0.298487 0.00703416 -1.49881e-19)
(0.435212 0.00459324 0)
(0.584859 0.00326072 -1.25155e-19)
(0.738614 0.00276401 1.18116e-19)
(0.886935 0.0024926 2.45891e-22)
(1.02097 0.00168479 -2.02513e-19)
(1.13392 -0.000353038 -1.84453e-19)
(1.22194 -0.00406107 4.89626e-21)
(1.28439 -0.00952997 -1.46984e-19)
(1.32343 -0.0165144 3.58293e-19)
(1.34308 -0.0245342 0)
(1.34811 -0.0330125 -2.17818e-19)
(1.3431 -0.0414005 1.07697e-19)
(1.33179 -0.0492436 8.96868e-20)
(1.31686 -0.0562472 0)
(1.30014 -0.0620986 6.82924e-20)
(1.28253 -0.0671103 -2.22415e-19)
(1.26496 -0.0698078 2.08793e-19)
(1.24667 -0.0765355 1.19639e-19)
(-0.0098631 0.00724134 -9.89331e-20)
(0.00855069 0.00770338 -1.02319e-19)
(0.063994 0.00488802 9.21215e-20)
(0.152808 0.00126358 0)
(0.271056 -0.00131797 0)
(0.412946 -0.00165628 -3.92786e-21)
(0.570099 0.000552583 0)
(0.732039 0.00481397 -3.83859e-19)
(0.887596 0.0100639 3.56319e-19)
(1.02677 0.0149893 -4.39708e-19)
(1.14235 0.0183822 1.00821e-19)
(1.23084 0.0194244 0)
(1.2924 0.0178224 1.63259e-19)
(1.33012 0.0137765 -3.00249e-19)
(1.34871 0.00782911 7.18471e-20)
(1.35334 0.000670052 1.75207e-19)
(1.3486 -0.00702959 -1.23401e-20)
(1.33809 -0.0147149 -1.9046e-19)
(1.32431 -0.0219831 0)
(1.30887 -0.0285601 0)
(1.29271 -0.0342705 -6.25023e-20)
(1.27638 -0.0391804 5.45275e-20)
(1.26027 -0.0423892 1.85779e-19)
(1.24404 -0.0487058 -1.74484e-19)
(-0.00346569 0.00383914 -1.04678e-19)
(0.0339604 -0.000697881 -1.04157e-19)
(0.113737 -0.00505235 2.92745e-19)
(0.229702 -0.0074254 -1.7741e-19)
(0.374677 -0.00642995 1.66974e-19)
(0.538907 -0.00144507 3.02975e-19)
(0.710066 0.00695039 -2.1439e-19)
(0.874948 0.0172469 -2.60048e-19)
(1.02188 0.0275274 6.08321e-21)
(1.14277 0.0360169 3.31441e-19)
(1.2341 0.0414977 0)
(1.29663 0.0434849 8.92314e-20)
(1.33426 0.0421619 0)
(1.35243 0.0381584 -1.41821e-19)
(1.35676 0.0322885 1.9932e-19)
(1.35206 0.0253419 2.31834e-21)
(1.34196 0.0179666 -5.00872e-20)
(1.32889 0.0106359 9.23738e-20)
(1.31437 0.00366872 7.78686e-20)
(1.29927 -0.00273564 -6.83886e-20)
(1.28407 -0.00845775 6.24868e-20)
(1.26901 -0.0134989 -5.4513e-20)
(1.25428 -0.0174696 0)
(1.23955 -0.0234964 -3.97402e-20)
(0.0058895 0.000214867 1.04663e-19)
(0.0670636 -0.0083926 1.10085e-19)
(0.174539 -0.0122541 -9.81877e-20)
(0.318892 -0.0108444 1.83305e-19)
(0.48871 -0.00384423 -1.72514e-19)
(0.669738 0.00818139 1.5578e-19)
(0.846298 0.0233215 -7.49364e-20)
(1.00431 0.0389549 1.95174e-19)
(1.13406 0.0526037 -1.22597e-19)
(1.23141 0.0625531 2.1416e-19)
(1.29741 0.0680891 -4.9176e-19)
(1.33667 0.0693862 1.79305e-19)
(1.35542 0.0671938 -1.54101e-19)
(1.35991 0.062488 1.4476e-19)
(1.35532 0.0562077 1.21739e-19)
(1.34547 0.0491151 1.04473e-19)
(1.33284 0.041762 -2.89638e-19)
(1.31892 0.0345174 1.78809e-19)
(1.30451 0.0276147 -7.78714e-20)
(1.29004 0.0211965 1.9788e-19)
(1.27572 0.0153431 -6.41734e-20)
(1.26165 0.0100907 -1.49275e-19)
(1.24791 0.00560495 1.36835e-19)
(1.23431 -0.000144043 3.97296e-20)
(0.0184467 -0.0031378 0)
(0.108007 -0.0141548 1.11009e-21)
(0.245614 -0.015107 2.06533e-19)
(0.417784 -0.00737957 -1.93545e-19)
(0.608188 0.00755383 -1.744e-19)
(0.798407 0.0273573 3.23701e-19)
(0.97115 0.0486135 -1.50128e-19)
(1.114 0.067906 1.98243e-19)
(1.22135 0.082802 -5.21178e-21)
(1.29398 0.092231 -1.11354e-19)
(1.33705 0.0963262 2.39208e-19)
(1.35765 0.0959853 -3.51355e-19)
(1.36284 0.0924009 0)
(1.35842 0.086716 -6.72007e-20)
(1.34859 0.079848 -1.76766e-19)
(1.33603 0.0724498 5.58003e-20)
(1.32227 0.0649492 2.86996e-21)
(1.30814 0.0576121 -1.15653e-19)
(1.29404 0.0506002 9.69519e-21)
(1.28016 0.0440112 1.32685e-19)
(1.26658 0.0379037 -5.74067e-20)
(1.25334 0.032322 -2.07024e-20)
(1.24046 0.0272409 6.62067e-20)
(1.22779 0.0215728 0)
(0.0342711 -0.00567095 0)
(0.156377 -0.0166394 5.60652e-20)
(0.325251 -0.0119335 -2.69644e-19)
(0.52269 0.00439361 9.80987e-20)
(0.727452 0.0283501 -9.23213e-20)
(0.918399 0.0555126 -8.39914e-20)
(1.07917 0.0812418 -1.47358e-19)
(1.20139 0.102007 7.41668e-20)
(1.28472 0.1161 6.38795e-20)
(1.33449 0.123492 0)
(1.35872 0.125233 1.41312e-19)
(1.36551 0.122798 -2.08211e-19)
(1.36158 0.117618 1.54696e-19)
(1.35173 0.110836 6.72379e-20)
(1.33901 0.103254 -5.37197e-20)
(1.32515 0.0953857 -4.36973e-20)
(1.31103 0.0875436 -4.02494e-20)
(1.29705 0.0799131 1.22894e-19)
(1.28338 0.072607 0)
(1.27008 0.0656967 5.91831e-20)
(1.25717 0.0592317 4.80393e-20)
(1.24464 0.0532399 -1.21258e-19)
(1.23246 0.0476433 -8.00803e-20)
(1.22054 0.0420128 7.42078e-20)
(0.0532768 -0.00681062 -6.04425e-20)
(0.211183 -0.0145247 -2.29332e-21)
(0.410857 -0.00130541 5.49358e-20)
(0.629156 0.0253345 1.53478e-19)
(0.84091 0.0583684 4.42456e-20)
(1.02464 0.0914412 -8.56658e-20)
(1.16755 0.119416 7.81172e-20)
(1.26679 0.13946 -6.78882e-20)
(1.32722 0.1511 1.20492e-19)
(1.35764 0.155471 5.05373e-20)
(1.36745 0.1544 -1.43592e-19)
(1.3646 0.149717 4.18911e-20)
(1.35485 0.142895 7.0462e-20)
(1.34184 0.134963 -3.48242e-20)
(1.32762 0.126568 0)
(1.3132 0.118091 5.03757e-20)
(1.29904 0.109747 8.37739e-20)
(1.28531 0.101663 1.32798e-20)
(1.27205 0.0939162 -6.89517e-20)
(1.25927 0.0865599 2.83278e-20)
(1.24695 0.07963 0)
(1.23504 0.0731307 -2.16161e-20)
(1.22353 0.0669916 -1.99578e-20)
(1.21229 0.0611974 0)
(0.0751349 -0.00598914 0)
(0.270821 -0.00666884 3.1657e-20)
(0.499131 0.0177366 5.86944e-20)
(0.732491 0.0555851 -1.56372e-19)
(0.943791 0.0967354 5.05156e-20)
(1.11398 0.13358 0)
(1.23578 0.161447 7.45909e-20)
(1.31227 0.178892 -1.03948e-19)
(1.35262 0.186918 -6.00701e-20)
(1.36766 0.187724 2.69908e-20)
(1.36701 0.183673 -4.2295e-20)
(1.35776 0.176721 1.03173e-19)
(1.34448 0.168242 5.07776e-20)
(1.32974 0.159093 -3.5765e-20)
(1.31482 0.149763 -3.81673e-21)
(1.30026 0.140518 -9.45357e-20)
(1.28627 0.131504 4.28185e-20)
(1.27288 0.122805 -9.91067e-22)
(1.26008 0.114477 0)
(1.24783 0.106558 -2.8357e-20)
(1.23608 0.0990695 0)
(1.22478 0.0919992 6.21739e-20)
(1.21387 0.0853412 -7.33625e-20)
(1.20324 0.0792667 3.31829e-20)
(0.0992561 -0.00269271 -1.64476e-20)
(0.333148 0.0077749 -7.9849e-20)
(0.586373 0.0455754 9.07778e-20)
(0.828309 0.0945961 5.3221e-20)
(1.03257 0.14209 -2.55151e-20)
(1.185 0.180276 4.2241e-20)
(1.28482 0.205892 -2.06222e-20)
(1.34053 0.219322 3.38372e-20)
(1.36428 0.22303 0)
(1.36771 0.220044 7.53197e-20)
(1.35981 0.213005 -3.41031e-21)
(1.34652 0.203813 -6.01961e-20)
(1.33122 0.19366 2.55215e-20)
(1.31564 0.183214 -2.84528e-20)
(1.3005 0.172825 -1.05636e-20)
(1.28605 0.162672 1.24353e-20)
(1.27235 0.152847 -9.45285e-21)
(1.25936 0.143406 -5.04374e-20)
(1.24704 0.134385 3.08747e-20)
(1.23532 0.125808 6.22916e-21)
(1.22413 0.117678 5.41826e-21)
(1.21343 0.109978 4.71113e-21)
(1.20313 0.102783 0)
(1.19309 0.0962384 0)
(0.124882 0.0035072 1.64589e-20)
(0.395772 0.0292955 -1.65105e-20)
(0.668992 0.0820037 -3.02353e-20)
(0.913048 0.141265 0)
(1.10508 0.192833 -1.26307e-20)
(1.23756 0.229991 -1.12685e-20)
(1.31626 0.251622 -1.91383e-20)
(1.354 0.260091 0)
(1.36465 0.259132 0)
(1.35969 0.252318 0)
(1.34702 0.242341 0)
(1.33133 0.230927 0)
(1.31503 0.219051 -1.60231e-20)
(1.29917 0.207206 7.28721e-21)
(1.28414 0.19563 1.25028e-20)
(1.27 0.184432 5.80523e-21)
(1.25672 0.173667 1.42321e-20)
(1.24423 0.163367 0)
(1.23247 0.153554 -3.32563e-21)
(1.22134 0.144236 -3.11672e-21)
(1.21078 0.135398 -5.42682e-21)
(1.20072 0.127039 -4.7186e-21)
(1.19105 0.119311 0)
(1.18166 0.112172 3.28371e-21)
(-0.00755009 0.00279145 8.69881e-21)
(-0.033746 0.00545696 -9.22781e-21)
(-0.0774669 0.00614861 -1.77384e-20)
(-0.127378 0.00578723 0)
(-0.177973 0.00486492 -2.46166e-20)
(-0.22715 0.00364498 7.76139e-21)
(-0.273687 0.00227383 -1.52746e-20)
(-0.316741 0.000821175 0)
(-0.355649 -0.000688896 0)
(-0.389778 -0.00225375 0)
(-0.418465 -0.0038784 0)
(-0.441016 -0.00556926 0)
(-0.456724 -0.0073315 -1.80281e-22)
(-0.464882 -0.0091668 -1.07869e-20)
(-0.464805 -0.0110683 1.97939e-20)
(-0.455909 -0.0130109 2.6303e-20)
(-0.437881 -0.0149524 7.70201e-21)
(-0.410574 -0.0168837 0)
(-0.373978 -0.0187703 5.17356e-21)
(-0.328348 -0.020552 -1.40746e-20)
(-0.274252 -0.0221464 -7.20779e-21)
(-0.212505 -0.0234192 -5.366e-21)
(-0.144018 -0.0240836 0)
(-0.0704854 -0.0234234 0)
(-0.00903273 0.0234418 -2.64415e-20)
(-0.0355771 0.0495568 4.61433e-20)
(-0.0774877 0.0625431 -1.7578e-20)
(-0.124767 0.067718 -3.45352e-20)
(-0.172426 0.0682309 4.88844e-20)
(-0.218483 0.065947 -3.21534e-20)
(-0.261727 0.0618964 4.55171e-20)
(-0.301293 0.0565353 3.00289e-20)
(-0.336496 0.0499859 0)
(-0.366694 0.0422168 -2.76252e-20)
(-0.391232 0.0331517 -7.24873e-22)
(-0.409442 0.0227227 2.4314e-20)
(-0.420657 0.0108982 3.56132e-20)
(-0.424217 -0.0022934 4.31403e-20)
(-0.419481 -0.0167416 -2.10838e-20)
(-0.405884 -0.0322838 -5.45757e-20)
(-0.383309 -0.048742 1.4924e-20)
(-0.351691 -0.0657189 -5.73353e-20)
(-0.311081 -0.0827118 0)
(-0.261874 -0.0991867 9.20514e-21)
(-0.204818 -0.114564 7.19683e-21)
(-0.140932 -0.128201 5.3578e-21)
(-0.071186 -0.139166 0)
(0.00345587 -0.145281 0)
(-0.011758 0.0406375 0)
(-0.0385003 0.0875936 9.60127e-20)
(-0.0759672 0.112559 -3.62102e-20)
(-0.117006 0.123827 3.51375e-20)
(-0.157745 0.126533 -1.00678e-19)
(-0.196465 0.123885 0)
(-0.231995 0.117749 -6.3626e-20)
(-0.263439 0.109014 2.98594e-20)
(-0.29008 0.0979727 -5.96103e-20)
(-0.311278 0.0846204 2.96138e-20)
(-0.326421 0.0688523 1.64456e-19)
(-0.334921 0.050565 -7.72296e-20)
(-0.336207 0.0297127 -1.21226e-19)
(-0.329725 0.00634212 -4.56354e-20)
(-0.31502 -0.0193743 2.1809e-21)
(-0.291919 -0.0471109 1.51927e-19)
(-0.260244 -0.076553 -6.98095e-20)
(-0.219901 -0.106863 -2.46971e-21)
(-0.171326 -0.137145 0)
(-0.115211 -0.166382 -4.4622e-20)
(-0.0526137 -0.193454 0)
(0.015078 -0.217298 -1.81209e-20)
(0.086417 -0.236738 7.66543e-20)
(0.163235 -0.249518 -9.02288e-21)
(-0.0149967 0.0522746 0)
(-0.0418028 0.115514 1.45741e-21)
(-0.073086 0.15155 3.83314e-20)
(-0.105304 0.169547 -3.72753e-20)
(-0.136107 0.175549 3.26034e-20)
(-0.164211 0.173643 2.01186e-19)
(-0.188578 0.166391 -6.36331e-20)
(-0.208335 0.155156 -6.32789e-20)
(-0.222768 0.1405 1.20795e-19)
(-0.231274 0.122546 -1.75529e-19)
(-0.233331 0.101232 5.58209e-20)
(-0.228482 0.0764626 5.45524e-20)
(-0.216339 0.0481947 0)
(-0.196562 0.0164988 4.66629e-20)
(-0.168792 -0.018407 0)
(-0.133199 -0.0562635 8.35351e-20)
(-0.0898139 -0.0962229 -1.42233e-19)
(-0.0387642 -0.137279 4.0099e-20)
(0.0191933 -0.1782 1.1677e-19)
(0.0830725 -0.217458 4.4553e-20)
(0.1514 -0.253422 0)
(0.2225 -0.284481 -8.38994e-20)
(0.293183 -0.309322 2.68299e-20)
(0.370936 -0.326568 0)
(-0.0179089 0.0574564 0)
(-0.0446395 0.130997 -1.2252e-19)
(-0.0691581 0.176265 -3.97785e-20)
(-0.0913981 0.201189 -7.49164e-20)
(-0.110634 0.211534 7.05466e-20)
(-0.126176 0.211635 -6.7588e-20)
(-0.137276 0.204492 1.34194e-19)
(-0.143202 0.191896 6.69106e-20)
(-0.143323 0.174756 -1.83343e-19)
(-0.13713 0.153427 1.2133e-19)
(-0.124228 0.127982 -1.72488e-19)
(-0.104317 0.0983914 3.89633e-19)
(-0.0771743 0.0646448 -2.09397e-19)
(-0.0426715 0.0268272 1.00593e-19)
(-0.00095451 -0.0148812 2.783e-19)
(0.0479392 -0.0600146 -8.78078e-20)
(0.10391 -0.107529 -8.56705e-20)
(0.166137 -0.156303 -7.15594e-20)
(0.233513 -0.204715 0)
(0.304526 -0.250765 -9.78826e-20)
(0.37705 -0.292406 -6.89838e-20)
(0.449648 -0.327346 1.14521e-19)
(0.51626 -0.354528 9.50909e-20)
(0.59107 -0.372002 -9.24411e-20)
(-0.0198127 0.0565874 0)
(-0.0462711 0.133834 -1.70688e-19)
(-0.0645637 0.185378 -1.98703e-21)
(-0.0771866 0.216458 1.51658e-19)
(-0.0848044 0.23159 0)
(-0.0873892 0.234714 0)
(-0.0846354 0.22888 0)
(-0.076115 0.216157 -6.67083e-20)
(-0.0613927 0.197789 -3.50986e-21)
(-0.0401254 0.174414 1.19749e-19)
(-0.0120749 0.146307 -1.77853e-19)
(0.0229062 0.113551 -1.42592e-21)
(0.0648913 0.0761905 0)
(0.113861 0.0343476 -1.00487e-19)
(0.169648 -0.0117069 9.51647e-20)
(0.231959 -0.0612678 -2.66047e-19)
(0.300201 -0.113432 3.17598e-19)
(0.37321 -0.166741 6.17494e-20)
(0.449227 -0.2192 -1.8685e-20)
(0.526011 -0.26837 -2.29564e-19)
(0.600431 -0.311962 -9.38786e-20)
(0.671312 -0.346947 2.54552e-19)
(0.730349 -0.373612 -1.65658e-19)
(0.796206 -0.387038 0)
(-0.020392 0.0511271 8.57625e-20)
(-0.0462971 0.125875 8.58163e-20)
(-0.05969 0.179805 -8.25261e-20)
(-0.0643031 0.215013 -1.55829e-19)
(-0.0616991 0.234279 1.46715e-19)
(-0.0524442 0.240671 -1.42309e-19)
(-0.0367279 0.236908 2.01346e-19)
(-0.0145327 0.225092 -6.72766e-20)
(0.0142645 0.206662 1.23977e-19)
(0.0497899 0.182504 0)
(0.0921237 0.153092 1.1908e-19)
(0.141339 0.118624 -2.20495e-19)
(0.197486 0.079336 2.15098e-19)
(0.260501 0.0354181 -2.02004e-19)
(0.330115 -0.0127733 0)
(0.405718 -0.0645062 1.76235e-19)
(0.486113 -0.118572 3.18056e-19)
(0.569327 -0.173157 -2.98793e-19)
(0.652549 -0.225937 -1.2872e-19)
(0.732571 -0.274126 -1.02171e-19)
(0.805348 -0.315578 2.94609e-19)
(0.869764 -0.346711 7.00711e-20)
(0.917492 -0.370037 -7.60218e-20)
(0.96773 -0.376607 5.13103e-20)
(-0.0197754 0.0430951 -8.57739e-20)
(-0.0448044 0.110474 2.65898e-19)
(-0.0549029 0.162562 -8.40834e-20)
(-0.0537492 0.198801 1.57131e-19)
(-0.0432147 0.220308 -1.47934e-19)
(-0.0242538 0.22911 -1.40999e-21)
(0.00250999 0.227346 6.61319e-20)
(0.0366981 0.216888 2.59141e-19)
(0.0781324 0.199179 5.59209e-21)
(0.126762 0.175213 -1.17882e-19)
(0.182551 0.145584 0)
(0.245628 0.110783 -1.10733e-19)
(0.316117 0.0711005 2.08262e-19)
(0.393751 0.0267847 1.99422e-19)
(0.477904 -0.0215853 -9.49682e-20)
(0.567232 -0.0729866 -2.06397e-21)
(0.659398 -0.125851 -8.05198e-20)
(0.751072 -0.178033 1.41923e-19)
(0.83814 -0.227041 1.28671e-19)
(0.91653 -0.270069 -1.11733e-19)
(0.982042 -0.305492 9.35437e-20)
(1.03397 -0.329814 -7.84255e-20)
(1.06636 -0.34773 0)
(1.09609 -0.347038 -5.1325e-20)
(-0.0184619 0.0345071 8.79114e-20)
(-0.0423257 0.0915721 -8.91362e-20)
(-0.050452 0.138056 8.42581e-20)
(-0.0455722 0.17183 0)
(-0.0293628 0.19285 0)
(-0.0028921 0.202238 1.40021e-19)
(0.0329846 0.201494 -1.32528e-19)
(0.077657 0.192114 1.28037e-19)
(0.130785 0.175375 -6.05917e-19)
(0.192261 0.152254 -2.28154e-21)
(0.262188 0.12351 1.10029e-19)
(0.340568 0.0896657 0)
(0.427108 0.0510404 -2.04907e-19)
(0.521043 0.00823967 3.85869e-19)
(0.620643 -0.0378177 -2.73912e-19)
(0.723003 -0.0857794 -4.19525e-19)
(0.824079 -0.133804 9.7792e-21)
(0.919066 -0.179661 2.79338e-19)
(1.00306 -0.221041 0)
(1.07207 -0.255668 0)
(1.12317 -0.282638 -9.35555e-20)
(1.15708 -0.299285 7.84413e-20)
(1.1715 -0.311547 -2.41279e-19)
(1.18023 -0.305672 2.2615e-19)
(-0.017108 0.0269142 0)
(-0.0395526 0.0727054 0)
(-0.0462328 0.110964 -2.52913e-19)
(-0.0385952 0.139245 8.02062e-20)
(-0.0178121 0.15702 4.45324e-22)
(0.0152088 0.16484 1.38671e-19)
(0.0596644 0.163692 0)
(0.114978 0.154689 -1.23914e-19)
(0.180843 0.13889 1.20123e-19)
(0.257136 0.117186 -2.26187e-19)
(0.343691 0.0902921 -2.2001e-21)
(0.439978 0.0587394 2.08688e-19)
(0.544647 0.0231949 2.0641e-21)
(0.655272 -0.015482 1.8705e-19)
(0.76814 -0.0561354 -2.64569e-19)
(0.878389 -0.0972554 0)
(0.980531 -0.13704 2.89994e-19)
(1.06925 -0.173595 -4.08603e-19)
(1.14037 -0.20518 1.14454e-19)
(1.19162 -0.230447 0)
(1.2228 -0.249066 8.57828e-20)
(1.23675 -0.259662 2.83493e-19)
(1.2345 -0.267854 -2.66124e-19)
(1.22704 -0.260141 -2.46718e-19)
(-0.0162374 0.0211348 2.66903e-19)
(-0.0368602 0.0562458 -3.65062e-19)
(-0.0414205 0.0851274 1.62588e-21)
(-0.0302496 0.106057 8.04304e-20)
(-0.00392105 0.118648 -1.4875e-19)
(0.0370121 0.12326 -1.39183e-19)
(0.092011 0.120586 2.61467e-19)
(0.160649 0.111465 2.70701e-21)
(0.242548 0.0967361 -2.32555e-19)
(0.337119 0.0771504 4.4655e-19)
(0.443197 0.0533776 5.18103e-21)
(0.558626 0.0260772 -2.00262e-19)
(0.679966 -0.00398862 0)
(0.802483 -0.0358877 0)
(0.920462 -0.0684756 -8.57241e-20)
(1.02788 -0.100429 -1.50735e-19)
(1.1193 -0.130351 -2.74705e-19)
(1.19081 -0.15697 2.57899e-19)
(1.24074 -0.179241 -1.14544e-19)
(1.26974 -0.196704 1.8595e-19)
(1.2807 -0.209149 -1.00963e-19)
(1.27782 -0.216689 1.2163e-19)
(1.26438 -0.222563 -3.13492e-19)
(1.24828 -0.216161 5.13849e-20)
(-0.015975 0.0172107 8.98291e-20)
(-0.0338831 0.0430907 0)
(-0.0342482 0.0628275 1.71157e-19)
(-0.0167962 0.076015 -1.61222e-19)
(0.018379 0.0828136 1.48896e-19)
(0.0710656 0.0836999 0)
(0.140896 0.0792881 0)
(0.227251 0.0702535 -1.22888e-19)
(0.329005 0.057259 -1.54715e-21)
(0.444147 0.0409278 1.08103e-19)
(0.569428 0.0218398 -1.04001e-19)
(0.700211 0.000577413 1.96363e-19)
(0.830651 -0.0222198 0)
(0.954235 -0.0458159 3.44894e-19)
(1.06461 -0.0693762 -6.41223e-19)
(1.15654 -0.0920112 4.48875e-19)
(1.22675 -0.112859 2.5901e-19)
(1.27436 -0.131211 -2.43188e-19)
(1.30094 -0.146538 0)
(1.30978 -0.158823 0)
(1.30542 -0.167663 0)
(1.29177 -0.174545 0)
(1.27315 -0.178201 5.88475e-20)
(1.25341 -0.177232 -1.85632e-19)
(0.0145592 -0.0195669 -3.42226e-22)
(0.108314 -0.014378 3.60502e-22)
(0.200303 -0.00956073 1.87363e-23)
(0.289329 -0.00503573 0)
(0.373762 -0.000798945 1.43309e-21)
(0.452277 0.0030696 -2.8999e-21)
(0.524026 0.00650152 -2.96009e-23)
(0.588599 0.0094843 1.45267e-21)
(0.645929 0.0120483 0)
(0.696213 0.0142243 0)
(0.739749 0.0160449 6.99237e-23)
(0.777067 0.0176531 6.24964e-23)
(0.808839 0.0190337 9.05779e-22)
(0.835636 0.0202247 -8.2646e-22)
(0.858064 0.0212863 0)
(0.876816 0.022121 0)
(0.892525 0.0228188 -5.15731e-22)
(0.905708 0.0234005 4.45744e-23)
(0.91686 0.0239374 4.1731e-22)
(0.926392 0.0244704 2.3552e-23)
(0.934623 0.0250341 0)
(0.941793 0.0256546 0)
(0.948074 0.0263395 0)
(0.953599 0.0270818 0)
(0.958473 0.0278693 0)
(0.962782 0.0286927 0)
(0.966602 0.0295474 -6.67145e-23)
(0.969998 0.0304333 1.08538e-22)
(0.973026 0.031353 0)
(0.975734 0.0323112 0)
(0.978164 0.0333137 6.52812e-23)
(0.98035 0.0343668 -6.34471e-23)
(0.982323 0.0354772 -2.89341e-23)
(0.984108 0.0366517 0)
(0.985725 0.0378975 0)
(0.987195 0.039222 -4.67676e-23)
(0.988532 0.0406327 4.5461e-23)
(0.989751 0.0421378 0)
(0.990865 0.0437457 -3.91831e-23)
(0.991883 0.0454654 5.68751e-23)
(0.992816 0.0473067 -1.77473e-23)
(0.993673 0.0492802 0)
(0.994461 0.0513973 3.12341e-23)
(0.995188 0.0536706 -3.0372e-23)
(0.99586 0.0561134 0)
(0.996483 0.0587406 0)
(0.997063 0.0615676 1.2264e-23)
(0.997603 0.0646126 -3.53398e-23)
(0.998114 0.0678896 0)
(0.998589 0.0714349 0)
(0.999053 0.0752116 9.04247e-24)
(0.999473 0.0794233 2.17515e-26)
(0.999914 0.0835736 6.42519e-25)
(1.00029 0.0890361 -6.47275e-24)
(1.00072 0.0926781 0)
(1.00109 0.101081 0)
(1.00145 0.102366 0)
(1.00189 0.115094 0)
(1.00217 0.114769 0)
(1.0027 0.12936 0)
(0.0853841 -0.139121 -1.05655e-22)
(0.171268 -0.128088 8.18892e-22)
(0.254516 -0.116169 2.27127e-21)
(0.33539 -0.103214 -2.94823e-21)
(0.412304 -0.0894641 -7.22064e-23)
(0.48388 -0.0755841 0)
(0.549351 -0.0622247 5.72676e-21)
(0.608434 -0.0498189 -1.12344e-20)
(0.661115 -0.038552 5.50856e-21)
(0.707556 -0.0284901 -4.75983e-21)
(0.748145 -0.0196538 4.55649e-21)
(0.783249 -0.0119292 -3.76306e-21)
(0.813265 -0.00530887 3.66014e-21)
(0.838789 0.000277287 9.69831e-23)
(0.860284 0.00494737 2.64418e-21)
(0.878346 0.00898179 -2.56976e-21)
(0.893598 0.01233 2.06797e-21)
(0.906492 0.0148996 -1.95012e-21)
(0.917471 0.0169497 1.65499e-21)
(0.926884 0.018659 -3.05839e-21)
(0.935034 0.0201567 1.41127e-21)
(0.942156 0.0215295 7.56894e-23)
(0.948414 0.0228306 1.05333e-21)
(0.953933 0.0240855 -1.97691e-21)
(0.95881 0.0253036 9.26407e-22)
(0.96313 0.0264897 -5.08725e-23)
(0.966963 0.0276505 -7.45702e-22)
(0.970374 0.0287945 1.72997e-23)
(0.973418 0.0299323 1.25642e-21)
(0.976144 0.0310753 -1.15991e-21)
(0.978591 0.0322348 5.49639e-22)
(0.980796 0.033422 -6.23522e-23)
(0.982788 0.0346473 2.8993e-23)
(0.984592 0.0359207 -5.4303e-23)
(0.98623 0.0372521 0)
(0.98772 0.0386507 0)
(0.989079 0.0401261 1.76776e-22)
(0.990321 0.0416875 -1.29521e-22)
(0.991458 0.0433447 -1.17351e-22)
(0.992501 0.0451076 -1.44653e-23)
(0.99346 0.0469868 1.62173e-22)
(0.994343 0.0489935 -3.36455e-23)
(0.99516 0.0511398 0)
(0.995916 0.0534386 0)
(0.996619 0.055904 0)
(0.997275 0.0585508 0)
(0.997889 0.0613952 -5.01002e-23)
(0.998466 0.0644552 2.34347e-23)
(0.999014 0.0677454 0)
(0.99953 0.0713023 0)
(1.00003 0.0750885 0)
(1.0005 0.0793103 1.58395e-23)
(1.00098 0.0834645 -1.20233e-24)
(1.0014 0.0889409 1.36264e-23)
(1.00188 0.0925762 0)
(1.00229 0.101 0)
(1.00272 0.102275 -7.00825e-24)
(1.00318 0.115014 -1.66383e-23)
(1.00351 0.114695 0)
(1.0041 0.129292 0)
(0.236575 -0.242365 -7.66085e-21)
(0.307127 -0.22737 -8.25459e-21)
(0.37344 -0.209588 -3.6057e-21)
(0.438129 -0.189249 3.40064e-21)
(0.499752 -0.167121 7.26927e-23)
(0.556941 -0.144492 0)
(0.609132 -0.122521 1.07345e-20)
(0.656318 -0.101979 -1.05037e-20)
(0.698695 -0.083267 -8.13851e-23)
(0.73647 -0.0664882 -1.40237e-22)
(0.76989 -0.0516436 -1.29414e-22)
(0.799224 -0.0387696 -1.23426e-22)
(0.824777 -0.0277068 6.65856e-21)
(0.84692 -0.0182975 -6.56879e-21)
(0.866135 -0.0103885 0)
(0.882692 -0.00371742 -1.49798e-22)
(0.896671 0.00171436 4.11763e-21)
(0.90859 0.00628968 -4.06123e-21)
(0.918957 0.00994297 0)
(0.927981 0.0128315 0)
(0.935874 0.0152439 2.69419e-21)
(0.942823 0.0173589 -5.03506e-21)
(0.948969 0.0192733 4.39889e-21)
(0.954418 0.0210412 -2.01979e-22)
(0.959254 0.0226914 -3.55062e-21)
(0.963552 0.024243 3.33436e-21)
(0.967376 0.0257127 -2.90586e-21)
(0.970787 0.0271176 1.63146e-22)
(0.973836 0.0284757 1.29844e-21)
(0.97657 0.0298051 0)
(0.979029 0.0311228 0)
(0.981248 0.0324448 -3.66166e-22)
(0.983255 0.0337855 4.777e-22)
(0.985077 0.0351581 -9.31486e-26)
(0.986733 0.0365751 -4.0227e-22)
(0.988244 0.038048 3.90941e-22)
(0.989624 0.0395878 0)
(0.990888 0.0412055 -4.24853e-23)
(0.992048 0.0429117 -3.56338e-22)
(0.993115 0.0447176 6.81821e-22)
(0.994099 0.0466345 -2.90286e-22)
(0.99501 0.0486743 -3.38602e-23)
(0.995855 0.0508497 3.15583e-22)
(0.996641 0.0531741 -2.44694e-22)
(0.997375 0.0556619 -5.68728e-23)
(0.998063 0.0583285 -5.3543e-23)
(0.998712 0.0611903 5.02278e-23)
(0.999325 0.0642658 0)
(0.999911 0.0675696 0)
(1.00047 0.0711388 1.60656e-22)
(1.00101 0.0749352 -7.70659e-23)
(1.00152 0.0791682 6.84058e-23)
(1.00205 0.0833276 -9.25406e-23)
(1.00251 0.0888191 -1.06477e-22)
(1.00304 0.0924502 2.49709e-23)
(1.00348 0.100897 -3.97057e-23)
(1.00399 0.102164 3.17138e-23)
(1.00448 0.114919 -1.36625e-23)
(1.00485 0.114605 0)
(1.0055 0.129216 0)
(0.429194 -0.320843 -2.77506e-20)
(0.480188 -0.30498 1.47976e-20)
(0.52507 -0.283471 1.21991e-20)
(0.56899 -0.257512 6.26031e-23)
(0.611152 -0.228832 0)
(0.650278 -0.199409 0)
(0.685975 -0.170803 1.82784e-20)
(0.718407 -0.144003 9.64447e-22)
(0.747927 -0.119573 -2.70553e-20)
(0.774807 -0.0977319 3.97659e-22)
(0.799194 -0.0784485 8.36353e-21)
(0.821213 -0.0616168 6.90942e-21)
(0.841009 -0.0470572 -6.92907e-21)
(0.858744 -0.0345702 0)
(0.874563 -0.0239667 5.14558e-21)
(0.888564 -0.0152123 -4.70196e-21)
(0.901023 -0.00801994 0)
(0.911954 -0.00203503 0)
(0.92137 0.00292616 -3.24916e-21)
(0.929698 0.00702122 2.43232e-22)
(0.937155 0.0103367 2.7456e-21)
(0.943815 0.0131641 2.43516e-21)
(0.949761 0.0156742 -2.42885e-21)
(0.955074 0.0179473 1.99416e-21)
(0.95982 0.0200269 -1.76821e-22)
(0.96406 0.0219441 -1.70656e-21)
(0.967849 0.0237248 -1.88548e-22)
(0.97124 0.0253934 -2.79981e-26)
(0.97428 0.0269745 0)
(0.977013 0.0284926 -1.14941e-21)
(0.979478 0.0299704 1.18484e-21)
(0.981705 0.0314287 -6.32429e-23)
(0.983725 0.0328858 0)
(0.985561 0.0343585 5.50489e-23)
(0.987235 0.0358618 -8.11563e-22)
(0.988764 0.0374093 1.45393e-21)
(0.990164 0.039014 6.7659e-23)
(0.991449 0.0406881 -2.11194e-23)
(0.992632 0.0424435 -5.75786e-22)
(0.993723 0.0442923 -7.62246e-23)
(0.994733 0.0462468 5.68327e-22)
(0.99567 0.0483197 -4.84312e-22)
(0.996543 0.0505241 9.64378e-26)
(0.997358 0.052874 -2.38999e-22)
(0.998124 0.0553844 2.89424e-22)
(0.998845 0.0580709 3.73114e-22)
(0.999528 0.0609504 -1.04583e-22)
(1.00018 0.0640416 -1.85318e-22)
(1.0008 0.0673593 3.52423e-22)
(1.0014 0.0709415 -2.4914e-22)
(1.00198 0.0747488 7.05738e-23)
(1.00254 0.0789942 -7.80756e-23)
(1.00311 0.0831601 -6.68257e-23)
(1.00362 0.0886682 1.61596e-22)
(1.0042 0.0922976 -2.91817e-24)
(1.00468 0.100769 3.99557e-23)
(1.00525 0.102031 0)
(1.00577 0.114807 1.38646e-23)
(1.00618 0.114498 -1.9519e-23)
(1.00691 0.129133 0)
(0.62953 -0.369351 3.94196e-20)
(0.659093 -0.35593 -6.18593e-20)
(0.681507 -0.333888 2.25012e-20)
(0.703191 -0.30516 -2.31473e-22)
(0.7246 -0.272674 7.29218e-21)
(0.744908 -0.239113 4.54926e-21)
(0.763882 -0.206351 -1.12666e-20)
(0.78167 -0.175541 -1.52607e-20)
(0.798509 -0.147321 1.49645e-20)
(0.814624 -0.122025 0)
(0.830092 -0.0996988 1.43519e-20)
(0.844854 -0.0801905 -2.72576e-20)
(0.858844 -0.0632662 1.29561e-20)
(0.872023 -0.0486759 0)
(0.884358 -0.0361874 0)
(0.89578 -0.0256124 -1.48744e-22)
(0.906229 -0.0167578 8.05797e-21)
(0.915783 -0.00961519 -7.82827e-21)
(0.924423 -0.00375152 0)
(0.932046 0.00121929 -5.99977e-21)
(0.938876 0.00545314 1.08924e-20)
(0.945127 0.00898531 -9.83538e-21)
(0.950795 0.0120652 9.03412e-21)
(0.955908 0.0148259 -2.73387e-22)
(0.960513 0.0173255 -7.44201e-21)
(0.964658 0.0196039 3.5474e-21)
(0.968385 0.0216943 9.53446e-23)
(0.971736 0.0236269 1.27546e-21)
(0.974753 0.0254322 -6.70245e-23)
(0.977475 0.0271405 -1.22074e-21)
(0.979936 0.0287798 -6.88669e-23)
(0.982168 0.0303755 1.00358e-21)
(0.984196 0.03195 -1.91103e-21)
(0.986044 0.0335234 1.02086e-21)
(0.987732 0.0351134 0)
(0.989278 0.0367359 8.68424e-22)
(0.990697 0.0384057 -8.40476e-22)
(0.992003 0.0401364 5.96134e-22)
(0.993208 0.0419411 -7.44858e-22)
(0.994323 0.0438329 7.70852e-23)
(0.995357 0.045825 0)
(0.996321 0.0479307 6.87106e-23)
(0.997221 0.050164 -1.94495e-22)
(0.998067 0.0525394 0)
(0.998863 0.0550723 -5.69143e-22)
(0.999617 0.0577788 2.24039e-22)
(1.00033 0.060676 -1.01682e-22)
(1.00102 0.0637832 -9.52895e-23)
(1.00168 0.0671153 0)
(1.00232 0.0707109 0)
(1.00295 0.0745298 2.22227e-22)
(1.00355 0.0787887 -3.4451e-22)
(1.00416 0.0829623 1.91427e-22)
(1.00472 0.0884883 -6.09402e-23)
(1.00536 0.0921185 -1.0137e-22)
(1.00587 0.100616 -3.99938e-23)
(1.00651 0.101876 6.4209e-23)
(1.00706 0.114679 0)
(1.00752 0.114374 3.12907e-23)
(1.00832 0.129041 7.37888e-24)
(0.813455 -0.387985 4.99706e-20)
(0.822071 -0.378994 -4.96722e-20)
(0.824121 -0.359446 1.61128e-22)
(0.825274 -0.331382 -1.3382e-22)
(0.827232 -0.298565 -2.93811e-24)
(0.830111 -0.264087 5.03728e-23)
(0.833927 -0.229984 -7.30106e-23)
(0.83874 -0.197584 0)
(0.844547 -0.167649 1.56876e-22)
(0.851303 -0.140536 -1.73613e-22)
(0.858955 -0.116408 -1.79456e-22)
(0.867341 -0.0952368 2.0501e-22)
(0.876213 -0.076803 0)
(0.885331 -0.0608094 0)
(0.894477 -0.0469817 -1.49031e-22)
(0.90344 -0.0351234 0)
(0.912041 -0.0250737 1.24818e-22)
(0.920133 -0.0166959 0)
(0.927715 -0.00988636 6.24716e-21)
(0.934748 -0.00430824 -1.18905e-20)
(0.941053 0.00056326 1.07235e-20)
(0.946766 0.00481456 -5.09409e-21)
(0.952067 0.00846163 -4.32161e-21)
(0.956923 0.0116914 4.19674e-21)
(0.96134 0.0145968 3.69761e-21)
(0.965352 0.0172287 -3.58379e-21)
(0.968987 0.0196255 0)
(0.972277 0.0218213 -8.83671e-23)
(0.975255 0.0238511 0)
(0.977954 0.0257504 0)
(0.980404 0.0275523 -2.04765e-21)
(0.982634 0.0292865 2.12378e-21)
(0.984666 0.0309793 -1.20928e-22)
(0.986523 0.0326541 -1.12899e-22)
(0.988224 0.0343313 1.05773e-22)
(0.989785 0.0360292 7.8088e-22)
(0.991222 0.0377642 -7.58215e-22)
(0.992547 0.0395516 7.79147e-22)
(0.993773 0.0414058 -6.71428e-22)
(0.994911 0.0433407 -1.55892e-22)
(0.99597 0.0453703 5.8029e-22)
(0.99696 0.0475089 5.37421e-23)
(0.997889 0.0497709 -4.0085e-22)
(0.998763 0.0521717 0)
(0.999591 0.054727 2.32741e-22)
(1.00038 0.0574535 -3.21034e-22)
(1.00113 0.0603685 4.17916e-22)
(1.00185 0.063492 9.58965e-23)
(1.00255 0.0668387 0)
(1.00323 0.0704484 -7.83651e-23)
(1.0039 0.0742795 1.56584e-22)
(1.00454 0.0785527 -1.61223e-25)
(1.0052 0.0827352 6.26947e-23)
(1.00581 0.0882805 -1.0512e-22)
(1.0065 0.0919137 1.01809e-22)
(1.00705 0.100439 0)
(1.00776 0.101699 -6.42389e-23)