/*--------------------------------*- C++ -*----------------------------------*\
| =========                 |                                                 |
| \\      /  F ield         | OpenFOAM: The Open Source CFD Toolbox           |
|  \\    /   O peration     | Version:  2512                                  |
|   \\  /    A nd           | Website:  www.openfoam.com                      |
|    \\/     M anipulation  |                                                 |
\*---------------------------------------------------------------------------*/
FoamFile
{
    version     2.0;
    format      ascii;
    arch        "LSB;label=32;scalar=64";
    class       volScalarField;
    location    "180.5";
    object      p;
}
// * * * * * * * * * * * * * * * * * * * * * * * * * * * * * * * * * * * * * //

dimensions      [0 2 -2 0 0 0 0];

internalField   nonuniform List<scalar> 
13248
(
-0.369762
-0.368062
-0.365073
-0.361119
-0.35659
-0.35188
-0.347369
-0.34339
-0.34019
-0.337909
-0.336554
-0.335996
-0.335984
-0.336174
-0.336166
-0.335553
-0.333973
-0.331141
-0.326866
-0.321086
-0.313647
-0.30474
-0.293153
-0.279799
-0.378371
-0.375895
-0.372325
-0.36795
-0.363108
-0.358159
-0.353418
-0.349123
-0.345419
-0.342334
-0.339779
-0.337559
-0.335405
-0.33301
-0.330076
-0.326352
-0.321657
-0.315891
-0.309017
-0.301036
-0.291935
-0.281732
-0.270142
-0.258036
-0.389301
-0.385766
-0.381422
-0.376501
-0.371248
-0.365954
-0.360835
-0.356005
-0.351478
-0.34718
-0.342963
-0.338633
-0.333988
-0.328846
-0.323075
-0.3166
-0.309399
-0.301489
-0.292896
-0.283654
-0.273743
-0.263236
-0.251926
-0.240456
-0.402426
-0.397603
-0.392323
-0.38673
-0.380926
-0.375101
-0.369333
-0.363592
-0.357776
-0.351756
-0.345404
-0.338615
-0.331331
-0.323537
-0.315259
-0.306547
-0.297459
-0.288041
-0.278326
-0.268326
-0.258043
-0.247521
-0.236657
-0.226054
-0.417616
-0.411342
-0.405007
-0.398622
-0.39209
-0.385451
-0.378632
-0.371472
-0.363815
-0.355569
-0.346718
-0.337321
-0.327482
-0.317329
-0.306983
-0.29654
-0.286066
-0.275591
-0.265122
-0.254654
-0.244174
-0.233695
-0.223159
-0.212937
-0.434726
-0.426904
-0.419442
-0.412145
-0.404642
-0.396789
-0.388375
-0.379182
-0.369112
-0.358216
-0.346663
-0.334685
-0.322517
-0.310357
-0.298346
-0.286566
-0.275051
-0.263798
-0.252786
-0.241988
-0.231379
-0.220946
-0.210659
-0.200747
-0.453526
-0.444123
-0.43549
-0.427126
-0.418305
-0.408699
-0.398034
-0.38617
-0.373192
-0.359379
-0.345098
-0.330711
-0.316506
-0.302679
-0.289335
-0.27651
-0.264194
-0.25235
-0.240934
-0.2299
-0.219209
-0.208829
-0.19874
-0.189028
-0.473615
-0.462662
-0.452817
-0.443154
-0.432543
-0.420528
-0.406923
-0.391824
-0.375608
-0.358801
-0.34192
-0.325374
-0.309431
-0.294229
-0.279809
-0.266152
-0.253206
-0.240905
-0.229186
-0.217987
-0.207256
-0.196951
-0.187053
-0.177533
-0.494361
-0.481951
-0.470829
-0.459535
-0.446546
-0.431426
-0.414269
-0.395551
-0.375983
-0.356289
-0.337047
-0.318631
-0.301231
-0.284901
-0.269613
-0.255295
-0.241859
-0.229218
-0.217287
-0.205994
-0.195274
-0.185078
-0.175371
-0.166046
-0.51487
-0.50115
-0.488636
-0.475274
-0.459265
-0.440411
-0.419282
-0.396811
-0.373998
-0.35167
-0.330371
-0.31038
-0.29178
-0.274536
-0.258557
-0.243727
-0.229929
-0.217053
-0.205001
-0.193685
-0.18303
-0.172981
-0.163475
-0.15437
-0.534014
-0.519151
-0.50506
-0.489118
-0.469477
-0.446424
-0.421144
-0.395013
-0.369223
-0.344594
-0.321562
-0.300278
-0.280714
-0.262756
-0.246256
-0.231061
-0.217029
-0.204033
-0.191958
-0.180705
-0.170189
-0.160341
-0.151061
-0.142225
-0.550537
-0.534728
-0.518843
-0.499791
-0.475971
-0.4484
-0.418948
-0.389366
-0.360922
-0.334336
-0.309892
-0.287597
-0.267314
-0.248856
-0.232025
-0.216637
-0.202526
-0.189547
-0.177574
-0.166496
-0.156223
-0.146669
-0.137708
-0.129278
-0.347498
-0.348876
-0.34966
-0.350171
-0.350761
-0.351609
-0.352821
-0.354461
-0.356569
-0.359178
-0.36232
-0.366038
-0.370376
-0.375376
-0.381069
-0.387464
-0.394533
-0.4022
-0.410331
-0.418719
-0.427072
-0.435003
-0.442043
-0.44783
-0.350601
-0.351059
-0.351279
-0.351429
-0.351752
-0.352429
-0.353587
-0.355312
-0.357663
-0.360708
-0.364505
-0.369122
-0.374635
-0.38111
-0.388601
-0.397124
-0.406648
-0.417071
-0.428218
-0.439809
-0.45144
-0.462612
-0.472648
-0.48096
-0.353558
-0.353127
-0.352775
-0.352525
-0.352516
-0.352927
-0.353911
-0.355579
-0.357964
-0.361236
-0.365423
-0.370616
-0.376903
-0.384365
-0.393057
-0.402994
-0.414129
-0.426337
-0.43939
-0.452952
-0.466559
-0.479611
-0.491328
-0.500756
-0.355925
-0.354734
-0.35384
-0.353157
-0.352732
-0.35275
-0.353383
-0.354766
-0.357001
-0.360196
-0.364436
-0.369814
-0.376419
-0.384328
-0.393586
-0.404195
-0.416087
-0.429106
-0.442994
-0.457375
-0.471743
-0.485425
-0.497703
-0.506931
-0.357459
-0.355713
-0.354354
-0.353217
-0.352294
-0.35178
-0.351876
-0.352751
-0.35454
-0.35736
-0.361313
-0.366494
-0.372984
-0.380849
-0.390118
-0.40077
-0.412714
-0.425767
-0.439633
-0.453913
-0.468062
-0.481246
-0.493305
-0.501301
-0.358116
-0.356073
-0.354354
-0.352765
-0.35128
-0.350112
-0.3495
-0.349652
-0.350743
-0.352914
-0.356284
-0.36095
-0.366987
-0.374444
-0.383331
-0.393603
-0.405145
-0.417764
-0.43102
-0.444573
-0.45794
-0.46992
-0.480878
-0.486648
-0.358059
-0.355978
-0.354017
-0.351998
-0.34992
-0.348023
-0.346588
-0.345871
-0.34609
-0.347426
-0.350016
-0.353968
-0.359353
-0.366202
-0.374502
-0.38417
-0.395028
-0.406822
-0.419295
-0.431741
-0.44374
-0.453805
-0.462818
-0.465536
-0.357635
-0.35573
-0.35363
-0.351219
-0.348556
-0.34592
-0.343635
-0.342007
-0.341305
-0.341748
-0.343504
-0.346691
-0.351378
-0.357573
-0.365225
-0.374208
-0.384307
-0.395161
-0.406332
-0.41711
-0.42705
-0.434506
-0.440572
-0.439766
-0.35735
-0.355744
-0.353568
-0.350803
-0.347603
-0.344288
-0.341224
-0.338766
-0.337227
-0.336865
-0.337872
-0.340371
-0.344415
-0.349982
-0.356955
-0.365115
-0.374136
-0.383564
-0.392858
-0.401275
-0.408339
-0.412583
-0.414921
-0.410595
-0.357825
-0.356513
-0.354266
-0.351185
-0.347526
-0.343653
-0.339966
-0.336856
-0.334668
-0.333683
-0.334099
-0.336022
-0.339459
-0.344313
-0.350369
-0.357298
-0.36466
-0.371924
-0.378507
-0.383773
-0.387316
-0.388171
-0.386956
-0.379881
-0.359713
-0.358553
-0.356177
-0.352805
-0.348778
-0.344494
-0.340374
-0.336823
-0.334192
-0.332752
-0.332674
-0.334012
-0.336695
-0.340524
-0.345178
-0.350224
-0.355151
-0.359418
-0.362498
-0.363981
-0.363643
-0.361258
-0.357432
-0.349335
-0.363578
-0.362309
-0.359692
-0.356028
-0.351708
-0.347144
-0.342756
-0.33893
-0.335988
-0.334157
-0.33354
-0.334108
-0.335694
-0.338001
-0.340627
-0.343103
-0.344934
-0.345667
-0.344909
-0.342463
-0.338159
-0.332329
-0.325365
-0.317136
-0.453274
-0.454742
-0.449669
-0.437138
-0.416378
-0.387595
-0.3523
-0.313036
-0.273181
-0.236381
-0.205817
-0.183802
-0.171952
-0.171073
-0.180292
-0.195832
-0.210911
-0.217397
-0.210362
-0.189157
-0.159618
-0.129871
-0.105977
-0.0905226
-0.083451
-0.0834626
-0.0900675
-0.104794
-0.12797
-0.153189
-0.168142
-0.163603
-0.142467
-0.115038
-0.0909512
-0.0746859
-0.0657368
-0.0629395
-0.0679034
-0.0801495
-0.0918517
-0.093063
-0.084832
-0.0716887
-0.0603395
-0.0529175
-0.0509469
-0.0548312
-0.0602364
-0.0615057
-0.0557861
-0.0493425
-0.0420698
-0.0353716
-0.0322612
-0.030027
-0.0278615
-0.0262242
-0.0184731
-0.00396821
-0.489488
-0.492161
-0.48701
-0.473218
-0.449827
-0.41699
-0.376351
-0.330882
-0.284453
-0.241029
-0.203942
-0.175511
-0.157084
-0.149405
-0.15218
-0.162777
-0.175546
-0.182949
-0.179025
-0.163434
-0.140103
-0.116058
-0.0969301
-0.0854477
-0.0817703
-0.0847804
-0.0944247
-0.112608
-0.139303
-0.167175
-0.182775
-0.176466
-0.152247
-0.121496
-0.0943523
-0.0753922
-0.0640945
-0.0590099
-0.0613392
-0.0709095
-0.0810042
-0.0826223
-0.0757823
-0.0653335
-0.056974
-0.0520802
-0.0526223
-0.0591634
-0.0663729
-0.0682569
-0.0608982
-0.0526246
-0.0434199
-0.0347758
-0.0301585
-0.0262685
-0.0240983
-0.0225609
-0.016032
-0.00354765
-0.511401
-0.515196
-0.510038
-0.495484
-0.470438
-0.434883
-0.390531
-0.340566
-0.289108
-0.240411
-0.198031
-0.164249
-0.14022
-0.12645
-0.122917
-0.128121
-0.137811
-0.145435
-0.144443
-0.134721
-0.117702
-0.0995525
-0.0854452
-0.0781722
-0.0780119
-0.084036
-0.0965909
-0.117844
-0.147484
-0.17759
-0.194001
-0.186583
-0.159963
-0.126474
-0.0967389
-0.0754272
-0.0620203
-0.0548545
-0.0547011
-0.0616665
-0.0701647
-0.0719525
-0.0666156
-0.0587192
-0.0532322
-0.0508601
-0.0540057
-0.0633096
-0.0723852
-0.0748689
-0.0658052
-0.0556161
-0.0445521
-0.034106
-0.0281024
-0.0225849
-0.0203576
-0.0188724
-0.0135779
-0.00312739
-0.518269
-0.522729
-0.518033
-0.503528
-0.477915
-0.441119
-0.394924
-0.342588
-0.28831
-0.236437
-0.190516
-0.152748
-0.124164
-0.105149
-0.0957512
-0.095236
-0.100942
-0.107872
-0.110813
-0.104642
-0.0934284
-0.080993
-0.0718633
-0.0687551
-0.0719685
-0.080757
-0.0958044
-0.119537
-0.151569
-0.183702
-0.201265
-0.193534
-0.165367
-0.129841
-0.0980854
-0.0748656
-0.0596579
-0.0506724
-0.0482712
-0.0527808
-0.0596924
-0.0614446
-0.0575464
-0.0519732
-0.0491711
-0.0492336
-0.0549817
-0.0670962
-0.0780966
-0.0811934
-0.0704248
-0.0582765
-0.0454425
-0.0333588
-0.0261104
-0.0190091
-0.0166776
-0.0151959
-0.0111322
-0.00271229
-0.51179
-0.515665
-0.511614
-0.498068
-0.472962
-0.436398
-0.390398
-0.338122
-0.283562
-0.230865
-0.183393
-0.14321
-0.111243
-0.087828
-0.0731132
-0.066897
-0.0677847
-0.0723776
-0.0760011
-0.0742262
-0.0683002
-0.0610649
-0.0565631
-0.0572607
-0.0634833
-0.074633
-0.0916611
-0.11724
-0.151149
-0.18511
-0.204143
-0.197043
-0.168356
-0.131612
-0.0984654
-0.0738111
-0.0571483
-0.0466325
-0.0422654
-0.0445101
-0.0498832
-0.0514315
-0.0487835
-0.0452221
-0.0448352
-0.0471643
-0.0554358
-0.0703474
-0.0833047
-0.0870453
-0.0746646
-0.0605708
-0.0460778
-0.0325319
-0.0241955
-0.0155702
-0.0130934
-0.0115663
-0.00871465
-0.00230711
-0.494623
-0.496528
-0.493061
-0.480977
-0.457218
-0.422277
-0.378412
-0.328473
-0.276014
-0.224768
-0.177738
-0.136788
-0.102775
-0.0760054
-0.056698
-0.0450356
-0.0406152
-0.0415601
-0.0444773
-0.045339
-0.0434607
-0.0405922
-0.0400602
-0.0439832
-0.0527193
-0.0657705
-0.0842484
-0.111013
-0.146181
-0.181722
-0.202525
-0.197037
-0.168896
-0.131824
-0.0979573
-0.0723527
-0.0545898
-0.0428396
-0.0368189
-0.0370391
-0.0409627
-0.0421795
-0.040508
-0.0385897
-0.0402719
-0.0446336
-0.0552744
-0.0728862
-0.0877986
-0.0922461
-0.0784418
-0.0624747
-0.0464478
-0.0316193
-0.0223617
-0.0122935
-0.00963282
-0.00801534
-0.00634136
-0.00191639
-0.469432
-0.468278
-0.465175
-0.454757
-0.433005
-0.400963
-0.360941
-0.315224
-0.266771
-0.218789
-0.17385
-0.133583
-0.0988194
-0.0698903
-0.0470299
-0.0305992
-0.0208625
-0.0172371
-0.0177399
-0.0193899
-0.0199529
-0.020515
-0.0230878
-0.0295011
-0.0401361
-0.054559
-0.0739289
-0.101242
-0.13703
-0.173886
-0.196712
-0.193541
-0.16699
-0.130554
-0.096645
-0.0705617
-0.0520471
-0.0393494
-0.0319818
-0.0304429
-0.0330498
-0.0338756
-0.0328731
-0.0321982
-0.0355522
-0.0416501
-0.0544232
-0.0745605
-0.0913902
-0.096637
-0.0816795
-0.0639687
-0.0465488
-0.0306182
-0.0206027
-0.0091955
-0.00631824
-0.00457053
-0.00402422
-0.00154482
-0.438511
-0.433669
-0.430955
-0.422291
-0.403068
-0.375014
-0.340136
-0.299948
-0.256765
-0.213237
-0.171512
-0.133019
-0.0985851
-0.0686281
-0.0434144
-0.0233136
-0.00885262
-0.000327907
0.00291009
0.00267969
0.00111189
-0.00162216
-0.00631531
-0.0144244
-0.0262825
-0.041525
-0.0612979
-0.0886373
-0.124472
-0.162265
-0.187195
-0.186863
-0.162785
-0.127883
-0.0945924
-0.0684833
-0.0495564
-0.0361886
-0.0277725
-0.0247414
-0.0261725
-0.0266026
-0.0260011
-0.0261754
-0.0307596
-0.038254
-0.0528436
-0.0752599
-0.0939289
-0.100088
-0.084305
-0.0650426
-0.0463889
-0.0295374
-0.0189246
-0.00628537
-0.00316487
-0.00125626
-0.00177144
-0.00119751
-0.403837
-0.396
-0.39408
-0.387022
-0.370627
-0.347266
-0.318188
-0.284087
-0.246702
-0.208143
-0.170184
-0.134111
-0.100776
-0.0707125
-0.0442686
-0.0217862
-0.00375205
0.00920832
0.016764
0.0194824
0.018807
0.0155423
0.00978523
0.000761322
-0.0116614
-0.0272024
-0.0469921
-0.0740384
-0.109575
-0.147832
-0.174707
-0.17755
-0.156587
-0.124018
-0.0919912
-0.0662798
-0.0472473
-0.0334519
-0.0242422
-0.0199584
-0.0203372
-0.0203776
-0.0199648
-0.020632
-0.0259942
-0.0344943
-0.0505109
-0.074928
-0.0953232
-0.102497
-0.0862759
-0.0657155
-0.0460045
-0.0283994
-0.0173636
-0.00359233
-0.000181036
0.00190691
0.000412593
-0.000880149
-0.368645
-0.359827
-0.3589
-0.352841
-0.339252
-0.320697
-0.297317
-0.269147
-0.237449
-0.203826
-0.169717
-0.13631
-0.104504
-0.0749588
-0.0481255
-0.0243458
-0.00399301
0.0123556
0.0239683
0.0304645
0.0323382
0.0303103
0.0247295
0.015608
0.00318293
-0.0122626
-0.0318588
-0.058409
-0.0932272
-0.131535
-0.160106
-0.166083
-0.148867
-0.119427
-0.0892999
-0.0643451
-0.0454137
-0.0313446
-0.0214967
-0.0161084
-0.015532
-0.0152245
-0.0148241
-0.0156614
-0.0213186
-0.0304816
-0.0475094
-0.0735186
-0.0955137
-0.103787
-0.0875632
-0.0660364
-0.0454464
-0.0272195
-0.015922
-0.00117797
0.00261329
0.00490026
0.00252649
-0.000599689
-0.336952
-0.329707
-0.329105
-0.323117
-0.312077
-0.297912
-0.27967
-0.256988
-0.230674
-0.201825
-0.171554
-0.140925
-0.110873
-0.0821587
-0.055286
-0.0307232
-0.00887574
0.00982355
0.0248242
0.0353126
0.0410533
0.0415456
0.0375757
0.0295087
0.0178244
0.00293404
-0.0162325
-0.0423244
-0.0768108
-0.114957
-0.143923
-0.153024
-0.139514
-0.113892
-0.0863249
-0.0624976
-0.0438344
-0.0296505
-0.0193272
-0.0129512
-0.0114788
-0.0109664
-0.0106309
-0.0115039
-0.0168834
-0.0261917
-0.0437399
-0.0711545
-0.0945973
-0.103829
-0.0879844
-0.0659312
-0.0446355
-0.025932
-0.0144529
0.00100233
0.00518924
0.00768807
0.00457558
-0.000362588
-0.309629
-0.306734
-0.304469
-0.296973
-0.287313
-0.27605
-0.261633
-0.243477
-0.221895
-0.197524
-0.171153
-0.143639
-0.115833
-0.0885259
-0.0623753
-0.0379405
-0.015684
0.00400346
0.0207068
0.0340017
0.0436849
0.0478217
0.0467578
0.0407141
0.030534
0.0167023
-0.00165856
-0.0268128
-0.0599788
-0.0968493
-0.12542
-0.135514
-0.12631
-0.104999
-0.0805204
-0.0584486
-0.0406166
-0.0268677
-0.0166044
-0.00970371
-0.00753372
-0.00687541
-0.00679745
-0.00783411
-0.0128535
-0.0221264
-0.0396027
-0.0677014
-0.09234
-0.102711
-0.0872235
-0.0650348
-0.0432219
-0.024327
-0.0127312
0.00327006
0.00764483
0.0103023
0.00654134
-0.000182791
-0.283864
-0.292987
-0.288088
-0.278033
-0.26744
-0.256136
-0.242497
-0.225637
-0.205636
-0.183085
-0.158717
-0.133272
-0.107469
-0.0819756
-0.057372
-0.034149
-0.0127363
0.00651658
0.0232943
0.037259
0.0486918
0.0540502
0.0553397
0.0516872
0.0434503
0.0311283
0.0136624
-0.0119422
-0.0475429
-0.0874323
-0.117513
-0.127444
-0.116341
-0.0954907
-0.0725605
-0.0521703
-0.035661
-0.0228272
-0.013096
-0.00626475
-0.00380091
-0.00282799
-0.00251197
-0.00244205
-0.00727991
-0.0163605
-0.0340276
-0.0636682
-0.090494
-0.102655
-0.0866679
-0.0635755
-0.0413133
-0.0224847
-0.0109519
0.00566055
0.0101238
0.0129189
0.00842451
-7.78187e-05
-0.256885
-0.26952
-0.265451
-0.254465
-0.243171
-0.232146
-0.219667
-0.204497
-0.186533
-0.166318
-0.144519
-0.121735
-0.098516
-0.0753961
-0.0528827
-0.0314335
-0.011446
0.00675431
0.0228809
0.0365581
0.0464794
0.0546625
0.0578027
0.0560397
0.0497006
0.039081
0.022778
-0.0027541
-0.0389214
-0.0782576
-0.105866
-0.11291
-0.102297
-0.083692
-0.0636781
-0.0457265
-0.030899
-0.0191808
-0.0101234
-0.00348052
-0.000840529
0.000223938
0.000452165
0.000532426
-0.00349722
-0.0119855
-0.0293832
-0.0597552
-0.0876853
-0.100507
-0.0845668
-0.0611423
-0.0389628
-0.0203946
-0.0090701
0.00768886
0.0120521
0.0151931
0.0100038
2.97396e-05
-0.232194
-0.245047
-0.242293
-0.231964
-0.220928
-0.210526
-0.199292
-0.185856
-0.169929
-0.151942
-0.132481
-0.11205
-0.0910966
-0.0700669
-0.0494151
-0.0295665
-0.0109002
0.00625993
0.0216149
0.0348259
0.0452699
0.0533007
0.0572082
0.0565649
0.0514481
0.0419108
0.0263018
0.00134032
-0.0327524
-0.0677764
-0.0913082
-0.0968186
-0.0878129
-0.0721765
-0.0551783
-0.0395673
-0.0263254
-0.0156473
-0.00727576
-0.000901806
0.00184563
0.00300485
0.00316735
0.00326697
-0.00049905
-0.00874063
-0.0258688
-0.0559365
-0.0835031
-0.0966686
-0.0814025
-0.0581214
-0.0362933
-0.0181321
-0.00710383
0.00960127
0.0138809
0.0172819
0.0114345
0.000175565
-0.209907
-0.221619
-0.219954
-0.210909
-0.200631
-0.190889
-0.180679
-0.168717
-0.154586
-0.138581
-0.121212
-0.102926
-0.0840948
-0.0650836
-0.0462775
-0.0280566
-0.0107755
0.00525144
0.01973
0.0323367
0.0426061
0.0504076
0.0547328
0.0548991
0.050738
0.0421165
0.0274592
0.00432302
-0.0259067
-0.0558649
-0.0754467
-0.0803487
-0.0733917
-0.0607972
-0.0467451
-0.0334602
-0.0218202
-0.0121918
-0.00454812
0.00148442
0.00428702
0.00559202
0.00577203
0.00594984
0.00239097
-0.00571008
-0.022306
-0.0512597
-0.0780539
-0.091589
-0.0772257
-0.0545152
-0.0332892
-0.0156961
-0.00503014
0.0113864
0.0156191
0.0191989
0.0127895
0.000357706
-0.188839
-0.199619
-0.198781
-0.191018
-0.181691
-0.172702
-0.163448
-0.152826
-0.140355
-0.126204
-0.110793
-0.0945126
-0.0776769
-0.0605849
-0.0435604
-0.0269418
-0.0110614
0.00377434
0.0172772
0.0291422
0.0389588
0.0464544
0.0509268
0.0516692
0.0483647
0.0407829
0.0276807
0.00745514
-0.0182361
-0.0432037
-0.0594797
-0.0641847
-0.0594929
-0.0499208
-0.0386693
-0.027588
-0.017492
-0.00887381
-0.00195584
0.00368431
0.00649016
0.00796148
0.0082192
0.00854659
0.00528478
-0.00246063
-0.0180417
-0.0455275
-0.0714591
-0.0851188
-0.0719548
-0.0502932
-0.0299715
-0.0131102
-0.00286464
0.0130212
0.0172184
0.0209211
0.0140713
0.000571802
-0.169311
-0.179259
-0.178938
-0.172289
-0.163984
-0.155859
-0.147565
-0.138187
-0.127241
-0.114799
-0.101193
-0.0867621
-0.0717787
-0.0564929
-0.0411774
-0.0261293
-0.0116539
0.00196061
0.0144363
0.0254739
0.0347053
0.0418163
0.0462667
0.0474315
0.0449425
0.0385293
0.0273404
0.0104617
-0.0105307
-0.0307921
-0.044424
-0.0492847
-0.0467529
-0.0398908
-0.0311162
-0.022026
-0.0133841
-0.0057284
0.000489087
0.00570291
0.00846228
0.0100969
0.010512
0.0109904
0.0081731
0.00103702
-0.0131824
-0.0389451
-0.0637059
-0.0772665
-0.0656128
-0.0454762
-0.0263798
-0.0104082
-0.000624711
0.0144853
0.0186541
0.0224067
0.015241
0.000822143
-0.151554
-0.160446
-0.160437
-0.154785
-0.147509
-0.140295
-0.132949
-0.124719
-0.115156
-0.104271
-0.0923214
-0.0795964
-0.0663335
-0.0527446
-0.0390592
-0.025534
-0.0124427
-5.32873e-05
0.0113661
0.021528
0.0301042
0.0367813
0.0411222
0.0426108
0.0408856
0.0356817
0.0265083
0.0129687
-0.00364063
-0.0198289
-0.0313181
-0.0363497
-0.0355422
-0.030894
-0.0242054
-0.0168524
-0.00954543
-0.00279417
0.00277
0.0075455
0.0102239
0.0120067
0.012663
0.0133008
0.0110294
0.00464891
-0.00799151
-0.031639
-0.0548973
-0.0681989
-0.0583002
-0.0401201
-0.0225664
-0.00763242
0.00166705
0.0157634
0.0199048
0.0236146
0.0162623
0.00112154
-0.135147
-0.14305
-0.143308
-0.138557
-0.132254
-0.12593
-0.119492
-0.11232
-0.104011
-0.094541
-0.0841088
-0.0729556
-0.0612869
-0.0492833
-0.0371381
-0.0250712
-0.0133256
-0.00214843
0.00820819
0.0174819
0.0253702
0.0315836
0.0357626
0.0374927
0.0364571
0.0324373
0.0252034
0.0146433
0.00173458
-0.0110735
-0.0206886
-0.0256189
-0.0259852
-0.023017
-0.0180113
-0.0121243
-0.00600997
-9.91402e-05
0.00487025
0.00921818
0.0117986
0.0137054
0.0146735
0.0155048
0.0138358
0.00831449
-0.00255346
-0.023744
-0.0452927
-0.0581862
-0.0502025
-0.034324
-0.0185961
-0.00483069
0.0039829
0.0168519
0.0206589
0.0245148
0.0171215
0.00148944
-0.119986
-0.127088
-0.127563
-0.123595
-0.118174
-0.112685
-0.107099
-0.100901
-0.09373
-0.0855432
-0.076494
-0.0667821
-0.0565829
-0.0460505
-0.0353485
-0.0246648
-0.0142124
-0.00421414
0.00509757
0.0134734
0.0206805
0.0264212
0.0304073
0.0323133
0.0318823
0.0289464
0.0234186
0.0153246
0.00542185
-0.00456813
-0.0124544
-0.0170004
-0.018037
-0.0162594
-0.0125625
-0.00787848
-0.00280182
0.00233675
0.00677139
0.0107241
0.013204
0.0152064
0.0165283
0.0176351
0.0166254
0.0120874
0.00308434
-0.0155292
-0.0352606
-0.0476047
-0.0415936
-0.0282339
-0.0145433
-0.0020512
0.00628814
0.0177893
0.0214101
0.025114
0.0178276
0.00195177
-0.106206
-0.112524
-0.113126
-0.109831
-0.105208
-0.10049
-0.0956923
-0.0903823
-0.0842416
-0.0772144
-0.069419
-0.0610206
-0.0521681
-0.0429926
-0.0336322
-0.0242467
-0.0150206
-0.00615112
0.00215558
0.00967717
0.0161974
0.021466
0.025241
0.0272668
0.0273425
0.0253407
0.0212474
0.0151654
0.00769327
4.0247e-05
-0.00627403
-0.0102413
-0.0115584
-0.0105671
-0.00785424
-0.00413487
6.37117e-05
0.00450317
0.00845553
0.0120595
0.0144503
0.0165245
0.0181996
0.0197033
0.0194532
0.016024
0.00877371
-0.00739775
-0.0252901
-0.0369219
-0.0328055
-0.0220347
-0.0104885
0.000661621
0.00853753
0.018629
0.0220372
0.0254368
0.0184114
0.00254114
-0.0936815
-0.0992259
-0.0999079
-0.0972053
-0.0933026
-0.089288
-0.0852065
-0.0806988
-0.0754833
-0.0694977
-0.0628322
-0.0556233
-0.0479965
-0.0400629
-0.0319386
-0.0237581
-0.0156791
-0.00787395
-0.000523925
0.00617717
0.012041
0.0168503
0.0204038
0.0225005
0.0229863
0.0217683
0.0188727
0.0144336
0.00892031
0.00317326
-0.00175144
-0.00504691
-0.00637274
-0.00585698
-0.00385807
-0.000896009
0.00257788
0.00639849
0.00991253
0.013211
0.0155373
0.0176705
0.0196497
0.0216427
0.0222864
0.0200455
0.0142388
0.000152391
-0.0159126
-0.0266242
-0.0242039
-0.0159389
-0.00651566
0.00326815
0.0106739
0.0194388
0.0226992
0.0255398
0.0189244
0.00329102
-0.0822262
-0.0871101
-0.087861
-0.0856734
-0.0824067
-0.0790209
-0.0755815
-0.0717902
-0.0673989
-0.0623422
-0.056688
-0.0505481
-0.0440282
-0.0372216
-0.030225
-0.0231513
-0.0161331
-0.00931739
-0.0028644
0.00306014
0.00830199
0.0126715
0.0159992
0.0181271
0.0189392
0.0183699
0.0164616
0.0133479
0.00940045
0.00521984
0.00148542
-0.00112862
-0.00229872
-0.00203193
-0.000529308
0.00185104
0.00473888
0.00802416
0.0111437
0.0141647
0.0164504
0.0186352
0.0208425
0.0233161
0.024864
0.0237569
0.0190148
0.00665284
-0.00753206
-0.0171362
-0.0161467
-0.0101675
-0.00271147
0.0057291
0.012632
0.0202727
0.0234371
0.0254966
0.0194236
0.00421595
-0.0718312
-0.0761349
-0.0769213
-0.0751671
-0.0724548
-0.0696261
-0.066757
-0.0635995
-0.0599363
-0.0557017
-0.0509455
-0.045759
-0.0402303
-0.0344372
-0.0284598
-0.0223913
-0.0163432
-0.01044
-0.00481721
0.000385998
0.0050486
0.00899963
0.0120994
0.0142244
0.0152871
0.0152426
0.0141316
0.0120739
0.00936873
0.0064745
0.00372641
0.00175964
0.000837434
0.00101234
0.00218749
0.00413119
0.00655345
0.00938286
0.0121551
0.0149159
0.0171651
0.0193839
0.0217442
0.0245726
0.0267668
0.0265128
0.0225572
0.0118113
-0.000381216
-0.00877947
-0.00893396
-0.00491758
0.000836951
0.00799841
0.0143465
0.0211394
0.0242236
0.025384
0.0199328
0.00527709
-0.062474
-0.0662137
-0.0669925
-0.0656064
-0.063382
-0.0610453
-0.0586779
-0.0560758
-0.0530501
-0.0495369
-0.0455716
-0.0412278
-0.0365787
-0.0316886
-0.0266226
-0.0214572
-0.0162846
-0.011211
-0.00635051
-0.00182078
0.00231587
0.00587417
0.00874509
0.0108356
0.0120784
0.0124434
0.0119664
0.0107426
0.0089876
0.00695295
0.00517916
0.00382606
0.00319555
0.00338066
0.00435439
0.00597791
0.00803589
0.0104813
0.0129512
0.0154659
0.0176635
0.0198791
0.0222886
0.0252251
0.0276484
0.0278663
0.0245755
0.015543
0.00539367
-0.00179395
-0.00277361
-0.000328747
0.00404869
0.0100247
0.0157583
0.0219678
0.025011
0.0252723
0.0204035
0.00634631
-0.0539982
-0.0572476
-0.0580102
-0.0569329
-0.0551302
-0.0532234
-0.051293
-0.0491724
-0.0466994
-0.0438133
-0.0405381
-0.0369326
-0.0330566
-0.0289628
-0.0247039
-0.0203407
-0.0159484
-0.0116153
-0.00744298
-0.00356047
0.000122912
0.00331037
0.00594973
0.00797496
0.00933495
0.0100076
0.0100201
0.00945038
0.00845488
0.00722551
0.00610221
0.00526235
0.00492188
0.00517524
0.00603691
0.00743046
0.00920658
0.0113314
0.0135369
0.0158198
0.0179347
0.0200968
0.0224336
0.0251063
0.0274883
0.0278854
0.0252022
0.0179272
0.00973039
0.00371191
0.00224275
0.00353471
0.00685411
0.0117632
0.016823
0.0225935
0.025667
0.0251852
0.0207059
0.00721519
-0.0463453
-0.0491725
-0.0499137
-0.0490919
-0.0476437
-0.0461044
-0.0445504
-0.0428441
-0.0408463
-0.0385005
-0.035822
-0.0328573
-0.0296546
-0.0262566
-0.0227052
-0.0190476
-0.0153412
-0.01165
-0.00803805
-0.00453983
-0.00148247
0.00130574
0.0037031
0.00563523
0.00705595
0.00794645
0.00832413
0.00824916
0.00784447
0.00722912
0.00663448
0.00621751
0.00614275
0.00649174
0.00730073
0.0085318
0.0100907
0.0119491
0.0139203
0.0159844
0.0179803
0.0200352
0.0222153
0.0245534
0.0265842
0.0269796
0.0248269
0.0191779
0.0127264
0.00780589
0.00614703
0.00667691
0.0092
0.0131803
0.0175331
0.022823
0.0260121
0.0250125
0.0206473
0.00768828
-0.0394696
-0.0419196
-0.0426305
-0.042015
-0.0408639
-0.0396348
-0.0384016
-0.0370487
-0.0354561
-0.0335717
-0.0314048
-0.0289915
-0.0263704
-0.0235751
-0.0206388
-0.0175985
-0.0144989
-0.0113925
-0.00833947
-0.00540313
-0.00268754
-0.000211254
0.00196394
0.00378709
0.00522168
0.00625178
0.00689042
0.00718182
0.007201
0.00705674
0.00688418
0.00681194
0.00696709
0.00741759
0.00820941
0.00932646
0.0107166
0.0123534
0.0141154
0.0159727
0.017814
0.019712
0.0216782
0.0236432
0.0252547
0.0255692
0.0238626
0.0195963
0.0146229
0.0106943
0.00906536
0.00914414
0.0110594
0.0142446
0.0179079
0.0225401
0.0255938
0.0244821
0.0200175
0.00769125
-0.0332954
-0.0354077
-0.0360804
-0.0356429
-0.0347399
-0.0337647
-0.0328025
-0.0317475
-0.0304971
-0.0290037
-0.0272714
-0.0253281
-0.0232046
-0.0209273
-0.0185218
-0.0160169
-0.013448
-0.0108563
-0.00829104
-0.00580368
-0.00344733
-0.00126534
0.000694348
0.00239342
0.00380248
0.00490813
0.00572183
0.00626935
0.00660175
0.00679361
0.00694365
0.00714219
0.00748638
0.00803063
0.00882302
0.0098585
0.0111148
0.0125671
0.0141404
0.0158007
0.0174662
0.0191737
0.0208583
0.0224941
0.023731
0.0239572
0.0226196
0.0194677
0.0156985
0.0126287
0.0111598
0.0110005
0.0124362
0.0149368
0.0179549
0.0217524
0.0244173
0.0233454
0.0187243
0.00728721
-0.0277509
-0.0295703
-0.0302039
-0.0299126
-0.0292308
-0.0284862
-0.0277324
-0.0269139
-0.0259436
-0.0247752
-0.0234087
-0.0218632
-0.020162
-0.0183258
-0.0163741
-0.0143287
-0.0122169
-0.0100701
-0.00792681
-0.00582532
-0.00380008
-0.00189919
-0.000151079
0.00141037
0.00276155
0.00388619
0.00480829
0.00552234
0.00606969
0.00650131
0.00688614
0.00728696
0.00777761
0.00839911
0.00919704
0.0101708
0.0113175
0.0126144
0.0140164
0.0154915
0.0169758
0.0184791
0.0199062
0.0212304
0.0221642
0.0223238
0.0212906
0.0190043
0.0161887
0.0138372
0.0125842
0.0123151
0.0133602
0.0152638
0.0176808
0.0205588
0.0226589
0.0215859
0.0168881
0.00660474
-0.0227831
-0.0243473
-0.024938
-0.0247607
-0.0242549
-0.0236945
-0.0231354
-0.0225181
-0.0217729
-0.0208658
-0.0198071
-0.0185952
-0.0172492
-0.0157854
-0.0142183
-0.0125636
-0.0108415
-0.00907638
-0.00729663
-0.00553226
-0.00381329
-0.0021661
-0.000624904
0.000792416
0.0020679
0.00319214
0.00414107
0.00494738
0.00562968
0.00622007
0.00676547
0.00730855
0.00790426
0.008582
0.00938199
0.0103044
0.0113576
0.0125207
0.013768
0.0150715
0.0163765
0.0176777
0.018878
0.019942
0.0206432
0.0207623
0.0199801
0.0183469
0.0162726
0.0144984
0.013468
0.0131568
0.0138812
0.0152601
0.0171193
0.0191146
0.0205542
0.0194045
0.0147746
0.005779
-0.018341
-0.0196815
-0.0202277
-0.0201405
-0.0197789
-0.0193711
-0.0189675
-0.0185219
-0.0179764
-0.0172998
-0.0164759
-0.0155303
-0.0144755
-0.0133216
-0.0120771
-0.0107527
-0.00936151
-0.00792192
-0.00645575
-0.00498454
-0.00353147
-0.00211773
-0.000765749
0.000503708
0.00167336
0.00273763
0.00368953
0.00453636
0.00529164
0.00597612
0.00662134
0.00725533
0.00791801
0.00862938
0.00942288
0.0102979
0.0112673
0.0123133
0.0134214
0.0145667
0.0157028
0.016818
0.0178211
0.0186796
0.0192126
0.0193125
0.0187353
0.0175855
0.0160759
0.0147502
0.0139195
0.0135975
0.0140585
0.0149806
0.0163294
0.0175595
0.0183242
0.017059
0.0126479
0.00492543
-0.0143725
-0.0155187
-0.0160211
-0.0160041
-0.0157594
-0.0154755
-0.0151964
-0.0148855
-0.0144941
-0.013994
-0.0133802
-0.0126617
-0.0118488
-0.0109502
-0.00997395
-0.00892807
-0.00781364
-0.00665097
-0.00545402
-0.0042385
-0.00302207
-0.00182129
-0.000653101
0.000467726
0.00152722
0.00251786
0.0034345
0.00427894
0.00505878
0.00578636
0.00648235
0.00716421
0.00786028
0.00858313
0.00935894
0.0101864
0.0110783
0.0120198
0.0130021
0.0140044
0.0149873
0.0159377
0.0167735
0.0174737
0.0178899
0.0179848
0.017572
0.0167731
0.0156874
0.0146994
0.0140312
0.0137084
0.0139546
0.0144899
0.0153744
0.0159892
0.0161431
0.0147583
0.0106824
0.00412494
-0.0108329
-0.0118115
-0.0122714
-0.0123083
-0.0121573
-0.0119732
-0.0117937
-0.0115904
-0.0113231
-0.0109681
-0.0105204
-0.00998531
-0.00937024
-0.00868106
-0.0079224
-0.00709884
-0.00622555
-0.00530197
-0.00433598
-0.00334226
-0.00233454
-0.0013248
-0.000326142
0.000649741
0.00159183
0.00249362
0.00335013
0.00416064
0.00492837
0.00565979
0.00636782
0.00706261
0.00776347
0.00847755
0.00922418
0.0100012
0.0108193
0.011666
0.0125351
0.01341
0.0142577
0.0150659
0.0157638
0.0163414
0.0166779
0.0167754
0.0164918
0.0159417
0.015165
0.0144255
0.0138807
0.0135617
0.0136271
0.0138483
0.0143217
0.0144631
0.0141216
0.0126349
0.00895835
0.00342098
-0.00768296
-0.00851664
-0.00893592
-0.00901313
-0.00893655
-0.00883209
-0.00873194
-0.0086138
-0.00844516
-0.00820602
-0.00789134
-0.00750447
-0.00705074
-0.00653426
-0.00595816
-0.0053256
-0.00464161
-0.00391121
-0.00314321
-0.00234165
-0.0015172
-0.000678699
0.000163796
0.00100144
0.00182534
0.0026298
0.00341015
0.00416449
0.00489334
0.00559934
0.0062898
0.00697002
0.00765237
0.00834018
0.00904695
0.00976954
0.0105158
0.0112758
0.0120434
0.0128056
0.0135355
0.014223
0.0148083
0.0152903
0.0155725
0.0156737
0.0154882
0.0151112
0.0145537
0.0139889
0.0135201
0.0131644
0.0131283
0.0131071
0.0132291
0.0130205
0.0123153
0.0107579
0.00749275
0.00282689
-0.00488577
-0.00559473
-0.0059756
-0.00608238
-0.00606431
-0.00602287
-0.00598506
-0.00593368
-0.00584257
-0.00569501
-0.00548619
-0.00521811
-0.00489446
-0.00451794
-0.00409036
-0.00361327
-0.00308925
-0.00252201
-0.00191676
-0.00127915
-0.000613694
7.28234e-05
0.000773349
0.00148132
0.00218966
0.00289339
0.00358826
0.00427198
0.00494354
0.00560315
0.00625441
0.00689925
0.00754506
0.00819255
0.0088502
0.00951464
0.0101905
0.0108695
0.0115461
0.0122095
0.0128369
0.0134219