/*--------------------------------*- C++ -*----------------------------------*\
| =========                 |                                                 |
| \\      /  F ield         | OpenFOAM: The Open Source CFD Toolbox           |
|  \\    /   O peration     | Version:  2512                                  |
|   \\  /    A nd           | Website:  www.openfoam.com                      |
|    \\/     M anipulation  |                                                 |
\*---------------------------------------------------------------------------*/
FoamFile
{
    version     2.0;
    format      ascii;
    arch        "LSB;label=32;scalar=64";
    class       volVectorField;
    location    "54.75";
    object      U;
}
// * * * * * * * * * * * * * * * * * * * * * * * * * * * * * * * * * * * * * //

dimensions      [0 1 -1 0 0 0 0];

internalField   nonuniform List<vector> 
13248
(
(-0.0125633 0.0119823 7.02155e-20)
(-0.0229751 0.0255338 0)
(-0.0192728 0.0328114 -1.32825e-19)
(-0.00263402 0.0355761 1.25122e-19)
(0.0261341 0.0353765 1.17343e-19)
(0.0664541 0.0335114 0)
(0.117818 0.0309937 0)
(0.179652 0.0285913 2.85524e-19)
(0.251157 0.0268675 -8.64708e-22)
(0.331164 0.0261985 -2.50396e-19)
(0.418049 0.0267845 2.33095e-19)
(0.509716 0.0286611 -1.4585e-19)
(0.603673 0.0317151 0)
(0.697186 0.0357086 -2.50396e-19)
(0.787476 0.0403131 4.6683e-19)
(0.87193 0.0451495 -1.10939e-19)
(0.948301 0.0498358 -1.9623e-19)
(1.01487 0.05401 1.84215e-19)
(1.07056 0.0574417 0)
(1.11489 0.0597377 0)
(1.14836 0.0614293 0)
(1.1708 0.060448 0)
(1.1859 0.0620606 5.40612e-20)
(1.18938 0.0524644 1.92513e-19)
(-0.0118828 0.0100695 -2.12025e-19)
(-0.0178827 0.0198817 1.44503e-19)
(-0.0067673 0.0243875 -1.197e-21)
(0.0200007 0.0254423 -1.91047e-19)
(0.0614197 0.0246457 -1.17218e-19)
(0.116656 0.0233234 -1.10905e-19)
(0.184761 0.0224689 -2.04617e-19)
(0.264455 0.0227808 1.9324e-19)
(0.353956 0.0246899 0)
(0.450872 0.0283661 7.20785e-22)
(0.552239 0.0337306 1.34844e-21)
(0.654675 0.0404847 1.45232e-19)
(0.754647 0.0481586 0)
(0.848772 0.0561793 0)
(0.934118 0.0639463 1.69933e-19)
(1.00844 0.0709077 -3.19181e-19)
(1.07033 0.0766217 1.90023e-19)
(1.11929 0.0807987 -1.784e-19)
(1.15565 0.0833215 -7.83997e-20)
(1.18051 0.0842111 -1.42109e-19)
(1.19535 0.0837485 -5.87545e-20)
(1.20232 0.0817668 -1.10002e-19)
(1.20297 0.0804201 1.62184e-19)
(1.19892 0.0743475 4.6433e-20)
(-0.010347 0.00794884 0)
(-0.00964136 0.0138339 0)
(0.0116601 0.0158165 6.75888e-20)
(0.0516172 0.0157741 6.23793e-20)
(0.108811 0.0153208 -1.34877e-21)
(0.181819 0.0157698 -1.14046e-19)
(0.268785 0.0180112 0)
(0.36717 0.0225329 -9.61845e-20)
(0.473653 0.0294407 9.02813e-20)
(0.584221 0.0384816 2.99526e-22)
(0.694454 0.0490966 -1.55028e-19)
(0.799938 0.0605135 -1.42359e-19)
(0.896717 0.0718656 2.44993e-21)
(0.981669 0.0823184 -1.17996e-19)
(1.05277 0.0911798 2.83108e-19)
(1.10919 0.0979775 0)
(1.15122 0.102496 -1.83646e-19)
(1.18013 0.104764 8.9187e-20)
(1.19786 0.105034 7.83287e-20)
(1.20666 0.103635 0)
(1.20894 0.101183 6.39652e-20)
(1.20671 0.0976227 -2.20437e-19)
(1.2017 0.0949221 2.06932e-19)
(1.19577 0.0887053 1.30548e-19)
(-0.00759231 0.00560352 -7.47442e-20)
(0.00267155 0.00757281 -7.72093e-20)
(0.0373392 0.00764809 6.99622e-20)
(0.0937311 0.00755958 0)
(0.169636 0.00882064 0)
(0.262519 0.0126051 -2.1543e-21)
(0.368984 0.0195112 0)
(0.48463 0.02957 -2.92511e-19)
(0.60422 0.0423018 2.72023e-19)
(0.722133 0.0568158 -3.36489e-19)
(0.832982 0.071967 7.74001e-20)
(0.932239 0.0865506 0)
(1.0167 0.099492 1.29121e-19)
(1.08473 0.109993 -2.39267e-19)
(1.13622 0.117614 5.69299e-20)
(1.17241 0.122278 1.46531e-19)
(1.19546 0.12422 -6.32415e-21)
(1.20804 0.123893 -1.63328e-19)
(1.2129 0.121852 0)
(1.21251 0.118655 0)
(1.20889 0.114864 -5.86848e-20)
(1.20346 0.110598 5.2761e-20)
(1.19734 0.10722 1.89488e-19)
(1.19084 0.101197 -1.77888e-19)
(-0.00320802 0.00307271 -7.85407e-20)
(0.0199899 0.00141288 -7.83037e-20)
(0.0714223 0.000590532 2.20338e-19)
(0.14732 0.00192407 -1.33864e-19)
(0.244134 0.00660937 1.26004e-19)
(0.357531 0.0154354 2.29445e-19)
(0.481918 0.0284039 -1.62081e-19)
(0.61065 0.0447757 -1.9755e-19)
(0.736694 0.0632522 3.61496e-21)
(0.85352 0.082233 2.53742e-19)
(0.955946 0.100114 0)
(1.0407 0.115558 7.01541e-20)
(1.10659 0.12768 0)
(1.15433 0.13611 -1.15211e-19)
(1.18607 0.140956 1.62065e-19)
(1.2048 0.142676 1.53157e-21)
(1.21375 0.141928 -4.27553e-20)
(1.21594 0.139416 8.01146e-20)
(1.21385 0.135781 6.94183e-20)
(1.20931 0.131533 -6.24556e-20)
(1.20353 0.127063 5.86704e-20)
(1.19726 0.122477 -5.27476e-20)
(1.19086 0.118554 0)
(1.18473 0.112738 -4.06027e-20)
(0.00321494 0.000489364 7.85295e-20)
(0.0431296 -0.00412349 8.22998e-20)
(0.114677 -0.00441384 -7.37926e-20)
(0.212542 0.000161248 1.37467e-19)
(0.331151 0.0101364 -1.29389e-19)
(0.463661 0.0255388 1.17227e-19)
(0.601866 0.0453928 -5.61967e-20)
(0.737056 0.0679186 1.48304e-19)
(0.861268 0.0909491 -9.32087e-20)
(0.968441 0.112382 1.65882e-19)
(1.05511 0.130559 -3.83304e-19)
(1.1205 0.14449 1.40973e-19)
(1.1661 0.153891 -1.24181e-19)
(1.19494 0.159071 1.16642e-19)
(1.21075 0.160722 1.01323e-19)
(1.21725 0.159699 8.93495e-20)
(1.21764 0.15684 -2.48725e-19)
(1.21437 0.152845 1.54481e-19)
(1.20914 0.148237 -6.94203e-20)
(1.20302 0.143371 1.82075e-19)
(1.19662 0.138472 -5.86927e-20)
(1.19024 0.133619 -1.44494e-19)
(1.18405 0.129231 1.33615e-19)
(1.17815 0.123574 4.05885e-20)
(0.0120326 -0.00190143 0)
(0.0726541 -0.00828229 6.45339e-22)
(0.167285 -0.00619888 1.5388e-19)
(0.288516 0.00365005 -1.44374e-19)
(0.428029 0.0206592 -1.30365e-19)
(0.575984 0.0436279 2.42428e-19)
(0.721721 0.07027 -1.12648e-19)
(0.855425 0.0977118 1.50673e-19)
(0.96974 0.123189 -3.03442e-21)
(1.0607 0.144597 -8.56283e-20)
(1.12776 0.160774 1.87957e-19)
(1.17311 0.171498 -2.77701e-19)
(1.20059 0.177279 0)
(1.21467 0.179053 -5.49191e-20)
(1.21952 0.177882 -1.47321e-19)
(1.21858 0.174741 4.62924e-20)
(1.21435 0.170404 1.71229e-21)
(1.20847 0.165424 -1.03136e-19)
(1.20194 0.160158 5.92907e-21)
(1.19528 0.154826 1.19521e-19)
(1.18877 0.149551 -5.3618e-20)
(1.18251 0.144404 -2.08084e-20)
(1.17651 0.139545 6.3458e-20)
(1.17081 0.133956 0)
(0.023498 -0.00375188 0)
(0.108742 -0.0101201 4.17048e-20)
(0.228675 -0.00347258 -2.00478e-19)
(0.373214 0.0136798 7.29477e-20)
(0.530754 0.0390172 -6.86564e-20)
(0.688512 0.0696788 -6.2792e-20)
(0.834329 0.101967 -1.11362e-19)
(0.958927 0.132216 5.53771e-20)
(1.05729 0.157646 4.84021e-20)
(1.12876 0.176769 0)
(1.17604 0.189355 1.11475e-19)
(1.20378 0.196106 -1.66358e-19)
(1.21721 0.198214 1.23975e-19)
(1.22108 0.196984 5.49469e-20)
(1.21914 0.193564 -4.53526e-20)
(1.21407 0.188837 -3.82346e-20)
(1.20753 0.18341 -3.58508e-20)
(1.20051 0.177667 1.06629e-19)
(1.1935 0.171834 0)
(1.18675 0.166042 5.42856e-20)
(1.18033 0.160364 4.61911e-20)
(1.17424 0.154848 -1.14058e-19)
(1.16844 0.149508 -7.89602e-20)
(1.16292 0.143915 7.29752e-20)
(0.0377165 -0.00463475 -4.48975e-20)
(0.151083 -0.00859083 -1.63183e-21)
(0.297429 0.00501871 4.07651e-20)
(0.463536 0.0312275 1.13891e-19)
(0.634427 0.0654397 3.3205e-20)
(0.795198 0.102923 -6.41324e-20)
(0.933864 0.138847 5.86425e-20)
(1.04354 0.169403 -5.16218e-20)
(1.12285 0.192494 9.27916e-20)
(1.17473 0.207733 3.97849e-20)
(1.2046 0.21597 -1.12786e-19)
(1.21856 0.218691 3.33989e-20)
(1.22208 0.217498 5.73099e-20)
(1.21944 0.213779 -2.81555e-20)
(1.2136 0.208577 0)
(1.20636 0.202593 4.24698e-20)
(1.19875 0.196259 7.22947e-20)
(1.19128 0.18982 1.26842e-20)
(1.18416 0.183415 -6.05479e-20)
(1.17746 0.177119 2.55262e-20)
(1.17118 0.170979 0)
(1.16527 0.165015 -2.02943e-20)
(1.15965 0.159187 -1.93255e-20)
(1.15427 0.15348 0)
(0.054597 -0.00408045 0)
(0.198801 -0.00266653 2.35139e-20)
(0.371298 0.0203024 4.3482e-20)
(0.555599 0.0567688 -1.16064e-19)
(0.733952 0.0994872 3.74609e-20)
(0.890921 0.142033 0)
(1.01667 0.179123 5.66998e-20)
(1.10817 0.207603 -7.91974e-20)
(1.16809 0.226639 -4.63375e-20)
(1.20249 0.237131 2.10125e-20)
(1.21844 0.240882 -3.38244e-20)
(1.22243 0.239877 8.20344e-20)
(1.21945 0.23584 4.13748e-20)
(1.21293 0.230052 -2.86377e-20)
(1.20496 0.22336 -2.55972e-21)
(1.19667 0.216272 -7.9453e-20)
(1.18862 0.209073 3.62558e-20)
(1.18102 0.201916 -9.29575e-22)
(1.17395 0.19488 0)
(1.16739 0.188014 -2.55527e-20)
(1.1613 0.181344 0)
(1.15558 0.174861 5.86139e-20)
(1.15016 0.168547 -7.00772e-20)
(1.14491 0.162613 3.20425e-20)
(0.0738139 -0.00162025 -1.22446e-20)
(0.250444 0.00854153 -5.91717e-20)
(0.447352 0.0430253 6.72996e-20)
(0.645167 0.0901873 3.96061e-20)
(0.824732 0.140142 -1.89014e-20)
(0.972098 0.185413 3.1913e-20)
(1.08129 0.22118 -1.5476e-20)
(1.1538 0.245671 2.59057e-20)
(1.19599 0.259598 0)
(1.21602 0.265066 5.91188e-20)
(1.2216 0.264544 -2.33353e-21)
(1.21881 0.260221 -4.79127e-20)
(1.21181 0.253732 2.06105e-20)
(1.20311 0.24615 -2.33759e-20)
(1.19407 0.23811 -8.98801e-21)
(1.18534 0.229956 1.03027e-20)
(1.17716 0.221868 -8.01357e-21)
(1.16963 0.213934 -4.37781e-20)
(1.16271 0.206203 2.68458e-20)
(1.15635 0.198705 5.54045e-21)
(1.15048 0.191445 4.90835e-21)
(1.14499 0.184398 4.35209e-21)
(1.13978 0.17761 0)
(1.13468 0.17132 0)
(0.0948623 0.0031794 1.2253e-20)
(0.304172 0.025692 -1.22541e-20)
(0.522388 0.0733557 -2.24232e-20)
(0.728292 0.130787 0)
(0.903264 0.185996 -9.39023e-21)
(1.03682 0.231467 -8.47436e-21)
(1.1279 0.263761 -1.456e-20)
(1.18241 0.282946 0)
(1.20951 0.291284 0)
(1.21844 0.291817 0)
(1.21671 0.287371 0)
(1.20957 0.2801 0)
(1.20024 0.27143 -1.29523e-20)
(1.19042 0.262196 5.90276e-21)
(1.18095 0.252846 1.03208e-20)
(1.17213 0.243599 4.83643e-21)
(1.16406 0.234561 1.20262e-20)
(1.15672 0.225783 0)
(1.15005 0.217291 -2.92108e-21)
(1.14399 0.209099 -2.80678e-21)
(1.13842 0.201196 -4.91615e-21)
(1.13323 0.193559 -4.35903e-21)
(1.12829 0.186308 0)
(1.12344 0.179539 3.18504e-21)
(-0.0013212 0.00437256 7.15731e-21)
(-0.00608845 0.00741233 -7.42977e-21)
(-0.0145621 0.00664068 -1.40711e-20)
(-0.0249151 0.00347077 0)
(-0.0361407 -0.00107965 -1.88056e-20)
(-0.0477243 -0.00634688 5.88271e-21)
(-0.0593045 -0.0119548 -1.11729e-20)
(-0.0706251 -0.0177445 0)
(-0.0815175 -0.0237018 0)
(-0.0918727 -0.0298928 0)
(-0.101619 -0.0364126 0)
(-0.110708 -0.0433512 0)
(-0.119101 -0.0507738 -5.88525e-23)
(-0.126764 -0.0587105 -7.26208e-21)
(-0.133665 -0.0671566 1.37548e-20)
(-0.139767 -0.0760683 1.93091e-20)
(-0.145034 -0.0853617 6.09707e-21)
(-0.149438 -0.0949116 0)
(-0.152965 -0.104549 5.26418e-21)
(-0.155634 -0.114066 -1.48661e-20)
(-0.157498 -0.123224 -9.26852e-21)
(-0.158635 -0.13176 -8.64637e-21)
(-0.159226 -0.139372 0)
(-0.1598 -0.145786 0)
(-0.00194929 0.00794592 -2.15847e-20)
(-0.00738077 0.0158552 3.71903e-20)
(-0.0161313 0.0182964 -1.41449e-20)
(-0.0265224 0.0171709 -2.67533e-20)
(-0.0376392 0.0138238 3.77371e-20)
(-0.0490228 0.00915253 -2.38374e-20)
(-0.0603452 0.00370907 3.35911e-20)
(-0.0713695 -0.00221793 2.13251e-20)
(-0.0819381 -0.00852249 0)
(-0.0919491 -0.0152085 -1.86972e-20)
(-0.101337 -0.0223327 -6.62658e-23)
(-0.110059 -0.0299638 1.65025e-20)
(-0.118081 -0.0381588 2.35977e-20)
(-0.125375 -0.0469453 2.94896e-20)
(-0.131912 -0.0563288 -1.37448e-20)
(-0.137655 -0.0662715 -3.89e-20)
(-0.142565 -0.0766902 1.22507e-20)
(-0.1466 -0.0874482 -4.58736e-20)
(-0.149732 -0.0983458 0)
(-0.151962 -0.109116 9.91217e-21)
(-0.153319 -0.119429 9.25715e-21)
(-0.15381 -0.128899 8.63565e-21)
(-0.153552 -0.137072 0)
(-0.153483 -0.143546 0)
(-0.00294915 0.0113035 0)
(-0.00939998 0.0238822 7.57536e-20)
(-0.0183881 0.0294836 -2.85503e-20)
(-0.0285311 0.0304239 2.69245e-20)
(-0.0390833 0.0283358 -7.67235e-20)
(-0.0496806 0.0243322 0)
(-0.0600533 0.0191349 -4.55572e-20)
(-0.0699989 0.0131627 2.15443e-20)
(-0.0793785 0.00661719 -4.07843e-20)
(-0.088101 -0.000438711 1.95265e-20)
(-0.0961059 -0.00801873 1.08235e-19)
(-0.103352 -0.0161677 -5.08487e-20)
(-0.1098 -0.0249348 -7.95868e-20)
(-0.115432 -0.034364 -3.03055e-20)
(-0.120228 -0.0444615 1.36593e-24)
(-0.124148 -0.0552072 1.05721e-19)
(-0.127149 -0.0665384 -4.96063e-20)
(-0.129185 -0.0783313 -4.03019e-22)
(-0.130208 -0.0903841 0)
(-0.130198 -0.102397 -4.06667e-20)
(-0.129155 -0.113956 0)
(-0.126988 -0.124526 -3.41163e-20)
(-0.123606 -0.133456 1.28583e-19)
(-0.120373 -0.140109 -9.11553e-22)
(-0.00424351 0.0142017 0)
(-0.0119952 0.0309583 4.75926e-22)
(-0.021158 0.0395096 2.92395e-20)
(-0.0307601 0.0424557 -2.76861e-20)
(-0.0402862 0.0416457 2.55555e-20)
(-0.0494981 0.0383713 1.47008e-19)
(-0.0582049 0.0335047 -4.60614e-20)
(-0.0662502 0.0275873 -4.3866e-20)
(-0.0735182 0.0209156 8.21472e-20)
(-0.0799252 0.0136227 -1.16027e-19)
(-0.08541 0.00574281 3.67042e-20)
(-0.0899285 -0.0027418 3.47101e-20)
(-0.0934523 -0.0118713 0)
(-0.0959391 -0.0216876 3.02279e-20)
(-0.0973547 -0.0322085 0)
(-0.0976807 -0.0434357 5.43173e-20)
(-0.0968799 -0.0553341 -1.00691e-19)
(-0.0949088 -0.0678141 2.38588e-20)
(-0.0917235 -0.0807087 8.82976e-20)
(-0.0872981 -0.093738 4.06291e-20)
(-0.0816477 -0.106461 0)
(-0.074692 -0.11822 -1.04254e-19)
(-0.0659633 -0.128121 3.28238e-20)
(-0.0562452 -0.135115 0)
(-0.00571896 0.0164459 0)
(-0.0149494 0.0366339 -9.32935e-20)
(-0.0242065 0.0477649 -2.97959e-20)
(-0.0329886 0.0525586 -5.57142e-20)
(-0.0410449 0.0529885 5.2462e-20)
(-0.0482825 0.0504729 -4.92247e-20)
(-0.0546026 0.0460044 9.3772e-20)
(-0.059903 0.040231 4.41564e-20)
(-0.0640925 0.0335382 -1.24595e-19)
(-0.0670916 0.0261285 7.88107e-20)
(-0.0688308 0.0180864 -1.11014e-19)
(-0.0692496 0.00942802 2.45767e-19)
(-0.0682959 0.000135649 -1.31637e-19)
(-0.0659204 -0.00981353 6.25371e-20)
(-0.0620749 -0.0204476 1.75467e-19)
(-0.056722 -0.0317761 -5.44071e-20)
(-0.0498356 -0.0437775 -5.20447e-20)
(-0.041395 -0.0563912 -4.78301e-20)
(-0.0313874 -0.0694964 0)
(-0.0198183 -0.0828771 -8.24213e-20)
(-0.00676864 -0.0961733 -7.47361e-20)
(0.00758112 -0.108787 1.07317e-19)
(0.0235323 -0.119552 1.26981e-19)
(0.0436894 -0.125754 -1.19822e-19)
(-0.00724513 0.017919 0)
(-0.0180078 0.0405989 -1.27276e-19)
(-0.0272588 0.0537852 -6.64179e-22)
(-0.0349607 0.0601507 1.12856e-19)
(-0.0411301 0.0616964 0)
(-0.0458234 0.0599087 0)
(-0.0490398 0.0558623 0)
(-0.0507342 0.0502885 -4.46759e-20)
(-0.0508392 0.0436494 -3.19849e-22)
(-0.0492741 0.0362122 7.96535e-20)
(-0.0459523 0.0281137 -1.12451e-19)
(-0.0407855 0.0194101 -1.7304e-22)
(-0.0336871 0.0101142 0)
(-0.0245742 0.000223024 -6.2508e-20)
(-0.0133828 -0.0102744 5.96738e-20)
(-6.08224e-05 -0.0213695 -1.67143e-19)
(0.0154217 -0.0330272 2.07945e-19)
(0.0330542 -0.0451831 4.79596e-20)
(0.0527903 -0.0577256 -1.86598e-21)
(0.0745353 -0.0704855 -1.69018e-19)
(0.0980848 -0.0832214 -7.76438e-20)
(0.123174 -0.0954957 2.4655e-19)
(0.150102 -0.105959 -1.63744e-19)
(0.183278 -0.111043 0)
(-0.00869826 0.0185946 6.29638e-20)
(-0.0209125 0.042713 6.38681e-20)
(-0.0300207 0.0572923 -6.12555e-20)
(-0.0363839 0.0648231 -1.14771e-19)
(-0.0402586 0.0672507 1.08067e-19)
(-0.0418404 0.0660733 -1.02143e-19)
(-0.0412226 0.0624072 1.445e-19)
(-0.0384151 0.057039 -4.47446e-20)
(-0.0333709 0.0504895 8.5507e-20)
(-0.0260036 0.0430819 0)
(-0.0162029 0.0350022 7.69733e-20)
(-0.0038473 0.0263488 -1.44273e-19)
(0.0111836 0.0171702 1.35597e-19)
(0.0289952 0.00749033 -1.27358e-19)
(0.0496726 -0.00266624 0)
(0.0732685 -0.0132531 1.12288e-19)
(0.099773 -0.0242077 2.10255e-19)
(0.129111 -0.03543 -1.97003e-19)
(0.161129 -0.0467754 -9.13574e-20)
(0.195595 -0.0580524 -8.29209e-20)
(0.232105 -0.0690382 2.34701e-19)
(0.27052 -0.0793688 6.89246e-20)
(0.308537 -0.088594 -6.67757e-20)
(0.360622 -0.0916301 5.76567e-20)
(-0.00998252 0.0185339 -6.29723e-20)
(-0.0234311 0.0430098 1.96973e-19)
(-0.0321887 0.0582137 -6.2183e-20)
(-0.0369088 0.0663774 1.16392e-19)
(-0.0380386 0.0693357 -1.09593e-19)
(-0.0358902 0.0685547 4.8514e-22)
(-0.0306372 0.0651555 4.88835e-20)
(-0.0223364 0.0599518 1.84806e-19)
(-0.010955 0.053504 5.25263e-22)
(0.00360111 0.0461798 -8.10775e-20)
(0.0214639 0.0382093 0)
(0.0427777 0.0297338 -7.30302e-20)
(0.0676759 0.0208416 1.36427e-19)
(0.0962594 0.0115981 1.28495e-19)
(0.128574 0.00207182 -6.0272e-20)
(0.164591 -0.00765967 1.80946e-22)
(0.204177 -0.0174926 -5.27323e-20)
(0.247085 -0.027287 9.83244e-20)
(0.29294 -0.0368648 9.13298e-20)
(0.34129 -0.045989 -8.44304e-20)
(0.391174 -0.0545119 7.7121e-20)
(0.443679 -0.061612 -7.0235e-20)
(0.49017 -0.0689917 0)
(0.561733 -0.0679505 -5.7563e-20)
(-0.0110417 0.0178644 6.46437e-20)
(-0.0253685 0.0416708 -6.60239e-20)
(-0.0334391 0.0566745 6.31185e-20)
(-0.0360852 0.0648439 0)
(-0.0338849 0.0678861 0)
(-0.027235 0.06721 1.05646e-19)
(-0.016368 0.0639153 -9.8356e-20)
(-0.00137207 0.0588199 9.32573e-20)
(0.0177764 0.0525074 -4.36742e-19)
(0.0411744 0.0453797 -8.3387e-23)
(0.0689543 0.0377088 7.75842e-20)
(0.101243 0.0296795 0)
(0.138123 0.0214243 -1.37232e-19)
(0.179592 0.013053 2.5772e-19)
(0.225535 0.00467022 -1.81376e-19)
(0.275691 -0.00361086 -2.82159e-19)
(0.329633 -0.0116584 1.65261e-21)
(0.386766 -0.0193162 1.96598e-19)
(0.446301 -0.026417 0)
(0.507509 -0.0326674 0)
(0.568396 -0.03828 -7.7109e-20)
(0.632052 -0.0414076 7.02232e-20)
(0.68265 -0.0466036 -2.46993e-19)
(0.766043 -0.0410063 2.31761e-19)
(-0.0118542 0.0167474 0)
(-0.0265493 0.0389726 0)
(-0.0333894 0.0529586 -1.9022e-19)
(-0.0332917 0.0604743 6.04104e-20)
(-0.0269107 0.0631174 1.87162e-22)
(-0.0146927 0.0622362 1.06686e-19)
(0.0030957 0.0588971 0)
(0.026348 0.0539093 -9.36418e-20)
(0.0550724 0.0478703 8.75852e-20)
(0.0893371 0.0412111 -1.65655e-19)
(0.129208 0.0342406 7.92631e-24)
(0.174687 0.0271834 1.4618e-19)
(0.225656 0.0202117 -7.95745e-23)
(0.281823 0.0134652 1.28331e-19)
(0.342689 0.00706624 -1.81454e-19)
(0.40753 0.00112886 0)
(0.475401 -0.00423604 2.08342e-19)
(0.545166 -0.0089157 -2.93236e-19)
(0.615497 -0.0128296 8.88464e-20)
(0.685284 -0.0156962 0)
(0.751876 -0.0181097 7.44599e-20)
(0.818868 -0.0176416 2.69431e-19)
(0.868663 -0.020462 -2.52862e-19)
(0.948326 -0.0117132 -2.73955e-19)
(-0.0124121 0.0153342 1.99918e-19)
(-0.0267725 0.0352174 -2.74911e-19)
(-0.0315344 0.0474558 4.70742e-22)
(-0.0276578 0.0537227 6.12001e-20)
(-0.0158354 0.0555509 -1.14315e-19)
(0.00346487 0.0542442 -1.06164e-19)
(0.0299564 0.0508385 2.00022e-19)
(0.0635013 0.0461357 -7.81495e-22)
(0.104044 0.0407409 -1.76606e-19)
(0.151521 0.0351041 3.31496e-19)
(0.205773 0.0295581 -1.36616e-22)
(0.26646 0.024347 -1.4619e-19)
(0.332996 0.0196464 0)
(0.404507 0.0155774 0)
(0.479828 0.0122156 -6.00828e-20)
(0.557527 0.00959727 -1.10648e-19)
(0.635975 0.00772666 -2.0534e-19)
(0.713426 0.00657648 1.9275e-19)
(0.788127 0.00609958 -8.88812e-20)
(0.858535 0.00631275 1.59047e-19)
(0.922648 0.00678665 -7.90202e-20)
(0.982109 0.00903164 1.26939e-19)
(1.02582 0.00823287 -3.06087e-19)
(1.0869 0.0173993 5.49916e-20)
(-0.0126793 0.0137294 6.75401e-20)
(-0.0257355 0.030672 0)
(-0.0271627 0.040604 1.30806e-19)
(-0.0179845 0.0452095 -1.23223e-19)
(0.00107475 0.0460078 1.14419e-19)
(0.0295279 0.0442846 0)
(0.0670445 0.0410598 0)
(0.113375 0.0371227 -9.45443e-20)
(0.168247 0.0330718 4.91731e-22)
(0.231241 0.0293534 8.33744e-20)
(0.301672 0.026281 -7.75985e-20)
(0.378514 0.0240536 1.46061e-19)
(0.460363 0.0227677 0)
(0.545461 0.022428 2.53413e-19)
(0.631769 0.0229595 -4.73469e-19)
(0.71709 0.0242209 3.31846e-19)
(0.799211 0.0260281 2.01288e-19)
(0.876047 0.0281514 -1.88954e-19)
(0.945838 0.0304275 0)
(1.00708 0.0324884 0)
(1.05914 0.0345413 0)
(1.1015 0.0358442 0)
(1.13293 0.0364324 5.95016e-20)
(1.16546 0.0401035 -2.08836e-19)
(-0.161157 -0.152006 -5.28726e-21)
(-0.162741 -0.157869 5.3133e-21)
(-0.163452 -0.160488 -1.57793e-22)
(-0.163685 -0.159131 0)
(-0.163363 -0.152952 -4.85277e-21)
(-0.162425 -0.14108 9.44472e-21)
(-0.160739 -0.122673 1.01464e-23)
(-0.158087 -0.0969796 -4.47733e-21)
(-0.154151 -0.0634258 0)
(-0.148479 -0.0216882 0)
(-0.141032 0.0282925 -2.38802e-22)
(-0.131789 0.0853685 -2.28277e-22)
(-0.120514 0.147854 -3.86853e-21)
(-0.107342 0.213167 3.54939e-21)
(-0.092763 0.27833 0)
(-0.0773358 0.339749 0)
(-0.061348 0.393654 2.63585e-21)
(-0.0441618 0.43572 -1.19736e-22)
(-0.023722 0.461453 -2.22846e-21)
(0.00337877 0.465073 -1.4238e-22)
(0.0403074 0.440069 0)
(0.0889449 0.382065 0)
(0.147973 0.290658 0)
(0.213004 0.171146 0)
(0.279819 0.0313073 0)
(0.346154 -0.11751 0)
(0.409553 -0.257337 7.18833e-22)
(0.464605 -0.369187 -1.2001e-21)
(0.505464 -0.441971 0)
(0.529911 -0.476227 0)
(0.534589 -0.48568 -4.49148e-22)
(0.508475 -0.494043 4.36535e-22)
(0.449988 -0.509544 1.80556e-22)
(0.38949 -0.499715 0)
(0.36949 -0.417188 0)
(0.397661 -0.256098 5.12958e-22)
(0.455203 -0.0568089 -4.98607e-22)
(0.523041 0.131243 0)
(0.583193 0.274587 3.65653e-22)
(0.627279 0.360012 -5.10264e-22)
(0.657208 0.391479 1.256e-22)
(0.659458 0.397568 0)
(0.612808 0.406833 -1.76433e-22)
(0.543982 0.399222 1.71567e-22)
(0.511328 0.324418 0)
(0.539707 0.180145 0)
(0.601694 0.0169129 -8.48609e-23)
(0.667987 -0.1125 2.43831e-22)
(0.718554 -0.192437 0)
(0.754572 -0.220145 0)
(0.769658 -0.218422 -2.05415e-23)
(0.761889 -0.200168 2.82273e-24)
(0.726438 -0.178747 -4.30046e-24)
(0.705076 -0.141293 2.2592e-24)
(0.704152 -0.0841662 0)
(0.741069 -0.0288505 0)
(0.776692 0.0306444 0)
(0.813934 0.0493168 0)
(0.831392 0.0794336 0)
(0.839985 0.0652852 0)
(-0.155488 -0.149471 -5.06314e-22)
(-0.159302 -0.156288 -2.06077e-20)
(-0.161788 -0.159746 4.49405e-22)
(-0.164036 -0.159154 1.89188e-20)
(-0.165943 -0.153749 2.7688e-22)
(-0.167459 -0.142714 0)
(-0.168481 -0.12528 -1.65019e-20)
(-0.168784 -0.100758 3.23873e-20)
(-0.167976 -0.0686209 -1.58797e-20)
(-0.165416 -0.0285721 1.48074e-20)
(-0.160878 0.0192343 -1.41538e-20)
(-0.154181 0.0743425 1.32782e-20)
(-0.144709 0.134928 -1.28481e-20)
(-0.131974 0.19861 -3.5114e-22)
(-0.115874 0.262716 -1.11518e-20)
(-0.0963234 0.323381 1.08376e-20)
(-0.0731005 0.376679 -9.8405e-21)
(-0.0451427 0.417154 9.27627e-21)
(-0.010662 0.440114 -9.50903e-21)
(0.0323317 0.439523 1.88128e-20)
(0.0851864 0.409529 -9.29975e-21)
(0.147599 0.3475 -6.54695e-22)
(0.216389 0.254192 -1.10757e-20)
(0.286786 0.13469 2.20053e-20)
(0.35564 -0.00445169 -1.09249e-20)
(0.422111 -0.152216 6.73855e-22)
(0.483397 -0.289352 8.86233e-21)
(0.533105 -0.395261 -1.11728e-21)
(0.565489 -0.459627 -1.2291e-20)
(0.579837 -0.484504 9.63454e-21)
(0.577878 -0.481856 -4.17178e-21)
(0.551378 -0.474989 3.68353e-22)
(0.49095 -0.480932 -1.80905e-22)
(0.415982 -0.477992 3.09077e-22)
(0.372693 -0.415092 0)
(0.382858 -0.271762 0)
(0.430046 -0.0816973 -1.73375e-21)
(0.492785 0.104962 1.30011e-21)
(0.552966 0.252696 1.00005e-21)
(0.602647 0.344462 -3.54922e-23)
(0.637317 0.385187 -1.20674e-21)
(0.636605 0.405341 2.15957e-22)
(0.586637 0.425232 0)
(0.52581 0.414045 0)
(0.509734 0.324208 0)
(0.552016 0.166541 0)
(0.622299 -0.00160566 4.37134e-22)
(0.691263 -0.128868 -1.61451e-22)
(0.740816 -0.204023 0)
(0.772511 -0.226994 0)
(0.787504 -0.219929 0)
(0.783319 -0.195717 -1.39037e-23)
(0.751018 -0.171796 1.62517e-23)
(0.722174 -0.137575 -9.2904e-24)
(0.708114 -0.0867193 0)
(0.733407 -0.0354902 0)
(0.760308 0.0235768 4.45309e-24)
(0.797513 0.0439729 5.39652e-24)
(0.810498 0.0770373 0)
(0.82584 0.0639526 0)
(-0.121375 -0.145391 -6.08217e-22)
(-0.127728 -0.153522 -4.14162e-20)
(-0.131827 -0.158121 3.87714e-20)
(-0.135789 -0.158587 -3.62733e-20)
(-0.139511 -0.15424 -2.78779e-22)
(-0.142897 -0.144285 0)
(-0.145869 -0.128022 -3.06412e-20)
(-0.148228 -0.104842 2.99732e-20)
(-0.149592 -0.0742957 2.29884e-22)
(-0.14931 -0.0362082 3.78635e-22)
(-0.14675 0.00906561 3.55427e-22)
(-0.14169 0.0617583 3.9573e-22)
(-0.133502 0.119918 -2.17142e-20)
(-0.120778 0.18102 2.14563e-20)
(-0.10298 0.243041 0)
(-0.0794867 0.30193 5.50505e-22)
(-0.0500364 0.35273 -1.82593e-20)
(-0.0134128 0.390798 1.80306e-20)
(0.0320718 0.410898 0)
(0.0867322 0.407015 0)
(0.150425 0.374243 -2.18929e-20)
(0.22137 0.310865 4.47319e-20)
(0.295579 0.218282 -4.59527e-20)
(0.368496 0.100995 -2.71383e-22)
(0.438013 -0.0358622 4.61978e-20)
(0.503773 -0.181274 -4.47532e-20)
(0.561806 -0.314992 3.76398e-20)
(0.605 -0.414819 -4.07215e-21)
(0.628393 -0.471148 -1.42035e-20)
(0.632134 -0.488335 0)
(0.621599 -0.477092 0)
(0.594044 -0.457118 1.93954e-21)
(0.535589 -0.45094 -2.57692e-21)
(0.452238 -0.450367 -5.7539e-23)
(0.387061 -0.406719 2.61196e-21)
(0.376755 -0.284396 -2.5385e-21)
(0.411991 -0.106116 0)
(0.468664 0.0778857 3.86722e-22)
(0.528519 0.228777 2.76094e-21)
(0.582565 0.327008 -4.98483e-21)
(0.61896 0.3789 2.04632e-21)
(0.614116 0.414021 2.24086e-22)
(0.563337 0.442665 -2.17838e-21)
(0.51323 0.425643 1.69702e-21)
(0.513699 0.320821 5.18986e-22)
(0.568735 0.15129 5.36698e-22)
(0.646107 -0.0204809 -4.38237e-22)
(0.7167 -0.144747 0)
(0.764855 -0.214567 0)
(0.791584 -0.233076 -6.44138e-22)
(0.804453 -0.221821 2.77539e-22)
(0.80256 -0.192344 -1.08011e-22)
(0.775314 -0.164913 6.77928e-23)
(0.742764 -0.13208 1.6865e-23)
(0.718049 -0.086755 -1.51234e-23)
(0.731107 -0.0399476 9.80827e-24)
(0.747678 0.0175504 -9.54575e-24)
(0.783624 0.0391515 -3.05257e-24)
(0.791526 0.0744207 0)
(0.814963 0.0619333 0)
(-0.055212 -0.138862 -8.4833e-20)
(-0.0650249 -0.148594 3.6861e-21)
(-0.0713045 -0.154548 7.68414e-20)
(-0.0774671 -0.156461 -5.65594e-22)
(-0.0834697 -0.153607 0)
(-0.0890329 -0.145188 0)
(-0.0940222 -0.130516 -5.57794e-20)
(-0.0982271 -0.109043 2.02929e-21)
(-0.101345 -0.0803989 7.41284e-20)
(-0.102909 -0.0445042 -1.35488e-21)
(-0.101636 -0.00170825 -2.19531e-20)
(-0.0973012 0.0478224 -1.88655e-20)
(-0.0899946 0.103354 1.88828e-20)
(-0.0772217 0.161097 0)
(-0.0578488 0.219652 -1.69686e-20)
(-0.0320456 0.274982 1.54476e-20)
(0.00161821 0.322626 0)
(0.0445894 0.358383 0)
(0.0973008 0.37606 1.86843e-20)
(0.159198 0.370077 2.13037e-21)
(0.22911 0.336406 -1.90585e-20)
(0.304392 0.273893 -2.45635e-20)
(0.380823 0.184289 2.47184e-20)
(0.454282 0.070955 -2.63098e-20)
(0.523608 -0.0623282 9.09437e-22)
(0.588326 -0.204889 2.39589e-20)
(0.642705 -0.334847 2.56275e-21)
(0.678566 -0.428709 -2.39394e-23)
(0.692496 -0.477382 0)
(0.685924 -0.487791 8.49642e-21)
(0.665623 -0.470927 -8.69154e-21)
(0.635129 -0.441291 3.44639e-22)
(0.581024 -0.421918 0)
(0.496194 -0.418012 -2.54772e-22)
(0.413099 -0.390621 4.06394e-21)
(0.379892 -0.292366 -8.0253e-21)
(0.401127 -0.12936 -8.85134e-22)
(0.451236 0.0501311 -7.4805e-24)
(0.510168 0.203179 4.01098e-21)
(0.566415 0.308434 5.30786e-22)
(0.601688 0.373038 -3.70679e-21)
(0.592631 0.423058 3.15909e-21)
(0.54381 0.458301 -2.58579e-23)
(0.506352 0.43389 2.11896e-21)
(0.523002 0.314817 -2.58071e-21)
(0.589775 0.13492 -3.92033e-21)
(0.672935 -0.039248 1.06355e-21)
(0.743853 -0.159951 1.39319e-21)
(0.790039 -0.224041 -2.30428e-21)
(0.811723 -0.238164 1.28338e-21)
(0.820991 -0.223699 -1.09351e-22)
(0.819631 -0.190029 2.78851e-22)
(0.798167 -0.158696 1.01086e-22)
(0.765366 -0.125565 2.2449e-24)
(0.733327 -0.0845949 -3.33428e-24)
(0.734659 -0.0421011 1.26285e-23)
(0.740133 0.0128125 0)
(0.773625 0.034999 -2.62757e-24)
(0.776328 0.0715019 -2.16632e-24)
(0.808579 0.0591305 0)
(0.0474283 -0.129906 8.5353e-20)
(0.0331112 -0.13955 -1.62532e-19)
(0.0237265 -0.147213 7.64837e-20)
(0.0141658 -0.151064 6.73911e-20)
(0.00456613 -0.15018 -1.27642e-19)
(-0.00461289 -0.143906 4.20858e-21)
(-0.0130131 -0.131496 5.50152e-20)
(-0.0202592 -0.112363 4.63713e-20)
(-0.025938 -0.0861595 -4.5434e-20)
(-0.0296827 -0.0528459 0)
(-0.0302694 -0.0126623 -3.54036e-20)
(-0.0265212 0.0331476 6.71265e-20)
(-0.0198679 0.0839767 -3.18856e-20)
(-0.008115 0.137816 0)
(0.0115747 0.192216 0)
(0.0388097 0.243738 4.9103e-22)
(0.0751192 0.288759 -3.13515e-20)
(0.121308 0.322099 3.04559e-20)
(0.177497 0.337863 0)
(0.242723 0.331003 4.21324e-20)
(0.315116 0.298024 -8.50168e-20)
(0.391594 0.238116 9.3101e-20)
(0.467927 0.153039 -1.01268e-19)
(0.540606 0.0448705 -2.38647e-21)
(0.609464 -0.0840289 1.0402e-19)
(0.673342 -0.223034 -5.11132e-20)
(0.723988 -0.348484 -1.31496e-21)
(0.751974 -0.436253 -1.4402e-20)
(0.75591 -0.47802 3.39844e-21)
(0.739729 -0.48263 1.12966e-20)
(0.710016 -0.462392 4.41364e-22)
(0.674531 -0.4272 -4.35197e-21)
(0.624921 -0.396113 7.52465e-21)
(0.544688 -0.384125 -3.52131e-21)
(0.450374 -0.367221 0)
(0.393326 -0.293918 -3.86023e-21)
(0.397263 -0.150561 3.81776e-21)
(0.439932 0.0219156 -3.4058e-21)
(0.497059 0.176327 4.2223e-21)
(0.553053 0.289321 -4.23316e-22)
(0.585166 0.367525 0)
(0.57283 0.431588 -4.45447e-22)
(0.528684 0.471426 1.43475e-21)
(0.505115 0.438876 0)
(0.537375 0.306654 6.32661e-21)
(0.614975 0.118071 -2.38847e-21)
(0.702641 -0.0574859 1.06831e-21)
(0.772475 -0.17422 8.86838e-22)
(0.815815 -0.2324 0)
(0.832618 -0.242147 0)
(0.837487 -0.225198 -5.50162e-22)
(0.834855 -0.18857 5.69626e-22)
(0.818804 -0.153534 -1.68563e-22)
(0.788469 -0.118799 1.34369e-25)
(0.752841 -0.0807678 -3.10907e-23)
(0.744114 -0.0420452 -1.26405e-23)
(0.738817 0.00949665 3.60727e-23)
(0.768832 0.0316006 0)
(0.766729 0.068221 3.43199e-24)
(0.807642 0.0555208 1.09199e-23)
(0.186821 -0.11671 8.64452e-20)
(0.171171 -0.125739 -8.57417e-20)
(0.156282 -0.134762 5.94214e-22)
(0.1427 -0.140281 -5.32976e-22)
(0.128426 -0.141512 4.96404e-22)
(0.113947 -0.13786 -4.49596e-22)
(0.100067 -0.128537 7.64466e-22)
(0.0874602 -0.112841 0)
(0.0768107 -0.0903312 -5.96102e-22)
(0.0686911 -0.0609193 5.26956e-22)
(0.0640192 -0.0247193 4.68869e-22)
(0.0642596 0.0169275 -4.90087e-22)
(0.0693995 0.0627816 0)
(0.0802393 0.112666 0)
(0.0989583 0.163103 3.72732e-22)
(0.126074 0.211245 0)
(0.162676 0.253132 -4.11634e-22)
(0.209348 0.283951 0)
(0.265982 0.298381 -3.52757e-20)
(0.331383 0.29173 7.494e-20)
(0.403387 0.260725 -8.39961e-20)
(0.478817 0.204647 4.42844e-20)
(0.553526 0.125024 5.28426e-20)
(0.624909 0.0226121 -5.13062e-20)
(0.693628 -0.101146 -5.37256e-20)
(0.756983 -0.235821 5.21053e-20)
(0.803731 -0.355889 0)
(0.823565 -0.437382 1.09533e-21)
(0.817224 -0.473372 0)
(0.791993 -0.473511 0)
(0.754283 -0.451346 1.08779e-20)
(0.712609 -0.414157 -1.13858e-20)
(0.665767 -0.374478 3.7528e-22)
(0.594154 -0.351713 3.22465e-22)
(0.496981 -0.338199 -1.91084e-22)
(0.418351 -0.287515 -2.33567e-21)
(0.400631 -0.168082 2.26813e-21)
(0.433378 -0.00625769 -3.4072e-21)
(0.487332 0.148579 2.90373e-21)
(0.541056 0.269798 7.92292e-22)
(0.56921 0.361837 -3.50901e-21)
(0.555355 0.438706 -8.54148e-22)
(0.518334 0.481579 2.74456e-21)
(0.5093 0.440831 0)
(0.55653 0.296825 -2.69171e-21)
(0.644059 0.101142 3.89646e-21)
(0.734935 -0.0748121 -5.06453e-21)
(0.802356 -0.187253 -8.92445e-22)