/*--------------------------------*- C++ -*----------------------------------*\
| =========                 |                                                 |
| \\      /  F ield         | OpenFOAM: The Open Source CFD Toolbox           |
|  \\    /   O peration     | Version:  2512                                  |
|   \\  /    A nd           | Website:  www.openfoam.com                      |
|    \\/     M anipulation  |                                                 |
\*---------------------------------------------------------------------------*/
FoamFile
{
    version     2.0;
    format      ascii;
    arch        "LSB;label=32;scalar=64";
    class       volVectorField;
    location    "50.75";
    object      U;
}
// * * * * * * * * * * * * * * * * * * * * * * * * * * * * * * * * * * * * * //

dimensions      [0 1 -1 0 0 0 0];

internalField   nonuniform List<vector> 
13248
(
(-0.0118941 0.0109655 6.02881e-20)
(-0.0223409 0.0226853 0)
(-0.0206449 0.0281496 -1.14138e-19)
(-0.00767061 0.02954 1.07521e-19)
(0.016041 0.0285531 1.00804e-19)
(0.0501242 0.0264977 0)
(0.0942741 0.0243576 0)
(0.148127 0.0228645 2.42508e-19)
(0.211125 0.0225488 -1.63274e-21)
(0.282404 0.0237677 -2.11041e-19)
(0.360712 0.0267179 1.94172e-19)
(0.444401 0.031441 -1.21257e-19)
(0.531472 0.0378311 0)
(0.619684 0.0456484 -2.03784e-19)
(0.706702 0.0545426 3.78941e-19)
(0.790255 0.0640844 -8.94584e-20)
(0.868293 0.073807 -1.58079e-19)
(0.939112 0.0832286 1.48394e-19)
(1.00147 0.0919647 0)
(1.05453 0.0994692 0)
(1.09837 0.106009 0)
(1.13205 0.109832 0)
(1.15962 0.114599 4.5846e-20)
(1.17465 0.111739 1.69051e-19)
(-0.0117456 0.00971215 -1.82196e-19)
(-0.0186935 0.0189099 1.24341e-19)
(-0.0102723 0.0226586 -1.02961e-21)
(0.012246 0.0231399 -1.64427e-19)
(0.0480521 0.0220916 -1.00695e-19)
(0.0965082 0.0208762 -9.52118e-20)
(0.156908 0.0204959 -1.74725e-19)
(0.228287 0.0216524 1.65166e-19)
(0.30926 0.0247856 0)
(0.397919 0.0300884 1.02815e-21)
(0.491842 0.0375169 2.2329e-21)
(0.5882 0.0468092 1.2136e-19)
(0.683958 0.0575208 0)
(0.776114 0.0690767 0)
(0.861943 0.0808355 1.38915e-19)
(0.939205 0.0921576 -2.60809e-19)
(1.00629 0.102468 1.55423e-19)
(1.06232 0.111304 -1.4591e-19)
(1.10708 0.118354 -6.48145e-20)
(1.14113 0.123433 -1.17816e-19)
(1.16526 0.126649 -5.0272e-20)
(1.18138 0.127639 -9.44654e-20)
(1.1903 0.128267 1.37386e-19)
(1.194 0.124071 4.03983e-20)
(-0.0106787 0.00802247 0)
(-0.0118981 0.0141805 0)
(0.00582727 0.0162135 5.81758e-20)
(0.0407129 0.0162196 5.36107e-20)
(0.0915248 0.0159215 -1.31488e-21)
(0.157092 0.0166805 -9.81735e-20)
(0.235921 0.0194278 0)
(0.325961 0.0247005 -8.20437e-20)
(0.424484 0.032669 7.68579e-20)
(0.528117 0.0431562 5.04462e-22)
(0.633044 0.0556781 -1.30548e-19)
(0.735333 0.0695159 -1.19044e-19)
(0.831307 0.0838151 2.48624e-21)
(0.917884 0.0976969 -9.76545e-20)
(0.992833 0.110365 2.34738e-19)
(1.05491 0.121188 0)
(1.10385 0.129759 -1.52227e-19)
(1.1403 0.135899 7.34915e-20)
(1.16563 0.139668 6.47519e-20)
(1.18162 0.141243 0)
(1.1904 0.141101 5.35757e-20)
(1.19392 0.13924 -1.88494e-19)
(1.19373 0.137254 1.76944e-19)
(1.19286 0.132243 1.15394e-19)
(-0.00838803 0.00595746 -6.46052e-20)
(-0.00112161 0.00879962 -6.6796e-20)
(0.0289039 0.00946057 6.03645e-20)
(0.0792131 0.00981514 0)
(0.14786 0.011464 0)
(0.232704 0.0156444 -1.9838e-21)
(0.330912 0.0230384 0)
(0.438777 0.0337854 -2.5002e-19)
(0.551799 0.0475299 2.31982e-19)
(0.665008 0.0634979 -2.86057e-19)
(0.773465 0.0806254 6.53304e-20)
(0.872804 0.0977269 0)
(0.959682 0.113671 1.08407e-19)
(1.03205 0.127531 -2.00683e-19)
(1.08924 0.138681 4.75548e-20)
(1.1318 0.146841 1.22485e-19)
(1.16131 0.152046 -5.11973e-21)
(1.17996 0.154588 -1.37504e-19)
(1.19022 0.154925 0)
(1.19451 0.153558 0)
(1.19492 0.151066 -5.00272e-20)
(1.19307 0.147597 4.52815e-20)
(1.19022 0.144475 1.64578e-19)
(1.18713 0.139031 -1.54481e-19)
(-0.00452224 0.00361917 -6.81881e-20)
(0.0144945 0.00320162 -6.7836e-20)
(0.0600927 0.00324696 1.90796e-19)
(0.12883 0.00519429 -1.15601e-19)
(0.217594 0.0103336 1.08816e-19)
(0.322671 0.019554 1.97443e-19)
(0.439256 0.033 -1.39453e-19)
(0.561542 0.0501029 -1.69349e-19)
(0.683205 0.0697251 3.5181e-21)
(0.798137 0.0903744 2.16405e-19)
(0.901209 0.110469 0)
(0.988838 0.128598 5.96608e-20)
(1.05926 0.143718 0)
(1.11249 0.155256 -9.72908e-20)
(1.14999 0.163108 1.36644e-19)
(1.1742 0.16756 9.92602e-22)
(1.18803 0.169152 -3.62035e-20)
(1.1944 0.168539 6.74584e-20)
(1.19584 0.166365 5.89941e-20)
(1.19437 0.163176 -5.32537e-20)
(1.19137 0.159414 5.0015e-20)
(1.18777 0.15523 -4.52703e-20)
(1.18394 0.151407 0)
(1.18063 0.145864 -3.54686e-20)
(0.00128755 0.00117479 6.81784e-20)
(0.0357359 -0.00200949 7.15811e-20)
(0.100223 -0.00136268 -6.39261e-20)
(0.189946 0.00381245 1.18945e-19)
(0.300012 0.0141909 -1.11958e-19)
(0.424453 0.0299637 1.01072e-19)
(0.556012 0.0503646 -4.85515e-20)
(0.686775 0.0738199 1.27213e-19)
(0.809213 0.0983012 -8.00467e-20)
(0.91724 0.121733 1.41873e-19)
(1.00694 0.142363 -3.27647e-19)
(1.07684 0.159019 1.20631e-19)
(1.12763 0.171195 -1.05646e-19)
(1.16167 0.178993 9.92292e-20)
(1.18221 0.182956 8.60476e-20)
(1.19275 0.183868 7.58224e-20)
(1.19651 0.182554 -2.11511e-19)
(1.19607 0.179752 1.31285e-19)
(1.19332 0.176037 -5.89957e-20)
(1.18948 0.17181 1.5567e-19)
(1.18527 0.167331 -5.01242e-20)
(1.18105 0.162689 -1.2482e-19)
(1.17702 0.158315 1.15625e-19)
(1.17342 0.152741 3.5456e-20)
(0.0093861 -0.00112701 0)
(0.0631909 -0.00605006 6.08169e-22)
(0.149609 -0.00312599 1.33752e-19)
(0.261971 0.00718328 -1.25444e-19)
(0.392916 0.0244989 -1.12892e-19)
(0.533676 0.0478652 2.09768e-19)
(0.674522 0.0752496 -9.73923e-20)
(0.806149 0.103957 1.29814e-19)
(0.921156 0.131263 -2.74272e-21)
(1.01504 0.154955 -7.36733e-20)
(1.08643 0.173661 1.60987e-19)
(1.13666 0.18692 -2.37991e-19)
(1.16891 0.195039 0)
(1.18719 0.198827 -4.69927e-20)
(1.19557 0.199302 -1.2576e-19)
(1.1975 0.197459 3.95927e-20)
(1.19567 0.194126 1.40351e-21)
(1.19188 0.189913 -8.81581e-20)
(1.18728 0.185222 4.86671e-21)
(1.18249 0.180299 1.02264e-19)
(1.17782 0.17528 -4.60345e-20)
(1.17342 0.170236 -1.81519e-20)
(1.16929 0.165349 5.47828e-20)
(1.16556 0.159717 0)
(0.0200424 -0.00295128 0)
(0.0971134 -0.00798026 3.63066e-20)
(0.207856 -0.000712693 -1.749e-19)
(0.343178 0.0166985 6.34675e-20)
(0.492664 0.0422725 -5.97346e-20)
(0.644642 0.0734621 -5.4607e-20)
(0.787626 0.106806 -9.64689e-20)
(0.912361 0.138711 4.81463e-20)
(1.01326 0.166285 4.18254e-20)
(1.08876 0.187806 0)
(1.14064 0.202781 9.59231e-20)
(1.17283 0.2117 -1.43186e-19)
(1.19014 0.21564 1.06531e-19)
(1.19721 0.215876 4.70159e-20)
(1.19786 0.213596 -3.88565e-20)
(1.19491 0.209746 -3.26734e-20)
(1.19022 0.204996 -3.06e-20)
(1.18488 0.199775 9.11408e-20)
(1.1795 0.194336 0)
(1.17437 0.188821 4.6576e-20)
(1.16957 0.183305 3.98478e-20)
(1.16513 0.177837 -9.81569e-20)
(1.16099 0.172442 -6.84862e-20)
(1.15717 0.166735 6.32368e-20)
(0.0333944 -0.0038886 -3.94669e-20)
(0.1373 -0.00676911 -1.57904e-21)
(0.273745 0.00715587 3.56215e-20)
(0.430726 0.0334227 9.9531e-20)
(0.594565 0.0678847 2.89407e-20)
(0.751283 0.106138 -5.59808e-20)
(0.889103 0.143491 5.10595e-20)
(1.00062 0.176039 -4.4771e-20)
(1.08351 0.201434 8.04957e-20)
(1.13968 0.218992 3.43388e-20)
(1.17378 0.229327 -9.75868e-20)
(1.19144 0.2338 2.87642e-20)
(1.19799 0.233988 4.92789e-20)
(1.19778 0.231326 -2.42235e-20)
(1.1939 0.226928 0)
(1.18835 0.221565 3.63452e-20)
(1.18228 0.215716 6.18396e-20)
(1.17627 0.209659 1.08289e-20)
(1.17059 0.203544 -5.17844e-20)
(1.16535 0.19745 2.18177e-20)
(1.16054 0.191421 0)
(1.1561 0.185475 -1.73923e-20)
(1.15197 0.17958 -1.6681e-20)
(1.14808 0.173727 0)
(0.0493944 -0.0034834 0)
(0.182998 -0.00139468 2.07104e-20)
(0.34521 0.0215425 3.82461e-20)
(0.5209 0.0579195 -1.01689e-19)
(0.693533 0.101008 3.29177e-20)
(0.8482 0.144642 0)
(0.974719 0.183508 4.94881e-20)
(1.06912 0.214194 -6.91401e-20)
(1.13296 0.235526 -4.02667e-20)
(1.17139 0.248125 1.81804e-20)
(1.19094 0.253636 -2.92657e-20)
(1.19789 0.25401 7.09671e-20)
(1.19726 0.251014 3.56013e-20)
(1.19264 0.246008 -2.47133e-20)
(1.18627 0.239915 -2.27646e-21)
(1.17942 0.2333 -6.80313e-20)
(1.17272 0.226481 3.1016e-20)
(1.16645 0.219628 -8.26379e-22)
(1.1607 0.212825 0)
(1.15546 0.206119 -2.18405e-20)
(1.1507 0.199533 0)
(1.14632 0.193059 5.01787e-20)
(1.14223 0.186674 -6.00214e-20)
(1.13832 0.180591 2.74698e-20)
(0.0677653 -0.0012726 -1.08742e-20)
(0.232875 0.00904579 -5.21996e-20)
(0.41946 0.0431498 5.94468e-20)
(0.609517 0.0901618 3.48535e-20)
(0.784817 0.1407 -1.66139e-20)
(0.931408 0.187393 2.79996e-20)
(1.04248 0.225198 -1.35693e-20)
(1.11837 0.251964 2.26271e-20)
(1.16435 0.268057 0)
(1.18792 0.275366 5.13784e-20)
(1.19646 0.276293 -2.1212e-21)
(1.19603 0.273058 -4.14729e-20)
(1.19091 0.267378 1.77601e-20)
(1.18377 0.26041 -2.00577e-20)
(1.17611 0.252852 -7.63641e-21)
(1.16866 0.245093 8.84109e-21)
(1.16172 0.237328 -6.81589e-21)
(1.15541 0.229658 -3.72587e-20)
(1.14971 0.222129 2.28285e-20)
(1.14457 0.21477 4.68586e-21)
(1.13992 0.207586 4.14757e-21)
(1.13565 0.200549 3.67636e-21)
(1.13165 0.193696 0)
(1.12775 0.187274 0)
(0.0880476 0.00318103 1.08817e-20)
(0.285189 0.025246 -1.08535e-20)
(0.493365 0.0722184 -1.98184e-20)
(0.692573 0.129533 0)
(0.864665 0.185591 -8.26439e-21)
(0.998626 0.232773 -7.47452e-21)
(1.09223 0.267253 -1.27831e-20)
(1.15017 0.288667 0)
(1.18071 0.298978 0)
(1.19262 0.301095 0)
(1.19331 0.297845 0)
(1.18808 0.29146 0)
(1.18031 0.283453 -1.11425e-20)
(1.17185 0.274739 5.07129e-21)
(1.16361 0.265813 8.82917e-21)
(1.15597 0.256923 4.13767e-21)
(1.14905 0.248183 1.0226e-20)
(1.14285 0.239649 0)
(1.13732 0.231348 -2.46296e-21)
(1.13238 0.223291 -2.38096e-21)
(1.12793 0.215466 -4.15419e-21)
(1.12385 0.207847 -3.68224e-21)
(1.12001 0.200543 0)
(1.11625 0.193668 2.67689e-21)
(-0.000802959 -0.00994442 6.77049e-21)
(-0.00485979 -0.0236321 -7.03021e-21)
(-0.0127974 -0.0328839 -1.33149e-20)
(-0.0227611 -0.0387143 0)
(-0.0336961 -0.0420073 -1.78415e-20)
(-0.0450411 -0.0435136 5.61566e-21)
(-0.0564037 -0.0438246 -1.05559e-20)
(-0.0675125 -0.0433679 0)
(-0.0781966 -0.0424181 0)
(-0.0883536 -0.0411198 0)
(-0.0979239 -0.0395169 0)
(-0.106872 -0.0375827 0)
(-0.115176 -0.0352476 5.63685e-23)
(-0.122815 -0.0324198 -6.92217e-21)
(-0.12977 -0.029 1.28764e-20)
(-0.13602 -0.0248908 1.81648e-20)
(-0.141542 -0.0200021 5.57713e-21)
(-0.14632 -0.0142528 0)
(-0.150343 -0.00757186 5.01197e-21)
(-0.153617 9.93417e-05 -1.394e-20)
(-0.156202 0.00880983 -8.61943e-21)
(-0.158165 0.0185874 -8.03868e-21)
(-0.159643 0.0295082 0)
(-0.16114 0.0416537 0)
(-0.000558583 -0.00638139 -2.02957e-20)
(-0.00438329 -0.0152284 3.5058e-20)
(-0.0123005 -0.0213295 -1.31444e-20)
(-0.0223248 -0.0252059 -2.5076e-20)
(-0.0333212 -0.0274049 3.54778e-20)
(-0.044682 -0.0284334 -2.23069e-20)
(-0.0559853 -0.0286984 3.15346e-20)
(-0.0669429 -0.0284913 1.9712e-20)
(-0.0773758 -0.0279912 0)
(-0.0871779 -0.027279 -1.75764e-20)
(-0.0962878 -0.0263596 1.03391e-23)
(-0.104669 -0.0251854 1.55441e-20)
(-0.112295 -0.0236784 2.17079e-20)
(-0.119144 -0.0217455 2.71549e-20)
(-0.12519 -0.0192897 -1.29342e-20)
(-0.130405 -0.0162148 -3.59364e-20)
(-0.134758 -0.0124265 1.0954e-20)
(-0.138217 -0.00783022 -4.14528e-20)
(-0.140763 -0.00232758 0)
(-0.142403 0.00418343 9.22297e-21)
(-0.143161 0.0118076 8.6081e-21)
(-0.143027 0.020676 8.02793e-21)
(-0.142058 0.0309609 0)
(-0.141163 0.0428192 0)
(-0.000732051 -0.00278099 0)
(-0.00475545 -0.00678514 6.96909e-20)
(-0.0127017 -0.00978648 -2.6308e-20)
(-0.0225968 -0.0117976 2.49854e-20)
(-0.033305 -0.0130103 -7.04323e-20)
(-0.0442144 -0.0136736 0)
(-0.0549015 -0.0140011 -4.17306e-20)
(-0.065079 -0.0141449 1.95564e-20)
(-0.0745695 -0.0141885 -3.68143e-20)
(-0.0832688 -0.014152 1.7154e-20)
(-0.0911169 -0.0140046 9.74532e-20)
(-0.098077 -0.0136818 -4.57572e-20)
(-0.104122 -0.0131001 -7.14718e-20)
(-0.109226 -0.0121688 -2.6372e-20)
(-0.113361 -0.0107964 2.59243e-22)
(-0.11649 -0.00889284 9.34077e-20)
(-0.118573 -0.00636704 -4.37164e-20)
(-0.119562 -0.00312158 4.79243e-22)
(-0.119414 0.000955558 0)
(-0.118104 0.00600417 -3.45837e-20)
(-0.115625 0.0121997 0)
(-0.111883 0.0197723 -3.0321e-20)
(-0.106724 0.0290348 1.11903e-19)
(-0.101356 0.0402931 -4.14821e-22)
(-0.0013008 0.000651507 0)
(-0.00593809 0.0012495 -4.23954e-24)
(-0.0139758 0.00116879 2.63145e-20)
(-0.0235755 0.00087439 -2.48518e-20)
(-0.0336723 0.000520114 2.34012e-20)
(-0.0436907 0.000112428 1.32398e-19)
(-0.0532329 -0.000371145 -4.1539e-20)
(-0.0620295 -0.000945212 -3.90202e-20)
(-0.0699148 -0.00160052 7.34275e-20)
(-0.076792 -0.00229857 -1.03325e-19)
(-0.0826049 -0.0029756 3.22427e-20)
(-0.0873183 -0.00355154 3.01323e-20)
(-0.0909052 -0.00393927 0)
(-0.0933388 -0.00405179 2.65747e-20)
(-0.0945876 -0.00380611 0)
(-0.0946134 -0.00312312 4.56048e-20)
(-0.0933695 -0.00192454 -8.49605e-20)
(-0.0907996 -0.000125536 2.09602e-20)
(-0.0868385 0.00237756 7.40295e-20)
(-0.0814301 0.00572694 3.45519e-20)
(-0.0745442 0.0101334 0)
(-0.0660432 0.015936 -8.73241e-20)
(-0.055451 0.0237046 2.77669e-20)
(-0.043645 0.0341567 0)
(-0.00221152 0.00375301 0)
(-0.00782895 0.0085089 -8.35258e-20)
(-0.0160204 0.0110544 -2.64898e-20)
(-0.0251761 0.0122682 -4.97048e-20)
(-0.03436 0.012619 4.68037e-20)
(-0.0430684 0.0123527 -4.41078e-20)
(-0.0509529 0.0116277 8.28923e-20)
(-0.0577771 0.0105599 3.88866e-20)
(-0.0633954 0.00924708 -1.09822e-19)
(-0.067722 0.0077834 6.84375e-20)
(-0.0707051 0.00626453 -9.63176e-20)
(-0.0723103 0.00478606 2.09721e-19)
(-0.0725091 0.00343991 -1.12485e-19)
(-0.0712719 0.00231116 5.21187e-20)
(-0.068565 0.00147666 1.45415e-19)
(-0.0643482 0.00100447 -4.65495e-20)
(-0.0585739 0.000957348 -4.28102e-20)
(-0.0511856 0.00139783 -3.97284e-20)
(-0.0421135 0.0023975 0)
(-0.031285 0.00405666 -6.59184e-20)
(-0.0186552 0.00654349 -5.95811e-20)
(-0.00410275 0.0102107 8.61079e-20)
(0.0131079 0.0159133 1.03451e-19)
(0.0329845 0.0251752 -9.67505e-20)
(-0.00339143 0.00641251 0)
(-0.0102762 0.0147269 -1.11932e-19)
(-0.0186588 0.0195036 -2.3977e-22)
(-0.0272165 0.0219564 9.95323e-20)
(-0.0351823 0.0228268 0)
(-0.0421512 0.0225754 0)
(-0.0478422 0.0215258 0)
(-0.052063 0.0199135 -3.88104e-20)
(-0.0546925 0.0179187 2.32651e-22)
(-0.0556554 0.0156883 6.85388e-20)
(-0.0549012 0.0133497 -9.56997e-20)
(-0.0523906 0.0110156 2.99432e-22)
(-0.0480867 0.00878615 0)
(-0.0419502 0.00674957 -5.20979e-20)
(-0.0339401 0.00498381 4.75226e-20)
(-0.0240102 0.00355317 -1.34788e-19)
(-0.012111 0.00251379 1.65483e-19)
(0.00180751 0.00191279 3.6248e-20)
(0.0178006 0.00179334 -2.53105e-21)
(0.0359254 0.00220022 -1.31783e-19)
(0.0562035 0.00319859 -5.95669e-20)
(0.078685 0.00499281 1.91361e-19)
(0.104142 0.00846039 -1.26597e-19)
(0.13491 0.0159281 0)
(-0.00475915 0.00856931 5.45614e-20)
(-0.0130914 0.0197359 5.60124e-20)
(-0.0216408 0.0262659 -5.32834e-20)
(-0.0293973 0.029632 -1.00068e-19)
(-0.0357862 0.0308033 9.42252e-20)
(-0.0405172 0.0304273 -8.84965e-20)
(-0.0433872 0.0289727 1.24938e-19)
(-0.0442516 0.0267823 -3.87167e-20)
(-0.0430119 0.0241111 7.3233e-20)
(-0.0395969 0.0211565 0)
(-0.0339481 0.0180775 6.34515e-20)
(-0.0260101 0.0150075 -1.19625e-19)
(-0.0157282 0.012061 1.10602e-19)
(-0.00304262 0.00933617 -1.03882e-19)
(0.0121026 0.00691611 0)
(0.0297574 0.00487587 8.90086e-20)
(0.049968 0.00327961 1.62955e-19)
(0.0727668 0.00217959 -1.53252e-19)
(0.0981712 0.00161712 -6.97371e-20)
(0.12618 0.00161836 -6.32787e-20)
(0.156734 0.00218759 1.79101e-19)
(0.189859 0.00335073 5.23365e-20)
(0.224809 0.00546009 -5.03964e-20)
(0.27152 0.0117452 4.47731e-20)
(-0.00623187 0.0102039 -5.45689e-20)
(-0.0160563 0.0234527 1.70405e-19)
(-0.0246365 0.0311963 -5.3622e-20)
(-0.0312777 0.0351043 1.00715e-19)
(-0.0356047 0.0363324 -9.48335e-20)
(-0.0374474 0.035687 4.03474e-22)
(-0.0366806 0.0337614 4.19695e-20)
(-0.0332017 0.0309923 1.56518e-19)
(-0.0269254 0.0277027 -7.29202e-22)
(-0.0177728 0.0241379 -6.87985e-20)
(-0.00566507 0.0204915 0)
(0.00947979 0.0169219 -5.90622e-20)
(0.0277392 0.0135606 1.11494e-19)
(0.0491801 0.0105219 1.02488e-19)
(0.0738612 0.00790772 -4.84733e-20)
(0.101815 0.00581057 -1.63825e-22)
(0.133036 0.00430757 -4.10227e-20)
(0.167477 0.00346513 7.52865e-20)
(0.205042 0.00333484 6.97232e-20)
(0.245598 0.00395711 -6.40884e-20)
(0.288753 0.00529704 5.83524e-20)
(0.335352 0.00757729 -5.33686e-20)
(0.3795 0.00979896 0)
(0.446849 0.0172423 -4.47113e-20)
(-0.0077267 0.0113232 5.54878e-20)
(-0.0189201 0.0258535 -5.69964e-20)
(-0.0272232 0.0342333 5.43241e-20)
(-0.0322482 0.0382856 0)
(-0.0338145 0.0393196 0)
(-0.0318662 0.0382751 9.00878e-20)
(-0.026346 0.0358514 -8.41694e-20)
(-0.0171807 0.0325666 7.84041e-20)
(-0.00428522 0.028806 -3.6784e-19)
(0.0124366 0.0248624 4.23648e-22)
(0.0330838 0.0209654 6.41414e-20)
(0.0577473 0.0173013 0)
(0.0864982 0.0140274 -1.10337e-19)
(0.119369 0.0112811 2.05974e-19)
(0.156332 0.00918092 -1.43884e-19)
(0.197294 0.00782605 -2.19367e-19)
(0.242077 0.00729941 2.8673e-21)
(0.29041 0.00766514 1.51371e-19)
(0.341924 0.00896 0)
(0.396287 0.0112568 0)
(0.452197 0.0142656 -5.83457e-20)
(0.512709 0.0190835 5.33613e-20)
(0.563297 0.022332 -1.91689e-19)
(0.649733 0.0330155 1.79927e-19)
(-0.00915613 0.0119457 0)
(-0.0213871 0.0269481 0)
(-0.028867 0.0353754 -1.6354e-19)
(-0.0315052 0.0391772 5.19613e-20)
(-0.0293048 0.03979 3.63266e-22)
(-0.0223099 0.0382668 9.12863e-20)
(-0.0105164 0.035397 0)
(0.00613014 0.0317704 -7.93515e-20)
(0.0277153 0.0278302 7.37387e-20)
(0.054334 0.0239157 -1.37572e-19)
(0.0860646 0.020295 5.4594e-22)
(0.122937 0.0171853 1.1891e-19)
(0.164902 0.0147658 -1.30532e-21)
(0.211807 0.0131814 1.0093e-19)
(0.263368 0.0125455 -1.44472e-19)
(0.319164 0.0129396 0)
(0.378633 0.0144111 1.61088e-19)
(0.441086 0.016973 -2.26207e-19)
(0.50568 0.0205762 6.86447e-20)
(0.571807 0.0253153 0)
(0.637115 0.030455 5.77792e-20)
(0.706426 0.0380211 2.09967e-19)
(0.759416 0.0424652 -1.97047e-19)
(0.852468 0.0560962 -2.22611e-19)
(-0.0104184 0.0120878 1.71082e-19)
(-0.0230974 0.0267597 -2.35609e-19)
(-0.0289025 0.0346685 3.44637e-22)
(-0.0280374 0.037871 5.25049e-20)
(-0.0206773 0.0379098 -9.80227e-20)
(-0.00695311 0.0359357 -9.08153e-20)
(0.0130917 0.0328166 1.69979e-19)
(0.0394801 0.0292058 -1.68075e-21)
(0.0722565 0.0255992 -1.49205e-19)
(0.111434 0.0223783 2.76382e-19)
(0.15694 0.0198405 -1.48926e-21)
(0.208566 0.0182152 -1.20476e-19)
(0.265923 0.0176727 0)
(0.32842 0.0183256 0)
(0.395252 0.0202281 -4.76675e-20)
(0.465424 0.0233751 -8.77681e-20)
(0.537781 0.0277033 -1.60505e-19)
(0.611065 0.0330936 1.50662e-19)
(0.683944 0.0393602 -6.86683e-20)
(0.755323 0.0464257 1.2427e-19)
(0.823002 0.0535298 -6.0553e-20)
(0.890187 0.0622752 1.02266e-19)
(0.940981 0.0675766 -2.44538e-19)
(1.02099 0.0810439 4.43197e-20)
(-0.011384 0.011758 5.77834e-20)
(-0.0235995 0.0253205 0)
(-0.0265028 0.0322113 1.12293e-19)
(-0.0206061 0.0345695 -1.05785e-19)
(-0.00625253 0.0340245 9.81111e-20)
(0.0163376 0.0318121 0)
(0.0470452 0.0288652 0)
(0.0857905 0.025888 -7.98467e-20)
(0.132449 0.0234128 1.40787e-21)
(0.186762 0.0218391 7.04567e-20)
(0.248253 0.0214556 -6.40394e-20)
(0.316176 0.02245 1.20847e-19)
(0.389485 0.0249131 0)
(0.46685 0.0288398 2.04276e-19)
(0.546709 0.0341322 -3.80285e-19)
(0.627341 0.0406066 2.64776e-19)
(0.706974 0.0480098 1.59596e-19)
(0.783872 0.0560214 -1.49813e-19)
(0.856482 0.064336 0)
(0.923376 0.0725085 0)
(0.983647 0.0803821 0)
(1.03697 0.0875824 0)
(1.07946 0.0931354 4.82994e-20)
(1.12982 0.10138 -1.77132e-19)
(-0.163682 0.0569709 -5.01421e-21)
(-0.166425 0.0763305 5.0364e-21)
(-0.168159 0.0975104 -1.47732e-22)
(-0.169019 0.120067 0)
(-0.168851 0.143433 -4.49409e-21)
(-0.167473 0.166879 8.70976e-21)
(-0.164715 0.189494 -2.1816e-23)
(-0.160416 0.210168 -4.08118e-21)
(-0.154414 0.227566 0)
(-0.146529 0.240134 0)
(-0.136558 0.246217 -2.40566e-22)
(-0.124259 0.244005 -2.39764e-22)
(-0.10935 0.231681 -4.02482e-21)
(-0.0915336 0.20752 3.67815e-21)
(-0.0702711 0.170057 0)
(-0.0455895 0.119298 0)
(-0.0179376 0.0552086 3.69329e-21)
(0.012367 -0.0205931 -2.32042e-23)
(0.0447323 -0.10439 -3.24032e-21)
(0.0774619 -0.191146 -2.08727e-22)
(0.108205 -0.274503 0)
(0.133373 -0.34838 0)
(0.148689 -0.40817 0)
(0.150502 -0.453536 0)
(0.138359 -0.485536 0)
(0.118559 -0.500859 0)
(0.105595 -0.488555 5.17579e-22)
(0.114972 -0.433989 -8.04975e-22)
(0.15309 -0.330737 0)
(0.212168 -0.188722 0)
(0.281201 -0.0284353 -7.1775e-22)
(0.352386 0.126887 6.97538e-22)
(0.41822 0.254808 2.74471e-22)
(0.471609 0.342233 0)
(0.508306 0.388028 0)
(0.520602 0.405841 2.73983e-22)
(0.493652 0.41776 -2.66331e-22)
(0.432521 0.425879 0)
(0.381471 0.396007 2.34655e-22)
(0.386549 0.296653 -3.61436e-22)
(0.444213 0.145142 1.37074e-22)
(0.524197 -0.00934513 0)
(0.600257 -0.130596 -1.65354e-22)
(0.660137 -0.205358 1.60782e-22)
(0.699312 -0.236699 0)
(0.721802 -0.236047 0)
(0.719625 -0.219992 -8.39445e-24)
(0.694073 -0.199216 1.39366e-23)
(0.657936 -0.17089 0)
(0.645706 -0.125221 0)
(0.661339 -0.0674916 -4.19111e-25)
(0.704575 -0.00738953 2.42785e-24)
(0.743007 0.0358226 -1.31182e-24)
(0.782863 0.0667295 -4.13069e-24)
(0.797139 0.0756361 0)
(0.813078 0.0798523 0)
(0.807531 0.0695337 0)
(0.819151 0.0551493 0)
(0.816847 0.040475 0)
(0.842565 0.0103723 0)
(-0.142407 0.0580195 -4.61073e-22)
(-0.143659 0.0764275 -1.90806e-20)
(-0.143441 0.096572 2.605e-22)
(-0.142146 0.118061 1.76657e-20)
(-0.139567 0.140279 2.65521e-22)
(-0.13544 0.162513 0)
(-0.129525 0.183878 -1.62174e-20)
(-0.121612 0.203278 3.21847e-20)
(-0.11152 0.219375 -1.5968e-20)
(-0.0989997 0.230527 1.58909e-20)
(-0.0838461 0.235185 -1.5205e-20)
(-0.0658688 0.231438 1.57637e-20)
(-0.0449055 0.217458 -1.53318e-20)
(-0.0210019 0.191577 -5.15754e-22)
(0.00644988 0.152546 -1.65041e-20)
(0.0371394 0.0999402 1.60386e-20)
(0.0699581 0.0341574 -1.62396e-20)
(0.104452 -0.0425815 1.52694e-20)
(0.139712 -0.126718 -1.49498e-20)
(0.174112 -0.212815 2.79326e-20)
(0.20535 -0.2938 -1.3036e-20)
(0.2299 -0.362631 -6.89293e-22)
(0.243371 -0.41469 -8.38602e-21)
(0.241099 -0.450333 1.50329e-20)
(0.220228 -0.473619 -6.68946e-21)
(0.183622 -0.486083 3.05769e-22)
(0.144635 -0.480369 4.73934e-21)
(0.122805 -0.440254 3.13848e-22)
(0.133353 -0.352133 -9.32506e-21)
(0.175121 -0.219555 9.69678e-21)
(0.235879 -0.0628101 -4.85392e-21)
(0.303968 0.0926101 5.33148e-22)
(0.370202 0.224788 -2.75047e-22)
(0.426929 0.319717 4.09315e-22)
(0.466723 0.376309 0)
(0.477226 0.409015 0)
(0.447499 0.434896 -1.03526e-21)
(0.394848 0.4451 7.42039e-22)
(0.367844 0.401516 8.45117e-22)
(0.398488 0.283675 2.30101e-22)
(0.471979 0.12078 -1.30181e-21)
(0.559164 -0.0358966 2.85598e-22)
(0.636682 -0.153035 0)
(0.694153 -0.221124 0)
(0.728579 -0.246262 0)
(0.74787 -0.239759 0)
(0.748283 -0.217068 4.6265e-23)
(0.727366 -0.191043 -5.77721e-24)
(0.688743 -0.163234 0)
(0.663181 -0.123663 0)
(0.661852 -0.0729728 0)
(0.69158 -0.0163004 7.68418e-24)
(0.723381 0.0271252 3.93613e-24)
(0.759944 0.0606021 5.47229e-24)
(0.7753 0.0722323 0)
(0.792509 0.0784009 0)
(0.7932 0.0684523 -7.46966e-24)
(0.810211 0.0536017 -1.70984e-23)
(0.815093 0.0377587 0)
(0.846832 0.0075837 0)
(-0.099809 0.0552614 2.13481e-23)
(-0.0995068 0.0726636 -3.69204e-20)
(-0.0970537 0.0917342 3.60217e-20)
(-0.0933498 0.112167 -3.36999e-20)
(-0.0882016 0.133235 -2.6734e-22)
(-0.0812301 0.154189 0)
(-0.0721358 0.174246 -3.27232e-20)
(-0.0607012 0.192319 3.20576e-20)
(-0.0468269 0.207088 2.48301e-22)
(-0.030116 0.217037 4.97796e-22)
(-0.0102915 0.220463 5.05549e-22)
(0.0126133 0.215475 5.02788e-22)
(0.0387284 0.200279 -3.42146e-20)
(0.0678971 0.173266 3.37689e-20)
(0.100105 0.133572 0)
(0.134948 0.0802309 1.11773e-21)
(0.171389 0.0139702 -3.49247e-20)
(0.208588 -0.0627604 3.44493e-20)
(0.245413 -0.146475 0)
(0.280287 -0.231444 0)
(0.31089 -0.31007 -2.57352e-20)
(0.333777 -0.374477 4.65178e-20)
(0.345002 -0.419351 -3.73433e-20)
(0.340301 -0.444871 3.46746e-21)
(0.315582 -0.457136 2.34949e-20)
(0.269437 -0.462576 -1.9418e-20)
(0.210553 -0.459247 1.55946e-20)
(0.158732 -0.432641 -4.75386e-22)
(0.13673 -0.363721 -7.07754e-21)
(0.153856 -0.246574 0)
(0.200987 -0.0972335 0)
(0.263172 0.0571815 2.79585e-21)
(0.328116 0.193043 -3.65475e-21)
(0.385867 0.295887 -5.12554e-23)
(0.425615 0.364789 2.56181e-21)
(0.433596 0.412937 -2.48966e-21)
(0.405565 0.450091 0)
(0.368164 0.458114 2.65399e-22)
(0.367303 0.399639 2.94132e-21)
(0.420319 0.266035 -6.0998e-21)
(0.50667 0.0949841 2.71098e-21)
(0.598872 -0.0620318 3.52174e-22)
(0.675903 -0.174202 -2.12143e-21)
(0.729801 -0.235243 1.58268e-21)
(0.758887 -0.254379 2.12025e-22)
(0.77317 -0.243278 1.14061e-22)
(0.773833 -0.21544 -4.63808e-23)
(0.75811 -0.18398 0)
(0.721662 -0.154518 0)
(0.687965 -0.118917 1.25203e-22)
(0.671783 -0.0748631 -5.44793e-23)
(0.686569 -0.0227017 5.33457e-23)
(0.709663 0.0197434 -5.65917e-23)
(0.741054 0.0548203 -7.72798e-23)
(0.757349 0.0685537 1.49854e-23)
(0.776217 0.076085 -3.51047e-23)
(0.784377 0.0661087 3.02841e-23)
(0.807107 0.0507777 -1.03351e-23)
(0.819308 0.0338211 0)
(0.855748 0.00428981 0)
(-0.0383614 0.0488398 -7.33787e-20)
(-0.0369345 0.065393 1.11469e-21)
(-0.0324602 0.0832062 6.84948e-20)
(-0.0264464 0.102182 -5.32922e-22)
(-0.019052 0.121819 0)
(-0.00959154 0.141511 0)
(0.00236424 0.160354 -6.4778e-20)
(0.0169458 0.177195 -2.3399e-21)
(0.0342679 0.190749 9.54926e-20)
(0.0545909 0.199697 9.59338e-22)
(0.0781634 0.202168 -3.2598e-20)
(0.104997 0.196406 -3.36417e-20)
(0.135096 0.180683 3.37202e-20)
(0.168202 0.153398 0)
(0.203935 0.113604 -3.7189e-20)
(0.241663 0.060598 3.38386e-20)
(0.280613 -0.0049794 0)
(0.319651 -0.0807869 0)
(0.357373 -0.16341 3.31456e-20)
(0.39215 -0.24694 -2.33536e-21)
(0.421384 -0.32331 -2.81653e-20)
(0.441502 -0.383875 -2.21644e-20)
(0.449139 -0.42254 2.20138e-20)
(0.441411 -0.438952 -1.36618e-20)
(0.415201 -0.439644 3.19671e-21)
(0.366596 -0.43442 9.70052e-21)
(0.297473 -0.427731 8.18926e-22)
(0.222416 -0.410179 1.02991e-22)
(0.167176 -0.361163 0)
(0.152565 -0.265226 5.7937e-21)
(0.178689 -0.12921 -5.93306e-21)
(0.230225 0.0215748 4.3273e-22)
(0.290857 0.160356 0)
(0.346953 0.271627 -3.62652e-22)
(0.38488 0.353615 4.81905e-21)
(0.392117 0.416129 -8.76502e-21)
(0.371376 0.461075 -8.70837e-22)
(0.354224 0.46392 -6.9845e-22)
(0.378968 0.391373 4.47328e-21)
(0.450996 0.24535 7.37127e-22)
(0.547671 0.0690215 -5.88591e-21)
(0.642736 -0.0870075 5.07699e-21)
(0.717268 -0.193663 -3.84489e-23)
(0.766238 -0.247609 1.16351e-21)
(0.789703 -0.2609 -1.34381e-21)
(0.798176 -0.246095 -6.80841e-22)
(0.796817 -0.214733 2.27846e-22)
(0.785263 -0.178538 -6.4884e-23)
(0.754031 -0.146013 2.03992e-22)
(0.717613 -0.112093 -2.06392e-22)
(0.690456 -0.0734784 5.63432e-23)
(0.690637 -0.0262996 -7.42063e-23)
(0.703803 0.0140572 -7.09497e-23)
(0.728551 0.0495773 1.35746e-22)
(0.745582 0.0645677 -3.73125e-24)
(0.766319 0.0727634 3.71946e-23)
(0.782414 0.0624088 0)
(0.810483 0.0467026 1.45218e-23)
(0.829354 0.0288364 -5.1591e-24)
(0.868636 0.000641584 0)
(0.0416324 0.0393587 7.18737e-20)
(0.0433333 0.0551833 -1.39723e-19)
(0.0480252 0.0714832 6.71179e-20)
(0.0552264 0.0886883 6.57889e-20)
(0.0643859 0.106808 -1.29112e-19)
(0.0757914 0.125258 -6.68756e-22)
(0.0897697 0.142927 6.27211e-20)
(0.106594 0.158645 6.43609e-20)
(0.12642 0.17116 -6.30547e-20)
(0.149427 0.17915 0)
(0.175774 0.180935 -6.8906e-20)
(0.205474 0.174829 1.38125e-19)
(0.238419 0.159148 -6.91474e-20)
(0.274277 0.132331 0)
(0.312519 0.0933175 0)
(0.352386 0.0415372 1.18184e-21)
(0.393185 -0.0223561 -7.64756e-20)
(0.433609 -0.0964341 7.42866e-20)
(0.472072 -0.177275 0)
(0.506595 -0.25883 6.3723e-20)
(0.534073 -0.332577 -1.13007e-19)
(0.550625 -0.389285 9.51872e-20)
(0.553262 -0.422648 -7.78318e-20)
(0.540629 -0.43211 7.49524e-21)
(0.512164 -0.423312 4.44004e-20)
(0.464752 -0.406588 -1.86204e-20)
(0.394979 -0.391481 -3.73842e-22)
(0.308236 -0.376167 -3.41101e-21)
(0.225964 -0.343212 1.52347e-22)
(0.176485 -0.270963 3.3494e-21)
(0.173508 -0.154387 3.07305e-22)
(0.207309 -0.0121189 -4.39911e-21)
(0.258985 0.127827 8.73276e-21)
(0.310693 0.247124 -4.80432e-21)
(0.346514 0.341679 0)
(0.356259 0.416416 -5.08061e-21)
(0.347997 0.46596 4.96606e-21)
(0.353587 0.462427 -5.20738e-21)
(0.401637 0.378043 6.4663e-21)
(0.489566 0.222865 -9.12046e-22)
(0.594181 0.0434913 0)
(0.689999 -0.110238 -7.58474e-22)
(0.760192 -0.210935 1.68168e-21)
(0.802807 -0.258014 0)
(0.820323 -0.265779 1.90912e-21)
(0.822958 -0.247879 -9.04816e-22)
(0.817989 -0.214429 9.15103e-23)
(0.808654 -0.174783 -8.86303e-24)
(0.783801 -0.138695 0)
(0.749302 -0.104462 0)
(0.716117 -0.0695701 2.68835e-22)
(0.703929 -0.0271519 -4.23975e-22)
(0.707178 0.0102622 2.24403e-22)
(0.724494 0.0450165 -6.87661e-23)
(0.741934 0.0602861 -1.01132e-22)
(0.764435 0.0684209 -3.72301e-23)
(0.788006 0.0574277 5.10855e-23)
(0.820343 0.0415527 0)
(0.844558 0.0230961 1.26442e-23)
(0.884537 -0.00316864 1.84344e-24)
(0.14475 0.0293811 7.12881e-20)
(0.145122 0.0440844 -7.07362e-20)
(0.147347 0.0585863 5.29484e-22)
(0.153381 0.0738697 -5.02485e-22)
(0.162295 0.0902426 5.04339e-22)
(0.173802 0.107049 -4.97861e-22)
(0.188156 0.12324 9.71595e-22)
(0.205687 0.13768 0)
(0.226567 0.149166 -9.94288e-22)
(0.250911 0.156364 1.01889e-21)
(0.278788 0.157728 1.05095e-21)
(0.310155 0.151625 -1.09641e-21)
(0.344829 0.136444 0)
(0.382417 0.110675 0)
(0.422329 0.0731305 1.19914e-21)
(0.463819 0.0230042 0)
(0.506064 -0.038234 -1.21565e-21)
(0.547654 -0.109743 0)
(0.586758 -0.188014 -6.80161e-20)
(0.620865 -0.266835 1.29188e-19)
(0.646172 -0.337319 -1.13439e-19)
(0.658398 -0.389958 5.24899e-20)
(0.654987 -0.418673 3.43659e-20)
(0.635991 -0.423128 -3.33732e-20)
(0.603321 -0.408071 -1.84681e-20)
(0.556883 -0.382125 1.77499e-20)
(0.492149 -0.356356 0)
(0.405857 -0.33631 1.41679e-22)
(0.308944 -0.312184 0)
(0.228831 -0.261519 0)
(0.191508 -0.168624 4.24478e-21)
(0.199635 -0.0410492 -4.24132e-21)
(0.236275 0.0965319 2.58171e-22)
(0.280442 0.221894 4.78513e-22)
(0.31447 0.327253 -3.76587e-22)
(0.329924 0.411793 -4.26464e-21)
(0.337576 0.463793 4.14091e-21)
(0.365827 0.454306 -7.00451e-21)
(0.433917 0.361003 6.13488e-21)
(0.534847 0.199613 1.90935e-21)
(0.64519 0.0193817 -6.97794e-21)
(0.739793 -0.131131 3.12018e-22)
(0.804008 -0.225578 4.29289e-21)
(0.839008 -0.266253 0)
(0.850125 -0.269051 -9.75731e-22)
(0.847258 -0.248529 4.69481e-22)
(0.837995 -0.214054 -7.0074e-22)
(0.828769 -0.172437 8.91918e-24)
(0.809794 -0.133121 0)