/*--------------------------------*- C++ -*----------------------------------*\
| =========                 |                                                 |
| \\      /  F ield         | OpenFOAM: The Open Source CFD Toolbox           |
|  \\    /   O peration     | Version:  2512                                  |
|   \\  /    A nd           | Website:  www.openfoam.com                      |
|    \\/     M anipulation  |                                                 |
\*---------------------------------------------------------------------------*/
FoamFile
{
    version     2.0;
    format      ascii;
    arch        "LSB;label=32;scalar=64";
    class       surfaceScalarField;
    location    "51.25";
    object      phi;
}
// * * * * * * * * * * * * * * * * * * * * * * * * * * * * * * * * * * * * * //

dimensions      [0 3 -1 0 0 0 0];

oriented        oriented;

internalField   nonuniform List<scalar> 
26232
(
3.84577e-05
0.00090696
-0.000945417
0.000295195
0.00172573
-0.00198247
0.000907239
0.00171176
-0.0023238
0.00201055
0.000929878
-0.00203319
0.00374329
-0.00058144
-0.0011513
0.00624497
-0.0028006
0.000298923
0.00965167
-0.00571469
0.00230799
0.0140873
-0.00931003
0.00487446
0.0196519
-0.0135617
0.00799702
0.026409
-0.0184246
0.0116676
0.0343731
-0.023829
0.0158649
0.0435015
-0.0296786
0.0205501
0.0536911
-0.035855
0.0256654
0.0647815
-0.0422246
0.0311342
0.0765644
-0.0486479
0.0368651
0.0887979
-0.0549904
0.0427568
0.101225
-0.0611315
0.0487047
0.113591
-0.0669737
0.0546077
0.125663
-0.0724451
0.0603726
0.137251
-0.0775149
0.0659271
0.148197
-0.0821536
0.0712076
0.158432
-0.0864419
0.0762067
0.167871
-0.0902878
0.0808493
-0.0940359
0.0856637
0.176243
8.71298e-05
0.00081983
0.000514261
0.0012986
0.00144289
0.000783124
0.0030319
-0.000659126
0.00543921
-0.00298875
0.00881599
-0.00617738
0.0132952
-0.0101939
0.0189759
-0.0149907
0.0259059
-0.0204916
0.0340671
-0.0265858
0.0433671
-0.033129
0.0536398
-0.0399513
0.0646553
-0.0468704
0.0761384
-0.0537077
0.0877932
-0.0603027
0.0993289
-0.0665261
0.110486
-0.0722882
0.121055
-0.0775429
0.130897
-0.082287
0.13994
-0.086558
0.148197
-0.0904111
0.155727
-0.0939714
0.162645
-0.0972057
-0.100559
0.169168
0.000148152
0.000671678
0.000781986
0.000664764
0.00208754
-0.000522426
0.00424387
-0.00281546
0.00741976
-0.00616464
0.0117597
-0.0105173
0.0173635
-0.0157977
0.0242642
-0.0218914
0.0324102
-0.0286376
0.0416576
-0.0358332
0.0517764
-0.0432478
0.0624703
-0.0506452
0.073407
-0.0578072
0.0842536
-0.0645543
0.0947109
-0.0707601
0.104543
-0.0763582
0.113596
-0.0813413
0.121807
-0.0857535
0.129197
-0.0896777
0.135861
-0.0932217
0.141947
-0.0964967
0.147604
-0.0996284
0.153039
-0.102641
-0.105857
0.158337
0.00022514
0.000446539
0.00110754
-0.000217633
0.00285287
-0.00226776
0.00565058
-0.00561317
0.00966102
-0.0101751
0.0149906
-0.0158468
0.0216633
-0.0224704
0.029599
-0.0298271
0.0386063
-0.0376449
0.0483957
-0.0456227
0.0586115
-0.0534637
0.0688759
-0.0609095
0.0788356
-0.0677669
0.0882033
-0.073922
0.0967857
-0.0793425
0.104496
-0.0840682
0.111348
-0.0881933
0.117439
-0.0918446
0.122921
-0.0951596
0.127968
-0.098269
0.132752
-0.10128
0.137412
-0.104289
0.14208
-0.107309
-0.110549
0.146772
0.0003202
0.000126339
0.00149367
-0.00139111
0.00373436
-0.00450845
0.00722301
-0.00910181
0.0120806
-0.0150327
0.0183329
-0.0220991
0.0258818
-0.0300194
0.0344974
-0.0384427
0.0438377
-0.0469853
0.0534946
-0.0552795
0.0630524
-0.0630215
0.0721472
-0.0700043
0.0805115
-0.0761312
0.0879987
-0.0814091
0.0945833
-0.0859271
0.100342
-0.0898267
0.10542
-0.0932711
0.109994
-0.096419
0.114241
-0.0994064
0.118311
-0.102339
0.122319
-0.105289
0.126338
-0.108308
0.130427
-0.111398
-0.114697
0.134575
0.000433429
-0.00030709
0.00193496
-0.00289263
0.00470757
-0.00728106
0.00889402
-0.0132883
0.0145351
-0.0206738
0.0215308
-0.0290948
0.0296263
-0.0381149
0.0384371
-0.0472534
0.0475072
-0.0560554
0.0563857
-0.064158
0.0646978
-0.0713336
0.0721932
-0.0774997
0.078764
-0.082702
0.0844324
-0.0870775
0.0893171
-0.0908118
0.09359
-0.0940996
0.0974349
-0.097116
0.101017
-0.100001
0.104466
-0.102856
0.107874
-0.105747
0.1113
-0.108714
0.114775
-0.111783
0.118328
-0.114952
-0.118298
0.121929
0.000562591
-0.000869681
0.00241665
-0.00474669
0.00572676
-0.0105912
0.0105599
-0.0181214
0.0168329
-0.0269467
0.0242857
-0.0365476
0.0325034
-0.0463326
0.0409863
-0.0557364
0.0492445
-0.0643136
0.0568835
-0.071797
0.0636579
-0.078108
0.0694835
-0.0833253
0.074413
-0.0876315
0.0785908
-0.0912553
0.0822017
-0.0944227
0.0854287
-0.0973266
0.0884261
-0.100113
0.091309
-0.102884
0.0941548
-0.105702
0.0970118
-0.108604
0.0999077
-0.11161
0.102856
-0.114731
0.10587
-0.117965
-0.121349
0.108921
0.000703
-0.00157268
0.00291489
-0.00695859
0.00672762
-0.0144039
0.0120911
-0.0234849
0.018763
-0.0336186
0.026316
-0.0441006
0.034212
-0.0542286
0.0419141
-0.0634385
0.0489925
-0.0713919
0.0551872
-0.0779918
0.0604184
-0.0833392
0.0647532
-0.08766
0.0683494
-0.0912278
0.0713989
-0.0943048
0.0740834
-0.0971073
0.0765505
-0.0997937
0.0789064
-0.102469
0.0812205
-0.105198
0.0835351
-0.108016
0.0858739
-0.110943
0.0882496
-0.113986
0.0906673
-0.117149
0.0931317
-0.12043
-0.123838
0.0956203
0.000847587
-0.00242027
0.00339832
-0.00950932
0.00763401
-0.0186396
0.0133513
-0.0292022
0.0201347
-0.040402
0.0274181
-0.051384
0.0346107
-0.0614212
0.0412269
-0.0700548
0.0469678
-0.0771328
0.0517357
-0.0827596
0.0555953
-0.0871989
0.0587095
-0.0907742
0.0612747
-0.093793
0.0634741
-0.0965042
0.0654533
-0.0990865
0.0673149
-0.101655
0.0691243
-0.104279
0.0709203
-0.106994
0.0727245
-0.10982
0.0745483
-0.112766
0.0763972
-0.115835
0.0782731
-0.119025
0.0801763
-0.122333
-0.125753
0.0820914
0.000987204
-0.00340747
0.00383099
-0.0123531
0.008368
-0.0231766
0.0142201
-0.0350543
0.0208138
-0.0469957
0.0275037
-0.0580739
0.0337282
-0.0676457
0.0391205
-0.0754471
0.0435385
-0.0815509
0.0470269
-0.086248
0.0497442
-0.0899162
0.0518903
-0.0929203
0.0536528
-0.0955555
0.0551804
-0.0980318
0.0565764
-0.100483
0.0579057
-0.102985
0.059206
-0.105579
0.0604979
-0.108286
0.0617924
-0.111115
0.0630953
-0.114069
0.064409
-0.117149
0.0657338
-0.120349
0.0670675
-0.123667
-0.127086
0.068401
0.00111193
-0.0045194
0.00417783
-0.015419
0.00886259
-0.0278614
0.0146136
-0.0408052
0.0207434
-0.0531256
0.026601
-0.0639315
0.0317217
-0.0727664
0.0358876
-0.0796129
0.0390993
-0.0847626
0.0414991
-0.0886478
0.0432871
-0.0917041
0.044658
-0.0942912
0.045768
-0.0966655
0.046726
-0.0989897
0.0475995
-0.101356
0.0484272
-0.103812
0.04923
-0.106382
0.0500188
-0.109075
0.0507999
-0.111896
0.0515763
-0.114846
0.052349
-0.117921
0.0531171
-0.121118
0.053877
-0.124426
-0.127833
0.0546234
0.00121486
-0.00573426
0.00441236
-0.0186165
0.00907314
-0.0325221
0.0144961
-0.0462282
0.0199436
-0.0585731
0.0248277
-0.0688157
0.0288184
-0.076757
0.031841
-0.0826356
0.0340021
-0.0869237
0.0354944
-0.09014
0.0365202
-0.09273
0.0372474
-0.0950184
0.0377948
-0.0972129
0.0382365
-0.0994314
0.0386146
-0.101734
0.0389513
-0.104149
0.039258
-0.106688
0.039541
-0.109358
0.0398041
-0.112159
0.0400492
-0.115091
0.0402769
-0.118149
0.0404863
-0.121327
0.0406734
-0.124613
0.0408367
-0.127996
-0.000201524
-0.000477388
0.000678913
-0.000705338
-0.00119013
0.00169394
-0.00144759
-0.00172586
0.00246811
-0.00237881
-0.00211397
0.00304518
-0.00345979
-0.00238444
0.00346543
-0.00465984
-0.00256682
0.00376687
-0.00595523
-0.00268763
0.00398302
-0.00732786
-0.00276826
0.00414089
-0.00876388
-0.00282382
0.00425984
-0.0102525
-0.00286279
0.00435139
-0.0117847
-0.00288754
0.0044198
-0.0133526
-0.00289531
0.00446316
-0.014948
-0.0028793
0.00447471
-0.0165623
-0.00282975
0.0044441
-0.018186
-0.00273469
0.00435836
-0.0198084
-0.00258039
0.00420276
-0.0214182
-0.00235153
0.0039613
-0.0230043
-0.00203113
0.00361724
-0.0245574
-0.00160028
0.00315343
-0.0260728
-0.00103741
0.00255276
-0.0275522
-0.000319144
0.00179853
-0.0290003
0.000576224
0.000871958
-0.0304525
0.0016872
-0.000235064
0.00305412
-0.0319558
-0.00155084
-0.000213638
-0.00026375
-0.000743141
-0.000660624
-0.00151694
-0.000952059
-0.00247975
-0.00115115
-0.00358833
-0.00127587
-0.00480918
-0.00134597
-0.00611673
-0.00138008
-0.0074914
-0.00139359
-0.00891801
-0.00139722
-0.0103842
-0.00139659
-0.0118791
-0.00139262
-0.0133922
-0.0013822
-0.0149124
-0.0013591
-0.0164274
-0.00131479
-0.0179231
-0.00123896
-0.0193838
-0.00111976
-0.0207918
-0.000943452
-0.0221291
-0.000693881
-0.0233778
-0.000351615
-0.0245203
0.000105131
-0.0255468
0.000707379
-0.0264592
0.00148864
-0.0272677
0.0024957
0.0037971
-0.0280107
-0.000214793
-4.89574e-05
-0.000744125
-0.000131292
-0.00151236
-0.000183824
-0.00246047
-0.000203039
-0.00354206
-0.000194288
-0.00472103
-0.000166988
-0.00596948
-0.000131638
-0.00726568
-9.73813e-05
-0.008592
-7.09053e-05
-0.00993363
-5.49545e-05
-0.0112767
-4.95415e-05
-0.0126072
-5.17156e-05
-0.01391
-5.62551e-05
-0.0151684
-5.64279e-05
-0.016363
-4.43864e-05
-0.0174716
-1.11357e-05
-0.0184689
5.38948e-05
-0.0193263
0.000163444
-0.0200117
0.000333823
-0.0204938
0.000587203
-0.0207417
0.000955346
-0.0207333
0.0014802
-0.0204576
0.00222004
0.00327883
-0.0199394
-0.000206066
0.000157109
-0.000711862
0.000374504
-0.00144091
0.000545223
-0.00233221
0.000688258
-0.00333701
0.000810515
-0.00441669
0.000912689
-0.00554064
0.000992319
-0.00668412
0.00104609
-0.00782647
0.00107145
-0.00894894
0.00106752
-0.0100337
0.00103521
-0.0110624
0.000976991
-0.0120152
0.000896578
-0.0128701
0.000798459
-0.0136022
0.000687655
-0.014183
0.000569703
-0.01458
0.000450875
-0.0147553
0.000338806
-0.0146655
0.000244026
-0.0142604
0.000182024
-0.0134848
0.000179761
-0.0122873
0.000282755
-0.010626
0.000558746
0.00115343
-0.00850064
-0.000189456
0.000346565
-0.000652396
0.000837444
-0.00131378
0.00120661
-0.00211189
0.00148636
-0.00299609
0.00169471
-0.00392508
0.00184168
-0.00486494
0.00193218
-0.00578704
0.00196819
-0.00666618
0.00195059
-0.00747877
0.00188011
-0.00820145
0.00175788
-0.00880992
0.00158546
-0.00927805
0.00136471
-0.00957721
0.00109762
-0.00967572
0.000786162
-0.0095384
0.000432381
-0.00912578
3.82604e-05
-0.00839248
-0.0003945
-0.00728804
-0.000860416
-0.00575041
-0.0013556
-0.00370424
-0.0018664
-0.00105914
-0.00236235
0.00226437
-0.00276477
-0.00285029
0.00626809
-0.00016732
0.000513885
-0.000572735
0.00124286
-0.00114361
0.00177749
-0.00181791
0.00216066
-0.00254306
0.00241986
-0.00327453
0.00257315
-0.00397404
0.00263169
-0.00460767
0.00260183
-0.00514398
0.0024869
-0.00555232
0.00228845
-0.00580145
0.00200701
-0.00585843
0.00164244
-0.00568788
0.00119416
-0.00525148
0.000661226
-0.00450741
4.20977e-05
-0.00341102
-0.000664014
-0.00191385
-0.00145891
3.58281e-05
-0.00234418
0.00249606
-0.00332065
0.00552968
-0.00438923
0.00921156
-0.00554829
0.0136325
-0.00678328
0.0189031
-0.00803533
-0.00926135
0.0253141
-0.000141921
0.000655807
-0.000479397
0.00158033
-0.000941677
0.00223977
-0.00146587
0.00268486
-0.0019966
0.00295059
-0.00248484
0.00306138
-0.00288627
0.00303312
-0.00315947
0.00287503
-0.00326407
0.0025915
-0.00315919
0.00218357
-0.00280209
0.00164991
-0.00214728
0.000987634
-0.00114581
0.000192684
0.000254575
-0.000739159
0.0021093
-0.00181263
0.00447737
-0.00303208
0.00741958
-0.00440112
0.0109978
-0.00592239
0.0152745
-0.00759732
0.0203112
-0.00942597
0.026169
-0.0114061
0.0329336
-0.0135479
0.0406167
-0.0157184
-0.0183905
0.0497459
-0.000115023
0.00077083
-0.000377154
0.00184246
-0.000715565
0.00257818
-0.00106487
0.00303416
-0.00136508
0.00325081
-0.00156054
0.00325684
-0.00159823
0.00307081
-0.00142605
0.00270284
-0.000991014
0.00215647
-0.000237905
0.00143046
0.000891681
0.000520327
0.00245997
-0.000580657
0.00453262
-0.00187996
0.00717877
-0.00338531
0.0104694
-0.00510322
0.0144757
-0.00703846
0.0192678
-0.00919313
0.0249114
-0.0115661
0.0314667
-0.0141525
0.0389856
-0.0169449
0.0474989
-0.0199194
0.0570821
-0.0231311
0.0675772
-0.0262135
-0.0304859
0.0796725
-8.75961e-05
0.000858426
-0.000268112
0.00202298
-0.000467417
0.00277748
-0.000614908
0.00318165
-0.000643208
0.00327911
-0.000486858
0.00310049
-8.05978e-05
0.00266455
0.000642318
0.00197992
0.00175146
0.00104733
0.00332036
-0.000138442
0.00542555
-0.00158486
0.00814738
-0.00330249
0.0115676
-0.00530017
0.0157671
-0.00758484
0.0208235
-0.0101596
0.0268073
-0.0130223
0.0337793
-0.0161651
0.0417866
-0.0195734
0.0508601
-0.023226
0.0610144
-0.0270991
0.0722292
-0.0311343
0.0845301
-0.035432
0.0976661
-0.0393495
-0.04501
0.11219
-5.9662e-05
0.000918088
-0.00015125
0.00211457
-0.000193093
0.00281932
-0.000105828
0.00309439
0.000189006
0.00298427
0.000770568
0.00251892
0.00172031
0.00171481
0.00312325
0.000576982
0.00506828
-0.000897701
0.00764718
-0.00271735
0.0109538
-0.00489146
0.0150794
-0.00742811
0.0201099
-0.0103306
0.0261205
-0.0135954
0.0331711
-0.0172102
0.0413019
-0.0211531
0.0505295
-0.0253926
0.0608445
-0.0298885
0.0722112
-0.0345927
0.0845667
-0.0394546
0.0978259
-0.0443935
0.111885
-0.0494912
0.126582
-0.0540466
-0.0603478
0.14192
-3.02449e-05
0.000948333
-2.20674e-05
0.00210639
0.000117882
0.00267937
0.000482299
0.00272997
0.00116487
0.0023017
0.00226224
0.00142156
0.00387493
0.000102122
0.00610754
-0.00165563
0.00906624
-0.00385641
0.0128555
-0.00650657
0.0175726
-0.00960863
0.0233015
-0.0131569
0.0301052
-0.0171344
0.03802
-0.0215103
0.0470499
-0.0262401
0.0571632
-0.0312664
0.0682923
-0.0365217
0.0803353
-0.0419315
0.0931614
-0.0474189
0.106615
-0.0529084
0.120545
-0.0583233
0.134723
-0.0636694
0.149191
-0.0685139
-0.0743797
0.163222
2.91519e-06
0.000126839
0.000482411
0.00117919
0.00232959
0.00405007
0.00646018
0.00967901
0.0138196
0.0189806
0.0252369
0.03263
0.0411611
0.050785
0.06141
0.0729004
0.0850833
0.0977595
0.110713
0.123732
0.136616
0.149154
0.161489
0.172773
-0.0324953
0.00502861
-0.00448909
-0.0329258
0.00829796
-0.00786746
-0.0332116
0.0121821
-0.0118963
-0.0333215
0.0166783
-0.0165684
-0.0332215
0.0217555
-0.0218556
-0.0328776
0.0273427
-0.0276866
-0.0322474
0.0333051
-0.0339352
-0.0312906
0.0394565
-0.0404133
-0.0299677
0.0455357
-0.0468587
-0.0282381
0.051193
-0.0529226
-0.0260513
0.055973
-0.0581598
-0.0233557
0.0593385
-0.0620341
-0.0200848
0.0606508
-0.0639217
-0.0162152
0.059246
-0.0631156
-0.0115328
0.0541477
-0.0588302
-0.00618857
0.0451639
-0.0505082
-0.00014807
0.0314867
-0.0375272
0.00637904
0.0130492
-0.0195764
0.0132829
-0.00980341
0.00289956
0.0203206
-0.0362517
0.0292139
0.0271196
-0.0646383
0.0578394
0.0330072
-0.0926636
0.086776
0.0372285
-0.11772
0.113499
0.0388257
-0.138261
0.136663
0.037207
-0.154517
0.156136
0.0330087
-0.167675
0.171873
0.0287066
-0.177341
0.181643
0.0278233
-0.178755
0.179639
0.0326185
-0.163705
0.158909
0.0423539
-0.126739
0.117004
0.0548488
-0.0705122
0.0580173
0.0683603
-0.003941
-0.00957054
0.0813245
0.0624692
-0.0754334
0.092199
0.118729
-0.129604
0.0999096
0.158882
-0.166592
0.103169
0.182734
-0.185993
0.099765
0.197702
-0.194298
0.0898859
0.212197
-0.202318
0.0796862
0.219196
-0.208996
0.0772237
0.196275
-0.193812
0.0845424
0.132723
-0.140042
0.0975162
0.0457445
-0.0587183
0.111098
-0.0375335
0.0239518
0.122191
-0.100308
0.0892151
0.12979
-0.137542
0.129943
0.133846
-0.151386
0.14733
0.133781
-0.148772
0.148837
0.12937
-0.138776
0.143187
0.123352
-0.126644
0.132662
0.120203
-0.106422
0.109571
0.122456
-0.0750209
0.0727671
0.128579
-0.0322113
0.0260891
0.135711
0.00636401
-0.0134961
0.141369
0.0400473
-0.0457052
0.144754
0.0566068
-0.0599922
0.145913
0.0675041
-0.0686627
0.145969
0.0656233
-0.0656797
0.145919
0.0559383
-0.0558883
0.146813
0.0470007
-0.0478948
0.0167122
-0.0183174
-0.0280313
0.00504922
-0.0279006
0.00816727
-0.0275729
0.0118544
-0.0270098
0.0161152
-0.0261744
0.0209202
-0.0250443
0.0262127
-0.0235643
0.0318251
-0.0216951
0.0375872
-0.0194009
0.0432416
-0.0166468
0.048439
-0.0133799
0.0527061
-0.00958464
0.0555432
-0.00521992
0.056286
-0.000205281
0.0542314
0.00502375
0.0489187
0.010799
0.0393887
0.0169287
0.0253569
0.0232902
0.00668772
0.0297121
-0.0162252
0.0360031
-0.0425427
0.0419007
-0.070536
0.0469204
-0.0976833
0.0503655
-0.121165
0.0512441
-0.139139
0.0485122
-0.151785
0.042042
-0.161205
0.0337523
-0.169051
0.0276205
-0.172623
0.0276433
-0.163727
0.0347963
-0.133892
0.0467961
-0.0825119
0.0608404
-0.0179854
0.0747236
0.0485861
0.0867766
0.106676
0.0954677
0.15019
0.0988231
0.179378
0.0950207
0.201504
0.0859883
0.22123
0.0787599
0.226424
0.0798033
0.195231
0.0892317
0.123295
0.102852
0.032124
0.116208
-0.0508899
0.126648
-0.110747
0.133423
-0.144317
0.137047
-0.15501
0.137472
-0.149197
0.133936
-0.135241
0.127764
-0.120472
0.122802
-0.101459
0.122429
-0.074648
0.126406
-0.0361879
0.132308
0.000462222
0.137526
0.0348292
0.140926
0.0532066
0.142512
0.0659183
0.143415
0.0647201
0.144388
0.0549654
0.146531
0.044858
0.0144244
-0.0194167
0.00452657
-0.0187074
0.00745794
-0.0177521
0.0108991
-0.0164988
0.014862
-0.0149014
0.0193228
-0.0130024
0.0243136
-0.010687
0.0295096
-0.00793149
0.0348318
-0.00470588
0.0400159
-0.00099809
0.0447312
0.00313787
0.0485701
0.00773818
0.0509429
0.0127632
0.051261
0.0181452
0.0488494
0.023916
0.0431479
0.0298585
0.0334462
0.0358415
0.019374
0.0417324
0.000796784
0.0473954
-0.0218882
0.0527117
-0.047859
0.0575229
-0.0753472
0.0614889
-0.101649
0.0640461
-0.123722
0.0643254
-0.139419
0.0612112
-0.148671
0.0538768
-0.15387
0.0430804
-0.158254
0.0323147
-0.161858
0.026744
-0.158157
0.0296516
-0.1368
0.0399281
-0.0927884
0.0539658
-0.0320231
0.0686475
0.0339045
0.0816725
0.093651
0.0909872
0.140876
0.0943553
0.17601
0.0908081
0.205052
0.0836431
0.228395
0.0798031
0.230264
0.0838688
0.191166
0.0947272
0.112436
0.108513
0.0183384
0.121337
-0.063714
0.130968
-0.120379
0.136841
-0.15019
0.139805
-0.157973
0.140427
-0.149819
0.137891
-0.132704
0.132284
-0.114866
0.126356
-0.0955306
0.123736
-0.0720286
0.125419
-0.0378707
0.129738
-0.00385694
0.13426
0.0303076
0.137621
0.0498456
0.139754
0.0637848
0.141683
0.0627917
0.143804
0.0528441
0.147178
0.0414843
0.0115291
-0.00751186
0.00353779
-0.00637228
0.00631836
-0.00490904
0.00943582
-0.00310125
0.0130542
-0.000927659
0.0171492
0.00181984
0.0215661
0.00495483
0.0263746
0.00849239
0.0312942
0.0124417
0.0360667
0.0168163
0.0403565
0.0216346
0.0437519
0.0268411
0.0457364
0.0323667
0.0457354
0.0381077
0.0431083
0.0439742
0.0372814
0.0497868
0.0276336
0.0553637
0.013797
0.060649
-0.00448854
0.0654538
-0.026693
0.0697404
-0.0521455
0.0734086
-0.0790155
0.0761864
-0.104427
0.0775999
-0.125136
0.0770463
-0.138865
0.073778
-0.145403
0.066711
-0.146803
0.0553248
-0.146868
0.0416166
-0.14815
0.0307168
-0.147257
0.0280238
-0.134107
0.0348321
-0.0995967
0.0478346
-0.0450256
0.0628383
0.0189008
0.076579
0.0799103
0.0863637
0.131091
0.0900209
0.172353
0.0875783
0.207494
0.0830905
0.232882
0.082651
0.230704
0.0891286
0.184688
0.100867
0.100698
0.114347
0.00485792
0.126357
-0.0757236
0.135009
-0.129031
0.139955
-0.155136
0.142161
-0.16018
0.142692
-0.150349
0.14105
-0.131062
0.136491
-0.110308
0.130467
-0.0895058
0.126256
-0.0678181
0.125785
-0.0373995
0.128342
-0.0064141
0.131969
0.0266809
0.135238
0.0465758
0.137986
0.0610373
0.141008
0.0597692
0.144277
0.0495756
0.148732
0.0370291
0.00816381
0.00751722
0.00228866
0.0089076
0.00492798
0.0106738
0.00766959
0.0129106
0.0108174
0.0156143
0.0144455
0.0187021
0.0184783
0.0222521
0.0228246
0.0262608
0.0272855
0.0307168
0.0316107
0.0355939
0.0354794
0.0408564
0.0384894
0.046434
0.0401588
0.0522249
0.0399446
0.0580889
0.0372444
0.0638884
0.0314818
0.0694454
0.0220767
0.0745545
0.00868797
0.0792145
-0.00914854
0.0832039
-0.0306825
0.0865068
-0.0554484
0.0890243
-0.081533
0.0904929
-0.105896
0.0905362
-0.125179
0.0888739
-0.137203
0.0852304
-0.141759
0.0788357
-0.140408
0.0684362
-0.136469
0.0541193
-0.133833
0.0395235
-0.132661
0.0309378
-0.125521
0.03254
-0.101199
0.042902
-0.0553876
0.0573059
0.00449691
0.0713796
0.0658366
0.0816994
0.120771
0.0862148
0.167837
0.0857007
0.208008
0.0843596
0.234224
0.0870368
0.228026
0.0953042
0.176421
0.107427
0.088575
0.120246
-0.00796123
0.131165
-0.0866421
0.138662
-0.136528
0.14266
-0.159135
0.144116
-0.161636
0.144349
-0.150582
0.143358
-0.130072
0.140052
-0.107001
0.134677
-0.0841309
0.129695
-0.0628363
0.127508
-0.0352124
0.128347
-0.00725356
0.130988
0.0240406
0.134116
0.0434476
0.137466
0.0576873
0.141521
0.0557139
0.145808
0.0452891
0.151089
0.0317482
0.00450525
0.0261392
0.00146356
0.0272196
0.00384764
0.0287122
0.00617696
0.0307619
0.00876759
0.0333797
0.0118277
0.0365178
0.0153403
0.0401863
0.0191561
0.0443762
0.0230957
0.0490541
0.0269328
0.0541676
0.0303658
0.0596449
0.0330121
0.0653889
0.0344148
0.0712748
0.0340587
0.0771379
0.0313812
0.0828029
0.0258169
0.0881
0.0167796
0.0927905
0.00399745
0.0968767
-0.0132347
0.10011
-0.0339162
0.102436
-0.0577743
0.103723
-0.0828198
0.103753
-0.105926
0.102333
-0.123759
0.0994268
-0.134296
0.0951287
-0.137461
0.089227
-0.134507
0.0805383
-0.12778
0.0677041
-0.120998
0.0519896
-0.116947
0.038759
-0.112291
0.0342707
-0.0967104
0.0401824
-0.0612993
0.0525992
-0.00791992
0.0663977
0.0520381
0.0773467
0.109822
0.0833555
0.161829
0.0854148
0.205949
0.0873244
0.232314
0.0926409
0.22271
0.102106
0.166955
0.114175
0.0765063
0.126084
-0.01987
0.135656
-0.0962141
0.141843
-0.142715
0.144867
-0.162158
0.145636
-0.162405
0.145479
-0.150425
0.144859
-0.129452
0.142762
-0.104904
0.138548
-0.0799166
0.133627
-0.057916
0.130384
-0.0319694
0.129802
-0.00667161
0.131498
0.0223447
0.134448
0.0404981
0.138312
0.0538234
0.143217
0.0508086
0.148288
0.0402179
0.154075
0.0259611
0.000741705
0.049445
0.00176443
0.049511
0.00378173
0.050114
0.00557388
0.0513451
0.00753657
0.0532522
0.0099206
0.0558069
0.0127856
0.0590166
0.0159463
0.0628633
0.019249
0.067296
0.0225001
0.0722398
0.025422
0.0775945
0.0276574
0.0832313
0.028778
0.0889945
0.0282955
0.094691
0.0256848
0.100098
0.0204099
0.105008
0.0118696
0.109433
-0.000427847
0.112901
-0.0167023
0.11541
-0.0364256
0.116778
-0.059142
0.116819
-0.0828612
0.115369
-0.104475
0.112438
-0.120829
0.108269
-0.130127
0.103212
-0.132403
0.0974674
-0.128762
0.0904046
-0.120717
0.0802293
-0.110823
0.0659905
-0.102708
0.0506774
-0.0969774
0.0407588
-0.0867919
0.0409176
-0.0614581
0.0498509
-0.0168532
0.0624396
0.0394494
0.0739078
0.0983541
0.0817959
0.153941
0.0867743
0.200971
0.091732
0.227356
0.0991213
0.215321
0.109275
0.156801
0.120915
0.0648667
0.131661
-0.030616
0.139712
-0.104266
0.144487
-0.14749
0.146515
-0.164186
0.146675
-0.162565
0.146137
-0.149888
0.145658
-0.128973
0.144558
-0.103804
0.141736
-0.077094
0.137572
-0.0537528
0.134031
-0.0284277
0.132526
-0.00516723
0.133465
0.0214057
0.136231
0.0377327
0.140466
0.0495879
0.145954
0.0453208
0.151515
0.0346566
0.157475
0.0200013
-0.00295453
0.0778391
0.00359782
0.0764566
0.00516427
0.0757175
0.00631297
0.0756276
0.00762653
0.076243
0.00930515
0.077594
0.0114346
0.079712
0.0138282
0.0825861
0.0163749
0.0861689
0.0189173
0.0903836
0.0212074
0.0951159
0.0229251
0.100215
0.0236787
0.105504
0.0230067
0.110765
0.0204234
0.115753
0.0154225
0.120185
0.00743711
0.124186
-0.00442891
0.127028
-0.0195439
0.128768
-0.0381653
0.129123
-0.0594974
0.127856
-0.081594
0.124878
-0.101497
0.120433
-0.116384
0.115057
-0.124751
0.109299
-0.126646
0.103528
-0.122992
0.0976174
-0.114806
0.0902005
-0.103406
0.07916
-0.0916673
0.0647181
-0.0825355
0.0516135
-0.0736874
0.0460967
-0.0559412
0.050273
-0.0210295
0.0605437
0.0291787
0.0720595
0.0868384
0.0817881
0.144212
0.0896295
0.193129
0.0972549
0.219731
0.106137
0.206439
0.116527
0.146411
0.127453
0.0539402
0.136813
-0.0399755
0.143221
-0.110674
0.146538
-0.150807
0.147572
-0.16522
0.147195
-0.162188
0.146348
-0.149041
0.145869
-0.128494
0.145489
-0.103424
0.144038
-0.0756429
0.141091
-0.0508062
0.137961
-0.025297
0.136136
-0.00334289
0.136629
0.0209126
0.139254
0.0351082
0.143703
0.0451387
0.149474
0.0395498
0.15522
0.028911
0.161053
0.0141683
-0.00644957
0.109031
0.00675743
0.106387
0.00780773
0.104339
0.00836088
0.10287
0.00909548
0.102034
0.0101414
0.101936
0.0115326
0.102621
0.0131429
0.104097
0.0148989
0.106349
0.0166652
0.109328
0.0182284
0.112935
0.0193185
0.117022
0.0195921
0.121405
0.018623
0.125865
0.015964
0.130144
0.0111429
0.133859
0.00372243
0.137047
-0.00761625
0.139132
-0.0216294
0.139929
-0.0389622
0.139106
-0.0586746
0.136415
-0.0789033
0.131902
-0.0969836
0.126047
-0.110529
0.119617
-0.118321
0.113308
-0.120337
0.107516
-0.117199
0.102324
-0.109614
0.0970577
-0.0981401
0.0896648
-0.0842744
0.0783805
-0.0712512
0.0651332
-0.0604401
0.0556522
-0.0464602
0.054693
-0.0200703
0.0615848
0.0222869
0.0723303
0.0760928
0.0834212
0.133121
0.093693
0.182857
0.103472
0.209952
0.113326
0.196585
0.123622
0.136116
0.133587
0.0439744
0.141387
-0.0477755
0.146063
-0.11535
0.147929
-0.152673
0.148009
-0.165299
0.147165
-0.161344
0.146105
-0.147981
0.145583
-0.127973
0.145667
-0.103507
0.145395
-0.0753707
0.143861
-0.0492726
0.14168
-0.0231159
0.140133
-0.0017958
0.140555
0.0204902
0.143134
0.0325299
0.147662
0.0406108
0.15344
0.033771
0.159101
0.0232501
0.164579
0.008691
-0.00966286
0.138121
0.0105565
0.134872
0.0110563
0.132037
0.0111965
0.129624
0.0115079
0.127731
0.0120353
0.12649
0.0127736
0.125929
0.0137033
0.126075
0.0147527
0.126948
0.0157927
0.128531
0.0166449
0.130761
0.0170887
0.133522
0.0168312
0.13665
0.0154945
0.139924
0.0126904
0.143141
0.00792628
0.145961
0.000901946
0.147973
-0.00962787
0.148954
-0.0226105
0.148506
-0.0385145
0.146271
-0.0564393
0.14205
-0.074683
0.13607
-0.0910035
0.129021
-0.10348
0.121789
-0.111089
0.115113
-0.113662
0.109384
-0.11147
0.104703
-0.104933
0.100865
-0.0943016
0.096572
-0.0799819
0.0894433
-0.0641225
0.0788031
-0.0497999
0.0681584
-0.0358155
0.0630943
-0.0150062
0.0659958
0.0193854
0.0749753
0.0671134
0.0866095
0.121487
0.0986224
0.170844
0.109961
0.198613
0.120421
0.186125
0.130348
0.126188
0.139192
0.0351308
0.14526
-0.053843
0.148138
-0.118228
0.1486
-0.153135
0.147806
-0.164506
0.146572
-0.16011
0.145397
-0.146806
0.144857
-0.127432
0.145221
-0.103871
0.145859
-0.0760091
0.145706
-0.0491197
0.144787
-0.022197
0.144001
-0.00100922
0.144723
0.0197679
0.147387
0.0298658
0.151907
0.0360912
0.157485
0.0281922
0.162865
0.0178702
0.167852
0.0037048
-0.0125723
0.159708
0.0140712
0.156619
0.0141455
0.153695
0.0141197
0.151074
0.0141297
0.148864
0.0142454
0.147141
0.0144958
0.145942
0.0149024
0.145305
0.0153904
0.145252
0.0158456
0.145778
0.0161188
0.146846
0.0160203
0.148375
0.0153025
0.150235
0.0136341
0.152242
0.0106838
0.154099
0.00606926
0.155564
-0.000562748
0.156401
-0.0104653
0.156041
-0.0222508
0.154145
-0.0366182
0.150379
-0.0526737
0.144699
-0.0690029
0.137526
-0.0838297
0.129666
-0.0956202
0.121991
-0.103414
0.115162
-0.106833
0.109538
-0.105846
0.105205
-0.1006
0.102133
-0.0912293
0.0998453
-0.0776946
0.0965235
-0.0608006
0.0900448
-0.0433212
0.0811971
-0.0269678
0.0743056
-0.00811475
0.073618
0.020073
0.0799838
0.0607476
0.0911053
0.110365
0.103961
0.157989
0.116147
0.186428
0.126965
0.175307
0.136715
0.116438
0.144299
0.0275468
0.148482
-0.0580261
0.14952
-0.119266
0.148657
-0.152272
0.147081
-0.162931
0.14551
-0.158539
0.144278
-0.145573
0.143758
-0.126912
0.144287
-0.1044
0.145563
-0.0772852
0.146601
-0.0501575
0.147029
-0.0226254
0.147305
-0.00128489
0.148631
0.0184424
0.151521
0.0269751
0.156001
0.031611
0.161263
0.0229306
0.166258
0.0128754
0.170715
-0.000752817
-0.0152113
0.170595
0.0162494
0.168332
0.0164085
0.166148
0.016303
0.164118
0.0161605
0.162295
0.0160684
0.160743
0.0160475
0.159533
0.016112
0.15871
0.0162139
0.158294
0.0162619
0.158282
0.0161307
0.158647
0.0156548
0.159321
0.0146289
0.160173
0.0127814
0.161073
0.00978408
0.161838
0.0053042
0.162267
-0.00099157
0.161504
-0.00970223
0.159704
-0.020451
0.156394
-0.0333076
0.151387
-0.047667
0.144814
-0.0624301
0.137206
-0.0762211
0.129324
-0.0877383
0.121882
-0.0959721
0.115374
-0.100325
0.110062
-0.100533
0.106004
-0.0965427
0.103236
-0.0884612
0.101758
-0.0762169
0.100693
-0.0597353
0.0979734
-0.0406016
0.0925109
-0.0215052
0.0862663
-0.00187024
0.0837382
0.0226011
0.0874808
0.057005
0.0970475
0.100799
0.10959
0.145446
0.122048
0.17397
0.133257
0.164097
0.142668
0.107027
0.148864
0.021351
0.150979
-0.0601414
0.150308
-0.118595
0.148307
-0.15027
0.146059
-0.160683
0.144171
-0.156651
0.142881
-0.144284
0.142393
-0.126424
0.143017
-0.105024
0.144693
-0.0789616
0.146653
-0.0521172
0.148326
-0.0242982
0.149764
-0.00272357
0.15188
0.0163263
0.155116
0.0237393
0.159572
0.0271551
0.164492
0.0180111
0.16909
0.00827723
0.17307
-0.00473288
-0.0176585
0.187848
0.0180589
-0.189658
0.186417
0.0178393
0.184974
0.0177467
0.183538
0.0175963
0.182185
0.0174217
0.180966
0.0172662
0.179943
0.0171348
0.179184
0.0169731
0.178757
0.016689
0.178725
0.0161625
0.179144
0.0152359
0.18005
0.0137229
0.181445
0.0113862
0.18329
0.00793924
0.185416
0.00317748
0.18771
-0.00328504
0.189694
-0.0116859
0.191099
-0.0218567
0.191429
-0.0336377
0.190266
-0.046504
0.187384
-0.0595479
0.18283
-0.0716667
0.176877
-0.0817858
0.169917
-0.0890116
0.162364
-0.0927721
0.154608
-0.092777
0.146954
-0.0888893
0.139619
-0.0811261
0.132841
-0.0694388
0.126594
-0.0534888
0.119834
-0.0338411
0.111054
-0.0127253
0.100405
0.00877863
0.0906541
0.0323521
0.0854724
0.0621868
0.0867448
0.0995263
0.0942703
0.13792
0.107542
0.160698
0.125829
0.14581
0.145307
0.0875498
0.160012
0.00664625
0.167925
-0.0680553
0.169483
-0.120152
0.166904
-0.147691
0.162323
-0.156102
0.157291
-0.151619
0.152637
-0.139629
0.148777
-0.122564
0.146059
-0.102305
0.144688
-0.0775906
0.144266
-0.0516952
0.144357
-0.0243893
0.144771
-0.00313837
0.146009
0.0150885
0.148232
0.0215168
0.151382
0.0240051
0.154656
0.0147368
0.15742
0.0055136
0.159406
-0.0067188
-0.0183033
0.201418
0.0185563
-0.201915
0.200933
0.018324
0.20047
0.0182094
0.19998
0.0180864
0.199494
0.0179079
0.199071
0.0176895
0.198772
0.0174334
0.198652
0.0170928
0.19876
0.0165814
0.199137
0.0157852
0.199814
0.0145594
0.200802
0.0127349
0.202076
0.0101118
0.203547
0.00646872
0.20508
0.00164456
0.206528
-0.00473317
0.207507
-0.0126656
0.207734
-0.0220833
0.206857
-0.0327603
0.204583
-0.04423
0.200779
-0.0557438
0.19551
-0.0663978
0.189021
-0.0752975
0.181679
-0.0816695
0.173891
-0.084984
0.166039
-0.0849252
0.158439
-0.0812892
0.151298