/*--------------------------------*- C++ -*----------------------------------*\
| =========                 |                                                 |
| \\      /  F ield         | OpenFOAM: The Open Source CFD Toolbox           |
|  \\    /   O peration     | Version:  2512                                  |
|   \\  /    A nd           | Website:  www.openfoam.com                      |
|    \\/     M anipulation  |                                                 |
\*---------------------------------------------------------------------------*/
FoamFile
{
    version     2.0;
    format      ascii;
    arch        "LSB;label=32;scalar=64";
    class       surfaceScalarField;
    location    "9.5";
    object      phi;
}
// * * * * * * * * * * * * * * * * * * * * * * * * * * * * * * * * * * * * * //

dimensions      [0 3 -1 0 0 0 0];

oriented        oriented;

internalField   nonuniform List<scalar> 
26232
(
4.74545e-05
0.0010339
-0.00108135
0.000443333
0.00202468
-0.00242056
0.00138333
0.00205449
-0.00299448
0.00303869
0.00114115
-0.00279652
0.00557544
-0.000716802
-0.00181995
0.00915731
-0.00353086
-5.10207e-05
0.0139421
-0.0073105
0.00252572
0.0200628
-0.0120503
0.00592956
0.0276083
-0.0177143
0.0101688
0.0365977
-0.0242247
0.0152353
0.04696
-0.0314562
0.0210939
0.0585218
-0.0392374
0.0276756
0.071009
-0.0473609
0.0348737
0.0840622
-0.055598
0.0425448
0.0972653
-0.0637185
0.0505154
0.110184
-0.0715104
0.0585919
0.122409
-0.0787986
0.0665738
0.133597
-0.0854604
0.0742716
0.143515
-0.0914325
0.0815146
0.152042
-0.0967259
0.0881994
0.1592
-0.101362
0.0942043
0.165037
-0.105551
0.0997138
0.169519
-0.108943
0.10446
-0.112772
0.109644
0.172647
8.07737e-05
0.000953125
0.000611809
0.00149364
0.00183127
0.000835028
0.00395277
-0.000980343
0.00717705
-0.00394108
0.0116849
-0.00803874
0.0176186
-0.0132442
0.025054
-0.0194857
0.0339737
-0.0266339
0.0442462
-0.0344972
0.0556217
-0.0428317
0.0677454
-0.0513612
0.0801897
-0.0598052
0.0924987
-0.067907
0.104239
-0.0754588
0.115049
-0.0823203
0.124678
-0.0884272
0.133008
-0.0937903
0.140059
-0.0984838
0.145958
-0.102625
0.150941
-0.106345
0.155187
-0.109797
0.159196
-0.112952
-0.11644
0.162864
0.000153719
0.000799406
0.000914818
0.000732544
0.00255054
-0.000800694
0.00530149
-0.00373129
0.00937839
-0.00801798
0.0149393
-0.0135997
0.0220567
-0.0203616
0.0306853
-0.0281143
0.0406422
-0.0365908
0.05161
-0.045465
0.0631653
-0.0543869
0.0748286
-0.0630245
0.0861256
-0.0711022
0.0966473
-0.0784286
0.106099
-0.0849102
0.114327
-0.090549
0.121327
-0.0954267
0.127215
-0.0996787
0.132194
-0.103462
0.136501
-0.106932
0.140362
-0.110206
0.143965
-0.1134
0.147471
-0.116457
-0.11981
0.150841
0.000257656
0.000541751
0.0013251
-0.000334898
0.00348233
-0.00295793
0.00697257
-0.00722153
0.0119787
-0.0130241
0.0185835
-0.0202044
0.0267296
-0.0285077
0.0361979
-0.0375826
0.0466167
-0.0470097
0.0575069
-0.0563551
0.0683498
-0.0652299
0.0786651
-0.0733398
0.088077
-0.0805141
0.0963578
-0.0867093
0.10344
-0.0919923
0.109398
-0.0965068
0.114406
-0.100435
0.118687
-0.10396
0.122465
-0.10724
0.125925
-0.110392
0.129214
-0.113495
0.132416
-0.116602
0.135645
-0.119687
-0.123024
0.13886
0.000383802
0.000157949
0.00181112
-0.00176222
0.0045547
-0.0057015
0.0088273
-0.0114941
0.014736
-0.0189329
0.0222314
-0.0276998
0.0310771
-0.0373534
0.0408628
-0.0473682
0.0510622
-0.0572091
0.0611223
-0.0664153
0.0705564
-0.074664
0.079016
-0.0817994
0.0863263
-0.0878243
0.0924813
-0.0928644
0.097607
-0.0971179
0.101905
-0.100805
0.105599
-0.104129
0.108889
-0.10725
0.111932
-0.110284
0.114841
-0.113301
0.11769
-0.116343
0.12052
-0.119433
0.123388
-0.122555
-0.125861
0.126225
0.000526051
-0.000368102
0.00234573
-0.0035819
0.00569812
-0.00905389
0.0107242
-0.0165202
0.0174023
-0.025611
0.0255029
-0.0358003
0.0345941
-0.0464446
0.0441103
-0.0568845
0.0534613
-0.0665602
0.0621438
-0.0750978
0.0698203
-0.0823405
0.0763483
-0.0883274
0.0817606
-0.0932366
0.086213
-0.0973168
0.0899199
-0.100825
0.093099
-0.103984
0.0959348
-0.106964
0.0985651
-0.10988
0.101083
-0.112802
0.103549
-0.115767
0.106001
-0.118795
0.108459
-0.121892
0.110956
-0.125052
-0.128353
0.113448
0.000680046
-0.00104815
0.00290379
-0.00580564
0.00684263
-0.0129927
0.0125186
-0.0221961
0.0197344
-0.0328269
0.0280599
-0.0441258
0.0368994
-0.0552841
0.0456191
-0.0656042
0.0536813
-0.0746224
0.0607362
-0.0821526
0.066649
-0.0882534
0.0714703
-0.0931486
0.075371
-0.0971373
0.0785716
-0.100517
0.0812862
-0.103539
0.0836894
-0.106387
0.0859075
-0.109182
0.0880233
-0.111996
0.0900879
-0.114866
0.0921319
-0.117811
0.0941744
-0.120837
0.096227
-0.123945
0.0983054
-0.12713
-0.130424
0.100376
0.000840583
-0.00188873
0.00345675
-0.00842181
0.00791172
-0.0174477
0.0140633
-0.0283478
0.0215122
-0.0402757
0.0296491
-0.0522626
0.0377919
-0.063427
0.045347
-0.0731593
0.0519231
-0.0811985
0.057366
-0.0875955
0.0617234
-0.0926108
0.0651705
-0.0965958
0.0679319
-0.0998986
0.0702214
-0.102807
0.0722108
-0.105529
0.0740215
-0.108198
0.0757309
-0.110892
0.0773857
-0.113651
0.0790127
-0.116493
0.0806283
-0.119427
0.0822435
-0.122452
0.0838662
-0.125567
0.0855058
-0.12877
-0.132062
0.0871439
0.0010001
-0.00288883
0.00397017
-0.0113919
0.00882359
-0.0223011
0.0152216
-0.0347458
0.0225695
-0.0476236
0.0301415
-0.0598346
0.0372676
-0.0705531
0.0434827
-0.0793744
0.0485817
-0.0862975
0.0525871
-0.091601
0.0556675
-0.0956911
0.0580492
-0.0989776
0.0599507
-0.1018
0.0615465
-0.104403
0.0629588
-0.106941
0.0642642
-0.109503
0.0655076
-0.112135
0.0667143
-0.114858
0.0678991
-0.117678
0.0690717
-0.1206
0.0702391
-0.12362
0.071407
-0.126735
0.0725803
-0.129943
-0.133231
0.07375
0.00114862
-0.00403745
0.00440599
-0.0146492
0.00950062
-0.0273957
0.0158881
-0.0411333
0.0228205
-0.054556
0.0295416
-0.0665556
0.0354794
-0.076491
0.0403414
-0.0842364
0.044097
-0.090053
0.0468926
-0.0943966
0.0489532
-0.0977517
0.0505043
-0.100529
0.0517288
-0.103025
0.0527549
-0.105429
0.0536629
-0.107849
0.0544986
-0.110339
0.0552872
-0.112924
0.0560429
-0.115613
0.0567746
-0.11841
0.0574888
-0.121314
0.0581906
-0.124321
0.0588844
-0.127429
0.0595732
-0.130632
-0.133914
0.0602558
0.00127546
-0.00531291
0.0047289
-0.0181027
0.00988276
-0.0325496
0.0160059
-0.0472565
0.0222661
-0.0608162
0.0279602
-0.0722496
0.0326669
-0.0811977
0.0362661
-0.0878356
0.0388596
-0.0926465
0.0406613
-0.0961983
0.0419041
-0.0989945
0.042784
-0.101409
0.0434409
-0.103682
0.0439626
-0.105951
0.044399
-0.108285
0.0447767
-0.110717
0.0451102
-0.113257
0.0454082
-0.115911
0.0456768
-0.118679
0.0459207
-0.121558
0.0461437
-0.124544
0.0463488
-0.127634
0.0465369
-0.13082
-0.134087
0.0467101
0.00137372
-0.00668663
0.00491504
-0.021644
0.00993839
-0.037573
0.0155728
-0.0528908
0.0209801
-0.0662236
0.0255731
-0.0768427
0.029096
-0.0847207
0.0315712
-0.0903107
0.0331831
-0.0942584
0.0341672
-0.0971824
0.0347353
-0.0995626
0.0350442
-0.101717
0.0351942
-0.103832
0.0352426
-0.105999
0.0352196
-0.108262
0.0351407
-0.110638
0.0350146
-0.113131
0.0348472
-0.115744
0.0346433
-0.118475
0.0344068
-0.121321
0.0341413
-0.124279
0.0338488
-0.127342
0.0335292
-0.1305
0.0331869
-0.133745
-0.000702455
0.000559816
0.000142639
-0.00234691
0.00128651
0.000357945
-0.00467953
0.00179597
0.00053665
-0.00753568
0.00216531
0.00069084
-0.0108053
0.00244101
0.000828615
-0.0144173
0.00265455
0.000957403
-0.0183268
0.00282597
0.00108359
-0.0225047
0.0029661
0.00121176
-0.0269281
0.00307907
0.00134438
-0.0315744
0.00316447
0.0014818
-0.0364162
0.00321917
0.00162264
-0.041419
0.00323856
0.00176423
-0.0465393
0.00321741
0.00190288
-0.0517237
0.0031503
0.00203414
-0.0569087
0.00303198
0.00215295
-0.06202
0.00285763
0.00225368
-0.0669734
0.00262318
0.00233029
-0.0716757
0.00232588
0.0023764
-0.0760267
0.00196533
0.00238562
-0.0799228
0.0015443
0.0023518
-0.0832595
0.00106787
0.00226889
-0.0859347
0.000544086
0.00213107
-0.0878649
-5.2961e-06
0.00193545
-0.000507114
-0.0890467
0.00168895
-0.000633195
0.00119301
-0.00213503
0.00278834
-0.00428133
0.00394227
-0.00692034
0.00480432
-0.0099456
0.00546626
-0.0132839
0.00599284
-0.0168853
0.00642734
-0.0207139
0.00679478
-0.0247406
0.00710573
-0.0289364
0.00736026
-0.0332687
0.00755146
-0.0376983
0.00766822
-0.042178
0.0076971
-0.0466512
0.00762345
-0.0510513
0.00743214
-0.0553017
0.00710805
-0.0593152
0.00663661
-0.062994
0.00600474
-0.0662313
0.00520255
-0.0689131
0.00422612
-0.0709235
0.00307835
-0.0721467
0.00176729
-0.0724613
0.000309224
-0.00105016
-0.0719182
-0.000488741
0.00168175
-0.00168717
0.00398677
-0.00343175
0.00568685
-0.00559861
0.00697117
-0.00809026
0.00795792
-0.0108304
0.00873302
-0.0137592
0.00935606
-0.0168274
0.00986299
-0.0199919
0.0102702
-0.0232109
0.0105793
-0.0264406
0.0107811
-0.0296326
0.0108603
-0.0327328
0.0107972
-0.0356798
0.0105705
-0.0384049
0.0101573
-0.0408312
0.00953434
-0.0428729
0.00867829
-0.0444343
0.00756612
-0.0454081
0.00617641
-0.0456738
0.00449179
-0.0451006
0.00250518
-0.0434881
0.000154732
-0.040907
-0.00227188
-0.00498538
-0.0369718
-0.000300248
0.001982
-0.00109154
0.00477807
-0.00228629
0.0068816
-0.00379821
0.00848309
-0.00554475
0.00970446
-0.00744946
0.0106377
-0.00944281
0.0113494
-0.0114615
0.0118817
-0.0134468
0.0122555
-0.0153421
0.0124746
-0.0170913
0.0125303
-0.0186366
0.0124055
-0.0199174
0.012078
-0.0208696
0.0115227
-0.0214254
0.010713
-0.0215124
0.00962139
-0.0210536
0.0082195
-0.0199657
0.0064782
-0.0181587
0.00436942
-0.0155275
0.00186058
-0.0119575
-0.00106485
-0.00737381
-0.00442895
-0.00146702
-0.00817867
-0.0121732
0.0057208
-0.000105752
0.00208775
-0.000459551
0.00513186
-0.00104646
0.00746852
-0.00181964
0.00925627
-0.002716
0.0106008
-0.00366465
0.0115864
-0.00459219
0.0122769
-0.00542606
0.0127156
-0.00609628
0.0129257
-0.00653564
0.012914
-0.00667922
0.0126739
-0.00646358
0.0121899
-0.00582581
0.0114402
-0.00470288
0.0103998
-0.00303084
0.00904099
-0.000744696
0.00733525
0.00222057
0.00525424
0.00593974
0.00275904
0.0104818
-0.000172592
0.0159224
-0.00358008
0.0223436
-0.00748606
0.0298496
-0.0119349
0.0384686
-0.0167976
-0.0225151
0.0488104
5.98578e-05
0.00202789
0.00010061
0.00509111
8.44452e-05
0.00748468
2.53194e-05
0.00931539
-3.42996e-05
0.0106604
-3.41223e-05
0.0115862
9.55906e-05
0.0121472
0.000428178
0.012383
0.00103676
0.0123171
0.00199204
0.0119587
0.00336138
0.0113046
0.00520891
0.0103424
0.00759642
0.00905273
0.0105841
0.00741215
0.0142303
0.00539479
0.0186031
0.00296241
0.0237405
0.000116799
0.0297498
-0.00325025
0.0366801
-0.00710283
0.0446026
-0.0115026
0.0535791
-0.0164625
0.0637103
-0.0220662
0.0749139
-0.0280012
-0.0353484
0.0877473
0.000172169
0.00185572
0.000507719
0.00475556
0.00094465
0.00704775
0.00147762
0.00878242
0.00213307
0.010005
0.00295826
0.010761
0.00401352
0.011092
0.00536588
0.0110306
0.00708447
0.0105985
0.00923758
0.00980559
0.0118913
0.00865082
0.0151095
0.00712418
0.0189538
0.00520849
0.0234919
0.00287403
0.0287656
0.000121112
0.0348801
-0.00315209
0.0419109
-0.00691399
0.049895
-0.0112343
0.0589287
-0.0161366
0.0690746
-0.0216486
0.0803697
-0.0277576
0.0928598
-0.0345562
0.106366
-0.0415072
-0.0502412
0.121258
0.000221951
0.00163377
0.000723863
0.00425365
0.00144968
0.00632193
0.00239111
0.00784099
0.0035668
0.0088293
0.00501437
0.00931345
0.00678471
0.00932164
0.0089372
0.00887814
0.0115361
0.00799959
0.0146486
0.00669316
0.0183434
0.00495595
0.0226938
0.00277384
0.0277609
0.000141364
0.0336453
-0.00301037
0.0404399
-0.00667351
0.0481949
-0.010907
0.0570162
-0.0157353
0.0669666
-0.0211848
0.0780954
-0.0272653
0.0904077
-0.0339609
0.103865
-0.0412145
0.118341
-0.049033
0.133652
-0.0568181
-0.0661868
0.149598
0.000214567
0.00141921
0.000758754
0.00370946
0.00160746
0.00547323
0.00276542
0.00668303
0.00425504
0.00733967
0.0061131
0.00745539
0.0083887
0.00704604
0.0111414
0.0061254
0.0144401
0.00470097
0.0183619
0.00277131
0.0229891
0.000328742
0.0284179
-0.00265491
0.0347562
-0.00619693
0.0420813
-0.0103355
0.0505012
-0.0150933
0.0600849
-0.0204908
0.0708812
-0.0265316
0.0828911
-0.0331947
0.096055
-0.0404292
0.110236
-0.0481422
0.125236
-0.0562146
0.140703
-0.0644992
0.156473
-0.0725882
-0.0814026
0.171688
0.00016785
0.00125136
0.000665539
0.00321177
0.00151588
0.00462289
0.00275059
0.00544832
0.00440943
0.00568083
0.00654255
0.00532228
0.0092124
0.00437619
0.0124949
0.0028429
0.016479
0.000716845
0.0212661
-0.00201574
0.0269679
-0.00537304
0.0336908
-0.00937782
0.0415412
-0.0140474
0.0505961
-0.0193904
0.0609003
-0.0253975
0.0724439
-0.0320344
0.0851488
-0.0392366
0.0988609
-0.0469068
0.113343
-0.0549115
0.128292
-0.0630904
0.143332
-0.0712554
0.158027
-0.0791936
0.17214
-0.086701
-0.0938999
0.184637
0.000107796
0.00114356
0.00052711
0.00279246
0.00133725
0.00381274
0.0026083
0.00417727
0.00441176
0.00387737
0.00682767
0.00290638
0.00994843
0.00125543
0.0138805
-0.00108918
0.0187414
-0.00414409
0.0246514
-0.00792567
0.0317226
-0.0124443
0.0400416
-0.0176968
0.0496528
-0.0236586
0.0605396
-0.0302772
0.0726097
-0.0374677
0.0856875
-0.0451122
0.0995128
-0.0530618
0.113752
-0.0611464
0.128017
-0.0691759
0.14191
-0.0769838
0.155022
-0.0843672
0.167097
-0.0912684
0.177851
-0.0974551
-0.102882
0.186833
6.22073e-05
0.000434111
0.00125237
0.00263313
0.00469055
0.00754591
0.0113271
0.0161674
0.0221922
0.0295018
0.0381514
0.0481303
0.0593454
0.071613
0.0846607
0.0981404
0.111652
0.124778
0.137116
0.148332
0.158169
0.166614
0.17362
0.180382
-0.0854028
-0.00543714
0.00179323
-0.0798351
-0.00655786
0.000990198
-0.0723073
-0.00750419
-2.36162e-05
-0.062841
-0.00833742
-0.00112885
-0.0514482
-0.00897727
-0.00241559
-0.0382651
-0.00938849
-0.00379461
-0.0235338
-0.00949859
-0.00523266
-0.00761925
-0.00933787
-0.00657669
0.00904153
-0.00887873
-0.00778206
0.0259615
-0.00814569
-0.00877425
0.0426822
-0.00721125
-0.0095095
0.0587851
-0.00613163
-0.00997127
0.0739411
-0.00497576
-0.0101802
0.0879371
-0.00381519
-0.0101808
0.100666
-0.00269267
-0.010036
0.112097
-0.00161821
-0.00981314
0.122267
-0.000606539
-0.00956313
0.13127
0.000310627
-0.00931379
0.139225
0.00113685
-0.00909215
0.146241
0.00190613
-0.00892221
0.152423
0.00262543
-0.00880734
0.157857
0.00331438
-0.00874784
0.162611
0.00398821
-0.0087429
0.16675
0.00464247
-0.0087812
0.17031
0.00530889
-0.00886849
0.173324
0.00599129
-0.0090054
0.175835
0.0066728
-0.00918376
0.177895
0.00733999
-0.00940024
0.179563
0.00798963
-0.0096577
0.1809
0.00862784
-0.00996511
0.181966
0.00927034
-0.0103356
0.182809
0.00993897
-0.0107828
0.183472
0.010654
-0.0113167
0.183984
0.0114289
-0.0119413
0.18437
0.0122696
-0.0126553
0.184648
0.0131778
-0.0134557
0.184833
0.0141546
-0.0143401
0.184939
0.0152032
-0.015309
0.184976
0.0163293
-0.0163663
0.184953
0.0175418
-0.0175186
0.184877
0.0188512
-0.0187749
0.184753
0.0202719
-0.0201482
0.184586
0.0218134
-0.0216468
0.18438
0.023505
-0.023299
0.184138
0.0253298
-0.0250877
0.183861
0.0273896
-0.0271127
0.183554
0.0295175
-0.0292101
0.183213
0.032143
-0.0318022
0.182849
0.0344675
-0.0341029
0.182448
0.0380966
-0.037696
0.182032
0.0402547
-0.0398382
0.181577
0.0456222
-0.0451675
0.181108
0.0471823
-0.046713
0.180609
0.054784
-0.0542851
0.180084
0.0560979
-0.0555729
0.179541
0.0655007
-0.0649581
0.178972
0.0675033
-0.0669341
0.178377
0.0788617
-0.0782669
0.177764
0.0811802
-0.0805666
0.0955288
-0.0948895
-0.068821
-0.00853436
-0.0639759
-0.011403
-0.0572369
-0.0142432
-0.0486202
-0.0169541
-0.038171
-0.0194265
-0.0260138
-0.0215457
-0.0123083
-0.023204
0.00247033
-0.0241165
0.0179528
-0.0243612
0.0337506
-0.0239435
0.0493999
-0.0228605
0.064492
-0.0212237
0.0787119
-0.0191957
0.0918544
-0.0169577
0.10382
-0.0146578
0.114582
-0.0123806
0.124189
-0.0102135
0.132715
-0.00821511
0.140257
-0.00640585
0.146933
-0.0047691
0.152839
-0.00328141
0.15806
-0.00190658
0.162644
-0.000595921
0.166667
0.000620429
0.170152
0.00182326
0.173125
0.00301868
0.175616
0.00418192
0.177671
0.00528504
0.179342
0.00631854
0.180686
0.00728302
0.181762
0.00819452
0.182619
0.00908204
0.183297
0.00997603
0.183827
0.0108996
0.18423
0.0118658
0.184527
0.0128812
0.184732
0.0139502
0.184856
0.0150783
0.184912
0.0162734
0.184908
0.0175461
0.184851
0.0189085
0.184746
0.0203766
0.184598
0.0219609
0.184412
0.023692
0.184189
0.0255528
0.183931
0.0276475
0.183642
0.029806
0.18332
0.0324653
0.182974
0.0348137
0.18259
0.0384797
0.182191
0.0406538
0.181752
0.0460617
0.181298
0.0476361
0.18081
0.055272
0.180298
0.0566101
0.17976
0.066038
0.179198
0.0680659
0.178601
0.0794584
0.177985
0.0817958
0.0961821
-0.0342326
-0.0112736
-0.0301915
-0.015444
-0.024536
-0.0198987
-0.0172294
-0.0242607
-0.00829032
-0.0283656
0.002092
-0.031928
0.013603
-0.034715
0.0261976
-0.0367111
0.0395091
-0.0376728
0.053098
-0.0375324
0.0665578
-0.0363203
0.0795239
-0.0341899
0.0917131
-0.0313849
0.102944
-0.028189
0.113143
-0.0248558
0.122303
-0.0215416
0.130466
-0.0183756
0.137706
-0.015456
0.144121
-0.0128209
0.149813
-0.0104602
0.154871
-0.0083395
0.159375
-0.00641067
0.163402
-0.00462295
0.166957
-0.00293442
0.170067
-0.00128741
0.172767
0.000318544
0.17507
0.00187952
0.177005
0.00334949
0.178604
0.00471956
0.179911
0.00597608
0.180973
0.00713247
0.181833
0.00822196
0.182526
0.0092831
0.183079
0.0103473
0.183511
0.0114337
0.183839
0.0125529
0.184077
0.013712
0.184237
0.0149184
0.184329
0.0161815
0.184362
0.0175136
0.184342
0.0189284
0.184275
0.0204433
0.184166
0.0220698
0.184018
0.0238396
0.183835
0.0257359
0.183618
0.027865
0.183371
0.0300534
0.18309
0.0327463
0.182785
0.0351182
0.182444
0.0388212
0.182087
0.0410108
0.181688
0.0464603
0.181276
0.0480477
0.180827
0.0557216
0.180356
0.0570813
0.179853
0.0665408
0.179327
0.0685917
0.178759
0.080026
0.178174
0.0823812
0.096816
0.00832774
-0.0138805
0.0115674
-0.0186837
0.0159404
-0.0242717
0.0215438
-0.0298641
0.0283465
-0.0351683
0.0363449
-0.0399264
0.0454994
-0.0438695
0.0555114
-0.0467232
0.0660822
-0.0482435
0.0768759
-0.0483261
0.0875634
-0.0470078
0.09785
-0.0444765
0.107507
-0.0410415
0.116385
-0.0370678
0.124426
-0.0328965
0.131645
-0.0287607
0.138075
-0.0248051
0.143779
-0.0211603
0.148838
-0.01788
0.153336
-0.0149583
0.157353
-0.0123563
0.160958
-0.0100157
0.164202
-0.00786698
0.167121
-0.00585337
0.16975
-0.00391616
0.172085
-0.00201687
0.174088
-0.00012363
0.17584
0.00159766
0.177321
0.00323847
0.178562
0.00473531
0.179596
0.00609896
0.180454
0.00736386
0.181163
0.00857353
0.181745
0.00976549
0.182215
0.0109634
0.182588
0.0121806
0.182874
0.0134259
0.183084
0.0147078
0.183229
0.016037
0.183316
0.017427
0.183351
0.0188928
0.183341
0.0204531
0.183291
0.0221205
0.183202
0.023928
0.18308
0.0258583
0.182924
0.0280208
0.18274
0.0302377
0.182523
0.0329633
0.182283
0.0353574
0.182008
0.0390969
0.181718
0.0413008
0.181386
0.0467924
0.181043
0.0483907
0.180659
0.0561054
0.180257
0.0574832
0.179818
0.0669798
0.179359
0.0690506
0.178852
0.0805331
0.178329
0.0829043
0.097397
0.0502769
-0.0153469
0.0527119
-0.0211187
0.0559341
-0.0274938
0.0599319
-0.0338619
0.0647453
-0.0399817
0.0704308
-0.045612
0.0769284
-0.0503671
0.0840538
-0.0538485
0.0915886
-0.0557783
0.0993021
-0.0560395
0.106969
-0.0546748
0.114389
-0.051896
0.121403
-0.048056
0.127906
-0.0435706
0.133843
-0.0388334
0.139224
-0.0341416
0.144076
-0.0296572
0.148422
-0.0255069
0.152308
-0.0217659
0.155786
-0.0184362
0.15891
-0.0154803
0.161732
-0.0128376
0.164299
-0.0104345
0.166648
-0.00820166
0.168796
-0.00606438
0.170755
-0.00397582
0.172544
-0.00191267
0.174076
6.52085e-05
0.175441
0.00187357
0.176614
0.00356291
0.177619
0.00509319
0.178479
0.00650405
0.179212
0.00784117
0.179831
0.00914583
0.18035
0.0104444
0.180779
0.011752
0.181127
0.013078
0.181403
0.0144314
0.181617
0.0158237
0.181774
0.0172691
0.181883
0.0187838
0.181949
0.0203877
0.181975
0.022094
0.181966
0.0239373
0.181924
0.0258998
0.181851
0.0280939
0.181752
0.0303374
0.181621
0.0330941
0.18147
0.0355082
0.181284
0.039283
0.181086
0.0414991
0.180846
0.0470323
0.180598
0.0486387
0.180307
0.0563963
0.180002
0.0577877
0.179656
0.0673258
0.179294
0.0694127
0.178879
0.0809483
0.17845
0.0833329
0.0978914
0.0887531
-0.0163528
0.090299
-0.0226646
0.092267
-0.0294618
0.0945828
-0.0361777
0.0973513
-0.0427502
0.100642
-0.0489031
0.10442
-0.0541448
0.10858
-0.0580089
0.113006
-0.0602038
0.117584
-0.0606175
0.122212
-0.0593031
0.126801
-0.0564846
0.131274
-0.0525294
0.135571
-0.0478678
0.139643
-0.042905
0.143463
-0.0379617
0.147042
-0.0332359
0.150359
-0.0288247
0.153404
-0.024811
0.156184
-0.0212159
0.158716
-0.0180126
0.161028
-0.0151488
0.16315
-0.0125564
0.165111
-0.0101628
0.166936
-0.00788933
0.168634
-0.00567395
0.170214
-0.00349241
0.171644
-0.0013652
0.172911
0.000606868
0.174041
0.00243279
0.175035
0.00409871
0.17591
0.00562962
0.176676
0.0070746
0.177345
0.00847722
0.177924
0.00986521
0.178422
0.0112544
0.178845
0.0126546
0.179202
0.0140746
0.1795
0.0155259
0.179745
0.0170236
0.179945
0.0185843
0.180103
0.0202291
0.180226
0.0219718
0.180315
0.0238484
0.180374
0.0258404
0.180404
0.0280637
0.180411
0.030331
0.180388
0.0331166
0.180348
0.035548
0.180275
0.0393561
0.180193
0.0415813
0.18007
0.0471551
0.179943
0.0487659
0.179772
0.0565671
0.179593
0.0579673
0.179369
0.0675498
0.179133
0.0696482
0.178841
0.0812406
0.178539
0.0836352
0.0982658
0.12189
-0.0169842
0.122692
-0.0234664
0.123455
-0.0302253
0.124092
-0.0368141
0.124746
-0.0434041
0.12557
-0.0497278
0.126593
-0.0551675
0.127798
-0.0592135
0.129186
-0.0615927
0.130767
-0.0621983
0.132556
-0.0610918
0.134565
-0.0584935
0.136787
-0.0547516
0.139193
-0.0502737
0.14173
-0.0454422
0.144334
-0.040565
0.146954
-0.035856
0.149553
-0.0314246
0.152063
-0.0273201
0.154435
-0.0235887
0.156651
-0.020228
0.158705
-0.0172032
0.16061
-0.0144607
0.162383
-0.011936
0.164046
-0.00955303
0.165615
-0.0072427
0.167089
-0.00496604
0.168473
-0.00274967
0.1697
-0.000619807
0.170827
0.00130581
0.171839
0.00308641
0.172748
0.00472063
0.173565
0.00625811
0.174296
0.00774604
0.174948
0.00921289
0.175528
0.010675
0.17604
0.0121422
0.176492
0.013623
0.176889
0.0151286
0.177238
0.0166744
0.177545
0.0182775
0.177814
0.0199598
0.17805
0.0217356
0.178256
0.0236424
0.178436
0.0256607
0.17859
0.0279101
0.178723
0.0301979
0.17883
0.0330094
0.178923
0.0354544
0.178986
0.0392932
0.179044
0.0415236
0.179063
0.0471361
0.179082
0.0487467
0.179058
0.0565915
0.17903
0.0579946
0.178957
0.0676231
0.178877
0.0697282
0.178738
0.0813793
0.178594
0.0837799
0.098487
0.149427
-0.0168129
0.149178
-0.0232181
0.14852
-0.029567
0.147433
-0.0357267
0.146084
-0.0420552
0.144531
-0.0481749
0.142851
-0.0534878
0.141243
-0.057605
0.139847
-0.0601968
0.138775
-0.0611268
0.138137
-0.0604539
0.138015
-0.0583714
0.138437
-0.0551734
0.139378
-0.0512144
0.140766
-0.0468309
0.142501
-0.0422992
0.144471
-0.0378267
0.146594
-0.0335477
0.148786
-0.0295113
0.150948
-0.0257515
0.153026
-0.0223053
0.154988
-0.0191655
0.156828
-0.0163004
0.158552
-0.0136602
0.160177
-0.011178
0.161717
-0.0087826
0.163178
-0.00642723
0.164546
-0.0041181
0.165832
-0.00190496
0.166974
0.000163377
0.168037
0.00202312
0.169003
0.00375446
0.169888
0.00537367
0.170697
0.00693681
0.171437
0.00847347
0.172111
0.0100004
0.172726
0.0115273
0.173286
0.0130626
0.173798
0.0146172
0.174266
0.0162063
0.174696
0.0178475
0.175092
0.0195633
0.17546
0.0213682
0.175801
0.0233015
0.176119
0.0253421
0.176416
0.0276139
0.176696
0.0299178
0.176953
0.0327518
0.177202
0.0352058
0.177423
0.0390721
0.177644
0.0413028
0.177829
0.0469515
0.178019
0.0485564
0.178167
0.0564434
0.178318
0.0578434
0.178424
0.0675178
0.178528
0.0696241
0.178573
0.081334
0.178616
0.0837365
0.0985221
0.170351
-0.0154759
0.168702
-0.0215691
0.166367
-0.0272312
0.163481
-0.0328412
0.160229
-0.0388034
0.156624
-0.0445696
0.152752
-0.0496159
0.148839
-0.053692
0.145204
-0.0565621
0.14207
-0.0579928
0.13961
-0.0579941
0.137939
-0.0567002
0.137089
-0.054323
0.137019
-0.0511441
0.137631
-0.0474435
0.138792
-0.0434598
0.140353
-0.0393879
0.14218
-0.0353747
0.144174
-0.0315058
0.146231
-0.0278084
0.148261
-0.0243356
0.150212
-0.0211164
0.152061
-0.0181489
0.153805
-0.015404
0.155455
-0.0128285
0.157026
-0.0103533
0.158524
-0.00792489
0.159944
-0.00553856
0.161279
-0.00324027
0.162509
-0.00106641
0.163638
0.000894507
0.164688
0.00270451
0.16566
0.00440146
0.166564
0.00603279
0.167405
0.00763196
0.168189
0.00921646
0.16892
0.0107963
0.169603
0.0123798
0.170243
0.0139775
0.170844
0.0156048
0.171413
0.0172791
0.171952
0.0190238
0.172468
0.0208532
0.172961
0.0228084
0.173436
0.0248665
0.173894
0.0271565
0.17434
0.0294715
0.174768
0.0323238
0.175193
0.0347812
0.175593
0.0386714
0.176
0.0408964
0.176373
0.046578
0.176758
0.048171
0.177104
0.0560975
0.17746
0.0574881
0.177771
0.0672063
0.178087
0.0693084
0.178346
0.0810753
0.178607
0.083475
0.0983389
0.182332
-0.0131706
0.179373
-0.0186109
0.175572
-0.0234294
0.17127
-0.0285395
0.16658
-0.0341133
0.161496
-0.0394857
0.156176
-0.044296
0.15086
-0.0483765
0.145832
-0.0515339
0.141411
-0.0535715
0.137826
-0.0544095
0.135207
-0.0540805
0.133579
-0.0526949
0.132888
-0.0504532
0.133018
-0.0475739
0.133816
-0.0442581
0.135116
-0.0406879
0.136759
-0.0370176
0.138614
-0.0333609
0.140598
-0.0297916
0.142616
-0.0263538
0.144596
-0.0230961
0.146493
-0.0200468
0.148294
-0.0172043
0.150003
-0.0145382
0.151636
-0.011986
0.153201
-0.00948962
0.154698
-0.00703542
0.156112
-0.00465439
0.157456
-0.00241028
0.158658
-0.000307915
0.159816
0.00154681
0.160897
0.00331986
0.161914
0.00501621
0.162873
0.00667261
0.163781
0.0083087
0.164642
0.0099353
0.165461
0.0115608
0.166243
0.0131958
0.166992
0.0148557
0.167713
0.0165577
0.168411
0.0183261
0.169089
0.0201748
0.169751
0.0221468
0.1704
0.0242171
0.171036
0.0265202
0.171667
0.0288405
0.172285
0.0317065
0.172905
0.0341608
0.173506
0.0380707
0.17412
0.0402829
0.174704
0.0459934
0.175308
0.0475674
0.175876
0.0555296
0.17646
0.0569039
0.177004
0.0666624
0.177558
0.0687542
0.178059
0.0805744
0.178567
0.0829667
0.0979058
0.184254
-0.0105914
0.180593
-0.0149503
0.176086
-0.0189218
0.171167
-0.0236213
0.165818
-0.0287634
0.160083
-0.0337507
0.154165
-0.0383782
0.148295
-0.0425063
0.142711
-0.04595
0.137734
-0.0485946
0.133631
-0.0503069
0.130536
-0.0509856
0.12848
-0.0506386
0.127417
-0.0493905
0.127238
-0.047394
0.127788
-0.0448091
0.128904
-0.0418031
0.130422
-0.0385358
0.132204
-0.0351434
0.134141
-0.031728
0.13615
-0.0283628
0.138167
-0.0251132
0.140138
-0.022018
0.142028
-0.0190941
0.143831
-0.0163416
0.145559
-0.0137135
0.147221
-0.0111517
0.148819
-0.0086333
0.150347
-0.0061826
0.151786
-0.00384956
0.153152
-0.0016742
0.154405
0.000294013
0.155616
0.00210915
0.156762
0.00386966
0.157856
0.00557912
0.158903
0.00726175
0.159909
0.0089296
0.160878
0.0105915
0.161815
0.0122582
0.162726
0.0139451
0.163614
0.0156694
0.164485
0.0174558
0.165342
0.0193181
0.166187
0.0213013
0.167026
0.0233777
0.167858
0.0256883
0.168692
0.0280072
0.169516
0.0308816
0.170352
0.0333255
0.171172
0.0372503
0.172014
0.0394415
0.17283
0.0451766
0.173674
0.0467237
0.174487
0.0547162
0.175324
0.0560675
0.176126
0.0658603
0.176944
0.067936
0.177715
0.0798037
0.178497
0.082184
0.0971921
0.178033
-0.00824255
0.174295
-0.0112122
0.170114
-0.0147407
0.165481
-0.0189884
0.16034
-0.0236226
0.154886
-0.0282967
0.149313
-0.0328056
0.143806
-0.0369987
0.138565
-0.040709
0.133766
-0.043796
0.12959
-0.0461311
0.126213
-0.0476078
0.123776
-0.0482016
0.122299
-0.0479134
0.121706
-0.0468011
0.121876
-0.0449793
0.122665
-0.0425924
0.123924
-0.039795
0.125516
-0.0367351
0.127329
-0.0335405
0.129272
-0.0303058
0.131263
-0.0271043
0.133242
-0.0239974
0.135176
-0.0210283
0.13705
-0.0182153
0.138866
-0.0155294
0.140631
-0.0129163
0.142343
-0.0103458
0.143996
-0.00783555
0.145576
-0.00542949
0.14708
-0.00317827
0.148484
-0.0011105
0.149826
0.000767866
0.151119
0.00257639
0.152364
0.00433447
0.153566
0.00605915
0.154733
0.00776336
0.155867
0.0094566
0.156976
0.0111497
0.158063
0.0128582
0.159133
0.0145991
0.160191
0.016398
0.161241
0.0182679
0.162286
0.0202563
0.163331
0.0223324
0.164375
0.0246444
0.165428
0.0269548
0.166477
0.029832
0.167546
0.0322569
0.168604
0.0361919
0.169693
0.0383527
0.170762
0.0441075
0.171867
0.0456188
0.172948
0.0536353
0.174059
0.0549566
0.175143
0.0647759
0.17625
0.0668297
0.177316
0.0787369
0.178399
0.0811009
0.0961683
0.206872
-0.00611103
-0.209003
0.205482
-0.00982257
0.203952
-0.013211
0.202015
-0.0170512
0.199607
-0.0212145
0.196756
-0.0254459
0.193517
-0.0295662
0.189942
-0.0334235
0.18611
-0.0368766
0.182118
-0.0398048
0.178084
-0.0420965
0.17413
-0.0436539
0.170365
-0.0444364
0.166892
-0.044441
0.163794
-0.0437029
0.161121
-0.0423061
0.158894
-0.0403654
0.157106
-0.0380071
0.155728
-0.0353566
0.154713
-0.0325263
0.154012
-0.0296044
0.153572
-0.0266648
0.153346
-0.0237709
0.153287
-0.0209698
0.153357
-0.0182849
0.153525
-0.0156971
0.153769
-0.0131606
0.154074
-0.0106511
0.154427
-0.00818821
0.154814
-0.00581627
0.155218
-0.00358238
0.155639
-0.00153181
0.156033
0.000373615
0.156414
0.00219575
0.156782
0.00396661
0.157135
0.00570622
0.157472
0.00742663
0.157791
0.00913707
0.158093
0.0108477
0.158378
0.0125736
0.158645
0.0143314
0.158897
0.0161462
0.159134
0.0180309
0.159358
0.0200326
0.15957
0.0221208
0.159771
0.0244426
0.159963
0.0267628
0.16015
0.0296454
0.160328
0.0320788
0.160505
0.0360148
0.160677
0.0381812
0.160847
0.0439378
0.161022
0.0454434
0.161185
0.0534726
0.16137
0.0547716
0.161534
0.0646112
0.161725
0.0666388
0.161899
0.0785636
0.1621
0.0808989
0.0959874
0.216342
-0.00459588
-0.217858
0.214754
-0.0082347
0.213232
-0.0116884
0.211382
-0.0152014
0.209083
-0.0189154
0.206369
-0.0227324
0.20329
-0.0264864
0.199895
-0.0300286
0.196253
-0.0332351
0.192449
-0.0360007
0.188583
-0.0382304
0.184768
-0.0398388
0.181108
-0.0407764
0.177696
-0.0410291
0.174609
-0.0406162
0.171899
-0.039596
0.169591
-0.038057
0.167685
-0.0361012
0.166162
-0.0338333
0.164987
-0.0313519
0.164123
-0.0287398
0.163526
-0.0260677
0.163152
-0.0233969
0.162959
-0.0207767
0.162908
-0.0182348
0.162972
-0.0157605
0.163128
-0.0133167
0.163361
-0.0108841
0.163656
-0.00848346
0.164
-0.00616037
0.16438
-0.00396209
0.164768
-0.00192004
0.165154
-1.1769e-05
0.165533
0.00181598
0.165904
0.00359618
0.166262
0.0053477
0.166607
0.00708227
0.166935
0.00880834
0.167248
0.0105354
0.167543
0.0122779
0.167823
0.0140521
0.168086
0.0158826
0.168335