/*--------------------------------*- C++ -*----------------------------------*\
| =========                 |                                                 |
| \\      /  F ield         | OpenFOAM: The Open Source CFD Toolbox           |
|  \\    /   O peration     | Version:  2512                                  |
|   \\  /    A nd           | Website:  www.openfoam.com                      |
|    \\/     M anipulation  |                                                 |
\*---------------------------------------------------------------------------*/
FoamFile
{
    version     2.0;
    format      ascii;
    arch        "LSB;label=32;scalar=64";
    class       volVectorField;
    location    "112.5";
    object      U;
}
// * * * * * * * * * * * * * * * * * * * * * * * * * * * * * * * * * * * * * //

dimensions      [0 1 -1 0 0 0 0];

internalField   nonuniform List<vector> 
13248
(
(-0.0109579 0.00964808 6.72669e-20)
(-0.0188685 0.0174063 0)
(-0.0147266 0.0181903 -1.27819e-19)
(0.00101363 0.015057 1.2041e-19)
(0.028293 0.0100908 1.12854e-19)
(0.067137 0.0047342 0)
(0.117487 4.11156e-06 0)
(0.179021 -0.00338269 2.67761e-19)
(0.25099 -0.00493096 -3.38353e-21)
(0.332109 -0.00433137 -2.30079e-19)
(0.420531 -0.00145252 2.07117e-19)
(0.51391 0.00365732 -1.28942e-19)
(0.609542 0.0107733 0)
(0.704567 0.0195105 -2.05713e-19)
(0.796193 0.0293557 3.79072e-19)
(0.881898 0.0397126 -8.9018e-20)
(0.959605 0.0499571 -1.51361e-19)
(1.0278 0.0594756 1.4209e-19)
(1.08557 0.0677726 0)
(1.13265 0.0742687 0)
(1.16938 0.0791151 0)
(1.19634 0.0807135 0)
(1.21531 0.0824842 4.15434e-20)
(1.2267 0.0757898 1.51372e-19)
(-0.0110408 0.0089936 -2.03308e-19)
(-0.0151631 0.0153991 1.3901e-19)
(-0.00301426 0.0156249 -1.03671e-21)
(0.0242859 0.0125036 -1.83975e-19)
(0.0661837 0.00811992 -1.12728e-19)
(0.122206 0.00401108 -1.0635e-19)
(0.191624 0.00126073 -1.94096e-19)
(0.273194 0.00059094 1.83497e-19)
(0.364985 0.00241724 0)
(0.464331 0.00686904 1.9756e-21)
(0.567944 0.0138024 4.43139e-21)
(0.672155 0.022826 1.29549e-19)
(0.773251 0.0333501 0)
(0.867813 0.0446565 0)
(0.953015 0.0559816 1.38489e-19)
(1.02683 0.0665983 -2.59827e-19)
(1.08814 0.0758878 1.5067e-19)
(1.13673 0.0833862 -1.41452e-19)
(1.17321 0.0888167 -6.18034e-20)
(1.19884 0.0920501 -1.09811e-19)
(1.21526 0.0932269 -4.57124e-20)
(1.22467 0.0921523 -8.53212e-20)
(1.22824 0.0903477 1.25741e-19)
(1.2293 0.0844075 3.63874e-20)
(-0.00985361 0.00748513 0)
(-0.00756023 0.011451 0)
(0.0153384 0.0107634 6.50905e-20)
(0.0570409 0.00792119 6.00026e-20)
(0.116345 0.00491209 -1.5522e-21)
(0.191957 0.00326483 -1.09563e-19)
(0.281997 0.0039919 0)
(0.383728 0.00763628 -9.08746e-20)
(0.493486 0.0143086 8.4491e-20)
(0.606859 0.0237201 5.90663e-22)
(0.719066 0.0352446 -1.40551e-19)
(0.825472 0.0480195 -1.25664e-19)
(0.922077 0.0610751 4.32011e-21)
(1.00591 0.0734685 -9.83928e-20)
(1.07524 0.0844008 2.39886e-19)
(1.12963 0.0932972 0)
(1.16978 0.0998445 -1.49004e-19)
(1.1973 0.103977 7.21953e-20)
(1.2144 0.105854 6.17491e-20)
(1.22349 0.105716 0)
(1.22696 0.104082 4.9865e-20)
(1.22684 0.100847 -1.73193e-19)
(1.22446 0.0977483 1.62581e-19)
(1.22232 0.0913601 1.03293e-19)
(-0.00714894 0.00535156 -7.2054e-20)
(0.00470266 0.0061957 -7.44749e-20)
(0.041507 0.00464044 6.74207e-20)
(0.100641 0.00274071 0)
(0.179932 0.00226222 0)
(0.27675 0.00455808 -2.04061e-21)
(0.38743 0.0103363 0)
(0.507144 0.0196724 -2.75956e-19)
(0.63016 0.032078 2.54799e-19)
(0.750412 0.0466164 -3.12267e-19)
(0.862239 0.0620798 7.03837e-20)
(0.961073 0.0772006 0)
(1.04391 0.0908522 1.13107e-19)
(1.10949 0.102198 -2.07935e-19)
(1.15821 0.110766 4.91939e-20)
(1.19176 0.11645 1.22086e-19)
(1.21272 0.119444 -7.17298e-21)
(1.22402 0.120142 -1.36023e-19)
(1.22851 0.119026 0)
(1.22867 0.11657 0)
(1.22636 0.113225 -4.72237e-20)
(1.22284 0.109081 4.21941e-20)
(1.21883 0.105243 1.50076e-19)
(1.21517 0.0989081 -1.40882e-19)
(-0.00263517 0.00283692 -7.59061e-20)
(0.0223979 0.000399315 -7.55667e-20)
(0.076536 -0.00144358 2.12586e-19)
(0.15603 -0.00124992 -1.28862e-19)
(0.257207 0.00232136 1.21295e-19)
(0.37541 0.0101758 2.19684e-19)
(0.504531 0.0223724 -1.54847e-19)
(0.637319 0.0381693 -1.86262e-19)
(0.766189 0.0562274 5.14753e-21)
(0.884267 0.074898 2.36181e-19)
(0.986319 0.0925467 0)
(1.06932 0.107836 6.3488e-20)
(1.13253 0.119907 0)
(1.17722 0.128424 -1.0035e-19)
(1.20606 0.133519 1.40548e-19)
(1.22245 0.13565 8.57667e-22)
(1.22984 0.135437 -3.61764e-20)
(1.23133 0.133516 6.62205e-20)
(1.22932 0.130438 5.7444e-20)
(1.22549 0.126614 -5.11834e-20)
(1.22088 0.122348 4.7213e-20)
(1.21607 0.117687 -4.21842e-20)
(1.21123 0.113301 0)
(1.20697 0.107032 -3.22819e-20)
(0.00401944 0.000205088 7.58953e-20)
(0.0462287 -0.00506489 7.95665e-20)
(0.121126 -0.00601971 -7.1197e-20)
(0.223356 -0.00211499 1.32352e-19)
(0.347036 0.00723431 -1.24573e-19)
(0.484755 0.0220856 1.12086e-19)
(0.62759 0.041438 -5.38647e-20)
(0.766153 0.0634497 1.4006e-19)
(0.892039 0.0858974 -8.79203e-20)
(0.999107 0.106665 1.53301e-19)
(1.08415 0.124135 -3.52198e-19)
(1.14692 0.1374 1.28955e-19)
(1.1895 0.14627 -1.10459e-19)
(1.21545 0.151126 1.03753e-19)
(1.22889 0.152686 8.77983e-20)
(1.23373 0.151787 7.58372e-20)
(1.23321 0.149198 -2.11488e-19)
(1.2297 0.145535 1.30637e-19)
(1.22475 0.141227 -5.74464e-20)
(1.21928 0.136546 1.49216e-19)
(1.21379 0.131648 -4.82174e-20)
(1.20846 0.126582 -1.16585e-19)
(1.20337 0.121694 1.07495e-19)
(1.19871 0.115484 3.2272e-20)
(0.0131405 -0.00223214 0)
(0.076693 -0.00921995 6.19347e-22)
(0.175393 -0.00755267 1.48527e-19)
(0.301662 0.00199029 -1.39357e-19)
(0.446643 0.0187558 -1.25203e-19)
(0.59971 0.0414681 2.32336e-19)
(0.749389 0.0677309 -1.07725e-19)
(0.885296 0.0945772 1.42375e-19)
(0.999922 0.11922 -3.63115e-21)
(1.08956 0.139621 -8.00879e-20)
(1.15422 0.154745 1.72158e-19)
(1.1967 0.164514 -2.53408e-19)
(1.22142 0.169552 0)
(1.2332 0.170849 -4.88334e-20)
(1.23639 0.169457 -1.28762e-19)
(1.23443 0.166297 4.07401e-20)
(1.22974 0.162061 1.78492e-21)
(1.22384 0.157216 -8.62997e-20)
(1.2176 0.152046 6.15822e-21)
(1.21146 0.146708 9.9494e-20)
(1.2056 0.141287 -4.38258e-20)
(1.20005 0.135828 -1.66022e-20)
(1.19479 0.130452 5.1362e-20)
(1.18986 0.12428 0)
(0.0249768 -0.00410115 0)
(0.113922 -0.0110062 4.03053e-20)
(0.238661 -0.00454383 -1.9394e-19)
(0.38874 0.012611 7.03245e-20)
(0.551775 0.0379776 -6.61869e-20)
(0.714056 0.0685162 -6.02277e-20)
(0.862698 0.10037 -1.05896e-19)
(0.988148 0.129812 5.31905e-20)
(1.08561 0.154126 4.58766e-20)
(1.15498 0.171983 0)
(1.19962 0.183338 1.02367e-19)
(1.22476 0.189043 -1.51429e-19)
(1.23598 0.190376 1.12398e-19)
(1.23821 0.188645 4.88586e-20)
(1.2352 0.184956 -3.9521e-20)
(1.22954 0.180117 -3.23792e-20)
(1.22279 0.174658 -2.99492e-20)
(1.21583 0.168896 9.0875e-20)
(1.20906 0.163002 0)
(1.20267 0.157066 4.48159e-20)
(1.19667 0.151136 3.72459e-20)
(1.19104 0.145241 -9.3006e-20)
(1.1857 0.139378 -6.31121e-20)
(1.18062 0.133187 5.82987e-20)
(0.039636 -0.00496412 -4.36218e-20)
(0.157548 -0.009323 -1.64301e-21)
(0.309368 0.00435018 3.94523e-20)
(0.48126 0.0308174 1.09969e-19)
(0.657271 0.0652011 3.17595e-20)
(0.821595 0.102519 -6.15141e-20)
(0.961793 0.137807 5.61098e-20)
(1.0711 0.167283 -4.89148e-20)
(1.14868 0.189022 8.7201e-20)
(1.19816 0.202858 3.67055e-20)
(1.22558 0.209834 -1.04358e-19)
(1.23741 0.211546 3.04581e-20)
(1.23932 0.209625 5.14267e-20)
(1.23559 0.205427 -2.54048e-20)
(1.22909 0.19993 0)
(1.22153 0.193761 3.69635e-20)
(1.21382 0.187289 6.1867e-20)
(1.2064 0.180711 1.00949e-20)
(1.19944 0.174128 -5.11905e-20)
(1.19296 0.16759 2.11573e-20)
(1.18694 0.161127 0)
(1.18129 0.154746 -1.63997e-20)
(1.17592 0.148403 -1.54923e-20)
(1.17076 0.142109 0)
(0.0570177 -0.00434316 0)
(0.206618 -0.00311868 2.28625e-20)
(0.385097 0.0201771 4.2199e-20)
(0.575111 0.0570831 -1.12126e-19)
(0.757864 0.0999688 3.62464e-20)
(0.917222 0.142158 0)
(1.04329 0.178325 5.39006e-20)
(1.13352 0.205471 -7.5184e-20)
(1.19131 0.22301 -4.3539e-20)
(1.22338 0.232078 1.95813e-20)
(1.23727 0.23463 -3.08478e-20)
(1.23965 0.232707 7.51477e-20)
(1.23556 0.228014 3.70664e-20)
(1.22834 0.221772 -2.60656e-20)
(1.21997 0.21476 -2.72833e-21)
(1.21149 0.207426 -6.92205e-20)
(1.20338 0.200006 3.13878e-20)
(1.19581 0.19262 -8.22236e-22)
(1.18882 0.185325 0)
(1.18238 0.178153 -2.11794e-20)
(1.1764 0.171115 0)
(1.1708 0.164199 4.70881e-20)
(1.16548 0.157386 -5.57493e-20)
(1.16031 0.15088 2.53146e-20)
(0.0767732 -0.00176176 -1.19308e-20)
(0.259581 0.00850124 -5.74799e-20)
(0.462754 0.0435649 6.53672e-20)
(0.665902 0.0912457 3.82667e-20)
(0.84892 0.141223 -1.83002e-20)
(0.997518 0.185847 3.05227e-20)
(1.10606 0.220398 -1.48576e-20)
(1.17677 0.243364 2.45231e-20)
(1.21677 0.255745 0)
(1.23475 0.259846 5.48021e-20)
(1.23871 0.258232 -2.48086e-21)
(1.23477 0.253092 -4.38125e-20)
(1.22702 0.246009 1.85642e-20)
(1.21788 0.237989 -2.0693e-20)
(1.2086 0.229605 -7.65395e-21)
(1.19974 0.221154 9.08168e-21)
(1.19152 0.212783 -6.84974e-21)
(1.18397 0.204559 -3.69066e-20)
(1.17708 0.196516 2.25652e-20)
(1.17075 0.188671 4.53648e-21)
(1.16491 0.181021 3.95828e-21)
(1.15943 0.17354 3.45521e-21)
(1.15421 0.166275 0)
(1.14909 0.15943 0)
(0.0983644 0.00321862 1.1939e-20)
(0.314499 0.0261855 -1.19205e-20)
(0.539004 0.0746397 -2.17692e-20)
(0.749611 0.132552 0)
(0.92701 0.187529 -9.07778e-21)
(1.0608 0.232027 -8.14732e-21)
(1.15057 0.262853 -1.38703e-20)
(1.20307 0.280404 0)
(1.22814 0.287218 0)
(1.23538 0.286483 0)
(1.23243 0.281058 0)
(1.2245 0.273058 0)
(1.21468 0.263839 -1.16046e-20)
(1.20459 0.254173 5.26817e-21)
(1.19495 0.244455 9.05758e-21)
(1.18604 0.234873 4.22436e-21)
(1.17792 0.225509 1.02935e-20)
(1.17055 0.216399 0)
(1.16386 0.207562 -2.39861e-21)
(1.15777 0.199002 -2.29176e-21)
(1.15216 0.190703 -3.96459e-21)
(1.14692 0.182643 -3.46074e-21)
(1.14191 0.174935 0)
(1.13698 0.167625 2.40367e-21)
(-3.70412e-05 -0.0428681 8.93476e-21)
(-0.00406484 -0.0975759 -9.27693e-21)
(-0.0139654 -0.13033 -1.75599e-20)
(-0.0272175 -0.147033 0)
(-0.0422571 -0.152597 -2.36161e-20)
(-0.0582094 -0.150914 7.49956e-21)
(-0.0744692 -0.144778 -1.39288e-20)
(-0.0906256 -0.135958 0)
(-0.106417 -0.125363 0)
(-0.121673 -0.113273 0)
(-0.136268 -0.0995669 0)
(-0.150092 -0.0839195 0)
(-0.163033 -0.0659412 3.30346e-22)
(-0.174958 -0.0452675 -9.46949e-21)
(-0.185708 -0.0215998 1.71796e-20)
(-0.195082 0.00526497 2.44586e-20)
(-0.202958 0.0353652 7.14623e-21)
(-0.209177 0.0685855 0)
(-0.213481 0.104676 6.82278e-21)
(-0.215691 0.143197 -1.84301e-20)
(-0.215645 0.183519 -1.10968e-20)
(-0.213195 0.224866 -1.02077e-20)
(-0.208388 0.266416 0)
(-0.201937 0.307285 0)
(0.0019257 -0.0378038 -2.65498e-20)
(-0.000314936 -0.0855676 4.60101e-20)
(-0.0101387 -0.113764 -1.6903e-20)
(-0.0241354 -0.127604 -3.26219e-20)
(-0.0402439 -0.131514 4.63551e-20)
(-0.0573328 -0.129017 -2.90072e-20)
(-0.0746601 -0.122634 4.12101e-20)
(-0.0917554 -0.113946 2.52507e-20)
(-0.108343 -0.103755 0)
(-0.124259 -0.0922919 -2.32946e-20)
(-0.139384 -0.0794282 1.86947e-23)
(-0.153608 -0.0648538 2.06761e-20)
(-0.166808 -0.0482071 2.80185e-20)
(-0.178825 -0.0291553 3.51954e-20)
(-0.189453 -0.00744934 -1.73726e-20)
(-0.198492 0.0170482 -4.69019e-20)
(-0.205723 0.0443306 1.33993e-20)
(-0.210872 0.0743242 -5.18575e-20)
(-0.213655 0.106775 0)
(-0.213812 0.141286 1.20095e-20)
(-0.211091 0.177326 1.10819e-20)
(-0.205161 0.21426 1.01937e-20)
(-0.195843 0.251482 0)
(-0.184536 0.288503 0)
(0.0032405 -0.0319251 0)
(0.00223395 -0.0720722 8.82535e-20)
(-0.00736455 -0.0956516 -3.3394e-20)
(-0.0215464 -0.106903 3.20393e-20)
(-0.0378991 -0.109575 -8.88808e-20)
(-0.0550947 -0.106707 0)
(-0.0722795 -0.100485 -5.26675e-20)
(-0.0889276 -0.0922856 2.43105e-20)
(-0.104743 -0.0828111 -4.5584e-20)
(-0.119557 -0.0722652 2.03587e-20)
(-0.133251 -0.0605352 1.20874e-19)
(-0.145707 -0.0473483 -5.66753e-20)
(-0.156784 -0.0323871 -8.86468e-20)
(-0.166311 -0.0153667 -3.10692e-20)
(-0.174079 0.0039135 8.76099e-22)
(-0.179847 0.0255452 1.12639e-19)
(-0.183337 0.0495264 -5.24311e-20)
(-0.184245 0.075734 2.38763e-21)
(-0.182245 0.103921 0)
(-0.177032 0.133733 -3.79163e-20)
(-0.168331 0.164736 0)
(-0.155726 0.196466 -3.43183e-20)
(-0.138557 0.228548 1.21795e-19)
(-0.118213 0.260864 -9.03987e-22)
(0.00383106 -0.0256753 0)
(0.00340744 -0.0580005 -8.4928e-22)
(-0.00592127 -0.0771136 3.22027e-20)
(-0.019841 -0.0861329 -3.02971e-20)
(-0.0357419 -0.0880129 2.93851e-20)
(-0.0521689 -0.0852382 1.62452e-19)
(-0.0681878 -0.0796216 -5.11061e-20)
(-0.0832254 -0.07232 -4.71161e-20)
(-0.0969618 -0.0639353 8.95396e-20)
(-0.109217 -0.0546526 -1.25603e-19)
(-0.119866 -0.0443868 3.82844e-20)
(-0.128789 -0.0329137 3.52461e-20)
(-0.135844 -0.0199709 0)
(-0.140853 -0.005328 3.18242e-20)
(-0.143602 0.0111767 0)
(-0.143843 0.0296134 5.0237e-20)
(-0.141298 0.0499494 -9.37199e-20)
(-0.135663 0.072044 2.54032e-20)
(-0.126617 0.0956497 8.01109e-20)
(-0.113841 0.120426 3.78756e-20)
(-0.0970807 0.145986 0)
(-0.0760172 0.171976 -8.93998e-20)
(-0.0496291 0.198357 2.90015e-20)
(-0.0180917 0.22565 0)
(0.00368372 -0.0194142 0)
(0.00314149 -0.044089 -1.01381e-19)
(-0.00597933 -0.059048 -3.17788e-20)
(-0.0193239 -0.0662465 -6.00039e-20)
(-0.0342349 -0.0677988 5.65037e-20)
(-0.0492067 -0.0656 -5.36897e-20)
(-0.0632638 -0.0610678 9.89985e-20)
(-0.0758023 -0.0551258 4.63896e-20)
(-0.0864812 -0.0482685 -1.30859e-19)
(-0.0951085 -0.040659 7.9875e-20)
(-0.101556 -0.0322403 -1.12336e-19)
(-0.105709 -0.0228382 2.38226e-19)
(-0.107431 -0.0122438 -1.2813e-19)
(-0.10656 -0.00027206 5.68407e-20)
(-0.102898 0.0132034 1.5665e-19)
(-0.0962212 0.0282284 -5.32881e-20)
(-0.0862844 0.0447566 -4.57065e-20)
(-0.0728276 0.0626453 -4.265e-20)
(-0.0555834 0.0816537 0)
(-0.0342701 0.101455 -6.37166e-20)
(-0.00866867 0.121647 -5.53861e-20)
(0.0214201 0.14186 8.26108e-20)
(0.0570173 0.162157 9.75569e-20)
(0.10006 0.183472 -8.96675e-20)
(0.0028304 -0.0133976 0)
(0.00147552 -0.0308687 -1.31903e-19)
(-0.00756136 -0.0420981 3.92932e-22)
(-0.0201095 -0.0479089 1.17864e-19)
(-0.0336023 -0.0495812 0)
(-0.046564 -0.0484178 0)
(-0.0580245 -0.0454354 0)
(-0.0673736 -0.0413155 -4.51996e-20)
(-0.0742599 -0.0364336 1.07776e-21)
(-0.0784844 -0.0309193 7.86201e-20)
(-0.0799194 -0.0247327 -1.08166e-19)
(-0.0784575 -0.0177398 1.12682e-21)
(-0.0739848 -0.00977593 0)
(-0.0663657 -0.000695211 -5.68153e-20)
(-0.0554416 0.00960208 4.73547e-20)
(-0.0410357 0.0211493 -1.37812e-19)
(-0.0229571 0.0339005 1.63788e-19)
(-0.0010096 0.0477251 3.11549e-20)
(0.0250016 0.062406 -5.77524e-21)
(0.0552705 0.0776427 -1.22826e-19)
(0.08997 0.0930402 -5.26119e-20)
(0.129262 0.108151 1.69393e-19)
(0.17296 0.122792 -1.10628e-19)
(0.228843 0.137398 0)
(0.00133916 -0.00779714 6.26941e-20)
(-0.00143939 -0.0186998 6.56945e-20)
(-0.0104845 -0.0266836 -6.15828e-20)
(-0.0219989 -0.0315149 -1.16263e-19)
(-0.0336291 -0.0336825 1.09478e-19)
(-0.0440052 -0.0339191 -1.02016e-19)
(-0.0522091 -0.0328494 1.43544e-19)
(-0.0576492 -0.0309101 -4.48243e-20)
(-0.0599742 -0.0283455 8.31142e-20)
(-0.05898 -0.0252341 0)
(-0.0545369 -0.0215338 6.76546e-20)
(-0.0465423 -0.017132 -1.28811e-19)
(-0.0349005 -0.0118954 1.15768e-19)
(-0.0195088 -0.00569968 -1.08731e-19)
(-0.000247922 0.00154299 0)
(0.0230064 0.00986398 8.77468e-20)
(0.0503798 0.0192276 1.52269e-19)
(0.0819961 0.0295239 -1.44422e-19)
(0.117971 0.0405645 -6.22739e-20)
(0.158409 0.0520819 -5.53916e-20)
(0.203294 0.0637129 1.57059e-19)
(0.253452 0.0750572 4.37663e-20)
(0.304755 0.0856559 -4.23389e-20)
(0.377238 0.0946845 3.82673e-20)
(-0.000681106 -0.00274183 -6.27026e-20)
(-0.005318 -0.00784626 1.95e-19)
(-0.0143075 -0.0130831 -6.10071e-20)
(-0.0243872 -0.0172706 1.15404e-19)
(-0.0335172 -0.0201765 -1.08669e-19)
(-0.0404926 -0.0220043 2.6386e-22)
(-0.0444814 -0.0230069 4.75131e-20)
(-0.0449239 -0.023378 1.73839e-19)
(-0.0414676 -0.0232207 -2.78671e-21)
(-0.0338926 -0.0225432 -7.68859e-20)
(-0.0220534 -0.0212763 0)
(-0.0058434 -0.0193058 -6.05889e-20)
(0.0148288 -0.0165021 1.16796e-19)
(0.0400427 -0.012744 1.02337e-19)
(0.0698631 -0.00794588 -4.93238e-20)
(0.104341 -0.00207103 -9.38817e-22)
(0.143504 0.00485768 -3.86937e-20)
(0.187349 0.0127477 6.78902e-20)
(0.235836 0.0214301 6.22611e-20)
(0.288964 0.0306839 -5.59099e-20)
(0.345983 0.0400617 4.95934e-20)
(0.409801 0.0495717 -4.50282e-20)
(0.468116 0.0581114 0)
(0.560926 0.0649352 -3.82274e-20)
(-0.00306582 0.00163868 6.26226e-20)
(-0.00971644 0.00144102 -6.49582e-20)
(-0.0183077 -0.00153926 6.14815e-20)
(-0.0262443 -0.00531733 0)
(-0.03187 -0.00903423 0)
(-0.0341782 -0.0124181 1.00603e-19)
(-0.0324346 -0.0153779 -9.47365e-20)
(-0.0261104 -0.017874 8.58437e-20)
(-0.0148436 -0.0198612 -4.04317e-19)
(0.00161267 -0.0212561 1.30934e-21)
(0.023425 -0.0219376 6.82876e-20)
(0.0506961 -0.0217647 0)
(0.0834726 -0.0205929 -1.1162e-19)
(0.121743 -0.018299 2.05791e-19)
(0.16543 -0.0147965 -1.41582e-19)
(0.214383 -0.0100521 -2.05859e-19)
(0.26837 -0.00409747 6.63452e-21)
(0.327083 0.00296241 1.37748e-19)
(0.390085 0.010928 0)
(0.457192 0.0196483 0)
(0.526265 0.028365 -4.95871e-20)
(0.602965 0.0378798 4.50219e-20)
(0.665831 0.0456208 -1.64332e-19)
(0.773129 0.0536449 1.54112e-19)
(-0.00558458 0.00519502 0)
(-0.0140303 0.00887573 0)
(-0.0215139 0.00766229 -1.84658e-19)
(-0.026198 0.00415307 5.85816e-20)
(-0.026846 -0.00028196 6.82741e-22)
(-0.0226587 -0.00496056 1.02186e-19)
(-0.0130014 -0.00948572 0)
(0.00262078 -0.0135996 -8.77517e-20)
(0.0245675 -0.0171014 8.09193e-20)
(0.0530742 -0.0198039 -1.47216e-19)
(0.0882525 -0.0215242 1.56454e-21)
(0.130084 -0.0220862 1.22662e-19)
(0.17841 -0.0213348 -3.85925e-21)
(0.232917 -0.0191551 9.692e-20)
(0.293135 -0.0154901 -1.42705e-19)
(0.358441 -0.0103558 0)
(0.428071 -0.0038512 1.4738e-19)
(0.501152 0.00384139 -2.05916e-19)
(0.576638 0.0124177 6.14265e-20)
(0.653904 0.021708 0)
(0.729979 0.0307102 5.05854e-20)
(0.810611 0.0406248 1.81831e-19)
(0.873386 0.0477664 -1.70637e-19)
(0.975636 0.057117 -1.97411e-19)
(-0.00794975 0.00777517 1.91351e-19)
(-0.0175303 0.0141531 -2.63994e-19)
(-0.0227961 0.0141887 2.48146e-22)
(-0.022703 0.0108666 5.88595e-20)
(-0.0164427 0.0059338 -1.09931e-19)
(-0.00342737 0.000406906 -1.01768e-19)
(0.016858 -0.00505575 1.88557e-19)
(0.0448264 -0.00999644 -3.37312e-21)
(0.0807399 -0.0140699 -1.64056e-19)
(0.12467 -0.0169967 2.97422e-19)
(0.176461 -0.0185415 -4.0247e-21)
(0.235702 -0.0185159 -1.26972e-19)
(0.301711 -0.0167919 0)
(0.37354 -0.0133202 0)
(0.450004 -0.00814459 -4.65021e-20)
(0.529731 -0.00141161 -8.45366e-20)
(0.611228 0.00663042 -1.48876e-19)
(0.692953 0.0156346 1.39742e-19)
(0.773348 0.0251808 -6.14456e-20)
(0.851147 0.0348335 1.10443e-19)
(0.924185 0.0438983 -5.35282e-20)
(0.994741 0.0526726 9.0513e-20)
(1.0501 0.0586926 -2.16709e-19)
(1.12557 0.0662369 3.93587e-20)
(-0.00984281 0.00926656 6.44991e-20)
(-0.0194161 0.0170265 0)
(-0.0209537 0.0177468 1.2588e-19)
(-0.0141854 0.0145576 -1.18587e-19)
(0.00127379 0.00943973 1.10027e-19)
(0.0257752 0.00366095 0)
(0.0596367 -0.00191031 0)
(0.103044 -0.00665613 -8.7522e-20)
(0.155941 -0.010124 3.26624e-21)
(0.217936 -0.0119778 7.72934e-20)
(0.288249 -0.0119812 -6.73525e-20)
(0.365686 -0.0100029 1.279e-19)
(0.448671 -0.00602866 0)
(0.535317 -0.000171189 2.04235e-19)
(0.623536 0.00732832 -3.76403e-19)
(0.711175 0.0161097 2.5793e-19)
(0.79614 0.0257193 1.5051e-19)
(0.87652 0.0356187 -1.41281e-19)
(0.9507 0.0453084 0)
(1.01736 0.0540788 0)
(1.0757 0.0618342 0)
(1.1255 0.0673505 0)
(1.1647 0.0715232 4.30845e-20)
(1.20473 0.0734388 -1.59655e-19)
(-0.193665 0.352761 -6.18456e-21)
(-0.180817 0.403042 6.20523e-21)
(-0.162056 0.446546 -1.70938e-22)
(-0.137456 0.479428 0)
(-0.105621 0.497919 -5.09367e-21)
(-0.0653199 0.497996 9.91706e-21)
(-0.0157598 0.476017 9.81509e-23)
(0.0430338 0.429394 -4.78742e-21)
(0.109393 0.356933 0)
(0.180642 0.260917 0)
(0.253916 0.144805 -3.23877e-22)
(0.325888 0.0130699 -3.17285e-22)
(0.395309 -0.12883 -4.77149e-21)
(0.461721 -0.271965 4.34499e-21)
(0.522624 -0.401863 0)
(0.574006 -0.502075 0)
(0.611921 -0.562818 2.14738e-21)
(0.634533 -0.585738 -3.85286e-22)
(0.643482 -0.580039 -1.55927e-21)
(0.641335 -0.559322 -7.85332e-23)
(0.625807 -0.541561 0)
(0.592963 -0.53852 0)
(0.549069 -0.537032 0)
(0.514868 -0.497831 0)
(0.512073 -0.385036 0)
(0.544856 -0.200699 0)
(0.60073 0.013952 6.02854e-22)
(0.6639 0.208458 -9.49282e-22)
(0.720872 0.348787 0)
(0.763173 0.430099 0)
(0.789949 0.461875 -3.50176e-22)
(0.804723 0.46486 3.40333e-22)
(0.803377 0.466435 1.42155e-22)
(0.778034 0.485353 0)
(0.735448 0.496806 0)
(0.698992 0.445894 3.95887e-22)
(0.690242 0.302937 -3.84823e-22)
(0.711366 0.0930344 0)
(0.747744 -0.109716 3.78317e-22)
(0.788675 -0.265061 -5.42046e-22)
(0.822392 -0.344506 1.33739e-22)
(0.84299 -0.387169 0)
(0.833337 -0.406013 -1.64901e-22)
(0.792138 -0.42199 1.60352e-22)
(0.744098 -0.391386 0)
(0.717788 -0.275877 0)
(0.72869 -0.116158 -8.79907e-23)
(0.768084 0.0787986 2.40816e-22)
(0.808199 0.189192 0)
(0.824559 0.30739 0)
(0.805111 0.350722 -4.84818e-23)
(0.77 0.368825 -1.06699e-24)
(0.760188 0.308157 -4.08044e-25)
(0.776749 0.124281 4.78232e-23)
(0.804032 0.0271357 0)
(0.815004 -0.20346 0)
(0.802759 -0.256993 0)
(0.792294 -0.331839 0)
(0.794186 -0.324491 0)
(0.781629 -0.0364432 0)
(-0.17268 0.330295 -5.28304e-22)
(-0.151454 0.375324 -2.17205e-20)
(-0.122645 0.413291 3.53229e-22)
(-0.0862601 0.439881 2.00575e-20)
(-0.0413294 0.451914 3.06989e-22)
(0.0123728 0.445692 0)
(0.0744769 0.41812 -2.03544e-20)
(0.143738 0.367377 4.1271e-20)
(0.217879 0.29339 -2.09208e-20)
(0.293909 0.198199 2.18994e-20)
(0.368904 0.0847842 -2.09596e-20)
(0.440458 -0.0436444 2.05575e-20)
(0.507936 -0.181993 -2.00266e-20)
(0.570419 -0.321268 -5.80717e-22)
(0.624429 -0.445366 -1.44323e-20)
(0.664992 -0.536529 1.40252e-20)
(0.688962 -0.58554 -9.06839e-21)
(0.696428 -0.596541 8.56591e-21)
(0.69049 -0.581216 -5.74131e-21)
(0.6759 -0.552185 1.03312e-20)
(0.652903 -0.524626 -4.6306e-21)
(0.615999 -0.512212 -2.45794e-22)
(0.565428 -0.509193 -4.50237e-21)
(0.517152 -0.481702 9.41095e-21)
(0.495465 -0.389645 -4.89348e-21)
(0.512158 -0.22467 3.30601e-22)
(0.559437 -0.0212521 5.80786e-21)
(0.621056 0.171653 -3.78178e-22)
(0.681612 0.31818 -8.77542e-21)
(0.731128 0.408803 7.1172e-21)
(0.767509 0.449156 -3.12728e-21)
(0.791139 0.460449 2.97117e-22)
(0.795855 0.471709 -1.42454e-22)
(0.774878 0.49925 2.94684e-22)
(0.738576 0.51301 0)
(0.710976 0.456236 0)
(0.710483 0.303057 -1.92525e-21)
(0.7373 0.0840694 1.36656e-21)
(0.774695 -0.123258 1.17685e-21)
(0.812264 -0.278268 -1.25507e-22)
(0.838819 -0.353791 -1.38957e-21)
(0.854204 -0.388718 2.12369e-22)
(0.8411 -0.397872 0)
(0.798165 -0.407749 0)
(0.746157 -0.379528 0)
(0.715222 -0.273422 0)
(0.724291 -0.124022 2.97573e-22)
(0.762392 0.0667797 -1.55389e-22)
(0.804036 0.180736 0)
(0.818898 0.307414 0)
(0.801283 0.357036 0)
(0.766297 0.374353 -1.04231e-22)
(0.758263 0.307831 -1.51219e-23)
(0.778187 0.119132 -9.12552e-23)
(0.807627 0.0229522 0)
(0.822689 -0.20292 0)
(0.807982 -0.25513 4.61584e-23)
(0.797746 -0.330681 1.04089e-22)
(0.797631 -0.32347 0)
(0.78253 -0.0351589 0)
(-0.100019 0.298178 -5.59011e-23)
(-0.0723328 0.337356 -3.94933e-20)
(-0.0367541 0.369145 3.99605e-20)
(0.00704801 0.390241 -3.73906e-20)
(0.0600423 0.397261 -3.09069e-22)
(0.121107 0.386857 0)
(0.189154 0.356519 -4.29474e-20)
(0.262429 0.30498 4.21073e-20)
(0.338478 0.232531 3.39391e-22)
(0.414484 0.140885 7.13557e-22)
(0.487796 0.0323551 7.17314e-22)
(0.556864 -0.0904591 6.81901e-22)
(0.621379 -0.223575 -4.07947e-20)
(0.679468 -0.357379 4.02266e-20)
(0.72604 -0.474367 0)
(0.755124 -0.556327 8.43101e-22)
(0.764683 -0.595123 -1.87942e-20)
(0.75736 -0.596769 1.85118e-20)
(0.737843 -0.574842 0)
(0.711834 -0.541175 0)
(0.681811 -0.506976 -8.28284e-21)
(0.642392 -0.485542 1.58128e-20)
(0.588612 -0.478473 -1.50314e-20)
(0.530089 -0.460072 -7.20643e-22)
(0.491104 -0.389177 1.73026e-20)
(0.490468 -0.246561 -1.93271e-20)
(0.52658 -0.0575009 1.86775e-20)
(0.584161 0.131416 -1.323e-21)
(0.646445 0.28287 -8.29769e-21)
(0.702038 0.382387 0)
(0.747297 0.431888 0)
(0.779206 0.452669 1.75208e-21)
(0.790013 0.474376 -2.26558e-21)
(0.774224 0.510568 3.78281e-24)
(0.74502 0.526858 3.10815e-21)
(0.726291 0.465369 -3.02056e-21)
(0.733698 0.303905 0)
(0.765872 0.0778691 5.06795e-22)
(0.804056 -0.133312 3.9597e-21)
(0.838146 -0.287859 -6.91704e-21)
(0.857333 -0.36028 2.65419e-21)
(0.867122 -0.388772 2.18841e-22)
(0.850741 -0.389155 -1.5526e-21)
(0.806703 -0.393115 1.19307e-21)
(0.751488 -0.367505 2.48721e-22)
(0.716194 -0.271239 2.58368e-22)
(0.723125 -0.132746 -2.98325e-22)
(0.759205 0.0539262 0)
(0.80188 0.171662 0)
(0.815049 0.306929 -8.0042e-22)
(0.799364 0.363089 3.94202e-22)
(0.764533 0.379754 -4.10872e-22)
(0.758226 0.307609 6.64627e-22)
(0.781276 0.113792 8.71319e-22)
(0.812812 0.0184998 -1.80668e-22)
(0.83176 -0.202182 3.31001e-22)
(0.814326 -0.252969 -2.41386e-22)
(0.803955 -0.329208 1.02208e-22)
(0.801913 -0.322196 0)
(0.784369 -0.0337709 0)
(0.00614356 0.258221 -7.39542e-20)
(0.0374151 0.291687 -9.53828e-22)
(0.0770971 0.318077 7.10602e-20)
(0.12504 0.334919 -5.93795e-22)
(0.181063 0.338525 0)
(0.244233 0.326053 0)
(0.313134 0.295413 -8.6973e-20)
(0.385824 0.245595 -6.8803e-21)
(0.459968 0.176872 1.34818e-19)
(0.533054 0.0905263 1.31572e-21)
(0.603241 -0.0117121 -4.66508e-20)
(0.669652 -0.128048 -4.37589e-20)
(0.731612 -0.255343 4.39029e-20)
(0.785843 -0.382959 0)
(0.825085 -0.492028 -3.09874e-20)
(0.842617 -0.564544 2.84029e-20)
(0.837911 -0.594167 0)
(0.816433 -0.588493 0)
(0.784763 -0.562105 1.1274e-20)
(0.748704 -0.526551 -2.00354e-21)
(0.712024 -0.489207 -8.44229e-21)
(0.671025 -0.460168 -6.8986e-21)
(0.617417 -0.446271 6.85083e-21)
(0.553342 -0.432582 -7.09514e-21)
(0.499678 -0.381507 -6.31298e-22)
(0.480912 -0.264236 7.3414e-21)
(0.503138 -0.0933847 1.01287e-21)
(0.553939 0.0889045 9.69971e-23)
(0.615928 0.243583 0)
(0.676223 0.351244 5.17366e-21)
(0.729299 0.41022 -5.29985e-21)
(0.768745 0.441272 2.82941e-22)
(0.78564 0.473731 0)
(0.775715 0.518448 -3.02081e-22)
(0.754075 0.537824 6.49544e-21)
(0.744182 0.473375 -1.3271e-20)
(0.759292 0.305895 -2.20371e-21)
(0.796328 0.074116 -8.03078e-23)
(0.835123 -0.140081 7.32715e-21)
(0.865919 -0.294119 7.91873e-22)
(0.877788 -0.364197 -4.20296e-21)
(0.881598 -0.387601 3.65017e-21)
(0.861963 -0.380229 8.53508e-24)
(0.817335 -0.378291 1.00168e-21)
(0.759779 -0.355142 -1.22345e-21)
(0.720457 -0.268986 -1.67336e-21)
(0.724968 -0.142021 5.05924e-22)
(0.758339 0.0404054 8.51503e-22)
(0.801628 0.161975 -1.61995e-21)
(0.813004 0.305849 1.16646e-21)
(0.799406 0.368813 -4.34971e-22)
(0.764882 0.385051 2.95326e-22)
(0.760274 0.307614 4.261e-22)
(0.786075 0.10837 -1.4068e-21)
(0.819547 0.0137981 3.03337e-23)
(0.842165 -0.201248 -3.86905e-22)
(0.821762 -0.250464 0)
(0.810901 -0.327404 -1.021e-22)
(0.806957 -0.320678 4.82395e-23)
(0.787077 -0.0322853 0)
(0.128306 0.212374 6.88225e-20)
(0.162036 0.24186 -1.3684e-19)
(0.202766 0.264513 6.71041e-20)
(0.251205 0.277855 7.37665e-20)
(0.306896 0.279366 -1.49653e-19)
(0.368784 0.26659 -5.80369e-21)
(0.435403 0.237529 7.9979e-20)
(0.50499 0.191161 9.01697e-20)
(0.575534 0.127477 -8.83405e-20)
(0.645182 0.0470589 0)
(0.712637 -0.0480854 -9.42383e-20)
(0.77714 -0.157756 1.82292e-19)
(0.837253 -0.278343 -8.81766e-20)
(0.887547 -0.398017 0)
(0.918715 -0.497447 0)
(0.92428 -0.560072 8.66281e-22)
(0.905896 -0.581985 -3.87323e-20)
(0.871655 -0.571834 3.76303e-20)
(0.829927 -0.543664 0)
(0.786076 -0.508466 1.80149e-20)
(0.74362 -0.471173 -3.09159e-20)
(0.701149 -0.437552 2.54523e-20)
(0.649894 -0.415992 -2.27595e-20)
(0.585151 -0.40202 -3.8342e-22)
(0.52097 -0.366581 2.2702e-20)
(0.484298 -0.275539 -1.17646e-20)
(0.490138 -0.126793 -4.54839e-22)
(0.53127 0.0453917 -5.45291e-21)
(0.590665 0.200976 5.90212e-22)
(0.65392 0.315638 4.97967e-21)
(0.713377 0.384078 2.76497e-22)
(0.75944 0.42578 -4.16611e-21)
(0.782352 0.469027 8.61726e-21)
(0.778814 0.522223 -5.02388e-21)
(0.764998 0.545626 0)
(0.763805 0.480468 -9.03755e-21)
(0.786172 0.309219 8.97699e-21)
(0.82784 0.0729779 -7.80956e-21)
(0.8674 -0.143476 9.75523e-21)
(0.895086 -0.296943 -8.52337e-22)
(0.899855 -0.365365 0)
(0.897416 -0.385099 -4.41112e-22)
(0.874555 -0.371207 9.43728e-22)
(0.829715 -0.363535 0)
(0.770638 -0.342561 2.08548e-21)
(0.727647 -0.266507 -8.09947e-22)
(0.7295 -0.151566 4.36411e-22)
(0.759543 0.0263602 3.40467e-22)
(0.803112 0.151629 0)
(0.812705 0.304041 0)
(0.801411 0.3741 -1.20323e-21)
(0.767474 0.390244 2.20453e-21)
(0.764548 0.307933 -1.47021e-21)
(0.792645 0.103007 5.71064e-22)
(0.827781 0.00896712 9.71223e-22)
(0.853805 -0.200082 3.87268e-22)
(0.830246 -0.247545 -5.39003e-22)
(0.818563 -0.325236 0)
(0.812687 -0.318928 -1.05979e-22)
(0.790582 -0.0307084 1.54296e-23)
(0.258499 0.164251 6.57396e-20)
(0.291846 0.191115 -6.53413e-20)
(0.330449 0.210814 5.35659e-22)
(0.376528 0.221767 -5.29587e-22)
(0.429613 0.222432 5.79607e-22)
(0.488332 0.210589 -6.11842e-22)
(0.551289 0.184215 1.24585e-21)
(0.617077 0.142185 0)
(0.683941 0.0839761 -1.36935e-21)
(0.751208 0.0100426 1.40545e-21)
(0.817206 -0.0784452 1.41418e-21)
(0.880417 -0.181369 -1.44052e-21)
(0.938353 -0.293881 0)
(0.983166 -0.403449 0)
(1.00459 -0.491645 1.02351e-21)
(0.997743 -0.5445 0)
(0.966915 -0.560503 -6.6808e-22)
(0.922081 -0.548607 0)
(0.87258 -0.52117 -2.16767e-20)
(0.823303 -0.487912 3.83176e-20)
(0.776461 -0.452663 -2.94386e-20)
(0.732209 -0.417552 1.28911e-20)
(0.683997 -0.38933 9.11948e-21)
(0.622768 -0.371067 -8.85663e-21)
(0.553695 -0.345262 -9.13485e-21)
(0.501291 -0.27842 8.90635e-21)
(0.488715 -0.155072 0)
(0.517037 0.00314791 2.51043e-22)
(0.571247 0.155978 0)
(0.635292 0.275937 0)
(0.699337 0.353456 6.69969e-21)
(0.75096 0.405848 -6.8783e-21)
(0.779711 0.4597 4.63248e-22)
(0.782843 0.521377 5.91725e-22)
(0.776922 0.550033 -7.0552e-22)
(0.784136 0.486573 -8.27296e-21)
(0.813353 0.314247 8.03141e-21)
(0.859478 0.0753503 -1.04324e-20)
(0.900036 -0.143397 8.98104e-21)
(0.925075 -0.296424 1.73561e-21)
(0.923184 -0.363798 -4.37878e-21)
(0.914308 -0.381271 7.47649e-22)
(0.88825 -0.362221 2.34521e-21)
(0.843446 -0.349018 0)
(0.783569 -0.329781 -7.46757e-22)
(0.737289 -0.263627 1.00994e-21)
(0.736314 -0.161108 -1.35666e-21)
(0.762498 0.0118926 -3.42631e-22)
(0.806108 0.140545 0)
(0.814045 0.301338 3.94922e-22)
(0.80532 0.378803 -6.73925e-22)
(0.772367 0.395299 1.09784e-23)
(0.771144 0.308649 -6.06773e-22)