/*--------------------------------*- C++ -*----------------------------------*\
| =========                 |                                                 |
| \\      /  F ield         | OpenFOAM: The Open Source CFD Toolbox           |
|  \\    /   O peration     | Version:  2512                                  |
|   \\  /    A nd           | Website:  www.openfoam.com                      |
|    \\/     M anipulation  |                                                 |
\*---------------------------------------------------------------------------*/
FoamFile
{
    version     2.0;
    format      ascii;
    arch        "LSB;label=32;scalar=64";
    class       volScalarField;
    location    "54";
    object      p;
}
// * * * * * * * * * * * * * * * * * * * * * * * * * * * * * * * * * * * * * //

dimensions      [0 2 -2 0 0 0 0];

internalField   nonuniform List<scalar> 
13248
(
-0.322661
-0.320913
-0.318865
-0.316647
-0.314393
-0.312237
-0.310238
-0.308381
-0.306589
-0.304742
-0.302682
-0.300238
-0.297234
-0.293516
-0.288961
-0.283496
-0.277099
-0.269803
-0.261685
-0.25288
-0.243442
-0.233666
-0.222997
-0.212294
-0.32993
-0.327532
-0.324805
-0.321893
-0.318932
-0.316069
-0.313364
-0.310781
-0.308217
-0.30552
-0.30251
-0.299004
-0.294841
-0.289903
-0.28412
-0.277486
-0.270044
-0.261885
-0.253128
-0.243903
-0.234323
-0.224532
-0.214423
-0.204621
-0.338377
-0.335179
-0.331684
-0.328025
-0.324317
-0.320704
-0.317224
-0.313808
-0.310312
-0.306555
-0.302351
-0.297537
-0.291998
-0.28568
-0.278594
-0.270804
-0.262416
-0.25356
-0.244367
-0.234968
-0.225451
-0.215945
-0.206379
-0.197103
-0.348237
-0.34407
-0.339714
-0.335261
-0.330761
-0.326325
-0.321949
-0.31751
-0.312832
-0.307725
-0.30203
-0.295645
-0.28854
-0.28075
-0.272366
-0.263514
-0.254333
-0.244955
-0.235496
-0.226052
-0.216687
-0.207488
-0.198386
-0.189757
-0.359647
-0.354343
-0.34904
-0.34374
-0.338373
-0.332987
-0.327513
-0.321778
-0.315594
-0.308808
-0.30134
-0.293191
-0.284434
-0.275195
-0.265623
-0.255867
-0.246058
-0.236302
-0.226677
-0.217237
-0.208016
-0.199055
-0.190311
-0.182045
-0.37263
-0.366043
-0.359718
-0.353506
-0.347152
-0.340607
-0.333733
-0.326339
-0.318275
-0.309486
-0.300022
-0.290007
-0.279615
-0.269028
-0.258411
-0.247897
-0.237582
-0.227528
-0.217772
-0.20833
-0.199213
-0.190428
-0.181944
-0.173947
-0.387057
-0.379091
-0.371688
-0.364471
-0.356935
-0.348917
-0.340243
-0.33076
-0.320441
-0.309389
-0.297807
-0.285936
-0.274008
-0.262216
-0.250701
-0.239552
-0.228817
-0.218513
-0.208639
-0.199187
-0.190142
-0.18149
-0.17321
-0.165401
-0.402636
-0.393255
-0.384731
-0.376367
-0.367359
-0.357448
-0.346495
-0.334491
-0.321607
-0.308142
-0.29444
-0.280812
-0.267497
-0.254655
-0.242374
-0.230687
-0.219593
-0.209071
-0.199091
-0.189623
-0.180635
-0.172098
-0.163997
-0.156342
-0.418876
-0.408117
-0.398427
-0.388704
-0.377833
-0.36553
-0.351815
-0.336931
-0.321301
-0.305414
-0.289701
-0.274483
-0.259958
-0.246219
-0.233291
-0.22115
-0.209755
-0.199052
-0.18899
-0.179518
-0.170592
-0.162174
-0.154241
-0.146732
-0.435072
-0.423033
-0.412108
-0.400733
-0.387531
-0.37233
-0.355455
-0.337486
-0.319103
-0.300922
-0.283397
-0.266798
-0.251246
-0.236758
-0.223293
-0.210783
-0.199148
-0.188312
-0.178203
-0.168755
-0.159912
-0.151629
-0.143862
-0.136506
-0.450303
-0.437121
-0.424848
-0.41145
-0.395423
-0.376892
-0.356616
-0.335538
-0.314542
-0.294296
-0.275203
-0.257443
-0.241046
-0.225954
-0.212068
-0.199281
-0.187484
-0.176581
-0.166482
-0.157108
-0.148394
-0.140284
-0.132701
-0.125536
-0.46352
-0.449377
-0.435619
-0.41979
-0.400462
-0.378251
-0.354447
-0.33034
-0.306941
-0.284887
-0.26448
-0.245785
-0.228736
-0.213202
-0.199036
-0.186094
-0.174245
-0.163373
-0.153375
-0.14416
-0.135655
-0.127792
-0.120465
-0.11361
-0.268413
-0.27035
-0.271586
-0.272411
-0.273088
-0.27368
-0.274215
-0.274709
-0.275167
-0.275581
-0.275941
-0.276233
-0.276442
-0.276552
-0.27655
-0.276422
-0.276158
-0.275751
-0.275201
-0.274519
-0.273716
-0.272801
-0.271827
-0.270984
-0.270225
-0.272221
-0.273506
-0.274385
-0.275127
-0.275792
-0.276405
-0.276977
-0.277504
-0.277975
-0.278367
-0.278656
-0.278814
-0.27881
-0.278611
-0.278183
-0.277492
-0.276506
-0.2752
-0.273556
-0.271559
-0.26917
-0.266436
-0.263773
-0.272866
-0.274813
-0.276083
-0.276976
-0.277751
-0.278468
-0.279144
-0.279784
-0.280379
-0.280907
-0.281339
-0.281639
-0.281763
-0.281667
-0.281296
-0.280595
-0.279505
-0.277962
-0.27591
-0.273304
-0.270097
-0.266201
-0.261631
-0.257098
-0.276279
-0.278071
-0.279261
-0.280123
-0.280898
-0.281638
-0.282356
-0.283051
-0.283705
-0.284291
-0.284768
-0.285089
-0.285199
-0.285039
-0.284536
-0.28361
-0.282176
-0.280141
-0.277412
-0.27391
-0.269564
-0.264248
-0.257854
-0.251245
-0.280345
-0.28189
-0.282934
-0.283716
-0.284448
-0.285174
-0.285902
-0.286625
-0.287319
-0.287947
-0.288462
-0.288808
-0.288917
-0.288708
-0.288102
-0.286994
-0.285274
-0.282822
-0.279511
-0.275222
-0.269861
-0.263297
-0.255196
-0.245645
-0.284904
-0.286129
-0.286967
-0.287616
-0.28825
-0.28891
-0.2896
-0.290307
-0.291
-0.291636
-0.292159
-0.292502
-0.292588
-0.292327
-0.291611
-0.290328
-0.288348
-0.285528
-0.281719
-0.276772
-0.270559
-0.262922
-0.253503
-0.242445
-0.289785
-0.290641
-0.291219
-0.291672
-0.292142
-0.292668
-0.293251
-0.293875
-0.294502
-0.295083
-0.295553
-0.295835
-0.29584
-0.295464
-0.294588
-0.293083
-0.290805
-0.287599
-0.283308
-0.277772
-0.270854
-0.262392
-0.252323
-0.239547
-0.294837
-0.2953
-0.295568
-0.295758
-0.295986
-0.296291
-0.296679
-0.297131
-0.297605
-0.298043
-0.298371
-0.298502
-0.298334
-0.297748
-0.296616
-0.294794
-0.292129
-0.288468
-0.283655
-0.277548
-0.270057
-0.260916
-0.250899
-0.236917
-0.29997
-0.300034
-0.299946
-0.299795
-0.299692
-0.29968
-0.299772
-0.299948
-0.300165
-0.300355
-0.300436
-0.300307
-0.299853
-0.298944
-0.297436
-0.295181
-0.292027
-0.287829
-0.282461
-0.275803
-0.267901
-0.258266
-0.248592
-0.234427
-0.305177
-0.304838
-0.304345
-0.303784
-0.303255
-0.302823
-0.302513
-0.302307
-0.302158
-0.301992
-0.301714
-0.301209
-0.300347
-0.298985
-0.296972
-0.294157
-0.290402
-0.285591
-0.279648
-0.272505
-0.264348
-0.254658
-0.24537
-0.232064
-0.310554
-0.309799
-0.308847
-0.307794
-0.306748
-0.3058
-0.304991
-0.304293
-0.303671
-0.303039
-0.302285
-0.301279
-0.299873
-0.297914
-0.295246
-0.29173
-0.28725
-0.281732
-0.275156
-0.267554
-0.259143
-0.249785
-0.241007
-0.229912
-0.316297
-0.315083
-0.313608
-0.311986
-0.310343
-0.308793
-0.307386
-0.306126
-0.304943
-0.303741
-0.302394
-0.30075
-0.298646
-0.29592
-0.292423
-0.288037
-0.282684
-0.276341
-0.269031
-0.260864
-0.251963
-0.242598
-0.233413
-0.223747
-0.270303
-0.269629
-0.269159
-0.268845
-0.268628
-0.268369
-0.267832
-0.266691
-0.26465
-0.261518
-0.256814
-0.250249
-0.241849
-0.23209
-0.221867
-0.212641
-0.206109
-0.204025
-0.207598
-0.216946
-0.230848
-0.245154
-0.255983
-0.258481
-0.248801
-0.22691
-0.196596
-0.1644
-0.136225
-0.115389
-0.102955
-0.100011
-0.10806
-0.124476
-0.140611
-0.146178
-0.137669
-0.118928
-0.0975185
-0.0793583
-0.0664321
-0.0585856
-0.0578086
-0.063656
-0.0694755
-0.0683483
-0.0595628
-0.0464031
-0.0330814
-0.0216611
-0.0129495
-0.0069808
-0.0046775
-0.00420891
-0.00434913
-0.00391955
-0.00235676
-0.000711676
-5.71411e-05
0.000991096
-0.261186
-0.257823
-0.254564
-0.25134
-0.248178
-0.245051
-0.241849
-0.238374
-0.234558
-0.230526
-0.225942
-0.220615
-0.214682
-0.208824
-0.20369
-0.200711
-0.201215
-0.206674
-0.217553
-0.233299
-0.25188
-0.269436
-0.281542
-0.28324
-0.270943
-0.244616
-0.208836
-0.170972
-0.137445
-0.111827
-0.0950441
-0.0875498
-0.0907474
-0.103113
-0.117547
-0.124776
-0.120347
-0.106951
-0.0910124
-0.0777143
-0.0685903
-0.0640189
-0.0666083
-0.0749333
-0.081149
-0.0779697
-0.0663498
-0.0504047
-0.034923
-0.0220575
-0.0124266
-0.00573108
-0.00273828
-0.00191914
-0.0023007
-0.00236509
-0.00143524
-0.000224633
7.98595e-05
0.000996714
-0.252962
-0.246885
-0.240888
-0.234827
-0.228807
-0.222915
-0.217172
-0.2115
-0.205833
-0.201045
-0.19666
-0.192509
-0.188714
-0.186545
-0.186032
-0.188762
-0.195515
-0.207506
-0.224573
-0.245547
-0.267978
-0.287962
-0.301
-0.302304
-0.288002
-0.258132
-0.21791
-0.175394
-0.137398
-0.107637
-0.0869347
-0.0752599
-0.0737468
-0.0820586
-0.0945268
-0.10296
-0.102335
-0.0941547
-0.0837555
-0.0753948
-0.0701882
-0.0692082
-0.0753919
-0.0862229
-0.0926605
-0.0876151
-0.0727648
-0.0541438
-0.036684
-0.022514
-0.0120583
-0.0047315
-0.00106798
0.000183459
-0.000285811
-0.000716674
-0.000413831
0.000347071
0.000255338
0.000972269
-0.246326
-0.237605
-0.229057
-0.220397
-0.211755
-0.203337
-0.195314
-0.187811
-0.18049
-0.174722
-0.170656
-0.167618
-0.165434
-0.166372
-0.169856
-0.177236
-0.189161
-0.206308
-0.228141
-0.253073
-0.278365
-0.300152
-0.31402
-0.31529
-0.299725
-0.267362
-0.223879
-0.177859
-0.136451
-0.103357
-0.0792836
-0.063936
-0.0579844
-0.0621079
-0.0722521
-0.081285
-0.0840423
-0.0808229
-0.0758207
-0.0722716
-0.0710243
-0.0738964
-0.0838665
-0.0972542
-0.103786
-0.09655
-0.0787389
-0.0575955
-0.0383541
-0.0230377
-0.0118552
-0.0039892
0.000295328
0.00202984
0.00162387
0.000993157
0.000678708
0.000990955
0.000467969
0.000917674
-0.241918
-0.230481
-0.219659
-0.208781
-0.197858
-0.18723
-0.177216
-0.168339
-0.160007
-0.152391
-0.149318
-0.14675
-0.146215
-0.149064
-0.155532
-0.166476
-0.182265
-0.203064
-0.22817
-0.255768
-0.282975
-0.306024
-0.320678
-0.322196
-0.306135
-0.272433
-0.227002
-0.178752
-0.135046
-0.0994686
-0.0726237
-0.0541062
-0.0441687
-0.043954
-0.0513398
-0.0602767
-0.0658132
-0.0671368
-0.0671748
-0.0681488
-0.0708272
-0.0777784
-0.0917402
-0.107733
-0.114281
-0.104841
-0.0842091
-0.0607423
-0.0399267
-0.0236258
-0.0118159
-0.00349677
0.00133591
0.00356548
0.00335163
0.00263276
0.00179236
0.00167537
0.000706571
0.00083572
-0.23825
-0.226023
-0.212951
-0.200321
-0.187657
-0.175271
-0.163637
-0.153208
-0.143957
-0.136002
-0.132028
-0.130058
-0.130755
-0.135093
-0.143587
-0.156815
-0.175009
-0.198047
-0.225036
-0.254098
-0.282345
-0.306099
-0.321408
-0.323356
-0.307429
-0.2735
-0.227505
-0.178421
-0.133521
-0.0962962
-0.0673093
-0.046122
-0.0327213
-0.0282585
-0.0323435
-0.0404108
-0.0478993
-0.0531696
-0.0576841
-0.0627732
-0.0693204
-0.0805624
-0.0987196
-0.117348
-0.123887
-0.112343
-0.0891115
-0.0635707
-0.0413966
-0.0242684
-0.0119287
-0.00323534
0.00206062
0.00476052
0.00483038
0.00414061
0.00286591
0.00235379
0.00095223
0.000732626
-0.235743
-0.223499
-0.209035
-0.195081
-0.18128
-0.167639
-0.154678
-0.142913
-0.132644
-0.124445
-0.120092
-0.118211
-0.119445
-0.124567
-0.13406
-0.148385
-0.167677
-0.191645
-0.219307
-0.248803
-0.277323
-0.301282
-0.31704
-0.319456
-0.304126
-0.270954
-0.225761
-0.177182
-0.132135
-0.0940281
-0.0635105
-0.0401513
-0.0238215
-0.0154328
-0.0157723
-0.0221144
-0.030433
-0.0388907
-0.047126
-0.0559072
-0.0662875
-0.0820075
-0.10453
-0.125802
-0.132354
-0.118895
-0.0933763
-0.0660608
-0.0427528
-0.0249478
-0.0121717
-0.00317676
0.00249558
0.00561274
0.00601503
0.00543857
0.00383526
0.00297489
0.00118378
0.000617985
-0.233404
-0.221849
-0.207092
-0.19254
-0.178234
-0.164003
-0.150307
-0.137809
-0.1271
-0.118553
-0.113212
-0.110951
-0.112096
-0.11725
-0.126874
-0.141311
-0.160619
-0.184426
-0.211745
-0.240803
-0.26893
-0.29274
-0.308536
-0.311283
-0.296894
-0.265342
-0.222125
-0.175207
-0.130942
-0.0926352
-0.0611513
-0.0361434
-0.0174186
-0.00561164
-0.00202667
-0.00578905
-0.0137987
-0.0242234
-0.0353362
-0.0473889
-0.0615876
-0.0819104
-0.108915
-0.132817
-0.139441
-0.124351
-0.0969348
-0.0681869
-0.0439803
-0.0256432
-0.0125182
-0.00328687
0.00268068
0.00614588
0.00688955
0.00647084
0.00464811
0.00349552
0.00138429
0.000503744
-0.230531
-0.220019
-0.206318
-0.192318
-0.178274
-0.164106
-0.150247
-0.137405
-0.126167
-0.117454
-0.110815
-0.107828
-0.108373
-0.112927
-0.121928
-0.135646
-0.154095
-0.17688
-0.203048
-0.230912
-0.258054
-0.281848
-0.296834
-0.299652
-0.286467
-0.257268
-0.216976
-0.172626
-0.12991
-0.0920088
-0.0600533
-0.0339045
-0.013307
0.00130926
0.00866372
0.00814346
0.00163862
-0.00929963
-0.0223404
-0.0371664
-0.0551108
-0.0801898
-0.111727
-0.138193
-0.144949
-0.128592
-0.0997579
-0.0699668
-0.0451028
-0.0263636
-0.0129606
-0.00354161
0.00265564
0.0063999
0.00746443
0.00722448
0.00527776
0.00389131
0.0015458
0.000402239
-0.226983
-0.216143
-0.204
-0.19146
-0.17853
-0.165292
-0.152049
-0.138815
-0.127681
-0.118957
-0.111952
-0.108223
-0.107795
-0.11125
-0.119029
-0.131358
-0.148247
-0.169311
-0.193641
-0.21966
-0.245075
-0.267524
-0.282287
-0.285377
-0.273865
-0.247745
-0.211184
-0.170136
-0.129592
-0.0926033
-0.0605453
-0.0336051
-0.0115314
0.00539545
0.0161209
0.0192338
0.0152746
0.00541927
-0.00843582
-0.0254153
-0.0469236
-0.0767241
-0.112732
-0.141757
-0.14873
-0.131587
-0.101919
-0.0715145
-0.0462188
-0.0271724
-0.0135312
-0.00394553
0.00244085
0.0064112
0.00776397
0.00771807
0.00572388
0.00416028
0.00167053
0.000324069
-0.225227
-0.216796
-0.205267
-0.192707
-0.179903
-0.167454
-0.155521
-0.14416
-0.132418
-0.122842
-0.115666
-0.111283
-0.109629
-0.111557
-0.11763
-0.128067
-0.142922
-0.161849
-0.184022
-0.207958
-0.231667
-0.252597
-0.265237
-0.268901
-0.259679
-0.237465
-0.205472
-0.168408
-0.130542
-0.0948411
-0.0629405
-0.0354237
-0.0122107
0.00660724
0.0202638
0.0271742
0.0264925
0.0189961
0.00568967
-0.0124265
-0.0370341
-0.0716516
-0.112258
-0.143477
-0.150518
-0.133244
-0.10334
-0.0727519
-0.0472526
-0.0280082
-0.0141838
-0.00446214
0.00207197
0.00622035
0.00782134
0.00795236
0.00599995
0.00431654
0.0017669
0.000275572
-0.218674
-0.212296
-0.20463
-0.19503
-0.184449
-0.173469
-0.162065
-0.150596
-0.139773
-0.129994
-0.121955
-0.116332
-0.113674
-0.114047
-0.117997
-0.125941
-0.137947
-0.153782
-0.17271
-0.193454
-0.214503
-0.232287
-0.24564
-0.249135
-0.242006
-0.223635
-0.196109
-0.163047
-0.128135
-0.0942846
-0.0632823
-0.0359569
-0.0125183
0.00708082
0.0226156
0.0328458
0.0356777
0.0303758
0.0188806
0.00061906
-0.0261767
-0.0647353
-0.109319
-0.14288
-0.150044
-0.132845
-0.103133
-0.0727371
-0.047419
-0.028305
-0.0145301
-0.00482859
0.00173317
0.00595836
0.00772454
0.00798348
0.00612885
0.00437896
0.00183968
0.000254109
-0.207068
-0.207325
-0.200365
-0.190746
-0.180849
-0.170934
-0.160767
-0.150508
-0.140596
-0.131611
-0.124206
-0.118897
-0.115991
-0.115809
-0.118969
-0.125846
-0.136547
-0.150872
-0.168114
-0.187039
-0.205905
-0.221696
-0.232592
-0.234878
-0.227033
-0.208947
-0.18273
-0.151673
-0.119004
-0.0872379
-0.0579069
-0.0317175
-0.00893033
0.0104888
0.0264814
0.038187
0.0436995
0.0428004
0.0330125
0.0156301
-0.0130234
-0.0564949
-0.106856
-0.143634
-0.151338
-0.131846
-0.101395
-0.0711999
-0.0464163
-0.027804
-0.0143559
-0.00485527
0.00160895
0.00580096
0.00762511
0.00798214
0.00616731
0.00437781
0.00188873
0.00025034
-0.195992
-0.19838
-0.192108
-0.182787
-0.1737
-0.16514
-0.156589
-0.147943
-0.13953
-0.131882
-0.12552
-0.120862
-0.118296
-0.118255
-0.121184
-0.127361
-0.136848
-0.149421
-0.164385
-0.180555
-0.196278
-0.209024
-0.21695
-0.217261
-0.208713
-0.19152
-0.167495
-0.139325
-0.109625
-0.0804706
-0.0531842
-0.0284269
-0.00657797
0.0123547
0.0285428
0.0412792
0.0486944
0.0493911
0.0424893
0.0265451
-0.00318632
-0.0502813
-0.104351
-0.142145
-0.147058
-0.127924
-0.0979245
-0.0688213
-0.0451053
-0.0272531
-0.0142542
-0.00501025
0.00133181
0.00547186
0.00735027
0.00774967
0.00608652
0.00431189
0.00191905
0.000273358
-0.1846
-0.187783
-0.182744
-0.174486
-0.16649
-0.159267
-0.152227
-0.145087
-0.138077
-0.131656
-0.126293
-0.122402
-0.120356
-0.120497
-0.123146
-0.128507
-0.136599
-0.147163
-0.159523
-0.172607
-0.18494
-0.194762
-0.200046
-0.198907
-0.190431
-0.174795
-0.153337
-0.128119
-0.101252
-0.0745072
-0.0491062
-0.0257084
-0.00474622
0.0136472
0.0297006
0.042884
0.0515105
0.0539421
0.0489849
0.0339503
0.00290113
-0.0468238
-0.101908
-0.138302
-0.141962
-0.122436
-0.0935799
-0.0660312
-0.043606
-0.0266195
-0.0141346
-0.00518509
0.00100377
0.00506328
0.00697409
0.00741413
0.00592521
0.00420149
0.00194259
0.000317956
-0.17287
-0.176833
-0.173257
-0.166352
-0.159508
-0.153471
-0.147738
-0.141937
-0.136185
-0.130875
-0.126435
-0.123234
-0.121571
-0.121713
-0.123907
-0.128302
-0.134877
-0.143362
-0.153171
-0.163455
-0.172935
-0.180106
-0.183352
-0.18131
-0.173209
-0.159105
-0.139985
-0.11746
-0.0932508
-0.0688458
-0.0453419
-0.0233793
-0.00339936
0.014344
0.0300067
0.0432352
0.0524804
0.0562471
0.0529564
0.0388097
0.00691734
-0.0439143
-0.0980664
-0.132172
-0.134705
-0.115473
-0.0883862
-0.0627943
-0.0418888
-0.0258929
-0.0139946
-0.00537627
0.000636992
0.00460165
0.00653059
0.00701468
0.00570714
0.00406206
0.00195949
0.000374603
-0.161332
-0.165996
-0.163755
-0.158187
-0.152465
-0.147484
-0.142879
-0.138254
-0.133632
-0.129324
-0.125697
-0.123062
-0.121667
-0.121728
-0.12343
-0.126875
-0.132015
-0.13861
-0.146186
-0.15401
-0.161005
-0.165946
-0.167621
-0.164938
-0.157243
-0.144548
-0.127577
-0.107553
-0.0858357
-0.0636586
-0.041999
-0.02149
-0.00257395
0.014423
0.0295229
0.0424576
0.0517621
0.0562502
0.0542267
0.0411495
0.0095701
-0.0404942
-0.092257
-0.123507
-0.125106
-0.10707
-0.0824265
-0.0591747
-0.0399829
-0.0250807
-0.0138322
-0.00558205
0.000233717
0.00409136
0.00602756
0.00655517
0.00543761
0.00389558
0.00196223
0.000433676
-0.150314
-0.155364
-0.154227
-0.149898
-0.145248
-0.141232
-0.137614
-0.134016
-0.13039
-0.126963
-0.12404
-0.121886
-0.120711
-0.120686
-0.121942
-0.12454
-0.128425
-0.133388
-0.139027
-0.14471
-0.149593
-0.152734
-0.153155
-0.14999
-0.142716
-0.131307
-0.11626
-0.0984774
-0.0790283
-0.0589374
-0.0390635
-0.0200197
-0.00224807
0.0138979
0.0283122
0.0407183
0.0496754
0.0542906
0.0529578
0.0409663
0.0108911
-0.0364496
-0.0842751
-0.112229
-0.113451
-0.0975213
-0.0758945
-0.0552633
-0.0379203
-0.0241892
-0.0136437
-0.00579692
-0.000200606
0.0035381
0.00547356
0.00604461
0.0051199
0.00370142
0.00194338
0.000486335
-0.139734
-0.144958
-0.14474
-0.14153
-0.13788
-0.134745
-0.13199
-0.129278
-0.126514
-0.123853
-0.121544
-0.119812
-0.11883
-0.118729
-0.119598
-0.121471
-0.124286
-0.12786
-0.131856
-0.135765
-0.138934
-0.14062
-0.140047
-0.136542
-0.129682
-0.119399
-0.106027
-0.0902274
-0.0728353
-0.0546925
-0.0365409
-0.0189584
-0.00238935
0.0128019
0.026424
0.038196
0.0465218
0.0508712
0.0497272
0.0387247
0.0111702
-0.0315817
-0.0741005
-0.0987604
-0.100381
-0.0872801
-0.0690311
-0.0511657
-0.0357395
-0.0232278
-0.0134258
-0.00601454
-0.000658828
0.00295006
0.00487873
0.0054939
0.00475864
0.00347973
0.00189772
0.000525694
-0.129557
-0.134872
-0.135405
-0.13317
-0.130417
-0.128066
-0.12606
-0.124101
-0.122073
-0.120073
-0.118297
-0.116932
-0.116117
-0.115952
-0.116497
-0.117763
-0.119689
-0.122118
-0.124772
-0.12726
-0.129059
-0.129592
-0.128256
-0.124524
-0.118048
-0.108743
-0.0968269
-0.0827825
-0.0672515
-0.0509184
-0.0344181
-0.0182824
-0.00295355
0.0111937
0.0239075
0.0350561
0.0425356
0.0464612
0.0452595
0.035256
0.0110558
-0.025805
-0.0623655
-0.0840625
-0.086762
-0.0768829
-0.0621021
-0.0469952
-0.0334825
-0.0222079
-0.0131767
-0.00622798
-0.00113258
0.00233635
0.00425228
0.00491273
0.0043593
0.00323174
0.00182269
0.000547569
-0.119903
-0.125194
-0.126304
-0.124886
-0.122912
-0.121244
-0.119875
-0.118551
-0.117142
-0.115704
-0.114384
-0.113333
-0.112665
-0.112453
-0.112737
-0.113512
-0.114724
-0.116241
-0.11783
-0.119191
-0.119919
-0.119564
-0.117659
-0.113791
-0.10768
-0.099234
-0.0885931
-0.0761033
-0.062254
-0.047597
-0.0326716
-0.017958
-0.00388739
0.00915171
0.0208044
0.030321
0.0378742
0.0414232
0.0401622
0.0313008
0.0108903
-0.0197289
-0.0504239
-0.0694318
-0.0735486
-0.0668541
-0.0553542
-0.0428574
-0.0311913
-0.0211422
-0.0128953
-0.00643029
-0.00161283
0.00170666
0.00360313
0.00430981
0.00392773
0.00295943
0.00171859
0.000550457
-0.110802
-0.115949
-0.117478
-0.116733
-0.115419
-0.11433
-0.113496
-0.112697
-0.111802
-0.110832
-0.109898
-0.109117
-0.10858
-0.108341
-0.108424
-0.108818
-0.109471
-0.110274
-0.111046
-0.111534
-0.111444
-0.110425
-0.108116
-0.104196
-0.0984404
-0.0907625
-0.0812459
-0.0701376
-0.057809
-0.0447014
-0.0312696
-0.0179417
-0.00512689
0.00678578
0.0174204
0.0262233
0.0328894
0.0360412
0.0348191
0.0272007
0.0104738
-0.0143426
-0.0396779
-0.0562776
-0.061532
-0.0575895
-0.048974
-0.0388398
-0.0289046
-0.0200447
-0.0125822
-0.00661493
-0.0020903
0.00107117
0.00294065
0.00369382
0.00347065
0.00266501
0.00158767
0.000535006
-0.102202
-0.107144
-0.10897
-0.108762
-0.107993
-0.107383
-0.106986
-0.106615
-0.106138
-0.105554
-0.104941
-0.10439
-0.103971
-0.103724
-0.103662
-0.103769
-0.103998
-0.104259
-0.104408
-0.10425
-0.103559
-0.102066
-0.0994945
-0.095599
-0.0901994
-0.0832175
-0.0747013
-0.064827
-0.0538754
-0.0421973
-0.0301736
-0.0181818
-0.00660074
0.00419292
0.0138286
0.0218311
0.0277223
0.0305153
0.0294172
0.0230105
0.00951837
-0.0102979
-0.0309349
-0.0454252
-0.051138
-0.0493036
-0.0430793
-0.0350094
-0.0266576
-0.0189296
-0.0122392
-0.00677615
-0.00255579
0.000440246
0.00227438
0.00307309
0.00299546
0.00235243
0.00143308
0.000503137
-0.0940982
-0.0987997
-0.100816
-0.101022
-0.100687
-0.100462
-0.100414
-0.100381
-0.100239
-0.0999674
-0.0996182
-0.099261
-0.0989492
-0.0987112
-0.0985515
-0.0984524
-0.0983718
-0.0982351
-0.0979316
-0.0973121
-0.0962001
-0.0943921
-0.0916797
-0.0878744
-0.0828347
-0.0764933
-0.0688766
-0.0601101
-0.0504065
-0.0400438
-0.0293392
-0.0186222
-0.00823641
0.00146486
0.0101237
0.017309
0.0225183
0.024998
0.0240728
0.0187709
0.00798247
-0.00768257
-0.0242975
-0.0367975
-0.0424295
-0.0420626
-0.037732
-0.0314151
-0.0244813
-0.0178119
-0.0118694
-0.00690932
-0.00300068
-0.000176085
0.00161395
0.00245536
0.00250963
0.00202565
0.00126034
0.00045776
-0.0865
-0.0909198
-0.0930331
-0.0935464
-0.0935497
-0.0936247
-0.0938453
-0.0940749
-0.0941929
-0.0941677
-0.0940318
-0.0938364
-0.0936211
-0.0934052
-0.0931878
-0.0929508
-0.0926569
-0.0922452
-0.0916305
-0.0906987
-0.0893142
-0.0873234
-0.0845699
-0.0809109
-0.076237
-0.0704925
-0.0636915
-0.0559241
-0.0473521
-0.038196
-0.0287182
-0.0192043
-0.00996098
-0.00131084
0.0064093
0.0128057
0.0174088
0.0196256
0.0189053
0.0145952
0.00604554
-0.00622755
-0.0194539
-0.0299754
-0.0352675
-0.0358417
-0.0329555
-0.0280914
-0.0224031
-0.0167068
-0.0114774
-0.00701116
-0.00341732
-0.000768541
0.000968716
0.00184794
0.00202052
0.00168948
0.00107428
0.000402102
-0.0793837
-0.0834954
-0.0856337
-0.0863653
-0.0866231
-0.0869238
-0.0873445
-0.0877685
-0.0880828
-0.0882477
-0.0882808
-0.0882184
-0.0880896
-0.0879062
-0.0876641
-0.0873451
-0.0869163
-0.0863296
-0.0855184
-0.0843959
-0.0828586
-0.0807915
-0.0780782
-0.0746118
-0.070309
-0.0651256
-0.0590692
-0.052206
-0.0446599
-0.0366063
-0.0282613
-0.0198701
-0.0117035
-0.00405013
0.00278197
0.0084393
0.0125108
0.0145162
0.0140239
0.010603
0.00390737
-0.00561344
-0.0160141
-0.0246538
-0.0294579
-0.0305722
-0.0287488
-0.0250613
-0.0204464
-0.0156292
-0.0110689
-0.00707998
-0.00379938
-0.00132893
0.000347399
0.00125781
0.00153564
0.0013491
0.000879708
0.000339169
-0.0727241
-0.0765184
-0.078627
-0.0795031
-0.0799442
-0.0804073
-0.0809693
-0.0815306
-0.0819869
-0.0822937
-0.0824575
-0.082503
-0.0824507
-0.0823074
-0.0820662
-0.08171
-0.0812096
-0.0805256
-0.0796084
-0.0783926
-0.0767984
-0.0747396
-0.0721307
-0.0688928
-0.064964
-0.0603105
-0.0549372
-0.048894
-0.0422771
-0.0352265
-0.02792
-0.0205652
-0.0133977
-0.00667489
-0.000669206
0.0043188
0.00791776
0.00975851
0.0095061
0.00687947
0.0017194
-0.00557664
-0.0136397
-0.0205881
-0.0248042
-0.0261677
-0.0250952
-0.0223381
-0.0186306
-0.0145935
-0.0106506
-0.00711577
-0.00414208
-0.00185045
-0.000242198
0.000691593
0.00106198
0.00100966
0.000681097
0.000271707
-0.0665064
-0.0699808
-0.0720172
-0.0729778
-0.0735436
-0.0741164
-0.0747708
-0.0754224
-0.0759755
-0.0763839
-0.0766459
-0.0767774
-0.0767922
-0.0766932
-0.0764722
-0.076113
-0.0755903
-0.07487
-0.0739164
-0.0726823
-0.0711055
-0.0691202
-0.0666643
-0.063681
-0.0601254
-0.0559728
-0.0512277
-0.0459289
-0.0401522
-0.0340096
-0.0276476
-0.0212401
-0.0149883
-0.0091187
-0.00386991
0.000503087
0.00369425
0.00541399
0.00539975
0.00347257
-0.000413925
-0.00591637
-0.0120583
-0.0175481
-0.0211276
-0.0225362
-0.0219668
-0.0199262
-0.0169703
-0.0136129
-0.01023
-0.00712015
-0.00444244
-0.0023279
-0.000793466
0.000155203
0.000605895
0.000676289
0.000482599
0.000202143
-0.0607111
-0.0638688
-0.0658026
-0.0668012
-0.0674446
-0.0680848
-0.0687926
-0.0694964
-0.0701098
-0.0705867
-0.0709198
-0.0711184
-0.0711912
-0.0711384
-0.070951
-0.0706136
-0.0701046
-0.0693958
-0.0684592
-0.0672621
-0.0657568
-0.0638929
-0.061625
-0.0589131
-0.0557256
-0.0520459
-0.0478786
-0.0432552
-0.0382362
-0.0329116
-0.0274015
-0.0218517
-0.0164304
-0.0113314
-0.00676674
-0.00294841
-0.000111373
0.00152011
0.00172953
0.00040805
-0.00243006
-0.00648984
-0.0110482
-0.015327
-0.0182707
-0.0195858
-0.0193275
-0.017822
-0.0154752
-0.012699
-0.00981498
-0.00709624
-0.00469931
-0.00275776
-0.00130123
-0.000346279
0.000172957
0.000353916
0.00028796
0.000132546
-0.0553182
-0.0581684
-0.0599794
-0.0609806
-0.0616651
-0.0623396
-0.0630704
-0.0637967
-0.0644416
-0.0649605
-0.0653424
-0.0655921
-0.0657143
-0.0657074
-0.0655621
-0.0652639
-0.0647945
-0.0641305
-0.0632491
-0.0621292
-0.0607339
-0.0590243
-0.0569672
-0.0545349
-0.0517061
-0.0484705
-0.0448338
-0.0408219
-0.0364839
-0.0318927
-0.0271456
-0.0223639
-0.0176886
-0.0132793
-0.00931998
-0.0059941
-0.00347739
-0.0019075
-0.00149718
-0.00230921
-0.00429551
-0.00720589
-0.0104137
-0.0137626
-0.0160955
-0.0172271
-0.0171352
-0.0160149
-0.0141502
-0.0118611
-0.00941348
-0.00704843
-0.00491335
-0.00313824
-0.00176188
-0.000808758
-0.000232139
4.70225e-05
0.000100474
6.46306e-05
-0.0503099
-0.0528658
-0.0545419
-0.0555198
-0.0562177
-0.0569015
-0.0576322
-0.0583587
-0.0590129
-0.059553
-0.0599661
-0.0602534
-0.0604171
-0.0604542
-0.0603557
-0.060108
-0.0596953
-0.0590982
-0.0582954
-0.0572821
-0.0560213
-0.0544862
-0.0526521
-0.0504999
-0.0480161
-0.0451952
-0.042044
-0.0385842
-0.0348558
-0.0309181
-0.0268501
-0.0227505
-0.0187367
-0.0149395
-0.011509
-0.00860808
-0.00641371
-0.00486742
-0.00428946
-0.00468367
-0.00599391
-0.00805098
-0.0106182
-0.0127614
-0.01448
-0.0153741
-0.0153439
-0.0144882
-0.0129955
-0.0111061
-0.00903291
-0.00698201
-0.00508681
-0.00346924
-0.00217341
-0.00122927
-0.000605705
-0.00024054
-7.7047e-05
-2.23272e-07
-0.045668
-0.0479461
-0.0494818
-0.0504185
-0.0511095
-0.0517845
-0.0524985
-0.0532091
-0.0538563
-0.0544019
-0.0548322
-0.055146
-0.0553439
-0.055422
-0.055372
-0.0551817
-0.0548379
-0.0543262
-0.0536327
-0.0527251
-0.0516075
-0.0502553
-0.0486473
-0.0467691
-0.0446127
-0.0421763
-0.039467
-0.0365035
-0.0333185
-0.02996
-0.026492
-0.0229943
-0.0195616
-0.0163005
-0.0133262
-0.0107541
-0.00865798
-0.00733584
-0.00666315
-0.00672631
-0.00748761
-0.00881962
-0.0105137
-0.0120685
-0.0132945
-0.013942
-0.0139045
-0.0132203
-0.0120065
-0.0104381
-0.00867982
-0.00690273
-0.00522329
-0.00375223
-0.00253537
-0.00160604
-0.000945119
-0.000505701
-0.000242311
-6.09428e-05
-0.0413758
-0.0433946
-0.0447896
-0.0456736
-0.0463439
-0.0469974
-0.0476835
-0.048367
-0.0489958
-0.0495354
-0.0499721
-0.0503035
-0.0505288
-0.0506439
-0.0506409
-0.0505091
-0.0502363
-0.0498102
-0.0492161
-0.0484395
-0.0474759
-0.0463099
-0.0449252
-0.0433102
-0.0414605
-0.0393773
-0.0370678
-0.0345481
-0.0318451
-0.0289973
-0.0260562
-0.0230859
-0.0201619
-0.0173695
-0.0148007
-0.0125493
-0.0107108
-0.00940465
-0.00864979
-0.00846253
-0.00877977
-0.00956275
-0.010603
-0.0116337
-0.0124446
-0.0128561
-0.0127688
-0.0121861
-0.0111749
-0.0098583
-0.00835949
-0.00681645
-0.00532738
-0.00398998
-0.00284875
-0.00193856
-0.00124883
-0.000746254
-0.000393595
-0.000116742
-0.0374178
-0.0391969
-0.0404548
-0.0412795
-0.04192
-0.042544
-0.0431953
-0.0438446
-0.0444473
-0.0449729
-0.0454081
-0.0457499
-0.0459967
-0.0461443
-0.0461855
-0.0461107
-0.0459093
-0.0455706
-0.0450843
-0.0444402
-0.0436249
-0.0426369
-0.0414639
-0.0400962
-0.0385305
-0.0367688
-0.0348184
-0.0326934
-0.0304155
-0.0280157
-0.0255351
-0.0230242
-0.0205434
-0.0181599
-0.0159469
-0.0139797
-0.0123322
-0.0110729
-0.010232
-0.0098244
-0.00986257
-0.0102236
-0.0107893
-0.0113877
-0.0118534
-0.0120498
-0.0118898
-0.0113585
-0.0104892
-0.00936528
-0.00807565
-0.00672863
-0.00540421
-0.00418634
-0.00311582
-0.00222751
-0.00151638
-0.000960876
-0.000529742
-0.000167105
-0.0337786
-0.0353384
-0.0364656
-0.0372286
-0.0378341
-0.0384241
-0.0390367
-0.039648
-0.0402202
-0.0407264
-0.0411546
-0.0415012
-0.0417642
-0.0419397
-0.042021
-0.0419997
-0.0418668
-0.041613
-0.0412294
-0.0407074
-0.0400406
-0.0392211
-0.038245
-0.0371055
-0.0357994
-0.0343279
-0.0326979
-0.0309215
-0.0290165
-0.0270077
-0.0249273
-0.0228151
-0.0207183
-0.0186899
-0.0167868
-0.0150677
-0.0135887
-0.0123989
-0.011529
-0.0109906
-0.0107726
-0.010812
-0.0110179
-0.0112739
-0.0114576
-0.0114653
-0.0112235
-0.0107095
-0.00993532
-0.00895503
-0.00783032
-0.00664405
-0.0054591
-0.00434588
-0.00333985
-0.00247464
-0.00174832
-0.00114916
-0.000650155
-0.00021175
-0.0304439
-0.031805
-0.0328101
-0.0335114
-0.0340798
-0.0346338
-0.0352065
-0.0357786
-0.036318
-0.0368018
-0.037219
-0.0375661
-0.0378409
-0.0380397
-0.0381566
-0.0381842
-0.0381147
-0.0379403
-0.0376537
-0.0372477
-0.0367147
-0.036051
-0.0352556
-0.0343232
-0.0332505
-0.0320383
-0.0306918
-0.0292212
-0.0276413
-0.0259717
-0.0242375
-0.0224696
-0.0207044
-0.0189832
-0.0173497
-0.0158488
-0.0145235
-0.0134102
-0.0125342
-0.0119048
-0.0115113
-0.0113153
-0.0112535
-0.011246
-0.0112047
-0.0110525
-0.0107296
-0.0102116
-0.00949759
-0.00862142
-0.00762376
-0.00656648
-0.00549718
-0.00447355
-0.00352489
-0.00268266
-0.0019461
-0.0013115
-0.000754805
-0.000250606
-0.0274006
-0.0285832
-0.0294758
-0.0301178
-0.0306487
-0.0311668
-0.0317003
-0.0322334
-0.0327397
-0.0331995
-0.0336034
-0.0339479
-0.0342307
-0.0344485
-0.034596
-0.0346669
-0.0346545
-0.0345521
-0.0343535
-0.0340529
-0.0336448
-0.0331251
-0.0324899
-0.03174
-0.0308729
-0.0298887
-0.0287908
-0.0275869
-0.0262887
-0.0249117
-0.0234755
-0.0220036
-0.0205239
-0.0190678
-0.0176689
-0.0163611
-0.0151769
-0.0141441