/*--------------------------------*- C++ -*----------------------------------*\
| =========                 |                                                 |
| \\      /  F ield         | OpenFOAM: The Open Source CFD Toolbox           |
|  \\    /   O peration     | Version:  2512                                  |
|   \\  /    A nd           | Website:  www.openfoam.com                      |
|    \\/     M anipulation  |                                                 |
\*---------------------------------------------------------------------------*/
FoamFile
{
    version     2.0;
    format      ascii;
    arch        "LSB;label=32;scalar=64";
    class       surfaceScalarField;
    location    "155.75";
    object      phi;
}
// * * * * * * * * * * * * * * * * * * * * * * * * * * * * * * * * * * * * * //

dimensions      [0 3 -1 0 0 0 0];

oriented        oriented;

internalField   nonuniform List<scalar> 
26232
(
2.28483e-05
0.00108851
-0.00111136
0.000404772
0.00201169
-0.00239361
0.00139059
0.00184805
-0.00283387
0.00319144
0.000631995
-0.00243285
0.0060034
-0.00163699
-0.00117497
0.0100092
-0.0049717
0.000965931
0.0153683
-0.00937764
0.00401853
0.0221967
-0.0148332
0.00800474
0.0305414
-0.021272
0.0129273
0.0403547
-0.0285719
0.0187587
0.0514766
-0.0365533
0.0254314
0.063632
-0.0449879
0.0328325
0.0764447
-0.0536161
0.0408034
0.0894682
-0.0621703
0.0491468
0.10223
-0.0704002
0.0576389
0.11428
-0.0780963
0.0660457
0.125247
-0.085109
0.0741426
0.134871
-0.0913609
0.0817366
0.14304
-0.0968467
0.0886781
0.14977
-0.101634
0.0949035
0.155207
-0.105797
0.10036
0.159475
-0.109554
0.105286
0.162527
-0.112562
0.10951
-0.116029
0.114235
0.164321
8.40744e-05
0.00100444
0.000659915
0.00143585
0.00200114
0.000506828
0.00435135
-0.00171822
0.00793068
-0.00521632
0.0129234
-0.00996439
0.0194529
-0.0159072
0.027551
-0.0229313
0.0371302
-0.0308511
0.0479697
-0.0394114
0.0597233
-0.0483069
0.0719489
-0.0572135
0.0841573
-0.0658244
0.0958699
-0.0738829
0.106677
-0.0812075
0.116286
-0.087705
0.124548
-0.0933707
0.131462
-0.0982752
0.137156
-0.102541
0.141836
-0.106314
0.145767
-0.109729
0.14913
-0.112916
0.152413
-0.115845
-0.119087
0.155471
0.000178727
0.000825713
0.00103235
0.000582222
0.00285127
-0.00131209
0.00589368
-0.00476062
0.0103741
-0.00969671
0.016433
-0.0160233
0.0240991
-0.0235733
0.0332571
-0.0320892
0.0436364
-0.0412304
0.0548299
-0.050605
0.0663415
-0.0598185
0.0776528
-0.0685248
0.0882947
-0.0764663
0.0979085
-0.0834968
0.106285
-0.0895841
0.113375
-0.0947948
0.119269
-0.0992644
0.124156
-0.103162
0.128272
-0.106657
0.131851
-0.109893
0.135088
-0.112967
0.138139
-0.115967
0.141122
-0.118829
-0.121944
0.143979
0.000297725
0.000527988
0.00149191
-0.00061196
0.00387442
-0.0036946
0.00769164
-0.00857785
0.013111
-0.015116
0.0201737
-0.0230861
0.0287548
-0.0321543
0.03855
-0.0418844
0.049104
-0.0517845
0.0598761
-0.0613771
0.070326
-0.0702684
0.0799976
-0.0781964
0.0885801
-0.0850488
0.0959351
-0.0908517
0.102086
-0.0957355
0.107181
-0.0998895
0.111435
-0.103518
0.115076
-0.106804
0.11831
-0.109891
0.121294
-0.112877
0.124148
-0.115821
0.126943
-0.118762
0.129787
-0.121673
-0.124807
0.13265
0.00043401
9.39782e-05
0.00201035
-0.0021883
0.00500231
-0.00668656
0.00960931
-0.0131848
0.0159013
-0.021408
0.0237647
-0.0309495
0.0328811
-0.0412708
0.0427597
-0.0517631
0.0528196
-0.0618444
0.0624956
-0.0710531
0.0713356
-0.0791084
0.0790612
-0.0859219
0.0855828
-0.0915705
0.0909724
-0.0962413
0.0954085
-0.100172
0.099115
-0.103596
0.10231
-0.106712
0.105173
-0.109667
0.107839
-0.112557
0.110401
-0.115438
0.11292
-0.11834
0.115437
-0.121279
0.118002
-0.124238
-0.127352
0.120546
0.000583117
-0.000489138
0.0025643
-0.00416948
0.00617038
-0.0102926
0.0115106
-0.0185251
0.0185053
-0.0284027
0.0268459
-0.0392901
0.0360212
-0.0504461
0.045412
-0.0611538
0.0544185
-0.0708509
0.0625747
-0.0792093
0.0696125
-0.0861462
0.0754683
-0.0917777
0.0802412
-0.0963434
0.0841274
-0.100127
0.0873535
-0.103398
0.0901283
-0.106371
0.0926179
-0.109202
0.0949402
-0.11199
0.0971739
-0.11479
0.0993693
-0.117633
0.10156
-0.120531
0.103768
-0.123487
0.106025
-0.126494
-0.129622
0.108295
0.000741651
-0.00123079
0.00313038
-0.00655821
0.00731098
-0.0144733
0.0132553
-0.0244694
0.0206924
-0.0358398
0.0291124
-0.0477101
0.0378623
-0.0591959
0.0462947
-0.0695863
0.0539056
-0.0784618
0.0604101
-0.0857138
0.0657463
-0.0914823
0.0700232
-0.0960547
0.0734454
-0.0997656
0.0762419
-0.102924
0.0786173
-0.105773
0.08073
-0.108484
0.0826894
-0.111161
0.0845655
-0.113866
0.0864017
-0.116627
0.0882252
-0.119457
0.0900543
-0.12236
0.0919021
-0.125335
0.0937857
-0.128378
-0.131512
0.095676
0.000904266
-0.00213505
0.00367999
-0.00933393
0.00834853
-0.0191418
0.0147021
-0.030823
0.0222626
-0.0434003
0.0303564
-0.0558039
0.0382781
-0.0671176
0.0454586
-0.0767667
0.0515646
-0.0845678
0.0565092
-0.0906585
0.0603945
-0.0953676
0.0634265
-0.0990867
0.0658377
-0.102177
0.0678341
-0.10492
0.0695728
-0.107512
0.0711605
-0.110071
0.0726637
-0.112664
0.074122
-0.115324
0.0755595
-0.118064
0.076992
-0.120889
0.0784314
-0.1238
0.0798877
-0.126791
0.0813717
-0.129862
-0.13301
0.08287
0.00106308
-0.00319813
0.0041785
-0.0124493
0.00920369
-0.024167
0.0157255
-0.0373448
0.023078
-0.0507527
0.0304979
-0.0632238
0.0373259
-0.0739456
0.043145
-0.0825859
0.047812
-0.0892348
0.0514016
-0.0942481
0.0541135
-0.0980795
0.0561838
-0.101157
0.057825
-0.103818
0.059199
-0.106294
0.0604148
-0.108728
0.061539
-0.111196
0.0626104
-0.113736
0.0636513
-0.116365
0.0646761
-0.119089
0.0656948
-0.121908
0.0667157
-0.12482
0.0677463
-0.127822
0.0687929
-0.130909
-0.134067
0.0698495
0.0012079
-0.00440603
0.00458859
-0.01583
0.00980413
-0.0293825
0.0162358
-0.0437765
0.023083
-0.0575999
0.0295812
-0.069722
0.0351934
-0.0795578
0.0396819
-0.0870744
0.0430676
-0.0926204
0.0455303
-0.0967108
0.0473074
-0.0998567
0.0486216
-0.102471
0.0496451
-0.104841
0.0504944
-0.107144
0.0512402
-0.109473
0.0519226
-0.111878
0.0525638
-0.114377
0.0531772
-0.116978
0.0537722
-0.119684
0.0543561
-0.122492
0.0549353
-0.1254
0.0555158
-0.128402
0.0561021
-0.131495
-0.134661
0.0566957
0.00132819
-0.00573421
0.00487702
-0.0193789
0.0100975
-0.034603
0.0161935
-0.0498726
0.0223035
-0.0637099
0.0277404
-0.075159
0.0321289
-0.0839463
0.0353985
-0.0903439
0.0376872
-0.0949092
0.0392261
-0.0982496
0.0402485
-0.100879
0.0409424
-0.103165
0.0414369
-0.105336
0.0418109
-0.107518
0.0421085
-0.109771
0.0423532
-0.112123
0.0425584
-0.114582
0.042733
-0.117153
0.0428836
-0.119835
0.0430161
-0.122625
0.0431354
-0.125519
0.0432455
-0.128512
0.0433484
-0.131598
-0.13476
0.0434483
0.00141758
-0.00715179
0.00502297
-0.0229843
0.0100608
-0.0396409
0.015611
-0.0554227
0.0208291
-0.068928
0.0251591
-0.079489
0.028391
-0.0871782
0.030586
-0.0925389
0.0319507
-0.0962739
0.0327259
-0.0990247
0.0331181
-0.101271
0.0332749
-0.103322
0.0332881
-0.105349
0.0332089
-0.107438
0.0330642
-0.109626
0.0328681
-0.111927
0.0326291
-0.114343
0.0323536
-0.116877
0.0320469
-0.119528
0.0317139
-0.122292
0.0313592
-0.125164
0.0309863
-0.12814
0.030596
-0.131207
0.0301949
-0.134359
-0.00011401
0.00270282
-0.00258881
-0.000464708
0.00693641
-0.00658571
-0.00105788
0.0103108
-0.00971765
-0.00188165
0.0129272
-0.0121035
-0.00290837
0.014905
-0.0138783
-0.00410047
0.0163831
-0.015191
-0.00541648
0.0174992
-0.0161832
-0.00681562
0.0183688
-0.0169696
-0.0082601
0.0190732
-0.0176287
-0.00971558
0.0196555
-0.0182
-0.01115
0.0201223
-0.0186878
-0.0125318
0.0204504
-0.0190686
-0.013828
0.0205941
-0.0192979
-0.0150026
0.0204912
-0.0193166
-0.0160159
0.0200689
-0.0190556
-0.016824
0.0192474
-0.0184393
-0.0173792
0.0179431
-0.0173879
-0.0176303
0.0160719
-0.0158208
-0.0175236
0.0135527
-0.0136594
-0.0170028
0.0103122
-0.0108329
-0.0160257
0.00630394
-0.00728107
-0.014537
0.00145934
-0.00294803
-0.0124748
-0.00410554
0.00204337
-0.0103676
-0.00985467
0.00774744
1.30874e-06
0.00270151
-8.08547e-05
0.00701857
-0.000299821
0.0105298
-0.000676059
0.0133035
-0.00120236
0.0154313
-0.00185065
0.0170314
-0.00257972
0.0182283
-0.00334217
0.0191312
-0.00408954
0.0198206
-0.00477521
0.0203411
-0.00535536
0.0207024
-0.00578863
0.0208837
-0.00603524
0.0208407
-0.00605608
0.020512
-0.00581224
0.0198251
-0.00526498
0.0187001
-0.004376
0.0170541
-0.00310782
0.0148038
-0.00142435
0.0118692
0.000709987
0.00817783
0.00335761
0.00365632
0.00651143
-0.00169448
0.0102839
-0.00787805
-0.014791
0.0147073
0.00010894
0.00259257
0.000288092
0.00683942
0.000448996
0.0103689
0.000544954
0.0132075
0.000564575
0.0154117
0.000525406
0.0170706
0.000465856
0.0182878
0.000436958
0.0191601
0.00049532
0.0197622
0.000698004
0.0201385
0.00109943
0.020301
0.00175003
0.0202331
0.00269594
0.0198948
0.00397919
0.0192288
0.00563789
0.0181664
0.00770634
0.0166317
0.0102149
0.0145455
0.0131904
0.0118283
0.0166562
0.00840342
0.0206344
0.00419958
0.0251315
-0.000840751
0.0301908
-0.00675376
0.0358295
-0.0135168
-0.0211443
0.0421829
0.000195987
0.00239659
0.0006019
0.0064335
0.0011101
0.00986069
0.00165776
0.0126599
0.00221936
0.0148501
0.00280184
0.0164881
0.00343779
0.0176519
0.0041773
0.0184206
0.00508014
0.0188594
0.00620921
0.0190094
0.00762574
0.0188845
0.00938647
0.0184724
0.0115422
0.0177391
0.0141372
0.0166338
0.0172096
0.0150939
0.0207919
0.0130494
0.0249112
0.0104262
0.0295901
0.0071494
0.034849
0.00314453
0.0407092
-0.0016607
0.0471832
-0.00731473
0.0542965
-0.0138671
0.0620173
-0.0212376
-0.0296574
0.0705304
0.000253309
0.00214328
0.000826801
0.00586001
0.00161294
0.00907455
0.0025452
0.0117276
0.00359087
0.0138044
0.00474835
0.0153306
0.00604258
0.0163576
0.00751836
0.0169448
0.00923302
0.0171447
0.0112496
0.0169928
0.0136312
0.0165028
0.0164376
0.015666
0.0197227
0.014454
0.0235344
0.0128221
0.0279147
0.0107136
0.0329009
0.00806322
0.0385288
0.0047983
0.0448195
0.000858737
0.05183
-0.00386598
0.0595744
-0.00940512
0.0680734
-0.0158138
0.07735
-0.0231437
0.0873147
-0.0312023
-0.0405327
0.0981899
0.000275602
0.00186767
0.000941188
0.00519443
0.00190794
0.0081078
0.00311877
0.0105168
0.00454238
0.0123808
0.00617306
0.0137
0.00802887
0.0145018
0.0101473
0.0148264
0.0125797
0.0147123
0.0153853
0.0141873
0.0186263
0.0132619
0.0223642
0.0119281
0.0266581
0.0101601
0.0315642
0.00791598
0.0371376
0.00514017
0.0434261
0.00177473
0.0504932
-0.00226882
0.0583996
-0.00704765
0.0671715
-0.0126379
0.0768537
-0.0190872
0.0874521
-0.0264122
0.0989346
-0.0346261
0.111136
-0.0434036
-0.0535435
0.124147
0.000262361
0.00160531
0.000939631
0.00451716
0.00197736
0.00707008
0.00333952
0.0091546
0.0050052
0.0107151
0.006971
0.0117341
0.00925218
0.0122206
0.0118812
0.0121974
0.0149045
0.0116889
0.0183793
0.0107125
0.0223692
0.0092719
0.0269429
0.00735444
0.0321724
0.00493054
0.0381301
0.00195833
0.0448964
-0.0016262
0.0525544
-0.00588319
0.061168
-0.0108824
0.070803
-0.0166826
0.0814914
-0.0233263
0.0932187
-0.0308145
0.105923
-0.0391167
0.119421
-0.0481237
0.133487
-0.0574703
-0.0678765
0.14782
0.000218305
0.00138701
0.000835687
0.00389978
0.00184339
0.00606237
0.00323539
0.0077626
0.00500952
0.00894099
0.00717282
0.00957084
0.0097456
0.00964786
0.0127631
0.00917982
0.0162756
0.00817644
0.020347
0.00664118
0.0250533
0.00456563
0.03048
0.00192771
0.036722
-0.00131142
0.0438802
-0.00519993
0.0520469
-0.00979283
0.0613067
-0.015143
0.0717151
-0.0212908
0.0832833
-0.0282508
0.0959584
-0.0360014
0.109595
-0.0444507
0.123978
-0.0534996
0.138715
-0.0628613
0.153555
-0.0723097
-0.0820164
0.167695
0.00015376
0.00123325
0.000663395
0.00339014
0.00157252
0.00515325
0.00291142
0.0064237
0.00470472
0.00714769
0.00697993
0.00729564
0.00977438
0.00685341
0.0131398
0.00581439
0.0171445
0.00417173
0.0218732
0.00191246
0.027425
-0.000986153
0.0339093
-0.00455658
0.0414347
-0.00883678
0.0500994
-0.0138647
0.0599747
-0.0196681
0.0710858
-0.0262542
0.0833921
-0.0335971
0.0967685
-0.0416272
0.110993
-0.0502257
0.125744
-0.0592018
0.140618
-0.0683741
0.155105
-0.0773483
0.168913
-0.0861176
-0.094152
0.181049
8.4507e-05
0.00114874
0.000475801
0.00299885
0.0012721
0.00435695
0.00254474
0.00515106
0.00435339
0.00533904
0.00675774
0.00489128
0.00982629
0.00378486
0.0136419
0.00199876
0.018303
-0.000489331
0.0239207
-0.00370523
0.0306103
-0.00767574
0.0384781
-0.0124244
0.0476042
-0.017963
0.0580221
-0.0242826
0.0696978
-0.0313437
0.0825121
-0.0390685
0.09625
-0.047335
0.110601
-0.0559783
0.125167
-0.0647919
0.139508
-0.0735425
0.15313
-0.0819959
0.165626
-0.0898448
0.176653
-0.0971447
-0.103119
0.185621
2.97311e-05
0.00111901
0.000336857
0.00269172
0.00107236
0.00362144
0.0023522
0.00387123
0.00427879
0.00341245
0.00695404
0.00221603
0.0104868
0.000252065
0.0149959
-0.00251028
0.0206037
-0.00609714
0.0274255
-0.0105271
0.0355516
-0.0158018
0.0450255
-0.0218982
0.055822
-0.0287595
0.0678291
-0.0362897
0.0808373
-0.0443519
0.0945395
-0.0527707
0.108545
-0.0613401
0.122406
-0.0698393
0.135656
-0.0780422
0.14788
-0.0857667
0.158713
-0.0928285
0.168068
-0.0992003
0.175707
-0.104784
-0.109234
0.181822
7.64758e-06
0.000305757
0.00109333
0.00253171
0.00476919
0.00795115
0.0122217
0.0177162
0.0245463
0.0327779
0.0424075
0.0533418
0.0653857
0.0782428
0.0915298
0.104805
0.117607
0.129505
0.14014
0.149277
0.156809
0.162895
0.167621
0.172622
-0.00625626
-0.0237801
0.0201817
-0.00241453
-0.0369766
0.0331349
0.0016305
-0.0514974
0.0474523
0.00551714
-0.0664183
0.0625317
0.00904408
-0.0811049
0.077578
0.0119206
-0.0948224
0.0919459
0.0138997
-0.10698
0.105
0.0150511
-0.117214
0.116063
0.0159706
-0.125295
0.124376
0.0176961
-0.130521
0.128795
0.0216222
-0.13146
0.127534
0.0288038
-0.125752
0.118571
0.0393725
-0.110978
0.10041
0.0524782
-0.0859751
0.0728694
0.0669055
-0.0514464
0.0370191
0.0816697
-0.00968264
-0.00508165
0.0961051
0.0358678
-0.0503032
0.109367
0.0799583
-0.0932202
0.120387
0.116823
-0.127843
0.128308
0.142955
-0.150876
0.133045
0.158254
-0.162992
0.135109
0.16498
-0.167044
0.134626
0.167477
-0.166994
0.131168
0.171942
-0.168484
0.125186
0.181458
-0.175476
0.119209
0.188644
-0.182667
0.11667
0.176724
-0.174185
0.119369
0.132058
-0.134757
0.126665
0.0575854
-0.0648811
0.136266
-0.0281568
0.0185558
0.145522
-0.103512
0.094256
0.152396
-0.156251
0.149377
0.156421
-0.185202
0.181176
0.15784
-0.196154
0.194736
0.156029
-0.199935
0.201746
0.150174
-0.207724
0.213579
0.141597
-0.220248
0.228826
0.134024
-0.213791
0.221364
0.131086
-0.169739
0.172678
0.133666
-0.0810797
0.0784992
0.140299
0.0193422
-0.0259751
0.148195
0.110811
-0.118707
0.154161
0.172582
-0.178547
0.155059
0.213871
-0.21477
0.150158
0.250639
-0.245737
0.142477
0.263024
-0.255343
0.137224
0.249339
-0.244086
0.137368
0.152046
-0.152191
0.142811
0.0446237
-0.0500663
0.148677
-0.0812667
0.0754001
0.1504
-0.166323
0.1646
0.147014
-0.224298
0.227684
0.142742
-0.295416
0.299688
0.141383
-0.2379
0.23926
0.143218
-0.213773
0.211937
0.144488
-0.0345023
0.0332332
0.14388
0.0997569
-0.0991497
0.142346
0.196305
-0.194771
0.14059
0.373679
-0.371923
0.176312
-0.174627
0.0179449
-0.0270177
0.0211125
-0.0401442
0.024199
-0.0545839
0.0270704
-0.0692897
0.0293911
-0.0834256
0.0308092
-0.0962405
0.030941
-0.107111
0.0295196
-0.115793
0.0266448
-0.122421
0.0232943
-0.12717
0.0212153
-0.129381
0.0224508
-0.126988
0.0283097
-0.116837
0.0387015
-0.0963669
0.0524059
-0.0651508
0.0680137
-0.0252904
0.0842628
0.0196186
0.0999101
0.064311
0.113601
0.103132
0.124245
0.132311
0.131534
0.150965
0.135691
0.160823
0.136711
0.166457
0.134514
0.174139
0.130109
0.185863
0.126063
0.192691
0.125077
0.17771
0.12812
0.129014
0.134522
0.0511835
0.142354
-0.035989
0.149563
-0.11072
0.154405
-0.161093
0.156567
-0.187363
0.156534
-0.196121
0.153849
-0.19725
0.147438
-0.201313
0.138266
-0.211077
0.130118
-0.205643
0.127066
-0.166687
0.130267
-0.0842816
0.138164
0.0114462
0.147482
0.101493
0.154546
0.165518
0.156214
0.212203
0.151894
0.254959
0.144704
0.270213
0.139507
0.254535
0.139098
0.152456
0.143835
0.0398861
0.149175
-0.0866062
0.150712
-0.16786
0.147077
-0.220663
0.142683
-0.291022
0.141273
-0.236491
0.142974
-0.215474
0.144129
-0.0356578
0.143432
0.100455
0.141982
0.197754
0.140308
0.375353
0.177956
0.0445825
-0.0294173
0.0469861
-0.0425479
0.0491664
-0.0567642
0.0509347
-0.071058
0.0520912
-0.0845821
0.0523699
-0.0965193
0.0513647
-0.106106
0.0485687
-0.112997
0.0436418
-0.117494
0.0368495
-0.120378
0.0296117
-0.122144
0.0244328
-0.121809
0.0239599
-0.116364
0.0295545
-0.101962
0.0407281
-0.0763243
0.0558029
-0.0403653
0.073072
0.00234955
0.090553
0.04683
0.106611
0.0870745
0.119891
0.119031
0.12977
0.141086
0.136116
0.154477
0.13886
0.163713
0.138299
0.174699
0.135823
0.188339
0.13379
0.194724
0.134127
0.177373
0.13724
0.125902
0.142348
0.0460749
0.148227
-0.041868
0.153258
-0.115751
0.15608
-0.163915
0.156473
-0.187756
0.155096
-0.194744
0.151705
-0.19386
0.145011
-0.194619
0.135493
-0.201558
0.126824
-0.196974
0.123519
-0.163382
0.127124
-0.087887
0.136084
0.00248582
0.146697
0.0908797
0.154856
0.157359
0.157423
0.209636
0.153867
0.258515
0.14729
0.27679
0.142165
0.259661
0.141124
0.153496
0.145005
0.0360058
0.149752
-0.0913537
0.151115
-0.169223
0.147244
-0.216792
0.142663
-0.286441
0.141186
-0.235014
0.142807
-0.217095
0.14391
-0.0367603
0.143124
0.101241
0.141747
0.199131
0.140173
0.376928
0.179529
0.0722345
-0.0311214
0.0738547
-0.044168
0.0751135
-0.0580231
0.0757016
-0.0716461
0.0754958
-0.0843762
0.074378
-0.0954015
0.0721595
-0.103888
0.0685375
-0.109375
0.0630268
-0.111983
0.0551625
-0.112514
0.0452422
-0.112223
0.0351146
-0.111681
0.0280167
-0.109266
0.0270618
-0.101007
0.0334758
-0.0827383
0.0461793
-0.0530688
0.0631161
-0.0145873
0.0815927
0.0283534
0.0995055
0.0691618
0.115162
0.103374
0.127527
0.128721
0.136095
0.145909
0.140771
0.159038
0.142168
0.173302
0.141872
0.188635
0.141877
0.194719
0.143325
0.175925
0.146161
0.123066
0.149921
0.0423148
0.153729
-0.0456765
0.156568
-0.11859
0.15742
-0.164767
0.156158
-0.186494
0.15353
-0.192117
0.149542
-0.189871
0.142798
-0.187875
0.133227
-0.191987
0.124161
-0.187907
0.120448
-0.159669
0.12422
-0.0916593
0.134009
-0.00730282
0.14578
0.0791084
0.15504
0.148099
0.158644
0.206032
0.156031
0.261129
0.150187
0.282634
0.145162
0.264685
0.143412
0.155247
0.146325
0.0330924
0.15039
-0.0954186
0.151585
-0.170418
0.147498
-0.212705
0.142664
-0.281607
0.141095
-0.233445
0.142696
-0.218696
0.143815
-0.0378795
0.14295
0.102106
0.141635
0.200446
0.140188
0.378375
0.180999
0.0995773
-0.0325087
0.100517
-0.0451075
0.100713
-0.0582189
0.0999262
-0.0708597
0.0981323
-0.0825823
0.0953453
-0.0926145
0.0915785
-0.100121
0.0868433
-0.104639
0.0809895
-0.106129
0.0734973
-0.105021
0.0637067
-0.102433
0.0518692
-0.0998438
0.0402242
-0.0976214
0.0326151
-0.0933975
0.0324101
-0.0825334
0.0404766
-0.0611353
0.0550163
-0.029127
0.0733486
0.0100212
0.0923646
0.0501457
0.10992
0.0858183
0.124478
0.114164
0.13519
0.135196
0.141935
0.152293
0.145538
0.169699
0.14761
0.186564
0.149656
0.192673
0.152104
0.173477
0.154572
0.120599
0.156891
0.0399957
0.158711
-0.0474964
0.159404
-0.119283
0.158356
-0.163719
0.155577
-0.183714
0.151819
-0.188359
0.147327
-0.185378
0.140723
-0.181271
0.131387
-0.182652
0.122112
-0.178633
0.117902
-0.155459
0.121577
-0.0953341
0.131855
-0.0175812
0.144652
0.0663112
0.15502
0.137731
0.1598
0.201252
0.158305
0.262623
0.153313
0.287626
0.148419
0.26958
0.14594
0.157726
0.147758
0.0312745
0.151064
-0.0987249
0.152092
-0.171446
0.147818
-0.208431
0.14267
-0.27646
0.140978
-0.231754
0.142613
-0.220331
0.143826
-0.0390922
0.1429
0.103031
0.141642
0.201704
0.140357
0.37966
0.182328
0.125073
-0.0334348
0.125229
-0.0452636
0.124262
-0.0572522
0.12201
-0.0686075
0.118576
-0.079148
0.114091
-0.0881298
0.108705
-0.0947349
0.102622
-0.0985567
0.0960244
-0.0995312
0.0888341
-0.0978311
0.0804224
-0.094021
0.0699032
-0.0893246
0.0574749
-0.0851931
0.0456987
-0.0816213
0.038818
-0.0756526
0.0401701
-0.0624875
0.0499933
-0.0389502
0.0662617
-0.00624725
0.0851749
0.0312326
0.103891
0.0671018
0.120219
0.0978363
0.13293
0.122485
0.141822
0.143401
0.147794
0.163727
0.152332
0.182026
0.156408
0.188597
0.159816
0.170068
0.162017
0.118398
0.163063
0.0389493
0.163027
-0.0474607
0.161678
-0.117933
0.158826
-0.160868
0.154684
-0.179572
0.149932
-0.183608
0.145004
-0.18045
0.138672
-0.174939
0.129842
-0.173822
0.120599
-0.169389
0.115864
-0.150725
0.119133
-0.098603
0.129615
-0.0280633
0.143227
0.0526992
0.154701
0.126258
0.160788
0.195166
0.160575
0.262836
0.156556
0.291645
0.151841
0.274294
0.148613
0.160953
0.149298
0.03059
0.151745
-0.101172
0.1526
-0.172301
0.148182
-0.204013
0.142672
-0.270949
0.140815
-0.229898
0.142531
-0.222047
0.143921
-0.0404821
0.142963
0.10399
0.14176
0.202907
0.14068
0.38074
0.183477
0.1478
-0.0334149
0.146781
-0.0442439
0.144345
-0.0548168
0.140443
-0.0647049
0.135302
-0.0740073
0.129151
-0.0819789
0.122263
-0.0878472
0.11497
-0.0912632
0.107575
-0.0921362
0.100276
-0.0905318
0.0929355
-0.0866808
0.0847635
-0.0811527
0.0746819
-0.0751114
0.0628798
-0.0698192
0.0521274
-0.0649003
0.0467898
-0.0571498
0.0499537
-0.0421141
0.0613488
-0.0176423
0.0782875
0.0142938
0.0969469
0.0484424
0.11442
0.0803627
0.12892
0.107985
0.139993
0.132328
0.148428
0.155291
0.155462
0.174993
0.161521
0.182538
0.165923
0.165667
0.168028
0.116292
0.168089
0.0388885
0.1665
-0.0458716
0.163282
-0.114715
0.158764
-0.15635
0.153426
-0.174233
0.147834
-0.178016
0.142526
-0.175141
0.136533
-0.168947
0.128425
-0.165713
0.119482
-0.160446
0.114276
-0.145519
0.116894
-0.101221
0.127224
-0.0383934
0.14142
0.0385036
0.153975
0.113702
0.161485
0.187656
0.162707
0.261614
0.159781
0.29457
0.155303
0.278772
0.151388
0.164869
0.150869
0.0311088
0.152399
-0.102702
0.153071
-0.172973
0.148565
-0.199507
0.142663
-0.265047
0.140593
-0.227827
0.142422
-0.223876
0.144079
-0.0421391
0.143125
0.104944
0.141985
0.204047
0.141158
0.381567
0.184404
0.166208
-0.031928
0.163596
-0.0416318
0.159439
-0.0506602
0.153849
-0.0591147
0.147128
-0.0672862
0.139535
-0.0743861
0.131421
-0.0797333
0.123207
-0.0830491
0.115261
-0.08419
0.107841
-0.0831118
0.101057
-0.0798973
0.0946468
-0.0747423
0.0876635
-0.0681281
0.0789388
-0.0610944
0.0686983
-0.0546598
0.0597498
-0.0482013
0.0563033
-0.0386677
0.0610007
-0.0223397
0.0732753
0.00201923
0.0898659
0.0318518
0.10732
0.062909
0.1231
0.0922052
0.136219
0.119209
0.147113
0.144397
0.156619
0.165486
0.164643
0.174514
0.170088
0.160222
0.172338
0.114042
0.17176
0.0394666
0.168957
-0.0430694
0.164128
-0.109886
0.158109
-0.150331
0.15174
-0.167864
0.145474
-0.171751
0.139841
-0.169508
0.134198
-0.163304
0.126955
-0.15847
0.118573
-0.152064
0.113039
-0.139985
0.114833
-0.103015
0.12464
-0.0482002
0.139154
0.0239897
0.152736
0.100121
0.161756
0.178635
0.164544
0.258827
0.162825
0.296289
0.158663
0.282935
0.154155
0.169376
0.152437
0.0328268
0.152992
-0.103257
0.153463
-0.173444
0.148934
-0.194978
0.142637
-0.258749
0.140301
-0.225492
0.142257
-0.225832
0.144274
-0.0441565
0.143374
0.105844
0.142308
0.205114
0.14179
0.382085
0.185064
0.178047
-0.028926
0.173832
-0.0374168
0.168112
-0.0449407
0.161195
-0.0521977
0.153371
-0.0594621
0.144873
-0.0658879
0.13607
-0.0709307
0.127393
-0.0743717
0.119224
-0.0760215
0.111855
-0.0757425
0.105462
-0.0735045
0.100063
-0.0693426
0.0952751
-0.0633405
0.0900651
-0.0558844
0.0832894
-0.0478841
0.0752043
-0.0401162
0.0684625
-0.0319258
0.0668807
-0.0207579
0.0726906
-0.00379072
0.0847744
0.019768
0.100283
0.0474002
0.116197
0.0762913
0.1308
0.104606
0.14389
0.131307
0.155719
0.153657
0.165627
0.164606
0.172179
0.15367
0.174813
0.111409
0.174045
0.0402347
0.170314
-0.0393385
0.164117
-0.103688
0.156762
-0.142977
0.149522
-0.160623
0.142759
-0.164988
0.136869
-0.163619
0.131549
-0.157984
0.125248
-0.152168
0.117654
-0.144471
0.111989
-0.13432
0.112883
-0.103909
0.121861
-0.0571788
0.136382
0.00946918
0.150882
0.0856199
0.161473
0.168044
0.165954
0.254346
0.165541
0.296702
0.161791
0.286684
0.156782
0.174385
0.153962
0.035647
0.153484
-0.102778
0.15373
-0.17369
0.149253
-0.190501
0.142591
-0.252086
0.13994
-0.222841
0.142011
-0.227902
0.144484
-0.0466299
0.143698
0.10663
0.142723
0.206088
0.142576
0.382232
0.185412
0.181721
-0.0250266
0.176468
-0.0321633
0.169852
-0.0383246
0.162352
-0.0446977
0.154154
-0.0512644
0.14545
-0.057184
0.136601
-0.0620817
0.127996
-0.0657666
0.119984
-0.0680099
0.112861
-0.0686187
0.106843
-0.0674871
0.102059
-0.0645583
0.0984601
-0.0597418
0.09561
-0.0530343
0.0924812
-0.0447553
0.0879887
-0.0356238
0.0823741
-0.0263113
0.077995
-0.0163788
0.0781379
-0.00393363
0.0842961
0.0136098
0.095699
0.0359974
0.1099
0.0620898
0.124762
0.0897441
0.139317
0.116752
0.153046
0.139929
0.164656
0.152995
0.172377
0.145949
0.175667
0.108118
0.17498
0.0409219
0.170575
-0.0349332
0.163182
-0.0962952
0.154652
-0.134447
0.146684
-0.152655
0.139602
-0.157906
0.133548
-0.157565
0.1285
-0.152936
0.123155
-0.146823
0.116532
-0.137847
0.110946
-0.128734
0.110967
-0.10393
0.118867
-0.0650789
0.133084
-0.004747
0.148347
0.0703565
0.160503
0.155888
0.166741
0.248109
0.167738
0.295705
0.164537
0.289885
0.159211
0.179711
0.15536
0.0394975
0.153846
-0.101264
0.15383
-0.173674
0.149489
-0.18616
0.142527
-0.245125
0.139518
-0.219833
0.141656
-0.23004
0.144683
-0.0496568
0.144081
0.107232
0.143225
0.206944
0.143515
0.381941
0.185399
0.17791
-0.0211142
0.172426
-0.0266798
0.165784
-0.0316829
0.158488
-0.0374015
0.150591
-0.0433676
0.142295
-0.048888
0.133929
-0.053715
0.125815
-0.0576534
0.118268
-0.0604625
0.111577
-0.0619274
0.105987
-0.0618978
0.101658
-0.0602286
0.0986346
-0.0567187
0.0968194
-0.051219
0.0957885
-0.0437244
0.094694
-0.0345293
0.0926786
-0.0242959
0.0898431
-0.0135433
0.0881943
-0.00228485
0.0895397
0.0122644
0.0958889
0.0296481
0.10648
0.0514989
0.119753
0.0764705
0.134423
0.102083
0.149216
0.125136
0.162013
0.140198
0.170784
0.137179
0.175149
0.103753
0.174855
0.0412158
0.170009
-0.0300878
0.161602
-0.0878879
0.152077
-0.124922
0.143505
-0.144084
0.136234
-0.150635
0.130086
-0.151417
0.125196
-0.148046
0.120709
-0.142337
0.115155
-0.132294
0.109831
-0.12341
0.10903
-0.103129
0.115654
-0.0717027
0.129246
-0.0183397
0.145049
0.0545536
0.158796
0.142142
0.166916
0.239988
0.16937
0.293251
0.166788
0.292468
0.161375
0.185124
0.156638
0.0442346
0.154104
-0.0987298
0.153765
-0.173335
0.14963
-0.182025
0.142465
-0.23796
0.13906
-0.216427
0.141187
-0.232167
0.144846
-0.0533153
0.14451
0.107568
0.143808
0.207645
0.144608
0.381142
0.184976
0.169255
-0.0177478
0.164059
-0.0214829
0.158256
-0.0258807
0.151845
-0.0309898
0.144864
-0.0363866
0.137598
-0.041622
0.130307
-0.0464239
0.123239
-0.0505856
0.116655
-0.0538789
0.11079
-0.0560621
0.105811
-0.0569186
0.10184
-0.0562578
0.0990052
-0.0538841
0.0974106
-0.0496244
0.0970426
-0.0433564
0.0975794
-0.035066
0.0982626
-0.0249791
0.0983294
-0.0136102
0.0974552
-0.00141065
0.0980849
0.0116348
0.101195
0.0265382
0.107904
0.0447893
0.118034
0.066341
0.130856
0.0892605
0.145003
0.110989
0.158161
0.12704
0.168264
0.127076
0.174106
0.0979114
0.174562
0.0407594
0.168886
-0.0244119
0.159469
-0.0784702
0.149251
-0.114704
0.140314
-0.135146
0.132979
-0.1433
0.126784
-0.145222
0.121894
-0.143156
0.118048
-0.13849
0.113558
-0.127804
0.108643
-0.118494
0.107099
-0.101585
0.112437
-0.0770408
0.125037
-0.0309401
0.141034
0.0385568
0.156025
0.12715
0.16602
0.229993
0.1701
0.289172
0.168362
0.294205
0.163101
0.190385
0.157748
0.0495872
0.15423
-0.0952119
0.153543
-0.172648
0.149668
-0.17815
0.142407
-0.230698
0.13856
-0.21258
0.140642
-0.234249
0.144974
-0.0576465
0.144977
0.107564
0.144464
0.208158
0.145847
0.379758
0.184088
0.204909
-0.014628
-0.208028
0.202618
-0.0191923
0.200002
-0.0232651
0.196778
-0.0277655
0.192882
-0.0324901
0.188375
-0.037115
0.183339
-0.0413883
0.177842
-0.0450883
0.17197
-0.048007
0.165841
-0.0499333
0.159583
-0.0506605
0.153323
-0.0499982
0.147202
-0.0477631
0.141367
-0.0437894
0.135962
-0.0379516
0.131053
-0.0301563
0.126452
-0.0203782
0.12177
-0.00892859
0.116514
0.00384557
0.111028
0.0171211
0.106362
0.0312039
0.103986
0.0471653
0.105144
0.0651831
0.110452
0.0839525
0.119727
0.101714
0.132922
0.113845
0.150502
0.109497
0.170118
0.0782955
0.185342
0.0255346
0.192668
-0.0317378
0.192182
-0.0779843
0.186463
-0.108985
0.178355
-0.127038
0.169659
-0.134604
0.160965
-0.136528
0.152867
-0.135059
0.145652
-0.131274
0.138027
-0.120179
0.129349
-0.109817
0.122352
-0.0945876
0.120446
-0.0751352
0.124484
-0.0349774
0.130976
0.032065
0.136725
0.121401
0.140575
0.226143
0.14418
0.285567
0.148832
0.289554
0.153991
0.185226
0.157446
0.0461322
0.158697
-0.096463
0.157911
-0.171862
0.153362
-0.173601
0.144741
-0.222078
0.13827
-0.206108
0.135846
-0.231826
0.135096
-0.0568965
0.132456
0.110204
0.130544
0.21007
0.132806
0.377496
0.182626
0.213705
-0.0122688
-0.216065
0.211125
-0.0166114
0.208509
-0.0206495
0.205402
-0.0246589
0.201681
-0.0287686
0.197391
-0.032825
0.192598
-0.0365956
0.187372
-0.0398616
0.181796
-0.0424317
0.175984
-0.0441214
0.170067
-0.0447435
0.164184
-0.0441152
0.158482
-0.0420609
0.153108
-0.0384149
0.148199
-0.0330429
0.143893
-0.0258498
0.140235
-0.0167203
0.136958
-0.00565167
0.133744
0.00705944
0.13032
0.0205454
0.127046
0.0344779
0.125119
0.0490917
0.126076
0.0642259
0.131015
0.0790142
0.140327
0.0924016
0.154344
0.0998282
0.172451
0.0913893
0.190619
0.060127
0.203324
0.0128301
0.207784
-0.0361984
0.2052
-0.0753995
0.198049
-0.101835
0.189023
-0.118011
0.179839
-0.125421
0.170888
-0.127577
0.162467
-0.126637
0.15508
-0.123887
0.147713
-0.112812
0.139278
-0.101382
0.131815
-0.0871251
0.129004
-0.0723234
0.132415
-0.0383886
0.139061
0.0254187
0.145499
0.114963
0.150264
0.221377
0.155024
0.280807
0.160874
0.283704
0.166722
0.179378
0.170365
0.0424892
0.170883
-0.0969806
0.169344
-0.170323
0.164167
-0.168424
0.154806
-0.212717
0.147384
-0.198686
0.144582
-0.229024
0.143968
-0.056282
0.141159
0.113013
0.13915
0.212079
0.142009
0.374638
0.180851
0.222238
-0.0104819
-0.224024
0.219911
-0.0142845
0.217298
-0.0180373
0.214304
-0.0216647
0.210797
-0.0252612
0.206761
-0.0287897
0.20225
-0.0320841
0.197333
-0.0349448
0.192092
-0.0371908
0.186628
-0.0386571
0.181063
-0.0391784
0.175535
-0.0385871
0.170193
-0.0367198
0.165197
-0.0334181
0.160697
-0.0285435
0.156849
-0.0220015
0.15379
-0.0136609
0.151596
-0.00345767
0.150113