/*--------------------------------*- C++ -*----------------------------------*\
| =========                 |                                                 |
| \\      /  F ield         | OpenFOAM: The Open Source CFD Toolbox           |
|  \\    /   O peration     | Version:  2512                                  |
|   \\  /    A nd           | Website:  www.openfoam.com                      |
|    \\/     M anipulation  |                                                 |
\*---------------------------------------------------------------------------*/
FoamFile
{
    version     2.0;
    format      ascii;
    arch        "LSB;label=32;scalar=64";
    class       volVectorField;
    location    "146.25";
    object      U;
}
// * * * * * * * * * * * * * * * * * * * * * * * * * * * * * * * * * * * * * //

dimensions      [0 1 -1 0 0 0 0];

internalField   nonuniform List<vector> 
13248
(
(-0.0131853 0.0112495 6.70144e-20)
(-0.0255759 0.0227263 0)
(-0.0250641 0.0275399 -1.26666e-19)
(-0.0115059 0.0286082 1.19323e-19)
(0.0153019 0.0278471 1.11319e-19)
(0.0555065 0.0265381 0)
(0.109127 0.0255669 0)
(0.175884 0.0255447 2.62087e-19)
(0.255018 0.0268623 -2.65226e-21)
(0.34515 0.0297144 -2.26471e-19)
(0.444213 0.0340996 2.07545e-19)
(0.549493 0.0398192 -1.29379e-19)
(0.657763 0.0464885 0)
(0.765506 0.0535697 -2.20998e-19)
(0.869186 0.0604232 4.13381e-19)
(0.965514 0.066374 -9.75193e-20)
(1.0517 0.0707876 -1.78863e-19)
(1.12566 0.0731137 1.67911e-19)
(1.18615 0.0730388 0)
(1.2328 0.0701049 0)
(1.26615 0.0651477 0)
(1.28747 0.0554394 0)
(1.29819 0.0488504 5.47184e-20)
(1.30154 0.0249121 2.04476e-19)
(-0.0139185 0.0108798 -2.02557e-19)
(-0.0226446 0.0203825 1.3831e-19)
(-0.0137676 0.0233738 -1.33711e-21)
(0.0119911 0.0229709 -1.8264e-19)
(0.0543032 0.0213286 -1.11195e-19)
(0.112815 0.0199473 -1.05054e-19)
(0.186837 0.0198398 -1.90825e-19)
(0.275063 0.021635 1.81029e-19)
(0.375359 0.0256298 0)
(0.48469 0.0318074 1.25235e-21)
(0.59924 0.039853 3.22574e-21)
(0.714686 0.0491915 1.30845e-19)
(0.826592 0.0590564 0)
(0.930827 0.0685842 0)
(1.02394 0.0769224 1.52972e-19)
(1.10345 0.0833311 -2.87338e-19)
(1.16801 0.0872652 1.74424e-19)
(1.21744 0.0884223 -1.63758e-19)
(1.25259 0.0867486 -7.33371e-20)
(1.27522 0.0824162 -1.36112e-19)
(1.28756 0.075784 -5.83592e-20)
(1.29221 0.0670865 -1.10546e-19)
(1.29083 0.058203 1.59005e-19)
(1.28766 0.0450088 4.62764e-20)
(-0.0133182 0.00961724 0)
(-0.0155706 0.0163781 0)
(0.00482905 0.0177392 6.46141e-20)
(0.0461963 0.0167173 5.93046e-20)
(0.107412 0.0155236 -1.78187e-21)
(0.187183 0.0157426 -1.09312e-19)
(0.283495 0.0183591 0)
(0.393304 0.0238279 -8.97043e-20)
(0.512443 0.0321195 8.44095e-20)
(0.635829 0.0427653 1.25586e-21)
(0.757927 0.0549387 -1.42082e-19)
(0.873357 0.0675847 -1.29672e-19)
(0.977492 0.0795797 2.46212e-21)
(1.06693 0.0898951 -1.07351e-19)
(1.13977 0.0977308 2.57176e-19)
(1.19565 0.1026 0)
(1.23559 0.104356 -1.69417e-19)
(1.26166 0.103146 8.19134e-20)
(1.27656 0.0993765 7.32789e-20)
(1.28316 0.0934671 0)
(1.2841 0.0862541 6.14018e-20)
(1.2814 0.0774163 -2.1338e-19)
(1.27641 0.0698655 2.00312e-19)
(1.27128 0.0576204 1.28637e-19)
(-0.0110105 0.00755453 -7.22633e-20)
(-0.00340372 0.0109562 -7.4838e-20)
(0.0319625 0.0110514 6.73651e-20)
(0.0922829 0.010476 0)
(0.175246 0.0112874 0)
(0.277986 0.0149441 -2.78862e-21)
(0.396412 0.0221402 0)
(0.525057 0.0328464 -2.76557e-19)
(0.657386 0.0464026 2.56206e-19)
(0.786484 0.0616663 -3.14781e-19)
(0.905939 0.077231 7.14262e-20)
(1.01066 0.0916782 0)
(1.0974 0.103809 1.18858e-19)
(1.16499 0.112806 -2.20144e-19)
(1.21414 0.118302 5.21698e-20)
(1.24703 0.120353 1.35083e-19)
(1.26673 0.119337 -5.23824e-21)
(1.27658 0.115828 -1.51277e-19)
(1.27967 0.110441 0)
(1.27851 0.103763 0)
(1.27483 0.0962808 -5.51761e-20)
(1.26972 0.0881577 4.98296e-20)
(1.26371 0.080771 1.81447e-19)
(1.25785 0.0702567 -1.70337e-19)
(-0.00665241 0.00491822 -7.67102e-20)
(0.0147032 0.00474194 -7.62197e-20)
(0.0686515 0.00430419 2.14185e-19)
(0.150969 0.00557999 -1.29493e-19)
(0.257554 0.0101997 1.21886e-19)
(0.383178 0.0191724 2.20331e-19)
(0.520945 0.0325166 -1.55836e-19)
(0.662643 0.049344 -1.88849e-19)
(0.799725 0.068113 4.36681e-21)
(0.924536 0.086976 2.39582e-19)
(1.03139 0.104157 0)
(1.1172 0.118266 6.58321e-20)
(1.18149 0.128489 0)
(1.22601 0.13461 -1.06854e-19)
(1.25399 0.136916 1.50079e-19)
(1.26928 0.136017 1.19929e-21)
(1.27565 0.132653 -3.96766e-20)
(1.27628 0.127536 7.43604e-20)
(1.2735 0.121259 6.45398e-20)
(1.26885 0.114249 -5.81611e-20)
(1.26323 0.106846 5.51647e-20)
(1.25708 0.0991014 -4.98188e-20)
(1.25062 0.0918971 0)
(1.24442 0.0824731 -3.80363e-20)
(8.22507e-05 0.00202324 7.66992e-20)
(0.0394514 -0.00135403 8.07825e-20)
(0.115531 -0.00107254 -7.18395e-20)
(0.222195 0.00383963 1.33818e-19)
(0.352777 0.014196 -1.2595e-19)
(0.4989 0.0300995 1.13469e-19)
(0.650497 0.0504415 -5.46822e-20)
(0.797048 0.0731832 1.41895e-19)
(0.92928 0.0958992 -8.94633e-20)
(1.04061 0.116339 1.57564e-19)
(1.12788 0.132856 -3.6338e-19)
(1.19123 0.144614 1.33693e-19)
(1.23332 0.151558 -1.1629e-19)
(1.25831 0.154219 1.09232e-19)
(1.27074 0.153443 9.4341e-20)
(1.27475 0.150142 8.29353e-20)
(1.2736 0.145123 -2.31164e-19)
(1.26957 0.139005 1.43493e-19)
(1.2641 0.132218 -6.45439e-20)
(1.25798 0.125046 1.69315e-19)
(1.25161 0.117665 -5.46841e-20)
(1.24514 0.110173 -1.34164e-19)
(1.23864 0.102998 1.24033e-19)
(1.23231 0.0943609 3.80255e-20)
(0.00949363 -0.000753053 0)
(0.0712942 -0.00623997 8.22643e-22)
(0.172618 -0.00343495 1.51299e-19)
(0.30479 0.00716839 -1.41766e-19)
(0.457764 0.0250309 -1.27462e-19)
(0.619551 0.048814 2.36681e-19)
(0.777318 0.0759275 -1.09813e-19)
(0.919629 0.103187 1.45612e-19)
(1.03846 0.127664 -3.389e-21)
(1.13018 0.147306 -8.23591e-20)
(1.19524 0.161173 1.78539e-19)
(1.23711 0.169345 -2.63726e-19)
(1.26081 0.172598 0)
(1.27158 0.172033 -5.1685e-20)
(1.27397 0.168761 -1.37778e-19)
(1.27145 0.16371 4.33845e-20)
(1.26633 0.157563 1.65353e-21)
(1.26004 0.150773 -9.55149e-20)
(1.25333 0.143623 5.70603e-21)
(1.24655 0.136285 1.10646e-19)
(1.23984 0.128867 -4.96796e-20)
(1.23322 0.121451 -1.89907e-20)
(1.22665 0.114189 5.81686e-20)
(1.22021 0.106129 0)
(0.021807 -0.00297679 0)
(0.110299 -0.00872623 4.11199e-20)
(0.239106 -0.00113565 -1.98344e-19)
(0.396305 0.0172323 7.19859e-20)
(0.567902 0.0438467 -6.7749e-20)
(0.738541 0.0754694 -6.19284e-20)
(0.893997 0.10799 -1.08857e-19)
(1.02401 0.137507 5.46259e-20)
(1.12376 0.161283 4.70997e-20)
(1.19362 0.178102 0)
(1.23767 0.1881 1.06586e-19)
(1.26177 0.192298 -1.5865e-19)
(1.27196 0.192088 1.17854e-19)
(1.27335 0.188829 5.17129e-20)
(1.26976 0.183626 -4.24387e-20)
(1.26367 0.177268 -3.53978e-20)
(1.25656 0.170261 -3.30779e-20)
(1.2492 0.162912 9.90112e-20)
(1.24192 0.155395 0)
(1.23486 0.147816 4.99151e-20)
(1.22804 0.140245 4.21713e-20)
(1.22139 0.132743 -1.0457e-19)
(1.21487 0.125321 -7.19997e-20)
(1.20843 0.117639 6.63942e-20)
(0.0371048 -0.00416456 -4.49076e-20)
(0.156012 -0.00760762 -1.92572e-21)
(0.31326 0.00728869 4.04805e-20)
(0.493141 0.0351868 1.13322e-19)
(0.677731 0.0709606 3.28808e-20)
(0.8495 0.109311 -6.36239e-20)
(0.994951 0.145025 5.79048e-20)
(1.10709 0.174258 -5.04788e-20)
(1.18551 0.195197 9.04365e-20)
(1.23457 0.207878 3.82398e-20)
(1.26099 0.213543 -1.08886e-19)
(1.27174 0.213923 3.18939e-20)
(1.27276 0.210707 5.43443e-20)
(1.26837 0.205254 -2.67541e-20)
(1.26139 0.198514 0)
(1.25344 0.191089 3.96958e-20)
(1.24534 0.183326 6.70969e-20)
(1.23747 0.175419 1.14253e-20)
(1.22994 0.167476 -5.59213e-20)
(1.22277 0.159565 2.33489e-20)
(1.21592 0.151734 0)
(1.2093 0.144014 -1.83577e-20)
(1.20284 0.136373 -1.75373e-20)
(1.19646 0.128876 0)
(0.0552605 -0.00380569 0)
(0.207378 -0.00176095 2.35867e-20)
(0.392471 0.0229547 4.3647e-20)
(0.590934 0.0615303 -1.15968e-19)
(0.781794 0.105887 3.76072e-20)
(0.947362 0.148974 0)
(1.07714 0.185303 5.59991e-20)
(1.16882 0.21195 -7.81895e-20)
(1.22652 0.228546 -4.52618e-20)
(1.25771 0.236461 2.03334e-20)
(1.27052 0.237823 -3.25111e-20)
(1.27193 0.234755 7.89446e-20)
(1.26709 0.228975 3.92636e-20)
(1.25931 0.221682 -2.74064e-20)
(1.25049 0.21362 -2.67571e-21)
(1.2416 0.205214 -7.43125e-20)
(1.23304 0.196689 3.38018e-20)
(1.22495 0.188165 -8.9731e-22)
(1.21735 0.17971 0)
(1.21019 0.171369 -2.33735e-20)
(1.2034 0.163174 0)
(1.19689 0.155125 5.27744e-20)
(1.19056 0.147222 -6.2729e-20)
(1.18429 0.139727 2.85869e-20)
(0.0758932 -0.00139957 -1.24281e-20)
(0.262729 0.00975008 -5.96609e-20)
(0.473451 0.0465108 6.80046e-20)
(0.685103 0.0960768 3.98216e-20)
(0.875409 0.147522 -1.89926e-20)
(1.02889 0.19285 3.18192e-20)
(1.13982 0.227314 -1.54487e-20)
(1.211 0.249606 2.55565e-20)
(1.25037 0.260995 0)
(1.26731 0.264012 5.7487e-20)
(1.27023 0.261346 -2.50256e-21)
(1.26544 0.255223 -4.61586e-20)
(1.25704 0.247212 1.96623e-20)
(1.24737 0.238285 -2.20762e-20)
(1.23762 0.228986 -8.30543e-21)
(1.22829 0.219597 9.70245e-21)
(1.21956 0.210257 -7.4193e-21)
(1.21145 0.201041 -4.02391e-20)
(1.20391 0.19199 2.4632e-20)
(1.19686 0.183137 5.00865e-21)
(1.19021 0.174492 4.40053e-21)
(1.18387 0.166039 3.86855e-21)
(1.17772 0.157846 0)
(1.17161 0.150166 0)
(0.0984279 0.0035094 1.24366e-20)
(0.320012 0.027591 -1.24182e-20)
(0.55271 0.078068 -2.26864e-20)
(0.771531 0.138026 0)
(0.955217 0.19439 -9.4485e-21)
(1.09265 0.239373 -8.52449e-21)
(1.18376 0.269906 -1.44996e-20)
(1.23609 0.286679 0)
(1.26026 0.292513 0)
(1.26644 0.290785 0)
(1.26255 0.284432 0)
(1.25385 0.275574 0)
(1.24341 0.265538 -1.23414e-20)
(1.23279 0.255064 5.61394e-21)
(1.22265 0.244526 9.70362e-21)
(1.21322 0.234101 4.53304e-21)
(1.20454 0.223872 1.1144e-20)
(1.19656 0.213881 0)
(1.1892 0.204155 -2.64277e-21)
(1.18239 0.194711 -2.53546e-21)
(1.176 0.185541 -4.40756e-21)
(1.16993 0.176635 -3.87475e-21)
(1.16406 0.168127 0)
(1.15823 0.160102 2.74646e-21)
(-0.00156723 -0.00470125 8.67602e-21)
(-0.0081698 7.0706e-05 -9.00356e-21)
(-0.0199904 0.0134887 -1.70359e-20)
(-0.0343585 0.0315105 0)
(-0.0498796 0.0513106 -2.28315e-20)
(-0.0658775 0.0712814 7.2259e-21)
(-0.0818595 0.0908084 -1.34345e-20)
(-0.0974289 0.109942 0)
(-0.112263 0.129066 0)
(-0.126087 0.148628 0)
(-0.138662 0.168968 0)
(-0.149768 0.190236 0)
(-0.159194 0.212386 1.74575e-22)
(-0.166727 0.235184 -8.88083e-21)
(-0.172145 0.258237 1.64095e-20)
(-0.175212 0.281004 2.33102e-20)
(-0.175687 0.30281 7.17746e-21)
(-0.173325 0.322855 0)
(-0.167902 0.340235 6.59112e-21)
(-0.159234 0.353988 -1.85339e-20)
(-0.147185 0.363155 -1.17514e-20)
(-0.131622 0.366839 -1.12195e-20)
(-0.112483 0.364263 0)
(-0.0902736 0.355123 0)
(-0.00139169 -6.06647e-05 -2.58901e-20)
(-0.00763451 0.0105815 4.47526e-20)
(-0.0184218 0.0277009 -1.65888e-20)
(-0.0313498 0.0480583 -3.17513e-20)
(-0.0451202 0.0692798 4.50391e-20)
(-0.0590775 0.0899931 -2.81315e-20)
(-0.0727528 0.109696 3.98893e-20)
(-0.0857661 0.128487 2.45421e-20)
(-0.0977921 0.146778 0)
(-0.108533 0.165042 -2.2262e-20)
(-0.117707 0.183646 2.42677e-23)
(-0.125042 0.202762 1.96847e-20)
(-0.130274 0.222353 2.71579e-20)
(-0.133139 0.242188 3.42323e-20)
(-0.133375 0.261865 -1.62996e-20)
(-0.130717 0.280838 -4.56953e-20)
(-0.124905 0.298435 1.42085e-20)
(-0.115696 0.31388 -5.37596e-20)
(-0.10288 0.326324 0)
(-0.086298 0.334875 1.23258e-20)
(-0.0658648 0.338674 1.1731e-20)
(-0.0415466 0.336979 1.11996e-20)
(-0.0131829 0.32931 0)
(0.0190193 0.315937 0)
(-0.00158259 0.00343587 0)
(-0.00779274 0.0184765 8.72743e-20)
(-0.0175003 0.0383612 -3.2963e-20)
(-0.0286774 0.0604458 3.13199e-20)
(-0.0401706 0.082705 -8.74509e-20)
(-0.0513662 0.103931 0)
(-0.0618366 0.123669 -5.15007e-20)
(-0.0712405 0.142007 2.39225e-20)
(-0.0792756 0.159336 -4.4787e-20)
(-0.085648 0.176123 2.03618e-20)
(-0.0900611 0.19275 1.19056e-19)
(-0.0922162 0.209418 -5.58927e-20)
(-0.0918167 0.226124 -8.81765e-20)
(-0.0885754 0.242671 -3.26274e-20)
(-0.0822146 0.258685 -2.42035e-22)
(-0.0724723 0.273652 1.17517e-19)
(-0.0591132 0.286948 -5.53528e-20)
(-0.0419256 0.297858 6.69502e-22)
(-0.0207634 0.305613 0)
(0.00444224 0.309419 -4.77887e-20)
(0.0336809 0.308517 0)
(0.0668392 0.302256 -4.65273e-20)
(0.104097 0.290282 1.73875e-19)
(0.146263 0.272971 3.21329e-21)
(-0.00198377 0.00570571 0)
(-0.00843902 0.0235246 -4.91801e-22)
(-0.0172258 0.0450718 3.21951e-20)
(-0.0266596 0.0680941 -3.01589e-20)
(-0.0357189 0.0908251 2.91014e-20)
(-0.0438289 0.112172 1.60775e-19)
(-0.0506074 0.131684 -5.04825e-20)
(-0.0557672 0.149397 -4.66598e-20)
(-0.059056 0.165638 8.8387e-20)
(-0.0602185 0.180833 -1.24459e-19)
(-0.0589844 0.195354 3.82788e-20)
(-0.0550694 0.209428 3.57434e-20)
(-0.0481774 0.2231 0)
(-0.0380316 0.236226 3.24823e-20)
(-0.0243776 0.248496 0)
(-0.00698036 0.259469 5.60234e-20)
(0.0143495 0.2686 -1.08675e-19)
(0.039748 0.275275 2.43162e-20)
(0.069282 0.278827 9.73774e-20)
(0.102936 0.278593 4.77289e-20)
(0.140607 0.273935 0)
(0.182098 0.264276 -1.34575e-19)
(0.226905 0.24934 4.19416e-20)
(0.279265 0.228903 0)
(-0.00247417 0.00689876 0)
(-0.00941035 0.0259624 -1.01975e-19)
(-0.0176076 0.0479915 -3.17633e-20)
(-0.0255871 0.0709927 -5.99343e-20)
(-0.032402 0.0934151 5.6433e-20)
(-0.0374975 0.114267 -5.32401e-20)
(-0.0405295 0.133094 9.83768e-20)
(-0.0412695 0.149864 4.60518e-20)
(-0.0395358 0.164814 -1.30057e-19)
(-0.0351426 0.178299 8.02851e-20)
(-0.0278846 0.190658 -1.13408e-19)
(-0.0175353 0.202123 2.44808e-19)
(-0.00385702 0.212777 -1.32069e-19)
(0.0133806 0.222537 6.09683e-20)
(0.0343847 0.231179 1.74377e-19)
(0.0593289 0.238354 -5.50309e-20)
(0.0883375 0.243622 -5.00891e-20)
(0.121475 0.246479 -4.98561e-20)
(0.158739 0.246387 0)
(0.200059 0.242808 -9.33774e-20)
(0.245226 0.235232 -9.33454e-20)
(0.294524 0.223108 1.27309e-19)
(0.34525 0.206372 1.72491e-19)
(0.408486 0.18345 -1.60694e-19)
(-0.00301497 0.00733816 0)
(-0.0106588 0.0263974 -1.33767e-19)
(-0.0187014 0.047763 6.72609e-22)
(-0.0256894 0.0696813 1.18681e-19)
(-0.0306832 0.0908309 0)
(-0.0331275 0.110347 0)
(-0.032708 0.127797 0)
(-0.029251 0.143093 -4.52038e-20)
(-0.0226489 0.156388 7.08015e-22)
(-0.0128043 0.167954 7.88226e-20)
(0.000396373 0.178073 -1.10804e-19)
(0.0170891 0.186961 3.60254e-22)
(0.0374258 0.194722 0)
(0.0615601 0.201329 -6.09374e-20)
(0.0896319 0.206639 5.58646e-20)
(0.121755 0.210399 -1.58793e-19)
(0.158006 0.212276 2.03229e-19)
(0.19842 0.211879 5.02605e-20)
(0.242988 0.208783 4.35761e-21)
(0.291729 0.20256 -1.7593e-19)
(0.344112 0.192769 -8.48912e-20)
(0.401992 0.178951 2.95464e-19)
(0.458211 0.161371 -1.98906e-19)
(0.535203 0.136509 0)
(-0.00366501 0.00743316 6.42938e-20)
(-0.0122656 0.0256532 6.67545e-20)
(-0.020585 0.0453688 -6.22203e-20)
(-0.0270487 0.0651607 -1.16751e-19)
(-0.0306773 0.0840039 1.09927e-19)
(-0.0309102 0.101215 -1.0176e-19)
(-0.0274548 0.11643 1.43034e-19)
(-0.0201836 0.129551 -4.4977e-20)
(-0.00905327 0.14067 8.28983e-20)
(0.00595451 0.149986 0)
(0.0248682 0.157723 6.98682e-20)
(0.0477411 0.164068 -1.31808e-19)
(0.0746523 0.16913 1.24047e-19)
(0.105699 0.172925 -1.165e-19)
(0.14099 0.17537 0)
(0.180631 0.176297 1.03385e-19)
(0.224719 0.175465 1.96005e-19)
(0.273339 0.172577 -1.85384e-19)
(0.326523 0.167295 -8.8332e-20)
(0.384576 0.159311 -9.01314e-20)
(0.446268 0.148139 2.49283e-19)
(0.516182 0.133602 8.25661e-20)
(0.579477 0.115899 -7.45305e-20)
(0.675144 0.0905799 7.45105e-20)
(-0.00455446 0.00757384 -6.43027e-20)
(-0.0143786 0.0245634 1.97579e-19)
(-0.023258 0.0419064 -6.1944e-20)
(-0.0294429 0.0586994 1.15679e-19)
(-0.0319114 0.0743136 -1.08918e-19)
(-0.0301094 0.0883134 1.52281e-22)
(-0.0237608 0.100465 4.72211e-20)
(-0.0127621 0.11071 1.72142e-19)
(0.00290086 0.119126 -2.10848e-21)
(0.0232147 0.125868 -7.66988e-20)
(0.0481793 0.131118 0)
(0.0778289 0.135039 -6.36233e-20)
(0.112239 0.137738 1.21469e-19)
(0.151522 0.139255 1.13252e-19)
(0.195817 0.13955 -5.37021e-20)
(0.245275 0.13851 -1.23112e-21)
(0.300034 0.135958 -4.83044e-20)
(0.360208 0.131667 8.98869e-20)
(0.425697 0.125326 8.83246e-20)
(0.496939 0.116814 -8.50538e-20)
(0.571342 0.105341 7.99601e-20)
(0.656182 0.0916221 -7.71291e-20)
(0.727935 0.0744688 0)
(0.842132 0.0520277 -7.4488e-20)
(-0.00582007 0.0080275 6.3799e-20)
(-0.017077 0.0237607 -6.58575e-20)
(-0.0264706 0.038335 6.17119e-20)
(-0.0321456 0.0515743 0)
(-0.033077 0.0633451 0)
(-0.0287362 0.0735241 9.8975e-20)
(-0.0188475 0.082065 -9.36941e-20)
(-0.00328565 0.0890051 8.44408e-20)
(0.0180007 0.0944528 -3.99057e-19)
(0.0450473 0.0985622 8.56316e-22)
(0.0779096 0.101501 6.82369e-20)
(0.116677 0.103418 0)
(0.161468 0.10442 -1.18433e-19)
(0.21241 0.104551 2.22206e-19)
(0.269602 0.103787 -1.56864e-19)
(0.333068 0.102034 -2.47423e-19)
(0.402708 0.099132 -2.41967e-21)
(0.478263 0.0948872 1.7491e-19)
(0.559061 0.0889767 0)
(0.644955 0.0814671 0)
(0.73215 0.0712066 -7.99615e-20)
(0.827649 0.0601226 7.71297e-20)
(0.905194 0.0444035 -2.95694e-19)
(1.02333 0.0280444 2.76945e-19)
(-0.00751597 0.00885834 0)
(-0.0202094 0.0235092 0)
(-0.0295559 0.0352501 -1.84753e-19)
(-0.03378 0.0447873 5.88454e-20)
(-0.0319236 0.0525529 1.25548e-21)
(-0.0234873 0.0587856 1.00471e-19)
(-0.00816623 0.0636708 0)
(0.0142406 0.0673848 -8.57168e-20)
(0.0438823 0.0701109 7.95859e-20)
(0.0808868 0.0720364 -1.45309e-19)
(0.125366 0.0733377 7.00265e-22)
(0.177393 0.0741587 1.25618e-19)
(0.236964 0.0745904 -7.75013e-22)
(0.303939 0.0746557 1.09557e-19)
(0.377981 0.0743006 -1.54735e-19)
(0.458504 0.0733942 0)
(0.544618 0.0717379 1.8555e-19)
(0.635129 0.0690873 -2.62488e-19)
(0.728403 0.0651115 8.2935e-20)
(0.822983 0.0597632 0)
(0.915149 0.0520173 7.5405e-20)
(1.00784 0.0438548 2.96493e-19)
(1.08231 0.0302493 -2.7825e-19)
(1.17967 0.0197084 -3.3187e-19)
(-0.0095316 0.00990306 1.92133e-19)
(-0.0232746 0.0236368 -2.64198e-19)
(-0.0313782 0.0327406 7.99699e-22)
(-0.0323883 0.0388347 5.85518e-20)
(-0.0254956 0.0429304 -1.08329e-19)
(-0.0102361 0.0456452 -1.00073e-19)
(0.0137353 0.0474197 1.84006e-19)
(0.0466921 0.0485936 -3.1788e-21)
(0.0888298 0.0494477 -1.59969e-19)
(0.140237 0.0502172 2.92567e-19)
(0.200843 0.051086 -1.99999e-21)
(0.270346 0.0521711 -1.2684e-19)
(0.34815 0.0535058 0)
(0.433303 0.0550273 0)
(0.524475 0.0565728 -5.14996e-20)
(0.61996 0.057884 -9.6708e-20)
(0.71772 0.0586333 -1.83741e-19)
(0.815452 0.0584128 1.72464e-19)
(0.910703 0.0568945 -8.2972e-20)
(1.00103 0.0535689 1.56994e-19)
(1.08376 0.0483044 -7.38081e-20)
(1.15817 0.0411744 1.42807e-19)
(1.21691 0.0299601 -3.29619e-19)
(1.27697 0.0213865 6.47088e-20)
(-0.011565 0.0108247 6.4598e-20)
(-0.025421 0.0236045 0)
(-0.0304365 0.0304068 1.24826e-19)
(-0.0257188 0.0336369 -1.17592e-19)
(-0.0106977 0.0348205 1.08428e-19)
(0.0150088 0.0349368 0)
(0.0517079 0.0346685 0)
(0.0995842 0.0345121 -8.53175e-20)
(0.158613 0.034834 2.64361e-21)
(0.228449 0.0358888 7.53654e-20)
(0.308332 0.0378191 -6.78329e-20)
(0.397009 0.0406435 1.2777e-19)
(0.49272 0.0442461 0)
(0.593228 0.0483759 2.19973e-19)
(0.695922 0.0526602 -4.12559e-19)
(0.79795 0.0566294 2.90191e-19)
(0.896395 0.0597717 1.81751e-19)
(0.988449 0.0615207 -1.70607e-19)
(1.07163 0.0615328 0)
(1.14386 0.0590076 0)
(1.20384 0.0547429 0)
(1.25093 0.0463195 0)
(1.2849 0.0376945 6.44283e-20)
(1.31052 0.0250088 -2.32963e-19)
(-0.0623557 0.337562 -7.47572e-21)
(-0.0256145 0.302821 7.52211e-21)
(0.0158245 0.251777 -2.47222e-22)
(0.061565 0.184883 0)
(0.1105 0.102926 -7.60662e-21)
(0.160991 0.00784731 1.47559e-20)
(0.212306 -0.0978404 -1.84719e-22)
(0.263781 -0.209807 -6.77671e-21)
(0.314279 -0.321886 0)
(0.362585 -0.425459 0)
(0.406587 -0.511044 -2.90089e-22)
(0.443436 -0.571094 -2.3797e-22)
(0.470571 -0.602861 -2.96067e-21)
(0.486006 -0.610023 2.6914e-21)
(0.48684 -0.603132 0)
(0.469851 -0.595321 0)
(0.437847 -0.590218 1.72826e-21)
(0.404918 -0.571978 1.25097e-22)
(0.391601 -0.511751 -1.64714e-21)
(0.411066 -0.389755 -1.17134e-22)
(0.460372 -0.211784 0)
(0.526723 -0.00614016 0)
(0.597249 0.190157 0)
(0.661739 0.344179 0)
(0.71293 0.442043 0)
(0.746946 0.489565 0)
(0.766021 0.50113 2.98483e-22)
(0.77415 0.494078 -4.80868e-22)
(0.768318 0.491675 0)
(0.742134 0.507198 0)
(0.701719 0.517809 -4.35077e-22)
(0.668861 0.471973 4.22859e-22)
(0.66466 0.333491 2.862e-22)
(0.689641 0.126053 0)
(0.733268 -0.0923784 0)
(0.776577 -0.261383 4.23483e-22)
(0.813063 -0.363304 -4.11636e-22)
(0.837392 -0.403421 0)
(0.846624 -0.419231 2.17911e-22)
(0.828123 -0.435327 -3.10032e-22)
(0.784226 -0.441895 9.30976e-23)
(0.735278 -0.405015 0)
(0.712447 -0.277555 -2.48515e-22)
(0.719476 -0.106214 2.41655e-22)
(0.757618 0.0881399 0)
(0.798761 0.214078 0)
(0.830596 0.309367 -7.23531e-23)
(0.822616 0.365298 1.99797e-22)
(0.789283 0.3867 0)
(0.753307 0.366266 0)
(0.754914 0.209764 -6.26193e-23)
(0.775653 0.0855573 -8.42957e-24)
(0.81913 -0.113387 -5.85819e-24)
(0.819123 -0.215199 4.52094e-23)
(0.81123 -0.312355 0)
(0.792934 -0.381215 0)
(0.798335 -0.226611 0)
(0.792692 -0.198075 0)
(0.804725 0.0936223 0)
(0.78523 0.222492 0)
(0.0566803 0.295642 -7.43657e-22)
(0.0998457 0.257966 -3.29576e-20)
(0.1461 0.204537 -9.29119e-22)
(0.195311 0.136053 3.17909e-20)
(0.2461 0.0535056 5.19987e-22)
(0.297043 -0.0413752 0)
(0.347486 -0.146153 -2.95968e-20)
(0.396773 -0.257077 5.69653e-20)
(0.443833 -0.367542 -2.73583e-20)
(0.486726 -0.468098 2.12596e-20)
(0.52249 -0.548257 -2.03733e-20)
(0.548059 -0.600221 1.40285e-20)
(0.561644 -0.622 -1.3693e-20)
(0.56333 -0.617672 -3.10971e-22)
(0.553173 -0.597084 -7.57078e-21)
(0.528493 -0.574773 7.35808e-21)
(0.487523 -0.560869 -6.18088e-21)
(0.438101 -0.547019 5.83292e-21)
(0.399425 -0.505085 -6.79565e-21)
(0.391028 -0.406722 1.38629e-20)
(0.418614 -0.247731 -7.04091e-21)
(0.473167 -0.0523187 -4.26436e-22)
(0.54076 0.142423 -6.54748e-21)
(0.608788 0.302579 1.18346e-20)
(0.667613 0.411339 -5.31755e-21)
(0.711631 0.470307 2.28106e-22)
(0.741615 0.491114 3.18599e-21)
(0.759148 0.492323 -2.80334e-23)
(0.759633 0.49923 -5.71287e-21)
(0.738563 0.522758 6.04174e-21)
(0.705706 0.534764 -3.11642e-21)
(0.683349 0.48179 5.23563e-22)
(0.689338 0.331719 -2.86788e-22)
(0.721042 0.114073 6.63244e-22)
(0.767246 -0.10951 0)
(0.808098 -0.277691 0)
(0.838211 -0.375221 -1.38329e-21)
(0.854083 -0.409428 1.04717e-21)
(0.857081 -0.41706 6.29914e-22)
(0.835115 -0.423965 1.72486e-23)
(0.788173 -0.425399 -8.27646e-22)
(0.734439 -0.392018 1.79828e-22)
(0.705178 -0.274647 0)
(0.709801 -0.114246 0)
(0.747538 0.0744021 0)
(0.79185 0.201839 0)
(0.824465 0.30522 2.79557e-22)
(0.818183 0.370404 -1.29556e-22)
(0.786616 0.395614 0)
(0.752549 0.371408 0)
(0.757632 0.207328 0)
(0.77858 0.0780145 -1.31088e-22)
(0.826278 -0.118297 2.35114e-25)
(0.825999 -0.214641 -9.52238e-23)
(0.818057 -0.309188 0)
(0.79823 -0.379698 0)
(0.800319 -0.226899 4.11351e-23)
(0.793632 -0.198369 1.01126e-22)
(0.801076 0.094728 0)
(0.782714 0.223829 0)
(0.1887 0.250931 3.90512e-21)
(0.235479 0.21216 -6.52359e-20)
(0.283882 0.158784 7.02331e-20)
(0.334327 0.0913338 -6.56595e-20)
(0.385615 0.0106299 -5.23446e-22)
(0.436329 -0.0817785 0)
(0.485648 -0.184141 -6.35346e-20)
(0.53293 -0.292562 6.22264e-20)
(0.576594 -0.400056 4.16964e-22)
(0.613688 -0.496468 7.46143e-22)
(0.640484 -0.570653 6.26221e-22)
(0.654071 -0.61485 4.99079e-22)
(0.653689 -0.628153 -2.31209e-20)
(0.640949 -0.615788 2.27841e-20)
(0.618622 -0.586446 0)
(0.586619 -0.552701 3.90472e-22)
(0.540988 -0.528008 -1.08785e-20)
(0.482493 -0.513013 1.07471e-20)
(0.424995 -0.485586 0)
(0.390629 -0.412715 0)
(0.393904 -0.278352 -1.27481e-20)
(0.432413 -0.0984687 2.50635e-20)
(0.493332 0.0908589 -2.30064e-20)
(0.561959 0.255106 1.62819e-21)
(0.626265 0.374015 1.67529e-20)
(0.679139 0.444618 -1.4302e-20)
(0.719383 0.475752 1.1758e-20)
(0.745874 0.48668 -3.39514e-22)
(0.752894 0.503616 -5.45673e-21)
(0.737985 0.534969 0)
(0.713721 0.548384 0)
(0.701967 0.489706 3.72301e-21)
(0.717888 0.330444 -4.6645e-21)
(0.755824 0.104889 3.60438e-23)
(0.803727 -0.122464 4.77402e-21)
(0.841717 -0.289479 -4.63916e-21)
(0.865295 -0.383049 0)
(0.872603 -0.412527 2.98618e-22)
(0.869216 -0.413356 1.92284e-21)
(0.844194 -0.41192 -3.43161e-21)
(0.795142 -0.408364 1.38445e-21)
(0.737491 -0.378677 1.36905e-22)
(0.702023 -0.272043 -1.87538e-21)
(0.703937 -0.123503 1.48759e-21)
(0.74054 0.0590884 3.27499e-22)
(0.787258 0.188349 2.87645e-22)
(0.82026 0.30014 -2.80277e-22)
(0.815777 0.374858 0)
(0.786348 0.404037 0)
(0.754435 0.376596 -1.18717e-21)
(0.762894 0.205296 5.82298e-22)
(0.783617 0.070771 -6.1696e-22)
(0.83508 -0.12303 7.96125e-22)
(0.834433 -0.213823 8.02329e-22)
(0.826076 -0.305461 -1.75522e-22)
(0.804256 -0.377888 2.36227e-22)
(0.803182 -0.226901 -1.67026e-22)
(0.79566 -0.198314 4.61461e-23)
(0.798598 0.09593 0)
(0.781226 0.22512 0)
(0.322377 0.206287 -1.3484e-19)
(0.370321 0.167486 -5.67511e-21)
(0.4194 0.115484 1.33822e-19)
(0.470126 0.0504474 -1.08576e-21)
(0.521543 -0.0265159 0)
(0.572163 -0.115282 0)
(0.62103 -0.214257 -1.29824e-19)
(0.66714 -0.319182 5.61061e-21)
(0.70788 -0.422608 1.68952e-19)
(0.739067 -0.513735 -6.84175e-21)
(0.756339 -0.581152 -4.45717e-20)
(0.757362 -0.617601 -2.87339e-20)
(0.742956 -0.623299 2.8917e-20)
(0.716263 -0.604899 0)
(0.681673 -0.57082 -1.40304e-20)
(0.642105 -0.530216 1.28697e-20)
(0.594559 -0.495291 0)
(0.534075 -0.473783 0)
(0.466051 -0.454028 8.70559e-21)
(0.410233 -0.404945 7.4599e-22)
(0.388257 -0.299777 -8.60678e-21)
(0.406759 -0.141797 -1.01039e-20)
(0.456698 0.0376021 9.99628e-21)
(0.522415 0.203171 -8.17814e-21)
(0.589677 0.330785 1.27035e-21)
(0.649867 0.412776 6.44564e-21)
(0.699287 0.454999 6.56972e-22)
(0.734061 0.476639 2.99904e-23)
(0.747762 0.503799 0)
(0.739798 0.542636 6.7949e-21)
(0.724703 0.557947 -7.056e-21)
(0.723507 0.495748 5.55545e-22)
(0.74893 0.330443 0)
(0.792683 0.0990512 -7.07489e-22)
(0.841965 -0.131185 1.00155e-20)
(0.876912 -0.297192 -1.65597e-20)
(0.89403 -0.387257 9.4412e-22)
(0.892855 -0.413012 1.39579e-21)
(0.882864 -0.408494 3.79245e-21)
(0.85498 -0.399688 3.65468e-22)
(0.804721 -0.391009 -2.43752e-21)
(0.744279 -0.36471 2.04985e-21)
(0.702993 -0.269267 5.12356e-23)
(0.701831 -0.133488 1.28271e-21)
(0.736507 0.0425169 -1.57577e-21)
(0.784849 0.173721 -1.84726e-21)
(0.81793 0.294035 5.50818e-22)
(0.815389 0.378482 1.0163e-21)
(0.788524 0.411842 -2.12912e-21)
(0.75906 0.381894 1.6996e-21)
(0.770818 0.20388 -6.36541e-22)
(0.790808 0.0638515 6.85052e-22)
(0.845419 -0.127587 6.45506e-22)
(0.844325 -0.212767 -1.26072e-21)
(0.835249 -0.301153 4.67258e-23)
(0.810951 -0.375719 -2.20994e-22)
(0.806838 -0.226635 0)
(0.798698 -0.197942 -7.22478e-23)
(0.797231 0.0972223 7.72841e-23)
(0.780742 0.226379 0)
(0.450753 0.161768 1.34056e-19)
(0.49866 0.1245 -2.69643e-19)
(0.547934 0.0749319 1.33365e-19)
(0.599705 0.013461 1.41332e-19)
(0.652027 -0.0589446 -2.78319e-19)
(0.702939 -0.143475 1.15301e-21)
(0.75194 -0.237871 1.33069e-19)
(0.797079 -0.337516 1.18701e-19)
(0.834354 -0.434639 -1.16234e-19)
(0.858569 -0.518308 0)
(0.865284 -0.57771 -7.47014e-20)
(0.853245 -0.606831 1.32185e-19)
(0.825223 -0.606855 -5.79274e-20)
(0.786144 -0.584904 0)
(0.740997 -0.549484 0)
(0.694002 -0.5072 3.75551e-22)
(0.64496 -0.466084 -1.69505e-20)
(0.587289 -0.436008 1.64688e-20)
(0.517716 -0.416071 0)
(0.448243 -0.384106 1.40583e-20)
(0.402725 -0.308716 -2.77332e-20)
(0.397988 -0.17844 2.87319e-20)
(0.432476 -0.0141204 -2.88433e-20)
(0.491369 0.148341 1.16169e-21)
(0.558652 0.282326 2.31608e-20)
(0.62407 0.374907 -1.07195e-20)
(0.681091 0.428564 -3.09143e-22)
(0.723237 0.461493 -4.64343e-21)
(0.743633 0.498839 -8.07694e-22)
(0.743136 0.544941 5.45553e-21)
(0.737504 0.563148 4.59333e-22)
(0.74656 0.500073 -1.0277e-20)
(0.780972 0.331995 2.16486e-20)
(0.830297 0.0970186 -1.28252e-20)
(0.880913 -0.135455 0)
(0.912957 -0.300651 -9.35923e-21)
(0.923855 -0.3877 8.84349e-21)
(0.914504 -0.410739 -3.77084e-21)
(0.897839 -0.402425 4.73204e-21)
(0.867243 -0.387504 -3.33525e-22)
(0.81654 -0.373798 0)
(0.754486 -0.350332 -2.41826e-22)
(0.707941 -0.266136 7.99421e-22)
(0.703299 -0.143849 0)
(0.735196 0.0249738 2.48094e-21)
(0.784403 0.158003 -1.00458e-21)
(0.817359 0.286738 4.74858e-22)
(0.816931 0.381041 4.55196e-22)
(0.793103 0.418882 0)
(0.766411 0.387311 0)
(0.781353 0.203239 -2.1265e-21)
(0.800145 0.0574309 3.42011e-21)
(0.8572 -0.131901 -1.89101e-21)
(0.855561 -0.211446 5.54228e-22)
(0.845531 -0.296181 7.86591e-22)
(0.818252 -0.373124 2.21201e-22)
(0.811197 -0.226135 -2.28109e-22)
(0.80266 -0.197288 0)
(0.796905 0.0986014 -1.29305e-22)
(0.781229 0.227616 -1.71474e-23)
(0.576427 0.116925 1.31881e-19)
(0.623696 0.0824261 -1.31416e-19)
(0.673325 0.0357939 1.07666e-21)
(0.726386 -0.0205317 -1.04261e-21)
(0.779452 -0.0883105 1.08859e-21)
(0.830552 -0.167833 -1.06834e-21)
(0.879067 -0.256044 1.96158e-21)
(0.921679 -0.348228 0)
(0.953281 -0.436611 -1.66454e-21)
(0.968359 -0.510836 1.45742e-21)
(0.963247 -0.561461 1.23056e-21)
(0.93828 -0.584075 -1.03444e-21)
(0.89795 -0.580655 0)
(0.84864 -0.55784 0)
(0.795686 -0.5235 4.66897e-22)
(0.742871 -0.483048 0)
(0.691831 -0.440515 -2.60884e-22)
(0.638149 -0.403397 0)
(0.573824 -0.377659 -1.00078e-20)
(0.500496 -0.353456 1.93708e-20)
(0.437206 -0.303251 -1.91073e-20)
(0.408173 -0.204119 9.62833e-21)
(0.422207 -0.0616941 9.93417e-21)
(0.469622 0.0924344 -9.64799e-21)
(0.533869 0.229607 -8.42913e-21)
(0.601901 0.331324 8.15622e-21)
(0.6645 0.396336 0)
(0.712896 0.440809 2.25662e-22)
(0.739809 0.488138 0)
(0.747015 0.541446 0)
(0.750782 0.563779 1.56475e-20)
(0.769582 0.502765 -1.6027e-20)
(0.812256 0.335036 1.36929e-21)
(0.867196 0.0987898 1.51336e-21)
(0.919635 -0.13524 -1.42536e-21)
(0.949162 -0.299964 -8.40286e-21)
(0.954245 -0.384571 8.15842e-21)
(0.937208 -0.405812 -5.04013e-21)
(0.91389 -0.395209 4.27854e-21)
(0.88066 -0.375568 6.56723e-22)
(0.830103 -0.35702 -1.94966e-21)
(0.76759 -0.33565 -1.35128e-22)
(0.716492 -0.262392 1.29357e-21)
(0.708029 -0.15425 0)
(0.736312 0.00670309 -8.67146e-22)
(0.785643 0.141191 1.20463e-21)
(0.818363 0.27805 -1.59847e-21)
(0.820233 0.382278 -4.58111e-22)
(0.799936 0.424987 0)
(0.776354 0.392805 7.78716e-22)
(0.79441 0.203455 -1.42588e-21)
(0.811598 0.0518202 4.22022e-23)
(0.870246 -0.135872 -6.76986e-22)
(0.867994 -0.209851 8.54871e-22)
(0.856858 -0.290487 -8.0603e-22)
(0.826099 -0.370016 0)
(0.816169 -0.225434 2.28213e-22)
(0.807449 -0.196387 0)
(0.797538 0.100058 0)
(0.782649 0.228834 2.50874e-23)
(0.71332 0.0732794 -1.29118e-19)
(0.757008 0.0411952 1.27746e-19)
(0.805819 -0.00103052 -9.99736e-22)
(0.85825 -0.0518626 1.06741e-21)
(0.909126 -0.11467 0)