/*--------------------------------*- C++ -*----------------------------------*\
| =========                 |                                                 |
| \\      /  F ield         | OpenFOAM: The Open Source CFD Toolbox           |
|  \\    /   O peration     | Version:  2512                                  |
|   \\  /    A nd           | Website:  www.openfoam.com                      |
|    \\/     M anipulation  |                                                 |
\*---------------------------------------------------------------------------*/
FoamFile
{
    version     2.0;
    format      ascii;
    arch        "LSB;label=32;scalar=64";
    class       volScalarField;
    location    "125";
    object      p;
}
// * * * * * * * * * * * * * * * * * * * * * * * * * * * * * * * * * * * * * //

dimensions      [0 2 -2 0 0 0 0];

internalField   nonuniform List<scalar> 
13248
(
-0.332546
-0.331726
-0.330345
-0.328479
-0.326123
-0.323193
-0.319557
-0.315071
-0.309601
-0.303052
-0.295384
-0.286624
-0.276876
-0.266313
-0.255161
-0.24368
-0.232131
-0.220762
-0.209775
-0.199342
-0.189536
-0.180511
-0.172007
-0.164424
-0.340668
-0.338798
-0.336512
-0.333842
-0.33074
-0.327129
-0.322871
-0.317806
-0.311782
-0.304695
-0.296505
-0.287257
-0.277076
-0.266155
-0.254735
-0.243069
-0.231402
-0.219946
-0.208869
-0.198291
-0.188273
-0.178859
-0.169923
-0.161676
-0.349798
-0.3468
-0.343514
-0.33994
-0.335987
-0.331582
-0.326576
-0.320782
-0.314027
-0.306196
-0.297266
-0.287307
-0.276482
-0.265013
-0.253157
-0.241167
-0.229273
-0.21766
-0.206466
-0.195781
-0.185634
-0.176064
-0.166945
-0.158423
-0.360108
-0.355896
-0.351541
-0.346997
-0.342112
-0.336797
-0.330876
-0.324127
-0.316361
-0.307478
-0.297496
-0.286543
-0.274835
-0.262638
-0.250223
-0.237841
-0.225695
-0.213937
-0.202665
-0.191935
-0.181758
-0.17215
-0.162998
-0.154506
-0.371777
-0.366257
-0.360783
-0.355225
-0.349322
-0.342941
-0.335865
-0.327844
-0.318705
-0.30841
-0.297058
-0.284868
-0.27212
-0.259113
-0.246119
-0.233359
-0.220995
-0.20913
-0.197822
-0.187091
-0.176933
-0.167342
-0.158236
-0.149773
-0.384899
-0.377982
-0.371356
-0.364737
-0.357691
-0.35001
-0.341436
-0.331735
-0.320811
-0.308743
-0.295759
-0.282174
-0.26832
-0.2545
-0.240954
-0.227851
-0.215296
-0.203345
-0.192014
-0.181299
-0.17118
-0.161634
-0.152599
-0.144193
-0.399405
-0.391034
-0.383228
-0.375469
-0.367077
-0.357752
-0.347241
-0.335399
-0.322289
-0.308165
-0.293395
-0.278368
-0.26343
-0.248847
-0.2348
-0.221392
-0.20867
-0.196645
-0.185302
-0.174614
-0.164549
-0.155069
-0.146135
-0.137795
-0.415019
-0.405183
-0.396173
-0.387131
-0.377083
-0.365666
-0.352718
-0.338292
-0.322684
-0.306346
-0.289758
-0.273338
-0.257395
-0.242125
-0.227632
-0.213953
-0.201084
-0.188996
-0.17765
-0.167003
-0.157009
-0.147626
-0.13882
-0.130569
-0.431225
-0.419979
-0.409725
-0.399178
-0.38706
-0.373034
-0.357166
-0.339813
-0.321546
-0.302985
-0.284667
-0.266976
-0.250142
-0.234273
-0.219396
-0.205487
-0.192498
-0.180371
-0.169045
-0.158462
-0.148568
-0.139315
-0.130665
-0.122537
-0.447266
-0.434724
-0.423155
-0.41079
-0.396117
-0.378981
-0.359824
-0.339379
-0.31847
-0.297821
-0.277949
-0.259152
-0.24156
-0.225191
-0.209999
-0.195911
-0.182844
-0.170714
-0.159445
-0.148963
-0.139205
-0.130118
-0.121645
-0.113673
-0.462159
-0.448471
-0.435463
-0.420889
-0.403168
-0.382519
-0.359879
-0.336363
-0.312983
-0.290474
-0.269269
-0.249552
-0.231346
-0.214584
-0.199163
-0.184968
-0.171886
-0.159815
-0.14866
-0.138337
-0.128772
-0.119903
-0.111645
-0.103889
-0.474793
-0.460151
-0.445556
-0.428352
-0.407117
-0.382646
-0.35645
-0.329989
-0.304367
-0.280254
-0.257953
-0.237517
-0.218862
-0.201849
-0.186321
-0.172128
-0.159133
-0.147215
-0.136267
-0.126193
-0.116916
-0.108358
-0.100409
-0.0930115
-0.351712
-0.353809
-0.355004
-0.35581
-0.356718
-0.357902
-0.359416
-0.36126
-0.363402
-0.365788
-0.368353
-0.37102
-0.373691
-0.376248
-0.37855
-0.380432
-0.381706
-0.382186
-0.381325
-0.379331
-0.375892
-0.370854
-0.364267
-0.356531
-0.340702
-0.343367
-0.344798
-0.345587
-0.346272
-0.347009
-0.347831
-0.348726
-0.349642
-0.350514
-0.35126
-0.351792
-0.352009
-0.351801
-0.351044
-0.349605
-0.347327
-0.343998
-0.339865
-0.334575
-0.328119
-0.320482
-0.311948
-0.303698
-0.330852
-0.333916
-0.335503
-0.336248
-0.336704
-0.337003
-0.337161
-0.337144
-0.336891
-0.336319
-0.335339
-0.333853
-0.331763
-0.32897
-0.325377
-0.320892
-0.315436
-0.30899
-0.30159
-0.293261
-0.284095
-0.274148
-0.2637
-0.25447
-0.32259
-0.325886
-0.327552
-0.328233
-0.328473
-0.328376
-0.327934
-0.3271
-0.325799
-0.32394
-0.321428
-0.318165
-0.314061
-0.309036
-0.303024
-0.295984
-0.287912
-0.278855
-0.268902
-0.258205
-0.246987
-0.235428
-0.223639
-0.213015
-0.316198
-0.319572
-0.321245
-0.321845
-0.321885
-0.32144
-0.320478
-0.318938
-0.316738
-0.313781
-0.309973
-0.305223
-0.299457
-0.292618
-0.28468
-0.275654
-0.2656
-0.254628
-0.242906
-0.230669
-0.218233
-0.205909
-0.19382
-0.183282
-0.311834
-0.315146
-0.316756
-0.317253
-0.317104
-0.316352
-0.314946
-0.312812
-0.309862
-0.306
-0.301136
-0.295192
-0.288113
-0.279873
-0.270489
-0.26002
-0.248585
-0.236359
-0.223578
-0.210536
-0.197608
-0.185183
-0.173521
-0.163275
-0.30955
-0.312669
-0.314144
-0.314507
-0.314171
-0.313148
-0.311367
-0.308748
-0.305195
-0.300617
-0.29493
-0.288075
-0.280018
-0.270767
-0.260378
-0.248961
-0.236689
-0.223793
-0.210566
-0.197352
-0.18454
-0.172516
-0.161878
-0.151534
-0.309304
-0.312099
-0.313362
-0.313554
-0.313026
-0.31176
-0.309672
-0.306671
-0.30266
-0.297551
-0.291271
-0.283777
-0.275062
-0.265167
-0.254186
-0.242278
-0.229662
-0.216617
-0.203472
-0.19059
-0.178392
-0.167011
-0.157842
-0.147483
-0.310979
-0.313316
-0.314276
-0.314248
-0.313507
-0.312014
-0.309674
-0.306383
-0.302045
-0.296572
-0.289905
-0.282015
-0.272922
-0.262699
-0.25148
-0.239461
-0.226903
-0.214115
-0.201445
-0.18923
-0.177959
-0.167359
-0.159613
-0.149992
-0.314375
-0.316112
-0.316671
-0.316352
-0.315357
-0.313629
-0.311056
-0.30753
-0.302948
-0.297226
-0.290311
-0.282194
-0.272916
-0.262581
-0.251357
-0.239475
-0.22722
-0.214915
-0.202906
-0.191486
-0.181141
-0.171476
-0.164563
-0.156371
-0.319253
-0.320253
-0.32029
-0.319577
-0.318244
-0.316218
-0.313377
-0.309604
-0.304789
-0.298848
-0.291735
-0.283455
-0.274073
-0.263721
-0.252595
-0.240947
-0.229071
-0.217278
-0.205881
-0.19515
-0.185421
-0.176595
-0.169865
-0.163061
-0.325372
-0.325511
-0.324892
-0.323653
-0.321857
-0.319422
-0.316223
-0.312128
-0.307021
-0.300815
-0.293468
-0.285
-0.275496
-0.26511
-0.254056
-0.242593
-0.231004
-0.219569
-0.208543
-0.198156
-0.188568
-0.179953
-0.172666
-0.166383
-0.346114
-0.331512
-0.314949
-0.297549
-0.281104
-0.267596
-0.259014
-0.256861
-0.261616
-0.272265
-0.285935
-0.298493
-0.305201
-0.301553
-0.284329
-0.253735
-0.214518
-0.174352
-0.140029
-0.115107
-0.10011
-0.0938598
-0.0950671
-0.103913
-0.121211
-0.143952
-0.163018
-0.167737
-0.155253
-0.131583
-0.106189
-0.0860775
-0.0739019
-0.0688568
-0.0699835
-0.079007
-0.096409
-0.114775
-0.12219
-0.112824
-0.0934273
-0.074702
-0.0608924
-0.0529122
-0.0512691
-0.0562197
-0.0616338
-0.0606504
-0.0552091
-0.0488227
-0.0420925
-0.0387834
-0.0375031
-0.0371517
-0.0371512
-0.0349417
-0.0270421
-0.019872
-0.00994735
-0.00212493
-0.294904
-0.284518
-0.27378
-0.263855
-0.256422
-0.252708
-0.254249
-0.261869
-0.275146
-0.292351
-0.310362
-0.325057
-0.331991
-0.327177
-0.307416
-0.273112
-0.229544
-0.185012
-0.146676
-0.11807
-0.0995216
-0.0897817
-0.0874856
-0.0923846
-0.10519
-0.123886
-0.140934
-0.146851
-0.137748
-0.118573
-0.0973778
-0.0808611
-0.0717523
-0.0693098
-0.0729645
-0.0848009
-0.105031
-0.125421
-0.133234
-0.122309
-0.100205
-0.0784506
-0.0618563
-0.051632
-0.0476332
-0.0504072
-0.0541409
-0.0533322
-0.0492245
-0.0448033
-0.040431
-0.0390878
-0.0402796
-0.0412602
-0.0416494
-0.0390918
-0.0297284
-0.0215143
-0.00992061
-0.0015937
-0.247506
-0.241706
-0.236096
-0.232447
-0.233551
-0.237972
-0.24781
-0.263074
-0.282658
-0.304367
-0.325034
-0.340905
-0.348175
-0.342628
-0.321407
-0.284945
-0.2388
-0.191584
-0.1506
-0.119339
-0.0979558
-0.085137
-0.0794809
-0.0804974
-0.088758
-0.103197
-0.117941
-0.124682
-0.11891
-0.104168
-0.0871886
-0.0743545
-0.0684064
-0.0686334
-0.074835
-0.0893333
-0.112114
-0.134373
-0.142684
-0.130495
-0.10607
-0.0815869
-0.062414
-0.050142
-0.0440256
-0.0448335
-0.047003
-0.0462016
-0.0432874
-0.0406448
-0.0385813
-0.0392803
-0.0430834
-0.045417
-0.0460432
-0.0430624
-0.0322773
-0.0230693
-0.00990059
-0.0010973
-0.206833
-0.208094
-0.205711
-0.207097
-0.213141
-0.223963
-0.2398
-0.260141
-0.283611
-0.307907
-0.329977
-0.346419
-0.353815
-0.348126
-0.326436
-0.289288
-0.24235
-0.194215
-0.152069
-0.119234
-0.0957976
-0.0804624
-0.0718482
-0.0692657
-0.0731492
-0.0832363
-0.0952908
-0.102283
-0.0994576
-0.088888
-0.0759678
-0.0667403
-0.0638807
-0.0666799
-0.0752643
-0.0921292
-0.117202
-0.141254
-0.150194
-0.137154
-0.110881
-0.0840662
-0.0625963
-0.0485066
-0.0405455
-0.0396334
-0.0403727
-0.0394185
-0.0374911
-0.0364035
-0.0365598
-0.03934
-0.0458747
-0.0495799
-0.0502892
-0.0468054
-0.034656
-0.024519
-0.00988562
-0.000635525
-0.181116
-0.180055
-0.181508
-0.186773
-0.196579
-0.21117
-0.230336
-0.253302
-0.278595
-0.303971
-0.326517
-0.342971
-0.350423
-0.3448
-0.32337
-0.28687
-0.240879
-0.193595
-0.151705
-0.118273
-0.0934624
-0.0761526
-0.0650489
-0.0593657
-0.0592466
-0.0650175
-0.0740229
-0.0806202
-0.0801364
-0.0732303
-0.0640309
-0.0581692
-0.0581596
-0.063309
-0.0740012
-0.0928949
-0.119983
-0.145701
-0.155486
-0.142127
-0.11456
-0.0858845
-0.0624583
-0.0467964
-0.0372596
-0.0348791
-0.034351
-0.033113
-0.0319311
-0.0321373
-0.0343777
-0.0392399
-0.0486032
-0.0536914
-0.0543314
-0.0502699
-0.036832
-0.025846
-0.0098737
-0.00020806
-0.162864
-0.162595
-0.16531
-0.172199
-0.183717
-0.199836
-0.220102
-0.243657
-0.269106
-0.294415
-0.3171
-0.332811
-0.339749
-0.334194
-0.313595
-0.278853
-0.235317
-0.190412
-0.150023
-0.116886
-0.0913164
-0.0725082
-0.0593642
-0.0510827
-0.0475812
-0.0493161
-0.0550123
-0.0605381
-0.0616801
-0.0576494
-0.0517063
-0.048824
-0.0513134
-0.0585188
-0.0709966
-0.091513
-0.12026
-0.147495
-0.15841
-0.145329
-0.117055
-0.0870403
-0.0620428
-0.0450608
-0.0342051
-0.0306001
-0.0289926
-0.0273734
-0.0266979
-0.027902
-0.0320444
-0.038947
-0.0512031
-0.0576776
-0.0581155
-0.053411
-0.0387749
-0.0270314
-0.00985993
0.000186736
-0.152946
-0.153638
-0.156059
-0.162698
-0.174259
-0.190263
-0.209961
-0.232544
-0.256746
-0.280795
-0.30404
-0.317333
-0.323399
-0.317938
-0.298683
-0.266693
-0.226839
-0.185479
-0.147542
-0.115429
-0.0896399
-0.0697535
-0.0549689
-0.044546
-0.0382434
-0.0364534
-0.0388358
-0.0427273
-0.0448184
-0.0426037
-0.0394154
-0.0390092
-0.0435595
-0.0524588
-0.066316
-0.0879697
-0.117958
-0.146583
-0.158885
-0.146697
-0.118337
-0.0875292
-0.0613757
-0.0433316
-0.0313942
-0.0267827
-0.0242983
-0.022249
-0.0218652
-0.023752
-0.0295695
-0.0384241
-0.053599
-0.0614592
-0.0615915
-0.05619
-0.0404576
-0.0280594
-0.0098368
0.000552757
-0.150503
-0.151739
-0.152704
-0.157689
-0.167982
-0.182579
-0.200454
-0.220907
-0.242652
-0.263544
-0.280314
-0.296648
-0.302621
-0.297542
-0.280186
-0.251778
-0.216477
-0.179407
-0.144545
-0.113999
-0.0884638
-0.0678974
-0.0518512
-0.0397232
-0.0311776
-0.0264594
-0.025731
-0.0275686
-0.0292606
-0.028645
-0.0276459
-0.0291055
-0.0351946
-0.0453455
-0.0601463
-0.0824266
-0.113172
-0.14306
-0.156901
-0.146186
-0.11839
-0.0873557
-0.0604784
-0.0416319
-0.0288316
-0.0234029
-0.0202319
-0.017746
-0.0174911
-0.0197383
-0.0269667
-0.0376322
-0.0557159
-0.0649568
-0.0647083
-0.0585729
-0.0418594
-0.0289227
-0.00980246
0.000896253
-0.15378
-0.154707
-0.153603
-0.156333
-0.164379
-0.176438
-0.191524
-0.209027
-0.227829
-0.246891
-0.262218
-0.274488
-0.279227
-0.274652
-0.259682
-0.23544
-0.20515
-0.1727
-0.141218
-0.1126
-0.0877247
-0.0668712
-0.049929
-0.0365025
-0.0262217
-0.0191801
-0.0157011
-0.0152998
-0.0161408
-0.0163484
-0.0168063
-0.0194889
-0.026557
-0.0374665
-0.0526835
-0.0750623
-0.1062
-0.137124
-0.152585
-0.143866
-0.117303
-0.0866222
-0.0594646
-0.0400536
-0.0265571
-0.0204557
-0.0167742
-0.0138497
-0.013601
-0.0159096
-0.0242476
-0.0365313
-0.0574876
-0.0680824
-0.0674191
-0.0605354
-0.0429691
-0.0296204
-0.00976869
0.00122293
-0.159356
-0.158966
-0.15627
-0.157041
-0.162302
-0.171027
-0.182703
-0.196678
-0.211842
-0.227217
-0.241413
-0.250956
-0.254835
-0.2512
-0.239101
-0.219332
-0.19414
-0.16632
-0.138317
-0.11186
-0.0879745
-0.0671787
-0.0496332
-0.0351906
-0.0235336
-0.0146357
-0.00880117
-0.00612298
-0.00569491
-0.00609997
-0.00715247
-0.0104531
-0.0179512
-0.0291367
-0.0443919
-0.0664567
-0.0973735
-0.129013
-0.146172
-0.139962
-0.115281
-0.0855482
-0.0585499
-0.0387812
-0.024661
-0.0179256
-0.0139009
-0.0105873
-0.00982561
-0.0122908
-0.0214396
-0.0351047
-0.0588303
-0.0707319
-0.0696844
-0.0620605
-0.0437783
-0.0301399
-0.0097404
0.00153672
-0.16372
-0.161521
-0.158506
-0.158024
-0.160432
-0.165739
-0.173978
-0.184513
-0.1966
-0.208915
-0.219243
-0.227183
-0.230865
-0.228639
-0.219732
-0.204508
-0.184324
-0.161056
-0.136565
-0.112408
-0.0897086
-0.0691881
-0.0512278
-0.0359273
-0.0231257
-0.0127332
-0.00491683
-2.00357e-05
0.00201747
0.00222545
0.00106889
-0.00233526
-0.00969368
-0.020558
-0.0352191
-0.0565411
-0.0873811
-0.119602
-0.137817
-0.134435
-0.11209
-0.0838816
-0.057476
-0.03765
-0.0230221
-0.0156586
-0.011368
-0.00790453
-0.00716288
-0.00898371
-0.0185111
-0.0332819
-0.0597311
-0.0728116
-0.0714396
-0.0630939
-0.0442382
-0.0304379
-0.00966293
0.00185551
-0.164467
-0.162036
-0.159522
-0.158003
-0.158188
-0.160723
-0.165615
-0.172471
-0.181064
-0.18949
-0.197725
-0.203494
-0.206429
-0.205166
-0.198865
-0.18746
-0.171579
-0.152365
-0.131201
-0.109459
-0.0882922
-0.0685616
-0.0507938
-0.0352378
-0.0219164
-0.0107886
-0.00177612
0.00487251
0.00851276
0.0093748
0.00805968
0.00466553
-0.00230294
-0.0125909
-0.0264807
-0.0465946
-0.0762853
-0.1081
-0.12733
-0.125857
-0.106516
-0.080158
-0.0547525
-0.0354595
-0.0208607
-0.0132581
-0.0086999
-0.00523665
-0.00476264
-0.00596308
-0.0156785
-0.0311656
-0.0600039
-0.0742522
-0.0726616
-0.0635926
-0.0442443
-0.0304667
-0.00942285
0.00222643
-0.160781
-0.161032
-0.158473
-0.156059
-0.155452
-0.15708
-0.160762
-0.166195
-0.173248
-0.179279
-0.185342
-0.189803
-0.191547
-0.189509
-0.183065
-0.17219
-0.157434
-0.139761
-0.120336
-0.100329
-0.0807238
-0.0622691
-0.0454342
-0.0304551
-0.0173813
-0.00622723
0.00309788
0.0104769
0.0153064
0.0172442
0.0168727
0.0130718
0.00689005
-0.00208074
-0.0148257
-0.0345539
-0.0656752
-0.10051
-0.122645
-0.121808
-0.10127
-0.0751521
-0.0505196
-0.0320195
-0.0179735
-0.0107572
-0.00606334
-0.00236496
-0.00144294
-0.00195184
-0.0118871
-0.0281597
-0.0598031
-0.075907
-0.0738799
-0.063891
-0.0438851
-0.0302843
-0.0090384
0.0026041
-0.15577
-0.15775
-0.155367
-0.152377
-0.151132
-0.152047
-0.154675
-0.158411
-0.162291
-0.167493
-0.17167
-0.174252
-0.174424
-0.171472
-0.164955
-0.154868
-0.141629
-0.125965
-0.108763
-0.0909324
-0.0732654
-0.056403
-0.0407746
-0.0266253
-0.0140752
-0.00318998
0.00616618
0.0139271
0.0193874
0.0217926
0.0211189
0.0184775
0.0134174
0.00583901
-0.00567949
-0.0247689
-0.0564768
-0.092436
-0.114662
-0.113143
-0.0932307
-0.0686485
-0.0457831
-0.0286561
-0.0153808
-0.00843761
-0.00373101
-0.000204034
0.000835291
0.000703839
-0.0090278
-0.0256626
-0.0592326
-0.0768754
-0.0741562
-0.0634471
-0.0430838
-0.0297324
-0.00860704
0.00280472
-0.148488
-0.151957
-0.150266
-0.147195
-0.1455
-0.14575
-0.14742
-0.149879
-0.152648
-0.155703
-0.158015
-0.158998
-0.158069
-0.154694
-0.148518
-0.139476
-0.127814
-0.114035
-0.098801
-0.0828385
-0.0668139
-0.0512984
-0.0367056
-0.0232984
-0.0112144
-0.000578177
0.00867424
0.0165246
0.0223807
0.0254068
0.025346
0.0231725
0.0188989
0.0121963
0.00125061
-0.01754
-0.0484145
-0.0827739
-0.104065
-0.102821
-0.084387
-0.0618615
-0.0409407
-0.0252277
-0.0127838
-0.00617315
-0.00151635
0.00182299
0.00294258
0.00282627
-0.00689976
-0.0237548
-0.0582707
-0.076958
-0.0736957
-0.0624014
-0.0419349
-0.0289041
-0.00817589
0.00291782
-0.139726
-0.144452
-0.143639
-0.140793
-0.138829
-0.138532
-0.139471
-0.141013
-0.142678
-0.144202
-0.145127
-0.145006
-0.143366
-0.139768
-0.133906
-0.125688
-0.115268
-0.103017
-0.0894453
-0.0751338
-0.0606301
-0.0464203
-0.0328765
-0.0202617
-0.00871882
0.00159169
0.0106431
0.0184387
0.02456
0.0282146
0.0289126
0.0275282
0.0242271
0.018396
0.00792139
-0.0103218
-0.0394703
-0.0719598
-0.0924281
-0.0914553
-0.0748114
-0.0546078
-0.0358183
-0.0216772
-0.0101936
-0.00397381
0.000596303
0.00379097
0.00494963
0.00480976
-0.00494148
-0.0217035
-0.0565017
-0.0761143
-0.0725627
-0.0607494
-0.0404292
-0.0277772
-0.00772305
0.00296459
-0.130275
-0.135819
-0.135833
-0.133389
-0.131363
-0.130705
-0.131097
-0.131911
-0.132687
-0.133186
-0.133136
-0.132206
-0.130029
-0.126261
-0.12066
-0.113139
-0.103797
-0.0928994
-0.0808238
-0.0680161
-0.0549153
-0.0419322
-0.0293989
-0.0175784
-0.00662153
0.00330407
0.0121013
0.0197431
0.0259402
0.0300784
0.0315725
0.0312126
0.0291595
0.0245848
0.0150635
-0.0022844
-0.029887
-0.0606735
-0.0797749
-0.0790915
-0.0646363
-0.0470773
-0.0305615
-0.0180708
-0.00763568
-0.00184953
0.00260507
0.00568289
0.0067959
0.00669141
-0.00287838
-0.0191186
-0.0537498
-0.0741709
-0.0705799
-0.0584235
-0.0385346
-0.0263428
-0.00723834
0.00294388
-0.120406
-0.126435
-0.127164
-0.125204
-0.123273
-0.122401
-0.122386
-0.122669
-0.122827
-0.122628
-0.121882
-0.120364
-0.117814
-0.113977
-0.108661
-0.101786
-0.0934008
-0.0836885
-0.0729243
-0.0614525
-0.0496266
-0.037793
-0.0262421
-0.0152235
-0.0048953
0.0045789
0.0130658
0.0204927
0.0266398
0.0310398
0.0332721
0.0339072
0.0332093
0.030238
0.0220594
0.00558373
-0.0206011
-0.0491401
-0.0663452
-0.0660986
-0.0541807
-0.0394719
-0.0252785
-0.0144519
-0.00512701
0.000190513
0.00449723
0.00748998
0.008492
0.00845834
-0.000690541
-0.0160298
-0.0499236
-0.0708866
-0.0675985
-0.055391
-0.0362458
-0.0246044
-0.00670797
0.00285947
-0.1104
-0.116643
-0.11793
-0.116453
-0.114709
-0.113749
-0.113478
-0.113411
-0.113149
-0.112479
-0.111267
-0.109374
-0.106619
-0.102814
-0.0978055
-0.0915174
-0.0839716
-0.0752935
-0.0656865
-0.0554156
-0.0447609
-0.0340092
-0.0234106
-0.0131937
-0.00352091
0.00544678
0.0135668
0.0207411
0.0267743
0.0313351
0.034074
0.0355104
0.035963
0.034493
0.0276743
0.0122266
-0.0119981
-0.0375127
-0.0524539
-0.0529522
-0.0437906
-0.0320019
-0.0200978
-0.0108789
-0.00268654
0.00214172
0.00626758
0.00921443
0.0100626
0.0101009
0.00155279
-0.0125299
-0.0449269
-0.0661026
-0.0634602
-0.0516521
-0.0335793
-0.0225778
-0.00611808
0.00272171
-0.100496
-0.106707
-0.108391
-0.107359
-0.105857
-0.104912
-0.104504
-0.104219
-0.103692
-0.102734
-0.101253
-0.0991599
-0.0963323
-0.0926332
-0.0879433
-0.0821975
-0.0754024
-0.0676445
-0.0590719
-0.0498859
-0.0403063
-0.0305687
-0.0208874
-0.0114668
-0.00246704
0.00595449
0.0136557
0.0205376
0.0264036
0.0310159
0.0340871
0.0360534
0.0372223
0.0367504
0.0311301
0.0172822
-0.00409963
-0.0260164
-0.0388112
-0.0402463
-0.0338527
-0.024878
-0.0151423
-0.00741281
-0.000331275
0.00400613
0.00791906
0.010861
0.0115396
0.0116276
0.00383905
-0.0086337
-0.0387568
-0.059795
-0.0582157
-0.0472521
-0.0305775
-0.0202953
-0.00545416
0.00254761
-0.0908064
-0.0968349
-0.0987879
-0.0981462
-0.0969047
-0.0960366
-0.095573
-0.0951718
-0.0945044
-0.0934036
-0.091799
-0.0896363
-0.0868369
-0.0833044
-0.0789489
-0.0737171
-0.0676066
-0.060676
-0.0530324
-0.0448287
-0.0362374
-0.0274502
-0.0186495
-0.0100147
-0.00169757
0.0061516
0.0133922
0.0199317
0.0255798
0.0301514
0.0334102
0.0356674
0.0371372
0.0371114
0.0325454
0.0208795
0.00300611
-0.0151745
-0.0262234
-0.0286271
-0.0247349
-0.0182795
-0.0105151
-0.00411585
0.00191923
0.0057859
0.00946032
0.0124349
0.0129725
0.0130931
0.00623373
-0.00437052
-0.0315717
-0.0521003
-0.0519361
-0.0422828
-0.0273092
-0.0178073
-0.00470175
0.00236002
-0.0814656
-0.0872113
-0.0893142
-0.088991
-0.0880007
-0.0872454
-0.086792
-0.0863464
-0.085629
-0.0844872
-0.0828652
-0.0807324
-0.0780413
-0.0747259
-0.0707197
-0.0659796
-0.0604992
-0.0543183
-0.047515
-0.0402055
-0.032525
-0.0246282
-0.0166689
-0.00880279
-0.00117048
0.00608948
0.0128396
0.0189873
0.0243658
0.0288185
0.0321407
0.0345221
0.0360516
0.0361484
0.0325184
0.023202
0.00892044
-0.00578961
-0.0153709
-0.0185917
-0.0167017
-0.0123324
-0.00628979
-0.00104502
0.00404174
0.0074751
0.0108992
0.0139401
0.014432
0.0145973
0.00881319
0.000149033
-0.0236957
-0.0433452
-0.0447869
-0.0368772
-0.0238641
-0.0151825
-0.00384637
0.00218619
-0.0725933
-0.0779542
-0.0801009
-0.0800273
-0.0792662
-0.0786384
-0.0782319
-0.0778026
-0.0771002
-0.0759898
-0.0744276
-0.0723982
-0.0698748
-0.0668134
-0.0631654
-0.0588974
-0.0540019
-0.0485066
-0.0424686
-0.0359767
-0.0291363
-0.0220724
-0.0149132
-0.00779299
-0.00083941
0.00582212
0.0120615
0.017785
0.0228444
0.0271042
0.0303888
0.0327839
0.0342661
0.0343733
0.0315289
0.0243098
0.013221
0.00153018
-0.00671153
-0.0103471
-0.0098673
-0.00710229
-0.00250883
0.00175307
0.00601201
0.00905657
0.0122321
0.015368
0.0159821
0.0162501
0.011622
0.00474444
-0.0155915
-0.0340372
-0.0370736
-0.0312075
-0.0203436
-0.0125072
-0.00287716
0.00205653
-0.0642016
-0.0691281
-0.0712495
-0.0713683
-0.0708095
-0.070311
-0.0699728
-0.0695938
-0.0689503
-0.0679217
-0.0664723
-0.0645962
-0.0622804
-0.0594966
-0.0562101
-0.0523957
-0.0480464
-0.0431816
-0.037844
-0.0321012
-0.0260362
-0.0197495
-0.0133476
-0.00694521
-0.000655911
0.00540661
0.0111221
0.0164003
0.0211044
0.0251131
0.0282779
0.0306054
0.0319976
0.032097
0.0298727
0.0243512
0.0158918
0.00674783
-0.000196575
-0.00382604
-0.00421695
-0.00260453
0.000810902
0.00424609
0.00780666
0.0105086
0.0134421
0.0166792
0.0176175
0.0181168
0.0146531
0.00918632
-0.00781462
-0.0248147
-0.0292051
-0.025471
-0.0168495
-0.00987898
-0.0018003
0.00199658
-0.0563055
-0.0607958
-0.062846
-0.0631055
-0.0627181
-0.0623399
-0.0620743
-0.061766
-0.0612089
-0.0602937
-0.0589897
-0.0572974
-0.055213
-0.0527192
-0.0497916
-0.0464114
-0.0425726
-0.0382896
-0.0335942
-0.028539
-0.0231891
-0.0176256
-0.0119364
-0.00621918
-0.000573436
0.00489888
0.0100877
0.0149062
0.0192327
0.0229542
0.025937
0.0281407
0.029433
0.0295442
0.0278174
0.0236338
0.0172668
0.0102268
0.00452373
0.0011912
0.000343033
0.00117992
0.00367037
0.00641813
0.00940123
0.0118104
0.0145107
0.017801
0.0192095
0.0201241
0.017752
0.0131784
-0.000928315
-0.0163052
-0.0216151
-0.0198733
-0.0134756
-0.00739395
-0.000651326
0.00201418
-0.0489552
-0.0530052
-0.0549444
-0.0553001
-0.0550533
-0.0547784
-0.054566
-0.0543606
-0.0539051
-0.0531165
-0.0519734
-0.0504799
-0.0486374
-0.046436
-0.0438585
-0.0408909
-0.0375286
-0.0337822
-0.0296764
-0.0252519
-0.0205603
-0.0156673
-0.0106451
-0.00557645
-0.000547674
0.00435094
0.00902168
0.0133788
0.0173143
0.0207256
0.0234903
0.0255432
0.0267466
0.0269003
0.0255961
0.02247
0.0177379
0.0124098
0.00785678
0.00496643
0.00394069
0.00429257
0.00608163
0.00826782
0.0107735
0.0129375
0.0154209
0.0186701
0.0205454
0.021933
0.020491
0.0163476
0.00463887
-0.00894588
-0.0146773
-0.0146139
-0.0103081
-0.00513413
0.000505056
0.00209071
-0.0421539
-0.045765
-0.0475685
-0.0479918
-0.0478744
-0.0477255
-0.0476544
-0.0474514
-0.0470666
-0.0463986
-0.0454176
-0.0441253
-0.0425247
-0.0406097
-0.038368
-0.0357891
-0.0328695
-0.0296173
-0.0260516
-0.0222047
-0.0181174
-0.0138432
-0.00944122
-0.00498149
-0.000537537
0.00381099
0.00797851
0.011883
0.0154277
0.0185205
0.0210519
0.0229475
0.0240796
0.024304
0.0233717
0.0210891
0.01763
0.0136702
0.010133
0.00773515
0.0067113
0.00678987
0.00806474
0.00980235
0.0119101
0.0138612
0.0161395
0.0192412
0.0214308
0.0231171
0.0223241
0.0183866
0.00870041
-0.00294614
-0.00870122
-0.00986963
-0.0074215
-0.00316304
0.00157517
0.00218236
-0.0358697
-0.0390656
-0.0407223
-0.0411819
-0.0411558
-0.0410807
-0.0410421
-0.0409389
-0.0406592
-0.0401244
-0.0393085
-0.0382152
-0.0368497
-0.0352091
-0.0332846
-0.0310682
-0.0285573
-0.0257582
-0.0226859
-0.0193661
-0.0158313
-0.012125
-0.00829577
-0.00440248
-0.000507195
0.00331997
0.00700509
0.010473
0.0136386
0.0164183
0.0187166
0.020459
0.0215366
0.021849
0.0212458
0.0196394
0.0171686
0.0142852
0.0116138
0.00970263
0.00878606
0.00873621
0.00964701
0.011033
0.0128049
0.0145589
0.0166265
0.0194581
0.0217347
0.0233836
0.0229632
0.0192702
0.0113302
0.0016455
-0.00381398
-0.00577437
-0.00486366
-0.00151964
0.00244352
0.00223296
-0.030093
-0.0329052
-0.034411
-0.0348852
-0.034929
-0.0349188
-0.0349335
-0.0348957
-0.0347079
-0.0342977
-0.0336391
-0.0327348
-0.0315914
-0.0302082
-0.0285787
-0.0266968
-0.0245603
-0.0221742
-0.0195503
-0.0167092
-0.0136768
-0.0104887
-0.00718431
-0.00381309
-0.000427185
0.00291214
0.00614206
0.00919592
0.0119996
0.0144784
0.0165545
0.0181533
0.0191885
0.0195929
0.0192743
0.018209
0.0165009
0.0144585
0.0125023
0.0110424
0.0102851
0.0101992
0.0108615
0.011974
0.01346
0.0150185
0.0168584
0.0193145
0.0214639
0.0228226
0.0225484
0.0192318
0.0127784
0.00491036
-5.50633e-05
-0.00240754
-0.00265879
-0.000200293
0.00301793
0.00219183
-0.0248138
-0.0272703
-0.0286253
-0.0290995
-0.029198
-0.0292428
-0.0293039
-0.0293143
-0.0292129
-0.0289153
-0.0284006
-0.0276707
-0.0267319
-0.0255852
-0.0242258
-0.0226488
-0.0208521
-0.0188398
-0.0166208
-0.0142118
-0.0116335
-0.00891474
-0.00608757
-0.00319344
-0.00027563
0.0026139
0.00542161
0.00808808
0.0105512
0.0127471
0.0146137
0.0160797
0.0170782
0.0175663
0.0174864
0.0168484
0.0157254
0.0143369
0.0129595
0.0118955
0.0113142
0.0112462
0.0117446
0.0126448
0.0138849
0.0152417
0.0168427
0.0188666
0.020697
0.0217108
0.0214359
0.0185783
0.0133638
0.00705506
0.0026688
0.000225202
-0.000816873
0.000819504
0.00327871
0.0020373
-0.0200029
-0.022136
-0.0233476
-0.0238139
-0.0239574
-0.0240529
-0.024165
-0.0242421
-0.0241842
-0.0239737
-0.0235834
-0.0230088
-0.0222542
-0.0213207
-0.0202049
-0.0189024
-0.0174111
-0.015734
-0.013878
-0.0118564
-0.00968549
-0.00738881
-0.00499214
-0.00252975
-3.71232e-05
0.00244167
0.00486146
0.00717192
0.00932343
0.0112687
0.0129247
0.0142643
0.0152257
0.0157818
0.0158946
0.0155856
0.0149067
0.0140275
0.0131052
0.012375
0.0119645
0.0119417
0.0123357
0.0130696
0.0140965
0.0152482
0.0166032
0.0181966
0.0196258
0.0203176
0.019973
0.0175741
0.0133828
0.0083473
0.00452997
0.00218123
0.000668563
0.00156507
0.00326742
0.00180398
-0.0156316
-0.0174758
-0.0185534
-0.0190042
-0.0191794
-0.0193096
-0.0194505
-0.0195557
-0.0195601
-0.0194386
-0.0191627
-0.0187288
-0.0181393
-0.0173962
-0.0164973
-0.015439
-0.0142194
-0.0128403
-0.011307
-0.00962978
-0.00782167
-0.00590149
-0.00388989
-0.00181488
0.00029466
0.00240203
0.00447009
0.00645617
0.00831702
0.0100124
0.0114904
0.0127143
0.0136358
0.0142389
0.0144968
0.0144369
0.0140937
0.0135928
0.0130248
0.0125686
0.0123145
0.0123458
0.0126746
0.0132764
0.0141187
0.0150681
0.0161785
0.0173812
0.0184452
0.0188392
0.018409
0.0164102
0.0130536
0.00903492
0.0057246
0.00355957
0.00182223
0.00207853
0.00307554
0.00154821
-0.0116758
-0.0132633
-0.0142174
-0.0146486
-0.0148473
-0.0150064
-0.0151745
-0.0153161
-0.0153787
-0.015316
-0.0151309
-0.0148166
-0.0143713
-0.013795
-0.0130865
-0.012243
-0.0112623
-0.0101455
-0.00889638
-0.00752291
-0.00603516
-0.00444809
-0.0027781
-0.00104761
0.000719978
0.00249467
0.00424689
0.00594133
0.00753961
0.00900766
0.010313
0.0114214
0.0122993
0.0129284
0.0132896
0.0134119
0.013314
0.013079
0.0127858
0.0125494
0.0124303
0.0125129
0.012801
0.013296
0.0139773
0.0147374
0.0156168
0.0164821
0.0172271
0.017386
0.0168852
0.0152126
0.0125196
0.00930778
0.00643438
0.00447623
0.00268375
0.00241901
0.00280608
0.00130989
-0.00810813
-0.00946895
-0.0103107
-0.01072
-0.0109348
-0.011115
-0.011302
-0.0114669
-0.0115656
-0.0115678
-0.0114621
-0.0112505
-0.0109304
-0.0104998
-0.00995713
-0.00930027
-0.00852758
-0.00763943
-0.00663831
-0.00553023
-0.0043229
-0.00302801
-0.0016583
-0.000231562
0.00123361
0.00271347
0.00418346
0.00561509
0.00697979
0.0082466
0.0093831
0.0103653
0.0111988
0.0118362
0.0122643
0.0125111
0.0125882
0.0125513
0.0124514
0.0123792
0.012368
0.0124928
0.0127533
0.0131596
0.013702
0.0142922
0.0149612
0.0155491
0.0160304
0.016014
0.0154687
0.0140569
0.0118756
0.00930086
0.00680513
0.00503412
0.00329863
0.00263729
0.00253262
0.00110807
-0.00490073
-0.00606362
-0.0068048
-0.00719147
-0.00741709
-0.00761322
-0.00781465
-0.00799832
-0.00812844
-0.00817961
-0.00814189
-0.00801453
-0.00779983
-0.00749428
-0.00709448
-0.00659849
-0.00600502
-0.0053141
-0.00452731
-0.00364896
-0.00268485
-0.0016439
-0.000535961
0.000625172
0.00182499
0.00304468
0.00426506
0.00546392
0.00661817
0.00770522
0.00870076
0.00959501
0.0103312
0.0109444
0.011405
0.0117289
0.0119162
0.0120217
0.0120607
0.0121061
0.0121752
0.0123296
0.0125674
0.0128997
0.0133238
0.0137655
0.0142508
0.0146241
0.0148924
0.01475
0.0141846
0.0129806
0.0111868
0.00910723
0.00694119
0.0053172
0.00371273
0.00277294
0.00229455
0.00094924
-0.0020281
-0.0030195
-0.00367161
-0.00403595
-0.00426839
-0.00447603
-0.00468789
-0.00488583
-0.00504072
-0.0051319
-0.00515016
-0.00509419
-0.00496514
-0.00476321
-0.00448462
-0.00412607
-0.00368571
-0.00316327
-0.00255986
-0.00187856
-0.00112353
-0.00030143
0.000580234
0.001511
0.00247974
0.003472
0.00447284
0.00546481
0.00642973
0.00735026
0.00820701
0.00898593
0.00966388
0.0102381
0.0107004
0.0110633
0.0113219
0.0115131
0.0116439
0.0117674
0.0118911
0.0120616
0.0122778
0.012547
0.0128715
0.0131879
0.0135185
0.0137272
0.0138311
0.0136029
0.0130341
0.0119969
0.0104967
0.00879271
0.00691842
0.00542567
0.00391747
0.00284945
0.00210552
0.000830032
0.000534312
-0.000309443
-0.000883311
-0.00122624
-0.0014624
-0.00167799
-0.00189691
-0.00210499
-0.00227892
-0.00240184
-0.00246606
-0.00246955
-0.0024124
-0.0022951
-0.00211651
-0.00187305
-0.00156187
-0.00118203
-0.000734113
-0.000220212
0.000356765
0.00099195
0.00167971
0.00241228
0.00318132
0.00397589
0.0047845
0.00559375
0.00638961
0.00715844
0.00788464
0.00855709
0.00915937
0.00968848
0.0101345
0.0105071
0.0107997
0.0110383
0.0112233
0.0113927
0.0115482
0.0117226
0.0119159
0.0121305
0.0123708