/*--------------------------------*- C++ -*----------------------------------*\
| =========                 |                                                 |
| \\      /  F ield         | OpenFOAM: The Open Source CFD Toolbox           |
|  \\    /   O peration     | Version:  2512                                  |
|   \\  /    A nd           | Website:  www.openfoam.com                      |
|    \\/     M anipulation  |                                                 |
\*---------------------------------------------------------------------------*/
FoamFile
{
    version     2.0;
    format      ascii;
    arch        "LSB;label=32;scalar=64";
    class       surfaceScalarField;
    location    "184.25";
    object      phi;
}
// * * * * * * * * * * * * * * * * * * * * * * * * * * * * * * * * * * * * * //

dimensions      [0 3 -1 0 0 0 0];

oriented        oriented;

internalField   nonuniform List<scalar> 
26232
(
-2.21818e-05
0.000823582
-0.0008014
9.9061e-05
0.00136844
-0.00148968
0.000554987
0.00102229
-0.00147822
0.00153717
-0.00013491
-0.00084727
0.00323484
-0.00207146
0.000373783
0.00583072
-0.00477786
0.00218199
0.00949209
-0.00825048
0.0045891
0.0143592
-0.012475
0.00760791
0.0205305
-0.0174129
0.0112416
0.0280476
-0.0229919
0.0154748
0.036884
-0.0291044
0.0202679
0.0469398
-0.0356116
0.0255558
0.058044
-0.042354
0.0312497
0.0699655
-0.0491646
0.0372432
0.0824296
-0.0558838
0.0434198
0.0951396
-0.062372
0.049662
0.1078
-0.0685196
0.0558593
0.120137
-0.0742539
0.0619169
0.13192
-0.0795394
0.0677558
0.142974
-0.0843872
0.073334
0.153188
-0.0888122
0.0785975
0.162503
-0.092951
0.0836367
0.170906
-0.0966772
0.0882737
-0.100584
0.0933414
0.178149
6.60708e-05
0.000757511
0.000450951
0.000983557
0.0013556
0.000117644
0.00298385
-0.00176316
0.0055348
-0.00462241
0.00919073
-0.00843379
0.0140994
-0.0131592
0.0203536
-0.0187293
0.0279715
-0.0250308
0.036883
-0.0319034
0.0469267
-0.0391481
0.0578596
-0.0465445
0.069378
-0.0538723
0.0811467
-0.0609334
0.092832
-0.0675691
0.104133
-0.0736727
0.114806
-0.0791934
0.124688
-0.0841354
0.133698
-0.0885494
0.141834
-0.0925237
0.14918
-0.0961579
0.155829
-0.0995997
0.161984
-0.102832
-0.106329
0.167728
0.000157018
0.000600494
0.000824483
0.000316092
0.00221662
-0.00127449
0.00454608
-0.00409262
0.00800936
-0.00808569
0.0127639
-0.0131884
0.0189005
-0.0192957
0.026417
-0.0262457
0.0352019
-0.0338158
0.0450349
-0.0417363
0.0556049
-0.049718
0.0665448
-0.0574844
0.077475
-0.0648025
0.0880474
-0.0715058
0.0979828
-0.0775046
0.107096
-0.0827861
0.115307
-0.0874041
0.122634
-0.091462
0.129175
-0.095091
0.135083
-0.098432
0.140535
-0.101609
0.145684
-0.104749
0.150702
-0.107849
-0.111248
0.155621
0.000254452
0.000346042
0.00122708
-0.000656533
0.00314363
-0.00319105
0.00621497
-0.00716396
0.0106118
-0.0124826
0.0164297
-0.0190063
0.0236545
-0.0265205
0.0321414
-0.0347326
0.0416175
-0.0432919
0.0517111
-0.05183
0.0620016
-0.0600086
0.0720784
-0.0675611
0.0815948
-0.074319
0.0903084
-0.0802194
0.0980989
-0.085295
0.104965
-0.0896524
0.111003
-0.0934422
0.116372
-0.0968308
0.121256
-0.0999749
0.12583
-0.103006
0.13024
-0.10602
0.134581
-0.109091
0.138943
-0.112211
-0.115598
0.143293
0.000363225
-1.71835e-05
0.00166757
-0.00196088
0.00414017
-0.00566365
0.0079691
-0.0109929
0.013264
-0.0177775
0.0200118
-0.025754
0.0280473
-0.034556
0.0370556
-0.0437409
0.046612
-0.0528483
0.0562482
-0.0614662
0.0655278
-0.0692882
0.0741099
-0.0761432
0.081788
-0.0819971
0.0884982
-0.0869296
0.0943006
-0.0910975
0.0993413
-0.094693
0.103808
-0.0979085
0.107888
-0.100911
0.111741
-0.103829
0.115487
-0.106752
0.119204
-0.109737
0.122932
-0.112818
0.126708
-0.115987
-0.119379
0.130489
0.000486415
-0.000503599
0.00214823
-0.0036227
0.00519279
-0.00870821
0.00975288
-0.015553
0.0158326
-0.0238572
0.0232651
-0.0331865
0.0317088
-0.0429996
0.040694
-0.0527261
0.0497066
-0.0618609
0.0582814
-0.070041
0.0660762
-0.077083
0.0729093
-0.0829763
0.0787572
-0.0878449
0.0837206
-0.091893
0.0879745
-0.0953514
0.0917173
-0.0984358
0.0951316
-0.101323
0.0983624
-0.104142
0.101511
-0.106977
0.104642
-0.109882
0.10779
-0.112885
0.11097
-0.115998
0.114202
-0.119219
-0.122618
0.117441
0.000624215
-0.00112781
0.00265914
-0.00565762
0.00626179
-0.0123109
0.0114681
-0.0207593
0.0181323
-0.0305214
0.0259074
-0.0409615
0.0342899
-0.0513822
0.0427193
-0.0611555
0.0506913
-0.0698329
0.0578465
-0.0771962
0.0640094
-0.0832459
0.0691774
-0.0881442
0.0734743
-0.0921418
0.0770906
-0.0955094
0.0802289
-0.0984897
0.0830664
-0.101273
0.0857377
-0.103994
0.0883342
-0.106738
0.0909117
-0.109555
0.093501
-0.112472
0.0961175
-0.115501
0.0987657
-0.118646
0.101452
-0.121905
-0.125307
0.10414
0.00077201
-0.00189982
0.00317683
-0.00806244
0.00728262
-0.0164167
0.0129855
-0.0264621
0.0199596
-0.0374956
0.0276859
-0.0486878
0.0355576
-0.0592539
0.0430174
-0.0686153
0.0496661
-0.0764816
0.0553106
-0.0828407
0.0599486
-0.0878839
0.0637126
-0.0919082
0.0668011
-0.0952303
0.0694196
-0.0981279
0.0717434
-0.100813
0.0739026
-0.103432
0.0759834
-0.106075
0.0780376
-0.108792
0.0800935
-0.111611
0.0821652
-0.114543
0.0842584
-0.117594
0.0863739
-0.120762
0.0885128
-0.124044
-0.127444
0.0906506
0.000922006
-0.00282183
0.00366788
-0.0108083
0.00817651
-0.0209253
0.01417
-0.0324556
0.0211399
-0.0444655
0.0284416
-0.0559895
0.0354508
-0.0662632
0.0417026
-0.0748671
0.046958
-0.0817369
0.0511922
-0.087075
0.0545327
-0.0912244
0.0571809
-0.0945564
0.0593464
-0.0973958
0.0612069
-0.0999884
0.0628929
-0.102499
0.0644895
-0.105029
0.0660471
-0.107633
0.0675932
-0.110338
0.0691416
-0.113159
0.0706986
-0.1161
0.0722663
-0.119162
0.0738443
-0.12234
0.0754313
-0.125631
-0.129026
0.0770124
0.00106405
-0.00388588
0.00409418
-0.0138384
0.00886478
-0.0256959
0.0149092
-0.0385001
0.0215661
-0.0511224
0.028139
-0.0625624
0.0340705
-0.0721947
0.0390431
-0.0798397
0.042983
-0.0856767
0.0459958
-0.0900878
0.0482797
-0.0935083
0.0500497
-0.0963263
0.0514901
-0.0988362
0.0527365
-0.101235
0.0538768
-0.10364
0.0549627
-0.106115
0.0560222
-0.108692
0.0570694
-0.111386
0.0581114
-0.114201
0.0591512
-0.11714
0.0601894
-0.1202
0.061225
-0.123376
0.0622556
-0.126662
-0.130044
0.063274
0.00118748
-0.00507336
0.00441991
-0.0170709
0.00928369
-0.0305597
0.015134
-0.0443504
0.0212136
-0.057202
0.0268536
-0.0682023
0.0316225
-0.0769636
0.0353634
-0.0835806
0.0381379
-0.0884513
0.0401306
-0.0920804
0.0415602
-0.094938
0.0426215
-0.0973877
0.04346
-0.0996747
0.0441706
-0.101945
0.044809
-0.104278
0.0454049
-0.106711
0.0459738
-0.109261
0.0465233
-0.111935
0.0470574
-0.114735
0.0475776
-0.11766
0.0480839
-0.120706
0.048575
-0.123867
0.0490473
-0.127134
-0.130495
0.0494981
0.00128524
-0.0063586
0.00461978
-0.0204054
0.0093957
-0.0353356
0.0148273
-0.0497819
0.0201331
-0.0625079
0.0247366
-0.0728058
0.028357
-0.080584
0.0309789
-0.0862026
0.032755
-0.0902273
0.033902
-0.0932275
0.0346269
-0.0956628
0.0350896
-0.0978503
0.0353965
-0.0999816
0.0356106
-0.102159
0.0357656
-0.104433
0.0358783
-0.106824
0.0359572
-0.10934
0.036007
-0.111985
0.0360303
-0.114759
0.0360285
-0.117659
0.0360017
-0.120679
0.0359486
-0.123814
0.0358655
-0.127051
0.0357523
-0.130382
-0.000252218
-0.00252431
0.00277652
-0.000906618
-0.00590992
0.00656432
-0.00189788
-0.00811019
0.00910146
-0.00316927
-0.00939235
0.0106637
-0.0046713
-0.00999767
0.0114997
-0.00636355
-0.0101313
0.0118236
-0.00821465
-0.00994942
0.0118005
-0.0102005
-0.00955379
0.0115397
-0.0123019
-0.00899517
0.0110966
-0.0145015
-0.00828227
0.0104819
-0.0167817
-0.00739349
0.00967367
-0.0191225
-0.00628843
0.00862922
-0.0215002
-0.00491738
0.00729501
-0.0238869
-0.00322694
0.00561364
-0.0262447
-0.00116845
0.00352626
-0.0285073
0.00129445
0.000968195
-0.0306698
0.0041989
-0.00203637
-0.0326537
0.00757007
-0.0055862
-0.0343962
0.0114132
-0.00967067
-0.0358325
0.0157143
-0.0142779
-0.0369
0.0204372
-0.0193697
-0.0375424
0.025523
-0.0248806
-0.0377268
0.0309067
-0.0307222
0.0365262
-0.037498
-0.036755
-0.000317214
-0.00220709
-0.00110291
-0.00512422
-0.00225141
-0.00696169
-0.00368106
-0.0079627
-0.0053293
-0.00834943
-0.00715052
-0.00831011
-0.00911263
-0.00798731
-0.0111925
-0.00747391
-0.0133713
-0.00681635
-0.0156305
-0.00602311
-0.0179484
-0.00507554
-0.0202985
-0.00393841
-0.0226479
-0.0025679
-0.0249604
-0.000914468
-0.0271686
0.00103972
-0.0292261
0.003352
-0.0310647
0.0060375
-0.0326038
0.00910918
-0.0337556
0.0125649
-0.034428
0.0163867
-0.0345311
0.0205404
-0.0339833
0.0249751
-0.0327108
0.0296343
0.0344965
-0.0306812
-0.00035819
-0.0018489
-0.00122046
-0.00426195
-0.00244928
-0.00573286
-0.00394185
-0.00647013
-0.00562276
-0.00666852
-0.00743902
-0.00649385
-0.00935405
-0.00607228
-0.0113412
-0.0054868
-0.0133774
-0.00478008
-0.0154387
-0.00396185
-0.0174959
-0.00301833
-0.0195129
-0.00192145
-0.021444
-0.000636818
-0.0232275
0.000869071
-0.0248121
0.0026243
-0.0261141
0.00465402
-0.0270475
0.00697091
-0.0275147
0.00957639
-0.027408
0.0124582
-0.0266119
0.0155906
-0.0250087
0.0189372
-0.0224891
0.0224555
-0.0189542
0.0260994
0.0298881
-0.0143458
-0.000377689
-0.00147121
-0.00126932
-0.00337033
-0.00251413
-0.00448805
-0.00399202
-0.00499224
-0.00561522
-0.00504532
-0.00732145
-0.00478761
-0.0090664
-0.00432734
-0.010816
-0.00373717
-0.0125397
-0.00305642
-0.0142046
-0.00229695
-0.0157719
-0.00145099
-0.0171943
-0.000499127
-0.0184139
0.00058285
-0.0193633
0.00181848
-0.019966
0.00322701
-0.0201328
0.00482078
-0.0197645
0.00660261
-0.0187521
0.008564
-0.0169774
0.0106835
-0.0143113
0.0129244
-0.0106183
0.0152442
-0.00575535
0.0175926
0.000406687
0.0199373
0.0223629
0.00793192
-0.000380857
-0.00109036
-0.00126618
-0.00248501
-0.0024797
-0.00327452
-0.00388801
-0.00358393
-0.00539212
-0.00354121
-0.00691966
-0.00326008
-0.00841667
-0.00283032
-0.00983958
-0.00231426
-0.0111481
-0.0017479
-0.0122995
-0.00114554
-0.013245
-0.000505441
-0.0139272
0.00018305
-0.0142788
0.000934457
-0.0142229
0.00176256
-0.013673
0.00267705
-0.0125332
0.00368104
-0.0106995
0.00476889
-0.00805989
0.00592437
-0.00449654
0.00712013
0.00011065
0.00831723
0.00589535
0.00945948
0.0129963
0.0104917
0.0215627
0.0113709
0.0119774
0.0319482
-0.00037286
-0.000717497
-0.00122709
-0.00163078
-0.0023772
-0.00212442
-0.00368039
-0.00228073
-0.00502832
-0.00219329
-0.00633894
-0.00194946
-0.00754827
-0.001621
-0.00860247
-0.00126006
-0.00945103
-0.000899342
-0.0100415
-0.000555072
-0.0103157
-0.000231251
-0.0102077
7.5021e-05
-0.00964278
0.00036958
-0.00853794
0.000657732
-0.00680192
0.000941023
-0.00433648
0.00121561
-0.00103776
0.00147017
0.00320207
0.00168455
0.0084943
0.0018279
0.0149529
0.00185865
0.0226901
0.00172231
0.0318425
0.00133926
0.0424682
0.000745208
-0.000738992
0.0551845
-0.000356709
-0.000360788
-0.00116087
-0.000826621
-0.00222259
-0.00106269
-0.00339321
-0.00111012
-0.00455698
-0.00102952
-0.00562296
-0.00088347
-0.00651716
-0.000726796
-0.00717502
-0.000602203
-0.00753509
-0.000539278
-0.00753423
-0.000555925
-0.00710445
-0.000661031
-0.00617084
-0.00085859
-0.00465089
-0.00115037
-0.00245584
-0.00153733
0.000510025
-0.00202484
0.00434696
-0.00262133
0.00915849
-0.00334136
0.0150496
-0.00420656
0.0221247
-0.00524715
0.0304864
-0.00650308
0.0402224
-0.00801373
0.0514793
-0.00991762
0.0641212
-0.0118967
-0.0156475
0.0790297
-0.000332195
-2.8593e-05
-0.00106591
-9.29025e-05
-0.00201061
-0.000117993
-0.0030139
-0.00010682
-0.00395378
-8.96451e-05
-0.00472983
-0.000107414
-0.00525654
-0.00020009
-0.00545665
-0.000402098
-0.00525429
-0.000741631
-0.00457239
-0.00123783
-0.00332839
-0.00190502
-0.00143441
-0.00275258
0.00120306
-0.00378784
0.00468316
-0.00501742
0.00910731
-0.00644899
0.0145782
-0.00809219
0.0211967
-0.0099599
0.0290594
-0.0120693
0.0382545
-0.0144422
0.0488634
-0.0171119
0.0609258
-0.0200762
0.0745763
-0.0235681
0.0895091
-0.0268295
-0.0326735
0.106535
-0.000296519
0.000267926
-0.000932214
0.000542793
-0.00171843
0.000668225
-0.00250012
0.000674865
-0.00314696
0.000557193
-0.00354735
0.000292978
-0.00359869
-0.000148748
-0.0032083
-0.000792492
-0.00227976
-0.00167017
-0.000715513
-0.00280208
0.0015851
-0.00420564
0.00472606
-0.00589354
0.00881255
-0.00787433
0.0139482
-0.0101531
0.0202312
-0.012732
0.0277506
-0.0156115
0.0365818
-0.0187912
0.0467833
-0.0222707
0.0583906
-0.0260495
0.0714179
-0.0301392
0.0858282
-0.0344865
0.101624
-0.0393634
0.118535
-0.0437414
-0.0509275
0.136789
-0.000246739
0.000514665
-0.000748677
0.00104473
-0.00132026
0.00123981
-0.00180199
0.0011566
-0.00205303
0.000808233
-0.00194507
0.000185014
-0.00135906
-0.000734759
-0.000174177
-0.00197738
0.00172568
-0.00357002
0.00445817
-0.00553457
0.0081388
-0.00788626
0.0128773
-0.010632
0.0187727
-0.0137697
0.0259075
-0.0172879
0.0343422
-0.0211667
0.0441105
-0.0253799
0.0552152
-0.0298958
0.0676256
-0.0346812
0.0812761
-0.0397
0.096064
-0.0449271
0.111859
-0.0502815
0.128442
-0.0559468
0.145751
-0.0610496
-0.0683153
0.163138
-0.00018203
0.000696695
-0.000510241
0.00137294
-0.000801858
0.00153143
-0.000890711
0.00124545
-0.000622071
0.000539594
0.000151094
-0.000588151
0.0015714
-0.00215506
0.00377861
-0.00418459
0.00690663
-0.00669804
0.0110802
-0.0097081
0.016408
-0.0132141
0.0229755
-0.0171995
0.0308362
-0.0216304
0.040006
-0.0264576
0.050458
-0.0316188
0.0621212
-0.0370431
0.0748814
-0.042656
0.0885846
-0.0483844
0.103043
-0.0541581
0.118041
-0.0599254
0.133366
-0.0656066
0.148701
-0.0712814
0.164119
-0.0764679
-0.0826516
0.178455
-0.000104705
-0.000221444
-0.000168231
0.000229947
0.00114332
0.00273716
0.0051712
0.00859452
0.0131381
0.0189048
0.0259586
0.0343149
0.0439342
0.0547197
0.0665207
0.0791396
0.0923429
0.105875
0.119473
0.132882
0.145873
0.158228
0.170034
0.180724
-0.0348911
0.0563512
-0.0589581
-0.0314315
0.06644
-0.0698996
-0.0269547
0.0758732
-0.08035
-0.0211968
0.083775
-0.0895328
-0.0139268
0.0893284
-0.0965985
-0.00492752
0.0915351
-0.100534
0.00588926
0.0894113
-0.100228
0.0183131
0.0821245
-0.0945483
0.031898
0.0691505
-0.0827354
0.0460279
0.0504108
-0.0645407
0.0600784
0.0261378
-0.0401883
0.0735119
-0.00291531
-0.0105182
0.0863466
-0.0360493
0.0232146
0.0982844
-0.0713932
0.0594554
0.108883
-0.105073
0.0944747
0.117386
-0.132412
0.123909
0.123116
-0.1504
0.14467
0.125967
-0.159187
0.156337
0.126398
-0.161014
0.160582
0.124597
-0.158923
0.160724
0.120084
-0.157202
0.161715
0.112993
-0.159774
0.166864
0.105592
-0.16442
0.17182
0.101657
-0.159663
0.163599
0.103737
-0.131433
0.129353
0.111501
-0.0758178
0.0680529
0.122681
-0.00366172
-0.00751811
0.134345
0.0679067
-0.0795701
0.144107
0.124709
-0.134472
0.150823
0.162273
-0.168988
0.154692
0.181792
-0.185661
0.15575
0.190434
-0.191492
0.153185
0.198932
-0.196366
0.146953
0.215296
-0.209064
0.139416
0.227769
-0.220233
0.134275
0.21109
-0.205948
0.133802
0.147955
-0.147482
0.137822
0.0479432
-0.0519636
0.144302
-0.0550238
0.0485442
0.15101
-0.138977
0.132269
0.155893
-0.186496
0.181613
0.156586
-0.215532
0.214839
0.151802
-0.230082
0.234865
0.143499
-0.246225
0.254529
0.136352
-0.23394
0.241086
0.134557
-0.173743
0.175538
0.138858
-0.0772725
0.0729711
0.145894
0.0476196
-0.0546555
0.150724
0.12664
-0.13147
0.149878
0.220432
-0.219586
0.14484
0.25743
-0.252392
0.140658
0.283039
-0.278856
0.140815
0.234437
-0.234595
0.144192
0.0971533
-0.10053
0.14663
0.0172644
-0.0197026
0.145547
-0.182806
0.18389
0.143609
-0.226238
0.228177
0.142161
-0.307105
0.308553
0.140711
-0.291623
0.293073
-0.0184551
0.0203768
-0.026088
0.051758
-0.0203085
0.0606605
-0.0133918
0.0689565
-0.00500459
0.0753878
0.00487037
0.0794535
0.0161529
0.0802526
0.0286512
0.076913
0.0420082
0.0687675
0.0556869
0.0554718
0.0690902
0.0370075
0.0816941
0.0135339
0.0932429
-0.0144642
0.103734
-0.04654
0.113007
-0.0806667
0.120627
-0.112693
0.125994
-0.137779
0.128715
-0.153121
0.128887
-0.159359
0.12714
-0.159267
0.123915
-0.155698
0.118666
-0.151952
0.110825
-0.151932
0.101911
-0.155506
0.0958401
-0.153592
0.0962411
-0.131834
0.103594
-0.083171
0.115705
-0.0157726
0.129008
0.0546042
0.140734
0.112982
0.149482
0.153525
0.155179
0.176094
0.157629
0.187985
0.156142
0.200419
0.151012
0.220426
0.144558
0.234223
0.139997
0.215651
0.139205
0.148748
0.142153
0.0449943
0.147058
-0.0599284
0.152068
-0.143987
0.155572
-0.19
0.155472
-0.215431
0.150294
-0.224904
0.141647
-0.237579
0.134329
-0.226622
0.132754
-0.172167
0.137757
-0.0822749
0.145457
0.0399192
0.15076
0.121337
0.15025
0.220941
0.145364
0.262316
0.141227
0.287175
0.141247
0.234418
0.144782
0.0936176
0.147354
0.0146932
0.146154
-0.181606
0.144078
-0.224162
0.142459
-0.305486
0.140895
-0.290059
-0.0164765
-0.00833394
0.0457461
-0.00106745
0.053394
0.00792623
0.0599628
0.0180251
0.0652889
0.029227
0.0682516
0.0413921
0.0680875
0.0542108
0.0640943
0.0672405
0.0557378
0.0799686
0.0427438
0.0918903
0.0250858
0.102594
0.00282976
0.112004
-0.0238741
0.120097
-0.0546324
0.126709
-0.0872793
0.131384
-0.117368
0.133681
-0.140077
0.133546
-0.152986
0.131336
-0.157149
0.127746
-0.155677
0.123357
-0.151309
0.117717
-0.146312
0.109714
-0.143929
0.0998889
-0.145681
0.0918631
-0.145567
0.090202
-0.130173
0.0965891
-0.0895581
0.108936
-0.0281191
0.123538
0.0400021
0.137056
0.099464
0.147812
0.142769
0.155375
0.16853
0.159343
0.184017
0.159184
0.200577
0.155417
0.224193
0.150137
0.239504
0.146066
0.219721
0.144778
0.150036
0.146501
0.0432718
0.149765
-0.0631928
0.153049
-0.147272
0.155178
-0.192128
0.154372
-0.214625
0.148984
-0.219516
0.140161
-0.228756
0.132704
-0.219164
0.131244
-0.170708
0.136792
-0.087823
0.145061
0.0316507
0.150859
0.115539
0.150761
0.221039
0.146068
0.267009
0.141962
0.291282
0.141808
0.234571
0.145489
0.0899367
0.148216
0.0119661
0.146891
-0.180281
0.144645
-0.221917
0.142862
-0.303703
0.14122
-0.288417
-0.0144694
0.015285
0.0383931
0.0237649
0.0449141
0.0332077
0.05052
0.0437836
0.0547131
0.0552461
0.0567891
0.0672764
0.0560572
0.0794887
0.051882
0.0914437
0.0437829
0.102696
0.0314916
0.112822
0.01496
0.121652
-0.006001
0.129038
-0.0312595
0.134952
-0.060547
0.1391
-0.0914269
0.140986
-0.119253
0.140367
-0.139459
0.137576
-0.150194
0.133282
-0.152855
0.128176
-0.150572
0.122835
-0.145969
0.117022
-0.140499
0.1094
-0.136307
0.0994704
-0.135751
0.0899593
-0.136056
0.0859486
-0.126162
0.0905667
-0.0941762
0.102517
-0.040069
0.117933
0.0245859
0.133019
0.0843782
0.14571
0.130078
0.155157
0.159083
0.160772
0.178402
0.162178
0.199172
0.159986
0.226384
0.155968
0.243522
0.152305
0.223384
0.150413
0.151927
0.150735
0.0429502
0.152366
-0.0648239
0.153947
-0.148852
0.154708
-0.192889
0.153248
-0.213166
0.147803
-0.214071
0.138969
-0.219922
0.131414
-0.211609
0.129963
-0.169256
0.135899
-0.0937592
0.144663
0.0228865
0.150997
0.109205
0.151404
0.220632
0.14697
0.271443
0.14289
0.295362
0.142523
0.234938
0.146305
0.0861553
0.149211
0.00905993
0.147752
-0.178823
0.145308
-0.219473
0.143363
-0.301758
0.141676
-0.286729
-0.0124621
0.0398471
0.0304942
0.0485731
0.0361881
0.0581635
0.0409296
0.0686031
0.0442735
0.0796419
0.0457503
0.0909303
0.0447687
0.102082
0.0407306
0.112693
0.0331713
0.122409
0.021776
0.130953
0.00641619
0.138206
-0.0132545
0.14398
-0.0370334
0.148032
-0.0645989
0.149863
-0.0932575
0.149046
-0.118436
0.145689
-0.136102
0.140539
-0.145044
0.134531
-0.146847
0.128316
-0.144357
0.1223
-0.139953
0.116428
-0.134627
0.109506
-0.129385
0.100241
-0.126486
0.0900421
-0.125856
0.0837537
-0.119874
0.0859277
-0.0963501
0.0965711
-0.0507124
0.112245
0.00891222
0.128566
0.068057
0.143041
0.115603
0.154339
0.147785
0.16171
0.171031
0.16489
0.195992
0.164475
0.226799
0.161797
0.2462
0.158522
0.226659
0.155897
0.154551
0.154803
0.0440443
0.154793
-0.0648136
0.154726
-0.148785
0.154141
-0.192304
0.152066
-0.211091
0.146689
-0.208694
0.137999
-0.211232
0.130391
-0.204001
0.128846
-0.167712
0.13501
-0.0999237
0.144212
0.0136848
0.151136
0.102281
0.152157
0.21961
0.148073
0.275527
0.144033
0.299402
0.143402
0.235569
0.147232
0.0823258
0.15032
0.00597147
0.148727
-0.17723
0.146061
-0.216807
0.143956
-0.299653
0.142247
-0.28502
-0.0104834
0.0629593
0.0227194
0.0713841
0.0277633
0.080553
0.0317607
0.0904038
0.0344227
0.100651
0.0355027
0.110956
0.0344645
0.120964
0.0307217
0.13032
0.023816
0.138689
0.0134064
0.146142
-0.00103674
0.152112
-0.0192241
0.156532
-0.0414538
0.158867
-0.0669339
0.158489
-0.0928788
0.155158
-0.115106
0.1494
-0.130344
0.14231
-0.137954
0.134987
-0.139525
0.128036
-0.137406
0.121634
-0.13355
0.115763
-0.128756
0.109624
-0.123246
0.101614
-0.118476
0.0917087
-0.115951
0.083688
-0.111853
0.0829738
-0.0956359
0.0914415
-0.05918
0.106605
-0.00625085
0.123675
0.0509867
0.139663
0.0996147
0.152712
0.134737
0.161903
0.16184
0.167023
0.190872
0.168553
0.225269
0.167334
0.24742
0.164476
0.229517
0.161108
0.157919
0.15855
0.0466025
0.156962
-0.0632252
0.155336
-0.14716
0.153443
-0.190411
0.150777
-0.208424
0.145568
-0.203485
0.13716
-0.202824
0.12955
-0.196391
0.127816
-0.165977
0.134057
-0.106165
0.143646
0.0040959
0.151225
0.0947017
0.152987
0.217849
0.149368
0.279146
0.1454
0.30337
0.144453
0.236516
0.14826
0.0785186
0.151524
0.00270729
0.149803
-0.175509
0.146899
-0.213903
0.144631
-0.297384
0.14292
-0.283309
-0.00856251
0.0855188
0.0162304
0.0927774
0.0205046
0.100875
0.0236627
0.109653
0.0256451
0.118787
0.0263683
0.127967
0.0252853
0.136861
0.0218272
0.14516
0.0155173
0.15249
0.00607605
0.158882
-0.00742894
0.163748
-0.0240898
0.166775
-0.0444806
0.167279
-0.0674375
0.164681
-0.0902817
0.159058
-0.109482
0.15132
-0.122605
0.142785
-0.129419
0.134572
-0.131312
0.127209
-0.130043
0.120686
-0.127027
0.114887
-0.122957
0.109408
-0.117768
0.102886
-0.111953
0.0942206
-0.107286
0.0854952
-0.103128
0.0820104
-0.0921511
0.0876239
-0.0647935
0.101106
-0.019733
0.118372
0.0337211
0.135475
0.0825109
0.150091
0.120121
0.161096
0.150835
0.168264
0.183704
0.171886
0.221647
0.172271
0.247035
0.169936
0.231851
0.165851
0.162004
0.161888
0.0505663
0.158788
-0.0601259
0.155723
-0.144095
0.15258
-0.187268
0.149334
-0.205178
0.144366
-0.198516
0.136358
-0.194817
0.1288
-0.188833
0.126796
-0.163972
0.132964
-0.112333
0.142896
-0.00583561
0.1512
0.0863971
0.153842
0.215207
0.150825
0.282163
0.146984
0.307211
0.145679
0.237821
0.149377
0.0748207
0.152802
-0.000717089
0.150964
-0.173671
0.147814
-0.210752
0.14538
-0.29495
0.14368
-0.281609
-0.00673053
0.110596
0.0121695
0.115751
0.0153493
0.121974
0.0174396
0.128975
0.0186442
0.136444
0.0188993
0.144105
0.0176249
0.151606
0.0143258
0.15857
0.00855319
0.164882
-0.000235884
0.169869
-0.0124153
0.173298
-0.0275195
0.174549
-0.0457314
0.172954
-0.0658426
0.168156
-0.0854831
0.160577
-0.101904
0.151391
-0.113419
0.141958
-0.119986
0.133274
-0.122628
0.125759
-0.122528
0.119309
-0.120578
0.113678
-0.117325
0.108678
-0.112768
0.1035
-0.106775
0.0966602
-0.100447
0.0884678
-0.0949353
0.082994
-0.0866773
0.0852699
-0.0670694
0.0962648
-0.0307279
0.112791
0.017195
0.130451
0.0648509
0.146351
0.104221
0.159089
0.138097
0.168324
0.174469
0.174102
0.21587
0.1762
0.244937
0.174551
0.233499
0.169963
0.166593
0.16468
0.0558488
0.160185
-0.0556307
0.15582
-0.13973
0.151509
-0.182957
0.147685
-0.201354
0.143008
-0.19384
0.135503
-0.187312
0.12805
-0.18138
0.125708
-0.161631
0.131663
-0.118288
0.141892
-0.0160653
0.150987
0.077303
0.154654
0.21154
0.152398
0.284419
0.148763
0.310846
0.147064
0.239519
0.150567
0.0713184
0.154136
-0.00428659
0.152192
-0.171727
0.148796
-0.207356
0.146191
-0.292345
0.144514
-0.279932
-0.00502055
0.138284
0.0106753
0.141061
0.0125724
0.144943
0.0135573
0.149608
0.0139791
0.154859
0.0136486
0.160453
0.0120308
0.166035
0.00874302
0.171094
0.00349478
0.175696
-0.00483762
0.178765
-0.0154845
0.180165
-0.02892
0.179229
-0.0447951
0.175419
-0.062033
0.168667
-0.0787307
0.159662
-0.0928995
0.149644
-0.1034
0.139844
-0.110186
0.131062
-0.113846
0.123586
-0.115052
0.117311
-0.114304
0.111939
-0.111952
0.107305
-0.108135
0.103114
-0.102583
0.098172
-0.095505
0.091557
-0.0883202
0.0854025
-0.0805228
0.0846565
-0.0663234
0.0923856
-0.038457
0.107164
0.00241704
0.124643
0.0473716
0.141422
0.0874415
0.155707
0.123811
0.166985
0.163191
0.175023
0.207832
0.178954
0.241006
0.178093
0.23436
0.173181
0.171505
0.166792
0.0622375
0.161039
-0.0498782
0.15553
-0.134221
0.150161
-0.177588
0.145757
-0.19695
0.141409
-0.189492
0.13451
-0.180413
0.127214
-0.174084
0.124481
-0.158898
0.130088
-0.123895
0.140569
-0.0265469
0.150503
0.0673691
0.15535
0.206693
0.154025
0.285744
0.15069
0.314181
0.148588
0.241621
0.151811
0.0680955
0.155497
-0.00797316
0.153467
-0.169697
0.149832
-0.203721
0.14705
-0.289563
0.145404
-0.278286
-0.00346928
0.163012
0.0108013
0.164035
0.0115498
0.165861
0.0117315
0.168321
0.0115192
0.171346
0.010623
0.174685
0.00869228
0.178036
0.00539221
0.181035
0.000495429
0.18318
-0.00698301
0.184041
-0.0163446
0.183149
-0.0280283
0.179999
-0.0416449
0.17426
-0.0562947
0.166112
-0.0705821
0.15635
-0.0831382
0.146102
-0.0931514
0.136368
-0.100452
0.127747
-0.105225
0.120438
-0.107743
0.114376
-0.108241
0.109316
-0.106893
0.105044
-0.103863
0.101513
-0.0990519
0.098131
-0.092123
0.093605
-0.0837942
0.0881898
-0.0751077
0.0855059
-0.0636395
0.0898042
-0.0427553
0.101856
-0.00963488
0.118229
0.030999
0.135319
0.0703507
0.150858
0.108272
0.164016
0.150034
0.174214
0.197634
0.180058
0.235161
0.180257
0.234161
0.175292
0.17647
0.168153
0.0693771
0.161296
-0.043022
0.154795
-0.127719
0.148496
-0.171289
0.143509
-0.191962
0.139495
-0.185478
0.133316
-0.174235
0.126246
-0.167014
0.123065
-0.155717
0.128181
-0.12901
0.138867
-0.0372332
0.149672
0.0565645
0.155835
0.200529
0.155613
0.285966
0.152713
0.317081
0.150221
0.244113
0.153087
0.0652302
0.156856
-0.0117427
0.154771
-0.167611
0.150905
-0.199856
0.147941
-0.286599
0.146337
-0.276682
-0.00211701
0.177914
0.0113422
0.178107
0.0113574
0.178702
0.0111361
0.17975
0.0104712
0.181197
0.00917605
0.1828
0.0070892
0.184205
0.0039875
0.185244
-0.000543458
0.185395
-0.00713461
0.184298
-0.0152477
0.181536
-0.0252656
0.176751
-0.0368602
0.169831
-0.0493744
0.1611
-0.0618517
0.151315
-0.0733533
0.141387
-0.0832234
0.132069
-0.0911331
0.123803
-0.0969595
0.116744
-0.100684
0.110878
-0.102375
0.106076
-0.102091
0.102123
-0.0999101
0.098987
-0.0959161
0.096584
-0.08972
0.0939676
-0.0811778
0.0902335
-0.0713735
0.0870818
-0.0604878
0.0885785
-0.044252
0.0972814
-0.0183378
0.111543
0.0167369
0.128153
0.053741
0.144566
0.0918596
0.159566
0.135034
0.172096
0.185104
0.179994
0.227264
0.181201
0.232954
0.176403
0.181268
0.16884
0.07694
0.161124
-0.0353053
0.153756
-0.120352
0.146664
-0.164197
0.141086
-0.186385
0.137324
-0.181716
0.13194
-0.168851
0.125169
-0.160243
0.12148
-0.152028
0.125944
-0.133473
0.136722
-0.0480115
0.148399
0.0448873
0.15604
0.192888
0.157095
0.284911
0.154753
0.319423
0.151929
0.246937
0.154383
0.0627763
0.158185
-0.0155444
0.156089
-0.165515
0.152
-0.195766
0.148851
-0.28345
0.147304
-0.275136
-0.00100586
0.180633
0.0114329
0.180592
0.0113986
0.180817
0.0109112
0.181247
0.0100413
0.181774
0.00864871
0.182297
0.00656658
0.182699
0.00358519
0.182659
-0.00050396
0.181527
-0.00600232
0.179269
-0.0129895
0.17553
-0.021527
0.170115
-0.031445
0.163053
-0.042312
0.154699
-0.0534984
0.145669
-0.0643227
0.136627
-0.0741812
0.128104
-0.0826105
0.120435
-0.0892901
0.113765
-0.0940143
0.10812
-0.0967306
0.103481
-0.0974509
0.0997164
-0.0961458
0.0967425
-0.0929422
0.0947059
-0.0876834
0.0932812
-0.0797531
0.0913163
-0.0694087
0.0888512
-0.0580227
0.0886687
-0.0440695
0.0938937
-0.0235628
0.105245
0.0053853
0.120255
0.0387308
0.136495
0.0756201
0.152514
0.119015
0.167072
0.170546
0.177235
0.2171
0.180061
0.230128
0.176155
0.185175
0.168911
0.0841842
0.160495
-0.0268893
0.152427
-0.112284
0.14478
-0.15655
0.138669
-0.180274
0.135015
-0.178062
0.130429
-0.164265
0.124018
-0.153832
0.11979
-0.1478
0.123523
-0.137206
0.134251
-0.0587397
0.146669
0.0324701
0.155798
0.183758
0.158309
0.2824
0.156731
0.321001
0.153673
0.249994
0.155683
0.0607671
0.159453
-0.0193144
0.157405
-0.163467
0.153089
-0.19145
0.149777
-0.280139
0.148297
-0.273655
-0.000180245
0.19743
0.0116152
-0.197612
0.197848
0.0109808
0.198475
0.0102842
0.199378
0.00913776
0.200587
0.00743967
0.202056
0.00509767
0.203629
0.00201256
0.205253
-0.00212804
0.206642
-0.00739183
0.207553
-0.0139008
0.207662
-0.021636
0.206667
-0.0304496
0.204371
-0.0400162
0.200748
-0.0498751
0.195931
-0.0595056
0.190148
-0.0683985
0.183652
-0.0761146
0.176689
-0.0823265
0.169482
-0.0868073
0.162211
-0.0894604
0.155036
-0.0902753
0.148045
-0.0891545
0.141217
-0.0861146
0.134666
-0.0811329
0.128545
-0.0736313
0.122252
-0.0631161
0.114964
-0.0507351
0.107684
-0.0367888
0.103453
-0.0193317
0.104273
0.00456526
0.109486
0.033518
0.116778
0.0683274
0.124203
0.11159
0.131432
0.163317
0.138913
0.209619
0.148176
0.220865
0.159894
0.173457
0.170432
0.0736465
0.175985
-0.0324425
0.17553
-0.111829
0.170137
-0.151157
0.162607
-0.172744
0.155615
-0.17107
0.148003
-0.156653
0.138978
-0.144806
0.131386
-0.140208
0.12895
-0.13477
0.131748
-0.0615383
0.135625
0.0285939
0.138147
0.181236
0.138876
0.281671
0.140042
0.319835
0.142967
0.247069
0.14854
0.0551941
0.153839
-0.0246136
0.151999
-0.161628
0.146464
-0.185915
0.14127
-0.274945
0.136725
-0.269109
0.00217873
0.209425
0.0112872
-0.209097
0.210024
0.0103817
0.210927
0.00938181
0.212018
0.00804619
0.213234
0.0062237
0.214522
0.00380995
0.215844
0.000690469
0.217016
-0.00330063
0.21786
-0.00823513
0.218144
-0.014185
0.21764
-0.021132
0.216142
-0.0289512
0.213518
-0.0373929
0.209745
-0.0461019
0.204902
-0.0546625
0.199152
-0.0626481
0.192708
-0.0696714
0.185808
-0.0754258
0.178682
-0.0796815
0.171518
-0.0822966
0.164455
-0.0832118
0.1576
-0.0822993
0.150961
-0.0794764
0.144546
-0.0747178
0.13858
-0.0676646
0.132928
-0.057464
0.12674
-0.0445474
0.119919
-0.029968
0.114449
-0.0138614
0.113137
0.00587703
0.116601
0.0300542
0.123346
0.0615824
0.131437
0.103499
0.139918
0.154836
0.148981
0.200556
0.160325
0.20952
0.17373
0.160052
0.185005
0.0623716
0.190029
-0.0374671
0.18856
-0.11036
0.182051
-0.144648
0.173452
-0.164145
0.165767
-0.163385
0.157989
-0.148876
0.148815
-0.135632
0.140603
-0.131996
0.137537
-0.131704
0.14005
-0.064051
0.144306
0.0243377
0.147593
0.17795
0.149286
0.279977
0.151413
0.317709
0.154639
0.243844
0.160142
0.0496905
0.165434
-0.0299052
0.163102
-0.159296
0.156766