/*--------------------------------*- C++ -*----------------------------------*\
| =========                 |                                                 |
| \\      /  F ield         | OpenFOAM: The Open Source CFD Toolbox           |
|  \\    /   O peration     | Version:  2512                                  |
|   \\  /    A nd           | Website:  www.openfoam.com                      |
|    \\/     M anipulation  |                                                 |
\*---------------------------------------------------------------------------*/
FoamFile
{
    version     2.0;
    format      ascii;
    arch        "LSB;label=32;scalar=64";
    class       surfaceScalarField;
    location    "134.25";
    object      phi;
}
// * * * * * * * * * * * * * * * * * * * * * * * * * * * * * * * * * * * * * //

dimensions      [0 3 -1 0 0 0 0];

oriented        oriented;

internalField   nonuniform List<scalar> 
26232
(
-5.48242e-05
0.00101476
-0.000959941
6.92323e-05
0.00193517
-0.00205922
0.000609205
0.00193797
-0.00247794
0.00177924
0.00107621
-0.00224624
0.00378244
-0.000638745
-0.00136446
0.00681242
-0.00321575
0.000185773
0.0110493
-0.00666762
0.00243077
0.0166437
-0.0109956
0.00540121
0.0237006
-0.0161733
0.00911643
0.0322588
-0.0221364
0.0135782
0.0422737
-0.0287778
0.0187628
0.053608
-0.0359511
0.0246168
0.0660315
-0.0434796
0.0310561
0.0792327
-0.0511702
0.037969
0.0928402
-0.0588292
0.0452217
0.106451
-0.0662779
0.0526666
0.119667
-0.0733665
0.0601507
0.132125
-0.0799859
0.0675283
0.143536
-0.0860714
0.0746601
0.153696
-0.091621
0.0814616
0.162529
-0.0966309
0.0877972
0.169983
-0.101297
0.0938435
0.176018
-0.105263
0.0992278
-0.109736
0.105243
0.180511
2.50837e-05
0.000989681
0.000382786
0.00157746
0.00132767
0.000993087
0.00309659
-0.000692713
0.00591276
-0.00345491
0.00997705
-0.00728004
0.0154505
-0.012141
0.0224298
-0.017975
0.0309238
-0.0246673
0.0408351
-0.0320476
0.0519549
-0.0398976
0.0639741
-0.0479704
0.0765086
-0.0560141
0.0891363
-0.0637979
0.10144
-0.0711328
0.11305
-0.0778878
0.123681
-0.0839971
0.133155
-0.0894604
0.141418
-0.0943344
0.148516
-0.0987188
0.154613
-0.102728
0.159828
-0.106513
0.164597
-0.110031
-0.113914
0.168774
0.000124536
0.000865145
0.000773834
0.000928166
0.00221414
-0.000447216
0.00469508
-0.00317366
0.00844023
-0.00720006
0.0136243
-0.0124641
0.0203424
-0.0188592
0.02858
-0.0262126
0.0381932
-0.0342806
0.0489094
-0.0427638
0.06035
-0.0513382
0.0720728
-0.0596932
0.0836261
-0.0675674
0.094603
-0.0747748
0.104688
-0.0812178
0.113688
-0.0868874
0.12154
-0.0918497
0.128305
-0.0962255
0.134133
-0.100162
0.139223
-0.103809
0.143782
-0.107287
0.147988
-0.110718
0.152002
-0.114045
-0.117711
0.155799
0.000238223
0.000626922
0.0012216
-5.52154e-05
0.00322153
-0.00244715
0.0064834
-0.00643552
0.0112006
-0.0119173
0.0174764
-0.0187399
0.025285
-0.0266677
0.0344481
-0.0353757
0.04464
-0.0444725
0.0554236
-0.0535474
0.0663112
-0.0622258
0.0768352
-0.0702172
0.086612
-0.0773442
0.0953867
-0.0835495
0.103052
-0.0888829
0.109637
-0.0934726
0.115277
-0.0974901
0.120167
-0.101115
0.124512
-0.104507
0.128493
-0.107791
0.132256
-0.11105
0.135879
-0.114341
0.139468
-0.117635
-0.121207
0.142965
0.000363805
0.000263117
0.00171297
-0.00140438
0.00431181
-0.00504599
0.00837559
-0.0104993
0.0140263
-0.017568
0.0212429
-0.0259565
0.0298293
-0.0352541
0.0394197
-0.0449661
0.0495273
-0.0545801
0.0596246
-0.0636446
0.0692305
-0.0718317
0.0779826
-0.0789693
0.0856774
-0.0850389
0.0922733
-0.0901455
0.0978624
-0.094472
0.102621
-0.0982315
0.106758
-0.101627
0.110468
-0.104825
0.113909
-0.107947
0.11719
-0.111072
0.120382
-0.114242
0.123524
-0.117483
0.126666
-0.120777
-0.124277
0.129736
0.000501371
-0.000238254
0.00223908
-0.00314209
0.00544891
-0.00825582
0.0102801
-0.0153305
0.0167342
-0.0240221
0.0246181
-0.0338404
0.0335427
-0.0441787
0.0429799
-0.0544032
0.0523614
-0.0639617
0.0611857
-0.0724689
0.0690984
-0.0797445
0.0759289
-0.0857998
0.0816792
-0.0907892
0.0864796
-0.0949458
0.0905285
-0.0985209
0.0940365
-0.10174
0.0971875
-0.104778
0.10012
-0.107758
0.102929
-0.110756
0.105672
-0.113814
0.108382
-0.116952
0.111077
-0.120178
0.113782
-0.123482
-0.126943
0.116448
0.000650325
-0.000888579
0.00278674
-0.0052785
0.00658501
-0.0120541
0.0120842
-0.0208297
0.0191188
-0.0310567
0.0272989
-0.0420205
0.0360655
-0.0529453
0.0448063
-0.063144
0.052984
-0.0721393
0.0602313
-0.0797162
0.0663866
-0.0858998
0.0714734
-0.0908866
0.0756424
-0.0949582
0.0791033
-0.0984067
0.0820669
-0.101484
0.0847096
-0.104382
0.0871602
-0.107228
0.089503
-0.110101
0.0917882
-0.113041
0.0940443
-0.11607
0.0962864
-0.119195
0.0985222
-0.122414
0.100764
-0.125723
-0.129152
0.102973
0.000807117
-0.0016957
0.0033331
-0.00780449
0.0076543
-0.0163753
0.0136548
-0.0268302
0.0209726
-0.0383745
0.0290358
-0.0500836
0.0371856
-0.0610952
0.0448308
-0.0707891
0.0515638
-0.0788723
0.0572051
-0.0853575
0.0617775
-0.0904722
0.0654385
-0.0945476
0.0684041
-0.0979238
0.070887
-0.10089
0.0730616
-0.103659
0.0750527
-0.106373
0.0769401
-0.109116
0.0787705
-0.111931
0.0805694
-0.11484
0.0823504
-0.117851
0.0841212
-0.120965
0.0858862
-0.124179
0.0876514
-0.127488
-0.130895
0.0893945
0.00096455
-0.00266025
0.00384556
-0.0106855
0.00857818
-0.0211079
0.0148573
-0.0331093
0.0221262
-0.0456434
0.0296869
-0.0576443
0.0368767
-0.068285
0.0432176
-0.07713
0.0484809
-0.0841357
0.0526653
-0.0895419
0.0559222
-0.0937291
0.05847
-0.0970955
0.0605263
-0.09998
0.0622686
-0.102632
0.0638229
-0.105214
0.065269
-0.107819
0.0666524
-0.110499
0.0679978
-0.113277
0.0693183
-0.116161
0.0706212
-0.119154
0.0719106
-0.122255
0.0731897
-0.125458
0.0744607
-0.128759
-0.132146
0.0757119
0.00111259
-0.00377283
0.00428608
-0.013859
0.00927829
-0.0261001
0.0155823
-0.0394133
0.0224834
-0.0525445
0.0292401
-0.064401
0.0352738
-0.0743188
0.0402714
-0.0821276
0.0441787
-0.088043
0.0471248
-0.092488
0.0493255
-0.0959298
0.0510048
-0.0987748
0.0523486
-0.101324
0.053489
-0.103772
0.0545096
-0.106234
0.0554576
-0.108767
0.0563585
-0.1114
0.0572252
-0.114143
0.0580651
-0.117001
0.0588825
-0.119972
0.0596803
-0.123052
0.0604607
-0.126238
0.0612246
-0.129523
-0.13289
0.0619683
0.00124041
-0.00501324
0.00461863
-0.0172372
0.00969192
-0.0311734
0.0157663
-0.0454877
0.0220337
-0.0588119
0.0277933
-0.0701606
0.0326084
-0.0791339
0.0363367
-0.0858558
0.0390612
-0.0907675
0.040985
-0.0944118
0.0423381
-0.0972829
0.0433184
-0.0997551
0.0440697
-0.102075
0.0446832
-0.104386
0.0452108
-0.106762
0.0456799
-0.109237
0.0461044
-0.111825
0.0464918
-0.114531
0.0468469
-0.117356
0.0471728
-0.120297
0.0474714
-0.123351
0.0477441
-0.126511
0.0479899
-0.129769
-0.133109
0.0482092
0.00134086
-0.00635411
0.00481818
-0.0207145
0.00978402
-0.0361392
0.0154001
-0.0511038
0.0208421
-0.064254
0.0255157
-0.0748341
0.029146
-0.0827642
0.0317359
-0.0884457
0.033457
-0.0924886
0.0345393
-0.0954941
0.035195
-0.0979386
0.0355843
-0.100144
0.035811
-0.102302
0.0359348
-0.10451
0.0359869
-0.106814
0.035983
-0.109233
0.035931
-0.111773
0.0358359
-0.114436
0.0357012
-0.117221
0.0355297
-0.120126
0.0353234
-0.123145
0.0350833
-0.126271
0.0348077
-0.129493
0.0344997
-0.132802
-0.000293287
-4.45655e-05
0.000337852
-0.000996316
0.000553031
0.000149998
-0.00201033
0.00162536
-0.00061134
-0.00327066
0.00298684
-0.00172652
-0.00473111
0.00449566
-0.0030352
-0.00635523
0.00606673
-0.00444262
-0.00811023
0.00766699
-0.00591199
-0.00996371
0.00930259
-0.0074491
-0.0118821
0.0110025
-0.00908411
-0.0138303
0.0128029
-0.0108547
-0.0157706
0.0147346
-0.0127942
-0.0176625
0.0168165
-0.0149246
-0.0194606
0.0190521
-0.0172541
-0.0211133
0.0214285
-0.0197758
-0.0225615
0.0239162
-0.022468
-0.023738
0.0264687
-0.0252923
-0.0245671
0.0290215
-0.0281923
-0.0249667
0.0314916
-0.031092
-0.0248498
0.0337777
-0.0338946
-0.0241276
0.0357621
-0.0364843
-0.0227138
0.0373165
-0.0387303
-0.0205331
0.0383091
-0.0404898
-0.0175335
0.038613
-0.0416126
0.0381855
-0.0137335
-0.0419855
-0.000232895
0.000188329
-0.00078842
0.00110856
-0.00158484
0.00242178
-0.00256741
0.00396941
-0.00369656
0.00562481
-0.0049389
0.00730907
-0.00626084
0.00898892
-0.00762498
0.0106667
-0.00898898
0.0123665
-0.0103057
0.0141196
-0.0115239
0.0159528
-0.0125882
0.0178808
-0.0134389
0.0199028
-0.0140111
0.0220007
-0.0142342
0.0241393
-0.0140318
0.0262662
-0.0133223
0.028312
-0.012021
0.0301903
-0.0100436
0.0318003
-0.00730776
0.0330262
-0.00373653
0.0337453
0.000739195
0.0338334
0.00616922
0.033183
0.0317694
0.0125853
-0.000162465
0.000350794
-0.000546978
0.00149307
-0.00108858
0.00296339
-0.0017414
0.00462223
-0.0024709
0.0063543
-0.00324583
0.008084
-0.00403192
0.00977501
-0.00478801
0.0114228
-0.00546483
0.0130433
-0.00600559
0.0146604
-0.00634742
0.0162946
-0.00642231
0.0179557
-0.00615888
0.0196394
-0.00548203
0.0213239
-0.00431358
0.0229709
-0.00257327
0.0245259
-0.000180698
0.0259194
0.00294266
0.027067
0.00687186
0.0278711
0.0116728
0.0282253
0.0174018
0.0280163
0.024102
0.0271332
0.031802
0.025483
0.0229491
0.0406223
-9.58411e-05
0.000446635
-0.000314604
0.00171183
-0.000603391
0.00325217
-0.000920969
0.00493981
-0.00123449
0.00666782
-0.00151317
0.00836268
-0.00172204
0.00998389
-0.00181798
0.0115188
-0.00174804
0.0129734
-0.00144993
0.0143623
-0.000853805
0.0156985
0.000114928
0.016987
0.00153548
0.0182189
0.00348834
0.019371
0.00605405
0.0204052
0.0093117
0.0212683
0.013337
0.0218941
0.0181993
0.0222046
0.0239584
0.022112
0.0306624
0.0215213
0.0383447
0.020334
0.0470373
0.0184406
0.0567083
0.0158119
0.0120513
0.0676062
-4.46062e-05
0.000491241
-0.000129349
0.00179658
-0.000204697
0.00332752
-0.000227903
0.00496301
-0.000163847
0.00660377
2.06739e-05
0.00817816
0.000362021
0.00964254
0.00090393
0.0109768
0.00169965
0.0121777
0.00281195
0.01325
0.00431163
0.0141988
0.0062754
0.0150232
0.00878243
0.0157118
0.0119126
0.0162409
0.015744
0.0165738
0.0203507
0.0166616
0.0258006
0.0164443
0.0321532
0.015852
0.0394581
0.0148071
0.0477541
0.0132253
0.0570613
0.0110267
0.067435
0.00806699
0.0787553
0.00449157
-0.000682444
0.091489
-1.69821e-05
0.000508224
-1.84898e-05
0.00179808
5.16517e-05
0.00325738
0.000244068
0.0047706
0.00060122
0.00624661
0.00116122
0.00761816
0.00196313
0.00884064
0.00305107
0.00988891
0.00447682
0.0107519
0.00630048
0.0114263
0.00858946
0.0119098
0.0114165
0.0121962
0.0148572
0.0122712
0.0189873
0.0121108
0.0238808
0.0116802
0.029608
0.0109344
0.0362338
0.00981849
0.0438176
0.00826811
0.0524127
0.00621202
0.0620679
0.0035701
0.0727959
0.000298679
0.0847338
-0.00387091
0.097675
-0.00844957
-0.0152968
0.112289
-1.57256e-05
0.000523949
7.84693e-06
0.00177451
0.000143509
0.00312172
0.00045532
0.00445879
0.000996285
0.00570565
0.00181239
0.00680205
0.00294754
0.00770549
0.00444784
0.00838861
0.00636465
0.00883513
0.00875596
0.00903499
0.0116864
0.00897934
0.0152264
0.00865626
0.01945
0.00804752
0.0244341
0.00712661
0.0302568
0.00585755
0.0369961
0.00419512
0.0447285
0.00208615
0.05353
-0.000533455
0.0634761
-0.00373408
0.07464
-0.00759375
0.0870728
-0.0121341
0.100882
-0.01768
0.115819
-0.0233866
-0.0320261
0.132548
-3.74801e-05
0.000561429
-3.9494e-05
0.00177652
9.124e-05
0.00299098
0.000436328
0.0041137
0.00106216
0.00507982
0.00202568
0.00583853
0.00337941
0.00635176
0.00517622
0.00659179
0.00747302
0.00653833
0.0103331
0.00617489
0.0138274
0.0054851
0.0180342
0.00444937
0.0230394
0.00304241
0.0289339
0.00123203
0.0358143
-0.00102278
0.0437787
-0.00376931
0.0529246
-0.00705974
0.0633423
-0.0109512
0.0751061
-0.0154979
0.0882723
-0.02076
0.102849
-0.026711
0.118833
-0.0336634
0.135992
-0.0405463
-0.0504873
0.154453
-7.24057e-05
0.000633835
-0.000127336
0.00183145
-3.83366e-05
0.00290198
0.000295783
0.00377958
0.000959436
0.00441617
0.00202539
0.00477257
0.00356183
0.00481532
0.00563786
0.00451576
0.00832776
0.00384843
0.0117139
0.0027888
0.0158877
0.00131123
0.0209499
-0.000612795
0.0270077
-0.00301544
0.0341718
-0.00593206
0.0425493
-0.00940022
0.0522366
-0.0134567
0.0633108
-0.0181339
0.0758159
-0.0234563
0.0897516
-0.0294335
0.105054
-0.0360629
0.12161
-0.0432667
0.139137
-0.0511904
0.157521
-0.0589299
-0.0689769
0.17601
-0.000105141
0.000738976
-0.000205628
0.00193194
-0.00014466
0.00284102
0.00020319
0.00343173
0.000944138
0.00367522
0.00217491
0.0035418
0.00398969
0.00300054
0.00648578
0.00201967
0.00976719
0.000567019
0.0139455
-0.00138949
0.019138
-0.00388128
0.025463
-0.00693776
0.0330318
-0.0105843
0.0419391
-0.0148394
0.0522506
-0.0197117
0.0639907
-0.0251968
0.0771309
-0.031274
0.091579
-0.0379045
0.10717
-0.0450249
0.123667
-0.0525591
0.140768
-0.060368
0.157998
-0.0684204
0.175232
-0.0761636
-0.0848726
0.191127
-0.000119046
0.000858022
-0.000219662
0.00203256
-0.000115945
0.0027373
0.000343791
0.00297199
0.00129494
0.00272407
0.00286603
0.00197071
0.0051851
0.000681467
0.00838346
-0.00117869
0.0125946
-0.00364415
0.0179496
-0.00674442
0.0245678
-0.0104995
0.0325453
-0.0149153
0.0419411
-0.0199801
0.0527633
-0.0256616
0.0649573
-0.0319057
0.0783977
-0.0386372
0.0928844
-0.0457607
0.108146
-0.0531665
0.123846
-0.0607249
0.139614
-0.0683269
0.15504
-0.0757939
0.169747
-0.083127
0.183495
-0.0899116
-0.0966585
0.195281
-0.000101919
-0.000128585
0.000130777
0.000856522
0.00221613
0.00437262
0.00748485
0.0117074
0.0171797
0.0240134
0.0322768
0.0419783
0.0530544
0.0653618
0.0786778
0.0927071
0.107097
0.121459
0.135394
0.148529
0.160532
0.171249
0.180565
0.18915
-0.00723953
0.0493649
-0.0558589
0.000156041
0.0447005
-0.0520961
0.00835583
0.0370151
-0.0452149
0.0171919
0.0261664
-0.0350025
0.0264299
0.0120526
-0.0212907
0.0357713
-0.00521506
-0.0041263
0.0452368
-0.0253865
0.015921
0.0545605
-0.0479456
0.0386218
0.0635978
-0.0717186
0.0626813
0.0721227
-0.0948884
0.0863634
0.0797072
-0.115246
0.107661
0.0857947
-0.13087
0.124783
0.0898331
-0.14082
0.136782
0.0912068
-0.145525
0.144151
0.0893125
-0.147034
0.148928
0.0843657
-0.148378
0.153325
0.0783723
-0.150772
0.156766
0.0747808
-0.150392
0.153983
0.0764839
-0.138983
0.137279
0.0839242
-0.109422
0.101981
0.0954995
-0.0613997
0.0498244
0.108954
-0.00186875
-0.0115856
0.122254
0.0585886
-0.0718884
0.133588
0.109452
-0.120786
0.141723
0.145319
-0.153454
0.146544
0.166439
-0.17126
0.148724
0.176137
-0.178317
0.148379
0.18012
-0.179775
0.144796
0.186938
-0.183355
0.138226
0.200522
-0.193951
0.131269
0.20981
-0.202854
0.127537
0.192667
-0.188936
0.128906
0.133946
-0.135315
0.13473
0.0436409
-0.0494645
0.142473
-0.0531325
0.0453891
0.149782
-0.130354
0.123045
0.15523
-0.179348
0.1739
0.157892
-0.201479
0.198817
0.156351
-0.213183
0.214725
0.15005
-0.226084
0.232385
0.141244
-0.23444
0.243246
0.134428
-0.21949
0.226306
0.132935
-0.15253
0.154023
0.137257
-0.0572082
0.0528865
0.14469
0.0571064
-0.0645393
0.151283
0.136608
-0.143201
0.152865
0.203409
-0.20499
0.148536
0.249015
-0.244687
0.141794
0.27065
-0.263908
0.137966
0.259623
-0.255795
0.139689
0.147291
-0.149014
0.145028
0.0551873
-0.0605261
0.1482
-0.0957264
0.0925544
0.147077
-0.176387
0.17751
0.144025
-0.259506
0.262557
0.142392
-0.323036
0.32467
0.142365
-0.195444
0.195471
0.142289
-0.173721
0.173797
0.140695
0.0949435
-0.093349
0.217597
-0.215702
0.019859
0.0420912
0.0276112
0.0369483
0.035701
0.0289252
0.0439578
0.0179097
0.0521725
0.00383785
0.0601776
-0.0132202
0.0679194
-0.0331282
0.0753088
-0.055335
0.0822227
-0.0786324
0.0884073
-0.101073
0.0934556
-0.120294
0.0969209
-0.134336
0.0984955
-0.142395
0.0979425
-0.144972
0.0947555
-0.143847
0.0884736
-0.142096
0.08004
-0.142339
0.0725886
-0.14294
0.0700717
-0.136466
0.0745614
-0.113911
0.085163
-0.0720013
0.0993943
-0.0161001
0.114509
0.0434744
0.128113
0.0958477
0.138598
0.134834
0.145639
0.159397
0.149666
0.17211
0.150666
0.179119
0.148203
0.189401
0.142921
0.205804
0.137341
0.215391
0.134429
0.195579
0.135514
0.132862
0.140242
0.0389124
0.146335
-0.059225
0.151834
-0.135853
0.155535
-0.183049
0.156877
-0.202821
0.154569
-0.210876
0.147811
-0.219326
0.138537
-0.225165
0.131406
-0.212359
0.130132
-0.151257
0.135341
-0.0624175
0.143893
0.0485548
0.151332
0.12917
0.15349
0.20125
0.149528
0.252976
0.143052
0.277127
0.139089
0.263586
0.140474
0.145905
0.145655
0.0500061
0.148755
-0.0988262
0.147531
-0.175163
0.144192
-0.256167
0.142481
-0.321324
0.14227
-0.195233
0.141962
-0.173413
0.140265
0.0966402
0.219526
0.0479623
0.0347512
0.0555634
0.0293472
0.0631794
0.0213093
0.0705693
0.0105198
0.077677
-0.0032699
0.0842791
-0.0198222
0.0903696
-0.0392187
0.0958841
-0.0608495
0.100679
-0.0834278
0.10449
-0.104883
0.10696
-0.122765
0.107774
-0.135149
0.106829
-0.14145
0.104266
-0.142409
0.0999591
-0.13954
0.0931678
-0.135305
0.0836706
-0.132841
0.0735292
-0.132799
0.0669764
-0.129913
0.0677267
-0.114661
0.0763168
-0.0805914
0.0904334
-0.0302167
0.106815
0.0270931
0.122373
0.080289
0.13513
0.122078
0.144435
0.150092
0.1504
0.166145
0.152934
0.176585
0.151902
0.190433
0.148194
0.209512
0.14407
0.219515
0.141801
0.197847
0.142436
0.132227
0.145705
0.0356428
0.150041
-0.0635605
0.153697
-0.139508
0.155681
-0.185034
0.155764
-0.202904
0.152844
-0.207955
0.145869
-0.212351
0.136319
-0.215616
0.128887
-0.204927
0.127706
-0.150076
0.133594
-0.0683053
0.143117
0.0390323
0.151372
0.120915
0.154198
0.198425
0.150732
0.256442
0.144596
0.283262
0.140489
0.267693
0.141441
0.144954
0.146399
0.0450476
0.149426
-0.101853
0.148098
-0.173835
0.144427
-0.252496
0.142612
-0.31951
0.142273
-0.194894
0.141787
-0.172926
0.140006
0.0984206
0.221481
0.0747319
0.0276255
0.0819106
0.0221685
0.0889183
0.0143016
0.0954672
0.00397081
0.101569
-0.00937159
0.106973
-0.0252259
0.111653
-0.0438996
0.115481
-0.0646767
0.118248
-0.0861948
0.119673
-0.106308
0.119506
-0.122598
0.117674
-0.133317
0.114326
-0.138102
0.109822
-0.137905
0.104443
-0.134161
0.0976703
-0.128533
0.088444
-0.123615
0.0772366
-0.121591
0.067517
-0.120193
0.0641128
-0.111257
0.0695266
-0.0860052
0.0823885
-0.0430787
0.0992803
0.0102013
0.116359
0.0632103
0.13123
0.107206
0.142789
0.138533
0.150767
0.158168
0.155022
0.172331
0.155691
0.189764
0.15378
0.211423
0.15114
0.222155
0.149406
0.199581
0.149345
0.132288
0.151059
0.0339294
0.153518
-0.0660202
0.155355
-0.141345
0.155681
-0.18536
0.154554
-0.201777
0.151123
-0.204524
0.144142
-0.205371
0.134541
-0.206014
0.126849
-0.197236
0.125606
-0.148832
0.131969
-0.0746691
0.142306
0.0286956
0.151365
0.111856
0.154963
0.194826
0.152135
0.25927
0.146432
0.288965
0.142187
0.271938
0.142612
0.144529
0.147246
0.0404138
0.150194
-0.104801
0.148769
-0.172409
0.144725
-0.248452
0.142774
-0.317559
0.142364
-0.194484
0.141752
-0.172314
0.139911
0.100261
0.22345
0.0984446
0.0206699
0.105214
0.0153989
0.111586
0.00792994
0.117745
-0.00218785
0.122992
-0.0146192
0.127477
-0.0297108
0.130993
-0.0474152
0.133287
-0.0669711
0.134069
-0.0869761
0.133088
-0.105328
0.130296
-0.119806
0.125936
-0.128957
0.120447
-0.132612
0.114303
-0.13176
0.107942
-0.1278
0.101275
-0.121865
0.0931408
-0.115481
0.0825781
-0.111029
0.0713285
-0.108944
0.064146
-0.104075
0.0654588
-0.0873179
0.0757339
-0.0533538
0.0921376
-0.00620238
0.110109
0.0452385
0.126792
0.0905235
0.14048
0.124845
0.150487
0.148161
0.156614
0.166203
0.159211
0.187167
0.159277
0.211358
0.158165
0.223267
0.156903
0.200844
0.156065
0.133126
0.156097
0.0338973
0.156679
-0.0666029
0.156746
-0.141412
0.155501
-0.184115
0.153225
-0.1995
0.149365
-0.200663
0.14256
-0.198566
0.133127
-0.196581
0.125254
-0.189362
0.123809
-0.147387
0.130398
-0.0812581
0.141398
0.017695
0.151253
0.102001
0.15574
0.190339
0.153705
0.261306
0.148541
0.294129
0.144174
0.276305
0.143981
0.144721
0.148197
0.0361977
0.151037
-0.10764
0.149529
-0.170902
0.145082
-0.244004
0.142954
-0.315432
0.142527
-0.194057
0.141842
-0.171629
0.139969
0.102134
0.225417
0.119038
0.0139209
0.125548
0.00888896
0.131541
0.00193768
0.137193
-0.00784005
0.14183
-0.0192564
0.145495
-0.0333759
0.147866
-0.0497859
0.148589
-0.0676944
0.147349
-0.0857367
0.144012
-0.101991
0.13877
-0.114564
0.13216
-0.122348
0.124882
-0.125335
0.117516
-0.124394
0.110453
-0.120738
0.103836
-0.115247
0.0969267
-0.108572
0.0881632
-0.102265
0.0773402
-0.0981207
0.0677475
-0.0944822
0.0647242
-0.0842946
0.0712311
-0.0598608
0.0855819
-0.0205532
0.103716
0.0271043
0.121719
0.0725203
0.137274
0.10929
0.149243
0.136192
0.157334
0.158111
0.162014
0.182487
0.164183
0.209189
0.164691
0.222759
0.163932
0.201603
0.162285
0.134772
0.160701
0.0354815
0.159431
-0.0653325
0.157805
-0.139786
0.155101
-0.181412
0.151746
-0.196146
0.147511
-0.196428
0.141023
-0.192078
0.13197
-0.187529
0.124021
-0.181413
0.12225
-0.145616
0.128824
-0.0878314
0.140318
0.00620075
0.150965
0.091354
0.156462
0.184842
0.155378
0.26239
0.150874
0.298633
0.146418
0.28076
0.145545
0.145595
0.149227
0.032516
0.151925
-0.110339
0.150362
-0.169338
0.145491
-0.239134
0.143143
-0.313083
0.142748
-0.193661
0.142042
-0.170923
0.140169
0.104007
0.227359
0.138621
0.00784811
0.14441
0.0031003
0.150258
-0.00391035
0.154928
-0.0125104
0.15866
-0.0229885
0.16117
-0.0358855
0.162048
-0.0506638
0.16091
-0.0665569
0.15751
-0.082337
0.151895
-0.0963748
0.144505
-0.107174
0.136096
-0.113939
0.127499
-0.116737
0.119345
-0.11624
0.11194
-0.113333
0.105399
-0.108706
0.0994337
-0.102607
0.0927565
-0.0955881
0.0839331
-0.0892973
0.0740074
-0.0845565
0.0675293
-0.0778166
0.0693752
-0.0617066
0.0803123
-0.0314904
0.0973747
0.010042
0.115957
0.0539378
0.132985
0.0922627
0.146761
0.122416
0.156825
0.148047
0.163669
0.175644
0.168022
0.204836
0.170193
0.220588
0.170011
0.201784
0.167806
0.136977
0.164666
0.0386215
0.161679
-0.0623452
0.158457
-0.136564
0.154432
-0.177387
0.150087
-0.1918
0.145509
-0.19185
0.13943
-0.185999
0.13094
-0.179039
0.123046
-0.173518
0.120866
-0.143437
0.12718
-0.0941452
0.13899
-0.0056097
0.150418
0.0799257
0.157042
0.178218
0.157075
0.262357
0.153359
0.302349
0.148862
0.285258
0.147283
0.147174
0.150314
0.0294858
0.152829
-0.112855
0.151244
-0.167753
0.145945
-0.233835
0.14333
-0.310469
0.143012
-0.193343
0.142333
-0.170245
0.140499
0.105842
0.22925
0.158996
0.00330586
0.163754
-0.00165851
0.167973
-0.0081289
0.171113
-0.0156505
0.173247
-0.0251223
0.173962
-0.0366002
0.172826
-0.0495283
0.169521
-0.0632515
0.163941
-0.0767574
0.156326
-0.0887595
0.147296
-0.0981451
0.137702
-0.104344
0.128363
-0.107398
0.119867
-0.107744
0.112451
-0.105918
0.106117
-0.102372
0.100765
-0.0972545
0.0957361
-0.0905592
0.0894954
-0.0830566
0.0812252
-0.0762863
0.0732929
-0.0698842
0.0707583
-0.0591719
0.0770763
-0.0378084
0.0914992
-0.0043809
0.10956
0.0358769
0.127474
0.0743486
0.142813
0.107078
0.154794
0.136066
0.163804
0.166633
0.170348
0.198292
0.174213
0.216724
0.174732
0.201265
0.172128
0.139581
0.167851
0.0428984
0.163306
-0.0578001
0.158622
-0.13188
0.153433
-0.172198
0.148202
-0.186569
0.143297
-0.186945
0.137679
-0.180381
0.129898
-0.171258
0.122196
-0.165817
0.119572
-0.140812
0.125402
-0.0999757
0.137343
-0.0175503
0.149524
0.0677443
0.15738
0.170362
0.158688
0.26105
0.155896
0.30514
0.151438
0.289716
0.14915
0.149462
0.151434
0.0272016
0.153716
-0.115137
0.15215
-0.166187
0.14643
-0.228115
0.143507
-0.307545
0.143304
-0.19314
0.142699
-0.16964
0.140945
0.107596
0.231055
0.178579
0.000737388
0.181151
-0.00423023
0.183025
-0.0100035
0.183987
-0.0166126
0.183925
-0.0250598
0.182388
-0.0350635
0.179008
-0.0461482
0.173596
-0.057839
0.166195
-0.0693571
0.157179
-0.0797429
0.147224
-0.0881905
0.13714
-0.0942602
0.127642
-0.0979007
0.119205
-0.0993069
0.112016
-0.0987277
0.106022
-0.0963788
0.101123
-0.0923547
0.0971021
-0.0865386
0.0930426
-0.0789971
0.0874722
-0.0707159
0.0804402
-0.0628522
0.0753109
-0.0540427
0.0768306
-0.0393281
0.0868071
-0.0143574
0.102881
0.0198032
0.120734
0.0564952
0.137211
0.0906012
0.150971
0.122305
0.162151
0.155453
0.17095
0.189494
0.176571
0.211102
0.177847
0.199988
0.175106
0.142322
0.170009
0.0479956
0.164194
-0.0519857
0.158201
-0.125886
0.152006
-0.166003
0.146018
-0.180582
0.140797
-0.181724
0.135661
-0.175244
0.128707
-0.164305
0.121333
-0.158443
0.118267
-0.137746
0.123432
-0.105141
0.135318
-0.0294359
0.148196
0.0548664
0.157372
0.161186
0.160109
0.258313
0.158375
0.306874
0.154046
0.294046
0.151111
0.152396
0.152546
0.0257674
0.154549
-0.117141
0.153048
-0.164686
0.146935
-0.222002
0.143666
-0.304277
0.143613
-0.193087
0.143122
-0.169148
0.141495
0.109222
0.232735
0.191976
-0.000110942
0.192323
-0.00457749
0.191849
-0.00952956
0.190639
-0.015403
0.188437
-0.0228578
0.184844
-0.0314699
0.179624
-0.0409287
0.172712
-0.0509267
0.164246
-0.0608912
0.15464
-0.0701363
0.144519
-0.0780704
0.134568
-0.084309
0.125358
-0.0886904
0.117254
-0.091203
0.11041
-0.0918835
0.104803
-0.0907725
0.100328
-0.0878793
0.0969097
-0.0831202
0.0942426
-0.07633
0.0912452
-0.0677185
0.0867187
-0.0583256
0.081574
-0.048898
0.0796331
-0.0373873
0.0846383
-0.0193627
0.0969276
0.00751396
0.11322
0.0402029
0.130011
0.0738104
0.145224
0.107091
0.158432
0.142246
0.169384
0.178542
0.176829
0.203657
0.17912
0.197697
0.176552
0.14489
0.171128
0.0534194
0.164316
-0.0451731
0.157137
-0.118707
0.150072
-0.158938
0.143479
-0.173989
0.137959
-0.176204
0.133286
-0.170571
0.127261
-0.158279
0.120344
-0.151526
0.116857
-0.13426
0.121204
-0.109488
0.132868
-0.0410992
0.146361
0.0413732
0.156908
0.150638
0.16119
0.254032
0.160655
0.307409
0.156586
0.298115
0.153082
0.1559
0.153639
0.02521
0.155299
-0.118801
0.153905
-0.163292
0.147448
-0.215545
0.143809
-0.300638
0.143934
-0.193212
0.143584
-0.168798
0.142139
0.110667
0.234246
0.195125
4.43515e-05
0.19407
-0.00352217
0.192129
-0.00758881
0.189526
-0.0127993
0.185965
-0.019297
0.18118
-0.0266856
0.175064
-0.0348122
0.167613
-0.0434761
0.159004
-0.0522823
0.149621
-0.0607533
0.139984
-0.0684329
0.130628
-0.0749532
0.121995
-0.0800568
0.114371
-0.0835791
0.107895
-0.0854076
0.102596
-0.0854738
0.0984327
-0.083716
0.0953654
-0.080053
0.0933729
-0.0743375
0.0920478
-0.0663933
0.0902261
-0.0565039
0.0871139
-0.0457858
0.0843011
-0.0345744
0.08545
-0.0205116
0.0930711
-0.000107123
0.106083
0.0271914
0.121796
0.0580966
0.137752
0.0911362
0.152861
0.127137
0.166195
0.165207
0.175606
0.194247
0.17882
0.194483
0.176715
0.146994
0.171302
0.0588324
0.163898
-0.0377693
0.155664
-0.110472
0.147835
-0.151109
0.140776
-0.16693
0.134953
-0.170382
0.130633
-0.166251
0.125566
-0.153212
0.119219
-0.14518
0.115319
-0.13036
0.118705
-0.112874
0.129949
-0.0523428
0.14393
0.0273916
0.155914
0.138655
0.161881
0.248064
0.162645
0.306645
0.158949
0.30181
0.155058
0.159792
0.154669
0.0255985
0.155958
-0.120089
0.154698
-0.162032
0.147965
-0.208812
0.143951
-0.296623
0.144269
-0.19353
0.144072
-0.168602
0.142864
0.111875
0.235541
0.18845
0.000744238
0.186831
-0.00190326
0.184597
-0.00535489
0.181701
-0.00990342
0.177844
-0.0154402
0.172966
-0.0218067
0.16703
-0.0288767
0.160057
-0.0365035
0.152216
-0.0444405
0.143818
-0.0523554
0.135263
-0.0598781
0.126955
-0.0666452
0.11923
-0.0723315
0.112322
-0.0766714
0.106364
-0.0794493
0.101409
-0.0805188
0.097469
-0.0797764
0.0945302
-0.0771143
0.0926304
-0.0724376
0.0918112
-0.0655741
0.0915662
-0.056259
0.090748
-0.0449677
0.089086
-0.0329123
0.0885605
-0.0199861
0.0919402
-0.00348687
0.100862
0.0182698
0.113754
0.0452047
0.128731
0.0761587
0.14449
0.111378
0.159587
0.15011
0.170958
0.182876
0.17588
0.189562
0.175308
0.147566
0.170918
0.0632227
0.163023
-0.0298747
0.153862
-0.101311
0.145478
-0.142725
0.138141
-0.159592
0.132017
-0.164258
0.127859
-0.162092
0.12368
-0.149033
0.117994
-0.139493
0.113686
-0.126052
0.116076
-0.115264
0.126705
-0.0629721
0.140974
0.0131227
0.154187
0.125442
0.161893
0.240358
0.164128
0.30441
0.16103
0.304908
0.156915
0.163908
0.155646
0.026867
0.156502
-0.120945
0.155409
-0.160939
0.148479
-0.201881
0.144093
-0.292238
0.144604
-0.194041
0.144584
-0.168581
0.143665
0.112795
0.236572
0.209631
0.00128338
-0.21017
0.20981
-0.00208234
0.209976
-0.00552072
0.209831
-0.00975824
0.20923
-0.0148398
0.208039
-0.0206153
0.206139
-0.0269771
0.203419
-0.0337826
0.199814
-0.0408364
0.195344
-0.0478853
0.190094
-0.0546281
0.184195
-0.0607463
0.177798
-0.0659344
0.171059
-0.069932
0.164129
-0.0725198
0.157149
-0.0735387
0.150246
-0.0728735
0.14352
-0.0703881
0.137045
-0.0659624
0.130976
-0.0595049
0.125378
-0.0506618
0.119719
-0.039308
0.113182
-0.0263751
0.106173
-0.0129779
0.100708
0.00197855
0.0986338
0.020344
0.100686
0.0431521
0.105965
0.0708801
0.113389
0.103955
0.122162
0.141337
0.132269
0.172769
0.145563
0.176268
0.162271
0.130857
0.176425
0.0490684
0.183378
-0.0368273
0.182698
-0.100631
0.177158
-0.137185
0.169151
-0.151586
0.160483
-0.15559
0.152823
-0.154432
0.145413
-0.141624
0.136709
-0.130789
0.128566
-0.117909
0.124947
-0.111644
0.127496
-0.0655212
0.13263
0.00798901
0.137126
0.120945
0.139802
0.237683
0.142193
0.302019
0.145386
0.301715
0.149185
0.160108
0.153045
0.0230077
0.155687
-0.123588
0.154048
-0.1593
0.146825
-0.194659
0.13985
-0.285263
0.137057
-0.191248
0.133681
-0.165205
0.130837
0.115638
0.237502
0.21957
0.00150703
-0.219794
0.219385
-0.00189769
0.219336
-0.00547135
0.219028
-0.00944999
0.218233
-0.0140456
0.216864
-0.0192459
0.21483
-0.0249435
0.21205
-0.0310017
0.208471
-0.0372579
0.204095
-0.0435095
0.198978
-0.0495111
0.193225
-0.0549927
0.186973
-0.0596831
0.180383
-0.0633415
0.173618
-0.0657551
0.166832
-0.0667524
0.160158
-0.0661995
0.153713
-0.0639432
0.147571
-0.0598204
0.141819
-0.0537524
0.136617
-0.0454604
0.131853
-0.0345439
0.126813
-0.0213347
0.120897
-0.00706234
0.11499
0.00788592
0.111071
0.0242633
0.11078
0.0434427
0.114544
0.0671161
0.121758
0.0967409
0.131386
0.131709
0.143609
0.160546
0.159875
0.160002
0.178276
0.112456
0.192538
0.0348068
0.198169
-0.0424586
0.195924
-0.0983862
0.188997
-0.130258
0.180083
-0.142671
0.170727
-0.146234
0.162575
-0.146281
0.155139
-0.134187
0.146581
-0.122232
0.138011
-0.109339
0.133622
-0.107255
0.135667
-0.0675659
0.140938
0.0027171
0.146071
0.115813
0.149669
0.234085
0.153224
0.298463
0.157439
0.297501
0.161605
0.155941
0.165221
0.019392
0.167268
-0.125635
0.165248
-0.15728
0.157058
-0.186468
0.149187
-0.277392
0.146044
-0.188105
0.142381
-0.161542
0.139365
0.118654
0.238381
0.22886
0.00146482
-0.228818
0.228716
-0.00175356
0.228483
-0.00523796
0.228002
-0.00896941
0.227091
-0.0131349
0.225637
-0.017791
0.223564
-0.0228705
0.220814
-0.0282523
0.217349
-0.0337926