/*--------------------------------*- C++ -*----------------------------------*\
| =========                 |                                                 |
| \\      /  F ield         | OpenFOAM: The Open Source CFD Toolbox           |
|  \\    /   O peration     | Version:  2512                                  |
|   \\  /    A nd           | Website:  www.openfoam.com                      |
|    \\/     M anipulation  |                                                 |
\*---------------------------------------------------------------------------*/
FoamFile
{
    version     2.0;
    format      ascii;
    arch        "LSB;label=32;scalar=64";
    class       surfaceScalarField;
    location    "130";
    object      phi;
}
// * * * * * * * * * * * * * * * * * * * * * * * * * * * * * * * * * * * * * //

dimensions      [0 3 -1 0 0 0 0];

oriented        oriented;

internalField   nonuniform List<scalar> 
26232
(
0.000133536
0.000992877
-0.00112641
0.0007699
0.00168979
-0.00232616
0.00209674
0.00121693
-0.00254377
0.00427884
-0.000403057
-0.00177904
0.00747353
-0.00316271
-3.19803e-05
0.0118313
-0.00705456
0.00269682
0.0174779
-0.0120563
0.00640971
0.024493
-0.0181118
0.0110968
0.0328806
-0.025115
0.0167274
0.0425451
-0.0329003
0.0232358
0.0532789
-0.0412444
0.0305106
0.0647682
-0.0498792
0.0383899
0.0766176
-0.0585153
0.0466659
0.0883912
-0.0668705
0.0550968
0.0996626
-0.0746982
0.0634268
0.110065
-0.081812
0.0714091
0.119336
-0.0881006
0.07883
0.127339
-0.0935332
0.0855305
0.134072
-0.0981503
0.0914167
0.139645
-0.102052
0.0964796
0.144241
-0.105341
0.100745
0.148024
-0.108206
0.104423
0.150938
-0.110426
0.107513
-0.112858
0.110825
0.152971
0.000169471
0.000823406
0.000952452
0.000906814
0.00257934
-0.000409957
0.00525308
-0.0030768
0.00915538
-0.00706501
0.0144323
-0.0123315
0.0211658
-0.0187899
0.0293421
-0.0262882
0.038826
-0.0345989
0.049353
-0.0434274
0.0605463
-0.0524376
0.0719553
-0.0612883
0.0831122
-0.0696721
0.093591
-0.0773493
0.103062
-0.084169
0.111326
-0.0900765
0.118331
-0.0951053
0.124154
-0.0993567
0.128976
-0.102972
0.133024
-0.106101
0.136562
-0.108879
0.139787
-0.111431
0.143107
-0.113747
-0.116302
0.14655
0.000241688
0.000581718
0.00125634
-0.000107835
0.00330227
-0.00245589
0.00660202
-0.00637654
0.0113313
-0.0117943
0.0175874
-0.0185876
0.0253509
-0.0265534
0.0344575
-0.0353948
0.0445943
-0.0447357
0.0553279
-0.054161
0.0661606
-0.0632703
0.0766016
-0.0717293
0.086237
-0.0793075
0.0947819
-0.0858942
0.102106
-0.0914935
0.108231
-0.0962015
0.113298
-0.100172
0.117522
-0.103581
0.121144
-0.106593
0.12439
-0.109347
0.127448
-0.111938
0.130462
-0.114445
0.133553
-0.116838
-0.119422
0.136674
0.000345555
0.000236162
0.00166492
-0.0014272
0.00422417
-0.00501514
0.00823599
-0.0103884
0.0138266
-0.0173849
0.0209893
-0.0257503
0.0295493
-0.0351133
0.0391596
-0.0450051
0.0493405
-0.0549166
0.0595532
-0.0643737
0.0692881
-0.0730051
0.0781427
-0.0805839
0.0858722
-0.0870371
0.0924024
-0.0924243
0.0978078
-0.0968988
0.102266
-0.10066
0.106003
-0.103909
0.109247
-0.106824
0.112194
-0.10954
0.114997
-0.11215
0.117772
-0.114712
0.120595
-0.117268
0.123562
-0.119804
-0.122528
0.126668
0.000473617
-0.000237455
0.00215026
-0.00310384
0.00527784
-0.00814273
0.0100205
-0.015131
0.0164033
-0.0237677
0.0242636
-0.0336107
0.0332399
-0.0440896
0.0428166
-0.0545818
0.0524154
-0.0645154
0.0615019
-0.0734602
0.0696746
-0.0811778
0.0767133
-0.0876227
0.0825805
-0.0929043
0.0873846
-0.0972284
0.0913224
-0.100837
0.0946213
-0.103958
0.0974939
-0.106782
0.100115
-0.109445
0.102613
-0.112039
0.10508
-0.114617
0.107579
-0.117212
0.110151
-0.11984
0.112843
-0.122496
-0.125291
0.115605
0.000618649
-0.000856104
0.00268156
-0.00516675
0.00638652
-0.0118477
0.0118035
-0.0205479
0.0188061
-0.0307704
0.0270424
-0.0418469
0.0359747
-0.0530219
0.0449846
-0.0635917
0.053501
-0.0730318
0.061105
-0.0810642
0.0675803
-0.087653
0.0729064
-0.0929488
0.0772102
-0.097208
0.0806986
-0.100717
0.0835977
-0.103736
0.0861103
-0.106471
0.0883956
-0.109067
0.0905681
-0.111618
0.0927053
-0.114176
0.0948586
-0.11677
0.0970633
-0.119416
0.0993436
-0.12212
0.101728
-0.12488
-0.127755
0.104192
0.000774022
-0.00163013
0.00322725
-0.00761998
0.0074696
-0.01609
0.0134301
-0.0265085
0.0207945
-0.0381348
0.0290233
-0.0500757
0.0374599
-0.0614585
0.045482
-0.0716138
0.0526286
-0.0801785
0.0586622
-0.0870977
0.0635585
-0.0925494
0.0674492
-0.0968395
0.070546
-0.100305
0.073075
-0.103246
0.0752342
-0.105895
0.0771749
-0.108412
0.0790029
-0.110895
0.0807873
-0.113402
0.0825721
-0.115961
0.0843864
-0.118585
0.0862504
-0.12128
0.0881783
-0.124048
0.0901861
-0.126888
-0.129821
0.0922515
0.000932521
-0.00256265
0.00375367
-0.0104411
0.00844467
-0.020781
0.0147549
-0.0328187
0.0221723
-0.0455522
0.0300134
-0.0579168
0.0375914
-0.0690366
0.0443763
-0.0783986
0.0500788
-0.085881
0.0546474
-0.0916663
0.0582045
-0.0961065
0.060962
-0.0995971
0.0631487
-0.102492
0.0649634
-0.10506
0.0665561
-0.107488
0.0680294
-0.109885
0.0694481
-0.112314
0.0708526
-0.114807
0.0722684
-0.117376
0.0737132
-0.12003
0.0751999
-0.122767
0.0767393
-0.125588
0.078342
-0.128491
-0.131475
0.0799967
0.00108557
-0.00364821
0.0042247
-0.0135803
0.00923207
-0.0257884
0.0156565
-0.0392431
0.0228134
-0.0527091
0.0299494
-0.0650527
0.0364385
-0.0755257
0.0419053
-0.0838655
0.0462417
-0.0902173
0.049543
-0.0949676
0.0520154
-0.0985788
0.0538914
-0.101473
0.055376
-0.103976
0.0566239
-0.106308
0.0577392
-0.108603
0.0587867
-0.110932
0.0598049
-0.113332
0.0608175
-0.115819
0.0618401
-0.118399
0.0628842
-0.121074
0.0639589
-0.123842
0.0650721
-0.126701
0.0662298
-0.129648
-0.132673
0.0674272
0.00122306
-0.00487127
0.00460398
-0.0169612
0.00976336
-0.0309478
0.0160544
-0.0455342
0.0226747
-0.0593293
0.0288849
-0.071263
0.0341867
-0.0808274
0.038378
-0.0880568
0.0415026
-0.0933419
0.0437486
-0.0972137
0.0453514
-0.100182
0.0465262
-0.102648
0.047438
-0.104888
0.0481978
-0.107068
0.0488735
-0.109279
0.0495045
-0.111563
0.0501138
-0.113942
0.0507159
-0.116421
0.0513214
-0.119004
0.0519385
-0.121691
0.052574
-0.124477
0.0532341
-0.127361
0.0539232
-0.130337
-0.133392
0.0546424
0.00133493
-0.0062062
0.00486039
-0.0204866
0.00999142
-0.0360788
0.0159169
-0.0514596
0.0217888
-0.0652012
0.0269535
-0.0764277
0.0310717
-0.0849457
0.0340991
-0.0910842
0.0361856
-0.0954283
0.0375621
-0.0985902
0.0384561
-0.101076
0.0390479
-0.10324
0.0394607
-0.105301
0.0397697
-0.107377
0.0400178
-0.109527
0.0402287
-0.111774
0.0404166
-0.11413
0.0405912
-0.116596
0.0407601
-0.119173
0.0409295
-0.12186
0.0411046
-0.124652
0.0412897
-0.127546
0.0414866
-0.130534
-0.133604
0.0416987
0.00141544
-0.00762164
0.00497544
-0.0240466
0.00989782
-0.0410012
0.0152615
-0.0568233
0.0202465
-0.0701862
0.0243315
-0.0805127
0.027336
-0.0879501
0.0293374
-0.0930857
0.0305461
-0.0966371
0.0311986
-0.0992426
0.0314942
-0.101371
0.0315741
-0.10332
0.0315259
-0.105252
0.0313988
-0.10725
0.0312191
-0.109347
0.0310014
-0.111557
0.0307549
-0.113883
0.0304866
-0.116328
0.0302024
-0.118889
0.0299075
-0.121565
0.0296066
-0.124352
0.029303
-0.127242
0.0289975
-0.130229
0.0286953
-0.133302
-0.000233469
0.00266939
-0.00243592
-0.000844387
0.00617254
-0.00556163
-0.00177442
0.00839631
-0.00746628
-0.00297126
0.00964748
-0.00845064
-0.00438839
0.0101893
-0.0087722
-0.00598672
0.0102372
-0.00863885
-0.00773467
0.00994773
-0.00819978
-0.00960679
0.00941661
-0.00754448
-0.0115819
0.00868512
-0.00670998
-0.0136413
0.00775244
-0.00569308
-0.0157669
0.00658948
-0.00446388
-0.0179391
0.00515097
-0.00297877
-0.0201482
0.00338535
-0.00117624
-0.0223356
0.00123395
0.000953432
-0.0245026
-0.00131826
0.00348524
-0.0266083
-0.00433613
0.00644184
-0.0286119
-0.00783959
0.00984324
-0.0304697
-0.011835
0.0136928
-0.0321354
-0.016308
0.0179738
-0.033563
-0.0212177
0.0226453
-0.03471
-0.026493
0.02764
-0.0355423
-0.0320328
0.0328652
-0.03605
-0.0377005
0.0382081
-0.0432897
-0.0362892
0.043529
-0.000147336
0.00281673
-0.000576139
0.00660135
-0.00127104
0.00909122
-0.00220343
0.0105799
-0.00333687
0.0113228
-0.00463315
0.0115335
-0.00605644
0.011371
-0.00757524
0.0109354
-0.00916276
0.0102726
-0.0107962
0.00938592
-0.0124557
0.00824891
-0.0141226
0.00681792
-0.0157789
0.00504162
-0.0174086
0.00286367
-0.0189545
0.000227676
-0.0204396
-0.00285106
-0.0218135
-0.00646575
-0.0230487
-0.0105998
-0.0241177
-0.015239
-0.0249953
-0.0203401
-0.0256634
-0.0258249
-0.0261183
-0.031578
-0.0263753
-0.0374435
-0.0431821
-0.0264829
-4.62888e-05
0.00286302
-0.000252427
0.00680749
-0.000647414
0.0094862
-0.0012275
0.01116
-0.00196783
0.0120631
-0.00283167
0.0123973
-0.0037785
0.0123179
-0.00476902
0.0119259
-0.00576776
0.0112714
-0.00674388
0.010362
-0.00767051
0.00917554
-0.00852347
0.00767087
-0.00927962
0.00579777
-0.00991822
0.00350227
-0.0104205
0.000729914
-0.0107463
-0.00252521
-0.0108848
-0.00632724
-0.0108135
-0.0106712
-0.0105142
-0.0155383
-0.00997459
-0.0208797
-0.00919124
-0.0266083
-0.00817708
-0.0325921
-0.00696846
-0.0386522
-0.0445886
-0.00556204
5.7579e-05
0.00280544
9.17748e-05
0.00677329
3.38402e-05
0.00954414
-0.000137042
0.0113308
-0.000407401
0.0123335
-0.00074389
0.0127338
-0.00110265
0.0126766
-0.00143693
0.0122602
-0.00170183
0.0115363
-0.00185657
0.0105168
-0.00186476
0.00918373
-0.00169358
0.00749969
-0.00131248
0.00541667
-0.000693482
0.00288327
0.000183423
-0.000146992
0.00136777
-0.00370955
0.0028745
-0.00783398
0.00472493
-0.0125216
0.00693401
-0.0177474
0.00950606
-0.0234517
0.0124344
-0.0295367
0.0157032
-0.0358609
0.0192603
-0.0422093
-0.0483478
0.0230196
0.000150924
0.00265451
0.000414615
0.0065096
0.000694155
0.0092646
0.000950172
0.0110748
0.00118336
0.0121003
0.00142233
0.0124948
0.00171193
0.012387
0.00210425
0.0118679
0.00265243
0.0109881
0.00340709
0.00976212
0.00441512
0.00817571
0.00571984
0.00619497
0.00736187
0.00377464
0.00937991
0.000865231
0.0118113
-0.00257842
0.0146944
-0.0065926
0.0180585
-0.0111981
0.0219276
-0.0163906
0.0263132
-0.022133
0.031211
-0.0283495
0.0365945
-0.0349202
0.0424209
-0.0416873
0.048604
-0.0483923
-0.0549466
0.0552028
0.000222233
0.00243228
0.000678622
0.00605321
0.00125997
0.00868325
0.00191582
0.010419
0.00263815
0.0113779
0.00345002
0.011683
0.00439499
0.011442
0.00552801
0.0107349
0.00690857
0.00960755
0.0085965
0.00807419
0.0106497
0.00612246
0.0131236
0.00372109
0.0160709
0.000827323
0.0195466
-0.00261038
0.0235964
-0.00662822
0.0282634
-0.0112597
0.03358
-0.0165147
0.0395621
-0.0223728
0.0462034
-0.0287743
0.0534688
-0.0356148
0.06129
-0.0427415
0.0695699
-0.0499672
0.0781881
-0.0570105
-0.0639211
0.0871626
0.000263513
0.00216877
0.000855088
0.00546163
0.00167192
0.00786642
0.0026635
0.00942738
0.00381846
0.010223
0.00515636
0.0103451
0.00671938
0.00987902
0.00856447
0.00888976
0.0107571
0.00741491
0.0133669
0.0054644
0.0164652
0.00302417
0.0201158
7.04337e-05
0.0244011
-0.00345797
0.0293746
-0.0075838
0.0350942
-0.0123478
0.0415998
-0.0177653
0.0489077
-0.0238226
0.0570016
-0.0304666
0.0658257
-0.0375984
0.075279
-0.0450682
0.085226
-0.0526885
0.0954779
-0.060219
0.105865
-0.0673979
-0.0743139
0.116258
0.000272128
0.00189664
0.00093218
0.00480158
0.00190199
0.00689661
0.00314308
0.0081863
0.00464881
0.00871724
0.0064405
0.00855337
0.00856245
0.00775707
0.0110764
0.00637582
0.0140562
0.00443513
0.0175837
0.00193685
0.0217445
-0.00113655
0.0266311
-0.00481622
0.032312
-0.00913887
0.0388597
-0.0141315
0.0463174
-0.0198055
0.0546941
-0.0261421
0.0639536
-0.033082
0.0740055
-0.0405186
0.084704
-0.0482969
0.0958474
-0.0562116
0.10721
-0.0640512
0.118513
-0.0715218
0.129586
-0.078471
-0.0848077
0.14008
0.000251651
0.00164499
0.000918682
0.00413455
0.00196301
0.00585228
0.00336997
0.00677934
0.00514768
0.00693953
0.00732788
0.00637317
0.00996471
0.00512023
0.0131316
0.00320889
0.0169154
0.000651386
0.0214159
-0.00256369
0.026731
-0.00645162
0.0329522
-0.0110374
0.0401502
-0.0163368
0.0483638
-0.0223451
0.0575833
-0.029025
0.0677386
-0.0362974
0.0786918
-0.0440352
0.0902379
-0.0520647
0.102115
-0.0601742
0.114024
-0.0681209
0.125663
-0.0756896
0.136729
-0.0825877
0.147089
-0.0888317
-0.0940334
0.156315
0.000211972
0.00143302
0.000845113
0.00350141
0.00191248
0.00478492
0.00343374
0.00525807
0.00544272
0.00493055
0.00799257
0.00382332
0.0111573
0.00195552
0.015029
-0.000662789
0.019714
-0.00403367
0.0253166
-0.00816625
0.0319331
-0.0130681
0.03963
-0.0187343
0.048427
-0.0251339
0.0582806
-0.0321986
0.0690713
-0.0398157
0.0806005
-0.0478266
0.0925974
-0.0560321
0.104738
-0.0642057
0.116675
-0.0721112
0.128079
-0.0795244
0.138655
-0.0862654
0.148214
-0.0921468
0.156657
-0.0972753
-0.101154
0.163778
0.000168258
0.00126476
0.000760184
0.00290948
0.00184584
0.00369926
0.0034876
0.00361631
0.00575526
0.00266289
0.00873311
0.000845477
0.0125221
-0.0018335
0.0172338
-0.00537449
0.0229779
-0.00977773
0.0298448
-0.0150332
0.037885
-0.0211083
0.0470864
-0.0279358
0.0573577
-0.0354052
0.0685189
-0.0433597
0.0803041
-0.051601
0.0923783
-0.0599008
0.104365
-0.0680189
0.115886
-0.0757269
0.126602
-0.0828272
0.136264
-0.0891862
0.144717
-0.0947187
0.152016
-0.099445
0.158151
-0.10341
-0.10634
0.163336
0.000138346
0.000721669
0.00187716
0.00371443
0.00634534
0.00988764
0.0144638
0.0201861
0.0271358
0.0353385
0.0447408
0.0551949
0.0664556
0.0781927
0.0900185
0.101527
0.112338
0.122141
0.130731
0.138024
0.144051
0.149029
0.153131
0.157617
-0.0351482
-0.0677911
0.0666501
-0.0332437
-0.0770207
0.0751162
-0.0302631
-0.0851832
0.0822026
-0.0259194
-0.0914613
0.0871176
-0.0199163
-0.0949756
0.0889725
-0.0120574
-0.0947226
0.0868637
-0.00232267
-0.0897047
0.07997
0.00934935
-0.0793085
0.0676364
0.0221086
-0.0626987
0.0499394
0.0354076
-0.0402849
0.026986
0.048735
-0.0127678
-0.000559646
0.0619574
0.0184377
-0.0316601
0.0748913
0.0517325
-0.0646664
0.0871009
0.0842514
-0.0964609
0.0978207
0.112604
-0.123324
0.106262
0.134107
-0.142549
0.112017
0.147802
-0.153558
0.114891
0.15485
-0.157724
0.114484
0.158752
-0.158345
0.110765
0.163842
-0.160123
0.105309
0.170629
-0.165174
0.101414
0.171871
-0.167976
0.102146
0.155273
-0.156005
0.1082
0.112876
-0.11893
0.1181
0.0477226
-0.0576232
0.129516
-0.026719
0.0153039
0.140211
-0.0943679
0.0836722
0.148338
-0.143614
0.135487
0.153097
-0.17245
0.167691
0.15501
-0.185563
0.18365
0.154659
-0.188297
0.188648
0.151381
-0.189423
0.192702
0.144548
-0.196616
0.203449
0.135885
-0.207348
0.216011
0.129275
-0.199889
0.206499
0.127812
-0.153719
0.155182
0.131737
-0.0693623
0.0654363
0.139003
0.0292117
-0.0364774
0.147177
0.112023
-0.120196
0.15389
0.170206
-0.17692
0.156743
0.202553
-0.205406
0.154043
0.233127
-0.230427
0.146833
0.253322
-0.246112
0.139334
0.257089
-0.249591
0.135702
0.20466
-0.201027
0.137803
0.102296
-0.104397
0.144005
-0.015223
0.00902108
0.15017
-0.125904
0.119739
0.151783
-0.179811
0.178198
0.147799
-0.248541
0.252526
0.141896
-0.257247
0.26315
0.13932
-0.259138
0.261714
0.141472
-0.176058
0.173905
0.145009
-0.0363775
0.0328411
0.146027
0.0536735
-0.0546919
0.144042
0.246673
-0.244688
0.142266
0.252606
-0.25083
0.141463
0.313191
-0.312388
0.140437
0.228221
-0.227195
-0.037788
0.0396066
-0.0275866
-0.0666874
-0.0285117
-0.0760955
-0.028899
-0.0847959
-0.0284133
-0.0919471
-0.0265594
-0.0968294
-0.0227445
-0.0985375
-0.0164993
-0.0959499
-0.00783542
-0.0879724
0.00343086
-0.0739649
0.0169143
-0.0537684
0.0312152
-0.0270687
0.0461826
0.00347029
0.0612077
0.0367074
0.0757663
0.0696928
0.0890399
0.0993309
0.100151
0.122996
0.108432
0.139521
0.113343
0.149939
0.114524
0.157571
0.112551
0.165815
0.109593
0.173588
0.108712
0.172752
0.111875
0.15211
0.118826
0.105925
0.128099
0.0384501
0.137701
-0.0363208
0.146064
-0.102731
0.151825
-0.149376
0.154446
-0.175071
0.154538
-0.185655
0.15288
-0.186638
0.148864
-0.185408
0.141496
-0.189247
0.132115
-0.197966
0.124774
-0.192548
0.123099
-0.152044
0.127608
-0.0738718
0.136135
0.0206852
0.145881
0.102277
0.154026
0.162061
0.157934
0.198645
0.15602
0.235041
0.149524
0.259818
0.142554
0.264059
0.138792
0.208422
0.140061
0.101027
0.145143
-0.0203051
0.150557
-0.131317
0.151797
-0.181051
0.147597
-0.244342
0.141627
-0.251277
0.139044
-0.256555
0.141294
-0.178307
0.144677
-0.0397606
0.145716
0.0526345
0.143837
0.248552
0.142127
0.254317
0.141539
0.313779
0.140737
0.229023
-0.0360718
-0.00818814
-0.0640613
-0.0112658
-0.0730179
-0.0145567
-0.081505
-0.017787
-0.0887168
-0.0204872
-0.0941292
-0.0217529
-0.0972718
-0.0206333
-0.0970695
-0.016383
-0.0922227
-0.0088566
-0.0814913
0.00195697
-0.0645819
0.0161527
-0.0412644
0.0319018
-0.0122789
0.0484959
0.0201134
0.0650472
0.0531415
0.0805987
0.0837794
0.0941292
0.109466
0.104713
0.128937
0.111623
0.14303
0.11472
0.154474
0.115098
0.165436
0.11512
0.173565
0.117274
0.170599
0.122444
0.14694
0.129798
0.0985718
0.137931
0.0303166
0.14553
-0.04392
0.151436
-0.108637
0.154812
-0.152752
0.155401
-0.17566
0.153835
-0.184088
0.151015
-0.183819
0.146478
-0.180871
0.138901
-0.18167
0.129056
-0.188121
0.120975
-0.184467
0.118882
-0.149951
0.123698
-0.0786875
0.133284
0.0110989
0.144468
0.0910932
0.154008
0.152521
0.159066
0.193587
0.158135
0.235973
0.152535
0.265418
0.146161
0.270433
0.142234
0.212349
0.142565
0.100696
0.146405
-0.0241446
0.150988
-0.135901
0.151886
-0.181949
0.14751
-0.239965
0.141453
-0.245221
0.138817
-0.253919
0.141163
-0.180653
0.144451
-0.0430482
0.145541
0.0515439
0.143745
0.250348
0.142078
0.255983
0.14174
0.314118
0.141216
0.229547
-0.0344806
0.0195662
-0.060608
0.0153255
-0.0687772
0.0101934
-0.0763729
0.0042279
-0.0827513
-0.00196615
-0.0879351
-0.00781212
-0.0914259
-0.0122038
-0.0926778
-0.0137905
-0.090636
-0.0117493
-0.0835326
-0.00533478
-0.0709965
0.00565052
-0.0522497
0.0202262
-0.0268545
0.0372622
0.00307733
0.0550046
0.0353991
0.0722807
0.0665033
0.0878146
0.093932
0.10045
0.116302
0.109413
0.134066
0.114833
0.149054
0.118076
0.162194
0.121357
0.170284
0.126376
0.16558
0.13314
0.140175
0.140441
0.0912711
0.147215
0.0235427
0.152764
-0.0494687
0.15625
-0.112124
0.157295
-0.153796
0.155971
-0.174337
0.152914
-0.181031
0.149049
-0.179954
0.144126
-0.175947
0.136636
-0.17418
0.12667
-0.178155
0.11794
-0.175737
0.115177
-0.147187
0.120018
-0.0835283
0.130407
0.000709422
0.142871
0.0786296
0.153764
0.141628
0.160074
0.187276
0.160318
0.235729
0.155778
0.269959
0.150055
0.276156
0.145944
0.216459
0.145268
0.101372
0.147768
-0.0266444
0.151444
-0.139577
0.152021
-0.182526
0.147503
-0.235447
0.141336
-0.239054
0.138593
-0.251175
0.141043
-0.183104
0.144312
-0.0463167
0.145493
0.0503625
0.143761
0.25208
0.142121
0.257623
0.142072
0.314167
0.141879
0.22974
-0.033037
0.0513462
-0.0567514
0.0468503
-0.0642812
0.0413691
-0.0708917
0.0347185
-0.0761007
0.0267504
-0.0799671
0.0177701
-0.0824455
0.00853202
-0.0834398
0.000566166
-0.0826701
-0.00344619
-0.0795202
-0.00314389
-0.0712988
0.00229224
-0.0576858
0.013472
-0.0380343
0.0286349
-0.0120856
0.0460698
0.0179642
0.0640429
0.0485302
0.0809244
0.0770505
0.0953069
0.101919
0.106418
0.122955
0.114512
0.14096
0.120954
0.155751
0.127551
0.163687
0.1352
0.157931
0.143185
0.132191
0.150222
0.0842342
0.155675
0.0180896
0.159214
-0.0530078
0.16038
-0.113289
0.159175
-0.152591
0.156077
-0.171239
0.151727
-0.176681
0.146964
-0.175191
0.141758
-0.170741
0.134588
-0.167011
0.124862
-0.168429
0.115683
-0.166558
0.11211
-0.143615
0.116594
-0.0880117
0.127481
-0.0101773
0.141012
0.0650983
0.153198
0.129442
0.160859
0.179615
0.162463
0.234124
0.159128
0.273294
0.15411
0.281174
0.149807
0.220763
0.148103
0.103076
0.1492
-0.0277412
0.151897
-0.142274
0.152168
-0.182796
0.147546
-0.230825
0.141245
-0.232754
0.138331
-0.248261
0.140894
-0.185667
0.144234
-0.0496562
0.145557
0.04904
0.143883
0.253754
0.142257
0.259249
0.142536
0.313888
0.142726
0.229549
-0.0317637
0.0829261
-0.0525149
0.0781301
-0.0594852
0.0725461
-0.0653077
0.0659898
-0.0695445
0.0583069
-0.0722842
0.0493679
-0.0735065
0.039267
-0.0733389
0.0286705
-0.0720735
0.0187681
-0.0696178
0.0121653
-0.064696
0.0106433
-0.0561639
0.0150382
-0.0424292
0.0252992
-0.0223465
0.0400224
0.00324094
0.056949
0.0316037
0.0740608
0.0599386
0.0896643
0.086316
0.102837
0.109782
0.113707
0.130091
0.123366
0.146092
0.133061
0.153992
0.142961
0.148031
0.151904
0.123248
0.158705
0.0774337
0.162982
0.0138123
0.164695
-0.0547211
0.163677
-0.112271
0.160372
-0.149286
0.155661
-0.166528
0.150224
-0.171244
0.14472
-0.169687
0.139296
-0.165318
0.1326
-0.160315
0.12346
-0.159289
0.114142
-0.15724
0.109705
-0.139178
0.113542
-0.0918488
0.124439
-0.0210741
0.138807
0.0507302
0.152197
0.116052
0.161293
0.170519
0.164426
0.230992
0.162432
0.275288
0.15817
0.285436
0.153699
0.225234
0.150988
0.105786
0.15066
-0.027413
0.152315
-0.143929
0.152285
-0.182766
0.147605
-0.226144
0.141156
-0.226305
0.138
-0.245105
0.140676
-0.188343
0.144186
-0.0531669
0.145714
0.0475123
0.144106
0.255362
0.142485
0.26087
0.143131
0.313242
0.14376
0.228921
-0.0306836
0.111429
-0.0476854
0.106074
-0.0541306
0.100062
-0.0592953
0.0934147
-0.0628976
0.0861986
-0.0650681
0.0783037
-0.0656116
0.0694428
-0.0644779
0.0593887
-0.0620195
0.0484616
-0.0586906
0.0381643
-0.0543988
0.0305194
-0.048519
0.0275942
-0.0395041
0.0308052
-0.0255574
0.0401066
-0.00606045
0.0535781
0.0181322
0.0691898
0.0443269
0.0849555
0.0705503
0.099598
0.0951393
0.112853
0.116835
0.125318
0.133627
0.137596
0.141715
0.149239
0.136388
0.158861
0.113625
0.165468
0.0708266
0.168845
0.0104362
0.168981
-0.0548572
0.166007
-0.109297
0.160809
-0.144088
0.154667
-0.160387
0.148348
-0.164924
0.142277
-0.163617
0.136679
-0.159719
0.130517
-0.154152
0.122242
-0.151014
0.113156
-0.148154
0.107955
-0.133977
0.110805
-0.0946989
0.121349
-0.0316181
0.136183
0.035897
0.150643
0.101592
0.161231
0.159931
0.166046
0.226177
0.16552
0.275813
0.162069
0.288887
0.157467
0.229836
0.153834
0.109419
0.152096
-0.0256748
0.152663
-0.144496
0.15233
-0.182434
0.147646
-0.22146
0.141051
-0.21971
0.137575
-0.241629
0.140346
-0.191114
0.144133
-0.0569535
0.145944
0.0457011
0.144425
0.256881
0.142807
0.262487
0.143859
0.31219
0.144978
0.227802
-0.0298205
0.134591
-0.0421964
0.128594
-0.0481339
0.121985
-0.0526857
0.114969
-0.0558818
0.1078
-0.0578989
0.100563
-0.0583753
0.0931502
-0.0570649
0.0852299
-0.0540992
0.0764114
-0.0498722
0.0667922
-0.0447795
0.0572898
-0.0390166
0.0497852
-0.0319995
0.0465456
-0.0223178
0.0489981
-0.00851291
0.0569317
0.0101986
0.0689832
0.0322753
0.0832493
0.0562843
0.0981116
0.080277
0.112759
0.102188
0.127141
0.119245
0.141192
0.127664
0.15397
0.123611
0.164012
0.103583
0.170477
0.0643613
0.173173
0.0077397
0.171951
-0.053635
0.167256
-0.104602
0.160412
-0.137244
0.153046
-0.153021
0.146037
-0.157915
0.139579
-0.157159
0.133849
-0.15399
0.128198
-0.148501
0.120961
-0.143777
0.112484
-0.139677
0.106752
-0.128245
0.108433
-0.0963795
0.118187
-0.0413722
0.133091
0.0209931
0.148434
0.0862482
0.160532
0.147833
0.167139
0.21957
0.168196
0.274756
0.165628
0.291454
0.160978
0.234487
0.156525
0.113872
0.153449
-0.0225987
0.152897
-0.143945
0.152254
-0.18179
0.14763
-0.216835
0.140915
-0.212995
0.137043
-0.237757
0.13987
-0.193942
0.144035
-0.0611186
0.146223
0.0435135
0.144835
0.258269
0.143223
0.264099
0.144718
0.310695
0.146379
0.226141
-0.0291987
0.15038
-0.0362613
0.14392
-0.0416739
0.13688
-0.0456458
0.12962
-0.0486213
0.12245
-0.050729
0.115524
-0.0514499
0.108935
-0.0504756
0.102649
-0.0478136
0.0963929
-0.0436156
0.0897306
-0.0381172
0.0824184
-0.0317043
0.0749827
-0.0245639
0.0689655
-0.0163005
0.0664586
-0.00600605
0.0684373
0.0082199
0.0754287
0.0252839
0.0863693
0.0453436
0.0997525
0.0668938
0.114327
0.0876135
0.129368
0.104204
0.144151
0.11288
0.157357
0.110405
0.167533
0.0934071
0.173902
0.0579922
0.175946
0.00569552
0.173535
-0.0512238
0.167311
-0.0983788
0.159076
-0.129008
0.150708
-0.144653
0.143185
-0.150392
0.136517
-0.150491
0.130718
-0.148191
0.125507
-0.14329
0.11937
-0.13764
0.111826
-0.132134
0.105894
-0.122313
0.106385
-0.0968713
0.114983
-0.0499697
0.129523
0.00645314
0.145491
0.0702798
0.159055
0.134269
0.167562
0.211064
0.170324
0.271994
0.168703
0.293075
0.164089
0.239101
0.158973
0.118988
0.154657
-0.0182834
0.152974
-0.142262
0.152003
-0.180819
0.147512
-0.212345
0.140735
-0.206218
0.136395
-0.233417
0.139217
-0.196764
0.143855
-0.065757
0.146525
0.0408442
0.14533
0.259463
0.143734
0.265696
0.145708
0.308721
0.147959
0.22389
-0.0288421
0.157908
-0.030391
0.151389
-0.0351545
0.144313
-0.0385706
0.137175
-0.0414831
0.130241
-0.0437943
0.123662
-0.0448717
0.117647
-0.0444603
0.112377
-0.042544
0.107818
-0.0390561
0.103687
-0.0339863
0.0995497
-0.027567
0.0951083
-0.0201225
0.0905563
-0.0117485
0.0869276
-0.00237728
0.0856576
0.0094899
0.0881563
0.0227851
0.0949125
0.0385875
0.105294
0.0565127
0.118188
0.0747191
0.13246
0.0899323
0.146854
0.0984859
0.159767
0.0974922
0.16975
0.0834235
0.175916
0.0518262
0.177364
0.00424763
0.173728
-0.047587
0.166098
-0.0907494
0.156712
-0.119622
0.147573
-0.135514
0.139693
-0.142512
0.132978
-0.143775
0.127203
-0.142417
0.122347
-0.138434
0.117269
-0.132561
0.110897
-0.125762
0.105129
-0.116544
0.104559
-0.0963016
0.111759
-0.0571699
0.12551
-0.00729806
0.141783
0.0540071
0.156693
0.119359
0.167114
0.200643
0.17166
0.267447
0.171096
0.29364
0.166675
0.243523
0.161091
0.124572
0.155673
-0.0128647
0.152864
-0.139454
0.151536
-0.179491
0.147255
-0.208064
0.1405
-0.199463
0.135642
-0.228559
0.138365
-0.199486
0.143553
-0.0709453
0.146819
0.0375781
0.145903
0.26038
0.144339
0.267259
0.146826
0.306234
0.149717
0.221
-0.0287725
0.158078
-0.0251327
0.151904
-0.0289801
0.145202
-0.0318689
0.138532
-0.0348136
0.132044
-0.0373061
0.12593
-0.0387578
0.120505
-0.0390346
0.116006
-0.0380449
0.11252
-0.0355705
0.109989
-0.0314557
0.108159
-0.0257364
0.106639
-0.0186027
0.10513
-0.0102401
0.10404
-0.00128666
0.103007
0.0105223
0.103775
0.0220178
0.107533
0.0348292
0.114645
0.0494006
0.124771
0.0645931
0.136955
0.0777491
0.1498
0.0856407
0.161661
0.0856309
0.17114
0.073945
0.177022
0.0459438
0.177534
0.00373569
0.172779
-0.0428317
0.163917
-0.0818876
0.153664
-0.109369
0.144003
-0.125853
0.135888
-0.134398
0.129213
-0.137101
0.123526
-0.13673
0.118896
-0.133804
0.114702
-0.128367
0.109597
-0.120657
0.104307
-0.111253
0.102871
-0.094866
0.108526
-0.0628246
0.121101
-0.0198736
0.137279
0.0378292
0.153384
0.103254
0.165837
0.188191
0.172286
0.260997
0.172773
0.293153
0.16865
0.247646
0.162849
0.130373
0.156523
-0.00653865
0.152622
-0.135553
0.150875
-0.177744
0.146864
-0.204052
0.140215
-0.192814
0.134833
-0.223177
0.137336
-0.201989
0.1431
-0.0767089
0.14707
0.0336075
0.146544
0.260906
0.145041
0.268763
0.148074
0.3032
0.151644
0.21743
-0.0290121
0.153499
-0.0210147
0.147971
-0.0234524
0.142272
-0.0261698
0.136531
-0.0290732
0.130876
-0.0316504
0.125587
-0.0334688
0.120873
-0.0343205
0.116892
-0.0340648
0.11385
-0.0325281
0.111937
-0.0295428
0.111175
-0.0249746
0.111383
-0.0188098
0.112248
-0.0111052
0.112993
-0.00203227
0.114727
0.0087886
0.116905
0.0198393
0.120289
0.0314451
0.125772
0.0439179
0.133598
0.0567673
0.143377
0.0679698
0.154106
0.0749115
0.164436
0.0753011
0.172914
0.0654668
0.177635
0.041223
0.1773
0.00407102
0.170731
-0.0362625
0.160821
-0.0719783
0.150157
-0.0987045
0.140379
-0.116075
0.132212
-0.12623
0.12562
-0.130509
0.120046
-0.131156
0.115491
-0.12925
0.11189
-0.124765
0.107981
-0.116749
0.103396
-0.106669
0.101334
-0.0928039
0.105493
-0.0669831
0.11651
-0.0308905
0.132168
0.0221707
0.148882
0.0865405
0.163103
0.173969
0.171607
0.252493
0.17342
0.29134
0.169831
0.251234
0.164101
0.136103
0.157132
0.000430186
0.152239
-0.130659
0.150056
-0.175562
0.146358
-0.200354
0.139871
-0.186327
0.134011
-0.217318
0.136204
-0.204182
0.142522
-0.0830275
0.147264
0.0288662
0.147237
0.260932
0.14583
0.270171
0.14945
0.29958
0.153743
0.213137
-0.0295843
0.193085
-0.0166057
-0.197494
0.189532
-0.0198993
0.185771
-0.0224091
0.181562
-0.0248641
0.176938
-0.0270263
0.172041
-0.0285713
0.166998
-0.0292778
0.161911
-0.0289773
0.1569
-0.0275172
0.152102
-0.0247452
0.147644
-0.0205163
0.143605
-0.0147711
0.140073
-0.00757303
0.136903
0.00113745
0.134358
0.0113335
0.13221
0.0219876
0.130848
0.032807
0.131086
0.0436796
0.133889
0.0539642
0.13987
0.0619892
0.148966
0.0658155
0.160849
0.0634187
0.174686
0.0516292
0.187798
0.0281113
0.196554
-0.00468525
0.199448
-0.0391564
0.196905
-0.0694349
0.190795
-0.0925947
0.182789
-0.108069
0.174188
-0.117629
0.165803
-0.122124
0.157685
-0.123038
0.14993
-0.121495
0.142877
-0.117712
0.135733
-0.109605
0.127375
-0.0983111
0.119576
-0.0850046
0.116081
-0.0634878
0.118582
-0.0333913
0.125063
0.0156891
0.132196
0.0794077
0.137811
0.168354
0.141924
0.24838
0.146381
0.286883
0.152607
0.245008
0.159025
0.129685
0.161966
-0.00251022
0.16163
-0.130323
0.159281
-0.173213
0.153908
-0.19498
0.145876
-0.178296
0.137916
-0.209358
0.134857
-0.201122
0.135624
-0.0837951
0.135061
0.0294296
0.132831
0.263162
0.131789
0.271213
0.136264
0.295105
0.141709
0.207692
-0.0295589
0.202256
-0.0132909
-0.205571
0.198755
-0.0163986
0.195227
-0.0188813
0.191355
-0.0209918
0.187123
-0.0227937
0.182651
-0.0240995
0.17806
-0.0246873
0.173461
-0.0243785
0.168976
-0.023032
0.164746
-0.0205151
0.160935
-0.0167054
0.157699
-0.0115348
0.155112
-0.00498644
0.153259
0.00299045
0.152325
0.0122675
0.152174
0.022139
0.152905
0.0320763
0.154954
0.0416306
0.158963
0.0499547
0.16537
0.0555826
0.174178
0.0570074
0.18504
0.0525566
0.196706
0.039963
0.206693
0.0181243
0.212268
-0.0102602
0.21265
-0.0395386
0.208515
-0.0652998
0.201453
-0.0855329
0.192933
-0.0995489
0.184035
-0.108731
0.175488
-0.113577
0.167324
-0.114874
0.159418
-0.113589
0.152187
-0.110481
0.145309
-0.102727
0.13744
-0.0904428
0.129512
-0.0770758
0.125087
-0.0590634
0.126558
-0.0348625
0.132699
0.00954809
0.140255
0.071852
0.146777
0.161833
0.151964
0.243193
0.157652
0.281195
0.164981
0.23768
0.172123
0.122543
0.175057
-0.00544478
0.173935
-0.129201
0.170649
-0.169927
0.164617
-0.188947
0.156032
-0.169711
0.147202
-0.200528
0.143558
-0.197479
0.144322
-0.0845586
0.14407
0.0296819
0.141925
0.265306
0.140885
0.272253
0.146082
0.289907
0.152227
0.201547
-0.029519
0.211498
-0.0106575
-0.214132
0.208337
-0.0132373
0.204976
-0.0155206
0.201393
-0.0174082
0.197533
-0.0189337
0.193456
-0.0200226
0.189274
-0.0205056
0.185108
-0.0202118