/*--------------------------------*- C++ -*----------------------------------*\
| =========                 |                                                 |
| \\      /  F ield         | OpenFOAM: The Open Source CFD Toolbox           |
|  \\    /   O peration     | Version:  2512                                  |
|   \\  /    A nd           | Website:  www.openfoam.com                      |
|    \\/     M anipulation  |                                                 |
\*---------------------------------------------------------------------------*/
FoamFile
{
    version     2.0;
    format      ascii;
    arch        "LSB;label=32;scalar=64";
    class       volVectorField;
    location    "148";
    object      U;
}
// * * * * * * * * * * * * * * * * * * * * * * * * * * * * * * * * * * * * * //

dimensions      [0 1 -1 0 0 0 0];

internalField   nonuniform List<vector> 
13248
(
(-0.0111505 0.00964392 6.58885e-20)
(-0.0197929 0.0176018 0)
(-0.0166307 0.018691 -1.25134e-19)
(-0.00189236 0.0160134 1.17881e-19)
(0.0244988 0.0116378 1.10358e-19)
(0.0626564 0.00697224 0)
(0.112587 0.00300718 0)
(0.174022 0.000430351 2.60688e-19)
(0.246253 -0.00028907 -3.45655e-21)
(0.328028 0.00113085 -2.23718e-19)
(0.417511 0.00479005 2.01309e-19)
(0.512347 0.0106041 -1.25286e-19)
(0.609797 0.0183077 0)
(0.706937 0.027473 -2.00999e-19)
(0.800882 0.0375441 3.7111e-19)
(0.888995 0.0478851 -8.70661e-20)
(0.96907 0.0578393 -1.50131e-19)
(1.03946 0.0667695 1.40935e-19)
(1.09913 0.0741753 0)
(1.14771 0.079462 0)
(1.18545 0.0828661 0)
(1.21304 0.0825831 0)
(1.23188 0.0827409 4.26145e-20)
(1.24334 0.0728479 1.57179e-19)
(-0.011461 0.00919319 -1.99155e-19)
(-0.0164805 0.0159356 1.36177e-19)
(-0.00530459 0.0164429 -1.06895e-21)
(0.0211009 0.0136567 -1.80154e-19)
(0.0622921 0.00969323 -1.10235e-19)
(0.117871 0.00608678 -1.03968e-19)
(0.187168 0.00390641 -1.89345e-19)
(0.268981 0.00385575 1.79131e-19)
(0.361398 0.00632772 0)
(0.46175 0.0114239 1.93286e-21)
(0.566715 0.018967 4.43121e-21)
(0.672568 0.0285277 1.26178e-19)
(0.77551 0.0394752 0)
(0.872018 0.0510503 0)
(0.959155 0.062452 1.36145e-19)
(1.03478 0.0729241 -2.55451e-19)
(1.09769 0.0818293 1.494e-19)
(1.14759 0.0886987 -1.40259e-19)
(1.18505 0.0932645 -6.16955e-20)
(1.21133 0.0954235 -1.10654e-19)
(1.22811 0.0953385 -4.65995e-20)
(1.23762 0.0928854 -8.73128e-20)
(1.24109 0.0896168 1.27676e-19)
(1.2422 0.0822034 3.71266e-20)
(-0.0104662 0.0078246 0)
(-0.00919747 0.0122473 0)
(0.0127877 0.0118649 6.37319e-20)
(0.0537728 0.00930992 5.8684e-20)
(0.112628 0.00662711 -1.60386e-21)
(0.188114 0.00536105 -1.07326e-19)
(0.278387 0.00652342 0)
(0.38072 0.0106461 -8.86727e-20)
(0.491433 0.0178195 8.25481e-20)
(0.606059 0.0277267 7.43242e-22)
(0.71974 0.0397069 -1.37183e-19)
(0.827742 0.0528589 -1.22832e-19)
(0.925958 0.0661745 4.03699e-21)
(1.01132 0.0786769 -9.67903e-20)
(1.08201 0.0895419 2.35423e-19)
(1.13753 0.0981816 0)
(1.17856 0.104283 -1.47656e-19)
(1.20674 0.107793 7.14483e-20)
(1.22429 0.108897 6.16421e-20)
(1.23368 0.107856 0)
(1.23736 0.105246 5.02571e-20)
(1.23736 0.10093 -1.75038e-19)
(1.23502 0.096861 1.64314e-19)
(1.23294 0.0892586 1.05038e-19)
(-0.0079057 0.00576091 -7.07096e-20)
(0.00283876 0.00713085 -7.31181e-20)
(0.0388205 0.00591011 6.61062e-20)
(0.0974446 0.00428322 0)
(0.176572 0.00408198 0)
(0.273596 0.0066869 -2.13787e-21)
(0.38485 0.0128133 0)
(0.505473 0.022529 -2.70013e-19)
(0.629663 0.0353255 2.49295e-19)
(0.751257 0.0502361 -3.05388e-19)
(0.864483 0.0660177 6.87787e-20)
(0.964666 0.0813671 0)
(1.04871 0.0951276 1.10963e-19)
(1.11532 0.106442 -2.04174e-19)
(1.16484 0.114832 4.82807e-20)
(1.19901 0.120195 1.20604e-19)
(1.22043 0.122739 -6.68059e-21)
(1.23209 0.122878 -1.34614e-19)
(1.23688 0.121115 0)
(1.23728 0.117946 0)
(1.23517 0.113833 -4.71873e-20)
(1.2318 0.108887 4.22709e-20)
(1.22782 0.104262 1.51246e-19)
(1.22421 0.0970415 -1.41978e-19)
(-0.00348867 0.0032583 -7.46334e-20)
(0.0204016 0.00135772 -7.42453e-20)
(0.0738304 -0.000138889 2.08822e-19)
(0.153033 0.000323017 -1.26456e-19)
(0.254332 0.00414964 1.1903e-19)
(0.373052 0.0122776 2.1534e-19)
(0.503034 0.0247741 -1.51854e-19)
(0.636937 0.0408872 -1.82693e-19)
(0.76706 0.0592538 5.04233e-21)
(0.886403 0.0781928 2.31374e-19)
(0.989624 0.0960375 0)
(1.07362 0.111425 6.23361e-20)
(1.13763 0.123479 0)
(1.18292 0.131865 -9.87402e-20)
(1.21221 0.136722 1.3831e-19)
(1.22893 0.138522 8.37671e-22)
(1.23662 0.1379 -3.57528e-20)
(1.23836 0.135507 6.56375e-20)
(1.23659 0.131905 5.69924e-20)
(1.23297 0.12751 -5.08851e-20)
(1.22852 0.122638 4.71769e-20)
(1.22379 0.117337 -4.22612e-20)
(1.21897 0.112319 0)
(1.21471 0.105361 -3.23449e-20)
(0.00310766 0.000600879 7.46227e-20)
(0.0441872 -0.00416751 7.83117e-20)
(0.118513 -0.00478595 -6.99566e-20)
(0.220677 -0.000615266 1.3005e-19)
(0.34475 0.00898708 -1.22406e-19)
(0.483251 0.0241045 1.10068e-19)
(0.627145 0.0437373 -5.29416e-20)
(0.766903 0.0660247 1.3738e-19)
(0.893977 0.0887137 -8.6314e-20)
(1.00211 0.109658 1.50544e-19)
(1.08802 0.127217 -3.4598e-19)
(1.15144 0.140475 1.26778e-19)
(1.19449 0.149245 -1.08668e-19)
(1.22078 0.153916 1.02071e-19)
(1.23448 0.155226 8.6566e-20)
(1.23955 0.154019 7.4931e-20)
(1.23925 0.151078 -2.09003e-19)
(1.23594 0.147022 1.2918e-19)
(1.23119 0.142282 -5.6995e-20)
(1.22588 0.137135 1.48323e-19)
(1.2205 0.131741 -4.7932e-20)
(1.21523 0.126158 -1.16194e-19)
(1.21015 0.120749 1.07188e-19)
(1.20545 0.113991 3.23352e-20)
(0.0122012 -0.00188502 0)
(0.0746857 -0.00843552 6.47083e-22)
(0.172978 -0.00645289 1.46238e-19)
(0.29941 0.00335922 -1.37172e-19)
(0.445029 0.0203918 -1.23168e-19)
(0.599071 0.0433816 2.28539e-19)
(0.749897 0.0699183 -1.05954e-19)
(0.886951 0.0970058 1.39972e-19)
(1.00259 0.121827 -3.56789e-21)
(1.09303 0.142321 -7.87613e-20)
(1.15827 0.157449 1.69291e-19)
(1.20115 0.16714 -2.49315e-19)
(1.22614 0.172033 0)
(1.23812 0.173132 -4.81146e-20)
(1.24149 0.171503 -1.2697e-19)
(1.23971 0.168072 4.01589e-20)
(1.2352 0.163534 1.72712e-21)
(1.22947 0.158357 -8.54305e-20)
(1.22338 0.152825 5.96066e-21)
(1.21735 0.1471 9.85639e-20)
(1.21156 0.141268 -4.35522e-20)
(1.20605 0.135383 -1.6513e-20)
(1.20077 0.129574 5.0994e-20)
(1.19578 0.122962 0)
(0.0240394 -0.00381431 0)
(0.112024 -0.0103567 3.97058e-20)
(0.236544 -0.00359973 -1.912e-19)
(0.387009 0.0138368 6.93044e-20)
(0.550875 0.0394958 -6.52265e-20)
(0.714237 0.0703286 -5.93832e-20)
(0.864002 0.102448 -1.0431e-19)
(0.990454 0.132091 5.24344e-20)
(1.08871 0.15652 4.51583e-20)
(1.15863 0.174401 0)
(1.20363 0.185702 1.00802e-19)
(1.22901 0.191292 -1.49213e-19)
(1.2404 0.192465 1.10725e-19)
(1.24276 0.190545 4.81396e-20)
(1.2399 0.186641 -3.89966e-20)
(1.23439 0.181565 -3.19898e-20)
(1.22778 0.175846 -2.96235e-20)
(1.22094 0.169799 8.9776e-20)
(1.21429 0.163598 0)
(1.20797 0.157335 4.43787e-20)
(1.20202 0.15106 3.6957e-20)
(1.1964 0.14481 -9.22167e-20)
(1.19103 0.138584 -6.2711e-20)
(1.18588 0.132033 5.7893e-20)
(0.0387283 -0.00474141 -4.31073e-20)
(0.155829 -0.00880905 -1.68631e-21)
(0.307633 0.00514715 3.8926e-20)
(0.48011 0.0319188 1.08573e-19)
(0.657081 0.0666237 3.13573e-20)
(0.822496 0.104246 -6.07449e-20)
(0.963706 0.139778 5.53611e-20)
(1.07382 0.16941 -4.82146e-20)
(1.15197 0.191207 8.59949e-20)
(1.20181 0.205018 3.61696e-20)
(1.22945 0.211905 -1.02907e-19)
(1.24142 0.213488 3.00143e-20)
(1.24345 0.211413 5.07023e-20)
(1.23984 0.207041 -2.50425e-20)
(1.23345 0.201353 0)
(1.22601 0.194976 3.64658e-20)
(1.21841 0.188277 6.10677e-20)
(1.21109 0.181453 9.9902e-21)
(1.2042 0.174605 -5.05547e-20)
(1.19777 0.167789 2.08998e-20)
(1.19176 0.161034 0)
(1.1861 0.154353 -1.62164e-20)
(1.1807 0.147706 -1.53609e-20)
(1.17547 0.141114 0)
(0.056167 -0.00418319 0)
(0.205138 -0.00272642 2.26077e-20)
(0.383806 0.0208547 4.17363e-20)
(0.574564 0.0580949 -1.10815e-19)
(0.758331 0.101325 3.58591e-20)
(0.918712 0.143815 0)
(1.04563 0.180194 5.32441e-20)
(1.13647 0.207448 -7.42782e-20)
(1.19465 0.225 -4.29636e-20)
(1.22694 0.23401 1.93005e-20)
(1.24097 0.236461 -3.04468e-20)
(1.24344 0.23441 7.41468e-20)
(1.23944 0.229573 3.65561e-20)
(1.23232 0.223174 -2.5707e-20)
(1.22404 0.215993 -2.69032e-21)
(1.21566 0.208475 -6.82724e-20)
(1.20762 0.200856 3.09594e-20)
(1.20012 0.193255 -8.20993e-22)
(1.19318 0.185732 0)
(1.18676 0.178319 -2.09217e-20)
(1.18079 0.171032 0)
(1.17517 0.16386 4.65383e-20)
(1.1698 0.156792 -5.50931e-20)
(1.16456 0.150035 2.50215e-20)
(0.0760051 -0.00165865 -1.18317e-20)
(0.25839 0.00879621 -5.69092e-20)
(0.461939 0.0441613 6.4755e-20)
(0.665938 0.0922075 3.78823e-20)
(0.849957 0.142541 -1.81069e-20)
(0.999456 0.187447 3.01985e-20)
(1.10867 0.22217 -1.46948e-20)
(1.17982 0.245201 2.42344e-20)
(1.22007 0.257562 0)
(1.23819 0.261589 5.41233e-20)
(1.24223 0.259871 -2.46342e-21)
(1.23837 0.254611 -4.3248e-20)
(1.23069 0.247398 1.83158e-20)
(1.22162 0.239238 -2.04096e-20)
(1.21241 0.230702 -7.54344e-21)
(1.20362 0.222088 8.95782e-21)
(1.19546 0.21354 -6.75102e-21)
(1.18796 0.205127 -3.63896e-20)
(1.18109 0.196885 2.22459e-20)
(1.17477 0.188832 4.46946e-21)
(1.16892 0.180968 3.89963e-21)
(1.16341 0.17327 3.40394e-21)
(1.15814 0.165787 0)
(1.15296 0.158727 0)
(0.0977014 0.00327474 1.18399e-20)
(0.313628 0.0264148 -1.18166e-20)
(0.53867 0.0751975 -2.1573e-20)
(0.75018 0.133501 0)
(0.928513 0.188833 -8.98734e-21)
(1.06306 0.233583 -8.07355e-21)
(1.15334 0.264539 -1.37279e-20)
(1.20614 0.28212 0)
(1.23136 0.288892 0)
(1.23869 0.288076 0)
(1.2358 0.282552 0)
(1.22792 0.274442 0)
(1.21815 0.265105 -1.14507e-20)
(1.20812 0.255312 5.19799e-21)
(1.19854 0.245458 8.93157e-21)
(1.18968 0.235729 4.16581e-21)
(1.18159 0.226208 1.01446e-20)
(1.17425 0.216932 0)
(1.16757 0.20792 -2.36167e-21)
(1.16148 0.19918 -2.25931e-21)
(1.15585 0.190695 -3.90586e-21)
(1.15057 0.182449 -3.40939e-21)
(1.14552 0.174556 0)
(1.14053 0.167055 2.36471e-21)
(-0.00023373 -0.0416168 8.98171e-21)
(-0.00488771 -0.0923622 -9.32862e-21)
(-0.0156797 -0.120477 -1.76601e-20)
(-0.029845 -0.132455 0)
(-0.0457339 -0.133555 -2.37622e-20)
(-0.0624698 -0.127786 7.5539e-21)
(-0.0794631 -0.117905 -1.40001e-20)
(-0.0963153 -0.105549 0)
(-0.112767 -0.0914744 0)
(-0.128638 -0.0758262 0)
(-0.143783 -0.0584015 0)
(-0.158061 -0.0388502 0)
(-0.17132 -0.0168068 3.42466e-22)
(-0.183394 0.00802187 -9.47465e-21)
(-0.194144 0.0358029 1.71054e-20)
(-0.203391 0.0665527 2.43071e-20)
(-0.210897 0.100163 7.06523e-21)
(-0.216436 0.136341 0)
(-0.219784 0.174613 6.71801e-21)
(-0.220732 0.214316 -1.81548e-20)
(-0.219093 0.254611 -1.09229e-20)
(-0.214687 0.294528 -1.00493e-20)
(-0.207493 0.333071 0)
(-0.198123 0.369277 0)
(0.00168458 -0.0362307 -2.667e-20)
(-0.00120324 -0.0797697 4.62376e-20)
(-0.0117607 -0.103266 -1.69495e-20)
(-0.0264202 -0.112405 -3.27543e-20)
(-0.0430785 -0.111889 4.65679e-20)
(-0.0606209 -0.105332 -2.91053e-20)
(-0.0783327 -0.0952146 4.13734e-20)
(-0.0957608 -0.0830056 2.52668e-20)
(-0.11263 -0.0693722 0)
(-0.128759 -0.0544289 -2.33335e-20)
(-0.143995 -0.0379718 6.99115e-23)
(-0.158181 -0.0196693 2.07089e-20)
(-0.17114 0.000805045 2.79199e-20)
(-0.182677 0.0236946 3.50034e-20)
(-0.192573 0.0491237 -1.73503e-20)
(-0.200569 0.0771071 -4.65818e-20)
(-0.206374 0.107495 1.32341e-20)
(-0.209678 0.139981 -5.13189e-20)
(-0.210165 0.1741 0)
(-0.207533 0.209235 1.18319e-20)
(-0.201497 0.244643 1.09074e-20)
(-0.191718 0.279497 1.00346e-20)
(-0.177916 0.312997 0)
(-0.161173 0.344624 0)
(0.00296172 -0.0302627 0)
(0.00132533 -0.0662003 8.83931e-20)
(-0.00879848 -0.0851678 -3.34515e-20)
(-0.0233434 -0.0918114 3.21095e-20)
(-0.0398991 -0.0901174 -8.89274e-20)
(-0.0571682 -0.08321 0)
(-0.0743321 -0.0732523 -5.2621e-20)
(-0.0908866 -0.0615367 2.42511e-20)
(-0.106535 -0.0486598 -4.53947e-20)
(-0.121087 -0.0347309 2.01615e-20)
(-0.13438 -0.0195744 1.20193e-19)
(-0.14625 -0.00290146 -5.63503e-20)
(-0.156503 0.0155696 -8.80171e-20)
(-0.164908 0.0360467 -3.06973e-20)
(-0.171202 0.0586269 9.19553e-22)
(-0.175087 0.083279 1.11535e-19)
(-0.176237 0.109831 -5.19049e-20)
(-0.174303 0.137968 2.31183e-21)
(-0.168926 0.16724 0)
(-0.159768 0.197075 -3.7904e-20)
(-0.146535 0.22682 0)
(-0.128897 0.255811 -3.46476e-20)
(-0.10619 0.283567 1.24038e-19)
(-0.0785266 0.310147 -1.63419e-22)
(0.00355299 -0.0241589 0)
(0.00256254 -0.0525594 -9.30707e-22)
(-0.00707178 -0.0672919 3.21307e-20)
(-0.0210616 -0.071871 -3.01903e-20)
(-0.0368312 -0.0694833 2.94083e-20)
(-0.0529614 -0.0627082 1.61895e-19)
(-0.068555 -0.0533616 -5.09336e-20)
(-0.083063 -0.04255 -4.68035e-20)
(-0.0961674 -0.0308035 8.90035e-20)
(-0.107667 -0.0182392 -1.24722e-19)
(-0.117401 -0.00472731 3.79284e-20)
(-0.125198 0.00996575 3.48458e-20)
(-0.13086 0.026076 0)
(-0.134151 0.0437723 3.1515e-20)
(-0.134799 0.0631216 0)
(-0.132503 0.0840709 4.96689e-20)
(-0.126941 0.106441 -9.29542e-20)
(-0.117775 0.129923 2.48838e-20)
(-0.104667 0.15409 7.9745e-20)
(-0.0872991 0.178412 3.78613e-20)
(-0.0654123 0.202285 0)
(-0.0387017 0.225157 -9.18841e-20)
(-0.00625853 0.246801 2.95098e-20)
(0.0321684 0.267732 0)
(0.00346595 -0.0182393 0)
(0.0024615 -0.0395022 -1.01106e-19)
(-0.00677797 -0.0504493 -3.16027e-20)
(-0.0199653 -0.053466 -5.97269e-20)
(-0.0344872 -0.0509158 5.62423e-20)
(-0.0488689 -0.0448082 -5.34505e-20)
(-0.0621678 -0.0365928 9.82298e-20)
(-0.0738042 -0.0271769 4.59652e-20)
(-0.0834427 -0.0170158 -1.29726e-19)
(-0.0908786 -0.00623183 7.89502e-20)
(-0.0959549 0.00525868 -1.11044e-19)
(-0.0985144 0.017633 2.34892e-19)
(-0.0983748 0.0310743 -1.26397e-19)
(-0.0953218 0.0457131 5.59663e-20)
(-0.0891116 0.0615941 1.54586e-19)
(-0.0794781 0.078657 -5.24555e-20)
(-0.0661442 0.0967332 -4.49702e-20)
(-0.0488276 0.11554 -4.22439e-20)
(-0.0272514 0.134691 0)
(-0.00117037 0.153703 -6.49786e-20)
(0.0296077 0.172016 -5.82053e-20)
(0.0652047 0.189069 8.51031e-20)
(0.106225 0.204584 1.04348e-19)
(0.155977 0.219054 -9.62806e-20)
(0.00273376 -0.0126846 0)
(0.00104432 -0.027414 -1.31057e-19)
(-0.00799844 -0.0351226 5.48673e-22)
(-0.0202788 -0.0371168 1.17078e-19)
(-0.0332597 -0.0349512 0)
(-0.0454814 -0.0300651 0)
(-0.0559985 -0.023533 0)
(-0.0642223 -0.0160487 -4.46786e-20)
(-0.0698117 -0.00797656 1.1811e-21)
(-0.072564 0.00057067 7.75167e-20)
(-0.0723359 0.00964249 -1.06589e-19)
(-0.0689948 0.0193664 1.16781e-21)
(-0.0623942 0.0298791 0)
(-0.0523625 0.0412766 -5.59401e-20)
(-0.038711 0.0535929 4.66924e-20)
(-0.0212312 0.0667709 -1.35873e-19)
(0.000284898 0.0806624 1.62658e-19)
(0.0260383 0.0950245 3.20674e-20)
(0.0562207 0.109523 -4.35787e-21)
(0.0909953 0.123739 -1.24519e-19)
(0.130484 0.137183 -5.4677e-20)
(0.174917 0.149286 1.79979e-19)
(0.223101 0.159702 -1.18681e-19)
(0.285224 0.167736 0)
(0.00140166 -0.00756937 6.21278e-20)
(-0.00159202 -0.0164659 6.52391e-20)
(-0.0106344 -0.0215145 -6.09291e-20)
(-0.0219197 -0.0230047 -1.15034e-19)
(-0.0330888 -0.0217196 1.0832e-19)
(-0.042768 -0.0185458 -1.00673e-19)
(-0.0500533 -0.0141853 1.41535e-19)
(-0.0543726 -0.00910795 -4.43017e-20)
(-0.0553891 -0.00356833 8.17593e-20)
(-0.0529047 0.00235307 0)
(-0.0467874 0.00869328 6.61164e-20)
(-0.0369273 0.0155496 -1.25948e-19)
(-0.0232143 0.023026 1.13392e-19)
(-0.00551581 0.0312039 -1.06498e-19)
(0.0163067 0.0401098 0)
(0.0423922 0.0496989 8.64468e-20)
(0.0728877 0.0598519 1.51425e-19)
(0.107925 0.0703718 -1.43659e-19)
(0.147624 0.0809802 -6.29002e-20)
(0.192091 0.0913267 -5.76645e-20)
(0.241182 0.10097 1.62559e-19)
(0.296195 0.109456 4.77671e-20)
(0.351224 0.116469 -4.51349e-20)
(0.429703 0.119512 4.25459e-20)
(-0.000464262 -0.00292487 -6.21362e-20)
(-0.00524113 -0.00672495 1.92652e-19)
(-0.0143318 -0.00966174 -6.02272e-20)
(-0.0243701 -0.0110752 1.13832e-19)
(-0.0332651 -0.0110284 -1.07187e-19)
(-0.0397878 -0.00988649 1.85735e-22)
(-0.0431106 -0.007991 4.66858e-20)
(-0.0426913 -0.00558274 1.70056e-19)
(-0.0381953 -0.00278826 -3.00379e-21)
(-0.0294165 0.000370741 -7.54122e-20)
(-0.0162135 0.00394769 0)
(0.00152473 0.00803432 -5.89638e-20)
(0.0238978 0.0127293 1.13913e-19)
(0.0510056 0.0181122 1.00026e-19)
(0.0829451 0.0242118 -4.82144e-20)
(0.119798 0.0310051 -1.02393e-21)
(0.161626 0.0384009 -3.8309e-20)
(0.208461 0.0462366 6.77264e-20)
(0.260278 0.0542719 6.28893e-20)
(0.317143 0.0622373 -5.72987e-20)
(0.378034 0.0696002 5.1718e-20)
(0.446743 0.0763426 -4.7862e-20)
(0.508587 0.0817072 0)
(0.607318 0.083179 -4.25098e-20)
(-0.00274962 0.00119513 6.17633e-20)
(-0.0095375 0.00172219 -6.41299e-20)
(-0.0184254 0.000416477 6.04906e-20)
(-0.0266165 -0.00120035 0)
(-0.0323589 -0.00253947 0)
(-0.0346044 -0.00348563 9.83458e-20)
(-0.0326137 -0.00403895 -9.28763e-20)
(-0.0258703 -0.00421092 8.36099e-20)
(-0.0140233 -0.00398587 -3.94391e-19)
(0.00316411 -0.00330394 1.37082e-21)
(0.0258558 -0.00206754 6.63309e-20)
(0.0541708 -0.00016057 0)
(0.0881846 0.00252917 -1.08556e-19)
(0.127924 0.00608515 2.0034e-19)
(0.17336 0.0105453 -1.38106e-19)
(0.224396 0.0158894 -2.02459e-19)
(0.280853 0.0220288 5.32987e-21)
(0.342461 0.028803 1.36585e-19)
(0.408789 0.0359525 0)
(0.47973 0.0433088 0)
(0.552781 0.0500314 -5.17132e-20)
(0.634387 0.0569058 4.78571e-20)
(0.701085 0.0616957 -1.79435e-19)
(0.813514 0.0650104 1.68228e-19)
(-0.00526295 0.00467418 0)
(-0.0139246 0.00868207 0)
(-0.0219432 0.0085921 -1.81475e-19)
(-0.0272087 0.00665145 5.759e-20)
(-0.0283547 0.00401087 8.28815e-22)
(-0.024524 0.00121557 9.98855e-20)
(-0.0150627 -0.00141876 0)
(0.00052858 -0.00368742 -8.54868e-20)
(0.0226082 -0.00542322 7.88444e-20)
(0.0514228 -0.00646541 -1.42771e-19)
(0.0871079 -0.0066537 1.55352e-21)
(0.129681 -0.00583902 1.18946e-19)
(0.179031 -0.0039004 -3.63523e-21)
(0.234902 -0.000762278 9.45498e-20)
(0.296881 0.00358764 -1.38768e-19)
(0.36439 0.00908512 0)
(0.436694 0.015582 1.46104e-19)
(0.512924 0.0228498 -2.04491e-19)
(0.591978 0.0305385 6.18747e-20)
(0.673203 0.0384576 0)
(0.753365 0.0455773 5.23422e-20)
(0.838298 0.0530447 1.93232e-19)
(0.904976 0.0574234 -1.81335e-19)
(1.01035 0.062779 -2.14889e-19)
(-0.00772785 0.00734279 1.87815e-19)
(-0.0176696 0.0138508 -2.59028e-19)
(-0.0236913 0.0145868 3.28319e-22)
(-0.0244492 0.0123272 5.76816e-20)
(-0.0189852 0.00866922 -1.07536e-19)
(-0.0066375 0.00452618 -9.95202e-20)
(0.0131465 0.000482622 1.83733e-19)
(0.0408044 -0.00304844 -3.52099e-21)
(0.0766256 -0.00575065 -1.59561e-19)
(0.120713 -0.00737051 2.88537e-19)
(0.172956 -0.007699 -3.97715e-21)
(0.232991 -0.00657737 -1.23041e-19)
(0.300186 -0.0039128 0)
(0.373635 0.00030418 0)
(0.452177 0.00598567 -4.53314e-20)
(0.534439 0.0129391 -8.29163e-20)
(0.618891 0.020871 -1.47588e-19)
(0.703916 0.0293907 1.38531e-19)
(0.787841 0.0380514 -6.18951e-20)
(0.869243 0.0463668 1.13199e-19)
(0.945805 0.0537037 -5.40061e-20)
(1.01945 0.0601977 9.64769e-20)
(1.07779 0.0637046 -2.27935e-19)
(1.15403 0.0678786 4.2492e-20)
(-0.00980586 0.00903081 6.32474e-20)
(-0.0199227 0.0168978 0)
(-0.0223701 0.0180486 1.23279e-19)
(-0.0165985 0.0155474 -1.16138e-19)
(-0.00207003 0.0113 1.07629e-19)
(0.0216495 0.00650098 0)
(0.0549356 0.00196831 0)
(0.0980218 -0.0017103 -8.50259e-20)
(0.150893 -0.00411362 3.39498e-21)
(0.213203 -0.0049318 7.51084e-20)
(0.284212 -0.00395715 -6.53395e-20)
(0.362759 -0.00109135 1.24035e-19)
(0.447286 0.00364182 0)
(0.535899 0.0100873 1.9908e-19)
(0.626476 0.0179591 -3.67677e-19)
(0.716791 0.026852 2.52662e-19)
(0.80465 0.0362713 1.49253e-19)
(0.888004 0.0456394 -1.40101e-19)
(0.965084 0.0544439 0)
(1.03441 0.0619186 0)
(1.095 0.0680859 0)
(1.14651 0.071447 0)
(1.18697 0.0735294 4.53112e-20)
(1.22669 0.0723567 -1.68744e-19)
(-0.18567 0.407555 -6.09282e-21)
(-0.167263 0.445812 6.11558e-21)
(-0.141336 0.473192 -1.7505e-22)
(-0.107991 0.486054 0)
(-0.0660935 0.480724 -5.42071e-21)
(-0.015262 0.454039 1.06725e-20)
(0.0440764 0.403981 1.82522e-22)
(0.110114 0.329856 -5.28283e-21)
(0.180197 0.233878 0)
(0.251723 0.119182 0)
(0.321729 -0.01 -3.4177e-22)
(0.389339 -0.148588 -3.22094e-22)
(0.454077 -0.287979 -4.53702e-21)
(0.513609 -0.414551 4.12599e-21)
(0.564171 -0.51275 0)
(0.601907 -0.572928 0)
(0.624882 -0.596062 1.84014e-21)
(0.634405 -0.590675 -2.76625e-22)
(0.632781 -0.56982 -1.38419e-21)
(0.618013 -0.550942 -7.54533e-23)
(0.586468 -0.546024 0)
(0.543901 -0.543747 0)
(0.509969 -0.506833 0)
(0.506192 -0.399084 0)
(0.537798 -0.219243 0)
(0.593199 -0.00475452 0)
(0.656685 0.194083 5.51743e-22)
(0.715234 0.341497 -8.75183e-22)
(0.7597 0.42875 0)
(0.788186 0.466361 0)
(0.804342 0.470765 -3.22013e-22)
(0.80682 0.46968 3.12965e-22)
(0.788057 0.483418 1.47068e-22)
(0.748782 0.502032 0)
(0.709505 0.472571 0)
(0.692338 0.354353 4.53635e-22)
(0.705959 0.157914 -4.4095e-22)
(0.739644 -0.057173 0)
(0.779113 -0.226932 3.42477e-22)
(0.815993 -0.333902 -4.85834e-22)
(0.84129 -0.37765 1.17412e-22)
(0.844271 -0.407675 0)
(0.814689 -0.419641 -1.67116e-22)
(0.764739 -0.417584 1.62507e-22)
(0.728289 -0.336372 0)
(0.721794 -0.184176 0)
(0.750857 -0.0076399 -8.6941e-23)
(0.793981 0.161508 2.35206e-22)
(0.824584 0.248114 0)
(0.820651 0.35225 0)
(0.791585 0.361301 -4.94718e-23)
(0.761815 0.352862 -3.18628e-24)
(0.770324 0.231939 -4.91536e-25)
(0.793427 0.0495389 4.90143e-23)
(0.816774 -0.0565448 0)
(0.81541 -0.279086 0)
(0.804179 -0.282114 0)
(0.794233 -0.345806 0)
(0.798595 -0.250533 0)
(0.784952 0.0361435 0)
(-0.142087 0.379033 -5.3714e-22)
(-0.113321 0.41094 -2.25171e-20)
(-0.0758456 0.431747 -7.79155e-23)
(-0.0301737 0.438032 2.12058e-20)
(0.0238292 0.426527 3.41353e-22)
(0.0855855 0.394647 0)
(0.15367 0.341034 -2.28844e-20)
(0.225865 0.265804 4.62529e-20)
(0.299382 0.170902 -2.33705e-20)
(0.371708 0.0589854 2.34377e-20)
(0.440814 -0.0669694 -2.24371e-20)
(0.506073 -0.202069 2.03743e-20)
(0.566598 -0.337695 -1.98614e-20)
(0.619073 -0.458594 -5.33396e-22)
(0.658726 -0.547907 -1.24611e-20)
(0.682384 -0.596461 1.211e-20)
(0.689937 -0.6076 -7.63584e-21)
(0.684195 -0.592313 7.21285e-21)
(0.669634 -0.562891 -5.23456e-21)
(0.646818 -0.534112 9.72719e-21)
(0.610767 -0.51968 -4.51627e-21)
(0.561381 -0.515469 -2.62739e-22)
(0.513294 -0.489839 -5.30468e-21)
(0.490064 -0.402915 1.10537e-20)
(0.504583 -0.243076 -5.73219e-21)
(0.550386 -0.0407501 3.54579e-22)
(0.611774 0.155577 5.46286e-21)
(0.673642 0.308724 -6.24017e-22)
(0.725186 0.405525 -7.70426e-21)
(0.763126 0.452205 6.24672e-21)
(0.788851 0.464674 -2.78206e-21)
(0.798167 0.4727 2.95368e-22)
(0.784255 0.495577 -1.47377e-22)
(0.750624 0.51843 3.35713e-22)
(0.719916 0.48519 0)
(0.711576 0.357408 0)
(0.731645 0.151291 -2.02378e-21)
(0.767939 -0.0700093 1.46431e-21)
(0.805023 -0.240841 1.04748e-21)
(0.835923 -0.344878 -1.49098e-22)
(0.854023 -0.382296 -1.21146e-21)
(0.853354 -0.403045 1.87476e-22)
(0.820766 -0.406749 0)
(0.768318 -0.403465 0)
(0.726525 -0.329315 0)
(0.716761 -0.187909 0)
(0.745034 -0.0189704 3.02809e-22)
(0.788096 0.150264 -1.50796e-22)
(0.820034 0.243781 0)
(0.815069 0.356156 0)
(0.788709 0.368348 0)
(0.758907 0.355703 -1.12514e-22)
(0.770488 0.228699 -1.68054e-23)
(0.796745 0.0440189 -9.46007e-23)
(0.822333 -0.0588552 0)
(0.823179 -0.277344 0)
(0.808643 -0.280428 4.09054e-23)
(0.799055 -0.344952 8.71749e-23)
(0.799955 -0.249521 0)
(0.784504 0.0376116 0)
(-0.0517899 0.339408 8.55343e-22)
(-0.0168088 0.365569 -4.18797e-20)
(0.027922 0.381016 4.38244e-20)
(0.0807778 0.382448 -4.09869e-20)
(0.141038 0.367098 -3.43654e-22)
(0.20754 0.332922 0)
(0.278499 0.278971 -4.88259e-20)
(0.351627 0.205594 4.787e-20)
(0.424443 0.114353 3.77398e-22)
(0.494639 0.00726486 7.74205e-22)
(0.561004 -0.113309 7.53663e-22)
(0.623175 -0.243396 6.90324e-22)
(0.679173 -0.373672 -3.84422e-20)
(0.724097 -0.487572 3.78939e-20)
(0.752189 -0.567791 0)
(0.761286 -0.606179 7.08263e-22)
(0.753739 -0.607891 -1.56216e-20)
(0.73403 -0.585807 1.539e-20)
(0.707633 -0.551623 0)
(0.677265 -0.516318 0)
(0.63824 -0.492929 -8.32887e-21)
(0.585562 -0.484246 1.65481e-20)
(0.527446 -0.467043 -1.68585e-20)
(0.486722 -0.401072 -9.41067e-22)
(0.483063 -0.264466 1.97322e-20)
(0.516658 -0.0775245 -2.07416e-20)
(0.573367 0.113626 1.85493e-20)
(0.636446 0.271087 -1.69989e-21)
(0.693727 0.376931 -7.46963e-21)
(0.740345 0.433104 0)
(0.775056 0.454784 0)
(0.791098 0.472849 1.84344e-21)
(0.782716 0.505021 -2.35906e-21)
(0.755672 0.532192 1.06639e-23)
(0.733732 0.496168 3.72289e-21)
(0.734 0.360681 -3.61784e-21)
(0.760148 0.146541 0)
(0.798732 -0.0795288 5.04789e-22)
(0.83327 -0.250921 3.53543e-21)
(0.858002 -0.352522 -6.05009e-21)
(0.868599 -0.384859 2.28211e-21)
(0.864185 -0.39749 1.84714e-22)
(0.829157 -0.393414 -1.46645e-21)
(0.775008 -0.38897 1.13998e-21)
(0.728384 -0.322372 2.6685e-22)
(0.715263 -0.192316 2.76218e-22)
(0.742149 -0.0314054 -3.03577e-22)
(0.784429 0.138221 0)
(0.817395 0.23881 0)
(0.811376 0.359557 -8.2493e-22)
(0.78786 0.375214 4.07651e-22)
(0.758027 0.35851 -4.54803e-22)
(0.772531 0.225531 7.15627e-22)
(0.801696 0.0382194 8.85769e-22)
(0.829473 -0.0611558 -1.81909e-22)
(0.832224 -0.275194 3.14261e-22)
(0.814079 -0.278412 -2.1486e-22)
(0.804647 -0.343741 8.08623e-23)
(0.802279 -0.248244 0)
(0.785075 0.0391482 0)
(0.0642257 0.292001 -8.07197e-20)
(0.103916 0.31363 -2.64641e-21)
(0.151728 0.32511 7.91745e-20)
(0.207054 0.323506 -6.68369e-22)
(0.268836 0.306549 0)
(0.335599 0.272562 0)
(0.405473 0.220712 -9.94632e-20)
(0.476349 0.151237 -6.24583e-21)
(0.546092 0.0652394 1.50539e-19)
(0.61322 -0.0358533 -8.38932e-23)
(0.677066 -0.15024 -4.97667e-20)
(0.736713 -0.27469 -4.31502e-20)
(0.788778 -0.398834 4.33233e-20)
(0.826258 -0.504844 0)
(0.84269 -0.575635 -2.65392e-20)
(0.837355 -0.604816 2.4356e-20)
(0.815331 -0.599136 0)
(0.783075 -0.572467 0)
(0.746293 -0.536333 9.70616e-21)
(0.708872 -0.498123 -1.34348e-21)
(0.667826 -0.467446 -7.61566e-21)
(0.615217 -0.451685 -7.16566e-21)
(0.551965 -0.438256 7.12584e-21)
(0.496872 -0.391485 -8.2073e-21)
(0.474618 -0.280709 -4.8918e-22)
(0.493273 -0.11353 8.25587e-21)
(0.542206 0.0695218 1.01429e-21)
(0.604237 0.229441 8.26178e-23)
(0.665706 0.343414 0)
(0.719898 0.409251 4.83876e-21)
(0.762776 0.44092 -4.96965e-21)
(0.785384 0.469476 2.89549e-22)
(0.783086 0.510848 0)
(0.763256 0.542612 -3.50541e-22)
(0.750129 0.505358 7.8164e-21)
(0.758726 0.364568 -1.55058e-20)
(0.790587 0.144547 -1.61606e-21)
(0.83129 -0.0855413 7.22742e-22)
(0.863355 -0.257435 7.01713e-21)
(0.882005 -0.357103 6.80772e-22)
(0.884918 -0.38559 -3.56017e-21)
(0.876515 -0.391377 3.08498e-21)
(0.839476 -0.379966 1.54931e-23)
(0.784439 -0.374082 1.01635e-21)
(0.733648 -0.3152 -1.25593e-21)
(0.717067 -0.197027 -1.75977e-21)
(0.742001 -0.0446877 5.37271e-22)
(0.782848 0.125468 8.62721e-22)
(0.816608 0.233137 -1.65405e-21)
(0.809601 0.362353 1.19972e-21)
(0.789133 0.381863 -4.79877e-22)
(0.759381 0.36136 3.32434e-22)
(0.776579 0.222576 4.77421e-22)
(0.808281 0.0322335 -1.42124e-21)
(0.838147 -0.0634458 3.22434e-23)
(0.842489 -0.272628 -3.57481e-22)
(0.820456 -0.276026 0)
(0.810966 -0.34217 -8.4166e-23)
(0.805485 -0.246721 2.866e-23)
(0.786602 0.0407466 0)
(0.190901 0.240694 7.69515e-20)
(0.232538 0.25912 -1.54599e-19)
(0.280332 0.267849 7.65252e-20)
(0.334907 0.264669 8.60198e-20)
(0.395212 0.247867 -1.7461e-19)
(0.459634 0.215874 -6.18685e-21)
(0.526456 0.167708 9.27799e-20)
(0.593952 0.103235 1.01773e-19)
(0.660616 0.0227937 -9.97007e-20)
(0.725393 -0.0713292 0)
(0.787656 -0.179284 -9.67978e-20)
(0.845466 -0.297059 1.83376e-19)
(0.893379 -0.413161 -8.68188e-20)
(0.922547 -0.509431 0)
(0.926816 -0.57025 0)
(0.907607 -0.59163 7.26801e-22)
(0.872556 -0.581428 -3.18163e-20)
(0.829928 -0.552987 3.09118e-20)
(0.785146 -0.517254 0)
(0.741741 -0.479373 1.57001e-20)
(0.698831 -0.444649 -2.7609e-20)
(0.648378 -0.421331 2.41537e-20)
(0.584923 -0.406676 -2.33513e-20)
(0.520159 -0.374381 -1.1018e-21)
(0.479934 -0.289811 2.56464e-20)
(0.481165 -0.146472 -1.32546e-20)
(0.519351 0.0248798 -4.59742e-22)
(0.577713 0.184592 -5.07921e-21)
(0.641456 0.305309 6.1286e-22)
(0.701717 0.380628 4.58071e-21)
(0.751696 0.422676 2.71627e-22)
(0.780627 0.461844 -4.58531e-21)
(0.784811 0.5123 9.76072e-21)
(0.772617 0.549302 -5.85578e-21)
(0.76821 0.512819 0)
(0.784901 0.36933 -1.03886e-20)
(0.82208 0.14542 1.02292e-20)
(0.86474 -0.0880248 -7.36575e-21)
(0.894649 -0.260308 9.21573e-21)
(0.907501 -0.358466 -7.22844e-22)
(0.902735 -0.384336 0)
(0.890138 -0.384732 -3.65865e-22)
(0.851437 -0.366651 8.14879e-22)
(0.796209 -0.359051 0)
(0.741981 -0.307739 2.16869e-21)
(0.721851 -0.201766 -8.38294e-22)
(0.744307 -0.0585328 4.46122e-22)
(0.783135 0.11205 3.53004e-22)
(0.817555 0.226643 0)
(0.809723 0.364398 0)
(0.792561 0.388227 -1.35333e-21)
(0.763121 0.36431 2.48559e-21)
(0.782735 0.219949 -1.62109e-21)
(0.816483 0.0262618 5.73732e-22)
(0.848258 -0.0657155 9.67773e-22)
(0.853895 -0.269584 3.57817e-22)
(0.827735 -0.273206 -4.44701e-22)
(0.817971 -0.340235 0)
(0.809486 -0.24497 -7.33938e-23)
(0.78902 0.0424015 7.28435e-24)
(0.320592 0.187988 7.45704e-20)
(0.361244 0.204728 -7.41697e-20)
(0.406449 0.211908 6.19481e-22)
(0.458143 0.208311 -6.21376e-22)
(0.515414 0.192827 6.79185e-22)
(0.576516 0.163823 -7.13986e-22)
(0.639942 0.120044 1.43466e-21)
(0.704176 0.0608179 0)
(0.769213 -0.0131189 -1.50405e-21)
(0.833162 -0.100861 1.51077e-21)
(0.894082 -0.202167 1.47273e-21)
(0.949429 -0.311722 -1.44812e-21)
(0.991411 -0.417505 0)
(1.01046 -0.50238 0)
(1.00205 -0.553325 8.96186e-22)
(0.97021 -0.568709 0)
(0.924418 -0.556753 -5.53629e-22)
(0.873853 -0.529173 0)
(0.823568 -0.495536 -1.79642e-20)
(0.775783 -0.459947 3.20321e-20)
(0.73084 -0.424308 -2.5299e-20)
(0.683054 -0.394763 1.12898e-20)
(0.623407 -0.375212 9.15652e-21)
(0.554814 -0.35102 -8.89269e-21)
(0.499541 -0.29013 -1.02292e-20)
(0.481645 -0.173295 9.96459e-21)
(0.505673 -0.0180466 0)
(0.557467 0.137607 2.44382e-22)
(0.621234 0.263089 0)
(0.685675 0.347289 0)
(0.741489 0.399779 7.1909e-21)
(0.776391 0.44943 -7.37623e-21)
(0.78724 0.508822 5.43199e-22)
(0.78285 0.551908 7.10066e-22)
(0.786919 0.518483 -8.79098e-22)
(0.811304 0.375087 -9.49166e-21)
(0.853552 0.148886 9.21408e-21)
(0.898374 -0.0870096 -9.94475e-21)
(0.926549 -0.259646 8.51973e-21)
(0.934055 -0.356683 1.4686e-21)
(0.921774 -0.381101 -3.6e-21)
(0.904786 -0.377641 5.9632e-22)
(0.864693 -0.35367 1.93389e-21)
(0.809821 -0.34399 0)
(0.752915 -0.299877 -7.5327e-22)
(0.729184 -0.20626 1.03108e-21)
(0.748712 -0.0727311 -1.39432e-21)
(0.785022 0.0979656 -3.55251e-22)
(0.820059 0.219178 0)
(0.811659 0.365512 4.50505e-22)
(0.798108 0.394193 -7.6815e-22)
(0.769325 0.367395 2.25164e-23)
(0.791055 0.21778 -6.63079e-22)