/*--------------------------------*- C++ -*----------------------------------*\
| =========                 |                                                 |
| \\      /  F ield         | OpenFOAM: The Open Source CFD Toolbox           |
|  \\    /   O peration     | Version:  2512                                  |
|   \\  /    A nd           | Website:  www.openfoam.com                      |
|    \\/     M anipulation  |                                                 |
\*---------------------------------------------------------------------------*/
FoamFile
{
    version     2.0;
    format      ascii;
    arch        "LSB;label=32;scalar=64";
    class       volScalarField;
    location    "104";
    object      p;
}
// * * * * * * * * * * * * * * * * * * * * * * * * * * * * * * * * * * * * * //

dimensions      [0 2 -2 0 0 0 0];

internalField   nonuniform List<scalar> 
13248
(
-0.441536
-0.438705
-0.435989
-0.433508
-0.431347
-0.429586
-0.428144
-0.42678
-0.425128
-0.42274
-0.419138
-0.41387
-0.406571
-0.397012
-0.385131
-0.371032
-0.354963
-0.337281
-0.318388
-0.298702
-0.278517
-0.258218
-0.237307
-0.216333
-0.450314
-0.446798
-0.443274
-0.439885
-0.43672
-0.433863
-0.431215
-0.428496
-0.425298
-0.421156
-0.415614
-0.408299
-0.398973
-0.387567
-0.374177
-0.359039
-0.342482
-0.324879
-0.306596
-0.287964
-0.269238
-0.250662
-0.232143
-0.214261
-0.460257
-0.455907
-0.451519
-0.447213
-0.44303
-0.439024
-0.435045
-0.43076
-0.425738
-0.419534
-0.411777
-0.402234
-0.390839
-0.377692
-0.363024
-0.347146
-0.330404
-0.313128
-0.295607
-0.278082
-0.260728
-0.243725
-0.227006
-0.210825
-0.471694
-0.466329
-0.461003
-0.455751
-0.450497
-0.445214
-0.439682
-0.433522
-0.426318
-0.417715
-0.4075
-0.395629
-0.38222
-0.367513
-0.351816
-0.335452
-0.318718
-0.301865
-0.285094
-0.26856
-0.252379
-0.236673
-0.221387
-0.206795
-0.484763
-0.478198
-0.471849
-0.465588
-0.459139
-0.452359
-0.444953
-0.436539
-0.426786
-0.415515
-0.402724
-0.388572
-0.37333
-0.357315
-0.340842
-0.324184
-0.307559
-0.291129
-0.275012
-0.259297
-0.244049
-0.229326
-0.215098
-0.201541
-0.4994
-0.49149
-0.484034
-0.476655
-0.468801
-0.460193
-0.450498
-0.439408
-0.426777
-0.412665
-0.397303
-0.38102
-0.364173
-0.347087
-0.330023
-0.313174
-0.296671
-0.280599
-0.265011
-0.249943
-0.235423
-0.22147
-0.208065
-0.195326
-0.515352
-0.506011
-0.497371
-0.488707
-0.479135
-0.468258
-0.455793
-0.441621
-0.425869
-0.408872
-0.391061
-0.37287
-0.354662
-0.336709
-0.319188
-0.302204
-0.285811
-0.270029
-0.254864
-0.240315
-0.226378
-0.213044
-0.200303
-0.188189
-0.532166
-0.521385
-0.511482
-0.501293
-0.489582
-0.475915
-0.460192
-0.442611
-0.423629
-0.403834
-0.383788
-0.363941
-0.3446
-0.325945
-0.308061
-0.290973
-0.274669
-0.259124
-0.244308
-0.23019
-0.216742
-0.203939
-0.191769
-0.18019
-0.549179
-0.537021
-0.525762
-0.513727
-0.499372
-0.482376
-0.462989
-0.441821
-0.419663
-0.397282
-0.375276
-0.354037
-0.333773
-0.314559
-0.296394
-0.279235
-0.26302
-0.247689
-0.233182
-0.219447
-0.206436
-0.194115
-0.182456
-0.171357
-0.565507
-0.552094
-0.539353
-0.525074
-0.507546
-0.486758
-0.463471
-0.43874
-0.413623
-0.388965
-0.36531
-0.34294
-0.321945
-0.302304
-0.283938
-0.266753
-0.250648
-0.235534
-0.221328
-0.207958
-0.195363
-0.183497
-0.172308
-0.161665
-0.580067
-0.565546
-0.551147
-0.534181
-0.512992
-0.488107
-0.460884
-0.432791
-0.405046
-0.378463
-0.353472
-0.330218
-0.308676
-0.288738
-0.270266
-0.253122
-0.237177
-0.222315
-0.208436
-0.19545
-0.183284
-0.171877
-0.161143
-0.150965
-0.591679
-0.576231
-0.559981
-0.53988
-0.51461
-0.485434
-0.454356
-0.423172
-0.393147
-0.364985
-0.338957
-0.315063
-0.29317
-0.273095
-0.254648
-0.237654
-0.221958
-0.207427
-0.193941
-0.1814
-0.169722
-0.15883
-0.148609
-0.138996
-0.333185
-0.335886
-0.337526
-0.338588
-0.339491
-0.340351
-0.341215
-0.342106
-0.343019
-0.343934
-0.344822
-0.345655
-0.346411
-0.347077
-0.347651
-0.348146
-0.348591
-0.349035
-0.349547
-0.350217
-0.351119
-0.352265
-0.353726
-0.355988
-0.339587
-0.342579
-0.344492
-0.345868
-0.347144
-0.348429
-0.349746
-0.351094
-0.35244
-0.353727
-0.354885
-0.355832
-0.356485
-0.356758
-0.356569
-0.355848
-0.354535
-0.352597
-0.350038
-0.346904
-0.343225
-0.338954
-0.334277
-0.330431
-0.347463
-0.35052
-0.352596
-0.354224
-0.355845
-0.357551
-0.359332
-0.361164
-0.36298
-0.364687
-0.366169
-0.367291
-0.367901
-0.367839
-0.366935
-0.365026
-0.361958
-0.357602
-0.351882
-0.344783
-0.336287
-0.326277
-0.314985
-0.304482
-0.356679
-0.359553
-0.361647
-0.36346
-0.365383
-0.367461
-0.369671
-0.371983
-0.37427
-0.376406
-0.378232
-0.379559
-0.380172
-0.379831
-0.378287
-0.375283
-0.370574
-0.363943
-0.355228
-0.344352
-0.331278
-0.315877
-0.298249
-0.280852
-0.366907
-0.369368
-0.371332
-0.373219
-0.375343
-0.377731
-0.380333
-0.383026
-0.385713
-0.388222
-0.390344
-0.391839
-0.392429
-0.391807
-0.389645
-0.38561
-0.379383
-0.370677
-0.35927
-0.345034
-0.327949
-0.307985
-0.285005
-0.260514
-0.377684
-0.379546
-0.381231
-0.383059
-0.385251
-0.3878
-0.390624
-0.393598
-0.396557
-0.399304
-0.401589
-0.403119
-0.403562
-0.402552
-0.3997
-0.394618
-0.386941
-0.376354
-0.362622
-0.345615
-0.325357
-0.301956
-0.275417
-0.245976
-0.388498
-0.389638
-0.390911
-0.392526
-0.394612
-0.397138
-0.399996
-0.403036
-0.406059
-0.40883
-0.411056
-0.412399
-0.41248
-0.410881
-0.407177
-0.400953
-0.391834
-0.379525
-0.363842
-0.344737
-0.322337
-0.296831
-0.268912
-0.237433
-0.398891
-0.399263
-0.400009
-0.401246
-0.403028
-0.405308
-0.407967
-0.410825
-0.413659
-0.416183
-0.418077
-0.418959
-0.41841
-0.415985
-0.411239
-0.403762
-0.393215
-0.379369
-0.362141
-0.34161
-0.318089
-0.291754
-0.264219
-0.232879
-0.408553
-0.408182
-0.408317
-0.409014
-0.410283
-0.412082
-0.414288
-0.416701
-0.419068
-0.421076
-0.422361
-0.422508
-0.421072
-0.417594
-0.411642
-0.402844
-0.390937
-0.375804
-0.357501
-0.336239
-0.312527
-0.286515
-0.260211
-0.230684
-0.417399
-0.416346
-0.415812
-0.415829
-0.416396
-0.417496
-0.419011
-0.420733
-0.422384
-0.423619
-0.42404
-0.423203
-0.420648
-0.415925
-0.40864
-0.398501
-0.385356
-0.369225
-0.350311
-0.328968
-0.30579
-0.281036
-0.256431
-0.229593
-0.425579
-0.423913
-0.422669
-0.421893
-0.421607
-0.421827
-0.422453
-0.423275
-0.42399
-0.424225
-0.423546
-0.421493
-0.417603
-0.411463
-0.402753
-0.39129
-0.377054
-0.360204
-0.341062
-0.320086
-0.297856
-0.274832
-0.252202
-0.228318
-0.433459
-0.431216
-0.429232
-0.427592
-0.426356
-0.42558
-0.425184
-0.42495
-0.424551
-0.423577
-0.421569
-0.418054
-0.4126
-0.404859
-0.394623
-0.381841
-0.366635
-0.349279
-0.330155
-0.309738
-0.288474
-0.266936
-0.245774
-0.224879
-0.360105
-0.366238
-0.372381
-0.377118
-0.378715
-0.375861
-0.366055
-0.349013
-0.324268
-0.29326
-0.25855
-0.224019
-0.193525
-0.169942
-0.155012
-0.149883
-0.155457
-0.171285
-0.193457
-0.213925
-0.222616
-0.214865
-0.190359
-0.157364
-0.125298
-0.100113
-0.0837502
-0.0756207
-0.0742366
-0.0794073
-0.0926913
-0.112695
-0.130851
-0.136083
-0.125765
-0.105317
-0.0850058
-0.0708527
-0.0632785
-0.0614846
-0.067343
-0.0806557
-0.0922258
-0.0918838
-0.0826648
-0.0678578
-0.0558597
-0.0471621
-0.043996
-0.0452227
-0.0458031
-0.0440991
-0.0410923
-0.0359761
-0.0321043
-0.0284111
-0.0237568
-0.0236465
-0.0204385
-0.00718867
-0.328085
-0.326842
-0.326588
-0.326206
-0.324493
-0.319895
-0.310635
-0.297093
-0.277545
-0.253786
-0.226917
-0.200372
-0.177408
-0.160628
-0.152001
-0.153139
-0.165025
-0.186506
-0.212661
-0.234935
-0.243937
-0.232699
-0.204349
-0.167333
-0.131646
-0.103368
-0.0841974
-0.0733728
-0.0693721
-0.0716198
-0.081373
-0.0979194
-0.114102
-0.120056
-0.112121
-0.0953203
-0.0787029
-0.0678546
-0.0630028
-0.0638129
-0.0724083
-0.0883973
-0.101677
-0.100396
-0.0902493
-0.0725084
-0.0578455
-0.0467945
-0.0417032
-0.0407888
-0.0401569
-0.0386818
-0.0365465
-0.0333411
-0.0309789
-0.029548
-0.0261571
-0.0266852
-0.023494
-0.00828593
-0.295797
-0.286198
-0.278548
-0.271831
-0.265542
-0.258441
-0.248964
-0.23678
-0.222517
-0.207031
-0.187729
-0.169194
-0.15398
-0.144477
-0.142808
-0.150779
-0.169033
-0.195585
-0.224876
-0.248359
-0.256922
-0.244366
-0.213613
-0.173919
-0.135697
-0.105125
-0.0837107
-0.0705453
-0.064112
-0.0635913
-0.0698827
-0.0829002
-0.0969803
-0.103376
-0.0977393
-0.0845371
-0.071599
-0.0640594
-0.0619672
-0.0654362
-0.0767222
-0.0952644
-0.11032
-0.110022
-0.097355
-0.0767463
-0.0594972
-0.0462579
-0.0394563
-0.0366429
-0.0348609
-0.0334352
-0.0319994
-0.030603
-0.0297628
-0.0307014
-0.0285823
-0.0296539
-0.0264737
-0.00936627
-0.266732
-0.248589
-0.233267
-0.219539
-0.207643
-0.196714
-0.186213
-0.173879
-0.162157
-0.15588
-0.142861
-0.132025
-0.124592
-0.122637
-0.128257
-0.143067
-0.167151
-0.197899
-0.229577
-0.25404
-0.262709
-0.249772
-0.217996
-0.177027
-0.137467
-0.105494
-0.0824826
-0.0674405
-0.0588782
-0.0558241
-0.0588681
-0.0683894
-0.080167
-0.0866203
-0.0830188
-0.0732926
-0.063888
-0.0595369
-0.060113
-0.0661526
-0.0799663
-0.10092
-0.11777
-0.118183
-0.103753
-0.0805007
-0.0608085
-0.0455705
-0.0372843
-0.0328351
-0.0299715
-0.0284344
-0.0275053
-0.0277931
-0.0284655
-0.0318672
-0.0310199
-0.0325232
-0.0293463
-0.010418
-0.243469
-0.217619
-0.195334
-0.174716
-0.157156
-0.141511
-0.128031
-0.112987
-0.106341
-0.103496
-0.0967118
-0.092674
-0.0924069
-0.0976711
-0.110241
-0.13124
-0.160141
-0.193979
-0.227256
-0.252469
-0.261601
-0.249153
-0.217711
-0.176915
-0.137263
-0.104756
-0.0807436
-0.0642921
-0.0539715
-0.0487306
-0.0488227
-0.0549542
-0.064279
-0.0703659
-0.0683386
-0.0619027
-0.0557437
-0.0543248
-0.0573653
-0.0657812
-0.0819076
-0.105104
-0.123728
-0.124467
-0.109263
-0.0837158
-0.0617936
-0.0447598
-0.0352035
-0.0293827
-0.0255218
-0.0237461
-0.0231226
-0.0249417
-0.0270958
-0.0330386
-0.0334534
-0.0352609
-0.0320784
-0.0114292
-0.226242
-0.194914
-0.166553
-0.139697
-0.119089
-0.0989562
-0.0825874
-0.0778603
-0.0632739
-0.0580421
-0.0553484
-0.0562892
-0.0617589
-0.0730306
-0.0913331
-0.117153
-0.149417
-0.185045
-0.219041
-0.244701
-0.254458
-0.243112
-0.213163
-0.173928
-0.135374
-0.103168
-0.0787115
-0.0612693
-0.0495574
-0.0425095
-0.0400912
-0.043064
-0.0498521
-0.055201
-0.054019
-0.0506911
-0.0473471
-0.0484872
-0.0537126
-0.0642465
-0.0824098
-0.107622
-0.128026
-0.129562
-0.113779
-0.0863386
-0.0624641
-0.0438463
-0.033216
-0.0262789
-0.0215251
-0.0194237
-0.0189039
-0.0220757
-0.0256602
-0.0342032
-0.0358622
-0.0378349
-0.0346376
-0.0123879
-0.215735
-0.18294
-0.150433
-0.120731
-0.0944812
-0.0712405
-0.0523969
-0.039553
-0.028342
-0.0240292
-0.0233751
-0.0272729
-0.0364479
-0.0517312
-0.0737931
-0.102537
-0.136482
-0.172585
-0.206402
-0.231964
-0.242358
-0.232575
-0.205079
-0.168569
-0.132135
-0.100974
-0.0765716
-0.0585003
-0.0457206
-0.0372122
-0.0327412
-0.0329431
-0.0372445
-0.0416787
-0.0403602
-0.0400023
-0.0389069
-0.0421677
-0.0492306
-0.061541
-0.081395
-0.108376
-0.130605
-0.134998
-0.117194
-0.0883111
-0.0628241
-0.0428441
-0.0313175
-0.023492
-0.0179702
-0.0155093
-0.0148917
-0.0192184
-0.024162
-0.0353455
-0.0382237
-0.0402144
-0.0369932
-0.0132822
-0.210531
-0.178581
-0.145299
-0.113996
-0.0853569
-0.0596435
-0.0379689
-0.0211625
-0.00918178
-0.00365946
-0.00303166
-0.00778861
-0.0184245
-0.0354082
-0.0589709
-0.0886067
-0.122588
-0.157968
-0.19079
-0.21571
-0.226488
-0.218531
-0.194215
-0.161322
-0.127799
-0.0982971
-0.0743951
-0.0560245
-0.04247
-0.032822
-0.0267226
-0.0246052
-0.0266019
-0.0302729
-0.0338517
-0.0302563
-0.0306753
-0.035558
-0.0440409
-0.0577419
-0.0788829
-0.107357
-0.131299
-0.140173
-0.1193
-0.0895854
-0.0628833
-0.0417678
-0.0295091
-0.0209948
-0.0148255
-0.0120226
-0.0111199
-0.0163907
-0.0226021
-0.0364472
-0.0405124
-0.0423694
-0.0391175
-0.0141026
-0.208623
-0.178957
-0.147707
-0.117075
-0.087884
-0.0609886
-0.0374197
-0.018154
-0.00411171
0.00387055
0.00601059
0.00224541
-0.00778938
-0.0243183
-0.0472915
-0.0759879
-0.108569
-0.142192
-0.173314
-0.1972
-0.207985
-0.202022
-0.181423
-0.152766
-0.122703
-0.0953282
-0.0723206
-0.0539603
-0.039894
-0.0293882
-0.0220276
-0.0180413
-0.0179344
-0.0203705
-0.0227674
-0.0210553
-0.0228739
-0.0288781
-0.0383134
-0.0528954
-0.0749273
-0.104647
-0.129841
-0.138321
-0.119878
-0.0901893
-0.0627238
-0.0406856
-0.0278141
-0.018791
-0.0120833
-0.00896942
-0.00760974
-0.0136103
-0.0209773
-0.0374888
-0.0426987
-0.0442729
-0.0409849
-0.0148421
-0.208317
-0.181684
-0.154123
-0.126102
-0.0982095
-0.0717216
-0.0476942
-0.0270186
-0.0110233
0.000487337
0.00527658
0.00395313
-0.0038362
-0.018173
-0.0388587
-0.0650894
-0.0950336
-0.126005
-0.154596
-0.177037
-0.187914
-0.184281
-0.167855
-0.143845
-0.117604
-0.092699
-0.0709013
-0.0527957
-0.0383888
-0.0272002
-0.0188221
-0.0133146
-0.0113041
-0.012301
-0.0137589
-0.0127105
-0.0157137
-0.0223009
-0.0322329
-0.0472993
-0.0697782
-0.100283
-0.126466
-0.135097
-0.119144
-0.0902125
-0.0624929
-0.0397295
-0.0262774
-0.0168617
-0.00976041
-0.00640937
-0.00437498
-0.0108889
-0.0192885
-0.0384406
-0.0447458
-0.0459029
-0.0425664
-0.0154909
-0.208224
-0.185132
-0.161578
-0.13631
-0.110189
-0.0848201
-0.0609503
-0.0393218
-0.0213325
-0.008828
-0.00194626
3.4907e-05
-0.00437701
-0.0153673
-0.0325865
-0.055375
-0.0820624
-0.109934
-0.135929
-0.155917
-0.166768
-0.165682
-0.153783
-0.134754
-0.112644
-0.0904847
-0.0701402
-0.0524841
-0.0378561
-0.0260943
-0.0169003
-0.0101523
-0.00642117
-0.00597992
-0.00679488
-0.00537848
-0.00950323
-0.0160941
-0.025916
-0.040775
-0.0633787
-0.094808
-0.121599
-0.130516
-0.11705
-0.0894035
-0.0619846
-0.0387799
-0.0248233
-0.0150269
-0.00771149
-0.00435678
-0.00150036
-0.00823787
-0.017501
-0.0392912
-0.0466134
-0.0472362
-0.0438289
-0.0160247
-0.208356
-0.190885
-0.17172
-0.149327
-0.126089
-0.103519
-0.0815115
-0.0600868
-0.0410196
-0.0252097
-0.0148369
-0.0101569
-0.0107222
-0.0171652
-0.02958
-0.047262
-0.0688646
-0.0922655
-0.115275
-0.133663
-0.143497
-0.14443
-0.136771
-0.122456
-0.104388
-0.0851372
-0.0666248
-0.0499445
-0.035636
-0.0237811
-0.0143028
-0.00690042
-0.00190604
-0.000199553
-0.000879343
-0.00386232
-0.00434187
-0.0105547
-0.0200539
-0.034339
-0.0564018
-0.0878328
-0.114819
-0.124297
-0.113048
-0.0868952
-0.0601421
-0.0369894
-0.0230135
-0.0129416
-0.00556072
-0.00232573
0.00118735
-0.00572802
-0.015679
-0.0399652
-0.0482695
-0.048245
-0.0447775
-0.0164096
-0.194813
-0.187626
-0.169478
-0.147627
-0.126036
-0.105176
-0.0846095
-0.0646467
-0.0471536
-0.0328085
-0.0227711
-0.0170046
-0.0160258
-0.0205536
-0.0307104
-0.045972
-0.065059
-0.085977
-0.10604
-0.121843
-0.1303
-0.130657
-0.12336
-0.110309
-0.0940037
-0.0765995
-0.0597268
-0.0443318
-0.0309
-0.0195279
-0.0102475
-0.00277355
0.002724
0.00540078
0.0054552
0.00337897
0.00230392
-0.0032408
-0.0117213
-0.0252627
-0.0476404
-0.0812102
-0.110764
-0.121784
-0.110392
-0.0837488
-0.057109
-0.0342094
-0.0207644
-0.0107569
-0.0034112
0.000162556
0.00450257
-0.00274096
-0.013416
-0.0403936
-0.0500148
-0.0490226
-0.0454953
-0.0166535
-0.182245
-0.17738
-0.160611
-0.140349
-0.120985
-0.102818
-0.0851648
-0.0681637
-0.0529206
-0.0401686
-0.0306979
-0.0249708
-0.0235541
-0.0268791
-0.0349968
-0.0474421
-0.06307
-0.0800981
-0.0960309
-0.108371
-0.114809
-0.114488
-0.108
-0.096846
-0.0829137
-0.0678528
-0.0529805
-0.0391227
-0.0267435
-0.0160222
-0.00711536
0.000256437
0.00601563
0.00922902
0.00962396
0.00783047
0.00650998
0.00187621
-0.0055007
-0.0180559
-0.0402056
-0.0748746
-0.105462
-0.116096
-0.104843
-0.0788831
-0.053341
-0.0313796
-0.0184733
-0.00862671
-0.00157138
0.00215515
0.00668108
-0.000460251
-0.0116149
-0.0407102
-0.0515521
-0.0493896
-0.045715
-0.0167512
-0.169955
-0.165816
-0.15156
-0.133826
-0.116828
-0.101103
-0.0860676
-0.0714614
-0.0581005
-0.0467329
-0.0381334
-0.032794
-0.0310786
-0.0332509
-0.0393023
-0.0487919
-0.0607403
-0.073706
-0.085848
-0.0951804
-0.0999334
-0.0994886
-0.0941852
-0.0849739
-0.0732061
-0.0601744
-0.0469968
-0.0344418
-0.022992
-0.0128525
-0.00426609
0.00294243
0.00877821
0.0123777
0.0132063
0.0118924
0.0104354
0.00622033
-0.000594302
-0.0126793
-0.0344957
-0.0685094
-0.0982485
-0.108548
-0.0979526
-0.0733381
-0.0492493
-0.0283979
-0.0160968
-0.00652505
0.000240377
0.00401449
0.00848621
0.00136706
-0.0102541
-0.0409559
-0.0528159
-0.0493669
-0.0454846
-0.0167493
-0.156126
-0.154189
-0.142797
-0.127575
-0.112705
-0.0990593
-0.0861458
-0.0736958
-0.0621532
-0.052201
-0.0444873
-0.0394207
-0.0372816
-0.0382587
-0.0423165
-0.0490901
-0.0578382
-0.067456
-0.0764959
-0.0834122
-0.0869511
-0.0864611
-0.0820324
-0.0742983
-0.0642708
-0.0529689
-0.0413177
-0.0299905
-0.0194608
-0.00993438
-0.00170156
0.00528565
0.0110871
0.0149921
0.0163705
0.01561
0.0143365
0.0106362
0.0042661
-0.0074626
-0.0284462
-0.0608411
-0.0897081
-0.0999104
-0.0899364
-0.0670102
-0.0446936
-0.025228
-0.0136513
-0.00443886
0.00203649
0.00575036
0.0101498
0.00304194
-0.00892315
-0.0408974
-0.0537206
-0.0489725
-0.0447841
-0.0166162
-0.143418
-0.14307
-0.133977
-0.121028
-0.108175
-0.096452
-0.0854712
-0.0749212
-0.0650424
-0.0563678
-0.0494215
-0.0445692
-0.0420547
-0.0420156
-0.0444122
-0.0489636
-0.0551035
-0.0619726
-0.068468
-0.0734196
-0.0758449
-0.0751469
-0.0713147
-0.064758
-0.0561955
-0.0463942
-0.0361006
-0.0258902
-0.0162261
-0.00731549
0.000547286
0.00729661
0.0129889
0.0170848
0.0189787
0.0188267
0.0180726
0.0151324
0.00944268
-0.00152941
-0.0211787
-0.0519415
-0.0800161
-0.0897254
-0.0808184
-0.0599664
-0.0397507
-0.0219161
-0.011161
-0.00238115
0.00380945
0.00735358
0.0116471
0.00467514
-0.00739753
-0.0403695
-0.05414
-0.0481403
-0.0435418
-0.0163128
-0.131621
-0.132154
-0.124989
-0.114193
-0.103279
-0.0933185
-0.0840491
-0.0751523
-0.0667347
-0.0591939
-0.0529638
-0.0483699
-0.045618
-0.0448071
-0.0458971
-0.0486565
-0.0526349
-0.0573248
-0.0617082
-0.0649906
-0.066401
-0.065443
-0.0620298
-0.0563865
-0.0490045
-0.0404557
-0.0313422
-0.0221427
-0.0132912
-0.00499696
0.00247039
0.00897247
0.0145132
0.0186894
0.0210184
0.0215214
0.0215206
0.0195682
0.0148726
0.0050213
-0.0131737
-0.0422413
-0.0692177
-0.0785926
-0.0708265
-0.0523656
-0.0344999
-0.0184979
-0.00864802
-0.000369073
0.00554859
0.00883625
0.0129481
0.00626348
-0.00566121
-0.0392252
-0.053866
-0.0467744
-0.0417058
-0.0158049
-0.12018
-0.121418
-0.115996
-0.107171
-0.0980307
-0.0896513
-0.0818823
-0.0744227
-0.067293
-0.0607825
-0.0552431
-0.0509513
-0.0480785
-0.0467
-0.0467805
-0.0481217
-0.0502552
-0.0532864
-0.0560039
-0.0579162
-0.0584563
-0.0572128
-0.0540545
-0.0490881
-0.0426452
-0.0351425
-0.0270556
-0.0187708
-0.0106761
-0.00298515
0.00406338
0.010304
0.0156858
0.0198737
0.0225364
0.023653
0.024505
0.0237307
0.0202877
0.0117055
-0.00501727
-0.0320958
-0.0576265
-0.0666798
-0.0602526
-0.0444123
-0.0290523
-0.015021
-0.00613665
0.00158245
0.00724677
0.0102233
0.0140459
0.00777872
-0.00372174
-0.0372676
-0.0526529
-0.0447939
-0.0392555
-0.0150641
-0.109129
-0.111079
-0.107151
-0.100035
-0.092466
-0.0854886
-0.0790329
-0.0728245
-0.0668291
-0.0612485
-0.0563595
-0.0523919
-0.049491
-0.0477205
-0.0470651
-0.0474169
-0.0486486
-0.0498643
-0.0511804
-0.0519755
-0.0517753
-0.0502385
-0.0472231
-0.0427629
-0.0370714
-0.0304412
-0.0232409
-0.0157781
-0.00838582
-0.00127598
0.005339
0.0112953
0.0165159
0.020682
0.0235933
0.0252076
0.0268475
0.0273099
0.0253205
0.0181132
0.00286801
-0.0220126
-0.0457135
-0.0543619
-0.0494517
-0.0363602
-0.0235452
-0.0115384
-0.00364879
0.00346363
0.00889853
0.0115485
0.0149607
0.0092289
-0.00152478
-0.0342937
-0.0502605
-0.0421354
-0.0362065
-0.0140737
-0.0988592
-0.101252
-0.0984984
-0.0928334
-0.0866416
-0.0808974
-0.0755852
-0.0704609
-0.0654558
-0.0607041
-0.0564197
-0.0527916
-0.049943
-0.0479298
-0.0467408
-0.0462854
-0.046408
-0.0467099
-0.0470068
-0.0469266
-0.0461224
-0.0443216
-0.0413885
-0.0373118
-0.0322222
-0.0263193
-0.0198837
-0.0131576
-0.00641725
0.000137882
0.00631675
0.0119647
0.017008
0.0211333
0.0242363
0.0262446
0.0284711
0.0299917
0.0294597
0.02366
0.00988713
-0.0125382
-0.0338972
-0.042067
-0.0388209
-0.028488
-0.0181334
-0.00810815
-0.00120428
0.00527027
0.0104997
0.0128565
0.0157563
0.0106761
0.00100335
-0.0301617
-0.0464948
-0.0387657
-0.0326213
-0.0128354
-0.0893222
-0.0918909
-0.0900628
-0.0856315
-0.0806343
-0.0759608
-0.0716345
-0.0674426
-0.0632967
-0.0592801
-0.0555558
-0.0522767
-0.0495459
-0.0474117
-0.0458672
-0.0448508
-0.0442246
-0.0437832
-0.043319
-0.0425764
-0.0413035
-0.0392874
-0.0364071
-0.0326282
-0.0280268
-0.0227351
-0.0169614
-0.0108944
-0.00475772
0.00126946
0.00701804
0.0123391
0.0171782
0.0212411
0.0244761
0.0267871
0.0293602
0.0315783
0.0321432
0.0276032
0.0154648
-0.00403146
-0.0225725
-0.0302931
-0.0287774
-0.02107
-0.0129746
-0.00479228
0.00117537
0.00700226
0.0120473
0.014201
0.0165438
0.0122134
0.0038983
-0.024845
-0.041276
-0.0347014
-0.0286186
-0.0113761
-0.0803139
-0.0829952
-0.0819204
-0.0785184
-0.0745335
-0.070773
-0.0672871
-0.0638913
-0.0604863
-0.0571181
-0.053908
-0.0509781
-0.0484135
-0.0462549
-0.0445018
-0.0431121
-0.0419928
-0.0410064
-0.0399938
-0.0387703
-0.0371526
-0.0349777
-0.0321442
-0.0286093
-0.0244134
-0.0196409
-0.0144434
-0.00896611
-0.00338698
0.00213833
0.00746504
0.0124505
0.0170544
0.021016
0.0243153
0.026843
0.0295563
0.0320392
0.0331318
0.0296375
0.0194099
0.00324197
-0.0122938
-0.0196224
-0.0197174
-0.0143361
-0.00820575
-0.00165316
0.0034609
0.00865706
0.0135351
0.0156315
0.0174617
0.0139391
0.00713506
-0.0184861
-0.0347164
-0.0300289
-0.0243645
-0.00975078
-0.0718892
-0.0746284
-0.0741327
-0.0715634
-0.0684198
-0.0654271
-0.0626502
-0.0599282
-0.0571577
-0.0543566
-0.0516136
-0.0490252
-0.0466612
-0.0445561
-0.0427137
-0.0411072
-0.0396742
-0.0383214
-0.0369349
-0.0353818
-0.0335297
-0.0312564
-0.0284803
-0.0251582
-0.0213089
-0.0169842
-0.0122928
-0.00734477
-0.00227988
0.00276991
0.00768356
0.0123291
0.0166697
0.0204876
0.0237768
0.0264216
0.0291182
0.0315374
0.0327011
0.0300536
0.0218213
0.00895884
-0.00370128
-0.0105703
-0.0119191
-0.00843238
-0.00392331
0.00125361
0.00561437
0.0102201
0.0149419
0.0171634
0.0186392
0.0159362
0.0106191
-0.0114305
-0.0271767
-0.0249143
-0.0200499
-0.00803813
-0.0641119
-0.0667935
-0.0667135
-0.0648114
-0.0623631
-0.0600107
-0.0578259
-0.0556692
-0.0534375
-0.0511291
-0.0488069
-0.0465461
-0.0444033
-0.0424106
-0.0405701
-0.0388661
-0.0372588
-0.035686
-0.0340681
-0.0323114
-0.0303217
-0.0280089
-0.0253098
-0.0221853
-0.018642
-0.0147108
-0.0104687
-0.00599788
-0.00140756
0.00319339
0.007704
0.0120065
0.0160615
0.0196952
0.0229041
0.0255618
0.0281279
0.0303065
0.0313192
0.0293143
0.022882
0.0129258
0.00284195
-0.00336458
-0.00547266
-0.00340766
-0.000175362
0.00388268
0.00759728
0.0116637
0.0162181
0.0187397
0.0201364
0.0182275
0.0141809
-0.00420142
-0.0192553
-0.0196085
-0.0158638
-0.00633069
-0.0568992
-0.0594568
-0.0596778
-0.0583093
-0.0564305
-0.0546058
-0.0529098
-0.0512227
-0.0494449
-0.0475611
-0.0456143
-0.0436626
-0.0417514
-0.0399059
-0.0381347
-0.0364247
-0.0347517
-0.0330747
-0.0313399
-0.0294827
-0.0274375
-0.0251393
-0.0225406
-0.0196089
-0.016345
-0.0127664
-0.00892796
-0.00489008
-0.000738301
0.00343987
0.00755893
0.0115183
0.015273
0.0186872
0.021752
0.0243314
0.0266942
0.028571
0.0293714
0.0278281
0.0228892
0.0153198
0.00745466
0.0020951
-0.000311895
0.000761815
0.00303094
0.00619956
0.0093756
0.0129602
0.0172927
0.0202046
0.0218281
0.0206685
0.0175366
0.00257849
-0.0116445
-0.0144052
-0.0119679
-0.00471975
-0.0502018
-0.0526163
-0.0530504
-0.0521001
-0.0506799
-0.0492842
-0.0479874
-0.0466866
-0.0452878
-0.043767
-0.0421519
-0.0404867
-0.0388084
-0.0371367
-0.0354778
-0.0338266
-0.0321681
-0.0304756
-0.0287134
-0.026838
-0.0248048
-0.0225681
-0.0200939
-0.0173565
-0.0143548
-0.0110985
-0.00762712
-0.00398471
-0.000238891
0.00354151
0.00728332
0.0109018
0.0143496
0.0175202
0.0203852
0.0228175
0.0249459
0.026532
0.0271434
0.0259453
0.0222111
0.0165436
0.0105162
0.00607471
0.0037069
0.00413927
0.00571432
0.00818509
0.0109145
0.0140866
0.0181131
0.0213529
0.0233024
0.0228394
0.0202385
0.00830566
-0.00489747
-0.00956462
-0.00848505
-0.00328128
-0.0440252
-0.0462705
-0.0468395
-0.0462101
-0.0451551
-0.0441051
-0.0431311
-0.0421452
-0.0410602
-0.0398471
-0.0385222
-0.0371188
-0.0356656
-0.0341788
-0.0326629
-0.0311161
-0.0295298
-0.0278871
-0.026165
-0.0243348
-0.0223673
-0.0202313
-0.0179035
-0.0153647
-0.0126143
-0.00965732
-0.00652364
-0.00324499
0.000124398
0.00353115
0.00691182
0.0101971
0.0133361
0.0162433
0.0188802
0.0211264
0.0230184
0.0243596
0.0248405
0.0239269
0.0211564
0.0169744
0.0124283
0.00887137
0.00675521
0.00680649
0.00790319
0.0098339
0.0121836
0.0150079
0.0186469
0.0220274
0.0241966
0.0242103
0.0218314
0.0125454
0.000675409
-0.00528728
-0.00549334
-0.00206799
-0.038341
-0.0403966
-0.0410417
-0.0406563
-0.0398907
-0.0391169
-0.0384015
-0.0376698
-0.0368425
-0.035888
-0.0348145
-0.0336461
-0.0324057
-0.0311059
-0.0297498
-0.0283364
-0.0268614
-0.0253146
-0.0236815
-0.0219438
-0.0200828
-0.0180781
-0.0159148
-0.0135794
-0.0110726
-0.00839738
-0.00557723
-0.00263515
0.00038451
0.00344109
0.00647823
0.00944142
0.0122771
0.0149147
0.0173085
0.0193539
0.021029
0.022182
0.0225935
0.0219318
0.0199284
0.0168925
0.0135232
0.0107621
0.00899668
0.00885203
0.00963078
0.0111497
0.0131641
0.015678
0.0188599
0.0221313
0.0242496
0.0244892
0.0221757
0.0151422
0.0049288
-0.00171229
-0.00302785
-0.00110457
-0.0331111
-0.0349742
-0.035654
-0.0354516
-0.0349127
-0.0343574
-0.033847
-0.0333186
-0.0327009
-0.0319619
-0.0311041
-0.0301444
-0.0291001
-0.027982
-0.0267921
-0.0255287
-0.0241895
-0.0227689
-0.0212582
-0.0196457
-0.0179204
-0.0160694
-0.0140841
-0.0119556
-0.00968626
-0.00727818
-0.00475102
-0.00212149
0.000573095
0.003302
0.00601522
0.0086702
0.0112132
0.0135871
0.0157379
0.0175817
0.0190701
0.0200867
0.0204784
0.0200447
0.0186472
0.0164872
0.0140493
0.0119717
0.0105802
0.0103625
0.0109345
0.0121434
0.0138504
0.016062
0.0187565
0.0216875
0.0235381
0.023816
0.0215415
0.0162495
0.00783399
0.00109334
-0.00107935
-0.000382395
-0.0283132
-0.0299862
-0.0306691
-0.0306008
-0.0302377
-0.0298538
-0.0295046
-0.0291372
-0.0286886
-0.0281276
-0.0274531
-0.0266765
-0.0258103
-0.0248633
-0.0238379
-0.0227311
-0.0215405
-0.0202636
-0.0188957
-0.0174296
-0.015859
-0.0141762
-0.0123773
-0.0104568
-0.00841861
-0.00626481
-0.00401232
-0.00167367
0.000719119
0.00314282
0.00555286
0.00791602
0.0101806
0.0123018
0.0142228
0.0158776
0.0172085
0.0181286
0.0185347
0.0183039
0.0173808
0.0158909
0.0141818
0.0126697
0.0116312
0.0114185
0.0118572
0.0128331
0.0142556
0.0161591
0.0183699
0.0208251
0.0223052
0.022522
0.0203346
0.0162405
0.00952007
0.00314731
0.000401083
0.000134221
-0.0239226
-0.0254109
-0.0260748
-0.0261027
-0.025875
-0.0256247
-0.0254012
-0.0251602
-0.0248469
-0.0244319
-0.0239115
-0.0232932
-0.0225858
-0.0217967
-0.0209293
-0.0199781
-0.0189401
-0.0178146
-0.0165996
-0.0152909
-0.0138852
-0.012378
-0.0107688
-0.00905452
-0.00724022
-0.00532812
-0.00333323
-0.0012654
0.000847808
0.00298861
0.00511719
0.00720788
0.0092128
0.0110969
0.0128051
0.0142871
0.0154869
0.0163396
0.0167771
0.0167214
0.0161692
0.0151912
0.0140414
0.0129845
0.0122562
0.0120933
0.0124458
0.0132429
0.0144054
0.0159989
0.0177563
0.0196988
0.0207838
0.0208953
0.018866
0.0155398
0.0102474
0.00453356
0.00148364
0.000490357
-0.0199127
-0.0212264
-0.0218569
-0.0219523
-0.0218281
-0.021681
-0.0215547
-0.0214123
-0.0212066
-0.0209107
-0.0205191
-0.0200365
-0.0194679
-0.018816
-0.0181005
-0.0172995
-0.0164118
-0.0154378
-0.0143777
-0.0132294
-0.0119914
-0.0106615
-0.00924044
-0.00772752
-0.00612817
-0.00444488
-0.00269109
-0.00087483
0.000980206
0.00285996
0.00472991
0.00656949
0.00833462
0.00999906
0.0115138
0.0128408
0.0139307
0.0147333
0.015206
0.0152973
0.0150309
0.0144388
0.0137162
0.0130189
0.0125479
0.0124523
0.0127482
0.0134031
0.014334
0.0156253
0.0169763
0.0184371
0.0191483
0.0191354
0.0173165
0.0144858
0.0103091
0.0053719
0.00223622
0.000725572
-0.0162604
-0.0174116
-0.0179997
-0.0181408
-0.018095
-0.0180272
-0.0179755
-0.0179096
-0.0177891
-0.0175903
-0.0173074
-0.0169441
-0.0165048
-0.0159936
-0.0153945
-0.014725
-0.0139775
-0.0131489
-0.0122394
-0.0112483
-0.0101751
-0.00901856
-0.00778038
-0.0064609
-0.00506574
-0.0035976
-0.00206843
-0.000484894
0.00113275
0.0027728
0.00440583
0.00601591
0.00756385
0.00902803
0.0103671
0.0115547
0.0125508
0.0133122
0.013815
0.0140235
0.0139717
0.0136704
0.0132686
0.0128495
0.0125803
0.0125535
0.0128111
0.0133481
0.0140774
0.0150899
0.0160835
0.0171146
0.0175192
0.0173737
0.0157808
0.0133006
0.00995536
0.00578509
0.00270632
0.000872347
-0.0129429
-0.013945
-0.0144862
-0.0146568
-0.0146698
-0.0146624
-0.0146674
-0.0146599
-0.0146057
-0.0144842
-0.0142893
-0.0140226
-0.0136866
-0.0132811
-0.0128053
-0.012263
-0.0116487
-0.0109588
-0.0101931
-0.00935216
-0.00843659
-0.00744581
-0.00638173
-0.00524529
-0.00404186
-0.0027743
-0.00145291
-8.35401e-05
0.00131643
0.00273787
0.00415559
0.00555653
0.00690885
0.00819435
0.00937659
0.010442
0.0113447
0.0120696
0.0125935
0.0128892
0.0129939
0.0129069
0.0127447
0.0125307
0.0124145
0.0124487
0.0126777
0.0131152
0.0136721
0.0144389
0.0151307
0.0158271
0.0159725
0.0156918
0.0143083
0.012114
0.00936888
0.00588558
0.00299917
0.000959172
-0.00993892
-0.0108059
-0.0112989
-0.0114871
-0.0115439
-0.0115822
-0.0116297
-0.0116664
-0.0116636
-0.0116037
-0.0114807
-0.011295
-0.0110486
-0.0107413
-0.0103723
-0.00993885
-0.00944291
-0.00887996
-0.00824794
-0.00754719
-0.00677891
-0.00594318
-0.00504183
-0.00407594
-0.00305038
-0.00196791
-0.000837398
0.000336066
0.00153814
0.00276095
0.00398379
0.00519602
0.00637095
0.00749555
0.00853828
0.00948149
0.0102972
0.0109921
0.0115262
0.011882
0.0120956
0.0121618
0.0121801
0.012105
0.0121001
0.0121836
0.0123888
0.0127415
0.013153
0.0137096
0.0141563
0.0145812
0.0145381
0.0141361
0.0129262
0.0109897
0.00867443
0.00576728
0.00312196
0.000997777
-0.00722859
-0.00797469
-0.00842013
-0.00861767
-0.00870665
-0.00877923
-0.0088585
-0.0089283
-0.00896515
-0.00895393
-0.00888929
-0.00877106
-0.00859995
-0.00837586
-0.00809694
-0.00776203
-0.00737041
-0.00692151
-0.00641162
-0.00583963
-0.00520664
-0.00451329
-0.00376143
-0.0029521
-0.00208942
-0.00117597
-0.000219183
0.000776591