/*--------------------------------*- C++ -*----------------------------------*\
| =========                 |                                                 |
| \\      /  F ield         | OpenFOAM: The Open Source CFD Toolbox           |
|  \\    /   O peration     | Version:  2512                                  |
|   \\  /    A nd           | Website:  www.openfoam.com                      |
|    \\/     M anipulation  |                                                 |
\*---------------------------------------------------------------------------*/
FoamFile
{
    version     2.0;
    format      ascii;
    arch        "LSB;label=32;scalar=64";
    class       volVectorField;
    location    "104";
    object      U;
}
// * * * * * * * * * * * * * * * * * * * * * * * * * * * * * * * * * * * * * //

dimensions      [0 1 -1 0 0 0 0];

internalField   nonuniform List<vector> 
13248
(
(-0.01215 0.0123251 9.36121e-20)
(-0.0179978 0.0246631 0)
(-0.00564017 0.0296736 -1.77331e-19)
(0.0229386 0.0289241 1.67041e-19)
(0.0663979 0.0240813 1.56996e-19)
(0.123752 0.0166794 0)
(0.194013 0.00794622 0)
(0.275936 -0.00116838 3.85254e-19)
(0.36777 -0.00994776 -1.13872e-21)
(0.467101 -0.0178805 -3.37742e-19)
(0.570834 -0.0246409 3.12479e-19)
(0.675349 -0.0300711 -1.95557e-19)
(0.776799 -0.0341583 0)
(0.871477 -0.0370035 -3.23961e-19)
(0.956188 -0.0387827 5.98318e-19)
(1.02855 -0.0397043 -1.42898e-19)
(1.08717 -0.039969 -2.37401e-19)
(1.1317 -0.0397482 2.22886e-19)
(1.16278 -0.0391268 0)
(1.18175 -0.0382845 0)
(1.19068 -0.0368177 0)
(1.19103 -0.0362318 0)
(1.18656 -0.0324761 5.50766e-20)
(1.17429 -0.0375014 1.81154e-19)
(-0.0102543 0.0093376 -2.82483e-19)
(-0.00953305 0.0164736 1.92424e-19)
(0.0123379 0.0179016 -1.40917e-21)
(0.0532576 0.0151717 -2.54616e-19)
(0.111702 0.00988252 -1.56827e-19)
(0.186262 0.00349849 -1.4839e-19)
(0.275162 -0.00284663 -2.74954e-19)
(0.375962 -0.00834063 2.59122e-19)
(0.485374 -0.0124728 0)
(0.599293 -0.0150233 1.43342e-21)
(0.713055 -0.0160377 2.27976e-21)
(0.821881 -0.0157739 1.93148e-19)
(0.921399 -0.0146264 0)
(1.00811 -0.0130379 0)
(1.07972 -0.0114156 2.13252e-19)
(1.13528 -0.0100661 -4.00515e-19)
(1.17513 -0.00915987 2.28579e-19)
(1.2007 -0.00872566 -2.14615e-19)
(1.21416 -0.008669 -9.08598e-20)
(1.21806 -0.00882634 -1.57972e-19)
(1.21495 -0.00888639 -6.05544e-20)
(1.20718 -0.00900825 -1.11385e-19)
(1.19677 -0.00726768 1.71497e-19)
(1.18357 -0.00977807 4.68926e-20)
(-0.00741249 0.00637504 0)
(0.00251785 0.00835825 0)
(0.0370518 0.00656681 9.00991e-20)
(0.0936562 0.00253331 8.342e-20)
(0.170258 -0.00220153 -1.47904e-21)
(0.264515 -0.00626957 -1.51748e-19)
(0.373218 -0.00873991 0)
(0.492064 -0.00913104 -1.29041e-19)
(0.615747 -0.00738786 1.20269e-19)
(0.738366 -0.0038344 -4.56362e-22)
(0.854079 0.000924267 -2.05191e-19)
(0.957814 0.00614275 -1.85722e-19)
(1.04585 0.011088 5.38787e-21)
(1.11615 0.0151694 -1.47293e-19)
(1.1684 0.0180217 3.58905e-19)
(1.2038 0.0195308 0)
(1.22465 0.0198075 -2.2022e-19)
(1.23384 0.0191235 1.08031e-19)
(1.23441 0.0178463 9.07842e-20)
(1.22914 0.0163218 0)
(1.22036 0.0149946 7.04195e-20)
(1.20965 0.0137267 -2.35054e-19)
(1.19836 0.0139538 2.20653e-19)
(1.18646 0.0107811 1.30978e-19)
(-0.00321377 0.00339207 -9.88585e-20)
(0.0191352 0.000545468 -1.01957e-19)
(0.069851 -0.00360047 9.28291e-20)
(0.14554 -0.00769221 0)
(0.243005 -0.0103599 0)
(0.358245 -0.0104813 -2.26307e-21)
(0.485874 -0.00756369 0)
(0.619225 -0.00174776 -3.88622e-19)
(0.750956 0.00629465 3.6051e-19)
(0.873979 0.0155328 -4.45106e-19)
(0.982423 0.0248075 1.01999e-19)
(1.07234 0.0330668 0)
(1.14203 0.0395468 1.64797e-19)
(1.1919 0.0438622 -3.03295e-19)
(1.22403 0.0460012 7.2357e-20)
(1.24153 0.0462479 1.78227e-19)
(1.24791 0.0450645 -1.14801e-20)
(1.24652 0.0429738 -1.95766e-19)
(1.24016 0.0404631 0)
(1.23097 0.0379253 0)
(1.22044 0.0356815 -6.59278e-20)
(1.20945 0.0336861 5.80968e-20)
(1.19867 0.0329292 2.0059e-19)
(1.18767 0.0293911 -1.88359e-19)
(0.00280789 0.000394514 -1.03103e-19)
(0.0412782 -0.00664951 -1.03142e-19)
(0.111769 -0.0118167 2.9044e-19)
(0.209489 -0.0142398 -1.77139e-19)
(0.329358 -0.0129777 1.6673e-19)
(0.464899 -0.00745113 3.0444e-19)
(0.607978 0.0020464 -2.14554e-19)
(0.749573 0.0144446 -2.59851e-19)
(0.881065 0.0281946 5.91616e-21)
(0.995541 0.0416335 3.33512e-19)
(1.0887 0.0533314 0)
(1.1591 0.0623319 8.99632e-20)
(1.20786 0.0682403 0)
(1.23794 0.0711693 -1.44096e-19)
(1.25321 0.0715903 2.02436e-19)
(1.2577 0.0701532 2.02685e-21)
(1.25499 0.0675267 -5.16205e-20)
(1.24788 0.0642909 9.51386e-20)
(1.23841 0.060888 8.13474e-20)
(1.22788 0.0576173 -7.20195e-20)
(1.21708 0.0546668 6.59106e-20)
(1.20643 0.052035 -5.80809e-20)
(1.19618 0.0502283 0)
(1.18617 0.0464299 -4.35743e-20)
(0.0110924 -0.00249383 1.03088e-19)
(0.0697107 -0.0126934 1.07611e-19)
(0.163295 -0.0171096 -9.71739e-20)
(0.285021 -0.0157978 1.8106e-19)
(0.427087 -0.00866163 -1.70413e-19)
(0.579877 0.0039015 1.54431e-19)
(0.732472 0.0204374 -7.38468e-20)
(0.874319 0.0387775 1.95137e-19)
(0.997045 0.0566192 -1.2207e-19)
(1.09565 0.0720429 2.14564e-19)
(1.1688 0.0838357 -4.93431e-19)
(1.21822 0.0915728 1.80192e-19)
(1.24768 0.0954952 -1.56278e-19)
(1.26182 0.0962731 1.46797e-19)
(1.26519 0.0947513 1.24689e-19)
(1.26162 0.0917488 1.07901e-19)
(1.25401 0.0879419 -2.99802e-19)
(1.24433 0.0838252 1.8535e-19)
(1.23378 0.0797252 -8.13489e-20)
(1.22308 0.0758382 2.09397e-19)
(1.21259 0.0722694 -6.76546e-20)
(1.2025 0.0690381 -1.61299e-19)
(1.19289 0.0663897 1.48353e-19)
(1.18358 0.0624259 4.35605e-20)
(0.0219867 -0.00501265 0)
(0.104848 -0.0168003 6.56951e-22)
(0.224192 -0.0183044 2.0105e-19)
(0.370479 -0.0110559 -1.88821e-19)
(0.532465 0.00364095 -1.7075e-19)
(0.697226 0.0239352 3.17314e-19)
(0.851835 0.0469815 -1.47347e-19)
(0.98583 0.0696511 1.96086e-19)
(1.09295 0.0893388 -4.60984e-21)
(1.17155 0.104438 -1.10571e-19)
(1.22379 0.114426 2.40078e-19)
(1.25422 0.119657 -3.52968e-19)
(1.26827 0.121013 0)
(1.27112 0.119557 -6.83632e-20)
(1.26697 0.116284 -1.81278e-19)
(1.25889 0.111989 5.7165e-20)
(1.2489 0.107235 2.6138e-21)
(1.23818 0.10239 -1.21784e-19)
(1.22741 0.0976703 8.95884e-21)
(1.21692 0.0931972 1.40191e-19)
(1.20684 0.0890287 -6.1329e-20)
(1.19724 0.085195 -2.2969e-20)
(1.18809 0.0817357 7.19602e-20)
(1.17929 0.077558 0)
(0.0356935 -0.00678201 0)
(0.146631 -0.0179831 5.43675e-20)
(0.293379 -0.0141255 -2.60317e-19)
(0.463069 0.00113392 9.48843e-20)
(0.640694 0.0244789 -8.93006e-20)
(0.810632 0.0522548 -8.12252e-20)
(0.959566 0.0803212 -1.43997e-19)
(1.07911 0.105088 7.17643e-20)
(1.16667 0.124299 6.27111e-20)
(1.22448 0.137189 0)
(1.25781 0.144178 1.41346e-19)
(1.27299 0.146377 -2.09151e-19)
(1.27596 0.145113 1.55805e-19)
(1.27149 0.141608 6.83988e-20)
(1.26298 0.136819 -5.54153e-20)
(1.25259 0.131412 -4.58342e-20)
(1.24157 0.125809 -4.24736e-20)
(1.23059 0.12026 1.28251e-19)
(1.21997 0.114902 0)
(1.20982 0.109808 6.32997e-20)
(1.20017 0.105016 5.24442e-20)
(1.19102 0.100544 -1.3102e-19)
(1.1823 0.0963383 -8.82051e-20)
(1.17392 0.0919333 8.17888e-20)
(0.0522308 -0.00734144 -5.7547e-20)
(0.194452 -0.0151702 -1.65724e-21)
(0.368917 -0.00338438 5.2741e-20)
(0.55909 0.0215432 1.46784e-19)
(0.74656 0.0537717 4.25542e-20)
(0.914476 0.0878173 -8.22181e-20)
(1.05122 0.118745 7.54253e-20)
(1.15222 0.143242 -6.63198e-20)
(1.21922 0.16002 1.18192e-19)
(1.25799 0.169454 5.03527e-20)
(1.27585 0.17289 -1.42408e-19)
(1.27977 0.171989 4.20158e-20)
(1.27532 0.16828 7.13397e-20)
(1.26643 0.16295 -3.51561e-20)
(1.25556 0.156815 0)
(1.24409 0.150381 5.19591e-20)
(1.23274 0.143941 8.74613e-20)
(1.22182 0.137655 1.4615e-20)
(1.21146 0.131608 -7.2601e-20)
(1.20167 0.125845 3.02705e-20)
(1.19242 0.12039 0)
(1.18366 0.115239 -2.35682e-20)
(1.17531 0.110321 -2.19249e-20)
(1.16728 0.105597 0)
(0.0713943 -0.00620064 0)
(0.247111 -0.00735129 3.00294e-20)
(0.448107 0.014818 5.55404e-20)
(0.654333 0.0504 -1.48736e-19)
(0.84516 0.090814 4.77539e-20)
(1.00459 0.129168 0)
(1.12469 0.160548 7.20422e-20)
(1.20566 0.182672 -1.00448e-19)
(1.25336 0.19562 -5.87923e-20)
(1.27614 0.200935 2.66974e-20)
(1.28225 0.200688 -4.21966e-20)
(1.27839 0.196832 1.02749e-19)
(1.26928 0.190888 5.14074e-20)
(1.25789 0.183893 -3.58256e-20)
(1.24585 0.176484 -3.45558e-21)
(1.23398 0.169021 -9.74948e-20)
(1.22264 0.161693 4.43501e-20)
(1.21194 0.1546 -1.02048e-21)
(1.2019 0.147794 0)
(1.19249 0.141302 -3.03016e-20)
(1.18364 0.135134 0)
(1.17527 0.129268 6.80835e-20)
(1.16729 0.123674 -8.09642e-20)
(1.1596 0.118536 3.68235e-20)
(0.0927339 -0.0028904 -1.53625e-20)
(0.302854 0.00629081 -7.51229e-20)
(0.527711 0.0409422 8.51492e-20)
(0.744562 0.0873351 5.02242e-20)
(0.932472 0.134406 -2.40894e-20)
(1.0785 0.1747 4.03175e-20)
(1.17975 0.204252 -1.96494e-20)
(1.24129 0.222379 3.2734e-20)
(1.27228 0.230656 0)
(1.28249 0.23162 7.41155e-20)
(1.28017 0.227794 -3.01355e-21)
(1.27122 0.221187 -5.98664e-20)
(1.25937 0.213177 2.56652e-20)
(1.24669 0.204601 -2.89582e-20)
(1.23418 0.195922 -1.10279e-20)
(1.22228 0.187381 1.27125e-20)
(1.21112 0.179094 -9.84438e-21)
(1.20074 0.171122 -5.31498e-20)
(1.19108 0.163492 3.25932e-20)
(1.18207 0.156221 6.6878e-21)
(1.17363 0.149301 5.88113e-21)
(1.16566 0.142701 5.17207e-21)
(1.15806 0.13646 0)
(1.15069 0.130785 0)
(0.115628 0.00300077 1.53731e-20)
(0.359616 0.0262926 -1.54364e-20)
(0.604406 0.0749371 -2.83094e-20)
(0.826084 0.131437 0)
(1.0057 0.183054 -1.19078e-20)
(1.1352 0.222881 -1.06342e-20)
(1.21729 0.248708 -1.82989e-20)
(1.26129 0.261748 0)
(1.27861 0.264961 0)
(1.27945 0.261604 0)
(1.27139 0.254389 0)
(1.25933 0.245211 0)
(1.24601 0.235232 -1.6122e-20)
(1.23279 0.225088 7.34521e-21)
(1.22025 0.215096 1.27808e-20)
(1.20856 0.205404 5.96368e-21)
(1.19775 0.19608 1.47985e-20)
(1.18777 0.187154 0)
(1.17856 0.178641 -3.55572e-21)
(1.17003 0.170542 -3.36007e-21)
(1.16206 0.162837 -5.89043e-21)
(1.15455 0.155498 -5.18028e-21)
(1.14739 0.148636 0)
(1.14044 0.14232 3.7281e-21)
(-0.00176472 -0.000159201 8.8273e-21)
(-0.00817197 -0.0108594 -9.17591e-21)
(-0.0197178 -0.0274296 -1.73904e-20)
(-0.0338714 -0.0464359 0)
(-0.0493012 -0.065728 -2.32249e-20)
(-0.0653393 -0.0842996 7.23914e-21)
(-0.0814748 -0.101977 -1.3847e-20)
(-0.0972991 -0.119074 0)
(-0.112502 -0.136086 0)
(-0.126852 -0.153472 0)
(-0.140173 -0.171534 0)
(-0.152323 -0.190378 0)
(-0.163183 -0.209931 -1.30259e-22)
(-0.172632 -0.229961 -9.0097e-21)
(-0.180546 -0.250108 1.71867e-20)
(-0.186789 -0.269892 2.41194e-20)
(-0.191216 -0.28872 7.63497e-21)
(-0.193678 -0.305891 0)
(-0.194038 -0.320608 6.63732e-21)
(-0.1922 -0.332009 -1.86456e-20)
(-0.188064 -0.339217 -1.16072e-20)
(-0.181447 -0.341348 -1.0846e-20)
(-0.172324 -0.337487 0)
(-0.1618 -0.327009 0)
(-0.00246591 0.00539367 -2.6708e-20)
(-0.00955487 0.00190471 4.60034e-20)
(-0.021699 -0.0100705 -1.76297e-20)
(-0.0363771 -0.0261961 -3.32658e-20)
(-0.052272 -0.0437873 4.68472e-20)
(-0.0687301 -0.0615064 -2.97087e-20)
(-0.0852421 -0.0789561 4.17888e-20)
(-0.101402 -0.0962926 2.68278e-20)
(-0.116913 -0.113902 0)
(-0.131569 -0.132165 -2.32685e-20)
(-0.145228 -0.151337 -1.32068e-22)
(-0.157787 -0.171504 2.05372e-20)
(-0.169169 -0.192593 2.97283e-20)
(-0.179299 -0.214388 3.70328e-20)
(-0.188104 -0.23655 -1.72128e-20)
(-0.195505 -0.258624 -4.87419e-20)
(-0.201417 -0.280038 1.52908e-20)
(-0.205757 -0.300099 -5.72215e-20)
(-0.208463 -0.318 0)
(-0.209526 -0.332846 1.24019e-20)
(-0.2089 -0.343689 1.15952e-20)
(-0.206308 -0.349537 1.08348e-20)
(-0.20174 -0.34934 0)
(-0.197528 -0.342402 0)
(-0.0037542 0.0111052 0)
(-0.0119255 0.0151858 9.50417e-20)
(-0.0243046 0.00811686 -3.57952e-20)
(-0.0387166 -0.00490521 3.36917e-20)
(-0.0540181 -0.0206566 -9.67256e-20)
(-0.0696438 -0.0374331 0)
(-0.0851229 -0.0545644 -5.76508e-20)
(-0.100068 -0.0720079 2.74229e-20)
(-0.114197 -0.0900147 -5.21834e-20)
(-0.127318 -0.10888 2.54115e-20)
(-0.13931 -0.128812 1.38298e-19)
(-0.150096 -0.149883 -6.49597e-20)
(-0.159629 -0.172027 -1.01248e-19)
(-0.167874 -0.195051 -3.86813e-20)
(-0.174807 -0.218647 2.71881e-22)
(-0.18041 -0.242393 1.33498e-19)
(-0.184666 -0.26575 -6.24642e-20)
(-0.187566 -0.28805 -4.57617e-22)
(-0.189125 -0.3085 0)
(-0.18942 -0.326178 -4.89909e-20)
(-0.188472 -0.340054 0)
(-0.185908 -0.349007 -4.01408e-20)
(-0.18152 -0.351924 1.48291e-19)
(-0.178929 -0.348205 -2.00504e-21)
(-0.00553748 0.0163852 0)
(-0.0151043 0.0277731 1.0175e-21)
(-0.0272912 0.0256531 3.7297e-20)
(-0.0405901 0.0158678 -3.54712e-20)
(-0.0541916 0.00209382 3.21982e-20)
(-0.0676792 -0.0136083 1.88254e-19)
(-0.0806495 -0.0302814 -5.8943e-20)
(-0.0927494 -0.0476701 -5.67914e-20)
(-0.103711 -0.0658617 1.05902e-19)
(-0.113343 -0.0850517 -1.49631e-19)
(-0.121522 -0.105399 4.77965e-20)
(-0.128178 -0.126956 4.53005e-20)
(-0.133278 -0.149657 0)
(-0.136817 -0.173321 3.87478e-20)
(-0.138817 -0.197661 0)
(-0.139324 -0.222282 6.95584e-20)
(-0.138411 -0.246681 -1.26124e-19)
(-0.136169 -0.270237 3.15413e-20)
(-0.132719 -0.292209 1.08852e-19)
(-0.128238 -0.311714 4.89444e-20)
(-0.122891 -0.327685 0)
(-0.116353 -0.338868 -1.17088e-19)
(-0.107815 -0.343976 3.79263e-20)
(-0.100902 -0.342412 0)
(-0.00762302 0.0206949 0)
(-0.0187551 0.0385292 -1.19266e-19)
(-0.0303222 0.0411207 -3.84939e-20)
(-0.0417027 0.0345989 -7.17369e-20)
(-0.0525332 0.0229275 6.75521e-20)
(-0.0626044 0.00845782 -6.33023e-20)
(-0.0716236 -0.00758915 1.22018e-19)
(-0.0792651 -0.0247323 5.75707e-20)
(-0.0852571 -0.0428952 -1.62405e-19)
(-0.0894133 -0.0621527 1.03474e-19)
(-0.0915913 -0.0826066 -1.45488e-19)
(-0.0917038 -0.104274 3.23945e-19)
(-0.0897176 -0.127073 -1.72958e-19)
(-0.0856472 -0.150816 8.22765e-20)
(-0.0795571 -0.175211 2.27627e-19)
(-0.0715682 -0.19986 -7.13701e-20)
(-0.0618603 -0.224271 -6.82783e-20)
(-0.0506689 -0.247857 -6.0672e-20)
(-0.0382797 -0.269947 0)
(-0.025018 -0.289778 -9.55609e-20)
(-0.0113031 -0.306386 -7.98434e-20)
(0.00275401 -0.318577 1.21e-19)
(0.0184004 -0.324706 1.29496e-19)
(0.0357326 -0.323285 -1.20941e-19)
(-0.00975391 0.0236414 0)
(-0.0224364 0.0465521 -1.6508e-19)
(-0.0329943 0.0533214 -1.54537e-21)
(-0.0417657 0.0499385 1.46454e-19)
(-0.0488857 0.0404306 0)
(-0.0543805 0.0273284 0)
(-0.0580826 0.0120724 0)
(-0.0597325 -0.00464624 -5.88853e-20)
(-0.059045 -0.0225831 -8.07216e-22)
(-0.0558068 -0.0417136 1.05725e-19)
(-0.0498756 -0.0620421 -1.48912e-19)
(-0.0411319 -0.0835318 -1.32555e-22)
(-0.0295398 -0.106068 0)
(-0.015138 -0.129431 -8.2228e-20)
(0.00195458 -0.153297 7.77243e-20)
(0.0215271 -0.17723 -2.17661e-19)
(0.0432702 -0.200701 2.63304e-19)
(0.0667751 -0.223103 5.49577e-20)
(0.0915272 -0.243784 -9.26569e-21)
(0.117028 -0.26203 -2.0096e-19)
(0.142634 -0.277124 -8.62042e-20)
(0.167687 -0.288214 2.57288e-19)
(0.192365 -0.293699 -1.66482e-19)
(0.223746 -0.28997 0)
(-0.0116637 0.0250385 8.2479e-20)
(-0.0256758 0.0512925 8.29941e-20)
(-0.0348842 0.0614048 -8.04383e-20)
(-0.040499 0.0608229 -1.50821e-19)
(-0.0431329 0.0534055 1.42015e-19)
(-0.0430502 0.0417311 -1.35361e-19)
(-0.0402204 0.0273822 1.91902e-19)
(-0.0344509 0.0112177 -5.91309e-20)
(-0.0255079 -0.00636719 1.14313e-19)
(-0.0131411 -0.0252202 0)
(0.00283512 -0.0452375 1.04124e-19)
(0.0225101 -0.0663272 -1.94991e-19)
(0.0458945 -0.0883203 1.81419e-19)
(0.0728842 -0.11095 -1.70393e-19)
(0.10325 -0.133839 0)
(0.136628 -0.156502 1.46003e-19)
(0.172511 -0.17836 2.6492e-19)
(0.210261 -0.198764 -2.48194e-19)
(0.249142 -0.217026 -1.09597e-19)
(0.288372 -0.232437 -9.19316e-20)
(0.327059 -0.244427 2.63707e-19)
(0.364933 -0.252275 6.66438e-20)
(0.398754 -0.255768 -6.89253e-20)
(0.446963 -0.248122 5.17793e-20)
(-0.0131346 0.0249253 -8.249e-20)
(-0.0280483 0.0526125 2.59642e-19)
(-0.035587 0.0649612 -8.21454e-20)
(-0.0376114 0.0665876 1.54125e-19)
(-0.0351262 0.0609912 -1.45122e-19)
(-0.0286106 0.0506687 7.09714e-22)
(-0.018175 0.0372548 6.53884e-20)
(-0.00370928 0.0217222 2.49835e-19)
(0.0149889 0.00460091 1.51621e-21)
(0.0381339 -0.013811 -1.09209e-19)
(0.0658895 -0.0333329 0)
(0.0982973 -0.053783 -9.88928e-20)
(0.135262 -0.0749196 1.84461e-19)
(0.176516 -0.0964122 1.71163e-19)
(0.221598 -0.117827 -8.07965e-20)
(0.269854 -0.138635 1.72426e-22)
(0.32044 -0.158232 -6.72187e-20)
(0.37237 -0.175965 1.21398e-19)
(0.42456 -0.191178 1.09547e-19)
(0.47598 -0.203216 -9.72069e-20)
(0.525208 -0.211709 8.38261e-20)
(0.57336 -0.215436 -7.21424e-20)
(0.611426 -0.216944 0)
(0.671986 -0.205492 -5.16831e-20)
(-0.0140408 0.0235351 8.56265e-20)
(-0.0292332 0.050774 -8.71669e-20)
(-0.034722 0.0640557 8.38561e-20)
(-0.0327352 0.0670497 0)
(-0.0245358 0.0627878 0)
(-0.010769 0.0535839 1.42445e-19)
(0.00832544 0.0410442 -1.32063e-19)
(0.0327646 0.0262033 1.26843e-19)
(0.0626838 0.0096987 -5.9254e-19)
(0.0982211 -0.00806306 -2.33723e-22)
(0.139425 -0.0267887 1.05641e-19)
(0.186175 -0.0461964 0)
(0.238124 -0.0659602 -1.84758e-19)
(0.294665 -0.0856815 3.45087e-19)
(0.354916 -0.104882 -2.41032e-19)
(0.41774 -0.123019 -3.63194e-19)
(0.481793 -0.139509 9.23523e-21)
(0.545613 -0.153764 2.44944e-19)
(0.607698 -0.165254 0)
(0.666812 -0.173419 0)
(0.720998 -0.178343 -8.38085e-20)
(0.772624 -0.178168 7.21282e-20)
(0.809482 -0.177813 -2.30163e-19)
(0.869487 -0.163707 2.15955e-19)
(-0.0143543 0.0212286 0)
(-0.0290194 0.0463464 0)
(-0.031902 0.059184 -2.53229e-19)
(-0.0253229 0.0625373 8.02285e-20)
(-0.0106638 0.0589536 -2.98836e-22)
(0.0113279 0.0505113 1.43378e-19)
(0.0403064 0.0387325 0)
(0.0761788 0.0246689 -1.2691e-19)
(0.118952 0.00903325 1.18952e-19)
(0.168585 -0.00766938 -2.25664e-19)
(0.224858 -0.0250361 1.63769e-22)
(0.287276 -0.0426885 1.97956e-19)
(0.354999 -0.0602274 -1.59298e-21)
(0.426818 -0.0772143 1.68167e-19)
(0.501188 -0.0931757 -2.41635e-19)
(0.576302 -0.107623 0)
(0.650218 -0.120085 2.58541e-19)
(0.721002 -0.130136 -3.62449e-19)
(0.786874 -0.137454 1.04312e-19)
(0.846494 -0.141695 0)
(0.898192 -0.143223 8.02367e-20)
(0.944007 -0.140301 2.68477e-19)
(0.974365 -0.138316 -2.51984e-19)
(1.02017 -0.123506 -2.43572e-19)
(-0.0141227 0.0183959 2.66671e-19)
(-0.0272527 0.0400585 -3.66664e-19)
(-0.026647 0.0511715 4.1392e-22)
(-0.0145265 0.0538664 8.17105e-20)
(0.00772353 0.0502749 -1.53238e-19)
(0.0393086 0.0422424 -1.42744e-19)
(0.0797838 0.0311847 2.70611e-19)
(0.128893 0.0181395 -1.71156e-22)
(0.186386 0.00386703 -2.39675e-19)
(0.251834 -0.0110508 4.50808e-19)
(0.324474 -0.0261341 -3.65939e-22)
(0.403108 -0.0409512 -1.98318e-19)
(0.486069 -0.0550918 0)
(0.57127 -0.0681621 0)
(0.656326 -0.0797945 -7.88467e-20)
(0.738735 -0.0896672 -1.41071e-19)
(0.816091 -0.0975211 -2.52711e-19)
(0.886282 -0.103186 2.37229e-19)
(0.947693 -0.106561 -1.0436e-19)
(0.999269 -0.107657 1.7525e-19)
(1.04054 -0.10668 -9.23164e-20)
(1.07258 -0.102952 1.20308e-19)
(1.09189 -0.100116 -3.05606e-19)
(1.11607 -0.0872562 5.04565e-20)
(-0.0133955 0.015361 9.01685e-20)
(-0.0237173 0.032638 0)
(-0.0182547 0.0410199 1.74747e-19)
(0.000933278 0.0422405 -1.64611e-19)
(0.032514 0.0381339 1.53374e-19)
(0.0756553 0.0303556 0)
(0.129751 0.0202158 0)
(0.194223 0.00871832 -1.2811e-19)
(0.268299 -0.00336451 3.85076e-22)
(0.3508 -0.0154309 1.12877e-19)
(0.440008 -0.0270038 -1.04281e-19)
(0.533631 -0.0377029 1.97189e-19)
(0.628892 -0.0472321 0)
(0.72272 -0.0553763 3.31276e-19)
(0.812013 -0.0620003 -6.1319e-19)
(0.893926 -0.0670457 4.24841e-19)
(0.966124 -0.070519 2.45593e-19)
(1.02698 -0.0724961 -2.30561e-19)
(1.07568 -0.0730418 0)
(1.11217 -0.0724219 0)
(1.13739 -0.0704566 0)
(1.15227 -0.067897 0)
(1.15876 -0.0646453 5.84218e-20)
(1.16302 -0.056862 -1.91695e-19)
(-0.149721 -0.307848 -7.09649e-21)
(-0.127097 -0.273062 7.12028e-21)
(-0.099584 -0.223043 -2.08255e-22)
(-0.0668178 -0.158276 0)
(-0.0287386 -0.0794912 -6.80433e-21)
(0.0128789 0.0112519 1.31217e-20)
(0.0575739 0.110591 -2.27918e-22)
(0.104865 0.215174 -5.92752e-21)
(0.152571 0.317017 0)
(0.199428 0.409155 0)
(0.243226 0.485098 -2.30907e-22)
(0.280828 0.541062 -1.96203e-22)
(0.30825 0.577666 -2.78263e-21)
(0.321888 0.599938 2.54252e-21)
(0.321525 0.612925 0)
(0.314277 0.61401 0)
(0.314576 0.589118 2.09463e-21)
(0.336938 0.519619 2.36315e-22)
(0.385923 0.396316 -2.05391e-21)
(0.454011 0.226352 -1.65162e-22)
(0.530132 0.0292404 0)
(0.605165 -0.167184 0)
(0.671054 -0.331043 0)
(0.721501 -0.441087 0)
(0.753547 -0.497042 0)
(0.767876 -0.512863 0)
(0.770187 -0.504071 2.82996e-22)
(0.763501 -0.488233 -4.60478e-22)
(0.741516 -0.485653 0)
(0.699641 -0.497828 0)
(0.651282 -0.487502 -4.40662e-22)
(0.622532 -0.404764 4.2829e-22)
(0.629724 -0.234697 2.48571e-22)
(0.665678 -0.0223386 0)
(0.715287 0.174898 0)
(0.761347 0.312098 3.55274e-22)
(0.799794 0.385463 -3.45338e-22)
(0.825058 0.412743 0)
(0.828065 0.432814 2.13637e-22)
(0.799666 0.458372 -3.11972e-22)
(0.754286 0.453222 1.13077e-22)
(0.717582 0.37966 0)
(0.715416 0.210173 -2.81667e-22)
(0.735353 0.0190798 2.73885e-22)
(0.778813 -0.165044 0)
(0.815346 -0.267701 0)
(0.837391 -0.336031 -7.05642e-23)
(0.817257 -0.375809 1.9367e-22)
(0.776387 -0.376682 0)
(0.740531 -0.341132 0)
(0.746149 -0.170773 -5.50881e-23)
(0.771855 -0.0455607 5.72528e-24)
(0.812355 0.145353 -4.69301e-24)
(0.810156 0.244583 3.4703e-23)
(0.795936 0.323161 0)
(0.776822 0.379814 0)
(0.788706 0.209162 0)
(0.787823 0.177031 0)
(0.804242 -0.101129 0)
(0.785788 -0.225042 0)
(-0.196915 -0.32754 -6.11354e-22)
(-0.186172 -0.299368 -2.57045e-20)
(-0.169794 -0.255664 2.33185e-22)
(-0.14744 -0.196932 2.39409e-20)
(-0.118416 -0.123427 3.33418e-22)
(-0.0831098 -0.0373828 0)
(-0.0410909 0.0590654 -2.04927e-20)
(0.00465359 0.161282 3.93281e-20)
(0.0516469 0.264597 -1.88344e-20)
(0.100118 0.360176 1.51147e-20)
(0.147461 0.44212 -1.44597e-20)
(0.190312 0.507519 1.10769e-20)
(0.22492 0.556202 -1.07404e-20)
(0.249241 0.590336 -2.67255e-22)
(0.265764 0.610235 -8.31366e-21)
(0.283309 0.609239 8.07943e-21)
(0.314335 0.573454 -9.03725e-21)
(0.367227 0.489789 8.48311e-21)
(0.439722 0.355747 -1.10209e-20)
(0.521917 0.180972 2.20257e-20)
(0.604427 -0.0165813 -1.0981e-20)
(0.679895 -0.209677 -6.64577e-22)
(0.740448 -0.366284 -8.06098e-21)
(0.780761 -0.465781 1.41354e-20)
(0.800787 -0.510159 -6.12438e-21)
(0.803247 -0.516565 2.58934e-22)
(0.794521 -0.501598 3.14711e-21)
(0.779671 -0.479599 -1.92746e-22)
(0.753655 -0.468507 -5.17487e-21)
(0.708888 -0.474146 5.20717e-21)
(0.65387 -0.466713 -2.63274e-21)
(0.614118 -0.397412 3.78289e-22)
(0.610267 -0.243771 -2.49071e-22)
(0.639603 -0.0426835 4.41564e-22)
(0.687461 0.151295 0)
(0.737132 0.291201 0)
(0.782414 0.370358 -1.06517e-21)
(0.814738 0.406074 8.02661e-22)
(0.822259 0.436677 6.55533e-22)
(0.797531 0.470836 1.66399e-22)
(0.75795 0.467232 -9.95577e-22)
(0.728058 0.387532 2.89429e-22)
(0.732167 0.209039 0)
(0.753096 0.0104097 0)
(0.794826 -0.176708 0)
(0.826628 -0.276469 0)
(0.846847 -0.336255 3.21437e-22)
(0.825225 -0.367648 -1.25156e-22)
(0.782779 -0.366389 0)
(0.745515 -0.336942 0)
(0.747275 -0.174992 0)
(0.772428 -0.053837 -8.07995e-23)
(0.808635 0.140728 1.55928e-23)
(0.806486 0.245992 -7.82741e-23)
(0.791494 0.326603 0)
(0.772553 0.380862 0)
(0.788197 0.207355 5.49967e-23)
(0.78875 0.175484 1.74811e-22)
(0.810115 -0.100501 0)
(0.79048 -0.223824 0)
(-0.186496 -0.337424 -1.19355e-21)
(-0.190323 -0.316749 -4.61205e-20)
(-0.187314 -0.280384 4.30324e-20)
(-0.178918 -0.229384 -4.03244e-20)
(-0.163139 -0.163223 -3.35748e-22)
(-0.139643 -0.0834753 0)
(-0.107289 0.00781873 -3.37702e-20)
(-0.0667935 0.105373 3.29659e-20)
(-0.0230434 0.207709 2.54173e-22)
(0.0222054 0.306375 3.58443e-22)
(0.0698299 0.393394 3.17372e-22)
(0.116753 0.467065 3.44988e-22)
(0.159589 0.525475 -1.73429e-20)
(0.197771 0.567663 1.71232e-20)
(0.234965 0.590368 0)
(0.279088 0.585198 4.89365e-22)
(0.338663 0.540407 -1.88628e-20)
(0.416243 0.448283 1.86277e-20)
(0.505566 0.310805 0)
(0.596787 0.137532 0)
(0.682715 -0.0559718 -2.38898e-20)
(0.756862 -0.242845 4.43948e-20)
(0.810913 -0.390941 -3.68734e-20)
(0.840356 -0.480568 3.76247e-21)
(0.848077 -0.515401 2.23255e-20)
(0.839246 -0.514539 -1.74588e-20)
(0.820386 -0.495442 1.29375e-20)
(0.797751 -0.469384 -1.06854e-21)
(0.768266 -0.450927 -4.94016e-21)
(0.722207 -0.449613 0)
(0.662473 -0.444067 0)
(0.612591 -0.388319 2.3242e-21)
(0.597032 -0.252487 -2.93711e-21)
(0.618466 -0.0643269 -6.64503e-23)
(0.663521 0.125009 2.81727e-21)
(0.716109 0.266861 -2.73793e-21)
(0.767475 0.352016 0)
(0.806208 0.396972 2.33673e-22)
(0.818224 0.438631 1.96938e-21)
(0.797771 0.481567 -4.04661e-21)
(0.764562 0.479823 1.84789e-21)
(0.74153 0.395039 3.30061e-22)
(0.751799 0.208961 -3.41075e-21)
(0.773759 0.00397062 2.63385e-21)
(0.813362 -0.185897 5.84277e-22)
(0.83999 -0.283662 4.44145e-22)
(0.857972 -0.335704 -3.2224e-22)
(0.834947 -0.359195 0)
(0.791125 -0.355905 0)
(0.752595 -0.332881 -7.12153e-22)
(0.750435 -0.179391 3.51381e-22)
(0.774782 -0.0621716 -2.95574e-22)
(0.806588 0.135995 4.35814e-22)
(0.804441 0.24734 5.37005e-22)
(0.788333 0.329877 -1.42417e-22)
(0.769248 0.381784 2.56288e-22)
(0.788775 0.205151 -2.44733e-22)
(0.790923 0.173425 1.41631e-22)
(0.817217 -0.0999975 0)
(0.796152 -0.222521 0)
(-0.112933 -0.33435 -8.48162e-20)
(-0.131645 -0.320966 5.95082e-21)
(-0.142311 -0.292563 7.44853e-20)
(-0.149118 -0.250282 -5.81224e-22)
(-0.14916 -0.19292 0)
(-0.141003 -0.122051 0)
(-0.123647 -0.0383062 -5.05101e-20)
(-0.0953914 0.0532562 2.82362e-21)
(-0.0586554 0.151945 6.54435e-20)
(-0.0195088 0.249065 -1.58969e-21)
(0.0244959 0.338815 -1.88984e-20)
(0.0739455 0.418073 -1.50815e-20)
(0.124767 0.482805 1.50672e-20)
(0.177101 0.529516 0)
(0.234205 0.55273 -1.50224e-20)
(0.301605 0.543841 1.364e-20)
(0.383622 0.493915 0)
(0.478466 0.39964 0)
(0.578036 0.265226 2.38534e-20)
(0.673892 0.0982121 1.60004e-21)
(0.761236 -0.0883216 -2.33055e-20)
(0.833426 -0.267617 -2.18835e-20)
(0.880786 -0.406807 2.17763e-20)
(0.899369 -0.487264 -1.39215e-20)
(0.894881 -0.514221 3.32611e-21)
(0.875371 -0.507751 9.81086e-21)
(0.847442 -0.485989 8.06105e-22)
(0.817425 -0.457948 1.48816e-23)
(0.784565 -0.433822 0)
(0.738597 -0.425025 4.11699e-21)
(0.676696 -0.419267 -4.23475e-21)
(0.618291 -0.376155 3.2041e-22)
(0.590617 -0.259475 0)
(0.602817 -0.0864554 -3.79921e-22)
(0.643856 0.0965686 4.86567e-21)
(0.698427 0.239468 -8.36682e-21)
(0.754912 0.330657 -3.28027e-23)
(0.799324 0.385343 1.09798e-22)
(0.815835 0.438234 2.90965e-21)
(0.800129 0.490063 4.4312e-22)
(0.773623 0.490736 -4.7272e-21)
(0.757346 0.4023 3.9698e-21)
(0.77356 0.210268 -4.1437e-23)
(0.796798 -0.000149543 2.66837e-21)
(0.834147 -0.192548 -3.18015e-21)
(0.855294 -0.289344 -2.98419e-21)
(0.87059 -0.334581 8.85519e-22)
(0.84617 -0.350597 8.89506e-22)
(0.801102 -0.345197 -1.59614e-21)
(0.761403 -0.328747 1.063e-21)
(0.755306 -0.183824 -3.02292e-22)
(0.778723 -0.0705415 3.19955e-22)
(0.806145 0.131109 2.4405e-22)
(0.804002 0.248631 -7.57905e-22)
(0.786511 0.333041 -8.71157e-24)
(0.767031 0.382624 -2.77991e-22)
(0.790502 0.202559 0)
(0.79437 0.170841 -1.26499e-22)
(0.825535 -0.0995995 3.62199e-22)
(0.802788 -0.221111 0)
(0.0215135 -0.317843 7.6958e-20)
(-0.0104971 -0.310235 -1.42314e-19)
(-0.0341755 -0.289925 6.49118e-20)
(-0.0550601 -0.256531 5.10764e-20)
(-0.0711976 -0.208076 -9.46781e-20)
(-0.0798899 -0.147749 4.51131e-21)
(-0.0796165 -0.0732857 3.84665e-20)
(-0.066206 0.011559 3.01424e-20)
(-0.0420798 0.101409 -2.95767e-20)
(-0.0134896 0.19114 0)
(0.0251078 0.280211 -2.38891e-20)
(0.073589 0.361191 4.57473e-20)
(0.129241 0.428667 -2.2036e-20)
(0.192073 0.477309 0)
(0.263996 0.500392 0)
(0.347787 0.489808 4.67745e-22)
(0.444195 0.439156 -3.74972e-20)
(0.54855 0.348218 3.64205e-20)
(0.652361 0.221612 0)
(0.749776 0.0640621 5.14392e-20)
(0.83776 -0.11351 -9.66999e-20)
(0.907774 -0.28388 8.96444e-20)
(0.948229 -0.413464 -7.79803e-20)
(0.956127 -0.485311 6.95577e-21)
(0.939947 -0.506327 4.75084e-20)
(0.91063 -0.496375 -2.03093e-20)
(0.875028 -0.473421 -4.04092e-22)
(0.838524 -0.445226 -4.23988e-21)
(0.802319 -0.417685 5.84498e-22)
(0.757262 -0.401824 3.73161e-21)
(0.695671 -0.393722 2.3723e-22)
(0.631146 -0.361031 -4.07979e-21)
(0.591568 -0.263922 8.44077e-21)
(0.593211 -0.108042 -4.85662e-21)
(0.628882 0.0665726 0)
(0.684173 0.20938 -4.10681e-21)
(0.744575 0.306354 3.93165e-21)
(0.793843 0.370906 -2.84366e-21)
(0.814845 0.435002 3.53208e-21)
(0.804247 0.495889 -4.4143e-22)
(0.784587 0.499888 0)
(0.774858 0.409382 -6.81577e-22)
(0.796745 0.21301 2.3187e-21)
(0.821608 -0.00175188 0)
(0.856795 -0.196516 5.85259e-21)
(0.872312 -0.293356 -2.5057e-21)
(0.8845 -0.332842 6.79693e-22)
(0.858698 -0.341887 4.77265e-22)
(0.812438 -0.334275 0)
(0.771571 -0.324456 0)
(0.761532 -0.188207 -7.6157e-22)
(0.784008 -0.0789684 1.1313e-21)
(0.807188 0.12601 -6.33891e-22)
(0.805129 0.249844 1.93947e-22)
(0.786094 0.336142 4.58742e-22)
(0.766028 0.383419 2.7826e-22)
(0.793428 0.199587 -5.77712e-22)
(0.799108 0.167722 0)
(0.835041 -0.0992816 -5.26938e-22)
(0.810365 -0.219562 -1.39129e-22)
(0.206598 -0.288156 7.15519e-20)
(0.16588 -0.283442 -7.09119e-20)
(0.130207 -0.269999 4.55337e-22)
(0.0980125 -0.244521 -3.18588e-22)
(0.0675271 -0.207845 3.28389e-22)
(0.0425564 -0.158395 -2.7778e-22)
(0.0271209 -0.0962096 3.02824e-22)
(0.0209451 -0.0228247 0)
(0.0278832 0.0552791 -1.93751e-22)
(0.0457656 0.138135 1.68599e-22)
(0.0763427 0.222327 1.57165e-22)
(0.119658 0.300858 -2.89724e-22)
(0.174956 0.367635 0)
(0.241973 0.416167 0)
(0.321189 0.43913 2.94758e-22)
(0.413008 0.429018 0)
(0.515564 0.381269 -4.81732e-22)
(0.622504 0.297389 0)
(0.726099 0.181349 -4.57894e-20)
(0.823246 0.0349696 9.35338e-20)
(0.911319 -0.132213 -9.4115e-20)
(0.978631 -0.292218 4.63538e-20)
(1.01174 -0.411597 3.50571e-20)
(1.0093 -0.475607 -3.40423e-20)
(0.982438 -0.492584 -2.11088e-20)
(0.944429 -0.481214 2.03316e-20)
(0.902563 -0.458318 0)
(0.860689 -0.431232 2.9221e-22)
(0.821115 -0.402496 0)
(0.777233 -0.380801 0)
(0.718126 -0.368558 5.61774e-21)
(0.650484 -0.343269 -5.77091e-21)
(0.600231 -0.264978 3.66558e-22)
(0.590277 -0.128033 5.13423e-22)
(0.618908 0.0357872 -3.74603e-22)
(0.673348 0.177026 -3.02828e-21)
(0.736246 0.279179 2.94047e-21)
(0.789487 0.353405 -3.3465e-21)
(0.814952 0.428487 2.88639e-21)
(0.809667 0.498676 8.77523e-22)
(0.796841 0.507189 -5.05415e-21)
(0.793355 0.416367 -1.89136e-21)
(0.820638 0.216997 4.33072e-21)
(0.847617 -0.0007883 0)
(0.880878 -0.197739 -2.68794e-21)
(0.890779 -0.295597 2.45205e-21)
(0.899454 -0.330503 -3.3304e-21)
(0.872307 -0.333122 -4.80283e-22)
(0.824876 -0.32311 0)
(0.782744 -0.319873 2.35134e-22)
(0.76874 -0.192488 -4.7545e-22)