/*--------------------------------*- C++ -*----------------------------------*\
| =========                 |                                                 |
| \\      /  F ield         | OpenFOAM: The Open Source CFD Toolbox           |
|  \\    /   O peration     | Version:  2512                                  |
|   \\  /    A nd           | Website:  www.openfoam.com                      |
|    \\/     M anipulation  |                                                 |
\*---------------------------------------------------------------------------*/
FoamFile
{
    version     2.0;
    format      ascii;
    arch        "LSB;label=32;scalar=64";
    class       volScalarField;
    location    "102";
    object      p;
}
// * * * * * * * * * * * * * * * * * * * * * * * * * * * * * * * * * * * * * //

dimensions      [0 2 -2 0 0 0 0];

internalField   nonuniform List<scalar> 
13248
(
-0.365314
-0.363912
-0.36233
-0.360599
-0.358669
-0.356439
-0.353734
-0.350327
-0.345973
-0.34044
-0.333543
-0.325166
-0.315287
-0.303988
-0.291444
-0.277912
-0.263696
-0.249118
-0.234486
-0.220085
-0.206099
-0.192785
-0.179936
-0.167961
-0.373814
-0.37144
-0.368929
-0.366295
-0.363467
-0.360359
-0.356791
-0.352518
-0.347278
-0.340835
-0.333017
-0.323751
-0.313074
-0.301129
-0.288149
-0.274422
-0.260257
-0.245952
-0.231771
-0.217933
-0.204586
-0.191874
-0.179709
-0.168368
-0.383117
-0.379706
-0.376201
-0.372599
-0.368799
-0.364719
-0.360165
-0.354867
-0.348547
-0.340978
-0.332028
-0.321687
-0.31007
-0.297389
-0.283924
-0.269979
-0.255848
-0.241791
-0.228016
-0.214686
-0.201895
-0.189741
-0.178134
-0.167194
-0.393518
-0.388977
-0.384425
-0.379816
-0.374984
-0.369823
-0.364112
-0.357552
-0.349867
-0.340871
-0.330512
-0.318877
-0.306171
-0.292674
-0.278693
-0.264524
-0.250423
-0.236594
-0.223185
-0.210297
-0.197986
-0.186309
-0.175174
-0.164756
-0.40525
-0.399465
-0.39382
-0.388167
-0.382221
-0.375821
-0.368705
-0.360565
-0.351168
-0.340424
-0.328406
-0.315321
-0.30146
-0.287146
-0.27268
-0.25832
-0.244261
-0.230639
-0.217543
-0.205026
-0.193111
-0.181816
-0.171076
-0.161026
-0.418402
-0.411266
-0.404484
-0.397734
-0.390539
-0.382655
-0.373791
-0.363679
-0.352197
-0.339412
-0.325554
-0.310946
-0.295937
-0.280852
-0.265949
-0.251419
-0.237388
-0.22393
-0.211084
-0.198863
-0.187267
-0.176288
-0.165878
-0.156139
-0.432872
-0.424313
-0.416354
-0.408411
-0.399746
-0.390026
-0.378985
-0.366475
-0.352568
-0.337536
-0.321763
-0.305655
-0.289571
-0.273789
-0.258499
-0.243815
-0.229797
-0.216464
-0.203816
-0.191837
-0.180508
-0.169803
-0.15969
-0.150208
-0.448344
-0.438344
-0.429167
-0.419869
-0.409408
-0.397404
-0.383709
-0.368408
-0.351834
-0.33447
-0.31682
-0.299311
-0.282259
-0.265865
-0.250234
-0.235408
-0.221387
-0.208149
-0.195664
-0.183894
-0.172804
-0.162356
-0.152525
-0.143283
-0.464269
-0.452879
-0.44243
-0.431535
-0.418855
-0.404063
-0.387271
-0.368895
-0.349559
-0.329919
-0.310526
-0.291769
-0.27388
-0.256962
-0.241041
-0.226094
-0.212073
-0.198924
-0.186591
-0.175021
-0.164162
-0.153974
-0.144422
-0.135423
-0.479865
-0.467197
-0.455392
-0.442572
-0.427191
-0.409137
-0.388927
-0.367371
-0.34535
-0.323613
-0.302687
-0.282868
-0.264281
-0.246935
-0.230784
-0.215752
-0.201753
-0.188708
-0.17654
-0.165179
-0.154565
-0.144648
-0.135374
-0.126628
-0.494135
-0.480335
-0.467039
-0.451902
-0.433342
-0.411658
-0.387887
-0.363226
-0.338732
-0.31516
-0.292943
-0.272257
-0.253117
-0.23545
-0.219146
-0.204088
-0.190161
-0.177263
-0.1653
-0.154189
-0.143857
-0.134244
-0.125266
-0.116817
-0.505965
-0.49122
-0.476278
-0.458405
-0.436222
-0.410639
-0.38328
-0.355678
-0.328972
-0.303841
-0.28058
-0.259233
-0.239708
-0.221856
-0.205515
-0.190533
-0.176769
-0.164101
-0.152421
-0.141635
-0.131665
-0.122435
-0.113835
-0.105811
-0.341087
-0.343106
-0.344279
-0.345045
-0.345842
-0.346836
-0.348102
-0.349666
-0.351524
-0.353659
-0.356049
-0.358667
-0.361483
-0.364453
-0.367521
-0.370606
-0.373603
-0.376379
-0.378772
-0.380599
-0.381635
-0.381629
-0.380455
-0.378421
-0.334869
-0.337542
-0.339063
-0.339973
-0.340774
-0.341618
-0.342555
-0.34359
-0.344695
-0.345826
-0.346929
-0.347948
-0.34882
-0.349474
-0.349832
-0.349806
-0.349294
-0.34819
-0.346387
-0.343782
-0.340237
-0.335548
-0.329805
-0.32412
-0.329827
-0.332992
-0.334775
-0.335791
-0.336574
-0.337256
-0.337862
-0.338372
-0.338734
-0.338875
-0.338712
-0.338158
-0.33712
-0.335501
-0.333205
-0.330134
-0.326194
-0.321299
-0.315387
-0.308424
-0.300349
-0.290982
-0.280506
-0.270842
-0.326384
-0.329846
-0.331796
-0.332877
-0.333629
-0.334157
-0.334458
-0.334488
-0.33417
-0.333405
-0.332084
-0.330092
-0.327311
-0.323625
-0.318926
-0.313115
-0.306109
-0.297846
-0.288303
-0.277506
-0.265501
-0.252203
-0.237747
-0.224419
-0.324802
-0.328355
-0.330367
-0.33147
-0.33218
-0.332569
-0.332605
-0.332221
-0.331316
-0.329767
-0.327443
-0.324208
-0.319925
-0.314468
-0.307724
-0.299604
-0.290044
-0.279018
-0.266541
-0.252692
-0.237617
-0.221384
-0.203877
-0.186464
-0.325176
-0.328615
-0.330579
-0.331656
-0.332308
-0.332571
-0.332385
-0.331659
-0.330271
-0.328078
-0.32493
-0.320674
-0.315164
-0.308271
-0.299889
-0.289945
-0.278412
-0.26531
-0.250717
-0.234779
-0.217734
-0.199839
-0.181159
-0.162564
-0.327434
-0.330561
-0.332366
-0.333359
-0.333925
-0.334066
-0.333694
-0.332693
-0.330922
-0.328222
-0.324427
-0.319375
-0.312916
-0.304923
-0.295307
-0.284025
-0.27109
-0.25658
-0.24064
-0.223485
-0.205406
-0.186712
-0.16772
-0.14793
-0.331359
-0.334
-0.335529
-0.336362
-0.336797
-0.336797
-0.33625
-0.335017
-0.332937
-0.329839
-0.325544
-0.319884
-0.312712
-0.303913
-0.293422
-0.281233
-0.267413
-0.252102
-0.235516
-0.21794
-0.199737
-0.181124
-0.163251
-0.143325
-0.336637
-0.338639
-0.339775
-0.340354
-0.340581
-0.340384
-0.339634
-0.338166
-0.335801
-0.332354
-0.327639
-0.321487
-0.313757
-0.304358
-0.293259
-0.280502
-0.266213
-0.250598
-0.233942
-0.216574
-0.198974
-0.181087
-0.164903
-0.146226
-0.342917
-0.344165
-0.344787
-0.344992
-0.344896
-0.34441
-0.343369
-0.341603
-0.338911
-0.335094
-0.329961
-0.323347
-0.31513
-0.305248
-0.293716
-0.280632
-0.266184
-0.250641
-0.234342
-0.217636
-0.201066
-0.184513
-0.170048
-0.15417
-0.349891
-0.350303
-0.350289
-0.349977
-0.34941
-0.348482
-0.347024
-0.344841
-0.341719
-0.337448
-0.331836
-0.324729
-0.316031
-0.30572
-0.293864
-0.280619
-0.266227
-0.250999
-0.23529
-0.219467
-0.20397
-0.188888
-0.17549
-0.161751
-0.357369
-0.356889
-0.356126
-0.355149
-0.353947
-0.352417
-0.350384
-0.34764
-0.343956
-0.339113
-0.332922
-0.325246
-0.31602
-0.30527
-0.293117
-0.27977
-0.265509
-0.250659
-0.235559
-0.220553
-0.205926
-0.191972
-0.179188
-0.167211
-0.374909
-0.367947
-0.35688
-0.341365
-0.321775
-0.299345
-0.275601
-0.252824
-0.233606
-0.220572
-0.215818
-0.220023
-0.231873
-0.247724
-0.261939
-0.26719
-0.26297
-0.24231
-0.209255
-0.171507
-0.137068
-0.11082
-0.0941441
-0.0862214
-0.0855956
-0.0920365
-0.106751
-0.128184
-0.148282
-0.15599
-0.14707
-0.125895
-0.101882
-0.0826613
-0.0711742
-0.0663806
-0.0677464
-0.0772926
-0.0941664
-0.109139
-0.110752
-0.0987967
-0.0805732
-0.0650962
-0.0543922
-0.0492122
-0.0508288
-0.0556513
-0.0572387
-0.0540313
-0.0474167
-0.0420238
-0.0374687
-0.0346801
-0.0343278
-0.0338077
-0.030279
-0.0273245
-0.0177989
-0.00294008
-0.318047
-0.310334
-0.300272
-0.287607
-0.272811
-0.257001
-0.241215
-0.227631
-0.218405
-0.215384
-0.220436
-0.23325
-0.251645
-0.271629
-0.28809
-0.296315
-0.286819
-0.262283
-0.224948
-0.182827
-0.14438
-0.114555
-0.0945265
-0.0833429
-0.0795189
-0.0824474
-0.0930215
-0.110424
-0.128123
-0.136437
-0.130343
-0.113331
-0.0934019
-0.0777857
-0.0693866
-0.0671945
-0.0711481
-0.0835418
-0.103065
-0.119684
-0.120881
-0.107246
-0.0861101
-0.0676788
-0.0544401
-0.0471063
-0.0464735
-0.0492287
-0.0502
-0.0476375
-0.0431704
-0.0396129
-0.0372844
-0.0367186
-0.0377897
-0.0383074
-0.0340862
-0.030497
-0.0196923
-0.00319687
-0.262304
-0.25341
-0.244178
-0.233825
-0.223091
-0.214194
-0.205523
-0.201192
-0.20096
-0.207355
-0.220962
-0.240704
-0.263876
-0.286508
-0.303869
-0.310939
-0.301437
-0.27494
-0.235001
-0.190113
-0.148979
-0.116575
-0.0939031
-0.0798962
-0.0730599
-0.0725863
-0.0790558
-0.0923031
-0.107408
-0.115966
-0.112575
-0.0996275
-0.0837667
-0.0718102
-0.0665686
-0.0670445
-0.0736035
-0.0887176
-0.11066
-0.128833
-0.129888
-0.114762
-0.0910099
-0.0698148
-0.0542115
-0.0449324
-0.0422945
-0.0431656
-0.0435189
-0.0414038
-0.0388666
-0.0370261
-0.0370044
-0.0387792
-0.041296
-0.0427716
-0.0377752
-0.033525
-0.0215185
-0.00345827
-0.213786
-0.203009
-0.195173
-0.186401
-0.177194
-0.177443
-0.174061
-0.176056
-0.183699
-0.197606
-0.217553
-0.242038
-0.268228
-0.292351
-0.310139
-0.316927
-0.307462
-0.280311
-0.239398
-0.193407
-0.15102
-0.117109
-0.0925651
-0.0762941
-0.0668315
-0.0632306
-0.0658162
-0.0749121
-0.0871381
-0.0954555
-0.0944176
-0.0852462
-0.0732809
-0.0648916
-0.0627259
-0.0657851
-0.0748011
-0.0923965
-0.116574
-0.136291
-0.13746
-0.121169
-0.0951753
-0.0714952
-0.0537434
-0.0427476
-0.0383807
-0.0375763
-0.0373119
-0.0354219
-0.0345682
-0.0342928
-0.0366267
-0.040839
-0.0448197
-0.0471634
-0.0413059
-0.0363739
-0.0232544
-0.00371899
-0.174849
-0.161238
-0.158954
-0.150682
-0.145344
-0.144865
-0.147359
-0.154876
-0.167989
-0.186811
-0.210675
-0.237843
-0.265517
-0.290176
-0.308053
-0.314873
-0.305699
-0.278961
-0.238638
-0.193217
-0.151012
-0.116595
-0.0908601
-0.0728562
-0.0612082
-0.0549254
-0.0540018
-0.0590647
-0.0681645
-0.0757077
-0.0765162
-0.0706237
-0.0622237
-0.0571558
-0.0578332
-0.0632711
-0.0744966
-0.0943023
-0.120519
-0.141765
-0.143361
-0.126328
-0.098545
-0.0727382
-0.0530891
-0.0406018
-0.0347787
-0.0325233
-0.0316607
-0.0297821
-0.0303377
-0.0314413
-0.0361444
-0.0428667
-0.0483223
-0.0514355
-0.0446367
-0.0390082
-0.0248781
-0.00397385
-0.155641
-0.139369
-0.130732
-0.124533
-0.121394
-0.122489
-0.128
-0.13858
-0.154567
-0.175785
-0.201314
-0.229353
-0.25724
-0.281714
-0.299424
-0.306123
-0.297416
-0.271886
-0.233477
-0.190132
-0.149395
-0.115402
-0.0891034
-0.0698327
-0.0564196
-0.0478945
-0.0440292
-0.0453899
-0.0512189
-0.0574567
-0.0598194
-0.0561741
-0.0508846
-0.0487488
-0.0519308
-0.059474
-0.0726084
-0.0942942
-0.122293
-0.145084
-0.147435
-0.130139
-0.101067
-0.0735561
-0.0522893
-0.038526
-0.0315024
-0.0280298
-0.0266147
-0.0245574
-0.0262306
-0.0285004
-0.035544
-0.0448176
-0.0517567
-0.0555423
-0.047728
-0.0413957
-0.0263662
-0.0042165
-0.140233
-0.125648
-0.115527
-0.109358
-0.10698
-0.108918
-0.115468
-0.127034
-0.143767
-0.165306
-0.190646
-0.218051
-0.245062
-0.268997
-0.28586
-0.292148
-0.284002
-0.260364
-0.224975
-0.1849
-0.14665
-0.113853
-0.0875436
-0.0674139
-0.0526043
-0.0422366
-0.0359433
-0.0341199
-0.0367467
-0.04121
-0.0438733
-0.0422765
-0.0396247
-0.0399149
-0.0451827
-0.0544863
-0.0691421
-0.0923016
-0.121826
-0.146165
-0.14963
-0.132537
-0.102696
-0.0739496
-0.05137
-0.0365373
-0.0285393
-0.024075
-0.0221863
-0.0197834
-0.0222979
-0.0255012
-0.034805
-0.0466365
-0.0550749
-0.0594355
-0.0505415
-0.0435079
-0.0276989
-0.0044394
-0.136867
-0.124482
-0.111714
-0.103858
-0.101015
-0.102609
-0.108753
-0.119736
-0.1356
-0.155897
-0.179638
-0.205161
-0.23025
-0.253123
-0.268512
-0.274146
-0.266758
-0.245636
-0.214119
-0.178148
-0.143088
-0.112069
-0.0862252
-0.0656155
-0.0497517
-0.03792
-0.0296806
-0.0252326
-0.0249172
-0.027345
-0.0296161
-0.0294549
-0.0288456
-0.0309678
-0.0378176
-0.0484635
-0.0642228
-0.0883868
-0.119131
-0.145025
-0.150055
-0.133499
-0.103401
-0.0739218
-0.050354
-0.0346471
-0.0258755
-0.0206185
-0.0183512
-0.0155468
-0.0185856
-0.0224767
-0.0339024
-0.0482625
-0.0582239
-0.0630606
-0.0530417
-0.0453214
-0.0288645
-0.0046359
-0.140343
-0.130307
-0.115933
-0.106277
-0.102186
-0.102326
-0.106843
-0.116005
-0.129774
-0.147663
-0.16874
-0.191454
-0.213738
-0.232922
-0.248032
-0.25331
-0.247057
-0.228973
-0.201882
-0.170472
-0.138992
-0.110141
-0.0851642
-0.0644424
-0.047849
-0.0349009
-0.0251469
-0.0186159
-0.0157373
-0.0160345
-0.0175075
-0.0181079
-0.0188827
-0.0222261
-0.0301154
-0.0416165
-0.0579448
-0.0826643
-0.114377
-0.141818
-0.149156
-0.13303
-0.103242
-0.0735653
-0.049345
-0.0329104
-0.0235204
-0.0176441
-0.015089
-0.0118336
-0.0151247
-0.0194604
-0.0328042
-0.0496336
-0.0611464
-0.066366
-0.0551995
-0.0468185
-0.0298572
-0.00480314
-0.149442
-0.138486
-0.12458
-0.114126
-0.1084
-0.106394
-0.108436
-0.114905
-0.125682
-0.140323
-0.157996
-0.177299
-0.196377
-0.213697
-0.226436
-0.231355
-0.226604
-0.211979
-0.189596
-0.162903
-0.13517
-0.108737
-0.0849469
-0.0644275
-0.0473545
-0.0335199
-0.0225464
-0.0143366
-0.00926803
-0.0074273
-0.007745
-0.00852897
-0.00996679
-0.0139396
-0.0223217
-0.034218
-0.0507407
-0.0755185
-0.1077
-0.136663
-0.147809
-0.131149
-0.102371
-0.0730639
-0.0485338
-0.0314496
-0.0214903
-0.0151196
-0.0124174
-0.00868109
-0.0119225
-0.0164873
-0.0314903
-0.0506815
-0.063775
-0.0692967
-0.0569968
-0.0479877
-0.030658
-0.004936
-0.155469
-0.145565
-0.133638
-0.123464
-0.116438
-0.112622
-0.112023
-0.115324
-0.122535
-0.133453
-0.147407
-0.163102
-0.179304
-0.193821
-0.204489
-0.209238
-0.206364
-0.195513
-0.177975
-0.156054
-0.132166
-0.108316
-0.0859086
-0.0657978
-0.0484108
-0.0338157
-0.0218196
-0.012252
-0.00532749
-0.00140105
-0.00032662
-0.000700932
-0.00234838
-0.00642217
-0.0147139
-0.0263783
-0.0424389
-0.0669723
-0.099847
-0.129756
-0.141301
-0.127612
-0.100551
-0.0721616
-0.0477109
-0.0301609
-0.0196576
-0.0128459
-0.0101768
-0.006156
-0.00906915
-0.0135811
-0.0298711
-0.0513752
-0.0660576
-0.0717689
-0.0583876
-0.0488128
-0.0312161
-0.00500555
-0.160196
-0.151806
-0.142159
-0.132463
-0.124498
-0.11929
-0.116978
-0.117472
-0.121067
-0.127845
-0.137288
-0.148634
-0.160001
-0.173891
-0.182106
-0.185999
-0.184554
-0.176924
-0.163603
-0.145942
-0.125659
-0.104463
-0.083758
-0.0645548
-0.0474443
-0.0326538
-0.0202112
-0.0099825
-0.00190823
0.00371357
0.00616681
0.0061134
0.00424442
0.000125301
-0.00779158
-0.0190032
-0.0343106
-0.0578961
-0.0902979
-0.120445
-0.131488
-0.121549
-0.0966565
-0.0695024
-0.0456046
-0.0282021
-0.0175466
-0.0104743
-0.00784889
-0.00376445
-0.00643328
-0.0109092
-0.0280371
-0.0515847
-0.0678774
-0.0737877
-0.0592821
-0.049263
-0.0314851
-0.00495902
-0.156083
-0.152025
-0.143422
-0.13418
-0.126705
-0.121609
-0.118823
-0.118416
-0.120758
-0.125955
-0.133706
-0.143585
-0.155824
-0.16325
-0.169442
-0.1721
-0.169884
-0.162281
-0.149773
-0.13351
-0.114937
-0.0955012
-0.0763965
-0.0584956
-0.0423292
-0.0281087
-0.0159031
-0.00564576
0.00274554
0.00913876
0.0127589
0.0135931
0.012567
0.00817132
0.00116142
-0.00886183
-0.0232792
-0.0470906
-0.0817154
-0.115051
-0.128294
-0.117599
-0.0921764
-0.0654399
-0.0421466
-0.0253396
-0.0151186
-0.00815745
-0.00541565
-0.00074302
-0.00300681
-0.00733879
-0.0253911
-0.0514433
-0.0696061
-0.0758455
-0.0598661
-0.0493473
-0.0315292
-0.0048369
-0.151871
-0.149522
-0.141715
-0.133082
-0.126225
-0.121586
-0.118968
-0.118357
-0.11995
-0.123799
-0.129668
-0.137076
-0.145054
-0.150936
-0.155028
-0.155962
-0.152891
-0.145524
-0.134224
-0.11985
-0.103495
-0.0862734
-0.0691407
-0.05284
-0.03786
-0.0244261
-0.0126979
-0.00266651
0.0058076
0.0126455
0.0169086
0.0181309
0.0166955
0.0134719
0.00763814
-0.00108107
-0.0144437
-0.0380452
-0.0737289
-0.108064
-0.120734
-0.110202
-0.0855945
-0.0603266
-0.0385222
-0.0226599
-0.0128351
-0.0060474
-0.00337511
0.00141275
-0.000771019
-0.00467685
-0.0232399
-0.0512476
-0.0707902
-0.077077
-0.0599182
-0.0488832
-0.0312784
-0.00477377
-0.145531
-0.144555
-0.138122
-0.130452
-0.124295
-0.120208
-0.117903
-0.117175
-0.118054
-0.120547
-0.12448
-0.12945
-0.134622
-0.138584
-0.140818
-0.140546
-0.137175
-0.130444
-0.120524
-0.107982
-0.0936148
-0.0782993
-0.0628362
-0.0478846
-0.0339231
-0.0211952
-0.00988556
-6.10309e-05
0.00835107
0.0153579
0.0200937
0.0219111
0.0209432
0.0181627
0.0131153
0.00514183
-0.00780123
-0.0311355
-0.0658573
-0.0988629
-0.11147
-0.101434
-0.0783633
-0.0549444
-0.0347717
-0.0199095
-0.0105742
-0.00399876
-0.00141633
0.00338842
0.00109555
-0.00268244
-0.0216425
-0.0509379
-0.0713355
-0.0776263
-0.059532
-0.0479928
-0.0307977
-0.00474015
-0.137147
-0.138105
-0.133348
-0.126777
-0.121312
-0.11768
-0.115573
-0.114662
-0.114872
-0.116215
-0.118588
-0.121647
-0.124738
-0.127023
-0.127932
-0.126871
-0.123346
-0.117112
-0.108246
-0.0971481
-0.0844214
-0.0707595
-0.0568196
-0.0431593
-0.0302164
-0.0182358
-0.00740856
0.00214653
0.0104007
0.0174308
0.0225496
0.0250448
0.024777
0.0227321
0.0186063
0.0112856
-0.00135125
-0.0239177
-0.0567273
-0.0883924
-0.100785
-0.0915285
-0.0704019
-0.0491044
-0.0307827
-0.0170885
-0.0083444
-0.00200414
0.000485746
0.00525987
0.0028785
-0.000897939
-0.0199937
-0.0500453
-0.0711474
-0.077497
-0.0586815
-0.0466898
-0.0300336
-0.00471141
-0.128292
-0.130776
-0.127511
-0.122031
-0.11724
-0.113993
-0.112036
-0.110992
-0.110722
-0.111212
-0.11238
-0.113967
-0.115526
-0.116506
-0.116385
-0.114675
-0.110989
-0.10513
-0.0971374
-0.0872838
-0.0760057
-0.0638275
-0.0512752
-0.0388148
-0.0268425
-0.0156062
-0.00530197
0.00393698
0.0119888
0.0189327
0.0242628
0.0273492
0.0279147
0.0269069
0.0240058
0.0177082
0.00582998
-0.0156442
-0.0467414
-0.0769959
-0.0887834
-0.0806102
-0.0618492
-0.0429571
-0.0266415
-0.0142323
-0.00615987
-7.13277e-05
0.00232999
0.00698869
0.00457747
0.000866835
-0.0179231
-0.0483463
-0.0700783
-0.0764855
-0.0572764
-0.0449394
-0.0289589
-0.00467252
-0.119318
-0.12269
-0.120688
-0.116276
-0.112168
-0.109302
-0.107512
-0.10642
-0.105831
-0.1057
-0.105972
-0.106475
-0.106906
-0.106861
-0.105921
-0.10371
-0.0999318
-0.094425
-0.0871898
-0.0784
-0.0683654
-0.0574817
-0.0461713
-0.0348221
-0.0237829
-0.0132917
-0.00355014
0.00531506
0.0131263
0.0199159
0.0253153
0.0288475
0.0302116
0.0303274
0.0289027
0.0240848
0.0133113
-0.00718754
-0.0366134
-0.0648537
-0.0757871
-0.0689895
-0.0529521
-0.0366458
-0.0224102
-0.0113638
-0.00403253
0.0017859
0.00411307
0.00857371
0.0061868
0.00262166
-0.0154043
-0.0457397
-0.0678917
-0.0743866
-0.0552425
-0.0427346
-0.0275528
-0.00460492
-0.110056
-0.11406
-0.11314
-0.109721
-0.106285
-0.103806
-0.102202
-0.101117
-0.100329
-0.0997736
-0.099416
-0.0991461
-0.0987512
-0.0979419
-0.0964071
-0.0938581
-0.0900613
-0.0848776
-0.0782864
-0.0703984
-0.0614354
-0.0516941
-0.041507
-0.0311914
-0.021048
-0.0112955
-0.00214081
0.00629648
0.0138246
0.020429
0.0258113
0.0296201
0.0316528
0.0327531
0.0327708
0.0296081
0.0200471
0.000575709
-0.0267563
-0.0522921
-0.0622112
-0.057051
-0.0439795
-0.0303384
-0.0181736
-0.00851285
-0.00197151
0.00355775
0.00583932
0.0100282
0.00771512
0.00432353
-0.0124966
-0.0421002
-0.06438
-0.0709921
-0.0525302
-0.0400917
-0.0258082
-0.00449007
-0.100777
-0.105215
-0.105147
-0.102589
-0.0997796
-0.0976808
-0.096275
-0.0952431
-0.0943582
-0.093541
-0.0927657
-0.0919653
-0.0909991
-0.0896642
-0.087729
-0.0849717
-0.0812091
-0.0763275
-0.0702998
-0.0631956
-0.0551708
-0.0464439
-0.037273
-0.0279151
-0.0186275
-0.00960483
-0.00105049
0.00691688
0.0141147
0.0205019
0.0258129
0.0297975
0.0322992
0.034094
0.03519
0.0334279
0.0251386
0.00719044
-0.0173727
-0.0396463
-0.0485658
-0.0452571
-0.0352299
-0.0242103
-0.0140231
-0.00571077
2.06744e-05
0.00524103
0.00751608
0.0113713
0.00918448
0.00597362
-0.00919221
-0.037338
-0.059436
-0.0663199
-0.0491238
-0.0370508
-0.0237362
-0.0043109
-0.0917625
-0.0963586
-0.0969127
-0.0950772
-0.0928349
-0.0910986
-0.0898989
-0.0889578
-0.0880538
-0.087099
-0.0860721
-0.0849385
-0.0836079
-0.0819374
-0.0797566
-0.0768987
-0.0732242
-0.0686428
-0.0631258
-0.0567146
-0.0495175
-0.0416947
-0.0334455
-0.024976
-0.016504
-0.00819939
-0.000252833
0.00721644
0.0140415
0.0201687
0.0253564
0.029421
0.0322295
0.0344017
0.0360435
0.035167
0.0282145
0.0125206
-0.00857749
-0.0273916
-0.0355304
-0.034131
-0.0269967
-0.0184212
-0.0100502
-0.00299411
0.00194343
0.00683858
0.0091519
0.012637
0.0106487
0.00764626
-0.00546874
-0.0314831
-0.0530768
-0.060347
-0.0450503
-0.0336781
-0.0213704
-0.00405415
-0.0830441
-0.0876146
-0.0886128
-0.087372
-0.0856264
-0.0842249
-0.0832303
-0.0824035
-0.0815359
-0.0805373
-0.0793886
-0.078074
-0.0765378
-0.0746819
-0.0723835
-0.0695197
-0.0659851
-0.0617088
-0.0566638
-0.0508741
-0.0444154
-0.0374049
-0.029996
-0.0223516
-0.0146543
-0.00705132
0.000285075
0.00723785
0.0136551
0.019476
0.0244846
0.0285355
0.0315148
0.0338351
0.0355954
0.035129
0.0295191
0.0165856
-0.000725561
-0.0162934
-0.0238507
-0.0241529
-0.0195219
-0.0130955
-0.00633547
-0.000404956
0.00379092
0.00835409
0.0107523
0.0138838
0.0121976
0.00945318
-0.00136429
-0.0247188
-0.045487
-0.0532206
-0.0403898
-0.0300622
-0.0187703
-0.00371277
-0.0746673
-0.0791074
-0.0804032
-0.0796337
-0.0783095
-0.077207
-0.0764082
-0.0757088
-0.0749162
-0.0739411
-0.0727652
-0.0713833
-0.0697639
-0.0678417
-0.0655294
-0.062737
-0.0593857
-0.0554211
-0.0508204
-0.0455977
-0.0398061
-0.0335314
-0.0268911
-0.0200137
-0.0130502
-0.00612762
0.000601988
0.00702708
0.0130085
0.0184815
0.0232574
0.0272103
0.0302408
0.032568
0.034223
0.0339093
0.0295214
0.0193332
0.00560364
-0.00710186
-0.0140748
-0.0156217
-0.0129533
-0.00831154
-0.00293976
0.00201366
0.00554796
0.00978285
0.0123056
0.01518
0.0139335
0.0115076
0.00301521
-0.0173966
-0.0370415
-0.0452256
-0.035272
-0.0263057
-0.0160215
-0.00328848
-0.0667081
-0.070928
-0.0723981
-0.071992
-0.0710178
-0.0701759
-0.0695576
-0.068989
-0.0682951
-0.0673896
-0.0662532
-0.0648872
-0.0632761
-0.0613779
-0.0591309
-0.0564698
-0.0533366
-0.0496907
-0.0455142
-0.0408157
-0.0356329
-0.0300291
-0.0240944
-0.0179299
-0.0116597
-0.00539228
0.000739449
0.00663304
0.01216
0.0172518
0.0217482
0.0255329
0.0285117
0.0307565
0.0322285
0.031972
0.0285724
0.0207349
0.010088
-0.000113662
-0.00635585
-0.00860625
-0.00733911
-0.00410511
9.78171e-05
0.00422348
0.00719429
0.0111076
0.0137714
0.0165563
0.01592
0.0139006
0.00750391
-0.0100198
-0.0282734
-0.0367777
-0.0298733
-0.0225142
-0.0132315
-0.00279453
-0.059192
-0.063133
-0.0646859
-0.0645544
-0.0638658
-0.0632454
-0.0627882
-0.0623459
-0.0617619
-0.0609539
-0.0599018
-0.0586095
-0.0570721
-0.055263
-0.0531394
-0.0506542
-0.0477653
-0.0444431
-0.0406742
-0.0364646
-0.0318417
-0.026853
-0.0215678
-0.016066
-0.0104486
-0.00480801
0.000741084
0.00610592
0.0111686
0.0158576
0.0200377
0.0235991
0.0264455
0.0285533
0.0298362
0.0296137
0.0269746
0.0210195
0.0129141
0.00487245
-0.000516836
-0.0030126
-0.00265502
-0.000480208
0.00275934
0.00619315
0.00870751
0.0123035
0.0150849
0.0179458
0.0181072
0.0166136
0.0118442
-0.00316837
-0.01979
-0.0283702
-0.0244038
-0.0187867
-0.0105179
-0.00225672
-0.0521388
-0.0557689
-0.0573349
-0.0574037
-0.0569433
-0.0565074
-0.0561902
-0.0558654
-0.0553917
-0.0546944
-0.0537542
-0.0525743
-0.0511543
-0.049479
-0.0475189
-0.0452405
-0.0426131
-0.0396157
-0.0362389
-0.0324876
-0.0283826
-0.0239601
-0.0192737
-0.014387
-0.00938202
-0.00433708
0.000649416
0.00549476
0.0100925
0.0143702
0.0182089
0.0215077
0.0241683
0.0261143
0.0272355
0.027064
0.0250313
0.0205586
0.0144795
0.00825776
0.00376404
0.00134019
0.00116461
0.00257812
0.00504484
0.00790083
0.0100618
0.0133427
0.0161836
0.0191822
0.020206
0.0193317
0.0156224
0.00262975
-0.0121396
-0.0204625
-0.0190784
-0.0152125
-0.00799456
-0.00170944
-0.0455625
-0.0488622
-0.0503885
-0.050598
-0.0503175
-0.0500328
-0.0498339
-0.0496137
-0.0492471
-0.0486656
-0.047851
-0.0468045
-0.0455284
-0.0440146
-0.0422432
-0.0401899
-0.0378326
-0.0351567
-0.0321559
-0.028835
-0.0252102
-0.0213097
-0.0171757
-0.0128589
-0.00842615
-0.00394327
0.000505581
0.00484735
0.00898697
0.0128542
0.0163416
0.0193575
0.0218039
0.0235862
0.024589
0.0244974
0.0229693
0.0196657
0.0151725
0.010442
0.00681253
0.00464573
0.00420684
0.00509876
0.00696432
0.00933566
0.0112311
0.0141868
0.0170241
0.0200893
0.0217738
0.0214511
0.0183382
0.0070515
-0.00568521
-0.0134151
-0.0141028
-0.0118729
-0.00576304
-0.00118997
-0.039453
-0.0424209
-0.0438742
-0.0441789
-0.0440382
-0.0438753
-0.0437744
-0.0436451
-0.0433772
-0.042909
-0.0422236
-0.0413202
-0.0402013
-0.0388633
-0.0372928
-0.0354725
-0.0333861
-0.0310237
-0.0283813
-0.0254638
-0.0222843
-0.0188652
-0.0152401
-0.0114499
-0.00754894
-0.00359272
0.000347122
0.00420693
0.00790245
0.0113683
0.0145073
0.0172373
0.0194623
0.021092
0.0220167
0.0220298
0.0209342
0.0185489
0.0152821
0.011759
0.00891561
0.00709108
0.0065664
0.00711987
0.00853334
0.0104939
0.0121882
0.0147998
0.0175507
0.0205246
0.0224842
0.0224676
0.0196995
0.0100563
-0.000605031
-0.00747206
-0.00966417
-0.00884059
-0.0038982
-0.000734223
-0.0338013
-0.036449
-0.0378085
-0.0381731
-0.038139
-0.0380725
-0.038051
-0.0379989
-0.0378189
-0.0374558
-0.0368961
-0.0361369
-0.0351787
-0.0340203
-0.0326532
-0.0310652
-0.029244
-0.0271827
-0.0248791
-0.022338
-0.0195702
-0.0165942
-0.0134367
-0.0101311
-0.00672176
-0.00325539
0.000207414
0.00361196
0.00688323
0.00996284
0.0127652
0.0152177
0.0172302
0.0187233
0.0195999
0.0197312
0.019005
0.0173412
0.0150179
0.0124593
0.0103003
0.0088393
0.00833901
0.0086861
0.00976975
0.0113809
0.012907
0.0151629
0.0177196
0.0204178
0.0222625
0.0223292
0.0198295
0.0118275
0.00305977
-0.00325332
-0.00590687
-0.00617026
-0.00242361
-0.000369245
-0.0286002
-0.0309424
-0.0321948
-0.0325922
-0.032638
-0.0326471
-0.0326888
-0.0327004
-0.0325971
-0.0323286
-0.0318877
-0.0312664
-0.0304648
-0.0294823
-0.0283136
-0.0269502
-0.0253829
-0.0236065
-0.0216198
-0.0194277
-0.0170391
-0.0144692
-0.0117397
-0.00887789
-0.00592033
-0.0029058
0.000114535
0.0030937
0.0059666
0.00868205
0.0111646
0.0133536
0.0151688
0.0165416
0.0173904
0.0176405
0.0172238
0.0161231
0.0145267
0.0127245
0.0111417
0.0100281
0.00961525
0.00984664
0.0106939
0.0120086
0.013375
0.0152807
0.0175411
0.0198363
0.0213492
0.021353
0.0191085
0.0126478
0.00550665
0.000191982
-0.00283765
-0.00389951
-0.00130327
-0.000102879
-0.0238302
-0.0258863
-0.0270263
-0.0274376
-0.0275426
-0.0276103
-0.0277022
-0.0277668
-0.0277323
-0.0275551
-0.0272132
-0.0267164
-0.0260613
-0.0252454
-0.0242648
-0.0231135
-0.0217843
-0.0202736
-0.0185804
-0.0167093
-0.0146675
-0.012468
-0.0101282
-0.00767061
-0.00512513
-0.00252371
9.01716e-05
0.00267686
0.00518052
0.00755721
0.00974211
0.0116875
0.0133201
0.0145852
0.0154155
0.015772
0.0156096
0.0149469
0.0139041
0.0126881
0.011578
0.0107766
0.0104779
0.0106526
0.0113319
0.0123959
0.0135991
0.0151719
0.0170739
0.0189207
0.0200366
0.0199126
0.0179152
0.0128044
0.00698828
0.00257546
-0.0004739
-0.00216155
-0.000472308
8.17642e-05
-0.0194688
-0.0212629
-0.0222915
-0.0227033
-0.0228513
-0.0229632
-0.0230933
-0.0231986
-0.0232183
-0.0231114
-0.0228649
-0.0224836
-0.0219649
-0.0213044
-0.0204985
-0.0195434
-0.018434
-0.0171673
-0.0157428
-0.0141641
-0.0124374
-0.0105734
-0.00858621
-0.00649419
-0.00432188
-0.00209559
0.000148356
0.00237718
0.00454346
0.00661018
0.00852256
0.0102479
0.0117042
0.0128706
0.0136845
0.0141282
0.0141683
0.0138389
0.0132145
0.0124504
0.0117201
0.0111829
0.0110007
0.0111555
0.0117139
0.0125675
0.0136025
0.0148696
0.016391
0.0178098
0.0185481
0.0182925
0.0165206
0.0125346
0.00778369
0.00412244
0.00126031
-0.000675101
0.000153994
0.000212806
-0.0154966
-0.0170534
-0.0179746
-0.0183779
-0.018556
-0.0187009
-0.0188595
-0.0189963
-0.0190603
-0.0190172
-0.0188549
-0.0185722
-0.0181735
-0.0176534
-0.0170067
-0.0162301
-0.0153201
-0.0142747
-0.0130931
-0.0117782
-0.0103353
-0.00877276
-0.00710229
-0.00533866
-0.00350186
-0.00161337
0.000296876
0.00220225
0.00406281
0.00584777
0.0075085
0.00901848
0.0103244
0.0114012
0.0121945
0.0127014
0.0128952
0.0128145
0.0125028
0.0120809
0.0116464
0.0113253
0.0112495
0.0114041
0.0118729
0.0125524
0.0134175
0.0144104
0.0155648
0.0165384
0.0170232
0.0166701
0.0150949
0.0120069
0.0081181
0.00505504
0.00247313
0.000460045
0.000618302
0.000309075
-0.0118921
-0.0132359
-0.014056
-0.0144447
-0.0146436
-0.0148127
-0.0149922
-0.0151533
-0.0152532
-0.015263
-0.0151699
-0.0149729
-0.01468
-0.014285
-0.0137813
-0.013165
-0.0124335
-0.0115857
-0.0106211
-0.00954182
-0.00835184
-0.00705805
-0.00566975
-0.00419878
-0.00266128
-0.0010745
0.000537338
0.002152
0.00373688
0.00526848
0.00670401
0.00802022
0.00918128
0.010167
0.0109339
0.0114801
0.011783
0.0118818
0.0118002
0.0116149
0.0114144
0.0112668
0.0112818
0.0114447
0.0118436
0.0123804
0.0130818
0.0138364
0.0146772
0.0153403
0.0155635
0.0151418
0.0137351
0.0113337
0.0081526
0.00555631
0.00327831
0.00129717
0.000954292
0.000379562
-0.00863225
-0.00978718
-0.0105141
-0.0108852
-0.0110979
-0.0112844
-0.0114789
-0.0116582
-0.0117869
-0.0118409
-0.0118099
-0.0116924
-0.0114849
-0.0111943
-0.0108145
-0.0103395
-0.00976573
-0.00909239
-0.0083193
-0.007448
-0.00648141
-0.00542491
-0.00428584
-0.00307359
-0.00180093
-0.000481586
0.00086484
0.00222094
0.00356032
0.00486316
0.00609675
0.00724229
0.00826356
0.00915119
0.0098834
0.0104483
0.010824
0.0110457
0.0111241
0.0111162
0.0110795
0.0110626
0.0111481
0.0113202
0.0116614
0.0120821
0.0126324
0.0131868
0.013767
0.0141796
0.0142078
0.013747
0.0124883
0.010591
0.00799581
0.0057642
0.00377042
0.0018984
0.00119614
0.000430749
-0.00569527
-0.0066843
-0.00732693
-0.0076788
-0.00789987
-0.00809844
-0.0083031
-0.00849524
-0.00864593
-0.0087349
-0.00875339
-0.00869939
-0.00857255
-0.00837156
-0.0080972
-0.00774441
-0.00730852
-0.00678779
-0.00618199
-0.00549235
-0.00472106
-0.00387215
-0.00295133
-0.00196585
-0.000925715
0.00015836
0.00127099
0.00239839
0.00351934
0.00461857
0.00567014
0.00666022
0.00755894
0.0083624
0.0090319
0.00958933
0.0100056
0.010305
0.0104893
0.0106033
0.0106817
0.0107573
0.0108921
0.0110695
0.0113607
0.0116877
0.012104
0.0124935
0.0128646
0.0130839
0.0129719
0.0124936
0.0113711
0.00983286
0.00771886
0.00577897
0.00403179
0.00231237
0.00137066
0.000468361
-0.00306022
-0.00390467
-0.00447185
-0.00480414
-0.00502973
-0.00523627
-0.00544734
-0.00564821
-0.00581546
-0.00593244
-0.00599168
-0.00599115
-0.00593026
-0.00580807
-0.00562252
-0.00537283
-0.00505493
-0.00466602
-0.00420495
-0.00367242
-0.00307017
-0.00240116
-0.00166967
-0.000881259
-4.36037e-05
0.000835111
0.00174295
0.00266918
0.00359727
0.00451544
0.00540303
0.00624945
0.00703191
0.00774473
0.00836417
0.00889181
0.00931713
0.00965617
0.00990663