/*--------------------------------*- C++ -*----------------------------------*\
| =========                 |                                                 |
| \\      /  F ield         | OpenFOAM: The Open Source CFD Toolbox           |
|  \\    /   O peration     | Version:  2512                                  |
|   \\  /    A nd           | Website:  www.openfoam.com                      |
|    \\/     M anipulation  |                                                 |
\*---------------------------------------------------------------------------*/
FoamFile
{
    version     2.0;
    format      ascii;
    arch        "LSB;label=32;scalar=64";
    class       volVectorField;
    location    "102";
    object      U;
}
// * * * * * * * * * * * * * * * * * * * * * * * * * * * * * * * * * * * * * //

dimensions      [0 1 -1 0 0 0 0];

internalField   nonuniform List<vector> 
13248
(
(-0.0110625 0.0106188 7.75821e-20)
(-0.0168528 0.0192545 0)
(-0.00821235 0.0203438 -1.47446e-19)
(0.0133934 0.0165765 1.38896e-19)
(0.0472247 0.0100491 1.30623e-19)
(0.0928504 0.00235868 0)
(0.149839 -0.00533068 0)
(0.217524 -0.012176 3.1557e-19)
(0.294803 -0.0175696 -2.79166e-21)
(0.380021 -0.0210943 -2.73294e-19)
(0.470954 -0.0225071 2.48024e-19)
(0.564913 -0.021734 -1.54722e-19)
(0.658932 -0.0188645 0)
(0.750022 -0.0141349 -2.46746e-19)
(0.835427 -0.0078989 4.53238e-19)
(0.912848 -0.000587338 -1.07169e-19)
(0.980602 0.00733888 -1.75911e-19)
(1.03771 0.0154234 1.65143e-19)
(1.08388 0.0232932 0)
(1.11948 0.030516 0)
(1.14549 0.0371834 0)
(1.1627 0.042141 0)
(1.17406 0.047664 4.21846e-20)
(1.1777 0.0481061 1.43437e-19)
(-0.0100641 0.00882899 -2.34368e-19)
(-0.0109272 0.0148069 1.60061e-19)
(0.00615992 0.0146877 -1.04784e-21)
(0.0393881 0.0107772 -2.1202e-19)
(0.0876666 0.00501978 -1.30479e-19)
(0.150099 -0.00101255 -1.23284e-19)
(0.225553 -0.00616742 -2.26916e-19)
(0.31238 -0.0096466 2.14047e-19)
(0.408233 -0.0109558 0)
(0.51005 -0.00988276 1.99616e-21)
(0.614204 -0.00648013 4.06685e-21)
(0.716807 -0.00103316 1.54031e-19)
(0.814092 0.00599284 0)
(0.902775 0.0140231 0)
(0.980356 0.0224517 1.63044e-19)
(1.04529 0.0307146 -3.0593e-19)
(1.09703 0.0383485 1.73401e-19)
(1.13597 0.0450232 -1.62797e-19)
(1.16325 0.0505617 -6.93673e-20)
(1.18058 0.0548884 -1.19768e-19)
(1.18987 0.0581734 -4.71125e-20)
(1.19335 0.0601234 -8.6611e-20)
(1.19254 0.0623145 1.32134e-19)
(1.18899 0.0604768 3.70075e-20)
(-0.00794854 0.00655431 0)
(-0.00131823 0.00907642 0)
(0.0269465 0.00741738 7.50367e-20)
(0.0746027 0.00353641 6.94261e-20)
(0.140023 -0.000791468 -1.42146e-21)
(0.221506 -0.00408427 -1.2622e-19)
(0.316727 -0.00532841 0)
(0.422491 -0.00396077 -1.06257e-19)
(0.5347 0.00016253 9.86063e-20)
(0.648598 0.00680137 4.81265e-24)
(0.759223 0.0154009 -1.65471e-19)
(0.861961 0.0251995 -1.47991e-19)
(0.95305 0.035359 5.33868e-21)
(1.02994 0.0450928 -1.14726e-19)
(1.09145 0.0537675 2.81079e-19)
(1.13771 0.0609652 0)
(1.16997 0.0665001 -1.70294e-19)
(1.19024 0.0703932 8.30859e-20)
(1.20098 0.0728326 6.93058e-20)
(1.2047 0.0740627 0)
(1.20375 0.0744857 5.40016e-20)
(1.19999 0.0740512 -1.83643e-19)
(1.1948 0.073973 1.7239e-19)
(1.1896 0.0711029 1.05227e-19)
(-0.00446676 0.0039807 -8.24744e-20)
(0.0127348 0.00272446 -8.51095e-20)
(0.0553697 -0.000259957 7.73798e-20)
(0.120515 -0.00340058 0)
(0.205625 -0.00516866 0)
(0.307638 -0.00431392 -1.88439e-21)
(0.422402 -0.000188053 0)
(0.54462 0.00724941 -3.20149e-19)
(0.668206 0.0175031 2.96017e-19)
(0.786944 0.0296676 -3.63826e-19)
(0.89527 0.0426125 8.24998e-20)
(0.988949 0.0551942 0)
(1.06548 0.0664433 1.31652e-19)
(1.1242 0.0756925 -2.41621e-19)
(1.16604 0.0826249 5.73643e-20)
(1.19315 0.0872506 1.3997e-19)
(1.20837 0.0898292 -9.54822e-21)
(1.21474 0.090768 -1.546e-19)
(1.21506 0.0905198 0)
(1.2117 0.0894931 0)
(1.20641 0.0880692 -5.19305e-20)
(1.20034 0.0862507 4.58865e-20)
(1.19423 0.0849873 1.59206e-19)
(1.1883 0.0813449 -1.49469e-19)
(0.000720229 0.00126643 -8.62873e-20)
(0.0320483 -0.00358807 -8.61515e-20)
(0.0924943 -0.00709274 2.42541e-19)
(0.178049 -0.00822641 -1.47586e-19)
(0.284653 -0.00589476 1.38919e-19)
(0.40717 0.000660656 2.52792e-19)
(0.539002 0.0113891 -1.78013e-19)
(0.672525 0.0254779 -2.14458e-19)
(0.800028 0.0415737 5.66942e-21)
(0.9148 0.0580811 2.73507e-19)
(1.01203 0.0734833 0)
(1.08927 0.0866035 7.32133e-20)
(1.14641 0.0967519 0)
(1.18521 0.103743 -1.15548e-19)
(1.20871 0.107809 1.6193e-19)
(1.22045 0.109452 1.19219e-21)
(1.2239 0.109286 -4.11435e-20)
(1.22204 0.107907 7.49521e-20)
(1.21716 0.105807 6.45578e-20)
(1.21081 0.103341 -5.71114e-20)
(1.20399 0.100747 5.19175e-20)
(1.19723 0.0980425 -4.58747e-20)
(1.19075 0.0957564 0)
(1.18481 0.091669 -3.48094e-20)
(0.00799224 -0.00140305 8.6275e-20)
(0.0573595 -0.00913275 9.01443e-20)
(0.138982 -0.0117755 -8.11575e-20)
(0.247213 -0.00917349 1.50971e-19)
(0.375727 -0.00100442 -1.42097e-19)
(0.516621 0.0126062 1.28292e-19)
(0.660576 0.0305232 -6.14529e-20)
(0.79808 0.0508413 1.61193e-19)
(0.920943 0.0713649 -1.00901e-19)
(1.02352 0.0900893 1.76173e-19)
(1.10327 0.105562 -4.04518e-19)
(1.16057 0.117048 1.47736e-19)
(1.19798 0.124496 -1.26734e-19)
(1.21938 0.128369 1.19042e-19)
(1.22894 0.129414 1.00291e-19)
(1.23053 0.12844 8.62222e-20)
(1.22724 0.126175 -2.4006e-19)
(1.22132 0.123178 1.48105e-19)
(1.21423 0.119832 -6.45594e-20)
(1.20684 0.116369 1.66387e-19)
(1.1996 0.112915 -5.37626e-20)
(1.19272 0.109487 -1.28465e-19)
(1.1863 0.106358 1.1819e-19)
(1.18034 0.101961 3.47983e-20)
(0.0177002 -0.00377053 0)
(0.0891619 -0.0130619 5.69532e-22)
(0.194857 -0.012958 1.68196e-19)
(0.326857 -0.00462767 -1.57944e-19)
(0.475826 0.0109898 -1.42356e-19)
(0.630715 0.0324197 2.64331e-19)
(0.779898 0.0571516 -1.22639e-19)
(0.913223 0.0822167 1.62539e-19)
(1.02375 0.104934 -4.07364e-21)
(1.10849 0.123436 -9.14175e-20)
(1.16812 0.136863 1.97024e-19)
(1.20595 0.145274 -2.89567e-19)
(1.22664 0.149361 0)
(1.23505 0.150121 -5.5669e-20)
(1.23545 0.148573 -1.46692e-19)
(1.23113 0.145584 4.6411e-20)
(1.22438 0.141796 2.15818e-21)
(1.21663 0.137636 -9.73815e-20)
(1.2087 0.133357 7.42535e-21)
(1.201 0.129094 1.12001e-19)
(1.19371 0.124911 -4.88356e-20)
(1.1869 0.120831 -1.83554e-20)
(1.18052 0.116933 5.73304e-20)
(1.17456 0.112272 0)
(0.0300936 -0.00548834 0)
(0.127548 -0.0144017 4.55446e-20)
(0.25934 -0.00929324 -2.18488e-19)
(0.414625 0.0067485 7.9416e-20)
(0.580574 0.0309401 -7.47437e-20)
(0.743266 0.0600651 -6.79378e-20)
(0.890015 0.0902277 -1.19973e-19)
(1.01187 0.117797 6.00372e-20)
(1.10482 0.140236 5.21287e-20)
(1.16951 0.156408 0)
(1.20983 0.166408 1.16475e-19)
(1.23127 0.17115 -1.7203e-19)
(1.23945 0.171909 1.2788e-19)
(1.23919 0.169948 5.56974e-20)
(1.23411 0.166315 -4.4904e-20)
(1.22664 0.161765 -3.67599e-20)
(1.21826 0.15679 -3.39094e-20)
(1.20979 0.151678 1.03096e-19)
(1.20163 0.146585 0)
(1.19394 0.141588 5.05147e-20)
(1.18676 0.136718 4.1695e-20)
(1.18006 0.13199 -1.0437e-19)
(1.17378 0.127376 -7.02016e-20)
(1.16785 0.12246 6.50193e-20)
(0.0452579 -0.00612951 -4.86497e-20)
(0.172092 -0.0121076 -1.55712e-21)
(0.330781 0.000449708 4.43199e-20)
(0.507116 0.0258681 1.2332e-19)
(0.684858 0.0589808 3.56555e-20)
(0.848316 0.0947041 -6.89818e-20)
(0.985631 0.128148 6.31393e-20)
(1.09089 0.155725 -5.52879e-20)
(1.16409 0.175725 9.84325e-20)
(1.20948 0.188142 4.16284e-20)
(1.23339 0.194088 -1.18006e-19)
(1.24237 0.195156 3.45871e-20)
(1.24198 0.192923 5.84092e-20)
(1.23635 0.18868 -2.88458e-20)
(1.22822 0.183346 0)
(1.2192 0.177507 4.20489e-20)
(1.21014 0.171504 7.03804e-20)
(1.20146 0.165519 1.14735e-20)
(1.19331 0.159644 -5.82002e-20)
(1.18574 0.153919 2.40916e-20)
(1.1787 0.148363 0)
(1.17214 0.142971 -1.86361e-20)
(1.16597 0.137685 -1.73955e-20)
(1.16008 0.13247 0)
(0.0630638 -0.00522434 0)
(0.221783 -0.00517268 2.54291e-20)
(0.406714 0.0172316 4.69504e-20)
(0.600252 0.0530937 -1.25244e-19)
(0.783593 0.0945587 4.03187e-20)
(0.941101 0.134972 0)
(1.06376 0.169206 6.0393e-20)
(1.14996 0.194513 -8.42036e-20)
(1.20383 0.210508 -4.90272e-20)
(1.2325 0.218424 2.21604e-20)
(1.24362 0.220219 -3.48302e-20)
(1.24379 0.217879 8.49036e-20)
(1.23791 0.213036 4.20717e-20)
(1.22919 0.206844 -2.95157e-20)
(1.21948 0.200035 -3.03099e-21)
(1.20977 0.193025 -7.88652e-20)
(1.2005 0.186036 3.57855e-20)
(1.19185 0.179177 -8.71063e-22)
(1.18384 0.172499 0)
(1.17645 0.166025 -2.41166e-20)
(1.1696 0.159762 0)
(1.16321 0.153685 5.3668e-20)
(1.15719 0.147766 -6.36172e-20)
(1.15139 0.142177 2.88792e-20)
(0.0831351 -0.00230759 -1.31121e-20)
(0.275032 0.00725256 -6.36782e-20)
(0.484048 0.0416064 7.22585e-20)
(0.689752 0.0881864 4.24598e-20)
(0.872388 0.136572 -2.0346e-20)
(1.01851 0.179285 3.39695e-20)
(1.12351 0.211894 -1.65544e-20)
(1.19051 0.233152 2.74397e-20)
(1.22717 0.244204 0)
(1.2424 0.247388 6.16135e-20)
(1.24419 0.245221 -2.67965e-21)
(1.23851 0.239811 -4.94485e-20)
(1.22933 0.232666 2.1042e-20)
(1.21893 0.224733 -2.35488e-20)
(1.20851 0.216551 -8.79674e-21)
(1.19858 0.208396 1.03313e-20)
(1.18936 0.200405 -7.86661e-21)
(1.18087 0.19264 -4.23408e-20)
(1.17308 0.185128 2.59195e-20)
(1.16594 0.177881 5.24936e-21)
(1.15933 0.170889 4.5898e-21)
(1.15316 0.164119 4.01395e-21)
(1.14732 0.157609 0)
(1.14165 0.151541 0)
(0.104914 0.00304326 1.31212e-20)
(0.329886 0.0257681 -1.31352e-20)
(0.5595 0.0736358 -2.40343e-20)
(0.771746 0.130345 0)
(0.948038 0.183578 -1.00693e-20)
(1.07905 0.226097 -9.00538e-21)
(1.16544 0.255048 -1.54179e-20)
(1.21469 0.271059 0)
(1.237 0.27675 0)
(1.24204 0.275285 0)
(1.23737 0.269446 0)
(1.22803 0.261261 0)
(1.21702 0.252016 -1.31716e-20)
(1.20585 0.24244 5.98699e-21)
(1.19522 0.232902 1.03388e-20)
(1.18537 0.223576 4.82035e-21)
(1.17636 0.214538 1.18257e-20)
(1.16816 0.205821 0)
(1.16069 0.197436 -2.78565e-21)
(1.15388 0.189384 -2.64238e-21)
(1.1476 0.181641 -4.5971e-21)
(1.14174 0.174182 -4.02035e-21)
(1.13617 0.167112 0)
(1.13076 0.160456 2.82976e-21)
(5.08315e-05 -0.0381109 8.86909e-21)
(-0.00310475 -0.0944 -9.20536e-21)
(-0.0114272 -0.13553 -1.74238e-20)
(-0.0229336 -0.164247 0)
(-0.0363069 -0.183312 -2.33684e-20)
(-0.0507021 -0.1954 7.37527e-21)
(-0.065453 -0.20283 -1.38399e-20)
(-0.0800628 -0.207375 0)
(-0.0941987 -0.210209 0)
(-0.107653 -0.21195 0)
(-0.120301 -0.212773 0)
(-0.132061 -0.21254 0)
(-0.142865 -0.210914 2.15196e-22)
(-0.152642 -0.207447 -9.42958e-21)
(-0.161301 -0.201644 1.75057e-20)
(-0.16873 -0.193001 2.50369e-20)
(-0.174794 -0.181027 7.54989e-21)
(-0.179338 -0.165273 0)
(-0.182206 -0.145356 7.20195e-21)
(-0.183249 -0.121001 -1.96607e-20)
(-0.182311 -0.0920803 -1.20671e-20)
(-0.179207 -0.0586069 -1.12532e-20)
(-0.174006 -0.0206352 0)
(-0.16784 0.0215751 0)
(0.00158501 -0.0335161 -2.64943e-20)
(-0.00028754 -0.0832895 4.58141e-20)
(-0.00917814 -0.119943 -1.7063e-20)
(-0.0221436 -0.145704 -3.26772e-20)
(-0.0373433 -0.162998 4.62921e-20)
(-0.0536749 -0.174233 -2.91127e-20)
(-0.0703302 -0.18149 4.12215e-20)
(-0.0867501 -0.186337 2.5686e-20)
(-0.102595 -0.18979 0)
(-0.117681 -0.19236 -2.33338e-20)
(-0.13192 -0.194166 -1.32965e-22)
(-0.145269 -0.195049 2.06926e-20)
(-0.157697 -0.194686 2.87668e-20)
(-0.169164 -0.192663 3.63018e-20)
(-0.179605 -0.188532 -1.74717e-20)
(-0.188928 -0.181835 -4.85286e-20)
(-0.197012 -0.172128 1.44487e-20)
(-0.203708 -0.158994 -5.51839e-20)
(-0.208866 -0.142058 0)
(-0.212357 -0.121014 1.28861e-20)
(-0.214022 -0.0956478 1.20542e-20)
(-0.213512 -0.0658129 1.12409e-20)
(-0.210791 -0.0313284 0)
(-0.208274 0.00776559 0)
(0.00242749 -0.027597 0)
(0.00119823 -0.0695069 8.99733e-20)
(-0.00818381 -0.101202 -3.39964e-20)
(-0.0220949 -0.124024 3.24282e-20)
(-0.038327 -0.139814 -9.10187e-20)
(-0.0555997 -0.150553 0)
(-0.0730069 -0.157982 -5.41131e-20)
(-0.0899452 -0.16342 2.52344e-20)
(-0.106066 -0.167714 -4.76304e-20)
(-0.121194 -0.171275 2.19548e-20)
(-0.135258 -0.174178 1.26623e-19)
(-0.148234 -0.176265 -5.94007e-20)
(-0.160106 -0.177237 -9.32204e-20)
(-0.170853 -0.17672 -3.37827e-20)
(-0.180426 -0.174315 5.21269e-22)
(-0.188754 -0.169616 1.20756e-19)
(-0.195731 -0.162224 -5.63934e-20)
(-0.201226 -0.151759 2.03053e-21)
(-0.205102 -0.13786 0)
(-0.207249 -0.12019 -4.16513e-20)
(-0.207508 -0.0984361 0)
(-0.205367 -0.0723 -3.75917e-20)
(-0.200405 -0.0414784 1.32054e-19)
(-0.196196 -0.0060467 -1.89451e-21)
(0.00245457 -0.0208386 0)
(0.00116039 -0.0540737 -2.50289e-22)
(-0.00858851 -0.08057 3.36951e-20)
(-0.0228507 -0.100544 -3.18486e-20)
(-0.0392462 -0.115082 3.01421e-20)
(-0.0564132 -0.125626 1.70255e-19)
(-0.0733986 -0.133519 -5.34726e-20)
(-0.0895741 -0.1398 -5.0155e-20)
(-0.10458 -0.145142 9.46774e-20)
(-0.118239 -0.149864 -1.33224e-19)
(-0.130475 -0.154008 4.12667e-20)
(-0.141264 -0.157419 3.8428e-20)
(-0.150592 -0.159828 0)
(-0.15844 -0.160901 3.41625e-20)
(-0.164768 -0.160282 0)
(-0.169514 -0.157614 5.60169e-20)
(-0.172593 -0.152548 -1.03721e-19)
(-0.173888 -0.144748 2.78155e-20)
(-0.17326 -0.133885 8.87267e-20)
(-0.170594 -0.119624 4.16141e-20)
(-0.165768 -0.101586 0)
(-0.158255 -0.0793247 -9.53376e-20)
(-0.146987 -0.0523565 3.16456e-20)
(-0.135287 -0.0206814 0)
(0.00164939 -0.01377 0)
(-0.000400292 -0.0380642 -1.06606e-19)
(-0.0103427 -0.0593241 -3.39139e-20)
(-0.0243094 -0.0765624 -6.36087e-20)
(-0.0399571 -0.0900366 5.98999e-20)
(-0.0559431 -0.100597 -5.66459e-20)
(-0.0713207 -0.109157 1.06297e-19)
(-0.085459 -0.116467 4.99409e-20)
(-0.0979901 -0.123023 -1.40892e-19)
(-0.108724 -0.129057 8.73766e-20)
(-0.117572 -0.13458 -1.22794e-19)
(-0.1245 -0.139445 2.65082e-19)
(-0.129486 -0.143406 -1.42109e-19)
(-0.132509 -0.146164 6.45154e-20)
(-0.133539 -0.147399 1.77335e-19)
(-0.132528 -0.146791 -5.92061e-20)
(-0.129418 -0.144036 -5.22913e-20)
(-0.124126 -0.138845 -4.78616e-20)
(-0.116543 -0.130949 0)
(-0.106557 -0.120074 -6.96379e-20)
(-0.0941272 -0.105893 -5.70274e-20)
(-0.0790459 -0.0878764 8.85358e-20)
(-0.0598871 -0.0649719 9.50181e-20)
(-0.03658 -0.035826 -8.65006e-20)
(0.000105402 -0.00690909 0)
(-0.00328036 -0.0225181 -1.42255e-19)
(-0.0131806 -0.0386848 -4.40063e-22)
(-0.0261607 -0.0533004 1.26918e-19)
(-0.0401044 -0.0658143 0)
(-0.053781 -0.0764832 0)
(-0.0662997 -0.0857911 0)
(-0.0770484 -0.0941993 -4.9583e-20)
(-0.0856549 -0.102029 5.0374e-22)
(-0.091913 -0.109423 8.74999e-20)
(-0.0957163 -0.11636 -1.20932e-19)
(-0.0970129 -0.122694 7.59258e-22)
(-0.0957763 -0.128196 0)
(-0.0919895 -0.132591 -6.44877e-20)
(-0.0856385 -0.135582 5.56762e-20)
(-0.0767097 -0.136876 -1.60182e-19)
(-0.0651875 -0.136193 1.8914e-19)
(-0.0510488 -0.133284 3.48561e-20)
(-0.0342522 -0.127936 -9.21901e-21)
(-0.0147347 -0.119974 -1.37829e-19)
(0.00754028 -0.109238 -5.63333e-20)
(0.0326683 -0.0953845 1.69924e-19)
(0.0617943 -0.0771678 -1.07782e-19)
(0.098692 -0.0515851 0)
(-0.00198641 -0.000719249 6.90095e-20)
(-0.00709188 -0.00837472 7.11284e-20)
(-0.0166263 -0.0197678 -6.79341e-20)
(-0.0278699 -0.0318811 -1.27884e-19)
(-0.0390825 -0.0434573 1.20424e-19)
(-0.0492172 -0.0542051 -1.13435e-19)
(-0.0574782 -0.0642012 1.6027e-19)
(-0.0632873 -0.0736289 -4.93274e-20)
(-0.066269 -0.0826353 9.3811e-20)
(-0.0661966 -0.091267 0)
(-0.0629405 -0.0994599 7.97306e-20)
(-0.0564332 -0.107056 -1.51012e-19)
(-0.046648 -0.113829 1.36239e-19)
(-0.0335885 -0.119513 -1.27961e-19)
(-0.0172839 -0.123823 0)
(0.00221267 -0.126474 1.03996e-19)
(0.0248269 -0.127203 1.80063e-19)
(0.0504695 -0.125781 -1.69921e-19)
(0.0790478 -0.122032 -7.19211e-20)
(0.110478 -0.115852 -5.91397e-20)
(0.14465 -0.107231 1.70544e-19)
(0.181646 -0.096172 4.0352e-20)
(0.220587 -0.082359 -4.22835e-20)
(0.274527 -0.0620275 3.20956e-20)
(-0.00435921 0.00442388 -6.90188e-20)
(-0.0112959 0.00357024 2.17101e-19)
(-0.0200297 -0.0035472 -6.82698e-20)
(-0.0287098 -0.0133115 1.29029e-19)
(-0.0360668 -0.0239228 -1.215e-19)
(-0.0412789 -0.0346248 7.00195e-22)
(-0.0436726 -0.0451259 5.40416e-20)
(-0.0427132 -0.0553514 2.01679e-19)
(-0.038022 -0.065274 -1.45734e-21)
(-0.0293525 -0.0748344 -8.81635e-20)
(-0.0165591 -0.0839094 0)
(0.000423357 -0.0923101 -7.34743e-20)
(0.0215892 -0.0997961 1.39471e-19)
(0.0468653 -0.106094 1.23707e-19)
(0.0761133 -0.110916 -5.91423e-20)
(0.109132 -0.113983 -3.215e-22)
(0.145664 -0.115044 -4.61392e-20)
(0.185409 -0.113892 8.08644e-20)
(0.228039 -0.110386 7.18948e-20)
(0.273239 -0.104458 -6.25566e-20)
(0.320456 -0.0962119 5.30294e-20)
(0.370789 -0.0854483 -4.52108e-20)
(0.417012 -0.073649 0)
(0.490307 -0.0554636 -3.20381e-20)
(-0.00671891 0.00826856 7.0555e-20)
(-0.0152712 0.0127377 -7.26184e-20)
(-0.0226148 0.00921074 6.96637e-20)
(-0.0278082 0.00155502 0)
(-0.0300782 -0.00807465 0)
(-0.0288378 -0.0185542 1.16856e-19)
(-0.0235373 -0.0292983 -1.08727e-19)
(-0.0137136 -0.0399905 1.01482e-19)
(0.000999768 -0.0504317 -4.74945e-19)
(0.0208405 -0.0604495 9.0725e-22)
(0.0459229 -0.0698467 8.21246e-20)
(0.0762381 -0.0783876 0)
(0.11165 -0.0858037 -1.36293e-19)
(0.151894 -0.0918086 2.51766e-19)
(0.196578 -0.0961179 -1.73238e-19)
(0.245197 -0.098471 -2.50934e-19)
(0.297153 -0.0986527 1.02376e-20)
(0.351787 -0.0965127 1.66112e-19)
(0.408397 -0.0919883 0)
(0.46643 -0.0850403 0)
(0.524405 -0.0761065 -5.30152e-20)
(0.585645 -0.0641751 4.51985e-20)
(0.63488 -0.0529377 -1.45926e-19)
(0.72041 -0.0340451 1.36948e-19)
(-0.00877895 0.0107135 0)
(-0.0183899 0.0188085 0)
(-0.0235766 0.0179921 -2.1016e-19)
(-0.0242265 0.0120769 6.6638e-20)
(-0.020032 0.00338634 1.03512e-22)
(-0.0106594 -0.00671206 1.1857e-19)
(0.00430917 -0.0173893 0)
(0.0252619 -0.0281185 -1.03264e-19)
(0.0524766 -0.0385526 9.54277e-20)
(0.0860927 -0.0484033 -1.77529e-19)
(0.126071 -0.0573919 1.36731e-21)
(0.172168 -0.0652325 1.49902e-19)
(0.223928 -0.0716351 -3.98203e-21)
(0.280678 -0.0763203 1.19635e-19)
(0.341559 -0.0790401 -1.75867e-19)
(0.405557 -0.079601 0)
(0.471565 -0.0778829 1.7722e-19)
(0.538446 -0.0738532 -2.46965e-19)
(0.605057 -0.0675974 7.08931e-20)
(0.670607 -0.0591459 0)
(0.733038 -0.0492858 5.38568e-20)
(0.79641 -0.0365487 1.77138e-19)
(0.843937 -0.0257522 -1.6624e-19)
(0.924613 -0.00691035 -1.68406e-19)
(-0.0103013 0.0117998 2.19506e-19)
(-0.0200592 0.0217339 -3.02826e-19)
(-0.0220964 0.022604 6.48829e-23)
(-0.0169781 0.0179387 6.77237e-20)
(-0.00479824 0.0100718 -1.27135e-19)
(0.0145517 0.000521443 -1.17875e-19)
(0.0413035 -0.00970372 2.21478e-19)
(0.075684 -0.0199305 -2.49921e-21)
(0.117779 -0.0296725 -1.94327e-19)
(0.167456 -0.0385377 3.57492e-19)
(0.224294 -0.046183 -3.54084e-21)
(0.287558 -0.0522994 -1.542e-19)
(0.35619 -0.0566174 0)
(0.428853 -0.0589237 0)
(0.503998 -0.0590795 -5.71294e-20)
(0.579961 -0.0570377 -1.02307e-19)
(0.655076 -0.0528504 -1.77401e-19)
(0.727774 -0.046673 1.66523e-19)
(0.796669 -0.0387569 -7.09145e-20)
(0.860737 -0.0293647 1.20121e-19)
(0.918638 -0.0191698 -6.20162e-20)
(0.97232 -0.00743868 8.39347e-20)
(1.01231 0.00218258 -2.12478e-19)
(1.06995 0.0177014 3.48039e-20)
(-0.011107 0.0116893 7.42378e-20)
(-0.0197308 0.0217393 0)
(-0.0173139 0.0232265 1.45072e-19)
(-0.00493124 0.0192722 -1.36665e-19)
(0.0169891 0.012116 1.27243e-19)
(0.0483222 0.00334178 0)
(0.0890517 -0.00593915 0)
(0.13909 -0.0149396 -1.04067e-19)
(0.198108 -0.0230763 2.40743e-21)
(0.265412 -0.0298984 9.18043e-20)
(0.339874 -0.0350544 -8.15233e-20)
(0.419928 -0.0382858 1.54673e-19)
(0.503629 -0.0394346 0)
(0.588775 -0.0384531 2.48105e-19)
(0.673065 -0.0354098 -4.56005e-19)
(0.754276 -0.0304853 3.11775e-19)
(0.830419 -0.0239554 1.77146e-19)
(0.899866 -0.0161807 -1.66292e-19)
(0.961462 -0.00752832 0)
(1.01446 0.00150297 0)
(1.0588 0.0106891 0)
(1.09469 0.0194944 0)
(1.12143 0.0272194 4.16041e-20)
(1.14957 0.0370438 -1.44795e-19)
(-0.161329 0.0739451 -7.26398e-21)
(-0.148135 0.141887 7.28468e-21)
(-0.132136 0.214779 -1.95809e-22)
(-0.113664 0.289502 0)
(-0.0933303 0.362784 -5.60455e-21)
(-0.0718 0.431266 1.04943e-20)
(-0.0497455 0.491113 -3.96744e-22)
(-0.0272946 0.538974 -4.38279e-21)
(-0.00304588 0.571182 0)
(0.0258603 0.583421 0)
(0.0634469 0.57015 -2.07585e-22)
(0.113442 0.52558 -2.09636e-22)
(0.177017 0.446692 -3.66462e-21)
(0.251368 0.334844 3.35016e-21)
(0.330767 0.195868 0)
(0.410111 0.0376494 0)
(0.486522 -0.130253 3.24262e-21)
(0.557129 -0.290432 -3.33611e-22)
(0.617411 -0.421141 -2.57342e-21)
(0.662768 -0.506671 -1.30338e-22)
(0.690858 -0.546624 0)
(0.702768 -0.551994 0)
(0.703234 -0.536461 0)
(0.693863 -0.516797 0)
(0.66911 -0.510912 0)
(0.626947 -0.518008 0)
(0.581784 -0.504268 4.44848e-22)
(0.559224 -0.422176 -6.88858e-22)
(0.573356 -0.257246 0)
(0.617626 -0.0446548 0)
(0.675289 0.158514 -5.872e-22)
(0.730206 0.310913 5.70678e-22)
(0.77254 0.401063 1.98159e-22)
(0.801245 0.436681 0)
(0.816995 0.444779 0)
(0.810871 0.455129 2.49933e-22)
(0.777841 0.479606 -2.42955e-22)
(0.732716 0.471675 0)
(0.701875 0.387329 3.47698e-22)
(0.703471 0.210902 -5.28464e-22)
(0.72963 0.00371302 1.87421e-22)
(0.768406 -0.177045 0)
(0.808681 -0.295203 -2.23185e-22)
(0.834983 -0.349356 2.1702e-22)
(0.834824 -0.390251 0)
(0.796371 -0.397839 0)
(0.749271 -0.392357 -7.27963e-23)
(0.722977 -0.274973 2.1038e-22)
(0.734268 -0.124526 0)
(0.773228 0.0521099 0)
(0.812601 0.196841 -5.48377e-23)
(0.815141 0.271119 3.46155e-24)
(0.79531 0.38112 -4.27407e-24)
(0.766662 0.319441 3.98506e-23)
(0.767923 0.289341 0)
(0.790695 0.109554 0)
(0.807595 -0.0669748 0)
(0.797447 -0.147472 0)
(0.801432 -0.379352 0)
(0.78388 -0.222636 0)
(-0.209904 0.0568599 -5.8521e-22)
(-0.199841 0.121084 -2.4028e-20)
(-0.186282 0.190443 1.06453e-21)
(-0.168483 0.262254 2.15797e-20)
(-0.146326 0.333559 2.80264e-22)
(-0.119841 0.400732 0)
(-0.0890352 0.460006 -1.58057e-20)
(-0.0533961 0.506338 3.04346e-20)
(-0.0114201 0.535458 -1.46346e-20)
(0.0391051 0.542634 1.36914e-20)
(0.100036 0.522622 -1.3099e-20)
(0.17203 0.471196 1.41542e-20)
(0.253371 0.387448 -1.37603e-20)
(0.339596 0.2743 -4.88936e-22)
(0.42535 0.137287 -1.59145e-20)
(0.506547 -0.0174536 1.54645e-20)
(0.581793 -0.18112 -1.41317e-20)
(0.648242 -0.335622 1.33122e-20)
(0.699923 -0.457651 -1.00826e-20)
(0.732768 -0.531628 1.7503e-20)
(0.746863 -0.559332 -7.51643e-21)
(0.745141 -0.554781 -3.21911e-22)
(0.733342 -0.532339 -3.85536e-21)
(0.715343 -0.505492 7.17504e-21)
(0.686483 -0.490445 -3.33176e-21)
(0.640758 -0.491454 1.92531e-22)
(0.587015 -0.482406 4.04482e-21)
(0.550031 -0.416519 7.98692e-22)
(0.549769 -0.270754 -9.16987e-21)
(0.584937 -0.0713967 9.41825e-21)
(0.639707 0.12752 -4.59741e-21)
(0.696833 0.28388 4.45584e-22)
(0.745576 0.381382 -1.98576e-22)
(0.783142 0.424702 2.95664e-22)
(0.806366 0.441726 0)
(0.805139 0.462323 0)
(0.776121 0.49424 -1.12173e-21)
(0.737939 0.486165 7.86446e-22)
(0.715113 0.394332 1.15982e-21)
(0.723686 0.208191 3.11083e-22)
(0.752761 -0.00640973 -1.74709e-21)
(0.789841 -0.189742 3.4981e-22)
(0.824836 -0.306022 0)
(0.845838 -0.353291 0)
(0.84374 -0.384537 0)
(0.802781 -0.385263 0)
(0.754153 -0.381537 2.43147e-22)
(0.723026 -0.272684 -1.39709e-22)
(0.733137 -0.131903 0)
(0.770188 0.0415356 0)
(0.808606 0.190876 0)
(0.811044 0.272911 -8.61522e-23)
(0.789999 0.386653 6.13443e-24)
(0.763936 0.322516 -8.06279e-23)
(0.764736 0.28668 0)
(0.79294 0.105605 0)
(0.812659 -0.0682756 6.72794e-23)
(0.803188 -0.146479 1.9399e-22)
(0.808153 -0.377878 0)
(0.787822 -0.22167 0)
(-0.200832 0.0385889 -1.15059e-21)
(-0.193759 0.097752 -4.08735e-20)
(-0.182088 0.162414 3.73771e-20)
(-0.164628 0.229574 -3.50373e-20)
(-0.140567 0.296996 -2.82212e-22)
(-0.109251 0.361199 0)
(-0.0709644 0.416435 -2.82602e-20)
(-0.025028 0.458896 2.76327e-20)
(0.0307585 0.484263 2.1321e-22)
(0.0969307 0.487249 4.00225e-22)
(0.173084 0.463072 4.21236e-22)
(0.257881 0.408893 4.42486e-22)
(0.348126 0.325119 -3.1935e-20)
(0.43901 0.215296 3.15232e-20)
(0.525851 0.0841077 0)
(0.606089 -0.0642867 1.04512e-21)
(0.678843 -0.221313 -2.98491e-20)
(0.739994 -0.368401 2.94243e-20)
(0.782309 -0.481067 0)
(0.802158 -0.544576 0)
(0.802306 -0.562478 -1.27046e-20)
(0.787964 -0.550668 2.20258e-20)
(0.765189 -0.524034 -1.67616e-20)
(0.739102 -0.492756 1.09328e-21)
(0.706832 -0.469862 1.21054e-20)
(0.659631 -0.463752 -1.20708e-20)
(0.600147 -0.457415 1.21806e-20)
(0.550379 -0.407324 6.74688e-22)
(0.535162 -0.282715 -7.31523e-21)
(0.559287 -0.0990842 0)
(0.609238 0.0938742 0)
(0.667206 0.252963 2.25308e-21)
(0.721504 0.35739 -3.00225e-21)
(0.767191 0.409008 -2.56334e-23)
(0.797357 0.43599 2.06281e-21)
(0.801214 0.467331 -2.00472e-21)
(0.777009 0.506713 0)
(0.746255 0.498988 3.05207e-22)
(0.731281 0.400853 3.66334e-21)
(0.746493 0.206806 -7.55368e-21)
(0.778477 -0.0138925 3.36629e-21)
(0.813778 -0.19926 3.95044e-22)
(0.84322 -0.314243 -2.55333e-21)
(0.858469 -0.355793 1.92585e-21)
(0.854387 -0.378279 3.13586e-22)
(0.811347 -0.372402 2.47618e-22)
(0.761757 -0.37058 -2.43755e-22)
(0.72604 -0.270691 0)
(0.734724 -0.139724 0)
(0.769291 0.0304534 -7.93629e-22)
(0.806433 0.184674 3.94518e-22)
(0.808681 0.274385 -3.40756e-22)
(0.786326 0.392051 5.14876e-22)
(0.7627 0.325647 7.21892e-22)
(0.762942 0.283729 -1.581e-22)
(0.796573 0.101291 3.52362e-22)
(0.819122 -0.0698076 -3.16451e-22)
(0.810125 -0.14539 1.68415e-22)
(0.815712 -0.37615 0)
(0.792512 -0.220572 0)
(-0.137449 0.0201002 -6.85691e-20)
(-0.132628 0.0736428 3.44474e-21)
(-0.122101 0.133073 6.15286e-20)
(-0.104966 0.194096 -4.97108e-22)
(-0.0791418 0.255479 0)
(-0.0460626 0.313236 0)
(-0.00427405 0.363031 -4.90978e-20)
(0.0485614 0.401589 -1.69173e-21)
(0.112278 0.423619 7.2741e-20)
(0.186308 0.423733 1.75387e-21)
(0.269298 0.398017 -2.61974e-20)
(0.358783 0.344621 -2.98728e-20)
(0.450937 0.264576 2.99053e-20)
(0.541152 0.16137 0)
(0.625792 0.0382959 -3.47125e-20)
(0.70377 -0.102095 3.16067e-20)
(0.773931 -0.251965 0)
(0.829917 -0.391035 0)
(0.862852 -0.494102 2.13812e-20)
(0.869875 -0.547962 -4.23768e-21)
(0.856512 -0.557984 -1.56291e-20)
(0.830581 -0.540916 -9.8319e-21)
(0.798278 -0.511977 9.73554e-21)
(0.764712 -0.478916 -6.32635e-21)
(0.729218 -0.450257 7.26986e-22)
(0.682366 -0.436089 5.24503e-21)
(0.620636 -0.429176 6.47556e-22)
(0.560609 -0.393049 7.90994e-23)
(0.530219 -0.291159 0)
(0.541422 -0.126223 6.82125e-21)
(0.58448 0.0584937 -7.0002e-21)
(0.641752 0.218718 3.9169e-22)
(0.700493 0.329435 0)
(0.753307 0.389727 -2.73432e-22)
(0.789808 0.4273 3.99539e-21)
(0.798925 0.469522 -7.63891e-21)
(0.780157 0.516392 -1.3256e-21)
(0.757007 0.509893 -1.18903e-21)
(0.749747 0.407229 4.96152e-21)
(0.771207 0.206956 8.9276e-22)
(0.806077 -0.0187417 -6.77524e-21)
(0.839761 -0.205714 5.83345e-21)
(0.863635 -0.319994 -2.32823e-23)
(0.872744 -0.357071 1.5072e-21)
(0.86651 -0.371757 -1.77991e-21)
(0.821714 -0.359425 -1.64261e-21)
(0.771692 -0.359363 4.92076e-22)
(0.731693 -0.26872 8.02894e-22)
(0.738736 -0.147786 -1.53887e-21)
(0.770361 0.0189416 1.12641e-21)
(0.805998 0.178211 -3.58762e-22)
(0.808047 0.275486 3.22194e-22)
(0.784389 0.39732 3.17322e-22)
(0.763128 0.328897 -1.12726e-21)
(0.762706 0.28057 -2.28806e-24)
(0.801617 0.0966112 -4.22292e-22)
(0.826935 -0.0715557 0)
(0.818247 -0.14418 -1.62027e-22)
(0.824079 -0.374143 2.61541e-22)
(0.797904 -0.219327 0)
(-0.0318529 0.00277052 5.60819e-20)
(-0.028263 0.0495255 -1.06863e-19)
(-0.0192854 0.100774 5.02936e-20)
(-0.00402273 0.154796 4.5542e-20)
(0.021066 0.20923 -8.79871e-20)
(0.0548619 0.260314 1.69473e-23)
(0.0986128 0.305698 4.16423e-20)
(0.153163 0.340321 4.43156e-20)
(0.218473 0.359205 -4.34345e-20)
(0.29363 0.357826 0)
(0.376735 0.332883 -5.64748e-20)
(0.464864 0.282928 1.16431e-19)
(0.554177 0.209 -5.98309e-20)
(0.640543 0.114042 0)
(0.721638 1.82698e-05 0)
(0.797411 -0.131858 1.07651e-21)
(0.865312 -0.273542 -6.19734e-20)
(0.915938 -0.40321 6.01977e-20)
(0.939129 -0.495992 0)
(0.933664 -0.541103 3.46454e-20)
(0.9078 -0.54566 -5.78144e-20)
(0.871722 -0.525936 4.36092e-20)
(0.831795 -0.496506 -3.36047e-20)
(0.791979 -0.463824 2.572e-21)
(0.753292 -0.432211 2.13448e-20)
(0.707724 -0.410611 -9.74435e-21)
(0.647022 -0.40002 -2.96536e-22)
(0.580385 -0.374149 -4.56978e-21)
(0.535599 -0.294572 -6.23148e-22)
(0.532125 -0.15113 5.22135e-21)
(0.566097 0.0224244 3.76678e-22)
(0.620911 0.181669 -4.55716e-21)
(0.682632 0.297763 8.40306e-21)
(0.7413 0.366769 -4.29025e-21)
(0.783438 0.4152 0)
(0.79795 0.46826 -4.68985e-21)
(0.785103 0.522829 4.63069e-21)
(0.769575 0.518781 -5.49386e-21)
(0.769769 0.413732 6.82409e-21)
(0.797028 0.208754 -9.73791e-22)
(0.834944 -0.0209382 0)
(0.867312 -0.209052 -8.21404e-22)
(0.885755 -0.323099 1.84475e-21)
(0.888449 -0.357007 0)
(0.879902 -0.365014 2.82402e-21)
(0.833608 -0.346479 -1.21563e-21)
(0.783545 -0.347946 4.05523e-22)
(0.739579 -0.266652 3.26104e-22)
(0.744803 -0.155916 0)
(0.773176 0.00706519 0)
(0.807166 0.171425 -9.3146e-22)
(0.809109 0.276127 1.53011e-21)
(0.784269 0.402437 -9.65205e-22)
(0.765378 0.332322 3.48827e-22)
(0.764168 0.277262 8.03659e-22)
(0.808081 0.0915754 4.22694e-22)
(0.83605 -0.073505 -7.69779e-22)
(0.827529 -0.14281 0)
(0.833211 -0.371799 -4.07815e-22)
(0.803946 -0.217916 -3.44811e-23)
(0.104288 -0.0171565 5.01321e-20)
(0.102968 0.0234996 -4.969e-20)
(0.109977 0.0673652 3.64519e-22)
(0.124027 0.11483 -2.86214e-22)
(0.146825 0.162836 3.1729e-22)
(0.178828 0.208703 -3.09157e-22)
(0.220718 0.248972 5.47398e-22)
(0.272981 0.279434 0)
(0.335506 0.295811 -6.3356e-22)
(0.40724 0.294184 7.0386e-22)
(0.486155 0.271595 7.85841e-22)
(0.569398 0.226588 -9.10076e-22)
(0.653561 0.159782 0)
(0.735223 0.0731935 0)
(0.81313 -0.0319288 1.04463e-21)
(0.887199 -0.155091 0)
(0.952425 -0.287204 -9.78751e-22)
(0.996504 -0.405805 0)
(1.00923 -0.487872 -4.16668e-20)
(0.991916 -0.52547 7.42761e-20)
(0.955204 -0.526886 -5.71612e-20)
(0.910712 -0.50693 2.47049e-20)
(0.864979 -0.478512 1.43999e-20)
(0.820394 -0.447527 -1.39848e-20)
(0.778538 -0.415477 -9.22197e-21)
(0.73431 -0.388223 8.91735e-21)
(0.677275 -0.371839 0)
(0.608459 -0.351502 1.93808e-22)
(0.551574 -0.292038 0)
(0.532253 -0.172097 0)
(0.554793 -0.0128439 7.83917e-21)
(0.60507 0.14254 -8.06198e-21)
(0.667935 0.262675 3.81156e-22)
(0.730928 0.340078 4.33294e-22)
(0.777945 0.399313 -3.85786e-22)
(0.797898 0.463005 -4.07227e-21)
(0.79125 0.525622 3.95424e-21)
(0.783262 0.525616 -6.97935e-21)
(0.790578 0.420287 6.10978e-21)
(0.823245 0.212577 1.98291e-21)
(0.864349 -0.0203964 -7.40089e-21)
(0.895871 -0.209318 3.25306e-22)
(0.909221 -0.323514 4.56341e-21)
(0.905325 -0.355572 0)
(0.894303 -0.358137 -1.23728e-21)
(0.846734 -0.333675 1.15779e-21)
(0.796871 -0.336301 -1.56599e-21)
(0.749242 -0.264351 -3.28168e-22)
(0.752495 -0.163942 0)
(0.77745 -0.00515211 2.9251e-22)