/*--------------------------------*- C++ -*----------------------------------*\
| =========                 |                                                 |
| \\      /  F ield         | OpenFOAM: The Open Source CFD Toolbox           |
|  \\    /   O peration     | Version:  2512                                  |
|   \\  /    A nd           | Website:  www.openfoam.com                      |
|    \\/     M anipulation  |                                                 |
\*---------------------------------------------------------------------------*/
FoamFile
{
    version     2.0;
    format      ascii;
    arch        "LSB;label=32;scalar=64";
    class       surfaceScalarField;
    location    "40";
    object      phi;
}
// * * * * * * * * * * * * * * * * * * * * * * * * * * * * * * * * * * * * * //

dimensions      [0 3 -1 0 0 0 0];

oriented        oriented;

internalField   nonuniform List<scalar> 
26232
(
5.82406e-05
0.00096299
-0.00102123
0.000375797
0.00190484
-0.0022224
0.00108464
0.00200656
-0.00271541
0.00231275
0.00132181
-0.00254992
0.00419007
-0.000115074
-0.00176225
0.00684984
-0.0022845
-0.000375266
0.0104234
-0.00517356
0.00159998
0.0150325
-0.00876961
0.00416049
0.0207769
-0.0130494
0.0073051
0.0277201
-0.0179708
0.0110275
0.0358767
-0.0234664
0.0153098
0.0452018
-0.0294423
0.0201173
0.0555867
-0.0357802
0.0253953
0.0668613
-0.0423438
0.0310691
0.0788034
-0.0489881
0.037046
0.0911531
-0.0555697
0.04322
0.103633
-0.061957
0.0494776
0.115967
-0.06804
0.0557057
0.127905
-0.0737339
0.0617958
0.13924
-0.0789974
0.0676618
0.149809
-0.0837872
0.0732186
0.15953
-0.0881907
0.07847
0.168278
-0.092044
0.0832961
-0.0958469
0.0883295
0.175795
9.51408e-05
0.000867849
0.000556273
0.00144371
0.00154553
0.0010173
0.00321831
-0.000350966
0.00572849
-0.00262525
0.00922342
-0.00577943
0.013834
-0.00978419
0.0196583
-0.0145939
0.0267434
-0.0201345
0.0350698
-0.0262972
0.0445417
-0.0329383
0.0549863
-0.039887
0.0661637
-0.0469575
0.0777851
-0.0539653
0.0895388
-0.0607418
0.101117
-0.0671484
0.112246
-0.0730858
0.122706
-0.0784995
0.132351
-0.0833792
0.141112
-0.0877579
0.149013
-0.0916883
0.156116
-0.0952942
0.162608
-0.0985359
-0.101902
0.168663
0.000149297
0.000718553
0.000800024
0.000792983
0.00214252
-0.000325193
0.00435605
-0.00256449
0.00760829
-0.00587749
0.0120425
-0.0102136
0.0177575
-0.0154992
0.024785
-0.0216214
0.0330709
-0.0284204
0.0424667
-0.035693
0.052735
-0.0432066
0.0635692
-0.0507212
0.0746248
-0.0580131
0.0855555
-0.0648959
0.0960499
-0.0712362
0.105863
-0.076961
0.114835
-0.082058
0.122904
-0.0865683
0.130098
-0.0905732
0.13652
-0.0941804
0.142332
-0.0975003
0.147698
-0.10066
0.152838
-0.103676
-0.106893
0.157829
0.000223762
0.000494791
0.00111504
-9.82914e-05
0.00288544
-0.0020956
0.0057268
-0.00540586
0.00980028
-0.00995096
0.015212
-0.0156254
0.0219847
-0.0222719
0.0300352
-0.0296719
0.039167
-0.0375521
0.0490828
-0.0456088
0.0594173
-0.0535411
0.0697818
-0.0610857
0.0798124
-0.0680438
0.0892134
-0.0742969
0.097786
-0.0798088
0.105442
-0.0846171
0.112199
-0.0888148
0.118159
-0.0925288
0.123483
-0.0958967
0.128351
-0.0990489
0.132943
-0.102092
0.137401
-0.105119
0.141864
-0.108139
-0.111378
0.146349
0.000319155
0.000175636
0.0014999
-0.00127903
0.00376212
-0.00435783
0.00728972
-0.00893345
0.0122049
-0.0148662
0.0185329
-0.0219533
0.0261728
-0.0299118
0.0348896
-0.0383887
0.044334
-0.0469966
0.054089
-0.0553638
0.0637298
-0.0631819
0.0728842
-0.0702401
0.0812791
-0.0764387
0.0887651
-0.0817829
0.0953174
-0.0863611
0.101016
-0.0903152
0.10601
-0.0938088
0.110481
-0.0970003
0.11461
-0.100025
0.118548
-0.102988
0.122415
-0.105958
0.126284
-0.108987
0.130218
-0.112074
-0.115362
0.134203
0.000433979
-0.000258343
0.00194448
-0.00278953
0.00473947
-0.00715281
0.00896447
-0.0131585
0.0146608
-0.0205625
0.0217266
-0.0290191
0.0299027
-0.0380879
0.0387977
-0.0472837
0.047948
-0.0561469
0.0568949
-0.0643107
0.0652574
-0.0715443
0.0727812
-0.0777639
0.0793574
-0.0830148
0.0850092
-0.0874347
0.089858
-0.0912099
0.0940786
-0.0945358
0.0978571
-0.0975873
0.10136
-0.100504
0.10472
-0.103385
0.108028
-0.106296
0.111346
-0.109276
0.114705
-0.112347
0.118141
-0.11551
-0.118842
0.121621
0.000564898
-0.000823241
0.00243064
-0.00465528
0.00576541
-0.0104876
0.0106378
-0.0180308
0.0169639
-0.0268886
0.0244801
-0.0365353
0.0327658
-0.0463736
0.0413145
-0.0558324
0.0496296
-0.064462
0.0573117
-0.0719928
0.0641127
-0.0783453
0.069948
-0.0835992
0.0748715
-0.0879384
0.0790295
-0.0915927
0.0826088
-0.0947892
0.0857936
-0.0977206
0.088739
-0.100533
0.0915606
-0.103325
0.0943366
-0.106161
0.0971161
-0.109075
0.0999283
-0.112088
0.102789
-0.115207
0.105712
-0.118433
-0.121802
0.108671
0.000706774
-0.00153002
0.00293288
-0.00688138
0.00677238
-0.0143271
0.0121754
-0.0234338
0.018897
-0.0336103
0.0265054
-0.0441436
0.034456
-0.0543243
0.0422065
-0.0635829
0.0493226
-0.0715781
0.0555424
-0.0782126
0.060786
-0.0835889
0.0651215
-0.0879347
0.0687084
-0.0915253
0.0717398
-0.0946241
0.0743982
-0.0974476
0.0768316
-0.100154
0.0791462
-0.102847
0.0814121
-0.105591
0.0836718
-0.10842
0.0859501
-0.111354
0.0882608
-0.114399
0.0906107
-0.117557
0.0930062
-0.120829
-0.124222
0.095426
0.000852469
-0.00238249
0.00341934
-0.00944825
0.00768314
-0.0185909
0.0134391
-0.0291898
0.0202677
-0.0404389
0.0275976
-0.0514735
0.0348324
-0.0615591
0.0414828
-0.0702332
0.0472477
-0.077343
0.0520295
-0.0829944
0.0558942
-0.0874536
0.0590058
-0.0910462
0.0615617
-0.0940812
0.0637458
-0.0968082
0.0657039
-0.0994057
0.0675384
-0.101988
0.069315
-0.104624
0.0710727
-0.107349
0.0728337
-0.110181
0.0746103
-0.11313
0.0764089
-0.116197
0.0782329
-0.119381
0.0800837
-0.122679
-0.126085
0.0819474
0.000992914
-0.0033754
0.00385414
-0.0123095
0.00841967
-0.0231564
0.0143084
-0.0350785
0.0209421
-0.0470726
0.0276698
-0.0582013
0.0339261
-0.0678154
0.039342
-0.0756491
0.0437753
-0.0817764
0.0472716
-0.0864907
0.0499908
-0.0901727
0.0521334
-0.0931889
0.0538879
-0.0958358
0.055403
-0.0983233
0.0567819
-0.100785
0.0580896
-0.103296
0.0593637
-0.105898
0.0606253
-0.10861
0.0618859
-0.111442
0.0631522
-0.114396
0.0644273
-0.117472
0.0657126
-0.120667
0.0670069
-0.123974
-0.127381
0.0683024
0.00111827
-0.00449367
0.00420236
-0.0153936
0.00891519
-0.0278692
0.0147
-0.0408633
0.0208642
-0.0532368
0.0267522
-0.0640893
0.0318966
-0.0729599
0.0360791
-0.0798315
0.039301
-0.0849983
0.0417057
-0.0888954
0.0434943
-0.0919613
0.0448621
-0.0945568
0.0459657
-0.0969393
0.0469135
-0.0992711
0.0477733
-0.101644
0.0485838
-0.104107
0.0493659
-0.10668
0.0501311
-0.109376
0.0508859
-0.112197
0.0516341
-0.115145
0.0523775
-0.118216
0.0531159
-0.121405
0.0538466
-0.124705
-0.128099
0.0545652
0.00122166
-0.00571533
0.00443766
-0.0186096
0.00912539
-0.032557
0.0145789
-0.0463168
0.0200555
-0.0587134
0.0249639
-0.0689976
0.0289726
-0.0769686
0.0320074
-0.0828664
0.0341759
-0.0871667
0.0356717
-0.0903913
0.036698
-0.0929876
0.0374229
-0.0952817
0.0379652
-0.0974815
0.038399
-0.0997049
0.0387664
-0.102012
0.0390896
-0.10443
0.0393803
-0.106971
0.039645
-0.10964
0.039888
-0.11244
0.0401119
-0.115368
0.0403177
-0.118421
0.0405051
-0.121592
0.040671
-0.12487
0.0408145
-0.128243
-0.000205666
0.000235061
-2.93951e-05
-0.000718092
0.000509678
2.74754e-06
-0.0014716
0.000653261
0.000100245
-0.00241603
0.000702182
0.000242254
-0.00351233
0.000683896
0.000412397
-0.00473032
0.000618104
0.000599891
-0.00604702
0.000517412
0.000799287
-0.00744499
0.000388375
0.00100959
-0.00891094
0.000232875
0.00123308
-0.0104344
4.95204e-05
0.00147398
-0.0120071
-0.000164632
0.00173726
-0.0136211
-0.00041383
0.00202782
-0.0152688
-0.000701972
0.00234975
-0.0169424
-0.0010325
0.00270604
-0.0186329
-0.00140785
0.00309835
-0.0203309
-0.00182883
0.00352688
-0.0220268
-0.00229431
0.00399022
-0.0237117
-0.00280028
0.00448517
-0.0253794
-0.00333898
0.00500665
-0.0270287
-0.00389834
0.00554768
-0.0286666
-0.0044618
0.00609964
-0.0303108
-0.00500802
0.0066522
-0.0319963
-0.00550725
0.00719282
-0.00592584
-0.0337798
0.00770928
-0.000200463
0.000435524
-0.00070158
0.00101079
-0.00143965
0.00139133
-0.00236526
0.00162779
-0.00343942
0.00175806
-0.00463172
0.0018104
-0.00591877
0.00180446
-0.00728279
0.00175239
-0.00871023
0.00166032
-0.0101907
0.00152997
-0.0117154
0.0013601
-0.0132768
0.00114759
-0.0148673
0.000888481
-0.0164785
0.000578688
-0.0181006
0.000214303
-0.0197232
-0.000206275
-0.0213334
-0.000684076
-0.0229178
-0.0012159
-0.0244638
-0.00179299
-0.0259614
-0.00240074
-0.0274076
-0.0030156
-0.0288103
-0.00360526
-0.0301953
-0.00412233
-0.00449691
-0.0316242
-0.00018406
0.000619584
-0.000647374
0.00147411
-0.00133162
0.00207557
-0.00218991
0.00248609
-0.00318409
0.00275224
-0.00428348
0.00290979
-0.00546379
0.00298478
-0.00670594
0.00299454
-0.00799493
0.00294931
-0.00931871
0.00285375
-0.0106671
0.0027085
-0.0120309
0.00251137
-0.0134008
0.0022584
-0.0147668
0.00194463
-0.0161173
0.00156482
-0.0174379
0.00111436
-0.0187119
0.00058995
-0.0199175
-1.02753e-05
-0.0210343
-0.000676193
-0.0220356
-0.00139946
-0.0228991
-0.00215212
-0.0236114
-0.00289294
-0.0241729
-0.00356087
-0.00402328
-0.0246465
-0.000158324
0.000777908
-0.000561029
0.00187681
-0.00115753
0.00267207
-0.0019046
0.00323316
-0.00276529
0.00361293
-0.00370846
0.00385296
-0.00470815
0.00398447
-0.00574286
0.00402925
-0.00679458
0.00400103
-0.00784788
0.00390705
-0.00888897
0.00374959
-0.0099048
0.0035272
-0.0108822
0.00323579
-0.0118071
0.0028695
-0.0126636
0.0024214
-0.0134335
0.00188417
-0.0140944
0.00125084
-0.0146204
0.000515745
-0.014977
-0.000319598
-0.0151262
-0.00125028
-0.0150218
-0.0022565
-0.0146244
-0.00329028
-0.0139119
-0.00427341
-0.00511702
-0.0128182
-0.000126339
0.000904247
-0.000451803
0.00220228
-0.000934217
0.00315449
-0.00153421
0.00383315
-0.00221583
0.00429455
-0.0029469
0.00458402
-0.00369887
0.00473644
-0.00444638
0.00477676
-0.00516658
0.00472123
-0.00583839
0.00457886
-0.00644163
0.00435283
-0.00695629
0.00404186
-0.0073618
0.00364129
-0.00763634
0.00314404
-0.00775631
0.00254137
-0.00769573
0.00182359
-0.00742589
0.000981001
-0.00690766
-2.48021e-06
-0.00611268
-0.00111458
-0.00498693
-0.00237603
-0.00347118
-0.00377225
-0.00148503
-0.00527644
0.00105487
-0.0068133
-0.00808357
0.00402142
-9.18845e-05
0.000996131
-0.000331116
0.00244151
-0.000682619
0.00350599
-0.00110987
0.0042604
-0.00157704
0.00476172
-0.0020499
0.00505689
-0.00249602
0.00518256
-0.00288453
0.00516527
-0.00318562
0.00502232
-0.00336984
0.00476309
-0.00340743
0.00439042
-0.00326758
0.00390201
-0.00291784
0.00329155
-0.00232367
0.00254988
-0.00144819
0.00166589
-0.000251897
0.000627293
0.00130716
-0.000578058
0.0032663
-0.00196162
0.00568263
-0.00353091
0.00860001
-0.00529341
0.0120762
-0.00724843
0.0161785
-0.00937871
0.020965
-0.0115998
-0.0138992
0.0267806
-5.87773e-05
0.00105491
-0.000210539
0.00259327
-0.000424002
0.00371945
-0.000663288
0.00449969
-0.000890978
0.00498941
-0.00106921
0.00523511
-0.00115994
0.00527329
-0.00112477
0.00513011
-0.000924467
0.00482201
-0.00051831
0.00435693
0.000136495
0.00373562
0.00108541
0.00295309
0.00237684
0.00200012
0.00406231
0.000864413
0.00619615
-0.000467947
0.0088346
-0.00201116
0.0120351
-0.00377853
0.0158541
-0.00578068
0.0203475
-0.00802431
0.0255649
-0.0105108
0.0315486
-0.0132321
0.0383635
-0.0161937
0.0459826
-0.0192189
-0.0228235
0.0549069
-3.01166e-05
0.00108503
-9.94416e-05
0.0026626
-0.000175387
0.0037954
-0.000219509
0.00454381
-0.00019017
0.00496007
-4.35088e-05
0.00508845
0.000266505
0.00496328
0.000788451
0.00460816
0.00157394
0.00403652
0.00267813
0.00325274
0.0041601
0.00225365
0.0060829
0.00103029
0.0085133
-0.00043028
0.0115209
-0.0021432
0.0151768
-0.00412384
0.0195516
-0.00638595
0.0247127
-0.00893968
0.0307217
-0.0117896
0.0376302
-0.0149329
0.0454787
-0.0183593
0.0542793
-0.0220327
0.0640828
-0.0259971
0.0747053
-0.0298414
-0.0348592
0.086741
-7.5259e-06
0.00109255
-2.10855e-06
0.00265718
5.53468e-05
0.00373794
0.00021075
0.0043884
0.000513506
0.00465731
0.00101671
0.00458525
0.0017777
0.00420229
0.00285861
0.00352724
0.00432679
0.00256835
0.0062548
0.00132472
0.00872001
-0.000211558
0.0118035
-0.00205319
0.0155881
-0.00421486
0.0201557
-0.0067108
0.0255839
-0.00955208
0.0319421
-0.0127441
0.0392868
-0.0162844
0.0476579
-0.0201607
0.0570744
-0.0243494
0.067534
-0.0288189
0.078998
-0.0334966
0.0914586
-0.0384577
0.104681
-0.043064
-0.0493029
0.119125
9.28034e-06
0.00108327
8.23153e-05
0.00258414
0.00027257
0.00354769
0.000637346
0.00402363
0.00123818
0.00405648
0.00214178
0.00368166
0.00342094
0.00292313
0.00515509
0.00179309
0.00742998
0.000293467
0.0103365
-0.00158181
0.0139682
-0.00384324
0.0184176
-0.00650257
0.0237717
-0.00956896
0.0301064
-0.0130455
0.0374806
-0.0169263
0.0459304
-0.021194
0.0554647
-0.0258187
0.0660617
-0.0307576
0.0776675
-0.0359553
0.090196
-0.0413474
0.103537
-0.0468379
0.11755
-0.0524699
0.132074
-0.0575885
-0.0642171
0.146988
2.31174e-05
0.00106015
0.000164195
0.00244307
0.000496304
0.00321558
0.00109395
0.00342598
0.00203581
0.00311461
0.00340684
0.00231064
0.00529913
0.00103083
0.0078115
-0.000719281
0.0110474
-0.00294244
0.0151103
-0.00564471
0.0200982
-0.00883114
0.0260961
-0.0125005
0.0331681
-0.0166409
0.0413494
-0.0212268
0.0506399
-0.0262167
0.0609996
-0.0315536
0.072347
-0.0371661
0.0845612
-0.0429719
0.097487
-0.0488811
0.110943
-0.0548035
0.124748
-0.0606425
0.138659
-0.0663813
0.152678
-0.0716073
-0.0776133
0.166074
3.8923e-05
0.000259591
0.00075976
0.00163582
0.00298818
0.00492355
0.00755436
0.0109956
0.0153582
0.020741
0.0272197
0.0348365
0.0435909
0.0534331
0.0642624
0.0759288
0.0882403
0.100974
0.113889
0.126747
0.139323
0.151412
0.163101
0.173817
-0.0346622
-0.0102542
0.0111366
-0.03552
-0.0109531
0.0118109
-0.0363418
-0.0114422
0.012264
-0.0371414
-0.0116157
0.0124153
-0.037925
-0.0113895
0.0121731
-0.0386945
-0.0106663
0.0114357
-0.0394485
-0.00933994
0.010094
-0.0401804
-0.0073038
0.00803569
-0.0408737
-0.00445502
0.00514835
-0.0414935
-0.000704379
0.0013242
-0.0421024
0.0040059
-0.00339702
-0.0426266
0.00966872
-0.0091445
-0.0430339
0.0162411
-0.0158338
-0.0432905
0.0236041
-0.0233475
-0.0433536
0.0315399
-0.0314768
-0.0431618
0.0397122
-0.039904
-0.0426242
0.0476547
-0.0481922
-0.0416111
0.0547606
-0.0557737
-0.0399458
0.0602724
-0.0619377
-0.0374159
0.0633226
-0.0658525
-0.0338041
0.0629927
-0.0666045
-0.0288789
0.05836
-0.0632852
-0.0226315
0.0489922
-0.0552396
-0.0150735
0.0345209
-0.0420789
-0.00631335
0.0153842
-0.0241444
0.0030678
-0.00693192
-0.00244923
0.0127089
-0.0308142
0.0211731
0.0219767
-0.0539663
0.0446985
0.0301268
-0.0737275
0.0655774
0.0364737
-0.088206
0.0818591
0.0406666
-0.0967186
0.0925257
0.0429872
-0.0995091
0.0971885
0.0446115
-0.0970181
0.0953937
0.0472875
-0.0890413
0.0863653
0.0524821
-0.0752104
0.0700158
0.06059
-0.0557461
0.0476382
0.0708412
-0.0327418
0.0224906
0.0818433
-0.00907818
-0.00192393
0.0922776
0.0119911
-0.0224254
0.101239
0.028654
-0.0376152
0.108362
0.0397951
-0.0469186
0.113744
0.0458851
-0.0512665
0.117841
0.0470384
-0.0511355
0.121265
0.0443327
-0.0477563
0.124613
0.0378685
-0.0412172
0.12821
0.0290863
-0.0326832
0.132122
0.0184333
-0.0223454
0.136102
0.00795259
-0.0119327
0.139917
-0.00191812
-0.00189614
0.143261
-0.00942583
0.00608104
0.146146
-0.0148822
0.0119977
0.148521
-0.0173516
0.0149766
0.150671
-0.0175784
0.0154282
0.152629
-0.0152202
0.0132626
0.154628
-0.0110423
0.00904264
0.156566
-0.00551427
0.00357632
0.158499
0.000626141
-0.00255896
0.160234
0.00658395
-0.00831898
0.161866
0.0114579
-0.01309
0.0166546
-0.0178837
-0.032546
-0.00933243
-0.0334387
-0.0100604
-0.0342722
-0.0106087
-0.0350624
-0.0108254
-0.0358145
-0.0106374
-0.0365242
-0.0099566
-0.0371873
-0.00867688
-0.0377914
-0.00669974
-0.0383124
-0.00393397
-0.0386935
-0.000323338
-0.0390211
0.00433351
-0.039176
0.00982371
-0.0391006
0.0161656
-0.0387365
0.0232401
-0.0380171
0.0308204
-0.0368565
0.0385517
-0.0351433
0.0459414
-0.0327406
0.0523579
-0.0294922
0.057024
-0.025255
0.0590854
-0.0199577
0.0576955
-0.0134137
0.0518159
-0.00579776
0.0413763
0.00267314
0.02605
0.0117394
0.00631794
0.0211687
-0.0163612
0.0307269
-0.0403724
0.0398287
-0.063068
0.0478116
-0.0817105
0.0539865
-0.0943808
0.0578202
-0.100552
0.0592038
-0.100893
0.0588157
-0.0966299
0.0581905
-0.0884161
0.059172
-0.0761919
0.0629739
-0.059548
0.0695954
-0.0393633
0.0780457
-0.0175285
0.0869886
0.00304828
0.0953594
0.0202831
0.102587
0.0325675
0.10862
0.039852
0.113802
0.041856
0.118608
0.0395273
0.123445
0.0330313
0.128423
0.0241085
0.133434
0.0134218
0.138144
0.00324243
0.142321
-0.00609463
0.145708
-0.0128128
0.14839
-0.017564
0.150376
-0.0193382
0.152028
-0.01923
0.153433
-0.016625
0.15491
-0.0125192
0.156401
-0.00700509
0.158012
-0.000985363
0.159555
0.00504107
0.161103
0.00990941
0.015395
-0.0255376
-0.00844131
-0.0264141
-0.00918384
-0.0271987
-0.00982417
-0.0279049
-0.0101192
-0.0285386
-0.0100038
-0.0290833
-0.00941191
-0.0295321
-0.00822807
-0.0298705
-0.00636129
-0.0300704
-0.00373407
-0.0300532
-0.000340559
-0.0299376
0.00421786
-0.0295653
0.00945145
-0.0288538
0.0154541
-0.0277303
0.0221165
-0.0261199
0.0292101
-0.0239369
0.0363687
-0.021081
0.0430855
-0.0174383
0.0487152
-0.0128839
0.0524696
-0.00732921
0.0535307
-0.000721475
0.0510877
0.0063576
0.0447368
0.0142389
0.033495
0.022692
0.0175968
0.0314834
-0.00247343
0.0404843
-0.0253621
0.0494447
-0.0493328
0.057937
-0.0715603
0.0654005
-0.0891741
0.0712541
-0.100234
0.0750152
-0.104313
0.0763989
-0.102276
0.0755501
-0.0957812
0.0733595
-0.0862255
0.0714334
-0.0742658
0.0714298
-0.0595444
0.0741899
-0.0421233
0.0794553
-0.0227939
0.0862052
-0.00370162
0.0934161
0.0130722
0.100377
0.0256061
0.106856
0.0333733
0.112986
0.0357258
0.119002
0.0335114
0.12506
0.0269735
0.131055
0.0181138
0.136754
0.007723
0.141804
-0.00180792
0.146019
-0.0103092
0.149222
-0.016016
0.151566
-0.0199083
0.153105
-0.0208767
0.154234
-0.0203596
0.155074
-0.0174649
0.155997
-0.013442
0.156991
-0.00799922
0.158209
-0.00220357
0.159486
0.00376411
0.160873
0.00852208
0.0141584
-0.0137348
-0.00752471
-0.0146386
-0.00827998
-0.0154391
-0.00902365
-0.0161117
-0.00944665
-0.0166804
-0.009435
-0.0170896
-0.00900279
-0.0173332
-0.00798439
-0.0173881
-0.00630643
-0.0172281
-0.0038941
-0.01681
-0.000758607
-0.0161669
0.00357475
-0.0152188
0.00850335
-0.0138426
0.0140779
-0.0119643
0.0202382
-0.00951282
0.0267586
-0.00641008
0.033266
-0.00258717
0.0392626
0.00200793
0.0441201
0.00736711
0.0471104
0.013483
0.0474148
0.0202577
0.044313
0.0277044
0.0372901
0.0355072
0.0256923
0.0435572
0.00954677
0.051643
-0.0105592
0.0597965
-0.0335156
0.0678149
-0.0573512
0.0753378
-0.0790832
0.0818841
-0.0957204
0.0870223
-0.105373
0.0904744
-0.107765
0.0920569
-0.103859
0.0916754
-0.0953996
0.0895709
-0.084121
0.0866514
-0.0713463
0.0843804
-0.0572734
0.0840738
-0.0418167
0.0862537
-0.0249738
0.0905534
-0.00800138
0.0961755
0.00745015
0.102455
0.0193269
0.108988
0.0268404
0.115658
0.029055
0.12242
0.0267495
0.129171
0.0202231
0.135633
0.0116517
0.141509
0.00184682
0.146475
-0.00677392
0.150421
-0.0142555
0.153257
-0.0188519
0.155185
-0.0218364
0.156282
-0.0219732
0.15694
-0.0210175
0.157284
-0.0178087
0.157702
-0.0138606
0.158223
-0.00852041
0.159035
-0.00301558
0.160015
0.00278473
0.161191
0.00734586
0.0129876
0.00308962
-0.00659292
0.00190832
-0.00709867
0.000808472
-0.00792381
-0.000122168
-0.00851601
-0.000798171
-0.00875899
-0.0012901
-0.00851085
-0.00153977
-0.00773472
-0.00151979
-0.00632641
-0.00119462
-0.00421927
-0.000571362
-0.00138187
0.000552348
0.00245104
0.00211459
0.00694111
0.00418115
0.0120114
0.00678707
0.0176323
0.00997275
0.0235729
0.0137686
0.0294701
0.0181976
0.0348336
0.0232829
0.0390348
0.0290341
0.0413592
0.0353765
0.0410724
0.042184
0.0375055
0.0493627
0.0301114
0.0566773
0.0183777
0.0640052
0.00221888
0.0712141
-0.0177681
0.0783387
-0.0406403
0.0852094
-0.0642218
0.0914912
-0.085365
0.0967835
-0.101013
0.100822
-0.109411
0.103561
-0.110504
0.105043
-0.105341
0.105228
-0.0955851
0.104037
-0.0829294
0.101685
-0.0689943
0.0989931
-0.054582
0.0971635
-0.0399871
0.0971713
-0.0249816
0.0993202
-0.0101503
0.103262
0.00350793
0.108536
0.0140535
0.114665
0.0207111
0.121326
0.0223939
0.128222
0.0198541
0.135035
0.0134099
0.141376
0.00531003
0.14695
-0.00372676
0.151464
-0.0112882
0.154909
-0.0177002
0.157263
-0.0212062
0.158757
-0.0233299
0.15947
-0.0226865
0.159761
-0.021308
0.159736
-0.0177841
0.159765
-0.0138897
0.159904
-0.00865898
0.160357
-0.00346917
0.161056
0.00208593
0.16201
0.00639231
0.0119056
0.0253074
-0.00511975
0.0238254
-0.0056166
0.0224039
-0.00650233
0.0211409
-0.00725298
0.0200461
-0.00766425
0.0191916
-0.00765632
0.0186318
-0.00717495
0.0184283
-0.00612289
0.0186245
-0.00441545
0.0192507
-0.00200804
0.0204061
0.00129559
0.0220145
0.00533271
0.0242219
0.00980393
0.0270542
0.0148
0.0305208
0.0201064
0.034628
0.0253629
0.0393692
0.0300923
0.0447068
0.0336973
0.0505694
0.0354966
0.0568464
0.0347954
0.0633993
0.0309525
0.0701052
0.0234056
0.0767765
0.0117064
0.0832659
-0.00427053
0.0895482
-0.0240504
0.0955552
-0.0466473
0.101118
-0.0697844
0.105927
-0.0901739
0.1097
-0.104786
0.112369
-0.112081
0.1141
-0.112234
0.115125
-0.106366
0.11556
-0.09602
0.115303
-0.082672
0.114197
-0.0678887
0.112415
-0.0528002
0.110649
-0.0382207
0.10983
-0.0241629
0.110646
-0.0109666
0.113223
0.000931196
0.117403
0.0098738
0.122775
0.0153387
0.128916
0.0162533
0.135366
0.0134039
0.141674
0.00710169
0.147423
-0.000438872
0.152309
-0.00861275
0.156135
-0.0151142
0.158948
-0.0205131
0.160784
-0.0230424
0.161876
-0.024422
0.162298
-0.0231083
0.162351
-0.021361
0.162114
-0.0175469
0.161906
-0.0136824
0.161798
-0.00855043
0.161991
-0.00366225
0.162471
0.00160583
0.163231
0.00563188
0.0109098
0.0527429
-0.00295572
0.0506368
-0.00351056
0.048611
-0.00447649
0.0467018
-0.00534377
0.0449479
-0.00591036
0.0434189
-0.00612734
0.0421889
-0.00594491
0.0413323
-0.00526629
0.040916
-0.00399919
0.0409905
-0.00208248
0.0416742
0.000611834
0.0429349
0.004072
0.0448918
0.0078471
0.0475716
0.0121202
0.0509718
0.0167062
0.0550696
0.0212651
0.0598175
0.0253444
0.0651325
0.0283823
0.0708919
0.0297372
0.0769402
0.0287472
0.0831156
0.0247772
0.0892888
0.0172323
0.0952479
0.00574726
0.100954
-0.00997657
0.106245
-0.0293419
0.111033
-0.0514352
0.115111
-0.0738622
0.11823
-0.093293
0.12029
-0.106845
0.121446
-0.113237
0.122045
-0.112833
0.122434
-0.106755
0.122816
-0.0964027
0.123167
-0.0830223
0.123248
-0.0679703
0.122861
-0.0524124
0.122159
-0.037519
0.121713
-0.0237167
0.122193
-0.0114473
0.124009
-0.000884502
0.12729
0.00659317
0.131781
0.0108478
0.13708
0.0109542
0.142685
0.00779849
0.148115
0.00167146
0.152963
-0.00528619
0.156963
-0.0126131
0.16
-0.0181507
0.162159
-0.0226725
0.163511
-0.0243941
0.164273
-0.0251843
0.164508
-0.023343
0.164454
-0.0213068
0.164158
-0.0172513
0.163875
-0.0133993
0.163673
-0.0083485
0.163734
-0.00372325
0.16409
0.00124976
0.164723
0.00499912
0.00997075
0.0837775
7.77282e-06
0.0810246
-0.000757718
0.0783605
-0.00181236
0.0757554
-0.00273868
0.0732379
-0.00339281
0.0708931
-0.00378256
0.0688105
-0.00386233
0.0670698
-0.00352557
0.0657522
-0.00268162
0.0649685
-0.00129883
0.0647301
0.000850238
0.065185
0.00361715
0.0663938
0.00663829
0.068418
0.010096
0.0712631
0.0138611
0.0748953
0.0176329
0.0792392
0.0210006
0.084178
0.0234434
0.0895571
0.0243582
0.0951844
0.0231198
0.100855
0.0191071
0.106414
0.0116734
0.111713
0.000447367
0.11661
-0.0148728
0.120905
-0.0336369
0.124399
-0.0549292
0.126835
-0.0762987
0.128087
-0.0945451
0.128329
-0.107087
0.127952
-0.11286
0.127431
-0.112313
0.127153
-0.106477
0.127329
-0.0965784
0.127975
-0.0836685
0.128896
-0.0688917
0.129779
-0.0532947
0.130436
-0.0381761
0.131019
-0.0242998
0.13195
-0.0123784
0.133677
-0.00261171
0.136421
0.00384989
0.140146
0.00712268
0.144531
0.00656895
0.149133
0.00319667
0.153558
-0.00275363
0.157391
-0.00911965
0.16048
-0.0157021
0.162758
-0.0204285
0.164332
-0.0242468
0.165287
-0.025349
0.165815
-0.025712
0.165966
-0.0234941
0.165919
-0.0212602
0.165697
-0.0170289
0.165482
-0.0131844
0.165334
-0.00820054
0.165399
-0.00378835
0.165742
0.000906642
0.166337
0.00440409
0.00903704
0.115409
0.00372347
0.111856
0.00279521
0.108488
0.00155576
0.105271
0.00047823
0.102217
-0.000338473
0.0992622
-0.000827828
0.0964951
-0.00109517
0.0939969
-0.00102741
0.0918947
-0.000579433
0.0901455
0.000450407
0.0889171
0.00207861
0.0883989
0.00413536
0.0886171
0.00642013
0.089661
0.00905205
0.0915642
0.0119579
0.0943158
0.0148812
0.0978463
0.0174701
0.102032
0.0192576
0.106707
0.0196834
0.111661
0.0181657
0.116649
0.0141195
0.121381
0.00694086
0.126044
-0.00421528
0.129961
-0.0187898
0.13312
-0.0367962
0.135178
-0.0569873
0.135878
-0.0769988
0.135246
-0.0939128
0.133713
-0.105554
0.131919
-0.111065
0.130408
-0.110802
0.129537
-0.105606
0.12947
-0.0965115
0.130216
-0.0844146
0.131629
-0.0703046
0.133414
-0.0550797
0.135254
-0.0400163
0.137001
-0.0260465
0.138775
-0.0141521
0.140888
-0.00472527
0.143488
0.00125032
0.146703
0.00390809
0.150302
0.00296981
0.154001
-0.000502454
0.157443
-0.00619589
0.160354
-0.012031
0.162641
-0.0179882
0.164286
-0.0220743
0.165405
-0.0253649
0.166082
-0.0260264
0.16648
-0.0261103
0.166642
-0.0236559
0.166695
-0.0213133
0.166647
-0.0169803
0.166614
-0.0131519
0.166643
-0.00822953
0.166838
-0.0039833
0.167279
0.00046588
0.167937
0.00374639
0.00804231
0.143092
0.00762001
0.139382
0.00650445
0.135635
0.00530306
0.131885
0.00422802
0.12827
0.00327664
0.124916
0.00252654
0.121759
0.00206186
0.118816
0.00191498
0.116115
0.00212156
0.113825
0.00274091
0.112054
0.0038499
0.110854
0.00533512
0.110265
0.00700942
0.110404
0.00891212
0.111324
0.0110383
0.113049
0.0131561
0.115546
0.0149737
0.118716
0.016087
0.122412
0.0159872
0.126425
0.0141535
0.130549
0.00999464
0.134416
0.0030742
0.137992
-0.00779145
0.140801
-0.0215987
0.142592
-0.0385866
0.143008
-0.0574036
0.141883
-0.0758736
0.139458
-0.0914886
0.136377
-0.102473
0.13342
-0.108109
0.131138
-0.10852
0.129819
-0.104286
0.129555
-0.0962476
0.13032
-0.0851801
0.131993
-0.0719777
0.134332
-0.057418
0.137009
-0.0426941
0.139732
-0.0287692
0.142408
-0.0168281
0.145091
-0.00740808
0.147887
-0.00154575
0.150838
0.000956936
0.15391
-0.000102496
0.156895
-0.00348733
0.159553
-0.00885346
0.161734
-0.0142119
0.163409
-0.0196635
0.164601
-0.0232666
0.165421
-0.0261844
0.165952
-0.0265571
0.166324
-0.0264832
0.166579
-0.0239103
0.166802
-0.0215366
0.166997
-0.0171749
0.167227
-0.0133824
0.167524
-0.00852678
0.167952
-0.00441082
0.168588
-0.000170232
0.169406
0.00292843
0.00691415
0.162574
0.0111205
0.159036
0.0100425
0.155305
0.00903391
0.151601
0.0079322
0.148035
0.00684171
0.144616
0.00594566
0.141378
0.00530008
0.138377
0.00491635
0.135665
0.00483333
0.133298
0.00510791
0.131376
0.00577234
0.129934
0.00677694
0.128968
0.00797484
0.128603
0.00927727
0.128886
0.0107551
0.129841
0.0122017
0.131452
0.0133625
0.133651
0.0138873
0.136325
0.0133137
0.13929
0.0111883
0.142323
0.00696155
0.144994
0.000403533
0.147423
-0.0102204
0.148885
-0.0230609
0.149094
-0.0387953
0.147763
-0.0560724
0.14491
-0.0730213
0.140992
-0.0875707
0.136742
-0.0982221
0.132922
-0.104288
0.130078
-0.105677
0.128425
-0.102633
0.127993
-0.0958157
0.128724
-0.0859117
0.130504
-0.0737567
0.133132
-0.060046
0.136319
-0.045882
0.13973
-0.0321794
0.143132
-0.0202307
0.14641
-0.0106858
0.149529
-0.0046648
0.152493
-0.00200678
0.155281
-0.00289091
0.157783
-0.00598924
0.159907
-0.0109777
0.161598
-0.0159023
0.162882
-0.0209478
0.163812
-0.0241963
0.164491
-0.0268642
0.165
-0.0270662
0.165443
-0.0269256
0.165858
-0.0243257
0.166304
-0.0219824
0.166787
-0.0176574
0.167331
-0.013927
0.167957
-0.0091523
0.168691
-0.00514544
0.169602
-0.00108127
0.170665
0.00186612
0.00558197
0.171514
0.0134235
0.16871
0.0128469
0.16578
0.0119639
0.162785
0.0109269
0.159762
0.00986482
0.156792
0.00891565
0.153946
0.0081464
0.151273
0.00758847
0.148829
0.00727746
0.146684
0.00725279
0.144917
0.00753989
0.143578
0.00811618
0.142673
0.0088797
0.142191
0.00975912
0.1422
0.0107465
0.142725
0.0116764
0.143758
0.0123292
0.145237
0.0124087
0.147044
0.0115068
0.149031
0.00920111
0.150972
0.00502064
0.152817
-0.00144131
0.153606
-0.01101
0.15356
-0.0230151
0.152208
-0.0374424
0.14942
-0.0532845
0.145403
-0.0690043
0.140711
-0.0828789
0.136016
-0.0935279
0.131865
-0.100137
0.128643
-0.102454
0.126608
-0.100598
0.125875
-0.0950827
0.126392
-0.0864282
0.128047
-0.0754125
0.130674
-0.0626723
0.134027
-0.049235
0.137788
-0.0359413
0.141646
-0.0240882
0.145366
-0.0144056
0.148806
-0.00810493
0.151886
-0.00508651
0.154581
-0.005586
0.156845
-0.00825311
0.158683
-0.0128164
0.16012
-0.0173385
0.161225
-0.0220529
0.162071
-0.0250424
0.162756
-0.0275492
0.163354
-0.0276645
0.163948
-0.0275197
0.16458
-0.0249581
0.165288
-0.0226899
0.166085
-0.0184548
0.166973
-0.0148148
0.167961
-0.0101401
0.169053
-0.00623708
0.170294
-0.00232225
0.171668
0.000491529
0.00398353
0.189787
0.0153823
-0.191746
0.188217
0.0144172
0.18653
0.013651
0.184709
0.012748
0.182773
0.0118003
0.180752
0.0109363
0.178679
0.0102197
0.176583
0.00968444
0.174502
0.00935817
0.172491
0.00926395
0.170619
0.00941174
0.168955
0.00978051
0.167538
0.0102964
0.166416
0.0108813
0.165695
0.0114674
0.16547
0.011902
0.165826
0.0119726
0.166826
0.0114087
0.168483
0.00984971
0.170769
0.00691555
0.173535
0.00225471
0.176642
-0.00454847
0.179532
-0.0138998
0.181938
-0.0254216
0.183319
-0.038823
0.183268
-0.0532334
0.181627
-0.0673633
0.17854
-0.0797918
0.17437
-0.0893584
0.169564
-0.0953303
0.164579
-0.0974703
0.15983
-0.0958492
0.155645
-0.0908973
0.152268
-0.0830513
0.149859
-0.0730038
0.148497
-0.0613104
0.148167
-0.0489042
0.148743
-0.0365178
0.150033
-0.0253785
0.151814
-0.0161863
0.153843
-0.0101338
0.155886
-0.00712921
0.157747
-0.00744789
0.159262
-0.00976786
0.160334
-0.0138877
0.160931
-0.0179362
0.161091
-0.022213
0.160891
-0.0248424
0.160434
-0.0270915
0.159824
-0.0270552
0.159162
-0.0268572
0.158524
-0.0243201
0.157965
-0.0221305
0.157518
-0.0180078
0.157196
-0.0144927
0.156996
-0.00994066
0.15692
-0.00616092
0.156969
-0.00237082
0.157131
0.000329132
0.00367375
0.202571
0.0161401
-0.203328
0.201726
0.015262
0.200848
0.0145292
0.199804
0.0137913
0.198587
0.0130181