/*--------------------------------*- C++ -*----------------------------------*\
| =========                 |                                                 |
| \\      /  F ield         | OpenFOAM: The Open Source CFD Toolbox           |
|  \\    /   O peration     | Version:  2512                                  |
|   \\  /    A nd           | Website:  www.openfoam.com                      |
|    \\/     M anipulation  |                                                 |
\*---------------------------------------------------------------------------*/
FoamFile
{
    version     2.0;
    format      ascii;
    arch        "LSB;label=32;scalar=64";
    class       volVectorField;
    location    "40";
    object      U;
}
// * * * * * * * * * * * * * * * * * * * * * * * * * * * * * * * * * * * * * //

dimensions      [0 1 -1 0 0 0 0];

internalField   nonuniform List<vector> 
13248
(
(-0.0126628 0.0118654 6.13101e-20)
(-0.0242939 0.0256134 0)
(-0.0229873 0.0332653 -1.15836e-19)
(-0.0097137 0.036672 1.0912e-19)
(0.0148508 0.0373824 1.02254e-19)
(0.0502205 0.0366571 0)
(0.0959889 0.0354711 0)
(0.151717 0.0345646 2.47416e-19)
(0.216804 0.0344813 -9.90615e-22)
(0.290354 0.0355887 -2.16556e-19)
(0.371088 0.0380871 2.01279e-19)
(0.45731 0.0420169 -1.25876e-19)
(0.546945 0.04727 0)
(0.637643 0.0536072 -2.1671e-19)
(0.726924 0.0606869 4.04643e-19)
(0.812354 0.0680997 -9.58663e-20)
(0.891716 0.0754134 -1.72035e-19)
(0.963156 0.0821946 1.61497e-19)
(1.02532 0.0881302 0)
(1.07731 0.0927236 0)
(1.1192 0.0964246 0)
(1.15016 0.0971886 0)
(1.17402 0.0998417 5.00058e-20)
(1.18515 0.0925641 1.82795e-19)
(-0.012347 0.0102763 -1.85245e-19)
(-0.0202353 0.0207707 1.26268e-19)
(-0.0121671 0.0259739 -1.11787e-21)
(0.0105557 0.0278483 -1.66863e-19)
(0.0470515 0.0280195 -1.02145e-19)
(0.0966082 0.0277979 -9.66494e-20)
(0.158452 0.0281599 -1.77772e-19)
(0.231562 0.0297972 1.68037e-19)
(0.314502 0.0331438 0)
(0.40531 0.0383856 6.79635e-22)
(0.501492 0.0454688 1.3976e-21)
(0.600121 0.0541207 1.25734e-19)
(0.698039 0.063889 0)
(0.792103 0.0741982 0)
(0.879442 0.0844182 1.48307e-19)
(0.957686 0.0939359 -2.78541e-19)
(1.02513 0.10222 1.67575e-19)
(1.08084 0.108869 -1.57319e-19)
(1.12463 0.113649 -6.99857e-20)
(1.15708 0.116461 -1.28172e-19)
(1.17914 0.117505 -5.44063e-20)
(1.19278 0.116513 -1.02348e-19)
(1.19906 0.115589 1.4893e-19)
(1.19998 0.109763 4.34425e-20)
(-0.011202 0.00840834 0)
(-0.0131545 0.0153756 0)
(0.00433055 0.0183226 5.9031e-20)
(0.0394599 0.0192373 5.43753e-20)
(0.0909589 0.0197732 -1.31216e-21)
(0.157607 0.0212479 -9.9706e-20)
(0.237854 0.024562 0)
(0.329585 0.0302284 -8.35837e-20)
(0.429993 0.0383945 7.85678e-20)
(0.53561 0.0488593 4.87013e-22)
(0.642502 0.0611153 -1.34676e-19)
(0.74661 0.0744245 -1.23854e-19)
(0.844125 0.0879219 1.89701e-21)
(0.931852 0.100733 -1.03477e-19)
(1.00747 0.112083 2.47468e-19)
(1.0697 0.121382 0)
(1.11828 0.128279 -1.62745e-19)
(1.15392 0.132668 7.86922e-20)
(1.17806 0.13469 6.99195e-20)
(1.19262 0.134596 0)
(1.1998 0.13296 5.80142e-20)
(1.20164 0.129767 -2.02768e-19)
(1.19983 0.126896 1.90344e-19)
(1.1971 0.120714 1.23069e-19)
(-0.00887959 0.00625436 -6.5646e-20)
(-0.0021513 0.00960288 -6.78681e-20)
(0.0278205 0.0108183 6.1296e-20)
(0.0785318 0.0117464 0)
(0.147995 0.0139557 0)
(0.234017 0.0186512 -2.09766e-21)
(0.333689 0.0264808 0)
(0.443208 0.0375482 -2.55145e-19)
(0.557958 0.0514599 2.37224e-19)
(0.672841 0.0674052 -2.93262e-19)
(0.78279 0.0842892 6.73608e-20)
(0.88333 0.100907 0)
(0.971035 0.116127 1.131e-19)
(1.04382 0.129039 -2.09882e-19)
(1.10102 0.139059 4.98372e-20)
(1.14324 0.145956 1.29742e-19)
(1.17212 0.149834 -4.85216e-21)
(1.18996 0.151048 -1.45476e-19)
(1.19929 0.150115 0)
(1.20258 0.147588 0)
(1.20197 0.144082 -5.3312e-20)
(1.19906 0.139755 4.82656e-20)
(1.19511 0.13603 1.7561e-19)
(1.1908 0.129824 -1.64841e-19)
(-0.00498712 0.00386379 -6.93104e-20)
(0.0136933 0.00377054 -6.89399e-20)
(0.0594765 0.00415448 1.93895e-19)
(0.128847 0.00646993 -1.17474e-19)
(0.218622 0.011997 1.10578e-19)
(0.325003 0.0215988 2.00811e-19)
(0.44307 0.0353815 -1.41957e-19)
(0.566884 0.0527301 -1.73039e-19)
(0.689981 0.0724601 3.14094e-21)
(0.806133 0.0930391 2.21802e-19)
(0.910118 0.11286 0)
(0.998312 0.130507 6.16475e-20)
(1.06896 0.144952 0)
(1.1221 0.155661 -1.01631e-19)
(1.15928 0.162577 1.42937e-19)
(1.18302 0.166039 1.22794e-21)
(1.1963 0.166638 -3.80844e-20)
(1.20207 0.165071 7.15244e-20)
(1.2029 0.16201 6.23641e-20)
(1.20077 0.158023 -5.63915e-20)
(1.19707 0.153564 5.32991e-20)
(1.19268 0.148786 -4.82536e-20)
(1.18802 0.14452 0)
(1.18374 0.13846 -3.76093e-20)
(0.000871358 0.00137421 6.93005e-20)
(0.0352023 -0.00159814 7.27896e-20)
(0.100136 -0.000729626 -6.49744e-20)
(0.190742 0.00470345 1.20967e-19)
(0.302007 0.0153718 -1.1386e-19)
(0.427828 0.0314389 1.02944e-19)
(0.560792 0.0520933 -4.94415e-20)
(0.692834 0.0757095 1.29922e-19)
(0.816304 0.100213 -8.18083e-20)
(0.92504 0.123498 1.45778e-19)
(1.01512 0.143807 -3.37183e-19)
(1.08509 0.159982 1.24279e-19)
(1.13574 0.171552 -1.09657e-19)
(1.16948 0.17866 1.02997e-19)
(1.18965 0.181894 8.99155e-20)
(1.19981 0.182072 7.96373e-20)
(1.20317 0.180046 -2.21951e-19)
(1.20233 0.176571 1.3798e-19)
(1.19914 0.172232 -6.2366e-20)
(1.19482 0.167438 1.64653e-19)
(1.19006 0.162456 -5.30292e-20)
(1.18523 0.157385 -1.32082e-19)
(1.18054 0.152679 1.22372e-19)
(1.17619 0.146749 3.75958e-20)
(0.00905126 -0.000975047 0)
(0.0629761 -0.00575951 6.39675e-22)
(0.1501 -0.00266846 1.36098e-19)
(0.263568 0.00785076 -1.27623e-19)
(0.395839 0.0254061 -1.14964e-19)
(0.53796 0.0490056 2.13719e-19)
(0.680026 0.0765652 -9.9274e-20)
(0.812595 0.105341 1.32678e-19)
(0.928201 0.132576 -2.63222e-21)
(1.02235 0.156049 -7.54919e-20)
(1.09373 0.174406 1.65801e-19)
(1.14377 0.187218 -2.45329e-19)
(1.17572 0.194828 0)
(1.1937 0.198079 -4.87299e-20)
(1.20177 0.198014 -1.30966e-19)
(1.20342 0.195643 4.11441e-20)
(1.20131 0.191803 1.40895e-21)
(1.19722 0.187106 -9.26414e-20)
(1.19227 0.181963 4.89043e-21)
(1.18708 0.176625 1.07578e-19)
(1.18197 0.171237 -4.86179e-20)
(1.17707 0.165879 -1.914e-20)
(1.1724 0.160741 5.77685e-20)
(1.16807 0.154868 0)
(0.0198202 -0.00284632 0)
(0.097262 -0.00778351 3.69442e-20)
(0.208949 -0.000365062 -1.77989e-19)
(0.345543 0.0172452 6.46335e-20)
(0.496395 0.043034 -6.08318e-20)
(0.649616 0.074406 -5.56837e-20)
(0.793554 0.107848 -9.85186e-20)
(0.918873 0.139731 4.90709e-20)
(1.02 0.167156 4.27399e-20)
(1.09545 0.188416 0)
(1.14711 0.203052 9.87144e-20)
(1.17902 0.211587 -1.47627e-19)
(1.19604 0.215125 1.09946e-19)
(1.20284 0.214961 4.87542e-20)
(1.20325 0.212289 -4.04313e-20)
(1.20008 0.208057 -3.42e-20)
(1.19516 0.202938 -3.21526e-20)
(1.18957 0.197362 9.53387e-20)
(1.1839 0.191588 0)
(1.17843 0.185764 4.89648e-20)
(1.17326 0.179973 4.20159e-20)
(1.1684 0.174269 -1.03372e-19)
(1.1638 0.168684 -7.22645e-20)
(1.15949 0.162815 6.67082e-20)
(0.0333089 -0.00382354 -4.01635e-20)
(0.13784 -0.00663442 -1.62044e-21)
(0.275431 0.00745111 3.6262e-20)
(0.433783 0.0339258 1.01408e-19)
(0.598939 0.0685867 2.95442e-20)
(0.756705 0.106973 -5.71177e-20)
(0.895187 0.14435 5.21055e-20)
(1.00698 0.176803 -4.57641e-20)
(1.08983 0.202 8.24255e-20)
(1.14579 0.219291 3.52957e-20)
(1.1796 0.229325 -1.00241e-19)
(1.19695 0.233488 2.96421e-20)
(1.20325 0.233371 5.09477e-20)
(1.20282 0.230413 -2.50208e-20)
(1.19875 0.225728 0)
(1.19301 0.220083 3.78315e-20)
(1.18673 0.213959 6.4542e-20)
(1.18049 0.207636 1.1437e-20)
(1.17456 0.201268 -5.41634e-20)
(1.16902 0.19494 2.28818e-20)
(1.16387 0.188702 0)
(1.15908 0.182579 -1.83026e-20)
(1.15456 0.176539 -1.75842e-20)
(1.15026 0.170576 0)
(0.0494612 -0.00344516 0)
(0.183938 -0.00128289 2.1077e-20)
(0.347454 0.0218428 3.89485e-20)
(0.524539 0.0584441 -1.03635e-19)
(0.698371 0.101714 3.35493e-20)
(0.853856 0.145432 0)
(0.980769 0.184259 5.05769e-20)
(1.07521 0.214799 -7.06796e-20)
(1.13887 0.235916 -4.1236e-20)
(1.17701 0.248268 1.86488e-20)
(1.19626 0.253527 -3.01419e-20)
(1.20294 0.253659 7.30333e-20)
(1.20209 0.250433 3.68037e-20)
(1.19728 0.245207 -2.54721e-20)
(1.19074 0.238898 -2.26836e-21)
(1.18371 0.232069 -7.07076e-20)
(1.17681 0.22504 3.22744e-20)
(1.17032 0.217981 -8.68285e-22)
(1.16433 0.210983 0)
(1.15883 0.204096 -2.29057e-20)
(1.15377 0.19735 0)
(1.14908 0.190739 5.28279e-20)
(1.14466 0.184245 -6.32503e-20)
(1.1404 0.178085 2.89702e-20)
(0.0679913 -0.00124423 -1.10719e-20)
(0.234203 0.00917813 -5.31668e-20)
(0.422199 0.043511 6.05615e-20)
(0.613615 0.0907635 3.55374e-20)
(0.789951 0.141461 -1.69322e-20)
(0.937135 0.18819 2.85935e-20)
(1.04839 0.225909 -1.38481e-20)
(1.12417 0.252505 2.31433e-20)
(1.1699 0.268389 0)
(1.19316 0.275483 5.27489e-20)
(1.20142 0.276205 -2.12019e-21)
(1.20076 0.272783 -4.26896e-20)
(1.19543 0.266927 1.83345e-20)
(1.18812 0.259788 -2.07734e-20)
(1.18029 0.252063 -7.96422e-21)
(1.17266 0.244136 9.16555e-21)
(1.16554 0.236205 -7.10283e-21)
(1.15901 0.228372 -3.89304e-20)
(1.15309 0.22069 2.38616e-20)
(1.14771 0.213189 4.91744e-21)
(1.14279 0.205878 4.36224e-21)
(1.13824 0.198734 3.8749e-21)
(1.13395 0.191797 0)
(1.12976 0.18532 0)
(0.0884324 0.00321826 1.10796e-20)
(0.286875 0.0254424 -1.1055e-20)
(0.496521 0.0726913 -2.01945e-20)
(0.697005 0.130258 0)
(0.869957 0.186451 -8.42623e-21)
(1.00432 0.233629 -7.62874e-21)
(1.09795 0.267994 -1.30632e-20)
(1.1557 0.289234 0)
(1.18596 0.299353 0)
(1.19758 0.301287 0)
(1.19801 0.297873 0)
(1.19257 0.291338 0)
(1.18461 0.283192 -1.15116e-20)
(1.17597 0.274341 5.24273e-21)
(1.16757 0.265278 9.15748e-21)
(1.15975 0.256251 4.29616e-21)
(1.15264 0.247376 1.06533e-20)
(1.14624 0.23871 0)
(1.14049 0.230283 -2.58313e-21)
(1.13532 0.222112 -2.50009e-21)
(1.13063 0.214184 -4.36919e-21)
(1.12631 0.206479 -3.8811e-21)
(1.12222 0.19911 0)
(1.11819 0.192192 2.83944e-21)
(-0.00121611 0.00225004 6.38853e-21)
(-0.00582999 0.00406516 -6.63586e-21)
(-0.0141472 0.00403738 -1.25727e-20)
(-0.0243604 0.00282721 0)
(-0.0354629 0.000903769 -1.68265e-20)
(-0.046933 -0.00142538 5.27325e-21)
(-0.0584064 -0.00397895 -9.991e-21)
(-0.0696288 -0.00667108 0)
(-0.0804381 -0.00948073 0)
(-0.0907348 -0.0124238 0)
(-0.100459 -0.0155313 0)
(-0.109576 -0.0188334 0)
(-0.118062 -0.0223512 -2.23333e-23)
(-0.125898 -0.0260914 -6.52903e-21)
(-0.133068 -0.0300448 1.23227e-20)
(-0.139556 -0.0341841 1.73375e-20)
(-0.145349 -0.038464 5.44752e-21)
(-0.15044 -0.0428189 0)
(-0.15484 -0.0471613 4.75462e-21)
(-0.158587 -0.051385 -1.33979e-20)
(-0.161748 -0.055369 -8.35753e-21)
(-0.164414 -0.0589794 -7.81118e-21)
(-0.166771 -0.0620576 0)
(-0.169253 -0.0644594 0)
(-0.00167489 0.00570379 -1.92407e-20)
(-0.00677696 0.0122521 3.31849e-20)
(-0.0152455 0.0153612 -1.25741e-20)
(-0.0253962 0.0161519 -2.38533e-20)
(-0.0362942 0.0154065 3.36758e-20)
(-0.0474601 0.0136592 -2.12549e-20)
(-0.0585563 0.0112644 2.99803e-20)
(-0.0693456 0.00843751 1.89573e-20)
(-0.0796763 0.0052926 0)
(-0.0894563 0.00187794 -1.67243e-20)
(-0.0986299 -0.00179594 -5.82174e-23)
(-0.107164 -0.00573505 1.47682e-20)
(-0.115038 -0.0099488 2.10079e-20)
(-0.122235 -0.0144406 2.62986e-20)
(-0.128737 -0.0192017 -1.23028e-20)
(-0.134524 -0.0242059 -3.476e-20)
(-0.139577 -0.0294025 1.09036e-20)
(-0.143873 -0.0347102 -4.09076e-20)
(-0.147404 -0.0400085 0)
(-0.150188 -0.0451413 8.9231e-21)
(-0.152265 -0.0499119 8.34686e-21)
(-0.153664 -0.0540861 7.80109e-21)
(-0.154511 -0.0573795 0)
(-0.155548 -0.0595375 0)
(-0.0024945 0.00890789 0)
(-0.00845021 0.0199151 6.71833e-20)
(-0.0170789 0.0260359 -2.53317e-20)
(-0.0269485 0.0287838 2.39425e-20)
(-0.0372663 0.0292173 -6.80253e-20)
(-0.047632 0.0280783 0)
(-0.0577595 0.0258844 -4.03891e-20)
(-0.0674446 0.0229759 1.9049e-20)
(-0.0765553 0.0195588 -3.60236e-20)
(-0.0850097 0.0157462 1.71244e-20)
(-0.0927586 0.0115914 9.56654e-20)
(-0.0997716 0.00711262 -4.49389e-20)
(-0.106029 0.00231132 -7.0428e-20)
(-0.111514 -0.00281502 -2.66771e-20)
(-0.116209 -0.00826371 -5.92022e-24)
(-0.120089 -0.0140178 9.35027e-20)
(-0.123123 -0.0200354 -4.38835e-20)
(-0.12527 -0.0262384 -1.73169e-22)
(-0.1265 -0.0325016 0)
(-0.126798 -0.0386313 -3.60381e-20)
(-0.126161 -0.0443564 0)
(-0.124521 -0.0493157 -3.08472e-20)
(-0.121823 -0.0530493 1.15957e-19)
(-0.119167 -0.0550986 -4.49939e-22)
(-0.00360304 0.0116605 0)
(-0.0107136 0.0266044 3.15412e-22)
(-0.0195043 0.0354713 2.57886e-20)
(-0.0288892 0.0400561 -2.44014e-20)
(-0.0382707 0.0416323 2.26427e-20)
(-0.0473563 0.0411154 1.29674e-19)
(-0.0559321 0.0391657 -4.06475e-20)
(-0.0638399 0.0362373 -3.85668e-20)
(-0.0709745 0.0326236 7.23497e-20)
(-0.0772673 0.0285014 -1.02158e-19)
(-0.0826739 0.0239676 3.21846e-20)
(-0.0871643 0.0190672 3.03779e-20)
(-0.0907156 0.0138152 0)
(-0.0933073 0.00821105 2.66144e-20)
(-0.0949169 0.00225104 0)
(-0.0955169 -0.00406198 4.74214e-20)
(-0.0950713 -0.0107084 -8.83658e-20)
(-0.093536 -0.0176369 2.09078e-20)
(-0.0908582 -0.0247393 7.7615e-20)
(-0.0869898 -0.0318393 3.60046e-20)
(-0.0819106 -0.0386326 0)
(-0.0755135 -0.0446422 -9.32659e-20)
(-0.067416 -0.0491793 2.93189e-20)
(-0.0584306 -0.0514045 0)
(-0.00490174 0.0138148 0)
(-0.0133783 0.0319708 -8.21781e-20)
(-0.022325 0.0431829 -2.61918e-20)
(-0.0310457 0.0493949 -4.9019e-20)
(-0.0391658 0.0520206 4.61574e-20)
(-0.0465189 0.052105 -4.33575e-20)
(-0.0529768 0.0504233 8.22855e-20)
(-0.058437 0.0475265 3.8727e-20)
(-0.0628252 0.0437863 -1.09274e-19)
(-0.066086 0.0394399 6.88861e-20)
(-0.0681763 0.0346283 -9.70582e-20)
(-0.0690591 0.0294269 2.14064e-19)
(-0.0687006 0.0238692 -1.14755e-19)
(-0.0670671 0.0179638 5.42526e-20)
(-0.0641239 0.0117072 1.52433e-19)
(-0.0598347 0.00509409 -4.74903e-20)
(-0.0541592 -0.00187245 -4.50547e-20)
(-0.0470391 -0.00916764 -4.17399e-20)
(-0.0384363 -0.016746 0)
(-0.028309 -0.0244785 -7.24015e-20)
(-0.0166308 -0.0321218 -6.64463e-20)
(-0.00343613 -0.0392342 9.47689e-20)
(0.0116657 -0.0448606 1.14477e-19)
(0.0299847 -0.0468313 -1.07935e-19)
(-0.00628277 0.0152951 0)
(-0.0162299 0.0357991 -1.11603e-19)
(-0.0253082 0.0488319 -4.74749e-22)
(-0.0332016 0.0563598 9.90026e-20)
(-0.03976 0.059863 0)
(-0.0449486 0.0604696 0)
(-0.0487307 0.0590373 0)
(-0.0510636 0.0561928 -3.90168e-20)
(-0.0519043 0.0523729 -1.55699e-22)
(-0.0512079 0.0478686 6.93746e-20)
(-0.0489256 0.0428633 -9.78118e-20)
(-0.0450041 0.0374647 -7.66749e-23)
(-0.0393863 0.0317304 0)
(-0.0320124 0.0256867 -5.42288e-20)
(-0.0228219 0.0193426 5.138e-20)
(-0.0117551 0.0127009 -1.44276e-19)
(0.00123862 0.00576551 1.79828e-19)
(0.0161865 -0.00145577 4.16683e-20)
(0.0331315 -0.00893319 -1.08238e-21)
(0.0521008 -0.0165831 -1.46995e-19)
(0.0730247 -0.0242933 -6.80267e-20)
(0.0958169 -0.0317786 2.1867e-19)
(0.121028 -0.037928 -1.45694e-19)
(0.151863 -0.0397127 0)
(-0.00764815 0.0161017 5.50184e-20)
(-0.0190552 0.0380204 5.59661e-20)
(-0.028199 0.0522464 -5.35433e-20)
(-0.035089 0.0606738 -1.00334e-19)
(-0.0397786 0.0647895 9.44738e-20)
(-0.0423571 0.0657628 -8.90807e-20)
(-0.0428767 0.0645027 1.25934e-19)
(-0.0413517 0.0616879 -3.90327e-20)
(-0.0377668 0.0578049 7.43171e-20)
(-0.0320808 0.0531882 0)
(-0.024231 0.0480593 6.6302e-20)
(-0.0141385 0.0425579 -1.24411e-19)
(-0.00171405 0.0367689 1.1677e-19)
(0.0131356 0.0307428 -1.09676e-19)
(0.0304998 0.0245105 0)
(0.0504546 0.0180952 9.65828e-20)
(0.0730537 0.0115209 1.80908e-19)
(0.0983166 0.00482175 -1.6965e-19)
(0.12622 -0.00194089 -7.8984e-20)
(0.1567 -0.00870301 -7.25716e-20)
(0.189567 -0.0153817 2.05025e-19)
(0.224769 -0.0218118 6.15987e-20)
(0.260877 -0.0275385 -5.90082e-20)
(0.309896 -0.0284213 5.24336e-20)
(-0.00892429 0.0163005 -5.50259e-20)
(-0.0216613 0.0387013 1.71961e-19)
(-0.0307232 0.0534216 -5.42457e-20)
(-0.0363655 0.0622395 1.01527e-19)
(-0.0388086 0.0666125 -9.55959e-20)
(-0.0382489 0.0677211 4.22654e-22)
(-0.0348152 0.0664987 4.25094e-20)
(-0.0285685 0.0636549 1.59989e-19)
(-0.0195111 0.059709 1.37686e-22)
(-0.00759664 0.0550296 -7.02684e-20)
(0.00725865 0.0498701 0)
(0.0251625 0.0444013 -6.26252e-20)
(0.0462322 0.0387375 1.1728e-19)
(0.0705799 0.0329574 1.10189e-19)
(0.0982958 0.0271202 -5.17317e-20)
(0.129431 0.021278 7.59791e-23)
(0.163982 0.0154859 -4.53199e-20)
(0.201872 0.00980914 8.46669e-20)
(0.242933 0.00432922 7.89645e-20)
(0.28694 -0.000844522 -7.34047e-20)
(0.333263 -0.00566426 6.7739e-20)
(0.382886 -0.00962381 -6.23704e-20)
(0.428466 -0.0139853 0)
(0.498499 -0.0117417 -5.23531e-20)
(-0.0100669 0.0160007 5.63394e-20)
(-0.0238754 0.0380072 -5.76138e-20)
(-0.0325707 0.052498 5.50132e-20)
(-0.0365701 0.0611389 0)
(-0.0362223 0.0653519 0)
(-0.0318059 0.0663148 9.16477e-20)
(-0.023506 0.0649678 -8.54267e-20)
(-0.0114124 0.0620348 8.05217e-20)
(0.00446851 0.058056 -3.77385e-19)
(0.0241952 0.0534252 4.9227e-23)
(0.0478685 0.0484246 6.67311e-20)
(0.0756056 0.043255 0)
(0.107513 0.0380613 -1.17609e-19)
(0.143658 0.0329518 2.20797e-19)
(0.18404 0.0280136 -1.55363e-19)
(0.228567 0.0233234 -2.41993e-19)
(0.277033 0.0189557 9.4159e-22)
(0.329103 0.0149893 1.69254e-19)
(0.384286 0.0115009 0)
(0.442135 0.00866112 0)
(0.501008 0.00621739 -6.77302e-20)
(0.564152 0.00569537 6.23609e-20)
(0.615876 0.0031377 -2.24773e-19)
(0.703137 0.00965852 2.1094e-19)
(-0.011055 0.0153252 0)
(-0.0255234 0.0361603 0)
(-0.0333497 0.04972 -1.65719e-19)
(-0.0350594 0.0576116 5.26837e-20)
(-0.0310869 0.0612436 2.84934e-22)
(-0.0217672 0.0617906 9.26897e-20)
(-0.00731787 0.0601929 0)
(0.0121605 0.0571808 -8.10241e-20)
(0.036663 0.0533089 7.56562e-20)
(0.066246 0.0489928 -1.42558e-19)
(0.100986 0.0445406 1.09268e-22)
(0.140936 0.0401803 1.25394e-19)
(0.186075 0.0360816 -1.79239e-22)
(0.236272 0.0323722 1.09946e-19)
(0.291246 0.0291482 -1.55417e-19)
(0.350546 0.0264821 0)
(0.413536 0.0244279 1.79668e-19)
(0.47941 0.0230278 -2.5293e-19)
(0.54716 0.0222808 7.74669e-20)
(0.615994 0.0223838 0)
(0.68332 0.0226392 6.61264e-20)
(0.753628 0.0254183 2.43162e-19)
(0.807027 0.0246283 -2.28203e-19)
(0.897183 0.034351 -2.56142e-19)
(-0.0118646 0.0143791 1.7409e-19)
(-0.0263879 0.0333765 -2.3947e-19)
(-0.0325399 0.0453834 4.48326e-22)
(-0.0309424 0.0520326 5.33122e-20)
(-0.0220935 0.05475 -9.94437e-20)
(-0.0063612 0.0547203 -9.22064e-20)
(0.0160211 0.0528877 1.73241e-19)
(0.0449404 0.0499894 -1.02804e-21)
(0.0803615 0.0465935 -1.52655e-19)
(0.122265 0.0431318 2.85561e-19)
(0.170578 0.039928 -3.91863e-22)
(0.225108 0.0372195 -1.25664e-19)
(0.285478 0.0351721 0)
(0.351092 0.0338902 0)
(0.421107 0.033423 -5.15541e-20)
(0.494445 0.0337701 -9.54783e-20)
(0.569824 0.0348877 -1.77864e-19)
(0.645814 0.0366936 1.66958e-19)
(0.720889 0.0390626 -7.74958e-20)
(0.793713 0.0419822 1.40955e-19)
(0.862015 0.0448114 -6.87511e-20)
(0.928326 0.0492539 1.16794e-19)
(0.978238 0.0500132 -2.7835e-19)
(1.05269 0.0600243 5.09148e-20)
(-0.0124375 0.0132203 5.88291e-20)
(-0.0261377 0.0298227 0)
(-0.0294151 0.039803 1.1397e-19)
(-0.0230225 0.0448884 -1.07364e-19)
(-0.00752373 0.046556 9.95345e-20)
(0.0166838 0.0460182 0)
(0.049333 0.0442322 0)
(0.0902393 0.0419417 -8.17251e-20)
(0.139218 0.0397176 7.10452e-22)
(0.195985 0.0379867 7.20849e-20)
(0.26006 0.0370525 -6.68161e-20)
(0.330693 0.0371069 1.25745e-19)
(0.406815 0.038239 0)
(0.487043 0.0404419 2.18322e-19)
(0.569718 0.0436217 -4.08382e-19)
(0.652981 0.0476088 2.86491e-19)
(0.734888 0.0521785 1.75341e-19)
(0.813509 0.0570506 -1.64594e-19)
(0.887104 0.06199 0)
(0.954057 0.0665855 0)
(1.0134 0.0708688 0)
(1.06454 0.0742965 0)
(1.10441 0.0763279 5.45478e-20)
(1.14914 0.0813444 -1.96119e-19)
(-0.172843 -0.0666014 -4.79905e-21)
(-0.177638 -0.0687188 4.82259e-21)
(-0.182033 -0.0693694 -1.44082e-22)
(-0.186351 -0.0681601 0)
(-0.190637 -0.0647688 -4.35287e-21)
(-0.194901 -0.0588579 8.44495e-21)
(-0.199148 -0.0501074 -2.01528e-23)
(-0.203354 -0.0382422 -3.96234e-21)
(-0.207458 -0.0230548 0)
(-0.211336 -0.00443035 0)
(-0.215044 0.0176807 -2.15151e-22)
(-0.218525 0.0427539 -2.07362e-22)
(-0.221496 0.0703017 -3.4886e-21)
(-0.223777 0.099548 3.19667e-21)
(-0.225164 0.129396 0)
(-0.22539 0.158416 0)
(-0.224072 0.184858 2.7413e-21)
(-0.220646 0.206679 -4.79018e-23)
(-0.2143 0.221555 -2.38452e-21)
(-0.203968 0.227054 -1.53178e-22)
(-0.188417 0.220853 0)
(-0.166351 0.200965 0)
(-0.137052 0.166909 0)
(-0.100289 0.118882 0)
(-0.0566217 0.0596948 0)
(-0.00805063 -0.00632714 0)
(0.0434672 -0.0739309 5.35113e-22)
(0.0949116 -0.135831 -9.01408e-22)
(0.142006 -0.185847 0)
(0.18075 -0.220031 0)
(0.208305 -0.237657 -2.14872e-22)
(0.224088 -0.240024 2.08828e-22)
(0.232125 -0.22837 3.48449e-23)
(0.240854 -0.202596 0)
(0.260244 -0.163255 0)
(0.295963 -0.113199 -5.28703e-23)
(0.346422 -0.0592081 5.13907e-23)
(0.405177 -0.0083042 0)
(0.463998 0.0332001 -8.42383e-23)
(0.517236 0.0628281 1.27236e-22)
(0.561027 0.080046 -4.54848e-23)
(0.595326 0.0871716 0)
(0.621115 0.0855904 8.20093e-23)
(0.642151 0.0779972 -7.9744e-23)
(0.661171 0.0650626 0)
(0.681785 0.0493325 0)
(0.703789 0.0315895 2.59442e-23)
(0.728172 0.0148938 -7.1714e-23)
(0.75106 -0.000122059 0)
(0.774086 -0.0111468 0)
(0.791896 -0.0186734 1.47462e-23)
(0.810514 -0.0218006 -1.28409e-25)
(0.822646 -0.0216335 1.64626e-24)
(0.839632 -0.0182005 -8.89169e-24)
(0.84938 -0.0125852 0)
(0.867916 -0.00575938 0)
(0.876526 0.00141649 0)
(0.896364 0.00785208 0)
(0.902048 0.0127912 0)
(0.92246 0.017599 0)
(-0.158444 -0.061069 -4.61902e-22)
(-0.163884 -0.0635941 -1.89234e-20)
(-0.168508 -0.0646832 3.39749e-22)
(-0.173075 -0.0637986 1.74381e-20)
(-0.177674 -0.0606818 2.60442e-22)
(-0.182287 -0.0550242 0)
(-0.186908 -0.046514 -1.53007e-20)
(-0.191495 -0.0349013 3.00321e-20)
(-0.195949 -0.02001 -1.47275e-20)
(-0.200069 -0.00175095 1.37643e-20)
(-0.203901 0.0198275 -1.31637e-20)
(-0.207284 0.0442464 1.25879e-20)
(-0.209686 0.071017 -1.22085e-20)
(-0.210729 0.0993588 -3.5938e-22)
(-0.209981 0.128152 -1.14193e-20)
(-0.206918 0.155909 1.10977e-20)
(-0.200911 0.180793 -1.06929e-20)
(-0.191234 0.200657 1.00692e-20)
(-0.177047 0.213074 -1.03554e-20)
(-0.15745 0.215576 2.01019e-20)
(-0.131698 0.205959 -9.75545e-21)
(-0.0989695 0.182087 -6.25604e-22)
(-0.0595365 0.144496 -9.5567e-21)
(-0.0140608 0.093491 1.84569e-20)
(0.036873 0.0322921 -8.91109e-21)
(0.0909244 -0.0356476 5.27009e-22)
(0.146026 -0.103161 6.8311e-21)
(0.199531 -0.163449 -8.89318e-22)
(0.247595 -0.2098 -9.27803e-21)
(0.286308 -0.238409 6.77827e-21)
(0.312731 -0.24936 -2.74973e-21)
(0.325068 -0.245495 1.55445e-22)
(0.324841 -0.230268 -3.49118e-23)
(0.317947 -0.205177 -1.15368e-23)
(0.31477 -0.170419 0)
(0.324625 -0.126494 0)
(0.351287 -0.0773936 3.61335e-22)
(0.391588 -0.0286696 -2.49481e-22)
(0.438516 0.013576 -2.84886e-22)
(0.485453 0.0458376 -5.30586e-23)
(0.527698 0.0663923 4.18987e-22)
(0.563899 0.0766035 -9.05766e-23)
(0.594672 0.0771937 0)
(0.622801 0.0706878 0)
(0.650399 0.0579222 0)
(0.679508 0.042003 0)
(0.708997 0.0241275 -1.01279e-22)
(0.738775 0.00776987 4.65258e-23)
(0.764937 -0.00654693 0)
(0.789128 -0.0164964 0)
(0.806454 -0.0230769 0)
(0.823351 -0.0252884 2.33956e-23)
(0.832746 -0.0246771 -3.26571e-24)
(0.846697 -0.0209091 1.92636e-23)
(0.852974 -0.0153142 0)
(0.868815 -0.00841958 0)
(0.874739 -0.00126446 -8.17383e-24)
(0.893369 0.00536879 -1.9462e-23)
(0.897796 0.0104088 0)
(0.91831 0.015615 0)
(-0.119811 -0.0558184 -1.57811e-22)
(-0.125832 -0.0588569 -3.8114e-20)
(-0.130341 -0.0605798 3.64576e-20)
(-0.134639 -0.0601852 -3.41002e-20)
(-0.139002 -0.0574838 -2.62226e-22)
(-0.14333 -0.0522601 0)
(-0.147585 -0.0441624 -3.00251e-20)
(-0.151726 -0.0329752 2.93936e-20)
(-0.155623 -0.0185532 2.20227e-22)
(-0.159016 -0.000832338 3.9686e-22)
(-0.161978 0.0199983 3.78472e-22)
(-0.164269 0.0435272 3.89363e-22)
(-0.165132 0.0692348 -2.3078e-20)
(-0.164035 0.0963333 2.27901e-20)
(-0.160391 0.123682 0)
(-0.153519 0.149752 6.47151e-22)
(-0.142654 0.172643 -2.09713e-20)
(-0.127054 0.190147 2.07019e-20)
(-0.10601 0.199791 0)
(-0.0788924 0.199232 0)
(-0.0456896 0.186396 -2.16325e-20)
(-0.00555231 0.159978 4.26358e-20)
(0.0407659 0.119587 -4.10446e-20)
(0.0914516 0.066806 7.88738e-22)
(0.145534 0.00447964 3.74385e-20)
(0.201292 -0.0640541 -3.54804e-20)
(0.257224 -0.131348 2.97056e-20)
(0.310329 -0.189944 -3.21738e-21)
(0.357078 -0.232874 -1.12469e-20)
(0.394013 -0.256363 0)
(0.418973 -0.260927 0)
(0.430416 -0.250293 5.36537e-22)
(0.428339 -0.22954 -8.2603e-22)
(0.415105 -0.202166 -1.19288e-23)
(0.398248 -0.169407 -6.58934e-22)
(0.387503 -0.130701 6.40382e-22)
(0.390988 -0.0874598 0)
(0.410185 -0.0429517 -1.02154e-22)
(0.441357 -0.00241732 -9.76299e-22)
(0.478383 0.0305547 1.89786e-21)
(0.516494 0.0528785 -8.06882e-22)
(0.553081 0.0649893 -9.38398e-23)
(0.588039 0.0669236 8.04392e-22)
(0.622558 0.0610625 -6.21161e-22)
(0.657611 0.0484369 -1.27245e-22)
(0.693469 0.0326607 -1.10286e-22)
(0.728217 0.0152018 1.01535e-22)
(0.761044 -0.00017925 0)
(0.788386 -0.0132568 0)
(0.812069 -0.0217317 2.62608e-22)
(0.827841 -0.0270817 -1.25766e-22)
(0.842326 -0.0281815 1.0509e-22)
(0.848754 -0.0270161 -1.3669e-22)
(0.859376 -0.0228678 -1.49921e-22)
(0.862097 -0.0173371 3.50877e-23)
(0.874727 -0.0104714 -5.12263e-23)
(0.87768 -0.00349045 3.89471e-23)
(0.894297 0.0031825 -1.70092e-23)
(0.897169 0.00819799 0)
(0.916876 0.0136628 0)
(-0.0558619 -0.0508036 -7.85211e-20)
(-0.0628735 -0.0544391 2.16326e-21)
(-0.0675813 -0.0569873 7.23493e-20)
(-0.0716456 -0.0573075 -5.40968e-22)
(-0.0758342 -0.0551444 0)
(-0.0799019 -0.0506331 0)
(-0.083673 -0.0432044 -5.80434e-20)
(-0.0871306 -0.0327015 9.42335e-22)
(-0.0901085 -0.0190019 7.94361e-20)
(-0.092385 -0.00221481 -9.53008e-22)
(-0.0939919 0.0177832 -2.43681e-20)
(-0.0945927 0.0401651 -2.19163e-20)
(-0.0934156 0.0645204 2.19684e-20)
(-0.089814 0.0900812 0)
(-0.0831394 0.115671 -2.08859e-20)
(-0.0726597 0.139746 1.90142e-20)
(-0.0575824 0.160422 0)
(-0.0372424 0.175506 0)
(-0.0110692 0.182618 2.12006e-20)
(0.021279 0.179471 1.00731e-21)
(0.0596219 0.164246 -2.0327e-20)
(0.104014 0.136475 -2.28484e-20)
(0.153556 0.0946176 2.29396e-20)
(0.206467 0.040967 -2.19965e-20)
(0.261388 -0.0222716 1.33847e-21)
(0.317096 -0.0905479 1.94454e-20)
(0.372022 -0.157214 2.06466e-21)
(0.422972 -0.214083 -4.18965e-23)
(0.466365 -0.253841 0)
(0.499228 -0.272853 6.26633e-21)
(0.520556 -0.272072 -6.39579e-21)
(0.53016 -0.255625 1.58509e-22)
(0.528391 -0.229223 0)
(0.515466 -0.197719 2.36875e-23)
(0.494888 -0.164022 -1.54774e-21)
(0.473394 -0.128119 3.1827e-21)
(0.460144 -0.0899916 4.42061e-22)
(0.46045 -0.0506161 4.11968e-23)
(0.475123 -0.0136664 -1.71146e-21)
(0.500192 0.0179044 -2.20042e-22)
(0.531823 0.0401919 1.60328e-21)
(0.566687 0.0528322 -1.3723e-21)
(0.603778 0.0552401 -2.87932e-24)
(0.642424 0.0496687 -5.45189e-22)
(0.68222 0.0372863 6.57693e-22)
(0.721807 0.0220672 7.28108e-22)
(0.758755 0.00554937 -2.14571e-22)
(0.791901 -0.00828762 -3.15977e-22)
(0.818249 -0.0197612 5.89317e-22)
(0.839901 -0.0265303 -4.07993e-22)
(0.853287 -0.0305158 1.09028e-22)
(0.864981 -0.0304238 -1.25983e-22)
(0.868566 -0.0286504 -1.01644e-22)
(0.875982 -0.0240944 2.28662e-22)
(0.875505 -0.0186465 -6.20488e-24)
(0.884832 -0.0118783 5.25221e-23)
(0.884906 -0.00518324 0)
(0.898976 0.00137844 1.67885e-23)
(0.900192 0.00625524 -2.17542e-23)
(0.9183 0.0118226 0)
(0.0360654 -0.0458099 7.93771e-20)
(0.0272581 -0.0491711 -1.52911e-19)
(0.0214242 -0.0524334 7.28116e-20)
(0.0169371 -0.0537913 6.74595e-20)
(0.0121667 -0.0528629 -1.29689e-19)
(0.00739401 -0.0493974 2.44832e-21)
(0.00329395 -0.043037 5.86362e-20)
(-0.000236038 -0.0336266 5.30308e-20)
(-0.00306496 -0.0210785 -5.19489e-20)
(-0.00455324 -0.00537819 0)
(-0.00502894 0.0129951 -4.50131e-20)
(-0.00441266 0.0338549 8.69941e-20)
(-0.00148979 0.0566122 -4.20632e-20)
(0.00426486 0.0804355 0)
(0.01344 0.104145 0)
(0.0267607 0.12623 6.35151e-22)
(0.0449936 0.144849 -4.1048e-20)
(0.0687117 0.157844 3.9876e-20)
(0.0982531 0.162957 0)
(0.133685 0.158021 4.58043e-20)
(0.174714 0.141479 -8.88157e-20)
(0.220993 0.11256 9.06835e-20)
(0.2716 0.0704487 -9.26667e-20)
(0.324894 0.0167922 -3.4073e-23)
(0.37952 -0.0463504 8.72385e-20)
(0.434349 -0.114166 -4.2273e-20)
(0.487383 -0.17994 -1.07079e-21)
(0.534945 -0.234912 -1.21139e-20)
(0.57327 -0.271544 2.92865e-21)
(0.600006 -0.286568 9.41793e-21)
(0.615412 -0.281549 3.11225e-22)
(0.620867 -0.260894 -1.83838e-21)
(0.618084 -0.23025 2.01413e-21)
(0.607218 -0.19474 -1.74284e-22)
(0.589137 -0.158421 0)
(0.566445 -0.12265 2.27806e-21)
(0.545974 -0.0875436 -2.24909e-21)
(0.53409 -0.0527063 1.89744e-21)
(0.535298 -0.0200426 -2.36616e-21)
(0.54877 0.00844799 2.43098e-22)
(0.572648 0.029074 0)
(0.603678 0.0409524 1.87668e-22)
(0.640166 0.0430442 -4.85572e-22)
(0.679774 0.0374937 0)
(0.720789 0.0254997 -1.13053e-21)
(0.760618 0.0111933 4.6353e-22)
(0.796613 -0.00385422 -1.83158e-22)
(0.82755 -0.015906 -1.54566e-22)
(0.851053 -0.0256128 0)
(0.869524 -0.0306356 0)
(0.880008 -0.0332744 3.38448e-22)
(0.888823 -0.0320269 -5.14732e-22)
(0.889942 -0.0296531 2.80848e-22)
(0.894578 -0.0246876 -8.93046e-23)
(0.891583 -0.0193185 -1.40894e-22)
(0.89789 -0.0126843 -5.25718e-23)
(0.895519 -0.00634058 7.95119e-23)
(0.906833 -7.38933e-06 0)
(0.906497 0.00464229 3.56866e-23)
(0.922432 0.0101591 1.06358e-23)
(0.158807 -0.0393198 8.07264e-20)
(0.149443 -0.0421901 -8.00837e-20)
(0.140381 -0.0461421 5.74683e-22)
(0.133602 -0.0486998 -5.37799e-22)
(0.127108 -0.0491969 5.10607e-22)
(0.12058 -0.0470462 -4.79502e-22)
(0.114536 -0.0422294 8.8187e-22)
(0.109281 -0.0344612 0)
(0.105075 -0.0236042 -7.69475e-22)
(0.10224 -0.00960601 7.21287e-22)
(0.101099 0.00671397 6.79594e-22)
(0.101987 0.025715 -6.75255e-22)
(0.105372 0.0465602 0)
(0.112027 0.0684415 0)
(0.122511 0.0902176 6.02298e-22)
(0.137426 0.110408 0)
(0.157401 0.127192 -6.14988e-22)
(0.182884 0.138459 0)
(0.214099 0.142027 -4.24593e-20)
(0.250918 0.135944 8.65836e-20)
(0.292919 0.118737 -8.9644e-20)
(0.339595 0.089503 4.55775e-20)
(0.390096 0.047829 4.79279e-20)
(0.442878 -0.00534019 -4.65372e-20)
(0.496751 -0.0675944 -4.53477e-20)
(0.550343 -0.1345 4.3961e-20)
(0.600822 -0.198949 0)
(0.643817 -0.251672 9.54026e-22)
(0.675488 -0.285113 0)
(0.69441 -0.296584 0)
(0.702246 -0.288334 7.8602e-21)
(0.701776 -0.265009 -8.31232e-21)
(0.695931 -0.231965 1.53225e-22)
(0.685773 -0.193902 -4.82307e-23)
(0.671543 -0.155078 1.50187e-22)
(0.653023 -0.117933 2.07195e-21)
(0.633493 -0.0836117 -2.01188e-21)
(0.61763 -0.0516208 2.52592e-21)
(0.61121 -0.0227964 -2.18125e-21)
(0.61602 0.00202993 -4.92761e-22)
(0.63255 0.0200047 1.65252e-21)
(0.65844 0.0301844 -8.51156e-24)