/*--------------------------------*- C++ -*----------------------------------*\
| =========                 |                                                 |
| \\      /  F ield         | OpenFOAM: The Open Source CFD Toolbox           |
|  \\    /   O peration     | Version:  2512                                  |
|   \\  /    A nd           | Website:  www.openfoam.com                      |
|    \\/     M anipulation  |                                                 |
\*---------------------------------------------------------------------------*/
FoamFile
{
    version     2.0;
    format      ascii;
    arch        "LSB;label=32;scalar=64";
    class       surfaceScalarField;
    location    "26";
    object      phi;
}
// * * * * * * * * * * * * * * * * * * * * * * * * * * * * * * * * * * * * * //

dimensions      [0 3 -1 0 0 0 0];

oriented        oriented;

internalField   nonuniform List<scalar> 
26232
(
4.96029e-05
0.000984437
-0.00103404
0.000357712
0.00194538
-0.00225349
0.00106746
0.00204756
-0.00275731
0.00231561
0.00134498
-0.00259313
0.00423989
-0.000129606
-0.00179468
0.00698054
-0.00235868
-0.000381966
0.0106753
-0.0053314
0.00163661
0.015451
-0.00903592
0.00426021
0.0214103
-0.0134482
0.00748892
0.0286166
-0.0185229
0.0113166
0.0370805
-0.0241882
0.0157243
0.0467491
-0.0303436
0.020675
0.0575018
-0.0368639
0.0261112
0.0691537
-0.0436061
0.0319542
0.0814657
-0.0504199
0.0381079
0.094161
-0.0571582
0.0444629
0.106946
-0.0636882
0.0509034
0.119531
-0.0699012
0.0573157
0.131656
-0.0757158
0.0635909
0.143107
-0.0810978
0.0696473
0.153719
-0.0860083
0.0753954
0.163402
-0.0905543
0.0808719
0.172047
-0.0945436
0.0858986
-0.0985881
0.091297
0.179338
8.917e-05
0.000895267
0.00054717
0.00148738
0.00154759
0.00104714
0.00325565
-0.000363087
0.00583394
-0.00270789
0.00943721
-0.00596195
0.0142016
-0.0100957
0.0202267
-0.0150611
0.0275573
-0.0207788
0.0361662
-0.0271318
0.0459449
-0.0339669
0.0567043
-0.041103
0.0681857
-0.0483453
0.0800822
-0.0555026
0.0920657
-0.0624033
0.103817
-0.0689091
0.115053
-0.0749249
0.125555
-0.0804031
0.135182
-0.0853428
0.143871
-0.089787
0.151661
-0.0937979
0.158615
-0.0975087
0.164947
-0.100875
-0.104424
0.170782
0.000147574
0.000747693
0.00080546
0.000829495
0.00217504
-0.000322436
0.00444547
-0.00263351
0.00779268
-0.00605511
0.0123654
-0.0105347
0.0182637
-0.015994
0.0255148
-0.0223122
0.034054
-0.0293179
0.0437166
-0.0367944
0.0542456
-0.044496
0.0653143
-0.0521717
0.0765601
-0.0595911
0.0876239
-0.0665664
0.0981884
-0.0729678
0.10801
-0.0787304
0.116937
-0.0838525
0.124922
-0.0883874
0.132007
-0.0924278
0.13831
-0.0960904
0.144003
-0.0994904
0.149254
-0.10276
0.15428
-0.105901
-0.10929
0.159146
0.000226811
0.000520882
0.00113722
-8.09144e-05
0.00295292
-0.00213814
0.00587454
-0.00555514
0.0100692
-0.0102498
0.0156441
-0.0161096
0.0226166
-0.0229666
0.030891
-0.0305865
0.040252
-0.0386789
0.050381
-0.0469234
0.0608918
-0.0550068
0.0713799
-0.0626597
0.0814733
-0.0696845
0.0908767
-0.0759698
0.0994003
-0.0814914
0.106971
-0.0863006
0.113622
-0.0905039
0.119473
-0.0942386
0.124695
-0.0976492
0.129472
-0.100868
0.133983
-0.104001
0.13836
-0.107137
0.142735
-0.110276
-0.113659
0.147104
0.000326819
0.000194063
0.00153862
-0.00129272
0.0038639
-0.00446342
0.00749292
-0.00918415
0.0125495
-0.0153063
0.0190533
-0.0226135
0.02689
-0.0308033
0.0358043
-0.0395009
0.0454244
-0.048299
0.0553124
-0.0568114
0.0650302
-0.0647245
0.0742015
-0.0718311
0.0825592
-0.0780422
0.0899676
-0.0833782
0.0964193
-0.0879432
0.102011
-0.0918923
0.106905
-0.0953981
0.11129
-0.0986233
0.115344
-0.101703
0.119215
-0.104739
0.123012
-0.107797
0.126799
-0.110924
0.130635
-0.114113
-0.117515
0.134491
0.000445864
-0.000251801
0.00199835
-0.0028452
0.00487181
-0.00733689
0.00921421
-0.0135265
0.0150622
-0.0211543
0.0223005
-0.0298517
0.0306491
-0.0391518
0.0396928
-0.0485446
0.0489474
-0.0575536
0.0579423
-0.0658063
0.0662954
-0.0730777
0.0737623
-0.0792979
0.0802497
-0.0845296
0.085799
-0.0889275
0.0905466
-0.0926908
0.0946767
-0.0960224
0.0983781
-0.0990995
0.101815
-0.10206
0.105111
-0.105
0.108353
-0.107981
0.111595
-0.111039
0.114864
-0.114193
0.118191
-0.11744
-0.120862
0.121538
0.000580625
-0.000832426
0.00249775
-0.00476233
0.00592274
-0.0107619
0.0109211
-0.0185249
0.0173968
-0.02763
0.0250656
-0.0375204
0.033482
-0.0475683
0.0421185
-0.0571811
0.0504667
-0.0659017
0.0581276
-0.0734673
0.0648644
-0.0798145
0.0706091
-0.0850426
0.0754332
-0.0893537
0.0794962
-0.0929905
0.0829917
-0.0961863
0.0861048
-0.0991354
0.0889868
-0.101982
0.0917477
-0.104821
0.0944599
-0.107712
0.0971673
-0.110689
0.0998953
-0.113767
0.102656
-0.116954
0.105464
-0.120247
-0.123685
0.108286
0.000725979
-0.0015584
0.00301091
-0.00704726
0.00694759
-0.0146986
0.0124764
-0.0240537
0.019333
-0.0344867
0.0270604
-0.0452478
0.0350914
-0.0555992
0.0428703
-0.06496
0.0499632
-0.0729946
0.0561192
-0.0796233
0.0612753
-0.0849705
0.0655161
-0.0892834
0.0690133
-0.0928509
0.0719654
-0.0959426
0.0745553
-0.0987762
0.0769273
-0.101507
0.0791828
-0.104237
0.0813868
-0.107025
0.0835778
-0.109903
0.0857774
-0.112888
0.0879972
-0.115987
0.0902423
-0.119199
0.0925181
-0.122523
-0.125968
0.0948011
0.000874668
-0.00243307
0.00350531
-0.0096779
0.00786761
-0.0190609
0.0137401
-0.0299262
0.0206787
-0.0414253
0.028087
-0.0526561
0.0353529
-0.0628652
0.0419848
-0.0715919
0.0476914
-0.0787013
0.0523913
-0.0843232
0.0561666
-0.0887457
0.0591927
-0.0923096
0.0616727
-0.0953308
0.0637904
-0.0980603
0.0656885
-0.100674
0.0674652
-0.103284
0.0691819
-0.105954
0.0708741
-0.108717
0.0725614
-0.11159
0.0742543
-0.114581
0.0759579
-0.11769
0.0776748
-0.120916
0.0794058
-0.124254
-0.127698
0.0811361
0.00101739
-0.00345046
0.00394433
-0.0126048
0.00860375
-0.0237203
0.014592
-0.0359144
0.0213043
-0.0481377
0.0280701
-0.0594219
0.0343172
-0.0691124
0.0396839
-0.0769586
0.0440429
-0.0830602
0.0474552
-0.0877356
0.0500927
-0.0913832
0.0521617
-0.0943786
0.0538513
-0.0970204
0.0553076
-0.0995166
0.05663
-0.101997
0.0578798
-0.104534
0.0590916
-0.107166
0.0602843
-0.10991
0.061468
-0.112774
0.062648
-0.115761
0.063827
-0.118869
0.0650057
-0.122094
0.0661828
-0.125431
-0.128866
0.0673503
0.00114407
-0.00459453
0.00429252
-0.0157533
0.00908918
-0.0285169
0.0149511
-0.0417763
0.0211615
-0.0543481
0.0270528
-0.0653132
0.0321601
-0.0742196
0.0362773
-0.0810758
0.0394214
-0.0862043
0.0417479
-0.0900621
0.0434647
-0.0930999
0.0447687
-0.0956826
0.0458144
-0.0980661
0.0467071
-0.100409
0.0475111
-0.102801
0.0482623
-0.105285
0.04898
-0.107883
0.0496742
-0.110604
0.0503506
-0.113451
0.0510125
-0.116423
0.0516609
-0.119518
0.0522958
-0.122729
0.052914
-0.126049
-0.129463
0.0535116
0.00124771
-0.00584225
0.00452346
-0.019029
0.00928072
-0.0332742
0.0147867
-0.0472823
0.0202801
-0.0598415
0.0251656
-0.0701987
0.0291204
-0.0781744
0.0320846
-0.08404
0.0341786
-0.0882982
0.0356042
-0.0914877
0.0365672
-0.094063
0.0372349
-0.0963503
0.0377231
-0.0985543
0.038103
-0.100789
0.0384141
-0.103112
0.0386769
-0.105548
0.038902
-0.108108
0.0390951
-0.110797
0.03926
-0.113616
0.0393988
-0.116562
0.0395127
-0.119632
0.0396012
-0.122818
0.0396611
-0.126109
0.0396921
-0.129494
-0.000223545
0.000304587
-8.10425e-05
-0.00077905
0.000714531
-0.000159025
-0.00159598
0.000994702
-0.000177777
-0.00262164
0.00117925
-0.000153579
-0.00381584
0.00129386
-9.96561e-05
-0.00514842
0.00135834
-2.57643e-05
-0.0065972
0.00138715
6.16263e-05
-0.00814648
0.00138988
0.000159392
-0.00978539
0.00137222
0.000266702
-0.0115067
0.00133681
0.000384497
-0.0133056
0.00128424
0.000514695
-0.015179
0.00121382
0.000659582
-0.0171246
0.0011242
0.000821381
-0.0191405
0.00101393
0.00100199
-0.0212252
0.000881812
0.00120284
-0.0233773
0.000727311
0.00142481
-0.0255965
0.000550955
0.00166823
-0.0278841
0.00035483
0.00193281
-0.0302443
0.000142573
0.00221765
-0.0326884
-7.69025e-05
0.00252095
-0.035234
-0.000295045
0.00284063
-0.0379082
-0.000499857
0.0031741
-0.040756
-0.000670663
0.00351839
-0.000778808
-0.0438478
0.00387061
-0.000210233
0.00051482
-0.000735727
0.00124003
-0.00151061
0.00176958
-0.00248432
0.00215296
-0.0036173
0.00242684
-0.00487901
0.00262005
-0.00624631
0.00275445
-0.00770201
0.00284559
-0.00923354
0.00290375
-0.0108317
0.00293496
-0.0124896
0.00294212
-0.0142016
0.00292588
-0.015963
0.00288551
-0.0177686
0.00281955
-0.0196132
0.00272641
-0.0214909
0.00260503
-0.0233955
0.00245553
-0.0253208
0.00228016
-0.0272628
0.00208452
-0.0292191
0.00187943
-0.0311952
0.00168111
-0.0332069
0.00151184
-0.0352858
0.00140815
0.00143493
-0.0374995
-0.000184364
0.000699184
-0.000650169
0.00170583
-0.00133986
0.00245927
-0.00220677
0.00301987
-0.00321258
0.00343265
-0.00432617
0.00373364
-0.00552253
0.00395081
-0.00678168
0.00410473
-0.00808754
0.00420961
-0.00942693
0.00427435
-0.0107885
0.0043037
-0.0121619
0.00429926
-0.0135368
0.00426042
-0.0149024
0.00418514
-0.0162466
0.0040706
-0.0175555
0.00391396
-0.018813
0.00371309
-0.0200006
0.00346771
-0.021097
0.00318098
-0.0220797
0.00286205
-0.0229281
0.00252949
-0.0236299
0.00221366
-0.0241851
0.00196342
0.00188227
-0.0246325
-0.000149656
0.00084884
-0.00053368
0.00208985
-0.00110476
0.00303035
-0.00182104
0.00373615
-0.00264573
0.00425735
-0.00354694
0.00463485
-0.00449718
0.00490104
-0.0054727
0.00508025
-0.00645271
0.00518962
-0.00741853
0.00524018
-0.00835274
0.0052379
-0.00923833
0.00518485
-0.010058
0.00508005
-0.0107932
0.00492039
-0.0114239
0.00470127
-0.0119272
0.00441727
-0.012277
0.00406286
-0.0124425
0.00363327
-0.0123873
0.00312578
-0.0120676
0.00254233
-0.0114332
0.00189503
-0.010433
0.00121347
-0.00902535
0.000555802
6.83923e-05
-0.00721147
-0.000110948
0.000959788
-0.000401136
0.00238004
-0.000833144
0.00346236
-0.00136967
0.00427268
-0.00197524
0.00486292
-0.00261685
0.00527646
-0.00326406
0.00554825
-0.0038887
0.00570489
-0.00446433
0.00576526
-0.00496564
0.00574149
-0.00536771
0.00563997
-0.00564531
0.00546245
-0.00577226
0.005207
-0.00572079
0.00486892
-0.00546093
0.00444141
-0.00495987
0.00391621
-0.00418123
0.00328422
-0.00308402
0.00253607
-0.00162125
0.00166301
0.000263173
0.000657914
0.00263835
-0.000480144
0.00558683
-0.00173501
0.00920015
-0.00305751
-0.00430697
0.0135755
-7.32834e-05
0.00103307
-0.000268143
0.0025749
-0.000554371
0.00374858
-0.000897649
0.00461596
-0.00126283
0.0052281
-0.00161511
0.00562875
-0.00192047
0.0058536
-0.0021455
0.00592992
-0.00225712
0.00587688
-0.00222202
0.00570639
-0.00200604
0.00542399
-0.00157357
0.00502997
-0.000886966
0.0045204
9.3921e-05
0.00388803
0.00141221
0.00312312
0.00311418
0.00221424
0.00524951
0.0011489
0.00787166
-8.60841e-05
0.0110371
-0.00150247
0.0148076
-0.00311257
0.0192524
-0.00492493
0.0244608
-0.00694342
0.0305013
-0.00909804
-0.0115384
0.0377328
-4.0934e-05
0.00107401
-0.00014799
0.00268196
-0.000293464
0.00389406
-0.000443187
0.00476568
-0.000560439
0.00534535
-0.00060725
0.00567556
-0.000544663
0.00579101
-0.000332642
0.0057179
7.03173e-05
0.00547392
0.000707717
0.00506899
0.00162563
0.00450607
0.00287323
0.00378238
0.00450319
0.00289045
0.00657198
0.00181924
0.00913974
0.000555359
0.01227
-0.000916019
0.0160289
-0.00261001
0.0204837
-0.00454092
0.0257023
-0.00672105
0.0317499
-0.00916016
0.0386827
-0.0118577
0.046592
-0.0148526
0.055418
-0.0179241
-0.0218762
0.0657558
-1.6534e-05
0.00109054
-4.87951e-05
0.00271422
-6.54383e-05
0.0039107
-2.85699e-05
0.00472881
0.000102931
0.00521385
0.000372825
0.00540567
0.000827441
0.0053364
0.00151615
0.00502919
0.00249193
0.00449814
0.00381192
0.003749
0.00553781
0.00278018
0.00773614
0.00158405
0.0104778
0.000148783
0.013838
-0.00154096
0.0178944
-0.00350101
0.0227256
-0.00574728
0.028409
-0.00829342
0.0350174
-0.0111492
0.0426151
-0.0143188
0.0512578
-0.0178029
0.0609679
-0.0215678
0.0718257
-0.0257105
0.0836103
-0.0297087
-0.0352747
0.0970089
-6.20047e-07
0.00109116
2.85714e-05
0.00268503
0.000128854
0.00381042
0.000346771
0.00451089
0.000732022
0.0048286
0.00133781
0.00479988
0.00222179
0.00445242
0.00344686
0.00380411
0.00508183
0.00286318
0.0072016
0.00162923
0.00988668
9.50973e-05
0.0132228
-0.00175207
0.0172983
-0.00392671
0.0222016
-0.00644428
0.0280183
-0.00931768
0.0348263
-0.0125553
0.0426915
-0.0161587
0.0516633
-0.0201211
0.0617693
-0.0244248
0.0730147
-0.0290483
0.0853615
-0.0339145
0.0988094
-0.0391585
0.113089
-0.0439885
-0.0507982
0.128613
9.34353e-06
0.00108182
9.1634e-05
0.00260274
0.000305386
0.00359667
0.000710836
0.00410544
0.00137114
0.00416829
0.00235417
0.00381685
0.00373405
0.00307255
0.00559207
0.00194609
0.00801675
0.000438502
0.0111027
-0.00145673
0.0149484
-0.00375057
0.0196517
-0.00645542
0.0253062
-0.0095812
0.0319942
-0.0131322
0.0397808
-0.0171043
0.0487078
-0.0214823
0.0587883
-0.0262391
0.0700026
-0.0313354
0.0822968
-0.036719
0.095581
-0.0423325
0.109738
-0.0480711
0.124605
-0.0540263
0.140037
-0.0594198
-0.0665637
0.155802
1.74946e-05
0.00106432
0.000155624
0.00246461
0.000495347
0.00325694
0.00111612
0.00348467
0.00210018
0.00318424
0.00353551
0.00238152
0.00551746
0.00109059
0.00814864
-0.000685085
0.0115369
-0.0029498
0.0157909
-0.00571068
0.0210137
-0.00897337
0.0272951
-0.0127369
0.0347031
-0.0169891
0.043275
-0.0217041
0.0530107
-0.02684
0.0638677
-0.0323393
0.0757591
-0.0381306
0.0885559
-0.0441321
0.102091
-0.0502545
0.116171
-0.056412
0.130599
-0.0624995
0.145108
-0.0685347
0.159709
-0.0740209
-0.0803994
0.173544
3.02814e-05
0.0002414
0.000741035
0.00163257
0.00302213
0.00502168
0.00774889
0.011324
0.0158631
0.021469
0.02822
0.0361582
0.0452802
0.0555302
0.0667981
0.0789216
0.0916945
0.104878
0.118215
0.13145
0.144346
0.156683
0.168561
0.179458
-0.0461917
-0.00342427
0.00576817
-0.048599
-0.00396638
0.00637374
-0.0510372
-0.0045046
0.00694275
-0.053491
-0.00498565
0.0074395
-0.0559299
-0.00538765
0.00782651
-0.0583124
-0.00567695
0.00805951
-0.0605855
-0.00581673
0.00808983
-0.0626837
-0.00576826
0.00786642
-0.0645286
-0.00549261
0.00733755
-0.0660283
-0.00495329
0.00645294
-0.0670762
-0.00412089
0.00516886
-0.0675514
-0.00298328
0.00345843
-0.0672954
-0.00155813
0.00130216
-0.0662596
0.000109558
-0.0011454
-0.0643004
0.00198985
-0.003949
-0.061319
0.00401073
-0.0069922
-0.0572013
0.00596736
-0.010085
-0.0518553
0.0076635
-0.0130095
-0.0452112
0.00888233
-0.0155265
-0.0372712
0.00935232
-0.0172923
-0.0280593
0.00894451
-0.0181564
-0.0176741
0.00755035
-0.0179355
-0.0062835
0.00516044
-0.0165511
0.00593647
0.00181862
-0.0140386
0.0186405
-0.00196101
-0.0107431
0.0315299
-0.00597224
-0.00691712
0.0442724
-0.00979806
-0.00294441
0.0565729
-0.0129981
0.000697598
0.0681868
-0.0153563
0.0037424
0.0789627
-0.0166913
0.00591547
0.0888425
-0.0170773
0.00719742
0.0978378
-0.0164891
0.0074938
0.106006
-0.0151833
0.0070153
0.11343
-0.0131358
0.00571203
0.120195
-0.0107038
0.00393808
0.12638
-0.00779276
0.00160812
0.132039
-0.00485797
-0.000800628
0.137205
-0.00166687
-0.00349943
0.141912
0.0011608
-0.00586783
0.14617
0.00409594
-0.00835401
0.149999
0.00633632
-0.0101655
0.153421
0.00864892
-0.0120709
0.156465
0.0100068
-0.0130511
0.159167
0.0115934
-0.014295
0.161566
0.0120882
-0.0144876
0.1637
0.0131447
-0.0152783
0.165609
0.0130241
-0.014933
0.167333
0.0138913
-0.015616
0.168924
0.0134108
-0.0150019
0.170412
0.0144639
-0.0159512
0.171809
0.0139792
-0.0153759
0.173085
0.0155822
-0.0168586
0.174204
0.0153056
-0.0164243
0.175108
0.0175335
-0.018438
0.175781
0.0173891
-0.018062
0.176196
0.0202724
-0.0206876
0.176393
0.0203181
-0.0205144
0.176362
0.0240187
-0.0239883
0.176198
0.0244253
-0.0242607
0.0291043
-0.0287495
-0.0396081
-0.00131569
-0.0418254
-0.00174906
-0.0440868
-0.0022432
-0.0463849
-0.00268754
-0.0486955
-0.00307706
-0.0509799
-0.0033925
-0.0531864
-0.00361026
-0.055249
-0.00370567
-0.0570872
-0.00365444
-0.0586046
-0.00343589
-0.0596888
-0.00303664
-0.0602167
-0.00245541
-0.0600613
-0.00171352
-0.0590841
-0.000867644
-0.0571117
1.74912e-05
-0.0541262
0.00102518
-0.0499472
0.00178842
-0.0444738
0.00219011
-0.0376354
0.00204392
-0.0294056
0.00112247
-0.0198462
-0.000614871
-0.00907478
-0.00322107
0.00263242
-0.00654676
0.0149763
-0.0105252
0.0278188
-0.0148035
0.0407331
-0.0188865
0.053319
-0.022384
0.0652531
-0.0249322
0.0763005
-0.0264038
0.0863351
-0.026726
0.0953359
-0.0260781
0.10336
-0.0245135
0.110511
-0.0223336
0.116917
-0.0195419
0.122708
-0.0164945
0.127999
-0.013084
0.132878
-0.00973685
0.137407
-0.00619639
0.141608
-0.00304027
0.145502
0.000202295
0.149093
0.00274491
0.152387
0.00535556
0.155386
0.00700726
0.158105
0.00887462
0.160563
0.00963072
0.162778
0.010929
0.164779
0.011023
0.166599
0.0120718
0.168283
0.0117264
0.169863
0.0128845
0.17135
0.0124914
0.172716
0.0142168
0.17392
0.014102
0.174901
0.0165519
0.175642
0.0166484
0.176113
0.0198013
0.176356
0.0200749
0.176362
0.024013
0.176229
0.0245585
0.0294365
-0.0261575
0.000209275
-0.0278248
-8.16969e-05
-0.0295487
-0.000519336
-0.0313147
-0.000921549
-0.0331071
-0.00128464
-0.0348946
-0.00160499
-0.0366304
-0.0018745
-0.0382533
-0.00208272
-0.0396873
-0.00222048
-0.0408395
-0.0022837
-0.0416008
-0.00227529
-0.0418492
-0.00220708
-0.0414594
-0.0021033
-0.0403181
-0.00200888
-0.038307
-0.00199362
-0.0351859
-0.00209596
-0.0309009
-0.0024966
-0.0253762
-0.00333455
-0.0185192
-0.0048131
-0.010392
-0.00700476
-0.000969791
-0.010037
0.00932231
-0.0135132
0.0206114
-0.0178359
0.0325689
-0.0224827
0.0448187
-0.0270533
0.0569835
-0.0310513
0.068681
-0.0340814
0.0796008
-0.035852
0.0895334
-0.0363363
0.0983827
-0.0355753
0.106155
-0.03385
0.112933
-0.0312922
0.118841
-0.028241
0.124026
-0.0247268
0.128637
-0.0211057
0.132814
-0.0172613
0.136668
-0.0135905
0.140281
-0.00980968
0.143702
-0.00646126
0.146952
-0.00304763
0.150018
-0.000321356
0.152917
0.00245622
0.155628
0.00429717
0.158143
0.00635927
0.160463
0.00731013
0.162591
0.00880165
0.164536
0.00907764
0.166321
0.0102868
0.167985
0.0100625
0.169555
0.0113144
0.171045
0.0110016
0.172424
0.0128378
0.173653
0.0128728
0.174669
0.0155355
0.175453
0.0158649
0.175971
0.0192834
0.176265
0.019781
0.176321
0.0239567
0.17624
0.0246393
0.0297184
-0.00792236
0.000920166
-0.00888653
0.000882473
-0.00991149
0.000505623
-0.010953
0.000119967
-0.0120085
-0.000229105
-0.0130687
-0.000544813
-0.0140933
-0.000849919
-0.01503
-0.00114607
-0.0158139
-0.00143649
-0.0163659
-0.00173173
-0.0165916
-0.00204956
-0.0163839
-0.00241485
-0.0156257
-0.00286148
-0.0141969
-0.00343764
-0.0119809
-0.0042096
-0.00881343
-0.00526348
-0.00457922
-0.0067308
0.00077722
-0.008691
0.00716913
-0.011205
0.0147063
-0.0145419
0.0232678
-0.0185986
0.0329033
-0.0231487
0.0432845
-0.0282171
0.054155
-0.0333532
0.0651789
-0.0380772
0.0759975
-0.0418699
0.0862722
-0.0443561
0.0957403
-0.04532
0.104238
-0.044834
0.111705
-0.0430424
0.118166
-0.0403112
0.123712
-0.0368375
0.128458
-0.032987
0.132539
-0.0288081
0.136093
-0.0246598
0.139255
-0.0204237
0.142142
-0.0164769
0.144848
-0.0125154
0.147433
-0.00904682
0.149938
-0.00555284
0.152382
-0.00276472
0.154727
0.000111233
0.156992
0.00203188
0.159146
0.00420562
0.161178
0.0052774
0.163077
0.00690252
0.164841
0.00731458
0.166477
0.00864996
0.168018
0.00852202
0.169485
0.00984683
0.170894
0.00959336
0.172214
0.0115173
0.173411
0.0116764
0.17442
0.0145264
0.17522
0.0150643
0.175775
0.018729
0.176122
0.0194339
0.176242
0.0238365
0.176234
0.0246473
0.0299225
0.013418
0.00107764
0.0130632
0.00123732
0.0126599
0.000908927
0.012276
0.000503829
0.0119012
0.000145694
0.0115585
-0.00020206
0.011251
-0.000542462
0.011025
-0.0009201
0.0109277
-0.0013391
0.0110172
-0.00182125
0.0113654
-0.00239776
0.0120563
-0.00310578
0.0131844
-0.00398958
0.0148533
-0.00510659
0.0171765
-0.00653272
0.020265
-0.008352
0.0242023
-0.0106681
0.0290454
-0.0135342
0.0348776
-0.0170372
0.0416297
-0.021294
0.0492457
-0.0262146
0.0576857
-0.0315886
0.0666984
-0.0372298
0.0760322
-0.0426871
0.0853882
-0.0474332
0.0944561
-0.0509378
0.102964
-0.0528637
0.110719
-0.053075
0.11762
-0.0517352
0.123649
-0.049071
0.128845
-0.045508
0.133292
-0.0412843
0.137086
-0.0367804
0.140324
-0.032046
0.143108
-0.0274438
0.145542
-0.0228582
0.147723
-0.0186584
0.149739
-0.0145312
0.151656
-0.0109637
0.153523
-0.00741997
0.15537
-0.00461152
0.157189
-0.00170811
0.158972
0.00024919
0.160712
0.00246599
0.16239
0.00359927
0.163988
0.00530396
0.165497
0.0058057
0.166916
0.00723073
0.168268
0.00717069
0.16957
0.00854422
0.170839
0.00832488
0.172049
0.0103073
0.173169
0.0105558
0.174139
0.0135564
0.174938
0.0142657
0.175523
0.0181444
0.175927
0.019029
0.176126
0.0236383
0.176211
0.0245625
0.0300217
0.0375761
0.00123437
0.0374002
0.00141315
0.0372735
0.00103569
0.03722
0.000557319
0.0372402
0.00012552
0.0373225
-0.000284408
0.03749
-0.000709994
0.0377626
-0.00119263
0.0381663
-0.00174281
0.0387361
-0.00239108
0.0395175
-0.0031791
0.0405681
-0.00415642
0.0419579
-0.00537936
0.0437645
-0.00691318
0.0460708
-0.00883905
0.0489655
-0.0112467
0.0525177
-0.0142203
0.0567946
-0.0178111
0.0618347
-0.0220773
0.0675952
-0.0270544
0.0740189
-0.0326383
0.0810255
-0.0385953
0.0884125
-0.0446167
0.0959475
-0.0502221
0.103379
-0.0548651
0.110469
-0.0580271
0.11703
-0.0594254
0.122959
-0.0590033
0.128222
-0.0569983
0.132841
-0.0536906
0.136868
-0.0495351
0.140369
-0.0447852
0.143412
-0.0398236
0.146053
-0.0346868
0.148347
-0.0297381
0.150355
-0.0248657
0.152136
-0.0204397
0.153753
-0.0161484
0.155263
-0.0124728
0.156712
-0.00886918
0.158134
-0.0060337
0.159546
-0.00312001
0.16094
-0.00114527
0.162311
0.00109496
0.163661
0.0022498
0.164965
0.00399973
0.166215
0.00455527
0.167406
0.00604037
0.168552
0.00602419
0.169671
0.00742573
0.170778
0.00721733
0.171856
0.00922917
0.172882
0.00952996
0.1738
0.0126391
0.17459
0.0134757
0.175206
0.0175281
0.175678
0.0185573
0.17597
0.0233454
0.176169
0.0243635
0.029989
0.0650647
0.00192545
0.0645065
0.00197135
0.0641324
0.0014098
0.0639029
0.000786815
0.0638076
0.000220789
0.0638598
-0.000336561
0.0640554
-0.000905611
0.0644076
-0.00154485
0.0649298
-0.00226502
0.0656392
-0.00310044
0.0665572
-0.00409714
0.0677148
-0.00531396
0.0691534
-0.00681801
0.0709207
-0.00868046
0.0730649
-0.0109833
0.0756334
-0.0138152
0.0786747
-0.0172616
0.0822426
-0.021379
0.0863577
-0.0261924
0.0909849
-0.0316816
0.0960639
-0.0377174
0.101497
-0.044028
0.107109
-0.0502293
0.112703
-0.0558158
0.11809
-0.0602519
0.12312
-0.0630573
0.12771
-0.0640154
0.131843
-0.0631368
0.135551
-0.0607057
0.138881
-0.0570214
0.141883
-0.052537
0.144598
-0.0475003
0.147062
-0.0422866
0.149289
-0.0369144
0.151294
-0.0317432
0.153094
-0.0266658
0.154712
-0.0220577
0.156177
-0.0176133
0.157523
-0.0138191
0.158785
-0.0101311
0.159996
-0.00724465
0.161173
-0.00429662
0.162334
-0.00230623
0.163449
-2.02024e-05
0.164564
0.00113431
0.165645
0.00291896
0.166692
0.00350897
0.167695
0.0050371
0.168669
0.00505006
0.169628
0.00646702
0.170592
0.00625319
0.17155
0.0082709
0.17249
0.00859014
0.173362
0.0117667
0.174152
0.0126857
0.174812
0.0168681
0.175366
0.0180034
0.175774
0.022938
0.17611
0.0240275
0.0297967
0.095471
0.00346327
0.0941704
0.003272
0.0931296
0.00245057
0.0922701
0.00164635
0.0915779
0.000912979
0.091161
8.03319e-05
0.0909415
-0.000686109
0.0909195
-0.00152282
0.0911131
-0.00245868
0.0915346
-0.00352187
0.0921905
-0.00475307
0.0930915
-0.00621499
0.094254
-0.00798046
0.0956968
-0.0101233
0.0974393
-0.0127257
0.0994991
-0.015875
0.101888
-0.0196501
0.10461
-0.0241014
0.10766
-0.0292419
0.111011
-0.035033
0.114605
-0.041311
0.118341
-0.0477644
0.122079
-0.0539673
0.125671
-0.0594078
0.129008
-0.0635891
0.132041
-0.0660905
0.134786
-0.0667603
0.137302
-0.0656525
0.139658
-0.0630617
0.141909
-0.0592725
0.144083
-0.054711
0.146189
-0.049606
0.148225
-0.0443227
0.150176
-0.0388654
0.15202
-0.0335873
0.153744
-0.0283891
0.15534
-0.0236538
0.156809
-0.0190822
0.158162
-0.015172
0.159414
-0.0113835
0.160589
-0.00841988
0.161705
-0.00541223
0.162768
-0.00336942
0.163799
-0.00105076
0.164784
0.000148769
0.165747
0.00195598
0.166679
0.00257699
0.167572
0.00414407
0.168441
0.00418153
0.169297
0.00561079
0.170166
0.00538387
0.171045
0.00739212
0.171932
0.00770329
0.172787
0.0109118
0.173601
0.0118716
0.174327
0.0161418
0.174986
0.0173451
0.175532
0.0223919
0.17603
0.0235294
0.0294167
0.126209
0.00586728
0.124159
0.00532179
0.122327
0.00428216
0.120662
0.00331182
0.119225
0.00235027
0.117991
0.00131435
0.117112
0.000192026
0.116451
-0.000861187
0.11601
-0.00201823
0.115817
-0.00332842
0.115877
-0.00481335
0.116194
-0.00653204
0.116769
-0.00855494
0.117597
-0.0109512
0.118672
-0.0138011
0.119986
-0.0171895
0.121524
-0.0211878
0.12326
-0.025837
0.125152
-0.0311343
0.127135
-0.0370156
0.129136
-0.043312
0.131096
-0.0497244
0.132929
-0.0558003
0.134563
-0.0610419
0.135982
-0.0650082
0.137231
-0.0673396
0.138402
-0.0679318
0.139598
-0.0668478
0.140894
-0.0643577
0.142328
-0.0607064
0.143896
-0.0562799
0.145571
-0.0512809
0.147318
-0.0460693
0.1491
-0.0406478
0.15087
-0.0353568
0.152589
-0.0301087
0.154235
-0.0252995
0.155787
-0.0206341
0.157239
-0.0166238
0.158588
-0.0127328
0.159847
-0.00967861
0.161023
-0.00658838
0.162127
-0.00447329
0.163172
-0.00209633
0.164164
-0.000842894
0.16511
0.00101043
0.166028
0.00165875
0.1669
0.00327145
0.167746
0.00333614
0.168574
0.00478211
0.169416
0.00454217
0.170274
0.00653389
0.171159
0.00681893
0.172039
0.0100315
0.172913
0.0109975
0.173737
0.0153179
0.174528
0.0165539
0.17524
0.0216798
0.175927
0.0228424
0.0288207
0.152874
0.00879546
0.15036
0.00783617
0.147897
0.00674479
0.145567
0.00564157
0.143488
0.00442913
0.14164
0.00316305
0.139963
0.00186834
0.138673
0.000429132
0.137621
-0.000966434
0.136764
-0.0024711
0.136128
-0.00417766
0.135729
-0.00613248
0.135563
-0.00838966
0.135616
-0.0110034
0.135863
-0.0140489
0.136279
-0.0176049
0.136824
-0.0217326
0.137449
-0.0264622
0.138094
-0.0317796
0.138682
-0.0376038
0.139133
-0.0437626
0.13938
-0.049971
0.139428
-0.0558491
0.139309
-0.0609229
0.139101
-0.0647996
0.13892
-0.0671587
0.138897
-0.0679093
0.139139
-0.0670891
0.1397
-0.0649194
0.140588
-0.0615937
0.141767
-0.0574587
0.143176
-0.0526904
0.144753
-0.0476467
0.146452
-0.0423461
0.148214
-0.037119
0.149981
-0.0318757
0.151716
-0.0270346
0.153388
-0.0223063
0.154981
-0.0182169
0.15648
-0.0142314
0.157887
-0.0110855
0.1592
-0.00790176
0.160429
-0.00570269
0.16158
-0.00324733
0.162674
-0.00193605
0.163687
-2.69434e-06
0.164681
0.000664494
0.16562
0.00233227
0.166525
0.00243147
0.167404
0.00390297
0.168291
0.0036551
0.169195
0.00562939
0.170137
0.0058778
0.171094
0.00907458
0.172071
0.0100199
0.173031
0.0143586
0.173987
0.0155973
0.174896
0.0207713
0.1758
0.0219379
0.0279797
0.170915
0.0114248
0.168384
0.0103671
0.165755
0.00937382
0.163241
0.00815604
0.160913
0.00675686
0.158752
0.00532409
0.156761
0.00385974
0.154892
0.00229793
0.153363
0.00056217
0.152055
-0.00116323
0.150887
-0.00300946
0.149897
-0.00514266
0.149082
-0.00757429
0.148417
-0.0103389
0.147874
-0.0135058
0.147413
-0.0171438
0.146984
-0.0213033
0.146527
-0.026005
0.145976
-0.0312291
0.145262
-0.0368895
0.144325
-0.0428257
0.143131
-0.0487775
0.141717
-0.0544349
0.140229
-0.0594346
0.138819
-0.06339
0.137641
-0.0659801
0.136828
-0.0670969
0.136467
-0.0667279
0.136583
-0.0650352
0.13715
-0.0621609
0.138111
-0.0584192
0.139385
-0.0539646
0.140895
-0.0491567
0.142573
-0.0440242
0.144367
-0.0389129
0.146213
-0.0337217
0.148063
-0.0288846
0.149877
-0.0241204
0.151633
-0.019973
0.153307
-0.0159054
0.154896
-0.0126741
0.15639
-0.00939619
0.157796
-0.00710823
0.159115
-0.00456626
0.160355
-0.00317668
0.161541
-0.00118827
0.162661
-0.00045544
0.163736
0.00125708
0.164772
0.00139589
0.165772
0.00290212
0.166774
0.00265335
0.167791
0.00461283
0.168849
0.00481937
0.169937
0.00798688
0.171065
0.0088916
0.1722
0.0132232
0.173358
0.0144399
0.174495
0.0196343
0.175646
0.0207863
0.026865
0.17784
0.0130428
0.175782
0.012425
0.173706
0.0114505
0.171624
0.0102376
0.169542
0.0088391
0.167512
0.00735419
0.165571
0.00580088
0.163719
0.00414978
0.161924
0.0023567
0.160405
0.000355591
0.15898
-0.00158395
0.157641
-0.00380398
0.156385
-0.0063184
0.155196
-0.00914932
0.154045
-0.0123552
0.152893
-0.0159915
0.15169
-0.020101
0.150386
-0.0247003
0.148928
-0.0297717
0.147277
-0.0352377
0.145411
-0.0409606
0.143349
-0.0467155
0.141142
-0.0522276
0.138888
-0.0571802
0.13675
-0.0612519
0.134934
-0.0641646
0.133602
-0.0657651
0.132822
-0.0659472
0.132603
-0.0648161
0.132908
-0.0624659
0.133673
-0.0591849
0.134816
-0.0551068
0.136253
-0.0505935
0.137908
-0.0456799
0.139719
-0.0407242
0.141623
-0.0356252
0.143572
-0.0308335
0.145518
-0.0260664
0.147434
-0.0218886
0.149286
-0.017758
0.151067
-0.0144552
0.152761
-0.0110904
0.154371
-0.00871795
0.155891
-0.00608652
0.157333
-0.0046186
0.15871
-0.00256515
0.160038
-0.00178365
0.161294
1.12335e-06
0.162517
0.000172917
0.163698
0.00172125
0.164875
0.00147634
0.166063
0.00342498
0.167295
0.00358697
0.168566
0.00671638
0.169891
0.00756644
0.171243
0.0118709
0.172637
0.0130459
0.174035
0.0182367
0.175463
0.0193579
0.0254481
0.195369
0.0143874
-0.196713
0.194498
0.0132959
0.193575
0.0123736
0.192625
0.0111877
0.191664
0.00979958
0.190713
0.00830535
0.189797
0.00671719
0.188929
0.00501721
0.18811
0.00317655
0.187233
0.001232
0.186501
-0.000851626
0.185909
-0.00321194
0.185385
-0.00579433
0.18493
-0.00869449
0.184528
-0.0119533
0.184144
-0.0156074
0.18373
-0.0196866
0.183224
-0.0241947
0.182556
-0.0291042
0.181652
-0.0343328
0.18044
-0.0397491
0.178875
-0.0451501
0.176941
-0.0502936
0.174662
-0.0549015
0.172113
-0.0587032
0.169398
-0.0614489
0.166642
-0.06301
0.163978
-0.0632829
0.161517
-0.0623551
0.159343
-0.0602919
0.157509
-0.0573509
0.156036
-0.0536332
0.154916
-0.0494741
0.154128
-0.0448921
0.153644
-0.0402396
0.153426
-0.0354069
0.153431
-0.0308392
0.153614
-0.0262496
0.153931
-0.0222054
0.154339
-0.018166
0.154803
-0.0149192
0.155291
-0.0115786
0.155779
-0.00920591
0.156246
-0.00655314
0.156679
-0.00505118
0.157073
-0.00295993
0.157417
-0.00212769
0.157719
-0.000300518
0.157964
-7.20463e-05
0.15815
0.0015355
0.158299
0.00132753
0.158417
0.00330632
0.158536
0.0034679
0.158663
0.00658934
0.158821
0.0074086
0.158998
0.0116939
0.159209
0.0128349
0.159426
0.01802
0.159667
0.0191169
0.0252149
0.20789
0.014747
-0.20825
0.207546
0.0136401
0.207293
0.0126261
0.20697
0.0115115
0.206547
0.0102217
0.206066