/*--------------------------------*- C++ -*----------------------------------*\
| =========                 |                                                 |
| \\      /  F ield         | OpenFOAM: The Open Source CFD Toolbox           |
|  \\    /   O peration     | Version:  2512                                  |
|   \\  /    A nd           | Website:  www.openfoam.com                      |
|    \\/     M anipulation  |                                                 |
\*---------------------------------------------------------------------------*/
FoamFile
{
    version     2.0;
    format      ascii;
    arch        "LSB;label=32;scalar=64";
    class       volScalarField;
    location    "97";
    object      p;
}
// * * * * * * * * * * * * * * * * * * * * * * * * * * * * * * * * * * * * * //

dimensions      [0 2 -2 0 0 0 0];

internalField   nonuniform List<scalar> 
13248
(
-0.352289
-0.350726
-0.347958
-0.344285
-0.340052
-0.335606
-0.331269
-0.327336
-0.32403
-0.321494
-0.319766
-0.318783
-0.318379
-0.318305
-0.318255
-0.317898
-0.316914
-0.315034
-0.31204
-0.307829
-0.302194
-0.295284
-0.285928
-0.274992
-0.360434
-0.358116
-0.354763
-0.350639
-0.34605
-0.34132
-0.336725
-0.332483
-0.328735
-0.32553
-0.322824
-0.320484
-0.31831
-0.316062
-0.313492
-0.310373
-0.306528
-0.301833
-0.29622
-0.289652
-0.282083
-0.273506
-0.26362
-0.253272
-0.370764
-0.367427
-0.363304
-0.358613
-0.353581
-0.348477
-0.343501
-0.338767
-0.334306
-0.330074
-0.325965
-0.321831
-0.317508
-0.312844
-0.307715
-0.30204
-0.29578
-0.288932
-0.281498
-0.273496
-0.264885
-0.255721
-0.245796
-0.235741
-0.383196
-0.378613
-0.373565
-0.36819
-0.362592
-0.356955
-0.351366
-0.345814
-0.340224
-0.334493
-0.328518
-0.322212
-0.315522
-0.308429
-0.300948
-0.293117
-0.284979
-0.276569
-0.26791
-0.259003
-0.249839
-0.240449
-0.230719
-0.221249
-0.39763
-0.391635
-0.385544
-0.379376
-0.373054
-0.36664
-0.360085
-0.353257
-0.346025
-0.338303
-0.330074
-0.321384
-0.312322
-0.302998
-0.29352
-0.283977
-0.274426
-0.264897
-0.255392
-0.2459
-0.236403
-0.226905
-0.217341
-0.208089
-0.413945
-0.406432
-0.399225
-0.392156
-0.384899
-0.377352
-0.369339
-0.360667
-0.351238
-0.341085
-0.330349
-0.319234
-0.307949
-0.296679
-0.285558
-0.274668
-0.26404
-0.253676
-0.243553
-0.233642
-0.223913
-0.214348
-0.204909
-0.195836
-0.431939
-0.422863
-0.414497
-0.40639
-0.397889
-0.388719
-0.378638
-0.367505
-0.355376
-0.342486
-0.329161
-0.315728
-0.30246
-0.289544
-0.277087
-0.265129
-0.253664
-0.242659
-0.23207
-0.221849
-0.211957
-0.202357
-0.193026
-0.184061
-0.45124
-0.440622
-0.431061
-0.421711
-0.411536
-0.400133
-0.387321
-0.373161
-0.35797
-0.342217
-0.326375
-0.310831
-0.295843
-0.281552
-0.268005
-0.255189
-0.243059
-0.231552
-0.220606
-0.21016
-0.200161
-0.190566
-0.181351
-0.172502
-0.471257
-0.459181
-0.448371
-0.437476
-0.42508
-0.410776
-0.394622
-0.377023
-0.358612
-0.340054
-0.321894
-0.304496
-0.28805
-0.272619
-0.258184
-0.24468
-0.232026
-0.220137
-0.208932
-0.198339
-0.188294
-0.178748
-0.169666
-0.16095
-0.49114
-0.477745
-0.465585
-0.452741
-0.437511
-0.419682
-0.399744
-0.37853
-0.356959
-0.335809
-0.315606
-0.29663
-0.278972
-0.26261
-0.24746
-0.233416
-0.220365
-0.208203
-0.196833
-0.18617
-0.176141
-0.166691
-0.157758
-0.149207
-0.509803
-0.495254
-0.481577
-0.466298
-0.447631
-0.425797
-0.401857
-0.377077
-0.352574
-0.329136
-0.307196
-0.286913
-0.268273
-0.251173
-0.235476
-0.221036
-0.207719
-0.195399
-0.183967
-0.173325
-0.163391
-0.154095
-0.145344
-0.137013
-0.526027
-0.510521
-0.495128
-0.476901
-0.454248
-0.428062
-0.40006
-0.371883
-0.34474
-0.319338
-0.295968
-0.274651
-0.255266
-0.237638
-0.22158
-0.206915
-0.193485
-0.181148
-0.169781
-0.159278
-0.149548
-0.140509
-0.13204
-0.124067
-0.333083
-0.33467
-0.335596
-0.336174
-0.336729
-0.337405
-0.338286
-0.33943
-0.340867
-0.342625
-0.344731
-0.347221
-0.350138
-0.353529
-0.357443
-0.361922
-0.366992
-0.372656
-0.378884
-0.385605
-0.392693
-0.399944
-0.407092
-0.41395
-0.334832
-0.335643
-0.336083
-0.336336
-0.336633
-0.337118
-0.337893
-0.339032
-0.340589
-0.342615
-0.345162
-0.348296
-0.352092
-0.356628
-0.361981
-0.368215
-0.375372
-0.383454
-0.39241
-0.40212
-0.412396
-0.422952
-0.433311
-0.443164
-0.336728
-0.336769
-0.336707
-0.336602
-0.336593
-0.336821
-0.337407
-0.33844
-0.339996
-0.342144
-0.344956
-0.348517
-0.352922
-0.358264
-0.364638
-0.372116
-0.380737
-0.390494
-0.40131
-0.413024
-0.425376
-0.437986
-0.450279
-0.461702
-0.338374
-0.337731
-0.337187
-0.336697
-0.336322
-0.336203
-0.336478
-0.337259
-0.33864
-0.340707
-0.343549
-0.347259
-0.35194
-0.357693
-0.36461
-0.372758
-0.382168
-0.392812
-0.404587
-0.417296
-0.430633
-0.444161
-0.457353
-0.469036
-0.339516
-0.338352
-0.337383
-0.336492
-0.335687
-0.335116
-0.334939
-0.335294
-0.336298
-0.338056
-0.340669
-0.344237
-0.348861
-0.354638
-0.361649
-0.369949
-0.379548
-0.390395
-0.402358
-0.415203
-0.428607
-0.442001
-0.455208
-0.466122
-0.34007
-0.338593
-0.337282
-0.335989
-0.334701
-0.33358
-0.332814
-0.332573
-0.333005
-0.334238
-0.336387
-0.339557
-0.343847
-0.349343
-0.356111
-0.364185
-0.373552
-0.384133
-0.395767
-0.408126
-0.420938
-0.433365
-0.445686
-0.454253
-0.340124
-0.338552
-0.336995
-0.335313
-0.333508
-0.331768
-0.330313
-0.329351
-0.329067
-0.329617
-0.331135
-0.333737
-0.337517
-0.342553
-0.34889
-0.356537
-0.365441
-0.37548
-0.386448
-0.398012
-0.40985
-0.420759
-0.431715
-0.437795
-0.33994
-0.33846
-0.336741
-0.334691
-0.332366
-0.329983
-0.327802
-0.326071
-0.325013
-0.324821
-0.32565
-0.327627
-0.330848
-0.335376
-0.341221
-0.348364
-0.35671
-0.366061
-0.37614
-0.386464
-0.396779
-0.405593
-0.414278
-0.417252
-0.339933
-0.338657
-0.336825
-0.334433
-0.331611
-0.328618
-0.32575
-0.323297
-0.321518
-0.320638
-0.320835
-0.322242
-0.324945
-0.328981
-0.334334
-0.340896
-0.348485
-0.35682
-0.365541
-0.374078
-0.382148
-0.388296
-0.393754
-0.39338
-0.340637
-0.339563
-0.337621
-0.334907
-0.33164
-0.328122
-0.324679
-0.321633
-0.319275
-0.317849
-0.317541
-0.318478
-0.320714
-0.324231
-0.328928
-0.334613
-0.341002
-0.347727
-0.354364
-0.360387
-0.365491
-0.368651
-0.370632
-0.367329
-0.34262
-0.341632
-0.339526
-0.3365
-0.332853
-0.328918
-0.325046
-0.321574
-0.318801
-0.316971
-0.316253
-0.316733
-0.318408
-0.321178
-0.324845
-0.32912
-0.333636
-0.33798
-0.341719
-0.344486
-0.346046
-0.34608
-0.345134
-0.340285
-0.346395
-0.345264
-0.342889
-0.339541
-0.335566
-0.331316
-0.327148
-0.323388
-0.320318
-0.318148
-0.317
-0.316892
-0.31774
-0.319354
-0.321455
-0.323692
-0.325675
-0.327017
-0.327353
-0.326466
-0.324134
-0.32059
-0.316148
-0.310628
-0.421701
-0.428154
-0.430946
-0.426649
-0.416051
-0.397881
-0.372198
-0.339913
-0.303459
-0.265925
-0.230821
-0.201357
-0.179996
-0.168535
-0.167851
-0.176954
-0.191919
-0.205891
-0.210405
-0.203419
-0.182019
-0.152961
-0.124235
-0.101582
-0.087393
-0.0814144
-0.0823047
-0.09
-0.10623
-0.129888
-0.152386
-0.161404
-0.152049
-0.128946
-0.102731
-0.0816469
-0.0685145
-0.0619102
-0.0616532
-0.0696201
-0.0830184
-0.0923241
-0.0892621
-0.0772904
-0.0644476
-0.0547139
-0.0493897
-0.0497253
-0.0547388
-0.0588408
-0.0556153
-0.0496762
-0.0430272
-0.0355296
-0.0314018
-0.0273581
-0.0237048
-0.0237515
-0.0191238
-0.00511104
-0.454769
-0.463388
-0.466849
-0.46346
-0.451945
-0.431318
-0.401636
-0.364176
-0.321594
-0.277519
-0.235776
-0.199706
-0.171789
-0.153582
-0.145971
-0.14864
-0.158798
-0.170664
-0.176859
-0.172624
-0.156816
-0.134028
-0.111076
-0.0933076
-0.0832237
-0.0807186
-0.084689
-0.095623
-0.115503
-0.142603
-0.167162
-0.175393
-0.164138
-0.137794
-0.108261
-0.0841554
-0.0683766
-0.0594597
-0.0568223
-0.0620227
-0.0730209
-0.0811191
-0.0789313
-0.0693894
-0.0596046
-0.0526816
-0.0497693
-0.0527838
-0.0600575
-0.0657727
-0.0618436
-0.0540704
-0.0455595
-0.0360262
-0.0304677
-0.0245013
-0.0203533
-0.0201434
-0.0161273
-0.00429372
-0.476038
-0.486309
-0.490318
-0.48715
-0.475017
-0.452712
-0.42024
-0.378993
-0.331806
-0.282566
-0.235397
-0.193895
-0.160509
-0.136598
-0.122833
-0.119233
-0.124183
-0.133285
-0.140143
-0.139045
-0.128829
-0.112383
-0.0953944
-0.0827629
-0.0769959
-0.0780512
-0.0851041
-0.099141
-0.122278
-0.152361
-0.178788
-0.18623
-0.17393
-0.144906
-0.112554
-0.0858427
-0.0677155
-0.0567057
-0.0518829
-0.0544388
-0.0630748
-0.0699713
-0.068559
-0.0613306
-0.0544617
-0.0502756
-0.0498373
-0.0556528
-0.0652843
-0.0726424
-0.0679875
-0.0582505
-0.0478593
-0.0363926
-0.0295364
-0.02177
-0.0170907
-0.0165445
-0.0131311
-0.00348155
-0.484771
-0.495918
-0.50038
-0.497405
-0.485064
-0.461957
-0.42803
-0.384679
-0.334778
-0.282349
-0.231677
-0.186375
-0.148823
-0.120253
-0.1012
-0.0917846
-0.0912115
-0.0966586
-0.103062
-0.105104
-0.0993589
-0.0889266
-0.0777589
-0.0702227
-0.0686886
-0.0731265
-0.0829927
-0.0997146
-0.125581
-0.158253
-0.186695
-0.196323
-0.181336
-0.15012
-0.115519
-0.0867165
-0.0666295
-0.0537985
-0.0470465
-0.0471743
-0.0535485
-0.059231
-0.058451
-0.0532982
-0.0491106
-0.0475182
-0.0495327
-0.0581927
-0.070244
-0.0792844
-0.0739391
-0.062163
-0.0498956
-0.0366154
-0.0286034
-0.0191792
-0.0139398
-0.0129911
-0.0101607
-0.00268191
-0.48216
-0.492677
-0.497346
-0.494811
-0.482706
-0.45959
-0.425554
-0.381972
-0.33161
-0.278384
-0.226448
-0.179254
-0.139043
-0.106938
-0.0834175
-0.0687012
-0.062574
-0.0635205
-0.0680013
-0.071293
-0.0695302
-0.0646347
-0.0587979
-0.0559703
-0.058268
-0.0656986
-0.077966
-0.0968663
-0.124925
-0.159775
-0.190128
-0.201002
-0.185827
-0.153361
-0.117193
-0.0868529
-0.0652272
-0.0508801
-0.0424864
-0.040445
-0.0447113
-0.0492042
-0.0492317
-0.0454671
-0.0436378
-0.0444184
-0.0487849
-0.0602635
-0.0747503
-0.0854976
-0.0795622
-0.0657509
-0.0516464
-0.0366863
-0.027662
-0.0167395
-0.0109198
-0.00951661
-0.00724049
-0.00190179
-0.467084
-0.477692
-0.482669
-0.480896
-0.469381
-0.446987
-0.414147
-0.372134
-0.323465
-0.271759
-0.2208
-0.173689
-0.132456
-0.0981241
-0.0711277
-0.0517688
-0.0402509
-0.0361057
-0.037331
-0.0403518
-0.040824
-0.0406374
-0.039251
-0.0403952
-0.0459106
-0.0558306
-0.0700386
-0.0905937
-0.120247
-0.156843
-0.188965
-0.201269
-0.18724
-0.154586
-0.117632
-0.0863286
-0.0635935
-0.0480431
-0.0382993
-0.0343922
-0.0367473
-0.0400852
-0.0403038
-0.0379701
-0.0381217
-0.0409938
-0.0475403
-0.0617343
-0.0786042
-0.0910766
-0.0847256
-0.0689657
-0.0530947
-0.0365969
-0.0266989
-0.014456
-0.00804509
-0.00615083
-0.00439107
-0.00114746
-0.447833
-0.45465
-0.459098
-0.457947
-0.447143
-0.42615
-0.395722
-0.35687
-0.311732
-0.26347
-0.215345
-0.170009
-0.129239
-0.0939899
-0.0646909
-0.0416604
-0.0253172
-0.0159253
-0.0128505
-0.0141194
-0.0173383
-0.0180584
-0.019855
-0.0240514
-0.0320467
-0.0438635
-0.0594982
-0.0811771
-0.111843
-0.149699
-0.183466
-0.197407
-0.185603
-0.153811
-0.116909
-0.0852151
-0.0617876
-0.0453438
-0.0345307
-0.0290614
-0.0297319
-0.0320073
-0.0322342
-0.0309716
-0.0326538
-0.0372872
-0.0457658
-0.0624901
-0.0816226
-0.0958428
-0.089305
-0.071762
-0.0542271
-0.0363427
-0.0257012
-0.0123245
-0.00532315
-0.00292004
-0.00162824
-0.000424861
-0.422737
-0.425302
-0.429033
-0.428254
-0.418285
-0.399418
-0.372489
-0.338059
-0.29781
-0.254346
-0.210333
-0.167977
-0.12882
-0.0937755
-0.0633252
-0.0378013
-0.017649
-0.00345431
0.00446259
0.00674706
0.00524756
0.00286878
-0.00111748
-0.00743746
-0.0171477
-0.0302426
-0.0468115
-0.0691619
-0.100333
-0.138972
-0.174212
-0.18982
-0.181143
-0.15112
-0.115084
-0.0835623
-0.0598424
-0.0428106
-0.0311972
-0.0244608
-0.0236754
-0.0250035
-0.0251387
-0.0246039
-0.027334
-0.0333596
-0.0434615
-0.0624458
-0.0836643
-0.0996556
-0.0931805
-0.0740995
-0.0550405
-0.0359253
-0.0246723
-0.0103447
-0.00275397
0.000154654
0.00103686
0.000259755
-0.393279
-0.391919
-0.395179
-0.394563
-0.385614
-0.369559
-0.346899
-0.317632
-0.282995
-0.245006
-0.205735
-0.166995
-0.13016
-0.0961377
-0.0655018
-0.0386391
-0.0159545
0.0019826
0.0144628
0.0211322
0.022723
0.0209827
0.016393
0.00901732
-0.00164236
-0.0154278
-0.0325
-0.0551909
-0.0865992
-0.125713
-0.16219
-0.179026
-0.174331
-0.14675
-0.112347
-0.0815466
-0.0579009
-0.0405571
-0.0283725
-0.0206197
-0.0185801
-0.0190685
-0.0190341
-0.0189481
-0.022262
-0.0292903
-0.0406198
-0.0615552
-0.0846519
-0.102413
-0.0962542
-0.0759621
-0.0555647
-0.0353651
-0.0236292
-0.00854844
-0.000342123
0.00305734
0.00359822
0.000899895
-0.361876
-0.358094
-0.36127
-0.360416
-0.352652
-0.339837
-0.321686
-0.297711
-0.268767
-0.236298
-0.201838
-0.166867
-0.132641
-0.100102
-0.0699405
-0.0426214
-0.0185296
0.00189847
0.0179794
0.0289176
0.0344449
0.0352379
0.0318215
0.0247267
0.0139191
-5.29558e-05
-0.0173124
-0.0401509
-0.0715004
-0.110695
-0.148511
-0.165497
-0.165805
-0.141158
-0.109154
-0.0796041
-0.0563131
-0.0388379
-0.0262251
-0.0176023
-0.0144286
-0.0141843
-0.0139447
-0.0140332
-0.017499
-0.0251524
-0.03734
-0.0598181
-0.0845134
-0.104033
-0.0984689
-0.0773554
-0.0558479
-0.0346969
-0.0225625
-0.00696565
0.00188546
0.005762
0.00605446
0.00148885
-0.332149
-0.328432
-0.331162
-0.329388
-0.322898
-0.313309
-0.299429
-0.280511
-0.257038
-0.229907
-0.200176
-0.169002
-0.137514
-0.106693
-0.0773174
-0.049899
-0.0249453
-0.00289877
0.0157307
0.0303027
0.0400002
0.0447075
0.0438968
0.0386039
0.0287717
0.0153256
-0.00171066
-0.0245093
-0.0559175
-0.0955122
-0.134826
-0.166021
-0.1562
-0.134161
-0.105289
-0.0775567
-0.054882
-0.0374263
-0.0245544
-0.0152066
-0.01097
-0.01008
-0.00977904
-0.00961313
-0.0132178
-0.021012
-0.0334972
-0.057223
-0.0833925
-0.104508
-0.0996327
-0.0781567
-0.0557928
-0.0338662
-0.0213852
-0.00547782
0.00393886
0.00822401
0.00840427
0.00202091
-0.305873
-0.305195
-0.305647
-0.30152
-0.295449
-0.287873
-0.277102
-0.262312
-0.243568
-0.221292
-0.196139
-0.168928
-0.140569
-0.111975
-0.083979
-0.0572625
-0.0324081
-0.00989283
0.00986135
0.0263676
0.0391249
0.0477403
0.0514034
0.048722
0.0409104
0.028793
0.0125493
-0.00963979
-0.0402595
-0.078848
-0.11736
-0.143782
-0.141135
-0.123395
-0.0982126
-0.0729126
-0.0514734
-0.0345923
-0.0220129
-0.0124705
-0.00755189
-0.00610171
-0.00588532
-0.00618222
-0.00939699
-0.0172092
-0.029572
-0.0538954
-0.0809946
-0.103775
-0.0993936
-0.07803
-0.0550144
-0.0325884
-0.019966
-0.00378652
0.00598383
0.0105288
0.0106386
0.00248254
-0.282053
-0.29223
-0.289787
-0.282873
-0.275571
-0.267563
-0.257151
-0.243286
-0.225829
-0.205174
-0.181938
-0.15683
-0.130615
-0.104071
-0.0779167
-0.0527568
-0.0291037
-0.00739692
0.0120024
0.0287332
0.0423355
0.0526568
0.0578454
0.0579027
0.0525711
0.0422654
0.027178
0.00526561
-0.0266749
-0.0681415
-0.108751
-0.136082
-0.131604
-0.113503
-0.0894388
-0.0658273
-0.0459493
-0.0301936
-0.0183562
-0.0091512
-0.00415919
-0.00232001
-0.00189585
-0.00183759
-0.00423428
-0.0117428
-0.0239972
-0.0494331
-0.0784503
-0.103641
-0.100156
-0.0775027
-0.0536529
-0.030877
-0.0184534
-0.00195885
0.00798393
0.0128855
0.0127407
0.00287016
-0.256466
-0.270002
-0.26821
-0.260028
-0.251573
-0.243311
-0.233497
-0.220798
-0.204939
-0.18631
-0.165483
-0.143036
-0.119549
-0.0956236
-0.0718557
-0.0487842
-0.0268864
-0.00656609
0.0118484
0.0280846
0.0417647
0.0518005
0.0586749
0.060594
0.0571878
0.0486811
0.0350329
0.0138374
-0.0183058
-0.0597691
-0.0982972
-0.117331
-0.116577
-0.100252
-0.0789632
-0.0581739
-0.0404219
-0.026072
-0.0151591
-0.00641577
-0.00140798
0.000653835
0.00101589
0.00104439
-0.000904903
-0.00776683
-0.0196094
-0.0454538
-0.0756312
-0.101832
-0.0986843
-0.0756366
-0.0516564
-0.0289043
-0.0166807
-0.000244811
0.00959316
0.0149313
0.0144354
0.00319614
-0.232745
-0.246624
-0.245812
-0.237821
-0.229132
-0.221003
-0.211966
-0.200589
-0.186456
-0.169866
-0.151321
-0.13129
-0.110226
-0.0886127
-0.0669621
-0.0457667
-0.0254721
-0.0064634
0.0109377
0.0264682
0.0398261
0.0499761
0.0570847
0.0598175
0.0575059
0.0501035
0.0373436
0.0167389
-0.0142281
-0.0522802
-0.0856143
-0.101827
-0.100649
-0.0868484
-0.0687744
-0.0508197
-0.0351154
-0.0220866
-0.0120505
-0.00381776
0.00111274
0.00335541
0.00368292
0.00375927
0.00195442
-0.00469312
-0.0164169
-0.0422248
-0.0722472
-0.0982989
-0.0958514
-0.0729705
-0.0492171
-0.0267047
-0.014737
0.00142831
0.0111342
0.0168284
0.0159098
0.003507
-0.211324
-0.223988
-0.223936
-0.216825
-0.208511
-0.20068
-0.19232
-0.1821
-0.169505
-0.154722
-0.138186
-0.120305
-0.101451
-0.0820124
-0.062413
-0.0430823
-0.0244236
-0.00680069
0.00947126
0.0241309
0.0370547
0.0467602
0.0538128
0.0570025
0.0554903
0.0489927
0.0371355
0.0177891
-0.0103737
-0.0434613
-0.0716208
-0.0854447
-0.0845371
-0.0734954
-0.0586264
-0.0434783
-0.0298431
-0.018158
-0.00901702
-0.00135905
0.00342279
0.00582777
0.0062393
0.00640679
0.00479267
-0.00175
-0.0133673
-0.0386129
-0.0677433
-0.0934788
-0.091871
-0.069524
-0.0462918
-0.0242776
-0.0126132
0.00307066
0.0126124
0.0185578
0.0172271
0.00380669
-0.190854
-0.202489
-0.203028
-0.196892
-0.189218
-0.181836
-0.174134
-0.164974
-0.153803
-0.140704
-0.126034
-0.110149
-0.0933566
-0.075966
-0.0583235
-0.0407991
-0.0237596
-0.00755153
0.0075047
0.0210802
0.0326155
0.0424718
0.0493852
0.052794
0.0519209
0.0463614
0.0357532
0.0185497
-0.00577093
-0.0336109
-0.0569784
-0.0688052
-0.0687911
-0.0606087
-0.0488711
-0.0363951
-0.0247502
-0.0143731
-0.00609771
0.000956877
0.0055341
0.00806611
0.00864384
0.00891005
0.00760908
0.00131838
-0.00984906
-0.0340662
-0.0621494
-0.0873777
-0.0865961
-0.0652081
-0.0428731
-0.0216347
-0.0103368
0.00468242
0.0139953
0.0200735
0.0183701
0.00408489
-0.171672
-0.182437
-0.183316
-0.178038
-0.171116
-0.164334
-0.157335
-0.14918
-0.139333
-0.127795
-0.114848
-0.100796
-0.0859017
-0.0704153
-0.0546209
-0.0388355
-0.0233885
-0.00860356
0.00521095
0.0177392
0.0285997
0.0376828
0.0442644
0.0477346
0.0474118
0.0428561
0.0337606
0.0191482
-0.00100441
-0.023678
-0.0427553
-0.0530943
-0.0542357
-0.0487084
-0.0397777
-0.0296942
-0.0198928
-0.0107714
-0.0033201
0.00312683
0.00745764
0.010064
0.0108745
0.0112915
0.0103907
0.00453697
-0.00583566
-0.0287295
-0.0555568
-0.07991
-0.0799935
-0.0600179
-0.0389806
-0.0188002
-0.00794172
0.00626307
0.0152581
0.0213325
0.0192829
0.00433276
-0.154152
-0.163809
-0.164833
-0.160332
-0.154209
-0.148114
-0.14185
-0.134646
-0.126011
-0.115902
-0.104533
-0.0921623
-0.0790141
-0.0652962
-0.0512422
-0.0371206
-0.0232212
-0.00983969
0.00273498
0.0142068
0.0242513
0.0326041
0.0387786
0.0422292
0.0423911
0.0388405
0.0313464
0.0194103
0.0032926
-0.014702
-0.0301566
-0.0393162
-0.0414476
-0.0380896
-0.0315096
-0.0234831
-0.0153355
-0.00739609
-0.00071731
0.00514422
0.00920701
0.0118378
0.0129285
0.0135748
0.0131251
0.00785382
-0.00152434
-0.0227872
-0.0480079
-0.0711689
-0.0721459
-0.0540014
-0.0346538
-0.015809
-0.00547037
0.00781409
0.0163821
0.0222929
0.0199101
0.00455004
-0.137896
-0.146483
-0.147625
-0.143842
-0.138501
-0.133111
-0.127578
-0.121267
-0.113741
-0.104933
-0.0950068
-0.0841775
-0.0726358
-0.0605558
-0.0481299
-0.035584
-0.0231702
-0.0111542
0.000197703
0.0106085
0.0197851
0.0274319
0.0331728
0.0365554
0.0371289
0.0345275
0.0286082
0.0191773
0.00659126
-0.00747829
-0.0199044
-0.027918
-0.0306351
-0.0288731
-0.024157
-0.0178368
-0.0111263
-0.00427711
0.00168312
0.00700195
0.0107932
0.0134134
0.0148045
0.0157737
0.015798
0.0112335
0.0030061
-0.0162887
-0.0396505
-0.0613805
-0.0632225
-0.0472678
-0.0299586
-0.0127061
-0.00297066
0.00934007
0.0173565
0.0228941
0.0202161
0.00474547
-0.122779
-0.130496
-0.131735
-0.128582
-0.123965
-0.119255
-0.114425
-0.108946
-0.102434
-0.0948107
-0.0861995
-0.0767788
-0.0667097
-0.0561387
-0.0452251
-0.0341584
-0.0231557
-0.0124533
-0.00229102
0.00707749
0.0153844
0.0223435
0.0276481
0.0309323
0.0318477
0.0301037
0.0256148
0.0183421
0.00866413
-0.00219834
-0.0120048
-0.0188446
-0.0217485
-0.0210505
-0.0177409
-0.0127963
-0.00730044
-0.00143561
0.00385857
0.00868846
0.0122217
0.014811
0.0164986
0.0178827
0.018421
0.0147193
0.00778768
-0.00934058
-0.0307566
-0.050866
-0.0535028
-0.0400003
-0.0249893
-0.00954359
-0.000491149
0.0108466
0.0181883
0.0231887
0.0201993
0.00493673
-0.108978
-0.115848
-0.117108
-0.114497
-0.110545
-0.106478
-0.10231
-0.0976022
-0.0920142
-0.085464
-0.0780454
-0.0699056
-0.0611802
-0.0519922
-0.0424739
-0.032784
-0.0231078
-0.0136517
-0.00462888
0.00373331
0.0111932
0.0174919
0.022372
0.02554
0.0267309
0.0257206
0.0224587
0.0169865
0.00966156
0.00139952
-0.00610977
-0.0118205
-0.0146016
-0.0145344
-0.0122373
-0.00837543
-0.00388216
0.00111523
0.00579507
0.0101851
0.0134937
0.0160449
0.0180027
0.0198535
0.0210303
0.0183895
0.0128098
-0.00219981
-0.0217236
-0.0400595
-0.0433612
-0.0324464
-0.0198689
-0.00637833
0.00192501
0.0123362
0.0189062
0.0231871
0.0199022
0.00515218
-0.0963917
-0.102416
-0.103657
-0.101535
-0.0981962
-0.0947246
-0.0911689
-0.0871642
-0.0824119
-0.076829
-0.070486
-0.0635041
-0.0559976
-0.0480692
-0.039829
-0.0314089
-0.0229655
-0.0146759
-0.00672662
0.000678782
0.00732847
0.0129998
0.0174735
0.0205124
0.0219155
0.0215143
0.0192856
0.0153008
0.00987694
0.00368934
-0.00221585
-0.00656015
-0.00896896
-0.00919902
-0.00759488
-0.00456585
-0.00088353
0.00336699
0.00748896
0.0114726
0.0145973
0.0171241
0.0193133
0.0215984
0.0235829
0.0221914
0.0179005
0.00472594
-0.0130557
-0.0294608
-0.0332175
-0.0248938
-0.0147462
-0.00327009
0.00424399
0.0138029
0.0195626
0.0229703
0.0194281
0.00543152
-0.0848399
-0.0901395
-0.0913677
-0.0896681
-0.0868738
-0.0839421
-0.0809415
-0.0775697
-0.073566
-0.0688483
-0.0634688
-0.0575267
-0.0511181
-0.0443288
-0.0372494
-0.0299888
-0.0226782
-0.0154684
-0.00852099
-0.0020098
0.00388168
0.0089623
0.013047
0.0159464
0.0175074
0.017605
0.0162327
0.0134681
0.00958802
0.00508454
0.000686063
-0.00265043
-0.00459892
-0.00490495
-0.00374643
-0.00134234
0.00169606
0.005315
0.00894156
0.0125434
0.0155106
0.0180358
0.0204217
0.0230334
0.0257828
0.0257226
0.0225573
0.0109085
-0.00518766
-0.0195183
-0.0235096
-0.0176505
-0.00979021
-0.000281989
0.00643884
0.0152209
0.0202225
0.0226668
0.0189444
0.00581906
-0.0743388
-0.0790091
-0.08019
-0.078839
-0.0765194
-0.0740695
-0.0715666
-0.0687589
-0.0654195
-0.0614696
-0.0569468
-0.0519318
-0.0465048
-0.040737
-0.0347026
-0.0284909
-0.0222107
-0.0159885
-0.00996123
-0.00427666
0.00091072
0.00543981
0.0091569
0.011909
0.0135789
0.0140748
0.0133985
0.0116244
0.00898194
0.00582871
0.00268299
0.000216374
-0.00126002
-0.00150999
-0.000614872
0.00133222
0.00386833
0.00696036
0.0101539
0.0134011
0.0162175
0.0187421
0.0212792
0.0241054
0.0273558
0.0283312
0.0260426
0.0158587
0.00161636
-0.0106135
-0.0146585
-0.0110036
-0.00517353
0.00252221
0.00848089
0.0165327
0.0209404
0.0224219
0.0186519
0.00634391
-0.0648362
-0.0689063
-0.0700216
-0.0689725
-0.0670729
-0.0650501
-0.0629874
-0.060677
-0.0579218
-0.0546476
-0.05088
-0.0466846
-0.042128
-0.0372685
-0.0321665
-0.0268943
-0.0215408
-0.0162106
-0.0110188
-0.0060912
-0.00155326
0.0024668
0.0058376
0.00843442
0.0101677
0.010969
0.0108464
0.00986307
0.00819653
0.00612212
0.00398741
0.00226895
0.00124222
0.00112169
0.00188152
0.00350352
0.00565333
0.00831086
0.0111288
0.0140516
0.0167106
0.019207
0.0218105
0.0247358
0.0280561
0.0295536
0.0278828
0.0193106
0.00716918
-0.00308059
-0.00701744
-0.00516996
-0.00104302
0.0050874
0.0103352
0.0176441
0.0217225
0.022404
0.018714
0.00698741
-0.0562317
-0.0597681
-0.0608221
-0.0600153
-0.0584768
-0.0568289
-0.0551507
-0.053273
-0.0510263
-0.0483409
-0.0452335
-0.0417566
-0.0379646
-0.0339054
-0.0296275
-0.025189
-0.0206614
-0.0161294
-0.011689
-0.00744415
-0.00349474
5.55632e-05
0.0030978
0.00553075
0.00728501
0.00831032
0.0086133
0.00824227
0.00733901
0.00611184
0.00477516
0.00368651
0.00307241
0.00311595
0.00382504
0.00522251
0.00707771
0.00938033
0.0118723
0.0145001
0.0169871
0.0194071
0.0219695
0.0248883
0.0278579
0.0294171
0.0281583
0.0212728
0.011332
0.00287116
-0.000803473
-0.000264057
0.00250902
0.00737075
0.0119639
0.018442
0.0224638
0.0227906
0.0191767
0.00765763
-0.0484419
-0.0515125
-0.0525008
-0.0519051
-0.0506705
-0.0493422
-0.0479988
-0.0464962
-0.0446886
-0.0425124
-0.039977
-0.0371242
-0.0339982
-0.0306377
-0.0270816
-0.0233754
-0.0195759
-0.0157518
-0.0119809
-0.00834477
-0.00492573
-0.00180621
0.000923731
0.0031847
0.00492221
0.00609667
0.00671255
0.00680581
0.00648176
0.00586373
0.00518372
0.00462099
0.00437103
0.00458633
0.00529591
0.00654217
0.00817349
0.0101873
0.0123945
0.0147536
0.0170523
0.0193394
0.0217316
0.0241517
0.0269194
0.0283171
0.027319
0.0219899
0.0141312
0.00727377
0.00398165
0.00370874
0.00545842
0.00933101
0.0133291
0.0188535
0.0229462
0.0235429
0.0198714
0.00819842
-0.0414245
-0.0440827
-0.0450014
-0.0445827
-0.0436064
-0.0425423
-0.0414836
-0.0403016
-0.0388698
-0.0371297
-0.0350854
-0.0327694
-0.0302177
-0.0274617
-0.0245318
-0.021463
-0.0183
-0.0150966
-0.0119143
-0.00881874
-0.00587621
-0.00315078
-0.000716092
0.0013664
0.00305315
0.0043118
0.00514573
0.00558002
0.00568933
0.00555912
0.00535174
0.00520301
0.0052574
0.00563334
0.00637015
0.00751569
0.0089755
0.0107537
0.0127109
0.0148217
0.01692
0.0190367
0.0212162
0.0233619
0.025564
0.0266896
0.0258588
0.0218364
0.0157938
0.0103568
0.00750558
0.00681476
0.00783448
0.0109225
0.0143873
0.0188876
0.0229412
0.0240239
0.0203413
0.00843608
-0.0351147
-0.0374057
-0.0382532
-0.03798
-0.0372361
-0.036415
-0.0355798
-0.0346568
-0.0335358
-0.0321624
-0.0305348
-0.0286772
-0.0266174
-0.0243795
-0.0219874
-0.0194682
-0.0168563
-0.0141925
-0.0115251
-0.00890416
-0.00637624
-0.00402093
-0.00186667
3.23794e-05
0.00164015
0.00293006
0.00390188
0.00457285
0.0049842
0.00521467
0.00536464
0.00553391
0.00583113
0.00634502
0.00711789
0.00819496
0.00952026
0.0111039
0.0128415
0.0147223
0.0166122
0.0185314
0.0204654
0.0223043
0.0239989
0.0248524
0.0241469
0.021165
0.0166235
0.0124025
0.00999561
0.00914746
0.00968679
0.0121116
0.0150846
0.01859
0.0223429
0.0237988
0.0200673
0.00825805
-0.0294414
-0.0314119
-0.0321905
-0.0320328
-0.0314768
-0.0308534
-0.030227
-0.0295217
-0.0286547
-0.0275862
-0.0263084
-0.024837
-0.0231935
-0.0213962
-0.0194631
-0.0174141
-0.0152755
-0.013078
-0.0108586
-0.0086582
-0.00651748
-0.00448174
-0.00258349
-0.000866347
0.000639233
0.00191407
0.00295454
0.00376681
0.00439756
0.00487914
0.0052882
0.00569224
0.00617379
0.00679709
0.00760254
0.00862893
0.00984501
0.0112648
0.0128096
0.0144779
0.0161581
0.0178631
0.0195483
0.0210849
0.02237
0.0229979
0.0224049
0.0202285
0.016877
0.0136582
0.0116715
0.0108124
0.011064
0.012893
0.0153823
0.0179969
0.0211566
0.0225735
0.0188272
0.00768246
-0.0243516
-0.0260437
-0.0267557
-0.0266894
-0.0262878
-0.025829
-0.0253712
-0.0248555
-0.0242086
-0.023388
-0.0223939
-0.0212414
-0.0199476
-0.0185216
-0.0169763
-0.0153263
-0.0135909
-0.0117932
-0.00996153
-0.00812725
-0.00632314
-0.00457593
-0.00292301
-0.00138644
-1.86392e-06
0.00122406
0.00228614
0.0031835
0.00394298
0.00458791
0.00517227
0.00573959
0.00635181
0.00705364
0.00788062
0.00886375
0.00998713
0.0112659
0.0126398
0.0141129
0.0155899
0.0170763
0.0184747
0.0197837
0.0207649
0.0212284
0.0207456
0.0191785
0.0167406
0.0143224
0.0127209
0.0119168
0.0120072
0.0132951
0.0152886
0.0171595
0.0195176
0.0205287
0.0168402
0.00683238
-0.0197951
-0.021244
-0.0218918
-0.0218968
-0.0216215
-0.0212979
-0.0209775
-0.0206133
-0.0201442
-0.0195359
-0.0187836
-0.0178965
-0.0168863
-0.0157663
-0.0145453
-0.0132306
-0.0118369
-0.0103803
-0.00888096
-0.00736215
-0.0058483
-0.00436277
-0.00293142
-0.00158119
-0.000318063
0.000832702
0.00187182
0.00279585
0.00362072
0.00436022
0.00505199
0.00572287
0.00641832
0.00716814
0.00800177
0.00894261
0.00998297
0.0111371
0.0123583
0.0136541
0.0149424
0.0162289
0.0174097
0.0184831
0.0192373
0.0195897
0.0192143
0.0180983
0.0163461
0.0145511
0.0132888
0.0125614
0.012554
0.0133718
0.0148651
0.0161337
0.0174728
0.018045
0.0145111
0.00586095
-0.0157209
-0.0169588
-0.0175462
-0.017606
-0.0174332
-0.0172196
-0.0170101
-0.0167677
-0.0164421
-0.0160037
-0.0154467
-0.0147775
-0.0140058
-0.0131393
-0.0121845
-0.0111499
-0.0100441
-0.00887808
-0.00766266
-0.00641699
-0.00515958
-0.00390909
-0.00268415
-0.00150097
-0.000371913
0.000688368
0.00167515
0.00258435
0.00342596
0.00420657
0.00495172
0.00567711
0.00641516
0.00718479
0.00800888
0.008904
0.00986658
0.0109083
0.0119929
0.0131289
0.0142455
0.0153514
0.0163412
0.0172243
0.0178147
0.0180951
0.0178186
0.0170328
0.0157851
0.0144611
0.0134857
0.0128431
0.0127506
0.0131878
0.0141983
0.0149878
0.0155209
0.0154978
0.0121858
0.00489572
-0.0120839
-0.0131398
-0.0136712
-0.0137722
-0.0136814
-0.0135562
-0.0134356
-0.0132902
-0.0130791
-0.012777
-0.0123781
-0.0118867
-0.0113097
-0.0106523
-0.00991901
-0.009114
-0.00824355
-0.00731607
-0.00634499
-0.00533709
-0.0043026
-0.00325873
-0.00221912
-0.00119657
-0.000202551
0.000752577
0.00166448
0.00252851
0.00334993
0.00413061
0.00488707
0.00562769
0.00637466
0.00713927
0.00793813
0.00878213
0.00966928
0.0106081
0.0115701
0.0125633
0.0135276
0.0144735
0.015303
0.0160336
0.0165072
0.0167408
0.0165505
0.0160034
0.0151196
0.0141379
0.0133914
0.0127139
0.0126463
0.012802
0.0133715
0.0137615
0.0136805
0.0131268
0.0100703
0.00401731
-0.00884446
-0.00974348
-0.0102228
-0.0103539
-0.0103279
-0.0102731
-0.0102227
-0.0101538
-0.0100331
-0.0098395
-0.00956717
-0.00921884
-0.00879937
-0.0083123
-0.00776022
-0.00714552
-0.00647214
-0.00574564
-0.00497369
-0.00416329
-0.00332453
-0.00246517
-0.00159514
-0.000724507
0.000137721
0.000983101
0.00180723
0.0026055
0.0033802
0.00413066
0.0048667
0.00559204
0.00632108
0.00705983
0.00781955
0.00860648
0.00941885
0.0102626
0.011114
0.0119804
0.0128115
0.0136187
0.0143161
0.0149242
0.0153145
0.0155169
0.0153976
0.0150194
0.0143915
0.0136428
0.0129782
0.0124852
0.0123331
0.0122694
0.0124573
0.0125064
0.0119971
0.0110459
0.00825255
0.00326235
-0.00596562
-0.00672973
-0.00716117
-0.00731336
-0.00733797
-0.00733859
-0.00734298
-0.00733362
-0.00728354
-0.00717524
-0.00700327
-0.00676917
-0.00647622
-0.0061267
-0.00572202
-0.00526324
-0.00475253
-0.00419305
-0.00358974
-0.00294805
-0.00227539
-0.0015767
-0.000858576
-0.000127644
0.000608635
0.00134347
0.00207275
0.00279222
0.00350229
0.00420105
0.00489374
0.0055811
0.00627178
0.00696823
0.00767715
0.00840179
0.00913939
0.00989378
0.0106455
0.0114
0.0121154
0.0128036
0.0133926
0.0139019
0.014231
0.0144108