/*--------------------------------*- C++ -*----------------------------------*\
| =========                 |                                                 |
| \\      /  F ield         | OpenFOAM: The Open Source CFD Toolbox           |
|  \\    /   O peration     | Version:  2512                                  |
|   \\  /    A nd           | Website:  www.openfoam.com                      |
|    \\/     M anipulation  |                                                 |
\*---------------------------------------------------------------------------*/
FoamFile
{
    version     2.0;
    format      ascii;
    arch        "LSB;label=32;scalar=64";
    class       surfaceScalarField;
    location    "97";
    object      phi;
}
// * * * * * * * * * * * * * * * * * * * * * * * * * * * * * * * * * * * * * //

dimensions      [0 3 -1 0 0 0 0];

oriented        oriented;

internalField   nonuniform List<scalar> 
26232
(
-1.69571e-05
0.00105828
-0.00104132
0.000228572
0.00202727
-0.0022728
0.00097075
0.00202438
-0.00276656
0.00241589
0.00109228
-0.00253742
0.00475821
-0.000762335
-0.00157998
0.00818208
-0.00354969
0.000125819
0.0128573
-0.0072807
0.00260543
0.0189224
-0.0119509
0.00588587
0.026465
-0.0175241
0.00998152
0.0354999
-0.0239219
0.014887
0.0459504
-0.0310191
0.0205687
0.0576388
-0.0386477
0.0269592
0.0702896
-0.0466072
0.0339564
0.0835447
-0.0546807
0.0414256
0.0969912
-0.0626529
0.0492064
0.110197
-0.070328
0.0571221
0.122752
-0.077546
0.064991
0.134306
-0.0841959
0.0726418
0.144609
-0.0902206
0.0799173
0.153517
-0.0956318
0.0867244
0.161025
-0.100445
0.0929363
0.167143
-0.104868
0.0987508
0.171815
-0.108517
0.103844
-0.112683
0.109537
0.174962
4.87335e-05
0.00100955
0.000495177
0.00158083
0.00159918
0.000920381
0.00359623
-0.000904771
0.00670492
-0.00387103
0.0111184
-0.00796312
0.016985
-0.0131473
0.0243822
-0.0193481
0.0332909
-0.0264328
0.0435775
-0.0342085
0.0549911
-0.0424327
0.0671788
-0.0508354
0.0797171
-0.0591455
0.0921558
-0.0671194
0.104066
-0.0745631
0.115087
-0.0813487
0.124962
-0.0874214
0.133563
-0.0927965
0.140891
-0.0975485
0.147049
-0.101791
0.152251
-0.105647
0.156644
-0.109261
0.160724
-0.112597
-0.116278
0.164319
0.000141708
0.00086784
0.000863163
0.000859371
0.00243987
-0.000656329
0.00512351
-0.00358841
0.009134
-0.00788152
0.0146354
-0.0134645
0.021703
-0.020215
0.0302926
-0.0279376
0.0402217
-0.036362
0.051175
-0.0451618
0.0627333
-0.053991
0.0744231
-0.0625252
0.0857769
-0.0704993
0.0963909
-0.0777335
0.105972
-0.0841443
0.114365
-0.0897413
0.121553
-0.0946096
0.127641
-0.0988848
0.132814
-0.102722
0.137294
-0.10627
0.141291
-0.109643
0.144981
-0.112952
0.148514
-0.11613
-0.119616
0.151852
0.000255458
0.000612382
0.00130764
-0.000192812
0.00343722
-0.00278591
0.00689112
-0.00704231
0.0118558
-0.0128461
0.0184164
-0.0200251
0.0265177
-0.0283163
0.0359426
-0.0373625
0.0463232
-0.0467426
0.0571855
-0.0560241
0.0680179
-0.0648234
0.0783471
-0.0728544
0.087803
-0.0799552
0.0961601
-0.0860905
0.103348
-0.0913327
0.109436
-0.0958287
0.114587
-0.0997607
0.119013
-0.10331
0.122924
-0.106633
0.126499
-0.109845
0.129875
-0.113019
0.13313
-0.116207
0.136376
-0.119376
-0.122803
0.139562
0.000384768
0.000227614
0.00180704
-0.00161509
0.0045369
-0.00551576
0.00878684
-0.0112922
0.0146646
-0.0187239
0.0221219
-0.0274824
0.0309249
-0.0371192
0.040667
-0.0471047
0.0508276
-0.0569032
0.0608605
-0.066057
0.0702859
-0.0742488
0.0787607
-0.0813292
0.0861124
-0.087307
0.092334
-0.0923121
0.0975464
-0.0965451
0.101944
-0.100227
0.105743
-0.103559
0.109135
-0.106703
0.112271
-0.10977
0.115258
-0.112832
0.118165
-0.115926
0.121031
-0.119073
0.123911
-0.122255
-0.125623
0.126732
0.000527053
-0.000299439
0.00234424
-0.00343227
0.00568717
-0.0088587
0.010695
-0.0163001
0.0173458
-0.0253748
0.0254114
-0.035548
0.0344632
-0.046171
0.0439406
-0.0565821
0.0532598
-0.0662223
0.0619235
-0.0747208
0.0695995
-0.0819247
0.0761474
-0.0878771
0.0815995
-0.0927591
0.0861084
-0.096821
0.0898837
-0.10032
0.0931375
-0.10348
0.0960491
-0.106471
0.0987518
-0.109405
0.101335
-0.112353
0.103855
-0.115352
0.106347
-0.118418
0.108831
-0.121557
0.111336
-0.124761
-0.128106
0.113819
0.000680054
-0.000979493
0.00290056
-0.00565278
0.00682974
-0.0127879
0.0124878
-0.0219581
0.0196774
-0.0325644
0.0279708
-0.0438413
0.0367762
-0.0549765
0.0454655
-0.0652714
0.0535063
-0.0742631
0.0605529
-0.0817674
0.0664731
-0.0878448
0.0713169
-0.0927209
0.0752534
-0.0966956
0.0784999
-0.100067
0.0812665
-0.103087
0.0837247
-0.105939
0.0859975
-0.108743
0.0881649
-0.111573
0.0902756
-0.114464
0.0923582
-0.117434
0.0944299
-0.12049
0.0965013
-0.123629
0.0985871
-0.126847
-0.130172
0.100653
0.000839489
-0.00181898
0.00345053
-0.00826382
0.00789398
-0.0172313
0.0140266
-0.0280907
0.0214502
-0.039988
0.0295588
-0.0519499
0.0376748
-0.0630925
0.0452092
-0.0728057
0.0517741
-0.0808281
0.0572175
-0.0872108
0.0615869
-0.0922142
0.0650562
-0.0961903
0.0678477
-0.0994871
0.0701731
-0.102393
0.0722016
-0.105116
0.0740526
-0.10779
0.0758017
-0.110493
0.0774937
-0.113265
0.0791541
-0.116124
0.0807979
-0.119078
0.0824347
-0.122126
0.0840718
-0.125266
0.0857179
-0.128493
-0.131808
0.0873542
0.000997996
-0.00281698
0.00396084
-0.0112267
0.00880057
-0.0220711
0.0151788
-0.034469
0.0225031
-0.0473124
0.0300518
-0.0594985
0.037159
-0.0701997
0.0433624
-0.0790091
0.0484585
-0.0859242
0.0524698
-0.0912221
0.0555637
-0.0953081
0.0579652
-0.0985918
0.059891
-0.101413
0.0615142
-0.104016
0.0629555
-0.106557
0.0642906
-0.109125
0.065563
-0.111765
0.0667969
-0.114499
0.0680062
-0.117334
0.0691996
-0.120271
0.0703832
-0.12331
0.0715624
-0.126445
0.0727414
-0.129672
-0.132977
0.0739108
0.00114559
-0.00396256
0.00439377
-0.0144748
0.00947298
-0.0271503
0.0158406
-0.0408366
0.0227525
-0.0542242
0.029456
-0.066202
0.0353822
-0.0761259
0.0402397
-0.0838666
0.0439976
-0.0896821
0.0468016
-0.0940261
0.0488753
-0.0973818
0.0504428
-0.100159
0.0516863
-0.102656
0.0527332
-0.105063
0.0536629
-0.107487
0.0545204
-0.109982
0.0553303
-0.112575
0.056106
-0.115274
0.0568559
-0.118083
0.0575856
-0.121001
0.0582997
-0.124024
0.0590024
-0.127148
0.0596961
-0.130365
-0.133661
0.0603796
0.00127158
-0.00523414
0.00471421
-0.0179175
0.00985171
-0.0322878
0.0159563
-0.0469412
0.0221997
-0.0604676
0.0278818
-0.0718841
0.0325829
-0.080827
0.0361824
-0.0874661
0.0387811
-0.0922808
0.0405917
-0.0958366
0.0418459
-0.098636
0.0427391
-0.101053
0.0434106
-0.103328
0.0439478
-0.1056
0.0444003
-0.107939
0.0447941
-0.110376
0.0451433
-0.112924
0.045456
-0.115587
0.0457379
-0.118365
0.0459933
-0.121257
0.0462256
-0.124256
0.0464375
-0.127359
0.0466296
-0.130557
-0.133835
0.0468038
0.00136908
-0.00660323
0.00489846
-0.0214469
0.00990545
-0.0372948
0.0155233
-0.0525591
0.020918
-0.0658622
0.025504
-0.0764701
0.0290256
-0.0843486
0.0315039
-0.0899445
0.0331221
-0.0938991
0.0341145
-0.096829
0.034692
-0.0992136
0.0350113
-0.101372
0.0351723
-0.103489
0.0352323
-0.10566
0.0352212
-0.107928
0.0351541
-0.110309
0.0350393
-0.112809
0.0348826
-0.11543
0.0346882
-0.118171
0.03446
-0.121028
0.0342012
-0.123998
0.0339136
-0.127072
0.033597
-0.130241
0.0332559
-0.133494
-0.000180481
0.00153078
-0.0013503
-0.000648714
0.0042375
-0.00376927
-0.00136532
0.00668072
-0.00596411
-0.00229753
0.00883579
-0.00790357
-0.00341259
0.0107036
-0.00958856
-0.00467597
0.0123201
-0.0110568
-0.00605183
0.0137449
-0.012369
-0.00750437
0.0150449
-0.0135924
-0.00899922
0.0162813
-0.0147864
-0.010504
0.0174986
-0.0159939
-0.0119879
0.0187211
-0.0172372
-0.0134207
0.0199515
-0.0185187
-0.0147708
0.0211733
-0.0198232
-0.0160034
0.0223532
-0.0211205
-0.0170795
0.0234439
-0.0223678
-0.0179546
0.0243852
-0.0235102
-0.0185782
0.0251054
-0.0244818
-0.0188948
0.0255221
-0.0252054
-0.0188446
0.025544
-0.0255942
-0.0183644
0.0250739
-0.0255541
-0.0173907
0.0240152
-0.0249889
-0.0158666
0.0222782
-0.0238023
-0.01375
0.0197831
-0.0218997
0.0165504
-0.0110686
-0.0192318
-8.84052e-05
0.00161918
-0.000340111
0.00448921
-0.000749658
0.00709026
-0.00130703
0.00939316
-0.00199447
0.0113911
-0.00278537
0.013111
-0.00364532
0.0146048
-0.00453456
0.0159342
-0.00541063
0.0171573
-0.00623051
0.0183185
-0.00695168
0.0194423
-0.00753213
0.020532
-0.00792957
0.0215707
-0.00810016
0.0225238
-0.00799821
0.023342
-0.00757518
0.0239622
-0.00678015
0.0243104
-0.00556057
0.0243025
-0.00386336
0.0238467
-0.00163582
0.0228464
0.00117641
0.021203
0.00463187
0.0188227
0.00877212
0.0156429
0.0116809
0.0136417
4.37946e-07
0.00161875
-3.55402e-05
0.00452518
-0.000129189
0.00718391
-0.000288634
0.0095526
-0.000508763
0.0116112
-0.000770603
0.0133729
-0.00104236
0.0148766
-0.00128206
0.0161739
-0.00144091
0.0173162
-0.00146653
0.0183441
-0.00130536
0.0192811
-0.000904045
0.0201306
-0.00020984
0.0208765
0.000828913
0.021485
0.00226411
0.0219068
0.00414637
0.0220799
0.0065248
0.021932
0.00944591
0.0213814
0.0129524
0.0203402
0.0170827
0.0187161
0.0218712
0.0164146
0.0273481
0.0133458
0.0335424
0.00944859
0.00463476
0.0405885
7.44752e-05
0.00154427
0.000228167
0.00437149
0.000424672
0.0069874
0.000645534
0.00933174
0.000887471
0.0113692
0.00116321
0.0130971
0.00150102
0.0145388
0.0019425
0.0157324
0.0025393
0.0167194
0.00334942
0.017534
0.00443388
0.0181967
0.00585424
0.0187103
0.00767081
0.0190599
0.00994193
0.0192139
0.0127226
0.0191261
0.0160645
0.0187381
0.0200146
0.0179819
0.0246146
0.0167814
0.0298999
0.0150549
0.0358996
0.0127165
0.0426343
0.00967986
0.0501386
0.00584145
0.058372
0.00121513
-0.00462455
0.0676313
0.00012527
0.001419
0.000421023
0.00407574
0.000849805
0.00655862
0.00139239
0.00878916
0.00204333
0.0107183
0.00281206
0.0123284
0.00372335
0.0136275
0.0048162
0.0146396
0.00614121
0.0153944
0.00775718
0.0159181
0.00972754
0.0162263
0.0121172
0.0163206
0.0149902
0.0161869
0.0184078
0.0157963
0.0224275
0.0151064
0.0271023
0.0140633
0.0324803
0.0126039
0.0386046
0.0106571
0.045514
0.00814539
0.0532442
0.00498632
0.0618035
0.0011205
0.0712811
-0.00363606
0.0815846
-0.00908839
-0.0161487
0.0931088
0.000147449
0.00127155
0.000523005
0.00370018
0.0011023
0.00597933
0.00187516
0.0080163
0.00284078
0.00975268
0.00400941
0.0111598
0.00540399
0.0122329
0.00706026
0.0129833
0.00902538
0.0134292
0.0113554
0.013588
0.0141123
0.0134694
0.0173609
0.013072
0.0211665
0.0123813
0.0255937
0.0113692
0.0307046
0.00999545
0.0365592
0.00820875
0.0432173
0.00594575
0.0507338
0.00314058
0.0591623
-0.000283142
0.0685684
-0.00441972
0.0789981
-0.00930922
0.0905148
-0.0151527
0.102958
-0.0215315
-0.0300314
0.11684
0.000139898
0.00113165
0.000528449
0.00331163
0.00116665
0.00534112
0.00206184
0.00712111
0.00322425
0.00859026
0.00466978
0.00971425
0.00642289
0.0104798
0.00851819
0.010888
0.0110006
0.0109469
0.0139241
0.0106645
0.0173503
0.0100433
0.0213461
0.00907616
0.0259829
0.00774454
0.0313347
0.00601737
0.037479
0.00385115
0.0444901
0.00119761
0.0524565
-0.00202068
0.0614568
-0.00585967
0.0715683
-0.0103947
0.0828488
-0.0157001
0.0953342
-0.0217947
0.109064
-0.0288826
0.123821
-0.0362884
-0.0461357
0.139925
0.0001064
0.00102525
0.000449046
0.00296899
0.00106357
0.0047266
0.00198113
0.00620356
0.00322859
0.0073428
0.00483303
0.00810981
0.00682616
0.00848667
0.00924756
0.00846657
0.0121466
0.00804783
0.015583
0.00722808
0.0196268
0.00599951
0.0243575
0.00434549
0.0298629
0.00223914
0.0362366
-0.000356379
0.0435807
-0.003493
0.0519982
-0.0072198
0.0615752
-0.0115977
0.0723943
-0.0166788
0.084506
-0.0225064
0.0979114
-0.0291055
0.112565
-0.0364485
0.128313
-0.0446303
0.144954
-0.0529294
-0.0633532
0.162172
5.61863e-05
0.000969067
0.00031561
0.00270956
0.000854249
0.00418796
0.00173163
0.00532617
0.00299674
0.0060777
0.00469493
0.00641163
0.00687416
0.00630743
0.00958996
0.00575078
0.0129087
0.00472908
0.0169094
0.00322739
0.0216835
0.00122543
0.0273336
-0.0013046
0.0339695
-0.00439676
0.041703
-0.00808986
0.0506342
-0.0124243
0.0608489
-0.0174345
0.0723955
-0.0231444
0.0852756
-0.0295589
0.0994261
-0.0366569
0.114698
-0.0443774
0.130876
-0.0526267
0.147555
-0.0613088
0.164564
-0.0699384
-0.0796733
0.180884
3.73652e-06
0.000965331
0.000176264
0.00253703
0.000636338
0.00372789
0.00147552
0.00448699
0.00277125
0.00478197
0.00459633
0.00458655
0.00702664
0.00387712
0.0101467
0.0026307
0.0140526
0.000823166
0.0188519
-0.00157185
0.0246598
-0.0045825
0.031592
-0.00823687
0.0397543
-0.012559
0.0492286
-0.0175641
0.060057
-0.0232527
0.0722276
-0.0296051
0.085659
-0.0365757
0.100191
-0.0440912
0.115578
-0.0520435
0.131499
-0.0602982
0.147555
-0.0686829
0.163255
-0.0770093
0.17834
-0.0850226
-0.0929628
0.191629
-3.40888e-05
0.00099942
8.77768e-05
0.00241517
0.00052548
0.00329018
0.00140606
0.00360641
0.00284215
0.00334588
0.00494299
0.00248571
0.00782138
0.000998733
0.0115973
-0.00114519
0.016396
-0.00397554
0.0223415
-0.00751738
0.0295452
-0.0117862
0.0380905
-0.0167822
0.0480161
-0.0224846
0.0592993
-0.0288473
0.0718426
-0.0357961
0.0854659
-0.0432284
0.0999052
-0.0510151
0.114822
-0.059008
0.129816
-0.0670376
0.144475
-0.0749568
0.158358
-0.0825661
0.171173
-0.0898248
0.182593
-0.0964421
-0.102448
0.192078
-4.19048e-05
0.000100466
0.000624085
0.00169307
0.00345897
0.0060705
0.00967466
0.0144153
0.0204213
0.0277909
0.0365734
0.0467504
0.0582222
0.0708005
0.0842109
0.0981046
0.112081
0.125714
0.138594
0.150362
0.160732
0.169658
0.17706
0.184149
-0.00679997
0.0162737
-0.0205423
-0.00204998
0.00700369
-0.0117537
0.00313923
-0.00475195
-0.000437258
0.00885181
-0.0187188
0.0130062
0.0148488
-0.0346642
0.0286672
0.0209752
-0.0519972
0.0458708
0.0269804
-0.0698646
0.0638594
0.0325271
-0.0871734
0.0816266
0.0370681
-0.102793
0.0982518
0.0401281
-0.115862
0.112802
0.0412869
-0.126114
0.124956
0.0405793
-0.133956
0.134663
0.0389975
-0.139815
0.141397
0.0384954
-0.14289
0.143392
0.0412253
-0.140278
0.137548
0.0483228
-0.127793
0.120696
0.0592734
-0.102452
0.0915015
0.0726254
-0.0644059
0.0510539
0.0870512
-0.0167751
0.00234936
0.101357
0.0351438
-0.0494497
0.114428
0.0842783
-0.0973498
0.124976
0.123855
-0.134403
0.132207
0.150791
-0.158021
0.136294
0.165788
-0.169875
0.137729
0.171986
-0.173422
0.13621
0.175393
-0.173874
0.131246
0.183229
-0.178265
0.124153
0.195271
-0.188177
0.118473
0.19749
-0.19181
0.117563
0.169936
-0.169026
0.122207
0.104762
-0.109406
0.130809
0.0156995
-0.0243013
0.140303
-0.0725286
0.063034
0.1482
-0.140277
0.132381
0.153414
-0.182182
0.176968
0.155909
-0.199909
0.197414
0.154849
-0.206687
0.207747
0.149203
-0.214791
0.220437
0.140337
-0.227858
0.236724
0.132389
-0.222668
0.230616
0.129378
-0.174454
0.177466
0.132325
-0.0849675
0.0820197
0.139337
0.0256893
-0.032701
0.147441
0.113634
-0.121738
0.152692
0.183978
-0.189229
0.151983
0.221928
-0.221219
0.145717
0.264569
-0.258303
0.138098
0.2708
-0.263181
0.134581
0.227746
-0.224229
0.137264
0.131205
-0.133888
0.143715
-0.0156871
0.00923638
0.148237
-0.0952349
0.0907127
0.14722
-0.215689
0.216706
0.142824
-0.246456
0.250853
0.139981
-0.293823
0.296666
0.140595
-0.260364
0.25975
0.142165
-0.090988
0.0894179
0.141953
-0.0414939
0.0417053
0.139966
0.236316
-0.234328
0.251398
-0.249681
0.018211
0.0117044
0.0229166
0.00229808
0.0277765
-0.00961184
0.0327852
-0.0237275
0.0377948
-0.0396738
0.0426887
-0.0568911
0.0472999
-0.0744758
0.0513603
-0.0912337
0.054482
-0.105914
0.0561485
-0.117528
0.0557381
-0.125704
0.0527885
-0.131006
0.0476616
-0.134688
0.0420995
-0.137328
0.0389267
-0.137105
0.0406943
-0.129561
0.0481906
-0.109948
0.0602941
-0.0765094
0.0751876
-0.0316686
0.0911086
0.0192228
0.106396
0.0689908
0.119424
0.110828
0.129162
0.141053
0.135536
0.159413
0.138722
0.1688
0.138414
0.175701
0.134632
0.187011
0.129142
0.200761
0.125179
0.201453
0.125224
0.169891
0.129562
0.100424
0.136913
0.00834859
0.144636
-0.080252
0.15065
-0.146291
0.154021
-0.185553
0.155036
-0.200924
0.153114
-0.204765
0.147003
-0.20868
0.137632
-0.218487
0.129143
-0.214179
0.12597
-0.171281
0.129508
-0.0885057
0.137692
0.017505
0.147027
0.104299
0.153123
0.177882
0.15295
0.222101
0.147142
0.270376
0.139765
0.278177
0.136144
0.231368
0.138267
0.129082
0.144289
-0.0217098
0.148663
-0.0996086
0.147544
-0.21457
0.143087
-0.241999
0.140134
-0.29087
0.140723
-0.260954
0.141992
-0.0922571
0.141528
-0.0410292
0.139453
0.23839
0.25315
0.044892
0.00740091
0.0493824
-0.00219235
0.0537615
-0.0139909
0.0579597
-0.0279257
0.0618805
-0.0435947
0.0654481
-0.0604587
0.0685485
-0.0775762
0.0709912
-0.0936764
0.0725028
-0.107426
0.072712
-0.117737
0.0711293
-0.124121
0.0671317
-0.127008
0.0603063
-0.127862
0.0514099
-0.128432
0.043035
-0.12873
0.0387859
-0.125312
0.0412328
-0.112395
0.0504598
-0.0857364
0.0645975
-0.0458064
0.0813909
0.00242939
0.0984028
0.0519789
0.113681
0.0955494
0.125896
0.128838
0.134601
0.150708
0.13964
0.163761
0.140806
0.174536
0.138593
0.189223
0.134976
0.204378
0.132692
0.203737
0.133461
0.169123
0.137201
0.0966845
0.142898
0.00265157
0.148724
-0.0860785
0.152824
-0.15039
0.154417
-0.187146
0.154028
-0.200535
0.151378
-0.202116
0.145048
-0.20235
0.135418
-0.208858
0.126465
-0.205225
0.123012
-0.167829
0.126951
-0.0924444
0.136114
0.00834256
0.146571
0.0938418
0.153531
0.170923
0.154026
0.221605
0.148836
0.275567
0.141795
0.285218
0.138041
0.235122
0.1395
0.127623
0.144976
-0.0271858
0.149185
-0.103818
0.147979
-0.213363
0.143421
-0.237441
0.140306
-0.287755
0.140903
-0.261551
0.141944
-0.0932983
0.141257
-0.0403418
0.139089
0.240558
0.254932
0.0716181
0.00341411
0.0757935
-0.00636777
0.079713
-0.0179104
0.0831885
-0.0314012
0.0861216
-0.0465277
0.0884531
-0.0627902
0.0900575
-0.0791806
0.0907568
-0.0943757
0.0903759
-0.107045
0.0887805
-0.116142
0.0858378
-0.121179
0.0812068
-0.122377
0.0741898
-0.120845
0.0643505
-0.118592
0.0529088
-0.117288
0.0433284
-0.115731
0.0397384
-0.108805
0.0442939
-0.0902919
0.0560849
-0.0575974
0.0725757
-0.0140614
0.0906201
0.0339345
0.107772
0.0783971
0.122303
0.114307
0.133295
0.139717
0.140278
0.156778
0.143176
0.171638
0.142856
0.189543
0.141285
0.20595
0.140613
0.204409
0.141811
0.167924
0.144755
0.0937404
0.148694
-0.00128707
0.152506
-0.089891
0.154706
-0.15259
0.154613
-0.187053
0.15289
-0.198812
0.149591
-0.198817
0.143244
-0.196002
0.133633
-0.199247
0.124351
-0.195943
0.120518
-0.163996
0.124622
-0.0965483
0.134554
-0.00158957
0.146023
0.0823725
0.153877
0.163069
0.155184
0.220298
0.150771
0.27998
0.144162
0.291826
0.140263
0.239021
0.14096
0.126926
0.145766
-0.0319917
0.149782
-0.107835
0.148504
-0.212085
0.14381
-0.232747
0.140477
-0.284421
0.141108
-0.262183
0.142006
-0.0941966
0.14113
-0.0394658
0.138869
0.24282
0.256738
0.0973125
-0.00078964
0.101227
-0.0102819
0.104732
-0.0214161
0.107538
-0.0342073
0.109523
-0.0485119
0.110591
-0.0638582
0.110601
-0.0791912
0.109441
-0.0932152
0.107071
-0.104675
0.103538
-0.112609
0.0989664
-0.116607
0.0934389
-0.11685
0.0866252
-0.114032
0.0776183
-0.109585
0.0659737
-0.105644
0.0534936
-0.103251
0.0444233
-0.0997349
0.0430072
-0.0888758
0.0505767
-0.0651669
0.0651138
-0.0285985
0.0832629
0.0157854
0.101712
0.0599482
0.118206
0.0978133
0.131303
0.12662
0.140258
0.147823
0.145106
0.166789
0.146936
0.187713
0.147557
0.205329
0.148425
0.20354
0.149903
0.166446
0.151908
0.0917348
0.154106
-0.00348525
0.155889
-0.0916732
0.156224
-0.152925
0.154557
-0.185386
0.1516
-0.195855
0.147721
-0.194938
0.14152
-0.189801
0.132193
-0.18992
0.122771
-0.186522
0.118489
-0.159714
0.122512
-0.100571
0.13296
-0.0120378
0.14532
0.0700128
0.154105
0.154284
0.156371
0.218032
0.152893
0.283459
0.146814
0.297905
0.142772
0.243063
0.142632
0.127066
0.146648
-0.036007
0.150429
-0.111616
0.1491
-0.210756
0.144246
-0.227893
0.140632
-0.280807
0.141314
-0.262865
0.142161
-0.0950433
0.141136
-0.0384404
0.138788
0.245168
0.258554
0.121122
-0.00507089
0.124756
-0.0139161
0.127802
-0.0244621
0.129866
-0.0362712
0.130815
-0.0494616
0.130524
-0.063567
0.128855
-0.0775215
0.125784
-0.0901446
0.121439
-0.10033
0.116058
-0.107228
0.109936
-0.110486
0.103371
-0.110285
0.0964774
-0.107138
0.0887141
-0.101822
0.0788877
-0.0958173
0.066691
-0.0910548
0.0546119
-0.0876558
0.0474577
-0.0817215
0.049132
-0.0668413
0.0597536
-0.0392201
0.0765394
-0.00100031
0.0954028
0.0410848
0.113326
0.07989
0.128254
0.111692
0.139153
0.136924
0.146104
0.159838
0.150269
0.183549
0.153159
0.202439
0.155562
0.201138
0.157346
0.164662
0.158377
0.0907035
0.158952
-0.00406025
0.158776
-0.0914976
0.157307
-0.151456
0.154201
-0.182281
0.150129
-0.191782
0.145718
-0.190528
0.139776
-0.183859
0.130973
-0.181117
0.121632
-0.177181
0.116892
-0.154974
0.120585
-0.104264
0.131275
-0.0227272
0.144383
0.056904
0.154139
0.144528
0.157509
0.214662
0.155118
0.28585
0.149665
0.303358
0.145509
0.247219
0.144484
0.12809
0.147605
-0.0391273
0.151096
-0.115107
0.149739
-0.209399
0.144721
-0.222876
0.140763
-0.276849
0.1415
-0.263602
0.142389
-0.0959326
0.141259
-0.0373099
0.138838
0.247588
0.260363
0.143456
-0.00860168
0.146525
-0.0169849
0.148711
-0.0266483
0.149647
-0.0372075
0.149228
-0.0490422
0.147312
-0.0616512
0.143798
-0.0740077
0.138774
-0.0851205
0.132519
-0.0940742
0.125446
-0.100156
0.118014
-0.103053
0.110608
-0.102879
0.103491
-0.100022
0.0965952
-0.0949258
0.0890345
-0.0882566
0.0794183
-0.0814386
0.0677766
-0.076014
0.0572623
-0.0712072
0.0528842
-0.0624633
0.0577524
-0.0440882
0.070964
-0.0142118
0.0888433
0.0232054
0.107386
0.0613469
0.12378
0.0952978
0.136566
0.124138
0.145722
0.150682
0.152335
0.176936
0.157523
0.19725
0.161454
0.197207
0.16357
0.162546
0.16392
0.0903534
0.163069
-0.00320905
0.161071
-0.0894998
0.157886
-0.148271
0.153488
-0.177883
0.148442
-0.186737
0.143541
-0.185626
0.137914
-0.178233
0.129827
-0.17303
0.120801
-0.168155
0.115652
-0.149826
0.118791
-0.107402
0.129435
-0.0333713
0.143131
0.0432081
0.153888
0.133771
0.1585
0.21005
0.157341
0.287009
0.152608
0.308092
0.148387
0.251439
0.146474
0.130003
0.148615
-0.0412682
0.15175
-0.118242
0.15039
-0.20804
0.145226
-0.217711
0.140864
-0.272487
0.141644
-0.264382
0.14267
-0.0969593
0.141485
-0.0361241
0.139016
0.250057
0.262143
0.164358
-0.0107884
0.166055
-0.0186814
0.166657
-0.027251
0.165887
-0.0364376
0.163682
-0.0468366
0.159891
-0.0578602
0.154478
-0.068595
0.147642
-0.0782844
0.139767
-0.0861991
0.13136
-0.0917487
0.122962
-0.0946553
0.115021
-0.0949377
0.107811
-0.092812
0.10143
-0.0885441
0.0955391
-0.0823662
0.0889568
-0.0748563
0.0802937
-0.067351
0.0700421
-0.0609556
0.0618382
-0.0542594
0.06046
-0.04271
0.0680503
-0.0218022
0.0827629
0.00849284
0.100531
0.0435784
0.117729
0.0781003
0.132215
0.109653
0.143606
0.13929
0.152719
0.167823
0.160222
0.189747
0.165675
0.191754
0.168236
0.159986
0.168148
0.0904412
0.166233
-0.00129425
0.162653
-0.0859191
0.157889
-0.143507
0.152349
-0.172343
0.146494
-0.180881
0.141142
-0.180274
0.135838
-0.172929
0.128603
-0.165795
0.120112
-0.159664
0.114652
-0.144365
0.117065
-0.109816
0.127383
-0.0436894
0.141483
0.0291081
0.153257
0.121997
0.159228
0.204079
0.159428
0.286809
0.155517
0.312003
0.151309
0.255647
0.148537
0.132775
0.14965
-0.0423805
0.152356
-0.120949
0.15102
-0.206705
0.14575
-0.212441
0.14093
-0.267667
0.141728
-0.26518
0.142984
-0.0982155
0.141798
-0.0349377
0.139313
0.252542
0.263864
0.181304
-0.0112086
0.181073
-0.0184501
0.179609
-0.0257874
0.176852
-0.0336808
0.17276
-0.042744
0.167179
-0.0522798
0.160157
-0.0615731
0.151967
-0.070094
0.143032
-0.0772639
0.13387
-0.0825875
0.125011
-0.0857962
0.116893
-0.0868198
0.109792
-0.0857109
0.103821
-0.0825731
0.0989197
-0.0774645
0.0945352
-0.0704719
0.0893355
-0.0621512
0.0821102
-0.0537303
0.0738066
-0.0459558
0.0682269
-0.0371303
0.0695532
-0.0231285
0.0789435
-0.000897497
0.09388
0.0286419
0.110595
0.0613852
0.126194
0.0940537
0.139633
0.125852
0.151209
0.156247
0.161009
0.179947
0.167999
0.184764
0.171168
0.156818
0.170926
0.090683
0.168306
0.00132604
0.163409
-0.0810227
0.157219
-0.137316
0.150681
-0.165805
0.144195
-0.174395
0.138452
-0.174531
0.133442
-0.16792
0.127145
-0.159497
0.119387
-0.151906
0.113746
-0.138724
0.115332
-0.111402
0.125065
-0.0534218
0.13937
0.0148028
0.152148
0.109219
0.159581
0.196647
0.161264
0.285126
0.158268
0.314999
0.154159
0.259756
0.150607
0.136327
0.150673
-0.0424473
0.152878
-0.123153
0.15159
-0.205416
0.146278
-0.207128
0.140959
-0.262349
0.141737
-0.265957
0.143311
-0.0997896
0.142183
-0.0338097
0.139726
0.254999
0.265494
0.190584
-0.010163
0.188577
-0.016443
0.185284
-0.0224946
0.180923
-0.0293199
0.175408
-0.0372287
0.168611
-0.0454836
0.160657
-0.0536191
0.151835
-0.0612716
0.142546
-0.0679747
0.133267
-0.073309
0.124467
-0.0769964
0.116528
-0.0788804
0.109706
-0.0788891
0.104134
-0.0770009
0.0998478
-0.0731783
0.0967074
-0.0673315
0.0940241
-0.0594679
0.0904449
-0.0501511
0.0850167
-0.0405276
0.079001
-0.0311146
0.0760198
-0.0201472
0.0794545
-0.0043322
0.0895237
0.0185727
0.103832
0.0470766
0.119297
0.0785892
0.13413
0.111019
0.147839
0.142538
0.159803
0.167983
0.168395
0.176172
0.172365
0.152847
0.172307
0.0907411
0.169298
0.00433458
0.163301
-0.0750251
0.155815
-0.12983
0.148396
-0.158386
0.141467
-0.167466
0.135421
-0.168485
0.130649
-0.163148
0.125324
-0.154173
0.118476
-0.145058
0.112796
-0.133044
0.113503
-0.112109
0.122429
-0.0623476
0.136738
0.000494116
0.15048
0.0954761
0.159427
0.1877
0.16268
0.281873
0.160715
0.316964
0.156835
0.263636
0.152607
0.140555
0.151657
-0.0414974
0.153286
-0.124782
0.152067
-0.204197
0.14679
-0.201851
0.140958
-0.256517
0.141664
-0.266663
0.143634
-0.10176
0.142624
-0.0327999
0.140248
0.257375
0.266994
0.1904
-0.00848489
0.187382
-0.013425
0.183181
-0.0182933
0.178119
-0.0242583
0.172033
-0.0311429
0.16489
-0.0383398
0.156848
-0.0455779
0.148163
-0.0525867
0.139187
-0.058998
0.130331
-0.0644535
0.121992
-0.0686572
0.114493
-0.0713818
0.108071
-0.0724667
0.102877
-0.0718071
0.0989758
-0.0692768
0.0963556
-0.0647112
0.0948544
-0.0579667
0.0938276
-0.0491243
0.092052
-0.038752
0.0887443
-0.027807
0.0852421
-0.016645
0.0848174
-0.00390751
0.0894741
0.013916
0.0995731
0.0369776
0.113047
0.0651157
0.127985
0.0960804
0.14318
0.127343
0.157016
0.154147
0.166988
0.1662
0.171896
0.147939
0.172694
0.0899428
0.169272
0.00775726
0.162578
-0.0683317
0.153949
-0.121201
0.145752
-0.150189
0.138525
-0.16024
0.132257
-0.162217
0.127592
-0.158483
0.123165
-0.149745
0.117347
-0.13924
0.111753
-0.127451
0.111541
-0.111896
0.119445
-0.0702525
0.13352
-0.0135807
0.148169
0.0808273
0.158719
0.17715
0.16365
0.276942
0.162766
0.317847
0.159214
0.267188
0.154496
0.145273
0.152609
-0.0396099
0.15358
-0.125754
0.152446
-0.203064
0.147275
-0.19668
0.140946
-0.250187
0.141526
-0.267243
0.143947
-0.104181
0.143106
-0.0319591
0.140876
0.259605
0.268324
0.182367
-0.00670237
0.179055
-0.0101127
0.175061
-0.0142997
0.170281
-0.0194785
0.164549
-0.0254112
0.157978
-0.0317682
0.150713
-0.0383133
0.142952
-0.0448257
0.134985
-0.0510312
0.127151
-0.0566192
0.119774
-0.0612798
0.113121
-0.0647291
0.10738
-0.0667254
0.102656
-0.0670831
0.0990204
-0.0656415
0.0965494
-0.0622403
0.0953024
-0.0567196
0.0951557
-0.0489777
0.0954604
-0.0390567
0.0951221
-0.0274686
0.0937068
-0.0152297
0.0922114
-0.00241217
0.0938418
0.0122856
0.0996227
0.0311967
0.109552
0.0551867
0.122579
0.0830532
0.137462
0.112459
0.152012
0.139597
0.163354
0.154858
0.170122
0.141171
0.172134
0.0879307
0.16917
0.0107221
0.16133
-0.0604917
0.151767
-0.111638
0.143024
-0.141446
0.135658
-0.152873
0.12924
-0.155799
0.124509
-0.153751
0.120779
-0.146016
0.116031
-0.134492
0.110635
-0.122055
0.109511
-0.110772
0.116333
-0.0770745
0.129814
-0.0270611
0.145138
0.0655028
0.157163
0.165125
0.163846
0.270259
0.1642
0.317494
0.161182
0.270206
0.156203
0.150252
0.153488
-0.0368947
0.153747
-0.126013
0.152724
-0.20204
0.147711
-0.191667
0.140934
-0.24341
0.141348
-0.267658
0.14425
-0.107082
0.143621
-0.0313298
0.141606
0.26162
0.269441
0.209005
-0.00518684
-0.21052
0.208194
-0.00930243
0.207162
-0.0132678
0.205629
-0.0179453
0.203457
-0.023239
0.200591
-0.0289018
0.197009
-0.034732
0.192702
-0.0405182
0.1877
-0.0460296
0.182092
-0.0510107
0.176001
-0.0551884
0.16957
-0.0582982
0.162947
-0.0601026
0.15627
-0.0604062
0.149671
-0.0590426
0.143282
-0.0558513
0.137241
-0.050679
0.131683
-0.0434193
0.12656
-0.0339333
0.121369
-0.0222778
0.115454
-0.00931512
0.108734
0.00430764
0.10241
0.0186103
0.0983002
0.0353062
0.097785
0.0557019
0.10146
0.079378
0.10914
0.104779
0.120194
0.128543
0.135083
0.139969
0.154103
0.122151
0.172961
0.0690728
0.184965
-0.00128193
0.188749
-0.0642761
0.185411
-0.1083
0.178352
-0.134388
0.169899
-0.14442
0.160984
-0.146884
0.152832
-0.1456
0.145643
-0.138827
0.137806
-0.126654
0.128895
-0.113144
0.122379
-0.104256
0.121909
-0.0766047
0.126677
-0.0318288
0.132453
0.0597269
0.136395
0.161183
0.138852
0.267802
0.141651
0.314694
0.146267
0.26559
0.150874
0.145645
0.154082
-0.0401027
0.155739
-0.12767
0.153921
-0.200222
0.14764
-0.185387
0.139501
-0.235271
0.135844
-0.264001
0.134994
-0.106233
0.131373
-0.0277083
0.128486
0.264507
0.270023
0.218301
-0.00407699
-0.219411
0.217095
-0.00809583
0.215931
-0.0121039
0.21435
-0.0163644
0.212156
-0.0210447
0.209313
-0.0260594
0.205805
-0.0312238
0.201627
-0.0363401
0.196806
-0.0412083
0.19141
-0.0456152
0.18555
-0.0493278
0.179362
-0.0521102
0.172998
-0.053739
0.16661
-0.0540179
0.160342
-0.0527753
0.154337
-0.0498461
0.148717
-0.0450591
0.143609
-0.0383106
0.139123
-0.0294472
0.13512
-0.0182751
0.13096
-0.00515547
0.126142
0.00912567
0.120902
0.0238503
0.116576
0.0396319
0.11504
0.0572384
0.11774
0.0766774
0.125071
0.0974489
0.136924
0.116689
0.153723
0.123171
0.173814
0.10206
0.191599
0.0512883
0.201621
-0.0113039
0.203116
-0.0657715
0.198012
-0.103196
0.189654
-0.12603
0.18046
-0.135226
0.171114
-0.137538
0.162515
-0.137001
0.155138
-0.13145
0.147584
-0.119101
0.138718
-0.104279
0.131538
-0.097076
0.130178
-0.0752446
0.134588
-0.0362383
0.14072
0.0535949
0.145335
0.156568
0.148737
0.2644
0.152703
0.310729
0.158392
0.259901
0.163496
0.140542
0.166442
-0.0430486
0.167372
-0.1286
0.164929
-0.197779
0.158082
-0.17854
0.148858
-0.226047
0.144665
-0.259807
0.143766
-0.105333
0.139885
-0.0238276
0.136837
0.267555
0.270545
0.227095
-0.00335
-0.227822
0.226022
-0.00702244
0.22474
-0.0108223
0.223105
-0.0147291
0.220947
-0.0188864
0.218189
-0.0233014
0.214814
-0.0278493
0.210829
-0.0323548
0.206258
-0.0366374
0.201156
-0.0405135
0.195614