/*--------------------------------*- C++ -*----------------------------------*\
| =========                 |                                                 |
| \\      /  F ield         | OpenFOAM: The Open Source CFD Toolbox           |
|  \\    /   O peration     | Version:  2512                                  |
|   \\  /    A nd           | Website:  www.openfoam.com                      |
|    \\/     M anipulation  |                                                 |
\*---------------------------------------------------------------------------*/
FoamFile
{
    version     2.0;
    format      ascii;
    arch        "LSB;label=32;scalar=64";
    class       volScalarField;
    location    "44.5";
    object      p;
}
// * * * * * * * * * * * * * * * * * * * * * * * * * * * * * * * * * * * * * //

dimensions      [0 2 -2 0 0 0 0];

internalField   nonuniform List<scalar> 
13248
(
-0.286758
-0.285284
-0.283216
-0.280723
-0.278014
-0.27529
-0.272713
-0.270389
-0.268378
-0.266695
-0.265316
-0.264183
-0.26321
-0.262292
-0.261314
-0.26016
-0.258718
-0.256899
-0.254623
-0.25187
-0.248519
-0.244767
-0.239879
-0.234912
-0.2934
-0.291341
-0.28869
-0.285629
-0.282363
-0.279111
-0.276027
-0.273203
-0.270671
-0.268414
-0.266373
-0.264458
-0.262561
-0.260566
-0.258366
-0.255866
-0.252993
-0.2497
-0.245962
-0.241772
-0.237117
-0.232029
-0.226339
-0.220763
-0.301504
-0.298667
-0.295313
-0.291615
-0.287751
-0.283934
-0.280299
-0.2769
-0.273727
-0.27072
-0.267787
-0.264821
-0.261717
-0.258384
-0.254753
-0.250786
-0.246469
-0.241815
-0.236845
-0.231598
-0.226071
-0.22034
-0.214294
-0.208412
-0.311209
-0.307397
-0.303224
-0.298821
-0.294305
-0.289858
-0.285571
-0.281442
-0.277408
-0.273373
-0.269236
-0.264907
-0.260323
-0.255453
-0.250298
-0.244884
-0.239256
-0.233464
-0.227552
-0.221555
-0.215485
-0.209393
-0.203185
-0.197357
-0.322584
-0.317616
-0.312518
-0.307345
-0.302099
-0.296905
-0.291787
-0.286677
-0.281468
-0.276062
-0.27039
-0.264426
-0.258183
-0.251712
-0.245082
-0.238367
-0.231636
-0.224941
-0.218316
-0.211777
-0.205326
-0.19898
-0.192684
-0.18678
-0.335615
-0.329344
-0.323242
-0.317228
-0.31114
-0.305009
-0.29878
-0.292331
-0.285556
-0.278406
-0.2709
-0.263112
-0.255147
-0.247124
-0.239151
-0.231313
-0.223666
-0.216242
-0.209051
-0.202085
-0.195333
-0.188788
-0.182406
-0.176431
-0.350184
-0.342514
-0.335353
-0.328416
-0.32131
-0.313948
-0.306212
-0.297979
-0.289214
-0.279984
-0.270437
-0.260755
-0.251115
-0.241665
-0.232512
-0.223719
-0.21531
-0.207286
-0.199629
-0.192315
-0.185315
-0.178604
-0.172154
-0.166096
-0.366027
-0.356924
-0.348668
-0.340685
-0.332293
-0.323292
-0.31356
-0.303066
-0.291928
-0.280383
-0.268714
-0.257181
-0.245988
-0.235271
-0.225099
-0.215493
-0.206442
-0.197914
-0.189869
-0.182266
-0.175063
-0.168225
-0.161729
-0.155605
-0.382697
-0.372194
-0.36281
-0.353594
-0.343543
-0.3324
-0.320152
-0.306969
-0.293196
-0.279246
-0.265503
-0.252253
-0.239676
-0.227859
-0.216817
-0.206526
-0.196936
-0.18799
-0.179628
-0.171795
-0.164439
-0.157517
-0.151003
-0.144843
-0.399525
-0.38772
-0.377156
-0.366432
-0.354259
-0.340442
-0.325221
-0.309066
-0.292567
-0.276279
-0.260619
-0.245845
-0.232072
-0.21932
-0.207547
-0.196686
-0.186655
-0.177375
-0.16877
-0.160771
-0.153317
-0.14636
-0.139853
-0.133694
-0.415626
-0.402655
-0.390811
-0.378219
-0.363417
-0.346448
-0.327941
-0.308714
-0.289567
-0.271123
-0.253769
-0.237686
-0.222908
-0.209382
-0.197016
-0.185702
-0.175334
-0.165814
-0.157051
-0.148964
-0.141484
-0.134555
-0.128097
-0.122001
-0.42997
-0.416017
-0.402767
-0.3879
-0.369967
-0.349441
-0.327453
-0.305171
-0.283539
-0.26317
-0.244365
-0.227199
-0.211616
-0.197494
-0.184691
-0.173068
-0.162495
-0.152855
-0.144046
-0.135977
-0.128572
-0.121763
-0.115442
-0.109543
-0.247173
-0.248922
-0.250052
-0.250824
-0.251478
-0.252077
-0.252649
-0.253214
-0.253781
-0.254347
-0.254908
-0.255455
-0.25598
-0.256474
-0.256926
-0.257327
-0.257665
-0.257934
-0.258126
-0.25824
-0.258276
-0.258244
-0.258174
-0.258101
-0.249242
-0.250771
-0.251772
-0.252472
-0.253085
-0.253672
-0.254264
-0.254883
-0.25554
-0.256236
-0.256969
-0.257737
-0.258534
-0.259355
-0.260193
-0.261042
-0.261892
-0.262732
-0.263552
-0.264344
-0.265102
-0.265818
-0.266499
-0.267208
-0.251838
-0.253081
-0.253907
-0.254498
-0.255036
-0.255578
-0.256158
-0.256799
-0.257514
-0.258308
-0.259183
-0.260138
-0.261172
-0.262283
-0.263468
-0.264719
-0.266026
-0.267375
-0.268748
-0.270125
-0.271488
-0.272801
-0.274013
-0.275331
-0.254784
-0.255702
-0.256316
-0.256763
-0.257186
-0.257642
-0.258166
-0.258785
-0.259512
-0.260356
-0.261321
-0.26241
-0.263623
-0.264963
-0.266425
-0.268003
-0.269685
-0.27145
-0.273268
-0.275105
-0.276927
-0.278683
-0.280215
-0.281432
-0.257907
-0.258489
-0.258869
-0.259136
-0.259401
-0.259719
-0.260132
-0.260666
-0.261342
-0.262168
-0.263153
-0.264301
-0.265615
-0.267096
-0.268741
-0.270544
-0.272487
-0.274543
-0.27667
-0.278813
-0.280908
-0.282844
-0.284365
-0.285712
-0.261061
-0.261327
-0.261459
-0.261512
-0.261569
-0.26169
-0.261922
-0.2623
-0.262845
-0.263573
-0.264492
-0.265609
-0.266926
-0.268445
-0.270161
-0.272066
-0.274137
-0.276339
-0.27862
-0.280906
-0.283104
-0.285081
-0.286574
-0.287255
-0.264155
-0.264147
-0.264028
-0.263831
-0.263628
-0.263486
-0.263463
-0.263602
-0.263932
-0.264472
-0.265234
-0.266224
-0.267445
-0.268896
-0.270569
-0.272451
-0.274512
-0.276709
-0.278978
-0.281229
-0.28335
-0.285139
-0.286676
-0.286175
-0.267179
-0.266943
-0.266573
-0.266093
-0.265575
-0.265103
-0.264751
-0.264573
-0.264606
-0.264876
-0.265397
-0.266176
-0.267214
-0.268506
-0.270037
-0.271786
-0.273716
-0.275772
-0.277874
-0.279913
-0.281811
-0.283127
-0.284783
-0.283024
-0.270206
-0.269789
-0.26916
-0.268359
-0.267476
-0.266616
-0.26587
-0.265309
-0.26498
-0.264915
-0.265132
-0.265637
-0.266426
-0.267489
-0.268805
-0.270333
-0.272023
-0.273805
-0.275592
-0.277239
-0.278778
-0.279428
-0.281027
-0.278408
-0.27341
-0.272826
-0.271919
-0.270758
-0.269464
-0.268168
-0.266983
-0.265994
-0.265261
-0.264821
-0.264695
-0.264884
-0.265378
-0.266152
-0.267165
-0.268361
-0.269668
-0.271
-0.272268
-0.273315
-0.27427
-0.274269
-0.2754
-0.272548
-0.277039
-0.276259
-0.275033
-0.273468
-0.271722
-0.269955
-0.268301
-0.266862
-0.265698
-0.264858
-0.264356
-0.264184
-0.264316
-0.264703
-0.265281
-0.265968
-0.266668
-0.267281
-0.267711
-0.267853
-0.267806
-0.26712
-0.267303
-0.264683
-0.281392
-0.280332
-0.27872
-0.276702
-0.274468
-0.272206
-0.270067
-0.268159
-0.266563
-0.265304
-0.264388
-0.263788
-0.263452
-0.263303
-0.263246
-0.263174
-0.262972
-0.262534
-0.261754
-0.260587
-0.258982
-0.257039
-0.255298
-0.25301
-0.257996
-0.25744
-0.25669
-0.255581
-0.254031
-0.25198
-0.249395
-0.246279
-0.242698
-0.238783
-0.234728
-0.230807
-0.227359
-0.224743
-0.223255
-0.223044
-0.224
-0.225646
-0.22708
-0.227034
-0.22441
-0.217896
-0.206614
-0.19112
-0.172611
-0.153442
-0.136444
-0.124226
-0.118516
-0.118057
-0.119758
-0.11829
-0.109481
-0.0930546
-0.071702
-0.0493596
-0.02918
-0.0127541
-0.000529284
0.00753034
0.0117315
0.0130702
0.0129256
0.0128122
0.0132283
0.0141444
0.0149693
0.0154062
0.0151876
0.0143883
0.0129849
0.0113959
0.00968725
0.0082557
0.00692594
0.00586874
0.0046695
0.00366232
0.00214325
0.000974292
-0.268214
-0.268237
-0.26821
-0.267496
-0.266045
-0.263753
-0.260515
-0.256268
-0.251022
-0.244871
-0.237983
-0.230608
-0.223141
-0.216059
-0.209836
-0.204833
-0.201197
-0.198792
-0.197104
-0.195198
-0.192097
-0.187046
-0.178974
-0.16829
-0.155876
-0.1438
-0.134437
-0.130128
-0.131472
-0.136547
-0.141085
-0.139325
-0.127742
-0.107141
-0.0813547
-0.0550974
-0.0318237
-0.0130815
0.000909313
0.0104321
0.0158477
0.0179031
0.0177797
0.0169895
0.0163192
0.0161731
0.0160799
0.0158251
0.0150974
0.0139403
0.0123196
0.0106547
0.00900166
0.00769685
0.00653681
0.00562613
0.00456619
0.00364198
0.00218091
0.00101154
-0.277985
-0.279051
-0.279114
-0.278663
-0.277319
-0.27484
-0.271032
-0.265755
-0.258965
-0.25072
-0.241143
-0.230443
-0.219066
-0.207595
-0.196736
-0.186998
-0.17875
-0.172164
-0.167098
-0.162991
-0.158991
-0.155052
-0.149743
-0.143696
-0.137409
-0.132692
-0.131121
-0.134715
-0.14292
-0.152966
-0.159867
-0.157619
-0.143689
-0.11944
-0.0898382
-0.0602916
-0.0344631
-0.0138188
0.00162025
0.0123571
0.018878
0.021784
0.0220105
0.0209198
0.019421
0.0183138
0.0172855
0.0162753
0.0149744
0.0134267
0.011595
0.00988371
0.00831892
0.00715966
0.006171
0.00539856
0.00446448
0.00361191
0.00221114
0.00103544
-0.286427
-0.28779
-0.288027
-0.288041
-0.286926
-0.284385
-0.28017
-0.274068
-0.265985
-0.255949
-0.244003
-0.230328
-0.215396
-0.199878
-0.184825
-0.170725
-0.158138
-0.14752
-0.139071
-0.132682
-0.127977
-0.124344
-0.121288
-0.119468
-0.119078
-0.121312
-0.127117
-0.138026
-0.152349
-0.16665
-0.175512
-0.172774
-0.157099
-0.129892
-0.0972196
-0.0650759
-0.0372544
-0.0151138
0.00149218
0.0132296
0.0207191
0.0245053
0.0253169
0.0242918
0.0225563
0.0204
0.0184943
0.0167172
0.0148159
0.0128741
0.0108552
0.00913132
0.00767771
0.00667388
0.00584432
0.0051943
0.00436704
0.00357274
0.00223154
0.00104409
-0.291625
-0.293914
-0.294914
-0.295167
-0.294296
-0.291801
-0.287356
-0.280694
-0.271639
-0.260144
-0.246223
-0.230109
-0.212223
-0.193283
-0.174876
-0.157031
-0.140645
-0.126429
-0.114851
-0.106152
-0.100226
-0.0969615
-0.0958341
-0.0973528
-0.102358
-0.110497
-0.122852
-0.139884
-0.159244
-0.177042
-0.187615
-0.185297
-0.167841
-0.138425
-0.103524
-0.0695214
-0.0402609
-0.017
0.000525907
0.013085
0.0214004
0.026018
0.0275219
0.0268185
0.0248623
0.0222009
0.0195672
0.0170809
0.0146075
0.0123057
0.0101413
0.00843772
0.00710604
0.00625193
0.00556219
0.00501429
0.00427282
0.00352366
0.00223946
0.00103724
-0.294596
-0.297699
-0.298626
-0.299152
-0.298585
-0.29626
-0.291778
-0.28485
-0.27523
-0.262783
-0.247554
-0.229785
-0.209916
-0.188676
-0.16725
-0.146364
-0.126918
-0.109755
-0.0955584
-0.0848177
-0.0778289
-0.0746517
-0.0748919
-0.0791075
-0.0877473
-0.100839
-0.118452
-0.14014
-0.163316
-0.183825
-0.195838
-0.193935
-0.175718
-0.144993
-0.108771
-0.0736566
-0.0434801
-0.0194308
-0.00119402
0.0120392
0.0210515
0.0264091
0.0286146
0.0283742
0.0264637
0.0235409
0.0203722
0.0172995
0.0143388
0.0117459
0.00948828
0.00782902
0.00662896
0.00589866
0.00532223
0.00485437
0.00417861
0.00346333
0.00223275
0.00101625
-0.29457
-0.298522
-0.299518
-0.299932
-0.299567
-0.297442
-0.293049
-0.286098
-0.276315
-0.26352
-0.247716
-0.229118
-0.208168
-0.185604
-0.162381
-0.139464
-0.117854
-0.0984995
-0.0822283
-0.0697006
-0.0614454
-0.0579418
-0.0589538
-0.064933
-0.0761664
-0.0926793
-0.113937
-0.138803
-0.164563
-0.186983
-0.200171
-0.198882
-0.180675
-0.1496
-0.112981
-0.0774751
-0.0468624
-0.0223135
-0.0035382
0.0102522
0.0198559
0.0258554
0.0287152
0.0289882
0.0273068
0.02433
0.0208359
0.0173422
0.0140187
0.0112222
0.00892348
0.00731806
0.00623455
0.00561084
0.00511782
0.00470835
0.00408091
0.00339078
0.00221032
0.000983735
-0.291629
-0.29591
-0.296847
-0.29729
-0.297146
-0.295255
-0.291116
-0.284431
-0.274898
-0.262315
-0.246652
-0.22807
-0.206963
-0.183996
-0.160043
-0.136097
-0.113206
-0.0923942
-0.0746035
-0.0606532
-0.0512559
-0.0470671
-0.0481616
-0.054928
-0.0675429
-0.0859428
-0.109299
-0.135995
-0.163205
-0.186759
-0.200853
-0.200311
-0.182761
-0.152265
-0.116142
-0.0809149
-0.0502974
-0.0255052
-0.0063429
0.00790518
0.0180139
0.024571
0.0280177
0.0288011
0.0274484
0.0245832
0.0209627
0.0172244
0.0136751
0.0107624
0.00846143
0.00691332
0.00592317
0.00537883
0.00494079
0.00457038
0.00397728
0.00330611
0.00217243
0.00094294
-0.286033
-0.289805
-0.290819
-0.29169
-0.291454
-0.289787
-0.286144
-0.280055
-0.271159
-0.259282
-0.244385
-0.226571
-0.20615
-0.183696
-0.159988
-0.13596
-0.112633
-0.0910505
-0.0722197
-0.057088
-0.0465173
-0.0413828
-0.0419716
-0.0486176
-0.0615018
-0.0804711
-0.104554
-0.131873
-0.159569
-0.18358
-0.198314
-0.198551
-0.182147
-0.153059
-0.118257
-0.0839237
-0.0536901
-0.0288836
-0.00946623
0.00515842
0.0157044
0.0227527
0.0267281
0.0280011
0.0270233
0.024392
0.0208135
0.0169904
0.0133417
0.0103865
0.00809822
0.00664026
0.0056866
0.00519064
0.00478357
0.00443618
0.00386693
0.00321065
0.00212074
0.000897254
-0.278107
-0.280432
-0.281866
-0.283094
-0.282889
-0.281149
-0.278148
-0.272985
-0.265133
-0.254434
-0.240856
-0.224435
-0.205398
-0.184218
-0.161568
-0.138275
-0.115287
-0.0936201
-0.0742932
-0.0583247
-0.0467455
-0.0401681
-0.0397364
-0.0455006
-0.0576921
-0.0761253
-0.0997905
-0.126716
-0.154072
-0.177851
-0.192914
-0.194083
-0.179336
-0.152384
-0.119623
-0.0867417
-0.0572333
-0.0325814
-0.0129763
0.00200805
0.0129824
0.020502
0.0249819
0.0267464
0.0261781
0.0238732
0.0204671
0.0166906
0.0130447
0.0101001
0.00781931
0.00642178
0.00551051
0.00503583
0.00464036
0.00430329
0.00375035
0.00310661
0.00205794
0.000849871
-0.267543
-0.269042
-0.271285
-0.272851
-0.272985
-0.271634
-0.268857
-0.264611
-0.258023
-0.248801
-0.236874
-0.222204
-0.204934
-0.18545
-0.164331
-0.14232
-0.120199
-0.0988637
-0.079304
-0.0625894
-0.049847
-0.0423427
-0.040582
-0.0448218
-0.0555459
-0.0725982
-0.0950256
-0.120851
-0.147245
-0.170571
-0.185002
-0.187176
-0.174641
-0.150582
-0.120504
-0.0895285
-0.0610303
-0.0366685
-0.0169185
-0.00156764
0.00985704
0.017861
0.0228471
0.0251084
0.0249942
0.0231211
0.0199873
0.0163634
0.0128015
0.00989565
0.00763953
0.00627228
0.00538119
0.00490567
0.00450694
0.00417042
0.00362844
0.00299608
0.00198659
0.000803467
-0.255123
-0.257446
-0.25934
-0.259829
-0.259827
-0.259343
-0.257265
-0.253477
-0.248141
-0.240734
-0.231006
-0.218757
-0.204007
-0.18701
-0.168184
-0.148121
-0.127561
-0.107362
-0.0884016
-0.0715891
-0.0576706
-0.0481567
-0.0446527
-0.0469595
-0.0553517
-0.0699748
-0.0899658
-0.113495
-0.137937
-0.160289
-0.175053
-0.177426
-0.167155
-0.146165
-0.118937
-0.0900973
-0.0629627
-0.039342
-0.0198856
-0.00453177
0.00706583
0.0153428
0.0206683
0.0233219
0.0235847
0.0221267
0.0193454
0.0159641
0.0125592
0.00972504
0.007564
0.00615753
0.00526905
0.0047835
0.00437638
0.00403578
0.00350221
0.00288078
0.00190842
0.000759687
-0.242084
-0.248953
-0.250166
-0.249783
-0.249671
-0.249547
-0.248393
-0.245156
-0.239359
-0.23212
-0.223055
-0.21172
-0.198077
-0.182343
-0.164892
-0.146248
-0.127054
-0.108062
-0.090101
-0.0739963
-0.0605967
-0.0516874
-0.0478238
-0.0493312
-0.0567224
-0.0701365
-0.0888157
-0.110965
-0.134027
-0.15497
-0.167951
-0.169843
-0.159688
-0.139657
-0.114005
-0.0869333
-0.0614093
-0.0390558
-0.0204784
-0.00567178
0.00563316
0.0137992
0.0191521
0.0219632
0.0224725
0.0213281
0.0186398
0.0154316
0.0121672
0.00942703
0.00734195
0.00599456
0.00512859
0.00464747
0.0042435
0.00390296
0.00338054
0.00276979
0.00183098
0.000720491
-0.228354
-0.237687
-0.239189
-0.237874
-0.236791
-0.235918
-0.234125
-0.230728
-0.226106
-0.219696
-0.211356
-0.201003
-0.188649
-0.174464
-0.158764
-0.141995
-0.124714
-0.107581
-0.0913409
-0.0767662
-0.0648831
-0.0565903
-0.0528224
-0.0540729
-0.0607236
-0.0728212
-0.0896447
-0.109493
-0.129869
-0.147184
-0.158562
-0.159434
-0.149533
-0.131053
-0.107675
-0.0829679
-0.0594895
-0.0386919
-0.0211836
-0.00704472
0.00389347
0.0119094
0.0172661
0.0202009
0.0209368
0.0199606
0.0176843
0.0147631
0.01173
0.0091515
0.00716924
0.00586736
0.00501164
0.00452308
0.00411243
0.00376551
0.00325173
0.00265079
0.00174831
0.000677799
-0.214473
-0.224752
-0.226646
-0.224935
-0.223242
-0.222054
-0.220439
-0.217686
-0.213455
-0.20753
-0.199888
-0.190536
-0.179491
-0.166868
-0.152921
-0.138024
-0.122659
-0.107412
-0.0929447
-0.079956
-0.0693281
-0.0618475
-0.0583764
-0.0594115
-0.0652352
-0.0758092
-0.0904189
-0.107482
-0.124711
-0.139101
-0.147973
-0.147981
-0.138818
-0.122292
-0.101394
-0.0791
-0.0576385
-0.038359
-0.0219027
-0.00843811
0.00210911
0.00993985
0.0152616
0.0182878
0.0192424
0.018555
0.0166051
0.0140006
0.0112399
0.00885448
0.00698425
0.00572929
0.00488514
0.00438752
0.00396905
0.00361532
0.00311078
0.00252193
0.00165863
0.000632992
-0.201003
-0.211114
-0.213411
-0.21186
-0.210046
-0.208811
-0.207416
-0.205003
-0.201134
-0.195744
-0.188884
-0.180574
-0.17082
-0.159708
-0.147442
-0.13434
-0.120817
-0.107379
-0.0945992
-0.0831044
-0.0736279
-0.0669248
-0.0636769
-0.0643365
-0.0691318
-0.0779683
-0.090169
-0.104348
-0.11857
-0.130263
-0.137038
-0.136494
-0.128245
-0.113667
-0.0951631
-0.0752063
-0.0557284
-0.0379704
-0.0225899
-0.00982989
0.000298388
0.0079224
0.0131967
0.0163131
0.0174825
0.0170789
0.0154556
0.0131789
0.0107025
0.00851752
0.00676934
0.00556808
0.00474092
0.00423743
0.00381404
0.00345568
0.0029623
0.00238829
0.00156587
0.000588611
-0.18753
-0.197337
-0.200064
-0.198923
-0.19724
-0.196031
-0.194758
-0.192611
-0.189175
-0.184397
-0.178338
-0.171038
-0.162506
-0.152809
-0.142115
-0.13069
-0.118888
-0.10714
-0.0959397
-0.0858427
-0.0774784
-0.071466
-0.0683629
-0.0685688
-0.0722668
-0.0793366
-0.0891831
-0.100646
-0.11206
-0.121315
-0.126358
-0.125419
-0.118079
-0.105349
-0.0891137
-0.0713861
-0.0538204
-0.0375524
-0.0232474
-0.0112097
-0.00152355
0.00587347
0.0110883
0.0142871
0.0156562
0.0155284
0.0142358
0.0122922
0.0101071
0.00813217
0.00651656
0.00537817
0.00457539
0.00407122
0.00364698
0.00328687
0.00280702
0.00225064
0.00147091
0.000544882
-0.174319
-0.183849
-0.186897
-0.186179
-0.184724
-0.183608
-0.182471
-0.180624
-0.17767
-0.173532
-0.168257
-0.161904
-0.154505
-0.146116
-0.13687
-0.126989
-0.116771
-0.106581
-0.0968484
-0.0880396
-0.080678
-0.075272
-0.0722854
-0.072052
-0.0747113
-0.0801376
-0.0878245
-0.0968068
-0.105678
-0.112743
-0.116339
-0.115093
-0.108597
-0.0975485
-0.0833803
-0.0677091
-0.0519415
-0.0371079
-0.0238651
-0.0125598
-0.00333501
0.00381525
0.00895452
0.0122198
0.0137742
0.013916
0.0129506
0.0113373
0.00944797
0.00769155
0.00621911
0.00515379
0.00438437
0.00388623
0.00346625
0.0031081
0.0026447
0.00210902
0.00137408
0.000501888
-0.161777
-0.17081
-0.174021
-0.173693
-0.172524
-0.171578
-0.170635
-0.169116
-0.166646
-0.163131
-0.158614
-0.153149
-0.146789
-0.139596
-0.131672
-0.123197
-0.114419
-0.105647
-0.097241
-0.0895941
-0.0831306
-0.0782729
-0.0753989
-0.0747759
-0.0765076
-0.0804714
-0.0862408
-0.0930193
-0.0996719
-0.104855
-0.107239
-0.105738
-0.0999652
-0.0903732
-0.0780283
-0.0642137
-0.0501115
-0.0366418
-0.0244361
-0.0138653
-0.00511671
0.00176821
0.00681452
0.0101303
0.0118564
0.0122571
0.0116086
0.0103194
0.00872448
0.00719185
0.00587186
0.00489028
0.00416418
0.0036801
0.00327047
0.00291882
0.00247533
0.0019637
0.00127581
0.000459827
-0.149826
-0.158244
-0.161537
-0.161571
-0.160719
-0.159998
-0.159285
-0.158098
-0.156092
-0.153168
-0.149362
-0.144734
-0.139335
-0.133223
-0.12649
-0.119282
-0.111801
-0.104309
-0.0970853
-0.090476
-0.0848184
-0.0804582
-0.0776965
-0.0767444
-0.0776767
-0.0803814
-0.0845048
-0.0893994
-0.0941793
-0.0977793
-0.099142
-0.0974072
-0.0922185
-0.0838518
-0.073086
-0.0609243
-0.0483459
-0.0361588
-0.024955
-0.0151135
-0.00685136
-0.00024828
0.00468823
0.0080383
0.00992033
0.0105646
0.010219
0.00924357
0.00793838
0.00663205
0.00547227
0.00458484
0.00391233
0.00345111
0.00305859
0.00271864
0.00229892
0.00181498
0.00117642
0.000418777
-0.138403
-0.146246
-0.149574
-0.149921
-0.149381
-0.148902
-0.148432
-0.147565
-0.145995
-0.143624
-0.14048
-0.136622
-0.132101
-0.126969
-0.121304
-0.115225
-0.1089
-0.102535
-0.0963781
-0.0906901
-0.0857533
-0.0818428
-0.0791973
-0.0779814
-0.0782494
-0.0799053
-0.0826537
-0.085993
-0.0892127
-0.0914952
-0.092
-0.0900474
-0.0853203
-0.0779714
-0.068558
-0.0578527
-0.0466552
-0.0356628
-0.025418
-0.0162934
-0.00852323
-0.00221579
0.00259456
0.00596144
0.0079811
0.00885134
0.00879177
0.00811682
0.00709353
0.00601354
0.00501988
0.00423617
0.00362727
0.00319802
0.00282973
0.00250719
0.00211538
0.00166294
0.001076
0.000378675
-0.127651
-0.134909
-0.138201
-0.138804
-0.138549
-0.138309
-0.138076
-0.137512
-0.136346
-0.134485
-0.131948
-0.128792
-0.125064
-0.120812
-0.1161
-0.111024
-0.105722
-0.100359
-0.095134
-0.0902618
-0.0859659
-0.0824637
-0.0799423
-0.0785296
-0.0782653
-0.0790664
-0.0806931
-0.0827584
-0.0847135
-0.085915
-0.0857104
-0.0835649
-0.079203
-0.0726952
-0.0644323
-0.0550013
-0.0450457
-0.0351573
-0.0258222
-0.0173958
-0.0101182
-0.00411736
0.000550982
0.00391632
0.00605383
0.00713024
0.0073374
0.0069471
0.00619541
0.00533941
0.00451579
0.00384409
0.00330812
0.00291994
0.00258313
0.00228405
0.00192452
0.00150757
0.000974488
0.000339385
-0.117606
-0.124244
-0.127443
-0.128251
-0.12825
-0.128233
-0.128223
-0.127937
-0.127139
-0.125739
-0.123753
-0.121227
-0.118208
-0.114737
-0.110867
-0.106676
-0.102271
-0.0977876
-0.0933832
-0.0892293
-0.0855025
-0.0823728
-0.0799857
-0.078439
-0.0777607
-0.0778812
-0.0786181
-0.0796657
-0.0806043
-0.0809361
-0.0801588
-0.0778531
-0.073785
-0.0679736
-0.0606876
-0.0523664
-0.043521
-0.034645
-0.0261659
-0.0184133
-0.0116239
-0.00593767
-0.00142615
0.00191904
0.00415338
0.00541433
0.00586677
0.0057432
0.00525057
0.00461394
0.00396221
0.00340933
0.00295467
0.00261631
0.00231818
0.00204883
0.0017261
0.00134876
0.000871743
0.000300733
-0.108202
-0.114242
-0.117322
-0.118288
-0.118506
-0.118687
-0.118876
-0.118838
-0.118367
-0.117378
-0.11588
-0.113915
-0.111522
-0.108739
-0.105607
-0.102188
-0.0985675
-0.0948513
-0.0911641
-0.0876406
-0.0844188
-0.0816307
-0.0793872
-0.0777633
-0.0767765
-0.0763761
-0.0764201
-0.0766719
-0.0768111
-0.0764601
-0.0752342
-0.0728067
-0.0689831
-0.0637529
-0.0572971
-0.0499401
-0.0420819
-0.0341283
-0.0264481
-0.0193399
-0.0130299
-0.00766308
-0.00332172
-1.5144e-05
0.00229412
0.0037165
0.00439108
0.00451453
0.00426645
0.00384243
0.00336234
0.00293341
0.00256729
0.00228696
0.00203453
0.00180123
0.00151992
0.00118635
0.000767595
0.000262528
-0.0994314
-0.104917
-0.107852
-0.10893
-0.109327
-0.109677
-0.110038
-0.110215
-0.110027
-0.109396
-0.108325
-0.106849
-0.105003
-0.102818
-0.100327
-0.097578
-0.094637
-0.0915864
-0.088523
-0.085551
-0.0827774
-0.0803029
-0.0782102
-0.0765639
-0.0753595
-0.0745769
-0.0740968
-0.0737416
-0.0732709
-0.0723996
-0.0708361
-0.0683282
-0.0647178
-0.059979
-0.054231
-0.0477106
-0.0407267
-0.0336085
-0.0266682
-0.0201712
-0.0143278
-0.00928185
-0.00512215
-0.00187209
0.000489795
0.00204946
0.0029218
0.00327102
0.0032512
0.003031
0.00272023
0.00241861
0.00214696
0.00193211
0.00173204
0.00154104
0.00130578
0.00102017
0.000661872
0.000224574
-0.0913076
-0.0962587
-0.0990269
-0.100177
-0.100716
-0.101204
-0.101707
-0.102063
-0.102114
-0.101788
-0.101083
-0.100029
-0.0986536
-0.0969828
-0.0950427
-0.0928696
-0.0905131
-0.0880362
-0.0855126
-0.0830217
-0.0806456
-0.0784588
-0.0765229
-0.0748791
-0.0735621
-0.0725113
-0.0716509
-0.0708508
-0.0699313
-0.0686795
-0.0668767
-0.0643308
-0.0609153
-0.0565986
-0.0514578
-0.0456634
-0.0394518
-0.033086
-0.0268266
-0.0209045
-0.015511
-0.0107844
-0.00681572
-0.00363907
-0.00124674
0.000425561
0.00147041
0.00202294
0.00221362
0.0021865
0.00204076
0.00186795
0.00169529
0.00155242
0.00141091
0.00126825
0.00108361
0.000850089
0.000554424
0.000186687
-0.0837946
-0.0882394
-0.0908284
-0.0920173
-0.0926649
-0.0932622
-0.093877
-0.0943765
-0.094623
-0.0945504
-0.0941542
-0.0934563
-0.0924809
-0.0912474
-0.0897758
-0.0880928
-0.086235
-0.0842493
-0.0821908
-0.0801193
-0.0780952
-0.0761739
-0.0744083
-0.0728266
-0.0714381
-0.0702121
-0.0690931
-0.0679836
-0.0667504
-0.0652368
-0.0632807
-0.0607373
-0.0575079
-0.0535608
-0.0489447
-0.0437819
-0.0382513
-0.0325603
-0.0269235
-0.0215383
-0.0165752
-0.0121632
-0.00839272
-0.00530499
-0.00290375
-0.00114345
4.8281e-05
0.000780817
0.00116296
0.00131649
0.00132955
0.00128519
0.00121455
0.00114908
0.00107168
0.000983038
0.00085343
0.000675993
0.000445141
0.000148711
-0.076852
-0.0808312
-0.0832376
-0.0844384
-0.0851632
-0.0858409
-0.0865391
-0.0871484
-0.0875497
-0.0876827
-0.08754
-0.0871383
-0.0864964
-0.0856295
-0.0845517
-0.0832817
-0.0818458
-0.0802779
-0.0786184
-0.0769114
-0.0752011
-0.0735283
-0.0719311
-0.0704331
-0.0690332
-0.067715
-0.0664379
-0.0651302
-0.0636954
-0.0620193
-0.0599835
-0.0574804
-0.0544345
-0.0508172
-0.0466595
-0.0420481
-0.0371176
-0.03203
-0.0269596
-0.0220726
-0.0175179
-0.0134133
-0.00984564
-0.00686059
-0.00447083
-0.00264667
-0.0013336
-0.00044483
0.000108801
0.000429038
0.000592937
0.000674819
0.000707701
0.000723805
0.000715327
0.00068585
0.000615448
0.00049788
0.000333964
0.000110515
-0.0704541
-0.074006
-0.076229
-0.0774183
-0.078193
-0.0789253
-0.0796805
-0.0803688
-0.0808875
-0.0811819
-0.0812427
-0.0810818
-0.0807137
-0.0801494
-0.0793983
-0.0784728
-0.0773907
-0.0761758
-0.0748569
-0.0734657
-0.072034
-0.0705919
-0.0691641
-0.0677672
-0.0664015
-0.0650562
-0.0637016
-0.0622864
-0.0607414
-0.0589848
-0.0569311
-0.0545017
-0.0516403
-0.0483233
-0.0445703
-0.0404429
-0.036042
-0.031493
-0.0269358
-0.0225083
-0.0183384
-0.0145317
-0.0111692
-0.00829854
-0.00593914
-0.00407427
-0.00266484
-0.00164365
-0.000939079
-0.000467306
-0.000162123
4.20197e-05
0.000178361
0.000278906
0.000343248
0.000377448
0.00037005
0.00031586
0.000220918
7.2009e-05
-0.0645702
-0.0677295
-0.0697709
-0.070931
-0.0717324
-0.0724969
-0.073286
-0.074026
-0.0746288
-0.0750452
-0.0752647
-0.0752951
-0.0751472
-0.0748285
-0.0743448
-0.0737032
-0.0729152
-0.0719964
-0.0709666
-0.0698474
-0.0686616
-0.067433
-0.0661723
-0.064892
-0.0635943
-0.0622721
-0.0609038
-0.0594529
-0.0578708
-0.0560995
-0.0540786
-0.0517516
-0.0490777
-0.0460385
-0.042647
-0.0389474
-0.035015
-0.0309464
-0.0268528
-0.0228471
-0.0190378
-0.0155174
-0.0123602
-0.00961357
-0.00730151
-0.00541764
-0.00393587
-0.00280568
-0.00197095
-0.00136373
-0.000928163
-0.000607381
-0.000369199
-0.000182727
-4.26669e-05
5.89624e-05
0.000117862
0.000130167
0.000106102
3.31513e-05
-0.0591642
-0.0619662
-0.0638317
-0.0649491
-0.0657583
-0.0665359
-0.0673388
-0.068107
-0.0687651
-0.0692692
-0.0696079
-0.0697862
-0.0698115
-0.0696886
-0.0694202
-0.0690098
-0.0684636
-0.0677912
-0.0670052
-0.0661199
-0.0651505
-0.0641112
-0.0630149
-0.0618636
-0.0606599
-0.0593988
-0.0580654
-0.0566343
-0.0550719
-0.0533378
-0.0513899
-0.0491887
-0.0467054
-0.0439267
-0.0408619
-0.0375431
-0.0340268
-0.030387
-0.0267114
-0.0230917
-0.0196185
-0.0163715
-0.0134176
-0.0108023
-0.0085525
-0.00666956
-0.00513807
-0.00392157
-0.00297729
-0.0022513
-0.00169736
-0.00126702
-0.000930097
-0.000657621
-0.000440069
-0.000268112
-0.000140184
-5.87528e-05
-1.02994e-05
-6.07061e-06
-0.0542028
-0.0566819
-0.0583791
-0.059444
-0.0602455
-0.0610204
-0.0618207
-0.0625975
-0.0632866
-0.0638491
-0.0642735
-0.0645622
-0.0647202
-0.0647499
-0.064652
-0.064427
-0.0640775
-0.0636084
-0.0630271
-0.0623421
-0.061563
-0.0606984
-0.0597561
-0.0587379
-0.0576443
-0.0564712
-0.0552084
-0.0538385
-0.0523386
-0.0506809
-0.0488368
-0.0467793
-0.0444889
-0.0419568
-0.0391902
-0.0362131
-0.0330679
-0.0298115
-0.0265128
-0.0232453
-0.0200839
-0.0170964
-0.0143421
-0.0118635
-0.00968842
-0.00782428
-0.00626402
-0.00498274
-0.00394904
-0.00312117
-0.00246166
-0.00193012
-0.00149894
-0.00114174
-0.000846097
-0.00060192
-0.000402937
-0.000250226
-0.000127913
-4.56174e-05
-0.0496559
-0.0518435
-0.0533812
-0.0543868
-0.0551687
-0.0559284
-0.0567129
-0.0574824
-0.0581827
-0.0587795
-0.0592614
-0.059629
-0.0598854
-0.0600313
-0.0600657
-0.0599871
-0.0597955
-0.0594924
-0.0590812
-0.0585665
-0.0579533
-0.0572467
-0.0564504
-0.0555652
-0.0545905
-0.053523
-0.0523555
-0.051076
-0.0496692
-0.0481162
-0.0463982
-0.0444971
-0.0424004
-0.0401027
-0.0376105
-0.0349421
-0.0321297
-0.0292171
-0.0262581
-0.0233115
-0.0204385
-0.0176963
-0.0151362
-0.0127973
-0.0107073
-0.00887761
-0.00730754
-0.00598157
-0.00487774
-0.00396477
-0.00321301
-0.0025896
-0.00206995
-0.0016306
-0.00125742
-0.000940114
-0.000668919
-0.000443505
-0.000246294
-8.53287e-05
-0.0454938
-0.0474192
-0.0488071
-0.0497495
-0.0505029
-0.051238
-0.0519966
-0.0527467
-0.0534425
-0.0540541
-0.0545705
-0.0549911
-0.0553173
-0.0555489
-0.0556835
-0.0557185
-0.0556518
-0.0554827
-0.0552118
-0.0548407
-0.0543713
-0.0538057
-0.0531455
-0.05239
-0.0515378
-0.0505859
-0.0495291
-0.0483592
-0.0470659
-0.0456368
-0.0440595
-0.0423223
-0.0404179
-0.0383436
-0.0361054
-0.0337175
-0.031205
-0.0286015
-0.0259492
-0.0232948
-0.020688
-0.0181763
-0.0158039
-0.0136059
-0.011609
-0.00982694
-0.00826387
-0.00691158
-0.00575579
-0.00477403
-0.00394353
-0.0032383
-0.00263696
-0.00211931
-0.00167037
-0.00128006
-0.000936177
-0.000637426
-0.000364985
-0.000125092
-0.0416889
-0.0433794
-0.0446277
-0.0455052
-0.046224
-0.0469278
-0.0476534
-0.0483751
-0.0490545
-0.0496656
-0.0501982
-0.0506509
-0.051024
-0.0513162
-0.0515247
-0.0516458
-0.0516765
-0.0516143
-0.051458
-0.051207
-0.0508612
-0.0504203
-0.0498849
-0.0492529
-0.0485222
-0.0476897
-0.0467516
-0.0457021
-0.0445344
-0.0432402
-0.0418116
-0.0402414
-0.0385257
-0.0366638
-0.0346612
-0.0325295
-0.0302883
-0.0279636
-0.0255886
-0.0232001
-0.0208384
-0.0185427
-0.0163505
-0.0142928
-0.0123947
-0.0106712
-0.00912966
-0.0077675
-0.00657651
-0.00554156
-0.00464571
-0.0038692
-0.00319378
-0.00260264
-0.00208082
-0.00161885
-0.00120282
-0.000830555
-0.000483008
-0.000164727
-0.0382167
-0.0396972
-0.0408166
-0.0416293
-0.0423097
-0.0429778
-0.0436657
-0.0443528
-0.0450071
-0.0456063
-0.0461412
-0.0466096
-0.0470112
-0.047344
-0.047605
-0.0477899
-0.0478949
-0.0479168
-0.0478531
-0.0477017
-0.0474612
-0.0471298
-0.046707
-0.0461899
-0.045576
-0.0448619
-0.0440445
-0.0431196
-0.0420825
-0.0409278
-0.0396506
-0.0382463
-0.0367135
-0.0350525
-0.0332687
-0.0313714
-0.0293764
-0.0273038
-0.0251797
-0.0230332
-0.020897
-0.0188028
-0.0167825
-0.0148631
-0.0130674
-0.0114109
-0.00990308
-0.00854541
-0.00733436
-0.00626077
-0.00531258
-0.00447544
-0.00373423
-0.00307538
-0.00248444
-0.00195297
-0.0014664
-0.0010218
-0.000599658
-0.000203743
-0.0350553
-0.0363487
-0.0373497
-0.0380992
-0.0387392
-0.0393692
-0.0400168
-0.0406655
-0.041289
-0.0418683
-0.042395
-0.0428668
-0.0432826
-0.0436403
-0.0439367
-0.0441673
-0.0443281
-0.0444152
-0.0444254
-0.0443556
-0.0442036
-0.0439667
-0.0436447
-0.0432329
-0.0427284
-0.0421279
-0.0414285
-0.0406272
-0.0397205
-0.0387046
-0.0375766
-0.0363337
-0.0349756
-0.0335035
-0.0319223
-0.0302398
-0.0284684
-0.026624
-0.0247272