/*--------------------------------*- C++ -*----------------------------------*\
| =========                 |                                                 |
| \\      /  F ield         | OpenFOAM: The Open Source CFD Toolbox           |
|  \\    /   O peration     | Version:  2512                                  |
|   \\  /    A nd           | Website:  www.openfoam.com                      |
|    \\/     M anipulation  |                                                 |
\*---------------------------------------------------------------------------*/
FoamFile
{
    version     2.0;
    format      ascii;
    arch        "LSB;label=32;scalar=64";
    class       surfaceScalarField;
    location    "195.25";
    object      phi;
}
// * * * * * * * * * * * * * * * * * * * * * * * * * * * * * * * * * * * * * //

dimensions      [0 3 -1 0 0 0 0];

oriented        oriented;

internalField   nonuniform List<scalar> 
26232
(
-5.4836e-05
0.000891552
-0.000836716
2.08614e-05
0.00160331
-0.00167901
0.000443023
0.00144482
-0.00186698
0.00141639
0.000481885
-0.00145526
0.00313855
-0.00126487
-0.000457281
0.00579941
-0.00379617
0.00113531
0.00957464
-0.0071182
0.00334296
0.014614
-0.0112271
0.00618776
0.0210261
-0.0160952
0.00968313
0.0288615
-0.0216611
0.0138256
0.0380994
-0.0278267
0.0185888
0.0486391
-0.0344602
0.0239205
0.0603007
-0.0414052
0.0297436
0.072834
-0.048493
0.0359597
0.0859349
-0.0555569
0.042456
0.0992679
-0.0624455
0.0491125
0.112492
-0.0690335
0.0558096
0.125285
-0.0752302
0.0624374
0.137371
-0.0809816
0.0688949
0.148534
-0.086285
0.0751227
0.158645
-0.0911346
0.0810236
0.167608
-0.0956885
0.0867253
0.175385
-0.0997021
0.0919253
-0.104053
0.0977197
0.181718
3.31376e-05
0.000858414
0.000365414
0.00127104
0.00122415
0.00058608
0.00282986
-0.00112383
0.00539443
-0.00382944
0.00911129
-0.00751303
0.0141389
-0.0121458
0.0205797
-0.017668
0.0284591
-0.0239745
0.0377092
-0.0309113
0.0481645
-0.038282
0.0595689
-0.0458647
0.0715971
-0.0534334
0.0838842
-0.06078
0.0960609
-0.0677336
0.107789
-0.0741732
0.11879
-0.0800349
0.128872
-0.0853121
0.137938
-0.090048
0.145981
-0.0943277
0.153096
-0.09825
0.159372
-0.101964
0.165107
-0.105437
-0.109224
0.170279
0.000130413
0.000728002
0.000753965
0.000647487
0.00210904
-0.000768994
0.00442626
-0.00344104
0.00791672
-0.0073199
0.0127503
-0.0123466
0.0190278
-0.0184233
0.0267536
-0.0253937
0.035817
-0.0330379
0.045991
-0.0410853
0.05695
-0.0492409
0.0683045
-0.0572192
0.0796471
-0.064776
0.0905997
-0.0717326
0.100855
-0.0779885
0.110204
-0.0835229
0.118555
-0.0883853
0.125921
-0.0926779
0.132406
-0.0965338
0.138175
-0.100097
0.143414
-0.103489
0.148292
-0.106842
0.152981
-0.110126
-0.113742
0.157499
0.000236242
0.000491759
0.00118024
-0.000296514
0.00307843
-0.00266718
0.00615884
-0.00652146
0.0106066
-0.0117676
0.0165284
-0.0182684
0.023917
-0.025812
0.0326284
-0.034105
0.0423824
-0.042792
0.0527925
-0.0514954
0.0634165
-0.0598649
0.0738189
-0.0676216
0.0836288
-0.0745859
0.0925834
-0.0806872
0.100549
-0.0859545
0.107521
-0.0904945
0.113597
-0.0944608
0.118942
-0.0980231
0.123748
-0.101341
0.128197
-0.104545
0.132436
-0.107729
0.136557
-0.110963
0.140659
-0.114228
-0.117775
0.144692
0.000352502
0.000139257
0.00164399
-0.001588
0.00411883
-0.00514202
0.00798052
-0.0103831
0.0133512
-0.0171383
0.0202259
-0.0251431
0.028441
-0.034027
0.037675
-0.0433391
0.0474889
-0.0526059
0.0573943
-0.0614008
0.0669331
-0.0694037
0.0757446
-0.0764331
0.0836082
-0.0824496
0.0904533
-0.0875322
0.0963395
-0.0918407
0.101417
-0.0955721
0.105879
-0.0989227
0.109918
-0.102062
0.113694
-0.105117
0.117328
-0.108178
0.120895
-0.111296
0.124434
-0.114502
0.127989
-0.117784
-0.121289
0.131503
0.000481579
-0.000342322
0.00214402
-0.00325045
0.00520974
-0.00820773
0.00982458
-0.014998
0.016002
-0.0233158
0.0235781
-0.0327192
0.0322061
-0.042655
0.0414032
-0.0525361
0.0506366
-0.0618393
0.0594218
-0.070186
0.0674004
-0.0773822
0.0743805
-0.0834133
0.0803353
-0.0884044
0.0853676
-0.0925644
0.0896566
-0.0961297
0.0934051
-0.0993206
0.0967982
-0.102316
0.0999812
-0.105245
0.103055
-0.108191
0.106081
-0.111204
0.109096
-0.11431
0.112114
-0.11752
0.115158
-0.120827
-0.124308
0.118177
0.00062358
-0.000965902
0.00267049
-0.00529736
0.00631078
-0.011848
0.0115907
-0.0202779
0.0183691
-0.0300942
0.0262956
-0.0406457
0.0348551
-0.0512146
0.0434698
-0.0611508
0.0516176
-0.0699871
0.058925
-0.0774934
0.0652087
-0.0836659
0.0704645
-0.0886691
0.0748192
-0.0927592
0.0784678
-0.096213
0.0816164
-0.0992783
0.084444
-0.102148
0.0870855
-0.104957
0.0896313
-0.10779
0.0921358
-0.110696
0.0946292
-0.113698
0.0971263
-0.116807
0.0996325
-0.120027
0.102156
-0.123351
-0.126811
0.104659
0.000774883
-0.00174079
0.00320143
-0.00772391
0.00735892
-0.0160055
0.01315
-0.0260689
0.0202478
-0.037192
0.0281234
-0.0485214
0.0361542
-0.0592454
0.0437656
-0.0687623
0.0505454
-0.0767668
0.0562933
-0.0832414
0.0610065
-0.0883791
0.0648205
-0.0924832
0.0679383
-0.095877
0.070569
-0.0988437
0.0728896
-0.101599
0.0750303
-0.104289
0.0770766
-0.107004
0.0790791
-0.109793
0.0810651
-0.112682
0.0830484
-0.115681
0.0850348
-0.118794
0.0870262
-0.122018
0.0890254
-0.12535
-0.128793
0.0910075
0.000928185
-0.00266897
0.00370442
-0.0105001
0.00827617
-0.0205773
0.0143674
-0.0321601
0.0214626
-0.0442872
0.0289026
-0.0559614
0.0360465
-0.0663892
0.0424155
-0.0751313
0.0477636
-0.0821149
0.0520652
-0.087543
0.0554508
-0.0917646
0.0581261
-0.0951585
0.0603045
-0.0980554
0.0621657
-0.100705
0.0638406
-0.103274
0.0654136
-0.105862
0.0669343
-0.108524
0.0684291
-0.111288
0.0699116
-0.114164
0.0713879
-0.117157
0.0728605
-0.120266
0.0743303
-0.123488
0.075797
-0.126817
-0.130242
0.0772462
0.00107346
-0.00374243
0.00414148
-0.0135682
0.00898357
-0.0254193
0.0151297
-0.0383063
0.0219063
-0.0510638
0.0286005
-0.0626556
0.0346404
-0.0724291
0.0396998
-0.0801907
0.043703
-0.0861181
0.0467584
-0.0905984
0.0490685
-0.0940747
0.050852
-0.096942
0.0522957
-0.0994991
0.0535358
-0.101945
0.0546601
-0.104398
0.0557195
-0.106921
0.0567412
-0.109546
0.057739
-0.112285
0.0587197
-0.115145
0.0596864
-0.118124
0.0606404
-0.12122
0.0615818
-0.124429
0.0625089
-0.127744
-0.131149
0.0634157
0.00119996
-0.00494239
0.00447641
-0.0168446
0.00941661
-0.0303595
0.0153672
-0.0442569
0.0215558
-0.0572524
0.0272974
-0.0683972
0.0321502
-0.0772818
0.0359535
-0.083994
0.0387704
-0.088935
0.0407894
-0.0926174
0.0422335
-0.0955188
0.0433001
-0.0980086
0.0441358
-0.100335
0.0448359
-0.102645
0.0454553
-0.105018
0.0460235
-0.10749
0.0465553
-0.110078
0.047058
-0.112788
0.0475357
-0.115622
0.0479904
-0.118579
0.0484225
-0.121653
0.0488316
-0.124838
0.0492148
-0.128127
-0.131505
0.0495707
0.00130049
-0.00624287
0.00468351
-0.0202276
0.00953731
-0.0352133
0.0150635
-0.0497831
0.0204644
-0.0626533
0.0251502
-0.073083
0.0288338
-0.0809655
0.0314997
-0.08666
0.0333037
-0.090739
0.0344667
-0.0937804
0.0351987
-0.0962508
0.0356614
-0.0984713
0.0359619
-0.100635
0.0361628
-0.102846
0.0362975
-0.105152
0.0363823
-0.107575
0.0364257
-0.110121
0.036432
-0.112794
0.0364041
-0.115595
0.0363439
-0.118518
0.0362519
-0.121561
0.0361276
-0.124714
0.035968
-0.127967
0.0357741
-0.131311
-0.00030836
-0.00180617
0.00211453
-0.00106429
-0.00389095
0.00464687
-0.00216664
-0.00490308
0.00600543
-0.00354281
-0.00512812
0.0065043
-0.00513994
-0.00480558
0.00640271
-0.0069202
-0.00411897
0.00589922
-0.00885589
-0.0031912
0.00512689
-0.0109249
-0.00208799
0.00415697
-0.0131069
-0.000828074
0.00301012
-0.0153801
0.000602464
0.00167073
-0.0177198
0.00223599
0.000103734
-0.0201018
0.0041106
-0.0017286
-0.0224922
0.00626396
-0.00387362
-0.0248513
0.00872585
-0.00636674
-0.0271317
0.0115156
-0.00923521
-0.029277
0.0146391
-0.0124938
-0.0312214
0.0180859
-0.0161414
-0.03289
0.0218267
-0.0201581
-0.0342001
0.0258107
-0.0245007
-0.0350638
0.0299646
-0.029101
-0.0353926
0.0341932
-0.0338644
-0.0351016
0.0383811
-0.0386722
-0.0341233
0.0424089
-0.0433872
0.0461912
-0.0324539
-0.0478606
-0.000324336
-0.00148183
-0.00110097
-0.00311431
-0.00220977
-0.00379428
-0.0035666
-0.00377129
-0.00511302
-0.00325916
-0.00680882
-0.00242316
-0.00862474
-0.00137528
-0.010536
-0.000176722
-0.012517
0.00115292
-0.0145387
0.00262419
-0.0165666
0.00426383
-0.0185599
0.00610398
-0.0204702
0.00817421
-0.0222404
0.010496
-0.023804
0.0130793
-0.025085
0.01592
-0.0259967
0.0189976
-0.0264435
0.0222734
-0.0263214
0.0256887
-0.0255219
0.0291652
-0.023936
0.0326073
-0.0214625
0.0359076
-0.0180067
0.038953
0.041724
-0.0135394
-0.0003168
-0.00116503
-0.00106265
-0.00236847
-0.00210682
-0.00275011
-0.00335646
-0.00252165
-0.00474692
-0.00186869
-0.00623327
-0.000936817
-0.00778175
0.000173196
-0.0093621
0.00140363
-0.0109421
0.00273294
-0.0124835
0.00416553
-0.01394
0.00572042
-0.0152573
0.00742125
-0.0163717
0.00928865
-0.0172107
0.011335
-0.0176923
0.0135609
-0.0177254
0.0159532
-0.0172107
0.0184829
-0.0160407
0.0211034
-0.0141027
0.0237507
-0.011281
0.0263434
-0.00745919
0.0287855
-0.00252515
0.0309736
0.00361237
0.0328155
0.0342866
0.0110497
-0.000294539
-0.000870491
-0.000977727
-0.00168528
-0.00191348
-0.00181436
-0.00300156
-0.00143357
-0.00417008
-0.00070017
-0.00536719
0.000260291
-0.00655234
0.00135835
-0.00768841
0.0025397
-0.00873549
0.00378003
-0.00964679
0.00507682
-0.0103665
0.00644014
-0.0108293
0.00788406
-0.0109605
0.00941982
-0.0106765
0.011051
-0.00988576
0.0127701
-0.00848927
0.0145567
-0.00638296
0.0163766
-0.0034598
0.0181802
0.00038866
0.0199022
0.00527048
0.0214616
0.0112909
0.0227651
0.0185489
0.0237156
0.0271407
0.0242237
0.0241529
0.0372744
-0.00026778
-0.000602711
-0.000878302
-0.00107476
-0.00169197
-0.00100069
-0.00260151
-0.000524034
-0.00352687
0.000225193
-0.00440775
0.00114117
-0.0051954
0.002146
-0.00584503
0.00318933
-0.00630957
0.00424457
-0.00653547
0.00530272
-0.00646045
0.00636512
-0.00601291
0.00743652
-0.00511235
0.00851926
-0.00367063
0.00960926
-0.00159354
0.010693
0.00121708
0.011746
0.00486272
0.0127309
0.00944465
0.0135983
0.0150611
0.0142858
0.0218038
0.0147189
0.0297569
0.014812
0.03901
0.0144624
0.0495865
0.0136472
0.0118532
0.0618862
-0.000245324
-0.000357387
-0.000791698
-0.000528383
-0.0014951
-0.000297289
-0.00224104
0.00022191
-0.00294101
0.000925155
-0.00352574
0.00172591
-0.00393787
0.00255813
-0.00412487
0.00337633
-0.00403325
0.00415294
-0.00360444
0.0048739
-0.00277249
0.00553318
-0.00146348
0.0061275
0.00040397
0.00665182
0.00291755
0.00709568
0.00616942
0.00744115
0.0102543
0.00766112
0.0152668
0.00771847
0.0212994
0.00756573
0.0284408
0.00714445
0.0367734
0.00638623
0.0463645
0.00522097
0.0573201
0.00350681
0.0695357
0.00143159
-0.00229505
0.083684
-0.000231875
-0.000125512
-0.000732233
-2.80254e-05
-0.00135011
0.000320587
-0.00196369
0.000835491
-0.00247612
0.00143759
-0.00280936
0.00205914
-0.00289734
0.00264611
-0.00267958
0.00315857
-0.00209588
0.00356924
-0.00108241
0.00386043
0.000430541
0.00402023
0.00251946
0.00403858
0.00526736
0.00390392
0.00876256
0.00360048
0.0130974
0.00310633
0.0183662
0.00239232
0.0246635
0.00142118
0.0320812
0.000148043
0.040709
-0.0014834
0.0506322
-0.00353692
0.0619049
-0.00605175
0.0746779
-0.00926621
0.0886986
-0.0125891
-0.018418
0.104821
-0.000226514
0.000101002
-0.000695734
0.000441195
-0.00124801
0.000872867
-0.00175335
0.00134083
-0.00210641
0.00179064
-0.00221974
0.00217248
-0.0020172
0.00244357
-0.00142795
0.00256931
-0.000381501
0.0025228
0.00119599
0.00228294
0.00338393
0.00183229
0.00626826
0.00115425
0.00994124
0.000230946
0.0145002
-0.000958522
0.0200464
-0.00243978
0.0266815
-0.0042428
0.0345058
-0.00640314
0.043615
-0.00896122
0.0540923
-0.0119606
0.066014
-0.0154586
0.079403
-0.0194408
0.0943808
-0.0242441
0.11062
-0.0288281
-0.036569
0.128771
-0.000222319
0.000323321
-0.000660447
0.000879323
-0.0011438
0.00135622
-0.00153338
0.00173041
-0.00171341
0.00197066
-0.00158394
0.00204301
-0.00105418
0.00191381
-3.65532e-05
0.00155169
0.0015571
0.000929142
0.00381999
2.00503e-05
0.00685024
-0.00119796
0.0107519
-0.00274745
0.0156329
-0.00465003
0.0216019
-0.00692749
0.028764
-0.00960188
0.0372163
-0.0126951
0.0470414
-0.0162283
0.0583015
-0.0202213
0.0710295
-0.0246887
0.085226
-0.0296551
0.100836
-0.0350506
0.117783
-0.0411911
0.135851
-0.0468961
-0.0556557
0.154938
-0.00020942
0.000532741
-0.00059344
0.00126334
-0.000970386
0.00173317
-0.00118978
0.0019498
-0.00112125
0.00190213
-0.000646658
0.00156842
0.00034625
0.000920903
0.00197071
-7.27707e-05
0.00433819
-0.00143833
0.00756694
-0.0032087
0.0117758
-0.00540681
0.017081
-0.00805267
0.0235912
-0.0111602
0.0314004
-0.0147367
0.0405801
-0.0187816
0.051172
-0.023287
0.0631806
-0.0282368
0.0765674
-0.0336082
0.0912458
-0.0393671
0.107076
-0.0454852
0.123882
-0.0518565
0.141335
-0.0586445
0.159393
-0.0649538
-0.073324
0.177061
-0.00017861
0.000711351
-0.000464063
0.0015488
-0.000664266
0.00193337
-0.000614191
0.00189973
-0.000163985
0.00145193
0.000828299
0.000576133
0.00250186
-0.000752662
0.00499342
-0.00256433
0.00844221
-0.00488713
0.0129777
-0.00774419
0.0187183
-0.0111474
0.0257608
-0.0150951
0.0341704
-0.0195698
0.0439718
-0.024538
0.0551413
-0.0299511
0.067602
-0.0357477
0.0812219
-0.0418567
0.0958155
-0.0482018
0.111147
-0.054699
0.126946
-0.0612834
0.142924
-0.0678344
0.158702
-0.0744226
0.174267
-0.0805187
-0.0874024
0.188345
-0.000125365
-0.000255581
-0.000189193
0.00025528
0.00124993
0.00296137
0.00555167
0.0091751
0.0139711
0.0200526
0.027494
0.0363194
0.0464931
0.0579148
0.0704197
0.0837844
0.0977373
0.111973
0.126169
0.140008
0.153197
0.1655
0.176907
0.187224
-0.0278003
0.0661687
-0.0708223
-0.021762
0.0705667
-0.0766049
-0.0142667
0.0727062
-0.0802016
-0.00528587
0.0719202
-0.080901
0.00507828
0.0675611
-0.0779253
0.0165676
0.0591265
-0.0706158
0.0287325
0.0462858
-0.0584507
0.0412047
0.0290168
-0.041489
0.0534958
0.0074094
-0.0197005
0.0654053
-0.0180026
0.00609312
0.0768317
-0.0466505
0.0352241
0.0876503
-0.0768201
0.0660015
0.0974693
-0.105545
0.0957256
0.105611
-0.129262
0.121121
0.111422
-0.145478
0.139667
0.114673
-0.153881
0.15063
0.115452
-0.155904
0.155125
0.113526
-0.154308
0.156234
0.108506
-0.153242
0.158262
0.101274
-0.155666
0.162898
0.09482
-0.158257
0.164711
0.0928537
-0.150208
0.152174
0.0970947
-0.120207
0.115966
0.106554
-0.0664593
0.0570003
0.118753
0.00119093
-0.0133898
0.131066
0.0678676
-0.0801813
0.14131
0.121247
-0.131491
0.148334
0.156941
-0.163965
0.152347
0.17638
-0.180393
0.153781
0.184601
-0.186035
0.1521
0.19036
-0.188679
0.146782
0.203116
-0.197798
0.139358
0.218073
-0.210649
0.133368
0.214916
-0.208926
0.131692
0.170007
-0.168331
0.13489
0.0843829
-0.0875803
0.141179
-0.0188389
0.0125492
0.148257
-0.109262
0.102184
0.154249
-0.169263
0.163271
0.157448
-0.202319
0.19912
0.155998
-0.217202
0.218652
0.149537
-0.235242
0.241703
0.140831
-0.238905
0.247611
0.134787
-0.220691
0.226735
0.134439
-0.144176
0.144524
0.139774
-0.039346
0.0340111
0.147154
0.0676675
-0.0750476
0.151733
0.159401
-0.16398
0.15046
0.211794
-0.210521
0.144931
0.27854
-0.273012
0.139964
0.261879
-0.256912
0.139985
0.22898
-0.229001
0.143832
0.103151
-0.106999
0.147149
-0.0303764
0.0270589
0.146854
-0.119211
0.119507
0.14433
-0.287263
0.289787
0.14275
-0.255071
0.25665
0.142033
-0.298789
0.299506
0.140741
-0.148006
0.149299
0.0994472
-0.0974668
-0.00677748
0.0594068
0.00115958
0.0626296
0.0102712
0.0635946
0.0204381
0.0617533
0.0314173
0.0565819
0.0428769
0.0476669
0.0544131
0.0347495
0.0656765
0.0177534
0.0763042
-0.00321832
0.0862372
-0.0279356
0.0954064
-0.0558197
0.103683
-0.085097
0.110676
-0.112538
0.11582
-0.134406
0.118657
-0.148315
0.119146
-0.15437
0.117676
-0.154435
0.114344
-0.150975
0.108522
-0.14742
0.100162
-0.147306
0.091525
-0.14962
0.0867398
-0.145423
0.0888673
-0.122335
0.0977459
-0.075338
0.110874
-0.0119367
0.124936
0.0538052
0.137272
0.108911
0.146443
0.147769
0.152431
0.170392
0.155408
0.181624
0.154881
0.190887
0.150672
0.207325
0.144472
0.224274
0.139392
0.219996
0.137776
0.171623
0.14013
0.082029
0.144976
-0.0236851
0.150335
-0.11462
0.154641
-0.173569
0.156607
-0.204285
0.154481
-0.215075
0.147624
-0.228385
0.138545
-0.229826
0.132322
-0.214468
0.132386
-0.14424
0.138535
-0.0454954
0.146785
0.0594182
0.151883
0.154303
0.151016
0.212662
0.145728
0.283829
0.140721
0.266885
0.140623
0.229079
0.144386
0.0993886
0.147846
-0.0338362
0.147424
-0.11879
0.144679
-0.284518
0.142968
-0.253359
0.142057
-0.297879
0.140607
-0.146556
0.10149
0.0190655
0.0513909
0.0280246
0.0536705
0.0377855
0.0538337
0.0481598
0.051379
0.0588568
0.045885
0.0695362
0.0369875
0.079857
0.0244287
0.0895153
0.00809503
0.0983218
-0.0120248
0.106194
-0.0358076
0.113092
-0.0627177
0.118825
-0.0908298
0.122979
-0.116692
0.125128
-0.136555
0.125097
-0.148285
0.123079
-0.152351
0.11963
-0.150986
0.115124
-0.146469
0.10895
-0.141246
0.100267
-0.138623
0.0902409
-0.139595
0.082859
-0.138041
0.0823999
-0.121876
0.0899701
-0.0829082
0.103316
-0.0252822
0.118703
0.0384174
0.132921
0.094694
0.144207
0.136482
0.152212
0.162388
0.156843
0.176993
0.157701
0.190028
0.154902
0.210124
0.150092
0.229084
0.14587
0.224218
0.144153
0.173341
0.145423
0.0807587
0.148705
-0.0269672
0.152299
-0.118214
0.154921
-0.176192
0.155695
-0.205058
0.153037
-0.212417
0.145997
-0.221346
0.136701
-0.220529
0.130288
-0.208055
0.130632
-0.144584
0.137413
-0.0522761
0.146437
0.0503942
0.152082
0.148658
0.151716
0.213027
0.146742
0.288802
0.141695
0.271932
0.141422
0.229352
0.14506
0.0957504
0.148666
-0.0374415
0.148127
-0.118251
0.145116
-0.281507
0.14326
-0.251504
0.142199
-0.296818
0.140637
-0.144994
0.103574
0.0458471
0.0428182
0.0550875
0.0444302
0.0648154
0.0441058
0.0747976
0.0413968
0.0847298
0.0359527
0.0942996
0.0274178
0.103202
0.0155265
0.111361
-6.3881e-05
0.118474
-0.0191379
0.124518
-0.0418518
0.129371
-0.0675705
0.132725
-0.0941845
0.134145
-0.118112
0.133382
-0.135792
0.130623
-0.145526
0.126365
-0.148093
0.121226
-0.145847
0.115727
-0.14097
0.109501
-0.135021
0.101257
-0.130378
0.0908883
-0.129226
0.0814962
-0.128649
0.078103
-0.118482
0.0835184
-0.0883236
0.096216
-0.0379799
0.11239
0.022243
0.128211
0.0788736
0.141528
0.123166
0.151558
0.152357
0.157952
0.170599
0.16042
0.18756
0.159283
0.21126
0.155994
0.232373
0.152607
0.227605
0.150591
0.175356
0.150672
0.0806779
0.15228
-0.0285753
0.154124
-0.120058
0.155097
-0.177165
0.154703
-0.204665
0.15161
-0.209324
0.14458
-0.214316
0.135242
-0.211191
0.128641
-0.201455
0.129103
-0.145046
0.136354
-0.0595271
0.146066
0.040682
0.152303
0.142421
0.152552
0.212779
0.147984
0.29337
0.142916
0.277
0.142408
0.22986
0.145856
0.0923028
0.149596
-0.0411821
0.148954
-0.117609
0.145634
-0.278187
0.143622
-0.249491
0.142447
-0.295643
0.140818
-0.143365
0.105678
0.0705371
0.0341673
0.0795634
0.0354039
0.0888422
0.0348269
0.098148
0.032091
0.107182
0.0269189
0.115687
0.0189123
0.123364
0.00784997
0.130314
-0.00701386
0.13613
-0.0249539
0.140732
-0.0464537
0.143803
-0.0706415
0.144888
-0.09527
0.143633
-0.116856
0.140107
-0.132266
0.134896
-0.140315
0.128778
-0.141975
0.12237
-0.139439
0.116124
-0.134724
0.109948
-0.128844
0.102598
-0.123029
0.0929132
-0.119541
0.0825378
-0.118273
0.0763532
-0.112298
0.0787806
-0.090751
0.089852
-0.0490513
0.106088
0.00600692
0.123109
0.0618532
0.138269
0.108005
0.150269
0.140358
0.158502
0.162366
0.162776
0.183286
0.16352
0.210516
0.16188
0.234013
0.159326
0.230159
0.156963
0.177719
0.155692
0.0819491
0.155616
-0.0284995
0.155749
-0.12019
0.155135
-0.176551
0.153608
-0.203138
0.150157
-0.205874
0.143301
-0.207459
0.134092
-0.201983
0.127322
-0.194684
0.127748
-0.145472
0.135287
-0.0670662
0.145615
0.0303543
0.152506
0.13553
0.153495
0.211789
0.149444
0.297422
0.144397
0.282046
0.143594
0.230664
0.146766
0.0891303
0.150619
-0.0450354
0.14989
-0.116879
0.146228
-0.274526
0.144045
-0.247308
0.142788
-0.294386
0.141135
-0.141712
0.107774
0.091987
0.0258643
0.100491
0.0269003
0.109146
0.0261716
0.117721
0.0235164
0.12593
0.0187095
0.133583
0.0112591
0.140416
0.00101689
0.146403
-0.0130001
0.151204
-0.0297549
0.154514
-0.0497641
0.155855
-0.0719821
0.154719
-0.0941347
0.150947
-0.113084
0.14498
-0.126299
0.137738
-0.133072
0.130192
-0.134429
0.122947
-0.132194
0.116265
-0.128042
0.110163
-0.122743
0.103798
-0.116663
0.095559
-0.111303
0.0854555
-0.10817
0.0772152
-0.104058
0.0762335
-0.0897692
0.084605
-0.0574228
0.099975
-0.00936304
0.117617
0.0442116
0.134295
0.0913265
0.148118
0.126534
0.158215
0.15227
0.164439
0.177062
0.167231
0.207724
0.167371
0.233873
0.165721
0.23181
0.163012
0.180428
0.160363
0.0845983
0.158611
-0.0267472
0.157108
-0.118688
0.154997
-0.17444
0.152378
-0.200519
0.148619
-0.202115
0.142071
-0.20091
0.133155
-0.193067
0.12625
-0.187779
0.126497
-0.14572
0.134145
-0.0747139
0.145016
0.0194835
0.152635
0.127911
0.154502
0.209922
0.151095
0.300829
0.146132
0.287009
0.144982
0.231814
0.147784
0.0863284
0.151715
-0.0489664
0.150918
-0.116083
0.14689
-0.270498
0.144523
-0.244941
0.14321
-0.293074
0.141574
-0.140076
0.109832
0.112046
0.0186395
0.119577
0.0193693
0.127341
0.0184081
0.135031
0.015826
0.142386
0.0113544
0.149066
0.00457978
0.155485
-0.00540238
0.160392
-0.0179073
0.164026
-0.0333893
0.165835
-0.0515723
0.165244
-0.0713915
0.161844
-0.0907344
0.155763
-0.107003
0.147783
-0.118319
0.139036
-0.124325
0.13054
-0.125933
0.122846
-0.124501
0.116038
-0.121234
0.110059
-0.116764
0.104497
-0.111101
0.0979672
-0.104773
0.0892942
-0.0994969
0.0803203
-0.0950837
0.0761836
-0.0856325
0.0810549
-0.0622941
0.0942917
-0.0225999
0.111814
0.0266895
0.129521
0.073619
0.144924
0.111132
0.15683
0.140363
0.165075
0.168818
0.170033
0.202765
0.172081
0.231826
0.171437
0.232453
0.16846
0.183405
0.164561
0.0884966
0.161165
-0.0233508
0.158129
-0.115652
0.154639
-0.17095
0.150981
-0.196861
0.146939
-0.198073
0.140798
-0.194769
0.132319
-0.184588
0.12533
-0.180791
0.125272
-0.145661
0.132858
-0.0822999
0.144194
0.00814756
0.152619
0.119486
0.155508
0.207033
0.152888
0.30345
0.148095
0.291802
0.146563
0.233346
0.148896
0.0839956
0.152858
-0.0529291
0.152017
-0.115242
0.14761
-0.266091
0.145049
-0.24238
0.1437
-0.291725
0.142119
-0.138495
0.11182
0.134003
0.0134073
0.13986
0.0135124
0.146107
0.0121606
0.152355
0.00957846
0.158324
0.00538574
0.164089
-0.00118579
0.168901
-0.0102144
0.172474
-0.0214806
0.174449
-0.0353633
0.174296
-0.0514197
0.171505
-0.0686008
0.165888
-0.0851173
0.157871
-0.098986
0.148451
-0.108899
0.1388
-0.114675
0.129841
-0.116973
0.12202
-0.11668
0.115324
-0.114537
0.109565
-0.111005
0.104559
-0.106095
0.0995112
-0.0997251
0.0929071
-0.0928928
0.0847101
-0.0868867
0.0785326
-0.079455
0.0795668
-0.0633283
0.0895701
-0.0326032
0.10589
0.0103693
0.123936
0.055573
0.140561
0.0945069
0.154145
0.126779
0.164398
0.158565
0.171549
0.195615
0.175562
0.227813
0.176038
0.231977
0.17301
0.186433
0.168063
0.0934437
0.16318
-0.0184676
0.158722
-0.111194
0.154
-0.166227
0.149372
-0.192233
0.145054
-0.193755
0.139391
-0.189106
0.131473
-0.17667
0.124457
-0.173775
0.124
-0.145204
0.131356
-0.0896552
0.143075
-0.00357154
0.152379
0.110182
0.156431
0.202981
0.15475
0.305131
0.150237
0.296314
0.148313
0.23527
0.150082
0.082226
0.154023
-0.0568704
0.153161
-0.11438
0.148377
-0.261307
0.145618
-0.239621
0.144247
-0.290353
0.142754
-0.137002
0.1137
0.157789
0.0105556
0.16148
0.00982218
0.165569
0.00807124
0.169746
0.00540137
0.173731
0.00140108
0.177538
-0.00499303
0.180242
-0.0129187
0.181734
-0.0229724
0.1815
-0.0351293
0.179062
-0.0489819
0.174072
-0.0636108
0.166591
-0.0776362
0.157244
-0.0896384
0.147063
-0.0987191
0.137106
-0.104718
0.128113
-0.107979
0.120405
-0.108972
0.113944
-0.108077
0.108497
-0.105558
0.103903
-0.101501
0.0998788
-0.0957005
0.0953106
-0.0883245
0.0890413
-0.0806174
0.082513
-0.0729267
0.0803521
-0.0611675
0.0863665
-0.0386175
0.100217
-0.00348094
0.117642
0.0381472
0.134966
0.0771836
0.149986
0.111759
0.162174
0.146377
0.171571
0.186218
0.17765
0.221733
0.179335
0.230292
0.176417
0.189351
0.170645
0.0992161
0.164515
-0.0123381
0.15878
-0.105459
0.152989
-0.160436
0.147485
-0.186729
0.142885
-0.189155
0.137751
-0.183972
0.130509
-0.169428
0.123526
-0.166792
0.122602
-0.14428
0.129567
-0.0966206
0.141595
-0.0156
0.151827
0.09995
0.15718
0.197629
0.156596
0.305714
0.152491
0.300419
0.150199
0.237563
0.151316
0.0811094
0.155179
-0.0607341
0.154324
-0.113524
0.149177
-0.25616
0.146222
-0.236666
0.144835
-0.288967
0.143464
-0.13563
0.115431
0.17804
0.00957697
0.179726
0.00813595
0.181573
0.00622471
0.183472
0.00350245
0.185488
-0.000615454
0.18673
-0.00623482
0.187133
-0.0133222
0.1863
-0.0221395
0.183808
-0.0326372
0.179287
-0.0444602
0.172579
-0.0569032
0.163923
-0.0689802
0.153994
-0.0797091
0.143711
-0.0884361
0.133923
-0.0949303
0.125188
-0.0992438
0.117733
-0.101518
0.111545
-0.101889
0.106446
-0.100458
0.102246
-0.0973014
0.0988751
-0.0923297
0.0958572
-0.0853066
0.091921
-0.0766812
0.0866899
-0.0676956
0.082942
-0.0574196
0.0851899
-0.0408654
0.0953378
-0.0136288
0.110964
0.022521
0.128199
0.0599485
0.144272
0.0956855
0.158209
0.13244
0.169714
0.174713
0.177834
0.213614
0.18093
0.227196
0.178401
0.19188
0.172245
0.105373
0.165119
-0.00521254
0.158255
-0.0985949
0.151543
-0.153724
0.145277
-0.180463
0.140379
-0.184257
0.135797
-0.17939
0.129351
-0.162982
0.122466
-0.159907
0.12101
-0.142824
0.127447
-0.103057
0.139681
-0.0278339
0.150883
0.0887473
0.157642
0.19087
0.158313
0.305044
0.154775
0.303957
0.152158
0.24018
0.152583
0.0806845
0.156294
-0.064445
0.155477
-0.112708
0.150001
-0.250684
0.146855
-0.23352
0.145453
-0.287564
0.144235
-0.134413
0.116969
0.188514
0.00940776
0.188909
0.00774108
0.189223
0.00591096
0.189524
0.00320103
0.189573
-0.000664177
0.189041
-0.0057028
0.187636
-0.0119177
0.185046
-0.0195488
0.180949
-0.0285407
0.175132
-0.0386436
0.167593
-0.049364
0.158642
-0.0600287
0.148886
-0.0699538
0.13906
-0.0786093
0.129797
-0.0856676
0.121512
-0.0909587
0.114387
-0.0943928
0.108446
-0.0959477
0.103614
-0.0956259
0.0997378
-0.0934256
0.0967555
-0.0893474
0.0946243
-0.0831754
0.0926085
-0.0746654
0.0895364
-0.0646235
0.0860816
-0.0539648
0.0857534
-0.0405372
0.0919859
-0.0198613
0.104538
0.00996851
0.120559
0.0439273
0.137069
0.0791763
0.152596
0.116913
0.16635
0.160958
0.176724
0.20324
0.181201
0.222718
0.179097
0.193984
0.172951
0.111519
0.165168
0.00257095
0.157341
-0.0907687
0.149827
-0.14621
0.142922
-0.173558
0.137674
-0.179009
0.133579
-0.175295
0.128007
-0.15741
0.121293
-0.153192
0.119232
-0.140764
0.124979
-0.108804
0.137262
-0.0401165
0.149456
0.0765537
0.157747
0.182578
0.159832
0.302958
0.156991
0.306798
0.154151
0.24302
0.153856
0.08098
0.15735
-0.0679389
0.156598
-0.111956
0.150847
-0.244932
0.147507
-0.23018
0.146087
-0.286145
0.145055
-0.133381
0.118268
0.187378
0.00925376
0.187074
0.00804516
0.186742
0.00624264
0.186307
0.00363637
0.185613
2.9182e-05
0.184113
-0.00420233
0.181824
-0.00962887
0.178464
-0.0161889
0.173825
-0.023901
0.167801
-0.0326201
0.160472
-0.0420345
0.152139
-0.0516963
0.143286
-0.061101
0.134448
-0.0697709
0.126078
-0.0772979
0.118489
-0.0833689
0.111844
-0.0877487
0.106199
-0.0903025
0.101555
-0.0909817
0.0978521
-0.0897226
0.0950138
-0.0865091
0.0931389
-0.0813005
0.0921053
-0.0736318
0.0909113
-0.0634295
0.0888593
-0.0519128
0.087619
-0.0392968
0.090449
-0.0226913
0.0992722
0.00114535
0.112759
0.0304403
0.128373
0.0635627
0.144422
0.100864
0.159859
0.145521
0.172488
0.190611
0.178807
0.2164
0.178012
0.194779
0.172642
0.116889
0.164808
0.0104044
0.156044
-0.0820042
0.147938
-0.138104
0.140603
-0.166223
0.134966
-0.173373
0.131212
-0.17154
0.126515
-0.152714
0.12005
-0.146727
0.117333
-0.138046
0.12234
-0.113811
0.134436
-0.0522131
0.147513
0.0634765
0.157295
0.172797
0.160947
0.299306
0.159026
0.308719
0.156095
0.245952
0.155124
0.0819504
0.158315
-0.0711297
0.157663
-0.111305
0.151704
-0.238973
0.148146
-0.226622
0.146739
-0.284737
0.145916
-0.132558
0.119279
0.204135
0.00905969
-0.203941
0.204915
0.00726547
0.205839
0.0053184
0.206799
0.00267625
0.207634
-0.000806188
0.208457
-0.00502492
0.208977
-0.0101485
0.209001
-0.0162129
0.208285
-0.0231859
0.206621
-0.0309555
0.203877
-0.0392907
0.200036
-0.0478551
0.195189
-0.0562539
0.1895
-0.0640822
0.183162
-0.0709601
0.17637
-0.076577
0.169312
-0.0806907
0.162153
-0.083143
0.155036
-0.083865
0.148077
-0.0827636
0.141304
-0.0797361
0.13479
-0.0747866
0.128727
-0.0675691
0.122821
-0.0575236
0.116165
-0.0452566
0.108798
-0.0319297
0.102965
-0.0168588
0.10125
0.00286117
0.104145
0.0275445
0.11027
0.0574377
0.11765
0.0934844
0.12537
0.137801
0.133414
0.182566
0.142838
0.206976
0.155442
0.182175
0.168918
0.103413
0.177174
0.0021479
0.179234
-0.0840638
0.175506
-0.134376
0.168262
-0.15898
0.160176
-0.165286
0.152913
-0.164277
0.145165
-0.144966
0.135989
-0.137551
0.129078
-0.131135
0.12768
-0.112414
0.131189
-0.0557212
0.135604
0.0590615
0.138535
0.169866
0.140088
0.297753
0.141757
0.30705
0.145062
0.242647
0.149542
0.0774707
0.154236
-0.0758243
0.154091
-0.11116
0.147382
-0.232263
0.141757
-0.220998
0.137571
-0.280551
0.133813
-0.1288
0.121118
0.215324
0.00862169
-0.214886
0.215952
0.00663774
0.216813
0.00445685
0.217688
0.00180137
0.218405
-0.00152269
0.218915
-0.00553554
0.21906
-0.0102931
0.21867
-0.0158234
0.217576
-0.0220914
0.215625
-0.0290049
0.212722
-0.0363874
0.208844
-0.0439768
0.204043
-0.0514533
0.198437
-0.0584764
0.19219
-0.0647124
0.18549
-0.0698768
0.178534
-0.0737353
0.171502
-0.0761112
0.164534
-0.0768969
0.157748
-0.0759775
0.151207
-0.0731948
0.144923
-0.0685028
0.139056
-0.0617017
0.133672
-0.0521397
0.128159
-0.0397438
0.121835
-0.0256056
0.115536
-0.0105601
0.111829
0.006569
0.112422
0.0269509
0.117121
0.0527393
0.124527
0.0860783
0.133259
0.129069
0.142781
0.173045
0.15442
0.195337
0.169269
0.167325
0.183738
0.0889445
0.192045
-0.00615997
0.192842
-0.0848601
0.187852
-0.129386
0.179558
-0.150686
0.170574
-0.156302
0.162825
-0.156528
0.155063
-0.137204
0.145754
-0.128243
0.138221
-0.123601
0.136142
-0.110335
0.139461
-0.0590396
0.144261
0.0542607
0.14798
0.166147
0.150605
0.295128
0.153301
0.304354
0.157137
0.23881
0.161414
0.073194
0.165895
-0.0803054
0.165375
-0.11064
0.157762
-0.224649
0.15134
-0.214576
0.146627
-0.275838
0.142576
-0.124749
0.123025
0.225643
0.00811083
-0.225132
0.226273
0.00600797
0.227013
0.00371636