/*--------------------------------*- C++ -*----------------------------------*\
| =========                 |                                                 |
| \\      /  F ield         | OpenFOAM: The Open Source CFD Toolbox           |
|  \\    /   O peration     | Version:  2512                                  |
|   \\  /    A nd           | Website:  www.openfoam.com                      |
|    \\/     M anipulation  |                                                 |
\*---------------------------------------------------------------------------*/
FoamFile
{
    version     2.0;
    format      ascii;
    arch        "LSB;label=32;scalar=64";
    class       surfaceScalarField;
    location    "20.75";
    object      phi;
}
// * * * * * * * * * * * * * * * * * * * * * * * * * * * * * * * * * * * * * //

dimensions      [0 3 -1 0 0 0 0];

oriented        oriented;

internalField   nonuniform List<scalar> 
26232
(
3.42574e-05
0.000970838
-0.0010051
0.000307019
0.00191933
-0.00219209
0.000968635
0.0020248
-0.00268641
0.00216169
0.00134032
-0.00253338
0.00402898
-0.000103846
-0.00176344
0.00671542
-0.00229349
-0.000392946
0.0103635
-0.0052213
0.00157322
0.0151051
-0.00887912
0.00413754
0.0210484
-0.0132465
0.0073032
0.0282633
-0.0182821
0.0110672
0.0367669
-0.0239173
0.0154137
0.0465128
-0.0300555
0.0203096
0.0573864
-0.0365747
0.0257011
0.069207
-0.0433351
0.0315145
0.0817377
-0.0501889
0.0376582
0.0947005
-0.0569907
0.0440279
0.107796
-0.0636084
0.0505124
0.120728
-0.0699329
0.0570018
0.133219
-0.075881
0.0633895
0.145039
-0.0814169
0.0695971
0.156005
-0.0864951
0.0755288
0.165994
-0.0912294
0.0812402
0.174888
-0.0953959
0.0865018
-0.099669
0.0922853
0.182272
7.64845e-05
0.000894354
0.000504314
0.0014915
0.00146347
0.00106564
0.00312515
-0.000321354
0.00565769
-0.00263638
0.0092216
-0.00585741
0.013959
-0.00995866
0.0199758
-0.0148959
0.027323
-0.0205938
0.0359796
-0.0269387
0.0458426
-0.0337802
0.0567263
-0.0409393
0.068374
-0.0482223
0.0804771
-0.0554382
0.0927029
-0.0624146
0.104724
-0.0690116
0.116247
-0.0751316
0.127038
-0.0807239
0.136942
-0.0857846
0.145879
-0.0903542
0.153875
-0.0944915
0.160978
-0.0983324
0.167402
-0.10182
-0.105511
0.173244
0.000138025
0.000756329
0.000772594
0.000856934
0.00211067
-0.000272434
0.00434741
-0.00255809
0.00766505
-0.00595403
0.0122189
-0.0104113
0.0181158
-0.0158555
0.0253895
-0.0221696
0.0339811
-0.0291854
0.0437303
-0.0366879
0.054382
-0.0444319
0.0656085
-0.0521658
0.0770432
-0.059657
0.0883199
-0.066715
0.0991118
-0.0732065
0.109163
-0.0790634
0.118313
-0.0842809
0.126499
-0.0889103
0.133758
-0.0930431
0.1402
-0.0967966
0.145995
-0.100286
0.151309
-0.103647
0.156364
-0.106874
-0.110371
0.161223
0.000219964
0.000536365
0.00111381
-3.69124e-05
0.00290839
-0.00206702
0.0058105
-0.0054602
0.00999404
-0.0101376
0.0155734
-0.0159906
0.0225726
-0.0228548
0.0309015
-0.0304986
0.0403485
-0.0386323
0.0505951
-0.0469345
0.0612525
-0.0550893
0.0719099
-0.0628231
0.0821868
-0.0699339
0.091778
-0.0763062
0.100484
-0.0819122
0.108222
-0.0868012
0.11502
-0.0910791
0.120993
-0.094884
0.126312
-0.0983619
0.131163
-0.101647
0.135724
-0.104847
0.14013
-0.108053
0.144516
-0.11126
-0.114725
0.14887
0.000321945
0.00021442
0.00152313
-0.0012381
0.00383744
-0.00438133
0.00746168
-0.00908444
0.0125269
-0.0152027
0.0190596
-0.0225234
0.0269511
-0.0307462
0.0359488
-0.0394963
0.04568
-0.0483635
0.0557026
-0.0569571
0.0655706
-0.0649573
0.0748989
-0.0721514
0.0834107
-0.0784457
0.0909623
-0.0838578
0.0975408
-0.0884907
0.10324
-0.0925005
0.108223
-0.0960616
0.112678
-0.0993392
0.116787
-0.102471
0.120698
-0.105559
0.124522
-0.108671
0.128323
-0.111853
0.132158
-0.115096
-0.11856
0.135994
0.000442469
-0.000228048
0.00198979
-0.00278542
0.00486245
-0.00725398
0.00921542
-0.0134374
0.0150925
-0.0210798
0.0223837
-0.0298146
0.0308115
-0.0391741
0.0399591
-0.048644
0.0493366
-0.057741
0.0584649
-0.0660854
0.0669526
-0.073445
0.0745465
-0.0797453
0.0811475
-0.0850468
0.0867938
-0.0895041
0.0916217
-0.0933186
0.0958169
-0.0966957
0.0995708
-0.0998154
0.103049
-0.102818
0.106378
-0.1058
0.109644
-0.108824
0.112899
-0.111926
0.11617
-0.115124
0.119489
-0.118415
-0.121884
0.122813
0.000578665
-0.000806713
0.00249628
-0.00470303
0.00593116
-0.0106889
0.010956
-0.0184623
0.0174804
-0.0276042
0.0252226
-0.0375567
0.0337351
-0.0476865
0.0424836
-0.0573925
0.0509508
-0.0662082
0.0587283
-0.0738629
0.0655714
-0.0802882
0.0714079
-0.0855817
0.0763079
-0.0899467
0.080432
-0.0936283
0.0839764
-0.0968631
0.0871289
-0.0998482
0.0900428
-0.102729
0.0928289
-0.105604
0.0955596
-0.108531
0.0982785
-0.111543
0.10101
-0.114658
0.103767
-0.117881
0.106561
-0.121209
-0.124683
0.109359
0.000725778
-0.00153249
0.00301748
-0.00699473
0.00697536
-0.0146467
0.012546
-0.0240329
0.0194682
-0.0345264
0.0272827
-0.0453713
0.0354157
-0.0558194
0.0433017
-0.0652786
0.0504974
-0.0734039
0.0567446
-0.0801101
0.0619768
-0.0855204
0.0662785
-0.0898834
0.0698232
-0.0934914
0.0728126
-0.0966176
0.075432
-0.0994825
0.0778277
-0.102244
0.080102
-0.105004
0.0823199
-0.107822
0.0845195
-0.11073
0.086722
-0.113746
0.0889384
-0.116874
0.0911732
-0.120115
0.0934318
-0.123468
-0.12694
0.0956893
0.000876685
-0.00240918
0.00352105
-0.0096391
0.00791583
-0.0190415
0.0138436
-0.0299607
0.0208592
-0.041542
0.0283596
-0.0528717
0.0357227
-0.0631826
0.042447
-0.0720028
0.048234
-0.0791909
0.0529992
-0.0848752
0.0568247
-0.0893459
0.0598887
-0.0929474
0.0623972
-0.0959998
0.0645368
-0.0987572
0.066452
-0.101398
0.0682419
-0.104034
0.069968
-0.10673
0.0716655
-0.109519
0.0733536
-0.112419
0.0750423
-0.115435
0.0767365
-0.118568
0.0784384
-0.121817
0.0801488
-0.125178
-0.128644
0.0818521
0.00102202
-0.0034312
0.00396987
-0.012587
0.00867195
-0.0237436
0.0147252
-0.0360139
0.0215192
-0.048336
0.0283734
-0.0597258
0.0347051
-0.0695143
0.0401448
-0.0774425
0.0445616
-0.0836077
0.0480171
-0.0883307
0.0506854
-0.0920142
0.0527765
-0.0950384
0.054482
-0.0977053
0.0559499
-0.100225
0.0572806
-0.102729
0.0585355
-0.105289
0.0597492
-0.107943
0.0609401
-0.11071
0.0621179
-0.113596
0.0632877
-0.116604
0.064452
-0.119732
0.0656113
-0.122977
0.0667643
-0.126331
-0.129782
0.0679027
0.00115151
-0.00458271
0.00432765
-0.0157631
0.00917489
-0.0285908
0.0151066
-0.0419456
0.0213968
-0.0546262
0.0273663
-0.0656954
0.0325415
-0.0746895
0.0367121
-0.081613
0.0398946
-0.0867903
0.0422473
-0.0906834
0.0439813
-0.0937482
0.0452965
-0.0963536
0.0463493
-0.0987581
0.047246
-0.101122
0.0480513
-0.103534
0.0488011
-0.106038
0.0495141
-0.108656
0.0502002
-0.111396
0.0508649
-0.114261
0.051511
-0.117251
0.0521399
-0.120361
0.0527511
-0.123588
0.0533415
-0.126922
-0.130348
0.0539073
0.00125794
-0.00584065
0.00456705
-0.0190722
0.00937967
-0.0334035
0.0149552
-0.0475212
0.0205209
-0.0601919
0.025471
-0.0706454
0.0294766
-0.0786952
0.0324767
-0.0846132
0.0345939
-0.0889075
0.0360333
-0.0921228
0.0370039
-0.0947188
0.037675
-0.0970247
0.0381636
-0.0992468
0.0385414
-0.1015
0.0388478
-0.10384
0.0391032
-0.106294
0.0393177
-0.108871
0.0394971
-0.111576
0.0396448
-0.114409
0.0397629
-0.117369
0.0398525
-0.120451
0.039913
-0.123648
0.0399413
-0.12695
0.0399373
-0.130344
-0.000262108
8.00911e-05
0.000182017
-0.00090873
0.00020242
0.000444201
-0.00185773
0.000311875
0.00063713
-0.00305033
0.000416555
0.000776041
-0.00444329
0.000519095
0.00087386
-0.00600554
0.00062043
0.000941827
-0.00771569
0.000721024
0.000989121
-0.00955978
0.00082152
0.00102258
-0.0115295
0.000923077
0.00104669
-0.0136208
0.00102741
0.00106384
-0.0158322
0.00113666
0.0010747
-0.018164
0.00125316
0.00107866
-0.0206175
0.0013793
0.00107427
-0.0231945
0.00151745
0.00105954
-0.0258967
0.00167
0.0010322
-0.028726
0.00183947
0.00098983
-0.0316847
0.00202869
0.000930004
-0.0347762
0.00224109
0.000850398
-0.0380061
0.002481
0.000748937
-0.041384
0.00275385
0.000623959
-0.0449237
0.00306553
0.000474198
-0.0486449
0.00342278
0.000298419
-0.0525795
0.00384029
9.43311e-05
0.00434178
-0.0567963
-0.000124946
-0.000249224
0.000329315
-0.000866116
0.000819313
-0.00177186
0.00121761
-0.00290858
0.00155327
-0.0042328
0.00184332
-0.00571242
0.00210005
-0.00732434
0.00233294
-0.0090524
0.00254957
-0.0108856
0.00275625
-0.0128165
0.0029583
-0.0148399
0.00316016
-0.0169522
0.00336539
-0.0191497
0.00357678
-0.0214286
0.00379642
-0.0237847
0.00402604
-0.0262125
0.00426727
-0.0287059
0.00452213
-0.0312584
0.00479355
-0.0338637
0.00508629
-0.0365177
0.0054079
-0.0392209
0.00576866
-0.0419788
0.00618076
-0.0448065
0.00666796
0.00728952
-0.0477543
-0.000218614
0.000547929
-0.000764792
0.00136549
-0.00156855
0.00202137
-0.00257547
0.0025602
-0.00374255
0.0030104
-0.00503605
0.00339355
-0.00642967
0.00372657
-0.00790284
0.00402274
-0.00943909
0.0042925
-0.0110247
0.00454391
-0.0126474
0.0047829
-0.0142955
0.00501349
-0.0159568
0.00523805
-0.0176179
0.00545755
-0.0192638
0.00567193
-0.0208771
0.00588053
-0.0224376
0.00608265
-0.0239223
0.0062782
-0.0253048
0.00646882
-0.0265568
0.00665987
-0.0276511
0.00686295
-0.0285667
0.0070964
-0.0292865
0.00738779
0.00781296
-0.02981
-0.000175991
0.00072392
-0.000622313
0.00181181
-0.00128091
0.00267996
-0.0021023
0.00338159
-0.0030444
0.0039525
-0.00407159
0.00442074
-0.00515361
0.00480859
-0.00626434
0.00513347
-0.00738049
0.00540865
-0.00848045
0.00564387
-0.00954326
0.00584571
-0.0105477
0.00601789
-0.0114713
0.00616171
-0.0122901
0.00627636
-0.0129775
0.00635932
-0.0135038
0.00640679
-0.0138352
0.00641412
-0.0139334
0.00637638
-0.0137538
0.00628916
-0.0132442
0.00615028
-0.0123455
0.0059643
-0.0109974
0.00574833
-0.00914821
0.00553856
0.00545002
-0.00678527
-0.000128696
0.000852616
-0.000461382
0.0021445
-0.00095192
0.0031705
-0.00155582
0.0039855
-0.00223197
0.00462865
-0.00294286
0.00513163
-0.00365421
0.00551994
-0.00433416
0.00581343
-0.00495244
0.00602693
-0.00547938
0.00617081
-0.00588511
0.00625143
-0.0061388
0.00627158
-0.00620804
0.00623095
-0.00605825
0.00612656
-0.00565212
0.00595319
-0.00494905
0.00570371
-0.00390441
0.00536947
-0.0024686
0.00494057
-0.000585646
0.00440621
0.00180918
0.00375546
0.00479388
0.00297959
0.00846024
0.00208197
0.0129077
0.00109112
7.34718e-05
0.0182842
-8.40745e-05
0.00093669
-0.000304956
0.00236538
-0.000625358
0.0034909
-0.00100432
0.00436446
-0.0014011
0.00502542
-0.00177618
0.00550671
-0.00209139
0.00583514
-0.00230944
0.00603148
-0.00239334
0.00611083
-0.00230561
0.00608308
-0.00200765
0.00595347
-0.0014591
0.00572303
-0.000617309
0.00538916
0.000563105
0.00494615
0.00213067
0.00438562
0.00413741
0.00369698
0.00663923
0.00286765
0.00969621
0.0018836
0.0133731
0.000729321
0.0177405
-0.000611926
0.0228776
-0.00215756
0.0288877
-0.00392811
0.0358412
-0.00586234
-0.00823051
0.0441451
-4.79125e-05
0.000984603
-0.000171322
0.00248879
-0.000336299
0.00365588
-0.000502577
0.00453074
-0.000628256
0.0051511
-0.000671062
0.00554952
-0.000588525
0.00575261
-0.000337611
0.00578057
0.000125855
0.00564736
0.000847859
0.00536108
0.00187685
0.00492448
0.00326428
0.00433559
0.0050651
0.00358834
0.00733805
0.0026732
0.0101458
0.00157786
0.0135548
0.000288006
0.0176354
-0.00121296
0.0224606
-0.00294161
0.0281054
-0.00491551
0.0346461
-0.00715263
0.0421503
-0.00966174
0.0507318
-0.0125096
0.0603219
-0.0154524
-0.0195005
0.0715919
-2.32209e-05
0.00100782
-7.01288e-05
0.0025357
-0.000103018
0.00368877
-7.85371e-05
0.00450626
4.90687e-05
0.0050235
0.00032688
0.0052717
0.00080358
0.00527591
0.00153002
0.00505413
0.00256002
0.00461736
0.00395111
0.00396999
0.00576513
0.00311046
0.00806862
0.0020321
0.0109329
0.000724101
0.0144337
-0.000827625
0.0186507
-0.00263915
0.023666
-0.00472731
0.0295619
-0.00710888
0.0364192
-0.00979891
0.0443131
-0.0128094
0.0533135
-0.0161531
0.0634561
-0.0198043
0.074852
-0.0239054
0.0872585
-0.027859
-0.0336805
0.101439
-9.55179e-06
0.00101738
6.08096e-07
0.00252554
7.79528e-05
0.00361142
0.000274972
0.00430924
0.000645149
0.00465332
0.00124412
0.00467273
0.00213074
0.00438929
0.00336817
0.0038167
0.00502482
0.00296071
0.0071749
0.0018199
0.00989852
0.000386847
0.0132812
-0.00135053
0.0174122
-0.00340697
0.0223829
-0.00579832
0.0282832
-0.00853941
0.0351981
-0.0116422
0.0432032
-0.015114
0.0523602
-0.0189559
0.062711
-0.0231602
0.0742778
-0.0277198
0.0870339
-0.0325604
0.101005
-0.0378761
0.115901
-0.0427552
-0.0499484
0.132169
-3.34568e-06
0.00102072
5.19074e-05
0.00247029
0.000231744
0.00343159
0.000601493
0.00393949
0.00122792
0.00402689
0.00218095
0.0037197
0.00353562
0.00303462
0.00537339
0.00197893
0.0077827
0.000551402
0.0108583
-0.00125574
0.0146996
-0.00345444
0.0194071
-0.00605799
0.0250781
-0.009078
0.0318013
-0.0125215
0.0396504
-0.0163885
0.0486777
-0.0206696
0.0589089
-0.0253452
0.070338
-0.030385
0.0829245
-0.0357467
0.0965908
-0.0413862
0.111227
-0.0471966
0.126673
-0.0533221
0.142777
-0.0588593
-0.0664448
0.159273
1.94456e-06
0.00101878
0.000106106
0.00236612
0.000401361
0.00313633
0.000972567
0.00336828
0.00190567
0.00309379
0.00329113
0.00233424
0.00522595
0.0010998
0.00781412
-0.000609235
0.0111652
-0.00279965
0.0153901
-0.0054807
0.0205959
-0.00866023
0.0268777
-0.0123398
0.0343104
-0.0165107
0.0429401
-0.0211513
0.0527767
-0.026225
0.0637881
-0.031681
0.0758978
-0.0374548
0.0889853
-0.0434726
0.10289
-0.0496517
0.11742
-0.0559155
0.132378
-0.0621548
0.147477
-0.0684211
0.162742
-0.0741246
-0.0809237
0.177221
1.36811e-05
0.000187712
0.000637632
0.00147253
0.00280289
0.00474418
0.0074172
0.0109455
0.0154491
0.0210355
0.027789
0.0357589
0.0449493
0.0553125
0.0667457
0.0790926
0.0921501
0.105679
0.119417
0.133099
0.146473
0.159292
0.171669
0.183031
-0.0599551
0.0037067
-0.000547935
-0.0629902
0.00409625
-0.00106113
-0.0658537
0.00448957
-0.00162604
-0.0684761
0.00486042
-0.0022381
-0.0707797
0.00517441
-0.0028708
-0.0726748
0.00539184
-0.00349672
-0.0740593
0.00546399
-0.00407951
-0.074819
0.00533751
-0.00457777
-0.0748286
0.00495769
-0.00494808
-0.073961
0.00428097
-0.0051486
-0.0720895
0.00327043
-0.00514193
-0.0691084
0.00190168
-0.00488274
-0.064841
7.28747e-05
-0.00434037
-0.0593706
-0.00188267
-0.00358767
-0.0525416
-0.00429376
-0.00253527
-0.0443439
-0.00697674
-0.00122093
-0.0347924
-0.00980161
0.000250086
-0.0240109
-0.0125379
0.00175643
-0.0121847
-0.014985
0.00315877
0.000500756
-0.0169971
0.00431162
0.0136913
-0.0182003
0.00500975
0.0271207
-0.0185941
0.00516473
0.0404848
-0.0181032
0.00473912
0.0535133
-0.0167854
0.0037569
0.0659885
-0.0147849
0.00230971
0.0777564
-0.0123001
0.000532154
0.0887179
-0.0095473
-0.00141415
0.0988221
-0.006695
-0.00340925
0.108049
-0.00390119
-0.00532548
0.116399
-0.00125517
-0.0070946
0.123919
0.00108683
-0.0086069
0.130648
0.00317019
-0.0098994
0.136643
0.00489302
-0.0108881
0.141976
0.0063484
-0.0116818
0.146711
0.00740637
-0.0121408
0.15091
0.00834888
-0.0125477
0.15464
0.00886112
-0.0125916
0.15796
0.0094701
-0.0127903
0.160928
0.00962367
-0.0125917
0.163594
0.0101267
-0.0127928
0.166008
0.0101071
-0.0125212
0.168217
0.010673
-0.0128811
0.170256
0.0106231
-0.0126622
0.172141
0.0114414
-0.0133267
0.173864
0.0115099
-0.0132326
0.175389
0.0127856
-0.0143107
0.176684
0.0129402
-0.0142351
0.177717
0.014705
-0.0157386
0.178487
0.0148105
-0.0155805
0.179004
0.0170719
-0.0175886
0.179296
0.0172
-0.0174923
0.179396
0.0200789
-0.0201781
0.179339
0.0203232
-0.020267
0.179153
0.0240051
-0.0238187
0.178869
0.024327
-0.0240435
0.178503
0.0289446
-0.0285778
0.178075
0.0294268
-0.0289996
0.17759
0.0350743
-0.0345889
0.177068
0.0358666
-0.0353449
0.0427958
-0.0422242
-0.0504466
0.00639907
-0.0530575
0.00670711
-0.0554805
0.00691254
-0.0576615
0.00704148
-0.0595286
0.00704145
-0.060995
0.00685831
-0.0619636
0.00643261
-0.0623241
0.00569793
-0.0619526
0.00458626
-0.0607272
0.0030555
-0.0584652
0.00100851
-0.055191
-0.0013726
-0.0509236
-0.0041945
-0.0453487
-0.00745757
-0.0385185
-0.011124
-0.0304287
-0.0150665
-0.0211304
-0.0190999
-0.0107038
-0.0229646
0.000615299
-0.026304
0.0124458
-0.0288275
0.0247186
-0.0304731
0.0370906
-0.0309661
0.0492716
-0.0302843
0.0610291
-0.0285429
0.0722001
-0.0259559
0.0826877
-0.0227877
0.0924497
-0.0193092
0.101476
-0.0157209
0.109773
-0.0121983
0.117372
-0.00885395
0.124286
-0.00582757
0.130562
-0.00310596
0.136228
-0.000773176
0.141351
0.00122603
0.145961
0.00279616
0.150102
0.00420811
0.153822
0.00514062
0.157163
0.00612942
0.16017
0.00661655
0.162885
0.00741129
0.165353
0.00763943
0.167618
0.00840826
0.169716
0.00852482
0.171664
0.00949292
0.173453
0.00972104
0.175046
0.011193
0.176406
0.0115798
0.177499
0.013612
0.178322
0.013988
0.178882
0.0165113
0.179213
0.0168699
0.179343
0.0199488
0.179314
0.0203516
0.179151
0.0241682
0.17889
0.0245881
0.178542
0.0292928
0.178134
0.0298351
0.177663
0.0355446
0.177157
0.0363727
0.0433565
-0.0315961
0.00818521
-0.0333723
0.00848331
-0.0349914
0.00853162
-0.0363918
0.00844187
-0.0375065
0.00815613
-0.0382639
0.00761576
-0.0385847
0.00675345
-0.038367
0.00548022
-0.0374912
0.00371042
-0.0357862
0.00135048
-0.0333285
-0.00144919
-0.0299624
-0.00473871
-0.0255535
-0.00860339
-0.0200707
-0.0129404
-0.01348
-0.0177146
-0.00576654
-0.02278
0.00290755
-0.027774
0.0123709
-0.0324279
0.0225891
-0.0365222
0.0333688
-0.0396073
0.0443631
-0.0414675
0.0552956
-0.0418985
0.0659134
-0.0409021
0.0760225
-0.038652
0.085502
-0.0354354
0.0943006
-0.0315863
0.102423
-0.0274312
0.109904
-0.0232026
0.116784
-0.0190777
0.123105
-0.0151758
0.128906
-0.0116277
0.134226
-0.00842597
0.139117
-0.00566505
0.143576
-0.0032326
0.147641
-0.00126921
0.151342
0.00050751
0.154713
0.00177001
0.157771
0.00307089
0.160551
0.00383674
0.16308
0.00488254
0.165392
0.00532683
0.167528
0.00627273
0.169519
0.00653327
0.171384
0.00762819
0.173113
0.00799227
0.174669
0.00963653
0.176015
0.0102338
0.177112
0.0125153
0.177953
0.0131471
0.178541
0.015923
0.178908
0.0165037
0.179077
0.0197789
0.179093
0.0203358
0.178975
0.0242868
0.178761
0.0248021
0.178458
0.0295952
0.178098
0.0301955
0.177673
0.0359695
0.177214
0.0368317
0.0438734
-0.0072974
0.00869734
-0.00800134
0.00918726
-0.00863823
0.0091685
-0.00910708
0.00891073
-0.00936239
0.00841144
-0.00933121
0.00758458
-0.00893855
0.00636078
-0.00812579
0.00466746
-0.00677099
0.00235562
-0.00480049
-0.000620027
-0.00218099
-0.00406869
0.00118748
-0.00810718
0.00529481
-0.0127107
0.0102839
-0.0179294
0.0161762
-0.0236069
0.0229583
-0.0295621
0.030605
-0.0354207
0.0390439
-0.0408667
0.048052
-0.0455303
0.0574289
-0.0489843
0.0668989
-0.0509374
0.0762113
-0.0512109
0.0851502
-0.049841
0.0935596
-0.0470614
0.101351
-0.0432268
0.108497
-0.0387328
0.115021
-0.0339543
0.120977
-0.0291594
0.126421
-0.0245213
0.131408
-0.0201624
0.135988
-0.0162079
0.140207
-0.0126451
0.144101
-0.00955975
0.147694
-0.00682473
0.151015
-0.00459107
0.154071
-0.00254826
0.156869
-0.00102814
0.159438
0.000501968
0.161803
0.00147185
0.163975
0.00271088
0.165976
0.00332599
0.167838
0.00441042
0.169591
0.0047804
0.171252
0.00596744
0.172814
0.00643008
0.174244
0.00820614
0.175505
0.00897285
0.176555
0.0114658
0.177382
0.0123195
0.177983
0.0153219
0.178384
0.0161031
0.178602
0.0195609
0.178678
0.0202602
0.178625
0.0243399
0.178482
0.0249446
0.178252
0.0298249
0.177968
0.0304796
0.177619
0.0363187
0.177238
0.0372123
0.0443138
0.0187572
0.0082244
0.0191154
0.00882907
0.019463
0.00882083
0.0199013
0.00847247
0.0204574
0.00785534
0.0211765
0.00686544
0.0221368
0.00540053
0.0233777
0.00342652
0.0250222
0.000711125
0.0269913
-0.00258906
0.0294829
-0.00656036
0.0325528
-0.0111771
0.0362946
-0.0164525
0.0407181
-0.022353
0.0458455
-0.0287343
0.0516627
-0.0353793
0.0581588
-0.0419168
0.0652408
-0.0479488
0.0727354
-0.0530249
0.0804525
-0.0567013
0.0881744
-0.0586594
0.0957036
-0.0587401
0.102881
-0.0570185
0.109601
-0.0537814
0.115809
-0.0494346
0.12149
-0.0444137
0.126661
-0.0391253
0.131367
-0.0338657
0.135653
-0.0288075
0.139562
-0.0240707
0.143136
-0.019782
0.146416
-0.0159251
0.149439
-0.0125832
0.152234
-0.00961965
0.154819
-0.00717548
0.157211
-0.00494113
0.15943
-0.00324714
0.161478
-0.00154578
0.163357
-0.000406452
0.165113
0.000954641
0.166742
0.00169662
0.168269
0.0028834
0.169721
0.00332891
0.171115
0.00457322
0.172451
0.005094
0.173702
0.00695533
0.174834
0.00784092
0.175804
0.0104956
0.176598
0.0115248
0.177204
0.0147159
0.177642
0.0156658
0.177918
0.0192843
0.17807
0.0201084
0.178103
0.0243067
0.178056
0.0249917
0.177926
0.0299554
0.177746
0.0306592
0.177502
0.0365624
0.177231
0.0374836
0.0446452
0.0450728
0.00729675
0.0460357
0.00786619
0.047046
0.00781046
0.0481387
0.00737977
0.0493113
0.00668278
0.0505816
0.00559513
0.0519882
0.00399394
0.0535967
0.00181798
0.0553468
-0.00103889
0.0573519
-0.0045942
0.0596727
-0.00888112
0.0623942
-0.0138986
0.0655748
-0.019633
0.0692445
-0.0260227
0.0734216
-0.0329114
0.0780958
-0.0400535
0.0832416
-0.0470626
0.0887714
-0.0534785
0.0945412
-0.0587948
0.100395
-0.0625551
0.106183
-0.0644477
0.111786
-0.0643428
0.117122
-0.062354
0.122148
-0.0588079
0.126851
-0.0541372
0.131224
-0.0487876
0.135273
-0.0431735
0.139009
-0.0376025
0.142455
-0.0322529
0.145615
-0.0272303
0.148507
-0.0226746
0.151153
-0.0185712
0.153579
-0.0150089
0.155805
-0.0118455
0.157852
-0.00922313
0.159741
-0.00683013
0.161481
-0.00498651
0.163091
-0.0031559
0.164595
-0.00191074
0.165963
-0.000413539
0.167258
0.000401817
0.168475
0.00166613
0.16964
0.00216469
0.170771
0.00344151
0.171878
0.003987
0.172942
0.00589168
0.173937
0.00684644
0.174821
0.00961118
0.175581
0.0107653
0.176195
0.0141017
0.176677
0.0151832
0.177026
0.0189353
0.177272
0.0198627
0.177413
0.0241657
0.177485
0.0249194
0.17748
0.0299605
0.177433
0.0307065
0.177324
0.036671
0.177193
0.037615
0.0448356
0.0722362
0.00665241
0.0730875
0.0070149
0.0741387
0.00675924
0.0753484
0.00617013
0.076674
0.00535712
0.0781139
0.00415521
0.0796717
0.0024362
0.0813522
0.000137448
0.0831367
-0.00282339
0.0850538
-0.00651133
0.0871399
-0.0109672
0.0894357
-0.0161944
0.0919717
-0.022169
0.094768
-0.028819
0.0978485
-0.0359919
0.101212
-0.0434173
0.104831
-0.0506808
0.108633
-0.0572811
0.112512
-0.0626736
0.116362
-0.0664055
0.120115
-0.0682007
0.123742
-0.0679692
0.127244
-0.0658563
0.130642
-0.0622063
0.133955
-0.0574495
0.13718
-0.0520128
0.140299
-0.046293
0.14329
-0.0405935
0.146142
-0.0351042
0.148819
-0.0299074
0.151306
-0.0251614
0.153596
-0.0208613
0.155694
-0.017107
0.157608
-0.0137595
0.159355
-0.0109701
0.160948
-0.00842356
0.162404
-0.00644211
0.16374
-0.00449225
0.164969
-0.0031394
0.166113
-0.00155836
0.167163
-0.000647654
0.168153
0.000676357
0.169103
0.00121398
0.17003
0.00251487
0.170953
0.00306398
0.171863
0.0049815
0.172745
0.00596427
0.173563
0.00879322
0.174304
0.0100244
0.174942
0.0134638
0.175486
0.014639
0.175926
0.0184959
0.176286
0.0195029
0.176557
0.0238946
0.176772
0.0247039
0.176919
0.0298141
0.177031
0.0305944
0.177086
0.0366158
0.177124
0.037577
0.0448534
0.101181
0.00690956
0.101287
0.00690908
0.101727
0.0063197
0.102404
0.00549269
0.10328
0.00448132
0.104347
0.00308821
0.10557
0.00121314
0.106921
-0.00121318
0.108364
-0.00426682
0.109887
-0.00803445
0.111488
-0.0125676
0.113167
-0.0178737
0.114924
-0.0239262
0.116748
-0.0306432
0.118616
-0.0378594
0.1205
-0.045301
0.122399
-0.0525806
0.124306
-0.0591876
0.126171
-0.0645382
0.127963
-0.0681984
0.129704
-0.0699414
0.131451
-0.0697157
0.133275
-0.0676808
0.135239
-0.0641699
0.13737
-0.0595809
0.139657
-0.0542996
0.142051
-0.0486872
0.144492
-0.0430348
0.146934
-0.0375463
0.149314
-0.0322872
0.151581
-0.0274283
0.153704
-0.0229842
0.155668
-0.0190705
0.157464
-0.0155558
0.1591
-0.0126062
0.160583
-0.00990685
0.161929
-0.00778748
0.16315
-0.00571327
0.164268
-0.00425772
0.165294
-0.00258409
0.166247
-0.00160085
0.167107
-0.000183853
0.167944
0.00037758
0.168754
0.00170466
0.169568
0.00225018
0.170385
0.00416382
0.171204
0.00514521
0.171995
0.00800271
0.172748
0.00927096
0.173436
0.0127758
0.174065
0.0140098
0.174618
0.0179437
0.175113
0.019007
0.175538
0.0234703
0.175921
0.024321
0.176244
0.0294907
0.176542
0.0302964
0.176789
0.0363684
0.177026
0.0373404
0.0446678
0.13081
0.00826777
0.129916
0.00780342
0.129365
0.00687041
0.129059
0.00579948
0.129025
0.00451491
0.129258
0.00285511
0.129688
0.000783143
0.130269
-0.00179424
0.130948
-0.00494576
0.131688
-0.00877438
0.132452
-0.013332
0.133207
-0.0186279
0.133916
-0.0246359
0.134545
-0.0312722
0.13505
-0.0383641
0.135386
-0.0456373
0.135521
-0.0527153
0.13547
-0.0591364
0.13532
-0.0643881
0.135148
-0.0680268
0.135063
-0.0698568
0.135189
-0.0698416
0.135634
-0.0681255
0.136466
-0.0650021
0.137699
-0.0608136
0.139294
-0.0558943
0.141172
-0.0505651
0.143237
-0.0450999
0.14541
-0.0397195
0.147619
-0.0344961
0.149783
-0.0295927
0.151851
-0.0250518
0.153792
-0.0210117
0.155587
-0.0173503
0.157233
-0.0142522
0.158729
-0.0114038
0.160088
-0.00914637
0.161319
-0.00694436
0.162443
-0.00538153
0.163472
-0.00361275
0.164413
-0.00254169
0.165286
-0.0010567
0.166092
-0.000429327
0.166876
0.000921173
0.167664
0.00146181
0.168461
0.00336688
0.169278
0.00432837
0.170091
0.00718959
0.170898
0.0084642
0.17167
0.0120043
0.172412
0.0132674
0.173102
0.0172532
0.173758
0.0183509
0.17436
0.0228688
0.174934
0.0237466
0.17546
0.028965
0.17597
0.0297867
0.176437
0.0359013
0.1769
0.0368773
0.0442489
0.157144
0.0103976
0.155468
0.00947864
0.153979
0.0083595
0.152676
0.0071028
0.151659
0.00553159
0.150877
0.00363766
0.150325
0.00133513
0.149952
-0.00142115
0.14964
-0.00463395
0.149356
-0.00849049
0.149048
-0.0130239
0.148659
-0.0182387
0.148132
-0.0241095
0.147414
-0.0305537
0.146451
-0.0374013
0.145202
-0.0443887
0.143657
-0.0511698
0.141848
-0.0573274
0.13992
-0.0624607
0.138087
-0.0661935
0.13654
-0.0683098
0.135439
-0.0687409
0.134893
-0.067579
0.134946
-0.0650556
0.13558
-0.0614474
0.136724
-0.0570382
0.138275
-0.0521154
0.14011
-0.0469357
0.142123
-0.0417318
0.144242
-0.0366156
0.146384
-0.031734
0.14847
-0.0271383
0.150457
-0.0229989
0.152316
-0.0192094
0.15404
-0.0159759
0.155622
-0.0129856
0.15707
-0.0105945
0.158389
-0.00826381
0.1596
-0.00659225
0.160711
-0.00472349
0.161736
-0.0035669
0.162677
-0.00199722
0.163562
-0.00131427
0.164388
9.4815e-05
0.16523
0.000619977
0.166077
0.00251933
0.166954
0.00345155
0.167843
0.00630083
0.168747
0.00755984
0.169639
0.0111122
0.170526
0.0123805
0.171383
0.0163968
0.172224
0.0175094
0.173027
0.0220657
0.173817
0.0229568
0.17457
0.028212
0.175317
0.0290399
0.17603
0.0351879
0.176747
0.0361606
0.0435675
0.175101
0.012518
0.173165
0.0114142
0.171188
0.010337
0.169365
0.00892566
0.167771
0.00712538
0.166349
0.00506014
0.165
0.00268336
0.163767
-0.000187786
0.162542
-0.00340912
0.16128
-0.00722846
0.159936
-0.0116797
0.158438
-0.0167411
0.156723
-0.0223938
0.154731
-0.0285618
0.152418
-0.0350885
0.149766
-0.0417366
0.146801
-0.0482051
0.143614
-0.0541401
0.140363
-0.0592094
0.137341
-0.0631723
0.1348
-0.065769
0.132902
-0.0668426
0.131733
-0.0664102
0.131312
-0.0646344
0.131589
-0.0617239
0.132468
-0.0579177
0.133832
-0.0534789
0.135548
-0.0486519
0.137497
-0.0436813
0.139585
-0.038703
0.14174
-0.0338897
0.143887
-0.0292853
0.145965
-0.0250763
0.147933
-0.0211776
0.149779
-0.0178219
0.151492
-0.0146981
0.153077
-0.0121795
0.154534
-0.00972164
0.155884
-0.00794226
0.157134
-0.00597282
0.158297
-0.0047297
0.159374
-0.00307496
0.160381
-0.00232104
0.161341
-0.000865407
0.162284
-0.000322319
0.163243
0.00155957
0.164237
0.00245764
0.165252
0.00528616
0.166297
0.00651432
0.167347
0.0100621
0.168411
0.011317
0.169462
0.015346
0.170514
0.0164567
0.171544
0.021036
0.172573
0.0219276
0.173578
0.0272073
0.174586
0.0280318
0.175572
0.0342024
0.176568
0.0351643
0.0425956
0.181764
0.0137842
0.180069
0.0131098
0.178409
0.0119967
0.176777
0.0105578
0.175134
0.00876822
0.173475
0.00671947
0.17182
0.00433838
0.170175
0.00145736
0.168488
-0.00172209
0.166626
-0.00536697
0.164566
-0.00961916
0.16226
-0.0144356
0.15967
-0.0198031
0.15676
-0.025652
0.153522
-0.0318509
0.149987
-0.038202
0.146235
-0.0444525
0.142401
-0.050306
0.138647
-0.0554559
0.135134
-0.0596586
0.132052
-0.0626871
0.129607
-0.064398
0.127959
-0.0647623
0.127126
-0.0638009
0.127051
-0.0616489
0.127638
-0.0585049
0.12877
-0.0546107
0.130317
-0.0501988
0.132157
-0.0455222
0.134191
-0.0407364
0.136331
-0.0360302
0.1385
-0.0314544
0.140644
-0.0272202
0.142713
-0.0232461
0.144685
-0.0197946
0.146542
-0.0165547
0.148285
-0.0139224
0.149908
-0.0113446
0.151429
-0.00946293
0.152851
-0.00739558
0.154191
-0.00606974
0.155446
-0.0043293
0.156628
-0.00350317
0.157756
-0.001993
0.158873
-0.00143981
0.159986
0.000446293
0.161145
0.0012986
0.162329
0.00410215
0.163556
0.00528786
0.164799
0.00881871
0.166071
0.0100457
0.167344
0.0140724
0.168634
0.0151672
0.169914
0.0197552
0.171207
0.0206354
0.172487
0.0259269
0.17378
0.0267384
0.175063
0.0329198
0.176364
0.0338633
0.0413062
0.198615
0.0148475
-0.199679
0.198104
0.0136214
0.197585
0.0125156
0.197116
0.0110268
0.196702
0.00918222
0.196379
0.00704204
0.196142
0.00457561
0.195813
0.00178646
0.195529
-0.00143883
0.195269
-0.00510655
0.194899
-0.00924888
0.194371
-0.0139081
0.193606
-0.0190377
0.192514
-0.0245603
0.191021
-0.0303578
0.189077
-0.0362575
0.186664
-0.0420402
0.183815
-0.0474565
0.180605
-0.0522463
0.177137
-0.0561907
0.173546
-0.0590957
0.169975
-0.060827
0.16656
-0.0613469
0.163429
-0.0606706
0.16068
-0.0588997
0.158372
-0.0561966
0.156528
-0.0527671
0.155139
-0.0488099
0.154168
-0.0445511
0.153563
-0.0401313
0.153271
-0.0357382
0.153236
-0.0314192
0.1534
-0.0273849
0.153707
-0.0235525
0.154105
-0.0201932
0.154554
-0.0170037
0.155022
-0.0143903
0.155483
-0.0118057
0.155923
-0.00990284
0.156329
-0.00780161
0.156695
-0.00643569
0.157011
-0.00464467
0.157272
-0.0037644
0.157482
-0.00220335
0.157651
-0.00160875
0.157795
0.00030293
0.157936
0.00115722
0.158085
0.0039532
0.158259
0.00511365
0.15845
0.00862823
0.158663
0.00983184
0.158884
0.0138524
0.159114
0.0149365
0.159338
0.0195311
0.159565
0.0204083
0.159778
0.0257146
0.159993
0.0265233
0.160193
0.0327199
0.160401
0.0336551
0.0411099
0.211235
0.0149837
-0.211371
0.21117
0.0136862
0.211268
0.0124184
0.211343
0.010951
0.211352
0.00917348
0.211316
0.00707779
0.211209
0.00468349
0.211039
0.00195618
0.210779
-0.00117943
0.210391
-0.00471857
0.20982
-0.00867792
0.209
-0.0130872
0.207869
-0.0179073
0.20637
-0.0230614
0.204455
-0.0284422
0.202097