/*--------------------------------*- C++ -*----------------------------------*\
| =========                 |                                                 |
| \\      /  F ield         | OpenFOAM: The Open Source CFD Toolbox           |
|  \\    /   O peration     | Version:  2512                                  |
|   \\  /    A nd           | Website:  www.openfoam.com                      |
|    \\/     M anipulation  |                                                 |
\*---------------------------------------------------------------------------*/
FoamFile
{
    version     2.0;
    format      ascii;
    arch        "LSB;label=32;scalar=64";
    class       volScalarField;
    location    "157.5";
    object      p;
}
// * * * * * * * * * * * * * * * * * * * * * * * * * * * * * * * * * * * * * //

dimensions      [0 2 -2 0 0 0 0];

internalField   nonuniform List<scalar> 
13248
(
-0.335348
-0.334081
-0.331525
-0.327965
-0.323717
-0.319077
-0.314326
-0.30975
-0.305589
-0.30203
-0.29918
-0.297058
-0.295588
-0.294609
-0.293887
-0.293147
-0.292102
-0.290486
-0.288071
-0.284723
-0.280208
-0.274631
-0.266889
-0.257757
-0.34354
-0.341442
-0.338262
-0.334247
-0.329668
-0.324799
-0.319882
-0.315126
-0.31069
-0.306668
-0.30308
-0.29987
-0.296918
-0.294051
-0.291075
-0.287793
-0.28404
-0.279685
-0.274639
-0.268841
-0.262215
-0.254728
-0.24607
-0.237013
-0.353895
-0.350709
-0.346718
-0.342118
-0.337103
-0.331901
-0.326685
-0.321562
-0.316581
-0.311741
-0.306993
-0.302252
-0.297416
-0.292378
-0.287049
-0.281363
-0.27528
-0.268787
-0.26187
-0.254524
-0.24669
-0.238401
-0.229439
-0.220397
-0.366299
-0.36182
-0.356866
-0.35156
-0.34598
-0.340282
-0.334533
-0.328717
-0.322777
-0.316643
-0.310256
-0.303577
-0.296594
-0.289321
-0.28179
-0.274045
-0.266127
-0.258064
-0.249863
-0.241515
-0.232991
-0.224308
-0.215339
-0.206652
-0.380663
-0.374744
-0.368718
-0.362602
-0.356307
-0.349874
-0.343241
-0.336275
-0.328852
-0.320913
-0.312469
-0.303598
-0.294416
-0.285054
-0.275629
-0.266235
-0.256927
-0.247727
-0.238632
-0.229621
-0.220663
-0.211751
-0.202812
-0.194205
-0.396895
-0.389443
-0.382286
-0.375264
-0.368051
-0.360536
-0.352532
-0.34384
-0.334364
-0.32415
-0.313358
-0.30221
-0.290934
-0.279727
-0.268732
-0.258031
-0.247659
-0.23761
-0.227859
-0.218369
-0.209105
-0.200038
-0.191125
-0.182594
-0.414821
-0.405799
-0.397478
-0.389426
-0.381001
-0.371923
-0.361937
-0.35089
-0.338835
-0.326009
-0.312748
-0.299393
-0.286226
-0.273446
-0.261165
-0.249425
-0.238222
-0.227521
-0.217275
-0.207433
-0.197949
-0.188783
-0.179907
-0.171411
-0.434092
-0.423523
-0.414011
-0.404737
-0.394681
-0.383435
-0.3708
-0.356817
-0.341797
-0.326203
-0.310515
-0.295126
-0.280306
-0.266201
-0.252865
-0.240287
-0.228423
-0.217211
-0.206587
-0.196487
-0.186856
-0.177646
-0.168831
-0.160395
-0.454128
-0.442099
-0.431348
-0.420561
-0.408336
-0.394254
-0.37835
-0.361005
-0.342837
-0.324507
-0.306563
-0.289377
-0.273145
-0.257936
-0.243736
-0.230483
-0.218098
-0.206495
-0.195595
-0.185324
-0.175615
-0.166418
-0.157695
-0.149348
-0.474088
-0.460738
-0.448655
-0.435958
-0.420954
-0.403409
-0.383782
-0.362879
-0.341604
-0.320732
-0.30079
-0.282064
-0.264651
-0.248536
-0.233637
-0.219852
-0.20707
-0.195188
-0.184109
-0.173748
-0.164031
-0.1549
-0.146294
-0.138079
-0.49289
-0.478385
-0.464808
-0.44972
-0.431333
-0.409837
-0.386257
-0.36183
-0.337661
-0.314533
-0.292884
-0.272877
-0.254504
-0.237667
-0.222231
-0.208056
-0.195006
-0.182959
-0.171807
-0.16145
-0.151808
-0.142809
-0.13436
-0.126338
-0.509314
-0.493854
-0.478587
-0.460597
-0.438275
-0.412474
-0.384868
-0.357074
-0.33029
-0.305222
-0.282162
-0.261138
-0.242034
-0.224679
-0.208889
-0.19449
-0.181325
-0.169255
-0.158158
-0.147927
-0.138472
-0.129711
-0.121523
-0.113834
-0.336695
-0.338736
-0.339876
-0.340501
-0.340985
-0.341471
-0.342043
-0.342756
-0.343645
-0.344733
-0.346048
-0.347631
-0.349536
-0.351833
-0.354605
-0.357945
-0.361945
-0.366689
-0.372242
-0.378635
-0.385846
-0.393725
-0.402057
-0.410729
-0.33439
-0.33567
-0.336293
-0.336512
-0.336604
-0.33671
-0.336932
-0.337351
-0.338025
-0.339013
-0.34038
-0.342205
-0.34459
-0.347649
-0.351511
-0.356311
-0.362169
-0.369182
-0.3774
-0.386808
-0.397409
-0.408824
-0.420755
-0.432928
-0.332757
-0.333259
-0.333352
-0.333153
-0.332839
-0.332546
-0.332391
-0.332475
-0.332886
-0.333706
-0.33503
-0.336969
-0.339653
-0.343229
-0.347824
-0.353634
-0.360762
-0.369302
-0.379286
-0.390663
-0.403287
-0.416862
-0.430907
-0.444902
-0.331386
-0.331191
-0.330785
-0.330166
-0.329421
-0.328682
-0.328083
-0.327748
-0.327787
-0.328311
-0.329436
-0.331292
-0.334024
-0.337789
-0.342745
-0.349044
-0.356804
-0.366097
-0.376925
-0.389201
-0.402725
-0.417161
-0.432114
-0.446457
-0.329984
-0.329263
-0.328429
-0.327398
-0.326196
-0.324952
-0.323818
-0.322945
-0.322474
-0.322539
-0.323276
-0.324831
-0.327354
-0.331003
-0.335932
-0.342274
-0.350126
-0.359529
-0.370457
-0.382789
-0.396303
-0.410543
-0.42544
-0.438927
-0.328422
-0.327396
-0.326233
-0.324813
-0.323131
-0.321322
-0.319564
-0.318036
-0.316913
-0.316361
-0.316536
-0.317598
-0.319701
-0.322999
-0.327634
-0.333723
-0.341331
-0.350433
-0.361011
-0.372887
-0.38583
-0.399128
-0.41322
-0.424564
-0.32675
-0.325649
-0.324266
-0.322485
-0.320314
-0.317906
-0.315463
-0.313202
-0.311335
-0.310061
-0.309565
-0.310019
-0.311587
-0.314417
-0.318642
-0.324377
-0.331719
-0.340257
-0.350283
-0.361463
-0.373621
-0.385598
-0.398423
-0.407271
-0.325203
-0.324217
-0.322701
-0.320592
-0.317946
-0.314942
-0.311814
-0.308817
-0.306202
-0.304203
-0.303034
-0.302888
-0.30393
-0.306301
-0.310094
-0.315351
-0.322016
-0.330379
-0.339867
-0.350151
-0.361111
-0.371298
-0.382153
-0.388137
-0.324181
-0.32341
-0.321808
-0.319399
-0.316315
-0.312769
-0.30903
-0.305387
-0.302127
-0.299519
-0.297803
-0.297184
-0.297829
-0.299861
-0.303347
-0.308281
-0.314586
-0.322117
-0.330555
-0.339402
-0.348442
-0.356228
-0.364019
-0.366644
-0.324203
-0.323625
-0.321928
-0.31924
-0.315777
-0.311793
-0.307582
-0.303463
-0.299749
-0.29673
-0.294658
-0.293735
-0.294104
-0.295839
-0.298938
-0.303305
-0.308755
-0.315004
-0.321691
-0.328324
-0.334611
-0.339506
-0.343708
-0.343157
-0.325809
-0.325273
-0.323416
-0.320456
-0.316683
-0.31238
-0.307863
-0.30346
-0.299492
-0.296246
-0.293957
-0.292793
-0.292844
-0.294106
-0.296479
-0.299768
-0.303683
-0.307872
-0.311936
-0.315506
-0.318318
-0.320002
-0.320984
-0.318461
-0.329446
-0.328699
-0.326559
-0.32331
-0.319274
-0.31475
-0.310062
-0.305521
-0.301428
-0.298036
-0.295535
-0.294028
-0.293522
-0.293926
-0.29505
-0.296621
-0.298304
-0.299745
-0.300585
-0.300581
-0.299476
-0.297431
-0.294681
-0.291033
-0.421536
-0.432577
-0.44055
-0.443466
-0.439502
-0.426861
-0.404725
-0.373222
-0.334154
-0.290942
-0.248098
-0.209963
-0.179645
-0.15877
-0.148013
-0.147809
-0.157887
-0.175338
-0.193328
-0.202767
-0.197365
-0.177687
-0.149534
-0.121366
-0.0991154
-0.0851071
-0.0790888
-0.0797379
-0.0869938
-0.102711
-0.126071
-0.148829
-0.158457
-0.148884
-0.125714
-0.100024
-0.0800927
-0.0677077
-0.061689
-0.062597
-0.0717525
-0.0841922
-0.0896003
-0.0836117
-0.0714571
-0.0598615
-0.052098
-0.0487385
-0.0511304
-0.0556732
-0.0557345
-0.052265
-0.0464914
-0.0387864
-0.0336999
-0.0288533
-0.0254928
-0.0254609
-0.0204553
-0.00578451
-0.448231
-0.462646
-0.472802
-0.477094
-0.473424
-0.459879
-0.435375
-0.40011
-0.356082
-0.307151
-0.25829
-0.214205
-0.178253
-0.152072
-0.13605
-0.130297
-0.134644
-0.147116
-0.16225
-0.171821
-0.168723
-0.154807
-0.132525
-0.10956
-0.0915909
-0.0811617
-0.0782255
-0.0816507
-0.0918306
-0.110893
-0.137479
-0.162341
-0.171846
-0.160309
-0.134108
-0.105232
-0.0823563
-0.067424
-0.0591556
-0.0575965
-0.0641339
-0.0743599
-0.0791058
-0.0743324
-0.064808
-0.0560942
-0.050793
-0.049994
-0.0547074
-0.0614443
-0.0617862
-0.0571429
-0.0497425
-0.0400458
-0.0334945
-0.0265748
-0.0224381
-0.0218669
-0.0173633
-0.00491936
-0.463273
-0.479912
-0.491469
-0.496554
-0.493311
-0.479404
-0.453594
-0.416056
-0.368867
-0.316123
-0.263068
-0.214649
-0.174354
-0.143756
-0.123068
-0.11209
-0.110724
-0.117885
-0.12958
-0.138747
-0.136666
-0.129509
-0.113083
-0.0954418
-0.0819599
-0.0753097
-0.0755587
-0.0817776
-0.0947549
-0.116789
-0.146129
-0.172855
-0.182285
-0.169501
-0.140882
-0.109303
-0.0838532
-0.0666344
-0.0563308
-0.0524913
-0.0565242
-0.0645996
-0.0686935
-0.0650311
-0.0579797
-0.0519935
-0.0491406
-0.0510063
-0.0581656
-0.0671643
-0.0677785
-0.0618161
-0.0527347
-0.0411174
-0.0332132
-0.0243443
-0.0194282
-0.0182788
-0.014272
-0.00405636
-0.466181
-0.483972
-0.495767
-0.501822
-0.499117
-0.485295
-0.459125
-0.420773
-0.372325
-0.317939
-0.26294
-0.212277
-0.169327
-0.135555
-0.111077
-0.0955624
-0.0888189
-0.0904239
-0.0980446
-0.1067
-0.112413
-0.103673
-0.0920797
-0.0795513
-0.0705038
-0.0675841
-0.0708874
-0.0796765
-0.0950645
-0.119528
-0.151214
-0.179733
-0.189296
-0.176274
-0.145864
-0.112142
-0.0845951
-0.0654348
-0.0533599
-0.0474964
-0.0492209
-0.0552536
-0.0586689
-0.0559441
-0.0511097
-0.0476275
-0.0471372
-0.0516932
-0.0613664
-0.0726896
-0.0735917
-0.0662126
-0.0554244
-0.0419811
-0.0328501
-0.0221798
-0.0164886
-0.0147357
-0.0112083
-0.00320299
-0.458328
-0.477371
-0.488246
-0.494605
-0.492261
-0.47877
-0.453052
-0.415291
-0.367512
-0.31377
-0.259166
-0.208343
-0.164417
-0.128752
-0.101436
-0.0821174
-0.0706004
-0.0667983
-0.069618
-0.0757005
-0.0802397
-0.076502
-0.070194
-0.0624158
-0.0575071
-0.0580071
-0.0640481
-0.0750495
-0.0923578
-0.118681
-0.152274
-0.18263
-0.193876
-0.180552
-0.149001
-0.113768
-0.0846494
-0.0639337
-0.0503807
-0.0427808
-0.042432
-0.0465698
-0.0492869
-0.0472856
-0.0443293
-0.0430577
-0.0447686
-0.0519657
-0.0641647
-0.0778466
-0.07908
-0.0702566
-0.0577758
-0.042622
-0.0323992
-0.0200956
-0.0136417
-0.0112738
-0.00819834
-0.00236633
-0.441059
-0.454952
-0.46934
-0.476685
-0.474704
-0.461751
-0.437193
-0.40129
-0.35594
-0.304907
-0.252794
-0.203692
-0.160342
-0.124008
-0.0948507
-0.0725686
-0.0569895
-0.0482154
-0.045994
-0.0484577
-0.0517348
-0.0499159
-0.0485087
-0.0447149
-0.0433697
-0.0467947
-0.0551525
-0.0679528
-0.0866598
-0.114201
-0.149162
-0.181409
-0.19638
-0.182096
-0.15023
-0.114216
-0.0840814
-0.0622135
-0.0474838
-0.0384408
-0.0362929
-0.0387213
-0.0407413
-0.0392399
-0.0377575
-0.0383462
-0.0420319
-0.0517437
-0.0664086
-0.0824408
-0.0840946
-0.0738923
-0.0597621
-0.0430277
-0.031849
-0.0181001
-0.0109058
-0.00792542
-0.00526386
-0.00155265
-0.420958
-0.433021
-0.444439
-0.451051
-0.448935
-0.436582
-0.413854
-0.380968
-0.339565
-0.292925
-0.244932
-0.198998
-0.15745
-0.121471
-0.0913707
-0.067
-0.0482212
-0.0351937
-0.0281543
-0.0265037
-0.0281493
-0.0310431
-0.0283705
-0.0272774
-0.028715
-0.0344273
-0.0445743
-0.0586883
-0.0782299
-0.106319
-0.142052
-0.175897
-0.192858
-0.180501
-0.149507
-0.113538
-0.0829492
-0.0603314
-0.0447246
-0.0345219
-0.03085
-0.0317847
-0.03315
-0.0319575
-0.0315026
-0.0335729
-0.0389432
-0.0509569
-0.0679546
-0.086304
-0.0884897
-0.0770529
-0.06136
-0.04319
-0.0311911
-0.0161931
-0.00829263
-0.00471901
-0.00242171
-0.000767849
-0.397669
-0.405153
-0.414012
-0.419731
-0.417154
-0.405697
-0.385564
-0.3567
-0.32039
-0.279292
-0.236461
-0.194614
-0.155714
-0.120882
-0.0905966
-0.0649386
-0.0438656
-0.0275109
-0.0162723
-0.0103423
-0.00887823
-0.00985793
-0.00947737
-0.0107503
-0.0141918
-0.0214735
-0.0327901
-0.0476928
-0.0675579
-0.0955889
-0.131492
-0.166515
-0.185148
-0.17593
-0.14689
-0.111789
-0.0812963
-0.0583219
-0.0421347
-0.0310433
-0.0261142
-0.0257635
-0.026536
-0.0254492
-0.0256692
-0.0288295
-0.035539
-0.0495608
-0.0686853
-0.0893017
-0.0921079
-0.0796668
-0.0625562
-0.0431085
-0.0304329
-0.0143827
-0.00580705
-0.00167652
0.000316457
-1.79724e-05
-0.370451
-0.373095
-0.38038
-0.384933
-0.381906
-0.371944
-0.355113
-0.330933
-0.300316
-0.265246
-0.227969
-0.190587
-0.154768
-0.121614
-0.0917546
-0.0654999
-0.0429688
-0.0242744
-0.00976122
6.98608e-05
0.00516932
0.00663972
0.00703804
0.00430442
-0.000299935
-0.00843745
-0.020278
-0.0354376
-0.0551635
-0.0827136
-0.118353
-0.154104
-0.174624
-0.168866
-0.142612
-0.109153
-0.0792911
-0.0563232
-0.0398233
-0.0280715
-0.0221076
-0.0206562
-0.020893
-0.0198167
-0.0203379
-0.0242189
-0.0318581
-0.047519
-0.0685306
-0.0913312
-0.0948217
-0.0816988
-0.0633684
-0.0428016
-0.0295938
-0.0127091
-0.0034629
0.00118494
0.0029444
0.000691136
-0.341081
-0.34044
-0.346691
-0.349827
-0.34669
-0.338806
-0.325609
-0.306253
-0.281321
-0.252148
-0.220287
-0.187331
-0.154711
-0.123527
-0.0945374
-0.0682288
-0.0448831
-0.0246487
-0.00777935
0.00522151
0.0138511
0.018154
0.0186011
0.0173787
0.0126461
0.00430919
-0.00750586
-0.0224967
-0.041834
-0.0686074
-0.10342
-0.139542
-0.161953
-0.159803
-0.137089
-0.106048
-0.077331
-0.054648
-0.0380188
-0.0257463
-0.0188643
-0.0164383
-0.0162203
-0.015116
-0.0155804
-0.0198053
-0.0279803
-0.0448842
-0.0674347
-0.092312
-0.0965449
-0.0831463
-0.0638278
-0.0423043
-0.0286678
-0.0111998
-0.00129479
0.00383294
0.00546066
0.00135354
-0.312919
-0.311479
-0.316564
-0.317875
-0.314974
-0.30934
-0.299628
-0.284847
-0.265259
-0.241616
-0.214904
-0.186278
-0.156912
-0.127864
-0.0999914
-0.0739346
-0.0501303
-0.0288427
-0.0102702
0.0052161
0.0170316
0.0246838
0.028189
0.0281154
0.0241817
0.0164397
0.00526426
-0.00907385
-0.0277076
-0.0536958
-0.0880737
-0.124172
-0.147382
-0.149068
-0.130116
-0.102245
-0.0752206
-0.0530802
-0.0365004
-0.0238765
-0.0161867
-0.0128445
-0.0122907
-0.0113234
-0.011611
-0.0157728
-0.0238761
-0.0415631
-0.0654786
-0.0922955
-0.097132
-0.0839194
-0.0638429
-0.0415674
-0.0275726
-0.00973026
0.000716189
0.00622645
0.00786067
0.00196368
-0.287987
-0.288843
-0.291145
-0.289412
-0.286109
-0.281631
-0.274227
-0.262949
-0.2477
-0.228755
-0.206663
-0.182186
-0.156217
-0.129688
-0.103472
-0.0783043
-0.0547536
-0.0332308
-0.0140289
0.00258916
0.0162981
0.0267164
0.0333612
0.0357608
0.03352
0.0269472
0.0168646
0.00345987
-0.0143133
-0.0391011
-0.071948
-0.106897
-0.130151
-0.134271
-0.119655
-0.0954462
-0.0706864
-0.0496747
-0.0336964
-0.0212815
-0.0132945
-0.00928433
-0.00847569
-0.00775091
-0.00806974
-0.0121855
-0.0199676
-0.0378972
-0.0625593
-0.0910507
-0.0966011
-0.0837641
-0.0631185
-0.0403263
-0.0261751
-0.00801616
0.00273525
0.00848095
0.0101429
0.00250839
-0.266456
-0.277026
-0.276261
-0.271612
-0.266806
-0.261524
-0.254083
-0.243347
-0.229031
-0.211395
-0.190962
-0.168394
-0.144439
-0.119886
-0.0954898
-0.0718911
-0.0495876
-0.0289548
-0.0102792
0.00620788
0.020264
0.031589
0.0397323
0.0441345
0.0434242
0.0384521
0.0299459
0.0180084
0.0011396
-0.0241957
-0.0597065
-0.0979062
-0.123292
-0.126714
-0.11081
-0.0872716
-0.0639738
-0.0443808
-0.0294793
-0.0177371
-0.0100367
-0.00584397
-0.00483853
-0.00377463
-0.00235745
-0.00711462
-0.0144906
-0.0329088
-0.0589357
-0.0899751
-0.0970166
-0.0836281
-0.0619647
-0.0386264
-0.024637
-0.00615989
0.00469622
0.0107659
0.0122843
0.00298437
-0.24257
-0.256346
-0.256109
-0.249992
-0.243724
-0.237788
-0.230505
-0.220496
-0.207363
-0.191379
-0.173046
-0.152904
-0.13152
-0.109495
-0.0874315
-0.0658782
-0.0452912
-0.026028
-0.00837254
0.00746624
0.0213073
0.032916
0.0418169
0.0470002
0.0479679
0.0447211
0.0380334
0.0277889
0.0119999
-0.0135968
-0.0502626
-0.0885355
-0.111999
-0.113544
-0.0984643
-0.0772721
-0.0566113
-0.0390369
-0.025513
-0.0146634
-0.00731174
-0.00303245
-0.00197827
-0.000916695
-0.000264966
-0.00366194
-0.0104397
-0.0287472
-0.0554714
-0.0877952
-0.0957195
-0.0819192
-0.0599888
-0.0365183
-0.0227497
-0.00437548
0.00631495
0.0127631
0.0139955
0.00339229
-0.220269
-0.234459
-0.234982
-0.228766
-0.221947
-0.215789
-0.208905
-0.199844
-0.188094
-0.173854
-0.15756
-0.139649
-0.12055
-0.100731
-0.0806943
-0.0609269
-0.0418555
-0.0238265
-0.00712186
0.00803509
0.0214466
0.0329194
0.0421102
0.0480119
0.0500002
0.0480308
0.0427051
0.0336192
0.0183206
-0.00729198
-0.0426601
-0.0775624
-0.0980343
-0.0988849
-0.0856908
-0.0674143
-0.04947
-0.033857
-0.0216383
-0.0116663
-0.00472817
-0.00044868
0.000666307
0.00169578
0.00214905
-0.000855625
-0.00745665
-0.0255885
-0.0521485
-0.0842449
-0.0929232
-0.0792308
-0.0574476
-0.0341106
-0.0206428
-0.00260918
0.00788788
0.0146132
0.0154805
0.00378644
-0.200158
-0.213108
-0.214169
-0.208569
-0.201865
-0.195728
-0.189213
-0.18099
-0.170471
-0.157758
-0.143226
-0.127254
-0.110188
-0.0923978
-0.0742909
-0.0562797
-0.0387443
-0.0220086
-0.00634588
0.0080155
0.020861
0.0319871
0.0410384
0.0473179
0.0501544
0.0492975
0.04514
0.0370577
0.0224091
-0.00213026
-0.0346094
-0.0654818
-0.0830126
-0.0835841
-0.072678
-0.0574586
-0.04228
-0.0286785
-0.0177903
-0.00873973
-0.00228498
0.00192482
0.00314245
0.00418852
0.0047914
0.00183373
-0.00467953
-0.0223983
-0.0480422
-0.0794136
-0.088904
-0.075638
-0.0543179
-0.0314113
-0.0183026
-0.000840941
0.00941295
0.0162903
0.016805
0.00417208
-0.180791
-0.192678
-0.194164
-0.189324
-0.183039
-0.177113
-0.170988
-0.163539
-0.154161
-0.142869
-0.129968
-0.115784
-0.100601
-0.0847069
-0.0684231
-0.052095
-0.0360607
-0.0206234
-0.00604856
0.00743478
0.0195986
0.0302079
0.0389379
0.0453088
0.0486798
0.0486691
0.0454853
0.038414
0.0249685
0.00264697
-0.0260615
-0.0525196
-0.0672105
-0.0681292
-0.0598268
-0.047741
-0.0352805
-0.0236468
-0.014051
-0.00591318
1.66933e-05
0.00409337
0.00543532
0.00653004
0.00728792
0.00446941
-0.00173411
-0.0185799
-0.0429264
-0.0733695
-0.083507
-0.0710278
-0.0505697
-0.0284277
-0.0157595
0.000928458
0.0108631
0.0177549
0.0179509
0.00453848
-0.162513
-0.173529
-0.17523
-0.171065
-0.165335
-0.159797
-0.154143
-0.147449
-0.139143
-0.129174
-0.117775
-0.105223
-0.0917568
-0.0776036
-0.063021
-0.0482966
-0.0337267
-0.0195901
-0.00613912
0.00639923
0.0177946
0.0277985
0.0361139
0.0423558
0.0459757
0.0465486
0.0441208
0.0379947
0.026134
0.006863
-0.0172937
-0.0391623
-0.0516157
-0.053376
-0.0477151
-0.0385601
-0.0286051
-0.0188272
-0.0104655
-0.0032071
0.0021771
0.00606204
0.00753159
0.00871896
0.00964292
0.00704856
0.00139956
-0.0141987
-0.0369832
-0.0660711
-0.0766891
-0.0653794
-0.0462184
-0.0251897
-0.0130547
0.00269816
0.0122195
0.0189719
0.0188666
0.00487552
-0.145775
-0.15568
-0.157414
-0.153864
-0.148759
-0.143727
-0.138608
-0.132648
-0.125332
-0.116574
-0.106546
-0.0954821
-0.0835831
-0.0710342
-0.0580415
-0.0448421
-0.0316916
-0.0188414
-0.00652843
0.00502384
0.0155932
0.0249318
0.0327607
0.0387459
0.0424379
0.0434178
0.0415979
0.0363788
0.0263535
0.0105729
-0.00885953
-0.0265824
-0.0373765
-0.0400878
-0.0367569
-0.0301327
-0.0223751
-0.0142903
-0.00708364
-0.000648278
0.0041955
0.00784613
0.00943793
0.0107699
0.0118746
0.00956377
0.00460429
-0.00947402
-0.0303308
-0.0575953
-0.0685592
-0.0587557
-0.0413095
-0.0217408
-0.0102407
0.00446535
0.0134703
0.0199134
0.0195044
0.00518049
-0.130215
-0.139021
-0.140771
-0.1378
-0.13333
-0.128846
-0.124285
-0.119028
-0.112624
-0.10497
-0.0961949
-0.0864908
-0.0760276
-0.064957
-0.0534448
-0.0416855
-0.0298972
-0.0183042
-0.00712614
0.00342324
0.0131323
0.0217619
0.0290547
0.034713
0.0383698
0.0396429
0.0383702
0.0341042
0.0260051
0.0135602
-0.00168728
-0.0159127
-0.0253049
-0.0287057
-0.0271854
-0.0225995
-0.0166798
-0.0100881
-0.00394233
0.00173726
0.00607129
0.009464
0.0111701
0.0126951
0.0139985
0.0120179
0.00782626
-0.00447032
-0.0230846
-0.048188
-0.0593434
-0.0512998
-0.0359235
-0.0181387
-0.00737851
0.00622631
0.0146084
0.0205641
0.0198379
0.00545776
-0.115693
-0.123602
-0.125362
-0.122904
-0.11903
-0.11509
-0.111081
-0.106493
-0.100928
-0.0942816
-0.086649
-0.0781865
-0.0690365
-0.0593243
-0.0491842
-0.038776
-0.0282845
-0.0179072
-0.0078437
0.00170648
0.0105426
0.0184402
0.0251687
0.0304585
0.0340111
0.0354992
0.0347426
0.0314281
0.0250863
0.0154559
0.00365084
-0.00763349
-0.0156624
-0.0193298
-0.0190565
-0.0160152
-0.0115726
-0.00625839
-0.00106829
0.00392369
0.00780002
0.0109287
0.0127437
0.0144953
0.0160387
0.0144621
0.0111217
0.000784973
-0.0154761
-0.0382152
-0.0493815
-0.0432442
-0.0301818
-0.0144521
-0.00453231
0.00797633
0.0156367
0.02093
0.0198702
0.00571768
-0.102397
-0.10945
-0.111158
-0.109139
-0.105816
-0.102398
-0.0989208
-0.0949593
-0.0901659
-0.0844363
-0.0778411
-0.0705078
-0.0625554
-0.0540875
-0.0452136
-0.0360649
-0.0267971
-0.0175819
-0.00859775
-2.63359e-05
0.00794514
0.0151108
0.0212632
0.0261632
0.0295679
0.0312069
0.0309083
0.0284517
0.0235924
0.0162449
0.0072345
-0.00158557
-0.0082743
-0.0118301
-0.0123034
-0.0103719
-0.00707818
-0.00282599
0.00152185
0.0058887
0.00937071
0.0122489
0.0141675
0.0161514
0.0180164
0.0169871
0.0145659
0.00617383
-0.00785155
-0.028159
-0.0391146
-0.0348919
-0.0242435
-0.0107561
-0.0017637
0.00970302
0.0165769
0.0210488
0.0196405
0.00597677
-0.0902747
-0.0964702
-0.0980915
-0.0964611
-0.0936479
-0.0907199
-0.0877408
-0.0843577
-0.0802668
-0.0753671
-0.0697097
-0.063399
-0.0565343
-0.0492015
-0.0414897
-0.0335068
-0.0253827
-0.0172648
-0.00931091
-0.0016844
0.00544592
0.0118962
0.0174776
0.0219817
0.02521
0.0269429
0.0270298
0.0253181
0.0217015
0.0161959
0.00942524
0.00264915
-0.00276394
-0.00595895
-0.00680015
-0.00562404
-0.00319655
0.000195432
0.00382013
0.00761828
0.0107652
0.0134292
0.0154405
0.0176231
0.0199013
0.0196309
0.0181636
0.011482
-0.000652581
-0.0185637
-0.02905
-0.0266028
-0.0183017
-0.00712936
0.000876316
0.0113747
0.0174602
0.0209947
0.0192378
0.0062578
-0.0791707
-0.0845949
-0.0861328
-0.0848435
-0.0824871
-0.0800065
-0.0774836
-0.074626
-0.0711684
-0.0670145
-0.0622
-0.0568104
-0.0509283
-0.0446248
-0.0379727
-0.0310597
-0.0239943
-0.0169014
-0.00991762
-0.00318835
0.00313679
0.00889617
0.013923
0.0180374
0.0210747
0.0228589
0.0232669
0.0221955
0.0196144
0.0155921
0.0105994
0.00550957
0.00125711
-0.0014502
-0.00239833
-0.00170319
9.24044e-05
0.00280256
0.00582369
0.00910967
0.0119653
0.0144602
0.0165496
0.0188707
0.0215843
0.0222345
0.0216921
0.0163399
0.00565716
-0.00991076
-0.0196568
-0.0187379
-0.012571
-0.00365291
0.00334733
0.0129359
0.01831
0.0208669
0.0187931
0.00658327
-0.0690101
-0.0737815
-0.0752313
-0.074231
-0.0722796
-0.0702026
-0.0680916
-0.0657052
-0.0628129
-0.059324
-0.0552623
-0.0506969
-0.0456969
-0.0403206
-0.0346272
-0.0286882
-0.0225931
-0.0164467
-0.0103663
-0.00447669
0.00109148
0.00619283
0.0106898
0.0144283
0.0172696
0.0190738
0.019745
0.0192111
0.0174827
0.0146521
0.0110716
0.00735257
0.00411404
0.00193805
0.0010532
0.00147092
0.0028236
0.00500312
0.00753267
0.0103673
0.0129607
0.0153173
0.0174607
0.0198672
0.0229342
0.0243905
0.0245991
0.020219
0.0107275
-0.00251322
-0.0112671
-0.0115978
-0.0072649
-0.000406872
0.00561198
0.0143074
0.019128
0.0207631
0.0184365
0.00695812
-0.0598256
-0.0639863
-0.0653267
-0.0645637
-0.0629662
-0.0612506
-0.0595085
-0.0575403
-0.0551477
-0.052247
-0.0488523
-0.0450194
-0.0408052
-0.0362577
-0.0314251
-0.0263647
-0.0211497
-0.0158672
-0.0106167
-0.00550416
-0.000640661
0.00385292
0.00784921
0.0112265
0.0138692
0.0156662
0.0165435
0.016452
0.0154177
0.0135327
0.0110622
0.00845084
0.00607454
0.00442146
0.00369904
0.00398405
0.00504116
0.00681563
0.00895112
0.011397
0.0137481
0.0159783
0.0181254
0.0205433
0.0238534
0.0256981
0.0263173
0.0226972
0.0144195
0.00347386
-0.00413894
-0.00540679
-0.00256702
0.00253815
0.00763074
0.0153921
0.0198578
0.0207541
0.0182368
0.00734634
-0.0515152
-0.0551136
-0.0563405
-0.0557791
-0.0544949
-0.0530998
-0.051683
-0.0500816
-0.048126
-0.0457403
-0.0429316
-0.0397439
-0.036224
-0.0324113
-0.0283444
-0.024069
-0.0196444
-0.0151422
-0.0106446
-0.00624163
-0.00202707
0.00190246
0.00543491
0.00847141
0.010916
0.0126823
0.013712
0.0139724
0.0134906
0.0123472
0.0107408
0.00894033
0.00734366
0.0061829
0.00567483
0.00592381
0.00679487
0.00826697
0.0100879
0.0122055
0.0143285
0.016427
0.0185103
0.0207968
0.0234843
0.0259196
0.0266848
0.023744
0.0167988
0.00800129
0.00152908
-0.00029055
0.00140481
0.00512725
0.00936391
0.0161039
0.0203628
0.0208457
0.0181511
0.00766204
-0.0439879
-0.0471042
-0.0482317
-0.0478375
-0.0468177
-0.0456976
-0.0445625
-0.0432791
-0.0417023
-0.0397634
-0.0374646
-0.0348404
-0.0319288
-0.0287618
-0.02537
-0.0217896
-0.018068
-0.0142628
-0.0104414
-0.00667774
-0.00305182
0.00035462
0.00345815
0.00617713
0.00842794
0.0101415
0.0112734
0.0118007
0.0117479
0.0111847
0.0102567
0.0091397
0.00811989
0.00738508
0.00710302
0.00737535
0.0081378
0.00938866
0.0109581
0.0128
0.0147072
0.0166571
0.0186247
0.0207522
0.0231949
0.0253334
0.0260105
0.0236732
0.0180668
0.0111595
0.00581078
0.00375189
0.00461893
0.00731748
0.0107812
0.0164143
0.0204782
0.0209177
0.0180015
0.00779271
-0.0372137
-0.0399053
-0.0409323
-0.0406677
-0.0398718
-0.0389887
-0.0380961
-0.0370857
-0.0358339
-0.0342792
-0.0324201
-0.0302837
-0.0279002
-0.0252952
-0.0224931
-0.0195221
-0.0164193
-0.0132302
-0.0100095
-0.00681804
-0.00372226
-0.000787448
0.00192097
0.00434322
0.00640157
0.0080415
0.00922906
0.00994791
0.0102191
0.0100951
0.00968537
0.00909774
0.00854079
0.00816112
0.00809173
0.00841889
0.00912393
0.0102147
0.0115818
0.0131927
0.0148943
0.0166752
0.0184854
0.0204103
0.0224862
0.0242246
0.024726
0.0228949
0.0185024
0.013177
0.00887935
0.00681601
0.00711815
0.00907348
0.0118569
0.0163596
0.0201019
0.0207103
0.0175188
0.00763713
-0.0311285
-0.0334414
-0.0343732
-0.0342203
-0.0336031
-0.0329206
-0.0322351
-0.0314566
-0.0304809
-0.0292534
-0.0277701
-0.0260517
-0.0241224
-0.0220025
-0.0197106
-0.0172684
-0.0147047
-0.0120554
-0.0093639
-0.00667811
-0.00405249
-0.00154126
0.000798927
0.0029502
0.00481827
0.0063654
0.00756674
0.00841014
0.00891424
0.00911182
0.00907256
0.00889736
0.00870748
0.00861759
0.00873447
0.00912799
0.00980588
0.0107806
0.0119844
0.0133985
0.0149046
0.0165029
0.0181256
0.0198122
0.0215037
0.0228526
0.0231708
0.0217498
0.0183848
0.0143348
0.0109463
0.00903228
0.00898127
0.0103788
0.0125702
0.0159893
0.0192132
0.0199273
0.0164918
0.0071613
-0.0256617
-0.0276448
-0.0284887
-0.0284284
-0.0279773
-0.0274526
-0.0269356
-0.0263498
-0.0256057
-0.0246542
-0.023489
-0.0221256
-0.0205833
-0.0188778
-0.0170235
-0.0150363
-0.0129382
-0.010757
-0.00852597
-0.00628214
-0.00406739
-0.00192176
0.000123704
0.00197772
0.00364736
0.00508473
0.00626292
0.00716983
0.00783348
0.0082595
0.00849766
0.0086147
0.00870267
0.00883987
0.00911042
0.00956818
0.0102341
0.0111227
0.0121928
0.0134358
0.0147605
0.0161723
0.0175886
0.0190279
0.0203697
0.0213891
0.0215576
0.0204644
0.0179291
0.0148784
0.0122357
0.0105268
0.0102986
0.0112479
0.0129207
0.0153669
0.0178951
0.0183964
0.0149272
0.00642352
-0.0207617
-0.022459
-0.0232201
-0.0232305
-0.0229126
-0.0225352
-0.022156
-0.0217269
-0.0211727
-0.0204508
-0.0195524
-0.0184882
-0.017273
-0.0159187
-0.0144361
-0.012837
-0.0111379
-0.00935906
-0.0075263
-0.00566833
-0.0038171
-0.00200602
-0.000271221
0.00135379
0.00283862
0.00415974
0.00528535
0.00618429
0.00697109
0.00754877
0.00797698
0.00830161
0.0085908
0.00889714
0.00928618
0.00979735
0.0104563
0.011277
0.0122347
0.0133288
0.0144866
0.0157153
0.0169266
0.0181273
0.019175
0.0199353
0.0200024
0.019168
0.0172798
0.0149913
0.0129513
0.0114897
0.0111628
0.0117272
0.0129381
0.014567
0.0163205
0.0165257
0.0130561
0.00554473
-0.0163816
-0.0178301
-0.0185142
-0.0185792
-0.0183708
-0.0181126
-0.0178558
-0.017554
-0.0171511
-0.0166167
-0.0159393
-0.0151249
-0.0141838
-0.0131248
-0.0119555
-0.0106844
-0.00932367
-0.0078883
-0.00639783
-0.00487365
-0.00333999
-0.00182256
-0.000349242
0.00105451
0.00236674
0.00356499
0.00464269
0.00560685
0.00635324
0.00699395
0.00753429
0.0079942
0.00841961
0.008844
0.00931696
0.00986596
0.0105157
0.0112785
0.0121399
0.0131031
0.0141091
0.0151657
0.0161857
0.0171704
0.0179829
0.0185489
0.0185569
0.0179232
0.0165284
0.0148149
0.0132478
0.0120461
0.0116463
0.0118836
0.0126798
0.0136512
0.014633
0.0144888
0.0111373
0.00465
-0.0124722
-0.0137056
-0.0143195
-0.0144263
-0.0143066
-0.0141453
-0.0139868
-0.0137961
-0.013524
-0.0131381
-0.0126356
-0.0120246
-0.0113099
-0.0104964
-0.00958896
-0.00859314
-0.00751753
-0.00637313
-0.00517409
-0.0039361
-0.00267775
-0.00141841
-0.000178527
0.00102269
0.00216667
0.00323709
0.00422138
0.0051098
0.00588681
0.0065689
0.00717337
0.00771429
0.00822382
0.00872289
0.00924777
0.00981707
0.0104517
0.0111615
0.0119375
0.0127846
0.0136551
0.0145561
0.0154048
0.0161972
0.0168357
0.0172579
0.0172366
0.0167555
0.0157304
0.0144455
0.0132387
0.0122426
0.0118114
0.0117853
0.0122132
0.0126738
0.0129727
0.0124809
0.00935072
0.00382803
-0.00898946
-0.0100385
-0.0105888
-0.0107266
-0.0106781
-0.0105948
-0.0105149
-0.010411
-0.010243
-0.00998547
-0.00963187
-0.00918362
-0.00864983
-0.00803618
-0.00734501
-0.00657826
-0.00574108
-0.00484106
-0.00388834
-0.00289451
-0.00187353
-0.000839311
0.000193209
0.00120936
0.00219398
0.00313378
0.00401814
0.00483813
0.00558921
0.0062725
0.00689928
0.00747748
0.008029
0.0085663
0.0091151
0.00968723
0.0102988
0.0109573
0.0116557
0.0123994
0.0131503
0.0139156
0.0146231
0.015288
0.015761
0.0160721
0.0160395
0.0156731
0.0149175
0.0139468
0.0130097
0.0121703
0.0117218
0.0114957
0.0116027
0.0116678
0.011445
0.0106415
0.0077865
0.00312194
-0.00589476
-0.0067857
-0.00727848
-0.00743839
-0.00744634
-0.00742526
-0.00740761
-0.00737206
-0.00728616
-0.00712892
-0.00689384
-0.00658296
-0.00620086
-0.00575024
-0.0052339
-0.00465437
-0.00401442
-0.00331819
-0.00257249
-0.00178566
-0.000967799
-0.000128819
0.000720274
0.00156844
0.002404
0.00321653
0.00399746
0.00473951
0.00543927
0.00609454
0.0067112
0.00729263
0.00785292
0.00839885
0.00894778
0.00950679
0.0100869
0.0106934
0.0113203
0.0119719
0.0126174
0.0132636
0.0138483
0.0143821
0.0147553
0.0149884
0.0149548
0.0146729
0.0141098
0.0133652
0.012624
0.0119013
0.0114372
0.011068
0.0109056
0.0106568
0.0100795
0.00904141
0.00647004
0.00254136
-0.00315185
-0.00390764
-0.0043487
-0.00452367
-0.00457576
-0.0046038
-0.00463489
-0.00465265
-0.00463111
-0.00455293
-0.00441228
-0.00421022
-0.00394968
-0.00363271
-0.00326061
-0.00283439
-0.00235598
-0.00182844
-0.00125575
-0.000643359
1.75131e-06
0.00067239
0.00136046
0.00205805
0.00275651
0.00344771
0.00412471
0.00478153
0.00541496
0.00602178
0.00660445
0.00716346
0.0077071
0.00823841
0.0087682
0.00930029
0.00984133
0.0103944
0.0109541
0.0115234
0.0120759
0.0126189
0.013101
0.0135314
0.013826
0.0140013
0.0139699