/*--------------------------------*- C++ -*----------------------------------*\
| =========                 |                                                 |
| \\      /  F ield         | OpenFOAM: The Open Source CFD Toolbox           |
|  \\    /   O peration     | Version:  2512                                  |
|   \\  /    A nd           | Website:  www.openfoam.com                      |
|    \\/     M anipulation  |                                                 |
\*---------------------------------------------------------------------------*/
FoamFile
{
    version     2.0;
    format      ascii;
    arch        "LSB;label=32;scalar=64";
    class       volVectorField;
    location    "149.25";
    object      U;
}
// * * * * * * * * * * * * * * * * * * * * * * * * * * * * * * * * * * * * * //

dimensions      [0 1 -1 0 0 0 0];

internalField   nonuniform List<vector> 
13248
(
(-0.010677 0.00987853 7.37084e-20)
(-0.016643 0.0172688 0)
(-0.00937016 0.0172471 -1.40205e-19)
(0.0100952 0.0128013 1.32077e-19)
(0.0413419 0.00608775 1.24092e-19)
(0.0841733 -0.00133841 0)
(0.138344 -0.00836993 0)
(0.203337 -0.0142165 2.97369e-19)
(0.278187 -0.0183169 -3.33211e-21)
(0.361369 -0.020296 -2.56259e-19)
(0.450793 -0.019953 2.30933e-19)
(0.543898 -0.0172611 -1.43882e-19)
(0.637834 -0.0123645 0)
(0.729692 -0.00556421 -2.26841e-19)
(0.816744 0.00271266 4.1619e-19)
(0.896662 0.0119542 -9.8043e-20)
(0.967667 0.0216144 -1.61181e-19)
(1.02863 0.0311515 1.51312e-19)
(1.07906 0.0401133 0)
(1.11909 0.0479951 0)
(1.14948 0.054836 0)
(1.17095 0.0594479 0)
(1.1859 0.0640799 3.99161e-20)
(1.19353 0.0632442 1.38794e-19)
(-0.0101104 0.00862657 -2.22716e-19)
(-0.0116267 0.0141571 1.52231e-19)
(0.00397736 0.013504 -1.00496e-21)
(0.0351594 0.00925841 -2.01642e-19)
(0.0810688 0.00346112 -1.23954e-19)
(0.141003 -0.00231027 -1.17002e-19)
(0.214004 -0.00692171 -2.1458e-19)
(0.298583 -0.00959981 2.02534e-19)
(0.392546 -0.00987681 0)
(0.492977 -0.00756848 2.16744e-21)
(0.59638 -0.00275905 4.5982e-21)
(0.698966 0.00422716 1.43737e-19)
(0.797017 0.0128755 0)
(0.887243 0.0225508 0)
(0.967071 0.0325763 1.50387e-19)
(1.03482 0.042311 -2.82117e-19)
(1.08978 0.0512132 1.60093e-19)
(1.13214 0.0588789 -1.50301e-19)
(1.16285 0.0650688 -6.4387e-20)
(1.18344 0.0696595 -1.11515e-19)
(1.19572 0.0727856 -4.45676e-20)
(1.20188 0.074169 -8.21699e-20)
(1.20326 0.0752741 1.24276e-19)
(1.20215 0.0723882 3.51849e-20)
(-0.00832912 0.00668217 0)
(-0.00278712 0.00931905 0)
(0.0238403 0.00758449 7.13554e-20)
(0.0694832 0.00366747 6.59508e-20)
(0.132694 -0.00055632 -1.47955e-21)
(0.211943 -0.0035729 -1.19967e-19)
(0.305082 -0.00435855 0)
(0.409087 -0.00234921 -1.00406e-19)
(0.520026 0.00259405 9.30736e-20)
(0.633276 0.0102195 2.04982e-22)
(0.74396 0.0199507 -1.55148e-19)
(0.847483 0.0309908 -1.3821e-19)
(0.940037 0.0424512 5.27241e-21)
(1.01896 0.0534819 -1.06494e-19)
(1.0829 0.0633777 2.61229e-19)
(1.13182 0.0716482 0)
(1.16677 0.0780422 -1.58174e-19)
(1.18964 0.0825281 7.69941e-20)
(1.20278 0.0852612 6.43299e-20)
(1.20866 0.0864657 0)
(1.20961 0.0865578 5.04689e-20)
(1.20756 0.0854766 -1.72886e-19)
(1.2038 0.0845297 1.62293e-19)
(1.20025 0.0807207 1.00286e-19)
(-0.00510958 0.00428807 -7.85477e-20)
(0.0106031 0.0034931 -8.10925e-20)
(0.0514036 0.000741905 7.36547e-20)
(0.114504 -0.00222382 0)
(0.197515 -0.0037836 0)
(0.297548 -0.00264027 -1.87108e-21)
(0.410638 0.00188656 0)
(0.531666 0.00986026 -3.02948e-19)
(0.654684 0.0207974 2.79735e-19)
(0.773547 0.0337892 -3.43128e-19)
(0.882681 0.0476829 7.74689e-20)
(0.977761 0.0612923 0)
(1.05614 0.0735895 1.23191e-19)
(1.11697 0.0838398 -2.25932e-19)
(1.161 0.0916603 5.3541e-20)
(1.19025 0.0970052 1.305e-19)
(1.20745 0.100094 -8.90269e-21)
(1.2156 0.101313 -1.44488e-19)
(1.21752 0.10111 0)
(1.2156 0.0999 0)
(1.21161 0.0980772 -4.86822e-20)
(1.20675 0.0956709 4.30992e-20)
(1.20171 0.0936427 1.5023e-19)
(1.19699 0.0892487 -1.41036e-19)
(-0.000147164 0.00165897 -8.23306e-20)
(0.0293209 -0.00255752 -8.21268e-20)
(0.0877171 -0.00566157 2.31173e-19)
(0.171171 -0.00650394 -1.40491e-19)
(0.27579 -0.00390611 1.32241e-19)
(0.396628 0.00294803 2.4018e-19)
(0.527274 0.0140557 -1.69108e-19)
(0.660251 0.0286397 -2.03273e-19)
(0.787908 0.045361 5.69067e-21)
(0.903494 0.0626136 2.58434e-19)
(1.00207 0.0788438 0)
(1.08102 0.0928199 6.8996e-20)
(1.14001 0.103789 0)
(1.18067 0.111507 -1.08356e-19)
(1.20589 0.116162 1.51727e-19)
(1.21918 0.118227 9.8239e-22)
(1.22401 0.118307 -3.85493e-20)
(1.22338 0.116999 7.00396e-20)
(1.21961 0.114805 6.04736e-20)
(1.21431 0.11209 -5.35195e-20)
(1.20846 0.109106 4.86705e-20)
(1.20262 0.105878 -4.30885e-20)
(1.19698 0.10296 0)
(1.19192 0.0982368 -3.27687e-20)
(0.00691197 -0.000979875 8.23189e-20)
(0.0540794 -0.00801429 8.60773e-20)
(0.133457 -0.0101984 -7.73665e-20)
(0.239564 -0.00726314 1.43836e-19)
(0.366269 0.00119859 -1.35382e-19)
(0.505868 0.0151278 1.22006e-19)
(0.649198 0.0334436 -5.85055e-20)
(0.786806 0.0542718 1.5284e-19)
(0.910444 0.0754155 -9.57222e-20)
(1.01431 0.0948379 1.66636e-19)
(1.09565 0.111033 -3.82393e-19)
(1.15462 0.123207 1.39674e-19)
(1.19364 0.131257 -1.19323e-19)
(1.21649 0.135611 1.12081e-19)
(1.22732 0.137 9.41959e-20)
(1.23001 0.136233 8.08406e-20)
(1.2277 0.134044 -2.25245e-19)
(1.22267 0.131002 1.38892e-19)
(1.21642 0.127499 -6.04754e-20)
(1.20983 0.123774 1.55979e-19)
(1.20336 0.119956 -5.04128e-20)
(1.19721 0.116069 -1.20554e-19)
(1.19146 0.112402 1.10929e-19)
(1.18617 0.107452 3.27585e-20)
(0.0164082 -0.00335045 0)
(0.0853702 -0.0119686 5.68612e-22)
(0.188681 -0.0114201 1.60569e-19)
(0.318611 -0.002759 -1.50757e-19)
(0.466038 0.0131674 -1.35672e-19)
(0.62009 0.0349545 2.51813e-19)
(0.769216 0.0601372 -1.16779e-19)
(0.903199 0.0857544 1.54435e-19)
(1.01491 0.109096 -3.98861e-21)
(1.10113 0.12824 -8.67531e-20)
(1.16231 0.14227 1.86356e-19)
(1.2016 0.151198 -2.73871e-19)
(1.22356 0.15569 0)
(1.23306 0.156735 -5.25106e-20)
(1.23438 0.15536 -1.38068e-19)
(1.23087 0.152441 4.37276e-20)
(1.22486 0.148634 2.04064e-21)
(1.21781 0.144371 -9.13294e-20)
(1.21055 0.13991 7.02649e-21)
(1.2035 0.13539 1.05026e-19)
(1.19684 0.130876 -4.57858e-20)
(1.19062 0.126396 -1.71985e-20)
(1.18479 0.122039 5.368e-20)
(1.17936 0.116901 0)
(0.0285935 -0.00509775 0)
(0.123301 -0.0134131 4.35093e-20)
(0.252648 -0.00791428 -2.0891e-19)
(0.406009 0.00843857 7.58495e-20)
(0.570766 0.0329615 -7.1387e-20)
(0.733103 0.0625 -6.48637e-20)
(0.880286 0.0931767 -1.14301e-19)
(1.00317 0.121333 5.73217e-20)
(1.09749 0.144379 4.96059e-20)
(1.16363 0.161112 0)
(1.2053 0.171585 1.1038e-19)
(1.22791 0.17669 -1.62922e-19)
(1.23707 0.177698 1.20997e-19)
(1.23762 0.175888 5.25375e-20)
(1.23324 0.172321 -4.22856e-20)
(1.22641 0.167765 -3.44878e-20)
(1.21863 0.162721 -3.17696e-20)
(1.21074 0.157481 9.68182e-20)
(1.20314 0.152203 0)
(1.19599 0.146963 4.73129e-20)
(1.18933 0.141797 3.89945e-20)
(1.18311 0.13672 -9.76973e-20)
(1.17729 0.131711 -6.56832e-20)
(1.17178 0.12638 6.07924e-20)
(0.0435632 -0.00579324 -4.66645e-20)
(0.167467 -0.0112854 -1.56773e-21)
(0.323736 0.00159059 4.24077e-20)
(0.498383 0.0273028 1.1801e-19)
(0.675323 0.0607823 3.40715e-20)
(0.838862 0.0969826 -6.59603e-20)
(0.976962 0.130993 6.03029e-20)
(1.08343 0.159166 -5.26849e-20)
(1.15798 0.179722 9.37424e-20)
(1.20466 0.192604 3.95087e-20)
(1.22968 0.198902 -1.12125e-19)
(1.23957 0.20021 3.27673e-20)
(1.23994 0.198121 5.52216e-20)
(1.23495 0.193944 -2.72926e-20)
(1.22739 0.188615 0)
(1.21889 0.18273 3.95768e-20)
(1.21034 0.176636 6.60968e-20)
(1.20215 0.170517 1.06698e-20)
(1.19448 0.164463 -5.45772e-20)
(1.18737 0.158517 2.25235e-20)
(1.18077 0.152697 0)
(1.17462 0.147002 -1.73727e-20)
(1.16882 0.141377 -1.62458e-20)
(1.16329 0.135802 0)
(0.0611994 -0.00496602 0)
(0.216878 -0.00456546 2.44108e-20)
(0.399498 0.0180839 4.50513e-20)
(0.591638 0.054235 -1.19981e-19)
(0.774556 0.0961128 3.86736e-20)
(0.932483 0.13706 0)
(1.05612 0.171886 5.7705e-20)
(1.14354 0.197765 -8.0453e-20)
(1.19864 0.214246 -4.6721e-20)
(1.22839 0.222533 2.10693e-20)
(1.2404 0.224581 -3.30496e-20)
(1.2413 0.222396 8.05927e-20)
(1.23603 0.217629 3.97753e-20)
(1.22782 0.211456 -2.79779e-20)
(1.2186 0.204622 -2.94173e-21)
(1.20934 0.19755 -7.4217e-20)
(1.20052 0.190464 3.36424e-20)
(1.19229 0.183474 -8.36951e-22)
(1.18469 0.176631 0)
(1.1777 0.169958 -2.2547e-20)
(1.17123 0.163464 0)
(1.16519 0.157124 4.99543e-20)
(1.15949 0.150915 -5.91204e-20)
(1.15399 0.145013 2.68141e-20)
(0.0811362 -0.00214784 -1.26305e-20)
(0.269958 0.00760995 -6.11784e-20)
(0.476838 0.0421432 6.94602e-20)
(0.681453 0.0890222 4.07482e-20)
(0.86399 0.137868 -1.95196e-20)
(1.01075 0.181152 3.25382e-20)
(1.11679 0.214351 -1.58583e-20)
(1.18493 0.236133 2.62158e-20)
(1.22264 0.247596 0)
(1.23876 0.251069 5.86462e-20)
(1.24126 0.249082 -2.61996e-21)
(1.23618 0.243771 -4.694e-20)
(1.2275 0.236665 1.99139e-20)
(1.21755 0.228729 -2.22135e-20)
(1.20755 0.22051 -8.23429e-21)
(1.19803 0.21229 9.74133e-21)
(1.18919 0.204205 -7.36885e-21)
(1.18108 0.196319 -3.96013e-20)
(1.17366 0.188659 2.42253e-20)
(1.16685 0.181237 4.87965e-21)
(1.16057 0.174044 4.25558e-21)
(1.15471 0.167048 3.71204e-21)
(1.14915 0.160289 0)
(1.14374 0.153951 0)
(0.102822 0.00308883 1.26393e-20)
(0.32476 0.0258564 -1.26401e-20)
(0.552456 0.0738514 -2.31096e-20)
(0.763907 0.13088 0)
(0.940342 0.184611 -9.6647e-21)
(1.0721 0.227714 -8.64689e-21)
(1.15949 0.257227 -1.47669e-20)
(1.20975 0.273702 0)
(1.23294 0.279734 0)
(1.23871 0.278495 0)
(1.23462 0.272789 0)
(1.22578 0.26467 0)
(1.2152 0.255448 -1.2452e-20)
(1.20443 0.24586 5.65516e-21)
(1.19418 0.236284 9.73364e-21)
(1.18469 0.226897 4.53589e-21)
(1.17603 0.217775 1.10783e-20)
(1.16817 0.20895 0)
(1.16103 0.200435 -2.58795e-21)
(1.15451 0.192232 -2.4577e-21)
(1.14852 0.184316 -4.26235e-21)
(1.14293 0.176665 -3.71796e-21)
(1.13761 0.169381 0)
(1.13243 0.162494 2.59005e-21)
(0.000377333 -0.0472084 9.16422e-21)
(-0.00246369 -0.112891 -9.5092e-21)
(-0.0108695 -0.157429 -1.79939e-20)
(-0.022781 -0.185547 0)
(-0.0367635 -0.201539 -2.41757e-20)
(-0.0518894 -0.209161 7.65899e-21)
(-0.0674481 -0.211389 -1.43013e-20)
(-0.0829247 -0.210309 0)
(-0.0979805 -0.207167 0)
(-0.112401 -0.202514 0)
(-0.126047 -0.196392 0)
(-0.13881 -0.188529 0)
(-0.150592 -0.178481 3.19722e-22)
(-0.161283 -0.165746 -9.87419e-21)
(-0.170758 -0.14983 1.81583e-20)
(-0.178873 -0.130294 2.60275e-20)
(-0.18547 -0.106779 7.71657e-21)
(-0.190379 -0.079044 0)
(-0.193424 -0.0469825 7.45577e-21)
(-0.194279 -0.0106546 -2.01837e-20)
(-0.192962 0.0297729 -1.22505e-20)
(-0.189483 0.0736824 -1.13339e-20)
(-0.183746 0.120493 0)
(-0.176777 0.16935 0)
(0.00246424 -0.0425678 -2.72791e-20)
(0.00140809 -0.101518 4.72278e-20)
(-0.00743858 -0.141364 -1.74417e-20)
(-0.0208621 -0.166362 -3.35577e-20)
(-0.0367976 -0.180471 4.76269e-20)
(-0.0540085 -0.187159 -2.98961e-20)
(-0.0716221 -0.189138 4.24196e-20)
(-0.089059 -0.188281 2.62063e-20)
(-0.105979 -0.185683 0)
(-0.122199 -0.181801 -2.41681e-20)
(-0.137618 -0.176645 -1.42632e-22)
(-0.152167 -0.169941 2.14566e-20)
(-0.165774 -0.161275 2.94777e-20)
(-0.178345 -0.150186 3.72803e-20)
(-0.189754 -0.136227 -1.81633e-20)
(-0.199844 -0.118999 -4.99514e-20)
(-0.208425 -0.0981768 1.45563e-20)
(-0.215282 -0.0735286 -5.60061e-20)
(-0.22019 -0.0449273 0)
(-0.222889 -0.0123659 1.31699e-20)
(-0.223207 0.0238564 1.22367e-20)
(-0.220886 0.063534 1.13209e-20)
(-0.215843 0.106357 0)
(-0.210272 0.151868 0)
(0.00384834 -0.0364894 0)
(0.00393091 -0.087323 9.13475e-20)
(-0.00525802 -0.122067 -3.45503e-20)
(-0.0196383 -0.144077 3.31006e-20)
(-0.0366734 -0.156691 -9.22194e-20)
(-0.0548939 -0.162904 0)
(-0.0733026 -0.165065 -5.48444e-20)
(-0.091266 -0.164788 2.54026e-20)
(-0.108434 -0.163008 -4.78688e-20)
(-0.124635 -0.16011 2.16663e-20)
(-0.139789 -0.156084 1.27554e-19)
(-0.153846 -0.150683 -5.98162e-20)
(-0.166749 -0.143537 -9.40863e-20)
(-0.178414 -0.134243 -3.35003e-20)
(-0.188721 -0.122409 6.70718e-22)
(-0.197508 -0.107694 1.2094e-19)
(-0.204576 -0.0898168 -5.64035e-20)
(-0.209679 -0.0685729 2.66508e-21)
(-0.212533 -0.0438356 0)
(-0.212944 -0.0155757 -4.06446e-20)
(-0.21072 0.0160822 0)
(-0.205338 0.051052 -3.69623e-20)
(-0.196306 0.0892088 1.28791e-19)
(-0.186523 0.130264 -1.97089e-21)
(0.00437915 -0.0294686 0)
(0.00484587 -0.0713484 -6.57901e-22)
(-0.00458963 -0.10083 3.36615e-20)
(-0.0193476 -0.12007 -3.17565e-20)
(-0.036618 -0.131577 3.04747e-20)
(-0.0547932 -0.137751 1.7023e-19)
(-0.0727967 -0.14051 -5.35407e-20)
(-0.089953 -0.141181 -4.97737e-20)
(-0.105894 -0.140537 9.44557e-20)
(-0.120441 -0.138891 -1.32888e-19)
(-0.133513 -0.13623 4.07157e-20)
(-0.145063 -0.132339 3.77315e-20)
(-0.155035 -0.1269 0)
(-0.163349 -0.119567 3.40149e-20)
(-0.16989 -0.110007 0)
(-0.174504 -0.0979331 5.41616e-20)
(-0.176996 -0.0831154 -1.00849e-19)
(-0.177127 -0.0653901 2.76832e-20)
(-0.174625 -0.0446648 8.59256e-20)
(-0.16928 -0.0209274 4.06059e-20)
(-0.160911 0.0058515 0)
(-0.149036 0.0357916 -9.18761e-20)
(-0.132591 0.0690856 3.04468e-20)
(-0.113143 0.105287 0)
(0.00400492 -0.0220149 0)
(0.00407105 -0.0546299 -1.06126e-19)
(-0.00552023 -0.078886 -3.35099e-20)
(-0.020085 -0.0955996 -6.3094e-20)
(-0.0367543 -0.106344 5.94152e-20)
(-0.0538858 -0.112859 -5.641e-20)
(-0.0703764 -0.116593 1.04889e-19)
(-0.085528 -0.118573 4.93199e-20)
(-0.0989526 -0.119405 -1.38961e-19)
(-0.110456 -0.119333 8.54826e-20)
(-0.119943 -0.11834 -1.20224e-19)
(-0.127357 -0.116242 2.56768e-19)
(-0.13264 -0.112768 -1.37969e-19)
(-0.135714 -0.107622 6.16254e-20)
(-0.136473 -0.100524 1.6939e-19)
(-0.134779 -0.0912312 -5.77047e-20)
(-0.130466 -0.079558 -4.96413e-20)
(-0.123332 -0.0653866 -4.59671e-20)
(-0.113139 -0.0486722 0)
(-0.0996522 -0.029436 -6.5503e-20)
(-0.0826463 -0.00768397 -5.38341e-20)
(-0.0618533 0.0167081 8.35795e-20)
(-0.0370389 0.0440545 9.09763e-20)
(-0.00519838 0.0764376 -8.25108e-20)
(0.00277454 -0.0146074 0)
(0.00171688 -0.0381251 -1.3949e-19)
(-0.00791606 -0.0573509 -4.9729e-24)
(-0.021712 -0.071771 1.24673e-19)
(-0.0369486 -0.0820119 0)
(-0.0520526 -0.0891362 0)
(-0.0659497 -0.0941194 0)
(-0.0779447 -0.0976851 -4.83547e-20)
(-0.0876371 -0.100269 8.31981e-22)
(-0.0948138 -0.102042 8.46728e-20)
(-0.0993633 -0.102976 -1.1672e-19)
(-0.101218 -0.102908 1.00824e-21)
(-0.100318 -0.101606 0)
(-0.0965971 -0.0988141 -6.15991e-20)
(-0.0899707 -0.0942878 5.14515e-20)
(-0.0803376 -0.0878177 -1.49573e-19)
(-0.0675784 -0.0792476 1.75708e-19)
(-0.051555 -0.0684886 3.12791e-20)
(-0.0321102 -0.0555291 -8.87212e-21)
(-0.00907812 -0.0404465 -1.26913e-19)
(0.0177157 -0.0233737 -5.14954e-20)
(0.0484483 -0.00442862 1.57962e-19)
(0.0840463 0.0169189 -1.00262e-19)
(0.129075 0.0436395 0)
(0.000831287 -0.00767363 6.68213e-20)
(-0.00191134 -0.022686 6.95803e-20)
(-0.0113902 -0.0372057 -6.58531e-20)
(-0.0237827 -0.0495316 -1.24248e-19)
(-0.0366875 -0.0594103 1.17e-19)
(-0.0486893 -0.0672588 -1.09701e-19)
(-0.0587922 -0.0735964 1.54689e-19)
(-0.066327 -0.0788496 -4.79751e-20)
(-0.0708877 -0.0832815 9.00676e-20)
(-0.0722421 -0.0869816 0)
(-0.0702591 -0.0898946 7.46011e-20)
(-0.0648604 -0.0918651 -1.41799e-19)
(-0.0559913 -0.092681 1.27129e-19)
(-0.0436061 -0.0921109 -1.19403e-19)
(-0.0276617 -0.0899319 0)
(-0.00811802 -0.0859514 9.55375e-20)
(0.0150641 -0.0800289 1.63045e-19)
(0.0419257 -0.0720873 -1.54529e-19)
(0.0725091 -0.0621294 -6.46151e-20)
(0.106863 -0.0502476 -5.39122e-20)
(0.14501 -0.0366323 1.54839e-19)
(0.187252 -0.0215588 3.7324e-20)
(0.231909 -0.00521799 -3.85126e-20)
(0.29418 0.0145062 3.0724e-20)
(-0.00159915 -0.00157703 -6.68303e-20)
(-0.00632928 -0.00904495 2.09366e-19)
(-0.0153078 -0.0193018 -6.56424e-20)
(-0.0255329 -0.0297017 1.24342e-19)
(-0.0350489 -0.0392407 -1.17087e-19)
(-0.0426608 -0.0477568 5.03999e-22)
(-0.047484 -0.055349 5.16789e-20)
(-0.0488889 -0.0621602 1.91061e-19)
(-0.0464657 -0.0682784 -2.30268e-21)
(-0.0399607 -0.0736966 -8.39468e-20)
(-0.0292233 -0.0783143 0)
(-0.0141712 -0.0819607 -6.75532e-20)
(0.00522819 -0.0844231 1.29461e-19)
(0.0289662 -0.0854758 1.13167e-19)
(0.0569992 -0.0849027 -5.44884e-20)
(0.0892466 -0.0825212 -7.67415e-22)
(0.125593 -0.0782019 -4.17828e-20)
(0.165896 -0.0718817 7.22077e-20)
(0.209992 -0.0635806 6.45954e-20)
(0.25773 -0.0534003 -5.62084e-20)
(0.308621 -0.0416293 4.76411e-20)
(0.364311 -0.0282346 -4.11162e-20)
(0.41609 -0.014683 0)
(0.498219 0.00172815 -3.06776e-20)
(-0.00422557 0.00339077 6.75696e-20)
(-0.0109048 0.0021844 -6.98797e-20)
(-0.018832 -0.00437762 6.66871e-20)
(-0.0259411 -0.0130154 0)
(-0.0307893 -0.0221486 0)
(-0.0324324 -0.0311303 1.10782e-19)
(-0.0301143 -0.0396877 -1.03599e-19)
(-0.0232542 -0.0476993 9.53342e-20)
(-0.0114464 -0.0550775 -4.4738e-19)
(0.00556845 -0.0617054 1.20413e-21)
(0.0279299 -0.0674177 7.63291e-20)
(0.0556716 -0.0720077 0)
(0.088727 -0.0752461 -1.24671e-19)
(0.126931 -0.0769028 2.29483e-19)
(0.170022 -0.0767702 -1.57321e-19)
(0.21765 -0.0746873 -2.25266e-19)
(0.269388 -0.0705559 9.90153e-21)
(0.32475 -0.0643581 1.48178e-19)
(0.38319 -0.0561747 0)
(0.444329 -0.046105 0)
(0.50657 -0.034755 -4.76303e-20)
(0.574058 -0.0213051 4.11065e-20)
(0.62932 -0.00896442 -1.37583e-19)
(0.725012 0.00756213 1.29088e-19)
(-0.00673104 0.00703354 0)
(-0.014927 0.0105502 0)
(-0.0209997 0.00697551 -2.00838e-19)
(-0.02383 -0.000112767 6.36727e-20)
(-0.0224953 -0.00874968 3.39239e-22)
(-0.0163073 -0.0179075 1.12526e-19)
(-0.00464928 -0.0270013 0)
(0.0129832 -0.0356746 -9.73661e-20)
(0.0369442 -0.0436702 8.97644e-20)
(0.0674242 -0.0507553 -1.65081e-19)
(0.104441 -0.0566902 1.64359e-21)
(0.147831 -0.0612272 1.37724e-19)
(0.197243 -0.0641236 -4.50426e-21)
(0.25214 -0.0651631 1.07708e-19)
(0.311818 -0.0641786 -1.59537e-19)
(0.375431 -0.061074 0)
(0.442037 -0.0558406 1.58471e-19)
(0.510642 -0.0485656 -2.20658e-19)
(0.580195 -0.0394627 6.36379e-20)
(0.650019 -0.0286757 0)
(0.717771 -0.0171197 4.89779e-20)
(0.788253 -0.0035512 1.63852e-19)
(0.84227 0.00781045 -1.53767e-19)
(0.933085 0.0242082 -1.62955e-19)
(-0.00880926 0.00927725 2.08835e-19)
(-0.0176801 0.015811 -2.88274e-19)
(-0.0208273 0.0143714 7.03386e-23)
(-0.0179922 0.00853578 6.44395e-20)
(-0.00873755 0.000471489 -1.20828e-19)
(0.00736626 -0.00852317 -1.11943e-19)
(0.0307607 -0.0176206 2.09094e-19)
(0.0618029 -0.0262653 -3.11696e-21)
(0.100676 -0.0340491 -1.82691e-19)
(0.147328 -0.040634 3.33161e-19)
(0.201432 -0.0457205 -4.24464e-21)
(0.262361 -0.0490444 -1.42635e-19)
(0.329191 -0.0503905 0)
(0.40073 -0.0496132 0)
(0.475583 -0.046656 -5.17093e-20)
(0.552227 -0.041566 -9.26891e-20)
(0.629104 -0.0344992 -1.59692e-19)
(0.70471 -0.0257197 1.49897e-19)
(0.77765 -0.0155875 -6.36561e-20)
(0.846867 -0.0044727 1.09282e-19)
(0.91073 0.00688676 -5.54072e-20)
(0.971442 0.0189941 7.96107e-20)
(1.01803 0.0287923 -1.9861e-19)
(1.08428 0.0421874 3.33721e-20)
(-0.0101942 0.0101707 7.0541e-20)
(-0.0184738 0.0179665 0)
(-0.0173145 0.0177193 1.37994e-19)
(-0.00717668 0.0127783 -1.29999e-19)
(0.0119419 0.00535709 1.20931e-19)
(0.0401962 -0.00307816 0)
(0.0777705 -0.0115263 0)
(0.124722 -0.0192832 -9.76801e-20)
(0.180837 -0.0258282 3.06449e-21)
(0.245532 -0.0307601 8.62105e-20)
(0.317797 -0.0337727 -7.54446e-20)
(0.396193 -0.0346564 1.43378e-19)
(0.478912 -0.0333109 0)
(0.563886 -0.0297574 2.26684e-19)
(0.648926 -0.024144 -4.15931e-19)
(0.731876 -0.0167403 2.83409e-19)
(0.810766 -0.00791669 1.60866e-19)
(0.883916 0.00186836 -1.51007e-19)
(0.950049 0.0121566 0)
(1.00825 0.0223478 0)
(1.05818 0.0321854 0)
(1.09993 0.0409213 0)
(1.13215 0.0483087 3.92393e-20)
(1.16591 0.0558299 -1.40337e-19)
(-0.169013 0.226756 -7.02205e-21)
(-0.15599 0.296458 7.04323e-21)
(-0.139977 0.365649 -1.84258e-22)
(-0.121659 0.430634 0)
(-0.101003 0.48794 -5.0975e-21)
(-0.0774729 0.53377 9.58652e-21)
(-0.0496393 0.564226 -2.40758e-22)
(-0.0150044 0.574447 -4.14223e-21)
(0.0290585 0.559427 0)
(0.0844788 0.514744 0)
(0.151479 0.438282 -2.5267e-22)
(0.227376 0.331852 -2.61097e-22)
(0.307385 0.200212 -4.39604e-21)
(0.386864 0.050005 4.01295e-21)
(0.463172 -0.111438 0)
(0.534403 -0.270676 0)
(0.596978 -0.408244 2.75539e-21)
(0.646261 -0.505951 -4.81298e-22)
(0.679243 -0.557774 -2.01213e-21)
(0.695702 -0.571439 -9.48297e-23)
(0.699071 -0.559977 0)
(0.693249 -0.537954 0)
(0.675958 -0.522986 0)
(0.642307 -0.52475 0)
(0.597924 -0.525259 0)
(0.563701 -0.480102 0)
(0.560773 -0.354589 5.83689e-22)
(0.592253 -0.158559 -9.07327e-22)
(0.645152 0.0573219 0)
(0.703639 0.241735 0)
(0.753948 0.366064 -4.72493e-22)
(0.790092 0.43117 4.59203e-22)
(0.813312 0.450755 1.59502e-22)
(0.822744 0.453831 0)
(0.810322 0.467977 0)
(0.774138 0.488414 2.91793e-22)
(0.731492 0.470614 -2.83647e-22)
(0.707923 0.363157 0)
(0.712838 0.180486 4.01686e-22)
(0.742673 -0.0330197 -5.93785e-22)
(0.779421 -0.201175 1.72215e-22)
(0.817876 -0.313131 0)
(0.842486 -0.363072 -1.88518e-22)
(0.838696 -0.393958 1.83314e-22)
(0.802964 -0.414145 0)
(0.754588 -0.382963 0)
(0.728468 -0.297629 -8.3172e-23)
(0.739211 -0.11151 2.35947e-22)
(0.775014 0.0377055 0)
(0.814349 0.196694 0)
(0.824504 0.284471 -5.16715e-23)
(0.800808 0.34895 1.85929e-24)
(0.778195 0.378882 -1.90162e-24)
(0.77313 0.244815 4.49983e-23)
(0.792646 0.170637 0)
(0.813439 -0.0667529 0)
(0.812012 -0.180503 0)
(0.800865 -0.280198 0)
(0.801284 -0.387226 0)
(0.785699 -0.124947 0)
(-0.20735 0.206202 -5.69021e-22)
(-0.192758 0.272363 -2.28846e-20)
(-0.173399 0.338244 1.22538e-21)
(-0.148831 0.400001 2.03436e-20)
(-0.118423 0.45444 2.7044e-22)
(-0.0812282 0.496524 0)
(-0.0362789 0.521929 -1.61015e-20)
(0.0178921 0.526089 3.19635e-20)
(0.0824077 0.504416 -1.58692e-20)
(0.156753 0.453825 1.67491e-20)
(0.238927 0.373719 -1.60252e-20)
(0.324879 0.266766 1.76238e-20)
(0.410052 0.137637 -1.7149e-20)
(0.490642 -0.00857004 -5.67954e-22)
(0.565488 -0.165476 -1.62923e-20)
(0.632871 -0.319338 1.5832e-20)
(0.687669 -0.448971 -1.18373e-20)
(0.7249 -0.535606 1.11716e-20)
(0.74336 -0.574796 -7.36028e-21)
(0.74525 -0.577131 1.27699e-20)
(0.735155 -0.557651 -5.48214e-21)
(0.718488 -0.529164 -2.53753e-22)
(0.694828 -0.506061 -3.70471e-21)
(0.657606 -0.499704 7.35653e-21)
(0.60715 -0.49937 -3.65039e-21)
(0.560561 -0.465662 2.47386e-22)
(0.541938 -0.359454 5.37365e-21)
(0.560816 -0.180867 4.87204e-22)
(0.607708 0.0254624 -1.02319e-20)
(0.666038 0.209969 9.15966e-21)
(0.72076 0.340731 -4.16534e-21)
(0.764732 0.413967 3.6061e-22)
(0.79713 0.441456 -1.59838e-22)
(0.813742 0.453553 2.72683e-22)
(0.806121 0.477373 0)
(0.774999 0.50366 0)
(0.739655 0.484146 -1.47976e-21)
(0.724514 0.368686 1.027e-21)
(0.735255 0.176491 1.29768e-21)
(0.767749 -0.0436654 8.59849e-23)
(0.80166 -0.213981 -1.71549e-21)
(0.834677 -0.323424 2.86141e-22)
(0.853511 -0.366449 0)
(0.84707 -0.387691 0)
(0.809329 -0.401343 0)
(0.757428 -0.371576 0)
(0.728373 -0.295245 2.72291e-22)
(0.735506 -0.118446 -1.55202e-22)
(0.771905 0.0266683 0)
(0.80926 0.189869 0)
(0.820076 0.285455 0)
(0.79632 0.354363 -9.31747e-23)
(0.774428 0.382269 -4.27469e-24)
(0.772378 0.243109 -8.68798e-23)
(0.793501 0.16618 0)
(0.819898 -0.0684144 0)
(0.817736 -0.179694 5.86576e-23)
(0.806751 -0.278746 1.47433e-22)
(0.805927 -0.385821 0)
(0.787598 -0.123572 0)
(-0.183479 0.180021 -1.22689e-21)
(-0.167401 0.240976 -3.96056e-20)
(-0.144794 0.302452 3.62764e-20)
(-0.114501 0.359184 -3.39899e-20)
(-0.0761297 0.408259 -2.72305e-22)
(-0.0293923 0.445145 0)
(0.0275358 0.465548 -3.14676e-20)
(0.094734 0.465112 3.08202e-20)
(0.171315 0.439638 2.4926e-22)
(0.255433 0.387034 5.25033e-22)
(0.344039 0.307607 5.55967e-22)
(0.432906 0.204328 5.63265e-22)
(0.518004 0.0812276 -3.81502e-20)
(0.596867 -0.0581988 3.76426e-20)
(0.668937 -0.20823 0)
(0.731465 -0.35489 1.00915e-21)
(0.777759 -0.475473 -2.47939e-20)
(0.802446 -0.551507 2.44254e-20)
(0.806321 -0.580292 0)
(0.794402 -0.574239 0)
(0.772346 -0.549616 -9.43588e-21)
(0.745929 -0.517612 1.70039e-20)
(0.71648 -0.488556 -1.4264e-20)
(0.677147 -0.47411 1.8494e-22)
(0.62334 -0.47105 1.33307e-20)
(0.566951 -0.447322 -1.49946e-20)
(0.533249 -0.36143 1.60056e-20)
(0.538098 -0.202948 1.17364e-22)
(0.576839 -0.00819142 -8.92408e-21)
(0.633123 0.174615 0)
(0.690927 0.310885 0)
(0.741891 0.392214 1.89551e-21)
(0.7828 0.428461 -2.50894e-21)
(0.806287 0.450507 -1.127e-23)
(0.803893 0.484342 2.2987e-21)
(0.778664 0.51658 -2.23401e-21)
(0.750947 0.496126 0)
(0.744014 0.374175 4.13059e-22)
(0.760383 0.174009 4.2292e-21)
(0.795349 -0.0513584 -8.00438e-21)
(0.826431 -0.223367 3.30747e-21)
(0.853637 -0.330903 3.13925e-22)
(0.866355 -0.368303 -2.00265e-21)
(0.857242 -0.380747 1.51835e-21)
(0.818041 -0.388209 2.62481e-22)
(0.76321 -0.360006 2.39614e-22)
(0.731486 -0.293176 -2.72974e-22)
(0.734668 -0.126036 0)
(0.77112 0.0150275 0)
(0.80605 0.182538 -8.09207e-22)
(0.817487 0.286106 3.99025e-22)
(0.793587 0.359446 -3.65198e-22)
(0.772287 0.38565 5.78972e-22)
(0.773119 0.24124 8.16763e-22)
(0.795876 0.161357 -1.71665e-22)
(0.82779 -0.0701359 3.61976e-22)
(0.824758 -0.178713 -2.92702e-22)
(0.813612 -0.276942 1.39799e-22)
(0.811396 -0.384125 0)
(0.790394 -0.122095 0)
(-0.105413 0.15082 -6.73773e-20)
(-0.0879059 0.205406 2.77306e-21)
(-0.0631476 0.259577 6.11019e-20)
(-0.0309416 0.309917 -4.97247e-22)
(0.0116705 0.35291 0)
(0.064186 0.384979 0)
(0.127141 0.401607 -6.00043e-20)
(0.199743 0.398251 -5.27962e-21)
(0.28047 0.371582 9.48217e-20)
(0.366826 0.320185 2.61704e-21)
(0.455389 0.244763 -3.51531e-20)
(0.542229 0.148083 -3.77356e-20)
(0.624199 0.0330698 3.78115e-20)
(0.700151 -0.0981708 0)
(0.769503 -0.240936 -3.51978e-20)
(0.82751 -0.379797 3.21557e-20)
(0.86532 -0.490843 0)
(0.877578 -0.556644 0)
(0.867339 -0.576689 1.5291e-20)
(0.84254 -0.564515 -3.20728e-21)
(0.810064 -0.536743 -1.10071e-20)
(0.775167 -0.503571 -7.59435e-21)
(0.740274 -0.471244 7.53355e-21)
(0.699802 -0.449315 -6.05751e-21)
(0.645606 -0.44094 -5.35868e-23)
(0.582927 -0.424072 5.77424e-21)
(0.535411 -0.358353 8.50253e-22)
(0.52507 -0.222777 1.0242e-22)
(0.553345 -0.0422227 0)
(0.605363 0.136568 6.50804e-21)
(0.664798 0.277045 -6.66064e-21)
(0.721654 0.366207 3.26531e-22)
(0.770172 0.411772 0)
(0.800182 0.444267 -2.64644e-22)
(0.803375 0.488144 4.64282e-21)
(0.78462 0.526541 -9.3711e-21)
(0.76463 0.506348 -2.09551e-21)
(0.765645 0.379943 -1.25997e-21)
(0.787432 0.173601 6.4896e-21)
(0.824773 -0.0559633 9.41838e-22)
(0.853278 -0.229478 -5.78741e-21)
(0.874557 -0.335741 5.01963e-21)
(0.880893 -0.368866 -7.02479e-24)
(0.868932 -0.373464 1.19186e-21)
(0.82872 -0.374918 -1.4221e-21)
(0.771576 -0.34812 -1.59418e-21)
(0.737491 -0.291093 4.74412e-22)
(0.736424 -0.134026 8.49245e-22)
(0.772457 0.00290078 -1.61523e-21)
(0.80464 0.174676 1.16783e-21)
(0.816723 0.286363 -3.86346e-22)
(0.792698 0.364188 3.03326e-22)
(0.771944 0.389088 3.59619e-22)
(0.775505 0.239305 -1.2983e-21)
(0.799816 0.156188 7.86064e-24)
(0.837066 -0.0719156 -4.28835e-22)
(0.833035 -0.177534 0)
(0.821438 -0.274774 -1.36913e-22)
(0.817643 -0.38213 1.22976e-22)
(0.794025 -0.120515 0)
(0.00943726 0.117668 5.72017e-20)
(0.0259341 0.165576 -1.10038e-19)
(0.0513361 0.212098 5.22698e-20)
(0.0851911 0.256343 5.12789e-20)
(0.128945 0.294256 -1.02047e-19)
(0.182515 0.322118 -2.97588e-21)
(0.245807 0.335607 5.26705e-20)
(0.31789 0.330886 6.12194e-20)
(0.396995 0.305215 -5.99902e-20)
(0.480487 0.257404 0)
(0.565085 0.188031 -7.53921e-20)
(0.647377 0.0992638 1.51377e-19)
(0.72532 -0.00703006 -7.59254e-20)
(0.798653 -0.129874 0)
(0.865775 -0.264497 0)
(0.919102 -0.393962 1.03608e-21)
(0.947838 -0.494262 -5.11618e-20)
(0.947684 -0.550172 4.97017e-20)
(0.924329 -0.563592 0)
(0.88819 -0.548235 2.4258e-20)
(0.847266 -0.519621 -4.07466e-20)
(0.805761 -0.487141 3.16424e-20)
(0.766069 -0.45424 -2.58964e-20)
(0.724755 -0.4269 1.05803e-21)
(0.672376 -0.41179 2.02224e-20)
(0.607416 -0.397575 -9.90481e-21)
(0.548744 -0.349568 -3.8191e-22)
(0.522598 -0.238305 -5.69772e-21)
(0.537962 -0.0758196 -6.97129e-23)
(0.583269 0.0965523 5.84133e-21)
(0.642678 0.239646 3.4134e-22)
(0.704006 0.336086 -4.11014e-21)
(0.758984 0.39116 7.91241e-21)
(0.795089 0.434257 -4.26759e-21)
(0.804142 0.488123 0)
(0.792256 0.533097 -6.16927e-21)
(0.779992 0.514834 6.15159e-21)
(0.788626 0.386254 -7.10943e-21)
(0.815583 0.175509 8.84788e-21)
(0.855259 -0.0574787 -1.0247e-21)
(0.881656 -0.23226 0)
(0.897084 -0.33776 -6.4685e-22)
(0.896908 -0.368014 1.36826e-21)
(0.881927 -0.365905 0)
(0.841053 -0.361652 2.30631e-21)
(0.782137 -0.336011 -9.47392e-22)
(0.745989 -0.288837 4.20389e-22)
(0.740428 -0.142204 3.39524e-22)
(0.775657 -0.00962322 0)
(0.804899 0.166222 0)
(0.817717 0.286125 -1.04e-21)
(0.793714 0.36855 1.80348e-21)
(0.773551 0.392622 -1.1863e-21)
(0.779649 0.237411 4.5357e-22)
(0.805336 0.150693 9.22208e-22)
(0.847663 -0.0737386 4.2924e-22)
(0.842506 -0.176112 -6.87924e-22)
(0.830206 -0.272199 0)
(0.824609 -0.379813 -2.17664e-22)
(0.798423 -0.11883 2.55402e-24)
(0.145535 0.0805444 5.06644e-20)
(0.161251 0.123784 -5.02793e-20)
(0.184548 0.165198 3.8844e-22)
(0.216934 0.203588 -3.43011e-22)
(0.258763 0.23644 3.81924e-22)
(0.30984 0.260454 -3.94788e-22)
(0.369797 0.271775 7.85295e-22)
(0.437737 0.267039 0)
(0.511968 0.243832 -9.32198e-22)
(0.590095 0.200888 1.01371e-21)
(0.669333 0.138299 1.08927e-21)
(0.746905 0.0573078 -1.19423e-21)
(0.821564 -0.0405682 0)
(0.893049 -0.15502 0)
(0.957637 -0.280226 1.1022e-21)
(1.00485 -0.398346 0)
(1.02328 -0.486918 -8.46891e-22)
(1.0109 -0.533781 0)
(0.976073 -0.542774 -2.99449e-20)
(0.930681 -0.526884 5.2838e-20)
(0.883262 -0.499465 -4.01294e-20)
(0.837035 -0.468874 1.73705e-20)
(0.793401 -0.437271 1.09719e-20)
(0.751046 -0.407075 -1.06557e-20)
(0.701724 -0.385253 -8.5339e-21)
(0.638451 -0.369632 8.28971e-21)
(0.572692 -0.33498 0)
(0.531143 -0.247994 2.42642e-22)
(0.531442 -0.106893 0)
(0.567716 0.0558032 0)
(0.624912 0.199298 7.25715e-21)
(0.688879 0.302035 -7.47824e-21)
(0.748944 0.366466 3.83776e-22)
(0.790648 0.420044 4.65728e-22)
(0.805684 0.483738 -4.78396e-22)
(0.800866 0.535898 -5.54156e-21)
(0.796216 0.521449 5.38058e-21)
(0.812038 0.393132 -9.20177e-21)
(0.843955 0.179906 8.01036e-21)
(0.886063 -0.0558662 2.08839e-21)
(0.910999 -0.231766 -6.24029e-21)
(0.920841 -0.336941 8.27937e-22)
(0.914131 -0.365735 3.50176e-21)
(0.895964 -0.358177 0)
(0.854689 -0.348538 -9.27748e-22)
(0.794446 -0.323684 1.05834e-21)
(0.756511 -0.286233 -1.41455e-21)
(0.746281 -0.150379 -3.41677e-22)
(0.7804 -0.0224993 0)
(0.806643 0.157082 3.34678e-22)
(0.820357 0.285248 -5.76244e-22)