/*--------------------------------*- C++ -*----------------------------------*\
| =========                 |                                                 |
| \\      /  F ield         | OpenFOAM: The Open Source CFD Toolbox           |
|  \\    /   O peration     | Version:  2512                                  |
|   \\  /    A nd           | Website:  www.openfoam.com                      |
|    \\/     M anipulation  |                                                 |
\*---------------------------------------------------------------------------*/
FoamFile
{
    version     2.0;
    format      ascii;
    arch        "LSB;label=32;scalar=64";
    class       surfaceScalarField;
    location    "187";
    object      phi;
}
// * * * * * * * * * * * * * * * * * * * * * * * * * * * * * * * * * * * * * //

dimensions      [0 3 -1 0 0 0 0];

oriented        oriented;

internalField   nonuniform List<scalar> 
26232
(
0.000179302
0.000854113
-0.00103342
0.000789877
0.00128305
-0.00189363
0.00193819
0.00058041
-0.00172872
0.00375071
-0.00118181
-0.000630712
0.00636775
-0.00395082
0.00133377
0.00993148
-0.0076849
0.00412117
0.0145685
-0.0123403
0.00770324
0.0203688
-0.0178539
0.0120537
0.0273642
-0.0241278
0.0171324
0.0355114
-0.031019
0.0228718
0.0446844
-0.0383412
0.0291682
0.0546781
-0.0458746
0.035881
0.0652252
-0.0533858
0.0428386
0.0760234
-0.0606495
0.0498514
0.0867666
-0.0674705
0.0567273
0.0971776
-0.0737007
0.0632897
0.107035
-0.0792496
0.0693917
0.116194
-0.0840864
0.0749284
0.124588
-0.0882344
0.0798398
0.132235
-0.0917653
0.0841188
0.139208
-0.0947625
0.0877894
0.145635
-0.0973761
0.0909486
0.151527
-0.0995745
0.0936828
-0.101751
0.0963361
0.156942
0.000217471
0.000636642
0.000998672
0.00050185
0.0024884
-0.000909322
0.00483873
-0.00353213
0.00820264
-0.00731473
0.0127155
-0.0121978
0.0184692
-0.018094
0.0254845
-0.0248692
0.0336897
-0.0323329
0.0429121
-0.0402415
0.0528876
-0.0483166
0.0632866
-0.0562736
0.0737527
-0.063852
0.0839455
-0.0708423
0.0935797
-0.0771047
0.102454
-0.0825755
0.110469
-0.0872638
0.117621
-0.0912385
0.123996
-0.0946094
0.129739
-0.0975086
0.135042
-0.100065
0.140089
-0.102423
0.145121
-0.104607
-0.106977
0.150347
0.000270291
0.000366351
0.00125752
-0.000485376
0.00314211
-0.00279391
0.00609579
-0.00648581
0.0102684
-0.0114873
0.0157587
-0.0176881
0.0225807
-0.024916
0.0306371
-0.0329256
0.0397102
-0.041406
0.0494779
-0.0500092
0.0595523
-0.058391
0.0695314
-0.0662527
0.0790536
-0.0733742
0.0878428
-0.0796314
0.095735
-0.0849969
0.102686
-0.0895266
0.108759
-0.0933364
0.114096
-0.0965754
0.118886
-0.0993995
0.123331
-0.101954
0.127621
-0.104355
0.131904
-0.106707
0.136325
-0.109027
-0.111541
0.140888
0.000346136
2.02143e-05
0.00158892
-0.00172816
0.00393198
-0.00513697
0.00754848
-0.0101023
0.0125544
-0.0164932
0.0189685
-0.0241022
0.0266786
-0.0326261
0.0354308
-0.0416778
0.0448517
-0.0508269
0.0545003
-0.0596578
0.0639356
-0.0678263
0.0727828
-0.0750999
0.0807811
-0.0813726
0.0878067
-0.086657
0.0938674
-0.0910577
0.0990764
-0.0947356
0.103613
-0.0978727
0.107681
-0.100643
0.111476
-0.103195
0.115163
-0.105641
0.118869
-0.108062
0.122681
-0.110518
0.126669
-0.113014
-0.115711
0.130839
0.000447244
-0.00042703
0.00199566
-0.00327658
0.00484993
-0.00799124
0.00915394
-0.0144063
0.0149472
-0.0222864
0.0221205
-0.0312756
0.0303993
-0.0409048
0.0393682
-0.0506468
0.0485376
-0.0599963
0.057428
-0.0685482
0.065649
-0.0760473
0.0729512
-0.082402
0.079242
-0.0876634
0.0845684
-0.0919834
0.0890769
-0.0955662
0.0929654
-0.0986241
0.0964391
-0.101346
0.0996799
-0.103884
0.102832
-0.106346
0.105997
-0.108806
0.109245
-0.11131
0.112615
-0.113888
0.116142
-0.116542
-0.119372
0.119803
0.000570775
-0.000997804
0.00246283
-0.00516864
0.00585125
-0.0113797
0.01081
-0.019365
0.017255
-0.0287314
0.0249122
-0.0389329
0.0333394
-0.049332
0.0420019
-0.0593093
0.0503771
-0.0683715
0.0580492
-0.0762203
0.0647669
-0.082765
0.0704544
-0.0880895
0.0751827
-0.0923917
0.0791184
-0.0959191
0.0824679
-0.0989158
0.0854333
-0.101589
0.0881843
-0.104097
0.0908492
-0.106549
0.0935163
-0.109013
0.096243
-0.111533
0.0990645
-0.114132
0.102
-0.116824
0.105069
-0.119611
-0.122548
0.108245
0.000710429
-0.00170823
0.00296297
-0.00742118
0.00686583
-0.0152825
0.0123782
-0.0248774
0.0192533
-0.0356065
0.0270423
-0.0467219
0.0351728
-0.0574625
0.0430712
-0.0672077
0.0502798
-0.0755801
0.0565257
-0.0824661
0.061731
-0.0879703
0.0659756
-0.0923341
0.0694358
-0.0958519
0.0723227
-0.0988059
0.0748354
-0.101429
0.0771365
-0.10389
0.0793443
-0.106305
0.0815386
-0.108743
0.0837696
-0.111244
0.0860677
-0.113831
0.0884506
-0.116514
0.0909273
-0.1193
0.093506
-0.122189
-0.125205
0.0961633
0.000857938
-0.00256617
0.0034613
-0.0100245
0.007811
-0.0196322
0.0137111
-0.0307775
0.0207343
-0.0426297
0.0282839
-0.0542715
0.0357297
-0.0649082
0.0425514
-0.0740294
0.0484293
-0.081458
0.0532608
-0.0872977
0.0571192
-0.0918286
0.0601824
-0.0953973
0.0626646
-0.0983342
0.0647658
-0.100907
0.066646
-0.103309
0.0684195
-0.105664
0.0701613
-0.108047
0.0719178
-0.1105
0.0737165
-0.113043
0.0755738
-0.115688
0.0774989
-0.11844
0.0794965
-0.121298
0.0815706
-0.124264
-0.127339
0.0837044
0.00100379
-0.00356997
0.00391978
-0.0129405
0.00860337
-0.0243158
0.0146777
-0.0368519
0.0215471
-0.0494991
0.0285267
-0.0612511
0.035014
-0.0713955
0.0406127
-0.0796281
0.0451685
-0.0860138
0.0487289
-0.0908581
0.0514651
-0.0945649
0.0535937
-0.0975259
0.0553187
-0.100059
0.0568031
-0.102392
0.058162
-0.104668
0.0594691
-0.106971
0.0607693
-0.109347
0.0620887
-0.111819
0.0634425
-0.114397
0.0648402
-0.117086
0.0662868
-0.119886
0.0677854
-0.122797
0.0693369
-0.125815
-0.128933
0.0709309
0.00113754
-0.0047075
0.00430055
-0.0161035
0.00916934
-0.0291846
0.0151827
-0.0428652
0.0216187
-0.0559352
0.0277807
-0.0674131
0.0331646
-0.0767794
0.037531
-0.0839945
0.0408771
-0.0893598
0.0433546
-0.0933356
0.0451792
-0.0963895
0.0465624
-0.0989091
0.047675
-0.101172
0.0486375
-0.103354
0.0495265
-0.105556
0.0503872
-0.107832
0.0512457
-0.110206
0.0521169
-0.11269
0.05301
-0.11529
0.0539306
-0.118006
0.0548821
-0.120838
0.055866
-0.123781
0.0568822
-0.126831
-0.129977
0.0579262
0.00124899
-0.00595649
0.00457088
-0.0194254
0.00945526
-0.034069
0.0151781
-0.048588
0.0209546
-0.0617117
0.0261474
-0.0726059
0.030393
-0.081025
0.0336049
-0.0872064
0.0358946
-0.0916496
0.0374695
-0.0949105
0.038549
-0.097469
0.0393162
-0.0996763
0.0399022
-0.101758
0.0403901
-0.103842
0.0408287
-0.105995
0.0412449
-0.108248
0.0416538
-0.110615
0.0420648
-0.113101
0.0424837
-0.115709
0.0429142
-0.118437
0.0433584
-0.121282
0.0438167
-0.124239
0.0442878
-0.127302
-0.13046
0.0447707
0.0013321
-0.00728859
0.00470995
-0.0228033
0.00943488
-0.0387939
0.0146656
-0.0538188
0.0196241
-0.0666702
0.0237847
-0.0767666
0.026934
-0.0841743
0.0291112
-0.0893835
0.0304985
-0.0930369
0.0313193
-0.0957313
0.0317723
-0.0979219
0.0320041
-0.0999081
0.0321093
-0.101863
0.032143
-0.103876
0.032135
-0.105987
0.0321013
-0.108214
0.0320512
-0.110565
0.0319907
-0.113041
0.0319241
-0.115642
0.0318544
-0.118367
0.0317832
-0.121211
0.0317106
-0.124166
0.031634
-0.127226
0.0315552
-0.130381
-0.000288626
-0.000840734
0.00112936
-0.00099868
-0.00265165
0.00336171
-0.00204478
-0.0044964
0.0055425
-0.00336629
-0.00626347
0.00758499
-0.004914
-0.00790037
0.00944807
-0.00664449
-0.00941194
0.0111424
-0.00851812
-0.0108413
0.012715
-0.0104986
-0.0122477
0.0142282
-0.0125531
-0.0136877
0.0157422
-0.0146517
-0.0152029
0.0173015
-0.0167659
-0.0168153
0.0189296
-0.0188671
-0.0185271
0.0206283
-0.020924
-0.0203226
0.0223794
-0.0229003
-0.0221712
0.0241475
-0.0247537
-0.0240283
0.0258817
-0.0264344
-0.0258354
0.0275162
-0.0278849
-0.0275198
0.0289704
-0.0290408
-0.0289936
0.0301495
-0.0298329
-0.030154
0.030946
-0.03019
-0.0308858
0.0312429
-0.0300419
-0.0310678
0.0309197
-0.029327
-0.0305736
0.0298587
-0.028015
-0.0292607
0.0279487
-0.0270175
-0.0261371
0.0251396
-0.000358533
-0.000482201
-0.00122778
-0.00178241
-0.00249075
-0.00323343
-0.00406475
-0.00468947
-0.00588638
-0.00607874
-0.00790545
-0.00739287
-0.0100818
-0.00866502
-0.012383
-0.00994647
-0.0147831
-0.0112876
-0.01726
-0.0127261
-0.0197933
-0.014282
-0.0223621
-0.0159582
-0.0249426
-0.0177421
-0.0275063
-0.0196076
-0.0300183
-0.0215163
-0.0324368
-0.023417
-0.0347119
-0.0252447
-0.0367863
-0.0269193
-0.0385964
-0.0283438
-0.0400765
-0.0294057
-0.0411632
-0.0299811
-0.0417987
-0.0299381
-0.0419384
-0.029121
-0.0273757
-0.0415802
-0.000397373
-8.48274e-05
-0.00135553
-0.000824258
-0.00273687
-0.00185208
-0.0044424
-0.00298394
-0.0063974
-0.00412374
-0.00854551
-0.00524476
-0.0108447
-0.00636579
-0.0132641
-0.00752711
-0.0157804
-0.00877135
-0.0183748
-0.0101316
-0.0210303
-0.0116265
-0.0237289
-0.0132597
-0.0264496
-0.0150213
-0.0291675
-0.0168897
-0.031852
-0.0188317
-0.0344663
-0.0208026
-0.0369663
-0.0227447
-0.0392999
-0.0245857
-0.041407
-0.0262366
-0.0432237
-0.027589
-0.0446896
-0.0285153
-0.04575
-0.0288776
-0.0463434
-0.0285276
-0.0272634
-0.0464556
-0.000399521
0.000314693
-0.00136575
0.000141971
-0.0027551
-0.000462728
-0.00445948
-0.00127956
-0.0063961
-0.00218712
-0.00850241
-0.00313845
-0.0107325
-0.00413573
-0.0130528
-0.0052068
-0.0154382
-0.00638598
-0.0178679
-0.00770188
-0.0203225
-0.00917187
-0.0227815
-0.0108007
-0.0252216
-0.0125812
-0.0276164
-0.0144949
-0.0299354
-0.0165128
-0.0321433
-0.0185947
-0.0341992
-0.0206888
-0.0360541
-0.0227308
-0.0376489
-0.0246419
-0.0389137
-0.0263243
-0.0397752
-0.0276537
-0.0401678
-0.028485
-0.040011
-0.0286845
-0.0280028
-0.0392715
-0.000364933
0.000679626
-0.00125865
0.00103569
-0.0025452
0.000823822
-0.00411553
0.000290764
-0.00588201
-0.000420643
-0.00777521
-0.00124524
-0.00974256
-0.00216838
-0.0117435
-0.00320585
-0.0137456
-0.00438387
-0.0157204
-0.00572707
-0.0176404
-0.00725194
-0.0194767
-0.00896442
-0.0211985
-0.0108594
-0.0227729
-0.0129205
-0.0241652
-0.0151204
-0.0253394
-0.0174205
-0.0262574
-0.0197709
-0.0268773
-0.0221108
-0.0271503
-0.0243689
-0.0270128
-0.0264618
-0.0263819
-0.0282846
-0.0251749
-0.029692
-0.0233396
-0.0305198
-0.0308261
-0.0205163
-0.00029935
0.000978976
-0.00104888
0.00178522
-0.00213319
0.00190813
-0.00344881
0.00160639
-0.00490439
0.00103493
-0.00642338
0.000273743
-0.00794424
-0.000647514
-0.00941464
-0.00173545
-0.0107894
-0.00300906
-0.0120269
-0.00448966
-0.0130856
-0.00619324
-0.0139232
-0.00812675
-0.0144963
-0.0102862
-0.014761
-0.0126558
-0.0146745
-0.015207
-0.0141965
-0.0178984
-0.0132903
-0.0206772
-0.0119234
-0.0234778
-0.0100657
-0.0262266
-0.00768495
-0.0288425
-0.00472944
-0.0312401
-0.00108893
-0.0333325
0.00335409
-0.0349628
-0.0357279
0.00825585
-0.0002127
0.00119168
-0.000765438
0.00233796
-0.00156947
0.00271216
-0.00253028
0.00256719
-0.00355612
0.00206078
-0.00456379
0.0012814
-0.00547581
0.000264506
-0.00622852
-0.000982741
-0.0067587
-0.00247887
-0.00700723
-0.00424113
-0.00691548
-0.00628499
-0.00642506
-0.00861717
-0.00547822
-0.0112331
-0.00402002
-0.014114
-0.00200053
-0.0172265
0.000622893
-0.0205219
0.00388255
-0.0239368
0.00780218
-0.0273974
0.0123954
-0.0308198
0.0176704
-0.0341175
0.0236349
-0.0372046
0.0303178
-0.0400154
0.0376696
-0.0423146
-0.0445183
0.04646
-0.000117742
0.00130942
-0.000445134
0.00266535
-0.000919601
0.00318663
-0.00145675
0.00310434
-0.00196453
0.00256856
-0.00235106
0.00166793
-0.00252914
0.000442592
-0.00241339
-0.00109849
-0.0019248
-0.00296747
-0.000985709
-0.00518022
0.000479037
-0.00774973
0.00254138
-0.0106795
0.00526687
-0.0139586
0.00871222
-0.0175594
0.0129217
-0.021436
0.0179245
-0.0255246
0.0237336
-0.0297459
0.0303452
-0.034009
0.0377423
-0.0382169
0.0458986
-0.0422738
0.0547764
-0.0460824
0.0643717
-0.0496107
0.074615
-0.0525579
-0.0558856
0.0859823
-2.72613e-05
0.00133668
-0.000125828
0.00276392
-0.000252321
0.00331312
-0.000329886
0.00318191
-0.000265373
0.00250405
4.11511e-05
0.00136141
0.000690709
-0.000206967
0.00178413
-0.00219192
0.00341793
-0.00460127
0.00568448
-0.00744677
0.00866901
-0.0107343
0.0124457
-0.0144562
0.0170732
-0.0185861
0.0225899
-0.0230761
0.02901
-0.0278561
0.0363219
-0.0328364
0.0444884
-0.0379124
0.0534508
-0.0429714
0.0631345
-0.0479006
0.0734566
-0.0525959
0.0843368
-0.0569626
0.0957085
-0.0609824
0.107497
-0.0643461
-0.0682048
0.119816
4.89507e-05
0.00128773
0.000162175
0.00265069
0.000376251
0.00309904
0.000766232
0.00279193
0.00142899
0.00184129
0.00247341
0.000316996
0.0040135
-0.00174706
0.00616319
-0.0043416
0.00903108
-0.00746916
0.0127151
-0.0111308
0.0172961
-0.0153153
0.0228306
-0.0199906
0.0293441
-0.0250996
0.0368263
-0.0305583
0.0452288
-0.0362586
0.0544674
-0.0420751
0.0644281
-0.0478731
0.0749762
-0.0535196
0.085969
-0.0588934
0.0972654
-0.0638923
0.108746
-0.0684428
0.120286
-0.0725228
0.131894
-0.0759545
-0.0796353
0.143325
0.000106387
0.00118134
0.000404239
0.00235284
0.000937964
0.00256532
0.0017889
0.001941
0.00306196
0.000568224
0.00487663
-0.00149767
0.00735772
-0.00422815
0.0106269
-0.00761083
0.0147931
-0.0116353
0.0199412
-0.016279
0.0261224
-0.0214964
0.0333434
-0.0272117
0.0415615
-0.0333177
0.0506824
-0.0396792
0.0605658
-0.046142
0.0710352
-0.0525444
0.0818932
-0.0587311
0.092939
-0.0645655
0.103985
-0.0699398
0.114877
-0.074784
0.1255
-0.079066
0.135769
-0.0827912
0.145745
-0.0859308
-0.0888276
0.154937
0.000147927
0.000607141
0.00144374
0.00275402
0.00465602
0.00727951
0.0107546
0.0151975
0.0206946
0.0272873
0.0349592
0.0436284
0.0531494
0.0633215
0.0739069
0.0846521
0.0953128
0.105676
0.115576
0.12491
0.133634
0.141791
0.149543
0.157052
-0.0211066
-0.033146
0.0281155
-0.0152001
-0.0243819
0.0184754
-0.00839678
-0.0127442
0.00594084
-0.00092072
0.00152888
-0.00900493
0.00724484
0.0183114
-0.0264769
0.0158129
0.0370487
-0.0456167
0.0243286
0.0571213
-0.065637
0.0325034
0.0769916
-0.0851664
0.0399822
0.0953535
-0.102832
0.0460994
0.111445
-0.117562
0.0502525
0.124877
-0.12903
0.0522832
0.135693
-0.137723
0.0529658
0.143733
-0.144416
0.0541521
0.147531
-0.148717
0.0580762
0.14385
-0.147774
0.0660364
0.128906
-0.136866
0.0775923
0.100608
-0.112164
0.0911032
0.0597138
-0.0732248
0.105088
0.00910612
-0.0230909
0.118431
-0.0455373
0.0321942
0.130014
-0.0963908
0.0848075
0.138802
-0.135391
0.126604
0.144185
-0.159323
0.15394
0.146397
-0.170534
0.168322
0.146345
-0.173496
0.173548
0.144434
-0.172276
0.174187
0.139933
-0.172466
0.176967
0.132541
-0.17875
0.186142
0.124383
-0.186563
0.194721
0.119337
-0.178239
0.183284
0.12005
-0.136598
0.135885
0.12624
-0.0624084
0.0562181
0.13533
0.0251474
-0.0342366
0.144486
0.102663
-0.111819
0.151912
0.157575
-0.165002
0.156765
0.18684
-0.191693
0.157884
0.204298
-0.205418
0.154257
0.221458
-0.217831
0.146967
0.242654
-0.235365
0.139531
0.241735
-0.234298
0.135786
0.19679
-0.193045
0.137106
0.104291
-0.105611
0.142398
-0.0122145
0.00692214
0.14924
-0.108601
0.101759
0.154092
-0.181725
0.176874
0.153659
-0.212616
0.213049
0.147828
-0.249596
0.255427
0.140423
-0.253101
0.260506
0.136838
-0.22766
0.231245
0.139265
-0.144723
0.142296
0.144948
-0.0117407
0.00605771
0.148569
0.0768885
-0.0805088
0.147371
0.216067
-0.214868
0.143936
0.251421
-0.247987
0.142251
0.303636
-0.301951
0.142876
0.246828
-0.247453
0.143897
0.0827222
-0.0837435
0.143643
0.0197104
-0.019456
0.14169
-0.261199
0.263152
-0.243253
0.245084
-0.0378219
-0.0369044
-0.0327476
-0.0294562
-0.0264022
-0.0190895
-0.0188963
-0.00597706
-0.0104245
0.00983961
-0.0012952
0.0279194
0.0088398
0.0469863
0.0185093
0.0673221
0.0276082
0.0862546
0.0355589
0.103494
0.0420631
0.118373
0.0473425
0.130413
0.0523873
0.138689
0.0587401
0.141178
0.0676982
0.134892
0.0794196
0.117185
0.0927466
0.0872806
0.106211
0.0462491
0.11874
-0.00342299
0.12979
-0.0565865
0.138578
-0.105179
0.144454
-0.141267
0.147206
-0.162075
0.147229
-0.170557
0.145455
-0.171722
0.142409
-0.16923
0.137283
-0.167339
0.129278
-0.170745
0.120095
-0.177379
0.113912
-0.172056
0.114107
-0.136793
0.120722
-0.0690235
0.131017
0.0148525
0.141807
0.0918728
0.151006
0.148376
0.15742
0.180427
0.159713
0.202005
0.157053
0.224118
0.150708
0.249
0.143959
0.248483
0.140264
0.200485
0.14078
0.103776
0.144681
-0.0161154
0.150071
-0.11399
0.153961
-0.185616
0.153072
-0.211728
0.14698
-0.243503
0.139477
-0.245598
0.135948
-0.224131
0.138719
-0.147494
0.144593
-0.0176144
0.148391
0.0730905
0.147375
0.217082
0.144023
0.254774
0.142466
0.305193
0.143242
0.246052
0.144591
0.0813727
0.144492
0.0198092
0.142507
-0.259214
-0.241421
-0.0445094
-0.0388506
-0.0410574
-0.0329082
-0.0361049
-0.024042
-0.0295485
-0.0125335
-0.0214902
0.00178134
-0.0122616
0.0186908
-0.0024201
0.0371447
0.00843498
0.056467
0.0191643
0.0755253
0.0294034
0.0932551
0.0389353
0.108841
0.0480498
0.121299
0.0575562
0.129182
0.0684103
0.130324
0.0810638
0.122239
0.0949469
0.103302
0.108726
0.0735014
0.121229
0.033746
0.131843
-0.014037
0.140393
-0.065136
0.146342
-0.111128
0.149358
-0.144284
0.149621
-0.162338
0.147698
-0.168633
0.144449
-0.168473
0.140468
-0.165249
0.135011
-0.161881
0.126817
-0.162552
0.116921
-0.167483
0.109546
-0.164681
0.108881
-0.136128
0.115483
-0.0756253
0.12669
0.00364555
0.138939
0.0796239
0.149849
0.137466
0.157842
0.172434
0.161447
0.1984
0.159986
0.22558
0.15477
0.254216
0.148746
0.254507
0.145008
0.204223
0.144627
0.104156
0.147057
-0.0185451
0.150916
-0.11785
0.15382
-0.18852
0.152561
-0.210469
0.146317
-0.237259
0.138756
-0.238038
0.135234
-0.220609
0.13827
-0.150531
0.144304
-0.0236483
0.148323
0.0690722
0.147508
0.217897
0.144202
0.25808
0.142757
0.306638
0.143722
0.245086
0.145435
0.0796602
0.14551
0.0197336
0.143483
-0.257187
-0.239585
-0.0392355
-0.0388866
-0.037791
-0.0343527
-0.0347515
-0.0270815
-0.0300105
-0.0172744
-0.0232437
-0.00498547
-0.0148958
0.0103429
-0.00528058
0.0275295
0.00556027
0.0456262
0.0174889
0.0635967
0.029734
0.0810099
0.0420326
0.0965424
0.0545202
0.108811
0.0676006
0.116102
0.0816131
0.116312
0.0963896
0.107462
0.111033
0.0886586
0.124265
0.0602691
0.13522
0.0227914
0.14382
-0.0226374
0.14993
-0.0712464
0.153178
-0.114376
0.153491
-0.144597
0.151435
-0.160281
0.147794
-0.164993
0.143302
-0.16398
0.138527
-0.160474
0.132925
-0.156279
0.124967
-0.154594
0.114836
-0.157352
0.106361
-0.156206
0.10444
-0.134207
0.110557
-0.0817425
0.122311
-0.00810769
0.135822
0.066113
0.148355
0.124933
0.157936
0.162853
0.162994
0.193342
0.162948
0.225626
0.159013
0.25815
0.153731
0.259789
0.149889
0.208065
0.148535
0.105511
0.149473
-0.0194839
0.15176
-0.120136
0.153651
-0.190411
0.152083
-0.2089
0.145778
-0.230954
0.138195
-0.230454
0.134629
-0.217043
0.137854
-0.153756
0.144051
-0.0298453
0.148347
0.064776
0.147767
0.218477
0.144487
0.26136
0.143138
0.307988
0.14432
0.243903
0.146427
0.0775537
0.146692
0.0194687
0.144611
-0.255106
-0.237745
-0.0223471
-0.0370559
-0.0229648
-0.033735
-0.0219655
-0.0280809
-0.0192094
-0.0200305
-0.0145991
-0.00959577
-0.00777479
0.00351861
0.000739878
0.0190148
0.0117635
0.0346026
0.0239774
0.0513828
0.0372026
0.0677847
0.0511559
0.0825891
0.0657255
0.0942415
0.080887
0.10094
0.0964719
0.100727
0.111921
0.0920132
0.126229
0.0743507
0.138342
0.0481561
0.14774
0.0133934
0.154421
-0.0293188
0.158232
-0.0750568
0.158897
-0.115041
0.156671
-0.142371
0.152511
-0.156121
0.147403
-0.159885
0.141938
-0.158515
0.136542
-0.155078
0.130909
-0.150647
0.123499
-0.147184
0.113657
-0.14751
0.104391
-0.14694
0.100989
-0.130806
0.10612
-0.0868735
0.117868
-0.0198553
0.132404
0.0515771
0.146412
0.110924
0.157566
0.151699
0.164205
0.186703
0.165771
0.22406
0.163263
0.260658
0.158747
0.264306
0.154749
0.212063
0.152393
0.107867
0.151867
-0.0189578
0.152572
-0.120842
0.153425
-0.191264
0.151597
-0.207072
0.145314
-0.224671
0.137733
-0.222873
0.134069
-0.21338
0.137413
-0.157099
0.143793
-0.0362257
0.14844
0.0601286
0.148146
0.218771
0.14489
0.264616
0.143621
0.309257
0.145039
0.242486
0.147559
0.0750329
0.148031
0.0189973
0.145885
-0.252961
-0.235898
0.0045553
-0.0333553
0.00133031
-0.03051
-0.000101895
-0.0266487
0.000612687
-0.0207451
0.00363257
-0.0126157
0.00935562
-0.00220444
0.0170379
0.0113326
0.0263623
0.0252781
0.0377026
0.0400425
0.0506505
0.0548368
0.0648606
0.0683791
0.0799976
0.0791044
0.095683
0.0852551
0.111385
0.0850248
0.126332
0.077066
0.139564
0.0611186
0.150304
0.0374166
0.158242
0.00545529
0.163272
-0.0343492
0.164987
-0.0767718
0.163258
-0.113312
0.158754
-0.137868
0.152774
-0.15014
0.146457
-0.153568
0.140274
-0.152332
0.134428
-0.149232
0.128812
-0.145031
0.122132
-0.140504
0.113082
-0.13846
0.10353
-0.137388
0.0986346
-0.12591
0.102272
-0.090511
0.113505
-0.0310884
0.128652
0.03643
0.143903
0.0956732
0.156572
0.13903
0.164895
0.17838
0.168247
0.220709
0.167307
0.261597
0.1636
0.268013
0.159422
0.21624
0.15609
0.111199
0.154162
-0.0170303
0.153312
-0.119991
0.153105
-0.191058
0.151055
-0.205022
0.144869
-0.218486
0.137311
-0.215315
0.133488
-0.209557
0.136883
-0.160494
0.14348
-0.0428229
0.148567
0.055042
0.148634
0.218704
0.14542
0.267829
0.144218
0.31046
0.145875
0.240829
0.148825
0.0720821
0.14952
0.0183028
0.147294
-0.250735
-0.23404
0.0411024
-0.0279977
0.0365978
-0.0260054
0.0331809
-0.0232318
0.0314056
-0.0189698
0.0316152
-0.0128252
0.0341064
-0.00469567
0.0392108
0.00622814
0.0464966
0.0179924
0.0560957
0.0304434
0.0677218
0.0432107
0.0809963
0.0551046
0.0954312
0.0646695
0.110412
0.0702744
0.125185
0.0702512
0.138894
0.0633578
0.150697
0.0493152
0.160011
0.0281026
0.166728
-0.00126157
0.170214
-0.0378357
0.169983
-0.0765403
0.166084
-0.109413
0.159619
-0.131403
0.152152
-0.142673
0.144891
-0.146307
0.138224
-0.145666
0.132115
-0.143123
0.126527
-0.139443
0.120595
-0.134571
0.112713
-0.130578
0.103497
-0.128173
0.0973881
-0.119801
0.0991868
-0.0923097
0.10931
-0.041212
0.124558
0.0211822
0.140729
0.079502
0.154799
0.124961
0.164862
0.168317
0.170152
0.215418
0.170931
0.260818
0.168111
0.270833
0.16376
0.220592
0.159502
0.115457
0.156279
-0.0138065
0.153934
-0.117647
0.152653
-0.189777
0.150406
-0.202775
0.144391
-0.212471
0.13688
-0.207804
0.132834
-0.20551
0.136205
-0.163865
0.143058
-0.049676
0.148684
0.0494163
0.149212
0.218176
0.146082
0.270959
0.144936
0.311607
0.146827
0.238937
0.150215
0.0686938
0.151148
0.0173704
0.148826
-0.248414
-0.232172
0.0798336
-0.021849
0.0743136
-0.0204854
0.069499
-0.0184171
0.0657652
-0.0152361
0.0635795
-0.0106395
0.063318
-0.00443408
0.0654892
0.00405692
0.0700455
0.0134361
0.0771139
0.023375
0.0865212
0.0338033
0.0978941
0.0437317
0.110667
0.0518969
0.124099
0.0568426
0.137325
0.0570252
0.14946
0.0512226
0.159769
0.0390058
0.167794
0.020078
0.173222
-0.00668973
0.175199
-0.0398128
0.173084
-0.0744258
0.167251
-0.10358
0.159188
-0.12334
0.150607
-0.134092
0.142675
-0.138374
0.135718
-0.13871
0.12952
-0.136924
0.123984
-0.133907
0.118688
-0.129275
0.112136
-0.124026
0.103858
-0.119895
0.0970818
-0.113025
0.0969636
-0.0921914
0.105433
-0.0496811
0.12017
0.00644462
0.136839
0.0628333
0.152123
0.109677
0.163921
0.156518
0.171242
0.208097
0.173864
0.258196
0.172052
0.272646
0.167618
0.225025
0.162505
0.12057
0.158131
-0.00943167
0.154385
-0.113901
0.152024
-0.187416
0.149595
-0.200346
0.143828
-0.206704
0.136397
-0.200373
0.132062
-0.201175
0.135326
-0.16713
0.142469
-0.0568188
0.14874
0.0431451
0.149855
0.217061
0.146875
0.273939
0.145779
0.312703
0.147895
0.236821
0.151719
0.0648703
0.152901
0.0161885
0.150467
-0.24598
-0.230295
0.113822
-0.0158553
0.108304
-0.0149677
0.1033
-0.0134128
0.0989757
-0.0109117
0.0956793
-0.00734309
0.0939047
-0.00265947
0.0937754
0.00418618
0.0957001
0.0115114
0.0999692
0.0191059
0.106589
0.0271833
0.115321
0.0350003
0.125669
0.0415485
0.136906
0.0456059
0.148145
0.0457854
0.158495
0.0408727
0.167244
0.0302575
0.173868
0.0134533
0.177841
-0.0106628
0.178117
-0.0400888
0.174138
-0.0704464
0.166639
-0.0960811
0.157377
-0.114077
0.148066
-0.124782
0.139729
-0.130037
0.132636
-0.131616
0.126493
-0.130782
0.121072
-0.128486
0.116259
-0.124462
0.110981
-0.118747
0.104085
-0.112999
0.0973462
-0.106286
0.0955774
-0.0904227
0.101993
-0.0560967
0.11559
-0.0071519
0.132241
0.0461822
0.148453
0.0934644
0.161904
0.143068
0.171341
0.19866
0.17596
0.253577
0.175271
0.273335
0.170844
0.229452
0.164994
0.12642
0.159627
-0.004064
0.1546
-0.108874
0.151163
-0.18398
0.148555
-0.197737
0.143125
-0.201274
0.135828
-0.193076
0.13114
-0.196488
0.134202
-0.170191
0.141656
-0.0642735
0.148678
0.0361238
0.150531
0.215208
0.147791
0.276678
0.146749
0.313745
0.149071
0.234499
0.153326
0.0606149
0.154763
0.0147523
0.152202
-0.243419
-0.228416
0.138164
-0.0106939
0.133423
-0.0102267
0.129081
-0.0090711
0.125312
-0.00714305
0.122276
-0.00430701
0.120306
-0.000689241
0.119441
0.00505091
0.120131
0.0108219
0.1225
0.0167362
0.126767
0.0229162
0.132875
0.0288928
0.140525
0.0338989
0.149176
0.0369548
0.15806
0.0369014
0.166319
0.0326131
0.17325
0.0233265
0.178245
0.00845917
0.180422
-0.0128403
0.178758
-0.038425
0.172988
-0.0646764
0.164166
-0.0872586
0.154122
-0.104033
0.144437
-0.115096
0.135933
-0.121534
0.128823
-0.124506
0.122843
-0.124801
0.117634
-0.123277
0.113192
-0.12002
0.10898
-0.114536
0.103668
-0.107687
0.0976498
-0.100268
0.0947814
-0.0875542
0.0991048
-0.0604202
0.110905
-0.0189516
0.127005
0.0300817
0.143772
0.0766976
0.15869
0.128149
0.170177
0.187173
0.17686
0.246895
0.177492
0.272702
0.173252
0.233692
0.166892
0.132779
0.160691
0.00213742
0.154539
-0.102722
0.150042
-0.179483
0.147231
-0.194926
0.142232
-0.196275
0.135155
-0.185999
0.130065
-0.191397
0.132798
-0.172924
0.140569
-0.0720442
0.148434
0.0282588
0.151198
0.212445
0.148814
0.279062
0.147842
0.314716
0.150348
0.231994
0.155029
0.0559331
0.156711
0.0130709
0.154019
-0.240728
-0.226542
0.15086
-0.00661646
0.147079
-0.00644569
0.14363
-0.00562269
0.140822
-0.00433482
0.138877
-0.00236192
0.137669
0.000519309
0.137531
0.00518836
0.138295
0.0100577
0.140075
0.0149565
0.143239
0.019752
0.147744
0.0243878
0.153411
0.0282324
0.159837
0.0305289
0.166459
0.0302789
0.172578
0.0264945
0.177486
0.0184185
0.180264
0.00568138
0.180606
-0.0131832
0.177078
-0.0348964
0.16988
-0.0574782
0.160247
-0.077626
0.149904
-0.0936907
0.140189
-0.105381
0.13173
-0.113075
0.124681
-0.117456
0.118876
-0.118997
0.113921
-0.118322
0.109746
-0.115845
0.106271
-0.11106
0.102436
-0.103853
0.0976125
-0.0954437
0.0943024
-0.0842441
0.0966505
-0.0627683
0.106355
-0.028656
0.121253
0.0151835
0.138083
0.0598681
0.154273
0.111959
0.167892
0.173555
0.176823
0.237963
0.178831
0.270694
0.174832
0.237692
0.168251
0.13936
0.161316
0.00907233
0.154279
-0.0956857
0.148765
-0.173968
0.14568
-0.191841
0.141171
-0.191766
0.134397
-0.179225
0.128887
-0.185887
0.131148
-0.175185
0.139168
-0.0800643
0.147934
0.019493
0.151811
0.208568
0.149922
0.280951
0.149046
0.315593
0.151715
0.229325
0.156809
0.0508393
0.158731
0.011149
0.155907
-0.237904
-0.224687
0.154411
-0.00397544
0.15158
-0.00361462
0.149014
-0.00305659
0.146918
-0.00223928
0.145446
-0.000889724
0.144491
0.00147372
0.144909
0.00477098
0.146386
0.00858012
0.14878
0.0125632
0.151927
0.0166049
0.155875
0.0204397
0.160525
0.0235822
0.165614
0.0254401
0.170664
0.0252292
0.175073
0.022085
0.178203
0.0152886
0.179738
0.00414621
0.177871
-0.0113164
0.172856
-0.0298809
0.164881
-0.0495031
0.15521
-0.0679553
0.145228
-0.0837087
0.135937
-0.0960906
0.127798
-0.104935
0.12092
-0.110578
0.115261
-0.113338
0.11052
-0.113581
0.106507
-0.111833
0.103398
-0.107951
0.100672
-0.101127
0.0971948
-0.0919667
0.0940415
-0.0810908
0.0948393
-0.0635661
0.102156
-0.0359726
0.115366
0.00197292
0.13153
0.0437041
0.148225
0.0952639
0.163495
0.158285
0.174782
0.226676
0.178619
0.266858
0.175354
0.240957
0.168744
0.14597
0.161612
0.0162046
0.153762
-0.0878364
0.147402
-0.167608
0.143993
-0.188433
0.139983
-0.187756
0.133567
-0.172808
0.127655
-0.179975
0.129368
-0.176899
0.137538
-0.0882348
0.147163
0.00986836
0.152297
0.203434
0.15107
0.282178
0.150349
0.316313
0.153176
0.226498
0.158641
0.0453738
0.160806
0.00898431
0.157865
-0.234963
-0.222837
0.183295
-0.000861272
-0.186409
0.180597
-0.00091688
0.177996
-0.000455413
0.175477
0.000279793
0.173079
0.00150874
0.171103
0.00344924
0.169769
0.0061054
0.169127
0.00922196
0.169166
0.0125239
0.169992
0.0157792
0.171753
0.0186786
0.174541
0.0207939
0.178396
0.021585
0.183222
0.0204035
0.188727
0.0165801
0.194371
0.00964464
0.199369
-0.000851345
0.202768
-0.0147154
0.203725
-0.0308382
0.20192
-0.0476982
0.197697
-0.063732
0.1917
-0.0777119
0.184606
-0.088997
0.176975
-0.0973038
0.169195
-0.102798
0.161578
-0.105721
0.15422
-0.106223
0.147006
-0.104618
0.140108
-0.101053
0.13358
-0.0945996
0.126436
-0.0848226
0.11833
-0.0729842
0.111622
-0.0568581
0.109711
-0.0340623
0.113628
-0.00194407
0.120756
0.0365767
0.128312
0.0877077
0.134867
0.15173
0.140629
0.220913
0.146421
0.261066
0.153913
0.233465
0.162487
0.137395
0.168102
0.0105901
0.168663
-0.0883977
0.16484
-0.163785
0.159743
-0.183336
0.153126
-0.181138
0.144559
-0.164242
0.136302
-0.171718
0.132691
-0.173288
0.134016
-0.0895594
0.136304
0.00758007
0.136675
0.203063
0.134886
0.283967
0.13598
0.31522
0.142019
0.220458
0.14844
0.0389529
0.150833
0.00659115
0.146762
-0.230892
-0.218736
0.194237
0.0013347
-0.196433
0.192224
0.00109634
0.190386
0.00138279
0.18862
0.00204616
0.187023
0.00310498
0.185807
0.00466583
0.185158
0.00675368
0.185167
0.0092135
0.185878
0.0118126
0.187352
0.0143052
0.189633
0.0163979
0.192723
0.0177033
0.196561
0.0177477
0.20096
0.0160045
0.205569
0.0119707
0.209927
0.00528635
0.213375
-0.00429877
0.215154
-0.0164951
0.21477
-0.030454
0.212099
-0.0450265
0.207406
-0.0590396
0.201179
-0.0714851
0.193978
-0.081796
0.186322
-0.0896478
0.178565
-0.0950404
0.170956
-0.0981127
0.163638
-0.0989045
0.156485
-0.0974658
0.14952
-0.0940873
0.143045
-0.0881244
0.136494
-0.0782723
0.129043
-0.0655331
0.122034
-0.0498486
0.11883
-0.0308582
0.121267
-0.00438155
0.12791
0.0299337
0.135774
0.0798436
0.143288
0.144217
0.150351
0.21385
0.15768
0.253738
0.16654
0.224605
0.175776
0.128159
0.181781
0.00458525
0.181695
-0.0883121
0.1768
-0.158889
0.170677
-0.177214
0.163526
-0.173987
0.154596
-0.155312
0.14566
-0.162781
0.141424
-0.169052
0.142468
-0.090604
0.145175
0.00487337
0.1462
0.202038
0.144831
0.285337
0.146314
0.313736
0.152786
0.213986
0.159654
0.0320848
0.162068
0.00417694
0.157251
-0.226075
-0.214148