/*--------------------------------*- C++ -*----------------------------------*\
| =========                 |                                                 |
| \\      /  F ield         | OpenFOAM: The Open Source CFD Toolbox           |
|  \\    /   O peration     | Version:  2512                                  |
|   \\  /    A nd           | Website:  www.openfoam.com                      |
|    \\/     M anipulation  |                                                 |
\*---------------------------------------------------------------------------*/
FoamFile
{
    version     2.0;
    format      ascii;
    arch        "LSB;label=32;scalar=64";
    class       volScalarField;
    location    "173";
    object      p;
}
// * * * * * * * * * * * * * * * * * * * * * * * * * * * * * * * * * * * * * //

dimensions      [0 2 -2 0 0 0 0];

internalField   nonuniform List<scalar> 
13248
(
-0.342054
-0.341144
-0.339769
-0.337986
-0.335762
-0.332994
-0.329522
-0.325168
-0.319764
-0.313177
-0.305334
-0.29624
-0.285982
-0.274731
-0.262725
-0.250243
-0.237578
-0.225011
-0.212781
-0.201092
-0.190049
-0.179828
-0.170209
-0.161569
-0.35032
-0.348353
-0.346049
-0.343424
-0.340407
-0.3369
-0.332741
-0.327735
-0.321698
-0.314491
-0.306051
-0.296403
-0.28567
-0.274053
-0.26181
-0.249221
-0.236561
-0.224075
-0.211958
-0.20036
-0.189361
-0.179031
-0.169254
-0.160234
-0.359507
-0.356416
-0.353098
-0.349537
-0.345626
-0.34127
-0.336296
-0.330486
-0.323636
-0.315607
-0.306355
-0.295946
-0.284548
-0.272399
-0.259777
-0.246962
-0.234208
-0.221726
-0.209673
-0.198157
-0.187224
-0.176924
-0.167141
-0.157995
-0.369823
-0.365528
-0.361133
-0.356579
-0.351696
-0.346376
-0.340419
-0.333575
-0.325633
-0.316475
-0.306111
-0.294674
-0.282394
-0.269553
-0.256445
-0.243338
-0.230457
-0.217968
-0.205984
-0.194569
-0.183747
-0.173541
-0.163841
-0.154831
-0.381468
-0.375875
-0.370358
-0.364771
-0.358833
-0.352392
-0.345209
-0.337014
-0.327622
-0.316985
-0.30521
-0.292522
-0.279221
-0.26562
-0.252007
-0.238617
-0.225624
-0.213142
-0.201234
-0.18993
-0.179232
-0.169137
-0.159566
-0.150664
-0.394544
-0.387564
-0.380891
-0.374224
-0.367105
-0.359306
-0.350554
-0.340606
-0.32936
-0.316902
-0.303471
-0.289394
-0.275018
-0.260658
-0.246563
-0.232912
-0.219816
-0.207337
-0.195496
-0.184293
-0.173713
-0.163734
-0.154298
-0.145513
-0.408978
-0.400551
-0.392694
-0.384864
-0.376357
-0.366855
-0.356099
-0.343945
-0.330463
-0.31592
-0.300698
-0.285198
-0.269776
-0.254706
-0.240173
-0.226285
-0.213094
-0.200612
-0.188829
-0.17772
-0.167255
-0.1574
-0.148115
-0.139444
-0.424486
-0.414599
-0.405531
-0.396393
-0.386184
-0.374532
-0.361279
-0.346491
-0.330479
-0.313712
-0.296683
-0.279818
-0.26343
-0.247722
-0.232797
-0.218696
-0.205415
-0.192928
-0.181198
-0.170183
-0.15984
-0.150126
-0.141011
-0.132469
-0.440544
-0.429252
-0.418929
-0.408255
-0.395929
-0.381615
-0.365395
-0.347648
-0.328963
-0.30998
-0.291241
-0.273136
-0.255897
-0.239633
-0.224371
-0.210087
-0.196735
-0.184256
-0.172592
-0.161686
-0.151483
-0.141938
-0.133014
-0.124626
-0.456386
-0.443803
-0.432151
-0.419624
-0.404698
-0.387231
-0.367691
-0.346837
-0.325515
-0.30446
-0.284194
-0.265016
-0.247057
-0.230331
-0.214794
-0.200372
-0.186982
-0.174541
-0.162972
-0.152203
-0.142171
-0.132824
-0.124106
-0.115903
-0.471025
-0.457299
-0.444192
-0.429422
-0.411408
-0.390397
-0.367359
-0.343437
-0.319658
-0.296768
-0.275199
-0.255134
-0.236594
-0.219512
-0.203782
-0.189288
-0.175918
-0.163569
-0.152148
-0.141569
-0.13176
-0.122658
-0.114179
-0.106216
-0.483346
-0.46867
-0.453957
-0.436525
-0.414966
-0.390116
-0.363522
-0.336668
-0.310671
-0.286205
-0.263571
-0.242819
-0.223863
-0.206561
-0.190755
-0.176295
-0.163043
-0.150878
-0.139691
-0.129389
-0.119893
-0.111126
-0.102979
-0.0953946
-0.354633
-0.356655
-0.357804
-0.358588
-0.359503
-0.360735
-0.362347
-0.364345
-0.3667
-0.369363
-0.372277
-0.375369
-0.378551
-0.381709
-0.384702
-0.387358
-0.389469
-0.390801
-0.391092
-0.390075
-0.387615
-0.383433
-0.377506
-0.370196
-0.34407
-0.34674
-0.34818
-0.348994
-0.349734
-0.350567
-0.351534
-0.352623
-0.353784
-0.354952
-0.356047
-0.356981
-0.357654
-0.357954
-0.357753
-0.356916
-0.3553
-0.352746
-0.349101
-0.34423
-0.338132
-0.330686
-0.322123
-0.313621
-0.334632
-0.337781
-0.339431
-0.340242
-0.340795
-0.341232
-0.341569
-0.341773
-0.34178
-0.341501
-0.340843
-0.339701
-0.337971
-0.335543
-0.332311
-0.32817
-0.323028
-0.316806
-0.309451
-0.301038
-0.291593
-0.281116
-0.26989
-0.259754
-0.326803
-0.330251
-0.332026
-0.332812
-0.333185
-0.333258
-0.333023
-0.332428
-0.33139
-0.329808
-0.327575
-0.324581
-0.32072
-0.315894
-0.31002
-0.303037
-0.294904
-0.285621
-0.275244
-0.263914
-0.251814
-0.239066
-0.225836
-0.213948
-0.320914
-0.324484
-0.326301
-0.327037
-0.327243
-0.326996
-0.326263
-0.324976
-0.323037
-0.320336
-0.316759
-0.312198
-0.306554
-0.299749
-0.291731
-0.282483
-0.272029
-0.260446
-0.247868
-0.23451
-0.22067
-0.206645
-0.192609
-0.179122
-0.31715
-0.320674
-0.322449
-0.323108
-0.323152
-0.322625
-0.32147
-0.319601
-0.316912
-0.313287
-0.308611
-0.302782
-0.295717
-0.287362
-0.277703
-0.266772
-0.254655
-0.241501
-0.227521
-0.212997
-0.198284
-0.183764
-0.169655
-0.156746
-0.315561
-0.318877
-0.320524
-0.321069
-0.32095
-0.320178
-0.318671
-0.316332
-0.313044
-0.308689
-0.303157
-0.296356
-0.288223
-0.278734
-0.267913
-0.255843
-0.242672
-0.228611
-0.213941
-0.198998
-0.184177
-0.169881
-0.156652
-0.143615
-0.316073
-0.319022
-0.320452
-0.320839
-0.320546
-0.319553
-0.31776
-0.315054
-0.311313
-0.306419
-0.300266
-0.292778
-0.283912
-0.273677
-0.262139
-0.249432
-0.235755
-0.22138
-0.206633
-0.19189
-0.17758
-0.163899
-0.152187
-0.139204
-0.318515
-0.320955
-0.322054
-0.322219
-0.321723
-0.320518
-0.318484
-0.315495
-0.311423
-0.306149
-0.299576
-0.29164
-0.282325
-0.271672
-0.25979
-0.246857
-0.233124
-0.218902
-0.204551
-0.190435
-0.177062
-0.164243
-0.154131
-0.142127
-0.32261
-0.324383
-0.325053
-0.324917
-0.324165
-0.322718
-0.320446
-0.317209
-0.312872
-0.307314
-0.300445
-0.292217
-0.28264
-0.271789
-0.259813
-0.246934
-0.233437
-0.21966
-0.205972
-0.192703
-0.180366
-0.168646
-0.159611
-0.149353
-0.328065
-0.329043
-0.329154
-0.3286
-0.327486
-0.325717
-0.323148
-0.319629
-0.315014
-0.309182
-0.30205
-0.293586
-0.283828
-0.272885
-0.260942
-0.248254
-0.235126
-0.221895
-0.208906
-0.196465
-0.184942
-0.174287
-0.165706
-0.157115
-0.334609
-0.334681
-0.334099
-0.332983
-0.331367
-0.329147
-0.32617
-0.322275
-0.317306
-0.31114
-0.303699
-0.294971
-0.285019
-0.273984
-0.262079
-0.249577
-0.236782
-0.224008
-0.211545
-0.199659
-0.188545
-0.1784
-0.169594
-0.161789
-0.360009
-0.345223
-0.327612
-0.307935
-0.287863
-0.269535
-0.255374
-0.24735
-0.246887
-0.253739
-0.266231
-0.28073
-0.292189
-0.295285
-0.28548
-0.261336
-0.225664
-0.185583
-0.148876
-0.12052
-0.102052
-0.0927527
-0.0911392
-0.0966396
-0.110233
-0.131272
-0.153153
-0.164949
-0.159457
-0.139975
-0.114771
-0.0923245
-0.0771636
-0.0696178
-0.0682725
-0.0739893
-0.088546
-0.107458
-0.119472
-0.115375
-0.0985893
-0.0794865
-0.0642235
-0.0547614
-0.0511767
-0.0547835
-0.0610162
-0.0625565
-0.0574994
-0.0508967
-0.0436827
-0.0396376
-0.0375925
-0.0370738
-0.0373816
-0.0357241
-0.0283307
-0.0212086
-0.0108623
-0.00224367
-0.304173
-0.29265
-0.280433
-0.267593
-0.255978
-0.2472
-0.243403
-0.245759
-0.254959
-0.269977
-0.288327
-0.306102
-0.318565
-0.32103
-0.309263
-0.281836
-0.242049
-0.197649
-0.156905
-0.124903
-0.102998
-0.0903185
-0.085372
-0.0873076
-0.0967126
-0.113438
-0.132307
-0.143684
-0.140332
-0.125364
-0.104539
-0.085863
-0.0739261
-0.0691009
-0.0702341
-0.0786183
-0.0960513
-0.11734
-0.130354
-0.125318
-0.106232
-0.0841893
-0.0660224
-0.0542379
-0.0483435
-0.0497493
-0.0539733
-0.0549487
-0.0511316
-0.0464271
-0.0415524
-0.0394153
-0.0398419
-0.0408343
-0.041769
-0.0399819
-0.0312254
-0.0231121
-0.011075
-0.00179133
-0.251218
-0.242386
-0.236296
-0.229439
-0.225244
-0.22529
-0.230405
-0.241521
-0.258387
-0.279348
-0.301588
-0.321331
-0.334129
-0.336434
-0.323577
-0.294275
-0.252086
-0.2051
-0.161795
-0.127269
-0.102727
-0.0871771
-0.0791187
-0.0775797
-0.0828275
-0.0951077
-0.110718
-0.121434
-0.119729
-0.109535
-0.0930097
-0.078136
-0.0695042
-0.067466
-0.0711216
-0.0820916
-0.102155
-0.125583
-0.139606
-0.133929
-0.112898
-0.0882246
-0.0673664
-0.0534384
-0.0454621
-0.044884
-0.0472608
-0.0476484
-0.0448547
-0.0418398
-0.0392247
-0.0390476
-0.0420879
-0.0446296
-0.0460591
-0.0440657
-0.0339742
-0.0249112
-0.0112821
-0.00136888
-0.206678
-0.19743
-0.201419
-0.19781
-0.199131
-0.205575
-0.217538
-0.23489
-0.256796
-0.2814
-0.305916
-0.326858
-0.340253
-0.341962
-0.328658
-0.298733
-0.255815
-0.208031
-0.163746
-0.127897
-0.101571
-0.083773
-0.0730424
-0.0683257
-0.0696529
-0.077542
-0.0896902
-0.099447
-0.098231
-0.0931651
-0.0805852
-0.0693842
-0.063981
-0.0646353
-0.0706875
-0.0839909
-0.106386
-0.131791
-0.146923
-0.140973
-0.118423
-0.0915163
-0.0682669
-0.0524161
-0.0426162
-0.0403083
-0.0410313
-0.0407886
-0.0387752
-0.0372028
-0.0367273
-0.0385232
-0.044297
-0.0484223
-0.0502103
-0.0479247
-0.0365417
-0.0265847
-0.0114796
-0.000976153
-0.17525
-0.170086
-0.17003
-0.171905
-0.17797
-0.188984
-0.205138
-0.226012
-0.250541
-0.276839
-0.302333
-0.324031
-0.336845
-0.338583
-0.325401
-0.295948
-0.253904
-0.207095
-0.163384
-0.127318
-0.0999533
-0.0804718
-0.0675438
-0.06012
-0.0579515
-0.0616522
-0.0702235
-0.0791208
-0.085168
-0.0770879
-0.0676289
-0.059819
-0.0573981
-0.0605201
-0.0687265
-0.0840366
-0.108453
-0.13567
-0.152009
-0.146223
-0.122688
-0.094033
-0.0687636
-0.051238
-0.0398715
-0.0360883
-0.0353743
-0.0344779
-0.0329941
-0.0325863
-0.0340841
-0.0378265
-0.0464277
-0.0521615
-0.0541657
-0.0515068
-0.0388931
-0.0281124
-0.0116632
-0.00061275
-0.15409
-0.150454
-0.150352
-0.15419
-0.16256
-0.175744
-0.193645
-0.215714
-0.240827
-0.267146
-0.292392
-0.315485
-0.32631
-0.327887
-0.315208
-0.287134
-0.247336
-0.203045
-0.161251
-0.125964
-0.0982471
-0.0775781
-0.0628902
-0.0532079
-0.0481263
-0.0480875
-0.0529783
-0.0598291
-0.064544
-0.0605952
-0.0544366
-0.0496684
-0.0498574
-0.0551439
-0.0652055
-0.0821523
-0.108196
-0.136996
-0.154655
-0.149553
-0.125621
-0.09575
-0.0688864
-0.0499533
-0.0372672
-0.0322515
-0.0303333
-0.0287842
-0.0276029
-0.0280563
-0.0313173
-0.0369379
-0.0484266
-0.0557775
-0.05787
-0.0547681
-0.0409965
-0.0294734
-0.0118258
-0.000276919
-0.142623
-0.140141
-0.139648
-0.143441
-0.152231
-0.165759
-0.183556
-0.20504
-0.229154
-0.254015
-0.276898
-0.293941
-0.309175
-0.311419
-0.299669
-0.273791
-0.237385
-0.196805
-0.157944
-0.124226
-0.0967447
-0.0753273
-0.0592615
-0.0477285
-0.040243
-0.0370394
-0.038419
-0.0427204
-0.0463423
-0.0447689
-0.0414703
-0.039248
-0.0415944
-0.0486769
-0.0602234
-0.0783485
-0.105561
-0.135714
-0.1548
-0.150891
-0.127173
-0.0966474
-0.0686514
-0.0485947
-0.0348231
-0.0287902
-0.0258999
-0.0237354
-0.0226551
-0.0236764
-0.02845
-0.035834
-0.0502311
-0.0591952
-0.0612787
-0.0576684
-0.0428226
-0.0306501
-0.0119588
3.52989e-05
-0.139855
-0.138143
-0.136282
-0.138581
-0.146361
-0.158815
-0.175117
-0.19474
-0.216736
-0.239398
-0.260795
-0.277821
-0.289572
-0.291132
-0.280428
-0.257387
-0.225217
-0.189129
-0.153851
-0.122257
-0.0954982
-0.073741
-0.0566576
-0.0436606
-0.0342504
-0.0284741
-0.0267321
-0.0283724
-0.0307836
-0.0303462
-0.0292111
-0.0289443
-0.0329304
-0.0413548
-0.0539679
-0.0727951
-0.100669
-0.131906
-0.152501
-0.150196
-0.127321
-0.0967216
-0.0680735
-0.0471875
-0.0325511
-0.0256907
-0.0220368
-0.0193187
-0.0182281
-0.0195062
-0.0255071
-0.0344918
-0.0517754
-0.0623407
-0.0643437
-0.0601699
-0.0443482
-0.0316334
-0.0120601
0.000329945
-0.143735
-0.14201
-0.138287
-0.138518
-0.144248
-0.154383
-0.168084
-0.184916
-0.203885
-0.223578
-0.242949
-0.258233
-0.2674
-0.268322
-0.258996
-0.23934
-0.211911
-0.180676
-0.149279
-0.120141
-0.0944886
-0.072782
-0.0550349
-0.0409357
-0.0300371
-0.0222469
-0.0178918
-0.0169689
-0.018026
-0.0190753
-0.0180419
-0.0191347
-0.0242132
-0.0334813
-0.0466616
-0.0656516
-0.0937643
-0.125796
-0.147915
-0.147554
-0.126134
-0.096066
-0.0672615
-0.0458332
-0.030506
-0.0229593
-0.0187295
-0.0155186
-0.0143494
-0.0155933
-0.0225122
-0.032886
-0.0530014
-0.0651324
-0.0670152
-0.0622451
-0.04556
-0.03242
-0.01214
0.000612094
-0.150459
-0.147772
-0.142821
-0.141394
-0.144528
-0.151458
-0.161825
-0.17524
-0.190725
-0.207039
-0.222581
-0.235977
-0.243761
-0.244717
-0.237273
-0.221394
-0.198873
-0.172516
-0.145057
-0.118559
-0.0943075
-0.0729883
-0.054875
-0.0399302
-0.0278445
-0.0184482
-0.0119437
-0.00863336
-0.00796752
-0.00831091
-0.0080058
-0.0101202
-0.0157436
-0.0253463
-0.0386794
-0.057483
-0.0852582
-0.117631
-0.14127
-0.143175
-0.123789
-0.0948798
-0.0664228
-0.0447276
-0.0288058
-0.0206028
-0.0159471
-0.0123597
-0.0110577
-0.0119623
-0.0194926
-0.0310183
-0.0538379
-0.0674745
-0.0692495
-0.0638715
-0.0464476
-0.0329976
-0.0122002
0.000885591
-0.156199
-0.152204
-0.147299
-0.144992
-0.145492
-0.149076
-0.15595
-0.165741
-0.177601
-0.190784
-0.203259
-0.213415
-0.220181
-0.221645
-0.216508
-0.204603
-0.186962
-0.165392
-0.141864
-0.118111
-0.0954375
-0.0747137
-0.0564295
-0.0407894
-0.027695
-0.0169951
-0.00873725
-0.00325372
-0.000666965
3.57227e-05
0.000464259
-0.0022762
-0.00785232
-0.0172095
-0.030073
-0.0481331
-0.0755092
-0.108365
-0.132918
-0.137233
-0.120051
-0.0929079
-0.065287
-0.0436845
-0.0273274
-0.0184917
-0.0134499
-0.00970778
-0.00843237
-0.00872631
-0.0164496
-0.0288164
-0.0542698
-0.0692931
-0.0709873
-0.0649907
-0.046962
-0.0333273
-0.0121842
0.00117026
-0.158504
-0.15466
-0.150569
-0.147416
-0.1461
-0.147171
-0.150828
-0.156741
-0.164626
-0.174251
-0.183792
-0.191407
-0.196393
-0.197874
-0.194538
-0.185934
-0.172438
-0.155054
-0.13514
-0.114133
-0.0932963
-0.0736157
-0.0557321
-0.0399905
-0.0264651
-0.0151394
-0.00590074
0.00115369
0.00547511
0.00698795
0.00592576
0.00431465
-0.000950658
-0.00976139
-0.0219746
-0.0389869
-0.06514
-0.0972893
-0.122455
-0.127501
-0.113831
-0.0888304
-0.0623886
-0.0414344
-0.0251974
-0.0161827
-0.0108064
-0.00702598
-0.00595673
-0.00575878
-0.0135652
-0.0264303
-0.0541509
-0.070491
-0.0722105
-0.0655749
-0.0470061
-0.0333669
-0.0119842
0.00151455
-0.155534
-0.154538
-0.150613
-0.146805
-0.14486
-0.145192
-0.147721
-0.152244
-0.158493
-0.165883
-0.172934
-0.17887
-0.182628
-0.183046
-0.179197
-0.170776
-0.158125
-0.142097
-0.123832
-0.104547
-0.0853197
-0.0669989
-0.0501493
-0.0350896
-0.021904
-0.0106302
-0.00117636
0.00646183
0.011846
0.0144768
0.0142878
0.0122536
0.00751341
-9.11756e-05
-0.0110504
-0.0272888
-0.0540835
-0.0887659
-0.117137
-0.125661
-0.109045
-0.0838638
-0.0580312
-0.0378541
-0.0221986
-0.0136456
-0.00820203
-0.00425912
-0.00277429
-0.00179529
-0.0097524
-0.0231461
-0.0534838
-0.0718496
-0.0734238
-0.0660046
-0.0466834
-0.033174
-0.0116272
0.00187117
-0.151391
-0.152024
-0.148353
-0.144185
-0.141826
-0.141694
-0.143468
-0.146771
-0.151216
-0.156051
-0.16098
-0.16492
-0.166847
-0.165922
-0.161536
-0.153482
-0.14202
-0.127791
-0.111655
-0.0945489
-0.0773248
-0.0606909
-0.0451529
-0.0310189
-0.0184259
-0.00748422
0.00190648
0.00981628
0.0157595
0.0188602
0.0186545
0.0171906
0.0133566
0.00703355
-0.00262494
-0.0178958
-0.0447485
-0.0805129
-0.109428
-0.116531
-0.100904
-0.0769971
-0.0528916
-0.0341978
-0.0194638
-0.0112768
-0.00584683
-0.00207863
-0.000450936
0.000767729
-0.00693397
-0.0204763
-0.0525958
-0.0726631
-0.0737453
-0.0656448
-0.0458883
-0.0325756
-0.0111928
0.00206131
-0.144791
-0.146907
-0.144058
-0.140016
-0.137449
-0.136916
-0.137977
-0.140112
-0.142948
-0.146066
-0.149037
-0.151106
-0.151566
-0.149803
-0.14535
-0.137999
-0.12787
-0.115385
-0.101167
-0.0859428
-0.0704164
-0.0552054
-0.0407801
-0.0274606
-0.0153997
-0.0047472
0.00451208
0.012447
0.0186742
0.0223087
0.0229323
0.0216483
0.0183319
0.0128422
0.00387083
-0.0109786
-0.0372211
-0.0715482
-0.0991091
-0.105945
-0.0916834
-0.0696932
-0.0475938
-0.0304545
-0.0166993
-0.00893972
-0.00359865
-6.30606e-06
0.00169186
0.00286634
-0.00480003
-0.0184671
-0.0515136
-0.0726879
-0.0733064
-0.0646498
-0.0447173
-0.0316712
-0.010734
0.0021699
-0.136451
-0.140056
-0.138264
-0.134617
-0.131967
-0.131065
-0.131515
-0.132763
-0.134412
-0.136128
-0.137575
-0.138291
-0.137758
-0.135469
-0.131027
-0.124232
-0.115135
-0.104034
-0.0913975
-0.0778005
-0.0638132
-0.0499543
-0.036635
-0.0241649
-0.0127022
-0.00241408
0.00663224
0.0144665
0.0208441
0.0250183
0.0264125
0.0256827
0.023163
0.0185506
0.0101604
-0.00422584
-0.0290905
-0.0613241
-0.0876794
-0.0944224
-0.0816275
-0.0618257
-0.041944
-0.0265342
-0.0139069
-0.00664856
-0.0014459
0.00200334
0.00371706
0.00484635
-0.00284262
-0.0164221
-0.0497569
-0.0718188
-0.0721854
-0.0630296
-0.0431654
-0.0304423
-0.0102228
0.00221838
-0.127428
-0.132064
-0.131252
-0.128137
-0.125554
-0.124412
-0.124414
-0.124995
-0.125746
-0.126418
-0.126787
-0.12653
-0.125246
-0.122541
-0.118102
-0.111763
-0.103544
-0.0936502
-0.0824234
-0.0702961
-0.0577158
-0.0451134
-0.0328457
-0.02121
-0.0103744
-0.000507339
0.00827532
0.0159397
0.02232
0.0268505
0.0289299
0.0290539
0.0276028
0.0241867
0.0168132
0.00332086
-0.0200948
-0.0506018
-0.0754653
-0.0818875
-0.0708104
-0.0535647
-0.0361026
-0.0225203
-0.0111208
-0.00441621
0.000606664
0.00394106
0.00558879
0.00670149
-0.000852156
-0.0139633
-0.0471056
-0.0699082
-0.0702147
-0.0606976
-0.0411945
-0.0288783
-0.0096469
0.0022078
-0.118003
-0.123251
-0.123284
-0.12077
-0.118389
-0.117136
-0.116817
-0.116912
-0.117038
-0.116985
-0.116584
-0.115607
-0.113773
-0.11079
-0.106417
-0.100517
-0.0930816
-0.0842423
-0.0742411
-0.0634045
-0.0520859
-0.0406427
-0.0293809
-0.0185732
-0.00839312
0.000994368
0.00945421
0.0168979
0.023186
0.0279286
0.0305758
0.0315345
0.0312476
0.0293225
0.0234106
0.0109419
-0.0112758
-0.039901
-0.0626283
-0.0686382
-0.0595729
-0.0451488
-0.0302014
-0.01847
-0.0083634
-0.002253
0.00254616
0.00579597
0.00731715
0.00841468
0.00118363
-0.0111123
-0.0434916
-0.0667267
-0.0672232
-0.057607
-0.0387952
-0.0269844
-0.00899052
0.00214421
-0.108354
-0.113947
-0.114668
-0.112743
-0.11064
-0.10938
-0.108868
-0.108649
-0.108361
-0.107812
-0.106878
-0.105415
-0.103229
-0.100109
-0.0958658
-0.090382
-0.0836346
-0.0757085
-0.066777
-0.0570873
-0.0469138
-0.036548
-0.0262482
-0.0162573
-0.00674823
0.00211568
0.0101958
0.0173802
0.0235237
0.0283697
0.0314248
0.0330706
0.0337961
0.0333055
0.0289227
0.0174956
-0.0033166
-0.029434
-0.0495087
-0.0551436
-0.0483013
-0.0368242
-0.0243923
-0.0144592
-0.00566136
-0.000167036
0.00436669
0.00756592
0.00892644
0.00998589
0.00321362
-0.00796983
-0.0388367
-0.0621007
-0.0631071
-0.0537542
-0.0359821
-0.0247807
-0.00823946
0.0020395
-0.0987551
-0.104447
-0.105676
-0.104284
-0.102496
-0.101313
-0.100716
-0.100312
-0.0997649
-0.0989036
-0.0976418
-0.0958892
-0.0935151
-0.0903648
-0.0862945
-0.0812085
-0.0750798
-0.0679632
-0.0599815
-0.0513188
-0.0421864
-0.0328191
-0.0234344
-0.0142447
-0.00541544
0.00289442
0.0105461
0.0174315
0.0233952
0.0282439
0.0315665
0.0337007
0.0351101
0.035623
0.0324763
0.0223063
0.00358394
-0.0193183
-0.0365289
-0.0419683
-0.0374337
-0.0288481
-0.0188247
-0.0105671
-0.00304005
0.00183854
0.00607013
0.0092519
0.0104475
0.0114317
0.00523411
-0.00455551
-0.0331221
-0.0559848
-0.0578328
-0.0491797
-0.0327979
-0.0223054
-0.00738132
0.00191108
-0.089359
-0.0949629
-0.0965469
-0.095618
-0.0941503
-0.093096
-0.0924883
-0.0919939
-0.0913104
-0.0902841
-0.0888522
-0.0869595
-0.0845204
-0.0814264
-0.0775703
-0.0728769
-0.0673193
-0.0609313
-0.053799
-0.0460596
-0.0378756
-0.0294349
-0.0209191
-0.0125115
-0.00436477
0.00337067
0.0105579
0.0170997
0.0228438
0.0276168
0.031084
0.0335176
0.0352683
0.0362318
0.0339263
0.0253175
0.00940186
-0.00982005
-0.0243249
-0.0297745
-0.0274132
-0.0214516
-0.0136257
-0.00687164
-0.00052724
0.00376036
0.00766375
0.0108556
0.0119239
0.0128055
0.00731512
-0.000876907
-0.0264733
-0.0484995
-0.0514662
-0.0439752
-0.0293141
-0.0196172
-0.00640677
0.00178053
-0.0802789
-0.0856738
-0.0874806
-0.0869313
-0.0857641
-0.0848631
-0.0842961
-0.0837829
-0.0830536
-0.08197
-0.080484
-0.0785642
-0.0761584
-0.0731921
-0.069587
-0.0652846
-0.0602602
-0.0545347
-0.0481691
-0.0412656
-0.0339494
-0.0263699
-0.018677
-0.0110277
-0.00356009
0.00358801
0.0102852
0.0164407
0.0219207
0.0265764
0.0300634
0.0326345
0.0344966
0.0355298
0.0337735
0.0268439
0.0140137
-0.00153021
-0.0136692
-0.019165
-0.0185889
-0.0148047
-0.00888663
-0.00344032
0.00184596
0.00558787
0.00915489
0.0123764
0.0134143
0.0142017
0.00954712
0.00299774
-0.0191757
-0.0399613
-0.0442
-0.0382858
-0.0256275
-0.0167937
-0.00531048
0.00167194
-0.0716258
-0.0767057
-0.0786186
-0.0783691
-0.0774721
-0.0767328
-0.0762383
-0.0757546
-0.0750435
-0.0739798
-0.0725244
-0.0706625
-0.0683643
-0.0655802
-0.0622534
-0.0583395
-0.0538177
-0.0487014
-0.0430341
-0.0368925
-0.0303729
-0.0235937
-0.0166782
-0.00975936
-0.00296067
0.00359377
0.00978267
0.0155201
0.0206948
0.0252302
0.0285856
0.0311704
0.0330185
0.0339614
0.0325917
0.0271887
0.0172022
0.00494895
-0.00511112
-0.0104584
-0.0111275
-0.00899645
-0.00465951
-0.000323839
0.00404831
0.00730033
0.0105415
0.0138014
0.0149639
0.0157257
0.0119976
0.00694253
-0.0116592
-0.0308804
-0.0363625
-0.0323065
-0.0218503
-0.0139298
-0.00409655
0.0016101
-0.0634295
-0.0681322
-0.0700692
-0.0700518
-0.0693901
-0.0688077
-0.0684028
-0.0679794
-0.0673282
-0.0663359
-0.0649703
-0.0632258
-0.0610875
-0.0585233
-0.0554931
-0.0519637
-0.0479187
-0.0433668
-0.0383398
-0.0328957
-0.0271087
-0.021073
-0.0148894
-0.00867015
-0.00252385
0.00343875
0.00910521
0.0143938
0.0192176
0.0236264
0.0267172
0.0292433
0.0310176
0.0318389
0.0307576
0.0265935
0.0189645
0.00948005
0.00130309
-0.00363524
-0.00502195
-0.00404413
-0.000963167
0.00244599
0.00605053
0.00887372
0.0118109
0.0150947
0.0165472
0.0174411
0.0146836
0.0107895
-0.00444292
-0.0219045
-0.0283986
-0.0262669
-0.0180991
-0.0111282
-0.00279157
0.00161254
-0.055707
-0.0600168
-0.0619216
-0.062077
-0.0616136
-0.0611756
-0.0608632
-0.0605151
-0.0599489
-0.0590611
-0.0578226
-0.0562335
-0.0542888
-0.0519684
-0.0492444
-0.0460925
-0.0425
-0.0384732
-0.0340355
-0.0292316
-0.0241191
-0.0187732
-0.0132761
-0.00772213
-0.0022058
0.00317398
0.00831133
0.0131175
0.0174778
0.0212376
0.0245011
0.0269841
0.0286648
0.0293896
0.0285417
0.0253514
0.0195986
0.0123809
0.00587272
0.00152855
-0.000159665
8.32567e-05
0.00220656
0.00485622
0.00782539
0.0102848
0.0129475
0.0162076
0.0180384
0.0192803
0.0174759
0.0143026
0.00194375
-0.0136817
-0.0207796
-0.0204044
-0.014484
-0.00848579
-0.00145186
0.00167788
-0.0485039
-0.0524091
-0.0542339
-0.0545102
-0.0542091
-0.0538986
-0.053677
-0.0534104
-0.0529407
-0.0521739
-0.051083
-0.049671
-0.0479385
-0.0458739
-0.0434576
-0.040672
-0.0375076
-0.0339692
-0.030075
-0.0258593
-0.0213677
-0.0166602
-0.011804
-0.00687792
-0.00196395
0.00284965
0.00746708
0.0117956
0.0157113
0.0190196
0.0221925
0.0245616
0.0261362
0.0268016
0.0261671
0.0237582
0.0194745
0.0140711
0.00900307
0.00533796
0.00362265
0.00344488
0.0048672
0.00690824
0.0093539
0.01151
0.013931
0.0170972
0.0192616
0.0209168
0.019983
0.0171359
0.00706105
-0.00667126
-0.0138853
-0.014933
-0.0111029
-0.00608276
-0.000156871
0.00178076
-0.0418278
-0.045323
-0.0470347
-0.0473919
-0.0472225
-0.0470224
-0.0468853
-0.0467001
-0.0463297
-0.0456892
-0.0447537
-0.0435273
-0.0420137
-0.0402065
-0.0380919
-0.0356572
-0.0328955
-0.0298107
-0.026417
-0.0227415
-0.0188202
-0.0147016
-0.0104403
-0.00610266
-0.00175845
0.00251486
0.00663413
0.0105143
0.0140592
0.0171826
0.0199564
0.022125
0.023584
0.0242242
0.0237968
0.0220293
0.0188939
0.0149117
0.0110533
0.00807384
0.00649428
0.00611568
0.00704638
0.00861191
0.0106277
0.0125291
0.0147284
0.0177158
0.0200723
0.0219973
0.0216918
0.0189439
0.0106817
-0.00106212
-0.00796557
-0.0100351
-0.00803457
-0.0039802
0.000994682
0.00187879
-0.0356536
-0.0387573
-0.0403415
-0.0407503
-0.0406861
-0.0405795
-0.0405169
-0.0404062
-0.0401314
-0.0396157
-0.038835
-0.0377931
-0.0364955
-0.0349391
-0.0331142
-0.0310113
-0.0286254
-0.0259597
-0.0230256
-0.0198448
-0.0164457
-0.0128679
-0.00915576
-0.00536481
-0.00155357
0.00221039
0.00585647
0.0093108
0.0124964
0.0153462
0.017811
0.0197732
0.0211218
0.0217635
0.0215357
0.0202966
0.0180585
0.0151793
0.0123062
0.00996623
0.00861131
0.00817756
0.00877952
0.00998369
0.011645
0.0133238
0.015305
0.0180139
0.0203694
0.0222523
0.0223024
0.0196405
0.0128675
0.00314368
-0.00316447
-0.0058465
-0.0053273
-0.00221301
0.00189781
0.00192906
-0.0299726
-0.0327119
-0.0341617
-0.0345983
-0.0346161
-0.0345864
-0.0345873
-0.034542
-0.0343552
-0.0339572
-0.0333243
-0.032459
-0.0313677
-0.0300495
-0.0284974
-0.026704
-0.0246655
-0.0223846
-0.0198705
-0.0171406
-0.0142176
-0.0111337
-0.00792502
-0.00463775
-0.00132064
0.00196808
0.0051689
0.00821804
0.0110498
0.0136022
0.0158034
0.0175763
0.018828
0.0194865
0.0194439
0.018637
0.0170934
0.0150672
0.0129858
0.0112111
0.0101139
0.00971322
0.0101082
0.0110433
0.0124097
0.0138808
0.0156384
0.0179887
0.0201584
0.021753
0.0219171
0.019439
0.0138986
0.00605783
0.00049166
-0.00243655
-0.00300733
-0.000779147
0.00248724
0.00190854
-0.0247753
-0.0271748
-0.0284869
-0.0289336
-0.0290145
-0.0290477
-0.0291039
-0.0291208
-0.0290068
-0.0287132
-0.028216
-0.0275149
-0.0266155
-0.0255185
-0.0242188
-0.0227102
-0.0209896
-0.0190593
-0.0169265
-0.0146053
-0.0121139
-0.00947825
-0.00672778
-0.00390089
-0.00103785
0.00181216
0.00459895
0.0072663
0.00975831
0.0120182
0.0139787
0.0155826
0.0167509
0.017431
0.0175515
0.0170934
0.0160827
0.0147072
0.0132514
0.0119632
0.0111236
0.0108024
0.0110769
0.0118134
0.0129337
0.0142023
0.0157267
0.0176789
0.0195462
0.020756
0.020862
0.0186533
0.0141281
0.00789749
0.00310133
0.000200272
-0.00108445
0.000338875
0.00276422
0.00183418
-0.0200339
-0.0221221
-0.0233
-0.0237444
-0.0238732
-0.0239563
-0.0240564
-0.0241188
-0.0240721
-0.023873
-0.0234998
-0.022949
-0.022225
-0.0213296
-0.0202593
-0.0190093
-0.0175765
-0.0159627
-0.0141735
-0.0122201
-0.0101171
-0.00788564
-0.00554929
-0.00313966
-0.00068977
0.00175865
0.00416375
0.00647768
0.00865133
0.0106337
0.0123704
0.0138237
0.0149167
0.0156152
0.015871
0.0156865
0.0150829
0.0142015
0.0132072
0.0123393
0.0117417
0.0115207
0.0117319
0.0123208
0.0132358
0.0143051
0.0155931
0.0171443
0.018668
0.0194914
0.0194609
0.0175504
0.0138609
0.00893144
0.00484994
0.00214098
0.000453833
0.00116958
0.00277338
0.0013483
-0.0157216
-0.0175306
-0.0185818
-0.0190159
-0.0191802
-0.0193021
-0.0194365
-0.0195395
-0.0195511
-0.0194312
-0.0191652
-0.0187479
-0.0181814
-0.017467
-0.0166025
-0.015584
-0.0144089
-0.013078
-0.0115957
-0.00997086
-0.00821499
-0.00634505
-0.00437997
-0.00234554
-0.000268706
0.00181615
0.00387447
0.00586472
0.00774441
0.00947121
0.0109938
0.0123163
0.0133371
0.0140428
0.0144009
0.0144262
0.0141333
0.0136268
0.0130012
0.0124462
0.0120572
0.011936
0.0121192
0.0125975
0.0133397
0.0142184
0.0152732
0.0164469
0.017544
0.018114
0.0179455
0.0163147
0.0133148
0.0094086
0.00594226
0.00349865
0.00163949
0.00175939
0.00265198
0.00120922
-0.0118156
-0.0133754
-0.014309
-0.0147271
-0.0149172
-0.0150695
-0.0152316
-0.0153682
-0.0154259
-0.0153717
-0.0151976
-0.0148979
-0.0144707
-0.0139164
-0.0132337
-0.01242
-0.0114727
-0.0103921
-0.00918146
-0.00784748
-0.00639924
-0.0048502
-0.00321541
-0.00151556
0.000227652
0.00198594
0.00373134
0.00543058
0.00704923
0.00855466
0.00992302
0.0110705
0.0120092
0.0127073
0.0131363
0.0133141
0.0132485
0.0130263
0.012677
0.0123626
0.0121425
0.012109
0.0122831
0.0126769
0.0132736
0.0139755
0.0148102
0.0156641
0.0164487
0.0167495
0.0164593
0.0150651
0.0126253
0.00951568
0.00656282
0.00439409
0.00251846
0.00216187
0.00247187
0.00106332
-0.00828993
-0.0096292
-0.0104549
-0.0108541
-0.0110624
-0.0112378
-0.0114206
-0.0115825
-0.0116804
-0.0116858
-0.0115867
-0.0113849
-0.0110778
-0.0106631
-0.0101393
-0.00950437
-0.00875626
-0.0078949
-0.00692228
-0.00584351
-0.00466555
-0.00339892
-0.00205542
-0.000651421
0.00079563
0.00226341
0.00372902
0.00516506
0.00654494
0.00783904
0.00901527
0.0100472
0.0109101
0.0115908
0.0120632
0.0123444
0.0124363
0.0123935
0.01227
0.0121419
0.0120562
0.0120933
0.012266
0.0125925
0.0130664
0.0136099
0.0142458
0.0148375
0.0153583
0.0154545
0.015074
0.0138717
0.0118732
0.00938169
0.00685803
0.0049357
0.00314456
0.0024324
0.00228591
0.000933613
-0.00511776
-0.0062639
-0.0069926
-0.0073714
-0.0075921
-0.00778453
-0.0079828
-0.0081642
-0.00829373
-0.00834652
-0.00831322
-0.0081928
-0.00798719
-0.00769271
-0.00730625
-0.00682583
-0.00624998
-0.00557842
-0.00481234
-0.00395535
-0.00301269
-0.00199241
-0.000903671
0.000240797
0.00142733
0.00263819
0.00385517
0.00505666
0.00622039
0.007323
0.00833902
0.00924769
0.0100281
0.0106748
0.0111661
0.0115124
0.0117135
0.01181
0.0118274
0.0118311
0.0118459
0.0119349
0.0121065
0.0123775
0.0127481
0.0131548
0.0136172
0.014
0.0143066
0.0142547
0.0138159
0.0127682
0.0111114
0.00909674
0.00693266
0.00522951
0.00356671
0.00261241
0.00212164
0.000828947
-0.00227439
-0.00325277
-0.0038951
-0.00425325
-0.00448182
-0.00468654
-0.00489586
-0.0050918
-0.0052458
-0.00533769
-0.00535826
-0.00530665
-0.00518405
-0.00499055
-0.00472144
-0.00437345
-0.00394521
-0.00343641
-0.00284772
-0.00218163
-0.00144193
-0.000634666
0.000233165
0.00115187
0.00211094
0.00309661
0.00409457
0.00508778
0.00605849
0.00698869
0.00785881
0.00865301
0.00935275
0.00995033
0.0104326
0.0108098
0.0110754
0.0112603
0.0113739
0.0114665
0.0115506
0.0116734
0.0118404
0.0120641
0.0123481
0.0126396
0.0129563
0.0131772
0.0133158
0.0131599
0.0126885
0.0117667
0.0103724
0.00872142
0.00686663
0.00534351
0.00382091
0.00272671
0.00198804
0.000749263
0.000263955
-0.000569652
-0.00113581
-0.00147376
-0.00170676
-0.00191993
-0.00213666
-0.0023429
-0.00251571
-0.00263857
-0.00270403
-0.00271005
-0.00265701
-0.00254506
-0.00237294
-0.00213684
-0.00183405
-0.00146363
-0.0010259
-0.000522586
4.36092e-05
0.000668329
0.0013463
0.00207028
0.0028323
0.00362196
0.00442817
0.00523779
0.00603705
0.00681198
0.0075471
0.00823042
0.0088463
0.00938922
0.0098476
0.0102279
0.0105235
0.0107562
0.0109283
0.011075
0.0112019
0.0113422