/*--------------------------------*- C++ -*----------------------------------*\
| =========                 |                                                 |
| \\      /  F ield         | OpenFOAM: The Open Source CFD Toolbox           |
|  \\    /   O peration     | Version:  2512                                  |
|   \\  /    A nd           | Website:  www.openfoam.com                      |
|    \\/     M anipulation  |                                                 |
\*---------------------------------------------------------------------------*/
FoamFile
{
    version     2.0;
    format      ascii;
    arch        "LSB;label=32;scalar=64";
    class       volVectorField;
    location    "173";
    object      U;
}
// * * * * * * * * * * * * * * * * * * * * * * * * * * * * * * * * * * * * * //

dimensions      [0 1 -1 0 0 0 0];

internalField   nonuniform List<vector> 
13248
(
(-0.0106649 0.00978289 7.26747e-20)
(-0.0168261 0.0170769 0)
(-0.00998213 0.0170133 -1.38237e-19)
(0.00891736 0.0126181 1.30223e-19)
(0.0395291 0.00604576 1.22315e-19)
(0.0817 -0.00116386 0)
(0.135221 -0.00791739 0)
(0.199609 -0.0134368 2.9261e-19)
(0.273934 -0.0171716 -3.38778e-21)
(0.356706 -0.0187574 -2.51963e-19)
(0.445872 -0.0180041 2.26867e-19)
(0.538905 -0.0148968 -1.4132e-19)
(0.632979 -0.00959261 0)
(0.725197 -0.00240651 -2.22737e-19)
(0.812829 0.00621929 4.08755e-19)
(0.893525 0.0157573 -9.62231e-20)
(0.965471 0.0256464 -1.58675e-19)
(1.02748 0.0353298 1.48959e-19)
(1.07901 0.0443436 0)
(1.12014 0.0521692 0)
(1.15155 0.0588494 0)
(1.17395 0.063156 0)
(1.18964 0.0674384 3.98131e-20)
(1.19803 0.0659289 1.39406e-19)
(-0.0102021 0.00864108 -2.19607e-19)
(-0.012023 0.0142051 1.50124e-19)
(0.00311068 0.0135781 -1.00282e-21)
(0.0337221 0.00940277 -1.98838e-19)
(0.0790132 0.00373277 -1.22179e-19)
(0.138323 -0.00185794 -1.15314e-19)
(0.210732 -0.00624213 -2.11313e-19)
(0.294791 -0.00865385 1.99494e-19)
(0.388348 -0.00863296 0)
(0.488524 -0.0060032 2.16488e-21)
(0.591857 -0.00085744 4.63578e-21)
(0.694579 0.00647001 1.41305e-19)
(0.792979 0.0154529 0)
(0.883754 0.0254426 0)
(0.964299 0.0357476 1.4792e-19)
(1.03289 0.0457116 -2.77483e-19)
(1.08876 0.0547781 1.57779e-19)
(1.13203 0.0625305 -1.48128e-19)
(1.16362 0.0687195 -6.36061e-20)
(1.18501 0.0732163 -1.10454e-19)
(1.19798 0.0761521 -4.43911e-20)
(1.20471 0.0772577 -8.19656e-20)
(1.20651 0.0779904 1.23544e-19)
(1.20584 0.0747238 3.50928e-20)
(-0.00850919 0.0067702 0)
(-0.00337574 0.00954049 0)
(0.0227395 0.00789524 7.03618e-20)
(0.0678081 0.00407518 6.50107e-20)
(0.130425 -2.42062e-05 -1.4908e-21)
(0.209098 -0.00288499 -1.18308e-19)
(0.301724 -0.0034838 0)
(0.405325 -0.00125862 -9.88764e-20)
(0.51601 0.00392636 9.16717e-20)
(0.629191 0.011815 2.63159e-22)
(0.74001 0.0218241 -1.52673e-19)
(0.84387 0.0331477 -1.3599e-19)
(0.936939 0.044885 5.17519e-21)
(1.01651 0.0561712 -1.04856e-19)
(1.0812 0.0662856 2.5711e-19)
(1.13089 0.0747228 0)
(1.1666 0.0812193 -1.56012e-19)
(1.19016 0.0857351 7.58907e-20)
(1.20391 0.0884226 6.35498e-20)
(1.2103 0.089505 0)
(1.21168 0.0894089 5.00259e-20)
(1.20998 0.0880692 -1.71732e-19)
(1.2065 0.0868404 1.61209e-19)
(1.20323 0.082705 1.00013e-19)
(-0.00536341 0.00441804 -7.75083e-20)
(0.00984262 0.00382059 -8.00322e-20)
(0.0500841 0.00120413 7.26606e-20)
(0.112602 -0.00164379 0)
(0.195043 -0.00308089 0)
(0.294563 -0.00180066 -1.88788e-21)
(0.407242 0.00288281 0)
(0.52801 0.0110363 -2.98558e-19)
(0.650955 0.0221773 2.7564e-19)
(0.769946 0.0353943 -3.38007e-19)
(0.879402 0.0495276 7.62655e-20)
(0.974966 0.0633793 0)
(1.05394 0.075907 1.21342e-19)
(1.11542 0.0863597 -2.22568e-19)
(1.16011 0.0943399 5.27252e-20)
(1.18998 0.0997903 1.28696e-19)
(1.20773 0.102924 -8.67398e-21)
(1.21635 0.104126 -1.42609e-19)
(1.21867 0.103846 0)
(1.21709 0.102507 0)
(1.21339 0.100507 -4.81938e-20)
(1.20877 0.0978854 4.27118e-20)
(1.20393 0.0956174 1.49233e-19)
(1.19942 0.0909742 -1.40098e-19)
(-0.000465085 0.00180782 -8.12965e-20)
(0.0284042 -0.00218004 -8.10727e-20)
(0.0861927 -0.00512626 2.28188e-19)
(0.169056 -0.00584206 -1.38627e-19)
(0.273139 -0.00312613 1.30486e-19)
(0.393544 0.00385133 2.36887e-19)
(0.52391 0.015098 -1.66804e-19)
(0.656797 0.0298436 -2.00472e-19)
(0.784567 0.0467511 5.63873e-21)
(0.900457 0.0642094 2.54726e-19)
(0.999491 0.0806542 0)
(1.07898 0.0948384 6.80276e-20)
(1.13855 0.105993 0)
(1.17977 0.11386 -1.06836e-19)
(1.20551 0.118616 1.49587e-19)
(1.21925 0.120732 9.48468e-22)
(1.22445 0.120812 -3.80485e-20)
(1.22414 0.119457 6.91534e-20)
(1.22065 0.117175 5.97502e-20)
(1.21559 0.114336 -5.29136e-20)
(1.20996 0.111197 4.81822e-20)
(1.2043 0.107788 -4.27012e-20)
(1.19882 0.104675 0)
(1.19392 0.0997494 -3.25021e-20)
(0.00653473 -0.000827236 8.12849e-20)
(0.0530185 -0.00762822 8.5024e-20)
(0.131744 -0.00965179 -7.63744e-20)
(0.237262 -0.00659248 1.41983e-19)
(0.363485 0.00198134 -1.33638e-19)
(0.502758 0.016028 1.20395e-19)
(0.64596 0.0344795 -5.77509e-20)
(0.783652 0.0554683 1.5074e-19)
(0.907566 0.076795 -9.4432e-20)
(1.01185 0.0964127 1.64361e-19)
(1.09369 0.1128 -3.77186e-19)
(1.15319 0.125145 1.37804e-19)
(1.19271 0.133333 -1.17698e-19)
(1.21599 0.137785 1.10554e-19)
(1.22719 0.139226 9.29427e-20)
(1.2302 0.13847 7.97941e-20)
(1.22815 0.136254 -2.22365e-19)
(1.22336 0.133152 1.3713e-19)
(1.21731 0.129561 -5.97521e-20)
(1.21091 0.125724 1.54224e-19)
(1.20461 0.121773 -4.98461e-20)
(1.19861 0.117735 -1.19329e-19)
(1.19298 0.113904 1.09825e-19)
(1.18782 0.108786 3.2492e-20)
(0.0159739 -0.00320415 0)
(0.0841774 -0.0116033 5.73894e-22)
(0.186808 -0.0109061 1.58612e-19)
(0.31617 -0.00213015 -1.48907e-19)
(0.463193 0.0139046 -1.33966e-19)
(0.617049 0.0358127 2.48631e-19)
(0.766203 0.0611401 -1.15296e-19)
(0.900418 0.0869267 1.5243e-19)
(1.01251 0.110452 -3.94509e-21)
(1.0992 0.129778 -8.56258e-20)
(1.16086 0.143973 1.83879e-19)
(1.20059 0.153033 -2.70267e-19)
(1.22295 0.157618 0)
(1.23277 0.158718 -5.18268e-20)
(1.23436 0.15736 -1.3627e-19)
(1.23108 0.154429 4.31596e-20)
(1.22527 0.150582 2.00412e-21)
(1.21839 0.146257 -9.02082e-20)
(1.2113 0.141714 6.90244e-21)
(1.2044 0.137096 1.03758e-19)
(1.19787 0.132467 -4.52741e-20)
(1.19177 0.127859 -1.70188e-20)
(1.18605 0.123365 5.30716e-20)
(1.18072 0.118088 0)
(0.0281047 -0.00496555 0)
(0.121992 -0.0130897 4.29879e-20)
(0.250649 -0.00746266 -2.06467e-19)
(0.403492 0.00899483 7.4945e-20)
(0.567946 0.033628 -7.05357e-20)
(0.730222 0.0632996 -6.40964e-20)
(0.87757 0.0941366 -1.129e-19)
(1.00079 0.122472 5.66404e-20)
(1.09553 0.145697 4.8984e-20)
(1.16212 0.162594 0)
(1.20421 0.173198 1.08973e-19)
(1.22717 0.178397 -1.60865e-19)
(1.23662 0.179464 1.19451e-19)
(1.23742 0.177678 5.18534e-20)
(1.23324 0.174108 -4.17453e-20)
(1.22658 0.169527 -3.40464e-20)
(1.21896 0.16444 -3.13695e-20)
(1.21121 0.159141 9.55875e-20)
(1.20374 0.153789 0)
(1.19672 0.148463 4.67357e-20)
(1.19017 0.143199 3.85415e-20)
(1.18407 0.138014 -9.65427e-20)
(1.17833 0.132889 -6.49587e-20)
(1.1729 0.127441 6.01067e-20)
(0.0430244 -0.00568195 -4.61637e-20)
(0.166065 -0.0110199 -1.57602e-21)
(0.321659 0.00196083 4.19232e-20)
(0.495857 0.0277706 1.16681e-19)
(0.672608 0.0613688 3.36835e-20)
(0.83621 0.0977193 -6.52166e-20)
(0.974573 0.131905 5.9603e-20)
(1.08142 0.160259 -5.20503e-20)
(1.15639 0.180983 9.26231e-20)
(1.20346 0.194003 3.90176e-20)
(1.22882 0.200402 -1.10763e-19)
(1.23899 0.201774 3.2355e-20)
(1.23958 0.199718 5.45232e-20)
(1.23478 0.195548 -2.69486e-20)
(1.22737 0.190205 0)
(1.21901 0.184291 3.90665e-20)
(1.21059 0.178155 6.52409e-20)
(1.20252 0.171982 1.05301e-20)
(1.19497 0.165863 -5.38715e-20)
(1.18796 0.159842 2.22277e-20)
(1.18146 0.153939 0)
(1.1754 0.148153 -1.71466e-20)
(1.16969 0.14243 -1.60523e-20)
(1.16422 0.136756 0)
(0.0606182 -0.00488175 0)
(0.215411 -0.00436993 2.41551e-20)
(0.397392 0.0183618 4.45778e-20)
(0.58917 0.0546091 -1.18674e-19)
(0.772009 0.0966192 3.82677e-20)
(0.930096 0.137734 0)
(1.05405 0.172745 5.70577e-20)
(1.14185 0.1988 -7.95534e-20)
(1.19733 0.215431 -4.61737e-20)
(1.2274 0.22383 2.08123e-20)
(1.23969 0.225953 -3.26513e-20)
(1.2408 0.22381 7.96176e-20)
(1.2357 0.21906 3.92743e-20)
(1.22764 0.212885 -2.7633e-20)
(1.21855 0.206033 -2.91189e-21)
(1.20941 0.198932 -7.32496e-20)
(1.2007 0.191808 3.32011e-20)
(1.19257 0.18477 -8.31872e-22)
(1.18508 0.17787 0)
(1.17818 0.171134 -2.22509e-20)
(1.17179 0.164568 0)
(1.16583 0.158151 4.92898e-20)
(1.1602 0.15186 -5.83256e-20)
(1.15476 0.145873 2.64539e-20)
(0.0805225 -0.00209571 -1.25126e-20)
(0.268458 0.00772772 -6.05604e-20)
(0.474755 0.0423249 6.87727e-20)
(0.6791 0.0893045 4.03299e-20)
(0.861652 0.138299 -1.93157e-20)
(1.00863 0.181764 3.21942e-20)
(1.115 0.215148 -1.56891e-20)
(1.1835 0.237095 2.59247e-20)
(1.22153 0.248688 0)
(1.23792 0.252251 5.79654e-20)
(1.24063 0.25032 -2.60029e-21)
(1.23572 0.245037 -4.63763e-20)
(1.22718 0.237939 1.96659e-20)
(1.21735 0.229996 -2.19274e-20)
(1.20746 0.22176 -8.11955e-21)
(1.19804 0.213514 9.61608e-21)
(1.1893 0.205395 -7.2668e-21)
(1.18128 0.197467 -3.90553e-20)
(1.17395 0.189759 2.38883e-20)
(1.16723 0.182282 4.80801e-21)
(1.16102 0.175029 4.19209e-21)
(1.15522 0.167968 3.65585e-21)
(1.14972 0.16114 0)
(1.14437 0.15473 0)
(0.102188 0.00310521 1.25212e-20)
(0.32326 0.0258932 -1.25189e-20)
(0.55044 0.073939 -2.28835e-20)
(0.76171 0.131077 0)
(0.938233 0.184972 -9.56579e-21)
(1.07025 0.228262 -8.56114e-21)
(1.15796 0.257955 -1.46122e-20)
(1.20853 0.27458 0)
(1.23198 0.280722 0)
(1.23797 0.279555 0)
(1.23405 0.27389 0)
(1.22535 0.265792 0)
(1.21488 0.256574 -1.2295e-20)
(1.20421 0.246979 5.58312e-21)
(1.19406 0.237389 9.60519e-21)
(1.18467 0.227979 4.47612e-21)
(1.1761 0.218828 1.09245e-20)
(1.16831 0.209968 0)
(1.16124 0.201412 -2.54909e-21)
(1.15481 0.193163 -2.42244e-21)
(1.14888 0.185196 -4.19876e-21)
(1.14335 0.17749 -3.66169e-21)
(1.13808 0.170148 0)
(1.13295 0.163201 2.54725e-21)
(0.00037545 -0.0478182 9.16757e-21)
(-0.00253908 -0.113577 -9.51303e-21)
(-0.0110914 -0.157481 -1.80012e-20)
(-0.0231707 -0.184569 0)
(-0.0373165 -0.199354 -2.41921e-20)
(-0.0525971 -0.205717 7.6688e-21)
(-0.0683071 -0.206688 -1.43056e-20)
(-0.0839401 -0.204358 0)
(-0.0991645 -0.199951 0)
(-0.11377 -0.193988 0)
(-0.127616 -0.186487 0)
(-0.140594 -0.177156 0)
(-0.1526 -0.165547 3.31556e-22)
(-0.163522 -0.151169 -9.87593e-21)
(-0.173229 -0.133548 1.81194e-20)
(-0.181575 -0.112275 2.59594e-20)
(-0.18839 -0.087036 7.66994e-21)
(-0.193481 -0.0576445 0)
(-0.196704 -0.0240598 7.40969e-21)
(-0.197884 0.0136921 -2.00332e-20)
(-0.196856 0.0551555 -1.21326e-20)
(-0.193539 0.0997679 -1.12058e-20)
(-0.187987 0.146883 0)
(-0.1812 0.195596 0)
(0.00251058 -0.0431311 -2.7275e-20)
(0.00143417 -0.10211 4.72308e-20)
(-0.00750167 -0.141308 -1.74195e-20)
(-0.0210336 -0.165281 -3.35406e-20)
(-0.0370719 -0.178192 4.76168e-20)
(-0.0543753 -0.183624 -2.98759e-20)
(-0.072077 -0.184337 4.24049e-20)
(-0.0896061 -0.182211 2.61548e-20)
(-0.106629 -0.178324 0)
(-0.122965 -0.173111 -2.41579e-20)
(-0.13851 -0.166557 -1.27243e-22)
(-0.153188 -0.158377 2.14497e-20)
(-0.16692 -0.148152 2.93931e-20)
(-0.1796 -0.135431 3.71548e-20)
(-0.191095 -0.119785 -1.81507e-20)
(-0.201236 -0.100847 -4.97652e-20)
(-0.209832 -0.0783338 1.44341e-20)
(-0.216673 -0.052065 -5.56148e-20)
(-0.221383 -0.0219795 0)
(-0.223843 0.0118587 1.30626e-20)
(-0.223967 0.0491451 1.21187e-20)
(-0.221303 0.0895324 1.11926e-20)
(-0.215805 0.132644 0)
(-0.209596 0.177992 0)
(0.00394645 -0.0370478 0)
(0.00407038 -0.0879197 9.11421e-20)
(-0.00514173 -0.122039 -3.44776e-20)
(-0.0195644 -0.143053 3.30504e-20)
(-0.0366361 -0.154491 -9.19739e-20)
(-0.0548807 -0.159457 0)
(-0.0733052 -0.160348 -5.46826e-20)
(-0.0912833 -0.158788 2.5302e-20)
(-0.10847 -0.155703 -4.76494e-20)
(-0.124696 -0.15146 2.14993e-20)
(-0.139874 -0.146034 1.26936e-19)
(-0.153948 -0.139168 -5.9523e-20)
(-0.166848 -0.13049 -9.35879e-20)
(-0.178477 -0.119606 -3.32028e-20)
(-0.188698 -0.106144 7.16394e-22)
(-0.197332 -0.0897874 1.20027e-19)
(-0.204154 -0.0702962 -5.59529e-20)
(-0.208909 -0.0475094 2.70724e-21)
(-0.211318 -0.0213352 0)
(-0.211156 0.00806956 -4.01568e-20)
(-0.208207 0.040637 0)
(-0.201938 0.0761739 -3.6464e-20)
(-0.191827 0.114485 1.27078e-19)
(-0.180607 0.155315 -1.9464e-21)
(0.0045363 -0.0300615 0)
(0.00511081 -0.0720417 -7.17847e-22)
(-0.00428804 -0.100956 3.35001e-20)
(-0.0190338 -0.119252 -3.15905e-20)
(-0.0362883 -0.129622 3.03879e-20)
(-0.0544319 -0.134575 1.69394e-19)
(-0.0723886 -0.136074 -5.32868e-20)
(-0.0894877 -0.135463 -4.94546e-20)
(-0.105365 -0.133512 9.39128e-20)
(-0.119841 -0.130524 -1.32082e-19)
(-0.132832 -0.126477 4.04036e-20)
(-0.144278 -0.12115 3.73979e-20)
(-0.154115 -0.114228 0)
(-0.162246 -0.105371 3.37623e-20)
(-0.168538 -0.094268 0)
(-0.172818 -0.0806574 5.35261e-20)
(-0.174871 -0.0643467 -9.96926e-20)
(-0.174409 -0.0452175 2.74383e-20)
(-0.171197 -0.0232433 8.48919e-20)
(-0.165011 0.00152187 4.01179e-20)
(-0.155597 0.0290438 0)
(-0.1425 0.0593276 -9.07411e-20)
(-0.124574 0.0925552 3.00545e-20)
(-0.10342 0.128876 0)
(0.00422815 -0.0226681 0)
(0.00446587 -0.0554835 -1.05563e-19)
(-0.00505065 -0.0792616 -3.32853e-20)
(-0.0195787 -0.0951092 -6.2712e-20)
(-0.0362123 -0.104783 5.90553e-20)
(-0.0532901 -0.110126 -5.60961e-20)
(-0.0697044 -0.112638 1.04128e-19)
(-0.0847586 -0.113364 4.89499e-20)
(-0.0980667 -0.112915 -1.37915e-19)
(-0.109434 -0.11153 8.47038e-20)
(-0.118761 -0.109189 -1.19135e-19)
(-0.125983 -0.105705 2.53974e-19)
(-0.131031 -0.100815 -1.36508e-19)
(-0.133814 -0.0942325 6.08196e-20)
(-0.134207 -0.0856954 1.67166e-19)
(-0.132056 -0.0749875 -5.70849e-20)
(-0.127173 -0.0619568 -4.89515e-20)
(-0.119337 -0.0465274 -4.53763e-20)
(-0.1083 -0.0287231 0)
(-0.093824 -0.00859677 -6.46342e-20)
(-0.0756983 0.0137614 -5.32427e-20)
(-0.0536235 0.0383826 8.25036e-20)
(-0.0263738 0.0658161 9.05782e-20)
(0.00712727 0.0975236 -8.2242e-20)
(0.00306461 -0.0153229 0)
(0.0022292 -0.0391576 -1.38404e-19)
(-0.00732531 -0.0580193 7.61055e-23)
(-0.0211037 -0.0716816 1.23725e-19)
(-0.0363333 -0.0809496 0)
(-0.0514137 -0.0869879 0)
(-0.0652609 -0.0908241 0)
(-0.077178 -0.0932046 -4.79023e-20)
(-0.0867652 -0.0945721 8.89699e-22)
(-0.0938092 -0.0951001 8.37612e-20)
(-0.0981956 -0.0947593 -1.15399e-19)
(-0.0998506 -0.093391 1.04797e-21)
(-0.098706 -0.0907705 0)
(-0.094682 -0.0866551 -6.07935e-20)
(-0.0876799 -0.0808195 5.05658e-20)
(-0.0775809 -0.0730799 -1.47194e-19)
(-0.0642476 -0.0633113 1.72903e-19)
(-0.0475252 -0.0514613 3.07812e-20)
(-0.0272462 -0.0375631 -8.60989e-21)
(-0.00321531 -0.0217263 -1.25033e-19)
(0.0247439 -0.0041369 -5.09049e-20)
(0.0568071 0.0150365 1.56927e-19)
(0.0939031 0.0362328 -9.99478e-20)
(0.140895 0.0614798 0)
(0.00117698 -0.00842646 6.61646e-20)
(-0.00131689 -0.0238631 6.90112e-20)
(-0.010754 -0.0381478 -6.5197e-20)
(-0.0231965 -0.0498509 -1.23048e-19)
(-0.0361771 -0.0588877 1.1587e-19)
(-0.0482465 -0.0657738 -1.08531e-19)
(-0.0583945 -0.0710812 1.52978e-19)
(-0.0659486 -0.0752613 -4.75107e-20)
(-0.0705032 -0.078588 8.89769e-20)
(-0.0718266 -0.0811554 0)
(-0.0697865 -0.0829125 7.33727e-20)
(-0.0643 -0.08371 -1.39544e-19)
(-0.0553042 -0.0833463 1.25025e-19)
(-0.0427418 -0.0816044 -1.17427e-19)
(-0.0265552 -0.0782813 0)
(-0.00668563 -0.0732102 9.3825e-20)
(0.0169267 -0.0662785 1.60036e-19)
(0.0443422 -0.0574428 -1.51753e-19)
(0.0756227 -0.04674 -6.35165e-20)
(0.110836 -0.0342924 -5.33129e-20)
(0.150022 -0.0203375 1.52917e-19)
(0.193535 -0.00517788 3.74538e-20)
(0.239415 0.010893 -3.83507e-20)
(0.303484 0.0294922 3.11351e-20)
(-0.00122413 -0.00231944 -6.61735e-20)
(-0.00571186 -0.0102832 2.07091e-19)
(-0.0147206 -0.0204356 -6.4895e-20)
(-0.0251034 -0.0303644 1.22946e-19)
(-0.0348235 -0.039217 -1.15773e-19)
(-0.0426462 -0.0469239 4.61506e-22)
(-0.04767 -0.053635 5.1015e-20)
(-0.049261 -0.0595196 1.88246e-19)
(-0.0470093 -0.0646788 -2.43408e-21)
(-0.0406619 -0.0691129 -8.28012e-20)
(-0.0300662 -0.0727283 0)
(-0.0151344 -0.0753627 -6.62477e-20)
(0.00417691 -0.0768156 1.2716e-19)
(0.0278755 -0.0768768 1.10978e-19)
(0.055937 -0.0753511 -5.34815e-20)
(0.0883049 -0.0720799 -8.20103e-22)
(0.124893 -0.0669593 -4.09906e-20)
(0.165585 -0.0599558 7.08205e-20)
(0.210245 -0.0511181 6.34981e-20)
(0.258748 -0.0405756 -5.53897e-20)
(0.310592 -0.0286508 4.71628e-20)
(0.367576 -0.0153286 -4.09525e-20)
(0.420533 -0.00205245 0)
(0.504518 0.0132946 -3.10903e-20)
(-0.00385793 0.00271689 6.6757e-20)
(-0.0103383 0.000996299 -6.90931e-20)
(-0.0183912 -0.00557295 6.5854e-20)
(-0.0257837 -0.0138897 0)
(-0.0309846 -0.0224995 0)
(-0.0330053 -0.0308362 1.09143e-19)
(-0.0310701 -0.0386744 -1.02181e-19)
(-0.0245911 -0.0459188 9.37614e-20)
(-0.0131603 -0.0524961 -4.40265e-19)
(0.00348485 -0.0582987 1.24327e-21)
(0.0254905 -0.0631699 7.49394e-20)
(0.0529029 -0.0669134 0)
(0.0856742 -0.069313 -1.22175e-19)
(0.123664 -0.0701551 2.24821e-19)
(0.166642 -0.0692526 -1.54097e-19)
(0.214291 -0.0664656 -2.20608e-19)
(0.266218 -0.0617198 9.57622e-21)
(0.321968 -0.0550218 1.45224e-19)
(0.381021 -0.0464769 0)
(0.443027 -0.0362027 0)
(0.506331 -0.0248353 -4.71527e-20)
(0.575285 -0.0115753 4.09434e-20)
(0.631846 0.000473509 -1.38876e-19)
(0.729578 0.0159972 1.30293e-19)
(-0.0064132 0.00648005 0)
(-0.0144845 0.00952613 0)
(-0.0207826 0.00586963 -1.98248e-19)
(-0.024016 -0.00102701 6.28549e-20)
(-0.02317 -0.00928928 3.9431e-22)
(-0.0175099 -0.0179555 1.10877e-19)
(-0.00639545 -0.0264822 0)
(0.0106901 -0.0345369 -9.58101e-20)
(0.03411 -0.0418768 8.83055e-20)
(0.0640655 -0.0482795 -1.62048e-19)
(0.100591 -0.0535155 1.66335e-21)
(0.143545 -0.0573483 1.3499e-19)
(0.192605 -0.0595491 -4.49791e-21)
(0.24727 -0.0599182 1.05405e-19)
(0.306872 -0.0583071 -1.56188e-19)
(0.370602 -0.0546401 0)
(0.437547 -0.0489292 1.55376e-19)
(0.506738 -0.0412818 -2.16379e-19)
(0.577134 -0.0319318 6.26281e-20)
(0.648068 -0.0210362 0)
(0.717116 -0.00952904 4.85719e-20)
(0.789235 0.00380724 1.63936e-19)
(0.844701 0.0148678 -1.53845e-19)
(0.937577 0.0304127 -1.65467e-19)
(-0.00857711 0.008878 2.05984e-19)
(-0.017421 0.0150394 -2.84347e-19)
(-0.0208806 0.0134888 8.70091e-23)
(-0.0185381 0.00775375 6.35456e-20)
(-0.009868 -5.27714e-05 -1.19098e-19)
(0.00560665 -0.00868189 -1.10321e-19)
(0.0283564 -0.0173384 2.05794e-19)
(0.0587581 -0.0254874 -3.20408e-21)
(0.0970127 -0.0327343 -1.79662e-19)
(0.14309 -0.0387526 3.27162e-19)
(0.196688 -0.0432534 -4.29792e-21)
(0.257213 -0.0459847 -1.39916e-19)
(0.323774 -0.0467455 0)
(0.395219 -0.0454064 0)
(0.470187 -0.0419285 -5.06362e-20)
(0.54718 -0.0363774 -9.08914e-20)
(0.624656 -0.0289278 -1.56756e-19)
(0.701113 -0.0198614 1.47141e-19)
(0.775141 -0.00955413 -6.2646e-20)
(0.845658 0.00160822 1.08179e-19)
(0.910957 0.0128855 -5.44954e-20)
(0.973276 0.0247399 8.01183e-20)
(1.02133 0.0342305 -1.98706e-19)
(1.08931 0.0468948 3.37547e-20)
(-0.0100695 0.00993222 6.9558e-20)
(-0.0184314 0.0174888 0)
(-0.0176515 0.017147 1.36064e-19)
(-0.00805837 0.0122612 -1.28181e-19)
(0.0104307 0.00502096 1.19199e-19)
(0.0380155 -0.00313983 0)
(0.0749144 -0.0112422 0)
(0.121212 -0.0185982 -9.60334e-20)
(0.176722 -0.0247001 3.14632e-21)
(0.24089 -0.0291577 8.47662e-20)
(0.312739 -0.0316764 -7.40353e-20)
(0.390868 -0.0320591 1.40713e-19)
(0.473504 -0.0302194 0)
(0.558606 -0.0261942 2.22289e-19)
(0.644007 -0.020148 -4.07938e-19)
(0.727559 -0.0123673 2.7798e-19)
(0.807278 -0.00323928 1.58139e-19)
(0.881459 0.00676107 -1.48446e-19)
(0.948783 0.0171628 0)
(1.00828 0.0273463 0)
(1.05954 0.0370654 0)
(1.10262 0.0455088 0)
(1.13604 0.0525763 3.93263e-20)
(1.17097 0.0593561 -1.41603e-19)
(-0.173579 0.252346 -6.8964e-21)
(-0.161026 0.320513 6.91721e-21)
(-0.145221 0.387152 -1.81187e-22)
(-0.126796 0.448574 0)
(-0.105431 0.501264 -5.02948e-21)
(-0.0801655 0.541102 9.49515e-21)
(-0.0492728 0.564214 -1.89927e-22)
(-0.0102744 0.565378 -4.16776e-21)
(0.0390268 0.539882 0)
(0.0996002 0.484198 0)
(0.170485 0.39771 -2.6384e-22)
(0.248264 0.283503 -2.7135e-22)
(0.328207 0.14673 -4.49786e-21)
(0.406201 -0.00593389 4.10441e-21)
(0.480497 -0.166293 0)
(0.549188 -0.319403 0)
(0.608019 -0.445454 2.64092e-21)
(0.652662 -0.529016 -4.78814e-22)
(0.680778 -0.568288 -1.91297e-21)
(0.693087 -0.573154 -9.02705e-23)
(0.693698 -0.556804 0)
(0.685118 -0.534743 0)
(0.66334 -0.524162 0)
(0.625353 -0.528432 0)
(0.581568 -0.520488 0)
(0.555149 -0.454297 0)
(0.56305 -0.305858 5.93953e-22)
(0.602752 -0.0982891 -9.24858e-22)
(0.659228 0.113268 0)
(0.717058 0.282963 0)
(0.764027 0.390485 -4.45678e-22)
(0.796485 0.441859 4.33143e-22)
(0.816502 0.453666 1.53314e-22)
(0.821415 0.456931 0)
(0.803167 0.47433 0)
(0.763501 0.491057 3.02521e-22)
(0.723263 0.457048 -2.94074e-22)
(0.706185 0.329322 0)
(0.717329 0.135222 4.02175e-22)
(0.75038 -0.0752259 -5.91286e-22)
(0.787681 -0.230693 1.65718e-22)
(0.824648 -0.329591 0)
(0.844912 -0.371246 -1.82224e-22)
(0.834723 -0.400399 1.77195e-22)
(0.7947 -0.415157 0)
(0.747724 -0.373028 0)
(0.727254 -0.272957 -8.45241e-23)
(0.743587 -0.0807209 2.38587e-22)
(0.781742 0.0642432 0)
(0.818573 0.21758 0)
(0.823576 0.297164 -5.10764e-23)
(0.796961 0.357142 1.51043e-24)
(0.775889 0.371552 -1.49991e-24)
(0.774417 0.227729 4.57965e-23)
(0.795851 0.147705 0)
(0.815359 -0.0926653 0)
(0.812002 -0.195749 0)
(0.800789 -0.294056 0)
(0.801203 -0.379936 0)
(0.786081 -0.108811 0)
(-0.20566 0.231675 -5.6028e-22)
(-0.19036 0.29616 -2.25533e-20)
(-0.16984 0.35923 1.14015e-21)
(-0.143683 0.416978 2.01105e-20)
(-0.111208 0.466273 2.71994e-22)
(-0.0711625 0.501348 0)
(-0.0226058 0.518582 -1.64759e-20)
(0.0355271 0.51329 3.2906e-20)
(0.103939 0.481373 -1.64372e-20)
(0.181286 0.420773 1.7529e-20)
(0.264784 0.33205 -1.67719e-20)
(0.35013 0.218655 1.82188e-20)
(0.433242 0.0853351 -1.77312e-20)
(0.511394 -0.0632498 -5.75758e-22)
(0.583512 -0.218977 -1.61066e-20)
(0.647082 -0.366217 1.56517e-20)
(0.696735 -0.483449 -1.13232e-20)
(0.728271 -0.555282 1.0689e-20)
(0.74155 -0.581961 -6.97058e-21)
(0.739383 -0.576306 1.21373e-20)
(0.726915 -0.552634 -5.23366e-21)
(0.708569 -0.523734 -2.47201e-22)
(0.681554 -0.504456 -3.73897e-21)
(0.639807 -0.50187 7.5034e-21)
(0.588164 -0.496538 -3.76075e-21)
(0.547561 -0.445078 2.58989e-22)
(0.539793 -0.316585 5.49982e-21)
(0.568422 -0.124773 3.35791e-22)
(0.62058 0.0799621 -1.00322e-20)
(0.679637 0.252045 8.79463e-21)
(0.732118 0.367025 -3.96579e-21)
(0.773058 0.426587 3.43147e-22)
(0.802129 0.44641 -1.53636e-22)
(0.813608 0.458998 2.6993e-22)
(0.799971 0.485638 0)
(0.765857 0.506694 0)
(0.73342 0.469196 -1.54699e-21)
(0.724539 0.332691 1.07508e-21)
(0.740883 0.129329 1.29136e-21)
(0.775725 -0.0867878 4.11698e-23)
(0.809231 -0.243422 -1.66875e-21)
(0.840473 -0.338902 2.71646e-22)
(0.855233 -0.372885 0)
(0.84275 -0.392463 0)
(0.800479 -0.401832 0)
(0.749757 -0.362649 0)
(0.726313 -0.272276 2.77293e-22)
(0.739427 -0.0888489 -1.56529e-22)
(0.778368 0.053225 0)
(0.813277 0.211752 0)
(0.819204 0.299169 0)
(0.79254 0.362762 -9.47675e-23)
(0.772439 0.374392 -6.22281e-24)
(0.774054 0.225374 -8.79783e-23)
(0.797309 0.14318 0)
(0.822189 -0.0939709 0)
(0.81767 -0.194736 5.66828e-23)
(0.806615 -0.292608 1.39461e-22)
(0.805533 -0.378574 0)
(0.787705 -0.107415 0)
(-0.175498 0.204397 -1.16065e-21)
(-0.157708 0.263715 -3.91205e-20)
(-0.132909 0.322312 3.64237e-20)
(-0.0998921 0.374609 -3.4117e-20)
(-0.0589878 0.417928 -2.73864e-22)
(-0.00929149 0.447803 0)
(0.0512718 0.459931 -3.27434e-20)
(0.121512 0.450255 3.20789e-20)
(0.200366 0.415221 2.60955e-22)
(0.285542 0.353684 5.5408e-22)
(0.373591 0.266854 5.83388e-22)
(0.460415 0.158142 5.85555e-22)
(0.542418 0.0313375 -3.89147e-20)
(0.618126 -0.110399 3.83935e-20)
(0.68696 -0.259588 0)
(0.74476 -0.399312 9.86777e-22)
(0.784612 -0.506986 -2.36909e-20)
(0.802649 -0.568101 2.3337e-20)
(0.801216 -0.584754 0)
(0.785624 -0.571544 0)
(0.761605 -0.543493 -9.06581e-21)
(0.734366 -0.510706 1.64715e-20)
(0.702812 -0.48444 -1.40759e-20)
(0.659205 -0.474325 4.02548e-23)
(0.602655 -0.469487 1.37098e-20)
(0.55012 -0.431834 -1.55821e-20)
(0.526646 -0.324878 1.6509e-20)
(0.542402 -0.151507 -1.73672e-22)
(0.588107 0.0441216 -8.84526e-21)
(0.646567 0.217176 0)
(0.703328 0.338886 0)
(0.75197 0.406846 1.83112e-21)
(0.789474 0.435659 -2.41586e-21)
(0.807378 0.458403 -8.8835e-24)
(0.798934 0.494495 2.36305e-21)
(0.771172 0.520053 -2.29655e-21)
(0.746694 0.480088 0)
(0.745796 0.336401 4.30388e-22)
(0.767125 0.125412 4.23352e-21)
(0.803511 -0.0951835 -7.89104e-21)
(0.833245 -0.252728 3.21545e-21)
(0.858368 -0.345579 2.95742e-22)
(0.867333 -0.373191 -1.90454e-21)
(0.852648 -0.383925 1.44626e-21)
(0.80875 -0.388195 2.55833e-22)
(0.754856 -0.352136 2.40581e-22)
(0.728614 -0.271995 -2.77989e-22)
(0.738085 -0.0977045 0)
(0.777256 0.0415833 0)
(0.80984 0.205411 -8.08872e-22)
(0.81668 0.300834 3.98431e-22)
(0.789882 0.368074 -3.70653e-22)
(0.770637 0.377243 5.91937e-22)
(0.775209 0.222843 8.30688e-22)
(0.800308 0.138298 -1.73619e-22)
(0.830447 -0.095281 3.60218e-22)
(0.824609 -0.193512 -2.8568e-22)
(0.813383 -0.290798 1.33657e-22)
(0.810693 -0.376921 0)
(0.790241 -0.105917 0)
(-0.0927843 0.173429 -6.64292e-20)
(-0.0726005 0.226206 1.3342e-21)
(-0.0455996 0.277242 6.16008e-20)
(-0.0105555 0.323359 -5.05467e-22)
(0.0353337 0.360655 0)
(0.0909698 0.386212 0)
(0.156743 0.394894 -6.34041e-20)
(0.231413 0.382852 -5.80617e-21)
(0.313177 0.347504 1.00499e-19)
(0.399267 0.288198 2.5789e-21)
(0.486164 0.206326 -3.70352e-20)
(0.570201 0.104774 -3.90118e-20)
(0.648885 -0.0140798 3.90984e-20)
(0.721805 -0.147977 0)
(0.787606 -0.289972 -3.4747e-20)
(0.83984 -0.421498 3.17637e-20)
(0.869877 -0.519261 0)
(0.874623 -0.570371 0)
(0.859063 -0.578952 1.44105e-20)
(0.83118 -0.560424 -2.98641e-21)
(0.797237 -0.530018 -1.04057e-20)
(0.762107 -0.495964 -7.3434e-21)
(0.726329 -0.465134 7.28621e-21)
(0.682396 -0.447128 -6.08654e-21)
(0.624379 -0.439568 -1.807e-22)
(0.563126 -0.413079 5.92944e-21)
(0.524485 -0.328587 8.81551e-22)
(0.525567 -0.176704 1.00716e-22)
(0.562486 0.0076356 0)
(0.618354 0.179192 6.24895e-21)
(0.677954 0.306524 -6.39437e-21)
(0.733238 0.382873 3.12578e-22)
(0.778359 0.421322 0)
(0.802518 0.454607 -2.64262e-22)
(0.799747 0.500142 4.8046e-21)
(0.778858 0.530557 -9.77676e-21)
(0.762342 0.48963 -2.19079e-21)
(0.769088 0.340864 -1.16082e-21)
(0.79522 0.123964 6.6833e-21)
(0.833142 -0.100343 9.25512e-22)
(0.859352 -0.258783 -5.50428e-21)
(0.878171 -0.349803 4.77746e-21)
(0.881076 -0.37242 -4.3141e-24)
(0.864102 -0.375127 1.14303e-21)
(0.81913 -0.374374 -1.36796e-21)
(0.762678 -0.341301 -1.59765e-21)
(0.733858 -0.271806 4.75734e-22)
(0.739299 -0.106994 8.53342e-22)
(0.778224 0.0294297 -1.6217e-21)
(0.808197 0.198521 1.17052e-21)
(0.815996 0.302101 -3.92306e-22)
(0.78909 0.373071 2.99566e-22)
(0.770664 0.380175 3.68278e-22)
(0.778021 0.220234 -1.32341e-21)
(0.804874 0.133135 1.0271e-23)
(0.840075 -0.0965789 -4.25839e-22)
(0.832775 -0.192049 0)
(0.82108 -0.288611 -1.31087e-22)
(0.816628 -0.374972 1.06983e-22)
(0.793624 -0.104322 0)
(0.0234995 0.137727 5.75498e-20)
(0.0434237 0.183878 -1.1155e-19)
(0.0716643 0.22753 5.33949e-20)
(0.108711 0.268094 5.37885e-20)
(0.1555 0.300865 -1.07527e-19)
(0.211871 0.322443 -3.52311e-21)
(0.277414 0.328629 5.6106e-20)
(0.350904 0.316083 6.53755e-20)
(0.430321 0.282672 -6.40605e-20)
(0.512911 0.22781 0)
(0.595473 0.15256 -7.88611e-20)
(0.674995 0.0589961 1.57458e-19)
(0.750121 -0.0512337 -7.85576e-20)
(0.820817 -0.17704 0)
(0.883931 -0.310726 0)
(0.930185 -0.432376 1.01285e-21)
(0.949862 -0.519347 -4.88926e-20)
(0.941625 -0.56132 4.74982e-20)
(0.913156 -0.564344 0)
(0.874681 -0.543409 2.28754e-20)
(0.832914 -0.512735 -3.85228e-20)
(0.791525 -0.479479 3.01409e-20)
(0.751868 -0.44695 -2.4958e-20)
(0.708268 -0.422389 8.36299e-22)
(0.651741 -0.409541 2.02404e-20)
(0.585861 -0.389906 -1.0034e-20)
(0.533847 -0.326459 -3.95769e-22)
(0.519107 -0.198506 -5.8919e-21)
(0.544424 -0.0288392 6.80814e-23)
(0.59522 0.138715 5.89855e-21)
(0.656228 0.270301 3.26681e-22)
(0.716778 0.354722 -4.01858e-21)
(0.768491 0.40307 7.82704e-21)
(0.798668 0.446975 -4.2786e-21)
(0.801941 0.50193 0)
(0.78826 0.537867 -6.50219e-21)
(0.779609 0.497873 6.48916e-21)
(0.793721 0.346338 -7.2919e-21)
(0.824399 0.125053 9.07949e-21)
(0.863821 -0.102293 -1.00386e-21)
(0.887019 -0.261508 0)
(0.89955 -0.351389 -6.07748e-22)
(0.896253 -0.370481 1.28271e-21)
(0.876884 -0.366168 0)
(0.831284 -0.360556 2.23862e-21)
(0.772826 -0.330213 -9.09326e-22)
(0.741658 -0.271502 4.23504e-22)
(0.742743 -0.116559 3.40693e-22)
(0.781021 0.0168195 0)
(0.808227 0.191005 0)
(0.817101 0.302865 -1.0605e-21)
(0.790243 0.377724 1.85799e-21)
(0.772672 0.383234 -1.22851e-21)
(0.782601 0.217652 4.71419e-22)
(0.811011 0.127656 9.37601e-22)
(0.851002 -0.0978652 4.26241e-22)
(0.842111 -0.190299 -6.65792e-22)
(0.829686 -0.286009 0)
(0.823277 -0.37271 -1.94525e-22)
(0.797786 -0.102628 5.04699e-24)
(0.159577 0.0979657 5.1675e-20)
(0.1787 0.139765 -5.12942e-20)
(0.205036 0.178821 4.03259e-22)
(0.240462 0.213693 -3.64295e-22)
(0.285181 0.241922 4.05178e-22)
(0.338812 0.260289 -4.21861e-22)
(0.400722 0.265144 8.48077e-22)
(0.469776 0.253501 0)
(0.54412 0.223418 -9.97802e-22)
(0.621324 0.174084 1.07501e-21)
(0.698694 0.105869 1.1408e-21)
(0.774192 0.0199385 -1.24517e-21)
(0.846832 -0.0817996 0)
(0.91578 -0.199235 0)
(0.975416 -0.322989 1.09688e-21)
(1.01408 -0.432908 0)
(1.02247 -0.508605 -8.15762e-22)
(1.00192 -0.542768 0)
(0.962465 -0.542682 -2.82335e-20)
(0.915499 -0.521952 4.9803e-20)
(0.86791 -0.492772 -3.78447e-20)
(0.822026 -0.461541 1.64037e-20)
(0.778938 -0.429567 1.05141e-20)
(0.735582 -0.4007 -1.02111e-20)
(0.682583 -0.381368 -8.49034e-21)
(0.616567 -0.363818 8.25464e-21)
(0.554573 -0.317842 0)
(0.5235 -0.215039 2.49956e-22)
(0.534763 -0.0642572 0)
(0.57807 0.0967069 0)
(0.63838 0.230702 7.02566e-21)
(0.702457 0.322488 -7.23783e-21)
(0.759553 0.380668 3.85258e-22)
(0.795445 0.435033 4.73354e-22)
(0.804945 0.49932 -4.98433e-22)
(0.798615 0.541687 -5.86573e-21)
(0.797651 0.504747 5.69521e-21)
(0.81869 0.352789 -9.4735e-21)
(0.853797 0.128528 8.23356e-21)
(0.894957 -0.101086 2.04449e-21)
(0.915745 -0.260968 -5.90759e-21)
(0.922157 -0.350313 8.37902e-22)
(0.912609 -0.367378 3.27996e-21)
(0.890721 -0.357176 0)
(0.844831 -0.346862 -8.83181e-22)
(0.78484 -0.318849 1.04697e-21)
(0.751544 -0.27087 -1.39815e-21)
(0.748025 -0.126209 -3.42854e-22)
(0.785358 0.00378072 0)
(0.809764 0.182752 3.42288e-22)
(0.819889 0.302981 -5.89268e-22)