/*--------------------------------*- C++ -*----------------------------------*\
| =========                 |                                                 |
| \\      /  F ield         | OpenFOAM: The Open Source CFD Toolbox           |
|  \\    /   O peration     | Version:  2512                                  |
|   \\  /    A nd           | Website:  www.openfoam.com                      |
|    \\/     M anipulation  |                                                 |
\*---------------------------------------------------------------------------*/
FoamFile
{
    version     2.0;
    format      ascii;
    arch        "LSB;label=32;scalar=64";
    class       volScalarField;
    location    "82";
    object      p;
}
// * * * * * * * * * * * * * * * * * * * * * * * * * * * * * * * * * * * * * //

dimensions      [0 2 -2 0 0 0 0];

internalField   nonuniform List<scalar> 
13248
(
-0.413828
-0.411148
-0.407924
-0.404421
-0.400978
-0.397971
-0.395656
-0.394142
-0.393382
-0.393185
-0.393232
-0.393108
-0.392351
-0.390501
-0.387155
-0.382015
-0.374909
-0.365807
-0.354791
-0.342055
-0.327694
-0.312047
-0.294135
-0.274857
-0.422065
-0.418813
-0.414991
-0.410876
-0.406791
-0.403088
-0.399981
-0.397509
-0.395552
-0.393845
-0.392021
-0.389664
-0.386367
-0.381787
-0.375687
-0.367953
-0.358593
-0.347714
-0.335485
-0.32209
-0.307684
-0.292434
-0.276157
-0.259717
-0.432199
-0.42812
-0.423574
-0.4188
-0.414044
-0.409597
-0.405587
-0.401958
-0.398504
-0.394912
-0.390825
-0.385903
-0.379875
-0.372575
-0.363952
-0.35406
-0.343025
-0.331012
-0.31819
-0.304718
-0.2907
-0.276294
-0.261377
-0.246496
-0.444336
-0.439185
-0.433783
-0.428275
-0.422764
-0.417429
-0.412281
-0.407158
-0.401795
-0.395894
-0.38919
-0.381496
-0.372732
-0.362916
-0.352151
-0.340581
-0.32837
-0.315666
-0.302598
-0.289266
-0.275752
-0.262164
-0.248443
-0.23511
-0.458441
-0.452011
-0.445632
-0.439288
-0.432865
-0.42639
-0.419746
-0.41269
-0.404966
-0.396382
-0.386844
-0.376369
-0.365061
-0.353079
-0.340598
-0.32778
-0.31476
-0.301636
-0.288481
-0.275348
-0.262279
-0.249328
-0.236467
-0.224018
-0.474358
-0.466503
-0.459048
-0.451737
-0.444164
-0.436178
-0.427558
-0.418059
-0.407536
-0.395993
-0.383559
-0.370443
-0.356884
-0.343098
-0.329263
-0.315502
-0.301895
-0.288483
-0.275291
-0.262331
-0.249616
-0.237161
-0.224955
-0.213201
-0.491796
-0.482446
-0.473839
-0.465384
-0.456318
-0.446325
-0.435161
-0.4227
-0.409026
-0.394395
-0.379153
-0.363645
-0.348158
-0.3329
-0.317995
-0.303508
-0.289455
-0.275833
-0.262624
-0.249812
-0.237382
-0.225321
-0.213627
-0.202374
-0.510305
-0.499465
-0.489635
-0.479788
-0.468771
-0.456175
-0.441877
-0.426016
-0.408984
-0.391297
-0.373454
-0.355851
-0.338749
-0.322292
-0.306534
-0.291471
-0.27707
-0.263287
-0.250077
-0.237397
-0.225212
-0.213495
-0.202238
-0.191415
-0.529226
-0.516973
-0.505834
-0.494258
-0.480737
-0.464914
-0.446968
-0.427429
-0.407022
-0.386462
-0.366309
-0.346925
-0.328493
-0.311068
-0.29463
-0.279117
-0.264453
-0.250564
-0.23738
-0.224839
-0.21289
-0.201494
-0.190627
-0.180186
-0.547671
-0.534136
-0.521563
-0.507835
-0.491217
-0.471615
-0.44969
-0.42642
-0.402813
-0.379682
-0.357554
-0.336697
-0.317189
-0.298996
-0.28203
-0.26618
-0.251339
-0.237405
-0.224289
-0.211912
-0.200208
-0.189129
-0.178622
-0.168551
-0.564539
-0.549876
-0.535685
-0.519324
-0.499053
-0.475279
-0.449264
-0.422414
-0.395916
-0.370575
-0.346813
-0.324772
-0.304421
-0.285646
-0.268299
-0.252233
-0.237312
-0.223413
-0.210429
-0.198266
-0.186846
-0.176107
-0.165956
-0.156272
-0.578615
-0.563013
-0.546996
-0.527509
-0.503095
-0.474889
-0.444811
-0.414623
-0.38558
-0.358389
-0.33332
-0.310377
-0.28942
-0.270262
-0.252707
-0.236574
-0.221702
-0.207949
-0.195194
-0.183331
-0.172275
-0.161946
-0.152222
-0.143039
-0.326146
-0.328104
-0.329351
-0.330283
-0.331257
-0.332382
-0.333691
-0.335192
-0.336866
-0.338681
-0.340593
-0.342548
-0.344478
-0.346295
-0.34789
-0.349132
-0.349911
-0.350079
-0.349494
-0.348027
-0.345576
-0.342081
-0.33755
-0.33206
-0.336151
-0.337668
-0.338745
-0.339716
-0.340891
-0.342381
-0.344223
-0.346423
-0.348966
-0.351818
-0.354936
-0.358258
-0.361707
-0.365181
-0.36854
-0.371609
-0.374183
-0.376069
-0.377001
-0.37673
-0.375021
-0.371657
-0.366445
-0.359465
-0.34637
-0.347328
-0.34815
-0.349088
-0.350391
-0.352166
-0.354455
-0.357263
-0.360572
-0.36435
-0.368549
-0.373103
-0.37792
-0.382875
-0.387804
-0.392488
-0.39666
-0.400021
-0.402206
-0.40284
-0.401549
-0.39796
-0.391661
-0.382818
-0.356344
-0.356672
-0.357163
-0.35798
-0.359303
-0.361236
-0.363825
-0.367075
-0.370966
-0.375461
-0.380507
-0.386026
-0.391912
-0.398014
-0.404135
-0.410018
-0.415341
-0.419689
-0.422628
-0.42369
-0.422333
-0.418102
-0.410404
-0.399106
-0.365657
-0.365339
-0.365442
-0.366037
-0.36724
-0.369159
-0.371848
-0.375313
-0.379531
-0.384459
-0.390033
-0.396161
-0.402716
-0.409521
-0.416342
-0.422877
-0.428742
-0.433477
-0.436558
-0.437415
-0.435469
-0.430149
-0.420958
-0.407062
-0.373988
-0.37308
-0.372759
-0.373028
-0.373954
-0.375661
-0.378215
-0.38163
-0.385882
-0.39092
-0.396667
-0.403015
-0.409811
-0.416839
-0.423836
-0.430454
-0.436261
-0.440744
-0.443329
-0.443399
-0.440362
-0.433563
-0.42304
-0.406623
-0.381177
-0.379786
-0.379032
-0.378879
-0.379375
-0.380668
-0.382848
-0.385943
-0.389934
-0.394764
-0.400344
-0.406548
-0.413212
-0.420002
-0.426699
-0.432892
-0.438099
-0.441769
-0.443302
-0.442069
-0.437569
-0.429006
-0.417234
-0.398769
-0.38725
-0.385514
-0.38434
-0.383688
-0.383622
-0.384322
-0.385915
-0.388453
-0.391925
-0.396273
-0.401389
-0.407112
-0.413214
-0.419507
-0.425536
-0.430876
-0.435018
-0.43739
-0.437404
-0.434455
-0.428223
-0.417844
-0.404812
-0.385081
-0.392429
-0.390483
-0.388912
-0.38771
-0.386984
-0.386962
-0.387813
-0.389619
-0.392386
-0.396056
-0.4005
-0.405539
-0.410915
-0.416304
-0.421278
-0.425351
-0.42798
-0.428602
-0.426695
-0.421758
-0.413658
-0.401693
-0.387497
-0.367337
-0.397116
-0.395054
-0.393104
-0.391323
-0.389887
-0.389077
-0.389105
-0.390085
-0.392035
-0.394894
-0.398518
-0.402674
-0.407045
-0.411238
-0.414779
-0.417145
-0.417802
-0.416252
-0.412096
-0.405051
-0.395168
-0.382125
-0.367299
-0.347574
-0.401849
-0.399688
-0.397352
-0.394981
-0.392827
-0.39122
-0.390411
-0.390532
-0.391613
-0.39357
-0.396215
-0.399259
-0.40232
-0.404939
-0.40661
-0.406814
-0.405077
-0.401024
-0.394421
-0.385242
-0.373691
-0.359985
-0.345229
-0.327041
-0.407233
-0.404893
-0.402135
-0.399173
-0.396325
-0.393958
-0.392342
-0.391619
-0.391794
-0.392743
-0.394221
-0.395868
-0.397244
-0.397857
-0.397212
-0.394864
-0.39046
-0.38379
-0.374784
-0.363576
-0.350345
-0.335656
-0.320145
-0.303758
-0.324717
-0.314608
-0.304173
-0.294209
-0.285773
-0.279842
-0.277283
-0.278417
-0.282726
-0.288792
-0.294134
-0.29651
-0.291725
-0.2781
-0.254921
-0.224244
-0.19052
-0.15908
-0.134145
-0.117717
-0.109933
-0.110771
-0.121154
-0.140903
-0.164996
-0.183157
-0.185038
-0.168689
-0.140919
-0.111593
-0.0876664
-0.0719811
-0.0641254
-0.0625011
-0.0676762
-0.08106
-0.0985596
-0.109497
-0.10579
-0.0904554
-0.0729425
-0.0603303
-0.0530363
-0.0509705
-0.0567325
-0.0673519
-0.0740692
-0.0697408
-0.058373
-0.0478429
-0.0384609
-0.0339162
-0.0317879
-0.0307372
-0.0294781
-0.0264535
-0.0199372
-0.0151747
-0.00765882
-0.00164916
-0.350234
-0.335691
-0.319609
-0.302774
-0.286394
-0.2716
-0.259767
-0.251835
-0.248098
-0.247769
-0.248057
-0.25154
-0.246386
-0.235796
-0.217892
-0.194078
-0.167895
-0.14375
-0.125212
-0.114043
-0.110717
-0.11597
-0.131162
-0.155565
-0.183002
-0.202147
-0.202373
-0.182638
-0.150813
-0.117743
-0.0906468
-0.072138
-0.0617113
-0.0576728
-0.0600581
-0.0702812
-0.0852453
-0.0954456
-0.0932313
-0.0809065
-0.0668749
-0.0574554
-0.0528577
-0.0532676
-0.0617427
-0.0747113
-0.0825832
-0.077335
-0.0634295
-0.0503384
-0.0386282
-0.0323272
-0.0281028
-0.0259163
-0.024302
-0.0218324
-0.0170198
-0.01349
-0.00788788
-0.00237516
-0.372452
-0.353672
-0.332352
-0.309045
-0.285608
-0.262293
-0.241318
-0.224062
-0.211609
-0.204194
-0.200587
-0.199059
-0.195156
-0.188515
-0.176119
-0.159455
-0.140974
-0.1242
-0.11206
-0.106164
-0.107408
-0.117236
-0.137172
-0.165809
-0.196046
-0.216021
-0.215253
-0.193034
-0.158112
-0.122094
-0.0924542
-0.0715987
-0.0588981
-0.0526408
-0.0524056
-0.0595108
-0.0718617
-0.0812014
-0.0802987
-0.0709063
-0.0602957
-0.0540262
-0.0521575
-0.055114
-0.0663009
-0.0815767
-0.0906048
-0.0845353
-0.0681651
-0.0525409
-0.0386117
-0.0307356
-0.0246304
-0.0213562
-0.019255
-0.0172167
-0.0140584
-0.0117926
-0.00815425
-0.00313822
-0.388069
-0.366201
-0.340121
-0.310447
-0.283363
-0.252165
-0.223086
-0.197087
-0.175964
-0.161296
-0.152068
-0.146314
-0.14093
-0.139344
-0.130759
-0.120997
-0.109897
-0.100188
-0.0942229
-0.0934735
-0.0992941
-0.113681
-0.138118
-0.170571
-0.20326
-0.224178
-0.223223
-0.199583
-0.162648
-0.124598
-0.0931332
-0.0704884
-0.055899
-0.0476851
-0.045075
-0.0492189
-0.0589221
-0.0672125
-0.0673707
-0.060731
-0.0533574
-0.050096
-0.0508905
-0.0563485
-0.0701634
-0.0876845
-0.0979031
-0.0911714
-0.0725016
-0.0544282
-0.0384105
-0.0291465
-0.0213898
-0.0170851
-0.0143881
-0.0126492
-0.0110819
-0.0100961
-0.00845791
-0.00393685
-0.395013
-0.371747
-0.342699
-0.310385
-0.276366
-0.240574
-0.20557
-0.172589
-0.14338
-0.123012
-0.107564
-0.0973032
-0.0889652
-0.0888524
-0.0835128
-0.0797938
-0.0751248
-0.0718647
-0.0716626
-0.0759043
-0.0863494
-0.105251
-0.133872
-0.169663
-0.204472
-0.226405
-0.226108
-0.202219
-0.164479
-0.125413
-0.0928566
-0.0689573
-0.0528899
-0.0430233
-0.0383512
-0.0397521
-0.0468435
-0.0539274
-0.054844
-0.0506448
-0.0462015
-0.0456973
-0.0489936
-0.0568206
-0.0731258
-0.092801
-0.104229
-0.0970707
-0.0763671
-0.0559935
-0.0380347
-0.0275629
-0.0183859
-0.0131211
-0.00975096
-0.00817341
-0.00811866
-0.00841317
-0.00879683
-0.0047681
-0.393283
-0.369034
-0.339135
-0.305468
-0.268683
-0.229905
-0.191024
-0.153685
-0.120006
-0.0923129
-0.0706897
-0.0553015
-0.0447597
-0.0415915
-0.0386277
-0.0383935
-0.0385913
-0.0406705
-0.0455575
-0.0545942
-0.0696387
-0.0928476
-0.125108
-0.163556
-0.200094
-0.222882
-0.22405
-0.201012
-0.163697
-0.124697
-0.0917923
-0.0671441
-0.0499887
-0.0387797
-0.0323897
-0.0313678
-0.0359543
-0.0417641
-0.0440324
-0.0409013
-0.0389664
-0.0408739
-0.0464387
-0.0564371
-0.0750347
-0.0967126
-0.10937
-0.102097
-0.0797001
-0.0572324
-0.0374939
-0.0259813
-0.0156102
-0.00947274
-0.00538824
-0.00382782
-0.00519346
-0.00675485
-0.0091663
-0.00562825
-0.383579
-0.359089
-0.33043
-0.297685
-0.260895
-0.22156
-0.181435
-0.142104
-0.105439
-0.0731833
-0.0464465
-0.0258558
-0.0113379
-0.00386453
-0.000527122
-0.000834856
-0.00382712
-0.0095436
-0.0184868
-0.0317672
-0.0510085
-0.0779455
-0.113002
-0.153239
-0.191007
-0.214088
-0.21764
-0.196279
-0.160537
-0.122635
-0.0900971
-0.065164
-0.0472697
-0.0350123
-0.0272244
-0.024156
-0.0264227
-0.0308714
-0.0330921
-0.0316629
-0.0318026
-0.0357164
-0.0432443
-0.0551466
-0.0757871
-0.0992817
-0.1132
-0.10612
-0.0824362
-0.0581379
-0.036797
-0.0243995
-0.0130404
-0.00613352
-0.00133775
0.000356232
-0.00232738
-0.00512943
-0.00956124
-0.00651423
-0.367892
-0.343675
-0.317914
-0.28811
-0.253508
-0.215895
-0.176943
-0.137921
-0.100338
-0.0657722
-0.0355283
-0.0105961
0.00841474
0.0207824
0.027335
0.0284785
0.0251458
0.0178668
0.0064155
-0.0099878
-0.0324852
-0.0621539
-0.0989229
-0.139989
-0.178626
-0.205466
-0.20782
-0.188506
-0.155276
-0.11937
-0.0878579
-0.0630729
-0.0447566
-0.0317306
-0.0228451
-0.0181029
-0.0182991
-0.0213944
-0.0234507
-0.0232042
-0.0248849
-0.0303415
-0.039468
-0.0529564
-0.075341
-0.100444
-0.115627
-0.109048
-0.084528
-0.058714
-0.0359571
-0.022826
-0.010664
-0.00308773
0.00237594
0.00435597
0.000461692
-0.00354358
-0.00997619
-0.00742307
-0.348386
-0.32516
-0.303295
-0.277469
-0.246406
-0.212176
-0.176199
-0.139351
-0.102824
-0.067995
-0.0361293
-0.00830604
0.0145848
0.0316424
0.0425134
0.046875
0.0453387
0.0386329
0.0265768
0.00867677
-0.0156611
-0.0467709
-0.0840775
-0.124926
-0.163296
-0.189977
-0.194695
-0.178223
-0.148321
-0.115169
-0.0852666
-0.0610326
-0.0425752
-0.0290261
-0.0192995
-0.0132189
-0.0116093
-0.0133873
-0.0151693
-0.0156713
-0.0183696
-0.0248974
-0.0351764
-0.0498501
-0.073729
-0.100209
-0.116627
-0.110857
-0.0859789
-0.0590231
-0.0350299
-0.0212873
-0.00850031
-0.000344531
0.00573588
0.00815973
0.00315926
-0.00200238
-0.0104042
-0.0083523
-0.327568
-0.306434
-0.288651
-0.266643
-0.239513
-0.209493
-0.177439
-0.143832
-0.109673
-0.0761292
-0.0442896
-0.0152909
0.00986335
0.0302346
0.0450301
0.0537067
0.0555893
0.0512685
0.0404739
0.0228655
-0.00165972
-0.0327276
-0.0692961
-0.108914
-0.146078
-0.172519
-0.179316
-0.166271
-0.140426
-0.110671
-0.082875
-0.0595268
-0.0411165
-0.0271832
-0.0167786
-0.00958656
-0.00637612
-0.00687091
-0.00826823
-0.00912207
-0.0123655
-0.0194819
-0.0304956
-0.0460085
-0.070998
-0.0985847
-0.116233
-0.111547
-0.0868079
-0.0591635
-0.0341148
-0.0198161
-0.00654291
0.00206289
0.00868139
0.011766
0.00575324
-0.000510455
-0.0108358
-0.00929968
-0.308007
-0.290544
-0.276235
-0.257082
-0.233689
-0.208003
-0.180043
-0.150021
-0.118872
-0.0873887
-0.0564732
-0.0271386
-0.000400574
0.0226539
0.0415997
0.0527367
0.0572246
0.0562821
0.0483424
0.0327427
0.00952682
-0.0203706
-0.0554337
-0.093115
-0.128475
-0.153904
-0.162015
-0.152716
-0.131603
-0.105857
-0.0806046
-0.0584431
-0.0402363
-0.0260066
-0.0150807
-0.00698758
-0.00232949
-0.00156091
-0.00261505
-0.00337578
-0.00707583
-0.0142879
-0.0253891
-0.0412312
-0.0672882
-0.0959208
-0.114493
-0.110944
-0.086784
-0.0589494
-0.0331147
-0.0183469
-0.00463033
0.0042347
0.0111612
0.0151447
0.00823939
0.000939717
-0.0112679
-0.0102608
-0.289911
-0.27843
-0.266184
-0.248681
-0.228751
-0.207346
-0.183653
-0.157584
-0.129834
-0.101236
-0.0726411
-0.044867
-0.0187645
0.00474236
0.025074
0.0415341
0.0511579
0.0533184
0.0489797
0.0370374
0.0172641
-0.00938269
-0.0411115
-0.0753966
-0.108079
-0.131144
-0.140913
-0.135463
-0.119253
-0.0977121
-0.0753451
-0.0549132
-0.037504
-0.0234827
-0.0125384
-0.00410438
0.00153582
0.00341538
0.00261749
0.00139714
-0.00242995
-0.00955171
-0.0204673
-0.0361885
-0.0626548
-0.0917275
-0.111375
-0.108643
-0.0853619
-0.0576069
-0.0314008
-0.0165706
-0.0024621
0.00647761
0.0135308
0.0183628
0.0105771
0.00232739
-0.0116764
-0.0112385
-0.265767
-0.267259
-0.254059
-0.23553
-0.216352
-0.196477
-0.174769
-0.150923
-0.125433
-0.0990216
-0.07241
-0.0463428
-0.021584
0.00123078
0.0213409
0.0366455
0.046334
0.0502794
0.0479329
0.038013
0.0200298
-0.00499134
-0.0350955
-0.0678188
-0.0984995
-0.120819
-0.12818
-0.12237
-0.107204
-0.0875376
-0.0672032
-0.0485414
-0.0324316
-0.0192118
-0.00870068
-0.00041602
0.00549922
0.00809009
0.00786438
0.00684093
0.00364591
-0.00293011
-0.0132382
-0.0289922
-0.0570052
-0.0883551
-0.109988
-0.108085
-0.0836246
-0.055347
-0.0289039
-0.0144878
-0.000207158
0.00868996
0.0162133
0.021739
0.0129694
0.00373859
-0.0120285
-0.0122553
-0.241904
-0.246773
-0.234911
-0.216813
-0.198638
-0.180664
-0.161451
-0.140337
-0.11764
-0.094047
-0.0702291
-0.0468202
-0.0244634
-0.00379564
0.0141096
0.0284964
0.0381655
0.0425409
0.0409464
0.0324228
0.016559
-0.00573994
-0.0325893
-0.0614192
-0.0877881
-0.105775
-0.111619
-0.106232
-0.0931861
-0.0763727
-0.0587742
-0.0423149
-0.0277445
-0.0154725
-0.00554979
0.00245922
0.00852252
0.0115662
0.0116119
0.0104964
0.00748579
0.00182334
-0.00764189
-0.0230136
-0.0519146
-0.0846639
-0.106664
-0.104495
-0.0801167
-0.0522876
-0.0262533
-0.0122415
0.00200917
0.0106033
0.0184798
0.024301
0.0149549
0.00488168
-0.0123306
-0.0131238
-0.220137
-0.225358
-0.215599
-0.199284
-0.182642
-0.16653
-0.149618
-0.131051
-0.110982
-0.0900326
-0.0688349
-0.0479574
-0.0279695
-0.00945097
0.00674397
0.0198517
0.0288618
0.033069
0.0318888
0.024634
0.0110808
-0.00791958
-0.0305589
-0.0543368
-0.0756163
-0.0900457
-0.0948629
-0.0906893
-0.0801746
-0.0661976
-0.0510986
-0.036578
-0.023392
-0.0119908
-0.00258261
0.00512236
0.0111848
0.0145621
0.0149439
0.0139636
0.0111234
0.00588931
-0.00320767
-0.0185062
-0.047657
-0.0801411
-0.101453
-0.0993895
-0.0757096
-0.0487817
-0.0233993
-0.0098723
0.00421554
0.0124951
0.0205776
0.0265112
0.0166613
0.0058032
-0.0125659
-0.0138799
-0.199553
-0.204827
-0.197156
-0.183007
-0.168071
-0.153646
-0.138746
-0.122491
-0.104874
-0.0864092
-0.0676779
-0.0491915
-0.0314343
-0.0149457
-0.000449176
0.0113329
0.019605
0.0237225
0.0231648
0.0174467
0.006489
-0.00893843
-0.0272622
-0.0463849
-0.0634343
-0.0751575
-0.079415
-0.076468
-0.0681303
-0.056603
-0.0437467
-0.0310319
-0.0191939
-0.00868019
0.000201544
0.00756002
0.0135259
0.0171685
0.0180034
0.0173757
0.0148975
0.0101104
0.00123537
-0.0139975
-0.042748
-0.0744012
-0.0950657
-0.0931269
-0.0703914
-0.0447132
-0.0203157
-0.00739368
0.00642592
0.0143618
0.0224778
0.0285442
0.0182146
0.00664807
-0.0126853
-0.0145301
-0.18012
-0.185646
-0.179694
-0.16757
-0.154367
-0.141569
-0.12851
-0.114376
-0.0990432
-0.0829049
-0.0664769
-0.0502235
-0.0345781
-0.0200324
-0.00717556
0.00337737
0.0109905
0.0151033
0.0152702
0.0111541
0.0027492
-0.00932002
-0.0237931
-0.0389437
-0.0524741
-0.0619297
-0.0656759
-0.0636909
-0.0571813
-0.0477806
-0.0369179
-0.0258329
-0.0152458
-0.00559995
0.00276055
0.00976991
0.0155727
0.0194011
0.020705
0.0205892
0.0187021
0.0145937
0.00619061
-0.00858103
-0.0366194
-0.06757
-0.0874627
-0.0855698
-0.0641203
-0.0401076
-0.017034
-0.00483397
0.00861838
0.0161893
0.0241408
0.0303826
0.0196594
0.00749071
-0.01266
-0.0150449
-0.162421
-0.167853
-0.163195
-0.152894
-0.14141
-0.130215
-0.118873
-0.106677
-0.093441
-0.0794525
-0.0651578
-0.0509762
-0.0372984
-0.0245414
-0.0131877
-0.00374666
0.00325529
0.00734797
0.00816839
0.00548252
-0.00067869
-0.00982468
-0.02095
-0.0326635
-0.0431794
-0.0506584
-0.0538513
-0.0525567
-0.0474929
-0.0398293
-0.03066
-0.0210119
-0.0115681
-0.00276445
0.00507093
0.0117444
0.0173405
0.0212737
0.0230145
0.0235554
0.0224782
0.0192714
0.0116903
-0.00229336
-0.0295102
-0.0596547
-0.0785529
-0.0767655
-0.0569742
-0.0350133
-0.0135852
-0.00222238
0.0107658
0.0179633
0.0255379
0.0319642
0.020973
0.0083318
-0.0124373
-0.0153653
-0.146199
-0.151245
-0.147664
-0.139042
-0.129204
-0.119544
-0.10979
-0.0993472
-0.0880103
-0.0759844
-0.0636454
-0.0513644
-0.0394857
-0.0283455
-0.0183587
-0.009944
-0.00353138
0.000496998
0.00185108
0.00036752
-0.0039008
-0.0105609
-0.0188269
-0.0276197
-0.0356008
-0.0413713
-0.0439576
-0.0430575
-0.0390507
-0.0327569
-0.0250021
-0.0166104
-0.00819739
-0.000193644
0.00711193
0.0134654
0.0188458
0.022822
0.0249358
0.0261967
0.0261241
0.0240148
0.0175214
0.00449249
-0.0216321
-0.0506766
-0.0684515
-0.0668851
-0.0490919
-0.0295127
-0.0100127
0.000409127
0.0128381
0.019672
0.0266523
0.0332286
0.0221205
0.00918108
-0.0119236
-0.0154159
-0.131038
-0.135849
-0.133216
-0.126065
-0.117732
-0.109493
-0.101191
-0.0923254
-0.082693
-0.0724381
-0.0618685
-0.0513097
-0.0410784
-0.0313889
-0.0226442
-0.0151737
-0.00932195
-0.00539491
-0.00362126
-0.00411524
-0.00681834
-0.011426
-0.0173392
-0.0237004
-0.0295698
-0.0338655
-0.0358044
-0.0350549
-0.0317869
-0.0265521
-0.0199583
-0.0126508
-0.00515717
0.00210194
0.00887715
0.0149151
0.0200967
0.0240782
0.0264891
0.028426
0.0294542
0.0286272
0.0234493
0.0115513
-0.0131596
-0.0408686
-0.0574063
-0.0561939
-0.0406872
-0.0237267
-0.00636947
0.00302983
0.0148069
0.0213055
0.0274824
0.0341285
0.0230959
0.0100964
-0.0110027
-0.0151073
-0.117141
-0.121747
-0.119862
-0.113904
-0.106957
-0.100013
-0.0930192
-0.0855635
-0.0774495
-0.0687756
-0.0597891
-0.0507647
-0.0419409
-0.0336288
-0.0260199
-0.0194131
-0.0140907
-0.0102975
-0.00821258
-0.00792027
-0.00936854
-0.0123248
-0.0163349
-0.020742
-0.0248458
-0.0278622
-0.0291476
-0.0283835
-0.0256091
-0.0211767
-0.0155212
-0.00913948
-0.00246228
0.00411506
0.0103699
0.016083
0.0210812
0.0250558
0.0277041
0.0301981
0.0322196
0.0328223
0.0291939
0.0185978
-0.00449843
-0.0306215
-0.0457625
-0.0450527
-0.0320423
-0.0178112
-0.0027171
0.0056122
0.0166485
0.0228579
0.0280542
0.0346471
0.0239381
0.0111711
-0.0095529
-0.0143436
-0.104536
-0.108819
-0.107585
-0.102867
-0.0969441
-0.0910862
-0.0852466
-0.0790324
-0.072258
-0.0649841
-0.05741
-0.0497678
-0.0422569
-0.0351031
-0.0285009
-0.0226781
-0.0178556
-0.0142277
-0.0119357
-0.0110441
-0.0115114
-0.0131605
-0.0156386
-0.0185023
-0.021167
-0.0230884
-0.0237505
-0.0228698
-0.0204074
-0.0165744
-0.0116703
-0.00607176
-0.000116979
0.00584229
0.0115986
0.0169728
0.0217835
0.0257447
0.0285904
0.031516
0.0342738
0.0361971
0.0341511
0.0249551
0.00376314
-0.0203107
-0.0339236
-0.0338972
-0.0234864
-0.0119491
0.00087604
0.00813263
0.0183479
0.0243286
0.02844
0.0348152
0.0247276
0.0125163
-0.00746142
-0.0130406
-0.092953
-0.0968873
-0.0961412
-0.0923237
-0.0875105
-0.0826893
-0.0778478
-0.0727148
-0.0671095
-0.0610627
-0.0547311
-0.0482978
-0.0419418
-0.0358284
-0.0301274
-0.0250155
-0.0206659
-0.0172317
-0.0148248
-0.0134961
-0.0132162
-0.0138473
-0.015116
-0.0167541
-0.0182831
-0.0192925
-0.0193928
-0.0183442
-0.0160682
-0.0126795
-0.00837461
-0.00343336
0.00188522
0.00728475
0.0125721
0.0175997
0.0222002
0.0261249
0.0291263
0.0322129
0.0355174
0.0383635
0.0375475
0.0298014
0.0111041
-0.010261
-0.0223751
-0.0232143
-0.0153624
-0.00633404
0.0043363
0.0105691
0.019901
0.0257201
0.0287676
0.0347259
0.0255853
0.0142469
-0.00465747
-0.011156
-0.0823099
-0.0859532
-0.0856101
-0.0825892
-0.0786768
-0.0747309
-0.0707859
-0.0665986
-0.0620078
-0.0570255
-0.0517736
-0.0464009
-0.0410512
-0.0358595
-0.0309602
-0.0264912
-0.0225881
-0.0193708
-0.0169278
-0.0153011
-0.0144703
-0.0143377
-0.0147344
-0.0153755
-0.0159948
-0.0162626
-0.0158806
-0.0146508
-0.0124799
-0.00942041
-0.00559354
-0.00120236
0.00355881
0.00845047
0.0132997
0.01798
0.022344
0.0261941
0.0293046
0.0325059
0.0359569
0.0391415
0.0390341
0.0327509
0.0171508
-0.000965963
-0.0117413
-0.0134958
-0.00797397
-0.00114286
0.00758824
0.0128945
0.0213111
0.0270298
0.02921
0.0345444
0.0266719
0.0164511
-0.0011602
-0.00872183
-0.0726366
-0.0759799
-0.0759382
-0.0735822
-0.0704319
-0.0672412
-0.0640605
-0.0606836
-0.0569635
-0.0528967
-0.0485752
-0.0441201
-0.0396472
-0.0352634
-0.0310736
-0.0271849
-0.0237024
-0.0207193
-0.0183056
-0.0164971
-0.01528
-0.0145862
-0.0142968
-0.0142197
-0.0141408
-0.0138247
-0.0130472
-0.0116483
-0.00953529
-0.00672316
-0.0032803
0.000649631
0.00492378
0.00935438
0.0137936
0.0181294
0.0222339
0.025962
0.029111
0.0323121
0.0356615
0.0387051
0.0388908
0.0339588
0.0216145
0.00688848
-0.00263165
-0.00511896
-0.00152344
0.00349632
0.0105636
0.0150695
0.0225808
0.0282409
0.029938
0.0345005
0.0281658
0.0191418
0.00287932
-0.00587444
-0.0638485
-0.0668757
-0.0670562
-0.0652539
-0.0627496
-0.0602005
-0.0576663
-0.0549747
-0.0519926
-0.0487052
-0.0451804
-0.0415142
-0.0377987
-0.034118
-0.0305533
-0.0271869
-0.0240991
-0.0213619
-0.01903
-0.0171338
-0.0156679
-0.0145896
-0.013809
-0.0131983
-0.0125978
-0.0118381
-0.0107511
-0.00921121
-0.00713401
-0.00451386
-0.0013842
0.00215618
0.00600447
0.0100167
0.0140708
0.0180672
0.021895
0.0254515
0.02856
0.0316499
0.0347311
0.0373867
0.0376338
0.033811
0.0243919
0.0128257
0.00461756
0.0017577
0.00391342
0.00751607
0.0132115
0.0170483
0.0237019
0.0293179
0.0310274
0.0348464
0.0302125
0.0222035
0.00713891
-0.00287211
-0.0558306
-0.0585674
-0.0589169
-0.0575705
-0.0556059
-0.0535946
-0.0516012
-0.0494827
-0.0471195
-0.0444887
-0.0416392
-0.0386452
-0.0355795
-0.0325075
-0.0294912
-0.0265927
-0.0238733
-0.0213877
-0.0191785
-0.0172735
-0.0156697
-0.0143433
-0.0132306
-0.0122439
-0.0112704
-0.0101885
-0.00887372
-0.0072296
-0.00518382
-0.0027209
0.000147315
0.00335462
0.00682886
0.010461
0.0141531
0.0178164
0.0213579
0.0246995
0.0276884
0.0305788
0.0333033
0.0355043
0.0357094
0.0327524
0.0257196
0.0168827
0.0100561
0.00717923
0.00835792
0.0109032
0.0154966
0.018793
0.0246597
0.030201
0.032361
0.0357625
0.0328241
0.0253549
0.0111436
-5.09317e-05
-0.0485368
-0.0510068
-0.0514744
-0.050495
-0.0489751
-0.0474094
-0.0458635
-0.044219
-0.0423692
-0.0402863
-0.0380036
-0.0355781
-0.0330662
-0.030518
-0.0279803
-0.0254996
-0.0231214
-0.0208873
-0.0188312
-0.0169739
-0.0153238
-0.0138585
-0.0125393
-0.0113077
-0.0100846
-0.00878448
-0.00731665
-0.00560871
-0.00360141
-0.00127638
0.00136687
0.00428469
0.00742775
0.0107136
0.0140659
0.017406
0.0206547
0.0237454
0.0265546
0.0291921
0.0315405
0.0333194
0.0334649
0.0312014
0.0260255
0.0194291
0.0139586
0.0113162
0.0118868
0.013683
0.0173949
0.0202749
0.025444
0.0308185
0.0336202
0.037072
0.035636
0.0281319
0.0144145
0.00230578
-0.0419232
-0.0441348
-0.0446743
-0.0439868
-0.0428305
-0.0416308
-0.0404516
-0.039195
-0.0377667
-0.0361364
-0.0343255
-0.032377
-0.0303338
-0.0282341
-0.0261123
-0.0240027
-0.0219387
-0.0199524
-0.0180728
-0.0163086
-0.0146726
-0.013154
-0.0117285
-0.0103569
-0.00898504
-0.00755417
-0.00599937
-0.00426781
-0.00231292
-0.000117241
0.00232556
0.00498684
0.00783373
0.010803
0.0138367
0.0168655
0.019821
0.0226428
0.0252255
0.0275906
0.0295956
0.0310306
0.0311463
0.0294543
0.0256966
0.0208755
0.0166419
0.0143798
0.0146013
0.0158967
0.0188981
0.0214678
0.0260203
0.0311088
0.034436
0.0380262
0.0377683
0.0299716
0.0166438
0.00406135
-0.0359193
-0.0378878
-0.0384668
-0.0380096
-0.0371481
-0.036246
-0.0353638
-0.0344212
-0.0333356
-0.0320758
-0.0306545
-0.0291031
-0.0274543
-0.0257363
-0.0239742
-0.0221924
-0.0204152
-0.0186663
-0.0169643
-0.0153297
-0.0137604
-0.0122556
-0.010801
-0.00937178
-0.00793185
-0.00644204
-0.00485701
-0.00313941
-0.00125397
0.000813723
0.00307185
0.00550112
0.00807993
0.0107593
0.0134953
0.0162266
0.0188948
0.0214419
0.023773
0.0258756
0.0275928
0.0287713
0.0288975
0.0276824
0.0250041
0.0215528
0.0183854
0.0165653
0.016609
0.0175868
0.0200118
0.0223422
0.0263193
0.0309937
0.0345427
0.0379721
0.0383475
0.0304819
0.0177464
0.00519081
-0.0304688
-0.0322151
-0.0328093
-0.0325309
-0.0319053
-0.0312422
-0.030598
-0.0299069
-0.029097
-0.0281377
-0.0270353
-0.0258125
-0.0244935
-0.0230987
-0.0216461
-0.0201528
-0.0186363
-0.0171141
-0.0156
-0.0141062
-0.0126368
-0.011193
-0.00976675
-0.00834275
-0.00689779
-0.00540662
-0.00383847
-0.00216803
-0.000369582
0.00156729
0.00365057
0.00586612
0.00819958
0.0106127
0.0130717
0.015522
0.0179154
0.0201932
0.0222706
0.0241357
0.0256232
0.0266216
0.0267909
0.0259735
0.0241155
0.0217065
0.0194149
0.0180368
0.0180105
0.0187975
0.0207515
0.0228671
0.0262861
0.0304089
0.0337831
0.0365784
0.0371005
0.0296469
0.0178169
0.00572796
-0.0255297
-0.0270711
-0.0276603
-0.0275178
-0.0270789
-0.0266059
-0.0261504
-0.0256585
-0.0250683
-0.0243507
-0.0235075
-0.0225545
-0.0215096
-0.0203872
-0.0191997
-0.0179587
-0.0166762
-0.0153649
-0.0140349
-0.012694
-0.0113471
-0.00999723
-0.0086405
-0.00726828
-0.005866
-0.00441813
-0.00290459
-0.00130914
0.000386107
0.00218766
0.004102
0.00611773
0.00822503
0.010393
0.0125956
0.014785
0.0169208
0.0189442
0.0207792
0.0224394
0.0237468
0.0246249
0.0248564
0.0243655
0.0231285
0.021507
0.0199101
0.0189325
0.0189
0.0195727
0.0211403
0.0230293
0.0258963
0.0292576
0.0322323
0.0341981
0.0344527
0.0277631
0.0170758
0.0057726
-0.0210573
-0.0224102
-0.0229799
-0.0229391
-0.0226467
-0.0223236
-0.0220161
-0.0216804
-0.0212635
-0.0207386
-0.0201043
-0.0193717
-0.0185532
-0.0176591
-0.0166974
-0.0156755
-0.0146013
-0.0134839
-0.0123305
-0.011146
-0.00993454
-0.00869963
-0.00744047
-0.00615281
-0.00482781
-0.00345653
-0.00202641
-0.000528024
0.00105048
0.00271221
0.00446148
0.00628852
0.00818616
0.0101282
0.0120949
0.014046
0.0159467
0.0177407
0.0193453
0.0208395
0.0220019
0.0228002
0.023099
0.0228704
0.0221002
0.0210677
0.0200073
0.0193683
0.0193634
0.019958
0.0212101
0.0228442
0.0251716
0.0277879
0.0301271
0.0312992
0.0310589
0.0252352
0.0158035
0.00548029
-0.0170103
-0.0181921
-0.0187327
-0.0187664
-0.0185876
-0.0183814
-0.0181888
-0.0179743
-0.0176929
-0.0173203
-0.0168534
-0.0162993
-0.0156669
-0.0149631
-0.0141927
-0.0133601
-0.01247
-0.0115281
-0.0105401
-0.00950968
-0.00843909
-0.00733118
-0.00618693
-0.00500521
-0.00378101
-0.00250965
-0.0011837
0.000201481
0.0016531
0.00317153
0.00475921
0.00640695
0.00810889
0.00984327
0.0115944
0.0133287
0.015021
0.0166351
0.0181597
0.0193851
0.020408
0.0211486
0.0215083
0.0214858
0.0210659
0.0204653
0.0198081
0.0194394
0.0194757
0.0200034
0.0209938
0.0223485
0.0241628
0.0260951
0.0277458
0.028224
0.0274611
0.0224333
0.0142548
0.00500459
-0.013354
-0.0143812
-0.0148863
-0.014973
-0.0148815
-0.0147656
-0.0146611
-0.0145395
-0.0143631
-0.01411
-0.0137761
-0.013366
-0.0128857
-0.0123396
-0.0117303
-0.0110601
-0.0103314
-0.00954718
-0.00871148
-0.00782789
-0.00689735
-0.00592125
-0.00490096
-0.00383741
-0.00272834
-0.00157172
-0.000363434
0.000897948
0.00221631
0.00358993
0.00501962
0.00649664
0.00801565
0.00955854
0.0111124
0.0126481
0.0141452
0.0155706
0.0168895
0.0180205
0.0189545
0.0196592
0.0200707
0.0202042
0.0200411
0.0197508
0.0193907
0.0192275
0.0193016
0.0197607
0.0205289
0.021596
0.0229392
0.0242649
0.0252794
0.0251972
0.0239993
0.0196287
0.0126141
0.00445603
-0.010057
-0.0109451
-0.0114111
-0.0115342
-0.0115089
-0.0114621
-0.0114246
-0.0113735
-0.0112774
-0.0111174
-0.0108888
-0.0105941
-0.0102374
-0.00982138
-0.0093471
-0.0088152
-0.00822673
-0.00758284
-0.00688574
-0.00613858
-0.00534231
-0.00449704
-0.00360347
-0.00266331
-0.00167622
-0.000642005
0.000441411
0.00157353
0.00275589
0.00398552
0.00526179
0.00657649
0.0079247
0.00929059
0.0106634
0.0120194
0.0133397
0.0145947
0.015756
0.0167821
0.0176429
0.0183202
0.0187702
0.0190155
0.0190351
0.0189611
0.0188122
0.018797
0.0188963
0.0192818
0.0198553
0.0206415
0.0215709
0.0223797
0.02286
0.0223527
0.0208435
0.0169941
0.0110025
0.00390004
-0.00709064
-0.00785466
-0.0082803
-0.00842725
-0.00845171
-0.00845723
-0.00846994
-0.00847179
-0.00843676
-0.00834865
-0.00820264
-0.0080001
-0.00774351
-0.00743423
-0.00707243
-0.00665771
-0.00619002
-0.00566974
-0.00509721
-0.00447445
-0.00380331
-0.00308346
-0.00231436
-0.00149751
-0.000633614
0.000276317
0.00123298
0.00223485
0.003282
0.00437073
0.00549956
0.0066607
0.00784949
0.00905241
0.01026
0.0114531
0.0126152
0.0137208
0.014749
0.0156752
0.0164695
0.0171187
0.0175907
0.0179102
0.0180545