/*--------------------------------*- C++ -*----------------------------------*\
| =========                 |                                                 |
| \\      /  F ield         | OpenFOAM: The Open Source CFD Toolbox           |
|  \\    /   O peration     | Version:  2512                                  |
|   \\  /    A nd           | Website:  www.openfoam.com                      |
|    \\/     M anipulation  |                                                 |
\*---------------------------------------------------------------------------*/
FoamFile
{
    version     2.0;
    format      ascii;
    arch        "LSB;label=32;scalar=64";
    class       surfaceScalarField;
    location    "57.75";
    object      phi;
}
// * * * * * * * * * * * * * * * * * * * * * * * * * * * * * * * * * * * * * //

dimensions      [0 3 -1 0 0 0 0];

oriented        oriented;

internalField   nonuniform List<scalar> 
26232
(
5.66071e-05
0.000976227
-0.00103283
0.000414844
0.00190956
-0.0022678
0.00123308
0.00195778
-0.00277602
0.00265618
0.00116167
-0.00258477
0.00482684
-0.000457145
-0.00171352
0.00788791
-0.00288901
-0.000172052
0.011978
-0.00612809
0.00203803
0.0172208
-0.0101628
0.00491995
0.0237105
-0.0149649
0.00847518
0.031494
-0.0204799
0.0126964
0.0405554
-0.026622
0.0175607
0.0508051
-0.0332731
0.0230234
0.0620768
-0.0402876
0.0290159
0.0741332
-0.047501
0.0354446
0.0866805
-0.0547422
0.0421948
0.0993905
-0.0618461
0.0491362
0.111926
-0.0686655
0.0561299
0.12397
-0.0750834
0.0630396
0.135252
-0.0810161
0.0697342
0.145565
-0.0864341
0.0761203
0.154784
-0.0913035
0.0820846
0.16283
-0.0957618
0.087716
0.169559
-0.0995084
0.0927795
-0.103459
0.0983103
0.174707
9.29409e-05
0.000883286
0.00059232
0.00141018
0.00168976
0.000860343
0.00356185
-0.000710415
0.0063781
-0.0032734
0.0102962
-0.00680711
0.0154489
-0.0112808
0.0219249
-0.0166388
0.0297473
-0.0227873
0.0388569
-0.0295895
0.0491032
-0.0368684
0.0602486
-0.0444186
0.0719844
-0.0520234
0.0839577
-0.0594743
0.0958046
-0.0665891
0.107186
-0.0732271
0.117818
-0.0792977
0.127499
-0.0847651
0.136128
-0.0896443
0.143688
-0.0939947
0.15028
-0.0978956
0.156
-0.101481
0.161205
-0.104713
-0.108163
0.165909
0.000153957
0.000729328
0.000856961
0.000707181
0.00232825
-0.000610948
0.00476873
-0.00315089
0.00836014
-0.00686481
0.0132493
-0.0116963
0.0195241
-0.0175556
0.0271874
-0.0243022
0.0361387
-0.0317386
0.0461683
-0.0396191
0.0569708
-0.0476708
0.0681743
-0.0556221
0.0793818
-0.0632308
0.0902156
-0.0703081
0.100359
-0.076733
0.10959
-0.0824574
0.117793
-0.0875008
0.124966
-0.0919377
0.131199
-0.095878
0.136654
-0.0994494
0.141525
-0.102767
0.146001
-0.105957
0.150288
-0.109001
-0.112295
0.15442
0.000239404
0.000489924
0.00120655
-0.00025996
0.00313809
-0.00254249
0.00624351
-0.00625632
0.0106903
-0.0113116
0.0165744
-0.0175804
0.0238884
-0.0248696
0.032499
-0.0329127
0.0421451
-0.0413847
0.0524616
-0.0499355
0.0630236
-0.0582328
0.0734033
-0.0660018
0.0832253
-0.0730528
0.092211
-0.0792938
0.100203
-0.0847255
0.107171
-0.0894251
0.113191
-0.0935204
0.118415
-0.0971622
0.123036
-0.100499
0.127244
-0.103657
0.131211
-0.106733
0.135057
-0.109803
0.13891
-0.112854
-0.116139
0.142755
0.000346766
0.000143158
0.00162952
-0.00154272
0.00408666
-0.00499963
0.00791109
-0.0100807
0.0132177
-0.0166182
0.020003
-0.0243657
0.0281153
-0.032982
0.0372542
-0.0420516
0.0470034
-0.0511339
0.0568922
-0.0598243
0.0664681
-0.0678088
0.0753625
-0.0748962
0.0833341
-0.0810244
0.0902846
-0.0862443
0.0962464
-0.0906873
0.101349
-0.0945278
0.105776
-0.0979471
0.109721
-0.101107
0.113358
-0.104136
0.116824
-0.107123
0.120216
-0.110126
0.123594
-0.113181
0.127018
-0.116278
-0.119566
0.130444
0.000472543
-0.000329385
0.0021087
-0.00317888
0.00512593
-0.00801686
0.00966596
-0.0146208
0.0157451
-0.0226974
0.023213
-0.0318335
0.0317453
-0.0415143
0.0408845
-0.0511908
0.0501168
-0.0603662
0.0589633
-0.0686707
0.0670553
-0.0759009
0.0741786
-0.0820194
0.0802776
-0.0871233
0.0854282
-0.0913949
0.0897913
-0.0950505
0.0935622
-0.0982987
0.0969289
-0.101314
0.100047
-0.104226
0.103032
-0.107121
0.105961
-0.110052
0.108884
-0.113049
0.111829
-0.116126
0.114829
-0.119278
-0.122585
0.117847
0.000612605
-0.00094199
0.00262218
-0.00518845
0.00619512
-0.0115898
0.0113803
-0.0198059
0.0180499
-0.029367
0.0258771
-0.0396608
0.0343747
-0.0500119
0.0429863
-0.0598023
0.051197
-0.068577
0.0586239
-0.0760976
0.065061
-0.082338
0.070476
-0.0874345
0.0749706
-0.0916179
0.0787228
-0.0951471
0.0819326
-0.0982602
0.0847815
-0.101148
0.0874129
-0.103945
0.0899281
-0.106741
0.0923931
-0.109586
0.0948485
-0.112508
0.0973191
-0.115519
0.0998187
-0.118625
0.102363
-0.121822
-0.125144
0.104922
0.000761552
-0.00170354
0.00314266
-0.00756956
0.00722228
-0.0156694
0.0129135
-0.0254972
0.0199124
-0.0363658
0.0277192
-0.0474676
0.0357364
-0.0580291
0.0434002
-0.0674662
0.0502913
-0.0754681
0.0561888
-0.0819951
0.0610629
-0.0872121
0.0650256
-0.0913972
0.068264
-0.0948563
0.0709811
-0.0978642
0.0733557
-0.100635
0.0755246
-0.103317
0.0775818
-0.106002
0.0795869
-0.108746
0.0815752
-0.111574
0.0835678
-0.1145
0.085577
-0.117529
0.0876103
-0.120659
0.0896759
-0.123888
-0.127222
0.0917538
0.000912088
-0.00261563
0.00363733
-0.0102948
0.00812854
-0.0201606
0.0141284
-0.0314971
0.0211505
-0.0433878
0.028564
-0.0548811
0.0357437
-0.0652088
0.0422086
-0.073931
0.0476945
-0.0809541
0.0521515
-0.0864521
0.0556872
-0.0907477
0.0584918
-0.0942018
0.0607723
-0.0971368
0.0627091
-0.0998011
0.0644383
-0.102364
0.0660514
-0.10493
0.0676046
-0.107556
0.069131
-0.110272
0.0706491
-0.113092
0.0721703
-0.116021
0.0737012
-0.11906
0.0752467
-0.122204
0.0768101
-0.125451
-0.128791
0.0783796
0.0010549
-0.00367053
0.00406977
-0.0133097
0.00883659
-0.0249275
0.014911
-0.0375714
0.0216497
-0.0501266
0.0283614
-0.0615928
0.0344778
-0.0713251
0.0396594
-0.0791126
0.0438083
-0.085103
0.0470109
-0.0896547
0.049454
-0.0931908
0.0513489
-0.0960967
0.0528822
-0.0986701
0.0541941
-0.101113
0.0553782
-0.103548
0.0564909
-0.106042
0.0575644
-0.108629
0.0586166
-0.111324
0.0596581
-0.114134
0.0606953
-0.117059
0.0617324
-0.120097
0.0627724
-0.123244
0.063816
-0.126495
-0.129834
0.0648584
0.00117996
-0.00485049
0.00440528
-0.016535
0.00928285
-0.029805
0.0151888
-0.0434774
0.0213773
-0.0563151
0.0271745
-0.06739
0.0321314
-0.076282
0.0360683
-0.0830495
0.0390269
-0.0880617
0.0411796
-0.0918073
0.0427405
-0.0947518
0.0439058
-0.097262
0.0448249
-0.0995892
0.0455977
-0.101886
0.0462843
-0.104235
0.0469181
-0.106676
0.0475171
-0.109228
0.0480916
-0.111899
0.048648
-0.11469
0.0491907
-0.117601
0.0497225
-0.120629
0.0502447
-0.123766
0.0507563
-0.127006
-0.130333
0.0512557
0.00128045
-0.00613094
0.00461873
-0.0198733
0.00942834
-0.0346146
0.0149402
-0.0489893
0.0203757
-0.0617506
0.0251456
-0.0721599
0.0289486
-0.080085
0.0317491
-0.08585
0.0336855
-0.0899981
0.0349687
-0.0930905
0.0358054
-0.0955885
0.0363593
-0.0978158
0.0367413
-0.0999712
0.0370185
-0.102163
0.0372278
-0.104444
0.0373885
-0.106837
0.0375109
-0.109351
0.0376014
-0.111989
0.0376645
-0.114753
0.0377038
-0.117641
0.0377215
-0.120646
0.0377186
-0.123763
0.0376936
-0.126981
0.0376479
-0.130287
-0.000183573
0.00113644
-0.000952872
-0.000650214
0.00280486
-0.00233822
-0.00134648
0.00405196
-0.00335569
-0.00222916
0.00495901
-0.00407633
-0.00326246
0.00559835
-0.00456505
-0.00441725
0.00603602
-0.00488123
-0.00567039
0.0063285
-0.00507536
-0.00700389
0.00651984
-0.00518633
-0.00840402
0.00664049
-0.00524036
-0.00986025
0.00670763
-0.00525141
-0.0113642
0.0067266
-0.00522267
-0.0129086
0.00669306
-0.00514869
-0.0144862
0.00659531
-0.00501762
-0.0160895
0.0064164
-0.00481317
-0.0177091
0.00613578
-0.00451615
-0.0193342
0.00573075
-0.00410563
-0.020952
0.00517763
-0.00355988
-0.0225484
0.00445303
-0.00285663
-0.0241091
0.00353543
-0.00197473
-0.025624
0.00240706
-0.00089213
-0.0270741
0.00105478
0.000395377
-0.0284727
-0.000513723
0.00191224
-0.0298467
-0.00230064
0.00367464
-0.00428379
-0.0312614
0.00569852
-0.000144881
0.00128133
-0.000524092
0.00318407
-0.00110107
0.00462893
-0.00184335
0.00570129
-0.00272152
0.00647652
-0.00370952
0.00702402
-0.00478492
0.0074039
-0.00592903
0.00766394
-0.0071266
0.00783807
-0.00836546
0.0079465
-0.00963581
0.00799695
-0.0109294
0.00798669
-0.0122389
0.00790476
-0.0135565
0.00773402
-0.0148737
0.00745294
-0.0161799
0.007037
-0.0174624
0.00646006
-0.0187053
0.00569594
-0.0198904
0.00472054
-0.0209982
0.00351483
-0.0220107
0.00206734
-0.0228985
0.000374032
-0.0237121
-0.00148701
-0.00348329
-0.0245126
-9.87916e-05
0.00138012
-0.00037127
0.00345655
-0.000798327
0.00505599
-0.00135825
0.00626121
-0.00202774
0.00714602
-0.00278332
0.0077796
-0.00360247
0.00822305
-0.00446445
0.00852592
-0.00535078
0.00872441
-0.00624535
0.00884106
-0.00713414
0.00888574
-0.00800475
0.00885731
-0.00884576
0.00874576
-0.00964584
0.0085341
-0.0103929
0.00820001
-0.0110732
0.00771727
-0.0116701
0.00705699
-0.0121634
0.00618919
-0.0125277
0.00508486
-0.0127317
0.0037189
-0.0127395
0.0020751
-0.0125153
0.000149844
-0.0120478
-0.00195447
-0.00419595
-0.0113352
-4.99931e-05
0.00143011
-0.000205813
0.00361237
-0.000463949
0.00531413
-0.000812092
0.00660936
-0.00123213
0.00756606
-0.00170237
0.00824984
-0.00219933
0.00872001
-0.00269914
0.00902572
-0.00317845
0.00920372
-0.00361503
0.00927764
-0.00398784
0.00925855
-0.00427687
0.00914634
-0.00446268
0.00893157
-0.00452578
0.00859721
-0.00444586
0.00812009
-0.00420105
0.00747245
-0.00376704
0.00662299
-0.00311606
0.00553821
-0.00221544
0.00418423
-0.00102597
0.00252943
0.000506116
0.000543013
0.00241688
-0.00176092
0.0048169
-0.0043545
-0.00707644
0.0076974
-3.91166e-06
0.00143402
-4.44056e-05
0.00365286
-0.000129473
0.00539919
-0.000253266
0.00673315
-0.000401023
0.00771381
-0.000551725
0.00840054
-0.000680109
0.0088484
-0.000758278
0.00910389
-0.000756903
0.00920235
-0.000646005
0.00916674
-0.000395329
0.00900787
2.56293e-05
0.00872539
0.000647883
0.00830931
0.00150348
0.00774161
0.00262568
0.00699788
0.00404967
0.00604847
0.00581273
0.00485993
0.00795454
0.0033964
0.0105178
0.00162098
0.0135474
-0.000500199
0.0170877
-0.00299725
0.0212085
-0.00588175
0.0259655
-0.0091115
-0.0126925
0.0315816
3.45468e-05
0.00139947
9.62277e-05
0.00359118
0.000172689
0.00532273
0.000267456
0.00663838
0.00039453
0.00758674
0.000575857
0.00821921
0.000839483
0.00858477
0.00121806
0.00872531
0.00174771
0.00867269
0.00246723
0.00844723
0.0034176
0.0080575
0.00464189
0.0075011
0.0061853
0.00676591
0.00809529
0.00583162
0.0104219
0.00467132
0.0132174
0.00325288
0.0165363
0.00154103
0.0204339
-0.000501194
0.0249651
-0.00291014
0.0301826
-0.00571778
0.0361322
-0.0089468
0.042878
-0.0126276
0.0504016
-0.0166351
-0.0213717
0.0590807
6.08616e-05
0.00133861
0.000202486
0.00344955
0.000415807
0.00510941
0.000707332
0.00634686
0.0010938
0.00720027
0.00160036
0.00771266
0.00225939
0.00792574
0.00310951
0.00787519
0.00419481
0.00758739
0.00556419
0.00707784
0.00727097
0.00635071
0.00937261
0.00539947
0.0119304
0.00420811
0.0150097
0.00275234
0.0186782
0.00100282
0.0230066
-0.00107558
0.0280657
-0.00351799
0.0339234
-0.00635895
0.040642
-0.00962869
0.0482752
-0.013351
0.0568509
-0.0175225
0.0664266
-0.0222033
0.0768589
-0.0270673
-0.0331702
0.0886575
7.31316e-05
0.00126548
0.000267468
0.00325522
0.000585931
0.00479095
0.00104372
0.00588907
0.0016645
0.00657948
0.00247992
0.00689725
0.00352943
0.00687623
0.00486023
0.00654439
0.0065269
0.00592072
0.00859109
0.00501365
0.011121
0.0038208
0.0141911
0.00232942
0.0178795
0.000519663
0.0222703
-0.00163843
0.0274468
-0.00417374
0.0334904
-0.00711917
0.0404765
-0.0105041
0.0484689
-0.0143514
0.0575133
-0.018673
0.067634
-0.0234718
0.0788121
-0.0287006
0.0910526
-0.0344438
0.104112
-0.0401264
-0.0474463
0.118388
7.21693e-05
0.00119331
0.000293917
0.00303347
0.00068835
0.00439652
0.00128524
0.00529218
0.00212018
0.00574454
0.00323591
0.00578151
0.00468355
0.00542859
0.00652334
0.0047046
0.00882481
0.00361925
0.0116664
0.00217205
0.0151336
0.000353632
0.0193188
-0.00185584
0.0243166
-0.00447807
0.0302178
-0.00753965
0.0371083
-0.0110643
0.0450594
-0.0150702
0.0541213
-0.019566
0.0643161
-0.0245462
0.07563
-0.0299869
0.0880079
-0.0358497
0.101347
-0.0420398
0.115519
-0.0486159
0.13029
-0.0548968
-0.0627763
0.14562
6.22405e-05
0.00113107
0.000295941
0.00279977
0.000751322
0.00394114
0.00147851
0.00456499
0.00253083
0.00469222
0.00396815
0.00434419
0.00585936
0.00353738
0.00828358
0.00228038
0.0113299
0.000572986
0.0150955
-0.00159365
0.019683
-0.00423381
0.0251922
-0.00736509
0.0317171
-0.011003
0.0393344
-0.0151569
0.0480961
-0.019826
0.0580203
-0.0249944
0.0690833
-0.0306291
0.081215
-0.0366779
0.0942962
-0.043068
0.108158
-0.0497119
0.122596
-0.0564778
0.13733
-0.0633496
0.152185
-0.0697521
-0.077161
0.16657
5.08155e-05
0.00108026
0.000298179
0.00255241
0.000824448
0.00341487
0.00170554
0.0036839
0.00301866
0.0033791
0.00484734
0.00251552
0.00728407
0.00110065
0.0104306
-0.000866136
0.0143955
-0.0033919
0.0192878
-0.00648603
0.02521
-0.010156
0.0322466
-0.0144016
0.0404535
-0.0192098
0.0498468
-0.0245503
0.0603939
-0.0303731
0.072007
-0.0366076
0.0845419
-0.043164
0.0978016
-0.0499375
0.111544
-0.0568103
0.125503
-0.0636706
0.139404
-0.0703788
0.152966
-0.076912
0.166079
-0.0828655
-0.0890364
0.177955
4.74221e-05
0.000332027
0.000970877
0.00207
0.00373558
0.00607905
0.00921773
0.0132715
0.0183548
0.0245652
0.0319699
0.0405917
0.0503978
0.0612921
0.0731139
0.0856425
0.0986084
0.11171
0.124634
0.137084
0.14879
0.159594
0.169508
0.178782
-0.031878
-0.0106363
0.0112529
-0.0323752
-0.015592
0.0160892
-0.0327038
-0.0213248
0.0216534
-0.0328298
-0.0277457
0.0278717
-0.0327183
-0.0347444
0.0346328
-0.0323317
-0.0421463
0.0417598
-0.0316335
-0.0496933
0.0489951
-0.0305726
-0.0570556
0.0559947
-0.0290793
-0.0638028
0.0623095
-0.0270654
-0.0693931
0.0673792
-0.0244109
-0.0731881
0.0705337
-0.0209757
-0.0744559
0.0710207
-0.0166163
-0.0724126
0.0680533
-0.0112043
-0.0662247
0.0608127
-0.00469001
-0.0551667
0.0486524
0.00295364
-0.0387946
0.0311509
0.0115887
-0.0171181
0.00848298
0.0206751
0.00951682
-0.0186032
0.0297547
0.039814
-0.0488936
0.0386579
0.0708112
-0.0797144
0.0465216
0.100552
-0.108415
0.0523346
0.12685
-0.132663
0.0550965
0.149013
-0.151775
0.0545613
0.167647
-0.167112
0.0521512
0.182599
-0.180188
0.0510152
0.189975
-0.188839
0.0542325
0.182031
-0.185248
0.0623378
0.152288
-0.160394
0.0736301
0.100331
-0.111623
0.0865136
0.0311602
-0.0440437
0.0995409
-0.0447451
0.0317178
0.111062
-0.114255
0.102734
0.119373
-0.166855
0.158544
0.124195
-0.19971
0.194888
0.125766
-0.21392
0.212349
0.122241
-0.217154
0.220679
0.112506
-0.224616
0.234351
0.100851
-0.237204
0.248859
0.0942939
-0.228255
0.234811
0.0959286
-0.171121
0.169486
0.103874
-0.0715681
0.0636229
0.113888
0.0403627
-0.0503773
0.122895
0.135525
-0.144532
0.129595
0.197311
-0.204011
0.131526
0.22685
-0.228782
0.125715
0.246211
-0.240399
0.115194
0.262071
-0.251551
0.108186
0.24967
-0.242662
0.109744
0.179008
-0.180566
0.117684
0.0697338
-0.0776737
0.127171
-0.0389838
0.0294968
0.135019
-0.118193
0.110345
0.140291
-0.155922
0.15065
0.141481
-0.169111
0.167922
0.138191
-0.155517
0.158806
0.133228
-0.150306
0.155269
0.131074
-0.112948
0.115102
0.133655
-0.0766322
0.0740508
0.139904
-0.0215303
0.0152821
0.036021
-0.040188
-0.025426
-0.00972293
-0.0263506
-0.0146674
-0.0272243
-0.0204511
-0.0280225
-0.0269475
-0.0287231
-0.0340437
-0.0292934
-0.041576
-0.0297117
-0.049275
-0.0299356
-0.0568318
-0.0298989
-0.0638394
-0.0295044
-0.0697876
-0.0286077
-0.0740848
-0.0270211
-0.0760426
-0.0245027
-0.074931
-0.0207998
-0.0699275
-0.0157038
-0.0602628
-0.00913086
-0.0453675
-0.00127238
-0.0249766
0.00839188
-0.000147437
0.0182334
0.0299724
0.0280627
0.0609819
0.0369404
0.0916739
0.043922
0.119868
0.0483035
0.144632
0.0503552
0.165595
0.0517955
0.181158
0.0552493
0.186521
0.0623875
0.174893
0.0725824
0.142093
0.0841703
0.0887431
0.0961529
0.0191776
0.10753
-0.0561221
0.11715
-0.123875
0.123522
-0.173226
0.12637
-0.202558
0.126567
-0.214118
0.122856
-0.213443
0.113121
-0.21488
0.100418
-0.2245
0.0922352
-0.220072
0.0928409
-0.171726
0.100543
-0.0792705
0.111066
0.0298398
0.121207
0.125384
0.128854
0.189665
0.130696
0.225008
0.124444
0.252463
0.114354
0.272161
0.108617
0.255407
0.111346
0.17628
0.119929
0.0611512
0.129508
-0.0485636
0.136982
-0.125666
0.142024
-0.160964
0.14359
-0.170678
0.141061
-0.152988
0.135901
-0.145146
0.132347
-0.109394
0.133209
-0.0774942
0.137956
-0.0262773
0.0323224
-0.0122103
-0.00884783
-0.0133212
-0.0135564
-0.014537
-0.0192353
-0.0158356
-0.0256489
-0.0172157
-0.0326636
-0.0186237
-0.0401681
-0.0200888
-0.0478099
-0.0215819
-0.0553387
-0.0230424
-0.0623789
-0.0243646
-0.0684653
-0.0253726
-0.0730768
-0.0258459
-0.0755693
-0.0254842
-0.0752927
-0.0239242
-0.0714875
-0.0208266
-0.0633604
-0.0159411
-0.050253
-0.00918669
-0.031731
-0.00101959
-0.00831454
0.00917253
0.0197803
0.0195167
0.0506377
0.0294402
0.0817503
0.0379686
0.11134
0.0446088
0.137991
0.0498683
0.160336
0.0553515
0.175675
0.062869
0.179003
0.072901
0.164861
0.0842416
0.130753
0.0955366
0.0774481
0.106114
0.00860038
0.115594
-0.0656028
0.123101
-0.131381
0.127528
-0.177653
0.128524
-0.203555
0.127303
-0.212896
0.123449
-0.20959
0.114176
-0.205607
0.100881
-0.211206
0.0910462
-0.210237
0.0903477
-0.171028
0.0976585
-0.0865813
0.10865
0.0188485
0.119837
0.114197
0.12819
0.181312
0.129856
0.223342
0.123403
0.258915
0.113987
0.281578
0.109513
0.25988
0.113244
0.172549
0.122327
0.0520678
0.131943
-0.0581793
0.139019
-0.132743
0.143661
-0.165605
0.145378
-0.172395
0.143661
-0.15127
0.138706
-0.140192
0.134199
-0.104888
0.133446
-0.0767409
0.13651
-0.0293416
0.0291755
0.00721546
-0.00836589
0.00617815
-0.0125191
0.00493648
-0.0179937
0.00347005
-0.0241824
0.00171112
-0.0309047
-0.000449576
-0.0380074
-0.00286142
-0.0453981
-0.00551346
-0.0526867
-0.0084008
-0.0594916
-0.0114116
-0.0654545
-0.0143421
-0.0701464
-0.0169693
-0.072942
-0.0189581
-0.073304
-0.0197956
-0.07065
-0.019061
-0.0640949
-0.0163786
-0.0529355
-0.0114983
-0.0366112
-0.00460104
-0.0152118
0.00430237
0.0108769
0.014713
0.0402271
0.0254264
0.071037
0.0355421
0.101224
0.0446582
0.128875
0.0531956
0.151798
0.0623046
0.166566
0.0729613
0.168347
0.0848473
0.152975
0.0965634
0.119037
0.10704
0.0669717
0.116036
-0.000395688
0.123493
-0.0730598
0.128792
-0.13668
0.131267
-0.180129
0.130573
-0.202861
0.127934
-0.210257
0.123843
-0.205498
0.115397
-0.197161
0.102123
-0.197933
0.0907883
-0.198903
0.0885272
-0.168767
0.0952897
-0.0933438
0.106687
0.00745094
0.118751
0.102133
0.127564
0.172499
0.129055
0.221851
0.12267
0.2653
0.114113
0.290135
0.110842
0.263152
0.115396
0.167996
0.124817
0.0426462
0.134387
-0.0677493
0.141079
-0.139434
0.145228
-0.169754
0.146878
-0.174045
0.145914
-0.150306
0.141484
-0.135762
0.136513
-0.099916
0.134372
-0.0745997
0.135702
-0.0306722
0.0266218
0.0310275
-0.00781177
0.0302366
-0.0117283
0.029123
-0.0168801
0.0276631
-0.0227225
0.0257911
-0.0290327
0.0235
-0.0357163
0.0206735
-0.0425715
0.0172612
-0.0492744
0.0132716
-0.055502
0.00874507
-0.0609279
0.00380523
-0.0652065
-0.00100499
-0.0681318
-0.00518974
-0.0691192
-0.00844825
-0.0673915
-0.0102238
-0.0623194
-0.0100307
-0.0531285
-0.00745948
-0.0391825
-0.00259102
-0.0200803
0.00526372
0.00302219
0.0149945
0.0304963
0.025964
0.0600675
0.0372815
0.0899065
0.0485062
0.117651
0.0597906
0.140514
0.071711
0.154646
0.0845076
0.15555
0.0973604
0.140122
0.108831
0.107566
0.118169
0.0576331
0.125515
-0.0077417
0.130972
-0.0785162
0.134061
-0.13977
0.134569
-0.180636
0.132364
-0.200657
0.128432
-0.206325
0.123968
-0.201034
0.116541
-0.189734
0.10394
-0.185332
0.0914524
-0.186415
0.0874255
-0.16474
0.0934481
-0.0993664
0.105141
-0.00424168
0.117858
0.0894159
0.126929
0.163428
0.128332
0.220448
0.122283
0.271348
0.114719
0.297698
0.112558
0.265313
0.117779
0.162775
0.127366
0.0330592
0.136781
-0.077164
0.143098
-0.145752
0.146728
-0.173384
0.148137
-0.175454
0.147787
-0.149956
0.144094
-0.132069
0.139136
-0.0949577
0.135949
-0.0714127
0.13565
-0.0303737
0.02465
0.0585176
-0.00724863
0.0578711
-0.0110818
0.0569559
-0.0159648
0.0555857
-0.0213522
0.0537092
-0.0271562
0.0512921
-0.0332992
0.0482598
-0.0395392
0.0445545
-0.0455692
0.0401387
-0.0510861
0.0350032
-0.0557924
0.0292242
-0.0594275
0.022911
-0.0618187
0.0164178
-0.0626259
0.0104296
-0.0614033
0.00569061
-0.0575804
0.00295915
-0.050397
0.00303437
-0.0392577
0.0062084
-0.0232543
0.0123199
-0.00308933
0.0207405
0.0220757
0.0312534
0.0495546
0.0430677
0.0780922
0.0556233
0.105095
0.0687354
0.127402
0.0824409
0.14094
0.0964335
0.141557
0.109583
0.126973
0.120448
0.0967011
0.128525
0.0495564
0.134257
-0.0134739
0.137806
-0.0820651
0.138756
-0.140719
0.137302
-0.179182
0.133749
-0.197104
0.128733
-0.201309
0.12377
-0.19607
0.117359
-0.183323
0.106042
-0.174015
0.0929541
-0.173327
0.0870335
-0.158819
0.0920121
-0.104345
0.103829
-0.0160587
0.116995
0.0762497
0.126223
0.1542
0.127703
0.218969
0.122247
0.276804
0.115763
0.304183
0.11462
0.266456
0.120365
0.157029
0.129962
0.0234625
0.139085
-0.086287
0.145014
-0.151681
0.148143
-0.176512
0.149201
-0.176513
0.14928
-0.150035
0.146421
-0.129211
0.141897
-0.0904336
0.13809
-0.0676062
0.136424
-0.0287073
0.0231888
0.0879012
-0.00649241
0.087114
-0.0102945
0.0860281
-0.014879
0.0844734
-0.0197975
0.0824126
-0.0250954
0.079812
-0.0306986
0.076609
-0.0363362
0.072757
-0.0417172
0.0682235
-0.0465526
0.0629747
-0.0505436
0.0569827
-0.0534355
0.0502361
-0.0550721
0.0429231
-0.0553129
0.0355188
-0.0539991
0.0287616
-0.0508232
0.0235687
-0.0452041
0.0207684
-0.0364574
0.021064
-0.0235499
0.0245586
-0.00658388
0.0311974
0.0154369
0.0406013
0.0401507
0.0521213
0.0665723
0.0650932
0.0921232
0.0790113
0.113484
0.0934661
0.126485
0.10778
0.127243
0.120663
0.11409
0.130755
0.086609
0.13774
0.0425716
0.142062
-0.0177957
0.143805
-0.083809
0.142705
-0.139619
0.139364
-0.17584
0.134598
-0.192338
0.128762
-0.195474
0.123248
-0.190555
0.117665
-0.17774
0.108077
-0.164427
0.0951176
-0.160368
0.0873318
-0.151033
0.0908019
-0.107815
0.102479
-0.0277357
0.115945
0.0627835
0.125368
0.144778
0.127167
0.217169
0.122542
0.281429
0.117185
0.30954
0.116968
0.266673
0.123116
0.150881
0.132585
0.0139936
0.141275
-0.0949769
0.146777
-0.157182
0.14944
-0.179176
0.150108
-0.17718
0.150424
-0.150351
0.14839
-0.127176
0.144625
-0.0866686
0.14066
-0.0636417
0.138022
-0.0260689
0.0221067
0.117122
-0.00522686
0.115847
-0.00901898
0.114231
-0.0132638
0.112154
-0.0177201
0.109621
-0.0225621
0.106597
-0.0276754
0.10303
-0.0327688
0.098903
-0.0375901
0.0942255
-0.0418751
0.0890018
-0.04532
0.0832126
-0.0476463
0.0768002
-0.0486598
0.0697474
-0.0482601
0.0621954
-0.0464471
0.0545759
-0.0432037
0.0476751
-0.0383033
0.0424608
-0.0312431
0.0399821
-0.0210712
0.0407392
-0.00734097
0.0450967
0.0110793
0.0528003
0.0324471
0.0633007
0.0560719
0.0758507
0.0795731
0.0896714
0.0996629
0.104013
0.112144
0.117955
0.113301
0.130138
0.101907
0.139348
0.0773993
0.145405
0.0365142
0.148586
-0.0209765
0.148708
-0.083931
0.145738
-0.136649
0.140668
-0.17077
0.134811
-0.186481
0.12842
-0.189083
0.12241
-0.184546
0.117362
-0.172692
0.109693
-0.156758
0.0976623
-0.148338
0.088304
-0.141675
0.0897425
-0.109254
0.100821
-0.0388145
0.114486
0.0491187
0.124266
0.134998
0.126686
0.214749
0.123111
0.285004
0.118912
0.313739
0.119531
0.266054
0.126
0.144412
0.135182
0.00481175
0.143329
-0.103124
0.148344
-0.162197
0.15058
-0.181412
0.150878
-0.177478
0.151267
-0.150741
0.149966
-0.125875
0.147166
-0.0838685
0.143484
-0.0599597
0.140358
-0.0229426
0.0212206
0.143691
-0.00329833
0.141663
-0.00699068
0.139228
-0.0108294
0.136369
-0.014861
0.133136
-0.019329
0.129481
-0.0240204
0.125363
-0.0286505
0.120801
-0.0330278
0.115842
-0.0369162
0.110541
-0.0400188
0.104943
-0.0420488
0.0990543
-0.0427709
0.0928281
-0.0420339
0.0862057
-0.0398247
0.0792376
-0.0362356
0.0722634
-0.0313291
0.065983
-0.0249627
0.0614683
-0.0165564
0.0597207
-0.00559344
0.0613849
0.00941518
0.0667778
0.0270541
0.0755549
0.0472948
0.0869506
0.0681775
0.0999547
0.0866587
0.113539
0.0985596
0.126611
0.100228
0.137823
0.0906956
0.146165
0.0690577
0.151513
0.0311658
0.153732
-0.0231951
0.152345
-0.0825443
0.147675
-0.131979
0.141088
-0.164184
0.134268
-0.179661
0.127549
-0.182364
0.121209
-0.178206
0.116405
-0.167887
0.110579
-0.150932
0.100203
-0.137961
0.0898822
-0.131355
0.0888909
-0.108262
0.0987498
-0.0486735
0.112451
0.0354175
0.122821
0.124628
0.12622
0.21135
0.123904
0.287319
0.120857
0.316787
0.122223
0.264687
0.128929
0.137707
0.13772
-0.00397965
0.145216
-0.11062
0.149682
-0.166663
0.15152
-0.183251
0.151512
-0.17747
0.15186
-0.151089
0.151156
-0.125171
0.149405
-0.0821169
0.146373
-0.0569278
0.143271
-0.0198412
0.0203138
0.164212
-0.000940708
0.161479
-0.00425755
0.158232
-0.00758202
0.154621
-0.0112507
0.150708
-0.0154152
0.146427
-0.0197399
0.141771
-0.0239945
0.136789
-0.0280459
0.13155
-0.0316773
0.126142
-0.0346102
0.120661
-0.0365678
0.115189
-0.0372989
0.109764
-0.0366095
0.104358
-0.034418
0.098877
-0.0307548
0.0932845
-0.0257367
0.0877698
-0.019448
0.0829025
-0.0116892
0.0796779
-0.00236882
0.0790956
0.00999744
0.0819327
0.0242171
0.0883704
0.0408571
0.0978929
0.058655
0.109441
0.0751108
0.12178
0.0862202
0.13366
0.0883487
0.143789
0.0805668
0.151405
0.0614413
0.156216
0.0263546
0.157529
-0.0245076
0.154626
-0.0796418
0.14837
-0.125722
0.140497
-0.15631
0.132855
-0.172019
0.12598
-0.175489
0.119552
-0.171778
0.114788
-0.163123
0.110517
-0.146661
0.102313
-0.129758
0.0918899
-0.120931
0.0884219
-0.104794
0.0963356
-0.0565871
0.109792
0.0219609
0.120949
0.113472
0.12564
0.206658
0.12478
0.28818
0.122912
0.318655
0.124967
0.262632
0.131816
0.130858
0.140167
-0.0123306
0.146902
-0.117355
0.150765
-0.170526
0.152229
-0.184715
0.152
-0.17724
0.152247
-0.151336
0.151995
-0.124919
0.151268
-0.0813901
0.149144
-0.0548041
0.146547
-0.0172437
0.0191612
0.175428
0.00158626
0.172486
-0.00131525
0.168889
-0.00398561
0.164953
-0.00731487
0.160689
-0.0111507
0.156063
-0.0151138
0.151117
-0.0190483
0.145916
-0.0228457
0.140544
-0.0263044
0.135108
-0.0291752
0.129746
-0.031205
0.124604
-0.0321577
0.119837
-0.0318423
0.115503
-0.0300842
0.111526
-0.0267776
0.10776
-0.0219711
0.104114
-0.015802
0.100727
-0.00830141
0.0980732
0.000284712
0.0965705
0.0115001
0.097621
0.0231666
0.10175
0.036728
0.108947
0.0514584
0.118456
0.0656016
0.129067
0.0756088
0.139467
0.0779488
0.148499
0.0715348
0.155549
0.0543911
0.159808
0.0220958
0.160178
-0.0248772
0.155757
-0.0752208
0.148093
-0.118058
0.139243
-0.147461
0.130974
-0.16375
0.124016
-0.168532
0.117688
-0.16545
0.112815
-0.15825
0.109602
-0.143448
0.103738
-0.123894
0.094112
-0.111305
0.0885087
-0.0991911
0.093847
-0.0619255
0.106565
0.00924335
0.118621
0.101415
0.124958
0.200321
0.125771
0.287366
0.125019
0.319407
0.127695
0.259957
0.134669
0.123884
0.142491
-0.020152
0.148391
-0.123256
0.15161
-0.173745
0.152713
-0.185818
0.15234
-0.176867
0.152471
-0.151466
0.15254
-0.124989
0.152733
-0.0815826
0.151651
-0.053722
0.149946
-0.0155392
0.0175579
0.176611
0.00375657
0.173702
0.00159464
0.170618
-0.000901973
0.16706
-0.00375735
0.163046
-0.00713677
0.158647
-0.0107144
0.153945
-0.0143464
0.14901
-0.0179102
0.143943
-0.0212372
0.138882
-0.0241151
0.133985
-0.026307
0.129401
-0.0275746
0.125265
-0.0277062
0.12169
-0.0265087
0.118754
-0.0238419
0.11644
-0.0196567
0.114602
-0.0139639
0.113104
-0.0068032
0.111674
0.00171438
0.11147
0.0117039
0.112315
0.0223214
0.115154
0.0338888
0.120439
0.0461741
0.127892
0.0581481
0.136601
0.0668996
0.145391
0.0691592
0.15327
0.0636555
0.159498
0.0481638
0.162986
0.0186072
0.161624
-0.0235148
0.155668
-0.0692655
0.147028
-0.109417
0.137761
-0.138194
0.129219
-0.155208
0.122228
-0.16154
0.116089
-0.15931
0.11103
-0.153191
0.108279
-0.140698
0.104515
-0.12013
0.0963628
-0.103153
0.0892906
-0.0921189
0.091739
-0.0643739
0.103
-0.0020174
0.115716
0.088699
0.123863
0.192175
0.126481
0.284748
0.126925
0.318963
0.130399
0.256482
0.137513
0.11677
0.144688
-0.0273262
0.149698
-0.128266
0.152254
-0.176301
0.152999
-0.186563
0.152535
-0.176403
0.152566
-0.151497
0.152858
-0.125281
0.153819
-0.082543
0.153793
-0.0536968
0.153244
-0.0149901
0.0153473
0.19855
0.00540543
-0.200199
0.197285
0.00285921
0.195761
0.000622323
0.194163
-0.00215932
0.19224
-0.00521336
0.189951
-0.00842542
0.187276
-0.0116722
0.184186
-0.01482
0.180668
-0.0177195
0.176747
-0.0201937
0.172479
-0.0220389
0.167946
-0.0230415
0.16324
-0.0230004
0.158462
-0.0217303
0.153701
-0.0190816
0.149014
-0.0149695
0.144417
-0.00936712
0.139984
-0.00237007
0.135642
0.00605604
0.131789
0.0155575
0.128605
0.0255052
0.126826
0.0356676
0.127254
0.0457467
0.130545
0.0548562
0.136832
0.0606127
0.145525
0.0604662
0.156012
0.0531686
0.167686
0.0364901
0.178442
0.00785075
0.185636
-0.030708
0.187584
-0.0712134
0.184678
-0.106511
0.178199
-0.131715
0.169554
-0.146564
0.160345
-0.152332
0.151016
-0.149981
0.141671
-0.143846
0.133865
-0.132891
0.126418
-0.112683
0.115624
-0.0923585
0.103283
-0.0797778
0.0962299
-0.0573209
0.0965883
-0.00237578
0.098871
0.0864162
0.0995591
0.191487
0.0999812
0.284326
0.105665
0.313279
0.119456
0.242691
0.136005
0.100221
0.148497
-0.039818
0.154651
-0.13442
0.155657
-0.177306
0.153736
-0.184643
0.150409
-0.173076
0.147574
-0.148662
0.14531
-0.123017
0.144417
-0.0816496
0.143316
-0.0525961
0.142326
-0.0140004
0.0140429
0.209109
0.00647297
-0.210176
0.207942
0.00402657
0.206873
0.00169039
0.205535
-0.000820976
0.203815
-0.0034929
0.201713
-0.00632377
0.199219
-0.00917826
0.196324
-0.0119246
0.193035
-0.0144305
0.189387
-0.0165456
0.185443
-0.0180949
0.18129
-0.0188886
0.177031
-0.0187415
0.17278
-0.0174797
0.168654
-0.0149554
0.164762
-0.0110771
0.161207
-0.00581216
0.157977
0.000860168
0.155193
0.00883972
0.152965
0.017786
0.151401
0.0270686
0.150913
0.0361556
0.152119
0.0445413
0.155635
0.0513392
0.161632
0.054616
0.169682
0.0524159
0.179245
0.0436066
0.18934
0.0263944
0.198008
-0.000816467
0.202791
-0.0354917
0.202675
-0.0710976
0.198036
-0.101872
0.190216
-0.123894
0.180611
-0.136959
0.170726
-0.142447
0.161144
-0.140399
0.151568
-0.13427
0.14332
-0.124643
0.136253
-0.105616
0.126462