/*--------------------------------*- C++ -*----------------------------------*\
| =========                 |                                                 |
| \\      /  F ield         | OpenFOAM: The Open Source CFD Toolbox           |
|  \\    /   O peration     | Version:  2512                                  |
|   \\  /    A nd           | Website:  www.openfoam.com                      |
|    \\/     M anipulation  |                                                 |
\*---------------------------------------------------------------------------*/
FoamFile
{
    version     2.0;
    format      ascii;
    arch        "LSB;label=32;scalar=64";
    class       volScalarField;
    location    "194.5";
    object      p;
}
// * * * * * * * * * * * * * * * * * * * * * * * * * * * * * * * * * * * * * //

dimensions      [0 2 -2 0 0 0 0];

internalField   nonuniform List<scalar> 
13248
(
-0.306869
-0.306067
-0.304088
-0.301159
-0.297487
-0.293214
-0.288473
-0.283412
-0.278184
-0.272942
-0.267831
-0.262978
-0.258475
-0.254375
-0.250681
-0.247348
-0.24429
-0.241389
-0.238504
-0.235524
-0.232229
-0.228652
-0.22397
-0.218759
-0.314605
-0.312881
-0.310195
-0.306725
-0.302632
-0.298053
-0.2931
-0.287877
-0.282484
-0.277015
-0.271558
-0.266182
-0.260934
-0.255832
-0.250866
-0.246
-0.241181
-0.236343
-0.231419
-0.226339
-0.221
-0.215339
-0.209072
-0.202745
-0.324176
-0.321331
-0.317771
-0.313628
-0.309
-0.304006
-0.298718
-0.293175
-0.287402
-0.281427
-0.275281
-0.268999
-0.262619
-0.256174
-0.249691
-0.243192
-0.236689
-0.230188
-0.223678
-0.21714
-0.210501
-0.203757
-0.196705
-0.189794
-0.335519
-0.331388
-0.326825
-0.3219
-0.316624
-0.311075
-0.305259
-0.299128
-0.292631
-0.28574
-0.27847
-0.270871
-0.263025
-0.255027
-0.246975
-0.238953
-0.231026
-0.223232
-0.215579
-0.20805
-0.200601
-0.193224
-0.185778
-0.178719
-0.348618
-0.343079
-0.337423
-0.331633
-0.325588
-0.319291
-0.312659
-0.305555
-0.297876
-0.289595
-0.280771
-0.271531
-0.26204
-0.252469
-0.24297
-0.233657
-0.224604
-0.215842
-0.207369
-0.199162
-0.19118
-0.183399
-0.175734
-0.168487
-0.363455
-0.356422
-0.349625
-0.342899
-0.335928
-0.328602
-0.320741
-0.312158
-0.302768
-0.292625
-0.281901
-0.270833
-0.259668
-0.248624
-0.237863
-0.227488
-0.217547
-0.208047
-0.198966
-0.190266
-0.181905
-0.173847
-0.166032
-0.15866
-0.379916
-0.371346
-0.363385
-0.355632
-0.347498
-0.338735
-0.32911
-0.318471
-0.306854
-0.294474
-0.28165
-0.268717
-0.255965
-0.243609
-0.231778
-0.220535
-0.209887
-0.199811
-0.190266
-0.181202
-0.17257
-0.164324
-0.156424
-0.148956
-0.39771
-0.387613
-0.378472
-0.369539
-0.359888
-0.349159
-0.337161
-0.323906
-0.309653
-0.294818
-0.279851
-0.265136
-0.250949
-0.237453
-0.224722
-0.212762
-0.201542
-0.19101
-0.181108
-0.171776
-0.162956
-0.154598
-0.146669
-0.139159
-0.416311
-0.40476
-0.394407
-0.38405
-0.37241
-0.359107
-0.344146
-0.327837
-0.310718
-0.293392
-0.27638
-0.260046
-0.244603
-0.230138
-0.216653
-0.204105
-0.192427
-0.181543
-0.171379
-0.161864
-0.152934
-0.144535
-0.136629
-0.129129
-0.434937
-0.422062
-0.410424
-0.398297
-0.384113
-0.367642
-0.349259
-0.329661
-0.30966
-0.289974
-0.271114
-0.253371
-0.23686
-0.221584
-0.207481
-0.194464
-0.182433
-0.171294
-0.160958
-0.151341
-0.142374
-0.133999
-0.126155
-0.118719
-0.452565
-0.438528
-0.42547
-0.411136
-0.393842
-0.373718
-0.351653
-0.328751
-0.306023
-0.284214
-0.263756
-0.244825
-0.227434
-0.211505
-0.196922
-0.183557
-0.171287
-0.159998
-0.149588
-0.139964
-0.131047
-0.122769
-0.115039
-0.10774
-0.46803
-0.453031
-0.438385
-0.421372
-0.400432
-0.376286
-0.350427
-0.324327
-0.299107
-0.27545
-0.253656
-0.233772
-0.215706
-0.199305
-0.184404
-0.170842
-0.158473
-0.147166
-0.136807
-0.127293
-0.118541
-0.110471
-0.102962
-0.095952
-0.336573
-0.339266
-0.340783
-0.341644
-0.342292
-0.342838
-0.343319
-0.343739
-0.344083
-0.344318
-0.344401
-0.34429
-0.343948
-0.343358
-0.34252
-0.341466
-0.340264
-0.33902
-0.337888
-0.337071
-0.336797
-0.337283
-0.338762
-0.341645
-0.327364
-0.329746
-0.330958
-0.331445
-0.331599
-0.331526
-0.331269
-0.330854
-0.330286
-0.329559
-0.328668
-0.327619
-0.326435
-0.325167
-0.323894
-0.322735
-0.321847
-0.321421
-0.321681
-0.322874
-0.325249
-0.329008
-0.334303
-0.341524
-0.319644
-0.321595
-0.322456
-0.322573
-0.322268
-0.321632
-0.320718
-0.319564
-0.318198
-0.316644
-0.314932
-0.313108
-0.311248
-0.309457
-0.307875
-0.306679
-0.306091
-0.306352
-0.307717
-0.310437
-0.314759
-0.320834
-0.328682
-0.338657
-0.313224
-0.314712
-0.315215
-0.314982
-0.314254
-0.313109
-0.311602
-0.309788
-0.307718
-0.305442
-0.303025
-0.300547
-0.298125
-0.295907
-0.294077
-0.292816
-0.292434
-0.293159
-0.295254
-0.298963
-0.304485
-0.311947
-0.321299
-0.332454
-0.307883
-0.308958
-0.309136
-0.308578
-0.30746
-0.305843
-0.303788
-0.301365
-0.298648
-0.295718
-0.292669
-0.289602
-0.286682
-0.284074
-0.281983
-0.280644
-0.280317
-0.281261
-0.283721
-0.287912
-0.293989
-0.302017
-0.31208
-0.323269
-0.303448
-0.304224
-0.304129
-0.303272
-0.301783
-0.299714
-0.297132
-0.294125
-0.290789
-0.287237
-0.283588
-0.279986
-0.276598
-0.27362
-0.271269
-0.269788
-0.269425
-0.270425
-0.27301
-0.277356
-0.283589
-0.291608
-0.301848
-0.312273
-0.299859
-0.30047
-0.300162
-0.299026
-0.297175
-0.294664
-0.291567
-0.287995
-0.284068
-0.279925
-0.275719
-0.271618
-0.267812
-0.26451
-0.26194
-0.260339
-0.259945
-0.260981
-0.263627
-0.268
-0.274236
-0.281892
-0.292051
-0.301083
-0.297199
-0.297757
-0.29728
-0.295875
-0.293672
-0.290734
-0.287154
-0.283059
-0.278598
-0.273938
-0.269259
-0.264756
-0.260639
-0.257131
-0.25446
-0.252858
-0.252539
-0.253689
-0.256447
-0.260813
-0.266958
-0.273977
-0.283595
-0.290754
-0.295689
-0.296241
-0.295608
-0.29394
-0.291401
-0.288076
-0.284077
-0.279551
-0.274672
-0.269631
-0.264635
-0.2599
-0.25565
-0.252112
-0.249508
-0.248042
-0.247884
-0.249156
-0.251922
-0.25606
-0.261726
-0.267739
-0.275982
-0.281099
-0.295642
-0.296139
-0.295322
-0.293388
-0.290545
-0.2869
-0.282585
-0.277765
-0.272631
-0.267396
-0.262278
-0.257501
-0.253289
-0.249853
-0.247382
-0.246028
-0.24589
-0.247003
-0.249345
-0.252731
-0.257199
-0.261783
-0.267774
-0.270919
-0.297372
-0.297668
-0.29659
-0.294373
-0.291254
-0.287362
-0.28284
-0.277866
-0.272636
-0.267359
-0.262257
-0.257542
-0.253412
-0.250037
-0.247549
-0.246025
-0.245479
-0.24586
-0.247054
-0.248897
-0.251288
-0.253838
-0.257104
-0.258459
-0.301097
-0.300969
-0.299511
-0.29696
-0.293566
-0.289466
-0.284809
-0.279764
-0.274519
-0.269269
-0.264207
-0.259512
-0.255337
-0.251794
-0.248943
-0.246785
-0.245259
-0.244252
-0.243595
-0.243148
-0.242704
-0.242318
-0.242118
-0.24189
-0.34721
-0.356102
-0.367239
-0.37955
-0.391421
-0.40066
-0.404735
-0.40115
-0.387542
-0.3628
-0.327403
-0.284474
-0.239337
-0.197781
-0.164183
-0.140619
-0.127133
-0.123023
-0.128232
-0.142753
-0.163603
-0.182894
-0.190401
-0.181509
-0.158591
-0.130472
-0.105197
-0.0871283
-0.0772624
-0.0744837
-0.0779626
-0.0892786
-0.109152
-0.131613
-0.144428
-0.138763
-0.11872
-0.0948674
-0.0760221
-0.0639977
-0.0580527
-0.0594735
-0.0681737
-0.0778764
-0.0794244
-0.0714093
-0.06095
-0.0517656
-0.0461476
-0.0453049
-0.0471244
-0.0485964
-0.0469835
-0.0416524
-0.0364341
-0.0292208
-0.0213154
-0.0190957
-0.0157462
-0.00633382
-0.35338
-0.368456
-0.385131
-0.402207
-0.417809
-0.429615
-0.435086
-0.431682
-0.417032
-0.389814
-0.350644
-0.30299
-0.252699
-0.206024
-0.167546
-0.139358
-0.121435
-0.112909
-0.113361
-0.122751
-0.139033
-0.155845
-0.16418
-0.158439
-0.140654
-0.117664
-0.0967235
-0.0822369
-0.0754305
-0.0753259
-0.0814313
-0.0957548
-0.118754
-0.143613
-0.157075
-0.149918
-0.127196
-0.100225
-0.078423
-0.0638279
-0.0556401
-0.0545861
-0.0608121
-0.0686969
-0.0699777
-0.0637402
-0.0557643
-0.0492844
-0.0458523
-0.0475619
-0.0515334
-0.0538964
-0.0520776
-0.0451027
-0.0386474
-0.0295503
-0.0201021
-0.0167825
-0.0128952
-0.00515291
-0.35497
-0.37423
-0.394318
-0.414288
-0.432182
-0.445651
-0.452144
-0.449053
-0.433979
-0.405465
-0.36414
-0.313656
-0.260164
-0.210164
-0.168338
-0.136668
-0.115004
-0.102365
-0.0980929
-0.102215
-0.113577
-0.127396
-0.13599
-0.133299
-0.120668
-0.102844
-0.086368
-0.0756457
-0.0720334
-0.0746649
-0.0833761
-0.100483
-0.126221
-0.153178
-0.167374
-0.159151
-0.134245
-0.104589
-0.0801515
-0.0632198
-0.0529997
-0.0496671
-0.0535648
-0.0597216
-0.0606947
-0.0560773
-0.0503811
-0.0465157
-0.0453071
-0.0497147
-0.0559599
-0.0591905
-0.0570495
-0.0483426
-0.0406509
-0.0298109
-0.0188865
-0.0144929
-0.0100814
-0.00399272
-0.351278
-0.372726
-0.394459
-0.415807
-0.434799
-0.449227
-0.456365
-0.453646
-0.438624
-0.409833
-0.367908
-0.316559
-0.26198
-0.210656
-0.167132
-0.133232
-0.108739
-0.0926411
-0.0841459
-0.0831597
-0.0893487
-0.0995553
-0.1076
-0.107349
-0.0995315
-0.0865912
-0.0744867
-0.0675065
-0.0670101
-0.0722391
-0.083309
-0.102777
-0.13086
-0.159742
-0.174917
-0.166189
-0.139678
-0.107859
-0.0812098
-0.0622512
-0.0502505
-0.0449011
-0.0466794
-0.0512262
-0.051811
-0.0485807
-0.0448941
-0.0434953
-0.0444823
-0.0516814
-0.0603008
-0.0643971
-0.0618377
-0.0513301
-0.0424151
-0.0299883
-0.0176756
-0.0122539
-0.00732867
-0.00286254
-0.342746
-0.364763
-0.386816
-0.408453
-0.42782
-0.442173
-0.449582
-0.447093
-0.432442
-0.404181
-0.363045
-0.312743
-0.259217
-0.208523
-0.164823
-0.129806
-0.103324
-0.0844426
-0.0723532
-0.0668393
-0.0679283
-0.0740302
-0.080736
-0.0835046
-0.0781186
-0.0694694
-0.061428
-0.0579372
-0.0602889
-0.0678413
-0.080901
-0.102258
-0.132252
-0.16285
-0.179312
-0.17083
-0.14341
-0.110023
-0.0816461
-0.0610151
-0.0475057
-0.0404225
-0.0403162
-0.0433983
-0.0435258
-0.0414054
-0.0393994
-0.0402501
-0.0433408
-0.0533712
-0.0644338
-0.0694053
-0.0663624
-0.0540222
-0.0439146
-0.0300685
-0.0164759
-0.0100899
-0.00465975
-0.00177111
-0.33124
-0.352513
-0.373664
-0.394489
-0.413734
-0.427527
-0.434172
-0.431522
-0.417339
-0.390254
-0.351155
-0.303603
-0.252983
-0.204608
-0.162084
-0.126946
-0.0992259
-0.0782129
-0.0631701
-0.0538049
-0.0502638
-0.0520206
-0.0563206
-0.0591546
-0.0569246
-0.0520931
-0.0476181
-0.0471612
-0.0519737
-0.0615054
-0.0761433
-0.0988534
-0.130201
-0.162332
-0.180339
-0.172868
-0.145371
-0.111084
-0.0815045
-0.059581
-0.0448407
-0.0363068
-0.0345714
-0.036363
-0.0359867
-0.0346797
-0.0339847
-0.0368087
-0.0418506
-0.0546855
-0.0682175
-0.0740894
-0.0705436
-0.0563827
-0.0451287
-0.0300331
-0.0152907
-0.00802203
-0.00209315
-0.000725484
-0.31888
-0.338099
-0.357156
-0.376738
-0.393443
-0.406363
-0.411954
-0.409
-0.395402
-0.37014
-0.334235
-0.290866
-0.244589
-0.199793
-0.159477
-0.125033
-0.0967177
-0.0741518
-0.0567725
-0.0442615
-0.0367391
-0.0342795
-0.0355347
-0.0375295
-0.0371079
-0.0352178
-0.0336128
-0.0356025
-0.0423894
-0.0534775
-0.0692157
-0.0926689
-0.124786
-0.158227
-0.177942
-0.172216
-0.145534
-0.111066
-0.0808204
-0.0579947
-0.0423012
-0.0325872
-0.0294705
-0.0301675
-0.0292803
-0.0285087
-0.0287383
-0.0332104
-0.0399868
-0.0555276
-0.0715004
-0.0783218
-0.0743102
-0.0583806
-0.0460437
-0.029867
-0.0141199
-0.00606499
0.000356871
0.000269458
-0.306473
-0.322076
-0.337991
-0.355222
-0.370361
-0.380406
-0.384567
-0.381312
-0.368644
-0.345963
-0.314256
-0.276105
-0.235088
-0.194641
-0.157211
-0.12409
-0.0957492
-0.072162
-0.0530291
-0.0380705
-0.0273238
-0.0210862
-0.019023
-0.0194101
-0.0199829
-0.0195343
-0.0200176
-0.0237887
-0.0319628
-0.044103
-0.0604623
-0.0840863
-0.116355
-0.150719
-0.172333
-0.168981
-0.14393
-0.110001
-0.0796207
-0.0562859
-0.0399148
-0.0292765
-0.0250064
-0.024794
-0.0234268
-0.0229655
-0.0237499
-0.0295018
-0.037743
-0.0558111
-0.0741361
-0.0819867
-0.0775982
-0.0599927
-0.0466539
-0.0295725
-0.0129705
-0.00422861
0.00268127
0.00121111
-0.293132
-0.30405
-0.317595
-0.331675
-0.343349
-0.350636
-0.353739
-0.350477
-0.339314
-0.319941
-0.293101
-0.260668
-0.22525
-0.18943
-0.155205
-0.123828
-0.0959557
-0.0718549
-0.051512
-0.0347615
-0.0215675
-0.0122131
-0.00691585
-0.00504129
-0.00503336
-0.00544906
-0.00735293
-0.01222
-0.0211441
-0.0337908
-0.050261
-0.0735384
-0.105506
-0.140415
-0.163942
-0.163413
-0.140709
-0.108042
-0.0780508
-0.0545828
-0.0377802
-0.0264252
-0.0211828
-0.0202252
-0.0184171
-0.0179874
-0.0191019
-0.0257364
-0.0351141
-0.0554698
-0.076013
-0.0849856
-0.0803461
-0.0612142
-0.046966
-0.0291683
-0.0118686
-0.00253624
0.0048748
0.00209911
-0.277972
-0.284063
-0.294213
-0.305658
-0.313744
-0.319538
-0.322074
-0.319319
-0.310271
-0.29466
-0.272875
-0.246115
-0.21615
-0.184872
-0.153927
-0.124549
-0.0975422
-0.0733775
-0.0522707
-0.0342242
-0.0191946
-0.0073752
0.000840165
0.00537197
0.00698555
0.00660526
0.00404971
-0.00123425
-0.0103388
-0.0229925
-0.0392263
-0.0618573
-0.0929475
-0.127955
-0.153273
-0.155811
-0.136166
-0.105526
-0.0764424
-0.0531516
-0.0360985
-0.0241408
-0.0179979
-0.0164241
-0.0142814
-0.0138291
-0.0148554
-0.0219574
-0.0321645
-0.0544558
-0.0770335
-0.0872107
-0.0824981
-0.0620574
-0.0469957
-0.0286462
-0.0108308
-0.00102816
0.00692617
0.00293463
-0.260582
-0.264072
-0.272073
-0.279526
-0.285271
-0.290042
-0.292332
-0.290562
-0.283972
-0.272189
-0.255278
-0.233878
-0.209079
-0.182199
-0.154564
-0.127339
-0.101437
-0.0774939
-0.0559084
-0.036864
-0.0203956
-0.0066174
0.00413281
0.0114503
0.0153141
0.0161281
0.013914
0.00886849
0.000152486
-0.0119346
-0.0274259
-0.0490834
-0.0795252
-0.114645
-0.140741
-0.146454
-0.13003
-0.10219
-0.0745814
-0.0517489
-0.0346729
-0.022261
-0.0152681
-0.013122
-0.0108702
-0.010486
-0.0111898
-0.0182119
-0.0288154
-0.0527438
-0.0772127
-0.0885588
-0.0839096
-0.0624491
-0.0467146
-0.0278984
-0.00979027
0.000321813
0.00882318
0.0037169
-0.243214
-0.247106
-0.251651
-0.255296
-0.258612
-0.261907
-0.263533
-0.262303
-0.257554
-0.248814
-0.235911
-0.21905
-0.198794
-0.175992
-0.151664
-0.126856
-0.102513
-0.0793821
-0.0580026
-0.038701
-0.021647
-0.00695317
0.00526484
0.0147268
0.020893
0.0231654
0.0222925
0.0175838
0.00956734
-0.00165444
-0.0162976
-0.0367181
-0.0655896
-0.0995416
-0.125898
-0.132928
-0.120638
-0.0961032
-0.0704941
-0.0486314
-0.0321248
-0.0198088
-0.012425
-0.00980464
-0.00753654
-0.00738977
-0.00790226
-0.0147253
-0.0254312
-0.0503523
-0.0763076
-0.0889926
-0.0844178
-0.0621555
-0.0459867
-0.0267501
-0.00860575
0.00168242
0.0106244
0.00444952
-0.2287
-0.238867
-0.242036
-0.241794
-0.24289
-0.244662
-0.245277
-0.243449
-0.238439
-0.229863
-0.217626
-0.201921
-0.18322
-0.162234
-0.139827
-0.116898
-0.0942653
-0.0725831
-0.0523231
-0.0337868
-0.0171512
-0.00254605
0.00993355
0.0201186
0.0275863
0.0317745
0.0317053
0.0276801
0.0207857
0.0110262
-0.00235958
-0.0223969
-0.0527892
-0.0898471
-0.11915
-0.127973
-0.113444
-0.0889839
-0.0644797
-0.0438145
-0.0282878
-0.0165517
-0.00941692
-0.00664665
-0.00415588
-0.0036211
-0.00328003
-0.00993974
-0.0207314
-0.0469481
-0.0753309
-0.0897335
-0.0852728
-0.0614489
-0.0448705
-0.0253891
-0.0073869
0.00307784
0.0123584
0.0051279
-0.211681
-0.224075
-0.226681
-0.225435
-0.224687
-0.22485
-0.224384
-0.221858
-0.216521
-0.208131
-0.196712
-0.182456
-0.165723
-0.147044
-0.127076
-0.106527
-0.0860585
-0.0662301
-0.0474713
-0.030079
-0.0142592
-0.000154313
0.0121899
0.0226515
0.03077
0.0356228
0.0364972
0.0338202
0.0283875
0.0202577
0.00823844
-0.0113267
-0.0425921
-0.0806737
-0.109522
-0.116261
-0.102429
-0.0798303
-0.0576163
-0.0388494
-0.0246812
-0.0137344
-0.00684102
-0.0039638
-0.00155086
-0.000969231
-0.000365803
-0.00654426
-0.017011
-0.0437784
-0.0738589
-0.0890886
-0.0845853
-0.0599891
-0.043117
-0.0237773
-0.00619983
0.00435727
0.0136422
0.00564508
-0.19454
-0.207641
-0.210626
-0.208729
-0.206683
-0.205616
-0.204356
-0.201469
-0.196199
-0.18836
-0.178019
-0.165326
-0.150522
-0.133972
-0.116171
-0.0976839
-0.0790746
-0.060841
-0.0433885
-0.0270177
-0.0119424
0.00166992
0.0137253
0.0241091
0.0325001
0.0381099
0.0399682
0.0383244
0.0341031
0.0271769
0.0159084
-0.00367173
-0.0346648
-0.0707931
-0.0972353
-0.102909
-0.0905409
-0.0705143
-0.0508169
-0.0339535
-0.021098
-0.0109709
-0.00438579
-0.00146362
0.000869541
0.00147854
0.00212099
-0.00394591
-0.0142871
-0.0410126
-0.0715471
-0.0870412
-0.0828249
-0.0579805
-0.0409525
-0.021979
-0.00495614
0.0055768
0.0147137
0.00608263
-0.178628
-0.190976
-0.194037
-0.192018
-0.189386
-0.187585
-0.185805
-0.182763
-0.177708
-0.17045
-0.161059
-0.149675
-0.136479
-0.121741
-0.105841
-0.0892323
-0.0723813
-0.0557147
-0.0395937
-0.0243053
-0.0100625
0.00295246
0.0145994
0.0247536
0.0332099
0.0392337
0.0419926
0.041543
0.0386338
0.0329527
0.0224561
0.0031829
-0.0265865
-0.0601136
-0.084044
-0.088764
-0.0780552
-0.060856
-0.0438409
-0.0289747
-0.0174884
-0.00826504
-0.00205541
0.000869976
0.00317702
0.00382745
0.00451652
-0.00151098
-0.0117017
-0.0377678
-0.0680789
-0.0838273
-0.0800701
-0.0554312
-0.0384101
-0.0199476
-0.00364579
0.00670178
0.0156
0.0064581
-0.162792
-0.174287
-0.177466
-0.175646
-0.172857
-0.170644
-0.168522
-0.16542
-0.160632
-0.15395
-0.145441
-0.13524
-0.123498
-0.110414
-0.0962665
-0.0814043
-0.0662058
-0.051034
-0.0362111
-0.0220109
-0.00864646
0.00369428
0.0148469
0.0246535
0.032952
0.039123
0.0425841
0.0432011
0.0415616
0.0372383
0.0278801
0.00955335
-0.0185106
-0.0490794
-0.06998
-0.0739184
-0.0652381
-0.0511407
-0.0369114
-0.0240583
-0.013922
-0.0056381
0.000148261
0.00303675
0.00535456
0.00602979
0.00678371
0.000954557
-0.00877025
-0.0336551
-0.0634421
-0.0793379
-0.0761633
-0.0522795
-0.0354899
-0.0176944
-0.00227545
0.00770892
0.0162717
0.00675682
-0.147275
-0.158141
-0.161364
-0.159785
-0.157034
-0.154647
-0.152362
-0.149307
-0.144843
-0.138759
-0.131106
-0.122005
-0.111584
-0.099987
-0.0874197
-0.07415
-0.0604849
-0.0467331
-0.033179
-0.0200765
-0.00763284
0.00396305
0.0145371
0.0239102
0.0319415
0.0380776
0.0419418
0.0433193
0.0426542
0.0394577
0.031275
0.0144556
-0.010955
-0.037586
-0.0552953
-0.0589932
-0.0526585
-0.0416909
-0.0301784
-0.019284
-0.0104429
-0.00310302
0.00222588
0.00502985
0.00738692
0.00810008
0.00891266
0.00346206
-0.00549856
-0.0287925
-0.0576137
-0.073449
-0.0710331
-0.0485049
-0.0322262
-0.0152428
-0.000851456
0.00857905
0.0166944
0.00696085
-0.132772
-0.142757
-0.145858
-0.144511
-0.141933
-0.139566
-0.137281
-0.13437
-0.130277
-0.124794
-0.117954
-0.109866
-0.100636
-0.0903765
-0.0792393
-0.0674307
-0.0551965
-0.0427957
-0.0304758
-0.0184677
-0.00696995
0.00382915
0.0137562
0.0226249
0.0303296
0.0362817
0.0403244
0.0421759
0.0421048
0.0395971
0.03246
0.0178271
-0.00377354
-0.0259117
-0.0405973
-0.0447769
-0.0408496
-0.032796
-0.0237884
-0.0147377
-0.00710544
-0.000675979
0.00418
0.00685715
0.00927544
0.0100637
0.0109085
0.00596499
-0.00204989
-0.0233134
-0.0506023
-0.0661977
-0.0647126
-0.0441203
-0.0286703
-0.0126334
0.000616068
0.00929832
0.0168435
0.00706028
-0.119089
-0.128083
-0.131051
-0.129971
-0.127646
-0.125414
-0.123238
-0.12054
-0.116838
-0.111941
-0.105869
-0.0987138
-0.0905681
-0.0815203
-0.0716846
-0.061218
-0.0503157
-0.0391928
-0.0280635
-0.0171349
-0.00659444
0.00337369
0.0125995
0.0208836
0.0280303
0.0338761
0.0379626
0.0400841
0.0403494
0.0382815
0.0322225
0.0202327
0.00283423
-0.0150556
-0.0274882
-0.0320669
-0.0302537
-0.0246918
-0.0178609
-0.0104853
-0.00395824
0.00162731
0.00601358
0.00853822
0.0110268
0.0119418
0.0127842
0.00844637
0.00152653
-0.0172877
-0.042561
-0.0577629
-0.0573303
-0.0391763
-0.0248898
-0.00992487
0.00211387
0.00986541
0.0167119
0.00705405
-0.106088
-0.114244
-0.117098
-0.116271
-0.114222
-0.112183
-0.11018
-0.107736
-0.104435
-0.100103
-0.0947519
-0.0884601
-0.0813057
-0.0733599
-0.0647091
-0.0554732
-0.0458069
-0.0358877
-0.0258992
-0.0160259
-0.00644033
0.00268186
0.0111764
0.0188489
0.0255144
0.0310545
0.0350621
0.0373212
0.0378199
0.0361661
0.0312346
0.0217929
0.00820535
-0.00601022
-0.0165376
-0.0213434
-0.0211172
-0.0175177
-0.012478
-0.00657383
-0.00104234
0.0037882
0.00772352
0.010092
0.0126494
0.0137558
0.0145784
0.010968
0.00526468
-0.010858
-0.033797
-0.0484518
-0.0491146
-0.0337672
-0.0209641
-0.00719112
0.00362487
0.0102998
0.0163176
0.0069515
-0.0940112
-0.101367
-0.104052
-0.103433
-0.101661
-0.0998498
-0.0980576
-0.0958912
-0.09299
-0.0891987
-0.0845221
-0.0790263
-0.072778
-0.0658348
-0.058263
-0.0501548
-0.0416326
-0.0328422
-0.0239394
-0.0150865
-0.00643969
0.00183758
0.0095893
0.0166358
0.0228124
0.0279703
0.0318141
0.0341232
0.0348114
0.0335726
0.0296736
0.0223629
0.0119258
0.000791787
-0.00801353
-0.012687
-0.0134777
-0.01132
-0.00768703
-0.0030339
0.00161207
0.00578493
0.0093009
0.0115276
0.0141462
0.0155281
0.0163619
0.0136254
0.00915695
-0.00427104
-0.0247388
-0.0386908
-0.0403988
-0.0280356
-0.0169799
-0.00451487
0.00512749
0.0106484
0.0157117
0.00677641
-0.0828958
-0.0894144
-0.0918932
-0.0914619
-0.0899677
-0.0883979
-0.0868337
-0.0849508
-0.0824388
-0.0791575
-0.0751065
-0.0703417
-0.06492
-0.0588887
-0.0522989
-0.0452222
-0.0377552
-0.0300171
-0.0221394
-0.0142626
-0.00652649
0.000919694
0.00793068
0.0143444
0.0200083
0.0247643
0.02839
0.0306818
0.0315153
0.030657
0.0276445
0.0220523
0.0141315
0.00554265
-0.00166032
-0.00591107
-0.0072398
-0.00607794
-0.00350642
0.000117704
0.00398633
0.00759327
0.0107349
0.0128461
0.0155073
0.0172491
0.018163
0.0164792
0.0131372
0.00215659
-0.0159083
-0.028997
-0.0316021
-0.0221712
-0.0130273
-0.00197899
0.00659255
0.0109863
0.0149803
0.00656978
-0.0725986
-0.0783479
-0.0806323
-0.0803773
-0.079146
-0.077813
-0.076476
-0.0748694
-0.0727254
-0.0699178
-0.066442
-0.0623447
-0.0576746
-0.0524705
-0.0467726
-0.0406361
-0.0341377
-0.0273741
-0.0204556
-0.0135031
-0.00664002
7.02656e-07
0.00628777
0.0120733
0.0172156
0.0215625
0.0249392
0.0271658
0.0281096
0.027596
0.0253448
0.0211393
0.0152099
0.00868007
0.00293276
-0.000736891
-0.00224916
-0.00172974
6.89567e-05
0.00287439
0.00607273
0.00919067
0.012012
0.0140435
0.0167127
0.0188552
0.0199091
0.0194896
0.0170424
0.00804123
-0.00784444
-0.0198926
-0.0231586
-0.0163938
-0.0091976
0.000343764
0.00797602
0.0114033
0.0142317
0.00638611
-0.0631268
-0.0681903
-0.0702504
-0.0701703
-0.0691789
-0.068068
-0.0669484
-0.0656019
-0.0637982
-0.0614244
-0.0584725
-0.0549807
-0.0509905
-0.046534
-0.0416427
-0.0363595
-0.0307448
-0.0248773
-0.0188489
-0.0127621
-0.00672492
-0.000854083
0.00473444
0.00990726
0.014534
0.0184784
0.0215938
0.0237275
0.0247585
0.0245572
0.0229587
0.0198754
0.0155126
0.010631
0.00616204
0.00313197
0.00166594
0.00180721
0.00306369
0.00523711
0.00787075
0.0105644
0.0131132
0.0150962
0.0177377
0.0203053
0.0231834
0.0223967
0.0204708
0.0129547
-0.000947698
-0.0117792
-0.0154351
-0.0109295
-0.00558415
0.00239942
0.00921769
0.0119655
0.0135624
0.00627641
-0.0545409
-0.0590147
-0.0609696
-0.060887
-0.0600593
-0.059138
-0.0582143
-0.0571043
-0.0556092
-0.0536273
-0.0511477
-0.0482011
-0.0448222
-0.0410376
-0.0368721
-0.0323588
-0.0275455
-0.0224957
-0.0172854
-0.012001
-0.00673494
-0.00158937
0.00333321
0.00791808
0.0120465
0.0156056
0.0184602
0.0204878
0.0215863
0.0216595
0.0206172
0.0184412
0.0153087
0.01174
0.00836995
0.0059612
0.00467287
0.00462486
0.00551676
0.00721523
0.00938381
0.0117111
0.0140184
0.0159626
0.0185239
0.0212656
0.0242039
0.0244526
0.0228634
0.0165428
0.00460831
-0.00488741
-0.00869892
-0.00599054
-0.00227818
0.00415608
0.0102453
0.0126699
0.0130273
0.00625924
-0.0466837
-0.0505589
-0.0522782
-0.052325
-0.0516923
-0.0509608
-0.0502229
-0.0493294
-0.0481117
-0.0464803
-0.0444226
-0.0419628
-0.0391296
-0.0359449
-0.0324282
-0.0286051
-0.0245132
-0.0202034
-0.0157379
-0.011189
-0.00663477
-0.00216252
0.00213715
0.00616831
0.00983127
0.0130163
0.0156155
0.01753
0.018677
0.0189845
0.0184073
0.0169601
0.0147911
0.0122677
0.00980876
0.00797185
0.00692487
0.00681629
0.00747586
0.00882615
0.0106193
0.0126316
0.014713
0.0166059
0.0190266
0.0217338
0.0245398
0.0253389
0.023931
0.018699
0.00880797
0.000672218
-0.00311446
-0.00174272
0.000642979
0.00560774
0.0109849
0.0133979
0.0126116
0.00630075
-0.0395303
-0.0428859
-0.0444273
-0.0445503
-0.0440761
-0.0435077
-0.0429348
-0.0422345
-0.0412626
-0.0399409
-0.0382562
-0.036227
-0.0338768
-0.0312236
-0.0282828
-0.0250738
-0.0216262
-0.0179802
-0.0141866
-0.0103047
-0.00640015
-0.00254608
0.0011811
0.00469904
0.00792893
0.0107537
0.0131097
0.0149075
0.0160828
0.016582
0.0163829
0.015514
0.0141
0.0123991
0.0106766
0.00934307
0.0085591
0.00847195
0.00899404
0.0100938
0.0115879
0.0133298
0.0151935
0.0170022
0.0192181
0.0217226
0.02419
0.0251359
0.0238472
0.0196015
0.0117133
0.00489242
0.00127997
0.00172536
0.00312538
0.0067741
0.0113915
0.0139211
0.0122246
0.00631474
-0.0330597
-0.0359607
-0.0373394
-0.03751
-0.0371632
-0.0367364
-0.0363101
-0.0357792
-0.0350215
-0.0339696
-0.0326106
-0.0309584
-0.0290322
-0.0268461
-0.0244122
-0.0217453
-0.0188682
-0.0158125
-0.0126191
-0.00933596
-0.00601777
-0.00272469
0.000478266
0.0035209
0.00633616
0.00884021
0.0109682
0.0126477
0.01383
0.0144745
0.0145752
0.0141589
0.0133253
0.0122683
0.0111219
0.0102216
0.00969495
0.0096761
0.0101259
0.0110475
0.0123048
0.0138135
0.0154657
0.0171454
0.0191067
0.0213051
0.0233298
0.0241846
0.0230098
0.0195959
0.0134892
0.00789024
0.00456034
0.00440988
0.00513822
0.00767954
0.0114611
0.0140119
0.0117319
0.00617934
-0.0272256
-0.029719
-0.0309428
-0.0311507
-0.0309186
-0.0306109
-0.0303064
-0.02992
-0.029347
-0.0285281
-0.0274506
-0.0261254
-0.0245676
-0.0227885
-0.0207971
-0.0186046
-0.0162281
-0.0136924
-0.0110299
-0.00827908
-0.00548458
-0.00269575
3.43806e-05
0.00264687
0.00508423
0.00728708
0.009199
0.0107578
0.0119249
0.0126711
0.0129976
0.0129227
0.0125227
0.0119017
0.0112588
0.0107269
0.0104361
0.0105061
0.0109253
0.0117204
0.0127901
0.0140959
0.0155397
0.0170538
0.0187364
0.0205848
0.0221536
0.022823
0.0217792
0.0190383
0.0143891
0.00987001
0.00683524
0.00638293
0.00667932
0.00833355
0.0112175
0.013562
0.0110043
0.00579503
-0.0219719
-0.0241083
-0.0251933
-0.0254285
-0.0252891
-0.0250831
-0.0248798
-0.0246152
-0.0241995
-0.0235797
-0.0227435
-0.021699
-0.0204584
-0.0190304
-0.0174217
-0.0156404
-0.0136995
-0.0116177
-0.00942038
-0.0071381
-0.00480641
-0.00246505
-0.000157399
0.00206758
0.00416378
0.00609042
0.00779333
0.00922717
0.0103595
0.0111664
0.0116511
0.0118303
0.0117663
0.0115075
0.0112032
0.010961
0.010871
0.0110317
0.011444
0.012148
0.0130677
0.0141944
0.0154364
0.0167638
0.018165
0.0196122
0.0208209
0.0212953
0.0203966
0.0181942
0.0146742
0.0110777
0.00849756
0.00777396
0.00777278
0.00874107
0.0107201
0.012614
0.0099937
0.00516055
-0.0172532
-0.0190799
-0.0200406
-0.0202941
-0.0202317
-0.0201079
-0.0199862
-0.0198235
-0.0195404
-0.0190893
-0.0184579
-0.0176523
-0.0166821
-0.0155542
-0.0142736
-0.0128455
-0.0112797
-0.00959042
-0.0077971
-0.00592326
-0.00399695
-0.00204969
-0.000115668
0.00176647
0.0035574
0.00522098
0.00672338
0.00803143
0.00911286
0.00994469
0.0105309
0.0108831
0.0110363
0.0110622
0.0110198
0.0110014
0.0110733
0.0113145
0.0117308
0.0123664
0.0131635
0.0141321
0.0151858
0.0163219
0.0174632
0.0185957
0.0194611
0.0197558
0.0189983
0.0172269
0.0145588
0.011723
0.00957546
0.00868272
0.00846335
0.00891484
0.0100493
0.0113374
0.00880337
0.00438337
-0.0130283
-0.014586
-0.0154352
-0.0157004
-0.0157026
-0.0156545
-0.015608
-0.0155182
-0.0153376
-0.0150246
-0.0145649
-0.0139606
-0.0132187
-0.0123448
-0.0113424
-0.0102151
-0.0089697
-0.00761665
-0.0061706
-0.0046495
-0.00307501
-0.00147139
0.000134037
0.00171188
0.003232
0.00466073
0.00597527
0.00714265
0.00815628
0.00898394
0.00962647
0.0100936
0.0104104
0.0106171
0.0107626
0.0109092
0.0111041
0.0114092
0.0118305
0.0124113
0.013106
0.0139354
0.0148187
0.0157688
0.0166783
0.0175439
0.0181426
0.0182894
0.0176543
0.0162288
0.0141958
0.0119609
0.0101835
0.00920697
0.00881718
0.00887872
0.00928735
0.00994342
0.0075857
0.00360189
-0.0092536
-0.0105785
-0.011328
-0.0115988
-0.0116518
-0.0116624
-0.0116753
-0.0116572
-0.0115597
-0.0113572
-0.0110375
-0.0106001
-0.0100492
-0.00938831
-0.00861991
-0.00774624
-0.00677187
-0.00570423
-0.00455421
-0.00333524
-0.00206359
-0.000757733
0.000561378
0.00187108
0.00314838
0.00436846
0.00551095
0.0065525
0.0074721
0.00826314
0.00892563
0.00945384
0.00986997
0.010197
0.01047
0.0107311
0.0110128
0.0113627
0.0117846
0.0123174
0.0129247
0.0136315
0.0143637
0.0151409
0.0158528
0.0164988
0.0168987
0.0169346
0.0163985
0.0152488
0.0136834
0.0119068
0.0104309
0.00943616
0.00891313
0.00866815
0.00851288
0.00859608
0.0064436
0.00290762
-0.00588901
-0.00701417
-0.00767569
-0.0079478
-0.00804102
-0.00809898
-0.00815962
-0.00819722
-0.0081724
-0.00805886
-0.00785105
-0.00754947
-0.00715585
-0.00667191
-0.00609866
-0.00543715
-0.00469024
-0.00386292
-0.00296313
-0.00200071
-0.000987671
6.20937e-05
0.00113294
0.00220782
0.00326918
0.00429777
0.00527646
0.00618682
0.00701724
0.00775635
0.00840295
0.00895395
0.00942132
0.00981893
0.0101702
0.0105033
0.0108397
0.0112149
0.0116301
0.012118
0.0126484
0.0132471
0.0138481
0.0144722
0.0150202
0.0154896
0.0157436
0.0157015
0.0152432
0.0143099
0.0130852
0.0116534
0.0104078
0.00942885
0.00884048
0.00832331
0.0077726
0.00739105
0.00543223
0.00233673
-0.00289911
-0.00385352
-0.00443772
-0.00470794
-0.00483254
-0.00492802
-0.00502629
-0.00510762
-0.00514052
-0.00510298
-0.00498583
-0.00479087
-0.00452401
-0.00418499
-0.00377281
-0.00328719
-0.00272953
-0.00210291
-0.0014129
-0.000666622
0.000127124
0.000958226
0.00181522
0.00268544
0.00355558
0.0044109
0.00523833
0.00602401
0.00675873
0.0074319
0.00804113
0.00858304
0.00906453
0.00949307
0.00988319
0.0102535
0.010617
0.0109993
0.0113992
0.0118428
0.0123046
0.0128078
0.0132971
0.0137905
0.0142039
0.0145336
0.0146818
0.0145875
0.0141887
0.0134215
0.0124421
0.0112677
0.0101876
0.00921249
0.00833861
0.0078624
0.00708734
0.00637036
0.00457833
0.0018891
-0.000250531
-0.00105951
-0.00157601
-0.00184192
-0.00199047
-0.00211512
-0.00224234
-0.00235701
-0.00243396
-0.00245545
-0.00241444
-0.00231068
-0.00214499
-0.00192011
-0.00163782
-0.001296
-0.000894254
-0.000433948
8.13401e-05
0.00064669
0.00125577
0.00190142
0.00257536
0.00326831
0.00397049
0.00467094
0.00535969
0.00602593
0.00666219
0.00725984
0.00781588
0.00832642
0.00879464
0.00922405
0.00962271
0.0100024
0.0103702
0.0107437
0.0111197
0.0115187
0.0119183
0.0123373
0.0127316
0.0131144
0.0134198
0.013642
0.0137127
0.0135839