/*--------------------------------*- C++ -*----------------------------------*\
| =========                 |                                                 |
| \\      /  F ield         | OpenFOAM: The Open Source CFD Toolbox           |
|  \\    /   O peration     | Version:  2512                                  |
|   \\  /    A nd           | Website:  www.openfoam.com                      |
|    \\/     M anipulation  |                                                 |
\*---------------------------------------------------------------------------*/
FoamFile
{
    version     2.0;
    format      ascii;
    arch        "LSB;label=32;scalar=64";
    class       volVectorField;
    location    "100.75";
    object      U;
}
// * * * * * * * * * * * * * * * * * * * * * * * * * * * * * * * * * * * * * //

dimensions      [0 1 -1 0 0 0 0];

internalField   nonuniform List<vector> 
13248
(
(-0.0109425 0.00978301 6.82227e-20)
(-0.0185183 0.0176756 0)
(-0.0137577 0.0185238 -1.2964e-19)
(0.00270572 0.0153187 1.22125e-19)
(0.0306922 0.0101406 1.14546e-19)
(0.0701461 0.00445381 0)
(0.12095 -0.000703059 0)
(0.182737 -0.00459302 2.72721e-19)
(0.254726 -0.00670177 -3.24813e-21)
(0.335609 -0.00670049 -2.34697e-19)
(0.423529 -0.00443601 2.11596e-19)
(0.516139 6.87305e-05 -1.31779e-19)
(0.610751 0.00661801 0)
(0.704535 0.014859 -2.10154e-19)
(0.794745 0.0243123 3.8698e-19)
(0.878921 0.0344149 -9.09759e-20)
(0.955058 0.0445729 -1.53602e-19)
(1.02172 0.0541989 1.44194e-19)
(1.07808 0.0628128 0)
(1.12392 0.0698545 0)
(1.15967 0.0754422 0)
(1.18585 0.0780898 0)
(1.20455 0.080857 4.12161e-20)
(1.21543 0.0760877 1.48733e-19)
(-0.0108524 0.00894627 -2.06189e-19)
(-0.0145024 0.0152988 1.40956e-19)
(-0.00174596 0.0155134 -1.02505e-21)
(0.0261769 0.0123255 -1.86588e-19)
(0.0686213 0.0077891 -1.14418e-19)
(0.125049 0.00344152 -1.07984e-19)
(0.194681 0.000374408 -1.97395e-19)
(0.27624 -0.000677961 1.8654e-19)
(0.367778 0.000714961 0)
(0.466628 0.00470083 1.95779e-21)
(0.569514 0.0111578 4.33004e-21)
(0.6728 0.0197207 1.32176e-19)
(0.772818 0.0298287 0)
(0.866203 0.0407942 0)
(0.95019 0.0518831 1.40992e-19)
(1.02282 0.0623948 -2.64523e-19)
(1.08303 0.071731 1.52729e-19)
(1.13065 0.0794403 -1.43386e-19)
(1.16632 0.0852502 -6.23839e-20)
(1.19133 0.089025 -1.10254e-19)
(1.20729 0.0908994 -4.55111e-20)
(1.21639 0.0906388 -8.47356e-20)
(1.21981 0.0897682 1.25558e-19)
(1.22057 0.0847595 3.6189e-20)
(-0.00952736 0.00732014 0)
(-0.00665562 0.0110915 0)
(0.0168145 0.0103116 6.60205e-20)
(0.0590119 0.0073792 6.09016e-20)
(0.118672 0.00423874 -1.51441e-21)
(0.194458 0.00240514 -1.11123e-19)
(0.284456 0.0028892 0)
(0.385915 0.00623957 -9.24234e-20)
(0.495181 0.0125787 8.59041e-20)
(0.607866 0.0216351 4.92018e-22)
(0.719235 0.0328049 -1.43144e-19)
(0.824705 0.0452514 -1.27994e-19)
(0.920341 0.0580319 4.43873e-21)
(1.00323 0.0702296 -1.00035e-19)
(1.07168 0.0810672 2.441e-19)
(1.1253 0.0899853 0)
(1.1648 0.0966776 -1.50938e-19)
(1.1918 0.101078 7.32064e-20)
(1.20848 0.103338 6.23285e-20)
(1.21723 0.103688 0)
(1.22044 0.102617 5.00333e-20)
(1.22009 0.100041 -1.73353e-19)
(1.21753 0.0975707 1.62731e-19)
(1.21518 0.0919544 1.02901e-19)
(-0.00672349 0.00512756 -7.29993e-20)
(0.00577944 0.0056943 -7.54321e-20)
(0.0431057 0.00398511 6.83338e-20)
(0.1026 0.00196727 0)
(0.182055 0.00136055 0)
(0.278819 0.00349736 -1.99666e-21)
(0.389219 0.00907816 0)
(0.508444 0.0181808 -2.80259e-19)
(0.630798 0.0303279 2.58846e-19)
(0.750274 0.0446006 -3.17409e-19)
(0.861275 0.0598136 7.16252e-20)
(0.959295 0.0747232 0)
(1.04138 0.0882245 1.14977e-19)
(1.10631 0.0994979 -2.11314e-19)
(1.15449 0.108082 5.00201e-20)
(1.1876 0.113873 1.23783e-19)
(1.20821 0.11706 -7.47173e-21)
(1.21921 0.118031 -1.37741e-19)
(1.22343 0.117258 0)
(1.22334 0.115204 0)
(1.2208 0.112314 -4.75739e-20)
(1.21708 0.108666 4.24411e-20)
(1.21293 0.105343 1.50408e-19)
(1.2091 0.0995742 -1.41194e-19)
(-0.00214298 0.00259673 -7.6818e-20)
(0.0235808 -0.000147372 -7.65086e-20)
(0.0781801 -0.00217691 2.15261e-19)
(0.157899 -0.00212163 -1.30564e-19)
(0.259055 0.00131666 1.22898e-19)
(0.376996 0.00902128 2.22769e-19)
(0.50564 0.0210429 -1.56997e-19)
(0.637785 0.0366433 -1.88917e-19)
(0.765917 0.0544968 5.16716e-21)
(0.883238 0.0729743 2.39811e-19)
(0.984581 0.0904621 0)
(1.06696 0.105641 6.44346e-20)
(1.12968 0.117663 0)
(1.17398 0.1262 -1.01835e-19)
(1.20251 0.131381 1.42641e-19)
(1.21864 0.133658 8.94071e-22)
(1.22582 0.133645 -3.66427e-20)
(1.22709 0.131972 6.70079e-20)
(1.22486 0.129185 5.80792e-20)
(1.22083 0.125692 -5.16955e-20)
(1.21604 0.121793 4.75629e-20)
(1.21108 0.117533 -4.2431e-20)
(1.20615 0.113561 0)
(1.2018 0.107737 -3.2464e-20)
(0.00455335 -2.40399e-05 7.6807e-20)
(0.0474596 -0.00559052 8.04783e-20)
(0.122743 -0.00674023 -7.20822e-20)
(0.22506 -0.00298607 1.34009e-19)
(0.348545 0.00621986 -1.26133e-19)
(0.485826 0.0209164 1.13557e-19)
(0.628042 0.0400996 -5.45405e-20)
(0.765891 0.0619372 1.42045e-19)
(0.891059 0.0842234 -8.91257e-20)
(0.997476 0.104861 1.55473e-19)
(1.08199 0.122247 -3.57175e-19)
(1.14434 0.135483 1.30732e-19)
(1.18662 0.144378 -1.12028e-19)
(1.21234 0.149308 1.05227e-19)
(1.2256 0.150986 8.89927e-20)
(1.23028 0.15024 7.68155e-20)
(1.22958 0.147837 -2.14169e-19)
(1.2259 0.144391 1.32268e-19)
(1.22077 0.14033 -5.80814e-20)
(1.21515 0.135926 1.50715e-19)
(1.20952 0.131334 -4.86977e-20)
(1.20409 0.126597 -1.17596e-19)
(1.19894 0.122051 1.084e-19)
(1.19423 0.116201 3.24539e-20)
(0.0136964 -0.00243506 0)
(0.07792 -0.00968631 6.06684e-22)
(0.176912 -0.00820796 1.50211e-19)
(0.303126 0.00117493 -1.40957e-19)
(0.447756 0.0177809 -1.26704e-19)
(0.600252 0.0403251 2.35149e-19)
(0.749243 0.066418 -1.09042e-19)
(0.88445 0.0931098 1.44202e-19)
(0.998453 0.117633 -3.65736e-21)
(1.0876 0.137961 -8.11248e-20)
(1.15189 0.153064 1.74499e-19)
(1.19412 0.162861 -2.56801e-19)
(1.21866 0.167967 0)
(1.2303 0.169363 -4.94785e-20)
(1.23336 0.168095 -1.30461e-19)
(1.23127 0.165081 4.12777e-20)
(1.22644 0.161013 1.82251e-21)
(1.2204 0.156358 -8.73318e-20)
(1.21402 0.151401 6.28656e-21)
(1.20776 0.1463 1.00652e-19)
(1.2018 0.141135 -4.4272e-20)
(1.19619 0.13595 -1.6769e-20)
(1.19089 0.13086 5.19222e-20)
(1.18595 0.124981 0)
(0.0255377 -0.00427032 0)
(0.115096 -0.0113962 4.07486e-20)
(0.240014 -0.00511329 -1.95985e-19)
(0.389899 0.0118696 7.10897e-20)
(0.552456 0.0370568 -6.69072e-20)
(0.714093 0.0674129 -6.08752e-20)
(0.86205 0.0991004 -1.07118e-19)
(0.986883 0.128413 5.37663e-20)
(1.08386 0.152649 4.6429e-20)
(1.15288 0.170482 0)
(1.19729 0.181862 1.03663e-19)
(1.22227 0.187628 -1.53322e-19)
(1.23338 0.189047 1.13833e-19)
(1.23551 0.187421 4.95039e-20)
(1.2324 0.183852 -4.0027e-20)
(1.22663 0.179148 -3.27943e-20)
(1.21976 0.17384 -3.03238e-20)
(1.21268 0.168245 9.20291e-20)
(1.20582 0.162537 0)
(1.19934 0.156804 4.53553e-20)
(1.19328 0.151093 3.76692e-20)
(1.1876 0.145429 -9.40801e-20)
(1.18224 0.139807 -6.37863e-20)
(1.17716 0.133858 5.89443e-20)
(0.0401846 -0.00509645 -4.40168e-20)
(0.158624 -0.00963376 -1.62032e-21)
(0.310498 0.00386555 3.98502e-20)
(0.48207 0.0301449 1.11046e-19)
(0.657517 0.0643294 3.20785e-20)
(0.821184 0.101458 -6.21209e-20)
(0.960762 0.136591 5.66944e-20)
(1.06957 0.165969 -4.94649e-20)
(1.14679 0.18767 8.81752e-20)
(1.19605 0.20152 3.715e-20)
(1.22332 0.208546 -1.0557e-19)
(1.23506 0.210335 3.08362e-20)
(1.23689 0.208505 5.20712e-20)
(1.23308 0.204409 -2.57222e-20)
(1.22649 0.199023 0)
(1.21883 0.192977 3.7443e-20)
(1.21103 0.18664 6.26752e-20)
(1.20352 0.180211 1.02303e-20)
(1.19648 0.173791 -5.18594e-20)
(1.18995 0.167429 2.14413e-20)
(1.18388 0.161154 0)
(1.1782 0.154969 -1.66202e-20)
(1.17283 0.14883 -1.56774e-20)
(1.16768 0.142739 0)
(0.0575364 -0.00443878 0)
(0.207556 -0.00335691 2.30605e-20)
(0.385964 0.0197635 4.25633e-20)
(0.575556 0.0564629 -1.13157e-19)
(0.757707 0.0991349 3.6557e-20)
(0.916447 0.141137 0)
(1.04199 0.177173 5.44339e-20)
(1.13185 0.204254 -7.59245e-20)
(1.1894 0.221787 -4.40093e-20)
(1.22132 0.230893 1.98102e-20)
(1.23512 0.233509 -3.12008e-20)
(1.23743 0.231666 7.60135e-20)
(1.23328 0.22706 3.7525e-20)
(1.22599 0.220913 -2.63774e-20)
(1.21754 0.214003 -2.75111e-21)
(1.20899 0.20678 -7.01251e-20)
(1.2008 0.199483 3.18023e-20)
(1.19316 0.19223 -8.26377e-22)
(1.18612 0.185079 0)
(1.17963 0.178059 -2.14637e-20)
(1.17363 0.171184 0)
(1.16802 0.164436 4.77436e-20)
(1.1627 0.157796 -5.65428e-20)
(1.15755 0.151462 2.56765e-20)
(0.0772453 -0.00182355 -1.20135e-20)
(0.260349 0.00832221 -5.79398e-20)
(0.463333 0.0432014 6.5869e-20)
(0.665991 0.0906577 3.85816e-20)
(0.848415 0.140415 -1.84554e-20)
(0.996469 0.184868 3.07918e-20)
(1.1046 0.219315 -1.49902e-20)
(1.17505 0.242247 2.47623e-20)
(1.21488 0.254646 0)
(1.23278 0.258797 5.53861e-20)
(1.23667 0.257252 -2.49108e-21)
(1.23268 0.252189 -4.43081e-20)
(1.22488 0.245188 1.87872e-20)
(1.21567 0.237254 -2.09549e-20)
(1.20632 0.228963 -7.76242e-21)
(1.1974 0.220614 9.19723e-21)
(1.18912 0.212353 -6.94596e-21)
(1.18153 0.204247 -3.74285e-20)
(1.1746 0.196331 2.2888e-20)
(1.16825 0.188621 4.60644e-21)
(1.16239 0.181111 4.02104e-21)
(1.15691 0.173775 3.51149e-21)
(1.1517 0.166656 0)
(1.1466 0.159961 0)
(0.0987751 0.00318517 1.20218e-20)
(0.315076 0.0260476 -1.20068e-20)
(0.539292 0.0743027 -2.19322e-20)
(0.749376 0.131977 0)
(0.926223 0.18674 -9.15193e-21)
(1.05956 0.231089 -8.21054e-21)
(1.14902 0.261841 -1.3991e-20)
(1.20134 0.279384 0)
(1.22631 0.28623 0)
(1.23349 0.285552 0)
(1.2305 0.280194 0)
(1.22253 0.272265 0)
(1.21265 0.263121 -1.17449e-20)
(1.20251 0.253534 5.33266e-21)
(1.19282 0.243902 9.17567e-21)
(1.18386 0.234412 4.27976e-21)
(1.17569 0.225148 1.04381e-20)
(1.16829 0.216144 0)
(1.16158 0.20742 -2.43642e-21)
(1.15547 0.198978 -2.32634e-21)
(1.14986 0.190801 -4.02746e-21)
(1.14461 0.182865 -3.51711e-21)
(1.13962 0.175284 0)
(1.13471 0.168105 2.44832e-21)
(9.96975e-06 -0.0416128 8.81915e-21)
(-0.0037186 -0.0961976 -9.1555e-21)
(-0.0130708 -0.13031 -1.73294e-20)
(-0.0256848 -0.149194 0)
(-0.0400727 -0.157308 -2.32926e-20)
(-0.0553806 -0.158275 7.38834e-21)
(-0.0710061 -0.154779 -1.37466e-20)
(-0.0865378 -0.148586 0)
(-0.101717 -0.140666 0)
(-0.116382 -0.131377 0)
(-0.130422 -0.120669 0)
(-0.143745 -0.108255 0)
(-0.156259 -0.0937525 3.03591e-22)
(-0.167864 -0.0767712 -9.34176e-21)
(-0.178441 -0.0569679 1.70229e-20)
(-0.187829 -0.0340807 2.42591e-20)
(-0.195797 -0.00792089 7.12794e-21)
(-0.202226 0.0215666 0)
(-0.207002 0.0542271 6.8046e-21)
(-0.209903 0.0898079 -1.84114e-20)
(-0.210763 0.127864 -1.11192e-20)
(-0.209447 0.167801 -1.02481e-20)
(-0.206027 0.208977 0)
(-0.201305 0.250651 0)
(0.0018927 -0.0367743 -2.62307e-20)
(-0.000124138 -0.084652 4.54376e-20)
(-0.00948153 -0.114312 -1.67339e-20)
(-0.0229294 -0.13037 -3.22479e-20)
(-0.0384832 -0.136841 4.57977e-20)
(-0.0550327 -0.137001 -2.86823e-20)
(-0.0718369 -0.133269 4.07223e-20)
(-0.0884217 -0.127215 2.50266e-20)
(-0.104514 -0.11969 0)
(-0.11996 -0.110993 -2.30165e-20)
(-0.134661 -0.101055 -5.25602e-24)
(-0.148534 -0.0896009 2.04253e-20)
(-0.161485 -0.0762776 2.78057e-20)
(-0.173403 -0.0607316 3.49592e-20)
(-0.184149 -0.0426544 -1.71727e-20)
(-0.193512 -0.0218014 -4.66142e-20)
(-0.201269 0.0019386 1.34147e-20)
(-0.207234 0.0285447 -5.17857e-20)
(-0.21117 0.0579523 0)
(-0.212842 0.0899435 1.20083e-20)
(-0.212024 0.124165 1.11048e-20)
(-0.208402 0.160168 1.02345e-20)
(-0.201838 0.19752 0)
(-0.193927 0.235822 0)
(0.00313209 -0.031041 0)
(0.00225498 -0.0714226 8.75157e-20)
(-0.00700098 -0.0964916 -3.3107e-20)
(-0.0207727 -0.109948 3.17324e-20)
(-0.0367214 -0.11516 -8.82071e-20)
(-0.0535431 -0.114943 0)
(-0.0703857 -0.111376 -5.22977e-20)
(-0.0867197 -0.105815 2.41863e-20)
(-0.102251 -0.0989945 -4.53985e-20)
(-0.116822 -0.0911669 2.03956e-20)
(-0.130338 -0.0822668 1.20432e-19)
(-0.142717 -0.0720508 -5.64762e-20)
(-0.153859 -0.0602068 -8.83807e-20)
(-0.163633 -0.0464269 -3.11662e-20)
(-0.171856 -0.0304461 8.10528e-22)
(-0.178348 -0.0120759 1.12678e-19)
(-0.182896 0.00874996 -5.24762e-20)
(-0.185219 0.0320326 2.30538e-21)
(-0.185039 0.0576807 0)
(-0.182091 0.0855064 -3.79952e-20)
(-0.176125 0.115254 0)
(-0.166722 0.14664 -3.42405e-20)
(-0.153274 0.179387 1.21134e-19)
(-0.137432 0.213235 -1.18257e-21)
(0.00364059 -0.0248409 0)
(0.00323593 -0.0573971 -7.41351e-22)
(-0.00588822 -0.0779455 3.20767e-20)
(-0.019549 -0.0890993 -3.0206e-20)
(-0.0352103 -0.0934607 2.91699e-20)
(-0.0514483 -0.0932997 1.61877e-19)
(-0.0673348 -0.0903205 -5.09114e-20)
(-0.0822957 -0.0856453 -4.70788e-20)
(-0.0960127 -0.079887 8.93629e-20)
(-0.108317 -0.0732619 -1.2543e-19)
(-0.119107 -0.0657168 3.83457e-20)
(-0.128295 -0.0570468 3.53715e-20)
(-0.135779 -0.0469877 0)
(-0.141424 -0.0352801 3.18491e-20)
(-0.145058 -0.021714 0)
(-0.146484 -0.00615985 5.06033e-20)
(-0.145475 0.0114528 -9.42311e-20)
(-0.141766 0.0310988 2.55549e-20)
(-0.135075 0.052665 8.04988e-20)
(-0.125116 0.075967 3.79559e-20)
(-0.111646 0.100789 0)
(-0.0943768 0.126959 -8.85744e-20)
(-0.0725472 0.154528 2.88692e-20)
(-0.0455308 0.184239 0)
(0.00339793 -0.0185451 0)
(0.00275803 -0.0433375 -1.01068e-19)
(-0.0062773 -0.0595982 -3.17615e-20)
(-0.0194846 -0.0687963 -5.99061e-20)
(-0.0342882 -0.0727133 5.64119e-20)
(-0.0492248 -0.0730384 -5.35611e-20)
(-0.0633334 -0.0710773 9.9068e-20)
(-0.0760135 -0.0677065 4.64478e-20)
(-0.0869269 -0.0634135 -1.31019e-19)
(-0.0958906 -0.0583745 8.02028e-20)
(-0.102795 -0.0525489 -1.12787e-19)
(-0.107551 -0.045771 2.39935e-19)
(-0.110057 -0.0378249 -1.28978e-19)
(-0.110188 -0.028499 5.74444e-20)
(-0.107788 -0.0176229 1.58219e-19)
(-0.102675 -0.00508796 -5.36775e-20)
(-0.0946415 0.00914468 -4.62666e-20)
(-0.0834613 0.025033 -4.29986e-20)
(-0.0688898 0.0424511 0)
(-0.0506706 0.0612003 -6.36286e-20)
(-0.0285803 0.081032 -5.44644e-20)
(-0.00236135 0.101757 8.20605e-20)
(0.0290884 0.12369 9.47683e-20)
(0.0670867 0.148242 -8.69678e-20)
(0.00243998 -0.0124447 0)
(0.000882262 -0.0298444 -1.32063e-19)
(-0.00813797 -0.0421704 2.51232e-22)
(-0.0206033 -0.0497743 1.17983e-19)
(-0.0340455 -0.0536203 0)
(-0.0470448 -0.0548142 0)
(-0.0586553 -0.0542594 0)
(-0.0682752 -0.0525813 -4.54025e-20)
(-0.0755565 -0.0501353 9.70452e-22)
(-0.0803057 -0.0470488 7.91743e-20)
(-0.0824068 -0.0432847 -1.09027e-19)
(-0.0817709 -0.0387078 1.05566e-21)
(-0.078307 -0.0331415 0)
(-0.0719078 -0.0264116 -5.74195e-20)
(-0.0624458 -0.0183761 4.81227e-20)
(-0.0497751 -0.00894456 -1.39788e-19)
(-0.033732 0.00191063 1.65802e-19)
(-0.0141444 0.0141412 3.11994e-20)
(0.00916642 0.027625 -6.44069e-21)
(0.0363916 0.0421614 -1.23354e-19)
(0.0677052 0.0574655 -5.22269e-20)
(0.103265 0.0732137 1.65771e-19)
(0.143406 0.0894479 -1.07632e-19)
(0.1944 0.107341 0)
(0.000851366 -0.00676233 6.29867e-20)
(-0.00220167 -0.0173783 6.5818e-20)
(-0.0112278 -0.0262 -6.1905e-20)
(-0.0226244 -0.0325485 -1.16815e-19)
(-0.0341587 -0.0366184 1.09998e-19)
(-0.0445294 -0.038957 -1.02703e-19)
(-0.0528505 -0.040078 1.44618e-19)
(-0.0585432 -0.0403558 -4.50464e-20)
(-0.061259 -0.0400077 8.39029e-20)
(-0.060794 -0.0390998 0)
(-0.0570226 -0.037582 6.88314e-20)
(-0.0498532 -0.0353325 -1.3093e-19)
(-0.039203 -0.0321984 1.17737e-19)
(-0.024985 -0.0280274 -1.1058e-19)
(-0.0071051 -0.0226933 0)
(0.0145371 -0.0161127 8.92885e-20)
(0.0400417 -0.00825932 1.54677e-19)
(0.0695118 0.000827157 -1.46583e-19)
(0.103047 0.0110369 -6.2868e-20)
(0.140736 0.0221785 -5.49526e-20)
(0.1826 0.0339668 1.56374e-19)
(0.229219 0.0460643 4.21565e-20)
(0.277516 0.0580381 -4.14355e-20)
(0.345311 0.0702679 3.62737e-20)
(-0.00123334 -0.00167808 -6.29952e-20)
(-0.00616264 -0.00630846 1.96339e-19)
(-0.0150569 -0.0121004 -6.14807e-20)
(-0.0248974 -0.0174781 1.16293e-19)
(-0.0337867 -0.0219479 -1.09506e-19)
(-0.0405984 -0.0255439 3.36804e-22)
(-0.044535 -0.0284132 4.80294e-20)
(-0.0450534 -0.0306887 1.76382e-19)
(-0.0418049 -0.0324445 -2.54022e-21)
(-0.0345659 -0.0336664 -7.78341e-20)
(-0.0231897 -0.0342703 0)
(-0.007573 -0.0341259 -6.19711e-20)
(0.0123618 -0.0330824 1.19122e-19)
(0.0366743 -0.0309925 1.04569e-19)
(0.0654063 -0.0277323 -5.03266e-20)
(0.0985779 -0.0232181 -8.28618e-22)
(0.136184 -0.0174199 -3.93848e-20)
(0.178187 -0.0103694 6.90178e-20)
(0.224518 -0.00217389 6.28537e-20)
(0.27513 0.0070003 -5.60271e-20)
(0.329401 0.0167846 4.92125e-20)
(0.389698 0.0272237 -4.4121e-20)
(0.445247 0.0370251 0)
(0.533445 0.0469088 -3.62307e-20)
(-0.00362381 0.00264305 6.31834e-20)
(-0.0105204 0.00303166 -6.54532e-20)
(-0.0188851 -0.000235214 6.2113e-20)
(-0.0264055 -0.00486105 0)
(-0.0315839 -0.00977089 0)
(-0.0334984 -0.0145459 1.02119e-19)
(-0.0314532 -0.0189998 -9.59358e-20)
(-0.024936 -0.0230444 8.74221e-20)
(-0.0135939 -0.0265948 -4.11243e-19)
(0.00282266 -0.029542 1.2251e-21)
(0.0244736 -0.0317495 6.9774e-20)
(0.0514503 -0.033058 0)
(0.0837786 -0.0333016 -1.14329e-19)
(0.121416 -0.0323275 2.10833e-19)
(0.164248 -0.0300135 -1.4502e-19)
(0.212079 -0.0262844 -2.10513e-19)
(0.264638 -0.0211253 7.25668e-21)
(0.321572 -0.0145916 1.40468e-19)
(0.382429 -0.00682891 0)
(0.44696 0.00204459 0)
(0.513245 0.0113433 -4.92049e-20)
(0.586371 0.0219184 4.41137e-20)
(0.646347 0.030908 -1.57573e-19)
(0.749415 0.0417604 1.47802e-19)
(-0.00607536 0.00604469 0)
(-0.0146605 0.0103213 0)
(-0.0217673 0.00903554 -1.86718e-19)
(-0.0258555 0.00499141 5.9234e-20)
(-0.0258532 -0.000281777 5.76674e-22)
(-0.0210486 -0.00598456 1.03729e-19)
(-0.0108589 -0.0116459 0)
(0.00519291 -0.016957 -8.93134e-20)
(0.0274548 -0.0216778 8.2375e-20)
(0.0561436 -0.0256049 -1.50542e-19)
(0.0913529 -0.0285365 1.51712e-21)
(0.133039 -0.0302759 1.25721e-19)
(0.181008 -0.0306445 -3.85755e-21)
(0.234906 -0.0294983 9.94519e-20)
(0.294222 -0.0267461 -1.46435e-19)
(0.358292 -0.0223651 0)
(0.426321 -0.016412 1.50248e-19)
(0.497421 -0.00902645 -2.09771e-19)
(0.57056 -0.000467733 6.20719e-20)
(0.64511 0.00912554 0)
(0.718285 0.0187846 5.02727e-20)
(0.795637 0.0297983 1.77528e-19)
(0.855454 0.038195 -1.666e-19)
(0.954643 0.0500191 -1.8866e-19)
(-0.00830541 0.0083985 1.93776e-19)
(-0.0178769 0.0152796 -2.67361e-19)
(-0.0226365 0.015374 2.08632e-22)
(-0.0218207 0.0117602 5.96535e-20)
(-0.0147822 0.00628266 -1.11531e-19)
(-0.00102152 4.06387e-05 -1.03263e-19)
(0.0199214 -0.00624821 1.91864e-19)
(0.0484223 -0.0120818 -3.20504e-21)
(0.0847186 -0.0170916 -1.67207e-19)
(0.128853 -0.0209773 3.0399e-19)
(0.180642 -0.0234837 -3.92375e-21)
(0.239639 -0.0244009 -1.3003e-19)
(0.305127 -0.0235758 0)
(0.376128 -0.0209292 0)
(0.45143 -0.0164704 -4.76869e-20)
(0.529653 -0.0103081 -8.64295e-20)
(0.60931 -0.00265084 -1.5159e-19)
(0.68889 0.00619489 1.4229e-19)
(0.766895 0.0158415 -6.20907e-20)
(0.842135 0.0259006 1.10312e-19)
(0.912559 0.0356529 -5.41049e-20)
(0.980593 0.045546 8.78503e-20)
(1.03351 0.0528009 -2.12405e-19)
(1.10756 0.0625043 3.78501e-20)
(-0.0100188 0.00963601 6.53649e-20)
(-0.0194175 0.017731 0)
(-0.0203668 0.0185503 1.27631e-19)
(-0.0128337 0.0152229 -1.20236e-19)
(0.00342093 0.00976962 1.11627e-19)
(0.0286607 0.00350833 0)
(0.0631441 -0.00265211 0)
(0.107012 -0.00806472 -8.9294e-20)
(0.160172 -0.0122551 3.08689e-21)
(0.222202 -0.0148667 7.88419e-20)
(0.292293 -0.0156428 -6.89467e-20)
(0.369227 -0.0144284 1.30898e-19)
(0.451411 -0.011182 0)
(0.536954 -0.00598433 2.09104e-19)
(0.623782 0.000958529 -3.85114e-19)
(0.709769 0.00932369 2.6371e-19)
(0.792876 0.0186942 1.52991e-19)
(0.87126 0.0285684 -1.43612e-19)
(0.943397 0.0384696 0)
(1.00807 0.0477355 0)
(1.06457 0.0562147 0)
(1.11279 0.06287 0)
(1.15067 0.0681683 4.21693e-20)
(1.19024 0.0720823 -1.55108e-19)
(-0.195572 0.298447 -6.26282e-21)
(-0.185852 0.353801 6.28253e-21)
(-0.171262 0.405439 -1.70139e-22)
(-0.152097 0.449886 0)
(-0.127192 0.483232 -4.98003e-21)
(-0.0951813 0.501585 9.60221e-21)
(-0.0547031 0.500817 8.0087e-24)
(-0.00480709 0.477132 -4.50671e-21)
(0.0543624 0.427775 0)
(0.121338 0.352177 0)
(0.193316 0.252204 -3.04287e-22)
(0.266854 0.132194 -3.04968e-22)
(0.338803 -0.00276098 -4.79811e-21)
(0.408321 -0.147209 4.37353e-21)
(0.474626 -0.290368 0)
(0.534559 -0.416373 0)
(0.583829 -0.509154 2.45195e-21)
(0.618703 -0.561449 -4.53324e-22)
(0.6381 -0.577323 -1.76842e-21)
(0.644478 -0.567195 -8.5152e-23)
(0.639443 -0.546324 0)
(0.618999 -0.533192 0)
(0.580764 -0.534328 0)
(0.535953 -0.527239 0)
(0.508568 -0.468822 0)
(0.516892 -0.331829 0)
(0.558562 -0.132959 6.0666e-22)
(0.618756 0.0797024 -9.48841e-22)
(0.681406 0.257979 0)
(0.734267 0.37841 0)
(0.770876 0.441299 -3.81793e-22)
(0.793633 0.460713 3.71058e-22)
(0.803509 0.460235 1.42394e-22)
(0.792381 0.469448 0)
(0.756734 0.491169 0)
(0.712335 0.48171 3.45344e-22)
(0.686088 0.391259 -3.35697e-22)
(0.692717 0.209209 0)
(0.722744 -0.00284361 3.92185e-22)
(0.764358 -0.19103 -5.68355e-22)
(0.802259 -0.305951 1.46846e-22)
(0.832589 -0.367424 0)
(0.839377 -0.392923 -1.67625e-22)
(0.811354 -0.414197 1.63001e-22)
(0.762444 -0.413456 0)
(0.721418 -0.334572 0)
(0.715643 -0.200489 -8.60216e-23)
(0.745212 0.00184652 2.38609e-22)
(0.78853 0.134289 0)
(0.819731 0.264504 0)
(0.814878 0.329563 -4.85037e-23)
(0.77994 0.365676 4.33033e-25)
(0.757363 0.356324 -6.52431e-25)
(0.761352 0.185535 4.66825e-23)
(0.789449 0.0990576 0)
(0.812669 -0.128464 0)
(0.804924 -0.219589 0)
(0.79199 -0.298772 0)
(0.794221 -0.373547 0)
(0.781954 -0.102426 0)
(-0.186925 0.280368 -5.26896e-22)
(-0.171041 0.330979 -2.14453e-20)
(-0.148368 0.377687 5.66977e-22)
(-0.119153 0.417129 1.96006e-20)
(-0.082278 0.444407 2.89729e-22)
(-0.0367247 0.456541 0)
(0.0177232 0.449626 -1.87315e-20)
(0.0807297 0.420406 3.78904e-20)
(0.150966 0.367089 -1.91643e-20)
(0.226091 0.28994 2.04052e-20)
(0.302911 0.191075 -1.9527e-20)
(0.378267 0.0738383 2.00873e-20)
(0.449949 -0.0581213 -1.956e-20)
(0.51749 -0.198962 -5.99291e-22)
(0.579551 -0.338058 -1.57838e-20)
(0.631983 -0.457694 1.53383e-20)
(0.669831 -0.540774 -1.04516e-20)
(0.690615 -0.581112 9.86971e-21)
(0.695095 -0.585604 -6.43571e-21)
(0.687183 -0.566502 1.1339e-20)
(0.67117 -0.536997 -4.95938e-21)
(0.644955 -0.513478 -2.44723e-22)
(0.602879 -0.506486 -4.04816e-21)
(0.549588 -0.501505 8.3207e-21)
(0.506088 -0.458385 -4.26297e-21)
(0.495698 -0.342673 2.95096e-22)
(0.523538 -0.160912 5.69187e-21)
(0.577528 0.0435876 -6.62976e-23)
(0.640444 0.22338 -9.33214e-21)
(0.697996 0.351511 7.78759e-21)
(0.742845 0.42344 -3.43967e-21)
(0.775173 0.451065 3.07029e-22)
(0.792717 0.45962 -1.42693e-22)
(0.786275 0.478896 2.75095e-22)
(0.755217 0.507222 0)
(0.718396 0.496191 0)
(0.701096 0.396989 -1.7552e-21)
(0.715318 0.204561 1.23051e-21)
(0.748871 -0.0147483 1.23873e-21)
(0.789801 -0.204872 -6.46901e-23)
(0.821843 -0.317756 -1.51462e-21)
(0.846029 -0.373322 2.34603e-22)
(0.848472 -0.389543 0)
(0.818661 -0.402076 0)
(0.767158 -0.399439 0)
(0.721329 -0.327203 0)
(0.712799 -0.204149 2.84032e-22)
(0.739986 -0.00909617 -1.55095e-22)
(0.784692 0.123286 0)
(0.814439 0.260732 0)
(0.810561 0.333929 0)
(0.775777 0.37258 -9.7845e-23)
(0.75405 0.358896 -1.1907e-23)
(0.761199 0.181843 -8.87185e-23)
(0.790905 0.0933179 0)
(0.81949 -0.129776 0)
(0.810737 -0.217977 5.27582e-23)
(0.797928 -0.297328 1.29794e-22)
(0.799287 -0.372625 0)
(0.784091 -0.1014 0)
(-0.125717 0.253913 -3.99714e-22)
(-0.104792 0.299098 -3.86509e-20)
(-0.0752532 0.340185 3.7831e-20)
(-0.0390823 0.373389 -3.54049e-20)
(0.00525491 0.395367 -2.917e-22)
(0.0593504 0.40266 0)
(0.121641 0.391661 -3.89202e-20)
(0.191042 0.359768 3.81537e-20)
(0.265708 0.305809 3.09974e-22)
(0.34302 0.230288 6.5854e-22)
(0.419984 0.135129 6.75306e-22)
(0.493839 0.0229203 6.56871e-22)
(0.563204 -0.103505 -4.13381e-20)
(0.627782 -0.23927 4.07728e-20)
(0.685096 -0.372758 0)
(0.729393 -0.484917 9.46925e-22)
(0.755116 -0.558534 -2.18046e-20)
(0.761431 -0.588716 2.1477e-20)
(0.751606 -0.584403 0)
(0.730705 -0.559426 0)
(0.704378 -0.525 -8.64637e-21)
(0.67287 -0.49362 1.60088e-20)
(0.629082 -0.477836 -1.42863e-20)
(0.571141 -0.471996 -3.29601e-22)
(0.514873 -0.442306 1.52371e-20)
(0.486292 -0.349316 -1.73654e-20)
(0.498409 -0.187948 1.75499e-20)
(0.543703 0.00613274 -7.92526e-22)
(0.604676 0.185065 -8.48605e-21)
(0.66533 0.319843 0)
(0.717552 0.400718 0)
(0.758732 0.437463 1.73179e-21)
(0.783503 0.456202 -2.25837e-21)
(0.782121 0.485949 -1.12955e-24)
(0.756607 0.520807 2.6947e-21)
(0.72787 0.508742 -2.61882e-21)
(0.719238 0.402288 0)
(0.740673 0.201357 4.77481e-22)
(0.777522 -0.0238077 4.13232e-21)
(0.817596 -0.215227 -7.41377e-21)
(0.843692 -0.326363 2.91433e-21)
(0.861292 -0.377163 2.49251e-22)
(0.859272 -0.385316 -1.66165e-21)
(0.82804 -0.389553 1.26795e-21)
(0.774723 -0.385168 2.39725e-22)
(0.724636 -0.319823 2.40579e-22)
(0.713353 -0.208403 -2.84747e-22)
(0.737534 -0.0208486 0)
(0.783017 0.111655 0)
(0.810948 0.256461 -7.83875e-22)
(0.80807 0.338022 3.86307e-22)
(0.773487 0.379272 -3.80683e-22)
(0.75265 0.361574 6.21065e-22)
(0.762757 0.178079 8.54898e-22)
(0.79394 0.0872254 -1.75917e-22)
(0.827739 -0.131131 3.45879e-22)
(0.817803 -0.216185 -2.68068e-22)
(0.804681 -0.295605 1.23843e-22)
(0.805052 -0.371451 0)
(0.787045 -0.100244 0)
(-0.027032 0.220125 -7.09595e-20)
(-0.00330551 0.259658 3.82825e-22)
(0.0295732 0.295024 6.68989e-20)
(0.070163 0.322643 -5.56355e-22)
(0.119089 0.340592 0)
(0.176404 0.34458 0)
(0.24106 0.331567 -7.80707e-20)
(0.311581 0.299446 -6.73902e-21)
(0.385894 0.247333 1.22417e-19)
(0.461462 0.175693 1.99307e-21)
(0.535645 0.086058 -4.35112e-20)
(0.606545 -0.0198139 -4.29589e-20)
(0.673407 -0.139877 4.30797e-20)
(0.735388 -0.269918 0)
(0.788366 -0.397055 -3.40962e-20)
(0.824547 -0.501023 3.12108e-20)
(0.838087 -0.565221 0)
(0.830106 -0.586594 0)
(0.806744 -0.575515 1.30273e-20)
(0.774352 -0.54679 -2.61316e-21)
(0.738702 -0.510491 -9.48361e-21)
(0.702057 -0.474527 -7.0123e-21)
(0.658068 -0.45015 6.95624e-21)
(0.599535 -0.439741 -6.37342e-21)
(0.534885 -0.4196 -4.56464e-22)
(0.489579 -0.349437 6.47955e-21)
(0.484571 -0.211837 9.48252e-22)
(0.518184 -0.031963 9.2885e-23)
(0.574475 0.143882 0)
(0.636754 0.283937 5.51441e-21)
(0.695189 0.37344 -5.64257e-21)
(0.744213 0.419936 2.85901e-22)
(0.77569 0.449555 0)
(0.779719 0.489808 -2.77304e-22)
(0.760445 0.531198 5.59637e-21)
(0.740035 0.519109 -1.15109e-20)
(0.739857 0.407506 -2.32624e-21)
(0.76808 0.200038 -6.41851e-22)
(0.807979 -0.0299445 7.15017e-21)
(0.847219 -0.222299 8.60711e-22)
(0.867565 -0.332003 -4.74364e-21)
(0.878257 -0.379156 4.12252e-21)
(0.871571 -0.380559 2.68741e-24)
(0.839108 -0.376943 1.01976e-21)
(0.78476 -0.370642 -1.23198e-21)
(0.731048 -0.312162 -1.57764e-21)
(0.717067 -0.212922 4.73511e-22)
(0.737655 -0.0331916 8.29023e-22)
(0.783364 0.0994677 -1.57497e-21)
(0.809212 0.251634 1.13551e-21)
(0.80742 0.341763 -4.03417e-22)
(0.773208 0.385728 2.80988e-22)
(0.753365 0.364435 3.88147e-22)
(0.766174 0.174381 -1.38089e-21)
(0.79857 0.080876 2.34866e-23)
(0.837344 -0.132525 -4.08652e-22)
(0.82608 -0.214172 0)
(0.812241 -0.293569 -1.22499e-22)
(0.811459 -0.37002 9.41531e-23)
(0.790748 -0.0989623 0)
(0.0900657 0.179893 6.4829e-20)
(0.116799 0.215044 -1.27659e-19)
(0.150975 0.245766 6.20388e-20)
(0.192918 0.269562 6.62918e-20)
(0.242637 0.284005 -1.33935e-19)
(0.299704 0.285975 -5.01632e-21)
(0.363129 0.272695 7.11519e-20)
(0.431444 0.242227 8.13429e-20)
(0.502719 0.1937 -7.96974e-20)
(0.57477 0.127254 0)
(0.645497 0.043616 -9.00533e-20)
(0.713655 -0.0550278 1.76711e-19)
(0.778698 -0.168391 -8.67007e-20)
(0.83869 -0.291675 0)
(0.887162 -0.410731 0)
(0.914548 -0.505062 9.74311e-22)
(0.915725 -0.559821 -4.5135e-20)
(0.894191 -0.574236 4.38493e-20)
(0.858738 -0.559243 0)
(0.817017 -0.529156 2.06098e-20)
(0.773961 -0.493352 -3.48272e-20)
(0.732493 -0.456271 2.75491e-20)
(0.688672 -0.425522 -2.32989e-20)
(0.632685 -0.40819 3.35271e-22)
(0.564818 -0.39222 2.06067e-20)
(0.505857 -0.342197 -1.04868e-20)
(0.482537 -0.23072 -4.24129e-22)
(0.50177 -0.069271 -5.56627e-21)
(0.550974 0.100819 4.55315e-22)
(0.61278 0.244269 5.22534e-21)
(0.675838 0.341761 2.88242e-22)
(0.731394 0.398272 -3.96545e-21)
(0.768959 0.439075 8.02308e-21)
(0.778681 0.489719 -4.57142e-21)
(0.766156 0.537907 0)
(0.754154 0.527249 -7.8424e-21)
(0.762138 0.412871 7.81966e-21)
(0.796713 0.20087 -7.71892e-21)
(0.839543 -0.0330357 9.62979e-21)
(0.878093 -0.226024 -9.3437e-22)
(0.893056 -0.334534 0)
(0.896665 -0.379132 -5.08354e-22)
(0.885179 -0.375272 1.06908e-21)
(0.8516 -0.364437 0)
(0.796889 -0.356071 2.0438e-21)
(0.740164 -0.304208 -8.09146e-22)
(0.723584 -0.21746 4.18268e-22)
(0.74007 -0.0459325 3.25925e-22)
(0.785524 0.086758 0)
(0.809138 0.24615 0)
(0.808581 0.345024 -1.1006e-21)
(0.775033 0.391893 1.98952e-21)
(0.756352 0.367539 -1.3371e-21)
(0.771568 0.170868 5.36481e-22)
(0.804797 0.0742128 9.71643e-22)
(0.848221 -0.133958 4.09037e-22)
(0.835509 -0.211883 -6.20561e-22)
(0.820597 -0.291167 0)
(0.818447 -0.368321 -1.73699e-22)
(0.795132 -0.097558 1.27284e-23)
(0.219213 0.136918 6.11843e-20)
(0.245946 0.168911 -6.07823e-20)
(0.278301 0.195893 4.87999e-22)
(0.318463 0.216242 -4.72783e-22)
(0.36624 0.228302 5.16107e-22)
(0.420727 0.229492 -5.42641e-22)
(0.480888 0.217176 1.10616e-21)
(0.54548 0.189505 0)
(0.612893 0.145485 -1.24492e-21)
(0.681127 0.0846772 1.30265e-21)
(0.749461 0.00767207 1.33805e-21)
(0.816256 -0.0841966 -1.39622e-21)
(0.879926 -0.190703 0)
(0.937435 -0.305756 0)
(0.979875 -0.414644 1.10718e-21)
(0.997067 -0.498085 0)
(0.985814 -0.543907 -7.68766e-22)
(0.952191 -0.553403 0)
(0.906732 -0.537244 -2.54316e-20)
(0.857891 -0.508001 4.47446e-20)
(0.809636 -0.474175 -3.38344e-20)
(0.764083 -0.438427 1.46406e-20)
(0.719941 -0.404268 9.48534e-21)
(0.668154 -0.379548 -9.21196e-21)
(0.602159 -0.362512 -8.32709e-21)
(0.534415 -0.327554 8.11149e-21)
(0.49338 -0.242315 0)
(0.495593 -0.102935 2.42678e-22)
(0.53478 0.057206 0)
(0.593837 0.201507 0)
(0.659491 0.305893 6.5332e-21)
(0.72001 0.372325 -6.71407e-21)
(0.762969 0.424297 4.16246e-22)
(0.778521 0.485093 5.26261e-22)
(0.773 0.540525 -5.99264e-22)
(0.769333 0.533105 -7.17863e-21)
(0.785187 0.418569 6.96941e-21)
(0.825702 0.203858 -1.0217e-20)
(0.871457 -0.0330783 8.83217e-21)
(0.909592 -0.226499 1.90563e-21)
(0.919736 -0.334013 -5.03806e-21)
(0.916227 -0.377069 8.33285e-22)
(0.899846 -0.369521 2.71933e-21)
(0.865206 -0.352203 0)
(0.81066 -0.341554 -7.63272e-22)
(0.751483 -0.295889 9.78907e-22)
(0.732439 -0.22178 -1.30961e-21)
(0.744421 -0.0588873 -3.27995e-22)
(0.789233 0.0735243 0)
(0.810583 0.239874 3.57719e-22)
(0.811467 0.347639 -6.08924e-22)