/*--------------------------------*- C++ -*----------------------------------*\
| =========                 |                                                 |
| \\      /  F ield         | OpenFOAM: The Open Source CFD Toolbox           |
|  \\    /   O peration     | Version:  2512                                  |
|   \\  /    A nd           | Website:  www.openfoam.com                      |
|    \\/     M anipulation  |                                                 |
\*---------------------------------------------------------------------------*/
FoamFile
{
    version     2.0;
    format      ascii;
    arch        "LSB;label=32;scalar=64";
    class       volScalarField;
    location    "139.25";
    object      p;
}
// * * * * * * * * * * * * * * * * * * * * * * * * * * * * * * * * * * * * * //

dimensions      [0 2 -2 0 0 0 0];

internalField   nonuniform List<scalar> 
13248
(
-0.431958
-0.429444
-0.427125
-0.425051
-0.423202
-0.421535
-0.41987
-0.417894
-0.415207
-0.411373
-0.405965
-0.398623
-0.389104
-0.37732
-0.363345
-0.347405
-0.329846
-0.311082
-0.291547
-0.271662
-0.251726
-0.232102
-0.212453
-0.193218
-0.440843
-0.437536
-0.434319
-0.431262
-0.428347
-0.425548
-0.422674
-0.419382
-0.415249
-0.409831
-0.402739
-0.393696
-0.38258
-0.36944
-0.35448
-0.338019
-0.320444
-0.302156
-0.283533
-0.2649
-0.246504
-0.228577
-0.211039
-0.19434
-0.450628
-0.446429
-0.442274
-0.43822
-0.434216
-0.43022
-0.426009
-0.421205
-0.415371
-0.408097
-0.399082
-0.38818
-0.375421
-0.360996
-0.345206
-0.328416
-0.311
-0.293303
-0.275615
-0.258172
-0.241139
-0.22468
-0.208727
-0.193442
-0.461697
-0.456459
-0.451314
-0.446245
-0.441104
-0.435793
-0.430037
-0.423431
-0.415563
-0.406119
-0.394945
-0.382068
-0.367678
-0.352074
-0.33561
-0.318639
-0.301474
-0.284375
-0.267541
-0.251123
-0.235227
-0.21996
-0.205255
-0.191314
-0.474252
-0.467817
-0.461615
-0.455484
-0.4491
-0.442274
-0.434675
-0.42591
-0.41566
-0.403778
-0.390309
-0.375462
-0.359556
-0.342945
-0.325973
-0.308931
-0.292048
-0.275491
-0.259379
-0.243797
-0.228802
-0.214444
-0.20068
-0.187648
-0.488292
-0.480522
-0.473195
-0.465912
-0.458101
-0.449455
-0.439625
-0.428299
-0.415343
-0.400838
-0.385044
-0.368324
-0.351064
-0.333612
-0.316249
-0.29918
-0.282546
-0.266434
-0.2509
-0.235978
-0.22169
-0.208048
-0.195025
-0.182716
-0.503606
-0.494418
-0.485897
-0.477316
-0.467789
-0.456913
-0.444397
-0.430118
-0.414209
-0.397012
-0.378977
-0.360553
-0.342125
-0.323979
-0.306309
-0.289229
-0.272798
-0.257044
-0.241972
-0.22758
-0.213862
-0.200804
-0.188389
-0.176644
-0.519772
-0.509151
-0.499365
-0.489265
-0.477631
-0.464032
-0.448363
-0.43081
-0.411825
-0.391996
-0.37189
-0.35197
-0.332556
-0.313841
-0.295922
-0.278831
-0.262563
-0.247097
-0.232404
-0.218454
-0.205217
-0.192666
-0.180783
-0.169526
-0.536149
-0.524154
-0.513019
-0.501097
-0.486877
-0.47004
-0.450822
-0.429813
-0.407788
-0.385507
-0.363573
-0.342384
-0.322159
-0.302987
-0.284873
-0.267783
-0.251661
-0.236449
-0.22209
-0.208532
-0.195728
-0.183642
-0.172243
-0.161432
-0.551873
-0.538622
-0.52602
-0.5119
-0.494586
-0.474063
-0.451061
-0.426607
-0.401737
-0.377287
-0.353805
-0.33158
-0.310713
-0.29119
-0.272943
-0.255882
-0.239914
-0.224951
-0.210913
-0.197729
-0.185339
-0.173696
-0.162747
-0.152365
-0.56588
-0.55152
-0.537284
-0.52054
-0.499661
-0.475148
-0.448321
-0.420607
-0.393201
-0.366913
-0.342174
-0.319139
-0.297792
-0.278033
-0.259732
-0.242757
-0.226982
-0.212295
-0.198599
-0.185807
-0.173845
-0.162652
-0.152145
-0.142209
-0.577009
-0.561722
-0.54567
-0.525868
-0.501009
-0.472314
-0.441729
-0.41101
-0.3814
-0.3536
-0.327887
-0.30427
-0.282624
-0.262773
-0.244537
-0.227745
-0.212247
-0.19791
-0.184621
-0.17228
-0.160805
-0.150123
-0.140119
-0.130729
-0.340265
-0.342807
-0.344312
-0.345256
-0.346088
-0.346958
-0.347942
-0.349078
-0.350376
-0.351831
-0.353435
-0.355186
-0.357087
-0.35915
-0.361394
-0.363838
-0.366504
-0.369403
-0.372541
-0.375906
-0.37943
-0.38295
-0.38634
-0.389903
-0.342513
-0.345631
-0.347537
-0.348808
-0.349946
-0.351088
-0.352282
-0.353537
-0.354827
-0.356105
-0.357316
-0.358402
-0.359303
-0.359965
-0.360339
-0.360381
-0.360054
-0.359333
-0.358211
-0.356695
-0.354743
-0.352202
-0.349174
-0.346881
-0.346365
-0.349833
-0.35203
-0.353582
-0.355009
-0.356425
-0.357844
-0.359242
-0.360556
-0.361695
-0.362551
-0.363004
-0.362929
-0.362198
-0.360687
-0.358281
-0.354879
-0.350401
-0.344813
-0.338127
-0.330311
-0.321193
-0.31104
-0.30215
-0.351968
-0.355518
-0.357869
-0.359639
-0.361324
-0.363003
-0.364656
-0.366225
-0.367606
-0.368664
-0.369238
-0.369147
-0.3682
-0.366196
-0.36294
-0.358247
-0.351951
-0.343924
-0.334095
-0.322467
-0.309046
-0.293689
-0.276638
-0.260857
-0.359231
-0.362589
-0.364935
-0.366837
-0.368725
-0.370637
-0.372514
-0.374259
-0.375733
-0.376754
-0.377112
-0.37657
-0.374872
-0.371755
-0.366958
-0.360239
-0.351384
-0.34023
-0.326681
-0.310732
-0.292462
-0.271892
-0.249059
-0.2263
-0.367845
-0.370754
-0.372937
-0.374862
-0.376864
-0.378935
-0.380983
-0.382869
-0.384414
-0.385397
-0.38556
-0.384614
-0.38225
-0.378153
-0.372014
-0.363551
-0.35253
-0.338785
-0.322228
-0.302875
-0.280883
-0.256529
-0.229861
-0.200164
-0.377343
-0.379602
-0.381462
-0.383272
-0.385258
-0.387371
-0.389477
-0.391403
-0.392932
-0.393801
-0.393709
-0.392326
-0.389299
-0.384275
-0.376918
-0.366939
-0.354116
-0.338325
-0.319548
-0.297896
-0.273622
-0.247036
-0.218555
-0.187488
-0.387199
-0.388673
-0.390066
-0.391601
-0.393399
-0.395377
-0.397373
-0.399175
-0.400527
-0.40113
-0.400645
-0.398706
-0.394931
-0.388949
-0.380424
-0.36909
-0.354779
-0.337444
-0.317182
-0.294227
-0.268988
-0.241761
-0.21397
-0.183198
-0.39694
-0.39757
-0.398368
-0.399457
-0.40087
-0.402501
-0.404173
-0.405633
-0.406597
-0.40673
-0.405661
-0.402998
-0.398345
-0.391337
-0.381667
-0.369128
-0.353636
-0.335259
-0.314218
-0.290867
-0.265787
-0.239184
-0.213076
-0.184351
-0.406253
-0.406042
-0.406147
-0.40662
-0.407442
-0.408504
-0.409611
-0.410499
-0.410847
-0.41029
-0.408434
-0.404871
-0.39921
-0.391115
-0.380339
-0.366762
-0.350412
-0.331479
-0.310307
-0.287341
-0.263226
-0.238203
-0.21406
-0.188311
-0.415054
-0.414042
-0.413376
-0.413082
-0.413119
-0.413396
-0.41372
-0.41381
-0.413321
-0.411864
-0.409025
-0.404396
-0.397609
-0.388382
-0.376554
-0.362111
-0.345202
-0.326125
-0.305301
-0.283238
-0.260518
-0.237539
-0.215456
-0.1927
-0.423505
-0.421731
-0.420239
-0.419062
-0.418168
-0.417495
-0.416859
-0.415967
-0.414452
-0.411901
-0.407888
-0.402015
-0.393963
-0.383529
-0.370658
-0.355457
-0.338181
-0.319205
-0.298974
-0.277981
-0.256667
-0.235537
-0.215208
-0.195562
-0.394504
-0.39909
-0.400384
-0.397
-0.387689
-0.371072
-0.347585
-0.317862
-0.284043
-0.249428
-0.217658
-0.191827
-0.174189
-0.166369
-0.169438
-0.183008
-0.203625
-0.224201
-0.235724
-0.231296
-0.20965
-0.176839
-0.142303
-0.113364
-0.0931375
-0.0817016
-0.0777308
-0.0801665
-0.0899131
-0.107912
-0.129611
-0.14443
-0.143038
-0.12666
-0.103886
-0.083988
-0.0713109
-0.065095
-0.0650885
-0.0733562
-0.0881704
-0.100313
-0.0993635
-0.0872875
-0.0716362
-0.0586153
-0.0503409
-0.0472347
-0.0494429
-0.0517614
-0.0499552
-0.0465984
-0.0419477
-0.0365203
-0.0337398
-0.0320217
-0.0298995
-0.0298186
-0.023094
-0.00585376
-0.345841
-0.345347
-0.343104
-0.337925
-0.328853
-0.314766
-0.296636
-0.273762
-0.2477
-0.221216
-0.197414
-0.17914
-0.168775
-0.168194
-0.178356
-0.198115
-0.223045
-0.245547
-0.256508
-0.250119
-0.225112
-0.188399
-0.150143
-0.117977
-0.0948839
-0.0807006
-0.074047
-0.0737092
-0.080127
-0.0943413
-0.112938
-0.126723
-0.126934
-0.113942
-0.0949532
-0.0786009
-0.0689872
-0.065372
-0.0679097
-0.078962
-0.0962744
-0.109954
-0.108546
-0.0946808
-0.076201
-0.060434
-0.0499752
-0.044664
-0.0450033
-0.045734
-0.0442505
-0.0419423
-0.0389715
-0.035659
-0.0345865
-0.0349821
-0.0333103
-0.0333899
-0.0259228
-0.00655867
-0.295417
-0.288531
-0.28174
-0.27383
-0.263786
-0.25175
-0.236837
-0.221306
-0.203272
-0.184909
-0.169391
-0.159306
-0.156978
-0.164201
-0.181424
-0.206656
-0.234928
-0.258804
-0.270097
-0.262062
-0.234922
-0.195755
-0.155076
-0.120661
-0.0953936
-0.0789191
-0.069828
-0.0668544
-0.0700574
-0.0804626
-0.0958293
-0.10845
-0.110159
-0.100389
-0.0851137
-0.0723013
-0.0657754
-0.0648121
-0.0699158
-0.0836474
-0.103288
-0.118425
-0.116782
-0.101369
-0.0802793
-0.0618879
-0.04941
-0.0421277
-0.0408126
-0.0400526
-0.0387421
-0.0372554
-0.0358655
-0.0346791
-0.0353865
-0.0379192
-0.0366524
-0.0368183
-0.0286424
-0.00724731
-0.248869
-0.234731
-0.222659
-0.211273
-0.19995
-0.187609
-0.17496
-0.165279
-0.154515
-0.143651
-0.136355
-0.134628
-0.140467
-0.155222
-0.178673
-0.208242
-0.238899
-0.263735
-0.275211
-0.266893
-0.238964
-0.19883
-0.157103
-0.121523
-0.0948481
-0.0766414
-0.0654934
-0.0601272
-0.0603414
-0.0670818
-0.0791335
-0.090339
-0.0936105
-0.0864099
-0.074664
-0.0652611
-0.0617166
-0.0633204
-0.0708546
-0.0870626
-0.108862
-0.125444
-0.123814
-0.107196
-0.0838058
-0.0629791
-0.0486718
-0.0396695
-0.0369326
-0.0347946
-0.0335061
-0.0326032
-0.0326669
-0.0335887
-0.0361293
-0.0408119
-0.0398943
-0.0400627
-0.0312179
-0.00791148
-0.211009
-0.189631
-0.172069
-0.156473
-0.142872
-0.128779
-0.115538
-0.115888
-0.107006
-0.102685
-0.102688
-0.108532
-0.121669
-0.142797
-0.171073
-0.203621
-0.235691
-0.261115
-0.27286
-0.264974
-0.237545
-0.197955
-0.156597
-0.120909
-0.0935325
-0.0741127
-0.0613307
-0.0539386
-0.051495
-0.0547928
-0.0635096
-0.0729841
-0.0769669
-0.0723281
-0.0638797
-0.0576299
-0.0568226
-0.0607941
-0.070526
-0.0889713
-0.11273
-0.130747
-0.129376
-0.112023
-0.0867401
-0.0637321
-0.047798
-0.037317
-0.0333898
-0.0300108
-0.0286073
-0.0280546
-0.0294138
-0.0323934
-0.0368039
-0.0436339
-0.0429981
-0.0430802
-0.0336172
-0.00854315
-0.184174
-0.155903
-0.133289
-0.115166
-0.100655
-0.0864975
-0.0749693
-0.0701594
-0.06664
-0.0673408
-0.0729354
-0.0845944
-0.10319
-0.1288
-0.160102
-0.194139
-0.226613
-0.252184
-0.264192
-0.257194
-0.231282
-0.19361
-0.153932
-0.119126
-0.0917136
-0.0715455
-0.0575194
-0.0484688
-0.0438246
-0.0440625
-0.0495152
-0.0569578
-0.0610521
-0.0585909
-0.0530523
-0.0495637
-0.0511483
-0.0572162
-0.0688625
-0.0892404
-0.114716
-0.13416
-0.133271
-0.115749
-0.0890462
-0.0641674
-0.0468163
-0.0350805
-0.0301832
-0.0257283
-0.0240945
-0.0236757
-0.0261402
-0.0310954
-0.0373958
-0.0463515
-0.0459239
-0.0458359
-0.0358107
-0.00913354
-0.16909
-0.13975
-0.112592
-0.0899327
-0.0711639
-0.0558936
-0.0443963
-0.0393545
-0.0379598
-0.0413377
-0.0502096
-0.0652824
-0.0869307
-0.114778
-0.147216
-0.181325
-0.213231
-0.2382
-0.250493
-0.244688
-0.22112
-0.186495
-0.149575
-0.116485
-0.0896242
-0.0691153
-0.0541772
-0.043802
-0.0373631
-0.0350527
-0.0374752
-0.0427192
-0.0465004
-0.0456481
-0.0424999
-0.0412753
-0.0448434
-0.0526704
-0.0658682
-0.0878036
-0.114773
-0.135607
-0.135367
-0.118308
-0.0906868
-0.0642967
-0.0457461
-0.0329608
-0.0272855
-0.0219413
-0.0199977
-0.0195287
-0.0228751
-0.0296941
-0.0378869
-0.0489301
-0.0486384
-0.048297
-0.0377709
-0.00967366
-0.164071
-0.135368
-0.106129
-0.0805844
-0.0590445
-0.0414412
-0.029159
-0.0229351
-0.0215582
-0.025532
-0.0353782
-0.0514514
-0.0737791
-0.101732
-0.133599
-0.166562
-0.19708
-0.220882
-0.233105
-0.228626
-0.208026
-0.177283
-0.143908
-0.113173
-0.0873578
-0.0668791
-0.051331
-0.0399369
-0.0320768
-0.027714
-0.0274856
-0.0305305
-0.0336583
-0.0338742
-0.0325447
-0.0330288
-0.0381078
-0.0472932
-0.0616466
-0.0847145
-0.112925
-0.135118
-0.13561
-0.119685
-0.0916382
-0.0641339
-0.0446061
-0.0309611
-0.0246741
-0.0186185
-0.016319
-0.0156683
-0.0196413
-0.0281876
-0.0382565
-0.0513383
-0.0511087
-0.0504255
-0.0394746
-0.0101567
-0.165562
-0.138973
-0.110312
-0.0836431
-0.0603444
-0.0412611
-0.0271116
-0.0188777
-0.0161093
-0.0189366
-0.0277882
-0.0428151
-0.0638349
-0.0901292
-0.120002
-0.150784
-0.179294
-0.201751
-0.213294
-0.210208
-0.193026
-0.166714
-0.137375
-0.109428
-0.0850553
-0.0649518
-0.0490781
-0.0369389
-0.027984
-0.0220197
-0.0195765
-0.020507
-0.0227227
-0.0236852
-0.0234486
-0.0250815
-0.0311834
-0.0412699
-0.0562707
-0.0800724
-0.109293
-0.132861
-0.133979
-0.119938
-0.0919492
-0.0637679
-0.0434719
-0.0291106
-0.0223539
-0.0157582
-0.0130538
-0.0121317
-0.0164528
-0.0265721
-0.0384832
-0.0535458
-0.053306
-0.0521842
-0.0408982
-0.0105795
-0.170376
-0.146678
-0.120748
-0.0953342
-0.071781
-0.0506936
-0.0355694
-0.0247397
-0.0195939
-0.0199435
-0.0263076
-0.0387369
-0.056936
-0.0801987
-0.106938
-0.134685
-0.160358
-0.181059
-0.192156
-0.190794
-0.177427
-0.15587
-0.13083
-0.105947
-0.0833173
-0.0638719
-0.0478895
-0.0351802
-0.0253428
-0.0180947
-0.0138163
-0.0127626
-0.0138282
-0.0148727
-0.0154024
-0.0176436
-0.0242688
-0.0348236
-0.0501039
-0.0741695
-0.103986
-0.12912
-0.13073
-0.119172
-0.0917134
-0.0633581
-0.0424874
-0.0274663
-0.0203049
-0.0133783
-0.0102447
-0.00896248
-0.0133122
-0.0248522
-0.0385401
-0.0555154
-0.055199
-0.0535543
-0.0420159
-0.0109355
-0.175322
-0.154404
-0.131778
-0.108394
-0.0857715
-0.0637031
-0.0477585
-0.0357992
-0.0287188
-0.0258926
-0.0287069
-0.0374947
-0.0518595
-0.071251
-0.0943095
-0.118663
-0.14177
-0.159659
-0.170288
-0.170874
-0.161622
-0.145043
-0.124502
-0.102902
-0.082238
-0.063661
-0.0477342
-0.0345627
-0.0239888
-0.0157114
-0.00991204
-0.00702877
-0.00686147
-0.00760061
-0.00874291
-0.0110106
-0.0176353
-0.0280627
-0.0429733
-0.0670198
-0.0976298
-0.124349
-0.137224
-0.117354
-0.0906442
-0.0626862
-0.0415255
-0.0259359
-0.0183692
-0.0112871
-0.0078812
-0.00633406
-0.0102216
-0.0229979
-0.0384114
-0.0572234
-0.0567278
-0.0545258
-0.0427973
-0.0111969
-0.180844
-0.164231
-0.145766
-0.125428
-0.10511
-0.0866495
-0.0675491
-0.0526853
-0.0424213
-0.0369895
-0.0362146
-0.0405038
-0.0500021
-0.0641556
-0.0818875
-0.101605
-0.12162
-0.137907
-0.146919
-0.148836
-0.143286
-0.131256
-0.114937
-0.0966137
-0.0781604
-0.0608859
-0.0455517
-0.0324306
-0.0216116
-0.0128732
-0.00615148
-0.00181879
-0.000514031
-0.00110923
-0.00341572
-0.00522771
-0.0116556
-0.0217705
-0.0360022
-0.0593266
-0.0897271
-0.117141
-0.127968
-0.113061
-0.0877634
-0.0606116
-0.0396704
-0.023986
-0.0162566
-0.00899921
-0.00551039
-0.00401795
-0.00726812
-0.0210953
-0.0380472
-0.0585978
-0.0578849
-0.0550938
-0.0432397
-0.0113145
-0.171713
-0.16376
-0.146758
-0.126959
-0.107261
-0.0897765
-0.0733972
-0.0599526
-0.0500231
-0.0438263
-0.0416644
-0.0441872
-0.0515461
-0.0633269
-0.078557
-0.0957265
-0.112848
-0.12612
-0.133875
-0.135129
-0.12967
-0.118615
-0.103842
-0.0872737
-0.0704901
-0.0546105
-0.0403149
-0.0278463
-0.0173395
-0.00865401
-0.00169209
0.00337391
0.00574849
0.00598439
0.00650676
0.00199978
-0.00384345
-0.0129727
-0.0264039
-0.0500811
-0.0825976
-0.112752
-0.124316
-0.109952
-0.0842775
-0.0573033
-0.0367667
-0.0215168
-0.0141115
-0.00658412
-0.0028294
-0.000228278
-0.00369199
-0.0186998
-0.0373648
-0.0599203
-0.0590039
-0.0554083
-0.0434467
-0.0113133
-0.162866
-0.156548
-0.140602
-0.12214
-0.105509
-0.0907588
-0.077252
-0.0655968
-0.0564746
-0.0504211
-0.0479673
-0.0495112
-0.0550973
-0.0643527
-0.0764219
-0.0899004
-0.102435
-0.113024
-0.118876
-0.119205
-0.114117
-0.104534
-0.091854
-0.077534
-0.0628131
-0.0486224
-0.0355814
-0.0239425
-0.0139327
-0.00549748
0.00149917
0.00694414
0.00985185
0.0103085
0.00960059
0.00666425
0.00168522
-0.00637013
-0.0187797
-0.0422331
-0.0757708
-0.106618
-0.116813
-0.103723
-0.0790085
-0.0532725
-0.0337671
-0.019122
-0.0119631
-0.00445649
-0.000868832
0.00191879
-0.00114797
-0.0167502
-0.0368053
-0.0608151
-0.0596743
-0.0550774
-0.0432229
-0.0112715
-0.153541
-0.148443
-0.135119
-0.119272
-0.104653
-0.091798
-0.0802159
-0.0700675
-0.0619252
-0.0563558
-0.0537671
-0.0543921
-0.0582213
-0.0649141
-0.0737527
-0.0836105
-0.0929398
-0.100539
-0.104632
-0.104518
-0.100185
-0.092173
-0.0814343
-0.0690694
-0.0560937
-0.0433184
-0.0313458
-0.0204453
-0.0108721
-0.00266442
0.00425037
0.00985664
0.0131758
0.0139859
0.0132922
0.0107475
0.00625989
-0.00123582
-0.0131463
-0.0361027
-0.0687231
-0.0983308
-0.108316
-0.0962119
-0.0730862
-0.0489555
-0.030622
-0.0166706
-0.00981348
-0.00240995
0.00097463
0.00379629
0.00080511
-0.015229
-0.036328
-0.0612464
-0.0599111
-0.0542718
-0.0426033
-0.0112034
-0.142777
-0.139944
-0.129258
-0.115704
-0.102983
-0.0918778
-0.0820066
-0.0732973
-0.0661272
-0.0609583
-0.0581271
-0.0578195
-0.0600187
-0.0644568
-0.0705929
-0.0775526
-0.0842306
-0.08953
-0.0923009
-0.0918598
-0.0880457
-0.0811802
-0.0719494
-0.0611988
-0.0497507
-0.0382809
-0.0273388
-0.0171922
-0.00809946
-0.000164945
0.00658589
0.012225
0.0159013
0.0171969
0.0167283
0.0146869
0.0108213
0.00377648
-0.00770155
-0.0295309
-0.0603064
-0.0887712
-0.098602
-0.0876245
-0.0663946
-0.0442035
-0.0272875
-0.0141725
-0.00766229
-0.000429794
0.00276041
0.00555479
0.00258267
-0.0137179
-0.0355475
-0.0611373
-0.059706
-0.0530061
-0.0415389
-0.0110772
-0.132149
-0.13125
-0.12283
-0.111388
-0.100453
-0.0909516
-0.0825851
-0.0751463
-0.0688352
-0.0640183
-0.0610027
-0.0599544
-0.0608645
-0.0635289
-0.0675117
-0.0721797
-0.0766605
-0.0801404
-0.0817433
-0.0808817
-0.0773683
-0.0713893
-0.0634118
-0.0540501
-0.0439479
-0.0336556
-0.0236658
-0.0142476
-0.00565536
0.0019809
0.00853445
0.0141061
0.0180186
0.0197761
0.0197335
0.0184232
0.0154142
0.00908607
-0.00152709
-0.0217558
-0.0507868
-0.0781686
-0.087736
-0.0780554
-0.0590394
-0.0391043
-0.0238161
-0.0116548
-0.0055254
0.00148237
0.00446864
0.00711479
0.00430474
-0.0119775
-0.034278
-0.0603585
-0.0589323
-0.0511931
-0.0399862
-0.0108658
-0.122087
-0.122323
-0.115833
-0.10637
-0.097116
-0.0890574
-0.0819914
-0.0756582
-0.0701361
-0.0657063
-0.0626358
-0.0610704
-0.0610058
-0.0622767
-0.064535
-0.0673709
-0.0700995
-0.0720836
-0.0726753
-0.0714128
-0.0680994
-0.062808
-0.0558373
-0.047625
-0.0386748
-0.029432
-0.0203238
-0.0116091
-0.00353744
0.00376587
0.0101037
0.0155429
0.0195755
0.0217406
0.022335
0.0218305
0.019894
0.014626
0.00519696
-0.0133914
-0.0406648
-0.066639
-0.0759521
-0.0677608
-0.0512147
-0.0337468
-0.0202473
-0.00914057
-0.00342051
0.00331436
0.00610052
0.0084551
0.00595234
-0.00998368
-0.032441
-0.0586968
-0.0574394
-0.0488288
-0.0379222
-0.0105424
-0.112063
-0.113192
-0.108425
-0.100768
-0.0930502
-0.0862805
-0.0803492
-0.0749929
-0.0702077
-0.0661923
-0.0631646
-0.0612533
-0.0604649
-0.0606778
-0.061666
-0.0630258
-0.0643573
-0.0651502
-0.0649225
-0.0633043
-0.0601011
-0.0553186
-0.0491451
-0.0418868
-0.0339293
-0.0256244
-0.017332
-0.0092901
-0.00174516
0.00519035
0.0112954
0.0165805
0.0206545
0.0231384
0.0242951
0.0247188
0.0240218
0.0200819
0.0119228
-0.00505698
-0.0303632
-0.0545849
-0.063601
-0.0570568
-0.0431488
-0.0282525
-0.0166318
-0.00665551
-0.00136355
0.00505907
0.00767092
0.00959439
0.00748227
-0.00774534
-0.0299114
-0.0559286
-0.0550291
-0.0458918
-0.0353479
-0.0100832
-0.102174
-0.104139
-0.100826
-0.0947267
-0.0883685
-0.0827409
-0.077804
-0.0733088
-0.0691972
-0.0655981
-0.062685
-0.0605721
-0.0592759
-0.0587112
-0.058715
-0.0590077
-0.0592749
-0.0591485
-0.0582673
-0.0563395
-0.0531926
-0.0487978
-0.0432671
-0.036806
-0.0297025
-0.0222313
-0.0146903
-0.0072891
-0.000266278
0.00627437
0.0121219
0.0172444
0.0213154
0.0240445
0.0256922
0.0269202
0.0274639
0.0250201
0.0181827
0.00278269
-0.0204201
-0.0424906
-0.0510794
-0.0463045
-0.0351056
-0.0227674
-0.0130253
-0.00422227
0.000634443
0.0067139
0.00919724
0.0105783
0.00889369
-0.00521081
-0.0265489
-0.0518833
-0.0516804
-0.0424013
-0.0322974
-0.00947131
-0.092862
-0.0953328
-0.0931431
-0.0883566
-0.0831873
-0.0785645
-0.0744955
-0.070754
-0.0672506
-0.0640621
-0.0613229
-0.0591324
-0.0575153
-0.0564204
-0.0557183
-0.0552245
-0.0547015
-0.0538818
-0.0524979
-0.0503257
-0.04722
-0.0431339
-0.0381276
-0.0323355
-0.0259687
-0.0192389
-0.012389
-0.00559744
0.000914543
0.00704584
0.0126086
0.0175503
0.0215928
0.024511
0.0265449
0.0283615
0.0299088
0.0288734
0.0233302
0.00953901
-0.0112805
-0.0307474
-0.0388284
-0.0358995
-0.0273594
-0.0174488
-0.00948985
-0.00186171
0.002567
0.00828037
0.0107003
0.0114976
0.0102498
-0.00231144
-0.0222815
-0.0464834
-0.0472912
-0.0384135
-0.0288439
-0.00870137
-0.0840829
-0.0867747
-0.0854569
-0.0817776
-0.0776361
-0.0738857
-0.0705682
-0.0674842
-0.0645281
-0.0617381
-0.0592153
-0.0570441
-0.0552538
-0.0538148
-0.0526392
-0.0515936
-0.0505081
-0.0491901
-0.0474444
-0.045101
-0.0420409
-0.0382124
-0.0336438
-0.0284205
-0.0226946
-0.0166262
-0.0104109
-0.00419777
0.00181761
0.00753416
0.0127898
0.0175249
0.0215097
0.0245538
0.0268742
0.0290405
0.031177
0.0311324
0.0267216
0.0147713
-0.00317559
-0.0197664
-0.0273685
-0.026244
-0.0201643
-0.0124467
-0.00609233
0.000403322
0.00442857
0.00976513
0.012202
0.0124827
0.0116531
0.000971362
-0.0171562
-0.0398055
-0.0418964
-0.0340276
-0.0251004
-0.0077832
-0.0756859
-0.0785179
-0.0778935
-0.0751258
-0.0718497
-0.0688428
-0.0661694
-0.0636552
-0.0611873
-0.0587759
-0.0564952
-0.0544155
-0.0525676
-0.0509373
-0.0494658
-0.0480602
-0.0466002
-0.0449488
-0.0429647
-0.0405212
-0.0375244
-0.0339256
-0.0297345
-0.0250036
-0.0198405
-0.014365
-0.00873207
-0.00306556
0.00246804
0.00777103
0.0127029
0.0172023
0.0210861
0.024193
0.0266979
0.0290142
0.0313033
0.031728
0.0282673
0.018406
0.00364737
-0.0101091
-0.0172475
-0.0176838
-0.0137153
-0.00788131
-0.00289981
0.00254576
0.00620501
0.0111711
0.0137145
0.0136705
0.0132105
0.00457848
-0.0113723
-0.0321343
-0.0356641
-0.0293756
-0.0212137
-0.00674462
-0.0677716
-0.0706583
-0.0705477
-0.0685072
-0.0659463
-0.0635648
-0.0614378
-0.059413
-0.0573761
-0.0553181
-0.0532916
-0.0513541
-0.0495351
-0.0478308
-0.0462041
-0.0445912
-0.0429079
-0.041058
-0.038941
-0.0364646
-0.0335569
-0.0301761
-0.0263217
-0.0220252
-0.0173622
-0.0124212
-0.00732362
-0.0021714
0.00289587
0.0077897
0.0123868
0.0166217
0.0203559
0.0234649
0.0260448
0.0283593
0.0305089
0.031048
0.0283594
0.0205511
0.00886748
-0.00230425
-0.00887176
-0.010422
-0.00811767
-0.00382738
2.81352e-05
0.00453825
0.00787018
0.012479
0.0152179
0.0151531
0.0150018
0.0083657
-0.0052954
-0.0239744
-0.028909
-0.0242135
-0.0173467
-0.00563183
-0.0604024
-0.0632199
-0.0634663
-0.062002
-0.0600292
-0.0581688
-0.0565005
-0.0548918
-0.0532316
-0.0514977
-0.0497262
-0.0479629
-0.0462354
-0.0445453
-0.0428705
-0.0411684
-0.0393809
-0.0374416
-0.0352802
-0.0328311
-0.0300409
-0.026876
-0.0233315
-0.0194261
-0.015213
-0.010757
-0.006153
-0.0014836
0.00313563
0.00762565
0.0118797
0.0158303
0.0193738
0.0224062
0.0249612
0.0271727
0.0290554
0.0295436
0.0274445
0.0214038
0.0123828
0.00348727
-0.0023372
-0.00448995
-0.00338851
-0.000314581
0.00264574
0.00635634
0.00939357
0.013643
0.01663
0.0169072
0.0170234
0.0121009
0.000583269
-0.0159786
-0.0221004
-0.0195737
-0.0136891
-0.00450518
-0.0535166
-0.0562008
-0.0566955
-0.0556851
-0.0541904
-0.0527589
-0.0514709
-0.0502122
-0.0488776
-0.0474363
-0.0459118
-0.0443402
-0.0427454
-0.0411323
-0.0394885
-0.0377863
-0.0359863
-0.0340435
-0.0319095
-0.029539
-0.0268934
-0.0239476
-0.0206957
-0.0171493
-0.0133459
-0.00933334
-0.00518533
-0.000968442
0.00322218
0.00731717
0.0112236
0.014878
0.0181937
0.0210745
0.0235288
0.025578
0.0271708
0.0275569
0.0259027
0.0212966
0.0144552
0.00750002
0.00252825
0.000204001
0.000513924
0.00266096
0.00492599
0.0079763
0.0107461
0.0146143
0.0178149
0.0187339
0.0190822
0.0154438
0.00574515
-0.0087691
-0.0156676
-0.0151586
-0.010369
-0.003428
-0.0470983
-0.0496214
-0.0502787
-0.0496174
-0.048505
-0.0474216
-0.0464455
-0.0454782
-0.0444221
-0.0432413
-0.0419493
-0.0405743
-0.0391368
-0.0376432
-0.0360865
-0.0344492
-0.0327049
-0.0308235
-0.0287728
-0.0265221
-0.024045
-0.0213236
-0.0183531
-0.0151412
-0.0117151
-0.0081106
-0.00438499
-0.000591847
0.00319072
0.00690335
0.0104633
0.0138118
0.0168719
0.0195636
0.0218586
0.0237151
0.0250481
0.0253472
0.0240517
0.0205882
0.015475
0.0101281
0.00603132
0.00381912
0.00366114
0.00512309
0.00686029
0.00937323
0.0118957
0.0153607
0.0186401
0.0202914
0.0207617
0.0179625
0.00976571
-0.00275274
-0.00992424
-0.0111098
-0.00747628
-0.00245671
-0.0411569
-0.0434895
-0.0442379
-0.04384
-0.0430307
-0.0422276
-0.0415045
-0.0407771
-0.0399562
-0.0390038
-0.0379258
-0.0367442
-0.0354765
-0.0341281
-0.0326953
-0.0311673
-0.0295269
-0.0277543
-0.0258282
-0.023729
-0.0214391
-0.0189469
-0.0162495
-0.0133529
-0.0102774
-0.00705043
-0.00371697
-0.000320005
0.0030762
0.00642069
0.00963996
0.0126816
0.0154732
0.0179504
0.0200542
0.0217178
0.0228454
0.0230987
0.0221129
0.0195515
0.0157808
0.0117467
0.00848068
0.00652877
0.00613535
0.00710738
0.00845227
0.010524
0.0128062
0.0158491
0.0190033
0.0212959
0.0216108
0.0193161
0.0124291
0.00191501
-0.00505695
-0.00753564
-0.00505399
-0.00163254
-0.0356693
-0.0377956
-0.0385839
-0.038383
-0.0378121
-0.0372325
-0.0367126
-0.0361805
-0.0355557
-0.0348005
-0.0339158
-0.0329186
-0.031823
-0.0306326
-0.0293454
-0.0279551
-0.0264504
-0.0248185
-0.0230456
-0.0211199
-0.0190303
-0.0167702
-0.0143386
-0.0117409
-0.00899321
-0.00611681
-0.00314781
-0.000120758
0.00291085
0.00590404
0.00879378
0.0115349
0.0140576
0.0163052
0.0182092
0.0196983
0.0206763
0.0209258
0.0202152
0.0183664
0.0156317
0.0126454
0.0101178
0.00849055
0.00802075
0.00865489
0.0097122
0.0114158
0.0134484
0.0160522
0.0188207
0.0204623
0.0214188
0.0195076
0.0138017
0.00525505
-0.00117639
-0.00450608
-0.00309661
-0.000973071
-0.0306127
-0.032531
-0.0333232
-0.0332662
-0.032881
-0.0324781
-0.0321197
-0.031745
-0.0312824
-0.0306953
-0.0299806
-0.0291518
-0.0282249
-0.0271972
-0.0260662
-0.0248289
-0.0234783
-0.0220064
-0.0204043
-0.0186654
-0.0167834
-0.0147553
-0.0125816
-0.0102679
-0.00782739
-0.00527722
-0.00264693
3.55141e-05
0.00272505
0.00538631
0.00796229
0.0104134
0.0126738
0.0146954
0.016405
0.0177421
0.0186167
0.018894
0.0184274
0.0171403
0.0152043
0.0130382
0.0111382
0.00984501
0.00940031
0.00981012
0.0106567
0.0120481
0.0138124
0.015997
0.0183181
0.0199128
0.0205237
0.0188557
0.014166
0.00739949
0.00168714
-0.00204887
-0.00156015
-0.000469251
-0.02597
-0.0276838
-0.0284536
-0.0284995
-0.0282577
-0.0279937
-0.0277631
-0.0275147
-0.0271852
-0.0267396
-0.0261694
-0.0254783
-0.0247249
-0.0238592
-0.0228859
-0.0218064
-0.0206174
-0.0193142
-0.0178912
-0.0163447
-0.0146719
-0.0128721
-0.0109473
-0.00890275
-0.00675014
-0.00450352
-0.00218741
0.000175362
0.00254663
0.00489703
0.00717692
0.00935239
0.0113636
0.0131698
0.0147001
0.0159081
0.0167134
0.0170354
0.0167823
0.0159353
0.0146092
0.0130808
0.0117014
0.010719
0.0103515
0.0106206
0.0113086
0.0124337
0.0139155
0.0157083
0.0175627
0.0189096
0.0192089
0.0177294
0.0138644
0.00856326
0.00354255
-0.000141178
-0.000379479
-9.45091e-05
-0.0217187
-0.0232365
-0.0239672
-0.0240848
-0.0239533
-0.0237979
-0.0236683
-0.0235219
-0.0233048
-0.0229874
-0.0225646
-0.0220478
-0.0213957
-0.0206607
-0.0198321
-0.0189049
-0.0178759
-0.0167418
-0.0154984
-0.0141437
-0.0126767
-0.0110983
-0.00941115
-0.00762069
-0.00573707
-0.00377219
-0.00174653
0.000320975
0.00239831
0.00446074
0.00646483
0.00838228
0.0101602
0.0117665
0.0131362
0.014234
0.014991
0.0153633
0.0152924
0.014785
0.0139198
0.0128852
0.011928
0.0112166
0.0109464
0.0111336
0.0116951
0.0125934
0.0137966
0.015225
0.016627
0.0176611
0.0177111
0.0163977
0.0131885
0.00902374
0.00479698
0.00128925
0.00050886
0.000180293
-0.0178366
-0.0191708
-0.0198523
-0.0200181
-0.01997
-0.0198983
-0.019846
-0.019778
-0.0196474
-0.0194272
-0.0191093
-0.0186951
-0.0181876
-0.0175941
-0.0169104
-0.0161327
-0.0152597
-0.0142903
-0.013222
-0.0120535
-0.0107847
-0.00941758
-0.00795522
-0.00640277
-0.00476923
-0.00306466
-0.00130636
0.000489901
0.00229723
0.00409501
0.00584601
0.00752597
0.00908849
0.01051
0.0117364
0.0127397
0.0134602
0.0138787
0.0139547
0.0137062
0.0131908
0.0125312
0.0119048
0.0114209
0.0112499
0.0113932
0.01185
0.0125566
0.0135007
0.0146002
0.0155899
0.0163213
0.016181
0.0150192
0.0123383
0.00902076
0.00551781
0.0023055
0.00115442
0.000378766
-0.0143031
-0.0154677
-0.0160945
-0.0162907
-0.0163053
-0.0162974
-0.0163042
-0.0162965
-0.0162346
-0.0160942
-0.0158679
-0.0155564
-0.0151642
-0.014693
-0.0141408
-0.0135028
-0.0127771
-0.0119636
-0.0110612
-0.0100692
-0.00898799
-0.00781948
-0.00656708
-0.00523561
-0.00383284
-0.00236745
-0.000854002
0.000694543
0.00225543
0.00381137
0.00533178
0.00679615
0.00816402
0.00941641
0.0105148
0.0114303
0.0121201
0.0125728
0.0127619
0.0127082
0.0124542
0.0120751
0.0117018
0.0114025
0.0113189
0.0114411
0.0118104
0.0123563
0.0130696
0.0138823
0.0145477
0.014997
0.0147108
0.0136789
0.011434
0.00873867
0.00584247
0.00297614
0.00159745
0.000517145
-0.0110967
-0.0121071
-0.0126774
-0.0128914
-0.0129528
-0.0129934
-0.013045
-0.0130837
-0.0130763
-0.0130018
-0.0128535
-0.0126313
-0.012336
-0.0119703
-0.0115354
-0.0110254
-0.0104359
-0.00976667
-0.00901789
-0.0081897
-0.00728245
-0.00629792
-0.00523926
-0.00411082
-0.00291932
-0.00167218
-0.000381359
0.000942009
0.00227932
0.00361651
0.00492743
0.00619608
0.00739002
0.00849081
0.00946412
0.010299
0.0109589
0.0114336
0.0117056
0.0117938
0.0117295
0.0115582
0.0113746
0.011218
0.0112045
0.011318
0.0116128
0.0120243
0.0125402
0.0131107
0.0135184
0.0137407
0.0133493
0.0124198
0.0105401
0.00830234
0.00589398
0.00337615
0.00187748
0.000607294
-0.00819726
-0.0090691
-0.00958419
-0.009807
-0.00990286
-0.00998018
-0.0100656
-0.0101398
-0.0101753
-0.0101541
-0.0100699
-0.00992264
-0.00971264
-0.00944092
-0.00910675
-0.00870872
-0.00824158
-0.00770346
-0.00709459
-0.00641562
-0.00566708
-0.00485042
-0.0039683
-0.00302446
-0.00202461
-0.000974949
0.000114622
0.00123497
0.00237095
0.00351073
0.00463337
0.00572555
0.00676079
0.00772539
0.00858871
0.00934531
0.00996586
0.0104485
0.0107758
0.0109613
0.0110304
0.0110096
0.010962
0.010912
0.0109511
0.0110607
0.0112915
0.0115924
0.0119451
0.0123184
0.0125249
0.0125735
0.0121159
0.0112629
0.00968538
0.00779238
0.00576613
0.00357346
0.00203265
0.000659217
-0.00558573
-0.00633463
-0.0067972
-0.00702261
-0.00714368
-0.0072485
-0.00735916
-0.00746015
-0.00752886
-0.00755049
-0.00751929
-0.00743464
-0.00729686
-0.00710488
-0.00685857
-0.00655735
-0.00619823
-0.00577748
-0.00529426
-0.00474923
-0.00414321
-0.00347748
-0.00275416
-0.00197628
-0.00114854
-0.000276047
0.000633185