/*--------------------------------*- C++ -*----------------------------------*\
| =========                 |                                                 |
| \\      /  F ield         | OpenFOAM: The Open Source CFD Toolbox           |
|  \\    /   O peration     | Version:  2512                                  |
|   \\  /    A nd           | Website:  www.openfoam.com                      |
|    \\/     M anipulation  |                                                 |
\*---------------------------------------------------------------------------*/
FoamFile
{
    version     2.0;
    format      ascii;
    arch        "LSB;label=32;scalar=64";
    class       volScalarField;
    location    "91.5";
    object      p;
}
// * * * * * * * * * * * * * * * * * * * * * * * * * * * * * * * * * * * * * //

dimensions      [0 2 -2 0 0 0 0];

internalField   nonuniform List<scalar> 
13248
(
-0.414265
-0.41181
-0.40944
-0.407238
-0.405242
-0.403482
-0.401853
-0.400125
-0.397976
-0.395029
-0.390894
-0.385216
-0.377718
-0.368241
-0.356763
-0.3434
-0.328386
-0.312042
-0.294723
-0.276804
-0.258547
-0.240318
-0.221706
-0.203244
-0.422884
-0.419683
-0.416473
-0.413358
-0.410381
-0.407581
-0.404846
-0.401913
-0.398426
-0.393991
-0.388235
-0.380859
-0.371689
-0.360689
-0.347967
-0.333747
-0.31833
-0.302053
-0.285246
-0.268211
-0.251178
-0.234376
-0.217715
-0.201716
-0.432516
-0.428448
-0.424345
-0.420298
-0.416314
-0.412417
-0.408458
-0.404134
-0.399061
-0.39286
-0.38522
-0.375954
-0.365025
-0.352538
-0.338714
-0.323844
-0.308245
-0.292223
-0.276045
-0.259935
-0.244051
-0.22856
-0.213391
-0.198771
-0.443507
-0.438414
-0.433354
-0.428349
-0.423311
-0.418206
-0.412827
-0.40683
-0.399839
-0.391544
-0.381759
-0.370455
-0.357751
-0.343876
-0.329119
-0.313785
-0.298155
-0.282467
-0.266911
-0.251629
-0.236728
-0.222315
-0.208328
-0.195022
-0.456038
-0.449754
-0.443663
-0.437649
-0.431454
-0.424948
-0.41786
-0.409836
-0.400568
-0.389887
-0.37779
-0.364427
-0.35005
-0.334964
-0.319469
-0.303829
-0.288255
-0.272906
-0.257894
-0.2433
-0.229182
-0.215592
-0.202487
-0.190043
-0.470099
-0.462483
-0.45529
-0.448179
-0.440647
-0.432445
-0.423262
-0.412802
-0.400911
-0.387629
-0.373162
-0.357817
-0.341931
-0.32582
-0.30974
-0.293884
-0.278381
-0.263317
-0.248743
-0.234692
-0.221186
-0.208238
-0.195823
-0.18406
-0.485486
-0.476452
-0.468089
-0.45974
-0.450594
-0.440289
-0.428551
-0.415242
-0.400451
-0.384469
-0.367691
-0.350526
-0.333327
-0.316364
-0.299816
-0.283793
-0.268352
-0.253517
-0.239292
-0.225675
-0.212659
-0.200232
-0.188379
-0.177142
-0.501792
-0.491323
-0.481723
-0.471925
-0.460779
-0.447878
-0.433102
-0.416593
-0.398746
-0.380093
-0.361162
-0.342386
-0.324071
-0.306402
-0.289473
-0.273313
-0.257918
-0.243266
-0.229326
-0.216069
-0.203465
-0.191489
-0.180125
-0.169339
-0.518394
-0.506548
-0.495631
-0.48409
-0.47047
-0.454447
-0.436211
-0.416286
-0.395384
-0.374221
-0.353369
-0.333216
-0.313975
-0.295733
-0.278498
-0.262234
-0.246887
-0.232399
-0.218713
-0.205778
-0.193547
-0.181984
-0.171062
-0.160687
-0.534448
-0.521341
-0.508996
-0.495342
-0.478734
-0.45912
-0.437155
-0.413788
-0.39
-0.366594
-0.344103
-0.322814
-0.302828
-0.284136
-0.266672
-0.250349
-0.235072
-0.220756
-0.207321
-0.194698
-0.182826
-0.17166
-0.161148
-0.151166
-0.548907
-0.534684
-0.52075
-0.504557
-0.484477
-0.460939
-0.435166
-0.408513
-0.382129
-0.356803
-0.332966
-0.310775
-0.290218
-0.271203
-0.253602
-0.237285
-0.222127
-0.208021
-0.194866
-0.182578
-0.171086
-0.160327
-0.150219
-0.140649
-0.560617
-0.545462
-0.529759
-0.510589
-0.486604
-0.458919
-0.429378
-0.39967
-0.371008
-0.344087
-0.319188
-0.296329
-0.275392
-0.256206
-0.238594
-0.222389
-0.207442
-0.193624
-0.18082
-0.168933
-0.157884
-0.147595
-0.137955
-0.128902
-0.325697
-0.328165
-0.329661
-0.330619
-0.331428
-0.332208
-0.333014
-0.333876
-0.334799
-0.335774
-0.336788
-0.33783
-0.338893
-0.339978
-0.341092
-0.34225
-0.343474
-0.344793
-0.34624
-0.347857
-0.349659
-0.351599
-0.35369
-0.356344
-0.328843
-0.331709
-0.333501
-0.33472
-0.335796
-0.33684
-0.337886
-0.338942
-0.339987
-0.340981
-0.341875
-0.342612
-0.343136
-0.34339
-0.343321
-0.34288
-0.342026
-0.340729
-0.338984
-0.336806
-0.334184
-0.331019
-0.327446
-0.324612
-0.333399
-0.336464
-0.338449
-0.339883
-0.341205
-0.342507
-0.343801
-0.34507
-0.346266
-0.347316
-0.348129
-0.348605
-0.348631
-0.34809
-0.346862
-0.344831
-0.341885
-0.33793
-0.332906
-0.326797
-0.319561
-0.311043
-0.301438
-0.292695
-0.339406
-0.342445
-0.344499
-0.346085
-0.347615
-0.349158
-0.350698
-0.352193
-0.353564
-0.354707
-0.355491
-0.355768
-0.355374
-0.354131
-0.351854
-0.348359
-0.343469
-0.337027
-0.328917
-0.319085
-0.30749
-0.293968
-0.278616
-0.263842
-0.346716
-0.349501
-0.351491
-0.353148
-0.354828
-0.356568
-0.358328
-0.360037
-0.361585
-0.362834
-0.363619
-0.363746
-0.363001
-0.36115
-0.357951
-0.353162
-0.34655
-0.337911
-0.327083
-0.313982
-0.298594
-0.280847
-0.260605
-0.239695
-0.35502
-0.357354
-0.359144
-0.36077
-0.362511
-0.364373
-0.366287
-0.368148
-0.369827
-0.371149
-0.371913
-0.371884
-0.370802
-0.368388
-0.364352
-0.35841
-0.350297
-0.339787
-0.326711
-0.31098
-0.29262
-0.271717
-0.248136
-0.221991
-0.363913
-0.365641
-0.367103
-0.368576
-0.370254
-0.372112
-0.374061
-0.375969
-0.37767
-0.378963
-0.37961
-0.379337
-0.377849
-0.374827
-0.369953
-0.36292
-0.353461
-0.341368
-0.326514
-0.308871
-0.28854
-0.265668
-0.240654
-0.212558
-0.372967
-0.373996
-0.37501
-0.376191
-0.37765
-0.379345
-0.381162
-0.382947
-0.384506
-0.385602
-0.385965
-0.38529
-0.383249
-0.379502
-0.373717
-0.365594
-0.354894
-0.341465
-0.325265
-0.306369
-0.285032
-0.261373
-0.236775
-0.208537
-0.381826
-0.382124
-0.382587
-0.383327
-0.384393
-0.385732
-0.387218
-0.388677
-0.389884
-0.390576
-0.390451
-0.389178
-0.386406
-0.381788
-0.375003
-0.365786
-0.35396
-0.339464
-0.322368
-0.302858
-0.281373
-0.257948
-0.234574
-0.207907
-0.390291
-0.389865
-0.389699
-0.389855
-0.390346
-0.391127
-0.392073
-0.392989
-0.39363
-0.393704
-0.392882
-0.390811
-0.387132
-0.381507
-0.37365
-0.363363
-0.350559
-0.335288
-0.31774
-0.298214
-0.27724
-0.254925
-0.233075
-0.208936
-0.398355
-0.397241
-0.396379
-0.395819
-0.39557
-0.395608
-0.395814
-0.395986
-0.395856
-0.395107
-0.393385
-0.390325
-0.385571
-0.378818
-0.369842
-0.35853
-0.344904
-0.329125
-0.311478
-0.292359
-0.272271
-0.251548
-0.231388
-0.209986
-0.406226
-0.404445
-0.402834
-0.401458
-0.400343
-0.399494
-0.398808
-0.398072
-0.396996
-0.395236
-0.392418
-0.38817
-0.382162
-0.374143
-0.363975
-0.351653
-0.337309
-0.321196
-0.30365
-0.285087
-0.265894
-0.24657
-0.227753
-0.209284
-0.360471
-0.36578
-0.370115
-0.372145
-0.370507
-0.363949
-0.351695
-0.332577
-0.307924
-0.278737
-0.247246
-0.21714
-0.191746
-0.173675
-0.164967
-0.166935
-0.179241
-0.19852
-0.218007
-0.229096
-0.225168
-0.204658
-0.172933
-0.139101
-0.110502
-0.0904787
-0.0792699
-0.0755203
-0.0782688
-0.0886457
-0.107003
-0.127536
-0.139279
-0.134639
-0.116708
-0.0946592
-0.0769535
-0.0664424
-0.0619323
-0.0638113
-0.0740181
-0.0892603
-0.0980421
-0.0931612
-0.0790256
-0.0636094
-0.0524536
-0.04523
-0.0439545
-0.0464903
-0.0468163
-0.0441458
-0.0402768
-0.0349167
-0.0312167
-0.0281366
-0.0239919
-0.0241205
-0.0207686
-0.00698507
-0.323086
-0.322248
-0.321372
-0.319423
-0.315315
-0.308087
-0.297306
-0.28172
-0.26348
-0.241986
-0.217862
-0.19562
-0.17803
-0.167681
-0.166725
-0.176206
-0.194971
-0.218739
-0.240288
-0.250852
-0.245133
-0.221098
-0.185192
-0.147323
-0.115202
-0.0920503
-0.0778786
-0.0712954
-0.0711215
-0.0779879
-0.0925463
-0.110284
-0.121585
-0.119127
-0.104849
-0.0866578
-0.0725132
-0.0650408
-0.0630889
-0.0676342
-0.080607
-0.098205
-0.107978
-0.102095
-0.0856006
-0.0671244
-0.0534661
-0.0440098
-0.0408182
-0.0412791
-0.0407135
-0.0386554
-0.0360498
-0.0327096
-0.0305619
-0.0297426
-0.0266811
-0.0273117
-0.02385
-0.00804692
-0.285697
-0.277907
-0.27107
-0.264247
-0.256776
-0.247241
-0.237616
-0.225276
-0.210438
-0.198639
-0.181243
-0.167294
-0.158103
-0.156152
-0.163377
-0.180209
-0.204646
-0.231912
-0.255036
-0.266301
-0.25859
-0.232146
-0.193434
-0.15277
-0.118083
-0.0925068
-0.075847
-0.0666827
-0.0637418
-0.0672191
-0.0779597
-0.0927708
-0.103439
-0.102932
-0.0921617
-0.0777828
-0.0672151
-0.0628208
-0.0634927
-0.0707244
-0.0863529
-0.106146
-0.116906
-0.110209
-0.0915975
-0.0702381
-0.0541916
-0.0426966
-0.0378196
-0.036426
-0.0349892
-0.0333309
-0.0317964
-0.0303914
-0.0298298
-0.0313916
-0.0294105
-0.030425
-0.026845
-0.0090905
-0.252171
-0.237234
-0.224287
-0.21221
-0.201246
-0.191101
-0.178899
-0.167694
-0.156483
-0.152485
-0.141342
-0.135364
-0.13451
-0.14085
-0.155734
-0.178884
-0.207747
-0.237531
-0.261748
-0.273133
-0.265122
-0.237627
-0.19756
-0.155445
-0.119253
-0.092023
-0.0734462
-0.062086
-0.0566428
-0.0569817
-0.0640228
-0.0757675
-0.0854902
-0.08661
-0.0790364
-0.0682882
-0.061183
-0.0597779
-0.0630066
-0.072802
-0.0909133
-0.112771
-0.124574
-0.117311
-0.0968919
-0.0729144
-0.0546422
-0.0413184
-0.0349987
-0.0319956
-0.0297092
-0.0282426
-0.0275692
-0.0279894
-0.0290261
-0.0330778
-0.0321679
-0.0334315
-0.0297217
-0.0101049
-0.225429
-0.203912
-0.185385
-0.16817
-0.152943
-0.139731
-0.126218
-0.114332
-0.11233
-0.106421
-0.102904
-0.103885
-0.110364
-0.12386
-0.145018
-0.172942
-0.204813
-0.236123
-0.261047
-0.272671
-0.265032
-0.237773
-0.197844
-0.155676
-0.119045
-0.0908738
-0.0709105
-0.0577821
-0.050207
-0.0477625
-0.0513061
-0.0599094
-0.0683377
-0.0708076
-0.0658288
-0.0584059
-0.0545131
-0.0558821
-0.0614868
-0.073645
-0.0940408
-0.117837
-0.13074
-0.123206
-0.101378
-0.0751389
-0.0548488
-0.0399061
-0.0323725
-0.0280141
-0.0249178
-0.0234597
-0.0234239
-0.0255293
-0.0281554
-0.034792
-0.0349366
-0.0362974
-0.0324469
-0.0110788
-0.206487
-0.179772
-0.156407
-0.135172
-0.116615
-0.101783
-0.0890611
-0.0775134
-0.0723083
-0.0696052
-0.0707314
-0.0767317
-0.0886292
-0.107281
-0.132709
-0.163572
-0.196976
-0.228836
-0.254147
-0.265954
-0.259092
-0.233073
-0.194675
-0.153805
-0.117749
-0.0893162
-0.0684406
-0.0539409
-0.0446023
-0.0398403
-0.0402457
-0.0457316
-0.0525229
-0.0557124
-0.0528667
-0.0483808
-0.0473136
-0.0511472
-0.0588793
-0.0731501
-0.0955698
-0.12116
-0.135217
-0.127758
-0.104974
-0.0768956
-0.0548358
-0.0384803
-0.029939
-0.0244786
-0.0206338
-0.0190419
-0.0194124
-0.0230342
-0.0272196
-0.0365176
-0.037695
-0.0389898
-0.0349893
-0.012001
-0.195447
-0.167538
-0.140217
-0.115896
-0.0943215
-0.0761119
-0.0613732
-0.0501864
-0.0450634
-0.0438831
-0.0473168
-0.056185
-0.0711648
-0.0926065
-0.120109
-0.152072
-0.185627
-0.217088
-0.242411
-0.254118
-0.248331
-0.224388
-0.188688
-0.150252
-0.115653
-0.0875666
-0.0661957
-0.0506667
-0.0399039
-0.0332378
-0.0309935
-0.0335334
-0.0384596
-0.0415869
-0.0405432
-0.0385044
-0.0397611
-0.045679
-0.055214
-0.0712683
-0.0954102
-0.122642
-0.137897
-0.130893
-0.107613
-0.0781619
-0.0546181
-0.0370536
-0.0276849
-0.0213559
-0.0168473
-0.0150362
-0.0155795
-0.0205245
-0.0262162
-0.0382335
-0.0404178
-0.041478
-0.0373217
-0.0128609
-0.190898
-0.163697
-0.13505
-0.10879
-0.0853093
-0.0649003
-0.0481422
-0.0363206
-0.0302564
-0.0289878
-0.0329299
-0.0426468
-0.0585047
-0.080536
-0.108121
-0.139572
-0.172087
-0.202166
-0.225233
-0.238223
-0.23383
-0.212621
-0.180512
-0.145365
-0.112917
-0.0856996
-0.0642142
-0.0479655
-0.0360951
-0.0279078
-0.023504
-0.0234039
-0.0263942
-0.0291077
-0.0292472
-0.0290719
-0.0320872
-0.0396281
-0.0505872
-0.0680446
-0.0935604
-0.122267
-0.138752
-0.132562
-0.109251
-0.078924
-0.0542124
-0.0356376
-0.0256014
-0.0186082
-0.0135258
-0.0114697
-0.0119598
-0.0180185
-0.025139
-0.0399157
-0.0430753
-0.0437343
-0.0394204
-0.0136502
-0.190414
-0.165189
-0.137752
-0.111379
-0.0870437
-0.0653736
-0.04749
-0.0340026
-0.0261493
-0.0236374
-0.0265869
-0.0354272
-0.050337
-0.0711654
-0.0972233
-0.126855
-0.1574
-0.185705
-0.207963
-0.219916
-0.216777
-0.198758
-0.170849
-0.139558
-0.109749
-0.0838335
-0.0625907
-0.0459089
-0.0332139
-0.0238409
-0.0177285
-0.0153635
-0.0164242
-0.0184591
-0.0192516
-0.0203422
-0.0245353
-0.0332008
-0.0451044
-0.0634855
-0.0901031
-0.120142
-0.137831
-0.132776
-0.109912
-0.0792457
-0.053708
-0.0342897
-0.0236996
-0.0162274
-0.0106506
-0.0083531
-0.00857539
-0.0155305
-0.0239768
-0.0415383
-0.0456337
-0.0457353
-0.0412618
-0.0143628
-0.191909
-0.16929
-0.14487
-0.120417
-0.0968184
-0.07493
-0.0556397
-0.0410039
-0.0307848
-0.0261855
-0.0269516
-0.0335811
-0.0461498
-0.0644143
-0.087696
-0.114452
-0.142231
-0.167969
-0.188819
-0.200085
-0.198473
-0.184068
-0.160769
-0.13368
-0.106844
-0.0825646
-0.0618587
-0.0449535
-0.0316066
-0.0212683
-0.0137665
-0.00947096
-0.00863671
-0.00975403
-0.0107182
-0.0124946
-0.0172941
-0.0265721
-0.0390045
-0.0579153
-0.0851534
-0.116298
-0.13519
-0.131623
-0.109677
-0.0792475
-0.0532653
-0.0331267
-0.0220008
-0.0141849
-0.00823469
-0.00573635
-0.00543423
-0.0130733
-0.0227223
-0.0430634
-0.0480511
-0.0474596
-0.0428173
-0.0149896
-0.193364
-0.173508
-0.152523
-0.130298
-0.107983
-0.0868259
-0.0657317
-0.0512064
-0.0401891
-0.0338944
-0.031762
-0.0352024
-0.0444785
-0.0592568
-0.0790031
-0.10238
-0.127037
-0.15037
-0.168548
-0.179223
-0.17939
-0.168978
-0.150619
-0.128016
-0.104418
-0.0820153
-0.0620634
-0.0450885
-0.031188
-0.0200438
-0.0114206
-0.00547688
-0.00279851
-0.00288126
-0.00369708
-0.00576469
-0.0106411
-0.0199492
-0.0322416
-0.0510934
-0.0789575
-0.111325
-0.130893
-0.129053
-0.10831
-0.0786603
-0.0526951
-0.0320413
-0.0204212
-0.0122865
-0.00614838
-0.00366564
-0.00260426
-0.0106424
-0.0213312
-0.0444778
-0.0502795
-0.0488829
-0.0440555
-0.015506
-0.195472
-0.179971
-0.162809
-0.143247
-0.123389
-0.10438
-0.0869338
-0.069012
-0.0551899
-0.0459135
-0.0414117
-0.0414505
-0.0465383
-0.056782
-0.0716419
-0.0900428
-0.11034
-0.130865
-0.147451
-0.156501
-0.157907
-0.151154
-0.137361
-0.119004
-0.0986735
-0.0784292
-0.0597131
-0.043241
-0.0293137
-0.0178808
-0.00875453
-0.00176901
0.00244211
0.00336817
0.00250879
0.000113625
-0.00475982
-0.013826
-0.0257507
-0.0440191
-0.0716454
-0.104469
-0.124769
-0.124043
-0.105092
-0.0764101
-0.0509098
-0.0302537
-0.0185872
-0.0101872
-0.0039977
-0.00169484
2.82027e-05
-0.0083283
-0.0198499
-0.0456801
-0.0522868
-0.049976
-0.0449849
-0.0158765
-0.184675
-0.178399
-0.162318
-0.143485
-0.124726
-0.106553
-0.0899684
-0.0744248
-0.0618414
-0.0528134
-0.047476
-0.0461926
-0.049598
-0.0578086
-0.0704106
-0.0864189
-0.104281
-0.121981
-0.135617
-0.143381
-0.14406
-0.137376
-0.124597
-0.107869
-0.0893912
-0.0708928
-0.053618
-0.0381944
-0.0249039
-0.0137554
-0.00465975
0.00261136
0.007601
0.00956839
0.00927062
0.00768052
0.00272129
-0.00545601
-0.0164462
-0.0343952
-0.063381
-0.0992656
-0.122118
-0.122409
-0.102016
-0.0730758
-0.0478846
-0.0275835
-0.0164493
-0.00803731
-0.00182354
0.000805121
0.00327087
-0.00549723
-0.017887
-0.0466326
-0.0544034
-0.0508281
-0.0456837
-0.016109
-0.173761
-0.169347
-0.154475
-0.136448
-0.119956
-0.105057
-0.0911877
-0.0782544
-0.067233
-0.0588644
-0.0536366
-0.0520464
-0.0544642
-0.0609233
-0.0710465
-0.0839526
-0.0981981
-0.111379
-0.122301
-0.128072
-0.127775
-0.121493
-0.110299
-0.0958144
-0.0797245
-0.0633874
-0.0478544
-0.033695
-0.0212152
-0.0105461
-0.00167703
0.00569712
0.0111629
0.013713
0.0135961
0.0115288
0.00778209
0.000722142
-0.00915454
-0.026446
-0.0560961
-0.0936181
-0.117191
-0.116361
-0.0964161
-0.0684487
-0.0444483
-0.0249999
-0.0143157
-0.00598688
-3.47477e-05
0.00275543
0.0054292
-0.00332152
-0.0163333
-0.0473832
-0.0562638
-0.0512508
-0.045895
-0.0162115
-0.16287
-0.159576
-0.147292
-0.131928
-0.117421
-0.104422
-0.0924326
-0.0812963
-0.0716226
-0.064119
-0.0593002
-0.0575114
-0.0589658
-0.0636485
-0.0712
-0.0808667
-0.0914831
-0.101396
-0.10928
-0.113242
-0.112511
-0.107087
-0.0976306
-0.0852635
-0.0712784
-0.056789
-0.042728
-0.0296585
-0.0179102
-0.0076547
0.00100283
0.00833206
0.0140468
0.017101
0.0174012
0.0155732
0.012295
0.00590298
-0.00344446
-0.0205037
-0.0499958
-0.08679
-0.109894
-0.108718
-0.0897667
-0.0633399
-0.0407798
-0.0223057
-0.0121285
-0.00398154
0.0017109
0.00456032
0.0071799
-0.0016198
-0.0151994
-0.04798
-0.0578193
-0.0512866
-0.0456695
-0.0162292
-0.151042
-0.149628
-0.139838
-0.12672
-0.114126
-0.102937
-0.0927142
-0.083236
-0.0748835
-0.068229
-0.0637094
-0.0616
-0.0620561
-0.0650457
-0.0702726
-0.0771625
-0.0848229
-0.0920115
-0.0975382
-0.100169
-0.0991742
-0.0944007
-0.0862673
-0.0755888
-0.0633754
-0.0505291
-0.0378432
-0.0258371
-0.0148457
-0.00504743
0.0033566
0.0105448
0.0163791
0.0199137
0.020816
0.0195213
0.0168959
0.011201
0.00219336
-0.0145831
-0.0430376
-0.0784114
-0.101196
-0.0999551
-0.0821501
-0.0575854
-0.0367606
-0.0194883
-0.00990483
-0.00200888
0.00343833
0.00624787
0.00880285
-6.09442e-05
-0.0140381
-0.0481992
-0.0589977
-0.0509562
-0.0449826
-0.0161299
-0.139408
-0.13965
-0.132007
-0.120967
-0.110178
-0.100635
-0.0920051
-0.084006
-0.0768341
-0.0709205
-0.0666468
-0.0642633
-0.0638923
-0.0654998
-0.0688513
-0.0734758
-0.0787768
-0.0837016
-0.0873702
-0.0888459
-0.0875033
-0.0831605
-0.0760824
-0.0668323
-0.0561616
-0.0447776
-0.0333431
-0.0223283
-0.0120785
-0.00276456
0.00536521
0.0123714
0.018212
0.0221034
0.0236394
0.0231347
0.0214418
0.0167318
0.00838036
-0.00763515
-0.0347536
-0.0688283
-0.0911083
-0.089947
-0.0736008
-0.0512812
-0.0324623
-0.0165838
-0.00766134
-7.48611e-05
0.00514402
0.00780201
0.0103022
0.00151013
-0.0125918
-0.0478705
-0.0596566
-0.050187
-0.0437656
-0.0158763
-0.128466
-0.129667
-0.123839
-0.114737
-0.105639
-0.0975822
-0.0903455
-0.0836261
-0.0774938
-0.0722676
-0.0682762
-0.0657409
-0.064759
-0.0652957
-0.0671522
-0.069867
-0.0733322
-0.0764345
-0.078569
-0.0790425
-0.0773643
-0.0733399
-0.0671026
-0.0590195
-0.0496422
-0.0395253
-0.0292187
-0.0191311
-0.00960654
-0.00080719
0.00701666
0.0138221
0.019588
0.0237027
0.0258313
0.0262017
0.0256826
0.0222912
0.0150175
1.19522e-05
-0.0257966
-0.0583006
-0.0796932
-0.0788488
-0.0643396
-0.0445656
-0.0279445
-0.0136188
-0.00541309
0.00180797
0.00682168
0.00923709
0.011655
0.00311073
-0.010829
-0.0468182
-0.0595683
-0.0488827
-0.0419715
-0.0154348
-0.117771
-0.119682
-0.115459
-0.108119
-0.100563
-0.0938354
-0.0878133
-0.0822059
-0.0770028
-0.0724297
-0.0687545
-0.0661665
-0.0647484
-0.0644775
-0.0652276
-0.0668233
-0.068461
-0.0700503
-0.0709477
-0.0706057
-0.0686286
-0.0648174
-0.0592223
-0.0520793
-0.043789
-0.0347755
-0.0254874
-0.0162664
-0.00744097
0.000825152
0.0083052
0.0148952
0.0205505
0.0247901
0.0274154
0.0285721
0.0293064
0.027484
0.0215841
0.00762738
-0.0167595
-0.0471916
-0.0672857
-0.0669616
-0.0546361
-0.0376162
-0.0232941
-0.0106277
-0.00317613
0.00363014
0.00847001
0.010583
0.0128555
0.00471954
-0.00874081
-0.0448185
-0.0584775
-0.0469648
-0.0395821
-0.0147766
-0.107336
-0.109914
-0.107049
-0.101231
-0.0950382
-0.0894838
-0.08452
-0.0798796
-0.0755014
-0.071534
-0.0681878
-0.065623
-0.0639138
-0.0630447
-0.0629008
-0.063335
-0.0639137
-0.0643816
-0.0643226
-0.0633297
-0.0610888
-0.0574192
-0.0523254
-0.0459509
-0.0385784
-0.030524
-0.0221496
-0.013736
-0.0055811
0.00214529
0.00924608
0.015596
0.0211225
0.0254176
0.028356
0.0302078
0.0320198
0.0317714
0.0273974
0.0145949
-0.00815113
-0.0359633
-0.0542923
-0.0546756
-0.0448156
-0.0306458
-0.0186154
-0.00764705
-0.000963274
0.00538726
0.0100893
0.0118797
0.0139235
0.00635382
-0.00625602
-0.0416571
-0.0561396
-0.0443735
-0.0366147
-0.0138833
-0.0975335
-0.100509
-0.0986969
-0.0941607
-0.0891545
-0.0846274
-0.0805812
-0.0767768
-0.0731224
-0.0697088
-0.0666975
-0.0642225
-0.0623509
-0.0610768
-0.0603298
-0.0599204
-0.0596584
-0.0592842
-0.0584994
-0.0570029
-0.0545532
-0.0509949
-0.0463054
-0.040565
-0.0339694
-0.0267499
-0.019195
-0.0115323
-0.00402058
0.00316961
0.00986638
0.0159407
0.0213178
0.0256259
0.0288264
0.0311246
0.0336613
0.0346562
0.031693
0.0202672
-0.000422697
-0.0249698
-0.0411659
-0.0424739
-0.0352385
-0.0238785
-0.0140248
-0.00471639
0.00121485
0.00708026
0.01168
0.0131799
0.014922
0.00808736
-0.00329588
-0.0371963
-0.0523617
-0.041076
-0.0331336
-0.012754
-0.0883404
-0.0914572
-0.0904587
-0.087
-0.083016
-0.0793762
-0.0761178
-0.0730314
-0.0700093
-0.0670998
-0.0644236
-0.0620902
-0.0601579
-0.0586264
-0.0574415
-0.0564873
-0.0556134
-0.0546278
-0.0533148
-0.0514534
-0.0488597
-0.0454042
-0.0410522
-0.0358437
-0.0299127
-0.0234251
-0.0166063
-0.00964027
-0.00274471
0.00391792
0.010197
0.0159597
0.0211487
0.0254258
0.0287984
0.0313743
0.0342299
0.0359063
0.0339775
0.0242121
0.0062152
-0.0145662
-0.0285253
-0.0309254
-0.0262642
-0.0175225
-0.00963944
-0.00187929
0.00334489
0.00871469
0.0132435
0.014549
0.0159622
0.0100178
0.000163725
-0.0314242
-0.047069
-0.0370895
-0.0292527
-0.01141
-0.0796002
-0.0827845
-0.0824302
-0.0798588
-0.0767337
-0.073846
-0.0712564
-0.0687825
-0.0663096
-0.0638545
-0.0615053
-0.0593497
-0.0574384
-0.055776
-0.054326
-0.0530102
-0.0517192
-0.0503145
-0.0486407
-0.0465362
-0.043863
-0.0405167
-0.0364606
-0.0317102
-0.0263559
-0.0205144
-0.0143592
-0.00803826
-0.00173101
0.00441427
0.0102663
0.0156915
0.0206461
0.0248364
0.0282843
0.0310071
0.033872
0.0357016
0.0344016
0.0264828
0.0116276
-0.00534336
-0.0172191
-0.0206178
-0.018195
-0.0117377
-0.00556009
0.000818782
0.00540316
0.0102912
0.0147798
0.0160535
0.0171847
0.0122357
0.00407309
-0.0245049
-0.0403781
-0.0324945
-0.0251273
-0.00989747
-0.071381
-0.0745649
-0.074688
-0.0728242
-0.0704068
-0.0681475
-0.0661194
-0.0641634
-0.0621631
-0.0601136
-0.0580768
-0.0561225
-0.054294
-0.0525989
-0.0510135
-0.0494851
-0.0479367
-0.0462694
-0.0443727
-0.0421296
-0.0394386
-0.0362183
-0.0324348
-0.0280898
-0.0232435
-0.0179775
-0.0124236
-0.00669962
-0.000952028
0.00468804
0.0101068
0.015176
0.0198559
0.0238991
0.0273241
0.0300791
0.0327711
0.0344512
0.033513
0.0273441
0.0155836
0.00205033
-0.00815786
-0.0119452
-0.0112061
-0.00661833
-0.00185953
0.00333577
0.00735626
0.0117923
0.0162672
0.0177273
0.0187222
0.0148095
0.00830035
-0.0168094
-0.0326384
-0.0274386
-0.0209373
-0.00828592
-0.0637368
-0.0668127
-0.0672646
-0.0659595
-0.0641212
-0.0623818
-0.0608198
-0.0592972
-0.0577004
-0.0560093
-0.0542659
-0.0525249
-0.0508227
-0.0491676
-0.0475455
-0.0459212
-0.0442412
-0.0424363
-0.0404288
-0.0381355
-0.0354832
-0.0324102
-0.0288876
-0.0249107
-0.0205199
-0.0157714
-0.0107653
-0.00559401
-0.000377126
0.0047733
0.00975746
0.014456
0.0188293
0.0226705
0.0259849
0.0286721
0.0311029
0.0325268
0.0317945
0.0270626
0.0179966
0.00740692
-0.00108174
-0.00495141
-0.00533115
-0.00219593
0.0014203
0.00563426
0.00916909
0.013187
0.0176449
0.0195179
0.0206286
0.0177375
0.0126147
-0.00888272
-0.0244103
-0.0221393
-0.0168581
-0.00665896
-0.0566065
-0.0595161
-0.0601921
-0.0593253
-0.0579556
-0.0566406
-0.0554606
-0.0542968
-0.0530411
-0.0516635
-0.0501906
-0.0486648
-0.0471159
-0.0455534
-0.0439675
-0.0423353
-0.0406208
-0.0387759
-0.0367471
-0.0344761
-0.0319113
-0.0290072
-0.0257413
-0.0221064
-0.0181304
-0.0138522
-0.00934755
-0.00468862
2.69927e-05
0.00470571
0.00925859
0.0135794
0.0176226
0.0212169
0.0243515
0.0268941
0.0290375
0.0302015
0.029595
0.0259808
0.0191196
0.0109927
0.00413145
0.000494461
-0.000516427
0.00154238
0.00426529
0.00768073
0.0108065
0.0144461
0.018828
0.0212516
0.0227443
0.0208005
0.0166285
-0.0013582
-0.0163207
-0.0168526
-0.013034
-0.00510024
-0.0499637
-0.052685
-0.0535037
-0.0529722
-0.0519749
-0.0510015
-0.0501308
-0.0492607
-0.0482905
-0.0471843
-0.0459572
-0.0446412
-0.0432608
-0.0418243
-0.0403258
-0.0387501
-0.0370732
-0.0352625
-0.0332814
-0.03109
-0.0286528
-0.0259373
-0.0229273
-0.0196158
-0.0160229
-0.0121758
-0.0081326
-0.00394907
0.000294518
0.00452144
0.00865195
0.0125932
0.0162912
0.019611
0.0225211
0.0248715
0.0267397
0.0276903
0.027194
0.0244567
0.0193462
0.0132226
0.0078362
0.00462018
0.00333865
0.00463181
0.00667868
0.00945122
0.0122319
0.0155375
0.0197424
0.0226799
0.0246086
0.0234552
0.0197866
0.00514527
-0.00887582
-0.0118204
-0.0095762
-0.00368298
-0.0438124
-0.0463215
-0.0472145
-0.0469338
-0.0462293
-0.045528
-0.0449049
-0.0442727
-0.043539
-0.0426653
-0.0416579
-0.0405405
-0.039333
-0.0380431
-0.0366659
-0.0351912
-0.0336033
-0.0318807
-0.0299985
-0.0279299
-0.0256514
-0.0231406
-0.0203868
-0.0173845
-0.0141492
-0.0107003
-0.00708332
-0.00334112
0.000459329
0.00425657
0.00797746
0.0115438
0.0148973
0.0179267
0.0205853
0.0227259
0.0243565
0.0251579
0.0247859
0.0227514
0.019012
0.0144813
0.0103589
0.00765006
0.00634659
0.0071213
0.00867226
0.0109332
0.0134098
0.0164123
0.0203287
0.023581
0.0257523
0.0250961
0.0216236
0.0101505
-0.00244542
-0.00725935
-0.00656476
-0.00246254
-0.0381286
-0.0404123
-0.0413299
-0.0412341
-0.0407577
-0.040271
-0.0398438
-0.0394021
-0.0388622
-0.0381854
-0.0373718
-0.036438
-0.0354002
-0.034266
-0.0330305
-0.0316853
-0.0302208
-0.028623
-0.0268755
-0.0249605
-0.0228629
-0.0205682
-0.0180699
-0.0153648
-0.0124655
-0.00938641
-0.00616422
-0.0028317
0.000554329
0.00394558
0.00727472
0.0104781
0.0134948
0.016231
0.0186308
0.0205657
0.0220037
0.0227151
0.0224835
0.021021
0.0183455
0.0150636
0.0120066
0.00979216
0.00861968
0.00906723
0.0102637
0.0121193
0.0143113
0.0170209
0.0205287
0.0238024
0.0258839
0.0254716
0.0220898
0.0134433
0.00267622
-0.00335546
-0.00403883
-0.00146966
-0.0328859
-0.0349445
-0.0358522
-0.035889
-0.0355882
-0.0352687
-0.0349948
-0.0347038
-0.0343212
-0.0338093
-0.0331643
-0.0323973
-0.0315208
-0.0305438
-0.0294584
-0.0282584
-0.0269377
-0.0254876
-0.0238977
-0.0221561
-0.0202536
-0.018181
-0.0159357
-0.0135161
-0.0109334
-0.00819878
-0.00534252
-0.00238983
0.000610648
0.00362097
0.00658008
0.00943661
0.0121284
0.0145813
0.0167325
0.018477
0.0197632
0.0204306
0.0203481
0.019348
0.0174837
0.0151607
0.0130708
0.0112296
0.010266
0.0105293
0.0114747
0.0130094
0.0149222
0.0173318
0.0203465
0.0233536
0.0251142
0.0247991
0.0215486
0.0151335
0.00631473
-0.000220496
-0.00199032
-0.000707031
-0.0280653
-0.0299043
-0.0307769
-0.0309058
-0.0307383
-0.030548
-0.0303926
-0.0302197
-0.0299636
-0.0295889
-0.0290895
-0.0284729
-0.0277497
-0.0269195
-0.0259836
-0.0249345
-0.0237674
-0.022477
-0.0210568
-0.019499
-0.0177981
-0.0159489
-0.0139512
-0.0118049
-0.00952041
-0.00710663
-0.00458923
-0.00198773
0.000655797
0.00331147
0.005925
0.00845561
0.010842
0.0130265
0.0149451
0.0165188
0.0176883
0.0183432
0.0184046
0.0177745
0.0165196
0.0148659
0.0130916
0.0120515
0.0113825
0.0115684
0.0123342
0.0136124
0.0152487
0.0173442
0.0198383
0.0223911
0.0237393
0.0234529
0.0204415
0.0155793
0.00854819
0.00213872
-0.000380189
-0.000147889
-0.0236443
-0.0252731
-0.0260947
-0.026285
-0.0262179
-0.0261262
-0.0260615
-0.0259799
-0.0258243
-0.0255622
-0.0251863
-0.0247006
-0.0241105
-0.0234207
-0.0226311
-0.0217338
-0.0207231
-0.019596
-0.0183491
-0.0169778
-0.0154787
-0.0138492
-0.0120908
-0.0102044
-0.00819968
-0.00608421
-0.00387983
-0.00160215
0.000712975
0.00304212
0.00533633
0.00756389
0.00966804
0.0116036
0.0133107
0.0147336
0.0158108
0.0164672
0.0166587
0.0163278
0.015544
0.0144417
0.0132689
0.0125185
0.0120827
0.0122454
0.0128795
0.0139468
0.0153153
0.0170844
0.0190768
0.0210923
0.0220439
0.0217519
0.0190669
0.0152103
0.00965437
0.00378914
0.000846078
0.000251964
-0.0196001
-0.0210323
-0.0217936
-0.0220225
-0.0220299
-0.0220128
-0.0220166
-0.0220047
-0.0219283
-0.0217579
-0.0214855
-0.0211136
-0.0206448
-0.0200822
-0.0194282
-0.0186757
-0.0178174
-0.0168506
-0.0157742
-0.0145857
-0.0132834
-0.0118658
-0.0103354
-0.00869397
-0.00695033
-0.00511103
-0.00319468
-0.00121386
0.000800784
0.00283073
0.0048333
0.00678279
0.00862825
0.0103381
0.0118626
0.0131453
0.0141438
0.0148055
0.015108
0.0150139
0.0145903
0.0139184
0.0131973
0.0126998
0.0124516
0.0126168
0.0131515
0.0140389
0.0151576
0.0166046
0.0181456
0.0196325
0.0202343
0.019912
0.0175873
0.0143848
0.00996969
0.00483892
0.00174462
0.000533037
-0.0159119
-0.0171626
-0.017859
-0.0181098
-0.0181717
-0.0182105
-0.0182654
-0.0183063
-0.0182915
-0.0181952
-0.0180093
-0.0177349
-0.0173742
-0.0169287
-0.0163962
-0.0157762
-0.0150612
-0.0142474
-0.0133339
-0.0123199
-0.0112048
-0.00998794
-0.00867195
-0.00725898
-0.00575702
-0.00417173
-0.00251901
-0.000809092
0.000932203
0.00268951
0.00442711
0.00612516
0.00773811
0.00924156
0.0105939
0.0117544
0.0126868
0.0133527
0.0137416
0.0138292
0.0136748
0.0133273
0.0129376
0.0126556
0.0125561
0.0127349
0.0131907
0.0139216
0.0148154
0.0159577
0.017065
0.0181552
0.0184492
0.0180728
0.0160923
0.0133447
0.00978472
0.00541673
0.0023613
0.000726419
-0.0125585
-0.0136439
-0.0142747
-0.0145354
-0.0146368
-0.0147169
-0.0148094
-0.0148896
-0.0149224
-0.0148855
-0.0147712
-0.0145795
-0.014312
-0.0139673
-0.0135444
-0.0130449
-0.0124626
-0.0117917
-0.0110308
-0.0101798
-0.00923935
-0.00820924
-0.007092
-0.00588975
-0.0046095
-0.00325626
-0.00184326
-0.000379123
0.00111464
0.00262603
0.00412465
0.005595
0.00700004
0.00831792
0.00951078
0.0105592
0.0114311
0.0120948
0.0125447
0.0127665
0.0128095
0.0126989
0.0125477
0.0124374
0.0124525
0.012647
0.0130374
0.0136322
0.0143288
0.0152028
0.01598
0.0167121
0.0167658
0.0163181
0.0146357
0.0122399
0.00931186
0.00564488
0.00275322
0.000853982
-0.00951977
-0.0104565
-0.0110235
-0.0112859
-0.0114155
-0.0115258
-0.0116455
-0.0117546
-0.0118238
-0.0118341
-0.0117786
-0.0116564
-0.0114684
-0.011214
-0.0108914
-0.0104964
-0.0100307
-0.00948884
-0.0088676
-0.00816633
-0.00738595
-0.00652682
-0.00559123
-0.00458105
-0.00350229
-0.0023592
-0.00116277
7.99343e-05
0.00135144
0.0026417
0.00392619
0.00519191
0.00640866
0.00756075
0.00861483
0.00955837
0.0103639
0.0110146
0.0115021
0.0118167
0.0119984
0.0120572
0.0120729
0.0120916
0.0121895
0.0123959
0.0127304
0.0132077
0.0137338
0.0143764
0.014885
0.0153334
0.0152133
0.0146934
0.0132523
0.0111572
0.00869536
0.0056259
0.00297171
0.000928646
-0.00677692
-0.00758133
-0.00808806
-0.00834679
-0.0084959
-0.00862804
-0.00876705
-0.00889688
-0.00899355
-0.00904105
-0.00903308
-0.00896864
-0.00884779
-0.00866981
-0.00843237
-0.0081332
-0.0077702
-0.00734266
-0.00684687
-0.00628088
-0.00564519
-0.0049404
-0.00416861
-0.00333148
-0.00243389
-0.00147942
-0.000476962
0.00056772
0.00164053
0.00273322
0.00382616
0.00490899
0.00595741
0.00695938
0.00788873