/*--------------------------------*- C++ -*----------------------------------*\
| =========                 |                                                 |
| \\      /  F ield         | OpenFOAM: The Open Source CFD Toolbox           |
|  \\    /   O peration     | Version:  2512                                  |
|   \\  /    A nd           | Website:  www.openfoam.com                      |
|    \\/     M anipulation  |                                                 |
\*---------------------------------------------------------------------------*/
FoamFile
{
    version     2.0;
    format      ascii;
    arch        "LSB;label=32;scalar=64";
    class       volVectorField;
    location    "175";
    object      U;
}
// * * * * * * * * * * * * * * * * * * * * * * * * * * * * * * * * * * * * * //

dimensions      [0 1 -1 0 0 0 0];

internalField   nonuniform List<vector> 
13248
(
(-0.0115662 0.0117946 9.13564e-20)
(-0.0162735 0.0225182 0)
(-0.00345674 0.0255395 -1.73343e-19)
(0.0247689 0.0227987 1.63286e-19)
(0.0670786 0.0161857 1.53622e-19)
(0.122558 0.0073491 0)
(0.190313 -0.00243176 0)
(0.269188 -0.012188 3.75809e-19)
(0.357533 -0.0211936 -1.91686e-21)
(0.453053 -0.0289246 -3.27982e-19)
(0.552818 -0.0350392 3.00885e-19)
(0.653418 -0.0393651 -1.88096e-19)
(0.751254 -0.0418849 0)
(0.842882 -0.0427131 -3.04883e-19)
(0.925345 -0.0420623 5.60827e-19)
(0.99644 -0.0402026 -1.33548e-19)
(1.05487 -0.0374187 -2.17967e-19)
(1.10029 -0.0339822 2.04636e-19)
(1.13322 -0.0300897 0)
(1.15484 -0.02601 0)
(1.16698 -0.0215023 0)
(1.17098 -0.017824 0)
(1.17036 -0.0120098 4.91788e-20)
(1.16249 -0.0125357 1.60264e-19)
(-0.00965455 0.00892444 -2.75745e-19)
(-0.00803238 0.0150981 1.8798e-19)
(0.0140975 0.0153737 -1.2649e-21)
(0.054521 0.0114477 -2.48902e-19)
(0.111701 0.00504016 -1.53455e-19)
(0.184275 -0.00229873 -1.45105e-19)
(0.27056 -0.00937857 -2.68582e-19)
(0.368241 -0.0153469 2.53027e-19)
(0.474201 -0.0196576 0)
(0.584546 -0.0220553 1.85434e-21)
(0.694856 -0.0225517 3.25131e-21)
(0.800605 -0.0213801 1.85949e-19)
(0.897654 -0.0189272 0)
(0.982684 -0.0156523 0)
(1.0535 -0.0120061 1.99767e-19)
(1.10917 -0.00836468 -3.75028e-19)
(1.14994 -0.00498789 2.11646e-19)
(1.17708 -0.00200501 -1.98713e-19)
(1.19258 0.000579217 -8.36962e-20)
(1.19879 0.00283142 -1.437e-19)
(1.19814 0.00499135 -5.46798e-20)
(1.19288 0.00681621 -1.00035e-19)
(1.18493 0.0100298 1.55195e-19)
(1.17438 0.00912537 4.2396e-20)
(-0.00676269 0.00598511 0)
(0.0038082 0.00738344 0)
(0.0382465 0.00497475 8.80822e-20)
(0.0939869 0.000283699 8.16055e-20)
(0.168974 -0.00510875 -1.44181e-21)
(0.260945 -0.00978178 -1.48167e-19)
(0.366834 -0.0127508 0)
(0.482544 -0.0134798 -1.25879e-19)
(0.603018 -0.0118573 1.1692e-19)
(0.722625 -0.00815301 -4.90158e-22)
(0.835777 -0.00292727 -1.98101e-19)
(0.937595 0.00309962 -1.78031e-19)
(1.02447 0.00919236 6.01982e-21)
(1.09439 0.0147277 -1.3884e-19)
(1.14697 0.0192799 3.39993e-19)
(1.18325 0.0226546 0)
(1.20536 0.0248741 -2.0539e-19)
(1.21604 0.0261244 1.00723e-19)
(1.21819 0.0266977 8.36249e-20)
(1.21451 0.0268849 0)
(1.20731 0.0270702 6.42385e-20)
(1.19823 0.0271389 -2.14627e-19)
(1.18857 0.0282896 2.01476e-19)
(1.17858 0.0264064 1.19312e-19)
(-0.00254495 0.00301544 -9.64971e-20)
(0.0201371 -0.000196871 -9.9495e-20)
(0.0702998 -0.00465128 9.06582e-20)
(0.144631 -0.00907852 0)
(0.240032 -0.0121175 0)
(0.352665 -0.0126157 -2.02437e-21)
(0.477377 -0.0100276 0)
(0.607788 -0.00442728 -3.78107e-19)
(0.736851 0.00358328 3.50194e-19)
(0.857725 0.0130339 -4.31585e-19)
(0.964696 0.0228036 9.84808e-20)
(1.05387 0.0318475 0)
(1.12348 0.0393758 1.5747e-19)
(1.17381 0.0449494 -2.8916e-19)
(1.20675 0.0484862 6.88874e-20)
(1.22527 0.0501961 1.67736e-19)
(1.23273 0.050475 -1.17151e-20)
(1.23239 0.049793 -1.84183e-19)
(1.22708 0.0486009 0)
(1.21894 0.0472639 0)
(1.20951 0.0460873 -6.11947e-20)
(1.19971 0.0450107 5.377e-20)
(1.1902 0.0449322 1.84371e-19)
(1.18065 0.042256 -1.73122e-19)
(0.00342759 5.90183e-05 -1.00554e-19)
(0.0418659 -0.00720736 -1.00594e-19)
(0.1113 -0.0125217 2.8331e-19)
(0.207146 -0.0151155 -1.72797e-19)
(0.324537 -0.0140716 1.62645e-19)
(0.457271 -0.00878649 2.96836e-19)
(0.597543 0.000505568 -2.09012e-19)
(0.736659 0.0128094 -2.52373e-19)
(0.866254 0.0266462 6.25573e-21)
(0.97955 0.0403997 3.23275e-19)
(1.07224 0.0526518 0)
(1.14277 0.0624235 8.66005e-20)
(1.19209 0.0692712 0)
(1.22294 0.0732467 -1.37399e-19)
(1.23905 0.0747621 1.92802e-19)
(1.24436 0.0744196 1.74168e-21)
(1.24241 0.0728549 -4.88185e-20)
(1.23604 0.0706278 8.92653e-20)
(1.2273 0.0681673 7.64029e-20)
(1.21755 0.0657617 -6.74271e-20)
(1.20761 0.0635865 6.11786e-20)
(1.19791 0.0616279 -5.37553e-20)
(1.18868 0.06035 0)
(1.17981 0.0571617 -4.03829e-20)
(0.0115856 -0.00275803 1.0054e-19)
(0.0697517 -0.0130713 1.04876e-19)
(0.161777 -0.0175628 -9.47641e-20)
(0.28117 -0.0163603 1.76445e-19)
(0.420474 -0.00937955 -1.66071e-19)
(0.570461 0.00301866 1.50319e-19)
(0.720595 0.0194499 -7.18739e-20)
(0.860613 0.0378198 1.89598e-19)
(0.982276 0.055877 -1.18515e-19)
(1.08055 0.0717157 2.07444e-19)
(1.15394 0.0841 -4.76439e-19)
(1.20396 0.0925584 1.73794e-19)
(1.23417 0.097278 -1.49788e-19)
(1.24906 0.098882 1.407e-19)
(1.25311 0.0981824 1.18724e-19)
(1.25015 0.09598 1.0217e-19)
(1.24309 0.0929427 -2.84026e-19)
(1.23394 0.0895597 1.7531e-19)
(1.22397 0.0861515 -7.64041e-20)
(1.2139 0.0829048 1.96173e-19)
(1.20413 0.0799135 -6.33884e-20)
(1.19482 0.0771816 -1.50533e-19)
(1.18605 0.074936 1.38341e-19)
(1.17768 0.071392 4.03701e-20)
(0.0222845 -0.00519113 0)
(0.104231 -0.0170103 5.96555e-22)
(0.221549 -0.0185746 1.95771e-19)
(0.365153 -0.0114396 -1.83905e-19)
(0.524272 0.0031128 -1.66163e-19)
(0.686446 0.0232912 3.0868e-19)
(0.839114 0.0463266 -1.43284e-19)
(0.971983 0.0691463 1.90306e-19)
(1.07876 0.0891603 -4.66149e-21)
(1.15762 0.104736 -1.07092e-19)
(1.21047 0.115304 2.31596e-19)
(1.24164 0.121165 -3.4019e-19)
(1.25641 0.123162 0)
(1.25988 0.122334 -6.55175e-20)
(1.25626 0.119669 -1.73034e-19)
(1.24864 0.115961 5.46673e-20)
(1.23908 0.111775 2.58597e-21)
(1.22881 0.107475 -1.15004e-19)
(1.21854 0.103274 8.86526e-21)
(1.20859 0.0992844 1.3219e-19)
(1.19913 0.0955528 -5.74908e-20)
(1.1902 0.0920978 -2.1477e-20)
(1.18178 0.0889554 6.74782e-20)
(1.17376 0.0850738 0)
(0.0357431 -0.00687962 0)
(0.145282 -0.0180644 5.29379e-20)
(0.289595 -0.0142946 -2.53431e-19)
(0.456389 0.000809245 9.23104e-20)
(0.631226 0.0239998 -8.68787e-20)
(0.798961 0.0517053 -7.89277e-20)
(0.946539 0.0798526 -1.39783e-19)
(1.06559 0.104872 6.9762e-20)
(1.15331 0.124482 6.08563e-20)
(1.2117 0.137861 0)
(1.24576 0.145376 1.36373e-19)
(1.26165 0.148096 -2.01418e-19)
(1.26523 0.147332 1.49933e-19)
(1.26127 0.144301 6.55512e-20)
(1.25318 0.139965 -5.28865e-20)
(1.24317 0.134999 -4.34665e-20)
(1.23253 0.129826 -4.01237e-20)
(1.22196 0.124694 1.21744e-19)
(1.21178 0.119735 0)
(1.20212 0.115014 5.96697e-20)
(1.19303 0.110558 4.91793e-20)
(1.18446 0.106378 -1.23142e-19)
(1.17636 0.102417 -8.25246e-20)
(1.16864 0.0982159 7.65567e-20)
(0.051996 -0.0073784 -5.60167e-20)
(0.192334 -0.0151881 -1.58408e-21)
(0.364038 -0.00355256 5.13238e-20)
(0.551245 0.0211602 1.42706e-19)
(0.736161 0.0532263 4.13018e-20)
(0.902343 0.0872545 -7.98367e-20)
(1.03828 0.118348 7.32399e-20)
(1.13926 0.143172 -6.43246e-20)
(1.20672 0.160377 1.1446e-19)
(1.24619 0.170274 4.86171e-20)
(1.26476 0.174162 -1.3754e-19)
(1.2693 0.17368 4.0477e-20)
(1.26537 0.170358 6.85071e-20)
(1.2569 0.16539 -3.37958e-20)
(1.24639 0.159603 0)
(1.23527 0.15351 4.95768e-20)
(1.22428 0.147406 8.31822e-20)
(1.21375 0.141447 1.36973e-20)
(1.2038 0.135714 -6.88769e-20)
(1.19447 0.130244 2.86181e-20)
(1.18571 0.125052 0)
(1.17747 0.120131 -2.21747e-20)
(1.16967 0.115406 -2.05593e-20)
(1.16221 0.110827 0)
(0.0708546 -0.00620701 0)
(0.24423 -0.0073869 2.92263e-20)
(0.442234 0.014543 5.40139e-20)
(0.645556 0.0498503 -1.44551e-19)
(0.834162 0.090108 4.64017e-20)
(0.992335 0.128504 0)
(1.11208 0.16012 6.98553e-20)
(1.19332 0.182611 -9.73736e-20)
(1.24164 0.19598 -5.6922e-20)
(1.26512 0.20171 2.58215e-20)
(1.27187 0.201841 -4.06354e-20)
(1.26854 0.198322 9.90368e-20)
(1.25988 0.192682 4.93514e-20)
(1.24886 0.185974 -3.44935e-20)
(1.23716 0.178843 -3.42695e-21)
(1.22563 0.171654 -9.31011e-20)
(1.21463 0.164598 4.23005e-20)
(1.2043 0.15777 -9.66281e-22)
(1.19466 0.151217 0)
(1.18567 0.14496 -2.86476e-20)
(1.17727 0.139005 0)
(1.16936 0.133324 6.40243e-20)
(1.16187 0.127882 -7.60294e-20)
(1.15467 0.12285 3.45359e-20)
(0.0918837 -0.00290134 -1.49396e-20)
(0.299254 0.00615181 -7.30374e-20)
(0.520986 0.0404576 8.27602e-20)
(0.735099 0.0865263 4.8779e-20)
(0.92116 0.133462 -2.34076e-20)
(1.06635 0.173856 3.91078e-20)
(1.16757 0.203693 -1.90723e-20)
(1.22955 0.222199 3.17151e-20)
(1.26119 0.230871 0)
(1.27205 0.232197 7.15676e-20)
(1.2703 0.228687 -2.9794e-21)
(1.26182 0.222356 -5.76749e-20)
(1.25037 0.214595 2.46604e-20)
(1.23803 0.206256 -2.77385e-20)
(1.22586 0.197809 -1.04908e-20)
(1.21429 0.189498 1.21674e-20)
(1.20348 0.181439 -9.37197e-21)
(1.19346 0.173687 -5.04647e-20)
(1.18418 0.166268 3.09334e-20)
(1.17557 0.159192 6.32024e-21)
(1.16754 0.152448 5.54387e-21)
(1.15999 0.146 4.86306e-21)
(1.15281 0.139883 0)
(1.14589 0.134292 0)
(0.114475 0.00294848 1.49499e-20)
(0.355369 0.0259686 -1.50052e-20)
(0.596996 0.0741541 -2.75073e-20)
(0.816167 0.130296 0)
(0.994297 0.181809 -1.15654e-20)
(1.1233 0.221784 -1.03172e-20)
(1.20556 0.247923 -1.77372e-20)
(1.2501 0.261335 0)
(1.26805 0.264909 0)
(1.26948 0.261868 0)
(1.26193 0.254922 0)
(1.25029 0.245979 0)
(1.23734 0.236215 -1.54741e-20)
(1.22446 0.226276 7.04494e-21)
(1.21225 0.216487 1.22235e-20)
(1.2009 0.206996 5.69856e-21)
(1.19043 0.19787 1.4092e-20)
(1.1808 0.189135 0)
(1.17196 0.180802 -3.36289e-21)
(1.1638 0.172871 -3.17297e-21)
(1.15621 0.165316 -5.55264e-21)
(1.14908 0.158108 -4.87078e-21)
(1.14231 0.151347 0)
(1.13575 0.145101 3.47969e-21)
(-0.000996707 -0.0189697 8.98377e-21)
(-0.00612343 -0.0549949 -9.3364e-21)
(-0.0165777 -0.0880412 -1.76886e-20)
(-0.0300029 -0.116849 0)
(-0.0450494 -0.141134 -2.36538e-20)
(-0.0609348 -0.16146 7.40406e-21)
(-0.0770167 -0.178849 -1.40698e-20)
(-0.0927745 -0.194406 0)
(-0.107821 -0.209057 0)
(-0.121881 -0.223402 0)
(-0.134764 -0.237699 0)
(-0.146329 -0.251909 0)
(-0.156459 -0.265767 1.23948e-23)
(-0.165041 -0.278847 -9.35416e-21)
(-0.171948 -0.290605 1.76945e-20)
(-0.177039 -0.300407 2.51098e-20)
(-0.180151 -0.307542 7.80968e-21)
(-0.181114 -0.311242 0)
(-0.179768 -0.31071 7.16105e-21)
(-0.175986 -0.305163 -1.98611e-20)
(-0.169642 -0.29389 -1.23644e-20)
(-0.160541 -0.276289 -1.16242e-20)
(-0.148672 -0.25182 0)
(-0.135252 -0.220393 0)
(-0.000728297 -0.0134114 -2.70588e-20)
(-0.00575795 -0.0420992 4.66807e-20)
(-0.017096 -0.0703728 -1.77153e-20)
(-0.0318506 -0.0961297 -3.36083e-20)
(-0.0483954 -0.118615 4.7424e-20)
(-0.0658251 -0.138096 -2.99885e-20)
(-0.0834279 -0.155372 4.22756e-20)
(-0.100659 -0.171373 2.68799e-20)
(-0.117145 -0.186882 0)
(-0.132649 -0.202397 -2.36844e-20)
(-0.147026 -0.21811 -1.50043e-22)
(-0.160188 -0.233953 2.0953e-20)
(-0.172069 -0.249663 2.99189e-20)
(-0.182608 -0.264835 3.75044e-20)
(-0.191732 -0.278964 -1.76463e-20)
(-0.199354 -0.291455 -4.97761e-20)
(-0.205368 -0.301638 1.53479e-20)
(-0.209657 -0.30877 -5.7871e-20)
(-0.212117 -0.312055 0)
(-0.212685 -0.310677 1.31262e-20)
(-0.211247 -0.303851 1.23526e-20)
(-0.207456 -0.290816 1.16131e-20)
(-0.201319 -0.270796 0)
(-0.195452 -0.243504 0)
(-0.00117228 -0.00689819 0)
(-0.00664381 -0.0271311 9.48435e-20)
(-0.0185609 -0.050082 -3.57588e-20)
(-0.0338632 -0.0725997 3.38074e-20)
(-0.0508338 -0.093299 -9.64209e-20)
(-0.0685319 -0.112026 0)
(-0.0862265 -0.129267 -5.74086e-20)
(-0.103371 -0.145722 2.71423e-20)
(-0.11961 -0.162013 -5.15217e-20)
(-0.13473 -0.178536 2.46623e-20)
(-0.148622 -0.195434 1.36507e-19)
(-0.161229 -0.212625 -6.40717e-20)
(-0.172523 -0.229862 -1.00047e-19)
(-0.182484 -0.246771 -3.74935e-20)
(-0.191088 -0.262887 3.82078e-22)
(-0.198306 -0.277661 1.31037e-19)
(-0.204094 -0.290466 -6.12725e-20)
(-0.2084 -0.300593 7.42139e-22)
(-0.211189 -0.307258 0)
(-0.212475 -0.30962 -4.68556e-20)
(-0.212191 -0.306801 0)
(-0.209836 -0.297896 -4.08557e-20)
(-0.205242 -0.282052 1.46601e-19)
(-0.202546 -0.259098 -1.62635e-21)
(-0.00234415 -7.73521e-05 0)
(-0.00876095 -0.0114085 6.45394e-22)
(-0.0208401 -0.0287638 3.67469e-20)
(-0.035774 -0.0479267 -3.48934e-20)
(-0.051965 -0.0668221 3.20452e-20)
(-0.0685304 -0.0848063 1.85608e-19)
(-0.0847675 -0.102 -5.81507e-20)
(-0.100147 -0.118838 -5.56195e-20)
(-0.114323 -0.135769 1.03978e-19)
(-0.127098 -0.15309 -1.46532e-19)
(-0.138371 -0.170897 4.63941e-20)
(-0.148104 -0.189101 4.36716e-20)
(-0.156289 -0.207469 0)
(-0.162937 -0.225654 3.77008e-20)
(-0.16807 -0.243227 0)
(-0.171715 -0.259681 6.53646e-20)
(-0.1739 -0.274441 -1.19022e-19)
(-0.174644 -0.286856 3.0821e-20)
(-0.173976 -0.296195 1.02185e-19)
(-0.171972 -0.301631 4.68155e-20)
(-0.168638 -0.302212 0)
(-0.163421 -0.296857 -1.09436e-19)
(-0.155549 -0.284598 3.60643e-20)
(-0.149665 -0.265364 0)
(-0.00412637 0.00637054 0)
(-0.0118779 0.00369703 -1.1711e-19)
(-0.0236397 -0.00805384 -3.77656e-20)
(-0.0372434 -0.0237919 -7.03934e-20)
(-0.0514063 -0.0408089 6.62888e-20)
(-0.065389 -0.0579676 -6.22565e-20)
(-0.0785593 -0.0750041 1.19152e-19)
(-0.090417 -0.0920764 5.60445e-20)
(-0.100623 -0.109451 -1.58276e-19)
(-0.108974 -0.127322 9.99131e-20)
(-0.115365 -0.145737 -1.40277e-19)
(-0.119754 -0.164594 3.09234e-19)
(-0.122148 -0.183665 -1.65097e-19)
(-0.122585 -0.202618 7.72418e-20)
(-0.121134 -0.22104 2.12111e-19)
(-0.117891 -0.238454 -6.82378e-20)
(-0.112979 -0.254329 -6.33761e-20)
(-0.106529 -0.268082 -5.64258e-20)
(-0.0986785 -0.279079 0)
(-0.0895784 -0.286603 -8.48219e-20)
(-0.0793877 -0.289773 -6.92619e-20)
(-0.0678937 -0.287467 1.07141e-19)
(-0.0536313 -0.278407 1.13232e-19)
(-0.0377147 -0.261821 -1.04187e-19)
(-0.0062846 0.0118401 0)
(-0.0155733 0.0169303 -1.60829e-19)
(-0.0265228 0.0105143 -1.39849e-21)
(-0.0378762 -0.00180199 1.43002e-19)
(-0.0488032 -0.0168356 0)
(-0.0587717 -0.0330181 0)
(-0.0672551 -0.0497248 0)
(-0.0737981 -0.0668313 -5.69698e-20)
(-0.0780602 -0.0844202 -3.11653e-22)
(-0.0798196 -0.102571 1.01934e-19)
(-0.078952 -0.121273 -1.42055e-19)
(-0.0754086 -0.140397 3.03232e-22)
(-0.0692032 -0.159703 0)
(-0.0604073 -0.17885 -7.72002e-20)
(-0.0491514 -0.197421 7.05658e-20)
(-0.0356252 -0.214932 -1.99391e-19)
(-0.0200749 -0.230863 2.37191e-19)
(-0.00279022 -0.244669 4.61754e-20)
(0.0159175 -0.255799 -1.0948e-20)
(0.0357498 -0.263696 -1.75224e-19)
(0.0563611 -0.267771 -7.26578e-20)
(0.0772275 -0.267335 2.14072e-19)
(0.0984949 -0.261009 -1.36223e-19)
(0.127997 -0.244129 0)
(-0.00851939 0.0158894 7.98297e-20)
(-0.0193167 0.0273013 8.07622e-20)
(-0.0289704 0.0256537 -7.82571e-20)
(-0.0372392 0.0166234 -1.46887e-19)
(-0.0438205 0.00363843 1.38316e-19)
(-0.0484305 -0.0114123 -1.31555e-19)
(-0.0506613 -0.0275881 1.86457e-19)
(-0.05011 -0.0445163 -5.705e-20)
(-0.0464521 -0.0620867 1.10453e-19)
(-0.0394431 -0.080253 0)
(-0.0289428 -0.0989295 9.84063e-20)
(-0.0149046 -0.117942 -1.85057e-19)
(0.00262617 -0.137019 1.69332e-19)
(0.0235111 -0.155792 -1.59042e-19)
(0.047514 -0.173814 0)
(0.0743 -0.190579 1.32572e-19)
(0.103445 -0.205545 2.34829e-19)
(0.13446 -0.21816 -2.20324e-19)
(0.166811 -0.227899 -9.48021e-20)
(0.199966 -0.234291 -7.69411e-20)
(0.233356 -0.236995 2.22362e-19)
(0.266719 -0.235684 5.23296e-20)
(0.298588 -0.229617 -5.55555e-20)
(0.343541 -0.212085 3.9869e-20)
(-0.0105251 0.0183001 -7.98403e-20)
(-0.0225459 0.034202 2.52174e-19)
(-0.0304378 0.0364532 -7.96914e-20)
(-0.0349024 0.0303679 1.50024e-19)
(-0.0361507 0.0193766 -1.41265e-19)
(-0.0341523 0.00555561 8.89151e-22)
(-0.0286565 -0.00992508 6.36232e-20)
(-0.0193206 -0.0264753 2.41642e-19)
(-0.00583565 -0.0437977 4.44545e-22)
(0.0120234 -0.0617181 -1.05251e-19)
(0.0343779 -0.0800584 0)
(0.0612216 -0.0985797 -9.27718e-20)
(0.0924074 -0.11696 1.73796e-19)
(0.12764 -0.134792 1.57938e-19)
(0.166475 -0.151596 -7.49151e-20)
(0.208322 -0.166845 1.87634e-22)
(0.252472 -0.179993 -6.00378e-20)
(0.298136 -0.190506 1.06793e-19)
(0.344494 -0.197904 9.47557e-20)
(0.390786 -0.201772 -8.25727e-20)
(0.436039 -0.201926 6.98618e-20)
(0.481127 -0.197696 -5.88581e-20)
(0.518776 -0.190901 0)
(0.5799 -0.172551 -3.97842e-20)
(-0.0120533 0.0190907 8.29116e-20)
(-0.0247531 0.0374528 -8.46207e-20)
(-0.0303903 0.0424559 8.16266e-20)
(-0.0303981 0.0387315 0)
(-0.0254213 0.0295034 0)
(-0.0156639 0.0168937 1.3887e-19)
(-0.00102821 0.00221464 -1.28552e-19)
(0.0187246 -0.0137642 1.22751e-19)
(0.043843 -0.0305917 -5.72869e-19)
(0.074484 -0.0479585 2.85257e-22)
(0.110662 -0.0655815 1.01139e-19)
(0.152206 -0.0831412 0)
(0.198732 -0.100255 -1.72789e-19)
(0.249628 -0.116476 3.20965e-19)
(0.304068 -0.131308 -2.22398e-19)
(0.361041 -0.144237 -3.27697e-19)
(0.419407 -0.15476 1.17734e-20)
(0.477976 -0.162425 2.18085e-19)
(0.535567 -0.166873 0)
(0.591246 -0.167781 0)
(0.643452 -0.165364 -6.98424e-20)
(0.694723 -0.15825 5.88421e-20)
(0.732743 -0.150781 -1.82384e-19)
(0.798178 -0.131066 1.71167e-19)
(-0.0129529 0.0184825 0)
(-0.0255364 0.0372878 0)
(-0.0283082 0.0437023 -2.46688e-19)
(-0.0231565 0.0415275 7.8143e-20)
(-0.0110372 0.0336465 -3.36763e-22)
(0.00765163 0.0221159 1.40165e-19)
(0.0328515 0.00831053 0)
(0.064664 -0.00688197 -1.2358e-19)
(0.103193 -0.0228752 1.1515e-19)
(0.148413 -0.0392315 -2.17356e-19)
(0.20008 -0.0555598 8.07219e-22)
(0.257665 -0.07146 1.87567e-19)
(0.320324 -0.0865011 -3.16152e-21)
(0.386902 -0.100226 1.54421e-19)
(0.455984 -0.112171 -2.24621e-19)
(0.525973 -0.1219 0)
(0.595205 -0.129034 2.31068e-19)
(0.662071 -0.133284 -3.22774e-19)
(0.725116 -0.134488 9.17204e-20)
(0.783307 -0.132492 0)
(0.835112 -0.12782 6.85809e-20)
(0.8831 -0.119018 2.21946e-19)
(0.916284 -0.111093 -2.08305e-19)
(0.970393 -0.09192 -1.96311e-19)
(-0.0131726 0.0168247 2.59314e-19)
(-0.0245933 0.0342616 -3.57049e-19)
(-0.0236404 0.0406983 1.76166e-22)
(-0.0123986 0.0391393 7.97457e-20)
(0.00799405 0.0320846 -1.49843e-19)
(0.0369878 0.0214603 -1.3941e-19)
(0.0743541 0.00863947 2.6405e-19)
(0.119985 -0.00542038 -1.03019e-21)
(0.173704 -0.0200278 -2.33269e-19)
(0.235102 -0.0346398 4.35373e-19)
(0.303414 -0.0487833 -1.93978e-21)
(0.377463 -0.0620157 -1.90026e-19)
(0.455655 -0.0739143 0)
(0.536047 -0.0840879 0)
(0.616479 -0.0921982 -7.29652e-20)
(0.694732 -0.0979847 -1.29836e-19)
(0.768715 -0.101283 -2.27769e-19)
(0.836623 -0.10204 2.13812e-19)
(0.897084 -0.100303 -9.17569e-20)
(0.949222 -0.0962077 1.52151e-19)
(0.992521 -0.0901539 -8.07358e-20)
(1.02827 -0.0815471 1.0028e-19)
(1.05174 -0.0738771 -2.58994e-19)
(1.08393 -0.0577108 4.12134e-20)
(-0.0127149 0.014491 8.77506e-20)
(-0.0216386 0.0290984 0)
(-0.0156935 0.0343106 1.70717e-19)
(0.00300759 0.0324967 -1.60817e-19)
(0.033237 0.0258085 1.49973e-19)
(0.0743069 0.0160205 0)
(0.125753 0.00446477 0)
(0.187102 -0.00787243 -1.24767e-19)
(0.257645 -0.0202427 1.2319e-21)
(0.336256 -0.0320557 1.09961e-19)
(0.421281 -0.0428316 -9.99245e-20)
(0.510541 -0.0521808 1.89382e-19)
(0.601435 -0.0598035 0)
(0.691128 -0.0654967 3.10434e-19)
(0.7768 -0.0691607 -5.7191e-19)
(0.855892 -0.0707988 3.93207e-19)
(0.926325 -0.0705049 2.23425e-19)
(0.98665 -0.0684594 -2.09747e-19)
(1.03615 -0.0648543 0)
(1.07471 -0.0600436 0)
(1.10313 -0.0540546 0)
(1.1222 -0.0474666 0)
(1.13323 -0.0406842 4.97884e-20)
(1.14346 -0.0296506 -1.64362e-19)
(-0.120061 -0.177276 -7.81522e-21)
(-0.0927431 -0.114167 7.84011e-21)
(-0.0617309 -0.0385529 -2.22411e-22)
(-0.0264635 0.0477936 0)
(0.0119191 0.141449 -6.81782e-21)
(0.0527507 0.238091 1.28821e-20)
(0.0949982 0.333479 -4.73088e-22)
(0.13645 0.420439 -5.45044e-21)
(0.174998 0.493331 0)
(0.207917 0.549504 0)
(0.232094 0.589257 -1.94304e-22)
(0.245506 0.615217 -1.69769e-22)
(0.250054 0.628641 -2.60715e-21)
(0.253675 0.624349 2.38427e-21)
(0.268686 0.589687 0)
(0.305308 0.511166 0)
(0.36453 0.384337 2.80791e-21)
(0.438512 0.217106 1.76797e-22)
(0.517355 0.0256548 -2.63537e-21)
(0.593756 -0.167251 -1.7583e-22)
(0.66102 -0.332806 0)
(0.7131 -0.448373 0)
(0.747204 -0.509645 0)
(0.763578 -0.52881 0)
(0.766705 -0.521968 0)
(0.761508 -0.504255 0)
(0.745277 -0.494656 2.9301e-22)
(0.711306 -0.502658 -4.65219e-22)
(0.664679 -0.50665 0)
(0.627315 -0.456676 0)
(0.620493 -0.32008 -6.00788e-22)
(0.646783 -0.11709 5.83901e-22)
(0.693264 0.0950667 2.72878e-22)
(0.742728 0.263323 0)
(0.785355 0.36794 0)
(0.816874 0.411642 2.84452e-22)
(0.834509 0.430064 -2.76501e-22)
(0.827026 0.447829 0)
(0.792422 0.471318 2.41701e-22)
(0.748422 0.448787 -3.65417e-22)
(0.721082 0.346481 1.53502e-22)
(0.723873 0.168144 0)
(0.751984 -0.0361565 -2.84217e-22)
(0.788851 -0.191937 2.76362e-22)
(0.828841 -0.30185 0)
(0.84043 -0.342989 0)
(0.821817 -0.392322 -6.68487e-23)
(0.776707 -0.382539 1.88058e-22)
(0.745814 -0.325656 0)
(0.746546 -0.188928 0)
(0.781872 5.85227e-05 -5.95033e-23)
(0.81027 0.114869 4.77033e-24)
(0.822883 0.284578 -5.91275e-24)
(0.798727 0.314076 3.73815e-23)
(0.788041 0.364975 0)
(0.787661 0.280441 0)
(0.805595 0.0852129 0)
(0.801355 0.0100338 0)
(0.811737 -0.28998 0)
(0.788988 -0.253279 0)
(-0.19316 -0.205125 -6.41814e-22)
(-0.17455 -0.147899 -2.71978e-20)
(-0.15153 -0.07764 5.54152e-22)
(-0.122621 0.00380875 2.50465e-20)
(-0.0885299 0.0939798 3.34248e-22)
(-0.0492203 0.189189 0)
(-0.00716972 0.28398 -1.90242e-20)
(0.0346592 0.374871 3.58672e-20)
(0.0759259 0.453183 -1.6845e-20)
(0.114524 0.517644 1.2962e-20)
(0.147875 0.567069 -1.24043e-20)
(0.175701 0.601087 1.01638e-20)
(0.201706 0.617101 -9.86231e-21)
(0.233738 0.607564 -2.97039e-22)
(0.280726 0.561364 -1.0544e-20)
(0.346822 0.470362 1.02461e-20)
(0.427634 0.3355 -1.23317e-20)
(0.514051 0.165996 1.15809e-20)
(0.59822 -0.0243586 -1.25008e-20)
(0.674699 -0.213085 2.32034e-20)
(0.736607 -0.370995 -1.07502e-20)
(0.778357 -0.475708 -5.17562e-22)
(0.799666 -0.524916 -5.6078e-21)
(0.803409 -0.533696 9.79529e-21)
(0.794927 -0.519971 -4.22321e-21)
(0.780253 -0.496889 1.94815e-22)
(0.758433 -0.479916 2.96247e-21)
(0.721299 -0.480127 2.47327e-22)
(0.669514 -0.482955 -6.1435e-21)
(0.622117 -0.442998 6.97909e-21)
(0.60339 -0.323174 -3.6838e-21)
(0.620678 -0.134725 4.9978e-22)
(0.663213 0.0702671 -2.73441e-22)
(0.713964 0.239203 4.16647e-22)
(0.762089 0.348838 0)
(0.801632 0.399468 0)
(0.825726 0.42703 -9.7233e-22)
(0.823066 0.45496 7.14451e-22)
(0.792676 0.48512 7.89633e-22)
(0.75552 0.461944 3.29912e-22)
(0.735233 0.352256 -1.32139e-21)
(0.74299 0.165079 3.6536e-22)
(0.772063 -0.0458078 0)
(0.805107 -0.203629 0)
(0.841282 -0.309684 0)
(0.849117 -0.342058 0)
(0.830109 -0.383275 2.68813e-22)
(0.781936 -0.371944 -1.23155e-22)
(0.749318 -0.32151 0)
(0.747196 -0.19364 0)
(0.780047 -0.00853754 0)
(0.807478 0.109628 -8.80282e-23)
(0.81735 0.285607 1.40618e-23)
(0.795468 0.317643 -8.17359e-23)
(0.783868 0.366061 0)
(0.786997 0.278816 0)
(0.808683 0.0832407 7.0092e-23)
(0.806052 0.00967712 2.17176e-22)
(0.818779 -0.288413 0)
(0.79327 -0.2519 0)
(-0.210075 -0.22627 -7.69613e-22)
(-0.204021 -0.176806 -4.63359e-20)
(-0.1922 -0.113352 4.34367e-20)
(-0.173479 -0.0384044 -4.07269e-20)
(-0.147535 0.0462659 -3.36602e-22)
(-0.115105 0.138151 0)
(-0.0758775 0.23114 -3.15363e-20)
(-0.0352091 0.323513 3.078e-20)
(0.00603338 0.405541 2.25588e-22)
(0.0502637 0.476036 3.20827e-22)
(0.0944014 0.53177 2.92083e-22)
(0.139166 0.569851 3.14749e-22)
(0.188181 0.585305 -1.89909e-20)
(0.247143 0.570165 1.87537e-20)
(0.320763 0.515935 0)
(0.408414 0.419002 7.14997e-22)
(0.503137 0.283417 -2.61326e-20)
(0.596341 0.117511 2.57935e-20)
(0.682582 -0.0670912 0)
(0.757291 -0.24869 0)
(0.812696 -0.397483 -2.00142e-20)
(0.843461 -0.491748 3.5048e-20)
(0.851762 -0.530975 -2.63436e-20)
(0.84338 -0.531897 2.71276e-21)
(0.824383 -0.513516 1.53527e-20)
(0.800965 -0.487204 -1.28581e-20)
(0.774038 -0.464418 1.06849e-20)
(0.735035 -0.456914 -2.15893e-22)
(0.680139 -0.457574 -5.09568e-21)
(0.624204 -0.427171 0)
(0.593485 -0.325225 0)
(0.600579 -0.153285 2.77792e-21)
(0.637823 0.0431374 -3.60087e-21)
(0.688814 0.211658 -5.3072e-23)
(0.741645 0.325956 2.39024e-21)
(0.788471 0.38404 -2.32287e-21)
(0.818597 0.421522 0)
(0.821011 0.460002 2.31657e-22)
(0.795579 0.497014 2.4111e-21)
(0.765569 0.473867 -5.27299e-21)
(0.752318 0.358105 2.50233e-21)
(0.7649 0.16356 4.16116e-22)
(0.794929 -0.0527841 -3.40298e-21)
(0.823919 -0.212618 2.58998e-21)
(0.855715 -0.31579 4.65475e-22)
(0.859547 -0.340338 3.44781e-22)
(0.840264 -0.373799 -2.69484e-22)
(0.789373 -0.36122 0)
(0.755197 -0.317413 0)
(0.750087 -0.198722 -7.84969e-22)
(0.78014 -0.0172933 3.91749e-22)
(0.806458 0.104169 -3.3752e-22)
(0.813509 0.286359 4.97246e-22)
(0.793615 0.321067 6.33932e-22)
(0.780801 0.366887 -1.5573e-22)
(0.787501 0.276858 3.21497e-22)
(0.813083 0.0808671 -3.12089e-22)
(0.812064 0.00918232 1.7686e-22)
(0.826906 -0.286627 0)
(0.798467 -0.25037 0)
(-0.162113 -0.236992 -7.9259e-20)
(-0.170134 -0.196197 4.65754e-21)
(-0.170256 -0.140553 7.04132e-20)
(-0.164491 -0.0735227 -5.72655e-22)
(-0.149742 0.00392363 0)
(-0.126888 0.0893624 0)
(-0.0951416 0.179773 -4.72664e-20)
(-0.0586016 0.268068 2.53199e-21)
(-0.018629 0.350403 6.11687e-20)
(0.0294807 0.42347 -1.34856e-21)
(0.0830464 0.482112 -1.76197e-20)
(0.142737 0.521534 -1.6435e-20)
(0.210861 0.535528 1.6424e-20)
(0.29035 0.516703 0)
(0.382236 0.459189 -2.2207e-20)
(0.482816 0.362659 2.01338e-20)
(0.584288 0.232362 0)
(0.679911 0.0743925 0)
(0.766495 -0.10194 2.66813e-20)
(0.838821 -0.275162 -2.05068e-21)
(0.887506 -0.414391 -2.25132e-20)
(0.907348 -0.498746 -1.60849e-20)
(0.902908 -0.529632 1.59314e-20)
(0.883002 -0.524663 -9.23024e-21)
(0.854642 -0.503202 1.98941e-21)
(0.823343 -0.475515 6.71853e-21)
(0.791458 -0.448942 6.33362e-22)
(0.751466 -0.434046 3.2713e-23)
(0.695847 -0.430674 0)
(0.633721 -0.408085 5.41054e-21)
(0.591396 -0.324533 -5.57777e-21)
(0.58708 -0.171209 4.28505e-22)
(0.617523 0.0146122 0)
(0.667552 0.181224 -3.68219e-22)
(0.724068 0.299644 4.29455e-21)
(0.777261 0.365468 -7.53182e-21)
(0.812957 0.413277 -4.18131e-22)
(0.820659 0.462413 -3.06282e-22)
(0.800728 0.506473 3.2817e-21)
(0.777961 0.484389 5.93648e-22)
(0.771624 0.364235 -6.2586e-21)
(0.788864 0.163815 5.29448e-21)
(0.820039 -0.056974 -3.8756e-23)
(0.844989 -0.218912 2.25149e-21)
(0.871983 -0.320274 -2.65576e-21)
(0.871543 -0.338068 -2.28795e-21)
(0.851974 -0.364078 6.85856e-22)
(0.79869 -0.350303 8.21393e-22)
(0.763079 -0.313144 -1.55237e-21)
(0.754897 -0.203985 1.11623e-21)
(0.78195 -0.026162 -3.49828e-22)
(0.807133 0.0984467 3.46312e-22)
(0.811356 0.286828 2.93548e-22)
(0.793222 0.324407 -9.39752e-22)
(0.778959 0.367498 -8.0093e-24)
(0.789259 0.274594 -3.6868e-22)
(0.818788 0.0780871 0)
(0.819381 0.00855782 -1.68129e-22)
(0.836085 -0.284607 3.6372e-22)
(0.804539 -0.24867 0)
(-0.0512397 -0.236102 6.61158e-20)
(-0.0728586 -0.203691 -1.22786e-19)
(-0.0841091 -0.15643 5.62718e-20)
(-0.0908179 -0.0978403 4.56939e-20)
(-0.0890255 -0.0286903 -8.50726e-20)
(-0.0771518 0.047653 3.8466e-21)
(-0.0552578 0.130509 3.49622e-20)
(-0.026913 0.211106 3.00527e-20)
(0.00978426 0.290481 -2.94776e-20)
(0.0586061 0.362596 0)
(0.117164 0.421183 -2.7182e-20)
(0.185952 0.460292 5.54567e-20)
(0.26575 0.473253 -2.83073e-20)
(0.357045 0.453523 0)
(0.458212 0.397248 0)
(0.563786 0.30606 7.28272e-22)
(0.666286 0.185042 -5.38152e-20)
(0.761448 0.0376127 5.22689e-20)
(0.847605 -0.128968 0)
(0.91741 -0.292489 4.95899e-20)
(0.959086 -0.421273 -8.66043e-20)
(0.968099 -0.4961 7.01745e-20)
(0.951612 -0.520521 -5.50706e-20)
(0.921181 -0.512104 5.22026e-21)
(0.88488 -0.489347 3.14712e-20)
(0.847038 -0.461848 -1.36127e-20)
(0.810557 -0.433737 -3.0904e-22)
(0.769958 -0.41282 -3.79214e-21)
(0.715588 -0.404032 -9.66291e-23)
(0.650191 -0.386503 3.93006e-21)
(0.59749 -0.320479 3.2423e-22)
(0.580778 -0.187453 -5.20645e-21)
(0.602777 -0.0142629 1.0022e-20)
(0.650409 0.148415 -5.34643e-21)
(0.709325 0.270157 0)
(0.767775 0.343673 -3.9559e-21)
(0.80853 0.40188 3.8317e-21)
(0.821664 0.461645 -3.42732e-21)
(0.807647 0.513135 4.25625e-21)
(0.79206 0.493467 -6.26511e-22)
(0.792393 0.370687 0)
(0.814151 0.166061 -8.60849e-22)
(0.846765 -0.0583343 2.4193e-21)
(0.867928 -0.222372 0)
(0.889826 -0.322964 4.44975e-21)
(0.884918 -0.335224 -1.93524e-21)
(0.864996 -0.354172 5.23573e-22)
(0.809585 -0.339218 3.84927e-22)
(0.772576 -0.308625 0)
(0.761272 -0.209304 0)
(0.785228 -0.0351323 -8.81057e-22)
(0.809376 0.092396 1.36948e-21)
(0.810856 0.286984 -8.12764e-22)
(0.794342 0.327699 2.54264e-22)
(0.778466 0.36794 6.24768e-22)
(0.792332 0.272026 3.69034e-22)
(0.825777 0.0749259 -7.50986e-22)
(0.827988 0.00781331 0)
(0.846264 -0.282306 -5.44228e-22)
(0.811442 -0.246771 -8.81241e-23)
(0.114763 -0.223425 5.67149e-20)
(0.081265 -0.196898 -5.61756e-20)
(0.0595059 -0.16001 3.79461e-22)
(0.0412079 -0.112522 -2.46383e-22)
(0.0292626 -0.0546575 2.85677e-22)
(0.0277827 0.0119238 -2.44687e-22)
(0.0381073 0.0843685 2.7075e-22)
(0.0578808 0.157574 0)
(0.0893152 0.231551 -2.26396e-22)
(0.134096 0.299437 2.32723e-22)
(0.191816 0.355368 2.60298e-22)
(0.262463 0.392936 -3.90481e-22)
(0.345628 0.405504 0)
(0.440089 0.38724 0)
(0.542591 0.33545 5.77491e-22)
(0.646934 0.252542 0)
(0.746727 0.142546 -7.63023e-22)
(0.840137 0.00648871 0)
(0.925469 -0.149212 -5.1217e-20)
(0.991984 -0.301466 9.71951e-20)
(1.0259 -0.418974 -8.44105e-20)
(1.02425 -0.484951 3.84995e-20)
(0.996884 -0.504783 2.3771e-20)
(0.957328 -0.495178 -2.30854e-20)
(0.914512 -0.47272 -1.39374e-20)
(0.87155 -0.446451 1.34386e-20)
(0.830938 -0.418665 0)
(0.789709 -0.393708 2.21299e-22)
(0.738007 -0.378906 0)
(0.672473 -0.363259 0)
(0.611732 -0.312579 7.41373e-21)
(0.582407 -0.200787 -7.58777e-21)
(0.594115 -0.042907 4.57616e-22)
(0.637492 0.113789 5.30755e-22)
(0.697311 0.237771 -3.75376e-22)
(0.759735 0.318597 -3.12424e-21)
(0.805004 0.386984 3.03361e-21)
(0.823617 0.457216 -4.19753e-21)
(0.815754 0.516678 3.6515e-21)
(0.807168 0.501026 1.26276e-21)
(0.813878 0.377487 -6.76508e-21)
(0.840008 0.170298 -1.29821e-21)
(0.874436 -0.0569149 5.11526e-21)
(0.892303 -0.222943 0)
(0.90894 -0.323773 -2.04313e-21)
(0.89944 -0.331844 1.77021e-21)
(0.879059 -0.344156 -2.41247e-21)
(0.821761 -0.32794 -3.87363e-22)
(0.783305 -0.303728 0)
(0.768836 -0.21457 2.70868e-22)
(0.789676 -0.0442314 -5.0056e-22)
(0.813013 0.0859262 -4.09639e-23)