/*--------------------------------*- C++ -*----------------------------------*\
| =========                 |                                                 |
| \\      /  F ield         | OpenFOAM: The Open Source CFD Toolbox           |
|  \\    /   O peration     | Version:  2512                                  |
|   \\  /    A nd           | Website:  www.openfoam.com                      |
|    \\/     M anipulation  |                                                 |
\*---------------------------------------------------------------------------*/
FoamFile
{
    version     2.0;
    format      ascii;
    arch        "LSB;label=32;scalar=64";
    class       volVectorField;
    location    "197.5";
    object      U;
}
// * * * * * * * * * * * * * * * * * * * * * * * * * * * * * * * * * * * * * //

dimensions      [0 1 -1 0 0 0 0];

internalField   nonuniform List<vector> 
13248
(
(-0.0108156 0.0103574 7.83222e-20)
(-0.0160644 0.0182944 0)
(-0.00698237 0.0185916 -1.48949e-19)
(0.0149865 0.0140621 1.40312e-19)
(0.0491511 0.00685797 1.31967e-19)
(0.0951223 -0.00140453 0)
(0.152492 -0.00955679 0)
(0.22059 -0.0167556 3.18323e-19)
(0.298285 -0.0223926 -3.07763e-21)
(0.383873 -0.0260487 -2.75191e-19)
(0.475076 -0.027479 2.48935e-19)
(0.569155 -0.0266102 -1.55228e-19)
(0.663113 -0.0235365 0)
(0.753952 -0.0185041 -2.45444e-19)
(0.838935 -0.0118817 4.50118e-19)
(0.915804 -0.0041191 -1.06334e-19)
(0.982936 0.00430056 -1.73233e-19)
(1.03941 0.0128978 1.62628e-19)
(1.08501 0.0212744 0)
(1.12014 0.0289833 0)
(1.14582 0.0360716 0)
(1.16291 0.0414533 0)
(1.17419 0.0471644 4.10413e-20)
(1.17821 0.0482004 1.39033e-19)
(-0.00981901 0.00863249 -2.36605e-19)
(-0.0101238 0.0141027 1.61633e-19)
(0.00751245 0.0134069 -1.02997e-21)
(0.0412789 0.00892116 -2.14139e-19)
(0.0901046 0.00263024 -1.3182e-19)
(0.153107 -0.00387252 -1.24501e-19)
(0.229145 -0.00942346 -2.29027e-19)
(0.316539 -0.0132179 2.16011e-19)
(0.412888 -0.0147576 0)
(0.515066 -0.0138284 2.16308e-21)
(0.619387 -0.0104832 4.42204e-21)
(0.721928 -0.0050108 1.54564e-19)
(0.81891 0.00211718 0)
(0.907074 0.0103171 0)
(0.983972 0.0189721 1.61801e-19)
(1.04813 0.0275064 -3.03559e-19)
(1.09908 0.0354434 1.71224e-19)
(1.13729 0.0424394 -1.60754e-19)
(1.16396 0.0483035 -6.83187e-20)
(1.18084 0.0529456 -1.17374e-19)
(1.18985 0.0565204 -4.59849e-20)
(1.19323 0.0587284 -8.43682e-20)
(1.19247 0.0610762 1.2912e-19)
(1.18918 0.0594566 3.61036e-20)
(-0.00767013 0.00637504 0)
(-0.000433249 0.00849396 0)
(0.0284774 0.00640269 7.57853e-20)
(0.0768112 0.00208686 7.01291e-20)
(0.14294 -0.00265561 -1.44255e-21)
(0.225145 -0.00632524 -1.27405e-19)
(0.321066 -0.0078969 0)
(0.427442 -0.00680089 -1.07188e-19)
(0.540105 -0.00289067 9.93342e-20)
(0.65423 0.00359326 -1.45903e-23)
(0.764813 0.0120937 -1.66211e-19)
(0.867229 0.0218458 -1.48212e-19)
(0.957751 0.0320086 5.64636e-21)
(1.03389 0.0417929 -1.14075e-19)
(1.09456 0.0505629 2.80104e-19)
(1.13996 0.0578975 0)
(1.17144 0.0636058 -1.68552e-19)
(1.19106 0.0677012 8.22506e-20)
(1.20132 0.0703613 6.82584e-20)
(1.20474 0.0718188 0)
(1.20366 0.0724577 5.29537e-20)
(1.19991 0.0722233 -1.79933e-19)
(1.19482 0.0722789 1.68907e-19)
(1.18983 0.0695805 1.02803e-19)
(-0.00413374 0.00379808 -8.32329e-20)
(0.0137491 0.00218919 -8.58838e-20)
(0.0571231 -0.00113696 7.81169e-20)
(0.123058 -0.0046122 0)
(0.208988 -0.0067004 0)
(0.311807 -0.00614129 -1.84462e-21)
(0.427292 -0.00228031 0)
(0.550062 0.00492461 -3.22641e-19)
(0.673951 0.0149766 2.98111e-19)
(0.792694 0.0269677 -3.66101e-19)
(0.900718 0.0397673 8.28668e-20)
(0.993828 0.0522342 0)
(1.06961 0.0634048 1.31625e-19)
(1.12747 0.0726183 -2.41334e-19)
(1.16847 0.0795633 5.72716e-20)
(1.19481 0.0842513 1.39011e-19)
(1.20941 0.0869388 -9.82336e-21)
(1.21531 0.088024 -1.53452e-19)
(1.21534 0.0879471 0)
(1.21183 0.0871019 0)
(1.20649 0.0858521 -5.12088e-20)
(1.20045 0.0841929 4.51732e-20)
(1.19442 0.0830365 1.56183e-19)
(1.18863 0.0795153 -1.46631e-19)
(0.00111912 0.001077 -8.70366e-20)
(0.0332248 -0.00410503 -8.69128e-20)
(0.0945047 -0.00789313 2.44702e-19)
(0.180941 -0.00928836 -1.48917e-19)
(0.28843 -0.00720182 1.40172e-19)
(0.411764 -0.000875231 2.55017e-19)
(0.544247 0.00963759 -1.79512e-19)
(0.678163 0.0235184 -2.1596e-19)
(0.80574 0.039409 5.91356e-21)
(0.92026 0.0557148 2.75166e-19)
(1.01696 0.0709262 0)
(1.09347 0.0838791 7.34102e-20)
(1.14979 0.0938985 0)
(1.18779 0.100812 -1.15372e-19)
(1.21057 0.104857 1.61611e-19)
(1.22173 0.106535 1.13949e-21)
(1.22475 0.106453 -4.09189e-20)
(1.2226 0.105193 7.43089e-20)
(1.21754 0.103231 6.39914e-20)
(1.21111 0.100909 -5.65173e-20)
(1.20426 0.0984499 5.1196e-20)
(1.19752 0.0958651 -4.51616e-20)
(1.19109 0.0936632 0)
(1.18521 0.0896611 -3.42287e-20)
(0.0084634 -0.00159409 8.70242e-20)
(0.0587205 -0.00963139 9.08971e-20)
(0.141272 -0.012513 -8.18719e-20)
(0.250453 -0.0101147 1.52266e-19)
(0.379869 -0.00213144 -1.43316e-19)
(0.521515 0.0112989 1.29328e-19)
(0.665967 0.029028 -6.19471e-20)
(0.803637 0.0491403 1.62348e-19)
(0.926322 0.0694388 -1.01584e-19)
(1.02843 0.087929 1.76996e-19)
(1.1075 0.103177 -4.06143e-19)
(1.16403 0.114469 1.48235e-19)
(1.2007 0.121774 -1.26802e-19)
(1.22143 0.125564 1.19106e-19)
(1.23046 0.126585 1.00039e-19)
(1.23165 0.125642 8.57858e-20)
(1.22808 0.123447 -2.38874e-19)
(1.22197 0.120546 1.47268e-19)
(1.21476 0.117308 -6.39929e-20)
(1.2073 0.113955 1.64662e-19)
(1.20003 0.110602 -5.3215e-20)
(1.19316 0.107262 -1.26801e-19)
(1.18674 0.104198 1.16599e-19)
(1.1808 0.09986 3.42179e-20)
(0.0182486 -0.00395496 0)
(0.0907212 -0.0135275 5.58221e-22)
(0.197435 -0.01362 1.69556e-19)
(0.330422 -0.005444 -1.59237e-19)
(0.480251 0.0100312 -1.43482e-19)
(0.635755 0.0313066 2.66375e-19)
(0.785221 0.0558524 -1.23565e-19)
(0.918468 0.0806929 1.63595e-19)
(1.0286 0.103157 -4.18559e-21)
(1.11273 0.1214 -9.19109e-20)
(1.17166 0.13459 1.977e-19)
(1.2088 0.14281 -2.90418e-19)
(1.22887 0.146765 0)
(1.23679 0.147455 -5.56796e-20)
(1.2368 0.145892 -1.46452e-19)
(1.23221 0.142931 4.63703e-20)
(1.22527 0.1392 2.1961e-21)
(1.21738 0.135114 -9.67147e-20)
(1.20936 0.130915 7.55267e-21)
(1.2016 0.126732 1.11148e-19)
(1.19427 0.122623 -4.8322e-20)
(1.18744 0.118607 -1.81087e-20)
(1.18104 0.114757 5.66933e-20)
(1.17507 0.110138 0)
(0.0307232 -0.00565715 0)
(0.12931 -0.0148136 4.59088e-20)
(0.262192 -0.00985631 -2.20191e-19)
(0.418458 0.00607262 8.00228e-20)
(0.585167 0.0301471 -7.53147e-20)
(0.748286 0.0591184 -6.84119e-20)
(0.895086 0.0890741 -1.2075e-19)
(1.01665 0.116389 6.04686e-20)
(1.10907 0.138552 5.24614e-20)
(1.17311 0.154457 0)
(1.21279 0.16423 1.16858e-19)
(1.23365 0.168802 -1.72432e-19)
(1.24136 0.169451 1.28139e-19)
(1.24074 0.167436 5.57081e-20)
(1.23539 0.163794 -4.48185e-20)
(1.22773 0.159266 -3.65818e-20)
(1.21921 0.154333 -3.36832e-20)
(1.21064 0.149275 1.02645e-19)
(1.20239 0.144239 0)
(1.19464 0.139298 5.01059e-20)
(1.18741 0.13448 4.12318e-20)
(1.18067 0.129798 -1.03351e-19)
(1.17436 0.125218 -6.93131e-20)
(1.1684 0.120331 6.42134e-20)
(0.0459709 -0.00627342 -4.90013e-20)
(0.174049 -0.0124437 -1.54705e-21)
(0.333869 9.57735e-06 4.46541e-20)
(0.511134 0.0253462 1.24196e-19)
(0.689486 0.0583462 3.58771e-20)
(0.853162 0.0938947 -6.94241e-20)
(0.990319 0.127098 6.35491e-20)
(1.09514 0.154393 -5.56144e-20)
(1.16776 0.174107 9.89215e-20)
(1.21254 0.186266 4.17758e-20)
(1.2359 0.192008 -1.18431e-19)
(1.24443 0.192932 3.46733e-20)
(1.24369 0.190613 5.84671e-20)
(1.23781 0.186328 -2.88874e-20)
(1.22949 0.180986 0)
(1.22032 0.175161 4.19675e-20)
(1.21114 0.169186 7.01349e-20)
(1.20237 0.163236 1.135e-20)
(1.19415 0.157399 -5.7925e-20)
(1.18651 0.151711 2.39367e-20)
(1.17941 0.146191 0)
(1.1728 0.14083 -1.84661e-20)
(1.16658 0.135569 -1.71992e-20)
(1.16066 0.130372 0)
(0.0638585 -0.00533392 0)
(0.223915 -0.00541217 2.56082e-20)
(0.409981 0.0169336 4.72725e-20)
(0.604352 0.0527306 -1.26092e-19)
(0.788126 0.0940676 4.05817e-20)
(0.945652 0.134271 0)
(1.06799 0.16823 6.07225e-20)
(1.15368 0.193237 -8.46488e-20)
(1.20699 0.208949 -4.92603e-20)
(1.23513 0.216629 2.22565e-20)
(1.24581 0.218247 -3.49063e-20)
(1.24564 0.21579 8.51274e-20)
(1.23951 0.210876 4.21089e-20)
(1.23059 0.204649 -2.95787e-20)
(1.22074 0.197829 -3.07468e-21)
(1.21091 0.190824 -7.87516e-20)
(1.20154 0.18385 3.57144e-20)
(1.1928 0.177011 -8.6242e-22)
(1.18472 0.170356 0)
(1.17726 0.163906 -2.39615e-20)
(1.17036 0.157665 0)
(1.16391 0.151607 5.31667e-20)
(1.15783 0.145706 -6.29716e-20)
(1.15199 0.140126 2.85654e-20)
(0.084005 -0.00237367 -1.31918e-20)
(0.277303 0.00712714 -6.40944e-20)
(0.48742 0.0414617 7.27145e-20)
(0.693826 0.0879768 4.27205e-20)
(0.876715 0.136204 -2.04788e-20)
(1.02269 0.178666 3.41542e-20)
(1.12728 0.210973 -1.6652e-20)
(1.19376 0.231926 2.75751e-20)
(1.22991 0.24271 0)
(1.2447 0.245684 6.18218e-20)
(1.24614 0.243366 -2.71251e-21)
(1.24021 0.237857 -4.95688e-20)
(1.23084 0.230652 2.1071e-20)
(1.2203 0.222687 -2.35516e-20)
(1.20975 0.214489 -8.77375e-21)
(1.19973 0.206331 1.03274e-20)
(1.19042 0.198344 -7.84854e-21)
(1.18185 0.190586 -4.21788e-20)
(1.17399 0.183085 2.58168e-20)
(1.16678 0.17585 5.21942e-21)
(1.16011 0.16887 4.55779e-21)
(1.15388 0.162112 3.98058e-21)
(1.14798 0.155611 0)
(1.14226 0.149547 0)
(0.105847 0.00302886 1.32009e-20)
(0.332252 0.0257688 -1.32161e-20)
(0.562894 0.073646 -2.4182e-20)
(0.775696 0.130275 0)
(0.952078 0.183309 -1.01313e-20)
(1.08283 0.225542 -9.05317e-21)
(1.16876 0.254173 -1.54943e-20)
(1.21752 0.269885 0)
(1.23939 0.275328 0)
(1.24408 0.273679 0)
(1.23914 0.267711 0)
(1.22962 0.25944 0)
(1.21845 0.250142 -1.31861e-20)
(1.20717 0.240531 5.99228e-21)
(1.19644 0.230973 1.03351e-20)
(1.18651 0.221635 4.81595e-21)
(1.17742 0.212592 1.18007e-20)
(1.16914 0.203873 0)
(1.16161 0.19549 -2.77175e-21)
(1.15473 0.187441 -2.62544e-21)
(1.14838 0.179702 -4.56503e-21)
(1.14246 0.172247 -3.98693e-21)
(1.13684 0.165177 0)
(1.13138 0.158525 2.79615e-21)
(0.000288157 -0.0438777 9.14357e-21)
(-0.00251685 -0.107923 -9.48822e-21)
(-0.0106902 -0.154025 -1.79556e-20)
(-0.0222933 -0.185588 0)
(-0.0359653 -0.205972 -2.40955e-20)
(-0.0507931 -0.218371 7.61388e-21)
(-0.0660439 -0.225492 -1.4274e-20)
(-0.0811667 -0.229352 0)
(-0.0957877 -0.231241 0)
(-0.109669 -0.231797 0)
(-0.122658 -0.231152 0)
(-0.134649 -0.229092 0)
(-0.145546 -0.225196 2.65787e-22)
(-0.155247 -0.218941 -9.8343e-21)
(-0.163633 -0.209767 1.82388e-20)
(-0.17056 -0.197126 2.61647e-20)
(-0.175869 -0.180511 7.85642e-21)
(-0.179384 -0.159486 0)
(-0.180933 -0.133722 7.56851e-21)
(-0.18036 -0.103039 -2.05968e-20)
(-0.177527 -0.0674566 -1.26111e-20)
(-0.172283 -0.0271368 -1.1742e-20)
(-0.164687 0.017672 0)
(-0.155785 0.0661752 0)
(0.00211564 -0.0392549 -2.72809e-20)
(0.000813833 -0.096609 4.71902e-20)
(-0.0080402 -0.13802 -1.75291e-20)
(-0.0213704 -0.166432 -3.36177e-20)
(-0.0371992 -0.184902 4.76514e-20)
(-0.0543151 -0.196367 -2.99648e-20)
(-0.0718276 -0.203289 4.24573e-20)
(-0.0891234 -0.207472 2.64054e-20)
(-0.105832 -0.210039 0)
(-0.121751 -0.211518 -2.41617e-20)
(-0.136779 -0.211986 -1.85654e-22)
(-0.15086 -0.211218 2.14405e-20)
(-0.163942 -0.208817 2.97479e-20)
(-0.175959 -0.2043 3.7651e-20)
(-0.186816 -0.19716 -1.81652e-20)
(-0.196384 -0.186898 -5.0471e-20)
(-0.204501 -0.173052 1.49567e-20)
(-0.210981 -0.155211 -5.7242e-20)
(-0.215636 -0.133041 0)
(-0.218299 -0.106316 1.3478e-20)
(-0.218755 -0.0749393 1.2598e-20)
(-0.216613 -0.0389132 1.17296e-20)
(-0.211948 0.00178732 0)
(-0.207268 0.0468014 0)
(0.00321863 -0.0330717 0)
(0.00275209 -0.0821676 9.2221e-20)
(-0.00668689 -0.118348 -3.48576e-20)
(-0.0211785 -0.143651 3.33018e-20)
(-0.0382941 -0.160532 -9.32602e-20)
(-0.056608 -0.171478 0)
(-0.075118 -0.178594 -5.55029e-20)
(-0.0931653 -0.183415 2.58228e-20)
(-0.110376 -0.186887 -4.87697e-20)
(-0.126567 -0.18944 2.23646e-20)
(-0.141664 -0.191115 1.29954e-19)
(-0.155635 -0.191696 -6.09524e-20)
(-0.168459 -0.190821 -9.59085e-20)
(-0.180091 -0.188062 -3.46125e-20)
(-0.19046 -0.18297 5.27918e-22)
(-0.199459 -0.175107 1.24193e-19)
(-0.206946 -0.16406 -5.79969e-20)
(-0.212743 -0.149457 2.42556e-21)
(-0.21666 -0.130971 0)
(-0.218531 -0.108325 -4.2418e-20)
(-0.21814 -0.0813015 0)
(-0.214894 -0.0497262 -3.86662e-20)
(-0.208554 -0.0134733 1.34758e-19)
(-0.20277 0.0272307 -2.06232e-21)
(0.00344312 -0.0258502 0)
(0.0030581 -0.0657021 -3.81916e-22)
(-0.00681525 -0.0963756 3.43732e-20)
(-0.02181 -0.118692 -3.2481e-20)
(-0.0392603 -0.134293 3.08521e-20)
(-0.0576306 -0.145082 1.7384e-19)
(-0.0758591 -0.15273 -5.46284e-20)
(-0.0932583 -0.158476 -5.11416e-20)
(-0.109445 -0.163082 9.67319e-20)
(-0.124236 -0.166888 -1.36194e-19)
(-0.137558 -0.169907 4.20296e-20)
(-0.149386 -0.17194 3.91164e-20)
(-0.159701 -0.172665 0)
(-0.168472 -0.171705 3.49854e-20)
(-0.17564 -0.168668 0)
(-0.181117 -0.163172 5.67204e-20)
(-0.184785 -0.154864 -1.05306e-19)
(-0.186487 -0.143418 2.85781e-20)
(-0.18604 -0.128542 8.99092e-20)
(-0.183272 -0.109955 4.23804e-20)
(-0.178005 -0.0873663 0)
(-0.169649 -0.0604333 -9.5931e-20)
(-0.157216 -0.0288468 3.20132e-20)
(-0.14393 0.00749301 0)
(0.00275153 -0.0181695 0)
(0.00169941 -0.0483821 -1.08622e-19)
(-0.00840737 -0.0734851 -3.4508e-20)
(-0.0231931 -0.092955 -6.47796e-20)
(-0.0399877 -0.107513 6.1003e-20)
(-0.0572563 -0.11841 -5.77746e-20)
(-0.0739333 -0.126846 1.08198e-19)
(-0.0893236 -0.133748 5.08878e-20)
(-0.103033 -0.139696 -1.43452e-19)
(-0.114867 -0.14494 8.88016e-20)
(-0.124738 -0.149474 -1.24831e-19)
(-0.132611 -0.153112 2.68637e-19)
(-0.138465 -0.155569 -1.44122e-19)
(-0.14227 -0.156507 6.50543e-20)
(-0.143979 -0.155579 1.78686e-19)
(-0.143527 -0.152451 -6.02222e-20)
(-0.140827 -0.146817 -5.25799e-20)
(-0.135762 -0.138407 -4.83203e-20)
(-0.128187 -0.126987 0)
(-0.117943 -0.11234 -6.90047e-20)
(-0.104947 -0.0942216 -5.59317e-20)
(-0.0889501 -0.072209 8.76198e-20)
(-0.0683893 -0.0453435 9.34039e-20)
(-0.0428913 -0.0122168 -8.45269e-20)
(0.00122929 -0.0106034 0)
(-0.00113384 -0.0313482 -1.4437e-19)
(-0.0112121 -0.0510026 -3.6305e-22)
(-0.0250334 -0.0677526 1.28909e-19)
(-0.0401432 -0.0814009 0)
(-0.055111 -0.0925343 0)
(-0.0689212 -0.101879 0)
(-0.0808939 -0.11005 -5.03251e-20)
(-0.0906281 -0.117442 5.94543e-22)
(-0.09791 -0.12422 8.86541e-20)
(-0.102635 -0.13035 -1.22401e-19)
(-0.104755 -0.135657 8.53139e-22)
(-0.104243 -0.139879 0)
(-0.101078 -0.14271 -6.50262e-20)
(-0.0952361 -0.143833 5.53416e-20)
(-0.0866884 -0.142943 -1.59913e-19)
(-0.0753979 -0.139764 1.8788e-19)
(-0.0613139 -0.134067 3.35908e-20)
(-0.0443599 -0.125677 -9.91222e-21)
(-0.0244378 -0.114469 -1.35251e-19)
(-0.0014754 -0.100364 -5.44257e-20)
(0.0246517 -0.083116 1.63487e-19)
(0.0550957 -0.0615952 -1.02975e-19)
(0.0936165 -0.0329457 0)
(-0.000929961 -0.00366818 6.97989e-20)
(-0.00504364 -0.0156429 7.21402e-20)
(-0.0147429 -0.0301464 -6.87955e-20)
(-0.0267859 -0.0442889 -1.29607e-19)
(-0.039113 -0.0570498 1.22047e-19)
(-0.0504809 -0.0683998 -1.14901e-19)
(-0.0599665 -0.0786102 1.62287e-19)
(-0.0669232 -0.0879902 -5.0013e-20)
(-0.0709459 -0.0967541 9.4886e-20)
(-0.0718002 -0.104971 0)
(-0.0693599 -0.112569 8.00322e-20)
(-0.0635639 -0.119368 -1.51768e-19)
(-0.054391 -0.125117 1.36404e-19)
(-0.0418467 -0.129525 -1.28115e-19)
(-0.025957 -0.13229 0)
(-0.00676551 -0.133124 1.03151e-19)
(0.0156705 -0.13177 1.7677e-19)
(0.0412846 -0.128021 -1.67102e-19)
(0.0700224 -0.121738 -6.98546e-20)
(0.101842 -0.112866 -5.69924e-20)
(0.136681 -0.101457 1.64528e-19)
(0.174679 -0.0875869 3.7944e-20)
(0.214961 -0.0710262 -4.01444e-20)
(0.270992 -0.048225 3.01556e-20)
(-0.00344533 0.00218996 -6.98083e-20)
(-0.00946989 -0.00216232 2.19594e-19)
(-0.0183194 -0.0119819 -6.90039e-20)
(-0.0276946 -0.0236323 1.30569e-19)
(-0.0360328 -0.0354619 -1.22951e-19)
(-0.0423481 -0.0468864 6.9223e-22)
(-0.0458301 -0.0577638 5.46323e-20)
(-0.0458773 -0.0681187 2.03511e-19)
(-0.042084 -0.0779825 -1.73362e-21)
(-0.034197 -0.0873176 -8.90171e-20)
(-0.0220758 -0.0959969 0)
(-0.00566682 -0.103815 -7.33581e-20)
(0.015013 -0.110512 1.39657e-19)
(0.0398819 -0.115794 1.22954e-19)
(0.068798 -0.119367 -5.89637e-20)
(0.101565 -0.120949 -4.83948e-22)
(0.137939 -0.120301 -4.53843e-20)
(0.177645 -0.117245 7.8766e-20)
(0.220392 -0.111677 6.98288e-20)
(0.265911 -0.103586 -6.03272e-20)
(0.313701 -0.0931364 5.05792e-20)
(0.364959 -0.0802065 -4.28161e-20)
(0.412309 -0.0663005 0)
(0.487611 -0.0467087 -3.0102e-20)
(-0.00597619 0.00667426 7.12433e-20)
(-0.0137186 0.00842772 -7.34202e-20)
(-0.0210958 0.00262296 7.04135e-20)
(-0.0268313 -0.00674918 0)
(-0.0298883 -0.0175833 0)
(-0.0295263 -0.0288562 1.18027e-19)
(-0.0250962 -0.0400884 -1.09879e-19)
(-0.0160561 -0.051042 1.02266e-19)
(-0.00201633 -0.0615665 -4.78761e-19)
(0.017265 -0.0715061 1.03806e-21)
(0.0418936 -0.0806602 8.2455e-20)
(0.0718435 -0.0887805 0)
(0.106961 -0.0955829 -1.35786e-19)
(0.146964 -0.100768 2.50312e-19)
(0.191455 -0.104047 -1.71791e-19)
(0.239928 -0.105166 -2.46621e-19)
(0.291798 -0.103928 1.10791e-20)
(0.346431 -0.100214 1.6213e-19)
(0.403164 -0.0940063 0)
(0.461492 -0.0853225 0)
(0.519974 -0.0746602 -5.05654e-20)
(0.58208 -0.0611154 4.28042e-20)
(0.632296 -0.0482628 -1.37046e-19)
(0.719857 -0.0285741 1.2861e-19)
(-0.00821705 0.00964821 0)
(-0.0171229 0.0157169 0)
(-0.0222391 0.013044 -2.124e-19)
(-0.0232144 0.00562852 6.73312e-20)
(-0.0195505 -0.0041816 1.19294e-22)
(-0.0107668 -0.0150789 1.19804e-19)
(0.00363683 -0.0262979 0)
(0.0241028 -0.0373739 -1.04204e-19)
(0.0509397 -0.047986 9.61882e-20)
(0.0842857 -0.0578565 -1.78404e-19)
(0.124085 -0.066704 1.54426e-21)
(0.170069 -0.0742331 1.49822e-19)
(0.221753 -0.0801427 -4.46728e-21)
(0.278444 -0.0841468 1.18131e-19)
(0.339267 -0.0859997 -1.74533e-19)
(0.403208 -0.0855201 0)
(0.469174 -0.0826124 1.73121e-19)
(0.536053 -0.0772802 -2.40982e-19)
(0.602742 -0.0696551 6.87692e-20)
(0.668496 -0.0598267 0)
(0.731285 -0.0486276 5.17042e-20)
(0.79525 -0.0347412 1.68252e-19)
(0.843481 -0.022769 -1.579e-19)
(0.925256 -0.00368982 -1.59003e-19)
(-0.00989498 0.0111294 2.21587e-19)
(-0.0190353 0.0196133 -3.05804e-19)
(-0.0208788 0.0190353 2.084e-23)
(-0.0158469 0.0131234 6.84127e-20)
(-0.00389727 0.00426565 -1.28476e-19)
(0.0151865 -0.00603767 -1.19107e-19)
(0.0417131 -0.0168175 2.23588e-19)
(0.0759474 -0.0274272 -2.74175e-21)
(0.11799 -0.0373971 -1.95977e-19)
(0.167694 -0.046341 3.59504e-19)
(0.224614 -0.0539128 -3.9745e-21)
(0.287974 -0.0597967 -1.54608e-19)
(0.356682 -0.0637179 0)
(0.429372 -0.0654629 0)
(0.504481 -0.0649017 -5.65546e-20)
(0.580349 -0.0620051 -1.00962e-19)
(0.655327 -0.0568536 -1.73682e-19)
(0.727883 -0.049639 1.63032e-19)
(0.796672 -0.0406555 -6.87894e-20)
(0.860716 -0.0302171 1.15936e-19)
(0.918712 -0.0190266 -6.00076e-20)
(0.972614 -0.00647435 8.0011e-20)
(1.01306 0.00403538 -2.03532e-19)
(1.07112 0.0197124 3.30053e-20)
(-0.0108085 0.0112805 7.49332e-20)
(-0.0188717 0.0203233 0)
(-0.0161334 0.0207246 1.46565e-19)
(-0.00359907 0.0157781 -1.38072e-19)
(0.0183906 0.00778556 1.28585e-19)
(0.0497848 -0.00166198 0)
(0.0906195 -0.0114646 0)
(0.140828 -0.0208459 -1.04903e-19)
(0.200075 -0.0292295 2.70122e-21)
(0.267638 -0.0361653 9.25471e-20)
(0.342346 -0.0412986 -8.16758e-20)
(0.422584 -0.0443675 1.55134e-19)
(0.506368 -0.0452139 0)
(0.59147 -0.0437963 2.46506e-19)
(0.675586 -0.0401967 -4.52226e-19)
(0.756509 -0.0346169 3.0829e-19)
(0.832286 -0.0273603 1.73937e-19)
(0.901339 -0.0188195 -1.63279e-19)
(0.962562 -0.00939795 0)
(1.01526 0.000374364 0)
(1.05941 0.0102328 0)
(1.09524 0.0196168 0)
(1.12208 0.0278581 3.99283e-20)
(1.15019 0.0377805 -1.39189e-19)
(-0.145904 0.124922 -7.48185e-21)
(-0.128795 0.199097 7.50463e-21)
(-0.109185 0.276309 -1.98393e-22)
(-0.0875128 0.353017 0)
(-0.0645701 0.425136 -5.50893e-21)
(-0.0414244 0.489226 1.02663e-20)
(-0.0186987 0.542168 -4.10347e-22)
(0.00434819 0.580618 -4.24191e-21)
(0.030149 0.600589 0)
(0.0627131 0.59724 0)
(0.106671 0.56433 -2.12455e-22)
(0.164853 0.497045 -2.18484e-22)
(0.236236 0.394529 -3.84022e-21)
(0.315726 0.261293 3.51008e-21)
(0.39724 0.105049 0)
(0.476378 -0.0649694 0)
(0.550414 -0.234287 3.09267e-21)
(0.615378 -0.381493 -4.15943e-22)
(0.666372 -0.486701 -2.36854e-21)
(0.700442 -0.543343 -1.14885e-22)
(0.71746 -0.559945 0)
(0.720971 -0.550578 0)
(0.715616 -0.52973 0)
(0.699789 -0.514859 0)
(0.667796 -0.517306 0)
(0.623272 -0.521022 0)
(0.586049 -0.4818 4.92953e-22)
(0.578498 -0.361101 -7.63785e-22)
(0.60537 -0.167725 0)
(0.655266 0.0489791 0)
(0.711363 0.233943 -5.60046e-22)
(0.760393 0.359502 5.44289e-22)
(0.796013 0.423504 1.85205e-22)
(0.819352 0.44309 0)
(0.827528 0.449329 0)
(0.81153 0.466715 2.58305e-22)
(0.772704 0.4862 -2.51094e-22)
(0.731584 0.451252 0)
(0.710882 0.332667 3.70824e-22)
(0.721717 0.135606 -5.59174e-22)
(0.750895 -0.0642145 1.85745e-22)
(0.790467 -0.226761 0)
(0.826238 -0.319233 -2.11707e-22)
(0.844308 -0.365291 2.05861e-22)
(0.830474 -0.399505 0)
(0.786192 -0.399185 0)
(0.744712 -0.368556 -7.71504e-23)
(0.732604 -0.221097 2.22363e-22)
(0.754415 -0.0697827 0)
(0.796159 0.107997 0)
(0.82351 0.227162 -5.46136e-23)
(0.814222 0.306672 2.90365e-24)
(0.791911 0.387526 -3.55549e-24)
(0.775072 0.295705 4.21654e-23)
(0.785685 0.249789 0)
(0.80706 0.0308455 0)
(0.813473 -0.117464 0)
(0.803463 -0.219291 0)
(0.804754 -0.397742 0)
(0.787074 -0.177298 0)
(-0.206142 0.102202 -6.00379e-22)
(-0.191486 0.173066 -2.44387e-20)
(-0.173278 0.247224 1.29461e-21)
(-0.150781 0.321643 2.17463e-20)
(-0.124148 0.392803 2.78296e-22)
(-0.0934977 0.456626 0)
(-0.058689 0.509459 -1.55494e-20)
(-0.0189604 0.545738 3.00392e-20)
(0.0282018 0.561614 -1.44957e-20)
(0.0853751 0.551851 1.402e-20)
(0.153915 0.511316 -1.34133e-20)
(0.233381 0.437468 1.48758e-20)
(0.320261 0.331757 -1.44647e-20)
(0.408842 0.199363 -5.10437e-22)
(0.494032 0.0467133 -1.60605e-20)
(0.573281 -0.11911 1.56064e-20)
(0.644386 -0.283041 -1.33681e-20)
(0.702301 -0.422245 1.26022e-20)
(0.74177 -0.516335 -8.95392e-21)
(0.761723 -0.560371 1.54667e-20)
(0.764643 -0.565698 -6.60257e-21)
(0.755206 -0.548488 -2.87609e-22)
(0.73922 -0.521723 -3.6831e-21)
(0.716903 -0.499348 7.01547e-21)
(0.681433 -0.493621 -3.33936e-21)
(0.631575 -0.495363 2.05677e-22)
(0.583318 -0.465998 4.49352e-21)
(0.561243 -0.363571 8.0124e-22)
(0.576281 -0.187465 -9.80231e-21)
(0.620256 0.0195593 9.6479e-21)
(0.676134 0.204137 -4.59989e-21)
(0.729366 0.335501 4.2327e-22)
(0.772817 0.407022 -1.85595e-22)
(0.804863 0.434485 2.85614e-22)
(0.819652 0.450093 0)
(0.808277 0.476967 0)
(0.774543 0.50137 -1.21498e-21)
(0.741197 0.463713 8.46881e-22)
(0.727854 0.336646 1.22458e-21)
(0.744276 0.130574 2.50763e-22)
(0.774193 -0.0752684 -1.76987e-21)
(0.810511 -0.238983 3.3141e-22)
(0.840287 -0.327992 0)
(0.854179 -0.365802 0)
(0.838419 -0.39082 0)
(0.791425 -0.386382 0)
(0.747701 -0.360547 2.55031e-22)
(0.731038 -0.222459 -1.47466e-22)
(0.752546 -0.0790896 0)
(0.792001 0.0986305 0)
(0.819166 0.224167 0)
(0.809638 0.310205 -8.94493e-23)
(0.787306 0.39204 3.00323e-24)
(0.773286 0.296329 -8.3762e-23)
(0.7846 0.246236 0)
(0.811968 0.0282448 0)
(0.819146 -0.117577 6.54946e-23)
(0.809515 -0.218023 1.76524e-22)
(0.810326 -0.396163 0)
(0.789754 -0.175955 0)
(-0.205504 0.0778162 -1.30947e-21)
(-0.193811 0.143568 -4.14363e-20)
(-0.176973 0.21301 3.74633e-20)
(-0.153571 0.283182 -3.51229e-20)
(-0.123381 0.351667 -2.80236e-22)
(-0.0856706 0.412148 0)
(-0.0410864 0.461079 -2.8287e-20)
(0.011838 0.493805 2.76644e-20)
(0.0756199 0.505827 2.14365e-22)
(0.14978 0.491584 4.17612e-22)
(0.2336 0.447256 4.44839e-22)
(0.324654 0.371949 4.66136e-22)
(0.418486 0.268324 -3.34871e-20)
(0.509823 0.141362 3.30529e-20)
(0.594575 -0.00438999 0)
(0.671725 -0.163038 1.03485e-21)
(0.738809 -0.319446 -2.80911e-20)
(0.788845 -0.449399 2.76847e-20)
(0.816271 -0.532758 0)
(0.822029 -0.566366 0)
(0.811522 -0.563317 -1.11648e-20)
(0.790542 -0.540971 1.9586e-20)
(0.765017 -0.510934 -1.5395e-20)
(0.736769 -0.483111 7.34818e-22)
(0.699103 -0.469413 1.22102e-20)
(0.646322 -0.467694 -1.27945e-20)
(0.589337 -0.446933 1.33811e-20)
(0.553298 -0.363613 6.60933e-22)
(0.555235 -0.207039 -8.04713e-21)
(0.591362 -0.0115733 0)
(0.645329 0.170909 0)
(0.701582 0.307198 2.14493e-21)
(0.752082 0.386286 -2.86007e-21)
(0.792176 0.422468 -2.10706e-23)
(0.81335 0.44828 2.10042e-21)
(0.807106 0.484874 -2.04129e-21)
(0.77922 0.514414 0)
(0.753843 0.474945 3.35528e-22)
(0.747668 0.340876 3.89259e-21)
(0.769443 0.127584 -7.81967e-21)
(0.800126 -0.0832557 3.40724e-21)
(0.832999 -0.247978 3.70787e-22)
(0.856431 -0.33448 -2.36923e-21)
(0.865778 -0.365173 1.78952e-21)
(0.848288 -0.381671 2.95675e-22)
(0.79911 -0.373276 2.44991e-22)
(0.753603 -0.352537 -2.55669e-22)
(0.732373 -0.22427 0)
(0.753192 -0.0889319 0)
(0.789833 0.0887673 -8.18926e-22)
(0.816654 0.220872 4.05396e-22)
(0.806809 0.31335 -3.54139e-22)
(0.78427 0.39644 5.42433e-22)
(0.77289 0.296857 7.63402e-22)
(0.784933 0.242292 -1.65414e-22)
(0.818298 0.0254135 3.63982e-22)
(0.826181 -0.117679 -3.14736e-22)
(0.816669 -0.216466 1.60102e-22)
(0.816757 -0.394272 0)
(0.793301 -0.174493 0)
(-0.14471 0.0537046 -6.83611e-20)
(-0.136161 0.113423 3.56243e-21)
(-0.12068 0.17672 6.1213e-20)
(-0.0963625 0.240909 -4.94877e-22)
(-0.0645825 0.302623 0)
(-0.0247094 0.357561 0)
(0.0261793 0.401722 -4.95791e-20)
(0.0877394 0.43126 -2.54875e-21)
(0.160225 0.44013 7.51423e-20)
(0.242539 0.423671 2.16988e-21)
(0.332668 0.379118 -2.76859e-20)
(0.427173 0.306494 -3.16141e-20)
(0.521409 0.208834 3.16526e-20)
(0.610812 0.0901936 0)
(0.693113 -0.0468997 -3.48424e-20)
(0.767962 -0.197337 3.17565e-20)
(0.831001 -0.345545 0)
(0.873129 -0.465801 0)
(0.888629 -0.538825 1.88126e-20)
(0.880641 -0.563643 -3.91273e-21)
(0.857538 -0.554451 -1.3578e-20)
(0.826428 -0.528867 -8.76296e-21)
(0.792605 -0.497658 8.68397e-21)
(0.758759 -0.466852 -6.09711e-21)
(0.719685 -0.445937 4.35887e-22)
(0.666608 -0.438595 5.32068e-21)
(0.604094 -0.423604 7.10051e-22)
(0.555334 -0.359251 8.74298e-23)
(0.543109 -0.224603 0)
(0.569223 -0.0432691 6.99773e-21)
(0.619334 0.135047 -7.17362e-21)
(0.677322 0.275074 3.75838e-22)
(0.733826 0.361574 0)
(0.781129 0.407008 -2.67857e-22)
(0.808424 0.443442 4.11747e-21)
(0.807743 0.489751 -8.00099e-21)
(0.786204 0.524786 -1.55922e-21)
(0.768786 0.484831 -1.29352e-21)
(0.76963 0.345719 5.41896e-21)
(0.796468 0.126921 9.24922e-22)
(0.828021 -0.0881576 -6.52637e-21)
(0.857554 -0.253868 5.63466e-21)
(0.874524 -0.338846 -1.76099e-23)
(0.878937 -0.363673 1.39935e-21)
(0.859767 -0.372333 -1.6571e-21)
(0.808873 -0.359933 -1.63308e-21)
(0.762062 -0.3443 4.86561e-22)
(0.736292 -0.226239 8.38816e-22)
(0.756084 -0.0991132 -1.60524e-21)
(0.789519 0.0784375 1.17114e-21)
(0.815922 0.21723 -3.73383e-22)
(0.805768 0.316079 3.25004e-22)
(0.78293 0.400773 3.36519e-22)
(0.774042 0.297366 -1.19778e-21)
(0.786777 0.238013 -4.96203e-25)
(0.826027 0.0223888 -4.31367e-22)
(0.834529 -0.117744 0)
(0.824912 -0.214608 -1.56102e-22)
(0.824007 -0.392056 1.90073e-22)
(0.797658 -0.172908 0)
(-0.0365595 0.0303709 5.51083e-20)
(-0.0307705 0.0823707 -1.04708e-19)
(-0.0176816 0.137677 4.9127e-20)
(0.00452046 0.194447 4.4659e-20)
(0.0361524 0.248469 -8.66435e-20)
(0.0775323 0.298227 -5.34536e-22)
(0.130026 0.338433 4.17249e-20)
(0.193527 0.364337 4.61715e-20)
(0.267579 0.370969 -4.5253e-20)
(0.350653 0.35442 0)
(0.440098 0.312454 -6.02047e-20)
(0.532232 0.245307 1.23667e-19)
(0.622666 0.155681 -6.3341e-20)
(0.707956 0.0464096 0)
(0.787391 -0.0810614 0)
(0.860201 -0.222724 1.06328e-21)
(0.919143 -0.361353 -5.79298e-20)
(0.952863 -0.47078 5.6272e-20)
(0.956441 -0.533767 0)
(0.935621 -0.551794 3.00367e-20)
(0.901312 -0.539288 -5.01676e-20)
(0.86184 -0.51269 3.81564e-20)
(0.82148 -0.482012 -3.0051e-20)
(0.782703 -0.450676 1.91758e-21)
(0.742472 -0.424576 2.06218e-20)
(0.691031 -0.410489 -9.66559e-21)
(0.626635 -0.397561 -3.23193e-22)
(0.567577 -0.349865 -5.10149e-21)
(0.540608 -0.23864 -5.4219e-22)
(0.554483 -0.0746579 5.68143e-21)
(0.598647 0.0972462 3.78728e-22)
(0.656824 0.239529 -4.44778e-21)
(0.71797 0.333005 8.25062e-21)
(0.771453 0.38785 -4.25034e-21)
(0.804541 0.435008 0)
(0.80976 0.490985 -5.01314e-21)
(0.794893 0.532136 4.9671e-21)
(0.785323 0.493446 -5.9781e-21)
(0.792965 0.351439 7.42862e-21)
(0.824528 0.128479 -1.00282e-21)
(0.857227 -0.0900153 0)
(0.883716 -0.256548 -7.6793e-22)
(0.894277 -0.340909 1.68453e-21)
(0.893451 -0.361239 0)
(0.87262 -0.362904 2.64985e-21)
(0.82038 -0.3465 -1.12341e-21)
(0.772672 -0.335806 4.15548e-22)
(0.742417 -0.228196 3.4036e-22)
(0.760892 -0.109493 0)
(0.790872 0.0676447 0)
(0.816865 0.213154 -9.8909e-22)
(0.806519 0.318333 1.64729e-21)
(0.7834 0.405056 -1.05274e-21)
(0.776884 0.297935 3.85089e-22)
(0.790205 0.23342 8.52626e-22)
(0.83512 0.0191482 4.31776e-22)
(0.844128 -0.117748 -7.54553e-22)
(0.834217 -0.212411 0)
(0.832023 -0.389476 -3.12727e-22)
(0.802764 -0.171189 -1.31437e-23)
(0.101825 0.00559496 4.68204e-20)
(0.104626 0.0506267 -4.64287e-20)
(0.115085 0.0985297 3.50243e-22)
(0.13469 0.148007 -2.75183e-22)
(0.163968 0.196133 3.11875e-22)
(0.203306 0.240192 -3.07451e-22)
(0.253245 0.275706 5.59688e-22)
(0.31386 0.298289 0)
(0.384473 0.303749 -6.72503e-22)
(0.463358 0.288673 7.53263e-22)
(0.547811 0.250988 8.41347e-22)
(0.634406 0.190644 -9.68534e-22)
(0.719316 0.109618 0)
(0.80056 0.00976219 0)
(0.877815 -0.108493 1.05508e-21)
(0.948379 -0.240528 0)
(1.00203 -0.367819 -9.27369e-22)
(1.02619 -0.465423 0)
(1.01795 -0.519118 -3.65992e-20)
(0.985781 -0.532438 6.48874e-20)
(0.942186 -0.519161 -4.95535e-20)
(0.896124 -0.493521 2.14099e-20)
(0.850968 -0.464503 1.2897e-20)
(0.808109 -0.434364 -1.25253e-20)
(0.766577 -0.405523 -8.91194e-21)
(0.717871 -0.384848 8.63145e-21)
(0.655176 -0.370395 0)
(0.58946 -0.335442 2.15603e-22)
(0.548214 -0.247565 0)
(0.54794 -0.103963 0)
(0.583923 0.0585576 7.87642e-21)
(0.640325 0.2011 -8.11137e-21)
(0.704384 0.30072 3.81358e-22)
(0.762845 0.364807 4.38278e-22)
(0.80134 0.422533 -4.06949e-22)
(0.812642 0.488066 -4.39559e-21)
(0.804602 0.536158 4.26813e-21)
(0.802648 0.500714 -7.60751e-21)
(0.816794 0.358097 6.65165e-21)
(0.852818 0.132172 2.03884e-21)
(0.887097 -0.0888955 -7.07882e-21)
(0.910996 -0.256049 5.37928e-22)
(0.915364 -0.340612 4.22513e-21)
(0.909067 -0.357891 0)
(0.88657 -0.353503 -1.13094e-21)
(0.833273 -0.333057 1.13793e-21)
(0.784974 -0.326964 -1.53008e-21)
(0.750322 -0.229961 -3.42515e-22)
(0.767237 -0.119959 0)
(0.793653 0.0563542 3.14753e-22)
(0.819325 0.208517 -5.45744e-22)