/*--------------------------------*- C++ -*----------------------------------*\
| =========                 |                                                 |
| \\      /  F ield         | OpenFOAM: The Open Source CFD Toolbox           |
|  \\    /   O peration     | Version:  2512                                  |
|   \\  /    A nd           | Website:  www.openfoam.com                      |
|    \\/     M anipulation  |                                                 |
\*---------------------------------------------------------------------------*/
FoamFile
{
    version     2.0;
    format      ascii;
    arch        "LSB;label=32;scalar=64";
    class       volScalarField;
    location    "155.75";
    object      p;
}
// * * * * * * * * * * * * * * * * * * * * * * * * * * * * * * * * * * * * * //

dimensions      [0 2 -2 0 0 0 0];

internalField   nonuniform List<scalar> 
13248
(
-0.407421
-0.405209
-0.401839
-0.397633
-0.393035
-0.388523
-0.384521
-0.381353
-0.379207
-0.378101
-0.377885
-0.378247
-0.378753
-0.378898
-0.378173
-0.376123
-0.372403
-0.366806
-0.35926
-0.349833
-0.338501
-0.325544
-0.309752
-0.292126
-0.416319
-0.413412
-0.409485
-0.404852
-0.399902
-0.395061
-0.390669
-0.386946
-0.383957
-0.38161
-0.379666
-0.377776
-0.375534
-0.372543
-0.368462
-0.363057
-0.356207
-0.347898
-0.338191
-0.327177
-0.31493
-0.301531
-0.286745
-0.271477
-0.427614
-0.423699
-0.419029
-0.413861
-0.408472
-0.403196
-0.398255
-0.393722
-0.389531
-0.385499
-0.381356
-0.376805
-0.37157
-0.365438
-0.358286
-0.35008
-0.340858
-0.3307
-0.319697
-0.307936
-0.295454
-0.282365
-0.268492
-0.254475
-0.441187
-0.436014
-0.430437
-0.424607
-0.418634
-0.412718
-0.406921
-0.401165
-0.395277
-0.389048
-0.382278
-0.374814
-0.366577
-0.357558
-0.34781
-0.337421
-0.326489
-0.315098
-0.30332
-0.291202
-0.278783
-0.266138
-0.253192
-0.240543
-0.456881
-0.450271
-0.443659
-0.437036
-0.430275
-0.423401
-0.416307
-0.40879
-0.400653
-0.391766
-0.382096
-0.371694
-0.360676
-0.349187
-0.33737
-0.325345
-0.313197
-0.300979
-0.28872
-0.276437
-0.264141
-0.251864
-0.23957
-0.227616
-0.474506
-0.466351
-0.458618
-0.451056
-0.443228
-0.43495
-0.42598
-0.416083
-0.405158
-0.393268
-0.380601
-0.367408
-0.35394
-0.340409
-0.326966
-0.313702
-0.30066
-0.287847
-0.275255
-0.262872
-0.250689
-0.238707
-0.226909
-0.215516
-0.493771
-0.48404
-0.475127
-0.466438
-0.457149
-0.446886
-0.435366
-0.42247
-0.408327
-0.39326
-0.377675
-0.361956
-0.346402
-0.331211
-0.316489
-0.302272
-0.288551
-0.275294
-0.262464
-0.250024
-0.237945
-0.226203
-0.214791
-0.203779
-0.514223
-0.502949
-0.492798
-0.482712
-0.471446
-0.458515
-0.443761
-0.427351
-0.409736
-0.391507
-0.373216
-0.355287
-0.337989
-0.321452
-0.305712
-0.290745
-0.276496
-0.262903
-0.249903
-0.237441
-0.22547
-0.213954
-0.20288
-0.192209
-0.535178
-0.522461
-0.510986
-0.499133
-0.485269
-0.468967
-0.450401
-0.430157
-0.409039
-0.38783
-0.367133
-0.347326
-0.328589
-0.310965
-0.294416
-0.278862
-0.264214
-0.25038
-0.23728
-0.224841
-0.213001
-0.201715
-0.190952
-0.180594
-0.555699
-0.541686
-0.528752
-0.514664
-0.497549
-0.477267
-0.454524
-0.430384
-0.405939
-0.38206
-0.359304
-0.33794
-0.318036
-0.299545
-0.282363
-0.266367
-0.251435
-0.237455
-0.224327
-0.211963
-0.200289
-0.189253
-0.17879
-0.168753
-0.574623
-0.559479
-0.544881
-0.52803
-0.507057
-0.482373
-0.455336
-0.427458
-0.400008
-0.373833
-0.349367
-0.326744
-0.30592
-0.286766
-0.269121
-0.252826
-0.237733
-0.22371
-0.210641
-0.198423
-0.186975
-0.176225
-0.166072
-0.156389
-0.590669
-0.574587
-0.558092
-0.537941
-0.512585
-0.483229
-0.451934
-0.420578
-0.390486
-0.362386
-0.336549
-0.312961
-0.291469
-0.27187
-0.253954
-0.237529
-0.222424
-0.208489
-0.195593
-0.183624
-0.172492
-0.162109
-0.152346
-0.143143
-0.359653
-0.360719
-0.361369
-0.361933
-0.36278
-0.364105
-0.366008
-0.368535
-0.371701
-0.375509
-0.379958
-0.385044
-0.390747
-0.397027
-0.403806
-0.41096
-0.418309
-0.425605
-0.432535
-0.438721
-0.443746
-0.447151
-0.448487
-0.447269
-0.367565
-0.367694
-0.367818
-0.368123
-0.368871
-0.37026
-0.372413
-0.375392
-0.379231
-0.38395
-0.389565
-0.396089
-0.403516
-0.411812
-0.420896
-0.430628
-0.440792
-0.451085
-0.461104
-0.470359
-0.478305
-0.484263
-0.487515
-0.487456
-0.374791
-0.373998
-0.373571
-0.373548
-0.374085
-0.37539
-0.377605
-0.380811
-0.385057
-0.390372
-0.396783
-0.404306
-0.412938
-0.422641
-0.433324
-0.444823
-0.45689
-0.469173
-0.481208
-0.492411
-0.502098
-0.509483
-0.513668
-0.51365
-0.380859
-0.37926
-0.378287
-0.377861
-0.378056
-0.379085
-0.381118
-0.38426
-0.388574
-0.394098
-0.40086
-0.408873
-0.418125
-0.428565
-0.440084
-0.452495
-0.465518
-0.478762
-0.491714
-0.503734
-0.514048
-0.521755
-0.526047
-0.525091
-0.385525
-0.383313
-0.381841
-0.380953
-0.380665
-0.38121
-0.382794
-0.385551
-0.389567
-0.394892
-0.401553
-0.409556
-0.418874
-0.429436
-0.441113
-0.453691
-0.466862
-0.480205
-0.493149
-0.505016
-0.515022
-0.522051
-0.525724
-0.523032
-0.388767
-0.386191
-0.384305
-0.382917
-0.38203
-0.381904
-0.382789
-0.384863
-0.388244
-0.393002
-0.39917
-0.406745
-0.415684
-0.425897
-0.437225
-0.449428
-0.462154
-0.474943
-0.48722
-0.498195
-0.507106
-0.512585
-0.514854
-0.509688
-0.390784
-0.388107
-0.385912
-0.384022
-0.382461
-0.381533
-0.381537
-0.382705
-0.3852
-0.389121
-0.394515
-0.401376
-0.409647
-0.419211
-0.429872
-0.441345
-0.453246
-0.465042
-0.476075
-0.485492
-0.492586
-0.495766
-0.495784
-0.487687
-0.391973
-0.389424
-0.387024
-0.384653
-0.382402
-0.38062
-0.379662
-0.379819
-0.381307
-0.384261
-0.388747
-0.394759
-0.402219
-0.410971
-0.420778
-0.431286
-0.442009
-0.452333
-0.461539
-0.468713
-0.473209
-0.473459
-0.470471
-0.459411
-0.392893
-0.390619
-0.388088
-0.385277
-0.382371
-0.379772
-0.377886
-0.377064
-0.377568
-0.379572
-0.383154
-0.388298
-0.394896
-0.402734
-0.411476
-0.420667
-0.429727
-0.437962
-0.44462
-0.448837
-0.450076
-0.447096
-0.440875
-0.427347
-0.394223
-0.392249
-0.389611
-0.386405
-0.382926
-0.379621
-0.376944
-0.375285
-0.374945
-0.376114
-0.378866
-0.383152
-0.388791
-0.395474
-0.402757
-0.410077
-0.416774
-0.422139
-0.425487
-0.426184
-0.423921
-0.418011
-0.409318
-0.394481
-0.396689
-0.394897
-0.392116
-0.388555
-0.384603
-0.380745
-0.377459
-0.375153
-0.374132
-0.374574
-0.37651
-0.37982
-0.384228
-0.389317
-0.394544
-0.39928
-0.402862
-0.404668
-0.404182
-0.401105
-0.395397
-0.387106
-0.377119
-0.36276
-0.400944
-0.39909
-0.396075
-0.392176
-0.387845
-0.38358
-0.379854
-0.377059
-0.375463
-0.375187
-0.376185
-0.378238
-0.380975
-0.383893
-0.386414
-0.387936
-0.387904
-0.38588
-0.381564
-0.374909
-0.365927
-0.355147
-0.343116
-0.329825
-0.443041
-0.431666
-0.413659
-0.389434
-0.359858
-0.326735
-0.292744
-0.260591
-0.233457
-0.213885
-0.203812
-0.203805
-0.21225
-0.224952
-0.235774
-0.23818
-0.227872
-0.20456
-0.173269
-0.141543
-0.115531
-0.0981702
-0.0896466
-0.08871
-0.0945833
-0.108413
-0.130995
-0.157323
-0.175866
-0.175661
-0.157112
-0.129116
-0.101968
-0.0819183
-0.070042
-0.0648019
-0.0661929
-0.0759509
-0.0912454
-0.101969
-0.099525
-0.0867453
-0.0715125
-0.0602097
-0.0534666
-0.0527945
-0.0587533
-0.0653907
-0.0655192
-0.0600374
-0.0507398
-0.0436448
-0.0372605
-0.0332795
-0.0321571
-0.0310823
-0.0274243
-0.022873
-0.0136135
-0.00263588
-0.484686
-0.472036
-0.451211
-0.422824
-0.387805
-0.348207
-0.306942
-0.267178
-0.231996
-0.204077
-0.185465
-0.177161
-0.178563
-0.186559
-0.195666
-0.199412
-0.192765
-0.175308
-0.150686
-0.125286
-0.104684
-0.091839
-0.08713
-0.0894958
-0.098602
-0.116052
-0.142389
-0.171736
-0.191443
-0.18988
-0.168295
-0.136809
-0.106479
-0.0836394
-0.0692897
-0.0618203
-0.0607567
-0.0676952
-0.0804535
-0.0899577
-0.0883751
-0.0779543
-0.0658723
-0.0574194
-0.0533167
-0.0551231
-0.063736
-0.0723755
-0.0725589
-0.065685
-0.0539487
-0.0450412
-0.0366293
-0.0308832
-0.0284744
-0.0265976
-0.0237253
-0.0198813
-0.0123336
-0.00273309
-0.511702
-0.498463
-0.475383
-0.443744
-0.40449
-0.359764
-0.312665
-0.266575
-0.224798
-0.190047
-0.164283
-0.148607
-0.142989
-0.145624
-0.152184
-0.156771
-0.15385
-0.142471
-0.124719
-0.105912
-0.091026
-0.0829672
-0.082203
-0.0878713
-0.100076
-0.120741
-0.150203
-0.182071
-0.20294
-0.200711
-0.176891
-0.142632
-0.10968
-0.0844874
-0.0679599
-0.0584739
-0.0551281
-0.0593304
-0.0695511
-0.0778325
-0.0770746
-0.0689054
-0.0598486
-0.054161
-0.0527388
-0.057109
-0.068427
-0.0791202
-0.0793765
-0.0710579
-0.0568722
-0.0461929
-0.0359277
-0.0285541
-0.0248901
-0.0221628
-0.0200103
-0.016846
-0.0110449
-0.00283977
-0.523139
-0.509697
-0.485747
-0.45241
-0.410618
-0.362589
-0.311605
-0.261201
-0.21468
-0.174715
-0.143194
-0.121239
-0.109154
-0.106026
-0.109025
-0.113435
-0.114196
-0.10779
-0.0965703
-0.0841993
-0.0749798
-0.0716414
-0.074634
-0.0833084
-0.0981608
-0.121411
-0.153421
-0.187479
-0.209738
-0.207698
-0.182614
-0.146417
-0.111516
-0.0845097
-0.0661917
-0.0549596
-0.0495754
-0.0512294
-0.0589847
-0.066
-0.0659989
-0.0598048
-0.0535639
-0.0504789
-0.051683
-0.0586008
-0.0726138
-0.0854047
-0.0858067
-0.0760602
-0.0594697
-0.0470829
-0.0351471
-0.0263044
-0.0214444
-0.0178204
-0.0163181
-0.0137953
-0.00975818
-0.00295856
-0.519936
-0.505856
-0.482394
-0.449441
-0.40729
-0.358357
-0.306057
-0.2538
-0.204726
-0.161386
-0.125553
-0.0983493
-0.0803507
-0.0713431
-0.0697679
-0.0723332
-0.074682
-0.0728675
-0.0675406
-0.0610241
-0.0570347
-0.0579605
-0.0642554
-0.0754731
-0.0924314
-0.117639
-0.151635
-0.187591
-0.211513
-0.210565
-0.185328
-0.148171
-0.112076
-0.0838162
-0.0641242
-0.0514538
-0.0443275
-0.0436695
-0.0490845
-0.0548206
-0.0552972
-0.0508427
-0.0471361
-0.0464037
-0.0500879
-0.0594524
-0.0760967
-0.090989
-0.0916554
-0.0805907
-0.0617084
-0.0477047
-0.0342806
-0.0241415
-0.0181719
-0.013612
-0.0126858
-0.0107558
-0.00848216
-0.00309125
-0.503933
-0.488674
-0.466911
-0.436221
-0.395844
-0.348469
-0.297527
-0.246049
-0.196827
-0.152201
-0.113784
-0.0826155
-0.0594271
-0.0445878
-0.0376207
-0.0366917
-0.0387253
-0.0398893
-0.0389832
-0.0373478
-0.0377943
-0.0422687
-0.0512704
-0.0645157
-0.0830441
-0.109595
-0.14494
-0.182543
-0.208334
-0.209203
-0.184975
-0.147927
-0.111458
-0.0825128
-0.0618637
-0.0480714
-0.0395123
-0.0368507
-0.0400965
-0.0445661
-0.0452705
-0.0422448
-0.040685
-0.0419761
-0.0479198
-0.0595464
-0.0786947
-0.0956427
-0.0967294
-0.0845516
-0.0635632
-0.0480549
-0.0333171
-0.0220653
-0.0151012
-0.00957282
-0.00914521
-0.00775156
-0.00722227
-0.00323859
-0.478167
-0.46128
-0.442019
-0.414939
-0.378073
-0.33438
-0.287089
-0.238663
-0.191456
-0.147534
-0.108342
-0.0748139
-0.0476664
-0.0275649
-0.0148647
-0.00905918
-0.00843858
-0.010228
-0.011988
-0.0141189
-0.017978
-0.0251657
-0.0361975
-0.0509157
-0.0704995
-0.0978325
-0.133956
-0.17288
-0.200595
-0.203829
-0.181634
-0.145793
-0.109773
-0.0806976
-0.0594876
-0.0448799
-0.0351899
-0.0308474
-0.0321452
-0.0354094
-0.0362034
-0.0342106
-0.0343347
-0.0372737
-0.0451772
-0.0587969
-0.080258
-0.0991784
-0.100865
-0.0878481
-0.0650096
-0.0481345
-0.0322498
-0.0200694
-0.012248
-0.00573046
-0.00572268
-0.00480395
-0.00598123
-0.00340124
-0.445704
-0.427374
-0.411225
-0.388448
-0.356216
-0.317729
-0.275687
-0.231865
-0.18822
-0.146557
-0.108146
-0.0738361
-0.0442969
-0.0202103
-0.00228708
0.00902942
0.0140758
0.0143578
0.0120144
0.00784396
0.0017914
-0.00724133
-0.0196348
-0.0353179
-0.0555569
-0.0832471
-0.119663
-0.159419
-0.188983
-0.195009
-0.175601
-0.141895
-0.107109
-0.078436
-0.0570404
-0.041913
-0.0313833
-0.025679
-0.0252781
-0.0274276
-0.0282146
-0.0268905
-0.0282214
-0.0323954
-0.0418948
-0.0571727
-0.080682
-0.101455
-0.103938
-0.0904263
-0.0660372
-0.0479501
-0.0310892
-0.018159
-0.00961926
-0.00210107
-0.00243927
-0.00193153
-0.00475986
-0.00358029
-0.409913
-0.391315
-0.378606
-0.359982
-0.332738
-0.300186
-0.264123
-0.225618
-0.186313
-0.147809
-0.111242
-0.0774172
-0.0469804
-0.0205457
0.00118675
0.017456
0.027659
0.0319492
0.031509
0.0275832
0.0208227
0.0109021
-0.00220552
-0.0184232
-0.0390471
-0.066881
-0.103289
-0.14337
-0.174535
-0.183399
-0.16728
-0.136501
-0.10368
-0.0759142
-0.0546735
-0.0392877
-0.028171
-0.0213875
-0.0195318
-0.0206396
-0.0213325
-0.0203902
-0.022476
-0.0274662
-0.0381069
-0.0546621
-0.0799433
-0.102405
-0.105867
-0.0922574
-0.0666747
-0.0475365
-0.0298686
-0.0163645
-0.00725404
0.00130567
0.000690797
0.000849666
-0.00355732
-0.00377744
-0.37491
-0.357893
-0.348285
-0.332834
-0.310227
-0.283511
-0.25331
-0.220108
-0.185266
-0.15019
-0.11594
-0.0833609
-0.0530703
-0.0256879
-0.00182246
0.0179113
0.0326531
0.0416759
0.0450463
0.0436109
0.0379539
0.028313
0.0151529
-0.00123229
-0.0220341
-0.0498038
-0.0857799
-0.125791
-0.158135
-0.169564
-0.157259
-0.130169
-0.0999992
-0.0735949
-0.0527568
-0.0372733
-0.0257289
-0.0180463
-0.0149164
-0.0150574
-0.0155962
-0.0147756
-0.0171967
-0.0225767
-0.0339399
-0.051377
-0.0780267
-0.102003
-0.10658
-0.0933073
-0.0669754
-0.0469607
-0.0286147
-0.0146928
-0.0052181
0.00445442
0.00365681
0.00352687
-0.00237148
-0.00399505
-0.344379
-0.33101
-0.323433
-0.309865
-0.291288
-0.269851
-0.245024
-0.216865
-0.186404
-0.1548
-0.123071
-0.0920799
-0.0623699
-0.0345909
-0.00940064
0.0125665
0.0305794
0.0439617
0.0521676
0.0543956
0.051474
0.0436818
0.0314992
0.0154994
-0.00521466
-0.0328865
-0.0686526
-0.108298
-0.140579
-0.15431
-0.145568
-0.122733
-0.0958884
-0.0713126
-0.0511008
-0.0356515
-0.0238344
-0.0154232
-0.0111498
-0.0104161
-0.0108992
-0.01013
-0.0126125
-0.0178869
-0.0293176
-0.047251
-0.0751372
-0.100364
-0.105949
-0.0934098
-0.0668003
-0.04617
-0.0272291
-0.0130315
-0.00341024
0.00730351
0.0064312
0.00608628
-0.00119505
-0.00423559
-0.317932
-0.310581
-0.302954
-0.289517
-0.27371
-0.256255
-0.235898
-0.21237
-0.186252
-0.158355
-0.129523
-0.100571
-0.0722048
-0.0451031
-0.0199159
0.00278209
0.022399
0.0384219
0.0504301
0.0579487
0.0590187
0.0542255
0.0442558
0.0296017
0.00981079
-0.0168888
-0.0512716
-0.0892953
-0.120592
-0.134507
-0.129753
-0.11168
-0.0886221
-0.0664618
-0.047485
-0.0326178
-0.0210431
-0.0124418
-0.00741667
-0.00597487
-0.00647765
-0.00609198
-0.00853211
-0.0136806
-0.0248155
-0.04272
-0.0711211
-0.0972594
-0.104043
-0.0922702
-0.065629
-0.0447591
-0.0254068
-0.0111753
-0.00144185
0.0100694
0.00904696
0.00850724
-3.59375e-05
-0.0045097
-0.289916
-0.296152
-0.286528
-0.271073
-0.255004
-0.238262
-0.219359
-0.197668
-0.173537
-0.147724
-0.121011
-0.0940891
-0.0675647
-0.0420198
-0.0180122
0.00396204
0.0234457
0.0400186
0.0536801
0.0615616
0.0649584
0.0630187
0.0553377
0.0422034
0.0232195
-0.00370632
-0.0397943
-0.0798545
-0.111651
-0.125397
-0.118568
-0.100899
-0.0794621
-0.0591859
-0.041783
-0.0280249
-0.0171474
-0.00887294
-0.00367458
-0.0017838
-0.00199794
-0.00135267
-0.00310914
-0.00770631
-0.0184959
-0.0367576
-0.0665786
-0.0949898
-0.103416
-0.0915233
-0.0638441
-0.0427124
-0.0232796
-0.00928003
0.000688155
0.0129791
0.0116386
0.0109184
0.00112831
-0.00484713
-0.261608
-0.271585
-0.263188
-0.247473
-0.231547
-0.215983
-0.199072
-0.179772
-0.15822
-0.135105
-0.111131
-0.0868656
-0.0628077
-0.0394546
-0.0173104
0.00316997
0.0216035
0.0376427
0.0503193
0.05963
0.0644682
0.0641783
0.0582321
0.0466759
0.0289124
0.00269348
-0.0326772
-0.0708153
-0.0992592
-0.109602
-0.103075
-0.0875641
-0.069143
-0.0516215
-0.036236
-0.0237802
-0.0137591
-0.00593135
-0.00072337
0.00139581
0.00126708
0.00180914
0.000284341
-0.00351979
-0.0136949
-0.0317467
-0.0621204
-0.0916939
-0.100592
-0.0888389
-0.0611445
-0.0401339
-0.0209447
-0.00732741
0.00265792
0.0152112
0.0137469
0.0129961
0.00217067
-0.00510358
-0.236141
-0.246282
-0.239767
-0.225448
-0.21054
-0.196327
-0.181315
-0.16428
-0.145148
-0.124495
-0.102963
-0.0810567
-0.0592063
-0.0378489
-0.0174393
0.00159805
0.0188915
0.0340743
0.0464179
0.0556057
0.060776
0.0611844
0.0561866
0.0456512
0.0289348
0.00431152
-0.0276736
-0.0604534
-0.084096
-0.0924522
-0.0872979
-0.0747223
-0.0594372
-0.0445039
-0.0309825
-0.0197305
-0.0105112
-0.00316737
0.00194002
0.00424567
0.00421805
0.00472899
0.00328941
-0.000234687
-0.0101594
-0.0279386
-0.0577146
-0.0868886
-0.096058
-0.0849791
-0.0578783
-0.0372138
-0.0184641
-0.00528828
0.00456565
0.0172457
0.0156673
0.014865
0.00318993
-0.00526279
-0.212939
-0.222276
-0.217428
-0.205
-0.191428
-0.178444
-0.165005
-0.149931
-0.13298
-0.114591
-0.0953319
-0.0756617
-0.0559514
-0.0365698
-0.0179153
-0.000379791
0.0156736
0.0298394
0.0415195
0.0503058
0.0555227
0.0564058
0.0522494
0.0428181
0.0276423
0.00581517
-0.0214072
-0.0485719
-0.0679293
-0.0754298
-0.0720361
-0.0623569
-0.0500059
-0.0375298
-0.0258388
-0.0157948
-0.00738598
-0.000574242
0.00434755
0.00681306
0.00697431
0.00753481
0.00624115
0.00290981
-0.00682576
-0.0240344
-0.0523848
-0.0807888
-0.0903391
-0.0800433
-0.0539923
-0.0339569
-0.0158183
-0.00315355
0.00639466
0.0191216
0.0174546
0.0165981
0.00424888
-0.00533062
-0.191171
-0.19996
-0.196403
-0.185746
-0.173611
-0.161873
-0.149881
-0.136597
-0.121681
-0.105424
-0.0883116
-0.0707564
-0.0530849
-0.0356126
-0.0186902
-0.0026857
0.0120411
0.0251116
0.0360027
0.0442969
0.0494295
0.0507104
0.0474828
0.0394886
0.0264767
0.00811719
-0.0142955
-0.0364791
-0.0525178
-0.0593926
-0.0577648
-0.0508018
-0.0411459
-0.0309166
-0.0209372
-0.0120531
-0.00442534
0.00184384
0.00651549
0.00909844
0.00949378
0.0101531
0.00908251
0.00607109
-0.00317082
-0.0193405
-0.0459937
-0.0735414
-0.083298
-0.073972
-0.0494666
-0.0303831
-0.0130399
-0.000944167
0.008137
0.0207872
0.0190783
0.0182083
0.00535905
-0.0053013
-0.171268
-0.179441
-0.176778
-0.167668
-0.156986
-0.146541
-0.135934
-0.124292
-0.11124
-0.0969578
-0.0818442
-0.0662678
-0.0505219
-0.034882
-0.0196555
-0.00517622
0.00821479
0.0201521
0.0302175
0.0379766
0.0429552
0.0445836
0.0423158
0.035901
0.0252295
0.0103167
-0.00764847
-0.025431
-0.0387059
-0.045177
-0.0450563
-0.0403852
-0.033025
-0.0247484
-0.0163213
-0.00853671
-0.00165665
0.0040818
0.00845612
0.0111071
0.0117564
0.0125935
0.0118123
0.00924155
0.000831143
-0.0140068
-0.0387871
-0.0651348
-0.0749717
-0.0668357
-0.0443328
-0.0265311
-0.0101676
0.0013142
0.00978879
0.0222031
0.0204975
0.019663
0.00650577
-0.00515266
-0.153234
-0.160546
-0.158548
-0.150824
-0.141545
-0.132377
-0.123082
-0.112936
-0.101576
-0.089104
-0.0758417
-0.0621118
-0.0481773
-0.0342798
-0.020686
-0.00769127
0.0043897
0.0152135
0.0244188
0.0316164
0.0363988
0.0383104
0.0369198
0.0320108
0.0235753
0.0118204
-0.00223869
-0.0162814
-0.0272327
-0.0332417
-0.0341552
-0.0312283
-0.0257274
-0.0190997
-0.0120446
-0.00528139
0.000890417
0.00613082
0.0101849
0.0128626
0.0137695
0.0148708
0.0144367
0.0123762
0.00500045
-0.00831716
-0.0309062
-0.0556943
-0.0655431
-0.0587765
-0.0386621
-0.022453
-0.00724706
0.00358854
0.0113572
0.0233417
0.0216846
0.0209273
0.00768867
-0.00485265
-0.136584
-0.143152
-0.141741
-0.135249
-0.127262
-0.119296
-0.111222
-0.102439
-0.0926124
-0.0817924
-0.0702356
-0.0582187
-0.0459747
-0.033715
-0.0216705
-0.0101012
0.000708759
0.0104512
0.0188026
0.0254289
0.0299848
0.0321091
0.0314747
0.0279188
0.0214926
0.0124623
0.00164492
-0.00930922
-0.0182183
-0.023578
-0.0250493
-0.0233487
-0.0192928
-0.0140188
-0.00814495
-0.00231017
0.00319483
0.0079814
0.0117186
0.0143916
0.0155443
0.0169779
0.0169591
0.0154475
0.00924986
-0.00235768
-0.0225148
-0.0455215
-0.0552904
-0.0500037
-0.0325729
-0.0182167
-0.00432742
0.0058407
0.0128666
0.0241907
0.0226371
0.0219877
0.00892657
-0.00436093
-0.121299
-0.127271
-0.12634
-0.12091
-0.114079
-0.107219
-0.100268
-0.0927253
-0.0842839
-0.0749627
-0.0649649
-0.0545243
-0.0438446
-0.0331104
-0.0225211
-0.0123016
-0.00270482
0.00599699
0.013525
0.0195908
0.0239048
0.0261838
0.0261866
0.0237944
0.0190771
0.0123005
0.00411949
-0.00428374
-0.011368
-0.0159474
-0.0176009
-0.0166939
-0.0137163
-0.00952738
-0.00464837
0.000361877
0.00524331
0.00961967
0.0130697
0.0157154
0.017093
0.0188845
0.0193846
0.0184996
0.0136254
0.00379568
-0.0139303
-0.03503
-0.044596
-0.0408245
-0.0262345
-0.0139026
-0.00145802
0.00802981
0.0143582
0.0247683
0.023389
0.0228531
0.0102453
-0.00362893
-0.107487
-0.112823
-0.112238
-0.107724
-0.101931
-0.0960771
-0.090149
-0.083725
-0.0765299
-0.0685601
-0.0599762
-0.0509743
-0.0417301
-0.0324037
-0.0231655
-0.0142085
-0.00575153
0.0019701
0.0087158
0.0142404
0.0183047
0.0206857
0.0212037
0.0197768
0.0164756
0.0115392
0.00549368
-0.000800359
-0.00628718
-0.010037
-0.0116155
-0.0111692
-0.00896488
-0.00562614
-0.00156971
0.00272608
0.00703286
0.011031
0.0142391
0.0168495
0.0184314
0.020552
0.0216863
0.0215898
0.0181443
0.00992183
-0.00561201
-0.0247343
-0.0339288
-0.0316028
-0.0198547
-0.00960227
0.00131556
0.0101169
0.0158784
0.0251325
0.0240194
0.0235523
0.0116687
-0.0026069
-0.0949363
-0.0996477
-0.0993444
-0.0956358
-0.0907676
-0.0858163
-0.0808049
-0.0753814
-0.0692993
-0.0625392
-0.0552272
-0.0475267
-0.0395873
-0.0315464
-0.0235479
-0.0157553
-0.00835578
-0.00154841
0.00446275
0.00947088
0.0132793
0.0157121
0.0166339
0.0159905
0.0138477
0.010408
0.00608611
0.00151556
-0.00260898
-0.00554257
-0.00688621
-0.00666093
-0.00498704
-0.00229834
0.00108886
0.00477814
0.0085681
0.0122102
0.0152144
0.0177946
0.0195708
0.0219481
0.0237916
0.0246095
0.022573
0.0156143
0.00192805
-0.0151456
-0.023745
-0.0227012
-0.0136589
-0.0054175
0.00395402
0.0120696
0.0174572
0.0253771
0.0246442
0.0241354
0.0132054
-0.00126537
-0.0834682
-0.0876661
-0.0876081
-0.0845937
-0.0805338
-0.0763806
-0.0721816
-0.0676435
-0.0625466
-0.0568604
-0.0506824
-0.0441481
-0.0373836
-0.0305042
-0.0236317
-0.0169023
-0.0104715
-0.0045064
0.000820727
0.00533915
0.00888768
0.0113279
0.0125569
0.0125376
0.0113258
0.00908342
0.00613219
0.0029259
-2.19251e-05
-0.00219052
-0.00321608
-0.00304864
-0.00171868
0.000485887
0.00333697
0.00651902
0.00985511
0.0131619
0.0159849
0.0185353
0.0204919
0.0230341
0.02541
0.0271549
0.0263073
0.0203145
0.00828339
-0.00660896
-0.0144354
-0.014471
-0.00787054
-0.00145649
0.00642333
0.013863
0.0190794
0.0256145
0.0253841
0.0246633
0.0148237
0.000369454
-0.0731073
-0.0768326
-0.0769462
-0.0745167
-0.0711608
-0.0677096
-0.0642254
-0.0604645
-0.0562322
-0.0514912
-0.0463156
-0.0408162
-0.035099
-0.0292602
-0.0233994
-0.0176286
-0.0120765
-0.00688146
-0.00218573
0.00187185
0.0051592
0.00756655
0.00901521
0.00947867
0.00900082
0.00770601
0.00583547
0.00369264
0.00173199
0.000253129
-0.000422522
-0.000210551
0.000912422
0.00276598
0.00519399
0.00795616
0.0108999
0.0138936
0.0165482
0.0190514
0.0211558
0.0237825
0.0264422
0.0287633
0.028696
0.0235664
0.0132447
0.000654365
-0.00631443
-0.00720249
-0.00267765
0.00217735
0.00869339
0.0154722
0.0206559
0.0259463
0.0263082
0.025179
0.0164209
0.00217647
-0.0637829
-0.0670439
-0.0672707
-0.0653321
-0.0625872
-0.0597511
-0.0568907
-0.0538051
-0.0503241
-0.046407
-0.0421092
-0.0375202
-0.0327275
-0.0278098
-0.0228479
-0.0179344
-0.0131741
-0.00867702
-0.00455842
-0.000932534
0.00209359
0.00443267
0.00602306
0.00684392
0.00692865
0.0063749
0.00535472
0.00408025
0.00288014
0.00199069
0.00165671
0.0019703
0.00298233
0.00458779
0.00668673
0.00910283
0.0117102
0.0144147
0.0169039
0.0193284
0.0215263
0.0241581
0.0267923
0.0291961
0.029516
0.0252787
0.0167667
0.00646144
0.000379824
-0.00108083
0.0017993
0.00540276
0.0107413
0.0168636
0.02202
0.0264001
0.027372
0.0256753
0.0178117
0.00392394
-0.0553398
-0.0582028
-0.0585171
-0.0569909
-0.0547648
-0.0524563
-0.0501333
-0.0476293
-0.0447955
-0.0415899
-0.0380531
-0.0342568
-0.030272
-0.0261628
-0.021994
-0.01784
-0.0137837
-0.00991256
-0.00632013
-0.00309801
-0.000332292
0.00190762
0.00357159
0.00464339
0.0051456
0.00515035
0.00477764
0.00418334
0.00359056
0.00318835
0.00316412
0.00360373
0.00456784
0.00600139
0.0078467
0.00997776
0.0122976
0.0147354
0.0170547
0.0193612
0.0215755
0.0241684
0.0265076
0.0286427
0.0290628
0.0256999
0.0189444
0.0107574
0.00557377
0.00383717
0.0055197
0.00817116
0.0125473
0.017998
0.022985
0.0268666
0.0283749
0.0260638
0.0187678
0.00532946
-0.0477196
-0.0502379
-0.0506263
-0.0494389
-0.0476389
-0.0457779
-0.0439118
-0.0419042
-0.0396235
-0.0370271
-0.0341442
-0.0310316
-0.0277463
-0.0243399
-0.0208646
-0.0173769
-0.0139407
-0.0106281
-0.00751303
-0.00466676
-0.0021585
-4.36426e-05
0.00163645
0.00286739
0.0036648
0.00408672
0.00418148
0.00410235
0.00398762
0.00398065
0.00422252
0.00478992
0.00574336
0.00705872
0.00870864
0.0106044
0.0126772
0.0148673
0.0170075
0.0191557
0.0212887
0.0239009
0.025693
0.0274427
0.0278152
0.0252263
0.0200234
0.0136875
0.00939085
0.0076313
0.00851165
0.0104646
0.0140784
0.0188367
0.0234457
0.0271028
0.028979
0.0261449
0.0190905
0.0061957
-0.0408741
-0.043076
-0.0435059
-0.0426123
-0.0411934
-0.0396931
-0.0381962
-0.0366051
-0.0347902
-0.0327097
-0.030383
-0.0278545
-0.02517
-0.02237
-0.0194937
-0.0165852
-0.0136971
-0.0108796
-0.00819314
-0.00569363
-0.00343674
-0.00146733
0.000180459
0.00149256
0.00247538
0.00315496
0.00362139
0.00392449
0.00417438
0.00447635
0.0049359
0.00561831
0.00657901
0.00781161
0.00930918
0.0110094
0.0128672
0.0148284
0.0167822
0.0187296
0.020594
0.0222076
0.024413
0.0258913
0.0261787
0.024235
0.0203246
0.0155308
0.0120633
0.0104509
0.0108377
0.0122905
0.0152878
0.0193367
0.0234138
0.0268536
0.0288375
0.0256639
0.018686
0.00650152
-0.0347195
-0.0366343
-0.0370842
-0.0364256
-0.0353191
-0.0341507
-0.0329871
-0.0317253
-0.0302869
-0.0286319
-0.0267751
-0.0247409
-0.0225663
-0.0202834
-0.0179219
-0.0155165
-0.0131099
-0.0107235
-0.00841933
-0.00623916
-0.00422683
-0.00241642
-0.000839142
0.000490605
0.00158591
0.00245804
0.00315249
0.00372059
0.00423291
0.00476427
0.00539157
0.00616732
0.00713944
0.00831035
0.00968558
0.011221
0.0128905
0.0146434
0.0164099
0.0181596
0.0198375
0.0214106
0.0230697
0.024228
0.0244301
0.0230037
0.0201216
0.0165738
0.01384
0.0124617
0.0125723
0.0136676
0.0161352
0.0194738
0.0229331
0.0259689
0.0277594
0.0244818
0.017615
0.00636083
-0.0291842
-0.0308482
-0.0313048
-0.0308358
-0.0299864
-0.0290826
-0.0281838
-0.027217
-0.0261039
-0.0248094
-0.023334
-0.0217092
-0.0199617
-0.0181151
-0.0161919
-0.0142144
-0.0122056
-0.010209
-0.00825143
-0.00636727
-0.00459079
-0.00295033
-0.00147216
-0.000158555
0.00097413
0.00195044
0.00279077
0.0035328
0.00422328
0.00491467
0.00566163
0.00650467
0.00748308
0.00860248
0.0098753
0.0112691
0.0127724
0.014337
0.0159215
0.0174833
0.0189832
0.0203913
0.0216857
0.0225797
0.0227198
0.021701
0.0196126
0.0170452
0.0149374
0.0138176
0.0137899
0.0146196
0.0166075
0.0192583
0.0220709
0.0245093
0.0258672
0.0226796
0.0160664
0.00591973
-0.0242184
-0.0256609
-0.0261122
-0.0257942
-0.0251552
-0.0244691
-0.0237896
-0.0230586
-0.0222083
-0.0212066
-0.0200552
-0.0187731
-0.0173812
-0.0158976
-0.0143402
-0.0127265
-0.0110759
-0.00941279
-0.00776149
-0.00614544
-0.00459571
-0.00313132
-0.00176866
-0.000519361
0.000611013
0.00162837
0.00254594
0.00338957
0.00418952
0.00498191
0.00580464
0.00668758
0.00766159
0.00873251
0.00991511
0.0111846
0.0125388
0.0139335
0.0153466
0.0167303
0.018052
0.019272
0.0203107
0.0210099
0.0211182
0.0204176
0.0189317
0.0171121
0.0155225
0.0146474
0.0145594
0.0151804
0.0167252
0.0187364
0.0209212
0.0226829
0.0234631
0.0204794
0.0142779
0.00530846
-0.0197696
-0.0210154
-0.0214522
-0.0212534
-0.0207858
-0.0202774
-0.0197764
-0.019236
-0.0185996
-0.0178384
-0.0169518
-0.0159533
-0.0148583
-0.0136803
-0.0124317
-0.011125
-0.0097754
-0.00839952
-0.00701598
-0.00564519
-0.00430357
-0.00301154
-0.00177865
-0.000615689
0.000469482
0.00147947
0.00242054
0.00330876
0.00416295
0.00500725
0.00586718
0.00676368
0.00772001
0.00874063
0.00983963
0.0109972
0.0122168
0.0134594
0.0147131
0.0159307
0.0170837
0.0181283
0.0189809
0.0195472
0.0196501
0.0191939
0.0181588
0.016897
0.0157238
0.0150587
0.0149473
0.0153935
0.0165372
0.0179782
0.0195683
0.0204698
0.0208457
0.01812
0.0124552
0.00463421
-0.0157858
-0.016859
-0.0172757
-0.0171703
-0.0168408
-0.0164763
-0.016119
-0.0157319
-0.0152677
-0.0147011
-0.01403
-0.0132636
-0.0124134
-0.0114889
-0.0104987
-0.00945157
-0.00835808
-0.00723016
-0.00608194
-0.00492708
-0.00377949
-0.00265038
-0.00155216
-0.000493308
0.000519748
0.00148727
0.00241085
0.00329969
0.00416461
0.00502108
0.00588553
0.00677179
0.00769655
0.00866216
0.00968074
0.0107362
0.0118332
0.0129389
0.0140465
0.0151136
0.0161146
0.0170079
0.0177227
0.0182011
0.0183152
0.0180429
0.0173412
0.0164874
0.0156389
0.0151401
0.0150176
0.0153118
0.0161062
0.0170575
0.0181295
0.0184784
0.0182931
0.0157937
0.0107318
0.00397446
-0.0122239
-0.0131462
-0.013539
-0.0135054
-0.0132862
-0.0130371
-0.0127945
-0.0125293
-0.0122025
-0.0117921
-0.0112949
-0.0107171
-0.0100671
-0.00935162
-0.00857615
-0.00774646
-0.00686977
-0.00595428
-0.00501033
-0.00404777
-0.00307587
-0.00210315
-0.00114005
-0.000193473
0.000730708
0.00163148
0.00250796
0.00336476
0.00420726
0.00504473
0.00588709
0.00674267
0.0076228
0.00852781
0.00946699
0.010427
0.0114123
0.0123949
0.0133702
0.0143037
0.0151721
0.0159401
0.0165507
0.01697
0.0171029
0.0169668
0.0165082
0.0159432
0.0153375
0.0149352
0.0148328
0.0149933
0.0154923
0.0160344
0.0166612
0.0165756
0.0159424
0.0136246
0.00917495
0.00337342
-0.0090452
-0.00983543
-0.0102018
-0.0102225
-0.0100906
-0.00993307
-0.00978124
-0.00961221
-0.00939403
-0.0091079
-0.00874996
-0.00832442
-0.00783713
-0.00729268
-0.0066945
-0.00604596
-0.00535178
-0.0046174
-0.00385003
-0.00305657
-0.00224377
-0.00141747
-0.000585619
0.000245902
0.00107173
0.00189027
0.00269948
0.00350108
0.00429697
0.00509199
0.00589154
0.00669999
0.00752422
0.00836316
0.0092231
0.0100926
0.0109751
0.0118476
0.0127056
0.013521
0.0142743
0.0149385
0.0154695
0.0158477
0.016
0.0159611
0.0156775
0.0153124
0.0148862
0.0145914
0.0144619
0.0144954
0.0147476
0.0149546
0.0151583
0.0147954
0.0138516
0.0116804
0.00780853
0.00284883
-0.00621394
-0.00688913
-0.00722797
-0.00728891
-0.00722543
-0.00714016
-0.00705946
-0.00696555
-0.0068325
-0.00664441
-0.00639728
-0.00609373
-0.00573779
-0.00533245
-0.00487971
-0.0043813
-0.00383992
-0.00325907
-0.00264331
-0.00199702
-0.00132673
-0.000635405
7.14871e-05
0.000789413
0.00151337
0.00224129
0.00297077
0.00370192
0.00443452
0.00517046
0.00591207
0.00666089
0.00742063
0.00818896
0.00896958
0.00975285
0.01054
0.0113135
0.0120678
0.0127795
0.0134329