/*--------------------------------*- C++ -*----------------------------------*\
| =========                 |                                                 |
| \\      /  F ield         | OpenFOAM: The Open Source CFD Toolbox           |
|  \\    /   O peration     | Version:  2512                                  |
|   \\  /    A nd           | Website:  www.openfoam.com                      |
|    \\/     M anipulation  |                                                 |
\*---------------------------------------------------------------------------*/
FoamFile
{
    version     2.0;
    format      ascii;
    arch        "LSB;label=32;scalar=64";
    class       volScalarField;
    location    "133.5";
    object      p;
}
// * * * * * * * * * * * * * * * * * * * * * * * * * * * * * * * * * * * * * //

dimensions      [0 2 -2 0 0 0 0];

internalField   nonuniform List<scalar> 
13248
(
-0.338882
-0.337564
-0.334959
-0.33136
-0.327087
-0.322451
-0.317744
-0.313259
-0.309239
-0.305863
-0.303231
-0.301344
-0.30011
-0.299344
-0.298795
-0.298171
-0.297173
-0.295531
-0.293015
-0.289496
-0.284746
-0.278878
-0.27077
-0.261213
-0.347107
-0.344967
-0.341745
-0.337694
-0.333093
-0.328225
-0.323344
-0.318663
-0.314341
-0.310465
-0.307045
-0.30401
-0.301221
-0.298491
-0.295609
-0.292374
-0.28861
-0.28419
-0.279028
-0.273066
-0.266233
-0.258501
-0.249562
-0.240203
-0.35751
-0.35429
-0.350263
-0.345633
-0.340598
-0.335396
-0.330207
-0.32514
-0.320244
-0.315508
-0.310875
-0.306245
-0.301505
-0.296537
-0.291243
-0.285553
-0.279427
-0.272853
-0.26582
-0.258326
-0.250316
-0.241827
-0.232641
-0.223362
-0.369978
-0.365469
-0.360484
-0.355152
-0.349556
-0.343856
-0.338122
-0.332341
-0.326451
-0.320377
-0.314051
-0.307427
-0.300482
-0.293226
-0.285687
-0.277908
-0.269929
-0.261779
-0.253468
-0.244989
-0.236315
-0.227466
-0.218319
-0.209447
-0.384419
-0.37847
-0.372418
-0.366279
-0.359967
-0.353525
-0.346893
-0.339935
-0.332527
-0.324604
-0.316174
-0.307309
-0.298122
-0.288739
-0.279278
-0.269829
-0.26045
-0.251164
-0.241965
-0.232836
-0.223748
-0.214696
-0.205607
-0.196846
-0.400734
-0.393251
-0.386069
-0.379025
-0.371792
-0.364258
-0.356234
-0.347521
-0.338024
-0.327787
-0.316969
-0.30579
-0.294476
-0.283224
-0.272173
-0.261407
-0.250958
-0.240822
-0.230973
-0.221376
-0.211996
-0.202807
-0.193766
-0.185104
-0.418742
-0.409689
-0.401343
-0.393267
-0.384813
-0.375699
-0.36567
-0.354573
-0.342464
-0.329582
-0.316264
-0.302851
-0.289624
-0.27678
-0.264431
-0.252619
-0.241336
-0.230548
-0.220209
-0.210267
-0.20068
-0.191405
-0.182416
-0.173805
-0.43809
-0.42749
-0.417951
-0.408647
-0.398549
-0.387246
-0.374541
-0.360481
-0.345378
-0.329702
-0.313935
-0.29847
-0.283575
-0.269395
-0.255983
-0.243327
-0.231381
-0.220083
-0.209369
-0.199176
-0.189449
-0.18014
-0.171225
-0.162686
-0.458194
-0.446133
-0.435352
-0.424525
-0.41224
-0.398078
-0.382079
-0.36463
-0.346358
-0.327928
-0.30989
-0.292614
-0.276297
-0.261006
-0.246723
-0.233389
-0.22092
-0.209234
-0.198248
-0.187888
-0.17809
-0.168802
-0.159987
-0.151547
-0.478207
-0.464826
-0.452707
-0.439957
-0.424872
-0.407223
-0.387477
-0.366451
-0.345056
-0.32407
-0.304023
-0.285199
-0.267695
-0.251492
-0.236508
-0.222639
-0.209774
-0.197809
-0.186647
-0.176202
-0.166401
-0.157186
-0.148496
-0.140195
-0.497044
-0.482508
-0.468889
-0.453731
-0.435242
-0.413619
-0.3899
-0.365335
-0.341034
-0.317785
-0.296024
-0.275914
-0.257445
-0.240517
-0.224993
-0.210733
-0.197601
-0.185473
-0.174241
-0.163805
-0.154082
-0.145005
-0.136477
-0.128376
-0.513482
-0.497992
-0.482674
-0.464596
-0.44215
-0.416201
-0.388441
-0.360497
-0.333575
-0.30838
-0.285204
-0.264074
-0.244872
-0.227424
-0.211546
-0.197062
-0.183816
-0.171667
-0.160493
-0.150185
-0.140655
-0.13182
-0.123557
-0.115795
-0.336726
-0.338672
-0.339761
-0.340365
-0.340852
-0.341366
-0.341995
-0.342796
-0.343804
-0.345047
-0.346556
-0.348372
-0.350553
-0.353166
-0.356293
-0.360017
-0.364422
-0.369575
-0.375518
-0.382255
-0.389729
-0.397775
-0.406145
-0.414695
-0.335191
-0.336354
-0.336922
-0.337129
-0.337243
-0.337409
-0.337732
-0.338293
-0.339153
-0.340372
-0.342015
-0.344163
-0.346915
-0.350385
-0.354693
-0.359961
-0.366295
-0.373772
-0.382419
-0.392195
-0.403001
-0.414548
-0.426436
-0.438353
-0.334217
-0.334591
-0.334624
-0.334418
-0.334139
-0.333927
-0.333904
-0.334171
-0.334816
-0.335922
-0.337584
-0.33991
-0.343025
-0.347069
-0.352184
-0.358509
-0.366154
-0.375188
-0.385613
-0.397349
-0.410209
-0.423873
-0.437819
-0.451474
-0.333391
-0.333063
-0.332593
-0.331967
-0.331264
-0.330617
-0.330168
-0.330039
-0.330344
-0.33119
-0.332692
-0.334975
-0.338179
-0.342454
-0.347947
-0.354791
-0.363088
-0.372886
-0.384161
-0.396794
-0.410555
-0.425073
-0.439915
-0.454007
-0.332427
-0.331571
-0.330671
-0.329631
-0.328468
-0.327317
-0.326338
-0.325683
-0.325491
-0.325896
-0.327031
-0.329033
-0.332047
-0.33622
-0.341693
-0.348582
-0.356969
-0.366874
-0.378243
-0.390924
-0.404674
-0.41902
-0.433505
-0.446165
-0.331207
-0.330048
-0.328817
-0.327382
-0.325731
-0.32401
-0.322401
-0.32109
-0.320248
-0.32004
-0.320617
-0.322131
-0.324728
-0.328548
-0.333717
-0.340333
-0.348449
-0.358053
-0.369055
-0.381237
-0.394342
-0.407567
-0.42168
-0.432804
-0.329794
-0.328565
-0.327112
-0.325309
-0.32316
-0.320827
-0.318523
-0.316468
-0.314873
-0.313937
-0.313837
-0.31474
-0.316794
-0.320136
-0.324876
-0.331089
-0.338799
-0.347933
-0.358389
-0.369868
-0.382181
-0.394161
-0.406863
-0.415404
-0.328437
-0.327329
-0.325743
-0.323606
-0.32097
-0.318028
-0.315023
-0.312215
-0.309856
-0.308181
-0.307397
-0.307686
-0.309207
-0.312085
-0.316405
-0.322211
-0.329476
-0.338104
-0.347871
-0.358358
-0.369393
-0.379509
-0.39013
-0.395711
-0.327545
-0.326663
-0.324992
-0.322548
-0.319464
-0.315965
-0.312331
-0.308857
-0.305834
-0.303529
-0.302176
-0.301971
-0.303068
-0.305575
-0.309545
-0.314946
-0.321672
-0.329514
-0.338173
-0.347127
-0.356136
-0.363744
-0.371172
-0.373267
-0.327647
-0.326971
-0.325208
-0.322482
-0.31901
-0.315057
-0.310933
-0.306962
-0.303462
-0.30072
-0.298983
-0.29844
-0.299223
-0.301386
-0.304903
-0.309656
-0.31543
-0.321913
-0.328726
-0.335364
-0.34152
-0.346151
-0.34994
-0.348832
-0.329298
-0.32868
-0.326761
-0.32376
-0.31997
-0.315687
-0.311238
-0.306962
-0.303183
-0.300184
-0.298195
-0.297372
-0.297785
-0.299412
-0.302129
-0.305715
-0.309856
-0.314178
-0.318269
-0.321753
-0.324366
-0.325747
-0.326336
-0.32331
-0.332959
-0.332149
-0.32995
-0.32666
-0.322601
-0.318087
-0.313453
-0.30902
-0.30509
-0.301916
-0.299676
-0.29846
-0.298257
-0.298954
-0.300337
-0.302112
-0.303924
-0.305407
-0.306193
-0.306043
-0.304702
-0.302348
-0.299232
-0.295162
-0.42515
-0.435296
-0.442121
-0.443645
-0.437796
-0.423314
-0.399495
-0.366772
-0.327214
-0.284383
-0.242687
-0.206182
-0.177683
-0.158699
-0.149997
-0.152037
-0.164046
-0.18215
-0.198793
-0.205005
-0.196267
-0.173427
-0.14414
-0.116581
-0.0958172
-0.0834851
-0.0789333
-0.0808799
-0.0897346
-0.107312
-0.131442
-0.1524
-0.15784
-0.145075
-0.120689
-0.0956791
-0.0772105
-0.0661384
-0.0612861
-0.0636708
-0.0740601
-0.0863383
-0.0901809
-0.0826965
-0.0701104
-0.058814
-0.0515257
-0.0489319
-0.0519765
-0.0565187
-0.0559813
-0.0520102
-0.0459728
-0.0382702
-0.0333697
-0.0288115
-0.0256129
-0.0255293
-0.0203252
-0.00558891
-0.453089
-0.466403
-0.475131
-0.477739
-0.472057
-0.456357
-0.42982
-0.392992
-0.348197
-0.29945
-0.251611
-0.209081
-0.174897
-0.150499
-0.136313
-0.132553
-0.138793
-0.152285
-0.166798
-0.174199
-0.16892
-0.151564
-0.128051
-0.105558
-0.0889734
-0.0801689
-0.0786621
-0.0834133
-0.0953166
-0.116321
-0.143559
-0.166275
-0.171163
-0.156045
-0.128521
-0.100351
-0.0789974
-0.0654405
-0.0583355
-0.0581849
-0.0659565
-0.0761695
-0.0796454
-0.0736581
-0.0638347
-0.0554144
-0.0505705
-0.0505583
-0.0559207
-0.0625406
-0.06207
-0.0567829
-0.0490392
-0.0393276
-0.0329494
-0.0263371
-0.0224349
-0.021881
-0.0172558
-0.00475608
-0.469106
-0.484443
-0.494342
-0.497827
-0.492448
-0.476162
-0.448048
-0.40866
-0.360434
-0.307633
-0.255385
-0.208345
-0.169654
-0.140665
-0.121586
-0.112328
-0.112747
-0.12117
-0.132868
-0.140786
-0.138952
-0.127089
-0.109442
-0.0921957
-0.0800239
-0.0749411
-0.0765672
-0.0841215
-0.0989002
-0.122901
-0.152778
-0.177101
-0.181897
-0.164951
-0.134835
-0.103958
-0.0800735
-0.0642779
-0.0551304
-0.0526198
-0.0578718
-0.0660765
-0.069174
-0.0645645
-0.0573478
-0.0516647
-0.0492715
-0.0519532
-0.0597552
-0.0685121
-0.0680846
-0.0613332
-0.051846
-0.040208
-0.0324704
-0.023921
-0.0193063
-0.0182381
-0.0141861
-0.00392535
-0.472649
-0.489026
-0.499737
-0.503886
-0.498882
-0.48253
-0.453881
-0.413482
-0.363784
-0.309118
-0.254698
-0.20517
-0.163573
-0.13116
-0.108022
-0.0939292
-0.0887309
-0.0916751
-0.0996774
-0.10707
-0.108171
-0.101155
-0.0890807
-0.076974
-0.0692016
-0.0677794
-0.0723902
-0.0824955
-0.0997173
-0.126161
-0.158309
-0.184246
-0.189485
-0.171504
-0.139462
-0.10643
-0.0804695
-0.062759
-0.0518285
-0.0472085
-0.0501204
-0.0564025
-0.0590639
-0.0556427
-0.0507789
-0.0476248
-0.0476137
-0.053022
-0.0633348
-0.0742845
-0.073904
-0.0655917
-0.0543518
-0.0408932
-0.0319286
-0.0215822
-0.0162534
-0.0146395
-0.0111429
-0.00310399
-0.464678
-0.481287
-0.49249
-0.497215
-0.492581
-0.476535
-0.448293
-0.408417
-0.359278
-0.305086
-0.250831
-0.200865
-0.158003
-0.123407
-0.0971298
-0.0789085
-0.0686371
-0.0660819
-0.0696051
-0.0752337
-0.078122
-0.0748678
-0.0677815
-0.0604103
-0.0567347
-0.0586588
-0.0659307
-0.0782056
-0.0973474
-0.125682
-0.159702
-0.187267
-0.193522
-0.175504
-0.142358
-0.1078
-0.0802621
-0.0609995
-0.048572
-0.0421295
-0.0429218
-0.0474067
-0.0495786
-0.047098
-0.0442509
-0.0433459
-0.0455712
-0.0536649
-0.0665049
-0.0796742
-0.0793896
-0.069492
-0.0565245
-0.0413698
-0.0313193
-0.0193368
-0.0132995
-0.011121
-0.00815173
-0.00229889
-0.449157
-0.463474
-0.474827
-0.47987
-0.475534
-0.460048
-0.43304
-0.395085
-0.348367
-0.296771
-0.244791
-0.196266
-0.153681
-0.118129
-0.0897145
-0.068203
-0.0535307
-0.0457912
-0.0444211
-0.0470826
-0.0499498
-0.0495481
-0.0465031
-0.0431419
-0.0429852
-0.0477707
-0.0572881
-0.0713016
-0.0918146
-0.121401
-0.156846
-0.186026
-0.193796
-0.17684
-0.143509
-0.108118
-0.0795214
-0.0590847
-0.0454534
-0.0374848
-0.0364221
-0.0392715
-0.0409184
-0.0391077
-0.037879
-0.0388821
-0.0431304
-0.0537912
-0.0691015
-0.0844868
-0.0844066
-0.072983
-0.0583397
-0.0416267
-0.0306314
-0.0171945
-0.0104636
-0.00771529
-0.00523409
-0.00151614
-0.428552
-0.439969
-0.449537
-0.45428
-0.449998
-0.435327
-0.410378
-0.375617
-0.332915
-0.285636
-0.237577
-0.19195
-0.150883
-0.115422
-0.0858139
-0.061932
-0.0437338
-0.0314498
-0.0252054
-0.0240478
-0.0255148
-0.0265743
-0.0261632
-0.025924
-0.0285496
-0.0355783
-0.0468234
-0.0620789
-0.0833857
-0.113556
-0.149944
-0.180701
-0.190285
-0.175514
-0.14294
-0.107444
-0.0783056
-0.0570717
-0.0425261
-0.0333187
-0.0306708
-0.0320823
-0.0332083
-0.0318164
-0.031769
-0.0343075
-0.0402968
-0.0533198
-0.0709742
-0.0885539
-0.088814
-0.0760008
-0.0597772
-0.0416572
-0.0298559
-0.0151564
-0.00775817
-0.0044508
-0.00240637
-0.000761561
-0.404541
-0.410847
-0.418527
-0.422726
-0.418285
-0.404854
-0.382824
-0.352326
-0.314819
-0.273027
-0.229946
-0.188161
-0.149487
-0.114942
-0.0849445
-0.0595639
-0.0388098
-0.0229025
-0.012263
-0.00691513
-0.00571446
-0.00650251
-0.00746242
-0.0094707
-0.0140806
-0.022636
-0.035002
-0.0509894
-0.0725724
-0.102739
-0.139546
-0.171787
-0.18324
-0.171692
-0.140722
-0.105831
-0.0766549
-0.0549936
-0.0398192
-0.0296478
-0.0256773
-0.025847
-0.0264872
-0.0253287
-0.0260252
-0.0297082
-0.0370995
-0.0521959
-0.0719996
-0.0917318
-0.0924392
-0.0784813
-0.0608273
-0.0414621
-0.0290004
-0.01323
-0.00518824
-0.00135004
0.000319966
-4.12376e-05
-0.376157
-0.377832
-0.384247
-0.387601
-0.383089
-0.371543
-0.353153
-0.327581
-0.295869
-0.260057
-0.222371
-0.184836
-0.149028
-0.115967
-0.0862312
-0.0601061
-0.037718
-0.0192376
-0.00508264
0.00425393
0.00887255
0.00992903
0.00885167
0.00568381
-6.926e-05
-0.00943607
-0.0222972
-0.0385113
-0.0599346
-0.0897372
-0.126603
-0.160174
-0.172941
-0.165758
-0.137054
-0.103457
-0.074731
-0.0529825
-0.0374351
-0.0265304
-0.0214597
-0.0205622
-0.020748
-0.0196761
-0.0207337
-0.0251859
-0.0335674
-0.0503776
-0.0721009
-0.0939136
-0.0951565
-0.0803957
-0.0615118
-0.0410609
-0.0280851
-0.0114557
-0.00276564
0.00157004
0.00293869
0.000638836
-0.34589
-0.344469
-0.350063
-0.352276
-0.347999
-0.338876
-0.324418
-0.303879
-0.277937
-0.247983
-0.21558
-0.182294
-0.149503
-0.11825
-0.0892505
-0.0629628
-0.03965
-0.0194797
-0.00277135
0.00990914
0.0180908
0.0219542
0.0222132
0.0191732
0.0131814
0.00363193
-0.0092021
-0.0252616
-0.046315
-0.0754241
-0.111945
-0.146983
-0.159514
-0.158275
-0.13233
-0.100743
-0.0729215
-0.0513372
-0.03559
-0.0240902
-0.0180382
-0.0162007
-0.0159949
-0.0149325
-0.0159708
-0.0208065
-0.029786
-0.0479071
-0.0712116
-0.0950362
-0.0968858
-0.0817379
-0.0618669
-0.0404881
-0.0271023
-0.00986623
-0.00052296
0.0042817
0.00544861
0.0012724
-0.317087
-0.315098
-0.319676
-0.320265
-0.316495
-0.309901
-0.299171
-0.283383
-0.262868
-0.238427
-0.211078
-0.181976
-0.15228
-0.123017
-0.0950118
-0.0688787
-0.0450201
-0.0237069
-0.005166
0.0101743
0.0216826
0.0289286
0.0319973
0.0303691
0.0252002
0.0162341
0.00402283
-0.0114411
-0.0318724
-0.0604164
-0.09703
-0.133848
-0.163735
-0.149888
-0.126296
-0.0974588
-0.0710289
-0.0498367
-0.0340664
-0.0221365
-0.0152049
-0.0124878
-0.0120253
-0.0111143
-0.0119444
-0.0167327
-0.0257008
-0.0447012
-0.0694361
-0.0951322
-0.0974833
-0.0824308
-0.0618048
-0.0396941
-0.025963
-0.00834119
0.00155365
0.00674121
0.00784771
0.00185384
-0.291686
-0.292206
-0.294092
-0.291786
-0.287817
-0.282596
-0.274386
-0.262271
-0.246201
-0.226497
-0.203742
-0.178716
-0.152317
-0.125469
-0.099025
-0.0736978
-0.0500355
-0.0284417
-0.00921416
0.00736189
0.0209174
0.0310921
0.0376
0.0387074
0.0349667
0.0272182
0.0160985
0.00150055
-0.0180927
-0.0454949
-0.0807885
-0.116993
-0.143303
-0.136082
-0.116665
-0.091211
-0.0667899
-0.0465795
-0.0313412
-0.0195391
-0.0122178
-0.00882726
-0.00819118
-0.00757181
-0.00831495
-0.0130877
-0.0217593
-0.0410659
-0.0666176
-0.0939866
-0.0969233
-0.082224
-0.0610152
-0.0384138
-0.0245309
-0.00658686
0.00362861
0.00905326
0.0101306
0.00236954
-0.269551
-0.280072
-0.27893
-0.273736
-0.268323
-0.262382
-0.254228
-0.242749
-0.227698
-0.209376
-0.188338
-0.16526
-0.140896
-0.116028
-0.0913936
-0.0676159
-0.0451765
-0.0244493
-0.00572403
0.0107557
0.0247078
0.035844
0.0445349
0.0469471
0.045139
0.039143
0.0296389
0.0164046
-0.00257494
-0.0310908
-0.0693996
-0.108265
-0.136934
-0.12733
-0.107636
-0.0832197
-0.0603297
-0.0414934
-0.0272648
-0.0160652
-0.00895373
-0.00532398
-0.0044903
-0.0035412
-0.00316308
-0.00792535
-0.0162317
-0.0361384
-0.0632032
-0.0931277
-0.0974939
-0.0819428
-0.0597622
-0.0366885
-0.0229739
-0.00469221
0.00564521
0.0113969
0.0122735
0.00281495
-0.245231
-0.258988
-0.258395
-0.251778
-0.244974
-0.238475
-0.23059
-0.219949
-0.206189
-0.189613
-0.170749
-0.150149
-0.128382
-0.106047
-0.0837381
-0.0619928
-0.0412585
-0.0218918
-0.00417779
0.0116683
0.0254197
0.0366999
0.0441005
0.0495778
0.0497642
0.0456235
0.0379704
0.0263386
0.00817047
-0.0209086
-0.0601023
-0.0973094
-0.112312
-0.112867
-0.0953908
-0.0736608
-0.0533744
-0.0364339
-0.0234855
-0.0130872
-0.00624013
-0.00247925
-0.00161684
-0.00064053
-0.000345567
-0.00434777
-0.0120885
-0.0319664
-0.0598445
-0.0910238
-0.0960996
-0.0801787
-0.0577362
-0.0345802
-0.0210934
-0.00289444
0.0072963
0.0134379
0.013994
0.00319851
-0.222564
-0.236708
-0.236928
-0.230286
-0.223011
-0.21638
-0.208991
-0.199395
-0.187105
-0.172346
-0.155576
-0.137241
-0.117777
-0.0976538
-0.0773701
-0.0574077
-0.0381874
-0.0200549
-0.00329627
0.0118567
0.0251713
0.0363263
0.0446135
0.0503123
0.0516374
0.048843
0.0425398
0.031948
0.0141045
-0.0147458
-0.0518078
-0.0847009
-0.098838
-0.0977768
-0.0829193
-0.064288
-0.0466377
-0.0315289
-0.0197924
-0.0101942
-0.00368516
0.000127226
0.00103874
0.00201338
0.00225547
-0.00148442
-0.00905129
-0.0287599
-0.056462
-0.0874363
-0.093343
-0.0774936
-0.0551794
-0.0321895
-0.0190069
-0.00112793
0.00889134
0.0153254
0.0154925
0.0035721
-0.202125
-0.215028
-0.215838
-0.20988
-0.202787
-0.196246
-0.189301
-0.180622
-0.169635
-0.156469
-0.141514
-0.125158
-0.107757
-0.0896801
-0.0713357
-0.0531338
-0.0354528
-0.0186173
-0.00290517
0.0114417
0.0241854
0.0350522
0.0435072
0.0493778
0.0515646
0.049892
0.044717
0.0350421
0.0178922
-0.00932925
-0.0427258
-0.0713023
-0.0839869
-0.0824153
-0.0703041
-0.0548377
-0.0398652
-0.0266344
-0.0161331
-0.00738438
-0.00128456
0.00251592
0.00353325
0.00453396
0.00487154
0.001251
-0.00621798
-0.0254518
-0.0521961
-0.0825605
-0.0894001
-0.0739272
-0.0520645
-0.0295229
-0.016699
0.000622511
0.0104311
0.0170394
0.0168346
0.00393995
-0.182496
-0.194334
-0.195606
-0.190461
-0.183844
-0.177572
-0.171081
-0.163242
-0.153465
-0.14178
-0.128507
-0.113981
-0.0984927
-0.0823322
-0.0658242
-0.0493148
-0.0331431
-0.0176146
-0.00299965
0.0104585
0.0225233
0.0329558
0.0412028
0.0471006
0.049827
0.0490109
0.0448007
0.0361585
0.0204593
-0.003939
-0.0329778
-0.0571772
-0.0682228
-0.0671911
-0.0579505
-0.0456398
-0.0332782
-0.0218826
-0.0125797
-0.00468057
0.000963925
0.00469136
0.00584772
0.00689285
0.00738553
0.00395627
-0.00316393
-0.0214418
-0.0468863
-0.0764474
-0.0840957
-0.0693748
-0.0483672
-0.0265898
-0.0142
0.00235579
0.0118867
0.018538
0.0180036
0.00429168
-0.16401
-0.17497
-0.176483
-0.172057
-0.166044
-0.160212
-0.154247
-0.147223
-0.138576
-0.128268
-0.116543
-0.103689
-0.0899481
-0.0755529
-0.0607643
-0.0458727
-0.0311776
-0.0169617
-0.00348383
0.00901835
0.0203205
0.0302644
0.0380713
0.0438447
0.046852
0.0466571
0.0432473
0.0356896
0.021964
0.00118803
-0.0229539
-0.04291
-0.0527045
-0.0528371
-0.0463739
-0.0369546
-0.0269916
-0.0173321
-0.00917371
-0.00209915
0.00306314
0.00665744
0.00796685
0.00909832
0.00977855
0.00663012
0.000133032
-0.0168182
-0.0407045
-0.0690325
-0.0773944
-0.0638152
-0.0441049
-0.0234203
-0.0115495
0.00407014
0.0132371
0.0197852
0.0189476
0.00461802
-0.147096
-0.156942
-0.158512
-0.15474
-0.149394
-0.144112
-0.138729
-0.13249
-0.124883
-0.115833
-0.105524
-0.0941943
-0.0820526
-0.0692876
-0.0561097
-0.0427602
-0.029499
-0.0165829
-0.00425712
0.00724307
0.0176683
0.0266508
0.0343266
0.0399217
0.0430585
0.0433337
0.0406223
0.0341927
0.0227348
0.00589905
-0.0134367
-0.0297246
-0.0386021
-0.0399823
-0.0359164
-0.0289713
-0.0211138
-0.0130473
-0.00596174
0.000337715
0.00501518
0.0084305
0.00989608
0.01117
0.0120571
0.00925754
0.00353615
-0.0118029
-0.033752
-0.060387
-0.0693707
-0.0573006
-0.0393216
-0.0200573
-0.00879821
0.00576473
0.0144676
0.0207491
0.0196173
0.00491728
-0.131386
-0.140136
-0.141743
-0.138583
-0.133907
-0.129211
-0.124427
-0.118934
-0.112282
-0.104379
-0.0953624
-0.0854286
-0.0747535
-0.0634931
-0.0518177
-0.0399267
-0.0280432
-0.0163973
-0.00521677
0.00527339
0.0148391
0.0232083
0.0302927
0.0355994
0.0387625
0.0394092
0.037364
0.0321273
0.0229592
0.00975643
-0.00542294
-0.0186422
-0.026662
-0.0289694
-0.0267638
-0.0218127
-0.015725
-0.00907521
-0.00297889
0.00260793
0.006822
0.0100316
0.011648
0.0131233
0.0142327
0.0118354
0.00698372
-0.0064615
-0.0261558
-0.0507468
-0.0596047
-0.0499554
-0.0340947
-0.0165569
-0.00600562
0.00744105
0.0155716
0.0214097
0.0199835
0.00519486
-0.116743
-0.124598
-0.126234
-0.123613
-0.119565
-0.115444
-0.111247
-0.106459
-0.100686
-0.0938283
-0.085989
-0.0773296
-0.0679969
-0.0581206
-0.0478394
-0.0373179
-0.0267461
-0.0163275
-0.00626894
0.00322124
0.0119287
0.0196196
0.0261213
0.0310899
0.0342094
0.0351561
0.0337501
0.02967
0.0225296
0.0123395
0.000577379
-0.0100155
-0.0170649
-0.019851
-0.0189528
-0.0155289
-0.0108759
-0.00545021
-0.000250927
0.00468861
0.00848164
0.0114767
0.0132353
0.0149591
0.0163303
0.0144158
0.0105276
-0.000841887
-0.0181731
-0.0405324
-0.0494705
-0.0420362
-0.0285399
-0.0129852
-0.00323473
0.00910005
0.016556
0.0217707
0.0200467
0.00546239
-0.103346
-0.110347
-0.111947
-0.109789
-0.106319
-0.102748
-0.0991124
-0.0949829
-0.0900141
-0.0841068
-0.0773367
-0.0698363
-0.0617284
-0.0531207
-0.0441267
-0.0348824
-0.0255486
-0.0163022
-0.00732766
0.00118603
0.00904416
0.0160349
0.0219675
0.0265779
0.029608
0.0307873
0.0299516
0.0268943
0.0214408
0.0136821
0.00469713
-0.00360166
-0.00960901
-0.0124891
-0.0124236
-0.0101177
-0.00659247
-0.00219554
0.00220608
0.00655828
0.00998723
0.0127755
0.0146655
0.0166529
0.0183758
0.0170911
0.0142301
0.00490535
-0.010182
-0.0302424
-0.0392527
-0.0338503
-0.0228078
-0.00941334
-0.000545479
0.0107352
0.017444
0.02187
0.0198475
0.00573825
-0.0911394
-0.0972853
-0.0988133
-0.0970649
-0.0941266
-0.0910707
-0.0879585
-0.0844349
-0.0801974
-0.0751488
-0.0693448
-0.0628936
-0.0558983
-0.0484478
-0.0406355
-0.0325732
-0.024396
-0.0162559
-0.00831481
-0.000741693
0.00628907
0.0125861
0.0179675
0.0222171
0.0251262
0.0264748
0.0261257
0.0239455
0.0198847
0.0140866
0.0073415
0.00102299
-0.00397932
-0.00667577
-0.007067
-0.00554247
-0.00287898
0.000675193
0.00438483
0.00820112
0.011324
0.0139329
0.0159401
0.0181599
0.0203356
0.019892
0.0180734
0.0105242
-0.00265058
-0.02041
-0.0292608
-0.0257406
-0.0170793
-0.00591557
0.00201294
0.0123233
0.0182709
0.0217837
0.0194752
0.00604724
-0.0799472
-0.0853364
-0.0867978
-0.0854095
-0.0829481
-0.0803607
-0.0777268
-0.0747523
-0.0711729
-0.0668953
-0.061959
-0.0564525
-0.0504617
-0.0440605
-0.0373253
-0.0303477
-0.02324
-0.0161319
-0.00916359
-0.00248319
0.00375404
0.00937869
0.0142323
0.0181289
0.0208987
0.0223675
0.0224269
0.0209913
0.0180777
0.013845
0.00887715
0.00426232
0.000140992
-0.00218633
-0.00275553
-0.00174554
0.000279234
0.00315737
0.00628342
0.00961277
0.0124716
0.0149407
0.0170501
0.0194368
0.022082
0.022635
0.0217978
0.0156105
0.00395327
-0.0115069
-0.0199068
-0.0180459
-0.0115542
-0.00256807
0.00440241
0.0138196
0.0190681
0.0216137
0.0190615
0.00641408
-0.069731
-0.0744674
-0.0758513
-0.0747678
-0.0727283
-0.070562
-0.068359
-0.065876
-0.0628832
-0.0592922
-0.05513
-0.0504684
-0.0453788
-0.0399223
-0.0341612
-0.02817
-0.0220416
-0.0158846
-0.00982035
-0.00397714
0.00151122
0.0064991
0.0108524
0.0144082
0.0170292
0.0185787
0.0189733
0.0181615
0.0161812
0.0131747
0.00953177
0.00571603
0.00300939
0.00120243
0.000645426
0.00134348
0.00291123
0.00525676
0.00790188
0.0107973
0.0134179
0.0157778
0.0179568
0.0204378
0.0234528
0.0248924
0.0248196
0.0196398
0.00930229
-0.00383825
-0.0115107
-0.0110592
-0.0064349
0.000553891
0.00658772
0.0151522
0.0198454
0.021461
0.0187444
0.00684513
-0.0604962
-0.0646244
-0.0659085
-0.0650769
-0.0634071
-0.0616173
-0.0597986
-0.0577509
-0.0552758
-0.0522913
-0.0488144
-0.0449028
-0.0406156
-0.0360031
-0.0311155
-0.0260132
-0.0207723
-0.0154831
-0.0102476
-0.00517665
-0.000384857
0.00400528
0.00789151
0.011122
0.0135867
0.0151817
0.0158437
0.0155399
0.0143144
0.0122926
0.00976862
0.00712438
0.00507555
0.00372045
0.00327452
0.00380291
0.00505621
0.00698905
0.00924298
0.0117616
0.0141589
0.0164193
0.0186124
0.0211009
0.0242263
0.0262347
0.0265739
0.0222312
0.0132769
0.0024278
-0.00432696
-0.00499738
-0.00189666
0.00338352
0.00853127
0.0162212
0.0205581
0.0214133
0.0186004
0.00730148
-0.0521411
-0.0557149
-0.0568949
-0.056274
-0.0549281
-0.0534721
-0.051993
-0.0503265
-0.0483037
-0.0458499
-0.0429743
-0.0397229
-0.036144
-0.0322787
-0.0281677
-0.0238591
-0.0194144
-0.0149074
-0.0104231
-0.00605409
-0.00189885
0.00193544
0.00538866
0.00830811
0.0106108
0.0122184
0.0130821
0.0131808
0.0125597
0.0113244
0.00969493
0.00793292
0.00648857
0.00554425
0.00525831
0.00571321
0.00675911
0.00837749
0.0103146
0.012513
0.0146944
0.01684
0.0189889
0.0213942
0.0243095
0.0264703
0.0269357
0.0233891
0.0159297
0.00721491
0.00144871
2.01204e-05
0.00194727
0.00586862
0.0101956
0.0169277
0.0210779
0.0214924
0.0185852
0.00768761
-0.0445762
-0.0476718
-0.0487608
-0.0483169
-0.0472454
-0.0460749
-0.0448892
-0.0435531
-0.0419217
-0.0399279
-0.0375752
-0.0348996
-0.0319407
-0.0287316
-0.0253045
-0.0216975
-0.0179598
-0.0141506
-0.0103391
-0.00660031
-0.00301022
0.000362857
0.0033667
0.00597968
0.00811398
0.00970326
0.0107088
0.0111163
0.0109642
0.0103387
0.0094156
0.00831733
0.00739823
0.00681928
0.00671061
0.00715341
0.0080681
0.00945087
0.0111306
0.0130579
0.0150291
0.0170346
0.0190764
0.021315
0.0238653
0.0258241
0.0262372
0.0234231
0.0174395
0.0105905
0.0057934
0.00398573
0.0050639
0.00796957
0.0115513
0.0172264
0.0212278
0.0215775
0.0185137
0.00787909
-0.0377682
-0.0404428
-0.0414393
-0.0411358
-0.0402961
-0.0393702
-0.038436
-0.0373833
-0.0360878
-0.034489
-0.0325868
-0.0304091
-0.0279878
-0.0253493
-0.0225192
-0.0195269
-0.0164113
-0.013219
-0.0100056
-0.00683221
-0.00376365
-0.000863797
0.00178001
0.00411828
0.00608578
0.00763121
0.00872458
0.00935613
0.00955533
0.00937967
0.00892387
0.00839949
0.00792735
0.00766602
0.00773177
0.00819799
0.00903275
0.0102408
0.0117099
0.0134043
0.0151725
0.0170142
0.0188924
0.0208979
0.0230256
0.0246412
0.0249226
0.0227329
0.0180701
0.0127715
0.00885759
0.00698714
0.00749061
0.00965196
0.0125723
0.0171464
0.0208779
0.0213906
0.0181042
0.00776872
-0.0316527
-0.0339515
-0.0348579
-0.0346737
-0.0340252
-0.033306
-0.0325852
-0.0317723
-0.0307617
-0.0294991
-0.0279816
-0.0262307
-0.0242713
-0.0221248
-0.0198109
-0.0173519
-0.0147779
-0.0121257
-0.00943951
-0.00676762
-0.00416411
-0.0016824
0.000623982
0.00270406
0.00450333
0.00598235
0.00711753
0.00789982
0.00835192
0.00851965
0.0084605
0.0083132
0.00818663
0.0081868
0.00840951
0.00891555
0.00970255
0.0107799
0.012075
0.0135668
0.0151394
0.0167984
0.018479
0.0202203
0.021933
0.0231936
0.0233382
0.0216576
0.0180985
0.0140356
0.0108121
0.00915638
0.00930146
0.0108944
0.0132336
0.0167382
0.0199971
0.0205922
0.0171179
0.00732094
-0.026159
-0.0281305
-0.0289533
-0.0288663
-0.0283871
-0.0278374
-0.027292
-0.0266776
-0.0259056
-0.0249265
-0.0237347
-0.0223463
-0.0207807
-0.0190544
-0.0171825
-0.0151821
-0.0130759
-0.0108921
-0.0086651
-0.00643299
-0.00423906
-0.00212533
-0.000127378
0.00170316
0.00333273
0.00472567
0.00586191
0.00673173
0.00735042
0.00774084
0.00798173
0.00812287
0.00825962
0.00846588
0.00881958
0.00936804
0.0101249
0.0111014
0.0122513
0.0135662
0.0149527
0.0164184
0.0178857
0.019366
0.0207108
0.0216632
0.0217005
0.0204248
0.0177478
0.0146553
0.0120128
0.0106473
0.0105815
0.0117067
0.0135303
0.0160654
0.0186731
0.0191402
0.0155536
0.00659637
-0.021236
-0.0229242
-0.0236687
-0.0236579
-0.0233176
-0.0229179
-0.0225156
-0.0220583
-0.0214853
-0.0207433
-0.0198248
-0.0187411
-0.0175077
-0.0161372
-0.0146409
-0.0130312
-0.0113252
-0.00954382
-0.00771386
-0.00586451
-0.00402849
-0.00223932
-0.000530494
0.00106951
0.00252755
0.00381976
0.0049247
0.00583239
0.00655507
0.00710842
0.00753829
0.00788333
0.0082112
0.0085716
0.00902643
0.00961071
0.0103445
0.0112395
0.0122668
0.0134249
0.0146382
0.0159152
0.0171693
0.0183993
0.0194426
0.0201544
0.0201258
0.0191646
0.0171761
0.014854
0.0128597
0.0115813
0.0114148
0.0121356
0.0134904
0.0151999
0.0170718
0.0172262
0.0136386
0.00571737
-0.0168358
-0.0182776
-0.018949
-0.0189977
-0.0187721
-0.0184976
-0.0182258
-0.0179117
-0.0174868
-0.0169305
-0.0162341
-0.015402
-0.0144461
-0.0133744
-0.0121944
-0.0109149
-0.0095484
-0.00811049
-0.00662114
-0.00510222
-0.00357825
-0.00207452
-0.000618561
0.000764981
0.00205462
0.00322766
0.0042726
0.00518125
0.00595452
0.00660205
0.0071529
0.00763304
0.00809086
0.00855861
0.00908416
0.00969223
0.0104035
0.0112289
0.0121498
0.0131685
0.0142235
0.0153232
0.0163781
0.0173842
0.0181916
0.0187235
0.0186641
0.0179452
0.0164843
0.0147515
0.0132362
0.0121538
0.0118837
0.0122472
0.0131717
0.0142051
0.0151774
0.0150932
0.0116457
0.00481188
-0.0129079
-0.0141364
-0.0147404
-0.0148343
-0.0147009
-0.0145261
-0.0143546
-0.0141506
-0.0138641
-0.0134641
-0.0129446
-0.0123134
-0.011591
-0.0107688
-0.00985312
-0.00885043
-0.0077699
-0.00662254
-0.00542283
-0.00418706
-0.00293414
-0.00168321
-0.000454476
0.00073318
0.00186177
0.00291507
0.00388153
0.0047544
0.00553379
0.00622227
0.00683879
0.00739864
0.00793572
0.00847018
0.00903769
0.00965496
0.0103403
0.0111023
0.0119283
0.012823
0.0137359
0.0146741
0.0155531
0.0163754
0.0169981
0.017397
0.0173311
0.0167962
0.0157299
0.0144379
0.0132758
0.0123664
0.0120386
0.0121104
0.0126455
0.013163
0.0134636
0.0129891
0.00977605
0.00397243
-0.00940796
-0.0104534
-0.0109961
-0.0111236
-0.0110641
-0.01097
-0.0108797
-0.0107654
-0.0105868
-0.0103192
-0.0099568
-0.00950411
-0.00895569
-0.00832991
-0.00762944
-0.00685571
-0.00601332
-0.00510922
-0.00415434
-0.00316035
-0.00214124
-0.00111096
-8.43436e-05
0.00092433
0.00190039
0.00283126
0.00370771
0.00452254
0.00527481
0.00596435
0.00660285
0.00719819
0.00777329
0.00833999
0.00892371
0.00953506
0.0101884
0.01089
0.0116304
0.0124145
0.0132011
0.013997
0.0147256
0.0153954
0.01588
0.016182
0.0161232
0.0157254
0.014947
0.0139778
0.0130787
0.0123029
0.0119359
0.0117868
0.0119775
0.0120973
0.0118722
0.0110621
0.00813254
0.00324556
-0.00629704
-0.00718535
-0.00767218
-0.00782391
-0.00782303
-0.00779326
-0.00776714
-0.00772316
-0.0076288
-0.00746312
-0.00721978
-0.00690078
-0.00651017
-0.00605227
-0.00552943
-0.00494488
-0.00430287
-0.0035988
-0.00284867
-0.00205943
-0.00124081
-0.000402498
0.000444635
0.00128989
0.00212207
0.00293139
0.00371021
0.00445213
0.00515522
0.00581742
0.00644537
0.00704226
0.00762291
0.00819353
0.00877142
0.00936275
0.00997732
0.0106197
0.0112816
0.0119674
0.0126427
0.013315
0.0139181
0.014463
0.0148443
0.0150754
0.0150285
0.0147313
0.014159
0.0134211
0.0127123
0.0120373
0.011635
0.0113267
0.0112266
0.0110364
0.0104426
0.00938368
0.00674484
0.00264346
-0.00353871
-0.00429256
-0.00472895
-0.00489735
-0.00494228
-0.00496322
-0.00498737
-0.00499819
-0.00496957
-0.00488417
-0.00473625
-0.00452693
-0.00425918
-0.00393512
-0.00355582
-0.00312209
-0.00263521
-0.00210712
-0.00153353
-0.000918447
-0.000271422
0.00040038
0.00108905
0.00178699
0.00248573
0.00317752
0.00385601
0.00451578
0.00515443
0.00576902
0.00636268
0.0069358
0.00749723
0.00804958
0.00860366
0.00916263
0.00973227
0.0103153
0.0109043
0.0115022
0.0120805
0.0126466
0.0131458
0.0135886