/*--------------------------------*- C++ -*----------------------------------*\
| =========                 |                                                 |
| \\      /  F ield         | OpenFOAM: The Open Source CFD Toolbox           |
|  \\    /   O peration     | Version:  2512                                  |
|   \\  /    A nd           | Website:  www.openfoam.com                      |
|    \\/     M anipulation  |                                                 |
\*---------------------------------------------------------------------------*/
FoamFile
{
    version     2.0;
    format      ascii;
    arch        "LSB;label=32;scalar=64";
    class       volVectorField;
    location    "190";
    object      U;
}
// * * * * * * * * * * * * * * * * * * * * * * * * * * * * * * * * * * * * * //

dimensions      [0 1 -1 0 0 0 0];

internalField   nonuniform List<vector> 
13248
(
(-0.0135938 0.0127928 9.80664e-20)
(-0.0226413 0.0268019 0)
(-0.0128834 0.0342344 -1.85102e-19)
(0.0148113 0.036662 1.74358e-19)
(0.0597623 0.0354305 1.63166e-19)
(0.121309 0.0316871 0)
(0.198552 0.026349 0)
(0.290127 0.0201383 3.97888e-19)
(0.393954 0.0135918 -1.87171e-22)
(0.507069 0.00705543 -3.50632e-19)
(0.625614 0.000685387 3.29136e-19)
(0.745033 -0.00552992 -2.06229e-19)
(0.860448 -0.0117266 0)
(0.967139 -0.0181053 -3.57882e-19)
(1.06105 -0.0248641 6.67139e-19)
(1.13921 -0.0321386 -1.60045e-19)
(1.2 -0.03996 -2.78023e-19)
(1.24327 -0.0482493 2.61036e-19)
(1.27018 -0.0567893 0)
(1.28286 -0.0654882 0)
(1.28424 -0.0735114 0)
(1.27636 -0.0829912 0)
(1.2634 -0.0868883 7.01407e-20)
(1.24203 -0.107236 2.392e-19)
(-0.012582 0.0105496 -2.959e-19)
(-0.0149421 0.0191194 2.01451e-19)
(0.00543922 0.0217462 -1.82251e-21)
(0.0471167 0.0205225 -2.66092e-19)
(0.109013 0.0170987 -1.6299e-19)
(0.18989 0.0127864 -1.54413e-19)
(0.287859 0.00852545 -2.84979e-19)
(0.400053 0.00492945 2.69341e-19)
(0.522459 0.00230244 0)
(0.650007 0.000645702 6.44156e-22)
(0.776944 -0.000307075 9.04513e-22)
(0.897429 -0.00101311 2.0439e-19)
(1.0062 -0.00201191 0)
(1.09917 -0.00380704 0)
(1.17384 -0.0067643 2.39074e-19)
(1.22944 -0.0110477 -4.49476e-19)
(1.26684 -0.0166042 2.6372e-19)
(1.28821 -0.0231922 -2.47621e-19)
(1.2965 -0.0304479 -1.06507e-19)
(1.29493 -0.0379413 -1.90955e-19)
(1.28643 -0.0452217 -7.52291e-20)
(1.2735 -0.0521163 -1.403e-19)
(1.25791 -0.0565394 2.11148e-19)
(1.24 -0.0652567 5.82958e-20)
(-0.0103857 0.00807756 0)
(-0.00308329 0.0114679 0)
(0.0315623 0.0102898 9.41672e-20)
(0.0911568 0.00684347 8.68833e-20)
(0.173715 0.00293603 -1.83297e-21)
(0.276723 -5.72573e-05 -1.59247e-19)
(0.396445 -0.00131758 0)
(0.527701 -0.000548488 -1.34189e-19)
(0.664045 0.00207036 1.26198e-19)
(0.798367 0.0059594 1.98048e-22)
(0.923764 0.0102771 -2.17067e-19)
(1.03443 0.0141042 -1.99154e-19)
(1.12634 0.0166305 3.82931e-21)
(1.19762 0.0173005 -1.63554e-19)
(1.24847 0.015886 3.94294e-19)
(1.28086 0.0124813 0)
(1.29787 0.00743407 -2.50925e-19)
(1.30307 0.00123791 1.22957e-19)
(1.2999 -0.00555365 1.06426e-19)
(1.29125 -0.0124823 0)
(1.27932 -0.0189461 8.48065e-20)
(1.2654 -0.025226 -2.83869e-19)
(1.25072 -0.0290893 2.66484e-19)
(1.23485 -0.0375944 1.60362e-19)
(-0.00646401 0.00524259 -1.04048e-19)
(0.0140973 0.00371829 -1.07491e-19)
(0.0668203 -6.36165e-05 9.74888e-20)
(0.147941 -0.00398719 0)
(0.253879 -0.00634225 0)
(0.379957 -0.00592636 -3.23369e-21)
(0.51974 -0.0023347 0)
(0.665238 0.00408995 -4.08798e-19)
(0.807765 0.0124159 3.80042e-19)
(0.939154 0.0213597 -4.69885e-19)
(1.05293 0.0295782 1.08157e-19)
(1.14511 0.0359453 0)
(1.21443 0.0397415 1.78571e-19)
(1.26208 0.0407221 -3.30171e-19)
(1.29102 0.039068 7.88799e-20)
(1.30511 0.0352589 1.99458e-19)
(1.30835 0.0299175 -1.03193e-20)
(1.30428 0.0236764 -2.1973e-19)
(1.29564 0.0170814 0)
(1.28434 0.0105722 0)
(1.27162 0.00447677 -7.65106e-20)
(1.25817 -0.00116016 6.7954e-20)
(1.24457 -0.00515711 2.39038e-19)
(1.23042 -0.0124366 -2.24482e-19)
(-0.000330787 0.00209948 -1.09103e-19)
(0.037577 -0.0038552 -1.09064e-19)
(0.112111 -0.00876158 3.06836e-19)
(0.217619 -0.0111292 -1.86864e-19)
(0.348079 -0.00971012 1.75879e-19)
(0.495749 -0.00386147 3.20649e-19)
(0.650944 0.0059964 -2.26512e-19)
(0.803093 0.0185541 -2.75539e-19)
(0.942394 0.0320088 5.56019e-21)
(1.06139 0.0445171 3.53545e-19)
(1.15591 0.0545913 0)
(1.2252 0.0613419 9.66147e-20)
(1.27131 0.0645273 0)
(1.29813 0.0644425 -1.57322e-19)
(1.31024 0.0617182 2.21433e-19)
(1.31204 0.0571106 2.51694e-21)
(1.30717 0.0513399 -5.74104e-20)
(1.29833 0.0449987 1.07468e-19)
(1.2873 0.0385312 9.18945e-20)
(1.27517 0.0322424 -8.19703e-20)
(1.26257 0.0263522 7.64919e-20)
(1.24985 0.0208983 -6.79363e-20)
(1.23723 0.0165055 0)
(1.2245 0.00987421 -5.0882e-20)
(0.00841131 -0.00111588 1.09087e-19)
(0.0680379 -0.0105638 1.14266e-19)
(0.167734 -0.014744 -1.02777e-19)
(0.299313 -0.0132905 1.9184e-19)
(0.453421 -0.00592035 -1.80553e-19)
(0.618611 0.00693457 1.63723e-19)
(0.782109 0.0236125 -7.8458e-20)
(0.931954 0.041689 2.06803e-19)
(1.05914 0.0586814 -1.29727e-19)
(1.15889 0.0726327 2.29243e-19)
(1.23067 0.0824283 -5.28347e-19)
(1.27727 0.0878204 1.93472e-19)
(1.30346 0.0892344 -1.69369e-19)
(1.31456 0.0874776 1.59098e-19)
(1.31544 0.0834649 1.36865e-19)
(1.30997 0.0780274 1.19767e-19)
(1.30088 0.0718225 -3.32641e-19)
(1.28992 0.0653226 2.06305e-19)
(1.27813 0.0588456 -9.1898e-20)
(1.26605 0.0526014 2.38064e-19)
(1.25397 0.0467214 -7.69018e-20)
(1.24202 0.0412809 -1.85097e-19)
(1.23027 0.0365638 1.70551e-19)
(1.21855 0.0304712 5.08672e-20)
(0.0200484 -0.00402833 0)
(0.105768 -0.0154013 9.03249e-22)
(0.233227 -0.0166059 2.14082e-19)
(0.39099 -0.00898876 -2.0086e-19)
(0.565655 0.00614052 -1.81749e-19)
(0.742061 0.0267451 3.37843e-19)
(0.905483 0.0497037 -1.56923e-19)
(1.04457 0.0716845 2.09057e-19)
(1.15319 0.0900501 -4.69525e-21)
(1.23058 0.103324 -1.18213e-19)
(1.28007 0.111197 2.57828e-19)
(1.30726 0.114226 -3.79849e-19)
(1.3183 0.113431 0)
(1.3187 0.10993 -7.43228e-20)
(1.3127 0.104707 -1.98428e-19)
(1.30321 0.0985172 6.23785e-20)
(1.29205 0.0918871 2.63519e-21)
(1.28025 0.085158 -1.36165e-19)
(1.26831 0.0785458 9.01534e-21)
(1.25649 0.0721858 1.57228e-19)
(1.24489 0.0661652 -6.9656e-20)
(1.23355 0.0605522 -2.62166e-20)
(1.22244 0.055391 8.16159e-20)
(1.21148 0.0495651 0)
(0.0347255 -0.0061695 0)
(0.150557 -0.0171867 5.79436e-20)
(0.307248 -0.0128489 -2.7783e-19)
(0.489476 0.00309737 1.01361e-19)
(0.679574 0.0270884 -9.53941e-20)
(0.859589 0.0551362 -8.69789e-20)
(1.01484 0.082829 -1.54064e-19)
(1.13682 0.106511 7.6788e-20)
(1.22374 0.124071 6.70302e-20)
(1.27908 0.134999 0)
(1.30926 0.13996 1.52161e-19)
(1.32143 0.140225 -2.2599e-19)
(1.3219 0.137181 1.68424e-19)
(1.31553 0.132036 7.43631e-20)
(1.30558 0.125693 -6.07901e-20)
(1.29404 0.118767 -5.0842e-20)
(1.28198 0.111643 -4.74157e-20)
(1.26994 0.104554 1.41969e-19)
(1.25816 0.0976446 0)
(1.24671 0.0910037 7.1031e-20)
(1.2356 0.0846969 5.94569e-20)
(1.22482 0.0787705 -1.479e-19)
(1.21431 0.0731763 -1.00497e-19)
(1.20399 0.0675009 9.30755e-20)
(0.0524089 -0.00701879 -6.16365e-20)
(0.201629 -0.0147137 -1.97965e-21)
(0.387573 -0.00214115 5.64133e-20)
(0.590721 0.0238237 1.57454e-19)
(0.789729 0.0568421 4.57484e-20)
(0.965696 0.0910191 -8.83462e-20)
(1.10635 0.121253 8.09233e-20)
(1.20772 0.144351 -7.10969e-20)
(1.27279 0.159315 1.27015e-19)
(1.30862 0.166822 5.4228e-20)
(1.32348 0.168428 -1.5353e-19)
(1.32483 0.165883 4.53851e-20)
(1.31838 0.16071 7.74956e-20)
(1.30796 0.154042 -3.81045e-20)
(1.29587 0.146629 0)
(1.28334 0.138932 5.70046e-20)
(1.27096 0.131216 9.65388e-20)
(1.25896 0.123637 1.65528e-20)
(1.24742 0.116287 -8.04909e-20)
(1.23633 0.10923 3.3768e-20)
(1.22567 0.102512 0)
(1.21536 0.0961478 -2.65155e-20)
(1.20537 0.0900768 -2.48458e-20)
(1.19558 0.0843308 0)
(0.07284 -0.00604695 0)
(0.257605 -0.00689699 3.22059e-20)
(0.471225 0.0164713 5.96958e-20)
(0.690258 0.0534117 -1.59894e-19)
(0.89119 0.0946454 5.14361e-20)
(1.05656 0.132903 0)
(1.17855 0.163286 7.755e-20)
(1.2585 0.183807 -1.08183e-19)
(1.30368 0.194915 -6.32705e-20)
(1.32353 0.198437 2.87001e-20)
(1.32698 0.196588 -4.57777e-20)
(1.32098 0.191343 1.11245e-19)
(1.31022 0.184174 5.59376e-20)
(1.29751 0.17605 -3.87997e-20)
(1.28435 0.167549 -3.56969e-21)
(1.27143 0.158993 -1.06971e-19)
(1.25903 0.15056 4.87534e-20)
(1.24722 0.142348 -1.12605e-21)
(1.236 0.134421 0)
(1.22531 0.126823 -3.38028e-20)
(1.21509 0.119581 0)
(1.20527 0.112685 7.66454e-20)
(1.19578 0.106132 -9.13505e-20)
(1.18649 0.100161 4.16386e-20)
(0.095509 -0.00276126 -1.65704e-20)
(0.316558 0.00710683 -8.09125e-20)
(0.55474 0.0434342 9.18448e-20)
(0.783731 0.0914297 5.41823e-20)
(0.980077 0.139236 -2.59529e-20)
(1.13013 0.179165 4.35037e-20)
(1.23177 0.207475 -2.11758e-20)
(1.29148 0.223902 3.5292e-20)
(1.31977 0.230403 0)
(1.32728 0.229744 8.01914e-20)
(1.32267 0.224525 -3.17423e-21)
(1.31191 0.216727 -6.49456e-20)
(1.29862 0.207657 2.79355e-20)
(1.28473 0.198089 -3.16637e-20)
(1.27112 0.188438 -1.21864e-20)
(1.25816 0.178921 1.39086e-20)
(1.24592 0.16965 -1.08669e-20)
(1.2344 0.160686 -5.88799e-20)
(1.22354 0.152071 3.61347e-20)
(1.21328 0.143833 7.46543e-21)
(1.20353 0.135979 6.59082e-21)
(1.19419 0.128485 5.81937e-21)
(1.18519 0.121433 0)
(1.17636 0.11504 0)
(0.119734 0.00326114 1.65818e-20)
(0.376267 0.0278241 -1.66601e-20)
(0.634644 0.0786396 -3.05696e-20)
(0.867449 0.136889 0)
(1.05383 0.189075 -1.28484e-20)
(1.18577 0.228275 -1.15031e-20)
(1.26721 0.252688 -1.97722e-20)
(1.30901 0.264011 0)
(1.3237 0.265554 0)
(1.32212 0.260739 0)
(1.31209 0.252295 0)
(1.29844 0.242063 0)
(1.28381 0.23113 -1.76006e-20)
(1.26943 0.220078 8.03e-21)
(1.25578 0.20919 1.40149e-20)
(1.243 0.198601 6.54424e-21)
(1.23108 0.188376 1.63325e-20)
(1.21996 0.17855 0)
(1.20957 0.169149 -3.96539e-21)
(1.19981 0.160185 -3.75432e-21)
(1.19058 0.151646 -6.60125e-21)
(1.18179 0.143516 -5.8286e-21)
(1.17332 0.135961 0)
(1.16504 0.129004 4.24227e-21)
(-0.00261059 0.0484231 9.74334e-21)
(-0.00909841 0.110134 -1.00824e-20)
(-0.0192585 0.146909 -1.90614e-20)
(-0.0316309 0.165502 0)
(-0.0452263 0.171465 -2.54107e-20)
(-0.0594534 0.169164 7.89292e-21)
(-0.073849 0.161724 -1.52673e-20)
(-0.0880529 0.151098 0)
(-0.101801 0.138283 0)
(-0.114895 0.123578 0)
(-0.127182 0.106855 0)
(-0.138535 0.0877784 0)
(-0.148842 0.0659572 -2.82663e-22)
(-0.157999 0.0410354 -1.03002e-20)
(-0.165922 0.0127431 2.03115e-20)
(-0.172421 -0.0190888 2.85384e-20)
(-0.177371 -0.0543644 9.48541e-21)
(-0.180726 -0.0929236 0)
(-0.18236 -0.134379 7.66671e-21)
(-0.182191 -0.178121 -2.22382e-20)
(-0.180189 -0.223316 -1.39687e-20)
(-0.176362 -0.26893 -1.28914e-20)
(-0.17077 -0.313762 0)
(-0.163745 -0.356386 0)
(-0.00543471 0.0508456 -2.95973e-20)
(-0.0144103 0.116982 5.07457e-20)
(-0.0241735 0.157571 -1.96438e-20)
(-0.034562 0.179189 -3.66692e-20)
(-0.0452996 0.187341 5.15382e-20)
(-0.0561474 0.186453 -3.28933e-20)
(-0.0668285 0.179769 4.62003e-20)
(-0.0770628 0.169383 3.0038e-20)
(-0.0866001 0.156414 0)
(-0.095229 0.141263 -2.65291e-20)
(-0.102775 0.12387 -7.11423e-22)
(-0.109099 0.103936 2.33395e-20)
(-0.114088 0.0810879 3.49472e-20)
(-0.117654 0.0549744 4.43822e-20)
(-0.119718 0.0253327 -1.97475e-20)
(-0.120146 -0.00795505 -5.88734e-20)
(-0.118914 -0.0449153 1.97475e-20)
(-0.116043 -0.0853367 -7.25521e-20)
(-0.11149 -0.128795 0)
(-0.105303 -0.174633 1.5018e-20)
(-0.0976102 -0.221931 1.39472e-20)
(-0.0885876 -0.269499 1.28713e-20)
(-0.0782597 -0.3159 0)
(-0.0665607 -0.359476 0)
(-0.0082496 0.0513119 0)
(-0.0197574 0.11979 1.06103e-19)
(-0.0289605 0.163323 -3.9913e-20)
(-0.0369545 0.187781 3.7367e-20)
(-0.0441799 0.198274 -1.07363e-19)
(-0.0507692 0.199075 0)
(-0.0566615 0.193431 -6.45561e-20)
(-0.0616846 0.183525 3.07125e-20)
(-0.0656223 0.170601 -5.9077e-20)
(-0.0682585 0.155187 2.91977e-20)
(-0.0693998 0.137324 1.61007e-19)
(-0.0688859 0.116793 -7.57835e-20)
(-0.066593 0.0932676 -1.21628e-19)
(-0.0624328 0.0664292 -4.89783e-20)
(-0.0563485 0.0360319 -1.44896e-21)
(-0.0483008 0.00194383 1.69071e-19)
(-0.0382735 -0.0358725 -7.99377e-20)
(-0.0263112 -0.0771384 -2.11326e-21)
(-0.0125099 -0.121423 0)
(0.00297372 -0.168048 -6.89338e-20)
(0.0198839 -0.216054 0)
(0.0378214 -0.26419 -5.50144e-20)
(0.05632 -0.310845 2.10703e-19)
(0.0777202 -0.353536 -3.6807e-21)
(-0.0107709 0.0497916 0)
(-0.0246526 0.118283 1.16485e-21)
(-0.0332359 0.163589 4.15254e-20)
(-0.0386726 0.190425 -3.94186e-20)
(-0.042031 0.203207 3.57353e-20)
(-0.0438029 0.205851 2.09128e-19)
(-0.0441645 0.201467 -6.56321e-20)
(-0.0430853 0.192257 -6.3469e-20)
(-0.0404141 0.179565 1.19588e-19)
(-0.0359575 0.164046 -1.71922e-19)
(-0.0295212 0.145871 5.4684e-20)
(-0.0209288 0.124923 5.31262e-20)
(-0.0100435 0.100948 0)
(0.00322596 0.073672 4.72966e-20)
(0.0189212 0.0428715 0)
(0.0370018 0.00842496 8.9366e-20)
(0.0574944 -0.0296164 -1.68888e-19)
(0.0803476 -0.0710036 3.77456e-20)
(0.105322 -0.115291 1.49985e-19)
(0.132144 -0.161757 6.8845e-20)
(0.160369 -0.209413 0)
(0.189443 -0.256973 -1.77629e-19)
(0.218809 -0.302586 5.61842e-20)
(0.25269 -0.342974 0)
(-0.0127549 0.0465055 0)
(-0.0286655 0.112671 -1.33227e-19)
(-0.0366835 0.158313 -4.22663e-20)
(-0.0396565 0.18674 -7.93461e-20)
(-0.0391224 0.201477 7.47088e-20)
(-0.0358818 0.205908 -7.01457e-20)
(-0.0303505 0.202882 1.35472e-19)
(-0.0226691 0.194525 6.51645e-20)
(-0.0127931 0.182232 -1.81949e-19)
(-0.000580198 0.166771 1.1808e-19)
(0.0141453 0.148442 -1.67749e-19)
(0.0315544 0.127245 3.78355e-19)
(0.0517903 0.103016 -2.03887e-19)
(0.0749546 0.0755427 9.93804e-20)
(0.101097 0.0446457 2.86073e-19)
(0.130213 0.0102498 -8.63727e-20)
(0.162243 -0.0275422 -8.44512e-20)
(0.197041 -0.0684989 -8.05383e-20)
(0.234305 -0.112114 0)
(0.273593 -0.157601 -1.43159e-19)
(0.314172 -0.203907 -1.29685e-19)
(0.355607 -0.249616 1.86741e-19)
(0.39481 -0.293336 2.16542e-19)
(0.443781 -0.330232 -2.035e-19)
(-0.0140674 0.0418887 0)
(-0.0315128 0.103614 -1.8268e-19)
(-0.0390819 0.147995 -7.00957e-22)
(-0.0398821 0.176911 1.61235e-19)
(-0.035709 0.192928 0)
(-0.0275873 0.19881 0)
(-0.0161478 0.197038 0)
(-0.00171175 0.189574 -6.56484e-20)
(0.015635 0.177797 -1.91352e-21)
(0.0359553 0.162544 1.1745e-19)
(0.0593876 0.144224 -1.71766e-19)
(0.086095 0.122945 -1.67442e-21)
(0.116236 0.098643 0)
(0.149935 0.0711901 -9.93186e-20)
(0.187262 0.0404754 9.77687e-20)
(0.228208 0.00647283 -2.7231e-19)
(0.272646 -0.0306931 3.47713e-19)
(0.320288 -0.0706966 8.36014e-20)
(0.370612 -0.112952 -6.27026e-22)
(0.422909 -0.156561 -2.89622e-19)
(0.475772 -0.200468 -1.32157e-19)
(0.529485 -0.242748 4.20557e-19)
(0.576185 -0.283707 -2.77684e-19)
(0.638693 -0.31501 0)
(-0.0147085 0.0365114 9.09359e-20)
(-0.0331105 0.0921316 9.17624e-20)
(-0.0403294 0.13364 -8.7394e-20)
(-0.039311 0.161695 -1.63521e-19)
(-0.0318869 0.177992 1.53955e-19)
(-0.0191989 0.184669 -1.4598e-19)
(-0.00203759 0.183787 2.06389e-19)
(0.0191191 0.177071 -6.58834e-20)
(0.0440613 0.165811 1.23846e-19)
(0.0727725 0.150859 0)
(0.105356 0.132689 1.16127e-19)
(0.141973 0.1115 -2.15703e-19)
(0.182807 0.0873328 2.10693e-19)
(0.228004 0.0601506 -1.97877e-19)
(0.277612 0.0299192 0)
(0.331526 -0.00330228 1.81645e-19)
(0.389427 -0.0392883 3.45905e-19)
(0.450702 -0.0775901 -3.25549e-19)
(0.514344 -0.117511 -1.51229e-19)
(0.579193 -0.157968 -1.41515e-19)
(0.642745 -0.198124 3.96493e-19)
(0.706246 -0.235072 1.12662e-19)
(0.756988 -0.271792 -1.10238e-19)
(0.826539 -0.295388 9.19549e-20)
(-0.0148113 0.03098 -9.09484e-20)
(-0.0335754 0.0794222 2.8122e-19)
(-0.0404187 0.116603 -8.88461e-20)
(-0.0378059 0.142351 1.65107e-19)
(-0.0274172 0.157698 -1.55446e-19)
(-0.0104002 0.164239 -3.77691e-23)
(0.0123787 0.163622 6.90377e-20)
(0.040348 0.157301 2.63963e-19)
(0.0732202 0.146422 3.06408e-21)
(0.110934 0.131794 -1.17492e-19)
(0.153575 0.113916 0)
(0.201316 0.0930675 -1.10088e-19)
(0.254322 0.0693716 2.05495e-19)
(0.312641 0.0428785 1.997e-19)
(0.376138 0.0136761 -9.38115e-20)
(0.444378 -0.0180361 -1.51159e-21)
(0.51653 -0.0518884 -8.57452e-20)
(0.591316 -0.0872824 1.57645e-19)
(0.666926 -0.12343 1.51185e-19)
(0.741507 -0.159064 -1.40165e-19)
(0.811566 -0.193767 1.23575e-19)
(0.87854 -0.223717 -1.11473e-19)
(0.928145 -0.254667 0)
(0.993526 -0.269268 -9.19155e-20)
(-0.014602 0.0258276 9.25485e-20)
(-0.033149 0.0666451 -9.42408e-20)
(-0.0393347 0.0983593 8.92101e-20)
(-0.0349836 0.120457 0)
(-0.0215026 0.133585 0)
(5.56739e-05 0.138941 1.47841e-19)
(0.028851 0.137822 -1.38557e-19)
(0.0643117 0.131421 1.32247e-19)
(0.106146 0.120718 -6.22022e-19)
(0.154284 0.106448 -1.31291e-21)
(0.208796 0.0891165 1.12162e-19)
(0.26975 0.0690406 0)
(0.337097 0.0464157 -2.06508e-19)
(0.410525 0.0214248 3.90551e-19)
(0.489324 -0.0057013 -2.78331e-19)
(0.572285 -0.0346217 -4.41681e-19)
(0.657653 -0.0648379 -1.84504e-22)
(0.743167 -0.0956608 3.05675e-19)
(0.826126 -0.126297 0)
(0.903926 -0.155519 0)
(0.972945 -0.183236 -1.23577e-19)
(1.03386 -0.205549 1.11479e-19)
(1.07537 -0.229801 -3.74714e-19)
(1.12419 -0.23608 3.51207e-19)
(-0.0143208 0.0214187 0)
(-0.0320448 0.0547106 0)
(-0.0368743 0.0802517 -2.68078e-19)
(-0.0300169 0.0976692 8.51866e-20)
(-0.0125609 0.107514 5.88027e-22)
(0.0146137 0.110763 1.48486e-19)
(0.0507885 0.108462 0)
(0.0954727 0.101591 -1.31044e-19)
(0.148404 0.0909886 1.24214e-19)
(0.209456 0.0773101 -2.35765e-19)
(0.278491 0.0610386 -1.3102e-21)
(0.355188 0.0425253 2.13867e-19)
(0.438863 0.0220583 2.42095e-21)
(0.528321 -8.4071e-05 1.94708e-19)
(0.621768 -0.0235801 -2.72313e-19)
(0.716809 -0.0480247 0)
(0.810563 -0.0729049 3.19787e-19)
(0.899853 -0.0976112 -4.52537e-19)
(0.98151 -0.121464 1.34222e-19)
(1.05275 -0.143629 0)
(1.11101 -0.163985 1.10477e-19)
(1.15645 -0.179755 3.98601e-19)
(1.18326 -0.197632 -3.74147e-19)
(1.20842 -0.198558 -3.84328e-19)
(-0.0141194 0.0178846 2.82182e-19)
(-0.0302565 0.0441256 -3.86891e-19)
(-0.0324532 0.0632718 1.23066e-21)
(-0.0214849 0.0754717 8.56655e-20)
(0.00184747 0.0814244 -1.59191e-19)
(0.0368665 0.08205 -1.4814e-19)
(0.0830065 0.0782654 2.78781e-19)
(0.139838 0.0709143 4.18014e-22)
(0.206994 0.0607218 -2.46976e-19)
(0.284007 0.0482719 4.69198e-19)
(0.370111 0.0340234 2.75561e-21)
(0.464039 0.0183337 -2.09233e-19)
(0.56389 0.00149818 0)
(0.667086 -0.0162119 0)
(0.770463 -0.0345158 -8.97896e-20)
(0.87047 -0.0531021 -1.63062e-19)
(0.963483 -0.0716099 -3.066e-19)
(1.04614 -0.0896672 2.87819e-19)
(1.11576 -0.106799 -1.34309e-19)
(1.17052 -0.122725 2.32799e-19)
(1.2099 -0.136934 -1.20141e-19)
(1.23466 -0.148741 1.76478e-19)
(1.24442 -0.161464 -4.31571e-19)
(1.2484 -0.161422 7.73379e-20)
(-0.0139622 0.0151088 9.5066e-20)
(-0.0273944 0.0349377 0)
(-0.024984 0.0479361 1.82612e-19)
(-0.00737326 0.0549737 -1.72017e-19)
(0.024813 0.0570501 1.59341e-19)
(0.0710338 0.0551599 0)
(0.130751 0.0501879 0)
(0.203345 0.0429011 -1.31912e-19)
(0.287935 0.0339381 -5.72135e-22)
(0.383155 0.0238035 1.16202e-19)
(0.486965 0.012869 -1.10411e-19)
(0.596562 0.00138939 2.07603e-19)
(0.708432 -0.0104717 0)
(0.818563 -0.0226097 3.67798e-19)
(0.922777 -0.0349443 -6.88351e-19)
(1.01714 -0.0473892 4.85244e-19)
(1.09835 -0.05982 2.92508e-19)
(1.16411 -0.0720964 -2.74614e-19)
(1.21336 -0.0839412 0)
(1.24621 -0.0954018 0)
(1.26435 -0.105572 0)
(1.26947 -0.115984 0)
(1.26525 -0.124062 8.18907e-20)
(1.25586 -0.129089 -2.70207e-19)
(-0.155313 -0.401858 -6.77796e-21)
(-0.150249 -0.452889 6.82785e-21)
(-0.140906 -0.49563 -1.95894e-22)
(-0.127788 -0.526389 0)
(-0.10893 -0.541321 -5.1128e-21)
(-0.0820351 -0.53618 9.83259e-21)
(-0.0450401 -0.507173 -7.53544e-24)
(0.0026253 -0.451718 -4.58738e-21)
(0.0602388 -0.369116 0)
(0.125151 -0.260574 0)
(0.193818 -0.13201 -2.59394e-22)
(0.263935 0.00931144 -2.49587e-22)
(0.333929 0.156867 -4.10001e-21)
(0.402224 0.299355 3.7588e-21)
(0.46615 0.42182 0)
(0.521615 0.511174 0)
(0.564756 0.562483 1.81779e-21)
(0.594197 0.579769 -2.64012e-22)
(0.610525 0.573951 -1.3774e-21)
(0.611906 0.562367 -7.67133e-23)
(0.594956 0.560792 0)
(0.563956 0.565488 0)
(0.536438 0.544556 0)
(0.534203 0.458037 0)
(0.565056 0.292789 0)
(0.620062 0.0765804 0)
(0.683659 -0.139239 6.15996e-22)
(0.742154 -0.309365 -1.02685e-21)
(0.786225 -0.414797 0)
(0.812126 -0.463998 0)
(0.823179 -0.472901 -3.405e-22)
(0.8241 -0.464477 3.30933e-22)
(0.809587 -0.462888 1.34457e-22)
(0.773108 -0.477973 0)
(0.724357 -0.473854 0)
(0.68732 -0.400105 3.79839e-22)
(0.681253 -0.239273 -3.69231e-22)
(0.703954 -0.0318728 0)
(0.742733 0.153916 3.30081e-22)
(0.786072 0.287023 -4.60116e-22)
(0.822783 0.353314 1.12173e-22)
(0.838905 0.39854 0)
(0.822317 0.423017 -1.73424e-22)
(0.778544 0.436261 1.6864e-22)
(0.741372 0.374884 0)
(0.728894 0.232046 0)
(0.750891 0.0518555 -9.9154e-23)
(0.792217 -0.13209 2.86617e-22)
(0.826169 -0.224974 0)
(0.832496 -0.329795 0)
(0.805095 -0.349415 -4.80017e-23)
(0.772787 -0.360884 3.16405e-24)
(0.77136 -0.269703 -1.57244e-24)
(0.788016 -0.0909505 3.40903e-23)
(0.81084 0.0154224 0)
(0.810957 0.250526 0)
(0.802717 0.273794 0)
(0.791725 0.345975 0)
(0.798262 0.283576 0)
(0.786838 -0.0073531 0)
(-0.0575816 -0.404201 -7.42016e-22)
(-0.0607703 -0.4572 -2.76216e-20)
(-0.0627296 -0.502531 2.24828e-21)
(-0.0653152 -0.537162 2.37684e-20)
(-0.0666296 -0.557916 3.2024e-22)
(-0.0636059 -0.560847 0)
(-0.0527315 -0.541596 -1.67274e-20)
(-0.0304755 -0.496806 3.27126e-20)
(0.00601949 -0.423715 -1.59742e-20)
(0.05468 -0.323823 1.5609e-20)
(0.110675 -0.197124 -1.49113e-20)
(0.173817 -0.0568389 1.41787e-20)
(0.242457 0.0910589 -1.37002e-20)
(0.313 0.236397 -3.43986e-22)
(0.382558 0.364848 -9.71654e-21)
(0.447099 0.464038 9.44249e-21)
(0.502219 0.527736 -6.56944e-21)
(0.545112 0.557882 6.21142e-21)
(0.573575 0.565024 -5.18417e-21)
(0.583797 0.56659 1.00256e-20)
(0.574464 0.575357 -4.85067e-21)
(0.55469 0.582042 -3.39393e-22)
(0.544622 0.552223 -6.79142e-21)
(0.562215 0.450533 1.43796e-20)
(0.608918 0.271468 -7.55991e-21)
(0.673154 0.0470727 5.34088e-22)
(0.738986 -0.170777 7.5564e-21)
(0.793349 -0.336352 -9.44096e-22)
(0.82914 -0.432807 -1.04042e-20)
(0.845112 -0.4727 7.97559e-21)
(0.845666 -0.474836 -3.4032e-21)
(0.837957 -0.460334 2.99162e-22)
(0.818366 -0.450741 -1.34721e-22)
(0.77902 -0.458604 2.39015e-22)
(0.725222 -0.454355 0)
(0.680118 -0.389772 0)
(0.665824 -0.242107 -1.43623e-21)
(0.683687 -0.0451368 1.06245e-21)
(0.722765 0.135784 8.88759e-22)
(0.770112 0.27001 -3.94505e-23)
(0.812871 0.342489 -1.06337e-21)
(0.832531 0.397801 1.82825e-22)
(0.81967 0.431965 0)
(0.779446 0.448726 0)
(0.748377 0.383375 0)
(0.739929 0.231868 0)
(0.762596 0.0438959 4.85393e-22)
(0.803094 -0.142366 -1.90363e-22)
(0.834627 -0.230453 0)
(0.841691 -0.327008 0)
(0.811839 -0.342244 0)
(0.779313 -0.35651 -7.45618e-23)
(0.775096 -0.271516 1.71484e-23)
(0.788434 -0.0955106 -7.45521e-23)
(0.809073 0.0127946 0)
(0.805836 0.251503 0)
(0.800091 0.275104 3.74421e-23)
(0.788315 0.346302 8.86685e-23)
(0.798373 0.283961 0)
(0.789106 -0.00608957 0)
(0.087954 -0.39793 -3.7291e-21)
(0.0806695 -0.448585 -6.31058e-20)
(0.0720889 -0.493445 5.19115e-20)
(0.0582406 -0.528647 -4.85668e-20)
(0.0402207 -0.552244 -3.22371e-22)
(0.0207662 -0.561631 0)
(0.00364372 -0.552592 -3.02269e-20)
(-0.00529327 -0.521095 2.95392e-20)
(-0.000457404 -0.462802 2.25058e-22)
(0.0238057 -0.376445 3.38784e-22)
(0.061263 -0.261167 3.23902e-22)
(0.108879 -0.125336 4.10723e-22)
(0.170517 0.0206027 -2.0986e-20)
(0.239454 0.166387 2.07408e-20)
(0.311154 0.299419 0)
(0.381686 0.407429 3.98851e-22)
(0.446034 0.483263 -1.13916e-20)
(0.499703 0.527438 1.12428e-20)
(0.538005 0.549587 0)
(0.556504 0.565354 0)
(0.556612 0.583395 -1.08947e-20)
(0.551007 0.590222 2.31405e-20)
(0.560002 0.551655 -2.61514e-20)
(0.596748 0.438096 -2.1173e-21)
(0.657895 0.250102 3.31768e-20)
(0.730041 0.0220113 -3.50082e-20)
(0.797026 -0.195266 3.12015e-20)
(0.846284 -0.355538 -3.37309e-21)
(0.873008 -0.443909 -1.21526e-20)
(0.878976 -0.475924 0)
(0.869494 -0.472861 0)
(0.853406 -0.454029 1.62735e-21)
(0.829121 -0.437646 -2.15863e-21)
(0.787983 -0.438447 -2.28737e-23)
(0.730482 -0.43384 2.03444e-21)
(0.677948 -0.378735 -1.97725e-21)
(0.655135 -0.245355 0)
(0.667548 -0.0601505 3.35022e-22)
(0.706343 0.115059 2.41589e-21)
(0.756971 0.250292 -4.277e-21)
(0.805051 0.329481 1.72715e-21)
(0.828005 0.395451 1.65687e-22)
(0.819268 0.439549 -1.822e-21)
(0.783268 0.460059 1.43454e-21)
(0.758566 0.391567 4.64912e-22)
(0.754291 0.232633 5.28978e-22)
(0.777361 0.0377882 -4.86624e-22)
(0.816368 -0.151181 0)
(0.844952 -0.235131 0)
(0.852486 -0.32371 -9.71939e-22)
(0.820164 -0.334777 4.42451e-22)
(0.787103 -0.351918 -3.11741e-22)
(0.780035 -0.273354 3.88354e-22)
(0.790205 -0.0998485 4.53515e-22)
(0.80886 0.0102243 -1.32383e-22)
(0.802068 0.252318 1.93445e-22)
(0.798527 0.276266 -1.57778e-22)
(0.785776 0.346267 6.48279e-23)
(0.799584 0.283975 0)
(0.792515 -0.00492049 0)
(0.262663 -0.386819 -1.33888e-19)
(0.256298 -0.434018 1.26678e-20)
(0.243941 -0.474787 1.15031e-19)
(0.225066 -0.505553 -7.39789e-22)
(0.197699 -0.526178 0)
(0.163316 -0.536241 0)
(0.123994 -0.534169 -5.23831e-20)
(0.0849869 -0.515867 4.99025e-21)
(0.0551514 -0.475712 6.41822e-20)
(0.0439726 -0.407681 -1.38851e-21)
(0.0531309 -0.312507 -1.82275e-20)
(0.0788967 -0.190122 -1.63081e-20)
(0.123838 -0.0512228 1.62635e-20)
(0.184646 0.0918628 0)
(0.254272 0.227673 -1.22906e-20)
(0.326846 0.343158 1.12449e-20)
(0.396667 0.430667 0)
(0.457531 0.489461 0)
(0.50318 0.527345 8.60646e-21)
(0.52974 0.556871 7.88566e-22)
(0.541141 0.582479 -8.5874e-21)
(0.551878 0.58827 -1.25385e-20)
(0.580521 0.542663 1.26529e-20)
(0.635146 0.4219 -1.75942e-20)
(0.70918 0.230181 -1.49455e-21)
(0.788039 0.00126711 1.81288e-20)
(0.855737 -0.213265 2.14203e-21)
(0.899929 -0.367992 -1.46913e-23)
(0.917334 -0.449234 0)
(0.913379 -0.474565 7.25713e-21)
(0.894476 -0.467448 -7.42897e-21)
(0.870321 -0.44592 2.95588e-22)
(0.841424 -0.424291 0)
(0.79934 -0.418136 -2.18807e-22)
(0.739872 -0.412155 3.48922e-21)
(0.681086 -0.366141 -6.89727e-21)
(0.649649 -0.248164 -9.03182e-22)
(0.655904 -0.0761166 -2.15824e-23)
(0.693631 0.0922228 3.57964e-21)
(0.746584 0.228173 4.48909e-22)
(0.799189 0.314331 -2.86346e-21)
(0.825232 0.391234 2.43168e-21)
(0.820952 0.445378 5.51832e-24)
(0.789715 0.469989 1.77337e-21)
(0.771539 0.399483 -2.1906e-21)
(0.771589 0.234487 -3.88994e-21)
(0.794872 0.0338436 1.03447e-21)
(0.831859 -0.158386 1.64868e-21)
(0.857005 -0.239075 -2.84646e-21)
(0.864694 -0.320032 1.72772e-21)
(0.829898 -0.326998 -3.16573e-22)
(0.79594 -0.346966 4.43595e-22)
(0.785929 -0.275129 2.78398e-22)
(0.793169 -0.104007 -5.99853e-22)
(0.810129 0.0076748 -1.17914e-23)
(0.799628 0.253002 -1.54625e-22)
(0.798022 0.277335 0)
(0.784135 0.345868 -6.33271e-23)
(0.801931 0.283603 1.71828e-22)
(0.797084 -0.00384314 0)
(0.449902 -0.372233 1.35661e-19)
(0.443877 -0.41783 -2.52913e-19)
(0.431215 -0.453667 1.15963e-19)
(0.410774 -0.477966 8.65808e-20)
(0.380297 -0.491638 -1.55664e-19)
(0.339516 -0.495911 1.2555e-20)
(0.288765 -0.492474 5.56696e-20)
(0.23088 -0.479941 3.61381e-20)
(0.173052 -0.454275 -3.54163e-20)
(0.12603 -0.408231 0)
(0.0979321 -0.338193 -2.24122e-20)
(0.091287 -0.240228 4.27354e-20)
(0.110148 -0.117173 -2.05451e-20)
(0.153276 0.0185238 0)
(0.213513 0.152904 0)
(0.282484 0.273524 2.98592e-22)
(0.353124 0.371544 -1.38798e-20)
(0.417443 0.444399 1.34836e-20)
(0.468518 0.497398 0)
(0.503473 0.539344 1.66725e-20)
(0.527871 0.57097 -3.49977e-20)
(0.556318 0.575699 4.21923e-20)
(0.604168 0.525962 -5.26877e-20)
(0.674785 0.403058 -6.20572e-21)
(0.759672 0.212047 7.22168e-20)
(0.845022 -0.0149004 -3.78003e-20)
(0.913982 -0.22463 -1.0941e-21)
(0.953065 -0.373334 -1.22255e-20)
(0.961153 -0.448357 2.83666e-21)
(0.947521 -0.468527 9.63788e-21)
(0.920057 -0.458655 3.82236e-22)
(0.888508 -0.435982 -4.12338e-21)
(0.855165 -0.410942 7.34033e-21)
(0.812705 -0.398495 -3.59438e-21)
(0.752949 -0.390147 0)
(0.689539 -0.352139 -3.66856e-21)
(0.649771 -0.249988 3.63054e-21)
(0.649051 -0.0925928 -3.08593e-21)
(0.684619 0.0676928 3.84205e-21)
(0.738782 0.203879 -3.33729e-22)
(0.795063 0.296937 0)
(0.824021 0.384795 -3.06899e-22)
(0.824452 0.449067 1.01485e-21)
(0.798398 0.478291 0)
(0.78675 0.407143 5.44545e-21)
(0.791309 0.237466 -1.96466e-21)
(0.814755 0.0320173 1.1372e-21)
(0.849294 -0.163814 1.00119e-21)
(0.870609 -0.242199 0)
(0.878122 -0.315949 0)
(0.840895 -0.318854 -1.04248e-21)
(0.805653 -0.341562 1.41534e-21)
(0.792531 -0.276803 -6.63292e-22)
(0.797133 -0.108054 1.70385e-22)
(0.812776 0.00510623 3.06213e-22)
(0.798477 0.253584 1.54774e-22)
(0.798569 0.278358 -2.35716e-22)
(0.783415 0.345101 0)
(0.80544 0.282823 -2.51235e-22)
(0.802827 -0.00285926 -1.10904e-22)
(0.63867 -0.355008 1.35053e-19)
(0.630324 -0.397974 -1.3433e-19)
(0.616674 -0.429955 8.65186e-22)
(0.594635 -0.449644 -7.0786e-22)
(0.562687 -0.457868 6.02165e-22)
(0.521023 -0.45537 -4.81398e-22)
(0.469012 -0.444351 6.90365e-22)
(0.406323 -0.427584 0)
(0.335473 -0.406155 -3.44612e-22)
(0.263477 -0.375905 2.25861e-22)
(0.201192 -0.330574 1.44796e-22)
(0.157778 -0.260877 -2.50161e-22)
(0.141307 -0.163673 0)
(0.154523 -0.045104 0)
(0.193972 0.0809932 6.81668e-23)
(0.25124 0.202327 0)
(0.316483 0.30779 -7.72391e-23)
(0.380277 0.39263 0)
(0.435253 0.459027 -1.07173e-20)
(0.478976 0.511677 2.36143e-20)
(0.517398 0.548248 -2.95492e-20)
(0.563776 0.552793 1.64507e-20)
(0.629359 0.502285 2.78138e-20)
(0.713583 0.38194 -2.70042e-20)
(0.807889 0.19584 -3.84065e-20)
(0.89972 -0.0256661 3.73763e-20)
(0.970223 -0.229534 0)
(1.00455 -0.371905 9.0556e-22)
(1.00367 -0.441698 0)
(0.980822 -0.458326 0)
(0.945768 -0.446913 9.89007e-21)
(0.907683 -0.424339 -1.03268e-20)
(0.870056 -0.397702 4.0809e-22)
(0.827511 -0.380023 3.59373e-22)
(0.768979 -0.36843 -2.74865e-22)
(0.702918 -0.336808 -2.64212e-21)
(0.655566 -0.25025 2.56571e-21)
(0.647145 -0.108791 -3.27155e-21)
(0.679336 0.0420519 2.78205e-21)
(0.733359 0.177648 6.16511e-22)
(0.792398 0.277184 -2.36988e-21)
(0.824115 0.375783 -4.99392e-22)
(0.8294 0.45026 1.79868e-21)
(0.808832 0.484792 0)
(0.803557 0.414421 -2.08705e-21)
(0.812767 0.241681 3.79014e-21)
(0.836512 0.0322269 -4.84659e-21)
(0.868425 -0.1673 -1.00753e-21)
(0.885556 -0.244423 0)
(0.892536 -0.311484 3.76674e-22)
(0.853002 -0.310313 -8.91134e-22)
(0.816112 -0.335576 -1.77469e-23)
(0.799616 -0.278325 -1.3015e-22)
(0.801881 -0.112076 1.79882e-22)
(0.816669 0.00246318 -2.37425e-22)
(0.798567 0.254077 0)
(0.800163 0.279373 2.35827e-22)
(0.783637 0.343959 0)