/*--------------------------------*- C++ -*----------------------------------*\
| =========                 |                                                 |
| \\      /  F ield         | OpenFOAM: The Open Source CFD Toolbox           |
|  \\    /   O peration     | Version:  2512                                  |
|   \\  /    A nd           | Website:  www.openfoam.com                      |
|    \\/     M anipulation  |                                                 |
\*---------------------------------------------------------------------------*/
FoamFile
{
    version     2.0;
    format      ascii;
    arch        "LSB;label=32;scalar=64";
    class       surfaceScalarField;
    location    "113.25";
    object      phi;
}
// * * * * * * * * * * * * * * * * * * * * * * * * * * * * * * * * * * * * * //

dimensions      [0 3 -1 0 0 0 0];

oriented        oriented;

internalField   nonuniform List<scalar> 
26232
(
2.26056e-05
0.000811308
-0.000833914
0.000234749
0.00129035
-0.00150249
0.000802344
0.000835587
-0.00140318
0.00190056
-0.000465693
-0.000632518
0.00370698
-0.00257191
0.000765493
0.00639451
-0.00546388
0.00277635
0.010121
-0.00912814
0.0054016
0.0150163
-0.0135405
0.00864517
0.0211669
-0.0186515
0.0125009
0.0286018
-0.0243777
0.0169428
0.0372822
-0.0305998
0.0219194
0.0470982
-0.0371683
0.0273524
0.057873
-0.0439144
0.0331396
0.0693761
-0.0506652
0.0391622
0.0813415
-0.0572586
0.0452932
0.0934902
-0.0635568
0.051408
0.105553
-0.0694562
0.0573937
0.117289
-0.0748934
0.063157
0.128507
-0.0798446
0.0686269
0.13907
-0.0843315
0.0737686
0.148901
-0.0883847
0.0785531
0.157987
-0.0921322
0.0830465
0.166333
-0.095516
0.0871699
-0.09897
0.091523
0.17378
0.000102769
0.000708539
0.000565979
0.00082714
0.00156882
-0.000167252
0.00329896
-0.00219583
0.00594261
-0.00521557
0.00967052
-0.00919178
0.0146191
-0.0140767
0.0208692
-0.0197906
0.0284269
-0.0262092
0.0372114
-0.0331622
0.0470533
-0.0404417
0.0577065
-0.0478216
0.0688712
-0.0550792
0.0802239
-0.0620179
0.09145
-0.0684847
0.102274
-0.0743806
0.112483
-0.0796651
0.121941
-0.084352
0.130598
-0.0885007
0.138472
-0.0922057
0.145658
-0.095571
0.152269
-0.0987435
0.158475
-0.101722
-0.104927
0.164432
0.000184287
0.000524252
0.000912783
9.86445e-05
0.00238249
-0.00163696
0.0047912
-0.00460454
0.00832234
-0.00874671
0.0131209
-0.0139903
0.019265
-0.0202208
0.0267406
-0.0272661
0.0354258
-0.0348945
0.0450934
-0.0428297
0.0554311
-0.0507794
0.0660778
-0.0584683
0.076667
-0.0656683
0.0868699
-0.0722208
0.0964305
-0.0780453
0.105188
-0.0831382
0.113084
-0.0875605
0.120152
-0.0914204
0.126502
-0.0948513
0.13229
-0.0979937
0.137692
-0.100972
0.142858
-0.10391
0.147956
-0.106819
-0.109995
0.153025
0.000273775
0.000250477
0.00129123
-0.000918815
0.00326464
-0.00361037
0.00639159
-0.0077315
0.0108298
-0.0131849
0.0166617
-0.0198222
0.0238605
-0.0274197
0.032271
-0.0356766
0.0416137
-0.0442372
0.0515168
-0.0527328
0.0615667
-0.0608293
0.0713661
-0.0682677
0.0805872
-0.0748894
0.0890074
-0.080641
0.0965253
-0.0855632
0.103154
-0.0897672
0.109
-0.0934057
0.114223
-0.0966443
0.11901
-0.0996378
0.123532
-0.102516
0.127935
-0.105375
0.132314
-0.108289
0.136754
-0.111259
-0.114479
0.141237
0.000377148
-0.000126671
0.00171374
-0.00225541
0.00422556
-0.00612219
0.00808838
-0.0115943
0.0133988
-0.0184954
0.0201308
-0.0265542
0.0281081
-0.035397
0.0370093
-0.0445778
0.0464096
-0.0536375
0.055848
-0.0621713
0.0649017
-0.0698829
0.0732467
-0.0766127
0.0806936
-0.0823363
0.0871929
-0.0871403
0.092814
-0.0911843
0.0977075
-0.0946607
0.102061
-0.0977593
0.106061
-0.100645
0.109867
-0.103444
0.113596
-0.106245
0.117328
-0.109107
0.121103
-0.112064
0.124958
-0.115114
-0.118379
0.128858
0.0004973
-0.000623971
0.00218199
-0.0039401
0.00525104
-0.00919124
0.00982508
-0.0161684
0.0158954
-0.0245657
0.0232837
-0.0339424
0.0316412
-0.0437545
0.0404979
-0.0534345
0.0493469
-0.0624864
0.0577358
-0.0705602
0.0653379
-0.0774851
0.0719862
-0.083261
0.0776679
-0.0880181
0.08249
-0.0919624
0.0866292
-0.0953236
0.090283
-0.0983144
0.0936322
-0.101109
0.0968205
-0.103833
0.0999492
-0.106572
0.103083
-0.109379
0.106257
-0.112282
0.109489
-0.115297
0.112797
-0.118422
-0.121722
0.11614
0.000632971
-0.00125694
0.00268341
-0.00599054
0.00629741
-0.0128052
0.0114988
-0.0213697
0.0181301
-0.031197
0.0258364
-0.0416488
0.0341132
-0.0520313
0.0424061
-0.0617273
0.0502229
-0.0703033
0.0572186
-0.0775559
0.0632304
-0.0834969
0.0682643
-0.0882949
0.0724484
-0.0922021
0.0759734
-0.0954875
0.0790402
-0.0983904
0.0818241
-0.101098
0.0844586
-0.103743
0.0870348
-0.106409
0.089609
-0.109146
0.092213
-0.111983
0.0948626
-0.114931
0.0975635
-0.117997
0.100321
-0.121179
-0.124505
0.103103
0.000778901
-0.00203584
0.00319235
-0.00840399
0.00729686
-0.0169098
0.0129769
-0.0270498
0.0198979
-0.038118
0.027538
-0.0492888
0.0352955
-0.0597888
0.042624
-0.0690559
0.0491378
-0.0768171
0.0546554
-0.0830735
0.0591819
-0.0880234
0.062853
-0.091966
0.0658668
-0.0952159
0.0684268
-0.0980475
0.0707062
-0.10067
0.0728338
-0.103226
0.0748955
-0.105805
0.0769433
-0.108457
0.0790064
-0.11121
0.0810996
-0.114076
0.0832293
-0.117061
0.0853964
-0.120164
0.0876019
-0.123385
-0.126725
0.0898224
0.000926827
-0.00296267
0.00367426
-0.0111514
0.00816937
-0.0214049
0.0141243
-0.0330047
0.021026
-0.0450197
0.0282329
-0.0564957
0.0351303
-0.0666861
0.0412657
-0.0751913
0.0464114
-0.0819628
0.0505498
-0.0872119
0.0538111
-0.0912847
0.0563961
-0.094551
0.0585124
-0.0973322
0.0603355
-0.0998705
0.0619943
-0.102329
0.0635733
-0.104805
0.0651233
-0.107355
0.066672
-0.110006
0.0682341
-0.112772
0.0698165
-0.115658
0.0714214
-0.118666
0.0730488
-0.121792
0.0746969
-0.125033
-0.12838
0.0763513
0.00106647
-0.00402914
0.00409093
-0.0141759
0.00883673
-0.0261506
0.0148302
-0.0389982
0.0214104
-0.0515998
0.0278882
-0.0629735
0.0337182
-0.0725161
0.0385937
-0.0800669
0.0424484
-0.0858175
0.0453912
-0.0901547
0.0476198
-0.0935133
0.049347
-0.0962782
0.0507549
-0.0987401
0.0519774
-0.101093
0.0531017
-0.103453
0.0541793
-0.105883
0.0552385
-0.108414
0.0562942
-0.111061
0.0573538
-0.113831
0.0584206
-0.116725
0.0594954
-0.119741
0.0605773
-0.122874
0.0616636
-0.126119
-0.129463
0.0627468
0.00118726
-0.0052164
0.004407
-0.0173956
0.00923644
-0.0309801
0.0150277
-0.0447895
0.0210283
-0.0576004
0.0265795
-0.0685248
0.0312611
-0.0771977
0.0349244
-0.0837302
0.0376348
-0.0885279
0.039577
-0.0920969
0.040968
-0.0949043
0.0420002
-0.0973104
0.0428172
-0.0995571
0.0435129
-0.101789
0.0441427
-0.104083
0.0447366
-0.106476
0.0453101
-0.108987
0.0458715
-0.111623
0.0464251
-0.114385
0.0469725
-0.117273
0.0475138
-0.120282
0.0480476
-0.123408
0.0485701
-0.126642
-0.129971
0.0490784
0.00128231
-0.00649871
0.00459779
-0.0207111
0.00933225
-0.0357145
0.014701
-0.0501582
0.0199307
-0.0628302
0.0244555
-0.0730496
0.0280039
-0.0807461
0.0305655
-0.0862917
0.0322938
-0.0902563
0.0334046
-0.0932077
0.0341024
-0.0956021
0.0345451
-0.0977531
0.0348379
-0.09985
0.0350433
-0.101994
0.0351947
-0.104234
0.0353094
-0.106591
0.0353962
-0.109074
0.0354599
-0.111686
0.0355034
-0.114428
0.035528
-0.117297
0.0355341
-0.120288
0.03552
-0.123393
0.0354819
-0.126603
0.0354195
-0.129909
-0.000219331
-0.00248023
0.00269956
-0.000803624
-0.00603907
0.00662336
-0.00170549
-0.00858425
0.00948611
-0.00287865
-0.0103111
0.0114842
-0.00427783
-0.0114104
0.0128095
-0.00586229
-0.0120597
0.0136441
-0.00759801
-0.0124068
0.0141425
-0.0094581
-0.0125585
0.0144186
-0.0114216
-0.0125785
0.014542
-0.0134714
-0.0124907
0.0145405
-0.0155917
-0.0122875
0.0144078
-0.0177655
-0.0119384
0.0141122
-0.0199729
-0.0113983
0.0136057
-0.0221893
-0.0106135
0.0128298
-0.0243842
-0.00952646
0.0117214
-0.0265206
-0.0080787
0.0102151
-0.0285552
-0.0062122
0.00824675
-0.030438
-0.00387185
0.00575465
-0.0321026
-0.00100697
0.00267163
-0.0334965
0.00235582
-0.000961983
-0.0345779
0.00629554
-0.00521413
-0.03529
0.0107906
-0.0100785
-0.0356172
0.0158352
-0.015508
0.0214103
-0.0356263
-0.0214012
-0.000300799
-0.00217943
-0.0010573
-0.00528257
-0.00217647
-0.00746507
-0.00358287
-0.00890469
-0.00521485
-0.00977837
-0.0070245
-0.01025
-0.00897661
-0.0104547
-0.0110462
-0.0104889
-0.0132151
-0.0104096
-0.0154683
-0.0102374
-0.0177908
-0.00996503
-0.0201644
-0.00956477
-0.0225661
-0.00899659
-0.024966
-0.00821362
-0.0273263
-0.00716613
-0.0296008
-0.00580424
-0.0317334
-0.00407951
-0.0336723
-0.00193302
-0.0353
0.000620702
-0.0365946
0.00365046
-0.0374691
0.00717007
-0.0378602
0.0111817
-0.0377155
0.0156905
0.0207382
-0.0370434
-0.000360854
-0.00181858
-0.00123882
-0.0044046
-0.00250239
-0.00620151
-0.00405077
-0.00735631
-0.00580707
-0.00802207
-0.00771501
-0.00834208
-0.00973513
-0.00843453
-0.01184
-0.00838409
-0.0140091
-0.00824046
-0.0162243
-0.00802218
-0.0184661
-0.00772324
-0.0207103
-0.00732056
-0.0229263
-0.00678058
-0.0250755
-0.00606441
-0.0271102
-0.00513145
-0.0289729
-0.00394158
-0.0305951
-0.00245732
-0.0318844
-0.000643662
-0.0327722
0.00150847
-0.0331593
0.00403757
-0.0329478
0.00695856
-0.032053
0.0102869
-0.0303961
0.0140337
0.0182444
-0.0279023
-0.000397965
-0.00142061
-0.00134588
-0.00345669
-0.00268294
-0.00486444
-0.00428801
-0.00575124
-0.00607061
-0.00623947
-0.00796531
-0.00644738
-0.00992573
-0.00647411
-0.0119182
-0.00639162
-0.0139157
-0.00624295
-0.0158927
-0.00604519
-0.0178209
-0.005795
-0.0196667
-0.00547484
-0.0213886
-0.00505859
-0.0229371
-0.00451599
-0.0242527
-0.00381586
-0.0252657
-0.00292856
-0.0258955
-0.00182753
-0.0260463
-0.000492847
-0.0256269
0.00108908
-0.0245201
0.00293074
-0.0226029
0.00504141
-0.0197537
0.00743768
-0.0158668
0.0101468
0.0133085
-0.0109309
-0.000413166
-0.00100745
-0.00138274
-0.00248711
-0.00272878
-0.00351841
-0.00431544
-0.00416458
-0.00604107
-0.00451385
-0.00783104
-0.00465741
-0.00963052
-0.00467463
-0.0113973
-0.00462489
-0.0130951
-0.00454514
-0.0146885
-0.0044518
-0.0161386
-0.00434488
-0.0174005
-0.00421294
-0.0184215
-0.0040376
-0.0191403
-0.00379719
-0.0194865
-0.0034696
-0.0193806
-0.00303451
-0.0187329
-0.00247524
-0.0174451
-0.00178064
-0.0154096
-0.000946363
-0.0125037
2.48452e-05
-0.00858867
0.00112636
-0.00350595
0.00235495
0.00290164
0.0037392
0.0054001
0.01081
-0.000408357
-0.000599088
-0.00135563
-0.00153984
-0.0026525
-0.00222154
-0.00415418
-0.0026629
-0.00575049
-0.00291754
-0.00735823
-0.00304966
-0.00891348
-0.00311938
-0.0103641
-0.00317423
-0.0116635
-0.00324582
-0.0127649
-0.0033504
-0.0136181
-0.00349163
-0.0141669
-0.00366415
-0.0143476
-0.00385695
-0.0140885
-0.00405622
-0.0133104
-0.00424771
-0.0119263
-0.00441868
-0.00984184
-0.00455965
-0.00695639
-0.00466609
-0.00316223
-0.00474052
0.00165455
-0.00479194
0.00762377
-0.00484286
0.0148991
-0.00492042
0.0236365
-0.00499812
-0.00535052
0.0343871
-0.000385184
-0.000213904
-0.00126919
-0.000655837
-0.00246171
-0.00102901
-0.0038141
-0.00131052
-0.00520975
-0.00152188
-0.00655721
-0.00170221
-0.00778256
-0.00189403
-0.00882235
-0.00213445
-0.00961743
-0.00245074
-0.0101082
-0.00285959
-0.0102315
-0.00336837
-0.00991826
-0.00397739
-0.00909313
-0.00468207
-0.00767429
-0.00547506
-0.00557406
-0.00634793
-0.00269993
-0.00729281
0.00104439
-0.00830398
0.00575791
-0.00937962
0.011541
-0.0105236
0.0184963
-0.0117472
0.0267216
-0.0130682
0.0363597
-0.0145585
0.047385
-0.0160234
-0.0185941
0.0606286
-0.000344753
0.000130849
-0.00112571
0.00012512
-0.00215758
2.86229e-06
-0.00329192
-0.000176187
-0.00440588
-0.000407922
-0.00539875
-0.000709333
-0.00618446
-0.00110832
-0.00668496
-0.00163395
-0.00682503
-0.00231067
-0.00652834
-0.00315628
-0.00571497
-0.00418174
-0.00430048
-0.00539188
-0.00219604
-0.00678651
0.000690435
-0.00836154
0.0044526
-0.0101101
0.00918374
-0.0120239
0.0149746
-0.0140949
0.0219115
-0.0163165
0.0300739
-0.018686
0.0395354
-0.0212087
0.0503402
-0.023873
0.0626066
-0.0268249
0.0760985
-0.0295152
-0.0341369
0.0916412
-0.000288134
0.000418983
-0.000926545
0.000763531
-0.00174085
0.000817169
-0.00258023
0.000663189
-0.00331676
0.000328605
-0.00383734
-0.000188747
-0.0040405
-0.000905155
-0.00382907
-0.00184538
-0.00310767
-0.00303208
-0.00177986
-0.0044841
0.000252481
-0.00621407
0.00308825
-0.00822765
0.00682497
-0.0105232
0.0115557
-0.0130923
0.017366
-0.0159203
0.0243299
-0.0189879
0.032508
-0.022273
0.0419444
-0.0257529
0.0526643
-0.0294059
0.0646762
-0.0332207
0.0779499
-0.0371467
0.0925003
-0.0413753
0.108075
-0.0450897
-0.0510893
0.125027
-0.00021831
0.000637293
-0.000678691
0.00122391
-0.00121627
0.00135475
-0.0016805
0.00112742
-0.00193399
0.000582092
-0.00184928
-0.000273451
-0.00130494
-0.0014495
-0.000183239
-0.00296708
0.00163175
-0.00484707
0.00425355
-0.00710589
0.00779084
-0.00975136
0.0123435
-0.0127803
0.0179975
-0.0161773
0.0248202
-0.019915
0.0328555
-0.0239556
0.0421208
-0.0282532
0.0526054
-0.0327575
0.06427
-0.0374175
0.0770482
-0.0421841
0.0908469
-0.0470194
0.105556
-0.0518553
0.12101
-0.0568299
0.13714
-0.0612197
-0.0674626
0.153514
-0.000139582
0.000776875
-0.000392738
0.00147707
-0.000602147
0.00156416
-0.00061422
0.00113949
-0.000280455
0.000248327
0.000542936
-0.00109684
0.00199659
-0.00290316
0.00421582
-0.0051863
0.00732896
-0.00796021
0.0114522
-0.0112292
0.0166831
-0.0149822
0.0230928
-0.01919
0.0307196
-0.0238042
0.0395639
-0.0287593
0.0495855
-0.0339772
0.0607043
-0.039372
0.0728038
-0.044857
0.085737
-0.0503507
0.0993336
-0.0557808
0.113408
-0.0610937
0.127784
-0.0662319
0.142206
-0.0712516
0.156772
-0.0757856
-0.0811889
0.170498
-5.70385e-05
-8.24637e-05
7.85144e-05
0.000585486
0.00159931
0.00327881
0.00577726
0.00923613
0.0137768
0.0194904
0.0264276
0.03459
0.0439255
0.0543284
0.0656444
0.0776804
0.0902171
0.103023
0.115869
0.128544
0.140866
0.15266
0.164045
0.174379
-0.0334805
0.0363845
-0.0385303
-0.0308308
0.0481228
-0.0507725
-0.0276181
0.0604146
-0.0636272
-0.0237937
0.072648
-0.0764725
-0.0192729
0.0841421
-0.0886629
-0.0137973
0.0939613
-0.0994369
-0.00705339
0.101165
-0.107909
0.00139207
0.104512
-0.112957
0.011788
0.1028
-0.113196
0.024068
0.0949019
-0.107182
0.0378499
0.0801502
-0.0939321
0.0523615
0.0585514
-0.073063
0.0668771
0.0306018
-0.0451173
0.0807708
-0.00286859
-0.0110251
0.0939313
-0.0406166
0.0274561
0.105969
-0.0797324
0.0676945
0.116259
-0.115059
0.104769
0.123976
-0.141571
0.133854
0.128612
-0.157283
0.152647
0.130406
-0.163737
0.161944
0.129964
-0.163904
0.164346
0.127223
-0.161462
0.164202
0.121594
-0.161403
0.167032
0.113764
-0.166365
0.174196
0.106817
-0.169994
0.17694
0.104566
-0.156953
0.159205
0.108605
-0.11499
0.110951
0.117747
-0.0469111
0.0377693
0.12911
0.0303974
-0.0417602
0.13981
0.0992114
-0.109912
0.147942
0.148822
-0.156954
0.153151
0.17801
-0.183219
0.155517
0.191169
-0.193534
0.154252
0.199923
-0.198658
0.148833
0.2154
-0.209981
0.141079
0.231499
-0.223746
0.134803
0.224806
-0.21853
0.132955
0.169642
-0.167794
0.136038
0.0750522
-0.0781354
0.142139
-0.0354937
0.029393
0.149093
-0.123886
0.116932
0.154445
-0.183498
0.178146
0.155586
-0.213088
0.211946
0.151008
-0.232765
0.237343
0.14274
-0.25026
0.258529
0.135635
-0.233863
0.240967
0.134234
-0.184275
0.185677
0.138704
-0.0651747
0.0607044
0.145763
0.035008
-0.0420664
0.14979
0.145226
-0.149253
0.148127
0.217151
-0.215488
0.14304
0.267233
-0.262147
0.139684
0.297296
-0.29394
0.14064
0.191137
-0.192092
0.14401
0.131163
-0.134533
0.144967
-0.0594324
0.0584758
0.14355
-0.162157
0.163574
0.14176
-0.249996
0.251786
0.140133
-0.359666
0.361293
-0.123007
0.124666
-0.0338761
0.0332172
-0.0298373
0.044084
-0.02485
0.0554273
-0.0187681
0.0665661
-0.0116282
0.0770022
-0.00313933
0.0854724
0.00685068
0.0911749
0.0183178
0.0930444
0.031191
0.0899265
0.0451212
0.0809717
0.0594961
0.0657753
0.0735746
0.0444729
0.0868097
0.0173667
0.0988024
-0.0148614
0.109577
-0.0513914
0.118869
-0.0890239
0.126123
-0.122314
0.130768
-0.146215
0.132592
-0.159107
0.131983
-0.163128
0.129718
-0.161639
0.125927
-0.157671
0.119731
-0.155207
0.111028
-0.157662
0.102428
-0.161393
0.0983174
-0.152843
0.101361
-0.118034
0.110749
-0.0562988
0.123386
0.0177605
0.13583
0.0867673
0.145912
0.13874
0.15301
0.170912
0.15687
0.187308
0.1567
0.200092
0.152293
0.219808
0.145607
0.238185
0.140056
0.230358
0.138134
0.171564
0.140326
0.07286
0.144971
-0.0401384
0.150282
-0.129197
0.154282
-0.187498
0.154688
-0.213494
0.149741
-0.227819
0.141217
-0.241736
0.13395
-0.226596
0.13281
-0.183136
0.137861
-0.0702249
0.145445
0.027424
0.149846
0.140824
0.148375
0.218622
0.143456
0.272152
0.14
0.300752
0.140967
0.19017
0.144585
0.127545
0.145672
-0.0605188
0.144233
-0.160718
0.142319
-0.248082
0.140647
-0.357994
-0.121317
-0.0237808
0.0290957
-0.0184967
0.0387999
-0.012139
0.0490696
-0.00440671
0.0588338
0.00501634
0.0675791
0.0156865
0.0748023
0.0275418
0.0793196
0.0405016
0.0800846
0.0542604
0.0761677
0.0683158
0.0669164
0.0820341
0.052057
0.0948031
0.0317039
0.106149
0.00602059
0.115973
-0.0246849
0.124277
-0.0596956
0.130813
-0.0955601
0.135072
-0.126572
0.136738
-0.147881
0.135956
-0.158326
0.133267
-0.160439
0.129472
-0.157843
0.124874
-0.153073
0.118518
-0.148852
0.109526
-0.14867
0.0996912
-0.151558
0.0936258
-0.146778
0.095166
-0.119574
0.104237
-0.0653699
0.117698
0.00429915
0.13163
0.0728354
0.143592
0.126779
0.152582
0.161922
0.158018
0.181873
0.15915
0.198961
0.156023
0.222935
0.150546
0.243662
0.145666
0.235237
0.143508
0.173723
0.144666
0.0717019
0.14779
-0.0432625
0.151424
-0.132832
0.154057
-0.190131
0.153801
-0.213238
0.148653
-0.22267
0.140019
-0.233102
0.132625
-0.219202
0.131643
-0.182154
0.137138
-0.0757198
0.145177
0.019385
0.149987
0.136014
0.148767
0.219842
0.144035
0.276884
0.140458
0.304329
0.141402
0.189226
0.145289
0.123658
0.146529
-0.061759
0.145046
-0.159236
0.142989
-0.246025
0.141282
-0.356287
-0.119622
-0.00612929
0.024294
-3.89115e-05
0.0327095
0.00790422
0.0411265
0.0170774
0.0496606
0.0273738
0.0572827
0.0388573
0.0633188
0.051343
0.0668339
0.0645261
0.0669015
0.0779705
0.0627233
0.0911427
0.0537442
0.103479
0.0397206
0.11448
0.0207029
0.123854
-0.00335285
0.131582
-0.0324132
0.137602
-0.0657154
0.141559
-0.0995172
0.142982
-0.127996
0.141841
-0.146739
0.138679
-0.155164
0.134223
-0.155983
0.129174
-0.152795
0.123927
-0.147826
0.117695
-0.142619
0.109048
-0.140024
0.0986535
-0.141163
0.0907494
-0.138874
0.0902547
-0.11908
0.098282
-0.0733972
0.112041
-0.00946004
0.127175
0.0577018
0.140901
0.113053
0.151762
0.151061
0.158853
0.174782
0.161493
0.196321
0.159875
0.224552
0.155728
0.24781
0.151475
0.239489
0.148958
0.17624
0.148938
0.0717224
0.150535
-0.0448596
0.152505
-0.134801
0.153767
-0.191393
0.152891
-0.212362
0.147676
-0.217456
0.139074
-0.224499
0.131594
-0.211722
0.130664
-0.181224
0.136477
-0.081533
0.144924
0.0109379
0.150192
0.130746
0.149302
0.220732
0.144799
0.281388
0.141086
0.308042
0.141959
0.188353
0.146119
0.119498
0.147529
-0.0631688
0.145986
-0.157693
0.143767
-0.243805
0.142029
-0.354549
-0.117941
0.0167189
0.0183851
0.0236051
0.0258234
0.0315293
0.0332023
0.0407978
0.0403921
0.0512447
0.0468359
0.0626953
0.0518682
0.0748803
0.0546489
0.0874255
0.0543563
0.0998578
0.0502911
0.11167
0.0419319
0.122404
0.0289867
0.131655
0.0114516
0.139366
-0.0110634
0.145342
-0.0383897
0.149335
-0.0697079
0.150834
-0.101016
0.149533
-0.126695
0.145795
-0.143002
0.140554
-0.149922
0.134688
-0.150118
0.128737
-0.146843
0.123016
-0.142106
0.117035
-0.136638
0.109202
-0.132191
0.0990414
-0.131003
0.0897784
-0.129611
0.0869158
-0.116217
0.0931827
-0.0796641
0.106476
-0.0227534
0.122459
0.041719
0.137745
0.0977662
0.150395
0.138411
0.1592
0.165977
0.163535
0.191985
0.163642
0.224445
0.160934
0.250517
0.157286
0.243138
0.154307
0.179219
0.153067
0.0729616
0.153134
-0.0449265
0.153489
-0.135156
0.153387
-0.191292
0.151921
-0.210895
0.146754
-0.212289
0.138311
-0.216057
0.130784
-0.204195
0.129801
-0.180241
0.135815
-0.0875468
0.144637
0.0021162
0.150429
0.124954
0.149971
0.221191
0.145759
0.285599
0.141908
0.311893
0.142654
0.187607
0.147067
0.115084
0.148659
-0.0647606
0.147047
-0.156081
0.144649
-0.241407
0.142877
-0.352777
-0.116296
0.0402563
0.0125159
0.0469512
0.0191285
0.0546973
0.0254562
0.0636542
0.0314352
0.0736675
0.0368226
0.0845013
0.0410344
0.0958555
0.0432947
0.107344
0.0428683
0.118506
0.0391286
0.128889
0.0315489
0.138139
0.0197367
0.146002
0.00358874
0.152349
-0.01741
0.156865
-0.0429058
0.159013
-0.0718566
0.1582
-0.100203
0.154404
-0.122899
0.148423
-0.137021
0.141481
-0.14298
0.134552
-0.143189
0.128022
-0.140313
0.122011
-0.136094
0.11629
-0.130917
0.109518
-0.125419
0.100355
-0.12184
0.0905457
-0.119801
0.0853828
-0.111054
0.0891942
-0.0834754
0.101219
-0.0347787
0.117511
0.0254273
0.134025
0.0812525
0.148304
0.124132
0.158842
0.155439
0.165025
0.185803
0.167037
0.222433
0.165896
0.251658
0.162887
0.246147
0.159402
0.182704
0.156917
0.0754466
0.155504
-0.043513
0.154326
-0.133978
0.152886
-0.189852
0.150845
-0.208854
0.145816
-0.20726
0.137646
-0.207886
0.13011
-0.196659
0.128978
-0.179109
0.135084
-0.0936532
0.144257
-0.00705699
0.150655
0.118556
0.150749
0.221097
0.146917
0.289431
0.142939
0.315872
0.143492
0.187053
0.148124
0.110453
0.149904
-0.0665411
0.148219
-0.154397
0.145627
-0.238814
0.143814
-0.350965
-0.114708
0.065088
0.00805646
0.0705269
0.0136896
0.0771614
0.0188218
0.0850538
0.0235428
0.093987
0.0278894
0.103694
0.0313272
0.113868
0.0331208
0.12412
0.0326163
0.134011
0.0292377
0.143129
0.022431
0.151072
0.0117932
0.158009
-0.00334843
0.163092
-0.022493
0.166159
-0.0459722
0.166425
-0.0721233
0.163384
-0.0971615
0.157377
-0.116892
0.14958
-0.129224
0.141373
-0.134773
0.133718
-0.135534
0.126889
-0.133484
0.120782
-0.129987
0.115274
-0.125409
0.109528
-0.119673
0.101901
-0.114212
0.0925512
-0.110452
0.0856602
-0.104163
0.0865972
-0.0844125
0.0965489
-0.0447304
0.11242
0.00955654
0.129681
0.0639915
0.14534
0.108473
0.157564
0.143215
0.165691
0.177676
0.169769
0.218355
0.170342
0.251085
0.168071
0.248417
0.164126
0.186649
0.16036
0.0792134
0.157558
-0.0407116
0.154961
-0.131381
0.152228
-0.187119
0.149618
-0.206244
0.144797
-0.202439
0.136998
-0.200087
0.129486
-0.189147
0.128114
-0.177737
0.134209
-0.0997476
0.143722
-0.0165699
0.150814
0.111464
0.151601
0.220309
0.14826
0.292772
0.144181
0.31995
0.144484
0.186751
0.149274
0.105663
0.151247
-0.0685139
0.149492
-0.152642
0.146692
-0.236014
0.144828
-0.349102
-0.113198
0.0934959
0.00620182
0.0966362
0.0105492
0.101208
0.01425
0.107131
0.01762
0.114166
0.020854
0.12209
0.0234035
0.130602
0.0246088
0.139305
0.0239129
0.14777
0.0207728
0.155615
0.0145858
0.162398
0.00501056
0.167984
-0.00893421
0.171742
-0.0262513
0.173106
-0.0473365
0.17133
-0.0703467
0.166165
-0.0919971
0.158326
-0.109053
0.149218
-0.120116
0.140214
-0.125769
0.132153
-0.127473
0.125227
-0.126558
0.119196
-0.123955
0.113886
-0.1201
0.108939
-0.114727
0.102989
-0.108262
0.0950169
-0.102479
0.087425
-0.0965713
0.0856071
-0.0825945
0.0927462
-0.0518695
0.10734
-0.00503703
0.124715
0.0466163
0.141405
0.0917825
0.155194
0.129426
0.165286
0.167583
0.171503
0.212138
0.173909
0.248679
0.172527
0.249799
0.168257
0.190919
0.163321
0.084149
0.159208
-0.0365979
0.155329
-0.127503
0.151373
-0.183163
0.148186
-0.203056
0.143627
-0.197881
0.136291
-0.192752
0.128832
-0.181688
0.127136
-0.176041
0.133121
-0.105733
0.142956
-0.0264049
0.150841
0.10358
0.152474
0.218676
0.149757
0.295489
0.145626
0.324081
0.145626
0.186751
0.150507
0.100782
0.152668
-0.0706756
0.150851
-0.150824
0.14783
-0.232993
0.145904
-0.347176
-0.111788
0.12451
0.00671895
0.125358
0.00970093
0.127593
0.0120152
0.131102
0.0141114
0.135733
0.0162228
0.14135
0.0177861
0.147676
0.018283
0.154339
0.0172495
0.160928
0.0141847
0.166985
0.0085282
0.172322
-0.000326104
0.176082
-0.0126945
0.177992
-0.0281608
0.177286
-0.0466307
0.173385
-0.0664459
0.166365
-0.0849769
0.157199
-0.0998873
0.147328
-0.110244
0.137974
-0.116415
0.129789
-0.119288
0.1229
-0.119669
0.117055
-0.11811
0.111984
-0.115028
0.107586
-0.110328
0.103092
-0.103768
0.0970334
-0.0964208
0.0899482
-0.0894862
0.0861297
-0.078776
0.0901852
-0.055925
0.102419
-0.0172706
0.119205
0.0298299
0.136454
0.0745334
0.151583
0.114297
0.163598
0.155568
0.172055
0.203681
0.176433
0.244301
0.176039
0.250193
0.171597
0.195361
0.165662
0.0900845
0.160353
-0.0312892
0.155337
-0.122487
0.150257
-0.178083
0.14648
-0.19928
0.142224
-0.193625
0.135455
-0.185982
0.128079
-0.174312
0.125977
-0.173939
0.131761
-0.111517
0.141892
-0.036536
0.150663
0.0948089
0.153306
0.216033
0.151365
0.29743
0.14725
0.328196
0.146905
0.187096
0.151806
0.0958812
0.154146
-0.0730159
0.15228
-0.148958
0.149026
-0.229739
0.147027
-0.345176
-0.110508
0.15183
0.00840216
0.151396
0.0101356
0.152006
0.0114045
0.153566
0.0125522
0.156114
0.0136746
0.159547
0.0143525
0.163618
0.0142125
0.168022
0.0128451
0.17243
0.00977731
0.176395
0.00456265
0.179645
-0.00357552
0.181246
-0.0142961
0.180943
-0.0278574
0.178067
-0.0437547
0.172266
-0.0606449
0.163886
-0.0765971
0.15399
-0.0899912
0.143871
-0.100125
0.134522
-0.107067
0.126423
-0.111189
0.11966
-0.112906
0.114053
-0.112503
0.109297
-0.110272
0.105309
-0.10634
0.101874
-0.100333
0.0977737
-0.0923209
0.0922037
-0.0839161
0.0876193
-0.0741917
0.088813
-0.0571187
0.0980837
-0.0265413
0.113338
0.0145754
0.130521
0.0573505
0.146663
0.0981554
0.160433
0.141798
0.171039
0.193076
0.177443
0.237897
0.178279
0.249356
0.173927
0.199713
0.167282
0.0967305
0.16093
-0.0249373
0.154925
-0.116482
0.148843
-0.172001
0.144461
-0.194897
0.140521
-0.189685
0.134436
-0.179896
0.127193
-0.16707
0.124591
-0.171337
0.130073
-0.116999
0.140463
-0.0469259
0.150208
0.0850644
0.154016
0.212225
0.153015
0.298431
0.149015
0.332196
0.148314
0.187798
0.153146
0.0910493
0.15566
-0.0755306
0.153758
-0.147055
0.150264
-0.226246
0.148183
-0.343095
-0.109389
0.168851
0.0100492
0.168189
0.0107984
0.168104
0.011489
0.168658
0.0119981
0.169996
0.0123369
0.171978
0.0123704
0.174394
0.0117967
0.177012
0.0102271
0.179519
0.00727041
0.181414
0.00266703
0.182516
-0.00467727
0.182202
-0.0139816
0.179954
-0.0256099
0.175345
-0.0391456
0.16828
-0.0535802
0.159269
-0.0675863
0.149302
-0.0800234
0.13942
-0.0902436
0.130377
-0.0980233
0.122526
-0.103338
0.115939
-0.106319
0.110533
-0.107098
0.106073
-0.105812
0.102395
-0.102661
0.0995693
-0.097508
0.0969953
-0.0897469
0.09337
-0.0802909
0.0892705
-0.0700922
0.0884567
-0.0563048
0.0945714
-0.0326561
0.107405
0.00174179
0.123719
0.0410369
0.140432
0.081442
0.15587
0.12636
0.168772
0.180174
0.177373
0.229297
0.179427
0.247303
0.175297
0.203842
0.168239
0.103788
0.161082
-0.0177798
0.154216
-0.109616
0.147276
-0.165061
0.142255
-0.189876
0.138571
-0.186002
0.13325
-0.174576
0.126199
-0.160018
0.123021
-0.168159
0.12805
-0.122028
0.138606
-0.0574817
0.149392
0.074278
0.154536
0.207081
0.154646
0.298321
0.150866
0.335975
0.149834
0.18883
0.15451
0.0863733
0.157192
-0.0782119
0.155269
-0.145132
0.151528
-0.222506
0.149364
-0.340931
-0.108468
0.173746
0.0106816
0.173306
0.0112385
0.173268
0.0115271
0.173618
0.0116481
0.17438
0.0115749
0.175532
0.0112185
0.176932
0.010397
0.178364
0.00879454
0.179593
0.00604202
0.180505
0.00175484
0.180084
-0.00425606
0.178344
-0.0122422
0.174875
-0.02214
0.169425
-0.0336957
0.162084
-0.0462395
0.153375
-0.058877
0.14409
-0.0707382
0.134985
-0.0811393
0.126598
-0.0896359
0.119206
-0.0959465
0.112889
-0.100002
0.107644
-0.101853
0.103368
-0.101536
0.099869
-0.0991623
0.0972503
-0.0948894
0.0954955
-0.087992
0.0935469
-0.0783424
0.0906835
-0.0672288
0.0889973
-0.0546186
0.0922625
-0.0359212
0.101917
-0.00791252
0.116441
0.0265122
0.132743
0.0651401
0.149013
0.11009
0.163826
0.165361
0.174784
0.218338
0.178571
0.243516
0.175366
0.207047
0.168506
0.110648
0.160783
-0.0100564
0.153193
-0.102026
0.145647
-0.157516
0.140025
-0.184253
0.136482
-0.182459
0.13194
-0.170034
0.125125
-0.153202
0.12135
-0.164385
0.125849
-0.126527
0.136396
-0.0680285
0.148164
0.0625101
0.154736
0.200509
0.156143
0.296914
0.152762
0.339357
0.151447
0.190144
0.155875
0.0819454
0.158716
-0.0810524
0.156784
-0.1432
0.152815
-0.218537
0.150565
-0.338681
-0.107775
0.192248
0.0114692
-0.193036
0.192028
0.0114583
0.192058
0.0114975
0.192368
0.0113376
0.193044
0.0108994
0.194138
0.0101245
0.195682
0.00885235
0.197654
0.00682268
0.199903
0.00379333
0.202184
-0.000526608
0.20428
-0.00635182
0.205812
-0.0137741
0.206378
-0.0227057
0.205588
-0.0329065
0.203231
-0.0438819
0.199334
-0.0549804
0.194127
-0.065531
0.187921
-0.0749338
0.181036
-0.0827507
0.173765
-0.0886755
0.166349
-0.0925859
0.158978
-0.094482
0.151802
-0.09436
0.144805
-0.0921658
0.138013
-0.0880968
0.131667
-0.0816469
0.125447
-0.0721221
0.1183
-0.0600814
0.110507
-0.0468254
0.104878
-0.0302928
0.104486
-0.00752063
0.108895
0.0221036
0.116017
0.0580178
0.12337
0.102738
0.130197
0.158534
0.137075
0.21146
0.145225
0.235366
0.155973
0.196299
0.166611
0.100011
0.173142
-0.0165872
0.173849
-0.102733
0.169133
-0.1528
0.162197
-0.177316
0.155465
-0.175728
0.147845
-0.162413
0.13877
-0.144128
0.13139
-0.157004
0.129771
-0.124907
0.132469
-0.0707266
0.135933
0.0590453
0.13726
0.199182
0.137359
0.296816
0.13792
0.338795
0.141248
0.186816
0.148282
0.0749116
0.152127
-0.0848977
0.149468
-0.140541
0.144396
-0.213465
0.139394
-0.333679
-0.105021
0.204565
0.011522
-0.204618
0.204785
0.0112381
0.205283
0.0110003
0.20602
0.0106004
0.207008
0.00991143
0.208279
0.00885325
0.209829
0.00730276
0.211576
0.00507521
0.213402
0.00196721
0.215123
-0.00224768
0.216482
-0.00771011
0.217176
-0.0144686
0.21692
-0.0224496
0.21546
-0.0314469
0.212664
-0.0410853
0.208547
-0.0508639
0.203262
-0.0602454
0.197047
-0.0687192
0.190185
-0.0758889
0.182963
-0.0814529
0.175628
-0.0852507
0.168348
-0.0872028
0.161266
-0.0872775
0.15442
-0.0853196
0.147757
-0.0814339
0.141462
-0.0753522
0.135635
-0.0662949
0.129473
-0.0539192
0.122387
-0.0397401
0.116066
-0.0239716
0.11348
-0.0049347
0.116161
0.0194226
0.122554
0.0516248
0.130413
0.0948789
0.138432
0.150515
0.146811
0.203081
0.156939
0.225237
0.169471
0.183767
0.180977
0.0885055
0.18722
-0.0228306
0.187061
-0.102575
0.181231
-0.14697
0.173164
-0.169249
0.165701
-0.168265
0.157904
-0.154616
0.148544
-0.134768
0.140557
-0.149018
0.138279
-0.122629
0.140815
-0.0732631
0.144731
0.0551291
0.146757
0.197157
0.147821
0.295751
0.149116
0.3375
0.152555
0.183378
0.159726
0.0677405
0.163509