/*--------------------------------*- C++ -*----------------------------------*\
| =========                 |                                                 |
| \\      /  F ield         | OpenFOAM: The Open Source CFD Toolbox           |
|  \\    /   O peration     | Version:  2512                                  |
|   \\  /    A nd           | Website:  www.openfoam.com                      |
|    \\/     M anipulation  |                                                 |
\*---------------------------------------------------------------------------*/
FoamFile
{
    version     2.0;
    format      ascii;
    arch        "LSB;label=32;scalar=64";
    class       volVectorField;
    location    "113.25";
    object      U;
}
// * * * * * * * * * * * * * * * * * * * * * * * * * * * * * * * * * * * * * //

dimensions      [0 1 -1 0 0 0 0];

internalField   nonuniform List<vector> 
13248
(
(-0.0107596 0.00986977 7.20119e-20)
(-0.0171948 0.0174483 0)
(-0.0106434 0.0177251 -1.36934e-19)
(0.00795259 0.0136755 1.28996e-19)
(0.038237 0.00742959 1.21149e-19)
(0.0800452 0.000516343 0)
(0.133164 -0.00597526 0)
(0.197119 -0.0112691 2.89909e-19)
(0.271003 -0.0148165 -3.27413e-21)
(0.35336 -0.0162546 -2.49791e-19)
(0.442177 -0.0153949 2.25199e-19)
(0.534965 -0.0122226 -1.403e-19)
(0.628929 -0.0068937 0)
(0.721192 0.000280021 -2.21974e-19)
(0.809026 0.00886104 4.07671e-19)
(0.890067 0.0183276 -9.59935e-20)
(0.962473 0.0281249 -1.58931e-19)
(1.02502 0.037702 1.49198e-19)
(1.07713 0.0466017 0)
(1.11883 0.0543066 0)
(1.15077 0.0608754 0)
(1.17361 0.0650486 0)
(1.18971 0.0692655 4.01973e-20)
(1.19828 0.0675426 1.4119e-19)
(-0.0103175 0.00872161 -2.17607e-19)
(-0.0124513 0.0145142 1.48742e-19)
(0.0023172 0.0141489 -1.00843e-21)
(0.0325244 0.0102443 -1.96989e-19)
(0.0773716 0.00483873 -1.21014e-19)
(0.1362 -0.000503797 -1.14232e-19)
(0.208101 -0.00466194 -2.09344e-19)
(0.291654 -0.00687332 1.97656e-19)
(0.384744 -0.00668006 0)
(0.48454 -0.00390686 2.09188e-21)
(0.587623 0.00135365 4.48701e-21)
(0.690262 0.00876856 1.40298e-19)
(0.788761 0.0178138 0)
(0.879814 0.0278428 0)
(0.960794 0.0381663 1.47621e-19)
(1.02994 0.0481294 -2.76937e-19)
(1.08642 0.0571761 1.5788e-19)
(1.13033 0.0648905 -1.48222e-19)
(1.16251 0.071024 -6.37547e-20)
(1.18443 0.075449 -1.11014e-19)
(1.19781 0.0783 -4.47515e-20)
(1.20486 0.0793069 -8.27286e-20)
(1.20687 0.0799547 1.24435e-19)
(1.20629 0.0765678 3.54029e-20)
(-0.00866055 0.00686022 0)
(-0.00389494 0.00983724 0)
(0.0217848 0.00840588 6.97075e-20)
(0.0663633 0.00480319 6.43962e-20)
(0.128444 0.000918002 -1.48239e-21)
(0.206553 -0.00173853 -1.1724e-19)
(0.298616 -0.00214759 0)
(0.401702 0.000250637 -9.79776e-20)
(0.511974 0.0055918 9.08965e-20)
(0.624893 0.013621 2.81904e-22)
(0.735639 0.0237572 -1.51548e-19)
(0.839631 0.0351953 -1.35164e-19)
(0.933026 0.0470345 5.01725e-21)
(1.01309 0.0584077 -1.04575e-19)
(1.07836 0.0685907 2.56142e-19)
(1.12869 0.0770736 0)
(1.16502 0.0835892 -1.5598e-19)
(1.18914 0.0880952 7.58556e-20)
(1.20336 0.0907447 6.36981e-20)
(1.21011 0.0917631 0)
(1.21174 0.0915849 5.02777e-20)
(1.21019 0.0901472 -1.72765e-19)
(1.20679 0.0888291 1.62178e-19)
(1.20358 0.0845898 1.00859e-19)
(-0.00555957 0.0045215 -7.68291e-20)
(0.00920953 0.00412649 -7.93374e-20)
(0.0489437 0.00169614 7.20078e-20)
(0.110896 -0.000972444 0)
(0.192733 -0.00223615 0)
(0.291644 -0.000790654 -1.90434e-21)
(0.403761 0.00404946 0)
(0.524075 0.0123529 -2.9602e-19)
(0.646732 0.0236405 2.73373e-19)
(0.765643 0.0370038 -3.35327e-19)
(0.875239 0.0512838 7.5711e-20)
(0.971144 0.0652798 0)
(1.05062 0.0779429 1.20728e-19)
(1.11268 0.0885137 -2.21548e-19)
(1.15799 0.0965857 5.24889e-20)
(1.18843 0.102095 1.28471e-19)
(1.20668 0.105251 -8.49032e-21)
(1.21571 0.106439 -1.42429e-19)
(1.21834 0.106115 0)
(1.21696 0.104707 0)
(1.2134 0.102625 -4.83121e-20)
(1.20887 0.0999129 4.2861e-20)
(1.20409 0.0975656 1.5008e-19)
(1.19962 0.0928401 -1.40893e-19)
(-0.000711415 0.00192194 -8.06171e-20)
(0.0276401 -0.00186337 -8.0383e-20)
(0.0848466 -0.00464245 2.26236e-19)
(0.167078 -0.00520899 -1.37419e-19)
(0.270515 -0.00235424 1.29349e-19)
(0.390311 0.00475553 2.34815e-19)
(0.520177 0.0161338 -1.65376e-19)
(0.652737 0.0310171 -1.9887e-19)
(0.7804 0.0480739 5.51612e-21)
(0.896416 0.0656942 2.52761e-19)
(0.995782 0.0823087 0)
(1.07575 0.0966599 6.76115e-20)
(1.13589 0.107966 0)
(1.17768 0.115956 -1.06386e-19)
(1.20395 0.120798 1.48985e-19)
(1.21813 0.12296 9.59913e-22)
(1.22368 0.123047 -3.79671e-20)
(1.22364 0.121667 6.91082e-20)
(1.22033 0.119335 5.97293e-20)
(1.2154 0.116431 -5.29438e-20)
(1.20987 0.113221 4.83005e-20)
(1.20429 0.109736 -4.28505e-20)
(1.19886 0.106558 0)
(1.19402 0.101568 -3.26453e-20)
(0.00623406 -0.000708048 8.06056e-20)
(0.0521107 -0.00731052 8.43332e-20)
(0.13018 -0.0091856 -7.57261e-20)
(0.235015 -0.00600444 1.40788e-19)
(0.360582 0.0026789 -1.32513e-19)
(0.499298 0.0168342 1.19395e-19)
(0.642119 0.0354058 -5.72769e-20)
(0.779657 0.0565355 1.49527e-19)
(0.903661 0.0780269 -9.36948e-20)
(1.00825 0.0978268 1.63225e-19)
(1.09054 0.1144 -3.74694e-19)
(1.15056 0.126919 1.36941e-19)
(1.19061 0.135252 -1.17106e-19)
(1.21437 0.13981 1.09998e-19)
(1.22597 0.141316 9.26121e-20)
(1.22929 0.140585 7.96105e-20)
(1.22748 0.138361 -2.21852e-19)
(1.22286 0.135229 1.3686e-19)
(1.21695 0.131592 -5.97312e-20)
(1.21064 0.1277 1.54315e-19)
(1.20442 0.123691 -4.98712e-20)
(1.19849 0.119592 -1.19584e-19)
(1.19292 0.115708 1.10092e-19)
(1.18781 0.110538 3.2635e-20)
(0.015615 -0.00308627 0)
(0.083118 -0.0112996 5.78836e-22)
(0.185023 -0.0104766 1.57341e-19)
(0.313675 -0.00160527 -1.47705e-19)
(0.460074 0.0145168 -1.32887e-19)
(0.613473 0.036523 2.46642e-19)
(0.762405 0.0619752 -1.1438e-19)
(0.896652 0.0879197 1.51278e-19)
(1.00901 0.11163 -3.88155e-21)
(1.09611 0.131153 -8.5021e-20)
(1.15825 0.145535 1.82728e-19)
(1.19847 0.154756 -2.68646e-19)
(1.22126 0.159464 0)
(1.23144 0.160644 -5.15827e-20)
(1.23331 0.159328 -1.35741e-19)
(1.23025 0.156407 4.29778e-20)
(1.2246 0.152547 1.97579e-21)
(1.21786 0.148194 -9.00923e-20)
(1.21087 0.143613 6.80682e-21)
(1.20405 0.13895 1.03668e-19)
(1.19761 0.134275 -4.53063e-20)
(1.19157 0.12962 -1.70595e-20)
(1.18591 0.125082 5.31248e-20)
(1.18064 0.119763 0)
(0.0276843 -0.00485564 0)
(0.12078 -0.0128169 4.26477e-20)
(0.248659 -0.00709154 -2.04869e-19)
(0.400793 0.00943727 7.43638e-20)
(0.564696 0.0341456 -6.99887e-20)
(0.726653 0.0639199 -6.36192e-20)
(0.873949 0.0949001 -1.1207e-19)
(0.997358 0.123416 5.62124e-20)
(1.09247 0.146842 4.86223e-20)
(1.1595 0.163937 0)
(1.20204 0.174715 1.08315e-19)
(1.22542 0.180052 -1.59968e-19)
(1.2352 0.181213 1.18797e-19)
(1.23626 0.179485 5.16091e-20)
(1.23228 0.175941 -4.1591e-20)
(1.22578 0.171363 -3.39661e-20)
(1.21828 0.166263 -3.1324e-20)
(1.21064 0.16094 9.53446e-20)
(1.20326 0.155559 0)
(1.19631 0.150199 4.67044e-20)
(1.18984 0.144899 3.85769e-20)
(1.1838 0.139678 -9.65643e-20)
(1.17812 0.134518 -6.50776e-20)
(1.17276 0.129035 6.02052e-20)
(0.0425412 -0.00558696 -4.58311e-20)
(0.164706 -0.0107952 -1.58056e-21)
(0.319491 0.00225348 4.16064e-20)
(0.493019 0.0281161 1.15826e-19)
(0.669326 0.0617895 3.34479e-20)
(0.832761 0.0982604 -6.47575e-20)
(0.971224 0.132614 5.91758e-20)
(1.07837 0.161169 -5.16844e-20)
(1.15375 0.182099 9.20138e-20)
(1.20124 0.195306 3.87808e-20)
(1.22699 0.201856 -1.10096e-19)
(1.23748 0.203339 3.21727e-20)
(1.23832 0.201355 5.42515e-20)
(1.23371 0.197225 -2.68094e-20)
(1.22645 0.1919 0)
(1.21821 0.185987 3.89212e-20)
(1.20989 0.179841 6.50433e-20)
(1.20191 0.173651 1.05332e-20)
(1.19444 0.167511 -5.37394e-20)
(1.18751 0.161465 2.21893e-20)
(1.18108 0.155535 0)
(1.17508 0.14972 -1.71394e-20)
(1.16943 0.143969 -1.60673e-20)
(1.16402 0.138268 0)
(0.0600738 -0.00480883 0)
(0.213923 -0.00420932 2.39848e-20)
(0.395092 0.0185601 4.42661e-20)
(0.586269 0.0548502 -1.17834e-19)
(0.76879 0.0969479 3.80054e-20)
(0.926853 0.138208 0)
(1.05102 0.173412 5.66815e-20)
(1.13918 0.199678 -7.90358e-20)
(1.19505 0.216509 -4.58774e-20)
(1.22549 0.225076 2.06798e-20)
(1.23809 0.227327 -3.24761e-20)
(1.23945 0.225272 7.91734e-20)
(1.23453 0.220577 3.90807e-20)
(1.22662 0.214432 -2.74835e-20)
(1.21764 0.207594 -2.88238e-21)
(1.20861 0.200496 -7.29556e-20)
(1.19998 0.193366 3.30753e-20)
(1.19194 0.186317 -8.33805e-22)
(1.18452 0.179403 0)
(1.17768 0.172649 -2.22124e-20)
(1.17137 0.166064 0)
(1.16547 0.159626 4.92698e-20)
(1.1599 0.153312 -5.83222e-20)
(1.15452 0.147305 2.64615e-20)
(0.0799221 -0.0020518 -1.24338e-20)
(0.266866 0.0078108 -6.01526e-20)
(0.472376 0.0424189 6.83203e-20)
(0.676212 0.0894417 4.00629e-20)
(0.858574 0.138545 -1.91834e-20)
(1.00565 0.182183 3.19882e-20)
(1.1123 0.215778 -1.5585e-20)
(1.18116 0.237936 2.57608e-20)
(1.21955 0.249716 0)
(1.23625 0.253426 5.76306e-20)
(1.2392 0.2516 -2.57847e-21)
(1.23448 0.246388 -4.61225e-20)
(1.22608 0.239335 1.95649e-20)
(1.21637 0.231418 -2.18242e-20)
(1.20657 0.223195 -8.08869e-21)
(1.19724 0.214954 9.57327e-21)
(1.18858 0.206835 -7.2383e-21)
(1.18063 0.198901 -3.89314e-20)
(1.17337 0.191184 2.3813e-20)
(1.16671 0.183696 4.79548e-21)
(1.16057 0.17643 4.18336e-21)
(1.15483 0.169353 3.65031e-21)
(1.14939 0.162508 0)
(1.1441 0.156086 0)
(0.101541 0.00311391 1.24424e-20)
(0.321598 0.0258892 -1.24386e-20)
(0.548041 0.0739257 -2.27354e-20)
(0.758905 0.131117 0)
(0.935351 0.185147 -9.50245e-21)
(1.06754 0.228634 -8.5085e-21)
(1.15556 0.258546 -1.45224e-20)
(1.20647 0.275376 0)
(1.23024 0.281687 0)
(1.23647 0.280647 0)
(1.23274 0.275072 0)
(1.22418 0.267032 0)
(1.21383 0.257852 -1.22325e-20)
(1.20326 0.248282 5.55503e-21)
(1.19319 0.238706 9.56101e-21)
(1.18387 0.229305 4.45676e-21)
(1.17537 0.220158 1.08806e-20)
(1.16765 0.211297 0)
(1.16065 0.202738 -2.54126e-21)
(1.15427 0.194482 -2.41724e-21)
(1.14841 0.186507 -4.19002e-21)
(1.14294 0.17879 -3.65614e-21)
(1.13773 0.171437 0)
(1.13264 0.164484 2.54652e-21)
(0.000266761 -0.0451945 9.02283e-21)
(-0.00280919 -0.107292 -9.36372e-21)
(-0.0114223 -0.148726 -1.77201e-20)
(-0.0234411 -0.174276 0)
(-0.0374273 -0.188209 -2.38086e-20)
(-0.0524835 -0.194185 7.54418e-21)
(-0.0679379 -0.195065 -1.40746e-20)
(-0.0833126 -0.192829 0)
(-0.0982985 -0.18865 0)
(-0.112703 -0.183034 0)
(-0.126401 -0.176013 0)
(-0.139296 -0.167324 0)
(-0.151299 -0.15655 3.09275e-22)
(-0.162309 -0.143223 -9.66489e-21)
(-0.172206 -0.126893 1.77319e-20)
(-0.180853 -0.107159 2.53709e-20)
(-0.188093 -0.0837062 7.50635e-21)
(-0.193746 -0.0563311 0)
(-0.197613 -0.0249703 7.2244e-21)
(-0.19954 0.0103602 -1.95561e-20)
(-0.199412 0.0493052 -1.18562e-20)
(-0.197105 0.0913761 -1.0959e-20)
(-0.192671 0.136019 0)
(-0.187111 0.182454 0)
(0.00227556 -0.0405294 -2.68555e-20)
(0.000952266 -0.0959468 4.64994e-20)
(-0.00796904 -0.132789 -1.71644e-20)
(-0.0212902 -0.155327 -3.30334e-20)
(-0.0369874 -0.167459 4.6888e-20)
(-0.0538714 -0.172545 -2.94142e-20)
(-0.0711151 -0.173178 4.17394e-20)
(-0.0881753 -0.171133 2.5755e-20)
(-0.104736 -0.167435 0)
(-0.120627 -0.16251 -2.37153e-20)
(-0.135755 -0.156357 -9.84314e-23)
(-0.150053 -0.148716 2.10509e-20)
(-0.16345 -0.139197 2.88544e-20)
(-0.175853 -0.127373 3.64231e-20)
(-0.18714 -0.112838 -1.77818e-20)
(-0.197154 -0.0952371 -4.87261e-20)
(-0.205715 -0.0742911 1.41544e-20)
(-0.212631 -0.0498066 -5.45006e-20)
(-0.217585 -0.0216846 0)
(-0.22041 0.0100002 1.27594e-20)
(-0.220995 0.0450295 1.18423e-20)
(-0.218947 0.0831228 1.09459e-20)
(-0.214201 0.123978 0)
(-0.20882 0.1672 0)
(0.00360207 -0.0345905 0)
(0.00340618 -0.0821163 8.98788e-20)
(-0.00573039 -0.11403 -3.39956e-20)
(-0.0198242 -0.133706 3.25688e-20)
(-0.036418 -0.144419 -9.07022e-20)
(-0.0541027 -0.149059 0)
(-0.0719308 -0.149867 -5.38921e-20)
(-0.0893031 -0.148368 2.49578e-20)
(-0.105889 -0.145441 -4.69771e-20)
(-0.121524 -0.141441 2.12321e-20)
(-0.136128 -0.136356 1.24992e-19)
(-0.149647 -0.129948 -5.86162e-20)
(-0.16202 -0.121873 -9.20406e-20)
(-0.173157 -0.111756 -3.26955e-20)
(-0.182937 -0.0992445 7.12323e-22)
(-0.191198 -0.0840341 1.18032e-19)
(-0.197729 -0.0658876 -5.50234e-20)
(-0.202265 -0.0446357 2.5289e-21)
(-0.204574 -0.0201832 0)
(-0.204471 0.00738028 -3.9682e-20)
(-0.20171 0.0380036 0)
(-0.195789 0.0715507 -3.59201e-20)
(-0.186181 0.107886 1.25665e-19)
(-0.175506 0.146816 -1.81402e-21)
(0.00411412 -0.0278477 0)
(0.00431572 -0.0667876 -6.6678e-22)
(-0.0049664 -0.0936711 3.30881e-20)
(-0.0193058 -0.110716 -3.12021e-20)
(-0.0359971 -0.120394 2.99817e-20)
(-0.0534994 -0.125019 1.67229e-19)
(-0.0707871 -0.126416 -5.25933e-20)
(-0.0872178 -0.125839 -4.88333e-20)
(-0.102439 -0.124014 9.26568e-20)
(-0.116279 -0.121232 -1.30265e-19)
(-0.128652 -0.11748 3.99047e-20)
(-0.139503 -0.112552 3.69335e-20)
(-0.148771 -0.106152 0)
(-0.156367 -0.0979606 3.32604e-20)
(-0.162168 -0.0876786 0)
(-0.166013 -0.0750522 5.29696e-20)
(-0.167702 -0.059888 -9.85705e-20)
(-0.166988 -0.0420653 2.69733e-20)
(-0.16363 -0.0215563 8.40277e-20)
(-0.157404 0.00163657 3.96434e-20)
(-0.148092 0.027506 0)
(-0.135267 0.0560907 -9.03029e-20)
(-0.117796 0.0876118 2.98275e-20)
(-0.0971677 0.12232 0)
(0.00376862 -0.0207667 0)
(0.00360511 -0.0509096 -1.04311e-19)
(-0.00577491 -0.0728469 -3.29014e-20)
(-0.0198614 -0.0875243 -6.19712e-20)
(-0.0358974 -0.0965201 5.83575e-20)
(-0.0523078 -0.101515 -5.53993e-20)
(-0.068039 -0.103887 1.02887e-19)
(-0.0824248 -0.104606 4.83354e-20)
(-0.095093 -0.10424 -1.3624e-19)
(-0.105854 -0.103019 8.37125e-20)
(-0.11461 -0.100923 -1.17725e-19)
(-0.121298 -0.097781 2.51234e-19)
(-0.125852 -0.0933423 -1.34997e-19)
(-0.128187 -0.0873366 6.0277e-20)
(-0.128187 -0.0795113 1.65745e-19)
(-0.125707 -0.0696563 -5.63732e-20)
(-0.120572 -0.0576195 -4.85655e-20)
(-0.112581 -0.0433187 -4.49692e-20)
(-0.101507 -0.0267529 0)
(-0.0871096 -0.00795887 -6.46753e-20)
(-0.0691956 0.0130053 -5.36162e-20)
(-0.0474995 0.0361909 8.26671e-20)
(-0.0207462 0.0622019 9.13487e-20)
(0.0120081 0.0924826 -8.31502e-20)
(0.00261029 -0.0137703 0)
(0.00137132 -0.0353343 -1.36944e-19)
(-0.00804748 -0.052557 5.46502e-23)
(-0.0213897 -0.0651266 1.22378e-19)
(-0.0360345 -0.0737209 0)
(-0.0504696 -0.0793765 0)
(-0.0636673 -0.0830216 0)
(-0.0749633 -0.0853374 -4.73709e-20)
(-0.0839735 -0.086731 8.60633e-22)
(-0.0904908 -0.0873631 8.28752e-20)
(-0.0944031 -0.0872058 -1.1421e-19)
(-0.0956379 -0.0861093 1.01332e-21)
(-0.0941295 -0.0838604 0)
(-0.0898021 -0.0802273 -6.02513e-20)
(-0.0825625 -0.0749927 5.04187e-20)
(-0.0722993 -0.0679762 -1.46493e-19)
(-0.0588837 -0.0590512 1.72512e-19)
(-0.0421738 -0.0481587 3.11772e-20)
(-0.0220128 -0.0353145 -8.21793e-21)
(0.00179199 -0.0206022 -1.25543e-19)
(0.0294005 -0.0041873 -5.15187e-20)
(0.0609717 0.0137888 1.59253e-19)
(0.0974183 0.0338054 -1.01762e-19)
(0.143512 0.0578557 0)
(0.000765594 -0.00722705 6.55457e-20)
(-0.00211196 -0.020803 6.82984e-20)
(-0.0114333 -0.0336591 -6.45474e-20)
(-0.0234821 -0.0443509 -1.21782e-19)
(-0.0359339 -0.0527193 1.14678e-19)
(-0.0474234 -0.0591858 -1.07415e-19)
(-0.0569965 -0.0642446 1.51417e-19)
(-0.0640145 -0.0682943 -4.70024e-20)
(-0.0680885 -0.0715783 8.80894e-20)
(-0.0689943 -0.0741787 0)
(-0.0666017 -0.0760439 7.28303e-20)
(-0.060828 -0.077031 -1.38449e-19)
(-0.0516104 -0.0769471 1.2424e-19)
(-0.038892 -0.0755836 -1.16689e-19)
(-0.0226165 -0.0727434 0)
(-0.00272736 -0.0682619 9.36266e-20)
(0.0208317 -0.0620238 1.60472e-19)
(0.0481156 -0.0539775 -1.52057e-19)
(0.079179 -0.0441451 -6.40313e-20)
(0.114083 -0.032628 -5.40228e-20)
(0.152859 -0.0196433 1.54818e-19)
(0.195847 -0.00546297 3.84829e-20)
(0.241116 0.00965047 -3.91976e-20)
(0.304253 0.0274221 3.20466e-20)
(-0.00156529 -0.00144987 -6.55546e-20)
(-0.00640251 -0.00794829 2.05114e-19)
(-0.0153368 -0.016882 -6.42923e-20)
(-0.0254003 -0.0258937 1.21732e-19)
(-0.0346876 -0.0340969 -1.14629e-19)
(-0.0420368 -0.0413582 4.62477e-22)
(-0.0466 -0.0477708 5.05203e-20)
(-0.0477767 -0.0534638 1.86496e-19)
(-0.0451741 -0.058514 -2.33726e-21)
(-0.0385463 -0.0629108 -8.20186e-20)
(-0.0277417 -0.0665598 0)
(-0.0126702 -0.0693031 -6.5892e-20)
(0.00671586 -0.0709472 1.26335e-19)
(0.0304289 -0.0712885 1.10608e-19)
(0.0584488 -0.0701362 -5.3234e-20)
(0.0907228 -0.0673323 -7.5992e-22)
(0.127166 -0.0627693 -4.10587e-20)
(0.167665 -0.0564046 7.12618e-20)
(0.212076 -0.0482727 6.40131e-20)
(0.260273 -0.0384829 -5.60517e-20)
(0.311746 -0.0273339 4.79842e-20)
(0.368262 -0.0147816 -4.18301e-20)
(0.420749 -0.00226813 0)
(0.503925 0.0125623 -3.20006e-20)
(-0.00411794 0.00330399 6.61601e-20)
(-0.0109037 0.00269306 -6.84439e-20)
(-0.0189409 -0.00287203 6.52327e-20)
(-0.0261259 -0.0103833 0)
(-0.0310243 -0.0183808 0)
(-0.0327162 -0.0262642 1.08098e-19)
(-0.0304731 -0.0337725 -1.01192e-19)
(-0.0237399 -0.0407817 9.29216e-20)
(-0.0121239 -0.0471994 -4.36295e-19)
(0.00463255 -0.05291 1.19465e-21)
(0.0266777 -0.0577562 7.43657e-20)
(0.0540647 -0.0615459 0)
(0.0867554 -0.0640682 -1.21627e-19)
(0.124621 -0.065115 2.24016e-19)
(0.167443 -0.0645017 -1.53725e-19)
(0.214913 -0.0620874 -2.20993e-19)
(0.266645 -0.0577925 9.14645e-21)
(0.322189 -0.051613 1.45962e-19)
(0.381023 -0.0436391 0)
(0.442792 -0.033968 0)
(0.505836 -0.0232146 -4.79742e-20)
(0.574478 -0.0105378 4.18211e-20)
(0.630736 0.000906813 -1.42461e-19)
(0.727983 0.0161236 1.33658e-19)
(-0.00659733 0.00684771 0)
(-0.0149417 0.010698 0)
(-0.0212933 0.00783726 -1.96372e-19)
(-0.024446 0.0016279 6.227e-20)
(-0.023455 -0.00607948 3.97894e-22)
(-0.0176416 -0.0143099 1.09805e-19)
(-0.00640568 -0.0225006 0)
(0.0107441 -0.0302985 -9.49076e-20)
(0.0341581 -0.0374494 8.75082e-20)
(0.0640371 -0.0437263 -1.60746e-19)
(0.100423 -0.0489 1.59149e-21)
(0.14319 -0.0527378 1.34198e-19)
(0.192033 -0.0550154 -4.28672e-21)
(0.246471 -0.0555363 1.05347e-19)
(0.305852 -0.0541528 -1.55747e-19)
(0.369384 -0.0507857 0)
(0.436164 -0.0454392 1.56109e-19)
(0.505226 -0.0382088 -2.17521e-19)
(0.575526 -0.0293125 6.31568e-20)
(0.646394 -0.0188851 0)
(0.71538 -0.00785022 4.92557e-20)
(0.787474 0.00507297 1.6715e-19)
(0.842821 0.0156783 -1.56862e-19)
(0.935743 0.0310746 -1.69238e-19)
(-0.00870407 0.00909337 2.04117e-19)
(-0.017802 0.0158185 -2.81728e-19)
(-0.0213953 0.0148796 1.08024e-22)
(-0.0191078 0.00970722 6.29484e-20)
(-0.0104614 0.00238074 -1.17947e-19)
(0.00497988 -0.00585167 -1.09252e-19)
(0.027655 -0.0141855 2.0383e-19)
(0.0579242 -0.0220757 -3.11518e-21)
(0.0959835 -0.0291228 -1.78e-19)
(0.141811 -0.0349982 3.24453e-19)
(0.195122 -0.0394148 -4.11996e-21)
(0.255346 -0.0421235 -1.38916e-19)
(0.321622 -0.0429265 0)
(0.392823 -0.0416951 0)
(0.467608 -0.0383884 -5.05528e-20)
(0.544497 -0.0330664 -9.08898e-20)
(0.621953 -0.0258942 -1.57353e-19)
(0.698474 -0.0171408 1.477e-19)
(0.772635 -0.00716754 -6.3175e-20)
(0.843347 0.00366038 1.09415e-19)
(0.908863 0.0146073 -5.5015e-20)
(0.971474 0.0261945 8.16082e-20)
(1.01965 0.0353787 -2.01879e-19)
(1.08815 0.0480091 3.4461e-20)
(-0.0101663 0.0100583 6.89281e-20)
(-0.0187819 0.0180069 0)
(-0.0182167 0.0181227 1.34775e-19)
(-0.00880997 0.0136816 -1.26967e-19)
(0.00949301 0.0068415 1.18048e-19)
(0.0368667 -0.000971287 0)
(0.0735095 -0.00877746 0)
(0.119501 -0.0158867 -9.51593e-20)
(0.174661 -0.0217903 3.03402e-21)
(0.238458 -0.0260986 8.39941e-20)
(0.309943 -0.028519 -7.35358e-20)
(0.387747 -0.0288566 1.39697e-19)
(0.470133 -0.0270258 0)
(0.555089 -0.0230621 2.21596e-19)
(0.640462 -0.0171258 -4.07022e-19)
(0.724111 -0.00949632 2.7773e-19)
(0.804048 -0.000551553 1.58562e-19)
(0.87855 0.00924412 -1.48843e-19)
(0.946273 0.019432 0)
(1.00621 0.0294026 0)
(1.05794 0.0389229 0)
(1.10148 0.0471913 0)
(1.13527 0.0540968 3.99346e-20)
(1.17079 0.0608345 -1.43878e-19)
(-0.180973 0.236993 -6.78118e-21)
(-0.170179 0.303032 6.80119e-21)
(-0.155926 0.368193 -1.79463e-22)
(-0.138782 0.428977 0)
(-0.118378 0.481921 -5.03424e-21)
(-0.0938575 0.522944 9.52024e-21)
(-0.063654 0.548069 -1.82184e-22)
(-0.025574 0.552495 -4.19463e-21)
(0.022482 0.53159 0)
(0.0814438 0.481432 0)
(0.150403 0.401048 -2.63781e-22)
(0.22624 0.293041 -2.7096e-22)
(0.304677 0.162407 -4.50037e-21)
(0.381755 0.0150278 4.10692e-21)
(0.455659 -0.141739 0)
(0.524813 -0.294686 0)
(0.585383 -0.424777 2.72612e-21)
(0.632863 -0.515264 -4.82197e-22)
(0.664265 -0.561627 -1.98541e-21)
(0.679553 -0.571743 -9.3625e-23)
(0.68237 -0.558135 0)
(0.675382 -0.536223 0)
(0.654786 -0.524049 0)
(0.617141 -0.52733 0)
(0.572297 -0.521747 0)
(0.543717 -0.461552 0)
(0.549739 -0.319794 5.88095e-22)
(0.588808 -0.116067 -9.14662e-22)
(0.645852 0.0965085 0)
(0.705216 0.27043 0)
(0.754102 0.383381 -4.51412e-22)
(0.78799 0.439276 4.38716e-22)
(0.809164 0.45366 1.54015e-22)
(0.815593 0.45579 0)
(0.798809 0.471866 0)
(0.759338 0.48991 2.96659e-22)
(0.717401 0.462586 -2.88376e-22)
(0.698857 0.341074 0)
(0.709273 0.149542 3.99889e-22)
(0.742906 -0.0630112 -5.89122e-22)
(0.781019 -0.223721 1.66808e-22)
(0.818826 -0.325136 0)
(0.841413 -0.370213 -1.82473e-22)
(0.833693 -0.39696 1.77437e-22)
(0.794847 -0.416683 0)
(0.746278 -0.377244 0)
(0.722107 -0.285045 -8.33095e-23)
(0.736369 -0.0941035 2.35553e-22)
(0.77383 0.0557747 0)
(0.813316 0.206877 0)
(0.822103 0.294851 -5.05962e-23)
(0.796543 0.350044 1.71014e-24)
(0.771529 0.379184 -1.68705e-24)
(0.766818 0.238328 4.47971e-23)
(0.787433 0.160252 0)
(0.810584 -0.0694116 0)
(0.808129 -0.185517 0)
(0.79629 -0.277082 0)
(0.797102 -0.38605 0)
(0.782419 -0.128856 0)
(-0.205918 0.218694 -5.52904e-22)
(-0.192497 0.280854 -2.23271e-20)
(-0.173793 0.342212 1.05197e-21)
(-0.149446 0.399052 1.99815e-20)
(-0.118719 0.448264 2.72229e-22)
(-0.080551 0.484436 0)
(-0.033881 0.503867 -1.65492e-20)
(0.0222301 0.50199 3.30393e-20)
(0.0882512 0.474728 -1.6497e-20)
(0.163109 0.41963 1.75234e-20)
(0.244333 0.336936 -1.67666e-20)
(0.327879 0.229478 1.8206e-20)
(0.409794 0.101744 -1.77183e-20)
(0.487271 -0.0418183 -5.78633e-22)
(0.559338 -0.194353 -1.63551e-20)
(0.624006 -0.342126 1.58931e-20)
(0.676287 -0.464355 -1.17113e-20)
(0.711415 -0.543829 1.10536e-20)
(0.728286 -0.577702 -7.25137e-21)
(0.728992 -0.576834 1.25936e-20)
(0.718328 -0.55533 -5.41314e-21)
(0.701047 -0.526201 -2.51673e-22)
(0.674961 -0.50494 -3.72731e-21)
(0.633748 -0.500675 7.43598e-21)
(0.58136 -0.496873 -3.70625e-21)
(0.538467 -0.451019 2.5257e-22)
(0.528067 -0.329538 5.41923e-21)
(0.55515 -0.142151 3.9441e-22)
(0.607162 0.0629122 -1.00481e-20)
(0.667237 0.238724 8.86376e-21)
(0.721261 0.359062 -4.00406e-21)
(0.763505 0.42328 3.45589e-22)
(0.793833 0.445718 -1.54339e-22)
(0.807015 0.45722 2.68872e-22)
(0.794645 0.48289 0)
(0.760484 0.505778 0)
(0.726256 0.475203 -1.51805e-21)
(0.716299 0.344711 1.05383e-21)
(0.732359 0.143555 1.2883e-21)
(0.768283 -0.0747767 5.38423e-23)
(0.803078 -0.236764 -1.67597e-21)
(0.835128 -0.334976 2.74386e-22)
(0.852172 -0.372623 0)
(0.841872 -0.389624 0)
(0.801241 -0.403331 0)
(0.748765 -0.366099 0)
(0.72174 -0.283484 2.71804e-22)
(0.732375 -0.101796 -1.54675e-22)
(0.770614 0.0444571 0)
(0.808317 0.200224 0)
(0.817632 0.296272 0)
(0.792197 0.355975 -9.28727e-23)
(0.767573 0.382876 -5.67198e-24)
(0.765973 0.236485 -8.61604e-23)
(0.787961 0.155401 0)
(0.816823 -0.0712598 0)
(0.813931 -0.184527 5.75196e-23)
(0.802094 -0.275604 1.45655e-22)
(0.802155 -0.38477 0)
(0.784718 -0.127649 0)
(-0.17102 0.193873 -1.04847e-21)
(-0.155101 0.250916 -3.88989e-20)
(-0.132257 0.307646 3.63666e-20)
(-0.101514 0.358973 -3.40611e-20)
(-0.0629198 0.402244 -2.74099e-22)
(-0.0157005 0.433113 0)
(0.0420349 0.447502 -3.2873e-20)
(0.109363 0.441164 3.22054e-20)
(0.185252 0.410619 2.6147e-22)
(0.26762 0.354353 5.53495e-22)
(0.353344 0.27314 5.82183e-22)
(0.438476 0.169835 5.84626e-22)
(0.519567 0.0481028 -3.90581e-20)
(0.594852 -0.0890126 3.85357e-20)
(0.663869 -0.23542 0)
(0.723384 -0.37636 1.00982e-21)
(0.766729 -0.489772 -2.45434e-20)
(0.788996 -0.558882 2.41777e-20)
(0.79126 -0.582542 0)
(0.778247 -0.573532 0)
(0.755575 -0.547086 -9.30787e-21)
(0.72885 -0.5139 1.68059e-20)
(0.697858 -0.48558 -1.41666e-20)
(0.654923 -0.47323 1.28477e-22)
(0.598108 -0.468914 1.34513e-20)
(0.54347 -0.436104 -1.52045e-20)
(0.516834 -0.336311 1.61571e-20)
(0.53017 -0.16804 -3.17728e-23)
(0.574955 0.0271335 -8.81941e-21)
(0.633819 0.20322 0)
(0.691698 0.330116 0)
(0.7415 0.402765 1.8347e-21)
(0.780315 0.434236 -2.42263e-21)
(0.800013 0.456029 -9.39204e-24)
(0.792595 0.491532 2.33152e-21)
(0.764609 0.519353 -2.2659e-21)
(0.738297 0.486388 0)
(0.736581 0.34858 4.23482e-22)
(0.758091 0.139669 4.22279e-21)
(0.7961 -0.0834089 -7.90639e-21)
(0.827613 -0.2464 3.23389e-21)
(0.853528 -0.34211 2.99829e-22)
(0.864706 -0.373639 -1.91773e-21)
(0.85186 -0.381693 1.45508e-21)
(0.810032 -0.389676 2.53921e-22)
(0.75427 -0.354797 2.35326e-22)
(0.724658 -0.28225 -2.72486e-22)
(0.731273 -0.110184 0)
(0.769722 0.0325309 0)
(0.805187 0.193068 -7.96145e-22)
(0.814979 0.297378 3.92778e-22)
(0.789622 0.361616 -3.63209e-22)
(0.765321 0.386589 5.79844e-22)
(0.766683 0.23455 8.17573e-22)
(0.790018 0.150152 -1.70534e-22)
(0.824505 -0.0732254 3.55955e-22)
(0.821051 -0.183383 -2.87364e-22)
(0.808846 -0.273814 1.37893e-22)
(0.807991 -0.383236 0)
(0.787874 -0.126334 0)
(-0.0869131 0.16504 -6.68432e-20)
(-0.0684808 0.21575 1.39707e-21)
(-0.0433255 0.265208 6.19408e-20)
(-0.0103562 0.310454 -5.06905e-22)
(0.032933 0.347786 0)
(0.0856645 0.374219 0)
(0.148303 0.384977 -6.36748e-20)
(0.219771 0.376119 -5.6674e-21)
(0.298444 0.344942 1.00606e-19)
(0.381775 0.290461 2.52721e-21)
(0.466509 0.213588 -3.69728e-20)
(0.549125 0.116848 -3.89964e-20)
(0.627007 0.00265997 3.9081e-20)
(0.699471 -0.126954 0)
(0.765707 -0.266573 -3.54114e-20)
(0.82036 -0.399997 3.23606e-20)
(0.854767 -0.504098 0)
(0.864281 -0.563282 0)
(0.852374 -0.578456 1.50364e-20)
(0.826623 -0.563492 -3.16817e-21)
(0.793529 -0.534124 -1.08101e-20)
(0.758407 -0.499561 -7.46761e-21)
(0.722745 -0.466898 7.40617e-21)
(0.679476 -0.446443 -6.0107e-21)
(0.621733 -0.438343 -1.05066e-22)
(0.558892 -0.415559 5.78179e-21)
(0.516905 -0.337991 8.55488e-22)
(0.514802 -0.19195 1.03919e-22)
(0.549895 -0.00928576 0)
(0.60547 0.164757 6.2525e-21)
(0.665763 0.297012 -6.39717e-21)
(0.72204 0.377996 3.13508e-22)
(0.768454 0.419159 0)
(0.794402 0.451712 -2.62678e-22)
(0.792402 0.497038 4.73926e-21)
(0.771159 0.530028 -9.62512e-21)
(0.752817 0.496046 -2.1655e-21)
(0.759105 0.353028 -1.19478e-21)
(0.785757 0.137854 6.61941e-21)
(0.825661 -0.0890009 9.28988e-22)
(0.854202 -0.252831 -5.56796e-21)
(0.873852 -0.346725 4.83245e-21)
(0.878882 -0.3735 -5.28268e-24)
(0.863365 -0.373505 1.14302e-21)
(0.820831 -0.375874 -1.36604e-21)
(0.762443 -0.343188 -1.56329e-21)
(0.730555 -0.281021 4.65531e-22)
(0.732809 -0.119009 8.3621e-22)
(0.770963 0.0201147 -1.58971e-21)
(0.803851 0.185383 1.14868e-21)
(0.814132 0.298106 -3.84565e-22)
(0.788911 0.366943 2.95195e-22)
(0.764956 0.390384 3.60074e-22)
(0.769103 0.232629 -1.30675e-21)
(0.793647 0.144557 1.17775e-23)
(0.833579 -0.0752991 -4.22806e-22)
(0.829445 -0.182055 0)
(0.816541 -0.27169 -1.35052e-22)
(0.814561 -0.381439 1.23005e-22)
(0.791823 -0.124913 0)
(0.0278912 0.13107 5.84395e-20)
(0.0465899 0.175542 -1.13266e-19)
(0.0732313 0.218034 5.42129e-20)
(0.108285 0.257837 5.45107e-20)
(0.152638 0.290609 -1.08864e-19)
(0.20622 0.313073 -3.40046e-21)
(0.268758 0.321164 5.65886e-20)
(0.339201 0.311512 6.55425e-20)
(0.415744 0.281835 -6.42238e-20)
(0.495845 0.231254 0)
(0.576529 0.160421 -7.86953e-20)
(0.654841 0.0711354 1.57289e-19)
(0.729185 -0.0348656 -7.85516e-20)
(0.799402 -0.156653 0)
(0.863321 -0.288502 0)
(0.912859 -0.412768 1.03827e-21)
(0.937747 -0.506436 -5.07761e-20)
(0.934609 -0.556179 4.93274e-20)
(0.909556 -0.565109 0)
(0.872638 -0.547093 2.38002e-20)
(0.831207 -0.516996 -3.9937e-20)
(0.789436 -0.483135 3.0951e-20)
(0.74946 -0.449138 -2.52992e-20)
(0.706338 -0.42229 1.00805e-21)
(0.650522 -0.408084 1.98696e-20)
(0.583821 -0.390727 -9.76949e-21)
(0.528692 -0.333511 -3.82552e-22)
(0.51006 -0.212009 -5.59392e-21)
(0.532783 -0.0451795 8.89785e-24)
(0.582664 0.124074 5.66384e-21)
(0.64376 0.260144 3.26018e-22)
(0.705083 0.34906 -3.99193e-21)
(0.757975 0.400195 7.76743e-21)
(0.789851 0.443643 -4.24081e-21)
(0.793634 0.498731 0)
(0.779512 0.537461 -6.3978e-21)
(0.769099 0.504255 6.38388e-21)
(0.782966 0.358197 -7.24285e-21)
(0.814554 0.138219 9.01763e-21)
(0.8564 -0.0915048 -1.01068e-21)
(0.88237 -0.255972 0)
(0.895771 -0.348636 -6.17069e-22)
(0.89449 -0.372098 1.29994e-21)
(0.876171 -0.365144 0)
(0.833315 -0.362117 2.21581e-21)
(0.772882 -0.331362 -9.06e-22)
(0.739026 -0.279631 4.14478e-22)
(0.736648 -0.128053 3.31165e-22)
(0.774084 0.00729492 0)
(0.804184 0.177108 0)
(0.815031 0.298346 -1.03751e-21)
(0.790129 0.371904 1.81368e-21)
(0.766635 0.394298 -1.1999e-21)
(0.773362 0.230824 4.69576e-22)
(0.798874 0.138687 9.2842e-22)
(0.84397 -0.0774652 4.23205e-22)
(0.83905 -0.180498 -6.78266e-22)
(0.82516 -0.269182 0)
(0.821809 -0.379355 -2.1667e-22)
(0.796497 -0.123382 5.24274e-24)
(0.161677 0.092961 5.29304e-20)
(0.179727 0.133335 -5.25399e-20)
(0.204628 0.17133 4.10792e-22)
(0.238279 0.205628 -3.72715e-22)
(0.280859 0.233934 4.1126e-22)
(0.332039 0.253156 -4.26829e-22)
(0.391311 0.259724 8.56912e-22)
(0.457708 0.250633 0)
(0.529564 0.223823 -1.00214e-21)
(0.604639 0.178252 1.07864e-21)
(0.680413 0.113979 1.14521e-21)
(0.754805 0.031849 -1.24016e-21)
(0.826652 -0.0659449 0)
(0.89527 -0.179789 0)
(0.95638 -0.302437 1.11849e-21)
(0.999309 -0.415599 0)
(1.01355 -0.497991 -8.45657e-22)
(0.998101 -0.539261 0)
(0.961623 -0.544224 -2.94935e-20)
(0.915601 -0.525824 5.19585e-20)
(0.867857 -0.496924 -3.93034e-20)
(0.821338 -0.465031 1.69737e-20)
(0.777614 -0.431944 1.0622e-20)
(0.734378 -0.401213 -1.03159e-20)
(0.682302 -0.380107 -8.26641e-21)
(0.616312 -0.363355 8.03237e-21)
(0.551912 -0.322403 0)
(0.516711 -0.226194 2.35282e-22)
(0.524517 -0.0792244 0)
(0.566124 0.0821552 0)
(0.625961 0.22004 6.92296e-21)
(0.690523 0.316079 -7.12878e-21)
(0.748581 0.377132 3.78978e-22)
(0.786 0.431338 4.68266e-22)
(0.795761 0.496063 -4.91891e-22)
(0.78893 0.541332 -5.77721e-21)
(0.786287 0.510936 5.60929e-21)
(0.807277 0.364302 -9.41768e-21)
(0.843631 0.141456 8.1895e-21)
(0.8875 -0.0908074 2.05973e-21)
(0.911541 -0.255883 -5.99279e-21)
(0.918925 -0.347823 8.42265e-22)
(0.911266 -0.369427 3.33273e-21)
(0.890016 -0.356732 0)
(0.847117 -0.348531 -8.81903e-22)
(0.785126 -0.319319 1.02444e-21)
(0.749588 -0.277895 -1.36819e-21)
(0.742392 -0.137117 -3.33265e-22)
(0.778768 -0.00590741 0)
(0.806006 0.168144 3.34421e-22)