/*--------------------------------*- C++ -*----------------------------------*\
| =========                 |                                                 |
| \\      /  F ield         | OpenFOAM: The Open Source CFD Toolbox           |
|  \\    /   O peration     | Version:  2512                                  |
|   \\  /    A nd           | Website:  www.openfoam.com                      |
|    \\/     M anipulation  |                                                 |
\*---------------------------------------------------------------------------*/
FoamFile
{
    version     2.0;
    format      ascii;
    arch        "LSB;label=32;scalar=64";
    class       volVectorField;
    location    "185.75";
    object      U;
}
// * * * * * * * * * * * * * * * * * * * * * * * * * * * * * * * * * * * * * //

dimensions      [0 1 -1 0 0 0 0];

internalField   nonuniform List<vector> 
13248
(
(-0.0109048 0.0105692 8.00975e-20)
(-0.0159736 0.0188222 0)
(-0.0062651 0.0193705 -1.52294e-19)
(0.0166378 0.0149367 1.43463e-19)
(0.0519372 0.0076596 1.34963e-19)
(0.0991666 -0.000825745 0)
(0.157852 -0.00932821 0)
(0.227258 -0.016984 3.26308e-19)
(0.30619 -0.0231666 -2.95274e-21)
(0.392871 -0.0274406 -2.82458e-19)
(0.484947 -0.0295451 2.55945e-19)
(0.579601 -0.0293903 -1.59653e-19)
(0.673772 -0.0270523 0)
(0.76442 -0.0227576 -2.53011e-19)
(0.848792 -0.0168523 4.64048e-19)
(0.924649 -0.00976246 -1.09746e-19)
(0.99042 -0.00194577 -1.78483e-19)
(1.04526 0.00614386 1.67558e-19)
(1.08907 0.0141316 0)
(1.12232 0.0215924 0)
(1.14617 0.028588 0)
(1.16152 0.0340359 0)
(1.17128 0.0399946 4.17571e-20)
(1.17379 0.041303 1.40289e-19)
(-0.0097522 0.00866226 -2.41943e-19)
(-0.00968335 0.0141817 1.65236e-19)
(0.00866836 0.0135508 -1.04887e-21)
(0.0434018 0.00905506 -2.18914e-19)
(0.0933644 0.0026518 -1.34814e-19)
(0.157602 -0.00406269 -1.27354e-19)
(0.234902 -0.00991488 -2.34522e-19)
(0.323504 -0.0140892 2.21142e-19)
(0.420924 -0.0160767 0)
(0.523945 -0.0156536 2.14406e-21)
(0.628803 -0.0128629 4.31389e-21)
(0.731509 -0.00798176 1.58786e-19)
(0.828252 -0.00146698 0)
(0.915777 0.0061165 0)
(0.991677 0.0141747 1.6653e-19)
(1.05455 0.0221576 -3.12451e-19)
(1.10403 0.0296153 1.76029e-19)
(1.14068 0.0362296 -1.65265e-19)
(1.1658 0.0418311 -7.00784e-20)
(1.18123 0.0463461 -1.20188e-19)
(1.18895 0.0499389 -4.6799e-20)
(1.19119 0.0523077 -8.5755e-20)
(1.18952 0.0549836 1.31694e-19)
(1.18531 0.0536916 3.66691e-20)
(-0.00747333 0.00628891 0)
(0.000328209 0.00826415 0)
(0.030065 0.00608866 7.74761e-20)
(0.0794244 0.00167184 7.17176e-20)
(0.146709 -0.00321879 -1.43313e-21)
(0.230128 -0.00709066 -1.3025e-19)
(0.32723 -0.00891964 0)
(0.434658 -0.00813572 -1.09774e-19)
(0.548141 -0.00459182 1.0174e-19)
(0.662766 0.00147308 -9.24056e-23)
(0.773468 0.00950641 -1.70513e-19)
(0.875603 0.0187535 -1.5216e-19)
(0.965466 0.0283899 5.75093e-21)
(1.04064 0.0376494 -1.17192e-19)
(1.10011 0.0459237 2.87762e-19)
(1.14422 0.0528199 0)
(1.17438 0.0581728 -1.72985e-19)
(1.19276 0.0620159 8.44854e-20)
(1.2019 0.0645385 7.00166e-20)
(1.20436 0.0659789 0)
(1.20245 0.0667145 5.41548e-20)
(1.19802 0.0666883 -1.83496e-19)
(1.19236 0.0670354 1.72252e-19)
(1.18675 0.0646344 1.04311e-19)
(-0.00382403 0.00364485 -8.50355e-20)
(0.0148147 0.00176956 -8.7729e-20)
(0.0591475 -0.0017405 7.98281e-20)
(0.12619 -0.00537679 0)
(0.213304 -0.00763304 0)
(0.317295 -0.0072632 -1.84737e-21)
(0.433829 -0.00362409 0)
(0.557414 0.00331566 -3.3021e-19)
(0.681786 0.0130508 3.05195e-19)
(0.80062 0.0246706 -3.74983e-19)
(0.908338 0.0370502 8.49684e-20)
(1.00079 0.0490639 0)
(1.07564 0.0597724 1.34993e-19)
(1.13242 0.0685439 -2.47521e-19)
(1.17227 0.0750959 5.87723e-20)
(1.19753 0.0794645 1.42563e-19)
(1.21113 0.0819223 -1.0138e-20)
(1.21617 0.0828751 -1.5722e-19)
(1.21546 0.0827622 0)
(1.21132 0.081971 0)
(1.20544 0.0808557 -5.23469e-20)
(1.19892 0.0794 4.61305e-20)
(1.19246 0.0785056 1.59132e-19)
(1.18621 0.0752324 -1.49404e-19)
(0.0015363 0.000888135 -8.88569e-20)
(0.03459 -0.00462518 -8.87599e-20)
(0.0969725 -0.00864759 2.49921e-19)
(0.184601 -0.0102297 -1.52158e-19)
(0.293284 -0.00831354 1.43222e-19)
(0.417698 -0.00216253 2.60715e-19)
(0.551023 0.00814816 -1.83518e-19)
(0.685438 0.0217815 -2.20873e-19)
(0.81311 0.0373686 5.98048e-21)
(0.927323 0.0533164 2.81656e-19)
(1.02338 0.0681301 0)
(1.09901 0.0806716 7.51523e-20)
(1.15434 0.0902961 0)
(1.19134 0.0968596 -1.18205e-19)
(1.21319 0.100622 1.65611e-19)
(1.22354 0.102097 1.20928e-21)
(1.22587 0.101893 -4.19021e-20)
(1.22313 0.100587 7.61219e-20)
(1.21757 0.09865 6.54906e-20)
(1.21069 0.0964123 -5.78142e-20)
(1.20344 0.0940897 5.23337e-20)
(1.19632 0.091688 -4.61185e-20)
(1.18955 0.0897036 0)
(1.18332 0.0859129 -3.49092e-20)
(0.00899107 -0.00179894 8.88442e-20)
(0.0603863 -0.0101885 9.27681e-20)
(0.144178 -0.0133144 -8.36115e-20)
(0.254614 -0.011101 1.55523e-19)
(0.385184 -0.00327937 -1.46382e-19)
(0.527748 0.00998214 1.32159e-19)
(0.672765 0.027507 -6.32806e-20)
(0.810578 0.0473605 1.66028e-19)
(0.932993 0.0673427 -1.0386e-19)
(1.03449 0.0854735 1.81052e-19)
(1.11274 0.100346 -4.15472e-19)
(1.16836 0.111279 1.51611e-19)
(1.20414 0.118268 -1.29791e-19)
(1.22406 0.121806 1.21914e-19)
(1.23241 0.122646 1.02417e-19)
(1.23302 0.121591 8.7832e-20)
(1.22896 0.119346 -2.44513e-19)
(1.22244 0.11645 1.50751e-19)
(1.21485 0.113263 -6.5492e-20)
(1.20705 0.110001 1.68414e-19)
(1.19945 0.106776 -5.44258e-20)
(1.19227 0.103596 -1.29563e-19)
(1.18558 0.100717 1.19117e-19)
(1.17935 0.0965649 3.48981e-20)
(0.0188926 -0.00416164 0)
(0.0926851 -0.0140747 5.5775e-22)
(0.200752 -0.0143923 1.73052e-19)
(0.335011 -0.00638214 -1.62532e-19)
(0.48589 0.00894109 -1.46517e-19)
(0.642087 0.0300407 2.72034e-19)
(0.791804 0.0543593 -1.26203e-19)
(0.924863 0.0789121 1.67164e-19)
(1.03445 0.101042 -4.25555e-21)
(1.11782 0.118931 -9.39299e-20)
(1.1759 0.131785 2.02174e-19)
(1.21222 0.139711 -2.96964e-19)
(1.23158 0.143435 0)
(1.23888 0.143958 -5.69518e-20)
(1.2384 0.14229 -1.49851e-19)
(1.23339 0.139276 4.74368e-20)
(1.22609 0.135537 2.25306e-21)
(1.21788 0.131479 -9.89695e-20)
(1.20955 0.12734 7.74509e-21)
(1.20151 0.123246 1.13726e-19)
(1.19391 0.119251 -4.94161e-20)
(1.18682 0.115375 -1.85064e-20)
(1.18018 0.111682 5.79878e-20)
(1.17397 0.107224 0)
(0.0314872 -0.00585266 0)
(0.131559 -0.0153121 4.6844e-20)
(0.265868 -0.0105426 -2.24598e-19)
(0.423366 0.0052453 8.16528e-20)
(0.590958 0.0291699 -7.68488e-20)
(0.754505 0.0579431 -6.98022e-20)
(0.901259 0.0876359 -1.23274e-19)
(1.02238 0.114633 6.16997e-20)
(1.11412 0.136455 5.35775e-20)
(1.17738 0.152032 0)
(1.21629 0.161519 1.19422e-19)
(1.23648 0.165867 -1.76216e-19)
(1.24363 0.166355 1.30982e-19)
(1.24256 0.164237 5.69809e-20)
(1.23684 0.160538 -4.58475e-20)
(1.22885 0.155993 -3.74454e-20)
(1.22005 0.151072 -3.44811e-20)
(1.2112 0.146051 1.05044e-19)
(1.2027 0.141076 0)
(1.19471 0.136215 5.12805e-20)
(1.18724 0.131499 4.21897e-20)
(1.18028 0.126936 -1.05754e-19)
(1.17376 0.122491 -7.08858e-20)
(1.16759 0.117745 6.56894e-20)
(0.0468531 -0.00644422 -4.99213e-20)
(0.176555 -0.0128592 -1.54427e-21)
(0.337829 -0.000547055 4.55344e-20)
(0.516228 0.0246698 1.26628e-19)
(0.695256 0.0575097 3.65889e-20)
(0.859097 0.0928266 -7.07896e-20)
(0.995972 0.125731 6.48252e-20)
(1.10021 0.152691 -5.67649e-20)
(1.17211 0.172074 1.00965e-19)
(1.21617 0.183944 4.26734e-20)
(1.23889 0.189457 -1.20932e-19)
(1.24688 0.190216 3.54312e-20)
(1.24572 0.187788 5.97674e-20)
(1.23949 0.183441 -2.95249e-20)
(1.23087 0.17807 0)
(1.22143 0.172245 4.29384e-20)
(1.21202 0.16629 7.17869e-20)
(1.20301 0.16038 1.16374e-20)
(1.19457 0.154598 -5.93028e-20)
(1.18671 0.148983 2.4522e-20)
(1.17942 0.14355 0)
(1.17261 0.138292 -1.89242e-20)
(1.1662 0.133145 -1.76059e-20)
(1.1601 0.128071 0)
(0.0648509 -0.00546619 0)
(0.226633 -0.00571441 2.60809e-20)
(0.414133 0.0165389 4.8151e-20)
(0.609495 0.0522279 -1.28504e-19)
(0.793724 0.0933824 4.1338e-20)
(0.951192 0.133317 0)
(1.07309 0.16695 6.19163e-20)
(1.15815 0.191622 -8.63104e-20)
(1.21077 0.207029 -5.02644e-20)
(1.23829 0.214464 2.27253e-20)
(1.24845 0.215902 -3.56489e-20)
(1.24786 0.213324 8.6936e-20)
(1.24139 0.208336 4.30452e-20)
(1.2322 0.202071 -3.02176e-20)
(1.2221 0.195237 -3.12421e-21)
(1.21205 0.188239 -8.05886e-20)
(1.20247 0.181286 3.65556e-20)
(1.19352 0.174483 -8.74036e-22)
(1.18524 0.167877 0)
(1.17759 0.161489 -2.45474e-20)
(1.17051 0.155324 0)
(1.16388 0.149353 5.45107e-20)
(1.15764 0.143549 -6.45856e-20)
(1.15164 0.138075 2.93013e-20)
(0.085093 -0.00245443 -1.34162e-20)
(0.28018 0.00696266 -6.52526e-20)
(0.491664 0.0412494 7.40108e-20)
(0.698894 0.0876562 4.35047e-20)
(0.882033 0.135671 -2.08592e-20)
(1.02778 0.177833 3.47968e-20)
(1.13186 0.209802 -1.69668e-20)
(1.19772 0.230432 2.81145e-20)
(1.23326 0.240945 0)
(1.24754 0.243715 6.30878e-20)
(1.24856 0.241256 -2.74807e-21)
(1.2423 0.235658 -5.06197e-20)
(1.23265 0.2284 2.15351e-20)
(1.22187 0.220407 -2.40907e-20)
(1.21112 0.212201 -8.99302e-21)
(1.20089 0.20405 1.05638e-20)
(1.19138 0.196081 -8.0433e-21)
(1.18263 0.188355 -4.32314e-20)
(1.1746 0.180895 2.64668e-20)
(1.16721 0.173713 5.35876e-21)
(1.16038 0.166796 4.68217e-21)
(1.15399 0.16011 4.09151e-21)
(1.14795 0.153691 0)
(1.14209 0.147718 0)
(0.107011 0.00301057 1.34254e-20)
(0.335224 0.0257587 -1.34461e-20)
(0.567134 0.0736246 -2.461e-20)
(0.780586 0.130135 0)
(0.957048 0.182926 -1.03169e-20)
(1.08747 0.224837 -9.2157e-21)
(1.17287 0.253132 -1.57844e-20)
(1.22106 0.268543 0)
(1.24241 0.27375 0)
(1.24668 0.271931 0)
(1.2414 0.265851 0)
(1.23161 0.257509 0)
(1.22021 0.248168 -1.34812e-20)
(1.20872 0.238535 6.12793e-21)
(1.1978 0.228968 1.05779e-20)
(1.18769 0.219634 4.92919e-21)
(1.17842 0.210605 1.20938e-20)
(1.16998 0.201911 0)
(1.16228 0.193561 -2.84687e-21)
(1.15525 0.185555 -2.69447e-21)
(1.14875 0.177868 -4.68961e-21)
(1.14269 0.170472 -4.09803e-21)
(1.13694 0.16347 0)
(1.13135 0.156897 2.88171e-21)
(0.000191631 -0.0417051 9.12018e-21)
(-0.00274547 -0.103787 -9.46505e-21)
(-0.0110015 -0.149511 -1.79135e-20)
(-0.0226381 -0.181716 0)
(-0.0363129 -0.20334 -2.40276e-20)
(-0.0511243 -0.217295 7.58395e-21)
(-0.06634 -0.226131 -1.4241e-20)
(-0.0814018 -0.231797 0)
(-0.0959269 -0.23557 0)
(-0.109669 -0.238106 0)
(-0.122473 -0.239564 0)
(-0.13423 -0.239754 0)
(-0.144847 -0.238273 2.39244e-22)
(-0.154224 -0.234598 -9.78637e-21)
(-0.162243 -0.228158 1.82049e-20)
(-0.168764 -0.218377 2.61083e-20)
(-0.173628 -0.204702 7.87823e-21)
(-0.17666 -0.186634 0)
(-0.177691 -0.163766 7.56805e-21)
(-0.176569 -0.135823 -2.06424e-20)
(-0.173137 -0.10271 -1.26796e-20)
(-0.167214 -0.0645082 -1.18336e-20)
(-0.158874 -0.0214206 0)
(-0.149264 0.0260222 0)
(0.00186891 -0.037024 -2.72399e-20)
(0.000286411 -0.0923845 4.71036e-20)
(-0.00872178 -0.133419 -1.75411e-20)
(-0.0221174 -0.162477 -3.35962e-20)
(-0.0379635 -0.182193 4.75951e-20)
(-0.0550724 -0.195226 -2.99498e-20)
(-0.0725596 -0.203886 4.24103e-20)
(-0.0898072 -0.209912 2.64481e-20)
(-0.106436 -0.214413 0)
(-0.122238 -0.21793 -2.41039e-20)
(-0.137108 -0.220561 -1.91915e-22)
(-0.15099 -0.222101 2.13834e-20)
(-0.16384 -0.222164 2.97815e-20)
(-0.175598 -0.22027 3.76809e-20)
(-0.186178 -0.2159 -1.81128e-20)
(-0.195462 -0.208528 -5.04921e-20)
(-0.203299 -0.197649 1.50574e-20)
(-0.209513 -0.182793 -5.75085e-20)
(-0.213925 -0.163549 0)
(-0.216382 -0.1396 1.35243e-20)
(-0.216692 -0.110754 1.26668e-20)
(-0.214489 -0.0769179 1.18215e-20)
(-0.209788 -0.0379881 0)
(-0.205144 0.00582572 0)
(0.00281553 -0.0307847 0)
(0.00192068 -0.0778385 9.24744e-20)
(-0.00773356 -0.113611 -3.49429e-20)
(-0.0223089 -0.139531 3.33413e-20)
(-0.0394424 -0.15763 -9.35818e-20)
(-0.0577471 -0.170128 0)
(-0.076235 -0.178979 -5.56998e-20)
(-0.094247 -0.185655 2.59653e-20)
(-0.111404 -0.191085 -4.90747e-20)
(-0.127517 -0.195706 2.2627e-20)
(-0.14251 -0.199573 1.30707e-19)
(-0.156355 -0.202486 -6.13103e-20)
(-0.169035 -0.204091 -9.6433e-20)
(-0.18052 -0.203956 -3.49844e-20)
(-0.190751 -0.201621 4.82861e-22)
(-0.19964 -0.196622 1.25174e-19)
(-0.207064 -0.188504 -5.84794e-20)
(-0.212866 -0.176837 2.27554e-21)
(-0.216887 -0.161221 0)
(-0.218997 -0.141296 -4.30618e-20)
(-0.219012 -0.116754 0)
(-0.21638 -0.0873145 -3.92349e-20)
(-0.210752 -0.052707 1.37005e-19)
(-0.205965 -0.0131426 -2.0477e-21)
(0.00288436 -0.0235236 0)
(0.0019374 -0.0612782 -2.57891e-22)
(-0.00818366 -0.0914843 3.46383e-20)
(-0.0232465 -0.114352 -3.27519e-20)
(-0.0406804 -0.131107 3.0976e-20)
(-0.0590051 -0.143391 1.75157e-19)
(-0.0771826 -0.152732 -5.50201e-20)
(-0.0945317 -0.160304 -5.16541e-20)
(-0.110667 -0.166849 9.75528e-20)
(-0.125402 -0.172708 -1.37368e-19)
(-0.138664 -0.177904 4.25267e-20)
(-0.15043 -0.182248 3.96409e-20)
(-0.160692 -0.185419 0)
(-0.169429 -0.187035 3.5314e-20)
(-0.176601 -0.186688 0)
(-0.182143 -0.18397 5.772e-20)
(-0.185961 -0.178485 -1.06986e-19)
(-0.187924 -0.169855 2.8861e-20)
(-0.187884 -0.157714 9.14357e-20)
(-0.185715 -0.141699 4.30244e-20)
(-0.181273 -0.121415 0)
(-0.173948 -0.0963992 -9.77743e-20)
(-0.162769 -0.0661765 3.26142e-20)
(-0.151633 -0.0308797 0)
(0.00205031 -0.0158432 0)
(0.000332315 -0.0439178 -1.09574e-19)
(-0.0100106 -0.0684716 -3.48934e-20)
(-0.0247992 -0.0883894 -6.54252e-20)
(-0.0414903 -0.103992 6.1611e-20)
(-0.0586208 -0.116278 -5.82844e-20)
(-0.0751592 -0.126311 1.09468e-19)
(-0.0904226 -0.134953 5.14796e-20)
(-0.104019 -0.142761 -1.45166e-19)
(-0.115751 -0.149984 9.00874e-20)
(-0.125534 -0.156617 -1.26607e-19)
(-0.133337 -0.162481 2.73321e-19)
(-0.139146 -0.167285 -1.46533e-19)
(-0.142948 -0.170685 6.64453e-20)
(-0.144715 -0.172314 1.82466e-19)
(-0.144407 -0.171808 -6.1167e-20)
(-0.141965 -0.168821 -5.37849e-20)
(-0.137307 -0.16303 -4.92588e-20)
(-0.130318 -0.154134 0)
(-0.12089 -0.141833 -7.07095e-20)
(-0.108976 -0.125769 -5.73101e-20)
(-0.0942488 -0.105357 8.97554e-20)
(-0.0751207 -0.0795532 9.56304e-20)
(-0.0523633 -0.0473193 -8.66073e-20)
(0.000416386 -0.00834405 0)
(-0.00267111 -0.0269514 -1.46309e-19)
(-0.0129222 -0.0459626 -5.08863e-22)
(-0.0266262 -0.063021 1.30577e-19)
(-0.0414848 -0.0775589 0)
(-0.056154 -0.0899254 0)
(-0.0696608 -0.100715 0)
(-0.0813417 -0.110478 -5.11015e-20)
(-0.0907995 -0.119585 4.93349e-22)
(-0.0978204 -0.128195 9.02337e-20)
(-0.102301 -0.136272 -1.2467e-19)
(-0.104197 -0.143641 7.87807e-22)
(-0.103491 -0.150033 0)
(-0.10018 -0.155128 -6.64163e-20)
(-0.0942606 -0.158588 5.70255e-20)
(-0.0857332 -0.160074 -1.64315e-19)
(-0.0745943 -0.159273 1.93222e-19)
(-0.0608305 -0.155905 3.48033e-20)
(-0.0444035 -0.149735 -1.01672e-20)
(-0.0252517 -0.140575 -1.39295e-19)
(-0.00334247 -0.128248 -5.60714e-20)
(0.0214063 -0.112388 1.67726e-19)
(0.0502151 -0.0917455 -1.05445e-19)
(0.0870827 -0.0632915 0)
(-0.00180163 -0.00156955 7.10047e-20)
(-0.00664323 -0.0114692 7.3162e-20)
(-0.0164042 -0.025239 -6.99662e-20)
(-0.0281653 -0.0395273 -1.31733e-19)
(-0.0400421 -0.0529908 1.2405e-19)
(-0.0508896 -0.0653761 -1.16961e-19)
(-0.0598338 -0.0768326 1.65295e-19)
(-0.0662469 -0.087607 -5.0828e-20)
(-0.069728 -0.0978863 9.68042e-20)
(-0.0700425 -0.107729 0)
(-0.067065 -0.117059 8.22563e-20)
(-0.0607401 -0.12569 -1.55827e-19)
(-0.0510588 -0.133361 1.40261e-19)
(-0.0380466 -0.139761 -1.31739e-19)
(-0.0217576 -0.144565 0)
(-0.00227157 -0.147448 1.06447e-19)
(0.020311 -0.148113 1.82997e-19)
(0.045877 -0.146309 -1.72794e-19)
(0.0743195 -0.141845 -7.23804e-20)
(0.105547 -0.134613 -5.87189e-20)
(0.139448 -0.124613 1.6978e-19)
(0.176096 -0.111858 3.85774e-20)
(0.214746 -0.0959759 -4.11101e-20)
(0.268467 -0.0730219 3.02791e-20)
(-0.00430505 0.0040421 -7.10142e-20)
(-0.0109965 0.00161389 2.23667e-19)
(-0.019768 -0.00741549 -7.03455e-20)
(-0.0286739 -0.0190595 1.33042e-19)
(-0.036347 -0.0313843 -1.2528e-19)
(-0.04189 -0.0436238 7.52848e-22)
(-0.0445552 -0.055527 5.57959e-20)
(-0.0437616 -0.067056 2.08434e-19)
(-0.0391089 -0.0782126 -1.48319e-21)
(-0.0303457 -0.088945 -9.10434e-20)
(-0.0173359 -0.0991174 0)
(-3.647e-05 -0.108514 -7.57474e-20)
(0.0215155 -0.11686 1.43836e-19)
(0.0472083 -0.12384 1.27084e-19)
(0.0768599 -0.129129 -6.08434e-20)
(0.110225 -0.132412 -3.68329e-22)
(0.147003 -0.133408 -4.69911e-20)
(0.186861 -0.131894 8.1782e-20)
(0.229444 -0.12772 7.2352e-20)
(0.27443 -0.120827 -6.24426e-20)
(0.321283 -0.111332 5.22639e-20)
(0.371078 -0.0990647 -4.40266e-20)
(0.416763 -0.0855155 0)
(0.48955 -0.0652735 -3.02226e-20)
(-0.00676193 0.00820459 7.27114e-20)
(-0.0150581 0.0116367 -7.4828e-20)
(-0.0222142 0.00662789 7.18722e-20)
(-0.0272922 -0.0025997 0)
(-0.029469 -0.0137375 0)
(-0.0281097 -0.0256234 1.20834e-19)
(-0.0226103 -0.0376723 -1.12334e-19)
(-0.0124568 -0.0495906 1.04984e-19)
(0.00272792 -0.0611981 -4.91107e-19)
(0.0231762 -0.0723219 9.61043e-22)
(0.0489794 -0.0827494 8.4888e-20)
(0.0800894 -0.092218 0)
(0.116318 -0.100425 -1.40361e-19)
(0.157338 -0.107047 2.58955e-19)
(0.202694 -0.111764 -1.7787e-19)
(0.251818 -0.114287 -2.55933e-19)
(0.304059 -0.114379 1.13963e-20)
(0.358718 -0.111881 1.68386e-19)
(0.415077 -0.106733 0)
(0.472578 -0.0989149 0)
(0.529804 -0.0888798 -5.2249e-20)
(0.590016 -0.0756785 4.40138e-20)
(0.638328 -0.0629774 -1.39387e-19)
(0.722575 -0.0425557 1.30814e-19)
(-0.00886245 0.0108101 0)
(-0.0181648 0.0182446 0)
(-0.0229262 0.0163159 -2.16907e-19)
(-0.0231138 0.00912759 6.87559e-20)
(-0.0184163 -0.000851012 3.84671e-23)
(-0.00846135 -0.0121923 1.22594e-19)
(0.00719518 -0.0240512 0)
(0.0289622 -0.0359152 -1.06842e-19)
(0.0571265 -0.0474344 9.8703e-20)
(0.0918046 -0.0583123 -1.83619e-19)
(0.132911 -0.0682524 1.48314e-21)
(0.18014 -0.0769421 1.54682e-19)
(0.232954 -0.0840594 -4.38842e-21)
(0.290599 -0.0892925 1.22519e-19)
(0.352132 -0.092365 -1.80732e-19)
(0.41647 -0.0930621 0)
(0.482454 -0.0912526 1.79654e-19)
(0.548923 -0.0869041 -2.50114e-19)
(0.61474 -0.0801127 7.12e-20)
(0.679133 -0.0709396 0)
(0.740168 -0.0601787 5.32393e-20)
(0.801754 -0.0464771 1.72034e-19)
(0.847837 -0.0345377 -1.6145e-19)
(0.92602 -0.0147793 -1.59587e-19)
(-0.0103594 0.0119239 2.26574e-19)
(-0.019712 0.021415 -3.12625e-19)
(-0.021093 0.0214582 1.69792e-23)
(-0.0151891 0.0157841 6.99455e-20)
(-0.00212525 0.00684425 -1.31404e-19)
(0.0182169 -0.00378239 -1.21865e-19)
(0.0460851 -0.0150678 2.29149e-19)
(0.081701 -0.0263269 -2.5599e-21)
(0.12513 -0.0370631 -2.01089e-19)
(0.17619 -0.0468708 3.69752e-19)
(0.234388 -0.0553861 -3.80203e-21)
(0.298894 -0.0622741 -1.59318e-19)
(0.36855 -0.0672378 0)
(0.441919 -0.070038 0)
(0.517368 -0.0705159 -5.85715e-20)
(0.593179 -0.068612 -1.04456e-19)
(0.667658 -0.0643755 -1.7987e-19)
(0.739254 -0.0579681 1.68841e-19)
(0.806632 -0.0496542 -7.12215e-20)
(0.868836 -0.0397241 1.19437e-19)
(0.924685 -0.028855 -6.21916e-20)
(0.976031 -0.0164087 8.11821e-20)
(1.01415 -0.00589064 -2.07655e-19)
(1.06888 0.010321 3.33271e-20)
(-0.0110795 0.0117495 7.66436e-20)
(-0.0191596 0.0214367 0)
(-0.0158737 0.0222856 1.49856e-19)
(-0.00242837 0.017527 -1.41171e-19)
(0.0206996 0.00948002 1.31515e-19)
(0.0533701 -0.00021983 0)
(0.0955552 -0.0104351 0)
(0.147137 -0.0203594 -1.07661e-19)
(0.207731 -0.0293933 2.53436e-21)
(0.276561 -0.0370674 9.4966e-20)
(0.352393 -0.0430088 -8.41181e-20)
(0.433543 -0.0469363 1.59731e-19)
(0.517953 -0.0486702 0)
(0.603329 -0.0481455 2.54597e-19)
(0.687313 -0.0454188 -4.67185e-19)
(0.767667 -0.040665 3.187e-19)
(0.842437 -0.0341608 1.79674e-19)
(0.910073 -0.0262717 -1.68666e-19)
(0.969531 -0.0173768 0)
(1.0202 -0.00798044 0)
(1.06216 0.0016648 0)
(1.09571 0.0110392 0)
(1.12045 0.0193856 4.06262e-20)
(1.14628 0.0299218 -1.40422e-19)
(-0.138538 0.0841902 -7.62151e-21)
(-0.119794 0.158884 7.64484e-21)
(-0.098402 0.238324 -2.03435e-22)
(-0.0746321 0.318123 0)
(-0.0495828 0.394624 -5.69865e-21)
(-0.0245648 0.464196 1.06111e-20)
(-0.000846653 0.523653 -4.5215e-22)
(0.021262 0.570111 -4.35282e-21)
(0.0432105 0.600094 0)
(0.0685369 0.610027 0)
(0.102527 0.593748 -2.01155e-22)
(0.150102 0.544616 -2.03967e-22)
(0.21316 0.458592 -3.6013e-21)
(0.288468 0.337359 3.29297e-21)
(0.369522 0.187766 0)
(0.450288 0.0191389 0)
(0.527398 -0.156149 3.17199e-21)
(0.597323 -0.318086 -3.58134e-22)
(0.654848 -0.444059 -2.48973e-21)
(0.696046 -0.521033 -1.23937e-22)
(0.719692 -0.552638 0)
(0.72788 -0.552433 0)
(0.725761 -0.534708 0)
(0.714933 -0.515734 0)
(0.689938 -0.511809 0)
(0.648803 -0.519785 0)
(0.60522 -0.504077 4.53755e-22)
(0.583477 -0.417539 -7.03322e-22)
(0.596628 -0.248294 0)
(0.638709 -0.033425 0)
(0.693448 0.168622 -5.89069e-22)
(0.745728 0.318019 5.72496e-22)
(0.786103 0.403534 1.98101e-22)
(0.813926 0.436344 0)
(0.828414 0.444526 0)
(0.8209 0.457722 2.53003e-22)
(0.787884 0.481654 -2.45939e-22)
(0.74451 0.467697 0)
(0.715188 0.377166 3.53147e-22)
(0.717046 0.197224 -5.35588e-22)
(0.741179 -0.0057773 1.87297e-22)
(0.779407 -0.184458 0)
(0.817351 -0.296095 -2.22074e-22)
(0.841885 -0.351956 2.15941e-22)
(0.837329 -0.391146 0)
(0.797963 -0.398134 0)
(0.753722 -0.385542 -7.46767e-23)
(0.733257 -0.257152 2.15749e-22)
(0.748164 -0.110971 0)
(0.78802 0.0707071 0)
(0.820476 0.20225 -5.56007e-23)
(0.817414 0.286441 3.21039e-24)
(0.797252 0.383656 -4.08902e-24)
(0.77686 0.309047 4.12479e-23)
(0.783818 0.275606 0)
(0.803915 0.068084 0)
(0.813172 -0.0914553 0)
(0.803836 -0.192191 0)
(0.805859 -0.39464 0)
(0.787328 -0.194298 0)
(-0.204132 0.0604124 -6.11055e-22)
(-0.188844 0.131666 -2.50131e-20)
(-0.17029 0.207707 1.25604e-21)
(-0.147489 0.28532 2.23248e-20)
(-0.120793 0.361077 2.84776e-22)
(-0.0906797 0.431115 0)
(-0.0575453 0.492185 -1.5702e-20)
(-0.0215222 0.538384 3.00658e-20)
(0.0196798 0.566486 -1.43693e-20)
(0.0693448 0.571668 1.32776e-20)
(0.129738 0.547941 -1.27034e-20)
(0.202345 0.490669 1.38239e-20)
(0.285578 0.398705 -1.34378e-20)
(0.374265 0.2757 -4.80862e-22)
(0.462226 0.128148 -1.56356e-20)
(0.545235 -0.0367204 1.51934e-20)
(0.62117 -0.20713 -1.3745e-20)
(0.686031 -0.362239 1.2951e-20)
(0.733875 -0.478213 -9.61166e-21)
(0.761796 -0.542888 1.66479e-20)
(0.771289 -0.562399 -7.12994e-21)
(0.766208 -0.55302 -3.06764e-22)
(0.752475 -0.529176 -3.75792e-21)
(0.73349 -0.503734 7.04901e-21)
(0.704306 -0.491395 -3.3013e-21)
(0.659298 -0.493909 1.95175e-22)
(0.607291 -0.483012 4.14691e-21)
(0.572052 -0.412145 8.20654e-22)
(0.572088 -0.261322 -9.38546e-21)
(0.606049 -0.0591372 9.58804e-21)
(0.658574 0.138788 -4.66469e-21)
(0.71344 0.292011 4.48404e-22)
(0.7605 0.384556 -1.98517e-22)
(0.797005 0.424947 2.96989e-22)
(0.81885 0.442009 0)
(0.816362 0.465097 0)
(0.787842 0.495945 -1.14027e-21)
(0.751563 0.481731 7.99188e-22)
(0.729795 0.383978 1.17304e-21)
(0.738087 0.194891 2.99728e-22)
(0.764186 -0.0154118 -1.75201e-21)
(0.800329 -0.19666 3.46733e-22)
(0.832639 -0.306257 0)
(0.852467 -0.354912 0)
(0.845782 -0.384627 0)
(0.803873 -0.385747 0)
(0.757785 -0.37596 2.50164e-22)
(0.732643 -0.256277 -1.43253e-22)
(0.746883 -0.118984 0)
(0.78434 0.0609294 0)
(0.816285 0.197834 0)
(0.812877 0.288945 -8.8666e-23)
(0.792394 0.388263 5.30657e-24)
(0.77477 0.310468 -8.29909e-23)
(0.782068 0.272595 0)
(0.8081 0.0653002 0)
(0.818697 -0.0919348 6.7761e-23)
(0.809878 -0.191065 1.86905e-22)
(0.81174 -0.393011 0)
(0.790289 -0.192965 0)
(-0.209979 0.036371 -1.29548e-21)
(-0.198982 0.10224 -4.22251e-20)
(-0.183567 0.173617 3.81867e-20)
(-0.16196 0.24701 -3.58075e-20)
(-0.133753 0.319766 -2.86767e-22)
(-0.098307 0.388369 0)
(-0.0572738 0.446243 -2.7785e-20)
(-0.0096222 0.489606 2.71594e-20)
(0.0481708 0.514925 2.07254e-22)
(0.116254 0.515945 3.84887e-22)
(0.194824 0.487545 4.06528e-22)
(0.282825 0.426862 4.30499e-22)
(0.376776 0.334627 -3.13066e-20)
(0.471127 0.215285 3.09043e-20)
(0.560629 0.0742209 0)
(0.642764 -0.0835104 1.02237e-21)
(0.715934 -0.24676 -2.89222e-20)
(0.774767 -0.393378 2.85092e-20)
(0.812258 -0.499007 0)
(0.826623 -0.552919 0)
(0.822271 -0.563093 -1.20383e-20)
(0.805078 -0.547297 2.09624e-20)
(0.781043 -0.519905 -1.61474e-20)
(0.75454 -0.490347 9.51395e-22)
(0.722001 -0.470613 1.20705e-20)
(0.675106 -0.466751 -1.2239e-20)
(0.617157 -0.459144 1.25034e-20)
(0.569704 -0.403899 7.06113e-22)
(0.556013 -0.273438 -7.55563e-21)
(0.580027 -0.086134 0)
(0.628539 0.106059 0)
(0.684716 0.262004 2.26798e-21)
(0.737614 0.361291 -3.02401e-21)
(0.782086 0.409886 -2.49889e-23)
(0.810866 0.436749 2.07747e-21)
(0.813679 0.470138 -2.01897e-21)
(0.790426 0.508039 0)
(0.761623 0.494203 3.105e-22)
(0.747319 0.39065 3.69943e-21)
(0.761765 0.193953 -7.58844e-21)
(0.789861 -0.0222807 3.36834e-21)
(0.823774 -0.205615 3.90176e-22)
(0.850149 -0.313896 -2.52654e-21)
(0.864824 -0.356499 1.9069e-21)
(0.856056 -0.377553 3.12747e-22)
(0.81206 -0.373028 2.51478e-22)
(0.764613 -0.36629 -2.50789e-22)
(0.734896 -0.255762 0)
(0.748168 -0.127482 0)
(0.782697 0.0506636 -8.16924e-22)
(0.813926 0.193141 4.05236e-22)
(0.810102 0.291057 -3.51194e-22)
(0.789105 0.392713 5.32282e-22)
(0.774039 0.311811 7.44286e-22)
(0.781686 0.269203 -1.63783e-22)
(0.813694 0.0622358 3.63715e-22)
(0.825595 -0.0924734 -3.21536e-22)
(0.817066 -0.18969 1.66685e-22)
(0.818504 -0.391068 0)
(0.79411 -0.191508 0)
(-0.154857 0.013992 -6.94967e-20)
(-0.148014 0.0730915 4.05638e-21)
(-0.135368 0.13907 6.17955e-20)
(-0.11547 0.206462 -5.0003e-22)
(-0.0860751 0.273583 0)
(-0.0493347 0.336031 0)
(-0.00432143 0.388706 -4.73061e-20)
(0.051996 0.429371 -1.34739e-21)
(0.119568 0.451638 6.96436e-20)
(0.197701 0.449845 1.76753e-21)
(0.285252 0.419844 -2.51618e-20)
(0.379637 0.359968 -2.90638e-20)
(0.476543 0.271914 2.90905e-20)
(0.570692 0.160022 0)
(0.658216 0.0278722 -3.39817e-20)
(0.738216 -0.121284 3.09451e-20)
(0.808549 -0.2765 0)
(0.861376 -0.41402 0)
(0.888532 -0.509309 2.02452e-20)
(0.889656 -0.553621 -4.08121e-21)
(0.87208 -0.556588 -1.47338e-20)
(0.84393 -0.536397 -9.37433e-21)
(0.811016 -0.507298 9.28616e-21)
(0.77762 -0.476024 -6.23217e-21)
(0.742065 -0.450571 6.13005e-22)
(0.695125 -0.439292 5.27051e-21)
(0.634425 -0.432077 6.68162e-22)
(0.576894 -0.391129 7.93892e-23)
(0.549125 -0.28271 0)
(0.561313 -0.113267 7.02204e-21)
(0.603812 0.0712511 -7.20642e-21)
(0.659886 0.228555 3.96386e-22)
(0.717537 0.334083 0)
(0.769045 0.391253 -2.75422e-22)
(0.804268 0.42844 4.02313e-21)
(0.812631 0.472214 -7.69773e-21)
(0.795195 0.51731 -1.35208e-21)
(0.774028 0.50488 -1.20299e-21)
(0.767032 0.39738 5.02044e-21)
(0.787305 0.194751 8.95898e-22)
(0.81754 -0.0262912 -6.71723e-21)
(0.849307 -0.211413 5.7851e-21)
(0.869698 -0.319139 -2.1803e-23)
(0.87881 -0.35695 1.49635e-21)
(0.867877 -0.370208 -1.76853e-21)
(0.822161 -0.360107 -1.67321e-21)
(0.773836 -0.356353 4.9971e-22)
(0.739684 -0.25532 8.30134e-22)
(0.751728 -0.136262 -1.59129e-21)
(0.782936 0.0399576 1.16394e-21)
(0.813335 0.188132 -3.69638e-22)
(0.809105 0.292745 3.30679e-22)
(0.787492 0.397047 3.29238e-22)
(0.774821 0.313143 -1.16038e-21)
(0.782781 0.265473 -3.23318e-24)
(0.820688 0.0589082 -4.31335e-22)
(0.833822 -0.0930476 0)
(0.825387 -0.188054 -1.62191e-22)
(0.826111 -0.388794 2.17627e-22)
(0.798739 -0.189919 0)
(-0.0501837 -0.00523097 5.61702e-20)
(-0.0462674 0.0464886 -1.05337e-19)
(-0.0358453 0.103503 4.87464e-20)
(-0.0194868 0.163043 4.32282e-20)
(0.00756219 0.222728 -8.33234e-20)
(0.0442232 0.27815 1.91428e-22)
(0.0914507 0.326995 3.9174e-20)
(0.150145 0.363886 4.16361e-20)
(0.220213 0.383182 -4.08114e-20)
(0.300612 0.380103 0)
(0.389321 0.351178 -5.43206e-20)
(0.483068 0.295231 1.12446e-19)
(0.577437 0.21413 -5.79963e-20)
(0.667736 0.111493 0)
(0.751823 -0.0107882 0)
(0.829747 -0.15068 1.05054e-21)
(0.897359 -0.296688 -5.9653e-20)
(0.943794 -0.423749 5.79442e-20)
(0.960334 -0.508357 0)
(0.948784 -0.544418 3.25853e-20)
(0.919191 -0.542813 -5.44287e-20)
(0.881629 -0.520761 4.12542e-20)
(0.841667 -0.491663 -3.21354e-20)
(0.802512 -0.460727 2.27297e-21)
(0.764102 -0.432038 2.11534e-20)
(0.718189 -0.41364 -9.76963e-21)
(0.657848 -0.40386 -3.06631e-22)
(0.593404 -0.374042 -4.80935e-21)
(0.551911 -0.287755 -6.40219e-22)
(0.550557 -0.138911 5.47801e-21)
(0.585071 0.0353217 3.87931e-22)
(0.639318 0.192172 -4.65431e-21)
(0.700282 0.303149 8.55787e-21)
(0.757658 0.368923 -4.35554e-21)
(0.798742 0.416604 0)
(0.812839 0.470701 -4.71986e-21)
(0.801621 0.523327 4.66179e-21)
(0.788097 0.51369 -5.53708e-21)
(0.788168 0.404275 6.87799e-21)
(0.813936 0.197554 -9.71339e-22)
(0.846498 -0.0274162 0)
(0.876411 -0.213977 -8.09772e-22)
(0.890962 -0.321802 1.81533e-21)
(0.894214 -0.356161 0)
(0.881025 -0.362652 2.8245e-21)
(0.833872 -0.347127 -1.20777e-21)
(0.785057 -0.346173 4.17274e-22)
(0.746624 -0.254789 3.40115e-22)
(0.757212 -0.145152 0)
(0.784847 0.0288441 0)
(0.814392 0.182727 -9.70458e-22)
(0.809869 0.293945 1.59678e-21)
(0.787649 0.401283 -1.00953e-21)
(0.777254 0.314527 3.60406e-22)
(0.785443 0.261447 8.24381e-22)
(0.829057 0.0553293 4.31745e-22)
(0.843317 -0.0936359 -7.74026e-22)
(0.834813 -0.186121 0)
(0.83451 -0.386149 -3.51058e-22)
(0.804115 -0.188186 -2.10487e-23)
(0.0909191 -0.025619 4.72081e-20)
(0.0883055 0.0194945 -4.67904e-20)
(0.0953768 0.0679021 3.39253e-22)
(0.109651 0.119875 -2.56708e-22)
(0.133564 0.172445 2.94546e-22)
(0.167637 0.222417 -2.86098e-22)
(0.212523 0.266006 4.90805e-22)
(0.268683 0.298586 0)
(0.335918 0.315445 -5.83138e-22)
(0.412961 0.312382 6.58065e-22)
(0.497489 0.286303 7.45211e-22)
(0.586226 0.236032 -8.77052e-22)
(0.675148 0.162975 0)
(0.760484 0.0696878 0)
(0.841402 -0.0428384 1.0152e-21)
(0.917502 -0.173122 0)
(0.981623 -0.308391 -9.41689e-22)
(1.02039 -0.423512 0)
(1.02584 -0.49747 -3.92616e-20)
(1.0026 -0.526902 6.98787e-20)
(0.962799 -0.523159 -5.37078e-20)
(0.917577 -0.501523 2.32343e-20)
(0.872301 -0.473759 1.38126e-20)
(0.828684 -0.444451 -1.34145e-20)
(0.787492 -0.414887 -9.20329e-21)
(0.74293 -0.390783 8.90572e-21)
(0.685571 -0.3762 0)
(0.618201 -0.353252 2.06578e-22)
(0.564819 -0.287406 0)
(0.5486 -0.161029 0)
(0.572872 0.000203174 8.1613e-21)
(0.623313 0.153568 -8.40038e-21)
(0.685799 0.26876 3.93794e-22)
(0.747658 0.342818 4.39952e-22)
(0.793952 0.400869 -3.90026e-22)
(0.81386 0.465085 -4.09135e-21)
(0.809066 0.5257 3.97276e-21)
(0.803074 0.520505 -7.01043e-21)
(0.809928 0.41143 6.135e-21)
(0.840826 0.202485 1.97464e-21)
(0.875971 -0.0256663 -7.30757e-21)
(0.904532 -0.213346 3.4631e-22)
(0.913581 -0.321833 4.4908e-21)
(0.910771 -0.354119 0)
(0.895237 -0.354983 -1.2264e-21)
(0.846873 -0.334186 1.18327e-21)
(0.797841 -0.335681 -1.59657e-21)
(0.755289 -0.254016 -3.42269e-22)
(0.764217 -0.154031 0)
(0.788164 0.0173116 3.07038e-22)
(0.816921 0.176808 -5.3338e-22)