/*--------------------------------*- C++ -*----------------------------------*\
| =========                 |                                                 |
| \\      /  F ield         | OpenFOAM: The Open Source CFD Toolbox           |
|  \\    /   O peration     | Version:  2512                                  |
|   \\  /    A nd           | Website:  www.openfoam.com                      |
|    \\/     M anipulation  |                                                 |
\*---------------------------------------------------------------------------*/
FoamFile
{
    version     2.0;
    format      ascii;
    arch        "LSB;label=32;scalar=64";
    class       volScalarField;
    location    "174.5";
    object      p;
}
// * * * * * * * * * * * * * * * * * * * * * * * * * * * * * * * * * * * * * //

dimensions      [0 2 -2 0 0 0 0];

internalField   nonuniform List<scalar> 
13248
(
-0.409169
-0.407123
-0.405191
-0.403387
-0.401637
-0.399838
-0.39777
-0.395124
-0.39154
-0.386649
-0.380121
-0.371705
-0.36127
-0.348826
-0.334527
-0.318648
-0.301552
-0.283646
-0.265335
-0.247006
-0.228929
-0.211441
-0.194291
-0.177889
-0.418007
-0.415065
-0.412186
-0.409391
-0.406603
-0.403734
-0.400563
-0.396758
-0.391938
-0.385735
-0.377851
-0.368107
-0.35647
-0.343058
-0.328121
-0.311996
-0.295065
-0.277711
-0.260279
-0.243067
-0.22629
-0.210152
-0.194572
-0.17988
-0.4276
-0.423694
-0.419828
-0.416011
-0.412141
-0.408126
-0.403725
-0.398578
-0.392296
-0.384538
-0.375079
-0.363847
-0.350932
-0.336559
-0.321051
-0.304771
-0.288081
-0.271305
-0.254712
-0.238512
-0.222849
-0.207858
-0.19346
-0.179766
-0.43833
-0.433347
-0.428449
-0.423591
-0.418589
-0.413317
-0.407494
-0.400739
-0.392684
-0.383066
-0.371784
-0.358909
-0.34466
-0.329352
-0.31334
-0.296973
-0.280552
-0.264325
-0.248474
-0.233136
-0.218396
-0.20434
-0.19089
-0.178209
-0.450439
-0.444243
-0.438263
-0.432327
-0.426104
-0.419394
-0.411875
-0.403173
-0.392999
-0.381236
-0.367952
-0.353373
-0.337827
-0.321674
-0.305256
-0.28886
-0.27271
-0.256967
-0.24174
-0.227103
-0.2131
-0.199768
-0.187051
-0.175071
-0.463979
-0.456448
-0.449331
-0.442247
-0.434641
-0.426217
-0.416634
-0.405592
-0.392961
-0.378827
-0.363451
-0.347195
-0.330446
-0.313554
-0.296802
-0.280396
-0.264475
-0.249124
-0.234395
-0.220314
-0.206893
-0.194138
-0.182009
-0.170596
-0.478793
-0.469846
-0.461537
-0.45318
-0.443934
-0.433414
-0.421328
-0.407545
-0.392179
-0.375555
-0.358107
-0.34028
-0.32246
-0.304937
-0.287908
-0.271493
-0.255753
-0.240714
-0.226382
-0.212749
-0.199804
-0.187528
-0.175896
-0.164935
-0.4945
-0.484121
-0.47456
-0.464736
-0.453489
-0.4404
-0.425348
-0.408483
-0.390217
-0.371107
-0.351705
-0.332467
-0.313719
-0.295662
-0.278399
-0.261968
-0.246369
-0.23158
-0.217574
-0.204318
-0.19178
-0.179928
-0.168741
-0.15818
-0.510496
-0.498739
-0.487855
-0.476287
-0.462584
-0.446424
-0.427998
-0.407835
-0.386658
-0.365196
-0.344036
-0.323581
-0.304055
-0.285558
-0.268105
-0.251665
-0.236189
-0.221621
-0.207904
-0.194988
-0.182822
-0.171369
-0.160597
-0.150411
-0.525948
-0.512929
-0.500616
-0.486949
-0.470298
-0.450614
-0.428553
-0.405063
-0.381128
-0.357556
-0.334891
-0.313426
-0.293273
-0.274432
-0.256841
-0.240418
-0.225073
-0.210723
-0.197289
-0.184702
-0.1729
-0.161836
-0.151457
-0.141641
-0.539819
-0.525683
-0.51179
-0.495612
-0.475543
-0.452015
-0.426243
-0.399575
-0.373155
-0.347776
-0.323872
-0.301607
-0.280979
-0.261898
-0.244244
-0.227889
-0.212715
-0.198613
-0.185487
-0.173253
-0.161837
-0.151179
-0.141195
-0.131773
-0.550967
-0.535899
-0.520253
-0.50114
-0.477234
-0.449644
-0.420199
-0.390573
-0.361973
-0.335092
-0.310216
-0.287367
-0.266433
-0.247251
-0.229646
-0.213456
-0.198535
-0.184755
-0.172005
-0.160189
-0.149225
-0.139038
-0.129518
-0.120599
-0.345189
-0.347439
-0.348749
-0.349583
-0.350394
-0.35136
-0.352567
-0.354057
-0.355841
-0.357914
-0.360272
-0.362913
-0.365836
-0.369039
-0.372514
-0.376238
-0.380168
-0.384238
-0.388347
-0.392359
-0.396078
-0.399221
-0.401566
-0.403288
-0.343197
-0.346167
-0.347915
-0.349024
-0.350022
-0.35107
-0.352226
-0.353503
-0.354878
-0.35631
-0.357749
-0.359145
-0.360446
-0.3616
-0.362549
-0.363234
-0.363589
-0.363544
-0.363028
-0.361971
-0.360245
-0.357622
-0.354152
-0.350947
-0.342654
-0.346144
-0.34823
-0.349572
-0.350736
-0.351858
-0.352965
-0.354036
-0.355013
-0.355813
-0.356341
-0.356492
-0.356161
-0.355239
-0.35362
-0.351201
-0.347887
-0.343594
-0.338268
-0.331887
-0.32438
-0.315537
-0.305599
-0.296768
-0.343925
-0.347685
-0.349984
-0.351507
-0.352816
-0.354014
-0.355092
-0.355995
-0.356629
-0.356868
-0.356571
-0.355581
-0.353742
-0.350892
-0.346878
-0.341559
-0.334811
-0.32654
-0.316698
-0.305302
-0.292358
-0.277712
-0.261598
-0.246949
-0.347151
-0.35091
-0.353281
-0.354923
-0.356348
-0.35762
-0.358692
-0.359476
-0.359838
-0.359614
-0.358617
-0.356646
-0.353496
-0.348962
-0.342852
-0.334996
-0.325259
-0.313546
-0.299823
-0.284136
-0.26659
-0.247215
-0.226064
-0.205406
-0.35225
-0.355737
-0.358025
-0.359709
-0.361204
-0.362531
-0.363606
-0.364304
-0.364457
-0.363864
-0.362297
-0.359516
-0.355276
-0.349338
-0.341487
-0.331541
-0.319371
-0.304907
-0.288154
-0.269194
-0.24824
-0.225686
-0.201646
-0.173393
-0.358911
-0.361897
-0.363969
-0.365574
-0.367058
-0.368388
-0.36944
-0.370051
-0.370021
-0.369112
-0.367065
-0.363606
-0.35846
-0.351369
-0.34211
-0.33051
-0.316472
-0.29998
-0.28111
-0.260042
-0.237068
-0.21252
-0.186649
-0.158835
-0.36669
-0.368982
-0.370669
-0.372087
-0.373452
-0.374688
-0.375638
-0.376106
-0.375854
-0.374616
-0.372103
-0.368017
-0.362067
-0.35399
-0.343576
-0.330687
-0.315281
-0.297424
-0.277294
-0.255177
-0.231483
-0.206507
-0.181481
-0.153935
-0.375096
-0.37657
-0.377737
-0.378813
-0.379903
-0.3809
-0.381611
-0.381809
-0.381227
-0.379573
-0.376528
-0.371783
-0.365045
-0.356067
-0.344673
-0.330786
-0.314446
-0.295813
-0.275174
-0.252904
-0.229563
-0.205292
-0.182086
-0.156423
-0.383704
-0.384298
-0.384821
-0.385389
-0.38602
-0.386588
-0.386877
-0.386633
-0.385561
-0.383344
-0.37965
-0.374165
-0.36661
-0.356774
-0.344541
-0.329917
-0.313034
-0.294154
-0.273654
-0.25197
-0.22971
-0.206991
-0.185681
-0.162968
-0.392247
-0.391947
-0.391719
-0.391612
-0.39159
-0.391518
-0.391179
-0.390294
-0.388548
-0.385602
-0.38112
-0.374795
-0.366379
-0.355718
-0.342773
-0.327642
-0.310552
-0.291845
-0.271949
-0.251338
-0.230539
-0.209823
-0.190297
-0.170236
-0.400679
-0.399497
-0.398431
-0.397503
-0.396651
-0.395756
-0.3946
-0.392892
-0.390295
-0.386456
-0.381038
-0.373753
-0.364401
-0.352901
-0.339305
-0.3238
-0.306692
-0.288371
-0.269269
-0.249839
-0.23048
-0.211631
-0.19392
-0.177317
-0.404567
-0.403544
-0.397755
-0.38623
-0.36839
-0.344278
-0.315386
-0.283721
-0.251846
-0.223229
-0.200888
-0.187184
-0.183815
-0.191204
-0.207397
-0.227346
-0.243579
-0.248458
-0.236095
-0.208729
-0.173276
-0.138699
-0.111116
-0.092676
-0.0829615
-0.0805303
-0.0846142
-0.0963409
-0.116043
-0.137972
-0.151137
-0.147327
-0.129137
-0.105505
-0.0852767
-0.0724538
-0.0664134
-0.0664839
-0.0747843
-0.090268
-0.103849
-0.10447
-0.0937126
-0.0772725
-0.062902
-0.0531559
-0.0490849
-0.0507131
-0.0543714
-0.0547898
-0.050438
-0.0456715
-0.0404302
-0.035919
-0.034517
-0.0339834
-0.0315763
-0.0297944
-0.020751
-0.00432523
-0.347911
-0.343821
-0.336649
-0.326116
-0.311321
-0.292204
-0.270244
-0.246793
-0.223045
-0.203037
-0.18936
-0.184331
-0.189419
-0.204339
-0.226195
-0.249338
-0.26636
-0.269802
-0.255004
-0.223941
-0.184473
-0.146178
-0.115353
-0.0939612
-0.0813752
-0.0761284
-0.0772229
-0.085343
-0.101103
-0.120041
-0.132515
-0.130621
-0.116232
-0.0965234
-0.0798797
-0.0701159
-0.0666822
-0.069292
-0.0803669
-0.0985084
-0.113779
-0.115149
-0.101789
-0.0825542
-0.0652586
-0.0531616
-0.0469456
-0.0463451
-0.0484732
-0.0482369
-0.0452247
-0.0419792
-0.0387667
-0.0364303
-0.0367198
-0.0378209
-0.0352053
-0.0332551
-0.0230536
-0.00472428
-0.2895
-0.281338
-0.270993
-0.261054
-0.248597
-0.234073
-0.217401
-0.202386
-0.187142
-0.17649
-0.172122
-0.176175
-0.189568
-0.211192
-0.237484
-0.262796
-0.280229
-0.282993
-0.266709
-0.233444
-0.191517
-0.150825
-0.117738
-0.0940782
-0.0790589
-0.0712095
-0.0694389
-0.074041
-0.0857955
-0.101582
-0.113236
-0.113026
-0.102394
-0.0865334
-0.0734831
-0.0668165
-0.0660437
-0.0712191
-0.0849484
-0.105561
-0.122414
-0.123757
-0.109047
-0.0872675
-0.0672074
-0.0529067
-0.0447702
-0.0421759
-0.0429128
-0.0419649
-0.0400701
-0.0381468
-0.0369557
-0.036866
-0.0389033
-0.0416154
-0.0386983
-0.036566
-0.0252651
-0.00511717
-0.236039
-0.22373
-0.212702
-0.199325
-0.187379
-0.175944
-0.163821
-0.156658
-0.149423
-0.147463
-0.15195
-0.164345
-0.184818
-0.211627
-0.241022
-0.267694
-0.285352
-0.288016
-0.271242
-0.237203
-0.194388
-0.152703
-0.118426
-0.093252
-0.0763482
-0.0662681
-0.0618713
-0.0631846
-0.071052
-0.0835495
-0.0941095
-0.0951805
-0.0881044
-0.07585
-0.0662658
-0.0625963
-0.0643969
-0.0720022
-0.0881528
-0.111062
-0.12947
-0.130935
-0.115319
-0.0913223
-0.0687397
-0.0524205
-0.0426067
-0.0382812
-0.0377815
-0.0360629
-0.0350464
-0.0342261
-0.0350173
-0.0372186
-0.041046
-0.0453415
-0.0420055
-0.0396924
-0.0273571
-0.00549857
-0.192494
-0.174992
-0.160757
-0.146067
-0.134442
-0.124852
-0.118247
-0.114811
-0.114704
-0.119945
-0.131668
-0.150593
-0.176226
-0.206465
-0.237653
-0.265004
-0.282868
-0.28553
-0.269082
-0.235637
-0.193507
-0.152248
-0.117795
-0.0917876
-0.073513
-0.0616256
-0.0549917
-0.0533567
-0.0575442
-0.0667065
-0.0759574
-0.0800206
-0.0738182
-0.0647552
-0.0583792
-0.0574649
-0.0616362
-0.0714314
-0.0897332
-0.114738
-0.13469
-0.136484
-0.120472
-0.094657
-0.0698723
-0.0517465
-0.0404936
-0.0346963
-0.0331316
-0.0306068
-0.0302226
-0.0302708
-0.0329701
-0.037477
-0.0431237
-0.0489679
-0.0451246
-0.042599
-0.0293025
-0.00586306
-0.16224
-0.1399
-0.123848
-0.109434
-0.0962982
-0.0875529
-0.082762
-0.0825108
-0.0869546
-0.0970809
-0.113595
-0.136599
-0.165159
-0.197029
-0.228808
-0.25623
-0.273793
-0.276652
-0.261147
-0.229443
-0.189421
-0.149865
-0.116177
-0.0899694
-0.070778
-0.0574781
-0.0489984
-0.0449131
-0.0457959
-0.0516297
-0.0590252
-0.0630104
-0.0596284
-0.053522
-0.0499824
-0.0514834
-0.0577517
-0.0694422
-0.0895625
-0.116403
-0.137932
-0.140364
-0.124423
-0.0972175
-0.0706166
-0.0509188
-0.0384518
-0.0314279
-0.0289826
-0.0256526
-0.0256549
-0.0263351
-0.0308284
-0.0376242
-0.0451041
-0.0524591
-0.0494964
-0.0452569
-0.0310737
-0.00620394
-0.145003
-0.121631
-0.100944
-0.0843358
-0.0710694
-0.0633274
-0.0597403
-0.0610779
-0.0677279
-0.0802668
-0.0989663
-0.123552
-0.152876
-0.184723
-0.21607
-0.243485
-0.259825
-0.262726
-0.248622
-0.21962
-0.182856
-0.14603
-0.113891
-0.0880368
-0.0683246
-0.0539497
-0.0439784
-0.0378871
-0.0359942
-0.0386765
-0.0439169
-0.0474971
-0.0461277
-0.0424889
-0.0413016
-0.044819
-0.0528459
-0.0660533
-0.0875861
-0.115995
-0.13921
-0.142933
-0.127097
-0.0989491
-0.070974
-0.0499612
-0.0364906
-0.028459
-0.0253159
-0.0212298
-0.0213873
-0.0224736
-0.0286017
-0.0376375
-0.0469525
-0.0557155
-0.0522398
-0.0475933
-0.0326463
-0.0065134
-0.139596
-0.116649
-0.0933665
-0.074201
-0.0603829
-0.0520604
-0.04836
-0.0497114
-0.056616
-0.0693959
-0.0880428
-0.1121
-0.140367
-0.170691
-0.200457
-0.228935
-0.242038
-0.24493
-0.232661
-0.207137
-0.174471
-0.141104
-0.111101
-0.0860691
-0.0661996
-0.0510578
-0.0399204
-0.0322323
-0.0280905
-0.0279763
-0.0309871
-0.0338562
-0.0337771
-0.0320016
-0.0326223
-0.0376986
-0.0470733
-0.0613898
-0.0838792
-0.113545
-0.138579
-0.149639
-0.128437
-0.0998095
-0.0709522
-0.0488946
-0.0346191
-0.0257752
-0.0220959
-0.0173379
-0.0174473
-0.0187411
-0.0262949
-0.0374916
-0.0486362
-0.0587005
-0.0546241
-0.0495844
-0.034004
-0.00678514
-0.142481
-0.121118
-0.0973344
-0.0769065
-0.0618886
-0.0518275
-0.0468652
-0.0468737
-0.0524086
-0.0636817
-0.0805359
-0.102447
-0.128225
-0.155677
-0.181776
-0.201246
-0.220219
-0.224344
-0.214484
-0.193018
-0.164958
-0.135473
-0.107999
-0.0841713
-0.0644886
-0.0488723
-0.0368629
-0.0279378
-0.0220349
-0.0195636
-0.0203904
-0.0222824
-0.022888
-0.0223102
-0.024226
-0.0303919
-0.0406474
-0.0555535
-0.078554
-0.109161
-0.135481
-0.146392
-0.127978
-0.0998294
-0.0706413
-0.0478053
-0.0328836
-0.0233831
-0.0193179
-0.0139786
-0.0138368
-0.0151909
-0.0239039
-0.037161
-0.0501213
-0.0613794
-0.0566747
-0.0512089
-0.0351359
-0.00701686
-0.149896
-0.13119
-0.108902
-0.0872848
-0.0721081
-0.0600565
-0.0530083
-0.0506825
-0.0536146
-0.0621222
-0.0759238
-0.0945299
-0.116823
-0.140847
-0.163971
-0.183295
-0.198381
-0.202852
-0.195711
-0.178627
-0.15539
-0.129978
-0.105276
-0.0829459
-0.0637368
-0.0478713
-0.0351807
-0.0252577
-0.0179438
-0.0135113
-0.0122683
-0.0129404
-0.0135863
-0.0135892
-0.0163622
-0.0231315
-0.033808
-0.0489274
-0.0719787
-0.102952
-0.130235
-0.141366
-0.126025
-0.0991356
-0.070202
-0.0468615
-0.0313766
-0.0212802
-0.0169665
-0.0112082
-0.0105504
-0.0118639
-0.0214304
-0.0366237
-0.0513628
-0.0637111
-0.0583798
-0.0524543
-0.0360191
-0.00720338
-0.156687
-0.139496
-0.118326
-0.101316
-0.0844424
-0.0717161
-0.0632344
-0.0585799
-0.0582041
-0.0630609
-0.0729779
-0.0875589
-0.105929
-0.126338
-0.146652
-0.163976
-0.176243
-0.181195
-0.176988
-0.164471
-0.146163
-0.124946
-0.103194
-0.0825622
-0.0640277
-0.0480749
-0.034816
-0.0240543
-0.0156078
-0.00955011
-0.00639059
-0.00573527
-0.00592593
-0.00615977
-0.00937174
-0.0162129
-0.0266923
-0.0413771
-0.0641079
-0.0955746
-0.123468
-0.134958
-0.122598
-0.0975073
-0.0693607
-0.0459169
-0.0299955
-0.0193341
-0.01483
-0.00896294
-0.00771068
-0.00886987
-0.0188152
-0.0358496
-0.0523493
-0.0656538
-0.0596802
-0.053304
-0.0366055
-0.00731548
-0.166188
-0.152195
-0.137271
-0.11856
-0.101488
-0.0873763
-0.07664
-0.0696353
-0.0666465
-0.0676868
-0.0731354
-0.0827873
-0.0959583
-0.111576
-0.128449
-0.143148
-0.153527
-0.158222
-0.156384
-0.147848
-0.133944
-0.116629
-0.0978321
-0.0791601
-0.0617449
-0.0462489
-0.0329443
-0.0218534
-0.0128746
-0.0058215
-0.00115449
0.000717117
0.000732175
0.000141115
-0.00337155
-0.010034
-0.0200798
-0.0340783
-0.0558445
-0.0867436
-0.114696
-0.126703
-0.116932
-0.0940062
-0.06688
-0.0439121
-0.0280472
-0.0171806
-0.0125372
-0.00666146
-0.00661156
-0.00624722
-0.0161969
-0.0348349
-0.0529799
-0.0671894
-0.0604787
-0.0537417
-0.0368663
-0.00730021
-0.158865
-0.151329
-0.137104
-0.120593
-0.105449
-0.09271
-0.0826912
-0.0756221
-0.0716645
-0.0713151
-0.0749916
-0.0825645
-0.0934543
-0.10668
-0.120865
-0.132629
-0.141198
-0.144798
-0.142463
-0.134332
-0.121581
-0.105851
-0.0887666
-0.0716877
-0.0555894
-0.0410614
-0.0283567
-0.0175326
-0.00856785
-0.0012405
0.00415551
0.00710733
0.00781647
0.0100485
0.00385696
-0.00208443
-0.0109792
-0.0240696
-0.0458002
-0.078556
-0.109259
-0.123251
-0.11337
-0.0900825
-0.0631716
-0.0407129
-0.0253762
-0.0148636
-0.010281
-0.00396722
-0.0032945
-0.00276329
-0.0128854
-0.0334003
-0.0534205
-0.0687504
-0.0611427
-0.053821
-0.036889
-0.00719326
-0.152911
-0.147336
-0.134231
-0.119409
-0.106215
-0.0952855
-0.0865021
-0.0799551
-0.0760117
-0.0751553
-0.0776306
-0.0832916
-0.0916092
-0.101634
-0.111569
-0.120968
-0.127236
-0.129249
-0.126455
-0.11906
-0.10793
-0.0942872
-0.0793722
-0.0642558
-0.0497612
-0.0364228
-0.0245074
-0.0141548
-0.00542108
0.00195275
0.00772088
0.0111658
0.0117317
0.00860613
0.00822223
0.00351674
-0.00417935
-0.0161586
-0.0373914
-0.0709685
-0.102587
-0.11638
-0.106546
-0.084025
-0.0585434
-0.0373662
-0.0227888
-0.0126376
-0.00816736
-0.00184967
-0.00123312
-0.0002236
-0.0103741
-0.0321936
-0.053677
-0.0696798
-0.061225
-0.0532862
-0.036551
-0.00711011
-0.145692
-0.141396
-0.130279
-0.117388
-0.105937
-0.0965324
-0.0889329
-0.0831379
-0.0794437
-0.0781788
-0.079497
-0.0832622
-0.0890305
-0.0960575
-0.103227
-0.109681
-0.11381
-0.114709
-0.111941
-0.105545
-0.0960427
-0.0842895
-0.0712395
-0.0577762
-0.0446242
-0.0322979
-0.0210854
-0.011146
-0.00262298
0.0046762
0.0105812
0.0143935
0.0152582
0.0133598
0.0122474
0.00817935
0.00115422
-0.0102758
-0.0309552
-0.0635381
-0.0939094
-0.107428
-0.0983539
-0.0772733
-0.0536164
-0.0338672
-0.020137
-0.01042
-0.00609284
0.000135777
0.000731112
0.00185421
-0.00849199
-0.0312209
-0.0536508
-0.0699731
-0.0608331
-0.0522624
-0.0359087
-0.00703788
-0.136428
-0.134385
-0.12562
-0.114642
-0.104723
-0.0966287
-0.0900999
-0.0849904
-0.0814545
-0.07974
-0.0799857
-0.0821088
-0.0857902
-0.0904545
-0.0952943
-0.0994859
-0.10202
-0.102127
-0.0993614
-0.0936665
-0.0853774
-0.07512
-0.0636353
-0.051639
-0.0397407
-0.0284036
-0.0179186
-0.00844426
-0.000184803
0.006956
0.0128691
0.0170072
0.0184175
0.0174273
0.0162465
0.0128413
0.00639141
-0.0046059
-0.0242217
-0.0548275
-0.0839459
-0.0974179
-0.0891346
-0.0697848
-0.0482054
-0.0301441
-0.017423
-0.00821541
-0.00404885
0.00204654
0.00261901
0.00371406
-0.00672642
-0.0300093
-0.0530904
-0.069636
-0.0599666
-0.0507801
-0.0349095
-0.00694936
-0.126987
-0.12689
-0.120183
-0.110965
-0.10244
-0.0954915
-0.0898822
-0.0853654
-0.0819931
-0.0799617
-0.0794049
-0.0802795
-0.0823385
-0.0851487
-0.0881033
-0.0905687
-0.0917992
-0.0911698
-0.0882994
-0.083108
-0.0758036
-0.0668198
-0.0567026
-0.0460138
-0.035258
-0.0248447
-0.0150697
-0.00608763
0.00187462
0.0088234
0.0146538
0.0189987
0.0209521
0.0209209
0.0200609
0.0175047
0.0119035
0.00173756
-0.0163637
-0.0450737
-0.073057
-0.0861714
-0.0789492
-0.0616651
-0.0424338
-0.0262623
-0.0146801
-0.00604045
-0.00204189
0.00386149
0.0043552
0.00540219
-0.00482479
-0.028305
-0.0518653
-0.0685221
-0.0585227
-0.0487927
-0.0335188
-0.00682557
-0.117837
-0.118874
-0.113898
-0.106336
-0.0991198
-0.0931943
-0.0883918
-0.0844325
-0.0812909
-0.0791051
-0.0779909
-0.0779282
-0.0787316
-0.0800969
-0.081582
-0.0826807
-0.08284
-0.0815911
-0.0786233
-0.0738337
-0.067328
-0.0593946
-0.0504323
-0.0408811
-0.0311577
-0.0216118
-0.0125315
-0.00406829
0.003554
0.0102851
0.0159808
0.02042
0.0228341
0.023554
0.0234507
0.0219692
0.0175751
0.00856258
-0.00804625
-0.0349265
-0.0614306
-0.0739296
-0.068051
-0.0531341
-0.0364258
-0.0222706
-0.0119326
-0.00391247
-8.60683e-05
0.00557231
0.00595976
0.00690523
-0.00278228
-0.0260581
-0.0498179
-0.0664164
-0.0563982
-0.046282
-0.0317174
-0.00664539
-0.108499
-0.110412
-0.106968
-0.100921
-0.0949106
-0.0899097
-0.085833
-0.082402
-0.0795324
-0.0773064
-0.0758201
-0.0750771
-0.0749588
-0.0752362
-0.075589
-0.075635
-0.074972
-0.0732442
-0.0701942
-0.0657105
-0.0598383
-0.0527689
-0.0447903
-0.0362387
-0.0274523
-0.018721
-0.0103136
-0.00238208
0.00486178
0.011347
0.0168905
0.0213554
0.0241322
0.0254804
0.0261932
0.0259281
0.023001
0.0152487
1.10903e-05
-0.0248796
-0.0494817
-0.0612248
-0.0567824
-0.0444421
-0.0303365
-0.0182372
-0.00920814
-0.00184765
0.00180875
0.00718316
0.00746238
0.00820869
-0.000660416
-0.0232096
-0.0467542
-0.0631384
-0.0535178
-0.0432607
-0.0295053
-0.00638884
-0.0991624
-0.101839
-0.0996616
-0.0949178
-0.0899814
-0.0858117
-0.082386
-0.0794426
-0.0768618
-0.0746827
-0.0729836
-0.071784
-0.0710122
-0.0705036
-0.0700238
-0.0692954
-0.0680215
-0.0659309
-0.062818
-0.0585803
-0.0532284
-0.0468842
-0.0397501
-0.0320771
-0.0241372
-0.0161678
-0.00840985
-0.00101323
0.00582379
0.0120301
0.0174102
0.0218627
0.0249153
0.0267441
0.0281542
0.0290165
0.0276027
0.0211622
0.00727965
-0.0154211
-0.0376409
-0.0484182
-0.0455336
-0.0358723
-0.0243403
-0.01424
-0.00653157
0.000143126
0.00363726
0.00870256
0.00889784
0.00933511
0.00153942
-0.0196631
-0.0425322
-0.0585738
-0.0498397
-0.0397699
-0.0269084
-0.00603967
-0.0902528
-0.0933524
-0.092133
-0.0884834
-0.0844911
-0.0810618
-0.0782166
-0.0757207
-0.0734376
-0.0713743
-0.069591
-0.0681161
-0.0669092
-0.0658589
-0.0647964
-0.0635193
-0.0618097
-0.0594663
-0.0563301
-0.0523118
-0.0474017
-0.0416736
-0.0352683
-0.0283707
-0.0211967
-0.0139393
-0.00680702
5.81469e-05
0.00647146
0.0123663
0.0175598
0.021968
0.0252329
0.0273976
0.0292925
0.0309681
0.0307852
0.0256036
0.0132236
-0.00688782
-0.0262449
-0.0359957
-0.0347404
-0.0277126
-0.0186119
-0.0103646
-0.00392782
0.002053
0.00539676
0.0101442
0.0103166
0.0103683
0.00387222
-0.0153777
-0.0371188
-0.0527059
-0.0453773
-0.0358842
-0.023984
-0.00558853
-0.0817388
-0.0850019
-0.0845123
-0.0817783
-0.0786029
-0.075823
-0.0734922
-0.0714047
-0.0694186
-0.0675178
-0.0657467
-0.064137
-0.0626709
-0.0612746
-0.0598289
-0.0581883
-0.0561958
-0.0537036
-0.0505903
-0.0467814
-0.042258
-0.0370636
-0.0312952
-0.0250876
-0.018609
-0.0120155
-0.00548377
0.000857355
0.00683827
0.0123932
0.017365
0.0216882
0.0251292
0.0274788
0.0296477
0.03171
0.0322361
0.0281502
0.0175712
0.000544578
-0.0157293
-0.0245516
-0.0248511
-0.0202209
-0.0133036
-0.00669696
-0.00142479
0.0038749
0.00708317
0.0115294
0.0117818
0.0114426
0.00638819
-0.0104289
-0.0306354
-0.0456701
-0.0402164
-0.0317088
-0.0208217
-0.00503556
-0.0735486
-0.0768835
-0.0769519
-0.0749618
-0.0724737
-0.0702524
-0.0683714
-0.0666516
-0.0649525
-0.0632428
-0.0615534
-0.0599158
-0.0583258
-0.0567374
-0.0550686
-0.0532166
-0.0510687
-0.0485178
-0.0454729
-0.0418749
-0.0377033
-0.0329826
-0.0277791
-0.0221901
-0.0163453
-0.0103701
-0.00441234
0.0014145
0.00695898
0.0121535
0.0168616
0.0210319
0.0246195
0.0270029
0.0292939
0.0313951
0.032151
0.0289839
0.0203861
0.00661637
-0.00669737
-0.0146653
-0.0162308
-0.0135818
-0.00852254
-0.00331245
0.000945072
0.00559523
0.00868239
0.0128753
0.0133459
0.012707
0.00910012
-0.00502799
-0.0233946
-0.0377849
-0.0345267
-0.027372
-0.0175417
-0.00439267
-0.0657945
-0.0691015
-0.0695626
-0.068159
-0.0662389
-0.064491
-0.0629982
-0.0616051
-0.0601768
-0.0586724
-0.0571117
-0.0555228
-0.0539109
-0.0522493
-0.0504828
-0.0485392
-0.0463387
-0.0438049
-0.0408716
-0.0374939
-0.0336527
-0.0293617
-0.0246661
-0.0196364
-0.0143719
-0.0089726
-0.00356061
0.00176462
0.00687183
0.011692
0.0160939
0.0199888
0.0230658
0.02597
0.0283208
0.0302733
0.031
0.0285707
0.0218225
0.0110427
0.000372431
-0.00669449
-0.00905644
-0.00788013
-0.00432339
-0.000266566
0.00314767
0.0071936
0.0101648
0.0141694
0.0150117
0.0142779
0.0119732
0.000484728
-0.0158922
-0.0295436
-0.0285599
-0.0230136
-0.0142842
-0.00368583
-0.0585218
-0.0616948
-0.0624147
-0.0614703
-0.060016
-0.0586645
-0.0575021
-0.0563947
-0.0552158
-0.0539191
-0.0525152
-0.0510284
-0.0494686
-0.0478219
-0.0460519
-0.0441089
-0.041937
-0.0394828
-0.0366992
-0.0335531
-0.0300292
-0.0261353
-0.0219027
-0.0173831
-0.012652
-0.00778916
-0.00289447
0.0019459
0.00661927
0.0110567
0.0151429
0.0187998
0.0218658
0.0246085
0.0268626
0.0285885
0.0291916
0.0273123
0.0221097
0.013846
0.00545201
-0.000628726
-0.00330802
-0.00311325
-0.000715649
0.00240847
0.00514918
0.00864888
0.011492
0.0153455
0.0166872
0.0161647
0.0148942
0.00567587
-0.00873799
-0.0215359
-0.0226143
-0.0187696
-0.0111908
-0.00295422
-0.0517019
-0.0546882
-0.0555715
-0.0549818
-0.053904
-0.0528793
-0.0519939
-0.0511325
-0.0501783
-0.0490828
-0.0478499
-0.0464989
-0.0450414
-0.0434721
-0.0417676
-0.039894
-0.0378126
-0.0354867
-0.0328834
-0.0299799
-0.0267648
-0.0232432
-0.0194378
-0.0153868
-0.0111478
-0.0067846
-0.00237875
0.00199642
0.00624451
0.0103001
0.014066
0.0174739
0.0204128
0.022972
0.0250554
0.0265469
0.0270181
0.0255511
0.021591
0.0153575
0.00886283
0.00380023
0.00115921
0.00077629
0.00232063
0.00470278
0.00691849
0.00993826
0.0126328
0.0163062
0.0181818
0.0181523
0.0175774
0.0100756
-0.00249478
-0.014279
-0.0169745
-0.0147627
-0.00838407
-0.00224348
-0.0453401
-0.0481105
-0.0490816
-0.0487585
-0.0479804
-0.0472218
-0.0465654
-0.0459127
-0.0451573
-0.0442506
-0.0431914
-0.0419946
-0.0406713
-0.0392212
-0.0376299
-0.0358744
-0.033928
-0.031766
-0.0293661
-0.0267135
-0.0238004
-0.0206314
-0.0172232
-0.0136052
-0.00982176
-0.00592401
-0.00197824
0.00195373
0.00579017
0.00947053
0.0129096
0.0160472
0.0187915
0.0211527
0.0230393
0.0243245
0.0247003
0.0235708
0.0205998
0.0159631
0.0110145
0.00692011
0.00453764
0.0038727
0.0048199
0.00662258
0.00843423
0.0110309
0.0135581
0.0169768
0.0192777
0.0197993
0.019557
0.0132847
0.00248668
-0.00808611
-0.0118625
-0.0110983
-0.00595661
-0.00159666
-0.0394385
-0.0419713
-0.0429724
-0.0428464
-0.0423047
-0.0417607
-0.0412915
-0.0408132
-0.0402299
-0.0394954
-0.038605
-0.0375693
-0.0363973
-0.0350917
-0.0336439
-0.0320385
-0.0302569
-0.0282827
-0.0261014
-0.0237039
-0.0210859
-0.0182521
-0.0152154
-0.0119992
-0.00863808
-0.00517326
-0.00165871
0.00185342
0.00529408
0.00860899
0.0117217
0.0145779
0.0170942
0.0192476
0.0209421
0.0220641
0.0223934
0.0215605
0.0193731
0.0159771
0.0122613
0.00903759
0.00701839
0.00627154
0.00682479
0.00818182
0.00968316
0.0118992
0.014233
0.0173059
0.0198122
0.0206709
0.0204477
0.0151469
0.00609739
-0.00309071
-0.00742886
-0.00785802
-0.00395612
-0.00104644
-0.0339803
-0.0362694
-0.0372611
-0.0372777
-0.0369208
-0.0365477
-0.0362296
-0.0358954
-0.0354597
-0.0348776
-0.0341436
-0.033267
-0.0322538
-0.0311056
-0.0298179
-0.0283807
-0.0267812
-0.0250086
-0.0230535
-0.0209112
-0.0185799
-0.0160646
-0.013376
-0.0105332
-0.00756363
-0.00450077
-0.00138893
0.001728
0.00479166
0.00775416
0.0105476
0.0131218
0.0153964
0.017347
0.0188671
0.019869
0.0201945
0.0196263
0.0180593
0.0156184
0.0128783
0.0104087
0.00877899
0.00807047
0.00838159
0.00940039
0.0106581
0.0125252
0.0146335
0.0172755
0.019497
0.0205942
0.020255
0.0158258
0.00842509
0.000695259
-0.00377398
-0.00509659
-0.00237001
-0.000606595
-0.0289522
-0.0310011
-0.0319553
-0.0320719
-0.0318575
-0.0316194
-0.0314217
-0.0312045
-0.0308929
-0.0304443
-0.0298521
-0.0291272
-0.0282709
-0.0272831
-0.0261614
-0.0249
-0.0234898
-0.0219236
-0.0201957
-0.0183041
-0.0162488
-0.0140352
-0.0116723
-0.00917632
-0.00656918
-0.00387866
-0.00114111
0.00160666
0.00431495
0.00694216
0.00942792
0.0117294
0.013776
0.0155252
0.0168915
0.0178076
0.0181577
0.0178224
0.0167473
0.0150383
0.0130669
0.0112312
0.00997044
0.00936272
0.00953839
0.0103041
0.0113628
0.0129112
0.0147586
0.0169488
0.0188272
0.019803
0.0193085
0.0156614
0.00969627
0.00336279
-0.00093344
-0.00282329
-0.00114419
-0.000269843
-0.0243372
-0.0261542
-0.0270526
-0.027237
-0.0271318
-0.0269995
-0.026897
-0.0267739
-0.026565
-0.0262308
-0.0257616
-0.0251816
-0.0244748
-0.0236426
-0.0226848
-0.0215979
-0.020376
-0.0190141
-0.0175084
-0.0158588
-0.0140664
-0.0121367
-0.0100776
-0.00790276
-0.00563031
-0.00328313
-0.000891346
0.00151385
0.00389044
0.00620308
0.00839808
0.0104394
0.0122645
0.0138305
0.0150657
0.0159211
0.0163106
0.0161749
0.0154865
0.0143402
0.0129674
0.0116517
0.0107149
0.0102339
0.010345
0.0109236
0.011812
0.0130726
0.0146339
0.0163837
0.0178619
0.0185965
0.0179706
0.0149924
0.0101926
0.00509182
0.00115447
-0.00102705
-0.000216098
-1.66102e-05
-0.0201133
-0.0217126
-0.0225453
-0.0227735
-0.0227514
-0.0227015
-0.0226743
-0.0226279
-0.0225075
-0.0222795
-0.021937
-0.0214652
-0.0208878
-0.0201996
-0.0193968
-0.0184772
-0.0174365
-0.0162709
-0.0149779
-0.013558
-0.0120131
-0.0103483
-0.00857083
-0.00669211
-0.00472723
-0.00269525
-0.000621303
0.00146896
0.00353959
0.00556004
0.0074847
0.00928257
0.0108985
0.0122976
0.0134215
0.0142306
0.0146619
0.0146927
0.0143067
0.0135864
0.0126758
0.0117734
0.0111131
0.0107618
0.0108507
0.0112927
0.0120304
0.0130354
0.0143004
0.0156485
0.0167326
0.017207
0.0164942
0.0140689
0.0101834
0.0061025
0.00260767
0.000334601
0.00047408
0.000175518
-0.0162607
-0.017659
-0.0184212
-0.0186754
-0.0187154
-0.0187286
-0.0187588
-0.0187713
-0.018719
-0.018572
-0.0183192
-0.0179627
-0.0175102
-0.0169581
-0.0163019
-0.0155396
-0.0146692
-0.0136882
-0.0125948
-0.0113896
-0.0100747
-0.00865493
-0.00713646
-0.00552908
-0.00384537
-0.00210104
-0.00031699
0.0014853
0.00327591
0.00502947
0.00670642
0.00827898
0.00970124
0.0109451
0.0119745
0.0127444
0.0132119
0.0133737
0.0132188
0.0128168
0.0122617
0.0116808
0.0112468
0.0110142
0.0111031
0.0114459
0.0120475
0.0128294
0.0138115
0.0148084
0.0155459
0.0157844
0.0150275
0.0130478
0.00987711
0.00659775
0.00354977
0.00132912
0.000975331
0.00032222
-0.0127589
-0.0139737
-0.0146646
-0.0149318
-0.0150178
-0.015079
-0.0151528
-0.015211
-0.0152133
-0.0151344
-0.0149648
-0.0147056
-0.0143593
-0.0139278
-0.0134049
-0.0127873
-0.0120737
-0.0112627
-0.0103532
-0.0093457
-0.00824197
-0.00704628
-0.00576404
-0.00440344
-0.00297484
-0.00149138
2.98561e-05
0.00157121
0.00310761
0.0046182
0.00607052
0.00744088
0.00869141
0.00981131
0.0107305
0.0114598
0.0119513
0.0122104
0.0122284
0.0120598
0.0117673
0.0114317
0.0111789
0.0110491
0.0111474
0.0114172
0.0118965
0.0124884
0.0132173
0.0139181
0.0143688
0.0144163
0.0136461
0.0120172
0.00941244
0.00674355
0.00415127
0.00203451
0.00132624
0.000430948
-0.00958626
-0.0106361
-0.0112576
-0.0115291
-0.0116487
-0.011746
-0.0118528
-0.011946
-0.0119921
-0.0119696
-0.0118701
-0.0116919
-0.0114376
-0.0111117
-0.0107084
-0.010222
-0.00965028
-0.00899317
-0.00825018
-0.0074218
-0.00650939
-0.00551643
-0.00444753
-0.00330942
-0.00211068
-0.00086195
0.000422808
0.00172894
0.00303634
0.00432745
0.00557531
0.00676236
0.0078548
0.00883561
0.00966741
0.010361
0.0108663
0.0111928
0.0113348
0.0113326
0.0112221
0.0110734
0.0109619
0.0109165
0.011025
0.0112406
0.011612
0.0120457
0.012558
0.0130171
0.0132432
0.0131462
0.0123838
0.0110252
0.00887637
0.00666724
0.00447364
0.00250603
0.00155615
0.000506257
-0.00672236
-0.00762547
-0.00818169
-0.00845147
-0.00859544
-0.00871977
-0.00885115
-0.0089709
-0.00905159
-0.00907484
-0.00903364
-0.00892692
-0.00875535
-0.00851715
-0.00821512
-0.00784362
-0.00739841
-0.00687858
-0.00628416
-0.00561579
-0.00487447
-0.00406285
-0.00318466
-0.00224538
-0.00125195
-0.000212899
0.000860461
0.00195638
0.00305845
0.00415249
0.00521703
0.00623735
0.00718711
0.00805356
0.00881272
0.00944325
0.00994325
0.0103093
0.0105346
0.0106486
0.010671
0.0106499
0.0106407
0.010659
0.0107747
0.0109485
0.0112273
0.0115314
0.0118662
0.0121338
0.0121905
0.0119896
0.0112515
0.0100959
0.00831746
0.0064576
0.00458831
0.00279167
0.00169203
0.00055399
-0.00414772
-0.00492169
-0.00541768
-0.00568184
-0.005843
-0.00598723
-0.00613655
-0.00627607
-0.00638341
-0.00644341
-0.00644978
-0.00640149
-0.00629823
-0.00613951
-0.00592394
-0.00565121
-0.00531672
-0.00491795
-0.00445459
-0.00392731
-0.00333703
-0.00268574
-0.00197629
-0.00121297
-0.000401317
0.000451922
0.00133779
0.00224691