/*--------------------------------*- C++ -*----------------------------------*\
| =========                 |                                                 |
| \\      /  F ield         | OpenFOAM: The Open Source CFD Toolbox           |
|  \\    /   O peration     | Version:  2512                                  |
|   \\  /    A nd           | Website:  www.openfoam.com                      |
|    \\/     M anipulation  |                                                 |
\*---------------------------------------------------------------------------*/
FoamFile
{
    version     2.0;
    format      ascii;
    arch        "LSB;label=32;scalar=64";
    class       surfaceScalarField;
    location    "65";
    object      phi;
}
// * * * * * * * * * * * * * * * * * * * * * * * * * * * * * * * * * * * * * //

dimensions      [0 3 -1 0 0 0 0];

oriented        oriented;

internalField   nonuniform List<scalar> 
26232
(
5.48465e-05
0.000887119
-0.000941965
0.000351069
0.0015779
-0.00187412
0.00102879
0.00136216
-0.00203988
0.00223312
0.00031369
-0.00151802
0.0041137
-0.00152534
-0.000355245
0.00682069
-0.00413108
0.00142409
0.0104969
-0.00748743
0.00381123
0.0152661
-0.0115734
0.00680412
0.021219
-0.0163504
0.0103975
0.0283985
-0.0217531
0.0145736
0.036788
-0.0276849
0.0192955
0.0463046
-0.0340196
0.024503
0.0568005
-0.0406085
0.0301126
0.0680709
-0.0472912
0.0360208
0.0798691
-0.0539089
0.0421106
0.0919269
-0.0603169
0.0482592
0.103975
-0.0663955
0.054347
0.115767
-0.072058
0.0602663
0.127094
-0.0772529
0.0659259
0.137803
-0.0819744
0.071265
0.147792
-0.0862243
0.0762353
0.157041
-0.0901093
0.0808611
0.165501
-0.0935515
0.0850905
-0.0969544
0.0894369
0.173019
0.000110838
0.000776281
0.000600057
0.00108868
0.00163129
0.000330931
0.00337048
-0.00142551
0.0059834
-0.00413825
0.00962615
-0.00777383
0.0144297
-0.012291
0.0204806
-0.0176243
0.0278023
-0.0236721
0.0363406
-0.0302913
0.0459582
-0.0373026
0.0564416
-0.044503
0.0675174
-0.0516843
0.0788783
-0.058652
0.0902125
-0.0652431
0.101234
-0.0713384
0.111708
-0.0768693
0.121469
-0.0818188
0.130432
-0.086216
0.138587
-0.0901296
0.146006
-0.0936433
0.152792
-0.0968956
0.159117
-0.0998762
-0.10302
0.165182
0.000176281
0.0006
0.000888317
0.000376642
0.00232431
-0.00110506
0.00466799
-0.00376919
0.00809092
-0.00756118
0.0127338
-0.0124167
0.0186818
-0.018239
0.0259403
-0.0248827
0.0344172
-0.0321491
0.0439208
-0.0397949
0.0541724
-0.0475542
0.0648355
-0.0551662
0.0755542
-0.0624029
0.0859929
-0.0690907
0.0958733
-0.0751235
0.105
-0.0804654
0.113275
-0.0851441
0.120694
-0.0892382
0.127338
-0.0928592
0.133342
-0.0961343
0.138883
-0.099184
0.144121
-0.102133
0.149249
-0.105005
-0.108098
0.154328
0.000256395
0.000343605
0.00122907
-0.000596034
0.00312568
-0.00300167
0.00613677
-0.00678028
0.0104179
-0.0118423
0.0160596
-0.0180584
0.0230559
-0.0252354
0.0312838
-0.0331105
0.0405011
-0.0413664
0.0503702
-0.0496639
0.0604992
-0.0576832
0.0704954
-0.0651624
0.0800153
-0.0719228
0.088805
-0.0778804
0.0967217
-0.0830402
0.103737
-0.0874802
0.109919
-0.0913268
0.11541
-0.0947289
0.120385
-0.0978348
0.125027
-0.100776
0.129496
-0.103653
0.133915
-0.106552
0.138391
-0.10948
-0.112635
0.142928
0.000354508
-1.09031e-05
0.00162817
-0.0018697
0.00403531
-0.00540882
0.00775189
-0.0104969
0.0128834
-0.0169738
0.0194253
-0.0246003
0.027235
-0.033045
0.0360302
-0.0419057
0.0454207
-0.050757
0.0549658
-0.059209
0.0642419
-0.0669594
0.0729039
-0.0738243
0.0807254
-0.0797444
0.0876139
-0.0847688
0.0935987
-0.089025
0.0988015
-0.092683
0.103396
-0.0959215
0.10757
-0.0989029
0.111494
-0.101759
0.115304
-0.104585
0.119097
-0.107447
0.122931
-0.110386
0.126854
-0.113403
-0.116625
0.130843
0.000470934
-0.000481837
0.0020811
-0.00347986
0.00502925
-0.00835696
0.00944468
-0.0149123
0.0153397
-0.0228688
0.0225698
-0.0318305
0.0308273
-0.0413025
0.0396782
-0.0507566
0.0486356
-0.0597143
0.0572445
-0.0678179
0.0651541
-0.0748689
0.0721585
-0.0808288
0.078203
-0.0857889
0.0833586
-0.0899244
0.0877794
-0.0934458
0.0916548
-0.0965584
0.09517
-0.0994368
0.0984809
-0.102214
0.101703
-0.104981
0.104915
-0.107797
0.108165
-0.110696
0.111476
-0.113698
0.114876
-0.116802
-0.120078
0.118329
0.000603691
-0.00108553
0.0025722
-0.00544837
0.00605896
-0.0118437
0.0111062
-0.0199596
0.0175892
-0.0293518
0.0251945
-0.0394358
0.0334563
-0.0495644
0.0418427
-0.059143
0.0498598
-0.0677314
0.0571383
-0.0750964
0.0634773
-0.081208
0.068843
-0.0861944
0.0733312
-0.0902771
0.0771144
-0.0937076
0.0803883
-0.0967198
0.0833337
-0.0995038
0.0860947
-0.102198
0.0887742
-0.104893
0.0914392
-0.107646
0.0941299
-0.110488
0.0968689
-0.113435
0.0996667
-0.116496
0.102533
-0.119668
-0.122985
0.105441
0.000747107
-0.00183264
0.00307529
-0.00777656
0.00705593
-0.0158244
0.0126022
-0.0255058
0.0194203
-0.0361699
0.02703
-0.0470454
0.0348564
-0.0573908
0.0423555
-0.0666421
0.0491201
-0.074496
0.0549327
-0.080909
0.0597607
-0.086036
0.0637103
-0.090144
0.066963
-0.0935299
0.0697188
-0.0964634
0.0721558
-0.0991568
0.0744119
-0.10176
0.0765829
-0.104369
0.0787294
-0.10704
0.0808872
-0.109804
0.0830762
-0.112677
0.0853066
-0.115666
0.0875822
-0.118771
0.0899066
-0.121993
-0.125337
0.0922577
0.00089336
-0.00272599
0.00355686
-0.0104401
0.00794108
-0.0202086
0.0137956
-0.0313603
0.0206506
-0.0430248
0.0278973
-0.0542922
0.0349304
-0.0644239
0.0412812
-0.0729929
0.0466893
-0.0799041
0.0511014
-0.0853211
0.0546193
-0.0895539
0.0574278
-0.0929525
0.0597306
-0.0958327
0.0617073
-0.0984401
0.0634948
-0.100944
0.0651863
-0.103451
0.0668395
-0.106022
0.0684877
-0.108688
0.0701494
-0.111466
0.0718343
-0.114362
0.0735468
-0.117378
0.0752886
-0.120513
0.0770594
-0.123764
-0.127122
0.0788448
0.00103274
-0.00375873
0.0039797
-0.013387
0.00863621
-0.0248651
0.0145711
-0.0372952
0.0211619
-0.0496157
0.0277383
-0.0608686
0.0337464
-0.070432
0.038852
-0.0780985
0.0429548
-0.0840069
0.0461356
-0.0885018
0.0485752
-0.0919935
0.0504814
-0.0948587
0.0520394
-0.0973907
0.0533899
-0.0997906
0.0546277
-0.102182
0.0558106
-0.104634
0.0569715
-0.107183
0.0581282
-0.109845
0.0592905
-0.112628
0.0604634
-0.115535
0.0616489
-0.118564
0.0628472
-0.121711
0.0640563
-0.124973
-0.128334
0.0652679
0.00115503
-0.00491377
0.00430872
-0.0165407
0.00907689
-0.0296333
0.0148539
-0.0430722
0.020916
-0.0556777
0.0266069
-0.0665595
0.0314858
-0.0753109
0.0353729
-0.0819856
0.0383049
-0.0869389
0.0404481
-0.090645
0.0420123
-0.0935578
0.0431917
-0.096038
0.0441355
-0.0983345
0.0449447
-0.1006
0.0456801
-0.102918
0.046376
-0.10533
0.0470506
-0.107857
0.0477138
-0.110508
0.0483711
-0.113285
0.0490255
-0.116189
0.0496777
-0.119216
0.050327
-0.122361
0.0509698
-0.125615
-0.128966
0.0516022
0.0012534
-0.00616717
0.00451854
-0.0198058
0.00922315
-0.0343379
0.0146196
-0.0484687
0.01995
-0.0610081
0.0246379
-0.0712474
0.0283852
-0.0790582
0.0311529
-0.0847533
0.0330739
-0.0888599
0.0343539
-0.091925
0.0351969
-0.0944008
0.0357655
-0.0966066
0.0361711
-0.0987402
0.0364816
-0.10091
0.0367345
-0.10317
0.0369494
-0.105545
0.0371364
-0.108044
0.0373015
-0.110673
0.0374482
-0.113432
0.0375787
-0.116319
0.0376934
-0.119331
0.0377916
-0.122459
0.0378694
-0.125693
0.0379263
-0.129023
-0.000214279
-0.000983055
0.00119733
-0.000753425
-0.00249252
0.00303166
-0.00155239
-0.00366587
0.00446483
-0.00255993
-0.00455236
0.00555991
-0.0037344
-0.00520606
0.00638053
-0.00504234
-0.00568405
0.006992
-0.00645754
-0.00604013
0.00745532
-0.00795991
-0.00631925
0.00782162
-0.00953438
-0.00655421
0.00812869
-0.0111696
-0.00676458
0.00839978
-0.0128565
-0.00695742
0.00864431
-0.0145871
-0.00712923
0.00885983
-0.0163533
-0.00726828
0.00903451
-0.018146
-0.00735678
0.00914948
-0.0199542
-0.0073725
0.00918072
-0.0217648
-0.00728981
0.00910041
-0.0235625
-0.00708028
0.00887793
-0.0253302
-0.00671287
0.00848063
-0.0270508
-0.00615399
0.00787458
-0.0287099
-0.005367
0.00702606
-0.0302978
-0.0043146
0.00590248
-0.0318155
-0.00295457
0.00447229
-0.0332856
-0.00122866
0.0026988
0.000889957
-0.0346949
0.000519361
-0.00024718
-0.000735875
-0.000857988
-0.00188171
-0.00174951
-0.00277434
-0.00285805
-0.00344383
-0.00413379
-0.00393032
-0.00553841
-0.00427944
-0.00704303
-0.00453551
-0.00862625
-0.00473603
-0.0102721
-0.00490837
-0.0119681
-0.00506854
-0.0137037
-0.00522182
-0.0154685
-0.00536448
-0.017251
-0.0054858
-0.0190378
-0.00556992
-0.0208131
-0.00559724
-0.0225578
-0.00554509
-0.0242501
-0.00538803
-0.0258655
-0.00509743
-0.0273787
-0.00464079
-0.0287654
-0.00398027
-0.0300075
-0.00307256
-0.031094
-0.001868
-0.0320328
-0.000289914
0.00167502
-0.0328178
-0.00026604
-0.000469835
-0.000915524
-0.00123223
-0.00185255
-0.00183732
-0.00300371
-0.00229267
-0.00431229
-0.00262174
-0.0057352
-0.00285653
-0.00724016
-0.00303054
-0.00880304
-0.00317316
-0.0104052
-0.00330621
-0.0120312
-0.00344253
-0.0136668
-0.00358627
-0.015297
-0.00373425
-0.0169052
-0.0038776
-0.0184718
-0.00400326
-0.0199739
-0.00409514
-0.0213844
-0.00413463
-0.0226718
-0.00410066
-0.0238001
-0.00396915
-0.0247292
-0.00371169
-0.0254166
-0.00329285
-0.025822
-0.00266709
-0.0259138
-0.00177623
-0.0256519
-0.000551792
0.00109663
-0.0250735
-0.000270548
-0.000199287
-0.000925698
-0.000577077
-0.00186189
-0.000901124
-0.00299901
-0.00115554
-0.00427485
-0.0013459
-0.00564174
-0.00148964
-0.00706337
-0.0016089
-0.00851168
-0.00172485
-0.0099639
-0.00185399
-0.0114
-0.00200646
-0.0128004
-0.00218588
-0.0141443
-0.00239029
-0.0154086
-0.0026133
-0.0165666
-0.00284526
-0.0175876
-0.00307415
-0.0184361
-0.00328612
-0.0190713
-0.00346548
-0.019446
-0.00359442
-0.0195057
-0.00365196
-0.0191876
-0.00361101
-0.0184214
-0.00343328
-0.0171435
-0.0030541
-0.0153028
-0.00239252
-0.00135934
-0.0128468
-0.000261743
6.24568e-05
-0.00089165
5.28295e-05
-0.00178353
-9.23877e-06
-0.00285343
-8.56529e-05
-0.00403487
-0.000164459
-0.00527573
-0.000248781
-0.00653497
-0.000349664
-0.00777936
-0.000480461
-0.00898041
-0.000652937
-0.0101117
-0.000875133
-0.011147
-0.00115065
-0.0120578
-0.00147942
-0.0128131
-0.001858
-0.013378
-0.00228044
-0.0137131
-0.00273898
-0.0137749
-0.00322441
-0.013514
-0.00372632
-0.0128753
-0.0042331
-0.0117957
-0.00473163
-0.0102009
-0.00520582
-0.00800157
-0.00563258
-0.00508096
-0.00597471
-0.0013256
-0.00614788
-0.00579862
0.00311369
-0.000241348
0.000303805
-0.000818449
0.000629931
-0.00162635
0.000798661
-0.00257938
0.000867376
-0.00360765
0.00086381
-0.00465427
0.000797837
-0.00567231
0.000668384
-0.00662168
0.000468901
-0.00746599
0.000191382
-0.0081697
-0.000171425
-0.00869768
-0.000622676
-0.00901105
-0.00116604
-0.00906787
-0.00180118
-0.00882231
-0.002526
-0.00822447
-0.00333682
-0.00722041
-0.00422847
-0.00575228
-0.00519446
-0.0037582
-0.00622717
-0.00117161
-0.00731822
0.00208129
-0.00845871
0.00608747
-0.00963876
0.0109499
-0.0108371
0.0167787
-0.0119766
-0.0130502
0.0240303
-0.000211496
0.000515301
-0.000711837
0.00113027
-0.00139971
0.00148654
-0.00218879
0.00165646
-0.00300563
0.00168064
-0.00378747
0.00157968
-0.00447958
0.0013605
-0.00503234
0.00102166
-0.00539851
0.000557551
-0.00552884
-4.10931e-05
-0.0053767
-0.000774814
-0.00488761
-0.00165513
-0.00400516
-0.00268363
-0.00266897
-0.0038622
-0.000815267
-0.00519052
0.0016222
-0.00666593
0.00471109
-0.00828335
0.00851931
-0.0100354
0.0131138
-0.0119128
0.0185599
-0.0139048
0.02492
-0.0159989
0.0322859
-0.0182031
0.0406613
-0.020352
-0.0230415
0.0506525
-0.000174388
0.000689689
-0.000577706
0.00153359
-0.00111262
0.00202145
-0.00169176
0.0022356
-0.0022369
0.00222579
-0.00267735
0.00202013
-0.00294763
0.00163078
-0.00298487
0.00105889
-0.00272621
0.000298898
-0.00210946
-0.000657844
-0.00106401
-0.00182027
0.000478934
-0.00319807
0.00259322
-0.00479791
0.00535452
-0.0066235
0.0088388
-0.0086748
0.0131202
-0.0109473
0.0182687
-0.0134319
0.0243479
-0.0161146
0.0314125
-0.0189774
0.0395083
-0.0220005
0.0486561
-0.0251467
0.0589252
-0.0284721
0.0701371
-0.0315639
-0.0358777
0.0829733
-0.000132246
0.000821935
-0.000421662
0.001823
-0.000773142
0.00237293
-0.00109642
0.00255887
-0.00130615
0.00243552
-0.00132075
0.00203473
-0.00106054
0.00137057
-0.000445736
0.000444085
0.000604886
-0.000751724
0.00217502
-0.00222798
0.0043514
-0.00399665
0.00722105
-0.00606772
0.01087
-0.00844691
0.0153803
-0.0111338
0.0208262
-0.0141207
0.0272707
-0.0173918
0.0347623
-0.0209235
0.0433325
-0.0246848
0.0529936
-0.0286385
0.0637404
-0.0327473
0.0755359
-0.0369422
0.0883818
-0.041318
0.102052
-0.0452339
-0.0508215
0.116996
-8.711e-05
0.000909045
-0.000248637
0.00198453
-0.000388058
0.00251235
-0.000408887
0.0025797
-0.000215597
0.00224223
0.000287648
0.00153148
0.00119791
0.000460301
0.00261419
-0.000972186
0.00463741
-0.00277495
0.00736911
-0.00495968
0.0109085
-0.00753602
0.0153483
-0.0105076
0.02077
-0.0138686
0.0272384
-0.0176021
0.0347964
-0.0216787
0.0434616
-0.026057
0.0532235
-0.0306854
0.0640432
-0.0355044
0.0758548
-0.0404502
0.0885671
-0.0454596
0.102074
-0.0504494
0.11624
-0.0554842
0.13095
-0.0599439
-0.0658971
0.146026
-4.04767e-05
0.000949522
-6.17856e-05
0.00200584
3.91989e-05
0.00241137
0.000368621
0.00225028
0.00103643
0.00157442
0.00215534
0.00041257
0.00384104
-0.0012254
0.00621068
-0.00334182
0.00937957
-0.00594385
0.0134562
-0.00903626
0.0185352
-0.0126151
0.0246905
-0.0166628
0.0319669
-0.0211451
0.040375
-0.0260102
0.0498864
-0.0311901
0.0604335
-0.0366041
0.0719114
-0.0421632
0.0841832
-0.0477763
0.0970883
-0.0533553
0.110451
-0.058822
0.124105
-0.0641038
0.137827
-0.0692056
0.151671
-0.0737888
-0.0790951
0.164869
7.55695e-06
0.000139278
0.000510762
0.00124302
0.0024622
0.00429886
0.00688469
0.010347
0.0148006
0.020338
0.0270183
0.0348585
0.043826
0.0538367
0.0647572
0.0764123
0.0885961
0.101086
0.113657
0.1261
0.138231
0.149887
0.161188
0.17153
-0.0349205
0.00337178
-0.00314626
-0.0348958
0.00881904
-0.00884372
-0.0345651
0.0153891
-0.0157198
-0.0338657
0.0230414
-0.0237408
-0.0327411
0.031694
-0.0328187
-0.0311326
0.041164
-0.0427725
-0.0289647
0.0511363
-0.0533042
-0.0261695
0.0611933
-0.0639885
-0.022667
0.0707762
-0.0742786
-0.0182875
0.0790942
-0.0834737
-0.012844
0.0852779
-0.0907213
-0.00616585
0.0883146
-0.0949928
0.00188943
0.0870617
-0.095117
0.0113469
0.0804564
-0.0899139
0.0219109
0.0676485
-0.0782124
0.0332855
0.0482917
-0.0596664
0.0449799
0.022512
-0.0342064
0.0565563
-0.00882656
-0.0027498
0.0679671
-0.0442187
0.0328078
0.0788195
-0.0808968
0.0700444
0.0884803
-0.114494
0.104833
0.0961052
-0.140843
0.133218
0.101026
-0.157894
0.152973
0.102591
-0.166343
0.164779
0.0998713
-0.169992
0.172711
0.0928333
-0.174706
0.181744
0.0841867
-0.182367
0.191013
0.078855
-0.184247
0.189578
0.0803429
-0.164469
0.162981
0.0883524
-0.114108
0.106099
0.100516
-0.0397293
0.0275658
0.113698
0.0419146
-0.055097
0.125168
0.114414
-0.125884
0.133481
0.167963
-0.176276
0.13865
0.199321
-0.204489
0.139788
0.214259
-0.215397
0.135287
0.228515
-0.224014
0.126364
0.249913
-0.24099
0.118086
0.258124
-0.249846
0.115438
0.219278
-0.21663
0.119226
0.122922
-0.12671
0.126589
-0.00344347
-0.00391911
0.134629
-0.120652
0.112611
0.141426
-0.200376
0.193579
0.144045
-0.239072
0.236452
0.139935
-0.262076
0.266187
0.130775
-0.282993
0.292153
0.12174
-0.283885
0.29292
0.117646
-0.222
0.226095
0.12006
-0.104476
0.102062
0.126706
0.0370197
-0.0436667
0.132977
0.148148
-0.154419
0.134256
0.225512
-0.226791
0.128881
0.28417
-0.278795
0.122332
0.290953
-0.284404
0.119808
0.265768
-0.263244
0.121818
0.125588
-0.127599
0.128192
0.0256967
-0.03207
0.134552
-0.106968
0.100607
-0.151649
0.149385
-0.0325225
0.00307639
-0.0319147
0.00821132
-0.0309099
0.0143844
-0.0294096
0.0215411
-0.0273332
0.0296177
-0.0246187
0.0384495
-0.0211342
0.0476518
-0.016794
0.056853
-0.0116037
0.0655859
-0.00535534
0.0728458
0.00193914
0.0779834
0.0103319
0.0799219
0.0197768
0.0776168
0.030096
0.0701371
0.0409529
0.0567916
0.0519327
0.0373119
0.0626555
0.0117892
0.0728538
-0.0190248
0.0825309
-0.0538958
0.0914177
-0.0897835
0.0989135
-0.12199
0.10426
-0.146189
0.107026
-0.160661
0.107046
-0.166363
0.103604
-0.16655
0.0958637
-0.166966
0.0852847
-0.171788
0.0766834
-0.175645
0.0751069
-0.162892
0.0816576
-0.120659
0.0938635
-0.0519352
0.108106
0.027672
0.121212
0.101308
0.131498
0.157676
0.138393
0.192426
0.14054
0.212112
0.136716
0.232339
0.128774
0.257855
0.121698
0.2652
0.119768
0.221207
0.123432
0.119259
0.129914
-0.00992606
0.136479
-0.127217
0.141881
-0.205778
0.143815
-0.241005
0.139444
-0.257705
0.130093
-0.273642
0.120903
-0.274695
0.116834
-0.21793
0.119561
-0.107203
0.126648
0.0299328
0.132945
0.141851
0.133799
0.224658
0.128212
0.289758
0.121719
0.297445
0.119808
0.26768
0.122453
0.122943
0.128932
0.0192182
0.135712
-0.113748
-0.154294
-0.0241377
0.00214052
-0.0228483
0.00692198
-0.0210933
0.0126293
-0.0187373
0.0191851
-0.0156766
0.026557
-0.0119794
0.0347523
-0.00737647
0.0430489
-0.00184265
0.0513192
0.00486792
0.0588753
0.0124326
0.0652811
0.0209253
0.0694906
0.030279
0.0705682
0.0403114
0.0675844
0.0507436
0.0597049
0.061198
0.0463371
0.0712784
0.0272315
0.0806596
0.00240801
0.0892738
-0.027639
0.0970892
-0.0617113
0.103881
-0.0965755
0.109104
-0.127212
0.112136
-0.149222
0.112727
-0.161252
0.111131
-0.164766
0.107109
-0.162528
0.0993956
-0.159252
0.0879758
-0.160368
0.0767253
-0.164395
0.0717577
-0.157924
0.0761057
-0.125007
0.0877673
-0.0635968
0.102714
0.0127256
0.117304
0.0867175
0.129497
0.145483
0.138045
0.183878
0.141276
0.208881
0.138399
0.235216
0.131687
0.264566
0.125818
0.271069
0.124378
0.222647
0.127704
0.115932
0.133267
-0.0154884
0.138381
-0.132331
0.142332
-0.209728
0.143588
-0.242262
0.139089
-0.253205
0.129657
-0.264211
0.120395
-0.265433
0.116434
-0.21397
0.119448
-0.110217
0.126816
0.0225648
0.133006
0.13566
0.133429
0.224235
0.127704
0.295483
0.121321
0.303828
0.120045
0.268955
0.123407
0.119581
0.130011
0.0126146
0.13703
-0.120767
-0.157229
-0.0113203
0.000613975
-0.00944018
0.00504188
-0.00702782
0.0102169
-0.00402792
0.0161852
-0.000262459
0.0227916
0.00474352
0.0297463
0.0105085
0.0372839
0.0171212
0.0447065
0.0245176
0.0514789
0.0327932
0.0570056
0.04184
0.0604438
0.0514888
0.0609195
0.0614819
0.0575913
0.0714857
0.0497012
0.0811236
0.0366992
0.0900464
0.0183088
0.098058
-0.00560363
0.10507
-0.0346505
0.111061
-0.0677026
0.115761
-0.101275
0.118671
-0.130123
0.119388
-0.149938
0.117893
-0.159758
0.11469
-0.161564
0.110068
-0.157906
0.10287
-0.152054
0.0917753
-0.149274
0.0789542
-0.151574
0.0706441
-0.149614
0.0719839
-0.126347
0.0823776
-0.0739905
0.0976037
-0.00250039
0.113481
0.0708397
0.127437
0.131528
0.137542
0.173773
0.141957
0.204466
0.140299
0.236874
0.135032
0.269833
0.130325
0.275776
0.12917
0.223802
0.131933
0.11317
0.136553
-0.0201091
0.140299
-0.136076
0.142774
-0.212203
0.143324
-0.242812
0.138809
-0.24869
0.129407
-0.254808
0.120131
-0.256157
0.116349
-0.210187
0.11963
-0.113498
0.127145
0.015049
0.133139
0.129667
0.133156
0.224218
0.127367
0.301272
0.121156
0.310039
0.120512
0.269599
0.124624
0.115469
0.131413
0.00582574
0.138525
-0.127879
-0.160362
0.0050499
-0.00132224
0.00736216
0.00272962
0.0103213
0.0072578
0.0140525
0.012454
0.018606
0.0182381
0.0238454
0.0245069
0.0299929
0.0311365
0.0370115
0.0376878
0.0448383
0.0436521
0.0534132
0.0484306
0.0625813
0.0512757
0.0721106
0.0513902
0.0817067
0.0479952
0.0910279
0.04038
0.0997436
0.0279835
0.10749
0.010562
0.114243
-0.0123561
0.119788
-0.0401952
0.124046
-0.0719609
0.126662
-0.103891
0.127215
-0.130676
0.125632
-0.148356
0.122241
-0.156366
0.117625
-0.156948
0.112367
-0.152648
0.105808
-0.145495
0.0959492
-0.139415
0.0829247
-0.138549
0.0719026
-0.138592
0.0696711
-0.124115
0.0779395
-0.0822589
0.0928592
-0.0174201
0.10974
0.0539593
0.125223
0.116045
0.136778
0.162218
0.142496
0.198749
0.142313
0.237056
0.138666
0.273481
0.135091
0.279351
0.134031
0.224862
0.136065
0.111137
0.139697
-0.0237406
0.142173
-0.138553
0.143187
-0.213216
0.142986
-0.242611
0.138559
-0.244263
0.129299
-0.245549
0.12003
-0.246888
0.116452
-0.206609
0.11999
-0.117036
0.127563
0.00747587
0.133319
0.123911
0.132982
0.224556
0.127205
0.307049
0.121236
0.316008
0.121192
0.269643
0.126053
0.110608
0.133091
-0.00121185
0.140202
-0.13499
-0.163607
0.025309
-0.00260093
0.0273345
0.000704115
0.0299613
0.00463096
0.0334487
0.00896655
0.0378538
0.013833
0.0431319
0.0192288
0.0493112
0.0249571
0.0563574
0.0306416
0.0641844
0.0358251
0.0726697
0.0399454
0.0816181
0.0423273
0.0907654
0.0422429
0.0997922
0.0389684
0.108357
0.0318154
0.116178
0.020162
0.122977
0.00376353
0.128649
-0.0180287
0.132934
-0.0444799
0.135565
-0.0745924
0.136116
-0.104442
0.134355
-0.128915
0.1306
-0.144601
0.125538
-0.151304
0.119805
-0.151215
0.113977
-0.14682
0.107932
-0.139449
0.0997661
-0.13125
0.0878925
-0.126676
0.0753696
-0.126069
0.0694634
-0.118209
0.0746613
-0.0874568
0.0885493
-0.0313081
0.105975
0.0365333
0.122676
0.0993435
0.135578
0.149317
0.142738
0.191588
0.144274
0.23552
0.142404
0.275351
0.139956
0.281799
0.138887
0.225931
0.140044
0.109979
0.142627
-0.0263234
0.143938
-0.139865
0.143544
-0.212823
0.142533
-0.241599
0.138271
-0.240002
0.129282
-0.23656
0.120014
-0.237619
0.116604
-0.203199
0.120389
-0.120821
0.127984
-0.000118625
0.133516
0.118378
0.132905
0.225167
0.127218
0.312735
0.121559
0.321667
0.122073
0.26913
0.127631
0.105049
0.13501
-0.00859072
0.142054
-0.142033
-0.166893
0.0505191
-0.00246747
0.0512251
-1.87822e-06
0.0526907
0.00316531
0.0551065
0.00655075
0.0585529
0.0103867
0.0630256
0.0147561
0.0685159
0.0194668
0.0749626
0.0241949
0.0822438
0.0285439
0.0901888
0.0320005
0.0985688
0.0339473
0.107099
0.033713
0.115444
0.0306232
0.123252
0.0240069
0.130179
0.0132357
0.136387
-0.00244438
0.141024
-0.0226665
0.144119
-0.0475743
0.145158
-0.0756316
0.143703
-0.102987
0.139785
-0.124997
0.1341
-0.138915
0.127641
-0.144845
0.121109
-0.144683
0.114895
-0.140606
0.109157
-0.133711
0.102635
-0.124728
0.0928906
-0.116931
0.0804687
-0.113647
0.0715259
-0.109267
0.0728383
-0.0887692
0.0846722
-0.0431421
0.101984
0.0192219
0.11956
0.0817675
0.133715
0.135161
0.142463
0.18284
0.145958
0.232026
0.14603
0.275279
0.144754
0.283074
0.143603
0.227082
0.143827
0.109756
0.145283
-0.0277803
0.145521
-0.140102
0.143815
-0.211117
0.141934
-0.239718
0.137879
-0.235947
0.129302
-0.227982
0.120023
-0.22834
0.116681
-0.199857
0.120685
-0.124826
0.128319
-0.00775326
0.133694
0.113004
0.132917
0.225944
0.127396
0.318257
0.12212
0.326942
0.123149
0.2681
0.129335
0.098863
0.137117
-0.0163729
0.144063
-0.148978
-0.170162
0.0811263
-0.000620422
0.0798271
0.00129734
0.0796388
0.00335359
0.0803873
0.00580228
0.082146
0.00862789
0.0850199
0.0118822
0.0890268
0.01546
0.0941147
0.019107
0.100161
0.0224974
0.106982
0.0251797
0.114332
0.0265975
0.12191
0.0261351
0.129366
0.0231672
0.136361
0.0170113
0.142475
0.00712241
0.147721
-0.00769117
0.151397
-0.0263419
0.153207
-0.0493847
0.152571
-0.0749957
0.149149
-0.0995647
0.143296
-0.119143
0.136028
-0.131648
0.128506
-0.137324
0.121467
-0.137644
0.115107
-0.134246
0.10955
-0.128154
0.104278
-0.119456
0.0970051
-0.109659
0.0862129
-0.102855
0.0756402
-0.0986939
0.0728481
-0.0859771
0.0813828
-0.0516767
0.0976109
0.00299382
0.11563
0.0637481
0.130969
0.119822
0.141435
0.172374
0.147057
0.226405
0.149217
0.273119
0.149221
0.283071
0.148076
0.228227
0.147311
0.11052
0.147611
-0.0280803
0.146837
-0.139328
0.143948
-0.208228
0.141157
-0.236927
0.13731
-0.2321
0.129294
-0.219966
0.120017
-0.219064
0.11659
-0.196429
0.120744
-0.12898
0.128485
-0.015494
0.133811
0.107678
0.133006
0.226749
0.127727
0.323536
0.122901
0.331768
0.124425
0.266577
0.131162
0.0921264
0.139374
-0.0245856
0.146207
-0.15581
-0.173374
0.113615
0.00276012
0.110998
0.00391457
0.109276
0.00507569
0.108402
0.00667591
0.108405
0.00862534
0.109455
0.0108319
0.111608
0.0133068
0.114852
0.015863
0.11912
0.0182299
0.124266
0.0200333
0.130067
0.0207963
0.136234
0.0199685
0.142413
0.0169882
0.148246
0.011178
0.153283
0.00208554
0.157273
-0.0116814
0.159682
-0.0287505
0.15995
-0.0496524
0.157505
-0.0725509
0.15221
-0.0942704
0.144739
-0.111672
0.136318
-0.123227
0.128112
-0.129117
0.120811
-0.130344
0.114512
-0.127946
0.109146
-0.122788
0.10466
-0.11497
0.0995928
-0.104591
0.0914229
-0.0946853
0.0810465
-0.0883175
0.0748995
-0.0798301
0.0791593
-0.0559365
0.0929999
-0.0108468
0.110769
0.0459794
0.127134
0.103457
0.13944
0.160068
0.147403
0.218441
0.15179
0.268731
0.153128
0.281733
0.152101
0.229254
0.150431
0.11219
0.149546
-0.027196
0.147788
-0.13757
0.143863
-0.204303
0.140156
-0.233219
0.136485
-0.228429
0.129181
-0.212661
0.11997
-0.209853
0.116283
-0.192743
0.120477
-0.133174
0.128393
-0.02341
0.133824
0.102247
0.133153
0.22742
0.128194
0.328495
0.123885
0.336077
0.125907
0.264554
0.133121
0.0849123
0.141752
-0.0332166
0.14846
-0.162518
-0.176503
0.142299
0.00648724
0.139205
0.00700883
0.136704
0.00757634
0.134856
0.00852444
0.133734
0.00974705
0.133463
0.0111029
0.13411
0.0126592
0.135687
0.0142859
0.138183
0.0157345
0.141511
0.0167052
0.145506
0.0168011
0.14992
0.015555
0.154428
0.0124794
0.158649
0.00695737
0.162473
-0.00173871
0.164747
-0.0139552
0.165468
-0.0294718
0.163916
-0.0481001
0.159607
-0.068242
0.15266
-0.0873233
0.143982
-0.102994
0.134853
-0.114097
0.126317
-0.120582
0.118949
-0.122976
0.112837
-0.121834
0.107766
-0.117716
0.10377
-0.110974
0.100315
-0.101136
0.0950196
-0.0893903
0.0864948
-0.0797927
0.0786515
-0.0719869
0.0785305
-0.0558155
0.0887462
-0.0210625
0.105167
0.0295586
0.122157
0.0864667
0.136261
0.145964
0.146584
0.208119
0.153249
0.262066
0.156093
0.278889
0.155399
0.229948
0.153131
0.114459
0.151068
-0.0251334
0.148311
-0.134812
0.143497
-0.19949
0.138912
-0.228634
0.135351
-0.224868
0.12889
-0.206201
0.119872
-0.200835
0.115759
-0.18863
0.11981
-0.137225
0.127991
-0.0315911
0.133691
0.0965474
0.133333
0.227777
0.128773
0.333056
0.125047
0.339802
0.127607
0.261995
0.135227
0.0772919
0.14423
-0.0422193
0.150797
-0.169085
-0.179535
0.161665
0.00969154
0.158881
0.00979285
0.156386
0.0100713
0.154391
0.0105193
0.152995
0.0111431
0.152204
0.0118938
0.152115
0.0127483
0.152743
0.0136582
0.154076
0.0144015
0.156048
0.0147334
0.158533
0.0143163
0.161346
0.0127421
0.164217
0.0096082
0.16668
0.00449391
0.16859
-0.00364812
0.169312
-0.0146774
0.168248
-0.0284076
0.164886
-0.0447387
0.158948
-0.0623042
0.150819
-0.0791936
0.1415
-0.0936747
0.132154
-0.104752
0.123631
-0.112059
0.116353
-0.115697
0.110435
-0.115916
0.105668
-0.112948
0.101966
-0.107273
0.0994123
-0.0985821
0.0965164
-0.0864945
0.0907625
-0.0740388
0.0831763
-0.0644006
0.0797375
-0.0523768
0.0855855
-0.0269105
0.0993658
0.0157783
0.116217
0.0696158
0.132013
0.130167
0.14491
0.195222
0.154012
0.252964
0.158209
0.274693
0.157876
0.230281
0.155372
0.116962
0.152322
-0.0220831
0.148543
-0.131034
0.142976
-0.193923
0.137582
-0.223239
0.133998
-0.221285
0.128422
-0.200624
0.119749
-0.192163
0.115093
-0.183974
0.118768
-0.1409
0.1272
-0.0400235
0.133359
0.0903893
0.133514
0.227622
0.129444
0.337126
0.126364
0.342883
0.129514
0.258844
0.137503
0.0693037
0.146789
-0.0515059
0.153194
-0.17549
-0.182464
0.169703
0.0115187
0.167723
0.0117729
0.165923
0.0118714
0.164441
0.012001
0.163345
0.0122397
0.16267
0.0125686
0.162453
0.0129654
0.162732
0.013379
0.163496
0.0136377
0.164691
0.0135384
0.166197
0.0128098
0.167839
0.0111002
0.169426
0.0080217
0.170767
0.00315295
0.171107
-0.00398801
0.170095
-0.013666
0.167436
-0.0257486
0.162694
-0.0399963
0.155846
-0.055456
0.147414
-0.0707621
0.138296
-0.0845568
0.129389
-0.0958446
0.121311
-0.103981
0.114353
-0.108739
0.108647
-0.110211
0.104101
-0.108403
0.100528
-0.1037
0.0982118
-0.0962657
0.0967204
-0.085003
0.0936117
-0.0709302
0.0876462
-0.0584351
0.0825513
-0.0472819
0.0841733
-0.0285325
0.0942235
0.00572817
0.10955
0.0542893
0.125997
0.113721
0.141054
0.180165
0.152639
0.241379
0.158525
0.268808
0.159253
0.229552
0.157118
0.119097
0.153263
-0.018228
0.148502
-0.126273
0.142395
-0.187816
0.136328
-0.217172
0.132564
-0.217521
0.127804
-0.195864
0.11961
-0.183969
0.11437
-0.178733
0.117489
-0.144019
0.126055
-0.0485886
0.132808
0.083636
0.133678
0.226752
0.130182
0.340621
0.127808
0.345257
0.131638
0.255014
0.139954
0.0609874
0.149414
-0.0609657
0.155634
-0.18171
-0.185282
0.188986
0.0132311
-0.190699
0.187706
0.0130535
0.186488
0.0130887
0.185364
0.0131254
0.184419
0.0131848
0.183708
0.0132795
0.183297
0.0133759
0.183279
0.013397
0.183727
0.0131897
0.184701
0.0125646
0.186229
0.0112823
0.188299
0.00902986
0.190823
0.00549824
0.193549
0.000426582
0.196245
-0.00668389
0.198432
-0.0158528
0.199645
-0.0269623
0.199338
-0.039689
0.197163
-0.0532808
0.193103
-0.0667021
0.187425
-0.0788789
0.180539
-0.0889584
0.172888
-0.0963303
0.164855
-0.100706
0.156786
-0.102141
0.148932
-0.100549
0.141293
-0.096061
0.134072
-0.089045
0.127596
-0.078527
0.120735
-0.0640693
0.111497
-0.0491967
0.100639
-0.0364238
0.0925488
-0.0204423
0.0904649
0.00781208
0.0936853
0.0510688
0.0995919
0.107814
0.106623
0.173133
0.114854
0.233148
0.125837
0.257824
0.14099
0.214399
0.156339
0.103748
0.166216
-0.0281048
0.169001
-0.129058
0.165223
-0.184038
0.157613
-0.209562
0.150065
-0.209974
0.142074
-0.187873
0.131538
-0.173433
0.12241
-0.169605
0.119074
-0.140684
0.120147
-0.049662
0.120125
0.083658
0.116828
0.23005
0.113271
0.344178
0.114309
0.344218
0.122291
0.247032
0.132326
0.0509522
0.141022
-0.0696616
0.144918
-0.185606
-0.185528
0.201671
0.0138472
-0.202287
0.201141
0.0135827
0.200723
0.0135072
0.200379
0.0134697
0.20015
0.0134134
0.200102
0.0133278
0.200296
0.0131818
0.200791
0.0129016
0.201629
0.0123523
0.202833
0.01136
0.204399
0.00971591
0.206259
0.00717004
0.208278
0.00347964
0.210331
-0.00162635
0.212057
-0.00840967
0.213102
-0.0168985
0.213095
-0.0269547
0.211667
-0.0382611
0.208602
-0.0502162
0.203908
-0.0620085
0.197797
-0.0727672
0.190614
-0.0817759
0.182779
-0.088495
0.174673
-0.0926002
0.166598
-0.094066
0.158803
-0.0927537
0.151325
-0.0885835
0.144184
-0.0819037
0.137779
-0.0721219
0.131714
-0.0580043
0.123986
-0.0414694
0.11378
-0.0262176
0.103972
-0.0106346
0.0990337
0.0127509
0.100257
0.0498455
0.106045
0.102026
0.114418
0.164761
0.124695
0.222871
0.138377
0.244143
0.15587
0.196906
0.172178
0.0874394
0.181499
-0.0374257
0.182948
-0.130507
0.177769
-0.178858
0.168829
-0.200622
0.16023
-0.201375
0.151882