/*--------------------------------*- C++ -*----------------------------------*\
| =========                 |                                                 |
| \\      /  F ield         | OpenFOAM: The Open Source CFD Toolbox           |
|  \\    /   O peration     | Version:  2512                                  |
|   \\  /    A nd           | Website:  www.openfoam.com                      |
|    \\/     M anipulation  |                                                 |
\*---------------------------------------------------------------------------*/
FoamFile
{
    version     2.0;
    format      ascii;
    arch        "LSB;label=32;scalar=64";
    class       volScalarField;
    location    "130.25";
    object      p;
}
// * * * * * * * * * * * * * * * * * * * * * * * * * * * * * * * * * * * * * //

dimensions      [0 2 -2 0 0 0 0];

internalField   nonuniform List<scalar> 
13248
(
-0.461017
-0.457983
-0.454278
-0.450233
-0.446281
-0.442887
-0.440372
-0.438854
-0.43824
-0.438231
-0.438356
-0.438028
-0.436618
-0.433541
-0.428331
-0.420697
-0.410545
-0.397968
-0.383197
-0.366559
-0.348262
-0.328695
-0.306865
-0.28369
-0.470022
-0.466403
-0.462127
-0.45752
-0.452969
-0.448883
-0.445503
-0.442848
-0.440722
-0.438745
-0.436417
-0.433195
-0.428578
-0.422185
-0.413796
-0.403366
-0.391005
-0.376928
-0.361402
-0.34469
-0.327007
-0.308548
-0.289166
-0.269706
-0.4812
-0.476704
-0.47171
-0.466479
-0.46128
-0.45642
-0.452012
-0.447946
-0.443931
-0.439555
-0.434374
-0.427989
-0.420118
-0.410625
-0.399525
-0.38695
-0.373105
-0.358223
-0.342523
-0.3262
-0.309389
-0.29227
-0.27473
-0.257293
-0.494567
-0.488931
-0.483068
-0.477113
-0.47114
-0.465299
-0.459548
-0.453654
-0.447277
-0.440065
-0.431732
-0.422107
-0.411156
-0.398964
-0.385697
-0.371562
-0.356763
-0.341482
-0.325869
-0.310044
-0.294108
-0.278184
-0.262233
-0.246752
-0.509998
-0.503015
-0.496151
-0.489338
-0.482378
-0.475227
-0.467689
-0.459459
-0.450247
-0.439869
-0.428279
-0.41556
-0.401889
-0.387486
-0.372572
-0.357338
-0.341935
-0.326474
-0.311034
-0.295678
-0.280461
-0.265444
-0.250614
-0.236261
-0.527265
-0.518803
-0.510831
-0.502992
-0.494738
-0.485819
-0.475936
-0.464819
-0.452355
-0.438623
-0.423843
-0.408312
-0.392331
-0.376159
-0.359992
-0.343961
-0.328145
-0.312587
-0.297314
-0.282342
-0.267691
-0.253384
-0.239418
-0.22597
-0.546011
-0.536022
-0.526856
-0.517765
-0.507798
-0.49653
-0.483678
-0.469159
-0.453157
-0.43605
-0.418292
-0.400303
-0.382412
-0.364839
-0.347711
-0.331085
-0.314971
-0.29936
-0.284236
-0.269583
-0.255388
-0.241643
-0.22835
-0.215556
-0.565719
-0.554227
-0.54378
-0.533132
-0.520916
-0.506639
-0.490213
-0.4719
-0.452247
-0.431907
-0.411477
-0.391397
-0.371946
-0.353261
-0.335384
-0.318299
-0.301964
-0.286328
-0.271342
-0.256964
-0.243158
-0.229899
-0.21718
-0.204949
-0.585651
-0.572751
-0.560912
-0.54831
-0.533227
-0.515291
-0.49481
-0.472507
-0.449289
-0.425995
-0.403251
-0.381438
-0.36073
-0.341167
-0.32271
-0.305282
-0.288798
-0.273174
-0.258338
-0.244224
-0.230777
-0.217961
-0.205747
-0.194012
-0.60484
-0.590672
-0.577284
-0.562252
-0.543675
-0.521547
-0.496753
-0.470507
-0.443993
-0.418118
-0.393442
-0.370224
-0.348523
-0.328282
-0.309391
-0.291728
-0.275171
-0.259611
-0.244953
-0.231113
-0.218023
-0.205632
-0.193881
-0.182621
-0.622106
-0.606828
-0.591676
-0.573693
-0.551069
-0.524415
-0.495288
-0.465345
-0.435919
-0.407872
-0.38163
-0.35731
-0.334854
-0.31412
-0.294943
-0.27716
-0.260622
-0.245198
-0.230773
-0.217247
-0.204541
-0.192587
-0.181285
-0.170508
-0.636177
-0.619973
-0.602818
-0.581373
-0.554239
-0.522868
-0.489525
-0.456203
-0.424266
-0.394441
-0.36698
-0.34185
-0.318882
-0.297861
-0.278572
-0.260817
-0.244424
-0.229241
-0.215138
-0.202004
-0.18975
-0.178292
-0.167499
-0.157313
-0.362107
-0.363972
-0.365182
-0.366219
-0.367519
-0.36923
-0.371385
-0.373974
-0.37695
-0.380248
-0.38378
-0.387436
-0.39108
-0.394538
-0.397605
-0.399948
-0.401515
-0.401904
-0.400822
-0.398023
-0.393326
-0.386632
-0.377942
-0.367449
-0.375668
-0.376851
-0.377796
-0.378884
-0.380478
-0.382721
-0.385655
-0.389266
-0.393507
-0.39831
-0.40358
-0.409192
-0.414981
-0.420727
-0.426112
-0.430678
-0.434887
-0.437523
-0.43827
-0.436761
-0.432655
-0.42566
-0.415484
-0.402027
-0.388946
-0.389331
-0.38991
-0.390945
-0.392704
-0.395331
-0.398871
-0.403307
-0.408589
-0.414641
-0.421361
-0.428611
-0.436204
-0.443897
-0.451395
-0.458362
-0.463931
-0.467968
-0.469846
-0.46899
-0.464921
-0.457346
-0.446064
-0.427551
-0.401318
-0.40086
-0.40099
-0.401841
-0.403591
-0.406384
-0.410271
-0.415233
-0.421214
-0.428127
-0.435855
-0.444243
-0.453069
-0.462051
-0.470845
-0.479036
-0.485581
-0.490327
-0.492534
-0.491479
-0.486511
-0.477061
-0.462569
-0.442451
-0.412283
-0.411031
-0.410655
-0.411182
-0.412712
-0.4154
-0.419312
-0.424435
-0.430703
-0.438019
-0.446243
-0.455191
-0.464611
-0.47417
-0.483441
-0.491883
-0.498811
-0.503561
-0.505371
-0.503457
-0.497104
-0.485666
-0.46898
-0.445799
-0.421545
-0.419628
-0.418728
-0.418798
-0.419894
-0.422193
-0.425791
-0.430687
-0.436817
-0.444072
-0.452294
-0.461267
-0.470704
-0.480229
-0.48936
-0.497512
-0.503983
-0.508006
-0.508764
-0.505447
-0.497385
-0.48386
-0.465396
-0.439631
-0.429048
-0.426656
-0.425254
-0.424764
-0.425236
-0.42689
-0.42986
-0.434177
-0.439787
-0.446577
-0.454369
-0.462919
-0.471897
-0.480885
-0.489357
-0.496665
-0.502069
-0.504759
-0.503912
-0.49874
-0.48874
-0.473161
-0.453223
-0.425815
-0.434989
-0.432335
-0.430482
-0.429367
-0.42908
-0.429893
-0.431997
-0.435462
-0.440259
-0.446275
-0.453321
-0.461098
-0.469259
-0.477318
-0.484681
-0.490652
-0.494452
-0.495267
-0.492332
-0.484958
-0.47288
-0.455479
-0.434386
-0.406429
-0.439794
-0.437066
-0.434822
-0.433062
-0.431948
-0.431815
-0.432917
-0.43537
-0.439173
-0.444215
-0.450279
-0.457062
-0.464111
-0.470875
-0.476697
-0.480831
-0.482493
-0.480929
-0.475518
-0.465787
-0.451729
-0.433023
-0.411332
-0.383878
-0.444076
-0.441386
-0.438799
-0.436407
-0.434467
-0.43338
-0.433455
-0.434854
-0.437592
-0.44156
-0.446506
-0.452044
-0.457657
-0.462715
-0.466498
-0.46825
-0.467247
-0.462891
-0.454788
-0.442791
-0.427155
-0.407944
-0.386606
-0.360667
-0.448564
-0.445912
-0.442992
-0.439999
-0.437287
-0.435309
-0.434411
-0.43478
-0.436442
-0.439245
-0.44288
-0.446881
-0.450653
-0.453504
-0.454707
-0.45357
-0.449519
-0.442179
-0.431418
-0.417404
-0.400576
-0.381459
-0.361284
-0.337949
-0.454001
-0.451265
-0.447977
-0.444421
-0.441017
-0.438249
-0.436474
-0.435871
-0.436425
-0.437929
-0.439991
-0.442068
-0.44351
-0.44363
-0.441778
-0.437423
-0.430214
-0.420023
-0.406934
-0.391268
-0.373391
-0.354047
-0.333932
-0.313157
-0.353725
-0.33556
-0.317656
-0.301397
-0.288436
-0.280265
-0.277857
-0.280689
-0.287255
-0.294487
-0.297935
-0.294479
-0.281023
-0.256707
-0.223748
-0.187543
-0.154363
-0.128804
-0.112754
-0.105814
-0.106864
-0.115986
-0.134228
-0.159701
-0.184157
-0.195457
-0.187478
-0.162847
-0.13197
-0.104112
-0.0839576
-0.0722517
-0.0674698
-0.0690405
-0.0786043
-0.0953693
-0.111124
-0.114745
-0.104508
-0.0869274
-0.0710706
-0.06079
-0.0556803
-0.0576905
-0.0666439
-0.0755474
-0.07643
-0.0678921
-0.0566273
-0.0473384
-0.0400119
-0.037651
-0.0361187
-0.0348699
-0.0335271
-0.0299259
-0.021639
-0.0158437
-0.0100928
-0.00425347
-0.385198
-0.35945
-0.333804
-0.308501
-0.285301
-0.266255
-0.25312
-0.246676
-0.245187
-0.249155
-0.250186
-0.247484
-0.236843
-0.21819
-0.192319
-0.163662
-0.13757
-0.11817
-0.10725
-0.104544
-0.109379
-0.122473
-0.144981
-0.174272
-0.200993
-0.211536
-0.201883
-0.173784
-0.139281
-0.108299
-0.0854507
-0.0712809
-0.0642075
-0.0633314
-0.0699269
-0.083753
-0.0976915
-0.101741
-0.0934185
-0.0789879
-0.0664057
-0.0589999
-0.0564775
-0.0610926
-0.0727854
-0.0834829
-0.0846352
-0.0742086
-0.0603587
-0.0488403
-0.0394086
-0.0353744
-0.0319621
-0.0303588
-0.0290488
-0.0264624
-0.0199923
-0.0154641
-0.0113034
-0.00522534
-0.411334
-0.374226
-0.343783
-0.310994
-0.278786
-0.249657
-0.226167
-0.210161
-0.201193
-0.198078
-0.196818
-0.194996
-0.186809
-0.174766
-0.156401
-0.13564
-0.116984
-0.104021
-0.0983574
-0.0998538
-0.108364
-0.125159
-0.151394
-0.183901
-0.212714
-0.224624
-0.212394
-0.181667
-0.144414
-0.110982
-0.0859487
-0.0696578
-0.0605104
-0.0573607
-0.0610774
-0.0719265
-0.0839907
-0.0883169
-0.081923
-0.0705789
-0.0611815
-0.0566274
-0.0567443
-0.0639975
-0.0784074
-0.0909049
-0.0923925
-0.0801536
-0.0637387
-0.0500694
-0.0387006
-0.0331833
-0.0280218
-0.025996
-0.0245642
-0.0229423
-0.0182994
-0.0150551
-0.0125085
-0.00620984
-0.421042
-0.386053
-0.347991
-0.308374
-0.268823
-0.231348
-0.198559
-0.174546
-0.157474
-0.146914
-0.142613
-0.141632
-0.138455
-0.129055
-0.117743
-0.104662
-0.0932496
-0.0865093
-0.0857876
-0.091106
-0.102882
-0.122876
-0.152291
-0.187577
-0.218323
-0.231317
-0.218433
-0.186236
-0.147231
-0.112148
-0.0855362
-0.0675653
-0.056635
-0.0514468
-0.0524894
-0.0604285
-0.0705303
-0.074929
-0.0703506
-0.0619172
-0.0555097
-0.053684
-0.056377
-0.0661852
-0.0832407
-0.0975513
-0.0994711
-0.0855931
-0.0667205
-0.0510119
-0.0378903
-0.0310894
-0.0243311
-0.0218212
-0.0201264
-0.0194015
-0.0165776
-0.0146183
-0.0136966
-0.00719881
-0.422171
-0.385925
-0.344702
-0.301086
-0.25667
-0.213752
-0.175099
-0.143051
-0.117998
-0.0986866
-0.0938246
-0.0885976
-0.0864942
-0.0816746
-0.0777073
-0.0716327
-0.066831
-0.0656988
-0.0692852
-0.0779305
-0.0925648
-0.115332
-0.147458
-0.185135
-0.217719
-0.231995
-0.219842
-0.187461
-0.147831
-0.111958
-0.0843703
-0.065172
-0.0527946
-0.0458709
-0.044501
-0.0496573
-0.0577552
-0.062009
-0.0590232
-0.0532074
-0.0494882
-0.0501612
-0.0552685
-0.067469
-0.0870472
-0.10315
-0.105613
-0.0903976
-0.0692692
-0.0516703
-0.0369843
-0.0290938
-0.0209111
-0.0178698
-0.0157884
-0.0158768
-0.0148431
-0.0141555
-0.0148542
-0.008183
-0.414043
-0.377191
-0.336017
-0.291641
-0.245375
-0.199693
-0.157084
-0.119483
-0.0882699
-0.0646456
-0.0507136
-0.0426802
-0.039911
-0.0405228
-0.0384065
-0.0375601
-0.0382945
-0.0418404
-0.049105
-0.0606982
-0.0779256
-0.103131
-0.137476
-0.17708
-0.2114
-0.227251
-0.216708
-0.185401
-0.146348
-0.110573
-0.0826028
-0.0626091
-0.0491244
-0.0407821
-0.0373536
-0.0399353
-0.0460276
-0.049942
-0.0482407
-0.0446449
-0.0432149
-0.0460762
-0.0533645
-0.0677229
-0.0896228
-0.107456
-0.110633
-0.0944643
-0.071361
-0.0520485
-0.0359854
-0.0271858
-0.017772
-0.0141692
-0.0115994
-0.0123996
-0.0131101
-0.0136662
-0.0159661
-0.009154
-0.398564
-0.36225
-0.323793
-0.281728
-0.236572
-0.190934
-0.147099
-0.106754
-0.071451
-0.0427918
-0.0220297
-0.00857149
-0.00183071
-0.000477317
-0.00116144
-0.00406396
-0.00874243
-0.0158961
-0.0262486
-0.0404956
-0.0601225
-0.0874546
-0.123493
-0.164434
-0.200188
-0.217807
-0.209504
-0.180344
-0.142987
-0.108162
-0.0803742
-0.0599784
-0.0457016
-0.0362459
-0.0311266
-0.0314314
-0.0355908
-0.0390125
-0.0382716
-0.0364359
-0.0368233
-0.0415019
-0.0506591
-0.066867
-0.0908353
-0.110306
-0.114386
-0.097701
-0.072972
-0.0521513
-0.0348982
-0.0253486
-0.0149055
-0.0107354
-0.00760337
-0.00899459
-0.0113909
-0.0131492
-0.0170181
-0.0101053
-0.378109
-0.34345
-0.309527
-0.271895
-0.230156
-0.187027
-0.144566
-0.1041
-0.0670024
-0.03477
-0.00864913
0.0107634
0.0231846
0.028924
0.0295476
0.0259393
0.0195571
0.0101858
-0.00247222
-0.0189889
-0.0407573
-0.0698341
-0.106966
-0.148569
-0.18524
-0.204507
-0.198836
-0.172663
-0.137952
-0.104848
-0.0777681
-0.0573347
-0.0425597
-0.0322797
-0.0258265
-0.024192
-0.026559
-0.0293936
-0.0293389
-0.0287673
-0.0304736
-0.0365412
-0.0472045
-0.0648928
-0.0906388
-0.111607
-0.11677
-0.100032
-0.0740895
-0.0519909
-0.033733
-0.0235815
-0.0122997
-0.00757005
-0.00383652
-0.00567905
-0.00969682
-0.0126038
-0.0179951
-0.0110341
-0.355313
-0.323473
-0.294895
-0.262437
-0.225297
-0.186267
-0.146988
-0.108376
-0.0715973
-0.0379825
-0.00870584
0.0153753
0.0334921
0.0450543
0.0502259
0.0489581
0.0433717
0.0336457
0.0199161
0.00187341
-0.02151
-0.0517794
-0.0893507
-0.130877
-0.167713
-0.188253
-0.185411
-0.162875
-0.131591
-0.10087
-0.0749775
-0.0548384
-0.0398234
-0.0289703
-0.0214991
-0.0182606
-0.0189919
-0.0211509
-0.0215637
-0.021793
-0.0243363
-0.0313334
-0.0430457
-0.0618239
-0.0890611
-0.111346
-0.1177
-0.101418
-0.0747471
-0.0516294
-0.032525
-0.0219068
-0.00998157
-0.00467772
-0.000319583
-0.0024626
-0.00803808
-0.0120295
-0.0188812
-0.0119471
-0.332984
-0.305118
-0.281654
-0.253825
-0.221374
-0.186999
-0.151687
-0.116016
-0.0809655
-0.047631
-0.0172127
0.00931569
0.0311538
0.0477301
0.0588623
0.0620036
0.0594299
0.0515436
0.0383869
0.0199897
-0.00406057
-0.0345945
-0.0716721
-0.112279
-0.148563
-0.169904
-0.170123
-0.151788
-0.124595
-0.0968144
-0.0725104
-0.0529167
-0.0378196
-0.0265471
-0.0182672
-0.0136818
-0.0129247
-0.0143248
-0.0148195
-0.0156748
-0.0185333
-0.0259959
-0.0383749
-0.0578365
-0.0861066
-0.109561
-0.117177
-0.101847
-0.075015
-0.0511721
-0.0313353
-0.0203215
-0.00798241
-0.00210871
0.0029695
0.000654987
-0.00642552
-0.0114242
-0.0196613
-0.012848
-0.313375
-0.290876
-0.271645
-0.247323
-0.219162
-0.189347
-0.158052
-0.125696
-0.0929895
-0.0608351
-0.030235
-0.00213867
0.0224419
0.0426929
0.0584975
0.0650459
0.0664524
0.0623956
0.0517257
0.0344858
0.0108552
-0.0191511
-0.0551837
-0.0942079
-0.129151
-0.15043
-0.153236
-0.139379
-0.116885
-0.0925667
-0.0702279
-0.0514116
-0.0363519
-0.0247868
-0.0158869
-0.0101613
-0.00804392
-0.00873755
-0.00928453
-0.0107007
-0.0133304
-0.0206644
-0.0330915
-0.0528626
-0.0821014
-0.106473
-0.11515
-0.101125
-0.0747207
-0.0504995
-0.030095
-0.018708
-0.00613857
0.00013845
0.00587853
0.00367587
-0.0048622
-0.0107845
-0.0203254
-0.0136696
-0.295304
-0.280355
-0.264012
-0.242057
-0.217884
-0.192539
-0.165351
-0.136462
-0.106656
-0.0767954
-0.0477821
-0.0203342
0.00471189
0.0265601
0.0432936
0.0577642
0.0644169
0.0641407
0.0573609
0.0433144
0.0222205
-0.00532681
-0.0385044
-0.0744513
-0.107123
-0.127562
-0.132242
-0.123131
-0.105652
-0.0851356
-0.0652474
-0.0477926
-0.0333102
-0.0219397
-0.0129389
-0.00657866
-0.00339087
-0.00347553
-0.00417728
-0.00667484
-0.00872368
-0.0157844
-0.0279476
-0.0474325
-0.0768416
-0.101785
-0.111726
-0.0988398
-0.073218
-0.0489334
-0.0283604
-0.0168305
-0.00404451
0.00239799
0.00826462
0.00655941
-0.00338465
-0.0101084
-0.0208514
-0.0143536
-0.268984
-0.268188
-0.25122
-0.228484
-0.205308
-0.181791
-0.156855
-0.130326
-0.102794
-0.0750366
-0.047825
-0.0218582
0.00219851
0.0235979
0.0409769
0.0544274
0.0623094
0.064491
0.0600522
0.0479591
0.0283058
0.00188017
-0.0304134
-0.0656047
-0.0966806
-0.11646
-0.119208
-0.110173
-0.0941385
-0.0756333
-0.0577071
-0.0418384
-0.028446
-0.0177478
-0.00909674
-0.00269676
0.00105946
0.00162663
0.00138813
0.00242678
-0.00247128
-0.00888062
-0.0206674
-0.0404462
-0.0714463
-0.0984917
-0.110277
-0.0973205
-0.0710601
-0.0465127
-0.0260859
-0.0148403
-0.0017985
0.00478195
0.0114362
0.00957081
-0.00188846
-0.0093871
-0.0212695
-0.015058
-0.24374
-0.246627
-0.231294
-0.209405
-0.187716
-0.16659
-0.144571
-0.121063
-0.0964867
-0.0715971
-0.0470943
-0.023601
-0.00172314
0.0179052
0.0342079
0.0471136
0.055351
0.0582814
0.0549741
0.0445357
0.0269491
0.00295066
-0.0262872
-0.0575255
-0.0842308
-0.0998683
-0.102102
-0.0943906
-0.0810083
-0.0654516
-0.0500837
-0.0361384
-0.0240172
-0.0141181
-0.00595249
0.000335054
0.00436009
0.00524477
0.00507367
0.00507798
0.00166213
-0.00395207
-0.0150119
-0.0345528
-0.0662619
-0.0941887
-0.106189
-0.0935891
-0.0676099
-0.0435814
-0.0236442
-0.0126729
0.000282999
0.00664775
0.0138037
0.0118615
-0.000650645
-0.00879605
-0.0214802
-0.0154688
-0.221201
-0.224358
-0.21157
-0.191999
-0.172321
-0.153457
-0.134053
-0.113305
-0.0914587
-0.0692112
-0.0472295
-0.0260864
-0.00630169
0.0115884
0.0267655
0.0386989
0.0464758
0.0494219
0.0467536
0.0377738
0.0225062
0.0017677
-0.022942
-0.0485182
-0.0700308
-0.0827991
-0.085172
-0.0795172
-0.0689953
-0.056213
-0.0431081
-0.0308582
-0.0198893
-0.0107129
-0.00301724
0.0030603
0.00722352
0.00839952
0.0083267
0.00804374
0.00516393
-0.000132643
-0.0108371
-0.0300569
-0.0611469
-0.0883004
-0.100256
-0.0886092
-0.0635254
-0.0403242
-0.021035
-0.0104137
0.00232804
0.00842286
0.0159624
0.0137645
0.000401444
-0.00826407
-0.0214467
-0.0157075
-0.199734
-0.203145
-0.192887
-0.175939
-0.158351
-0.141494
-0.124371
-0.106136
-0.0868599
-0.0671256
-0.0475505
-0.0286453
-0.0108643
0.00527089
0.0190931
0.0299899
0.0372603
0.0402974
0.0384499
0.0312081
0.0186654
0.0016705
-0.0183155
-0.0388397
-0.0562138
-0.0669614
-0.069741
-0.065948
-0.0578514
-0.0474778
-0.0364183
-0.0257666
-0.0159363
-0.00749267
-0.000289102
0.00550599
0.00971534
0.0111941
0.0113454
0.0110002
0.00854518
0.00355587
-0.00687068
-0.0253876
-0.0550072
-0.0811703
-0.0931802
-0.0825212
-0.0587461
-0.0366841
-0.0182596
-0.00805633
0.0043491
0.010126
0.0179262
0.0154847
0.00139878
-0.00767076
-0.0211609
-0.0157759
-0.179604
-0.183533
-0.175343
-0.160791
-0.14527
-0.13033
-0.115298
-0.0993805
-0.0825132
-0.0651514
-0.0478473
-0.03107
-0.0152415
-0.000834502
0.0116106
0.0215392
0.0283748
0.0315929
0.0306827
0.0252903
0.0155221
0.00209981
-0.0137472
-0.0300687
-0.0440578
-0.0531148
-0.0561187
-0.0538027
-0.04774
-0.0394524
-0.0302012
-0.0209936
-0.0122381
-0.00450888
0.00221263
0.00768746
0.0118613
0.0136083
0.0140436
0.0138092
0.0118349
0.0073605
-0.00245034
-0.0197593
-0.047765
-0.0730053
-0.0848205
-0.0752876
-0.0532718
-0.0326981
-0.0153469
-0.00562981
0.00634446
0.0117289
0.0196213
0.0170556
0.00240292
-0.00697214
-0.0205997
-0.0156374
-0.161529
-0.165498
-0.158885
-0.146481
-0.132974
-0.119896
-0.106805
-0.0930056
-0.0783594
-0.0632079
-0.0480329
-0.0332656
-0.0192867
-0.00649932
0.00464672
0.0136727
0.0200914
0.0234664
0.0234096
0.0196793
0.012371
0.00206857
-0.0102072
-0.0229117
-0.0340061
-0.0415239
-0.0445219
-0.0432775
-0.0388013
-0.0322141
-0.0245016
-0.0165699
-0.00881438
-0.00178211
0.00447167
0.00961297
0.013682
0.015645
0.0164136
0.0164708
0.0150204
0.0112707
0.00243314
-0.0134067
-0.0397013
-0.0637978
-0.0752562
-0.0670275
-0.0471704
-0.0284129
-0.0123296
-0.00316401
0.00830371
0.0132216
0.0210042
0.0184312
0.00342053
-0.00615026
-0.0197011
-0.0152441
-0.145024
-0.148774
-0.143503
-0.133054
-0.121445
-0.110128
-0.0988253
-0.0869473
-0.0743251
-0.0612091
-0.0480075
-0.0351063
-0.0228421
-0.0115516
-0.00162321
0.00653876
0.0125309
0.0159969
0.0166424
0.014307
0.00908705
0.00145446
-0.00777506
-0.0174014
-0.0260594
-0.0321709
-0.0349355
-0.0343487
-0.0310264
-0.0257816
-0.0193587
-0.0125385
-0.00569459
0.000666897
0.00646896
0.0112898
0.0152086
0.0173363
0.0184581
0.0189587
0.0180904
0.0151956
0.00751784
-0.00668639
-0.0309637
-0.0536932
-0.0647367
-0.0579424
-0.0405551
-0.0238937
-0.00924902
-0.000690531
0.010214
0.0146099
0.0220433
0.0195657
0.00447637
-0.00515095
-0.0183911
-0.0145481
-0.129658
-0.133347
-0.129265
-0.120541
-0.110655
-0.100957
-0.091284
-0.0811386
-0.0703428
-0.0590776
-0.047682
-0.0364955
-0.0258161
-0.0159011
-0.00710659
0.000236854
0.00580153
0.0092998
0.010509
0.00932551
0.00583813
0.000419531
-0.00627978
-0.0133113
-0.0199915
-0.0248099
-0.027152
-0.0268909
-0.0243692
-0.0201559
-0.0147925
-0.00892569
-0.00289616
0.00283085
0.00819296
0.012721
0.0164735
0.0187203
0.0201696
0.0212077
0.0210188
0.0190655
0.012679
0.000268475
-0.021777
-0.0430326
-0.0536061
-0.0483142
-0.033594
-0.019225
-0.00615112
0.00176022
0.0120596
0.0159156
0.0227289
0.0204568
0.0056458
-0.00388799
-0.0166048
-0.013505
-0.115652
-0.119257
-0.116132
-0.108893
-0.100546
-0.0923167
-0.0841147
-0.0755221
-0.066362
-0.0567626
-0.0470009
-0.0373734
-0.028182
-0.0194894
-0.0117361
-0.00515648
-1.28692e-05
0.00346607
0.00510902
0.00484494
0.00274661
-0.00090119
-0.00556284
-0.0102505
-0.0154772
-0.0191123
-0.0209252
-0.0207535
-0.018755
-0.015311
-0.0108017
-0.00574359
-0.000430809
0.00471011
0.00964181
0.0139007
0.0174967
0.0198351
0.0215586
0.0231347
0.02374
0.0228612
0.0179182
0.00727992
-0.0125895
-0.0322958
-0.0422953
-0.038495
-0.0265021
-0.0145076
-0.00308411
0.00415967
0.0138205
0.0171787
0.0230955
0.0211652
0.00704204
-0.00226424
-0.0142949
-0.0120857
-0.10303
-0.106358
-0.103976
-0.0980419
-0.0910733
-0.0841638
-0.0772775
-0.0700649
-0.0623573
-0.0542409
-0.0459346
-0.0376722
-0.029653
-0.0222383
-0.0154725
-0.00961174
-0.00488433
-0.00147671
0.000475872
0.000919589
-9.28336e-05
-0.00236758
-0.00557955
-0.00950251
-0.012353
-0.0147806
-0.016011
-0.0157701
-0.0140878
-0.011203
-0.00737094
-0.00299123
0.00169696
0.00630897
0.010824
0.0148249
0.0182812
0.0207012
0.0226479
0.0246867
0.0261069
0.0264361
0.0230024
0.0139013
-0.00397026
-0.0219714
-0.0312612
-0.0288737
-0.0195254
-0.00985609
-9.6443e-05
0.00648073
0.015473
0.018451
0.0232387
0.0218116
0.00879216
-0.0001903
-0.0114543
-0.0102921
-0.0914632
-0.0945324
-0.0927369
-0.0879808
-0.0822198
-0.0764758
-0.0707497
-0.0647504
-0.0583212
-0.0515156
-0.0445083
-0.0375035
-0.0306849
-0.0242559
-0.01835
-0.0131485
-0.00882824
-0.00553795
-0.00338501
-0.00241226
-0.00258162
-0.00374947
-0.00566342
-0.00799251
-0.00995745
-0.011484
-0.0121671
-0.0117733
-0.0102633
-0.00777574
-0.00447296
-0.000655833
0.00349146
0.00763355
0.0117535
0.0154994
0.0188205
0.021314
0.0234488
0.0258399
0.0279243
0.0293496
0.0272664
0.0194768
0.00360549
-0.0124275
-0.0209274
-0.0198323
-0.0129167
-0.00539377
0.00276291
0.0086951
0.0169916
0.0197723
0.0233173
0.0225628
0.0110075
0.0023798
-0.00814587
-0.00816904
-0.0809387
-0.0839014
-0.0827861
-0.0787955
-0.0739579
-0.069239
-0.0645205
-0.0595734
-0.0542553
-0.0485949
-0.0427331
-0.036842
-0.031059
-0.0255343
-0.0204025
-0.0158067
-0.0118824
-0.0087467
-0.00648565
-0.00513498
-0.00466891
-0.0049761
-0.00586109
-0.00707954
-0.00820023
-0.00899275
-0.00919036
-0.00860728
-0.0071749
-0.00496387
-0.00207096
0.00128421
0.00496547
0.00869276
0.0124453
0.0159377
0.019115
0.021662
0.0239405
0.0265023
0.02903
0.0311267
0.030013
0.0234691
0.00985507
-0.0039578
-0.0116687
-0.0117086
-0.00690134
-0.00124117
0.00544378
0.0107686
0.0183504
0.0211412
0.0235336
0.0235889
0.0137275
0.00539831
-0.00452478
-0.00578794
-0.0713966
-0.0741332
-0.0733896
-0.0702929
-0.0664428
-0.0624843
-0.0585914
-0.0545355
-0.0501689
-0.0455011
-0.0406386
-0.035706
-0.0308265
-0.0261147
-0.0216841
-0.0176451
-0.0141041
-0.0111536
-0.00886316
-0.00726331
-0.00633773
-0.00600477
-0.00613857
-0.00652481
-0.0069282
-0.00712251
-0.00690595
-0.00612969
-0.0047178
-0.0026973
-0.000120678
0.00285719
0.00613825
0.00949968
0.0129147
0.0161579
0.019177
0.0217371
0.0240984
0.0267201
0.0293454
0.0315857
0.0310445
0.0257462
0.0146073
0.00311111
-0.0038454
-0.00475117
-0.00163861
0.00250373
0.0078974
0.0126587
0.0195187
0.0224925
0.024081
0.0249848
0.0168455
0.00867322
-0.000857312
-0.00342872
-0.0627438
-0.0652272
-0.0647953
-0.0623589
-0.0592274
-0.0560549
-0.0529122
-0.0496294
-0.04608
-0.0422612
-0.0382518
-0.0341521
-0.0300613
-0.026071
-0.0222683
-0.0187391
-0.0155672
-0.0128255
-0.0105698
-0.00882668
-0.00758881
-0.00680142
-0.00637492
-0.00616459
-0.00600491
-0.00572332
-0.00516613
-0.00421319
-0.00279242
-0.000904287
0.0014269
0.00409634
0.00703463
0.0100722
0.0131779
0.0161767
0.0190214
0.0215452
0.0239127
0.0264613
0.0289415
0.0309626
0.0306976
0.0265453
0.0178037
0.00853502
0.00241266
0.000945685
0.00280147
0.00577964
0.0100835
0.0143217
0.0204581
0.0236861
0.0250372
0.0266856
0.0200701
0.0118555
0.00252065
-0.00131253
-0.0548636
-0.0571235
-0.0569454
-0.0550563
-0.0525545
-0.0500147
-0.0475008
-0.0448719
-0.0420148
-0.0389163
-0.0356343
-0.0322506
-0.0288441
-0.0254847
-0.0222396
-0.0191751
-0.0163557
-0.0138389
-0.0116693
-0.00987097
-0.00844354
-0.00735325
-0.00653622
-0.00589483
-0.00531497
-0.00467034
-0.00384577
-0.00274528
-0.00130619
0.000485907
0.00262324
0.00503826
0.0076833
0.0104321
0.0132529
0.0160124
0.0186676
0.0211015
0.0234016
0.0257695
0.0279727
0.0296343
0.0294691
0.0262746
0.0196193
0.0123532
0.00716617
0.00543734
0.00642856
0.00856048
0.0119735
0.0157225
0.02114
0.0245672
0.0262313
0.0283845
0.0229598
0.0145348
0.00531018
0.00043354
-0.0477227
-0.0497772
-0.0497909
-0.0483481
-0.0463699
-0.0443532
-0.0423617
-0.0402777
-0.038
-0.0355085
-0.0328447
-0.0300724
-0.0272532
-0.0244417
-0.0216888
-0.019045
-0.0165594
-0.0142758
-0.0122316
-0.0104503
-0.00893139
-0.00765535
-0.00658183
-0.00564578
-0.00476962
-0.00386234
-0.00284028
-0.00162816
-0.000174873
0.00154092
0.0035202
0.00572209
0.0081136
0.0106038
0.0131623
0.0156871
0.0181423
0.0204399
0.0226059
0.0247324
0.0266191
0.0279234
0.0277814
0.0253572
0.020401
0.0148377
0.0106174
0.00887025
0.00930385
0.0108459
0.0135443
0.0168378
0.0215589
0.0250417
0.0272349
0.0295568
0.025029
0.016411
0.00735254
0.00172998
-0.0412756
-0.0431225
-0.0432711
-0.0421884
-0.0406424
-0.0390585
-0.0374982
-0.0358644
-0.034067
-0.032082
-0.0299378
-0.0276831
-0.0253657
-0.0230274
-0.0207067
-0.0184416
-0.0162682
-0.0142203
-0.0123344
-0.0106156
-0.00908081
-0.00771306
-0.00649088
-0.00537089
-0.0043015
-0.00321856
-0.0020633
-0.000777993
0.000676728
0.00232399
0.00416831
0.00618704
0.0083566
0.010614
0.0129311
0.0152292
0.0174764
0.0195995
0.0215896
0.0234593
0.0250468
0.0260566
0.0259286
0.0241194
0.020495
0.0163261
0.0130067
0.0114089
0.011508
0.0126522
0.0147813
0.0176481
0.0217014
0.0250683
0.0276097
0.0297213
0.0259189
0.0173951
0.00864923
0.00258765
-0.0354412
-0.0370904
-0.0373337
-0.0365408
-0.0353489
-0.0341201
-0.032913
-0.0316475
-0.0302447
-0.0286786
-0.0269675
-0.0251479
-0.0232564
-0.0213247
-0.0193813
-0.0174541
-0.0155702
-0.0137557
-0.012033
-0.0104251
-0.00892953
-0.0075438
-0.00625673
-0.00504014
-0.00386142
-0.00267628
-0.00144493
-0.000124237
0.0013144
0.00289278
0.0046156
0.00647204
0.00844488
0.0104911
0.0125849
0.0146653
0.0167025
0.01863
0.0204302
0.0220554
0.0233859
0.0241794
0.0240837
0.0227633
0.0201648
0.0171051
0.014563
0.013207
0.0131274
0.0140065
0.0156847
0.0181405
0.0215443
0.0246412
0.027145
0.028726
0.0255855
0.0175695
0.00929563
0.00306582
-0.0301605
-0.0316293
-0.0319363
-0.0313733
-0.030468
-0.0295278
-0.0286072
-0.0276406
-0.0265592
-0.0253367
-0.0239839
-0.0225276
-0.0209955
-0.0194112
-0.0177955
-0.0161683
-0.0145513
-0.0129661
-0.011423
-0.00993905
-0.00852163
-0.00717142
-0.00588228
-0.00463674
-0.00341536
-0.00218829
-0.00092987
0.00039129
0.0017945
0.00329865
0.0049069
0.00661529
0.00841051
0.0102631
0.0121501
0.0140232
0.0158566
0.0175881
0.0191947
0.0206015
0.0217265
0.0223743
0.0223337
0.021402
0.0195799
0.0173855
0.0154894
0.0144092
0.0142507
0.0149446
0.0162652
0.0183216
0.0210951
0.0238072
0.0259304
0.0268474
0.0242693
0.0170878
0.00942036
0.00324293
-0.0253924
-0.0266928
-0.0270364
-0.0266529
-0.0259778
-0.0252705
-0.0245805
-0.0238543
-0.0230326
-0.0220898
-0.0210313
-0.0198766
-0.018646
-0.0173571
-0.0160246
-0.0146629
-0.0132874
-0.0119118
-0.0105494
-0.00920869
-0.00789909
-0.00662263
-0.00537763
-0.00415412
-0.00294158
-0.00172057
-0.000475611
0.000815382
0.00216438
0.00358638
0.00508254
0.00665241
0.00828436
0.00995823
0.0116544
0.0133333
0.0149741
0.0165174
0.0179411
0.0191617
0.0201277
0.0206845
0.0207129
0.0200922
0.0188504
0.0173198
0.0159455
0.0151333
0.014958
0.0155108
0.0165429
0.0182189
0.020389
0.0224867
0.0241077
0.0244989
0.0223285
0.0161284
0.00916231
0.00320609
-0.0210897
-0.0222333
-0.0225932
-0.0223488
-0.0218574
-0.0213367
-0.0208309
-0.0202966
-0.0196831
-0.0189664
-0.0181482
-0.0172422
-0.0162633
-0.0152241
-0.0141348
-0.0130055
-0.0118471
-0.0106688
-0.00948032
-0.00828899
-0.00710328
-0.00592592
-0.00475768
-0.00359327
-0.00242801
-0.00124994
-5.06578e-05
0.0011847
0.00246256
0.00379397
0.00517801
0.00661542
0.00809586
0.00960468
0.011125
0.0126244
0.0140857
0.0154543
0.0167128
0.01778
0.0186253
0.0191294
0.0192301
0.0188557
0.0180444
0.0170166
0.0160514
0.0154739
0.0153179
0.0157563
0.0165493
0.0178702
0.0195011
0.021077
0.0221462
0.0220297
0.020101
0.0148697
0.00865425
0.00303748
-0.0172082
-0.0182091
-0.0185711
-0.0184331
-0.0180872
-0.0177148
-0.017355
-0.0169727
-0.0165249
-0.0159897
-0.0153664
-0.0146644
-0.0138945
-0.0130653
-0.0121838
-0.0112563
-0.0102906
-0.00929341
-0.00827106
-0.00722915
-0.00617481
-0.00511137
-0.00404094
-0.00296098
-0.00187033
-0.000762172
0.000367045
0.00152683
0.00271953
0.00395266
0.0052237
0.00653299
0.00787128
0.00922721
0.0105864
0.0119215
0.0132182
0.0144295
0.0155422
0.0164836
0.0172373
0.0177127
0.0178804
0.0176994
0.0172047
0.0165496
0.0158974
0.0155121
0.0153907
0.015732
0.0163217
0.0173192
0.0184803
0.0195611
0.0201607
0.0196463
0.0178385
0.0134635
0.00800047
0.00280027
-0.0137128
-0.0145842
-0.0149376
-0.0148799
-0.0146482
-0.0143929
-0.0141479
-0.0138851
-0.0135682
-0.0131778
-0.0127116
-0.012176
-0.0115786
-0.010925
-0.0102199
-0.009467
-0.00867103
-0.00783711
-0.00696995
-0.0060729
-0.00515122
-0.00420853
-0.00324777
-0.00226805
-0.00127003
-0.000250262
0.000791697
0.00186135
0.00295846
0.00408744
0.00524452
0.00642937
0.00763348
0.00884732
0.0100591
0.0112453
0.0123935
0.0134644
0.0144494
0.0152879
0.0159707
0.0164302
0.0166542
0.0166205
0.0163554
0.0159706
0.0155545
0.0153171
0.0152302
0.0154861
0.0159017
0.0166089
0.017376
0.0180148
0.0182371
0.0174504
0.0156967
0.0120247
0.00727543
0.00253548
-0.0105707
-0.0113253
-0.0116626
-0.0116645
-0.011522
-0.0113585
-0.0112032
-0.0110336
-0.0108195
-0.010544
-0.0102038
-0.00980319
-0.00934733
-0.00883995
-0.00828365
-0.00768048
-0.00703297
-0.00634466
-0.00561949
-0.00485922
-0.00406697
-0.0032459
-0.00239951
-0.00152806
-0.000633002
0.000287127
0.00123094
0.00220116
0.00319581
0.00421697
0.00526028
0.00632429
0.00740147
0.00848325
0.00955944
0.010611
0.0116274
0.0125743
0.0134466
0.0141987
0.0148248
0.0152729
0.015539
0.0156128
0.0155109
0.0153196
0.015076
0.0149452
0.0148848
0.0150633
0.0153311
0.0157839
0.0162302
0.0165022
0.0164245
0.015473
0.013753
0.0106335
0.00653321
0.00226807
-0.0077524
-0.00840233
-0.00871926
-0.00876463
-0.00869125
-0.00859933
-0.00851353
-0.00841611
-0.00828228
-0.0080973
-0.00785777
-0.00756614
-0.00722595
-0.00683952
-0.00640802
-0.00593244
-0.00541383
-0.00485405
-0.00425625
-0.00362199
-0.00295259
-0.0022499
-0.00151736
-0.000756169
3.18171e-05
0.000846995
0.00168719
0.00255319
0.00344214
0.00435442
0.00528541
0.00623285