/*--------------------------------*- C++ -*----------------------------------*\
| =========                 |                                                 |
| \\      /  F ield         | OpenFOAM: The Open Source CFD Toolbox           |
|  \\    /   O peration     | Version:  2512                                  |
|   \\  /    A nd           | Website:  www.openfoam.com                      |
|    \\/     M anipulation  |                                                 |
\*---------------------------------------------------------------------------*/
FoamFile
{
    version     2.0;
    format      ascii;
    arch        "LSB;label=32;scalar=64";
    class       surfaceScalarField;
    location    "130.25";
    object      phi;
}
// * * * * * * * * * * * * * * * * * * * * * * * * * * * * * * * * * * * * * //

dimensions      [0 3 -1 0 0 0 0];

oriented        oriented;

internalField   nonuniform List<scalar> 
26232
(
0.000118539
0.00100814
-0.00112668
0.000725371
0.00173795
-0.00234478
0.00201856
0.00130575
-0.00259895
0.00417043
-0.000265996
-0.00188587
0.00734453
-0.00297261
-0.000201483
0.0116948
-0.0068108
0.00246057
0.0173514
-0.0117623
0.00610574
0.0243973
-0.0177754
0.0107294
0.0328402
-0.024748
0.0163052
0.0425868
-0.0325185
0.0227719
0.0534309
-0.0408666
0.0300225
0.0650574
-0.0495263
0.0378997
0.0770669
-0.0582088
0.0461994
0.0890156
-0.0666308
0.0546821
0.100466
-0.0745428
0.0630922
0.11104
-0.0817539
0.0711804
0.120459
-0.088148
0.0787283
0.128579
-0.0936895
0.0855702
0.135389
-0.0984153
0.091605
0.140995
-0.102424
0.096818
0.145584
-0.105817
0.101229
0.149316
-0.108787
0.105054
0.152133
-0.111093
0.108277
-0.113645
0.111764
0.154014
0.000157799
0.000850342
0.000916891
0.000978857
0.00251634
-0.000293696
0.00516627
-0.00291593
0.00905436
-0.00686071
0.0143315
-0.0120879
0.0210839
-0.0185147
0.0293011
-0.0259926
0.03885
-0.034297
0.0494668
-0.0431353
0.0607724
-0.0521721
0.0723116
-0.0610655
0.083609
-0.0695062
0.0942292
-0.0772511
0.103832
-0.0841458
0.11221
-0.0901321
0.119303
-0.0952408
0.125185
-0.0995717
0.130035
-0.103265
0.134084
-0.106473
0.137596
-0.109329
0.140765
-0.111956
0.144017
-0.114345
-0.116979
0.147351
0.000233607
0.000616736
0.00123142
-1.89572e-05
0.00325855
-0.00232082
0.00654393
-0.0062013
0.0112689
-0.0115857
0.0175355
-0.0183545
0.025328
-0.0263073
0.0344846
-0.0351492
0.0446924
-0.0445048
0.0555157
-0.0539587
0.0664522
-0.0631085
0.0770041
-0.0716175
0.0867496
-0.0792516
0.0953957
-0.0858973
0.102806
-0.0915565
0.108999
-0.0963242
0.114112
-0.100354
0.118362
-0.103822
0.12199
-0.106894
0.125225
-0.109708
0.128255
-0.112358
0.131222
-0.114924
0.134249
-0.117371
-0.120014
0.137283
0.000340445
0.000276291
0.00164932
-0.00132783
0.00419822
-0.00486973
0.00820525
-0.0102083
0.0138016
-0.0171821
0.020985
-0.0255378
0.0295828
-0.0349051
0.0392487
-0.0448151
0.0495009
-0.054757
0.059796
-0.0642538
0.0696182
-0.0729307
0.0785585
-0.0805578
0.0863662
-0.0870592
0.0929625
-0.0924937
0.0984199
-0.0970139
0.102916
-0.10082
0.106676
-0.104115
0.10993
-0.107076
0.112874
-0.109838
0.115661
-0.112495
0.118407
-0.115104
0.121188
-0.117705
0.1241
-0.120283
-0.123052
0.127138
0.000470525
-0.000194235
0.00214173
-0.00299904
0.00526611
-0.00799411
0.0100125
-0.0149547
0.0164103
-0.0235798
0.0242996
-0.0334272
0.0333199
-0.0439254
0.0429537
-0.0544489
0.0526187
-0.0644219
0.0617749
-0.07341
0.0700153
-0.0811711
0.0771151
-0.0876576
0.0830339
-0.092978
0.0878788
-0.0973385
0.0918468
-0.100982
0.0951658
-0.104139
0.0980492
-0.106998
0.100671
-0.109698
0.103161
-0.112328
0.105611
-0.114944
0.108082
-0.117575
0.110616
-0.120239
0.11326
-0.122927
-0.125755
0.115962
0.00061687
-0.000811105
0.0026782
-0.00506037
0.00638587
-0.0117018
0.0118139
-0.0203827
0.0188391
-0.0306051
0.0271106
-0.0416987
0.0360896
-0.0529043
0.0451537
-0.0635131
0.0537272
-0.0729954
0.0613861
-0.0810688
0.0679103
-0.0876954
0.0732775
-0.0930248
0.0776138
-0.0973143
0.0811267
-0.100851
0.0840429
-0.103898
0.0865656
-0.106661
0.0888542
-0.109287
0.0910231
-0.111867
0.0931492
-0.114454
0.0952838
-0.117079
0.097462
-0.119753
0.0997079
-0.122485
0.102051
-0.12527
-0.128169
0.104466
0.000773229
-0.00158433
0.00322802
-0.00751516
0.0074781
-0.0159519
0.0134558
-0.0263604
0.0208485
-0.0379977
0.0291158
-0.049966
0.037598
-0.0613865
0.0456681
-0.0715832
0.0528606
-0.080188
0.0589348
-0.087143
0.0638649
-0.0926254
0.0677822
-0.0969421
0.070899
-0.100431
0.0734424
-0.103395
0.0756106
-0.106066
0.0775554
-0.108606
0.0793823
-0.111114
0.0811599
-0.113644
0.0829321
-0.116227
0.0847278
-0.118874
0.0865669
-0.121593
0.0884639
-0.124382
0.0904352
-0.127241
-0.130192
0.0924578
0.000932635
-0.00251697
0.00375813
-0.0103407
0.00846118
-0.0206549
0.0147933
-0.0326925
0.0222424
-0.0454468
0.0301222
-0.0578458
0.0377418
-0.0690061
0.0445665
-0.0784079
0.0503041
-0.0859256
0.0549016
-0.0917404
0.0584811
-0.096205
0.0612556
-0.0997165
0.0634544
-0.10263
0.0652771
-0.105217
0.066874
-0.107663
0.0683474
-0.11008
0.0697621
-0.112528
0.0711581
-0.11504
0.0725607
-0.117629
0.0739874
-0.120301
0.0754512
-0.123056
0.0769631
-0.125894
0.0785339
-0.128812
-0.13181
0.0801524
0.00108661
-0.00360358
0.00423266
-0.0134867
0.00925564
-0.0256779
0.0157052
-0.0391421
0.0228948
-0.0526364
0.0300671
-0.0650182
0.0365918
-0.0755308
0.0420902
-0.0839063
0.0464523
-0.0902877
0.0497736
-0.0950617
0.0522608
-0.0986921
0.0541473
-0.101603
0.055639
-0.104122
0.056891
-0.106469
0.0580073
-0.10878
0.0590525
-0.111125
0.060065
-0.113541
0.0610681
-0.116043
0.0620774
-0.118639
0.0631045
-0.121328
0.0641583
-0.12411
0.0652469
-0.126982
0.0663767
-0.129942
-0.132977
0.0675429
0.00122506
-0.00482864
0.0046152
-0.0168769
0.00979285
-0.0308555
0.0161105
-0.0454597
0.0227624
-0.0592883
0.029005
-0.0712607
0.0343359
-0.0808617
0.0385514
-0.0881218
0.0416944
-0.0934308
0.0439541
-0.0973213
0.0455665
-0.100305
0.0467478
-0.102784
0.0476635
-0.105037
0.0484247
-0.107231
0.0490993
-0.109454
0.0497265
-0.111752
0.050329
-0.114143
0.0509215
-0.116636
0.0515141
-0.119231
0.0521153
-0.121929
0.0527319
-0.124727
0.0533703
-0.127621
0.0540351
-0.130607
-0.133669
0.0547277
0.00133786
-0.00616649
0.00487444
-0.0204134
0.0100254
-0.0360065
0.0159775
-0.0514118
0.0218784
-0.0651893
0.0270707
-0.076453
0.0312122
-0.0850032
0.0342575
-0.0911672
0.0363572
-0.0955304
0.0377429
-0.0987071
0.0386432
-0.101205
0.0392388
-0.10338
0.0396533
-0.105452
0.0399621
-0.107539
0.0402078
-0.1097
0.0404139
-0.111958
0.0405947
-0.114324
0.0407596
-0.116801
0.0409164
-0.119388
0.0410712
-0.122084
0.0412294
-0.124885
0.0413953
-0.127787
0.041571
-0.130782
-0.133858
0.0417601
0.00141921
-0.0075857
0.00499177
-0.023986
0.00993476
-0.0409495
0.0153238
-0.0568008
0.0203345
-0.0702
0.0244422
-0.0805607
0.0274648
-0.0880257
0.0294795
-0.0931819
0.0306976
-0.0967485
0.0313563
-0.0993658
0.0316558
-0.101504
0.0317379
-0.103462
0.03169
-0.105404
0.0315614
-0.107411
0.0313785
-0.109517
0.0311556
-0.111735
0.030902
-0.11407
0.0306244
-0.116523
0.030329
-0.119092
0.0300209
-0.121776
0.0297049
-0.124569
0.0293844
-0.127466
0.0290605
-0.130459
0.0287387
-0.133536
-0.000208318
0.00280744
-0.00259912
-0.000768264
0.00660115
-0.0060412
-0.00163553
0.00911517
-0.0082479
-0.00276519
0.010638
-0.00950833
-0.0041135
0.0114241
-0.0100758
-0.00564133
0.0116892
-0.0101613
-0.00731571
0.0115962
-0.0099218
-0.00910946
0.01125
-0.00945625
-0.0109999
0.0107012
-0.00881076
-0.0129671
0.00995613
-0.00798896
-0.0149921
0.00898996
-0.00696493
-0.0170553
0.00775874
-0.00569554
-0.0191358
0.006209
-0.00412852
-0.0212142
0.0042835
-0.00220505
-0.0232435
0.00192434
0.000104963
-0.0252016
-0.000889549
0.00284762
-0.0270561
-0.0042093
0.00606378
-0.0287614
-0.00806003
0.0097653
-0.0302725
-0.0124383
0.0139494
-0.0315459
-0.0173171
0.0185905
-0.0325425
-0.0226394
0.023636
-0.0332339
-0.0283162
0.0290076
-0.0336176
-0.0342225
0.0346062
-0.04015
-0.0337632
0.0402956
-0.000114055
0.0029215
-0.000471023
0.00695811
-0.00107234
0.00971649
-0.00189944
0.0114651
-0.00292063
0.0124453
-0.00409879
0.0128673
-0.00539682
0.0128942
-0.00678076
0.0126339
-0.00822093
0.0121414
-0.00969175
0.011427
-0.0111707
0.0104689
-0.0126368
0.00922487
-0.0140698
0.00764196
-0.0154494
0.00566313
-0.0167568
0.00323178
-0.0179191
0.000272681
-0.0189785
-0.00314984
-0.0198696
-0.00716894
-0.0205653
-0.0117426
-0.0210394
-0.016843
-0.0212727
-0.0224061
-0.0212642
-0.0283247
-0.0210425
-0.0344442
-0.0406139
-0.0205785
-8.86824e-06
0.00293037
-0.000129914
0.00707916
-0.00040962
0.00999619
-0.000855867
0.0119113
-0.00145011
0.0130396
-0.00215821
0.0135754
-0.00293916
0.0136752
-0.00375124
0.013446
-0.00455562
0.0129457
-0.00531785
0.0121892
-0.00600762
0.0111587
-0.00659774
0.009815
-0.00706324
0.00810746
-0.00737944
0.00597934
-0.00752227
0.00337461
-0.00747895
0.000229357
-0.00719472
-0.00343408
-0.00666343
-0.00770023
-0.00586184
-0.0125442
-0.00477127
-0.0179335
-0.00337855
-0.0237988
-0.00167661
-0.0300266
0.000326108
-0.0364469
-0.0427457
0.0024579
9.46842e-05
0.00283568
0.000217601
0.00695624
0.000284841
0.00992895
0.000264353
0.0119318
0.000161113
0.0131428
4.5642e-06
0.013732
-0.000162249
0.013842
-0.000291134
0.0135749
-0.000334387
0.012989
-0.000247897
0.0121027
7.84957e-06
0.0109029
0.000468326
0.00935452
0.00116716
0.00740863
0.00213501
0.00501149
0.00340097
0.00210865
0.00497625
-0.00134592
0.00692586
-0.00538369
0.00925431
-0.0100287
0.011982
-0.0152719
0.0151201
-0.0210716
0.0186681
-0.0273468
0.0226112
-0.0339698
0.026892
-0.0407277
-0.047425
0.0315712
0.000183596
0.00265209
0.000530745
0.00660909
0.00093314
0.00952656
0.00134101
0.0115239
0.0017471
0.0127367
0.00217451
0.0133046
0.00266547
0.013351
0.00327191
0.0129685
0.00404837
0.0122125
0.00504775
0.0111033
0.00631933
0.00963134
0.00790853
0.00776532
0.00985709
0.00546007
0.0122049
0.00266366
0.0149893
-0.000675781
0.0182473
-0.00460387
0.0220161
-0.00915246
0.0263213
-0.014334
0.0311792
-0.0201298
0.0365901
-0.0264826
0.0425315
-0.0332882
0.0489636
-0.0404019
0.0558049
-0.0475689
-0.0547272
0.0631071
0.000247181
0.0024049
0.000773156
0.00608312
0.00146275
0.00883696
0.00225794
0.0107288
0.00314313
0.0118515
0.00413519
0.0123125
0.00527349
0.0122127
0.00661087
0.0116311
0.00820636
0.010617
0.0101203
0.00918932
0.0124119
0.00733977
0.0151378
0.00503945
0.0183527
0.00224518
0.0221097
-0.00109339
0.0264593
-0.00502538
0.0314466
-0.00959115
0.0371089
-0.0148148
0.0434677
-0.0206928
0.0505218
-0.0271839
0.0582401
-0.0342008
0.0665557
-0.0416038
0.0753638
-0.0492099
0.0845288
-0.056734
-0.0642435
0.0940451
0.000278782
0.00212612
0.000920107
0.00544179
0.00182091
0.00793616
0.00292657
0.00962311
0.00421971
0.0105584
0.00571369
0.0108185
0.0074455
0.0104809
0.00946839
0.00960821
0.0118456
0.00823985
0.0146456
0.00638926
0.0179394
0.00404596
0.0217969
0.00118204
0.0262922
-0.00225013
0.0314904
-0.00629158
0.037451
-0.0109861
0.0442206
-0.0163607
0.0518224
-0.0224166
0.0602472
-0.0291175
0.0694438
-0.0363805
0.0793106
-0.0440676
0.089707
-0.0520002
0.100425
-0.0599279
0.111277
-0.0675861
-0.0750443
0.122078
0.000277213
0.00184891
0.000964285
0.00475472
0.0019879
0.00691254
0.00330904
0.00830197
0.00491723
0.00895018
0.00682847
0.0089073
0.0090817
0.00822766
0.0117343
0.00695565
0.0148572
0.00511696
0.0185309
0.00271547
0.0228401
-0.000263153
0.0278774
-0.00385527
0.0337217
-0.00809443
0.0404472
-0.0130171
0.0481051
-0.018644
0.0567131
-0.0249687
0.0662427
-0.0319462
0.0766085
-0.0394833
0.0876638
-0.0474358
0.099198
-0.0556019
0.110969
-0.0637715
0.122668
-0.0716267
0.134105
-0.079023
-0.0857977
0.144858
0.000247433
0.00160148
0.000919266
0.00408289
0.00198615
0.00584566
0.00343604
0.00685207
0.00527559
0.00711063
0.00753283
0.00665007
0.0102574
0.00550305
0.0135188
0.00369427
0.0174022
0.00123356
0.0220048
-0.00188715
0.0274289
-0.00568723
0.0337671
-0.0101934
0.0410986
-0.015426
0.04947
-0.0213885
0.0588801
-0.0280541
0.0692661
-0.0353547
0.0804937
-0.0431739
0.0923558
-0.0513454
0.104581
-0.0596607
0.116851
-0.0678718
0.128836
-0.0757564
0.140202
-0.0829936
0.150793
-0.0896131
-0.0951269
0.160122
0.000200537
0.00140094
0.000820025
0.0034634
0.00188265
0.00478303
0.00341313
0.0053216
0.00544617
0.0050776
0.00803337
0.00406286
0.0112463
0.00229013
0.0151747
-0.000234135
0.0199239
-0.0035156
0.0256008
-0.00756412
0.0323049
-0.0123913
0.0401081
-0.0179966
0.0490378
-0.0243557
0.0590575
-0.0314083
0.0700535
-0.0390501
0.0818287
-0.0471298
0.0941078
-0.055453
0.106556
-0.0637936
0.118806
-0.0719109
0.130506
-0.079571
0.14133
-0.086581
0.15107
-0.0927336
0.159597
-0.0981403
-0.102226
0.166696
0.000152576
0.00124836
0.000718644
0.00289733
0.00178033
0.00372134
0.00340667
0.00369527
0.00567036
0.0028139
0.00865674
0.00107647
0.0124666
-0.0015197
0.0172121
-0.00497967
0.023004
-0.00930746
0.0299366
-0.0144967
0.0380648
-0.0205195
0.0473823
-0.0273141
0.0578026
-0.034776
0.0691485
-0.0427543
0.0811534
-0.051055
0.0934758
-0.0594522
0.105727
-0.0677043
0.117512
-0.075578
0.128468
-0.0828672
0.138326
-0.0894292
0.146912
-0.0951666
0.154275
-0.100096
0.160387
-0.104252
-0.107337
0.165498
0.000121683
0.000674237
0.00179663
0.00360602
0.00621844
0.00975549
0.0143415
0.0200913
0.027089
0.0353642
0.0448672
0.0554528
0.0668762
0.0788041
0.0908412
0.102569
0.113593
0.123586
0.132323
0.139712
0.145774
0.150732
0.154756
0.159184
-0.0328591
-0.0639447
0.0630407
-0.031402
-0.0742652
0.072808
-0.0291524
-0.083891
0.0816415
-0.0258275
-0.0920856
0.0887607
-0.0210606
-0.0980469
0.0932801
-0.0145094
-0.10075
0.094199
-0.00597448
-0.0990772
0.0905423
0.00471586
-0.0921118
0.0814214
0.0171584
-0.0789566
0.066514
0.0303664
-0.0589339
0.0457259
0.0440194
-0.0332049
0.019552
0.0576461
-0.00276808
-0.0108587
0.071092
0.0311092
-0.0445551
0.0840364
0.0659794
-0.0789238
0.0958416
0.0983297
-0.110135
0.105632
0.124681
-0.134471
0.112774
0.143013
-0.150154
0.117112
0.153388
-0.157726
0.118498
0.158136
-0.159522
0.116561
0.161754
-0.159816
0.111701
0.167973
-0.163113
0.106204
0.174342
-0.168845
0.103583
0.170135
-0.167515
0.10618
0.142858
-0.145455
0.113707
0.0884871
-0.0960143
0.124276
0.0154971
-0.0260656
0.135432
-0.0592394
0.0480834
0.145002
-0.120438
0.110868
0.151486
-0.160503
0.154019
0.15477
-0.181703
0.178419
0.155607
-0.189003
0.188166
0.153886
-0.190084
0.191804
0.148657
-0.194036
0.199266
0.140412
-0.205235
0.21348
0.132347
-0.20875
0.216816
0.128317
-0.180635
0.184665
0.129884
-0.110132
0.108565
0.135926
-0.0127659
0.00672391
0.143942
0.0793029
-0.0873187
0.151501
0.150138
-0.157697
0.156118
0.19072
-0.195337
0.155506
0.223723
-0.223112
0.149551
0.247299
-0.241344
0.14163
0.262279
-0.254357
0.13632
0.229932
-0.224622
0.136562
0.141697
-0.141939
0.141857
0.0263603
-0.0316561
0.148489
-0.0957367
0.0891047
0.151729
-0.159684
0.156444
0.14916
-0.234519
0.237089
0.143404
-0.254211
0.259967
0.139737
-0.269125
0.272791
0.140815
-0.208054
0.206976
0.144232
-0.0706549
0.0672386
0.145911
0.0155236
-0.0172026
0.144335
0.216185
-0.21461
0.142467
0.243138
-0.241269
0.141438
0.31335
-0.312322
0.140346
0.26479
-0.263698
-0.00598042
0.00777201
-0.0215938
-0.0629295
-0.0224788
-0.0733801
-0.0232465
-0.0831234
-0.0235924
-0.0917396
-0.0230516
-0.0985877
-0.0209855
-0.102816
-0.0167589
-0.103304
-0.00995785
-0.0989128
-0.000545925
-0.0883685
0.0122537
-0.0717335
0.0261784
-0.0471296
0.041088
-0.0176777
0.0564415
0.0157557
0.0716143
0.0508066
0.085901
0.084043
0.0983609
0.112221
0.108207
0.133167
0.114947
0.146648
0.118158
0.154925
0.117726
0.162185
0.114746
0.170954
0.111855
0.177233
0.111964
0.170025
0.116271
0.138552
0.123929
0.0808285
0.133247
0.00617893
0.142311
-0.0683027
0.14953
-0.127657
0.153787
-0.16476
0.155097
-0.183013
0.154366
-0.188271
0.151669
-0.187387
0.145872
-0.18824
0.137018
-0.196381
0.128193
-0.199926
0.123689
-0.176131
0.125525
-0.111969
0.132559
-0.0197995
0.142074
0.0697874
0.151142
0.141071
0.156937
0.184924
0.157157
0.223503
0.151911
0.252544
0.144612
0.269578
0.139407
0.235137
0.139029
0.142075
0.143273
0.0221169
0.149054
-0.101518
0.151859
-0.16249
0.149048
-0.231708
0.143191
-0.248353
0.139476
-0.26541
0.140658
-0.209236
0.143922
-0.0739193
0.145572
0.0138742
0.144087
0.21767
0.142276
0.244949
0.141436
0.31419
0.14055
0.265676
-0.00429262
0.000756516
-0.0612281
-0.00207445
-0.0705491
-0.00523354
-0.0799643
-0.00875148
-0.0882217
-0.0122783
-0.095061
-0.0150849
-0.10001
-0.0163648
-0.102024
-0.0148194
-0.100458
-0.0096364
-0.0935514
-0.00126413
-0.0801058
0.0116501
-0.0600438
0.026433
-0.0324606
0.0430057
-0.000817013
0.0599286
0.0338837
0.0763682
0.0676035
0.0912512
0.0973377
0.103591
0.120828
0.112588
0.13765
0.117715
0.149798
0.119223
0.160677
0.118689
0.171487
0.118717
0.177205
0.121382
0.16736
0.126952
0.132982
0.134272
0.0735091
0.141961
-0.00151011
0.148789
-0.0751308
0.153576
-0.132444
0.155645
-0.166829
0.155124
-0.182493
0.15297
-0.186117
0.149461
-0.183878
0.143381
-0.18216
0.134225
-0.187225
0.124758
-0.190458
0.119648
-0.171022
0.121488
-0.113809
0.129303
-0.0276143
0.14014
0.0589507
0.150639
0.130572
0.157654
0.177909
0.158873
0.222284
0.154537
0.256881
0.147973
0.276141
0.142872
0.240238
0.141795
0.143152
0.144845
0.0190672
0.149676
-0.106349
0.152054
-0.164868
0.149044
-0.228698
0.143076
-0.242385
0.139264
-0.261598
0.140538
-0.21051
0.143708
-0.0770886
0.14537
0.0122118
0.14396
0.21908
0.142179
0.24673
0.141554
0.314815
0.140928
0.266302
-0.00273474
0.0287787
-0.0584355
0.025578
-0.0673484
0.0213406
-0.0757269
0.0159729
-0.0828541
0.0095337
-0.0886217
0.00251625
-0.0929923
-0.00358193
-0.0959257
-0.00791262
-0.0961275
-0.0088338
-0.0926303
-0.00542204
-0.0835175
0.00248027
-0.0679461
0.0154976
-0.0454779
0.0315122
-0.0168316
0.049308
0.0160878
0.0672548
0.0496567
0.0840948
0.0804978
0.0985758
0.106347
0.109661
0.126565
0.116865
0.142594
0.120751
0.156791
0.123103
0.169136
0.126163
0.174145
0.131147
0.162376
0.137533
0.126595
0.144162
0.0668801
0.150159
-0.00750682
0.154721
-0.0796937
0.157109
-0.134832
0.157065
-0.166785
0.154865
-0.180293
0.151427
-0.182679
0.14721
-0.17966
0.141059
-0.17601
0.131951
-0.178116
0.122067
-0.180574
0.116237
-0.165191
0.117821
-0.115394
0.126101
-0.0358935
0.138082
0.0469689
0.14992
0.118734
0.158206
0.169623
0.160594
0.219896
0.157353
0.260122
0.15162
0.281874
0.14663
0.245228
0.14479
0.144992
0.14656
0.0172972
0.15034
-0.110129
0.152286
-0.166814
0.149114
-0.225525
0.143027
-0.236299
0.139062
-0.257633
0.140417
-0.211866
0.143566
-0.0802374
0.145293
0.0104846
0.14395
0.220422
0.142176
0.248504
0.141796
0.315196
0.141485
0.266613
-0.0013332
0.0599968
-0.0553252
0.0563613
-0.0637129
0.0518125
-0.0711782
0.0461038
-0.0771454
0.0390913
-0.0816093
0.0307249
-0.0846259
0.0211202
-0.086321
0.0115307
-0.0865381
0.00374244
-0.084842
0.000164028
-0.0799391
0.00230217
-0.0700843
0.0104918
-0.0536676
0.0235695
-0.0299093
0.0403934
-0.000736083
0.0586123
0.0314378
0.076608
0.0625021
0.0927243
0.0902303
0.105728
0.113562
0.115193
0.133129
0.121823
0.150161
0.127328
0.163631
0.133411
0.168062
0.140439
0.155349
0.147384
0.11965
0.153238
0.0610265
0.157561
-0.0118303
0.159957
-0.0820892
0.160026
-0.134901
0.157962
-0.164721
0.154255
-0.176586
0.14971
-0.178134
0.144888
-0.174838
0.138826
-0.169948
0.130082
-0.169372
0.120084
-0.170576
0.113543
-0.158651
0.114543
-0.116395
0.122985
-0.044335
0.13584
0.0341135
0.148897
0.105678
0.158496
0.160024
0.162221
0.216171
0.160246
0.262097
0.155434
0.286686
0.150562
0.2501
0.147969
0.147585
0.148356
0.0169099
0.15102
-0.112793
0.152523
-0.168317
0.149229
-0.222231
0.143017
-0.230087
0.138833
-0.253449
0.140255
-0.213288
0.143469
-0.0834513
0.145324
0.00862995
0.144051
0.221695
0.142268
0.250288
0.142163
0.3153
0.142223
0.266553
-0.000114375
0.0904182
-0.0516983
0.0862281
-0.0595227
0.0812698
-0.0662199
0.0754209
-0.0712964
0.0686117
-0.0748001
0.0606181
-0.0766322
0.0511484
-0.0768513
0.0403996
-0.0757893
0.0293728
-0.0738152
0.0199784
-0.0705447
0.0145251
-0.0646309
0.0149985
-0.054141
0.0221856
-0.0370964
0.0350077
-0.0135583
0.0514933
0.0149523
0.0692424
0.0447529
0.0861742
0.0732985
0.100809
0.0989272
0.112599
0.12134
0.122138
0.140622
0.13082
0.154949
0.139721
0.15916
0.148514
0.146557
0.155916
0.112247
0.161113
0.0558298
0.163961
-0.0146783
0.164331
-0.0824596
0.162216
-0.132786
0.158273
-0.160778
0.153241
-0.171554
0.147779
-0.172672
0.142446
-0.169505
0.136561
-0.164063
0.128447
-0.161258
0.118692
-0.160821
0.111553
-0.151512
0.111749
-0.116591
0.119932
-0.0525177
0.13335
0.0206955
0.147464
0.0915626
0.158405
0.149083
0.163619
0.210957
0.163068
0.262649
0.159259
0.290495
0.154536
0.254823
0.151193
0.150928
0.150219
0.017884
0.151685
-0.114259
0.152726
-0.169359
0.149352
-0.218856
0.143023
-0.223757
0.138552
-0.248978
0.140013
-0.214749
0.143384
-0.0868224
0.145441
0.00657279
0.144256
0.22288
0.142452
0.252092
0.142657
0.315096
0.143146
0.266064
0.000894777
0.117724
-0.0473449
0.112772
-0.0545699
0.10708
-0.0605281
0.100722
-0.0649388
0.0938583
-0.0679363
0.0864771
-0.0692509
0.0783266
-0.0687008
0.0690362
-0.066499
0.0584391
-0.0632181
0.0472016
-0.0593072
0.0371343
-0.0545636
0.0307308
-0.0477374
0.0303114
-0.036677
0.0365639
-0.0198108
0.0485562
0.00295995
0.0639097
0.0293994
0.0802872
0.056921
0.0958198
0.0833947
0.109592
0.107567
0.121817
0.128396
0.133377
0.143389
0.144695
0.147842
0.154912
0.13634
0.162684
0.104475
0.167415
0.0510989
0.16907
-0.0163335
0.167663
-0.0810529
0.163579
-0.128701
0.157939
-0.155138
0.151766
-0.165382
0.145588
-0.166494
0.139842
-0.163759
0.134157
-0.158378
0.126849
-0.15395
0.117694
-0.151666
0.110201
-0.144019
0.109423
-0.115812
0.116977
-0.0600723
0.130555
0.00711723
0.14552
0.0765976
0.157801
0.136803
0.164639
0.204119
0.165657
0.26163
0.162929
0.293224
0.158394
0.259357
0.154399
0.154923
0.152051
0.0202323
0.1523
-0.114508
0.152853
-0.169912
0.149446
-0.21545
0.143025
-0.217336
0.138201
-0.244155
0.139656
-0.216204
0.143275
-0.0904415
0.145622
0.00422613
0.144557
0.223945
0.142729
0.25392
0.143277
0.314548
0.144251
0.26509
0.00166649
0.139708
-0.0421942
0.133946
-0.0488083
0.127454
-0.0540364
0.120467
-0.0579518
0.113281
-0.0607503
0.10605
-0.0620194
0.0987919
-0.061443
0.0913214
-0.0590285
0.0831811
-0.0550778
0.07396
-0.0500861
0.0639349
-0.0445385
0.0545666
-0.0383692
0.0483359
-0.0304463
0.0474805
-0.0189553
0.0529821
-0.00254169
0.0635843
0.0187973
0.0774566
0.0430487
0.0924875
0.0683638
0.107268
0.0927869
0.121417
0.114248
0.135164
0.129642
0.148286
0.13472
0.159541
0.125085
0.167617
0.096399
0.172068
0.0466486
0.172777
-0.017043
0.169832
-0.078108
0.164022
-0.122891
0.156901
-0.148017
0.149774
-0.158255
0.143075
-0.159795
0.137029
-0.157712
0.131524
-0.152873
0.125089
-0.147515
0.116839
-0.143416
0.109316
-0.136497
0.107559
-0.114055
0.11412
-0.0666334
0.12743
-0.00619319
0.142981
0.0610471
0.156557
0.123226
0.165113
0.195564
0.167823
0.25892
0.166261
0.294786
0.161991
0.263627
0.157416
0.159498
0.153828
0.023821
0.152824
-0.113504
0.152858
-0.169946
0.149469
-0.212061
0.143005
-0.210871
0.13777
-0.238921
0.139155
-0.217588
0.143105
-0.0943916
0.145838
0.00149255
0.144946
0.224837
0.143098
0.255768
0.144022
0.313624
0.145538
0.263574
0.00217247
0.154388
-0.0364607
0.148014
-0.0424344
0.140941
-0.0469634
0.133552
-0.0505624
0.126177
-0.0533749
0.118999
-0.0548415
0.112176
-0.0546207
0.105797
-0.0526486
0.0997165
-0.0489977
0.0934805
-0.0438501
0.086534
-0.0375921
0.0788268
-0.030662
0.0714287
-0.0230482
0.0664017
-0.0139283
0.0659409
-0.00208087
0.070572
0.0141662
0.0800506
0.0335701
0.0927354
0.055679
0.106982
0.0785405
0.121788
0.0994417
0.136658
0.114772
0.150756
0.120621
0.162575
0.113266
0.170874
0.0881003
0.175125
0.042397
0.175059
-0.016977
0.17074
-0.0737885
0.163429
-0.115581
0.155064
-0.139652
0.147166
-0.150356
0.140129
-0.152758
0.133912
-0.151495
0.128557
-0.147517
0.122972
-0.141931
0.115845
-0.136289
0.108651
-0.129302
0.106055
-0.11146
0.111386
-0.0719643
0.123967
-0.0187743
0.13979
0.0452243
0.154553
0.108463
0.164897
0.185219
0.169429
0.254388
0.169111
0.295105
0.165179
0.267558
0.16018
0.164497
0.155437
0.0285648
0.153211
-0.111279
0.15269
-0.169424
0.149371
-0.208743
0.142941
-0.204441
0.137254
-0.233234
0.138484
-0.218818
0.142835
-0.098742
0.14606
-0.0017331
0.145414
0.225483
0.143558
0.257625
0.144892
0.31229
0.147006
0.26146
0.00238502
0.160927
-0.0306917
0.154391
-0.035898
0.147192
-0.0397652
0.139842
-0.0432124
0.132608
-0.0461406
0.125659
-0.0478926
0.119228
-0.0481892
0.113546
-0.0469665
0.108704
-0.0441561
0.10453
-0.0396761
0.10059
-0.0336517
0.0963651
-0.0264376
0.0916665
-0.0183496
0.0870711
-0.00933297
0.0838647
0.00112558
0.0841762
0.0138546
0.0888782
0.0288681
0.0977838
0.0467734
0.109798
0.0665267
0.123698
0.0855417
0.138397
0.100072
0.152529
0.10649
0.164383
0.101413
0.172729
0.0797541
0.176816
0.0383104
0.175985
-0.0161458
0.170345
-0.0681487
0.161716
-0.106952
0.152349
-0.130285
0.143859
-0.141867
0.136641
-0.14554
0.130401
-0.145255
0.125179
-0.142295
0.120353
-0.137105
0.114468
-0.130403
0.107934
-0.122768
0.104743
-0.108269
0.10873
-0.0759506
0.120228
-0.0302722
0.135939
0.0295134
0.151708
0.0926933
0.163827
0.173101
0.170241
0.247974
0.171267
0.294079
0.167815
0.27101
0.162563
0.169748
0.156842
0.0342857
0.153433
-0.107869
0.152311
-0.168302
0.149111
-0.205543
0.142813
-0.198143
0.136665
-0.227086
0.137636
-0.219789
0.14243
-0.103536
0.146257
-0.00555957
0.145951
0.225789
0.144108
0.259467
0.145886
0.310512
0.148651
0.258695
0.0022784
0.160288
-0.0254813
0.15405
-0.0296599
0.147198
-0.032914
0.140296
-0.0363099
0.133482
-0.0393269
0.12695
-0.0413606
0.121009
-0.0422481
0.115954
-0.0419115
0.11194
-0.0401424
0.108994
-0.0367294
0.106942
-0.0316
0.105396
-0.024892
0.103911
-0.0168644
0.102367
-0.00778859
0.100885
0.00260725
0.100216
0.0145238
0.102103
0.0269809
0.107457
0.0414198
0.116286
0.0576974
0.127856
0.0739719
0.140987
0.0869403
0.154074
0.0934035
0.165391
0.0900957
0.173652
0.0714929
0.177428
0.034534
0.175801
-0.0145179
0.168919
-0.061267
0.159197
-0.0972297
0.1491
-0.120188
0.140195
-0.132961
0.132887
-0.138232
0.126721
-0.13909
0.121593
-0.137167
0.117334
-0.132846
0.112662
-0.125731
0.107035
-0.117142
0.103508
-0.104742
0.106133
-0.0785757
0.116247
-0.0403862
0.131422
0.0143385
0.147951
0.0761643
0.161899
0.159153
0.170335
0.239538
0.17273
0.291684
0.169796
0.273945
0.164544
0.175
0.158031
0.040799
0.153539
-0.103377
0.15175
-0.166514
0.148697
-0.20249
0.142618
-0.192064
0.136044
-0.220512
0.136645
-0.220391
0.141874
-0.108765
0.146386
-0.0100716
0.146543
0.225632
0.144748
0.261263
0.147005
0.308255
0.15047
0.25523
0.00182577
0.15506
-0.0213575
0.14944
-0.0240401
0.143588
-0.0270618
0.137619
-0.0303405
0.131658
-0.0333659
0.125994
-0.0356971
0.120853
-0.0371071
0.116394
-0.0374522
0.112803
-0.0365514
0.110289
-0.0342155
0.108976
-0.0302868
0.108766
-0.0246825
0.109344
-0.0174418
0.110218
-0.00866326
0.111172
0.00165409
0.112728
0.0129675
0.115027
0.0246814
0.119129
0.0373186
0.125694
0.0511319
0.134727
0.0649388
0.145545
0.0761221
0.156867
0.0820815
0.167169
0.079794
0.174799
0.0638632
0.177894
0.0314391
0.174717
-0.0113416
0.166489
-0.0530385
0.155993
-0.0867342
0.145617
-0.109812
0.136588
-0.123932
0.129278
-0.130922
0.123231
-0.133042
0.11814
-0.132077
0.114184
-0.12889
0.110536
-0.122082
0.105945
-0.112551
0.102331
-0.101128
0.103711
-0.0799551
0.112225
-0.0489007
0.126508
5.62265e-05
0.143221
0.0594512
0.158602
0.143772
0.169096
0.229044
0.173102
0.287677
0.170929
0.276118
0.165877
0.180053
0.158983
0.0476926
0.153489
-0.0978824
0.151035
-0.16406
0.148153
-0.199608
0.142348
-0.186259
0.135418
-0.213581
0.135578
-0.220551
0.141214
-0.114401
0.146432
-0.0152895
0.147175
0.224889
0.145468
0.262969
0.148248
0.305475
0.152462
0.251015
0.000995783
0.194732
-0.0170278
-0.199062
0.19127
-0.0205777
0.187575
-0.0233669
0.183397
-0.0261628
0.178758
-0.0287267
0.17379
-0.0307296
0.168623
-0.03194
0.163352
-0.0321813
0.158091
-0.0312905
0.152981
-0.0291053
0.14816
-0.0254659
0.14373
-0.0202525
0.139747
-0.0134581
0.136261
-0.00517752
0.133105
0.00481024
0.130302
0.0157707
0.127908
0.0270753
0.126602
0.0386248
0.127428
0.0503055
0.131369
0.0609976
0.138789
0.068702
0.149472
0.0713987
0.163062
0.0662036
0.178066
0.0488592
0.190642
0.0188634
0.197666
-0.0183651
0.198327
-0.0536998
0.194078
-0.0824858
0.1869
-0.102634
0.178419
-0.115451
0.169833
-0.122336
0.161539
-0.124748
0.153508
-0.124046
0.146133
-0.121515
0.139185
-0.115135
0.13124
-0.104606
0.1228
-0.0926879
0.117297
-0.0744523
0.117525
-0.049128
0.123003
-0.00542239
0.130135
0.0523191
0.136288
0.13762
0.140657
0.224675
0.144685
0.283648
0.150175
0.270628
0.15684
0.173388
0.16079
0.0437427
0.161482
-0.0985749
0.159938
-0.162516
0.155604
-0.195274
0.148238
-0.178893
0.139717
-0.205061
0.135256
-0.21609
0.135492
-0.114636
0.135231
-0.0150292
0.133128
0.226992
0.131371
0.264727
0.134814
0.302032
0.140293
0.245536
0.000567559
0.203798
-0.013767
-0.207059
0.200337
-0.0171169
0.196842
-0.0198722
0.192972
-0.0222923
0.188696
-0.0244504
0.184127
-0.0261611
0.179383
-0.0271957
0.174568
-0.0273664
0.1698
-0.0265223
0.165216
-0.0245214
0.160971
-0.0212216
0.157234
-0.0165151
0.154131
-0.0103556
0.151684
-0.00273034
0.150054
0.00644031
0.149167
0.0166575
0.148971
0.0272714
0.149745
0.0378514
0.152161
0.0478893
0.156961
0.0561971
0.164489
0.0611747
0.174683
0.0612045
0.186958
0.0539289
0.199293
0.0365243
0.20863
0.00952584
0.21252
-0.0222553
0.210992
-0.0521711
0.205366
-0.0768598
0.197395
-0.0946635
0.188474
-0.106529
0.179626
-0.113488
0.171233
-0.116356
0.1631
-0.115912
0.155493
-0.113909
0.148599
-0.108241
0.14113
-0.097137
0.132858
-0.0844155
0.126665
-0.06826
0.125883
-0.0483454
0.13065
-0.0101895
0.138024
0.0449447
0.144953
0.130692
0.150331
0.219297
0.155541
0.278438
0.162212
0.263956
0.169703
0.165897
0.173987
0.0394588
0.174033
-0.0986212
0.17156
-0.160043
0.166481
-0.190194
0.158582
-0.170994
0.149222
-0.1957
0.144058
-0.210927
0.144148
-0.114727
0.144177
-0.0150577
0.142174
0.228995
0.140339
0.266561
0.1444
0.297971
0.15065
0.239286
8.53662e-05
0.212896
-0.0111874
-0.215475
0.209769
-0.01399
0.206421
-0.016524
0.202818
-0.0186898
0.198897
-0.0205292
0.194707
-0.0219711
0.190354
-0.0228424
0.185951
-0.0229642
0.181621
-0.0221922