/*--------------------------------*- C++ -*----------------------------------*\
| =========                 |                                                 |
| \\      /  F ield         | OpenFOAM: The Open Source CFD Toolbox           |
|  \\    /   O peration     | Version:  2512                                  |
|   \\  /    A nd           | Website:  www.openfoam.com                      |
|    \\/     M anipulation  |                                                 |
\*---------------------------------------------------------------------------*/
FoamFile
{
    version     2.0;
    format      ascii;
    arch        "LSB;label=32;scalar=64";
    class       volScalarField;
    location    "20.25";
    object      p;
}
// * * * * * * * * * * * * * * * * * * * * * * * * * * * * * * * * * * * * * //

dimensions      [0 2 -2 0 0 0 0];

internalField   nonuniform List<scalar> 
13248
(
-0.303066
-0.301645
-0.299634
-0.297198
-0.294529
-0.291803
-0.289149
-0.286644
-0.28432
-0.282176
-0.280178
-0.278269
-0.276379
-0.274428
-0.272339
-0.270042
-0.267478
-0.26461
-0.261405
-0.257886
-0.253968
-0.249861
-0.244892
-0.240048
-0.310019
-0.307959
-0.305318
-0.302273
-0.29901
-0.295722
-0.292532
-0.289499
-0.286632
-0.283894
-0.281221
-0.278529
-0.275728
-0.272736
-0.269485
-0.265925
-0.26203
-0.257792
-0.253222
-0.248338
-0.243139
-0.23766
-0.23174
-0.226046
-0.318414
-0.315524
-0.312133
-0.308404
-0.304499
-0.300602
-0.29682
-0.293174
-0.28963
-0.286111
-0.282524
-0.278773
-0.274777
-0.270481
-0.265856
-0.260904
-0.25565
-0.250135
-0.244401
-0.238497
-0.232426
-0.226257
-0.21987
-0.213743
-0.3284
-0.324488
-0.32023
-0.315749
-0.31114
-0.306562
-0.302077
-0.297649
-0.293193
-0.288601
-0.283775
-0.278644
-0.273175
-0.267372
-0.261275
-0.254944
-0.24845
-0.241862
-0.235234
-0.228606
-0.221983
-0.215413
-0.208794
-0.202621
-0.340063
-0.334953
-0.329726
-0.324425
-0.319034
-0.313651
-0.30827
-0.302793
-0.297093
-0.291068
-0.284661
-0.277871
-0.270747
-0.263374
-0.255851
-0.248279
-0.240741
-0.233301
-0.225995
-0.218839
-0.211832
-0.204985
-0.198237
-0.191931
-0.353409
-0.346957
-0.340683
-0.334496
-0.328206
-0.321816
-0.315242
-0.308336
-0.300981
-0.293137
-0.284845
-0.276209
-0.26737
-0.258475
-0.249654
-0.241008
-0.232603
-0.224473
-0.216627
-0.209058
-0.201749
-0.194691
-0.187835
-0.181426
-0.368333
-0.360442
-0.35307
-0.345911
-0.338537
-0.33083
-0.322645
-0.313845
-0.304397
-0.294394
-0.284012
-0.273466
-0.262962
-0.25267
-0.242709
-0.233149
-0.224018
-0.215318
-0.207029
-0.199124
-0.191573
-0.184346
-0.177414
-0.170907
-0.384568
-0.375206
-0.3667
-0.358442
-0.3497
-0.340244
-0.329937
-0.31875
-0.306824
-0.294431
-0.281887
-0.269481
-0.257439
-0.245906
-0.234959
-0.22462
-0.214877
-0.205697
-0.197039
-0.188858
-0.181113
-0.173764
-0.166787
-0.160209
-0.401652
-0.390856
-0.381181
-0.371622
-0.361118
-0.349388
-0.336422
-0.322417
-0.307757
-0.292898
-0.278252
-0.264129
-0.250718
-0.238109
-0.226319
-0.21532
-0.205063
-0.195486
-0.18653
-0.178136
-0.17025
-0.162827
-0.155839
-0.149228
-0.418891
-0.406762
-0.39586
-0.384708
-0.371955
-0.3574
-0.341313
-0.324216
-0.306749
-0.289506
-0.272928
-0.257284
-0.242692
-0.229168
-0.21667
-0.205124
-0.194448
-0.184558
-0.175378
-0.166835
-0.158867
-0.151423
-0.144454
-0.13785
-0.435366
-0.422044
-0.409804
-0.396679
-0.38115
-0.363283
-0.343768
-0.323494
-0.303316
-0.283887
-0.265609
-0.248663
-0.23308
-0.218801
-0.205729
-0.193753
-0.182761
-0.172654
-0.163336
-0.154726
-0.146751
-0.139353
-0.132448
-0.125922
-0.450004
-0.435679
-0.421965
-0.406437
-0.387612
-0.366025
-0.342901
-0.319488
-0.296779
-0.275408
-0.25568
-0.237662
-0.22129
-0.206434
-0.192947
-0.180684
-0.16951
-0.159306
-0.149966
-0.141396
-0.13352
-0.126266
-0.11952
-0.113217
-0.266138
-0.268563
-0.270127
-0.271232
-0.272229
-0.273216
-0.274241
-0.275337
-0.27652
-0.277795
-0.27916
-0.28061
-0.282139
-0.283739
-0.285402
-0.287121
-0.288888
-0.290697
-0.292547
-0.294437
-0.296364
-0.298337
-0.300444
-0.302846
-0.266458
-0.268764
-0.270258
-0.271316
-0.272271
-0.273215
-0.274193
-0.275237
-0.27636
-0.277568
-0.278858
-0.280224
-0.281661
-0.28316
-0.284715
-0.286317
-0.287961
-0.289641
-0.291356
-0.293112
-0.294905
-0.29672
-0.29865
-0.301105
-0.267779
-0.269822
-0.271159
-0.272116
-0.272986
-0.273852
-0.274753
-0.275719
-0.276761
-0.277882
-0.279078
-0.280345
-0.281676
-0.283062
-0.284497
-0.285974
-0.287484
-0.289021
-0.290584
-0.292179
-0.293806
-0.295416
-0.297047
-0.299445
-0.269908
-0.271584
-0.272693
-0.273497
-0.274234
-0.274977
-0.275759
-0.276607
-0.277528
-0.278525
-0.279594
-0.280728
-0.28192
-0.283163
-0.284449
-0.285771
-0.287122
-0.288491
-0.289874
-0.291273
-0.292699
-0.294092
-0.295354
-0.297266
-0.2726
-0.273854
-0.274687
-0.275288
-0.27584
-0.276403
-0.277011
-0.277683
-0.278428
-0.279247
-0.280134
-0.281083
-0.282087
-0.28314
-0.284233
-0.285361
-0.286514
-0.287685
-0.288863
-0.290043
-0.291235
-0.292399
-0.293358
-0.294671
-0.275613
-0.276446
-0.276975
-0.277326
-0.277636
-0.277957
-0.278321
-0.278749
-0.279249
-0.279822
-0.280464
-0.281169
-0.28193
-0.282741
-0.283597
-0.28449
-0.285414
-0.28636
-0.287317
-0.288275
-0.289227
-0.290151
-0.290917
-0.291348
-0.278762
-0.279215
-0.279432
-0.279495
-0.279505
-0.279516
-0.279565
-0.279676
-0.279861
-0.280123
-0.28046
-0.280868
-0.28134
-0.281873
-0.282459
-0.283095
-0.283773
-0.284484
-0.285218
-0.285956
-0.286687
-0.287318
-0.288124
-0.287308
-0.281962
-0.282097
-0.282004
-0.281741
-0.281398
-0.281037
-0.280706
-0.280437
-0.280248
-0.280148
-0.280138
-0.280215
-0.280376
-0.280614
-0.280926
-0.281303
-0.281738
-0.28222
-0.282731
-0.283239
-0.283776
-0.283975
-0.285007
-0.282949
-0.28524
-0.285116
-0.284711
-0.28409
-0.283348
-0.282564
-0.281803
-0.281108
-0.280508
-0.280017
-0.27964
-0.279378
-0.279225
-0.279175
-0.279217
-0.27934
-0.279527
-0.279759
-0.280019
-0.280236
-0.28056
-0.280235
-0.281367
-0.278583
-0.288737
-0.28838
-0.287653
-0.28664
-0.285459
-0.284216
-0.282992
-0.281848
-0.280821
-0.279931
-0.279187
-0.278587
-0.278121
-0.277772
-0.27752
-0.277341
-0.277206
-0.277085
-0.276963
-0.276752
-0.276689
-0.275927
-0.27673
-0.273928
-0.292687
-0.292073
-0.290986
-0.28954
-0.287884
-0.286153
-0.284448
-0.282843
-0.281382
-0.280089
-0.278968
-0.278009
-0.277189
-0.276476
-0.27583
-0.275208
-0.274565
-0.273859
-0.273066
-0.27215
-0.271282
-0.270069
-0.270057
-0.267721
-0.297371
-0.29642
-0.294907
-0.292978
-0.290812
-0.288569
-0.28637
-0.284297
-0.282395
-0.280682
-0.27915
-0.277772
-0.276502
-0.275286
-0.274061
-0.272763
-0.271332
-0.269717
-0.267878
-0.265827
-0.263563
-0.261239
-0.259398
-0.257446
-0.305945
-0.30916
-0.312108
-0.31447
-0.31597
-0.316245
-0.314883
-0.311418
-0.305346
-0.296179
-0.283464
-0.266714
-0.246742
-0.222784
-0.195204
-0.164635
-0.13196
-0.0984586
-0.0655406
-0.0345828
-0.00696942
0.0163302
0.0347626
0.0482572
0.0571675
0.0621314
0.0639297
0.0633432
0.0610875
0.0577407
0.0538204
0.0496144
0.0453576
0.0412457
0.0373247
0.033654
0.0302677
0.0271719
0.0243651
0.0218255
0.0195385
0.0174812
0.015635
0.0139674
0.0124532
0.0110702
0.00980504
0.00864912
0.00759709
0.00664499
0.00578039
0.00500178
0.00428525
0.0036373
0.00302292
0.00246037
0.00190083
0.00137904
0.000825588
0.000298087
-0.304887
-0.308414
-0.311773
-0.314657
-0.31679
-0.317812
-0.317295
-0.314734
-0.30955
-0.301193
-0.289316
-0.274263
-0.254442
-0.230632
-0.203014
-0.172183
-0.139035
-0.104692
-0.0706982
-0.0386088
-0.00998771
0.0142232
0.0334025
0.0474598
0.0567637
0.0619909
0.0639599
0.0634742
0.0612646
0.0579632
0.0539893
0.0497488
0.04544
0.0413343
0.0374095
0.0337317
0.0303391
0.0272354
0.0244219
0.0218778
0.0195857
0.0175281
0.0156803
0.0140139
0.0124965
0.011112
0.00984152
0.00868209
0.00762481
0.00666894
0.00580075
0.00501853
0.00430003
0.00364872
0.0030336
0.00246751
0.00190834
0.00138225
0.000829916
0.000296557
-0.304463
-0.308384
-0.312235
-0.315763
-0.318639
-0.32053
-0.321006
-0.319513
-0.315383
-0.307934
-0.297585
-0.283181
-0.264281
-0.241007
-0.213598
-0.182664
-0.148825
-0.113629
-0.0786636
-0.0455011
-0.0156991
0.00959951
0.0297273
0.0445775
0.0545265
0.0602726
0.062657
0.0625044
0.0605457
0.0574273
0.0536258
0.049508
0.0453428
0.0411676
0.0372462
0.0336007
0.0302529
0.0271804
0.0243911
0.0218585
0.0195726
0.0175243
0.0156844
0.014027
0.0125129
0.0111332
0.00986239
0.00870352
0.00764398
0.00668665
0.00581646
0.00503185
0.00431219
0.0036582
0.0030428
0.00247359
0.00191508
0.00138503
0.000833986
0.000294997
-0.304052
-0.308149
-0.312409
-0.316598
-0.32025
-0.322984
-0.324421
-0.324044
-0.321094
-0.31528
-0.305756
-0.292048
-0.274132
-0.251586
-0.224662
-0.193823
-0.159948
-0.124327
-0.0885842
-0.0544834
-0.0236475
0.00268798
0.0238075
0.0395789
0.0503672
0.0568671
0.0599179
0.0603495
0.0588738
0.0561357
0.052637
0.0487468
0.0447409
0.0407678
0.0369603
0.0333565
0.0300165
0.0269904
0.0242664
0.021773
0.019506
0.0174743
0.0156507
0.0140087
0.0125043
0.0111347
0.00986844
0.00871391
0.00765515
0.00669857
0.00582795
0.00504215
0.00432208
0.00366608
0.00305074
0.00247889
0.00192119
0.00138759
0.000837838
0.000293539
-0.302435
-0.307136
-0.311503
-0.316114
-0.320422
-0.323926
-0.326182
-0.326723
-0.324788
-0.32004
-0.311695
-0.299434
-0.282624
-0.261126
-0.235042
-0.204775
-0.171144
-0.135514
-0.0994939
-0.0648705
-0.0333262
-0.00616051
0.0158709
0.032603
0.0443646
0.0518135
0.05576
0.0570072
0.0562383
0.0540757
0.051042
0.0475227
0.0438003
0.0400469
0.0363953
0.0329525
0.0297389
0.0267501
0.0240183
0.0216041
0.0193855
0.0173817
0.0155826
0.0139608
0.0124715
0.011117
0.00985979
0.00871307
0.00765814
0.00670447
0.00583506
0.00504931
0.00432958
0.00367234
0.00305736
0.00248342
0.00192658
0.00138998
0.000841406
0.000292265
-0.299834
-0.305088
-0.309275
-0.313963
-0.318691
-0.322752
-0.325663
-0.326953
-0.326067
-0.322297
-0.315128
-0.304004
-0.288481
-0.268284
-0.24341
-0.214204
-0.181438
-0.146383
-0.110643
-0.0760067
-0.0441731
-0.0164696
0.0063207
0.0239886
0.0367991
0.0453364
0.0503515
0.0525982
0.052729
0.0513165
0.0488945
0.0458648
0.0425236
0.0390704
0.0356592
0.0323862
0.0292945
0.0264397
0.0237938
0.0213508
0.0191948
0.0172455
0.0154842
0.0138865
0.0124168
0.0110812
0.00983703
0.00870113
0.00765293
0.0067042
0.00583761
0.00505318
0.00433453
0.00367686
0.00306251
0.00248715
0.00193115
0.0013922
0.000844603
0.00029127
-0.296381
-0.30204
-0.305845
-0.310262
-0.31508
-0.319398
-0.322677
-0.324479
-0.324317
-0.321471
-0.315365
-0.305435
-0.291229
-0.272453
-0.249082
-0.221386
-0.190044
-0.156195
-0.121357
-0.0872628
-0.0555928
-0.0276788
-0.00432352
0.0142052
0.0280816
0.0377847
0.0439732
0.0473385
0.0485063
0.0479775
0.04628
0.0438354
0.0409588
0.0378732
0.0347456
0.0316855
0.0287635
0.026025
0.0234652
0.021139
0.0189868
0.0170646
0.0153593
0.0137895
0.0123429
0.0110293
0.00980132
0.00867872
0.0076398
0.00669783
0.00583558
0.00505369
0.00433682
0.00367959
0.00306609
0.00249004
0.00193479
0.00139429
0.000847347
0.000290668
-0.292085
-0.297822
-0.301127
-0.305115
-0.309734
-0.313983
-0.317345
-0.31943
-0.319713
-0.317556
-0.312371
-0.303596
-0.290748
-0.273497
-0.251769
-0.225832
-0.196374
-0.164355
-0.131068
-0.0980835
-0.0670264
-0.0392282
-0.0155184
0.0037595
0.0186632
0.0295464
0.0369495
0.0414916
0.0437584
0.0441997
0.0433032
0.0415095
0.0391562
0.0364866
0.0336831
0.0308734
0.0281421
0.0255458
0.0231093
0.0208479
0.0187704
0.0168208
0.0152012
0.0136711
0.012253
0.0109635
0.00975405
0.00864667
0.00761917
0.00668556
0.00582898
0.00505084
0.00433636
0.00368049
0.00306799
0.00249209
0.00193742
0.00139626
0.00084956
0.000290599
-0.286843
-0.29187
-0.294676
-0.29834
-0.302545
-0.306411
-0.309657
-0.311821
-0.312359
-0.310687
-0.306272
-0.298565
-0.287066
-0.271432
-0.251557
-0.227638
-0.200271
-0.170441
-0.13925
-0.107914
-0.0779031
-0.0505394
-0.0266988
-0.00682337
0.00900795
0.0210119
0.0296009
0.0353048
0.0386675
0.0401259
0.0400812
0.0389751
0.0371751
0.0349501
0.0324988
0.0299639
0.0274443
0.0250114
0.0226989
0.0205421
0.0185461
0.0167703
0.015031
0.0135263
0.0121478
0.0108857
0.00969657
0.00860596
0.00759163
0.00666779
0.00581803
0.00504476
0.0043332
0.0036796
0.00306818
0.00249332
0.00193896
0.00139816
0.000851182
0.000291238
-0.280156
-0.283613
-0.286249
-0.289807
-0.293421
-0.296744
-0.299622
-0.301602
-0.302263
-0.300988
-0.297279
-0.290619
-0.280508
-0.266593
-0.248735
-0.227067
-0.20207
-0.174599
-0.145748
-0.116457
-0.0878923
-0.0612893
-0.0375639
-0.0172749
-0.000655911
0.0123637
0.0220683
0.0288823
0.0332951
0.0357801
0.0366509
0.03629
0.0350775
0.0333173
0.031233
0.028986
0.0266905
0.02443
0.0222522
0.0201982
0.0182823
0.0165185
0.0148665
0.0133628
0.0120254
0.0107978
0.00963081
0.00855813
0.00755827
0.00664533
0.00580324
0.0050358
0.00432752
0.00367705
0.00306668
0.00249375
0.00193936
0.00140001
0.000852171
0.000292824
-0.271172
-0.273241
-0.276132
-0.279221
-0.282143
-0.285306
-0.288155
-0.290003
-0.290713
-0.289805
-0.286759
-0.281132
-0.272434
-0.260316
-0.244618
-0.225393
-0.202985
-0.178068
-0.151586
-0.124503
-0.097658
-0.0720868
-0.0486823
-0.0281055
-0.0107601
0.00325946
0.0140985
0.0220631
0.0275602
0.0310208
0.0328371
0.0333165
0.032783
0.0315543
0.0298814
0.0279515
0.0258996
0.0238245
0.0217892
0.0198421
0.018004
0.0162996
0.0146871
0.013249
0.0118724
0.0106961
0.00955762
0.00850387
0.00751931
0.00661784
0.00578405
0.00502332
0.00431859
0.00367225
0.00306287
0.00249298
0.00193815
0.0014016
0.000852271
0.000295656
-0.259922
-0.262668
-0.265171
-0.266918
-0.268993
-0.27151
-0.273648
-0.275124
-0.275923
-0.275272
-0.272932
-0.268441
-0.261278
-0.251117
-0.237772
-0.221209
-0.20163
-0.179488
-0.155484
-0.130459
-0.105299
-0.0809576
-0.0582352
-0.0377556
-0.0200295
-0.00529457
0.00646
0.0154227
0.0219072
0.0262785
0.0288868
0.0300847
0.0302031
0.0295247
0.028301
0.0267291
0.0249595
0.0231035
0.0212381
0.01942
0.0176807
0.0160498
0.0145139
0.0131152
0.0118394
0.0105807
0.00946916
0.00843444
0.00746716
0.00657899
0.00575511
0.00500329
0.00430316
0.0036629
0.00305488
0.00248987
0.00193432
0.0014024
0.000850866
0.000299969
-0.247722
-0.25469
-0.256445
-0.257104
-0.258644
-0.260977
-0.263458
-0.265121
-0.265033
-0.263841
-0.261457
-0.257101
-0.250263
-0.240658
-0.228122
-0.212634
-0.194373
-0.173751
-0.151396
-0.128077
-0.104583
-0.0817281
-0.0602555
-0.040766
-0.0237199
-0.00935952
0.00228735
0.0113529
0.0180882
0.0228081
0.0258422
0.0274854
0.0280208
0.0277145
0.026815
0.0255162
0.0239751
0.0223048
0.0205928
0.0188973
0.017257
0.0157023
0.0142335
0.0128793
0.0116285
0.0104535
0.00936728
0.00835416
0.00740806
0.00653614
0.00572345
0.00498211
0.00428719
0.00365372
0.00304714
0.00248752
0.00193075
0.00140383
0.00084904
0.000305225
-0.234486
-0.244089
-0.246248
-0.246051
-0.24671
-0.248396
-0.250119
-0.250942
-0.250783
-0.249515
-0.246845
-0.242351
-0.235651
-0.226491
-0.214742
-0.200407
-0.183655
-0.164839
-0.144487
-0.123242
-0.101781
-0.0808013
-0.0609587
-0.0427915
-0.0267128
-0.0129702
-0.00163178
0.00737843
0.0142474
0.0192294
0.0225968
0.0246039
0.0255089
0.025561
0.0249923
0.0239892
0.0227051
0.0212546
0.0197273
0.0181853
0.016672
0.0152197
0.013837
0.0125484
0.0113517
0.01023
0.00918716
0.00821273
0.00729608
0.00644929
0.0056557
0.00493058
0.00424735
0.00362413
0.00302444
0.00247172
0.00191865
0.00139708
0.0008437
0.000306627
-0.220798
-0.231677
-0.234385
-0.233818
-0.233752
-0.234802
-0.236045
-0.236669
-0.236348
-0.234796
-0.231843
-0.227281
-0.220826
-0.212244
-0.201417
-0.18835
-0.173182
-0.1562
-0.137824
-0.118585
-0.0990649
-0.0798636
-0.0615584
-0.0446391
-0.029491
-0.0163667
-0.00536701
0.00353777
0.01048
0.0156579
0.0192973
0.0216248
0.0228742
0.0232718
0.0230302
0.022326
0.0213068
0.020087
0.0187564
0.017381
0.0160067
0.0146696
0.0133833
0.0121728
0.0110402
0.00997393
0.00897365
0.00803778
0.00715387
0.00633543
0.005565
0.00485926
0.00419133
0.00358091
0.00299108
0.00244701
0.0019002
0.00138521
0.000835775
0.000305994
-0.207302
-0.218237
-0.221416
-0.220926
-0.220508
-0.221122
-0.222077
-0.222521
-0.221961
-0.220192
-0.217133
-0.212655
-0.206545
-0.198598
-0.188702
-0.176855
-0.163171
-0.147878
-0.131321
-0.113939
-0.0962291
-0.0787075
-0.0618767
-0.0461785
-0.0319689
-0.0194963
-0.00888369
-0.000139547
0.0068205
0.0121453
0.0160204
0.0186424
0.0202167
0.0209453
0.0210215
0.0206114
0.0198559
0.0188679
0.0177371
0.0165322
0.0153014
0.014084
0.0128986
0.0117713
0.0107061
0.00969682
0.00874276
0.00784777
0.00699896
0.00621055
0.00546492
0.00478005
0.00412873
0.00353236
0.00295337
0.00241901
0.00187926
0.00137167
0.000827055
0.00030461
-0.193549
-0.204304
-0.207925
-0.20773
-0.20722
-0.207552
-0.208249
-0.208488
-0.207766
-0.205917
-0.202888
-0.198591
-0.192867
-0.18555
-0.176541
-0.165833
-0.153519
-0.139785
-0.124912
-0.109263
-0.0932547
-0.0773268
-0.0619134
-0.0474082
-0.0341375
-0.0223411
-0.012157
-0.00362469
0.00330026
0.00872441
0.0127954
0.0156781
0.0175496
0.0185883
0.0189687
0.0188446
0.0183495
0.0175932
0.0166645
0.0156337
0.0145508
0.0134582
0.0123784
0.0113384
0.0103432
0.009395
0.0084922
0.00764147
0.00683031
0.00607411
0.00535509
0.00469279
0.00405946
0.00347847
0.00291138
0.00238778
0.0018559
0.00135649
0.000817554
0.000302461
-0.179807
-0.190374
-0.194302
-0.194418
-0.193944
-0.194102
-0.194588
-0.194677
-0.193893
-0.192068
-0.189156
-0.185098
-0.179783
-0.173086
-0.164922
-0.155284
-0.144243
-0.131952
-0.118638
-0.104597
-0.0901765
-0.0757476
-0.0616838
-0.0483327
-0.0359908
-0.0248865
-0.015166
-0.00689219
-5.3126e-05
0.00542129
0.00964346
0.0127477
0.0148843
0.0162085
0.0168758
0.0170268
0.0167866
0.0162605
0.0155352
0.0146815
0.0137509
0.0127879
0.011818
0.0108694
0.00994945
0.00906706
0.00821928
0.0074158
0.00664496
0.00592338
0.00523313
0.00459533
0.00398173
0.00341768
0.00286387
0.0023522
0.00182936
0.00133896
0.00080688
0.000299394
-0.166578
-0.176678
-0.180731
-0.181125
-0.180757
-0.180835
-0.181187
-0.181198
-0.180423
-0.178689
-0.175952
-0.172177
-0.167292
-0.161205
-0.153849
-0.145214
-0.135354
-0.124391
-0.112511
-0.0999527
-0.087004
-0.0739772
-0.0611915
-0.048951
-0.0375226
-0.0271206
-0.0178934
-0.00992054
-0.00321595
0.00225947
0.00658664
0.00987148
0.0122389
0.0138215
0.0147556
0.0151683
0.0151748
0.014875
0.0143524
0.0136775
0.0129022
0.0120728
0.0112167
0.0103643
0.00952482
0.00871183
0.00792241
0.00716926
0.00644152
0.00575705
0.00509784
0.00448658
0.00389458
0.00334911
0.00281013
0.00231166
0.00179922
0.00131871
0.000794848
0.000295438
-0.153828
-0.163288
-0.167362
-0.168001
-0.167777
-0.167848
-0.168136
-0.168125
-0.167404
-0.165803
-0.163282
-0.159825
-0.155385
-0.149897
-0.14331
-0.13561
-0.126839
-0.117096
-0.106528
-0.0953322
-0.0837441
-0.0720247
-0.060445
-0.0492686
-0.0387333
-0.0290373
-0.0203269
-0.0126923
-0.00616733
-0.000738522
0.00364777
0.00707156
0.00963363
0.011445
0.0126232
0.013281
0.0135234
0.0134436
0.0131211
0.0126249
0.0120066
0.0113137
0.0105752
0.00982308
0.00906828
0.00832813
0.00760056
0.00690094
0.00621912
0.00557427
0.00494842
0.00436579
0.00379737
0.00327218
0.00274969
0.00226574
0.00176516
0.0012955
0.00078135
0.000290667
-0.141501
-0.150337
-0.154367
-0.155203
-0.155128
-0.155232
-0.155504
-0.155507
-0.15487
-0.153433
-0.151157
-0.148038
-0.144049
-0.139142
-0.133279
-0.126448
-0.11868
-0.110053
-0.100687
-0.0907403
-0.0804067
-0.0699025
-0.0594562
-0.0492943
-0.0396267
-0.0306342
-0.0224577
-0.015193
-0.0088887
-0.0035515
0.000849014
0.00436958
0.00708873
0.00909695
0.0104938
0.0113775
0.0118423
0.0119738
0.0118466
0.0115274
0.0110665
0.0105121
0.0098938
0.0092454
0.00857899
0.00791513
0.00725284
0.0066099
0.0059768
0.00537413
0.00478401
0.00423216
0.00368935
0.00318623
0.002682
0.00221397
0.00172685
0.00126909
0.000766233
0.00028512
-0.129777
-0.137962
-0.141867
-0.142842
-0.142904
-0.14306
-0.143343
-0.143383
-0.142852
-0.141598
-0.139584
-0.136811
-0.133266
-0.128918
-0.123735
-0.117708
-0.110861
-0.103254
-0.0949855
-0.0861825
-0.0770025
-0.067624
-0.0582384
-0.0490391
-0.0402094
-0.0319123
-0.0242806
-0.0174119
-0.0113643
-0.00616042
-0.00178897
0.00178646
0.00462423
0.00679588
0.00838366
0.0094717
0.0101427
0.0104745
0.0105356
0.0103896
0.010085
0.00966976
0.00917353
0.0086315
0.00805671
0.00747195
0.00687855
0.00629526
0.00571363
0.00515567
0.00460372
0.00408481
0.00356978
0.00309055
0.00260648
0.00215584
0.00168391
0.0012392
0.000749295
0.000278815
-0.118736
-0.126208
-0.129922
-0.130989
-0.131171
-0.131388
-0.131698
-0.131792
-0.131381
-0.130313
-0.128563
-0.126134
-0.123021
-0.119203
-0.114655
-0.10937
-0.103367
-0.0966926
-0.089424
-0.0816648
-0.0735424
-0.0652034
-0.0568069
-0.0485166
-0.0404913
-0.0328762
-0.0257944
-0.0193415
-0.0135816
-0.00854884
-0.00424732
-0.000657876
0.00226001
0.00456059
0.00630994
0.00757837
0.00843719
0.00895568
0.00919596
0.00921757
0.00906631
0.00878945
0.00841609
0.00798228
0.00750162
0.0069993
0.00647734
0.00595637
0.00542885
0.00491807
0.00440671
0.00392294
0.00343789
0.00298444
0.00252252
0.00209083
0.00163592
0.00120556
0.000730317
0.000271753
-0.108319
-0.11509
-0.118584
-0.119707
-0.11999
-0.120264
-0.120608
-0.120761
-0.120462
-0.119581
-0.118095
-0.116003
-0.113303
-0.109982
-0.106024
-0.101421
-0.0961886
-0.0903622
-0.0840031
-0.0771944
-0.070039
-0.0626566
-0.0551787
-0.0477429
-0.0404855
-0.0335342
-0.0270012
-0.0209781
-0.0155315
-0.0107032
-0.00650931
-0.00294486
1.52485e-05
0.00240986
0.00429015
0.00571329
0.00673931
0.00742875
0.00783674
0.00801826
0.00801572
0.00787499
0.00762405
0.00729929
0.00691455
0.00649698
0.006049
0.00559279
0.00512186
0.00466065
0.00419227
0.00374582
0.00329298
0.00286724
0.00242954
0.00201845
0.00158246
0.0011679
0.000709075
0.000263921
-0.0985357
-0.104648
-0.107903
-0.109044
-0.109404
-0.109728
-0.110104
-0.110314
-0.110128
-0.109427
-0.108188
-0.106413
-0.104102
-0.101245
-0.0978289
-0.09385
-0.0893176
-0.0842602
-0.0787256
-0.07278
-0.0665061
-0.0600011
-0.053373
-0.0467366
-0.0402077
-0.0338977
-0.0279071
-0.0223219
-0.0172084
-0.0126131
-0.0085608
-0.00505783
-0.00209205
0.000361936
0.00234185
0.00389266
0.00506346
0.00590603
0.00646821
0.00679994
0.00693963
0.00693116
0.00680082
0.00658486
0.00629707
0.00596566
0.0055936
0.00520438
0.00479236
0.00438292
0.00395984
0.00355283
0.00313445
0.00273837
0.002327
0.00193824
0.00152313
0.00112597
0.000685351
0.000255291
-0.089424
-0.0948986
-0.0978952
-0.0990256
-0.0994413
-0.0998048
-0.100209
-0.10047
-0.100389
-0.0998567
-0.0988483
-0.0973663
-0.0954128
-0.0929807
-0.0900604
-0.0866476
-0.082749
-0.0783862
-0.0735964
-0.0684319
-0.0629588
-0.0572555
-0.0514102
-0.0455179
-0.0396762
-0.0339811
-0.0285217
-0.0233768
-0.0186106
-0.0142717
-0.0103907
-0.0069825
-0.00404559
-0.00156598
0.00048221
0.0021328
0.00342457
0.0044007
0.00510161
0.00557189
0.0058455
0.00596374
0.00595073
0.00584213
0.00565123
0.00540666
0.00511193
0.00479142
0.0044403
0.00408465
0.00370903
0.0033435
0.00296177
0.00259732
0.00221438
0.00184979
0.00145752
0.00107954
0.000658942
0.000245823
-0.0809642
-0.0858291
-0.0885616
-0.0896605
-0.0901149
-0.0905088
-0.0909352
-0.0912405
-0.0912513
-0.0908728
-0.0900724
-0.0888568
-0.0872282
-0.0851823
-0.0827106
-0.0798083
-0.0764799
-0.0727416
-0.0686219
-0.0641616
-0.0594132
-0.0544396
-0.0493121
-0.0441089
-0.0389115
-0.0338019
-0.0288578
-0.0241505
-0.0197403
-0.0156758
-0.0119912
-0.00870744
-0.00583131
-0.00335822
-0.00127253
0.000449707
0.00183769
0.00292643
0.00374898
0.00434436
0.00474178
0.0049795
0.00507908
0.00507503
0.00497976
0.00482199
0.00460541
0.0043547
0.00406604
0.00376587
0.00343968
0.00311756
0.00277457
0.0024437
0.00209126
0.00175274
0.00138531
0.00102838
0.000629669
0.000235469
-0.0731219
-0.0774243
-0.0798992
-0.0809519
-0.0814296
-0.0818441
-0.0822859
-0.0826276
-0.082718
-0.0824663
-0.0818485
-0.0808734
-0.0795406
-0.0778429
-0.0757732
-0.0733278
-0.0705093
-0.0673294
-0.0638096
-0.0599816
-0.0558863
-0.0515738
-0.0471015
-0.0425333
-0.0379364
-0.0333801
-0.0289316
-0.0246541
-0.0206033
-0.0168261
-0.0133581
-0.0102244
-0.00743773
-0.00500113
-0.00290747
-0.0011414
0.00031763
0.00149704
0.00242275
0.00312827
0.00363779
0.00398621
0.00419209
0.0042884
0.00428636
0.00421435
0.00407588
0.00389546
0.00367032
0.00342698
0.00315189
0.00287494
0.00257262
0.00227725
0.00195732
0.00164682
0.00130618
0.000972292
0.000597387
0.000224183
-0.0658824
-0.0696697
-0.0718962
-0.0728917
-0.0733795
-0.0738055
-0.0742549
-0.0746216
-0.0747753
-0.0746366
-0.0741818
-0.073417
-0.0723432
-0.0709542
-0.0692421
-0.0672026
-0.064837
-0.0621535
-0.0591682
-0.0559048
-0.0523954
-0.0486792
-0.0448021
-0.0408156
-0.036775
-0.032738
-0.028762
-0.0249024
-0.0212094
-0.0177271
-0.0144911
-0.0115284
-0.00885639
-0.00648349
-0.00440958
-0.00262654
-0.00112142
0.000126241
0.00113566
0.00193497
0.00254336
0.00299223
0.00329681
0.00348803
0.00357558
0.00358709
0.00352588
0.0034155
0.00325435
0.00306876
0.0028461
0.00261584
0.00235593
0.00209788
0.00181236
0.00153183
0.00121995
0.000911138
0.000561984
0.00021192
-0.0592256
-0.0625406
-0.0645302
-0.0654617
-0.0659495
-0.0663792
-0.0668297
-0.067213
-0.0674173
-0.067374
-0.0670623
-0.0664786
-0.0656297
-0.0645098
-0.0631115
-0.0614295
-0.0594632
-0.0572184
-0.0547063
-0.0519449
-0.0489583
-0.0457772
-0.0424378
-0.0389813
-0.0354527
-0.0318996
-0.0283704
-0.0249129
-0.0215715
-0.018387
-0.0153933
-0.0126184
-0.010082
-0.00779688
-0.00576811
-0.00399347
-0.00246651
-0.00117287
-9.95696e-05
0.000776341
0.00146907
0.00200651
0.00240066
0.00268017
0.00285263
0.00294449
0.00295877
0.00291723
0.00281986
0.00269242
0.00252309
0.00234076
0.00212475
0.0019057
0.00165638
0.00140771
0.00112649
0.000844817
0.000523392
0.00019865
-0.0531181
-0.0560056
-0.0577739
-0.0586387
-0.0591188
-0.0595461
-0.059992
-0.0603844
-0.0606281
-0.0606632
-0.060466
-0.0600371
-0.0593831
-0.0584993
-0.0573755
-0.0560056
-0.0543888
-0.0525287
-0.0504331
-0.0481151
-0.0455926
-0.0428891
-0.0400328
-0.0370564
-0.033996
-0.0308905
-0.0277802
-0.0247057
-0.0217059
-0.0188172
-0.0160717
-0.0134965
-0.0111128
-0.00893589
-0.00697485
-0.00523198
-0.00370628
-0.00238853
-0.00127123
-0.000336148
0.000426022
0.0010393
0.00151228
0.00187156
0.00212291
0.00229116
0.00237889
0.00240368
0.00236916
0.00229968
0.00218409
0.00205056
0.00187963
0.00170105
0.00148953
0.00127453
0.00102583
0.00077331
0.000481592
0.000184356
-0.0475288
-0.0500337
-0.0515984
-0.0523961
-0.0528632
-0.0532831
-0.0537199
-0.0541144
-0.0543856
-0.0544809
-0.0543813
-0.0540874
-0.0535983
-0.0529136
-0.0520252
-0.0509261
-0.0496134
-0.0480885
-0.0463572
-0.0444285
-0.0423156
-0.0400359
-0.0376111
-0.0350668
-0.0324316
-0.0297371
-0.0270163
-0.0243032
-0.0216313
-0.0190326
-0.0165365
-0.0141686
-0.0119504
-0.00989833
-0.0080244
-0.00633418
-0.00483105
-0.00351006
-0.00236858
-0.00139237
-0.000576356
9.9989e-05
0.000641303
0.00107122
0.00139343
0.00163189
0.00178832
0.00187803
0.00190494
0.00189269
0.00183072
0.00174646
0.00162145
0.00148454
0.00131222
0.00113254
0.000918094
0.000696688
0.000436618
0.000169043
-0.0424292
-0.0445931
-0.0459719
-0.0467039
-0.0471542
-0.047563
-0.0479871
-0.0483781
-0.048668
-0.0488122
-0.0487932
-0.048606
-0.0482541
-0.0477394
-0.047054
-0.0461878
-0.0451369
-0.043902
-0.0424868
-0.0408976
-0.0391437
-0.0372377
-0.0351959
-0.033038
-0.0307865
-0.0284665
-0.0261047
-0.0237295
-0.0213688
-0.0190507
-0.0168011
-0.0146439
-0.0125997
-0.0106853
-0.00891444
-0.00729487
-0.00583332
-0.0045282
-0.00338106
-0.0023814
-0.0015283
-0.000803913
-0.000206268
0.00028574
0.000672491
0.000974653
0.001188
0.0013444
0.0014307
0.00147417
0.00146511
0.00143009
0.00135144
0.00125708
0.00112513
0.000982195
0.000803598
0.000615135
0.000388569
0.000152737
-0.0377892
-0.0396509
-0.0408616
-0.0415308
-0.0419619
-0.0423572
-0.042766
-0.0431493
-0.04345
-0.0436299
-0.0436733
-0.0435773
-0.0433436
-0.0429695
-0.0424523
-0.0417831
-0.0409566
-0.039971
-0.0388285
-0.0375335
-0.0360922
-0.0345136
-0.0328095
-0.0309948
-0.0290869
-0.0271056
-0.0250721
-0.0230096
-0.0209414
-0.0188913
-0.0168819
-0.0149346
-0.013069
-0.0113012
-0.00964587
-0.00811187
-0.00670843
-0.00543639
-0.00430063
-0.0032934
-0.00241776
-0.00165948
-0.00102007
-0.000479473
-3.76251e-05
0.00032525
0.00060534
0.000811392
0.000951104
0.0010476
0.00109007
0.00110373
0.00107139
0.00102002
0.000929253
0.000824217
0.000682852
0.000528981
0.000337622
0.000135487
-0.0335786
-0.0351746
-0.0362348
-0.0368452
-0.037256
-0.0376361
-0.0380282
-0.0384005
-0.038706
-0.0389125
-0.0390063
-0.0389848
-0.0388458
-0.0385876
-0.0382103
-0.0377075
-0.0370715
-0.0362985
-0.0353895
-0.0343472
-0.0331761
-0.0318822
-0.0304738
-0.0289618
-0.0273593
-0.0256817
-0.0239457
-0.0221699
-0.0203735
-0.0185761
-0.0167974
-0.015056
-0.0133697
-0.0117538
-0.0102228
-0.00878614
-0.00745465
-0.00623078
-0.00512219
-0.00412336
-0.00324
-0.00245943
-0.00178703
-0.00120747
-0.000723054
-0.000312301
2.10581e-05
0.000278653
0.000468031
0.000615156
0.000707715
0.000769223
0.000782873
0.000774674
0.000725662
0.000659432
0.000556476
0.000438656
0.000284042
0.000117366
-0.0297678
-0.0311311
-0.0320573
-0.0326132
-0.0330034
-0.0333674
-0.0337417
-0.0341007
-0.0344058
-0.03463
-0.0347615
-0.0347976
-0.0347373
-0.0345786
-0.0343166
-0.0339511
-0.0334744
-0.0328815
-0.0321714
-0.0313454
-0.0304063
-0.0293584
-0.0282072
-0.0269604
-0.0256274
-0.0242201
-0.0227515
-0.0212362
-0.0196896
-0.018128
-0.0165678
-0.0150249
-0.0135154
-0.012053
-0.0106518
-0.00932092
-0.0080723
-0.00690926
-0.00584155
-0.00486515
-0.00398916
-0.00320348
-0.0025138
-0.00190341
-0.00137818
-0.000916728
-0.000478964
-0.000243659
-1.10264e-05
0.000184551
0.000324475
0.000431714
0.000489876
0.000524065
0.000516587
0.000489426
0.000425601
0.000344858
0.000228243
9.85918e-05
-0.0263378
-0.0274992
-0.0283073
-0.0288137
-0.0291837
-0.0295317
-0.0298881
-0.0302329
-0.0305342
-0.0307698
-0.0309296
-0.0310111
-0.0310135
-0.0309347
-0.03077
-0.0305142
-0.0301671
-0.0297252
-0.0291834
-0.0285404
-0.0277983
-0.0269606
-0.0260311
-0.0250146
-0.0239178
-0.0227494
-0.0215192
-0.0202386
-0.0189195
-0.0175752
-0.0162192
-0.0148649
-0.0135263
-0.0122154
-0.0109456
-0.0097252
-0.00856668
-0.00747348
-0.00645701
-0.00551431
-0.00465625
-0.00387388
-0.00317987
-0.00256293
-0.0020306
-0.00157412