/*--------------------------------*- C++ -*----------------------------------*\
| =========                 |                                                 |
| \\      /  F ield         | OpenFOAM: The Open Source CFD Toolbox           |
|  \\    /   O peration     | Version:  2512                                  |
|   \\  /    A nd           | Website:  www.openfoam.com                      |
|    \\/     M anipulation  |                                                 |
\*---------------------------------------------------------------------------*/
FoamFile
{
    version     2.0;
    format      ascii;
    arch        "LSB;label=32;scalar=64";
    class       surfaceScalarField;
    location    "122.25";
    object      phi;
}
// * * * * * * * * * * * * * * * * * * * * * * * * * * * * * * * * * * * * * //

dimensions      [0 3 -1 0 0 0 0];

oriented        oriented;

internalField   nonuniform List<scalar> 
26232
(
-5.2955e-05
0.00101573
-0.000962774
7.60569e-05
0.00193881
-0.00206782
0.000623151
0.00194404
-0.00249113
0.00180139
0.00108415
-0.00226239
0.00381289
-0.000629456
-0.00138204
0.00685029
-0.00320542
0.000168013
0.0110931
-0.00665632
0.00241356
0.0166913
-0.0109833
0.00538503
0.0237498
-0.0161599
0.00910146
0.0323072
-0.0221219
0.0135645
0.0423194
-0.0287626
0.0187504
0.0536492
-0.0359357
0.0246059
0.066067
-0.0434649
0.0310471
0.0792618
-0.0511572
0.0379624
0.0928627
-0.058819
0.0452181
0.106467
-0.0662715
0.0526667
0.119677
-0.0733648
0.0601552
0.132129
-0.0799893
0.0675374
0.143535
-0.0860798
0.074674
0.153689
-0.0916339
0.0814801
0.162516
-0.0966472
0.0878196
0.169962
-0.101316
0.0938693
0.175987
-0.10528
0.099256
-0.109751
0.105275
0.180462
2.59694e-05
0.00098976
0.000386382
0.00157839
0.00133529
0.000995127
0.00310885
-0.000689413
0.00592953
-0.00345014
0.00999758
-0.00727347
0.0154736
-0.0121323
0.0224541
-0.0179638
0.0309479
-0.0246537
0.0408577
-0.0320318
0.0519754
-0.0398802
0.0639921
-0.0479524
0.0765241
-0.0559969
0.0891497
-0.0637828
0.101452
-0.0711211
0.113061
-0.0778804
0.123691
-0.0839946
0.133164
-0.0894627
0.141425
-0.094341
0.14852
-0.0987286
0.154612
-0.102739
0.159821
-0.106524
0.164583
-0.110042
-0.113922
0.168753
0.000124799
0.000864961
0.000775263
0.000927931
0.00221743
-0.00044704
0.00470051
-0.00317249
0.0084476
-0.00719723
0.0136331
-0.0124589
0.0203519
-0.0188511
0.0285894
-0.0262014
0.0382022
-0.0342664
0.0489177
-0.0427473
0.0603577
-0.0513203
0.0720807
-0.0596754
0.0836348
-0.067551
0.0946131
-0.0747612
0.1047
-0.081208
0.113701
-0.0868818
0.121555
-0.0918484
0.128321
-0.0962279
0.134147
-0.100167
0.139234
-0.103816
0.143789
-0.107294
0.147989
-0.110725
0.151997
-0.11405
-0.117713
0.155788
0.000238202
0.000626759
0.00122189
-5.57616e-05
0.00322241
-0.00244756
0.00648491
-0.00643499
0.0112026
-0.0119149
0.0174785
-0.0187348
0.0252869
-0.0266595
0.0344498
-0.0353643
0.0446416
-0.0444583
0.0554257
-0.0535314
0.0663147
-0.0622093
0.076841
-0.0702016
0.0866207
-0.0773308
0.0953988
-0.0835392
0.103067
-0.0888762
0.109654
-0.0934694
0.115296
-0.0974899
0.120185
-0.101117
0.124528
-0.10451
0.128507
-0.107795
0.132266
-0.111053
0.135885
-0.114344
0.139471
-0.117635
-0.121206
0.142964
0.000363715
0.000263044
0.00171281
-0.00140486
0.00431159
-0.00504633
0.0083752
-0.0104986
0.0140256
-0.0175653
0.0212418
-0.025951
0.0298278
-0.0352456
0.0394183
-0.0449547
0.0495267
-0.0545667
0.0596258
-0.0636304
0.0692344
-0.071818
0.0779901
-0.0789573
0.0856886
-0.0850293
0.0922881
-0.0901387
0.09788
-0.0944681
0.102641
-0.09823
0.106778
-0.101627
0.110488
-0.104827
0.113926
-0.107949
0.117205
-0.111074
0.120396
-0.114244
0.123536
-0.117484
0.126675
-0.120775
-0.124274
0.129743
0.000501293
-0.000238249
0.00223879
-0.00314236
0.00544825
-0.0082558
0.0102789
-0.0153292
0.0167324
-0.0240188
0.0246157
-0.0338344
0.0335402
-0.0441701
0.0429781
-0.0543926
0.0523614
-0.06395
0.0611884
-0.0724574
0.0691047
-0.0797342
0.075939
-0.0857915
0.0816929
-0.0907833
0.0864963
-0.0949421
0.0905472
-0.0985191
0.0940564
-0.101739
0.0972076
-0.104778
0.10014
-0.107759
0.102948
-0.110757
0.105689
-0.113815
0.108398
-0.116952
0.111092
-0.120177
0.113796
-0.123479
-0.126939
0.116461
0.000650263
-0.000888512
0.00278641
-0.0052785
0.00658418
-0.0120536
0.0120827
-0.0208278
0.0191167
-0.0310527
0.0272965
-0.0420142
0.0360636
-0.0529372
0.0448059
-0.0631348
0.052986
-0.0721302
0.0602365
-0.079708
0.0663955
-0.0858932
0.0714858
-0.0908818
0.0756578
-0.0949552
0.0791209
-0.0984052
0.082086
-0.101484
0.0847296
-0.104383
0.0871805
-0.107229
0.0895231
-0.110102
0.091808
-0.113042
0.0940635
-0.11607
0.0963052
-0.119194
0.0985407
-0.122413
0.100782
-0.125721
-0.129148
0.102991
0.000807053
-0.00169557
0.00333274
-0.00780419
0.00765341
-0.0163742
0.0136533
-0.0268277
0.0209708
-0.0383702
0.0290342
-0.0500776
0.0371852
-0.0610882
0.0448325
-0.0707821
0.0515683
-0.078866
0.0572129
-0.0853525
0.0617885
-0.0904688
0.0654525
-0.0945458
0.0684204
-0.0979231
0.070905
-0.10089
0.0730809
-0.10366
0.0750727
-0.106375
0.0769605
-0.109117
0.0787911
-0.111932
0.08059
-0.114841
0.0823712
-0.117852
0.0841421
-0.120965
0.0859073
-0.124178
0.087673
-0.127486
-0.130892
0.0894169
0.000964473
-0.00266004
0.00384518
-0.0106849
0.00857735
-0.0211064
0.0148561
-0.0331065
0.0221251
-0.0456391
0.0296866
-0.0576392
0.0368781
-0.0682797
0.0432215
-0.0771254
0.0484878
-0.0841323
0.0526752
-0.0895399
0.0559348
-0.0937285
0.058485
-0.0970959
0.0605431
-0.0999812
0.0622868
-0.102634
0.0638422
-0.105215
0.065289
-0.107821
0.066673
-0.110501
0.0680189
-0.113278
0.0693399
-0.116162
0.0706433
-0.119155
0.0719332
-0.122255
0.073213
-0.125458
0.0744849
-0.128758
-0.132145
0.0757372
0.0011125
-0.00377254
0.00428573
-0.0138581
0.00927766
-0.0260983
0.0155816
-0.0394104
0.0224833
-0.0525408
0.0292414
-0.0643972
0.0352772
-0.0743156
0.0402774
-0.0821256
0.0441874
-0.0880424
0.0471361
-0.0924886
0.0493391
-0.0959315
0.0510203
-0.0987772
0.0523656
-0.101327
0.0535074
-0.103775
0.0545289
-0.106237
0.0554778
-0.10877
0.0563794
-0.111403
0.0572469
-0.114146
0.0580875
-0.117003
0.0589057
-0.119973
0.0597044
-0.123054
0.0604858
-0.126239
0.0612508
-0.129523
-0.13289
0.0619958
0.00124033
-0.00501287
0.00461838
-0.0172362
0.00969163
-0.0311716
0.0157664
-0.0454852
0.0220349
-0.0588093
0.0277962
-0.0701585
0.0326136
-0.079133
0.0363444
-0.0858563
0.0390713
-0.0907693
0.0409974
-0.0944147
0.0423524
-0.0972865
0.0433344
-0.0997591
0.044087
-0.102079
0.0447016
-0.10439
0.0452303
-0.106766
0.0457003
-0.10924
0.0461257
-0.111828
0.046514
-0.114534
0.0468701
-0.117359
0.0471969
-0.1203
0.0474966
-0.123353
0.0477704
-0.126513
0.0480175
-0.129771
-0.13311
0.0482384
0.00134081
-0.00635368
0.0048181
-0.0207135
0.00978418
-0.0361377
0.015401
-0.051102
0.0208445
-0.0642528
0.02552
-0.0748341
0.0291527
-0.0827656
0.0317449
-0.0884486
0.0334682
-0.0924926
0.0345524
-0.0954989
0.0352098
-0.0979439
0.0356005
-0.10015
0.0358284
-0.102307
0.0359533
-0.104515
0.0360065
-0.106819
0.0360036
-0.109237
0.0359526
-0.111777
0.0358585
-0.11444
0.0357249
-0.117225
0.0355545
-0.12013
0.0353494
-0.123148
0.0351106
-0.126274
0.0348364
-0.129496
0.03453
-0.132804
-0.000287549
2.79807e-05
0.000259568
-0.000977651
0.000718861
-2.87587e-05
-0.00197443
0.00184903
-0.000852252
-0.00321466
0.00324127
-0.00200105
-0.00465287
0.00476105
-0.00332284
-0.00625284
0.00632906
-0.00472908
-0.00798188
0.0079163
-0.00618726
-0.00980762
0.00953138
-0.00770565
-0.0116967
0.0112044
-0.00931538
-0.0136142
0.0129717
-0.0110542
-0.0155232
0.0148641
-0.012955
-0.0173839
0.0168998
-0.0150392
-0.0191519
0.0190821
-0.0173141
-0.0207771
0.0213979
-0.0197727
-0.022202
0.0238178
-0.0223929
-0.0233611
0.0262958
-0.0251366
-0.0241813
0.0287685
-0.0279483
-0.0245827
0.0311545
-0.0307531
-0.0244808
0.0333544
-0.0334563
-0.0237894
0.0352532
-0.0359446
-0.0224244
0.0367253
-0.0380903
-0.0203129
0.0376426
-0.0397541
-0.0174036
0.0378796
-0.040789
0.0373961
-0.0137159
-0.0410839
-0.000225516
0.000253497
-0.000765348
0.00125869
-0.00154096
0.00262465
-0.00249967
0.00419998
-0.00360297
0.00586435
-0.0048179
0.00754399
-0.00611106
0.00920946
-0.00744524
0.0108656
-0.00877844
0.0125376
-0.0100641
0.0142574
-0.0112518
0.0160518
-0.0122874
0.0179354
-0.0131124
0.0199071
-0.0136637
0.0219492
-0.0138727
0.0240267
-0.013665
0.0260882
-0.012961
0.0280644
-0.0116791
0.0298726
-0.00973665
0.031412
-0.00705347
0.03257
-0.00355406
0.0332259
0.000831092
0.0332575
0.00615044
0.0325603
0.0311112
0.0124354
-0.000154559
0.000408056
-0.000521983
0.00162612
-0.00104115
0.00314381
-0.00166858
0.00482741
-0.0023711
0.00656686
-0.00311811
0.008291
-0.00387571
0.00996705
-0.00460305
0.0115929
-0.00525136
0.0131859
-0.00576458
0.0147706
-0.00608081
0.016368
-0.00613346
0.017988
-0.00585261
0.0196263
-0.00516492
0.0212615
-0.00399403
0.0228558
-0.00226158
0.0243557
0.000109542
0.0256933
0.00319781
0.0267843
0.00707583
0.027534
0.0118084
0.0278374
0.0174514
0.027583
0.0240476
0.0266612
0.0316277
0.0249802
0.0224274
0.0403115
-8.7948e-05
0.000496004
-0.000289456
0.00182762
-0.000555611
0.00340997
-0.000847837
0.00511964
-0.00113504
0.00685407
-0.00138706
0.00854301
-0.00156972
0.0101497
-0.00164029
0.0116635
-0.00154638
0.013092
-0.00122651
0.0144508
-0.000611955
0.0157535
0.000370855
0.0170052
0.00179951
0.0181976
0.00375282
0.0193082
0.00630964
0.020299
0.0095473
0.021118
0.0135406
0.0217
0.0183568
0.021968
0.0240553
0.0218355
0.0306837
0.021209
0.0382759
0.0199908
0.0468645
0.0180727
0.0564208
0.0154239
0.0116558
0.0671923
-3.70225e-05
0.000533027
-0.000105044
0.00189565
-0.000158386
0.00346331
-0.000157111
0.00511837
-6.77085e-05
0.00676467
0.000141159
0.00833415
0.000505683
0.00978519
0.00106893
0.0111002
0.00188353
0.0122774
0.00301152
0.0133228
0.00452279
0.0142422
0.00649283
0.0150352
0.00899965
0.0156908
0.0121219
0.016186
0.0159364
0.0164845
0.0205161
0.0165383
0.0259282
0.016288
0.0322317
0.0156645
0.039476
0.0145912
0.0477008
0.0129842
0.0569277
0.0107638
0.0672118
0.0077886
0.0784399
0.00419583
-0.000980597
0.0910763
-9.93198e-06
0.000542959
4.6417e-06
0.00188107
9.59886e-05
0.00337196
0.000311942
0.00490241
0.00069283
0.00638378
0.00127571
0.00775127
0.00209844
0.00896245
0.00320456
0.00999411
0.00464525
0.0108367
0.00647997
0.0114881
0.00877543
0.0119467
0.0116036
0.012207
0.0150391
0.0122553
0.0191571
0.0120679
0.024031
0.0116107
0.0297304
0.0108388
0.0363204
0.00969798
0.0438607
0.00812419
0.0524052
0.00604673
0.0620031
0.00338633
0.0726729
9.40469e-05
0.0845471
-0.00408559
0.0974229
-0.00867998
-0.0155278
0.11197
-9.05954e-06
0.000552018
2.99051e-05
0.00184211
0.000186055
0.00321582
0.000520692
0.00456777
0.00108479
0.00581968
0.00192289
0.00691317
0.00307782
0.00780752
0.00459495
0.00847699
0.00652503
0.00890665
0.0089256
0.0090875
0.0118608
0.0090115
0.0154005
0.00866732
0.0196187
0.00803718
0.0245917
0.0070949
0.0303976
0.00580478
0.0371146
0.00412184
0.0448193
0.00199325
0.0535891
-0.000645577
0.0634994
-0.00386362
0.0746253
-0.00773953
0.0870146
-0.0122953
0.10078
-0.0178513
0.115672
-0.0235715
-0.0322069
0.132351
-3.10521e-05
0.00058307
-1.83967e-05
0.00182945
0.000132204
0.00306521
0.00049957
0.00420041
0.00114829
0.00517096
0.00213378
0.00592768
0.00350746
0.00643385
0.0053214
0.00666305
0.00763195
0.0065961
0.010502
0.00621743
0.0140021
0.00551137
0.0182106
0.00445883
0.023213
0.00303485
0.0291003
0.00120752
0.0359692
-0.0010641
0.0439181
-0.00382706
0.0530448
-0.00713343
0.0634394
-0.0110402
0.0751768
-0.0156011
0.0883132
-0.0208759
0.102856
-0.026838
0.118801
-0.0337965
0.135917
-0.0406877
-0.0506177
0.154328
-6.64322e-05
0.000649502
-0.000107592
0.00187061
3.58843e-08
0.00295759
0.0003559
0.00384454
0.00104202
0.00448484
0.00212981
0.00483989
0.0036864
0.00487727
0.00578007
0.00456939
0.00848451
0.00389166
0.0118816
0.00282033
0.0160627
0.0013303
0.021128
-0.000606534
0.027185
-0.00302209
0.0343441
-0.00595155
0.0427123
-0.00943236
0.0523864
-0.0135011
0.0634432
-0.0181902
0.0759267
-0.0235237
0.0898365
-0.0295109
0.105109
-0.0361486
0.12163
-0.0433586
0.139118
-0.0512846
0.157457
-0.0590265
-0.069062
0.175901
-9.98033e-05
0.000749306
-0.000187817
0.00195863
-0.000109646
0.00287941
0.000257873
0.00347703
0.00101953
0.00372317
0.00227065
0.00358877
0.00410427
0.00304365
0.00661682
0.00205684
0.00991161
0.000596864
0.0140997
-0.00136778
0.0192981
-0.00386809
0.0256248
-0.00693323
0.0331911
-0.0105884
0.0420915
-0.014852
0.0523919
-0.0197327
0.0641166
-0.0252259
0.0772373
-0.0313109
0.0916622
-0.0379486
0.107227
-0.0450753
0.123693
-0.0526145
0.140761
-0.0604268
0.157957
-0.0684806
0.175154
-0.0762241
-0.0849278
0.19102
-0.000114682
0.000863987
-0.00020492
0.00204886
-8.67692e-05
0.00276126
0.000389549
0.00300071
0.00135811
0.00275461
0.00294615
0.00200073
0.00528059
0.000709215
0.00849184
-0.00115441
0.0127127
-0.00362403
0.0180737
-0.00672879
0.0246941
-0.0104884
0.0326697
-0.0149089
0.0420597
-0.0199783
0.0528722
-0.0256645
0.0650531
-0.0319136
0.0784773
-0.0386501
0.092945
-0.0457786
0.108186
-0.0531894
0.123863
-0.0607526
0.139607
-0.0683586
0.15501
-0.0758291
0.169694
-0.0831648
0.18342
-0.0899506
-0.0966971
0.19519
-9.87872e-05
-0.000117743
0.000152391
0.000890713
0.00226328
0.00443202
0.0075548
0.0117854
0.0172629
0.0240985
0.0323605
0.0420576
0.0531263
0.0654242
0.0787287
0.0927454
0.107122
0.12147
0.135391
0.148513
0.160503
0.171208
0.180513
0.189091
-0.00740249
0.0482282
-0.0545416
-0.000205856
0.0435064
-0.050703
0.00776868
0.035808
-0.0437825
0.0163834
0.0249657
-0.0335803
0.0254116
0.0109122
-0.0199405
0.0345709
-0.00626115
-0.00289824
0.0438737
-0.0262873
0.0169845
0.0530524
-0.0486358
0.0394571
0.0619475
-0.0721302
0.0632351
0.0703385
-0.0949726
0.0865816
0.0778027
-0.115011
0.107547
0.0837804
-0.130393
0.124415
0.0876891
-0.140222
0.136313
0.0888656
-0.144976
0.1438
0.0867345
-0.146752
0.148883
0.0816783
-0.148459
0.153515
0.0759054
-0.150911
0.156684
0.0728957
-0.14988
0.15289
0.0753184
-0.137161
0.134738
0.0833372
-0.10623
0.0982111
0.0952419
-0.0574254
0.0455207
0.108826
0.00211423
-0.0156984
0.12211
0.0619269
-0.0752109
0.133329
0.111818
-0.123037
0.141307
0.146741
-0.154719
0.145991
0.167126
-0.171809
0.148052
0.176335
-0.178396
0.147537
0.180241
-0.179726
0.143723
0.187387
-0.183573
0.136996
0.201127
-0.1944
0.130126
0.209422
-0.202552
0.126717
0.190101
-0.186692
0.128489
0.129055
-0.130826
0.134679
0.0376796
-0.0438691
0.142564
-0.0584028
0.0505172
0.149857
-0.134046
0.126753
0.155196
-0.181295
0.175956
0.157691
-0.202344
0.199849
0.155927
-0.21345
0.215214
0.14942
-0.226562
0.233068
0.140559
-0.234244
0.243105
0.133895
-0.218032
0.224696
0.132654
-0.148958
0.150199
0.137196
-0.0525699
0.0480283
0.144723
0.0611445
-0.0686715
0.15126
0.139965
-0.146502
0.152686
0.205012
-0.206438
0.148196
0.250726
-0.246236
0.141371
0.270473
-0.263648
0.137575
0.258559
-0.254763
0.13939
0.144484
-0.146298
0.144822
0.0512578
-0.0566901
0.14805
-0.0978899
0.0946622
0.146866
-0.178821
0.180005
0.143712
-0.259264
0.262418
0.14207
-0.322984
0.324626
0.142115
-0.194866
0.194821
0.142063
-0.172501
0.172554
0.140476
0.0936469
-0.09206
0.217076
-0.215204
0.019524
0.0411395
0.0270718
0.0359586
0.0349594
0.0279203
0.0430131
0.016912
0.0510455
0.00287977
0.0588889
-0.0141045
0.0664905
-0.0338889
0.0737573
-0.0559026
0.0805598
-0.0789327
0.086647
-0.10106
0.0916201
-0.119985
0.0950391
-0.133812
0.0965797
-0.141762
0.0959393
-0.144336
0.0925523
-0.143365
0.0860402
-0.141947
0.0775797
-0.142451
0.0704886
-0.142789
0.0686352
-0.135307
0.0737929
-0.111388
0.0848475
-0.0684799
0.099297
-0.0123353
0.114435
0.0467887
0.127938
0.098315
0.138269
0.13641
0.145165
0.16023
0.149049
0.17245
0.149851
0.179438
0.147151
0.190088
0.141733
0.206544
0.13624
0.214915
0.133618
0.192723
0.135093
0.127579
0.140119
0.0326535
0.146359
-0.0646424
0.151839
-0.139526
0.155441
-0.184897
0.156639
-0.203542
0.154134
-0.210945
0.147181
-0.219609
0.137849
-0.224912
0.130872
-0.211055
0.12987
-0.147955
0.135308
-0.058008
0.143959
0.0524932
0.151333
0.132591
0.153326
0.203019
0.149197
0.254856
0.142629
0.277042
0.138696
0.262492
0.140162
0.143017
0.14543
0.0459903
0.14859
-0.10105
0.147316
-0.177547
0.143889
-0.255837
0.142178
-0.321273
0.142042
-0.19473
0.141753
-0.172213
0.140054
0.0953462
0.21899
0.0474793
0.0339718
0.0548999
0.028538
0.062335
0.0204852
0.069558
0.00968906
0.0765102
-0.00407241
0.0829794
-0.0205737
0.0889556
-0.0398651
0.0943729
-0.0613199
0.099088
-0.0836478
0.102839
-0.104811
0.105277
-0.122422
0.106085
-0.13462
0.105157
-0.140834
0.102592
-0.141772
0.0981751
-0.138948
0.0911386
-0.134911
0.0814346
-0.132747
0.0713927
-0.132747
0.0653372
-0.129252
0.0667654
-0.112816
0.0759095
-0.077624
0.0903406
-0.0267665
0.106799
0.0303299
0.122284
0.0828301
0.134899
0.123795
0.144055
0.151073
0.149855
0.166651
0.15217
0.177123
0.150902
0.191356
0.147068
0.210378
0.143016
0.218967
0.141014
0.194724
0.141951
0.126643
0.145531
0.0290739
0.149989
-0.0691001
0.153631
-0.143169
0.155527
-0.186793
0.155494
-0.203509
0.152405
-0.207856
0.145247
-0.21245
0.135635
-0.215301
0.128354
-0.203774
0.127453
-0.147053
0.133588
-0.0641438
0.143213
0.042869
0.151398
0.124406
0.154052
0.200364
0.150414
0.258494
0.144177
0.283278
0.140098
0.266571
0.141118
0.141996
0.146154
0.040955
0.149246
-0.104142
0.147881
-0.176183
0.144133
-0.252088
0.142326
-0.319466
0.142066
-0.194469
0.141597
-0.171744
0.139803
0.0971398
0.220939
0.0741644
0.0269997
0.0811934
0.021509
0.0880611
0.0136174
0.0944611
0.00328908
0.100445
-0.0100566
0.105742
-0.0258706
0.11033
-0.0444526
0.114079
-0.0650692
0.116789
-0.0863576
0.118186
-0.106208
0.118025
-0.122262
0.116225
-0.13282
0.112922
-0.137531
0.10846
-0.13731
0.103057
-0.133546
0.0961085
-0.127962
0.0866021
-0.12324
0.0752608
-0.121406
0.0657916
-0.119783
0.0629716
-0.109996
0.0689993
-0.0836517
0.0822643
-0.0400314
0.0993089
0.0132852
0.116355
0.0657836
0.131107
0.109044
0.142517
0.139664
0.150312
0.158856
0.154334
0.173101
0.154773
0.190918
0.152737
0.212414
0.150143
0.221562
0.148617
0.19625
0.148852
0.126408
0.150768
0.0271575
0.153382
-0.0717146
0.155216
-0.145002
0.155469
-0.187046
0.154252
-0.202291
0.150685
-0.20429
0.143537
-0.205301
0.133868
-0.205632
0.126316
-0.196223
0.125364
-0.146101
0.131983
-0.0707631
0.142431
0.0324214
0.151416
0.11542
0.154838
0.196942
0.151834
0.261498
0.146021
0.289091
0.1418
0.270793
0.142282
0.141514
0.14698
0.036257
0.149998
-0.10716
0.148549
-0.174735
0.144439
-0.247978
0.142502
-0.317529
0.142174
-0.194142
0.14158
-0.17115
0.139715
0.099005
0.222912
0.0979042
0.0201718
0.104552
0.0148613
0.110788
0.00738119
0.11687
-0.00279299
0.122007
-0.0151932
0.126394
-0.0302582
0.129822
-0.0478801
0.132043
-0.0672902
0.132777
-0.0870915
0.131787
-0.105219
0.129028
-0.119502
0.124731
-0.128523
0.119308
-0.132109
0.11322
-0.131221
0.106884
-0.12721
0.100136
-0.121214
0.0917632
-0.114868
0.0809371
-0.11058
0.0696792
-0.108525
0.0628835
-0.1032
0.0647883
-0.0855565
0.0755385
-0.0507816
0.0921927
-0.00336894
0.110186
0.0477908
0.12678
0.092449
0.140322
0.126122
0.150133
0.149044
0.156024
0.16721
0.158397
0.188544
0.158334
0.212477
0.157248
0.222648
0.156123
0.197375
0.155478
0.127053
0.155747
0.0268889
0.156459
-0.0724266
0.156535
-0.145079
0.155232
-0.185743
0.152892
-0.199951
0.148932
-0.20033
0.141978
-0.198348
0.132473
-0.196127
0.124724
-0.188474
0.123571
-0.144948
0.130428
-0.0776202
0.141549
0.0213007
0.15133
0.105639
0.15564
0.192632
0.153424
0.263714
0.148142
0.294374
0.143792
0.275143
0.143644
0.141662
0.147912
0.0319887
0.150823
-0.110071
0.149308
-0.173219
0.144804
-0.243474
0.142692
-0.315417
0.142353
-0.193803
0.141688
-0.170486
0.139779
0.100914
0.224894
0.118613
0.0135291
0.125028
0.00844648
0.130908
0.00150118
0.136459
-0.00834462
0.141009
-0.0197426
0.14458
-0.0338298
0.146863
-0.050163
0.147516
-0.067943
0.146239
-0.0858141
0.142907
-0.101887
0.137713
-0.114308
0.131179
-0.121989
0.123979
-0.124908
0.116672
-0.123914
0.109648
-0.120187
0.103021
-0.114586
0.0959746
-0.107821
0.0869486
-0.101554
0.0759387
-0.0975147
0.0664826
-0.093744
0.0639181
-0.082992
0.0709401
-0.0578036
0.0856204
-0.0180493
0.103856
0.0295549
0.121812
0.0744934
0.137229
0.110705
0.148998
0.137276
0.156854
0.159353
0.161322
0.184077
0.163364
0.210435
0.163843
0.222168
0.163135
0.198083
0.16165
0.128538
0.160263
0.0282763
0.159127
-0.071291
0.157524
-0.143476
0.154777
-0.182996
0.151383
-0.196556
0.147084
-0.196031
0.14047
-0.191734
0.131342
-0.186999
0.123498
-0.18063
0.122016
-0.143466
0.128865
-0.084469
0.140493
0.00967292
0.15107
0.0950618
0.156389
0.187314
0.155123
0.26498
0.150491
0.299005
0.146043
0.279591
0.145204
0.142501
0.148923
0.0282698
0.151694
-0.112842
0.150138
-0.171664
0.145221
-0.238556
0.142887
-0.313083
0.142587
-0.193502
0.141905
-0.169804
0.139984
0.102836
0.226864
0.138331
0.00754951
0.14401
0.00276761
0.149806
-0.0042955
0.154359
-0.0128971
0.157994
-0.023378
0.16041
-0.0362451
0.161203
-0.0509566
0.160004
-0.0667436
0.156579
-0.0823895
0.150982
-0.0962903
0.143649
-0.106975
0.135313
-0.113653
0.126788
-0.116383
0.11869
-0.115816
0.111323
-0.11282
0.104804
-0.108068
0.0988004
-0.101817
0.0919553
-0.0947087
0.0828966
-0.088456
0.0728952
-0.0837425
0.0666635
-0.0767604
0.0689612
-0.0601013
0.0802872
-0.0293752
0.0975393
0.0123027
0.116127
0.0559055
0.133037
0.0937958
0.146621
0.123692
0.156463
0.149511
0.163112
0.177428
0.167329
0.206217
0.169423
0.220074
0.169232
0.198275
0.16706
0.13071
0.164187
0.0311494
0.161293
-0.0683969
0.158108
-0.140292
0.154057
-0.178945
0.149693
-0.192193
0.145087
-0.191425
0.13891
-0.185557
0.130344
-0.178433
0.122532
-0.172818
0.120631
-0.141565
0.127229
-0.0910669
0.139187
-0.00228499
0.150553
0.0836963
0.157
0.180867
0.156848
0.265131
0.152993
0.30286
0.148495
0.284089
0.14694
0.144056
0.149992
0.0252184
0.15258
-0.11543
0.151018
-0.170102
0.145681
-0.233219
0.143078
-0.31048
0.142861
-0.193285
0.142214
-0.169158
0.140318
0.104731
0.228795
0.158787
0.00309049
0.163486
-0.00193123
0.167607
-0.00841665
0.170656
-0.015946
0.172699
-0.0254212
0.173329
-0.0368746
0.172122
-0.0497499
0.168771
-0.0633926
0.163181
-0.0768
0.155593
-0.0887019
0.146617
-0.0979984
0.137084
-0.104121
0.127804
-0.107103
0.119353
-0.107365
0.11197
-0.105437
0.105667
-0.101764
0.100334
-0.0964848
0.095252
-0.0896263
0.0888432
-0.0820472
0.0803994
-0.0752988
0.0724933
-0.0688542
0.0702502
-0.0578583
0.0769433
-0.0360684
0.0916279
-0.00238183
0.109754
0.0377794
0.127589
0.0759604
0.14276
0.108521
0.154545
0.137727
0.163382
0.168591
0.169783
0.199816
0.173525
0.216333
0.17395
0.19785
0.171384
0.133276
0.167273
0.0352602
0.162845
-0.0639682
0.158209
-0.135656
0.15301
-0.173746
0.14778
-0.186963
0.14288
-0.186524
0.137194
-0.179872
0.12934
-0.170578
0.121696
-0.165174
0.119335
-0.139204
0.125456
-0.0971876
0.13756
-0.0143893
0.14969
0.0715664
0.157372
0.173184
0.158493
0.264011
0.15555
0.305803
0.151076
0.288563
0.148804
0.146327
0.151096
0.0229261
0.153446
-0.11778
0.151921
-0.168578
0.146174
-0.227472
0.143257
-0.307563
0.14316
-0.193188
0.142595
-0.168592
0.140768
0.106558
0.230655
0.178417
0.000574715
0.180912
-0.00442648
0.182712
-0.0102163
0.183603
-0.0168377
0.183468
-0.0252855
0.181865
-0.0352715
0.178433
-0.0463183
0.172993
-0.0579524
0.165593
-0.0694006
0.156604
-0.079712
0.146692
-0.0880866
0.136655
-0.0940838
0.127199
-0.0976467
0.118797
-0.098963
0.111637
-0.0982771
0.105675
-0.0958022
0.100816
-0.0916262
0.0968209
-0.0856309
0.0927044
-0.0779306
0.0869879
-0.0695822
0.0798521
-0.0617185
0.0748152
-0.0528214
0.0766041
-0.0378573
0.0868486
-0.0126264
0.103037
0.0215911
0.120866
0.0581317
0.137216
0.0921707
0.150821
0.124122
0.161861
0.157551
0.170517
0.191159
0.175957
0.210892
0.177085
0.196723
0.174342
0.136018
0.169367
0.0402359
0.163663
-0.0582642
0.157724
-0.129717
0.151539
-0.167561
0.14557
-0.180994
0.140383
-0.181337
0.135211
-0.1747
0.12819
-0.163557
0.120849
-0.157833
0.118027
-0.136382
0.123484
-0.102645
0.135551
-0.026457
0.148395
0.0587233
0.157402
0.164177
0.159948
0.261465
0.15805
0.307701
0.153689
0.292925
0.150758
0.149258
0.152197
0.0214871
0.154259
-0.119842
0.152816
-0.167134
0.146686
-0.221342
0.143415
-0.304292
0.143474
-0.193247
0.143033
-0.168151
0.141321
0.10827
0.232404
0.191818
-0.000223317
0.192117
-0.00472527
0.191589
-0.00968857
0.190324
-0.0155727
0.188068
-0.0230294
0.184427
-0.0316305
0.179173
-0.0410644
0.172244
-0.0510235
0.163782
-0.0609379
0.154195
-0.0701251
0.144104
-0.0779955
0.134184
-0.084164
0.125003
-0.0884661
0.116928
-0.0908873
0.110113
-0.0914621
0.104541
-0.0902301
0.100112
-0.0871975
0.0967523
-0.0822714
0.0941168
-0.0752952
0.0910676
-0.066533
0.0864277
-0.0570785
0.0812353
-0.0476289
0.0794052
-0.0360272
0.0846145
-0.0178358
0.0970099
0.00919572
0.11333
0.0418115
0.130046
0.0754547
0.145156
0.109012
0.158262
0.144445
0.169084
0.180337
0.176317
0.20366
0.178406
0.194633
0.175804
0.138621
0.170444
0.0455958
0.163721
-0.0515414
0.156598
-0.122595
0.149564
-0.160526
0.143005
-0.174435
0.137544
-0.175875
0.13287
-0.170026
0.126788
-0.157475
0.119879
-0.150924
0.11661
-0.133113
0.121247
-0.107282
0.133113
-0.0383224
0.146593
0.0452428
0.156978
0.153791
0.161067
0.257376
0.160355
0.308413
0.156232
0.297048
0.152728
0.152761
0.153278
0.0209377
0.154988
-0.121552
0.153668
-0.165814
0.147208
-0.214882
0.143555
-0.30064
0.143796
-0.193488
0.143509
-0.167865
0.141966
0.109813
0.234001
0.195009
-4.29137e-05
0.193914
-0.00362976
0.191931
-0.00770622
0.189285
-0.0129269
0.185684
-0.019428
0.180865
-0.026811
0.174722
-0.0349218
0.167257
-0.0435588
0.158647
-0.0523277
0.149273
-0.0607513
0.139652
-0.0683743
0.130316
-0.0748281
0.121705
-0.0798546
0.114105
-0.0832881
0.107659
-0.0850156
0.102397
-0.0849677
0.0982799
-0.0830809
0.0952767
-0.0792681
0.0933595
-0.0733779
0.0920742
-0.0652478
0.0902138
-0.0552182
0.0870258
-0.0444409
0.084204
-0.0332054
0.0854641
-0.0190959
0.0931022
0.00155769
0.106175
0.0287387
0.121859
0.0597711
0.137765
0.0931055
0.152825
0.129385
0.166041
0.167121
0.175179
0.194522
0.178126
0.191686
0.175993
0.140754
0.170619
0.0509696
0.163256
-0.0441779
0.155067
-0.114407
0.147291
-0.15275
0.140282
-0.167426
0.134534
-0.170127
0.130245
-0.165738
0.125138
-0.152368
0.118775
-0.144561
0.115062
-0.1294
0.118731
-0.110951
0.130197
-0.0497877
0.144196
0.0312432
0.156028
0.14196
0.1618
0.251604
0.162368
0.307845
0.158595
0.300821
0.154706
0.15665
0.154298
0.0213451
0.155626
-0.12288
0.154457
-0.164645
0.147734
-0.208159
0.143694
-0.2966
0.144128
-0.193922
0.14401
-0.167747
0.142693
0.111131
0.235398
0.18838
0.000668602
0.186727
-0.00197686
0.184461
-0.00544064
0.181533
-0.00999798
0.177644
-0.0155395
0.172737
-0.021904
0.166779
-0.028964
0.159792
-0.0365717
0.151944
-0.0444798
0.143549
-0.0523557
0.135003
-0.0598287
0.12671
-0.0665354
0.119006
-0.0721504
0.112125
-0.0764073
0.1062
-0.0790905
0.101285
-0.0800529
0.0973935
-0.0791892
0.0945142
-0.0763888
0.0926908
-0.0715545
0.0919506
-0.0645076
0.0917414
-0.055009
0.0908932
-0.0435926
0.0891812
-0.0314934
0.0886274
-0.0185421
0.0920855
-0.00190043
0.100998
0.0198261
0.11387
0.0468992
0.128832
0.078143
0.144591
0.113626
0.159583
0.15213
0.170647
0.183457
0.175306
0.187028
0.174701
0.141359
0.170289
0.0553816
0.162337
-0.0362263
0.15322
-0.105289
0.144911
-0.144442
0.137634
-0.160149
0.131591
-0.164084
0.127494
-0.16164
0.123295
-0.148169
0.117571
-0.138838
0.113418
-0.125246
0.116082
-0.113616
0.126944
-0.0606496
0.141265
0.0169228
0.154342
0.128883
0.161856
0.24409
0.163879
0.305823
0.160678
0.304022
0.156562
0.160766
0.155272
0.0226351
0.156153
-0.123761
0.155163
-0.163655
0.148257
-0.201253
0.143834
-0.292177
0.144459
-0.194547
0.144534
-0.167821
0.143494
0.112171
0.236549
0.20961
0.00123706
-0.210178
0.209772
-0.00213934
0.209916
-0.00558418
0.209745
-0.00982726
0.209117
-0.0149108
0.207896
-0.020683
0.205966
-0.0270346
0.203216
-0.0338218
0.199585
-0.0408483
0.19509
-0.0478605
0.189817
-0.0545564
0.183899
-0.0606174
0.177487
-0.0657379
0.170736
-0.0696569
0.163801
-0.072155
0.15682
-0.0730719
0.149922
-0.0722912
0.143207
-0.0696736
0.136753
-0.065101
0.130721
-0.0584754
0.125157
-0.0494449
0.119491
-0.0379263
0.112915
-0.0249178
0.105874
-0.011501
0.100404
0.00356962
0.098298
0.021932
0.100301
0.0448965
0.105556
0.0728873
0.113042
0.106141
0.121965
0.143207
0.132411
0.173011
0.146293
0.173145
0.163349
0.124304
0.177235
0.0414955
0.183683
-0.0426741
0.182565
-0.104172
0.176777
-0.138654
0.168664
-0.152037
0.159993
-0.155412
0.152368
-0.154015
0.14495
-0.140751
0.136204
-0.130092
0.128142
-0.117184
0.124718
-0.110192
0.127441
-0.0633726
0.132607
0.0117568
0.137013
0.124477
0.139603
0.241499
0.141953
0.303473
0.145171
0.300804
0.149041
0.156897
0.152845
0.0188305
0.15545
-0.126366
0.153846
-0.162051
0.146617
-0.194024
0.139611
-0.285171
0.136917
-0.191853
0.133644
-0.164548
0.130684
0.115131
0.237603
0.219548
0.001478
-0.219789
0.219345
-0.00193593
0.219275
-0.005515
0.218945
-0.00949645
0.218125
-0.0140915
0.216729
-0.0192869
0.214668
-0.0249737
0.21186
-0.0310139
0.208256
-0.0372442
0.203857
-0.0434613
0.19872
-0.0494192
0.19295
-0.0548475
0.186687
-0.0594748
0.18009
-0.0630598
0.173324
-0.065389
0.166542
-0.0662902
0.15988
-0.0656285
0.153453
-0.0632472
0.147338
-0.0589859
0.141627
-0.0527646
0.136478
-0.0442955
0.131751
-0.0331996
0.12671
-0.0198765
0.120745
-0.00553624
0.114845
0.00947004
0.110889
0.0258877
0.110578
0.0452071
0.114365
0.0691008
0.121667
0.0988383
0.131499
0.133375
0.144186
0.160324
0.161036
0.156295
0.179585
0.105755
0.193396
0.0276842
0.198415
-0.0476925
0.1957
-0.101458
0.18854
-0.131493
0.179545
-0.143042
0.1702
-0.146067
0.162099
-0.145915
0.154675
-0.133327
0.146074
-0.12149
0.137566
-0.108677
0.133363
-0.10599
0.135593
-0.0656027
0.140916
0.00643447
0.145955
0.119438
0.149471
0.237983
0.152983
0.299961
0.15721
0.296577
0.161455
0.152652
0.16502
0.015265
0.16701
-0.128356
0.165029
-0.16007
0.156845
-0.185839
0.148932
-0.277259
0.145893
-0.188814
0.142352
-0.161006
0.139203
0.118279
0.238627
0.228831
0.00144882
-0.228801
0.22867
-0.00177534
0.228419
-0.00526359
0.227918
-0.0089957
0.226985
-0.0131587
0.225506
-0.0178082
0.223409
-0.0228763
0.220635
-0.0282403
0.217147
-0.0337558
0.212939
-0.0392532
0.20805