/*--------------------------------*- C++ -*----------------------------------*\
| =========                 |                                                 |
| \\      /  F ield         | OpenFOAM: The Open Source CFD Toolbox           |
|  \\    /   O peration     | Version:  2512                                  |
|   \\  /    A nd           | Website:  www.openfoam.com                      |
|    \\/     M anipulation  |                                                 |
\*---------------------------------------------------------------------------*/
FoamFile
{
    version     2.0;
    format      ascii;
    arch        "LSB;label=32;scalar=64";
    class       surfaceScalarField;
    location    "93.75";
    object      phi;
}
// * * * * * * * * * * * * * * * * * * * * * * * * * * * * * * * * * * * * * //

dimensions      [0 3 -1 0 0 0 0];

oriented        oriented;

internalField   nonuniform List<scalar> 
26232
(
0.000138703
0.000984441
-0.00112314
0.000757503
0.00171633
-0.00233513
0.00202344
0.00132675
-0.00259268
0.0040876
-0.000157104
-0.00190706
0.00709916
-0.00272127
-0.000290287
0.0112032
-0.00635383
0.00224976
0.0165284
-0.0110331
0.00570797
0.0231648
-0.0167114
0.0100749
0.0311386
-0.0232996
0.0153257
0.0403881
-0.030657
0.0214076
0.0507496
-0.0385905
0.028229
0.0619587
-0.0468634
0.0356543
0.0736676
-0.0552142
0.0435053
0.0854778
-0.0633809
0.0515707
0.0969827
-0.0711258
0.0596209
0.107813
-0.0782587
0.0674283
0.117678
-0.0846526
0.0747873
0.126396
-0.090252
0.0815344
0.133906
-0.0950685
0.0875588
0.140256
-0.099176
0.0928259
0.145582
-0.102657
0.0973306
0.150025
-0.105694
0.101251
0.15353
-0.108072
0.104567
-0.110639
0.108067
0.156102
0.000169762
0.000814679
0.000926488
0.000959606
0.00248087
-0.000227631
0.00502203
-0.00269826
0.00872369
-0.00642294
0.0137319
-0.011362
0.0201397
-0.0174409
0.0279572
-0.0245288
0.0370858
-0.0324282
0.0473074
-0.0408787
0.0582935
-0.0495766
0.0696359
-0.0582058
0.0808938
-0.0664721
0.0916476
-0.0741347
0.10155
-0.0810283
0.110365
-0.0870738
0.117988
-0.0922757
0.124444
-0.0967075
0.129865
-0.100489
0.13445
-0.103761
0.138448
-0.106655
0.142059
-0.109305
0.145693
-0.111705
-0.114337
0.149391
0.000234131
0.000580549
0.00120689
-1.31518e-05
0.0031602
-0.00218094
0.00630567
-0.00584374
0.0108164
-0.0109337
0.016799
-0.0173446
0.0242578
-0.0248996
0.0330658
-0.0333369
0.0429565
-0.0423189
0.0535428
-0.0514649
0.0643631
-0.0603969
0.0749445
-0.0687872
0.0848675
-0.0763951
0.0938199
-0.0830871
0.101629
-0.0888373
0.108267
-0.0937116
0.113831
-0.0978397
0.118506
-0.101383
0.122519
-0.104503
0.1261
-0.107341
0.129446
-0.110002
0.132717
-0.112576
0.136048
-0.115036
-0.117695
0.139406
0.000329801
0.000250747
0.00159034
-0.00127369
0.00403638
-0.00462699
0.00787578
-0.00968314
0.0132413
-0.0162992
0.0201478
-0.0242511
0.0284564
-0.0332083
0.0378656
-0.042746
0.0479394
-0.0523927
0.0581704
-0.0616959
0.0680592
-0.0702857
0.0771905
-0.0779184
0.0852869
-0.0844916
0.0922315
-0.0900317
0.0980564
-0.0946622
0.102907
-0.0985621
0.106992
-0.101925
0.110536
-0.104927
0.113742
-0.107709
0.116776
-0.110375
0.119763
-0.112989
0.122786
-0.115599
0.125942
-0.118192
-0.120979
0.129225
0.000450891
-0.000200143
0.00205435
-0.00287715
0.00505333
-0.00762596
0.00961566
-0.0142455
0.0157845
-0.022468
0.0234305
-0.0318971
0.0322356
-0.0420134
0.0417267
-0.0522372
0.0513542
-0.0620202
0.0605898
-0.0709315
0.0690154
-0.0787113
0.0763769
-0.08528
0.0825967
-0.0907114
0.0877475
-0.0951825
0.0920023
-0.0989171
0.0955785
-0.102138
0.0986905
-0.105037
0.101521
-0.107757
0.104208
-0.110397
0.106852
-0.113019
0.109521
-0.115658
0.112258
-0.118335
0.11511
-0.121044
-0.123902
0.118034
0.000590643
-0.000790786
0.00257037
-0.00485688
0.00613934
-0.0111949
0.0113814
-0.0194875
0.0181996
-0.0292863
0.0262833
-0.0399808
0.0351369
-0.050867
0.0441705
-0.0612707
0.0528188
-0.0706685
0.0606455
-0.0787582
0.0674013
-0.0854671
0.0730289
-0.0909076
0.0776242
-0.0953067
0.0813756
-0.0989339
0.0845032
-0.102045
0.0872129
-0.104848
0.0896718
-0.107496
0.0920026
-0.110088
0.0942894
-0.112684
0.0965877
-0.115317
0.0989353
-0.118005
0.101356
-0.120756
0.10388
-0.123568
-0.126502
0.10648
0.000742345
-0.00153313
0.00310725
-0.00722178
0.00721519
-0.0153029
0.0130196
-0.0252919
0.0202442
-0.0365109
0.0283918
-0.0481284
0.0368369
-0.0593121
0.0449655
-0.0693994
0.0523018
-0.0780047
0.0585772
-0.0850336
0.0637334
-0.0906233
0.0678742
-0.0950484
0.0711954
-0.0986279
0.0739186
-0.101657
0.0762451
-0.104371
0.0783336
-0.106936
0.0802971
-0.109459
0.0822104
-0.112001
0.0841212
-0.114595
0.0860605
-0.117257
0.088049
-0.119994
0.0901004
-0.122808
0.0922306
-0.125698
-0.128688
0.0944162
0.000898647
-0.00243178
0.00363121
-0.00995434
0.00819812
-0.0198698
0.014382
-0.0314758
0.0217127
-0.0438416
0.0295416
-0.0559573
0.0371962
-0.0669667
0.0441362
-0.0763394
0.050045
-0.0839136
0.0548393
-0.0898278
0.0586149
-0.094399
0.0615689
-0.0980024
0.0639254
-0.100984
0.0658861
-0.103618
0.0676077
-0.106093
0.0691991
-0.108528
0.0707305
-0.110991
0.0722454
-0.113516
0.073771
-0.11612
0.0753253
-0.118811
0.0769211
-0.12159
0.0785683
-0.124455
0.080277
-0.127407
-0.130445
0.0820346
0.00105096
-0.00348274
0.00410598
-0.0130094
0.00900714
-0.0247709
0.0153423
-0.037811
0.0224657
-0.050965
0.0296461
-0.0631377
0.0362549
-0.0735755
0.0418945
-0.081979
0.046427
-0.0884461
0.0499221
-0.093323
0.0525702
-0.0970471
0.0545983
-0.100031
0.0562136
-0.1026
0.0575764
-0.104981
0.0587967
-0.107313
0.0599441
-0.109675
0.0610601
-0.112107
0.0621699
-0.114626
0.0632896
-0.11724
0.0644307
-0.119952
0.0656018
-0.122761
0.06681
-0.125663
0.0680609
-0.128658
-0.131733
0.0693483
0.00118923
-0.00467197
0.0044948
-0.0163149
0.00957129
-0.0298474
0.0158122
-0.0440519
0.0224455
-0.0575983
0.0287396
-0.0694318
0.0341811
-0.0790169
0.0385416
-0.0863395
0.0418393
-0.0917437
0.0442452
-0.0957289
0.0459874
-0.0987893
0.0472819
-0.101325
0.0482983
-0.103616
0.049153
-0.105835
0.0499185
-0.108079
0.0506371
-0.110394
0.0513334
-0.112803
0.0520224
-0.115315
0.0527147
-0.117932
0.053418
-0.120655
0.0541388
-0.123481
0.0548823
-0.126407
0.0556522
-0.129428
-0.13253
0.0564491
0.00130339
-0.00597536
0.00476571
-0.0197773
0.00983995
-0.0349217
0.0157518
-0.0499638
0.0216725
-0.063519
0.0269436
-0.0747029
0.0312046
-0.0832779
0.0343862
-0.0895211
0.0366196
-0.0939771
0.0381262
-0.0972354
0.0391321
-0.0997952
0.039821
-0.102014
0.0403211
-0.104116
0.0407121
-0.106226
0.0410397
-0.108406
0.0413291
-0.110683
0.0415953
-0.113069
0.0418481
-0.115567
0.0420948
-0.118179
0.0423413
-0.120902
0.0425923
-0.123732
0.0428511
-0.126666
0.0431191
-0.129696
-0.13281
0.0433999
0.00138746
-0.00736282
0.00489886
-0.0232886
0.00979064
-0.0398134
0.0151715
-0.0553446
0.0202292
-0.0685767
0.0244294
-0.0789031
0.0275692
-0.0864176
0.0297058
-0.0916577
0.0310373
-0.0953086
0.0317962
-0.0979944
0.0321839
-0.100183
0.0323458
-0.102176
0.0323735
-0.104144
0.0323193
-0.106172
0.0322113
-0.108298
0.0320648
-0.110537
0.0318893
-0.112894
0.0316917
-0.11537
0.0314775
-0.117965
0.0312517
-0.120676
0.0310185
-0.123499
0.0307805
-0.126428
0.0305379
-0.129453
0.030296
-0.132569
-0.000250978
0.00211679
-0.00186581
-0.000886103
0.00480519
-0.00417007
-0.00183225
0.00642719
-0.00548104
-0.00303167
0.00725394
-0.00605452
-0.00443825
0.00751167
-0.00610509
-0.00601632
0.00737959
-0.00580152
-0.00773886
0.00698414
-0.0052616
-0.00958515
0.00639968
-0.00455339
-0.0115385
0.00565577
-0.0037024
-0.0135844
0.00474811
-0.00270221
-0.0157097
0.00365045
-0.00152512
-0.0178996
0.00232374
-0.000133911
-0.0201247
0.000720033
0.00150509
-0.0223791
-0.00118159
0.00343598
-0.0246312
-0.00343817
0.00569026
-0.0268489
-0.00607522
0.00829291
-0.0289948
-0.00911226
0.0112582
-0.031027
-0.0125545
0.0145867
-0.0329002
-0.0163887
0.0182618
-0.0345688
-0.0205785
0.0222471
-0.0359916
-0.0250619
0.0264847
-0.0371364
-0.0297511
0.030896
-0.0379942
-0.0345294
0.0353871
-0.0392305
-0.0386154
0.0398517
-0.000190416
0.0023072
-0.000700133
0.00531491
-0.00148743
0.00721449
-0.00251141
0.00827791
-0.0037327
0.00873296
-0.00511598
0.00876287
-0.00663125
0.00849941
-0.00825393
0.00802235
-0.00996414
0.00736598
-0.0117456
0.00652962
-0.0135843
0.00548908
-0.0154669
0.00420641
-0.0173847
0.00263784
-0.0192937
0.000727376
-0.0212087
-0.0015232
-0.0230912
-0.00419275
-0.0249148
-0.00728858
-0.02665
-0.0108193
-0.0282651
-0.0147736
-0.029729
-0.0191147
-0.031016
-0.0237749
-0.0321132
-0.0286539
-0.033021
-0.0336216
-0.0384426
-0.033809
-0.000111613
0.00241882
-0.00045071
0.00565401
-0.00101091
0.00777469
-0.00177023
0.00903724
-0.00269707
0.0096598
-0.00375621
0.00982201
-0.00491321
0.00965641
-0.00613688
0.00924602
-0.00740031
0.00862941
-0.00868057
0.00780988
-0.00995774
0.00676625
-0.0112138
0.00546242
-0.0124306
0.00385469
-0.0135986
0.00189539
-0.0146763
-0.000445532
-0.0156576
-0.00321145
-0.0165177
-0.00642844
-0.0172338
-0.0101032
-0.0177837
-0.0142236
-0.0181473
-0.0187511
-0.0183093
-0.0236128
-0.0182726
-0.0286906
-0.0180666
-0.0338275
-0.0389343
-0.0175749
-2.34257e-05
0.00244224
-0.000162947
0.00579353
-0.000447011
0.00805875
-0.000872868
0.0094631
-0.00141745
0.0102044
-0.0020462
0.0104508
-0.00271992
0.0103301
-0.00339947
0.00992557
-0.00404836
0.0092783
-0.00463363
0.00839515
-0.00512546
0.00725807
-0.00549621
0.00583316
-0.00571935
0.00407783
-0.00577036
0.00194641
-0.00561765
-0.000598241
-0.0052351
-0.003594
-0.00459851
-0.00706503
-0.00368534
-0.0110164
-0.00247792
-0.015431
-0.000965157
-0.0202639
0.000858893
-0.0254369
0.00300433
-0.0308361
0.00546905
-0.0362922
-0.0414507
0.00798538
6.31775e-05
0.00237906
0.000129849
0.00572686
0.000143072
0.00804553
8.84943e-05
0.00951768
-1.92387e-05
0.0103121
-0.000147027
0.0105786
-0.000251858
0.010435
-0.000286906
0.00996062
-0.0002055
0.00919689
3.6952e-05
0.0081527
0.000482658
0.00681237
0.00117214
0.00514369
0.00214451
0.00310545
0.00343787
0.000653048
0.00509171
-0.00225208
0.00714326
-0.00564555
0.0096245
-0.00954627
0.0125616
-0.0139535
0.0159708
-0.0188403
0.0198556
-0.0241487
0.024205
-0.0297862
0.0289945
-0.0356256
0.0341393
-0.0414371
-0.0471395
0.0398282
0.000137014
0.00224205
0.000392439
0.00547143
0.000692123
0.00774584
0.00101033
0.00919947
0.00135478
0.00996766
0.00175647
0.0101769
0.00226098
0.00993044
0.00292163
0.00929997
0.00379469
0.00832383
0.0049367
0.00701069
0.00640322
0.00534585
0.00824842
0.00329848
0.0105264
0.000827479
0.0132891
-0.00210969
0.0165879
-0.00555083
0.0204675
-0.00952519
0.0249652
-0.0140439
0.0301052
-0.0190935
0.0358945
-0.0246295
0.0423177
-0.030572
0.0493318
-0.0368003
0.0568819
-0.0431758
0.0648708
-0.0494259
-0.0556915
0.0734227
0.000189209
0.00205284
0.000595288
0.00506535
0.00114166
0.00719947
0.0017992
0.00854194
0.0025726
0.00919425
0.00349189
0.00925758
0.00460482
0.00881751
0.00597042
0.00793438
0.00765413
0.00664013
0.00972459
0.00494022
0.012252
0.00281849
0.0153025
0.000247894
0.0189512
-0.00282116
0.0232586
-0.00641712
0.0282835
-0.0105758
0.0340716
-0.0153133
0.0406502
-0.0206225
0.0480215
-0.0264649
0.056157
-0.032765
0.0649934
-0.0394083
0.0744342
-0.0462411
0.0843529
-0.0530944
0.0945955
-0.0596685
-0.066287
0.105191
0.000214789
0.00183805
0.000720303
0.00455984
0.00145372
0.00646605
0.00239247
0.00760319
0.00354427
0.00804245
0.00494164
0.0078602
0.00663655
0.0071226
0.00869515
0.00587578
0.0111933
0.00414198
0.014213
0.00192051
0.0178388
-0.00080727
0.0221592
-0.00407249
0.0272473
-0.00790931
0.0331755
-0.0123453
0.0399941
-0.0173943
0.0477265
-0.0230457
0.0563604
-0.0292564
0.0658407
-0.0359451
0.0760663
-0.0429906
0.0868891
-0.0502312
0.0981351
-0.0574871
0.109583
-0.0645426
0.121064
-0.071149
-0.0775904
0.132367
0.000214115
0.00162394
0.000766513
0.00400744
0.00162331
0.00560925
0.00277904
0.00644745
0.00425255
0.00656895
0.00608528
0.00602747
0.00833867
0.00486921
0.0110905
0.00312397
0.0144299
0.000802518
0.018455
-0.00210458
0.0232634
-0.0056156
0.028946
-0.00975511
0.0355777
-0.0145411
0.0432072
-0.0199748
0.0518441
-0.0260312
0.0614489
-0.0326505
0.0719259
-0.0397334
0.0831218
-0.047141
0.0948316
-0.0547004
0.106809
-0.0622084
0.118796
-0.0694745
0.130512
-0.0762585
0.141822
-0.0824587
-0.0880744
0.152306
0.000193465
0.00143047
0.000752617
0.00344829
0.00168477
0.0046771
0.00301179
0.00512043
0.00477305
0.00480769
0.0070277
0.00377283
0.00985429
0.00204262
0.0133471
-0.000368881
0.0176127
-0.00346302
0.0227563
-0.00724824
0.0288758
-0.0117351
0.0360448
-0.0169241
0.0442984
-0.0227947
0.053619
-0.0292954
0.0639252
-0.0363374
0.0750665
-0.0437918
0.0868267
-0.0514936
0.0989366
-0.059251
0.111094
-0.066858
0.122997
-0.0741112
0.13436
-0.0808373
0.144954
-0.0868528
0.154671
-0.092176
-0.0965634
0.163161
0.000164559
0.00126591
0.000715648
0.0028972
0.00170987
0.00368287
0.00320515
0.00362515
0.00527086
0.00274198
0.00799248
0.0010512
0.0114716
-0.00143654
0.0158207
-0.00471797
0.0211507
-0.00879303
0.0275581
-0.0136556
0.0351055
-0.0192824
0.043803
-0.0256216
0.0535925
-0.0325842
0.064338
-0.0400409
0.0758249
-0.0478243
0.0877707
-0.0557376
0.0998456
-0.0635685
0.111703
-0.0711084
0.123013
-0.0781678
0.133508
-0.0846067
0.142992
-0.0903214
0.15144
-0.0953002
0.158805
-0.0995412
-0.102856
0.165098
0.000142768
0.000704836
0.00179502
0.00351312
0.00596482
0.00926577
0.0135372
0.0188941
0.0254268
0.0331788
0.0421254
0.0521581
0.0630792
0.074609
0.0864057
0.0980964
0.109315
0.119741
0.129132
0.137351
0.144361
0.150311
0.155337
0.160548
-0.0376209
-0.0614137
0.0604192
-0.035822
-0.069227
0.0674281
-0.0329963
-0.0759902
0.0731644
-0.0289291
-0.0810313
0.0769641
-0.0234118
-0.0835803
0.0780631
-0.0163145
-0.0827715
0.0756742
-0.00764523
-0.0777756
0.0691063
0.00254486
-0.0679975
0.0578074
0.0139573
-0.0530454
0.041633
0.0259383
-0.0326225
0.0206415
0.0381557
-0.00772263
-0.00449477
0.0502971
0.0209513
-0.0330927
0.0623189
0.051428
-0.0634498
0.0738499
0.0814732
-0.0930041
0.0842409
0.108235
-0.118626
0.0927346
0.129277
-0.137771
0.0986625
0.143595
-0.149523
0.101332
0.152363
-0.155033
0.100197
0.158869
-0.157733
0.095913
0.165952
-0.161668
0.091147
0.17162
-0.166854
0.0895746
0.167399
-0.165827
0.0934056
0.143259
-0.14709
0.102109
0.0953702
-0.104073
0.113726
0.0291751
-0.0407919
0.125968
-0.0424644
0.0302215
0.136864
-0.105414
0.0945187
0.144793
-0.15007
0.142141
0.149203
-0.175658
0.171248
0.150798
-0.186744
0.185149
0.150055
-0.188346
0.189089
0.146066
-0.189054
0.193044
0.138375
-0.196708
0.204398
0.129411
-0.206308
0.215272
0.123591
-0.195171
0.200991
0.123738
-0.142773
0.142626
0.129336
-0.0546757
0.0490776
0.137587
0.04448
-0.0527315
0.146054
0.124316
-0.132782
0.152648
0.177967
-0.184561
0.15516
0.206733
-0.209246
0.151955
0.234806
-0.231601
0.144255
0.256126
-0.248426
0.136496
0.257183
-0.249425
0.133043
0.204109
-0.200656
0.135457
0.0960294
-0.0984434
0.142058
-0.021609
0.0150083
0.148864
-0.133807
0.127001
0.15117
-0.184583
0.182277
0.147294
-0.247041
0.250918
0.140472
-0.259847
0.266669
0.136542
-0.260501
0.264431
0.138344
-0.19064
0.188837
0.143058
-0.0447504
0.0400366
0.145478
0.0353588
-0.0377785
0.143419
0.226484
-0.224425
0.140814
0.249026
-0.246422
0.139823
0.312139
-0.311147
0.139188
0.272904
-0.272269
8.98264e-05
0.0015214
-0.0348785
-0.0603442
-0.0355697
-0.0685358
-0.0355887
-0.0759712
-0.034667
-0.081953
-0.0324301
-0.0858172
-0.0284893
-0.0867123
-0.0225373
-0.0837276
-0.0144776
-0.0760572
-0.00452437
-0.0629986
0.00761974
-0.0447666
0.0209607
-0.0210636
0.0347303
0.00718168
0.0486866
0.0374716
0.0623204
0.0678395
0.0749399
0.0956157
0.085667
0.11855
0.0935815
0.13568
0.0978711
0.148074
0.0984028
0.158337
0.0965729
0.167782
0.0952895
0.172903
0.0974138
0.165275
0.103791
0.136881
0.113193
0.0859685
0.123933
0.0184352
0.13423
-0.052761
0.142727
-0.113911
0.148288
-0.155632
0.150575
-0.177945
0.150381
-0.18655
0.148437
-0.186402
0.143867
-0.184484
0.135724
-0.188565
0.125979
-0.196563
0.119301
-0.188492
0.119154
-0.142627
0.125276
-0.0607976
0.134766
0.0349898
0.144799
0.114283
0.152806
0.16996
0.156318
0.203221
0.153842
0.237283
0.146837
0.263131
0.139653
0.264368
0.136148
0.207613
0.137778
0.0943997
0.14323
-0.0270611
0.149222
-0.139799
0.151164
-0.186525
0.147134
-0.243012
0.140309
-0.253022
0.13639
-0.256582
0.13834
-0.19259
0.142888
-0.0492986
0.145215
0.0330317
0.143165
0.228535
0.140519
0.251672
0.139667
0.312991
0.139258
0.273314
0.00156215
-0.0203136
-0.0576055
-0.0231016
-0.0657478
-0.0258299
-0.0732429
-0.028191
-0.0795919
-0.0297315
-0.0842767
-0.0298584
-0.0865855
-0.0279835
-0.0856025
-0.0235533
-0.0804874
-0.0162516
-0.0703004
-0.00645737
-0.0545608
0.0061839
-0.0337048
0.0207429
-0.00737736
0.03604
0.0221746
0.0514079
0.0524715
0.065963
0.0810606
0.0786442
0.105869
0.0884044
0.12592
0.0945596
0.141919
0.0974483
0.155448
0.0988554
0.166375
0.101405
0.170353
0.106908
0.159772
0.115153
0.128637
0.124612
0.0765086
0.133997
0.0090508
0.14213
-0.0608938
0.148108
-0.119889
0.151291
-0.158815
0.151584
-0.178238
0.149768
-0.184734
0.146759
-0.183393
0.141836
-0.179561
0.133591
-0.18032
0.12332
-0.186291
0.115737
-0.18091
0.115027
-0.141917
0.121396
-0.0671667
0.131937
0.0244483
0.143425
0.102796
0.152815
0.16057
0.157419
0.198616
0.15587
0.238833
0.149738
0.269262
0.143185
0.270921
0.139581
0.211217
0.140327
0.0936533
0.14452
-0.0312534
0.149614
-0.144893
0.151218
-0.188129
0.147086
-0.238879
0.140262
-0.246198
0.13632
-0.252641
0.138391
-0.194661
0.142808
-0.0537157
0.145089
0.0307507
0.143035
0.230588
0.140308
0.254399
0.139614
0.313685
0.139486
0.273441
0.00286707
0.00451696
-0.0541371
0.00014576
-0.0613766
-0.00454639
-0.0685508
-0.00952498
-0.0746133
-0.0144333
-0.0793684
-0.0186283
-0.0823905
-0.021489
-0.0827417
-0.0219479
-0.0800285
-0.0192102
-0.0730381
-0.0128999
-0.0608712
-0.00341716
-0.0431875
0.00978245
-0.020577
0.0251316
0.00682549
0.0413141
0.036289
0.0571844
0.0651904
0.0714839
0.0915694
0.0831124
0.114292
0.0915673
0.133464
0.0974725
0.149543
0.10259
0.161257
0.10893
0.164013
0.117285
0.151417
0.126687
0.119236
0.135728
0.0674679
0.143462
0.00131635
0.149421
-0.0668529
0.152923
-0.123391
0.153784
-0.159677
0.15222
-0.176674
0.148959
-0.181473
0.144983
-0.179417
0.139841
-0.174419
0.131827
-0.172307
0.121401
-0.175865
0.11297
-0.172478
0.111418
-0.140365
0.117716
-0.0734647
0.129073
0.0130912
0.141875
0.0899938
0.152609
0.149837
0.158406
0.192819
0.157977
0.239262
0.152874
0.274365
0.146983
0.276813
0.143255
0.214945
0.143043
0.0938649
0.145903
-0.0341128
0.150021
-0.149012
0.151303
-0.189411
0.147112
-0.234688
0.140286
-0.239372
0.136279
-0.248634
0.138451
-0.196832
0.142794
-0.058059
0.145087
0.0284582
0.143029
0.232647
0.140184
0.257243
0.139669
0.3142
0.13988
0.27323
0.00397702
0.0356474
-0.0499563
0.0309371
-0.0566663
0.025296
-0.0629097
0.0187589
-0.0680762
0.0114233
-0.0720327
0.00368987
-0.0746571
-0.00309797
-0.0759539
-0.00833345
-0.074793
-0.0108932
-0.0704783
-0.00977849
-0.0619859
-0.00470056
-0.0482655
0.00461381
-0.0298913
0.0180501
-0.00661084
0.0334622
0.020877
0.049565
0.0490876
0.0648961
0.0762383
0.0782726
0.100915
0.0892653
0.122471
0.0984731
0.140335
0.107314
0.152417
0.117059
0.154268
0.127637
0.14084
0.137682
0.10919
0.14598
0.0591693
0.152088
-0.00479167
0.155921
-0.0706853
0.157039
-0.124509
0.155661
-0.158299
0.152391
-0.173404
0.1479
-0.176982
0.143086
-0.174603
0.137812
-0.169144
0.130289
-0.164785
0.120113
-0.165688
0.111036
-0.163401
0.108451
-0.13778
0.114303
-0.0793168
0.126166
0.00122871
0.140081
0.0760781
0.152101
0.137817
0.159191
0.185729
0.160067
0.238386
0.156122
0.27831
0.150924
0.282011
0.147029
0.21884
0.145868
0.0950254
0.147345
-0.0355896
0.150421
-0.152088
0.151388
-0.190378
0.147181
-0.230482
0.140345
-0.232536
0.136219
-0.244507
0.138474
-0.199087
0.142817
-0.0624022
0.145193
0.0260829
0.143141
0.234698
0.140154
0.26023
0.139839
0.314516
0.140443
0.272626
0.00486413
0.0690849
-0.0456185
0.0642221
-0.0518036
0.0585552
-0.0572428
0.0519391
-0.0614601
0.0443653
-0.0644589
0.0359143
-0.0662061
0.0266584
-0.0666979
0.0175287
-0.0656634
0.00978173
-0.0627313
0.00495761
-0.0571618
0.00452795
-0.0478358
0.00891529
-0.0342787
0.0177947
-0.0154902
0.030477
0.00819469
0.0452474
0.0343171
0.0605581
0.0609276
0.0751243
0.0863488
0.0883606
0.109235
0.100561
0.128135
0.112599
0.140378
0.125013
0.141854
0.137116
0.128736
0.147415
0.0988919
0.154965
0.0516195
0.159632
-0.00945942
0.161449
-0.0725021
0.160307
-0.123367
0.156838
-0.15483
0.152032
-0.168597
0.146531
-0.171482
0.141028
-0.169099
0.135653
-0.163769
0.12879
-0.157922
0.119261
-0.15616
0.109876
-0.154017
0.106186
-0.13409
0.111228
-0.0843592
0.123198
-0.0107414
0.137965
0.0613109
0.151185
0.124597
0.159656
0.177258
0.162003
0.236039
0.159337
0.280976
0.154849
0.2865
0.15079
0.222899
0.148708
0.097107
0.148807
-0.0356883
0.150782
-0.154063
0.151432
-0.191028
0.147256
-0.226306
0.140409
-0.225689
0.1361
-0.240198
0.138413
-0.201401
0.142841
-0.06683
0.145385
0.0235386
0.143369
0.236714
0.140223
0.263376
0.140128
0.31461
0.141179
0.271575
0.00550161
0.100544
-0.0409718
0.0954449
-0.0467041
0.0897065
-0.0515044
0.0832699
-0.0550234
0.0761562
-0.0573453
0.0682734
-0.0583233
0.0594566
-0.0578811
0.0498973
-0.0561041
0.040264
-0.053098
0.031774
-0.0486718
0.0260029
-0.0420647
0.0241559
-0.0324317
0.027158
-0.0184923
0.0351425
0.000210144
0.0467066
0.022753
0.0605095
0.0471247
0.0751294
0.0717289
0.0896727
0.0946915
0.103952
0.113855
0.118213
0.126117
0.132337
0.12773
0.145225
0.115849
0.155425
0.0886914
0.162297
0.044748
0.165748
-0.0129108
0.165775
-0.072529
0.162586
-0.120178
0.157238
-0.149482
0.15108
-0.162439
0.144789
-0.165191
0.138767
-0.163078
0.133297
-0.158298
0.127144
-0.151769
0.118595
-0.147611
0.109322
-0.144743
0.104617
-0.129386
0.108543
-0.0882847
0.120151
-0.0223498
0.135453
0.0460097
0.149747
0.110303
0.159666
0.167339
0.16364
0.232065
0.162368
0.282248
0.158602
0.290265
0.15439
0.22711
0.151474
0.100023
0.150238
-0.0344518
0.151073
-0.154899
0.151394
-0.191349
0.147301
-0.222212
0.140453
-0.218841
0.135893
-0.235639
0.138223
-0.203731
0.142825
-0.0714316
0.145639
0.0207247
0.143707
0.238646
0.140396
0.266687
0.140543
0.314463
0.142092
0.270026
0.00586354
0.127259
-0.0358639
0.121734
-0.0411792
0.115642
-0.0454116
0.109096
-0.0484783
0.102274
-0.0505232
0.0951905
-0.0512394
0.0877014
-0.0503921
0.0796391
-0.0480418
0.0709764
-0.0444353
0.0620864
-0.0397818
0.0539843
-0.0339626
0.0480267
-0.0264741
0.0457345
-0.0162
0.0483561
-0.00241146
0.055328
0.0157811
0.0660709
0.0363818
0.0792532
0.0585466
0.0937222
0.0802225
0.108775
0.0988024
0.124031
0.110861
0.13882
0.112942
0.151803
0.102865
0.161676
0.0788178
0.167914
0.03851
0.170335
-0.015331
0.168765
-0.0709597
0.163759
-0.115171
0.15679
-0.142513
0.149489
-0.155138
0.142605
-0.158307
0.136251
-0.156723
0.130692
-0.152739
0.125195
-0.146272
0.117839
-0.140255
0.10912
-0.136023
0.103647
-0.123913
0.106229
-0.0908664
0.117044
-0.0331648
0.132485
0.0305684
0.147685
0.095103
0.159084
0.15594
0.164804
0.226345
0.165025
0.282028
0.16203
0.29326
0.157712
0.231428
0.154056
0.10368
0.151582
-0.0319784
0.151258
-0.154574
0.151228
-0.191319
0.147274
-0.218258
0.140458
-0.212024
0.135581
-0.230762
0.137867
-0.206017
0.142727
-0.0762919
0.145924
0.017528
0.14415
0.24042
0.14068
0.270157
0.141088
0.314056
0.143182
0.267932
0.00592506
0.146846
-0.0304044
0.140954
-0.0352867
0.134511
-0.0389686
0.127798
-0.0417653
0.121077
-0.0438022
0.11445
-0.044613
0.107946
-0.0438877
0.101512
-0.0416081
0.0949802
-0.0379032
0.0881641
-0.0329658
0.0811864
-0.0269849
0.074672
-0.0199597
0.0698798
-0.0114079
0.0682989
-0.00083058
0.0706179
0.0134622
0.0773089
0.0296908
0.0876508
0.0482047
0.100567
0.0673058
0.114987
0.0843824
0.129984
0.0958644
0.144447
0.0984796
0.156927
0.0903854
0.166272
0.0694724
0.171931
0.0328507
0.173386
-0.0167852
0.170327
-0.0679009
0.163702
-0.108546
0.155387
-0.134198
0.147169
-0.14692
0.139867
-0.151005
0.133366
-0.150223
0.127758
-0.147131
0.122799
-0.141313
0.116715
-0.134171
0.108951
-0.128259
0.103068
-0.11803
0.104246
-0.0920436
0.113873
-0.0427923
0.129033
0.0154083
0.144911
0.079225
0.157772
0.14308
0.165365
0.218751
0.167192
0.280201
0.164998
0.295454
0.160616
0.23581
0.156377
0.107919
0.152777
-0.0283783
0.151293
-0.153091
0.150883
-0.190909
0.147129
-0.214505
0.140406
-0.2053
0.135154
-0.225511
0.137314
-0.208177
0.142507
-0.0814853
0.146208
0.0138274
0.144688
0.24194
0.141081
0.273764
0.141767
0.313369
0.144451
0.265249
0.0056624
0.157766
-0.0250097
0.151809
-0.0293296
0.145307
-0.0324671
0.138695
-0.0351532
0.132213
-0.0373201
0.125974
-0.0383743
0.120136
-0.0380497
0.114847
-0.0363185
0.110068
-0.0331246
0.105581
-0.0284785
0.101162
-0.0225658
0.0967766
-0.0155745
0.0928339
-0.0074651
0.0898341
0.00216917
0.089648
0.0136482
0.0928044
0.0265345
0.0997118
0.0412973
0.10992
0.0570976
0.122435
0.0718674
0.136045
0.0822542
0.149346
0.0851794
0.160856
0.0788747
0.169522
0.0608072
0.174532
0.0278404
0.174951
-0.0172048
0.170398
-0.0633478
0.162321
-0.10047
0.152936
-0.124813
0.144041
-0.138025
0.136466
-0.14343
0.129989
-0.143746
0.124418
-0.14156
0.119861
-0.136757
0.114997
-0.129307
0.108499
-0.121761
0.102628
-0.112159
0.102493
-0.0919085
0.110637
-0.050937
0.125097
0.00094892
0.141376
0.0629457
0.155611
0.128844
0.165112
0.20925
0.168635
0.276677
0.16734
0.29675
0.163006
0.240144
0.158356
0.112569
0.153777
-0.0237994
0.151156
-0.15047
0.15032
-0.190073
0.146825
-0.211009
0.140281
-0.198756
0.134626
-0.219855
0.136548
-0.210099
0.142126
-0.0870635
0.146454
0.00949946
0.145311
0.243084
0.141602
0.277472
0.142587
0.312384
0.145899
0.261936
0.00505173
0.160279
-0.020191
0.154621
-0.0236712
0.14844
-0.0262866
0.142259
-0.0289724
0.13621
-0.0312707
0.13045
-0.0326144
0.125261
-0.0328606
0.120859
-0.0319161
0.117311
-0.0295767
0.114552
-0.02572
0.112397
-0.0204108
0.11063
-0.0138075
0.109257
-0.00609211
0.108157
0.0032692
0.10778
0.0140251
0.109427
0.0248881
0.113883
0.036841
0.121292
0.0496888
0.131187
0.0619721
0.142538
0.0709037
0.153955
0.073762
0.164093
0.0687369
0.171891
0.0530087
0.175935
0.0237966
0.175214
-0.0164838
0.169219
-0.0573531
0.159936
-0.0911864
0.149802
-0.114679
0.140485
-0.128708
0.132743
-0.135687
0.12637
-0.137373
0.120904
-0.136094
0.116577
-0.132429
0.112715
-0.125445
0.107629
-0.116675
0.102165
-0.106695
0.100904
-0.0906469
0.10734
-0.057373
0.120683
-0.0123939
0.137019
0.0466092
0.152542
0.113321
0.164099
0.197693
0.169444
0.271332
0.169023
0.297171
0.164834
0.244333
0.159986
0.117417
0.154614
-0.0184269
0.15091
-0.146766
0.149574
-0.188737
0.146372
-0.207807
0.140086
-0.192471
0.134037
-0.213806
0.135599
-0.211661
0.141562
-0.0930268
0.146617
0.00444511
0.146003
0.243697
0.142247
0.281229
0.143552
0.311079
0.147529
0.25796
0.00407211
0.156785
-0.0164282
0.151726
-0.0186123
0.146487
-0.0210477
0.14119
-0.0236748
0.135931
-0.0260122
0.13097
-0.0276529
0.126506
-0.0283965
0.122695
-0.0281056
0.119737
-0.0266187
0.1178
-0.0237832
0.116884
-0.0194942
0.116817
-0.0137409
0.11728
-0.006555
0.118326
0.0022227
0.120273
0.0120786
0.122885
0.0222761
0.126836
0.0328898
0.132723
0.0438018
0.140552
0.0541426
0.149686
0.0617705
0.159071
0.0643765
0.16759
0.060218
0.174018
0.0465807
0.176871
0.0209437
0.174193
-0.0138057
0.166744
-0.0499047
0.156655
-0.0810967
0.146294
-0.104318
0.13695
-0.119365
0.129192
-0.127928
0.122942
-0.131124
0.117607
-0.130759
0.113333
-0.128155
0.11012
-0.122232
0.106388
-0.112943
0.101641
-0.101949
0.0995243
-0.0885299
0.104232
-0.062081
0.115998
-0.0241597
0.131948
0.0306597
0.148234
0.0970344
0.161673
0.184254
0.169054
0.263952
0.169776
0.296449
0.16593
0.248178
0.161163
0.122185
0.155209
-0.0124732
0.150554
-0.142112
0.148691
-0.186874
0.145794
-0.20491
0.139815
-0.186492
0.133417
-0.207407
0.134545
-0.212789
0.140848
-0.0993304
0.146684
-0.00139055
0.14675
0.243631
0.143012
0.284967
0.144668
0.309423
0.149341
0.253287
0.0026993
0.192852
-0.0124006
-0.196879
0.189607
-0.0153676
0.186179
-0.01762
0.182339
-0.0198344
0.178114
-0.0217874
0.173631
-0.0231699
0.169007
-0.0237726
0.164337
-0.0234358
0.159735
-0.0220161
0.155325
-0.0193733
0.151216
-0.0153849
0.147476
-0.0100012
0.144242
-0.00332144
0.141563
0.00490203
0.139536
0.0141058
0.138157
0.0236553
0.137854
0.033192
0.139302
0.0423543
0.143198
0.0502462
0.149829
0.05514
0.158896
0.0553095
0.169921
0.0491927
0.181849
0.0346532
0.192006
0.0107869
0.197967
-0.0197666
0.198659
-0.0505967
0.194883
-0.077321
0.18823
-0.0976653
0.180069
-0.111204
0.171479
-0.119338
0.163174
-0.122819
0.155107
-0.122693
0.147388
-0.120435
0.140477
-0.115321
0.133458
-0.105924
0.124994
-0.0934852
0.117027
-0.0805629
0.113744
-0.0587974
0.116765
-0.027181
0.123374
0.0240511
0.130103
0.0903049
0.135071
0.179287
0.1385
0.260522
0.142754
0.292195
0.149637
0.241295
0.157281
0.11454
0.161159
-0.0163509
0.160864
-0.141816
0.158456
-0.184466
0.153441
-0.199895
0.14564
-0.178692
0.13749
-0.199257
0.13384
-0.209139
0.134654
-0.100144
0.135022
-0.00175821
0.132389
0.246263
0.128959
0.288397
0.131411
0.30697
0.137298
0.247399
0.00174385
0.202251
-0.00940736
-0.205244
0.199099
-0.0122157
0.195931
-0.0144518
0.192445
-0.0163486
0.188624
-0.0179662
0.184581
-0.0191266
0.180428
-0.01962
0.176272
-0.0192793
0.172228
-0.0179727
0.168433
-0.0155776
0.165039
-0.011991
0.162202
-0.00716469
0.15998
-0.00109977
0.1586
0.00628229
0.158116
0.0145903
0.158528
0.0232432
0.159996
0.0317235
0.162891
0.0394596
0.167636
0.0455015
0.174372
0.0484034
0.182846
0.0468362
0.192505
0.039533
0.202031
0.0251274
0.209372
0.00344556
0.212534
-0.0229286
0.211217
-0.0492797
0.206153
-0.0722566
0.198713
-0.0902249
0.190123
-0.102614
0.181277
-0.110492
0.172826
-0.114368
0.164742
-0.114609
0.156878
-0.112572
0.149777
-0.10822
0.14309
-0.0992373
0.135192
-0.085587
0.12702
-0.0723911
0.122615
-0.0543924
0.124453
-0.0290193
0.130751
0.0177533
0.137926
0.0831302
0.143839
0.173374
0.148367
0.255995
0.153903
0.286658
0.16195
0.233249
0.170398
0.106092
0.174299
-0.0202522
0.173206
-0.140723
0.169787
-0.181047
0.164079
-0.194186
0.155793
-0.170406
0.146864
-0.190328
0.142565
-0.204841
0.143173
-0.100751
0.143894
-0.00247912
0.141429
0.248728
0.137811
0.292016
0.140708
0.304074
0.147346
0.240761
0.000695625
0.211671
-0.00705425
-0.214024