/*--------------------------------*- C++ -*----------------------------------*\
| =========                 |                                                 |
| \\      /  F ield         | OpenFOAM: The Open Source CFD Toolbox           |
|  \\    /   O peration     | Version:  2512                                  |
|   \\  /    A nd           | Website:  www.openfoam.com                      |
|    \\/     M anipulation  |                                                 |
\*---------------------------------------------------------------------------*/
FoamFile
{
    version     2.0;
    format      ascii;
    arch        "LSB;label=32;scalar=64";
    class       surfaceScalarField;
    location    "93";
    object      phi;
}
// * * * * * * * * * * * * * * * * * * * * * * * * * * * * * * * * * * * * * //

dimensions      [0 3 -1 0 0 0 0];

oriented        oriented;

internalField   nonuniform List<scalar> 
26232
(
0.000166308
0.00095144
-0.00111775
0.000821844
0.00161062
-0.00226616
0.00210702
0.00113961
-0.00242478
0.004157
-0.000425915
-0.00162407
0.00711098
-0.00306046
0.000106483
0.0111076
-0.0067413
0.00274463
0.0162708
-0.0114376
0.00627446
0.0226878
-0.0170949
0.010678
0.0303841
-0.0236198
0.0159235
0.0393017
-0.03087
0.0219524
0.0492865
-0.038653
0.0286681
0.0600905
-0.0467359
0.035932
0.0713891
-0.0548641
0.0435655
0.0828128
-0.0627843
0.0513606
0.0939866
-0.0702697
0.059096
0.104572
-0.077141
0.0665561
0.114302
-0.0832806
0.0735506
0.123009
-0.0886396
0.0799321
0.130637
-0.0932324
0.0856048
0.137226
-0.0971316
0.090542
0.142897
-0.100419
0.0947482
0.147788
-0.103266
0.0983749
0.151857
-0.105511
0.101442
-0.107862
0.10458
0.15514
0.000193435
0.000758005
0.000983481
0.000820578
0.00255587
-0.000432788
0.00508231
-0.00295235
0.00872445
-0.0067026
0.0136203
-0.0116371
0.0198588
-0.0176761
0.0274507
-0.0246868
0.0363037
-0.0324728
0.046212
-0.0407783
0.0568658
-0.0493067
0.0678803
-0.0577504
0.0788405
-0.0658244
0.089352
-0.0732958
0.0990879
-0.0800057
0.107825
-0.0858785
0.115464
-0.0909188
0.122022
-0.0951979
0.127621
-0.0988319
0.132448
-0.101958
0.136737
-0.104708
0.140687
-0.107217
0.144667
-0.109491
-0.111976
0.14878
0.000250031
0.000507974
0.00124286
-0.000172247
0.0031991
-0.00238903
0.00631399
-0.00606724
0.0107492
-0.0111378
0.0166051
-0.017493
0.0238859
-0.0249569
0.0324715
-0.0332724
0.0421088
-0.0421101
0.0524297
-0.0510992
0.0629949
-0.0598719
0.0733535
-0.068109
0.0831046
-0.0755754
0.091948
-0.0821392
0.0997153
-0.087773
0.106376
-0.0925387
0.112018
-0.0965607
0.116815
-0.0999958
0.120987
-0.103004
0.124756
-0.105727
0.128321
-0.108273
0.131841
-0.110737
0.135457
-0.113107
-0.115667
0.139149
0.000337307
0.000170666
0.0016016
-0.00143654
0.00403062
-0.00481805
0.00781877
-0.00985539
0.0130904
-0.0164095
0.0198586
-0.0242613
0.0279904
-0.0330887
0.037197
-0.0424791
0.047061
-0.0519742
0.0570952
-0.0611334
0.0668185
-0.0695952
0.0758286
-0.0771191
0.0838543
-0.0836011
0.0907774
-0.0890623
0.0966239
-0.0936195
0.10153
-0.0974452
0.105698
-0.100728
0.109347
-0.103645
0.11268
-0.106337
0.115864
-0.108911
0.119027
-0.111436
0.122255
-0.113964
0.125637
-0.116489
-0.119205
0.129175
0.000451357
-0.00028069
0.00204354
-0.00302873
0.00500674
-0.00778125
0.0094993
-0.0143479
0.0155607
-0.0224709
0.0230657
-0.0317662
0.0317078
-0.0417308
0.0410312
-0.0518025
0.0505045
-0.0614474
0.0596151
-0.070244
0.0679539
-0.0779341
0.0752692
-0.0844344
0.0814792
-0.0898111
0.0866495
-0.0942325
0.0909455
-0.0979156
0.0945795
-0.101079
0.0977641
-0.103913
0.100683
-0.106563
0.103477
-0.109131
0.106247
-0.111681
0.109065
-0.114254
0.111973
-0.116872
0.115017
-0.119533
-0.122348
0.118159
0.000585893
-0.000866584
0.00254235
-0.00498519
0.00606062
-0.0112995
0.0112196
-0.019507
0.0179246
-0.0291759
0.0258747
-0.0397163
0.0345902
-0.0504463
0.0434985
-0.0607107
0.0520481
-0.069997
0.0598097
-0.0780056
0.0665341
-0.0846584
0.0721586
-0.0900589
0.0767716
-0.0944242
0.0805551
-0.0980161
0.0837253
-0.101086
0.0864873
-0.103841
0.0890098
-0.106435
0.0914178
-0.108971
0.0937976
-0.111511
0.0962065
-0.11409
0.0986823
-0.116729
0.101249
-0.119439
0.103933
-0.122217
-0.125124
0.10671
0.000733776
-0.00160036
0.00306644
-0.00731785
0.00711316
-0.0153462
0.0128275
-0.0252213
0.0199411
-0.0362895
0.0279714
-0.0477466
0.0363095
-0.0587844
0.0443549
-0.0687561
0.0516381
-0.0772803
0.05789
-0.0842575
0.0630463
-0.0898148
0.0672036
-0.0942161
0.0705513
-0.0977719
0.0733079
-0.100773
0.0756742
-0.103452
0.0778103
-0.105977
0.0798314
-0.108457
0.0818145
-0.110954
0.0838089
-0.113505
0.0858461
-0.116127
0.0879466
-0.11883
0.0901237
-0.121616
0.0923912
-0.124484
-0.12746
0.0947267
0.000887139
-0.0024875
0.00358098
-0.0100117
0.00808044
-0.0198457
0.0141735
-0.0313144
0.0214027
-0.0435188
0.0291361
-0.0554799
0.0367154
-0.0663637
0.0436074
-0.0756481
0.0494954
-0.0831683
0.0542903
-0.0890523
0.0580808
-0.0936054
0.0610578
-0.0971931
0.063442
-0.100156
0.0654345
-0.102765
0.0671932
-0.105211
0.0688291
-0.107613
0.0704141
-0.110042
0.0719932
-0.112533
0.0735944
-0.115106
0.0752358
-0.117769
0.0769295
-0.120524
0.0786846
-0.123371
0.0805096
-0.126309
-0.129341
0.0823911
0.00103708
-0.00352458
0.00404905
-0.0130237
0.00888052
-0.0246772
0.0151295
-0.0375634
0.0221661
-0.0505554
0.0292746
-0.0625884
0.0358357
-0.0729248
0.0414533
-0.0812657
0.0459845
-0.0876996
0.0494923
-0.0925601
0.0521605
-0.0962735
0.0542125
-0.0992451
0.0558545
-0.101798
0.0572474
-0.104158
0.058503
-0.106466
0.0596925
-0.108803
0.0608588
-0.111208
0.0620278
-0.113702
0.063216
-0.116294
0.0644344
-0.118987
0.0656912
-0.121781
0.0669924
-0.124672
0.0683427
-0.12766
-0.130733
0.069735
0.0011735
-0.00469808
0.0044337
-0.0162839
0.00944189
-0.0296853
0.0156055
-0.043727
0.0221691
-0.057119
0.0284132
-0.0688326
0.0338285
-0.0783401
0.0381838
-0.085621
0.0414907
-0.0910064
0.0439139
-0.0949832
0.0456771
-0.0980368
0.0469947
-0.100563
0.0480364
-0.10284
0.04892
-0.105042
0.0497194
-0.107266
0.0504782
-0.109561
0.0512216
-0.111951
0.051965
-0.114446
0.0527189
-0.117048
0.0534908
-0.119759
0.0542863
-0.122576
0.05511
-0.125496
0.0559646
-0.128514
-0.131618
0.056849
0.00128635
-0.00598443
0.00470291
-0.0197004
0.00971329
-0.0346957
0.0155594
-0.049573
0.0214273
-0.0629869
0.0266665
-0.0740718
0.0309165
-0.0825901
0.0341028
-0.0888073
0.0363501
-0.0932537
0.037875
-0.0965082
0.0389012
-0.099063
0.039612
-0.101274
0.0401364
-0.103364
0.0405553
-0.105461
0.0409154
-0.107626
0.0412428
-0.109889
0.0415528
-0.112261
0.0418552
-0.114748
0.0421573
-0.11735
0.0424644
-0.120066
0.0427806
-0.122892
0.0431087
-0.125824
0.0434492
-0.128855
-0.131973
0.0438042
0.0013697
-0.00735413
0.0048367
-0.0231674
0.00967126
-0.0395303
0.0149987
-0.0549004
0.0200187
-0.0680069
0.0242009
-0.078254
0.0273394
-0.0857286
0.0294858
-0.0909537
0.0308328
-0.0946008
0.0316097
-0.097285
0.0320167
-0.0994699
0.0321994
-0.101456
0.0322504
-0.103415
0.0322231
-0.105433
0.0321461
-0.107549
0.0320353
-0.109778
0.0319002
-0.112126
0.0317477
-0.114596
0.031583
-0.117186
0.0314108
-0.119894
0.0312346
-0.122716
0.0310563
-0.125646
0.0308754
-0.128674
0.030696
-0.131794
-0.000291704
0.00142473
-0.00113302
-0.00100495
0.00296612
-0.00225287
-0.00204381
0.00362637
-0.00258752
-0.00334014
0.00366811
-0.00237178
-0.00484447
0.00329621
-0.00179187
-0.00652098
0.00265691
-0.000980404
-0.00834268
0.00183934
-1.76382e-05
-0.0102881
0.000882925
0.00106247
-0.0123393
-0.000209465
0.00226071
-0.0144792
-0.00145896
0.0035988
-0.0166908
-0.00289658
0.00510826
-0.0189554
-0.00455714
0.00682173
-0.0212513
-0.0064716
0.00876743
-0.0235525
-0.00866487
0.0109661
-0.0258281
-0.0111532
0.0134288
-0.0280414
-0.0139423
0.0161557
-0.0301502
-0.0170242
0.019133
-0.032107
-0.0203744
0.0223313
-0.0338614
-0.0239483
0.0257026
-0.0353626
-0.0276787
0.0291799
-0.0365637
-0.0314761
0.0326772
-0.0374249
-0.0352302
0.0360914
-0.0379271
-0.0388027
0.0393048
-0.0420336
-0.0381004
0.0422069
-0.000264854
0.00168958
-0.000929626
0.00363089
-0.001915
0.00461175
-0.00315996
0.00491307
-0.00461619
0.00475243
-0.00624605
0.00428677
-0.00802052
0.00361382
-0.00991745
0.00277985
-0.0119191
0.00179218
-0.0140092
0.000631196
-0.0161777
-0.000728091
-0.0184101
-0.00232481
-0.0206911
-0.00419052
-0.0230029
-0.00635315
-0.0253234
-0.00883275
-0.0276265
-0.0116392
-0.0298818
-0.0147689
-0.0320549
-0.0182014
-0.0341082
-0.0218949
-0.0360047
-0.0257822
-0.0377123
-0.0297685
-0.0392083
-0.0337341
-0.0404815
-0.0375295
-0.0409441
-0.0415709
-0.000212615
0.00190219
-0.000770484
0.00418876
-0.00161899
0.00546025
-0.00270807
0.00600216
-0.00399189
0.00603625
-0.00543046
0.00572534
-0.00699048
0.00517384
-0.00864508
0.00443445
-0.0103729
0.00352003
-0.0121587
0.00241692
-0.0139811
0.00109432
-0.0158323
-0.000473556
-0.0176968
-0.00232602
-0.0195577
-0.00449223
-0.0213968
-0.00699373
-0.0231937
-0.00984225
-0.0249263
-0.0130363
-0.0265707
-0.016557
-0.028101
-0.0203646
-0.0294908
-0.0243925
-0.0307177
-0.0285416
-0.0317704
-0.0326814
-0.0326385
-0.0366615
-0.0402386
-0.033344
-0.000140206
0.0020424
-0.000541611
0.00459017
-0.00117956
0.0060982
-0.00201807
0.00684067
-0.00301518
0.00703336
-0.00412843
0.00683859
-0.00531847
0.00636387
-0.00655076
0.00566674
-0.0077959
0.00476516
-0.00902871
0.00364973
-0.010229
0.00229465
-0.011365
0.000662371
-0.0124284
-0.00126254
-0.0133916
-0.00352905
-0.0142327
-0.00615261
-0.0149303
-0.00914471
-0.0154643
-0.0125023
-0.0158174
-0.016204
-0.0159753
-0.0202066
-0.0159261
-0.0244417
-0.0156585
-0.0288092
-0.0151729
-0.033167
-0.014492
-0.0373423
-0.0412291
-0.0135015
-5.68116e-05
0.00209921
-0.000269649
0.004803
-0.000643922
0.00647248
-0.00115926
0.00735601
-0.00177858
0.00765267
-0.00245731
0.00751732
-0.00314934
0.0070559
-0.00381047
0.00632788
-0.0043999
0.0053546
-0.00488008
0.00412991
-0.00521603
0.0026306
-0.00537557
0.000821916
-0.00531978
-0.00131834
-0.0050179
-0.00383094
-0.00443709
-0.00673342
-0.00354739
-0.0100344
-0.00232398
-0.0137257
-0.000749883
-0.0177781
0.00118153
-0.0221381
0.00346556
-0.0267258
0.0060907
-0.0314343
0.00905574
-0.036132
0.0123326
-0.0406191
-0.0446377
0.0157412
2.6575e-05
0.00207264
1.3002e-05
0.00481658
-7.36587e-05
0.00655914
-0.000224506
0.00750685
-0.000407918
0.00783609
-0.000578046
0.00768745
-0.00068229
0.00716014
-0.000666293
0.00631188
-0.00047654
0.00516484
-6.11851e-05
0.00371456
0.000630295
0.00193912
0.001645
-0.000192793
0.00303815
-0.00271148
0.00485389
-0.00564668
0.00713702
-0.00901654
0.00992643
-0.0128238
0.0132518
-0.017051
0.0171298
-0.021656
0.0215609
-0.0265692
0.0265279
-0.0316928
0.0319963
-0.0369027
0.0379261
-0.0420619
0.0442205
-0.0469135
-0.0515412
0.0511241
9.81472e-05
0.00197449
0.00026862
0.0046461
0.000465451
0.00636231
0.000686691
0.00728562
0.000960619
0.00756216
0.00133463
0.00731344
0.00186736
0.00662741
0.00262315
0.00555609
0.00366855
0.00411944
0.0050706
0.00231252
0.00689531
0.000114406
0.00920873
-0.00250622
0.0120746
-0.00557736
0.0155513
-0.00912336
0.0196891
-0.0131544
0.0245261
-0.0176608
0.0300831
-0.0226079
0.0363591
-0.0279321
0.0433295
-0.0335395
0.0509451
-0.0393084
0.0591316
-0.0450892
0.0678126
-0.0507429
0.0768846
-0.0559855
-0.0611801
0.0865234
0.000150179
0.00182431
0.000472842
0.00432344
0.000920381
0.00591477
0.00149006
0.00671594
0.00221005
0.00684216
0.00313066
0.00639283
0.00431715
0.00544093
0.0058441
0.00402914
0.00779139
0.00217214
0.0102407
-0.000136749
0.0132754
-0.00292031
0.0169726
-0.00620347
0.0214048
-0.0100096
0.0266313
-0.0143498
0.0326928
-0.0192159
0.039605
-0.0245731
0.0473533
-0.0303562
0.0558887
-0.0364676
0.0651287
-0.0427796
0.0749602
-0.0491399
0.0852534
-0.0553824
0.0958627
-0.0613522
0.106657
-0.06678
-0.0721578
0.117635
0.00017843
0.00164588
0.000609949
0.00389192
0.00126129
0.00526343
0.00213789
0.00583934
0.00327404
0.00570602
0.0047269
0.00493997
0.00657101
0.00359682
0.00889298
0.00170717
0.0117865
-0.000721394
0.0153486
-0.00369882
0.0196709
-0.00724259
0.0248364
-0.011369
0.0309099
-0.016083
0.0379287
-0.0213686
0.0458945
-0.0271817
0.0547665
-0.0334451
0.0644582
-0.0400478
0.0748387
-0.0468482
0.0857411
-0.0536819
0.0969712
-0.06037
0.108336
-0.0667472
0.119629
-0.0726452
0.130752
-0.0779031
-0.0828541
0.141448
0.000184634
0.00146125
0.00068389
0.00339267
0.00149344
0.00445387
0.00263716
0.00469562
0.00416344
0.00417973
0.00614261
0.0029608
0.00866308
0.00107635
0.0118259
-0.00145563
0.0157376
-0.00463316
0.0205014
-0.00846255
0.0262068
-0.012948
0.0329178
-0.0180801
0.0406604
-0.0238256
0.0494115
-0.0301197
0.0590918
-0.0368619
0.069564
-0.0439173
0.0806385
-0.0511224
0.0920865
-0.0582961
0.103658
-0.0652535
0.115108
-0.0718195
0.126213
-0.0778527
0.136786
-0.0832182
0.146774
-0.087891
-0.0919253
0.155845
0.000176543
0.0012847
0.000717985
0.00285122
0.00166048
0.00351138
0.00305612
0.00329998
0.00497624
0.00225962
0.00751093
0.000426099
0.0107669
-0.00217966
0.0148573
-0.00554599
0.0198915
-0.00966739
0.0259606
-0.0145316
0.0331202
-0.0201076
0.0413754
-0.0263352
0.0506672
-0.0331175
0.0608671
-0.0403195
0.0717783
-0.0477732
0.0831481
-0.0552871
0.0946872
-0.0626615
0.106097
-0.0697058
0.117098
-0.0762541
0.127465
-0.0821868
0.137037
-0.087425
0.145778
-0.091959
0.153685
-0.0957977
-0.0988668
0.160626
0.000166955
0.000752019
0.00183862
0.00351453
0.00588063
0.00905136
0.0131462
0.0182781
0.0245343
0.0319551
0.0405156
0.0501123
0.0605603
0.0716014
0.0829241
0.0941931
0.105082
0.115308
0.124659
0.133014
0.140337
0.146753
0.152398
0.158111
-0.0359606
-0.0628683
0.0607285
-0.0327474
-0.0666968
0.0634836
-0.0283642
-0.0684702
0.0640871
-0.0226916
-0.0676944
0.0620218
-0.0157011
-0.0636912
0.0567008
-0.00747339
-0.0559078
0.0476801
0.00187825
-0.0439905
0.0346389
0.0122078
-0.0278778
0.0175483
0.0229769
-0.00759894
-0.00317014
0.0339333
0.0161826
-0.027139
0.0448354
0.0423295
-0.0532316
0.0555715
0.0688554
-0.0795915
0.0656828
0.0938128
-0.103924
0.0744886
0.115146
-0.123952
0.0811724
0.131553
-0.138237
0.0848546
0.143267
-0.146949
0.0849599
0.152115
-0.152221
0.0821274
0.15987
-0.157038
0.0788119
0.165194
-0.161878
0.0784014
0.162126
-0.161715
0.0830287
0.143042
-0.147669
0.0922834
0.104048
-0.113303
0.104371
0.0475924
-0.0596803
0.117278
-0.0180235
0.00511695
0.129305
-0.0813381
0.0693111
0.138894
-0.13124
0.121651
0.14503
-0.163002
0.156866
0.147847
-0.17915
0.176334
0.148254
-0.184213
0.183806
0.146236
-0.183704
0.185723
0.140733
-0.185667
0.19117
0.132138
-0.195066
0.203661
0.123867
-0.200364
0.208635
0.120221
-0.178558
0.182204
0.122861
-0.115549
0.11291
0.130226
-0.0238857
0.0165198
0.139173
0.0690156
-0.0779624
0.147436
0.141468
-0.149731
0.153425
0.183909
-0.189899
0.155242
0.210185
-0.212001
0.151513
0.231411
-0.227682
0.143654
0.256147
-0.248288
0.135974
0.250467
-0.242787
0.132796
0.199487
-0.19631
0.135219
0.092181
-0.0946042
0.141738
-0.0297191
0.0232006
0.14876
-0.126677
0.119655
0.151896
-0.197502
0.194366
0.148641
-0.225696
0.228951
0.141553
-0.273242
0.28033
0.136086
-0.247186
0.252654
0.136697
-0.204884
0.204273
0.141687
-0.0810368
0.0760467
0.145742
0.0556992
-0.0597544
0.145231
0.138686
-0.138175
0.141767
0.301569
-0.298105
0.139981
0.261195
-0.259409
0.140102
0.296339
-0.296461
0.139583
0.155925
-0.155406
-0.0931493
0.0949992
-0.0417145
-0.0627248
-0.0409713
-0.06744
-0.0391142
-0.0703273
-0.0358907
-0.0709179
-0.031081
-0.0685009
-0.0245507
-0.0624381
-0.0163136
-0.0522276
-0.00658731
-0.0376042
0.0047004
-0.0188866
0.0172059
0.00367712
0.02978
0.0297554
0.0423745
0.0562609
0.0543898
0.0817975
0.0650572
0.104479
0.0734473
0.123163
0.0787526
0.137962
0.080874
0.149994
0.081088
0.159656
0.0819581
0.164324
0.0859881
0.158096
0.0939118
0.135119
0.104518
0.0934417
0.116142
0.035969
0.127354
-0.0292352
0.136993
-0.0909773
0.144008
-0.138255
0.147779
-0.166772
0.148549
-0.17992
0.147346
-0.18301
0.144391
-0.180749
0.138441
-0.179718
0.129274
-0.185899
0.120038
-0.191127
0.115532
-0.174052
0.118039
-0.118056
0.126114
-0.0319611
0.136427
0.0587027
0.146315
0.13158
0.15375
0.176474
0.156574
0.207361
0.153615
0.234369
0.146518
0.263245
0.139435
0.25755
0.13626
0.202662
0.137852
0.0905895
0.14315
-0.0350175
0.149149
-0.132675
0.151822
-0.200176
0.14837
-0.222244
0.141213
-0.266086
0.135822
-0.241796
0.136514
-0.205576
0.141603
-0.0861256
0.145506
0.0517957
0.145032
0.139159
0.141586
0.305015
0.139798
0.262983
0.140186
0.295951
0.139956
0.156155
-0.0914258
-0.035693
-0.0603757
-0.0375797
-0.0655533
-0.0386266
-0.0692804
-0.0385066
-0.0710379
-0.0368191
-0.0701884
-0.0331981
-0.0660591
-0.027393
-0.0580327
-0.0193405
-0.0456567
-0.00931715
-0.02891
0.00261881
-0.00825884
0.016298
0.0160762
0.0301216
0.0424373
0.0436717
0.0682474
0.0560115
0.0921391
0.0661958
0.112979
0.0736405
0.130517
0.0786552
0.144979
0.082736
0.155575
0.0880262
0.159034
0.0959663
0.150156
0.106244
0.124841
0.1173
0.0823858
0.127874
0.0253948
0.137066
-0.0384274
0.144171
-0.0980829
0.148564
-0.142648
0.150041
-0.168249
0.14895
-0.178829
0.146309
-0.180369
0.142576
-0.177016
0.13648
-0.173622
0.127124
-0.176544
0.117101
-0.181104
0.11156
-0.168512
0.113627
-0.120123
0.122108
-0.0404421
0.133617
0.0471943
0.14504
0.120157
0.153908
0.167606
0.157847
0.203422
0.155868
0.236348
0.149709
0.269404
0.143258
0.264002
0.140026
0.205893
0.140688
0.0899277
0.144667
-0.0389968
0.149564
-0.137572
0.151784
-0.202395
0.14821
-0.21867
0.141019
-0.258895
0.135682
-0.236458
0.136412
-0.206306
0.141593
-0.0913069
0.145385
0.048004
0.144966
0.139578
0.141501
0.30848
0.13969
0.264794
0.140394
0.295247
0.140503
0.156047
-0.0898458
-0.0176391
-0.0562381
-0.0218111
-0.0613813
-0.0256613
-0.0654303
-0.0287913
-0.0679079
-0.030671
-0.0683087
-0.0307587
-0.0659713
-0.0285398
-0.0602515
-0.0236781
-0.0505184
-0.0160957
-0.0364925
-0.0061648
-0.0181897
0.00638232
0.00352908
0.0202952
0.0285244
0.0346284
0.0539142
0.0482926
0.0784749
0.0603668
0.100905
0.0704142
0.120469
0.0788759
0.136518
0.0870425
0.147409
0.096371
0.149705
0.107357
0.13917
0.119014
0.113184
0.12985
0.0715503
0.138924
0.0163205
0.146047
-0.0455503
0.15067
-0.102706
0.152517
-0.144494
0.1518
-0.167533
0.149038
-0.176066
0.145129
-0.176461
0.140705
-0.172592
0.13467
-0.167587
0.125548
-0.167422
0.115072
-0.170629
0.108427
-0.161866
0.109659
-0.121355
0.118224
-0.0490068
0.130711
0.0347078
0.14355
0.107317
0.15383
0.157327
0.159001
0.19825
0.158202
0.237148
0.153128
0.274478
0.147326
0.269803
0.143963
0.209256
0.143667
0.0902233
0.146258
-0.0415876
0.14999
-0.141304
0.151752
-0.204158
0.148123
-0.21504
0.140919
-0.251691
0.135605
-0.231145
0.136338
-0.207039
0.141625
-0.0965934
0.145365
0.0442635
0.145029
0.139914
0.141517
0.311991
0.139666
0.266645
0.140732
0.294182
0.141227
0.155552
-0.0884262
0.0103506
-0.0508475
0.00426468
-0.0552955
-0.00171002
-0.0594556
-0.00741554
-0.0622024
-0.0124699
-0.0632544
-0.0162542
-0.0621871
-0.0180546
-0.0584511
-0.017256
-0.051317
-0.0135541
-0.0401943
-0.00683029
-0.0249136
0.00300344
-0.00630465
0.0156716
0.0158563
0.0296146
0.0399712
0.0438661
0.0642234
0.0574751
0.0872959
0.0700066
0.107938
0.0817338
0.12479
0.0934865
0.135656
0.105997
0.137194
0.119039
0.126128
0.131298
0.100926
0.141425
0.0614228
0.149007
0.00873853
0.154075
-0.0506184
0.156321
-0.104953
0.155727
-0.1439
0.152945
-0.164751
0.148717
-0.171838
0.14376
-0.171504
0.138744
-0.167576
0.132892
-0.161735
0.124363
-0.158892
0.113871
-0.160137
0.106208
-0.154203
0.106285
-0.121432
0.114532
-0.0572543
0.127694
0.0215455
0.14177
0.0932414
0.153421
0.145676
0.159939
0.191732
0.160506
0.236581
0.156644
0.27834
0.151484
0.274963
0.14797
0.21277
0.146685
0.0915079
0.147887
-0.0427891
0.150399
-0.143816
0.151696
-0.205455
0.14807
-0.211415
0.140869
-0.244489
0.135539
-0.225815
0.136237
-0.207737
0.141658
-0.102014
0.145426
0.0404956
0.145212
0.140128
0.141642
0.315561
0.139736
0.268551
0.141205
0.292713
0.14213
0.154627
-0.0871844
0.0452434
-0.0449669
0.0389274
-0.0489794
0.0319004
-0.0524285
0.0243894
-0.0546914
0.016758
-0.0556231
0.00957463
-0.0550036
0.00351765
-0.0523941
-0.000325552
-0.0474738
-0.000870409
-0.0396495
0.00230114
-0.0280851
0.00907862
-0.0130821
0.0188907
0.00604421
0.0310461
0.0278158
0.0447025
0.050567
0.0589094
0.0730889
0.0730913
0.0937561
0.0871741
0.110708
0.10143
0.1214
0.115944
0.12268
0.13
0.112072
0.142201
0.0887244
0.151521
0.0521025
0.157753
0.00250711
0.160941
-0.0538066
0.160933
-0.104945
0.158065
-0.141032
0.153402
-0.160087
0.147917
-0.166353
0.142143
-0.16573
0.136634
-0.162067
0.131
-0.156101
0.123329
-0.151222
0.113301
-0.150109
0.104899
-0.145801
0.103631
-0.120164
0.111092
-0.0647154
0.124551
0.00808676
0.139611
0.0781809
0.152563
0.132725
0.160531
0.183764
0.162636
0.234476
0.160093
0.280884
0.15558
0.279476
0.151896
0.216455
0.149662
0.0937418
0.149506
-0.0426332
0.150762
-0.145072
0.151576
-0.206268
0.148012
-0.207851
0.140831
-0.237308
0.135436
-0.22042
0.136054
-0.208355
0.141647
-0.107607
0.145539
0.0366033
0.145507
0.14016
0.141882
0.319187
0.139909
0.270525
0.141816
0.290805
0.143212
0.153231
-0.0861363
0.0806552
-0.0390987
0.0744313
-0.0427555
0.0675966
-0.0455938
0.0601385
-0.0472333
0.0522084
-0.0476929
0.0440821
-0.0468774
0.0363196
-0.0446316
0.0296811
-0.0408353
0.0250217
-0.0349901
0.0234273
-0.0264907
0.0252464
-0.0149012
0.0310621
0.000228547
0.0400316
0.0188463
0.0517301
0.0388685
0.0652239
0.0595952
0.0797563
0.0792237
0.0948627
0.0956012
0.110274
0.105989
0.125545
0.107409
0.139664
0.0979536
0.15132
0.0770679
0.159763
0.0436595
0.164826
-0.00255548
0.166364
-0.0553443
0.164311
-0.102892
0.159414
-0.136135
0.153102
-0.153775
0.146569
-0.159821
0.14021
-0.159371
0.134333
-0.15619
0.128881
-0.150649
0.122193
-0.144534
0.113079
-0.140994
0.104369
-0.137091
0.101718
-0.117513
0.10799
-0.0709865
0.121268
-0.00519204
0.136991
0.0624582
0.151133
0.118582
0.160626
0.174272
0.164433
0.230668
0.163317
0.282
0.159468
0.283324
0.155591
0.220332
0.152506
0.0968264
0.151061
-0.0411879
0.151045
-0.145057
0.151352
-0.206575
0.147906
-0.204405
0.140773
-0.230174
0.135261
-0.214908
0.135739
-0.208833
0.141542
-0.11341
0.145671
0.0324738
0.1459
0.139931
0.142242
0.322845
0.140192
0.272575
0.142567
0.28843
0.144472
0.151327
-0.0852976
0.111748
-0.033212
0.105631
-0.0366383
0.0991258
-0.0390885
0.0922377
-0.0403451
0.0850436
-0.0404989
0.0775767
-0.0394105
0.0699497
-0.0370046
0.0624825
-0.033368
0.0558877
-0.0283953
0.0511117
-0.0217148
0.0490103
-0.0127998
0.0506292
-0.00139042
0.0557322
0.0137434
0.0643802
0.0302204
0.0758695
0.0481059
0.0893822
0.0657109
0.104136
0.0808473
0.119406
0.0907194
0.134345
0.0924695
0.14779
0.0845081
0.158593
0.0662654
0.166168
0.0360843
0.170208
-0.00659506
0.170233
-0.0553699
0.166329
-0.0989876
0.159675
-0.129481
0.151996
-0.146096
0.144626
-0.15245
0.137887
-0.152632
0.131792
-0.150094
0.126462
-0.14532
0.120728
-0.1388
0.112866
-0.133133
0.104366
-0.128591
0.100505
-0.113652
0.105286
-0.0757671
0.117827
-0.0177332
0.133848
0.0464377
0.149022
0.103408
0.160075
0.163219
0.165707
0.225036
0.166121
0.281586
0.162979
0.286466
0.158948
0.224363
0.155102
0.100672
0.152491
-0.0385772
0.15121
-0.143776
0.15098
-0.206345
0.147706
-0.20113
0.140665
-0.223133
0.134991
-0.209234
0.135253
-0.209096
0.141293
-0.119449
0.145785
0.0279819
0.146375
0.13934
0.142727
0.326492
0.140594
0.274708
0.143461
0.285563
0.145908
0.148881
-0.0846841
0.135584
-0.0273474
0.129535
-0.030589
0.123186
-0.0327402
0.116722
-0.0338807
0.11031
-0.0340872
0.103965
-0.0330651
0.0976439
-0.0306838
0.0913525
-0.0270766
0.0853032
-0.022346
0.0799967
-0.0164083
0.0762135
-0.00901656
0.0746418
0.000181237
0.0762165
0.0121686
0.0813377
0.0250992
0.0898545
0.0395891
0.101157
0.054408
0.11435
0.0676545
0.128398
0.0766714
0.142169
0.0786987
0.154441
0.0722366
0.164216
0.0564902
0.170911
0.0293896
0.173921
-0.00960542
0.172465
-0.0539135
0.166859
-0.0933825
0.158727
-0.121349
0.149991
-0.137359
0.141997
-0.144456
0.13505
-0.145686
0.128901
-0.143945
0.12366
-0.140079
0.11874
-0.13388
0.112307
-0.1267
0.104537
-0.120821
0.0998244
-0.10894
0.102925
-0.0788681
0.114282
-0.02909
0.13015
0.0305698
0.146129
0.0874294
0.158731
0.150617
0.166317
0.217449
0.16839
0.279513
0.165994
0.288862
0.161842
0.228515
0.157363
0.105152
0.153727
-0.0349415
0.151212
-0.141261
0.150407
-0.20554
0.147356
-0.198079
0.14048
-0.216257
0.134617
-0.203372
0.134567
-0.209046
0.140851
-0.125733
0.145837
0.0229958
0.14691
0.138267
0.143338
0.330064
0.141127
0.27692
0.144501
0.282188
0.147516
0.145866
-0.0843106
0.150327
-0.0218298
0.144538
-0.0247992
0.13845
-0.0266528
0.132424
-0.0278548
0.126681
-0.0283438
0.121294
-0.0276785
0.116317
-0.0257064
0.111711
-0.0224703
0.107426
-0.0180614
0.10354
-0.0125221
0.100318
-0.00579469
0.0979976
0.00250152
0.0979797
0.0121866
0.100505
0.0225738
0.106039
0.0340556
0.114479
0.0459681
0.125208
0.0569253
0.137184
0.064695
0.149159
0.0667241
0.159896
0.0614988
0.168497
0.0478896
0.174219
0.0236679
0.176025
-0.0114117
0.172989
-0.0508776
0.165808
-0.0862019
0.15648
-0.11202
0.146996
-0.127876
0.138588
-0.136048
0.131564
-0.138661
0.125523
-0.137905
0.120396
-0.134951
0.116098
-0.129582
0.111101
-0.121703
0.104497
-0.114217
0.0994103
-0.103853
0.100859
-0.0803172
0.110646
-0.038877
0.125901
0.015315
0.142401
0.0709293
0.156463
0.136556
0.166026
0.207886
0.169859
0.275681
0.168339
0.290381
0.164171
0.232682
0.159217
0.110106
0.154721
-0.0304456
0.151027
-0.137567
0.149597
-0.20411
0.146808
-0.195291
0.140197
-0.209646
0.134147
-0.197322
0.13367
-0.208569
0.140172
-0.132236
0.145785
0.0173837
0.147481
0.136571
0.144071
0.333474
0.141797
0.279194
0.145691
0.278294
0.149294
0.142263
-0.0841918
0.155848
-0.0170516
0.15054
-0.0194914
0.144928
-0.0210408
0.139514
-0.0224406
0.134467
-0.0232966
0.12993
-0.0231413
0.126053
-0.0218294
0.122876
-0.019294
0.120355
-0.0155399
0.118457
-0.010624
0.117296
-0.00463335
0.11673
0.00306748
0.11686
0.0120559
0.118478
0.020956
0.122249
0.0302846
0.128364
0.0398534
0.13654
0.0487495
0.146042
0.0551925
0.155794
0.0569721
0.1647
0.052593
0.171887
0.040703
0.176167
0.0193876
0.176604
-0.0118492
0.171977
-0.0462505
0.163474
-0.0776982
0.153312
-0.101859
0.143416
-0.11798
0.134802
-0.127434
0.127764
-0.131623
0.121907
-0.132048
0.116916
-0.12996
0.112995
-0.125661
0.109226
-0.117933
0.104043
-0.109034
0.0990771
-0.0988876
0.0990367
-0.0802769
0.106956
-0.0467966
0.121113
0.00115858
0.137777
0.0542649
0.153227
0.121107
0.164916
0.196197
0.170656
0.269941
0.17
0.291037
0.165876
0.236806
0.160688
0.115295
0.155516
-0.025274
0.150725
-0.132776
0.14861
-0.201995
0.146074
-0.192755
0.139829
-0.2034
0.13361
-0.191103
0.132605
-0.207563
0.139237
-0.138868
0.145579
0.0110422
0.148051
0.134099
0.144921
0.336603
0.142612
0.281504
0.147028
0.273877
0.151237
0.138054
-0.0843375
0.154536
-0.0134766
0.14995
-0.0149061
0.14533
-0.0164204
0.140834
-0.0179444
0.136556
-0.0190194
0.132715
-0.0192997
0.129513
-0.0186277
0.127128
-0.016909
0.125634
-0.0140459
0.124989
-0.00997927
0.125038
-0.00468203
0.125986
0.00211937
0.128063
0.00997898
0.130897
0.0181223
0.1347
0.0264814
0.139851
0.0347026
0.146434
0.0421663
0.154031
0.0475954
0.161817
0.0491861
0.168892
0.0455184
0.174385
0.03521
0.177245
0.016527
0.175505
-0.0101093
0.1693
-0.0400452
0.159908
-0.0683065
0.149516
-0.0914661
0.139705
-0.108169
0.131185
-0.118914
0.124203
-0.124642
0.118524
-0.126369
0.113663
-0.125099
0.109869
-0.121868
0.106943
-0.115008
0.103194
-0.105285
0.0987653
-0.0944588
0.0975488
-0.0790603
0.103461
-0.0527091
0.116056
-0.0114366
0.132324
0.0379971
0.148606
0.104825
0.162226
0.182577
0.170112
0.262055
0.170651
0.290498
0.166835
0.240622
0.161663
0.120467
0.156017
-0.0196282
0.15029
-0.127049
0.147518
-0.199223
0.145186
-0.190423
0.139389
-0.197603
0.133014
-0.184728
0.131451
-0.206
0.138101
-0.145519
0.145228
0.00391536
0.148599
0.130728
0.145882
0.33932
0.143574
0.283812
0.14852
0.268931
0.153346
0.133228
-0.0847575
0.188952
-0.00948747
-0.192941
0.185672
-0.0116258
0.182294
-0.0130427
0.178625
-0.0142757
0.174721
-0.0151154
0.170712
-0.0152902
0.166716
-0.0146317
0.162833
-0.0130263
0.159161
-0.0103739
0.155792
-0.00661049
0.152857
-0.00174628
0.150594
0.0043818
0.149144
0.0114294
0.148445
0.0188207
0.148752
0.0261745
0.15043
0.0330252
0.153888
0.0387081
0.159378
0.0421056
0.16673
0.041834
0.175495
0.0367532
0.184957
0.0257475
0.193386
0.00809866
0.198897
-0.0156203
0.200209
-0.0413577
0.197461
-0.0655579
0.191732
-0.0857369
0.184251
-0.100688
0.175966
-0.110629
0.167601
-0.116277
0.15959
-0.118358
0.151786
-0.117294
0.144348
-0.11443
0.137645
-0.108304
0.130561
-0.0982013
0.12208
-0.0859773
0.114454
-0.071435
0.111799
-0.0500542
0.115461
-0.0150982
0.122313
0.0311452
0.129074
0.098064
0.13427
0.17738
0.138144
0.258181
0.142715
0.285927
0.150223
0.233114
0.158429
0.11226
0.163039
-0.0242382
0.162546
-0.126556
0.159522
-0.196199
0.154822
-0.185723
0.147059
-0.18984
0.138697
-0.176366
0.133582
-0.200885
0.133845
-0.145783
0.135338
0.00242274
0.134229
0.131837
0.130928
0.342621
0.13008
0.284661
0.136089
0.262922
0.141669
0.127649
-0.0842098
0.198776
-0.00656806
-0.201695
0.195755
-0.00860437
0.192747
-0.0100356
0.18953
-0.0110582
0.186122
-0.0117071
0.182648
-0.0118166
0.179232
-0.0112152
0.175983
-0.00977813
0.173028
-0.00741859
0.17051
-0.0040923
0.16854
0.000224105
0.167342
0.00557955
0.167049
0.0117218
0.167692
0.0181783
0.16936
0.0245062
0.172215
0.0301703
0.176448
0.0344752
0.182121
0.0364319
0.189006
0.0349498
0.196613
0.0291458
0.204089
0.0182718
0.210168
0.00201973
0.21318
-0.0186323
0.212582
-0.0407599
0.208606
-0.0615825
0.202129
-0.0792596
0.194215
-0.0927738
0.185718
-0.102132
0.17722
-0.107779
0.169146
-0.110284
0.161363
-0.109511
0.153794
-0.106861
0.146968
-0.101478
0.140334
-0.0915674
0.132467
-0.0781096
0.124528
-0.0634969
0.120625
-0.0461512
0.122962
-0.0174345
0.12952
0.0245871
0.136733
0.090851
0.142929
0.171184
0.148036
0.253074
0.153982
0.279981
0.162704
0.224393
0.171678
0.103286
0.176344
-0.0289046
0.175064
-0.125276
0.170958
-0.192093
0.165489
-0.180254
0.157265
-0.181616
0.148297
-0.167397
0.142391
-0.19498
0.142356
-0.145747
0.144038
0.000740371
0.14333
0.132546
0.140154
0.345796
0.139321
0.285494
0.146066
0.256176
0.152179
0.121536
-0.0835629
0.208682
-0.00425884
-0.210991
0.206008