/*--------------------------------*- C++ -*----------------------------------*\
| =========                 |                                                 |
| \\      /  F ield         | OpenFOAM: The Open Source CFD Toolbox           |
|  \\    /   O peration     | Version:  2512                                  |
|   \\  /    A nd           | Website:  www.openfoam.com                      |
|    \\/     M anipulation  |                                                 |
\*---------------------------------------------------------------------------*/
FoamFile
{
    version     2.0;
    format      ascii;
    arch        "LSB;label=32;scalar=64";
    class       surfaceScalarField;
    location    "78.75";
    object      phi;
}
// * * * * * * * * * * * * * * * * * * * * * * * * * * * * * * * * * * * * * //

dimensions      [0 3 -1 0 0 0 0];

oriented        oriented;

internalField   nonuniform List<scalar> 
26232
(
0.00012164
0.000894018
-0.00101566
0.000584943
0.00149539
-0.0019587
0.00151118
0.00107479
-0.00200103
0.0030348
-0.00029393
-0.00122969
0.00530032
-0.00256308
0.000297562
0.00845425
-0.00570023
0.0025463
0.0126329
-0.00967738
0.0054987
0.0179463
-0.0144559
0.00914255
0.0244597
-0.0199722
0.0134588
0.0321775
-0.0261275
0.0184097
0.0410318
-0.0327849
0.0239306
0.0508797
-0.0397745
0.0299266
0.0615108
-0.046905
0.0362739
0.0726639
-0.0539799
0.0428268
0.0840506
-0.0608151
0.0494285
0.0953825
-0.0672546
0.0559227
0.106398
-0.0731824
0.0621668
0.116885
-0.0785296
0.0680423
0.126698
-0.0832743
0.0734612
0.135765
-0.0874453
0.0783788
0.144075
-0.0910844
0.0827744
0.15169
-0.094326
0.0867114
0.158578
-0.0971032
0.0902152
-0.0998657
0.0937611
0.164682
0.000167544
0.000726475
0.000810257
0.00085268
0.00208088
-0.000195833
0.00413761
-0.00235066
0.00713969
-0.00556515
0.0112342
-0.00979473
0.0165352
-0.0149784
0.0231006
-0.0210212
0.0309103
-0.0277819
0.0398544
-0.0350715
0.0497327
-0.0426632
0.0602699
-0.0503118
0.0711429
-0.057778
0.0820154
-0.0648524
0.0925742
-0.0713739
0.102562
-0.077242
0.111798
-0.0824193
0.120196
-0.0869274
0.127757
-0.0908353
0.134558
-0.0942458
0.140744
-0.0972705
0.146472
-0.100054
0.151977
-0.102609
-0.105337
0.157449
0.000225264
0.00050121
0.00107921
-1.266e-06
0.00274622
-0.00186284
0.00540334
-0.00500778
0.00921234
-0.00937416
0.0142955
-0.0148779
0.0207062
-0.0213891
0.0284024
-0.0287175
0.0372325
-0.036612
0.0469393
-0.0447783
0.0571852
-0.052909
0.067592
-0.0607186
0.0777888
-0.0679749
0.0874569
-0.0745204
0.096364
-0.0802811
0.104384
-0.0852621
0.111499
-0.0895342
0.117785
-0.0932131
0.123386
-0.0964366
0.128485
-0.099345
0.133275
-0.102061
0.137921
-0.104699
0.142592
-0.10728
-0.110068
0.147323
0.000301677
0.000199533
0.00141176
-0.00111135
0.00353526
-0.00398634
0.00685538
-0.00832791
0.01151
-0.0140288
0.0175573
-0.0209252
0.0249421
-0.0287739
0.0334784
-0.0372538
0.042858
-0.0459916
0.0526866
-0.054607
0.0625392
-0.0627616
0.0720206
-0.0702
0.0808181
-0.0767724
0.0887352
-0.0824375
0.095702
-0.0872478
0.101764
-0.0913238
0.107052
-0.0948229
0.11175
-0.0979104
0.116051
-0.100737
0.120134
-0.103428
0.124147
-0.106074
0.128194
-0.108746
0.132363
-0.111449
-0.114363
0.136658
0.000400539
-0.000201006
0.00181222
-0.00252303
0.00444546
-0.00661958
0.00846223
-0.0123447
0.0139381
-0.0195047
0.02082
-0.027807
0.0289016
-0.0368554
0.0378336
-0.0461858
0.0471712
-0.0553293
0.056446
-0.0638818
0.0652412
-0.0715568
0.0732511
-0.0782099
0.0803114
-0.0838327
0.0863993
-0.0885255
0.0916075
-0.092456
0.0961023
-0.0958187
0.100081
-0.0988011
0.103732
-0.101562
0.107216
-0.104222
0.110652
-0.106865
0.114124
-0.109546
0.117679
-0.1123
0.121358
-0.115128
-0.118143
0.125138
0.000520345
-0.000721351
0.00227167
-0.00427436
0.00544289
-0.0097908
0.0101384
-0.0170402
0.0163257
-0.025692
0.0237981
-0.0352795
0.0321803
-0.0452376
0.0409837
-0.0549892
0.0496961
-0.0640417
0.0578736
-0.0720593
0.0652085
-0.0788917
0.071557
-0.0845584
0.0769286
-0.0892042
0.0814463
-0.0930432
0.0852961
-0.0963058
0.0886784
-0.099201
0.0917737
-0.101896
0.0947248
-0.104513
0.0976338
-0.107131
0.100568
-0.109799
0.103569
-0.112547
0.106658
-0.11539
0.109859
-0.118329
-0.121427
0.113143
0.000656653
-0.001378
0.00276799
-0.0063857
0.00646731
-0.0134901
0.0117584
-0.0223313
0.0184582
-0.0323918
0.026186
-0.0430073
0.0344194
-0.0534709
0.0425991
-0.0631689
0.0502422
-0.0716847
0.0570219
-0.0788391
0.0627969
-0.0846668
0.0675919
-0.0893533
0.0715467
-0.0931591
0.0748573
-0.0963538
0.0777246
-0.0991731
0.0803219
-0.101798
0.0827809
-0.104355
0.0851927
-0.106925
0.0876155
-0.109553
0.0900846
-0.112268
0.0926204
-0.115083
0.0952329
-0.118003
0.0979318
-0.121028
-0.124187
0.100692
0.000802467
-0.00218047
0.00327018
-0.00885341
0.00744193
-0.0176619
0.0131791
-0.0280685
0.0201223
-0.039335
0.027731
-0.050616
0.0353975
-0.0611374
0.0425833
-0.0703547
0.04892
-0.0780215
0.0542461
-0.0841652
0.0585832
-0.0890038
0.0620764
-0.0928465
0.0649271
-0.0960098
0.0673376
-0.0987643
0.0694781
-0.101314
0.0714753
-0.103795
0.073414
-0.106294
0.0753476
-0.108858
0.0773076
-0.111513
0.0793121
-0.114273
0.0813711
-0.117142
0.0834894
-0.120121
0.0856712
-0.12321
-0.126413
0.0878975
0.000948991
-0.00312946
0.00374197
-0.0116464
0.00828444
-0.0222043
0.0142646
-0.0340486
0.0211488
-0.0462193
0.0282867
-0.0577538
0.0350687
-0.0679194
0.0410579
-0.0763439
0.0460452
-0.0830087
0.0500285
-0.0881485
0.053147
-0.0921223
0.055604
-0.0953035
0.0576054
-0.0980111
0.0593234
-0.100482
0.0608842
-0.102875
0.0623712
-0.105282
0.0638352
-0.107758
0.0653058
-0.110329
0.0667999
-0.113008
0.0683273
-0.1158
0.069893
-0.118707
0.0714996
-0.121727
0.0731479
-0.124858
-0.128091
0.0748261
0.00108604
-0.0042155
0.0041455
-0.0147058
0.00891816
-0.026977
0.0149083
-0.0400387
0.0214414
-0.0527524
0.0278295
-0.0641419
0.0335393
-0.0736293
0.038282
-0.0810866
0.0420063
-0.086733
0.0448302
-0.0909725
0.0469545
-0.0942466
0.0485904
-0.0969394
0.049917
-0.0993376
0.0510648
-0.10163
0.0521196
-0.103929
0.0531325
-0.106295
0.0541328
-0.108758
0.0551369
-0.111333
0.0561543
-0.114025
0.0571906
-0.116836
0.0582488
-0.119765
0.0593299
-0.122809
0.060433
-0.125961
-0.129211
0.0615525
0.00120338
-0.00541889
0.00444664
-0.0179491
0.00928361
-0.031814
0.0150486
-0.0458037
0.0209841
-0.0586879
0.0264392
-0.069597
0.0310093
-0.0781993
0.0345608
-0.0846381
0.0371692
-0.0893414
0.0390232
-0.0928265
0.0403389
-0.0955624
0.041306
-0.0979065
0.0420649
-0.100096
0.0427075
-0.102273
0.0432883
-0.10451
0.0438377
-0.106845
0.0443724
-0.109293
0.0449021
-0.111862
0.0454325
-0.114555
0.0459673
-0.117371
0.0465079
-0.120306
0.0470546
-0.123355
0.0476046
-0.126511
-0.129762
0.0481563
0.00129452
-0.00671341
0.00462213
-0.0212767
0.00934755
-0.0365394
0.0146744
-0.0511305
0.0198312
-0.0638447
0.0242642
-0.07403
0.0277164
-0.0816515
0.0301886
-0.0871103
0.0318398
-0.0909927
0.0328862
-0.0938728
0.0335298
-0.096206
0.0339258
-0.0983025
0.0341771
-0.100348
0.0343449
-0.102441
0.0344628
-0.104628
0.0345483
-0.10693
0.0346115
-0.109356
0.0346582
-0.111909
0.0346926
-0.11459
0.0347175
-0.117396
0.0347341
-0.120323
0.0347422
-0.123363
0.0347386
-0.126508
0.0347239
-0.129748
-0.000241682
-0.000809874
0.00105156
-0.00084379
-0.00232684
0.00292894
-0.00173373
-0.00374072
0.00463067
-0.002857
-0.00501315
0.00613641
-0.00416955
-0.00613546
0.00744801
-0.00563473
-0.00712811
0.0085933
-0.00722184
-0.00802998
0.00961708
-0.00890519
-0.00888647
0.0105698
-0.0106635
-0.00973963
0.011498
-0.0124792
-0.0106216
0.0124373
-0.0143372
-0.0115516
0.0134095
-0.0162233
-0.0125358
0.014422
-0.0181236
-0.013569
0.0154693
-0.0200224
-0.014636
0.0165348
-0.0219018
-0.0157131
0.0175924
-0.0237407
-0.0167687
0.0186076
-0.0255149
-0.017763
0.0195372
-0.0271975
-0.0186478
0.0203303
-0.02876
-0.0193653
0.0209278
-0.0301746
-0.0198494
0.021264
-0.0314164
-0.0200273
0.0212692
-0.0324675
-0.019819
0.0208701
-0.0333304
-0.0191244
0.0199872
-0.0178454
-0.0340465
0.0185615
-0.000290564
-0.00051931
-0.00100324
-0.00161416
-0.00204273
-0.00270123
-0.00333869
-0.00371718
-0.00483673
-0.00463743
-0.00649451
-0.00547033
-0.00827932
-0.00624517
-0.0101661
-0.00699968
-0.0121357
-0.00777001
-0.0141732
-0.00858412
-0.0162659
-0.00945888
-0.0184018
-0.0103999
-0.0205682
-0.0114026
-0.0227504
-0.0124538
-0.0249306
-0.0135328
-0.0270879
-0.0146113
-0.0291982
-0.0156528
-0.0312343
-0.0166116
-0.0331682
-0.0174315
-0.0349737
-0.0180439
-0.0366312
-0.0183698
-0.0381292
-0.018321
-0.0394651
-0.0177884
-0.016649
-0.0406615
-0.000318907
-0.000200403
-0.00109468
-0.000838383
-0.00221646
-0.00157946
-0.00360203
-0.00233161
-0.00518855
-0.0030509
-0.0069284
-0.00373048
-0.00878604
-0.00438753
-0.0107352
-0.00505049
-0.0127564
-0.00574884
-0.0148342
-0.00650632
-0.0169552
-0.00733789
-0.0191059
-0.00824912
-0.0212715
-0.00923704
-0.0234341
-0.0102912
-0.0255726
-0.0113943
-0.0276616
-0.0125223
-0.0296711
-0.0136432
-0.0315665
-0.0147162
-0.0333093
-0.0156887
-0.0348601
-0.0164931
-0.0361856
-0.0170443
-0.0372635
-0.0172432
-0.0380776
-0.0169743
-0.0160698
-0.0386568
-0.000323579
0.000123176
-0.00110921
-5.27568e-05
-0.00223938
-0.000449283
-0.00362482
-0.000946172
-0.00519643
-0.00147929
-0.00690153
-0.00202539
-0.00870054
-0.00258851
-0.0105639
-0.00318717
-0.0124687
-0.003844
-0.0143961
-0.00457888
-0.0163287
-0.00540537
-0.0182481
-0.00632968
-0.0201342
-0.00735093
-0.0219636
-0.00846178
-0.0237092
-0.00964878
-0.0253392
-0.0108923
-0.0268164
-0.012166
-0.0280973
-0.0134353
-0.0291302
-0.0146559
-0.0298549
-0.0157684
-0.0302082
-0.016691
-0.0301354
-0.017316
-0.0295885
-0.0175212
-0.0171123
-0.028546
-0.000304539
0.000427715
-0.00104636
0.00068906
-0.00211037
0.000614734
-0.00340504
0.000348495
-0.00485702
-2.73079e-05
-0.00640844
-0.000473963
-0.00801398
-0.000982978
-0.00963805
-0.00156309
-0.0112512
-0.00223082
-0.0128274
-0.00300276
-0.014341
-0.00389175
-0.0157655
-0.00490518
-0.0170719
-0.00604455
-0.0182281
-0.00730551
-0.0191991
-0.00867785
-0.0199461
-0.0101453
-0.0204267
-0.0116853
-0.0205936
-0.0132683
-0.0203924
-0.0148571
-0.0197567
-0.0164042
-0.0186036
-0.017844
-0.0168435
-0.0190761
-0.014401
-0.0199636
-0.0203236
-0.0111898
-0.000264436
0.000692151
-0.000913507
0.00133813
-0.00184193
0.00154316
-0.00295991
0.00146647
-0.00419105
0.00120383
-0.0054716
0.000806581
-0.00674814
0.000293566
-0.00797628
-0.00033495
-0.00911581
-0.0010913
-0.0101288
-0.00198975
-0.0109773
-0.00304328
-0.0116215
-0.00426101
-0.0120191
-0.00564693
-0.0121253
-0.00719924
-0.0118935
-0.00890973
-0.0112754
-0.0107634
-0.0102229
-0.0127378
-0.00868764
-0.0148037
-0.00662053
-0.0169242
-0.00396854
-0.0190562
-0.000664362
-0.0211482
0.00339088
-0.0231314
0.00829437
-0.0248671
-0.026225
0.0141957
-0.000208456
0.000900607
-0.000725287
0.00185496
-0.00145923
0.0022771
-0.0023242
0.00233145
-0.00324134
0.00212097
-0.00413989
0.00170513
-0.00495701
0.00111069
-0.00563358
0.000341617
-0.00611618
-0.000608703
-0.00635036
-0.00175556
-0.00628115
-0.00311249
-0.00585167
-0.00469049
-0.0050031
-0.0064955
-0.0036756
-0.00852674
-0.00180979
-0.0107755
0.000651358
-0.0132245
0.00376051
-0.015847
0.0075643
-0.0186074
0.0121023
-0.0214622
0.0174073
-0.0243612
0.0235075
-0.0272484
0.0304596
-0.0300834
0.0382452
-0.0326527
-0.0354332
0.0474534
-0.000143485
0.00104409
-0.000501417
0.00221289
-0.000996696
0.00277238
-0.00154699
0.00288175
-0.00207033
0.0026443
-0.0024875
0.00212231
-0.00272261
0.0013458
-0.00270222
0.000321231
-0.00235341
-0.000957514
-0.00160348
-0.0025055
-0.000378666
-0.0043373
0.00139529
-0.00646445
0.00379167
-0.00889188
0.00688046
-0.0116155
0.0107255
-0.0146206
0.0153814
-0.0178804
0.020891
-0.0213566
0.0272835
-0.0249999
0.0345735
-0.0287522
0.0427628
-0.0325505
0.0518323
-0.0363179
0.0618008
-0.0400519
0.0725332
-0.0433851
-0.0474623
0.0845623
-7.69572e-05
0.00112105
-0.000263503
0.00239944
-0.000492725
0.0030016
-0.00068355
0.00307257
-0.000749378
0.00271013
-0.000600685
0.00197362
-0.00014703
0.00089214
0.000702158
-0.000527957
0.00203881
-0.00229416
0.00395371
-0.0044204
0.00653621
-0.0069198
0.00987122
-0.00979946
0.0140355
-0.0130562
0.0190934
-0.0166734
0.0250923
-0.0206195
0.0320594
-0.0248475
0.039999
-0.0292962
0.0488923
-0.0338932
0.0586987
-0.0385586
0.06936
-0.0432117
0.0808013
-0.0477592
0.0929635
-0.0522141
0.105695
-0.0561164
-0.0609982
0.119231
-1.52793e-05
0.00113633
-3.02299e-05
0.00241439
1.951e-05
0.00295186
0.00021683
0.00287525
0.000657208
0.00226975
0.00144213
0.00118869
0.00267748
-0.000343208
0.00447111
-0.00232158
0.00693046
-0.00475351
0.0101586
-0.00764858
0.0142497
-0.0110109
0.0192829
-0.0148326
0.0253158
-0.0190891
0.0323791
-0.0237366
0.0404713
-0.0287118
0.0495575
-0.0339337
0.0595696
-0.0393083
0.0704104
-0.0447341
0.0819608
-0.050109
0.0940849
-0.0553358
0.106649
-0.0603238
0.119497
-0.0650614
0.132565
-0.0691843
-0.0740336
0.1456
3.77449e-05
0.00109858
0.000186648
0.00226549
0.000518226
0.00262028
0.00112499
0.00226849
0.00211274
0.001282
0.00359717
-0.000295737
0.00569945
-0.00244549
0.00854062
-0.00516275
0.0122355
-0.00844842
0.0168847
-0.0122977
0.0225653
-0.0166915
0.0293219
-0.0215892
0.0371591
-0.0269263
0.0460362
-0.0326137
0.0558669
-0.0385425
0.0665229
-0.0445897
0.0778421
-0.0506275
0.0896403
-0.0565323
0.101725
-0.0621934
0.11391
-0.0675213
0.126036
-0.0724493
0.13793
-0.0769555
0.149612
-0.0808662
-0.0848344
0.160412
8.29251e-05
0.000389716
0.00100897
0.00204778
0.00362733
0.00587789
0.0089311
0.0129109
0.0179213
0.0240332
0.0312723
0.0396097
0.0489573
0.0591704
0.0700564
0.0813894
0.0929287
0.104439
0.115706
0.126564
0.136889
0.146645
0.155994
0.164921
-0.0328539
-0.0230508
0.0218582
-0.0311011
-0.0179451
0.0161923
-0.0286922
-0.010828
0.00841911
-0.0257228
-0.00156476
-0.00140463
-0.0220897
0.0096679
-0.013301
-0.0179402
0.0230877
-0.0272372
-0.0133426
0.0382178
-0.0428154
-0.00848868
0.0544991
-0.0593531
-0.00363857
0.0712323
-0.0760824
0.000974962
0.0876018
-0.0922153
0.00513961
0.102825
-0.10699
0.00913794
0.115691
-0.119689
0.0135662
0.125188
-0.129616
0.0193474
0.129737
-0.135519
0.0274242
0.127211
-0.135288
0.0381733
0.115653
-0.126402
0.0510814
0.0940044
-0.106913
0.0650489
0.0625692
-0.0765367
0.0791736
0.0224792
-0.0366039
0.0929177
-0.0238036
0.0100595
0.105737
-0.0720152
0.0591961
0.116728
-0.115001
0.10401
0.124849
-0.1466
0.138479
0.129606
-0.165196
0.160439
0.131448
-0.173016
0.171174
0.13077
-0.173473
0.174151
0.126812
-0.172006
0.175964
0.119102
-0.175492
0.183203
0.109957
-0.183396
0.19254
0.104115
-0.181044
0.186887
0.105073
-0.148768
0.14781
0.112608
-0.0819403
0.074405
0.123711
0.00351067
-0.0146138
0.134804
0.0851098
-0.0962019
0.143616
0.147336
-0.156149
0.149607
0.184876
-0.190868
0.152199
0.202419
-0.205011
0.149915
0.216384
-0.2141
0.142802
0.23723
-0.230116
0.134348
0.252221
-0.243766
0.129366
0.22526
-0.220278
0.13021
0.143233
-0.144078
0.135745
0.022673
-0.0282078
0.143378
-0.0898176
0.0821844
0.150148
-0.171647
0.164877
0.152548
-0.215976
0.213576
0.14848
-0.244327
0.248396
0.139992
-0.26902
0.277508
0.132733
-0.257001
0.26426
0.131587
-0.202696
0.203842
0.136631
-0.068307
0.0632629
0.142829
0.0437681
-0.0499664
0.144462
0.177247
-0.17888
0.141072
0.257976
-0.254585
0.135809
0.315458
-0.310195
0.133529
0.319866
-0.317586
0.134894
0.15772
-0.159085
0.135122
0.09797
-0.0981979
0.1333
-0.172269
0.174092
-0.241422
0.243177
-0.0401202
-0.0235921
-0.038951
-0.0191143
-0.037066
-0.012713
-0.0343024
-0.00432833
-0.030832
0.00619747
-0.0265692
0.0188249
-0.0215569
0.0332056
-0.0158872
0.0488294
-0.00975254
0.0650976
-0.0032701
0.0811194
0.00355155
0.0960038
0.0109816
0.108261
0.0193487
0.11682
0.0292046
0.119882
0.0408557
0.11556
0.0540676
0.102441
0.0680325
0.0800395
0.0817449
0.0488569
0.0946506
0.00957346
0.106454
-0.0356066
0.116849
-0.0824108
0.125125
-0.123277
0.130554
-0.15203
0.132867
-0.167509
0.132631
-0.17278
0.130576
-0.171419
0.126094
-0.167524
0.118031
-0.167429
0.107796
-0.17316
0.100157
-0.173405
0.0996683
-0.14828
0.106855
-0.0891273
0.118675
-0.00830908
0.131137
0.0726478
0.141721
0.136752
0.149439
0.177159
0.15326
0.198598
0.151784
0.217859
0.145499
0.243515
0.137986
0.259734
0.133578
0.229668
0.134188
0.142624
0.138709
0.0181515
0.14489
-0.0959985
0.150428
-0.177185
0.152157
-0.217706
0.147814
-0.239984
0.139184
-0.26039
0.131888
-0.249704
0.13095
-0.201758
0.136289
-0.0736462
0.142722
0.037335
0.144474
0.175495
0.141211
0.26124
0.136014
0.320654
0.133671
0.32221
0.135285
0.156105
0.135759
0.0974959
0.13407
-0.17058
-0.239784
-0.0385536
-0.0236953
-0.0378214
-0.0198465
-0.0363568
-0.0141777
-0.0339469
-0.0067382
-0.0305837
0.00283425
-0.0263132
0.0145544
-0.0210426
0.027935
-0.0146585
0.0424454
-0.00740497
0.0578441
0.000808113
0.0729063
0.0103378
0.086474
0.0206416
0.097957
0.0319941
0.105468
0.0445569
0.107319
0.058187
0.10193
0.0723399
0.0882881
0.0861478
0.0662316
0.0988239
0.0361808
0.109917
-0.00151965
0.11955
-0.0452398
0.127393
-0.0902537
0.132891
-0.128774
0.135646
-0.154786
0.135686
-0.167549
0.133616
-0.170709
0.130336
-0.168139
0.125542
-0.16273
0.117624
-0.159511
0.106851
-0.162387
0.0975649
-0.164119
0.0952817
-0.145997
0.101612
-0.0954573
0.113717
-0.020414
0.127361
0.0590031
0.139652
0.124462
0.14907
0.16774
0.154181
0.193486
0.153713
0.218327
0.148482
0.248747
0.141982
0.266233
0.138043
0.233607
0.138292
0.142374
0.141706
0.0147376
0.1464
-0.100693
0.150665
-0.18145
0.151772
-0.218812
0.147268
-0.235481
0.13859
-0.251711
0.131275
-0.242389
0.130483
-0.200967
0.136034
-0.079197
0.142704
0.030665
0.144613
0.173586
0.141484
0.264369
0.13634
0.325798
0.13392
0.324629
0.135803
0.154223
0.136586
0.0967122
0.135031
-0.169025
-0.238239
-0.0287286
-0.0235127
-0.0283052
-0.0202698
-0.0271089
-0.0153739
-0.0250608
-0.00878634
-0.0216615
-0.000565051
-0.0173658
0.0102587
-0.0119996
0.0225688
-0.00533114
0.0357769
0.00313941
0.0493735
0.0130951
0.0629506
0.0240106
0.0755586
0.0360428
0.0859248
0.0490827
0.0924279
0.062921
0.0934806
0.0771369
0.087714
0.0910705
0.0743545
0.103914
0.0533878
0.115037
0.0250583
0.12425
-0.0107326
0.13169
-0.0526803
0.137062
-0.0956257
0.13988
-0.131592
0.140058
-0.154964
0.138
-0.16549
0.134351
-0.16706
0.129982
-0.16377
0.124956
-0.157704
0.117586
-0.15214
0.106976
-0.151777
0.0964492
-0.153593
0.0920892
-0.141637
0.0969835
-0.100352
0.108901
-0.0323311
0.123485
0.044419
0.137364
0.110583
0.14843
0.156674
0.1549
0.187017
0.155641
0.217586
0.151659
0.252729
0.1462
0.271692
0.142606
0.237201
0.14238
0.142601
0.144682
0.012435
0.147885
-0.103896
0.15085
-0.184414
0.151361
-0.219324
0.146793
-0.230912
0.138147
-0.243065
0.130828
-0.23507
0.130123
-0.200262
0.135829
-0.0849027
0.142754
0.0237395
0.14487
0.17147
0.141894
0.267345
0.136799
0.330893
0.134288
0.327141
0.136446
0.152064
0.137597
0.0955611
0.13618
-0.167607
-0.236763
-0.0118503
-0.0228522
-0.011976
-0.0201441
-0.0111551
-0.0161948
-0.00932442
-0.010617
-0.00639475
-0.00349472
-0.0022312
0.00609512
0.00373535
0.0166022
0.0112307
0.0282816
0.0201272
0.040477
0.0303545
0.0527233
0.0418575
0.0640556
0.0545141
0.0732682
0.0680412
0.0789008
0.0820079
0.0795139
0.0958289
0.073893
0.108817
0.0613665
0.120283
0.0419216
0.129759
0.0155829
0.1372
-0.0181736
0.142599
-0.0580796
0.145608
-0.0986344
0.145847
-0.131832
0.143582
-0.152699
0.139631
-0.161539
0.134705
-0.162135
0.129467
-0.158533
0.124234
-0.152471
0.11762
-0.145526
0.107833
-0.141991
0.0967281
-0.142488
0.090301
-0.135209
0.0932015
-0.103252
0.104371
-0.043501
0.119542
0.0292479
0.134801
0.0953241
0.147419
0.144057
0.155313
0.179123
0.157458
0.215441
0.154899
0.255287
0.150484
0.276108
0.147124
0.240561
0.146332
0.143392
0.147551
0.0112163
0.149307
-0.105652
0.150956
-0.186063
0.150894
-0.219262
0.146349
-0.226367
0.137805
-0.234521
0.130479
-0.227744
0.129805
-0.199588
0.135626
-0.0907238
0.14284
0.0165256
0.145228
0.169082
0.142441
0.270132
0.137402
0.335932
0.134785
0.329758
0.137215
0.149634
0.138786
0.09399
0.13751
-0.166332
-0.235337
0.0125154
-0.0211718
0.0113547
-0.0189834
0.0112576
-0.0160978
0.0124214
-0.0117808
0.0148279
-0.00590121
0.0190471
0.00187596
0.0243914
0.0112579
0.0313196
0.0213533
0.0398209
0.0319758
0.0497959
0.0427482
0.0610977
0.0527537
0.0734993
0.0608667
0.0866077
0.0657924
0.0998812
0.0662404
0.11268
0.0610941
0.12436
0.0496862
0.134379
0.0319027
0.142379
0.00758327
0.148363
-0.0241573
0.151974
-0.0616914
0.15274
-0.0994004
0.150543
-0.129634
0.146071
-0.148226
0.140474
-0.155942
0.134552
-0.156213
0.128698
-0.152678
0.123267
-0.14704
0.117417
-0.139677
0.108968
-0.133541
0.098119
-0.131639
0.0899865
-0.127077
0.0904793
-0.103745
0.100286
-0.0533076
0.115562
0.0139716
0.131883
0.0790029
0.145908
0.130032
0.155278
0.169752
0.159006
0.211714
0.15802
0.256272
0.154684
0.279444
0.151459
0.243786
0.150043
0.144809
0.150228
0.0110318
0.150624
-0.106048
0.150957
-0.186396
0.150328
-0.218633
0.145887
-0.221926
0.13751
-0.226144
0.130163
-0.220398
0.129459
-0.198884
0.13537
-0.0966353
0.14292
0.00897609
0.145663
0.166339
0.14312
0.272674
0.138157
0.340896
0.13542
0.332495
0.138112
0.146942
0.140144
0.0919582
0.139014
-0.165202
-0.233945
0.0441477
-0.0178661
0.0415286
-0.0163642
0.0397878
-0.014357
0.0392486
-0.0112417
0.0400431
-0.00669572
0.0428039
-0.000884761
0.0468345
0.0072272
0.0526279
0.01556
0.0601271
0.0244765
0.0692123
0.033663
0.0796775
0.0422886
0.0912062
0.049338
0.103338
0.0536608
0.115486
0.0540923
0.12701
0.0495695
0.137321
0.0393759
0.145961
0.0232621
0.152854
0.000690607
0.157519
-0.0288225
0.15948
-0.063652
0.158152
-0.0980726
0.153754
-0.125237
0.147394
-0.141866
0.140449
-0.148997
0.133786
-0.14955
0.127575
-0.146467
0.121994
-0.141459
0.116751
-0.134433
0.10987
-0.126661
0.100125
-0.121893
0.0910086
-0.117961
0.0889784
-0.101715
0.0967818
-0.061111
0.111561
-0.000807829
0.128527
0.0620375
0.143759
0.1148
0.154629
0.158882
0.160101
0.206242
0.160853
0.25552
0.15864
0.281657
0.155513
0.246913
0.153418
0.146903
0.152627
0.0118231
0.151786
-0.105207
0.150825
-0.185435
0.149623
-0.217431
0.14536
-0.217664
0.137217
-0.218
0.129822
-0.213003
0.129018
-0.198079
0.135002
-0.102619
0.142945
0.00103271
0.146146
0.163138
0.143922
0.274899
0.13907
0.345747
0.136203
0.335362
0.139137
0.144008
0.141666
0.0894291
0.140684
-0.16422
-0.232574
0.0799526
-0.0132564
0.0759601
-0.0123717
0.0726754
-0.0110724
0.0703278
-0.008894
0.0691956
-0.00556354
0.0695093
-0.00119853
0.0715272
0.00520938
0.0753167
0.0117705
0.0809501
0.0188431
0.0883406
0.0262725
0.097255
0.0333742
0.107323
0.0392697
0.118045
0.0429396
0.128813
0.0433236
0.138993
0.0393901
0.148027
0.030341
0.155477
0.0158121
0.161302
-0.0051341
0.164695
-0.0322149
0.164982
-0.0639397
0.161661
-0.0947517
0.155339
-0.118914
0.147473
-0.134
0.139523
-0.141048
0.132347
-0.142374
0.125994
-0.140113
0.120373
-0.135838
0.115521
-0.129581
0.110117
-0.121258
0.102115
-0.113891
0.0929923
-0.108838
0.0887294
-0.0974518
0.0939931
-0.0663747
0.107541
-0.0143558
0.12465
0.0449289
0.140846
0.0986034
0.153201
0.146527
0.160526
0.198917
0.163145
0.252901
0.162156
0.282647
0.159158
0.24991
0.156364
0.149697
0.154683
0.0135049
0.152736
-0.10326
0.150526
-0.183225
0.14873
-0.215634
0.144711
-0.213645
0.136884
-0.210173
0.129412
-0.205532
0.128418
-0.197085
0.134458
-0.108658
0.142858
-0.00736811
0.146639
0.159358
0.144828
0.276709
0.140141
0.350434
0.137142
0.338361
0.140295
0.140855
0.143344
0.0863806
0.142507
-0.163383
-0.231219
0.114205
-0.00823067
0.109652
-0.00781844
0.105609
-0.00702937
0.1022
-0.00548558
0.0997198
-0.00308305
0.0981957
0.000325585
0.0982068
0.0051982
0.0997791
0.0101982
0.103103
0.0155192
0.108194
0.0211819
0.1149
0.0266682
0.122903
0.0312668
0.131729
0.034113
0.140792
0.0342604
0.14946
0.0307221
0.157151
0.0226501
0.163367
0.00959644
0.167871
-0.00963794
0.169812
-0.034156
0.168298
-0.0624259
0.163091
-0.0895445
0.155177
-0.111
0.146222
-0.125045
0.137629
-0.132455
0.130147
-0.134892
0.1238
-0.133766
0.118282
-0.13032
0.113674
-0.124972
0.109426
-0.11701
0.10344
-0.107905
0.09532
-0.100718
0.0895597
-0.0916915
0.0920012
-0.0688162
0.103553
-0.025907
0.12019
0.0282911
0.137043
0.0817504
0.150824
0.132747
0.160114
0.189626
0.164772
0.248244
0.165104
0.282314
0.162269
0.252745
0.158853
0.153114
0.156288
0.0160699
0.1534
-0.100372
0.150012
-0.179838
0.147592
-0.213214
0.143874
-0.209927
0.13647
-0.202769
0.128903
-0.197965
0.127611
-0.195793
0.133665
-0.114712
0.142609
-0.0163125
0.147097
0.15487
0.145817
0.27799
0.141366
0.354885
0.138245
0.341483
0.141592
0.137508
0.145163
0.0828095
0.144473
-0.162693
-0.229877
0.140991
-0.00362138
0.136717
-0.00354508
0.132772
-0.00308388
0.129281
-0.00199484
0.126571
-0.000373106
0.124294
0.00260237
0.123341
0.00615177
0.123568
0.00997132
0.125143
0.0139437
0.128188
0.0181375
0.132663
0.0221926
0.138381
0.025549
0.144995
0.0274993
0.152012
0.0272433
0.158839
0.0238949
0.164917
0.0165718
0.169642
0.00487147
0.172505
-0.0125001
0.172624
-0.034276
0.169181
-0.0589826
0.162276
-0.0826396
0.153167
-0.101891
0.143538
-0.115415
0.134628
-0.123545
0.127025
-0.127289
0.120776
-0.127517
0.115501
-0.125046
0.111117
-0.120588
0.107646
-0.113538
0.103565
-0.103824
0.0972253
-0.0943786
0.0910249
-0.0854911
0.0908328
-0.0686242
0.0997268
-0.034801
0.115159
0.0128591
0.132269
0.06464
0.147351
0.117665
0.158595
0.178383
0.165345
0.241494
0.167166
0.280493
0.164706
0.255204
0.160756
0.157065
0.15746
0.0193655
0.153726
-0.0966388
0.149259
-0.17537
0.146179
-0.210134
0.142792
-0.20654
0.135944
-0.195921
0.128293
-0.190313
0.126572
-0.194073
0.132586
-0.120725
0.142117
-0.0258439
0.147472
0.149514
0.146856
0.278606
0.142734
0.359007
0.139513
0.344704
0.143026
0.133994
0.14712
0.0787158
0.146572
-0.162145
-0.22855
0.156715
7.58622e-05
0.153225
-5.52751e-05
0.149965
0.000176589
0.146986
0.000984508
0.144353
0.00225894
0.142679
0.00427663
0.141876
0.00695459
0.141877
0.00997099
0.142775
0.0130458
0.144788
0.0161242
0.147875
0.0191052
0.151908
0.021516
0.156637
0.0227711
0.161707
0.0221729
0.166636
0.0189661
0.170831
0.0123763
0.173589
0.00211398
0.174728
-0.013639
0.172916
-0.032464
0.167708
-0.0537751
0.15954
-0.0744711
0.149777
-0.0921281
0.139934
-0.105573
0.131021
-0.114632
0.123458
-0.119726
0.117319
-0.121378
0.112307
-0.120034
0.108143
-0.116424
0.105071
-0.110466
0.102425
-0.101178
0.0981723
-0.0901262
0.0926058
-0.0799247
0.090444
-0.0664623
0.0962894
-0.0406465
0.10968
-0.000531131
0.126479
0.0478401
0.142714
0.10143
0.156056
0.165042
0.16513
0.232419
0.168515
0.277108
0.166414
0.257305
0.162217
0.161262
0.158202
0.0233807
0.153795
-0.0922325
0.148372
-0.169946
0.144588
-0.20635
0.141496
-0.203449
0.135313
-0.189738
0.127615
-0.182616
0.125339
-0.191796
0.131205
-0.126591
0.141311
-0.0359497
0.147706
0.143119
0.14791
0.278401
0.144224
0.362693
0.140939
0.34799
0.144604
0.130329
0.149194
0.0741265
0.148791
-0.161743
-0.227248
0.162266
0.0027303
0.159415
0.00279573
0.156659
0.00293281
0.154344
0.00329939
0.152524
0.00407944
0.151381
0.00541948
0.151034
0.00730092
0.15147
0.00953575
0.152614
0.0119013
0.154417
0.0143217
0.156922
0.0166002
0.16005
0.0183875
0.163604
0.0192176
0.167275
0.0185019
0.170659
0.0155816
0.173233
0.00980272
0.174849
0.000498238
0.173794
-0.0125839
0.170265
-0.0289356
0.163857
-0.047367
0.155242
-0.065856
0.145632
-0.082518
0.136193
-0.0961343
0.127671
-0.10611
0.12036
-0.112415
0.114351
-0.115369
0.10952
-0.115203
0.105525
-0.11243
0.10254
-0.107481
0.100656
-0.0992938
0.0982388
-0.0877091
0.0940176
-0.0757034
0.0908254
-0.0632701
0.0937054
-0.0435265
0.104222
-0.0110481
0.119846
0.032216
0.136481
0.0847952
0.151517
0.150006
0.162993
0.220944
0.168281
0.27182
0.167066
0.25852
0.162914
0.165414
0.158644
0.0276501
0.153553
-0.0871415
0.1474
-0.163793
0.142935
-0.201885
0.140056
-0.20057
0.13459
-0.184272
0.126892
-0.174918
0.124002
-0.188906
0.129635
-0.132224
0.140195
-0.0465099
0.147737
0.135576
0.148939
0.2772
0.145828
0.365803
0.142531
0.351287
0.146326
0.126533
0.151371
0.0690822
0.151135
-0.161507
-0.225949
0.186429
0.00535842
-0.189057
0.18428
0.00494488
0.182181
0.0050316
0.180111
0.0053698
0.178167
0.00602337
0.176495
0.0070919
0.17523
0.00856555
0.174445
0.0103206
0.17416
0.0121865
0.174478
0.0140033
0.17553
0.0155483
0.177408
0.0165093
0.180155
0.0164707
0.18373
0.0149275
0.187963
0.0113481
0.192461
0.00530492
0.196735
-0.0037758
0.200004
-0.0158531
0.20151
-0.030441
0.200638
-0.0464952
0.19734
-0.0625585
0.192019
-0.0771969
0.185256
-0.0893709
0.177645
-0.0984985
0.169667
-0.104437
0.161693
-0.107395
0.15401
-0.107521
0.146578
-0.104998
0.139412
-0.100314
0.132952
-0.0928341
0.12665
-0.0814066
0.118829
-0.0678832
0.11002
-0.0544612
0.104144
-0.0376506
0.104665
-0.0115683
0.110081
0.0267993
0.117038
0.0778383
0.123031
0.144013
0.12823
0.215744
0.134274
0.265776
0.143535
0.249259
0.155385
0.153564
0.164767
0.0182679
0.168466
-0.0908401
0.165571
-0.160898
0.159904
-0.196218
0.153936
-0.194602
0.145856
-0.176193
0.136207
-0.165269
0.129472
-0.182171
0.12893
-0.131682
0.132097
-0.0496773
0.133277
0.134396
0.131859
0.278618
0.129474
0.368188
0.130136
0.350624
0.13602
0.12065
0.141678
0.0634244
0.140845
-0.160675
-0.22256
0.19803
0.00687054
-0.199542
0.196549
0.0064255
0.195165
0.00641559
0.193846
0.00668922
0.192662
0.00720767
0.191736
0.00801769
0.191176
0.00912502
0.191053
0.0104439
0.191417
0.0118225
0.192333
0.013087
0.193857
0.0140249
0.196016
0.0143506
0.198788
0.0136984
0.202057
0.0116583
0.205593
0.00781268
0.20908
0.0018179
0.212019
-0.00671478
0.213797
-0.0176314
0.213864
-0.0305083
0.211877
-0.0445085
0.207838
-0.0585187
0.202055
-0.0714144
0.195008
-0.0823242
0.187237
-0.0907271
0.179209
-0.0964095
0.171234
-0.0994191
0.163563
-0.0998505
0.156233
-0.0976675
0.149106
-0.0931872
0.142547
-0.0862755
0.136619
-0.0754779
0.129824
-0.0610889
0.121443
-0.0460793
0.114298
-0.030506
0.112381
-0.00965094
0.116383
0.0227974
0.123248
0.0709725
0.130208
0.137054
0.136864
0.209088
0.144898
0.257742
0.156304
0.237852
0.169253
0.140615
0.178979
0.0085421
0.181952
-0.0938126
0.177928
-0.156874
0.170991
-0.189281
0.16425
-0.187861
0.155895
-0.167837
0.145732
-0.155105
0.13825
-0.17469
0.137154
-0.130586
0.140469
-0.0529917
0.142139
0.132726
0.141189
0.279568
0.139253
0.370125
0.14021
0.349667
0.146481
0.114379
0.152607