/*--------------------------------*- C++ -*----------------------------------*\
| =========                 |                                                 |
| \\      /  F ield         | OpenFOAM: The Open Source CFD Toolbox           |
|  \\    /   O peration     | Version:  2512                                  |
|   \\  /    A nd           | Website:  www.openfoam.com                      |
|    \\/     M anipulation  |                                                 |
\*---------------------------------------------------------------------------*/
FoamFile
{
    version     2.0;
    format      ascii;
    arch        "LSB;label=32;scalar=64";
    class       volScalarField;
    location    "112.25";
    object      p;
}
// * * * * * * * * * * * * * * * * * * * * * * * * * * * * * * * * * * * * * //

dimensions      [0 2 -2 0 0 0 0];

internalField   nonuniform List<scalar> 
13248
(
-0.310934
-0.310277
-0.308787
-0.306603
-0.303816
-0.300334
-0.296197
-0.291349
-0.285762
-0.279447
-0.272453
-0.264874
-0.256847
-0.248535
-0.240122
-0.231784
-0.223681
-0.215939
-0.208641
-0.201847
-0.195517
-0.189742
-0.184089
-0.179022
-0.318709
-0.31704
-0.314722
-0.31184
-0.308421
-0.304445
-0.299875
-0.294648
-0.288716
-0.282065
-0.274728
-0.266788
-0.258373
-0.24964
-0.240762
-0.231903
-0.223204
-0.214774
-0.206687
-0.198978
-0.191631
-0.18463
-0.177792
-0.171403
-0.327794
-0.324992
-0.321721
-0.318026
-0.313882
-0.309279
-0.30415
-0.298399
-0.291943
-0.284741
-0.276811
-0.268236
-0.259153
-0.249733
-0.240156
-0.230593
-0.22119
-0.212058
-0.203268
-0.194859
-0.186808
-0.179123
-0.171647
-0.164622
-0.338256
-0.33421
-0.329895
-0.325303
-0.320343
-0.314986
-0.309129
-0.302628
-0.295362
-0.287276
-0.278402
-0.268855
-0.258811
-0.248474
-0.238053
-0.227731
-0.217655
-0.207928
-0.198607
-0.189711
-0.181224
-0.17314
-0.165333
-0.15809
-0.350198
-0.344809
-0.339385
-0.333838
-0.327968
-0.321697
-0.314868
-0.30729
-0.29883
-0.289462
-0.279279
-0.268465
-0.257258
-0.245905
-0.234629
-0.223608
-0.212966
-0.202777
-0.193071
-0.183847
-0.175083
-0.166759
-0.158787
-0.151378
-0.363684
-0.356866
-0.350294
-0.343741
-0.336832
-0.329409
-0.321258
-0.312173
-0.302067
-0.29101
-0.279203
-0.266923
-0.254467
-0.242098
-0.230025
-0.218392
-0.207281
-0.196727
-0.186732
-0.177276
-0.168327
-0.159853
-0.151788
-0.144284
-0.37864
-0.37034
-0.3626
-0.354963
-0.346813
-0.337889
-0.327954
-0.316865
-0.304666
-0.291584
-0.277954
-0.264134
-0.250445
-0.237129
-0.224347
-0.212189
-0.200689
-0.189843
-0.179628
-0.170006
-0.160936
-0.152375
-0.144282
-0.13672
-0.394803
-0.385017
-0.376088
-0.367233
-0.357533
-0.346644
-0.334395
-0.320812
-0.306156
-0.290844
-0.275329
-0.260007
-0.24517
-0.231004
-0.217603
-0.204995
-0.193168
-0.182086
-0.171702
-0.161967
-0.152829
-0.144241
-0.136169
-0.128598
-0.411672
-0.400459
-0.390309
-0.380019
-0.368348
-0.354955
-0.339869
-0.323401
-0.306079
-0.288495
-0.271163
-0.254457
-0.238599
-0.223693
-0.209761
-0.196776
-0.184683
-0.17342
-0.162922
-0.153126
-0.143974
-0.135415
-0.12741
-0.119879
-0.428499
-0.415976
-0.404542
-0.392502
-0.378361
-0.361932
-0.343596
-0.324032
-0.304027
-0.284281
-0.2653
-0.247378
-0.230645
-0.215116
-0.200746
-0.187457
-0.175165
-0.163783
-0.153231
-0.143432
-0.134321
-0.125843
-0.117939
-0.110496
-0.444305
-0.430624
-0.417785
-0.4036
-0.386474
-0.366566
-0.344745
-0.322073
-0.299528
-0.277836
-0.257425
-0.238481
-0.221027
-0.204998
-0.190292
-0.17679
-0.164381
-0.152959
-0.142428
-0.132701
-0.123704
-0.115372
-0.107618
-0.100333
-0.457972
-0.44333
-0.428936
-0.412174
-0.39157
-0.367843
-0.34243
-0.316748
-0.29188
-0.268493
-0.246891
-0.22713
-0.209132
-0.192757
-0.177849
-0.164259
-0.151849
-0.140496
-0.130092
-0.12054
-0.11176
-0.103676
-0.0961756
-0.0891983
-0.343925
-0.346323
-0.347691
-0.348566
-0.34943
-0.350422
-0.351572
-0.352868
-0.354268
-0.355708
-0.357111
-0.358387
-0.359421
-0.360082
-0.360233
-0.359774
-0.358536
-0.35639
-0.353234
-0.349017
-0.343745
-0.337503
-0.330553
-0.323429
-0.332208
-0.33489
-0.336307
-0.337019
-0.337521
-0.337935
-0.338285
-0.338552
-0.338693
-0.338646
-0.338338
-0.33769
-0.336604
-0.334999
-0.332795
-0.329929
-0.326353
-0.322048
-0.317044
-0.311428
-0.305345
-0.298969
-0.292667
-0.287463
-0.321842
-0.324643
-0.326036
-0.326571
-0.326725
-0.326602
-0.326212
-0.325534
-0.324525
-0.323124
-0.321268
-0.318888
-0.315933
-0.31235
-0.308111
-0.303218
-0.297707
-0.291656
-0.285196
-0.278524
-0.271895
-0.26555
-0.259766
-0.25569
-0.313052
-0.315844
-0.31716
-0.317515
-0.317353
-0.316754
-0.315714
-0.31421
-0.3122
-0.309632
-0.306455
-0.302625
-0.298113
-0.292913
-0.287047
-0.280577
-0.273609
-0.266301
-0.258861
-0.251562
-0.244733
-0.23869
-0.233649
-0.230834
-0.305941
-0.308636
-0.309837
-0.310017
-0.309571
-0.308556
-0.306957
-0.304748
-0.30189
-0.298346
-0.29408
-0.289074
-0.28333
-0.276879
-0.269792
-0.262182
-0.254214
-0.246102
-0.238109
-0.230552
-0.223796
-0.218207
-0.214019
-0.212015
-0.300537
-0.303086
-0.304147
-0.304147
-0.303439
-0.302056
-0.299972
-0.297162
-0.293595
-0.289245
-0.284099
-0.278162
-0.27147
-0.264091
-0.256135
-0.247761
-0.239175
-0.230635
-0.22244
-0.214928
-0.208462
-0.203419
-0.200155
-0.198439
-0.296851
-0.29922
-0.300115
-0.299925
-0.298964
-0.297246
-0.29474
-0.29142
-0.287265
-0.282264
-0.276425
-0.269779
-0.262393
-0.254369
-0.245853
-0.237042
-0.228175
-0.219537
-0.211445
-0.204239
-0.19827
-0.193775
-0.191547
-0.18967
-0.294898
-0.297046
-0.297743
-0.297345
-0.296133
-0.294109
-0.29124
-0.287502
-0.282883
-0.277387
-0.271044
-0.263911
-0.256081
-0.247689
-0.238916
-0.229984
-0.221158
-0.212737
-0.205035
-0.198361
-0.193084
-0.189063
-0.187893
-0.185605
-0.294703
-0.296561
-0.297012
-0.29638
-0.294917
-0.292619
-0.289452
-0.285395
-0.280447
-0.274625
-0.267975
-0.260578
-0.252554
-0.244064
-0.235311
-0.22654
-0.218023
-0.210053
-0.202926
-0.196872
-0.19231
-0.188658
-0.188156
-0.185741
-0.296275
-0.297735
-0.297868
-0.296963
-0.295241
-0.292695
-0.28929
-0.285014
-0.279861
-0.273862
-0.267079
-0.259607
-0.251584
-0.243189
-0.234639
-0.226179
-0.218075
-0.210594
-0.203995
-0.198434
-0.194291
-0.190922
-0.190298
-0.188134
-0.299576
-0.300491
-0.300207
-0.298965
-0.296944
-0.294151
-0.29054
-0.286089
-0.280805
-0.274718
-0.267894
-0.260439
-0.252498
-0.244256
-0.235929
-0.22775
-0.219956
-0.212769
-0.206386
-0.200939
-0.196639
-0.19324
-0.191788
-0.189871
-0.304508
-0.304715
-0.303885
-0.302204
-0.299792
-0.296719
-0.292871
-0.288238
-0.282821
-0.276645
-0.269775
-0.262315
-0.254412
-0.246244
-0.23801
-0.229919
-0.222163
-0.214911
-0.208286
-0.202393
-0.197263
-0.193011
-0.189909
-0.18772
-0.315158
-0.305747
-0.297752
-0.292371
-0.290825
-0.293879
-0.301512
-0.312527
-0.32485
-0.335163
-0.339941
-0.335699
-0.319463
-0.290648
-0.251909
-0.209286
-0.169738
-0.138276
-0.116943
-0.105389
-0.102317
-0.107245
-0.120839
-0.141698
-0.162829
-0.173655
-0.167838
-0.147424
-0.121107
-0.0972624
-0.08054
-0.0718165
-0.0696685
-0.07398
-0.086787
-0.106636
-0.124237
-0.12809
-0.114549
-0.0936449
-0.0745248
-0.0615258
-0.0540006
-0.0535634
-0.0599401
-0.0671387
-0.0677112
-0.0610272
-0.0521485
-0.0451676
-0.0400778
-0.0395653
-0.0401226
-0.039047
-0.0373239
-0.0328343
-0.0231244
-0.0160608
-0.00840419
-0.00275553
-0.283568
-0.281052
-0.280652
-0.283609
-0.290711
-0.302078
-0.316993
-0.333825
-0.35016
-0.36286
-0.368387
-0.363468
-0.345259
-0.313092
-0.27
-0.222651
-0.178537
-0.142845
-0.117511
-0.102067
-0.0951704
-0.0960296
-0.104991
-0.121301
-0.139478
-0.150304
-0.147086
-0.131263
-0.109642
-0.0898615
-0.0765863
-0.0708032
-0.0712317
-0.0782073
-0.0940166
-0.116644
-0.1359
-0.138969
-0.123898
-0.100074
-0.0778598
-0.0621688
-0.0523138
-0.0495948
-0.0534911
-0.0590506
-0.0593315
-0.054347
-0.0478555
-0.0431296
-0.0404571
-0.0419932
-0.044673
-0.0438628
-0.0416642
-0.0361479
-0.0247306
-0.0165008
-0.00737274
-0.00189689
-0.255335
-0.260461
-0.265542
-0.274834
-0.288376
-0.305693
-0.325598
-0.346211
-0.365032
-0.379131
-0.385237
-0.380028
-0.360752
-0.326675
-0.281011
-0.230769
-0.183712
-0.14511
-0.116764
-0.0980658
-0.0876326
-0.0844981
-0.0888009
-0.100348
-0.115211
-0.125606
-0.124854
-0.113549
-0.0965795
-0.0809475
-0.0712555
-0.0685123
-0.0715782
-0.0811834
-0.0997746
-0.124875
-0.145644
-0.148432
-0.131937
-0.105581
-0.080571
-0.0624008
-0.0504202
-0.045638
-0.0472484
-0.0512825
-0.0512204
-0.0477332
-0.0433956
-0.0408637
-0.0406956
-0.0444185
-0.0492946
-0.0486834
-0.045834
-0.039268
-0.0262411
-0.0169131
-0.0063825
-0.00108604
-0.234862
-0.241489
-0.251451
-0.265368
-0.283099
-0.303992
-0.326724
-0.349338
-0.369384
-0.384342
-0.390774
-0.385669
-0.366133
-0.331471
-0.284997
-0.233782
-0.185552
-0.145445
-0.115113
-0.093918
-0.0804894
-0.0737717
-0.0736585
-0.0804028
-0.0915658
-0.100961
-0.102179
-0.0949519
-0.0823747
-0.0708063
-0.0646584
-0.0648736
-0.0704572
-0.0824601
-0.103496
-0.130826
-0.153124
-0.15605
-0.13848
-0.110039
-0.0826268
-0.0622667
-0.0484011
-0.0418171
-0.0413917
-0.0440272
-0.0435474
-0.0412999
-0.0388403
-0.0383935
-0.0407682
-0.0467862
-0.0539264
-0.0534559
-0.0497883
-0.0421511
-0.0276344
-0.0172934
-0.00544012
-0.000324504
-0.218316
-0.227081
-0.239281
-0.255362
-0.27504
-0.297467
-0.321234
-0.344429
-0.364671
-0.379591
-0.386589
-0.381739
-0.362496
-0.328371
-0.282754
-0.23249
-0.184841
-0.144534
-0.113119
-0.0900945
-0.074223
-0.0644546
-0.0604574
-0.0625905
-0.0697845
-0.0775777
-0.0810308
-0.0761114
-0.0674672
-0.0597028
-0.0568652
-0.0597994
-0.0676568
-0.0817254
-0.104837
-0.134143
-0.157986
-0.161521
-0.143392
-0.113387
-0.0840388
-0.0618328
-0.0463402
-0.0382175
-0.0360245
-0.0374139
-0.0364544
-0.0351551
-0.0342618
-0.0357381
-0.0406409
-0.0490296
-0.0584879
-0.0581115
-0.053472
-0.0447575
-0.0288902
-0.0176367
-0.00455134
0.000386573
-0.206341
-0.216413
-0.229046
-0.24536
-0.265228
-0.287592
-0.310982
-0.333633
-0.353672
-0.368438
-0.374898
-0.370019
-0.351412
-0.318769
-0.275465
-0.227819
-0.182263
-0.142921
-0.111243
-0.0869793
-0.0691717
-0.0568647
-0.0496039
-0.047648
-0.0507863
-0.0562146
-0.0596267
-0.0575247
-0.052336
-0.0479469
-0.0480194
-0.0533326
-0.0631576
-0.0789097
-0.10365
-0.134619
-0.160035
-0.164632
-0.146573
-0.115587
-0.0848182
-0.0611493
-0.044295
-0.0348881
-0.0311991
-0.0315159
-0.0300455
-0.0293901
-0.0297292
-0.0329164
-0.0402744
-0.0510678
-0.0628809
-0.062576
-0.0568387
-0.0470528
-0.0299875
-0.0179344
-0.00371972
0.00104753
-0.198895
-0.209351
-0.220953
-0.236045
-0.254831
-0.275939
-0.2978
-0.318844
-0.337873
-0.351821
-0.357283
-0.35223
-0.334616
-0.304343
-0.264599
-0.220876
-0.178552
-0.141083
-0.109834
-0.0848538
-0.0655579
-0.0511832
-0.0412318
-0.0358102
-0.035127
-0.037765
-0.040435
-0.0400877
-0.0375322
-0.0359443
-0.0384233
-0.0456932
-0.0571013
-0.0740655
-0.099918
-0.132198
-0.159191
-0.1653
-0.147965
-0.116611
-0.0849715
-0.060247
-0.0423014
-0.0318468
-0.0269162
-0.0263427
-0.0243808
-0.0240745
-0.0253146
-0.0299496
-0.0396268
-0.0528116
-0.0669955
-0.0667693
-0.0598525
-0.0490104
-0.0309085
-0.0181769
-0.00294441
0.00166096
-0.195662
-0.205539
-0.21494
-0.227782
-0.244513
-0.263372
-0.282895
-0.302417
-0.318844
-0.330753
-0.335062
-0.329995
-0.313824
-0.286732
-0.251498
-0.21256
-0.174181
-0.139202
-0.108937
-0.0837207
-0.0633622
-0.0473736
-0.0352806
-0.0270516
-0.0230025
-0.0227071
-0.0240401
-0.0245287
-0.0235162
-0.0241655
-0.0284808
-0.0371845
-0.0497167
-0.0674168
-0.0938138
-0.126952
-0.155538
-0.163673
-0.147553
-0.116455
-0.0845076
-0.059148
-0.0403836
-0.0290992
-0.0231561
-0.0218585
-0.0194667
-0.0192583
-0.0210911
-0.0268622
-0.0386613
-0.0541696
-0.0707243
-0.0706048
-0.0624753
-0.0506128
-0.0316435
-0.0183645
-0.00222509
0.0022324
-0.195427
-0.203481
-0.210073
-0.220206
-0.234106
-0.249796
-0.266069
-0.282521
-0.297206
-0.306539
-0.30972
-0.304935
-0.290773
-0.267526
-0.237355
-0.203583
-0.16945
-0.137289
-0.108414
-0.0834056
-0.0624071
-0.0452357
-0.031516
-0.0211114
-0.0142819
-0.0111629
-0.0106857
-0.0109062
-0.0105764
-0.0130818
-0.0186147
-0.0281623
-0.0412957
-0.0591814
-0.0856103
-0.11924
-0.149377
-0.160361
-0.145375
-0.115217
-0.0835452
-0.0579708
-0.0386374
-0.0266875
-0.0199146
-0.0180387
-0.0152872
-0.0149601
-0.0171283
-0.023676
-0.0373378
-0.0550615
-0.0739704
-0.0739847
-0.0646703
-0.0518542
-0.032192
-0.0185082
-0.00157358
0.00276894
-0.195627
-0.200741
-0.204918
-0.212452
-0.222982
-0.235317
-0.248975
-0.262003
-0.273367
-0.280756
-0.283302
-0.27928
-0.267675
-0.24866
-0.223684
-0.195057
-0.165172
-0.135971
-0.108773
-0.0843515
-0.0630865
-0.0450649
-0.0300885
-0.0179825
-0.0089009
-0.00319229
-0.000583434
0.00029038
0.00106888
-0.00308549
-0.00915688
-0.0189618
-0.0322253
-0.0499534
-0.0759236
-0.109447
-0.141027
-0.156166
-0.141491
-0.113133
-0.0823523
-0.0569506
-0.0372556
-0.0247099
-0.01718
-0.0148452
-0.0118714
-0.0111658
-0.0134703
-0.020422
-0.0356542
-0.055401
-0.0766338
-0.0768189
-0.0664278
-0.0527291
-0.0325482
-0.0186021
-0.00100534
0.0032761
-0.19382
-0.196109
-0.198948
-0.204052
-0.211132
-0.220253
-0.231979
-0.24086
-0.249166
-0.255282
-0.257654
-0.25491
-0.246231
-0.231547
-0.211656
-0.188014
-0.162314
-0.136144
-0.110793
-0.0871837
-0.065891
-0.047224
-0.0312042
-0.0177238
-0.0068211
0.00118385
0.0060619
0.00835769
0.0113869
0.005423
-0.000426645
-0.00986993
-0.0226431
-0.0396375
-0.0649227
-0.0985862
-0.130895
-0.146539
-0.135678
-0.109961
-0.0806982
-0.0558334
-0.0360551
-0.0230416
-0.0147792
-0.0120387
-0.009097
-0.00784362
-0.0102689
-0.0170736
-0.0335269
-0.0551733
-0.078662
-0.07897
-0.0677292
-0.0531866
-0.0326563
-0.0185866
-0.000483261
0.00376556
-0.189219
-0.190776
-0.192617
-0.195028
-0.198723
-0.204038
-0.209563
-0.219025
-0.225356
-0.229759
-0.231636
-0.229816
-0.223531
-0.212482
-0.196928
-0.17766
-0.15581
-0.132655
-0.109403
-0.0870524
-0.0663227
-0.0476663
-0.0312623
-0.0171632
-0.00534286
0.0041394
0.0108968
0.0140546
0.0109594
0.012177
0.00714243
-0.00158507
-0.0136338
-0.0297075
-0.0536842
-0.0861655
-0.118171
-0.133193
-0.126659
-0.104221
-0.0769016
-0.0530181
-0.0337535
-0.0208439
-0.0122229
-0.00920275
-0.00631143
-0.00508712
-0.00745326
-0.0138769
-0.0311284
-0.0542426
-0.0798828
-0.0803969
-0.0684544
-0.05314
-0.0323971
-0.0183835
0.000111548
0.00427478
-0.182315
-0.186624
-0.187633
-0.188497
-0.191093
-0.195651
-0.201621
-0.206612
-0.211263
-0.2145
-0.215298
-0.212785
-0.206344
-0.195736
-0.181198
-0.163402
-0.143309
-0.122003
-0.100518
-0.0797169
-0.0602267
-0.0424568
-0.0265835
-0.0126948
-0.000802203
0.00906717
0.0166377
0.0210135
0.020905
0.0208589
0.0163526
0.0088584
-0.00178416
-0.0168704
-0.0410677
-0.0757042
-0.110867
-0.128403
-0.121245
-0.0982102
-0.071495
-0.0485795
-0.0301718
-0.0178799
-0.00950694
-0.00652854
-0.00325665
-0.00152971
-0.00347526
-0.00953863
-0.0277213
-0.0526491
-0.081061
-0.0822196
-0.068906
-0.0527766
-0.031841
-0.0180573
0.000779663
0.00477321
-0.173752
-0.180107
-0.181132
-0.180875
-0.18209
-0.185079
-0.188833
-0.192591
-0.195665
-0.197241
-0.196634
-0.193253
-0.18665
-0.176657
-0.163461
-0.147574
-0.129726
-0.110756
-0.0914806
-0.0726093
-0.0546899
-0.0381066
-0.023061
-0.00970654
0.00193189
0.0118906
0.0199215
0.0250422
0.0262481
0.0259764
0.0225196
0.0164372
0.00728091
-0.00671076
-0.0308347
-0.0664606
-0.102213
-0.11882
-0.11169
-0.0897028
-0.064827
-0.0437465
-0.026761
-0.0152353
-0.00710737
-0.00418011
-0.000856646
0.000732143
-0.000777268
-0.00640952
-0.024901
-0.0510468
-0.0812785
-0.0828994
-0.0684039
-0.0517964
-0.030964
-0.0175188
0.00136178
0.0050598
-0.1636
-0.171311
-0.172685
-0.171763
-0.171786
-0.173458
-0.176022
-0.17849
-0.180089
-0.18032
-0.17875
-0.174962
-0.168615
-0.159545
-0.147832
-0.133813
-0.118018
-0.101097
-0.0837167
-0.0664888
-0.0499108
-0.0343635
-0.0200645
-0.00718785
0.00417967
0.0140263
0.0221973
0.0279196
0.0304032
0.0304339
0.027691
0.0226516
0.0144109
0.000821057
-0.0232258
-0.0578073
-0.0915143
-0.107446
-0.100744
-0.0806173
-0.058013
-0.0388735
-0.023315
-0.012598
-0.00480233
-0.00193899
0.00136738
0.00287487
0.00148698
-0.00411981
-0.0227891
-0.049404
-0.08041
-0.0826663
-0.0672701
-0.0503418
-0.0298442
-0.0168258
0.00186793
0.00524162
-0.152817
-0.16101
-0.162772
-0.161663
-0.161007
-0.161768
-0.163318
-0.164697
-0.165255
-0.164615
-0.162466
-0.1585
-0.152448
-0.144153
-0.13364
-0.121145
-0.107073
-0.0919388
-0.0762818
-0.0606152
-0.0453667
-0.0308892
-0.0174029
-0.00508776
0.00592317
0.0155498
0.0237188
0.0298904
0.0332811
0.0340383
0.0323284
0.0284785
0.0211664
0.00794684
-0.0155492
-0.0483017
-0.0799288
-0.0948798
-0.0887549
-0.0708898
-0.0508421
-0.0337906
-0.0197799
-0.00997878
-0.00259613
0.000205133
0.00348938
0.00497725
0.00361675
-0.00201811
-0.020637
-0.0470583
-0.0784384
-0.081506
-0.065534
-0.0484062
-0.0284622
-0.0159565
0.00229676
0.00534035
-0.141474
-0.149805
-0.151982
-0.150986
-0.149976
-0.150053
-0.1508
-0.151408
-0.151272
-0.150051
-0.147517
-0.14346
-0.137686
-0.130068
-0.12061
-0.109476
-0.0969628
-0.0834619
-0.0693973
-0.0551915
-0.0412113
-0.0277818
-0.0151268
-0.00342992
0.00715906
0.0165027
0.024541
0.0309011
0.0349227
0.0365399
0.0359944
0.033578
0.027633
0.0152863
-0.00737937
-0.0385139
-0.0678126
-0.0811964
-0.0759272
-0.0607305
-0.0435205
-0.0286505
-0.016224
-0.00740063
-0.000494539
0.00224658
0.00549894
0.00696043
0.00562583
0.000161626
-0.0179978
-0.0437827
-0.0752521
-0.0791786
-0.0630863
-0.0459628
-0.026804
-0.0149101
0.00264692
0.0053474
-0.129827
-0.138203
-0.140717
-0.139916
-0.138744
-0.138376
-0.13858
-0.138655
-0.138042
-0.136438
-0.133683
-0.129646
-0.124192
-0.117225
-0.108731
-0.0988136
-0.0876845
-0.0756409
-0.0630181
-0.0501653
-0.0373963
-0.0250021
-0.0132001
-0.00217543
0.00791972
0.0169173
0.0247396
0.0311279
0.0355363
0.0378506
0.0383332
0.0373114
0.0329316
0.0217377
0.00010386
-0.0289849
-0.0551579
-0.0667942
-0.0627323
-0.0504839
-0.0362327
-0.0235534
-0.0126918
-0.00487741
0.00149726
0.0041735
0.00739065
0.00883379
0.0075127
0.0024308
-0.0148779
-0.0396076
-0.0706672
-0.0755077
-0.0598503
-0.0430239
-0.0248746
-0.0136862
0.00292017
0.00525653
-0.118379
-0.126524
-0.129224
-0.128645
-0.127468
-0.126865
-0.126716
-0.12643
-0.125512
-0.1237
-0.120879
-0.116966
-0.111873
-0.105525
-0.0978987
-0.08906
-0.0791606
-0.068427
-0.0571229
-0.0455327
-0.0339211
-0.0225438
-0.0116053
-0.0012904
0.00824867
0.0168416
0.024391
0.0307035
0.0352825
0.0380667
0.0392768
0.03925
0.0360939
0.0261222
0.00629526
-0.019671
-0.0421591
-0.052255
-0.0497274
-0.0405039
-0.0291676
-0.0186126
-0.00924192
-0.00242577
0.0033791
0.00598282
0.00916987
0.0106166
0.00928217
0.0047147
-0.0113927
-0.034542
-0.0645985
-0.0704064
-0.0557945
-0.0396272
-0.022696
-0.0122887
0.00312166
0.00506986
-0.107248
-0.114943
-0.117734
-0.117394
-0.116311
-0.115609
-0.115252
-0.114751
-0.113674
-0.111794
-0.109021
-0.105307
-0.100596
-0.0948341
-0.0879984
-0.0801299
-0.0713367
-0.0617895
-0.0516934
-0.0412786
-0.0307666
-0.0203806
-0.0103087
-0.000729363
0.00820633
0.0163366
0.023554
0.0297127
0.0343
0.0373553
0.0389785
0.0394228
0.0369836
0.0284003
0.0113716
-0.010597
-0.0293844
-0.0383712
-0.0375295
-0.0311488
-0.0225022
-0.0139262
-0.00593278
-6.17501e-05
0.00515715
0.00768007
0.0108459
0.012327
0.0109524
0.0069853
-0.00756037
-0.0286258
-0.0571264
-0.0638968
-0.0509316
-0.0358359
-0.0203098
-0.0107263
0.00326169
0.00479883
-0.0964361
-0.103653
-0.106474
-0.106354
-0.105409
-0.104696
-0.104241
-0.103639
-0.102512
-0.100661
-0.0980177
-0.0945555
-0.0902432
-0.085044
-0.0789382
-0.0719509
-0.0641578
-0.055687
-0.0466979
-0.0373761
-0.0279064
-0.0184811
-0.00927052
-0.000441804
0.00785653
0.0154713
0.0222881
0.0282002
0.0327008
0.0358783
0.0377021
0.0382955
0.0362924
0.0292392
0.015463
-0.00231635
-0.017781
-0.0259838
-0.0266755
-0.0227062
-0.0163752
-0.00956983
-0.00281999
0.00219383
0.00683611
0.00927617
0.0124297
0.013991
0.0125817
0.00930246
-0.003369
-0.0220215
-0.0484966
-0.056134
-0.0453332
-0.0317372
-0.0177747
-0.00901396
0.00335823
0.00446582
-0.0861323
-0.0928307
-0.0956036
-0.0956622
-0.0948721
-0.0942066
-0.0937301
-0.0931054
-0.0920041
-0.090252
-0.0877949
-0.0846223
-0.0807192
-0.0760616
-0.0706337
-0.0644501
-0.0575647
-0.0500736
-0.0421008
-0.0337953
-0.0253102
-0.01681
-0.00844609
-0.000372769
0.00726681
0.0143263
0.0206697
0.0261033
0.0305988
0.0338036
0.0357138
0.0363504
0.0347041
0.029109
0.0183722
0.00439559
-0.00819642
-0.0156618
-0.0174602
-0.0153372
-0.0108757
-0.00559452
5.01452e-05
0.00431502
0.00841112
0.0107785
0.0139297
0.0156438
0.0142775
0.0117613
0.00112626
-0.0150144
-0.0391098
-0.0474305
-0.0391429
-0.0274366
-0.0151598
-0.00717633
0.00344149
0.00410627
-0.0764577
-0.082559
-0.0852129
-0.085413
-0.0847813
-0.0841982
-0.0837506
-0.0831576
-0.0821344
-0.0805286
-0.0782963
-0.0754359
-0.0719434
-0.0678045
-0.063007
-0.05756
-0.0515018
-0.0449048
-0.0378655
-0.0305032
-0.0229444
-0.0153282
-0.00778851
-0.000465045
0.00650815
0.0129942
0.0188569
0.0239499
0.0281825
0.0313061
0.0332261
0.0338809
0.0325569
0.0281871
0.0199603
0.00917946
-0.000912232
-0.00751588
-0.00991648
-0.00907955
-0.0060463
-0.00203003
0.00264395
0.00627484
0.00986918
0.0121786
0.0153384
0.0173063
0.0161594
0.0144412
0.00579811
-0.00798229
-0.0295027
-0.0382492
-0.0325779
-0.0230491
-0.0125354
-0.00525332
0.00355332
0.00376909
-0.0673704
-0.0728696
-0.0753742
-0.0756865
-0.0752063
-0.0747217
-0.0743328
-0.0738055
-0.0728933
-0.0714622
-0.0694752
-0.066936
-0.0638473
-0.0602019
-0.0559911
-0.0512204
-0.0459175
-0.0401372
-0.0339546
-0.0274653
-0.0207733
-0.0139959
-0.00725022
-0.000660305
0.00564972
0.011554
0.0169269
0.0216404
0.0255726
0.0285415
0.0304136
0.0310825
0.0300539
0.0266726
0.020436
0.0122489
0.00430964
-0.00133337
-0.00391006
-0.00388621
-0.00189343
0.00111083
0.0049411
0.00804589
0.0111992
0.0134556
0.0166119
0.0189317
0.0182929
0.0173637
0.0104554
-0.00137548
-0.0202881
-0.0291375
-0.0259129
-0.0186913
-0.00996439
-0.00330606
0.00373745
0.00351036
-0.0588742
-0.0638122
-0.0661515
-0.0665448
-0.0661984
-0.0658134
-0.0654972
-0.0650548
-0.0642709
-0.0630273
-0.0612925
-0.0590724
-0.0563738
-0.0531942
-0.0495276
-0.0453775
-0.040764
-0.035729
-0.030331
-0.024647
-0.018762
-0.0127743
-0.00678541
-0.000904686
0.0047567
0.0100845
0.0149615
0.0192687
0.0228832
0.0256566
0.0274472
0.028139
0.0273915
0.0248197
0.020152
0.0140213
0.00788893
0.00322902
0.000766327
0.00033578
0.00160207
0.0038271
0.00693518
0.00960165
0.0123866
0.0145885
0.0176888
0.0203851
0.0205384
0.0203375
0.0147673
0.00435146
-0.0120132
-0.0206107
-0.0194503
-0.0144764
-0.00750094
-0.00141889
0.00402354
0.00337523
-0.0510238
-0.0554183
-0.05757
-0.0580131
-0.0577817
-0.0574924
-0.0572556
-0.0569056
-0.0562556
-0.055201
-0.0537144
-0.0518028
-0.0494747
-0.0467305
-0.043566
-0.0399837
-0.0359983
-0.0316418
-0.0269603
-0.0220155
-0.016877
-0.0116271
-0.00635205
-0.00114742
0.00388881
0.00865339
0.0130375
0.0169315
0.0202242
0.0227857
0.0244823
0.0252076
0.0247301
0.0228367
0.019404
0.0148783
0.0102382
0.00651309
0.00433056
0.0036973
0.00447871
0.00612555
0.0086293
0.010927
0.013403
0.0155452
0.0185285
0.0215057
0.0224494
0.0228288
0.0182387
0.00887705
-0.00502394
-0.0130517
-0.0134824
-0.0105116
-0.00519565
0.000307176
0.00441292
0.00337385
-0.043803
-0.0476739
-0.0496298
-0.0501021
-0.0499691
-0.0497636
-0.0496105
-0.0493533
-0.048834
-0.0479616
-0.0467117
-0.0450912
-0.0431092
-0.0407673
-0.038063
-0.0349976
-0.0315821
-0.0278412
-0.023811
-0.0195412
-0.0150884
-0.0105214
-0.00591291
-0.00134525
0.00309605
0.00731839
0.0112236
0.0147071
0.0176909
0.0200386
0.0216403
0.0224062
0.022181
0.0208589
0.0183992
0.0151268
0.0116887
0.00880345
0.00697841
0.00631277
0.00678866
0.00802077
0.01003
0.0120168
0.0142223
0.0162816
0.0190831
0.0221652
0.0236455
0.0242579
0.0204414
0.0121059
0.00053577
-0.0067061
-0.00825046
-0.00689376
-0.0031017
0.0017673
0.00486686
0.0034664
-0.0371671
-0.0405613
-0.0423302
-0.0428216
-0.0427816
-0.0426768
-0.0425719
-0.042391
-0.0419907
-0.041287
-0.0402566
-0.0389051
-0.0372412
-0.0352671
-0.0329808
-0.0303831
-0.0274821
-0.0242967
-0.0208555
-0.0171981
-0.0133708
-0.00943033
-0.0054375
-0.00146333
0.00241928
0.00612908
0.00958424
0.0127033
0.0153617
0.017497
0.019006
0.0198151
0.0198182
0.01897
0.0172774
0.014977
0.0124979
0.0103343
0.00888752
0.00829194
0.00859087
0.00953513
0.0111473
0.0128684
0.0148246
0.0167646
0.0193127
0.0222786
0.0238753
0.0244176
0.0212991
0.0141356
0.00466653
-0.00185023
-0.00390677
-0.00370142
-0.00126588
0.00287676
0.00528983
0.00356747
-0.0311004
-0.0340629
-0.03565
-0.0361417
-0.0361667
-0.0361199
-0.0360859
-0.0359849
-0.0356982
-0.0351508
-0.0343211
-0.0332144
-0.0318388
-0.0301968
-0.028287
-0.0261094
-0.0236697
-0.0209826
-0.0180705
-0.014965
-0.0117035
-0.00833293
-0.0049034
-0.00147546
0.00188881
0.00511949
0.00814787
0.0108972
0.0132744
0.0152139
0.016635
0.0174809
0.0176812
0.017222
0.0161275
0.0145767
0.0128538
0.0112963
0.0102084
0.00973791
0.00994763
0.0106974
0.011996
0.0134837
0.015202
0.0169805
0.0192109
0.0216758
0.0232687
0.0235907
0.0210786
0.0151616
0.0075234
0.00188671
-0.000469272
-0.000991651
0.000284386
0.00361693
0.0055492
0.00357096
-0.025583
-0.0281519
-0.029565
-0.0300468
-0.0301247
-0.0301369
-0.0301613
-0.0301261
-0.0299369
-0.029528
-0.0288783
-0.0279909
-0.0268733
-0.025528
-0.0239538
-0.0221502
-0.0201211
-0.0178778
-0.0154375
-0.0128256
-0.0100719
-0.0072149
-0.00429574
-0.00136531
0.00152547
0.00431617
0.00694707
0.0093537
0.0114656
0.0132226
0.0145579
0.0154291
0.0157886
0.0156404
0.0150075
0.0140269
0.0128921
0.0118329
0.0110672
0.0107424
0.0109202
0.0115411
0.0125952
0.0138733
0.0153614
0.0169413
0.0188347
0.0208201
0.0221425
0.0222127
0.0201699
0.0154229
0.00933735
0.0045444
0.00211909
0.00119988
0.00153641
0.00403994
0.00554278
0.00340253
-0.020576
-0.0227926
-0.0240451
-0.0245123
-0.0246343
-0.0246975
-0.0247668
-0.024786
-0.0246807
-0.024394
-0.023903
-0.0232092
-0.0223191
-0.0212354
-0.0199572
-0.0184834
-0.0168167
-0.0149653
-0.0129425
-0.0107684
-0.00846664
-0.00606834
-0.00360678
-0.00112385
0.00133847
0.00372817
0.00599564
0.00808802
0.00995298
0.0115383
0.0127865
0.0136668
0.0141464
0.0142353
0.0139545
0.0134097
0.01271
0.0120526
0.0115659
0.0113885
0.011568
0.0121032
0.0129666
0.0140547
0.0153224
0.0166806
0.0182347
0.0197555
0.020755
0.0206156
0.0189187
0.0151658
0.0103661
0.00632452
0.00396062
0.00287041
0.0025031
0.00420501
0.00524544
0.00306059
-0.0160459
-0.0179521
-0.0190587
-0.0195075
-0.0196631
-0.0197666
-0.0198762
-0.0199463
-0.0199089
-0.0197232
-0.0193685
-0.018843
-0.0181513
-0.0172959
-0.0162759
-0.0150904
-0.0137406
-0.0122323
-0.0105758
-0.00878671
-0.00688348
-0.00489103
-0.00283591
-0.000752259
0.0013258
0.00335544
0.00529576
0.00710293
0.00874138
0.0101572
0.0113159
0.0121874
0.0127485
0.0130116
0.0129918
0.0127772
0.0124032
0.0120494
0.0117921
0.0117479
0.0119459
0.0124218
0.0131365
0.0140523
0.0151122
0.0162386
0.0174735
0.0185852
0.0192818
0.0189948
0.0175588
0.014596
0.0108329
0.00744348
0.00516959
0.00405982
0.00321809
0.00418304
0.00472993
0.0026117
-0.011963
-0.0135963
-0.0145709
-0.0149989
-0.0151805
-0.0153169
-0.0154588
-0.0155679
-0.0155896
-0.0154876
-0.0152483
-0.0148674
-0.0143469
-0.0136884
-0.0128915
-0.0119552
-0.0108798
-0.00966935
-0.00833129
-0.00687774
-0.00532293
-0.00368651
-0.00198922
-0.000258538
0.0014782
0.00318735
0.00483646
0.00638609
0.00780356
0.00905684
0.0101264
0.0109746
0.0115821
0.0119628
0.0121239
0.0121176
0.0120155
0.0118954
0.0118179
0.0118832
0.0121048
0.0125357
0.0131332
0.0138938
0.0147614
0.0156641
0.0166137
0.0173882
0.0178281
0.0174484
0.016219
0.013863
0.0109056
0.00808946
0.00597343
0.0048507
0.00372499
0.00404382
0.00412274
0.00214756
-0.00829452
-0.00968931
-0.0105461
-0.0109522
-0.0111533
-0.0113159
-0.0114832
-0.0116248
-0.011694
-0.0116614
-0.0115163
-0.0112573
-0.0108828
-0.0103928
-0.00978696
-0.00906408
-0.00822405
-0.00726958
-0.00620596
-0.00504226
-0.00378934
-0.00246237
-0.0010773
0.000344288
0.00178116
0.00320614
0.00459356
0.0059141
0.00714001
0.00824925
0.00920258
0.0100066
0.0106312
0.0110847
0.0113714
0.0115315
0.0115988
0.0116444
0.0117004
0.0118484
0.0120905
0.0124832
0.0129858
0.0136087
0.0143037
0.0150038
0.0157084
0.0162142
0.0164505
0.01602
0.0149594
0.0130657
0.0107172
0.00839454
0.00644971
0.00531874
0.00406227
0.00385236
0.00353456
0.00173285
-0.00500816
-0.00619647
-0.006949
-0.00733328
-0.00754857
-0.00773143
-0.00791837
-0.00808546
-0.008195
-0.00822045
-0.00815213
-0.00799098
-0.00773766
-0.00739035
-0.0069467
-0.00640503
-0.00576504
-0.00502856
-0.00419924
-0.00328363
-0.00228986
-0.00122947
-0.000114607
0.0010382
0.00221252
0.00338735
0.00454287
0.00565594
0.00670493
0.00766958
0.00852873
0.00926736
0.00987778
0.0103655
0.0107267
0.0109921
0.0111762
0.0113352
0.0114844
0.0116891
0.0119439
0.0123007
0.0127241
0.0132267
0.0137712
0.0142951
0.0147959
0.0150958
0.0151772
0.0147251
0.013803
0.0122638
0.0103653
0.00845166
0.00667441
0.00553952
0.00425816
0.00365508
0.00302829
0.00139487
-0.00207441
-0.00308503
-0.00374607
-0.00410905
-0.00433409
-0.00453214
-0.00473374
-0.0049202
-0.00506119
-0.00513501
-0.00513224
-0.00505149
-0.00489622
-0.00466585
-0.00435721
-0.00396756
-0.00349593
-0.00294332
-0.00231212
-0.00160696
-0.000833826
-1.27577e-06
0.000881632
0.00180254
0.00274901
0.00370502
0.00465525
0.00558159
0.00646743
0.00729654
0.00805234
0.00872524
0.00930463
0.009794
0.0101892
0.0105122
0.0107677
0.0109972
0.0112056
0.0114433
0.0117013
0.0120218
0.0123772
0.0127766
0.0131929
0.0135691
0.0139045
0.0140507
0.0140175
0.0135641
0.0127528
0.0114865
0.00991962
0.00832963
0.0067245
0.00558835
0.00433649
0.00347265
0.00262671
0.00113849
0.000534784
-0.000323716
-0.000904907
-0.00124752
-0.00147876
-0.00168782
-0.00189988
-0.00210053
-0.00226553
-0.00237729
-0.00242787
-0.00241539
-0.00234022
-0.00220428
-0.00200559
-0.00174146
-0.00141005
-0.00101136
-0.000546476
-1.84804e-05
0.000568347
0.00120779
0.00189319
0.00261546
0.00336532
0.00413085
0.00490039
0.00566022
0.00639734
0.00709919
0.00775313
0.00835145
0.00888402
0.00935268
0.00975198
0.0100972
0.0103877
0.0106531
0.0108923
0.0111425
0.0113938
0.0116773
0.0119728
0.0122839
0.0125929
0.0128489