/*--------------------------------*- C++ -*----------------------------------*\
| =========                 |                                                 |
| \\      /  F ield         | OpenFOAM: The Open Source CFD Toolbox           |
|  \\    /   O peration     | Version:  2512                                  |
|   \\  /    A nd           | Website:  www.openfoam.com                      |
|    \\/     M anipulation  |                                                 |
\*---------------------------------------------------------------------------*/
FoamFile
{
    version     2.0;
    format      ascii;
    arch        "LSB;label=32;scalar=64";
    class       volScalarField;
    location    "10.75";
    object      p;
}
// * * * * * * * * * * * * * * * * * * * * * * * * * * * * * * * * * * * * * //

dimensions      [0 2 -2 0 0 0 0];

internalField   nonuniform List<scalar> 
13248
(
-0.360443
-0.358432
-0.355616
-0.352245
-0.348652
-0.345198
-0.342177
-0.339797
-0.338164
-0.337274
-0.337012
-0.337169
-0.33746
-0.33755
-0.337092
-0.335761
-0.333283
-0.329467
-0.324199
-0.317487
-0.309247
-0.299731
-0.287946
-0.274767
-0.367757
-0.365206
-0.361839
-0.357929
-0.353803
-0.349811
-0.34622
-0.34319
-0.340766
-0.338879
-0.337354
-0.335941
-0.334343
-0.332255
-0.329405
-0.325577
-0.320636
-0.314524
-0.307253
-0.298877
-0.289441
-0.279034
-0.267438
-0.255512
-0.377097
-0.373705
-0.369627
-0.365107
-0.360416
-0.35586
-0.351645
-0.347849
-0.344433
-0.34126
-0.338117
-0.334759
-0.330942
-0.326462
-0.321177
-0.315017
-0.30798
-0.300114
-0.29149
-0.282193
-0.272258
-0.261801
-0.250676
-0.239491
-0.388505
-0.384003
-0.379055
-0.373834
-0.368495
-0.363268
-0.358261
-0.353446
-0.3487
-0.343846
-0.338689
-0.333058
-0.326831
-0.319947
-0.312409
-0.304265
-0.295591
-0.286468
-0.276969
-0.26715
-0.257047
-0.246738
-0.236142
-0.225845
-0.401929
-0.396104
-0.390154
-0.384131
-0.378017
-0.371922
-0.365833
-0.359618
-0.353107
-0.346148
-0.338642
-0.330558
-0.321927
-0.312829
-0.303364
-0.293636
-0.283733
-0.273717
-0.263632
-0.253501
-0.243342
-0.233189
-0.222999
-0.213152
-0.417251
-0.409958
-0.402914
-0.395984
-0.388907
-0.381639
-0.374044
-0.365932
-0.357167
-0.347713
-0.337638
-0.327075
-0.316193
-0.305156
-0.294099
-0.283119
-0.272274
-0.261591
-0.251076
-0.240724
-0.230531
-0.220501
-0.210607
-0.201102
-0.434262
-0.425429
-0.417233
-0.409264
-0.400945
-0.392063
-0.382413
-0.371843
-0.360364
-0.348139
-0.335426
-0.322501
-0.309607
-0.296925
-0.284568
-0.272591
-0.261008
-0.249806
-0.23896
-0.228442
-0.218229
-0.2083
-0.198643
-0.189369
-0.4526
-0.442227
-0.432835
-0.423634
-0.413676
-0.402615
-0.390289
-0.376729
-0.362193
-0.34708
-0.33181
-0.316732
-0.302094
-0.288035
-0.274614
-0.261831
-0.249655
-0.238039
-0.226934
-0.216294
-0.206078
-0.196253
-0.186807
-0.177738
-0.471693
-0.459851
-0.449209
-0.438494
-0.426381
-0.412504
-0.396913
-0.37996
-0.362208
-0.344265
-0.326637
-0.309671
-0.293554
-0.278355
-0.264065
-0.250631
-0.237983
-0.226047
-0.214753
-0.20404
-0.193853
-0.184151
-0.174907
-0.166037
-0.490723
-0.477541
-0.465556
-0.452943
-0.438085
-0.420784
-0.401484
-0.380949
-0.360033
-0.33947
-0.319765
-0.301191
-0.283845
-0.267714
-0.252723
-0.238774
-0.225766
-0.213602
-0.202193
-0.191464
-0.181347
-0.171793
-0.162751
-0.154092
-0.508636
-0.494273
-0.480789
-0.465811
-0.447617
-0.426404
-0.403162
-0.379078
-0.355216
-0.332334
-0.310859
-0.290954
-0.272612
-0.255741
-0.24021
-0.225884
-0.212633
-0.200342
-0.188907
-0.178237
-0.168254
-0.158897
-0.150075
-0.14167
-0.524239
-0.508892
-0.493719
-0.475875
-0.453795
-0.42831
-0.401042
-0.373561
-0.347034
-0.322156
-0.299221
-0.278257
-0.259157
-0.241751
-0.225862
-0.21132
-0.197972
-0.185684
-0.174338
-0.163832
-0.154084
-0.145013
-0.1365
-0.128483
-0.299113
-0.304202
-0.307537
-0.310239
-0.31322
-0.316731
-0.320861
-0.325638
-0.33103
-0.336967
-0.343349
-0.350048
-0.35691
-0.363755
-0.370376
-0.376545
-0.382009
-0.386508
-0.389773
-0.391534
-0.391509
-0.38947
-0.38538
-0.37936
-0.302006
-0.306669
-0.309802
-0.312431
-0.31539
-0.318917
-0.323096
-0.327947
-0.333439
-0.3395
-0.346029
-0.352896
-0.359945
-0.366995
-0.373835
-0.380229
-0.385921
-0.390637
-0.3941
-0.396034
-0.396136
-0.394098
-0.389854
-0.383911
-0.307398
-0.311195
-0.313893
-0.316322
-0.319171
-0.322647
-0.326823
-0.331715
-0.337287
-0.343469
-0.35016
-0.357232
-0.364533
-0.37188
-0.379065
-0.385851
-0.391976
-0.397157
-0.401101
-0.403521
-0.404107
-0.402462
-0.398323
-0.392644
-0.314403
-0.317038
-0.319111
-0.321202
-0.323813
-0.327112
-0.331161
-0.335968
-0.341495
-0.347671
-0.354398
-0.361553
-0.368986
-0.37652
-0.383949
-0.391041
-0.397535
-0.403145
-0.407565
-0.410483
-0.411604
-0.410598
-0.406868
-0.400107
-0.321983
-0.323347
-0.324672
-0.326283
-0.328491
-0.331429
-0.335149
-0.339656
-0.34491
-0.350841
-0.357355
-0.364332
-0.371629
-0.379075
-0.386473
-0.393596
-0.400192
-0.405981
-0.41066
-0.41391
-0.415411
-0.414815
-0.411664
-0.405406
-0.329204
-0.329379
-0.329919
-0.330919
-0.332546
-0.334901
-0.338043
-0.341978
-0.346673
-0.352062
-0.358057
-0.364547
-0.371392
-0.378433
-0.385479
-0.392314
-0.398694
-0.404347
-0.408968
-0.412249
-0.413873
-0.413392
-0.410963
-0.404235
-0.335429
-0.334658
-0.334449
-0.334762
-0.335643
-0.337203
-0.339519
-0.342614
-0.346472
-0.351042
-0.356247
-0.361985
-0.368128
-0.37452
-0.380983
-0.387296
-0.393219
-0.398493
-0.402827
-0.405869
-0.407377
-0.406601
-0.40459
-0.397146
-0.340418
-0.33903
-0.33818
-0.337767
-0.337797
-0.338408
-0.339714
-0.341771
-0.344595
-0.34816
-0.352407
-0.357248
-0.362563
-0.368192
-0.373958
-0.379656
-0.385032
-0.389792
-0.393635
-0.396166
-0.397253
-0.395809
-0.393592
-0.385352
-0.344315
-0.342636
-0.341278
-0.340156
-0.339305
-0.338908
-0.339127
-0.34007
-0.341792
-0.3443
-0.347557
-0.35148
-0.355953
-0.360828
-0.365894
-0.370908
-0.37559
-0.379621
-0.382678
-0.384332
-0.384517
-0.382081
-0.378877
-0.369816
-0.347582
-0.345847
-0.344097
-0.342321
-0.340631
-0.339267
-0.338447
-0.338329
-0.339012
-0.340532
-0.342867
-0.345943
-0.34962
-0.353707
-0.357959
-0.362085
-0.365758
-0.368631
-0.370376
-0.370628
-0.369338
-0.365701
-0.361083
-0.351379
-0.350887
-0.349182
-0.347102
-0.344738
-0.342299
-0.340082
-0.338354
-0.337317
-0.337098
-0.337752
-0.339251
-0.341493
-0.344301
-0.34743
-0.350579
-0.353403
-0.35554
-0.356643
-0.356405
-0.35462
-0.351264
-0.346183
-0.340283
-0.330732
-0.354964
-0.353211
-0.350791
-0.347892
-0.344808
-0.341881
-0.339409
-0.337615
-0.336633
-0.336504
-0.337171
-0.338485
-0.340213
-0.342051
-0.343651
-0.344647
-0.344684
-0.343462
-0.340739
-0.336435
-0.330494
-0.323258
-0.315226
-0.30621
-0.369701
-0.35275
-0.330127
-0.301471
-0.267135
-0.227824
-0.184892
-0.139971
-0.0950748
-0.0523697
-0.0137811
0.0189428
0.0448282
0.0636261
0.0757831
0.0822489
0.0842185
0.0828915
0.0793707
0.074594
0.0691618
0.0635311
0.0579923
0.0527209
0.0478256
0.0432832
0.0391145
0.035317
0.031896
0.028797
0.0260292
0.0235584
0.0213582
0.0194045
0.0176696
0.0161271
0.0147539
0.0135291
0.0124344
0.0114529
0.0105713
0.00977498
0.00905535
0.00839775
0.00779984
0.00724287
0.00673423
0.00624569
0.00579771
0.00535083
0.00493365
0.00450769
0.00408606
0.00366111
0.00320086
0.00274251
0.00221646
0.00167908
0.0010432
0.000390969
-0.375283
-0.358351
-0.335736
-0.306943
-0.272399
-0.232832
-0.18957
-0.144328
-0.098918
-0.0557018
-0.0166689
0.0163976
0.0426376
0.0617824
0.0742671
0.0810388
0.0832927
0.0822265
0.0789297
0.0742508
0.0689146
0.0633666
0.0578877
0.0526523
0.0477892
0.0432679
0.0391472
0.0353745
0.0319856
0.0288715
0.0261018
0.0236269
0.0214213
0.0194626
0.0177228
0.0161753
0.0147974
0.0135681
0.0124694
0.0114844
0.0105995
0.00980039
0.00907799
0.00841836
0.00781788
0.00725974
0.00674837
0.00625959
0.0058087
0.00536197
0.00494263
0.00451564
0.00409424
0.00366582
0.00320807
0.0027451
0.00222198
0.00167916
0.0010476
0.000386306
-0.386842
-0.370709
-0.34886
-0.320655
-0.286458
-0.247005
-0.203601
-0.157753
-0.111085
-0.0669572
-0.0268758
0.0074152
0.0348564
0.0551386
0.0686713
0.076393
0.0795017
0.0791899
0.0765161
0.072388
0.0675025
0.0623176
0.0571359
0.0521389
0.0473833
0.0429617
0.0388928
0.0351636
0.0319035
0.0288221
0.02609
0.0236329
0.0214386
0.0194877
0.017752
0.0162057
0.0148273
0.013597
0.0124966
0.0115099
0.010623
0.00982218
0.00909778
0.00843675
0.00783418
0.00727527
0.00676148
0.00627274
0.00581913
0.00537279
0.00495143
0.00452355
0.00410253
0.00367071
0.00321558
0.00274803
0.00222788
0.00167965
0.00105229
0.000381854
-0.400077
-0.383303
-0.36293
-0.336159
-0.303179
-0.264623
-0.221622
-0.175801
-0.129115
-0.0840418
-0.0427266
-0.00697192
0.0220608
0.0439739
0.0591057
0.068346
0.0728617
0.0738412
0.0722786
0.0690699
0.0649234
0.0603283
0.055609
0.0509625
0.0464881
0.0423381
0.0384809
0.034946
0.0316225
0.0286074
0.025994
0.023581
0.0214139
0.0194835
0.0177603
0.016221
0.0148464
0.0136178
0.0125181
0.0115311
0.0106434
0.0098417
0.00911596
0.00845401
0.00784972
0.00729033
0.00677434
0.00628584
0.00582969
0.00538386
0.0049606
0.00453195
0.00411134
0.0036763
0.00322369
0.00275175
0.0022344
0.0016809
0.00105735
0.000377857
-0.404601
-0.392356
-0.373344
-0.348677
-0.317964
-0.281388
-0.239951
-0.195169
-0.149039
-0.103868
-0.0618926
-0.0250079
0.0055132
0.0291618
0.0461636
0.0572992
0.0636491
0.0663403
0.0663183
0.064391
0.0612805
0.057516
0.0534536
0.0493228
0.0452744
0.0414245
0.0377992
0.0344283
0.0312416
0.0281854
0.0257932
0.0234663
0.0213458
0.0194486
0.0177469
0.0162205
0.0148539
0.0136302
0.0125333
0.0115478
0.0106606
0.00985886
0.00913245
0.00847008
0.00786447
0.00730489
0.00678699
0.00629888
0.0058404
0.00539517
0.00497016
0.00454089
0.00412066
0.00368267
0.00323237
0.00275636
0.00224148
0.00168305
0.00106269
0.000374483
-0.403639
-0.393603
-0.376976
-0.355063
-0.327293
-0.293616
-0.254891
-0.212475
-0.168101
-0.123917
-0.0821735
-0.0448259
-0.0132411
0.0119514
0.0308334
0.0440203
0.0524359
0.0570924
0.0589087
0.0585681
0.0567449
0.0540083
0.0507604
0.0472702
0.0437242
0.0402516
0.0369265
0.0337833
0.0307956
0.0282928
0.0255572
0.0232876
0.0212342
0.0193834
0.0177112
0.0162034
0.0148491
0.0136336
0.0125419
0.0115596
0.0106741
0.00987336
0.00914702
0.00848476
0.00787827
0.00731879
0.00679927
0.0063117
0.00585114
0.00540661
0.00497999
0.00455027
0.00413032
0.00368979
0.00324144
0.00276186
0.00224898
0.00168614
0.00106818
0.000371905
-0.395699
-0.38684
-0.373107
-0.354609
-0.330057
-0.299592
-0.264295
-0.225344
-0.184012
-0.142103
-0.101697
-0.0647411
-0.0326985
-0.00634694
0.0142213
0.0294162
0.0399488
0.0466701
0.0504138
0.0518438
0.0514945
0.0499345
0.0476182
0.0448632
0.0418929
0.0388647
0.0358801
0.0330017
0.0302566
0.0277175
0.0253278
0.0230355
0.0210714
0.0192874
0.0176534
0.0161696
0.0148319
0.0136278
0.0125436
0.0115663
0.0106839
0.00988509
0.00915956
0.00849795
0.00789103
0.00733192
0.00681113
0.00632422
0.00586185
0.00541808
0.00499001
0.00456006
0.00414023
0.00369765
0.00325079
0.00276827
0.00225676
0.00169026
0.00107368
0.000370345
-0.382079
-0.373203
-0.362245
-0.347311
-0.326155
-0.29926
-0.267803
-0.232723
-0.195282
-0.156847
-0.11898
-0.0833938
-0.0516159
-0.024615
-0.00270042
0.0142988
0.0268493
0.0355971
0.0412473
0.0444512
0.0456773
0.0454015
0.0441019
0.0421507
0.039814
0.0372802
0.0346797
0.0320997
0.0295955
0.0272152
0.0249164
0.0227127
0.0208548
0.0191614
0.0175739
0.0161191
0.0148021
0.0136125
0.0125383
0.0115677
0.0106898
0.0098939
0.00916995
0.00850953
0.00790267
0.00734419
0.00682252
0.00633633
0.00587251
0.00542953
0.00500016
0.00457024
0.00415028
0.0037063
0.00326029
0.00277565
0.00226472
0.00169551
0.00107907
0.000370075
-0.363826
-0.354202
-0.345864
-0.334179
-0.316248
-0.293196
-0.266075
-0.235312
-0.201919
-0.167427
-0.13299
-0.0997049
-0.0689681
-0.0419166
-0.0191054
-0.00063315
0.0137034
0.0243271
0.0317879
0.0366582
0.0394451
0.0405171
0.0402991
0.039197
0.0375272
0.0355195
0.0333339
0.0310801
0.028834
0.0266495
0.0244936
0.0226113
0.0205919
0.0190042
0.0174714
0.0160513
0.0147592
0.0135874
0.0125256
0.0115637
0.0106916
0.00989973
0.00917819
0.0085195
0.00791323
0.00735561
0.00683348
0.00634803
0.00588314
0.00544092
0.00501045
0.00458083
0.0041604
0.0037158
0.00326985
0.00278405
0.00227275
0.001702
0.00108426
0.00037144
-0.342226
-0.332289
-0.326453
-0.317172
-0.302096
-0.283018
-0.260392
-0.234119
-0.205019
-0.174434
-0.143583
-0.113146
-0.0841328
-0.0576672
-0.0344918
-0.0149723
0.000820033
0.0130802
0.0221848
0.028603
0.0328259
0.0352598
0.0362077
0.0360382
0.0350885
0.0336375
0.031886
0.029973
0.027995
0.0260184
0.0240632
0.0221882
0.0201777
0.0187954
0.0173408
0.0159667
0.0147043
0.0135536
0.0125068
0.0115554
0.0106905
0.00990348
0.00918499
0.0085284
0.0079231
0.00736641
0.00684416
0.00635934
0.00589372
0.00545219
0.00502071
0.00459172
0.00417037
0.00372605
0.00327926
0.00279343
0.00228068
0.00170978
0.00108914
0.000374888
-0.319923
-0.311364
-0.307424
-0.299344
-0.286786
-0.271604
-0.253302
-0.231442
-0.206652
-0.179963
-0.152446
-0.124928
-0.0980445
-0.0726989
-0.049657
-0.0294728
-0.0124813
0.00127217
0.0119725
0.0199445
0.0255839
0.0292942
0.031452
0.0323593
0.0322841
0.0315125
0.0302802
0.0287637
0.0270897
0.0253477
0.0235901
0.0218807
0.0204627
0.0186121
0.017195
0.0158713
0.0146408
0.0135128
0.0124824
0.0115426
0.0106857
0.00990411
0.00918917
0.00853499
0.00793097
0.00737535
0.00685327
0.00636912
0.00590305
0.00546227
0.0050299
0.00460196
0.00417925
0.00373629
0.00328763
0.00280323
0.0022878
0.00171852
0.00109328
0.000380932
-0.298764
-0.293967
-0.289974
-0.281406
-0.27064
-0.258562
-0.243935
-0.226205
-0.205682
-0.182962
-0.158772
-0.133896
-0.109108
-0.0852236
-0.0629124
-0.0426871
-0.0250302
-0.0101862
0.00183981
0.0112137
0.0182158
0.0231702
0.0263956
0.0282185
0.0289737
0.0289148
0.0282667
0.027218
0.0259128
0.0244578
0.0229298
0.0214044
0.0199281
0.0184063
0.0169762
0.0157141
0.0145309
0.0134349
0.0124274
0.0115045
0.01066
0.00988755
0.00917938
0.00853016
0.00792992
0.00737689
0.00685709
0.00637418
0.00590957
0.00546957
0.00503752
0.00461116
0.0041868
0.00374681
0.00329483
0.00281366
0.00229397
0.00172822
0.00109612
0.000390136
-0.276768
-0.283588
-0.277515
-0.26698
-0.256071
-0.244609
-0.231208
-0.215137
-0.196485
-0.175776
-0.153688
-0.130923
-0.108137
-0.0859938
-0.065124
-0.0460526
-0.0292033
-0.0148179
-0.00294503
0.00651812
0.0137817
0.0191143
0.0228129
0.0251566
0.0264053
0.0267896
0.0265302
0.0258173
0.024799
0.0235859
0.0222588
0.0208865
0.0195223
0.0181087
0.0167878
0.0155413
0.0143987
0.0133363
0.0123557
0.0114539
0.0106257
0.00986559
0.00916755
0.00852514
0.00793197
0.00738174
0.00686799
0.00638466
0.00592559
0.00548392
0.00505484
0.0046291
0.00420257
0.00376629
0.00330914
0.00283092
0.00230534
0.00174236
0.00110017
0.000402209
-0.252812
-0.263085
-0.258237
-0.247295
-0.236193
-0.22539
-0.213378
-0.199122
-0.182556
-0.164165
-0.144565
-0.124337
-0.104014
-0.0841409
-0.0652573
-0.0478245
-0.032209
-0.0186503
-0.00723836
0.00206758
0.00940662
0.0149824
0.0190255
0.0217605
0.0234112
0.0241939
0.0243119
0.0239421
0.0232263
0.022274
0.0211689
0.0199767
0.0187528
0.0174755
0.0162716
0.0151523
0.0140912
0.013093
0.0121634
0.0113018
0.0105056
0.00977087
0.00909317
0.00846675
0.00788682
0.00734648
0.00684182
0.0063642
0.00591184
0.0054732
0.00504877
0.00462537
0.00420063
0.00376733
0.00330977
0.00283385
0.00230725
0.00174603
0.00110006
0.00040845
-0.230454
-0.241455
-0.238137
-0.228041
-0.217398
-0.207395
-0.19674
-0.184267
-0.169749
-0.153577
-0.13629
-0.11838
-0.100291
-0.0824702
-0.0653736
-0.0494121
-0.0349244
-0.022151
-0.0112111
-0.0021109
0.00523343
0.010967
0.015267
0.0183224
0.0203298
0.0214819
0.0219598
0.0219247
0.021511
0.0208261
0.0199543
0.0189619
0.0179036
0.0168011
0.0157295
0.0147005
0.0137172
0.0127865
0.0119129
0.0110973
0.010339
0.00963503
0.00898253
0.00837653
0.00781345
0.00728656
0.00679338
0.00632448
0.00588016
0.00544713
0.00502827
0.00460882
0.00418741
0.00375749
0.00330158
0.0028283
0.00230267
0.0017438
0.0010969
0.000411512
-0.210078
-0.220417
-0.218379
-0.209668
-0.199932
-0.190771
-0.181297
-0.170393
-0.157708
-0.143516
-0.128284
-0.112445
-0.096374
-0.0804387
-0.0650177
-0.0504719
-0.0371089
-0.0251587
-0.0147556
-0.00593955
0.00132737
0.00714081
0.0116344
0.0149621
0.0172891
0.0187804
0.0195955
0.0198803
0.0197607
0.0193401
0.0187019
0.017914
0.0170335
0.0160942
0.015144
0.0142135
0.0133154
0.0124562
0.0116417
0.010875
0.0101568
0.00948579
0.00886043
0.0082765
0.00773182
0.00721959
0.00673907
0.00627979
0.00584432
0.00541767
0.00500476
0.00459005
0.00417207
0.00374616
0.00329202
0.00282186
0.00229722
0.0017412
0.00109363
0.000413743
-0.190459
-0.200347
-0.199367
-0.192044
-0.183373
-0.175103
-0.166699
-0.157188
-0.146159
-0.133771
-0.120416
-0.106471
-0.0922571
-0.0780762
-0.0642397
-0.0510569
-0.038803
-0.0276942
-0.0178725
-0.00940328
-0.00228439
0.00354009
0.00816526
0.0117105
0.0143094
0.0161012
0.0172242
0.0178087
0.0179704
0.0178069
0.0173998
0.0168165
0.0161128
0.015328
0.0145084
0.0136879
0.0128813
0.0120982
0.0113469
0.0106325
0.00995767
0.00932237
0.0087265
0.00816666
0.0076421
0.007146
0.00667939
0.00623078
0.00580504
0.00538557
0.00497919
0.00456989
0.0041556
0.00373435
0.003282
0.00281547
0.00229176
0.00173892
0.00109075
0.000415365
-0.172177
-0.181553
-0.181294
-0.175189
-0.167617
-0.16029
-0.152907
-0.144659
-0.135128
-0.124385
-0.112742
-0.100524
-0.0880087
-0.0754441
-0.0630871
-0.0511989
-0.0400225
-0.0297585
-0.0205506
-0.0124808
-0.00557321
0.000196046
0.00488845
0.00859169
0.0114107
0.0134603
0.014858
0.0157179
0.016144
0.0162273
0.0160453
0.0156632
0.0151365
0.0145099
0.0138272
0.0131209
0.0124097
0.011707
0.0110231
0.010365
0.00973697
0.00914048
0.00857684
0.00804351
0.00754112
0.00706297
0.00661175
0.00617521
0.00576023
0.00534902
0.00494987
0.0045468
0.00413672
0.00372073
0.00327053
0.00280812
0.0022856
0.00173612
0.00108783
0.000416122
-0.155429
-0.164009
-0.164215
-0.159184
-0.15269
-0.146318
-0.139913
-0.132813
-0.124625
-0.115363
-0.105268
-0.0946161
-0.0836441
-0.0725611
-0.0615777
-0.0509127
-0.0407772
-0.0313542
-0.0227839
-0.0151572
-0.0085175
-0.0028659
0.00183102
0.00563336
0.00862029
0.0108832
0.0125196
0.0136272
0.0142977
0.0146139
0.0146481
0.0144632
0.0141139
0.0136461
0.0131012
0.0125118
0.0118999
0.0112815
0.010669
0.0100708
0.00949304
0.00893847
0.00840985
0.0079055
0.00742744
0.00696917
0.00653492
0.00611196
0.00570885
0.00530707
0.00491594
0.00451999
0.00411471
0.00370463
0.00325707
0.00279922
0.00227834
0.00173236
0.00108467
0.000416041
-0.139829
-0.14762
-0.148216
-0.144138
-0.138641
-0.133176
-0.127686
-0.121623
-0.114632
-0.106692
-0.0979891
-0.0887517
-0.0791814
-0.0694534
-0.0597411
-0.0502262
-0.0410896
-0.0324952
-0.0245758
-0.0174262
-0.0111025
-0.00562464
-0.000981624
0.0028632
0.00596597
0.00839653
0.0102333
0.0115577
0.0124492
0.0129813
0.0132206
0.0132263
0.0130508
0.0127395
0.0123323
0.0118623
0.0113526
0.010822
0.0102843
0.0097495
0.00922522
0.0087156
0.00822474
0.00775188
0.00730032
0.00686391
0.00644828
0.00604044
0.0056504
0.00525929
0.004877
0.00448915
0.00408931
0.00368582
0.00324146
0.0027886
0.00226993
0.00172754
0.0010813
0.000415298
-0.125333
-0.132443
-0.133358
-0.130091
-0.125478
-0.120844
-0.116189
-0.111058
-0.105131
-0.0983689
-0.0909116
-0.0829478
-0.0746463
-0.0661536
-0.057612
-0.0491717
-0.0409862
-0.0331996
-0.025935
-0.0192868
-0.0133184
-0.00806311
-0.00352736
0.000306147
0.00347359
0.00602546
0.00802241
0.00953059
0.0106168
0.0113451
0.0117751
0.0119614
0.0119534
0.0117949
0.0115246
0.0111749
0.0107694
0.0103291
0.00986909
0.00940069
0.00893293
0.00847113
0.00802072
0.00758181
0.00715896
0.00674643
0.00635113
0.00596004
0.00558431
0.00520517
0.00483265
0.00445391
0.00406022
0.00366405
0.00322353
0.00277611
0.00226031
0.00172161
0.00107772
0.000414053
-0.112123
-0.118599
-0.119626
-0.117016
-0.113183
-0.109297
-0.105395
-0.101095
-0.0961121
-0.0903936
-0.0840463
-0.0772236
-0.0700658
-0.0626943
-0.0552257
-0.0477835
-0.0404965
-0.03349
-0.0268756
-0.0207438
-0.0151611
-0.0101697
-0.00578879
-0.00201655
0.00116649
0.00379386
0.0059102
0.00756725
0.00881958
0.00972141
0.010325
0.0106795
0.0108304
0.0108193
0.010683
0.0104533
0.0101522
0.00980385
0.00942385
0.00902441
0.00861582
0.00820451
0.00779709
0.00739454
0.00700258
0.00661597
0.00624273
0.00587006
0.00550998
0.00514417
0.0047824
0.00441383
0.0040271
0.003639
0.00320306
0.00276151
0.00224938
0.00171446
0.00107387
0.000412424
-0.100006
-0.105761
-0.106907
-0.104876
-0.101736
-0.0985203
-0.0952875
-0.0917213
-0.0875686
-0.0827707
-0.0774067
-0.0716005
-0.0654682
-0.0591095
-0.0526193
-0.0460985
-0.0396544
-0.0333943
-0.0274174
-0.0218081
-0.0166327
-0.0119385
-0.00775344
-0.00408754
-0.000934817
0.00172387
0.00391894
0.00568906
0.00707711
0.00812761
0.0088851
0.00939288
0.009692
0.0098206
0.00981332
0.00970179
0.00950398
0.00924837
0.00894977
0.00862121
0.00827399
0.00791549
0.00755339
0.00718947
0.00683051
0.00647181
0.0061224
0.00576984
0.00542678
0.00507569
0.00472575
0.00436845
0.00398957
0.00361032
0.00317979
0.00274458
0.00223699
0.00170601
0.00106964
0.000410504
-0.0888747
-0.0940047
-0.0952229
-0.0936786
-0.091133
-0.0884986
-0.0858507
-0.0829249
-0.0794973
-0.0755055
-0.0710069
-0.0661011
-0.0608831
-0.0554343
-0.0498315
-0.0441561
-0.0384968
-0.0329441
-0.0275848
-0.0224959
-0.017741
-0.0133691
-0.00941395
-0.00589381
-0.00281323
-0.000164928
0.00206933
0.00391657
0.00540897
0.00658163
0.00747136
0.00811525
0.00854937
0.0088079
0.00892217
0.0089183
0.00882845
0.00866554
0.0084488
0.00819227
0.00790804
0.00760424
0.00728947
0.00696625
0.00664225
0.0063134
0.00598953
0.00565876
0.00533414
0.00499918
0.00466221
0.00431731
0.00394724
0.00357764
0.00315347
0.00272505
0.00222295
0.00169616
0.00106489
0.000408369
-0.0787244
-0.0832941
-0.0845391
-0.0833858
-0.0813424
-0.0792079
-0.0770655
-0.0746934
-0.0718935
-0.0686025
-0.0648608
-0.0607477
-0.0563403
-0.0517044
-0.0469014
-0.0419966
-0.0370622
-0.032174
-0.0274066
-0.0228286
-0.0184992
-0.0144669
-0.0107683
-0.00742716
-0.00445572
-0.00185612
0.000379778
0.00226898
0.00383408
0.00510135
0.00610002
0.00686089
0.00741484
0.0077918
0.00801988
0.00812463
0.0081322
0.00805935
0.0079237
0.00773945
0.00751911
0.00727138
0.00700556
0.00672479
0.00643754
0.00614031
0.00584365
0.00553631
0.00523154
0.00491413
0.00459131
0.00425995
0.00389974
0.00354062
0.00312381
0.00270272
0.00220709
0.00168485
0.00105951
0.00040607
-0.0695252
-0.0735591
-0.0747747
-0.0739348
-0.0723194
-0.0706194
-0.0689129
-0.0670149
-0.0647534
-0.0620669
-0.0589825
-0.0555627
-0.0518694
-0.047955
-0.0438682
-0.0396609
-0.0353911
-0.0311214
-0.026915
-0.0228318
-0.0189257
-0.0152426
-0.0118199
-0.00868448
-0.00585377
-0.00333702
-0.0011342
0.000763412
0.00237007
0.00370401
0.00478733
0.00564464
0.00630148
0.00678347
0.00711535
0.00732033
0.00742085
0.00743453
0.00737804
0.00726531
0.00710898
0.00691804
0.00670228
0.00646535
0.00621635
0.00595235
0.00568443
0.00540207
0.00511855
0.00482007
0.00451261
0.00419594
0.0038467
0.00349891
0.00309054
0.00267736
0.0021892
0.00167202
0.00105338
0.000403633
-0.061172
-0.0647087
-0.0658804
-0.0653005
-0.0640459
-0.0627096
-0.0613709
-0.0598751
-0.0580718
-0.0559026
-0.0533849
-0.0505671
-0.0474984
-0.0442201
-0.0407704
-0.0371898
-0.0335244
-0.0298252
-0.0261448
-0.0225349
-0.019043
-0.0157117
-0.0125773
-0.00966773
-0.00700357
-0.00459909
-0.00246048
-0.000585651
0.00103269
0.00240572
0.00354897
0.00448125
0.00522285
0.00579479
0.00621842
0.00651417
0.00670131
0.00679671
0.0068162
0.00677318
0.00668007
0.0065459
0.00638074
0.00618858
0.005979
0.00574956
0.00551173
0.00525577
0.00499482
0.00471662
0.00442574
0.00412491
0.00378777
0.0034522
0.00305335
0.00264876
0.00216907
0.0016576
0.00104637
0.000401061
-0.0535959
-0.0566952
-0.0578148
-0.0574472
-0.0564845
-0.0554504
-0.0544183
-0.0532588
-0.0518414
-0.0501112
-0.048078
-0.045779
-0.0432527
-0.0405315
-0.0376444
-0.0346226
-0.0315025
-0.0283248
-0.0251328
-0.02197
-0.0188778
-0.0158944
-0.0130539
-0.0103838
-0.0079061
-0.0056382
-0.00359081
-0.00176687
-0.000164687
0.0012209
0.00239958
0.00338488
0.00419222
0.00483808
0.00534003
0.00571555
0.00598119
0.00615224
0.00624336
0.00626713
0.00623549
0.00615726
0.00604257
0.00589558
0.00572615
0.00553227
0.00532566
0.00509733
0.00486018
0.00460349
0.00433039
0.00404651
0.00372262
0.0034002
0.00301199
0.00261675
0.00214651
0.00164152
0.00103841
0.000398341
-0.0467517
-0.0494566
-0.0505076
-0.0502997
-0.0495817
-0.0487995
-0.0480232
-0.0471453
-0.0460516
-0.0446913
-0.0430692
-0.0412139
-0.0391554
-0.0369183
-0.0345243
-0.0319972
-0.029365
-0.0266597
-0.0239165
-0.0211714
-0.0184595
-0.0158145
-0.0132675
-0.0108443
-0.008567
-0.00645468
-0.00452101
-0.0027725
-0.00121167
0.000161682
0.00135223
0.00236877
0.00322236
0.00392531
0.00449121
0.00493434
0.00526892
0.00550826
0.00566545
0.00575197
0.00577903
0.00575505
0.00568995
0.0055879
0.00545887
0.00530115
0.00512659
0.00492689
0.00471461
0.00448055
0.00422634
0.00396051
0.00365099
0.00334267
0.00296618
0.00258115
0.00212134
0.00162371
0.00102942
0.000395449
-0.0405799
-0.0429284
-0.0439037
-0.0438229
-0.0433093
-0.0427318
-0.0421641
-0.0415165
-0.0406902
-0.0396389
-0.0383631
-0.0368845
-0.0352261
-0.0334065
-0.0314417
-0.029349
-0.0271497
-0.0248686
-0.0225336
-0.0201742
-0.0178197
-0.0154988
-0.0132394
-0.011065
-0.00899635
-0.00705327
-0.00525109
-0.00359853
-0.00210115
-0.000762572
0.00041782
0.00144475
0.00232524
0.00306785
0.00368262
0.00418061
0.0045735
0.00487252
0.00508902
0.00523314
0.00531515
0.0053428
0.00532564
0.00526763
0.00517869
0.00505727
0.00491523
0.00474485
0.00455829
0.00434783
0.00411353
0.00386676
0.00357266
0.00327942
0.00291572
0.00254181
0.0020934
0.0016041
0.00101935
0.000392362
-0.0350153
-0.0370481
-0.0379463
-0.0379619
-0.0376103
-0.0372054
-0.0368073
-0.0363471
-0.035741
-0.0349465
-0.0339608
-0.0327997
-0.0314811
-0.0300189
-0.0284246
-0.0267104
-0.024892
-0.0229883
-0.0210211
-0.0190141
-0.016991
-0.0149764
-0.0129941
-0.0110651
-0.00920822
-0.00744289
-0.00578513
-0.00424483
-0.00282941
-0.00154538
-0.000395372
0.000622309
0.00151121
0.00227635
0.00292466
0.0034641
0.00390394
0.00425306
0.0045211
0.00471666
0.00484888
0.00492465
0.00495295
0.00493735
0.00488758
0.00480209
0.0046926
0.00455192
0.00439168
0.00420557
0.00399203
0.00376526
0.00348754
0.00321035
0.00286045
0.00249864
0.00206257
0.00158261
0.00100817
0.000389064
-0.0300079
-0.0317636
-0.032586
-0.0326747
-0.0324544
-0.0321858
-0.0319225
-0.0316136
-0.0311876
-0.0306051
-0.0298605
-0.0289653
-0.0279333
-0.0267747
-0.0254976
-0.0241105
-0.0226244
-0.0210535
-0.0194145
-0.017726
-0.0160069
-0.0142775
-0.0125582
-0.0108669
-0.00922015
-0.00763632
-0.00613125
-0.00471519
-0.0033964
-0.00218336
-0.00108128
-9.09693e-05
0.000788564
0.00155963
0.00222657
0.00279439
0.00326908
0.00365804
0.00396901
0.00420895
0.00438574
0.00450525
0.00457571
0.00460018
0.00458801
0.0045375
0.00446015
0.00434914
0.00421547
0.00405424
0.00386211
0.00365615
0.00339563
0.00313545
0.00280027
0.00245155
0.00202878
0.00155919
0.000995875
0.000385545
-0.0255115
-0.0270233
-0.0277715
-0.0279135
-0.0277977
-0.027642
-0.027492
-0.0273006
-0.0270163
-0.0266048
-0.0260584
-0.0253842
-0.024592
-0.0236894
-0.0226819
-0.021575
-0.0203764
-0.0190964
-0.0177473
-0.0163436
-0.0149
-0.013433
-0.0119597
-0.0104948
-0.00905248
-0.00764964
-0.00630137
-0.00501746
-0.00380636
-0.0026775
-0.00163771
-0.000689863
0.000164819
0.000926186
0.00159635
0.00217872
0.00267672
0.00309519
0.00344003
0.00371662
0.00393155
0.00408963
0.00419821
0.00425967
0.00428287
0.00426582
0.00421968
0.00413789
0.00403071
0.00389458
0.00372424
0.00353975
0.0032971
0.0030548
0.00273519
0.00240052
0.00199202
0.00153381
0.000982471
0.000381808
-0.0214787
-0.0227768
-0.0234545
-0.0236346
-0.0236011
-0.0235338
-0.0234719
-0.0233783
-0.0232065
-0.0229322
-0.0225472
-0.0220552
-0.0214626
-0.0207745
-0.0199943
-0.0191256
-0.0181737
-0.0171456
-0.0160503
-0.0148986
-0.0137019
-0.0124733
-0.0112267
-0.00997412
-0.00872712
-0.00750086
-0.00630948
-0.00516187
-0.00406615
-0.00303219
-0.00206762
-0.0011761
-0.000359413
0.000380316
0.00104071
0.00162551
0.00213494
0.00257241
0.00294154
0.0032464
0.0034924
0.00368315
0.00382509
0.00391978
0.00397549
0.0039898
0.00397341
0.00391992
0.00383872
0.00372763
0.00357916
0.00341661
0.00319227
0.00296863
0.00266534
0.00234561
0.00195232
0.00150647
0.00096798
0.000377863
-0.0178693
-0.0189824
-0.0195946
-0.0198013
-0.0198321
-0.0198346
-0.019842
-0.0198248
-0.019744
-0.0195772
-0.0193208
-0.0189773
-0.0185495
-0.0180393
-0.017449
-0.0167812
-0.0160391
-0.0152273
-0.014352
-0.0134211
-0.0124431
-0.0114283
-0.0103879
-0.0093312
-0.00826732
-0.00720962
-0.0061709
-0.00515891
-0.00418108
-0.00324743
-0.00236657
-0.0015436
-0.000781522
-8.1892e-05
0.00055255
0.00113592
0.00164835
0.00209476
0.00247905
0.00280403
0.00307387
0.00329105
0.00346111
0.00358472
0.00366951
0.00371251
0.0037239
0.00369734
0.0036412
0.00355471
0.00342787
0.0032875
0.00308165
0.00287732
0.00259093
0.00228693
0.0019098
0.0014772
0.000952441
0.000373736
-0.0146372
-0.015589
-0.0161405
-0.0163644
-0.016445
-0.0165021
-0.0165634
-0.0166053
-0.0165958
-0.016516
-0.0163627
-0.0161408
-0.0158481
-0.0154841
-0.0150511
-0.0145515
-0.013987
-0.0133597
-0.0126735
-0.0119344
-0.0111486
-0.0103239
-0.00946931
-0.0085916
-0.00769762
-0.00679888
-0.00590671
-0.00502728
-0.00416641
-0.00333342
-0.0025366
-0.00178093
-0.00107275
-0.000420216
0.000195288
0.000737689
0.00123379
0.00167562
0.00206309
0.00239799
0.00268307
0.00291945
0.00311158
0.0032591
0.00336892
0.0034374
0.00347406
0.0034726
0.00344014
0.00337747
0.00327163
0.00315344
0.00296599
0.00278142
0.00251236
0.0022247
0.00186464
0.00144606
0.000935897
0.000369455
-0.0117793
-0.0125927
-0.0130876
-0.01332
-0.0134367
-0.0135349
-0.0136384
-0.0137301
-0.0137846
-0.0137851
-0.0137223
-0.0135914
-0.013397
-0.0131475
-0.0128438
-0.0124839
-0.0120673
-0.0115948
-0.011069
-0.0104941
-0.00987484
-0.00921705
-0.00852781
-0.00781189
-0.00707431
-0.00632517
-0.00557472
-0.00482807
-0.00409014
-0.00336936
-0.00267352
-0.00200636
-0.00136573
-0.000761737
-0.00017253
0.000366635