/*--------------------------------*- C++ -*----------------------------------*\
| =========                 |                                                 |
| \\      /  F ield         | OpenFOAM: The Open Source CFD Toolbox           |
|  \\    /   O peration     | Version:  2512                                  |
|   \\  /    A nd           | Website:  www.openfoam.com                      |
|    \\/     M anipulation  |                                                 |
\*---------------------------------------------------------------------------*/
FoamFile
{
    version     2.0;
    format      ascii;
    arch        "LSB;label=32;scalar=64";
    class       surfaceScalarField;
    location    "82.25";
    object      phi;
}
// * * * * * * * * * * * * * * * * * * * * * * * * * * * * * * * * * * * * * //

dimensions      [0 3 -1 0 0 0 0];

oriented        oriented;

internalField   nonuniform List<scalar> 
26232
(
0.000100595
0.00100915
-0.00110974
0.000623842
0.00184842
-0.00237166
0.00174901
0.00163309
-0.00275826
0.00363589
0.000391473
-0.00227835
0.00643983
-0.0018654
-0.000938541
0.0103123
-0.00513265
0.0012602
0.0153913
-0.00939971
0.00432066
0.0217832
-0.0146356
0.00824374
0.0295388
-0.0207742
0.0130186
0.0386307
-0.0277042
0.0186122
0.048936
-0.0352651
0.0249598
0.0602318
-0.0432535
0.0319577
0.0722054
-0.0514364
0.0394628
0.0844785
-0.059571
0.0472978
0.0966435
-0.0674263
0.0552614
0.108305
-0.0748043
0.063143
0.119121
-0.081557
0.0707404
0.128842
-0.0875985
0.0778778
0.137331
-0.0929052
0.0844168
0.144562
-0.0975206
0.0902895
0.150617
-0.101498
0.0954423
0.155593
-0.105023
0.100046
0.159423
-0.107823
0.103993
-0.110893
0.108238
0.162078
0.000135877
0.000873269
0.000802427
0.00118187
0.00221886
0.000216656
0.00458183
-0.0019715
0.00807336
-0.00535692
0.0128509
-0.00991022
0.0190257
-0.0155745
0.0266347
-0.0222446
0.035615
-0.0297545
0.0457887
-0.0378779
0.056866
-0.0463425
0.0684679
-0.0548553
0.0801648
-0.0631333
0.091526
-0.0709322
0.10217
-0.0780699
0.111806
-0.0844403
0.120265
-0.0900163
0.127507
-0.0948409
0.133613
-0.0990107
0.138744
-0.102652
0.143138
-0.105892
0.146983
-0.108867
0.150725
-0.111565
-0.114516
0.154349
0.000203676
0.000669593
0.00109161
0.000293931
0.00291183
-0.00160356
0.0058838
-0.00494348
0.0101926
-0.00966568
0.0159636
-0.0156812
0.0232292
-0.0228401
0.0318992
-0.0309145
0.0417471
-0.0396024
0.0524221
-0.0485529
0.0634864
-0.0574067
0.0744706
-0.0658395
0.0849361
-0.0735988
0.0945309
-0.080527
0.103029
-0.0865678
0.110345
-0.0917567
0.116528
-0.096199
0.121728
-0.100041
0.126156
-0.103439
0.13004
-0.106536
0.13359
-0.109442
0.136977
-0.112254
0.140348
-0.114937
-0.117844
0.143676
0.000301108
0.000368486
0.00148053
-0.000885492
0.00379875
-0.00392178
0.00747398
-0.00861871
0.0126568
-0.0148485
0.0193898
-0.0224142
0.0275707
-0.031021
0.036938
-0.0402818
0.0470904
-0.0497548
0.0575401
-0.0590026
0.0677861
-0.0676527
0.0773893
-0.0754427
0.086031
-0.0822406
0.0935448
-0.0880408
0.099916
-0.092939
0.105254
-0.0970949
0.109749
-0.100693
0.113618
-0.103911
0.117074
-0.106894
0.120288
-0.10975
0.123396
-0.11255
0.126487
-0.115344
0.129664
-0.118114
-0.121094
0.132914
0.000422486
-5.40004e-05
0.00194703
-0.00241004
0.0048246
-0.00679934
0.00923815
-0.0130323
0.0152562
-0.0208666
0.0227848
-0.0299428
0.0315457
-0.0397819
0.0410996
-0.0498358
0.050915
-0.0595701
0.0604594
-0.0685471
0.0692891
-0.0764825
0.0771101
-0.0832636
0.0838003
-0.0889308
0.0893944
-0.0936349
0.0940401
-0.0975847
0.0979437
-0.100999
0.10132
-0.10407
0.104359
-0.106949
0.107206
-0.109741
0.109968
-0.112512
0.112717
-0.1153
0.115499
-0.118126
0.118365
-0.120981
-0.123993
0.121265
0.00056164
-0.00061564
0.00246479
-0.00431319
0.00592184
-0.0102564
0.0110384
-0.0181488
0.0177501
-0.0275784
0.0257852
-0.0379779
0.0346824
-0.0486791
0.0438703
-0.0590237
0.0527799
-0.0684797
0.0609497
-0.0767169
0.0680928
-0.0836256
0.0741126
-0.0892833
0.0790733
-0.0938915
0.0831446
-0.0977062
0.0865404
-0.10098
0.0894692
-0.103927
0.0921048
-0.106705
0.0945768
-0.109421
0.0969743
-0.112139
0.099356
-0.114894
0.101761
-0.117705
0.104214
-0.120579
0.106747
-0.123513
-0.126574
0.109327
0.000712993
-0.00132863
0.0030053
-0.0066055
0.0070157
-0.0142668
0.0127262
-0.0238593
0.0198974
-0.0347496
0.0280677
-0.0461482
0.0366327
-0.0572441
0.0449773
-0.0673683
0.0526029
-0.0761053
0.0592065
-0.0833205
0.0646943
-0.0891133
0.0691425
-0.0937315
0.0727319
-0.0974809
0.0756803
-0.100655
0.0781923
-0.103492
0.0804331
-0.106168
0.0825217
-0.108794
0.0845373
-0.111437
0.0865302
-0.114132
0.0885324
-0.116896
0.0905648
-0.119737
0.0926412
-0.122656
0.094778
-0.12565
-0.128745
0.0969494
0.000869774
-0.00219841
0.00353672
-0.00927244
0.00802599
-0.0187561
0.014154
-0.0299873
0.0214869
-0.0420824
0.0294012
-0.0540625
0.0372286
-0.0650714
0.0444105
-0.0745502
0.0505991
-0.0822939
0.055678
-0.0883994
0.0597183
-0.0931536
0.0629031
-0.0969163
0.0654535
-0.100031
0.0675747
-0.102776
0.0694295
-0.105347
0.0711325
-0.107871
0.0727578
-0.110419
0.0743511
-0.11303
0.0759405
-0.115721
0.077544
-0.1185
0.0791741
-0.121367
0.0808408
-0.124322
0.082554
-0.127363
-0.130491
0.0842998
0.0010238
-0.00322221
0.00402358
-0.0122722
0.00887167
-0.0236042
0.0151917
-0.0363073
0.0223677
-0.0492584
0.0296795
-0.0613744
0.036487
-0.0718789
0.0423653
-0.0804285
0.0471457
-0.0870743
0.0508735
-0.0921272
0.0537253
-0.0960054
0.0559249
-0.0991159
0.0576823
-0.101789
0.0591636
-0.104257
0.0604844
-0.106668
0.0617179
-0.109105
0.0629079
-0.111609
0.0640803
-0.114202
0.0652513
-0.116892
0.0664321
-0.11968
0.0676311
-0.122566
0.0688551
-0.125546
0.0701096
-0.128618
-0.131769
0.0713877
0.00116515
-0.00438736
0.0044289
-0.015536
0.00947953
-0.0286548
0.0157439
-0.0425717
0.0224695
-0.055984
0.0289216
-0.0678265
0.034565
-0.0775224
0.039143
-0.0850064
0.0426488
-0.0905801
0.045239
-0.0947174
0.0471368
-0.0979032
0.0485604
-0.100539
0.0496844
-0.102913
0.0506307
-0.105203
0.0514757
-0.107513
0.0522639
-0.109893
0.0530207
-0.112366
0.0537613
-0.114943
0.0544959
-0.117627
0.055232
-0.120417
0.0559758
-0.12331
0.0567325
-0.126303
0.0575056
-0.129391
-0.132558
0.0582947
0.00128362
-0.00567098
0.00471965
-0.018972
0.00979536
-0.0337305
0.0157636
-0.0485399
0.0218029
-0.0620233
0.027241
-0.0732647
0.0316921
-0.0819735
0.0350621
-0.0883764
0.0374654
-0.0929834
0.0391166
-0.0963686
0.0402426
-0.0990292
0.0410315
-0.101328
0.0416166
-0.103498
0.0420817
-0.105668
0.0424747
-0.107906
0.0428222
-0.11024
0.0431392
-0.112683
0.0434355
-0.115239
0.043718
-0.117909
0.0439924
-0.120691
0.0442632
-0.123581
0.0445336
-0.126574
0.044805
-0.129662
-0.132833
0.0450798
0.00137295
-0.00704393
0.0048745
-0.0224735
0.00979278
-0.0386488
0.0152547
-0.0540018
0.0204445
-0.0672131
0.024808
-0.0776282
0.028118
-0.0852835
0.0304132
-0.0906715
0.0318819
-0.0944521
0.0327553
-0.097242
0.0332381
-0.099512
0.0334803
-0.101571
0.0335779
-0.103595
0.0335857
-0.105676
0.0335334
-0.107854
0.0334366
-0.110143
0.0333048
-0.112551
0.0331447
-0.115079
0.0329616
-0.117726
0.0327603
-0.12049
0.0325448
-0.123365
0.0323174
-0.126346
0.0320783
-0.129423
0.031832
-0.132587
-0.000205282
0.00211386
-0.00190858
-0.000739272
0.00501617
-0.00448218
-0.00154965
0.00698926
-0.00617889
-0.00259092
0.00823852
-0.00719725
-0.00382328
0.00894495
-0.00771259
-0.00521354
0.009264
-0.00787375
-0.00673532
0.00931704
-0.00779526
-0.0083683
0.00918688
-0.00755391
-0.0100968
0.00891904
-0.00719052
-0.0119083
0.00852701
-0.00671554
-0.0137916
0.00799982
-0.00611651
-0.0157355
0.00730966
-0.00536579
-0.0177272
0.00641852
-0.00442675
-0.0197514
0.00528306
-0.00325889
-0.0217906
0.00385766
-0.00181846
-0.0238185
0.00209634
-6.84149e-05
-0.0257991
-3.29794e-05
0.00201357
-0.0277095
-0.00256214
0.00447256
-0.0295083
-0.00552187
0.0073206
-0.0311562
-0.00891414
0.0105621
-0.0326186
-0.0127229
0.0141852
-0.0338715
-0.0169086
0.0181616
-0.034922
-0.0214015
0.022452
-0.0260737
-0.0358461
0.0269978
-0.000138548
0.00225241
-0.000527487
0.00540511
-0.00114663
0.0076084
-0.00196963
0.00906152
-0.00296622
0.00994154
-0.00410586
0.0104037
-0.00536044
0.0105716
-0.00670555
0.010532
-0.00812089
0.0103344
-0.00958971
0.00999583
-0.0110978
0.00950789
-0.0126321
0.00884401
-0.0141796
0.00796602
-0.0157258
0.00682918
-0.0172538
0.00538574
-0.0187439
0.00358641
-0.0201603
0.00138344
-0.0214882
-0.00123428
-0.0226905
-0.00431959
-0.0237304
-0.00787422
-0.0245741
-0.0118792
-0.025198
-0.0162848
-0.025604
-0.0209954
-0.0258142
-0.0258636
-6.08001e-05
0.00231321
-0.000274834
0.00561914
-0.000654494
0.00798806
-0.0011928
0.00959983
-0.0018692
0.0106179
-0.00265561
0.0111901
-0.00352119
0.0114372
-0.0044357
0.0114465
-0.00537136
0.01127
-0.00630353
0.010928
-0.00721041
0.0104148
-0.0080721
0.0097057
-0.00886946
0.00876338
-0.00958295
0.00754267
-0.0101917
0.00599445
-0.0106734
0.00406818
-0.0110036
0.00171365
-0.0111516
-0.0010863
-0.0110882
-0.004383
-0.0107807
-0.00818176
-0.0101949
-0.0124649
-0.00930272
-0.0171769
-0.00808804
-0.0222101
-0.0273809
-0.00652138
1.95362e-05
0.00229367
-6.14609e-06
0.00564482
-0.000118412
0.00810033
-0.000327543
0.00980896
-0.00062232
0.0109127
-0.000977282
0.011545
-0.00135895
0.0118189
-0.00173068
0.0118182
-0.00205589
0.0115952
-0.00229983
0.0111719
-0.00243005
0.010545
-0.00241606
0.00969171
-0.00222846
0.00857578
-0.00183808
0.00715229
-0.00121547
0.00537184
-0.000331399
0.00318411
0.000843627
0.000538623
0.00235067
-0.00259334
0.00421571
-0.00624804
0.00646603
-0.0104321
0.00912997
-0.0151288
0.012238
-0.0202849
0.0158047
-0.0257768
-0.0314387
0.0198625
9.26984e-05
0.00220098
0.000248335
0.00548919
0.000405425
0.00794324
0.000540258
0.00967412
0.00065629
0.0107967
0.000776318
0.011425
0.000935666
0.0116595
0.00117659
0.0115773
0.00154415
0.0112277
0.00208362
0.0106325
0.00283928
0.00978934
0.0038542
0.00867679
0.00517069
0.00725929
0.00683086
0.00549212
0.00887702
0.00332568
0.0113513
0.000709818
0.0142916
-0.00240169
0.0177429
-0.00604459
0.0217369
-0.0102421
0.0262997
-0.0149949
0.0314452
-0.0202743
0.0371841
-0.0260239
0.0434743
-0.032067
-0.0384529
0.0504884
0.000150132
0.00205084
0.000460373
0.00517895
0.000860823
0.00754279
0.00132148
0.00921346
0.00184116
0.010277
0.0024406
0.0108256
0.00315622
0.0109439
0.00403462
0.0106989
0.00512816
0.0101341
0.00649204
0.00926859
0.00818248
0.00809889
0.010256
0.00660328
0.0127691
0.00474619
0.0157789
0.00248228
0.0193414
-0.000236797
0.0235127
-0.00346145
0.0283431
-0.0072321
0.0338776
-0.0115791
0.0401477
-0.0165122
0.0471678
-0.022015
0.0549238
-0.0280302
0.0633936
-0.0344937
0.0724656
-0.0411389
-0.0483215
0.0823342
0.000185265
0.00186558
0.000607402
0.00475681
0.00120218
0.00694801
0.00194177
0.00847388
0.00282517
0.0093936
0.00387327
0.00977746
0.00512415
0.00969302
0.00662849
0.00919457
0.00844569
0.00831694
0.0106409
0.00707337
0.0132832
0.00545658
0.016444
0.00344248
0.0201944
0.000995842
0.0246094
-0.00193275
0.0297583
-0.0053857
0.0357038
-0.00940692
0.0424986
-0.0140269
0.0501765
-0.019257
0.0587447
-0.0250805
0.0681769
-0.0314472
0.0784068
-0.0382601
0.0893336
-0.0454205
0.100767
-0.0525725
-0.060338
0.112784
0.000195391
0.00167019
0.000678916
0.00427328
0.00140612
0.00622081
0.00236065
0.00751935
0.00354806
0.00820619
0.00499374
0.00833177
0.00674049
0.00794627
0.00884557
0.0070895
0.0113776
0.0057849
0.0144134
0.00403756
0.0180384
0.00183157
0.0223392
-0.00085827
0.0274057
-0.00407068
0.0333186
-0.00784566
0.0401523
-0.0122194
0.047961
-0.0172157
0.0567711
-0.022837
0.0665708
-0.0290567
0.0773023
-0.0358119
0.0888529
-0.0429978
0.101069
-0.0504759
0.113727
-0.0580792
0.126617
-0.0654619
-0.0732158
0.139495
0.000182594
0.00148759
0.000680277
0.0037756
0.00148081
0.00542027
0.00258846
0.0064117
0.00402307
0.00677158
0.00582134
0.0065335
0.00803704
0.00573058
0.0107399
0.00438666
0.0140138
0.00251096
0.0179455
0.000105918
0.0226469
-0.00286988
0.0282112
-0.00642256
0.0347308
-0.0105903
0.0422805
-0.0153954
0.0509062
-0.0208451
0.0606125
-0.0269219
0.0713521
-0.0335766
0.0830181
-0.0407226
0.0954417
-0.0482356
0.108393
-0.0559494
0.121608
-0.0636905
0.134756
-0.0712271
0.147652
-0.0783578
-0.0853006
0.159737
0.000154206
0.00133339
0.000634585
0.00329522
0.0014706
0.00458426
0.00269556
0.00518674
0.00435222
0.00511492
0.00649735
0.00438837
0.00920401
0.00302392
0.0125611
0.00102958
0.0166699
-0.00159785
0.0216461
-0.00487032
0.0275841
-0.00880785
0.0345833
-0.0134217
0.0427072
-0.0187142
0.0519774
-0.0246656
0.0623591
-0.0312268
0.0737512
-0.0383141
0.0859822
-0.0458076
0.098814
-0.0535545
0.111954
-0.0613756
0.125081
-0.0690762
0.137859
-0.0764681
0.149972
-0.0833405
0.161237
-0.0896232
-0.0951688
0.171105
0.000122237
0.00121115
0.000580704
0.00283676
0.00145228
0.00371269
0.0028065
0.00383252
0.00471757
0.00320386
0.00727119
0.00183474
0.0105666
-0.000271462
0.0147156
-0.00311944
0.019833
-0.00671523
0.0260266
-0.0110639
0.0333777
-0.016159
0.0419285
-0.0219725
0.0516614
-0.0284471
0.0624867
-0.035491
0.0742363
-0.0429764
0.0866658
-0.0507435
0.0994666
-0.0586084
0.112289
-0.0663774
0.124772
-0.0738582
0.136589
-0.0808929
0.147455
-0.0873348
0.157257
-0.0931422
0.165853
-0.0982195
-0.10243
0.173115
0.000101409
0.000566503
0.00152093
0.0030751
0.00534041
0.00843536
0.0124846
0.0176088
0.0239122
0.0314605
0.0402613
0.0502465
0.0612623
0.0730692
0.0853541
0.0977537
0.109886
0.121386
0.131945
0.141341
0.149449
0.156353
0.162127
0.167934
-0.0357211
-0.0438692
0.0437442
-0.0352143
-0.053111
0.0526041
-0.0341951
-0.0625055
0.0614864
-0.0325428
-0.0715245
0.0698722
-0.0300616
-0.0796316
0.0771504
-0.0265014
-0.0861238
0.0825636
-0.0215953
-0.0901512
0.0852452
-0.0151117
-0.0907496
0.084266
-0.00694938
-0.0869122
0.0787499
0.00292921
-0.0778418
0.0679632
0.014253
-0.0629661
0.0516423
0.0262624
-0.0417962
0.0297868
0.0387034
-0.0154445
0.00300348
0.051067
0.0151471
-0.0275107
0.0633543
0.0479273
-0.0602146
0.0751256
0.0803299
-0.0921012
0.0856596
0.109115
-0.119649
0.0941471
0.131584
-0.140072
0.0998861
0.146734
-0.152473
0.102117
0.156094
-0.158325
0.100279
0.163487
-0.161649
0.0952459
0.171787
-0.166754
0.0900895
0.177908
-0.172752
0.0887002
0.171745
-0.170356
0.0930506
0.142728
-0.147078
0.102303
0.0883071
-0.0975594
0.114309
0.0164334
-0.0284392
0.126636
-0.0576926
0.0453655
0.137179
-0.11954
0.108996
0.144364
-0.161248
0.154064
0.148081
-0.184129
0.180411
0.149183
-0.192446
0.191344
0.147392
-0.19289
0.194681
0.141491
-0.196095
0.201996
0.132334
-0.207266
0.216422
0.124103
-0.21034
0.218572
0.121254
-0.179272
0.182121
0.124825
-0.102448
0.0988769
0.132571
-0.00144263
-0.00630398
0.141512
0.0941477
-0.103089
0.149376
0.161116
-0.16898
0.153798
0.20053
-0.204952
0.152434
0.229962
-0.228598
0.145489
0.256841
-0.249896
0.136975
0.27118
-0.262666
0.132007
0.228181
-0.223213
0.133417
0.135459
-0.136868
0.139795
-0.00302069
-0.00335803
0.147042
-0.108119
0.100872
0.150107
-0.191612
0.188547
0.146532
-0.24292
0.246496
0.139802
-0.275656
0.282386
0.135692
-0.290449
0.294558
0.136624
-0.180513
0.179581
0.140522
-0.100471
0.0965726
0.141466
0.0966745
-0.0976191
0.138781
0.197631
-0.194946
0.13554
0.287953
-0.284712
0.133306
0.369026
-0.366792
0.110918
-0.10905
-0.0267995
-0.0429332
-0.0277233
-0.0521872
-0.0285087
-0.0617202
-0.0290858
-0.0709474
-0.029287
-0.0794303
-0.0288383
-0.0865725
-0.0273447
-0.0916448
-0.0243045
-0.0937898
-0.019252
-0.0919647
-0.0119872
-0.0851066
-0.00261103
-0.0723422
0.00938752
-0.0537947
0.0226179
-0.0286749
0.0363907
0.0013744
0.0504692
0.0338488
0.064226
0.0665731
0.0768799
0.0964611
0.0874841
0.12098
0.0950594
0.139159
0.0987461
0.152408
0.0984728
0.16376
0.0958897
0.17437
0.0942131
0.179585
0.0963575
0.169601
0.102945
0.13614
0.112602
0.0786498
0.123519
0.00551714
0.13388
-0.0680535
0.142149
-0.127809
0.147156
-0.166255
0.148893
-0.185866
0.148425
-0.191978
0.145799
-0.190263
0.139559
-0.189855
0.129893
-0.1976
0.120753
-0.2012
0.117159
-0.175678
0.120726
-0.106015
0.129343
-0.0100597
0.139702
0.0837891
0.14902
0.151798
0.15451
0.19504
0.153849
0.230622
0.147542
0.263148
0.139631
0.279091
0.134845
0.232967
0.13567
0.134634
0.141048
-0.00839821
0.147516
-0.114586
0.150218
-0.194314
0.146492
-0.239195
0.139647
-0.26881
0.135644
-0.286446
0.136553
-0.181422
0.140383
-0.104301
0.141223
0.095835
0.138502
0.200352
0.13537
0.291085
0.133082
0.371315
0.112809
-0.00797101
-0.0414836
-0.00990794
-0.0502503
-0.0120828
-0.0595453
-0.0144954
-0.0685348
-0.0171101
-0.0768156
-0.0197241
-0.0839585
-0.0219384
-0.0894305
-0.0230438
-0.0926845
-0.0222728
-0.0927356
-0.0189768
-0.0884027
-0.0126256
-0.0786934
-0.00358143
-0.0628388
0.00909551
-0.0413518
0.0231907
-0.0127208
0.0385106
0.0185289
0.0538972
0.0511865
0.0683891
0.0819693
0.0808418
0.108527
0.0901337
0.129867
0.0955604
0.146981
0.0975746
0.161746
0.098212
0.173733
0.100302
0.177495
0.105618
0.164285
0.11379
0.127968
0.123258
0.069182
0.132645
-0.00386971
0.140825
-0.076234
0.146687
-0.133671
0.149531
-0.169099
0.149432
-0.185768
0.147521
-0.190067
0.144186
-0.186929
0.137887
-0.183556
0.128052
-0.187765
0.11814
-0.191288
0.113627
-0.171165
0.116927
-0.109314
0.126195
-0.0193284
0.137828
0.0721562
0.148532
0.141094
0.155127
0.188446
0.155328
0.230421
0.149853
0.268623
0.142649
0.286295
0.138027
0.237588
0.138177
0.134484
0.142428
-0.0126491
0.148035
-0.120194
0.15039
-0.196668
0.146559
-0.235364
0.139588
-0.261839
0.135648
-0.282506
0.136538
-0.182313
0.140346
-0.108109
0.141132
0.0950492
0.138365
0.203119
0.135319
0.29413
0.133011
0.373623
0.114692
0.0180833
-0.0397044
0.0157539
-0.0479208
0.0128391
-0.0566306
0.00920361
-0.0648993
0.0047968
-0.0724088
-0.000199356
-0.0789623
-0.00538438
-0.0842455
-0.0103267
-0.0877422
-0.0140997
-0.0889626
-0.0157734
-0.086729
-0.0142673
-0.0801995
-0.00900282
-0.0681033
-0.000374442
-0.0499802
0.0128752
-0.0259705
0.0281566
0.00324747
0.0442835
0.0350596
0.0600348
0.066218
0.0740372
0.0945248
0.0851098
0.118794
0.0927575
0.139333
0.0977446
0.156759
0.10206
0.169418
0.107835
0.171719
0.11577
0.15635
0.124822
0.118917
0.133656
0.0603479
0.14136
-0.0115736
0.147283
-0.0821572
0.150732
-0.13712
0.151463
-0.16983
0.149689
-0.183993
0.146463
-0.186841
0.14248
-0.182946
0.136322
-0.177398
0.126701
-0.178143
0.116278
-0.180866
0.110751
-0.165638
0.113497
-0.11206
0.123111
-0.0289419
0.135861
0.0594062
0.147861
0.129093
0.155601
0.180706
0.156824
0.229198
0.152359
0.273088
0.145939
0.292715
0.141468
0.24206
0.14088
0.135072
0.143913
-0.0156818
0.148584
-0.124865
0.150597
-0.198681
0.146704
-0.231471
0.139593
-0.254728
0.135662
-0.278575
0.136547
-0.183197
0.140391
-0.111953
0.141184
0.0942561
0.138363
0.20594
0.135387
0.297106
0.133098
0.375912
0.116535
0.0483939
-0.0376098
0.0460018
-0.0455288
0.0428926
-0.0535214
0.0388887
-0.0608954
0.0339107
-0.0674307
0.0278583
-0.07291
0.0207073
-0.0770945
0.0127702
-0.0798051
0.00471364
-0.080906
-0.00177345
-0.0802419
-0.00552795
-0.076445
-0.00545764
-0.0681737
-0.00128128
-0.0541566
0.00805265
-0.0353044
0.0211953
-0.00989523
0.036582
0.0196729
0.0525916
0.0502084
0.0676312
0.0794852
0.0804437
0.105982
0.0906241
0.129153
0.0989253
0.148458
0.106962
0.161381
0.116059
0.162623
0.126019
0.146389
0.13546
0.109477
0.14335
0.0524578
0.149337
-0.0175611
0.153068
-0.0858875
0.154165
-0.138218
0.152852
-0.168517
0.149577
-0.180718
0.145218
-0.182482
0.140646
-0.178375
0.134758
-0.17151
0.125696
-0.169081
0.115123
-0.170293
0.108605
-0.15912
0.110518
-0.113973
0.12014
-0.0385637
0.133762
0.0457836
0.146938
0.115917
0.15586
0.171785
0.15826
0.226798
0.154964
0.276384
0.149386
0.298293
0.145062
0.246383
0.143705
0.136429
0.145474
-0.0174515
0.149137
-0.128527
0.150809
-0.200352
0.146904
-0.227567
0.139638
-0.247462
0.135651
-0.274589
0.136543
-0.184089
0.140492
-0.115901
0.141364
0.093384
0.138493
0.208811
0.135574
0.300025
0.133346
0.37814
0.118304
0.0800391
-0.0353147
0.0773331
-0.0428228
0.0739441
-0.0501324
0.0697055
-0.0566568
0.0645805
-0.0623057
0.0584769
-0.0668065
0.051255
-0.0698725
0.0428776
-0.0714277
0.033585
-0.0716135
0.0239039
-0.0705607
0.0152423
-0.0677834
0.00943282
-0.0623642
0.00815619
-0.0528799
0.0117183
-0.0388665
0.0204035
-0.0185805
0.0331003
0.0069761
0.0478865
0.0354223
0.0630334
0.0643383
0.077156
0.0918589
0.0896922
0.116617
0.101092
0.137058
0.112403
0.15007
0.124167
0.150858
0.135555
0.135001
0.145087
0.0999455
0.152034
0.04551
0.156382
-0.021909
0.15802
-0.0875254
0.156869
-0.137067
0.153624
-0.165272
0.149029
-0.176124
0.143743
-0.177195
0.138639
-0.173271
0.133061
-0.165931
0.124843
-0.160864
0.114534
-0.159983
0.107195
-0.151781
0.10802
-0.114799
0.117322
-0.0478657
0.131486
0.0316201
0.145679
0.101724
0.155809
0.161654
0.159531
0.223077
0.157541
0.278374
0.152849
0.302985
0.148666
0.250567
0.146576
0.138519
0.147072
-0.0179478
0.14967
-0.131125
0.150988
-0.20167
0.147129
-0.223708
0.139703
-0.240036
0.135584
-0.27047
0.136493
-0.184997
0.140619
-0.120028
0.141654
0.0923493
0.138746
0.211719
0.135877
0.302894
0.133757
0.38026
0.119964
0.110033
-0.032564
0.106805
-0.0395946
0.102855
-0.0461829
0.0981296
-0.0519312
0.0927209
-0.056897
0.0866553
-0.0607408
0.0798642
-0.0630814
0.0722111
-0.0637746
0.0635239
-0.0629263
0.0537759
-0.0608127
0.0436007
-0.0576083
0.0343276
-0.053091
0.0278065
-0.0463589
0.0253464
-0.0364064
0.0281876
-0.0214218
0.0363557
-0.00119192
0.0481397
0.0236382
0.0620464
0.0504316
0.0764992
0.0774062
0.0906046
0.102511
0.104318
0.123345
0.118032
0.136356
0.131601
0.137289
0.143777
0.122825
0.153147
0.0905754
0.159281
0.0393766
0.16222
-0.0248478
0.161941
-0.0872467
0.158727
-0.133852
0.153713
-0.160258
0.147976
-0.170386
0.141985
-0.171205
0.13643
-0.167715
0.131125
-0.160626
0.12393
-0.153669
0.114299
-0.150352
0.106421
-0.143904
0.106046
-0.114423
0.114632
-0.0564521
0.128978
0.0172742
0.143993
0.0867087
0.15534
0.150308
0.160517
0.217899
0.159957
0.278934
0.156181
0.306762
0.152148
0.2546
0.14939
0.141277
0.14866
-0.0172185
0.15015
-0.132615
0.151095
-0.202616
0.147348
-0.219961
0.139775
-0.232463
0.135439
-0.266134
0.13636
-0.185918
0.140738
-0.124406
0.142034
0.0910535
0.139117
0.214636
0.136296
0.305715
0.134332
0.382224
0.12148
0.136054
-0.0291234
0.13209
-0.0356308
0.127349
-0.0414416
0.121912
-0.0464946
0.115983
-0.0509681
0.109673
-0.0544299
0.103047
-0.0564559
0.096123
-0.0568506
0.0887646
-0.0555679
0.0806972
-0.0527453
0.0717828
-0.0486939
0.0623823
-0.0436905
0.0536462
-0.0376228
0.0471126
-0.0298728
0.0446526
-0.0189617
0.04734
-0.00387932
0.054794
0.0161842
0.0659805
0.0392451
0.0793933
0.0639934
0.093818
0.0880865
0.108654
0.108509
0.123645
0.121364
0.138074
0.12286
0.150448
0.110452
0.159508
0.0815148
0.164924
0.0339607
0.166667
-0.0265911
0.164676
-0.0852555
0.15963
-0.128806
0.153063
-0.153692
0.146357
-0.16368
0.139878
-0.164726
0.133985
-0.161822
0.12887
-0.155511
0.122747
-0.147546
0.114159
-0.141764
0.106114
-0.135858
0.104525
-0.112835
0.112053
-0.0639799
0.126183
0.00314485
0.141794
0.0710969
0.154341
0.137761
0.161079
0.211161
0.16205
0.277964
0.15923
0.309582
0.155385
0.258444
0.152042
0.14462
0.150186
-0.0153627
0.150545
-0.132974
0.151088
-0.203158
0.147525
-0.216399
0.139837
-0.224775
0.135203
-0.2615
0.136116
-0.18683
0.140812
-0.129103
0.142482
0.0893838
0.139596
0.217521
0.136827
0.308484
0.135071
0.38398
0.122813
0.155611
-0.0249979
0.150892
-0.0309118
0.145362
-0.035912
0.139266
-0.0403978
0.132849
-0.0445519
0.126239
-0.047819
0.11958
-0.0497978
0.113029
-0.0502994
0.106637
-0.049176
0.100284
-0.0463923
0.0936886
-0.0420982
0.0865791
-0.0365809
0.0790722
-0.0301159
0.0719144
-0.022715
0.066662
-0.0137093
0.0650126
-0.00222986
0.0677566
0.0134402
0.0751102
0.0318914
0.0860916
0.0530119
0.0994314
0.0747468
0.114064
0.0938766
0.129147
0.106281
0.14351
0.108498
0.15556
0.0984016
0.164194
0.07288
0.169014
0.0291412
0.169679
-0.0272556
0.166111
-0.0816882
0.159452
-0.122147
0.151579
-0.145818
0.144079
-0.156181
0.137303
-0.15795
0.131225
-0.155744
0.126217
-0.150504
0.121098
-0.142427
0.113827
-0.134493
0.106032
-0.128063
0.103348
-0.11015
0.109537
-0.0701694
0.123054
-0.0103718
0.139004
0.0551464
0.152701
0.124064
0.161099
0.202762
0.163716
0.275347
0.161866
0.311432
0.158243
0.262067
0.154446
0.148418
0.151588
-0.0125052
0.150819
-0.132204
0.150917
-0.203257
0.147615
-0.213097
0.139875
-0.217034
0.134871
-0.256496
0.135738
-0.187697
0.140803
-0.134168
0.142973
0.087214
0.140176
0.220318
0.13747
0.311189
0.135976
0.385474
0.123923
0.16669
-0.0205824
0.161506
-0.0257279
0.155513
-0.0299184
0.149118
-0.0340029
0.14252
-0.0379546
0.13583
-0.041129
0.129245
-0.0432123
0.122979
-0.0440341
0.117208
-0.0434041
0.11202
-0.0412045
0.107304
-0.0373823
0.102757
-0.0320337
0.0980659
-0.0254251
0.0931632
-0.0178123
0.0885529
-0.00909905
0.0851496
0.0011735
0.0848797
0.0137101
0.0885069
0.0282642
0.096208
0.0453109
0.107222
0.063733
0.120393
0.0807049
0.134481
0.0921936
0.147987
0.0949918
0.15931
0.087079
0.167459
0.0647304
0.171696
0.0249041
0.171278
-0.0268375
0.166177
-0.0765872
0.158094
-0.114064
0.149174
-0.136899
0.141059
-0.148065
0.134142
-0.151033
0.128059
-0.149661
0.123115
-0.145559
0.11884
-0.138152
0.113043
-0.128695
0.105921
-0.120942
0.102364
-0.106593
0.10702
-0.074826
0.119557
-0.0229084
0.135564
0.0391394
0.150323
0.109305
0.160416
0.192669
0.164748
0.271016
0.163931
0.312248
0.160616
0.265382
0.156515
0.152519
0.152822
-0.0088127
0.150946
-0.130328
0.150552
-0.202863
0.147576
-0.210121
0.139877
-0.209334
0.134457
-0.251076
0.135218
-0.188458
0.140673
-0.139623
0.143482
0.0844045
0.140844
0.222956
0.138222
0.313812
0.137049
0.386646
0.124769
0.16901
-0.0164779
0.163838
-0.0205562
0.157912
-0.023992
0.151713
-0.0278038
0.145317
-0.031559
0.138852
-0.034664
0.132556
-0.0369163
0.126684
-0.0381616
0.121497
-0.0382173
0.117173
-0.0368802
0.11374
-0.03395
0.11106
-0.0293531
0.108842
-0.0232074
0.106768
-0.0157387
0.104827
-0.00715762
0.103085
0.00291564
0.102249
0.0145465
0.10391
0.0266023
0.108807
0.040414
0.116994
0.0555463
0.127767
0.0699321
0.139897
0.080063
0.151839
0.0830503
0.162128
0.0767899
0.169724
0.057134
0.173233
0.021395
0.171682
-0.0252866
0.165132
-0.0700367
0.155869
-0.1048
0.146206
-0.127235
0.137659
-0.139519
0.13068
-0.144054
0.124715
-0.143696
0.119793
-0.140638
0.116088
-0.134448
0.111732
-0.124339
0.105639
-0.114849
0.101496
-0.102451
0.104486
-0.0778159
0.115685
-0.0341069
0.131404
0.0234205
0.147128
0.093581
0.159039
0.180758
0.16522
0.264834
0.165417
0.312052
0.162428
0.26837
0.158236
0.156712
0.153914
-0.00449106
0.150972
-0.127386
0.150031
-0.201922
0.147404
-0.207494
0.139848
-0.201778
0.134008
-0.245236
0.134585
-0.189035
0.140388
-0.145426
0.14398
0.0808134
0.141589
0.225347
0.139083
0.316318
0.138292
0.387437
0.125309
0.164582
-0.0131258
0.159809
-0.0157832
0.154674
-0.0188573
0.149235
-0.0223644
0.143542
-0.0258664
0.137841
-0.0289624
0.132344
-0.0314196
0.127238
-0.0330554
0.122702
-0.0336811
0.118916
-0.0330944
0.116071
-0.0311048
0.114287
-0.027569
0.113492
-0.022413
0.113424
-0.0156704
0.113692
-0.00742565
0.114243
0.00236454
0.115568
0.0132217
0.117683
0.024487
0.12159
0.036507
0.12787
0.0492658
0.136361
0.0614411
0.146252
0.0701724
0.156315
0.0729872
0.165301
0.0678037
0.171836
0.0505993
0.174317
0.0189143
0.170922
-0.0218918
0.162955
-0.0620697
0.152935
-0.0947805
0.143023
-0.117323
0.134348
-0.130845
0.127367
-0.137073
0.121565
-0.137893
0.11663
-0.135703
0.113161
-0.130978
0.110003
-0.121181
0.105156
-0.110001
0.100755
-0.0980501
0.102129
-0.0791896
0.111629
-0.043607
0.126676
0.00837318
0.142913
0.0773442
0.156461
0.16721
0.164631
0.256664
0.166018
0.310665
0.163552
0.270836
0.159497
0.160766
0.154811
0.000195125
0.150877
-0.123452
0.149395
-0.20044
0.147107
-0.205206
0.139782
-0.194453
0.133557
-0.239011
0.133881
-0.18936
0.139966
-0.15151
0.144449
0.0763302
0.142401
0.227395
0.140055
0.318665
0.139707
0.387784
0.125492
0.197555
-0.00973917
-0.200941
0.194925
-0.0131536
0.192072
-0.0160045
0.188743
-0.0190352
0.184922
-0.0220448
0.180686
-0.0247265
0.176123
-0.0268567
0.171314
-0.0282463
0.166352
-0.028719
0.161355
-0.028098
0.156461
-0.0262102
0.151794
-0.0229023
0.147446
-0.0180648
0.14346
-0.0116848
0.139924
-0.0038888
0.136747
0.00554068
0.134047
0.015922
0.131922
0.0266124
0.131027
0.0374018
0.132273
0.04802
0.136481
0.0572327
0.143821
0.062833
0.153862
0.0629458
0.166122
0.0555434
0.179256
0.0374659
0.189963
0.00820727
0.195777
-0.0277057
0.195822
-0.0621147
0.191381
-0.0903395
0.184178
-0.110121
0.175661
-0.122327
0.167048
-0.12846
0.158732
-0.129577
0.150576
-0.127547
0.143258
-0.123661
0.136607
-0.11453
0.128633
-0.102027
0.119694
-0.0891115
0.114032
-0.0735268
0.114999
-0.0445741
0.120921
0.00245125
0.127574
0.070691
0.13231
0.162474
0.135223
0.25375
0.138519
0.30737
0.145211
0.264144
0.153298
0.152679
0.158367
-0.00487358
0.159033
-0.124118
0.157345
-0.198753
0.152817
-0.200678
0.144312
-0.185948
0.135669
-0.230368
0.131914
-0.185605
0.132441
-0.152037
0.13223
0.0765416
0.128632
0.230993
0.126202
0.321094
0.127523
0.386463
0.125191
0.206873
-0.00723448
-0.209378
0.204203
-0.0104834
0.201512
-0.0133137
0.19844
-0.0159637
0.194918
-0.0185229
0.191021
-0.0208293
0.186832
-0.0226678
0.182434
-0.023848
0.177923
-0.024208
0.173419
-0.0235943
0.169062
-0.0218524
0.164997
-0.0188378
0.16138
-0.0144473
0.158341
-0.00864586
0.155897
-0.0014451
0.154232
0.00720546
0.153335
0.0168194
0.153216
0.0267314
0.15417
0.0364473
0.156789
0.0454016
0.161662
0.0523597
0.168924
0.0555704
0.178299
0.0535716
0.189151
0.0446915
0.199778
0.0268383
0.207665
0.00032001
0.210653
-0.0306936
0.208695
-0.0601561
0.2029
-0.0845446
0.194857
-0.102078
0.185843
-0.113313
0.176905
-0.119522
0.168475
-0.121146
0.160223
-0.119295
0.152609
-0.116047
0.146007
-0.107928
0.13864
-0.09466
0.129833
-0.080304
0.123197
-0.066891
0.122809
-0.0441858
0.128104
-0.00284377
0.135045
0.0637499
0.140583
0.156936
0.144497
0.249836
0.14901
0.302857
0.157042
0.256112
0.166117
0.143604
0.171409
-0.0101655
0.171372
-0.124081
0.168647
-0.196028
0.163491
-0.195522
0.154336
-0.176793
0.144923
-0.220954
0.140421
-0.181103
0.140941
-0.152557
0.14105
0.0764321
0.137325
0.234719
0.134824
0.323594
0.136614
0.384673
0.124754
0.216024
-0.00531573
-0.217942
0.213648
-0.00810742
0.211056
-0.0107225