/*--------------------------------*- C++ -*----------------------------------*\
| =========                 |                                                 |
| \\      /  F ield         | OpenFOAM: The Open Source CFD Toolbox           |
|  \\    /   O peration     | Version:  2512                                  |
|   \\  /    A nd           | Website:  www.openfoam.com                      |
|    \\/     M anipulation  |                                                 |
\*---------------------------------------------------------------------------*/
FoamFile
{
    version     2.0;
    format      ascii;
    arch        "LSB;label=32;scalar=64";
    class       surfaceScalarField;
    location    "157";
    object      phi;
}
// * * * * * * * * * * * * * * * * * * * * * * * * * * * * * * * * * * * * * //

dimensions      [0 3 -1 0 0 0 0];

oriented        oriented;

internalField   nonuniform List<scalar> 
26232
(
-3.00947e-05
0.00108668
-0.00105658
0.000194339
0.00207458
-0.00229901
0.000921985
0.00206429
-0.00279194
0.00237184
0.00110063
-0.00255049
0.00474934
-0.000811425
-0.00156607
0.00824805
-0.00368521
0.000186499
0.0130439
-0.0075342
0.00273834
0.0192771
-0.0123541
0.00612096
0.0270313
-0.0181055
0.0103512
0.0363106
-0.0247023
0.015423
0.0470204
-0.0320084
0.0212987
0.0589593
-0.039842
0.0279031
0.071824
-0.0479883
0.0351235
0.0852285
-0.056217
0.0428125
0.0987352
-0.0643024
0.0507957
0.111895
-0.0720427
0.0588832
0.12429
-0.0792771
0.0668816
0.135579
-0.0858998
0.0746113
0.145531
-0.091864
0.0819119
0.154033
-0.0971952
0.0886927
0.161122
-0.101924
0.0948356
0.166837
-0.106271
0.100556
0.171147
-0.109852
0.105542
-0.113985
0.111125
0.174006
4.31084e-05
0.00104357
0.000484423
0.00163327
0.00159579
0.000952921
0.00362392
-0.000927497
0.00679691
-0.00398442
0.0113142
-0.00820254
0.0173259
-0.0135458
0.0249043
-0.0199325
0.0340179
-0.0272192
0.0445139
-0.0351983
0.0561168
-0.0436114
0.0684477
-0.0521728
0.0810595
-0.0606
0.0934849
-0.0686424
0.105289
-0.076106
0.116115
-0.0828689
0.125725
-0.0888875
0.134017
-0.0941917
0.141023
-0.0988701
0.146876
-0.103048
0.151807
-0.106856
0.155973
-0.110437
0.159875
-0.113753
-0.117427
0.163318
0.000142735
0.000900835
0.000874365
0.000901636
0.00247956
-0.000652272
0.00521873
-0.00366666
0.009318
-0.00808369
0.0149429
-0.0138275
0.0221638
-0.0207667
0.0309234
-0.0286921
0.0410196
-0.0373154
0.0521131
-0.0462917
0.0637608
-0.0552591
0.0754709
-0.063883
0.0867663
-0.0718954
0.0972454
-0.0791216
0.106629
-0.0854892
0.114782
-0.0910226
0.121717
-0.0958221
0.127561
-0.100036
0.132516
-0.103825
0.13681
-0.107342
0.14065
-0.110696
0.144206
-0.113993
0.147614
-0.117161
-0.120638
0.150825
0.000261408
0.000639427
0.00133589
-0.000172849
0.00351078
-0.00282716
0.00703853
-0.00719442
0.0121072
-0.0131523
0.0187973
-0.0205176
0.0270409
-0.0290103
0.0366015
-0.0382527
0.0470883
-0.0478022
0.0580059
-0.0572093
0.0688284
-0.0660816
0.0790788
-0.0741334
0.088395
-0.0812115
0.0965687
-0.0872953
0.103553
-0.0924733
0.109437
-0.0969065
0.114401
-0.100787
0.118665
-0.104299
0.122438
-0.107599
0.125893
-0.110796
0.129159
-0.113962
0.132309
-0.117142
0.135452
-0.120304
-0.123723
0.138536
0.000394018
0.000245409
0.00184727
-0.00162611
0.00463418
-0.00561407
0.00896896
-0.0115292
0.0149554
-0.0191388
0.0225336
-0.0280957
0.0314509
-0.0379277
0.0412786
-0.0480805
0.0514764
-0.0579999
0.0614865
-0.0672194
0.070829
-0.0754241
0.0791717
-0.0824761
0.0863608
-0.0884006
0.0924096
-0.0933442
0.0974565
-0.0975201
0.101707
-0.101157
0.105378
-0.104458
0.10866
-0.107581
0.111699
-0.110637
0.114594
-0.113692
0.117412
-0.11678
0.12019
-0.119921
0.122981
-0.123095
-0.12645
0.125708
0.000538609
-0.0002932
0.00239272
-0.00348021
0.00579974
-0.0090211
0.010896
-0.0166255
0.0176497
-0.0258924
0.0258147
-0.0362608
0.034941
-0.047054
0.044449
-0.0575884
0.0537441
-0.0672951
0.0623307
-0.075806
0.0698881
-0.0829815
0.0762942
-0.0888822
0.0815997
-0.0937061
0.085971
-0.0977154
0.0896247
-0.101174
0.0927739
-0.104306
0.0955948
-0.107278
0.0982157
-0.110202
0.100722
-0.113143
0.103166
-0.116136
0.105581
-0.119196
0.107988
-0.122327
0.110413
-0.12552
-0.128851
0.112814
0.000693415
-0.000986615
0.00295467
-0.00574147
0.00695063
-0.0130171
0.0126936
-0.0223685
0.0199706
-0.0331694
0.0283329
-0.044623
0.0371693
-0.0558904
0.0458406
-0.0662597
0.0538154
-0.0752698
0.0607593
-0.08275
0.066557
-0.0887792
0.0712751
-0.0936003
0.0750944
-0.0975254
0.0782377
-0.100859
0.0809154
-0.103852
0.083296
-0.106686
0.0854983
-0.109481
0.0875987
-0.112303
0.0896431
-0.115188
0.0916586
-0.118152
0.0936616
-0.121199
0.0956624
-0.124328
0.0976759
-0.127533
-0.130843
0.0996678
0.000854299
-0.00184091
0.00350796
-0.00839513
0.00801657
-0.0175257
0.0142241
-0.028576
0.0217126
-0.040658
0.0298561
-0.0527665
0.0379642
-0.0639985
0.0454466
-0.0737421
0.0519253
-0.0817485
0.0572634
-0.0880881
0.0615239
-0.0930396
0.0648912
-0.0969677
0.0675928
-0.100227
0.0698404
-0.103106
0.0718009
-0.105812
0.0735898
-0.108475
0.0752798
-0.111171
0.0769133
-0.113936
0.0785144
-0.116789
0.0800975
-0.119735
0.0816721
-0.122773
0.0832458
-0.125901
0.0848271
-0.129115
-0.132414
0.0863982
0.00101379
-0.00285471
0.00401902
-0.0114004
0.00891823
-0.0224249
0.0153561
-0.0350138
0.0227198
-0.0480217
0.0302721
-0.0603188
0.0373426
-0.071069
0.0434761
-0.0798756
0.0484826
-0.0867551
0.0523989
-0.0920043
0.0554026
-0.0960433
0.057724
-0.0992891
0.0595803
-0.102083
0.0611425
-0.104669
0.0625284
-0.107198
0.0638106
-0.109758
0.0650307
-0.112391
0.0662118
-0.115117
0.0673671
-0.117944
0.0685053
-0.120873
0.0696325
-0.123901
0.0707541
-0.127023
0.0718748
-0.130235
-0.133525
0.0729858
0.00116174
-0.00401644
0.00444989
-0.0146885
0.00957943
-0.0275544
0.0159886
-0.0414229
0.0229151
-0.0549482
0.0295976
-0.0670013
0.0354702
-0.0769417
0.0402527
-0.0846581
0.0439275
-0.0904299
0.0466508
-0.0947276
0.0486518
-0.0980443
0.0501561
-0.100793
0.051344
-0.103271
0.0523404
-0.105665
0.0532222
-0.10808
0.0540326
-0.110568
0.0547951
-0.113153
0.0555225
-0.115845
0.056223
-0.118645
0.0569024
-0.121552
0.0575654
-0.124563
0.0582162
-0.127674
0.0588579
-0.130877
-0.134156
0.0594896
0.00128735
-0.00530379
0.00476552
-0.0181667
0.00994184
-0.0327307
0.0160694
-0.0475505
0.0223065
-0.0611854
0.0279512
-0.072646
0.0325916
-0.081582
0.0361191
-0.0881856
0.038645
-0.0929558
0.0403888
-0.0964714
0.0415843
-0.0992399
0.042426
-0.101635
0.0430511
-0.103896
0.0435445
-0.106158
0.0439541
-0.108489
0.044305
-0.110919
0.0446106
-0.113459
0.044879
-0.116113
0.0451157
-0.118882
0.0453252
-0.121762
0.0455111
-0.124749
0.0456763
-0.127839
0.0458216
-0.131022
-0.134284
0.0459494
0.00138375
-0.00668754
0.00494265
-0.0217256
0.0099759
-0.037764
0.0155999
-0.0531745
0.0209728
-0.0665583
0.0255124
-0.0771856
0.0289728
-0.0850425
0.0313858
-0.0905986
0.0329422
-0.0945122
0.0338792
-0.0974084
0.0344083
-0.0997689
0.034684
-0.101911
0.0348046
-0.104017
0.0348252
-0.106179
0.0347749
-0.108439
0.0346683
-0.110812
0.0345134
-0.113304
0.0343158
-0.115916
0.03408
-0.118646
0.0338098
-0.121492
0.0335087
-0.124448
0.0331791
-0.127509
0.0328208
-0.130664
0.0324387
-0.133902
-0.000191387
0.00153287
-0.00134148
-0.000684033
0.00434422
-0.00385157
-0.00143661
0.00695975
-0.00620718
-0.00241616
0.00932499
-0.00834544
-0.00358917
0.0114191
-0.0102461
-0.00491848
0.0132664
-0.0119371
-0.00636348
0.0149229
-0.013478
-0.00788185
0.0164575
-0.0149391
-0.00943148
0.0179338
-0.0163841
-0.0109715
0.019398
-0.017858
-0.012462
0.0208731
-0.0193827
-0.0138625
0.0223575
-0.020957
-0.0151305
0.0238275
-0.0225595
-0.0162191
0.0252401
-0.0241515
-0.0170758
0.0265359
-0.0256791
-0.0176423
0.0276406
-0.0270741
-0.0178543
0.0284667
-0.0282546
-0.0176434
0.0289148
-0.0291257
-0.0169389
0.0288766
-0.0295812
-0.0156746
0.028243
-0.0295072
-0.0137803
0.0268944
-0.0287887
-0.0111975
0.0247319
-0.0273147
-0.00788943
0.0216754
-0.0249834
0.0177431
-0.00387691
-0.0217556
-8.83062e-05
0.00162118
-0.000338088
0.004594
-0.000745303
0.00736697
-0.0013018
0.00988149
-0.00199099
0.0121083
-0.00278466
0.0140601
-0.00364381
0.0157821
-0.00452139
0.0173351
-0.0053658
0.0187782
-0.00612371
0.020156
-0.00674172
0.0214911
-0.00716597
0.0227817
-0.00734288
0.0240044
-0.00721685
0.0251141
-0.00673035
0.0260494
-0.0058242
0.0267344
-0.00443893
0.0270814
-0.00251712
0.026993
-5.2765e-06
0.0263648
0.00315279
0.0250849
0.00699242
0.0230547
0.0115502
0.0201741
0.0168554
0.0163702
0.0116355
0.022963
9.79392e-06
0.00161138
-8.73963e-07
0.00460467
-5.61128e-05
0.0074222
-0.000168108
0.00999349
-0.000333706
0.0122739
-0.000533594
0.01426
-0.000732472
0.015981
-0.000881623
0.0174842
-0.000923071
0.0188196
-0.000793733
0.0200266
-0.000428725
0.0211261
0.000235643
0.0221174
0.00126379
0.0229762
0.00271756
0.0236603
0.0046567
0.0241103
0.00713803
0.0242531
0.0102138
0.0240056
0.0139299
0.0232769
0.0183233
0.0219715
0.0234164
0.0199918
0.0292288
0.0172423
0.0357737
0.0136292
0.0430422
0.00910161
0.00351396
0.0511638
8.95313e-05
0.00152185
0.000284404
0.00440979
0.000545468
0.00716114
0.000851347
0.00968761
0.00119575
0.0119295
0.00159043
0.0138653
0.00206561
0.0155058
0.00266792
0.0168819
0.00345658
0.018031
0.00449879
0.0189844
0.00586534
0.0197596
0.00762767
0.020355
0.00985405
0.0207498
0.0126092
0.0209052
0.0159524
0.0207671
0.0199362
0.0202692
0.0246053
0.0193365
0.0299947
0.0178875
0.0361291
0.0158371
0.0430223
0.0130986
0.0506752
0.00958947
0.0591091
0.00519524
0.0682582
-4.75023e-05
-0.00667001
0.0784422
0.000141586
0.00138027
0.000484388
0.00406699
0.000990644
0.00665488
0.00163969
0.00903856
0.00242389
0.0111453
0.00335116
0.012938
0.00444664
0.0144103
0.00575203
0.0155765
0.0073228
0.0164602
0.00922404
0.0170832
0.0115259
0.0174577
0.0142996
0.0175814
0.0176137
0.0174358
0.0215319
0.016987
0.0261112
0.0161878
0.031401
0.0149794
0.0374427
0.0132948
0.0442699
0.0110602
0.0519109
0.00819605
0.0603874
0.0046221
0.069673
0.000303955
0.0799004
-0.0050322
0.0909068
-0.0110539
-0.0188667
0.103104
0.000160614
0.00121965
0.000578357
0.00364925
0.00123221
0.00600103
0.00211336
0.00815741
0.00322049
0.0100382
0.00456265
0.0115958
0.00616207
0.0128109
0.008055
0.0136836
0.0102904
0.0142248
0.0129269
0.0144466
0.0160294
0.0143552
0.0196649
0.0139459
0.0238994
0.0132013
0.0287959
0.0120905
0.034413
0.0105707
0.0408046
0.00858782
0.0480236
0.00607588
0.0561144
0.00296937
0.0651278
-0.000817317
0.0751188
-0.00536892
0.0861557
-0.0107329
0.0982577
-0.0171342
0.111292
-0.0240878
-0.0333318
0.125757
0.000146273
0.00107338
0.000562837
0.00323268
0.00125822
0.00530565
0.00224426
0.00717137
0.00353285
0.00874956
0.00513969
0.00998901
0.0070882
0.0108624
0.00941191
0.0113599
0.012155
0.0114818
0.0153709
0.0112307
0.0191207
0.0106053
0.0234705
0.00959617
0.0284893
0.00818238
0.034249
0.00633091
0.0408234
0.00399628
0.0482813
0.0011299
0.0567116
-0.00235442
0.0661899
-0.00650897
0.0767886
-0.011416
0.0885684
-0.0171487
0.101567
-0.0237313
0.115793
-0.0313606
0.131054
-0.0393482
-0.0498186
0.14754
0.000103788
0.00096959
0.000454336
0.00288214
0.00109873
0.00466125
0.00207548
0.00619462
0.0034153
0.00740974
0.0051464
0.00825791
0.00729993
0.00870886
0.00991398
0.00874584
0.0130361
0.00835965
0.0167242
0.00754257
0.0210465
0.006283
0.0260812
0.00456149
0.0319148
0.00234874
0.0386406
-0.000394825
0.0463599
-0.00372306
0.055178
-0.00768821
0.065178
-0.0123544
0.0764431
-0.0177741
0.0890186
-0.0239915
0.102893
-0.031023
0.118008
-0.0388468
0.134149
-0.0475014
0.151138
-0.0563367
-0.0671297
0.168449
4.44346e-05
0.000925155
0.000290621
0.00263595
0.000829172
0.0041227
0.00172918
0.00529461
0.00304542
0.00609351
0.00482612
0.0064772
0.00712017
0.00641481
0.00998285
0.00588316
0.0134799
0.00486256
0.01769
0.00333253
0.0227045
0.00126845
0.028627
-0.00136095
0.0355683
-0.00459261
0.0436413
-0.00846785
0.0529468
-0.0130285
0.063568
-0.0183094
0.0755462
-0.0243326
0.08887
-0.0310978
0.103454
-0.0385755
0.119117
-0.0466861
0.135604
-0.0553334
0.152444
-0.0643419
0.169456
-0.0733489
-0.0831255
0.185452
-1.50616e-05
0.000940217
0.00012779
0.0024931
0.00056374
0.00368675
0.00139553
0.00446282
0.00270833
0.00478071
0.00458013
0.0046054
0.00709032
0.00390462
0.010326
0.00264747
0.0143856
0.000802994
0.0193787
-0.00166064
0.025423
-0.00477578
0.0326353
-0.00857323
0.0411208
-0.0130782
0.0509579
-0.0183049
0.06218
-0.0242506
0.0747599
-0.0308894
0.0885934
-0.0381661
0.10349
-0.0459943
0.119164
-0.0542496
0.135255
-0.0627774
0.151313
-0.0713914
0.166825
-0.0798534
0.181479
-0.0880028
-0.0957445
0.194098
-5.54234e-05
0.000995641
2.95319e-05
0.00240814
0.000431865
0.00328442
0.00129112
0.00360357
0.00272955
0.00334227
0.00486409
0.00247086
0.00781388
0.000954831
0.0117042
-0.00124281
0.0166644
-0.00415722
0.022821
-0.00781727
0.0302852
-0.01224
0.0391362
-0.0174243
0.0494033
-0.0233452
0.061048
-0.0299496
0.0739503
-0.0371529
0.087901
-0.0448401
0.102602
-0.0528674
0.117679
-0.0610713
0.132696
-0.0692668
0.147214
-0.0772953
0.160771
-0.0849484
0.1731
-0.0921817
0.183841
-0.0987441
-0.104523
0.19262
-6.09428e-05
4.81854e-05
0.000540666
0.00159374
0.00336994
0.0060273
0.00972047
0.0145986
0.0207926
0.0283984
0.0374571
0.047936
0.0597143
0.0725771
0.0862199
0.100263
0.114277
0.127817
0.140462
0.15186
0.161747
0.170121
0.176918
0.183521
0.00190699
0.0171424
-0.0229263
0.00809934
0.00642511
-0.0126175
0.0147079
-0.00694634
0.00033774
0.0217293
-0.0227117
0.0156904
0.0289187
-0.0404253
0.0332358
0.0361561
-0.0593747
0.0521373
0.0431585
-0.0785131
0.0715107
0.0495784
-0.0964634
0.0900435
0.0549518
-0.111871
0.106498
0.0586676
-0.12379
0.120074
0.0600719
-0.132139
0.130735
0.0588955
-0.137815
0.138991
0.0558997
-0.142075
0.145071
0.0531778
-0.144834
0.147556
0.0534436
-0.143105
0.142839
0.0585134
-0.131684
0.126614
0.0682294
-0.106332
0.0966158
0.0810409
-0.0666737
0.0538622
0.095305
-0.0164853
0.00222124
0.109492
0.037796
-0.051983
0.122259
0.0879691
-0.100736
0.132308
0.127127
-0.137176
0.138966
0.152835
-0.159492
0.142543
0.16662
-0.170197
0.143682
0.172079
-0.173217
0.142233
0.175088
-0.173639
0.137655
0.182798
-0.17822
0.130895
0.195203
-0.188444
0.12505
0.198843
-0.192997
0.12335
0.173239
-0.171539
0.126846
0.109739
-0.113235
0.134351
0.020715
-0.0282204
0.143018
-0.0684132
0.0597461
0.15051
-0.137498
0.130006
0.15566
-0.180063
0.174914
0.158165
-0.198134
0.195628
0.157095
-0.206523
0.207593
0.151576
-0.215466
0.220985
0.143013
-0.228506
0.237068
0.135286
-0.220213
0.227941
0.132237
-0.172231
0.175279
0.134902
-0.0823151
0.0796496
0.141623
0.0256086
-0.0323289
0.149337
0.113133
-0.120847
0.154001
0.183692
-0.188357
0.152754
0.221814
-0.220567
0.146552
0.266518
-0.260316
0.139692
0.2643
-0.25744
0.137294
0.22032
-0.217922
0.140579
0.115585
-0.11887
0.146438
-0.0220382
0.0161792
0.149456
-0.103225
0.100208
0.147524
-0.227825
0.229757
0.143857
-0.25042
0.254087
0.142293
-0.298676
0.30024
0.142881
-0.22917
0.228582
0.143464
-0.0645597
0.0639768
0.142836
0.00609099
-0.00546224
0.140878
0.285169
-0.283212
0.245204
-0.243462
0.0285916
0.0115139
0.0343581
0.000658547
0.0402162
-0.0128044
0.0460819
-0.0285774
0.0518398
-0.0461832
0.0573887
-0.0649236
0.0625537
-0.083678
0.0670685
-0.100978
0.0705652
-0.115368
0.0725813
-0.125806
0.0724891
-0.132047
0.0696574
-0.134983
0.0640642
-0.136482
0.0571746
-0.137945
0.0520014
-0.137932
0.0517185
-0.131401
0.0577235
-0.112337
0.0690515
-0.0780018
0.0837304
-0.0311642
0.0995822
0.0219442
0.114664
0.0728869
0.127256
0.114535
0.136413
0.143677
0.142234
0.160799
0.145126
0.169187
0.144949
0.175265
0.141582
0.186165
0.136335
0.20045
0.132022
0.203156
0.131094
0.174168
0.134149
0.106684
0.140362
0.0145016
0.147205
-0.0752559
0.152786
-0.143079
0.156103
-0.18338
0.157146
-0.199177
0.155179
-0.204556
0.14912
-0.209406
0.14003
-0.219416
0.131835
-0.212018
0.128755
-0.169151
0.132133
-0.0856927
0.140073
0.0176679
0.149004
0.104203
0.15449
0.178206
0.153816
0.222488
0.148083
0.272251
0.141403
0.27098
0.138805
0.222918
0.141538
0.112851
0.147074
-0.027574
0.149935
-0.106086
0.147793
-0.225683
0.143951
-0.246579
0.14223
-0.296955
0.142741
-0.229681
0.143077
-0.0648951
0.142348
0.00681967
0.140406
0.287111
0.246948
0.0561488
0.00652884
0.0613256
-0.00451828
0.0663285
-0.0178073
0.0710469
-0.0332958
0.0753871
-0.0505234
0.0792772
-0.0688136
0.0825735
-0.0869743
0.0850448
-0.103449
0.0864161
-0.116739
0.0864207
-0.125811
0.0847717
-0.130398
0.0809458
-0.131157
0.0743029
-0.129839
0.0651206
-0.128762
0.0557222
-0.128534
0.0499621
-0.125641
0.0510174
-0.113392
0.0594144
-0.0863987
0.0732539
-0.0450037
0.0900491
0.00514904
0.106959
0.0559766
0.121885
0.0996099
0.133537
0.132025
0.141685
0.152651
0.146463
0.16441
0.14781
0.173919
0.146002
0.187973
0.142522
0.203929
0.139724
0.205954
0.139348
0.174544
0.141727
0.104304
0.146249
0.00997986
0.151159
-0.0801655
0.154799
-0.146719
0.156338
-0.184919
0.155997
-0.198837
0.15328
-0.201839
0.146931
-0.203058
0.137547
-0.210031
0.128949
-0.20342
0.125712
-0.165914
0.129616
-0.0895968
0.138579
0.00870488
0.148627
0.0941555
0.154971
0.171861
0.155011
0.222448
0.149893
0.277369
0.143462
0.277412
0.140618
0.225763
0.142687
0.110782
0.147808
-0.0326949
0.150521
-0.108799
0.148167
-0.223329
0.144098
-0.242511
0.142195
-0.295051
0.142684
-0.230171
0.14283
-0.065041
0.142017
0.00763287
0.14009
0.289038
0.24868
0.0829687
0.00200231
0.0875916
-0.00914111
0.0918799
-0.0220957
0.0956171
-0.037033
0.0987009
-0.0536071
0.101051
-0.0711641
0.102499
-0.088422
0.102841
-0.103791
0.101921
-0.11582
0.0996947
-0.123584
0.0962164
-0.12692
0.0914076
-0.126348
0.0846591
-0.123091
0.0752128
-0.119316
0.0637795
-0.1171
0.053628
-0.11549
0.0491852
-0.108949
0.0530978
-0.0903113
0.0646299
-0.0565359
0.0812275
-0.0114485
0.0992569
0.0379472
0.116161
0.0827056
0.130201
0.117985
0.140694
0.142157
0.14748
0.157624
0.150592
0.170807
0.150631
0.187935
0.149074
0.205486
0.14775
0.207278
0.147718
0.174576
0.149235
0.102787
0.151915
0.00729975
0.154815
-0.0830653
0.156538
-0.148442
0.156381
-0.184762
0.154726
-0.197182
0.151353
-0.198467
0.144926
-0.19663
0.135507
-0.200612
0.126618
-0.194532
0.123112
-0.162407
0.127297
-0.0937823
0.137083
-0.00108123
0.148151
0.0830877
0.155405
0.164607
0.15631
0.221544
0.151959
0.28172
0.145854
0.283517
0.142732
0.228885
0.144033
0.10948
0.148629
-0.0372901
0.151191
-0.111361
0.148633
-0.220771
0.144288
-0.238167
0.142171
-0.292933
0.14269
-0.23069
0.142713
-0.0650642
0.141832
0.00851439
0.139927
0.290943
0.250383
0.107919
-0.00281311
0.112108
-0.0133299
0.115821
-0.0258086
0.11871
-0.0399219
0.120626
-0.0555234
0.121434
-0.0719721
0.120959
-0.0879474
0.119101
-0.101933
0.115898
-0.112616
0.111509
-0.119195
0.106188
-0.121599
0.100203
-0.120362
0.0934285
-0.116317
0.0849418
-0.11083
0.0739318
-0.10609
0.0617858
-0.103344
0.0526797
-0.099843
0.0511509
-0.0887825
0.0587846
-0.0641696
0.0734658
-0.0261298
0.0917558
0.0196571
0.110087
0.0643743
0.126224
0.101848
0.138953
0.129428
0.147801
0.148776
0.152868
0.165739
0.154974
0.185829
0.155478
0.204981
0.155611
0.207145
0.155834
0.174354
0.156311
0.10231
0.157227
0.00638378
0.158081
-0.0839196
0.157936
-0.148297
0.156189
-0.183014
0.153313
-0.194306
0.149366
-0.19452
0.143034
-0.190298
0.133837
-0.191416
0.124816
-0.185511
0.120939
-0.15853
0.125155
-0.0979976
0.135519
-0.0114462
0.147508
0.0710995
0.155731
0.156384
0.157655
0.219619
0.154223
0.285152
0.148534
0.289206
0.14513
0.232289
0.14556
0.10905
0.149519
-0.0412495
0.151918
-0.11376
0.149173
-0.218025
0.144515
-0.233508
0.142143
-0.290562
0.142739
-0.231286
0.142712
-0.0650367
0.141781
0.00944491
0.139914
0.29281
0.252035
0.130322
-0.00737829
0.134274
-0.0172816
0.137446
-0.0289813
0.139442
-0.0419181
0.140104
-0.0561854
0.139273
-0.0711405
0.136808
-0.0854822
0.132748
-0.0978735
0.127347
-0.107216
0.121001
-0.112849
0.114124
-0.114722
0.107085
-0.113324
0.100096
-0.109328
0.0927062
-0.10344
0.0836174
-0.0970014
0.0722248
-0.0919511
0.0607974
-0.0884157
0.0541952
-0.0821804
0.056435
-0.0664094
0.0676056
-0.0373004
0.0847505
0.00251226
0.10368
0.0454448
0.121425
0.0841032
0.136143
0.11471
0.147018
0.137901
0.154156
0.158602
0.158468
0.181517
0.161116
0.202333
0.162727
0.205534
0.163226
0.173855
0.162762
0.102775
0.161953
0.00719204
0.160865
-0.0828308
0.158926
-0.146357
0.155717
-0.179806
0.151728
-0.190317
0.147269
-0.190061
0.141155
-0.184184
0.132417
-0.182677
0.123456
-0.176549
0.119165
-0.15424
0.123141
-0.101974
0.133821
-0.0221258
0.146614
0.0583067
0.155865
0.147132
0.158963
0.216521
0.156604
0.287511
0.151425
0.294385
0.147751
0.235963
0.14725
0.109551
0.150457
-0.0444558
0.15267
-0.115974
0.149767
-0.215122
0.144772
-0.228514
0.1421
-0.28789
0.142811
-0.231996
0.142809
-0.065035
0.141852
0.0104015
0.140044
0.294618
0.253606
0.151339
-0.011177
0.154579
-0.0205215
0.156725
-0.0311272
0.157384
-0.0425775
0.156432
-0.0552327
0.153715
-0.0684236
0.149172
-0.0809399
0.143001
-0.0917023
0.13563
-0.0998445
0.127624
-0.104842
0.119539
-0.106638
0.111784
-0.105568
0.104606
-0.10215
0.0979638
-0.096797
0.0909819
-0.0900194
0.0821652
-0.0831344
0.071408
-0.0776585
0.0618653
-0.0726377
0.0585897
-0.0631338
0.0645477
-0.0432583
0.0786997
-0.0116397
0.0969897
0.0271549
0.115622
0.0654712
0.131971
0.0983601
0.14477
0.125102
0.154017
0.149355
0.160607
0.174927
0.165423
0.197517
0.168511
0.202445
0.169384
0.172982
0.168199
0.10396
0.165958
0.00943314
0.163057
-0.0799294
0.159434
-0.142735
0.154912
-0.175284
0.149939
-0.185344
0.145015
-0.185137
0.139192
-0.178361
0.131101
-0.174586
0.122414
-0.167863
0.117723
-0.149549
0.121216
-0.105466
0.131914
-0.0328241
0.145381
0.0448402
0.155711
0.136802
0.16013
0.212101
0.15899
0.288652
0.154428
0.298946
0.150531
0.239861
0.149057
0.111025
0.151418
-0.0468168
0.153409
-0.117965
0.15039
-0.212103
0.145056
-0.22318
0.142033
-0.284866
0.142884
-0.232847
0.142987
-0.0651383
0.142032
0.0113572
0.140314
0.296336
0.255062
0.170766
-0.0134945
0.17242
-0.0221755
0.172757
-0.0314634
0.171485
-0.0413059
0.168537
-0.0522844
0.163779
-0.0636657
0.157255
-0.0744163
0.149298
-0.083745
0.140437
-0.0909841
0.131293
-0.0956975
0.122453
-0.0977978
0.114344
-0.0974598
0.107179
-0.0949849
0.101013
-0.0906312
0.0955217
-0.084528
0.0895144
-0.0771271
0.0815667
-0.0697108
0.0722387
-0.0633096
0.0653102
-0.0562053
0.0655125
-0.0434607
0.0746183
-0.0207455
0.0904435
0.0113296
0.108789
0.0471257
0.126201
0.0809479
0.140737
0.110566
0.152082
0.138009
0.160971
0.166038
0.167958
0.190531
0.172564
0.197839
0.173917
0.171629
0.172351
0.105526
0.16892
0.0128638
0.164533
-0.0755422
0.159386
-0.137588
0.15371
-0.169607
0.147897
-0.179531
0.142552
-0.179793
0.137044
-0.172852
0.129736
-0.167278
0.12153
-0.159657
0.11651
-0.144529
0.119315
-0.108272
0.129757
-0.0432658
0.143726
0.030871
0.155165
0.125364
0.161029
0.206237
0.161246
0.288435
0.157424
0.302768
0.153372
0.243913
0.150935
0.113461
0.152371
-0.0482526
0.154097
-0.119691
0.151014
-0.20902
0.145361
-0.217527
0.141932
-0.281438
0.142939
-0.233854
0.143229
-0.0654281
0.142304
0.0122814
0.140716
0.297925
0.256363
0.185817
-0.0138594
0.185349
-0.0217079
0.183443
-0.0295569
0.180054
-0.0379165
0.175147
-0.0473775
0.168612
-0.0571313
0.160593
-0.0663973
0.151486
-0.0746375
0.141827
-0.0813254
0.132205
-0.0860754
0.123152
-0.088745
0.115057
-0.0893647
0.108114
-0.0880414
0.102364
-0.084882
0.0977364
-0.0799
0.0937003
-0.073091
0.0889296
-0.0649402
0.082284
-0.0566639
0.0749361
-0.0488575
0.0708839
-0.0394084
0.0741216
-0.0239833
0.0853349
0.000116424
0.101546
0.0309144
0.118938
0.0635565
0.134753
0.094751
0.14808
0.124682
0.159281
0.154837
0.168474
0.181337
0.17463
0.191684
0.176619
0.169639
0.174949
0.107197
0.170801
0.0170114
0.165193
-0.0699338
0.158687
-0.131082
0.152006
-0.162926
0.145517
-0.173043
0.139804
-0.17408
0.134602
-0.16765
0.128165
-0.160841
0.120624
-0.152116
0.115392
-0.139297
0.117389
-0.110269
0.127303
-0.0531797
0.141581
0.0165928
0.154123
0.112823
0.161538
0.198822
0.16325
0.286723
0.160278
0.305739
0.156176
0.248015
0.152821
0.116817
0.153281
-0.0487128
0.154691
-0.121101
0.151603
-0.205932
0.145675
-0.211599
0.141786
-0.277548
0.142954
-0.235021
0.143514
-0.0659882
0.142656
0.0131394
0.141245
0.299336
0.257465
0.192885
-0.012647
0.19055
-0.0193721
0.186777
-0.0257844
0.181812
-0.0329514
0.175582
-0.0411474
0.168013
-0.0495621
0.159313
-0.0576976
0.149864
-0.0651881
0.14014
-0.0716022
0.130654
-0.0765889
0.121855
-0.079946
0.114069
-0.0815789
0.10748
-0.0814522
0.102148
-0.07955
0.0980717
-0.0758238
0.0951197
-0.0701391
0.0926363
-0.0624568
0.0893075
-0.0533351
0.0843406
-0.0438906
0.0793085
-0.0343763
0.0780042
-0.022679
0.0835428
-0.0054222
0.0955188
0.0189384
0.111117
0.0479588
0.127182
0.078686
0.14204
0.109824
0.155358
0.14152
0.166698
0.169996
0.174535
0.183847
0.177419
0.166755
0.175981
0.108635
0.171595
0.0213972
0.165004
-0.0633426
0.157276
-0.123355
0.149716
-0.155366
0.142725
-0.166052
0.136718
-0.168072
0.131785
-0.162717
0.126264
-0.15532
0.119548
-0.1454
0.114234
-0.133983
0.115366
-0.111401
0.124517
-0.0623307
0.138896
0.00221356
0.152498
0.0992204
0.161513
0.189808
0.164822
0.283414
0.162849
0.307712
0.158815
0.25205
0.154661
0.120971
0.154116
-0.0481676
0.155155
-0.122141
0.152128
-0.202904
0.145989
-0.20546
0.141596
-0.273156
0.142914
-0.23634
0.143826
-0.0669001
0.143071
0.0138943
0.141894
0.300513
0.258321
0.190749
-0.0107767
0.18742
-0.0160425
0.182816
-0.0211804
0.17728
-0.0274158
0.170665
-0.0345329
0.162986
-0.0418825
0.154463
-0.0491745
0.14541
-0.0561352
0.136223
-0.0624154
0.127327
-0.0676928
0.119093
-0.0717125
0.111797
-0.0742831
0.105614
-0.0752685
0.100633
-0.0745693
0.0968847
-0.0720755
0.0943725
-0.067627
0.0929792
-0.0610634
0.0920638
-0.0524197
0.0903757
-0.0422025
0.0873896
-0.0313902
0.0848264
-0.0201158
0.0860777
-0.00667356
0.0927884
0.0122277
0.104639
0.036108
0.119219
0.064106
0.134569
0.0944742
0.14965
0.126439
0.163162
0.156484
0.172628
0.174381
0.176439
0.162945
0.175781
0.109293
0.171408
0.0257698
0.164222
-0.0561564
0.155421
-0.114554
0.147086
-0.147031
0.139734
-0.1587
0.13349
-0.161828
0.128711
-0.157939
0.124058
-0.150667
0.118273
-0.139616
0.112986
-0.128696
0.113209
-0.111624
0.121388
-0.0705094
0.135612
-0.0120101
0.150207
0.0846246
0.160905
0.17911
0.165929
0.27839
0.165025
0.308617
0.161207
0.255867
0.156402
0.125776
0.154886
-0.0466515
0.155479
-0.122734
0.152581
-0.200007
0.146291
-0.199169
0.14138
-0.268245
0.142826
-0.237785
0.144154
-0.0682277
0.143535
0.0145131
0.142661
0.301387
0.25888
0.181577
-0.0088327
0.177992
-0.0124575
0.173688
-0.0168766
0.16856
-0.0222878
0.162463
-0.0284361
0.155545
-0.034964
0.147989
-0.0416183
0.140026
-0.0481731
0.13197
-0.0543585
0.124155
-0.0598782
0.116884
-0.0644415
0.110388
-0.0677876
0.104817
-0.0696974
0.10025
-0.0700021
0.0967361
-0.0685615
0.0943345
-0.0652254
0.0931111
-0.0598401
0.0929647
-0.0522733
0.0932508
-0.0424885
0.0929072
-0.0310466
0.091727
-0.0189357
0.0911407
-0.00608726
0.0941549
0.00921354
0.101566
0.028697
0.11284
0.052832
0.126665
0.0806489
0.141879
0.111225
0.156554
0.141809
0.167618
0.163317
0.173402
0.157161
0.174436
0.108259
0.170934
0.0292716
0.16296
-0.0481817
0.153246
-0.10484
0.144357
-0.138142
0.136815
-0.151158
0.130392
-0.155405
0.125597
-0.153144
0.121647
-0.146717
0.116828
-0.134796
0.111662
-0.12353
0.110993
-0.110954
0.118146
-0.0776627
0.131832
-0.0256964
0.147175
0.0692823
0.159398
0.166886
0.166221
0.271567
0.166585
0.308253
0.163201
0.259251
0.157993
0.130984
0.15555
-0.0442087
0.155647
-0.12283
0.152951
-0.197311
0.146561
-0.192779
0.14116
-0.262844
0.142711
-0.239337
0.144499
-0.0700155
0.144042
0.0149702
0.143537
0.301892
0.25909
0.209704
-0.00721382
-0.211323
0.208795
-0.0115483
0.207627
-0.015708
0.205921
-0.0205817
0.203538
-0.0260538
0.20044
-0.0318652
0.196624
-0.0378031
0.1921
-0.0436485
0.186912
-0.0491711
0.181156
-0.054122
0.174955
-0.0582406
0.168447
-0.0612796
0.161771
-0.0630207
0.155055
-0.063286
0.148421
-0.0619275
0.141987
-0.0587915
0.135879
-0.0537324
0.130245
-0.0466387
0.125048
-0.0372922
0.119758
-0.0257567
0.113723
-0.0129004
0.107223
0.000413021
0.101533
0.014903
0.0985152
0.0317151
0.0991258
0.0522214
0.10341
0.0763647
0.110873
0.103761
0.120821
0.131862
0.133748
0.150389
0.151034
0.139876
0.169915
0.0893771
0.183157
0.0160301
0.188283
-0.053308
0.185824
-0.102382
0.179209
-0.131526
0.170851
-0.142801
0.162017
-0.146571
0.153922
-0.14505
0.146614
-0.139408
0.138662
-0.126844
0.129887
-0.114755
0.123777
-0.104844
0.123607
-0.0774933
0.128442
-0.0305308
0.134259
0.0634648
0.138581
0.162564
0.141646
0.268502
0.144873
0.305026
0.149265
0.254858
0.153251
0.126998
0.155945
-0.0469027
0.157314
-0.124198
0.154133
-0.194131
0.146718
-0.185364
0.139415
-0.25554
0.136486
-0.236408
0.13467
-0.0681998
0.131329
0.0183111
0.130317
0.302904
0.258676
0.21884
-0.00600132
-0.220052
0.217505
-0.0102135
0.216198
-0.0144004
0.214446
-0.0188304
0.212059
-0.0236667
0.209009
-0.028815
0.205289
-0.0340831
0.200907
-0.0392666
0.1959
-0.0441639
0.190344
-0.0485656
0.184351
-0.0522479
0.17806
-0.0549883
0.171617
-0.0565785
0.165168
-0.0568368
0.158848
-0.0556072
0.152784
-0.0527273
0.147082
-0.0480311
0.141864
-0.0414203
0.137254
-0.0326829
0.133103
-0.0216049
0.12876
-0.00855736
0.123685
0.00548807
0.118459
0.0201285
0.114449
0.0357256
0.113371
0.0532991
0.1163
0.0734358
0.123304
0.0967571
0.134092
0.121074
0.149407
0.135073
0.168948
0.120335
0.187785
0.0705399
0.199835
0.00398055
0.202807
-0.0562798
0.198595
-0.0981695
0.190641
-0.123573
0.181496
-0.133655
0.172178
-0.137253
0.16363
-0.136501
0.156168
-0.131946
0.148461
-0.119137
0.139671
-0.105966
0.132908
-0.0980813
0.131929
-0.0765136
0.136494
-0.0350958
0.142709
0.0572496
0.147788
0.157485
0.151917
0.264372
0.156332
0.300612
0.161676
0.249514
0.165964
0.122709
0.168213
-0.0491512
0.168899
-0.124885
0.165177
-0.190408
0.156981
-0.177168
0.14862
-0.247179
0.145388
-0.233177
0.143464
-0.0662753
0.139834
0.0219407
0.138931
0.303807
0.258033
0.227517
-0.00518259
-0.228336
0.226319
-0.00901553
0.224894
-0.0129746
0.223097
-0.0170339
0.220761
-0.0213306
0.217813
-0.0258673
0.214244
-0.0305141
0.210068
-0.0350907
0.205319
-0.0394145
0.200057
-0.043304
0.194378
-0.0465681
0.1884
-0.0490106
0.18226
-0.0504387
0.176097