/*--------------------------------*- C++ -*----------------------------------*\
| =========                 |                                                 |
| \\      /  F ield         | OpenFOAM: The Open Source CFD Toolbox           |
|  \\    /   O peration     | Version:  2512                                  |
|   \\  /    A nd           | Website:  www.openfoam.com                      |
|    \\/     M anipulation  |                                                 |
\*---------------------------------------------------------------------------*/
FoamFile
{
    version     2.0;
    format      ascii;
    arch        "LSB;label=32;scalar=64";
    class       volScalarField;
    location    "144";
    object      p;
}
// * * * * * * * * * * * * * * * * * * * * * * * * * * * * * * * * * * * * * //

dimensions      [0 2 -2 0 0 0 0];

internalField   nonuniform List<scalar> 
13248
(
-0.398796
-0.396694
-0.393408
-0.38925
-0.384652
-0.38008
-0.375951
-0.372595
-0.370219
-0.368875
-0.368449
-0.368675
-0.369158
-0.369428
-0.368992
-0.367401
-0.364296
-0.359446
-0.352745
-0.344229
-0.333838
-0.321837
-0.307005
-0.290331
-0.407623
-0.404815
-0.400967
-0.396385
-0.391449
-0.386573
-0.382095
-0.378244
-0.375109
-0.372627
-0.370596
-0.368703
-0.366569
-0.363812
-0.360098
-0.355179
-0.348917
-0.341272
-0.332281
-0.322013
-0.310521
-0.29787
-0.283815
-0.269258
-0.41884
-0.415014
-0.410417
-0.405299
-0.399935
-0.39465
-0.389667
-0.385075
-0.38083
-0.376773
-0.372666
-0.368232
-0.363208
-0.357384
-0.350629
-0.342897
-0.334207
-0.324624
-0.314222
-0.303075
-0.291207
-0.278722
-0.265437
-0.251995
-0.432322
-0.427231
-0.42172
-0.415941
-0.410004
-0.404108
-0.398324
-0.392585
-0.38674
-0.380597
-0.373971
-0.36672
-0.358763
-0.350089
-0.34074
-0.330794
-0.320335
-0.309442
-0.298172
-0.286568
-0.274657
-0.26251
-0.250043
-0.237861
-0.447917
-0.441384
-0.434834
-0.428265
-0.421557
-0.414741
-0.407721
-0.400304
-0.392305
-0.383601
-0.374162
-0.364038
-0.35334
-0.342207
-0.330774
-0.319155
-0.30743
-0.295645
-0.283825
-0.271979
-0.260115
-0.248259
-0.236372
-0.224814
-0.465442
-0.457364
-0.449692
-0.442192
-0.434442
-0.42627
-0.417442
-0.407727
-0.397026
-0.385396
-0.373021
-0.360145
-0.347013
-0.333834
-0.320756
-0.307865
-0.295202
-0.282773
-0.270565
-0.258561
-0.246752
-0.235133
-0.223685
-0.212632
-0.484622
-0.474965
-0.466116
-0.457504
-0.44833
-0.438229
-0.426922
-0.414284
-0.400433
-0.385681
-0.370425
-0.355041
-0.339826
-0.324977
-0.310598
-0.296725
-0.283348
-0.270435
-0.257945
-0.245841
-0.23409
-0.222667
-0.211562
-0.200849
-0.505015
-0.493813
-0.483733
-0.473748
-0.462642
-0.449934
-0.435461
-0.419371
-0.402099
-0.384218
-0.366273
-0.348684
-0.331719
-0.31551
-0.300093
-0.285445
-0.271512
-0.258229
-0.245536
-0.233373
-0.221695
-0.210462
-0.19966
-0.189254
-0.525949
-0.5133
-0.501907
-0.490188
-0.476536
-0.460518
-0.442292
-0.422415
-0.401669
-0.380824
-0.360478
-0.341007
-0.322593
-0.305282
-0.289036
-0.27378
-0.259422
-0.245873
-0.23305
-0.220881
-0.209304
-0.198273
-0.187755
-0.177635
-0.546497
-0.532548
-0.519712
-0.505798
-0.488947
-0.469006
-0.446645
-0.422901
-0.398842
-0.375332
-0.352921
-0.331884
-0.31229
-0.294097
-0.277201
-0.261482
-0.246819
-0.2331
-0.220225
-0.208107
-0.196672
-0.185865
-0.175624
-0.165802
-0.565502
-0.55042
-0.53594
-0.519305
-0.498647
-0.474347
-0.447722
-0.420253
-0.393192
-0.367379
-0.343249
-0.320941
-0.300413
-0.281541
-0.264165
-0.248129
-0.233285
-0.219502
-0.206665
-0.194673
-0.183442
-0.172902
-0.162952
-0.153464
-0.58169
-0.565668
-0.549314
-0.529422
-0.504426
-0.475486
-0.444618
-0.413674
-0.383963
-0.356213
-0.330699
-0.307412
-0.286201
-0.266867
-0.249204
-0.23302
-0.218146
-0.204432
-0.191749
-0.179987
-0.169054
-0.158863
-0.149289
-0.140267
-0.356786
-0.357881
-0.358536
-0.359074
-0.359856
-0.361073
-0.36283
-0.365177
-0.368136
-0.371719
-0.375936
-0.380792
-0.386288
-0.392403
-0.399086
-0.406244
-0.41373
-0.421334
-0.428776
-0.43571
-0.441716
-0.446354
-0.449162
-0.449831
-0.363695
-0.363851
-0.363968
-0.364222
-0.364864
-0.366091
-0.368028
-0.370745
-0.374284
-0.378675
-0.383946
-0.390126
-0.39723
-0.405249
-0.414135
-0.423784
-0.434022
-0.444588
-0.455126
-0.465237
-0.47429
-0.481711
-0.486787
-0.488845
-0.370005
-0.369245
-0.368805
-0.368712
-0.369113
-0.370211
-0.372153
-0.375029
-0.378895
-0.383797
-0.389773
-0.396857
-0.405072
-0.414406
-0.424806
-0.43615
-0.448235
-0.460761
-0.473317
-0.485376
-0.496283
-0.50529
-0.511503
-0.513895
-0.375257
-0.373704
-0.372718
-0.372213
-0.372251
-0.373042
-0.374761
-0.37752
-0.381395
-0.386439
-0.392697
-0.400201
-0.408966
-0.418971
-0.430146
-0.442348
-0.455347
-0.468807
-0.482274
-0.495166
-0.506757
-0.516182
-0.522659
-0.524332
-0.379213
-0.377066
-0.37559
-0.374622
-0.37417
-0.374462
-0.375706
-0.378047
-0.381583
-0.386384
-0.392494
-0.399941
-0.408727
-0.418813
-0.430108
-0.442446
-0.455569
-0.469111
-0.482579
-0.495338
-0.50667
-0.515492
-0.521447
-0.521509
-0.381856
-0.379365
-0.37749
-0.376032
-0.374987
-0.374607
-0.375144
-0.376786
-0.379666
-0.383875
-0.389466
-0.39646
-0.404845
-0.414564
-0.425499
-0.437457
-0.450149
-0.463153
-0.475964
-0.487884
-0.498189
-0.505533
-0.510154
-0.507771
-0.383382
-0.380812
-0.378645
-0.376702
-0.375
-0.37383
-0.373493
-0.374231
-0.376223
-0.379589
-0.384398
-0.390673
-0.398389
-0.407465
-0.417753
-0.428999
-0.440886
-0.452968
-0.464629
-0.475077
-0.483654
-0.488763
-0.491162
-0.485764
-0.384182
-0.381757
-0.379404
-0.377002
-0.374633
-0.372633
-0.371355
-0.3711
-0.372098
-0.374508
-0.378421
-0.383861
-0.39079
-0.399081
-0.408549
-0.41891
-0.429722
-0.440436
-0.45039
-0.458708
-0.464775
-0.466975
-0.466304
-0.457734
-0.384805
-0.382667
-0.380199
-0.377379
-0.374382
-0.371596
-0.369423
-0.368218
-0.368262
-0.36975
-0.37279
-0.377399
-0.383509
-0.390959
-0.399457
-0.408608
-0.417887
-0.426652
-0.434191
-0.43965
-0.442489
-0.441388
-0.437283
-0.425922
-0.38592
-0.384085
-0.381523
-0.378328
-0.374785
-0.371328
-0.368401
-0.366401
-0.365643
-0.366342
-0.368603
-0.37242
-0.377655
-0.384049
-0.391212
-0.398632
-0.405697
-0.41173
-0.416056
-0.418026
-0.417289
-0.413079
-0.406185
-0.393132
-0.388237
-0.386581
-0.383884
-0.38035
-0.37636
-0.372384
-0.36889
-0.366289
-0.364905
-0.36494
-0.366461
-0.369391
-0.373505
-0.378434
-0.383685
-0.388669
-0.392751
-0.395317
-0.395834
-0.393967
-0.389622
-0.382776
-0.37425
-0.361317
-0.392389
-0.390665
-0.387735
-0.383877
-0.37953
-0.375178
-0.371286
-0.368248
-0.366351
-0.365745
-0.366421
-0.368208
-0.370781
-0.373683
-0.376371
-0.378268
-0.378823
-0.377584
-0.37422
-0.368641
-0.360813
-0.35122
-0.340376
-0.32824
-0.448006
-0.439823
-0.422967
-0.401299
-0.373015
-0.339901
-0.304497
-0.269856
-0.238945
-0.214672
-0.199358
-0.194331
-0.199168
-0.210881
-0.223908
-0.231236
-0.228034
-0.211478
-0.183608
-0.151716
-0.123124
-0.102225
-0.0902417
-0.086342
-0.0892856
-0.0994261
-0.118338
-0.14395
-0.166877
-0.174341
-0.163175
-0.138043
-0.109981
-0.0872342
-0.0726812
-0.0652676
-0.0640916
-0.0708169
-0.0848079
-0.0976441
-0.0991239
-0.0894177
-0.0744812
-0.0622293
-0.0542784
-0.0517755
-0.056109
-0.0629234
-0.0647949
-0.0607036
-0.0519548
-0.0448543
-0.0381056
-0.0334839
-0.032013
-0.0308761
-0.02777
-0.0238716
-0.0147385
-0.00280447
-0.488794
-0.479544
-0.461588
-0.435899
-0.402643
-0.363513
-0.321318
-0.279373
-0.240936
-0.208885
-0.18555
-0.17238
-0.169654
-0.175527
-0.185456
-0.192931
-0.191229
-0.180309
-0.158786
-0.133341
-0.110451
-0.0943165
-0.0863444
-0.0858663
-0.0919514
-0.105479
-0.128133
-0.157171
-0.182133
-0.189443
-0.175583
-0.147028
-0.115634
-0.0899524
-0.0727962
-0.063099
-0.0595903
-0.0635998
-0.0748834
-0.0860252
-0.0878907
-0.0799125
-0.0679822
-0.0586724
-0.0534228
-0.0533719
-0.0603681
-0.0694484
-0.0718447
-0.0667407
-0.0556324
-0.0466878
-0.0379296
-0.031474
-0.0286296
-0.0264652
-0.0239687
-0.0206616
-0.0131566
-0.00277709
-0.514997
-0.505586
-0.486153
-0.45771
-0.420721
-0.376936
-0.329351
-0.281464
-0.23681
-0.198396
-0.168438
-0.148319
-0.138526
-0.138233
-0.144318
-0.151497
-0.154568
-0.146063
-0.130668
-0.111849
-0.0949318
-0.0838499
-0.0800851
-0.0830825
-0.0922522
-0.108898
-0.134748
-0.166603
-0.193406
-0.201223
-0.185245
-0.153965
-0.119833
-0.0916848
-0.0722622
-0.0605119
-0.0548616
-0.0562794
-0.0648821
-0.074325
-0.0764519
-0.0701969
-0.0611609
-0.0546778
-0.0521384
-0.0546212
-0.0643468
-0.075754
-0.0787086
-0.0725405
-0.0590381
-0.0482584
-0.0376442
-0.0295024
-0.0253432
-0.0221175
-0.0201623
-0.017411
-0.0115647
-0.0027567
-0.525654
-0.516302
-0.49643
-0.466739
-0.427678
-0.381063
-0.330037
-0.278254
-0.229302
-0.186183
-0.151021
-0.125122
-0.109094
-0.102664
-0.104009
-0.109163
-0.112904
-0.109631
-0.100492
-0.0881277
-0.0771085
-0.071055
-0.0713694
-0.0776084
-0.0894991
-0.108712
-0.137116
-0.171337
-0.199966
-0.208554
-0.191747
-0.158638
-0.122476
-0.092439
-0.0711852
-0.057677
-0.0501383
-0.0491816
-0.0552162
-0.06296
-0.0651852
-0.0605153
-0.0541639
-0.0503118
-0.0504043
-0.0554001
-0.0678513
-0.0816277
-0.0852102
-0.0779928
-0.0621238
-0.0495448
-0.037237
-0.0275782
-0.0221892
-0.0178735
-0.0163903
-0.0141503
-0.00997651
-0.00274646
-0.521769
-0.511836
-0.492575
-0.463484
-0.424338
-0.377161
-0.32524
-0.272096
-0.221146
-0.175269
-0.136461
-0.105945
-0.0844284
-0.0720789
-0.0680572
-0.0698467
-0.0733749
-0.0738269
-0.0697385
-0.063174
-0.0576054
-0.0561732
-0.0601331
-0.069178
-0.0832994
-0.104487
-0.134827
-0.171016
-0.201441
-0.211347
-0.19487
-0.160998
-0.123622
-0.0923126
-0.0696872
-0.0547555
-0.0456213
-0.0425582
-0.0461831
-0.0522624
-0.0544373
-0.0511114
-0.0471318
-0.0456276
-0.0481843
-0.0555863
-0.0707005
-0.0868414
-0.0911359
-0.082968
-0.0648455
-0.0505358
-0.0367002
-0.0257062
-0.0191974
-0.0137717
-0.01269
-0.0109086
-0.00840366
-0.00274944
-0.505339
-0.494052
-0.476302
-0.449386
-0.412028
-0.366559
-0.316317
-0.264432
-0.213933
-0.167447
-0.126802
-0.0930951
-0.0670478
-0.0491646
-0.039421
-0.0366315
-0.0381545
-0.0401996
-0.0398183
-0.0381297
-0.0372099
-0.0396416
-0.0466217
-0.0579437
-0.0737889
-0.0963671
-0.127994
-0.165679
-0.197846
-0.20956
-0.194535
-0.161033
-0.12335
-0.0914058
-0.06787
-0.0518551
-0.0414257
-0.0365756
-0.0380099
-0.0424938
-0.044497
-0.0421998
-0.0401987
-0.0406846
-0.0454638
-0.0550866
-0.0727278
-0.0911671
-0.0962825
-0.0873517
-0.0671672
-0.0512248
-0.0360237
-0.0238841
-0.0163912
-0.00984553
-0.00909334
-0.00771226
-0.00685424
-0.0027676
-0.479403
-0.466097
-0.450407
-0.42676
-0.392711
-0.350914
-0.304534
-0.256105
-0.208175
-0.163043
-0.122332
-0.0870346
-0.0578164
-0.0352898
-0.0199687
-0.0117782
-0.0095198
-0.0106877
-0.0122263
-0.0140662
-0.0166999
-0.0221054
-0.0313766
-0.0443757
-0.0614219
-0.0848359
-0.117146
-0.155794
-0.189598
-0.203536
-0.190853
-0.158822
-0.121763
-0.0898184
-0.0658129
-0.0490444
-0.0376122
-0.0312907
-0.0308055
-0.0338084
-0.0355597
-0.0339708
-0.0334991
-0.0355729
-0.0422612
-0.0538349
-0.0737963
-0.0944153
-0.100479
-0.0910484
-0.0690562
-0.0516089
-0.0352035
-0.0221053
-0.0137797
-0.00612012
-0.00562649
-0.00458445
-0.00533328
-0.00280281
-0.446852
-0.431531
-0.41838
-0.398559
-0.36882
-0.332139
-0.291155
-0.247666
-0.20376
-0.161434
-0.122103
-0.0866731
-0.0557784
-0.0300043
-0.0100145
0.00360437
0.0108067
0.0126302
0.0109933
0.00806939
0.00326321
-0.00416755
-0.0149775
-0.0290637
-0.0468523
-0.0706837
-0.10318
-0.142308
-0.177496
-0.193791
-0.184147
-0.15452
-0.118951
-0.0876208
-0.0635644
-0.0463592
-0.0342064
-0.0267219
-0.0246025
-0.0262597
-0.0277187
-0.0265668
-0.0271668
-0.0304014
-0.0386234
-0.0518152
-0.073811
-0.0964536
-0.103598
-0.0939764
-0.0704887
-0.0516915
-0.0342511
-0.0203771
-0.0113676
-0.00260926
-0.00230976
-0.00154545
-0.00384337
-0.00285753
-0.41082
-0.394594
-0.384328
-0.368174
-0.34308
-0.312223
-0.277331
-0.239441
-0.200257
-0.161518
-0.124483
-0.0900118
-0.0587516
-0.0312485
-0.00810781
0.00995812
0.0222428
0.0285508
0.0297534
0.0274308
0.021993
0.0136159
0.00202404
-0.0126142
-0.030788
-0.0548021
-0.0872485
-0.126481
-0.162609
-0.18104
-0.174912
-0.148434
-0.115139
-0.085008
-0.0612865
-0.0439258
-0.0312999
-0.0229182
-0.0194333
-0.0198739
-0.0209957
-0.0200658
-0.0213161
-0.0253007
-0.0346042
-0.0490199
-0.0727466
-0.0972163
-0.105548
-0.0960886
-0.0714793
-0.0515062
-0.0332014
-0.0187282
-0.00919631
0.000674552
0.000844191
0.00138742
-0.00238505
-0.00293479
-0.37533
-0.360127
-0.352517
-0.339112
-0.31836
-0.293243
-0.264299
-0.231941
-0.19754
-0.162574
-0.128193
-0.0952795
-0.0645255
-0.0364768
-0.0117002
0.00926566
0.0256486
0.0366314
0.0419993
0.0425887
0.0383426
0.0304036
0.0188403
0.00411109
-0.0141896
-0.0382308
-0.0703435
-0.109212
-0.145867
-0.1658
-0.163799
-0.141128
-0.110843
-0.0824577
-0.0593785
-0.04204
-0.0290968
-0.0199825
-0.0153176
-0.0146487
-0.0154197
-0.01453
-0.0160458
-0.0203567
-0.0303096
-0.0455777
-0.0706033
-0.0966575
-0.106266
-0.0973606
-0.0720642
-0.0511206
-0.0320892
-0.017163
-0.00731749
0.0036859
0.00382328
0.00420064
-0.000957674
-0.00303849
-0.344202
-0.332214
-0.326258
-0.314368
-0.297397
-0.27746
-0.253936
-0.226803
-0.197058
-0.165866
-0.134272
-0.103213
-0.0733351
-0.0452056
-0.0194513
0.00334652
0.0225466
0.0374518
0.0474168
0.0523372
0.050594
0.0448584
0.0345317
0.020403
0.00232117
-0.0216261
-0.0536084
-0.0922591
-0.128736
-0.150126
-0.151038
-0.132447
-0.105873
-0.0797989
-0.057659
-0.0404892
-0.0273733
-0.0176954
-0.0119918
-0.0102993
-0.0108197
-0.0100213
-0.0115879
-0.0157748
-0.0257138
-0.041388
-0.0675153
-0.0949494
-0.105674
-0.0976056
-0.0720822
-0.0504787
-0.0308245
-0.0155785
-0.00560474
0.006399
0.00659836
0.00687506
0.000446227
-0.00317243
-0.317317
-0.311
-0.304611
-0.292494
-0.278023
-0.261885
-0.242752
-0.220292
-0.195033
-0.167761
-0.139317
-0.110535
-0.0821663
-0.0548813
-0.029325
-0.00606239
0.0143774
0.0314541
0.0447276
0.0529563
0.0570697
0.0544937
0.0465959
0.0340268
0.0169147
-0.00621083
-0.0371471
-0.0744161
-0.109817
-0.125178
-0.133906
-0.119999
-0.0975992
-0.074375
-0.0537891
-0.0373597
-0.0245868
-0.0148903
-0.00859806
-0.00610962
-0.00643386
-0.00593041
-0.00762398
-0.0117043
-0.0213304
-0.0369614
-0.0634735
-0.0917956
-0.103823
-0.0965428
-0.0710536
-0.049167
-0.0290889
-0.0137779
-0.00370167
0.00906915
0.00922708
0.00939846
0.0018144
-0.00334799
-0.289651
-0.296631
-0.288087
-0.273818
-0.258931
-0.243342
-0.225528
-0.204802
-0.181459
-0.156231
-0.129899
-0.103177
-0.0766972
-0.0510433
-0.026771
-0.004379
0.0157001
0.0330368
0.046997
0.0568296
0.0624243
0.0626634
0.0572822
0.0465345
0.03054
0.00767364
-0.0245388
-0.0644721
-0.102545
-0.131863
-0.124501
-0.10928
-0.0880178
-0.0665815
-0.0476804
-0.0325079
-0.0205569
-0.0113212
-0.00502661
-0.00214408
-0.00212188
-0.00138616
-0.00213418
-0.00595432
-0.0151465
-0.0309711
-0.0586122
-0.0891433
-0.103061
-0.0961963
-0.0695263
-0.047193
-0.0269965
-0.0119033
-0.00167513
0.0118652
0.0118305
0.0119125
0.00316657
-0.00359305
-0.261486
-0.272168
-0.264764
-0.250079
-0.235144
-0.220539
-0.204546
-0.186076
-0.165214
-0.142629
-0.119022
-0.0949739
-0.0709945
-0.0475808
-0.0252322
-0.0044069
0.014496
0.0311422
0.0450567
0.0553734
0.061969
0.0637621
0.0601483
0.0511014
0.0364967
0.0144502
-0.0174823
-0.0565983
-0.0921602
-0.113062
-0.109169
-0.0952788
-0.0767501
-0.0582081
-0.0415917
-0.0279328
-0.0169782
-0.00833192
-0.00217091
0.000910149
0.00108894
0.00174255
0.000895192
-0.00202644
-0.0105674
-0.0260513
-0.0540592
-0.0857845
-0.100353
-0.0936024
-0.0669223
-0.0446098
-0.0246542
-0.00992017
0.00025063
0.0140651
0.0139294
0.0140849
0.00435314
-0.00377737
-0.236058
-0.246911
-0.241265
-0.227817
-0.213736
-0.200331
-0.186106
-0.169801
-0.151295
-0.131138
-0.109963
-0.0882812
-0.0665263
-0.0451334
-0.0245536
-0.00521448
0.0124986
0.0282701
0.0417159
0.0519931
0.0587208
0.0611087
0.0584048
0.0503738
0.03672
0.015709
-0.0140614
-0.0487903
-0.0787072
-0.0950024
-0.0928724
-0.0814372
-0.0660355
-0.0503136
-0.0358243
-0.0235716
-0.0135408
-0.00549159
0.000438386
0.00365027
0.00399241
0.00459727
0.00372494
0.00113023
-0.00716921
-0.0223947
-0.0499269
-0.0812182
-0.0958534
-0.0896898
-0.0636501
-0.041641
-0.0221312
-0.00783343
0.00214685
0.0160867
0.0158481
0.0160491
0.00548439
-0.00388024
-0.212961
-0.222916
-0.218807
-0.207121
-0.194254
-0.181957
-0.169193
-0.154752
-0.138356
-0.120412
-0.101484
-0.0820282
-0.0624172
-0.0430172
-0.0242204
-0.00641746
0.0100285
0.0247864
0.0373886
0.04726
0.0539187
0.0566479
0.0546546
0.0475716
0.0350807
0.0159833
-0.0100563
-0.0393086
-0.0640174
-0.0773366
-0.0766956
-0.067986
-0.0556033
-0.0425654
-0.0301553
-0.0193135
-0.0102129
-0.00279588
0.00282401
0.00611554
0.00667073
0.00731962
0.00654591
0.0041725
-0.00396605
-0.0187811
-0.0450753
-0.075359
-0.090122
-0.0846637
-0.0596716
-0.0382881
-0.0194103
-0.00563404
0.00400638
0.0179497
0.0176369
0.0178659
0.00662645
-0.00390665
-0.191267
-0.20057
-0.197646
-0.187626
-0.176092
-0.164936
-0.153517
-0.140777
-0.126343
-0.110483
-0.0936711
-0.0763158
-0.0587421
-0.0412605
-0.0242132
-0.0079594
0.00714994
0.0207716
0.0324635
0.0417765
0.0482207
0.0511534
0.0498462
0.0438973
0.0330591
0.0166706
-0.00509182
-0.0291142
-0.0493143
-0.0605757
-0.0613279
-0.0553045
-0.0457753
-0.0352155
-0.024744
-0.0152526
-0.00704882
-0.000258352
0.0049979
0.00831422
0.00909721
0.00985736
0.00927287
0.00718516
-0.000539421
-0.0145119
-0.0391859
-0.0683755
-0.0830979
-0.0784245
-0.0549491
-0.0345635
-0.016523
-0.00334552
0.0058238
0.0196098
0.0192589
0.0195395
0.00779046
-0.0038534
-0.171374
-0.180001
-0.177884
-0.169315
-0.159143
-0.149189
-0.139066
-0.127887
-0.115253
-0.101319
-0.0864728
-0.0710768
-0.0554206
-0.0397725
-0.0244304
-0.00971876
0.00403301
0.0164919
0.0272608
0.0359372
0.0420744
0.0451277
0.0444907
0.0397838
0.0308222
0.017321
-0.000281213
-0.0195062
-0.0358237
-0.0456235
-0.0475512
-0.0438484
-0.0367833
-0.028377
-0.0196456
-0.0114226
-0.00407964
0.00210912
0.00696856
0.0102555
0.0112588
0.0122093
0.0118699
0.0101517
0.0031387
-0.00966608
-0.0325196
-0.0603059
-0.0747755
-0.0710196
-0.0495124
-0.0305039
-0.0135091
-0.000996869
0.00759634
0.0210309
0.0206734
0.0210337
0.00895561
-0.00370248
-0.153341
-0.161054
-0.159518
-0.152249
-0.1434
-0.134645
-0.125758
-0.116005
-0.105001
-0.0928307
-0.0798014
-0.0662295
-0.052373
-0.0384657
-0.0247644
-0.0115552
0.000857557
0.0121585
0.0219933
0.0299993
0.035784
0.0388991
0.0388627
0.0353452
0.0282254
0.0174723
0.00362544
-0.0114411
-0.0244218
-0.0330779
-0.0357675
-0.0338163
-0.0287348
-0.0221345
-0.0149229
-0.00786409
-0.00133817
0.00428989
0.0087455
0.0119603
0.0131689
0.0143827
0.0143528
0.0130468
0.00693773
-0.00451826
-0.0252551
-0.0512477
-0.0653279
-0.0626025
-0.0434404
-0.0261626
-0.0104158
0.00137479
0.00932909
0.0221872
0.0218541
0.0223104
0.010112
-0.00342608
-0.136696
-0.143599
-0.142574
-0.136465
-0.128839
-0.12122
-0.113489
-0.105036
-0.0955104
-0.0849466
-0.0735892
-0.0617076
-0.049529
-0.0372578
-0.0251147
-0.0133489
-0.00223626
0.00793115
0.01684
0.0241694
0.0295795
0.0327052
0.0331739
0.0307249
0.0252983
0.0169846
0.00628804
-0.0053856
-0.0153131
-0.0230283
-0.0260139
-0.0252458
-0.0216755
-0.0165406
-0.0106208
-0.0046042
0.0011542
0.00626747
0.0103397
0.0134523
0.0148453
0.0163684
0.0167326
0.0158587
0.0107858
0.000844729
-0.0175186
-0.0414646
-0.0550384
-0.0534074
-0.036868
-0.0216128
-0.00729587
0.00372757
0.0110381
0.0230668
0.022798
0.0233497
0.0112709
-0.00298807
-0.121396
-0.12765
-0.127043
-0.121934
-0.115405
-0.108834
-0.102169
-0.0949009
-0.0867117
-0.0776057
-0.0677758
-0.0574489
-0.0468225
-0.0360742
-0.0253951
-0.0150011
-0.00513455
0.00394364
0.0119573
0.0186235
0.0236534
0.0267526
0.027638
0.0261147
0.0221553
0.015886
0.00774519
-0.00130734
-0.00991217
-0.0153857
-0.0181562
-0.0180737
-0.0155941
-0.011614
-0.00676812
-0.00166244
0.00338537
0.00802493
0.0117558
0.0147508
0.0163087
0.0181466
0.0190027
0.0186236
0.0147313
0.0063981
-0.00956779
-0.0313609
-0.0442944
-0.0437489
-0.0299861
-0.0169462
-0.00420318
0.0060187
0.0127475
0.0236866
0.023537
0.0241536
0.012455
-0.00234347
-0.107554
-0.113134
-0.112821
-0.108574
-0.103031
-0.0974166
-0.0917244
-0.0855284
-0.0785425
-0.0707514
-0.0623069
-0.0533988
-0.044197
-0.0348551
-0.0255365
-0.0164271
-0.00773614
0.000310558
0.00747236
0.0135021
0.0181573
0.0212015
0.0224186
0.0216645
0.0189315
0.0143515
0.0083066
0.00149849
-0.00498788
-0.0094937
-0.0119223
-0.0121739
-0.0104434
-0.00734885
-0.00337935
0.000948453
0.0053519
0.00955021
0.0129878
0.0158681
0.0175775
0.0196908
0.0211195
0.0213989
0.0188205
0.0120042
-0.00180688
-0.0214472
-0.0335694
-0.034015
-0.0230325
-0.012271
-0.00118917
0.00821018
0.014478
0.024102
0.0241455
0.0247458
0.0136903
-0.00144269
-0.0949791
-0.0998954
-0.0998177
-0.0963287
-0.091666
-0.0869122
-0.0820947
-0.0768586
-0.0709484
-0.0643353
-0.0571376
-0.0495134
-0.0416076
-0.0335514
-0.0254834
-0.0175622
-0.00996454
-0.00288101
0.00347975
0.00890642
0.013196
0.0161585
0.0176287
0.0175005
0.0157804
0.0125892
0.00824464
0.0032879
-0.00148468
-0.00504066
-0.00704768
-0.00740099
-0.00615571
-0.00372069
-0.000454011
0.00322229
0.00705582
0.0108406
0.0140234
0.0168039
0.0186579
0.0209705
0.0229932
0.0241185
0.0228848
0.0173302
0.00527509
-0.012244
-0.0233441
-0.0246109
-0.0162671
-0.00770902
0.00169968
0.0102727
0.0162287
0.0244042
0.0247334
0.0251746
0.0149965
-0.000249404
-0.0834883
-0.0878537
-0.0879805
-0.0851465
-0.0812553
-0.0772636
-0.0732229
-0.0688377
-0.063881
-0.0583144
-0.0522295
-0.0457569
-0.0390189
-0.0321268
-0.0251963
-0.0183599
-0.0117677
-0.00557966
3.7448e-05
0.0049004
0.00883758
0.0116959
0.0133497
0.0137219
0.0128228
0.0107578
0.00778339
0.00431498
0.000910768
-0.00175062
-0.00329905
-0.00360568
-0.00265046
-0.000691417
0.00202153
0.00515995
0.00850139
0.0119014
0.0148539
0.0175413
0.0195346
0.0219743
0.0245171
0.0264357
0.0263819
0.0218129
0.0112237
-0.00411802
-0.0140119
-0.0159088
-0.00994377
-0.0033896
0.00442125
0.0121833
0.0179563
0.0247036
0.0254145
0.0255084
0.0163628
0.00122565
-0.0730979
-0.076965
-0.0772311
-0.074948
-0.0717292
-0.0684092
-0.0650531
-0.0614157
-0.0572966
-0.0526522
-0.0475518
-0.0421025
-0.0364068
-0.0305571
-0.0246505
-0.0187971
-0.013122
-0.00776041
-0.00281982
0.00152121
0.00512052
0.00785542
0.00962886
0.0103857
0.0101373
0.00897052
0.00708817
0.00480188
0.00248273
0.000616244
-0.000471394
-0.000643768
0.000159541
0.00178636
0.0040715
0.00677009
0.00969381
0.0127409
0.0154793
0.0180654
0.0201706
0.0226542
0.0252647
0.0279373
0.0286688
0.0249015
0.0157613
0.00272996
-0.00587377
-0.00822002
-0.00427815
0.000565903
0.00693761
0.0139156
0.0195619
0.0250958
0.0262559
0.02581
0.0177141
0.0028834
-0.0637474
-0.0671251
-0.0674791
-0.06566
-0.0630253
-0.0602942
-0.0575367
-0.0545501
-0.0511598
-0.04732
-0.0430822
-0.0385331
-0.0337576
-0.0288326
-0.0238381
-0.0188647
-0.0140181
-0.00941585
-0.00507826
-0.00121815
0.00205538
0.00464711
0.0064822
0.00752162
0.00777402
0.00730378
0.00626783
0.00488834
0.00345612
0.00227009
0.00161311
0.00161868
0.0023635
0.00376653
0.0057271
0.008069
0.0106403
0.0133676
0.0159049
0.0183705
0.020536
0.0230033
0.0256626
0.0284106
0.0294689
0.0264255
0.0188327
0.0081563
0.0008324
-0.00175665
0.000589378
0.00406557
0.00921778
0.0154322
0.0208997
0.0255981
0.0272157
0.0261048
0.018895
0.00451218
-0.055284
-0.0582417
-0.0586561
-0.057229
-0.0550929
-0.0528686
-0.0506271
-0.0482011
-0.045439
-0.0422946
-0.0388053
-0.0350402
-0.0310689
-0.0269544
-0.0227608
-0.0185622
-0.0144491
-0.0105287
-0.00673634
-0.00332623
-0.000370964
0.00205851
0.00390378
0.00513365
0.00575345
0.0058164
0.00543392
0.00475537
0.00400392
0.00338202
0.00310957
0.00330472
0.00404909
0.00530691
0.0070242
0.00907808
0.0113526
0.0137918
0.0161362
0.0184594
0.0206157
0.0229874
0.0254931
0.0279711
0.0290257
0.0266334
0.0205734
0.0121129
0.0060161
0.00341317
0.00461258
0.00705948
0.0112337
0.0166898
0.0218275
0.0260878
0.0281064
0.0263431
0.0196982
0.00583404
-0.0476438
-0.050238
-0.0507078
-0.0495981
-0.0478778
-0.0460812
-0.0442791
-0.042332
-0.0401072
-0.0375585
-0.034712
-0.0316229
-0.0283472
-0.0249348
-0.0214352
-0.0179039
-0.0144075
-0.0110087
-0.00779829
-0.00483146
-0.00219147
5.75121e-05
0.00186671
0.00320981
0.00408691
0.00453845
0.00464472
0.00449988
0.00426576
0.00409457
0.00414821
0.00452396
0.00529956
0.00646613
0.0080016
0.00982255
0.0118472
0.0140276
0.0161825
0.0183401
0.020413
0.0226209
0.02485
0.0269116
0.0277953
0.0259501
0.0212621
0.0147413
0.00978885
0.00736923
0.00782601
0.00953611
0.0129477
0.0176465
0.022284
0.0263247
0.0286123
0.0263465
0.0199223
0.00663805
-0.0407782
-0.0430407
-0.0435345
-0.0427002
-0.0413308
-0.0398896
-0.0384562
-0.0369122
-0.0351414
-0.0330986
-0.0308
-0.0282886
-0.0256088
-0.0227996
-0.0198996
-0.0169508
-0.0140025
-0.0111076
-0.00837177
-0.00580291
-0.00346335
-0.00140572
0.000329663
0.00172272
0.00276663
0.00348753
0.00393538
0.00418651
0.00434502
0.00452357
0.0048402
0.0053735
0.00619221
0.00730125
0.00869982
0.0103312
0.0121436
0.0140913
0.0160558
0.0180316
0.0199654
0.0219569
0.023864
0.0255042
0.0261747
0.0247728
0.0212286
0.0163215
0.0123906
0.0102805
0.0103074
0.0115092
0.0143124
0.018263
0.0223012
0.0260761
0.0284158
0.0258443
0.0194413
0.00688583
-0.034608
-0.0365711
-0.0370714
-0.0364601
-0.0353963
-0.0342683
-0.0331377
-0.0319208
-0.0305255
-0.0289059
-0.0270693
-0.0250476
-0.0228757
-0.0205836
-0.0181999
-0.0157547
-0.0132824
-0.0108166
-0.008516
-0.00630755
-0.0042501
-0.0023899
-0.000760836
0.000634021
0.00177052
0.00266328
0.00334651
0.00387423
0.00431847
0.00475747
0.0052765
0.00593704
0.00679707
0.00786718
0.0091595
0.0106343
0.0122633
0.0140022
0.0157777
0.0175636
0.0193202
0.021071
0.0226661
0.0239474
0.024428
0.0233837
0.0207567
0.017142
0.0140823
0.0123307
0.0121462
0.0130035
0.0152903
0.0185197
0.0219191
0.0252143
0.0273273
0.0246545
0.01828
0.00668416
-0.0290611
-0.030763
-0.0312596
-0.0308284
-0.0300136
-0.0291424
-0.0282751
-0.0273395
-0.0262513
-0.0249781
-0.0235247
-0.0219144
-0.0201719
-0.0183201
-0.016381
-0.0143775
-0.0123384
-0.010294
-0.00832376
-0.00641846
-0.00461567
-0.00295356
-0.00148241
-9.61813e-05
0.00107688
0.0020654
0.00289586
0.00360613
0.0042448
0.00486644
0.00553139
0.00628576
0.00717664
0.00821536
0.00942023
0.0107624
0.0122306
0.0137825
0.0153753
0.0169706
0.0185307
0.0200458
0.0213649
0.0223657
0.0227074
0.0219533
0.0200382
0.0174272
0.0150927
0.0136954
0.0134315
0.0140499
0.0158754
0.0184247
0.0211881
0.0237967
0.0254538
0.0228298
0.0166157
0.00618047
-0.0240869
-0.0255594
-0.0260423
-0.0257544
-0.0251432
-0.0244831
-0.0238289
-0.0231219
-0.0222932
-0.0213104
-0.0201751
-0.0189045
-0.0175193
-0.0160372
-0.0144743
-0.0128476
-0.0111772
-0.00948637
-0.00781848
-0.00618279
-0.00460469
-0.00310078
-0.00167551
-0.00045445
0.000671865
0.00168565
0.00258942
0.0034057
0.00416493
0.00490392
0.0056643
0.0064792
0.00738549
0.00839259
0.00952032
0.010747
0.0120724
0.0134566
0.0148759
0.0162869
0.0176506
0.0189294
0.0200347
0.0208318
0.021088
0.0205672
0.019193
0.017345
0.0155994
0.0145171
0.0142431
0.0146872
0.0160941
0.0180203
0.0201795
0.0220201
0.023092
0.0205906
0.0146986
0.00550928
-0.0196329
-0.0209022
-0.0213641
-0.0211893
-0.0207439
-0.0202565
-0.0197757
-0.0192549
-0.0186366
-0.0178915
-0.0170183
-0.0160299
-0.0149416
-0.0137663
-0.0125161
-0.0112035
-0.00984383
-0.00845471
-0.00705734
-0.00566922
-0.00431006
-0.00300004
-0.00175193
-0.000589558
0.000491942
0.00149407
0.00242042
0.00328502
0.00410663
0.00490955
0.0057218
0.00656614
0.00747025
0.00844082
0.00949647
0.0106197
0.011816
0.0130496
0.0143073
0.0155468
0.0167323
0.0178242
0.018738
0.0193877
0.0195977
0.0192615
0.0182972
0.0170151
0.0157295
0.0148744
0.0146555
0.0149646
0.0159982
0.0173697
0.0189675
0.0200868
0.0205462
0.0181877
0.0127543
0.00478181
-0.0156469
-0.0167384
-0.017175
-0.0170888
-0.0167773
-0.0164299
-0.0160892
-0.0157182
-0.0152692
-0.0147164
-0.014057
-0.0133002
-0.0124571
-0.0115371
-0.0105485
-0.00950017
-0.00840293
-0.00726919
-0.00611375
-0.00495134
-0.00379551
-0.00265896
-0.00155548
-0.000496377
0.000512307
0.00147094
0.00238049
0.00324913
0.00408776
0.00491184
0.00573956
0.00658572
0.00747033
0.00839705
0.00938186
0.0104101
0.0114885
0.0125869
0.0136972
0.0147814
0.0158077
0.0167385
0.0175057
0.0180508
0.0182409
0.0180485
0.0173908
0.0165197
0.0155907
0.01495
0.0147539
0.0149395
0.0156491
0.0165439
0.0176287
0.0181151
0.0180394
0.0158177
0.0109292
0.00407755
-0.012085
-0.0130217
-0.0134304
-0.0134124
-0.0132079
-0.0129728
-0.012744
-0.0124923
-0.0121784
-0.01178
-0.0112934
-0.0107247
-0.0100823
-0.0093726
-0.00860115
-0.00777366
-0.00689758
-0.00598138
-0.00503568
-0.00407119
-0.00309719
-0.00212307
-0.00115992
-0.000215841
0.000702687
0.00159429
0.00245783
0.00329738
0.00411848
0.00493031
0.00574414
0.00656877
0.00741799
0.00829305
0.009206
0.0101448
0.0111154
0.0120923
0.0130704
0.0140175
0.0149049
0.0157008
0.0163545
0.0168246
0.0170099
0.016926
0.0164948
0.0159161
0.0152588
0.0147966
0.0146024
0.0146711
0.0151061
0.0156056
0.0162353
0.0162616
0.0157216
0.0136107
0.00929357
0.00344116
-0.00890837
-0.00971006
-0.0100891
-0.0101226
-0.0100029
-0.00985712
-0.00971686
-0.00955928
-0.00935223
-0.00907663
-0.00872841
-0.00831162
-0.00783207
-0.00729427
-0.00670165
-0.00605756
-0.00536682
-0.00463507
-0.00386966
-0.00307805
-0.00226697
-0.00144312
-0.00061459
0.000212195
0.00103123
0.00184046
0.00263776
0.00342448
0.00420273
0.00497722
0.00575436
0.00653876
0.00733914
0.00815495
0.00899457
0.00984759
0.0107186
0.011587
0.012447
0.0132732
0.0140441
0.0147386
0.0152937
0.0157054
0.015892
0.0158863
0.0156194
0.0152445
0.014785
0.0144399
0.01425
0.0142144
0.0144214
0.0146037
0.0148415
0.0145341
0.01366
0.0116381
0.00786915
0.00289013
-0.00608079
-0.00676512
-0.00711426
-0.00718578
-0.00713255
-0.00705723
-0.00698639
-0.00690231
-0.00677897
-0.00660028
-0.00636207
-0.00606686
-0.00571865
-0.00532039
-0.00487407
-0.0043814
-0.0038451
-0.00326875
-0.0026571
-0.00201494
-0.00134938
-0.000662924
3.85735e-05
0.000750174
0.00146652
0.00218517
0.0029036
0.00362176
0.00433957
0.00505884
0.0057826
0.00651255
0.00725367
0.00800399
0.00876872
0.009539
0.010317
0.0110868
0.0118424
0.012564
0.0132341
0.0138396
0.0143185