/*--------------------------------*- C++ -*----------------------------------*\
| =========                 |                                                 |
| \\      /  F ield         | OpenFOAM: The Open Source CFD Toolbox           |
|  \\    /   O peration     | Version:  2512                                  |
|   \\  /    A nd           | Website:  www.openfoam.com                      |
|    \\/     M anipulation  |                                                 |
\*---------------------------------------------------------------------------*/
FoamFile
{
    version     2.0;
    format      ascii;
    arch        "LSB;label=32;scalar=64";
    class       surfaceScalarField;
    location    "144";
    object      phi;
}
// * * * * * * * * * * * * * * * * * * * * * * * * * * * * * * * * * * * * * //

dimensions      [0 3 -1 0 0 0 0];

oriented        oriented;

internalField   nonuniform List<scalar> 
26232
(
1.34064e-05
0.00109203
-0.00110544
0.000368529
0.00203275
-0.00238787
0.00131205
0.00190045
-0.00284397
0.00305707
0.000731617
-0.00247664
0.00580169
-0.00147359
-0.00127103
0.00973088
-0.00472852
0.00079933
0.0150072
-0.00904056
0.00376423
0.0217512
-0.0143915
0.00764754
0.0300163
-0.0207201
0.012455
0.0397636
-0.0279108
0.0181634
0.050844
-0.0357913
0.0247109
0.0629939
-0.0441411
0.0319913
0.0758476
-0.0527079
0.0398542
0.0889663
-0.0612296
0.0481109
0.10188
-0.0694585
0.0565452
0.114135
-0.0771851
0.0649295
0.125349
-0.0842563
0.0730428
0.135245
-0.0905884
0.0806918
0.143691
-0.0961686
0.0877226
0.150684
-0.101058
0.0940652
0.156353
-0.105323
0.0996544
0.160811
-0.109184
0.104726
0.164016
-0.112289
0.109084
-0.115875
0.113964
0.165927
7.6401e-05
0.00101563
0.000629205
0.00147994
0.00193252
0.000597136
0.00423129
-0.00156716
0.00774766
-0.00498996
0.012669
-0.00964987
0.0191237
-0.0154953
0.0271507
-0.0224185
0.0366717
-0.0302412
0.0474769
-0.038716
0.0592309
-0.0475452
0.0715001
-0.0564104
0.0838
-0.0650078
0.0956511
-0.0730807
0.106637
-0.0804443
0.116452
-0.0869998
0.124931
-0.0927355
0.132058
-0.0977154
0.137946
-0.102057
0.142792
-0.105903
0.146858
-0.109389
0.150321
-0.112647
0.153677
-0.115645
-0.118964
0.156767
0.000172161
0.000843468
0.00100508
0.000647023
0.00278915
-0.00118693
0.00578375
-0.00456175
0.010206
-0.00941226
0.0162014
-0.0156452
0.0238056
-0.0230995
0.0329131
-0.031526
0.0432642
-0.0405922
0.0544617
-0.0499135
0.0660165
-0.0591
0.0774124
-0.0678062
0.0881767
-0.0757721
0.0979418
-0.0828459
0.106486
-0.0889886
0.113746
-0.0942597
0.1198
-0.0987897
0.12483
-0.102745
0.129066
-0.106293
0.132744
-0.109581
0.136062
-0.112707
0.139175
-0.115761
0.142207
-0.118677
-0.121855
0.145098
0.000291402
0.000552066
0.00146585
-0.000527422
0.00381532
-0.0035364
0.007588
-0.00833444
0.0129554
-0.0147796
0.0199657
-0.0226556
0.0285034
-0.0316372
0.0382749
-0.0412975
0.0488343
-0.0511516
0.0596466
-0.0607258
0.070172
-0.0696253
0.0799492
-0.0775834
0.0886578
-0.0844808
0.0961478
-0.0903358
0.102432
-0.0952726
0.107649
-0.0994765
0.112009
-0.10315
0.115742
-0.106478
0.119052
-0.109604
0.122101
-0.11263
0.125009
-0.115615
0.127847
-0.118599
0.130724
-0.121554
-0.124737
0.133607
0.000427369
0.000124698
0.00198409
-0.00208414
0.00494438
-0.00649669
0.0095108
-0.0129009
0.0157594
-0.0210282
0.0235855
-0.0304817
0.0326812
-0.0407329
0.0425647
-0.051181
0.0526601
-0.061247
0.0624019
-0.0704676
0.0713319
-0.0785554
0.0791624
-0.085414
0.0857935
-0.0911119
0.091288
-0.0958304
0.0958192
-0.0998037
0.0996084
-0.103266
0.102874
-0.106416
0.105798
-0.109402
0.108517
-0.112323
0.111124
-0.115236
0.113681
-0.118172
0.116229
-0.121147
0.118818
-0.124143
-0.127298
0.121378
0.000576012
-0.000451314
0.00253754
-0.00404567
0.00611384
-0.010073
0.0114192
-0.0182062
0.0183819
-0.027991
0.0267033
-0.0388031
0.0358814
-0.049911
0.0453018
-0.0606014
0.0543643
-0.0703095
0.0625969
-0.0787001
0.0697225
-0.085681
0.0756682
-0.0913597
0.0805261
-0.0959697
0.0844881
-0.0997924
0.0877799
-0.103095
0.0906113
-0.106097
0.0931498
-0.108954
0.0955151
-0.111767
0.0977866
-0.114594
0.100015
-0.117465
0.102234
-0.120391
0.104465
-0.123378
0.106738
-0.126417
-0.129578
0.109019
0.000734149
-0.00118546
0.00310373
-0.00641525
0.00725769
-0.014227
0.0131748
-0.0241233
0.0205935
-0.0354096
0.029013
-0.0472227
0.0377858
-0.0586838
0.0462647
-0.0690802
0.05394
-0.0779848
0.0605186
-0.0852788
0.0659302
-0.0910926
0.0702776
-0.0957071
0.0737622
-0.0994543
0.0766123
-0.102643
0.0790339
-0.105517
0.0811867
-0.10825
0.0831815
-0.110949
0.0850895
-0.113675
0.086954
-0.116459
0.0888024
-0.119313
0.0906527
-0.122241
0.0925176
-0.125243
0.0944138
-0.128313
-0.131476
0.0963117
0.000896673
-0.00208214
0.00365461
-0.00917319
0.00830116
-0.0188735
0.014637
-0.0304591
0.0221932
-0.0429658
0.0303027
-0.0553322
0.0382614
-0.0666425
0.0454956
-0.0763145
0.0516647
-0.0841539
0.0566738
-0.0902879
0.0606192
-0.0950379
0.0637041
-0.0987921
0.0661604
-0.101911
0.0681954
-0.104678
0.0699677
-0.107289
0.0715853
-0.109868
0.0731154
-0.112479
0.0745981
-0.115158
0.0760575
-0.117918
0.0775091
-0.120765
0.0789645
-0.123697
0.0804333
-0.126712
0.0819263
-0.129806
-0.132979
0.0834291
0.00105577
-0.00313791
0.00415574
-0.0122732
0.00916485
-0.0238826
0.015679
-0.0369733
0.02304
-0.0503267
0.0304875
-0.0627797
0.0373595
-0.0735144
0.0432322
-0.0821873
0.0479551
-0.0888768
0.0515973
-0.0939301
0.0543555
-0.0977961
0.0564651
-0.100902
0.0581395
-0.103585
0.0595422
-0.10608
0.0607835
-0.108531
0.0619309
-0.111015
0.0630234
-0.113572
0.0640836
-0.116218
0.0651254
-0.11896
0.0661589
-0.121798
0.067192
-0.12473
0.068232
-0.127751
0.0692848
-0.130859
-0.134038
0.0703443
0.00120125
-0.00433916
0.00456966
-0.0156416
0.00977576
-0.0290887
0.0162095
-0.043407
0.0230752
-0.0571924
0.0296079
-0.0693124
0.0352652
-0.0791717
0.0398026
-0.0867247
0.0432351
-0.0923093
0.0457393
-0.0964343
0.0475517
-0.0996084
0.0488954
-0.102245
0.0499442
-0.104634
0.0508158
-0.106952
0.0515817
-0.109297
0.0522826
-0.111716
0.0529408
-0.11423
0.0535696
-0.116847
0.0541782
-0.119569
0.0547736
-0.122394
0.0553621
-0.125318
0.0559495
-0.128339
0.0565399
-0.131449
-0.134633
0.057135
0.00132254
-0.0056617
0.0048628
-0.0191818
0.0100806
-0.0343065
0.0161868
-0.0495132
0.0223219
-0.0633276
0.0277958
-0.0747863
0.0322268
-0.0836028
0.0355386
-0.0900365
0.0378654
-0.0946362
0.0394367
-0.0980055
0.0404862
-0.100658
0.0412029
-0.102962
0.0417174
-0.105148
0.0421094
-0.107344
0.0424233
-0.109611
0.0426832
-0.111976
0.0429023
-0.114449
0.0430893
-0.117034
0.0432509
-0.11973
0.0433924
-0.122535
0.0435188
-0.125445
0.043634
-0.128454
0.0437396
-0.131555
-0.134734
0.0438403
0.00141317
-0.00707487
0.00501396
-0.0227826
0.0100552
-0.0393478
0.0156217
-0.0550797
0.0208684
-0.0685743
0.0252346
-0.0791525
0.0285044
-0.0868726
0.0307348
-0.0922668
0.0321301
-0.0960315
0.0329307
-0.0988061
0.0333443
-0.101071
0.0335194
-0.103137
0.0335489
-0.105178
0.0334846
-0.107279
0.0333536
-0.10948
0.0331702
-0.111792
0.0329427
-0.114222
0.0326774
-0.116769
0.0323794
-0.119432
0.0320536
-0.122209
0.0317045
-0.125096
0.0313352
-0.128085
0.0309466
-0.131166
0.0305458
-0.134333
-0.000118314
0.00256778
-0.00244947
-0.000474531
0.00665898
-0.00630276
-0.00107113
0.0099824
-0.0093858
-0.00189546
0.0126147
-0.0117904
-0.00292016
0.014654
-0.0136293
-0.00410795
0.0162229
-0.0150351
-0.00541721
0.0174485
-0.0161392
-0.00680644
0.0184414
-0.0170522
-0.00823686
0.0192823
-0.0178519
-0.00967292
0.020016
-0.0185799
-0.0110814
0.0206527
-0.0192442
-0.0124295
0.0211729
-0.0198247
-0.0136831
0.021534
-0.0202804
-0.0148048
0.0216762
-0.0205546
-0.0157531
0.0215277
-0.0205794
-0.0164823
0.021008
-0.0202788
-0.0169424
0.0200314
-0.0195713
-0.0170801
0.0185098
-0.0183721
-0.0168392
0.016356
-0.0165969
-0.0161626
0.0134905
-0.0141671
-0.0149947
0.00984591
-0.0110139
-0.0132791
0.00536492
-0.00708047
-0.0110382
6.4158e-05
-0.00230507
-0.00593805
-0.00815384
0.00305367
-3.84826e-06
0.00257163
-9.23272e-05
0.00674746
-0.00031434
0.0102044
-0.000688937
0.0129893
-0.00120916
0.0151742
-0.00184763
0.0168613
-0.0025635
0.0181644
-0.00330911
0.019187
-0.0040351
0.0200083
-0.00469346
0.0206743
-0.00523867
0.0211979
-0.00562742
0.0215616
-0.00581774
0.0217243
-0.00576817
0.0216266
-0.0054373
0.0211968
-0.00478387
0.0203546
-0.00376724
0.0190148
-0.00234816
0.0170908
-0.000489349
0.0144972
0.0018488
0.0111523
0.00471301
0.0069817
0.00813767
0.00194026
0.0121536
-0.00395174
-0.0106447
0.0168602
0.000102454
0.00246917
0.0002728
0.00657712
0.000428467
0.0100487
0.000525091
0.0128927
0.000551334
0.0151479
0.000523834
0.0168888
0.000480141
0.0182081
0.000471045
0.0191961
0.00055373
0.0199256
0.000786602
0.0204415
0.00122607
0.0207584
0.00192499
0.0208627
0.00293224
0.0207171
0.00429272
0.0202662
0.00604742
0.0194421
0.00823323
0.0181688
0.0108826
0.0163654
0.0140236
0.0139498
0.0176796
0.0108413
0.0218685
0.00696339
0.0266057
0.00224448
0.0319118
-0.00336584
0.0378172
-0.00985715
-0.0172848
0.0444573
0.00018763
0.00228154
0.000580666
0.00618408
0.00107871
0.0095507
0.00162242
0.012349
0.00218704
0.0145833
0.00277875
0.0162971
0.00342901
0.0175578
0.00418719
0.018438
0.00511317
0.0189996
0.00627088
0.0192838
0.00772341
0.0193059
0.00952995
0.0190562
0.011744
0.018503
0.0144129
0.0175973
0.0175772
0.0162778
0.0212715
0.0144745
0.0255244
0.0121125
0.0303595
0.00911464
0.035798
0.00540278
0.0418404
0.000920988
0.0485291
-0.00444417
0.0558708
-0.0107076
0.0638346
-0.017821
-0.026078
0.0726278
0.000242873
0.00203867
0.000798243
0.00562871
0.00156695
0.00878199
0.00248721
0.0114287
0.00352803
0.0135425
0.00468763
0.0151375
0.00598993
0.0162555
0.0074787
0.0169492
0.0092109
0.0172674
0.01125
0.0172447
0.0136604
0.0168954
0.0165037
0.0162129
0.019836
0.0151707
0.023707
0.0137263
0.0281604
0.0118245
0.0332341
0.00940077
0.0389629
0.00638371
0.0453744
0.00270314
0.0525069
-0.00172975
0.0604054
-0.00697754
0.0690603
-0.013099
0.0785207
-0.020168
0.0886952
-0.0279954
-0.0372333
0.0998505
0.000263151
0.00177552
0.000904896
0.00498697
0.00184548
0.00784141
0.00303357
0.0102406
0.00444071
0.0121354
0.00606185
0.0135164
0.00791444
0.0144029
0.010035
0.0148287
0.0124739
0.0148285
0.0152902
0.0144284
0.0185463
0.0136393
0.0223044
0.0124547
0.0266245
0.0108506
0.0315634
0.00878745
0.0371756
0.00621219
0.0435133
0.00306311
0.0506308
-0.000733818
0.0585903
-0.0052563
0.0674331
-0.0105726
0.0772029
-0.0167473
0.0879139
-0.02381
0.0995588
-0.0318129
0.111975
-0.0404121
-0.0505729
0.125315
0.000248208
0.00152731
0.000896209
0.00433896
0.00189873
0.00683889
0.00322612
0.00891324
0.00486121
0.0105003
0.00680213
0.0115755
0.0090641
0.012141
0.0116787
0.0122141
0.0146913
0.0118159
0.0181579
0.0109618
0.0221414
0.00965582
0.0267097
0.00788644
0.031934
0.0056263
0.037888
0.00283342
0.0446476
-0.000547429
0.0522974
-0.00458669
0.0609109
-0.00934725
0.0705521
-0.0148975
0.0812683
-0.0212888
0.0930604
-0.0285394
0.105887
-0.0366361
0.119591
-0.0455176
0.133957
-0.0547782
-0.0653483
0.148733
0.000202971
0.00132434
0.000786701
0.00375523
0.00175117
0.00587442
0.0030968
0.0075676
0.00482566
0.00877141
0.00694695
0.00945416
0.00948146
0.00960644
0.0124638
0.00923171
0.0159429
0.00833679
0.0199809
0.0069238
0.0246523
0.00498443
0.0300417
0.00249709
0.0362414
-0.000573432
0.043353
-0.00427816
0.0514743
-0.00866875
0.0606906
-0.013803
0.0710698
-0.0197265
0.0826364
-0.0264641
0.0953573
-0.0340097
0.109109
-0.0422914
0.123702
-0.0512293
0.138761
-0.0605766
0.154044
-0.0700608
-0.0800555
0.168751
0.00013797
0.00118637
0.000611306
0.0032819
0.00147143
0.0050143
0.00275465
0.00628439
0.00448981
0.00703625
0.00670685
0.00723712
0.00944395
0.00686934
0.0127524
0.00592324
0.0166993
0.00438989
0.0213679
0.00225518
0.0268557
-0.000503347
0.0332716
-0.00391881
0.0407268
-0.00802858
0.0493215
-0.0128729
0.059136
-0.0184833
0.0702068
-0.0248737
0.0825094
-0.0320291
0.0959388
-0.0398936
0.110294
-0.0483652
0.125274
-0.0572709
0.140489
-0.0664446
0.155424
-0.0755111
0.169791
-0.0844287
-0.0928006
0.182537
6.91534e-05
0.00111722
0.000423763
0.00292729
0.00116852
0.00426955
0.00237995
0.00507295
0.0041216
0.0052946
0.00645554
0.00490318
0.00945134
0.00387354
0.0131919
0.00218271
0.017775
-0.000193222
0.0233116
-0.00328143
0.0299179
-0.00710969
0.0377026
-0.0117035
0.0467517
-0.0170777
0.0571075
-0.0232287
0.068749
-0.0301247
0.0815733
-0.037698
0.0953833
-0.0458391
0.109886
-0.0543963
0.124697
-0.063176
0.139381
-0.0719548
0.153439
-0.0805029
0.166441
-0.0885127
0.178028
-0.0960163
-0.102289
0.187516
1.58024e-05
0.00110142
0.000288195
0.0026549
0.000973103
0.00358464
0.00219066
0.00385539
0.00404654
0.00343872
0.00664485
0.00230487
0.010096
0.00042241
0.0145193
-0.00224057
0.0200386
-0.00571252
0.0267712
-0.0100141
0.0348117
-0.0151502
0.0442104
-0.0211022
0.0549522
-0.0278195
0.066938
-0.0352145
0.0799728
-0.0431596
0.0937645
-0.0514897
0.107934
-0.0600087
0.122041
-0.0685036
0.135618
-0.0767524
0.148236
-0.0845733
0.159507
-0.0917738
0.169315
-0.0983201
0.177389
-0.10409
-0.108754
0.183854
-4.01941e-06
0.000263006
0.00100368
0.00238244
0.00455013
0.00765432
0.011841
0.0172479
0.0239904
0.0321398
0.0417005
0.0525896
0.0646243
0.0775207
0.0909062
0.104346
0.11738
0.129568
0.140539
0.15003
0.157911
0.164317
0.16931
0.17452
-0.00416071
-0.0175011
0.013508
0.000136548
-0.0305861
0.0262889
0.00458514
-0.0452059
0.0407573
0.00904368
-0.0606218
0.0561633
0.0132652
-0.0760457
0.0718243
0.0168959
-0.0906682
0.0870374
0.0195756
-0.103778
0.101098
0.0210761
-0.114917
0.113417
0.0216767
-0.123964
0.123363
0.0221628
-0.130664
0.130178
0.0239456
-0.134176
0.132393
0.0285436
-0.132456
0.127858
0.0367927
-0.122672
0.114423
0.048365
-0.102558
0.0909859
0.062058
-0.0717456
0.0580526
0.0767691
-0.0318915
0.0171805
0.0914409
0.0136762
-0.0283481
0.10536
0.0604256
-0.0743449
0.117482
0.102042
-0.114164
0.126762
0.133625
-0.142906
0.132755
0.153721
-0.159713
0.13584
0.163853
-0.166939
0.136447
0.167507
-0.168114
0.134273
0.170479
-0.168305
0.129139
0.178292
-0.173158
0.122645
0.188491
-0.181997
0.118164
0.186948
-0.182466
0.118468
0.156179
-0.156484
0.12388
0.0916339
-0.0970453
0.132721
0.00644679
-0.0152877
0.142282
-0.0760705
0.0665094
0.150148
-0.139161
0.131295
0.155231
-0.177396
0.172312
0.157666
-0.194405
0.19197
0.157135
-0.19974
0.200271
0.152627
-0.205464
0.209972
0.144596
-0.218398
0.226429
0.136201
-0.220186
0.228581
0.131523
-0.189976
0.194654
0.132384
-0.112011
0.111151
0.138063
-0.0124409
0.00676191
0.145867
0.0857146
-0.093519
0.152724
0.156949
-0.163807
0.155197
0.203028
-0.2055
0.151671
0.243106
-0.23958
0.144257
0.261506
-0.254093
0.138047
0.261625
-0.255415
0.136766
0.179097
-0.177817
0.141302
0.0756242
-0.08016
0.147453
-0.0535344
0.0473841
0.150298
-0.148715
0.14587
0.147777
-0.209131
0.211652
0.14341
-0.291477
0.295844
0.141391
-0.247708
0.249726
0.142772
-0.234994
0.233614
0.144168
-0.0684566
0.0670602
0.143825
0.0749442
-0.0746003
0.142369
0.169484
-0.168028
0.140545
0.369597
-0.367773
0.193434
-0.191762
0.0204656
-0.0211065
0.0240548
-0.0341754
0.0276667
-0.0488177
0.0311235
-0.0640787
0.0341576
-0.0790798
0.0364529
-0.0929635
0.0375966
-0.104922
0.0371662
-0.114487
0.0348983
-0.121696
0.0312257
-0.126992
0.027526
-0.130476
0.0259758
-0.130906
0.0286093
-0.125305
0.0362467
-0.110196
0.0481652
-0.0836641
0.0628823
-0.0466086
0.0789887
-0.0024302
0.095027
0.0443874
0.10971
0.0873595
0.121693
0.121641
0.130312
0.145102
0.135691
0.158474
0.138016
0.165183
0.137119
0.171377
0.133347
0.182063
0.128646
0.193192
0.125938
0.189656
0.127081
0.155037
0.132048
0.0866668
0.139393
-0.000897937
0.147001
-0.0836787
0.152837
-0.144997
0.155992
-0.18055
0.156809
-0.195222
0.155225
-0.198156
0.150105
-0.200344
0.141522
-0.209815
0.132521
-0.211185
0.127546
-0.185001
0.128807
-0.113273
0.13557
-0.019204
0.144798
0.0764867
0.152838
0.14891
0.156137
0.199728
0.153198
0.246045
0.146304
0.2684
0.140272
0.267658
0.138575
0.180793
0.142432
0.0717674
0.148021
-0.0591234
0.150671
-0.151365
0.147911
-0.206371
0.143387
-0.286953
0.141312
-0.245632
0.142566
-0.236248
0.143837
-0.0697275
0.143367
0.0754138
0.141972
0.170879
0.140215
0.371353
0.195075
0.0472611
-0.0239102
0.0500883
-0.0370026
0.0527433
-0.0514727
0.0550357
-0.0663712
0.0567967
-0.0808407
0.0578178
-0.0939846
0.057764
-0.104868
0.0561464
-0.112869
0.052457
-0.118006
0.0464623
-0.120997
0.0388412
-0.122855
0.0316277
-0.123693
0.0277661
-0.121444
0.0296468
-0.112076
0.0378211
-0.0918384
0.0510265
-0.0598141
0.0674188
-0.0188224
0.0849717
0.0268345
0.101813
0.0705177
0.116335
0.10712
0.127589
0.133848
0.135339
0.150723
0.139541
0.16098
0.14023
0.170688
0.138214
0.184079
0.135517
0.195889
0.134464
0.190709
0.136172
0.153328
0.140352
0.0824873
0.145943
-0.0064895
0.151426
-0.0891609
0.155188
-0.14876
0.156485
-0.181848
0.155784
-0.194521
0.153283
-0.195654
0.147793
-0.194854
0.138932
-0.200954
0.129455
-0.201707
0.124088
-0.179635
0.125557
-0.114742
0.133198
-0.0268456
0.143691
0.0659939
0.152871
0.13973
0.157095
0.195505
0.154919
0.248221
0.148685
0.274634
0.142875
0.273468
0.140696
0.182972
0.143741
0.0687228
0.148679
-0.0640612
0.151131
-0.153818
0.148155
-0.203395
0.143415
-0.282213
0.141252
-0.243469
0.142426
-0.237422
0.143638
-0.0709397
0.143054
0.0759975
0.141709
0.172225
0.140032
0.37303
0.19666
0.0747866
-0.026069
0.0768669
-0.0390829
0.0786117
-0.0532175
0.0797128
-0.0674723
0.0800488
-0.0811767
0.0795147
-0.0934505
0.0779572
-0.10331
0.0751754
-0.110088
0.0708078
-0.113639
0.0642854
-0.114475
0.055276
-0.113846
0.044664
-0.113081
0.0351419
-0.111922
0.0303256
-0.10726
0.0327453
-0.0942581
0.0424772
-0.0695459
0.0575256
-0.0338709
0.075588
0.00877205
0.0939422
0.0521635
0.110663
0.0903993
0.124412
0.120099
0.13452
0.140615
0.140737
0.154763
0.1433
0.168126
0.143336
0.184043
0.142768
0.196456
0.143243
0.190234
0.145244
0.151327
0.14844
0.0792915
0.152168
-0.0102177
0.155478
-0.0924711
0.157189
-0.15047
0.156726
-0.181385
0.154608
-0.192403
0.151274
-0.19232
0.145602
-0.189182
0.136753
-0.192106
0.126997
-0.19195
0.121182
-0.173819
0.122625
-0.116185
0.13088
-0.035101
0.142483
0.0543912
0.152768
0.129445
0.158025
0.190248
0.156788
0.249458
0.151358
0.280063
0.145817
0.279009
0.143111
0.185679
0.145224
0.0666093
0.14941
-0.0682472
0.151655
-0.156062
0.148488
-0.200229
0.143477
-0.277202
0.141188
-0.241179
0.142329
-0.238563
0.143557
-0.072168
0.142879
0.076676
0.141572
0.173531
0.139998
0.374604
0.198158
0.101766
-0.0279847
0.103252
-0.040569
0.104012
-0.0539774
0.103789
-0.0672487
0.102535
-0.079923
0.100246
-0.0911616
0.096924
-0.0999884
0.0926222
-0.105786
0.0873534
-0.10837
0.080841
-0.107962
0.0723822
-0.105387
0.0614793
-0.102178
0.049209
-0.0996514
0.0388575
-0.0969085
0.0345158
-0.0899164
0.0385598
-0.0735899
0.050292
-0.0456031
0.0673537
-0.00828958
0.0862946
0.0332226
0.104648
0.0720454
0.120538
0.104209
0.132847
0.128307
0.141137
0.146473
0.145792
0.163471
0.148112
0.181723
0.149752
0.194816
0.151688
0.188298
0.153828
0.149187
0.155971
0.0771491
0.157873
-0.0121202
0.159059
-0.093657
0.158767
-0.150178
0.156659
-0.179276
0.153255
-0.189
0.149178
-0.188243
0.143469
-0.183472
0.134901
-0.183538
0.125109
-0.182158
0.118834
-0.167545
0.120006
-0.117356
0.128601
-0.0436965
0.141104
0.0418885
0.152455
0.118094
0.158855
0.183848
0.158733
0.24958
0.154244
0.284552
0.149032
0.284221
0.145771
0.18894
0.14686
0.0655209
0.150194
-0.0715809
0.152211
-0.15808
0.148891
-0.196909
0.14356
-0.271871
0.1411
-0.238719
0.142249
-0.239712
0.143574
-0.0734931
0.142829
0.0774211
0.141556
0.174804
0.140114
0.376047
0.199532
0.126847
-0.0295163
0.127636
-0.0413582
0.127308
-0.0536496
0.125657
-0.0655978
0.122749
-0.0770151
0.118688
-0.0871007
0.113612
-0.0949116
0.107733
-0.0999068
0.101293
-0.101931
0.0944233
-0.101092
0.0868178
-0.0977812
0.0775705
-0.0929304
0.0660248
-0.0881057
0.0534662
-0.0843499
0.0436522
-0.0801024
0.0408655
-0.0708032
0.0470365
-0.0517742
0.0608066
-0.0220597
0.0790013
0.0150279
0.0981303
0.0529165
0.115633
0.0867067
0.129891
0.114048
0.140249
0.136115
0.147139
0.156581
0.151876
0.176986
0.155769
0.190923
0.159143
0.184925
0.161484
0.146845
0.162642
0.0759912
0.162884
-0.0123619
0.162062
-0.0928347
0.15985
-0.147966
0.156232
-0.175659
0.151694
-0.184461
0.146953
-0.183503
0.141301
-0.17782
0.133242
-0.175479
0.123686
-0.172603
0.117025
-0.160884
0.117712
-0.118043
0.126296
-0.0522805
0.139473
0.0287116
0.151838
0.105728
0.159487
0.1762
0.160645
0.248421
0.157237
0.28796
0.152412
0.289046
0.148621
0.192731
0.148607
0.0655348
0.151002
-0.0739759
0.152766
-0.159844
0.149338
-0.193481
0.143655
-0.266188
0.140972
-0.236037
0.142159
-0.240899
0.143667
-0.0750011
0.142893
0.078195
0.141654
0.176043
0.140381
0.377321
0.200745
0.149362
-0.0301461
0.149021
-0.041017
0.147252
-0.0518801
0.143942
-0.0622881
0.139274
-0.0723466
0.133439
-0.081266
0.126704
-0.0881765
0.119428
-0.0926306
0.11196
-0.0944633
0.104576
-0.0937084
0.0973632
-0.0905681
0.0898716
-0.0854388
0.0809772
-0.0792113
0.0699479
-0.0733206
0.0582823
-0.0684368
0.050006
-0.0625269
0.0492884
-0.0510565
0.0574512
-0.0302225
0.0726585
-0.000179356
0.0911
0.034475
0.109409
0.0683978
0.125268
0.0981889
0.137646
0.123738
0.146858
0.147369
0.154081
0.169764
0.160216
0.184787
0.164993
0.180148
0.167625
0.144214
0.168125
0.0754917
0.166999
-0.0112362
0.164366
-0.0902018
0.160368
-0.143968
0.155388
-0.170679
0.149882
-0.178955
0.144562
-0.178183
0.13901
-0.172268
0.131624
-0.168093
0.122575
-0.163553
0.115669
-0.153978
0.115694
-0.118067
0.123942
-0.0605288
0.137509
0.0151455
0.150818
0.0924192
0.159805
0.167212
0.162397
0.245829
0.160204
0.290154
0.155839
0.293411
0.15156
0.19701
0.150429
0.0666654
0.151805
-0.0753516
0.153282
-0.161321
0.149798
-0.189997
0.143754
-0.260143
0.140795
-0.233078
0.142032
-0.242136
0.143812
-0.0767807
0.143057
0.0789502
0.141858
0.177241
0.140798
0.37838
0.201754
0.167886
-0.0292809
0.165917
-0.039048
0.16237
-0.0483325
0.157293
-0.0572115
0.150944
-0.0659979
0.143548
-0.0738698
0.135447
-0.0800751
0.127088
-0.0842716
0.118894
-0.08627
0.111185
-0.0859988
0.104151
-0.0835341
0.097751
-0.0790391
0.0913546
-0.0728149
0.0836934
-0.0656593
0.074072
-0.0588154
0.0641489
-0.0526038
0.0579478
-0.0448554
0.0592645
-0.0315392
0.0689419
-0.00985675
0.084461
0.0189559
0.102149
0.0507094
0.118917
0.0814216
0.133094
0.109561
0.144615
0.135847
0.154334
0.160045
0.162687
0.176433
0.16889
0.173945
0.171981
0.141123
0.17211
0.0753623
0.169999
-0.0091247
0.165849
-0.0860517
0.16025
-0.13837
0.154063
-0.164492
0.147766
-0.172658
0.14196
-0.172377
0.136513
-0.166821
0.129891
-0.161471
0.121583
-0.155246
0.114632
-0.147027
0.113919
-0.117355
0.121501
-0.0681105
0.13515
0.00149669
0.149296
0.0782728
0.159684
0.156825
0.163841
0.241672
0.162985
0.291009
0.159166
0.29723
0.154488
0.201688
0.152264
0.0688896
0.152566
-0.0756543
0.153718
-0.162472
0.150236
-0.186515
0.143848
-0.253755
0.140564
-0.229794
0.141845
-0.243417
0.143985
-0.0789205
0.143306
0.079629
0.142159
0.178388
0.141366
0.379173
0.202514
0.180059
-0.026803
0.176374
-0.0353629
0.171133
-0.0430916
0.164595
-0.0506742
0.157014
-0.0584167
0.148594
-0.06545
0.139703
-0.0711842
0.130791
-0.0753593
0.122279
-0.0777575
0.114507
-0.0782273
0.1077
-0.0767274
0.101952
-0.0732911
0.0970984
-0.067961
0.0923727
-0.0609336
0.0864827
-0.0529255
0.0788432
-0.0449643
0.0711438
-0.037156
0.0671664
-0.0275619
0.0701894
-0.0128797
0.0804075
0.00873776
0.0953187
0.0357982
0.111613
0.0651268
0.126899
0.0942749
0.140439
0.122307
0.152526
0.147959
0.163018
0.165941
0.170671
0.166291
0.174427
0.137366
0.174539
0.0752506
0.171794
-0.00637955
0.166407
-0.0806648
0.159399
-0.131362
0.152154
-0.157247
0.145246
-0.165749
0.139066
-0.166197
0.133709
-0.161464
0.127882
-0.155644
0.120501
-0.147865
0.113729
-0.140255
0.112298
-0.115924
0.118951
-0.0747632
0.132356
-0.0119087
0.147185
0.0634434
0.159
0.14501
0.164846
0.235826
0.165437
0.290418
0.162259
0.300408
0.157291
0.206656
0.154047
0.0721339
0.153247
-0.0748542
0.154029
-0.163255
0.150612
-0.183098
0.14393
-0.247074
0.140278
-0.226142
0.141574
-0.244713
0.144161
-0.0815081
0.143627
0.0801639
0.142551
0.179464
0.142083
0.379641
0.20298
0.184016
-0.0233027
0.17915
-0.0304968
0.172865
-0.0368064
0.16561
-0.0434192
0.157541
-0.0503479
0.148829
-0.0567379
0.139834
-0.0621895
0.130962
-0.0664868
0.122587
-0.0693825
0.115033
-0.0706732
0.108544
-0.0702384
0.103273
-0.0680202
0.0992587
-0.0639469
0.0962652
-0.0579401
0.0934854
-0.0501457
0.089672
-0.0411509
0.0843422
-0.0318262
0.0791034
-0.0223231
0.0772563
-0.0110326
0.0813577
0.00463637
0.0913908
0.0257651
0.10519
0.0513275
0.120186
0.0792786
0.134928
0.107565
0.148928
0.133959
0.161352
0.153518
0.17046
0.157183
0.175061
0.132765
0.175521
0.0747908
0.172435
-0.0032938
0.166002
-0.0742317
0.157748
-0.123108
0.14958
-0.14908
0.142232
-0.158401
0.135816
-0.159781
0.130528
-0.156176
0.12547
-0.150587
0.119152
-0.141546
0.112774
-0.133877
0.110716
-0.113867
0.11626
-0.0803067
0.129113
-0.024762
0.144429
0.048128
0.157641
0.131798
0.165232
0.228235
0.167365
0.288285
0.164957
0.302816
0.159856
0.211756
0.155725
0.0762656
0.153817
-0.0729468
0.154178
-0.163615
0.150888
-0.179808
0.143997
-0.240183
0.13995
-0.222095
0.141195
-0.245957
0.144315
-0.0846285
0.144003
0.080476
0.143025
0.180442
0.142947
0.379719
0.203102
0.180237
-0.0196854
0.175028
-0.0252877
0.168613
-0.0303913
0.161474
-0.0362808
0.153642
-0.0425158
0.145303
-0.0483985
0.136783
-0.0536698
0.128417
-0.0581204
0.120531
-0.0614967
0.113428
-0.0635702
0.10736
-0.064171
0.102514
-0.063174
0.0989687
-0.0604015
0.0967018
-0.0556733
0.0954568
-0.0489007
0.0945331
-0.0402271
0.0929307
-0.0302238
0.0902068
-0.0195992
0.0877563
-0.00858209
0.0877828
0.0046099
0.0925166
0.0210314
0.102056
0.0417878
0.114815
0.0665197
0.129263
0.0931172
0.144266
0.118957
0.158099
0.139684
0.168384
0.146899
0.174052
0.127097
0.175311
0.0735315
0.172185
-0.000167766
0.164909
-0.0669551
0.155586
-0.113785
0.146629
-0.140122
0.138964
-0.150737
0.132423
-0.15324
0.12714
-0.150893
0.122721
-0.146168
0.117508
-0.136332
0.111698
-0.128067
0.109108
-0.111276
0.113415
-0.0846142
0.125417
-0.0367643
0.140956
0.032589
0.155537
0.117217
0.164998
0.218775
0.168742
0.28454
0.167151
0.304407
0.162123
0.216785
0.157267
0.0811215
0.154296
-0.069976
0.154168
-0.163487
0.151053
-0.176693
0.144062
-0.233192
0.139598
-0.217631
0.14071
-0.24707
0.144425
-0.088343
0.144419
0.0804817
0.143575
0.181285
0.14396
0.379334
0.202831
0.171352
-0.0165171
0.166354
-0.0202896
0.160716
-0.0247537
0.154417
-0.0299818
0.147473
-0.0355715
0.140155
-0.0410809
0.132722
-0.0462362
0.125426
-0.0508246
0.118541
-0.0546115
0.112317
-0.0573469
0.106945
-0.0587991
0.102547
-0.0587761
0.0992371
-0.0570911
0.0971262
-0.0535624
0.096266
-0.0480405
0.0964859
-0.040447
0.0971612
-0.030899
0.0973799
-0.0198179
0.0966512
-0.00785342
0.0964127
0.00484838
0.0984124
0.0190317
0.103939
0.0362615
0.113133
0.057326
0.125323
0.0809269
0.139435
0.104845
0.153435
0.125684
0.16483
0.135504
0.17226
0.119667
0.174726
0.0710656
0.171558
0.00300023
0.163214
-0.0586113
0.153055
-0.103626
0.14359
-0.130657
0.135766
-0.142912
0.129188
-0.146661
0.123821
-0.145526
0.119809
-0.142156
0.115624
-0.132147
0.110508
-0.122952
0.107479
-0.108247
0.110571
-0.087706
0.121446
-0.0476392
0.136895
0.0171396
0.152455
0.101657
0.163707
0.207523
0.169199
0.279048
0.168642
0.304964
0.163934
0.221492
0.158603
0.0864532
0.154646
-0.0660196
0.154005
-0.162845
0.151098
-0.173786
0.14412
-0.226215
0.139211
-0.212722
0.140161
-0.248019
0.144496
-0.092678
0.14487
0.0801072
0.144194
0.181962
0.145114
0.378413
0.202111
0.205909
-0.0136247
-0.208801
0.203828
-0.0182086
0.201422
-0.0223485
0.198408
-0.0269677
0.194709
-0.0318726
0.190374
-0.0367454
0.185474
-0.0413365
0.180071
-0.0454214
0.174246
-0.0487869
0.168116
-0.0512161
0.161809
-0.0524924
0.155453
-0.0524204
0.149181
-0.0508188
0.143135
-0.0475159
0.137462
-0.0423677
0.13228
-0.0352652
0.127512
-0.0261308
0.12275
-0.0150563
0.117656
-0.00275907
0.111885
0.0106186
0.106547
0.0243701
0.10303
0.0397786
0.102705
0.0576506
0.106392
0.0772406
0.114111
0.0971254
0.125537
0.114259
0.141202
0.119838
0.160653
0.100216
0.178832
0.0528868
0.189659
-0.00782699
0.192446
-0.0613975
0.188585
-0.0997659
0.181191
-0.123264
0.17263
-0.134351
0.163865
-0.137896
0.15546
-0.137122
0.148038
-0.134734
0.140682
-0.124791
0.13215
-0.11442
0.124281
-0.100378
0.120686
-0.084111
0.123298
-0.050251
0.129449
0.0109891
0.135494
0.095612
0.139627
0.20339
0.14305
0.275625
0.147269
0.300745
0.152343
0.216417
0.156341
0.0824557
0.158156
-0.0678348
0.15806
-0.162749
0.154547
-0.170272
0.146387
-0.218054
0.139221
-0.205556
0.136041
-0.244839
0.135243
-0.0918797
0.132738
0.0826119
0.130388
0.184312
0.132011
0.376791
0.200759
0.21473
-0.0114376
-0.216917
0.21233
-0.0158088
0.209902
-0.0199199
0.206981
-0.0240466
0.203432
-0.0283234
0.19929
-0.0326038
0.194612
-0.0366587
0.189459
-0.0402687
0.183912
-0.0432391
0.178077
-0.0453813
0.172086
-0.0465016
0.166078
-0.0464122
0.160195
-0.0449362
0.154584
-0.041905
0.149381
-0.0371648
0.144724
-0.0306077
0.140712
-0.0221189
0.137249
-0.011593
0.133788
0.00070204
0.13018
0.014226
0.126389
0.0281615
0.123416
0.0427517
0.122819
0.0582473
0.125965
0.0740945
0.133435
0.0896559
0.1455
0.102194
0.162365
0.102973
0.181665
0.0809157
0.197802
0.0367501
0.205979
-0.0160044
0.206323
-0.0617415
0.200766
-0.0942084
0.192227
-0.114725
0.182998
-0.125122
0.173911
-0.128808
0.165186
-0.128397
0.157491
-0.127039
0.15027
-0.11757
0.142058
-0.106208
0.133926
-0.0922463
0.129474
-0.0796589
0.131337
-0.0521142
0.13745
0.00487591
0.144083
0.0889795
0.14907
0.198403
0.153593
0.271103
0.159044
0.295294
0.164953
0.210509
0.169261
0.0781478
0.170488
-0.0690625
0.169633
-0.161894
0.165481
-0.16612
0.15663
-0.209204
0.148489
-0.197415
0.144796
-0.241146
0.144105
-0.0911893
0.14145
0.0852674
0.138937
0.186824
0.141071
0.374657
0.199095
0.223252
-0.00979664
-0.224893
0.22109
-0.013646
0.218645
-0.0174749
0.215812
-0.0212144
0.212455
-0.0249656
0.208548
-0.0286969
0.204135
-0.0322456
0.199279
-0.0354131
0.194056
-0.0380162
0.188561
-0.0398865
0.182914
-0.0408542
0.177249
-0.0407475
0.171712
-0.0393989
0.166456
-0.036649
0.161635
-0.0323439