/*--------------------------------*- C++ -*----------------------------------*\
| =========                 |                                                 |
| \\      /  F ield         | OpenFOAM: The Open Source CFD Toolbox           |
|  \\    /   O peration     | Version:  2512                                  |
|   \\  /    A nd           | Website:  www.openfoam.com                      |
|    \\/     M anipulation  |                                                 |
\*---------------------------------------------------------------------------*/
FoamFile
{
    version     2.0;
    format      ascii;
    arch        "LSB;label=32;scalar=64";
    class       volScalarField;
    location    "91";
    object      p;
}
// * * * * * * * * * * * * * * * * * * * * * * * * * * * * * * * * * * * * * //

dimensions      [0 2 -2 0 0 0 0];

internalField   nonuniform List<scalar> 
13248
(
-0.397633
-0.395504
-0.39342
-0.391439
-0.389554
-0.38774
-0.385859
-0.383671
-0.380873
-0.377129
-0.372112
-0.365543
-0.357228
-0.347087
-0.335165
-0.321625
-0.30673
-0.290803
-0.27419
-0.257247
-0.240221
-0.223468
-0.206653
-0.19031
-0.406221
-0.403274
-0.400314
-0.397409
-0.394553
-0.391736
-0.388813
-0.38552
-0.381525
-0.376481
-0.370077
-0.362087
-0.352403
-0.341051
-0.32818
-0.314036
-0.298928
-0.283185
-0.267122
-0.251022
-0.2351
-0.219567
-0.204343
-0.189857
-0.415701
-0.41184
-0.407952
-0.404092
-0.400227
-0.396338
-0.392257
-0.387684
-0.382266
-0.375667
-0.367634
-0.358035
-0.34688
-0.33431
-0.320566
-0.305945
-0.290762
-0.275311
-0.259848
-0.244582
-0.229656
-0.215221
-0.2012
-0.187774
-0.426423
-0.421514
-0.416641
-0.4118
-0.406877
-0.401812
-0.396388
-0.390273
-0.383118
-0.37465
-0.364723
-0.353343
-0.340655
-0.326904
-0.312386
-0.297406
-0.282241
-0.267122
-0.252228
-0.237694
-0.223614
-0.21008
-0.197022
-0.18466
-0.438597
-0.432492
-0.426571
-0.420707
-0.414636
-0.408217
-0.401181
-0.393185
-0.383942
-0.373305
-0.36129
-0.348062
-0.333884
-0.319067
-0.303913
-0.288686
-0.273595
-0.258795
-0.244393
-0.230465
-0.217059
-0.204218
-0.191891
-0.180238
-0.452257
-0.444824
-0.437792
-0.430832
-0.423451
-0.415406
-0.40639
-0.396115
-0.384433
-0.371387
-0.357185
-0.342135
-0.326578
-0.310831
-0.295155
-0.279743
-0.264727
-0.25019
-0.236182
-0.222731
-0.209854
-0.197559
-0.185811
-0.174724
-0.467236
-0.45839
-0.450189
-0.442008
-0.433063
-0.423008
-0.411569
-0.398602
-0.384185
-0.368595
-0.35222
-0.335463
-0.318679
-0.302141
-0.286035
-0.270473
-0.255515
-0.241186
-0.22749
-0.214422
-0.201971
-0.190123
-0.178855
-0.168211
-0.483157
-0.472879
-0.463451
-0.453856
-0.442987
-0.430448
-0.41611
-0.400089
-0.382753
-0.364611
-0.346179
-0.327885
-0.310041
-0.292836
-0.27637
-0.260678
-0.24576
-0.231595
-0.218152
-0.205402
-0.193314
-0.181858
-0.171015
-0.160757
-0.499427
-0.48777
-0.477044
-0.465762
-0.452514
-0.436979
-0.419314
-0.400001
-0.379715
-0.359145
-0.338855
-0.319232
-0.300495
-0.282739
-0.265979
-0.250185
-0.235306
-0.221286
-0.208071
-0.195607
-0.18385
-0.17276
-0.16231
-0.152408
-0.515225
-0.502303
-0.490177
-0.476854
-0.460729
-0.441728
-0.420451
-0.397794
-0.374695
-0.351935
-0.330044
-0.309312
-0.289849
-0.271655
-0.254671
-0.238813
-0.223993
-0.210128
-0.197139
-0.184958
-0.173524
-0.162792
-0.152709
-0.143157
-0.529526
-0.515483
-0.501807
-0.486031
-0.466548
-0.443737
-0.418749
-0.392873
-0.367223
-0.342575
-0.319358
-0.297738
-0.277713
-0.259199
-0.242076
-0.226217
-0.211504
-0.197831
-0.1851
-0.173228
-0.162144
-0.151787
-0.142074
-0.132895
-0.541193
-0.526214
-0.510817
-0.49216
-0.468884
-0.442024
-0.413338
-0.384452
-0.35655
-0.33032
-0.306049
-0.283764
-0.263359
-0.244672
-0.22753
-0.211774
-0.197257
-0.183854
-0.171453
-0.159958
-0.149291
-0.139375
-0.1301
-0.121408
-0.327209
-0.329507
-0.330888
-0.331768
-0.332539
-0.333331
-0.33421
-0.335209
-0.336337
-0.337589
-0.338958
-0.340438
-0.342028
-0.343729
-0.345547
-0.347485
-0.349544
-0.35172
-0.354003
-0.356376
-0.358782
-0.361102
-0.363286
-0.365678
-0.327375
-0.330182
-0.331891
-0.333004
-0.333965
-0.334895
-0.335836
-0.336802
-0.337773
-0.338716
-0.339589
-0.340344
-0.340936
-0.341319
-0.341445
-0.341272
-0.340757
-0.339861
-0.338557
-0.336833
-0.334634
-0.331821
-0.328499
-0.325798
-0.328902
-0.332033
-0.333976
-0.335279
-0.336408
-0.337466
-0.338473
-0.339416
-0.340249
-0.340906
-0.341307
-0.341362
-0.340978
-0.340056
-0.3385
-0.336213
-0.333105
-0.329097
-0.324139
-0.318213
-0.311267
-0.303127
-0.293986
-0.285805
-0.331977
-0.335218
-0.33728
-0.338719
-0.339987
-0.341166
-0.342247
-0.34319
-0.343923
-0.344346
-0.34434
-0.343776
-0.342512
-0.340401
-0.337296
-0.333052
-0.327538
-0.320637
-0.312271
-0.302417
-0.291051
-0.278012
-0.263421
-0.249733
-0.336608
-0.339731
-0.341787
-0.343295
-0.344665
-0.345946
-0.347103
-0.348068
-0.348739
-0.348984
-0.348652
-0.34757
-0.345556
-0.342419
-0.337966
-0.332017
-0.324404
-0.314988
-0.303672
-0.290428
-0.275286
-0.258186
-0.239045
-0.219842
-0.342623
-0.345416
-0.347337
-0.348833
-0.350245
-0.351586
-0.352803
-0.353789
-0.354415
-0.354521
-0.353922
-0.352411
-0.349768
-0.345766
-0.340181
-0.332803
-0.323451
-0.311985
-0.298315
-0.282424
-0.264394
-0.244359
-0.222195
-0.197681
-0.349713
-0.351996
-0.353651
-0.355036
-0.356408
-0.357748
-0.358956
-0.359917
-0.360472
-0.36043
-0.359574
-0.357668
-0.35446
-0.349698
-0.343139
-0.334565
-0.323804
-0.310741
-0.295335
-0.277629
-0.25777
-0.23594
-0.212393
-0.186413
-0.357491
-0.359127
-0.360394
-0.361548
-0.362756
-0.363971
-0.365077
-0.365922
-0.366321
-0.366056
-0.364882
-0.362538
-0.35875
-0.35325
-0.345794
-0.336177
-0.324262
-0.30999
-0.293401
-0.27463
-0.25395
-0.231509
-0.208529
-0.182345
-0.365571
-0.366481
-0.367245
-0.36803
-0.368926
-0.369866
-0.370716
-0.371299
-0.371402
-0.370781
-0.369168
-0.366279
-0.36183
-0.355553
-0.347219
-0.336665
-0.323812
-0.308685
-0.29142
-0.272245
-0.2516
-0.229498
-0.207915
-0.183244
-0.373662
-0.373814
-0.373973
-0.374245
-0.374661
-0.375147
-0.375559
-0.375699
-0.375332
-0.374189
-0.371981
-0.36841
-0.363192
-0.356076
-0.346874
-0.335484
-0.321909
-0.306269
-0.288801
-0.269813
-0.249825
-0.228868
-0.208821
-0.186706
-0.381632
-0.38102
-0.380492
-0.380108
-0.37987
-0.379716
-0.379497
-0.379006
-0.377983
-0.376139
-0.373169
-0.368771
-0.362671
-0.354657
-0.344598
-0.332474
-0.318377
-0.302518
-0.285207
-0.266824
-0.247848
-0.228517
-0.21001
-0.190396
-0.389545
-0.388175
-0.386883
-0.38572
-0.384681
-0.383725
-0.382711
-0.381419
-0.379571
-0.376857
-0.372957
-0.367573
-0.360461
-0.351461
-0.340522
-0.327709
-0.313205
-0.29729
-0.280304
-0.262641
-0.244662
-0.226813
-0.209733
-0.193303
-0.368909
-0.372027
-0.372768
-0.370022
-0.3628
-0.350187
-0.331822
-0.308188
-0.281036
-0.252281
-0.224745
-0.201689
-0.185907
-0.179529
-0.183542
-0.196817
-0.215327
-0.232342
-0.239637
-0.233472
-0.210859
-0.177768
-0.143072
-0.113882
-0.09346
-0.0820099
-0.078187
-0.0810056
-0.091481
-0.110018
-0.130996
-0.143638
-0.139867
-0.122317
-0.099708
-0.0805853
-0.0688296
-0.0634941
-0.0641219
-0.073027
-0.0883681
-0.100848
-0.0996932
-0.0867429
-0.0705461
-0.0571333
-0.0485178
-0.0449533
-0.0470527
-0.0498109
-0.0475126
-0.0439275
-0.0394886
-0.0342345
-0.0314538
-0.0295371
-0.0262387
-0.0266458
-0.0220455
-0.00626386
-0.324085
-0.322391
-0.319395
-0.314265
-0.306497
-0.295382
-0.280527
-0.262036
-0.242251
-0.221383
-0.202088
-0.187685
-0.180748
-0.183136
-0.195165
-0.214795
-0.237355
-0.256173
-0.264269
-0.254377
-0.227908
-0.190519
-0.15168
-0.118845
-0.0951592
-0.0806061
-0.0738093
-0.073569
-0.0804066
-0.0949842
-0.112981
-0.125033
-0.123371
-0.109655
-0.0910322
-0.0755806
-0.0669672
-0.064275
-0.0674769
-0.0792206
-0.0970705
-0.110965
-0.10924
-0.0942502
-0.0751395
-0.0588511
-0.0480432
-0.0422711
-0.0424576
-0.0435217
-0.041483
-0.0389968
-0.0362196
-0.0331006
-0.0319846
-0.0322712
-0.0295608
-0.0301543
-0.0250672
-0.00715436
-0.279321
-0.272082
-0.264809
-0.256581
-0.247208
-0.236865
-0.224988
-0.211075
-0.19735
-0.184782
-0.17414
-0.168936
-0.171154
-0.182126
-0.201394
-0.226181
-0.251637
-0.271471
-0.278978
-0.268051
-0.239232
-0.199024
-0.157362
-0.121898
-0.0957005
-0.078553
-0.0690497
-0.0658986
-0.0692198
-0.0798076
-0.0946912
-0.105958
-0.106112
-0.0961071
-0.0814021
-0.0696476
-0.064223
-0.0642406
-0.0700552
-0.0845365
-0.104732
-0.11996
-0.117852
-0.101055
-0.0792559
-0.0602301
-0.0473886
-0.039647
-0.0381494
-0.0376538
-0.0357073
-0.0341149
-0.0328546
-0.0318577
-0.0324901
-0.0350654
-0.0328951
-0.0335509
-0.0279835
-0.0080277
-0.239233
-0.226187
-0.214532
-0.203121
-0.191472
-0.181038
-0.171371
-0.161469
-0.152671
-0.146733
-0.144779
-0.148239
-0.158791
-0.177092
-0.20203
-0.230513
-0.257864
-0.278384
-0.285808
-0.274541
-0.24473
-0.203224
-0.160148
-0.123178
-0.0952812
-0.0761411
-0.0643411
-0.0585636
-0.058623
-0.0653491
-0.0769907
-0.0871404
-0.08868
-0.0821087
-0.0711037
-0.0629369
-0.0606106
-0.0632707
-0.0715852
-0.0886146
-0.111018
-0.127567
-0.125317
-0.10701
-0.0828296
-0.0612748
-0.0465835
-0.0371253
-0.0341911
-0.0322863
-0.0302755
-0.0293438
-0.029435
-0.0305189
-0.0329652
-0.0379063
-0.0362201
-0.0368015
-0.0307614
-0.0088744
-0.207252
-0.188765
-0.173118
-0.158825
-0.145534
-0.133306
-0.123952
-0.118582
-0.114297
-0.113508
-0.11792
-0.128187
-0.145204
-0.168895
-0.197675
-0.22838
-0.25671
-0.277658
-0.285209
-0.274246
-0.24472
-0.203454
-0.160421
-0.123058
-0.0942089
-0.0736269
-0.0599772
-0.0519644
-0.0491393
-0.0522312
-0.0605713
-0.0693205
-0.073171
-0.0680838
-0.0604016
-0.0555743
-0.0561131
-0.061236
-0.0718424
-0.0912081
-0.115666
-0.133536
-0.13142
-0.111987
-0.0858197
-0.0620106
-0.0456678
-0.0347346
-0.0306058
-0.0274663
-0.0252608
-0.0247489
-0.0260033
-0.0290944
-0.0334029
-0.0407741
-0.0395091
-0.0398656
-0.0333672
-0.00968508
-0.185051
-0.162086
-0.143008
-0.126082
-0.111472
-0.0980636
-0.0899234
-0.0852461
-0.0840497
-0.08731
-0.0959872
-0.110721
-0.131812
-0.158665
-0.189429
-0.220998
-0.249433
-0.270201
-0.278225
-0.268027
-0.239794
-0.200177
-0.158567
-0.12186
-0.0927652
-0.0712325
-0.0561438
-0.0462793
-0.0410531
-0.0409157
-0.0459687
-0.0528587
-0.0567328
-0.054239
-0.0495637
-0.0476895
-0.0507589
-0.0580948
-0.0707296
-0.0921729
-0.118474
-0.137687
-0.136009
-0.115888
-0.088188
-0.0624568
-0.0446712
-0.0324861
-0.0273883
-0.0232103
-0.0207104
-0.0203923
-0.0225997
-0.0275909
-0.0337904
-0.0436401
-0.0427333
-0.0427065
-0.0357692
-0.0104496
-0.172414
-0.148415
-0.125552
-0.105916
-0.0889584
-0.0747698
-0.0675146
-0.0636045
-0.0638927
-0.0691121
-0.0799502
-0.096808
-0.119615
-0.147523
-0.178603
-0.20988
-0.237742
-0.258234
-0.266205
-0.257014
-0.230908
-0.194105
-0.155055
-0.119896
-0.0911836
-0.069133
-0.052959
-0.0415935
-0.03439
-0.0315359
-0.0335011
-0.0382742
-0.0417753
-0.0411122
-0.0389233
-0.0394835
-0.0446775
-0.0538985
-0.0682168
-0.091421
-0.119358
-0.139935
-0.138976
-0.118641
-0.0898941
-0.0626214
-0.0436128
-0.0303797
-0.0245086
-0.0194984
-0.0166451
-0.0163283
-0.0192599
-0.0260125
-0.034109
-0.0464715
-0.0458604
-0.0452911
-0.0379421
-0.0111587
-0.168098
-0.144815
-0.120373
-0.0989045
-0.0807268
-0.0652522
-0.0571261
-0.0527689
-0.0530058
-0.0584579
-0.0695948
-0.0865745
-0.109135
-0.136356
-0.166374
-0.196391
-0.223056
-0.242639
-0.250354
-0.242346
-0.219023
-0.185915
-0.150261
-0.117334
-0.0895338
-0.0673607
-0.0504229
-0.0378854
-0.0290989
-0.0240358
-0.0232596
-0.0258518
-0.028681
-0.0291393
-0.0288189
-0.0312184
-0.0380505
-0.0487568
-0.0643775
-0.088949
-0.118325
-0.140257
-0.140278
-0.120208
-0.0909127
-0.0625151
-0.0425097
-0.0284151
-0.0219386
-0.0162894
-0.0130592
-0.012597
-0.0160135
-0.0243614
-0.0343344
-0.0492326
-0.0488533
-0.047589
-0.0398658
-0.0118055
-0.169279
-0.14783
-0.123957
-0.102137
-0.0841768
-0.0703562
-0.0575261
-0.0512024
-0.0500812
-0.054308
-0.0641861
-0.079703
-0.100502
-0.125681
-0.153495
-0.181434
-0.206789
-0.224639
-0.231811
-0.225157
-0.205137
-0.176322
-0.144595
-0.114365
-0.0879067
-0.0659822
-0.0485832
-0.0351707
-0.02515
-0.0183423
-0.0152418
-0.0156975
-0.017599
-0.0186007
-0.0195178
-0.0231602
-0.0311102
-0.0428149
-0.0592366
-0.0848273
-0.115465
-0.138729
-0.13995
-0.120622
-0.091301
-0.0622299
-0.0414394
-0.0266219
-0.0196704
-0.0135683
-0.00993561
-0.00921666
-0.0128837
-0.022635
-0.0344395
-0.051884
-0.051675
-0.049575
-0.0415193
-0.0123858
-0.173314
-0.154376
-0.132881
-0.112208
-0.0938189
-0.0783786
-0.064736
-0.056533
-0.0533833
-0.0553384
-0.0628293
-0.0757165
-0.0936342
-0.115737
-0.140436
-0.165486
-0.188991
-0.204759
-0.21164
-0.206812
-0.190575
-0.16643
-0.138931
-0.111701
-0.0869108
-0.0655435
-0.0479147
-0.033814
-0.0227886
-0.0145649
-0.00950406
-0.00790381
-0.00863982
-0.0097982
-0.0112114
-0.0155174
-0.0240498
-0.0362994
-0.0531467
-0.0792679
-0.11079
-0.135449
-0.138123
-0.119979
-0.091182
-0.0619302
-0.0405524
-0.0250665
-0.0176804
-0.0113257
-0.00730511
-0.00618
-0.00987719
-0.0208402
-0.0343909
-0.0543745
-0.0542849
-0.0512262
-0.042875
-0.0128923
-0.176607
-0.159619
-0.140653
-0.120644
-0.101951
-0.0870389
-0.0743721
-0.0655233
-0.0605356
-0.0596366
-0.063939
-0.0734065
-0.0877065
-0.106185
-0.127376
-0.149284
-0.169778
-0.183259
-0.190445
-0.187938
-0.175885
-0.156694
-0.133653
-0.109653
-0.0867563
-0.0661602
-0.0484685
-0.0337841
-0.0219082
-0.0125376
-0.00582651
-0.00225642
-0.00165959
-0.00244832
-0.00415065
-0.00857956
-0.0171098
-0.0292414
-0.0458723
-0.0723533
-0.104963
-0.130676
-0.134995
-0.118084
-0.0902888
-0.0613758
-0.0397111
-0.0236558
-0.015835
-0.00935529
-0.00513728
-0.00361541
-0.00701222
-0.0189375
-0.0341501
-0.0566781
-0.0566249
-0.0525205
-0.0439018
-0.0132981
-0.181945
-0.168058
-0.152802
-0.136195
-0.118605
-0.102574
-0.0888778
-0.0780365
-0.0707978
-0.0676587
-0.0685606
-0.0739445
-0.083715
-0.0973241
-0.113651
-0.131207
-0.14638
-0.160995
-0.167538
-0.16684
-0.158552
-0.143869
-0.124993
-0.104215
-0.0834715
-0.0641104
-0.0469349
-0.032215
-0.0200188
-0.0101318
-0.00243167
0.00272168
0.00461764
0.00406376
0.00198173
-0.00249035
-0.0107402
-0.0225092
-0.0385389
-0.0645717
-0.0972942
-0.123935
-0.128221
-0.11416
-0.0875691
-0.0593536
-0.0379444
-0.0218047
-0.0138558
-0.00721776
-0.00298562
-0.00266596
-0.00437084
-0.0170336
-0.0336785
-0.0586774
-0.0586711
-0.0534368
-0.0446088
-0.0135598
-0.173572
-0.167481
-0.15289
-0.136034
-0.120292
-0.106066
-0.0936584
-0.083599
-0.0764432
-0.0724535
-0.0720941
-0.0758449
-0.0836661
-0.0950687
-0.109043
-0.123962
-0.137516
-0.148695
-0.154011
-0.15266
-0.144592
-0.130988
-0.113742
-0.0947977
-0.0757949
-0.0578842
-0.0417829
-0.0277313
-0.0158448
-0.00599691
0.0019446
0.00781054
0.0107962
0.0110424
0.0105776
0.00516664
-0.0022192
-0.0129747
-0.0283835
-0.0552733
-0.0908053
-0.12067
-0.129379
-0.11104
-0.083957
-0.0560033
-0.0350733
-0.0193663
-0.0118244
-0.00500394
-0.000577113
0.000311539
-0.00110575
-0.0145592
-0.0327559
-0.0605368
-0.0607773
-0.0540531
-0.0450776
-0.0136921
-0.165126
-0.160953
-0.1479
-0.132684
-0.118851
-0.106739
-0.0961789
-0.0873734
-0.0807625
-0.0768369
-0.0760879
-0.0787843
-0.0848472
-0.0938154
-0.104807
-0.116456
-0.126858
-0.134885
-0.138266
-0.136141
-0.128615
-0.116614
-0.101574
-0.0849828
-0.0681321
-0.0519824
-0.0371854
-0.0239909
-0.0126168
-0.00302782
0.00496725
0.0112696
0.0148831
0.0154192
0.0135282
0.0102004
0.00401001
-0.00556971
-0.0200961
-0.0472665
-0.084401
-0.115276
-0.122216
-0.104823
-0.0786327
-0.0520012
-0.0321632
-0.017079
-0.00981539
-0.00301133
0.0012012
0.00228342
0.0011543
-0.0125879
-0.03204
-0.0619837
-0.062476
-0.0541636
-0.0450883
-0.0137448
-0.156066
-0.153054
-0.142188
-0.128969
-0.116913
-0.106568
-0.0975911
-0.0899755
-0.0841133
-0.0804742
-0.0794035
-0.0810581
-0.0853389
-0.091832
-0.0998234
-0.108245
-0.115857
-0.12128
-0.123158
-0.120813
-0.114221
-0.103938
-0.090967
-0.0764428
-0.0614305
-0.0467682
-0.033088
-0.0206624
-0.00973803
-0.000373561
0.00755153
0.0140405
0.0181407
0.0191866
0.0177194
0.0147677
0.00932793
0.000364349
-0.0138643
-0.0409365
-0.0774703
-0.107418
-0.113846
-0.0973818
-0.0727014
-0.0477312
-0.0291137
-0.0147392
-0.00780208
-0.001092
0.00288448
0.00414568
0.00290441
-0.0111037
-0.0315462
-0.0630192
-0.0637859
-0.053853
-0.0446877
-0.0137495
-0.14554
-0.144472
-0.135978
-0.124771
-0.11436
-0.105523
-0.0979265
-0.0914182
-0.0862474
-0.0827807
-0.0812983
-0.081926
-0.0845812
-0.0889497
-0.0944821
-0.100349
-0.105538
-0.109037
-0.109867
-0.107402
-0.10151
-0.092539
-0.0812234
-0.0684435
-0.0550678
-0.0417974
-0.0292087
-0.0175771
-0.00715249
0.00194115
0.00971062
0.0162448
0.0207655
0.0224771
0.021755
0.0193679
0.0147732
0.00628679
-0.00775363
-0.0340358
-0.0690456
-0.0980767
-0.104349
-0.0889174
-0.0660316
-0.0430304
-0.0258749
-0.0123585
-0.0057908
0.000771488
0.00455316
0.00588846
0.00450163
-0.00969326
-0.0308084
-0.063507
-0.0646726
-0.0531407
-0.0438369
-0.0136731
-0.135014
-0.135679
-0.129239
-0.119885
-0.110988
-0.103475
-0.097075
-0.0915352
-0.0869645
-0.0836494
-0.0818406
-0.0816517
-0.0830242
-0.0857124
-0.0892659
-0.0930577
-0.0963415
-0.0983249
-0.0982412
-0.0955754
-0.0901828
-0.0822796
-0.0723796
-0.0611304
-0.0492186
-0.0372204
-0.0256527
-0.0147965
-0.0049005
0.00388999
0.0114702
0.0179456
0.0227422
0.0250807
0.0252341
0.0237854
0.020335
0.0126645
-0.000760619
-0.0258646
-0.0594717
-0.0874618
-0.0935302
-0.0794337
-0.0587385
-0.0379965
-0.0224964
-0.00995927
-0.00379214
0.00258247
0.00618595
0.00744913
0.00604193
-0.00809958
-0.0295757
-0.0632872
-0.0649747
-0.0519538
-0.0424818
-0.0134837
-0.124981
-0.126645
-0.121907
-0.114269
-0.106792
-0.100463
-0.0950975
-0.0904052
-0.0863986
-0.0832909
-0.0812953
-0.0805121
-0.0808964
-0.0822545
-0.0842495
-0.0864002
-0.0881553
-0.0888945
-0.0880431
-0.0851981
-0.0802085
-0.0731792
-0.0644538
-0.0545022
-0.0438671
-0.0330206
-0.0224124
-0.0123152
-0.00297702
0.00546551
0.0128328
0.0191836
0.0241207
0.0269896
0.0279942
0.0277074
0.0257079
0.0193126
0.0068079
-0.0171494
-0.0492291
-0.0756714
-0.081541
-0.0691749
-0.0510136
-0.0327201
-0.0190126
-0.00755907
-0.00181782
0.00433279
0.0077788
0.00884487
0.0075176
-0.00628095
-0.0277823
-0.0621195
-0.0644746
-0.0502258
-0.0405935
-0.0131506
-0.114988
-0.117386
-0.114138
-0.10806
-0.101883
-0.0966112
-0.0921479
-0.0882086
-0.0847386
-0.0818794
-0.0798024
-0.0785985
-0.078239
-0.0785746
-0.0793648
-0.0802517
-0.0808105
-0.0805799
-0.0791326
-0.0761444
-0.0714643
-0.0651298
-0.057371
-0.048525
-0.0390122
-0.0292121
-0.0195058
-0.0101445
-0.00137857
0.00666904
0.0137953
0.019993
0.0249803
0.0282567
0.0299795
0.0308192
0.0304149
0.0256045
0.0141191
-0.00862787
-0.0387284
-0.063059
-0.0687272
-0.0584475
-0.0430796
-0.0273262
-0.0154724
-0.00517823
0.000122413
0.0060186
0.00933973
0.0101088
0.00890617
-0.00425645
-0.0253422
-0.0597427
-0.0629554
-0.0479123
-0.0381674
-0.0126466
-0.105118
-0.108169
-0.10616
-0.10142
-0.0963918
-0.0920565
-0.0883836
-0.0851085
-0.0821333
-0.0795409
-0.0774652
-0.0759889
-0.0751004
-0.0746952
-0.074589
-0.0745236
-0.074182
-0.073222
-0.0713199
-0.068219
-0.0637852
-0.058019
-0.0510699
-0.0431728
-0.0346468
-0.0257927
-0.0169304
-0.00828132
-9.09948e-05
0.00752257
0.0143698
0.0203945
0.0253671
0.0288334
0.0311893
0.0329268
0.0339253
0.03072
0.0203833
-0.000811764
-0.0283577
-0.0500292
-0.0555212
-0.0476212
-0.0351911
-0.0219594
-0.0119311
-0.00283509
0.0020238
0.00764045
0.010879
0.0112869
0.0102161
-0.0019905
-0.022133
-0.0559508
-0.0602002
-0.0449488
-0.0352292
-0.0119524
-0.095751
-0.0991625
-0.0980957
-0.0944773
-0.0904489
-0.0869345
-0.0839492
-0.0812548
-0.0787302
-0.0764148
-0.0744105
-0.0727894
-0.0715528
-0.0706317
-0.0698895
-0.0691356
-0.0681386
-0.0666453
-0.0644143
-0.0612475
-0.0570317
-0.0517458
-0.0454827
-0.0384035
-0.0307473
-0.0227496
-0.0146758
-0.00671513
0.000902247
0.00805721
0.0145854
0.0204052
0.0253212
0.0289567
0.0316877
0.0339667
0.0358829
0.0339656
0.0249579
0.00593621
-0.0183537
-0.0370337
-0.0424879
-0.0371198
-0.027606
-0.0167692
-0.00845209
-0.000547928
0.00388537
0.00920303
0.0124088
0.0124516
0.0115138
0.000595472
-0.0180841
-0.0506446
-0.056082
-0.0413911
-0.0318489
-0.0110623
-0.0868649
-0.090392
-0.0900417
-0.0873578
-0.0841877
-0.0813826
-0.0789903
-0.0768019
-0.0746862
-0.0726508
-0.0707699
-0.0691056
-0.0676684
-0.0664119
-0.0652397
-0.0640125
-0.0625622
-0.0607044
-0.0582615
-0.0550827
-0.0510743
-0.0462061
-0.0405343
-0.0341677
-0.0272836
-0.0200634
-0.0127246
-0.00542714
0.00162285
0.00830671
0.0144807
0.020048
0.0248565
0.0285836
0.0315342
0.0340381
0.036291
0.035173
0.0276521
0.011475
-0.00900002
-0.0247578
-0.0303311
-0.027379
-0.0205541
-0.0118898
-0.00510374
0.00166149
0.00570534
0.0107159
0.0139442
0.013705
0.0129148
0.00356061
-0.0132291
-0.0438807
-0.0506145
-0.0372997
-0.0281398
-0.00998868
-0.0783609
-0.0819205
-0.0821198
-0.0801951
-0.0777424
-0.0755383
-0.0736521
-0.0719014
-0.0701525
-0.0683907
-0.0666682
-0.065037
-0.0635123
-0.0620652
-0.0606281
-0.0591016
-0.0573649
-0.0552849
-0.0527321
-0.0495929
-0.0457933
-0.0413016
-0.0361508
-0.0304134
-0.0242198
-0.0177076
-0.0110534
-0.00439189
0.00209893
0.00830374
0.0140954
0.019369
0.02401
0.0277409
0.0307816
0.033306
0.035478
0.0347686
0.0287597
0.0157064
-0.000882738
-0.0140369
-0.0197018
-0.018746
-0.0142015
-0.00742241
-0.00195205
0.00376631
0.00747135
0.0121839
0.0154996
0.0151608
0.0145565
0.00691235
-0.0077241
-0.0359167
-0.0439338
-0.0327635
-0.0242466
-0.00876407
-0.0703255
-0.0738339
-0.0744226
-0.0730954
-0.0712307
-0.0695287
-0.068069
-0.0666928
-0.0652691
-0.063768
-0.0622246
-0.0606813
-0.0591549
-0.0576289
-0.0560571
-0.0543696
-0.0524802
-0.0502936
-0.0477166
-0.0446657
-0.0410841
-0.0369432
-0.0322616
-0.0270871
-0.0215156
-0.0156507
-0.0096344
-0.00357912
0.0023637
0.00808558
0.0134737
0.0184218
0.0228387
0.0264854
0.0295052
0.0319279
0.0338298
0.0333239
0.0286497
0.0184796
0.00541699
-0.0054419
-0.0109651
-0.011398
-0.00863173
-0.0034287
0.000946862
0.00573956
0.00915669
0.0135871
0.0170635
0.0169081
0.0165636
0.0105994
-0.00185995
-0.0272247
-0.0363681
-0.0279242
-0.0203303
-0.00744072
-0.0628021
-0.0661599
-0.0670034
-0.0661416
-0.0647552
-0.0634675
-0.0623627
-0.0613032
-0.0601641
-0.0589064
-0.057551
-0.0561321
-0.0546666
-0.0531455
-0.0515383
-0.0497963
-0.0478585
-0.0456575
-0.0431273
-0.0402077
-0.0368567
-0.0330503
-0.0287992
-0.0241351
-0.0191287
-0.0138578
-0.00843591
-0.00295603
0.00245379
0.00769545
0.0126655
0.0172619
0.0214081
0.0248975
0.0278044
0.0300532
0.0316465
0.0312445
0.0276261
0.0198509
0.00978055
0.000981832
-0.0041146
-0.00534354
-0.00386005
6.4432e-05
0.00355066
0.00755602
0.0107282
0.0148797
0.0185635
0.0189377
0.01897
0.0144755
0.00394009
-0.0184297
-0.0283891
-0.0229615
-0.0165441
-0.00608476
-0.0557536
-0.0589092
-0.0599119
-0.059408
-0.058405
-0.0574541
-0.0566404
-0.0558453
-0.0549522
-0.0539164
-0.0527489
-0.0514766
-0.0501146
-0.0486587
-0.047089
-0.045372
-0.0434653
-0.0413215
-0.0388946
-0.036142
-0.0330337
-0.0295512
-0.0257013
-0.0215053
-0.0170161
-0.0122921
-0.00742395
-0.00248821
0.00240757
0.00717648
0.0117233
0.0159532
0.0197911
0.0230644
0.0257932
0.0278372
0.029155
0.0288183
0.0260223
0.0201593
0.012523
0.00555644
0.0010863
-0.000484936
0.000141528
0.00305631
0.0058345
0.00918731
0.0121501
0.0160158
0.0198719
0.0210541
0.0215623
0.0181826
0.00914078
-0.0101775
-0.020488
-0.0180677
-0.0130131
-0.00476597
-0.0491738
-0.0521021
-0.0531891
-0.0529526
-0.0522514
-0.0515706
-0.0509925
-0.0504153
-0.0497319
-0.0488949
-0.047908
-0.0467921
-0.0455606
-0.0442109
-0.04273
-0.0410955
-0.039278
-0.0372445
-0.0349634
-0.0324053
-0.0295497
-0.0263833
-0.0229112
-0.0191485
-0.0151355
-0.0109165
-0.00656383
-0.00214041
0.00226322
0.00657185
0.0106977
0.0145539
0.0180636
0.021085
0.0235977
0.0254362
0.0265395
0.0262759
0.0241448
0.0197819
0.0140794
0.00868463
0.00492894
0.0033168
0.00342442
0.00556237
0.00778882
0.0106063
0.0133787
0.0169546
0.0208554
0.0228747
0.0238034
0.0211326
0.0132039
-0.00299609
-0.0130892
-0.0134256
-0.00983501
-0.00354895
-0.0430643
-0.0457452
-0.0468574
-0.0468157
-0.0463498
-0.0458829
-0.045493
-0.045093
-0.044586
-0.0439249
-0.0431068
-0.0421474
-0.0410598
-0.0398419
-0.0384839
-0.0369707
-0.0352826
-0.0333967
-0.0312915
-0.0289472
-0.0263505
-0.0234928
-0.0203787
-0.0170196
-0.0134469
-0.00969479
-0.00582154
-0.00187839
0.00205777
0.00592331
0.00963621
0.0131212
0.0162998
0.0190544
0.0213365
0.0229888
0.0239426
0.0237772
0.0221985
0.019008
0.0148211
0.0107241
0.00768357
0.00621073
0.00605264
0.00760752
0.00941282
0.0117918
0.0143651
0.0176407
0.0214092
0.0240232
0.0251256
0.0228169
0.0158188
0.00276265
-0.00657554
-0.00921033
-0.00707731
-0.00248583
-0.0374067
-0.0398333
-0.0409297
-0.0410266
-0.0407418
-0.0404425
-0.0402009
-0.0399433
-0.0395828
-0.0390738
-0.0384092
-0.0376011
-0.0366628
-0.0355894
-0.0343735
-0.0330053
-0.0314717
-0.0297571
-0.0278468
-0.0257277
-0.023392
-0.0208345
-0.0180601
-0.015078
-0.0119134
-0.00859317
-0.00516479
-0.00166979
0.00182596
0.00526984
0.00858545
0.0117098
0.0145642
0.0170517
0.0191092
0.0206029
0.0214626
0.0214159
0.0203019
0.0180274
0.0150133
0.0119657
0.00959195
0.00834823
0.00809493
0.0092249
0.0107104
0.0127256
0.0150711
0.0180201
0.0214572
0.0241803
0.0252613
0.0231716
0.0170472
0.00692955
-0.00127298
-0.00555697
-0.00476353
-0.00160868
-0.0321837
-0.0343598
-0.0354118
-0.0356034
-0.0354559
-0.0352861
-0.03516
-0.0350151
-0.0347747
-0.0343965
-0.0338714
-0.0332087
-0.0324114
-0.0314841
-0.030419
-0.029208
-0.0278424
-0.0263116
-0.0246057
-0.0227163
-0.0206389
-0.0183712
-0.0159184
-0.0132886
-0.0105023
-0.007581
-0.00456403
-0.0014849
0.00159963
0.00464632
0.00758565
0.0103654
0.01291
0.0151414
0.016992
0.0183542
0.0191609
0.0192434
0.0185191
0.0169518
0.01484
0.0126377
0.0108568
0.00986715
0.00962168
0.0104535
0.0116896
0.0133982
0.0154798
0.0180753
0.0210596
0.0234828
0.0243894
0.0225204
0.0172322
0.00956308
0.00262733
-0.00254233
-0.00287164
-0.000925521
-0.0273785
-0.0293125
-0.030301
-0.0305539
-0.0305093
-0.0304386
-0.0304009
-0.0303441
-0.0302009
-0.0299327
-0.0295285
-0.0289924
-0.0283323
-0.0275503
-0.0266381
-0.0255881
-0.0243948
-0.0230515
-0.0215517
-0.0198899
-0.0180639
-0.0160733
-0.0139236
-0.0116219
-0.00918556
-0.00663183
-0.00399364
-0.00129811
0.00140559
0.00408256
0.00667111
0.00912796
0.0113822
0.0133748
0.0150391
0.016291
0.0170725
0.0172818
0.0168778
0.0158558
0.0144352
0.0129019
0.0116239
0.0108846
0.0107031
0.0113331
0.012367
0.0138124
0.0156036
0.0178244
0.0203204
0.0222468
0.0228818
0.0212608
0.0167636
0.0109276
0.00516115
-0.000179373
-0.00135532
-0.000416394
-0.0229696
-0.0246752
-0.0255897
-0.0258794
-0.0259107
-0.0259148
-0.0259441
-0.0259551
-0.0258896
-0.0257126
-0.0254135
-0.0249931
-0.0244577
-0.0238114
-0.0230466
-0.0221546
-0.0211309
-0.0199718
-0.0186733
-0.0172317
-0.0156464
-0.0139179
-0.0120517
-0.0100542
-0.00794024
-0.00572392
-0.00343284
-0.00108911
0.00126575
0.00360306
0.00586787
0.00802598
0.010014
0.0117904
0.0132848
0.0144426
0.0152113
0.0155321
0.0153878
0.0147875
0.0138912
0.0128746
0.0120092
0.0114996
0.0114066
0.0119035
0.0127694
0.0139825
0.0154753
0.0172974
0.0191072
0.0207232
0.0210794
0.0197023
0.0159274
0.0113657
0.00649623
0.00158044
-0.000159488
-4.25245e-05
-0.0189371
-0.0204309
-0.0212666
-0.0215751
-0.0216616
-0.0217214
-0.0218006
-0.0218631
-0.021859
-0.0217573
-0.0215479
-0.0212308
-0.0208099
-0.020286
-0.0196571
-0.0189147
-0.0180531
-0.01707
-0.0159631
-0.0147303
-0.0133715
-0.0118879
-0.0102846
-0.00856734
-0.00674877
-0.00484051
-0.0028656
-0.000842066
0.00119502
0.00322258
0.00519276
0.00707796
0.0088239
0.0104029
0.0117441
0.0128188
0.0135775
0.0139891
0.0140491
0.013768
0.0132664
0.0126502
0.0121111
0.0117981
0.0117945
0.0122046
0.0129297
0.0139344
0.0151457
0.0166021
0.0179726
0.0191208
0.0192101
0.0180405
0.0149051
0.0112263
0.00724519
0.00283691
0.000766639
0.000233138
-0.0152612
-0.0165611
-0.0173169
-0.0176316
-0.0177574
-0.0178583
-0.0179741
-0.018075
-0.0181189
-0.0180788
-0.0179451
-0.0177175
-0.0173963
-0.0169826
-0.0164776
-0.0158738
-0.0151638
-0.014345
-0.0134167
-0.0123781
-0.0112293
-0.0099716
-0.0086096
-0.00714837
-0.00559855
-0.00396972
-0.00228114
-0.000547205
0.00120241
0.00294894
0.00465324
0.00629271
0.00781817
0.00920939
0.0104179
0.0114168
0.0121635
0.0126423
0.0128544
0.0128094
0.0126006
0.0123011
0.0120017
0.011849
0.0119236
0.0122775
0.0128823
0.013701
0.0146585
0.0157845
0.0167701
0.0175373
0.0174067
0.0163925
0.0138059
0.0107572
0.00749103
0.00366385
0.00145778
0.000436918
-0.011921
-0.0130457
-0.0137241
-0.0140364
-0.0141897
-0.0143204
-0.0144624
-0.0145915
-0.0146724
-0.014682
-0.0146112
-0.0144593
-0.0142267
-0.0139135
-0.0135171
-0.0130361
-0.0124638
-0.0117959
-0.0110314
-0.0101702
-0.0092132
-0.00816134
-0.00701854
-0.00578908
-0.00448191
-0.00310487
-0.00167369
-0.000200352
0.00129113
0.00278573
0.00425025
0.00566817
0.00699802
0.00822127
0.00930427
0.0102256
0.0109537
0.0114756
0.011794
0.0119178
0.0119174
0.0117881
0.0117217
0.0117069
0.0118458
0.0121619
0.0126631
0.0133184
0.0140533
0.0148919
0.0155555
0.0160266
0.0157366
0.014825
0.012695
0.0101203
0.00739813
0.00414356
0.0019409
0.000583202
-0.00889687
-0.0098651
-0.0104704
-0.0107748
-0.0109467
-0.0110986
-0.011259
-0.0114083
-0.0115173
-0.0115665
-0.0115477
-0.0114598
-0.0113029
-0.0110755
-0.0107767
-0.0104035
-0.00995345
-0.0094213
-0.00880496
-0.00810417
-0.00731986
-0.00645313
-0.00550721
-0.00448559
-0.00339564
-0.00224369
-0.00104251
0.000198435
0.00145963
0.00272888
0.00397952
0.00519773
0.00635145
0.00742635
0.00838881
0.00922989
0.00992907
0.0104729
0.0108599
0.0110958
0.011221
0.0112778
0.0113422
0.0114257
0.0116088
0.0118962
0.0123085
0.0128229
0.013367
0.0139645
0.0143717
0.0146144
0.0142226
0.0133749
0.0116121
0.00941636
0.00710708
0.00435691
0.00224231
0.000681998
-0.00616995
-0.00699978
-0.00753759
-0.00783068
-0.00801477
-0.00818134
-0.00835422
-0.00851768
-0.00864778
-0.00872816
-0.00875193
-0.00871755
-0.00862472
-0.00847196
-0.00825622
-0.00797621
-0.00763324
-0.00722115
-0.0067366
-0.00617866
-0.00554802
-0.0048458
-0.00407475
-0.00323763
-0.00234032
-0.0013879
-0.000390477
0.000644422
0.00170122
0.00277018
0.00383021
0.00487036
0.00586512
0.00680363
0.00765843