/*--------------------------------*- C++ -*----------------------------------*\
| =========                 |                                                 |
| \\      /  F ield         | OpenFOAM: The Open Source CFD Toolbox           |
|  \\    /   O peration     | Version:  2512                                  |
|   \\  /    A nd           | Website:  www.openfoam.com                      |
|    \\/     M anipulation  |                                                 |
\*---------------------------------------------------------------------------*/
FoamFile
{
    version     2.0;
    format      ascii;
    arch        "LSB;label=32;scalar=64";
    class       surfaceScalarField;
    location    "91";
    object      phi;
}
// * * * * * * * * * * * * * * * * * * * * * * * * * * * * * * * * * * * * * //

dimensions      [0 3 -1 0 0 0 0];

oriented        oriented;

internalField   nonuniform List<scalar> 
26232
(
0.000141724
0.000874943
-0.00101667
0.000652608
0.00139786
-0.00190875
0.00164852
0.000856448
-0.00185236
0.00326246
-0.000673382
-0.000940556
0.00563919
-0.00314072
0.000763991
0.00892533
-0.00650942
0.00322328
0.013255
-0.0107457
0.00641605
0.0187317
-0.0158023
0.0103255
0.0254092
-0.0216028
0.0149253
0.0332749
-0.0280325
0.0201668
0.0422396
-0.0349357
0.025971
0.0521376
-0.042124
0.0322259
0.0627377
-0.0493898
0.0387897
0.073763
-0.0565258
0.0455004
0.0849183
-0.0633433
0.052188
0.0959187
-0.0696892
0.0586887
0.106517
-0.0754572
0.0648585
0.116526
-0.0805931
0.0705843
0.12583
-0.0850928
0.0757891
0.13439
-0.0890024
0.0804428
0.142228
-0.0923809
0.0845424
0.149434
-0.0953702
0.0881644
0.155996
-0.0979211
0.0913586
-0.100458
0.0945648
0.16189
0.000186649
0.000688293
0.000878647
0.000705865
0.00222481
-0.000489712
0.00438157
-0.00283015
0.00750695
-0.00626611
0.0117448
-0.0107473
0.017202
-0.016203
0.0239236
-0.0225238
0.0318711
-0.0295503
0.0409117
-0.0370731
0.0508217
-0.0448457
0.0613055
-0.0526077
0.0720269
-0.0601113
0.0826476
-0.0671464
0.0928639
-0.0735596
0.102439
-0.0792643
0.111223
-0.084241
0.11916
-0.0885302
0.126284
-0.0922175
0.132701
-0.0954184
0.138573
-0.098253
0.144068
-0.100866
0.149426
-0.103278
-0.105869
0.154837
0.00024317
0.000445123
0.00114705
-0.000198011
0.00289278
-0.00223544
0.00565571
-0.00559308
0.00959365
-0.0102041
0.014821
-0.0159746
0.0213773
-0.0227593
0.0292009
-0.0303474
0.0381159
-0.0384654
0.0478412
-0.0467984
0.0580199
-0.0550244
0.0682643
-0.0628521
0.0782061
-0.0700531
0.0875418
-0.0764821
0.0960646
-0.0820824
0.10368
-0.0868792
0.1104
-0.0909614
0.116329
-0.0944588
0.121628
-0.0975174
0.126491
-0.100281
0.131108
-0.10287
0.135638
-0.105396
0.140239
-0.107879
-0.110567
0.144937
0.000319421
0.000125702
0.00147959
-0.00135818
0.00368435
-0.0044402
0.00711264
-0.00902137
0.0118946
-0.014986
0.0180743
-0.0221543
0.0255761
-0.0302611
0.0341892
-0.0389604
0.0435808
-0.047857
0.0533388
-0.0565563
0.0630312
-0.0647168
0.0722696
-0.0720906
0.0807605
-0.078544
0.0883347
-0.0840562
0.0949524
-0.0887002
0.100686
-0.092613
0.105687
-0.0959626
0.110147
-0.0989189
0.114263
-0.101633
0.118207
-0.104225
0.12212
-0.106782
0.126096
-0.109372
0.130215
-0.111999
-0.114835
0.134483
0.00041868
-0.000292978
0.00188198
-0.00282148
0.0045975
-0.00715571
0.00872026
-0.0131441
0.0143127
-0.0205784
0.0213013
-0.0291429
0.0294543
-0.0384142
0.0383978
-0.0479039
0.0476695
-0.0571287
0.0567959
-0.0656827
0.0653694
-0.0732902
0.0731051
-0.0798262
0.0798662
-0.0853051
0.0856575
-0.0898475
0.0905935
-0.0936362
0.094854
-0.0968735
0.0986401
-0.0997486
0.102139
-0.102418
0.105504
-0.104998
0.108848
-0.107569
0.112247
-0.110182
0.115744
-0.11287
0.11938
-0.115634
-0.118583
0.123128
0.000539509
-0.000832487
0.0023437
-0.00462567
0.00559593
-0.0104079
0.0103892
-0.0179374
0.016672
-0.0268612
0.0242127
-0.0366835
0.0326104
-0.0468119
0.0413588
-0.0566523
0.0499406
-0.0657106
0.057922
-0.0736641
0.0650163
-0.0803845
0.0711061
-0.085916
0.0762252
-0.0904242
0.0805147
-0.094137
0.0841695
-0.097291
0.0873914
-0.100095
0.090357
-0.102714
0.0932033
-0.105264
0.0960266
-0.107821
0.0988898
-0.110432
0.101831
-0.113123
0.104872
-0.11591
0.108032
-0.118794
-0.121835
0.111284
0.000676856
-0.00150934
0.00284106
-0.00678988
0.00661642
-0.0141833
0.0119901
-0.0233111
0.0187553
-0.0336264
0.0265054
-0.0444337
0.0346986
-0.055005
0.0427693
-0.064723
0.0502433
-0.0731846
0.0568142
-0.080235
0.0623654
-0.0859357
0.0669434
-0.090494
0.0707032
-0.0941841
0.0738475
-0.0972813
0.0765771
-0.100021
0.0790613
-0.10258
0.0814265
-0.105079
0.083759
-0.107597
0.0861137
-0.110176
0.0885236
-0.112842
0.0910076
-0.115607
0.0935749
-0.118478
0.0962343
-0.121454
-0.124561
0.0989609
0.000823225
-0.00233257
0.00334168
-0.00930833
0.00758003
-0.0184217
0.0133782
-0.0291093
0.0203511
-0.0405993
0.0279364
-0.052019
0.0355172
-0.0625858
0.0425612
-0.0717669
0.0487182
-0.0793416
0.0538496
-0.0853665
0.0579975
-0.0900836
0.0613206
-0.0938171
0.0640259
-0.0968894
0.0663153
-0.0995707
0.0683552
-0.102061
0.0702674
-0.104492
0.0721328
-0.106945
0.0740017
-0.109465
0.0759037
-0.112078
0.0778562
-0.114794
0.0798684
-0.117619
0.0819448
-0.120554
0.0840894
-0.123598
-0.126756
0.0862838
0.000969494
-0.00330206
0.0038085
-0.0121473
0.00840379
-0.0230169
0.014419
-0.0351245
0.0212968
-0.0474771
0.028373
-0.0590952
0.03504
-0.0692528
0.0408761
-0.0776031
0.0456935
-0.0841589
0.0495095
-0.0891825
0.0524765
-0.0930505
0.0548034
-0.0961439
0.0566959
-0.0987819
0.0583228
-0.101198
0.0598058
-0.103544
0.0612246
-0.10591
0.0626273
-0.108348
0.0640421
-0.11088
0.065485
-0.113521
0.0669654
-0.116275
0.0684883
-0.119142
0.0700561
-0.122122
0.0716696
-0.125212
-0.128403
0.0733173
0.00110532
-0.00440738
0.0042035
-0.0152455
0.00901196
-0.0278254
0.01501
-0.0411226
0.0215049
-0.053972
0.0278045
-0.0653948
0.0333866
-0.0748349
0.037981
-0.0821975
0.0415556
-0.0877336
0.0442421
-0.091869
0.0462474
-0.0950559
0.0477833
-0.0976799
0.0490258
-0.100024
0.0501015
-0.102273
0.0510924
-0.104535
0.0520474
-0.106865
0.0529943
-0.109294
0.0539487
-0.111835
0.05492
-0.114492
0.0559135
-0.117268
0.0569323
-0.120161
0.0579774
-0.123167
0.059048
-0.126283
-0.129494
0.0601389
0.00122045
-0.00562783
0.00449298
-0.018518
0.00934713
-0.0326796
0.0150949
-0.0468703
0.0209678
-0.0598449
0.0263198
-0.0707469
0.030762
-0.079277
0.0341792
-0.0856146
0.0366611
-0.0902156
0.0384041
-0.0936121
0.0396261
-0.0962778
0.0405141
-0.0985679
0.0412051
-0.100715
0.0417875
-0.102856
0.0423134
-0.10506
0.0428118
-0.107364
0.0432987
-0.109781
0.0437834
-0.112319
0.0442718
-0.11498
0.0447672
-0.117764
0.0452715
-0.120665
0.0457846
-0.12368
0.0463043
-0.126802
-0.130019
0.0468289
0.00130853
-0.00693636
0.00465455
-0.0218641
0.00937867
-0.0374037
0.0146672
-0.0521588
0.0197458
-0.0649235
0.0240713
-0.0750724
0.0274036
-0.0826094
0.0297587
-0.0879697
0.0313049
-0.0917618
0.0322615
-0.0945686
0.0328294
-0.0968457
0.0331605
-0.098899
0.0333545
-0.100909
0.03347
-0.102971
0.033539
-0.10513
0.0335786
-0.107403
0.0335982
-0.109801
0.0336038
-0.112325
0.0335995
-0.114976
0.0335881
-0.117752
0.0335708
-0.120648
0.0335476
-0.123657
0.0335155
-0.12677
0.0334751
-0.129978
-0.000253944
-0.000976388
0.00123033
-0.000887068
-0.00282143
0.00345455
-0.0018257
-0.00455019
0.00548883
-0.00301488
-0.00611052
0.0072997
-0.00440919
-0.00748948
0.00888379
-0.00596935
-0.00871231
0.0102725
-0.00766092
-0.00982801
0.0115196
-0.00945397
-0.0108932
0.0126863
-0.0113229
-0.0119592
0.0138281
-0.0132457
-0.0130635
0.0149862
-0.0152028
-0.0142266
0.0161838
-0.0171758
-0.0154526
0.0174256
-0.0191452
-0.0167308
0.0187001
-0.0210888
-0.0180384
0.0199821
-0.0229808
-0.0193422
0.0212341
-0.0247903
-0.0205984
0.0224079
-0.0264811
-0.0217533
0.0234442
-0.028012
-0.0227423
0.0242732
-0.0293378
-0.0234894
0.0248152
-0.0304113
-0.0239093
0.0249828
-0.0311865
-0.0239102
0.0246854
-0.0316231
-0.0233938
0.0238304
-0.0317047
-0.0222416
0.0223232
-0.0203476
-0.0314635
0.0201065
-0.000316337
-0.000660051
-0.00109024
-0.00204752
-0.0022191
-0.00342134
-0.00362799
-0.00470163
-0.0052587
-0.00585877
-0.00706533
-0.00690568
-0.0090118
-0.00788154
-0.01107
-0.00883504
-0.0132181
-0.00981113
-0.0154386
-0.0108429
-0.0177166
-0.0119486
-0.0200376
-0.0131316
-0.0223855
-0.0143828
-0.0247416
-0.0156824
-0.0270829
-0.0170008
-0.0293819
-0.0182994
-0.0316059
-0.0195293
-0.0337175
-0.0206307
-0.0356759
-0.021531
-0.0374403
-0.0221448
-0.0389741
-0.0223765
-0.0402463
-0.0221216
-0.0412343
-0.0212536
-0.0196376
-0.0419443
-0.000354651
-0.000305399
-0.00121392
-0.00118825
-0.00245455
-0.0021807
-0.0039863
-0.00316988
-0.00574048
-0.00410459
-0.0076651
-0.00498106
-0.00972146
-0.00582518
-0.0118811
-0.00667544
-0.0141227
-0.00756943
-0.0164299
-0.00853575
-0.0187879
-0.00959059
-0.0211817
-0.0107377
-0.0235946
-0.01197
-0.0260062
-0.0132708
-0.0283922
-0.0146148
-0.0307232
-0.0159683
-0.0329645
-0.0172881
-0.0350753
-0.0185198
-0.03701
-0.0195963
-0.0387212
-0.0204337
-0.0401669
-0.0209308
-0.0413139
-0.0209745
-0.0421291
-0.0204385
-0.0191471
-0.0426196
-0.000364274
5.88749e-05
-0.00124503
-0.000307494
-0.00250934
-0.000916401
-0.00405767
-0.00162154
-0.00581346
-0.0023488
-0.00771888
-0.00307564
-0.00973113
-0.00381294
-0.0118186
-0.00458793
-0.0139574
-0.00543066
-0.0161277
-0.0063655
-0.0183109
-0.00740731
-0.0204879
-0.0085608
-0.0226367
-0.00982123
-0.0247321
-0.0111754
-0.0267447
-0.0126022
-0.0286403
-0.0140727
-0.030379
-0.0155494
-0.0319135
-0.0169853
-0.033188
-0.0183217
-0.0341377
-0.019484
-0.0346952
-0.0203732
-0.0348026
-0.0208672
-0.0344016
-0.0208395
-0.0200811
-0.0334676
-0.000344663
0.000403538
-0.00118147
0.000529309
-0.00237932
0.000281457
-0.00383612
-0.000164741
-0.00546951
-0.000715411
-0.0072157
-0.00132945
-0.00902594
-0.00200269
-0.0108622
-0.00275165
-0.0126937
-0.00359916
-0.0144932
-0.00456601
-0.0162341
-0.00566644
-0.0178884
-0.00690652
-0.0194255
-0.00828409
-0.0208119
-0.00978901
-0.0220108
-0.0114033
-0.0229823
-0.0131012
-0.0236828
-0.0148489
-0.0240636
-0.0166045
-0.0240681
-0.0183173
-0.0236263
-0.0199258
-0.0226505
-0.021349
-0.0210489
-0.0224687
-0.0187514
-0.023137
-0.0232602
-0.0155722
-0.000298537
0.000702075
-0.00103105
0.00126182
-0.00207932
0.00132972
-0.00334153
0.00109747
-0.00473293
0.000675996
-0.00618243
0.000120046
-0.00763364
-0.000551482
-0.00903794
-0.00134735
-0.0103532
-0.00228388
-0.0115399
-0.00337931
-0.0125584
-0.00464794
-0.0133674
-0.00609755
-0.0139231
-0.00772833
-0.0141799
-0.00953226
-0.0140905
-0.0114927
-0.0136074
-0.0135843
-0.0126837
-0.0157726
-0.0112729
-0.0180152
-0.00932814
-0.020262
-0.00679758
-0.0224564
-0.00361158
-0.024535
0.000339735
-0.02642
0.00517129
-0.0279685
-0.0289562
0.0108672
-0.000232602
0.000934678
-0.000812604
0.00184182
-0.00163939
0.00215651
-0.00261704
0.00207512
-0.00365795
0.00171691
-0.00468497
0.00114707
-0.00562719
0.000390735
-0.00642492
-0.000549624
-0.00701964
-0.00168915
-0.00735504
-0.00304391
-0.00737424
-0.00462874
-0.00701896
-0.00645283
-0.00622992
-0.00851737
-0.00494758
-0.0108146
-0.00311437
-0.0133259
-0.00067655
-0.0160221
0.00241394
-0.0188631
0.00619797
-0.0217993
0.0107092
-0.0247733
0.0159755
-0.0277227
0.0220225
-0.0305821
0.0289059
-0.0333034
0.0366065
-0.0356691
-0.0381394
0.0457897
-0.000155589
0.00109027
-0.000551012
0.00223725
-0.00110467
0.00271017
-0.00172685
0.0026973
-0.00232747
0.00231753
-0.00281994
0.00163954
-0.00312264
0.000693434
-0.00315613
-0.000516135
-0.00284504
-0.00200024
-0.0021139
-0.00377506
-0.000887588
-0.00585505
0.000908148
-0.00824857
0.00334532
-0.0109545
0.00649017
-0.0139595
0.010401
-0.0172368
0.0151251
-0.0207462
0.0206963
-0.0244343
0.0271343
-0.0282373
0.0344447
-0.0320836
0.0426217
-0.0358998
0.0516427
-0.039603
0.0615226
-0.0431833
0.0721486
-0.0462952
-0.0500405
0.0840497
-7.71361e-05
0.0011674
-0.000274487
0.0024346
-0.000525312
0.00296099
-0.000744063
0.00291605
-0.000837083
0.00241055
-0.000707953
0.00151041
-0.000259998
0.000245479
0.000602355
-0.00137849
0.00197399
-0.00337187
0.00394729
-0.00574837
0.0066111
-0.00851885
0.0100475
-0.0116849
0.0143276
-0.0152346
0.0195075
-0.0191394
0.025624
-0.0233533
0.0326914
-0.0278136
0.0407007
-0.0324436
0.0496202
-0.0371568
0.0593988
-0.0418622
0.0699713
-0.0464722
0.0812628
-0.0508945
0.0932135
-0.055134
0.105697
-0.058779
-0.0632463
0.118903
-5.62059e-06
0.00117302
-7.72478e-06
0.0024367
5.37842e-05
0.00289948
0.000264746
0.00270508
0.000725133
0.00195016
0.0015425
0.000693045
0.00282784
-0.00103986
0.00469346
-0.00324411
0.00724817
-0.00592658
0.0105943
-0.00909445
0.0148218
-0.0127464
0.0200024
-0.0168656
0.026183
-0.0214152
0.0333799
-0.0263362
0.0415755
-0.0315489
0.0507181
-0.0369561
0.0607236
-0.0424492
0.0714826
-0.0479157
0.0828678
-0.0532475
0.0947421
-0.0583466
0.106978
-0.06313
0.119429
-0.0675855
0.132068
-0.0714178
-0.0758395
0.144661
5.40192e-05
0.001119
0.000233553
0.00225717
0.000604131
0.00252891
0.00125811
0.00205111
0.00230484
0.00090343
0.00386438
-0.000866492
0.00606143
-0.00323692
0.00901902
-0.0062017
0.0128508
-0.00975836
0.0176525
-0.0138961
0.0234921
-0.018586
0.030401
-0.0237745
0.0383668
-0.029381
0.0473299
-0.0352993
0.0571846
-0.0414037
0.0677856
-0.0475572
0.0789585
-0.053622
0.0905132
-0.0594705
0.10226
-0.0649938
0.114023
-0.0701103
0.125661
-0.0747674
0.137029
-0.0789538
0.148154
-0.0825431
-0.0860854
0.1584
0.000102337
0.00045076
0.00112731
0.00223786
0.00390528
0.00626207
0.0094412
0.013565
0.018732
0.0250027
0.0323877
0.0408391
0.0502478
0.060449
0.0712333
0.0823649
0.0936014
0.104715
0.11551
0.125843
0.135618
0.144829
0.153644
0.162124
-0.0287672
-0.0251803
0.022484
-0.0253524
-0.0181214
0.0147067
-0.0210945
-0.00865583
0.00439796
-0.0161605
0.00308551
-0.00801952
-0.0105728
0.0171892
-0.022777
-0.00450763
0.0332402
-0.0393054
0.00181333
0.0506096
-0.0569306
0.00810892
0.0684816
-0.0747772
0.0138259
0.0861614
-0.0918784
0.0186446
0.102498
-0.107317
0.0225071
0.116659
-0.120522
0.0256607
0.128148
-0.131302
0.0290475
0.135843
-0.13923
0.0340902
0.137824
-0.142867
0.0420319
0.13151
-0.139452
0.0531312
0.114704
-0.125803
0.0664753
0.0867534
-0.100098
0.0807115
0.0485525
-0.0627887
0.0948685
0.00219234
-0.0163493
0.108262
-0.0483002
0.0349072
0.120072
-0.0964238
0.084613
0.129296
-0.134527
0.125304
0.135186
-0.158811
0.15292
0.137847
-0.170693
0.168032
0.138082
-0.173843
0.173607
0.136063
-0.17231
0.174329
0.130913
-0.172185
0.177336
0.12273
-0.178345
0.186528
0.114451
-0.184888
0.193166
0.110443
-0.173487
0.177496
0.112986
-0.127837
0.125293
0.121114
-0.0515953
0.043467
0.13157
0.0351174
-0.0455735
0.141361
0.110238
-0.120029
0.148843
0.162883
-0.170366
0.153534
0.190733
-0.195423
0.1544
0.205509
-0.206375
0.150315
0.221808
-0.217723
0.142475
0.242512
-0.234672
0.134896
0.243974
-0.236396
0.13157
0.196328
-0.193002
0.13371
0.101951
-0.104091
0.139682
-0.0177374
0.0117651
0.147017
-0.114414
0.107078
0.152511
-0.185683
0.180189
0.152745
-0.216046
0.215812
0.146983
-0.246761
0.252523
0.138647
-0.257891
0.266227
0.133543
-0.233004
0.238108
0.135133
-0.161208
0.159618
0.141507
-0.0227242
0.0163499
0.147028
0.0658806
-0.0714018
0.147134
0.199666
-0.199772
0.142975
0.24852
-0.244361
0.139408
0.302713
-0.299145
0.139501
0.281169
-0.281262
0.141697
0.114552
-0.116749
0.142094
0.0710078
-0.0714043
0.13995
-0.208532
0.210675
-0.247616
0.249726
-0.0402235
-0.0269012
-0.0375623
-0.0207826
-0.0338863
-0.0123319
-0.0292292
-0.00157151
-0.0236636
0.0116235
-0.0173009
0.0268776
-0.0103425
0.0436512
-0.00304115
0.0611803
0.00430735
0.0788129
0.0114787
0.095327
0.0184094
0.109729
0.0254801
0.121077
0.0334791
0.127844
0.043255
0.128048
0.0551898
0.119575
0.0688309
0.101063
0.0830282
0.0725561
0.0966676
0.0349131
0.109159
-0.010299
0.120261
-0.0594026
0.129332
-0.105495
0.135688
-0.140883
0.138942
-0.162065
0.139344
-0.171095
0.137799
-0.172298
0.134717
-0.169229
0.129097
-0.166565
0.120327
-0.169576
0.110816
-0.175376
0.105352
-0.168023
0.10716
-0.129644
0.115556
-0.059992
0.127146
0.0235273
0.138543
0.0988417
0.147823
0.153603
0.154073
0.184483
0.156023
0.203559
0.152784
0.225046
0.145852
0.249444
0.139046
0.250781
0.135888
0.199485
0.137369
0.10047
0.142055
-0.022424
0.147945
-0.120304
0.152421
-0.190158
0.152207
-0.215832
0.146243
-0.240797
0.137818
-0.249467
0.132705
-0.22789
0.134617
-0.16312
0.141232
-0.029339
0.146921
0.0601914
0.147132
0.199455
0.142967
0.252685
0.139446
0.306233
0.139562
0.281053
0.142146
0.111968
0.142861
0.070293
0.140766
-0.206436
-0.245535
-0.0418591
-0.0276616
-0.0401281
-0.0225137
-0.0373325
-0.0151275
-0.0332592
-0.00564476
-0.0280751
0.00643945
-0.021787
0.0205895
-0.0144967
0.036361
-0.00625348
0.052937
0.00246941
0.07009
0.0121313
0.0856652
0.0221768
0.0996832
0.0328523
0.110402
0.0445711
0.116125
0.0576285
0.114991
0.071844
0.10536
0.0864135
0.0864937
0.100259
0.0587108
0.112526
0.0226457
0.122997
-0.0207695
0.131604
-0.06801
0.137878
-0.111769
0.141388
-0.144393
0.142126
-0.162803
0.140518
-0.169487
0.137435
-0.169215
0.133471
-0.165264
0.127695
-0.160789
0.11883
-0.160711
0.108441
-0.164988
0.101445
-0.161027
0.102074
-0.130273
0.110298
-0.0682156
0.122705
0.0111206
0.135556
0.0859903
0.146588
0.142571
0.154409
0.176662
0.157572
0.200396
0.155416
0.227202
0.149572
0.255287
0.143545
0.256808
0.140439
0.202591
0.141141
0.0997683
0.144487
-0.0257707
0.148873
-0.124689
0.152301
-0.193587
0.151716
-0.215247
0.145671
-0.234752
0.137238
-0.241033
0.132102
-0.222754
0.134248
-0.165266
0.14103
-0.0361209
0.146903
0.0543182
0.147259
0.1991
0.14308
0.256864
0.139576
0.309737
0.139723
0.280906
0.142728
0.108964
0.143795
0.069226
0.141742
-0.204384
-0.243479
-0.0334808
-0.0276484
-0.0325978
-0.0233967
-0.0306274
-0.0170978
-0.0274352
-0.00883695
-0.022715
0.0017192
-0.016733
0.0146076
-0.00957055
0.0291985
-0.00118044
0.0445469
0.00948031
0.0594293
0.0208059
0.0743396
0.0330351
0.087454
0.0461547
0.0972821
0.0601658
0.102114
0.0749041
0.100253
0.0898569
0.0904067
0.104154
0.0721967
0.116824
0.0460404
0.127352
0.0121181
0.135726
-0.029144
0.141926
-0.0742096
0.145536
-0.115379
0.146338
-0.145194
0.144713
-0.161178
0.14133
-0.166104
0.136947
-0.164832
0.132214
-0.160531
0.12647
-0.155044
0.118012
-0.152253
0.107307
-0.154283
0.0988612
-0.152581
0.0978744
-0.129286
0.105388
-0.0757297
0.118242
-0.00173335
0.132366
0.0718664
0.145066
0.129872
0.154459
0.167269
0.158976
0.19588
0.158122
0.228056
0.153516
0.259893
0.148247
0.262078
0.145073
0.205765
0.144926
0.0999154
0.146921
-0.0277658
0.149784
-0.127552
0.152138
-0.19594
0.151233
-0.214342
0.145207
-0.228726
0.136834
-0.23266
0.131664
-0.217584
0.133957
-0.167559
0.140866
-0.0430303
0.146955
0.0482292
0.147508
0.198547
0.143331
0.261041
0.139819
0.313249
0.139996
0.280729
0.143442
0.105518
0.144891
0.0677763
0.142876
-0.202368
-0.24144
-0.0164103
-0.0268104
-0.0164603
-0.0233467
-0.0153319
-0.0182261
-0.0129752
-0.0111937
-0.00885619
-0.00239978
-0.00355833
0.00930971
0.00390202
0.0217381
0.0132367
0.0352122
0.0237524
0.0489136
0.0356992
0.0623927
0.0488534
0.0742999
0.0629994
0.083136
0.0778304
0.0872833
0.0928713
0.0852118
0.107436
0.0758419
0.120675
0.058958
0.131842
0.0348733
0.140641
0.00331901
0.147082
-0.0355851
0.151024
-0.0781518
0.152087
-0.116442
0.150326
-0.143433
0.146534
-0.157386
0.141635
-0.161205
0.136243
-0.15944
0.130892
-0.15518
0.125262
-0.149414
0.117573
-0.144565
0.107193
-0.143902
0.0976665
-0.143054
0.0947877
-0.126408
0.101005
-0.0819474
0.113804
-0.0145323
0.128941
0.0567298
0.14316
0.115653
0.154107
0.156322
0.160112
0.189874
0.160763
0.227406
0.157531
0.263124
0.152994
0.266615
0.149657
0.209102
0.148617
0.100955
0.149295
-0.0284441
0.150651
-0.128908
0.151904
-0.197193
0.150719
-0.213157
0.144801
-0.222809
0.136542
-0.224402
0.131317
-0.212358
0.133679
-0.169921
0.140695
-0.0500468
0.147048
0.0418767
0.14787
0.197725
0.14373
0.265181
0.140197
0.316782
0.140392
0.280533
0.144285
0.101625
0.146145
0.0659166
0.144161
-0.200384
-0.239415
0.00883161
-0.0247748
0.00741524
-0.0219304
0.00737254
-0.0181835
0.00890914
-0.0127303
0.0120168
-0.00550743
0.0172005
0.00412602
0.0238349
0.0151037
0.0322685
0.0267785
0.0423426
0.0388396
0.0539868
0.0507485
0.0669728
0.0613139
0.0809496
0.0691592
0.0954181
0.0728148
0.109734
0.0708956
0.123162
0.0624143
0.134964
0.0471563
0.144571
0.0252661
0.1519
-0.00401
0.156705
-0.0403904
0.158593
-0.0800396
0.157262
-0.115111
0.153174
-0.139344
0.147491
-0.151703
0.141335
-0.155049
0.135211
-0.153316
0.129409
-0.149379
0.123889
-0.143894
0.117164
-0.137841
0.107727
-0.134465
0.0977344
-0.133062
0.0929582
-0.121631
0.0973437
-0.0863329
0.109497
-0.026686
0.125255
0.0409726
0.140756
0.100151
0.153203
0.143875
0.160812
0.182266
0.163155
0.225062
0.161422
0.264858
0.157621
0.270416
0.154051
0.212672
0.152111
0.102896
0.151539
-0.0278724
0.151437
-0.128806
0.151567
-0.197323
0.150129
-0.21172
0.144398
-0.217077
0.136297
-0.2163
0.130986
-0.207047
0.133343
-0.172278
0.140464
-0.0571674
0.147142
0.035198
0.148326
0.196541
0.144285
0.269222
0.140726
0.320341
0.140921
0.280338
0.145256
0.0972905
0.147548
0.0636249
0.145589
-0.198426
-0.237398
0.0420328
-0.0210178
0.0390966
-0.0189941
0.0372242
-0.0163111
0.0368186
-0.0123247
0.0380212
-0.00671001
0.0414505
0.000696674
0.0464971
0.0100571
0.0535442
0.0197314
0.0624403
0.0299436
0.0730437
0.0401451
0.0850629
0.0492947
0.0980569
0.0561652
0.111428
0.0594439
0.124465
0.0578584
0.136447
0.0504322
0.146759
0.0368441
0.154993
0.0170321
0.161041
-0.0100576
0.16438
-0.0437295
0.164356
-0.0800153
0.160841
-0.111596
0.154733
-0.133237
0.147494
-0.144464
0.140352
-0.147907
0.133745
-0.146708
0.127686
-0.14332
0.122237
-0.138445
0.11645
-0.132054
0.10842
-0.126436
0.0987407
-0.123382
0.092399
-0.11529
0.094576
-0.0885099
0.105456
-0.0375655
0.121301
0.0251275
0.137753
0.0836988
0.151592
0.130036
0.160885
0.172973
0.165094
0.220853
0.164999
0.264953
0.161976
0.273439
0.15815
0.216498
0.155293
0.105752
0.153577
-0.0261559
0.152099
-0.127329
0.151094
-0.196317
0.149416
-0.210042
0.143945
-0.211606
0.136041
-0.208396
0.130604
-0.20161
0.132877
-0.174551
0.140115
-0.0644052
0.147192
0.0281209
0.148853
0.194879
0.144995
0.273081
0.141421
0.323915
0.141591
0.280168
0.146352
0.092529
0.149088
0.0608891
0.147151
-0.196489
-0.235388
0.0790021
-0.0159703
0.0746597
-0.0146517
0.0711443
-0.0127957
0.0687447
-0.00992507
0.0677496
-0.00571492
0.0687304
-0.000284136
0.0714544
0.00733313
0.0762785
0.0149072
0.0831486
0.0230735
0.0919108
0.0313828
0.102233
0.0389724
0.113621
0.044777
0.125433
0.0476326
0.136936
0.0463549
0.14743
0.0399387
0.156379
0.0278953
0.163379
0.0100313
0.168224
-0.0149021
0.170068
-0.0455736
0.168164
-0.0781115
0.162677
-0.106109
0.154908
-0.125468
0.1465
-0.136056
0.138654
-0.140061
0.131762
-0.139817
0.125634
-0.137192
0.120247
-0.133057
0.115211
-0.127018
0.108772
-0.119996
0.100167
-0.114777
0.0929332
-0.108056
0.0928026
-0.0883793
0.101798
-0.0465611
0.117095
0.00983108
0.134078
0.0667154
0.149143
0.11497
0.160147
0.161969
0.166331
0.214668
0.167999
0.263285
0.16586
0.275578
0.161832
0.220526
0.158068
0.109517
0.155325
-0.0234137
0.152587
-0.124591
0.150446
-0.194176
0.148525
-0.20812
0.143389
-0.20647
0.135728
-0.200735
0.130117
-0.195999
0.132222
-0.176656
0.139584
-0.0717667
0.147142
0.0205622
0.149417
0.192604
0.145854
0.276644
0.14229
0.32748
0.142407
0.280051
0.147566
0.0873696
0.150761
0.0576941
0.148836
-0.194563
-0.233385
0.113547
-0.0106146
0.108736
-0.00984054
0.104539
-0.00859824
0.101128
-0.00651404
0.0988232
-0.0034103
0.0975981
0.000940967
0.0982136
0.00671759
0.100613
0.0125076
0.104982
0.0187047
0.11127
0.0250943
0.11923
0.0310128
0.12842
0.0355875
0.138225
0.0378271
0.14793
0.0366497
0.156824
0.0310451
0.164342
0.0203772
0.17007
0.00430346
0.173494
-0.018326
0.173636
-0.0457163
0.169841
-0.0743158
0.162635
-0.0989031
0.153608
-0.116441
0.144431
-0.126878
0.136163
-0.131793
0.12914
-0.132794
0.123096
-0.131147
0.117825
-0.127787
0.11331
-0.122503
0.108355
-0.115041
0.101385
-0.107808
0.094137
-0.100807
0.0919823
-0.0862246
0.0986236
-0.0532024
0.112684
-0.00422962
0.129695
0.0497047
0.145739
0.0989257
0.158418
0.149291
0.1667
0.206387
0.170294
0.259692
0.169145
0.276727
0.164963
0.224708
0.160363
0.114117
0.156698
-0.0197485
0.152835
-0.120728
0.149576
-0.190918
0.147391
-0.205935
0.142668
-0.201747
0.135319
-0.193387
0.129486
-0.190166
0.13132
-0.178491
0.138814
-0.0792609
0.146933
0.0124434
0.149977
0.18956
0.146844
0.279777
0.143335
0.330989
0.143374
0.280012
0.148894
0.0818495
0.15255
0.0540384
0.150631
-0.192645
-0.231393
0.139878
-0.00583124
0.135494
-0.00545693
0.131517
-0.00462127
0.128108
-0.00310469
0.125575
-0.000877302
0.123713
0.00280296
0.123302
0.00712887
0.124204
0.0116049
0.12663
0.0162796
0.130659
0.0210643
0.136187
0.0254856
0.142922
0.0288525
0.150394
0.030355
0.157974
0.0290694
0.164971
0.0240478
0.170788
0.0145611
0.175039
5.1744e-05
0.176628
-0.0199144
0.174818
-0.0439065
0.169192
-0.0686902
0.160608
-0.0903188
0.150755
-0.106588
0.141179
-0.117303
0.13274
-0.123354
0.125704
-0.125758
0.119847
-0.12529
0.114804
-0.122744
0.110648
-0.118347
0.106877
-0.11127
0.101778
-0.10271
0.0953895
-0.0944186
0.091879
-0.0827141
0.0960061
-0.0573294
0.108153
-0.0163763
0.124616
0.0332415
0.141317
0.082225
0.155543
0.135064
0.165893
0.196037
0.171498
0.254086
0.17154
0.276685
0.167391
0.228857
0.16213
0.119377
0.157642
-0.0152602
0.152795
-0.115881
0.148459
-0.186582
0.145968
-0.203443
0.141731
-0.19751
0.134793
-0.186449
0.128704
-0.184077
0.130138
-0.179925
0.13775
-0.0868729
0.146502
0.00369175
0.150484
0.185578
0.147937
0.282324
0.144552
0.334374
0.144493
0.280072
0.150329
0.0760136
0.154441
0.0499262
0.152527
-0.19073
-0.22942
0.154603
-0.00203406
0.151078
-0.0019317
0.147886
-0.00142987
0.145385
-0.000603109
0.143159
0.00134859
0.141896
0.00406555
0.141601
0.00742378
0.142161
0.0110455
0.143788
0.0146521
0.146623
0.01823
0.150576
0.0215322
0.155436
0.0239923
0.160864
0.0249274
0.166393
0.0235403
0.171421
0.0190192
0.175245
0.0107373
0.177471
-0.00217387
0.177235
-0.0196785
0.173551
-0.0402222
0.166452
-0.0615914
0.157017
-0.0808845
0.146845
-0.0964153
0.137239
-0.107697
0.128857
-0.114972
0.121888
-0.11879
0.116216
-0.119618
0.111442
-0.117969
0.107524
-0.114429
0.104501
-0.108248
0.101107
-0.0993157
0.096193
-0.0895041
0.092185
-0.0787062
0.0939467
-0.0590911
0.103668
-0.0260977
0.118896
0.0180138
0.135824
0.065297
0.151506
0.119382
0.164068
0.183475
0.171877
0.246277
0.173132
0.27543
0.169083
0.232905
0.163389
0.125071
0.158238
-0.0101085
0.152548
-0.110191
0.147213
-0.181248
0.144329
-0.200559
0.140598
-0.193779
0.134161
-0.180012
0.127813
-0.177729
0.128702
-0.180814
0.136365
-0.094536
0.145771
-0.00571353
0.150884
0.180465
0.149099
0.284109
0.145921
0.337551
0.145759
0.280234
0.151868
0.0699046
0.156414
0.0453807
0.15451
-0.188827
-0.227476
0.159565
0.00052474
0.156907
0.000725692
0.154351
0.00112666
0.152015
0.00173287
0.150456
0.00290724
0.149749
0.0047725
0.149965
0.00720825
0.15104
0.00997072
0.152862
0.0128295
0.155392
0.0157002
0.158635
0.0182889
0.162456
0.0201721
0.166578
0.0208053
0.170599
0.0195185
0.174038
0.0155808
0.176439
0.00833585
0.176924
-0.0026589
0.174745
-0.0174991
0.169613
-0.0350902
0.161773
-0.0537514
0.152313
-0.0714249
0.142518
-0.0866203
0.133361
-0.0985388
0.125322
-0.106933
0.118536
-0.112004
0.113005
-0.114087
0.108444
-0.113408
0.104654
-0.110639
0.101928
-0.105522
0.099736
-0.0971233
0.0964628
-0.0862309
0.0927427
-0.0749861
0.0926619
-0.0590103
0.0995651
-0.0330009
0.1129
0.00467863
0.129271
0.0489266
0.145708
0.102945
0.160155
0.169028
0.170349
0.236084
0.173256
0.272523
0.169832
0.236329
0.164034
0.130869
0.158437
-0.0045119
0.152051
-0.103805
0.145916
-0.175113
0.142584
-0.197227
0.139319
-0.190514
0.13344
-0.174133
0.12685
-0.171139
0.127121
-0.181085
0.134765
-0.102181
0.144731
-0.015679
0.151106
0.174089
0.150281
0.284935
0.147431
0.340401
0.147175
0.28049
0.153503
0.0635762
0.15845
0.0404341
0.156584
-0.186961
-0.225546
0.185189
0.00329767
-0.187962
0.182879
0.00303557
0.180693
0.00331285
0.178536
0.00388906
0.176571
0.00487221
0.174983
0.0063604
0.173905
0.00828691
0.173388
0.0104871
0.173454
0.0127636
0.174231
0.014924
0.175834
0.0166854
0.178336
0.0176699
0.181747
0.0173942
0.185965
0.0153009
0.190705
0.0108405
0.195414
0.00362661
0.19957
-0.0068142
0.202222
-0.0201512
0.202667
-0.0355354
0.200584
-0.051669
0.196233
-0.0670731
0.190164
-0.0805521
0.182991
-0.0913652
0.175256
-0.0991984
0.167349
-0.104097
0.159599
-0.106337
0.152138
-0.105947
0.144842
-0.103344
0.13793
-0.0986091
0.131577
-0.0907704
0.124656
-0.0793096
0.116359
-0.0666891
0.108986
-0.051638
0.106464
-0.0304788
0.109957
0.00118536
0.116838
0.0420456
0.123894
0.095889
0.129759
0.163163
0.135065
0.230777
0.141232
0.266357
0.150159
0.227403
0.160175
0.120852
0.167232
-0.0115687
0.168296
-0.104869
0.164231
-0.171048
0.158849
-0.191844
0.152548
-0.184213
0.14426
-0.165845
0.135595
-0.162474
0.131217
-0.176707
0.132315
-0.103279
0.135019
-0.0183829
0.135778
0.17333
0.133638
0.287074
0.132323
0.341716
0.135703
0.277111
0.143205
0.0560744
0.148271
0.0353674
0.145603
-0.184293
-0.221504
0.196616
0.00498729
-0.198306
0.194993
0.00465861
0.193497
0.00480955
0.192094
0.00529145
0.190887
0.0060799
0.190028
0.00721889
0.189629
0.0086861
0.189754
0.0103623
0.190454
0.0120637
0.191791
0.0135864
0.193806
0.0146711
0.196498
0.0149774
0.199799
0.0140928
0.203527
0.0115731
0.207365
0.00700276
0.210938
5.38131e-05
0.21361
-0.00948642
0.214765
-0.021306
0.213949
-0.0347192
0.21101
-0.0487306
0.206152
-0.0622145
0.1998
-0.0742004
0.192472
-0.0840366
0.184679
-0.0914056
0.176784
-0.0962026
0.169045
-0.0985976
0.161633
-0.0985349
0.154436
-0.0961469
0.147471
-0.0916442
0.141147
-0.0844467
0.134887
-0.0730496
0.127419
-0.0592209
0.119746
-0.0439655
0.11553
-0.0262629
0.117258
-0.000542758
0.123458
0.0358459
0.130904
0.0884435
0.137851
0.156215
0.144597
0.224031
0.152601
0.258353
0.163189
0.216815
0.174019
0.110022
0.181046
-0.0185958
0.181443
-0.105266
0.176216
-0.16582
0.169726
-0.185354
0.162843
-0.17733
0.154297
-0.157298
0.145034
-0.153211
0.139996
-0.171669
0.140692
-0.103975
0.143588
-0.0212793
0.144928
0.17199
0.14334
0.288662
0.142453
0.342603
0.146071
0.273492