/*--------------------------------*- C++ -*----------------------------------*\
| =========                 |                                                 |
| \\      /  F ield         | OpenFOAM: The Open Source CFD Toolbox           |
|  \\    /   O peration     | Version:  2512                                  |
|   \\  /    A nd           | Website:  www.openfoam.com                      |
|    \\/     M anipulation  |                                                 |
\*---------------------------------------------------------------------------*/
FoamFile
{
    version     2.0;
    format      ascii;
    arch        "LSB;label=32;scalar=64";
    class       volScalarField;
    location    "145.75";
    object      p;
}
// * * * * * * * * * * * * * * * * * * * * * * * * * * * * * * * * * * * * * //

dimensions      [0 2 -2 0 0 0 0];

internalField   nonuniform List<scalar> 
13248
(
-0.3291
-0.327917
-0.325457
-0.321996
-0.317832
-0.313238
-0.30847
-0.303797
-0.299449
-0.295614
-0.292412
-0.289886
-0.287994
-0.286614
-0.285553
-0.284569
-0.283404
-0.281809
-0.27956
-0.276517
-0.27244
-0.267418
-0.260388
-0.252092
-0.337189
-0.335163
-0.332068
-0.32814
-0.323635
-0.318804
-0.313871
-0.309033
-0.304441
-0.300199
-0.296342
-0.292841
-0.289605
-0.286494
-0.283342
-0.279974
-0.276234
-0.271998
-0.26717
-0.261683
-0.255451
-0.248433
-0.240319
-0.23185
-0.347394
-0.344277
-0.340363
-0.335839
-0.330885
-0.325715
-0.320487
-0.3153
-0.310207
-0.305216
-0.300295
-0.295381
-0.290395
-0.285253
-0.279878
-0.274214
-0.268225
-0.261894
-0.255205
-0.248145
-0.240653
-0.232751
-0.224223
-0.215644
-0.35961
-0.355201
-0.350318
-0.345078
-0.339551
-0.333882
-0.328133
-0.322286
-0.316289
-0.310083
-0.303623
-0.296885
-0.289868
-0.282597
-0.275112
-0.267458
-0.259676
-0.251793
-0.243814
-0.235726
-0.227497
-0.219137
-0.210517
-0.202188
-0.373756
-0.367913
-0.361956
-0.355899
-0.349653
-0.343256
-0.336647
-0.329694
-0.322281
-0.314353
-0.30593
-0.297094
-0.287968
-0.278684
-0.269364
-0.260101
-0.250952
-0.241939
-0.233057
-0.224282
-0.215583
-0.206948
-0.198301
-0.189996
-0.389754
-0.382383
-0.375294
-0.368329
-0.361171
-0.353712
-0.345768
-0.337146
-0.32775
-0.317626
-0.306934
-0.295895
-0.284738
-0.273661
-0.262808
-0.252263
-0.242062
-0.232201
-0.222654
-0.213384
-0.204351
-0.195529
-0.186867
-0.178594
-0.40744
-0.398504
-0.390251
-0.382261
-0.373908
-0.364918
-0.355042
-0.344128
-0.332221
-0.319554
-0.306454
-0.293261
-0.280255
-0.267638
-0.255522
-0.243955
-0.23293
-0.222417
-0.212366
-0.202729
-0.193458
-0.184511
-0.175858
-0.167589
-0.426476
-0.415996
-0.406555
-0.397356
-0.387399
-0.376287
-0.36382
-0.350033
-0.335222
-0.319839
-0.304358
-0.289167
-0.274536
-0.260615
-0.24746
-0.235064
-0.223383
-0.212357
-0.201921
-0.192015
-0.182581
-0.17357
-0.164957
-0.156724
-0.446293
-0.434352
-0.42368
-0.412989
-0.400903
-0.387009
-0.371335
-0.354243
-0.336332
-0.318253
-0.300546
-0.283581
-0.267557
-0.252546
-0.238536
-0.22547
-0.213269
-0.20185
-0.191133
-0.181045
-0.171521
-0.162507
-0.153968
-0.145806
-0.466061
-0.452798
-0.440805
-0.428234
-0.413418
-0.39612
-0.376779
-0.356176
-0.335195
-0.314599
-0.294913
-0.276423
-0.259231
-0.243321
-0.22862
-0.215024
-0.202426
-0.190724
-0.179822
-0.169636
-0.160092
-0.151132
-0.142695
-0.134649
-0.48471
-0.470289
-0.456818
-0.441895
-0.42375
-0.402557
-0.37931
-0.355219
-0.331368
-0.308534
-0.287153
-0.267391
-0.249245
-0.232619
-0.217382
-0.203396
-0.190529
-0.178659
-0.167677
-0.157488
-0.148009
-0.13917
-0.130879
-0.123013
-0.501028
-0.48565
-0.470511
-0.45273
-0.430705
-0.405257
-0.378023
-0.350589
-0.324139
-0.299373
-0.276588
-0.255814
-0.23694
-0.219797
-0.204206
-0.189996
-0.17701
-0.165112
-0.15418
-0.144108
-0.134808
-0.126199
-0.118158
-0.110614
-0.335357
-0.337542
-0.338763
-0.339428
-0.339918
-0.340368
-0.340854
-0.341425
-0.342109
-0.342923
-0.343889
-0.345037
-0.346416
-0.348091
-0.350142
-0.352667
-0.355774
-0.359569
-0.364149
-0.369592
-0.375925
-0.383085
-0.390923
-0.399407
-0.33187
-0.33335
-0.334079
-0.334336
-0.334413
-0.334441
-0.334513
-0.334702
-0.335063
-0.335647
-0.336513
-0.337735
-0.339409
-0.341652
-0.344595
-0.348382
-0.353162
-0.359063
-0.366182
-0.374567
-0.384197
-0.394939
-0.406485
-0.418676
-0.329225
-0.329968
-0.330187
-0.33003
-0.32969
-0.329292
-0.328944
-0.328738
-0.328757
-0.32908
-0.329796
-0.331011
-0.332856
-0.33548
-0.339048
-0.343703
-0.349649
-0.356991
-0.365813
-0.376125
-0.387848
-0.40078
-0.414519
-0.428681
-0.327032
-0.327105
-0.32684
-0.326271
-0.325502
-0.324651
-0.323841
-0.323177
-0.322784
-0.322756
-0.323209
-0.324271
-0.326092
-0.328838
-0.332682
-0.337794
-0.344331
-0.352408
-0.362078
-0.373314
-0.385986
-0.399839
-0.414528
-0.429085
-0.324998
-0.324553
-0.323872
-0.322904
-0.321689
-0.320341
-0.318998
-0.317799
-0.316882
-0.316376
-0.316417
-0.317151
-0.318738
-0.321345
-0.325145
-0.330298
-0.336939
-0.345159
-0.354979
-0.366334
-0.379062
-0.392795
-0.407479
-0.421128
-0.322974
-0.322219
-0.321217
-0.319873
-0.318196
-0.316306
-0.314361
-0.312528
-0.310975
-0.309863
-0.30935
-0.309599
-0.310773
-0.313041
-0.316563
-0.321483
-0.327911
-0.335907
-0.345462
-0.356457
-0.368724
-0.381657
-0.395715
-0.407687
-0.320984
-0.320139
-0.318916
-0.317226
-0.315084
-0.312624
-0.310028
-0.307498
-0.305234
-0.303432
-0.302278
-0.30195
-0.302622
-0.304458
-0.307606
-0.312192
-0.318295
-0.325931
-0.335053
-0.345465
-0.357068
-0.368807
-0.381752
-0.39121
-0.319237
-0.318481
-0.317121
-0.315114
-0.312519
-0.309494
-0.306252
-0.303027
-0.300058
-0.297574
-0.29579
-0.294906
-0.295104
-0.296545
-0.29936
-0.303643
-0.309437
-0.316706
-0.325325
-0.334965
-0.34554
-0.355662
-0.366819
-0.373495
-0.318103
-0.317531
-0.316076
-0.313775
-0.310761
-0.307224
-0.303406
-0.299576
-0.296005
-0.292957
-0.290672
-0.289364
-0.289219
-0.290382
-0.292956
-0.296979
-0.302412
-0.309126
-0.316911
-0.325329
-0.334231
-0.342195
-0.350595
-0.354238
-0.31807
-0.317657
-0.316097
-0.31352
-0.310141
-0.306187
-0.301927
-0.297655
-0.29367
-0.290253
-0.287658
-0.286099
-0.285739
-0.286683
-0.288967
-0.292541
-0.29727
-0.302923
-0.309197
-0.315654
-0.322048
-0.327335
-0.332287
-0.332803
-0.31965
-0.319247
-0.317514
-0.314663
-0.310982
-0.306724
-0.302177
-0.297648
-0.293441
-0.289836
-0.287073
-0.285336
-0.284738
-0.285312
-0.287004
-0.289666
-0.293061
-0.296884
-0.300781
-0.304409
-0.307518
-0.309723
-0.311442
-0.309893
-0.323257
-0.322614
-0.320585
-0.317443
-0.313498
-0.309024
-0.304317
-0.299668
-0.295362
-0.291652
-0.288731
-0.286726
-0.285674
-0.285524
-0.28613
-0.287266
-0.28864
-0.289934
-0.290811
-0.291034
-0.290342
-0.288869
-0.286821
-0.284002
-0.41039
-0.422597
-0.432525
-0.438327
-0.438096
-0.429552
-0.411712
-0.384016
-0.347504
-0.305027
-0.260992
-0.220179
-0.186365
-0.161703
-0.146978
-0.142499
-0.148493
-0.163675
-0.183147
-0.198389
-0.200771
-0.186938
-0.161142
-0.131927
-0.106657
-0.0890731
-0.07983
-0.0777765
-0.0820619
-0.0940476
-0.114754
-0.138912
-0.154551
-0.151758
-0.132541
-0.106875
-0.0847632
-0.0700599
-0.0620573
-0.0604179
-0.0669764
-0.0790527
-0.0869431
-0.0839278
-0.0730603
-0.061167
-0.0527077
-0.0480713
-0.049124
-0.0534407
-0.0544663
-0.0518372
-0.0467606
-0.0392631
-0.0339528
-0.0285399
-0.0245542
-0.0245214
-0.0201015
-0.00605878
-0.434505
-0.450501
-0.46318
-0.470776
-0.471317
-0.462573
-0.443069
-0.412291
-0.371393
-0.323594
-0.273753
-0.227056
-0.187581
-0.157624
-0.137816
-0.128116
-0.12854
-0.138293
-0.153738
-0.167659
-0.17189
-0.162299
-0.142079
-0.118291
-0.0976003
-0.0838055
-0.077804
-0.0785873
-0.0856518
-0.100805
-0.124854
-0.151681
-0.168208
-0.163986
-0.142012
-0.113168
-0.0880031
-0.0706004
-0.0602965
-0.0562857
-0.0602579
-0.0698957
-0.0766233
-0.0742841
-0.0657029
-0.0567011
-0.050764
-0.048679
-0.0520513
-0.058748
-0.060486
-0.0569674
-0.0504088
-0.0409236
-0.0341677
-0.0266652
-0.0217484
-0.0210494
-0.016954
-0.0051109
-0.447809
-0.466399
-0.480996
-0.489416
-0.490562
-0.481862
-0.461536
-0.428995
-0.385404
-0.334167
-0.280424
-0.229594
-0.18595
-0.151767
-0.127557
-0.113034
-0.107995
-0.112117
-0.122993
-0.134916
-0.14056
-0.135117
-0.120532
-0.102292
-0.0863733
-0.076593
-0.0739846
-0.0776623
-0.0874593
-0.105518
-0.132434
-0.16155
-0.179044
-0.173931
-0.149737
-0.118205
-0.0903857
-0.0705734
-0.0581882
-0.0520103
-0.053538
-0.0608201
-0.066415
-0.06468
-0.0582215
-0.0519415
-0.0484775
-0.0490286
-0.0548471
-0.0640162
-0.06648
-0.0619298
-0.05381
-0.0423832
-0.0342796
-0.0248272
-0.0189858
-0.0175901
-0.0138137
-0.00416756
-0.449615
-0.469614
-0.486949
-0.494361
-0.495839
-0.487391
-0.46696
-0.43389
-0.389325
-0.336718
-0.28129
-0.228504
-0.182534
-0.145532
-0.117918
-0.0992988
-0.0893159
-0.0878065
-0.0935822
-0.102584
-0.108678
-0.106862
-0.0974975
-0.0845563
-0.0733449
-0.067572
-0.0682712
-0.0746744
-0.0869038
-0.10738
-0.136677
-0.167858
-0.186561
-0.181207
-0.155483
-0.121861
-0.0918875
-0.0700486
-0.0558576
-0.0477748
-0.0470817
-0.0521544
-0.0566311
-0.055465
-0.050756
-0.0469701
-0.0458655
-0.0490604
-0.057389
-0.0691073
-0.072327
-0.0666563
-0.0569177
-0.0436176
-0.0342777
-0.0230387
-0.0162885
-0.0141817
-0.0107079
-0.00323675
-0.440908
-0.459451
-0.472573
-0.485321
-0.488317
-0.480442
-0.46054
-0.42808
-0.384218
-0.332368
-0.277578
-0.225
-0.178498
-0.14006
-0.110078
-0.0881514
-0.0738855
-0.0671979
-0.0676488
-0.0728646
-0.0782119
-0.0790018
-0.0738755
-0.0657119
-0.0589017
-0.0568616
-0.0605731
-0.0693841
-0.0836265
-0.10598
-0.137156
-0.170169
-0.190298
-0.185479
-0.159127
-0.124123
-0.0925589
-0.0691183
-0.0534316
-0.0437277
-0.0410755
-0.0441239
-0.0475257
-0.0465857
-0.0434262
-0.0418665
-0.0429359
-0.048706
-0.0595492
-0.0738584
-0.0778742
-0.0710607
-0.0596892
-0.0446077
-0.0341528
-0.0213096
-0.0136761
-0.010859
-0.0076629
-0.00232605
-0.42571
-0.443799
-0.457457
-0.468363
-0.470971
-0.4633
-0.444244
-0.413332
-0.371678
-0.32251
-0.270425
-0.219987
-0.174578
-0.135985
-0.104652
-0.0802758
-0.0624866
-0.0512415
-0.0465673
-0.0474256
-0.0507672
-0.0527409
-0.0506329
-0.0465291
-0.0435582
-0.0447377
-0.0510323
-0.06186
-0.0776616
-0.101294
-0.13374
-0.168284
-0.190035
-0.186626
-0.16061
-0.125005
-0.0924541
-0.067857
-0.0509967
-0.0399586
-0.0356359
-0.036878
-0.0392759
-0.0383897
-0.0363758
-0.0367128
-0.039705
-0.0479049
-0.061194
-0.0780869
-0.082962
-0.0750653
-0.0620895
-0.0453381
-0.0338919
-0.0196431
-0.0111641
-0.00765358
-0.00470064
-0.00144202
-0.406103
-0.419519
-0.4338
-0.443744
-0.445719
-0.438151
-0.420334
-0.391873
-0.353769
-0.30889
-0.261141
-0.21432
-0.171263
-0.133556
-0.10175
-0.0757452
-0.0552684
-0.0402774
-0.0310062
-0.0273204
-0.0276529
-0.0291169
-0.0289848
-0.0278977
-0.0279634
-0.0317183
-0.0400506
-0.0524167
-0.0692666
-0.0935331
-0.126601
-0.162299
-0.185898
-0.184623
-0.15991
-0.124544
-0.0916265
-0.0663184
-0.0486076
-0.0365148
-0.0308007
-0.0304787
-0.0319718
-0.0310384
-0.0297296
-0.0316049
-0.0362074
-0.0466079
-0.062194
-0.081623
-0.0874363
-0.0785995
-0.0640895
-0.0457973
-0.0334867
-0.0180354
-0.00876137
-0.00459235
-0.00183812
-0.000590654
-0.384684
-0.394428
-0.405402
-0.413637
-0.414617
-0.407241
-0.39124
-0.366108
-0.332641
-0.293194
-0.250839
-0.208563
-0.168692
-0.132647
-0.10109
-0.0741822
-0.0518317
-0.0340045
-0.0209468
-0.0129837
-0.00970831
-0.00945506
-0.00992366
-0.0104982
-0.012789
-0.0184136
-0.0281318
-0.0414836
-0.0588751
-0.08321
-0.116257
-0.152725
-0.178288
-0.179645
-0.157073
-0.122793
-0.0901205
-0.0645368
-0.0462965
-0.0334192
-0.0265791
-0.0249306
-0.0256366
-0.0246035
-0.0235564
-0.0266474
-0.0324938
-0.0447895
-0.0624428
-0.0843339
-0.091157
-0.0815958
-0.0656693
-0.045981
-0.0329438
-0.0164937
-0.00647242
-0.00169544
0.000913084
0.000222177
-0.360169
-0.364765
-0.373423
-0.380063
-0.379933
-0.373223
-0.359708
-0.338579
-0.310391
-0.276905
-0.24035
-0.202974
-0.166675
-0.13277
-0.102028
-0.0748414
-0.0513458
-0.0315706
-0.0156938
-0.00413945
0.00281166
0.00572947
0.00614873
0.00528605
0.00142645
-0.00535922
-0.0157691
-0.0295223
-0.0469585
-0.0709177
-0.103529
-0.140358
-0.167741
-0.172073
-0.152338
-0.119929
-0.0881065
-0.0626565
-0.044181
-0.0307513
-0.0230032
-0.0202366
-0.0202647
-0.0191088
-0.017876
-0.0219546
-0.0286223
-0.0424236
-0.0618806
-0.0861258
-0.0939922
-0.0839969
-0.0668353
-0.0459059
-0.0322803
-0.0150558
-0.00431488
0.00101984
0.00354687
0.000991207
-0.332612
-0.333573
-0.340962
-0.345794
-0.344895
-0.339512
-0.328923
-0.312053
-0.28923
-0.261617
-0.230708
-0.198146
-0.165476
-0.133937
-0.104405
-0.0774406
-0.0533713
-0.0323396
-0.0144848
-0.00016705
0.010103
0.0161638
0.018775
0.0191093
0.0142904
0.00710036
-0.00339144
-0.0170445
-0.0341996
-0.0575468
-0.0892424
-0.125947
-0.154943
-0.162342
-0.146076
-0.116339
-0.0859858
-0.061012
-0.0425102
-0.0286779
-0.020135
-0.0163772
-0.0158365
-0.0146202
-0.012673
-0.0176134
-0.0246616
-0.0395747
-0.0604755
-0.0869139
-0.0958241
-0.0857652
-0.0676027
-0.0456075
-0.0314947
-0.013738
-0.00232321
0.00351645
0.00606127
0.00171148
-0.305822
-0.305497
-0.311482
-0.314162
-0.312961
-0.309229
-0.301561
-0.288819
-0.271091
-0.248986
-0.223411
-0.195501
-0.166465
-0.137428
-0.109328
-0.0828752
-0.0585636
-0.0366871
-0.0174094
-0.000987674
0.0120968
0.021345
0.0268375
0.0306562
0.0251794
0.0185991
0.00871606
-0.00427438
-0.020737
-0.0432717
-0.0743619
-0.111007
-0.140573
-0.15099
-0.138087
-0.111762
-0.0835528
-0.0593927
-0.0410576
-0.0270021
-0.0177923
-0.0131047
-0.012097
-0.011114
-0.00806943
-0.0138432
-0.0206283
-0.0361385
-0.0582609
-0.0867771
-0.0965064
-0.0867916
-0.0678697
-0.0450352
-0.0305193
-0.0124099
-0.000465269
0.00576098
0.00844885
0.00237808
-0.281854
-0.283335
-0.286407
-0.285786
-0.283785
-0.280763
-0.27495
-0.265326
-0.251685
-0.234192
-0.213307
-0.189736
-0.164356
-0.138115
-0.111933
-0.0865961
-0.0627247
-0.0407643
-0.0210164
-0.00371966
0.0108499
0.0223044
0.0299871
0.0313059
0.0331973
0.0282571
0.0195261
0.00756318
-0.00804614
-0.0295242
-0.059188
-0.0945291
-0.123965
-0.135051
-0.126448
-0.104057
-0.0785312
-0.0557697
-0.0381571
-0.0244398
-0.0151078
-0.00981503
-0.00846252
-0.00793399
-0.00957737
-0.0106802
-0.0168845
-0.0325001
-0.0552377
-0.0854365
-0.0960677
-0.0868163
-0.0673708
-0.0439165
-0.0292246
-0.0108057
0.00142371
0.00788956
0.0107167
0.00297942
-0.261526
-0.272118
-0.272042
-0.268456
-0.264852
-0.260872
-0.254836
-0.245563
-0.232677
-0.216337
-0.196993
-0.175258
-0.151866
-0.127618
-0.103305
-0.0796158
-0.0570919
-0.0361324
-0.0170337
-2.57742e-05
0.0146536
0.0266935
0.0355357
0.0403729
0.0421944
0.0389044
0.0317724
0.0213745
0.00698409
-0.0143039
-0.0458146
-0.084519
-0.116604
-0.129616
-0.118138
-0.095737
-0.0714545
-0.0501415
-0.0337108
-0.0207859
-0.0118791
-0.00653612
-0.00504004
-0.00429221
-0.00453205
-0.00600053
-0.011598
-0.0274815
-0.0513158
-0.084021
-0.0964206
-0.087083
-0.0665096
-0.0423054
-0.027748
-0.00905025
0.00325726
0.0100476
0.0128409
0.00351416
-0.238411
-0.252193
-0.252645
-0.247515
-0.24231
-0.237485
-0.231382
-0.222595
-0.210661
-0.195771
-0.178369
-0.15896
-0.1381
-0.116395
-0.0944706
-0.0729039
-0.0521806
-0.0326799
-0.0146999
0.00153303
0.0158293
0.0279528
0.0373995
0.0427219
0.046059
0.0445391
0.0392192
0.0306151
0.0176371
-0.00331693
-0.0358626
-0.0754554
-0.106458
-0.116414
-0.105517
-0.0850261
-0.0633789
-0.0442925
-0.0294177
-0.0175485
-0.0091532
-0.00383355
-0.00228384
-0.00153046
-0.00140919
-0.0028375
-0.0077807
-0.0234125
-0.0477325
-0.0817558
-0.0952732
-0.0855468
-0.0647167
-0.0402423
-0.0258733
-0.0073077
0.00479579
0.0119412
0.0145213
0.00396467
-0.216812
-0.231083
-0.232192
-0.226813
-0.220891
-0.215658
-0.209748
-0.201703
-0.190963
-0.177665
-0.162196
-0.14496
-0.126372
-0.106895
-0.0870429
-0.0673205
-0.048177
-0.0299789
-0.013023
0.00245292
0.0162405
0.0281241
0.0377951
0.0442162
0.0480026
0.04763
0.0436848
0.0363923
0.024232
0.00327264
-0.0288705
-0.0659646
-0.0935418
-0.101626
-0.0920449
-0.0742723
-0.0554882
-0.0386127
-0.0252258
-0.0143751
-0.00653682
-0.00133295
0.000275864
0.00103354
0.00151454
-0.000121572
-0.00493468
-0.0203854
-0.0445783
-0.0783814
-0.0925684
-0.082938
-0.0622822
-0.0378455
-0.0237505
-0.00555406
0.00630549
0.0136984
0.0159669
0.00438947
-0.19735
-0.210368
-0.211904
-0.207003
-0.201059
-0.195704
-0.19001
-0.182645
-0.172986
-0.161086
-0.147278
-0.131913
-0.115322
-0.0978691
-0.0799672
-0.0620399
-0.0444825
-0.027634
-0.0117802
0.00283884
0.0159941
0.0274667
0.0369463
0.0439776
0.0482432
0.0488659
0.0461254
0.0399821
0.0286097
0.00825135
-0.0220019
-0.055454
-0.0795327
-0.0861796
-0.0781871
-0.0633409
-0.0475016
-0.0329044
-0.0210429
-0.0112477
-0.00403305
0.000979575
0.002671
0.0035053
0.00429251
0.00251105
-0.00227423
-0.0174281
-0.0408375
-0.0737623
-0.0886066
-0.0793787
-0.0591868
-0.0351228
-0.0213736
-0.0037586
0.00778119
0.0152862
0.01724
0.00479598
-0.178452
-0.190427
-0.19232
-0.188071
-0.182432
-0.17717
-0.171737
-0.165009
-0.156358
-0.145761
-0.133487
-0.119841
-0.105094
-0.0895263
-0.0734588
-0.0572422
-0.0412228
-0.0257146
-0.0109926
0.00270353
0.015139
0.0260839
0.035259
0.0423904
0.0469672
0.0483217
0.0465522
0.0414525
0.0311402
0.0123289
-0.0149776
-0.0442098
-0.0646119
-0.0703256
-0.0643136
-0.0525823
-0.0396919
-0.0273395
-0.0169697
-0.00820875
-0.00164859
0.00311054
0.00489113
0.00583938
0.00684934
0.00507114
0.000486911
-0.0139675
-0.0361557
-0.0679649
-0.0832747
-0.074728
-0.0553815
-0.0320751
-0.0187716
-0.00192218
0.00919979
0.0166668
0.0183189
0.00517237
-0.160535
-0.171667
-0.173727
-0.170063
-0.164878
-0.1599
-0.154827
-0.148738
-0.141045
-0.131668
-0.120812
-0.108736
-0.0956648
-0.081819
-0.0674522
-0.052853
-0.0383217
-0.0241435
-0.0105777
0.00214198
0.0137896
0.0241271
0.0328972
0.0398528
0.044526
0.0463412
0.0452715
0.0410145
0.0318928
0.0153472
-0.00806582
-0.0324746
-0.0493929
-0.0549063
-0.0511118
-0.0423872
-0.0322395
-0.022
-0.0130573
-0.00528648
0.000612881
0.0050655
0.00692393
0.00802112
0.0092205
0.00754997
0.00336099
-0.0100252
-0.0307123
-0.0609862
-0.0764983
-0.0689475
-0.0508725
-0.028729
-0.0159873
-4.62791e-05
0.0105446
0.0178068
0.0191512
0.00550612
-0.144106
-0.154132
-0.156179
-0.153054
-0.148409
-0.143847
-0.139216
-0.133764
-0.126965
-0.118709
-0.10915
-0.0985023
-0.0869566
-0.0746903
-0.0619045
-0.0488344
-0.0357363
-0.0228644
-0.0104598
0.00125404
0.0120613
0.0217249
0.0300011
0.0366476
0.0412655
0.0433577
0.042794
0.039228
0.0313905
0.0175913
-0.00144462
-0.0211513
-0.0352499
-0.0408527
-0.0391282
-0.0330418
-0.0252987
-0.0169717
-0.00936177
-0.0025166
0.0027449
0.00685583
0.00877681
0.0100561
0.0114373
0.00994556
0.00626482
-0.0058041
-0.0246536
-0.0528854
-0.0683733
-0.0621001
-0.045703
-0.0251265
-0.0130751
0.00186235
0.011804
0.0186798
0.0196902
0.005792
-0.128796
-0.13772
-0.139742
-0.137132
-0.133049
-0.128961
-0.124809
-0.11998
-0.11401
-0.106782
-0.0984082
-0.0890653
-0.0789138
-0.0680982
-0.0567784
-0.0451455
-0.0334158
-0.0218133
-0.010558
0.000138378
0.0100691
0.0190109
0.0267336
0.0329949
0.0374617
0.0397129
0.0395566
0.0366686
0.0302236
0.0192184
0.00425687
-0.0113882
-0.0231629
-0.0288013
-0.0286944
-0.0247293
-0.0189814
-0.012319
-0.00592397
6.84723e-05
0.00474034
0.00849526
0.010467
0.0119511
0.013524
0.012265
0.00915848
-0.00136918
-0.0180661
-0.0438812
-0.059128
-0.0543368
-0.0399602
-0.021327
-0.0100972
0.00379142
0.0129716
0.0192728
0.0199093
0.00603204
-0.11446
-0.122491
-0.124491
-0.122339
-0.118792
-0.115185
-0.111519
-0.107289
-0.102089
-0.0958024
-0.0885108
-0.0803589
-0.0714807
-0.0619946
-0.0520291
-0.0417392
-0.0313064
-0.0209259
-0.0107953
-0.00111117
0.00793161
0.0161248
0.0232536
0.0290844
0.0333398
0.0356719
0.0358741
0.033676
0.0285829
0.0200138
0.00844176
-0.003829
-0.0135858
-0.0189586
-0.019907
-0.0175178
-0.01335
-0.00808706
-0.00277321
0.00243985
0.00658775
0.00999293
0.0120106
0.0137053
0.0155074
0.0145543
0.0120992
0.00328796
-0.0111285
-0.0343226
-0.0491099
-0.0459073
-0.033782
-0.0174037
-0.00711898
0.00572193
0.014048
0.0195953
0.0198123
0.00623502
-0.101312
-0.108489
-0.110407
-0.108647
-0.1056
-0.102461
-0.0992714
-0.0956089
-0.0911211
-0.085694
-0.0793871
-0.0723187
-0.0646007
-0.0563302
-0.0476111
-0.0385694
-0.0293567
-0.0201409
-0.0110973
-0.00240448
0.00575902
0.0131977
0.019713
0.0250907
0.0290993
0.0314552
0.0319628
0.0304028
0.0264914
0.0199171
0.0110765
0.00158616
-0.00634689
-0.0111831
-0.0126885
-0.011391
-0.00842641
-0.00430503
7.16674e-05
0.00457565
0.00827097
0.0113533
0.013414
0.0153029
0.0174018
0.0168978
0.0151806
0.00810979
-0.00413737
-0.0246656
-0.0387751
-0.0371463
-0.0273563
-0.0134399
-0.00420167
0.0076237
0.015048
0.0196885
0.0194432
0.00641707
-0.0893734
-0.095638
-0.0974292
-0.0960191
-0.0934371
-0.090743
-0.0880043
-0.0848707
-0.0810349
-0.0763883
-0.0709733
-0.0648867
-0.0582218
-0.0510587
-0.0434815
-0.0355927
-0.0275179
-0.0194005
-0.0113938
-0.00365744
0.00364804
0.0103441
0.0162481
0.0211677
0.0249093
0.0272426
0.0279958
0.0269953
0.0240887
0.0191424
0.0124932
0.00526212
-0.0010451
-0.00519201
-0.00687881
-0.00628293
-0.00420179
-0.000987285
0.00260016
0.00646371
0.00976988
0.0125771
0.0146747
0.0167187
0.0191675
0.0193429
0.0184416
0.0129502
0.00251955
-0.0154523
-0.0286474
-0.0284311
-0.0209084
-0.00952532
-0.00139689
0.00944832
0.0159971
0.0196316
0.018895
0.00660185
-0.0783155
-0.0838327
-0.085525
-0.0844267
-0.082268
-0.0799844
-0.0776623
-0.0750125
-0.0717672
-0.0678242
-0.0632123
-0.0580107
-0.0522972
-0.0461378
-0.0396007
-0.0327688
-0.0257459
-0.018653
-0.0116227
-0.00479528
0.00168525
0.00766101
0.0129694
0.0174401
0.0209075
0.0231864
0.0241348
0.0236195
0.021566
0.0179448
0.0130423
0.0076294
0.00274202
-0.000668962
-0.00229007
-0.00210275
-0.000644354
0.00186574
0.00480729
0.00810267
0.0110655
0.0136541
0.0157834
0.0179339
0.0207034
0.02175
0.0217085
0.0174974
0.00839534
-0.00718214
-0.0192075
-0.0201456
-0.0146887
-0.0057537
0.00125294
0.0111283
0.0169115
0.0195306
0.0183059
0.006816
-0.0682396
-0.0730923
-0.0746745
-0.0738326
-0.0720461
-0.0701341
-0.0681904
-0.0659765
-0.0632601
-0.0599461
-0.0560526
-0.0516438
-0.0467846
-0.0415293
-0.0359329
-0.0300624
-0.0240028
-0.0178555
-0.0117335
-0.00575877
-5.91645e-05
0.00523067
0.00996918
0.0140076
0.0172032
0.0194085
0.020509
0.0204071
0.0190715
0.0165234
0.013001
0.00904726
0.00536948
0.00267696
0.0012642
0.00125133
0.00229258
0.00426724
0.00669234
0.00949686
0.0121496
0.0145623
0.0167103
0.0189301
0.0219046
0.0237446
0.0244743
0.0212146
0.0130939
-0.000175102
-0.0108028
-0.0126228
-0.0089447
-0.00221859
0.0037061
0.0125821
0.017782
0.0194901
0.0178204
0.00707357
-0.0591273
-0.063361
-0.0648081
-0.064177
-0.0627173
-0.0611382
-0.0595342
-0.0577082
-0.0554605
-0.0527039
-0.0494481
-0.0457447
-0.0416472
-0.0372003
-0.0324483
-0.0274449
-0.0222595
-0.0169758
-0.011689
-0.00650366
-0.00153052
0.00311666
0.00731674
0.010944
0.0138753
0.0159931
0.017207
0.0174462
0.0167021
0.0150189
0.0125904
0.00979271
0.00712005
0.00508787
0.00395709
0.00388492
0.00466481
0.00624183
0.00826028
0.0106518
0.0130229
0.0152791
0.0174113
0.0196582
0.0226858
0.025019
0.026177
0.0236007
0.0164178
0.00542301
-0.00366781
-0.00609859
-0.00388207
0.000995551
0.00591629
0.0137258
0.0185469
0.0195839
0.0175228
0.00735345
-0.050867
-0.0545308
-0.0558515
-0.055399
-0.0542267
-0.0529442
-0.0516415
-0.0501571
-0.0483206
-0.0460531
-0.0433584
-0.0402771
-0.0368533
-0.0331235
-0.0291232
-0.0248953
-0.0204953
-0.0159918
-0.0114645
-0.00700023
-0.0026922
0.00135986
0.0050556
0.00829625
0.0109737
0.0129915
0.0142812
0.0147918
0.014524
0.0135274
0.0119556
0.010079
0.00822353
0.00677149
0.00594395
0.00590111
0.00653247
0.00782224
0.00952316
0.0115736
0.0136879
0.0157883
0.0178555
0.0200622
0.022975
0.0253707
0.0265973
0.0245518
0.0184209
0.00958215
0.00204477
-0.000705864
0.000373569
0.00382143
0.00783541
0.0144978
0.0190772
0.0198068
0.0173806
0.00758995
-0.0433843
-0.0465561
-0.0477632
-0.047458
-0.0465306
-0.0455033
-0.0444618
-0.043274
-0.0417944
-0.039952
-0.0377463
-0.0352091
-0.0323762
-0.0292771
-0.0259402
-0.0223989
-0.0186979
-0.014892
-0.0110467
-0.00723395
-0.00353258
-2.30798e-05
0.00321171
0.00609129
0.00852155
0.0104279
0.0117574
0.0124727
0.0125781
0.0121139
0.0112052
0.0100497
0.0088523
0.00789328
0.00736095
0.00739802
0.00795768
0.00904591
0.0104993
0.0122703
0.0141485
0.0160837
0.0180364
0.0201257
0.0227295
0.024914
0.02598
0.0243618
0.0193329
0.0124009
0.00632201
0.00354548
0.00379437
0.00620795
0.00942443
0.014892
0.0192259
0.0200202
0.0172235
0.00768318
-0.0366432
-0.0393809
-0.0404739
-0.0402861
-0.0395662
-0.0387593
-0.0379433
-0.0370107
-0.035838
-0.0343619
-0.0325787
-0.030513
-0.0281938
-0.0256445
-0.0228876
-0.0199488
-0.0168634
-0.013675
-0.0104364
-0.00720595
-0.00404789
-0.0010274
0.00179377
0.0043269
0.00651871
0.00830417
0.00964014
0.0104979
0.0108821
0.0108257
0.0104241
0.00979544
0.00912873
0.00858602
0.00832567
0.00846584
0.0090021
0.0099523
0.0112125
0.0127521
0.0144133
0.0161732
0.0179695
0.019872
0.0220202
0.0239036
0.0247317
0.0234504
0.0194574
0.0141154
0.00930506
0.0067438
0.0064299
0.00811881
0.0106537
0.014952
0.0189107
0.019975
0.0167866
0.0075258
-0.0305854
-0.0329368
-0.0339222
-0.0338308
-0.0332783
-0.0326593
-0.0320368
-0.0313218
-0.0304103
-0.0292467
-0.0278251
-0.0261644
-0.0242876
-0.0222133
-0.0199587
-0.0175438
-0.0149957
-0.0123486
-0.00964406
-0.00692867
-0.0042546
-0.00167519
0.000757202
0.00297818
0.00494578
0.00660417
0.00791735
0.0088622
0.00944407
0.00968937
0.00966718
0.00944664
0.00917412
0.00896479
0.00893805
0.00918521
0.00972508
0.0105812
0.0116893
0.0130352
0.0144987
0.0160745
0.017683
0.019363
0.0211095
0.022607
0.0231912
0.0221751
0.0190809
0.0150059
0.0112184
0.00862597
0.00836348
0.00954369
0.011503
0.0147191
0.0181148
0.0194673
0.0158478
0.00706124
-0.0251427
-0.027158
-0.0280462
-0.0280367
-0.0276373
-0.0271637
-0.0266985
-0.026165
-0.025473
-0.0245733
-0.0234582
-0.022142
-0.0206427
-0.0189749
-0.0171517
-0.0151879
-0.0131042
-0.0109267
-0.00868816
-0.00642499
-0.00417874
-0.00199331
8.63565e-05
0.00201788
0.00377451
0.00529979
0.00656451
0.00755095
0.00826265
0.00871589
0.00895594
0.00904493
0.00907171
0.00912054
0.00928305
0.00962736
0.0101821
0.0109723
0.0119589
0.013141
0.0144243
0.0158125
0.0172198
0.0186634
0.0200544
0.0212006
0.021578
0.0207725
0.0184164
0.0153294
0.0123999
0.0102817
0.00976918
0.0105113
0.0119741
0.0142363
0.0168748
0.018478
0.0143699
0.00632662
-0.0202634
-0.0219874
-0.0227848
-0.0228367
-0.0225611
-0.0222255
-0.0218876
-0.0215006
-0.0209891
-0.0203096
-0.0194521
-0.0184265
-0.0172467
-0.0159237
-0.0144675
-0.0128888
-0.0112029
-0.0094295
-0.00759377
-0.00572391
-0.00385184
-0.00201097
-0.000237181
0.00144146
0.00297186
0.0043557
0.00554941
0.0065371
0.00732081
0.00790981
0.0083364
0.00863835
0.00888175
0.0091226
0.00943031
0.00985406
0.0104243
0.0111649
0.0120521
0.013093
0.0142129
0.0154195
0.0166255
0.017839
0.0189292
0.0197897
0.0200129
0.0193735
0.0176033
0.0152797
0.0130333
0.011309
0.0107019
0.0110729
0.0120984
0.0135587
0.0152388
0.0151355
0.0124467
0.00543353
-0.0159013
-0.0173719
-0.0180856
-0.0181845
-0.0180105
-0.017786
-0.0175624
-0.0172938
-0.0169241
-0.0164263
-0.015783
-0.0150007
-0.0140891
-0.0130563
-0.0119095
-0.0106564
-0.00930847
-0.00788014
-0.00639015
-0.00485977
-0.00331321
-0.00177592
-0.000275356
0.00116205
0.00251074
0.00373646
0.00483658
0.00579406
0.00660523
0.00727118
0.00781472
0.00825843
0.00864987
0.00902534
0.0094367
0.00991862
0.0104984
0.0111969
0.0119996
0.012917
0.0138895
0.0149276
0.0159445
0.0169475
0.0177937
0.0184329
0.0185516
0.0180453
0.0167273
0.0149798
0.0132611
0.0118556
0.011234
0.0112998
0.0119346
0.0127671
0.0136573
0.0134515
0.0105747
0.00452802
-0.0120083
-0.01326
-0.0138982
-0.0140328
-0.0139417
-0.0138087
-0.0136786
-0.0135164
-0.013273
-0.0129114
-0.012434
-0.0118517
-0.0111616
-0.0103703
-0.00948242
-0.0085029
-0.00743961
-0.0063031
-0.00510731
-0.00386781
-0.00260297
-0.00133221
-7.6375e-05
0.00114427
0.002309
0.00339861
0.00439953
0.00530008
0.00609814
0.00679236
0.00739689
0.00792466
0.00840821
0.00887016
0.00934817
0.00986594
0.0104457
0.0111041
0.0118319
0.0126406
0.0134816
0.0143665
0.0152137
0.0160335
0.0166871
0.0171596
0.0172145
0.0168134
0.0158338
0.0145145
0.0131973
0.0120437
0.0114376
0.0112653
0.0115541
0.0119099
0.0121062
0.011675
0.00886382
0.00370543
-0.00854044
-0.00960457
-0.0101748
-0.0103355
-0.0103106
-0.0102508
-0.0101943
-0.0101141
-0.00996998
-0.00973635
-0.00940582
-0.00897498
-0.00845909
-0.00786634
-0.00719235
-0.00644005
-0.00561461
-0.00472333
-0.00377608
-0.00278422
-0.00176164
-0.00072259
0.000317631
0.00134371
0.00233967
0.00329069
0.00418533
0.00501396
0.00577321
0.00646007
0.00708344
0.00764958
0.00818016
0.0086886
0.00920125
0.00973344
0.0103019
0.0109193
0.0115785
0.0122902
0.0130153
0.0137644
0.0144645
0.0151285
0.0156334
0.0159826
0.016001
0.0156818
0.0149501
0.013946
0.0129272
0.0119659
0.0113783
0.0110339
0.0110263
0.0110241
0.0107287
0.0100002
0.00738
0.00300771
-0.0054593
-0.0063627
-0.00687186
-0.00705057
-0.00707798
-0.00707627
-0.0070779
-0.00706178
-0.00699552
-0.00685785
-0.00664197
-0.00634975
-0.00598597
-0.00554896
-0.00504648
-0.00448004
-0.00385116
-0.00316395
-0.00242523
-0.00164309
-0.0008274
1.16802e-05
0.00086281
0.00171452
0.00255475
0.00337217
0.0041576
0.0049029
0.00560436
0.00625806
0.00686872
0.0074385
0.00798112
0.00850388
0.0090243
0.00955191
0.0100979
0.0106715
0.0112665
0.0118913
0.0125137
0.0131445
0.0137204
0.0142549
0.014646
0.0149038
0.0149021
0.0146454
0.0140922
0.0133162
0.0125121
0.0116953
0.0111174
0.0106606
0.0104062
0.0101304
0.00949521
0.0085257
0.00613655
0.00244059
-0.00272883
-0.00349494
-0.00394947
-0.00413993
-0.00420811
-0.00425219
-0.00429924
-0.00433307
-0.00432776
-0.00426586
-0.00414132
-0.00395491
-0.00370929
-0.00340625
-0.00304723
-0.00263269
-0.00216499
-0.00164669
-0.00108186
-0.00047583
0.000164457
0.000831715
0.00151775
0.00221438
0.00291272
0.00360404
0.00428093
0.00493666
0.00556764
0.00616969
0.00674463
0.00729218
0.00782032
0.00833235
0.00883907
0.00934595
0.00985963
0.0103861
0.0109193
0.0114655
0.011998
0.0125266
0.0129987
0.0134256
0.0137298
0.0139195
0.0139068
0.0136958
0.0132675
0.0126544