/*--------------------------------*- C++ -*----------------------------------*\
| =========                 |                                                 |
| \\      /  F ield         | OpenFOAM: The Open Source CFD Toolbox           |
|  \\    /   O peration     | Version:  2512                                  |
|   \\  /    A nd           | Website:  www.openfoam.com                      |
|    \\/     M anipulation  |                                                 |
\*---------------------------------------------------------------------------*/
FoamFile
{
    version     2.0;
    format      ascii;
    arch        "LSB;label=32;scalar=64";
    class       volScalarField;
    location    "117";
    object      p;
}
// * * * * * * * * * * * * * * * * * * * * * * * * * * * * * * * * * * * * * //

dimensions      [0 2 -2 0 0 0 0];

internalField   nonuniform List<scalar> 
13248
(
-0.467355
-0.464132
-0.460773
-0.457515
-0.454618
-0.452353
-0.450805
-0.449847
-0.449163
-0.448288
-0.446659
-0.443685
-0.438824
-0.431657
-0.421943
-0.409638
-0.394889
-0.377997
-0.359347
-0.339367
-0.318354
-0.296712
-0.273715
-0.25006
-0.47623
-0.472425
-0.468383
-0.464353
-0.460579
-0.457308
-0.454581
-0.452203
-0.449796
-0.446855
-0.44283
-0.437215
-0.42962
-0.41983
-0.40782
-0.393738
-0.377859
-0.360534
-0.342127
-0.322972
-0.303333
-0.283453
-0.263223
-0.243364
-0.486756
-0.482145
-0.477327
-0.472505
-0.467839
-0.463505
-0.459456
-0.455414
-0.45095
-0.445575
-0.438831
-0.430381
-0.420049
-0.407843
-0.393921
-0.378549
-0.362044
-0.344722
-0.32687
-0.308729
-0.290476
-0.272305
-0.254139
-0.236351
-0.499135
-0.493483
-0.487779
-0.482108
-0.476466
-0.470905
-0.465264
-0.459193
-0.452263
-0.444085
-0.434383
-0.423049
-0.410138
-0.395838
-0.380416
-0.364167
-0.347368
-0.330258
-0.313033
-0.295845
-0.278819
-0.262088
-0.245611
-0.229759
-0.513372
-0.506472
-0.499767
-0.493146
-0.486357
-0.47929
-0.471676
-0.463139
-0.453346
-0.442099
-0.429371
-0.415294
-0.400108
-0.384104
-0.367567
-0.350749
-0.33385
-0.31702
-0.30037
-0.283986
-0.267938
-0.252295
-0.237037
-0.222389
-0.529298
-0.521002
-0.513193
-0.505476
-0.497273
-0.488302
-0.478232
-0.466765
-0.453767
-0.439313
-0.423638
-0.40707
-0.389952
-0.372587
-0.355216
-0.338011
-0.321084
-0.304509
-0.288332
-0.272587
-0.257305
-0.24251
-0.228199
-0.214507
-0.546585
-0.53682
-0.527817
-0.518795
-0.508803
-0.497416
-0.484352
-0.46952
-0.453091
-0.43544
-0.417023
-0.398278
-0.37956
-0.361121
-0.343118
-0.325635
-0.308708
-0.29235
-0.276558
-0.261328
-0.246658
-0.232541
-0.218976
-0.206001
-0.564723
-0.553495
-0.543205
-0.532596
-0.520329
-0.505941
-0.489356
-0.470832
-0.450901
-0.430203
-0.40933
-0.388735
-0.368713
-0.349422
-0.330928
-0.313235
-0.29632
-0.280145
-0.264676
-0.249877
-0.23572
-0.222181
-0.209254
-0.196888
-0.582995
-0.570382
-0.558697
-0.546132
-0.531028
-0.513055
-0.492531
-0.470164
-0.446833
-0.423361
-0.40037
-0.378244
-0.357174
-0.337216
-0.318348
-0.300509
-0.283627
-0.267631
-0.252455
-0.238043
-0.224345
-0.211326
-0.19896
-0.187133
-0.600464
-0.586596
-0.573369
-0.558406
-0.539892
-0.517857
-0.493175
-0.467029
-0.44057
-0.414686
-0.389932
-0.366575
-0.344686
-0.324222
-0.305087
-0.287169
-0.27036
-0.254559
-0.239677
-0.225637
-0.212377
-0.199847
-0.187992
-0.176673
-0.615991
-0.601019
-0.586049
-0.568208
-0.545777
-0.519381
-0.490542
-0.460868
-0.431656
-0.403753
-0.377582
-0.353271
-0.330773
-0.309957
-0.290671
-0.272762
-0.256088
-0.240527
-0.225971
-0.212326
-0.199515
-0.187475
-0.176111
-0.165304
-0.628348
-0.612454
-0.595524
-0.57433
-0.547554
-0.516629
-0.483754
-0.450864
-0.419288
-0.389743
-0.362483
-0.337487
-0.314597
-0.293611
-0.274322
-0.256543
-0.240108
-0.224873
-0.210715
-0.197527
-0.185223
-0.173722
-0.162902
-0.152707
-0.344878
-0.347595
-0.349298
-0.350519
-0.351698
-0.352938
-0.35426
-0.355649
-0.357072
-0.358465
-0.359755
-0.360848
-0.361642
-0.362031
-0.361913
-0.361195
-0.359806
-0.357711
-0.354925
-0.351531
-0.347659
-0.343454
-0.339171
-0.335434
-0.356935
-0.359489
-0.361256
-0.362752
-0.364392
-0.366271
-0.368392
-0.370727
-0.373215
-0.375763
-0.378288
-0.380637
-0.382645
-0.384132
-0.3849
-0.384746
-0.383473
-0.380907
-0.376926
-0.371485
-0.364592
-0.356264
-0.34671
-0.337016
-0.369914
-0.37208
-0.373782
-0.375471
-0.377508
-0.379969
-0.382843
-0.386081
-0.389605
-0.393299
-0.396975
-0.400562
-0.403756
-0.40631
-0.407933
-0.408311
-0.407117
-0.404035
-0.398801
-0.391229
-0.381216
-0.368666
-0.353671
-0.337739
-0.383298
-0.384883
-0.38638
-0.388146
-0.390461
-0.393379
-0.396873
-0.400873
-0.405276
-0.409947
-0.414713
-0.419265
-0.423417
-0.426813
-0.429067
-0.429757
-0.42844
-0.424677
-0.418075
-0.408329
-0.395264
-0.378772
-0.358752
-0.336422
-0.396498
-0.397365
-0.398522
-0.400216
-0.402634
-0.405814
-0.409712
-0.414236
-0.419256
-0.424601
-0.430053
-0.435329
-0.440098
-0.443963
-0.44646
-0.447078
-0.445281
-0.440542
-0.432385
-0.420436
-0.404489
-0.384498
-0.360379
-0.332541
-0.40895
-0.409041
-0.409746
-0.411196
-0.413506
-0.416698
-0.420721
-0.425463
-0.430766
-0.436431
-0.442196
-0.447743
-0.452679
-0.456543
-0.458806
-0.458889
-0.456195
-0.450154
-0.440269
-0.426178
-0.407719
-0.384881
-0.358065
-0.326652
-0.420222
-0.419562
-0.419729
-0.420773
-0.422742
-0.425669
-0.429505
-0.434124
-0.439348
-0.44494
-0.450606
-0.455981
-0.460623
-0.464016
-0.465578
-0.464688
-0.460726
-0.453126
-0.441436
-0.425374
-0.40493
-0.380113
-0.352159
-0.319133
-0.430092
-0.428779
-0.428362
-0.428846
-0.430254
-0.432646
-0.435987
-0.440152
-0.444943
-0.450097
-0.45528
-0.460084
-0.464018
-0.46652
-0.466973
-0.464744
-0.45923
-0.449925
-0.436487
-0.418767
-0.396986
-0.371171
-0.343177
-0.310374
-0.438593
-0.436763
-0.435749
-0.435554
-0.436219
-0.437845
-0.44043
-0.443857
-0.447916
-0.45232
-0.456697
-0.460588
-0.463457
-0.464703
-0.463695
-0.459819
-0.452541
-0.441473
-0.426442
-0.407483
-0.385028
-0.359212
-0.331984
-0.300808
-0.44601
-0.443796
-0.442193
-0.441243
-0.441041
-0.441743
-0.443383
-0.44586
-0.448962
-0.452371
-0.455667
-0.458344
-0.459819
-0.459468
-0.456674
-0.450889
-0.441702
-0.428898
-0.412505
-0.392779
-0.370287
-0.345364
-0.319634
-0.290936
-0.452846
-0.450329
-0.448143
-0.446402
-0.445271
-0.444967
-0.445544
-0.446936
-0.448909
-0.451107
-0.453062
-0.454217
-0.453957
-0.451668
-0.446793
-0.438905
-0.427761
-0.413344
-0.395862
-0.375752
-0.353626
-0.330075
-0.30633
-0.280674
-0.459742
-0.456915
-0.454141
-0.451605
-0.449537
-0.448194
-0.447691
-0.44792
-0.448626
-0.449406
-0.449739
-0.449029
-0.446667
-0.442098
-0.43489
-0.424787
-0.411745
-0.395924
-0.377654
-0.357415
-0.335686
-0.313162
-0.290526
-0.267783
-0.332526
-0.33134
-0.333012
-0.337159
-0.343027
-0.349062
-0.353498
-0.352862
-0.345532
-0.32952
-0.304069
-0.270688
-0.233251
-0.196871
-0.166199
-0.144081
-0.131302
-0.127625
-0.133324
-0.148968
-0.172504
-0.196622
-0.210398
-0.205723
-0.18321
-0.151426
-0.120291
-0.0958732
-0.0801078
-0.0723015
-0.070962
-0.076364
-0.0900778
-0.10948
-0.124834
-0.125872
-0.1123
-0.0921999
-0.075058
-0.0642688
-0.0590876
-0.0607766
-0.0703258
-0.0826995
-0.087499
-0.0798941
-0.0672918
-0.0549807
-0.0463004
-0.0419568
-0.0409427
-0.0414593
-0.0400208
-0.0367316
-0.033081
-0.02807
-0.0211101
-0.0189538
-0.016116
-0.00691425
-0.327294
-0.316815
-0.309133
-0.304297
-0.302316
-0.30222
-0.302189
-0.299918
-0.293636
-0.280806
-0.260544
-0.234034
-0.204436
-0.175973
-0.152528
-0.13652
-0.128799
-0.12971
-0.140187
-0.160771
-0.188513
-0.215018
-0.228569
-0.221955
-0.196068
-0.160497
-0.125949
-0.098648
-0.080278
-0.0700007
-0.0662523
-0.0688701
-0.0792767
-0.0956855
-0.1096
-0.111568
-0.100704
-0.0840455
-0.070284
-0.0624725
-0.0598433
-0.0642095
-0.0764845
-0.0910023
-0.096606
-0.0875416
-0.0724555
-0.0573538
-0.0465739
-0.040154
-0.0372098
-0.0366093
-0.0348033
-0.0327039
-0.0301271
-0.0270815
-0.0219025
-0.0208832
-0.0187846
-0.0081323
-0.321895
-0.301935
-0.284381
-0.269857
-0.258998
-0.251434
-0.245972
-0.241017
-0.233897
-0.225626
-0.211055
-0.191692
-0.170186
-0.149797
-0.133636
-0.123752
-0.121163
-0.126811
-0.142099
-0.167281
-0.1986
-0.227015
-0.240537
-0.23292
-0.204793
-0.166597
-0.129567
-0.100068
-0.0795774
-0.0671298
-0.0611527
-0.0611372
-0.0682704
-0.081608
-0.0940111
-0.09702
-0.0885241
-0.0752383
-0.0648104
-0.0599799
-0.0599526
-0.0670123
-0.0819456
-0.0985192
-0.104987
-0.0946358
-0.0771924
-0.0593964
-0.0466339
-0.0383653
-0.0336925
-0.0320334
-0.029731
-0.0286603
-0.027067
-0.0260465
-0.0226832
-0.0227704
-0.0214126
-0.00934109
-0.31628
-0.287617
-0.26077
-0.23715
-0.217367
-0.201688
-0.18971
-0.180847
-0.172865
-0.164785
-0.157628
-0.1447
-0.130992
-0.118378
-0.109238
-0.105325
-0.107827
-0.118239
-0.138184
-0.167538
-0.201953
-0.232195
-0.24711
-0.238469
-0.209189
-0.169587
-0.131121
-0.10021
-0.078176
-0.0639593
-0.0560187
-0.0535958
-0.0576323
-0.0678822
-0.0786065
-0.0822926
-0.0760782
-0.0660154
-0.0587641
-0.0568056
-0.0593047
-0.0689427
-0.0863993
-0.104958
-0.112382
-0.101007
-0.0814202
-0.0610901
-0.0464866
-0.0366061
-0.0304206
-0.0277802
-0.0248625
-0.0246494
-0.0239311
-0.0249771
-0.0234513
-0.024596
-0.0239735
-0.0105278
-0.309159
-0.274077
-0.239336
-0.209334
-0.181583
-0.158009
-0.138673
-0.124553
-0.113696
-0.104619
-0.102905
-0.0950008
-0.0880015
-0.0823906
-0.0797948
-0.0815755
-0.0891806
-0.104401
-0.128788
-0.161793
-0.198746
-0.230521
-0.246361
-0.238387
-0.209306
-0.169624
-0.130844
-0.0992969
-0.076266
-0.060707
-0.051132
-0.0466135
-0.047797
-0.0550066
-0.0638826
-0.0678018
-0.0637079
-0.0566018
-0.0522544
-0.0529416
-0.0577845
-0.0698045
-0.0896041
-0.110044
-0.118522
-0.106491
-0.0850721
-0.0624349
-0.0461502
-0.0348853
-0.0274031
-0.0238836
-0.020253
-0.0207196
-0.0207505
-0.0238846
-0.0242051
-0.0263385
-0.0264374
-0.0116788
-0.300519
-0.262767
-0.224108
-0.187556
-0.153438
-0.12339
-0.0971259
-0.0771761
-0.0626609
-0.0555067
-0.0500037
-0.0465225
-0.0443764
-0.044442
-0.0474224
-0.0544742
-0.0670741
-0.0869462
-0.115292
-0.151152
-0.189852
-0.222791
-0.239675
-0.233062
-0.205367
-0.16694
-0.128958
-0.0975379
-0.0740251
-0.0575205
-0.0466468
-0.0404004
-0.0390919
-0.0434085
-0.0503072
-0.0541507
-0.0517732
-0.04722
-0.0453921
-0.0484134
-0.055348
-0.0694913
-0.0913841
-0.113572
-0.123196
-0.110931
-0.0880875
-0.0634323
-0.0456399
-0.0332003
-0.024633
-0.0203621
-0.0159479
-0.0169133
-0.0175549
-0.0227763
-0.0249391
-0.0279747
-0.0287747
-0.0127808
-0.291345
-0.253275
-0.213713
-0.174758
-0.137144
-0.10241
-0.07162
-0.0464593
-0.0272713
-0.0150326
-0.00789611
-0.00465661
-0.00527891
-0.00889024
-0.0159354
-0.0273134
-0.0442513
-0.0680881
-0.0994857
-0.137147
-0.176669
-0.210222
-0.228073
-0.223257
-0.197914
-0.161905
-0.125721
-0.0951349
-0.0716067
-0.0545038
-0.0426392
-0.0350055
-0.0316315
-0.0333251
-0.0382141
-0.0417199
-0.0406014
-0.0381058
-0.0383374
-0.0433204
-0.0520184
-0.0679516
-0.0916438
-0.115422
-0.126262
-0.114212
-0.0904118
-0.0640789
-0.0449683
-0.0315457
-0.0220883
-0.0172113
-0.01198
-0.0132666
-0.0143721
-0.0216556
-0.0256458
-0.0294831
-0.0309577
-0.0138209
-0.28213
-0.24553
-0.20796
-0.16991
-0.131838
-0.0953454
-0.0618873
-0.0329124
-0.00928511
0.00798
0.0192038
0.0245908
0.0241893
0.0196238
0.0105858
-0.00347617
-0.023376
-0.0498857
-0.0830495
-0.121315
-0.160678
-0.194138
-0.212641
-0.209831
-0.187562
-0.154896
-0.121338
-0.092202
-0.0690858
-0.0517004
-0.0391289
-0.0304256
-0.0253996
-0.0248227
-0.0277821
-0.0307493
-0.030466
-0.0294901
-0.0312907
-0.037796
-0.0478822
-0.0652204
-0.0903616
-0.115542
-0.127658
-0.116286
-0.0920115
-0.0643802
-0.0441492
-0.0299268
-0.0197556
-0.0144109
-0.00836376
-0.00980877
-0.0112275
-0.0205232
-0.0263163
-0.0308441
-0.0329596
-0.0147877
-0.273064
-0.239191
-0.205592
-0.170681
-0.13447
-0.0986899
-0.0647756
-0.0339046
-0.00713391
0.0143872
0.0300138
0.0390716
0.0412695
0.0381743
0.0294208
0.0147626
-0.00619969
-0.0336823
-0.0671462
-0.104818
-0.143088
-0.175689
-0.194432
-0.193711
-0.17505
-0.146425
-0.116123
-0.0889465
-0.066629
-0.0492498
-0.0362221
-0.0267227
-0.0204177
-0.0179472
-0.0190949
-0.0213614
-0.0216221
-0.021544
-0.0244608
-0.0320217
-0.0430292
-0.0613226
-0.0876033
-0.113992
-0.127412
-0.117136
-0.0929038
-0.0644088
-0.0432407
-0.0283756
-0.0176491
-0.011973
-0.00510393
-0.00655779
-0.00814438
-0.019377
-0.0269407
-0.0320403
-0.0347543
-0.0156702
-0.264371
-0.234202
-0.205381
-0.174418
-0.141325
-0.107989
-0.0754428
-0.0445429
-0.0164844
0.00746449
0.0263482
0.0391322
0.0459678
0.045971
0.039502
0.0263136
0.00629012
-0.0203505
-0.0525719
-0.0884672
-0.124766
-0.155768
-0.174404
-0.175988
-0.161399
-0.137349
-0.110776
-0.0859537
-0.0647472
-0.0475867
-0.0342546
-0.024132
-0.0168042
-0.0127538
-0.0122213
-0.0136492
-0.0140133
-0.0143934
-0.0180139
-0.0261445
-0.0376772
-0.056523
-0.0834556
-0.110847
-0.12557
-0.11677
-0.0931318
-0.0642851
-0.0423583
-0.0269371
-0.0157614
-0.00993274
-0.00225512
-0.00352654
-0.00514187
-0.0182128
-0.0275063
-0.0330559
-0.0363159
-0.0164562
-0.256525
-0.231133
-0.206885
-0.179367
-0.149564
-0.119358
-0.0890717
-0.0591254
-0.0306164
-0.00494341
0.0166794
0.0329049
0.0418319
0.0452247
0.0422898
0.0322042
0.0148438
-0.00948936
-0.0394403
-0.072892
-0.106585
-0.135962
-0.153447
-0.157037
-0.146727
-0.1277
-0.105289
-0.0831686
-0.0633445
-0.0465835
-0.0330529
-0.0224406
-0.0143089
-0.00893281
-0.00685475
-0.00746388
-0.00774642
-0.00825632
-0.0122514
-0.0203651
-0.0317712
-0.0506567
-0.0782288
-0.106556
-0.122135
-0.11502
-0.0924542
-0.0637972
-0.0414161
-0.0255122
-0.0139558
-0.00812755
0.000143132
-0.000782134
-0.00224162
-0.0170064
-0.028003
-0.033879
-0.0376112
-0.0171258
-0.248814
-0.230597
-0.210735
-0.186256
-0.160007
-0.133425
-0.106381
-0.0791564
-0.052475
-0.0272523
-0.00400867
0.0150583
0.0291505
0.0361974
0.0369906
0.031241
0.0182657
-0.00158192
-0.0271106
-0.0561968
-0.0861688
-0.113683
-0.13018
-0.134689
-0.128617
-0.11465
-0.0965085
-0.0773686
-0.0593888
-0.0435792
-0.0303619
-0.0197336
-0.0113344
-0.00516021
-0.00184917
-0.00173992
-0.00218581
-0.00278273
-0.00725301
-0.0151094
-0.0261641
-0.0445208
-0.0719206
-0.10061
-0.117123
-0.111354
-0.0902363
-0.062019
-0.0397059
-0.0236525
-0.0119715
-0.00611712
0.00249778
0.00180109
0.000486198
-0.0157856
-0.0284065
-0.03448
-0.0386408
-0.0176581
-0.228772
-0.223121
-0.203657
-0.179355
-0.154897
-0.130564
-0.105705
-0.0804217
-0.0554361
-0.0314889
-0.00930258
0.00840976
0.0216577
0.0296513
0.0322584
0.0285554
0.0178322
0.000211847
-0.0230629
-0.0498946
-0.0776812
-0.104121
-0.117056
-0.120761
-0.115003
-0.102334
-0.0860786
-0.0688972
-0.0526198
-0.0381047
-0.0257327
-0.0155734
-0.0073724
-0.00103523
0.00294491
0.00384807
0.00369174
0.00539053
-0.00083308
-0.00782016
-0.0181044
-0.0363692
-0.0651502
-0.0961139
-0.114691
-0.109642
-0.0877965
-0.0592281
-0.0370966
-0.0213547
-0.00994729
-0.00396729
0.00523853
0.00477913
0.00363228
-0.0143183
-0.0288524
-0.0349429
-0.0395007
-0.0180647
-0.210163
-0.207622
-0.189769
-0.166905
-0.144577
-0.123021
-0.101207
-0.0789418
-0.0568261
-0.0356557
-0.0165032
-0.000179611
0.0122985
0.0203446
0.0233795
0.0207182
0.0118607
-0.00306707
-0.0229485
-0.0457559
-0.0685958
-0.0856099
-0.100476
-0.103883
-0.0990296
-0.0884981
-0.0748807
-0.0602205
-0.0460146
-0.0330287
-0.0216566
-0.0121144
-0.00425774
0.00206018
0.00636904
0.0076299
0.00718644
0.00376446
0.00317695
-0.0026465
-0.0119214
-0.0296472
-0.0590492
-0.0910065
-0.109958
-0.104668
-0.0833593
-0.0556433
-0.0342472
-0.0189856
-0.0079293
-0.00198472
0.00727805
0.00692537
0.00613794
-0.0131344
-0.0293398
-0.0352089
-0.0399223
-0.0182708
-0.192986
-0.190997
-0.175803
-0.155511
-0.135563
-0.116588
-0.0975767
-0.0781393
-0.0587371
-0.0401303
-0.0231585
-0.00854872
0.00285836
0.0103641
0.0134496
0.0116415
0.0046237
-0.00739625
-0.0233999
-0.0415656
-0.0594502
-0.0738308
-0.0847722
-0.0878582
-0.0843799
-0.0761113
-0.0649451
-0.0524919
-0.0400556
-0.028394
-0.0179218
-0.00892757
-0.00140313
0.00477768
0.00925616
0.0108409
0.0104668
0.00803126
0.00678498
0.00147011
-0.00729928
-0.0246482
-0.0536378
-0.0846056
-0.103129
-0.0982118
-0.0780412
-0.0516671
-0.0311854
-0.0165307
-0.00588304
-2.53472e-05
0.00913838
0.00879003
0.00819326
-0.0122132
-0.0298022
-0.03523
-0.039931
-0.0183297
-0.175622
-0.174881
-0.162537
-0.145013
-0.127397
-0.110718
-0.0941916
-0.0773305
-0.0604234
-0.0441355
-0.029148
-0.0162023
-0.00594846
0.00103545
0.00431193
0.00351393
-0.00154913
-0.0106408
-0.0229167
-0.0369599
-0.0509238
-0.0626101
-0.0709835
-0.073839
-0.0714396
-0.0649332
-0.0557635
-0.0452124
-0.0343791
-0.0239716
-0.0143984
-0.00597532
0.00118729
0.0071501
0.0117016
0.0136305
0.0135963
0.0118906
0.0104474
0.00555255
-0.00287323
-0.0196179
-0.0473247
-0.0768803
-0.0951131
-0.0906824
-0.0718412
-0.0471682
-0.0278862
-0.0139861
-0.00380247
0.00191136
0.0108639
0.0105193
0.0100614
-0.0112991
-0.0300862
-0.0349773
-0.0395302
-0.0182161
-0.15926
-0.159841
-0.149893
-0.134896
-0.119509
-0.104954
-0.0906726
-0.0761605
-0.0615597
-0.0473446
-0.0342934
-0.0228958
-0.0136878
-0.00713978
-0.00363469
-0.00346342
-0.00674276
-0.0132677
-0.022394
-0.0330305
-0.0437165
-0.0529065
-0.0593741
-0.0617939
-0.0600898
-0.0549645
-0.0474598
-0.0385519
-0.0291391
-0.0198709
-0.0111537
-0.00330219
0.00349836
0.00920396
0.0137422
0.0159702
0.0163744
0.0153207
0.0141075
0.00979677
0.0019883
-0.0136189
-0.0397918
-0.0681171
-0.0858707
-0.0820059
-0.0647775
-0.0421977
-0.0243902
-0.0113811
-0.00170483
0.0038231
0.0124226
0.0120909
0.0118324
-0.0102415
-0.0300976
-0.0344144
-0.038642
-0.0178855
-0.144568
-0.145737
-0.137694
-0.125013
-0.111775
-0.0992242
-0.0869928
-0.0746234
-0.0622072
-0.0498665
-0.0384948
-0.0284728
-0.0202145
-0.0141032
-0.0104579
-0.00950484
-0.0113204
-0.0157377
-0.0222656
-0.0300516
-0.0379773
-0.044892
-0.0497637
-0.0516584
-0.0503721
-0.0462756
-0.0400844
-0.0325351
-0.0243512
-0.0161068
-0.00819718
-0.000920294
0.00551691
0.010954
0.0154073
0.0178654
0.0187464
0.0183809
0.0176768
0.0141565
0.00728191
-0.00687963
-0.0314506
-0.0583802
-0.0754506
-0.0723257
-0.0569974
-0.0368273
-0.0207347
-0.00874416
0.000389512
0.0057046
0.0138092
0.0134781
0.0134766
-0.00900285
-0.0297228
-0.0334564
-0.0371843
-0.0172985
-0.130792
-0.132333
-0.126005
-0.115456
-0.104221
-0.0935142
-0.0831098
-0.0726061
-0.0617959
-0.0514551
-0.041668
-0.0329068
-0.0255428
-0.0198878
-0.0161984
-0.0146512
-0.0152982
-0.0180008
-0.0223867
-0.0278193
-0.0334939
-0.0384586
-0.0419645
-0.0432878
-0.0421758
-0.0387897
-0.033606
-0.0271678
-0.0200414
-0.0127108
-0.00554903
0.00115964
0.00722876
0.0124088
0.0167392
0.0193627
0.0206932
0.0210434
0.02106
0.018508
0.0127267
0.000134614
-0.0225852
-0.0478666
-0.064143
-0.0618977
-0.0486986
-0.0311634
-0.0169704
-0.00610606
0.00245896
0.00755381
0.0150361
0.0146677
0.0149437
-0.00753374
-0.0287873
-0.0320015
-0.0351013
-0.0164212
-0.117763
-0.119801
-0.114978
-0.106287
-0.0968373
-0.0877867
-0.0789971
-0.0700873
-0.0611219
-0.0522739
-0.0438629
-0.0362405
-0.0297044
-0.0245045
-0.0208443
-0.0188616
-0.0185959
-0.0199414
-0.022617
-0.0261492
-0.0299751
-0.033356
-0.035691
-0.0364285
-0.0353216
-0.0324085
-0.0279886
-0.0224473
-0.0162186
-0.00969699
-0.00321842
0.00294076
0.00863301
0.0135698
0.0177708
0.020511
0.0222194
0.0232448
0.0241107
0.0226889
0.0181442
0.00721357
-0.0135214
-0.0370239
-0.0523501
-0.0510619
-0.0401411
-0.0253467
-0.0131568
-0.00349587
0.00448265
0.00936944
0.0161328
0.0156722
0.0162223
-0.00572166
-0.0270798
-0.0299506
-0.0323699
-0.015234
-0.105864
-0.108202
-0.104573
-0.0974782
-0.0896132
-0.0820481
-0.07472
-0.0673234
-0.0597974
-0.0523044
-0.0451181
-0.0385165
-0.0327395
-0.0279869
-0.0244201
-0.0221474
-0.0212014
-0.0215087
-0.0228585
-0.0249025
-0.027227
-0.0293068
-0.0306514
-0.0308351
-0.0296369
-0.0270253
-0.0231748
-0.01835
-0.0128762
-0.00706728
-0.00120894
0.00443149
0.0097412
0.0144362
0.0185128
0.0213442
0.0233584
0.0249391
0.0266338
0.0264727
0.023336
0.0140414
-0.00481301
-0.0263872
-0.040522
-0.0402067
-0.0316231
-0.0195452
-0.00936166
-0.000939559
0.00644104
0.0111479
0.0171492
0.0165479
0.0173481
-0.00342777
-0.0243948
-0.0272181
-0.0290107
-0.0137378
-0.0950074
-0.0974032
-0.0947366
-0.0890254
-0.0825584
-0.0763051
-0.0702535
-0.0641435
-0.0578846
-0.0515946
-0.0454925
-0.0398043
-0.0347244
-0.0304122
-0.0269951
-0.0245593
-0.023133
-0.0226632
-0.0229998
-0.0239076
-0.0250555
-0.0260796
-0.0266009
-0.0262895
-0.024952
-0.0225229
-0.0190944
-0.0148403
-0.00999807
-0.00481275
0.000483861
0.00564262
0.0105731
0.0150172
0.0189657
0.021874
0.0241372
0.0261241
0.0284787
0.0294842
0.0277129
0.019925
0.00296232
-0.0163624
-0.0290935
-0.0297519
-0.0234573
-0.0139403
-0.00566015
0.00153978
0.00831783
0.0128816
0.0181517
0.0173981
0.0183857
-0.000536115
-0.0205834
-0.0237615
-0.0251065
-0.0119598
-0.0849135
-0.0873471
-0.0854935
-0.0809611
-0.0756981
-0.0705788
-0.0656269
-0.0606206
-0.0554591
-0.0502192
-0.045072
-0.0401994
-0.0357586
-0.0318765
-0.0286531
-0.0261573
-0.0244155
-0.0233922
-0.0229839
-0.0230235
-0.0232783
-0.0234733
-0.0233299
-0.0225955
-0.0211064
-0.0187851
-0.0156712
-0.0118729
-0.00755844
-0.00291591
0.00187293
0.0065876
0.0111498
0.0153342
0.0191351
0.0220958
0.0245531
0.0268149
0.0295497
0.0313419
0.0305588
0.0241698
0.00943797
-0.00725019
-0.0185241
-0.0201222
-0.0159356
-0.0087069
-0.00213378
0.00391676
0.0100979
0.0145574
0.0192049
0.0183549
0.0194163
0.00300585
-0.0156309
-0.019611
-0.0208144
-0.00997115
-0.0755958
-0.0780587
-0.0768572
-0.0732997
-0.0690538
-0.0649016
-0.0608878
-0.0568224
-0.0526013
-0.0482692
-0.0439566
-0.0398086
-0.0359508
-0.0324843
-0.0294875
-0.0270152
-0.0250918
-0.0236968
-0.0227636
-0.0221711
-0.021757
-0.0213214
-0.0206608
-0.0195836
-0.017956
-0.0157008
-0.0128264
-0.00939537
-0.00552365
-0.00135277
0.00297803
0.00728309
0.0114918
0.0154124
0.0190383
0.0220104
0.0245914
0.0270082
0.029822
0.0319045
0.0316411
0.0265638
0.0144244
0.000568885
-0.00930348
-0.0116847
-0.00927991
-0.00398412
0.00113986
0.00615913
0.0117582
0.0161442
0.0203445
0.0195419
0.0205335
0.00713733
-0.00974759
-0.0149106
-0.0163634
-0.00788461
-0.0671091
-0.0695054
-0.0687924
-0.0660338
-0.062643
-0.0593091
-0.056088
-0.0528178
-0.0493953
-0.0458413
-0.042253
-0.0387446
-0.0354161
-0.0323472
-0.0295995
-0.0272158
-0.0252191
-0.0235996
-0.0223163
-0.0212847
-0.0203912
-0.0194949
-0.0184492
-0.0171103
-0.0153725
-0.0131653
-0.0104808
-0.00735123
-0.00385435
-9.39761e-05
0.00382407
0.00775034
0.01162
0.0152733
0.0187025
0.0216351
0.0242562
0.0267078
0.0293756
0.031378
0.0313041
0.0273583
0.0178187
0.00669887
-0.00180962
-0.00465248
-0.00360118
0.000144394
0.00409859
0.0082332
0.0132629
0.017578
0.0215341
0.0210171
0.0218301
0.0116439
-0.00341401
-0.00995127
-0.0120088
-0.00583117
-0.059341
-0.0616102
-0.0612693
-0.0591664
-0.0564895
-0.0538406
-0.0512824
-0.0486776
-0.0459273
-0.0430347
-0.0400704
-0.037123
-0.0342716
-0.0315791
-0.0290932
-0.0268472
-0.0248585
-0.0231323
-0.0216386
-0.0203221
-0.0191064
-0.0178928
-0.0165776
-0.0150547
-0.0132431
-0.0110825
-0.00855785
-0.00568246
-0.00250734
0.000893431
0.00443922
0.00801457
0.0115597
0.0149441
0.0181555
0.0209929
0.0235794
0.0259567
0.0283466
0.0300896
0.0300437
0.0269817
0.0197195
0.0110384
0.00391632
0.000959672
0.00109886
0.00365334
0.00669869
0.0101083
0.0145747
0.0187745
0.0226366
0.0226802
0.0233289
0.0161524
0.00268903
-0.00513277
-0.00798607
-0.00393686
-0.0521962
-0.0543351
-0.0542805
-0.0527077
-0.0506172
-0.0485341
-0.046524
-0.0444707
-0.0422813
-0.0399462
-0.0375155
-0.0350569
-0.0326324
-0.0302907
-0.0280702
-0.0260057
-0.0240836
-0.0223352
-0.0207396
-0.0192618
-0.0178506
-0.016438
-0.0149521
-0.0133164
-0.0114707
-0.00936578
-0.00698537
-0.00433142
-0.00143775
0.0016447
0.00485435
0.00810382
0.0113384
0.0144552
0.0174335
0.020127
0.0225968
0.0248245
0.0268954
0.0283336
0.0282665
0.0258836
0.0204659
0.0138463
0.00806046
0.00526549
0.00488143
0.006563
0.00891605
0.0117525
0.0156653
0.0196727
0.023463
0.024183
0.0248177
0.0201206
0.0079143
-0.000820837
-0.00447022
-0.00230063
-0.0456647
-0.0476593
-0.0478093
-0.0466561
-0.0450417
-0.0434216
-0.0418605
-0.0402604
-0.0385348
-0.0366662
-0.0346883
-0.0326525
-0.0306063
-0.0285867
-0.0266205
-0.0247258
-0.0229427
-0.0212472
-0.0196378
-0.0180958
-0.0165893
-0.0150733
-0.0134995
-0.0118138
-0.00997301
-0.00793869
-0.00569661
-0.00324288
-0.000600588
0.00219681
0.0051011
0.00804784
0.0109874
0.0138385
0.0165734
0.0190839
0.0213765
0.0234164
0.025184
0.0263435
0.0262685
0.024431
0.0204456
0.0154983
0.010932
0.0084624
0.00784214
0.00891509
0.0107439
0.0131342
0.0165073
0.0202412
0.0238687
0.025168
0.0258436
0.0229274
0.0118802
0.00276429
-0.00155526
-0.000975615
-0.0397106
-0.0415397
-0.0418269
-0.0410035
-0.0397739
-0.0385301
-0.0373338
-0.0361025
-0.0347577
-0.0332767
-0.0316812
-0.0300094
-0.0282975
-0.0265743
-0.0248619
-0.0231749
-0.0215289
-0.0199246
-0.0183612
-0.016827
-0.0153024
-0.0137584
-0.0121638
-0.0104812
-0.00868136
-0.00673501
-0.00463166
-0.00236501
4.81246e-05
0.00258663
0.00521144
0.00787647
0.0105364
0.0131272
0.0156157
0.0179193
0.0200163
0.0218482
0.0233526
0.0242906
0.0242404
0.0228557
0.0199632
0.0163286
0.0128375
0.010766
0.0100898
0.0107591
0.0121866
0.0142257
0.0170778
0.0204503
0.0237696
0.0253734
0.0259887
0.0241647
0.0144967
0.00553337
0.000734194
2.89965e-05
-0.0342713
-0.0359324
-0.0363096
-0.0357439
-0.0348228
-0.0338819
-0.0329792
-0.0320458
-0.0310111
-0.0298499
-0.0285749
-0.0272143
-0.0257955
-0.0243401
-0.0228648
-0.0213799
-0.0198946
-0.0184139
-0.0169397
-0.0154656
-0.0139804
-0.0124661
-0.0109036
-0.00926787
-0.00753997
-0.0056988
-0.00373781
-0.00165048
0.000549759
0.00284975
0.00521723
0.00761971
0.0100156
0.0123561
0.0146032
0.0166913
0.0185829
0.0202123
0.0215046
0.0222852
0.0222887
0.0212841
0.0192259
0.0166038
0.0140147
0.0123528
0.0117254
0.0121462
0.0132613
0.0150051
0.0173686
0.0203133
0.0231872
0.024813
0.0252098
0.0239032
0.0158636
0.00748075
0.00242596
0.000735681
-0.0293093
-0.030807
-0.0312372
-0.0308693
-0.0301926
-0.0294934
-0.0288251
-0.0281301
-0.0273459
-0.0264468
-0.0254388
-0.0243424
-0.0231778
-0.021961
-0.0207042
-0.0194152
-0.0180991
-0.0167611
-0.0154046
-0.014027
-0.0126226
-0.0111805
-0.00969006
-0.00813516
-0.00650463
-0.00478389
-0.00296998
-0.00105744
0.000942025
0.00302015
0.00514948
0.00730713
0.00945527
0.0115575
0.013573
0.0154495
0.0171424
0.0185858
0.0197136
0.0203922
0.0204671
0.019781
0.0183608
0.0165129
0.0146476
0.0133701
0.0128447
0.0131267
0.0139964
0.0154728
0.0173925
0.0198725
0.0222326
0.0236803
0.0237838
0.0225902
0.0161837
0.00866556
0.00358739
0.00119319
-0.0247939
-0.0261316
-0.0265853
-0.0263671
-0.0258829
-0.0253753
-0.0248926
-0.024387
-0.0238038
-0.0231178
-0.0223308
-0.0214572
-0.0205117
-0.0195058
-0.0184479
-0.0173438
-0.0161968
-0.0150102
-0.013788
-0.0125301
-0.0112342
-0.00989404
-0.00850428
-0.00705532
-0.0055415
-0.00395331
-0.00229072
-0.000549848
0.0012584
0.00312856
0.00503683
0.00696683
0.00888436
0.0107616
0.0125587
0.0142345
0.0157439
0.0170256
0.0180272
0.0186442
0.0187975
0.0183765
0.0174422
0.0161783
0.0148806
0.0139444
0.0135398
0.0137501
0.0144259
0.0156522
0.0171774
0.0191817
0.0210472
0.0221847
0.0220205
0.0207346
0.0157303
0.00921485
0.00431063
0.00145897
-0.0206885
-0.0218735
-0.0223299
-0.0222238
-0.0218903
-0.0215337
-0.0211969
-0.0208406
-0.0204175
-0.0199038
-0.0192985
-0.0186114
-0.0178533
-0.0170318
-0.0161526
-0.01522
-0.0142359
-0.013202
-0.0121214
-0.0109958
-0.00982502
-0.00860562
-0.00733557
-0.00600958
-0.0046258
-0.00317855
-0.00166995
-9.78238e-05
0.00152753
0.00320188
0.00490471
0.00662369
0.0083278
0.00999593
0.0115914
0.0130811
0.0144249
0.0155679
0.0164728
0.0170553
0.0172843
0.0170789
0.016511
0.0156872
0.0148236
0.0141759
0.0138894
0.0140658
0.0145893
0.0155808
0.0167582
0.0182994
0.0195312
0.02048
0.0201331
0.018713
0.0147888
0.00928244
0.00469093
0.00158615
-0.0169616
-0.0180041
-0.0184489
-0.0184254
-0.0182088
-0.0179703
-0.0177474
-0.017508
-0.0172115
-0.0168363
-0.0163796
-0.0158478
-0.0152485
-0.0145869
-0.0138661
-0.0130894
-0.0122585
-0.0113728
-0.0104345
-0.00944565
-0.00840776
-0.00731919
-0.00617965
-0.00498657
-0.00374055
-0.00243872
-0.00108455
0.000322562
0.00177299
0.00326311
0.00477461
0.00629796
0.0078066
0.00928304
0.0106942
0.0120139
0.0132094
0.0142346
0.0150634
0.0156273
0.0159218
0.0158867
0.0155917
0.0150958
0.0145595
0.0141445
0.0139633
0.0141233
0.0145252
0.0153035
0.016181
0.0173235
0.0181574
0.0187356
0.0182557
0.016744
0.0135962
0.00901046
0.00481211
0.00161919
-0.0135861
-0.0144968
-0.0149201
-0.0149563
-0.0148299
-0.0146833
-0.0145487
-0.0144002
-0.0142034
-0.0139388
-0.0136029
-0.0131997
-0.0127343
-0.0122102
-0.0116285
-0.0109911
-0.0103003
-0.00955464
-0.00875419
-0.00790082
-0.00699685
-0.0060421
-0.00503714
-0.00398094
-0.0028754
-0.0017196
-0.000517831
0.00072951
0.00201332
0.0033299
0.00466373
0.00600667
0.00733598
0.00863788
0.00988388
0.0110503
0.0121125
0.0130353
0.0138017
0.0143536
0.0146992
0.0147935
0.0146982
0.0144448
0.0141492
0.0139146
0.01382
0.0139693
0.0142724
0.0148629
0.0154857
0.0162862
0.01679
0.0170385
0.0164635
0.0149299
0.012319
0.00851582
0.00474457
0.00158513
-0.0105361
-0.0113265
-0.0117225
-0.0118009
-0.0117437
-0.0116681
-0.0116017
-0.0115233
-0.0114044
-0.0112279
-0.0109898
-0.0106924
-0.0103392
-0.0099324
-0.00947211
-0.0089584
-0.00839233
-0.00777496
-0.00710457
-0.00638124
-0.00560743
-0.00478407
-0.00391237
-0.00299202
-0.00202541
-0.00101285
4.11656e-05
0.00113531
0.00226131
0.00341562
0.00458475
0.00576177
0.00692764
0.00807048
0.00916793
0.0101991
0.0111425
0.0119707
0.0126834
0.0132238
0.0136044
0.0137932
0.0138409
0.0137621
0.0136367
0.0135362
0.0135084
0.0136474
0.0138692
0.0142972
0.0147086
0.0152205
0.0154628
0.0154412
0.014795
0.0133025
0.0110623
0.00789165
0.00454754
0.00151682
-0.00778835
-0.00847033
-0.008836
-0.00894354
-0.00893906
-0.00891803
-0.00890377
-0.00887931
-0.00882092
-0.00871412
-0.00855474
-0.0083441
-0.00808426
-0.00777625
-0.00741997
-0.00701433
-0.00655989
-0.00605733
-0.00550603
-0.00490451
-0.00425405
-0.00355604
-0.00281221
-0.00202276
-0.00119004
-0.000314976
0.000598038
0.00154721
0.00252524