/*--------------------------------*- C++ -*----------------------------------*\
| =========                 |                                                 |
| \\      /  F ield         | OpenFOAM: The Open Source CFD Toolbox           |
|  \\    /   O peration     | Version:  2512                                  |
|   \\  /    A nd           | Website:  www.openfoam.com                      |
|    \\/     M anipulation  |                                                 |
\*---------------------------------------------------------------------------*/
FoamFile
{
    version     2.0;
    format      ascii;
    arch        "LSB;label=32;scalar=64";
    class       volScalarField;
    location    "77.25";
    object      p;
}
// * * * * * * * * * * * * * * * * * * * * * * * * * * * * * * * * * * * * * //

dimensions      [0 2 -2 0 0 0 0];

internalField   nonuniform List<scalar> 
13248
(
-0.326844
-0.325631
-0.324031
-0.322129
-0.319952
-0.317479
-0.314628
-0.311275
-0.307276
-0.302495
-0.296815
-0.290164
-0.282523
-0.273937
-0.264512
-0.254405
-0.24381
-0.232937
-0.221992
-0.211178
-0.200609
-0.190528
-0.180669
-0.171619
-0.334783
-0.332666
-0.33023
-0.327539
-0.324599
-0.321399
-0.317852
-0.313816
-0.309128
-0.303635
-0.29722
-0.289823
-0.281458
-0.272208
-0.262216
-0.25167
-0.240776
-0.22974
-0.218749
-0.207962
-0.19749
-0.187444
-0.17774
-0.168725
-0.343721
-0.340602
-0.337243
-0.333686
-0.329902
-0.325884
-0.321532
-0.316675
-0.311124
-0.304716
-0.297347
-0.288994
-0.279717
-0.269652
-0.258988
-0.247935
-0.236707
-0.225497
-0.214465
-0.203739
-0.193387
-0.183496
-0.173975
-0.165024
-0.353875
-0.349643
-0.345287
-0.340808
-0.336114
-0.331179
-0.32587
-0.31998
-0.313301
-0.305683
-0.297068
-0.2875
-0.277113
-0.266102
-0.254697
-0.24312
-0.231574
-0.220221
-0.209183
-0.19854
-0.188334
-0.178616
-0.169292
-0.16061
-0.365429
-0.35996
-0.354546
-0.349099
-0.343417
-0.337421
-0.330931
-0.32371
-0.315562
-0.306398
-0.296249
-0.285257
-0.27364
-0.261646
-0.249518
-0.237467
-0.225655
-0.2142
-0.203174
-0.192618
-0.182548
-0.17298
-0.163846
-0.155332
-0.378456
-0.371641
-0.365121
-0.358653
-0.35186
-0.344579
-0.336585
-0.327648
-0.317644
-0.3066
-0.294682
-0.282141
-0.269262
-0.256314
-0.243522
-0.231051
-0.219011
-0.207466
-0.196446
-0.18596
-0.176001
-0.16656
-0.157589
-0.149222
-0.392871
-0.384634
-0.376969
-0.369397
-0.361293
-0.352398
-0.342481
-0.331388
-0.319148
-0.305962
-0.292142
-0.27803
-0.263939
-0.250115
-0.236732
-0.223892
-0.21165
-0.20002
-0.188999
-0.178568
-0.168705
-0.159381
-0.150564
-0.142319
-0.40839
-0.398711
-0.389867
-0.381048
-0.371332
-0.360389
-0.348063
-0.334386
-0.31961
-0.304137
-0.288401
-0.272788
-0.257585
-0.242981
-0.229077
-0.215913
-0.203488
-0.191779
-0.180754
-0.170374
-0.160602
-0.1514
-0.142743
-0.134619
-0.424507
-0.413431
-0.403365
-0.39308
-0.381349
-0.367853
-0.352644
-0.336043
-0.318573
-0.30081
-0.283257
-0.26628
-0.250098
-0.234818
-0.220468
-0.207025
-0.194446
-0.182677
-0.171661
-0.161345
-0.151677
-0.142616
-0.13413
-0.126142
-0.440481
-0.428116
-0.416758
-0.4047
-0.390477
-0.373932
-0.355469
-0.335773
-0.315623
-0.295708
-0.276524
-0.258362
-0.241349
-0.225504
-0.210784
-0.197119
-0.184428
-0.172632
-0.161655
-0.15143
-0.141894
-0.133
-0.124695
-0.116867
-0.455354
-0.441843
-0.429072
-0.41486
-0.397656
-0.377653
-0.355731
-0.332953
-0.310288
-0.288451
-0.267865
-0.248715
-0.231024
-0.21473
-0.199732
-0.185918
-0.173179
-0.161413
-0.15053
-0.140446
-0.131093
-0.122411
-0.114316
-0.1067
-0.468036
-0.453568
-0.439239
-0.422459
-0.401808
-0.378028
-0.352562
-0.326814
-0.301859
-0.278358
-0.256613
-0.236681
-0.218485
-0.201889
-0.186738
-0.172886
-0.160199
-0.148557
-0.137854
-0.127999
-0.118914
-0.110527
-0.102728
-0.0954564
-0.311563
-0.313608
-0.314834
-0.315623
-0.316339
-0.317098
-0.317947
-0.318904
-0.319963
-0.321106
-0.322308
-0.32354
-0.32477
-0.325959
-0.327059
-0.328015
-0.328758
-0.329213
-0.329291
-0.328888
-0.327827
-0.325786
-0.324
-0.321647
-0.305921
-0.308348
-0.309761
-0.310596
-0.311251
-0.311831
-0.312368
-0.312866
-0.313307
-0.313658
-0.313877
-0.31392
-0.313738
-0.313279
-0.312485
-0.311299
-0.309659
-0.307507
-0.304795
-0.301488
-0.29755
-0.292733
-0.287496
-0.28262
-0.301356
-0.304034
-0.305562
-0.306409
-0.306982
-0.307374
-0.307601
-0.307652
-0.307497
-0.307087
-0.306367
-0.305279
-0.30376
-0.301747
-0.299178
-0.295997
-0.292149
-0.287593
-0.282302
-0.276273
-0.269492
-0.262068
-0.254001
-0.246723
-0.298103
-0.300897
-0.302468
-0.303291
-0.303768
-0.303973
-0.303906
-0.303544
-0.302842
-0.301739
-0.300169
-0.298061
-0.295343
-0.291949
-0.287815
-0.282889
-0.277132
-0.270522
-0.263062
-0.254797
-0.245808
-0.236151
-0.225806
-0.215984
-0.296294
-0.299071
-0.300612
-0.301376
-0.301744
-0.301769
-0.301433
-0.300701
-0.299515
-0.297806
-0.295496
-0.292508
-0.288765
-0.284199
-0.278751
-0.27238
-0.265064
-0.256809
-0.247653
-0.237681
-0.22705
-0.216025
-0.20479
-0.190216
-0.295968
-0.298605
-0.300045
-0.300713
-0.300954
-0.300802
-0.300222
-0.299167
-0.297568
-0.295346
-0.292419
-0.288703
-0.284122
-0.278608
-0.272113
-0.264608
-0.256095
-0.246606
-0.236212
-0.225024
-0.213211
-0.200937
-0.188151
-0.175265
-0.297086
-0.299467
-0.300732
-0.301261
-0.301354
-0.301022
-0.300218
-0.298885
-0.296943
-0.294305
-0.290884
-0.286596
-0.281364
-0.275128
-0.267851
-0.259525
-0.250174
-0.239865
-0.228703
-0.216837
-0.204458
-0.191762
-0.178994
-0.1654
-0.29954
-0.301558
-0.302574
-0.302913
-0.302823
-0.302301
-0.301287
-0.299706
-0.297477
-0.294507
-0.290703
-0.285979
-0.280265
-0.27351
-0.265691
-0.256822
-0.246958
-0.236199
-0.224689
-0.212611
-0.20021
-0.187549
-0.175689
-0.161612
-0.303185
-0.304737
-0.305422
-0.305506
-0.305185
-0.304439
-0.3032
-0.301386
-0.298902
-0.295651
-0.291536
-0.286474
-0.280397
-0.273268
-0.265083
-0.255883
-0.245752
-0.234829
-0.223292
-0.211343
-0.199334
-0.18702
-0.17639
-0.162911
-0.307855
-0.308845
-0.30911
-0.308856
-0.308228
-0.307199
-0.305693
-0.303617
-0.300867
-0.297338
-0.292931
-0.287563
-0.281175
-0.273745
-0.265291
-0.255884
-0.245643
-0.234739
-0.223387
-0.211791
-0.200375
-0.188778
-0.17912
-0.167254
-0.313402
-0.31374
-0.313483
-0.312786
-0.311748
-0.310341
-0.308483
-0.306071
-0.302993
-0.299136
-0.294397
-0.288695
-0.281982
-0.274255
-0.265558
-0.255993
-0.245711
-0.234906
-0.223808
-0.212645
-0.201763
-0.191079
-0.18198
-0.171989
-0.319737
-0.319337
-0.318448
-0.317188
-0.315618
-0.313713
-0.311392
-0.308543
-0.305044
-0.30077
-0.295616
-0.289502
-0.282395
-0.274312
-0.265326
-0.255566
-0.245206
-0.234453
-0.223525
-0.212657
-0.202046
-0.191922
-0.18279
-0.174172
-0.31838
-0.312905
-0.305503
-0.296058
-0.284809
-0.272364
-0.259793
-0.248531
-0.240199
-0.236375
-0.238076
-0.245282
-0.256647
-0.269136
-0.279062
-0.281738
-0.273748
-0.253507
-0.222096
-0.184972
-0.149178
-0.120092
-0.100141
-0.089213
-0.0862391
-0.0912575
-0.105079
-0.125048
-0.142654
-0.147732
-0.13721
-0.116183
-0.0933487
-0.0754402
-0.065187
-0.0615406
-0.0637795
-0.0741154
-0.0918915
-0.108007
-0.110469
-0.0977752
-0.0786291
-0.0622086
-0.0512877
-0.0453492
-0.0467028
-0.0529304
-0.0565625
-0.0539103
-0.0471242
-0.0404517
-0.0354701
-0.0328651
-0.03346
-0.0341202
-0.0290669
-0.0259135
-0.0161252
-0.001871
-0.277888
-0.271831
-0.265076
-0.257647
-0.249923
-0.242432
-0.236267
-0.232583
-0.232583
-0.237387
-0.247311
-0.261623
-0.27842
-0.294594
-0.306242
-0.309066
-0.299457
-0.27583
-0.239925
-0.197883
-0.157352
-0.123937
-0.0999936
-0.0853189
-0.0787272
-0.0797975
-0.0891685
-0.105139
-0.120759
-0.127034
-0.119998
-0.103509
-0.0849881
-0.0709072
-0.0639166
-0.0629669
-0.0678309
-0.0810983
-0.101542
-0.119119
-0.120971
-0.106223
-0.0840851
-0.0645865
-0.0511173
-0.0429978
-0.042101
-0.0461716
-0.0488549
-0.0469199
-0.0423481
-0.0379456
-0.0353877
-0.0352981
-0.0377855
-0.0397839
-0.0340232
-0.030121
-0.0188945
-0.00232768
-0.241058
-0.234498
-0.228312
-0.222682
-0.218334
-0.215226
-0.214597
-0.217658
-0.224586
-0.236388
-0.252745
-0.27239
-0.293082
-0.311659
-0.32439
-0.327397
-0.316852
-0.291038
-0.252076
-0.206598
-0.162671
-0.126049
-0.098965
-0.0810718
-0.0711153
-0.0683678
-0.0733169
-0.0851545
-0.0985026
-0.105548
-0.101737
-0.0896106
-0.0754118
-0.0652676
-0.0616257
-0.0634433
-0.0709697
-0.0870564
-0.109952
-0.128866
-0.130286
-0.113676
-0.0888505
-0.0665106
-0.0506699
-0.0405797
-0.0376693
-0.0397726
-0.0415384
-0.0401306
-0.0375355
-0.0352585
-0.0351724
-0.0377243
-0.0421849
-0.0454733
-0.0388843
-0.0341702
-0.0215804
-0.00279333
-0.210373
-0.203455
-0.197715
-0.193052
-0.19229
-0.192671
-0.196287
-0.204025
-0.216259
-0.233045
-0.253753
-0.276861
-0.29998
-0.320006
-0.333447
-0.336704
-0.325842
-0.298996
-0.258477
-0.211178
-0.165324
-0.126697
-0.0973804
-0.0769265
-0.0640614
-0.0578771
-0.0586152
-0.0662407
-0.0769293
-0.0840956
-0.0830348
-0.0749349
-0.0649101
-0.0586493
-0.0582771
-0.0627833
-0.0728507
-0.0915435
-0.116749
-0.136996
-0.13817
-0.119981
-0.0928349
-0.0679759
-0.0499885
-0.0381569
-0.0335011
-0.0338603
-0.0347407
-0.0336446
-0.0327568
-0.0324237
-0.0348229
-0.0401135
-0.0466216
-0.0511516
-0.0436089
-0.0380229
-0.0241532
-0.0032599
-0.187222
-0.179951
-0.174794
-0.171677
-0.171558
-0.174503
-0.181186
-0.192168
-0.207636
-0.22735
-0.250455
-0.27534
-0.299644
-0.320359
-0.334234
-0.337719
-0.326959
-0.300086
-0.2595
-0.212063
-0.165842
-0.126379
-0.0956479
-0.0732531
-0.0579706
-0.0488332
-0.0457945
-0.0492539
-0.0569462
-0.0635372
-0.0645298
-0.0599372
-0.0537651
-0.0511425
-0.0538032
-0.0607959
-0.0731872
-0.0942599
-0.121656
-0.143235
-0.144407
-0.125021
-0.0959913
-0.0690046
-0.0491319
-0.0357877
-0.0296462
-0.0285031
-0.0285556
-0.0275612
-0.0280837
-0.0294727
-0.0343324
-0.0424287
-0.0510496
-0.0567677
-0.0481517
-0.0416397
-0.0265841
-0.00371975
-0.171362
-0.164019
-0.158756
-0.156311
-0.157074
-0.161364
-0.169608
-0.182133
-0.199001
-0.219836
-0.243684
-0.268947
-0.293391
-0.314392
-0.328174
-0.331688
-0.321247
-0.29513
-0.25579
-0.209812
-0.164691
-0.125495
-0.0941061
-0.0703237
-0.0530985
-0.041478
-0.0352256
-0.0348118
-0.0392689
-0.0446507
-0.0470056
-0.0450943
-0.0422898
-0.0428648
-0.0482017
-0.0574104
-0.0718489
-0.0950335
-0.124426
-0.147364
-0.148861
-0.128727
-0.0982849
-0.0696116
-0.0481446
-0.0335097
-0.0261233
-0.0237259
-0.0230376
-0.0219612
-0.0235841
-0.0264372
-0.0336898
-0.0446233
-0.0554098
-0.0622643
-0.0524699
-0.0449841
-0.0288441
-0.00416438
-0.162602
-0.155612
-0.149646
-0.147037
-0.148029
-0.152714
-0.161295
-0.174008
-0.190856
-0.211396
-0.234675
-0.259135
-0.282675
-0.303596
-0.316605
-0.319884
-0.309945
-0.285303
-0.248369
-0.205186
-0.162376
-0.124386
-0.0930093
-0.0683232
-0.0495814
-0.0359179
-0.0269871
-0.0231582
-0.024341
-0.0279949
-0.0307326
-0.0308729
-0.0308414
-0.0340351
-0.0415941
-0.0526628
-0.0687881
-0.0937424
-0.124938
-0.14928
-0.151434
-0.131049
-0.0996901
-0.0697995
-0.0470546
-0.0313449
-0.022927
-0.0195059
-0.0181978
-0.0169076
-0.019319
-0.02335
-0.0328795
-0.0466416
-0.059636
-0.0675806
-0.0565221
-0.0480229
-0.0309077
-0.00458465
-0.160315
-0.153927
-0.146918
-0.14336
-0.143789
-0.148014
-0.155964
-0.16782
-0.183568
-0.202744
-0.224447
-0.247198
-0.268846
-0.286857
-0.300364
-0.30353
-0.294361
-0.271823
-0.23824
-0.198856
-0.159231
-0.123163
-0.0923694
-0.0672225
-0.0473586
-0.0320817
-0.0209876
-0.014295
-0.0123496
-0.0139127
-0.0162779
-0.0177634
-0.0197915
-0.0249331
-0.0341622
-0.0466617
-0.0640693
-0.0903631
-0.123153
-0.148929
-0.152094
-0.131979
-0.100203
-0.0695754
-0.045887
-0.0293097
-0.0200494
-0.015804
-0.0140106
-0.0124325
-0.0153335
-0.0202456
-0.0318856
-0.048422
-0.0636567
-0.0726507
-0.0602689
-0.0507269
-0.0327584
-0.00497315
-0.162366
-0.156855
-0.149012
-0.144321
-0.143683
-0.14665
-0.153124
-0.163298
-0.177114
-0.194112
-0.21346
-0.233885
-0.253923
-0.270234
-0.281459
-0.284059
-0.275836
-0.255941
-0.226395
-0.191433
-0.155513
-0.121838
-0.092091
-0.0669044
-0.0462885
-0.0298007
-0.0170214
-0.00803223
-0.00328465
-0.00252767
-0.00398576
-0.00607406
-0.00941858
-0.0158244
-0.0261287
-0.0395422
-0.0577252
-0.0850053
-0.11917
-0.14641
-0.150866
-0.13157
-0.0999202
-0.0690451
-0.0447515
-0.027472
-0.0175057
-0.0126017
-0.010449
-0.0085342
-0.0116612
-0.0171596
-0.0306795
-0.0499046
-0.0673986
-0.0774036
-0.0636778
-0.0530741
-0.0343866
-0.00532711
-0.166362
-0.161169
-0.153395
-0.148114
-0.14631
-0.147484
-0.151906
-0.159813
-0.171079
-0.185294
-0.201687
-0.219146
-0.236837
-0.251428
-0.260649
-0.262909
-0.25604
-0.239301
-0.214233
-0.184001
-0.152041
-0.121049
-0.0926982
-0.0678294
-0.0467528
-0.0293264
-0.0151996
-0.0043457
0.00283073
0.00601334
0.00598722
0.00407736
0.000132186
-0.00688099
-0.0176824
-0.0315558
-0.0501539
-0.0779193
-0.113048
-0.141826
-0.147896
-0.129962
-0.0990572
-0.0684187
-0.0438438
-0.0259656
-0.0153263
-0.00985546
-0.00750454
-0.00524777
-0.00831579
-0.0141243
-0.0292603
-0.0510202
-0.0707738
-0.0817557
-0.0667197
-0.0550496
-0.0357712
-0.00564166
-0.169701
-0.164393
-0.157651
-0.152495
-0.149691
-0.14911
-0.151368
-0.156712
-0.165086
-0.176283
-0.189677
-0.204437
-0.219038
-0.230502
-0.238657
-0.241155
-0.236152
-0.223037
-0.202763
-0.177456
-0.149626
-0.121509
-0.0947646
-0.0704336
-0.0490817
-0.0308626
-0.0156117
-0.00323105
0.00603289
0.0116741
0.0135668
0.0124882
0.00861633
0.00166334
-0.00900534
-0.0226809
-0.0411408
-0.0693317
-0.105647
-0.135518
-0.143401
-0.126922
-0.097385
-0.0674381
-0.0429375
-0.0246578
-0.0133971
-0.00736988
-0.00499521
-0.00260815
-0.00539899
-0.0111622
-0.0275192
-0.0517369
-0.0737494
-0.0856032
-0.0693177
-0.0566259
-0.0368577
-0.00588606
-0.170511
-0.166017
-0.160721
-0.155622
-0.152001
-0.150459
-0.151029
-0.153875
-0.159175
-0.166857
-0.176554
-0.187914
-0.198861
-0.209177
-0.215457
-0.217649
-0.214196
-0.204307
-0.188328
-0.167497
-0.143574
-0.118409
-0.0936059
-0.0703428
-0.0493599
-0.0309856
-0.0152821
-0.00220134
0.00830504
0.0159612
0.0199142
0.0198264
0.0161913
0.00955064
-0.000657304
-0.0139094
-0.031895
-0.059702
-0.0960877
-0.126857
-0.1349
-0.121383
-0.0935616
-0.0646354
-0.0407145
-0.0226258
-0.0112181
-0.00482556
-0.00245599
-9.29008e-05
-0.00273606
-0.00843616
-0.0255829
-0.0519306
-0.0761314
-0.0889199
-0.071349
-0.0577419
-0.0375908
-0.00600088
-0.165829
-0.164855
-0.160062
-0.154897
-0.151275
-0.149574
-0.149671
-0.151702
-0.155853
-0.162115
-0.170186
-0.179599
-0.188288
-0.196157
-0.201191
-0.202264
-0.198174
-0.188394
-0.173297
-0.153979
-0.13194
-0.108757
-0.0857952
-0.0640697
-0.0442377
-0.0266041
-0.0112632
0.00176644
0.0125351
0.0209387
0.026221
0.0275933
0.0256825
0.0193729
0.0103108
-0.001864
-0.0195361
-0.0487367
-0.0884534
-0.122712
-0.134608
-0.117003
-0.0886016
-0.060247
-0.0371157
-0.0196579
-0.00870008
-0.00236884
7.97604e-05
0.00295052
0.000814691
-0.00472524
-0.0227161
-0.0514883
-0.0782313
-0.0922402
-0.0730359
-0.0583717
-0.0380174
-0.00601709
-0.160455
-0.161285
-0.157066
-0.151974
-0.148442
-0.146851
-0.14693
-0.148586
-0.151884
-0.156768
-0.162897
-0.169434
-0.1763
-0.181856
-0.184889
-0.184385
-0.179567
-0.170105
-0.156315
-0.139046
-0.119451
-0.0987563
-0.0780521
-0.0581987
-0.039792
-0.0231434
-0.00842971
0.00426908
0.0150854
0.0239989
0.0301846
0.0325114
0.0309422
0.0262108
0.018713
0.00786967
-0.0093275
-0.0395253
-0.0811397
-0.116303
-0.126155
-0.109185
-0.0817444
-0.0550106
-0.033398
-0.016931
-0.00639085
-0.000130968
0.00220342
0.0052077
0.0031108
-0.00196699
-0.0204382
-0.0510882
-0.0798305
-0.0946376
-0.0740651
-0.0583686
-0.0380873
-0.00607468
-0.153153
-0.15541
-0.152231
-0.147623
-0.144343
-0.142944
-0.143053
-0.14437
-0.146815
-0.150305
-0.154613
-0.159285
-0.163883
-0.167302
-0.168611
-0.167058
-0.162071
-0.153376
-0.141136
-0.125923
-0.108583
-0.09008
-0.0713258
-0.0530799
-0.0359129
-0.0201558
-0.00600621
0.00639284
0.0171097
0.0261946
0.0329795
0.0363246
0.0358205
0.0321979
0.0259389
0.0158733
-0.00159128
-0.0325492
-0.0736536
-0.107309
-0.116039
-0.10003
-0.0743326
-0.0495688
-0.0295773
-0.0141564
-0.00411449
0.00201753
0.00424916
0.00731953
0.00507824
0.000129815
-0.0188812
-0.0508764
-0.0808572
-0.0962305
-0.0745903
-0.0578865
-0.0378817
-0.00615858
-0.144371
-0.148083
-0.146148
-0.142247
-0.139284
-0.137999
-0.138033
-0.138966
-0.140627
-0.14296
-0.145839
-0.148916
-0.151691
-0.153474
-0.153575
-0.151374
-0.146389
-0.138366
-0.127384
-0.11385
-0.0984146
-0.0818424
-0.0648846
-0.0481863
-0.0322621
-0.0174415
-0.00392472
0.00810517
0.0186161
0.0276869
0.0348742
0.0391316
0.0398406
0.0376223
0.0327872
0.02348
0.00565977
-0.0254206
-0.0650079
-0.0968337
-0.104615
-0.0897623
-0.0662531
-0.043738
-0.0255478
-0.0113298
-0.00188503
0.00407793
0.00624267
0.00936607
0.00701668
0.00205027
-0.0174214
-0.0502502
-0.0810852
-0.0970245
-0.0745681
-0.0569219
-0.037339
-0.00624263
-0.135059
-0.139835
-0.139034
-0.135901
-0.133291
-0.132093
-0.132026
-0.132639
-0.133709
-0.135171
-0.136917
-0.138684
-0.140103
-0.140683
-0.139874
-0.137172
-0.132191
-0.124727
-0.114822
-0.102766
-0.0890382
-0.0742224
-0.0589209
-0.0436758
-0.0289464
-0.0150605
-0.00222291
0.00937258
0.0196157
0.0285501
0.0358943
0.040781
0.042643
0.04194
0.0387954
0.0307101
0.0130907
-0.0176524
-0.0555972
-0.0850869
-0.0917579
-0.0784609
-0.0576765
-0.0376884
-0.0214038
-0.00848666
0.000284063
0.00603948
0.00817706
0.0113228
0.00891992
0.00399155
-0.0156138
-0.0488561
-0.0803619
-0.096784
-0.073859
-0.0554178
-0.0364241
-0.00630863
-0.125496
-0.130909
-0.131062
-0.12869
-0.126477
-0.125393
-0.125262
-0.125646
-0.126283
-0.127079
-0.127952
-0.128733
-0.129146
-0.128811
-0.127304
-0.124242
-0.119325
-0.112392
-0.10345
-0.0926906
-0.0804595
-0.0672024
-0.0534025
-0.0395148
-0.0259413
-0.0129939
-0.000880651
0.0102075
0.0201175
0.0288295
0.0361539
0.0414075
0.0441323
0.0447229
0.0432248
0.0366723
0.0197711
-0.0101358
-0.0457385
-0.0721094
-0.0777548
-0.0664993
-0.0488521
-0.0315598
-0.0172127
-0.00565097
0.00238268
0.0078863
0.0100375
0.0131907
0.0107781
0.0059751
-0.013372
-0.0466096
-0.0784675
-0.0952411
-0.0723331
-0.0533438
-0.035109
-0.00633424
-0.115771
-0.121556
-0.122479
-0.120812
-0.119013
-0.11808
-0.117926
-0.118148
-0.118468
-0.118777
-0.11902
-0.119079
-0.118748
-0.117744
-0.115753
-0.112482
-0.107698
-0.101264
-0.0931671
-0.0835343
-0.0726162
-0.0607521
-0.0483245
-0.0357093
-0.023252
-0.0112395
0.000118551
0.0106341
0.0201414
0.0285693
0.0357588
0.0411598
0.0444134
0.0458684
0.0455674
0.0403462
0.0246203
-0.00332201
-0.0353916
-0.0581784
-0.0631619
-0.0543438
-0.040049
-0.0255081
-0.0130626
-0.00285373
0.00440268
0.00960951
0.011813
0.0149747
0.0125912
0.00796157
-0.0107598
-0.0434255
-0.0751763
-0.0921836
-0.0698804
-0.0506923
-0.0333799
-0.00629688
-0.1061
-0.112033
-0.113532
-0.112475
-0.111075
-0.110313
-0.110169
-0.110287
-0.110393
-0.110371
-0.110176
-0.109725
-0.108874
-0.107419
-0.105125
-0.101767
-0.0971613
-0.0911965
-0.0838532
-0.075215
-0.0654624
-0.0548502
-0.0436772
-0.0322507
-0.0208655
-0.00978014
0.000801963
0.0106941
0.0197296
0.027814
0.0347776
0.040162
0.0436815
0.0455633
0.045817
0.0414954
0.0275423
0.00295782
-0.0246186
-0.0438798
-0.0487226
-0.042538
-0.0315543
-0.0196812
-0.00904127
-0.000126651
0.00634101
0.0112116
0.0134957
0.0166757
0.0143571
0.00992033
-0.00778433
-0.039183
-0.0703418
-0.0874674
-0.0664231
-0.047483
-0.0312415
-0.00617493
-0.0966425
-0.102528
-0.104426
-0.103874
-0.102838
-0.102252
-0.102144
-0.102209
-0.102185
-0.101954
-0.101469
-0.100683
-0.0994988
-0.0977669
-0.0953115
-0.0919609
-0.0875746
-0.0820638
-0.0754072
-0.0676588
-0.0589472
-0.0494625
-0.0394373
-0.0291208
-0.0187623
-0.00859043
0.0012023
0.0104338
0.0189399
0.0266132
0.0332819
0.0385256
0.0421227
0.044143
0.0445107
0.0408186
0.0291249
0.00875397
-0.0140262
-0.0302277
-0.0352986
-0.0316161
-0.0236269
-0.0142014
-0.00522851
0.00249481
0.00819443
0.0127051
0.0150851
0.0182973
0.0160864
0.0118794
-0.00438063
-0.0338214
-0.0639292
-0.0810516
-0.0619361
-0.0437684
-0.0287235
-0.00595048
-0.0874832
-0.0931857
-0.0953338
-0.0951823
-0.094463
-0.0940451
-0.0939918
-0.0940396
-0.093946
-0.0935933
-0.0929427
-0.091964
-0.0905912
-0.0887178
-0.0862142
-0.0829514
-0.0788222
-0.0737567
-0.067734
-0.060789
-0.0530133
-0.0445491
-0.0355765
-0.0262963
-0.0169172
-0.007639
0.0013595
0.00990451
0.0178362
0.0250375
0.0313625
0.0363636
0.0399109
0.0419365
0.0422747
0.0391476
0.0297904
0.0136344
-0.00465311
-0.018272
-0.0235898
-0.0219631
-0.0164544
-0.00915795
-0.00168707
0.00497285
0.00995397
0.0141049
0.0165876
0.0198578
0.0178259
0.0139286
-0.000490793
-0.0274009
-0.0560475
-0.0730341
-0.0564619
-0.039634
-0.0258841
-0.00561246
-0.078705
-0.0841194
-0.0863923
-0.0865446
-0.0860905
-0.0858259
-0.0858341
-0.0858899
-0.0857722
-0.0853685
-0.0846437
-0.0835777
-0.0821275
-0.0802188
-0.0777572
-0.0746461
-0.0708038
-0.066176
-0.0607443
-0.0545318
-0.0476043
-0.0400681
-0.0320627
-0.0237489
-0.0153001
-0.00688983
0.00131902
0.00916366
0.0164885
0.0231693
0.0290772
0.033789
0.037214
0.0391921
0.0395042
0.0369145
0.0296051
0.0171103
0.00271795
-0.00863549
-0.0139071
-0.0137416
-0.0101368
-0.00460749
0.00153883
0.00727018
0.0116045
0.0154177
0.0180069
0.0213892
0.0196639
0.0162005
0.00390011
-0.0201222
-0.0469824
-0.063668
-0.0501162
-0.0351925
-0.0228089
-0.00515993
-0.0703465
-0.0754038
-0.0777066
-0.0780808
-0.0778421
-0.0777106
-0.0777806
-0.0778604
-0.0777505
-0.0773456
-0.0766128
-0.0755381
-0.0740944
-0.0722309
-0.0698792
-0.0669671
-0.063433
-0.0592352
-0.0543589
-0.0488197
-0.0426657
-0.0359766
-0.0288606
-0.0214464
-0.0138772
-0.00630289
0.00113041
0.00827271
0.0149732
0.0210925
0.0264408
0.0309281
0.0341899
0.0360906
0.036406
0.0343032
0.0286483
0.0191183
0.00798448
-0.00126586
-0.00619299
-0.00693305
-0.004701
-0.000578833
0.00442192
0.0093507
0.0131285
0.0166386
0.0193339
0.0229085
0.0217011
0.0188568
0.0087658
-0.0123405
-0.0371896
-0.0533676
-0.0431047
-0.0305757
-0.019603
-0.00460349
-0.0624284
-0.0670985
-0.0693632
-0.0698906
-0.069821
-0.0698003
-0.0699274
-0.0700399
-0.0699581
-0.0695835
-0.0688878
-0.0678607
-0.0664844
-0.0647239
-0.0625304
-0.0598506
-0.0566379
-0.052861
-0.0485084
-0.0435913
-0.0381455
-0.0322315
-0.0259335
-0.0193545
-0.0126127
-0.00583625
0.000844858
0.00729465
0.0133724
0.0189388
0.0238376
0.0279494
0.0309954
0.0327992
0.0331485
0.0314913
0.0271582
0.0199736
0.0114981
0.00415511
-0.000218562
-0.00142123
-0.000124933
0.00291863
0.00695118
0.0111821
0.0145052
0.0177532
0.0205355
0.0243684
0.0239887
0.0220122
0.0139919
-0.00457365
-0.0272605
-0.0426744
-0.0357132
-0.025925
-0.0163814
-0.00396313
-0.0549888
-0.0592521
-0.0614248
-0.0620486
-0.0621077
-0.0621762
-0.0623526
-0.0624993
-0.0624556
-0.0621312
-0.0615042
-0.0605623
-0.0592937
-0.057675
-0.0556717
-0.0532446
-0.0503589
-0.0469908
-0.0431319
-0.0387908
-0.033995
-0.0287909
-0.0232445
-0.0174386
-0.0114703
-0.00544874
0.000512101
0.00629004
0.0117575
0.0167813
0.021225
0.0249627
0.0277736
0.0294767
0.0298893
0.0286483
0.0253835
0.020045
0.0137009
0.00799852
0.00428965
0.00294579
0.00364516
0.00588885
0.00912604
0.0127449
0.0157075
0.0187369
0.0215649
0.0256446
0.0263207
0.0254444
0.0191726
0.00255449
-0.017822
-0.0321446
-0.0282559
-0.0213751
-0.0132673
-0.00326709
-0.0480399
-0.0518865
-0.0539295
-0.0546063
-0.0547611
-0.0548998
-0.0551169
-0.0552959
-0.0552943
-0.0550262
-0.0544909
-0.0536567
-0.0525201
-0.0510666
-0.0492718
-0.0471071
-0.0445462
-0.0415713
-0.0381765
-0.0343688
-0.0301697
-0.0256154
-0.0207582
-0.0156647
-0.0104152
-0.00510129
0.000178058
0.00531397
0.0101922
0.0146883
0.0186745
0.0220667
0.0246455
0.0262546
0.0267505
0.0258964
0.0235102
0.0196145
0.0149485
0.0106506
0.00761633
0.00633017
0.00667932
0.00834807
0.0109494
0.0140357
0.0167044
0.0195459
0.0223842
0.0265938
0.0282077
0.0283853
0.0234953
0.00848611
-0.00937783
-0.0223303
-0.0210956
-0.0170463
-0.0103809
-0.00255456
-0.0415674
-0.0450087
-0.0469026
-0.0476006
-0.0478244
-0.0480169
-0.0482673
-0.048479
-0.0485298
-0.0483489
-0.0478812
-0.0471557
-0.0461613
-0.0448839
-0.043305
-0.0414031
-0.0391585
-0.0365578
-0.0335969
-0.0302818
-0.0266295
-0.022669
-0.0184418
-0.0140018
-0.00941509
-0.0047583
-0.000116736
0.00441493
0.00873619
0.0127297
0.0162371
0.0193462
0.0217047
0.0232297
0.0238171
0.0233153
0.02165
0.0188768
0.0155187
0.0124156
0.00999206
0.00888179
0.00905646
0.0103251
0.0124286
0.0150562
0.0174749
0.0201316
0.0229284
0.0270758
0.029283
0.0300265
0.0261707
0.0129073
-0.00230365
-0.0137621
-0.0146095
-0.0130335
-0.00781977
-0.00187656
-0.0355668
-0.0386241
-0.0403588
-0.0410539
-0.0413241
-0.0415548
-0.0418282
-0.0420631
-0.0421518
-0.0420239
-0.0416557
-0.0410529
-0.0402093
-0.0391126
-0.0377491
-0.0361035
-0.0341614
-0.0319127
-0.0293547
-0.0264924
-0.0233397
-0.0199199
-0.0162661
-0.0124222
-0.0084424
-0.00439045
-0.000338355
0.00363338
0.00744192
0.0110035
0.0142686
0.0169018
0.0190201
0.020465
0.0211416
0.0209501
0.0198692
0.0179668
0.015601
0.0132404
0.0115804
0.0107351
0.0108574
0.0118572
0.0135766
0.0158112
0.0180026
0.020451
0.0231223
0.026966
0.0292891
0.030071
0.0269633
0.0157621
0.00314149
-0.0068173
-0.00908534
-0.00940246
-0.00563433
-0.00128722
-0.0300327
-0.0327279
-0.0342992
-0.0349741
-0.0352736
-0.0355303
-0.0358189
-0.036071
-0.036194
-0.0361262
-0.0358456
-0.0353597
-0.0346615
-0.0337408
-0.0325855
-0.0311842
-0.0295265
-0.027605
-0.0254178
-0.0229692
-0.0202706
-0.0173407
-0.0142063
-0.010903
-0.00747483
-0.00397484
-0.000463507
0.00299153
0.00631866
0.00943984
0.0122727
0.0146764
0.0166138
0.0179935
0.0187507
0.0188206
0.018211
0.0169892
0.0154049
0.0137765
0.0126133
0.0120259
0.0121627
0.0129865
0.0144121
0.0163083
0.0182771
0.0204838
0.0229342
0.0262761
0.0283709
0.0288899
0.0262639
0.0172116
0.0069334
-0.00160076
-0.00465849
-0.00621698
-0.00381675
-0.000822248
-0.0249455
-0.0273052
-0.0287161
-0.02936
-0.0296764
-0.0299501
-0.0302479
-0.0305134
-0.0306674
-0.0306577
-0.030465
-0.0300798
-0.0295145
-0.0287579
-0.0277979
-0.0266245
-0.0252299
-0.0236088
-0.0217597
-0.0196863
-0.0173978
-0.0149093
-0.0122424
-0.00942595
-0.00649579
-0.00349563
-0.000475539
0.00250725
0.00539089
0.0081071
0.0105859
0.01274
0.0145123
0.0158311
0.0166516
0.0169336
0.0166981
0.0160026
0.0150255
0.0139812
0.0132219
0.0128661
0.0130489
0.0137587
0.0149579
0.0165602
0.0183019
0.0202431
0.0223938
0.0251145
0.0268253
0.02702
0.0246847
0.017577
0.00930757
0.00208031
-0.00130042
-0.00352135
-0.0023228
-0.000478258
-0.0202841
-0.0223388
-0.0235971
-0.024204
-0.024528
-0.0248115
-0.0251136
-0.0253878
-0.0255665
-0.025604
-0.0254804
-0.0251918
-0.0247537
-0.0241495
-0.02337
-0.0224061
-0.0212517
-0.0199029
-0.0183589
-0.0166228
-0.0147019
-0.0126084
-0.0103596
-0.00797867
-0.00549463
-0.00294318
-0.000365533
0.00219085
0.00467389
0.00702584
0.00919081
0.0111069
0.0127235
0.0139787
0.0148409
0.0152856
0.015336
0.0150418
0.0145373
0.0139343
0.0135025
0.0133462
0.0135855
0.0142195
0.0152406
0.0165887
0.018098
0.0197642
0.0215811
0.023648
0.0249325
0.0248625
0.0227327
0.0172188
0.0106023
0.00455217
0.00113019
-0.00134263
-0.00110715
-0.000221246
-0.01603
-0.0178097
-0.0189255
-0.0194923
-0.0198173
-0.0201054
-0.0204082
-0.0206878
-0.0208874
-0.0209684
-0.0209148
-0.020724
-0.0203837
-0.019909
-0.019289
-0.018513
-0.0175742
-0.0164694
-0.015198
-0.0137624
-0.0121684
-0.0104256
-0.00854788
-0.00655366
-0.00446621
-0.0023144
-0.000131603
0.00204382
0.00416924
0.00619577
0.00807767
0.0097691
0.0112399
0.0124257
0.0133055
0.0138648
0.0141256
0.0141293
0.0140007
0.0137003
0.0135291
0.0135407
0.0138346
0.0144147
0.0152926
0.0164204
0.0176997
0.019089
0.020522
0.0220551
0.0229243
0.0226629
0.0207176
0.0164377
0.0111407
0.00612299
0.00281843
0.000331634
-0.000131381
-1.41214e-05
-0.0121618
-0.0136957
-0.0146804
-0.0152064
-0.0155279
-0.0158165
-0.0161168
-0.0163978
-0.0166123
-0.016727
-0.0167275
-0.01661
-0.0163735
-0.0160166
-0.0155377
-0.0149282
-0.0141812
-0.0132929
-0.0122627
-0.0110924
-0.00978655
-0.00835275
-0.00680183
-0.00514837
-0.00341083
-0.00161195
0.000221591
0.00205842
0.00386558
0.00560451
0.00723774
0.00873711
0.010047
0.0111525
0.0120272
0.0126567
0.0130573
0.0132473
0.01327
0.0133121
0.0133634
0.0135121
0.0138516
0.0143897
0.0151476
0.0160849
0.0171447
0.0182712
0.0193771
0.0204444
0.0209544
0.0205573
0.0187961
0.0154426
0.0111826
0.00703832
0.00394264
0.00156199
0.000635537
0.000163099
-0.00865658
-0.00997309
-0.0108391
-0.0113253
-0.0116404
-0.0119268
-0.0122224
-0.0125022
-0.0127273
-0.0128696
-0.0129167
-0.0128653
-0.0127141
-0.0124613
-0.0121041
-0.0116388
-0.0110591
-0.0103605
-0.00954153
-0.0086033
-0.00754935
-0.00638546
-0.00512001
-0.00376447
-0.00233316
-0.000843927
0.000682353
0.00222102
0.00374548
0.00522621
0.00663339
0.00793509
0.00910807
0.010129
0.0109802
0.0116452
0.0121372
0.0124727
0.0126957
0.0128781
0.0130713
0.0133172
0.0136872
0.0141871
0.0148404
0.0156136
0.0164709
0.0173542
0.0181711
0.0188742
0.0190989
0.0186122
0.0170334
0.0143658
0.0109143
0.0074925
0.00466793
0.00242763
0.00121586
0.000319089
-0.00549272
-0.00661861
-0.00737854
-0.00782709
-0.00813395
-0.00841621
-0.00870571
-0.00898258
-0.00921473
-0.00937908
-0.00946502
-0.00946943
-0.00939111
-0.00922776
-0.00897591
-0.00863316
-0.00819637
-0.00766131
-0.00702514
-0.00628808
-0.00545241
-0.00452235
-0.00350431
-0.0024072
-0.00124199
-2.24324e-05
0.0012354
0.00251227
0.00378778
0.00503863
0.00624207
0.00737176
0.00840814
0.00933189
0.0101403
0.0108113
0.0113514
0.0117788
0.0121198
0.0124073
0.0126933
0.013002
0.0133855
0.0138467
0.0144071
0.0150381
0.0157141
0.0163826
0.0169555
0.0173813
0.0173927
0.0168515
0.0154477
0.0132872
0.0104677
0.0076343
0.00509777
0.00300055
0.00162938
0.000451463
-0.0026491
-0.00360908
-0.00427511
-0.00468877
-0.00498651
-0.00526345
-0.00554602
-0.0058185
-0.0060549
-0.00623629
-0.00635373
-0.0064044
-0.0063871
-0.00629971
-0.00613881
-0.00590048
-0.00558252
-0.00518629
-0.00470623
-0.0041417
-0.00349351
-0.00276447
-0.00195934
-0.00108475
-0.000149056
0.00083723
0.00186197
0.00291037
0.00396704
0.00501394
0.00603362
0.00700674
0.00791785
0.00875058
0.00949233
0.0101413
0.0107034
0.0111682
0.01157
0.011922
0.0122621
0.0126041
0.0129856
0.0134059
0.0138816
0.0143892
0.0149083
0.0153966
0.0157706