/*--------------------------------*- C++ -*----------------------------------*\
| =========                 |                                                 |
| \\      /  F ield         | OpenFOAM: The Open Source CFD Toolbox           |
|  \\    /   O peration     | Version:  2512                                  |
|   \\  /    A nd           | Website:  www.openfoam.com                      |
|    \\/     M anipulation  |                                                 |
\*---------------------------------------------------------------------------*/
FoamFile
{
    version     2.0;
    format      ascii;
    arch        "LSB;label=32;scalar=64";
    class       volScalarField;
    location    "114.25";
    object      p;
}
// * * * * * * * * * * * * * * * * * * * * * * * * * * * * * * * * * * * * * //

dimensions      [0 2 -2 0 0 0 0];

internalField   nonuniform List<scalar> 
13248
(
-0.380733
-0.379143
-0.377483
-0.375771
-0.373936
-0.371865
-0.369356
-0.366146
-0.361948
-0.356482
-0.349518
-0.3409
-0.33058
-0.318625
-0.305218
-0.29063
-0.275196
-0.259274
-0.243211
-0.227329
-0.211845
-0.197038
-0.1827
-0.169207
-0.38938
-0.386829
-0.384221
-0.381566
-0.378777
-0.375755
-0.372297
-0.368122
-0.362923
-0.35642
-0.348403
-0.338771
-0.327546
-0.314874
-0.301003
-0.286246
-0.270946
-0.255434
-0.240005
-0.224904
-0.210306
-0.196372
-0.183018
-0.170521
-0.398781
-0.395208
-0.391598
-0.387945
-0.384137
-0.380076
-0.375545
-0.370237
-0.363834
-0.356071
-0.346791
-0.335969
-0.323721
-0.310272
-0.295926
-0.281012
-0.265853
-0.250733
-0.235885
-0.221486
-0.207648
-0.19448
-0.181898
-0.170005
-0.409267
-0.404577
-0.399918
-0.395237
-0.390353
-0.385144
-0.379362
-0.372676
-0.364775
-0.355451
-0.34464
-0.332431
-0.319041
-0.304768
-0.289943
-0.274884
-0.259867
-0.24511
-0.230776
-0.216976
-0.203779
-0.191248
-0.179297
-0.168087
-0.421082
-0.415158
-0.409404
-0.403661
-0.397618
-0.391097
-0.383808
-0.375418
-0.365674
-0.35448
-0.341912
-0.32819
-0.313623
-0.298552
-0.283297
-0.268129
-0.253254
-0.238819
-0.224919
-0.211614
-0.198936
-0.186907
-0.175465
-0.164734
-0.434312
-0.427043
-0.420149
-0.413285
-0.405942
-0.397854
-0.388708
-0.378222
-0.366273
-0.352939
-0.338462
-0.323185
-0.307475
-0.291667
-0.276033
-0.260771
-0.246012
-0.231834
-0.218281
-0.205371
-0.193107
-0.181486
-0.170462
-0.160128
-0.44884
-0.44015
-0.432072
-0.423984
-0.415109
-0.405093
-0.393657
-0.38066
-0.366188
-0.350535
-0.334106
-0.317323
-0.300558
-0.284097
-0.268133
-0.252783
-0.238109
-0.224132
-0.210855
-0.198265
-0.186346
-0.175072
-0.164414
-0.154405
-0.464328
-0.454201
-0.444892
-0.435409
-0.424665
-0.412265
-0.39807
-0.382186
-0.364976
-0.34695
-0.328631
-0.31046
-0.292758
-0.275727
-0.259474
-0.244039
-0.229423
-0.215605
-0.202555
-0.190238
-0.178619
-0.167663
-0.157345
-0.147633
-0.480211
-0.468698
-0.458099
-0.446966
-0.433921
-0.418637
-0.401251
-0.382222
-0.362207
-0.34189
-0.321836
-0.302442
-0.283936
-0.266424
-0.249927
-0.234421
-0.219857
-0.206182
-0.193338
-0.181274
-0.16994
-0.159294
-0.149304
-0.139882
-0.495688
-0.482904
-0.470923
-0.457805
-0.441974
-0.423339
-0.402465
-0.380212
-0.357495
-0.335088
-0.313522
-0.293095
-0.273927
-0.256027
-0.239342
-0.223795
-0.209299
-0.195774
-0.183142
-0.171333
-0.160288
-0.149957
-0.140286
-0.131159
-0.50975
-0.495839
-0.482337
-0.466835
-0.447745
-0.425409
-0.400929
-0.375552
-0.350367
-0.326143
-0.303314
-0.282054
-0.26237
-0.244185
-0.227387
-0.211854
-0.197471
-0.184133
-0.171747
-0.160228
-0.149504
-0.139516
-0.130178
-0.121383
-0.521273
-0.506422
-0.491237
-0.472933
-0.450148
-0.423863
-0.395771
-0.367454
-0.340077
-0.314323
-0.290484
-0.268597
-0.248564
-0.230231
-0.213432
-0.198012
-0.183828
-0.170757
-0.158691
-0.147532
-0.137204
-0.127631
-0.118703
-0.110362
-0.344929
-0.346982
-0.348172
-0.348948
-0.349759
-0.350781
-0.352097
-0.35374
-0.355711
-0.357997
-0.360583
-0.363451
-0.36658
-0.369938
-0.373481
-0.37714
-0.380821
-0.384396
-0.387707
-0.390561
-0.392717
-0.393886
-0.393876
-0.392892
-0.339721
-0.342487
-0.344073
-0.345041
-0.345913
-0.346851
-0.34791
-0.349097
-0.350387
-0.351736
-0.353093
-0.354402
-0.355603
-0.356632
-0.357413
-0.357863
-0.357884
-0.357371
-0.356216
-0.354311
-0.3515
-0.347551
-0.342525
-0.3375
-0.335758
-0.339063
-0.340954
-0.342075
-0.342985
-0.343825
-0.344621
-0.345354
-0.345967
-0.346385
-0.346519
-0.346276
-0.345557
-0.344263
-0.342289
-0.339535
-0.3359
-0.331293
-0.325645
-0.318917
-0.311033
-0.301804
-0.291442
-0.281925
-0.333482
-0.337111
-0.339202
-0.34043
-0.341363
-0.34211
-0.342668
-0.342987
-0.342984
-0.342549
-0.34156
-0.339888
-0.337401
-0.333969
-0.329466
-0.32378
-0.316812
-0.308488
-0.298772
-0.287686
-0.275258
-0.26137
-0.246182
-0.232209
-0.333153
-0.336873
-0.339045
-0.340333
-0.341273
-0.34194
-0.342296
-0.342266
-0.341736
-0.340567
-0.338605
-0.335694
-0.331672
-0.326389
-0.319706
-0.31151
-0.301716
-0.290276
-0.277194
-0.262543
-0.246465
-0.228993
-0.210091
-0.191814
-0.334835
-0.338412
-0.34054
-0.34183
-0.342754
-0.343348
-0.343542
-0.343231
-0.342273
-0.340504
-0.337745
-0.333814
-0.328532
-0.321733
-0.313281
-0.30307
-0.291045
-0.277203
-0.261602
-0.244379
-0.225768
-0.206029
-0.185185
-0.163442
-0.338399
-0.34161
-0.343564
-0.344786
-0.345657
-0.346171
-0.346226
-0.345688
-0.344392
-0.34215
-0.338761
-0.334024
-0.327751
-0.319772
-0.30996
-0.298235
-0.284582
-0.269058
-0.25179
-0.233
-0.212981
-0.192063
-0.17055
-0.148029
-0.34355
-0.346204
-0.347858
-0.348918
-0.34967
-0.350066
-0.349974
-0.349232
-0.347648
-0.345016
-0.341118
-0.335741
-0.328692
-0.319813
-0.308994
-0.296197
-0.281461
-0.264912
-0.246766
-0.227316
-0.206949
-0.185924
-0.165405
-0.142722
-0.349897
-0.35184
-0.353061
-0.353849
-0.354385
-0.35458
-0.354284
-0.353301
-0.351419
-0.348412
-0.34405
-0.338114
-0.330418
-0.320822
-0.309257
-0.295735
-0.280364
-0.263348
-0.244981
-0.225615
-0.205761
-0.185434
-0.166624
-0.145368
-0.357037
-0.358164
-0.358824
-0.359203
-0.359385
-0.35926
-0.358637
-0.357313
-0.355054
-0.351614
-0.346755
-0.340263
-0.331966
-0.321762
-0.309631
-0.295652
-0.280008
-0.262975
-0.244915
-0.226211
-0.207422
-0.188493
-0.171356
-0.152673
-0.36464
-0.364887
-0.364866
-0.364677
-0.364333
-0.363708
-0.362606
-0.360798
-0.358031
-0.354048
-0.348609
-0.341511
-0.332613
-0.321859
-0.309293
-0.295063
-0.279419
-0.262695
-0.245279
-0.227581
-0.210077
-0.192935
-0.177412
-0.161713
-0.372535
-0.371868
-0.371057
-0.370147
-0.369104
-0.367804
-0.36605
-0.363595
-0.360172
-0.355514
-0.349382
-0.341593
-0.332047
-0.320743
-0.307792
-0.293408
-0.277891
-0.261599
-0.244911
-0.228213
-0.211834
-0.196118
-0.181603
-0.167996
-0.390528
-0.384741
-0.374267
-0.358696
-0.338072
-0.313319
-0.286273
-0.259457
-0.235105
-0.216309
-0.205698
-0.204812
-0.213454
-0.229016
-0.246436
-0.259094
-0.260382
-0.246108
-0.217427
-0.180895
-0.145118
-0.116287
-0.0967858
-0.0863236
-0.0834684
-0.0873436
-0.0989254
-0.118549
-0.140809
-0.154891
-0.152155
-0.13443
-0.110301
-0.0887857
-0.0745993
-0.0676271
-0.0667358
-0.0734292
-0.0885699
-0.105238
-0.111563
-0.102901
-0.0853426
-0.0688487
-0.0568756
-0.050195
-0.0501533
-0.0542592
-0.0566235
-0.0543685
-0.0484014
-0.0431303
-0.0383123
-0.0350578
-0.0345605
-0.0342647
-0.031123
-0.0279014
-0.0180009
-0.00319969
-0.331935
-0.324774
-0.314714
-0.301529
-0.285233
-0.26662
-0.247167
-0.229796
-0.214719
-0.205626
-0.204845
-0.213148
-0.229381
-0.250182
-0.270282
-0.283368
-0.283317
-0.266344
-0.233869
-0.193143
-0.153396
-0.121047
-0.0983304
-0.0847499
-0.0788479
-0.0795377
-0.0873292
-0.102809
-0.121865
-0.135132
-0.13443
-0.120567
-0.100546
-0.0827456
-0.071784
-0.0675008
-0.0691271
-0.0785693
-0.0964637
-0.115199
-0.12194
-0.111856
-0.0915697
-0.0721154
-0.0575209
-0.0486867
-0.0464403
-0.0484137
-0.049876
-0.047934
-0.0439027
-0.0403798
-0.0377476
-0.0366937
-0.0377253
-0.038613
-0.0349267
-0.0311591
-0.0199193
-0.00343151
-0.273359
-0.263764
-0.253508
-0.242199
-0.229606
-0.21668
-0.204344
-0.196686
-0.190699
-0.191378
-0.199944
-0.216344
-0.238665
-0.263208
-0.284967
-0.298184
-0.297528
-0.278978
-0.24423
-0.200924
-0.158615
-0.123819
-0.0986494
-0.0824496
-0.073744
-0.0713674
-0.075452
-0.0867267
-0.102401
-0.114665
-0.11585
-0.105655
-0.0896658
-0.0756104
-0.0679349
-0.0664006
-0.0705858
-0.0826921
-0.103124
-0.123763
-0.131016
-0.119761
-0.0970873
-0.0748915
-0.0578404
-0.0470473
-0.042841
-0.0428862
-0.0434866
-0.0416849
-0.0393682
-0.0374555
-0.0370659
-0.0383158
-0.0408983
-0.0429034
-0.038606
-0.0342692
-0.0217689
-0.00366656
-0.221517
-0.208591
-0.197845
-0.187893
-0.178282
-0.1697
-0.165603
-0.163787
-0.166581
-0.175807
-0.192007
-0.214509
-0.241038
-0.267923
-0.290611
-0.304204
-0.303212
-0.284081
-0.248501
-0.204249
-0.160871
-0.124791
-0.0979921
-0.0797748
-0.0686803
-0.0635105
-0.06413
-0.0713146
-0.0834639
-0.0943811
-0.0973347
-0.0901659
-0.078007
-0.0675887
-0.0631152
-0.0642431
-0.0708645
-0.0854128
-0.108145
-0.130609
-0.138499
-0.126398
-0.10177
-0.0771485
-0.0578612
-0.0453256
-0.0394307
-0.0377795
-0.0375621
-0.0357502
-0.0348643
-0.034392
-0.036271
-0.0399056
-0.0440535
-0.0471
-0.0421183
-0.0371952
-0.0235265
-0.00390037
-0.180741
-0.163827
-0.153014
-0.143569
-0.13713
-0.132871
-0.132227
-0.136064
-0.145261
-0.160562
-0.181958
-0.208325
-0.237237
-0.265211
-0.288179
-0.301894
-0.301056
-0.2822
-0.247172
-0.2036
-0.160659
-0.124399
-0.0967103
-0.077023
-0.0639939
-0.0564472
-0.0539891
-0.0573138
-0.0658604
-0.0750083
-0.0789627
-0.0744974
-0.0658961
-0.058865
-0.0573519
-0.0609324
-0.0697586
-0.0864665
-0.111246
-0.135457
-0.144132
-0.131606
-0.105537
-0.0788874
-0.0576305
-0.0435708
-0.0362516
-0.0331459
-0.0321745
-0.0301348
-0.0304551
-0.0312239
-0.0353635
-0.0414376
-0.0471594
-0.0511555
-0.0454201
-0.0398996
-0.0251698
-0.00412857
-0.154712
-0.140059
-0.124057
-0.113994
-0.107978
-0.105746
-0.107968
-0.115278
-0.128144
-0.146821
-0.170882
-0.198956
-0.228604
-0.256583
-0.279427
-0.293002
-0.292351
-0.274354
-0.241029
-0.199598
-0.158441
-0.123013
-0.0951223
-0.0744499
-0.0599016
-0.0503847
-0.0453695
-0.0452793
-0.0502551
-0.0572314
-0.0612778
-0.0591289
-0.0536789
-0.0496399
-0.0507202
-0.0564679
-0.0672138
-0.0857364
-0.11227
-0.138084
-0.147751
-0.135309
-0.108329
-0.0801074
-0.0571857
-0.0418165
-0.0333189
-0.0290009
-0.0273661
-0.0249592
-0.0261998
-0.0279865
-0.0343383
-0.0428768
-0.0501732
-0.0550215
-0.0484734
-0.0423492
-0.026675
-0.00434544
-0.138522
-0.121544
-0.105584
-0.0960103
-0.0905491
-0.08923
-0.0926644
-0.10133
-0.115535
-0.135227
-0.159763
-0.187723
-0.216743
-0.243764
-0.265761
-0.27896
-0.278441
-0.261812
-0.231179
-0.193064
-0.154755
-0.120984
-0.0934889
-0.072259
-0.0565483
-0.0454305
-0.0383117
-0.0353674
-0.0370314
-0.0415982
-0.045192
-0.044598
-0.0417445
-0.0401791
-0.0434076
-0.0509742
-0.0632687
-0.0831917
-0.111138
-0.138402
-0.149285
-0.137432
-0.110096
-0.0808006
-0.0565504
-0.0400838
-0.0306265
-0.0253224
-0.0231378
-0.0202762
-0.0221534
-0.0247172
-0.0331841
-0.0441802
-0.05305
-0.0586565
-0.0512401
-0.0445138
-0.0280219
-0.00454394
-0.133624
-0.117606
-0.100905
-0.0893723
-0.0833131
-0.0817907
-0.0849937
-0.0933663
-0.107099
-0.125978
-0.149301
-0.175736
-0.203102
-0.22856
-0.248938
-0.261038
-0.260648
-0.245866
-0.218694
-0.184729
-0.149998
-0.118486
-0.0918803
-0.070485
-0.0539422
-0.0415675
-0.0327685
-0.027519
-0.0262929
-0.0284163
-0.0311459
-0.0314111
-0.0304884
-0.0308063
-0.0356714
-0.0446277
-0.0580623
-0.0789303
-0.107875
-0.136475
-0.148696
-0.13792
-0.110805
-0.0809663
-0.0557477
-0.0383891
-0.0281686
-0.0220775
-0.0194593
-0.0161086
-0.01836
-0.0214545
-0.0318853
-0.0453002
-0.0557459
-0.0620152
-0.0536835
-0.0463688
-0.0291983
-0.00471771
-0.136975
-0.122594
-0.105783
-0.0921016
-0.084614
-0.0818668
-0.0836129
-0.0903582
-0.102215
-0.118903
-0.139749
-0.163541
-0.188407
-0.212117
-0.230179
-0.240586
-0.240351
-0.227807
-0.204641
-0.175313
-0.144559
-0.115686
-0.0903592
-0.0691679
-0.0521122
-0.0387962
-0.0286953
-0.0216412
-0.018017
-0.0177971
-0.0193946
-0.0206642
-0.020218
-0.0218387
-0.0278037
-0.0376707
-0.0517303
-0.0730374
-0.102677
-0.132436
-0.146037
-0.136823
-0.110513
-0.0806877
-0.0548834
-0.0367978
-0.0259653
-0.0192569
-0.0163207
-0.0124657
-0.0148425
-0.0182367
-0.030418
-0.0461872
-0.0582152
-0.0650499
-0.0557768
-0.047896
-0.0301984
-0.00486416
-0.144319
-0.131037
-0.115045
-0.101092
-0.0921797
-0.0875592
-0.0869567
-0.0910904
-0.100042
-0.113529
-0.13097
-0.151256
-0.17281
-0.194687
-0.209595
-0.218702
-0.219058
-0.209222
-0.190418
-0.165923
-0.139303
-0.113291
-0.0895392
-0.0688636
-0.0515529
-0.037508
-0.0263577
-0.0178557
-0.0122556
-0.00984603
-0.00998666
-0.0108184
-0.0110409
-0.0135336
-0.0200543
-0.0303489
-0.0446397
-0.0659621
-0.0957506
-0.126421
-0.141457
-0.134288
-0.109354
-0.08013
-0.0541474
-0.035449
-0.0240546
-0.016832
-0.0137324
-0.00939061
-0.0116188
-0.0150995
-0.0287711
-0.0467866
-0.0604034
-0.067711
-0.0575002
-0.0490814
-0.0310024
-0.00497846
-0.153515
-0.140246
-0.125443
-0.112313
-0.102367
-0.0960653
-0.0930945
-0.0940805
-0.0994447
-0.109062
-0.122567
-0.138925
-0.156643
-0.173611
-0.187272
-0.196086
-0.197627
-0.190915
-0.176689
-0.157107
-0.134707
-0.111707
-0.0897204
-0.0697652
-0.0523779
-0.0377292
-0.0256847
-0.0160098
-0.00878745
-0.00436279
-0.00288666
-0.0029999
-0.0033116
-0.00623546
-0.012729
-0.022856
-0.0367106
-0.0575719
-0.0876365
-0.119122
-0.135003
-0.130241
-0.107089
-0.0790332
-0.0533124
-0.0342331
-0.022321
-0.014619
-0.0115087
-0.00691144
-0.00879459
-0.0120882
-0.026862
-0.0470704
-0.0622785
-0.0699286
-0.0588025
-0.049906
-0.0315569
-0.00503169
-0.159402
-0.148793
-0.136737
-0.124313
-0.113526
-0.105642
-0.100968
-0.0994323
-0.101236
-0.106641
-0.115441
-0.126892
-0.140051
-0.15218
-0.165505
-0.172781
-0.174847
-0.17074
-0.160483
-0.145247
-0.126726
-0.106709
-0.0867275
-0.0679283
-0.0510223
-0.0363296
-0.0239247
-0.0137017
-0.0055495
0.00039548
0.00337065
0.00378018
0.00229105
-6.20965e-05
-0.00622126
-0.0159196
-0.0291128
-0.0489876
-0.0783213
-0.109775
-0.126531
-0.123615
-0.102755
-0.0761417
-0.0510912
-0.0322456
-0.02024
-0.0122823
-0.00916379
-0.00450458
-0.00616597
-0.00933879
-0.0247979
-0.0469432
-0.0637287
-0.0717113
-0.0596104
-0.0503452
-0.0318129
-0.00497019
-0.154606
-0.14913
-0.138404
-0.126732
-0.116806
-0.10939
-0.104505
-0.102132
-0.102705
-0.106515
-0.113391
-0.122721
-0.133459
-0.144031
-0.153754
-0.159645
-0.160741
-0.156321
-0.146572
-0.132521
-0.115596
-0.0973094
-0.0789613
-0.0615348
-0.0456614
-0.0316325
-0.0195462
-0.00936663
-0.000998199
0.00557058
0.00963468
0.0110346
0.0104554
0.00745951
0.00200291
-0.00652527
-0.0186527
-0.0382021
-0.0689875
-0.103452
-0.122786
-0.120395
-0.0984889
-0.0720451
-0.047512
-0.0292629
-0.0177396
-0.0099649
-0.00675966
-0.00153722
-0.00272847
-0.00571022
-0.0219669
-0.0464744
-0.0650814
-0.0735402
-0.0601426
-0.0504247
-0.0318397
-0.00483399
-0.150189
-0.146486
-0.13676
-0.126057
-0.117162
-0.11056
-0.106065
-0.103693
-0.103735
-0.106373
-0.111435
-0.118401
-0.126381
-0.134173
-0.140893
-0.144655
-0.144423
-0.139758
-0.13084
-0.11843
-0.103602
-0.0875147
-0.0711898
-0.0554459
-0.040853
-0.0276965
-0.0161479
-0.00625412
0.00209938
0.00899512
0.013641
0.0154074
0.0142644
0.0122499
0.00778478
0.000502685
-0.0104486
-0.0293231
-0.0607001
-0.0964564
-0.116103
-0.113012
-0.0917398
-0.0666041
-0.0435887
-0.0263979
-0.0153661
-0.00780934
-0.00467921
0.000646303
-0.000529355
-0.00302372
-0.0197044
-0.0460338
-0.0659951
-0.074609
-0.0601237
-0.0499308
-0.0315665
-0.00475756
-0.143821
-0.141467
-0.133353
-0.123941
-0.11607
-0.110301
-0.106374
-0.104152
-0.103744
-0.105246
-0.108532
-0.11322
-0.118678
-0.124011
-0.128251
-0.130241
-0.129201
-0.124746
-0.116906
-0.106151
-0.093238
-0.0790548
-0.0644427
-0.0501129
-0.0366053
-0.0242206
-0.013151
-0.00350209
0.00474981
0.0117308
0.0167436
0.0190094
0.0184983
0.0166294
0.0127131
0.00617415
-0.00422259
-0.0227068
-0.0533053
-0.0877937
-0.106945
-0.104049
-0.0841435
-0.0608041
-0.0395062
-0.0234415
-0.0129918
-0.00570142
-0.00266993
0.00265105
0.00134664
-0.000970298
-0.0180157
-0.0455754
-0.0663674
-0.0750091
-0.0596454
-0.0489892
-0.0310581
-0.00471135
-0.135316
-0.135067
-0.12888
-0.120835
-0.113924
-0.108877
-0.105408
-0.103245
-0.10238
-0.102888
-0.104717
-0.107589
-0.11104
-0.114331
-0.116748
-0.117488
-0.115899
-0.111604
-0.104556
-0.0950651
-0.0836884
-0.0711165
-0.0580316
-0.0450276
-0.0325846
-0.0209973
-0.0104633
-0.00111867
0.00695491
0.0138909
0.0191651
0.0220261
0.022203
0.0207997
0.0176399
0.011799
0.0018065
-0.0160328
-0.044867
-0.0777389
-0.096601
-0.0940236
-0.0757455
-0.0544704
-0.0351246
-0.0203797
-0.0106264
-0.00363774
-0.000711856
0.0045416
0.00313945
0.000868579
-0.0163234
-0.0446294
-0.0660723
-0.0747622
-0.0586984
-0.047616
-0.0302593
-0.00467053
-0.12642
-0.127891
-0.123401
-0.116667
-0.11066
-0.106232
-0.103136
-0.10104
-0.0998629
-0.0996549
-0.100395
-0.101895
-0.103732
-0.10546
-0.106498
-0.106229
-0.104135
-0.0999036
-0.0934722
-0.0850379
-0.0749929
-0.063848
-0.0521376
-0.0403502
-0.0289073
-0.0180968
-0.00812502
0.000870992
0.00873043
0.0155436
0.0209325
0.0242709
0.0251788
0.0245743
0.0224467
0.0176039
0.00842
-0.00833673
-0.0354105
-0.0668426
-0.0850686
-0.0829294
-0.0666437
-0.0477493
-0.0305438
-0.0172562
-0.00828884
-0.00162897
0.00119332
0.00629269
0.00482434
0.00263902
-0.0142877
-0.0429665
-0.0649758
-0.0736927
-0.0571923
-0.0457728
-0.0291403
-0.00462
-0.117532
-0.119997
-0.116941
-0.11147
-0.106345
-0.102495
-0.099755
-0.0977838
-0.0964408
-0.0957356
-0.0956596
-0.0960912
-0.0967518
-0.0972834
-0.0972422
-0.0961716
-0.0936834
-0.0895271
-0.083622
-0.0760766
-0.0671562
-0.0572357
-0.0467344
-0.0360534
-0.0255556
-0.0155073
-0.00612239
0.0024726
0.0100799
0.0167247
0.0221158
0.0257966
0.0273775
0.0276961
0.0268117
0.0233476
0.0153871
-0.000270508
-0.0257776
-0.055381
-0.0725798
-0.0710516
-0.0571016
-0.0408074
-0.0258408
-0.0141001
-0.00599492
0.000309714
0.00303708
0.00790379
0.00639684
0.00433847
-0.0118865
-0.0404948
-0.0628578
-0.0716091
-0.055051
-0.0434506
-0.0276788
-0.0045411
-0.108353
-0.111559
-0.109748
-0.105444
-0.101161
-0.097866
-0.0954764
-0.0936652
-0.0922553
-0.0912264
-0.0905811
-0.090245
-0.0900303
-0.0896652
-0.0888241
-0.0871729
-0.0844158
-0.080347
-0.0748804
-0.0680713
-0.0601
-0.0512404
-0.0418152
-0.0321469
-0.0225423
-0.0132378
-0.00445012
0.00370004
0.0110124
0.0174631
0.0228007
0.0267095
0.0288393
0.0299856
0.0303479
0.0284667
0.0219095
0.00726978
-0.0165401
-0.04372
-0.0595568
-0.0587495
-0.0474071
-0.0338359
-0.0211182
-0.0109505
-0.00375929
0.0021661
0.00481972
0.00938883
0.00787149
0.00592807
-0.00917736
-0.0370935
-0.0595014
-0.0683717
-0.0522295
-0.0406658
-0.0258669
-0.00441492
-0.0991463
-0.102918
-0.102108
-0.0988116
-0.0953003
-0.092527
-0.0904741
-0.0888443
-0.0874463
-0.0862381
-0.0852235
-0.0843612
-0.0835283
-0.0825315
-0.081132
-0.0790811
-0.0761532
-0.0721852
-0.0670991
-0.0609195
-0.0537661
-0.0458343
-0.0373685
-0.0286242
-0.0198595
-0.0112789
-0.00309144
0.00458298
0.0115577
0.0177855
0.0230353
0.0270829
0.0296222
0.0313939
0.0327444
0.0322811
0.0271037
0.0136541
-0.00806266
-0.032194
-0.0458567
-0.0464369
-0.0378866
-0.0270417
-0.0164885
-0.00784883
-0.00159121
0.00393407
0.00654531
0.0107673
0.00927577
0.00741206
-0.0061509
-0.0326572
-0.0547746
-0.0639112
-0.048709
-0.03746
-0.0237158
-0.00422417
-0.0902496
-0.0942815
-0.0942108
-0.0917622
-0.0889401
-0.0866492
-0.0849181
-0.0834858
-0.0821596
-0.0808816
-0.0796545
-0.0784615
-0.0772254
-0.0758108
-0.0740432
-0.0717392
-0.0687308
-0.0648923
-0.0601571
-0.0545306
-0.0480903
-0.0409743
-0.0333667
-0.0254677
-0.017492
-0.00961378
-0.00202501
0.00515457
0.0117558
0.0177254
0.0228491
0.0269673
0.02979
0.0319501
0.0338695
0.034341
0.0303505
0.0184933
-0.000534358
-0.021163
-0.0330968
-0.0347197
-0.0288878
-0.0206196
-0.0120639
-0.00484175
0.00050283
0.00561305
0.00821731
0.0120697
0.0106673
0.00886541
-0.00277381
-0.027187
-0.0486695
-0.0582551
-0.0445025
-0.0339011
-0.0212617
-0.00395571
-0.0816682
-0.0857489
-0.0862236
-0.0844774
-0.0822564
-0.0804008
-0.0789715
-0.0777429
-0.0765286
-0.0752623
-0.0739449
-0.0725733
-0.0711016
-0.0694372
-0.0674558
-0.0650241
-0.0620182
-0.0583424
-0.0539414
-0.0488114
-0.0430022
-0.0366116
-0.0297771
-0.022654
-0.0154184
-0.00821797
-0.00122279
0.00545113
0.0116504
0.0173213
0.022281
0.0263995
0.0293807
0.0317399
0.0338489
0.0347009
0.0316422
0.0217554
0.00590682
-0.0111231
-0.0215155
-0.0241564
-0.0207185
-0.0147271
-0.00794284
-0.00198094
0.0025129
0.0072053
0.00983611
0.0133429
0.012133
0.0104043
0.000935963
-0.0208348
-0.0413273
-0.0515352
-0.0396755
-0.0300818
-0.0185674
-0.00360288
-0.0734133
-0.0774412
-0.0783046
-0.0771209
-0.0754082
-0.0739351
-0.0727816
-0.0717538
-0.0706772
-0.0694813
-0.0681626
-0.0667261
-0.0651477
-0.0633668
-0.0612959
-0.058839
-0.0559052
-0.0524228
-0.0483483
-0.0436748
-0.0384345
-0.0326962
-0.0265628
-0.0201536
-0.0136119
-0.0070619
-0.000651475
0.00551148
0.0112889
0.0166234
0.0213725
0.0254346
0.0284441
0.0308648
0.0329277
0.0337992
0.0314567
0.0236082
0.0109647
-0.00274489
-0.0117391
-0.0151433
-0.0135805
-0.00946556
-0.00419643
0.000682379
0.00442
0.00870589
0.0113904
0.0146398
0.0137639
0.01215
0.00489587
-0.0139194
-0.0330589
-0.0436233
-0.0343385
-0.0261122
-0.0157239
-0.00316803
-0.0655777
-0.0694556
-0.0705689
-0.0698233
-0.0685323
-0.0673887
-0.0664817
-0.0656454
-0.0647191
-0.0636309
-0.0623734
-0.0609555
-0.059368
-0.0575723
-0.0555077
-0.0531054
-0.0502997
-0.0470384
-0.0432885
-0.0390429
-0.0343228
-0.0291774
-0.0236834
-0.0179329
-0.0120411
-0.00611239
-0.000273824
0.00537673
0.010718
0.0156875
0.0201722
0.0241562
0.0270486
0.0294331
0.0313388
0.0320891
0.0302837
0.0242169
0.0144008
0.00356866
-0.00409987
-0.00781315
-0.00754449
-0.00487888
-0.000866551
0.00310562
0.00620086
0.0100959
0.012841
0.0159756
0.0156143
0.0142044
0.00896378
-0.00691633
-0.0243603
-0.0335243
-0.0286602
-0.0221116
-0.0128456
-0.00266532
-0.0581914
-0.0618438
-0.0631012
-0.0626922
-0.0617462
-0.0608812
-0.0601896
-0.0595297
-0.0587551
-0.0577957
-0.0566408
-0.0553003
-0.0537734
-0.0520372
-0.0500498
-0.0477627
-0.0451289
-0.0421111
-0.0386852
-0.0348455
-0.0306068
-0.0260048
-0.0210974
-0.0159559
-0.0106723
-0.00533446
-4.98608e-05
0.0050935
0.00998508
0.0145594
0.0187065
0.0223584
0.0252537
0.0275645
0.0292804
0.0298925
0.0284769
0.0238367
0.0163579
0.00793411
0.00152184
-0.00207644
-0.00257907
-0.000966646
0.00203113
0.00525697
0.00783219
0.0113514
0.0141278
0.0172758
0.0176336
0.0165686
0.0129155
-0.000402576
-0.0160172
-0.0240558
-0.0229849
-0.0182012
-0.0100596
-0.00212214
-0.0512595
-0.0546473
-0.0559702
-0.0558133
-0.0551446
-0.0545106
-0.0540032
-0.053501
-0.0528722
-0.0520501
-0.0510223
-0.0497971
-0.0483784
-0.0467532
-0.0448936
-0.0427653
-0.040335
-0.0375766
-0.034473
-0.0310209
-0.0272312
-0.0231308
-0.0187637
-0.0141859
-0.00947068
-0.00469153
6.07882e-05
0.00470706
0.00914579
0.013309
0.0170824
0.0203479
0.0232022
0.0254042
0.0269377
0.0274456
0.0263335
0.0228188
0.0172055
0.0107465
0.00549463
0.00228819
0.00140709
0.00229889
0.00450169
0.00711702
0.00928642
0.0124454
0.0152075
0.0183957
0.0195239
0.0189721
0.0163716
0.00507241
-0.00872705
-0.0170143
-0.0176382
-0.0144904
-0.00748933
-0.00157526
-0.0447957
-0.0478947
-0.0492219
-0.049248
-0.0487989
-0.048354
-0.0480011
-0.047637
-0.0471431
-0.0464578
-0.0455685
-0.0444809
-0.0431997
-0.0417189
-0.0400201
-0.0380793
-0.0358727
-0.0333825
-0.0305972
-0.0275157
-0.0241466
-0.0205111
-0.0166431
-0.012587
-0.00840152
-0.00414792
9.68967e-05
0.0042628
0.00825956
0.012017
0.0154198
0.0183231
0.0210501
0.0231054
0.0244795
0.0249306
0.0240845
0.0214646
0.017309
0.0124323
0.00824793
0.00553158
0.00453052
0.00496134
0.00656209
0.0086788
0.0105383
0.0133448
0.0160441
0.0191942
0.0209102
0.0208799
0.018842
0.0091572
-0.0027578
-0.0107779
-0.0127614
-0.011069
-0.00524109
-0.00106378
-0.0387931
-0.0415945
-0.0428845
-0.0430401
-0.042763
-0.0424707
-0.042245
-0.0419986
-0.0416267
-0.0410724
-0.0403235
-0.0393824
-0.0382538
-0.0369359
-0.0354166
-0.0336793
-0.0317068
-0.0294871
-0.0270128
-0.0242846
-0.0213098
-0.0181057
-0.014699
-0.0111252
-0.00743186
-0.00366997
9.55945e-05
0.00380441
0.00737731
0.0107497
0.0138285
0.0165394
0.0189408
0.0208044
0.022041
0.0224776
0.0218795
0.0199754
0.0169471
0.0133343
0.0100953
0.00787942
0.00691367
0.0070734
0.00823493
0.00994316
0.0115663
0.014021
0.0165897
0.0195628
0.0215372
0.0218144
0.0200165
0.0118006
0.001808
-0.00553478
-0.00847379
-0.00801095
-0.00338777
-0.000623583
-0.0332404
-0.0357499
-0.0369756
-0.037219
-0.0370746
-0.0369035
-0.0367809
-0.0366333
-0.0363685
-0.0359349
-0.0353213
-0.034527
-0.0335556
-0.0324074
-0.0310753
-0.0295471
-0.0278105
-0.0258574
-0.0236832
-0.0212899
-0.0186839
-0.0158797
-0.0128988
-0.00977001
-0.00653192
-0.00322701
9.01981e-05
0.00336817
0.00653865
0.00954598
0.0123129
0.0147849
0.0169133
0.0185914
0.0197174
0.0201706
0.019802
0.0184706
0.016313
0.0136987
0.0112699
0.0095189
0.00867442
0.00869381
0.009546
0.0109194
0.0123499
0.0144546
0.016817
0.0194601
0.0213356
0.0216904
0.0200027
0.0132095
0.00501959
-0.00142633
-0.0048599
-0.00536327
-0.00194355
-0.000277114
-0.0281293
-0.0303572
-0.0315001
-0.0317992
-0.0317558
-0.0316802
-0.03164
-0.031574
-0.0314018
-0.0310775
-0.0305876
-0.0299334
-0.0291164
-0.028137
-0.0269908
-0.0256695
-0.0241639
-0.0224682
-0.0205797
-0.0185011
-0.0162384
-0.0138038
-0.0112147
-0.0084949
-0.00567589
-0.00279289
0.000108449
0.00298461
0.00577678
0.00843725
0.0108993
0.0131156
0.0150143
0.0165284
0.0175689
0.0180565
0.0178928
0.0170197
0.0155352
0.0136984
0.0119307
0.0106011
0.00991903
0.00988321
0.0105243
0.011623
0.012881
0.0146468
0.0167288
0.0189447
0.0205127
0.0207857
0.0191795
0.0136982
0.00705813
0.00157522
-0.00196408
-0.00318636
-0.000860082
-2.4045e-05
-0.023441
-0.0254027
-0.0264532
-0.0267844
-0.026817
-0.0268158
-0.0268406
-0.0268411
-0.0267476
-0.0265176
-0.0261378
-0.025614
-0.0249444
-0.0241272
-0.0231598
-0.0220369
-0.0207517
-0.0192998
-0.0176797
-0.0158943
-0.0139489
-0.011854
-0.00962393
-0.00727818
-0.00484271
-0.00234631
0.000172499
0.00267695
0.00511691
0.00745181
0.00962361
0.0115916
0.0132848
0.0146568
0.0156303
0.0161573
0.0161711
0.0156613
0.0146923
0.0134534
0.012216
0.0112519
0.0107418
0.0107019
0.0112015
0.0120762
0.0131678
0.0146157
0.0163669
0.0181339
0.0193259
0.0194434
0.0179277
0.0135749
0.00819246
0.00362435
0.000237313
-0.00145468
-6.053e-05
0.000154141
-0.0191532
-0.0208695
-0.0218247
-0.0221713
-0.0222602
-0.022316
-0.0223911
-0.0224435
-0.0224143
-0.022265
-0.0219847
-0.0215787
-0.0210447
-0.0203791
-0.0195793
-0.0186421
-0.0175626
-0.0163379
-0.0149664
-0.0134511
-0.0117966
-0.0100119
-0.00810869
-0.00610309
-0.0040163
-0.00187213
0.000297224
0.00246127
0.00457765
0.00661188
0.00851299
0.010246
0.011752
0.0129998
0.0139179
0.0144804
0.0146406
0.0144121
0.0138352
0.0130527
0.0122317
0.0115716
0.0112242
0.0112075
0.0116125
0.0123064
0.013232
0.0143915
0.0157983
0.0171446
0.0179722
0.0179237
0.0165105
0.0130839
0.00869789
0.0049269
0.00183463
-7.16895e-05
0.000525661
0.000282049
-0.0152468
-0.0167395
-0.0176005
-0.0179504
-0.0180804
-0.0181793
-0.0182928
-0.0183861
-0.0184097
-0.0183311
-0.0181396
-0.0178342
-0.01742
-0.016892
-0.0162459
-0.0154791
-0.0145883
-0.0135714
-0.0124272
-0.0111579
-0.00976769
-0.00826392
-0.00665628
-0.00495795
-0.00318622
-0.00136068
0.000492129
0.00234743
0.00416971
0.00592947
0.00758163
0.00909801
0.0104285
0.0115686
0.0124355
0.013022
0.013295
0.0132792
0.0129975
0.0125596
0.0120563
0.0116406
0.0114356
0.0114543
0.0117941
0.0123423
0.0131066
0.0140107
0.0150889
0.016071
0.0165802
0.0163902
0.0150831
0.0123906
0.00879727
0.0056792
0.00294396
0.000958017
0.00094362
0.000376074
-0.0117007
-0.0129917
-0.0137623
-0.0141073
-0.0142667
-0.0143979
-0.0145402
-0.0146651
-0.0147312
-0.0147109
-0.0145921
-0.014375
-0.0140668
-0.0136623
-0.0131553
-0.0125426
-0.011822
-0.0109925
-0.010053
-0.00900538
-0.00785277
-0.00660125
-0.00525877
-0.00383593
-0.00234677
-0.0008072
0.000761441
0.00233844
0.00389419
0.0054062
0.00683756
0.00816452
0.00935688
0.0103648
0.0111751
0.0117715
0.0121253
0.0122633
0.0121975
0.0120203
0.0117465
0.0115221
0.0114355
0.0114916
0.0117835
0.0122148
0.012828
0.0135109
0.0142934
0.0149347
0.0152209
0.0149318
0.0137295
0.0115995
0.00864857
0.00604079
0.00367289
0.00170057
0.00123455
0.000445175
-0.00849233
-0.00960367
-0.0102899
-0.010625
-0.0108049
-0.0109602
-0.0111237
-0.0112726
-0.0113725
-0.0114002
-0.0113464
-0.0112098
-0.0109888
-0.0106886
-0.0103031
-0.00982709
-0.009258
-0.00859502
-0.00783765
-0.00698718
-0.00604603
-0.00501893
-0.0039122
-0.00273436
-0.00149665
-0.000211744
0.00110295
0.00243084
0.00374838
0.00503629
0.0062652
0.00741596
0.00845358
0.00936431
0.0101176
0.0107113
0.0111165
0.0113574
0.0114366
0.0114016
0.011338
0.0112669
0.0112746
0.0113637
0.0116177
0.0119555
0.0124316
0.0129284
0.0134671
0.0138692
0.0139488
0.0135918
0.0124903
0.0107773
0.0083533
0.00613016
0.00402906
0.00221212
0.00143185
0.000493807
-0.00560046
-0.0065535
-0.00716251
-0.00748451
-0.0076784
-0.00785085
-0.00802954
-0.00819606
-0.0083222
-0.0083885
-0.00838694
-0.00831562
-0.00817472
-0.00796379
-0.00768289
-0.00732652
-0.00689065
-0.00637414
-0.00577683
-0.00509978
-0.00434475
-0.00351526
-0.00261626
-0.00165449
-0.000638771
0.000420866
0.00151068
0.00261747
0.00372216
0.00480943
0.0058556
0.00684564
0.00775131
0.00856138
0.00925187
0.00982447
0.0102561
0.0105633
0.0107453
0.0108407
0.0108899
0.0109226
0.0109975
0.0111107
0.0113322
0.0115947
0.0119505
0.0122953
0.0126377
0.0128521
0.0127815
0.0123818
0.0113789
0.00996592
0.00797639
0.00606195
0.00425359
0.00255436
0.00156233
0.000526328
-0.00300469
-0.00381937
-0.00435868
-0.00466607
-0.00486889
-0.00505345
-0.0052426
-0.00542171
-0.00556791
-0.00566521
-0.00570655
-0.00569033
-0.0056159
-0.00548269
-0.00528932
-0.00503478
-0.00471436
-0.00432536
-0.00386733
-0.00334119
-0.00274824
-0.00209107
-0.00137343
-0.000600529
0.000220833
0.00108288
0.00197488
0.00288643
0.00380249
0.00471112
0.00559339
0.00643751
0.0072219
0.00793817