/*--------------------------------*- C++ -*----------------------------------*\
| =========                 |                                                 |
| \\      /  F ield         | OpenFOAM: The Open Source CFD Toolbox           |
|  \\    /   O peration     | Version:  2512                                  |
|   \\  /    A nd           | Website:  www.openfoam.com                      |
|    \\/     M anipulation  |                                                 |
\*---------------------------------------------------------------------------*/
FoamFile
{
    version     2.0;
    format      ascii;
    arch        "LSB;label=32;scalar=64";
    class       surfaceScalarField;
    location    "65.75";
    object      phi;
}
// * * * * * * * * * * * * * * * * * * * * * * * * * * * * * * * * * * * * * //

dimensions      [0 3 -1 0 0 0 0];

oriented        oriented;

internalField   nonuniform List<scalar> 
26232
(
8.15285e-05
0.000900606
-0.000982135
0.00044446
0.0015917
-0.00195463
0.00121951
0.00134146
-0.00211651
0.00254475
0.000221885
-0.00154712
0.00456493
-0.00172321
-0.000296976
0.00742647
-0.00446682
0.00160528
0.0112685
-0.00798898
0.00414694
0.01621
-0.0122638
0.00732227
0.0223344
-0.0172464
0.0111221
0.0296741
-0.0228635
0.0155238
0.0381987
-0.0290086
0.020484
0.0478089
-0.0355444
0.0259342
0.058339
-0.0423107
0.0317807
0.0695667
-0.0491363
0.0379085
0.0812315
-0.0558531
0.0441884
0.0930558
-0.0623104
0.0504861
0.104769
-0.0683854
0.0566721
0.11613
-0.0739925
0.0626312
0.126947
-0.0790845
0.0682682
0.137087
-0.0836622
0.0735221
0.146474
-0.087736
0.0783484
0.155115
-0.0914195
0.0827788
0.162958
-0.0946297
0.0867867
-0.0977955
0.0908492
0.169905
0.000131398
0.000769208
0.000676244
0.00104686
0.00179241
0.000225291
0.00364071
-0.00162641
0.00638232
-0.00446482
0.0101688
-0.00825332
0.0151253
-0.0129455
0.0213301
-0.0184685
0.0287948
-0.0247112
0.0374504
-0.0315191
0.0471428
-0.038701
0.0576408
-0.0460425
0.0686562
-0.0533261
0.0798712
-0.0603512
0.0909708
-0.0669528
0.101674
-0.0730132
0.111758
-0.0784695
0.121078
-0.0833123
0.129573
-0.08758
0.13726
-0.0913494
0.144236
-0.0947121
0.150624
-0.0978073
0.156628
-0.100633
-0.103618
0.16245
0.000192151
0.000577057
0.000950734
0.000288275
0.00246115
-0.00128512
0.00490333
-0.00406859
0.00844426
-0.00800575
0.0132183
-0.0130274
0.0193015
-0.0190287
0.0266863
-0.0258533
0.035265
-0.0332898
0.0448279
-0.0410821
0.0550802
-0.0489532
0.0656727
-0.056635
0.0762432
-0.0638966
0.0864584
-0.0705664
0.0960499
-0.0765443
0.10484
-0.0818032
0.112751
-0.0863807
0.119803
-0.0903645
0.126096
-0.0938728
0.131783
-0.0970365
0.137048
-0.0999769
0.142057
-0.102816
0.147001
-0.105577
-0.108549
0.151932
0.000269691
0.000307366
0.00128338
-0.000725415
0.00324742
-0.00324916
0.00634894
-0.00717011
0.0107376
-0.0123945
0.0164947
-0.0187845
0.0236009
-0.0261349
0.0319164
-0.0341688
0.0411815
-0.0425549
0.0510427
-0.0509432
0.0610982
-0.0590087
0.0709526
-0.0664895
0.0802689
-0.0732129
0.0888067
-0.0791042
0.0964421
-0.0841796
0.103166
-0.0885273
0.109067
-0.0922815
0.114298
-0.0955953
0.119043
-0.098618
0.123485
-0.101479
0.127785
-0.104277
0.132061
-0.107093
0.136417
-0.109933
-0.112992
0.14086
0.000367121
-5.97551e-05
0.0016795
-0.0020378
0.00414997
-0.00571963
0.00795002
-0.0109702
0.0131767
-0.0176211
0.0198123
-0.0254201
0.0276973
-0.03402
0.0365319
-0.0430033
0.0459107
-0.0519337
0.0553848
-0.0604173
0.0645309
-0.0681548
0.0730128
-0.0749714
0.0806197
-0.0808197
0.0872768
-0.0857613
0.093031
-0.0899338
0.0980168
-0.0935132
0.102416
-0.0966805
0.106418
-0.099597
0.110191
-0.102391
0.113868
-0.105156
0.117545
-0.107954
0.121277
-0.110824
0.125111
-0.113767
-0.116908
0.129027
0.000484215
-0.00054397
0.00213244
-0.00368602
0.00514068
-0.00872787
0.00963129
-0.0154608
0.0156046
-0.0235944
0.0228998
-0.0327153
0.0311914
-0.0423115
0.0400308
-0.0518428
0.0489238
-0.0608267
0.0574173
-0.0689108
0.0651706
-0.0759081
0.0719936
-0.0817944
0.077848
-0.0866742
0.0828192
-0.0907325
0.0870703
-0.0941848
0.0907944
-0.0972373
0.0941764
-0.100062
0.0973693
-0.10279
0.100486
-0.105508
0.103603
-0.108273
0.106767
-0.111118
0.110003
-0.11406
0.113336
-0.117101
-0.120308
0.116736
0.000617723
-0.00116169
0.00262389
-0.00569219
0.00616642
-0.0122704
0.0112774
-0.0205717
0.0178167
-0.0301337
0.0254537
-0.0403523
0.0337077
-0.0505656
0.0420392
-0.0601743
0.0499567
-0.0687441
0.057101
-0.0760552
0.0632866
-0.0820937
0.0684945
-0.0870023
0.0728324
-0.0910122
0.0764794
-0.0943795
0.079633
-0.0973384
0.0824723
-0.100077
0.0851388
-0.102729
0.0877327
-0.105384
0.0903193
-0.108095
0.092938
-0.110892
0.0956118
-0.113791
0.0983517
-0.1168
0.101168
-0.119917
-0.123175
0.104035
0.000761618
-0.00192331
0.00312597
-0.00805654
0.00715566
-0.0163001
0.0127504
-0.0261664
0.0195995
-0.0369829
0.0272074
-0.0479601
0.0349906
-0.0583487
0.0424062
-0.0675899
0.0490566
-0.0753945
0.0547385
-0.0817371
0.0594333
-0.0867885
0.0632574
-0.0908263
0.0663976
-0.0941524
0.0690547
-0.0970365
0.071405
-0.0996887
0.0735837
-0.102255
0.0756841
-0.104829
0.0777652
-0.107465
0.0798623
-0.110192
0.0819954
-0.113025
0.0841749
-0.115971
0.0864058
-0.119031
0.0886921
-0.122204
-0.125496
0.0910133
0.000907773
-0.00283108
0.00360426
-0.010753
0.00802813
-0.020724
0.0139132
-0.0320515
0.0207735
-0.0438432
0.0279898
-0.0551764
0.0349556
-0.0653146
0.0412103
-0.0738446
0.0465066
-0.0806908
0.0508042
-0.0860347
0.0542145
-0.0901989
0.0569272
-0.093539
0.0591466
-0.0963718
0.0610505
-0.0989404
0.0627732
-0.101411
0.0644055
-0.103888
0.0660035
-0.106427
0.0676
-0.109062
0.0692135
-0.111805
0.0708539
-0.114665
0.0725266
-0.117643
0.0742335
-0.120738
0.0759753
-0.123946
-0.127259
0.0777385
0.00104635
-0.00387744
0.0040214
-0.0137281
0.00870604
-0.0254086
0.0146527
-0.0379982
0.0212261
-0.0504166
0.0277515
-0.0617018
0.0336804
-0.0712435
0.0386902
-0.0788544
0.0426933
-0.0846938
0.0457796
-0.0891211
0.0481353
-0.0925545
0.0499689
-0.0953726
0.0514639
-0.0978669
0.0527587
-0.100235
0.0539458
-0.102598
0.0550814
-0.105023
0.0561978
-0.107544
0.0573127
-0.110176
0.0584361
-0.112929
0.0595734
-0.115803
0.0607273
-0.118797
0.0618985
-0.121909
0.0630854
-0.125132
-0.128454
0.0642809
0.00116717
-0.00504461
0.00434263
-0.0169035
0.00912635
-0.0301923
0.0148977
-0.0437696
0.0209248
-0.0564436
0.0265529
-0.06733
0.0313508
-0.0760413
0.0351502
-0.0826539
0.0379978
-0.0875414
0.0400654
-0.0911887
0.0415646
-0.0940537
0.0426879
-0.096496
0.0435827
-0.0987616
0.0443475
-0.101
0.0450417
-0.103293
0.0456988
-0.10568
0.0463367
-0.108182
0.0469655
-0.110805
0.0475911
-0.113554
0.0482167
-0.116428
0.0488437
-0.119424
0.0494717
-0.122537
0.0500976
-0.125758
-0.129075
0.050718
0.0012635
-0.00630811
0.00454318
-0.0201832
0.00925091
-0.0349001
0.0146271
-0.0491458
0.019911
-0.0617275
0.0245321
-0.071951
0.0282029
-0.079712
0.0308944
-0.0853454
0.032746
-0.089393
0.033966
-0.0924087
0.0347577
-0.0948454
0.0352819
-0.0970202
0.0356478
-0.0991276
0.0359217
-0.101274
0.0361401
-0.103511
0.0363224
-0.105863
0.0364787
-0.108338
0.0366152
-0.110942
0.0367358
-0.113675
0.0368428
-0.116535
0.0369374
-0.119519
0.0370189
-0.122618
0.0370839
-0.125823
0.0371321
-0.129123
-0.000219465
-0.000762097
0.000981562
-0.000768722
-0.00204967
0.00259893
-0.00158031
-0.00315342
0.00396501
-0.00260212
-0.00407852
0.00510034
-0.00379219
-0.00484379
0.00603386
-0.00511665
-0.00548095
0.00680541
-0.00654841
-0.00602802
0.00745978
-0.00806608
-0.00652241
0.00804009
-0.00965297
-0.00699569
0.00858257
-0.0112959
-0.0074704
0.00911335
-0.0129842
-0.00795894
0.00964724
-0.0147084
-0.00846411
0.0101883
-0.0164591
-0.00898044
0.0107312
-0.0182264
-0.00949571
0.011263
-0.0199988
-0.00999216
0.0117646
-0.0217632
-0.0104472
0.0122116
-0.023505
-0.0108336
0.0125754
-0.0252088
-0.0111193
0.012823
-0.0268597
-0.0112669
0.0129178
-0.0284463
-0.0112339
0.0128205
-0.0299633
-0.0109737
0.0124906
-0.0314149
-0.0104345
0.011886
-0.0328241
-0.00954894
0.0109581
-0.00824269
-0.0342442
0.00966276
-0.000253579
-0.000508518
-0.00087901
-0.00142424
-0.00179195
-0.00224049
-0.00292841
-0.00294206
-0.00423857
-0.00353363
-0.0056839
-0.00403563
-0.00723504
-0.00447688
-0.00886988
-0.00488757
-0.0105717
-0.00529383
-0.0123277
-0.00571447
-0.0141268
-0.00615982
-0.0159589
-0.00663205
-0.017813
-0.00712629
-0.0196768
-0.00763187
-0.0215358
-0.00813322
-0.0233727
-0.00861024
-0.0251683
-0.00903808
-0.0269012
-0.00938634
-0.0285503
-0.00961783
-0.0300971
-0.00968706
-0.0315305
-0.00954021
-0.0328492
-0.00911579
-0.0340633
-0.00833485
-0.00709646
-0.0352096
-0.000272299
-0.00023622
-0.000937923
-0.000758615
-0.00190095
-0.00127746
-0.00308856
-0.00175445
-0.00444451
-0.00217768
-0.00592588
-0.00255426
-0.00750041
-0.00290234
-0.00914398
-0.003244
-0.0108382
-0.0035996
-0.0125683
-0.0039844
-0.014321
-0.0044071
-0.0160832
-0.0048699
-0.0178402
-0.00536929
-0.019575
-0.00589698
-0.0212677
-0.00644054
-0.0228944
-0.00698355
-0.0244272
-0.00750525
-0.0258341
-0.00797944
-0.0270794
-0.00837259
-0.0281258
-0.00864063
-0.0289406
-0.00872544
-0.0295007
-0.00855567
-0.0297925
-0.00804302
-0.00703149
-0.0298575
-0.000274376
3.8156e-05
-0.000942099
-9.08913e-05
-0.00190176
-0.000317794
-0.00307509
-0.00058112
-0.00440098
-0.000851794
-0.00583235
-0.00112288
-0.00733334
-0.00140136
-0.00887639
-0.00170096
-0.0104396
-0.0020364
-0.0120043
-0.0024197
-0.0135529
-0.00285845
-0.0150674
-0.00335548
-0.0165275
-0.00390918
-0.0179103
-0.00451415
-0.0191892
-0.00516161
-0.0203332
-0.00583955
-0.0213061
-0.0065324
-0.0220653
-0.00722021
-0.0225609
-0.00787702
-0.0227344
-0.00846713
-0.0225224
-0.00893742
-0.0218682
-0.00920985
-0.0207248
-0.00918644
-0.00872218
-0.0190341
-0.000260438
0.000298594
-0.000893135
0.000541806
-0.00179712
0.000586192
-0.00289183
0.000513594
-0.00411268
0.00036905
-0.00540831
0.00017275
-0.00673829
-7.13782e-05
-0.00806986
-0.000369385
-0.00937533
-0.000730922
-0.0106297
-0.00116528
-0.0118086
-0.00167964
-0.0128861
-0.00227798
-0.0138342
-0.00296103
-0.0146219
-0.00372647
-0.0152144
-0.0045691
-0.0155731
-0.00548084
-0.0156549
-0.00645061
-0.0154113
-0.00746384
-0.0147866
-0.00850167
-0.0137149
-0.00953885
-0.012114
-0.0105383
-0.00988699
-0.0114369
-0.0069575
-0.0121159
-0.012289
-0.00339063
-0.00023238
0.000530974
-0.000796551
0.00110598
-0.00159643
0.00138608
-0.00255155
0.00146871
-0.00359452
0.00141202
-0.00466945
0.00124768
-0.00572937
0.000988546
-0.00673404
0.000635285
-0.00764693
0.000181966
-0.00843357
-0.000378644
-0.00905869
-0.00105451
-0.00948509
-0.00185158
-0.00967278
-0.00277334
-0.00957858
-0.00382067
-0.00915614
-0.00499153
-0.00835626
-0.00628072
-0.00712726
-0.00767961
-0.00541517
-0.00917593
-0.00316311
-0.0107537
-0.000308625
-0.0123933
0.00322269
-0.0140696
0.00752501
-0.0157392
0.0127048
-0.0172958
-0.0186794
0.0190952
-0.000193361
0.000724335
-0.000661108
0.00157372
-0.00131447
0.00203944
-0.00207407
0.0022283
-0.00286958
0.00220753
-0.00363902
0.00201712
-0.00432702
0.00167654
-0.00488267
0.00119094
-0.00525743
0.000556724
-0.00540211
-0.000233971
-0.00526689
-0.00118973
-0.00479856
-0.00231991
-0.00394102
-0.00363088
-0.00263538
-0.00512631
-0.000820791
-0.00680612
0.00156429
-0.0086658
0.00458054
-0.0106959
0.00828618
-0.0128816
0.0127356
-0.0152031
0.0179785
-0.0176363
0.0240602
-0.0201513
0.0310543
-0.0227334
0.0389567
-0.0251982
-0.028052
0.0483293
-0.000147238
0.000871573
-0.000497615
0.0019241
-0.000969446
0.00251127
-0.00148383
0.00274269
-0.00196627
0.00268997
-0.00234671
0.00239756
-0.00255853
0.00188837
-0.00253686
0.00116927
-0.00221665
0.000236512
-0.00153193
-0.000918685
-0.000413303
-0.00230835
0.00121033
-0.00394355
0.00341207
-0.00583261
0.00626519
-0.00797943
0.00984107
-0.010382
0.0142065
-0.0130313
0.0194212
-0.0159105
0.025535
-0.0189954
0.032586
-0.0222541
0.0405998
-0.0256501
0.0495777
-0.0291292
0.0595623
-0.032718
0.0703941
-0.0360299
-0.0403509
0.0826929
-9.80828e-05
0.000969656
-0.000317471
0.00214349
-0.000580606
0.0027744
-0.000806788
0.00296887
-0.000915005
0.00279818
-0.000824573
0.00230713
-0.000454674
0.00151847
0.000276604
0.00043799
0.0014527
-0.00093958
0.00315955
-0.00262554
0.00548404
-0.00463285
0.00851255
-0.00697206
0.0123282
-0.00964824
0.0170072
-0.0126584
0.022615
-0.0159898
0.0292024
-0.0196187
0.0368023
-0.0235105
0.0454277
-0.0276208
0.0550699
-0.0318963
0.0657011
-0.0362812
0.0772654
-0.0406935
0.0897294
-0.0451819
0.102875
-0.0491753
-0.0545003
0.117024
-4.94461e-05
0.0010191
-0.000130519
0.00222456
-0.000164434
0.00280832
-6.4987e-05
0.00286942
0.000258564
0.00247463
0.000900438
0.00166526
0.00195808
0.000460823
0.00353171
-0.00113564
0.00572333
-0.0031312
0.00863453
-0.00553674
0.0123628
-0.00836109
0.0169967
-0.011606
0.0226108
-0.0152623
0.0292591
-0.0193067
0.0369707
-0.0237014
0.0457459
-0.0283939
0.0555545
-0.0333191
0.0663365
-0.0384028
0.0780057
-0.0435655
0.0904522
-0.0487278
0.103559
-0.0538001
0.117181
-0.0588041
0.131235
-0.0632295
-0.0688244
0.145559
-3.44017e-06
0.00102254
5.77504e-05
0.00216337
0.00027025
0.00259582
0.000730807
0.00240887
0.00154351
0.00166193
0.0028186
0.000390169
0.00467102
-0.0013916
0.00721751
-0.00368212
0.0105723
-0.00648604
0.0148413
-0.00980567
0.0201139
-0.0136338
0.0264557
-0.0179478
0.0338998
-0.0227064
0.0424415
-0.0278484
0.0520346
-0.0332945
0.0625915
-0.0389508
0.0739875
-0.0447151
0.0860679
-0.0504831
0.0986578
-0.0561554
0.111575
-0.0616448
0.124652
-0.0668771
0.137686
-0.0718383
0.150724
-0.0762674
-0.0811533
0.163053
4.04074e-05
0.000249144
0.000728451
0.0015902
0.00295516
0.0049506
0.00770594
0.0113461
0.0159821
0.0217002
0.0285505
0.0365369
0.0456112
0.0556712
0.0665651
0.0781004
0.0900574
0.102205
0.114318
0.126196
0.137667
0.148607
0.159126
0.168822
-0.0343832
-0.010223
0.010362
-0.0342577
-0.00608374
0.00595821
-0.0338235
-0.00058643
0.000152306
-0.0331032
0.00627331
-0.00699368
-0.032001
0.0146457
-0.015748
-0.0304722
0.0244475
-0.0259763
-0.0284908
0.0355342
-0.0375156
-0.0260482
0.0476245
-0.050067
-0.0231222
0.0602617
-0.0631877
-0.0196802
0.0728557
-0.0762977
-0.0156483
0.0846506
-0.0886824
-0.0107755
0.0945778
-0.0994506
-0.0047702
0.101551
-0.107556
0.00271407
0.104177
-0.111662
0.0118733
0.100999
-0.110158
0.0226293
0.0907436
-0.1015
0.0345844
0.0726758
-0.0846309
0.0471269
0.0468005
-0.059343
0.0597781
0.0138441
-0.0264953
0.0722054
-0.0246239
0.0121966
0.0841431
-0.066183
0.0542453
0.0949643
-0.105741
0.0949202
0.103695
-0.137825
0.129095
0.109616
-0.159356
0.153434
0.112482
-0.170442
0.167576
0.111705
-0.173989
0.174767
0.106379
-0.176206
0.181532
0.0974569
-0.182895
0.191817
0.0891437
-0.19013
0.198443
0.0864451
-0.181473
0.184172
0.0911335
-0.140953
0.136265
0.101478
-0.0691726
0.0588277
0.114155
0.0169969
-0.0296735
0.125896
0.0978517
-0.109593
0.134791
0.159934
-0.168829
0.140624
0.197893
-0.203725
0.142592
0.215983
-0.217951
0.138951
0.230835
-0.227195
0.13043
0.252957
-0.244436
0.121711
0.264637
-0.255918
0.118015
0.229656
-0.22596
0.120645
0.134346
-0.136977
0.127324
0.00457446
-0.0112527
0.135213
-0.117108
0.109218
0.142035
-0.19884
0.192019
0.14415
-0.241147
0.239031
0.139471
-0.266467
0.271146
0.130303
-0.290882
0.30005
0.121876
-0.280929
0.289356
0.118782
-0.211886
0.21498
0.122046
-0.0821303
0.0788667
0.128586
0.0556207
-0.0621605
0.133869
0.162137
-0.16742
0.132789
0.246981
-0.245901
0.126941
0.282739
-0.276891
0.121554
0.308594
-0.303207
0.119815
0.209588
-0.207849
0.123655
0.112624
-0.116463
0.130404
-0.0362752
0.0295255
-0.129744
0.126267
-0.0352458
-0.0101867
-0.0349426
-0.00638693
-0.0342314
-0.00129772
-0.0331946
0.00523654
-0.0316574
0.0131086
-0.0295249
0.022315
-0.0267142
0.0327234
-0.0231907
0.044101
-0.0188608
0.0559318
-0.0136397
0.0676346
-0.00758204
0.0785929
-0.0003818
0.0873775
0.0080296
0.0931391
0.0177091
0.0944979
0.0285934
0.0901143
0.0403788
0.0789582
0.0525372
0.0605175
0.0644755
0.0348622
0.0758857
0.0024339
0.0866437
-0.0353819
0.0965925
-0.0761318
0.105171
-0.11432
0.111521
-0.144176
0.115075
-0.162909
0.115939
-0.171306
0.114051
-0.172101
0.108323
-0.170479
0.0985144
-0.173086
0.0879575
-0.179573
0.0824217
-0.175937
0.0852703
-0.143802
0.0952521
-0.0791543
0.108712
0.00353715
0.121908
0.0846551
0.132693
0.149149
0.140286
0.190301
0.14335
0.212919
0.140391
0.233795
0.132737
0.260611
0.125107
0.272267
0.122114
0.232649
0.124653
0.131807
0.130374
-0.00114676
0.136811
-0.123544
0.142394
-0.204423
0.143932
-0.242685
0.139016
-0.261551
0.12968
-0.281546
0.121224
-0.272473
0.118277
-0.208939
0.121876
-0.0857292
0.12869
0.048807
0.133739
0.157088
0.132277
0.248442
0.126173
0.288844
0.121087
0.31368
0.119982
0.210694
0.124064
0.108542
0.131226
-0.0434368
-0.133601
-0.0296081
-0.0104361
-0.0289711
-0.00702393
-0.0278577
-0.00241112
-0.0263107
0.00368958
-0.0242203
0.0110182
-0.021427
0.0195217
-0.017767
0.0290635
-0.0132457
0.0395796
-0.00777112
0.0504573
-0.00123331
0.0610968
0.00674228
0.0706173
0.0156371
0.0784828
0.0255599
0.0832163
0.0364418
0.083616
0.048021
0.0785351
0.0598703
0.067109
0.071456
0.0489318
0.0822984
0.0240197
0.0921005
-0.0073682
0.10101
-0.0442915
0.108811
-0.0839327
0.115005
-0.120513
0.118922
-0.148093
0.120183
-0.164171
0.119107
-0.17023
0.116135
-0.169129
0.110359
-0.164703
0.100499
-0.163226
0.0884666
-0.167541
0.0801383
-0.167609
0.0805795
-0.144243
0.089611
-0.0881859
0.103486
-0.0103379
0.117959
0.0701825
0.130566
0.136541
0.13985
0.181017
0.14406
0.208708
0.14201
0.235845
0.135461
0.26716
0.128948
0.27878
0.126487
0.23511
0.128731
0.129563
0.133518
-0.00593415
0.138479
-0.128505
0.142751
-0.208696
0.143742
-0.243676
0.138711
-0.25652
0.129287
-0.272122
0.120885
-0.264071
0.11815
-0.206204
0.122029
-0.0896081
0.128969
0.0418674
0.133691
0.152366
0.131886
0.250248
0.125575
0.295154
0.120812
0.318443
0.120438
0.211067
0.124854
0.104126
0.132303
-0.0508862
-0.137734
-0.0185429
-0.0109273
-0.0176053
-0.00796153
-0.0161246
-0.00389177
-0.0140257
0.00159068
-0.0113879
0.00838035
-0.00800169
0.0161354
-0.00374511
0.0248069
0.00181742
0.0340171
0.00859257
0.0436821
0.0164152
0.0532741
0.0251257
0.0619069
0.0348628
0.0687457
0.0454613
0.0726178
0.0566828
0.0723944
0.0681588
0.0670591
0.0794237
0.055844
0.0899899
0.0383656
0.0994431
0.0145666
0.107657
-0.0155821
0.114698
-0.0513327
0.120376
-0.0896107
0.124182
-0.124319
0.125665
-0.149576
0.124745
-0.163251
0.12188
-0.167366
0.117819
-0.165067
0.11214
-0.159024
0.102976
-0.154062
0.090511
-0.155076
0.0797942
-0.156892
0.0773335
-0.141783
0.0847676
-0.09562
0.0985047
-0.024075
0.114084
0.054603
0.128379
0.122247
0.139257
0.17014
0.144678
0.203287
0.143774
0.236749
0.138533
0.272402
0.133129
0.284183
0.130981
0.237258
0.132783
0.127761
0.136638
-0.00978943
0.140189
-0.132056
0.1431
-0.211606
0.143539
-0.244116
0.138505
-0.251485
0.129066
-0.262684
0.120766
-0.255771
0.118294
-0.203731
0.122413
-0.0937279
0.12937
0.0349106
0.133717
0.148019
0.131618
0.252347
0.125167
0.301605
0.120742
0.322868
0.121154
0.210655
0.126
0.09928
0.133645
-0.058532
-0.142049
-0.00290876
-0.0114092
-0.00219234
-0.00867795
-0.00076455
-0.00531956
0.00185897
-0.00103284
0.00516989
0.00506943
0.00931064
0.0119947
0.0144246
0.019693
0.0204992
0.0279424
0.0275923
0.0365891
0.0357582
0.0451082
0.0448953
0.0527697
0.0549171
0.0587239
0.0655923
0.0619426
0.076589
0.0613978
0.0874927
0.0561554
0.0978488
0.045488
0.107235
0.0289793
0.115305
0.00649687
0.122025
-0.0223027
0.12733
-0.0566372
0.130952
-0.0932332
0.132385
-0.125752
0.13145
-0.148641
0.128502
-0.160302
0.124123
-0.162987
0.11908
-0.160024
0.113463
-0.153408
0.105442
-0.146041
0.0936191
-0.143253
0.0813622
-0.144635
0.0758127
-0.136233
0.0808813
-0.100688
0.0939937
-0.0371874
0.110322
0.0382746
0.126065
0.106503
0.13841
0.157795
0.145121
0.196576
0.145591
0.236278
0.141841
0.276152
0.13751
0.288515
0.135505
0.239262
0.136711
0.126556
0.139651
-0.0127299
0.141893
-0.134297
0.143418
-0.213131
0.143283
-0.243981
0.138355
-0.246557
0.128976
-0.253305
0.120776
-0.247571
0.118581
-0.201536
0.122922
-0.0980691
0.129836
0.0279971
0.133803
0.144051
0.131473
0.254677
0.124962
0.308117
0.120884
0.326947
0.122088
0.209451
0.12745
0.0939179
0.135241
-0.0663231
-0.146468
0.018834
-0.011148
0.0190759
-0.00891987
0.0201007
-0.00634435
0.0219456
-0.0028777
0.0249265
0.00208853
0.0287816
0.0081396
0.0337114
0.0147632
0.0397358
0.021918
0.0468416
0.0294833
0.0549895
0.0369603
0.0640668
0.0436924
0.0739056
0.0488851
0.0842264
0.0516218
0.0946573
0.0509669
0.104765
0.0460477
0.114116
0.0361368
0.122329
0.0207662
0.129362
-0.000535694
0.134783
-0.0277236
0.138541
-0.0603952
0.140166
-0.0948584
0.139268
-0.124854
0.136045
-0.145418
0.131269
-0.155526
0.125676
-0.157395
0.119867
-0.154214
0.114216
-0.147757
0.107433
-0.139257
0.097153
-0.132973
0.0845349
-0.132017
0.0761847
-0.127883
0.0782238
-0.102728
0.0899921
-0.0489557
0.106623
0.0216436
0.123491
0.089636
0.137162
0.144123
0.145255
0.188483
0.147317
0.234217
0.145219
0.27825
0.14196
0.291774
0.139984
0.241238
0.140454
0.126085
0.142481
-0.0147565
0.143533
-0.13535
0.143685
-0.213283
0.142928
-0.243224
0.138203
-0.241832
0.128972
-0.244073
0.12083
-0.239429
0.118877
-0.199583
0.123437
-0.102629
0.1303
0.0211343
0.133931
0.14042
0.131445
0.257163
0.124969
0.314593
0.121243
0.330672
0.123197
0.207496
0.129154
0.0879607
0.137068
-0.0742364
-0.150931
0.0465554
-0.009374
0.0454111
-0.00777564
0.0450218
-0.00595507
0.0455094
-0.00336526
0.047281
0.00031689
0.050049
0.00537161
0.0540326
0.0107796
0.0592618
0.0166889
0.0656991
0.023046
0.0732519
0.0294075
0.0817598
0.0351845
0.0909915
0.0396533
0.10063
0.041983
0.110285
0.0413118
0.119524
0.0368088
0.127948
0.0277136
0.135186
0.0135279
0.141229
-0.00657846
0.145568
-0.0320633
0.14789
-0.0627166
0.147603
-0.0945716
0.144525
-0.121776
0.139261
-0.140155
0.132927
-0.149191
0.126414
-0.150882
0.120117
-0.147916
0.114379
-0.14202
0.108624
-0.133502
0.100381
-0.12473
0.0886989
-0.120335
0.0784044
-0.117588
0.0769913
-0.101314
0.0865508
-0.0585152
0.102848
0.00534619
0.120466
0.0720182
0.135319
0.12927
0.144889
0.178913
0.148766
0.23034
0.148496
0.278519
0.146342
0.293929
0.144316
0.243264
0.143975
0.126426
0.145056
-0.0158376
0.145044
-0.135338
0.143875
-0.212113
0.142438
-0.241787
0.137986
-0.23738
0.12901
-0.235097
0.120868
-0.231286
0.119058
-0.197774
0.123843
-0.107414
0.130695
0.0142824
0.134077
0.137037
0.131525
0.259716
0.125187
0.320931
0.121821
0.334038
0.124462
0.204855
0.131062
0.0813612
0.139098
-0.0822724
-0.155397
0.0793728
-0.00605391
0.0766669
-0.00506966
0.0746723
-0.00396053
0.0735426
-0.00223555
0.0733369
0.000522631
0.0743334
0.00437512
0.0765777
0.00853533
0.0801727
0.0130938
0.0851156
0.018103
0.0913201
0.023203
0.0986078
0.0278967
0.106713
0.0315482
0.115294
0.0334019
0.123945
0.032661
0.132223
0.0285302
0.139748
0.0201889
0.146085
0.0071914
0.151149
-0.0116426
0.154396
-0.0353108
0.15522
-0.0635404
0.153032
-0.0923841
0.147955
-0.116698
0.140981
-0.133182
0.133432
-0.141641
0.126269
-0.14372
0.119751
-0.141398
0.113979
-0.136249
0.108907
-0.128429
0.102691
-0.118514
0.0930001
-0.110644
0.0821011
-0.106689
0.0773726
-0.0965858
0.0837769
-0.0649195
0.0988595
-0.00973643
0.116777
0.0541008
0.132683
0.113364
0.143816
0.167779
0.149669
0.224487
0.151376
0.276813
0.150456
0.294848
0.14841
0.245311
0.147209
0.127626
0.14732
-0.015948
0.146349
-0.134367
0.143948
-0.209712
0.141773
-0.239613
0.137633
-0.23324
0.129044
-0.226508
0.120848
-0.223091
0.119038
-0.195964
0.124028
-0.112403
0.130952
0.00735846
0.134214
0.133775
0.131698
0.262232
0.125606
0.327023
0.122622
0.337022
0.125876
0.2016
0.133144
0.0740934
0.141303
-0.0904315
-0.159837
0.112805
-0.00183493
0.109193
-0.00145787
0.106187
-0.000954571
0.103739
0.000212703
0.101845
0.00241709
0.101109
0.00511084
0.1015
0.00814451
0.10315
0.0114433
0.106125
0.0151282
0.11041
0.0189185
0.115881
0.0224257
0.122303
0.0251258
0.129352
0.0263533
0.136629
0.0253843
0.143679
0.0214797
0.150072
0.0137964
0.155378
0.00188498
0.159265
-0.0155298
0.161165
-0.0372106
0.160301
-0.0626758
0.156219
-0.0883031
0.149391
-0.10987
0.141107
-0.124897
0.132732
-0.133266
0.12517
-0.136159
0.118629
-0.134857
0.112958
-0.130577
0.108282
-0.123754
0.103699
-0.113931
0.0965359
-0.103481
0.0865191
-0.0966726
0.079352
-0.0894188
0.0819446
-0.067512
0.0947164
-0.0225083
0.112274
0.036543
0.129051
0.0965873
0.14183
0.155
0.149865
0.216453
0.153732
0.272946
0.154129
0.29445
0.152153
0.247288
0.1501
0.129679
0.149212
-0.0150598
0.147351
-0.132507
0.143837
-0.206198
0.140885
-0.23666
0.137064
-0.22942
0.129016
-0.21846
0.120753
-0.214828
0.118762
-0.193974
0.123908
-0.117548
0.131006
0.000260401
0.134311
0.130469
0.13195
0.264593
0.126209
0.332765
0.123644
0.339587
0.127459
0.197785
0.135378
0.0661739
0.143658
-0.0987115
-0.164232
0.141223
0.00250137
0.137318
0.00244657
0.133706
0.00265762
0.130499
0.00342016
0.128113
0.00480257
0.126554
0.0066705
0.125837
0.00886115
0.126074
0.0112066
0.127406
0.0137962
0.12987
0.0164538
0.133425
0.0188713
0.137922
0.0206284
0.143113
0.0211619
0.148646
0.0198513
0.154094
0.0160316
0.158968
0.00892292
0.163127
-0.00227398
0.165384
-0.0177866
0.165556
-0.0373826
0.162807
-0.0599274
0.156925
-0.0824206
0.148687
-0.101632
0.139516
-0.115727
0.130686
-0.124435
0.122947
-0.12842
0.116504
-0.128415
0.111086
-0.125159
0.106697
-0.119364
0.103221
-0.110456
0.0985486
-0.0988083
0.0906199
-0.0887439
0.0824941
-0.081293
0.081373
-0.0663909
0.0907801
-0.0319154
0.10703
0.0202928
0.124321
0.0792961
0.138721
0.140601
0.148973
0.206201
0.155076
0.266843
0.156986
0.29254
0.155324
0.24895
0.15262
0.132383
0.150714
-0.0131534
0.147991
-0.129784
0.143498
-0.201705
0.139754
-0.232916
0.136221
-0.225888
0.128872
-0.211111
0.120585
-0.20654
0.118218
-0.191607
0.123427
-0.122757
0.130803
-0.00711632
0.134338
0.126934
0.132257
0.266674
0.126968
0.338054
0.124888
0.341666
0.129226
0.193447
0.137765
0.0576352
0.146141
-0.107088
-0.168567
0.159382
0.00617219
0.155921
0.00590768
0.1526
0.00597842
0.149695
0.00632509
0.147432
0.00706563
0.145833
0.00826991
0.144872
0.00982243
0.144568
0.0115101
0.14511
0.0132539
0.146513
0.0150508
0.148751
0.0166333
0.151726
0.0176536
0.15526
0.0176282
0.159092
0.0160189
0.162854
0.0122703
0.165964
0.00581217
0.168262
-0.00457154
0.168943
-0.0184675
0.167272
-0.0357117
0.162715
-0.0553706
0.155385
-0.0750909
0.146266
-0.0925124
0.136715
-0.106175
0.127804
-0.115525
0.120091
-0.120706
0.113776
-0.1221
0.108639
-0.120022
0.104479
-0.115204
0.101568
-0.107545
0.098831
-0.0960709
0.0935455
-0.0834584
0.0860482
-0.0737956
0.0821698
-0.0625125
0.0876012
-0.0373467
0.101388
0.00650611
0.11855
0.0621339
0.134521
0.12463
0.147222
0.1935
0.155768
0.258296
0.159141
0.289167
0.15781
0.250281
0.154768
0.135424
0.151965
-0.0103499
0.148377
-0.126196
0.143046
-0.196374
0.138516
-0.228385
0.135165
-0.222537
0.128613
-0.204559
0.120383
-0.19831
0.117473
-0.188696
0.122555
-0.127839
0.130303
-0.0148649
0.134253
0.122984
0.132598
0.268328
0.127856
0.342796
0.126341
0.343182
0.131207
0.188581
0.140296
0.048546
0.148733
-0.115524
-0.172833
0.166618
0.00837697
0.164091
0.00843447
0.161648
0.00842082
0.159472
0.00850139
0.157691
0.00884702
0.156424
0.00953684
0.155732
0.0105142
0.155599
0.0116434
0.156002
0.0128505
0.156992
0.014061
0.158561
0.0150646
0.160631
0.0155832
0.16304
0.0152193
0.165557
0.0135017
0.167906
0.0099212
0.169812
0.00390639
0.170354
-0.00511381
0.169191
-0.0173041
0.165849
-0.0323702
0.160004
-0.0495257
0.152034
-0.0671205
0.142894
-0.0833723
0.133669
-0.0969508
0.125158
-0.107014
0.117743
-0.11329
0.111605
-0.115962
0.10668
-0.115097
0.10267
-0.111195
0.0998606
-0.104735
0.0981776
-0.0943879
0.0952793
-0.08056
0.0894628
-0.0679792
0.0842073
-0.057257
0.0857768
-0.0389162
0.0960631
-0.00378022
0.111892
0.0463051
0.128553
0.107969
0.143377
0.178676
0.15449
0.247183
0.159659
0.283998
0.159274
0.250666
0.156434
0.138265
0.152926
-0.00684243
0.1485
-0.12177
0.142561
-0.190435
0.137317
-0.223142
0.133997
-0.219217
0.128247
-0.198808
0.120165
-0.190228
0.116628
-0.18516
0.121437
-0.132648
0.129481
-0.022909
0.134036
0.11843
0.132962
0.269402
0.128841
0.346917
0.127994
0.344029
0.133419
0.183156
0.142973
0.0389927
0.15142
-0.123972
-0.177007
0.187749
0.0105097
-0.189881
0.186029
0.0101537
0.184322
0.0101287
0.182622
0.0102012
0.18103
0.0104392
0.179652
0.0109148
0.178567
0.0115986
0.177817
0.0123932
0.177468
0.0132002
0.17763
0.0138988
0.178402
0.0142925
0.17986
0.0141254
0.182027
0.0130524
0.184866
0.0106623
0.188241
0.00654593
0.191821
0.0003264
0.19521
-0.00850234
0.197802
-0.0198963
0.198943
-0.0335115
0.198049
-0.048631
0.194944
-0.0640154
0.189861
-0.0782894
0.183262
-0.0903519
0.175679
-0.0994315
0.167579
-0.10519
0.159366
-0.107749
0.151368
-0.107099
0.143578
-0.103405
0.136123
-0.0972795
0.12949
-0.0877548
0.122773
-0.0738437
0.113806
-0.0590122
0.103096
-0.0465468
0.0951014
-0.0309215
0.0939169
-0.00259568
0.0977963
0.0424256
0.103898
0.101868
0.11019
0.172384
0.116991
0.240383
0.126006
0.274983
0.139099
0.237572
0.153461
0.123903
0.163555
-0.0169356
0.16688
-0.125095
0.163363
-0.186919
0.156371
-0.216149
0.149387
-0.212234
0.140807
-0.190228
0.130303
-0.179724
0.122436
-0.177293
0.120621
-0.130833
0.121627
-0.0239151
0.120264
0.119793
0.116454
0.273213
0.113356
0.350015
0.116223
0.341163
0.124487
0.174891
0.134468
0.0290119
0.141192
-0.130696
-0.178664
0.199993
0.011525
-0.201008
0.199006
0.0111405
0.198089
0.011046
0.197195
0.011095
0.19638
0.0112539
0.19574
0.0115551
0.195348
0.0119905
0.195256
0.0124852
0.195519
0.012937
0.196202
0.0132162
0.197355
0.0131395
0.199006
0.0124744
0.201134
0.010924
0.203644
0.00815275
0.206337
0.0038532
0.20901
-0.00234712
0.211188
-0.0106799
0.212394
-0.0211027
0.212157
-0.0332749
0.210107
-0.0465802
0.206149
-0.0600577
0.200473
-0.0726134
0.193461
-0.08334
0.185604
-0.0915741
0.177365
-0.0969519
0.169098
-0.0994821
0.161102
-0.0991027
0.153433
-0.0957362
0.146029
-0.0898753
0.139342
-0.0810678
0.133205
-0.067707
0.125577
-0.0513845
0.115441
-0.0364104
0.105909
-0.0213897
0.101603
0.00171102
0.103728
0.0403001
0.109755
0.095841
0.117357
0.164782
0.126087
0.231652
0.137663
0.263408
0.153186
0.222049
0.168697
0.108391
0.178487
-0.026725
0.180716
-0.127324
0.17588
-0.182083
0.167518
-0.207787