/*--------------------------------*- C++ -*----------------------------------*\
| =========                 |                                                 |
| \\      /  F ield         | OpenFOAM: The Open Source CFD Toolbox           |
|  \\    /   O peration     | Version:  2512                                  |
|   \\  /    A nd           | Website:  www.openfoam.com                      |
|    \\/     M anipulation  |                                                 |
\*---------------------------------------------------------------------------*/
FoamFile
{
    version     2.0;
    format      ascii;
    arch        "LSB;label=32;scalar=64";
    class       volScalarField;
    location    "44";
    object      p;
}
// * * * * * * * * * * * * * * * * * * * * * * * * * * * * * * * * * * * * * //

dimensions      [0 2 -2 0 0 0 0];

internalField   nonuniform List<scalar> 
13248
(
-0.288692
-0.287178
-0.285091
-0.282603
-0.279916
-0.277239
-0.274728
-0.272488
-0.270573
-0.268988
-0.267701
-0.266641
-0.265712
-0.264797
-0.263772
-0.262511
-0.260902
-0.258851
-0.256282
-0.25318
-0.249431
-0.245238
-0.239866
-0.234365
-0.295354
-0.293259
-0.290589
-0.287525
-0.284274
-0.281055
-0.278024
-0.275267
-0.27281
-0.270628
-0.268651
-0.266779
-0.264892
-0.262868
-0.260591
-0.257963
-0.254912
-0.251394
-0.247389
-0.242897
-0.237912
-0.232477
-0.226424
-0.220477
-0.303467
-0.300599
-0.297226
-0.293522
-0.289666
-0.285872
-0.282275
-0.278925
-0.275805
-0.272847
-0.269948
-0.266993
-0.263868
-0.260477
-0.256749
-0.252645
-0.248156
-0.243296
-0.238095
-0.232595
-0.226805
-0.220802
-0.21448
-0.208316
-0.313177
-0.309338
-0.305148
-0.300738
-0.296224
-0.29179
-0.287528
-0.283428
-0.279423
-0.275409
-0.271276
-0.266928
-0.262297
-0.257349
-0.252086
-0.246537
-0.240749
-0.234777
-0.228669
-0.222466
-0.216183
-0.209875
-0.203453
-0.197409
-0.324557
-0.319567
-0.314454
-0.309271
-0.304023
-0.298833
-0.293725
-0.288624
-0.283419
-0.278006
-0.27231
-0.266301
-0.259993
-0.253433
-0.246694
-0.239851
-0.232977
-0.226127
-0.219337
-0.212628
-0.206003
-0.199484
-0.193017
-0.18694
-0.337593
-0.331304
-0.325188
-0.319164
-0.313068
-0.306931
-0.300694
-0.294234
-0.287439
-0.280257
-0.272705
-0.264854
-0.256812
-0.248696
-0.240618
-0.232662
-0.22489
-0.217332
-0.210001
-0.202894
-0.195999
-0.189311
-0.182789
-0.176674
-0.352167
-0.34448
-0.337305
-0.330356
-0.323236
-0.315855
-0.308095
-0.29983
-0.291023
-0.281742
-0.272132
-0.262377
-0.252654
-0.243113
-0.233861
-0.224962
-0.216442
-0.208302
-0.200527
-0.193093
-0.185973
-0.179143
-0.172576
-0.166403
-0.368009
-0.35889
-0.35062
-0.342622
-0.334208
-0.325175
-0.315402
-0.304857
-0.29366
-0.28205
-0.270308
-0.258696
-0.247421
-0.236616
-0.226352
-0.216651
-0.207502
-0.198873
-0.190726
-0.18302
-0.175715
-0.168776
-0.162182
-0.155962
-0.384669
-0.374153
-0.364754
-0.355518
-0.345434
-0.334246
-0.321941
-0.308693
-0.294848
-0.280824
-0.267003
-0.253675
-0.241017
-0.229117
-0.217991
-0.207614
-0.197936
-0.188902
-0.180452
-0.17253
-0.165087
-0.158079
-0.15148
-0.145239
-0.401477
-0.38966
-0.37908
-0.368328
-0.356111
-0.342237
-0.326946
-0.310716
-0.29414
-0.277773
-0.262035
-0.247183
-0.233333
-0.220504
-0.208654
-0.197715
-0.187606
-0.178247
-0.169565
-0.161489
-0.153959
-0.146928
-0.14035
-0.13412
-0.417546
-0.404564
-0.392701
-0.380073
-0.365217
-0.34818
-0.329594
-0.310286
-0.291058
-0.272535
-0.255106
-0.238949
-0.224097
-0.2105
-0.198063
-0.186679
-0.176241
-0.166652
-0.15782
-0.149666
-0.14212
-0.135126
-0.128606
-0.122449
-0.431844
-0.417881
-0.404608
-0.389697
-0.3717
-0.351097
-0.329026
-0.30666
-0.284948
-0.264502
-0.245624
-0.228389
-0.212738
-0.19855
-0.185683
-0.173996
-0.16336
-0.153659
-0.144789
-0.13666
-0.129197
-0.122331
-0.115956
-0.110003
-0.246783
-0.248543
-0.249681
-0.250462
-0.251127
-0.251738
-0.252324
-0.252904
-0.253485
-0.254066
-0.254641
-0.255199
-0.255732
-0.256228
-0.256675
-0.257061
-0.257373
-0.257601
-0.257734
-0.25777
-0.25771
-0.257569
-0.257391
-0.257094
-0.249099
-0.25065
-0.251668
-0.252387
-0.253022
-0.253635
-0.254257
-0.25491
-0.255601
-0.256332
-0.257099
-0.257897
-0.258718
-0.259554
-0.260394
-0.261227
-0.262037
-0.262809
-0.263527
-0.264175
-0.264742
-0.265218
-0.265605
-0.265951
-0.251947
-0.25322
-0.25407
-0.254689
-0.25526
-0.255842
-0.256469
-0.257161
-0.257932
-0.258782
-0.259712
-0.260718
-0.261796
-0.262939
-0.264136
-0.265376
-0.26664
-0.267904
-0.26914
-0.270319
-0.27141
-0.27236
-0.273118
-0.273908
-0.255152
-0.256101
-0.256745
-0.257227
-0.257694
-0.258203
-0.25879
-0.259479
-0.260281
-0.261204
-0.262247
-0.26341
-0.264689
-0.266079
-0.267571
-0.269149
-0.27079
-0.272464
-0.274126
-0.275729
-0.277219
-0.278504
-0.279401
-0.280092
-0.258536
-0.259147
-0.259558
-0.259865
-0.260183
-0.260567
-0.261057
-0.26168
-0.262451
-0.263377
-0.264463
-0.265708
-0.267109
-0.268662
-0.270356
-0.272173
-0.274086
-0.276054
-0.27802
-0.279912
-0.281651
-0.283105
-0.284008
-0.284645
-0.261947
-0.262234
-0.262396
-0.262491
-0.262608
-0.262805
-0.263128
-0.26361
-0.264269
-0.265117
-0.266158
-0.267392
-0.268818
-0.270428
-0.27221
-0.274143
-0.276194
-0.278312
-0.280429
-0.282452
-0.284272
-0.285736
-0.286555
-0.286415
-0.265286
-0.265287
-0.265192
-0.265038
-0.264898
-0.264839
-0.264918
-0.265174
-0.265634
-0.26631
-0.26721
-0.268335
-0.26968
-0.271236
-0.272986
-0.274904
-0.276947
-0.279058
-0.281154
-0.283126
-0.284845
-0.286092
-0.286923
-0.285554
-0.268531
-0.268292
-0.267939
-0.267499
-0.267044
-0.26666
-0.266415
-0.266363
-0.266535
-0.266952
-0.267621
-0.268545
-0.269715
-0.271119
-0.272727
-0.27451
-0.276414
-0.278369
-0.280278
-0.282015
-0.283482
-0.284233
-0.285166
-0.282531
-0.271751
-0.271316
-0.270696
-0.26993
-0.269107
-0.268332
-0.267696
-0.267262
-0.267075
-0.267161
-0.267529
-0.26818
-0.2691
-0.270267
-0.271652
-0.2732
-0.274844
-0.2765
-0.278064
-0.279379
-0.280462
-0.280534
-0.281416
-0.277964
-0.275109
-0.274496
-0.273589
-0.272456
-0.271216
-0.27
-0.268919
-0.268054
-0.267459
-0.267166
-0.267185
-0.267513
-0.268127
-0.26899
-0.270052
-0.271241
-0.272472
-0.273644
-0.274656
-0.275344
-0.275826
-0.275253
-0.275697
-0.272087
-0.278853
-0.278036
-0.276802
-0.275256
-0.273555
-0.271858
-0.270298
-0.268972
-0.267937
-0.267233
-0.266864
-0.266815
-0.267047
-0.267501
-0.268099
-0.268746
-0.269335
-0.269754
-0.269901
-0.269667
-0.269147
-0.267908
-0.26745
-0.264133
-0.283282
-0.282181
-0.280555
-0.278548
-0.276348
-0.274144
-0.272086
-0.270279
-0.268795
-0.267655
-0.266854
-0.266354
-0.266093
-0.26598
-0.26591
-0.265764
-0.265419
-0.264761
-0.263683
-0.262142
-0.260089
-0.257633
-0.25532
-0.252396
-0.256717
-0.25585
-0.254691
-0.253178
-0.251262
-0.248928
-0.24619
-0.243108
-0.239792
-0.236402
-0.233154
-0.230311
-0.228137
-0.226831
-0.22648
-0.227039
-0.228128
-0.229043
-0.228748
-0.22603
-0.220368
-0.210727
-0.197197
-0.18072
-0.163129
-0.147032
-0.134889
-0.128121
-0.126592
-0.12737
-0.12613
-0.117269
-0.103522
-0.0826694
-0.0594341
-0.0374795
-0.018971
-0.00471584
0.00517491
0.0109548
0.0134245
0.0140546
0.0139754
0.0143307
0.0151259
0.0160213
0.0165717
0.0165707
0.0158718
0.0146548
0.0129801
0.0112912
0.0096221
0.00828236
0.00701141
0.00597169
0.00474338
0.00367742
0.00213329
0.000950303
-0.266473
-0.266006
-0.265072
-0.263544
-0.261306
-0.258283
-0.254436
-0.24978
-0.24439
-0.238394
-0.232001
-0.225529
-0.219343
-0.213765
-0.209069
-0.20541
-0.202703
-0.200559
-0.198234
-0.194834
-0.190196
-0.183147
-0.17386
-0.163048
-0.152277
-0.143668
-0.139313
-0.139927
-0.144202
-0.14862
-0.148258
-0.140029
-0.119653
-0.0940415
-0.0665738
-0.0411608
-0.0200063
-0.0037418
0.00778202
0.0149337
0.0183359
0.0191554
0.0186002
0.0179654
0.0175973
0.0174834
0.0172387
0.0166487
0.0155238
0.0140295
0.0122228
0.0105373
0.00898177
0.00779884
0.00669993
0.00579894
0.00469316
0.00369646
0.00219234
0.00099426
-0.275752
-0.275552
-0.274877
-0.273386
-0.270887
-0.267255
-0.262392
-0.25627
-0.248928
-0.240441
-0.231
-0.220981
-0.210895
-0.201132
-0.192139
-0.184272
-0.177704
-0.172368
-0.167844
-0.163342
-0.159526
-0.154712
-0.149466
-0.144313
-0.140456
-0.139383
-0.142688
-0.150224
-0.159754
-0.167207
-0.167242
-0.156535
-0.133473
-0.103949
-0.0729249
-0.0446575
-0.0213401
-0.00343833
0.00942084
0.0177624
0.0221477
0.0234699
0.0228232
0.0215137
0.0201399
0.0190482
0.0179571
0.0167101
0.0151131
0.0133344
0.0114207
0.00977225
0.00835707
0.00733948
0.00640697
0.00563294
0.00463772
0.00370109
0.00224229
0.00102572
-0.284577
-0.283657
-0.283345
-0.281948
-0.279297
-0.275206
-0.269518
-0.262162
-0.253136
-0.242437
-0.230238
-0.216951
-0.203384
-0.189787
-0.17682
-0.165017
-0.154782
-0.146343
-0.139714
-0.134732
-0.13071
-0.127671
-0.126042
-0.12627
-0.128883
-0.134767
-0.145064
-0.158637
-0.172614
-0.18251
-0.182729
-0.170398
-0.14503
-0.112441
-0.0786321
-0.048155
-0.0231581
-0.00395666
0.00998857
0.0193407
0.0246776
0.0266921
0.0262944
0.0246605
0.0225491
0.0205901
0.018664
0.0167372
0.0146564
0.012611
0.0106248
0.0090414
0.00778332
0.00692675
0.00614401
0.00547906
0.00457781
0.00369052
0.00227969
0.00104219
-0.289659
-0.290346
-0.289851
-0.288557
-0.285916
-0.281568
-0.275306
-0.267005
-0.256611
-0.244091
-0.22961
-0.213481
-0.197327
-0.180422
-0.164029
-0.148806
-0.135336
-0.124083
-0.115355
-0.109158
-0.105408
-0.103975
-0.105177
-0.110324
-0.11824
-0.130094
-0.146207
-0.164666
-0.182228
-0.194116
-0.194722
-0.181346
-0.154275
-0.119535
-0.0837718
-0.051736
-0.0255161
-0.00531678
0.00950616
0.0197061
0.0259064
0.0286782
0.0287561
0.0271229
0.0245809
0.0219323
0.0192593
0.0166944
0.0141654
0.0118982
0.00987963
0.0083772
0.00728406
0.00657078
0.0059132
0.00533688
0.00451169
0.00366355
0.00230134
0.00104282
-0.292824
-0.294457
-0.293805
-0.292488
-0.289955
-0.285575
-0.279044
-0.270187
-0.258904
-0.245204
-0.229261
-0.211465
-0.192676
-0.173289
-0.1542
-0.13623
-0.12013
-0.10655
-0.0959905
-0.0887882
-0.0851073
-0.0848355
-0.088446
-0.0965728
-0.108886
-0.125498
-0.145951
-0.168048
-0.18831
-0.201813
-0.203198
-0.189242
-0.161199
-0.125251
-0.0883802
-0.0554117
-0.0283795
-0.00743935
0.00808874
0.0189991
0.0259531
0.0294622
0.0301215
0.0287236
0.026033
0.0229146
0.0196505
0.0165526
0.0136558
0.0112314
0.00921836
0.00779965
0.00685988
0.00627032
0.0057104
0.0052024
0.00443655
0.00361919
0.00230509
0.00102858
-0.293
-0.295525
-0.294844
-0.293434
-0.291044
-0.286775
-0.28022
-0.271204
-0.259595
-0.245373
-0.228701
-0.20996
-0.189776
-0.168803
-0.147912
-0.128006
-0.109951
-0.0945256
-0.0823836
-0.0740687
-0.0701422
-0.0705293
-0.0756509
-0.0858918
-0.101136
-0.120956
-0.144297
-0.168795
-0.19089
-0.20562
-0.207846
-0.194005
-0.165819
-0.12962
-0.0924641
-0.0591425
-0.0316598
-0.0101934
0.00590246
0.0174149
0.0250196
0.0292028
0.0304645
0.0294391
0.0268178
0.0234567
0.0197943
0.0163104
0.0131531
0.0106411
0.00865794
0.00742111
0.00651396
0.00601814
0.00552878
0.00507064
0.00434996
0.0035573
0.00229018
0.00100184
-0.290151
-0.293081
-0.292462
-0.291086
-0.288988
-0.285004
-0.278716
-0.269949
-0.258541
-0.244445
-0.227791
-0.2089
-0.188301
-0.166677
-0.144882
-0.123851
-0.104517
-0.0877607
-0.074377
-0.0650793
-0.0605795
-0.0610147
-0.0667651
-0.0780725
-0.0948414
-0.116409
-0.141342
-0.167127
-0.190237
-0.205838
-0.208821
-0.195644
-0.168167
-0.132649
-0.0959766
-0.0628229
-0.0352084
-0.0134041
0.00314149
0.0151654
0.0233358
0.0281242
0.0299629
0.0293741
0.0269762
0.0235746
0.0197085
0.0159963
0.0126892
0.0101504
0.00819827
0.00704314
0.00623583
0.00580438
0.00536145
0.00493751
0.00425093
0.00347897
0.00225736
0.000965773
-0.28462
-0.287044
-0.286518
-0.28528
-0.283695
-0.280252
-0.274599
-0.266498
-0.255765
-0.242364
-0.226405
-0.208136
-0.187996
-0.16661
-0.144776
-0.123401
-0.103428
-0.0857942
-0.071403
-0.0610978
-0.0557797
-0.0557403
-0.0613034
-0.0726984
-0.0898001
-0.111847
-0.137221
-0.163348
-0.186778
-0.202816
-0.206543
-0.194396
-0.168354
-0.134361
-0.0988707
-0.0663526
-0.03889
-0.0169138
-1.88084e-05
0.0124439
0.0211108
0.0264466
0.0288295
0.0287009
0.0266256
0.0233468
0.0194485
0.0156509
0.0122899
0.00976388
0.00785044
0.00675153
0.00601328
0.00561904
0.00520302
0.00480077
0.00414012
0.00338649
0.0022088
0.000923804
-0.276761
-0.277967
-0.278231
-0.278066
-0.275462
-0.27239
-0.267718
-0.260749
-0.251182
-0.239006
-0.224327
-0.207334
-0.188372
-0.167983
-0.146874
-0.125882
-0.105919
-0.0879248
-0.0728564
-0.0617082
-0.0550966
-0.054103
-0.0587906
-0.0694216
-0.0858625
-0.107339
-0.132189
-0.157867
-0.180942
-0.197212
-0.201508
-0.190793
-0.166852
-0.135095
-0.101402
-0.0699378
-0.0428547
-0.0208076
-0.00359717
0.00929526
0.0184422
0.0243032
0.0272223
0.0275871
0.0259092
0.0228694
0.0190765
0.0153093
0.0119657
0.00945954
0.00761358
0.00653669
0.00583409
0.00545413
0.00504998
0.00465981
0.0040194
0.00328291
0.00214766
0.000879223
-0.26621
-0.266923
-0.268286
-0.268712
-0.267338
-0.263698
-0.259525
-0.253805
-0.245679
-0.235055
-0.222009
-0.206658
-0.189268
-0.170304
-0.150404
-0.130287
-0.11073
-0.0926282
-0.0769732
-0.0648415
-0.0573731
-0.0552648
-0.0585047
-0.0676892
-0.0827115
-0.102865
-0.126532
-0.151184
-0.17365
-0.189168
-0.193985
-0.185169
-0.164048
-0.135199
-0.103793
-0.0737267
-0.0472079
-0.0251609
-0.00764037
0.00570603
0.015356
0.0217524
0.025219
0.0261061
0.0249599
0.0222179
0.01864
0.0149959
0.0117208
0.00921331
0.00743944
0.00638139
0.00568758
0.00530374
0.00490009
0.00451474
0.00389065
0.00317088
0.00207692
0.000834816
-0.253836
-0.2555
-0.256703
-0.256288
-0.255145
-0.253307
-0.249464
-0.244383
-0.237792
-0.229155
-0.21836
-0.205377
-0.190335
-0.17356
-0.155555
-0.136973
-0.118569
-0.101156
-0.0855393
-0.0723893
-0.0632143
-0.0593648
-0.0608485
-0.0678177
-0.0804783
-0.0982036
-0.119528
-0.142159
-0.163482
-0.178912
-0.183722
-0.17675
-0.158588
-0.132784
-0.103842
-0.075454
-0.0499241
-0.0283413
-0.0109169
0.00256181
0.0124731
0.019217
0.0230976
0.0244159
0.023751
0.0213515
0.0180921
0.0146565
0.0115054
0.00904693
0.00729168
0.00624548
0.00555078
0.00515678
0.00474974
0.00436559
0.00375577
0.00305251
0.00199846
0.000792277
-0.240633
-0.247122
-0.247692
-0.246465
-0.245344
-0.244026
-0.241578
-0.236976
-0.230024
-0.221711
-0.211702
-0.199718
-0.185825
-0.17031
-0.153614
-0.136302
-0.119035
-0.102566
-0.0876356
-0.0750761
-0.0664558
-0.0624073
-0.0631739
-0.0692322
-0.0807591
-0.097217
-0.117181
-0.138438
-0.158349
-0.171904
-0.176068
-0.168974
-0.151521
-0.127156
-0.0999886
-0.0733335
-0.0492494
-0.0287253
-0.0119965
0.00107995
0.0108065
0.0175255
0.0215248
0.0230909
0.0226154
0.0204794
0.0174208
0.0141553
0.0111264
0.00875249
0.00707607
0.00606877
0.00539163
0.00500099
0.00460005
0.00421981
0.00362584
0.0029378
0.00192007
0.00075357
-0.226856
-0.235779
-0.236632
-0.234513
-0.232514
-0.230621
-0.227722
-0.22321
-0.217606
-0.210336
-0.201292
-0.190473
-0.177986
-0.164075
-0.149114
-0.133587
-0.118079
-0.103257
-0.0898171
-0.0786923
-0.0708067
-0.0669226
-0.0675128
-0.0729475
-0.0833061
-0.0980646
-0.115868
-0.134577
-0.151152
-0.162906
-0.165723
-0.15844
-0.142162
-0.119896
-0.0951309
-0.0706925
-0.0483897
-0.0291488
-0.0132639
-0.000683275
0.00880397
0.0154721
0.019559
0.0213202
0.0210677
0.0192904
0.0165656
0.0135687
0.0107408
0.0085086
0.00690737
0.0059199
0.00524831
0.00484985
0.00444681
0.00406567
0.00348615
0.00281351
0.00183547
0.000710951
-0.212937
-0.222748
-0.224033
-0.221626
-0.219176
-0.217165
-0.214668
-0.211033
-0.205979
-0.19934
-0.19116
-0.181489
-0.170401
-0.158085
-0.14485
-0.131109
-0.117378
-0.104246
-0.0923418
-0.0824625
-0.0753819
-0.0718325
-0.0722829
-0.0770087
-0.0860152
-0.0987666
-0.113996
-0.129758
-0.143474
-0.152687
-0.154272
-0.147257
-0.132585
-0.112675
-0.0903917
-0.0681492
-0.0475804
-0.029591
-0.0145442
-0.00247579
0.00674114
0.0133184
0.0174529
0.0193824
0.019408
0.0179802
0.0156002
0.0129084
0.0103209
0.00824854
0.00672322
0.00575824
0.00509204
0.00468432
0.00427871
0.00389685
0.00333293
0.00267832
0.00174326
0.00066592
-0.19942
-0.209093
-0.210859
-0.208727
-0.206294
-0.20439
-0.202286
-0.199161
-0.194635
-0.188693
-0.181427
-0.172903
-0.16318
-0.152403
-0.140823
-0.128793
-0.116756
-0.105216
-0.094739
-0.0860014
-0.0796889
-0.0764068
-0.0765719
-0.080409
-0.087875
-0.098451
-0.111025
-0.123957
-0.135027
-0.142059
-0.14275
-0.136233
-0.123198
-0.105559
-0.0856616
-0.0655582
-0.046709
-0.0299864
-0.0158052
-0.00427869
0.00464288
0.0111111
0.0152849
0.0173868
0.0176905
0.0165963
0.0145676
0.0121922
0.00985651
0.00794866
0.0065095
0.00557425
0.0049177
0.00450386
0.00409853
0.00371808
0.00317172
0.00253779
0.00164761
0.000621033
-0.185964
-0.19538
-0.197649
-0.19602
-0.193827
-0.192077
-0.190237
-0.187531
-0.183586
-0.178393
-0.172043
-0.164616
-0.156174
-0.146833
-0.136794
-0.126354
-0.115891
-0.105838
-0.0966968
-0.0890336
-0.0834046
-0.080313
-0.0801223
-0.0830167
-0.0889254
-0.0973869
-0.107469
-0.117766
-0.126448
-0.131646
-0.131639
-0.125657
-0.114179
-0.0986827
-0.081048
-0.0629931
-0.0458133
-0.0303442
-0.0170393
-0.00607667
0.00252699
0.00886893
0.0130725
0.015337
0.0159013
0.015138
0.013465
0.0114115
0.00933623
0.00760132
0.00626025
0.0053637
0.00472306
0.00430772
0.00390627
0.00352989
0.00300337
0.00239275
0.0015494
0.000576512
-0.172833
-0.182001
-0.184651
-0.183529
-0.181661
-0.180113
-0.178534
-0.176256
-0.172916
-0.168473
-0.163012
-0.156612
-0.149341
-0.141318
-0.13269
-0.123708
-0.114697
-0.106007
-0.0980853
-0.0913819
-0.0863566
-0.0834255
-0.082893
-0.0849013
-0.0893701
-0.0959029
-0.103722
-0.111644
-0.118186
-0.121841
-0.121266
-0.115801
-0.105743
-0.0921961
-0.0766363
-0.0604912
-0.0449019
-0.0306567
-0.0182295
-0.00784751
0.000417579
0.00661424
0.0108313
0.0132411
0.014055
0.0136156
0.0122939
0.0105628
0.00875398
0.00720081
0.00596924
0.00512175
0.00450481
0.00409385
0.00370069
0.00333167
0.00282771
0.00224329
0.001449
0.00053246
-0.160389
-0.169094
-0.171968
-0.171311
-0.169815
-0.168533
-0.16725
-0.165405
-0.162651
-0.158925
-0.154298
-0.148857
-0.142679
-0.135834
-0.12848
-0.120816
-0.113097
-0.105657
-0.0988241
-0.0929789
-0.0884985
-0.0857199
-0.084888
-0.0861101
-0.0893047
-0.0941343
-0.0999517
-0.105807
-0.11052
-0.112884
-0.111841
-0.106829
-0.0980054
-0.0861687
-0.0724682
-0.0580758
-0.0439833
-0.0309201
-0.0193627
-0.00957208
-0.00166369
0.00436834
0.00858098
0.0111199
0.0121707
0.0120414
0.0110605
0.00964791
0.00810743
0.00674305
0.00563169
0.00484436
0.00426002
0.00386046
0.00348077
0.00312312
0.00264488
0.0020898
0.00134689
0.000489104
-0.148549
-0.156683
-0.159697
-0.159468
-0.158361
-0.157383
-0.156415
-0.154988
-0.152783
-0.149725
-0.145871
-0.141309
-0.136109
-0.130348
-0.124143
-0.117661
-0.111116
-0.104769
-0.098904
-0.0938252
-0.0898357
-0.0872038
-0.086123
-0.0866724
-0.0887752
-0.0921495
-0.0962729
-0.100384
-0.103566
-0.104855
-0.103414
-0.098771
-0.0909848
-0.080623
-0.0685662
-0.0557639
-0.043065
-0.0311316
-0.0204276
-0.0112336
-0.00369707
0.00215201
0.0063424
0.00899282
0.0102637
0.0104269
0.0097727
0.0086708
0.007397
0.00622665
0.00524506
0.00452895
0.00398664
0.00360626
0.00324581
0.00290411
0.00245503
0.00193263
0.00124342
0.000446553
-0.137259
-0.144857
-0.147954
-0.148096
-0.147362
-0.146692
-0.146035
-0.145
-0.1433
-0.140854
-0.137712
-0.13395
-0.129638
-0.124845
-0.119665
-0.114234
-0.108726
-0.103351
-0.0983421
-0.093943
-0.0903942
-0.0879069
-0.0866321
-0.0866275
-0.0878246
-0.0899872
-0.0927121
-0.0953894
-0.0973076
-0.0977069
-0.0959289
-0.0915796
-0.0846573
-0.0755553
-0.0649383
-0.0535653
-0.0421527
-0.0312896
-0.0214154
-0.0128173
-0.00566427
-1.49771e-05
0.00413475
0.00687715
0.00834808
0.00878405
0.00843946
0.00763712
0.00662553
0.0056524
0.0048086
0.00417416
0.00368327
0.00333024
0.00299515
0.0026744
0.00225818
0.00177198
0.00113874
0.000404779
-0.126651
-0.133698
-0.136802
-0.137248
-0.136851
-0.136475
-0.136112
-0.135436
-0.134193
-0.132304
-0.129805
-0.126766
-0.123249
-0.119315
-0.115042
-0.110538
-0.105942
-0.101424
-0.0971683
-0.0933702
-0.0902187
-0.0878781
-0.0864651
-0.086022
-0.0864891
-0.0876773
-0.0892574
-0.0907752
-0.0916675
-0.0913438
-0.0892892
-0.0851788
-0.0789754
-0.0709444
-0.0615812
-0.0514848
-0.0412505
-0.0313932
-0.0223188
-0.0143102
-0.00754866
-0.00211442
0.00197577
0.00478922
0.00643829
0.00712505
0.00707047
0.00655396
0.00579755
0.00502265
0.00432285
0.0037795
0.00334902
0.00303164
0.00272819
0.00243374
0.00205424
0.00160791
0.00103281
0.000363685
-0.116749
-0.123209
-0.126261
-0.126952
-0.126853
-0.126743
-0.126647
-0.126294
-0.12546
-0.124068
-0.122143
-0.119747
-0.116934
-0.113758
-0.11028
-0.106587
-0.102789
-0.0990195
-0.095425
-0.0921585
-0.0893671
-0.0871776
-0.0856783
-0.0848997
-0.0847907
-0.0852039
-0.085885
-0.08648
-0.0865565
-0.0856601
-0.0833902
-0.0794818
-0.0738799
-0.0667597
-0.0584853
-0.0495233
-0.0403615
-0.0314422
-0.0231321
-0.0157014
-0.00933552
-0.00412968
-0.000117713
0.00274502
0.00454859
0.00546239
0.00567609
0.00542937
0.0049188
0.00434091
0.00378942
0.00334524
0.00298352
0.00270992
0.00244443
0.00218186
0.00184308
0.00144039
0.000925554
0.000323139
-0.107487
-0.113382
-0.116347
-0.11723
-0.117383
-0.117506
-0.117645
-0.117575
-0.117098
-0.116141
-0.114722
-0.112889
-0.110693
-0.108178
-0.105392
-0.102404
-0.0992994
-0.0961812
-0.0931645
-0.0903677
-0.0879043
-0.0858703
-0.0843306
-0.0833089
-0.0827647
-0.0825833
-0.0825672
-0.0824451
-0.0818899
-0.0805545
-0.0781292
-0.074401
-0.0693093
-0.0629662
-0.0556363
-0.0476787
-0.0394876
-0.0314369
-0.0238511
-0.0169821
-0.0110121
-0.00604571
-0.00212997
0.000759855
0.00269303
0.00380863
0.00426717
0.00427221
0.00399601
0.00361171
0.00321082
0.00287242
0.00258689
0.00236485
0.00214358
0.00191855
0.00162458
0.00126934
0.00081684
0.000282987
-0.0988562
-0.104223
-0.107072
-0.108095
-0.108454
-0.108773
-0.10911
-0.10928
-0.109108
-0.108525
-0.107541
-0.106197
-0.104534
-0.102589
-0.100401
-0.0980199
-0.0955129
-0.0929588
-0.0904456
-0.0880636
-0.0858993
-0.0840241
-0.0824868
-0.0813025
-0.0804463
-0.0798217
-0.079281
-0.0786201
-0.0775924
-0.0759356
-0.0734126
-0.0698546
-0.065203
-0.059527
-0.053017
-0.0459463
-0.0386294
-0.0313777
-0.0244733
-0.0181452
-0.0125677
-0.00784936
-0.0040467
-0.00115193
0.000885246
0.00217636
0.00285496
0.00309202
0.00303674
0.00284042
0.00259042
0.00236275
0.0021598
0.00199654
0.00182552
0.0016437
0.00139864
0.0010947
0.000706546
0.000243074
-0.090864
-0.095721
-0.0984262
-0.0995423
-0.100064
-0.100542
-0.101041
-0.101407
-0.101489
-0.101221
-0.100606
-0.099678
-0.0984701
-0.0970116
-0.0953326
-0.0934711
-0.0914763
-0.0894079
-0.0873318
-0.0853163
-0.0834252
-0.0817104
-0.080213
-0.0789435
-0.0778719
-0.0769315
-0.0760135
-0.0749645
-0.0736001
-0.0717241
-0.0691572
-0.0657678
-0.0615031
-0.0564045
-0.0506079
-0.0443191
-0.0377864
-0.0312653
-0.0249971
-0.0191859
-0.013994
-0.00952957
-0.00585529
-0.00297717
-0.000861713
0.000578006
0.00145094
0.00189883
0.00204928
0.00203328
0.00193242
0.00181869
0.00170351
0.00160549
0.00149046
0.00135734
0.00116527
0.000916387
0.000594572
0.000203249
-0.0834721
-0.0878446
-0.09039
-0.0915619
-0.0922069
-0.0928083
-0.0934341
-0.0939561
-0.0942426
-0.0942324
-0.0939245
-0.0933443
-0.0925188
-0.0914704
-0.0902215
-0.0887996
-0.0872405
-0.0855878
-0.0838901
-0.082198
-0.0805584
-0.07901
-0.0775807
-0.0762778
-0.0750768
-0.0739303
-0.0727582
-0.0714465
-0.0698595
-0.067852
-0.06529
-0.0620727
-0.0581551
-0.0535614
-0.0483877
-0.0427882
-0.0369567
-0.0311004
-0.0254224
-0.0201013
-0.0152849
-0.0110776
-0.00754509
-0.00470412
-0.00253569
-0.000974373
6.66087e-05
0.000703061
0.00104253
0.00119723
0.00124181
0.00124344
0.0012199
0.00119269
0.00113888
0.00105967
0.000924566
0.000734383
0.000480858
0.000163386
-0.0766403
-0.0805655
-0.0829438
-0.0841399
-0.0848728
-0.0855648
-0.0862831
-0.0869225
-0.0873684
-0.0875644
-0.0875056
-0.087211
-0.0867014
-0.0859938
-0.0851038
-0.0840505
-0.082859
-0.0815601
-0.080189
-0.0787816
-0.0773721
-0.0759924
-0.0746537
-0.0733619
-0.0721015
-0.0708385
-0.0695131
-0.0680423
-0.0663273
-0.064262
-0.0617479
-0.0587089
-0.0551089
-0.0509614
-0.0463346
-0.0413433
-0.0361376
-0.0308836
-0.02575
-0.0208904
-0.0164367
-0.0124871
-0.00910753
-0.00632271
-0.00412565
-0.00246936
-0.00128669
-0.000484663
2.58767e-05
0.00033991
0.000524373
0.000640956
0.000711545
0.000759616
0.000771663
0.000751161
0.000676783
0.000548748
0.000365391
0.000123379
-0.0703415
-0.0738545
-0.0760613
-0.0772549
-0.0780448
-0.0787977
-0.0795786
-0.0803009
-0.0808656
-0.0812208
-0.081359
-0.0812936
-0.0810404
-0.0806115
-0.0800172
-0.0792697
-0.0783858
-0.0773864
-0.0762958
-0.0751391
-0.0739404
-0.0727195
-0.0714906
-0.0702495
-0.0689871
-0.0676787
-0.0662811
-0.0647347
-0.0629686
-0.0609064
-0.0584767
-0.0556234
-0.0523186
-0.04857
-0.0444264
-0.039973
-0.0353255
-0.0306155
-0.0259816
-0.0215538
-0.0174479
-0.013754
-0.0105363
-0.0078247
-0.00562192
-0.00389641
-0.00259805
-0.00165374
-0.00099099
-0.00053049
-0.000213434
1.59081e-05
0.000181652
0.000308321
0.000390102
0.00043254
0.000422342
0.000359649
0.000248234
8.31553e-05
-0.0645441
-0.0676769
-0.0697113
-0.0708817
-0.0717027
-0.0724912
-0.0733087
-0.0740839
-0.0747316
-0.0752048
-0.075494
-0.0756081
-0.0755586
-0.0753537
-0.0749994
-0.0745028
-0.073874
-0.0731263
-0.072276
-0.0713396
-0.0703334
-0.06927
-0.0681579
-0.0669948
-0.0657732
-0.0644747
-0.0630685
-0.0615125
-0.0597565
-0.0577462
-0.0554308
-0.05277
-0.0497432
-0.0463553
-0.0426417
-0.0386657
-0.0345161
-0.0302966
-0.0261196
-0.0220937
-0.0183191
-0.0148766
-0.0118272
-0.00920378
-0.00701637
-0.00524604
-0.00385718
-0.0027938
-0.00199824
-0.00140536
-0.000964538
-0.000626332
-0.000365897
-0.000158577
-4.06176e-06
0.000104884
0.000161874
0.000167361
0.000129525
4.26885e-05
-0.0592124
-0.0619979
-0.0638631
-0.0649945
-0.0658254
-0.0666282
-0.0674601
-0.0682628
-0.0689631
-0.0695187
-0.069919
-0.0701694
-0.0702778
-0.0702494
-0.0700869
-0.0697934
-0.069374
-0.0688364
-0.0681904
-0.0674463
-0.0666144
-0.0657024
-0.0647141
-0.0636481
-0.0624984
-0.0612511
-0.0598848
-0.0583697
-0.0566708
-0.0547503
-0.0525727
-0.0501097
-0.0473471
-0.0442886
-0.0409604
-0.0374099
-0.0337052
-0.0299273
-0.0261668
-0.0225135
-0.0190525
-0.0158552
-0.0129783
-0.0104556
-0.00830248
-0.00651002
-0.00505467
-0.00389492
-0.00298614
-0.00227586
-0.0017214
-0.00127978
-0.00092659
-0.000637896
-0.000408648
-0.000230371
-0.000103701
-2.76587e-05
9.46928e-06
1.97846e-06
-0.0543136
-0.0567838
-0.0584855
-0.0595662
-0.0603898
-0.0611897
-0.062018
-0.0628272
-0.0635549
-0.0641632
-0.0646409
-0.0649909
-0.0652182
-0.0653256
-0.0653134
-0.0651818
-0.0649324
-0.0645685
-0.0640952
-0.0635182
-0.062843
-0.0620739
-0.0612121
-0.0602555
-0.0591991
-0.0580328
-0.0567415
-0.0553045
-0.0536977
-0.051895
-0.0498722
-0.0476103
-0.0451
-0.0423447
-0.0393644
-0.0361949
-0.0328885
-0.0295084
-0.026127
-0.0228176
-0.019652
-0.0166922
-0.0139895
-0.0115777
-0.00947546
-0.00768153
-0.00618212
-0.00494783
-0.00394522
-0.00313307
-0.00247617
-0.00193798
-0.00149536
-0.00112586
-0.000820994
-0.00057148
-0.000373245
-0.000224708
-0.000111553
-3.89427e-05
-0.0498181
-0.0520025
-0.0535477
-0.0545698
-0.055373
-0.0561564
-0.056967
-0.0577662
-0.0585008
-0.0591374
-0.0596648
-0.0600837
-0.0603973
-0.0606062
-0.0607094
-0.0607047
-0.0605914
-0.0603697
-0.0600413
-0.0596082
-0.0590731
-0.0584373
-0.0577003
-0.0568591
-0.0559095
-0.0548441
-0.053652
-0.052319
-0.0508286
-0.049163
-0.0473064
-0.0452461
-0.042977
-0.0405023
-0.037838
-0.0350113
-0.0320625
-0.029041
-0.0260042
-0.0230116
-0.0201229
-0.0173914
-0.0148629
-0.0125697
-0.0105323
-0.00875525
-0.00723235
-0.00594412
-0.00486656
-0.00396823
-0.00322083
-0.00259407
-0.00206669
-0.00161825
-0.00123793
-0.000916219
-0.000645376
-0.000423046
-0.000233051
-7.99101e-05
-0.0456972
-0.0476235
-0.0490206
-0.0499792
-0.0507524
-0.0515092
-0.0522914
-0.0530679
-0.0537937
-0.0544393
-0.0549939
-0.055457
-0.0558299
-0.0561122
-0.0563014
-0.0563944
-0.0563885
-0.0562818
-0.0560739
-0.0557642
-0.0553529
-0.0548392
-0.0542218
-0.0534973
-0.0526616
-0.0517086
-0.0506308
-0.0494181
-0.0480595
-0.046543
-0.0448584
-0.0429978
-0.0409586
-0.0387446
-0.0363686
-0.0338515
-0.0312248
-0.0285268
-0.0258032
-0.0231017
-0.0204717
-0.0179584
-0.015602
-0.0134327
-0.0114717
-0.00972745
-0.00819955
-0.00687644
-0.00574192
-0.00477297
-0.00394746
-0.00324101
-0.00263466
-0.00211041
-0.00165599
-0.00126202
-0.000918181
-0.000621603
-0.000354614
-0.000120788
-0.0419243
-0.0436185
-0.0448768
-0.0457695
-0.0465062
-0.0472293
-0.0479757
-0.0487204
-0.0494254
-0.0500652
-0.0506296
-0.051117
-0.0515277
-0.0518604
-0.0521119
-0.0522782
-0.0523556
-0.0523411
-0.0522322
-0.0520271
-0.0517239
-0.0513209
-0.0508159
-0.0502052
-0.0494847
-0.0486492
-0.0476931
-0.0466094
-0.0453907
-0.0440288
-0.0425173
-0.0408514
-0.0390308
-0.037059
-0.0349466
-0.0327102
-0.0303743
-0.0279686
-0.0255294
-0.023095
-0.0207059
-0.0183999
-0.0162121
-0.0141698
-0.0122941
-0.010596
-0.00907933
-0.00773863
-0.006564
-0.0055395
-0.00464841
-0.00387182
-0.0031932
-0.00259727
-0.00207124
-0.00160617
-0.00118979
-0.000818866
-0.000475293
-0.000161463
-0.0384761
-0.039962
-0.0410914
-0.0419179
-0.0426141
-0.043299
-0.0440049
-0.0447116
-0.0453876
-0.0460107
-0.0465716
-0.0470681
-0.0474996
-0.0478644
-0.0481589
-0.0483787
-0.0485196
-0.0485775
-0.0485493
-0.0484319
-0.0482225
-0.0479182
-0.0475166
-0.0470138
-0.0464056
-0.0456874
-0.0448547
-0.0439024
-0.0428254
-0.0416182
-0.0402768
-0.0387985
-0.0371841
-0.035437
-0.0335661
-0.0315844
-0.0295113
-0.0273701
-0.0251893
-0.0229996
-0.020834
-0.018724
-0.0166996
-0.0147855
-0.0130017
-0.0113606
-0.00986886
-0.00852585
-0.0073265
-0.00626075
-0.00531644
-0.0044796
-0.00373623
-0.00307374
-0.00247942
-0.00194524
-0.001458
-0.00101385
-0.000594251
-0.000201399
-0.0353317
-0.0366314
-0.0376419
-0.0384036
-0.0390573
-0.0397018
-0.0403646
-0.0410299
-0.0416714
-0.0422702
-0.042818
-0.0433122
-0.0437517
-0.0441344
-0.0444567
-0.0447141
-0.044902
-0.0450162
-0.0450527
-0.0450081
-0.0448788
-0.0446615
-0.0443534
-0.0439505
-0.0434486
-0.0428433
-0.042131
-0.0413077
-0.0403697
-0.0393131
-0.0381355
-0.0368353
-0.0354139
-0.0338744
-0.0322243
-0.030474
-0.0286387
-0.0267366
-0.0247904
-0.0228244
-0.0208655
-0.0189397
-0.0170725