/*--------------------------------*- C++ -*----------------------------------*\
| =========                 |                                                 |
| \\      /  F ield         | OpenFOAM: The Open Source CFD Toolbox           |
|  \\    /   O peration     | Version:  2512                                  |
|   \\  /    A nd           | Website:  www.openfoam.com                      |
|    \\/     M anipulation  |                                                 |
\*---------------------------------------------------------------------------*/
FoamFile
{
    version     2.0;
    format      ascii;
    arch        "LSB;label=32;scalar=64";
    class       surfaceScalarField;
    location    "34";
    object      phi;
}
// * * * * * * * * * * * * * * * * * * * * * * * * * * * * * * * * * * * * * //

dimensions      [0 3 -1 0 0 0 0];

oriented        oriented;

internalField   nonuniform List<scalar> 
26232
(
2.6941e-05
0.000953897
-0.000980838
0.000269097
0.00189841
-0.00214056
0.00087084
0.00203324
-0.00263499
0.0019696
0.00141508
-0.00251384
0.00370247
7.7322e-05
-0.0018102
0.00620825
-0.00196301
-0.000542761
0.00962332
-0.00469654
0.00128147
0.014075
-0.00811475
0.00366309
0.0196701
-0.0121994
0.00660431
0.0264821
-0.0169144
0.0101024
0.0345381
-0.0222001
0.014144
0.0438092
-0.0279715
0.0187005
0.0542045
-0.0341208
0.0237255
0.0655729
-0.0405229
0.0291545
0.0777096
-0.0470438
0.0349071
0.0903691
-0.0535501
0.0408906
0.103282
-0.0599184
0.0470056
0.116174
-0.0660441
0.0531524
0.128784
-0.0718441
0.0592339
0.140888
-0.0772771
0.0651727
0.152296
-0.0822951
0.0708869
0.162892
-0.0869833
0.0763878
0.172566
-0.0911869
0.0815127
-0.0953748
0.0870266
0.180914
7.06179e-05
0.000883279
0.000468918
0.00150011
0.0013659
0.00113627
0.00292479
-0.000143808
0.00530633
-0.00230422
0.00866431
-0.00532099
0.0131366
-0.00916885
0.0188297
-0.0138078
0.0258016
-0.0191713
0.0340463
-0.0251591
0.0434835
-0.0316373
0.0539573
-0.0384453
0.0652432
-0.0454068
0.0770657
-0.0523453
0.0891201
-0.0590981
0.101099
-0.0655294
0.112721
-0.0715396
0.123747
-0.0770708
0.13401
-0.0821072
0.143409
-0.0866758
0.151935
-0.0908211
0.159619
-0.0946677
0.166593
-0.09816
-0.101798
0.173016
0.000130874
0.000752405
0.000731089
0.000899893
0.00199673
-0.00012938
0.00411346
-0.00226054
0.00725563
-0.00544639
0.0115742
-0.00963955
0.0171774
-0.0147721
0.0241088
-0.0207392
0.0323285
-0.027391
0.0417035
-0.0345341
0.0520118
-0.0419457
0.0629598
-0.0493932
0.0742106
-0.0566576
0.0854192
-0.063554
0.0962681
-0.069947
0.106498
-0.075759
0.115929
-0.0809709
0.124475
-0.0856168
0.13214
-0.0897718
0.139003
-0.0935397
0.145211
-0.0970286
0.150912
-0.100369
0.156323
-0.103571
-0.107003
0.161528
0.00020952
0.000542885
0.00105973
4.96855e-05
0.00276608
-0.00183573
0.00552602
-0.00502048
0.00950804
-0.00942842
0.014828
-0.0149595
0.0215209
-0.021465
0.0295183
-0.0287366
0.0386391
-0.0365117
0.0486001
-0.0444951
0.0590458
-0.0523914
0.0695913
-0.0599387
0.0798692
-0.0669356
0.0895729
-0.0732577
0.0984871
-0.0788612
0.106504
-0.0837757
0.113621
-0.0880878
0.119924
-0.09192
0.125561
-0.0954088
0.130707
-0.0986859
0.135539
-0.10186
0.140199
-0.105029
0.144829
-0.108201
-0.111611
0.149437
0.000307023
0.000235862
0.00145275
-0.00109604
0.00366054
-0.00404351
0.00712033
-0.00848027
0.0119633
-0.0142714
0.0182269
-0.0212231
0.0258249
-0.029063
0.0345373
-0.0374491
0.0440279
-0.0460023
0.0538871
-0.0543542
0.0636906
-0.062195
0.0730596
-0.0693076
0.0817077
-0.0755837
0.0894689
-0.0810189
0.0963015
-0.0856938
0.102271
-0.0897448
0.107516
-0.0933334
0.112215
-0.0966192
0.116547
-0.0997404
0.120665
-0.102804
0.12469
-0.105884
0.128694
-0.109033
0.132741
-0.112248
-0.115682
0.136811
0.000422541
-0.000186679
0.00190178
-0.00257528
0.00465021
-0.00679194
0.00882101
-0.0126511
0.0144668
-0.0199172
0.0214997
-0.0282559
0.0296753
-0.0372386
0.0386142
-0.0463881
0.0478589
-0.055247
0.0569492
-0.0634445
0.0654951
-0.070741
0.0732291
-0.0770416
0.0800265
-0.082381
0.0858968
-0.0868893
0.0909516
-0.0907486
0.0953606
-0.0941538
0.0993091
-0.0972819
0.102965
-0.100275
0.106462
-0.103237
0.109894
-0.106236
0.11332
-0.10931
0.116771
-0.112485
0.120281
-0.115758
-0.119212
0.123812
0.000553618
-0.000740297
0.0023912
-0.00441286
0.00568748
-0.0100882
0.010521
-0.0174846
0.0168208
-0.0262171
0.0243377
-0.0357728
0.0326625
-0.0455634
0.0412941
-0.0550196
0.0497334
-0.0636863
0.0575717
-0.0712827
0.0645474
-0.0777167
0.070562
-0.0830562
0.0756585
-0.0874776
0.0799765
-0.0912073
0.0837005
-0.0944725
0.0870153
-0.0974687
0.0900782
-0.100345
0.0930066
-0.103204
0.0958794
-0.10611
0.0987453
-0.109102
0.101632
-0.112197
0.104554
-0.115406
0.107523
-0.118727
-0.122199
0.11051
0.000695851
-0.00143615
0.00289753
-0.00661454
0.00670812
-0.0138988
0.0120896
-0.0228661
0.0188108
-0.0329382
0.0264512
-0.0434132
0.0344721
-0.0535843
0.0423286
-0.0628762
0.0495774
-0.0709351
0.0559438
-0.0776491
0.0613353
-0.0831082
0.065811
-0.0875318
0.0695254
-0.091192
0.0726708
-0.0943527
0.0754311
-0.0972328
0.0779564
-0.099994
0.0803549
-0.102743
0.0826972
-0.105546
0.0850257
-0.108439
0.0873644
-0.11144
0.0897254
-0.114558
0.0921141
-0.117795
0.0945353
-0.121149
-0.124629
0.0969651
0.000842467
-0.00227861
0.00338994
-0.00916201
0.0076361
-0.018145
0.0133891
-0.028619
0.0202413
-0.0397905
0.027628
-0.0507999
0.0349518
-0.060908
0.0417147
-0.0696391
0.047604
-0.0768243
0.0525103
-0.0825555
0.0564916
-0.0870894
0.0597078
-0.090748
0.0623561
-0.0938403
0.0646219
-0.0966185
0.0666532
-0.0992642
0.0685544
-0.101895
0.070392
-0.104581
0.0722049
-0.107359
0.0740145
-0.110248
0.0758321
-0.113258
0.077663
-0.116389
0.079509
-0.119641
0.0813706
-0.12301
-0.12649
0.0832318
0.000984488
-0.0032631
0.00383263
-0.0120102
0.00839286
-0.0227052
0.0142964
-0.0345226
0.0209733
-0.0464674
0.0277734
-0.0576001
0.0341246
-0.0672592
0.0396469
-0.0751613
0.0441871
-0.0813646
0.047783
-0.0861514
0.0505906
-0.089897
0.0528103
-0.0929677
0.054632
-0.095662
0.0562067
-0.0981932
0.0576396
-0.100697
0.0589965
-0.103252
0.0603152
-0.1059
0.0616162
-0.10866
0.0629105
-0.111543
0.0642033
-0.114551
0.0654971
-0.117683
0.0667921
-0.120936
0.0680864
-0.124304
-0.127774
0.0693705
0.00111199
-0.00437509
0.00419017
-0.0150883
0.00891001
-0.027425
0.0147248
-0.0403373
0.0209454
-0.052688
0.026912
-0.0635667
0.0321477
-0.0724948
0.0364232
-0.0794369
0.0397322
-0.0846736
0.0422139
-0.0886331
0.0440688
-0.0917518
0.0454936
-0.0943926
0.046647
-0.0968154
0.0476393
-0.0991856
0.0485395
-0.101597
0.0493864
-0.104099
0.0502007
-0.106714
0.0509934
-0.109453
0.0517703
-0.11232
0.0525343
-0.115315
0.0532863
-0.118435
0.0540257
-0.121675
0.0547486
-0.125027
-0.128476
0.0554502
0.00121793
-0.00559302
0.00443545
-0.0183059
0.00914132
-0.0321309
0.014636
-0.045832
0.0201757
-0.0582277
0.0251614
-0.0685524
0.0292517
-0.0765851
0.0323641
-0.0825493
0.0346013
-0.0869108
0.0361559
-0.0901876
0.0372319
-0.0928279
0.0379996
-0.0951602
0.0385794
-0.0973952
0.0390469
-0.099653
0.0394445
-0.101995
0.0397944
-0.104449
0.0401079
-0.107027
0.0403911
-0.109736
0.0406474
-0.112576
0.0408789
-0.115546
0.041086
-0.118642
0.0412679
-0.121857
0.0414208
-0.12518
0.0415436
-0.128599
-0.000207086
2.78912e-05
0.000179195
-0.000722745
0.000117628
0.000398031
-0.00148068
0.000240062
0.000517876
-0.00243036
0.000387099
0.000562577
-0.00353246
0.000549774
0.000552323
-0.00475672
0.000721085
0.000503173
-0.00608015
0.000896753
0.000426682
-0.00748543
0.00107531
0.00032997
-0.00895944
0.00125779
0.000216224
-0.0104918
0.00144709
8.52501e-05
-0.0120746
0.00164714
-6.43379e-05
-0.0137003
0.00186243
-0.000236757
-0.0153617
0.00209727
-0.000435792
-0.0170517
0.00235555
-0.000665568
-0.0187624
0.00264063
-0.000929902
-0.0204858
0.0029554
-0.00123205
-0.0222138
0.0033025
-0.00157448
-0.0239398
0.00368463
-0.00195862
-0.02566
0.00410505
-0.00238492
-0.0273755
0.0045681
-0.00285255
-0.0290954
0.00507936
-0.00335944
-0.030839
0.0056461
-0.00390254
-0.0326422
0.00628161
-0.00447841
0.00700636
-0.0345647
-0.0050838
-0.000197535
0.000225426
-0.000689885
0.000609978
-0.00141266
0.000962835
-0.00231587
0.00129031
-0.00336016
0.00159407
-0.00451479
0.00187571
-0.00575587
0.00213783
-0.00706481
0.00238425
-0.00842688
0.00261985
-0.0098299
0.00285012
-0.0112634
0.00308062
-0.0127174
0.00331646
-0.0141821
0.00356193
-0.0156469
0.0038204
-0.0171007
0.00409438
-0.0185311
0.00438579
-0.019925
0.00469649
-0.0212694
0.00502901
-0.022552
0.0053876
-0.0237636
0.00577969
-0.0249012
0.00621703
-0.0259715
0.00671632
-0.026996
0.00730616
0.00804422
-0.0280339
-0.000178267
0.000403692
-0.000624155
0.00105587
-0.00127801
0.00161669
-0.00209183
0.00210413
-0.00302675
0.00252898
-0.00405144
0.0029004
-0.00514065
0.00322705
-0.00627373
0.00351734
-0.00743334
0.00377946
-0.00860427
0.00402105
-0.00977248
0.00424882
-0.0109242
0.00446822
-0.0120455
0.00468318
-0.0131212
0.00489616
-0.0141351
0.00510824
-0.0150688
0.00531953
-0.0159021
0.00552972
-0.016612
0.00573893
-0.0171735
0.00594908
-0.01756
0.00616623
-0.0177469
0.00640388
-0.0177167
0.0066862
-0.0174649
0.0070543
0.00759065
-0.0170113
-0.000152366
0.000556058
-0.000535127
0.00143863
-0.00109475
0.00217631
-0.00178583
0.00279522
-0.00257012
0.00331327
-0.00341547
0.00374575
-0.00429473
0.00410631
-0.00518451
0.00440712
-0.00606398
0.00465893
-0.00691386
0.00487092
-0.00771551
0.00505047
-0.0084502
0.00520291
-0.00909851
0.00533149
-0.00963974
0.00543739
-0.0100514
0.00551992
-0.0103087
0.0055768
-0.0103836
0.00560463
-0.0102442
0.00559953
-0.00985342
0.00555829
-0.00916777
0.00548058
-0.00813745
0.00537357
-0.00671042
0.00525917
-0.00484723
0.00519111
0.00532883
-0.00258541
-0.000123568
0.000679626
-0.000434384
0.00174944
-0.000884674
0.0026266
-0.00143128
0.00334183
-0.00203612
0.00391811
-0.00266576
0.00437539
-0.00329055
0.0047311
-0.00388358
0.00500015
-0.00441967
0.00519501
-0.00487438
0.00532563
-0.00522324
0.00539933
-0.00544108
0.00542075
-0.00550147
0.00539188
-0.00537631
0.00531222
-0.00503532
0.00517893
-0.00444563
0.00498711
-0.00357108
0.00473008
-0.00237127
0.00439972
-0.000800051
0.00398707
0.00119703
0.0034835
0.00368621
0.00288438
0.00674612
0.00219926
0.0104689
0.00146834
0.000836825
0.0149609
-9.55969e-05
0.000775223
-0.000333454
0.0019873
-0.000669449
0.00296259
-0.00106129
0.00373366
-0.00147005
0.00432687
-0.0018601
0.00476545
-0.0021984
0.0050694
-0.00245354
0.00525528
-0.00259475
0.00533622
-0.002591
0.00532189
-0.00241023
0.00521856
-0.00201865
0.00502918
-0.00138034
0.00475357
-0.000456786
0.00438867
0.000793341
0.00392881
0.00241447
0.00336599
0.00445433
0.00269022
0.00696425
0.0018898
0.00999973
0.000951588
0.0136219
-0.000138691
0.0179012
-0.00139486
0.0229262
-0.00282578
0.0287829
-0.0043884
-0.00616652
0.0357863
-7.14419e-05
0.000846665
-0.000241484
0.00215734
-0.000466088
0.0031872
-0.000701516
0.00396909
-0.000906295
0.00453165
-0.00104111
0.00490026
-0.00106801
0.0050963
-0.000949411
0.00513669
-0.000647025
0.00503384
-0.000120885
0.00479575
0.000671461
0.00442621
0.00177558
0.00392506
0.00324057
0.00328858
0.00511932
0.00250992
0.00746849
0.00157964
0.0103483
0.000486162
0.0138222
-0.000783624
0.0179558
-0.0022438
0.0228162
-0.00390889
0.0284709
-0.00579333
0.0349835
-0.00790746
0.0424483
-0.0102905
0.0508396
-0.0127798
-0.0160641
0.0607372
-5.26889e-05
0.000899354
-0.000163065
0.00226772
-0.000282599
0.00330673
-0.00036303
0.00404952
-0.000357759
0.00452638
-0.000221449
0.00476395
9.12671e-05
0.00478358
0.000626997
0.00460096
0.00143481
0.00422603
0.00256726
0.0036633
0.00408114
0.00291232
0.00603794
0.00196826
0.00850385
0.00082267
0.0115494
-0.000535638
0.0152487
-0.0021197
0.0196782
-0.00394332
0.0249147
-0.00602011
0.0310332
-0.00836232
0.0381041
-0.0109798
0.0461919
-0.0138811
0.0553346
-0.0170502
0.0656293
-0.0205852
0.0768778
-0.0240283
-0.029009
0.0898227
-3.90475e-05
0.000938402
-9.66491e-05
0.00232532
-0.000114708
0.00332479
-3.66619e-05
0.00397148
0.000192419
0.0042973
0.00062768
0.00432869
0.00132574
0.00408552
0.00234644
0.00358026
0.00375414
0.00281833
0.00561848
0.00179896
0.00801466
0.00051615
0.0110229
-0.00103996
0.0147272
-0.00288163
0.0192134
-0.00502192
0.0245668
-0.00747303
0.0308681
-0.0102447
0.0381905
-0.0133425
0.0465951
-0.016767
0.0561266
-0.0205112
0.0668128
-0.0245673
0.0786391
-0.0288765
0.0916473
-0.0335934
0.105553
-0.0379339
-0.0443804
0.120924
-2.82294e-05
0.000966631
-3.40424e-05
0.00233113
5.50511e-05
0.0032357
0.000308106
0.00371842
0.000793254
0.00381215
0.00157971
0.00354223
0.00274032
0.00292492
0.00435308
0.0019675
0.00650197
0.000669443
0.00927656
-0.000975633
0.0127705
-0.00297784
0.017079
-0.00534843
0.0222946
-0.00809724
0.0285028
-0.0112301
0.0357765
-0.0147467
0.0441706
-0.0186388
0.0537175
-0.0228894
0.0644224
-0.0274718
0.076261
-0.0323498
0.0891772
-0.0374835
0.103084
-0.0427831
0.117869
-0.0483785
0.133351
-0.0534158
-0.0605137
0.149484
-1.63141e-05
0.000982945
3.8369e-05
0.00227645
0.000255246
0.00301882
0.00072069
0.00325298
0.00152041
0.00301243
0.00274302
0.00231962
0.00448217
0.00118577
0.00683715
-0.000387488
0.00991208
-0.00240548
0.0138123
-0.00487591
0.0186401
-0.00780555
0.0244875
-0.0111959
0.0314298
-0.0150395
0.0395176
-0.0193179
0.0487703
-0.0239994
0.0591713
-0.0290398
0.070665
-0.0343831
0.0831571
-0.0399639
0.0965175
-0.0457102
0.110584
-0.0515501
0.125193
-0.0573918
0.140086
-0.0632713
0.15529
-0.0686208
-0.0752015
0.169978
2.10738e-06
0.000137993
0.000521824
0.00126096
0.00246319
0.00424005
0.00670729
0.00998289
0.0141817
0.0194082
0.0257467
0.0332513
0.0419373
0.0517739
0.0626816
0.0745324
0.0871549
0.100343
0.113867
0.12749
0.140985
0.154101
0.166993
0.178818
-0.0356545
0.00892116
-0.00783143
-0.0367577
0.0100759
-0.00897267
-0.0378534
0.0112128
-0.0101171
-0.0389494
0.0123085
-0.0112124
-0.0400473
0.0132989
-0.0122011
-0.0411446
0.0141088
-0.0130114
-0.0422357
0.0146503
-0.0135592
-0.0433093
0.0148217
-0.0137481
-0.0443489
0.0145116
-0.013472
-0.0453327
0.0136023
-0.0126186
-0.0462336
0.0119765
-0.0110756
-0.0470201
0.00952303
-0.00873649
-0.047656
0.00614437
-0.00550845
-0.0481063
0.00175992
-0.00130965
-0.0483215
-0.00345994
0.00367515
-0.0482814
-0.00959415
0.00955399
-0.047938
-0.0164446
0.0161012
-0.0472418
-0.0237367
0.0230405
-0.0461326
-0.0310969
0.0299877
-0.0445284
-0.0380514
0.0364472
-0.0423096
-0.0440442
0.0418254
-0.039303
-0.0484719
0.0454654
-0.0352908
-0.0507036
0.0466914
-0.0300292
-0.05017
0.0449083
-0.023329
-0.0465038
0.0398036
-0.0150756
-0.0395613
0.0313079
-0.00532822
-0.0298056
0.0200582
0.00564523
-0.0179499
0.00697644
0.0173717
-0.00528097
-0.00644547
0.0293548
0.00695148
-0.0189346
0.0410155
0.0174707
-0.0291315
0.0519645
0.0253186
-0.0362675
0.0620272
0.0299089
-0.0399716
0.0712431
0.0312992
-0.040515
0.0797856
0.0296388
-0.0381813
0.0878672
0.0255956
-0.0336772
0.095637
0.019615
-0.0273848
0.103123
0.0127152
-0.0202016
0.110252
0.00534389
-0.0124727
0.116887
-0.00141031
-0.00522407
0.122906
-0.00744187
0.00142279
0.128237
-0.0118525
0.00652152
0.132885
-0.0150722
0.0104237
0.136928
-0.016341
0.0122981
0.140499
-0.0165282
0.0129575
0.143734
-0.0148048
0.0115694
0.146762
-0.0124498
0.00942186
0.149647
-0.00845206
0.00556677
0.152416
-0.00455871
0.00179003
0.15502
0.000469189
-0.00307289
0.157439
0.00442592
-0.00684519
0.159598
0.00895059
-0.0111098
0.161537
0.0116648
-0.0136038
0.163168
0.0148345
-0.016465
0.164636
0.0159849
-0.0174529
0.165809
0.0177867
-0.0189601
0.166983
0.0178288
-0.0190027
0.167925
0.018874
-0.0198161
0.168999
0.0188002
-0.0198741
0.0199016
-0.0207596
-0.0287127
0.00959995
-0.0294044
0.0107676
-0.0300697
0.011878
-0.030714
0.0129528
-0.0313364
0.0139213
-0.0319322
0.0147047
-0.0324976
0.0152157
-0.0330231
0.0153472
-0.0334963
0.0149849
-0.0339023
0.0140083
-0.034224
0.0122981
-0.0344443
0.00974336
-0.0345488
0.00624889
-0.0345161
0.00172715
-0.0343133
-0.00366272
-0.0339383
-0.0099691
-0.033381
-0.0170019
-0.0326303
-0.0244875
-0.0316713
-0.0320558
-0.0304773
-0.0392454
-0.0289942
-0.0455274
-0.0271126
-0.0503535
-0.0246472
-0.053169
-0.0213377
-0.0534794
-0.0168857
-0.0509558
-0.0110729
-0.0453741
-0.0037545
-0.037124
0.00514424
-0.0268486
0.0152264
-0.0153631
0.0260894
-0.0039115
0.0371854
0.00637467
0.0481652
0.0143389
0.0587994
0.0192746
0.0690205
0.0210781
0.0788372
0.0198221
0.0882821
0.0161507
0.0973248
0.0105722
0.105854
0.00418645
0.113714
-0.00251635
0.120751
-0.00844708
0.126865
-0.0135566
0.132035
-0.0170222
0.13632
-0.0193575
0.139851
-0.0198719
0.142808
-0.0194854
0.14538
-0.0173765
0.147745
-0.0148146
0.150019
-0.0107267
0.152274
-0.00681344
0.154485
-0.0017415
0.156643
0.00226741
0.158662
0.00693194
0.160563
0.00976421
0.162224
0.0131735
0.163773
0.0144359
0.165044
0.0165156
0.166335
0.0165371
0.167386
0.0178232
0.168581
0.0176049
0.0189385
-0.0171604
0.00974906
-0.0172925
0.0108996
-0.0173966
0.0119821
-0.017457
0.0130133
-0.0174719
0.0139362
-0.0174318
0.0146646
-0.0173441
0.0151279
-0.017201
0.0152041
-0.016996
0.0147799
-0.0167223
0.0137346
-0.0163716
0.0119474
-0.0159352
0.00930696
-0.015409
0.00572269
-0.0148112
0.00112937
-0.0140884
-0.00438554
-0.0132571
-0.0108004
-0.0123249
-0.0179341
-0.0113012
-0.0255112
-0.0101992
-0.0331579
-0.00902862
-0.040416
-0.00778749
-0.0467685
-0.00645812
-0.0516829
-0.00495296
-0.0546742
-0.00306678
-0.0553656
-0.000516617
-0.053506
0.00322749
-0.0491182
0.00837372
-0.0422702
0.0149664
-0.0334413
0.0229562
-0.0233529
0.0320772
-0.0130325
0.0421183
-0.00366646
0.0525611
0.00389615
0.063187
0.00864867
0.0737895
0.0104756
0.0841896
0.00942191
0.0942482
0.00609219
0.10378
0.00104031
0.112588
-0.00462138
0.120477
-0.0104052
0.127317
-0.0152874
0.133055
-0.0192944
0.137721
-0.0216878
0.141416
-0.0230527
0.144298
-0.0227544
0.146565
-0.021752
0.148421
-0.0192326
0.150068
-0.0164617
0.151657
-0.0123157
0.153296
-0.00845204
0.154995
-0.00344064
0.15676
0.000502764
0.158508
0.00518367
0.160249
0.00802294
0.161837
0.0115851
0.163379
0.0128943
0.164679
0.0152153
0.166027
0.0151897
0.167141
0.0167087
0.168411
0.0163356
0.0178986
-0.0020117
0.00917536
-0.00161455
0.0105025
-0.00115139
0.011519
-0.000583624
0.0124455
5.87424e-05
0.0132938
0.000734857
0.0139885
0.00147217
0.0143906
0.0022689
0.0144073
0.00312296
0.0139258
0.00403192
0.0128257
0.00499438
0.0109849
0.00600998
0.00829136
0.00707924
0.00465343
0.00818966
1.89465e-05
0.00936953
-0.00556541
0.0106117
-0.0120425
0.0119127
-0.0192351
0.0132645
-0.026863
0.014652
-0.0345454
0.0160527
-0.0418166
0.0174338
-0.0481497
0.0187625
-0.0530116
0.0200557
-0.0559673
0.0214262
-0.0567361
0.0231152
-0.055195
0.0254037
-0.0514067
0.0286713
-0.0455378
0.0331912
-0.0379612
0.0391206
-0.0292824
0.0464134
-0.0203253
0.0548531
-0.0121061
0.0642364
-0.00548721
0.0741739
-0.00128884
0.0843659
0.000283665
0.0944744
-0.000686637
0.104253
-0.00368651
0.113422
-0.00812815
0.12173
-0.0129293
0.128998
-0.0176739
0.135138
-0.0214272
0.140144
-0.0243005
0.144088
-0.0256322
0.147094
-0.0260581
0.14932
-0.0249809
0.150951
-0.0233829
0.152177
-0.0204579
0.153191
-0.0174762
0.154155
-0.0132794
0.1552
-0.00949696
0.156369
-0.00460964
0.157688
-0.000816996
0.159093
0.00377906
0.160591
0.00652538
0.162024
0.0101518
0.163479
0.011439
0.164744
0.0139508
0.166084
0.0138496
0.167215
0.0155773
0.168508
0.0150431
0.0168142
0.0158104
0.00832589
0.0166225
0.00969031
0.0174922
0.0106493
0.0184793
0.0114584
0.0195639
0.0122093
0.0207357
0.0128167
0.021978
0.0131483
0.0232887
0.0130967
0.024659
0.0125555
0.0260781
0.0114066
0.0275361
0.00952693
0.0290253
0.00680213
0.0305366
0.00314212
0.032076
-0.00152042
0.0336395
-0.00712892
0.0352301
-0.0136331
0.0368492
-0.0208542
0.0384937
-0.0285075
0.0401494
-0.0362011
0.0417854
-0.0434526
0.0433589
-0.0497231
0.0448362
-0.054489
0.0462045
-0.0573355
0.0474979
-0.0580296
0.048852
-0.0565491
0.0504825
-0.0530372
0.0527033
-0.0477586
0.0558383
-0.0410962
0.0601569
-0.0336009
0.065781
-0.0259494
0.0726597
-0.0189848
0.0805909
-0.0134183
0.0892604
-0.00995839
0.0983033
-0.00875919
0.107394
-0.00977739
0.116147
-0.0124394
0.124255
-0.0162365
0.131481
-0.0201551
0.137677
-0.0238702
0.142801
-0.0265507
0.146886
-0.0283857
0.150029
-0.0287755
0.152357
-0.0283853
0.154011
-0.0266351
0.155144
-0.024516
0.155909
-0.0212228
0.156469
-0.0180363
0.156969
-0.0137796
0.157547
-0.0100751
0.158265
-0.00532715
0.159181
-0.00173274
0.160238
0.00272183
0.161462
0.00530112
0.162698
0.00891605
0.164015
0.0101213
0.165198
0.0127686
0.166481
0.0125665
0.167591
0.0144672
0.168863
0.0137708
0.0157135
0.0365661
0.00754611
0.0373951
0.00886124
0.0383546
0.00968987
0.0395004
0.0103126
0.040797
0.0109126
0.0422158
0.0113979
0.0437429
0.0116212
0.0453659
0.0114737
0.0470653
0.0108561
0.0488201
0.00965181
0.0506098
0.00773725
0.0524203
0.00499159
0.0542206
0.0013418
0.056035
-0.00333482
0.0578247
-0.00891858
0.0595944
-0.0154029
0.0613413
-0.0226011
0.063061
-0.0302271
0.0647423
-0.0378824
0.0663661
-0.0450764
0.067913
-0.0512701
0.0693698
-0.0559457
0.070726
-0.0586917
0.0719929
-0.0592965
0.0732517
-0.057808
0.0746512
-0.0544366
0.0764182
-0.0495257
0.0788211
-0.0434991
0.0821161
-0.0368959
0.086469
-0.0303024
0.0919127
-0.0244286
0.0983329
-0.0198385
0.105477
-0.0171028
0.113014
-0.0162959
0.120596
-0.0173595
0.127858
-0.0197011
0.134505
-0.0228836
0.14034
-0.0259903
0.145259
-0.0287887
0.149256
-0.0305485
0.152393
-0.0315219
0.154771
-0.0311536
0.156506
-0.0301205
0.157716
-0.027845
0.158515
-0.0253148
0.15901
-0.0217185
0.159323
-0.0183491
0.159565
-0.0140218
0.159862
-0.0103715
0.160279
-0.00574392
0.160895
-0.00234919
0.161671
0.00194578
0.162651
0.0043216
0.163693
0.00787317
0.16486
0.00895457
0.165943
0.0116856
0.167143
0.0113663
0.168212
0.0133982
0.169437
0.0125459
0.0146138
0.0608851
0.0073982
0.0612298
0.00851656
0.0618197
0.00909998
0.0626908
0.00944157
0.0637849
0.00981839
0.0650731
0.0101097
0.0665414
0.0101529
0.068163
0.00985216
0.069905
0.00911406
0.0717344
0.00782244
0.0736127
0.00585889
0.075496
0.00310837
0.077434
-0.000596224
0.0792824
-0.00518325
0.0810804
-0.0107166
0.0828008
-0.0171233
0.0844329
-0.0242332
0.0859698
-0.031764
0.0874062
-0.0393188
0.0887387
-0.0464089
0.0899701
-0.0525014
0.0911135
-0.0570891
0.0921909
-0.0597691
0.0932407
-0.0603462
0.0943408
-0.0589081
0.0955978
-0.0556937
0.0971543
-0.0510822
0.0991827
-0.0455275
0.101861
-0.0395746
0.105324
-0.0337647
0.109617
-0.0287217
0.114677
-0.0248983
0.120314
-0.0227398
0.126255
-0.0222368
0.132194
-0.0232989
0.137828
-0.0253348
0.142917
-0.027973
0.147321
-0.0303942
0.150979
-0.0324469
0.153915
-0.0334845
0.156199
-0.0338052
0.157926
-0.0328815
0.159196
-0.0313904
0.160098
-0.0287466
0.160712
-0.0259287
0.161105
-0.0221113
0.161353
-0.0185979
0.161531
-0.0141996
0.161737
-0.0105772
0.162028
-0.00603496
0.162488
-0.00280958
0.163094
0.00133964
0.163905
0.00351148
0.164803
0.00697466
0.165845
0.00791302
0.166844
0.0106865
0.167964
0.0102457
0.168995
0.0123673
0.170168
0.0113729
0.0135167
0.088913
0.00830792
0.0883414
0.00908809
0.0881353
0.00930611
0.0882779
0.009299
0.088713
0.00938322
0.0894333
0.00938951
0.0904195
0.0091667
0.0916303
0.00864137
0.0930254
0.00771892
0.0945627
0.00628516
0.0961953
0.0042263
0.0978469
0.00145672
0.0995461
-0.00229542
0.101167
-0.00680366
0.1027
-0.0122497
0.104107
-0.018531
0.105365
-0.0254911
0.106458
-0.0328565
0.10738
-0.0402409
0.108139
-0.0471676
0.10876
-0.0531229
0.109293
-0.0576219
0.10981
-0.0602864
0.110398
-0.0609337
0.111146
-0.059657
0.112145
-0.0566921
0.11348
-0.0524176
0.115243
-0.0472898
0.117519
-0.041851
0.12037
-0.0366153
0.123804
-0.0321566
0.127763
-0.0288564
0.132095
-0.0270723
0.136591
-0.0267328
0.141016
-0.0277241
0.145148
-0.0294671
0.148822
-0.0316469
0.151956
-0.033528
0.15453
-0.035021
0.156584
-0.0355382
0.158187
-0.0354081
0.159422
-0.0341165
0.160366
-0.032335
0.161085
-0.0294655
0.161633
-0.0264765
0.162046
-0.0225236
0.162365
-0.0189172
0.162627
-0.0144621
0.162901
-0.0108513
0.163227
-0.00636011
0.163678
-0.00326103
0.164242
0.00077524
0.164985
0.00276897
0.165818
0.00614202
0.166791
0.00693975
0.16775
0.00972766
0.168822
0.00917389
0.16984
0.0113487
0.17098
0.0102328
0.0124063
0.118897
0.0103352
0.117302
0.0106831
0.116106
0.010502
0.115249
0.010156
0.114733
0.00989913
0.114574
0.00954861
0.114739
0.0090019
0.115182
0.00819783
0.115867
0.0070343
0.116749
0.00540353
0.117778
0.00319737
0.118869
0.000365273
0.119979
-0.00340592
0.121051
-0.0078751
0.122013
-0.0132115
0.122815
-0.0193333
0.123417
-0.0260935
0.123794
-0.0332331
0.123938
-0.0403849
0.123868
-0.0470974
0.123635
-0.05289
0.123326
-0.057313
0.123064
-0.060024
0.122988
-0.0608582
0.123216
-0.0598848
0.123827
-0.0573027
0.12487
-0.0534609
0.126373
-0.0487927
0.128343
-0.0438208
0.130761
-0.0390342
0.133581
-0.0349766
0.136717
-0.0319917
0.140035
-0.0303909
0.143376
-0.0300738
0.146577
-0.0309244
0.149496
-0.0323861
0.15204
-0.0341917
0.154181
-0.0356686
0.155932
-0.0367721
0.157339
-0.036945
0.158465
-0.0365338
0.159375
-0.0350273
0.160131
-0.0330905
0.160776
-0.0301103
0.161347
-0.0270478
0.16186
-0.0230367
0.162334
-0.0193914
0.162778
-0.0149058
0.163232
-0.0113049
0.163713
-0.00684171
0.16428
-0.0038282
0.164923
0.000132254
0.165705
0.00198744
0.166563
0.00528385
0.167543
0.00595944
0.168525
0.00874617
0.1696
0.00809838
0.170651
0.0102976
0.171798
0.00908594
0.0112507
0.146734
0.0130853
0.144424
0.0129929
0.142401
0.012525
0.140638
0.0119198
0.139225
0.0113117
0.138174
0.0105999
0.137442
0.00973374
0.136999
0.00864056
0.136815
0.0072183
0.136842
0.00537618
0.137018
0.00302144
0.137364
1.99189e-05
0.137642
-0.00368432
0.1379
-0.00813263
0.138041
-0.0133531
0.137997
-0.0192888
0.137712
-0.0258086
0.137154
-0.0326755
0.136321
-0.0395515
0.135247
-0.0460235
0.134014
-0.0516569
0.132749
-0.0560483
0.131619
-0.058894
0.13081
-0.060049
0.130457
-0.0595319
0.130633
-0.0574792
0.13136
-0.0541874
0.132615
-0.0500475
0.134344
-0.0455498
0.136464
-0.0411541
0.138871
-0.0373844
0.141447
-0.0345678
0.144062
-0.0330052
0.146587
-0.0325987
0.148916
-0.0332536
0.150976
-0.0344458
0.152732
-0.0359483
0.154194
-0.0371306
0.155401
-0.0379792
0.156401
-0.0379451
0.157248
-0.0373806
0.157993
-0.0357718
0.158681
-0.0337784
0.159342
-0.0307717
0.160004
-0.0277094
0.16067
-0.0237026
0.161346
-0.0200683
0.162024
-0.0155836
0.162723
-0.0120032
0.16344
-0.0075594
0.164214
-0.00460169
0.165032
-0.000686353
0.165947
0.00107255
0.16692
0.00431128
0.167987
0.00489193
0.169063
0.00767096
0.170206
0.0069545
0.171347
0.00915755
0.172555
0.00787785
0.0100053
0.167275
0.0157883
0.164844
0.0154244
0.162515
0.0148534
0.160362
0.0140733
0.158486
0.0131872
0.156884
0.0122024
0.155533
0.0110844
0.154421
0.0097524
0.153526
0.00811414
0.152809
0.00609318
0.152239
0.00359057
0.151669
0.000589917
0.151157
-0.00317166
0.150534
-0.0075096
0.149762
-0.0125815
0.148764
-0.0182904
0.147486
-0.0245305
0.145901
-0.0310912
0.144024
-0.0376739
0.141915
-0.0439151
0.139692
-0.049433
0.137515
-0.0538713
0.135577
-0.0569567
0.134092
-0.0585635
0.133207
-0.0586474
0.132985
-0.0572573
0.133424
-0.0546264
0.13447
-0.0510934
0.136026
-0.0471052
0.137961
-0.0430892
0.140129
-0.0395529
0.142382
-0.03682
0.144581
-0.0352045
0.146617
-0.0346351
0.148422
-0.0350588
0.149968
-0.0359911
0.151262
-0.0372424
0.152339
-0.0382077
0.153252
-0.0388922
0.154052
-0.0387456
0.154788
-0.0381165
0.155498
-0.0364818
0.156219
-0.0344991
0.15697
-0.0315231
0.157773
-0.0285124
0.158627
-0.0245559
0.159532
-0.0209734
0.160469
-0.016521
0.161444
-0.0129785
0.162442
-0.00855714
0.163479
-0.00563831
0.164544
-0.00175186
0.165665
-4.78884e-05
0.166828
0.00314828
0.168057
0.00366283
0.169295
0.0064325
0.170576
0.00567411
0.171866
0.00786731
0.173198
0.00654611
0.00861785
0.17705
0.0175567
0.175162
0.017312
0.173316
0.0166999
0.171502
0.0158874
0.169767
0.0149224
0.168151
0.0138178
0.166671
0.0125651
0.165314
0.0111091
0.164057
0.00937087
0.162856
0.00729404
0.16168
0.00476743
0.160602
0.00166725
0.15937
-0.00193902
0.158
-0.00614033
0.15641
-0.0109914
0.154556
-0.0164359
0.152405
-0.0223798
0.149957
-0.0286435
0.147258
-0.034975
0.144404
-0.0410613
0.141537
-0.046566
0.138829
-0.0511632
0.136455
-0.0545823
0.13455
-0.0566587
0.133232
-0.0573293
0.132597
-0.0566227
0.132693
-0.0547222
0.133461
-0.0518611
0.134787
-0.0484311
0.136519
-0.0448216
0.138489
-0.0415226
0.140525
-0.0388558
0.142481
-0.0371606
0.14425
-0.0364047
0.145783
-0.036591
0.14707
-0.0372789
0.148146
-0.0383179
0.149057
-0.0391182
0.149863
-0.0396984
0.150614
-0.039497
0.151358
-0.0388607
0.152127
-0.0372505
0.152951
-0.0353234
0.153845
-0.0324163
0.154825
-0.0294925
0.155888
-0.0256189
0.157034
-0.0221196
0.15824
-0.0177267
0.159503
-0.0142422
0.1608
-0.00985378
0.162133
-0.00697097
0.163481
-0.0030999
0.16487
-0.00143724
0.166277
0.00174133
0.16773
0.0022093
0.169193
0.00496955
0.170675
0.00419251
0.172175
0.00636721
0.173694
0.0050267
0.00703352
0.192732
0.0188885
-0.194063
0.191826
0.0182177
0.190906
0.0176197
0.19001
0.0167834
0.189196
0.0157366
0.188483
0.0145308
0.18789
0.0131586
0.187429
0.0115695
0.187102
0.0096984
0.186924
0.00747185
0.186873
0.00481865
0.18681
0.00172945
0.186809
-0.00193741
0.186775
-0.00610645
0.186609
-0.0108256
0.186229
-0.0160563
0.18554
-0.0216904
0.184461
-0.0275647
0.182947
-0.0334604
0.180993
-0.0391081
0.178648
-0.044221
0.176005
-0.0485198
0.173197
-0.0517742
0.170369
-0.0538308
0.167674
-0.0546343
0.165253
-0.0542016
0.163221
-0.05269
0.161661
-0.0503013
0.160609
-0.0473788
0.160045
-0.0442578
0.159899
-0.0413773
0.160059
-0.0390152
0.160385
-0.0374867
0.160738
-0.0367575
0.161001
-0.0368544
0.161097
-0.0373748
0.160991
-0.0382119
0.160686
-0.0388133
0.160214
-0.0392267
0.159625
-0.0389074
0.158973
-0.0382085
0.15831
-0.0365883
0.157686
-0.0346986
0.157134
-0.031865
0.156687
-0.0290447
0.156358
-0.02529
0.156156
-0.0219175
0.156071
-0.017642
0.156097
-0.0142684
0.156211
-0.00996823
0.156401
-0.00716033
0.156638
-0.00333669
0.156917
-0.00171646
0.157212
0.00144646
0.157525
0.00189642
0.157832
0.00466235
0.158115
0.00390956
0.158381
0.00610089
0.158612
0.00479559
0.0067878
0.206215
0.0190559
-0.206382
0.206074
0.0183585
0.206002
0.0176917
0.205891
0.0168952
0.205734
0.0158935
0.205568
0.0146968
0.205421
0.0133053
0.205305
0.0116855