/*--------------------------------*- C++ -*----------------------------------*\
| =========                 |                                                 |
| \\      /  F ield         | OpenFOAM: The Open Source CFD Toolbox           |
|  \\    /   O peration     | Version:  2512                                  |
|   \\  /    A nd           | Website:  www.openfoam.com                      |
|    \\/     M anipulation  |                                                 |
\*---------------------------------------------------------------------------*/
FoamFile
{
    version     2.0;
    format      ascii;
    arch        "LSB;label=32;scalar=64";
    class       surfaceScalarField;
    location    "110";
    object      phi;
}
// * * * * * * * * * * * * * * * * * * * * * * * * * * * * * * * * * * * * * //

dimensions      [0 3 -1 0 0 0 0];

oriented        oriented;

internalField   nonuniform List<scalar> 
26232
(
-4.60584e-05
0.00102951
-0.000983447
0.000106506
0.00197291
-0.00212547
0.000693755
0.0019879
-0.00257515
0.00192716
0.00112507
-0.00235848
0.00400713
-0.000605053
-0.00147491
0.00712421
-0.00321154
9.44557e-05
0.0114565
-0.00670674
0.00237442
0.0171519
-0.0110913
0.00539596
0.0243122
-0.0163375
0.00917716
0.0329725
-0.0223792
0.0137189
0.0430831
-0.0291068
0.0189963
0.0544999
-0.0363708
0.0249541
0.0669847
-0.0439907
0.0315058
0.0802176
-0.0517691
0.0385363
0.0938185
-0.0595081
0.0459072
0.107378
-0.067025
0.0534656
0.120492
-0.0741669
0.0610527
0.132798
-0.0808225
0.0685168
0.144011
-0.0869266
0.0757136
0.153934
-0.0924784
0.0825553
0.162505
-0.0974757
0.0889048
0.169679
-0.102118
0.0949441
0.175408
-0.106033
0.100303
-0.110465
0.106297
0.179576
2.96409e-05
0.000999865
0.00040601
0.00159654
0.0013848
0.00100911
0.00320221
-0.00069233
0.00608006
-0.0034829
0.0102174
-0.00734888
0.0157729
-0.0122623
0.0228402
-0.0181585
0.0314232
-0.0249205
0.0414185
-0.0323745
0.0526101
-0.0402985
0.0646809
-0.0484416
0.077239
-0.0565488
0.0898559
-0.064386
0.10211
-0.0717626
0.113632
-0.0785467
0.124138
-0.084673
0.133459
-0.0901429
0.141547
-0.0950151
0.14846
-0.0993912
0.154371
-0.103387
0.159405
-0.107152
0.164018
-0.110645
-0.114499
0.168052
0.000127145
0.000872719
0.000789956
0.000933726
0.00225696
-0.000457895
0.00477825
-0.00321362
0.00857674
-0.00728139
0.0138253
-0.0125975
0.0206159
-0.0190529
0.0289288
-0.0264715
0.0386138
-0.0346055
0.0493904
-0.0431511
0.0608723
-0.0517805
0.0726111
-0.0601804
0.0841505
-0.0680882
0.0950824
-0.0753179
0.105093
-0.0817735
0.113995
-0.0874481
0.121732
-0.0924106
0.128373
-0.0967836
0.134073
-0.100715
0.139039
-0.104357
0.143477
-0.107825
0.147567
-0.111242
0.151469
-0.114547
-0.118186
0.155155
0.000240698
0.000632021
0.00123623
-6.18032e-05
0.00326041
-0.00248207
0.00655931
-0.00651253
0.0113255
-0.0120476
0.0176593
-0.0189312
0.02553
-0.0269236
0.0347527
-0.0356942
0.0449941
-0.0448468
0.0558099
-0.0539668
0.0667071
-0.0626777
0.0772158
-0.070689
0.0869529
-0.0778253
0.0956674
-0.0840324
0.103257
-0.0893633
0.109758
-0.0939491
0.115311
-0.097963
0.120112
-0.101585
0.12437
-0.104974
0.128267
-0.108253
0.131945
-0.111503
0.135485
-0.114782
0.138994
-0.118056
-0.121606
0.142415
0.000367127
0.000264894
0.00172926
-0.00142393
0.00435249
-0.0051053
0.00845215
-0.0106122
0.0141482
-0.0177436
0.0214152
-0.0261983
0.0300507
-0.035559
0.0396813
-0.0453249
0.0498139
-0.0549794
0.0599165
-0.0640694
0.0695069
-0.0722682
0.0782249
-0.079407
0.0858711
-0.0854715
0.0924094
-0.0905707
0.0979365
-0.0948904
0.102633
-0.0986452
0.106707
-0.102038
0.110356
-0.105233
0.113734
-0.108353
0.116953
-0.111472
0.120083
-0.114633
0.123162
-0.117861
0.126243
-0.121137
-0.124615
0.129252
0.000505792
-0.000240899
0.00225799
-0.00317613
0.005493
-0.00834032
0.0103589
-0.0154781
0.0168535
-0.0242383
0.024778
-0.0341227
0.033736
-0.044517
0.0431933
-0.0547822
0.052578
-0.0643641
0.061388
-0.0728794
0.0692718
-0.0801519
0.076063
-0.0861982
0.0817686
-0.0911771
0.0865226
-0.0953246
0.0905254
-0.0988933
0.0939882
-0.102108
0.0970944
-0.105144
0.0999822
-0.108121
0.102745
-0.111115
0.10544
-0.114167
0.108102
-0.117295
0.110749
-0.120508
0.113408
-0.123796
-0.127237
0.116029
0.000655688
-0.000896587
0.00280787
-0.0053283
0.00663155
-0.012164
0.012163
-0.0210095
0.0192315
-0.0313068
0.0274405
-0.0423317
0.0362249
-0.0533014
0.0449686
-0.0635259
0.0531342
-0.0725297
0.0603573
-0.0801025
0.0664806
-0.0862753
0.0715319
-0.0912495
0.075665
-0.0953102
0.0790911
-0.0987507
0.082021
-0.101823
0.0846305
-0.104717
0.0870475
-0.107561
0.0893555
-0.110429
0.0916048
-0.113365
0.093824
-0.116386
0.0960288
-0.1195
0.0982275
-0.122707
0.100433
-0.126001
-0.129412
0.102608
0.000813128
-0.00170971
0.0033555
-0.00787067
0.00770124
-0.0165097
0.0137301
-0.0270384
0.0210738
-0.0386505
0.029154
-0.050412
0.0373083
-0.0614557
0.0449444
-0.0711621
0.0516577
-0.079243
0.0572726
-0.0857174
0.0618161
-0.0908187
0.0654484
-0.0948818
0.0683866
-0.0982485
0.0708436
-0.101208
0.072993
-0.103973
0.0749587
-0.106683
0.0768198
-0.109422
0.0786227
-0.112232
0.0803932
-0.115135
0.0821452
-0.118138
0.0838868
-0.121242
0.0856231
-0.124443
0.0873609
-0.127739
-0.131129
0.0890785
0.00097091
-0.00268062
0.00386818
-0.0107679
0.00862332
-0.0212649
0.0149256
-0.0333407
0.0222119
-0.0459368
0.0297795
-0.0579795
0.036964
-0.0686402
0.0432896
-0.0774877
0.0485314
-0.0844847
0.0526917
-0.0898777
0.0559248
-0.0940518
0.0584505
-0.0974075
0.0604861
-0.100284
0.0622086
-0.10293
0.0637433
-0.105507
0.0651691
-0.108109
0.0665314
-0.110784
0.0678548
-0.113556
0.0691527
-0.116433
0.0704325
-0.119418
0.0716991
-0.122508
0.072956
-0.1257
0.0742061
-0.128989
-0.132361
0.0754379
0.00111903
-0.00379965
0.00430795
-0.0139569
0.00931974
-0.0262767
0.0156412
-0.0396621
0.0225519
-0.0528475
0.0293077
-0.0647352
0.0353307
-0.0746633
0.040311
-0.0824679
0.0441982
-0.0883719
0.0471241
-0.0928037
0.0493061
-0.0962338
0.0509684
-0.0990697
0.0522962
-0.101612
0.0534212
-0.104055
0.0544258
-0.106512
0.0553574
-0.109041
0.0562411
-0.111668
0.05709
-0.114405
0.0579117
-0.117255
0.0587109
-0.120217
0.0594908
-0.123288
0.0602541
-0.126464
0.0610022
-0.129737
-0.133091
0.0617317
0.0012467
-0.00504636
0.00463896
-0.0173491
0.00972831
-0.031366
0.0158145
-0.0457483
0.0220853
-0.0591183
0.0278389
-0.0704889
0.0326411
-0.0794655
0.0363527
-0.0861796
0.0390599
-0.0910791
0.0409677
-0.0947114
0.0423062
-0.0975724
0.0432732
-0.100037
0.0440118
-0.10235
0.0446126
-0.104656
0.0451272
-0.107027
0.0455827
-0.109496
0.0459931
-0.112078
0.0463661
-0.114778
0.0467066
-0.117595
0.047018
-0.120528
0.0473027
-0.123573
0.0475622
-0.126723
0.047796
-0.129971
-0.1333
0.0480048
0.00134681
-0.00639317
0.00483639
-0.0208387
0.00981458
-0.0363442
0.0154375
-0.0513713
0.0208784
-0.0645592
0.0255434
-0.0751539
0.0291607
-0.0830827
0.031736
-0.0887549
0.0334429
-0.092786
0.0345124
-0.0957808
0.0351566
-0.0982166
0.0355353
-0.100415
0.0357516
-0.102567
0.0358648
-0.104769
0.0359061
-0.107068
0.0358909
-0.109481
0.0358273
-0.112014
0.0357205
-0.114671
0.0355741
-0.117449
0.0353912
-0.120345
0.0351741
-0.123356
0.034924
-0.126473
0.0346394
-0.129686
0.0343239
-0.132984
-0.000262424
0.000416142
-0.000153718
-0.000898358
0.00164079
-0.00100485
-0.00182444
0.00313399
-0.00220791
-0.0029846
0.00475525
-0.00359509
-0.00433663
0.00640229
-0.00505027
-0.00584476
0.00802338
-0.00651524
-0.00747526
0.00961101
-0.00798051
-0.00919429
0.0111883
-0.00946932
-0.0109673
0.0127934
-0.0110204
-0.0127591
0.014465
-0.0126732
-0.0145333
0.0162325
-0.0144583
-0.0162515
0.0181106
-0.0163924
-0.0178717
0.0200975
-0.0184773
-0.0193472
0.0221753
-0.0206998
-0.0206248
0.02431
-0.0230325
-0.0216441
0.026452
-0.0254327
-0.0223382
0.0285356
-0.0278415
-0.022634
0.0304789
-0.0301831
-0.0224544
0.032184
-0.0323637
-0.0217203
0.0335399
-0.0342739
-0.0203549
0.0344274
-0.0357929
-0.0182921
0.0347278
-0.0367906
-0.015485
0.0343236
-0.0371306
0.0331879
-0.0119574
-0.0367155
-0.000190401
0.000606544
-0.000654312
0.0021047
-0.00133075
0.00381044
-0.00217769
0.00560219
-0.00316208
0.00738668
-0.00425273
0.00911403
-0.00541587
0.0107742
-0.00661316
0.0123856
-0.00780172
0.013982
-0.00893505
0.0155983
-0.00996388
0.0172613
-0.0108364
0.0189831
-0.0114978
0.0207589
-0.0118895
0.022567
-0.0119486
0.0243691
-0.011607
0.0261105
-0.0107937
0.0277223
-0.00943489
0.0291201
-0.00745658
0.0302057
-0.00478744
0.0308707
-0.00135963
0.0309996
0.00289231
0.0304758
0.00801014
0.0292057
0.0271708
0.0140272
-0.000113346
0.000719889
-0.000390471
0.00238182
-0.000790821
0.00421079
-0.00128409
0.00609546
-0.00184457
0.00794716
-0.002445
0.00971445
-0.00305209
0.0113812
-0.00362461
0.0129582
-0.00411319
0.0144706
-0.00446218
0.0159473
-0.00461131
0.0174104
-0.00449699
0.0188687
-0.0040532
0.0203151
-0.00321178
0.0217256
-0.00190282
0.0230602
-5.6384e-05
0.0242641
0.00239881
0.0252671
0.00553164
0.0259872
0.00940565
0.0263317
0.0140775
0.0261989
0.0195951
0.0254819
0.025995
0.024076
0.0333042
0.0218965
0.0188296
0.0416453
-4.4134e-05
0.000764023
-0.000147666
0.00248535
-0.000283428
0.00434655
-0.000427479
0.00623951
-0.000557811
0.00807749
-0.00064936
0.009806
-0.000669609
0.0114015
-0.000576251
0.0128648
-0.000317436
0.0142117
0.000167652
0.0154622
0.000946287
0.0166318
0.00208945
0.0177256
0.00367016
0.0187344
0.00576189
0.0196339
0.00843729
0.0203848
0.0117673
0.020934
0.0158182
0.0212162
0.0206501
0.0211553
0.0263151
0.0206667
0.0328544
0.0196596
0.0402965
0.0180399
0.0486711
0.0157015
0.0579465
0.0126211
0.00840316
0.0683729
6.88574e-06
0.000757138
3.88983e-05
0.00245334
0.000120625
0.00426482
0.000276845
0.00608329
0.000530779
0.00782356
0.000908094
0.00942868
0.00144105
0.0108685
0.00217122
0.0121346
0.00315055
0.0132324
0.00444006
0.0141727
0.0061078
0.0149641
0.00822637
0.015607
0.0108702
0.0160905
0.0141134
0.0163907
0.0180274
0.0164708
0.0226795
0.016282
0.0281309
0.0157648
0.0344356
0.0148506
0.0416385
0.0134638
0.0497768
0.0115213
0.0588733
0.0089433
0.0689813
0.00559355
0.079983
0.00161936
-0.00398833
0.0923745
3.2328e-05
0.00072481
0.000144927
0.00234074
0.000370837
0.00403891
0.000743194
0.00571093
0.00129169
0.00727506
0.00204593
0.00867445
0.00303956
0.00987491
0.00431343
0.0108608
0.00591706
0.0116288
0.00790852
0.0121813
0.0103528
0.0125198
0.0133196
0.0126402
0.0168807
0.0125293
0.0211081
0.0121633
0.0260715
0.0115074
0.0318373
0.0105161
0.0384676
0.0091345
0.0460209
0.00729731
0.0545498
0.00493497
0.0640995
0.00197154
0.0747116
-0.00166873
0.0864949
-0.00618979
0.0992717
-0.0111575
-0.0183887
0.113672
3.02909e-05
0.000694519
0.000162301
0.00220873
0.000448272
0.00375294
0.000935976
0.00522323
0.00166601
0.00654503
0.00267531
0.00766515
0.00400147
0.00854874
0.00568642
0.00917582
0.00777863
0.00953658
0.0103339
0.00962599
0.0134149
0.00943877
0.01709
0.00896513
0.0214316
0.0081878
0.0265146
0.00708031
0.032416
0.00560593
0.0392136
0.00371861
0.0469824
0.00136567
0.0558047
-0.00152497
0.0657545
-0.00501488
0.0769137
-0.00918766
0.0893116
-0.0140666
0.103075
-0.0199533
0.11795
-0.0260319
-0.0349658
0.134527
4.38067e-06
0.000690138
0.000102658
0.00211045
0.000374596
0.003481
0.000887195
0.00471063
0.00169564
0.00573658
0.00284797
0.00651282
0.00439012
0.00700659
0.00637029
0.00719565
0.00884216
0.0070647
0.0118669
0.00660128
0.0155138
0.00579185
0.0198605
0.00461839
0.0249923
0.00305604
0.0310001
0.00107245
0.0379816
-0.00137549
0.0460354
-0.00433523
0.0552616
-0.00786056
0.0657463
-0.0120096
0.0775658
-0.0168344
0.0907688
-0.0223907
0.105355
-0.028653
0.121298
-0.0358958
0.138379
-0.0431129
-0.0532297
0.156643
-3.57949e-05
0.000725933
-1.3218e-06
0.00207598
0.000215253
0.00326443
0.000703681
0.0042222
0.00153778
0.00490249
0.00278227
0.00526833
0.00449906
0.0052898
0.00675253
0.00494218
0.00961369
0.00420354
0.0131627
0.00305225
0.0174901
0.00146449
0.0226959
-0.0005874
0.0288877
-0.00313576
0.0361766
-0.00621644
0.044669
-0.00986796
0.0544611
-0.0141273
0.0656266
-0.0190261
0.0782035
-0.0245865
0.0921824
-0.0308133
0.107486
-0.0376939
0.123982
-0.0451492
0.141362
-0.0532761
0.159507
-0.0612576
-0.0713142
0.177591
-7.48337e-05
0.000800767
-9.96641e-05
0.00210081
7.13447e-05
0.00309342
0.000553792
0.00373975
0.00144573
0.00401056
0.00283672
0.00387733
0.00481519
0.00331134
0.00747404
0.00228332
0.0109141
0.000763439
0.0152451
-0.00127869
0.020583
-0.00387346
0.0270456
-0.00704997
0.0347434
-0.0108336
0.0437697
-0.0152427
0.0541872
-0.0202854
0.0660153
-0.0259554
0.0792172
-0.0322281
0.09369
-0.0390592
0.109254
-0.0463776
0.125656
-0.0540959
0.142576
-0.062069
0.15953
-0.0702303
0.176365
-0.0780928
-0.086702
0.191753
-9.61294e-05
0.000896896
-0.000137222
0.0021419
5.51798e-05
0.00290102
0.000625416
0.00316952
0.00170232
0.00293365
0.00340864
0.00217101
0.0058675
0.000852481
0.00920651
-0.00105569
0.0135565
-0.00358655
0.0190464
-0.00676863
0.0257942
-0.0106213
0.0338941
-0.0151498
0.0434022
-0.0203416
0.0543221
-0.0261627
0.0665927
-0.0325561
0.0800797
-0.0394423
0.0945715
-0.0467199
0.109785
-0.0542722
0.125368
-0.0619613
0.140942
-0.06967
0.156087
-0.0772137
0.17044
-0.0845831
0.183735
-0.0913876
-0.0980261
0.195059
-8.65508e-05
-7.01165e-05
0.00025575
0.00106678
0.00252552
0.00479099
0.0080179
0.0123582
0.0179488
0.024899
0.033274
0.0430782
0.0542425
0.0666161
0.0799672
0.0939905
0.108323
0.122568
0.13632
0.149205
0.160897
0.171258
0.180173
0.188444
-0.00607706
0.0416702
-0.0475505
0.000559968
0.0358319
-0.0424689
0.00787866
0.0270846
-0.0344033
0.01577
0.0153192
-0.0232106
0.0240202
0.000580752
-0.00883093
0.032505
-0.0169682
0.00848345
0.0411037
-0.0369965
0.0283978
0.049592
-0.0587157
0.0502274
0.0577688
-0.0807934
0.0726166
0.0653421
-0.101445
0.0938712
0.071837
-0.118806
0.112312
0.0766276
-0.131548
0.126757
0.0789903
-0.139394
0.137032
0.0782529
-0.143517
0.144255
0.0744798
-0.146256
0.150029
0.0693333
-0.149128
0.154275
0.065941
-0.149934
0.153326
0.0672592
-0.142251
0.140933
0.0741534
-0.119207
0.112313
0.0853307
-0.0786139
0.0674366
0.0988448
-0.024565
0.0110509
0.112718
0.0345251
-0.048398
0.125302
0.0887692
-0.101354
0.135119
0.130454
-0.140271
0.141509
0.157433
-0.163823
0.144893
0.171602
-0.174986
0.145787
0.17716
-0.178054
0.143735
0.181373
-0.179321
0.138283
0.1916
-0.186148
0.131004
0.204893
-0.197614
0.125507
0.202839
-0.197342
0.124801
0.165127
-0.164422
0.129263
0.0880902
-0.0925513
0.137042
-0.00736618
-0.000413551
0.145233
-0.0959682
0.0877774
0.151891
-0.158217
0.151559
0.156169
-0.19279
0.188512
0.157167
-0.206309
0.205312
0.153555
-0.216266
0.219877
0.145694
-0.229739
0.237601
0.136989
-0.231331
0.240036
0.131989
-0.200478
0.205478
0.132857
-0.116124
0.115256
0.138883
-0.0142572
0.00823138
0.14672
0.0936696
-0.101507
0.15224
0.162495
-0.168015
0.151958
0.220524
-0.220242
0.146193
0.260934
-0.255168
0.139354
0.269602
-0.262763
0.136634
0.241136
-0.238416
0.13964
0.113004
-0.116011
0.145384
0.0177838
-0.0235278
0.148036
-0.125591
0.12294
0.146055
-0.198635
0.200615
0.142622
-0.269472
0.272905
0.141281
-0.31739
0.318731
0.141705
-0.177252
0.176827
0.141713
-0.147172
0.147164
0.140127
0.119374
-0.117788
0.225277
-0.223526
0.0205412
0.0351562
0.0274073
0.0289658
0.0345458
0.019946
0.0418041
0.00806098
0.0490474
-0.00666257
0.05617
-0.0240908
0.0630883
-0.0439148
0.069698
-0.0653254
0.0758243
-0.0869198
0.081175
-0.106795
0.0853557
-0.122987
0.0879448
-0.134137
0.0884967
-0.139946
0.0864032
-0.141424
0.0811356
-0.140989
0.0733512
-0.141344
0.0657604
-0.142343
0.0622194
-0.13871
0.0652882
-0.122276
0.0747112
-0.0880369
0.0883623
-0.0382161
0.103741
0.0191462
0.118486
0.0740247
0.130685
0.118255
0.139426
0.148692
0.144901
0.166127
0.147378
0.174682
0.146478
0.182274
0.142206
0.195872
0.13638
0.21072
0.132163
0.207055
0.13184
0.16545
0.135599
0.0843315
0.141942
-0.0137088
0.148391
-0.102417
0.153219
-0.163046
0.155866
-0.195437
0.155777
-0.20622
0.151576
-0.212064
0.14328
-0.221444
0.134086
-0.222136
0.128883
-0.195276
0.130199
-0.117439
0.137271
-0.0213291
0.146229
0.0847118
0.152514
0.156209
0.15276
0.220278
0.147334
0.26636
0.1407
0.276236
0.137767
0.244068
0.140379
0.110393
0.145949
0.012214
0.148525
-0.128167
0.146454
-0.196564
0.142793
-0.26581
0.141414
-0.316011
0.141647
-0.177484
0.141406
-0.146931
0.139687
0.121094
0.227084
0.0481546
0.0286469
0.0548499
0.0222705
0.0615184
0.0132776
0.0679736
0.00160578
0.074161
-0.01285
0.0799232
-0.029853
0.0852396
-0.0492312
0.0900216
-0.0701074
0.0940921
-0.0909903
0.0971721
-0.109875
0.0989311
-0.124746
0.0991097
-0.134316
0.0976187
-0.138455
0.0942539
-0.138059
0.0883369
-0.135072
0.079454
-0.132461
0.0691279
-0.132017
0.0611918
-0.130774
0.0597132
-0.120797
0.0661526
-0.0944763
0.0789201
-0.0509837
0.0950965
0.0029699
0.111555
0.0575666
0.125958
0.103851
0.137056
0.137594
0.14469
0.158494
0.148882
0.17049
0.1494
0.181756
0.146647
0.198625
0.142475
0.214891
0.139468
0.210063
0.139281
0.165636
0.142056
0.0815566
0.146736
-0.0183883
0.15134
-0.107022
0.154353
-0.166058
0.155416
-0.1965
0.154333
-0.205137
0.14974
-0.207472
0.141257
-0.212961
0.131716
-0.212595
0.126256
-0.189816
0.127852
-0.119036
0.13577
-0.0292474
0.145726
0.0747561
0.152788
0.149147
0.153679
0.219388
0.148725
0.271314
0.142359
0.282603
0.139184
0.247244
0.141294
0.108282
0.146623
0.00688454
0.149129
-0.130673
0.146963
-0.194398
0.143018
-0.261866
0.141584
-0.314577
0.14169
-0.17759
0.141256
-0.146497
0.139414
0.122935
0.228942
0.0746722
0.0223476
0.0809913
0.0159514
0.087034
0.00723489
0.0929417
-0.00430193
0.098133
-0.0180413
0.102734
-0.0344544
0.106653
-0.0531497
0.109739
-0.0731934
0.111782
-0.0930337
0.112536
-0.110629
0.111806
-0.124016
0.109555
-0.132065
0.105952
-0.134852
0.101215
-0.133323
0.0950279
-0.128885
0.0863996
-0.123833
0.0752485
-0.120866
0.0642558
-0.119782
0.0581595
-0.114701
0.0604787
-0.0967954
0.0710228
-0.0615278
0.0869904
-0.0129976
0.104565
0.0399917
0.120894
0.0875223
0.134276
0.124212
0.144096
0.148673
0.150133
0.164453
0.152326
0.179563
0.151368
0.199583
0.148966
0.217293
0.147096
0.211932
0.146848
0.165884
0.148445
0.0799591
0.151317
-0.0212601
0.154039
-0.109744
0.155291
-0.16731
0.154831
-0.196039
0.15281
-0.203117
0.147976
-0.202637
0.139548
-0.204534
0.129846
-0.202892
0.124095
-0.184064
0.125774
-0.120715
0.134323
-0.0377965
0.145162
0.0639167
0.153027
0.141283
0.154691
0.217723
0.150357
0.275649
0.144333
0.288626
0.1409
0.250677
0.142405
0.106778
0.147387
0.00190221
0.149828
-0.133114
0.14757
-0.19214
0.143293
-0.257589
0.141772
-0.313056
0.141819
-0.177637
0.141247
-0.145925
0.1393
0.124882
0.230845
0.0985967
0.0161254
0.104661
0.00988724
0.110287
0.00160912
0.115585
-0.00960003
0.120084
-0.0225401
0.12376
-0.0381308
0.126435
-0.0558249
0.127875
-0.0746333
0.127848
-0.0930069
0.12621
-0.10899
0.123002
-0.120808
0.118468
-0.127531
0.112963
-0.129347
0.106897
-0.127257
0.1004
-0.122388
0.0926615
-0.116094
0.0824689
-0.110673
0.0705386
-0.107851
0.0608456
-0.105008
0.0584158
-0.0943656
0.0653816
-0.0684936
0.079748
-0.027364
0.0976639
0.0220758
0.115464
0.0697223
0.130906
0.10877
0.142845
0.136734
0.150816
0.156483
0.154897
0.175482
0.155954
0.198526
0.155436
0.217811
0.154648
0.212721
0.154251
0.166282
0.154536
0.0796739
0.155571
-0.0222951
0.156412
-0.110584
0.155979
-0.166878
0.154085
-0.194145
0.151187
-0.200219
0.146227
-0.197677
0.138076
-0.196382
0.128415
-0.193232
0.122366
-0.178015
0.12393
-0.122279
0.132878
-0.0467437
0.144476
0.0523183
0.153176
0.132583
0.155753
0.215146
0.152191
0.279211
0.146601
0.294216
0.142901
0.254377
0.143695
0.105984
0.148245
-0.00264739
0.1506
-0.13547
0.148265
-0.189804
0.143612
-0.252936
0.141965
-0.311409
0.142019
-0.177691
0.141367
-0.145273
0.139336
0.126913
0.232779
0.119761
0.0100361
0.125454
0.0041946
0.131214
-0.00415107
0.135844
-0.0142295
0.139658
-0.0263544
0.142409
-0.0408818
0.1438
-0.057216
0.143532
-0.0743654
0.141407
-0.0908812
0.137429
-0.105012
0.131888
-0.115268
0.125309
-0.120951
0.118249
-0.122287
0.111157
-0.120164
0.104328
-0.11556
0.097441
-0.109207
0.0891248
-0.102357
0.0783799
-0.0971065
0.0671459
-0.093774
0.0604278
-0.0876476
0.0626426
-0.0707084
0.0739433
-0.0386647
0.0910595
0.00495966
0.109648
0.0511339
0.126755
0.0916633
0.140637
0.122852
0.15056
0.146559
0.156673
0.169369
0.1599
0.195299
0.16135
0.21636
0.161699
0.212372
0.161127
0.166854
0.160126
0.0806747
0.159371
-0.02154
0.15838
-0.109593
0.156361
-0.164859
0.153146
-0.19093
0.149426
-0.196499
0.144417
-0.192668
0.136727
-0.188692
0.12732
-0.183826
0.121014
-0.171709
0.122273
-0.123538
0.131366
-0.0558367
0.143593
0.0400906
0.153165
0.123011
0.156795
0.211517
0.154162
0.281843
0.149108
0.299271
0.145156
0.258328
0.145159
0.105982
0.149171
-0.00665986
0.151415
-0.137714
0.149029
-0.187418
0.14397
-0.247877
0.142151
-0.30959
0.142273
-0.177813
0.141597
-0.144597
0.139511
0.129
0.234728
0.139989
0.00457381
0.14543
-0.00124653
0.150341
-0.0090624
0.154198
-0.018086
0.157019
-0.0291752
0.158502
-0.0423648
0.158284
-0.0569984
0.156078
-0.0721594
0.151789
-0.086592
0.145609
-0.0988326
0.138046
-0.107704
0.129809
-0.112715
0.121593
-0.114071
0.113859
-0.11243
0.10685
-0.108551
0.100545
-0.102901
0.0940786
-0.0958905
0.085808
-0.0888359
0.075449
-0.083415
0.066243
-0.0784415
0.0635371
-0.0680024
0.0702906
-0.0454182
0.085068
-0.00981777
0.103446
0.0327562
0.121647
0.0734619
0.1372
0.107299
0.149024
0.134735
0.157238
0.161155
0.162721
0.189817
0.166193
0.212888
0.167708
0.210857
0.167109
0.167453
0.165007
0.0827762
0.162597
-0.0191302
0.159863
-0.106858
0.156373
-0.161369
0.151974
-0.186532
0.147492
-0.192017
0.142474
-0.18765
0.135382
-0.1816
0.12643
-0.174874
0.119943
-0.165222
0.120737
-0.124332
0.129719
-0.0648187
0.142435
0.0273751
0.152909
0.112536
0.157728
0.206698
0.156186
0.283385
0.151779
0.303677
0.147598
0.26251
0.146779
0.106801
0.15014
-0.0100215
0.152242
-0.139815
0.149842
-0.185019
0.144362
-0.242397
0.142319
-0.307547
0.142563
-0.178057
0.141922
-0.143956
0.139814
0.131107
0.236668
0.16071
0.00050685
0.16485
-0.0053865
0.168192
-0.0124054
0.170516
-0.0204098
0.17168
-0.0303393
0.171325
-0.042009
0.169081
-0.0547543
0.164752
-0.067831
0.158387
-0.080227
0.150346
-0.090791
0.141277
-0.0986359
0.131956
-0.103394
0.123077
-0.105192
0.115086
-0.104438
0.108138
-0.101603
0.102242
-0.0970058
0.0970622
-0.0907108
0.09134
-0.0831137
0.0835709
-0.0756459
0.074475
-0.0693456
0.0682459
-0.0617734
0.0697706
-0.0469429
0.0803496
-0.0203967
0.0970545
0.0160512
0.11547
0.0550465
0.132294
0.0904747
0.145908
0.121121
0.156235
0.150829
0.163995
0.182057
0.169504
0.207378
0.172216
0.208145
0.171724
0.167946
0.168884
0.0856154
0.16509
-0.0153363
0.160769
-0.102537
0.155943
-0.156543
0.150517
-0.181106
0.145342
-0.186842
0.140323
-0.18263
0.133919
-0.175195
0.125595
-0.16655
0.119033
-0.15866
0.119252
-0.124552
0.127873
-0.0734388
0.140924
0.0143234
0.152317
0.101144
0.158447
0.200567
0.158151
0.283682
0.15451
0.307318
0.150162
0.266858
0.148508
0.108455
0.151128
-0.0126419
0.153044
-0.141731
0.150681
-0.182656
0.144778
-0.236494
0.14246
-0.305229
0.142874
-0.178471
0.142321
-0.143403
0.140234
0.133194
0.238569
0.179798
-0.00169965
0.181706
-0.00729503
0.182838
-0.0135366
0.183006
-0.020578
0.182015
-0.0293485
0.179478
-0.0394719
0.17511
-0.0503861
0.168841
-0.0615623
0.16084
-0.0722265
0.151561
-0.0815121
0.141682
-0.0887563
0.131931
-0.0936426
0.122913
-0.096174
0.115003
-0.0965291
0.108319
-0.0949184
0.10282
-0.0915062
0.0983972
-0.0862884
0.0944826
-0.0791991
0.0896491
-0.0708123
0.0828366
-0.0625331
0.0757335
-0.0546704
0.0729048
-0.0441142
0.0781443
-0.0256362
0.0912525
0.00294299
0.108451
0.0378481
0.125814
0.0731112
0.140959
0.105976
0.153365
0.138422
0.163462
0.171961
0.171061
0.199779
0.175019
0.204187
0.174799
0.168166
0.171498
0.088916
0.166702
-0.0105397
0.160992
-0.0968274
0.154966
-0.150517
0.148683
-0.174823
0.142906
-0.181065
0.137873
-0.177598
0.132211
-0.169533
0.124664
-0.159003
0.118144
-0.15214
0.117732
-0.12414
0.125768
-0.081475
0.138994
0.00109789
0.151293
0.088845
0.158845
0.193015
0.159945
0.282581
0.157189
0.310075
0.152752
0.271295
0.150303
0.110903
0.152103
-0.0144417
0.153786
-0.143414
0.151515
-0.180384
0.145209
-0.230188
0.142567
-0.302587
0.143192
-0.179096
0.142778
-0.142989
0.140758
0.135214
0.240395
0.192197
-0.0021433
0.192068
-0.00716665
0.190979
-0.0124468
0.189046
-0.0186458
0.186045
-0.0263476
0.181623
-0.035049
0.175622
-0.0443854
0.168071
-0.0540119
0.159201
-0.0633556
0.149471
-0.0717826
0.139496
-0.0787811
0.129891
-0.0840375
0.121144
-0.087427
0.113553
-0.0889388
0.107231
-0.088596
0.102147
-0.0864223
0.0982356
-0.0823769
0.0953463
-0.0763099
0.0927446
-0.0682106
0.0890134
-0.0588019
0.0836447
-0.0493017
0.07902
-0.0394895
0.0794551
-0.0260713
0.0875147
-0.00511657
0.101589
0.0237742
0.118164
0.0565357
0.134205
0.0899353
0.14846
0.124167
0.160776
0.159646
0.170459
0.190096
0.175863
0.198783
0.176196
0.167832
0.172835
0.0922772
0.167402
-0.00510735
0.160497
-0.0899219
0.153372
-0.143393
0.146395
-0.167846
0.140133
-0.174803
0.135063
-0.172528
0.130156
-0.164626
0.123522
-0.152368
0.117158
-0.145776
0.116087
-0.123069
0.12335
-0.0887386
0.13659
-0.0121421
0.149757
0.0756786
0.158797
0.183974
0.161413
0.279965
0.159676
0.311812
0.15527
0.2757
0.152114
0.11406
0.153035
-0.015363
0.154438
-0.144816
0.15231
-0.178256
0.145648
-0.223526
0.142642
-0.299582
0.143508
-0.179962
0.143276
-0.142757
0.141379
0.137111
0.242107
0.194581
-0.00166518
0.19311
-0.00569571
0.190658
-0.00999494
0.187471
-0.0154594
0.183278
-0.0221542
0.177857
-0.0296277
0.171161
-0.0376897
0.163259
-0.0461096
0.154387
-0.0544838
0.144959
-0.0623548
0.135482
-0.0693035
0.126443
-0.0749993
0.118228
-0.0792118
0.111078
-0.0817889
0.105108
-0.0826256
0.100338
-0.0816524
0.0967439
-0.0787829
0.0943225
-0.0738885
0.0929171
-0.0668052
0.0916673
-0.0575522
0.0892617
-0.0468961
0.0857353
-0.035963
0.0837909
-0.0241269
0.0871238
-0.00844946
0.0965693
0.0143287
0.110548
0.0425571
0.126223
0.0742599
0.141787
0.108603
0.15634
0.145093
0.168288
0.178148
0.175077
0.191995
0.176027
0.166882
0.173069
0.0952357
0.167394
0.000567121
0.159536
-0.0820637
0.151397
-0.135254
0.143857
-0.160305
0.137222
-0.168168
0.13204
-0.167346
0.127799
-0.160385
0.122159
-0.146727
0.116057
-0.139675
0.114288
-0.1213
0.120581
-0.0950323
0.133666
-0.0252271
0.147617
0.0617285
0.158246
0.173345
0.162505
0.275706
0.161868
0.312449
0.157609
0.279959
0.153916
0.117753
0.153915
-0.0153616
0.154993
-0.145895
0.153048
-0.176311
0.146093
-0.216571
0.142706
-0.296195
0.143826
-0.181083
0.143798
-0.142728
0.142086
0.138823
0.243658
0.187569
-0.000790249
0.18554
-0.00366632
0.182896
-0.00735113
0.179544
-0.0121076
0.175207
-0.0178168
0.169858
-0.0242783
0.163505
-0.0313367
0.156216
-0.0388209
0.148201
-0.0464691
0.139794
-0.0539477
0.131387
-0.0608965
0.123356
-0.0669686
0.116003
-0.0718586
0.109531
-0.0753167
0.104048
-0.0771429
0.0995993
-0.0772034
0.0961978
-0.0753814
0.0938629
-0.0715536
0.0926586
-0.0656009
0.0924172
-0.0573108
0.0922216
-0.0467006
0.091002
-0.0347434
0.0893161
-0.022441
0.0896161
-0.00874945
0.0947502
0.00919455
0.104739
0.032568
0.118131
0.0608683
0.133295
0.0934387
0.148956
0.129432
0.162696
0.164408
0.171272
0.183419
0.174015
0.164138
0.172405
0.0968456
0.166974
0.00599816
0.158151
-0.0732402
0.149193
-0.126296
0.141299
-0.152412
0.134424
-0.161294
0.129036
-0.161957
0.125264
-0.156614
0.120615
-0.142077
0.114872
-0.133933
0.112389
-0.118816
0.117672
-0.100315
0.130313
-0.0378688
0.144856
0.0471863
0.156927
0.161273
0.162928
0.269706
0.163577
0.3118
0.159678
0.283857
0.15564
0.121792
0.154711
-0.0144331
0.155438
-0.146622
0.153709
-0.174582
0.146538
-0.2094
0.142765
-0.292422
0.144139
-0.182457
0.14434
-0.142929
0.142873
0.14029
0.245002
0.209804
-6.15307e-05
-0.210533
0.209805
-0.00366678
0.209716
-0.00726209
0.209267
-0.0116589
0.208309
-0.0168588
0.206722
-0.022691
0.204408
-0.0290229
0.201278
-0.0356908
0.197295
-0.0424856
0.192495
-0.0491484
0.186979
-0.0553801
0.180881
-0.060871
0.174354
-0.0653309
0.167551
-0.0685137
0.16062
-0.0702125
0.153698
-0.0702809
0.146906
-0.0685892
0.14034
-0.0649876
0.134115
-0.0593761
0.12839
-0.0515865
0.122989
-0.0412994
0.117115
-0.0288695
0.11023
-0.015556
0.103476
-0.00199473
0.098636
0.0140342
0.0975215
0.0336826
0.100306
0.0580837
0.106268
0.0874771
0.114583
0.121117
0.124624
0.154367
0.137453
0.17059
0.154416
0.147176
0.171676
0.0795848
0.182288
-0.00461364
0.184893
-0.075845
0.181059
-0.122462
0.173864
-0.145216
0.165229
-0.152659
0.156753
-0.153481
0.149419
-0.14928
0.141707
-0.134366
0.132746
-0.124971
0.125699
-0.111768
0.124152
-0.0987692
0.128229
-0.0419453
0.133506
0.0419091
0.137444
0.157335
0.139748
0.267402
0.142325
0.309223
0.145984
0.280199
0.149938
0.117838
0.15353
-0.018026
0.155328
-0.148419
0.152729
-0.171982
0.145041
-0.201712
0.138422
-0.285803
0.136319
-0.180353
0.133216
-0.139826
0.130019
0.143487
0.246167
0.219603
0.000321022
-0.219986
0.219195
-0.00325918
0.218906
-0.00697274
0.218316
-0.0110686
0.217201
-0.0157443
0.215483
-0.0209721
0.213085
-0.0266249
0.209942
-0.0325487
0.206025
-0.0385679
0.201349
-0.0444732
0.195988
-0.0500185
0.190055
-0.0549381
0.183695
-0.0589713
0.177069
-0.0618874
0.170337
-0.0634808
0.163647
-0.0635909
0.157132
-0.0620744
0.150902
-0.0587577
0.145038
-0.0535113
0.139671
-0.04622
0.134896
-0.0365247
0.130321
-0.024294
0.125123
-0.0103578
0.118984
0.00414366
0.11347
0.0195489
0.110357
0.0367947
0.111137
0.0573044
0.116093
0.0825205
0.124581
0.112629
0.136123
0.142825
0.151817
0.154895
0.171079
0.127914
0.188531
0.0621327
0.198084
-0.0141673
0.198913
-0.0766738
0.19347
-0.117018
0.185118
-0.136865
0.17578
-0.143322
0.166707
-0.144408
0.15905
-0.141622
0.151473
-0.126789
0.142572
-0.116071
0.134902
-0.104098
0.132585
-0.0964523
0.136306
-0.0456662
0.141898
0.0363167
0.146541
0.152693
0.14983
0.264112
0.153582
0.305471
0.158155
0.275626
0.16241
0.113584
0.165616
-0.0212319
0.166781
-0.149585
0.16377
-0.168971
0.155101
-0.193043
0.147608
-0.278311
0.145233
-0.177978
0.141905
-0.136498
0.138491
0.146901
0.247335
0.228758
0.000410265
-0.228847
0.228409
-0.00291059
0.227947
-0.00651112
0.227207
-0.0103286
0.226008
-0.0145452
0.224242
-0.0192055
0.221845
-0.0242285
0.218775
-0.0294784
0.215007
-0.0347996
0.21055