/*--------------------------------*- C++ -*----------------------------------*\
| =========                 |                                                 |
| \\      /  F ield         | OpenFOAM: The Open Source CFD Toolbox           |
|  \\    /   O peration     | Version:  2512                                  |
|   \\  /    A nd           | Website:  www.openfoam.com                      |
|    \\/     M anipulation  |                                                 |
\*---------------------------------------------------------------------------*/
FoamFile
{
    version     2.0;
    format      ascii;
    arch        "LSB;label=32;scalar=64";
    class       volVectorField;
    location    "57";
    object      U;
}
// * * * * * * * * * * * * * * * * * * * * * * * * * * * * * * * * * * * * * //

dimensions      [0 1 -1 0 0 0 0];

internalField   nonuniform List<vector> 
13248
(
(-0.0128622 0.0120435 7.17225e-20)
(-0.0242166 0.0261608 0)
(-0.0214547 0.0343331 -1.35556e-19)
(-0.00544356 0.0382653 1.27694e-19)
(0.0231801 0.039406 1.19531e-19)
(0.0639262 0.0389515 0)
(0.116333 0.0378384 0)
(0.179843 0.0367876 2.89999e-19)
(0.253655 0.036323 -7.11336e-22)
(0.336579 0.036785 -2.54645e-19)
(0.426938 0.0383324 2.38176e-19)
(0.522554 0.0409479 -1.4909e-19)
(0.62081 0.0444541 0)
(0.718811 0.0485418 -2.60909e-19)
(0.813578 0.0528107 4.88595e-19)
(0.902281 0.0568178 -1.16182e-19)
(0.982449 0.0601336 -2.10592e-19)
(1.05216 0.0623678 1.97698e-19)
(1.11016 0.0633034 0)
(1.15589 0.0625274 0)
(1.18978 0.060783 0)
(1.21181 0.0554904 0)
(1.22528 0.0536167 6.11392e-20)
(1.22739 0.0364944 2.22235e-19)
(-0.0124375 0.0103211 -2.1652e-19)
(-0.0194277 0.0205897 1.47533e-19)
(-0.00908919 0.0255969 -1.30921e-21)
(0.0173314 0.0273074 -1.94918e-19)
(0.0589736 0.027324 -1.19404e-19)
(0.115084 0.0269316 -1.12936e-19)
(0.184747 0.0270794 -2.08044e-19)
(0.266678 0.0284222 1.96629e-19)
(0.359033 0.0313435 0)
(0.459317 0.0359593 5.24645e-22)
(0.564416 0.0421265 9.79196e-22)
(0.670764 0.0494725 1.48693e-19)
(0.774623 0.0574498 0)
(0.872403 0.0654106 0)
(0.960979 0.0726926 1.7871e-19)
(1.03795 0.0787022 -3.35769e-19)
(1.10179 0.0829828 2.03074e-19)
(1.15197 0.0852594 -1.90653e-19)
(1.18883 0.0854543 -8.46908e-20)
(1.21356 0.0836599 -1.56096e-19)
(1.22778 0.0802124 -6.57241e-20)
(1.23375 0.0750839 -1.23892e-19)
(1.23311 0.0705481 1.80341e-19)
(1.22811 0.0611775 5.20319e-20)
(-0.0111323 0.0083615 0)
(-0.011396 0.0146945 0)
(0.00944239 0.0169859 6.89446e-20)
(0.0495408 0.017311 6.35496e-20)
(0.107558 0.0173538 -1.46251e-21)
(0.182106 0.0184319 -1.16405e-19)
(0.271301 0.0214125 0)
(0.372515 0.0267415 -9.7877e-20)
(0.482272 0.0344667 9.21427e-20)
(0.596351 0.0442615 5.03519e-22)
(0.710099 0.0554839 -1.58753e-19)
(0.818876 0.0672767 -1.46676e-19)
(0.918528 0.0786971 1.81518e-21)
(1.00579 0.0888531 -1.23722e-19)
(1.07857 0.0970219 2.95204e-19)
(1.13602 0.102731 0)
(1.17851 0.105793 -1.95462e-19)
(1.20743 0.106288 9.47667e-20)
(1.22485 0.104541 8.46172e-20)
(1.23317 0.100935 0)
(1.23489 0.096214 7.0238e-20)
(1.23205 0.0902266 -2.43066e-19)
(1.22642 0.0854731 2.28177e-19)
(1.21985 0.0765438 1.45417e-19)
(-0.00853017 0.00610098 -7.6364e-20)
(0.000884991 0.00852259 -7.89251e-20)
(0.035518 0.008833 7.14542e-20)
(0.0926663 0.00898187 0)
(0.170106 0.0105826 0)
(0.265246 0.0148368 -2.38341e-21)
(0.374558 0.0223272 0)
(0.493433 0.0330357 -2.98797e-19)
(0.616376 0.0464085 2.78125e-19)
(0.737487 0.0614662 -3.44273e-19)
(0.85114 0.0769751 7.9347e-20)
(0.952633 0.0916553 0)
(1.03868 0.104383 1.33844e-19)
(1.10766 0.114342 -2.4865e-19)
(1.15956 0.121106 5.91756e-20)
(1.19576 0.12464 1.54638e-19)
(1.21859 0.125231 -5.51423e-21)
(1.23086 0.123392 -1.72863e-19)
(1.23541 0.119729 0)
(1.23477 0.114846 0)
(1.23092 0.109327 -6.33755e-20)
(1.22522 0.103316 5.72619e-20)
(1.21868 0.0983168 2.07868e-19)
(1.21176 0.090366 -1.95143e-19)
(-0.00419655 0.00357263 -8.03505e-20)
(0.0183873 0.00233672 -8.01021e-20)
(0.0702925 0.00173132 2.25352e-19)
(0.147611 0.00327076 -1.36851e-19)
(0.246667 0.00824999 1.28815e-19)
(0.362943 0.0174863 2.34449e-19)
(0.490579 0.0309554 -1.65746e-19)
(0.622607 0.0478512 -2.02406e-19)
(0.751671 0.0667862 3.43701e-21)
(0.87098 0.0860698 2.60061e-19)
(0.975201 0.104027 0)
(1.06104 0.119281 7.24065e-20)
(1.12739 0.130943 0)
(1.17515 0.138672 -1.20023e-19)
(1.20664 0.142621 1.68986e-19)
(1.22503 0.143301 1.67913e-21)
(1.23369 0.141415 -4.50478e-20)
(1.23567 0.137699 8.50921e-20)
(1.23346 0.132812 7.38451e-20)
(1.22882 0.12727 -6.67509e-20)
(1.2229 0.121477 6.33607e-20)
(1.21639 0.115536 -5.7248e-20)
(1.20961 0.110325 0)
(1.20301 0.10303 -4.41052e-20)
(0.00227783 0.00092954 8.03391e-20)
(0.0419291 -0.00332579 8.42835e-20)
(0.114509 -0.00339382 -7.54957e-20)
(0.214449 0.00141643 1.40712e-19)
(0.335912 0.0117127 -1.32441e-19)
(0.471719 0.0275272 1.20042e-19)
(0.613266 0.0478313 -5.75835e-20)
(0.751451 0.0707568 1.51922e-19)
(0.878015 0.0940453 -9.55903e-20)
(0.986752 0.115527 1.70677e-19)
(1.07422 0.133514 -3.94895e-19)
(1.13978 0.14703 1.45475e-19)
(1.18516 0.155831 -1.2887e-19)
(1.2136 0.160276 1.21046e-19)
(1.229 0.161107 1.05959e-19)
(1.23519 0.159211 9.40577e-20)
(1.23539 0.15544 -2.61866e-19)
(1.23203 0.150499 1.62935e-19)
(1.22675 0.144907 -7.38481e-20)
(1.22056 0.139018 1.94558e-19)
(1.21401 0.13306 -6.26994e-20)
(1.20737 0.12713 -1.55384e-19)
(1.20081 0.121687 1.43848e-19)
(1.19445 0.114877 4.40904e-20)
(0.0112384 -0.00155515 0)
(0.0720543 -0.00766214 7.05024e-22)
(0.168307 -0.00533134 1.57732e-19)
(0.292209 0.00482439 -1.47942e-19)
(0.435022 0.022225 -1.33647e-19)
(0.586422 0.0456312 2.48583e-19)
(0.735268 0.0726688 -1.15534e-19)
(0.871377 0.100366 1.54714e-19)
(0.987222 0.12589 -2.99388e-21)
(1.07888 0.147116 -8.80814e-20)
(1.14598 0.162906 1.93963e-19)
(1.19098 0.173093 -2.86916e-19)
(1.21797 0.178247 0)
(1.23157 0.179347 -5.71089e-20)
(1.23608 0.177481 -1.53859e-19)
(1.23492 0.173629 4.82633e-20)
(1.23058 0.168561 1.66212e-21)
(1.22464 0.162818 -1.09174e-19)
(1.21804 0.156754 5.76228e-21)
(1.21128 0.150588 1.26765e-19)
(1.20458 0.144451 -5.72996e-20)
(1.19804 0.138428 -2.23369e-20)
(1.19166 0.132694 6.78133e-20)
(1.1855 0.126198 0)
(0.0229264 -0.00350704 0)
(0.108912 -0.00967204 4.27565e-20)
(0.231055 -0.0027241 -2.05616e-19)
(0.378757 0.0148377 7.48546e-20)
(0.539831 0.0406513 -7.04505e-20)
(0.700901 0.0717631 -6.45127e-20)
(0.849333 0.104362 -1.14456e-19)
(0.975605 0.134702 5.68727e-20)
(1.07472 0.159981 4.97391e-20)
(1.14623 0.17875 0)
(1.19312 0.190844 1.15159e-19)
(1.22031 0.197032 -1.72254e-19)
(1.23321 0.198559 1.28426e-19)
(1.23668 0.196748 5.71384e-20)
(1.23448 0.192751 -4.74396e-20)
(1.22925 0.18744 -4.02769e-20)
(1.22263 0.18141 -3.79164e-20)
(1.21552 0.175034 1.12184e-19)
(1.20841 0.168536 0)
(1.2015 0.162049 5.76256e-20)
(1.19486 0.155655 4.93541e-20)
(1.18847 0.149412 -1.21534e-19)
(1.18229 0.143341 -8.46264e-20)
(1.17631 0.137026 7.81546e-20)
(0.0374353 -0.00447839 -4.60874e-20)
(0.152153 -0.00826214 -1.72042e-21)
(0.301263 0.00573629 4.18378e-20)
(0.47088 0.0324742 1.17018e-19)
(0.645307 0.0672337 3.41706e-20)
(0.80902 0.105141 -6.59713e-20)
(0.949665 0.141258 6.03039e-20)
(1.06031 0.171738 -5.31116e-20)
(1.13976 0.194524 9.5623e-20)
(1.19129 0.209309 4.10969e-20)
(1.22059 0.217025 -1.16522e-19)
(1.23397 0.219217 3.45718e-20)
(1.23704 0.217513 5.9541e-20)
(1.23409 0.213302 -2.92127e-20)
(1.22804 0.207616 0)
(1.22066 0.20114 4.44233e-20)
(1.21294 0.194292 7.59265e-20)
(1.20535 0.187313 1.3542e-20)
(1.19807 0.180341 -6.37768e-20)
(1.19118 0.173456 2.69953e-20)
(1.18464 0.166711 0)
(1.17841 0.160135 -2.15804e-20)
(1.17241 0.153693 -2.06449e-20)
(1.16659 0.147401 0)
(0.0546617 -0.00398484 0)
(0.200856 -0.0023721 2.41468e-20)
(0.376597 0.0211094 4.46888e-20)
(0.56458 0.058224 -1.19336e-19)
(0.746263 0.101525 3.85378e-20)
(0.905657 0.144425 0)
(1.03274 0.181568 5.84102e-20)
(1.12462 0.209828 -8.16106e-20)
(1.1843 0.228459 -4.77781e-20)
(1.21815 0.23846 2.16731e-20)
(1.23351 0.24171 -3.50696e-20)
(1.23698 0.24023 8.49581e-20)
(1.23362 0.235751 4.30178e-20)
(1.22684 0.229542 -2.96775e-20)
(1.21868 0.222432 -2.55676e-21)
(1.21024 0.214915 -8.30825e-20)
(1.20204 0.207267 3.79617e-20)
(1.19428 0.199638 -9.81166e-22)
(1.18702 0.19211 0)
(1.18023 0.184735 -2.70235e-20)
(1.17385 0.177546 0)
(1.16781 0.170541 6.23489e-20)
(1.16201 0.163709 -7.46438e-20)
(1.15635 0.157293 3.41745e-20)
(0.0742653 -0.00154716 -1.25964e-20)
(0.253516 0.00890532 -6.08534e-20)
(0.454039 0.0440519 6.92476e-20)
(0.655537 0.0919618 4.07731e-20)
(0.838073 0.142488 -1.94453e-20)
(0.987298 0.188009 3.28855e-20)
(1.09725 0.223694 -1.59357e-20)
(1.16973 0.247856 2.67115e-20)
(1.21145 0.261327 0)
(1.23088 0.266307 6.11435e-20)
(1.23591 0.265324 -2.35839e-21)
(1.23267 0.260582 -4.96601e-20)
(1.22535 0.253706 2.14166e-20)
(1.21641 0.245752 -2.43688e-20)
(1.20718 0.237339 -9.43673e-21)
(1.19827 0.228801 1.07489e-20)
(1.18992 0.22031 -8.40763e-21)
(1.18218 0.211956 -4.6064e-20)
(1.17504 0.203791 2.826e-20)
(1.16843 0.195847 5.85761e-21)
(1.16226 0.188136 5.20274e-21)
(1.15644 0.180639 4.62487e-21)
(1.15087 0.173411 0)
(1.14538 0.166711 0)
(0.0957243 0.0032753 1.26051e-20)
(0.308242 0.0262354 -1.261e-20)
(0.530316 0.0747245 -2.3082e-20)
(0.739754 0.13297 0)
(0.917252 0.188699 -9.66708e-21)
(1.05213 0.2343 -8.73604e-21)
(1.14353 0.266394 -1.50158e-20)
(1.19775 0.285178 0)
(1.22428 0.293044 0)
(1.23262 0.293114 0)
(1.23039 0.288249 0)
(1.22287 0.280603 0)
(1.21323 0.271585 -1.34772e-20)
(1.20319 0.262012 6.14676e-21)
(1.19351 0.252319 1.07769e-20)
(1.18449 0.242719 5.05475e-21)
(1.17621 0.233314 1.26142e-20)
(1.16864 0.224155 0)
(1.16173 0.215273 -3.08537e-21)
(1.15539 0.206685 -2.9702e-21)
(1.14952 0.198385 -5.21102e-21)
(1.14401 0.190354 -4.63225e-21)
(1.13872 0.182728 0)
(1.1335 0.175599 3.40667e-21)
(-0.00159827 0.0167147 7.40585e-21)
(-0.00655548 0.03866 -7.67793e-21)
(-0.0148524 0.0524092 -1.45298e-20)
(-0.0248804 0.0600984 0)
(-0.0357285 0.0634532 -1.93947e-20)
(-0.0469206 0.0638441 6.05914e-21)
(-0.0581197 0.0622984 -1.1536e-20)
(-0.069089 0.0595223 0)
(-0.0796766 0.0559445 0)
(-0.0897888 0.051774 0)
(-0.0993684 0.0470614 0)
(-0.108379 0.0417556 0)
(-0.116792 0.0357495 -9.22047e-23)
(-0.124583 0.0289143 -7.53621e-21)
(-0.131725 0.0211227 1.44122e-20)
(-0.138189 0.0122615 2.02529e-20)
(-0.143927 0.002242 6.50391e-21)
(-0.148878 -0.00897565 0)
(-0.153013 -0.0213897 5.52653e-21)
(-0.15632 -0.0349358 -1.57911e-20)
(-0.158803 -0.0495145 -9.9432e-21)
(-0.160517 -0.0649762 -9.31286e-21)
(-0.161628 -0.0811506 0)
(-0.16241 -0.0978493 0)
(-0.00280096 0.0196583 -2.23645e-20)
(-0.00897082 0.0458205 3.84763e-20)
(-0.0174124 0.0625259 -1.46847e-20)
(-0.0269686 0.0722201 -2.76665e-20)
(-0.036988 0.0768491 3.89976e-20)
(-0.0471388 0.077957 -2.4655e-20)
(-0.0571744 0.0767164 3.47224e-20)
(-0.0669117 0.0739503 2.21128e-20)
(-0.076226 0.0701778 0)
(-0.0850354 0.0656735 -1.94158e-20)
(-0.093286 0.0605322 -1.55225e-22)
(-0.100942 0.0547288 1.71195e-20)
(-0.107975 0.048167 2.47154e-20)
(-0.114362 0.0407173 3.10372e-20)
(-0.120076 0.0322429 -1.42687e-20)
(-0.125086 0.0226206 -4.10501e-20)
(-0.129346 0.011759 1.32526e-20)
(-0.132804 -0.000399096 -4.93362e-20)
(-0.135386 -0.0138478 0)
(-0.137065 -0.0285024 1.05889e-20)
(-0.137843 -0.0441776 9.92999e-21)
(-0.137717 -0.0606051 9.30037e-21)
(-0.136763 -0.077398 0)
(-0.1353 -0.0940371 0)
(-0.0042399 0.0218797 0)
(-0.0118737 0.0514614 7.87469e-20)
(-0.020439 0.0707636 -2.9663e-20)
(-0.029303 0.0823592 2.78957e-20)
(-0.0381135 0.0883019 -7.95811e-20)
(-0.0467041 0.0902405 0)
(-0.0549358 0.0894498 -4.72835e-20)
(-0.0626903 0.0868478 2.23814e-20)
(-0.0698761 0.0830357 -4.24483e-20)
(-0.0764237 0.0783553 2.0427e-20)
(-0.0822792 0.0729523 1.13318e-19)
(-0.0874004 0.0668361 -5.32643e-20)
(-0.0917521 0.0599305 -8.39803e-20)
(-0.0953019 0.052112 -3.2552e-20)
(-0.098016 0.0432392 -4.01294e-22)
(-0.0998562 0.0331742 1.13526e-19)
(-0.100776 0.0218015 -5.34734e-20)
(-0.100718 0.00904404 -8.51659e-22)
(-0.0996201 -0.00510976 0)
(-0.0974118 -0.0205833 -4.58522e-20)
(-0.0940531 -0.037156 0)
(-0.0894949 -0.0544396 -3.8956e-20)
(-0.0835428 -0.0717957 1.49001e-19)
(-0.0765639 -0.0882579 -2.2119e-22)
(-0.00578155 0.0232444 0)
(-0.0150146 0.0552432 5.38313e-22)
(-0.0236809 0.0766289 3.04151e-20)
(-0.0316781 0.0899059 -2.87675e-20)
(-0.0389595 0.0971164 2.6535e-20)
(-0.0455311 0.0999377 1.52611e-19)
(-0.0513694 0.0996972 -4.78253e-20)
(-0.0564289 0.0973781 -4.55897e-20)
(-0.0606558 0.0936493 8.55106e-20)
(-0.0639929 0.0889159 -1.21247e-19)
(-0.0663826 0.0833779 3.83643e-20)
(-0.0677686 0.0770866 3.65232e-20)
(-0.0680965 0.0699949 0)
(-0.0673132 0.0619961 3.21025e-20)
(-0.0653655 0.0529534 0)
(-0.0621987 0.0427228 5.89186e-20)
(-0.0577564 0.0311713 -1.10808e-19)
(-0.0519765 0.0181953 2.49304e-20)
(-0.0447891 0.00374649 9.83985e-20)
(-0.036149 -0.012141 4.58049e-20)
(-0.0260253 -0.0292852 0)
(-0.014377 -0.0472603 -1.22884e-19)
(-0.000761253 -0.0651777 3.81956e-20)
(0.0158838 -0.0812243 0)
(-0.00728834 0.0237102 0)
(-0.018133 0.0569992 -9.71864e-20)
(-0.0268821 0.0798125 -3.08947e-20)
(-0.0338979 0.0944129 -5.78597e-20)
(-0.0394099 0.102725 5.44807e-20)
(-0.0435876 0.106384 -5.1088e-20)
(-0.0465224 0.106716 9.73745e-20)
(-0.0482453 0.104736 4.60169e-20)
(-0.0487437 0.101159 -1.29608e-19)
(-0.0479742 0.0964421 8.23857e-20)
(-0.0458725 0.0908374 -1.16353e-19)
(-0.0423618 0.0844416 2.58759e-19)
(-0.0373584 0.0772442 -1.38913e-19)
(-0.0307756 0.069166 6.66071e-20)
(-0.0225255 0.0600895 1.89299e-19)
(-0.0125221 0.0498814 -5.76921e-20)
(-0.00068643 0.0384111 -5.57871e-20)
(0.0130504 0.0255673 -5.25413e-20)
(0.0287343 0.0112745 0)
(0.0464016 -0.00446938 -9.58406e-20)
(0.0660403 -0.0215484 -9.04395e-20)
(0.0875909 -0.0396384 1.26647e-19)
(0.111613 -0.0577297 1.57034e-19)
(0.140267 -0.0735718 -1.48622e-19)
(-0.00864472 0.0233339 0)
(-0.0209974 0.0567572 -1.3241e-19)
(-0.0298071 0.0802247 -4.94389e-22)
(-0.0357773 0.0956458 1.17188e-19)
(-0.0393519 0.104751 0)
(-0.0408412 0.109072 0)
(-0.040443 0.109893 0)
(-0.0382623 0.108222 -4.64626e-20)
(-0.03433 0.104795 -5.13366e-22)
(-0.0286177 0.100103 8.27833e-20)
(-0.021054 0.094442 -1.18053e-19)
(-0.0115384 0.08795 -4.69474e-22)
(4.74038e-05 0.0806557 0)
(0.0138308 0.0725143 -6.65744e-20)
(0.0299401 0.0634379 6.47186e-20)
(0.0484969 0.0533192 -1.80668e-19)
(0.0696043 0.0420513 2.29401e-19)
(0.0933347 0.0295451 5.61664e-20)
(0.119721 0.0157504 1.55559e-21)
(0.148751 0.0006837 -1.93618e-19)
(0.180294 -0.0155826 -9.1708e-20)
(0.214249 -0.0328418 3.00128e-19)
(0.249789 -0.0504062 -2.01402e-19)
(0.295541 -0.0651685 0)
(-0.0097797 0.0222655 6.55116e-20)
(-0.0234403 0.0547375 6.64422e-20)
(-0.0322572 0.0780136 -6.34178e-20)
(-0.0371215 0.0936168 -1.18715e-19)
(-0.0386191 0.103051 1.11778e-19)
(-0.0371605 0.107718 -1.0545e-19)
(-0.0330328 0.108824 1.49062e-19)
(-0.0264073 0.107336 -4.65571e-20)
(-0.0173534 0.103985 8.83388e-20)
(-0.00585597 0.099278 0)
(0.00816463 0.0935379 8.02183e-20)
(0.0248334 0.0869381 -1.49958e-19)
(0.0443028 0.0795444 1.4306e-19)
(0.0667375 0.0713483 -1.34365e-19)
(0.0922962 0.0622993 0)
(0.121117 0.052328 1.21384e-19)
(0.153299 0.0413669 2.3191e-19)
(0.188877 0.0293713 -2.17524e-19)
(0.2278 0.0163406 -1.03231e-19)
(0.269943 0.00233514 -9.80912e-20)
(0.314843 -0.0125539 2.75092e-19)
(0.363088 -0.0279283 8.56862e-20)
(0.409282 -0.0442349 -8.08083e-20)
(0.475303 -0.0562212 7.35452e-20)
(-0.0106797 0.0207179 -6.55206e-20)
(-0.0253697 0.0513072 2.03794e-19)
(-0.0340656 0.0735318 -6.43242e-20)
(-0.0376921 0.0885815 1.20008e-19)
(-0.0369004 0.0977599 -1.12994e-19)
(-0.0321637 0.102333 3.35697e-22)
(-0.0238299 0.10341 5.01889e-20)
(-0.012117 0.101901 1.89613e-19)
(0.00288136 0.0985063 7.88835e-22)
(0.0211771 0.0937325 -8.36248e-20)
(0.0428629 0.0879158 0)
(0.0680868 0.0812565 -7.60938e-20)
(0.0970229 0.0738551 1.42126e-19)
(0.129847 0.0657439 1.35962e-19)
(0.166705 0.0569141 -6.36408e-20)
(0.207682 0.0473407 -1.37626e-22)
(0.252772 0.0370043 -5.7642e-20)
(0.301846 0.0259127 1.086e-19)
(0.354611 0.0141098 1.03204e-19)
(0.410748 0.00175025 -9.73202e-20)
(0.46888 -0.0112312 9.03858e-20)
(0.531481 -0.0236167 -8.42723e-20)
(0.585501 -0.0380948 0)
(0.669764 -0.0458906 -7.34518e-20)
(-0.011382 0.0189223 6.68699e-20)
(-0.0267501 0.0469045 -6.8276e-20)
(-0.0350455 0.0672709 6.49325e-20)
(-0.0371147 0.0810114 0)
(-0.0336107 0.0892923 0)
(-0.0250304 0.0932678 1.07833e-19)
(-0.0117478 0.0939559 -1.00748e-19)
(0.00600425 0.0922006 9.52572e-20)
(0.028131 0.088664 -4.47016e-19)
(0.0546554 0.0838372 -2.58164e-22)
(0.085681 0.0780637 7.96013e-20)
(0.121355 0.0715678 0)
(0.161825 0.0644827 -1.43142e-19)
(0.207188 0.0568785 2.69989e-19)
(0.257448 0.0487879 -1.9133e-19)
(0.312469 0.0402299 -3.03621e-19)
(0.37194 0.0312285 -1.55898e-21)
(0.435347 0.0218316 2.14254e-19)
(0.50189 0.0120892 0)
(0.570929 0.00228768 0)
(0.639808 -0.00805369 -9.03768e-20)
(0.7128 -0.0165865 8.42632e-20)
(0.770528 -0.0286148 -3.0643e-19)
(0.862965 -0.0313742 2.8736e-19)
(-0.011949 0.0170809 0)
(-0.0275459 0.041951 0)
(-0.0349116 0.0597768 -1.9537e-19)
(-0.034772 0.071525 6.20838e-20)
(-0.0277439 0.0783151 4.04152e-22)
(-0.0143126 0.0812351 1.08756e-19)
(0.00516019 0.0812341 0)
(0.0304592 0.0790985 -9.53154e-20)
(0.061505 0.0754539 8.94795e-20)
(0.0983205 0.0707788 -1.69033e-19)
(0.140976 0.0654212 -2.7901e-22)
(0.189521 0.0596204 1.50732e-19)
(0.243918 0.0535323 8.9697e-22)
(0.303981 0.0472535 1.35582e-19)
(0.369314 0.0408396 -1.89832e-19)
(0.439275 0.0343207 0)
(0.512954 0.0277169 2.26532e-19)
(0.589185 0.0210564 -3.19951e-19)
(0.666505 0.0143333 9.87036e-20)
(0.743686 0.00782643 0)
(0.81755 0.000810873 8.57545e-20)
(0.891809 -0.00405208 3.2183e-19)
(0.947837 -0.0132381 -3.02039e-19)
(1.03172 -0.0118528 -3.39378e-19)
(-0.0124232 0.0153202 2.05261e-19)
(-0.0276337 0.0367638 -2.81938e-19)
(-0.0331792 0.0515541 6.72244e-22)
(-0.0297025 0.0608097 6.26132e-20)
(-0.0177776 0.0656984 -1.16596e-19)
(0.00214553 0.0672979 -1.08308e-19)
(0.0297394 0.0665232 2.03413e-19)
(0.0648108 0.0641248 -6.71425e-22)
(0.107264 0.060705 -1.79528e-19)
(0.15703 0.0567273 3.37734e-19)
(0.213974 0.0525305 5.80863e-22)
(0.277814 0.0483506 -1.49525e-19)
(0.348027 0.0443345 0)
(0.423797 0.0405532 0)
(0.503977 0.0370154 -6.31412e-20)
(0.587108 0.0336805 -1.1726e-19)
(0.671461 0.0304759 -2.22243e-19)
(0.755117 0.0273004 2.08615e-19)
(0.836082 0.0240684 -9.87466e-20)
(0.912502 0.020723 1.80556e-19)
(0.982076 0.0169572 -8.80261e-20)
(1.04585 0.0140043 1.52016e-19)
(1.09333 0.00758145 -3.59854e-19)
(1.15325 0.00964498 6.71956e-20)
(-0.0127722 0.0136628 6.92347e-20)
(-0.0267049 0.0315002 0)
(-0.0290688 0.0429966 1.33635e-19)
(-0.0205353 0.0495473 -1.25887e-19)
(-0.0016653 0.0524427 1.16704e-19)
(0.0271184 0.0528027 0)
(0.0654969 0.0515394 0)
(0.113215 0.049387 -9.59352e-20)
(0.170001 0.046923 3.6422e-22)
(0.235445 0.0445767 8.46009e-20)
(0.308879 0.0426438 -7.94032e-20)
(0.389286 0.0412926 1.49226e-19)
(0.475252 0.0405732 0)
(0.564965 0.040429 2.64174e-19)
(0.656287 0.0407141 -4.95992e-19)
(0.746859 0.0412138 3.50126e-19)
(0.834256 0.0416782 2.16922e-19)
(0.916137 0.041816 -2.03628e-19)
(0.990468 0.04146 0)
(1.05547 0.0401446 0)
(1.11028 0.0383538 0)
(1.15421 0.0347663 0)
(1.18631 0.0309101 6.99348e-20)
(1.21686 0.0282065 -2.47677e-19)
(-0.163147 -0.117785 -5.51854e-21)
(-0.165697 -0.143402 5.55235e-21)
(-0.166844 -0.169931 -1.69348e-22)
(-0.166927 -0.196382 0)
(-0.165849 -0.221755 -4.8113e-21)
(-0.163447 -0.244806 9.28246e-21)
(-0.159567 -0.26407 -6.13616e-23)
(-0.154031 -0.277875 -4.29249e-21)
(-0.146602 -0.284406 0)
(-0.136913 -0.281746 0)
(-0.124432 -0.267933 -2.34224e-22)
(-0.108595 -0.241325 -2.28151e-22)
(-0.0888576 -0.20041 -4.0665e-21)
(-0.0646411 -0.144423 3.73497e-21)
(-0.0355783 -0.0739019 0)
(-0.0023979 0.00927455 0)
(0.0342822 0.101378 3.35926e-21)
(0.0728655 0.197543 -1.78457e-22)
(0.110369 0.289839 -2.82996e-21)
(0.143959 0.370858 -1.50059e-22)
(0.169911 0.437528 0)
(0.184209 0.489304 0)
(0.186522 0.526926 0)
(0.183254 0.546641 0)
(0.188118 0.536027 0)
(0.215015 0.479111 0)
(0.266456 0.369591 6.9525e-22)
(0.333082 0.216103 -1.15208e-21)
(0.405976 0.0362112 0)
(0.479474 -0.14525 0)
(0.546256 -0.298479 -7.1791e-22)
(0.597281 -0.404992 6.97697e-22)
(0.628171 -0.462211 2.5519e-22)
(0.643716 -0.477525 0)
(0.639255 -0.475317 0)
(0.597728 -0.485481 3.13963e-22)
(0.528547 -0.496772 -3.05202e-22)
(0.476721 -0.451959 0)
(0.473064 -0.314663 4.13233e-22)
(0.511769 -0.113773 -5.97048e-22)
(0.57002 0.0897328 1.87311e-22)
(0.625344 0.249443 0)
(0.667782 0.343609 -2.51482e-22)
(0.698996 0.378028 2.44536e-22)
(0.695816 0.387891 0)
(0.645246 0.399249 0)
(0.581778 0.377614 -7.87848e-23)
(0.563765 0.282963 2.47938e-22)
(0.597056 0.126198 0)
(0.656281 -0.0277467 0)
(0.710418 -0.141089 -5.28698e-23)
(0.754379 -0.198631 -1.92193e-24)
(0.777801 -0.209678 -1.18565e-23)
(0.784326 -0.2037 1.31862e-23)
(0.754477 -0.177485 0)
(0.73059 -0.155579 0)
(0.723902 -0.0917976 0)
(0.750482 -0.0429743 0)
(0.788174 0.0188181 0)
(0.828449 0.0557039 0)
(-0.133895 -0.113108 -5.72778e-22)
(-0.138231 -0.139931 -2.30694e-20)
(-0.141107 -0.167729 6.13198e-22)
(-0.143489 -0.195474 2.10534e-20)
(-0.145437 -0.222187 3.17645e-22)
(-0.146816 -0.246643 0)
(-0.147502 -0.267359 -1.72949e-20)
(-0.147366 -0.282678 3.36606e-20)
(-0.146234 -0.290851 -1.63564e-20)
(-0.143767 -0.290117 1.49251e-20)
(-0.13943 -0.278673 -1.42727e-20)
(-0.132522 -0.254872 1.36409e-20)
(-0.122174 -0.217259 -1.32068e-20)
(-0.107399 -0.16493 -3.75035e-22)
(-0.0873064 -0.0980285 -1.26423e-20)
(-0.0616038 -0.0182247 1.22861e-20)
(-0.0302903 0.0718872 -1.15099e-20)
(0.00435634 0.167054 1.08735e-20)
(0.0390355 0.262325 -9.86519e-21)
(0.0725412 0.347538 1.82138e-20)
(0.102096 0.42111 -8.39727e-21)
(0.124581 0.480187 -4.23005e-22)
(0.141542 0.52219 -6.51384e-21)
(0.160132 0.540203 1.28446e-20)
(0.191734 0.521511 -6.33058e-21)
(0.243957 0.454586 4.60055e-22)
(0.313031 0.338456 8.50452e-21)
(0.389421 0.182324 8.01394e-22)
(0.46699 0.00144441 -1.66514e-20)
(0.5411 -0.17874 1.54914e-20)
(0.604227 -0.326893 -7.20959e-21)
(0.648509 -0.424551 6.88462e-22)
(0.66982 -0.472778 -2.55683e-22)
(0.67459 -0.480137 4.00733e-22)
(0.665499 -0.466286 0)
(0.625328 -0.462999 0)
(0.552233 -0.471128 -1.14864e-21)
(0.486658 -0.438634 8.46782e-22)
(0.467761 -0.319196 1.10908e-21)
(0.49547 -0.130825 2.6527e-22)
(0.547451 0.0687636 -1.59348e-21)
(0.602288 0.230809 2.90745e-22)
(0.650058 0.329774 0)
(0.684647 0.373169 0)
(0.677941 0.396242 0)
(0.625291 0.415622 0)
(0.56974 0.388498 3.63179e-22)
(0.564103 0.280474 -1.71483e-22)
(0.608328 0.113672 0)
(0.67297 -0.0426049 0)
(0.728953 -0.153378 0)
(0.769938 -0.206922 -6.72378e-23)
(0.79169 -0.213556 2.75832e-23)
(0.801548 -0.201721 -3.73755e-23)
(0.774424 -0.171806 0)
(0.749181 -0.151364 0)
(0.728221 -0.092711 6.92055e-24)
(0.746998 -0.0484707 1.44119e-23)
(0.774287 0.0120524 0)
(0.812898 0.0518333 0)
(-0.0716229 -0.105382 -1.1551e-22)
(-0.0770415 -0.133144 -4.94906e-20)
(-0.0806994 -0.161721 4.6801e-20)
(-0.0846546 -0.19042 -4.37521e-20)
(-0.08913 -0.218207 -3.19803e-22)
(-0.0939874 -0.243891 0)
(-0.0990729 -0.265949 -3.53925e-20)
(-0.10428 -0.282727 3.46495e-20)
(-0.109488 -0.292488 2.44627e-22)
(-0.114346 -0.293714 4.28059e-22)
(-0.118282 -0.284687 3.90989e-22)
(-0.120539 -0.263849 4.09366e-22)
(-0.120102 -0.229812 -2.2923e-20)
(-0.115727 -0.181599 2.26553e-20)
(-0.106082 -0.119017 0)
(-0.0900781 -0.0431824 5.59251e-22)
(-0.0672317 0.0432739 -1.88514e-20)
(-0.0379093 0.136383 1.86318e-20)
(-0.00706996 0.232328 0)
(0.0249104 0.320381 0)
(0.0585855 0.398845 -1.4018e-20)
(0.0906346 0.462512 2.68522e-20)
(0.123558 0.506201 -2.51222e-20)
(0.163524 0.521255 -6.12716e-22)
(0.218209 0.496167 2.71717e-20)
(0.28966 0.423567 -3.1119e-20)
(0.370993 0.305474 3.27834e-20)
(0.453915 0.150024 -1.70321e-24)
(0.534271 -0.0292972 -1.80696e-20)
(0.607533 -0.206605 0)
(0.665434 -0.349278 0)
(0.701778 -0.438522 3.62483e-21)
(0.713852 -0.478353 -4.89031e-21)
(0.70773 -0.479807 -4.08322e-24)
(0.692367 -0.457491 2.29935e-21)
(0.654177 -0.441229 -2.23467e-21)
(0.580689 -0.443555 0)
(0.503446 -0.421799 2.70874e-22)
(0.468883 -0.321399 2.67666e-21)
(0.484767 -0.147075 -5.32029e-21)
(0.52993 0.0472274 2.39593e-21)
(0.584297 0.210379 2.20243e-22)
(0.636274 0.314412 -2.27728e-21)
(0.671696 0.368478 1.77028e-21)
(0.660891 0.40526 3.84127e-22)
(0.60796 0.431131 3.77471e-22)
(0.561746 0.397157 -3.64119e-22)
(0.568262 0.275929 0)
(0.622678 0.100184 0)
(0.691987 -0.0576122 -1.41757e-21)
(0.749431 -0.165116 6.39034e-22)
(0.787151 -0.214434 -4.06847e-22)
(0.805745 -0.217468 3.87297e-22)
(0.817125 -0.200539 2.61022e-22)
(0.793548 -0.1666 -6.45292e-23)
(0.76977 -0.145954 3.89072e-23)
(0.736925 -0.0915661 -1.93986e-23)
(0.748311 -0.0521105 -4.48462e-24)
(0.763124 0.00656969 0)
(0.799452 0.0481718 0)
(0.0247528 -0.0977237 -1.06876e-19)
(0.0188055 -0.123754 3.39054e-21)
(0.0156708 -0.152271 9.81422e-20)
(0.0110691 -0.181344 -7.0827e-22)
(0.0048538 -0.20959 0)
(-0.0029213 -0.235892 0)
(-0.0120529 -0.258776 -7.09891e-20)
(-0.0224361 -0.276658 4.24725e-21)
(-0.03413 -0.287742 9.10236e-20)
(-0.0466818 -0.290872 -2.53423e-21)
(-0.0592205 -0.284415 -2.54267e-20)
(-0.0708501 -0.266777 -2.03531e-20)
(-0.0804237 -0.236623 2.03959e-20)
(-0.0865722 -0.192956 0)
(-0.0877899 -0.135371 -1.65795e-20)
(-0.082668 -0.0646133 1.51162e-20)
(-0.0695001 0.0168921 0)
(-0.0475614 0.1083 0)
(-0.0219032 0.199813 1.29369e-20)
(0.00809167 0.289151 -4.22813e-22)
(0.0450878 0.369975 -1.1399e-20)
(0.0859341 0.435817 -1.19126e-20)
(0.133078 0.479566 1.18828e-20)
(0.190788 0.491775 -1.37291e-20)
(0.26293 0.462769 -1.80592e-21)
(0.347569 0.388548 1.47604e-20)
(0.436635 0.272459 2.24188e-21)
(0.523318 0.120625 -4.4944e-23)
(0.605054 -0.0553783 0)
(0.676795 -0.228904 1.66443e-20)
(0.728779 -0.366079 -1.71156e-20)
(0.756183 -0.4477 7.21435e-22)
(0.759225 -0.47965 0)
(0.742842 -0.476417 -4.01343e-22)
(0.719589 -0.448919 4.29281e-21)
(0.682831 -0.421298 -7.22873e-21)
(0.612466 -0.414972 -1.99132e-22)
(0.526934 -0.400908 -3.00784e-22)
(0.47657 -0.32028 2.94765e-21)
(0.480073 -0.162242 5.56414e-22)
(0.518275 0.0251778 -4.00909e-21)
(0.571789 0.188448 3.38136e-21)
(0.626054 0.298132 4.259e-23)
(0.659965 0.364219 1.61514e-21)
(0.645134 0.414573 -1.95574e-21)
(0.593693 0.445343 -2.84086e-21)
(0.55778 0.403617 7.19954e-22)
(0.576209 0.269756 1.87702e-21)
(0.639997 0.0859745 -3.56373e-21)
(0.713039 -0.0725891 2.45344e-21)
(0.771308 -0.176266 -4.13992e-22)
(0.805759 -0.22105 7.27183e-22)
(0.820317 -0.221073 4.11854e-22)
(0.831271 -0.199993 -4.0752e-22)
(0.811266 -0.162193 3.49506e-23)
(0.791134 -0.13993 -1.98885e-23)
(0.749544 -0.0887209 0)
(0.754532 -0.0538101 -6.9929e-24)
(0.755683 0.00257294 -5.65312e-26)
(0.789321 0.0447615 0)
(0.152801 -0.090112 1.11078e-19)
(0.149604 -0.113577 -2.14512e-19)
(0.145756 -0.141217 1.02316e-19)
(0.141437 -0.1695 9.33608e-20)
(0.134683 -0.196975 -1.777e-19)
(0.125083 -0.222648 5.80975e-21)
(0.112767 -0.245217 7.70431e-20)
(0.0979775 -0.263243 6.28609e-20)
(0.0802771 -0.27551 -6.15607e-20)
(0.0598238 -0.280505 0)
(0.038179 -0.276626 -4.19607e-20)
(0.0166388 -0.262392 7.71009e-20)
(-0.00339641 -0.236474 -3.53741e-20)
(-0.0202747 -0.197757 0)
(-0.0323834 -0.145634 0)
(-0.038431 -0.0805281 4.35303e-22)
(-0.0346889 -0.0039996 -2.12896e-20)
(-0.0219751 0.0807704 2.06831e-20)
(-0.00324143 0.166635 0)
(0.0246695 0.254723 1.93051e-20)
(0.0628357 0.335239 -3.73206e-20)
(0.109811 0.401217 3.87112e-20)
(0.167219 0.444203 -4.29153e-20)
(0.237299 0.454553 -4.30143e-21)
(0.320822 0.424308 5.71845e-20)
(0.413313 0.351873 -3.09619e-20)
(0.506329 0.240858 -1.15365e-21)
(0.594492 0.0947346 -1.92049e-20)
(0.676742 -0.0766815 2.3811e-22)
(0.746849 -0.245525 1.90515e-20)
(0.792798 -0.37681 9.57053e-22)
(0.810595 -0.451613 -1.05712e-20)
(0.80456 -0.47671 1.79643e-20)
(0.779257 -0.469673 -8.26083e-21)
(0.747417 -0.439903 0)
(0.710603 -0.403851 -3.51942e-21)
(0.645921 -0.387196 3.35519e-21)
(0.556549 -0.376707 -2.41951e-21)
(0.490918 -0.315233 3.02014e-21)
(0.481262 -0.175888 -3.44761e-22)
(0.512606 0.002778 0)
(0.564506 0.165414 -3.74265e-22)
(0.618761 0.281421 1.16827e-21)
(0.649339 0.360348 0)
(0.631096 0.423646 4.06797e-21)
(0.58277 0.457892 -1.52976e-21)
(0.557781 0.40801 8.95877e-22)
(0.587864 0.262259 1.07415e-21)
(0.660244 0.0713924 0)
(0.736047 -0.0873015 0)
(0.79418 -0.18676 -1.72856e-21)
(0.825366 -0.226723 2.23521e-21)
(0.835583 -0.224094 -9.76409e-22)
(0.844336 -0.199833 2.27367e-22)
(0.82728 -0.158749 2.13987e-22)
(0.812124 -0.133846 1.99072e-23)
(0.765321 -0.0846528 2.00282e-23)
(0.765434 -0.0536533 0)
(0.752927 0.000137633 -1.30258e-24)
(0.78369 0.0416207 9.3789e-24)
(0.30827 -0.0809668 1.14477e-19)
(0.307693 -0.104333 -1.13695e-19)
(0.304244 -0.130516 8.14616e-22)
(0.300475 -0.156769 -7.6583e-22)
(0.294068 -0.182204 7.08328e-22)
(0.283885 -0.206018 -6.48474e-22)
(0.269774 -0.226962 1.16153e-21)
(0.251574 -0.243845 0)
(0.22903 -0.255952 -8.86914e-22)
(0.20225 -0.261639 7.53795e-22)
(0.172312 -0.259568 6.28069e-22)
(0.140803 -0.24857 -5.74507e-22)
(0.109755 -0.227318 0)
(0.0814948 -0.194532 0)
(0.0581579 -0.149389 2.6603e-22)
(0.0410508 -0.0919053 0)
(0.0330692 -0.0225089 -1.86821e-22)
(0.0356776 0.0536588 0)
(0.0480845 0.135192 -1.29176e-20)
(0.0721551 0.219038 2.60473e-20)
(0.108972 0.296914 -2.79101e-20)
(0.158409 0.361316 1.4552e-20)
(0.22121 0.40311 2.08142e-20)
(0.297917 0.412739 -2.02107e-20)
(0.387151 0.383519 -3.1584e-20)
(0.482877 0.315425 3.0851e-20)
(0.576559 0.211697 0)
(0.664748 0.0727965 1.27352e-21)
(0.747493 -0.093129 0)
(0.816022 -0.256579 0)
(0.856021 -0.381546 2.64758e-20)
(0.864104 -0.450329 -2.76196e-20)
(0.848823 -0.470055 1.11039e-21)
(0.816043 -0.459933 7.94908e-22)
(0.775949 -0.429948 -5.37083e-22)
(0.737074 -0.388939 -2.71094e-21)
(0.679248 -0.361684 2.63243e-21)
(0.591061 -0.350217 -2.30644e-21)
(0.512087 -0.305753 1.9682e-21)
(0.487814 -0.187301 6.00626e-22)
(0.511961 -0.0197609 -2.7204e-21)
(0.561352 0.141616 -4.27586e-22)
(0.613534 0.264492 1.99391e-21)
(0.639729 0.356561 0)
(0.619102 0.431937 -1.57521e-21)
(0.575329 0.468567 2.98268e-21)
(0.561609 0.410499 -3.72838e-21)
(0.603134 0.253703 -1.081e-21)
(0.683377 0.0569468 0)
(0.760935 -0.101446 6.81112e-22)
(0.817778 -0.196476 -1.57948e-21)