/*--------------------------------*- C++ -*----------------------------------*\
| =========                 |                                                 |
| \\      /  F ield         | OpenFOAM: The Open Source CFD Toolbox           |
|  \\    /   O peration     | Version:  2512                                  |
|   \\  /    A nd           | Website:  www.openfoam.com                      |
|    \\/     M anipulation  |                                                 |
\*---------------------------------------------------------------------------*/
FoamFile
{
    version     2.0;
    format      ascii;
    arch        "LSB;label=32;scalar=64";
    class       volScalarField;
    location    "68.25";
    object      p;
}
// * * * * * * * * * * * * * * * * * * * * * * * * * * * * * * * * * * * * * //

dimensions      [0 2 -2 0 0 0 0];

internalField   nonuniform List<scalar> 
13248
(
-0.374403
-0.372025
-0.3694
-0.366701
-0.364121
-0.361869
-0.360047
-0.358638
-0.357516
-0.35647
-0.355221
-0.35345
-0.35083
-0.347066
-0.341923
-0.335256
-0.327015
-0.317252
-0.306091
-0.293736
-0.280299
-0.266113
-0.250471
-0.234162
-0.382319
-0.379325
-0.376019
-0.372594
-0.369246
-0.366189
-0.36351
-0.361154
-0.358949
-0.356637
-0.35391
-0.350451
-0.345977
-0.340274
-0.333222
-0.3248
-0.315078
-0.304194
-0.292331
-0.279681
-0.266403
-0.25268
-0.238367
-0.224199
-0.391634
-0.38784
-0.383762
-0.379576
-0.375439
-0.371539
-0.367916
-0.364457
-0.360935
-0.357062
-0.352538
-0.347104
-0.340575
-0.332864
-0.323983
-0.314029
-0.303154
-0.291539
-0.279365
-0.2668
-0.253959
-0.240999
-0.227824
-0.214862
-0.402585
-0.39779
-0.392841
-0.387849
-0.38287
-0.378027
-0.373285
-0.368459
-0.363286
-0.357491
-0.350844
-0.343203
-0.334526
-0.324867
-0.314352
-0.30315
-0.291439
-0.279385
-0.267129
-0.254783
-0.242433
-0.230182
-0.217966
-0.206208
-0.415264
-0.409277
-0.40336
-0.397494
-0.391568
-0.385598
-0.379459
-0.37291
-0.365699
-0.357633
-0.34862
-0.33868
-0.32792
-0.316507
-0.304629
-0.292466
-0.28017
-0.267858
-0.255617
-0.243509
-0.231579
-0.21988
-0.208374
-0.197339
-0.429615
-0.422286
-0.415316
-0.408482
-0.401432
-0.394047
-0.386123
-0.377418
-0.367769
-0.357143
-0.345637
-0.333433
-0.320756
-0.307827
-0.294836
-0.281926
-0.269195
-0.256706
-0.244495
-0.232581
-0.22098
-0.209707
-0.198739
-0.188263
-0.445425
-0.436666
-0.428573
-0.420635
-0.412193
-0.402988
-0.392797
-0.381472
-0.369034
-0.355674
-0.341677
-0.327355
-0.312984
-0.298778
-0.284882
-0.27138
-0.25831
-0.245684
-0.233497
-0.221738
-0.210397
-0.199462
-0.188921
-0.178856
-0.462309
-0.452101
-0.442826
-0.433585
-0.423372
-0.411841
-0.398856
-0.384487
-0.369024
-0.352892
-0.336528
-0.320301
-0.304472
-0.289202
-0.274565
-0.260581
-0.247235
-0.234496
-0.222329
-0.210701
-0.199578
-0.188936
-0.178761
-0.169043
-0.479677
-0.468076
-0.457548
-0.446726
-0.434268
-0.419851
-0.403585
-0.385872
-0.367308
-0.348514
-0.330001
-0.31212
-0.295067
-0.27892
-0.263681
-0.249308
-0.235744
-0.222926
-0.210793
-0.199292
-0.188375
-0.178006
-0.168161
-0.158756
-0.496716
-0.483839
-0.471959
-0.459191
-0.443957
-0.426133
-0.406237
-0.385074
-0.363516
-0.342296
-0.321914
-0.302644
-0.284586
-0.26773
-0.252012
-0.237341
-0.223624
-0.210771
-0.198703
-0.187347
-0.176643
-0.166546
-0.157006
-0.147903
-0.512407
-0.498399
-0.485015
-0.469872
-0.45134
-0.429709
-0.406026
-0.381501
-0.357195
-0.333857
-0.311908
-0.291505
-0.272648
-0.255245
-0.239174
-0.224306
-0.210516
-0.197695
-0.185745
-0.17458
-0.164127
-0.154326
-0.145092
-0.136315
-0.525609
-0.510655
-0.495592
-0.477624
-0.455317
-0.429588
-0.402089
-0.374382
-0.347621
-0.322486
-0.299264
-0.277983
-0.258539
-0.240768
-0.224497
-0.209561
-0.195814
-0.183125
-0.171383
-0.16049
-0.150366
-0.140935
-0.132082
-0.123754
-0.292389
-0.294561
-0.295932
-0.29686
-0.297656
-0.298398
-0.29911
-0.299805
-0.30048
-0.301115
-0.301685
-0.302159
-0.302503
-0.302679
-0.302651
-0.302384
-0.301844
-0.301009
-0.299868
-0.298431
-0.296721
-0.294768
-0.292662
-0.290649
-0.298345
-0.300466
-0.301866
-0.302901
-0.303878
-0.304872
-0.305905
-0.306985
-0.308096
-0.309212
-0.310296
-0.3113
-0.312168
-0.312835
-0.313228
-0.31327
-0.312875
-0.311961
-0.31045
-0.308286
-0.305418
-0.301782
-0.29741
-0.292763
-0.305138
-0.307068
-0.308413
-0.309504
-0.310624
-0.311844
-0.31318
-0.314631
-0.316175
-0.317777
-0.319386
-0.320934
-0.322347
-0.323535
-0.324385
-0.324774
-0.324562
-0.323597
-0.321729
-0.318822
-0.314745
-0.309334
-0.302525
-0.295083
-0.312549
-0.314156
-0.315361
-0.316446
-0.317654
-0.319048
-0.320639
-0.322417
-0.324352
-0.326398
-0.328493
-0.330557
-0.332488
-0.334165
-0.335451
-0.336171
-0.336131
-0.335114
-0.332894
-0.329247
-0.323976
-0.316848
-0.307615
-0.297076
-0.320292
-0.321471
-0.322452
-0.323455
-0.324673
-0.32616
-0.327922
-0.329942
-0.33218
-0.334578
-0.337063
-0.339537
-0.341882
-0.343947
-0.345556
-0.346496
-0.346524
-0.345368
-0.342733
-0.338324
-0.331883
-0.323178
-0.311775
-0.297674
-0.328058
-0.328745
-0.329428
-0.330261
-0.331386
-0.332853
-0.334666
-0.336799
-0.339203
-0.341809
-0.344527
-0.347244
-0.349816
-0.352072
-0.353795
-0.354737
-0.354616
-0.353117
-0.349908
-0.344657
-0.337069
-0.326865
-0.31375
-0.297161
-0.33557
-0.335743
-0.336066
-0.336635
-0.337548
-0.338856
-0.340566
-0.342648
-0.345042
-0.347668
-0.350419
-0.353159
-0.355725
-0.357909
-0.359472
-0.360131
-0.359572
-0.357457
-0.353442
-0.3472
-0.338468
-0.326928
-0.312969
-0.294406
-0.342635
-0.342319
-0.342236
-0.342443
-0.343012
-0.344007
-0.345442
-0.347287
-0.349476
-0.351915
-0.354479
-0.357009
-0.359314
-0.361161
-0.362278
-0.362359
-0.361071
-0.358076
-0.353052
-0.345704
-0.335909
-0.323215
-0.308954
-0.289461
-0.349195
-0.348437
-0.347914
-0.347665
-0.347763
-0.348292
-0.349283
-0.35071
-0.352504
-0.354556
-0.356722
-0.35882
-0.360626
-0.361879
-0.362282
-0.361511
-0.359237
-0.355147
-0.348979
-0.340505
-0.329788
-0.316313
-0.301942
-0.282641
-0.355346
-0.354197
-0.353203
-0.352417
-0.351932
-0.351864
-0.352265
-0.353121
-0.354351
-0.355842
-0.357425
-0.358886
-0.359969
-0.360383
-0.359811
-0.357929
-0.354435
-0.349073
-0.341676
-0.332146
-0.320679
-0.306954
-0.292668
-0.274386
-0.361338
-0.359823
-0.358324
-0.356932
-0.355776
-0.355008
-0.354705
-0.354858
-0.355399
-0.356178
-0.357001
-0.357621
-0.357748
-0.357067
-0.355254
-0.352008
-0.34708
-0.340303
-0.331615
-0.321082
-0.308956
-0.295345
-0.281454
-0.26487
-0.367547
-0.36564
-0.363594
-0.361543
-0.359659
-0.35813
-0.357055
-0.356433
-0.356171
-0.356101
-0.355988
-0.355548
-0.35446
-0.352401
-0.349068
-0.344217
-0.337683
-0.329402
-0.319408
-0.30787
-0.294978
-0.281178
-0.267102
-0.252512
-0.288693
-0.286889
-0.286023
-0.286228
-0.287634
-0.290171
-0.29347
-0.296795
-0.29899
-0.298605
-0.294293
-0.284868
-0.269592
-0.24892
-0.22409
-0.197869
-0.173445
-0.153814
-0.141523
-0.138604
-0.145994
-0.162137
-0.181853
-0.197027
-0.199491
-0.185752
-0.159545
-0.129089
-0.102028
-0.082627
-0.0717645
-0.0681714
-0.0714849
-0.0834637
-0.102506
-0.119752
-0.124407
-0.113714
-0.0942897
-0.0761648
-0.0646842
-0.0591881
-0.0600959
-0.0698627
-0.084535
-0.0919686
-0.085437
-0.071021
-0.0571376
-0.0467814
-0.0408511
-0.0400562
-0.0425149
-0.0410991
-0.0381583
-0.0317253
-0.0225563
-0.0146972
-0.00855742
-0.000669424
-0.287722
-0.281229
-0.275168
-0.26971
-0.265199
-0.261799
-0.259457
-0.257815
-0.256138
-0.253331
-0.24822
-0.239906
-0.228121
-0.212783
-0.19422
-0.174964
-0.157611
-0.145028
-0.139886
-0.144199
-0.15837
-0.179908
-0.202879
-0.21889
-0.219823
-0.202777
-0.172217
-0.137381
-0.106432
-0.0835565
-0.069505
-0.0630276
-0.0633037
-0.0716956
-0.0873943
-0.102984
-0.108717
-0.100946
-0.0854391
-0.0713471
-0.06335
-0.0606847
-0.0644375
-0.0772218
-0.0943723
-0.102576
-0.0943509
-0.0767421
-0.0594804
-0.0464239
-0.0380035
-0.0348089
-0.0352731
-0.0336231
-0.0321117
-0.0277465
-0.0209041
-0.0147883
-0.010127
-0.0018485
-0.287437
-0.276217
-0.264858
-0.253656
-0.243088
-0.233519
-0.225181
-0.218072
-0.211879
-0.205962
-0.199288
-0.191264
-0.181831
-0.171216
-0.159013
-0.146679
-0.136675
-0.131663
-0.134178
-0.145907
-0.16649
-0.192651
-0.218169
-0.234812
-0.234805
-0.215349
-0.181511
-0.143296
-0.109288
-0.0836169
-0.0668218
-0.0576816
-0.0551004
-0.0600098
-0.0723094
-0.0860224
-0.0924512
-0.087466
-0.0758442
-0.0658055
-0.0613054
-0.0615481
-0.0682228
-0.0839643
-0.103469
-0.112435
-0.102687
-0.0820497
-0.0614928
-0.0458694
-0.0352069
-0.029902
-0.0285421
-0.0266055
-0.0262701
-0.0237947
-0.0192421
-0.0149867
-0.0118723
-0.003169
-0.287854
-0.272215
-0.255829
-0.239346
-0.223125
-0.207667
-0.19347
-0.180852
-0.169871
-0.160353
-0.151705
-0.142639
-0.135192
-0.12803
-0.121455
-0.11557
-0.112753
-0.115292
-0.125268
-0.14377
-0.169776
-0.199596
-0.227111
-0.244366
-0.24406
-0.223214
-0.187298
-0.146823
-0.110674
-0.0829389
-0.0639507
-0.0524808
-0.0473127
-0.048959
-0.0578781
-0.069469
-0.0761351
-0.073659
-0.0657643
-0.0596573
-0.0585467
-0.0616613
-0.0712033
-0.0897745
-0.11153
-0.121297
-0.110268
-0.0868558
-0.0631603
-0.0451305
-0.0324825
-0.0253723
-0.0223704
-0.0200976
-0.0206693
-0.0198984
-0.0175861
-0.0152985
-0.0137746
-0.00460902
-0.288235
-0.268838
-0.248219
-0.227645
-0.20671
-0.186137
-0.166731
-0.149077
-0.133541
-0.120311
-0.109426
-0.0977847
-0.0923249
-0.0885814
-0.0854109
-0.0849599
-0.0884558
-0.0977096
-0.114179
-0.138252
-0.168376
-0.200789
-0.22972
-0.247719
-0.247635
-0.226426
-0.189704
-0.148182
-0.11085
-0.0817352
-0.0610902
-0.0476789
-0.040269
-0.0389505
-0.0445699
-0.0538641
-0.0603313
-0.0599455
-0.0554573
-0.0530013
-0.0550445
-0.0608852
-0.0731603
-0.0944245
-0.118305
-0.128928
-0.116917
-0.0910859
-0.0644883
-0.0442335
-0.0298448
-0.0212247
-0.0167728
-0.0141243
-0.0153393
-0.016083
-0.0159477
-0.0157214
-0.0158071
-0.00614091
-0.286889
-0.266166
-0.242632
-0.218732
-0.194186
-0.16967
-0.146135
-0.124393
-0.105127
-0.0889076
-0.0767016
-0.0683061
-0.0587711
-0.0550252
-0.0545419
-0.0580039
-0.0663174
-0.0807402
-0.102107
-0.130163
-0.162972
-0.196884
-0.226644
-0.245386
-0.245859
-0.225183
-0.188902
-0.147601
-0.11006
-0.0802118
-0.0583916
-0.0434272
-0.0341185
-0.0302556
-0.0327602
-0.0396679
-0.045556
-0.0467404
-0.0451855
-0.045931
-0.0507913
-0.0591383
-0.0739593
-0.097751
-0.123606
-0.135153
-0.122504
-0.0946734
-0.0654785
-0.043198
-0.0272963
-0.0174413
-0.0117406
-0.00868662
-0.0102998
-0.0123677
-0.0143338
-0.0162457
-0.0179388
-0.00773575
-0.283418
-0.262463
-0.238006
-0.212651
-0.186333
-0.159594
-0.133459
-0.108887
-0.0867132
-0.0676908
-0.0525914
-0.0413892
-0.0329944
-0.0299379
-0.0309401
-0.0367433
-0.0480917
-0.0657834
-0.0901506
-0.120456
-0.154521
-0.188882
-0.21884
-0.238061
-0.239385
-0.219981
-0.185279
-0.145374
-0.108527
-0.0785432
-0.0559639
-0.0398019
-0.0289166
-0.0229212
-0.0226242
-0.0271697
-0.0322049
-0.0344162
-0.0352051
-0.0385842
-0.0458446
-0.0563939
-0.073518
-0.0996529
-0.127351
-0.13987
-0.126932
-0.0975544
-0.0661256
-0.0420382
-0.024836
-0.0139863
-0.0072367
-0.00376879
-0.005561
-0.00876505
-0.0127479
-0.0168574
-0.0201405
-0.00936814
-0.277565
-0.257201
-0.233637
-0.208703
-0.182328
-0.155088
-0.127975
-0.101952
-0.0779438
-0.0568333
-0.0394056
-0.0260396
-0.0172666
-0.0138117
-0.0151314
-0.0218148
-0.0344632
-0.0535506
-0.079076
-0.110012
-0.144063
-0.177952
-0.207421
-0.226798
-0.229048
-0.211488
-0.179293
-0.141748
-0.106372
-0.076793
-0.0538262
-0.0367924
-0.0246426
-0.0169047
-0.0141716
-0.016456
-0.0204906
-0.0232606
-0.0257487
-0.0311333
-0.0402976
-0.0526911
-0.071819
-0.100074
-0.129528
-0.143015
-0.130125
-0.0996856
-0.0664375
-0.0407752
-0.0224738
-0.0108339
-0.0032099
0.000668361
-0.00112669
-0.00528192
-0.0111906
-0.0175398
-0.0223872
-0.0110183
-0.269702
-0.250336
-0.229146
-0.206231
-0.18124
-0.155
-0.128445
-0.102359
-0.0776245
-0.0552027
-0.036036
-0.0209694
-0.0108207
-0.00612123
-0.00663676
-0.0128818
-0.0253066
-0.0441661
-0.0692758
-0.0994865
-0.132457
-0.165075
-0.193454
-0.212624
-0.215773
-0.200477
-0.171516
-0.13707
-0.103788
-0.0750981
-0.0520874
-0.0344657
-0.0213369
-0.0121912
-0.00740585
-0.00754462
-0.0104647
-0.0133332
-0.0169926
-0.0237568
-0.0342819
-0.0480317
-0.0688086
-0.0990771
-0.130187
-0.144572
-0.132083
-0.101102
-0.0665078
-0.0394951
-0.0202565
-0.00798969
0.000355963
0.00467044
0.00301028
-0.00191812
-0.00965896
-0.0182763
-0.0246575
-0.0126722
-0.260462
-0.242607
-0.22464
-0.204511
-0.181799
-0.157696
-0.132949
-0.108065
-0.0838085
-0.0611482
-0.0410835
-0.0247673
-0.0129239
-0.00580723
-0.0046284
-0.00931804
-0.020264
-0.0375883
-0.0610138
-0.0893631
-0.120361
-0.150978
-0.177455
-0.196331
-0.200563
-0.187978
-0.162873
-0.132121
-0.101433
-0.07404
-0.0512568
-0.0332164
-0.0192897
-0.0089494
-0.0024026
-0.000467356
-0.0021407
-0.00484027
-0.00902931
-0.0165596
-0.0279088
-0.0425946
-0.0646503
-0.0965944
-0.129268
-0.144551
-0.132867
-0.101884
-0.0664824
-0.038337
-0.018247
-0.00544483
0.00345072
0.00824048
0.00685968
0.00133561
-0.00815101
-0.0190464
-0.0269315
-0.0143174
-0.250727
-0.235308
-0.220574
-0.202897
-0.18263
-0.161195
-0.138884
-0.115839
-0.0926519
-0.0702469
-0.0495349
-0.0309818
-0.0183835
-0.0106099
-0.00740727
-0.00968928
-0.0182352
-0.0330695
-0.05395
-0.0797824
-0.108349
-0.136539
-0.161041
-0.17868
-0.183793
-0.174265
-0.153627
-0.127125
-0.0994456
-0.0736605
-0.0513205
-0.0329594
-0.0183594
-0.00704246
0.00102627
0.00502478
0.00475504
0.00233058
-0.00202531
-0.00973915
-0.0212632
-0.0361734
-0.0590879
-0.0929473
-0.127159
-0.142905
-0.132306
-0.101753
-0.0660917
-0.0371366
-0.0163159
-0.00304011
0.00622659
0.0113995
0.010377
0.00449442
-0.00664614
-0.0198339
-0.0291943
-0.0159405
-0.241493
-0.23033
-0.218225
-0.202385
-0.18485
-0.166618
-0.147259
-0.126812
-0.105921
-0.0853546
-0.0657799
-0.0475571
-0.0318267
-0.0206523
-0.0152298
-0.0148781
-0.0200688
-0.0312836
-0.0482603
-0.0700798
-0.0947458
-0.119683
-0.140577
-0.159429
-0.164057
-0.157364
-0.14106
-0.118711
-0.0941562
-0.070359
-0.0490532
-0.0309549
-0.0162157
-0.00456777
0.00434952
0.01001
0.0112009
0.00904146
0.00430841
-0.00342593
-0.0148293
-0.0295955
-0.0527041
-0.0876751
-0.123066
-0.139635
-0.129817
-0.0998037
-0.0641686
-0.0349707
-0.0139029
-0.000427913
0.00910431
0.0144855
0.0136906
0.00753963
-0.00516691
-0.0206015
-0.0314095
-0.0175325
-0.224705
-0.224095
-0.211678
-0.1953
-0.178781
-0.162106
-0.144466
-0.125748
-0.106429
-0.0871966
-0.0685817
-0.0516265
-0.0369882
-0.0266043
-0.0206221
-0.0191235
-0.0229176
-0.0324172
-0.0475009
-0.0673095
-0.0900142
-0.113496
-0.136955
-0.147919
-0.150988
-0.143975
-0.128444
-0.107722
-0.0851187
-0.0631474
-0.0433025
-0.02618
-0.0119462
-0.00048071
0.00854102
0.014843
0.0172483
0.0160976
0.0144679
0.0049158
-0.00580075
-0.0200348
-0.0437386
-0.0815643
-0.120574
-0.139023
-0.128415
-0.096997
-0.0608887
-0.0317564
-0.0109964
0.00226956
0.0120693
0.017774
0.0173837
0.0108262
-0.00352846
-0.0212777
-0.0335623
-0.019112
-0.207131
-0.209085
-0.198059
-0.182587
-0.167373
-0.152577
-0.137157
-0.120738
-0.103701
-0.0867218
-0.070361
-0.0554554
-0.0427321
-0.0331613
-0.0273063
-0.025643
-0.0287196
-0.0368108
-0.0497746
-0.0668064
-0.0862976
-0.106195
-0.123798
-0.133227
-0.134841
-0.127873
-0.113913
-0.0956516
-0.0756803
-0.0560222
-0.0379461
-0.0219854
-0.00844163
0.0026386
0.0116908
0.0185307
0.0217897
0.021029
0.0165196
0.010911
0.0014451
-0.0119217
-0.0358359
-0.0758376
-0.117168
-0.135726
-0.123913
-0.0923243
-0.056847
-0.0284075
-0.0081277
0.00488454
0.0147334
0.0204935
0.0203927
0.0135692
-0.00217002
-0.0220345
-0.0355231
-0.0204265
-0.190759
-0.193369
-0.18447
-0.170747
-0.15702
-0.143935
-0.13055
-0.116329
-0.101507
-0.0866736
-0.0724501
-0.0593943
-0.0481749
-0.0395556
-0.0341898
-0.0325016
-0.034863
-0.0414534
-0.0520721
-0.0659554
-0.0816871
-0.0974067
-0.110671
-0.11803
-0.118696
-0.11247
-0.100499
-0.0847424
-0.067217
-0.0496036
-0.0330723
-0.0181694
-0.0052321
0.00553852
0.0145159
0.021656
0.0256473
0.0255863
0.0218247
0.0166583
0.0079143
-0.00519713
-0.0297485
-0.0708442
-0.112219
-0.130153
-0.117744
-0.0867171
-0.0523713
-0.0248522
-0.0051779
0.00752074
0.0173718
0.0231694
0.0232424
0.0160075
-0.00108031
-0.0229039
-0.0373524
-0.0216227
-0.174845
-0.178191
-0.171247
-0.159426
-0.147256
-0.135751
-0.124203
-0.111998
-0.099221
-0.0863655
-0.0740029
-0.0626522
-0.0528569
-0.0452255
-0.0402888
-0.0384166
-0.0399047
-0.0448634
-0.0530687
-0.0638624
-0.0761075
-0.0882271
-0.0982078
-0.103725
-0.10387
-0.0984216
-0.0881478
-0.0745276
-0.0591633
-0.0434366
-0.0283874
-0.0145517
-0.00225634
0.00818246
0.0169936
0.0242891
0.0289461
0.0298666
0.0271557
0.0227629
0.0147191
0.00155088
-0.0236247
-0.0647882
-0.105588
-0.122989
-0.110123
-0.0800378
-0.0472775
-0.0210308
-0.0021416
0.0101762
0.0199784
0.025846
0.0260712
0.0183778
-5.30067e-05
-0.0237291
-0.0390212
-0.0226806
-0.159554
-0.163594
-0.158313
-0.148304
-0.137726
-0.127754
-0.117856
-0.107466
-0.0965655
-0.0855472
-0.074906
-0.0651025
-0.0565849
-0.0498138
-0.0452121
-0.0431106
-0.0437456
-0.0471806
-0.053212
-0.0613058
-0.070548
-0.0796198
-0.086934
-0.0908848
-0.0905629
-0.0857225
-0.0768894
-0.0651427
-0.0517102
-0.0377002
-0.0240196
-0.0112077
0.000428665
0.0105256
0.0191345
0.0264663
0.0316429
0.0335956
0.0325622
0.0290197
0.0219942
0.00905741
-0.0162637
-0.0570947
-0.0973013
-0.113939
-0.10092
-0.072314
-0.0416377
-0.0169949
0.000945709
0.0128247
0.0225406
0.0284906
0.0288722
0.0207777
0.00104836
-0.0244109
-0.0404562
-0.0235337
-0.14533
-0.149673
-0.145752
-0.137434
-0.128413
-0.119882
-0.111497
-0.102742
-0.0935365
-0.0841775
-0.0750831
-0.0666515
-0.0592489
-0.0532364
-0.0489551
-0.0466805
-0.0465946
-0.048734
-0.0529249
-0.0587251
-0.0653896
-0.0718952
-0.0770275
-0.079609
-0.0788461
-0.0744865
-0.0668442
-0.056668
-0.0448903
-0.0324031
-0.0199786
-0.00814389
0.00281154
0.0125377
0.0209329
0.0282034
0.0337243
0.0365789
0.0369008
0.0349957
0.0294362
0.0172272
-0.00787177
-0.0481309
-0.0872928
-0.102773
-0.0902199
-0.0636767
-0.0355282
-0.0127865
0.00405163
0.0154359
0.0250361
0.0310777
0.0316228
0.0232078
0.00225411
-0.0248651
-0.0415181
-0.0240975
-0.132007
-0.136412
-0.133654
-0.126879
-0.119315
-0.112125
-0.105102
-0.0977995
-0.0901008
-0.0822201
-0.0745022
-0.0672855
-0.0608737
-0.0555542
-0.0515944
-0.0492122
-0.0485471
-0.0496175
-0.052278
-0.0561706
-0.0606916
-0.0650937
-0.0684529
-0.0698741
-0.0687032
-0.0646806
-0.057968
-0.0490773
-0.038708
-0.0275692
-0.0162974
-0.00538495
0.00488098
0.0141938
0.0223654
0.0295185
0.0352303
0.0387823
0.0403296
0.0402218
0.0364853
0.0254033
0.000803622
-0.038316
-0.0757154
-0.089919
-0.0782462
-0.0543253
-0.0290764
-0.00846998
0.00713707
0.0179766
0.0274394
0.0335791
0.0342957
0.0256396
0.00358066
-0.02496
-0.0420389
-0.0242841
-0.119408
-0.123871
-0.122108
-0.116689
-0.11044
-0.104468
-0.0986606
-0.092638
-0.0862647
-0.0796894
-0.0731904
-0.0670513
-0.061523
-0.0568323
-0.0531856
-0.050752
-0.0496368
-0.0498512
-0.0512752
-0.053621
-0.0564477
-0.0591579
-0.0610807
-0.0615282
-0.0599728
-0.0561655
-0.0501734
-0.0423354
-0.0331614
-0.0232073
-0.0129888
-0.00294426
0.00663722
0.0154911
0.0234096
0.0304184
0.0362056
0.0401639
0.0427291
0.0442436
0.0424387
0.0327869
0.00913544
-0.0280724
-0.0629043
-0.0756814
-0.0653567
-0.0445394
-0.0224484
-0.00412271
0.0101617
0.0204153
0.0297208
0.0359574
0.0368573
0.0280545
0.00508996
-0.0245244
-0.0418415
-0.0240057
-0.107677
-0.112122
-0.111149
-0.10689
-0.101803
-0.0969158
-0.0921817
-0.0872765
-0.0820584
-0.0766256
-0.0711982
-0.066009
-0.061263
-0.057139
-0.0537961
-0.0513641
-0.0499225
-0.0494784
-0.0499344
-0.0510613
-0.0525543
-0.0539417
-0.0547154
-0.0543602
-0.0524614
-0.0487948
-0.0433661
-0.0363897
-0.0282286
-0.0193124
-0.0100549
-0.000828866
0.0080829
0.0164425
0.0240599
0.030898
0.0366809
0.0409041
0.0440797
0.0467679
0.0466408
0.0385725
0.0165404
-0.0178161
-0.049207
-0.0605162
-0.0520397
-0.0346604
-0.0158377
0.000165359
0.0130831
0.0227249
0.0318483
0.0381708
0.0392758
0.0304579
0.00688038
-0.0233759
-0.0407478
-0.0231834
-0.0968477
-0.101134
-0.10077
-0.097495
-0.0934222
-0.0894862
-0.0856856
-0.0817462
-0.0775257
-0.0730832
-0.068589
-0.0642315
-0.0601764
-0.0565652
-0.0535199
-0.0511387
-0.0494821
-0.0485529
-0.0482749
-0.0484909
-0.0489358
-0.0492916
-0.0491663
-0.0481735
-0.045991
-0.0424236
-0.0374418
-0.0311753
-0.0238765
-0.0158712
-0.00748822
0.000964109
0.00922351
0.0170686
0.0243314
0.0309526
0.0366607
0.0410226
0.0444922
0.0477541
0.0487159
0.042153
0.0225708
-0.00780244
-0.0350241
-0.0450928
-0.038893
-0.0250638
-0.00944566
0.00429925
0.0158572
0.0248827
0.0337947
0.0401862
0.0415326
0.0328744
0.00905933
-0.021339
-0.0385954
-0.0217622
-0.0867739
-0.0908582
-0.0909759
-0.0885277
-0.085323
-0.0822051
-0.0792048
-0.0760901
-0.0727218
-0.069129
-0.0654409
-0.0618077
-0.0583625
-0.0552161
-0.0524614
-0.050172
-0.0483929
-0.0471243
-0.0463092
-0.0458354
-0.0455082
-0.0450844
-0.044277
-0.0427975
-0.0403971
-0.0369121
-0.0322965
-0.0266236
-0.020065
-0.0128624
-0.00527434
0.00244738
0.0100705
0.0173916
0.0242548
0.0305933
0.0361525
0.040546
0.0441017
0.0474392
0.0488118
0.0435606
0.0271496
0.00167026
-0.021115
-0.030326
-0.0265653
-0.0161095
-0.00345609
0.00818884
0.0184398
0.0268652
0.0355383
0.0419921
0.0436347
0.0353381
0.0117293
-0.0182766
-0.0352672
-0.019723
-0.077411
-0.0812918
-0.0817776
-0.0800059
-0.0775288
-0.0751024
-0.0727778
-0.070358
-0.0677096
-0.0648387
-0.0618412
-0.0588353
-0.0559263
-0.0532003
-0.0507273
-0.0485619
-0.046737
-0.0452533
-0.0440717
-0.0431043
-0.0422148
-0.0412226
-0.0399174
-0.0380846
-0.0355344
-0.0321338
-0.0278317
-0.0226652
-0.0167483
-0.0102572
-0.00339275
0.00364092
0.0106445
0.0174356
0.0238661
0.0298592
0.0351918
0.0395166
0.0430244
0.0461554
0.0474947
0.0433784
0.030342
0.00994954
-0.00862054
-0.0171686
-0.0156116
-0.00807379
0.00198944
0.0117577
0.0207899
0.0286436
0.0370545
0.0435937
0.0456223
0.0378996
0.0149673
-0.014143
-0.0307276
-0.0170952
-0.0687808
-0.0724186
-0.0731605
-0.0719316
-0.0700568
-0.068207
-0.0664447
-0.0646029
-0.0625554
-0.0602919
-0.0578811
-0.0554145
-0.0529747
-0.0506278
-0.0484259
-0.0464093
-0.0446016
-0.0430038
-0.041588
-0.0402914
-0.0390155
-0.0376297
-0.0359811
-0.0339117
-0.0312785
-0.0279761
-0.0239552
-0.0192308
-0.0138775
-0.00802181
-0.00181773
0.00456996
0.0109732
0.0172316
0.0232054
0.0288075
0.0338443
0.0380085
0.0413764
0.0441841
0.0453233
0.0421445
0.0321194
0.016346
0.0015312
-0.00627482
-0.00633421
-0.00110391
0.00680337
0.0149459
0.0228728
0.0301837
0.0383081
0.0449887
0.0475421
0.040605
0.0187633
-0.00903383
-0.0250644
-0.0139774
-0.060824
-0.064189
-0.0651013
-0.0643046
-0.0629231
-0.0615473
-0.0602459
-0.0588781
-0.0573263
-0.0555683
-0.0536515
-0.0516456
-0.0496145
-0.0476082
-0.0456652
-0.0438145
-0.042073
-0.0404413
-0.0388995
-0.0374037
-0.0358841
-0.0342476
-0.0323839
-0.0301781
-0.027524
-0.0243397
-0.0205819
-0.0162534
-0.0114021
-0.00611818
-0.00051902
0.00526362
0.0110897
0.0168182
0.0223199
0.0275002
0.0321918
0.0361215
0.0392812
0.0417345
0.042648
0.0401834
0.0325803
0.0206551
0.00909028
0.00225494
0.0012425
0.00477046
0.0109467
0.0177111
0.0246566
0.0314514
0.039244
0.046123
0.0493271
0.0433464
0.0229224
-0.00319651
-0.018519
-0.0105453
-0.0534717
-0.0565665
-0.0575865
-0.0571274
-0.0561426
-0.0551498
-0.0542204
-0.0532357
-0.0520874
-0.0507457
-0.0492411
-0.0476259
-0.0459487
-0.0442471
-0.0425487
-0.0408738
-0.0392344
-0.0376306
-0.0360478
-0.0344559
-0.0328064
-0.0310339
-0.02906
-0.0268018
-0.0241818
-0.0211381
-0.0176348
-0.0136689
-0.00927121
-0.00450608
0.00053737
0.0057544
0.0110286
0.0162378
0.0212623
0.0260029
0.0303202
0.0339617
0.0368692
0.0389868
0.0397081
0.0377923
0.0320857
0.0232244
0.0143972
0.00868777
0.0072566
0.00959322
0.014414
0.0200317
0.0261071
0.0324021
0.0397938
0.0468775
0.0505938
0.0456652
0.0270134
0.00299429
-0.0115184
-0.00704808
-0.0466996
-0.0495266
-0.0505995
-0.0503965
-0.0497249
-0.0490369
-0.048403
-0.0477232
-0.0468992
-0.0458964
-0.0447327
-0.0434464
-0.0420741
-0.0406433
-0.0391734
-0.0376779
-0.0361651
-0.0346346
-0.0330758
-0.0314674
-0.0297768
-0.0279587
-0.0259581
-0.0237164
-0.0211777
-0.0182965
-0.0150447
-0.0114175
-0.00743519
-0.00314415
0.0013878
0.00607694
0.0108269
0.0155334
0.0200856
0.0243799
0.0282753
0.0316333
0.0342773
0.0361098
0.0367031
0.0352448
0.031025
0.0245499
0.017953
0.0133908
0.0119009
0.0134465
0.0172218
0.0219017
0.0271975
0.0329662
0.03986
0.0471218
0.0507754
0.0468646
0.0304239
0.00896324
-0.00472946
-0.00379868
-0.0404749
-0.0430341
-0.0441158
-0.0441025
-0.0436753
-0.0432262
-0.0428232
-0.0423824
-0.0418153
-0.0410854
-0.0402011
-0.0391899
-0.0380785
-0.0368867
-0.0356279
-0.0343103
-0.032939
-0.0315136
-0.0300259
-0.0284609
-0.0267964
-0.025002
-0.0230401
-0.0208694
-0.0184505
-0.0157512
-0.0127505
-0.00944426
-0.00584646
-0.00199139
0.00206886
0.006267
0.0105232
0.0147482
0.0188437
0.0227088
0.0262173
0.0292509
0.0316353
0.0332438
0.0337776
0.0327236
0.0296743
0.0250306
0.0202104
0.0167274
0.0153803
0.0164279
0.0194038
0.0233183
0.0279152
0.0330951
0.0392678
0.044931
0.0494875
0.0464878
0.0325577
0.0139467
0.00108966
-0.00108951
-0.0347521
-0.0370525
-0.0381125
-0.0382361
-0.0379962
-0.0377314
-0.0375057
-0.037249
-0.0368825
-0.0363697
-0.0357123
-0.0349292
-0.0340398
-0.0330579
-0.0319917
-0.0308456
-0.0296227
-0.0283229
-0.0269394
-0.0254606
-0.0238714
-0.0221523
-0.0202777
-0.0182196
-0.0159508
-0.0134488
-0.0106993
-0.00769972
-0.00446066
-0.0010083
0.0026166
0.00635965
0.0101544
0.0139245
0.0175853
0.0210438
0.0241884
0.0269045
0.0290483
0.0304896
0.0310199
0.0303286
0.0281993
0.0249453
0.0215211
0.0190221
0.0178814
0.0186373
0.0210076
0.0242861
0.0282505
0.0328034
0.0382067
0.0433007
0.0469734
0.0445404
0.0331211
0.0173784
0.00543601
0.000922661
-0.0294969
-0.0315522
-0.0325683
-0.0327862
-0.0326869
-0.0325617
-0.0324694
-0.032352
-0.0321399
-0.0317978
-0.0313227
-0.0307275
-0.0300257
-0.0292263
-0.0283341
-0.0273508
-0.0262768
-0.0251122
-0.0238534
-0.0224902
-0.0210113
-0.0194039
-0.0176517
-0.0157361
-0.0136389
-0.0113452
-0.00884594
-0.00614034
-0.00323741
-0.000158033
0.00306519
0.00638792
0.00975481
0.0131007
0.0163533
0.0194303
0.0222331
0.0246607
0.0265919
0.0279121
0.0284771
0.0281051
0.0266927
0.0244827
0.0221225
0.0205143
0.0195531
0.0201699
0.0220876
0.024828
0.0282087
0.0321102
0.0366794
0.040903
0.0436152
0.0414607
0.0322534
0.0191645
0.00825283
0.00225228
-0.0246798
-0.0265039
-0.0274602
-0.0277393
-0.0277435
-0.0277219
-0.0277281
-0.0277139
-0.0276186
-0.027409
-0.0270794
-0.0266376
-0.0260933
-0.0254517
-0.024715
-0.0238828
-0.0229527
-0.0219253
-0.0208033
-0.0195742
-0.0182279
-0.0167562
-0.0151494
-0.013396
-0.0114843
-0.00940485
-0.00715262
-0.00472865
-0.00214118
0.000592412
0.00344566
0.00638175
0.00935509
0.012311
0.0151865
0.0179105
0.0203999
0.0225684
0.024316
0.025549
0.0261672
0.0260677
0.0252113
0.023771
0.0221269
0.0205339
0.0204832
0.0211203
0.022703
0.02498
0.0278166
0.0310649
0.0347761
0.0380468
0.0398639
0.0378173
0.0304063
0.0196134
0.00979263
0.00302053
-0.0202701
-0.0218786
-0.0227656
-0.0230809
-0.0231595
-0.0232133
-0.0232903
-0.0233508
-0.0233424
-0.0232345
-0.0230199
-0.0227031
-0.0222902
-0.0217844
-0.0211853
-0.0204906
-0.0196953
-0.0187926
-0.0178221
-0.0167368
-0.0155348
-0.0142121
-0.0127638
-0.0111834
-0.00946383
-0.00759972
-0.00558882
-0.00343355
-0.0011417
0.0012718
0.00378504
0.00636739
0.00898147
0.0115813
0.0141128
0.0165155
0.0187218
0.0206597
0.0222494
0.0234161
0.0240901
0.0242175
0.0237932
0.0229408
0.0219295
0.0210815
0.0210252
0.0216099
0.0229187
0.0247887
0.0271203
0.0297403
0.0326177
0.0349949
0.036049
0.0340435
0.028018
0.0191255
0.0103867
0.00337674
-0.0162404
-0.0176503
-0.0184631
-0.018796
-0.0189265
-0.0190337
-0.0191601
-0.0192732
-0.0193281
-0.0192973
-0.0191729
-0.0189571
-0.0186539
-0.0182651
-0.0177897
-0.0172264
-0.0165739
-0.0158339
-0.014965
-0.0140069
-0.0129471
-0.0117769
-0.0104917
-0.0090877
-0.00756093
-0.00590871
-0.00413061
-0.00222993
-0.000214078
0.00190398
0.00410592
0.00636639
0.00865394
0.0109297
0.0131502
0.0152655
0.0172197
0.0189527
0.0204035
0.0215141
0.0222377
0.0225463
0.0224506
0.0220425
0.0215186
0.0211253
0.0211763
0.0217136
0.0227943
0.0243053
0.0261735
0.0282142
0.0303405
0.0319368
0.0323733
0.0303943
0.0254079
0.0180452
0.0103319
0.0034523
-0.0125662
-0.0137947
-0.014532
-0.0148689
-0.0150343
-0.0151782
-0.0153378
-0.0154865
-0.0155863
-0.015613
-0.0155585
-0.0154236
-0.0152103
-0.0149193
-0.0145486
-0.0140953
-0.0135561
-0.0129264
-0.0122008
-0.0113822
-0.0104678
-0.00945207
-0.00833081
-0.00710196
-0.00576413
-0.0043166
-0.00276014
-0.00109864
0.000661032
0.00250766
0.00442559
0.00639374
0.00838622
0.0103711
0.0123125
0.0141699
0.0158985
0.0174495
0.018776
0.0198349
0.0205943
0.0210385
0.0211849
0.0211025
0.0209292
0.0208331
0.020998
0.0214967
0.022385
0.023582
0.0250336
0.0265554
0.028041
0.028991
0.0289451
0.026996
0.0227846
0.0166338
0.00986021
0.0033471
-0.00922501
-0.0102892
-0.0109523
-0.0112841
-0.0114717
-0.0116397
-0.0118203
-0.0119919
-0.0121227
-0.0121915
-0.0121907
-0.0121199
-0.0119801
-0.0117709
-0.0114899
-0.0111339
-0.0106992
-0.0101826
-0.00958022
-0.00888953
-0.00811245
-0.00724495
-0.00628249
-0.00522309
-0.00406645
-0.00281323
-0.00146511
-2.61033e-05
0.00149745
0.00309576
0.0047558
0.00646003
0.00818737
0.00991178
0.0116038
0.0132299
0.0147566
0.0161442
0.0173574
0.0183633
0.0191398
0.0196778
0.0199949
0.02014
0.0202079
0.0203089
0.0205589
0.0210209
0.021745
0.0226711
0.0237553
0.0248277
0.0257831
0.0262221
0.0258114
0.023902
0.0202732
0.0150765
0.00914538
0.00313404
-0.00619637
-0.00711306
-0.0077053
-0.00802592
-0.00822647
-0.00840953
-0.00860226
-0.00878749
-0.0089387
-0.00903791
-0.00907801
-0.00905796
-0.00897798
-0.00883708
-0.00863278
-0.00836176
-0.00802051
-0.00760579
-0.0071147
-0.00654533
-0.00589515
-0.00516441
-0.00435024
-0.0034505
-0.0024644
-0.00139281
-0.000237933
0.000996125
0.00230367
0.00367635
0.00510341
0.00657039
0.00806021
0.00955153
0.0110206
0.0124413
0.0137868
0.0150261
0.0161325
0.0170804
0.0178547
0.0184488
0.0188769
0.0191718
0.0193977
0.0196224
0.0199193
0.0203462
0.0209275
0.0216212
0.0223904
0.0230869
0.0236157