/*--------------------------------*- C++ -*----------------------------------*\
| =========                 |                                                 |
| \\      /  F ield         | OpenFOAM: The Open Source CFD Toolbox           |
|  \\    /   O peration     | Version:  2512                                  |
|   \\  /    A nd           | Website:  www.openfoam.com                      |
|    \\/     M anipulation  |                                                 |
\*---------------------------------------------------------------------------*/
FoamFile
{
    version     2.0;
    format      ascii;
    arch        "LSB;label=32;scalar=64";
    class       surfaceScalarField;
    location    "68.25";
    object      phi;
}
// * * * * * * * * * * * * * * * * * * * * * * * * * * * * * * * * * * * * * //

dimensions      [0 3 -1 0 0 0 0];

oriented        oriented;

internalField   nonuniform List<scalar> 
26232
(
0.000124378
0.00096666
-0.00109104
0.000640316
0.00176017
-0.00227611
0.00168201
0.00154443
-0.00258612
0.00338169
0.000366009
-0.00206569
0.00587658
-0.00174418
-0.000750721
0.00930625
-0.00476454
0.00133487
0.013803
-0.00867464
0.00417785
0.0194761
-0.0134427
0.00776961
0.0263919
-0.0190124
0.0120966
0.0345548
-0.0252923
0.0171294
0.0438922
-0.0321516
0.0228142
0.0542488
-0.0394226
0.029066
0.0653917
-0.0469109
0.035768
0.0770267
-0.0544101
0.0427751
0.0888238
-0.0617196
0.0499226
0.100448
-0.0686618
0.0570375
0.111592
-0.0750963
0.0639521
0.122005
-0.0809307
0.0705177
0.131515
-0.0861225
0.0766127
0.140036
-0.0906871
0.0821661
0.147565
-0.0946505
0.0871218
0.154155
-0.0981623
0.0915724
0.159735
-0.101038
0.0954576
-0.104004
0.0994666
0.164272
0.000155894
0.000810766
0.000812454
0.00110361
0.0021428
0.000214082
0.00431169
-0.00180288
0.00747937
-0.00491185
0.0117923
-0.00907748
0.0173641
-0.0142464
0.0242516
-0.0203302
0.0324316
-0.0271923
0.0417857
-0.0346464
0.0520983
-0.0424642
0.0630704
-0.0503947
0.0743476
-0.0581881
0.0855573
-0.0656198
0.0963494
-0.0725117
0.106434
-0.078746
0.115608
-0.0842704
0.123773
-0.0890957
0.130935
-0.0932844
0.137183
-0.0969361
0.142694
-0.100161
0.147634
-0.103102
0.152349
-0.105754
-0.108602
0.156947
0.000210397
0.000600369
0.00106369
0.000250315
0.00276613
-0.00148836
0.0055068
-0.00454355
0.00945312
-0.00885818
0.0147297
-0.014354
0.021389
-0.0209058
0.0293844
-0.0283255
0.0385534
-0.0363614
0.0486219
-0.0447149
0.0592285
-0.0530708
0.0699666
-0.0611329
0.0804355
-0.0686569
0.0902885
-0.0754728
0.0992727
-0.081496
0.107251
-0.0867242
0.114205
-0.0912242
0.120219
-0.0951103
0.125455
-0.0985202
0.130113
-0.101593
0.134399
-0.104448
0.138495
-0.107197
0.14258
-0.109838
-0.112688
0.146666
0.000290963
0.000309406
0.00140155
-0.000860271
0.00355847
-0.00364528
0.00695714
-0.00794222
0.0117423
-0.0136434
0.0179737
-0.0205853
0.0255917
-0.0285239
0.0343999
-0.0371337
0.0440728
-0.0460343
0.0541939
-0.0548359
0.064313
-0.0631899
0.0740112
-0.0708311
0.082956
-0.0776017
0.0909387
-0.0834555
0.0978857
-0.088443
0.103846
-0.0926846
0.108961
-0.0963389
0.113422
-0.0995717
0.117435
-0.102533
0.121184
-0.105342
0.124823
-0.108087
0.128457
-0.110832
0.132191
-0.113572
-0.116519
0.136022
0.000396363
-8.69571e-05
0.00181834
-0.00228225
0.00449352
-0.00632045
0.00859473
-0.0120434
0.0142024
-0.019251
0.0212614
-0.0276444
0.0295563
-0.0368188
0.0387221
-0.0462994
0.0482938
-0.055606
0.0577815
-0.0643236
0.0667494
-0.0721579
0.0748782
-0.0789598
0.0819968
-0.0847203
0.0880824
-0.0895411
0.0932321
-0.0935927
0.0976194
-0.0970718
0.101447
-0.100166
0.104909
-0.103034
0.108167
-0.105791
0.111343
-0.108518
0.114521
-0.111265
0.117754
-0.114064
0.121091
-0.11691
-0.119928
0.124501
0.000522511
-0.000609469
0.00229534
-0.00405508
0.00551982
-0.00954494
0.0103078
-0.0168314
0.0166277
-0.0255709
0.0242662
-0.0352828
0.0328343
-0.0453869
0.0418257
-0.0552908
0.0507095
-0.0644898
0.0590267
-0.0726407
0.0664595
-0.0795907
0.0728609
-0.0853612
0.0782417
-0.0901011
0.0827295
-0.094029
0.086515
-0.0973782
0.089802
-0.100359
0.0927727
-0.103137
0.0955705
-0.105831
0.098298
-0.108518
0.101024
-0.111244
0.103792
-0.114034
0.106629
-0.116901
0.109564
-0.119845
-0.122932
0.112568
0.000663844
-0.00127331
0.00280627
-0.0061975
0.00656866
-0.0133073
0.0119579
-0.0222207
0.0187871
-0.0324001
0.0266644
-0.0431601
0.0350514
-0.0537739
0.0433725
-0.063612
0.0511316
-0.0722489
0.0579945
-0.0795036
0.0638181
-0.0854144
0.0686293
-0.0901724
0.0725721
-0.0940439
0.0758459
-0.0973028
0.0786538
-0.100186
0.0811697
-0.102875
0.0835251
-0.105493
0.085811
-0.108117
0.0880863
-0.110794
0.0903875
-0.113545
0.0927377
-0.116384
0.0951502
-0.119314
0.0976392
-0.122334
-0.125473
0.10018
0.000813321
-0.00208663
0.00331936
-0.00870354
0.00756101
-0.017549
0.0133981
-0.0280578
0.0204627
-0.0394646
0.0282
-0.0508975
0.0359871
-0.061561
0.0432733
-0.0708982
0.0496837
-0.0786593
0.0550555
-0.0848755
0.059413
-0.0897718
0.0629052
-0.0936645
0.0657365
-0.0968752
0.0681109
-0.0996771
0.0701989
-0.102274
0.0721267
-0.104802
0.0739787
-0.107345
0.0758082
-0.109947
0.0776474
-0.112633
0.0795163
-0.115414
0.081427
-0.118295
0.0833875
-0.121274
0.0854054
-0.124352
-0.127532
0.0874644
0.000962545
-0.00304918
0.00379893
-0.0115399
0.00841492
-0.022165
0.0144926
-0.0341355
0.0214863
-0.0464583
0.0287304
-0.0581416
0.0356033
-0.0684339
0.0416609
-0.0769558
0.0466928
-0.0836912
0.0506997
-0.0888824
0.0538243
-0.0928964
0.056273
-0.0961133
0.0582536
-0.0988557
0.0599386
-0.101362
0.0614536
-0.103789
0.0628814
-0.10623
0.0642726
-0.108736
0.065657
-0.111331
0.0670526
-0.114028
0.0684705
-0.116832
0.0699182
-0.119742
0.0714007
-0.122757
0.0729213
-0.125873
-0.129081
0.0744706
0.00110166
-0.00415084
0.00420778
-0.014646
0.00905465
-0.0270118
0.0151365
-0.0402174
0.0217648
-0.0530866
0.0282379
-0.0646147
0.0340143
-0.0742102
0.0388025
-0.081744
0.0425535
-0.0874421
0.0453888
-0.0917177
0.0475125
-0.0950201
0.0491379
-0.0977387
0.0504445
-0.100162
0.0515628
-0.10248
0.0525779
-0.104804
0.0535405
-0.107193
0.0544798
-0.109675
0.0554129
-0.112264
0.0563504
-0.114966
0.0572991
-0.117781
0.0582637
-0.120707
0.0592477
-0.123741
0.0602522
-0.126877
-0.130103
0.0612739
0.00122057
-0.00537141
0.00451216
-0.0179376
0.00942155
-0.0319212
0.0152702
-0.0460661
0.0212861
-0.0591025
0.0268079
-0.0701365
0.0314262
-0.0788285
0.0350082
-0.085326
0.0376327
-0.0900666
0.0394918
-0.0935768
0.0408043
-0.0963326
0.0417606
-0.0986951
0.0425014
-0.100903
0.0431181
-0.103097
0.0436648
-0.105351
0.0441718
-0.1077
0.0446561
-0.110159
0.0451279
-0.112736
0.0455939
-0.115432
0.046059
-0.118246
0.0465263
-0.121174
0.0469975
-0.124212
0.0474717
-0.127351
-0.13058
0.047949
0.00131286
-0.00668427
0.00468914
-0.0213139
0.00948326
-0.0367153
0.0148844
-0.0514673
0.0201081
-0.0643262
0.0245929
-0.0746212
0.0280804
-0.082316
0.0305736
-0.0878192
0.032235
-0.0917281
0.0332837
-0.0946254
0.0339232
-0.0969721
0.0343093
-0.0990811
0.0345446
-0.101139
0.0346902
-0.103243
0.0347793
-0.10544
0.0348296
-0.10775
0.0348515
-0.110181
0.0348514
-0.112736
0.0348345
-0.115415
0.0348045
-0.118216
0.0347642
-0.121134
0.0347145
-0.124162
0.0346538
-0.127291
0.0345839
-0.13051
-0.000242391
0.000799184
-0.000556793
-0.000839064
0.00165475
-0.00105808
-0.00171068
0.0020072
-0.00113559
-0.00279918
0.00200426
-0.000915761
-0.00406119
0.0017615
-0.000499486
-0.00546435
0.00136212
4.10349e-05
-0.00698443
0.000858106
0.000661975
-0.00860286
0.000274115
0.00134432
-0.0103049
-0.000385964
0.00208799
-0.0120777
-0.00113267
0.00290546
-0.0139094
-0.00198386
0.0038156
-0.0157879
-0.00296045
0.00483896
-0.0176997
-0.00408284
0.00599458
-0.0196289
-0.00536891
0.00729814
-0.0215569
-0.00683279
0.00876082
-0.0234618
-0.00848341
0.0103883
-0.0253187
-0.010323
0.0121799
-0.0271006
-0.0123452
0.0141271
-0.0287811
-0.0145323
0.0162128
-0.0303376
-0.0168536
0.0184101
-0.0317557
-0.0192652
0.0206833
-0.033034
-0.0217095
0.0229879
-0.0341952
-0.0241105
0.0252717
-0.0263814
-0.0352986
0.0274848
-0.000232445
0.00103163
-0.000812186
0.00223449
-0.00166688
0.0028619
-0.00274156
0.00307894
-0.00399338
0.00301331
-0.00538935
0.0027581
-0.00690448
0.00237324
-0.00852
0.00188964
-0.0102216
0.00131559
-0.0119976
0.000643404
-0.0138392
-0.000142321
-0.0157367
-0.00106293
-0.0176803
-0.00213929
-0.0196577
-0.00339152
-0.0216538
-0.00483666
-0.0236499
-0.00648732
-0.0256233
-0.00834958
-0.0275481
-0.0104204
-0.0293961
-0.0126842
-0.031141
-0.0151087
-0.032764
-0.0176422
-0.0342601
-0.0202134
-0.0356466
-0.022724
-0.0250319
-0.0369962
-0.000204654
0.00123628
-0.000726125
0.00275596
-0.00150463
0.0036404
-0.0024909
0.00406522
-0.00364357
0.00416597
-0.0049286
0.00404314
-0.00631882
0.00376345
-0.00779291
0.00336373
-0.00933435
0.00285703
-0.0109305
0.00223957
-0.0125699
0.00149707
-0.0142416
0.000608761
-0.0159367
-0.000444169
-0.0176429
-0.00168529
-0.0193455
-0.00313414
-0.0210262
-0.00480654
-0.0226632
-0.00671256
-0.02423
-0.00885371
-0.0256952
-0.011219
-0.0270247
-0.0137793
-0.0281867
-0.0164802
-0.0291608
-0.0192393
-0.0299373
-0.0219475
-0.0243852
-0.030584
-0.000161236
0.00139752
-0.000586774
0.0031815
-0.00123357
0.00428719
-0.00206013
0.00489179
-0.00302719
0.00513303
-0.0040992
0.00511514
-0.00524517
0.00490942
-0.0064388
0.00455736
-0.00765796
0.00407619
-0.00888378
0.00346539
-0.0100994
0.00271272
-0.0112898
0.00179914
-0.012434
0.000699998
-0.0135201
-0.000599151
-0.0145269
-0.00212734
-0.0154328
-0.00390063
-0.016214
-0.00593143
-0.0168435
-0.00822416
-0.0172908
-0.0107717
-0.0175198
-0.0135503
-0.0174899
-0.0165101
-0.0171683
-0.019561
-0.0165432
-0.0225725
-0.0254507
-0.0154778
-0.000107104
0.00150462
-0.00040829
0.00348269
-0.000878705
0.00475761
-0.00148539
0.00549848
-0.00219137
0.00583901
-0.00295896
0.00588273
-0.00375194
0.0057024
-0.00453661
0.00534202
-0.00528189
0.00482147
-0.00595881
0.00414232
-0.0065396
0.0032935
-0.00699655
0.00225609
-0.0073023
0.00100575
-0.00742479
-0.000476664
-0.00733524
-0.00221688
-0.00700195
-0.00423393
-0.00639332
-0.00654006
-0.00547909
-0.00913838
-0.00423075
-0.01202
-0.00262076
-0.0151603
-0.000616671
-0.0185142
0.00183231
-0.02201
0.00477358
-0.0255138
-0.0287074
0.00803032
-4.89635e-05
0.00155359
-0.000210646
0.00364437
-0.000476317
0.00502328
-0.000820544
0.0058427
-0.00120803
0.00622649
-0.00159826
0.00627296
-0.00194862
0.00605276
-0.00221616
0.00560956
-0.00235829
0.0049636
-0.00233272
0.00411674
-0.00209687
0.00305765
-0.00160734
0.00176656
-0.00081835
0.00021676
0.000314425
-0.00160944
0.00184032
-0.00374277
0.00380471
-0.00619832
0.00625014
-0.00898548
0.00921428
-0.0121025
0.012727
-0.0155328
0.0168091
-0.0192423
0.0214729
-0.023178
0.0267316
-0.0272686
0.0325374
-0.0313196
-0.0354324
0.0392624
5.89808e-06
0.00154769
-1.59161e-05
0.00366618
-6.7508e-05
0.00507487
-0.000127762
0.00590296
-0.000161392
0.00626012
-0.000124
0.00623557
3.44919e-05
0.00589427
0.000367645
0.00527641
0.000931361
0.00439989
0.00178341
0.00326469
0.00298344
0.00185762
0.00459309
0.000156909
0.00667266
-0.0018628
0.00928954
-0.00422632
0.0125025
-0.00695575
0.0163685
-0.0100643
0.0209366
-0.0135535
0.0262438
-0.0174097
0.032312
-0.021601
0.0391455
-0.0260759
0.0467232
-0.0307557
0.0550372
-0.0355826
0.0639833
-0.0402658
-0.0453661
0.073917
5.11197e-05
0.00149657
0.000155689
0.00356161
0.000309989
0.00492057
0.000535459
0.00567749
0.000870257
0.00592533
0.00136462
0.00574121
0.00207759
0.0051813
0.00307475
0.00427925
0.00442669
0.00304795
0.00620779
0.00148359
0.00849512
-0.000429703
0.011367
-0.002715
0.014901
-0.00539674
0.019171
-0.00849633
0.0242423
-0.0120271
0.0301676
-0.0159896
0.0369816
-0.0203675
0.0446964
-0.0251246
0.0532984
-0.0302029
0.0627475
-0.035525
0.0729728
-0.0409809
0.083907
-0.0465168
0.0953747
-0.0517335
-0.0576147
0.107623
8.27111e-05
0.00141386
0.000291846
0.00335248
0.000632069
0.00458035
0.0011318
0.00517776
0.00183651
0.00522062
0.0028055
0.00477222
0.00410931
0.00387748
0.00582732
0.00256124
0.00804659
0.000828675
0.0108579
-0.00132772
0.0143536
-0.00392541
0.0186234
-0.00698474
0.0237493
-0.0105227
0.0297996
-0.0145466
0.0368219
-0.0190494
0.0448364
-0.0240041
0.0538308
-0.0293619
0.0637567
-0.0350506
0.0745297
-0.0409759
0.0860304
-0.0470257
0.0981173
-0.0530679
0.110627
-0.0590268
0.123396
-0.0645022
-0.0705529
0.136334
0.000100418
0.00131344
0.000391174
0.00306172
0.000896101
0.00407542
0.00165793
0.00441593
0.00273523
0.00414332
0.00420108
0.00330637
0.00614151
0.00193706
0.00865009
5.26545e-05
0.0118333
-0.00235454
0.0157925
-0.00528693
0.0206267
-0.00875961
0.0264215
-0.0127796
0.0332404
-0.0173415
0.0411155
-0.0224218
0.0500397
-0.0279735
0.0599606
-0.0339251
0.0707796
-0.0401809
0.0823538
-0.0466248
0.0945044
-0.0531264
0.107027
-0.0595479
0.119711
-0.0657523
0.132324
-0.0716398
0.144763
-0.0769411
-0.0823921
0.156602
0.000108203
0.00120524
0.000466024
0.0027039
0.00112597
0.00341548
0.00215256
0.00338934
0.00362391
0.00267197
0.00563201
0.00129827
0.00828066
-0.000711594
0.0116843
-0.00335098
0.0159512
-0.00662149
0.0211874
-0.0105231
0.0274757
-0.0150478
0.0348661
-0.02017
0.0433644
-0.0258399
0.0529233
-0.0319806
0.0634377
-0.0384879
0.0747466
-0.045234
0.0866409
-0.0520752
0.0988775
-0.0588613
0.111196
-0.0654454
0.12335
-0.0717015
0.135116
-0.0775182
0.146325
-0.0828486
0.156923
-0.0875391
-0.0918939
0.166425
0.0001142
0.000541993
0.00137135
0.002695
0.00461625
0.00724939
0.0107156
0.0151343
0.0206093
0.0272156
0.034982
0.043878
0.0538061
0.0646006
0.0760353
0.0878388
0.0997157
0.111372
0.122539
0.133004
0.142608
0.151331
0.15925
0.166823
-0.0349794
-0.0406123
0.0402931
-0.0342716
-0.0440997
0.0433919
-0.0331298
-0.0467667
0.045625
-0.0314771
-0.0483047
0.046652
-0.0292081
-0.0483053
0.0460363
-0.0262504
-0.0463335
0.0433759
-0.0225125
-0.0419252
0.0381872
-0.0179265
-0.0346413
0.0300554
-0.0124408
-0.0241437
0.018658
-0.00605091
-0.0102823
0.00389245
0.000964074
0.00666758
-0.0136826
0.00860571
0.0264284
-0.03407
0.0163816
0.048183
-0.055959
0.0236693
0.0708109
-0.0780986
0.0302052
0.092258
-0.0987939
0.0352545
0.11184
-0.116889
0.0383779
0.128861
-0.131985
0.0398017
0.142921
-0.144344
0.0407794
0.152963
-0.153941
0.0433904
0.156244
-0.158855
0.0494605
0.148593
-0.154663
0.05929
0.126568
-0.136397
0.0716791
0.0894263
-0.101815
0.0853164
0.0389771
-0.0526144
0.0991001
-0.0198389
0.00605522
0.112011
-0.079156
0.0662449
0.122646
-0.128916
0.118282
0.129836
-0.163229
0.156039
0.13359
-0.182414
0.17866
0.134545
-0.189364
0.188409
0.132036
-0.189604
0.192113
0.124914
-0.19312
0.200242
0.114929
-0.20399
0.213974
0.107271
-0.20701
0.214668
0.106474
-0.176222
0.177019
0.112753
-0.101973
0.0956948
0.122833
-0.00240186
-0.00767811
0.13304
0.0943558
-0.104563
0.141465
0.166924
-0.175349
0.146883
0.20825
-0.213668
0.147192
0.231393
-0.231702
0.141361
0.25616
-0.250329
0.132141
0.280319
-0.271099
0.124903
0.267183
-0.259945
0.123453
0.189063
-0.187612
0.127754
0.0557609
-0.060062
0.135391
-0.0794431
0.071806
0.14219
-0.179371
0.172572
0.143521
-0.238302
0.236971
0.138297
-0.279326
0.28455
0.130063
-0.306938
0.315172
0.12356
-0.275798
0.282301
0.122791
-0.192622
0.193391
0.127013
-0.0365914
0.0323699
0.131337
0.08041
-0.0847348
0.132205
0.210829
-0.211696
0.127512
0.274127
-0.269435
0.121274
0.289222
-0.282984
0.120374
0.261512
-0.260612
0.0495002
-0.0522576
-0.0376666
-0.0399418
-0.0380301
-0.0437362
-0.0380273
-0.0467695
-0.0375798
-0.0487522
-0.0365799
-0.0493053
-0.0349026
-0.0480109
-0.0324015
-0.0444263
-0.028926
-0.0381168
-0.0243506
-0.0287192
-0.018594
-0.016039
-0.0117985
-0.000127913
-0.00422349
0.0188534
0.00406843
0.0398911
0.012416
0.0624634
0.0201932
0.0844807
0.0269386
0.105094
0.0325025
0.123297
0.0373642
0.138059
0.0427151
0.147612
0.0500008
0.148958
0.0599816
0.138612
0.0721064
0.114443
0.0850627
0.07647
0.0979016
0.0261382
0.11002
-0.0319573
0.120698
-0.089834
0.128905
-0.137123
0.133765
-0.168089
0.135373
-0.184022
0.134709
-0.188699
0.131522
-0.186417
0.124181
-0.185779
0.113423
-0.193232
0.104227
-0.197814
0.102072
-0.174067
0.107946
-0.107847
0.118658
-0.0131144
0.130271
0.0827432
0.1404
0.156795
0.147174
0.201476
0.148312
0.230255
0.143149
0.261324
0.134726
0.288742
0.128147
0.273762
0.126685
0.190524
0.130093
0.0523527
0.136521
-0.0858706
0.142504
-0.185354
0.143461
-0.239259
0.138052
-0.273918
0.129822
-0.298708
0.123618
-0.269594
0.123106
-0.19211
0.127402
-0.0408869
0.13139
0.0764221
0.131685
0.210534
0.126833
0.278979
0.120397
0.295658
0.119645
0.262263
0.0463766
-0.0321655
-0.0383603
-0.0335889
-0.0423128
-0.0347208
-0.0456376
-0.0354845
-0.0479885
-0.0357696
-0.0490201
-0.035435
-0.0483455
-0.0343098
-0.0455515
-0.0321983
-0.0402282
-0.0289056
-0.0320119
-0.0242886
-0.020656
-0.0182388
-0.00617763
-0.0110183
0.0116329
-0.00303141
0.0319042
0.00589007
0.0535419
0.015018
0.0753528
0.0238437
0.0962686
0.0322517
0.11489
0.0406657
0.129645
0.049944
0.138334
0.0608498
0.138052
0.073362
0.1261
0.0865306
0.101274
0.0991457
0.0638549
0.110651
0.0146329
0.120772
-0.0420784
0.129024
-0.0980855
0.134686
-0.142786
0.137262
-0.170665
0.136908
-0.183668
0.134733
-0.186525
0.13098
-0.182664
0.123802
-0.178601
0.112767
-0.182197
0.102227
-0.187273
0.098444
-0.170284
0.103558
-0.112961
0.114632
-0.0241886
0.127515
0.0698599
0.139261
0.145049
0.147369
0.193367
0.14945
0.228174
0.145151
0.265623
0.137672
0.296221
0.131761
0.279673
0.13022
0.192065
0.132657
0.0499161
0.137769
-0.0909827
0.142856
-0.190442
0.143493
-0.239895
0.13796
-0.268385
0.129742
-0.29049
0.123881
-0.263733
0.123643
-0.191873
0.127947
-0.0451904
0.131568
0.0728013
0.131289
0.210812
0.126308
0.28396
0.119775
0.302192
0.119227
0.262811
0.0429144
-0.0179629
-0.0358752
-0.0204263
-0.0398495
-0.0227799
-0.043284
-0.0248269
-0.0459415
-0.0264549
-0.0473921
-0.0275023
-0.0472981
-0.0277859
-0.0452679
-0.0270985
-0.0409157
-0.0252162
-0.0338942
-0.0219375
-0.0239347
-0.017133
-0.0109821
-0.0106286
0.00512851
-0.00313344
0.024409
0.00608307
0.0443254
0.0161938
0.065242
0.02678
0.0856824
0.0376489
0.104021
0.0489835
0.11831
0.0611698
0.126148
0.07438
0.124842
0.0881423
0.112338
0.101356
0.0880603
0.113051
0.0521606
0.122842
0.00484116
0.13091
-0.0501462
0.136752
-0.103927
0.139891
-0.145925
0.140252
-0.171026
0.138139
-0.181555
0.134586
-0.182972
0.130278
-0.178356
0.123528
-0.171851
0.112798
-0.171467
0.101307
-0.175782
0.0957612
-0.164738
0.0996787
-0.116878
0.110797
-0.0353073
0.124768
0.0558891
0.138005
0.131812
0.147422
0.18395
0.150566
0.225031
0.147321
0.268868
0.14089
0.302652
0.135609
0.284954
0.133904
0.193771
0.135377
0.0484429
0.139115
-0.0947201
0.143229
-0.194556
0.143582
-0.240248
0.137985
-0.262789
0.129769
-0.282273
0.124254
-0.258218
0.124302
-0.191921
0.128588
-0.0494765
0.131851
0.0695385
0.131016
0.211648
0.125935
0.289041
0.119423
0.308703
0.119152
0.263082
0.0391437
0.00478175
-0.0326266
0.00102248
-0.0360902
-0.00246718
-0.0397943
-0.00583725
-0.0425714
-0.00891439
-0.044315
-0.0114815
-0.044731
-0.0133048
-0.0434446
-0.0141437
-0.0400768
-0.013763
-0.0342749
-0.0119342
-0.0257635
-0.00853787
-0.0143784
-0.00319018
-0.000219182
0.00422134
0.0169975
0.0132839
0.0352628
0.02374
0.0547859
0.0352919
0.0741305
0.0476976
0.0916149
0.0608664
0.105141
0.0747445
0.11227
0.0890508
0.110536
0.103041
0.0983472
0.115622
0.0754798
0.125996
0.0417864
0.1341
-0.00326314
0.140141
-0.0561865
0.143659
-0.107445
0.144347
-0.146614
0.142579
-0.169259
0.138931
-0.177907
0.134222
-0.178262
0.12937
-0.173504
0.123169
-0.16565
0.113266
-0.161564
0.101386
-0.163903
0.0941268
-0.157478
0.0964849
-0.119236
0.107256
-0.0460781
0.122031
0.0411138
0.136573
0.11727
0.14726
0.173263
0.151587
0.220703
0.149579
0.270877
0.144263
0.307968
0.139541
0.289675
0.13761
0.195702
0.138155
0.047897
0.140531
-0.0970952
0.143598
-0.197623
0.143691
-0.240341
0.138101
-0.257199
0.129862
-0.274035
0.12465
-0.253005
0.124988
-0.19226
0.129266
-0.053754
0.132216
0.0665878
0.130862
0.213003
0.125709
0.294194
0.119344
0.315068
0.119427
0.263
0.0350927
0.0352596
-0.0286238
0.0310937
-0.0319243
0.0265545
-0.0352551
0.0218936
-0.0379106
0.0172564
-0.0396777
0.0128893
-0.0403638
0.00910983
-0.0396652
0.00628483
-0.0372518
0.00480318
-0.0327932
0.00503166
-0.025992
0.00726357
-0.0166103
0.0116383
-0.00459394
0.0180131
0.0106227
0.026199
0.0270769
0.0362551
0.0447299
0.0478838
0.0625018
0.0607804
0.0787183
0.074622
0.0912999
0.0890158
0.0978759
0.103386
0.0961655
0.116868
0.0848655
0.128446
0.0639019
0.137513
0.0327197
0.144121
-0.00987147
0.148265
-0.0603309
0.14954
-0.10872
0.14789
-0.144963
0.14414
-0.165509
0.139173
-0.17294
0.133567
-0.172656
0.128201
-0.168138
0.122523
-0.159972
0.113852
-0.152893
0.102247
-0.152297
0.0935529
-0.148784
0.0940716
-0.119755
0.104064
-0.056071
0.119273
0.0259055
0.134876
0.101668
0.146783
0.161355
0.152417
0.215069
0.151802
0.271492
0.147657
0.312112
0.1434
0.293932
0.141198
0.197904
0.140906
0.0481891
0.141978
-0.0981672
0.14394
-0.199585
0.143776
-0.240176
0.138269
-0.251692
0.129992
-0.265758
0.124994
-0.248007
0.125611
-0.192876
0.129922
-0.0580648
0.132635
0.0638741
0.130822
0.214816
0.125626
0.29939
0.119527
0.321167
0.12004
0.262487
0.0307847
0.0695333
-0.0242401
0.0649852
-0.0273762
0.0600833
-0.0303532
0.0548542
-0.0326815
0.0494378
-0.0342614
0.044019
-0.034945
0.0388633
-0.0345095
0.0343426
-0.0327311
0.0309082
-0.0293589
0.0290156
-0.0240994
0.0290458
-0.0166405
0.0312571
-0.00680523
0.0358685
0.00601129
0.0426963
0.0202491
0.0517152
0.035711
0.0626582
0.0515588
0.0751562
0.0662203
0.0887149
0.0777412
0.102709
0.0838815
0.116392
0.082483
0.128868
0.0723891
0.139256
0.0535138
0.147137
0.0248392
0.152493
-0.0152278
0.154963
-0.0628003
0.154145
-0.107902
0.150366
-0.141185
0.14485
-0.159993
0.138775
-0.166865
0.132544
-0.166426
0.126752
-0.162346
0.121457
-0.154677
0.114213
-0.145649
0.103559
-0.141643
0.0939238
-0.139149
0.0924483
-0.11828
0.101206
-0.0648285
0.116415
0.010696
0.132801
0.0852817
0.145865
0.148291
0.152929
0.208006
0.153877
0.270544
0.150941
0.315049
0.14707
0.297804
0.14456
0.200414
0.143529
0.0492194
0.143409
-0.0980464
0.144231
-0.200408
0.143792
-0.239737
0.138449
-0.246349
0.130136
-0.257445
0.125236
-0.243107
0.126096
-0.193737
0.130496
-0.0624648
0.133076
0.0612942
0.130891
0.217001
0.125686
0.304596
0.119952
0.3269
0.120966
0.261473
0.0262335
0.103003
-0.0196202
0.0982574
-0.0226301
0.0932034
-0.0252992
0.0878272
-0.0273053
0.0822344
-0.0286685
0.0765186
-0.0292293
0.0707972
-0.0287881
0.065301
-0.0272349
0.0604085
-0.0244664
0.0566032
-0.0202941
0.0543977
-0.014435
0.05422
-0.00662749
0.0565059
0.00372539
0.0612913
0.0154637
0.068572
0.0284302
0.078108
0.0420229
0.0894682
0.05486
0.102029
0.0651804
0.115011
0.0708999
0.127565
0.0699289
0.138815
0.0611392
0.14804
0.0442889
0.154876
0.0180031
0.159143
-0.0194956
0.160059
-0.0637156
0.157303
-0.105146
0.151653
-0.135535
0.144654
-0.152993
0.13768
-0.159891
0.131068
-0.159814
0.125001
-0.156279
0.119912
-0.149587
0.114055
-0.139792
0.104914
-0.132502
0.0950051
-0.12924
0.0915666
-0.114841
0.0986131
-0.071875
0.113344
-0.00403486
0.130222
0.0684032
0.144377
0.134137
0.152973
0.19941
0.155622
0.267895
0.153959
0.316711
0.150446
0.301317
0.147598
0.203262
0.145944
0.050873
0.144765
-0.0968674
0.144442
-0.200085
0.143691
-0.238986
0.138591
-0.241249
0.130274
-0.249128
0.125341
-0.238174
0.126386
-0.194782
0.13094
-0.0670192
0.133505
0.058729
0.131063
0.219443
0.125885
0.309773
0.120596
0.332189
0.122176
0.259893
0.0214416
0.131592
-0.014878
0.126722
-0.0177606
0.121544
-0.0201212
0.116152
-0.0219128
0.110684
-0.0232004
0.105189
-0.0237349
0.0996988
-0.0232974
0.0942992
-0.0218353
0.0891768
-0.019344
0.0846412
-0.0157585
0.0811332
-0.010927
0.0791924
-0.00468673
0.0791482
0.00376957
0.0814829
0.0131291
0.0864069
0.0235061
0.0938217
0.0346082
0.103335
0.0453469
0.114281
0.0542345
0.125794
0.0593862
0.136958
0.0587657
0.146911
0.0511862
0.155029
0.0361709
0.160932
0.0120999
0.164097
-0.0226606
0.163444
-0.0630627
0.158863
-0.100565
0.151614
-0.128287
0.143457
-0.144835
0.135802
-0.152236
0.129001
-0.153014
0.122855
-0.150133
0.117845
-0.144577
0.113147
-0.135094
0.105866
-0.125222
0.0964492
-0.119823
0.0913246
-0.109717
0.0962284
-0.0767788
0.109948
-0.017755
0.127004
0.0513477
0.14217
0.118971
0.152409
0.189171
0.156947
0.263356
0.156643
0.317016
0.153457
0.304503
0.150273
0.206446
0.14806
0.0530862
0.14598
-0.0947872
0.144529
-0.198633
0.143419
-0.237876
0.138639
-0.236469
0.130389
-0.240879
0.125301
-0.233086
0.126432
-0.195913
0.131211
-0.0717975
0.133889
0.0560512
0.131329
0.222003
0.126225
0.314877
0.121439
0.336975
0.123648
0.257685
0.0164024
0.152047
-0.0103232
0.147243
-0.0129564
0.142086
-0.0149636
0.136831
-0.0166585
0.13164
-0.018009
0.126546
-0.0186407
0.121604
-0.0183554
0.116897
-0.0171289
0.112492
-0.0149384
0.108491
-0.0117579
0.105086
-0.007522
0.102629
-0.00222983
0.101444
0.0049544
0.102085
0.0124884
0.104865
0.0207264
0.109931
0.0295416
0.117118
0.0381603
0.125923
0.0454291
0.135549
0.0497602
0.145063
0.0492517
0.153604
0.0426456
0.160637
0.0291378
0.165526
0.00721125
0.167369
-0.0245043
0.165
-0.0606937
0.158696
-0.0942609
0.150133
-0.119724
0.14115
-0.135852
0.133033
-0.144119
0.126182
-0.146163
0.120162
-0.144112
0.11521
-0.139626
0.11135
-0.131234
0.106015
-0.119886
0.0978261
-0.111635
0.0915671
-0.103458
0.0940516
-0.0792633
0.106194
-0.0298969
0.12304
0.034501
0.139113
0.102898
0.151037
0.177247
0.157559
0.256834
0.158753
0.315822
0.156012
0.307244
0.15253
0.209927
0.149867
0.0557494
0.147009
-0.0919285
0.144472
-0.196097
0.142945
-0.236349
0.138545
-0.232069
0.130468
-0.232802
0.125128
-0.227746
0.126221
-0.197006
0.131268
-0.0768438
0.134195
0.0531242
0.13168
0.224517
0.126704
0.319854
0.122471
0.341207
0.125367
0.254789
0.0111036
0.162515
-0.00641377
0.158079
-0.00852054
0.153262
-0.0101458
0.148441
-0.0118383
0.143714
-0.0132813
0.139142
-0.014069
0.134879
-0.0140925
0.131042
-0.0132918
0.127668
-0.0115646
0.124794
-0.00888393
0.122493
-0.00522099
0.121134
-0.00087069
0.120308
0.00578019
0.120433
0.0123636
0.122094
0.0190657
0.125505
0.0261301
0.130689
0.0329768
0.137343
0.0387748
0.144897
0.0422062
0.152558
0.0415909
0.159529
0.0356749
0.1652
0.0234661
0.168632
0.00377969
0.168972
-0.0248449
0.164846
-0.0565669
0.157082
-0.0864968
0.147601
-0.110243
0.138168
-0.12642
0.129821
-0.135772
0.122979
-0.13932
0.117187
-0.13832
0.112304
-0.134743
0.108887
-0.127817
0.105257
-0.116257
0.0988251
-0.105203
0.0921727
-0.0968051
0.0922253
-0.0793159
0.102146
-0.0398177
0.11826
0.0183873
0.135104
0.0860536
0.148867
0.163484
0.157611
0.24809
0.160411
0.313022
0.158074
0.30958
0.154442
0.21356
0.151418
0.0587733
0.147916
-0.0884269
0.144354
-0.192534
0.142335
-0.234331
0.138324
-0.228058
0.130522
-0.225
0.12487
-0.222094
0.125775
-0.197911
0.131094
-0.0821623
0.134387
0.0498315
0.132101
0.226803
0.127321
0.324634
0.12369
0.344838
0.127329
0.25115
0.00553284
0.163838
-0.00342935
0.160077
-0.00475991
0.156149
-0.00621709
0.152171
-0.00786027
0.148191
-0.009301
0.144375
-0.0102532
0.140871
-0.0105886
0.137791
-0.0102116
0.135256
-0.0090298
0.133346
-0.00697452
0.132088
-0.00396289
0.131209
8.93744e-06
0.131591
0.00539808
0.132829
0.0111253
0.134814
0.0170803
0.137803
0.0231415
0.141931
0.0288483
0.147143
0.0335636
0.153056
0.0362929
0.15903
0.0356173
0.164368
0.0303366
0.168358
0.0194756
0.170558
0.00157962
0.168563
-0.02285
0.162806
-0.0508095
0.154156
-0.077847
0.144444
-0.100531
0.135105
-0.11708
0.126851
-0.127518
0.120074
-0.132543
0.114503
-0.13275
0.109695
-0.129935
0.106342
-0.124464
0.103896
-0.11381
0.0993772
-0.100684
0.0930569
-0.0904848
0.0910132
-0.0772723
0.098197
-0.0470015
0.112882
0.00370201
0.129895
0.0690408
0.14517
0.14821
0.156276
0.236984
0.16101
0.308288
0.159397
0.311193
0.155811
0.217145
0.152711
0.0618735
0.14863
-0.0843454
0.144209
-0.188113
0.141668
-0.231789
0.138001
-0.224391
0.130546
-0.217544
0.124561
-0.21611
0.125179
-0.198528
0.130719
-0.0877029
0.134459
0.0460912
0.132586
0.228677
0.128079
0.329141
0.125102
0.347815
0.129544
0.246708
-0.000320338
0.191192
-0.000414119
-0.194207
0.188654
-0.00222189
0.186099
-0.00366285
0.183278
-0.0050389
0.180203
-0.0062265
0.176968
-0.00701774
0.173644
-0.00726444
0.170291
-0.00685912
0.16698
-0.00571872
0.163779
-0.00377272
0.160764
-0.00094862
0.158073
0.00270023
0.1561
0.00737125
0.154729
0.0124957
0.154069
0.0177404
0.154382
0.0228292
0.155933
0.0272968
0.158969
0.0305276
0.163613
0.031649
0.1697
0.0295302
0.176824
0.0232125
0.184323
0.0119766
0.191017
-0.0051137
0.195317
-0.0271505
0.196083
-0.0515757
0.193275
-0.0750389
0.187652
-0.0949078
0.180225
-0.109654
0.171837
-0.11913
0.163264
-0.12397
0.154973
-0.124459
0.146774
-0.121735
0.139099
-0.116789
0.132443
-0.107154
0.124907
-0.0931476
0.11495
-0.0805282
0.105943
-0.0682646
0.103218
-0.0442766
0.107344
-0.000424488
0.113988
0.062397
0.119672
0.142526
0.123703
0.232953
0.127521
0.304469
0.134066
0.304648
0.144751
0.206461
0.15487
0.0517546
0.159575
-0.0890508
0.158038
-0.186577
0.153798
-0.227549
0.147407
-0.218001
0.137825
-0.207962
0.128982
-0.207267
0.124604
-0.19415
0.124263
-0.0873618
0.122918
0.0474363
0.11853
0.233064
0.114421
0.33325
0.113612
0.348624
0.11971
0.24061
-0.00533892
0.201515
0.00168069
-0.20361
0.199389
-9.5633e-05
0.197261
-0.00153457
0.194929
-0.0027073
0.192375
-0.00367227
0.189677
-0.00431975
0.186919
-0.00450589
0.184178
-0.00411867
0.18154
-0.00308095
0.179121
-0.00135314
0.177005
0.00116727
0.175297
0.00440763
0.174248
0.00842083
0.1739
0.0128438
0.174313
0.0173273
0.175607
0.0215354
0.177915
0.0249883
0.181356
0.0270866
0.185944
0.0270607
0.191466
0.0240088
0.197471
0.0172071
0.203328
0.00611992
0.207937
-0.00972245
0.210101
-0.0293151
0.209124
-0.0505986
0.205068
-0.0709827
0.198561
-0.0884009
0.190537
-0.10163
0.181803
-0.110395
0.172994
-0.115162
0.164598
-0.116063
0.156429
-0.113566
0.148554
-0.108915
0.141767
-0.100367
0.134916
-0.0862966
0.125695
-0.0713071
0.115937
-0.0585065
0.111141
-0.0394807
0.113585
-0.00286882
0.120018
0.0559637
0.126519
0.136026
0.131907
0.227565
0.137394
0.298983
0.145816
0.296226
0.157837
0.19444
0.168664
0.0409271
0.173019
-0.0934057
0.170402
-0.18396
0.164904
-0.22205
0.157731
-0.210828
0.147625
-0.197856
0.137999