/*--------------------------------*- C++ -*----------------------------------*\
| =========                 |                                                 |
| \\      /  F ield         | OpenFOAM: The Open Source CFD Toolbox           |
|  \\    /   O peration     | Version:  2512                                  |
|   \\  /    A nd           | Website:  www.openfoam.com                      |
|    \\/     M anipulation  |                                                 |
\*---------------------------------------------------------------------------*/
FoamFile
{
    version     2.0;
    format      ascii;
    arch        "LSB;label=32;scalar=64";
    class       volVectorField;
    location    "144";
    object      U;
}
// * * * * * * * * * * * * * * * * * * * * * * * * * * * * * * * * * * * * * //

dimensions      [0 1 -1 0 0 0 0];

internalField   nonuniform List<vector> 
13248
(
(-0.0144171 0.0127466 8.46455e-20)
(-0.0267527 0.0267207 0)
(-0.0226957 0.0340544 -1.59638e-19)
(-0.00241502 0.037118 1.50377e-19)
(0.0340064 0.0375445 1.40374e-19)
(0.0864221 0.036474 0)
(0.15446 0.0347155 0)
(0.237317 0.0328473 3.36692e-19)
(0.333533 0.0312519 -1.05973e-21)
(0.440817 0.0301178 -2.95155e-19)
(0.555998 0.0294339 2.7648e-19)
(0.675129 0.0289998 -1.72978e-19)
(0.793751 0.0284593 0)
(0.907269 0.0273604 -3.0563e-19)
(1.01137 0.0252312 5.73164e-19)
(1.10246 0.0216615 -1.36878e-19)
(1.17795 0.0163738 -2.4797e-19)
(1.23653 0.00925545 2.32807e-19)
(1.27824 0.000437296 0)
(1.30427 -0.0100676 0)
(1.31696 -0.021126 0)
(1.31836 -0.0354347 0)
(1.3121 -0.043946 6.92944e-20)
(1.29777 -0.0728172 2.47138e-19)
(-0.014522 0.0115764 -2.55612e-19)
(-0.0216264 0.0216742 1.74209e-19)
(-0.00770212 0.025261 -1.7143e-21)
(0.0262511 0.0251988 -2.29972e-19)
(0.0796265 0.0234797 -1.4022e-19)
(0.151698 0.021503 -1.32813e-19)
(0.241188 0.0201972 -2.43187e-19)
(0.345934 0.0201158 2.30521e-19)
(0.462677 0.0214774 0)
(0.587061 0.0241782 5.78849e-22)
(0.713902 0.0278215 1.50584e-21)
(0.837651 0.0317841 1.7324e-19)
(0.952986 0.0353206 0)
(1.05537 0.0376876 0)
(1.14153 0.0382647 2.08682e-19)
(1.20971 0.0366489 -3.92357e-19)
(1.25975 0.0327019 2.36216e-19)
(1.29292 0.0265485 -2.21789e-19)
(1.31156 0.0185163 -9.75057e-20)
(1.31865 0.00908913 -1.79204e-19)
(1.31716 -0.00122261 -7.35822e-20)
(1.30985 -0.0120245 -1.38613e-19)
(1.29848 -0.0212665 2.03533e-19)
(1.28526 -0.0346774 5.74909e-20)
(-0.0133014 0.00977726 0)
(-0.0121608 0.015799 0)
(0.0152035 0.0164218 8.13874e-20)
(0.0667094 0.0146051 7.48531e-20)
(0.140808 0.0124945 -1.92286e-21)
(0.235566 0.0116067 -1.37949e-19)
(0.347987 0.0128227 0)
(0.473708 0.0164584 -1.14625e-19)
(0.607037 0.0223194 1.0833e-19)
(0.741399 0.0297709 1.05692e-21)
(0.870069 0.0378633 -1.85612e-19)
(0.987008 0.0455099 -1.71211e-19)
(1.08758 0.0516817 2.38073e-21)
(1.16902 0.055578 -1.43597e-19)
(1.23056 0.0567364 3.43462e-19)
(1.27328 0.0550654 0)
(1.29961 0.0508031 -2.25317e-19)
(1.31281 0.0444138 1.09791e-19)
(1.31631 0.0365048 9.7434e-20)
(1.31314 0.0275967 0)
(1.30578 0.0184956 7.99367e-20)
(1.29567 0.00882305 -2.716e-19)
(1.2841 0.00152255 2.54969e-19)
(1.27151 -0.0109644 1.57973e-19)
(-0.0102553 0.00730352 -9.06071e-20)
(0.00275924 0.00906006 -9.37634e-20)
(0.0473192 0.00760276 8.46528e-20)
(0.119965 0.00559398 0)
(0.217624 0.0050662 0)
(0.336336 0.00740274 -3.40957e-21)
(0.470514 0.0131362 0)
(0.612961 0.0220101 -3.52833e-19)
(0.755509 0.0331218 3.28007e-19)
(0.890074 0.0451398 -4.04949e-19)
(1.0098 0.0565883 9.29328e-20)
(1.10994 0.0661376 0)
(1.18828 0.07283 1.5574e-19)
(1.24507 0.076195 -2.88834e-19)
(1.28253 0.0762426 6.88345e-20)
(1.30412 0.0733604 1.779e-19)
(1.31371 0.0681581 -7.29345e-21)
(1.31495 0.0613173 -1.97506e-19)
(1.31077 0.05346 0)
(1.30332 0.0451223 0)
(1.29392 0.0367043 -7.10078e-20)
(1.28337 0.0283385 6.3669e-20)
(1.27216 0.021381 2.28496e-19)
(1.26058 0.0110131 -2.14552e-19)
(-0.0049583 0.00431069 -9.5685e-20)
(0.0240654 0.00190021 -9.5402e-20)
(0.0895854 -0.000477871 2.68171e-19)
(0.18635 -0.000852181 -1.62792e-19)
(0.309001 0.00234696 1.53223e-19)
(0.450645 0.00998505 2.78376e-19)
(0.602432 0.0218208 -1.96989e-19)
(0.75432 0.0366577 -2.39986e-19)
(0.896535 0.0527048 4.70287e-21)
(1.02111 0.0680166 3.06704e-19)
(1.123 0.0809133 0)
(1.20042 0.0902728 8.46337e-20)
(1.25454 0.0956391 0)
(1.28862 0.0971561 -1.38844e-19)
(1.30696 0.0953857 1.95441e-19)
(1.31396 0.0910891 2.08559e-21)
(1.31345 0.0850391 -5.14729e-20)
(1.30831 0.0778989 9.706e-20)
(1.30051 0.0701841 8.34968e-20)
(1.29125 0.0622551 -7.50203e-20)
(1.28122 0.0543987 7.09923e-20)
(1.27075 0.0466698 -6.36541e-20)
(1.26008 0.0398792 0)
(1.24931 0.0307528 -4.8023e-20)
(0.00294723 0.00110344 9.56712e-20)
(0.0524411 -0.00483568 1.0058e-19)
(0.142428 -0.00654161 -8.99189e-20)
(0.26528 -0.00317477 1.67878e-19)
(0.412476 0.00589751 -1.58002e-19)
(0.573442 0.0205057 1.4306e-19)
(0.736001 0.0391787 -6.87599e-20)
(0.888213 0.0595626 1.80138e-19)
(1.0205 0.0791014 -1.13388e-19)
(1.12707 0.0956517 2.00855e-19)
(1.20631 0.107867 -4.63645e-19)
(1.26013 0.115292 1.70364e-19)
(1.29272 0.118221 -1.49548e-19)
(1.3092 0.117415 1.40476e-19)
(1.3145 0.113809 1.21824e-19)
(1.3127 0.108295 1.07379e-19)
(1.30674 0.101596 -2.98592e-19)
(1.29855 0.0942439 1.85521e-19)
(1.28925 0.0866009 -8.35016e-20)
(1.27945 0.0789149 2.18009e-19)
(1.26945 0.0713475 -7.04006e-20)
(1.25936 0.0640077 -1.71477e-19)
(1.24924 0.0572687 1.5833e-19)
(1.2391 0.0490837 4.80096e-20)
(0.0137446 -0.00190959 0)
(0.0882291 -0.0100325 9.67222e-22)
(0.205556 -0.0089918 1.88683e-19)
(0.35501 0.000379636 -1.76856e-19)
(0.524103 0.0171674 -1.59774e-19)
(0.698376 0.0396086 2.96981e-19)
(0.863214 0.0647161 -1.37935e-19)
(1.00667 0.0891156 1.83718e-19)
(1.12155 0.109984 -4.0261e-21)
(1.20589 0.125602 -1.04107e-19)
(1.26206 0.13545 2.27232e-19)
(1.29511 0.139964 -3.35505e-19)
(1.311 0.140131 0)
(1.31533 0.137105 -6.6065e-20)
(1.31254 0.131941 -1.76905e-19)
(1.30578 0.125463 5.55653e-20)
(1.29703 0.118252 2.15945e-21)
(1.28742 0.11069 -1.2317e-19)
(1.27751 0.103021 7.41371e-21)
(1.26758 0.0954023 1.42598e-19)
(1.25771 0.0879431 -6.3853e-20)
(1.24792 0.0807336 -2.42559e-20)
(1.2382 0.0738743 7.48113e-20)
(1.22852 0.066305 0)
(0.027606 -0.00425068 0)
(0.131314 -0.0124447 5.11659e-20)
(0.277799 -0.00618596 -2.46066e-19)
(0.452557 0.011356 8.96627e-20)
(0.638747 0.0370436 -8.43838e-20)
(0.818706 0.0671139 -7.71622e-20)
(0.977257 0.0971593 -1.36325e-19)
(1.10476 0.123339 6.80785e-20)
(1.19814 0.143277 5.91718e-20)
(1.2598 0.156228 0)
(1.29554 0.162726 1.34864e-19)
(1.31226 0.164014 -2.00902e-19)
(1.31637 0.16153 1.49587e-19)
(1.31292 0.156557 6.61014e-20)
(1.30542 0.15008 -5.43859e-20)
(1.29602 0.142772 -4.57051e-20)
(1.28592 0.135058 -4.27813e-20)
(1.27571 0.127197 1.27541e-19)
(1.26563 0.119348 0)
(1.25576 0.111614 6.44415e-20)
(1.24613 0.104075 5.44058e-20)
(1.23668 0.0967955 -1.34875e-19)
(1.22737 0.08976 -9.25161e-20)
(1.21814 0.0826039 8.55064e-20)
(0.0445411 -0.00539735 -5.51128e-20)
(0.181021 -0.0108201 -2.09035e-21)
(0.357059 0.00332155 5.01157e-20)
(0.553923 0.0307827 1.40284e-19)
(0.75079 0.0656288 4.08347e-20)
(0.928472 0.102063 -7.88636e-20)
(1.07363 0.134817 7.20203e-20)
(1.18088 0.160399 -6.31131e-20)
(1.25197 0.177528 1.13079e-19)
(1.29318 0.186715 4.81922e-20)
(1.31247 0.189476 -1.36798e-19)
(1.31731 0.187611 4.03551e-20)
(1.31363 0.182733 6.90768e-20)
(1.30548 0.176065 -3.39375e-20)
(1.29536 0.168429 0)
(1.28461 0.160329 5.09533e-20)
(1.27388 0.152056 8.65205e-20)
(1.26344 0.143781 1.50005e-20)
(1.25337 0.135607 -7.2297e-20)
(1.24365 0.127606 3.0381e-20)
(1.23426 0.119835 0)
(1.22512 0.112324 -2.39748e-20)
(1.21617 0.105031 -2.26973e-20)
(1.20731 0.0980295 0)
(0.0643388 -0.00481417 0)
(0.236065 -0.00402492 2.88728e-20)
(0.44042 0.0205867 5.35453e-20)
(0.654555 0.0590125 -1.43046e-19)
(0.85498 0.102273 4.62013e-20)
(1.02335 0.143007 0)
(1.15038 0.175991 6.94253e-20)
(1.23599 0.198885 -9.6918e-20)
(1.28643 0.2119 -5.64727e-20)
(1.31069 0.216785 2.55181e-20)
(1.31761 0.215792 -4.09597e-20)
(1.31432 0.210993 9.93918e-20)
(1.30574 0.203965 4.99256e-20)
(1.29488 0.195761 -3.46167e-20)
(1.28337 0.187013 -3.17009e-21)
(1.27198 0.178076 -9.55562e-20)
(1.26101 0.169141 4.3565e-20)
(1.25056 0.160318 -1.06052e-21)
(1.24061 0.151677 0)
(1.23112 0.143268 -3.04127e-20)
(1.22202 0.135128 0)
(1.21322 0.127259 6.91977e-20)
(1.20465 0.119667 -8.25001e-20)
(1.19618 0.112626 3.76436e-20)
(0.08653 -0.00199374 -1.50405e-20)
(0.294573 0.00884456 -7.28935e-20)
(0.524398 0.0461528 8.29436e-20)
(0.749907 0.0957096 4.88198e-20)
(0.947078 0.145763 -2.33218e-20)
(1.10088 0.188325 3.917e-20)
(1.20758 0.219219 -1.90289e-20)
(1.2724 0.237841 3.16646e-20)
(1.30511 0.245986 0)
(1.31616 0.246424 7.18712e-20)
(1.31428 0.241846 -2.90059e-21)
(1.30568 0.234352 -5.81199e-20)
(1.29417 0.225349 2.49596e-20)
(1.28184 0.215677 -2.82664e-20)
(1.26967 0.205795 -1.08536e-20)
(1.25804 0.195939 1.24238e-20)
(1.24707 0.186232 -9.67866e-21)
(1.23675 0.176741 -5.25652e-20)
(1.22702 0.167514 3.22438e-20)
(1.21781 0.158586 6.64876e-21)
(1.20904 0.14997 5.87253e-21)
(1.20061 0.141655 5.18856e-21)
(1.19242 0.133721 0)
(1.18434 0.12642 0)
(0.110462 0.00350944 1.50509e-20)
(0.35434 0.0283837 -1.50888e-20)
(0.605435 0.0800005 -2.76492e-20)
(0.836059 0.139947 0)
(1.02422 0.194575 -1.15803e-20)
(1.16021 0.236477 -1.04192e-20)
(1.24641 0.263377 -1.78394e-20)
(1.29262 0.276683 0)
(1.31094 0.279632 0)
(1.31219 0.275709 0)
(1.30434 0.267765 0)
(1.29246 0.257761 0)
(1.27933 0.24687 -1.57285e-20)
(1.26631 0.235727 7.17352e-21)
(1.25393 0.224644 1.2499e-20)
(1.24234 0.21377 5.84004e-21)
(1.23155 0.203177 1.45415e-20)
(1.22149 0.192908 0)
(1.2121 0.18299 -3.52136e-21)
(1.20328 0.173443 -3.35327e-21)
(1.19492 0.16426 -5.88186e-21)
(1.18694 0.155444 -5.19683e-21)
(1.17921 0.147138 0)
(1.1716 0.139413 3.77119e-21)
(-0.00197514 0.0438319 9.45319e-21)
(-0.0068076 0.109782 -9.76068e-21)
(-0.0143178 0.158918 -1.84213e-20)
(-0.0237999 0.193956 0)
(-0.0346026 0.21771 -2.45474e-20)
(-0.0461721 0.233054 7.67511e-21)
(-0.0579696 0.242586 -1.46434e-20)
(-0.0695181 0.248367 0)
(-0.0804359 0.251805 0)
(-0.0904325 0.253671 0)
(-0.0992894 0.254212 0)
(-0.106836 0.253289 0)
(-0.11293 0.250516 -6.85668e-23)
(-0.117437 0.24537 -1.01113e-20)
(-0.120225 0.237266 1.98391e-20)
(-0.121162 0.225611 2.84068e-20)
(-0.120118 0.209844 9.4189e-21)
(-0.116972 0.189464 0)
(-0.111611 0.164069 8.1947e-21)
(-0.103948 0.133416 -2.37295e-20)
(-0.0939333 0.0974363 -1.5305e-20)
(-0.0815377 0.0562698 -1.45547e-20)
(-0.0668533 0.0104384 0)
(-0.0498293 -0.0388655 0)
(-0.00427655 0.0446777 -2.85249e-20)
(-0.0112443 0.113026 4.89365e-20)
(-0.0180633 0.164895 -1.86738e-20)
(-0.025196 0.202537 -3.499e-20)
(-0.0326679 0.22843 4.9324e-20)
(-0.0402906 0.24525 -3.12256e-20)
(-0.0477515 0.25554 4.40063e-20)
(-0.0546898 0.261399 2.80757e-20)
(-0.0607516 0.26433 0)
(-0.0656196 0.265221 -2.53759e-20)
(-0.0690234 0.264419 -7.1511e-22)
(-0.0707377 0.261862 2.23619e-20)
(-0.070576 0.257216 3.29687e-20)
(-0.0683825 0.249986 4.24917e-20)
(-0.064028 0.239606 -1.89061e-20)
(-0.0574093 0.225499 -5.73082e-20)
(-0.0484514 0.207118 1.95231e-20)
(-0.037108 0.183982 -7.19343e-20)
(-0.0233387 0.155707 0)
(-0.00715531 0.122035 1.60091e-20)
(0.0113089 0.0828776 1.52782e-20)
(0.0319809 0.0384042 1.45289e-20)
(0.0550834 -0.0107503 0)
(0.0813601 -0.0629124 0)
(-0.0064532 0.0434717 0)
(-0.0156257 0.111664 9.97782e-20)
(-0.0219381 0.16484 -3.75695e-20)
(-0.0267934 0.204418 3.52312e-20)
(-0.0307868 0.232274 -1.00102e-19)
(-0.0340709 0.250683 0)
(-0.0365792 0.261962 -5.9746e-20)
(-0.0381068 0.268133 2.81476e-20)
(-0.038374 0.270735 -5.377e-20)
(-0.0370786 0.270749 2.58615e-20)
(-0.033933 0.268642 1.47166e-19)
(-0.0286839 0.264465 -6.9242e-20)
(-0.0211227 0.257981 -1.12492e-19)
(-0.0110886 0.248776 -4.52134e-20)
(0.0015315 0.236349 -2.11366e-21)
(0.0168025 0.22018 1.59419e-19)
(0.0347417 0.199773 -7.58451e-20)
(0.0553192 0.174697 -9.75465e-22)
(0.0784651 0.144606 0)
(0.104069 0.109255 -6.95884e-20)
(0.131969 0.0685127 0)
(0.161959 0.0225377 -6.32639e-20)
(0.193981 -0.0280999 2.39654e-19)
(0.231039 -0.0820319 3.71749e-22)
(-0.00825109 0.0405041 0)
(-0.0194855 0.106085 4.22112e-22)
(-0.0255689 0.158934 3.80684e-20)
(-0.0284772 0.199448 -3.58459e-20)
(-0.0291938 0.228758 3.33782e-20)
(-0.0281439 0.248599 1.90297e-19)
(-0.0254976 0.260923 -5.97513e-20)
(-0.0212361 0.267567 -5.67831e-20)
(-0.0152041 0.27002 1.07636e-19)
(-0.0071714 0.269317 -1.54643e-19)
(0.00311513 0.266033 4.84081e-20)
(0.0158936 0.260353 4.69269e-20)
(0.0313629 0.252169 0)
(0.0496693 0.241182 4.31244e-20)
(0.0709012 0.226993 0)
(0.09509 0.209164 8.07474e-20)
(0.122214 0.18727 -1.58319e-19)
(0.152206 0.160932 3.30548e-20)
(0.184966 0.129835 1.43588e-19)
(0.220324 0.0937576 6.94991e-20)
(0.258108 0.0526467 0)
(0.298434 0.00655875 -1.93493e-19)
(0.339518 -0.0440672 6.05531e-20)
(0.390193 -0.0979196 0)
(-0.00952075 0.0362689 0)
(-0.022508 0.0971364 -1.21731e-19)
(-0.028689 0.147948 -3.80928e-20)
(-0.0301816 0.188099 -7.17376e-20)
(-0.0281316 0.217978 6.75424e-20)
(-0.0231335 0.238738 -6.34556e-20)
(-0.0155556 0.251892 1.20385e-19)
(-0.00557232 0.258999 5.76281e-20)
(0.00680836 0.261419 -1.61152e-19)
(0.0216918 0.260177 1.03379e-19)
(0.0392418 0.255922 -1.47209e-19)
(0.0596358 0.248958 3.28831e-19)
(0.0830317 0.239311 -1.78026e-19)
(0.109549 0.226814 8.61776e-20)
(0.139259 0.211182 2.52496e-19)
(0.172191 0.192074 -7.60354e-20)
(0.208333 0.169134 -7.29702e-20)
(0.247638 0.142029 -7.36531e-20)
(0.29005 0.110494 0)
(0.335587 0.0743553 -1.41865e-19)
(0.383821 0.0335247 -1.38524e-19)
(0.435868 -0.011787 1.91294e-19)
(0.485947 -0.0616365 2.44948e-19)
(0.553155 -0.113858 -2.2884e-19)
(-0.0102491 0.031371 0)
(-0.0245993 0.0859878 -1.63678e-19)
(-0.0311911 0.133139 2.91405e-22)
(-0.0318814 0.171435 1.44354e-19)
(-0.0277566 0.200661 0)
(-0.0194675 0.221448 0)
(-0.00751767 0.234871 0)
(0.00774689 0.242166 -5.71943e-20)
(0.0261454 0.2445 -9.96673e-22)
(0.0476308 0.242826 1.01307e-19)
(0.0722456 0.23781 -1.48219e-19)
(0.100082 0.229835 -1.40584e-21)
(0.13125 0.219038 0)
(0.165856 0.205366 -8.61311e-20)
(0.203995 0.188641 8.44137e-20)
(0.245751 0.168606 -2.36183e-19)
(0.291196 0.14498 3.09936e-19)
(0.340408 0.117499 8.0074e-20)
(0.393403 0.0859192 7.46361e-21)
(0.450301 0.0501333 -2.72725e-19)
(0.510008 0.00988291 -1.30409e-19)
(0.575524 -0.0338037 4.40778e-19)
(0.63465 -0.0822542 -2.94421e-19)
(0.719088 -0.131068 0)
(-0.0105637 0.0264368 8.04011e-20)
(-0.0259034 0.0739518 8.20161e-20)
(-0.0331344 0.116078 -7.70819e-20)
(-0.0335537 0.151006 -1.44005e-19)
(-0.0280209 0.178157 1.35579e-19)
(-0.0171458 0.19778 -1.26842e-19)
(-0.00149408 0.210581 1.78786e-19)
(0.0184681 0.217487 -5.71455e-20)
(0.0424194 0.219445 1.0593e-19)
(0.0701803 0.217284 0)
(0.101691 0.211634 9.67465e-20)
(0.136985 0.202901 -1.80058e-19)
(0.176164 0.191285 1.77276e-19)
(0.219375 0.176814 -1.6649e-19)
(0.266794 0.15939 0)
(0.318616 0.138844 1.56175e-19)
(0.375028 0.114957 3.03943e-19)
(0.436122 0.0875176 -2.86956e-19)
(0.501744 0.0563112 -1.37904e-19)
(0.571995 0.0215125 -1.39093e-19)
(0.644531 -0.0173913 3.84863e-19)
(0.723742 -0.057951 1.2029e-19)
(0.791129 -0.103796 -1.12069e-19)
(0.8884 -0.146142 1.03209e-19)
(-0.0107019 0.0220176 -8.04123e-20)
(-0.026743 0.0622724 2.46778e-19)
(-0.0346634 0.0984107 -7.77417e-20)
(-0.0350612 0.128642 1.44025e-19)
(-0.0284844 0.15231 -1.35597e-19)
(-0.0154369 0.169472 3.56726e-23)
(0.00352782 0.180582 5.93417e-20)
(0.0279041 0.186315 2.22313e-19)
(0.0573107 0.187413 9.53085e-22)
(0.0915172 0.184561 -9.9368e-20)
(0.130443 0.17831 0)
(0.17414 0.169044 -9.07183e-20)
(0.222764 0.156978 1.70429e-19)
(0.27654 0.142189 1.66858e-19)
(0.335717 0.124638 -7.82825e-20)
(0.400455 0.104208 -1.85758e-21)
(0.470761 0.0807496 -7.44505e-20)
(0.546402 0.0541812 1.39205e-19)
(0.626587 0.0244194 1.37882e-19)
(0.710665 -0.0079618 -1.32064e-19)
(0.794975 -0.0438127 1.20423e-19)
(0.883246 -0.0790782 -1.13152e-19)
(0.954902 -0.120384 0)
(1.05249 -0.152839 -1.03201e-19)
(-0.0109424 0.0185008 8.06489e-20)
(-0.0274721 0.051917 -8.25208e-20)
(-0.0358221 0.0815816 7.7501e-20)
(-0.0359336 0.106167 0)
(-0.0280433 0.125219 0)
(-0.0125138 0.138793 1.25634e-19)
(0.0101904 0.147229 -1.18394e-19)
(0.0396299 0.151039 1.1022e-19)
(0.0754823 0.150804 -5.20158e-19)
(0.117582 0.147076 -5.83097e-22)
(0.165915 0.140313 9.24736e-20)
(0.220594 0.130852 0)
(0.281787 0.118899 -1.70432e-19)
(0.349616 0.10454 3.23394e-19)
(0.42405 0.0877698 -2.31782e-19)
(0.504778 0.0685459 -3.76514e-19)
(0.591059 0.0468419 -6.17715e-21)
(0.681655 0.0227233 2.66519e-19)
(0.774625 -0.00375271 0)
(0.867906 -0.0318056 0)
(0.957228 -0.0623307 -1.20429e-19)
(1.04363 -0.0906364 1.13161e-19)
(1.1108 -0.125386 -4.03814e-19)
(1.19071 -0.146698 3.78175e-19)
(-0.0115042 0.0160392 0)
(-0.0282664 0.0434107 0)
(-0.0363052 0.0666029 -2.32271e-19)
(-0.0351114 0.0851128 7.40453e-20)
(-0.024675 0.098914 1.26453e-21)
(-0.00519965 0.108223 1.26938e-19)
(0.0230123 0.113393 0)
(0.0596853 0.114873 -1.10144e-19)
(0.104644 0.113141 1.03716e-19)
(0.157822 0.108652 -1.94574e-19)
(0.219217 0.101783 -8.32257e-22)
(0.288796 0.0928127 1.75835e-19)
(0.366365 0.081913 2.55509e-21)
(0.451431 0.0691661 1.63077e-19)
(0.543054 0.0545975 -2.25749e-19)
(0.639756 0.0382088 0)
(0.739476 0.020027 2.79673e-19)
(0.839593 0.000141998 -3.97156e-19)
(0.937031 -0.0212772 1.22382e-19)
(1.02858 -0.0436994 0)
(1.11047 -0.0674852 1.07147e-19)
(1.1815 -0.0891569 4.08503e-19)
(1.23302 -0.116444 -3.8342e-19)
(1.28189 -0.12916 -4.20643e-19)
(-0.0124373 0.0145159 2.43564e-19)
(-0.0289263 0.0367518 -3.3408e-19)
(-0.0352698 0.053898 1.26564e-21)
(-0.0308301 0.0664785 7.38928e-20)
(-0.0154562 0.0750302 -1.366e-19)
(0.0108009 0.0800462 -1.26481e-19)
(0.0478206 0.0819956 2.3525e-19)
(0.0954869 0.0813409 -1.48556e-21)
(0.153686 0.0785228 -2.06825e-19)
(0.222233 0.0739277 3.88716e-19)
(0.300748 0.067859 1.37614e-21)
(0.388506 0.0605207 -1.72614e-19)
(0.484293 0.0520179 0)
(0.586309 0.0423681 0)
(0.692139 0.031529 -7.52596e-20)
(0.798816 0.0194295 -1.39855e-19)
(0.902981 0.0060262 -2.69787e-19)
(1.00108 -0.00871389 2.53244e-19)
(1.08974 -0.0245981 -1.22455e-19)
(1.16593 -0.0416244 2.21902e-19)
(1.22753 -0.0591942 -1.1019e-19)
(1.27366 -0.0765969 1.85086e-19)
(1.3025 -0.0969365 -4.38335e-19)
(1.3209 -0.106469 8.3049e-20)
(-0.0135459 0.0135731 8.19386e-20)
(-0.0287794 0.0314514 0)
(-0.0313245 0.0432793 1.57387e-19)
(-0.0207816 0.0506044 -1.4826e-19)
(0.00299566 0.0545541 1.36729e-19)
(0.0400292 0.0559505 0)
(0.0902578 0.0554302 0)
(0.15349 0.053515 -1.10634e-19)
(0.229285 0.0506297 7.1696e-22)
(0.316783 0.0470919 9.75718e-20)
(0.414548 0.0430967 -9.20151e-20)
(0.520455 0.0387072 1.72461e-19)
(0.631676 0.0338607 0)
(0.74478 0.0283913 3.10553e-19)
(0.855931 0.0220695 -5.84951e-19)
(0.961176 0.0146496 4.15391e-19)
(1.05678 0.00593786 2.59198e-19)
(1.13956 -0.004218 -2.43326e-19)
(1.20726 -0.0156816 0)
(1.25856 -0.0287254 0)
(1.29383 -0.0420403 0)
(1.3139 -0.0577877 0)
(1.32164 -0.0716762 8.37967e-20)
(1.32077 -0.0855206 -2.85421e-19)
(-0.0286007 -0.0978353 -8.63305e-21)
(-0.00680451 -0.173639 8.70355e-21)
(0.0166841 -0.254199 -2.63538e-22)
(0.0415694 -0.334608 0)
(0.0657659 -0.410657 -6.43155e-21)
(0.0874865 -0.478535 1.1907e-20)
(0.104793 -0.535211 -5.97075e-22)
(0.115883 -0.578956 -4.76339e-21)
(0.120441 -0.609057 0)
(0.121021 -0.623918 0)
(0.123731 -0.618929 -1.83107e-22)
(0.136856 -0.586048 -1.69558e-22)
(0.167653 -0.516891 -3.11316e-21)
(0.21799 -0.408095 2.86452e-21)
(0.283531 -0.264392 0)
(0.357564 -0.0963724 0)
(0.433973 0.0821021 2.82066e-21)
(0.507898 0.252109 -2.75848e-22)
(0.574535 0.391244 -2.26593e-21)
(0.628802 0.484873 -1.04852e-22)
(0.667154 0.532866 0)
(0.689875 0.54536 0)
(0.700461 0.536485 0)
(0.69883 0.525093 0)
(0.680117 0.528501 0)
(0.645692 0.540721 0)
(0.612091 0.522946 4.82465e-22)
(0.602368 0.428816 -7.89369e-22)
(0.625181 0.250148 0)
(0.672321 0.0267449 0)
(0.727773 -0.180328 -6.47989e-22)
(0.777296 -0.330215 6.29748e-22)
(0.811635 -0.413574 2.28936e-22)
(0.831243 -0.442816 0)
(0.83908 -0.444238 0)
(0.828394 -0.447177 2.411e-22)
(0.793237 -0.464374 -2.34369e-22)
(0.743536 -0.454548 0)
(0.70502 -0.377924 3.12036e-22)
(0.697949 -0.212591 -4.56203e-22)
(0.718873 -0.0174789 1.51305e-22)
(0.758502 0.160964 0)
(0.801889 0.279072 -2.09414e-22)
(0.831801 0.344602 2.0363e-22)
(0.831268 0.394884 0)
(0.796013 0.40917 0)
(0.753666 0.397875 -8.1366e-23)
(0.736265 0.266095 2.55315e-22)
(0.749997 0.112321 0)
(0.791034 -0.0715031 0)
(0.825004 -0.201338 -5.93657e-23)
(0.823686 -0.278822 -1.85571e-24)
(0.804182 -0.377374 -6.61231e-24)
(0.779824 -0.3101 3.28787e-23)
(0.785616 -0.283423 0)
(0.799687 -0.079753 0)
(0.808171 0.0846965 0)
(0.798116 0.185879 0)
(0.800168 0.394227 0)
(0.784381 0.199633 0)
(0.109847 -0.123448 -9.2635e-22)
(0.134672 -0.200292 -3.70086e-20)
(0.159716 -0.281477 1.92851e-21)
(0.184866 -0.361613 3.28653e-20)
(0.207783 -0.435665 4.65181e-22)
(0.226516 -0.499317 0)
(0.238922 -0.549316 -2.02056e-20)
(0.242586 -0.584592 3.72912e-20)
(0.235694 -0.606366 -1.70686e-20)
(0.218532 -0.616553 1.23982e-20)
(0.195546 -0.614238 -1.18684e-20)
(0.17591 -0.592646 1.00234e-20)
(0.171076 -0.540614 -9.69994e-21)
(0.189082 -0.448931 -2.74732e-22)
(0.230394 -0.317326 -1.03052e-20)
(0.289443 -0.155272 1.00146e-20)
(0.359443 0.0212545 -9.56287e-21)
(0.433618 0.193583 9.03787e-21)
(0.505584 0.340158 -7.23617e-21)
(0.56918 0.445548 1.27738e-20)
(0.619308 0.506793 -5.6004e-21)
(0.654837 0.530914 -2.48172e-22)
(0.676957 0.531912 -3.73044e-21)
(0.683465 0.53055 7.36609e-21)
(0.670668 0.543125 -3.63543e-21)
(0.644223 0.558618 2.66353e-22)
(0.623274 0.534576 5.65167e-21)
(0.628133 0.427641 1.19146e-21)
(0.662447 0.235961 -1.29581e-20)
(0.715782 0.00407093 1.30579e-20)
(0.771549 -0.204775 -6.29074e-21)
(0.816537 -0.349859 6.29793e-22)
(0.84305 -0.425664 -2.29382e-22)
(0.85303 -0.448155 3.58957e-22)
(0.852437 -0.442879 0)
(0.836646 -0.437301 0)
(0.798695 -0.44706 -8.93772e-22)
(0.744089 -0.436648 6.57376e-22)
(0.698788 -0.368297 8.62953e-22)
(0.684549 -0.21495 2.40742e-22)
(0.702948 -0.0297202 -1.27883e-21)
(0.743796 0.144671 2.36493e-22)
(0.79154 0.265195 0)
(0.825009 0.338999 0)
(0.826467 0.399607 0)
(0.794653 0.420078 0)
(0.755314 0.406855 3.4169e-22)
(0.742904 0.267706 -1.76354e-22)
(0.756887 0.105486 0)
(0.799018 -0.0806435 0)
(0.832868 -0.205916 0)
(0.831555 -0.27606 -9.29716e-23)
(0.811896 -0.372284 2.12884e-23)
(0.784233 -0.308056 -7.3349e-23)
(0.789922 -0.285484 0)
(0.798485 -0.08187 0)
(0.805501 0.084512 4.65064e-23)
(0.794407 0.186765 1.09034e-22)
(0.796053 0.395392 0)
(0.783168 0.200704 0)
(0.262551 -0.14387 -1.191e-23)
(0.28999 -0.221595 -8.07895e-20)
(0.315611 -0.302643 7.38692e-20)
(0.340165 -0.381562 -6.90804e-20)
(0.360995 -0.453287 -4.68236e-22)
(0.37605 -0.513128 0)
(0.383555 -0.557147 -4.24259e-20)
(0.381558 -0.583786 4.14907e-20)
(0.367981 -0.594957 2.42696e-22)
(0.341043 -0.595415 3.79775e-22)
(0.301581 -0.589242 3.06615e-22)
(0.256065 -0.574271 2.99204e-22)
(0.217119 -0.539675 -1.60669e-20)
(0.198655 -0.471031 1.58919e-20)
(0.208427 -0.360227 0)
(0.245007 -0.212006 4.3365e-22)
(0.301965 -0.0418812 -1.55735e-20)
(0.371457 0.129368 1.53896e-20)
(0.445112 0.281382 0)
(0.515165 0.397581 0)
(0.575291 0.472099 -8.50824e-21)
(0.622556 0.509009 1.58478e-20)
(0.655356 0.521839 -1.42554e-20)
(0.669841 0.531882 -2.98689e-22)
(0.66404 0.553422 1.5241e-20)
(0.647258 0.571307 -1.80255e-20)
(0.639752 0.541561 2.04781e-20)
(0.658736 0.424431 1.41963e-21)
(0.703924 0.223353 -1.31875e-20)
(0.762737 -0.0140597 0)
(0.81791 -0.22325 0)
(0.857472 -0.363634 3.32332e-21)
(0.875874 -0.432706 -4.4829e-21)
(0.876369 -0.449685 4.93334e-24)
(0.867402 -0.439317 2.05192e-21)
(0.846758 -0.426392 -1.99418e-21)
(0.806931 -0.429021 0)
(0.748581 -0.418005 2.12288e-22)
(0.697108 -0.358333 2.15578e-21)
(0.675477 -0.217926 -4.33895e-21)
(0.690931 -0.0436127 1.9616e-21)
(0.732344 0.126121 1.75939e-22)
(0.783638 0.249386 -1.78005e-21)
(0.820146 0.331972 1.38589e-21)
(0.823716 0.403257 2.97921e-22)
(0.795877 0.430064 3.10805e-22)
(0.760066 0.415468 -3.42572e-22)
(0.752715 0.269879 0)
(0.766785 0.0996841 0)
(0.809226 -0.0888884 -1.42597e-21)
(0.84248 -0.210101 6.4731e-22)
(0.841014 -0.272825 -4.67286e-22)
(0.820881 -0.366786 5.23607e-22)
(0.789518 -0.305814 5.06289e-22)
(0.79518 -0.287297 -1.36932e-22)
(0.798551 -0.0838053 1.92192e-22)
(0.804196 0.0844713 -1.66413e-22)
(0.791804 0.18755 4.98264e-23)
(0.792876 0.396327 0)
(0.782946 0.20166 0)
(0.421645 -0.159497 -1.70284e-19)
(0.450974 -0.237976 5.93556e-21)
(0.477756 -0.318397 1.56433e-19)
(0.501671 -0.395107 -1.09282e-21)
(0.51973 -0.463806 0)
(0.530024 -0.519827 0)
(0.531332 -0.558776 -8.54042e-20)
(0.522523 -0.578503 1.30317e-20)
(0.502737 -0.580261 9.45945e-20)
(0.470698 -0.56904 -5.39082e-21)
(0.424682 -0.552362 -2.12753e-20)
(0.365676 -0.534908 -1.3711e-20)
(0.301979 -0.51149 1.37491e-20)
(0.249203 -0.466709 0)
(0.222805 -0.384356 -1.18022e-20)
(0.229626 -0.259717 1.07302e-20)
(0.266342 -0.103685 0)
(0.325069 0.062264 0)
(0.395734 0.216943 9.32152e-21)
(0.468569 0.342162 -1.1226e-21)
(0.536084 0.429332 -7.45766e-21)
(0.593092 0.479722 -6.66708e-21)
(0.635124 0.505747 6.62561e-21)
(0.657256 0.527814 -7.34782e-21)
(0.659337 0.557708 -1.05096e-21)
(0.653361 0.577499 7.9831e-21)
(0.659575 0.543606 1.33179e-21)
(0.692032 0.419953 -1.04405e-23)
(0.747331 0.213228 0)
(0.811303 -0.0272805 1.43861e-20)
(0.865742 -0.236109 -1.48176e-20)
(0.899529 -0.372322 6.62227e-22)
(0.909769 -0.43546 0)
(0.901104 -0.447845 -3.68166e-22)
(0.883872 -0.433883 4.01193e-21)
(0.858388 -0.415049 -6.73366e-21)
(0.817424 -0.41078 -9.89957e-23)
(0.756772 -0.398518 -1.41837e-22)
(0.700146 -0.347388 2.53963e-21)
(0.671113 -0.220991 4.6204e-22)
(0.682977 -0.0587779 -3.29188e-21)
(0.724052 0.105639 2.78369e-21)
(0.778042 0.231809 4.33773e-23)
(0.817127 0.323412 1.20989e-21)
(0.82295 0.405558 -1.47525e-21)
(0.799572 0.438861 -2.33861e-21)
(0.767768 0.423627 5.93319e-22)
(0.765527 0.27283 1.78834e-21)
(0.779577 0.0952249 -3.44048e-21)
(0.821555 -0.0960669 2.41729e-21)
(0.853704 -0.213912 -4.76416e-22)
(0.851924 -0.269208 7.06726e-22)
(0.831036 -0.36081 4.61174e-22)
(0.795545 -0.303276 -7.25386e-22)
(0.801225 -0.288861 1.02065e-23)
(0.799787 -0.0856158 -1.35504e-22)
(0.804207 0.0845786 0)
(0.790272 0.188267 -7.88731e-23)
(0.790641 0.397042 9.72227e-23)
(0.783745 0.202501 0)
(0.583075 -0.173429 1.71234e-19)
(0.612844 -0.25038 -3.31071e-19)
(0.640906 -0.327888 1.57465e-19)
(0.664088 -0.400442 1.36413e-19)
(0.678568 -0.464674 -2.53359e-19)
(0.68297 -0.516039 1.52149e-20)
(0.676651 -0.550194 9.99289e-20)
(0.659206 -0.565186 6.77487e-20)
(0.631175 -0.561664 -6.63213e-20)
(0.593397 -0.542866 0)
(0.5452 -0.515471 -3.05828e-20)
(0.484272 -0.488153 5.29992e-20)
(0.411234 -0.464496 -2.26803e-20)
(0.33583 -0.435502 0)
(0.275913 -0.382283 0)
(0.247683 -0.289379 3.04694e-22)
(0.256332 -0.15739 -1.56059e-20)
(0.297335 -0.00327927 1.51617e-20)
(0.359571 0.149213 0)
(0.43095 0.280617 1.20559e-20)
(0.502376 0.379105 -2.21585e-20)
(0.566199 0.443025 2.11002e-20)
(0.615491 0.482941 -2.2231e-20)
(0.644748 0.517158 -1.99817e-21)
(0.655359 0.554823 2.89699e-20)
(0.660949 0.576684 -1.58187e-20)
(0.68074 0.540929 -6.73881e-22)
(0.725625 0.414743 -1.35008e-20)
(0.790308 0.206186 -1.51966e-21)
(0.85964 -0.0353629 1.4984e-20)
(0.913831 -0.243108 8.52141e-22)
(0.941869 -0.375565 -9.76694e-21)
(0.944025 -0.433746 1.6685e-20)
(0.926732 -0.442581 -7.73419e-21)
(0.901632 -0.426511 0)
(0.871391 -0.403444 -3.49282e-21)
(0.829849 -0.392948 3.33116e-21)
(0.768312 -0.378802 -2.26701e-21)
(0.707823 -0.335525 2.83269e-21)
(0.671543 -0.223696 -3.2139e-22)
(0.679127 -0.0746987 0)
(0.718866 0.0835976 -2.98743e-22)
(0.774551 0.212542 8.58469e-22)
(0.81579 0.313112 0)
(0.824008 0.406174 2.98614e-21)
(0.805509 0.446213 -1.10156e-21)
(0.77815 0.431273 7.68457e-22)
(0.781019 0.276583 9.59248e-22)
(0.795049 0.0923315 0)
(0.835856 -0.101998 0)
(0.866374 -0.217275 -1.77031e-21)
(0.86413 -0.265192 2.4393e-21)
(0.842275 -0.354248 -1.15585e-21)
(0.802208 -0.300368 2.83356e-22)
(0.807891 -0.290211 3.96895e-22)
(0.802071 -0.08736 1.35632e-22)
(0.805465 0.0848348 -1.81512e-22)
(0.789765 0.188949 0)
(0.789346 0.397538 -1.55832e-22)
(0.785591 0.203218 -3.12069e-23)
(0.745669 -0.18729 1.68608e-19)
(0.773558 -0.259857 -1.68011e-19)
(0.800926 -0.331336 1.21814e-21)
(0.821329 -0.397447 -1.07079e-21)
(0.830307 -0.455724 9.93889e-22)
(0.827387 -0.501585 -8.59119e-22)
(0.812639 -0.530844 1.39409e-21)
(0.786215 -0.541973 0)
(0.749426 -0.53577 -8.95419e-22)
(0.704469 -0.514514 6.81334e-22)
(0.652994 -0.482168 4.99091e-22)
(0.594066 -0.445727 -3.87296e-22)
(0.524234 -0.413484 0)
(0.44362 -0.38684 0)
(0.363105 -0.353476 1.0564e-22)
(0.302162 -0.293227 0)
(0.276823 -0.193934 -7.97736e-23)
(0.291121 -0.0616661 0)
(0.337488 0.0816404 -7.77186e-21)
(0.402524 0.214956 1.48452e-20)
(0.473781 0.322468 -1.44485e-20)
(0.54109 0.399283 7.16207e-21)
(0.595549 0.45315 9.45234e-21)
(0.631338 0.499262 -9.17916e-21)
(0.650882 0.544241 -1.49187e-20)
(0.668409 0.56878 1.46003e-20)
(0.701268 0.533752 0)
(0.75748 0.408978 7.84942e-22)
(0.830924 0.201962 0)
(0.906105 -0.0385852 0)
(0.960992 -0.244436 2.3737e-20)
(0.983714 -0.37356 -2.47171e-20)
(0.978049 -0.427902 1.03246e-21)
(0.952804 -0.434197 7.51426e-22)
(0.920412 -0.417308 -5.30877e-22)
(0.885493 -0.39171 -2.88285e-21)
(0.843718 -0.37591 2.79931e-21)
(0.782601 -0.359274 -2.45678e-21)
(0.719775 -0.322753 2.10637e-21)
(0.676781 -0.225487 5.86139e-22)
(0.679291 -0.090767 -2.31049e-21)
(0.716507 0.0603591 -7.93698e-23)
(0.772873 0.191619 1.52248e-21)
(0.815908 0.300846 0)
(0.826645 0.40477 -1.07395e-21)
(0.813354 0.451876 2.29769e-21)
(0.790796 0.438314 -2.84926e-21)
(0.798745 0.281115 -9.65374e-22)
(0.812905 0.0910209 0)
(0.851935 -0.106512 6.70952e-22)
(0.880302 -0.22011 -1.53744e-21)
(0.877438 -0.260799 5.17156e-24)
(0.854498 -0.347011 -3.26554e-22)
(0.809433 -0.296997 3.34669e-22)
(0.815012 -0.291365 -3.56889e-22)
(0.805262 -0.08911 0)
(0.807886 0.0852274 1.81596e-22)
(0.790234 0.189626 0)
(0.788987 0.397807 0)
(0.7885 0.203798 4.17858e-23)
(0.908023 -0.198191 -1.63237e-19)
(0.929638 -0.2641 1.61573e-19)
(0.952099 -0.326914 -1.11788e-21)