/*--------------------------------*- C++ -*----------------------------------*\
| =========                 |                                                 |
| \\      /  F ield         | OpenFOAM: The Open Source CFD Toolbox           |
|  \\    /   O peration     | Version:  2512                                  |
|   \\  /    A nd           | Website:  www.openfoam.com                      |
|    \\/     M anipulation  |                                                 |
\*---------------------------------------------------------------------------*/
FoamFile
{
    version     2.0;
    format      ascii;
    arch        "LSB;label=32;scalar=64";
    class       volVectorField;
    location    "172";
    object      U;
}
// * * * * * * * * * * * * * * * * * * * * * * * * * * * * * * * * * * * * * //

dimensions      [0 1 -1 0 0 0 0];

internalField   nonuniform List<vector> 
13248
(
(-0.0110466 0.00959271 6.63962e-20)
(-0.0193772 0.017357 0)
(-0.0158586 0.0182076 -1.26136e-19)
(-0.000777384 0.0152559 1.18824e-19)
(0.0259152 0.0105838 1.11284e-19)
(0.064318 0.00561217 0)
(0.114426 0.00134122 0)
(0.175953 -0.0015332 2.63152e-19)
(0.248178 -0.00253542 -3.48377e-21)
(0.329829 -0.00137607 -2.25837e-19)
(0.41906 0.00205339 2.031e-19)
(0.513508 0.00767807 -1.26401e-19)
(0.610436 0.015243 0)
(0.706935 0.0243308 -2.0207e-19)
(0.800145 0.0343952 3.72737e-19)
(0.88747 0.044809 -8.74529e-20)
(0.966745 0.0549216 -1.4994e-19)
(1.03637 0.0640995 1.40755e-19)
(1.09537 0.0718402 0)
(1.1434 0.0775524 0)
(1.18075 0.0814393 0)
(1.20808 0.081773 0)
(1.2269 0.0824275 4.20609e-20)
(1.23836 0.073569 1.54527e-19)
(-0.0112923 0.00909739 -2.00687e-19)
(-0.0159494 0.0156466 1.37231e-19)
(-0.0043976 0.0159669 -1.05547e-21)
(0.0223549 0.0129801 -1.81578e-19)
(0.0638381 0.00879934 -1.11159e-19)
(0.119636 0.00496405 -1.04843e-19)
(0.189064 0.00254872 -1.91042e-19)
(0.270901 0.00226257 1.80695e-19)
(0.363224 0.00450536 0)
(0.463351 0.00938671 1.97351e-21)
(0.567961 0.0167385 4.49397e-21)
(0.673335 0.0261417 1.27218e-19)
(0.775697 0.036976 0)
(0.871555 0.0484928 0)
(0.95801 0.0599005 1.36558e-19)
(1.03297 0.0704496 -2.56212e-19)
(1.09526 0.079507 1.49316e-19)
(1.14463 0.0866036 -1.40181e-19)
(1.18166 0.0914675 -6.15081e-20)
(1.20764 0.0939863 -1.09911e-19)
(1.22423 0.0943145 -4.6102e-20)
(1.23367 0.0923074 -8.62558e-20)
(1.23714 0.0894957 1.26477e-19)
(1.23826 0.0825564 3.67174e-20)
(-0.0102354 0.00769209 0)
(-0.00855896 0.0119084 0)
(0.0138025 0.0113611 6.4238e-20)
(0.0551088 0.00864734 5.91727e-20)
(0.114211 0.0057983 -1.59109e-21)
(0.189853 0.00435648 -1.08153e-19)
(0.280175 0.0053351 0)
(0.382437 0.00926994 -8.94519e-20)
(0.492953 0.0162576 8.32195e-20)
(0.607258 0.025989 6.95867e-22)
(0.720509 0.037813 -1.38258e-19)
(0.827995 0.050839 -1.23663e-19)
(0.925645 0.0640698 4.17417e-21)
(1.01043 0.0765383 -9.71099e-20)
(1.08056 0.0874279 2.36478e-19)
(1.13559 0.0961546 0)
(1.17621 0.102405 -1.47676e-19)
(1.20406 0.106122 7.14886e-20)
(1.22137 0.107484 6.14546e-20)
(1.2306 0.106741 0)
(1.23417 0.104453 4.99233e-20)
(1.23412 0.10049 -1.73713e-19)
(1.23177 0.0967319 1.6307e-19)
(1.22969 0.0895215 1.04003e-19)
(-0.00762269 0.00560749 -7.12117e-20)
(0.00356626 0.00676111 -7.3626e-20)
(0.0399137 0.00538433 6.6597e-20)
(0.0988177 0.00362162 0)
(0.178128 0.00328566 0)
(0.275226 0.00575 -2.10242e-21)
(0.386433 0.0117284 0)
(0.506885 0.021291 -2.72107e-19)
(0.630787 0.0339347 2.51199e-19)
(0.751993 0.0487011 -3.07711e-19)
(0.864761 0.0643573 6.92929e-20)
(0.964451 0.0796113 0)
(1.04801 0.0933163 1.11552e-19)
(1.11416 0.104623 -2.05159e-19)
(1.16329 0.113057 4.85164e-20)
(1.19713 0.118515 1.2082e-19)
(1.21829 0.121201 -6.87663e-21)
(1.22974 0.121522 -1.34766e-19)
(1.23437 0.119975 0)
(1.23466 0.117044 0)
(1.23247 0.113188 -4.70426e-20)
(1.22905 0.108508 4.20954e-20)
(1.22507 0.104136 1.50257e-19)
(1.22146 0.0972028 -1.41051e-19)
(-0.00316527 0.00309998 -7.51127e-20)
(0.021196 0.00098459 -7.47409e-20)
(0.0749727 -0.000661029 2.10233e-19)
(0.154406 -0.000320871 -1.27351e-19)
(0.255815 0.00339019 1.19873e-19)
(0.374519 0.011399 2.16932e-19)
(0.504359 0.0237695 -1.52944e-19)
(0.638002 0.0397515 -1.83946e-19)
(0.767772 0.057988 5.11306e-21)
(0.886702 0.0768076 2.33005e-19)
(0.989487 0.0945543 0)
(1.07306 0.109875 6.26893e-20)
(1.13668 0.121903 0)
(1.18165 0.130304 -9.91472e-20)
(1.21067 0.135219 1.38862e-19)
(1.22718 0.137114 8.3401e-22)
(1.23469 0.136622 -3.58225e-20)
(1.2363 0.134384 6.56648e-20)
(1.23442 0.130958 5.6997e-20)
(1.23071 0.126757 -5.08409e-20)
(1.2262 0.122087 4.70321e-20)
(1.22145 0.116999 -4.20857e-20)
(1.21662 0.112184 0)
(1.21236 0.105449 -3.22015e-20)
(0.00346093 0.000449966 7.5102e-20)
(0.0450262 -0.00451928 7.87855e-20)
(0.119675 -0.00527652 -7.04216e-20)
(0.222015 -0.0012175 1.30908e-19)
(0.34612 0.00827949 -1.23214e-19)
(0.484515 0.0232876 1.10805e-19)
(0.628181 0.0428041 -5.32816e-20)
(0.767615 0.0649719 1.38326e-19)
(0.894309 0.0875464 -8.68782e-20)
(1.00204 0.108392 1.51451e-19)
(1.08758 0.125878 -3.47983e-19)
(1.15067 0.139097 1.27465e-19)
(1.19344 0.147863 -1.09169e-19)
(1.2195 0.152567 1.02542e-19)
(1.23303 0.15394 8.68503e-20)
(1.23796 0.152824 7.50884e-20)
(1.23753 0.149996 -2.09434e-19)
(1.23412 0.14607 1.29404e-19)
(1.22928 0.141476 -5.69996e-20)
(1.22392 0.136485 1.48201e-19)
(1.21849 0.131257 -4.78938e-20)
(1.2132 0.125845 -1.15945e-19)
(1.20811 0.120604 1.06932e-19)
(1.20342 0.114021 3.21918e-20)
(0.0125756 -0.00202024 0)
(0.0755478 -0.00874816 6.36967e-22)
(0.174129 -0.0068913 1.471e-19)
(0.300675 0.0028159 -1.37994e-19)
(0.446246 0.0197456 -1.23922e-19)
(0.600101 0.0426261 2.29937e-19)
(0.750634 0.0690479 -1.06602e-19)
(0.887334 0.0960219 1.40819e-19)
(1.0026 0.120741 -3.60478e-21)
(1.0927 0.141157 -7.92126e-20)
(1.15764 0.156236 1.70198e-19)
(1.20028 0.16591 -2.50585e-19)
(1.22508 0.170816 0)
(1.2369 0.171956 -4.831e-20)
(1.24015 0.170391 -1.27404e-19)
(1.23826 0.167041 4.03071e-20)
(1.23366 0.162601 1.75086e-21)
(1.22785 0.157534 -8.55268e-20)
(1.22169 0.152122 6.04145e-21)
(1.21562 0.146526 9.86376e-20)
(1.2098 0.14083 -4.35179e-20)
(1.20427 0.135085 -1.64853e-20)
(1.19898 0.129415 5.09604e-20)
(1.19401 0.122944 0)
(0.024427 -0.00392882 0)
(0.112887 -0.0106201 3.99324e-20)
(0.237652 -0.0039756 -1.9224e-19)
(0.388162 0.0133585 6.96874e-20)
(0.551905 0.0389104 -6.55871e-20)
(0.715016 0.0696281 -5.96951e-20)
(0.864453 0.10163 -1.04878e-19)
(0.990555 0.131166 5.27152e-20)
(1.08848 0.155508 4.54133e-20)
(1.15812 0.173329 0)
(1.2029 0.184601 1.01296e-19)
(1.2281 0.190189 -1.49882e-19)
(1.23935 0.191386 1.11223e-19)
(1.24161 0.189509 4.83351e-20)
(1.23866 0.185665 -3.91193e-20)
(1.23306 0.180661 -3.20579e-20)
(1.22639 0.175026 -2.9665e-20)
(1.21949 0.169072 8.99789e-20)
(1.21279 0.162972 0)
(1.20643 0.156817 4.44119e-20)
(1.20046 0.150655 3.69387e-20)
(1.19482 0.14452 -9.22177e-20)
(1.18946 0.13841 -6.26339e-20)
(1.18432 0.131974 5.78349e-20)
(0.039121 -0.00483246 -4.33063e-20)
(0.156671 -0.00901923 -1.67153e-21)
(0.308665 0.00483525 3.91263e-20)
(0.481119 0.031502 1.09101e-19)
(0.657902 0.0660908 3.15043e-20)
(0.823024 0.10359 -6.10289e-20)
(0.963902 0.139005 5.5635e-20)
(1.0737 0.168537 -4.84621e-20)
(1.15157 0.190262 8.64069e-20)
(1.2012 0.204031 3.63407e-20)
(1.22867 0.210904 -1.03373e-19)
(1.24052 0.212496 3.01494e-20)
(1.24245 0.210448 5.09062e-20)
(1.23876 0.206119 -2.51472e-20)
(1.2323 0.200484 0)
(1.22479 0.194171 3.65824e-20)
(1.21714 0.187543 6.12314e-20)
(1.20977 0.180798 9.99316e-21)
(1.20285 0.174037 -5.06689e-20)
(1.1964 0.167311 2.09373e-20)
(1.19037 0.16065 0)
(1.1847 0.154065 -1.62311e-20)
(1.1793 0.147516 -1.53558e-20)
(1.17408 0.141018 0)
(0.0565562 -0.0042496 0)
(0.205937 -0.00288411 2.27068e-20)
(0.384734 0.0206015 4.19153e-20)
(0.575404 0.0577296 -1.11313e-19)
(0.758935 0.100833 3.60075e-20)
(0.919007 0.143194 0)
(1.04561 0.179458 5.34774e-20)
(1.13618 0.206623 -7.4598e-20)
(1.19414 0.224117 -4.31593e-20)
(1.22627 0.2331 1.93935e-20)
(1.24018 0.235546 -3.05666e-20)
(1.24256 0.23351 7.44531e-20)
(1.23849 0.228702 3.66982e-20)
(1.2313 0.222343 -2.58141e-20)
(1.22298 0.215209 -2.70877e-21)
(1.21454 0.207746 -6.85011e-20)
(1.20647 0.200189 3.10588e-20)
(1.19893 0.192656 -8.19636e-22)
(1.19196 0.185205 0)
(1.18552 0.177869 -2.09593e-20)
(1.17954 0.170662 0)
(1.17391 0.163571 4.65847e-20)
(1.16855 0.156584 -5.51394e-20)
(1.16332 0.149906 2.50372e-20)
(0.076382 -0.00170066 -1.18711e-20)
(0.259125 0.00868649 -5.71317e-20)
(0.46274 0.0439569 6.49943e-20)
(0.666595 0.0918804 3.80288e-20)
(0.850349 0.142077 -1.81812e-20)
(0.999547 0.186852 3.03163e-20)
(1.10848 0.221467 -1.4755e-20)
(1.17941 0.244421 2.43349e-20)
(1.21949 0.256738 0)
(1.23749 0.260747 5.43399e-20)
(1.24145 0.259031 -2.47385e-21)
(1.23752 0.253788 -4.34186e-20)
(1.22979 0.246603 1.83866e-20)
(1.22067 0.238478 -2.04846e-20)
(1.21142 0.229984 -7.5681e-21)
(1.20259 0.221418 8.98969e-21)
(1.1944 0.212924 -6.77353e-21)
(1.18687 0.204569 -3.64947e-20)
(1.17998 0.19639 2.23103e-20)
(1.17365 0.188402 4.4814e-21)
(1.16779 0.180606 3.90899e-21)
(1.16228 0.172976 3.4111e-21)
(1.15701 0.165562 0)
(1.15184 0.158568 0)
(0.098057 0.00325549 1.18793e-20)
(0.314281 0.0263454 -1.18576e-20)
(0.539327 0.0750289 -2.16497e-20)
(0.75065 0.133198 0)
(0.92871 0.188386 -9.0219e-21)
(1.06297 0.233006 -8.10096e-21)
(1.15302 0.263864 -1.37786e-20)
(1.20565 0.28138 0)
(1.23074 0.288118 0)
(1.23798 0.287292 0)
(1.23503 0.281774 0)
(1.2271 0.273681 0)
(1.21729 0.264369 -1.14936e-20)
(1.20722 0.254608 5.21729e-21)
(1.19761 0.244791 8.96391e-21)
(1.18872 0.235105 4.18037e-21)
(1.18061 0.22563 1.0179e-20)
(1.17325 0.216404 0)
(1.16656 0.207446 -2.36877e-21)
(1.16045 0.198761 -2.26462e-21)
(1.15482 0.190334 -3.91523e-21)
(1.14954 0.182147 -3.41656e-21)
(1.14449 0.174312 0)
(1.13951 0.166868 2.3687e-21)
(-0.000128956 -0.0433119 9.02238e-21)
(-0.00454498 -0.0970012 -9.36986e-21)
(-0.015081 -0.127623 -1.77372e-20)
(-0.0290377 -0.141656 0)
(-0.0447748 -0.144396 -2.38666e-20)
(-0.0614017 -0.13993 7.58658e-21)
(-0.078313 -0.13111 -1.40674e-20)
(-0.095098 -0.119662 0)
(-0.111491 -0.106414 0)
(-0.12731 -0.0915567 0)
(-0.142413 -0.0749078 0)
(-0.156671 -0.0561159 0)
(-0.169941 -0.0348032 3.50154e-22)
(-0.182032 -0.0106342 -9.55408e-21)
(-0.192805 0.0166187 1.72637e-20)
(-0.20213 0.0469827 2.45554e-20)
(-0.209772 0.0804041 7.13619e-21)
(-0.215499 0.116645 0)
(-0.219094 0.155277 6.80471e-21)
(-0.220359 0.195684 -1.8366e-20)
(-0.219116 0.237064 -1.1036e-20)
(-0.215194 0.278473 -1.01411e-20)
(-0.208594 0.318932 0)
(-0.199962 0.357459 0)
(0.00186731 -0.0379914 -2.67901e-20)
(-0.000728717 -0.084489 4.64443e-20)
(-0.0111033 -0.110456 -1.7027e-20)
(-0.0256901 -0.121603 -3.29032e-20)
(-0.0423633 -0.122689 4.67778e-20)
(-0.0599811 -0.117413 -2.92477e-20)
(-0.0778061 -0.108347 4.15747e-20)
(-0.0953717 -0.0970416 2.54049e-20)
(-0.112398 -0.0842283 0)
(-0.128704 -0.0700629 -2.34882e-20)
(-0.144148 -0.0543603 4.72558e-23)
(-0.158587 -0.036787 2.085e-20)
(-0.171846 -0.0169898 2.8136e-20)
(-0.18373 0.00531098 3.53075e-20)
(-0.19404 0.0302597 -1.74968e-20)
(-0.202533 0.0579157 -4.70196e-20)
(-0.20892 0.0881871 1.33479e-20)
(-0.212897 0.120816 -5.17705e-20)
(-0.214154 0.155385 0)
(-0.212395 0.191324 1.19619e-20)
(-0.207342 0.227928 1.10206e-20)
(-0.198647 0.264395 1.01266e-20)
(-0.186059 0.299951 0)
(-0.170789 0.334079 0)
(0.00321227 -0.0319684 0)
(0.00190642 -0.0707492 8.87873e-20)
(-0.00811254 -0.0920924 -3.36019e-20)
(-0.0227177 -0.100677 3.22615e-20)
(-0.0394469 -0.100549 -8.93509e-20)
(-0.0569643 -0.0949108 0)
(-0.0744232 -0.0860048 -5.29069e-20)
(-0.0913031 -0.0751943 2.43819e-20)
(-0.107304 -0.0631308 -4.56682e-20)
(-0.122238 -0.0499595 2.02918e-20)
(-0.135957 -0.0355215 1.21016e-19)
(-0.148303 -0.019524 -5.67345e-20)
(-0.159094 -0.00166329 -8.86815e-20)
(-0.168117 0.0182889 -3.09245e-20)
(-0.175118 0.0404644 9.30551e-22)
(-0.179806 0.064876 1.12364e-19)
(-0.181863 0.0913971 -5.2282e-20)
(-0.180942 0.11976 2.41371e-21)
(-0.176686 0.14956 0)
(-0.168752 0.180271 -3.78918e-20)
(-0.156848 0.211281 0)
(-0.140602 0.24196 -3.44929e-20)
(-0.119306 0.271843 1.22967e-19)
(-0.093665 0.300893 -5.01973e-22)
(0.00384588 -0.0257013 0)
(0.00320305 -0.0567137 -9.35657e-22)
(-0.0063981 -0.0736741 3.22791e-20)
(-0.0205608 -0.0801083 -3.03407e-20)
(-0.0366357 -0.0792469 2.95389e-20)
(-0.0531581 -0.0737316 1.62741e-19)
(-0.0691984 -0.0654427 -5.1205e-20)
(-0.0841892 -0.0555433 -4.70793e-20)
(-0.0978065 -0.0446074 8.95473e-20)
(-0.109854 -0.0327812 -1.25528e-19)
(-0.120177 -0.0199479 3.81685e-20)
(-0.128619 -0.00587132 3.50784e-20)
(-0.134994 0.00969515 0)
(-0.139077 0.0269447 3.17405e-20)
(-0.140608 0.0459752 0)
(-0.139292 0.0667699 4.98887e-20)
(-0.13481 0.0891882 -9.32532e-20)
(-0.126825 0.112963 2.51731e-20)
(-0.11499 0.137704 7.98286e-20)
(-0.0989782 0.162923 3.78497e-20)
(-0.0785203 0.188056 0)
(-0.0532886 0.212588 -9.06887e-20)
(-0.0223109 0.236334 2.92393e-20)
(0.0144499 0.259774 0)
(0.00376569 -0.0195357 0)
(0.00310157 -0.0430883 -1.01559e-19)
(-0.00615947 -0.0560673 -3.17633e-20)
(-0.0195966 -0.060828 -6.00254e-20)
(-0.034513 -0.059751 5.65237e-20)
(-0.0493854 -0.0548878 -5.37335e-20)
(-0.0632374 -0.0477339 9.88045e-20)
(-0.0754685 -0.0392379 4.62624e-20)
(-0.0857348 -0.029888 -1.30525e-19)
(-0.0938322 -0.0198284 7.94669e-20)
(-0.0996097 -0.0089853 -1.11768e-19)
(-0.102919 0.00281898 2.36411e-19)
(-0.103589 0.0157781 -1.27211e-19)
(-0.101414 0.0300416 5.6273e-20)
(-0.0961587 0.0456793 1.55237e-19)
(-0.08756 0.0626608 -5.28473e-20)
(-0.0753411 0.0808479 -4.51963e-20)
(-0.0592201 0.0999907 -4.2353e-20)
(-0.0389068 0.119735 0)
(-0.0141368 0.139627 -6.42202e-20)
(0.0152918 0.159132 -5.68552e-20)
(0.0495338 0.177724 8.37837e-20)
(0.0893437 0.195195 1.01382e-19)
(0.137608 0.21217 -9.33909e-20)
(0.00300312 -0.0136871 0)
(0.0016253 -0.0303251 -1.31675e-19)
(-0.00746773 -0.0398288 5.19366e-22)
(-0.0200276 -0.0434251 1.17664e-19)
(-0.0334362 -0.0426548 0)
(-0.0461878 -0.0389769 0)
(-0.0573036 -0.0334941 0)
(-0.0661731 -0.026927 -4.49617e-20)
(-0.0724435 -0.0196625 1.17257e-21)
(-0.0759088 -0.0118279 7.80348e-20)
(-0.0764273 -0.00338028 -1.07278e-19)
(-0.0738711 0.00580895 1.18008e-21)
(-0.0680993 0.0158852 0)
(-0.058947 0.0269613 -5.62469e-20)
(-0.0462283 0.0390885 4.67589e-20)
(-0.0297394 0.0522342 -1.36215e-19)
(-0.00926908 0.0662751 1.62448e-19)
(0.015389 0.0809935 3.14565e-20)
(0.0444336 0.0960812 -4.95009e-21)
(0.0780443 0.111136 -1.23189e-19)
(0.116363 0.125682 -5.35477e-20)
(0.159592 0.139166 1.74991e-19)
(0.206849 0.151259 -1.15002e-19)
(0.267652 0.161574 0)
(0.00161109 -0.00826954 6.24189e-20)
(-0.00111208 -0.0186719 6.5547e-20)
(-0.0102006 -0.0252481 -6.12631e-20)
(-0.0217411 -0.0281642 -1.15688e-19)
(-0.0333071 -0.0281615 1.08936e-19)
(-0.0434852 -0.0261259 -1.01315e-19)
(-0.0513409 -0.0227715 1.42463e-19)
(-0.0562795 -0.0185832 -4.45753e-20)
(-0.0579506 -0.013828 8.23322e-20)
(-0.0561484 -0.00859577 0)
(-0.0507386 -0.00285151 6.65843e-20)
(-0.0416116 0.0035034 -1.26863e-19)
(-0.028657 0.0105827 1.14035e-19)
(-0.0117497 0.0184787 -1.07102e-19)
(0.00924582 0.0272338 0)
(0.0344697 0.0368233 8.6567e-20)
(0.0640653 0.0471476 1.50838e-19)
(0.0981668 0.0580269 -1.43134e-19)
(0.136895 0.0692007 -6.22241e-20)
(0.180356 0.08033 -5.64268e-20)
(0.228452 0.0909845 1.5939e-19)
(0.282333 0.100711 4.59953e-20)
(0.336606 0.109136 -4.37875e-20)
(0.413782 0.114161 4.07771e-20)
(-0.000328446 -0.00335226 -6.24274e-20)
(-0.00487498 -0.00827102 1.93733e-19)
(-0.0139722 -0.012452 -6.05674e-20)
(-0.0241886 -0.0150841 1.14543e-19)
(-0.033386 -0.0161687 -1.07857e-19)
(-0.0403052 -0.0160543 2.0318e-22)
(-0.0440911 -0.0150819 4.702e-20)
(-0.0441795 -0.0134972 1.71429e-19)
(-0.0402229 -0.0114307 -2.99683e-21)
(-0.0320026 -0.00891032 -7.5973e-20)
(-0.0193728 -0.00588291 0)
(-0.0022232 -0.00225112 -5.93799e-20)
(0.0195456 0.00209224 1.14723e-19)
(0.046028 0.00723566 1.00485e-19)
(0.0773121 0.0132243 -4.84685e-20)
(0.113472 0.0200486 -1.01953e-21)
(0.154561 0.0276326 -3.82328e-20)
(0.2006 0.0358272 6.73101e-20)
(0.251561 0.0444052 6.22126e-20)
(0.307492 0.0531008 -5.6363e-20)
(0.367453 0.0613956 5.05573e-20)
(0.434979 0.0692648 -4.64992e-20)
(0.496052 0.0758622 0)
(0.593435 0.0790387 -4.07402e-20)
(-0.00268075 0.000980508 6.21138e-20)
(-0.00926421 0.000726995 -6.44958e-20)
(-0.0180883 -0.00154232 6.08923e-20)
(-0.0263387 -0.00415079 0)
(-0.0322396 -0.00643947 0)
(-0.0347221 -0.00826624 9.91754e-20)
(-0.0330249 -0.00962156 -9.35952e-20)
(-0.026609 -0.0105121 8.43651e-20)
(-0.0151118 -0.0109292 -3.97818e-19)
(0.00170603 -0.0108109 1.37697e-21)
(0.0240181 -0.0100546 6.69299e-20)
(0.051939 -0.00853766 0)
(0.0855338 -0.00614173 -1.09289e-19)
(0.124817 -0.00277271 2.01534e-19)
(0.169745 0.00161952 -1.38756e-19)
(0.220201 0.00702701 -2.02487e-19)
(0.275992 0.013373 5.87527e-21)
(0.336835 0.020507 1.36084e-19)
(0.402297 0.0281797 0)
(0.472249 0.036218 0)
(0.544297 0.0437977 -5.05521e-20)
(0.624666 0.051687 4.64939e-20)
(0.69044 0.057592 -1.73054e-19)
(0.801669 0.0623661 1.62257e-19)
(-0.00523585 0.00459584 0)
(-0.0136959 0.0080882 0)
(-0.0215624 0.00729107 -1.82737e-19)
(-0.0267498 0.00458638 5.79801e-20)
(-0.0278886 0.00119154 7.87606e-22)
(-0.0241114 -0.00231691 1.00738e-19)
(-0.0147468 -0.00560986 0)
(0.000712852 -0.00847933 -8.62859e-20)
(0.0226383 -0.0107555 7.95559e-20)
(0.0512786 -0.012268 -1.44161e-19)
(0.0867592 -0.0128551 1.58979e-21)
(0.129087 -0.0123619 1.19953e-19)
(0.178134 -0.0106586 -3.7907e-21)
(0.233624 -0.00765955 9.49071e-20)
(0.295121 -0.00334188 -1.39589e-19)
(0.362032 0.00224076 0)
(0.433611 0.00894976 1.45619e-19)
(0.508985 0.016564 -2.03651e-19)
(0.587071 0.0247398 6.13085e-20)
(0.667225 0.033283 0)
(0.746293 0.0411685 5.13859e-20)
(0.830085 0.0495303 1.88044e-19)
(0.895761 0.0549138 -1.76467e-19)
(1.00037 0.0614777 -2.07828e-19)
(-0.00770695 0.00732497 1.89138e-19)
(-0.0174261 0.0134985 -2.60901e-19)
(-0.0232074 0.0137399 2.95815e-22)
(-0.0237594 0.0109221 5.81245e-20)
(-0.0181372 0.00669549 -1.08432e-19)
(-0.00568037 0.00200017 -1.0036e-19)
(0.0141688 -0.00256418 1.85447e-19)
(0.0418548 -0.00657745 -3.51775e-21)
(0.0776635 -0.00971391 -1.61106e-19)
(0.121691 -0.011718 2.9137e-19)
(0.173809 -0.012375 -4.0725e-21)
(0.233636 -0.0115182 -1.24207e-19)
(0.300519 -0.00904573 0)
(0.373532 -0.00493835 0)
(0.451503 0.000726166 -4.55429e-20)
(0.533055 0.00776485 -8.31048e-20)
(0.616667 0.0158926 -1.472e-19)
(0.700744 0.0247255 1.38167e-19)
(0.78365 0.0338181 -6.13282e-20)
(0.864011 0.0426909 1.11541e-19)
(0.939562 0.0506899 -5.34574e-20)
(1.01231 0.0579752 9.39181e-20)
(1.06985 0.0623539 -2.22806e-19)
(1.14585 0.0675205 4.12003e-20)
(-0.00975623 0.00901382 6.37093e-20)
(-0.0196111 0.016648 0)
(-0.0217476 0.0174608 1.24255e-19)
(-0.0156791 0.0145674 -1.17057e-19)
(-0.000890901 0.00990697 1.08526e-19)
(0.023044 0.00469522 0)
(0.0564925 -0.000237185 0)
(0.0996812 -0.00429508 -8.58719e-20)
(0.152586 -0.00704875 3.40859e-21)
(0.214846 -0.0081832 7.58517e-20)
(0.2857 -0.00748334 -6.59303e-20)
(0.363971 -0.00484209 1.25198e-19)
(0.448086 -0.00027352 0)
(0.536147 0.00607753 2.00213e-19)
(0.626037 0.0139352 -3.69385e-19)
(0.71555 0.0229037 2.53455e-19)
(0.802523 0.0324957 1.48964e-19)
(0.884953 0.0421404 -1.3983e-19)
(0.961121 0.0513231 0)
(1.0296 0.0592909 0)
(1.08947 0.0660238 0)
(1.14043 0.070103 0)
(1.1805 0.0728716 4.4313e-20)
(1.22023 0.0726188 -1.6491e-19)
(-0.188585 0.398802 -6.11846e-21)
(-0.17166 0.441614 6.14048e-21)
(-0.147602 0.474479 -1.72942e-22)
(-0.116433 0.49363 0)
(-0.0768629 0.495241 -5.28378e-21)
(-0.028185 0.475751 1.03749e-20)
(0.029581 0.43258 1.66603e-22)
(0.0949576 0.364542 -5.11196e-21)
(0.165491 0.273167 0)
(0.238374 0.161448 0)
(0.310282 0.0336577 -3.37529e-22)
(0.379693 -0.105405 -3.21953e-22)
(0.446309 -0.247987 -4.61547e-21)
(0.508238 -0.381412 4.19878e-21)
(0.561894 -0.489478 0)
(0.603207 -0.560067 0)
(0.629663 -0.591787 1.90078e-21)
(0.641855 -0.592242 -3.05085e-22)
(0.642666 -0.573471 -1.41239e-21)
(0.631798 -0.552076 -7.53639e-23)
(0.605006 -0.543366 0)
(0.564043 -0.543834 0)
(0.524891 -0.521512 0)
(0.510652 -0.435397 0)
(0.532337 -0.272362 0)
(0.582114 -0.0617194 0)
(0.644293 0.145902 5.68184e-22)
(0.704693 0.30849 -8.99494e-22)
(0.752881 0.41039 0)
(0.784966 0.459044 0)
(0.803929 0.469357 -3.27017e-22)
(0.810266 0.467646 3.17827e-22)
(0.796723 0.477791 1.44222e-22)
(0.760791 0.499044 0)
(0.719353 0.484132 0)
(0.695836 0.385769 4.35969e-22)
(0.703019 0.201846 -4.23779e-22)
(0.7331 -0.0147358 0)
(0.771948 -0.195889 3.51713e-22)
(0.810031 -0.316608 -5.00204e-22)
(0.838114 -0.369379 1.21359e-22)
(0.846386 -0.402347 0)
(0.822075 -0.41614 -1.65686e-22)
(0.773703 -0.421248 1.61116e-22)
(0.733454 -0.353805 0)
(0.721372 -0.211751 0)
(0.746176 -0.0369752 -8.73489e-23)
(0.788642 0.139511 2.37383e-22)
(0.822286 0.23241 0)
(0.823412 0.341623 0)
(0.796422 0.359017 -4.96687e-23)
(0.765138 0.360302 -2.5433e-24)
(0.769719 0.25207 -1.90648e-25)
(0.791185 0.0697658 4.99297e-23)
(0.815621 -0.035458 0)
(0.816778 -0.263165 0)
(0.805614 -0.27708 0)
(0.795373 -0.346146 0)
(0.799114 -0.268617 0)
(0.785545 0.0212328 0)
(-0.153603 0.371495 -5.32652e-22)
(-0.126559 0.408314 -2.2177e-20)
(-0.0909823 0.434661 8.83437e-23)
(-0.0471233 0.447163 2.07311e-20)
(0.00536566 0.442313 3.28901e-22)
(0.0661355 0.417112 0)
(0.134036 0.369698 -2.20605e-20)
(0.206971 0.29973 4.4673e-20)
(0.282222 0.208845 -2.26151e-20)
(0.356851 0.0996394 2.30459e-20)
(0.428294 -0.0248112 -2.20604e-20)
(0.495841 -0.16015 2.04897e-20)
(0.558872 -0.298995 -1.99697e-20)
(0.614584 -0.427219 -5.46802e-22)
(0.658227 -0.527032 -1.29426e-20)
(0.685983 -0.586348 1.25779e-20)
(0.69716 -0.605789 -7.93312e-21)
(0.69399 -0.595765 7.49386e-21)
(0.681068 -0.568632 -5.30594e-21)
(0.660792 -0.538173 9.77504e-21)
(0.629059 -0.519516 -4.49677e-21)
(0.5828 -0.515121 -2.55614e-22)
(0.532099 -0.500088 -5.05036e-21)
(0.499712 -0.432787 1.05612e-20)
(0.503412 -0.290764 -5.49372e-21)
(0.541705 -0.0945649 3.49847e-22)
(0.600085 0.107792 5.58443e-21)
(0.662564 0.274232 -5.74291e-22)
(0.716937 0.385046 -7.99367e-21)
(0.757974 0.442971 6.45459e-21)
(0.786707 0.461367 -2.85716e-21)
(0.800518 0.468462 2.93175e-22)
(0.792064 0.488063 -1.44525e-22)
(0.76128 0.515069 3.20027e-22)
(0.727816 0.498132 0)
(0.713206 0.391194 0)
(0.727384 0.197193 -1.99355e-21)
(0.760952 -0.0265063 1.43516e-21)
(0.798322 -0.209771 1.08084e-21)
(0.831009 -0.328321 -1.44775e-22)
(0.851771 -0.375441 -1.2559e-21)
(0.855962 -0.399455 1.93544e-22)
(0.828559 -0.404402 0)
(0.777982 -0.406856 0)
(0.732629 -0.34529 0)
(0.716973 -0.213837 0)
(0.740622 -0.0475383 3.01747e-22)
(0.782783 0.127926 -1.52579e-22)
(0.817776 0.226968 0)
(0.817749 0.34459 0)
(0.793324 0.365926 0)
(0.761987 0.363766 -1.11803e-22)
(0.769456 0.249472 -1.68992e-23)
(0.794132 0.0642778 -9.58257e-23)
(0.820882 -0.0381847 0)
(0.824605 -0.261686 0)
(0.810224 -0.275373 4.25765e-23)
(0.80033 -0.345196 9.14554e-23)
(0.800781 -0.26758 0)
(0.785272 0.0227026 0)
(-0.0689199 0.333348 6.25709e-22)
(-0.0354756 0.364064 -4.09557e-20)
(0.00731861 0.38477 4.23582e-20)
(0.0588565 0.392106 -3.96207e-20)
(0.118355 0.38293 -3.31122e-22)
(0.184774 0.354805 0)
(0.256462 0.306371 -4.69591e-20)
(0.331145 0.237648 4.60408e-20)
(0.406189 0.150026 3.6599e-22)
(0.479036 0.0455273 7.56863e-22)
(0.548001 -0.0732748 7.44575e-22)
(0.612575 -0.203212 6.89968e-22)
(0.671516 -0.336701 -3.91424e-20)
(0.720554 -0.458242 3.85875e-20)
(0.753574 -0.549234 0)
(0.76725 -0.598374 7.39711e-22)
(0.763241 -0.607989 -1.63e-20)
(0.745859 -0.590475 1.60571e-20)
(0.72055 -0.558532 0)
(0.691475 -0.52262 0)
(0.655843 -0.495469 -8.24069e-21)
(0.607173 -0.484475 1.62019e-20)
(0.548934 -0.473708 -1.62361e-20)
(0.501075 -0.424453 -9.20875e-22)
(0.486464 -0.305929 1.9089e-20)
(0.510851 -0.127784 -2.0452e-20)
(0.562757 0.0667046 1.86886e-20)
(0.625185 0.235433 -1.6311e-21)
(0.684258 0.35445 -7.71149e-21)
(0.733401 0.421839 0)
(0.77128 0.449343 0)
(0.792304 0.466289 1.79933e-21)
(0.789452 0.495657 -2.3097e-21)
(0.764765 0.528424 8.53694e-24)
(0.739668 0.510275 3.51968e-21)
(0.733764 0.396372 -3.4204e-21)
(0.754602 0.194294 0)
(0.791332 -0.0351097 5.04563e-22)
(0.827061 -0.219871 3.64702e-21)
(0.854192 -0.336575 -6.27439e-21)
(0.867333 -0.379205 2.37688e-21)
(0.867255 -0.395497 1.9341e-22)
(0.837229 -0.392187 -1.48413e-21)
(0.785219 -0.39208 1.14982e-21)
(0.735344 -0.3368 2.61617e-22)
(0.71611 -0.216518 2.72049e-22)
(0.738071 -0.0590977 -3.02512e-22)
(0.779218 0.115536 0)
(0.815193 0.220884 0)
(0.813955 0.34704 -8.23236e-22)
(0.792221 0.372622 4.06423e-22)
(0.76082 0.367161 -4.46413e-22)
(0.771046 0.246944 7.10918e-22)
(0.798711 0.058547 9.00001e-22)
(0.827735 -0.0409455 -1.84968e-22)
(0.833734 -0.259825 3.23921e-22)
(0.815838 -0.273332 -2.23951e-22)
(0.806062 -0.343883 8.64747e-23)
(0.803392 -0.266271 0)
(0.786009 0.0242455 0)
(0.0446473 0.287227 -7.80672e-20)
(0.0825657 0.312783 -2.15148e-21)
(0.12897 0.329143 7.61594e-20)
(0.183366 0.332944 -6.41495e-22)
(0.244817 0.321561 0)
(0.311965 0.292986 0)
(0.38297 0.246074 -9.55309e-20)
(0.455667 0.180832 -6.47265e-21)
(0.527703 0.0982833 1.45666e-19)
(0.59733 4.727e-05 4.19934e-22)
(0.663468 -0.11226 -4.89003e-20)
(0.725497 -0.236323 -4.3388e-20)
(0.78104 -0.36379 4.3553e-20)
(0.823641 -0.477777 0)
(0.845958 -0.559436 -2.76106e-20)
(0.84565 -0.599049 2.5333e-20)
(0.826969 -0.600743 0)
(0.796634 -0.577956 0)
(0.760559 -0.543691 1.00248e-20)
(0.723448 -0.505764 -1.49289e-21)
(0.684481 -0.472604 -7.77012e-21)
(0.635933 -0.453588 -7.04146e-21)
(0.574728 -0.442713 7.00033e-21)
(0.515108 -0.408659 -7.89272e-21)
(0.482492 -0.315383 -5.70908e-22)
(0.490729 -0.159306 8.03904e-21)
(0.533346 0.0241807 1.02326e-21)
(0.593241 0.193058 8.67889e-23)
(0.655283 0.319117 0)
(0.711367 0.3959 4.89373e-21)
(0.757497 0.433217 -5.02192e-21)
(0.785402 0.460588 2.85045e-22)
(0.788583 0.499713 0)
(0.770668 0.538322 -3.32522e-22)
(0.754081 0.520267 7.38001e-21)
(0.756688 0.401694 -1.47852e-20)
(0.783832 0.193723 -1.79298e-21)
(0.823453 -0.0403889 4.92742e-22)
(0.857613 -0.226409 7.09039e-21)
(0.879312 -0.341643 7.09633e-22)
(0.884697 -0.380909 -3.72334e-21)
(0.880051 -0.390815 3.22868e-21)
(0.847715 -0.379852 1.33881e-23)
(0.795024 -0.376954 1.00995e-21)
(0.74136 -0.32804 -1.24446e-21)
(0.71856 -0.219393 -1.74114e-21)
(0.738323 -0.0714721 5.30144e-22)
(0.777771 0.102438 8.64339e-22)
(0.814466 0.21411 -1.65415e-21)
(0.812049 0.348877 1.19786e-21)
(0.793194 0.379066 -4.71383e-22)
(0.76184 0.370552 3.2147e-22)
(0.774645 0.244626 4.66656e-22)
(0.804938 0.0526885 -1.44535e-21)
(0.836119 -0.0437333 3.18342e-23)
(0.844103 -0.257577 -3.69924e-22)
(0.822428 -0.270918 0)
(0.812532 -0.342203 -8.87993e-23)
(0.806867 -0.264708 3.2968e-23)
(0.787694 0.025854 0)
(0.171022 0.236524 7.3798e-20)
(0.21106 0.258701 -1.47909e-19)
(0.257696 0.271814 7.30587e-20)
(0.31155 0.273416 8.18573e-20)
(0.371695 0.261547 -1.66283e-19)
(0.436599 0.234397 -6.1915e-21)
(0.504523 0.19074 8.87087e-20)
(0.573638 0.130319 9.80016e-20)
(0.642216 0.0535526 -9.60078e-20)
(0.709024 -0.0377683 0)
(0.773165 -0.143436 -9.6172e-20)
(0.833503 -0.260857 1.83241e-19)
(0.885721 -0.380589 -8.72785e-20)
(0.921129 -0.485056 0)
(0.932079 -0.556456 0)
(0.91811 -0.587506 7.59199e-22)
(0.886056 -0.583937 -3.33441e-20)
(0.844764 -0.558842 3.2396e-20)
(0.800366 -0.52457 0)
(0.756745 -0.487433 1.61991e-20)
(0.714625 -0.451717 -2.83054e-20)
(0.667459 -0.425473 2.43668e-20)
(0.607461 -0.410556 -2.30774e-20)
(0.541065 -0.386475 -9.4704e-22)
(0.492273 -0.317358 2.49038e-20)
(0.482482 -0.18656 -1.29158e-20)
(0.512674 -0.0175917 -4.63883e-22)
(0.567366 0.148073 -5.19167e-21)
(0.630406 0.279475 6.35505e-22)
(0.691882 0.365226 4.67345e-21)
(0.745079 0.41268 2.70479e-22)
(0.779434 0.450685 -4.42164e-21)
(0.788944 0.499446 9.33175e-21)
(0.778289 0.544317 -5.5517e-21)
(0.770204 0.528013 0)
(0.781099 0.407406 -9.96089e-21)
(0.814132 0.195596 9.83442e-21)
(0.8565 -0.0422662 -7.47429e-21)
(0.889345 -0.229314 9.34574e-21)
(0.905907 -0.343382 -7.57294e-22)
(0.903599 -0.380389 0)
(0.894145 -0.385393 -3.85309e-22)
(0.859753 -0.367612 8.47864e-22)
(0.807 -0.361738 0)
(0.750332 -0.318995 2.1493e-21)
(0.723964 -0.222214 -8.30322e-22)
(0.741072 -0.0844008 4.44629e-22)
(0.778245 0.0887004 3.51748e-22)
(0.81547 0.206544 0)
(0.812001 0.349957 0)
(0.796271 0.385176 -1.31834e-21)
(0.7652 0.373998 2.42499e-21)
(0.780363 0.242622 -1.59449e-21)
(0.812805 0.0468249 5.8371e-22)
(0.845951 -0.0465419 9.87431e-22)
(0.855632 -0.254886 3.70271e-22)
(0.829953 -0.268067 -4.70738e-22)
(0.819702 -0.340146 0)
(0.811121 -0.262909 -8.09676e-23)
(0.790259 0.0275223 7.72081e-24)
(0.301795 0.184281 7.11753e-20)
(0.340985 0.204449 -7.07797e-20)
(0.385052 0.21553 5.89414e-22)
(0.436005 0.216134 -5.89875e-22)
(0.493037 0.205017 6.46083e-22)
(0.554426 0.180395 -6.81184e-22)
(0.618641 0.140845 1.3764e-21)
(0.684163 0.0856725 0)
(0.750369 0.0150626 -1.47127e-21)
(0.815674 -0.0696269 1.4831e-21)
(0.878578 -0.16863 1.45726e-21)
(0.937048 -0.278199 -1.44742e-21)
(0.984436 -0.388023 0)
(1.01073 -0.481037 0)
(1.00942 -0.541832 9.26461e-22)
(0.982657 -0.565792 0)
(0.939382 -0.559583 -5.79265e-22)
(0.889537 -0.534946 0)
(0.839264 -0.502533 -1.88005e-20)
(0.791089 -0.467819 3.34628e-20)
(0.746024 -0.432401 -2.62635e-20)
(0.700233 -0.401121 1.1669e-20)
(0.644379 -0.379887 9.12729e-21)
(0.576862 -0.359734 -8.86426e-21)
(0.515786 -0.310777 -9.98647e-21)
(0.487445 -0.207136 9.7322e-21)
(0.501805 -0.0572576 0)
(0.548044 0.101543 2.44589e-22)
(0.609952 0.236097 0)
(0.674886 0.329951 0)
(0.733727 0.387531 6.98789e-21)
(0.773998 0.436102 -7.16972e-21)
(0.789955 0.494293 5.14902e-22)
(0.786774 0.54598 6.67656e-22)
(0.78703 0.533444 -8.2021e-22)
(0.805882 0.413528 -9.10196e-21)
(0.844474 0.19975 8.83588e-21)
(0.889691 -0.0407647 -1.00487e-20)
(0.921608 -0.228684 8.62198e-21)
(0.933508 -0.341876 1.54008e-21)
(0.923741 -0.377646 -3.80319e-21)
(0.909273 -0.379294 6.35781e-22)
(0.873023 -0.355652 2.04119e-21)
(0.820672 -0.346569 0)
(0.761774 -0.309577 -7.51864e-22)
(0.731902 -0.224752 1.02989e-21)
(0.74596 -0.0975383 -1.39025e-21)
(0.780347 0.0743601 -3.53987e-22)
(0.818014 0.198052 0)
(0.813723 0.350103 4.36327e-22)
(0.801412 0.390835 -7.44733e-22)
(0.77098 0.377518 1.88461e-23)
(0.788267 0.241046 -6.52504e-22)