/*--------------------------------*- C++ -*----------------------------------*\
| =========                 |                                                 |
| \\      /  F ield         | OpenFOAM: The Open Source CFD Toolbox           |
|  \\    /   O peration     | Version:  2512                                  |
|   \\  /    A nd           | Website:  www.openfoam.com                      |
|    \\/     M anipulation  |                                                 |
\*---------------------------------------------------------------------------*/
FoamFile
{
    version     2.0;
    format      ascii;
    arch        "LSB;label=32;scalar=64";
    class       volVectorField;
    location    "191";
    object      U;
}
// * * * * * * * * * * * * * * * * * * * * * * * * * * * * * * * * * * * * * //

dimensions      [0 1 -1 0 0 0 0];

internalField   nonuniform List<vector> 
13248
(
(-0.0141979 0.0128424 9.14149e-20)
(-0.0253018 0.0269569 0)
(-0.0188394 0.0344873 -1.72434e-19)
(0.00479322 0.0374799 1.62428e-19)
(0.0453029 0.0374238 1.51757e-19)
(0.102348 0.0354308 0)
(0.175335 0.0323278 0)
(0.263199 0.028731 3.66756e-19)
(0.364168 0.02507 -5.74782e-22)
(0.475589 0.0215825 -3.22519e-19)
(0.593894 0.0183108 3.02886e-19)
(0.714753 0.0151178 -1.89661e-19)
(0.833393 0.011728 0)
(0.945035 0.00779127 -3.33667e-19)
(1.04537 0.00295938 6.24414e-19)
(1.131 -0.00303929 -1.4953e-19)
(1.19975 -0.0103412 -2.66282e-19)
(1.25087 -0.01893 2.50006e-19)
(1.28499 -0.0285891 0)
(1.30388 -0.0392218 0)
(1.31029 -0.0497939 0)
(1.30634 -0.0627647 0)
(1.29606 -0.069803 7.113e-20)
(1.2774 -0.0960074 2.48737e-19)
(-0.0138646 0.0112426 -2.75946e-19)
(-0.0190512 0.0207652 1.87968e-19)
(-0.00224895 0.0239872 -1.79912e-21)
(0.0353858 0.0234883 -2.48178e-19)
(0.0930705 0.0211202 -1.51592e-19)
(0.169866 0.0182327 -1.43618e-19)
(0.264211 0.0157411 -2.63904e-19)
(0.373579 0.0142048 2.4987e-19)
(0.494293 0.0138576 0)
(0.621569 0.0146178 5.25908e-22)
(0.74984 0.0161222 1.10099e-21)
(0.873302 0.0178004 1.89039e-19)
(0.986548 0.0189845 0)
(1.08518 0.0190358 0)
(1.16623 0.0174591 2.25645e-19)
(1.22843 0.0139831 -4.24283e-19)
(1.27217 0.0085902 2.52753e-19)
(1.29923 0.00149719 -2.37321e-19)
(1.31235 -0.00691579 -1.0332e-19)
(1.31471 -0.0161588 -1.88006e-19)
(1.30932 -0.0257328 -7.57644e-20)
(1.29881 -0.0353187 -1.42156e-19)
(1.28492 -0.0428388 2.10959e-19)
(1.26899 -0.0545677 5.89476e-20)
(-0.0122415 0.00916739 0)
(-0.00848014 0.0141091 0)
(0.0223041 0.0139442 8.78309e-20)
(0.0778885 0.0114076 8.08854e-20)
(0.156531 0.00852019 -1.91499e-21)
(0.256014 0.00673793 -1.4876e-19)
(0.372957 0.0069036 0)
(0.502529 0.00930531 -1.24369e-19)
(0.638574 0.0137303 1.17359e-19)
(0.774137 0.0195411 7.3135e-22)
(0.902289 0.0258119 -2.01644e-19)
(1.01701 0.0315138 -1.85758e-19)
(1.11391 0.0357118 2.89995e-21)
(1.19063 0.0377245 -1.54675e-19)
(1.24695 0.0372174 3.71054e-19)
(1.28441 0.0342126 0)
(1.30589 0.0290299 -2.40504e-19)
(1.31485 0.0221742 1.17517e-19)
(1.31478 0.0142478 1.03244e-19)
(1.30866 0.00575405 0)
(1.29881 -0.00258729 8.36479e-20)
(1.28656 -0.0111173 -2.82113e-19)
(1.27317 -0.0171693 2.64837e-19)
(1.25861 -0.028244 1.61864e-19)
(-0.00880409 0.00652993 -9.74657e-20)
(0.00755804 0.00689539 -1.00791e-19)
(0.056131 0.00439087 9.1177e-20)
(0.133276 0.00149916 0)
(0.235649 0.000138666 0)
(0.358896 0.00161896 -3.42178e-21)
(0.496932 0.006406 0)
(0.642057 0.0141832 -3.81289e-19)
(0.785716 0.0240074 3.54549e-19)
(0.919662 0.0345425 -4.38109e-19)
(1.03714 0.0443546 1.0074e-19)
(1.13376 0.0522016 0)
(1.20779 0.0572432 1.67925e-19)
(1.26 0.0591322 -3.11092e-19)
(1.29307 0.0579825 7.42426e-20)
(1.31073 0.0542481 1.90228e-19)
(1.31697 0.0485631 -8.61832e-21)
(1.31541 0.0415969 -2.10413e-19)
(1.30889 0.0339405 0)
(1.2994 0.0260873 0)
(1.2882 0.0184035 -7.46482e-20)
(1.27601 0.0109892 6.66555e-20)
(1.26338 0.00513299 2.37173e-19)
(1.25026 -0.004106 -2.22716e-19)
(-0.00310423 0.00344981 -1.02611e-19)
(0.0300129 -0.000502677 -1.02436e-19)
(0.100141 -0.00403408 2.88044e-19)
(0.201763 -0.00533571 -1.75124e-19)
(0.329125 -0.00295807 1.64829e-19)
(0.474818 0.00386768 2.9996e-19)
(0.629443 0.0148047 -2.12129e-19)
(0.782545 0.0285796 -2.58364e-19)
(0.924204 0.0433694 5.06507e-21)
(1.04662 0.0572574 3.30856e-19)
(1.14517 0.0686485 0)
(1.21863 0.0765381 9.09719e-20)
(1.26867 0.0805894 0)
(1.29896 0.0810387 -1.48918e-19)
(1.31401 0.0784986 2.0965e-19)
(1.31827 0.0737392 2.3391e-21)
(1.31547 0.0675128 -5.48613e-20)
(1.30839 0.0604497 1.03213e-19)
(1.2989 0.0530306 8.85162e-20)
(1.28812 0.0455905 -7.92906e-20)
(1.27669 0.0383871 7.46311e-20)
(1.26495 0.0314725 -6.66391e-20)
(1.25311 0.0255772 0)
(1.24114 0.0173759 -5.00789e-20)
(0.0052367 0.00020054 1.02596e-19)
(0.0595607 -0.00730271 1.07696e-19)
(0.154685 -0.0101375 -9.65425e-20)
(0.282596 -0.0076499 1.80259e-19)
(0.434237 0.000647891 -1.69654e-19)
(0.598444 0.0144607 1.53748e-19)
(0.762565 0.0322069 -7.38001e-20)
(0.914493 0.0514728 1.93911e-19)
(1.04484 0.0697184 -1.2188e-19)
(1.14831 0.0848846 2.1576e-19)
(1.22388 0.0957458 -4.9777e-19)
(1.27399 0.101966 1.82636e-19)
(1.3032 0.103921 -1.60246e-19)
(1.31682 0.10241 1.50526e-19)
(1.31977 0.0983647 1.30164e-19)
(1.31603 0.0926487 1.14427e-19)
(1.30844 0.0859516 -3.17984e-19)
(1.29881 0.0787736 1.97447e-19)
(1.2882 0.0714553 -8.85206e-20)
(1.27719 0.0642279 2.30323e-19)
(1.26604 0.0572416 -7.43889e-20)
(1.25488 0.050595 -1.80242e-19)
(1.24377 0.0446214 1.66273e-19)
(1.23264 0.037235 5.00647e-20)
(0.0165036 -0.00280529 0)
(0.0965142 -0.0124053 9.61123e-22)
(0.219376 -0.0123821 2.01959e-19)
(0.37386 -0.00379314 -1.89376e-19)
(0.546841 0.0122616 -1.71246e-19)
(0.723301 0.0338713 3.18327e-19)
(0.88838 0.0579566 -1.47861e-19)
(1.03031 0.0811417 1.96999e-19)
(1.14239 0.100688 -4.34715e-21)
(1.22332 0.115007 -1.11547e-19)
(1.27604 0.123702 2.43496e-19)
(1.30598 0.127288 -3.59194e-19)
(1.31927 0.126784 0)
(1.32149 0.123331 -7.05718e-20)
(1.31699 0.117948 -1.8881e-19)
(1.3088 0.111424 5.93128e-20)
(1.2988 0.104308 2.3884e-21)
(1.28803 0.0969602 -1.30746e-19)
(1.27705 0.0896116 8.1845e-21)
(1.26609 0.0824105 1.51207e-19)
(1.25525 0.0754585 -6.74171e-20)
(1.24455 0.0688393 -2.54984e-20)
(1.23398 0.0626264 7.89757e-20)
(1.22348 0.0557332 0)
(0.0308403 -0.00508814 0)
(0.140693 -0.0145832 5.47174e-20)
(0.292933 -0.00917394 -2.62784e-19)
(0.47244 0.00769117 9.58276e-20)
(0.66172 0.0326493 -9.01857e-20)
(0.842732 0.0617962 -8.23731e-20)
(1.00038 0.0906934 -1.45718e-19)
(1.12553 0.115581 7.26947e-20)
(1.21579 0.134223 6.33201e-20)
(1.27421 0.146015 0)
(1.307 0.151579 1.44137e-19)
(1.32126 0.152189 -2.14467e-19)
(1.3234 0.149264 1.5977e-19)
(1.31838 0.14405 7.06105e-20)
(1.30957 0.137487 -5.79543e-20)
(1.29905 0.130214 -4.86346e-20)
(1.28792 0.122634 -4.54652e-20)
(1.27673 0.114993 1.35735e-19)
(1.26573 0.107441 0)
(1.25498 0.100079 6.8322e-20)
(1.24451 0.0929814 5.74813e-20)
(1.23427 0.0862074 -1.42695e-19)
(1.22421 0.0797264 -9.74875e-20)
(1.21427 0.0731566 9.01853e-20)
(0.0482371 -0.00612349 -5.85939e-20)
(0.191361 -0.012595 -2.07009e-21)
(0.37317 0.000891757 5.34502e-20)
(0.574274 0.0277571 1.49448e-19)
(0.773309 0.0618256 4.34768e-20)
(0.951001 0.0972102 -8.39543e-20)
(1.09443 0.128704 7.6776e-20)
(1.19895 0.152968 -6.73666e-20)
(1.267 0.168888 1.20556e-19)
(1.30538 0.177085 5.14377e-20)
(1.32227 0.179116 -1.45831e-19)
(1.3252 0.176767 4.3074e-20)
(1.32001 0.171607 7.36787e-20)
(1.31063 0.16481 -3.62057e-20)
(1.29946 0.157158 0)
(1.28777 0.149128 5.43218e-20)
(1.27615 0.140998 9.21658e-20)
(1.26486 0.132929 1.59252e-20)
(1.25398 0.125023 -7.69583e-20)
(1.24348 0.117347 3.23293e-20)
(1.23335 0.109958 0)
(1.22351 0.102877 -2.54659e-20)
(1.2139 0.0960562 -2.39988e-20)
(1.20443 0.0895562 0)
(0.0684558 -0.00537483 0)
(0.247171 -0.00532205 3.06597e-20)
(0.457114 0.0188277 5.68581e-20)
(0.674824 0.056694 -1.52107e-19)
(0.876502 0.0990847 4.90376e-20)
(1.04406 0.138642 0)
(1.16891 0.170297 7.38172e-20)
(1.25175 0.191907 -1.03018e-19)
(1.29944 0.203835 -6.0137e-20)
(1.32133 0.207896 2.72247e-20)
(1.32635 0.20634 -4.35986e-20)
(1.32156 0.201195 1.05853e-19)
(1.31178 0.193983 5.32248e-20)
(1.29992 0.185709 -3.6895e-20)
(1.28752 0.176974 -3.37139e-21)
(1.2753 0.168114 -1.01905e-19)
(1.26355 0.159312 4.64597e-20)
(1.25235 0.150673 -1.10218e-21)
(1.24168 0.142264 0)
(1.2315 0.134135 -3.23629e-20)
(1.22173 0.126321 0)
(1.21231 0.118817 7.35599e-20)
(1.20316 0.111629 -8.77015e-20)
(1.19414 0.105019 4.00026e-20)
(0.091002 -0.00233909 -1.58817e-20)
(0.306207 0.00811368 -7.72498e-20)
(0.541266 0.0451299 8.78067e-20)
(0.769617 0.0941148 5.17452e-20)
(0.967244 0.143185 -2.47487e-20)
(1.11968 0.184469 4.15362e-20)
(1.22404 0.214018 -2.01955e-20)
(1.28626 0.231433 3.36359e-20)
(1.31662 0.238625 0)
(1.32573 0.238385 7.64164e-20)
(1.32234 0.233368 -3.04588e-21)
(1.31254 0.225615 -6.18587e-20)
(1.30004 0.21648 2.65953e-20)
(1.28686 0.206763 -3.01447e-20)
(1.2739 0.196899 -1.15997e-20)
(1.26153 0.187111 1.32461e-20)
(1.24985 0.177516 -1.03428e-20)
(1.23885 0.168182 -5.61223e-20)
(1.22847 0.159153 3.44364e-20)
(1.21865 0.150461 7.11198e-21)
(1.20928 0.142119 6.28223e-21)
(1.20029 0.13411 5.55046e-21)
(1.19158 0.12652 0)
(1.183 0.119582 0)
(0.115203 0.00341991 1.58927e-20)
(0.36624 0.0282744 -1.59513e-20)
(0.622092 0.0797317 -2.92514e-20)
(0.854844 0.139056 0)
(1.04284 0.192592 -1.22726e-20)
(1.17717 0.233157 -1.10179e-20)
(1.26106 0.258743 -1.89002e-20)
(1.30497 0.270942 0)
(1.32132 0.273063 0)
(1.321 0.268577 0)
(1.31192 0.260279 0)
(1.29904 0.250066 0)
(1.28508 0.239066 -1.67623e-20)
(1.2713 0.227879 7.64728e-21)
(1.25821 0.216804 1.33396e-20)
(1.24596 0.20598 6.23127e-21)
(1.23452 0.195477 1.55418e-20)
(1.22385 0.185333 0)
(1.21386 0.175577 -3.77199e-21)
(1.20448 0.166226 -3.58191e-21)
(1.19559 0.157271 -6.2922e-21)
(1.1871 0.148705 -5.55929e-21)
(1.1789 0.140693 0)
(1.17083 0.133272 4.0437e-21)
(-0.00219934 0.0504989 9.73025e-21)
(-0.00732851 0.121478 -1.00485e-20)
(-0.0152353 0.170125 -1.89703e-20)
(-0.025191 0.201219 0)
(-0.0364925 0.219128 -2.52756e-20)
(-0.0485716 0.227745 7.87758e-21)
(-0.0609067 0.230216 -1.51417e-20)
(-0.0730568 0.228799 0)
(-0.0846808 0.224879 0)
(-0.0955239 0.219105 0)
(-0.105393 0.211578 0)
(-0.114138 0.20205 0)
(-0.121627 0.190083 -1.63397e-22)
(-0.127742 0.175168 -1.04464e-20)
(-0.132366 0.156806 2.06319e-20)
(-0.135383 0.134555 2.9368e-20)
(-0.13668 0.108066 9.79344e-21)
(-0.13615 0.0771113 0)
(-0.133701 0.0416309 8.26379e-21)
(-0.12938 0.00176525 -2.39941e-20)
(-0.122948 -0.0423353 -1.53143e-20)
(-0.114281 -0.0897965 -1.43723e-20)
(-0.103526 -0.139684 0)
(-0.0908261 -0.190531 0)
(-0.0049385 0.0514122 -2.94536e-20)
(-0.0126014 0.125118 5.04854e-20)
(-0.0199717 0.176823 -1.9405e-20)
(-0.0276224 0.210754 -3.62508e-20)
(-0.0355991 0.230938 5.10241e-20)
(-0.0437267 0.241116 -3.24446e-20)
(-0.0517122 0.24443 4.56515e-20)
(-0.0592225 0.243219 2.94146e-20)
(-0.0659387 0.238985 0)
(-0.07158 0.232492 -2.64225e-20)
(-0.0759114 0.223939 -8.21896e-22)
(-0.0787402 0.213144 2.32663e-20)
(-0.0799168 0.199721 3.46827e-20)
(-0.0793165 0.183174 4.45729e-20)
(-0.0768368 0.163016 -1.97305e-20)
(-0.072398 0.138809 -5.98253e-20)
(-0.0659384 0.110201 2.03878e-20)
(-0.0574177 0.0769634 -7.49122e-20)
(-0.046822 0.0390196 0)
(-0.0342762 -0.00351485 1.62092e-20)
(-0.0196522 -0.0501837 1.52883e-20)
(-0.00291187 -0.100358 1.43476e-20)
(0.0158968 -0.152858 0)
(0.0375579 -0.205602 0)
(-0.00752953 0.0502189 0)
(-0.0177482 0.124142 1.04169e-19)
(-0.0246566 0.177616 -3.92017e-20)
(-0.0299302 0.213877 3.67141e-20)
(-0.0342787 0.236295 -1.0483e-19)
(-0.0379102 0.24823 0)
(-0.0407865 0.252657 -6.28541e-20)
(-0.042723 0.251896 2.97338e-20)
(-0.0434636 0.247527 -5.70712e-20)
(-0.0427367 0.240437 2.78264e-20)
(-0.0402908 0.230947 1.56518e-19)
(-0.0358988 0.218991 -7.36651e-20)
(-0.0294111 0.204258 -1.19559e-19)
(-0.0207139 0.186325 -4.83615e-20)
(-0.00970902 0.164752 -2.10321e-21)
(0.00363845 0.139129 1.69058e-19)
(0.0193331 0.109129 -8.03089e-20)
(0.0373424 0.0745354 -1.52342e-21)
(0.0575937 0.0352708 0)
(0.0799989 -0.00853792 -7.2269e-20)
(0.104468 -0.0564709 0)
(0.130827 -0.107965 -6.22337e-20)
(0.159044 -0.161793 2.36852e-19)
(0.191575 -0.215726 -1.77494e-21)
(-0.00970054 0.0471358 0)
(-0.0222768 0.118762 7.45347e-22)
(-0.0288934 0.172462 4.01752e-20)
(-0.0319754 0.210214 -3.79573e-20)
(-0.0327326 0.234524 3.49239e-20)
(-0.0317035 0.248193 2.01463e-19)
(-0.0291079 0.253873 -6.3262e-20)
(-0.0249462 0.253762 -6.06289e-20)
(-0.0190741 0.249455 1.14776e-19)
(-0.0112775 0.241934 -1.65307e-19)
(-0.00132809 0.231658 5.20735e-20)
(0.0109809 0.218691 5.06941e-20)
(0.0258108 0.202836 0)
(0.0432696 0.183777 4.61751e-20)
(0.0634235 0.161138 0)
(0.0862901 0.134561 8.71549e-20)
(0.111846 0.10375 -1.68851e-19)
(0.140028 0.0685021 3.60247e-20)
(0.170744 0.0287752 1.52092e-19)
(0.203884 -0.0153051 7.21755e-20)
(0.239218 -0.063399 0)
(0.276626 -0.114894 -1.95008e-19)
(0.314621 -0.168679 6.12906e-20)
(0.360977 -0.222085 0)
(-0.0112722 0.0426024 0)
(-0.0258255 0.10967 -1.28694e-19)
(-0.0323859 0.161903 -4.04591e-20)
(-0.0336858 0.199976 -7.61278e-20)
(-0.031212 0.225473 7.16762e-20)
(-0.0257414 0.24054 -6.7338e-20)
(-0.0177281 0.247399 1.28829e-19)
(-0.00737611 0.248021 6.1957e-20)
(0.0053036 0.243937 -1.72917e-19)
(0.0204183 0.236179 1.11764e-19)
(0.0381286 0.225316 -1.5916e-19)
(0.0586013 0.211546 3.57641e-19)
(0.0819801 0.19481 -1.93408e-19)
(0.108372 0.174894 9.41522e-20)
(0.137843 0.151509 2.74702e-19)
(0.170429 0.124354 -8.25867e-20)
(0.206123 0.0931753 -8.00289e-20)
(0.244904 0.0578174 -7.92805e-20)
(0.28669 0.018239 0)
(0.33133 -0.025422 -1.48538e-19)
(0.378321 -0.0728033 -1.40927e-19)
(0.428223 -0.123023 1.97749e-19)
(0.475718 -0.175659 2.43136e-19)
(0.538187 -0.22629 -2.2763e-19)
(-0.0121969 0.0372018 0)
(-0.0282375 0.0979324 -1.74422e-19)
(-0.0349826 0.147005 -4.62678e-23)
(-0.0350295 0.183975 1.5381e-19)
(-0.0299043 0.209593 0)
(-0.0205079 0.22536 0)
(-0.00747555 0.233022 0)
(0.00879589 0.234251 -6.17983e-20)
(0.0281232 0.230439 -1.52759e-21)
(0.0504784 0.2226 1.09958e-19)
(0.0759291 0.211368 -1.61501e-19)
(0.104591 0.197046 -1.72946e-21)
(0.136597 0.179688 0)
(0.172076 0.159185 -9.40983e-20)
(0.211133 0.13533 9.27156e-20)
(0.25387 0.107904 -2.58804e-19)
(0.300367 0.0767089 3.36948e-19)
(0.350609 0.0416167 8.50918e-20)
(0.404429 0.00261851 4.95829e-21)
(0.461657 -0.0400001 -2.9104e-19)
(0.520984 -0.0859368 -1.36679e-19)
(0.58425 -0.133463 4.51172e-19)
(0.640256 -0.18383 -2.99862e-19)
(0.717835 -0.22929 0)
(-0.0125707 0.0315717 8.61697e-20)
(-0.0295913 0.0848299 8.74914e-20)
(-0.0366901 0.129226 -8.26148e-20)
(-0.0359733 0.163559 -1.54401e-19)
(-0.0288039 0.187964 1.45366e-19)
(-0.016094 0.2034 -1.36778e-19)
(0.00141567 0.211164 1.93026e-19)
(0.0231824 0.212602 -6.18549e-20)
(0.0488764 0.208913 1.15143e-19)
(0.0783506 0.201031 0)
(0.111597 0.189594 1.06857e-19)
(0.1487 0.17496 -1.98526e-19)
(0.189824 0.157253 1.95673e-19)
(0.235151 0.136461 -1.83768e-19)
(0.284876 0.112472 0)
(0.339154 0.0851302 1.7175e-19)
(0.398007 0.054297 3.32192e-19)
(0.461305 0.0199433 -3.13292e-19)
(0.528544 -0.0178052 -1.48749e-19)
(0.59922 -0.0583672 -1.46041e-19)
(0.670711 -0.101688 4.05767e-19)
(0.74578 -0.144629 1.21862e-19)
(0.807939 -0.191085 -1.15876e-19)
(0.894154 -0.228429 1.02263e-19)
(-0.0126105 0.0263024 -8.61817e-20)
(-0.0301612 0.0716499 2.65061e-19)
(-0.0376146 0.110194 -8.36033e-20)
(-0.0363813 0.140445 1.5497e-19)
(-0.0275316 0.162216 -1.45901e-19)
(-0.0118969 0.176097 -4.13397e-23)
(0.00976603 0.183023 6.42118e-20)
(0.0368527 0.184038 2.42944e-19)
(0.0689644 0.180129 2.05279e-21)
(0.105907 0.172104 -1.08532e-19)
(0.147666 0.16055 0)
(0.194336 0.145824 -1.00769e-19)
(0.246127 0.12813 1.88702e-19)
(0.303291 0.107507 1.84933e-19)
(0.365956 0.0839018 -8.67584e-20)
(0.434102 0.0572487 -1.8777e-21)
(0.507423 0.0275569 -8.16711e-20)
(0.58522 -0.00501054 1.51696e-19)
(0.666161 -0.0401826 1.48717e-19)
(0.748859 -0.0770133 -1.40709e-19)
(0.829465 -0.11577 1.26289e-19)
(0.910126 -0.151997 -1.16664e-19)
(0.973216 -0.192505 0)
(1.05533 -0.219243 -1.02249e-19)
(-0.0125935 0.0218413 8.68911e-20)
(-0.0302924 0.0594676 -8.87134e-20)
(-0.0378041 0.0914354 8.35286e-20)
(-0.0358231 0.116458 0)
(-0.0250826 0.134338 0)
(-0.0062673 0.145491 1.36538e-19)
(0.0199464 0.150616 -1.28423e-19)
(0.0530051 0.15052 1.20953e-19)
(0.0925525 0.145992 -5.70196e-19)
(0.138435 0.137705 -1.02475e-21)
(0.190677 0.126172 1.02223e-19)
(0.249427 0.111753 0)
(0.314785 0.09465 -1.8929e-19)
(0.386733 0.0749293 3.59054e-19)
(0.465016 0.0526532 -2.5713e-19)
(0.548942 0.0278988 -4.1499e-19)
(0.637283 0.000826604 -4.53412e-21)
(0.728229 -0.0282402 2.91194e-19)
(0.819295 -0.0588967 0)
(0.90788 -0.0900722 0)
(0.989732 -0.122138 -1.26295e-19)
(1.06515 -0.150391 1.16674e-19)
(1.12062 -0.183307 -4.04819e-19)
(1.18349 -0.19932 3.7923e-19)
(-0.0127613 0.0184149 0)
(-0.0302055 0.0489627 0)
(-0.0370182 0.0741266 -2.50562e-19)
(-0.0333338 0.0932498 7.97854e-20)
(-0.0195787 0.10639 1.05466e-21)
(0.00375163 0.113979 1.37582e-19)
(0.0361483 0.116608 0)
(0.0772085 0.114939 -1.20306e-19)
(0.126692 0.109614 1.13735e-19)
(0.184497 0.101197 -2.14714e-19)
(0.250574 0.0901268 -1.19586e-21)
(0.324789 0.0767185 1.95055e-19)
(0.40677 0.0611637 2.92847e-21)
(0.495718 0.0436152 1.80525e-19)
(0.590302 0.0241978 -2.50488e-19)
(0.688566 0.00306221 0)
(0.787945 -0.0195618 3.04881e-19)
(0.885369 -0.0433392 -4.32569e-19)
(0.977474 -0.0678186 1.3109e-19)
(1.06097 -0.0922475 0)
(1.13243 -0.116651 1.11839e-19)
(1.19101 -0.137676 4.16986e-19)
(1.22981 -0.162763 -3.91397e-19)
(1.26433 -0.17116 -4.16685e-19)
(-0.0132111 0.0159868 2.63219e-19)
(-0.0297922 0.0403126 -3.60905e-19)
(-0.0345252 0.0589148 1.31937e-21)
(-0.0272729 0.0720429 7.98336e-20)
(-0.00824212 0.0801949 -1.47836e-19)
(0.022265 0.0839632 -1.37174e-19)
(0.0639318 0.0839559 2.56444e-19)
(0.116493 0.0807742 -6.23753e-22)
(0.179714 0.0749751 -2.26309e-19)
(0.253284 0.0670324 4.28039e-19)
(0.336653 0.057312 2.28195e-21)
(0.428849 0.0460759 -1.90755e-19)
(0.52833 0.0334941 0)
(0.632892 0.019677 0)
(0.739685 0.00470645 -8.3154e-20)
(0.845339 -0.0113276 -1.53005e-19)
(0.946191 -0.0282783 -2.92677e-19)
(1.03857 -0.0459649 2.7474e-19)
(1.11925 -0.0640047 -1.31174e-19)
(1.18558 -0.0821989 2.32926e-19)
(1.23618 -0.0998765 -1.17862e-19)
(1.27098 -0.116276 1.86398e-19)
(1.2891 -0.134595 -4.47442e-19)
(1.29817 -0.140606 8.28948e-20)
(-0.0138097 0.0142723 8.85892e-20)
(-0.0284874 0.0331995 0)
(-0.0290411 0.0458596 1.70066e-19)
(-0.0154185 0.0534765 -1.60201e-19)
(0.012249 0.0570627 1.47976e-19)
(0.0537698 0.0574584 0)
(0.108887 0.0553654 0)
(0.177221 0.0513848 -1.21004e-19)
(0.258124 0.0460175 4.5863e-23)
(0.350491 0.0396501 1.06655e-19)
(0.452582 0.0325402 -1.01257e-19)
(0.561907 0.0248187 1.89942e-19)
(0.675245 0.0165046 0)
(0.788784 0.00753637 3.41119e-19)
(0.898395 -0.00218579 -6.41152e-19)
(0.999978 -0.0127538 4.5438e-19)
(1.08986 -0.0241963 2.79706e-19)
(1.16514 -0.0364925 -2.62587e-19)
(1.22408 -0.0493857 0)
(1.26605 -0.0629862 0)
(1.29217 -0.07609 0)
(1.30381 -0.090588 0)
(1.3045 -0.102802 8.51524e-20)
(1.29819 -0.113524 -2.85489e-19)
(-0.0756787 -0.248472 -7.95876e-21)
(-0.0632433 -0.31946 8.02425e-21)
(-0.0495635 -0.389373 -2.35267e-22)
(-0.0364233 -0.454266 0)
(-0.0247124 -0.510996 -5.54159e-21)
(-0.014701 -0.556743 1.02894e-20)
(-0.00531545 -0.588562 -4.05191e-22)
(0.00659402 -0.60254 -4.2388e-21)
(0.0251874 -0.593747 0)
(0.0548365 -0.556267 0)
(0.0987115 -0.485621 -2.03335e-22)
(0.156878 -0.38192 -2.03199e-22)
(0.225702 -0.249425 -3.83342e-21)
(0.299861 -0.0959262 3.5261e-21)
(0.375211 0.0688887 0)
(0.448767 0.231498 0)
(0.517187 0.373249 2.44474e-21)
(0.575863 0.47743 -4.07751e-22)
(0.620555 0.537995 -1.81133e-21)
(0.649755 0.560492 -8.18415e-23)
(0.665612 0.556559 0)
(0.66921 0.542955 0)
(0.6568 0.53866 0)
(0.627322 0.547875 0)
(0.592853 0.543582 0)
(0.576066 0.479536 0)
(0.59163 0.330749 6.33773e-22)
(0.635623 0.118343 -1.04509e-21)
(0.693115 -0.102275 0)
(0.749622 -0.280576 0)
(0.793097 -0.393041 -4.95297e-22)
(0.819569 -0.446338 4.81367e-22)
(0.832298 -0.456686 1.67205e-22)
(0.833275 -0.451788 0)
(0.815005 -0.457842 0)
(0.773706 -0.472097 2.67761e-22)
(0.724918 -0.452793 -2.60287e-22)
(0.694448 -0.349222 0)
(0.695068 -0.173843 3.58015e-22)
(0.723281 0.032117 -5.11343e-22)
(0.763259 0.194702 1.40141e-22)
(0.806256 0.30618 0)
(0.834748 0.361517 -1.80407e-22)
(0.831511 0.402022 1.75427e-22)
(0.797137 0.426745 0)
(0.753441 0.390736 0)
(0.732274 0.292723 -9.33978e-23)
(0.747726 0.096171 2.8692e-22)
(0.782955 -0.0553854 0)
(0.823026 -0.208733 0)
(0.83084 -0.286356 -5.29774e-23)
(0.806206 -0.345708 7.97036e-25)
(0.783108 -0.373672 -3.99804e-24)
(0.775979 -0.241738 3.24699e-23)
(0.794501 -0.168305 0)
(0.809345 0.0731695 0)
(0.8081 0.185889 0)
(0.796455 0.285871 0)
(0.798104 0.386497 0)
(0.785478 0.1213 0)
(0.0590203 -0.264104 -8.73335e-22)
(0.0723231 -0.334159 -3.34747e-20)
(0.0855944 -0.403118 2.51767e-21)
(0.0961298 -0.465772 2.89922e-20)
(0.101996 -0.519125 3.94504e-22)
(0.101869 -0.561445 0)
(0.0956618 -0.591315 -1.7216e-20)
(0.0854015 -0.606984 3.22426e-20)
(0.0756352 -0.605205 -1.50106e-20)
(0.0732703 -0.579766 1.25704e-20)
(0.0850184 -0.523691 -1.20149e-20)
(0.114925 -0.4328 1.19613e-20)
(0.162861 -0.308785 -1.1545e-20)
(0.224008 -0.159194 -3.30789e-22)
(0.293552 0.00464617 -1.11599e-20)
(0.367065 0.169079 1.08451e-20)
(0.439993 0.316721 -8.45738e-21)
(0.507232 0.431184 8.00323e-21)
(0.563474 0.504814 -5.73172e-21)
(0.605934 0.540088 1.02918e-20)
(0.634615 0.547386 -4.60463e-21)
(0.647928 0.544754 -2.48072e-22)
(0.64223 0.550911 -4.35894e-21)
(0.620379 0.56567 9.11789e-21)
(0.598415 0.557364 -4.74415e-21)
(0.597944 0.480964 3.93416e-22)
(0.627997 0.318114 7.59291e-21)
(0.681322 0.0953407 4.28955e-22)
(0.741922 -0.129693 -1.37837e-20)
(0.795435 -0.305223 1.18413e-20)
(0.831821 -0.409992 -5.25974e-21)
(0.849038 -0.455042 4.48361e-22)
(0.851759 -0.45895 -1.67531e-22)
(0.845029 -0.447202 2.7042e-22)
(0.822575 -0.444733 0)
(0.778109 -0.452957 0)
(0.723817 -0.435788 -1.08865e-21)
(0.685215 -0.342374 7.89814e-22)
(0.679564 -0.179419 9.71671e-22)
(0.704902 0.0178494 9.32086e-23)
(0.747621 0.177512 -1.27e-21)
(0.794827 0.292323 2.07223e-22)
(0.827885 0.356303 0)
(0.827032 0.40717 0)
(0.795867 0.438193 0)
(0.757118 0.400587 0)
(0.739458 0.294768 4.21086e-22)
(0.757731 0.0901946 -1.96274e-22)
(0.791191 -0.0653651 0)
(0.832048 -0.214663 0)
(0.838792 -0.284722 0)
(0.8138 -0.339636 -8.0404e-23)
(0.789433 -0.37019 2.0272e-23)
(0.779115 -0.243046 -7.13299e-23)
(0.796293 -0.171916 0)
(0.805653 0.071975 0)
(0.805004 0.186687 4.17081e-23)
(0.792501 0.28683 9.22131e-23)
(0.795368 0.387323 0)
(0.78567 0.122437 0)
(0.216277 -0.27525 -2.20279e-21)
(0.23202 -0.344563 -7.54695e-20)
(0.244651 -0.411505 6.50402e-20)
(0.253813 -0.470673 -6.08336e-20)
(0.256437 -0.518938 -3.97091e-22)
(0.250652 -0.554875 0)
(0.235238 -0.578384 -3.47032e-20)
(0.21004 -0.590528 3.39252e-20)
(0.177648 -0.59123 2.11474e-22)
(0.144816 -0.576241 3.22029e-22)
(0.121624 -0.537638 2.80704e-22)
(0.116684 -0.466677 3.35187e-22)
(0.134926 -0.359621 -1.89619e-20)
(0.174869 -0.221025 1.8761e-20)
(0.231775 -0.062396 0)
(0.300056 0.100859 4.5581e-22)
(0.373577 0.252466 -1.3915e-20)
(0.446056 0.375971 1.37378e-20)
(0.511449 0.462222 0)
(0.565526 0.511029 0)
(0.605633 0.531494 -8.20005e-21)
(0.62793 0.541669 1.632e-20)
(0.629714 0.558478 -1.66618e-20)
(0.617488 0.57762 -1.29528e-21)
(0.609589 0.564922 2.1572e-20)
(0.625388 0.478313 -2.6349e-20)
(0.669221 0.305062 2.85774e-20)
(0.730949 0.0757467 -6.01772e-22)
(0.793572 -0.15103 -1.52281e-20)
(0.843219 -0.323112 0)
(0.87181 -0.420877 0)
(0.879731 -0.458831 2.33081e-21)
(0.872734 -0.45779 -3.14952e-21)
(0.858402 -0.440811 -6.91527e-24)
(0.832242 -0.430765 1.7602e-21)
(0.785736 -0.433011 -1.71068e-21)
(0.727069 -0.417962 0)
(0.68069 -0.335295 2.69521e-22)
(0.66844 -0.185941 2.50211e-21)
(0.690323 0.00170695 -4.68381e-21)
(0.735187 0.15786 1.98372e-21)
(0.785787 0.276295 1.64538e-22)
(0.822924 0.349551 -1.67094e-21)
(0.824617 0.411043 1.30367e-21)
(0.797229 0.448612 3.32044e-22)
(0.763928 0.409936 3.88489e-22)
(0.749988 0.29735 -4.22167e-22)
(0.770787 0.0855212 0)
(0.80193 -0.0742064 0)
(0.842861 -0.219883 -1.24077e-21)
(0.848394 -0.282701 5.59868e-22)
(0.822837 -0.333085 -3.83803e-22)
(0.796822 -0.366537 4.37055e-22)
(0.783228 -0.244194 4.56621e-22)
(0.799366 -0.175291 -1.31466e-22)
(0.80338 0.0708352 1.89249e-22)
(0.803198 0.187464 -1.58873e-22)
(0.789498 0.287557 5.16702e-23)
(0.793584 0.387846 0)
(0.786925 0.123446 0)
(0.384993 -0.281389 -1.60003e-19)
(0.402164 -0.351351 1.03546e-20)
(0.414571 -0.416602 1.42295e-19)
(0.422013 -0.472061 -9.45608e-22)
(0.42182 -0.515072 0)
(0.412429 -0.543851 0)
(0.392548 -0.558388 -6.72674e-20)
(0.360673 -0.561357 1.06237e-20)
(0.316494 -0.556569 7.42884e-20)
(0.263132 -0.544723 -3.52866e-21)
(0.209587 -0.520382 -1.76546e-20)
(0.168079 -0.472651 -1.37824e-20)
(0.149863 -0.391168 1.37652e-20)
(0.159714 -0.273364 0)
(0.195624 -0.127499 -1.30231e-20)
(0.252177 0.030401 1.18715e-20)
(0.321291 0.182863 0)
(0.39485 0.313393 0)
(0.466089 0.411217 7.91825e-21)
(0.528994 0.473833 -4.6058e-22)
(0.578238 0.508711 -6.79288e-21)
(0.608504 0.532555 -7.84405e-21)
(0.618447 0.559494 7.86021e-21)
(0.617387 0.581988 -1.04501e-20)
(0.624438 0.565567 -2.13112e-21)
(0.656 0.472052 1.19944e-20)
(0.71242 0.292828 1.93665e-21)
(0.782012 0.0601662 -1.9252e-23)
(0.846688 -0.166449 0)
(0.892147 -0.335012 1.17682e-20)
(0.912614 -0.426642 -1.20669e-20)
(0.911358 -0.458439 4.63215e-22)
(0.8951 -0.453584 0)
(0.873239 -0.433023 -2.66654e-22)
(0.843551 -0.416626 3.2521e-21)
(0.796055 -0.412691 -5.86069e-21)
(0.734583 -0.398977 -6.32878e-22)
(0.681166 -0.327223 -4.64342e-22)
(0.66209 -0.192665 3.09511e-21)
(0.679796 -0.015868 5.0272e-22)
(0.725912 0.136108 -3.09045e-21)
(0.779024 0.258255 2.62883e-21)
(0.819755 0.341137 2.69485e-23)
(0.824193 0.413326 1.31105e-21)
(0.801049 0.457699 -1.60785e-21)
(0.773608 0.418676 -2.98091e-21)
(0.763586 0.30068 7.47464e-22)
(0.786652 0.0824153 1.8665e-21)
(0.815067 -0.0817061 -3.37795e-21)
(0.855327 -0.224412 2.18711e-21)
(0.859483 -0.28039 -3.91329e-22)
(0.833189 -0.326056 5.87906e-22)
(0.805117 -0.362569 3.66058e-22)
(0.788122 -0.245146 -6.24139e-22)
(0.80358 -0.178478 -2.97921e-24)
(0.802464 0.0697185 -1.36114e-22)
(0.802647 0.18826 0)
(0.787434 0.288083 -6.81309e-23)
(0.792781 0.388054 1.06739e-22)
(0.789278 0.124322 0)
(0.558921 -0.283944 1.61686e-19)
(0.575162 -0.352754 -3.07419e-19)
(0.587117 -0.415199 1.43775e-19)
(0.592063 -0.466617 1.15822e-19)
(0.587406 -0.505206 -2.11452e-19)
(0.572921 -0.528919 1.53285e-20)
(0.548523 -0.536844 7.89723e-20)
(0.513384 -0.530888 5.04076e-20)
(0.466242 -0.515937 -4.93542e-20)
(0.406272 -0.497505 0)
(0.336661 -0.476874 -2.32862e-20)
(0.267114 -0.446605 4.1996e-20)
(0.212363 -0.393132 -1.89325e-20)
(0.185334 -0.30521 0)
(0.190909 -0.182633 0)
(0.226747 -0.0374787 3.27085e-22)
(0.28485 0.110769 -1.46746e-20)
(0.354858 0.245278 1.42562e-20)
(0.427901 0.352989 0)
(0.49596 0.428986 1.17772e-20)
(0.551567 0.478675 -2.32756e-20)
(0.588717 0.516243 2.54021e-20)
(0.607405 0.552556 -2.97811e-20)
(0.618659 0.577931 -4.06387e-21)
(0.641014 0.559421 4.42172e-20)
(0.687376 0.462894 -2.45761e-20)
(0.755227 0.28214 -9.86235e-22)
(0.832343 0.0495707 -1.55937e-20)
(0.899437 -0.175775 1.28323e-21)
(0.94106 -0.340581 1.44511e-20)
(0.953392 -0.426929 6.41118e-22)
(0.943214 -0.453779 -6.61978e-21)
(0.91842 -0.446313 1.12975e-20)
(0.889392 -0.423819 -5.23075e-21)
(0.856332 -0.402651 0)
(0.808678 -0.392765 -3.04044e-21)
(0.746042 -0.379413 2.95717e-21)
(0.686775 -0.318072 -2.70575e-21)
(0.660765 -0.199046 3.37215e-21)
(0.673383 -0.034533 -3.54922e-22)
(0.719666 0.112587 0)
(0.774339 0.238258 -2.86483e-22)
(0.818184 0.330823 8.61831e-22)
(0.825581 0.413654 0)
(0.807044 0.465192 3.75794e-21)
(0.785776 0.426722 -1.32319e-21)
(0.779849 0.304777 9.82402e-22)
(0.804988 0.0810554 1.08262e-21)
(0.830421 -0.0876845 0)
(0.869268 -0.228147 0)
(0.871879 -0.277764 -1.41821e-21)
(0.844745 -0.318487 1.91499e-21)
(0.814192 -0.358174 -8.87743e-22)
(0.793606 -0.245903 2.13952e-22)
(0.808772 -0.181542 3.24634e-22)
(0.802823 0.0685975 1.36244e-22)
(0.803306 0.189114 -1.86726e-22)
(0.786294 0.288435 0)
(0.79298 0.387931 -1.65466e-22)
(0.792754 0.125055 -5.94902e-23)
(0.733159 -0.283868 1.5989e-19)
(0.74597 -0.348674 -1.5923e-19)
(0.755712 -0.405832 1.09454e-21)
(0.7566 -0.452072 -9.32572e-22)
(0.745984 -0.486315 8.28205e-22)
(0.724854 -0.506339 -6.89119e-22)
(0.69419 -0.510845 1.07547e-21)
(0.654457 -0.500621 0)
(0.605881 -0.478716 -6.24244e-22)
(0.547344 -0.450778 4.44744e-22)
(0.477237 -0.423249 3.00892e-22)
(0.397557 -0.397097 -2.74537e-22)
(0.318338 -0.363352 0)
(0.255923 -0.306692 0)
(0.224485 -0.216532 7.02523e-23)
(0.229277 -0.0951956 0)
(0.26671 0.0413343 -7.16846e-23)
(0.326308 0.174738 0)
(0.395958 0.28931 -7.32825e-21)
(0.465106 0.377304 1.50126e-20)
(0.524493 0.44134 -1.69818e-20)
(0.567715 0.492065 9.10355e-21)
(0.595679 0.536955 1.42937e-20)
(0.620008 0.565251 -1.38805e-20)
(0.657501 0.546711 -2.41215e-20)
(0.71738 0.451099 2.36096e-20)
(0.795663 0.27305 0)
(0.880238 0.0429407 1.03112e-21)
(0.95043 -0.179415 0)
(0.988944 -0.340069 0)
(0.99344 -0.422051 1.69598e-20)
(0.974742 -0.445277 -1.77176e-20)
(0.942292 -0.436273 6.74282e-22)
(0.906615 -0.413275 5.09107e-22)
(0.870256 -0.389043 -3.64394e-22)
(0.823026 -0.373728 -2.34484e-21)
(0.760841 -0.359692 2.27691e-21)
(0.697245 -0.307676 -2.79994e-21)
(0.664465 -0.204613 2.40424e-21)
(0.67107 -0.0535373 6.46518e-22)
(0.716264 0.0876822 -2.26568e-21)
(0.771482 0.216324 -1.53544e-22)
(0.817952 0.318351 1.53309e-21)
(0.828516 0.411674 0)
(0.814827 0.470834 -1.3564e-21)
(0.799922 0.43399 3.05634e-21)
(0.798218 0.309593 -3.79698e-21)
(0.825373 0.0815062 -1.0895e-21)
(0.847772 -0.0919647 0)
(0.88448 -0.230984 5.31304e-22)
(0.885371 -0.274837 -1.25612e-21)
(0.857376 -0.310343 -5.71078e-24)
(0.82395 -0.35321 -2.22082e-22)
(0.799505 -0.246458 2.27375e-22)
(0.814759 -0.184555 -2.68123e-22)
(0.80435 0.067429 0)
(0.805119 0.19005 1.86813e-22)
(0.786059 0.288636 0)
(0.794198 0.387452 0)
(0.797375 0.12563 7.2677e-23)
(0.901115 -0.279034 -1.55378e-19)
(0.90691 -0.33772 1.53735e-19)