/*--------------------------------*- C++ -*----------------------------------*\
| =========                 |                                                 |
| \\      /  F ield         | OpenFOAM: The Open Source CFD Toolbox           |
|  \\    /   O peration     | Version:  2512                                  |
|   \\  /    A nd           | Website:  www.openfoam.com                      |
|    \\/     M anipulation  |                                                 |
\*---------------------------------------------------------------------------*/
FoamFile
{
    version     2.0;
    format      ascii;
    arch        "LSB;label=32;scalar=64";
    class       volVectorField;
    location    "113";
    object      U;
}
// * * * * * * * * * * * * * * * * * * * * * * * * * * * * * * * * * * * * * //

dimensions      [0 1 -1 0 0 0 0];

internalField   nonuniform List<vector> 
13248
(
(-0.0107827 0.00974222 7.02333e-20)
(-0.0176695 0.0172771 0)
(-0.0119528 0.0176206 -1.33537e-19)
(0.00559898 0.0137936 1.25796e-19)
(0.0347412 0.00791681 1.18067e-19)
(0.0753816 0.00148978 0)
(0.127367 -0.00442395 0)
(0.190283 -0.00907033 2.81684e-19)
(0.263282 -0.01192 -3.3395e-21)
(0.344975 -0.0126289 -2.42425e-19)
(0.433417 -0.0110281 2.18342e-19)
(0.526178 -0.00712435 -1.35987e-19)
(0.620508 -0.00109699 0)
(0.713547 0.00671714 -2.15444e-19)
(0.802558 0.0158541 3.9601e-19)
(0.885131 0.0257653 -9.31456e-20)
(0.959349 0.03587 -1.55403e-19)
(1.02389 0.0455928 1.45886e-19)
(1.07806 0.0544585 0)
(1.12178 0.0619254 0)
(1.15558 0.0680706 0)
(1.18009 0.0715384 0)
(1.19747 0.0750257 4.03825e-20)
(1.20729 0.0718342 1.43724e-19)
(-0.0105287 0.00878205 -2.12247e-19)
(-0.0133091 0.0147245 1.45101e-19)
(0.000541651 0.0144999 -1.01144e-21)
(0.0296796 0.0108106 -1.92131e-19)
(0.073397 0.00571538 -1.17936e-19)
(0.131105 0.000769039 -1.11298e-19)
(0.201963 -0.00292032 -2.03677e-19)
(0.284621 -0.00460426 1.92382e-19)
(0.377038 -0.00383919 0)
(0.476453 -0.00046486 2.0667e-21)
(0.579504 0.00540965 4.50089e-21)
(0.682498 0.0134327 1.36201e-19)
(0.781746 0.0230586 0)
(0.873913 0.0336165 0)
(0.956308 0.0443908 1.43815e-19)
(1.02708 0.0546997 -2.69797e-19)
(1.0853 0.0639623 1.54576e-19)
(1.13094 0.0717415 -1.4512e-19)
(1.16475 0.0777739 -6.27355e-20)
(1.18812 0.0819252 -1.09916e-19)
(1.20274 0.0843266 -4.48021e-20)
(1.21079 0.0847273 -8.30843e-20)
(1.21352 0.0846126 1.24108e-19)
(1.21368 0.0804328 3.55281e-20)
(-0.00903804 0.00705138 0)
(-0.00510566 0.0103357 0)
(0.0195811 0.00912913 6.7984e-20)
(0.0630821 0.0057617 6.27614e-20)
(0.124073 0.00215691 -1.50452e-21)
(0.201149 -0.000167212 -1.1436e-19)
(0.292315 -0.00019345 0)
(0.394718 0.00263322 -9.53285e-20)
(0.504597 0.00844151 8.84841e-20)
(0.617475 0.0169671 3.85061e-22)
(0.728561 0.0276158 -1.47358e-19)
(0.833267 0.0395644 -1.31478e-19)
(0.927705 0.0518893 4.79963e-21)
(1.00906 0.0636965 -1.02021e-19)
(1.07577 0.0742338 2.49578e-19)
(1.12758 0.0829652 0)
(1.16534 0.0896031 -1.52846e-19)
(1.19077 0.0940917 7.42355e-20)
(1.20611 0.0965816 6.26799e-20)
(1.2138 0.0972991 0)
(1.21619 0.0967025 4.98385e-20)
(1.21525 0.0947181 -1.71929e-19)
(1.2123 0.0928299 1.61394e-19)
(1.20957 0.0879165 1.0114e-19)
(-0.00607811 0.00478909 -7.5029e-20)
(0.0076815 0.00480573 -7.7501e-20)
(0.0463436 0.00266472 7.02852e-20)
(0.10721 0.000250363 0)
(0.18801 -0.000752172 0)
(0.286008 0.000978729 -1.93794e-21)
(0.397421 0.00613764 0)
(0.517321 0.014798 -2.8845e-19)
(0.639916 0.0264808 2.66343e-19)
(0.759144 0.040271 -3.26575e-19)
(0.869414 0.0549951 7.36754e-20)
(0.96629 0.0694305 0)
(1.04693 0.0825004 1.17712e-19)
(1.11027 0.0934162 -2.16113e-19)
(1.15684 0.101745 5.11724e-20)
(1.18845 0.107403 1.25742e-19)
(1.20775 0.110591 -8.04147e-21)
(1.21766 0.111693 -1.39635e-19)
(1.22102 0.11117 0)
(1.22026 0.109466 0)
(1.2172 0.107004 -4.77034e-20)
(1.21309 0.103844 4.24185e-20)
(1.20865 0.101014 1.49291e-19)
(1.20454 0.0957784 -1.40149e-19)
(-0.00135193 0.00222348 -7.88269e-20)
(0.0258256 -0.00110119 -7.85567e-20)
(0.0818805 -0.00355944 2.21066e-19)
(0.163023 -0.00386655 -1.34187e-19)
(0.265495 -0.000768707 1.26307e-19)
(0.384537 0.00659352 2.29108e-19)
(0.513942 0.018252 -1.61392e-19)
(0.6464 0.0334545 -1.94064e-19)
(0.774344 0.0508711 5.39806e-21)
(0.890991 0.0688813 2.46434e-19)
(0.991259 0.0858943 0)
(1.0723 0.100624 6.60009e-20)
(1.13356 0.112258 0)
(1.17644 0.1205 -1.0395e-19)
(1.20368 0.125501 1.45569e-19)
(1.21871 0.12772 9.12713e-22)
(1.22498 0.127768 -3.72053e-20)
(1.22553 0.126258 6.78177e-20)
(1.22273 0.12372 5.86909e-20)
(1.21824 0.120544 -5.21057e-20)
(1.21308 0.117008 4.76922e-20)
(1.20782 0.113151 -4.24082e-20)
(1.20265 0.10958 0)
(1.19808 0.10418 -3.23618e-20)
(0.00548268 -0.000401914 7.88157e-20)
(0.0500353 -0.00654129 8.25121e-20)
(0.126884 -0.00809676 -7.4008e-20)
(0.230646 -0.00466663 1.37581e-19)
(0.355358 0.00424333 -1.29495e-19)
(0.493524 0.0186354 1.16614e-19)
(0.636168 0.0374773 -5.59745e-20)
(0.773923 0.0589209 1.45921e-19)
(0.8985 0.0807642 -9.14853e-20)
(1.00393 0.100933 1.59386e-19)
(1.0872 0.117863 -3.65953e-19)
(1.14823 0.130694 1.3382e-19)
(1.18923 0.139271 -1.14459e-19)
(1.21383 0.14399 1.07511e-19)
(1.22614 0.145569 9.06363e-20)
(1.23005 0.14483 7.8012e-20)
(1.22874 0.142526 -2.17457e-19)
(1.22455 0.139251 1.34195e-19)
(1.21901 0.135419 -5.8693e-20)
(1.21304 0.131287 1.51889e-19)
(1.20711 0.126999 -4.9086e-20)
(1.20143 0.122592 -1.18008e-19)
(1.19608 0.11838 1.08693e-19)
(1.19118 0.112873 3.23517e-20)
(0.0147593 -0.0027954 0)
(0.0808082 -0.0105778 5.89193e-22)
(0.18145 -0.00946123 1.53961e-19)
(0.30908 -0.000360589 -1.44509e-19)
(0.454779 0.0159788 -1.29944e-19)
(0.607872 0.0382262 2.4116e-19)
(0.756916 0.0639633 -1.11828e-19)
(0.891652 0.090236 1.47852e-19)
(1.00477 0.114299 -3.79387e-21)
(1.09277 0.134166 -8.31107e-20)
(1.15585 0.148852 1.78595e-19)
(1.19693 0.158313 -2.62659e-19)
(1.22046 0.163184 0)
(1.23126 0.164449 -5.04772e-20)
(1.23364 0.163148 -1.32889e-19)
(1.231 0.16018 4.20696e-20)
(1.22573 0.156223 1.9075e-21)
(1.21931 0.151729 -8.84317e-20)
(1.21261 0.146972 6.57509e-21)
(1.20607 0.142101 1.01814e-19)
(1.19986 0.13719 -4.46005e-20)
(1.19404 0.132276 -1.68253e-20)
(1.18855 0.127464 5.22861e-20)
(1.18345 0.121866 0)
(0.0267306 -0.00459494 0)
(0.118269 -0.012182 4.17476e-20)
(0.244878 -0.00620295 -2.00656e-19)
(0.396089 0.0105353 7.28059e-20)
(0.559487 0.035464 -6.85224e-20)
(0.721392 0.0655016 -6.23042e-20)
(0.869051 0.0967946 -1.09679e-19)
(0.993129 0.125655 5.50428e-20)
(1.08907 0.149424 4.75608e-20)
(1.15696 0.166825 0)
(1.2003 0.177848 1.05974e-19)
(1.22436 0.183355 -1.56579e-19)
(1.23471 0.184615 1.16255e-19)
(1.23622 0.18292 5.05031e-20)
(1.23262 0.179356 -4.07389e-20)
(1.22644 0.174715 -3.32924e-20)
(1.21923 0.169515 -3.07271e-20)
(1.21185 0.164063 9.3457e-20)
(1.20472 0.158525 0)
(1.198 0.152986 4.58631e-20)
(1.19172 0.147486 3.79487e-20)
(1.18586 0.142047 -9.49279e-20)
(1.18034 0.136656 -6.41074e-20)
(1.17511 0.13094 5.92774e-20)
(0.0414993 -0.00536901 -4.49704e-20)
(0.162038 -0.0102761 -1.59764e-21)
(0.31559 0.00298198 4.07723e-20)
(0.488335 0.0290416 1.13545e-19)
(0.66435 0.0629523 3.27871e-20)
(0.827964 0.099719 -6.34888e-20)
(0.966967 0.134413 5.7981e-20)
(1.07487 0.163317 -5.06061e-20)
(1.15104 0.184566 9.01272e-20)
(1.19929 0.198033 3.79631e-20)
(1.22568 0.20477 -1.07829e-19)
(1.2367 0.206368 3.14926e-20)
(1.23796 0.204436 5.31167e-20)
(1.2337 0.200309 -2.62477e-20)
(1.22673 0.194947 0)
(1.21876 0.188966 3.81159e-20)
(1.21068 0.182727 6.37155e-20)
(1.20292 0.176421 1.03337e-20)
(1.19565 0.170144 -5.26597e-20)
(1.18891 0.163944 2.17445e-20)
(1.18265 0.157844 0)
(1.1768 0.151846 -1.681e-20)
(1.17129 0.145901 -1.57977e-20)
(1.166 0.140003 0)
(0.0589585 -0.00464457 0)
(0.21115 -0.00382662 2.3546e-20)
(0.391166 0.0191111 4.34552e-20)
(0.581727 0.0555976 -1.15599e-19)
(0.764165 0.09796 3.73125e-20)
(0.922583 0.139549 0)
(1.04738 0.17511 5.55868e-20)
(1.13629 0.201715 -7.75173e-20)
(1.19288 0.218831 -4.49573e-20)
(1.22395 0.22761 2.02486e-20)
(1.23705 0.229999 -3.18232e-20)
(1.23882 0.228018 7.75672e-20)
(1.23423 0.223347 3.82686e-20)
(1.22659 0.21719 -2.69175e-20)
(1.21785 0.21031 -2.82631e-21)
(1.20903 0.203147 -7.14222e-20)
(1.20061 0.195933 3.23794e-20)
(1.19276 0.188783 -8.27636e-22)
(1.18551 0.181751 0)
(1.17884 0.174866 -2.17672e-20)
(1.17267 0.168136 0)
(1.16691 0.161543 4.83e-20)
(1.16145 0.155065 -5.71705e-20)
(1.15618 0.148893 2.59436e-20)
(0.0787532 -0.00195004 -1.22333e-20)
(0.264051 0.00804481 -5.90973e-20)
(0.46852 0.0427886 6.71492e-20)
(0.671917 0.0900189 3.93517e-20)
(0.854371 0.139419 -1.88353e-20)
(1.00191 0.183411 3.14072e-20)
(1.10922 0.217366 -1.52978e-20)
(1.17877 0.239841 2.52712e-20)
(1.21777 0.251866 0)
(1.23497 0.255745 5.65027e-20)
(1.23833 0.254021 -2.54169e-21)
(1.23391 0.248858 -4.51969e-20)
(1.22577 0.241813 1.91615e-20)
(1.21629 0.233878 -2.13643e-20)
(1.2067 0.225614 -7.90855e-21)
(1.19755 0.217316 9.37283e-21)
(1.18907 0.209123 -7.07762e-21)
(1.18129 0.201103 -3.8084e-20)
(1.17418 0.193285 2.32903e-20)
(1.16766 0.185685 4.68571e-21)
(1.16165 0.178296 4.08704e-21)
(1.15603 0.171089 3.56596e-21)
(1.1507 0.164106 0)
(1.14549 0.157543 0)
(0.100341 0.00314729 1.22417e-20)
(0.318803 0.0259712 -1.22323e-20)
(0.544341 0.074122 -2.2351e-20)
(0.754934 0.131541 0)
(0.931604 0.185896 -9.33425e-21)
(1.06431 0.229752 -8.36404e-21)
(1.15296 0.260012 -1.42626e-20)
(1.20447 0.277128 0)
(1.22874 0.283648 0)
(1.23538 0.282743 0)
(1.23197 0.277244 0)
(1.22366 0.269238 0)
(1.21352 0.260061 -1.19782e-20)
(1.20314 0.250473 5.43862e-21)
(1.19324 0.240862 9.35548e-21)
(1.18409 0.231411 4.36158e-21)
(1.17575 0.222202 1.06381e-20)
(1.16817 0.213267 0)
(1.1613 0.204623 -2.48123e-21)
(1.15505 0.196272 -2.36366e-21)
(1.1493 0.188194 -4.09355e-21)
(1.14393 0.180366 -3.57166e-21)
(1.13882 0.172897 0)
(1.13381 0.165827 2.4835e-21)
(0.000206052 -0.0452052 9.01071e-21)
(-0.00311219 -0.105895 -9.35232e-21)
(-0.0120869 -0.145113 -1.76995e-20)
(-0.0244692 -0.168107 0)
(-0.0387767 -0.17944 -2.37911e-20)
(-0.0541144 -0.182916 7.5455e-21)
(-0.0698297 -0.181425 -1.4054e-20)
(-0.0854665 -0.176912 0)
(-0.100733 -0.170479 0)
(-0.115446 -0.162569 0)
(-0.129481 -0.153161 0)
(-0.14274 -0.141965 0)
(-0.155127 -0.128565 3.22863e-22)
(-0.166533 -0.112519 -9.63184e-21)
(-0.176835 -0.0934187 1.76017e-20)
(-0.185891 -0.0709325 2.5154e-20)
(-0.193529 -0.0448223 7.40455e-21)
(-0.199501 -0.0149728 0)
(-0.203676 0.0186108 7.11461e-21)
(-0.205969 0.0556712 -1.92307e-20)
(-0.206179 0.0957943 -1.16206e-20)
(-0.204148 0.138396 -1.07151e-20)
(-0.199964 0.18282 0)
(-0.194548 0.228242 0)
(0.0022444 -0.0404292 -2.67998e-20)
(0.000730392 -0.0943551 4.64189e-20)
(-0.00842665 -0.128983 -1.71004e-20)
(-0.0219494 -0.149002 -3.29491e-20)
(-0.0377884 -0.158574 4.67896e-20)
(-0.0547638 -0.161179 -2.93279e-20)
(-0.0720715 -0.159433 4.16375e-20)
(-0.089191 -0.15508 2.56242e-20)
(-0.105822 -0.149088 0)
(-0.121797 -0.141829 -2.36337e-20)
(-0.137019 -0.133258 -6.40269e-23)
(-0.151409 -0.123094 2.098e-20)
(-0.164878 -0.110949 2.86357e-20)
(-0.177317 -0.0964217 3.61012e-20)
(-0.188586 -0.0791463 -1.76977e-20)
(-0.198505 -0.0588287 -4.825e-20)
(-0.206865 -0.0352648 1.39169e-20)
(-0.213408 -0.00834112 -5.37012e-20)
(-0.217916 0.0218482 0)
(-0.220212 0.0551617 1.25368e-20)
(-0.220042 0.0913018 1.16064e-20)
(-0.217067 0.129841 1.07017e-20)
(-0.211182 0.17036 0)
(-0.204267 0.212431 0)
(0.00361074 -0.0345046 0)
(0.00329663 -0.080608 8.94217e-20)
(-0.00593322 -0.110393 -3.38293e-20)
(-0.0200575 -0.12763 3.24354e-20)
(-0.0366101 -0.135839 -9.01771e-20)
(-0.0541939 -0.138022 0)
(-0.0718845 -0.136445 -5.35419e-20)
(-0.0891044 -0.132613 2.47594e-20)
(-0.105535 -0.127363 -4.65466e-20)
(-0.121014 -0.121009 2.09363e-20)
(-0.135451 -0.113505 1.23745e-19)
(-0.148775 -0.104601 -5.80268e-20)
(-0.160901 -0.0939556 -9.10209e-20)
(-0.171713 -0.0812161 -3.21564e-20)
(-0.181059 -0.0660699 7.82487e-22)
(-0.188746 -0.0482699 1.16295e-19)
(-0.194515 -0.0276468 -5.41756e-20)
(-0.19813 -0.00414259 2.53604e-21)
(-0.199342 0.0221788 0)
(-0.197864 0.0512103 -3.89734e-20)
(-0.193437 0.0827458 0)
(-0.185591 0.116521 -3.52274e-20)
(-0.173703 0.152264 1.23628e-19)
(-0.159922 0.189809 -1.59933e-21)
(0.00418692 -0.0278939 0)
(0.00436196 -0.0656184 -7.51269e-22)
(-0.00488241 -0.0905342 3.27944e-20)
(-0.0191085 -0.105264 -3.09015e-20)
(-0.0356094 -0.11252 2.98039e-20)
(-0.0528533 -0.11473 1.65678e-19)
(-0.0698338 -0.113754 -5.21163e-20)
(-0.0859271 -0.110838 -4.82585e-20)
(-0.100791 -0.106683 9.16465e-20)
(-0.114253 -0.101552 -1.2876e-19)
(-0.126218 -0.0954107 3.93538e-20)
(-0.136612 -0.0880456 3.63523e-20)
(-0.145349 -0.0791682 0)
(-0.152311 -0.0684817 3.27935e-20)
(-0.157341 -0.0557256 0)
(-0.16024 -0.0406998 5.19528e-20)
(-0.160783 -0.0232851 -9.67451e-20)
(-0.158721 -0.00347198 2.64808e-20)
(-0.153771 0.0187073 8.24786e-20)
(-0.145646 0.0431336 3.89342e-20)
(-0.134118 0.06965 0)
(-0.118856 0.098147 -8.93252e-20)
(-0.0987548 0.128775 2.93616e-20)
(-0.0738921 0.16211 0)
(0.00393528 -0.0210294 0)
(0.00384634 -0.0502689 -1.03314e-19)
(-0.00540556 -0.0704684 -3.25093e-20)
(-0.0192977 -0.083003 -6.12971e-20)
(-0.0350654 -0.0896996 5.77223e-20)
(-0.0511335 -0.0923609 -5.48304e-20)
(-0.0664609 -0.0924119 1.01549e-19)
(-0.0803956 -0.0908276 4.76769e-20)
(-0.0925738 -0.0881637 -1.34397e-19)
(-0.102806 -0.0846345 8.23702e-20)
(-0.110985 -0.0802117 -1.15846e-19)
(-0.117034 -0.074722 2.46556e-19)
(-0.120865 -0.0679267 -1.32542e-19)
(-0.122365 -0.0595801 5.89866e-20)
(-0.121389 -0.0494677 1.62268e-19)
(-0.117761 -0.0374317 -5.52988e-20)
(-0.11128 -0.023391 -4.74757e-20)
(-0.101722 -0.00733636 -4.40682e-20)
(-0.088835 0.0106626 0)
(-0.0723569 0.0304625 -6.38587e-20)
(-0.0520642 0.0518736 -5.36012e-20)
(-0.0276629 0.0748039 8.19211e-20)
(0.0020934 0.0997288 9.22901e-20)
(0.0382916 0.128015 -8.42469e-20)
(0.00289269 -0.0142815 0)
(0.00182135 -0.0353106 -1.35114e-19)
(-0.00744426 -0.0510819 1.867e-22)
(-0.0206011 -0.0617372 1.20761e-19)
(-0.035001 -0.0682131 0)
(-0.0491185 -0.0716777 0)
(-0.0619302 -0.0731163 0)
(-0.0727819 -0.0732273 -4.65994e-20)
(-0.0812968 -0.0724172 9.47736e-22)
(-0.0872697 -0.0708417 8.13378e-20)
(-0.0905836 -0.0684712 -1.12015e-19)
(-0.0911553 -0.065162 1.06675e-21)
(-0.0889024 -0.0607164 0)
(-0.083728 -0.0549296 -5.89612e-20)
(-0.075514 -0.047622 4.91336e-20)
(-0.0641225 -0.0386626 -1.42958e-19)
(-0.0493994 -0.0279834 1.68653e-19)
(-0.0311773 -0.015588 3.08007e-20)
(-0.00926784 -0.00155846 -7.52337e-21)
(0.0165259 0.0139377 -1.23598e-19)
(0.046376 0.0306487 -5.1299e-20)
(0.0804595 0.0483118 1.60581e-19)
(0.119414 0.067124 -1.03315e-19)
(0.168825 0.0886025 0)
(0.00116415 -0.00795786 6.44695e-20)
(-0.00148247 -0.021366 6.73454e-20)
(-0.0107044 -0.0330944 -6.345e-20)
(-0.0226782 -0.042156 -1.1976e-19)
(-0.0350234 -0.0486511 1.12773e-19)
(-0.0463474 -0.0531402 -1.0544e-19)
(-0.0556936 -0.056183 1.4853e-19)
(-0.0624299 -0.0582049 -4.62204e-20)
(-0.0661757 -0.0594576 8.62606e-20)
(-0.0667108 -0.0600258 0)
(-0.0639045 -0.0598631 7.08508e-20)
(-0.057667 -0.0588381 -1.34787e-19)
(-0.0479227 -0.056777 1.20937e-19)
(-0.0345958 -0.0534998 -1.13586e-19)
(-0.0176059 -0.0488468 0)
(0.00313199 -0.042699 9.11409e-20)
(0.0277056 -0.0349928 1.56524e-19)
(0.0561999 -0.0257329 -1.48409e-19)
(0.0886999 -0.0150013 -6.28335e-20)
(0.125291 -0.00296722 -5.38504e-20)
(0.16601 0.0101025 1.53816e-19)
(0.211326 0.0238764 3.96308e-20)
(0.258692 0.0379568 -3.96954e-20)
(0.324996 0.0532595 3.35995e-20)
(-0.00108013 -0.00231654 -6.44782e-20)
(-0.00567213 -0.00895684 2.01328e-19)
(-0.0146343 -0.0170984 -6.30549e-20)
(-0.0248251 -0.0248014 1.19386e-19)
(-0.0342463 -0.03143 -1.12419e-19)
(-0.0416982 -0.0369906 3.82522e-22)
(-0.0463261 -0.0416442 4.94019e-20)
(-0.0475332 -0.0455563 1.81778e-19)
(-0.0449346 -0.0488175 -2.52827e-21)
(-0.0382898 -0.051426 -8.01108e-20)
(-0.0274468 -0.0532975 0)
(-0.012307 -0.0542897 -6.38174e-20)
(0.00719402 -0.0542313 1.22649e-19)
(0.031095 -0.052948 1.0726e-19)
(0.0594099 -0.0502857 -5.16771e-20)
(0.0921269 -0.0461288 -8.44371e-22)
(0.129207 -0.0404164 -3.99758e-20)
(0.170581 -0.0331556 6.95042e-20)
(0.21615 -0.0244305 6.28174e-20)
(0.265831 -0.0143957 -5.53921e-20)
(0.319068 -0.00340294 4.79219e-20)
(0.377953 0.00856983 -4.23273e-20)
(0.432467 0.0201537 0)
(0.518921 0.0326474 -3.35558e-20)
(-0.003606 0.00241858 6.4816e-20)
(-0.0101971 0.001459 -6.7134e-20)
(-0.0184391 -0.00361824 6.38276e-20)
(-0.0260017 -0.010151 0)
(-0.0313377 -0.0169011 0)
(-0.0334694 -0.0233921 1.05311e-19)
(-0.0316555 -0.0294371 -9.8792e-20)
(-0.025346 -0.0349502 9.02752e-20)
(-0.0141474 -0.0398563 -4.24348e-19)
(0.00219793 -0.0440529 1.24727e-21)
(0.0238473 -0.0473973 7.20635e-20)
(0.0508742 -0.0497154 0)
(0.0832733 -0.0508205 -1.17679e-19)
(0.12096 -0.0505343 2.16734e-19)
(0.163768 -0.0487072 -1.48783e-19)
(0.211449 -0.0452368 -2.14325e-19)
(0.263678 -0.0400845 8.39565e-21)
(0.320057 -0.0332868 1.41989e-19)
(0.380105 -0.0249747 0)
(0.443524 -0.0152712 0)
(0.508523 -0.00484253 -4.79132e-20)
(0.579843 0.00712913 4.23192e-20)
(0.638387 0.0176822 -1.47735e-19)
(0.739206 0.030756 1.38588e-19)
(-0.00613327 0.00606388 0)
(-0.0143914 0.00948946 0)
(-0.0211469 0.00687632 -1.91991e-19)
(-0.0249318 0.00134203 6.08849e-20)
(-0.0246721 -0.00542832 4.94927e-22)
(-0.0196293 -0.0125702 1.06983e-19)
(-0.00917404 -0.0195916 0)
(0.00719158 -0.0261711 -9.2252e-20)
(0.0298267 -0.0320762 8.50494e-20)
(0.0589488 -0.0370966 -1.55655e-19)
(0.0946277 -0.0410201 1.60123e-21)
(0.136777 -0.0436344 1.29745e-19)
(0.185147 -0.0447399 -4.19759e-21)
(0.239316 -0.0441693 1.01849e-19)
(0.298703 -0.0418076 -1.5051e-19)
(0.362579 -0.0376105 0)
(0.430097 -0.0316171 1.51913e-19)
(0.500331 -0.0239557 -2.11815e-19)
(0.572246 -0.0148773 6.20007e-20)
(0.645196 -0.00453345 0)
(0.716563 0.00612081 4.91822e-20)
(0.791627 0.0183318 1.70053e-19)
(0.849566 0.0280872 -1.59585e-19)
(0.94606 0.0416853 -1.76738e-19)
(-0.00836033 0.00850164 1.99307e-19)
(-0.0175276 0.0148495 -2.7507e-19)
(-0.021705 0.0140062 1.48307e-22)
(-0.0202576 0.00927405 6.14208e-20)
(-0.0125726 0.00262282 -1.14972e-19)
(0.00185071 -0.00478718 -1.06479e-19)
(0.0234915 -0.0122037 1.98171e-19)
(0.0527397 -0.0191119 -3.22792e-21)
(0.0898152 -0.0251366 -1.72822e-19)
(0.134731 -0.029968 3.14317e-19)
(0.187253 -0.0333373 -4.13752e-21)
(0.246868 -0.0350171 -1.34383e-19)
(0.312782 -0.0348345 0)
(0.383936 -0.0326892 0)
(0.45905 -0.0285709 -4.88962e-20)
(0.536692 -0.0225711 -8.81898e-20)
(0.615351 -0.0148855 -1.53317e-19)
(0.69352 -0.00581238 1.43911e-19)
(0.769741 0.00426292 -6.20189e-20)
(0.842874 0.0149503 1.08712e-19)
(0.911026 0.0255177 -5.39835e-20)
(0.97654 0.0364138 8.37474e-20)
(1.02733 0.0448021 -2.0483e-19)
(1.09877 0.0559126 3.57204e-20)
(-0.00999473 0.00970162 6.72609e-20)
(-0.0188645 0.0174149 0)
(-0.0190268 0.0175707 1.31459e-19)
(-0.010596 0.0134189 -1.23843e-19)
(0.00661076 0.00706278 1.15071e-19)
(0.0328387 -0.000128142 0)
(0.0683356 -0.00721153 0)
(0.113227 -0.0135262 -9.23234e-20)
(0.16738 -0.0185853 3.14438e-21)
(0.230313 -0.0220185 8.15063e-20)
(0.301143 -0.0235531 -7.11792e-20)
(0.378568 -0.0230166 1.35225e-19)
(0.460914 -0.0203484 0)
(0.546221 -0.0156111 2.14631e-19)
(0.632374 -0.00899373 -3.9454e-19)
(0.717235 -0.000804703 2.69449e-19)
(0.798794 0.00855027 1.54766e-19)
(0.87527 0.0185793 -1.45279e-19)
(0.945234 0.0288052 0)
(1.00758 0.0385843 0)
(1.06175 0.0477152 0)
(1.10768 0.0552689 0)
(1.1436 0.0614425 4.06189e-20)
(1.18114 0.0666991 -1.48037e-19)
(-0.188286 0.280757 -6.55688e-21)
(-0.177765 0.342649 6.57679e-21)
(-0.163134 0.401873 -1.74475e-22)
(-0.144779 0.454804 0)
(-0.121819 0.497649 -4.95838e-21)
(-0.0929081 0.526372 9.46361e-21)
(-0.0562795 0.53656 -8.09714e-23)
(-0.0102198 0.523787 -4.30915e-21)
(0.0461169 0.484159 0)
(0.112109 0.415859 0)
(0.185409 0.320036 -2.8562e-22)
(0.262054 0.200844 -2.89925e-22)
(0.338293 0.0637644 -4.6711e-21)
(0.412054 -0.0857642 4.2599e-21)
(0.482175 -0.238059 0)
(0.546135 -0.377288 0)
(0.599642 -0.485103 2.52565e-21)
(0.638711 -0.550585 -4.67837e-22)
(0.66159 -0.575943 -1.82066e-21)
(0.670137 -0.571616 -8.67188e-23)
(0.66807 -0.551176 0)
(0.654324 -0.532329 0)
(0.623938 -0.528928 0)
(0.580148 -0.531284 0)
(0.541806 -0.500597 0)
(0.532304 -0.396454 0)
(0.558913 -0.216559 6.11567e-22)
(0.610951 -0.0012149 -9.54805e-22)
(0.671948 0.195543 0)
(0.728024 0.339067 0)
(0.769685 0.421482 -4.11956e-22)
(0.796798 0.454135 4.00371e-22)
(0.811651 0.45754 1.47193e-22)
(0.808474 0.46295 0)
(0.780589 0.484022 0)
(0.736865 0.489435 3.2568e-22)
(0.702518 0.426784 -3.16585e-22)
(0.697669 0.267995 0)
(0.71932 0.0609592 4.01846e-22)
(0.75788 -0.139948 -5.86019e-22)
(0.795952 -0.274148 1.56282e-22)
(0.829909 -0.351783 0)
(0.843155 -0.383907 -1.73459e-22)
(0.823175 -0.407973 1.68673e-22)
(0.777479 -0.415906 0)
(0.733398 -0.353152 0)
(0.720562 -0.234277 -8.29805e-23)
(0.745097 -0.0347159 2.30981e-22)
(0.785991 0.104464 0)
(0.819833 0.24414 0)
(0.818603 0.317248 -4.92014e-23)
(0.787855 0.362437 9.56357e-25)
(0.766 0.362821 -9.54002e-25)
(0.768634 0.203662 4.60581e-23)
(0.792823 0.116801 0)
(0.81317 -0.116327 0)
(0.806665 -0.212799 0)
(0.795014 -0.300502 0)
(0.795877 -0.371661 0)
(0.782076 -0.0995204 0)
(-0.199002 0.261812 -5.41229e-22)
(-0.183748 0.319461 -2.18608e-20)
(-0.162256 0.374195 9.03848e-22)
(-0.134492 0.422663 1.96785e-20)
(-0.0993341 0.460223 2.78284e-22)
(-0.0557662 0.483011 0)
(-0.00296499 0.486868 -1.75354e-20)
(0.0593522 0.467771 3.53261e-20)
(0.130389 0.422905 -1.77971e-20)
(0.208126 0.351671 1.90649e-20)
(0.289329 0.255865 -1.82429e-20)
(0.370028 0.13904 1.92657e-20)
(0.44713 0.00547782 -1.87556e-20)
(0.519545 -0.140056 -5.89953e-22)
(0.586303 -0.28805 -1.59437e-20)
(0.643772 -0.421113 1.54935e-20)
(0.68666 -0.519532 -1.08035e-20)
(0.711851 -0.573014 1.02007e-20)
(0.719826 -0.58629 -6.62737e-21)
(0.71393 -0.572505 1.16117e-20)
(0.699516 -0.544657 -5.04496e-21)
(0.677999 -0.51719 -2.44609e-22)
(0.643733 -0.504512 -3.8917e-21)
(0.594617 -0.503672 7.92537e-21)
(0.544389 -0.482307 -4.02657e-21)
(0.517756 -0.397455 2.80548e-22)
(0.529121 -0.237003 5.71301e-21)
(0.572572 -0.0335841 1.27794e-22)
(0.631773 0.160829 -9.8259e-21)
(0.690982 0.309926 8.34129e-21)
(0.739707 0.400968 -3.70743e-21)
(0.776085 0.44184 3.23234e-22)
(0.799443 0.453707 -1.47503e-22)
(0.8018 0.468965 2.72013e-22)
(0.778293 0.498231 0)
(0.741096 0.505036 0)
(0.715245 0.435951 -1.66962e-21)
(0.718346 0.267175 1.16457e-21)
(0.744338 0.0516476 1.27898e-21)
(0.783402 -0.152981 -2.38857e-23)
(0.816457 -0.286597 -1.59844e-21)
(0.844369 -0.359392 2.51394e-22)
(0.852727 -0.382847 0)
(0.830751 -0.397634 0)
(0.78273 -0.402023 0)
(0.734277 -0.344311 0)
(0.718673 -0.236036 2.74403e-22)
(0.740338 -0.0445169 -1.5042e-22)
(0.782363 0.0934563 0)
(0.814505 0.239533 0)
(0.814249 0.320604 0)
(0.78364 0.368695 -9.57641e-23)
(0.762608 0.365386 -9.49194e-24)
(0.768475 0.200548 -8.78915e-23)
(0.794399 0.111873 0)
(0.820058 -0.117424 0)
(0.81235 -0.211406 5.37492e-23)
(0.800724 -0.299072 1.30966e-22)
(0.800456 -0.370472 0)
(0.783934 -0.0982867 0)
(-0.151412 0.235157 -7.3974e-22)
(-0.132234 0.287542 -3.87277e-20)
(-0.104687 0.336649 3.6749e-20)
(-0.0696908 0.379062 -3.44079e-20)
(-0.0264384 0.410886 -2.80186e-22)
(0.0267212 0.428401 0)
(0.0893902 0.427546 -3.58078e-20)
(0.160532 0.404809 3.50953e-20)
(0.238458 0.358206 2.86251e-22)
(0.320514 0.287687 6.10146e-22)
(0.403343 0.195119 6.33567e-22)
(0.483443 0.0835656 6.25159e-22)
(0.558577 -0.0438826 -4.03325e-20)
(0.62822 -0.183386 3.97858e-20)
(0.690854 -0.325337 0)
(0.741214 -0.45084 9.65068e-22)
(0.772877 -0.539654 -2.25816e-20)
(0.783815 -0.582694 2.22428e-20)
(0.777241 -0.586562 0)
(0.758229 -0.56624 0)
(0.73269 -0.534266 -8.78927e-21)
(0.703906 -0.501142 1.6144e-20)
(0.666953 -0.47989 -1.41439e-20)
(0.615358 -0.473933 -1.70739e-22)
(0.556588 -0.459563 1.45576e-20)
(0.514372 -0.394127 -1.66715e-20)
(0.50948 -0.255676 1.7367e-20)
(0.542058 -0.0669282 -4.8605e-22)
(0.597205 0.122924 -8.87829e-21)
(0.657851 0.276352 0)
(0.71262 0.375616 0)
(0.757532 0.425298 1.77326e-21)
(0.788849 0.446746 -2.3256e-21)
(0.796854 0.472496 -4.97907e-24)
(0.778534 0.509992 2.53063e-21)
(0.748567 0.51852 -2.45939e-21)
(0.731094 0.444266 0)
(0.741807 0.26742 4.60184e-22)
(0.771939 0.0452104 4.23685e-21)
(0.81131 -0.16257 -7.71887e-21)
(0.83933 -0.295711 3.07839e-21)
(0.860764 -0.364672 2.70081e-22)
(0.86403 -0.380733 -1.76158e-21)
(0.840304 -0.386819 1.34059e-21)
(0.790668 -0.387865 2.43277e-22)
(0.738402 -0.335415 2.35613e-22)
(0.720114 -0.238307 -2.75093e-22)
(0.738367 -0.0550941 0)
(0.780945 0.0818264 0)
(0.811011 0.234416 -7.82165e-22)
(0.81173 0.323646 3.86045e-22)
(0.781234 0.374712 -3.72512e-22)
(0.760981 0.368011 6.03661e-22)
(0.769913 0.197302 8.39943e-22)
(0.797533 0.106568 -1.73708e-22)
(0.828382 -0.118535 3.5047e-22)
(0.8193 -0.209792 -2.73247e-22)
(0.807309 -0.297321 1.2631e-22)
(0.805819 -0.369034 0)
(0.786674 -0.096947 0)
(-0.0583629 0.202508 -6.86002e-20)
(-0.0372986 0.248222 8.45899e-22)
(-0.00694848 0.291132 6.41784e-20)
(0.0322202 0.32747 -5.2375e-22)
(0.0803419 0.354407 0)
(0.137903 0.36797 0)
(0.204112 0.364233 -7.09052e-20)
(0.277616 0.340307 -6.46622e-21)
(0.356319 0.294717 1.12052e-19)
(0.437425 0.227602 2.32135e-21)
(0.517791 0.1406 -4.05477e-20)
(0.594682 0.0359652 -4.12117e-20)
(0.666795 -0.0840818 4.13157e-20)
(0.733814 -0.216976 0)
(0.792801 -0.352264 -3.4422e-20)
(0.836182 -0.469502 3.14911e-20)
(0.856602 -0.548552 0)
(0.853529 -0.582242 0)
(0.833071 -0.578802 1.3575e-20)
(0.802338 -0.554036 -2.76388e-21)
(0.76715 -0.520324 -9.84631e-21)
(0.731566 -0.484693 -7.14306e-21)
(0.692559 -0.456477 7.08747e-21)
(0.641244 -0.443294 -6.2383e-21)
(0.578074 -0.431953 -3.50277e-22)
(0.522771 -0.38456 6.24398e-21)
(0.500997 -0.270496 9.27168e-22)
(0.520269 -0.099943 1.05325e-22)
(0.568845 0.082865 0)
(0.629113 0.239006 5.88546e-21)
(0.688667 0.3458 -6.02081e-21)
(0.741092 0.404646 2.97434e-22)
(0.779682 0.436394 0)
(0.793438 0.47285 -2.70305e-22)
(0.780939 0.518539 5.20339e-21)
(0.758585 0.529449 -1.06797e-20)
(0.749401 0.451888 -2.31742e-21)
(0.767466 0.269025 -9.43166e-22)
(0.801383 0.0412072 7.02046e-21)
(0.840942 -0.168934 9.00523e-22)
(0.864255 -0.301722 -5.10172e-21)
(0.878963 -0.367826 4.43256e-21)
(0.876892 -0.377857 -1.46916e-25)
(0.85148 -0.375857 1.06222e-21)
(0.800905 -0.373488 -1.27682e-21)
(0.745455 -0.326229 -1.54954e-21)
(0.724609 -0.240755 4.64494e-22)
(0.738953 -0.0662084 8.14383e-22)
(0.781574 0.0696565 -1.55341e-21)
(0.809296 0.228743 1.12694e-21)
(0.811053 0.32631 -3.94689e-22)
(0.780757 0.380473 2.84114e-22)
(0.761315 0.370775 3.75485e-22)
(0.773081 0.194042 -1.34827e-21)
(0.802239 0.100933 1.70019e-23)
(0.838084 -0.119656 -4.14421e-22)
(0.827475 -0.207925 0)
(0.814762 -0.295227 -1.24252e-22)
(0.811911 -0.367342 9.34747e-23)
(0.790229 -0.0955041 0)
(0.0585483 0.16365 6.09722e-20)
(0.082165 0.203893 -1.192e-19)
(0.114095 0.241393 5.75281e-20)
(0.154546 0.272908 5.98655e-20)
(0.203643 0.295702 -1.20544e-19)
(0.261242 0.30626 -4.44209e-21)
(0.326502 0.301233 6.37829e-20)
(0.397999 0.278099 7.3829e-20)
(0.473647 0.235541 -7.23392e-20)
(0.550888 0.173559 0)
(0.62697 0.0932627 -8.49475e-20)
(0.700265 -0.00369536 1.67964e-19)
(0.769906 -0.116204 -8.30232e-20)
(0.834922 -0.241892 0)
(0.890347 -0.368993 0)
(0.926138 -0.476352 9.91841e-22)
(0.934951 -0.545222 -4.67065e-20)
(0.918477 -0.571007 4.53754e-20)
(0.885497 -0.563076 0)
(0.844977 -0.53652 2.15325e-20)
(0.802317 -0.503087 -3.63465e-20)
(0.760952 -0.467702 2.86446e-20)
(0.719967 -0.43542 -2.40255e-20)
(0.670631 -0.414658 5.57919e-22)
(0.60728 -0.402046 2.04585e-20)
(0.54275 -0.368749 -1.02978e-20)
(0.504415 -0.279613 -4.14369e-22)
(0.50808 -0.130764 -5.68246e-21)
(0.5475 0.0418016 2.6333e-22)
(0.605307 0.198491 5.51655e-21)
(0.668015 0.311775 3.06128e-22)
(0.726599 0.379796 -3.96849e-21)
(0.771625 0.422175 7.88964e-21)
(0.791185 0.469315 -4.41173e-21)
(0.784978 0.52327 0)
(0.770451 0.537676 -7.20701e-21)
(0.769357 0.458993 7.19396e-21)
(0.794286 0.272107 -7.62255e-21)
(0.831936 0.0397631 9.49979e-21)
(0.871864 -0.172009 -9.76564e-22)
(0.89081 -0.304503 0)
(0.89868 -0.36867 -5.52521e-22)
(0.891117 -0.374174 1.15888e-21)
(0.864031 -0.364902 0)
(0.813078 -0.359094 2.08838e-21)
(0.755031 -0.316773 -8.39434e-22)
(0.731781 -0.243156 4.08933e-22)
(0.741791 -0.0776562 3.19747e-22)
(0.784032 0.056992 0)
(0.80926 0.222423 0)
(0.81218 0.328481 -1.06864e-21)
(0.782301 0.38594 1.91067e-21)
(0.763772 0.373729 -1.278e-21)
(0.778087 0.190879 5.03302e-22)
(0.808514 0.0950431 9.5223e-22)
(0.849078 -0.120767 4.14812e-22)
(0.836818 -0.205747 -6.35225e-22)
(0.823067 -0.292743 0)
(0.81867 -0.365385 -1.73856e-22)
(0.794528 -0.0939598 1.0751e-23)
(0.191132 0.121623 5.62696e-20)
(0.214757 0.158478 -5.58804e-20)
(0.244847 0.191386 4.4418e-22)
(0.283463 0.21848 -4.18868e-22)
(0.330514 0.237841 4.6059e-22)
(0.385329 0.246556 -4.83394e-22)
(0.446982 0.241551 9.83008e-22)
(0.514207 0.220517 0)
(0.58522 0.182131 -1.13012e-21)
(0.65789 0.125965 1.19908e-21)
(0.730087 0.0523327 1.25655e-21)
(0.800587 -0.0370151 -1.32579e-21)
(0.868566 -0.142166 0)
(0.931733 -0.259608 0)
(0.982365 -0.376517 1.1037e-21)
(1.00901 -0.472406 0)
(1.00576 -0.531185 -7.88552e-22)
(0.977061 -0.550825 0)
(0.933641 -0.541058 -2.65824e-20)
(0.88544 -0.515167 4.68343e-20)
(0.837466 -0.483488 -3.55217e-20)
(0.791713 -0.450045 1.53933e-20)
(0.748566 -0.416543 9.95909e-21)
(0.701699 -0.389405 -9.67204e-21)
(0.641792 -0.372182 -8.41245e-21)
(0.573089 -0.347458 8.18794e-21)
(0.520286 -0.281379 0)
(0.506537 -0.157042 2.46218e-22)
(0.533952 0.00190905 0)
(0.586935 0.155647 0)
(0.650756 0.273876 6.72188e-21)
(0.713836 0.350712 -6.91623e-21)
(0.764347 0.403733 3.98465e-22)
(0.789664 0.461334 4.98719e-22)
(0.789999 0.523705 -5.47473e-22)
(0.783339 0.542985 -6.55228e-21)
(0.790029 0.465596 6.36155e-21)
(0.821407 0.277107 -9.99736e-21)
(0.862743 0.0418474 8.66642e-21)
(0.903273 -0.171759 1.98965e-21)
(0.918501 -0.304109 -5.44065e-21)
(0.9196 -0.367177 8.60366e-22)
(0.906455 -0.369721 2.96372e-21)
(0.877665 -0.354103 0)
(0.826769 -0.344789 -8.01659e-22)
(0.766645 -0.306993 9.78076e-22)
(0.741163 -0.245284 -1.3094e-21)
(0.746505 -0.0892476 -3.21776e-22)
(0.788035 0.0438413 0)
(0.81075 0.215331 3.45381e-22)
(0.815021 0.330006 -5.87624e-22)