/*--------------------------------*- C++ -*----------------------------------*\
| =========                 |                                                 |
| \\      /  F ield         | OpenFOAM: The Open Source CFD Toolbox           |
|  \\    /   O peration     | Version:  2512                                  |
|   \\  /    A nd           | Website:  www.openfoam.com                      |
|    \\/     M anipulation  |                                                 |
\*---------------------------------------------------------------------------*/
FoamFile
{
    version     2.0;
    format      ascii;
    arch        "LSB;label=32;scalar=64";
    class       surfaceScalarField;
    location    "118.75";
    object      phi;
}
// * * * * * * * * * * * * * * * * * * * * * * * * * * * * * * * * * * * * * //

dimensions      [0 3 -1 0 0 0 0];

oriented        oriented;

internalField   nonuniform List<scalar> 
26232
(
8.99704e-05
0.00103413
-0.0011241
0.000632388
0.00183058
-0.00237299
0.00184045
0.00149108
-0.00269914
0.00389759
4.04888e-05
-0.00209763
0.00697756
-0.00252135
-0.000558619
0.0112417
-0.00619561
0.00193145
0.0168288
-0.010973
0.00538587
0.0238318
-0.0168118
0.00980873
0.0322705
-0.023622
0.0151834
0.0420658
-0.0312552
0.0214599
0.0530253
-0.0395044
0.0285448
0.0648451
-0.0481156
0.0362958
0.0771304
-0.0568086
0.0445233
0.089433
-0.0653034
0.0530008
0.1013
-0.0733482
0.0614807
0.112328
-0.0807434
0.0697156
0.122207
-0.0873601
0.0774813
0.130755
-0.0931479
0.0845996
0.137934
-0.0981297
0.0909511
0.143824
-0.102394
0.0965042
0.148603
-0.106035
0.101257
0.152422
-0.109252
0.105432
0.155222
-0.111771
0.108971
-0.114599
0.112851
0.15697
0.000134871
0.000899254
0.000839412
0.00112603
0.00236441
-3.39171e-05
0.00493106
-0.00252617
0.00873599
-0.00632628
0.0139406
-0.0114002
0.0206424
-0.0176748
0.0288438
-0.0250131
0.0384254
-0.0332037
0.0491362
-0.0419659
0.0606057
-0.0509738
0.0723807
-0.0598906
0.0839785
-0.0684064
0.0949475
-0.0762724
0.104923
-0.083324
0.113671
-0.0894906
0.121101
-0.0947909
0.127269
-0.0993153
0.132338
-0.103199
0.136534
-0.10659
0.140124
-0.109625
0.143299
-0.112428
0.146509
-0.114981
-0.117798
0.149708
0.000216029
0.000683225
0.00116986
0.000172199
0.00313575
-0.0019998
0.00635228
-0.0057427
0.0110111
-0.0109851
0.0172262
-0.0176154
0.0249956
-0.0254441
0.0341712
-0.0341888
0.0444526
-0.0434851
0.0554115
-0.0529248
0.0665455
-0.0621078
0.0773482
-0.0706933
0.0873808
-0.078439
0.0963286
-0.0852202
0.104032
-0.0910274
0.110487
-0.0959461
0.115821
-0.100124
0.120241
-0.103736
0.123989
-0.106947
0.127296
-0.109897
0.130353
-0.112682
0.133308
-0.115383
0.136281
-0.117954
-0.120737
0.13922
0.000326671
0.000356553
0.0016004
-0.00110152
0.0041002
-0.0044996
0.00805365
-0.00969615
0.0136035
-0.0165349
0.0207609
-0.0247727
0.0293676
-0.0340509
0.0390897
-0.0439108
0.049452
-0.0538474
0.0599105
-0.0633833
0.0699398
-0.0721372
0.079115
-0.0798685
0.0871656
-0.0864896
0.0939941
-0.0920487
0.0996582
-0.0966914
0.104326
-0.100614
0.108223
-0.104021
0.111576
-0.107089
0.114587
-0.109958
0.11741
-0.11272
0.120162
-0.115434
0.122918
-0.11814
0.125781
-0.120817
-0.123694
0.128738
0.000459018
-0.000102465
0.00210153
-0.00274404
0.00518744
-0.00758552
0.00989567
-0.0144044
0.0162684
-0.0229077
0.02416
-0.0326643
0.0332221
-0.043113
0.0429446
-0.0536333
0.0527441
-0.0636469
0.0620715
-0.0727107
0.0705047
-0.0805704
0.0778017
-0.0871654
0.0839067
-0.0925946
0.0889161
-0.0970581
0.0930217
-0.100797
0.0964504
-0.104043
0.0994172
-0.106987
0.102099
-0.109771
0.104626
-0.112485
0.107091
-0.115185
0.109556
-0.1179
0.112064
-0.120647
0.114662
-0.123415
-0.126326
0.117294
0.000606574
-0.000709038
0.00264434
-0.0047818
0.00632354
-0.0112647
0.0117295
-0.0198103
0.0187526
-0.0299308
0.0270545
-0.0409662
0.0361039
-0.0521625
0.0452787
-0.062808
0.0539943
-0.0723625
0.0618131
-0.0805295
0.0684997
-0.087257
0.074019
-0.0926847
0.0784888
-0.0970644
0.0821134
-0.100683
0.0851195
-0.103803
0.0877123
-0.106636
0.0900532
-0.109328
0.0922578
-0.111975
0.094404
-0.114631
0.0965429
-0.117324
0.0987096
-0.120067
0.100928
-0.122865
0.103229
-0.125716
-0.12868
0.105584
0.000763926
-0.00147296
0.00320002
-0.00721789
0.007432
-0.0154967
0.0134046
-0.0257829
0.0208176
-0.0373438
0.0291397
-0.0492882
0.0377121
-0.060735
0.0459008
-0.0709967
0.0532278
-0.0796895
0.0594383
-0.08674
0.0644956
-0.0923142
0.068524
-0.0967131
0.0717336
-0.100274
0.074352
-0.103301
0.0765797
-0.106031
0.0785702
-0.108626
0.0804304
-0.111189
0.0822295
-0.113774
0.0840115
-0.116413
0.0858048
-0.119117
0.0876294
-0.121891
0.0894996
-0.124736
0.0914322
-0.127648
-0.130651
0.0934028
0.000924548
-0.00239751
0.00373676
-0.0100301
0.00843279
-0.0201927
0.0147766
-0.0321267
0.022266
-0.0448333
0.030218
-0.0572402
0.0379364
-0.0684533
0.0448754
-0.0779357
0.05073
-0.0855441
0.0554365
-0.0914466
0.0591113
-0.0959889
0.061965
-0.0995668
0.064228
-0.102537
0.0661018
-0.105175
0.0677388
-0.107668
0.0692428
-0.11013
0.0706789
-0.112625
0.0720873
-0.115183
0.0734931
-0.117819
0.0749135
-0.120537
0.0763614
-0.123339
0.0778477
-0.126222
0.0793836
-0.129184
-0.132225
0.0809574
0.00108017
-0.00347768
0.00421909
-0.013169
0.00924648
-0.0252201
0.0157231
-0.0386033
0.022968
-0.0520782
0.0302216
-0.0644938
0.0368439
-0.0750756
0.0424442
-0.0835361
0.0469025
-0.0900023
0.0503078
-0.0948519
0.0528648
-0.0985459
0.0548077
-0.10151
0.0563444
-0.104074
0.057632
-0.106463
0.0587762
-0.108812
0.0598421
-0.111196
0.0608683
-0.113651
0.061878
-0.116193
0.0628865
-0.118827
0.063905
-0.121556
0.0649426
-0.124377
0.0660073
-0.127287
0.0671057
-0.130282
-0.133352
0.0682327
0.00122068
-0.00469836
0.00461036
-0.0165587
0.00980337
-0.0304131
0.0161605
-0.0449604
0.022877
-0.0587947
0.0292021
-0.0708189
0.0346228
-0.0804963
0.0389246
-0.087838
0.042144
-0.0932217
0.0444671
-0.097175
0.0461307
-0.100209
0.0473528
-0.102732
0.0483008
-0.105022
0.0490877
-0.107249
0.049782
-0.109506
0.0504235
-0.111837
0.0510346
-0.114262
0.0516298
-0.116788
0.0522191
-0.119416
0.0528107
-0.122147
0.0534115
-0.124977
0.0540279
-0.127903
0.0546646
-0.130919
-0.134011
0.0553233
0.00133585
-0.00603421
0.0048787
-0.0201016
0.0100546
-0.035589
0.0160549
-0.0509608
0.022024
-0.0647637
0.0272946
-0.0760896
0.0315146
-0.0847162
0.0346308
-0.0909542
0.0367899
-0.0953808
0.0382236
-0.0986087
0.0391618
-0.101148
0.0397876
-0.103358
0.0402262
-0.10546
0.0405539
-0.107577
0.040814
-0.109766
0.04103
-0.112054
0.0412159
-0.114448
0.0413812
-0.116953
0.0415332
-0.119568
0.0416782
-0.122292
0.0418215
-0.125121
0.0419675
-0.128049
0.0421183
-0.13107
-0.13417
0.0422777
0.00141972
-0.00745393
0.00500487
-0.0236867
0.0099804
-0.0405646
0.0154225
-0.0564029
0.0205002
-0.0698414
0.024679
-0.0802683
0.0277679
-0.0878052
0.0298397
-0.0930259
0.031104
-0.0966452
0.0317993
-0.099304
0.0321278
-0.101476
0.0322328
-0.103463
0.0322034
-0.105431
0.0320893
-0.107463
0.031917
-0.109594
0.031701
-0.111837
0.0314503
-0.114197
0.0311715
-0.116674
0.0308707
-0.119268
0.030553
-0.121975
0.0302233
-0.124791
0.029885
-0.127711
0.0295393
-0.130724
0.0291919
-0.133823
-0.000167869
0.00288887
-0.002721
-0.000641762
0.00697792
-0.00650402
-0.00139897
0.00986408
-0.00910687
-0.00240724
0.011787
-0.0107787
-0.00362854
0.0129699
-0.0117486
-0.00502457
0.0136146
-0.0122186
-0.00656045
0.0138851
-0.0123492
-0.0082061
0.0138958
-0.0122501
-0.00993596
0.0137109
-0.011981
-0.0117277
0.0133499
-0.0115581
-0.0135607
0.0127977
-0.0109648
-0.0154139
0.0120155
-0.0101622
-0.0172649
0.01095
-0.00909901
-0.0190881
0.00954103
-0.0077178
-0.0208547
0.00772629
-0.00595967
-0.0225318
0.005444
-0.00376688
-0.0241063
0.00263587
-0.00106138
-0.0254811
-0.000710697
0.00208547
-0.0266488
-0.00464603
0.00581375
-0.0275608
-0.00917753
0.0100895
-0.0281741
-0.0142778
0.0148911
-0.0284569
-0.0198886
0.0201715
-0.028409
-0.0259081
0.0258603
-0.0321273
-0.0281155
0.0318339
-6.54769e-05
0.00295435
-0.000312547
0.00722499
-0.000765787
0.0103173
-0.00142224
0.0124435
-0.0022589
0.0138065
-0.00324163
0.0145974
-0.00433233
0.0149758
-0.00549361
0.0150571
-0.00669122
0.0149085
-0.00789476
0.0145534
-0.00907716
0.0139801
-0.0102134
0.0131517
-0.0112791
0.0120157
-0.0122495
0.0105114
-0.0130983
0.00857515
-0.0137984
0.00614409
-0.014322
0.00315951
-0.0146254
-0.000407348
-0.0146812
-0.00459019
-0.0144561
-0.00940263
-0.0139175
-0.0148164
-0.0130422
-0.0207639
-0.011834
-0.0271163
-0.0336697
-0.0102917
4.15258e-05
0.00291282
4.12583e-05
0.00722525
-6.89357e-05
0.0104275
-0.000312891
0.0126874
-0.000682936
0.0141766
-0.00115041
0.0150649
-0.00167505
0.0155004
-0.00221243
0.0155944
-0.00271891
0.015415
-0.00315428
0.0149888
-0.00348254
0.0143084
-0.00367144
0.0133406
-0.00369147
0.0120357
-0.00351465
0.0103345
-0.00311369
0.0081742
-0.00246228
0.00549269
-0.00153561
0.00223284
-0.000303282
-0.00163968
0.00126825
-0.00616172
0.00320541
-0.0113398
0.00553126
-0.0171423
0.00826264
-0.0234953
0.0114069
-0.0302606
-0.0372084
0.0149456
0.000140177
0.00277264
0.000379968
0.00698546
0.000619777
0.0101877
0.000812712
0.0124945
0.000951845
0.0140374
0.00105899
0.0149577
0.00117406
0.0153854
0.0013461
0.0154224
0.00162645
0.0151346
0.00206435
0.0145509
0.0027049
0.0136678
0.00358858
0.0124569
0.00475193
0.0108724
0.00622844
0.00885803
0.00804956
0.00635308
0.0102453
0.00329697
0.0128422
-0.000364094
0.0158756
-0.00467308
0.01937
-0.00965611
0.0233432
-0.015313
0.0278075
-0.0216066
0.0327688
-0.0284566
0.0381918
-0.0356836
-0.0431752
0.0441587
0.000218955
0.00255369
0.000666148
0.00653827
0.00122524
0.00962862
0.00183546
0.0118843
0.00247833
0.0133946
0.00316793
0.0142681
0.00394097
0.0146123
0.00484748
0.0145159
0.00594314
0.014039
0.00728389
0.0132102
0.00892279
0.0120289
0.0109088
0.0104709
0.0132868
0.00849436
0.0160989
0.00604591
0.0193853
0.0030667
0.0231836
-0.000501342
0.0275319
-0.00471242
0.0324635
-0.00960465
0.0380044
-0.015197
0.0441673
-0.0214759
0.0509432
-0.0283825
0.0583059
-0.0358193
0.0661736
-0.0435513
-0.0516214
0.0746198
0.000268819
0.00228487
0.000867508
0.00593958
0.00168164
0.00881449
0.00264747
0.0109184
0.00374048
0.0123016
0.0049683
0.0130403
0.00636293
0.0132177
0.00797258
0.0129062
0.00985437
0.0121572
0.0120689
0.0109957
0.0146766
0.00942124
0.017736
0.00741147
0.0213032
0.00492714
0.0254336
0.00191552
0.0301833
-0.00168296
0.035602
-0.00592008
0.0417342
-0.0108446
0.0486148
-0.0164853
0.056259
-0.0228412
0.0646527
-0.0298696
0.0737447
-0.0374744
0.083435
-0.0455096
0.0935686
-0.053685
-0.0621867
0.104134
0.000285218
0.00199965
0.000965671
0.00525913
0.00194722
0.00783294
0.00317533
0.00969032
0.00462707
0.0108498
0.00630767
0.0113597
0.00824593
0.0112794
0.0104884
0.0106638
0.0130936
0.00955195
0.0161276
0.00796164
0.0196606
0.00588821
0.023766
0.00330607
0.0285063
0.000186832
0.0339744
-0.00355251
0.0402248
-0.0079334
0.0473188
-0.013014
0.0552973
-0.0188231
0.0641722
-0.0253601
0.073914
-0.0325831
0.0844374
-0.040393
0.0956108
-0.0486479
0.107213
-0.0571116
0.11903
-0.065502
-0.0739689
0.130812
0.000268987
0.00173067
0.000960129
0.00456799
0.00201545
0.00677762
0.00340124
0.00830453
0.00510524
0.00914583
0.00713738
0.00932756
0.00952891
0.0088879
0.0123296
0.00786309
0.0156045
0.00627712
0.01943
0.00413613
0.0238899
0.00142823
0.0290752
-0.00187914
0.0350857
-0.00582375
0.0419872
-0.010454
0.0498571
-0.0158033
0.0587338
-0.0218907
0.0686131
-0.0287024
0.0794335
-0.0361805
0.0910664
-0.0442159
0.103306
-0.0526326
0.1159
-0.0612418
0.128497
-0.0697091
0.140874
-0.0778785
-0.0855811
0.152486
0.000226838
0.00150383
0.000870979
0.00392384
0.00192245
0.00572615
0.00337843
0.00684855
0.00524728
0.00727697
0.00755367
0.00702116
0.0103413
0.00610025
0.0136732
0.00453123
0.0176298
0.00232052
0.0223048
-0.000538883
0.0278028
-0.00406974
0.0342239
-0.00830026
0.0416604
-0.0132602
0.0501745
-0.0189681
0.0597893
-0.0254181
0.0704674
-0.0325688
0.0820979
-0.0403329
0.0944894
-0.048572
0.107372
-0.0570988
0.120412
-0.0656728
0.133242
-0.0740715
0.145467
-0.0819343
0.156877
-0.0892886
-0.0955599
0.166856
0.000171294
0.00133253
0.00073879
0.00335635
0.00174765
0.00471729
0.0032342
0.005362
0.00523777
0.0052734
0.00780965
0.00444928
0.0110184
0.00289152
0.0149505
0.00059915
0.019709
-0.00243798
0.0254041
-0.00623401
0.0321408
-0.0108064
0.0400045
-0.0161639
0.0490403
-0.0222961
0.0592337
-0.0291615
0.0704938
-0.0366782
0.082643
-0.044718
0.095417
-0.0531069
0.108478
-0.0616331
0.121438
-0.0700587
0.133906
-0.078141
0.1455
-0.0856655
0.155953
-0.0923867
0.165067
-0.0984034
-0.103044
0.172552
0.000119331
0.0012132
0.000619379
0.0028563
0.00160272
0.00373395
0.00315102
0.00381369
0.0053439
0.00308053
0.00826955
0.00152362
0.0120294
-0.000868384
0.016737
-0.00410837
0.0225063
-0.0082073
0.0294393
-0.013167
0.0376028
-0.0189699
0.0470069
-0.0255681
0.0575846
-0.0328737
0.0691771
-0.0407541
0.0815319
-0.049033
0.0943121
-0.0574982
0.107121
-0.0659154
0.119537
-0.0740496
0.131161
-0.0816827
0.141674
-0.0886541
0.150846
-0.0948368
0.158692
-0.100233
0.165126
-0.104838
-0.108331
0.170413
8.91062e-05
0.000572414
0.00160723
0.00332329
0.0058452
0.00930028
0.0138178
0.0195181
0.0264942
0.0347871
0.044362
0.0550896
0.0667392
0.0789859
0.0914337
0.103651
0.115217
0.125767
0.135035
0.142885
0.149305
0.154505
0.158638
0.163159
-0.0270952
-0.053428
0.0524077
-0.025856
-0.065023
0.0637837
-0.0242959
-0.0766296
0.0750695
-0.0223029
-0.0875511
0.0855581
-0.0196044
-0.0971699
0.0944715
-0.015773
-0.104701
0.10087
-0.0103248
-0.109098
0.103649
-0.00280409
-0.109163
0.101642
0.0072296
-0.103669
0.0936356
0.0192087
-0.0911358
0.0791567
0.0325398
-0.0713674
0.0580363
0.0464932
-0.0447084
0.0307549
0.0605896
-0.0126212
-0.00147521
0.0744958
0.023604
-0.0375102
0.0878656
0.061252
-0.0746218
0.100015
0.0963283
-0.108478
0.110011
0.124862
-0.134858
0.117189
0.144617
-0.151795
0.121489
0.155686
-0.159987
0.122946
0.160454
-0.161911
0.12121
0.163658
-0.161923
0.116406
0.169869
-0.165065
0.110475
0.177516
-0.171585
0.106905
0.175675
-0.172104
0.10838
0.150277
-0.151752
0.114995
0.0957319
-0.102347
0.125049
0.0205246
-0.0305786
0.135931
-0.0571419
0.0462597
0.145366
-0.120656
0.11122
0.151764
-0.162507
0.15611
0.155056
-0.184242
0.18095
0.155873
-0.191843
0.191026
0.153865
-0.193038
0.195046
0.14811
-0.198854
0.204609
0.139567
-0.210388
0.218932
0.13183
-0.209973
0.217711
0.12859
-0.17381
0.17705
0.130947
-0.0938144
0.0914566
0.137478
0.00438948
-0.01092
0.14554
0.0974351
-0.105497
0.152654
0.159511
-0.166626
0.155967
0.202663
-0.205976
0.153529
0.231198
-0.22876
0.14644
0.257997
-0.250907
0.138899
0.25995
-0.25241
0.13544
0.205277
-0.201818
0.137912
0.109236
-0.111708
0.144219
-0.0266946
0.0203877
0.149987
-0.112472
0.106703
0.150639
-0.199931
0.199279
0.146209
-0.239672
0.244102
0.141036
-0.27218
0.277353
0.13977
-0.259446
0.260711
0.142306
-0.134859
0.132323
0.145022
-0.0609785
0.0582627
0.144486
0.143533
-0.142998
0.142612
0.212435
-0.210561
0.141187
0.295109
-0.293684
0.139923
0.325586
-0.324322
0.0611706
-0.0594906
-0.0102513
-0.0534684
-0.0105276
-0.0647467
-0.0110343
-0.0761228
-0.0117681
-0.0868174
-0.012556
-0.096382
-0.0130103
-0.104247
-0.0124794
-0.109628
-0.00991766
-0.111725
-0.00465748
-0.108929
0.00398443
-0.0997777
0.0157431
-0.0831261
0.0294259
-0.0583912
0.0445009
-0.0276962
0.0601828
0.00792215
0.0757326
0.0457022
0.0903666
0.0816942
0.103047
0.112182
0.112958
0.134705
0.119722
0.148922
0.123051
0.157125
0.122747
0.163963
0.119587
0.17303
0.115959
0.181144
0.114885
0.176749
0.118
0.147162
0.12471
0.0890214
0.133581
0.0116544
0.142426
-0.0659869
0.1496
-0.127831
0.153847
-0.166754
0.155217
-0.185612
0.154539
-0.191164
0.151639
-0.190138
0.145347
-0.192562
0.136186
-0.201228
0.127723
-0.20151
0.12415
-0.170236
0.126913
-0.0965775
0.1346
-0.00329716
0.144155
0.0878797
0.152663
0.151003
0.156981
0.198345
0.155256
0.232922
0.148841
0.264412
0.141732
0.267059
0.138138
0.208872
0.139793
0.10758
0.145155
-0.0320565
0.150351
-0.117667
0.150708
-0.200288
0.14614
-0.235105
0.140844
-0.266884
0.13967
-0.258271
0.142098
-0.137286
0.14469
-0.0635707
0.144166
0.144057
0.142314
0.214287
0.141017
0.296406
0.139902
0.326701
0.0627537
0.0144199
-0.0529427
0.0132612
-0.063588
0.011468
-0.0743296
0.00885204
-0.0842014
0.00528086
-0.0928108
0.00103744
-0.100004
-0.00300594
-0.105585
-0.00599051
-0.10874
-0.00646541
-0.108455
-0.00343061
-0.102812
0.00415005
-0.0907067
0.0158157
-0.0700568
0.0304381
-0.0423187
0.0470892
-0.00872888
0.0642744
0.028517
0.0810194
0.0649492
0.0961432
0.0970585
0.108632
0.122216
0.117761
0.139793
0.123033
0.151853
0.124526
0.16247
0.123529
0.174027
0.122526
0.182147
0.123861
0.175413
0.128181
0.142842
0.134604
0.0825984
0.141933
0.00432543
0.148569
-0.0726229
0.153393
-0.132654
0.155527
-0.168888
0.155109
-0.185194
0.153066
-0.189121
0.149445
-0.186517
0.142903
-0.186021
0.133411
-0.191735
0.124299
-0.192398
0.120243
-0.166181
0.123164
-0.0994989
0.13179
-0.0119222
0.142692
0.0769769
0.152544
0.141151
0.157948
0.192942
0.157121
0.233749
0.151558
0.269974
0.144959
0.273659
0.141191
0.21264
0.141923
0.106848
0.146206
-0.0363392
0.150774
-0.122236
0.150865
-0.200378
0.146178
-0.230418
0.140719
-0.261425
0.139594
-0.257146
0.141955
-0.139648
0.144487
-0.0661023
0.143985
0.144559
0.142123
0.216149
0.14096
0.297569
0.140041
0.327621
0.0642085
0.0428945
-0.0516785
0.0413453
-0.0620388
0.0390512
-0.0720356
0.0356843
-0.0808346
0.0310435
-0.0881699
0.0249745
-0.0939346
0.01754
-0.0981506
0.00961275
-0.100813
0.00277269
-0.101615
-0.00053671
-0.0995031
0.000561781
-0.0918052
0.00803422
-0.0775292
0.0202139
-0.0544983
0.0359445
-0.0244595
0.0538935
0.010568
0.0721066
0.046736
0.0892329
0.0799322
0.103969
0.10748
0.115273
0.128489
0.122578
0.144549
0.12623
0.158817
0.127814
0.172442
0.12961
0.180352
0.133165
0.171858
0.138346
0.137661
0.144234
0.0767105
0.149718
-0.00115852
0.154211
-0.0771162
0.156711
-0.135154
0.156807
-0.168984
0.154746
-0.183133
0.151459
-0.185835
0.14722
-0.182277
0.140662
-0.179463
0.131175
-0.182247
0.12159
-0.182814
0.116899
-0.16149
0.119745
-0.102345
0.128984
-0.0211609
0.141092
0.0648689
0.152231
0.130012
0.15881
0.186363
0.159065
0.233495
0.15452
0.274519
0.148502
0.279677
0.144542
0.2166
0.144266
0.107124
0.147356
-0.0394293
0.151237
-0.126117
0.151082
-0.200223
0.146292
-0.225629
0.140627
-0.25576
0.139502
-0.256021
0.141852
-0.141998
0.144397
-0.0686473
0.143936
0.14502
0.142037
0.218048
0.141016
0.29859
0.140347
0.32829
0.065503
0.0728792
-0.049938
0.0707074
-0.0598669
0.0677854
-0.0691136
0.063887
-0.0769362
0.0588794
-0.0831623
0.052521
-0.0875763
0.0445193
-0.0901488
0.0349222
-0.0912161
0.0245323
-0.0912247
0.0150669
-0.0900376
0.00928442
-0.0860228
0.00915304
-0.0773979
0.0158495
-0.0611948
0.0283481
-0.0369581
0.0451792
-0.00626308
0.0636731
0.0282421
0.082045
0.0615603
0.0985187
0.0910066
0.111762
0.115245
0.121193
0.135117
0.127325
0.152685
0.131787
0.167981
0.13645
0.175689
0.142055
0.166253
0.147876
0.131841
0.152994
0.0715918
0.156886
-0.00505018
0.159226
-0.0794565
0.159463
-0.13539
0.157607
-0.167128
0.15407
-0.179597
0.149695
-0.18146
0.144934
-0.177516
0.138537
-0.173066
0.129377
-0.173087
0.119578
-0.173015
0.114202
-0.156114
0.116633
-0.104775
0.126217
-0.0307457
0.139286
0.0518004
0.151638
0.11766
0.159482
0.178518
0.160997
0.231981
0.15762
0.277895
0.152244
0.285053
0.148094
0.22075
0.146774
0.108443
0.148581
-0.0412361
0.151711
-0.129246
0.151326
-0.199839
0.14646
-0.220762
0.140544
-0.249844
0.139359
-0.254836
0.141756
-0.144395
0.144398
-0.0712895
0.144009
0.145409
0.142053
0.220004
0.141188
0.299455
0.140824
0.328654
0.0666043
0.101765
-0.0475691
0.0987756
-0.0568775
0.0949537
-0.0652916
0.0902367
-0.0722192
0.0847038
-0.0776294
0.0783287
-0.0812012
0.0708734
-0.0826935
0.0619415
-0.0822842
0.0512947
-0.0805779
0.0395115
-0.0782544
0.0286444
-0.0751556
0.0213487
-0.0701021
0.0203957
-0.0602418
0.0267926
-0.043355
0.0394466
-0.018917
0.0563335
0.0113552
0.0746365
0.0432573
0.0920626
0.0735805
0.106943
0.100365
0.118556
0.123505
0.127377
0.143864
0.134847
0.160511
0.142308
0.168228
0.149776
0.158784
0.156162
0.125455
0.160665
0.0670883
0.16312
-0.00750502
0.16346
-0.0797962
0.161547
-0.133478
0.157865
-0.163446
0.153031
-0.174763
0.147739
-0.176168
0.142532
-0.172309
0.136405
-0.16694
0.127856
-0.164538
0.118163
-0.163321
0.112144
-0.150096
0.113909
-0.10654
0.123428
-0.0402654
0.137196
0.0380325
0.150658
0.104198
0.159848
0.169328
0.162789
0.22904
0.160715
0.27997
0.156041
0.289727
0.151741
0.22505
0.149368
0.110816
0.149847
-0.0417148
0.152161
-0.131561
0.151561
-0.199239
0.146655
-0.215856
0.140452
-0.243641
0.139136
-0.25352
0.141634
-0.146893
0.144465
-0.0741211
0.144191
0.145683
0.142167
0.222027
0.141475
0.300148
0.141476
0.328652
0.0674789
0.127585
-0.0443416
0.123613
-0.0529063
0.118704
-0.0603821
0.112946
-0.0664617
0.106586
-0.0712691
0.0997864
-0.0744016
0.092589
-0.075496
0.084817
-0.0745122
0.0759819
-0.0717428
0.0655804
-0.0678529
0.0539606
-0.0635359
0.0428061
-0.0589477
0.0351739
-0.0526096
0.0338443
-0.0420254
0.0398525
-0.0249252
0.052262
-0.00105423
0.0683432
0.0271761
0.0853969
0.0565268
0.101266
0.0844955
0.114849
0.109922
0.126311
0.132402
0.136687
0.150135
0.146715
0.1582
0.15582
0.14968
0.162711
0.118563
0.166827
0.0629727
0.168141
-0.00881867
0.166731
-0.0783869
0.16287
-0.129616
0.157522
-0.158098
0.151571
-0.168813
0.145549
-0.170145
0.139968
-0.166728
0.134148
-0.16112
0.126421
-0.156811
0.117175
-0.154075
0.110674
-0.143595
0.111544
-0.107409
0.120635
-0.0493561
0.134752
0.0239153
0.149186
0.0897638
0.159778
0.158737
0.164297
0.22452
0.163651
0.280616
0.159747
0.293631
0.155337
0.22946
0.151978
0.114176
0.151111
-0.0408483
0.152553
-0.133002
0.151744
-0.19843
0.14685
-0.210961
0.140338
-0.237129
0.138808
-0.25199
0.14145
-0.149535
0.144568
-0.0772388
0.144469
0.145782
0.142377
0.224119
0.141877
0.300649
0.142304
0.328225
0.068092
0.14824
-0.0400956
0.143193
-0.0478596
0.137168
-0.0543565
0.130408
-0.0597022
0.123254
-0.0641149
0.115928
-0.0670762
0.108617
-0.0681842
0.101428
-0.0673231
0.0942141
-0.0645293
0.0864433
-0.0600821
0.0774655
-0.0545581
0.067212
-0.0486941
0.0571641
-0.0425617
0.0501261
-0.0349874
0.0488795
-0.0236786
0.0545559
-0.00673066
0.0659153
0.0158167
0.0806133
0.0418287
0.096171
0.0689378
0.110945
0.0951483
0.124533
0.118814
0.137373
0.137295
0.149552
0.14602
0.160022
0.13921
0.167444
0.111141
0.171339
0.0590786
0.171802
-0.00928227
0.168908
-0.0754929
0.163338
-0.124046
0.156518
-0.151278
0.14963
-0.161925
0.143067
-0.163582
0.137194
-0.160855
0.131662
-0.155587
0.124868
-0.150017
0.116383
-0.14559
0.109657
-0.136869
0.109539
-0.107292
0.117811
-0.0576273
0.131903
0.00982295
0.147124
0.0745432
0.159139
0.146722
0.165355
0.218304
0.166247
0.279723
0.163191
0.296687
0.158761
0.23389
0.154499
0.118438
0.152326
-0.0386756
0.152844
-0.13352
0.151831
-0.197417
0.147015
-0.206145
0.140192
-0.230306
0.138359
-0.250158
0.141172
-0.152348
0.144673
-0.0807401
0.144826
0.145629
0.142679
0.226267
0.142393
0.300934
0.143308
0.32731
0.0684082
0.161762
-0.0350016
0.155819
-0.0419162
0.148927
-0.0474651
0.141482
-0.0522566
0.133828
-0.0564611
0.126188
-0.0594366
0.118807
-0.0608027
0.11191
-0.0604258
0.105604
-0.058224
0.0997484
-0.0542263
0.0938194
-0.048629
0.0870399
-0.0419146
0.0791553
-0.0346772
0.0712239
-0.027056
0.065641
-0.0180958
0.0650336
-0.00612326
0.0701322
0.0107181
0.0803777
0.0315832
0.0937497
0.0555659
0.108291
0.0806073
0.122935
0.104169
0.137383
0.122847
0.15105
0.132353
0.162496
0.127764
0.170378
0.103259
0.17428
0.0551769
0.174083
-0.00908572
0.169901
-0.0713112
0.162842
-0.116986
0.15476
-0.143196
0.147106
-0.154271
0.140189
-0.156665
0.134127
-0.154793
0.128834
-0.150294
0.122995
-0.144178
0.115522
-0.138117
0.108879
-0.130226
0.107816
-0.106229
0.114966
-0.0647776
0.128632
-0.00384316
0.144392
0.058783
0.157803
0.133311
0.165825
0.210281
0.168365
0.277183
0.166227
0.298826
0.161871
0.238245
0.156844
0.123465
0.153435
-0.0352671
0.152991
-0.133076
0.15177
-0.196196
0.147113
-0.201489
0.140005
-0.223198
0.137782
-0.247934
0.14077
-0.155336
0.144746
-0.0847167
0.145249
0.145126
0.143069
0.228447
0.143024
0.300979
0.14449
0.325845
0.0683923
0.167196
-0.0296453
0.16086
-0.0355807
0.153644
-0.0402489
0.146069
-0.0446812
0.138392
-0.0487841
0.130804
-0.0518491
0.123583
-0.0535819
0.117006
-0.0538481
0.111293
-0.052511
0.106537
-0.0494708
0.102569
-0.0446604
0.0988729
-0.0382189
0.0947551
-0.0305593
0.0897974
-0.0220983
0.0845971
-0.0128955
0.0811236
-0.00264975
0.0812503
0.0105913
0.0863038
0.0265298
0.0958181
0.0460516
0.108355
0.0680702
0.122538
0.0899867
0.137388
0.107997
0.15167
0.118072
0.1636
0.115834
0.171838
0.0950204
0.175824
0.0511911
0.175074
-0.00833565
0.169671
-0.0659085
0.161297
-0.108612
0.152168
-0.134067
0.143911
-0.146014
0.136808
-0.149562
0.130686
-0.148671
0.125585
-0.145193
0.120646
-0.139239
0.114355
-0.131826
0.108105
-0.123976
0.106247
-0.104371
0.112092
-0.0706225
0.124954
-0.0167049
0.140954
0.0427829
0.155667
0.118598
0.165521
0.200427
0.169786
0.272919
0.168672
0.29994
0.164538
0.242379
0.158929
0.129074
0.154398
-0.0307363
0.152963
-0.131641
0.151521
-0.194754
0.147108
-0.197076
0.139779
-0.215869
0.137084
-0.24524
0.140223
-0.158474
0.144751
-0.0892445
0.145722
0.144155
0.143545
0.230623
0.14377
0.300755
0.145848
0.323767
0.0680093
0.165476
-0.0247087
0.159313
-0.0294181
0.152364
-0.0332992
0.145182
-0.0374993
0.13789
-0.0414923
0.130686
-0.044645
0.123868
-0.046764
0.117739
-0.0477185
0.112578
-0.0473505
0.10855
-0.0454425
0.105677
-0.0417876
0.103762
-0.0363038
0.102337
-0.0291341
0.100812
-0.0205734
0.098849
-0.0109327
0.0971329
-0.000933671
0.0958885
0.0118357
0.0974791
0.0249392
0.102993
0.040538
0.112246
0.0588166
0.124343
0.0778902
0.138099
0.0942402
0.151858
0.104313
0.163681
0.104011
0.172217
0.0864844
0.176299
0.047109
0.175033
-0.00706995
0.168494
-0.0593687
0.159005
-0.0991235
0.149077
-0.124139
0.140368
-0.137305
0.133183
-0.142376
0.127093
-0.142581
0.1221
-0.140201
0.117886
-0.135025
0.112823
-0.126763
0.107218
-0.118371
0.104743
-0.101896
0.109166
-0.0750449
0.120902
-0.0284413
0.136763
0.0269215
0.152664
0.102698
0.164458
0.188633
0.170556
0.266821
0.170464
0.300031
0.166658
0.246185
0.160719
0.135014
0.155245
-0.0252631
0.15279
-0.129185
0.151104
-0.193068
0.14699
-0.192962
0.139532
-0.208411
0.136317
-0.242024
0.139543
-0.1617
0.144647
-0.0943492
0.146223
0.142579
0.144103
0.232743
0.144632
0.300225
0.147382
0.321018
0.067224
0.159167
-0.0207168
0.153544
-0.0237955
0.147566
-0.0273213
0.141314
-0.0312474
0.1349
-0.0350778
0.128619
-0.0383639
0.122713
-0.040858
0.11738
-0.0423859
0.112797
-0.042768
0.10915
-0.0417949
0.106626
-0.039264
0.105342
-0.0350193
0.105189
-0.0289811
0.105815
-0.0212
0.106705
-0.0118227
0.106963
-0.0011913
0.107992
0.0108069
0.109767
0.0231639
0.113518
0.036787
0.12007
0.0522649
0.129448
0.0685119
0.140962
0.0827265
0.153197
0.0920784
0.164405
0.0928025
0.172889
0.0780003
0.176765
0.0432333
0.174296
-0.00460182
0.16642
-0.0514923
0.156079
-0.0887821
0.145776
-0.113837
0.136877
-0.128406
0.129693
-0.135192
0.123685
-0.136574
0.1187
-0.135216
0.114932
-0.131257
0.110992
-0.122823
0.106208
-0.113587
0.103302
-0.0989902
0.106365
-0.0781082
0.11667
-0.0387456
0.132007
0.0115836
0.148582
0.0861232
0.162108
0.175108
0.170161
0.258767
0.171313
0.29888
0.168091
0.249407
0.162102
0.141003
0.155906
-0.0190667
0.152468
-0.125747
0.150548
-0.191149
0.14676
-0.189173
0.139266
-0.200917
0.135525
-0.238283
0.138773
-0.164948
0.144437
-0.100014
0.146738
0.140278
0.144732
0.234749
0.145608
0.299349
0.149091
0.317534
0.0659942
0.197964
-0.0166804
-0.202001
0.194796
-0.020627
0.191355
-0.0238811
0.187379
-0.0272705
0.182862
-0.0305613
0.177919
-0.0334204
0.172665
-0.0356046
0.167197
-0.0369173
0.161613
-0.0371842
0.156043
-0.0362253
0.150639
-0.0338596
0.145542
-0.029922
0.14086
-0.0242996
0.136634
-0.0169742
0.132838
-0.00802667
0.129102
0.00254548
0.125555
0.0143529
0.122224
0.0264951
0.119917
0.0390946
0.119864
0.0523172
0.123213
0.0651636
0.130435
0.0755044
0.141332
0.0811807
0.15569
0.0784448
0.17221
0.0614802
0.186791
0.0286528
0.195409
-0.0132197
0.19709
-0.0531733
0.193259
-0.0849519
0.186131
-0.106708
0.177588
-0.119863
0.168953
-0.126557
0.160551
-0.128171
0.152471
-0.127136
0.145243
-0.124029
0.138104
-0.115684
0.129776
-0.105258
0.121705
-0.09092
0.117565
-0.0739673
0.119572
-0.0407535
0.12575
0.00540603
0.132623
0.0792507
0.137779
0.169951
0.141559
0.254987
0.145647
0.294792
0.151717
0.243337
0.157389
0.135331
0.160072
-0.0217487
0.160153
-0.125829
0.157784
-0.188779
0.152296
-0.183686
0.143815
-0.192436
0.136785
-0.231254
0.13527
-0.163432
0.135343
-0.100087
0.133728
0.141892
0.130809
0.237669
0.131822
0.298336
0.136662
0.312695
0.064776
0.206897
-0.0136373
-0.20994
0.203636
-0.0173667
0.200335
-0.0205803
0.19661
-0.0235448
0.1924
-0.0263518
0.187802
-0.0288224
0.18292
-0.030722
0.17785
-0.0318475
0.172699
-0.0320333
0.167596
-0.0311222
0.162688
-0.0289523
0.158136
-0.0253697
0.154099
-0.0202623
0.150701
-0.0135763
0.147953
-0.00527856
0.145843
0.00465579
0.144344
0.0158516
0.143316
0.0275231
0.143091
0.0393199
0.144538
0.0508694
0.148649
0.0610531
0.155968
0.0681857
0.166577
0.0705719
0.180059
0.0649626
0.194299
0.0472395
0.205661
0.0172909
0.211041
-0.0185995
0.210304
-0.0524366
0.204913
-0.0795604
0.196857
-0.0986521
0.18777
-0.110777
0.178827
-0.117614
0.170309
-0.119653
0.162052
-0.118879
0.154591
-0.116568
0.147624
-0.108717
0.139754
-0.0973886
0.131575
-0.0827412
0.126596
-0.0689876
0.127598
-0.0417561
0.133473
-0.000468728
0.14079
0.0719341
0.146796
0.163945
0.151627
0.250155
0.156908
0.289512
0.16409
0.236154
0.170442
0.128979
0.172966
-0.0242724
0.17228
-0.125143
0.169024
-0.185523
0.162967
-0.177628
0.153762
-0.183231
0.145903
-0.223395
0.143897
-0.161426
0.144168
-0.100358
0.142712
0.143348
0.139592
0.240789
0.140925
0.297002
0.146575
0.307045
0.0633767
0.215768
-0.0112574
-0.218148
0.212825
-0.0144244
0.20963
-0.0173846
0.206129
-0.0200436
0.202236
-0.0224593
0.197983
-0.0245693
0.19346
-0.0261986
0.188769
-0.0271569
0.18402
-0.0272846
0.179339
-0.0264413
0.174876
-0.0244887
0.170797
-0.0212912
0.167269
-0.0167338
0.164444