/*--------------------------------*- C++ -*----------------------------------*\
| =========                 |                                                 |
| \\      /  F ield         | OpenFOAM: The Open Source CFD Toolbox           |
|  \\    /   O peration     | Version:  2512                                  |
|   \\  /    A nd           | Website:  www.openfoam.com                      |
|    \\/     M anipulation  |                                                 |
\*---------------------------------------------------------------------------*/
FoamFile
{
    version     2.0;
    format      ascii;
    arch        "LSB;label=32;scalar=64";
    class       volVectorField;
    location    "118.75";
    object      U;
}
// * * * * * * * * * * * * * * * * * * * * * * * * * * * * * * * * * * * * * //

dimensions      [0 1 -1 0 0 0 0];

internalField   nonuniform List<vector> 
13248
(
(-0.0138258 0.0128016 9.44933e-20)
(-0.0238708 0.0269642 0)
(-0.0157951 0.0346239 -1.78311e-19)
(0.00973394 0.0375188 1.67963e-19)
(0.052198 0.0370397 1.5707e-19)
(0.111078 0.0343101 0)
(0.18562 0.0302032 0)
(0.274624 0.0253942 3.81731e-19)
(0.376206 0.0203735 -2.97403e-22)
(0.487623 0.0154389 -3.36211e-19)
(0.605241 0.0106951 3.1586e-19)
(0.724701 0.00607208 -1.97875e-19)
(0.841248 0.00136718 0)
(0.950182 -0.00369297 -3.46013e-19)
(1.04734 -0.00938131 6.46326e-19)
(1.12951 -0.015903 -1.54933e-19)
(1.19475 -0.0233449 -2.72584e-19)
(1.24255 -0.0316634 2.55925e-19)
(1.27371 -0.040645 0)
(1.29012 -0.0502002 0)
(1.29454 -0.0593928 0)
(1.28904 -0.0705229 0)
(1.27773 -0.0759092 7.08101e-20)
(1.25787 -0.0990686 2.44606e-19)
(-0.0131136 0.0108303 -2.8516e-19)
(-0.0168722 0.019917 1.94177e-19)
(0.0015842 0.0229806 -1.80142e-21)
(0.0409509 0.0222928 -2.56433e-19)
(0.100287 0.019571 -1.569e-19)
(0.178505 0.0161286 -1.48635e-19)
(0.273906 0.0128906 -2.73868e-19)
(0.383844 0.0104452 2.59021e-19)
(0.504548 0.00906583 0)
(0.631182 0.00871868 5.46572e-22)
(0.758176 0.00909571 8.84792e-22)
(0.879776 0.00968882 1.96573e-19)
(0.990685 0.00989784 0)
(1.08665 0.00915166 0)
(1.16491 0.00701651 2.32569e-19)
(1.22437 0.00326896 -4.3727e-19)
(1.26556 -0.00207985 2.58605e-19)
(1.29039 -0.00880656 -2.42816e-19)
(1.30164 -0.0165425 -1.05092e-19)
(1.30246 -0.0248288 -1.89878e-19)
(1.29582 -0.0331853 -7.56852e-20)
(1.28431 -0.0413717 -1.41594e-19)
(1.26971 -0.047279 2.11559e-19)
(1.25284 -0.0574604 5.87768e-20)
(-0.011194 0.00854111 0)
(-0.00569455 0.012718 0)
(0.0267663 0.0121534 9.07464e-20)
(0.0839009 0.00931257 8.36604e-20)
(0.163864 0.00607613 -1.85391e-21)
(0.264325 0.00384333 -1.53547e-19)
(0.381785 0.00343875 0)
(0.511329 0.0051551 -1.29006e-19)
(0.646757 0.00880123 1.21523e-19)
(0.781133 0.013776 4.30706e-22)
(0.907606 0.019202 -2.09101e-19)
(1.02029 0.0241084 -1.92336e-19)
(1.11495 0.0276209 3.2892e-21)
(1.1894 0.0291153 -1.5921e-19)
(1.24356 0.0283014 3.82769e-19)
(1.27909 0.0252289 0)
(1.29888 0.020225 -2.46008e-19)
(1.30641 0.0137868 1.20378e-19)
(1.30514 0.00649402 1.05014e-19)
(1.29798 -0.00116732 0)
(1.28726 -0.00853066 8.44053e-20)
(1.27428 -0.0158992 -2.83652e-19)
(1.26034 -0.0208224 2.66281e-19)
(1.2452 -0.0305607 1.61565e-19)
(-0.00753198 0.00581395 -1.00444e-19)
(0.0108216 0.00524341 -1.0381e-19)
(0.0610894 0.00218639 9.40508e-20)
(0.139613 -0.00109515 0)
(0.242981 -0.00281264 0)
(0.36675 -0.00172467 -3.28688e-21)
(0.504763 0.00259963 0)
(0.64929 0.0098338 -3.94074e-19)
(0.791818 0.0190474 3.66467e-19)
(0.924205 0.0289371 -4.53107e-19)
(1.03985 0.0381161 1.04306e-19)
(1.13453 0.0453958 0)
(1.20667 0.0499873 1.73168e-19)
(1.25716 0.0515827 -3.20544e-19)
(1.28871 0.0503195 7.65502e-20)
(1.30507 0.0466586 1.94984e-19)
(1.31021 0.0412277 -9.40259e-21)
(1.30768 0.0346822 -2.15244e-19)
(1.3003 0.0275973 0)
(1.29005 0.0204464 0)
(1.2782 0.0135843 -7.57105e-20)
(1.26548 0.00708261 6.74375e-20)
(1.25244 0.00218744 2.38677e-19)
(1.23889 -0.00603605 -2.24135e-19)
(-0.00165235 0.00272346 -1.05498e-19)
(0.0336503 -0.00220499 -1.05397e-19)
(0.105471 -0.00634828 2.96462e-19)
(0.208291 -0.00807966 -1.80415e-19)
(0.33631 -0.00606689 1.69809e-19)
(0.482066 0.000387841 3.09373e-19)
(0.636151 0.0109078 -2.18661e-19)
(0.788172 0.0242092 -2.66243e-19)
(0.928347 0.038486 5.22126e-21)
(1.04906 0.0518589 3.41461e-19)
(1.14586 0.0627792 0)
(1.21768 0.0702867 9.36648e-20)
(1.26628 0.0740775 0)
(1.29534 0.0744057 -1.53071e-19)
(1.30936 0.0718873 2.15496e-19)
(1.31273 0.0672863 2.44496e-21)
(1.30915 0.0613444 -5.61584e-20)
(1.30138 0.054681 1.05442e-19)
(1.29126 0.0477657 9.02937e-20)
(1.27991 0.0409243 -8.07311e-20)
(1.26799 0.0343992 7.56926e-20)
(1.25583 0.0282362 -6.74204e-20)
(1.24368 0.0231186 0)
(1.23141 0.0157306 -5.05943e-20)
(0.00683556 -0.00048127 1.05483e-19)
(0.0634811 -0.00890997 1.1059e-19)
(0.160252 -0.0123519 -9.93273e-20)
(0.289143 -0.0103029 1.85423e-19)
(0.441077 -0.00238328 -1.74514e-19)
(0.604896 0.0110457 1.58232e-19)
(0.768034 0.0283722 -7.58763e-20)
(0.918549 0.0471866 1.99817e-19)
(1.04727 0.0649787 -1.25462e-19)
(1.1491 0.079731 2.22048e-19)
(1.22318 0.0902566 -5.12102e-19)
(1.27201 0.0962451 1.87726e-19)
(1.30018 0.098084 -1.64658e-19)
(1.31294 0.0965698 1.54672e-19)
(1.31517 0.0926278 1.33486e-19)
(1.3108 0.0871109 1.17133e-19)
(1.30263 0.0807007 -3.25398e-19)
(1.29247 0.0738908 2.01959e-19)
(1.28138 0.0670161 -9.02976e-20)
(1.26993 0.0603007 2.34487e-19)
(1.25839 0.0538873 -7.57382e-20)
(1.24692 0.0478632 -1.82979e-19)
(1.23557 0.0425415 1.68712e-19)
(1.22424 0.0358258 5.05797e-20)
(0.0182189 -0.00341678 0)
(0.100621 -0.0138412 9.21425e-22)
(0.225023 -0.0143787 2.07272e-19)
(0.38022 -0.00622424 -1.94423e-19)
(0.553114 0.00942649 -1.75891e-19)
(0.728786 0.0306141 3.2698e-19)
(0.892566 0.0542529 -1.5189e-19)
(1.03294 0.0769938 2.0245e-19)
(1.14344 0.0961394 -4.46966e-21)
(1.22295 0.110137 -1.14592e-19)
(1.27449 0.11861 2.50211e-19)
(1.30348 0.122081 -3.68889e-19)
(1.31602 0.121559 0)
(1.31762 0.118176 -7.23733e-20)
(1.3126 0.112939 -1.93516e-19)
(1.30393 0.106627 6.08012e-20)
(1.29348 0.0997867 2.49824e-21)
(1.2823 0.0927736 -1.33532e-19)
(1.27093 0.0858149 8.55734e-21)
(1.25963 0.0790546 1.54331e-19)
(1.2485 0.0725881 -6.8624e-20)
(1.23756 0.0664917 -2.59052e-20)
(1.2268 0.0608272 8.04077e-20)
(1.21616 0.0544886 0)
(0.0326496 -0.00561217 0)
(0.14489 -0.0158024 5.61243e-20)
(0.298493 -0.0108957 -2.69304e-19)
(0.478404 0.00553333 9.82338e-20)
(0.667237 0.0300467 -9.24506e-20)
(0.847154 0.0587222 -8.43774e-20)
(1.00335 0.0871468 -1.49416e-19)
(1.12696 0.111606 7.44744e-20)
(1.21583 0.129905 6.49787e-20)
(1.27309 0.14146 0)
(1.30498 0.146895 1.47857e-19)
(1.31854 0.147469 -2.19842e-19)
(1.32014 0.144588 1.63833e-19)
(1.31466 0.139481 7.24128e-20)
(1.30545 0.133081 -5.9335e-20)
(1.29454 0.126019 -4.97413e-20)
(1.28306 0.118696 -4.64666e-20)
(1.27154 0.111356 1.38855e-19)
(1.26023 0.104147 0)
(1.24922 0.097167 6.97306e-20)
(1.23851 0.0904851 5.85486e-20)
(1.22808 0.0841547 -1.45458e-19)
(1.21788 0.0781377 -9.91559e-20)
(1.20784 0.0720332 9.17757e-20)
(0.0501065 -0.00654592 -5.98823e-20)
(0.19554 -0.0135741 -2.01018e-21)
(0.378479 -0.000538942 5.47236e-20)
(0.579665 0.0258736 1.52868e-19)
(0.777947 0.059447 4.44563e-20)
(0.954361 0.0943157 -8.58415e-20)
(1.09633 0.125327 7.85765e-20)
(1.19945 0.149195 -6.90194e-20)
(1.26635 0.164833 1.23438e-19)
(1.30382 0.172865 5.27182e-20)
(1.32004 0.174833 -1.49332e-19)
(1.32245 0.172499 4.41486e-20)
(1.31684 0.167416 7.54766e-20)
(1.30711 0.160742 -3.70985e-20)
(1.29561 0.153254 0)
(1.28361 0.145425 5.5629e-20)
(1.27171 0.13753 9.43238e-20)
(1.26015 0.129732 1.62586e-20)
(1.24902 0.122127 -7.8723e-20)
(1.23832 0.114783 3.30582e-20)
(1.228 0.10775 0)
(1.21801 0.101048 -2.60125e-20)
(1.20829 0.0946219 -2.44553e-20)
(1.19874 0.0885162 0)
(0.0703448 -0.00568652 0)
(0.251224 -0.00605606 3.13095e-20)
(0.462024 0.017676 5.8046e-20)
(0.679514 0.0550574 -1.554e-19)
(0.880221 0.0969022 5.0039e-20)
(1.04644 0.135915 0)
(1.16992 0.167099 7.54357e-20)
(1.25157 0.188356 -1.05258e-19)
(1.29834 0.200062 -6.15285e-20)
(1.31954 0.204014 2.78934e-20)
(1.32405 0.202438 -4.4594e-20)
(1.31887 0.197336 1.08313e-19)
(1.30877 0.190214 5.44959e-20)
(1.29661 0.182067 -3.77757e-20)
(1.28394 0.173489 -3.44999e-21)
(1.27147 0.164814 -1.04339e-19)
(1.25948 0.156226 4.75683e-20)
(1.24806 0.147828 -1.11832e-21)
(1.2372 0.139685 0)
(1.22684 0.131845 -3.30925e-20)
(1.21693 0.124338 0)
(1.20739 0.117159 7.51658e-20)
(1.19815 0.110307 -8.96134e-20)
(1.18907 0.104033 4.08656e-20)
(0.0928667 -0.00253671 -1.61602e-20)
(0.31003 0.00761357 -7.87631e-20)
(0.545659 0.044225 8.94622e-20)
(0.773538 0.0926826 5.27569e-20)
(0.970073 0.141166 -2.52504e-20)
(1.12122 0.181898 4.23692e-20)
(1.22436 0.211005 -2.06102e-20)
(1.28562 0.228116 3.43548e-20)
(1.31524 0.235136 0)
(1.32384 0.234828 7.81011e-20)
(1.32006 0.229817 -3.09059e-21)
(1.30995 0.222121 -6.32598e-20)
(1.29719 0.213078 2.72138e-20)
(1.28376 0.203482 -3.08566e-20)
(1.27057 0.193764 -1.18826e-20)
(1.25799 0.184145 1.35595e-20)
(1.24612 0.174743 -1.05945e-20)
(1.23494 0.165622 -5.74733e-20)
(1.22441 0.156827 3.52686e-20)
(1.21444 0.148386 7.28739e-21)
(1.20496 0.14031 6.43708e-21)
(1.19587 0.132581 5.68691e-21)
(1.18709 0.125277 0)
(1.17846 0.118629 0)
(0.116999 0.00333317 1.61714e-20)
(0.369743 0.0279822 -1.62392e-20)
(0.625889 0.0790274 -2.97891e-20)
(0.857981 0.13778 0)
(1.04485 0.190704 -1.25112e-20)
(1.17799 0.230731 -1.1218e-20)
(1.26086 0.255915 -1.92697e-20)
(1.30399 0.267859 0)
(1.31978 0.269849 0)
(1.31906 0.265322 0)
(1.30968 0.257045 0)
(1.29656 0.246892 0)
(1.28238 0.23598 -1.71475e-20)
(1.2684 0.224905 7.82327e-21)
(1.25512 0.213963 1.36569e-20)
(1.24268 0.203291 6.37976e-21)
(1.23109 0.192959 1.59204e-20)
(1.22027 0.183005 0)
(1.21016 0.173454 -3.86699e-21)
(1.20066 0.164322 -3.66838e-21)
(1.19168 0.155598 -6.44728e-21)
(1.18311 0.147273 -5.69595e-21)
(1.17484 0.139507 0)
(1.16674 0.132335 4.14659e-21)
(-0.00241951 0.0488774 9.64887e-21)
(-0.00829442 0.113892 -9.97653e-21)
(-0.0174366 0.15524 -1.88504e-20)
(-0.0286933 0.17881 0)
(-0.0412008 0.189629 -2.5122e-20)
(-0.0543877 0.191837 7.81385e-21)
(-0.0677817 0.18855 -1.5073e-20)
(-0.0810075 0.181845 0)
(-0.093787 0.172882 0)
(-0.105916 0.162115 0)
(-0.117239 0.14952 0)
(-0.12763 0.134796 0)
(-0.136977 0.117532 -2.32966e-22)
(-0.145173 0.097301 -1.02511e-20)
(-0.152109 0.0737341 2.02256e-20)
(-0.157681 0.0465552 2.85708e-20)
(-0.161841 0.0155976 9.51382e-21)
(-0.164384 -0.0192237 0)
(-0.16513 -0.0576502 7.82284e-21)
(-0.164101 -0.0993091 -2.27133e-20)
(-0.161235 -0.143594 -1.43777e-20)
(-0.156528 -0.189664 -1.33707e-20)
(-0.150035 -0.236436 0)
(-0.142049 -0.282442 0)
(-0.00519552 0.0506698 -2.92682e-20)
(-0.0135883 0.119384 5.01764e-20)
(-0.022331 0.164196 -1.93675e-20)
(-0.0315509 0.190675 -3.61633e-20)
(-0.0411023 0.203686 5.08568e-20)
(-0.0507781 0.207351 -3.24043e-20)
(-0.060307 0.20486 4.55457e-20)
(-0.0694042 0.198409 2.9499e-20)
(-0.0778091 0.189282 0)
(-0.0852979 0.178035 -2.62187e-20)
(-0.0916852 0.164721 -7.40943e-22)
(-0.0968196 0.149091 2.30735e-20)
(-0.100576 0.130754 3.4481e-20)
(-0.102851 0.109293 4.39971e-20)
(-0.103553 0.0843281 -1.95296e-20)
(-0.102609 0.0555706 -5.86444e-20)
(-0.0999651 0.0228535 1.98174e-20)
(-0.0955488 -0.013793 -7.28129e-20)
(-0.0892934 -0.0542429 0)
(-0.0812399 -0.0980581 1.53452e-20)
(-0.0714572 -0.144584 1.43546e-20)
(-0.0600504 -0.19285 1.33491e-20)
(-0.0468799 -0.241461 0)
(-0.0318905 -0.2884 0)
(-0.00790823 0.0504804 0)
(-0.0188551 0.120678 1.0435e-19)
(-0.0271311 0.167942 -3.92603e-20)
(-0.0340424 0.197026 3.67585e-20)
(-0.0401329 0.212305 -1.05353e-19)
(-0.0455665 0.217668 0)
(-0.0502997 0.216245 -6.32561e-20)
(-0.0541695 0.210282 3.00279e-20)
(-0.056959 0.201167 -5.7696e-20)
(-0.0584425 0.18958 2.83591e-20)
(-0.0584135 0.175684 1.57586e-19)
(-0.0566968 0.159314 -7.41708e-20)
(-0.0531525 0.140142 -1.19558e-19)
(-0.0476731 0.117787 -4.82572e-20)
(-0.0401815 0.0918929 -1.71895e-21)
(-0.0306328 0.0621835 1.67446e-19)
(-0.0190157 0.0284994 -7.93373e-20)
(-0.0053392 -0.0091579 -1.90546e-21)
(0.0104245 -0.0506034 0)
(0.0281442 -0.0954262 -6.98743e-20)
(0.0475759 -0.142957 0)
(0.0684788 -0.192174 -5.76483e-20)
(0.0909742 -0.241502 2.20495e-19)
(0.11653 -0.288616 -2.81401e-21)
(-0.0102809 0.0483756 0)
(-0.0236063 0.117695 9.85444e-22)
(-0.031444 0.166114 4.06012e-20)
(-0.0360206 0.197205 -3.8466e-20)
(-0.0384491 0.214595 3.5083e-20)
(-0.0392384 0.22174 2.04094e-19)
(-0.0385878 0.22157 -6.4063e-20)
(-0.0364894 0.216293 -6.17234e-20)
(-0.0328079 0.207365 1.16497e-19)
(-0.0273488 0.195582 -1.67566e-19)
(-0.0199083 0.181232 5.31003e-20)
(-0.010303 0.164264 5.16297e-20)
(0.00161559 0.144436 0)
(0.0159573 0.121429 4.63781e-20)
(0.0327939 0.0949278 0)
(0.052155 0.0646815 8.77222e-20)
(0.0740242 0.0305471 -1.67573e-19)
(0.0983594 -0.00745629 3.66007e-20)
(0.125081 -0.0491272 1.49826e-19)
(0.154 -0.0940712 6.97842e-20)
(0.184781 -0.141583 0)
(0.217054 -0.190637 -1.84287e-19)
(0.250055 -0.239626 5.80542e-20)
(0.28908 -0.285586 0)
(-0.0121003 0.0446554 0)
(-0.0274473 0.110819 -1.3018e-19)
(-0.0349628 0.158879 -4.11534e-20)
(-0.0374102 0.191059 -7.73212e-20)
(-0.0362914 0.210092 7.28014e-20)
(-0.0323938 0.218862 -6.83634e-20)
(-0.0261516 0.219974 1.31525e-19)
(-0.0177367 0.215504 6.32436e-20)
(-0.00713396 0.206913 -1.76581e-19)
(0.00578097 0.195086 1.14402e-19)
(0.021178 0.180429 -1.62672e-19)
(0.0392304 0.163015 3.66433e-19)
(0.0600894 0.142706 -1.9773e-19)
(0.0838746 0.119259 9.63929e-20)
(0.110669 0.0924183 2.79099e-19)
(0.140509 0.0619745 -8.39851e-20)
(0.173385 0.0278179 -8.19353e-20)
(0.209223 -0.0100134 -7.94073e-20)
(0.247857 -0.0512977 0)
(0.288997 -0.0955668 -1.44973e-19)
(0.332045 -0.142075 -1.34355e-19)
(0.376897 -0.189648 1.9093e-19)
(0.419764 -0.237254 2.27777e-19)
(0.474488 -0.280135 -2.13849e-19)
(-0.0132659 0.0397995 0)
(-0.0301439 0.100849 -1.77687e-19)
(-0.0374916 0.146937 -4.32392e-22)
(-0.0381772 0.178998 1.56774e-19)
(-0.0338734 0.198864 0)
(-0.025551 0.208794 0)
(-0.0138434 0.210984 0)
(0.000895458 0.207294 -6.34805e-20)
(0.0185389 0.19912 -1.7364e-21)
(0.0391143 0.187381 1.13337e-19)
(0.0627375 0.172576 -1.66019e-19)
(0.0895627 0.154884 -1.69356e-21)
(0.119745 0.134272 0)
(0.153437 0.11057 -9.63351e-20)
(0.190757 0.0836162 9.50465e-20)
(0.231768 0.0532557 -2.64842e-19)
(0.276451 0.0194203 3.41285e-19)
(0.324664 -0.017804 8.41581e-20)
(0.376077 -0.0581192 2.11211e-21)
(0.430214 -0.10093 -2.89388e-19)
(0.48576 -0.145498 -1.34052e-19)
(0.543545 -0.190016 4.33989e-19)
(0.594493 -0.235126 -2.8764e-19)
(0.66371 -0.272654 0)
(-0.013813 0.0343931 8.81892e-20)
(-0.0316724 0.0888833 8.92055e-20)
(-0.0389675 0.131441 -8.46771e-20)
(-0.0382816 0.16198 -1.58362e-19)
(-0.0312462 0.181566 1.49097e-19)
(-0.0189075 0.191868 -1.40944e-19)
(-0.00203532 0.19465 1.9913e-19)
(0.0188664 0.191501 -6.36461e-20)
(0.0435413 0.183686 1.19211e-19)
(0.0719257 0.172098 0)
(0.10409 0.157277 1.11385e-19)
(0.140187 0.139477 -2.06893e-19)
(0.180375 0.118741 2.02898e-19)
(0.224854 0.0950397 -1.90556e-19)
(0.273801 0.0682653 0)
(0.327213 0.0383255 1.76449e-19)
(0.384956 0.00524849 3.38749e-19)
(0.446655 -0.0307566 -3.19018e-19)
(0.511551 -0.0692746 -1.49889e-19)
(0.578771 -0.109473 -1.43434e-19)
(0.645796 -0.150835 4.00334e-19)
(0.714474 -0.190385 1.17062e-19)
(0.770499 -0.231429 -1.12937e-19)
(0.847893 -0.261134 9.68614e-20)
(-0.0139036 0.0290256 -8.82014e-20)
(-0.032206 0.0761321 2.72168e-19)
(-0.0394257 0.113825 -8.5932e-20)
(-0.0375893 0.141408 1.59532e-19)
(-0.0281241 0.159423 -1.50197e-19)
(-0.0120482 0.169065 -3.61401e-23)
(0.00981685 0.171703 6.64742e-20)
(0.036887 0.168641 2.53141e-19)
(0.0688332 0.16097 2.64217e-21)
(0.105545 0.149506 -1.12821e-19)
(0.147078 0.134782 0)
(0.193594 0.117098 -1.05433e-19)
(0.245324 0.0965957 1.96994e-19)
(0.302395 0.0733086 1.92284e-19)
(0.364804 0.0471932 -9.02281e-20)
(0.432357 0.0183141 -1.60333e-21)
(0.504484 -0.0131505 -8.36555e-20)
(0.580197 -0.0468295 1.54742e-19)
(0.657923 -0.0821859 1.4985e-19)
(0.736036 -0.118119 -1.40324e-19)
(0.810888 -0.154489 1.24948e-19)
(0.884287 -0.187219 -1.14047e-19)
(0.940268 -0.222468 0)
(1.01408 -0.242561 -9.6829e-20)
(-0.0137795 0.0241897 8.94358e-20)
(-0.0320229 0.0637057 -9.11632e-20)
(-0.0388785 0.095558 8.61184e-20)
(-0.0357116 0.118925 0)
(-0.0236542 0.134111 0)
(-0.0036098 0.142002 1.41966e-19)
(0.0236467 0.14366 -1.33233e-19)
(0.057551 0.14013 1.26533e-19)
(0.0977882 0.132326 -5.95654e-19)
(0.144263 0.120963 -1.19166e-21)
(0.197036 0.106547 1.07204e-19)
(0.256226 0.0893982 0)
(0.321887 0.0697035 -1.97998e-19)
(0.393882 0.0475569 3.75015e-19)
(0.471721 0.0230938 -2.67869e-19)
(0.554476 -0.00349052 -4.28648e-19)
(0.640676 -0.0318788 -2.37734e-21)
(0.728309 -0.0615714 2.98799e-19)
(0.814805 -0.0919638 0)
(0.897591 -0.121909 0)
(0.972731 -0.151512 -1.24951e-19)
(1.04084 -0.176506 1.14055e-19)
(1.08926 -0.204723 -3.89726e-19)
(1.14583 -0.215478 3.65197e-19)
(-0.0136797 0.0201943 0)
(-0.0313408 0.0524177 0)
(-0.0371199 0.0779045 -2.5861e-19)
(-0.0317935 0.0961625 8.22432e-20)
(-0.0161823 0.107538 7.69314e-22)
(0.00898735 0.112786 1.42758e-19)
(0.043079 0.112773 0)
(0.0856357 0.108355 -1.25549e-19)
(0.136407 0.100296 1.18896e-19)
(0.195288 0.0892167 -2.25263e-19)
(0.262199 0.075578 -1.27397e-21)
(0.336933 0.0597032 2.04592e-19)
(0.418987 0.0418281 2.71477e-21)
(0.507402 0.0221465 1.87835e-19)
(0.60065 0.000870298 -2.61653e-19)
(0.696598 -0.0217323 0)
(0.792565 -0.0452969 3.12755e-19)
(0.885469 -0.0693527 -4.43117e-19)
(0.972072 -0.0933326 1.32867e-19)
(1.04936 -0.116436 0)
(1.11433 -0.13861 1.11334e-19)
(1.16673 -0.156782 4.0825e-19)
(1.19991 -0.178013 -3.83199e-19)
(1.23085 -0.182402 -4.00912e-19)
(-0.0137361 0.0171087 2.72008e-19)
(-0.030122 0.0426493 -3.72941e-19)
(-0.033528 0.0617195 1.25653e-21)
(-0.0243632 0.0744935 8.25435e-20)
(-0.00318967 0.0815787 -1.53176e-19)
(0.0294636 0.0837583 -1.4239e-19)
(0.0731288 0.0818239 2.67282e-19)
(0.127444 0.0765228 2.09735e-23)
(0.192108 0.0685131 -2.36452e-19)
(0.266743 0.0583326 4.48561e-19)
(0.350717 0.0463957 2.60852e-21)
(0.442953 0.0330097 -2.00058e-19)
(0.541778 0.0184018 0)
(0.644863 0.00275462 0)
(0.749262 -0.0137572 -8.65685e-20)
(0.851569 -0.0309374 -1.58243e-19)
(0.948184 -0.0485343 -3.00111e-19)
(1.03561 -0.0662702 2.81722e-19)
(1.1109 -0.0837164 -1.32952e-19)
(1.17181 -0.100625 2.3329e-19)
(1.21732 -0.116415 -1.19193e-19)
(1.24777 -0.130332 1.81749e-19)
(1.26236 -0.145686 -4.403e-19)
(1.26985 -0.148455 8.02126e-20)
(-0.0138809 0.0147583 9.16007e-20)
(-0.0279219 0.0343169 0)
(-0.0269607 0.0473507 1.75904e-19)
(-0.0113563 0.0548503 -1.65699e-19)
(0.0184664 0.0578054 1.53321e-19)
(0.0621064 0.0571422 0)
(0.119143 0.0536677 0)
(0.189069 0.0480799 -1.26333e-19)
(0.271133 0.0409596 -3.52707e-22)
(0.364135 0.0327592 1.11315e-19)
(0.466235 0.0237977 -1.05838e-19)
(0.574856 0.0142687 1.98778e-19)
(0.686704 0.00426323 0)
(0.79794 -0.00619871 3.54782e-19)
(0.904466 -0.017128 -6.65445e-19)
(1.0023 -0.028528 4.70386e-19)
(1.08795 -0.0403517 2.86575e-19)
(1.15881 -0.0525186 -2.6904e-19)
(1.21343 -0.0647635 0)
(1.25148 -0.0771632 0)
(1.27428 -0.0886722 0)
(1.28331 -0.100978 0)
(1.2821 -0.111015 8.36851e-20)
(1.27479 -0.118704 -2.78462e-19)
(-0.132441 -0.333527 -7.16235e-21)
(-0.126978 -0.393955 7.21799e-21)
(-0.119094 -0.450042 -2.0913e-22)
(-0.109907 -0.49811 0)
(-0.0984876 -0.534789 -5.14262e-21)
(-0.0829281 -0.55613 9.73193e-21)
(-0.0606152 -0.557708 -1.60746e-22)
(-0.0284087 -0.535257 -4.31601e-21)
(0.0152161 -0.485073 0)
(0.0698229 -0.405139 0)
(0.13356 -0.297413 -2.38239e-22)
(0.202847 -0.167242 -2.3622e-22)
(0.27447 -0.0223567 -4.16088e-21)
(0.346243 0.13028 3.82055e-21)
(0.41621 0.278452 0)
(0.481514 0.406012 0)
(0.537821 0.498888 2.10833e-21)
(0.581113 0.552068 -3.60673e-22)
(0.610121 0.570123 -1.55164e-21)
(0.625974 0.564415 -7.66462e-23)
(0.62723 0.552711 0)
(0.610047 0.551775 0)
(0.577848 0.558433 0)
(0.548051 0.539924 0)
(0.543181 0.454337 0)
(0.571963 0.28817 0)
(0.625311 0.0710923 6.56299e-22)
(0.687876 -0.143847 -1.08873e-21)
(0.745241 -0.310538 0)
(0.788158 -0.413043 0)
(0.812595 -0.458754 -3.93822e-22)
(0.823454 -0.466098 3.82753e-22)
(0.823163 -0.457786 1.42474e-22)
(0.80469 -0.461335 0)
(0.763719 -0.476199 0)
(0.714258 -0.460325 3.25429e-22)
(0.682895 -0.366344 -3.16344e-22)
(0.68423 -0.187547 0)
(0.711548 0.0152705 3.56714e-22)
(0.753477 0.193629 -5.01348e-22)
(0.795786 0.301609 1.24727e-22)
(0.828794 0.366363 0)
(0.834289 0.399912 -1.71139e-22)
(0.804526 0.429223 1.66417e-22)
(0.759927 0.419068 0)
(0.729333 0.322698 0)
(0.731564 0.169445 -9.81518e-23)
(0.765952 -0.0359139 2.91794e-22)
(0.805512 -0.159397 0)
(0.831729 -0.281121 0)
(0.818726 -0.330343 -4.89573e-23)
(0.784866 -0.36397 2.36374e-24)
(0.768336 -0.334182 -2.45293e-24)
(0.77537 -0.166726 3.22975e-23)
(0.799544 -0.0723557 0)
(0.809523 0.167636 0)
(0.801902 0.240196 0)
(0.790271 0.324464 0)
(0.793421 0.347435 0)
(0.782518 0.0623457 0)
(-0.0182737 -0.338877 -7.90977e-22)
(-0.0159651 -0.399235 -2.97528e-20)
(-0.0137085 -0.455725 2.39325e-21)
(-0.0139376 -0.504426 2.56232e-20)
(-0.0166802 -0.542815 3.46574e-22)
(-0.0203391 -0.567888 0)
(-0.0221915 -0.575823 -1.65493e-20)
(-0.0177631 -0.562925 3.18153e-20)
(-0.00190767 -0.524095 -1.52506e-20)
(0.0281425 -0.455351 1.42778e-20)
(0.071939 -0.356749 -1.36389e-20)
(0.126268 -0.230095 1.36729e-20)
(0.189471 -0.0871597 -1.32023e-20)
(0.258815 0.0655389 -3.54551e-22)
(0.330372 0.21638 -1.07635e-20)
(0.400953 0.349957 1.04598e-20)
(0.466144 0.452848 -7.43787e-21)
(0.521267 0.518563 7.03796e-21)
(0.56366 0.54931 -5.28521e-21)
(0.591671 0.556035 9.85483e-21)
(0.601629 0.557016 -4.59518e-21)
(0.59148 0.566482 -2.87113e-22)
(0.56951 0.575718 -5.48729e-21)
(0.555996 0.549021 1.17275e-20)
(0.569961 0.448699 -6.21431e-21)
(0.613889 0.268686 4.94694e-22)
(0.676062 0.0429949 7.96623e-21)
(0.74069 -0.174008 -4.28029e-22)
(0.793787 -0.336174 -1.22311e-20)
(0.828722 -0.429821 9.68259e-21)
(0.843323 -0.466758 -4.15467e-21)
(0.843988 -0.46762 3.49093e-22)
(0.835661 -0.452731 -1.42753e-22)
(0.813051 -0.44779 2.41812e-22)
(0.769117 -0.456328 0)
(0.714029 -0.442402 0)
(0.674324 -0.359016 -1.31034e-21)
(0.667907 -0.193041 9.56824e-22)
(0.692152 0.000443117 9.58898e-22)
(0.735156 0.175721 -4.94591e-24)
(0.782844 0.286186 -1.17244e-21)
(0.82022 0.358769 1.90986e-22)
(0.829435 0.402995 0)
(0.802248 0.44025 0)
(0.762428 0.430732 0)
(0.737286 0.327824 0)
(0.741733 0.16554 4.6713e-22)
(0.77689 -0.0456066 -1.96522e-22)
(0.81392 -0.168316 0)
(0.840897 -0.282678 0)
(0.826253 -0.324896 0)
(0.791979 -0.357599 -7.45486e-23)
(0.773831 -0.333097 1.8456e-23)
(0.777442 -0.17031 -7.09752e-23)
(0.799734 -0.0761223 0)
(0.804982 0.167571 0)
(0.798894 0.241596 3.79694e-23)
(0.78641 0.325251 8.47287e-23)
(0.791558 0.347998 0)
(0.783408 0.0634427 0)
(0.133286 -0.338794 -3.08784e-21)
(0.135692 -0.396755 -6.79771e-20)
(0.135224 -0.451004 5.71182e-20)
(0.129836 -0.497159 -5.34288e-20)
(0.117966 -0.533311 -3.48861e-22)
(0.100232 -0.558246 0)
(0.0774716 -0.570288 -3.17986e-20)
(0.0542997 -0.566118 3.10798e-20)
(0.0382679 -0.540413 2.15136e-22)
(0.0352467 -0.48723 3.23573e-22)
(0.0513768 -0.404487 3.05372e-22)
(0.0830702 -0.289471 3.87697e-22)
(0.129437 -0.153257 -2.09961e-20)
(0.190699 -0.00295953 2.07613e-20)
(0.259746 0.147823 0)
(0.332005 0.285857 4.38328e-22)
(0.40298 0.397668 -1.2531e-20)
(0.467365 0.475591 1.23674e-20)
(0.520788 0.520118 0)
(0.558876 0.541362 0)
(0.576929 0.556279 -9.35169e-21)
(0.575416 0.575354 1.93191e-20)
(0.566403 0.585487 -2.10701e-20)
(0.57073 0.55064 -2.04676e-21)
(0.602987 0.438691 2.83594e-20)
(0.660808 0.249433 -3.24442e-20)
(0.730657 0.0197219 3.15106e-20)
(0.796266 -0.197347 -2.35841e-21)
(0.844137 -0.354515 -1.40876e-20)
(0.87033 -0.440199 0)
(0.87513 -0.469668 0)
(0.865976 -0.465606 1.85201e-21)
(0.849783 -0.44587 -2.48161e-21)
(0.823476 -0.433452 -1.52636e-23)
(0.777756 -0.43567 1.81759e-21)
(0.718294 -0.423499 -1.76647e-21)
(0.670681 -0.351216 0)
(0.656103 -0.199246 3.18206e-22)
(0.676683 -0.0160178 2.55798e-21)
(0.720148 0.155261 -4.58389e-21)
(0.772478 0.268327 1.86849e-21)
(0.813585 0.349361 1.62691e-22)
(0.826502 0.404725 -1.70557e-21)
(0.802466 0.450033 1.33553e-21)
(0.767959 0.441604 3.94096e-22)
(0.748527 0.333104 4.67897e-22)
(0.755172 0.162948 -4.68321e-22)
(0.790564 -0.0537405 0)
(0.824467 -0.176251 0)
(0.851709 -0.283661 -1.08296e-21)
(0.835388 -0.319113 4.89211e-22)
(0.800421 -0.350912 -3.32945e-22)
(0.780432 -0.332 3.94284e-22)
(0.780674 -0.173707 4.32926e-22)
(0.801375 -0.0796961 -1.27669e-22)
(0.801878 0.167472 1.83536e-22)
(0.79707 0.242924 -1.51326e-22)
(0.783399 0.325781 5.45478e-23)
(0.790688 0.348237 0)
(0.785391 0.0644136 0)
(0.305846 -0.335507 -1.44835e-19)
(0.310254 -0.391992 1.16372e-20)
(0.308818 -0.44252 1.26504e-19)
(0.301568 -0.483237 -8.23605e-22)
(0.285717 -0.513116 0)
(0.260275 -0.532455 0)
(0.225112 -0.542024 -5.84639e-20)
(0.182564 -0.54062 7.99146e-21)
(0.139076 -0.525456 6.70684e-20)
(0.101365 -0.490661 -2.05934e-21)
(0.0814291 -0.428357 -1.7654e-20)
(0.0820346 -0.336119 -1.54396e-20)
(0.103216 -0.214341 1.54008e-20)
(0.147448 -0.0722254 0)
(0.207399 0.0752195 -1.3104e-20)
(0.277229 0.215746 1.19747e-20)
(0.350161 0.334978 0)
(0.420252 0.424519 0)
(0.4813 0.48342 8.05747e-21)
(0.52696 0.520134 2.10644e-22)
(0.55268 0.548899 -7.5469e-21)
(0.561394 0.576114 -9.99131e-21)
(0.567389 0.586018 1.00555e-20)
(0.590233 0.544569 -1.42834e-20)
(0.639776 0.425216 -2.30744e-21)
(0.710258 0.231479 1.58033e-20)
(0.786622 0.000403237 2.20362e-21)
(0.852704 -0.214502 -2.31045e-23)
(0.895377 -0.366527 0)
(0.91252 -0.445212 9.10565e-21)
(0.907693 -0.468271 -9.32303e-21)
(0.889264 -0.460445 3.5357e-22)
(0.865371 -0.437585 0)
(0.835469 -0.419032 -2.29302e-22)
(0.789034 -0.414729 3.20469e-21)
(0.726896 -0.403276 -6.1693e-21)
(0.67229 -0.342097 -9.23037e-22)
(0.649327 -0.205371 -3.36805e-22)
(0.665492 -0.0340103 3.49401e-21)
(0.708465 0.132595 4.84427e-22)
(0.764575 0.248249 -2.93485e-21)
(0.808785 0.338073 2.49582e-21)
(0.825391 0.404797 1.48031e-23)
(0.805025 0.458215 1.51783e-21)
(0.776204 0.45151 -1.87115e-21)
(0.762716 0.338641 -3.52732e-21)
(0.771572 0.161855 9.08425e-22)
(0.806753 -0.0600931 1.77938e-21)
(0.837025 -0.183147 -3.12042e-21)
(0.864 -0.284185 1.93368e-21)
(0.845967 -0.313056 -3.38783e-22)
(0.810026 -0.343825 5.00032e-22)
(0.787907 -0.330752 3.06914e-22)
(0.784861 -0.176923 -5.74896e-22)
(0.804361 -0.0831334 -8.89971e-24)
(0.800169 0.167337 -1.35307e-22)
(0.796412 0.24424 0)
(0.781248 0.326075 -6.24008e-23)
(0.790853 0.348132 1.25512e-22)
(0.788499 0.0652565 0)
(0.48757 -0.328736 1.47119e-19)
(0.491821 -0.384256 -2.76892e-19)
(0.490346 -0.431431 1.28213e-19)
(0.481736 -0.467019 9.93855e-20)
(0.463677 -0.490673 -1.80067e-19)
(0.435467 -0.502447 1.37861e-20)
(0.396275 -0.503784 6.58324e-20)
(0.345707 -0.497123 4.17751e-20)
(0.286022 -0.483909 -4.0918e-20)
(0.222895 -0.461864 0)
(0.167958 -0.420932 -2.24369e-20)
(0.131615 -0.356359 4.19413e-20)
(0.1194 -0.259007 -1.97267e-20)
(0.135837 -0.134974 0)
(0.177686 0.00424068 0)
(0.238094 0.142699 3.19706e-22)
(0.307699 0.266852 -1.4063e-20)
(0.379069 0.366811 1.36616e-20)
(0.443988 0.439698 0)
(0.49504 0.491616 1.39944e-20)
(0.528448 0.533246 -2.86355e-20)
(0.548907 0.5672 3.31324e-20)
(0.571304 0.57672 -4.06611e-20)
(0.61248 0.531325 -5.9207e-21)
(0.677606 0.409298 6.05801e-20)
(0.758974 0.215462 -3.29454e-20)
(0.841867 -0.0144793 -1.13368e-21)
(0.90903 -0.225232 -1.43975e-20)
(0.946405 -0.371803 2.67113e-21)
(0.954406 -0.444477 1.19626e-20)
(0.940258 -0.462512 4.81639e-22)
(0.913373 -0.452155 -4.99674e-21)
(0.882281 -0.427847 8.68404e-21)
(0.848868 -0.404872 -4.12203e-21)
(0.802536 -0.394348 0)
(0.739448 -0.382449 -3.24797e-21)
(0.679275 -0.331592 3.2072e-21)
(0.647826 -0.210874 -3.01755e-21)
(0.658748 -0.0528832 3.75808e-21)
(0.700192 0.108141 -3.47205e-22)
(0.75895 0.226087 0)
(0.805634 0.324711 -2.92622e-22)
(0.825903 0.402835 9.25917e-22)
(0.809657 0.464469 0)
(0.786757 0.460345 4.6481e-21)
(0.779318 0.344413 -1.63714e-21)
(0.790476 0.162391 1.09974e-21)
(0.825187 -0.0644638 1.07092e-21)
(0.851434 -0.188855 0)
(0.877581 -0.284197 0)
(0.85783 -0.306692 -1.18265e-21)
(0.820669 -0.336251 1.58731e-21)
(0.796052 -0.329271 -7.32315e-22)
(0.789785 -0.179999 1.76745e-22)
(0.808552 -0.0865008 2.89474e-22)
(0.799794 0.167167 1.35437e-22)
(0.796895 0.245598 -1.94452e-22)
(0.779967 0.326147 0)
(0.792084 0.347655 -1.88865e-22)
(0.792757 0.0659638 -7.96456e-23)
(0.67083 -0.318987 1.46435e-19)
(0.672172 -0.371562 -1.45723e-19)
(0.669094 -0.414666 9.67972e-22)
(0.657633 -0.44605 -8.11231e-22)
(0.636045 -0.465619 7.02736e-22)
(0.605047 -0.472567 -5.73628e-22)
(0.564653 -0.46727 8.64783e-22)
(0.513869 -0.452516 0)
(0.451882 -0.432725 -4.64092e-22)
(0.37966 -0.410791 3.14868e-22)
(0.303702 -0.382709 2.03858e-22)
(0.235285 -0.341234 -2.54342e-22)
(0.185988 -0.274187 0)
(0.166219 -0.177878 0)
(0.178045 -0.0573603 6.53833e-23)
(0.21799 0.0720869 0)
(0.276783 0.196778 -6.95678e-23)
(0.343603 0.304278 0)
(0.408483 0.389428 -8.77787e-21)
(0.46327 0.455229 1.88545e-20)
(0.504633 0.508267 -2.27438e-20)
(0.537972 0.547915 1.24682e-20)
(0.577292 0.557705 2.08624e-20)
(0.635765 0.511465 -2.0257e-20)
(0.71451 0.391418 -3.31762e-20)
(0.805478 0.201592 3.23863e-20)
(0.894872 -0.0239678 0)
(0.963575 -0.229712 1.02994e-21)
(0.996121 -0.370634 0)
(0.995251 -0.438366 0)
(0.972251 -0.452875 1.25622e-20)
(0.937868 -0.441087 -1.31276e-20)
(0.90026 -0.416728 5.02146e-22)
(0.86335 -0.391134 4.0641e-22)
(0.817648 -0.375069 -2.9787e-22)
(0.755273 -0.361543 -2.38922e-21)
(0.691318 -0.319635 2.32006e-21)
(0.651789 -0.215186 -3.13871e-21)
(0.656569 -0.0718915 2.6813e-21)
(0.695116 0.0823129 6.35323e-22)
(0.755328 0.201945 -2.2845e-21)
(0.803891 0.309063 -3.28632e-22)
(0.827763 0.398465 1.64659e-21)
(0.816 0.468509 0)
(0.799083 0.467969 -1.72274e-21)
(0.79773 0.350452 3.55737e-21)
(0.81135 0.16456 -4.48047e-21)
(0.845494 -0.0667171 -1.07771e-21)
(0.86748 -0.193229 0)
(0.892223 -0.283677 4.37041e-22)
(0.870792 -0.300031 -1.04317e-21)
(0.832243 -0.328096 -1.22786e-23)
(0.804701 -0.327439 -1.618e-22)
(0.795222 -0.182983 1.73117e-22)
(0.813779 -0.0898781 -2.24638e-22)
(0.800673 0.166944 0)
(0.79849 0.247037 1.94543e-22)
(0.779567 0.326009 0)
(0.794407 0.346775 0)