/*--------------------------------*- C++ -*----------------------------------*\
| =========                 |                                                 |
| \\      /  F ield         | OpenFOAM: The Open Source CFD Toolbox           |
|  \\    /   O peration     | Version:  2512                                  |
|   \\  /    A nd           | Website:  www.openfoam.com                      |
|    \\/     M anipulation  |                                                 |
\*---------------------------------------------------------------------------*/
FoamFile
{
    version     2.0;
    format      ascii;
    arch        "LSB;label=32;scalar=64";
    class       volVectorField;
    location    "132";
    object      U;
}
// * * * * * * * * * * * * * * * * * * * * * * * * * * * * * * * * * * * * * //

dimensions      [0 1 -1 0 0 0 0];

internalField   nonuniform List<vector> 
13248
(
(-0.0143802 0.0127365 8.49184e-20)
(-0.0266372 0.0267267 0)
(-0.0224621 0.0340992 -1.60155e-19)
(-0.00204321 0.0371941 1.50864e-19)
(0.03452 0.0376304 1.40835e-19)
(0.087067 0.0365441 0)
(0.155213 0.0347454 0)
(0.238145 0.0328154 3.37994e-19)
(0.334395 0.0311408 -1.02159e-21)
(0.44167 0.029914 -2.96372e-19)
(0.556797 0.0291283 2.7769e-19)
(0.675832 0.0285875 -1.73747e-19)
(0.794318 0.0279407 0)
(0.907667 0.0267408 -3.06984e-19)
(1.01158 0.0245217 5.7566e-19)
(1.10245 0.0208785 -1.37496e-19)
(1.17773 0.0155385 -2.48911e-19)
(1.23611 0.00839276 2.3369e-19)
(1.27763 -0.000426051 0)
(1.3035 -0.0109036 0)
(1.31604 -0.0219105 0)
(1.31731 -0.0361369 0)
(1.31096 -0.0445617 6.94252e-20)
(1.29648 -0.0732986 2.47396e-19)
(-0.0144564 0.0115369 -2.56427e-19)
(-0.0214517 0.0216027 1.74757e-19)
(-0.0074098 0.0251923 -1.71689e-21)
(0.0266615 0.02514 -2.30696e-19)
(0.0801454 0.0234229 -1.40681e-19)
(0.152305 0.0214346 -1.33248e-19)
(0.241855 0.0201015 -2.44051e-19)
(0.346625 0.0199779 2.31318e-19)
(0.463352 0.021284 0)
(0.587681 0.0239188 5.70011e-22)
(0.71443 0.0274887 1.4643e-21)
(0.838058 0.0313747 1.73951e-19)
(0.953249 0.0348356 0)
(1.05548 0.0371328 0)
(1.14148 0.0376508 2.09513e-19)
(1.2095 0.0359903 -3.93922e-19)
(1.25939 0.0320162 2.37064e-19)
(1.29243 0.0258553 -2.22585e-19)
(1.31096 0.0178358 -9.78166e-20)
(1.31794 0.00844102 -1.79707e-19)
(1.31636 -0.00181845 -7.37313e-20)
(1.30896 -0.0125524 -1.38872e-19)
(1.29751 -0.0217038 2.04002e-19)
(1.28419 -0.0350317 5.75979e-20)
(-0.0132151 0.00972284 0)
(-0.0119422 0.0156832 0)
(0.0155394 0.0162819 8.16428e-20)
(0.0671456 0.0144563 7.50942e-20)
(0.141323 0.0123389 -1.91919e-21)
(0.236129 0.0114396 -1.3837e-19)
(0.348566 0.0126361 0)
(0.474265 0.0162429 -1.1503e-19)
(0.607535 0.0220658 1.08703e-19)
(0.741808 0.0294715 1.03438e-21)
(0.870366 0.0375133 -1.86312e-19)
(0.987179 0.0451075 -1.71866e-19)
(1.08762 0.0512293 2.39048e-21)
(1.16894 0.0550817 -1.44132e-19)
(1.23036 0.0562059 3.44767e-19)
(1.27297 0.0545126 0)
(1.29921 0.0502416 -2.26088e-19)
(1.31234 0.0438578 1.10181e-19)
(1.31576 0.0359682 9.77445e-20)
(1.31251 0.0270935 0)
(1.30508 0.0180375 8.01516e-20)
(1.2949 0.00842478 -2.72249e-19)
(1.28327 0.00118859 2.55578e-19)
(1.27061 -0.0112255 1.58266e-19)
(-0.0101546 0.00724478 -9.08703e-20)
(0.00300996 0.00892661 -9.40311e-20)
(0.0476875 0.00742951 8.49064e-20)
(0.120419 0.00539955 0)
(0.21813 0.00485827 0)
(0.336857 0.00718216 -3.40208e-21)
(0.47101 0.0128996 0)
(0.613397 0.0217518 -3.53979e-19)
(0.755855 0.0328359 3.29089e-19)
(0.890309 0.0448215 -4.06327e-19)
(1.00992 0.0562353 9.32696e-20)
(1.10994 0.0657504 0)
(1.18818 0.0724125 1.56293e-19)
(1.24488 0.0757534 -2.89855e-19)
(1.28227 0.0757849 6.90845e-20)
(1.30379 0.0728958 1.78506e-19)
(1.31332 0.0676962 -7.34022e-21)
(1.3145 0.0608675 -1.98147e-19)
(1.31027 0.0530319 0)
(1.30276 0.0447253 0)
(1.2933 0.0363481 -7.1208e-20)
(1.2827 0.0280312 6.38393e-20)
(1.27145 0.0211309 2.29036e-19)
(1.25982 0.010821 -2.15059e-19)
(-0.00484696 0.00425373 -9.59423e-20)
(0.0243399 0.0017668 -9.56659e-20)
(0.0899768 -0.000656993 2.6892e-19)
(0.186814 -0.0010585 -1.63262e-19)
(0.309492 0.0021227 1.53666e-19)
(0.451118 0.00974574 2.79212e-19)
(0.602847 0.0215651 -1.97574e-19)
(0.754645 0.0363826 -2.4071e-19)
(0.89675 0.0524071 4.70372e-21)
(1.02121 0.0676949 3.07689e-19)
(1.12299 0.0805683 0)
(1.20032 0.0899076 8.49047e-20)
(1.25437 0.0952584 0)
(1.28838 0.0967655 -1.39306e-19)
(1.30667 0.0949914 1.96096e-19)
(1.31363 0.0906974 2.1005e-21)
(1.31307 0.0846563 -5.16369e-20)
(1.30789 0.0775317 9.73702e-20)
(1.30005 0.069839 8.37518e-20)
(1.29075 0.0619391 -7.5243e-20)
(1.28067 0.0541183 7.11924e-20)
(1.27017 0.0464316 -6.38243e-20)
(1.25946 0.0396881 0)
(1.24865 0.0306096 -4.81451e-20)
(0.00306742 0.00105116 9.59285e-20)
(0.0527327 -0.00495913 1.0084e-19)
(0.142832 -0.00671012 -9.01674e-20)
(0.265742 -0.00337245 1.68341e-19)
(0.41294 0.00567857 -1.58438e-19)
(0.573859 0.020268 1.43465e-19)
(0.736332 0.0389218 -6.89481e-20)
(0.888436 0.0592855 1.80679e-19)
(1.0206 0.0788044 -1.1372e-19)
(1.12707 0.0953369 2.01463e-19)
(1.20623 0.107538 -4.65054e-19)
(1.25998 0.114954 1.70875e-19)
(1.29251 0.117878 -1.50019e-19)
(1.30895 0.117071 1.40919e-19)
(1.31422 0.113469 1.2221e-19)
(1.31238 0.107963 1.07718e-19)
(1.30639 0.101276 -2.99523e-19)
(1.29816 0.0939407 1.861e-19)
(1.28883 0.0863194 -8.37567e-20)
(1.279 0.0786601 2.18652e-19)
(1.26896 0.0711246 -7.06084e-20)
(1.25884 0.0638213 -1.71957e-19)
(1.2487 0.0571228 1.58769e-19)
(1.23853 0.0489791 4.81317e-20)
(0.0138724 -0.0019557 0)
(0.0885317 -0.0101408 9.64772e-22)
(0.205963 -0.00914141 1.89164e-19)
(0.355456 0.00020049 -1.77312e-19)
(0.524526 0.0169637 -1.60197e-19)
(0.698727 0.0393817 2.97771e-19)
(0.863462 0.0644664 -1.38305e-19)
(1.00681 0.0888448 1.84228e-19)
(1.12158 0.109696 -4.03151e-21)
(1.20583 0.125302 -1.04399e-19)
(1.26193 0.135143 2.27905e-19)
(1.29493 0.139655 -3.36491e-19)
(1.31079 0.139823 0)
(1.31508 0.136803 -6.62621e-20)
(1.31227 0.131647 -1.77445e-19)
(1.30548 0.125179 5.57327e-20)
(1.2967 0.117982 2.16731e-21)
(1.28706 0.110437 -1.23544e-19)
(1.27713 0.102789 7.44087e-21)
(1.26717 0.0951951 1.43028e-19)
(1.25727 0.0877642 -6.40398e-20)
(1.24746 0.0805865 -2.43246e-20)
(1.23772 0.073762 7.50312e-20)
(1.22802 0.0662281 0)
(0.0277397 -0.0042897 0)
(0.13162 -0.0125355 5.12935e-20)
(0.278197 -0.00631346 -2.4666e-19)
(0.452972 0.0111986 8.98832e-20)
(0.639116 0.0368581 -8.45913e-20)
(0.818987 0.0669007 -7.73491e-20)
(0.977429 0.0969208 -1.36674e-19)
(1.10483 0.12308 6.82436e-20)
(1.19811 0.143003 5.93281e-20)
(1.25971 0.155948 0)
(1.2954 0.162444 1.35242e-19)
(1.31208 0.163735 -2.01463e-19)
(1.31616 0.161256 1.50013e-19)
(1.31269 0.156292 6.62986e-20)
(1.30517 0.149825 -5.45468e-20)
(1.29574 0.142529 -4.58441e-20)
(1.28562 0.134829 -4.29133e-20)
(1.27538 0.126985 1.27928e-19)
(1.26528 0.119155 0)
(1.25539 0.111444 6.46359e-20)
(1.24574 0.10393 5.45675e-20)
(1.23627 0.0966785 -1.35278e-19)
(1.22695 0.0896732 -9.27849e-20)
(1.2177 0.0825479 8.57574e-20)
(0.0446785 -0.00542857 -5.52314e-20)
(0.181325 -0.0108925 -2.08636e-21)
(0.357437 0.00321654 5.02325e-20)
(0.554296 0.0306466 1.40602e-19)
(0.751099 0.0654609 4.09283e-20)
(0.928684 0.101864 -7.90428e-20)
(1.07374 0.134592 7.21905e-20)
(1.18089 0.160155 -6.32713e-20)
(1.25191 0.177274 1.13362e-19)
(1.29308 0.186458 4.83221e-20)
(1.31232 0.189221 -1.37154e-19)
(1.31714 0.187361 4.04669e-20)
(1.31343 0.182491 6.92716e-20)
(1.30527 0.175832 -3.40331e-20)
(1.29512 0.168207 0)
(1.28435 0.160119 5.11053e-20)
(1.27361 0.15186 8.67812e-20)
(1.26314 0.143601 1.50482e-20)
(1.25305 0.135445 -7.25167e-20)
(1.24332 0.127465 3.0475e-20)
(1.23391 0.119717 0)
(1.22475 0.11223 -2.40496e-20)
(1.21579 0.104964 -2.27655e-20)
(1.20692 0.0979887 0)
(0.064477 -0.00483711 0)
(0.236358 -0.00407885 2.8933e-20)
(0.440769 0.0205029 5.36563e-20)
(0.65488 0.0588957 -1.43356e-19)
(0.85523 0.102121 4.62962e-20)
(1.0235 0.142822 0)
(1.15044 0.175782 6.95833e-20)
(1.23597 0.19866 -9.71379e-20)
(1.28635 0.211668 -5.66105e-20)
(1.31057 0.216552 2.55847e-20)
(1.31747 0.215563 -4.10655e-20)
(1.31415 0.210771 9.96497e-20)
(1.30555 0.203752 5.00642e-20)
(1.29468 0.195557 -3.47098e-20)
(1.28315 0.18682 -3.17548e-21)
(1.27174 0.177894 -9.58361e-20)
(1.26076 0.168973 4.3694e-20)
(1.25029 0.160165 -1.06333e-21)
(1.24033 0.151541 0)
(1.23082 0.14315 -3.05067e-20)
(1.2217 0.13503 0)
(1.21289 0.127183 6.94162e-20)
(1.20431 0.119613 -8.27628e-20)
(1.19584 0.112596 3.77637e-20)
(0.0866661 -0.00200826 -1.50672e-20)
(0.294849 0.00880803 -7.30366e-20)
(0.52471 0.0460879 8.31017e-20)
(0.75018 0.0956094 4.89171e-20)
(0.947271 0.145625 -2.33693e-20)
(1.10098 0.188156 3.92519e-20)
(1.20761 0.219027 -1.9069e-20)
(1.27236 0.237636 3.1736e-20)
(1.30503 0.245777 0)
(1.31605 0.246217 7.20455e-20)
(1.31415 0.241643 -2.90359e-21)
(1.30553 0.234156 -5.82681e-20)
(1.294 0.225161 2.50266e-20)
(1.28166 0.215499 -2.83456e-20)
(1.26947 0.205627 -1.08868e-20)
(1.25782 0.195782 1.24591e-20)
(1.24684 0.186087 -9.70795e-21)
(1.2365 0.17661 -5.27275e-20)
(1.22676 0.167399 3.23439e-20)
(1.21754 0.158487 6.67032e-21)
(1.20876 0.149889 5.89193e-21)
(1.20032 0.141593 5.20599e-21)
(1.19212 0.133678 0)
(1.18403 0.126398 0)
(0.110593 0.00350309 1.50777e-20)
(0.354594 0.0283628 -1.51165e-20)
(0.605707 0.0799514 -2.7701e-20)
(0.836282 0.13986 0)
(1.02436 0.194451 -1.16032e-20)
(1.16028 0.236323 -1.04391e-20)
(1.24641 0.263202 -1.78763e-20)
(1.29257 0.276499 0)
(1.31086 0.279445 0)
(1.31209 0.275525 0)
(1.30422 0.267587 0)
(1.29232 0.257589 0)
(1.27918 0.246706 -1.57706e-20)
(1.26614 0.235571 7.19286e-21)
(1.25374 0.224497 1.25346e-20)
(1.24214 0.213634 5.85693e-21)
(1.23134 0.203053 1.45854e-20)
(1.22127 0.192796 0)
(1.21186 0.182892 -3.53283e-21)
(1.20303 0.173359 -3.3641e-21)
(1.19467 0.164192 -5.9013e-21)
(1.18668 0.155392 -5.21428e-21)
(1.17894 0.147104 0)
(1.17133 0.139397 3.7847e-21)
(-0.00198481 0.0441256 9.44728e-21)
(-0.0068249 0.110157 -9.75479e-21)
(-0.0143414 0.159049 -1.84107e-20)
(-0.0238267 0.193656 0)
(-0.0346276 0.216892 -2.45324e-20)
(-0.0461925 0.23169 7.66859e-21)
(-0.0579877 0.240677 -1.46379e-20)
(-0.0695437 0.245921 0)
(-0.0804862 0.248824 0)
(-0.0905313 0.250153 0)
(-0.0994664 0.250146 0)
(-0.107126 0.248664 0)
(-0.11337 0.245321 -7.54177e-23)
(-0.118068 0.239599 -1.01013e-20)
(-0.121093 0.230923 1.98261e-20)
(-0.122313 0.218711 2.83737e-20)
(-0.1216 0.202416 9.41143e-21)
(-0.118833 0.181555 0)
(-0.113898 0.155741 8.16944e-21)
(-0.106698 0.124746 -2.36616e-20)
(-0.0971898 0.0885584 -1.52524e-20)
(-0.0853241 0.0473009 -1.44936e-20)
(-0.0712423 0.00151421 0)
(-0.0548376 -0.0475705 0)
(-0.0043112 0.0449808 -2.85135e-20)
(-0.0113147 0.113433 4.89142e-20)
(-0.0181671 0.165071 -1.86751e-20)
(-0.0253312 0.202287 -3.49848e-20)
(-0.0328319 0.22766 4.93111e-20)
(-0.0404829 0.243936 -3.12256e-20)
(-0.0479765 0.253687 4.40009e-20)
(-0.0549581 0.259024 2.80907e-20)
(-0.0610812 0.26145 0)
(-0.0660357 0.261841 -2.53708e-20)
(-0.0695577 0.26054 -7.15669e-22)
(-0.0714274 0.257481 2.23561e-20)
(-0.071463 0.252328 3.29812e-20)
(-0.0695123 0.244592 4.24924e-20)
(-0.0654488 0.233714 -1.89015e-20)
(-0.0591702 0.219126 -5.72842e-20)
(-0.050601 0.200293 1.95147e-20)
(-0.0396949 0.176747 -7.18911e-20)
(-0.0264154 0.148115 0)
(-0.0107081 0.114166 1.59651e-20)
(0.00725298 0.0748285 1.52258e-20)
(0.0273396 0.0302905 1.4468e-20)
(0.0498646 -0.018779 0)
(0.0755765 -0.0706497 0)
(-0.00651269 0.0437945 0)
(-0.0157459 0.112132 9.98201e-20)
(-0.0221095 0.165111 -3.75838e-20)
(-0.027013 0.204284 3.52407e-20)
(-0.0310547 0.231631 -1.00168e-19)
(-0.0343909 0.249501 0)
(-0.0369589 0.260248 -5.97987e-20)
(-0.0385588 0.265914 2.81822e-20)
(-0.0389167 0.268035 -5.38488e-20)
(-0.037737 0.267588 2.5925e-20)
(-0.0347378 0.265031 1.47371e-19)
(-0.0296715 0.26041 -6.93397e-20)
(-0.0223337 0.253487 -1.12619e-19)
(-0.0125665 0.243848 -4.52803e-20)
(-0.000258323 0.230997 -2.10166e-21)
(0.0146566 0.214421 1.59551e-19)
(0.0321983 0.193632 -7.58987e-20)
(0.0523415 0.168207 -1.01814e-21)
(0.0750224 0.137811 0)
(0.100149 0.102218 -6.95754e-20)
(0.127561 0.0612869 0)
(0.157045 0.0152291 -6.30249e-20)
(0.188598 -0.0353411 2.38888e-19)
(0.225127 -0.0890081 2.65148e-22)
(-0.00833568 0.0408481 0)
(-0.0196524 0.106627 4.44724e-22)
(-0.0257931 0.15933 3.81166e-20)
(-0.0287511 0.199479 -3.59e-20)
(-0.0295195 0.228307 3.3399e-20)
(-0.0285297 0.247624 1.90576e-19)
(-0.025956 0.25943 -5.98378e-20)
(-0.021783 0.265583 -5.68993e-20)
(-0.0158591 0.267579 1.07836e-19)
(-0.0079583 0.266448 -1.54938e-19)
(0.00216831 0.262759 4.85274e-20)
(0.0147552 0.25669 4.70509e-20)
(0.0299984 0.248128 0)
(0.0480429 0.236774 4.31976e-20)
(0.0689779 0.222228 0)
(0.0928376 0.204059 8.09411e-20)
(0.119605 0.181844 -1.58554e-19)
(0.149216 0.155209 3.31347e-20)
(0.181577 0.123843 1.43747e-19)
(0.216544 0.0875425 6.94861e-20)
(0.253938 0.0462615 0)
(0.293848 8.48503e-05 -1.93177e-19)
(0.334576 -0.0505103 6.04559e-20)
(0.384764 -0.104123 0)
(-0.00962883 0.036626 0)
(-0.0227157 0.0977446 -1.21901e-19)
(-0.0289484 0.148474 -3.81616e-20)
(-0.0304761 0.188318 -7.18599e-20)
(-0.0284625 0.217761 6.76576e-20)
(-0.023513 0.238029 -6.35613e-20)
(-0.0160012 0.250689 1.20659e-19)
(-0.00610426 0.257325 5.77707e-20)
(0.00616848 0.25931 -1.6154e-19)
(0.0209211 0.25767 1.03676e-19)
(0.0383163 0.253047 -1.47624e-19)
(0.0585307 0.245739 3.29898e-19)
(0.0817225 0.235766 -1.78579e-19)
(0.108012 0.222957 8.64828e-20)
(0.137476 0.207025 2.53286e-19)
(0.170146 0.187628 -7.62503e-20)
(0.206019 0.164412 -7.32435e-20)
(0.245045 0.137045 -7.38142e-20)
(0.28718 0.105276 0)
(0.332444 0.0689389 -1.41979e-19)
(0.380403 0.0279557 -1.38461e-19)
(0.432128 -0.0174313 1.91324e-19)
(0.481953 -0.0672481 2.44504e-19)
(0.548715 -0.119189 -2.28491e-19)
(-0.0103757 0.0317261 0)
(-0.0248363 0.0866345 -1.64013e-19)
(-0.0314641 0.13377 2.63319e-22)
(-0.0321606 0.171833 1.4465e-19)
(-0.0280391 0.20069 0)
(-0.0197665 0.221039 0)
(-0.00785411 0.234008 0)
(0.00734908 0.240864 -5.73655e-20)
(0.0256626 0.242791 -1.02664e-21)
(0.0470409 0.240746 1.01647e-19)
(0.0715292 0.235394 -1.48733e-19)
(0.0992225 0.22711 -1.41917e-21)
(0.130234 0.216025 0)
(0.164676 0.202082 -8.6436e-20)
(0.202648 0.185096 8.47643e-20)
(0.244235 0.16481 -2.37105e-19)
(0.289518 0.140941 3.10978e-19)
(0.338577 0.113233 8.02592e-20)
(0.391427 0.0814486 7.32994e-21)
(0.448157 0.0454854 -2.73366e-19)
(0.507684 0.00511956 -1.30624e-19)
(0.572915 -0.0385969 4.40921e-19)
(0.631796 -0.0869814 -2.94481e-19)
(0.715754 -0.13544 0)
(-0.0106999 0.0267708 8.06032e-20)
(-0.0261512 0.0745964 8.2191e-20)
(-0.033394 0.11677 -7.72787e-20)
(-0.0337805 0.151545 -1.44378e-19)
(-0.0282047 0.178408 1.35929e-19)
(-0.0172968 0.197667 -1.27226e-19)
(-0.00163344 0.210075 1.79348e-19)
(0.0183153 0.21659 -5.7326e-20)
(0.042229 0.21818 1.06313e-19)
(0.0699319 0.215681 0)
(0.10137 0.209724 9.72105e-20)
(0.136582 0.200711 -1.80901e-19)
(0.175676 0.188836 1.78096e-19)
(0.218804 0.174122 -1.6726e-19)
(0.266148 0.156466 0)
(0.317903 0.135697 1.56857e-19)
(0.374251 0.111597 3.05195e-19)
(0.435275 0.0839581 -2.88098e-19)
(0.500809 0.0525762 -1.38382e-19)
(0.57092 0.0176399 -1.39344e-19)
(0.643265 -0.0213276 3.85663e-19)
(0.722133 -0.0618599 1.20344e-19)
(0.789177 -0.107587 -1.12228e-19)
(0.88585 -0.149529 1.03145e-19)
(-0.010835 0.0223108 -8.06145e-20)
(-0.0269764 0.0628688 2.47453e-19)
(-0.0348784 0.0991017 -7.79623e-20)
(-0.0352003 0.129258 1.44443e-19)
(-0.0285285 0.152727 -1.3599e-19)
(-0.0153901 0.169611 3.2286e-23)
(0.00364797 0.180404 5.9543e-20)
(0.0280745 0.185811 2.23237e-19)
(0.0575088 0.186592 1.02506e-21)
(0.0917246 0.183444 -9.97693e-20)
(0.130647 0.176919 0)
(0.174335 0.1674 -9.12031e-20)
(0.222949 0.155099 1.71287e-19)
(0.276718 0.140087 1.67711e-19)
(0.335885 0.122323 -7.86763e-20)
(0.400607 0.101688 -1.84075e-21)
(0.470877 0.0780389 -7.47765e-20)
(0.546444 0.0513003 1.39797e-19)
(0.626495 0.0214033 1.38359e-19)
(0.71035 -0.0110666 -1.32437e-19)
(0.794349 -0.0469268 1.20701e-19)
(0.882161 -0.0821197 -1.13321e-19)
(0.953334 -0.123264 0)
(1.05025 -0.155329 -1.03135e-19)
(-0.011058 0.0187366 8.08904e-20)
(-0.0276629 0.0524224 -8.27527e-20)
(-0.0359622 0.082209 7.77375e-20)
(-0.0359576 0.106784 0)
(-0.0279245 0.125719 0)
(-0.0122497 0.139102 1.26108e-19)
(0.0105876 0.147303 -1.1882e-19)
(0.0401404 0.15086 1.1072e-19)
(0.0760848 0.150368 -5.22458e-19)
(0.118257 0.146391 -6.09388e-22)
(0.166647 0.139391 9.2942e-20)
(0.221371 0.129706 0)
(0.282595 0.117538 -1.7135e-19)
(0.350439 0.102973 3.2513e-19)
(0.424866 0.0860059 -2.33009e-19)
(0.505547 0.0665978 -3.78374e-19)
(0.59173 0.0447276 -6.09547e-21)
(0.682158 0.0204697 2.67737e-19)
(0.774875 -0.00610485 0)
(0.867808 -0.0342069 0)
(0.956691 -0.0647066 -1.20707e-19)
(1.04257 -0.0929207 1.1333e-19)
(1.10919 -0.127494 -4.03946e-19)
(1.18853 -0.148482 3.78307e-19)
(-0.0115887 0.0162076 0)
(-0.0283901 0.0437935 0)
(-0.0363485 0.0671123 -2.32999e-19)
(-0.035009 0.0856548 7.42699e-20)
(-0.0243972 0.0994047 1.24415e-21)
(-0.00473986 0.108598 1.27388e-19)
(0.0236447 0.113609 0)
(0.0604714 0.114903 -1.10602e-19)
(0.10556 0.112974 1.04179e-19)
(0.158842 0.108283 -1.95539e-19)
(0.220315 0.101214 -8.53167e-22)
(0.289942 0.0920472 1.76775e-19)
(0.367527 0.0809548 2.57752e-21)
(0.452568 0.0680214 1.63939e-19)
(0.544119 0.0532754 -2.26968e-19)
(0.640689 0.0367234 0)
(0.740209 0.0183997 2.80926e-19)
(0.84005 -0.00159692 -3.98909e-19)
(0.937138 -0.0230871 1.22828e-19)
(1.02828 -0.0455313 0)
(1.1097 -0.0692782 1.07408e-19)
(1.18026 -0.0908547 4.09053e-19)
(1.2313 -0.117981 -3.83937e-19)
(1.27982 -0.130446 -4.20666e-19)
(-0.0124823 0.0146157 2.44364e-19)
(-0.0289678 0.0369972 -3.35168e-19)
(-0.035209 0.0542539 1.26526e-21)
(-0.0306107 0.066886 7.41341e-20)
(-0.0150519 0.0754284 -1.37066e-19)
(0.0113952 0.0803832 -1.26935e-19)
(0.048594 0.0822315 2.36191e-19)
(0.0964165 0.0814476 -1.41811e-21)
(0.154741 0.0784817 -2.07713e-19)
(0.223378 0.0737274 3.90573e-19)
(0.301944 0.0674929 1.43789e-21)
(0.389709 0.0599861 -1.73487e-19)
(0.485455 0.051315 0)
(0.587376 0.0415013 0)
(0.693055 0.0305077 -7.56492e-20)
(0.799523 0.0182694 -1.40509e-19)
(0.90342 0.00475046 -2.70944e-19)
(1.0012 -0.010074 2.5433e-19)
(1.0895 -0.0260051 -1.22902e-19)
(1.16531 -0.0430322 2.22513e-19)
(1.22655 -0.0605586 -1.10582e-19)
(1.27234 -0.0778657 1.85252e-19)
(1.30088 -0.0980744 -4.38993e-19)
(1.31912 -0.107405 8.30831e-20)
(-0.0135491 0.0136094 8.22119e-20)
(-0.0287387 0.0315651 0)
(-0.031168 0.0434725 1.57903e-19)
(-0.0204711 0.0508459 -1.48745e-19)
(0.00347702 0.0548045 1.37196e-19)
(0.0406801 0.0561714 0)
(0.0910615 0.0555885 0)
(0.154418 0.0535843 -1.111e-19)
(0.2303 0.0505898 6.67992e-22)
(0.317843 0.0469283 9.79781e-20)
(0.415606 0.0427996 -9.245e-20)
(0.521462 0.0382712 1.73286e-19)
(0.632583 0.0332849 0)
(0.745537 0.0276804 3.12045e-19)
(0.856493 0.0212339 -5.8771e-19)
(0.961503 0.0137063 4.17321e-19)
(1.05684 0.00491006 2.60245e-19)
(1.13934 -0.00530076 -2.44309e-19)
(1.20675 -0.0167863 0)
(1.25779 -0.0298137 0)
(1.29282 -0.0430808 0)
(1.31268 -0.058735 0)
(1.32026 -0.0725213 8.39088e-20)
(1.31929 -0.0861909 -2.85622e-19)
(-0.034326 -0.106167 -8.55686e-21)
(-0.0133252 -0.181347 8.62673e-21)
(0.0090935 -0.260974 -2.61391e-22)
(0.0325914 -0.340218 0)
(0.0556288 -0.414963 -6.36263e-21)
(0.0761191 -0.481577 1.17807e-20)
(0.0921875 -0.537144 -5.85498e-22)
(0.102373 -0.579923 -4.71858e-21)
(0.106763 -0.608923 0)
(0.108365 -0.62198 0)
(0.11351 -0.613942 -1.83716e-22)
(0.130212 -0.576764 -1.712e-22)
(0.164806 -0.50293 -3.16442e-21)
(0.218186 -0.390321 2.91198e-21)
(0.285453 -0.244467 0)
(0.359936 -0.0760564 0)
(0.436124 0.101182 2.82189e-21)
(0.509517 0.267955 -2.94844e-22)
(0.575261 0.402639 -2.24998e-21)
(0.62831 0.491707 -1.03448e-22)
(0.665348 0.536036 0)
(0.687045 0.546018 0)
(0.696777 0.536079 0)
(0.693742 0.525515 0)
(0.673101 0.530449 0)
(0.63772 0.541594 0)
(0.605667 0.517835 4.93769e-22)
(0.59953 0.414837 -8.08183e-22)
(0.625877 0.229467 0)
(0.675093 0.00522567 0)
(0.731004 -0.197657 -6.41655e-22)
(0.77973 -0.341242 6.23593e-22)
(0.812745 -0.419038 2.24891e-22)
(0.831193 -0.444475 0)
(0.837825 -0.444727 0)
(0.825269 -0.448368 2.41585e-22)
(0.788272 -0.465569 -2.3484e-22)
(0.738385 -0.452148 0)
(0.701678 -0.369163 3.16969e-22)
(0.697238 -0.198938 -4.63026e-22)
(0.720067 -0.00306951 1.52174e-22)
(0.760501 0.172065 0)
(0.803772 0.286126 -2.07735e-22)
(0.832255 0.348642 2.01998e-22)
(0.829511 0.397791 0)
(0.792842 0.410077 0)
(0.750696 0.394426 -8.20243e-23)
(0.735012 0.25811 2.5744e-22)
(0.750349 0.10196 0)
(0.792012 -0.0801772 0)
(0.82525 -0.207671 -5.8883e-23)
(0.82256 -0.283099 -1.67519e-24)
(0.802184 -0.378718 -6.48383e-24)
(0.778167 -0.308041 3.26405e-23)
(0.784578 -0.277931 0)
(0.799302 -0.0728666 0)
(0.807419 0.0901266 0)
(0.797125 0.190503 0)
(0.799109 0.394706 0)
(0.783592 0.197314 0)
(0.103449 -0.130714 -9.20662e-22)
(0.127337 -0.206796 -3.67122e-20)
(0.151428 -0.287126 1.94186e-21)
(0.175465 -0.365917 3.25747e-20)
(0.197184 -0.438483 4.60402e-22)
(0.214598 -0.50074 0)
(0.225534 -0.549651 -1.99986e-20)
(0.227687 -0.584319 3.69334e-20)
(0.219557 -0.605875 -1.69178e-20)
(0.202002 -0.615643 1.2375e-20)
(0.180122 -0.611767 -1.18453e-20)
(0.163406 -0.586869 1.01248e-20)
(0.162698 -0.530165 -9.79571e-21)
(0.184874 -0.433782 -2.78627e-22)
(0.229318 -0.298936 -1.04397e-20)
(0.290172 -0.135846 1.01453e-20)
(0.360827 0.0399184 -9.59362e-21)
(0.435036 0.209711 9.06892e-21)
(0.506593 0.352292 -7.15402e-21)
(0.569254 0.453361 1.26224e-20)
(0.618252 0.510885 -5.53094e-21)
(0.6528 0.532338 -2.46963e-22)
(0.673825 0.532354 -3.7513e-21)
(0.678581 0.532012 7.43531e-21)
(0.663866 0.545847 -3.683e-21)
(0.636974 0.559313 2.72807e-22)
(0.618183 0.528247 5.79238e-21)
(0.62668 0.411917 1.18358e-21)
(0.664243 0.21394 -1.3142e-20)
(0.719175 -0.0183278 1.31155e-20)
(0.774895 -0.222176 -6.28415e-21)
(0.818671 -0.360405 6.19963e-22)
(0.843608 -0.430517 -2.25329e-22)
(0.852348 -0.449263 3.5249e-22)
(0.850754 -0.442727 0)
(0.833351 -0.437753 0)
(0.793598 -0.44782 -9.01534e-22)
(0.738575 -0.434513 6.62261e-22)
(0.694928 -0.360379 8.75828e-22)
(0.683394 -0.202175 2.37293e-22)
(0.703979 -0.0157704 -1.29048e-21)
(0.745936 0.155652 2.35844e-22)
(0.793594 0.27256 0)
(0.825605 0.34364 0)
(0.824805 0.403078 0)
(0.791673 0.421193 0)
(0.752606 0.403177 3.45802e-22)
(0.741868 0.259301 -1.7784e-22)
(0.757355 0.0948569 0)
(0.800031 -0.0893155 0)
(0.833138 -0.211987 0)
(0.830395 -0.280074 -9.18786e-23)
(0.809878 -0.373567 2.12812e-23)
(0.782581 -0.306107 -7.28314e-23)
(0.788862 -0.280133 0)
(0.79806 -0.0750134 0)
(0.804727 0.0899984 4.60537e-23)
(0.793423 0.191424 1.07843e-22)
(0.794996 0.395852 0)
(0.782355 0.198362 0)
(0.256156 -0.150408 -1.19641e-22)
(0.282728 -0.227332 -8.03141e-20)
(0.307439 -0.30733 7.32488e-20)
(0.331 -0.384875 -6.85002e-20)
(0.350743 -0.455016 -4.63425e-22)
(0.364624 -0.513259 0)
(0.370849 -0.555944 -4.19453e-20)
(0.367413 -0.581823 4.10203e-20)
(0.352237 -0.593011 2.40521e-22)
(0.323836 -0.594022 3.75934e-22)
(0.283774 -0.587965 3.04394e-22)
(0.239479 -0.571469 3.00535e-22)
(0.203763 -0.533216 -1.62271e-20)
(0.189708 -0.459648 1.60515e-20)
(0.20367 -0.344479 0)
(0.243333 -0.193901 4.36592e-22)
(0.302288 -0.0238985 -1.54802e-20)
(0.372626 0.145541 1.52977e-20)
(0.44625 0.294134 0)
(0.515704 0.406324 0)
(0.574944 0.477139 -8.44828e-21)
(0.621252 0.511335 1.57972e-20)
(0.652695 0.523297 -1.43284e-20)
(0.665176 0.53442 -3.52858e-22)
(0.657602 0.556786 1.55414e-20)
(0.640922 0.571709 -1.84732e-20)
(0.636017 0.534072 2.1012e-20)
(0.658709 0.40739 1.36747e-21)
(0.706788 0.200241 -1.34395e-20)
(0.766634 -0.0370456 0)
(0.821266 -0.240646 0)
(0.859238 -0.373725 3.26269e-21)
(0.875867 -0.437012 -4.40388e-21)
(0.875061 -0.45035 4.15882e-24)
(0.865289 -0.438641 2.02673e-21)
(0.843331 -0.426173 -1.9697e-21)
(0.801789 -0.42935 0)
(0.742784 -0.416137 2.14959e-22)
(0.692752 -0.351267 2.18858e-21)
(0.673927 -0.206172 -4.39188e-21)
(0.691759 -0.0303442 1.98019e-21)
(0.734503 0.136942 1.75904e-22)
(0.785812 0.257084 -1.77448e-21)
(0.82087 0.337236 1.38152e-21)
(0.822166 0.407298 2.99002e-22)
(0.793122 0.431401 3.14058e-22)
(0.757647 0.411583 -3.46695e-22)
(0.751917 0.2611 0)
(0.767356 0.088782 0)
(0.81024 -0.0975708 -1.41714e-21)
(0.842763 -0.215912 6.42731e-22)
(0.839814 -0.276582 -4.61254e-22)
(0.818833 -0.368026 5.1651e-22)
(0.787867 -0.303989 4.9981e-22)
(0.794107 -0.282089 -1.35757e-22)
(0.798098 -0.0769777 1.90242e-22)
(0.803405 0.0900122 -1.64681e-22)
(0.79082 0.192246 4.92487e-23)
(0.791812 0.396775 0)
(0.782104 0.199298 0)
(0.415765 -0.165333 -1.69468e-19)
(0.44428 -0.243059 6.1434e-21)
(0.470112 -0.322404 1.55445e-19)
(0.493006 -0.397736 -1.08317e-21)
(0.510013 -0.464833 0)
(0.519271 -0.519187 0)
(0.51958 -0.556622 -8.43434e-20)
(0.50978 -0.575259 1.28956e-20)
(0.488851 -0.576642 9.33884e-20)
(0.455351 -0.565974 -5.29981e-21)
(0.407755 -0.550402 -2.10319e-20)
(0.348024 -0.533365 -1.36602e-20)
(0.285554 -0.508292 1.36949e-20)
(0.236167 -0.459535 0)
(0.214315 -0.37228 -1.18845e-20)
(0.225184 -0.243807 1.08062e-20)
(0.264956 -0.086459 0)
(0.325532 0.0782113 0)
(0.396792 0.230158 9.2166e-21)
(0.469451 0.351743 -1.10358e-21)
(0.536351 0.435333 -7.37944e-21)
(0.592385 0.483065 -6.69745e-21)
(0.632818 0.508327 6.65969e-21)
(0.652817 0.531381 -7.49098e-21)
(0.653387 0.561553 -1.11653e-21)
(0.64807 0.577564 8.18368e-21)
(0.657244 0.535139 1.37074e-21)
(0.693353 0.401928 -1.14076e-23)
(0.751174 0.189169 0)
(0.81577 -0.0507233 1.43419e-20)
(0.869109 -0.253484 -1.47674e-20)
(0.900899 -0.382002 6.51325e-22)
(0.909198 -0.439269 0)
(0.899185 -0.448152 -3.60843e-22)
(0.88132 -0.432811 3.95064e-21)
(0.854843 -0.414242 -6.65148e-21)
(0.812324 -0.410659 -1.28752e-22)
(0.750809 -0.396841 -1.72468e-22)
(0.695336 -0.341222 2.56832e-21)
(0.669056 -0.210287 4.68059e-22)
(0.683573 -0.0462349 -3.30007e-21)
(0.72627 0.116297 2.79233e-21)
(0.780306 0.239848 4.25145e-23)
(0.817968 0.329309 1.2137e-21)
(0.821533 0.410168 -1.48004e-21)
(0.797062 0.440433 -2.36957e-21)
(0.765671 0.419608 5.99655e-22)
(0.764958 0.263676 1.80007e-21)
(0.780227 0.0840655 -3.4493e-21)
(0.822556 -0.104771 2.41065e-21)
(0.85399 -0.219474 -4.70219e-22)
(0.85068 -0.272714 6.99933e-22)
(0.828947 -0.362022 4.5453e-22)
(0.793886 -0.301587 -7.1403e-22)
(0.800146 -0.283802 9.48522e-24)
(0.799316 -0.078816 -1.33322e-22)
(0.803403 0.090174 0)
(0.789278 0.193003 -7.80475e-23)
(0.789563 0.397484 9.61815e-23)
(0.782871 0.20012 0)
(0.578109 -0.178452 1.70572e-19)
(0.607039 -0.254736 -3.29522e-19)
(0.634085 -0.331229 1.56608e-19)
(0.656176 -0.402468 1.35223e-19)
(0.669586 -0.46517 -2.50962e-19)
(0.673009 -0.514951 1.52066e-20)
(0.66586 -0.54767 9.8756e-20)
(0.64776 -0.56152 6.67729e-20)
(0.619166 -0.557269 -6.53663e-20)
(0.58065 -0.538398 0)
(0.531185 -0.511832 -3.00617e-20)
(0.468656 -0.485831 5.21284e-20)
(0.394776 -0.462564 -2.23292e-20)
(0.32057 -0.431664 0)
(0.264089 -0.374362 0)
(0.240235 -0.277034 3.0564e-22)
(0.25267 -0.142217 -1.54799e-20)
(0.296462 0.0121148 1.50393e-20)
(0.3602 0.162604 0)
(0.431912 0.290872 1.19311e-20)
(0.503014 0.386043 -2.20229e-20)
(0.565845 0.447465 2.11787e-20)
(0.613384 0.486687 -2.25287e-20)
(0.640528 0.521663 -2.10635e-21)
(0.650008 0.559023 2.97105e-20)
(0.656772 0.576412 -1.62583e-20)
(0.67981 0.531782 -6.9411e-22)
(0.728255 0.395927 -1.37711e-20)
(0.795215 0.181492 -1.37678e-21)
(0.864739 -0.0591303 1.51197e-20)
(0.917209 -0.260428 8.44658e-22)
(0.942814 -0.384878 -9.57882e-21)
(0.942893 -0.437127 1.6344e-20)
(0.924233 -0.442618 -7.56345e-21)
(0.898646 -0.425176 0)
(0.867734 -0.402164 -3.44823e-21)
(0.824862 -0.392376 3.2914e-21)
(0.762296 -0.377246 -2.2886e-21)
(0.702656 -0.330248 2.85912e-21)
(0.669066 -0.214027 -3.25141e-22)
(0.679448 -0.0628025 0)
(0.721022 0.094065 -2.98817e-22)
(0.776856 0.220911 8.59216e-22)
(0.816738 0.319637 0)
(0.822743 0.411353 3.02145e-21)
(0.803264 0.448036 -1.11116e-21)
(0.776374 0.427189 7.808e-22)
(0.78068 0.267141 9.70814e-22)
(0.795773 0.0808114 0)
(0.836813 -0.110764 0)
(0.866648 -0.222603 -1.74865e-21)
(0.862836 -0.268449 2.40406e-21)
(0.840133 -0.355444 -1.13655e-21)
(0.800525 -0.298829 2.77655e-22)
(0.806808 -0.285309 3.88988e-22)
(0.801593 -0.0805881 1.33448e-22)
(0.804653 0.0904863 -1.779e-22)
(0.788756 0.193729 0)
(0.788248 0.397979 -1.54138e-22)
(0.784681 0.20082 -3.10533e-23)
(0.7417 -0.1914 1.68086e-19)
(0.768706 -0.263381 -1.67482e-19)
(0.795027 -0.33395 1.21097e-21)
(0.814326 -0.398869 -1.06354e-21)
(0.822275 -0.455757 9.84707e-22)
(0.818486 -0.500185 -8.49815e-22)
(0.803069 -0.528151 1.37747e-21)
(0.776195 -0.538258 0)
(0.739139 -0.531323 -8.80754e-22)
(0.693982 -0.509626 6.67961e-22)
(0.642035 -0.477346 4.87053e-22)
(0.581959 -0.441775 -3.78917e-22)
(0.510486 -0.410764 0)
(0.428949 -0.384278 0)
(0.349584 -0.348809 1.00245e-22)
(0.291897 -0.284773 0)
(0.270702 -0.181819 -7.64393e-23)
(0.288505 -0.0477732 0)
(0.337053 0.0946414 -7.62751e-21)
(0.403122 0.225625 1.46116e-20)
(0.47438 0.330278 -1.43663e-20)
(0.540749 0.404852 7.16878e-21)
(0.593455 0.458045 9.6628e-21)
(0.627326 0.504589 -9.38355e-21)
(0.646213 0.548688 -1.53736e-20)
(0.665396 0.568236 1.50472e-20)
(0.7017 0.524194 0)
(0.761336 0.389721 8.07467e-22)
(0.836924 0.176984 0)
(0.911911 -0.0625265 0)
(0.964428 -0.26166 2.34298e-20)
(0.984232 -0.382558 -2.44053e-20)
(0.976368 -0.430936 1.009e-21)
(0.949769 -0.434043 7.34195e-22)
(0.917008 -0.415829 -5.18653e-22)
(0.881721 -0.390085 -2.83557e-21)
(0.838888 -0.374908 2.7534e-21)
(0.776657 -0.357767 -2.46729e-21)
(0.714344 -0.318263 2.11626e-21)
(0.673854 -0.216996 5.92688e-22)
(0.679271 -0.0798273 -2.31717e-21)
(0.71857 0.070554 -7.71791e-23)
(0.775186 0.200289 1.52532e-21)
(0.816954 0.307978 0)
(0.825549 0.410515 -1.08709e-21)
(0.811383 0.453983 2.34109e-21)
(0.789339 0.434199 -2.90164e-21)
(0.798579 0.271509 -9.77013e-22)
(0.813659 0.0792522 0)
(0.852858 -0.115341 6.62813e-22)
(0.880557 -0.225223 -1.52377e-21)
(0.876093 -0.263811 4.56502e-24)
(0.852296 -0.3482 -3.19266e-22)
(0.807707 -0.295622 3.24639e-22)
(0.813925 -0.286634 -3.48037e-22)
(0.804786 -0.0823668 0)
(0.807071 0.0909377 1.77983e-22)
(0.789203 0.194455 0)
(0.787866 0.398251 0)
(0.787553 0.201386 4.15314e-23)
(0.904783 -0.201356 -1.62834e-19)
(0.925528 -0.266758 1.61169e-19)
(0.946993 -0.328802 -1.11308e-21)