/*--------------------------------*- C++ -*----------------------------------*\
| =========                 |                                                 |
| \\      /  F ield         | OpenFOAM: The Open Source CFD Toolbox           |
|  \\    /   O peration     | Version:  2512                                  |
|   \\  /    A nd           | Website:  www.openfoam.com                      |
|    \\/     M anipulation  |                                                 |
\*---------------------------------------------------------------------------*/
FoamFile
{
    version     2.0;
    format      ascii;
    arch        "LSB;label=32;scalar=64";
    class       volScalarField;
    location    "134.25";
    object      p;
}
// * * * * * * * * * * * * * * * * * * * * * * * * * * * * * * * * * * * * * //

dimensions      [0 2 -2 0 0 0 0];

internalField   nonuniform List<scalar> 
13248
(
-0.316526
-0.315525
-0.313288
-0.310067
-0.306122
-0.301667
-0.296904
-0.292051
-0.287307
-0.282852
-0.278825
-0.275315
-0.272349
-0.269889
-0.267834
-0.266033
-0.264299
-0.262436
-0.26025
-0.257605
-0.254263
-0.250284
-0.244711
-0.238194
-0.324424
-0.322549
-0.319648
-0.315932
-0.311614
-0.306896
-0.301956
-0.29695
-0.292014
-0.287254
-0.282735
-0.278481
-0.274467
-0.270627
-0.266863
-0.26306
-0.2591
-0.254879
-0.250304
-0.2453
-0.239767
-0.233647
-0.226632
-0.219371
-0.334317
-0.331342
-0.3276
-0.323256
-0.318456
-0.313372
-0.308128
-0.302801
-0.297438
-0.292061
-0.286673
-0.281259
-0.275792
-0.270241
-0.264571
-0.258755
-0.252772
-0.246608
-0.240244
-0.233662
-0.226787
-0.219628
-0.211968
-0.204333
-0.346118
-0.341856
-0.337132
-0.332046
-0.326644
-0.321045
-0.315289
-0.309353
-0.303188
-0.296755
-0.290038
-0.283045
-0.275813
-0.268392
-0.260844
-0.253225
-0.245585
-0.237948
-0.23032
-0.222683
-0.214994
-0.207253
-0.199324
-0.191718
-0.359775
-0.354091
-0.348287
-0.342365
-0.336227
-0.329902
-0.323322
-0.31636
-0.308908
-0.300924
-0.292445
-0.283572
-0.27444
-0.265197
-0.255971
-0.246865
-0.237937
-0.229214
-0.220688
-0.212335
-0.204117
-0.196014
-0.187945
-0.180245
-0.375235
-0.368039
-0.3611
-0.354261
-0.347214
-0.339855
-0.332007
-0.323483
-0.314191
-0.304179
-0.293609
-0.282704
-0.271697
-0.260793
-0.25014
-0.23983
-0.229902
-0.220356
-0.211166
-0.202295
-0.1937
-0.185347
-0.177182
-0.169425
-0.392359
-0.38361
-0.375509
-0.367649
-0.359432
-0.350602
-0.340918
-0.330228
-0.318571
-0.306165
-0.29333
-0.280397
-0.267652
-0.255297
-0.243453
-0.232172
-0.221455
-0.211272
-0.201578
-0.192322
-0.183456
-0.174934
-0.166721
-0.158909
-0.410833
-0.400547
-0.391263
-0.382215
-0.372448
-0.361583
-0.349427
-0.335998
-0.321568
-0.306569
-0.291458
-0.27662
-0.262325
-0.248728
-0.235893
-0.223819
-0.212468
-0.201783
-0.191701
-0.182162
-0.173107
-0.164487
-0.156272
-0.148449
-0.43011
-0.418365
-0.407862
-0.397363
-0.385545
-0.372012
-0.356775
-0.340165
-0.322748
-0.305145
-0.287886
-0.271335
-0.255699
-0.241055
-0.227399
-0.21468
-0.202824
-0.191751
-0.181384
-0.17165
-0.162484
-0.153834
-0.14566
-0.137872
-0.449386
-0.436317
-0.424513
-0.412195
-0.397748
-0.380934
-0.362153
-0.34214
-0.321737
-0.301684
-0.282498
-0.264466
-0.247697
-0.232184
-0.217859
-0.204627
-0.192383
-0.181029
-0.170472
-0.160628
-0.151425
-0.142805
-0.134708
-0.127005
-0.467613
-0.453383
-0.440133
-0.425542
-0.40788
-0.387293
-0.364715
-0.341298
-0.318087
-0.295842
-0.274996
-0.255722
-0.238023
-0.221813
-0.206968
-0.193355
-0.180846
-0.169323
-0.15868
-0.148823
-0.13967
-0.131153
-0.12318
-0.11563
-0.483604
-0.468414
-0.453539
-0.436184
-0.41476
-0.390032
-0.363557
-0.33686
-0.311093
-0.286947
-0.26472
-0.244451
-0.226039
-0.209324
-0.194133
-0.180299
-0.167672
-0.156117
-0.145516
-0.135765
-0.126778
-0.118473
-0.110731
-0.103482
-0.3333
-0.335771
-0.337154
-0.337909
-0.338442
-0.33887
-0.33925
-0.339615
-0.339973
-0.340321
-0.340655
-0.34098
-0.341313
-0.341691
-0.342175
-0.342851
-0.343827
-0.345235
-0.347229
-0.349966
-0.353589
-0.35818
-0.363772
-0.370539
-0.327209
-0.329122
-0.330085
-0.33044
-0.330519
-0.330434
-0.330258
-0.330042
-0.329822
-0.329628
-0.329495
-0.329473
-0.329634
-0.330077
-0.330926
-0.332331
-0.334461
-0.337494
-0.341617
-0.346985
-0.353715
-0.361838
-0.371264
-0.38208
-0.322286
-0.323587
-0.324102
-0.324059
-0.323701
-0.323132
-0.322435
-0.321682
-0.320932
-0.320246
-0.319693
-0.31936
-0.319359
-0.319835
-0.320955
-0.32291
-0.325904
-0.330101
-0.335746
-0.342941
-0.351763
-0.362182
-0.373982
-0.387096
-0.318232
-0.318941
-0.319022
-0.318592
-0.31781
-0.316769
-0.315562
-0.314278
-0.313003
-0.311826
-0.310844
-0.310173
-0.309952
-0.310357
-0.311576
-0.313816
-0.317288
-0.322185
-0.328678
-0.336871
-0.346789
-0.358359
-0.371361
-0.385203
-0.314765
-0.314993
-0.314691
-0.313897
-0.312698
-0.31118
-0.309445
-0.307607
-0.305775
-0.304065
-0.302602
-0.301524
-0.300994
-0.301193
-0.302321
-0.304587
-0.308191
-0.313313
-0.32009
-0.328594
-0.338812
-0.350573
-0.3639
-0.37732
-0.311708
-0.311622
-0.311019
-0.309883
-0.308268
-0.306258
-0.303969
-0.301534
-0.299095
-0.296796
-0.294786
-0.293227
-0.292294
-0.292176
-0.293071
-0.295177
-0.298678
-0.30373
-0.310435
-0.318825
-0.32889
-0.340169
-0.353213
-0.365329
-0.309037
-0.308823
-0.308001
-0.306551
-0.304522
-0.302008
-0.299142
-0.296085
-0.293007
-0.290083
-0.287492
-0.285416
-0.284043
-0.283568
-0.284183
-0.286073
-0.289401
-0.294285
-0.30078
-0.308844
-0.318484
-0.329016
-0.341441
-0.351607
-0.306896
-0.306707
-0.305734
-0.303991
-0.301559
-0.29855
-0.29512
-0.291459
-0.287767
-0.284252
-0.28112
-0.278576
-0.276822
-0.276055
-0.276461
-0.278201
-0.281405
-0.286143
-0.292431
-0.300084
-0.309152
-0.318462
-0.329638
-0.337314
-0.305587
-0.3055
-0.304408
-0.302385
-0.299575
-0.296115
-0.292188
-0.288009
-0.283811
-0.279827
-0.27629
-0.273424
-0.271437
-0.270522
-0.270842
-0.27252
-0.275622
-0.280137
-0.28599
-0.292884
-0.300817
-0.308453
-0.317416
-0.322397
-0.305523
-0.305506
-0.304275
-0.301983
-0.298837
-0.295008
-0.2907
-0.286154
-0.281621
-0.277358
-0.273608
-0.270598
-0.268528
-0.267559
-0.267804
-0.269315
-0.27207
-0.275964
-0.280824
-0.286323
-0.292331
-0.297818
-0.303745
-0.305927
-0.307134
-0.30704
-0.3056
-0.303032
-0.299597
-0.295491
-0.290938
-0.286186
-0.281496
-0.277122
-0.273302
-0.270239
-0.268096
-0.266977
-0.26692
-0.267886
-0.269759
-0.272351
-0.275412
-0.278677
-0.281943
-0.28481
-0.2877
-0.287892
-0.310753
-0.310345
-0.308576
-0.305698
-0.301997
-0.297682
-0.292984
-0.288142
-0.283401
-0.278994
-0.275122
-0.271943
-0.269556
-0.267993
-0.267207
-0.267081
-0.267428
-0.268019
-0.268588
-0.268937
-0.268821
-0.268346
-0.267705
-0.266774
-0.38025
-0.392659
-0.404978
-0.415713
-0.422786
-0.423925
-0.416926
-0.400208
-0.373038
-0.3363
-0.29317
-0.248567
-0.207667
-0.174402
-0.150766
-0.137113
-0.133322
-0.139589
-0.155098
-0.175425
-0.191984
-0.195558
-0.182572
-0.157351
-0.128676
-0.103937
-0.086855
-0.0780126
-0.0762004
-0.0807233
-0.0931677
-0.114163
-0.137343
-0.150556
-0.144943
-0.124294
-0.0994891
-0.0793114
-0.0665332
-0.0598901
-0.0602179
-0.0687009
-0.0797323
-0.0841539
-0.0779475
-0.0662129
-0.056177
-0.0489457
-0.0465901
-0.0491419
-0.0515179
-0.0510672
-0.0474831
-0.0406215
-0.0349868
-0.0284369
-0.0226417
-0.0219269
-0.0184229
-0.00642052
-0.397254
-0.414446
-0.430689
-0.444496
-0.453692
-0.455912
-0.448792
-0.430563
-0.400448
-0.359532
-0.31132
-0.261192
-0.21475
-0.17618
-0.147571
-0.129165
-0.120544
-0.121596
-0.131807
-0.14795
-0.162876
-0.168087
-0.159092
-0.139268
-0.115823
-0.0954798
-0.0820473
-0.0763374
-0.0772708
-0.0845371
-0.10011
-0.124353
-0.149971
-0.163746
-0.156505
-0.133048
-0.105097
-0.0819063
-0.0665526
-0.0576033
-0.0555506
-0.0613914
-0.070371
-0.0741565
-0.0692488
-0.0601852
-0.052769
-0.0481151
-0.0480067
-0.0531493
-0.0570963
-0.0565838
-0.0519657
-0.0431747
-0.0361551
-0.0275711
-0.0205144
-0.0188894
-0.015296
-0.00532027
-0.406026
-0.42629
-0.444809
-0.460464
-0.471068
-0.474195
-0.467237
-0.448297
-0.416546
-0.373108
-0.321694
-0.26797
-0.217765
-0.175407
-0.142907
-0.120395
-0.107249
-0.103124
-0.107851
-0.119342
-0.132009
-0.138339
-0.133301
-0.118894
-0.100767
-0.0849947
-0.075421
-0.0729842
-0.0767172
-0.0866838
-0.105121
-0.132172
-0.159912
-0.174392
-0.165995
-0.140244
-0.109606
-0.0837609
-0.0660834
-0.0550446
-0.0508045
-0.0541402
-0.0611559
-0.0643081
-0.0605705
-0.0539889
-0.0490526
-0.0469913
-0.0492389
-0.0571072
-0.062694
-0.0620136
-0.0562399
-0.0455059
-0.037161
-0.0267021
-0.0184171
-0.0158764
-0.0121931
-0.00423199
-0.40594
-0.42767
-0.447309
-0.464074
-0.475483
-0.479152
-0.472443
-0.453429
-0.421213
-0.376921
-0.324331
-0.269174
-0.21729
-0.172879
-0.137811
-0.112132
-0.0951434
-0.0863261
-0.0855968
-0.0919999
-0.101604
-0.108152
-0.106559
-0.0971419
-0.0840869
-0.0728228
-0.0670984
-0.0678506
-0.074224
-0.0865992
-0.107444
-0.136851
-0.166561
-0.182027
-0.173107
-0.14569
-0.112909
-0.0848718
-0.0652053
-0.0523406
-0.0461695
-0.047215
-0.0523865
-0.0548783
-0.0521125
-0.0477441
-0.045084
-0.0455624
-0.0502049
-0.0608967
-0.068191
-0.067273
-0.060248
-0.0475809
-0.0379846
-0.02583
-0.0163643
-0.0129218
-0.00914081
-0.00316458
-0.398031
-0.419725
-0.439475
-0.457029
-0.468734
-0.472425
-0.465886
-0.447274
-0.415604
-0.372036
-0.320323
-0.265963
-0.214435
-0.169606
-0.133204
-0.105288
-0.0851835
-0.0723295
-0.066631
-0.0678055
-0.0736009
-0.0792903
-0.0801844
-0.0748128
-0.0663472
-0.0593118
-0.0571768
-0.0608398
-0.0695519
-0.0839286
-0.106663
-0.137976
-0.169476
-0.186219
-0.17757
-0.149286
-0.115003
-0.0852915
-0.0640147
-0.0496145
-0.0417912
-0.0407945
-0.0442787
-0.0461029
-0.0440533
-0.0415659
-0.0409133
-0.0438055
-0.0508167
-0.0643851
-0.0734295
-0.0722583
-0.0639353
-0.0493709
-0.0386098
-0.0249529
-0.0143692
-0.0100565
-0.00616467
-0.00212648
-0.38485
-0.405254
-0.424361
-0.440847
-0.452705
-0.456053
-0.449625
-0.431721
-0.401438
-0.360019
-0.311026
-0.25943
-0.210054
-0.166272
-0.129655
-0.100379
-0.0779149
-0.0617351
-0.0517214
-0.0479537
-0.0494756
-0.0531762
-0.0551055
-0.0527442
-0.0482355
-0.0449185
-0.0458938
-0.0520663
-0.0627455
-0.0786824
-0.102721
-0.135392
-0.168437
-0.186736
-0.179212
-0.150976
-0.115901
-0.0850706
-0.0625851
-0.0469479
-0.0377525
-0.0349911
-0.0369724
-0.0381519
-0.0365423
-0.0355639
-0.036592
-0.0417044
-0.0509871
-0.067425
-0.0782454
-0.0768751
-0.0672471
-0.0508512
-0.0390211
-0.024062
-0.0124413
-0.00730801
-0.00328576
-0.00112479
-0.368952
-0.386648
-0.404295
-0.419774
-0.429848
-0.432184
-0.425782
-0.40891
-0.380849
-0.342879
-0.29815
-0.250854
-0.204994
-0.163394
-0.127473
-0.0975839
-0.0734622
-0.0546943
-0.0411404
-0.0330019
-0.0301657
-0.0309938
-0.0325075
-0.0320951
-0.0305804
-0.0302333
-0.0337158
-0.041887
-0.0540832
-0.0710685
-0.0957799
-0.129181
-0.163521
-0.183618
-0.178013
-0.150741
-0.115643
-0.0842538
-0.0609667
-0.0443913
-0.0340918
-0.0298422
-0.0305208
-0.0311177
-0.0296972
-0.0298402
-0.0321855
-0.0392545
-0.0506347
-0.0698765
-0.0824842
-0.0810082
-0.0701272
-0.0520016
-0.0392104
-0.0231461
-0.0105845
-0.00469888
-0.000520121
-0.000165425
-0.351438
-0.365353
-0.379805
-0.393465
-0.401287
-0.402621
-0.396419
-0.38108
-0.3561
-0.322657
-0.283294
-0.241289
-0.199794
-0.161131
-0.126604
-0.0967426
-0.0715903
-0.0509424
-0.0346669
-0.0229392
-0.0160481
-0.0135024
-0.0135179
-0.0137958
-0.0140307
-0.0158898
-0.0212108
-0.0307644
-0.0439506
-0.0614802
-0.0862838
-0.119776
-0.155052
-0.177156
-0.174081
-0.148621
-0.114269
-0.0828758
-0.0591902
-0.0419756
-0.0308252
-0.0253513
-0.0249176
-0.0250152
-0.0235924
-0.0244926
-0.0277671
-0.0364677
-0.0496995
-0.0716185
-0.0859977
-0.0845351
-0.0725262
-0.0528097
-0.0391803
-0.0222107
-0.00880379
-0.00224396
0.00212157
0.000746882
-0.331935
-0.340394
-0.352154
-0.3631
-0.368928
-0.369504
-0.363938
-0.350754
-0.329571
-0.301318
-0.267832
-0.231493
-0.194686
-0.159323
-0.126648
-0.097347
-0.071732
-0.0498478
-0.0316357
-0.0171985
-0.00690017
-0.000934046
0.00139177
0.00165734
0.00103287
-0.00243744
-0.00891095
-0.0191735
-0.0327793
-0.0503481
-0.0747574
-0.107917
-0.143728
-0.167823
-0.167727
-0.144798
-0.111945
-0.0810951
-0.0573887
-0.0398094
-0.0280139
-0.0215356
-0.0201499
-0.0198286
-0.018261
-0.0196016
-0.0234195
-0.0333554
-0.0481384
-0.0725681
-0.0886468
-0.0873538
-0.0744253
-0.0532871
-0.0389439
-0.0212845
-0.0071236
3.79307e-05
0.00463403
0.00160894
-0.30945
-0.314256
-0.323621
-0.331692
-0.335616
-0.335887
-0.331503
-0.32096
-0.303931
-0.280994
-0.253307
-0.222488
-0.190298
-0.158311
-0.127743
-0.0994091
-0.0738121
-0.0512062
-0.0316626
-0.0152542
-0.00227889
0.00682473
0.0120028
0.014094
0.0142674
0.00974161
0.00283085
-0.00753606
-0.0210615
-0.0383418
-0.0620763
-0.094356
-0.130271
-0.156217
-0.15928
-0.139601
-0.10904
-0.0792801
-0.0558574
-0.038114
-0.0257906
-0.0184205
-0.0161794
-0.0155592
-0.0137585
-0.0152333
-0.0191934
-0.0299838
-0.0459718
-0.0726424
-0.0903161
-0.0893951
-0.0758134
-0.0534676
-0.0385117
-0.0203654
-0.00557289
0.002104
0.0070126
0.00241869
-0.286851
-0.289029
-0.296536
-0.301939
-0.304393
-0.30489
-0.301985
-0.294255
-0.28136
-0.263496
-0.241269
-0.215684
-0.187972
-0.159392
-0.131082
-0.103954
-0.07867
-0.0556612
-0.0351538
-0.0172586
-0.00218879
0.00963715
0.0177908
0.0224016
0.0254141
0.0201507
0.0136846
0.00386927
-0.00900955
-0.0255467
-0.0483851
-0.0801017
-0.116075
-0.142762
-0.149067
-0.132785
-0.105297
-0.0772232
-0.054373
-0.0366675
-0.0239849
-0.0158142
-0.0127538
-0.0119883
-0.0100999
-0.0115966
-0.015216
-0.0262921
-0.0431336
-0.0719181
-0.0909589
-0.0905317
-0.0765795
-0.0532946
-0.0378419
-0.0193253
-0.00409752
0.00394607
0.00924597
0.00317307
-0.267229
-0.268766
-0.273054
-0.274687
-0.275466
-0.275631
-0.27344
-0.267743
-0.258094
-0.244368
-0.226767
-0.205816
-0.182298
-0.157164
-0.131414
-0.105975
-0.0816101
-0.0588873
-0.0381879
-0.0197445
-0.00374145
0.00961015
0.0199703
0.0266693
0.0275697
0.0281923
0.0229582
0.0141466
0.00222427
-0.0134441
-0.0351068
-0.0653339
-0.100094
-0.127001
-0.134637
-0.122546
-0.0986305
-0.072786
-0.0510703
-0.0339518
-0.0214972
-0.0129948
-0.00937329
-0.00845771
-0.00667521
-0.00835306
-0.0116292
-0.0226645
-0.0398572
-0.070168
-0.0904633
-0.0907336
-0.0765345
-0.0524978
-0.0368005
-0.0179432
-0.00254184
0.00572932
0.0113652
0.00386636
-0.248499
-0.259128
-0.260102
-0.258711
-0.257717
-0.256616
-0.253794
-0.247998
-0.23865
-0.225661
-0.209256
-0.189896
-0.168237
-0.145078
-0.121273
-0.0976259
-0.074805
-0.0533069
-0.0334807
-0.0155604
0.000267054
0.0138155
0.0248323
0.032734
0.0368916
0.0374325
0.0335195
0.0261466
0.0157551
0.00127407
-0.0202515
-0.0524237
-0.0904822
-0.120048
-0.128852
-0.114639
-0.0909232
-0.0663027
-0.045928
-0.0298455
-0.0180866
-0.00983494
-0.00616458
-0.00497334
-0.00282289
-0.00337217
-0.00660852
-0.0176327
-0.0353875
-0.067818
-0.0904348
-0.0915239
-0.0763998
-0.0511893
-0.035471
-0.0163853
-0.00101477
0.00754259
0.0133485
0.00449851
-0.22751
-0.240911
-0.242727
-0.239687
-0.236804
-0.234468
-0.23108
-0.225207
-0.216235
-0.204156
-0.189243
-0.171887
-0.152585
-0.131936
-0.110602
-0.0892328
-0.0683958
-0.0485429
-0.0300113
-0.0130524
0.00214829
0.0154516
0.0266606
0.0351616
0.0393351
0.0418136
0.0395945
0.0339396
0.0252882
0.0121465
-0.0091271
-0.0424105
-0.0813985
-0.109955
-0.116458
-0.102835
-0.0811207
-0.0589944
-0.0406212
-0.0259697
-0.0151038
-0.00718142
-0.00347823
-0.00218403
-0.000126553
-0.000721582
-0.00317481
-0.0137976
-0.031602
-0.0651462
-0.0893257
-0.090467
-0.0751306
-0.0493139
-0.0336354
-0.0147128
0.000337764
0.00915278
0.0148817
0.00500879
-0.207793
-0.221926
-0.224172
-0.220558
-0.216599
-0.213441
-0.209772
-0.204134
-0.195866
-0.184953
-0.171648
-0.156256
-0.139135
-0.120724
-0.101544
-0.0821421
-0.0630228
-0.0446099
-0.0272367
-0.0111594
0.00341879
0.0163268
0.0273884
0.0361869
0.0417012
0.0445975
0.0435299
0.0392314
0.031864
0.0194501
-0.00193527
-0.0348257
-0.0715133
-0.0971264
-0.102374
-0.0902509
-0.0712511
-0.0518151
-0.0354336
-0.0221527
-0.0121742
-0.00466095
-0.000975686
0.000398088
0.00235253
0.00175335
-0.000485076
-0.0109623
-0.0286858
-0.0621151
-0.0867966
-0.0882104
-0.0730438
-0.0470237
-0.031483
-0.0129519
0.00169888
0.0106572
0.0161765
0.00546592
-0.189914
-0.202872
-0.205308
-0.201904
-0.197642
-0.194051
-0.190244
-0.184902
-0.177334
-0.167477
-0.155549
-0.141818
-0.126564
-0.110124
-0.0929102
-0.0753697
-0.0579339
-0.0409802
-0.0248218
-0.00971032
0.00414161
0.016532
0.0272901
0.0361796
0.0423492
0.0458062
0.0458387
0.0428261
0.0366667
0.024989
0.00403033
-0.0271618
-0.0606891
-0.0833248
-0.0875377
-0.0771965
-0.0611278
-0.0445067
-0.0301977
-0.0183298
-0.00929562
-0.00227486
0.00135339
0.00282253
0.00473271
0.00411462
0.00205897
-0.00830791
-0.0256108
-0.0581052
-0.0829992
-0.0848973
-0.0701126
-0.044321
-0.0290273
-0.0110556
0.00306518
0.0120148
0.0172817
0.00588238
-0.172273
-0.184241
-0.186915
-0.183935
-0.17973
-0.175971
-0.172132
-0.167104
-0.160212
-0.151346
-0.140687
-0.128471
-0.114926
-0.100306
-0.0849238
-0.0691363
-0.053308
-0.0377753
-0.0228322
-0.00872692
0.00432678
0.01611
0.0264278
0.034996
0.0415505
0.0454785
0.0463925
0.0444892
0.0395045
0.0288935
0.00922912
-0.0194018
-0.0492052
-0.0685934
-0.07217
-0.0640031
-0.0510726
-0.0373103
-0.0250662
-0.0145841
-0.00649562
-2.51661e-05
0.00350818
0.00508161
0.00698453
0.00650835
0.004573
-0.0054157
-0.0218385
-0.0530115
-0.0779117
-0.080327
-0.0662471
-0.0411848
-0.0262873
-0.00903019
0.00442184
0.0131927
0.0181699
0.00624432
-0.155333
-0.166552
-0.169313
-0.166722
-0.162749
-0.159042
-0.155309
-0.150643
-0.144426
-0.136513
-0.127041
-0.116213
-0.104215
-0.0912429
-0.0775346
-0.063376
-0.049074
-0.034925
-0.0211988
-0.00813452
0.00405936
0.0151617
0.024967
0.0332238
0.0397279
0.0438951
0.0453918
0.0442831
0.0402184
0.03079
0.0131746
-0.0118418
-0.0371188
-0.0531447
-0.0569807
-0.051278
-0.0414295
-0.0303817
-0.0201149
-0.0109647
-0.00379252
0.00208766
0.00548899
0.00716423
0.00910388
0.00876833
0.00704768
-0.00225863
-0.0174714
-0.0469304
-0.0714327
-0.0744275
-0.0614247
-0.037626
-0.0233046
-0.00688627
0.00575685
0.0141633
0.0187933
0.00653491
-0.139707
-0.149876
-0.152538
-0.15033
-0.146713
-0.143223
-0.139718
-0.13546
-0.1299
-0.122884
-0.114507
-0.104941
-0.0943431
-0.0828664
-0.0706951
-0.058056
-0.0452034
-0.0323948
-0.0198738
-0.00786588
0.00342666
0.0137897
0.0230174
0.0308731
0.0371593
0.041383
0.0432296
0.0426361
0.0392145
0.03103
0.0161154
-0.0045072
-0.025155
-0.038679
-0.0428913
-0.0395515
-0.0324755
-0.0238653
-0.0154245
-0.00752785
-0.00121146
0.00406404
0.00730827
0.00907491
0.0110998
0.0109167
0.00945833
0.00103315
-0.0127044
-0.0399241
-0.0636063
-0.0672569
-0.0556824
-0.0336762
-0.0201326
-0.00464624
0.00705878
0.0149037
0.0191121
0.00674463
-0.125054
-0.134137
-0.136704
-0.134883
-0.131673
-0.12849
-0.125285
-0.121457
-0.116529
-0.110346
-0.102978
-0.0945662
-0.0852422
-0.0751294
-0.0643704
-0.0531443
-0.04166
-0.0301388
-0.0187981
-0.00784683
0.0025202
0.0121004
0.0206973
0.0280813
0.0340547
0.038213
0.0402591
0.0400352
0.0371847
0.0303763
0.0183802
0.00205429
-0.0144743
-0.0259636
-0.0305919
-0.0291959
-0.024412
-0.0178734
-0.0110556
-0.00431802
0.00122148
0.00590602
0.00898341
0.0108254
0.0129827
0.0129782
0.0117983
0.00440659
-0.00759352
-0.0321305
-0.0546421
-0.0589831
-0.0491265
-0.0293918
-0.0168351
-0.00234544
0.0083198
0.0154036
0.0191056
0.00687187
-0.111251
-0.119446
-0.121933
-0.120458
-0.11765
-0.114804
-0.111934
-0.108543
-0.104217
-0.0988091
-0.0923691
-0.0850126
-0.0768502
-0.0679813
-0.0585175
-0.0486003
-0.0384008
-0.0281073
-0.0179116
-0.00800426
0.00143205
0.0102069
0.0181337
0.0249944
0.0305965
0.0346089
0.0367626
0.0368585
0.0346091
0.0291736
0.0197998
0.00712972
-0.0059308
-0.0156357
-0.0203818
-0.0203641
-0.0173371
-0.0124773
-0.00705226
-0.00136851
0.0034784
0.00761325
0.0105252
0.0124259
0.0147609
0.0149943
0.0141218
0.0079117
-0.00219569
-0.0238221
-0.0448822
-0.049897
-0.0419412
-0.0248543
-0.0134807
-3.40531e-05
0.00953774
0.015676
0.0187821
0.00692343
-0.0985326
-0.105875
-0.10822
-0.10704
-0.104619
-0.102122
-0.0995993
-0.0966394
-0.092882
-0.0881918
-0.0826025
-0.0762093
-0.0691046
-0.061369
-0.0530908
-0.0443822
-0.0353827
-0.0262515
-0.0171553
-0.00826548
0.000250918
0.00821581
0.0154527
0.0217604
0.0269575
0.0307718
0.0329698
0.033346
0.0316763
0.0274476
0.0202241
0.0105215
0.000346879
-0.00769525
-0.0122127
-0.0130297
-0.0112634
-0.00771303
-0.00344431
0.00129903
0.00553252
0.0091819
0.0119342
0.0138787
0.0164269
0.0170216
0.0165311
0.0115951
0.00333077
-0.0153833
-0.034791
-0.0403869
-0.0343834
-0.0201677
-0.0101362
0.00222304
0.0107158
0.0157686
0.0181903
0.00691689
-0.0868811
-0.0933538
-0.0955272
-0.0946107
-0.0925595
-0.0904061
-0.0882264
-0.0856796
-0.0824535
-0.0784227
-0.0736095
-0.0680921
-0.0619479
-0.0552428
-0.0480469
-0.0404495
-0.0325639
-0.0245236
-0.0164721
-0.00856086
-0.000941184
0.00622351
0.0127715
0.0185186
0.0232949
0.026877
0.029067
0.0296732
0.0285224
0.025318
0.019839
0.0125064
0.00469489
-0.00180988
-0.00584432
-0.00706794
-0.00614989
-0.00358796
-0.000249181
0.00367371
0.00736164
0.0106013
0.0132042
0.0151827
0.0179439
0.0190684
0.0190975
0.0154405
0.00874111
-0.00728618
-0.0249187
-0.030931
-0.0267711
-0.0154553
-0.00686302
0.00435165
0.0118555
0.0157669
0.0174271
0.00688253
-0.0761359
-0.0818352
-0.0838505
-0.083167
-0.0814533
-0.0796233
-0.0777683
-0.0756072
-0.0728692
-0.0694388
-0.065329
-0.060604
-0.0553286
-0.049557
-0.0433449
-0.0367634
-0.0299043
-0.0228787
-0.0158092
-0.00882806
-0.00206996
0.00431945
0.0101936
0.0153854
0.0197399
0.0230722
0.0252179
0.0260101
0.0253195
0.022985
0.0189225
0.0134698
0.00756062
0.00243549
-0.000986998
-0.00231496
-0.00192381
-8.56836e-05
0.00252615
0.00575332
0.00895326
0.0118516
0.0143215
0.0163346
0.0192513
0.0210338
0.0217354
0.019268
0.0136855
-2.16754e-05
-0.0157859
-0.0219757
-0.0194419
-0.0108543
-0.00371931
0.00627885
0.0129453
0.0157822
0.0166292
0.00686034
-0.066292
-0.0713021
-0.0731589
-0.0726705
-0.071261
-0.0697298
-0.0681758
-0.0663677
-0.0640718
-0.0611828
-0.057706
-0.0536938
-0.0492002
-0.0442698
-0.0389471
-0.0332884
-0.0273681
-0.0212777
-0.0151211
-0.0090125
-0.00307066
0.00257814
0.00780405
0.0124567
0.0164009
0.0194807
0.02156
0.0225033
0.0222163
0.0206137
0.0176928
0.0137263
0.00935071
0.005424
0.00264595
0.00140059
0.00150156
0.00282818
0.00488525
0.00753933
0.0103055
0.0129145
0.0152619
0.0173084
0.0202879
0.0227399
0.0240751
0.0225933
0.0177042
0.00602097
-0.00775853
-0.0138648
-0.0126976
-0.00650488
-0.000767529
0.00794006
0.0139506
0.0159218
0.0159376
0.00688645
-0.0573509
-0.0617233
-0.0634116
-0.0630788
-0.0619369
-0.0606781
-0.0593992
-0.0579096
-0.0560094
-0.0536034
-0.0506917
-0.047316
-0.0435214
-0.0393444
-0.0348205
-0.0299942
-0.0249252
-0.0196888
-0.014372
-0.00907152
-0.00389046
0.00106114
0.00567147
0.0098114
0.0133636
0.0161949
0.0181949
0.0192564
0.0193112
0.0183178
0.0163141
0.0135186
0.0103763
0.00746378
0.00530129
0.00424252
0.00421902
0.00520026
0.00684214
0.0090361
0.011422
0.0137764
0.0159998
0.018052
0.0209744
0.0240394
0.0256267
0.0248209
0.0204136
0.0106349
-0.00103318
-0.00685139
-0.00678035
-0.00253991
0.00192685
0.00928533
0.0147997
0.0162453
0.0154432
0.00697053
-0.0492332
-0.0530249
-0.0545567
-0.0543545
-0.0534446
-0.0524248
-0.0513902
-0.0501837
-0.0486333
-0.0466541
-0.0442422
-0.0414305
-0.0382562
-0.0347489
-0.030937
-0.0268555
-0.0225522
-0.0180881
-0.0135351
-0.00897449
-0.00449349
-0.000187783
0.00384732
0.0075046
0.0106874
0.0132779
0.0151881
0.0163343
0.016669
0.0161763
0.0149046
0.013026
0.0108648
0.00878307
0.00718146
0.00636043
0.00632174
0.0070836
0.00842
0.0102516
0.0123094
0.0144288
0.016515
0.0185213
0.0211859
0.0235408
0.0260074
0.025672
0.0217599
0.0138129
0.00428275
-0.00109298
-0.00183478
0.000931406
0.00430265
0.0102944
0.0153847
0.0167055
0.015133
0.00707757
-0.0418712
-0.0451556
-0.046535
-0.0464365
-0.0457268
-0.0449203
-0.0441023
-0.0431436
-0.0418986
-0.0402923
-0.038318
-0.0360014
-0.0333727
-0.030456
-0.0272738
-0.0238532
-0.0202322
-0.0164595
-0.012594
-0.00870308
-0.00485996
-0.00114396
0.00236312
0.00557379
0.00840824
0.0107658
0.0125759
0.0137749
0.0143295
0.0142342
0.0135383
0.0123715
0.0109725
0.00956329
0.00845608
0.00788871
0.00790019
0.00853412
0.00964933
0.0111975
0.0129748
0.0148731
0.0168006
0.0187179
0.0211111
0.0234208
0.0254935
0.0253609
0.0220075
0.0157236
0.00817855
0.00337613
0.00211466
0.00383773
0.00631393
0.0109897
0.0156063
0.0171068
0.0148733
0.00712489
-0.0352238
-0.0380582
-0.0392979
-0.0392863
-0.0387452
-0.038119
-0.0374865
-0.0367415
-0.0357603
-0.0344768
-0.0328822
-0.0309964
-0.0288436
-0.0264434
-0.0238131
-0.0209738
-0.017955
-0.0147954
-0.0115426
-0.00825099
-0.00498115
-0.00179916
0.00122954
0.00404164
0.00653917
0.00867011
0.0103714
0.0115921
0.0123092
0.0125176
0.0122624
0.0116381
0.0107883
0.00994807
0.00926631
0.00894427
0.00903934
0.00960782
0.010565
0.0118904
0.013428
0.0151179
0.016866
0.018648
0.0207343
0.0227713
0.0243802
0.024303
0.0215279
0.0166444
0.0107993
0.0066626
0.00514691
0.00614967
0.00792772
0.0114178
0.0154273
0.0171673
0.01445
0.00699675
-0.0292414
-0.031676
-0.0327841
-0.032839
-0.0324402
-0.0319677
-0.0314945
-0.0309324
-0.0301767
-0.0291696
-0.0279012
-0.0263866
-0.0246453
-0.0226926
-0.0205419
-0.0182091
-0.015717
-0.0130957
-0.0103832
-0.00762305
-0.00486411
-0.00215971
0.000433815
0.00286029
0.00505901
0.00698025
0.00856849
0.0097826
0.0106077
0.0110388
0.0111151
0.0109059
0.0105034
0.0100717
0.00973226
0.00962825
0.00981747
0.0103591
0.0112036
0.0123519
0.0136848
0.0151757
0.0167302
0.0183371
0.0201027
0.0217822
0.0229623
0.0228682
0.0206399
0.0168771
0.012409
0.00895798
0.00739165
0.00787979
0.00912642
0.0116077
0.0148653
0.0166687
0.0136678
0.00659735
-0.0238621
-0.0259474
-0.0269361
-0.0270447
-0.0267677
-0.0264204
-0.0260796
-0.0256718
-0.025107
-0.0243344
-0.0233438
-0.0221462
-0.0207572
-0.0191887
-0.0174509
-0.0155554
-0.0135196
-0.0113666
-0.00912599
-0.0068321
-0.00452404
-0.00224452
-4.06457e-05
0.00204061
0.00395691
0.00567949
0.00714732
0.00832858
0.00921323
0.00979722
0.0101114
0.010196
0.0101342
0.0100175
0.00994728
0.0100257
0.0103046
0.0108398
0.0116022
0.0126083
0.0137655
0.0150671
0.0164215
0.0178316
0.0192887
0.0206097
0.0214381
0.021308
0.0195583
0.0166731
0.0132799
0.0104658
0.00898105
0.00908155
0.0099157
0.0115766
0.0139919
0.015572
0.0124732
0.00592815
-0.0190358
-0.0208188
-0.0216995
-0.0218492
-0.0216752
-0.0214406
-0.0212041
-0.0209206
-0.0205136
-0.0199376
-0.0191811
-0.0182517
-0.0171614
-0.0159198
-0.0145341
-0.0130128
-0.0113687
-0.00961927
-0.00778711
-0.00589886
-0.00398538
-0.00207931
-0.000217035
0.00156379
0.0032364
0.0047424
0.00607738
0.00720196
0.00810767
0.00878667
0.00926168
0.00955661
0.00973306
0.00985073
0.00998478
0.0102075
0.0105623
0.0110982
0.0117989
0.012688
0.0136924
0.0148191
0.015978
0.0171759
0.018304
0.0193578
0.0199265
0.019766
0.0184117
0.0162029
0.0136342
0.0113687
0.010034
0.00983518
0.0103293
0.0113474
0.012912
0.014031
0.0110024
0.00509618
-0.0147184
-0.0162385
-0.017021
-0.0172001
-0.0171094
-0.0169676
-0.0168269
-0.0166432
-0.0163629
-0.0159474
-0.0153854
-0.0146806
-0.0138418
-0.0128758
-0.0117879
-0.010584
-0.00927324
-0.00786854
-0.00638702
-0.00484881
-0.00327738
-0.00169814
-0.000139071
0.00137091
0.00280288
0.00412781
0.00532149
0.00636671
0.00726422
0.00799125
0.00856417
0.00899895
0.00933804
0.00962117
0.00990212
0.0102317
0.010644
0.0111801
0.0118302
0.0126201
0.0134915
0.0144593
0.0154361
0.0164355
0.0173296
0.0181182
0.0184934
0.0183134
0.0172728
0.0155799
0.0136306
0.0118129
0.0106533
0.0102266
0.0104244
0.010951
0.0117346
0.0122999
0.00945681
0.00424014
-0.0108637
-0.0121565
-0.012851
-0.013051
-0.0130277
-0.0129618
-0.0128981
-0.0128022
-0.0126239
-0.0123352
-0.0119319
-0.0114128
-0.0107839
-0.0100485
-0.00921045
-0.0082734
-0.00724394
-0.00613138
-0.00494831
-0.00370948
-0.00243267
-0.00113734
0.000155149
0.00142309
0.00264461
0.00379803
0.0048663
0.00583165
0.00667451
0.00740094
0.00801904
0.008534
0.0089746
0.00936547
0.00974428
0.0101458
0.0105958
0.0111265
0.0117308
0.0124342
0.0131893
0.0140144
0.0148276
0.0156482
0.0163469
0.0169294
0.0171669
0.0169791
0.016178
0.0148744
0.0133824
0.0119116
0.0109284
0.0103338
0.0102701
0.0104218
0.01056
0.0105654
0.00798434
0.00345812
-0.00742945
-0.00852766
-0.009144
-0.00935823
-0.00938898
-0.00938423
-0.00938239
-0.00935682
-0.00926745
-0.00908807
-0.00880725
-0.00843189
-0.00797598
-0.00743152
-0.00680112
-0.00608682
-0.00529273
-0.00442533
-0.00349403
-0.00250964
-0.0014852
-0.00043511
0.00062479
0.00167806
0.00270798
0.00369714
0.00463129
0.00549589
0.00628312
0.0069871
0.00761325
0.00816392
0.00865789
0.00911001
0.00954585
0.00998864
0.0104562
0.0109732
0.0115335
0.0121593
0.0128121
0.0135109
0.0141819
0.0148462
0.015387
0.0158118
0.0159542
0.0157672
0.0151436
0.0141288
0.0129695
0.0117476
0.0107751
0.0102136
0.00993753
0.00980196
0.00946235
0.00900987
0.00666994
0.00279511
-0.00437842
-0.00531018
-0.00585728
-0.00608008
-0.00615344
-0.00619747
-0.00624458
-0.00627426
-0.0062544
-0.00616362
-0.00599458
-0.00574868
-0.00542068
-0.00502373
-0.00456203
-0.0040306
-0.0034314
-0.00276828
-0.00204782
-0.00127783
-0.000467782
0.000371975
0.00122983
0.00209352
0.00295032
0.00378693
0.00459235
0.00535527
0.00606958
0.0067283
0.00733386
0.007886
0.0083963
0.00887303
0.0093327
0.00979043
0.0102574
0.0107517
0.0112674
0.0118226
0.0123851
0.0129731
0.0135233
0.0140546
0.0144696
0.0147745
0.0148514
0.0146703
0.0141763
0.0133736
0.0124564
0.0114403
0.0106094
0.00995879
0.00949024
0.00912889
0.00846867
0.00767585
0.00555568
0.00225928
-0.00167541
-0.00246526
-0.00295116
-0.00317809
-0.00328442
-0.00336661
-0.00345161
-0.00352367
-0.00355713
-0.00353434
-0.00344874
-0.00330049
-0.00309165
-0.00282433
-0.00249557
-0.00211045
-0.00167044
-0.00117617
-0.000631212
-4.08263e-05
0.000588236
0.00124867
0.00193205
0.00262949
0.00333171
0.00402868
0.00471176
0.00537203
0.00600441
0.00660254
0.00716662
0.00769475
0.00819339
0.0086665
0.0091239
0.00957493
0.0100257
0.010489
0.0109584
0.0114481
0.0119306
0.012422
0.0128708
0.0132909
0.0136058
0.0138195
0.0138518