/*--------------------------------*- C++ -*----------------------------------*\
| =========                 |                                                 |
| \\      /  F ield         | OpenFOAM: The Open Source CFD Toolbox           |
|  \\    /   O peration     | Version:  2512                                  |
|   \\  /    A nd           | Website:  www.openfoam.com                      |
|    \\/     M anipulation  |                                                 |
\*---------------------------------------------------------------------------*/
FoamFile
{
    version     2.0;
    format      ascii;
    arch        "LSB;label=32;scalar=64";
    class       volVectorField;
    location    "82";
    object      U;
}
// * * * * * * * * * * * * * * * * * * * * * * * * * * * * * * * * * * * * * //

dimensions      [0 1 -1 0 0 0 0];

internalField   nonuniform List<vector> 
13248
(
(-0.0133881 0.0126991 8.77389e-20)
(-0.0234282 0.0271919 0)
(-0.0163619 0.0353546 -1.65684e-19)
(0.00683293 0.0387176 1.5607e-19)
(0.0454146 0.0386605 1.46094e-19)
(0.0987554 0.0363791 0)
(0.166139 0.0328298 0)
(0.246578 0.0287573 3.5628e-19)
(0.338603 0.0247083 -2.74495e-22)
(0.440081 0.0210306 -3.13842e-19)
(0.548146 0.0178744 2.94576e-19)
(0.659276 0.0152088 -1.84552e-19)
(0.769509 0.0128549 0)
(0.874777 0.0105359 -3.21958e-19)
(0.971281 0.00793685 6.01336e-19)
(1.05585 0.00476711 -1.43904e-19)
(1.12624 0.000815644 -2.53877e-19)
(1.18128 -0.0040273 2.38352e-19)
(1.22098 -0.00969412 0)
(1.24629 -0.0162509 0)
(1.25921 -0.0228152 0)
(1.26124 -0.0317185 0)
(1.2563 -0.035614 6.68957e-20)
(1.24211 -0.0559542 2.32617e-19)
(-0.0124926 0.0105053 -2.64762e-19)
(-0.0167029 0.0199986 1.80264e-19)
(-0.000277984 0.023902 -1.61589e-21)
(0.0353749 0.024152 -2.38121e-19)
(0.0892356 0.0223489 -1.45937e-19)
(0.160271 0.0197973 -1.38159e-19)
(0.247039 0.0174529 -2.55056e-19)
(0.3474 0.0159579 2.40985e-19)
(0.45833 0.0156553 0)
(0.57589 0.0165912 5.27462e-22)
(0.695428 0.0185373 7.39967e-22)
(0.811973 0.0210479 1.832e-19)
(0.920733 0.0235492 0)
(1.0176 0.0254451 0)
(1.09954 0.02622 2.1695e-19)
(1.16489 0.0255211 -4.07784e-19)
(1.21337 0.0232024 2.41801e-19)
(1.24596 0.0193307 -2.2703e-19)
(1.26466 0.0141473 -9.8603e-20)
(1.27206 0.00801842 -1.78466e-19)
(1.27087 0.00141506 -7.16787e-20)
(1.26371 -0.00550664 -1.34165e-19)
(1.25262 -0.0105179 1.99842e-19)
(1.2387 -0.0199553 5.58361e-20)
(-0.010579 0.00814797 0)
(-0.00624839 0.0128111 0)
(0.0229027 0.0132323 8.42446e-20)
(0.0747176 0.0115327 7.77173e-20)
(0.147496 0.00943349 -1.66252e-21)
(0.239238 0.00827712 -1.42339e-19)
(0.34705 0.00890151 0)
(0.466886 0.0116641 -1.2006e-19)
(0.593572 0.0164729 1.12958e-19)
(0.721166 0.0228367 2.71879e-22)
(0.843572 0.0299688 -1.94727e-19)
(0.955262 0.0369407 -1.79279e-19)
(1.05191 0.0428525 2.92405e-21)
(1.13083 0.0469855 -1.48827e-19)
(1.19111 0.0489045 3.57392e-19)
(1.2335 0.0484943 0)
(1.26004 0.0459334 -2.30565e-19)
(1.2736 0.0416135 1.12679e-19)
(1.27731 0.0360662 9.85257e-20)
(1.27411 0.0297778 0)
(1.26651 0.0234529 7.94991e-20)
(1.25614 0.0168514 -2.684e-19)
(1.24447 0.0123928 2.51962e-19)
(1.23177 0.00341479 1.54043e-19)
(-0.00714721 0.00550545 -9.31249e-20)
(0.00905721 0.00556419 -9.62008e-20)
(0.054581 0.00354403 8.72184e-20)
(0.126146 0.00143081 0)
(0.220793 0.000863457 0)
(0.334788 0.0030288 -2.84989e-21)
(0.462972 0.00839372 0)
(0.598784 0.0167346 -3.65792e-19)
(0.734799 0.0272514 3.40336e-19)
(0.863631 0.0387504 -4.21189e-19)
(0.978925 0.0498916 9.70999e-20)
(1.07616 0.0594482 0)
(1.15303 0.0665146 1.61653e-19)
(1.20949 0.0706192 -2.99412e-19)
(1.2473 0.0717318 7.1488e-20)
(1.26948 0.0701819 1.82745e-19)
(1.27955 0.0665259 -8.51148e-21)
(1.28098 0.0614088 -2.02048e-19)
(1.2767 0.0554421 0)
(1.26896 0.0491491 0)
(1.25925 0.0429527 -7.14445e-20)
(1.2485 0.0369203 6.37621e-20)
(1.23738 0.0323641 2.26479e-19)
(1.22579 0.0246025 -2.12661e-19)
(-0.00171393 0.00260182 -9.77216e-20)
(0.0302207 -0.00150615 -9.75882e-20)
(0.0957987 -0.00461985 2.74578e-19)
(0.190158 -0.00528034 -1.6707e-19)
(0.308332 -0.00224706 1.57253e-19)
(0.443991 0.00517518 2.86638e-19)
(0.589058 0.0167065 -2.02543e-19)
(0.734383 0.0312117 -2.46881e-19)
(0.870998 0.047013 4.59102e-21)
(0.991482 0.0622794 3.17194e-19)
(1.09095 0.0754054 0)
(1.16745 0.0852865 8.72883e-20)
(1.22172 0.0914337 0)
(1.25649 0.0939312 -1.43131e-19)
(1.27563 0.0932814 2.01528e-19)
(1.28324 0.0902071 2.28139e-21)
(1.283 0.0854699 -5.26743e-20)
(1.27784 0.0797442 9.90255e-20)
(1.26984 0.073562 8.49145e-20)
(1.26033 0.0673002 -7.60332e-20)
(1.2501 0.0612344 7.14275e-20)
(1.23959 0.0554124 -6.3746e-20)
(1.22905 0.0505674 0)
(1.2185 0.0435096 -4.79992e-20)
(0.00614099 -0.00037977 9.77076e-20)
(0.0580068 -0.00780849 1.02374e-19)
(0.147056 -0.010294 -9.19688e-20)
(0.266264 -0.00736909 1.7157e-19)
(0.407814 0.00135792 -1.6148e-19)
(0.562057 0.01562 1.46462e-19)
(0.717882 0.0339767 -7.01919e-20)
(0.864328 0.0541774 1.85278e-19)
(0.992459 0.0737714 -1.16335e-19)
(1.09669 0.0906682 2.06471e-19)
(1.17516 0.103506 -4.76529e-19)
(1.2293 0.111763 1.74816e-19)
(1.26273 0.115649 -1.53764e-19)
(1.28012 0.115856 1.44436e-19)
(1.28612 0.113288 1.24963e-19)
(1.2847 0.108836 1.09846e-19)
(1.27884 0.103249 -3.052e-19)
(1.27056 0.0970852 1.89516e-19)
(1.26109 0.0907302 -8.4918e-20)
(1.25114 0.0844375 2.20907e-19)
(1.24107 0.0783663 -7.13517e-20)
(1.23106 0.0725965 -1.72889e-19)
(1.2212 0.0674839 1.59497e-19)
(1.21143 0.0609791 4.79845e-20)
(0.0167393 -0.00311368 0)
(0.0928237 -0.0124394 8.13784e-22)
(0.208141 -0.0121817 1.91697e-19)
(0.352837 -0.00341807 -1.79848e-19)
(0.515487 0.0128125 -1.62679e-19)
(0.682883 0.0347609 3.02494e-19)
(0.841615 0.0595524 -1.40549e-19)
(0.980579 0.083933 1.87687e-19)
(1.09286 0.105131 -3.98437e-21)
(1.17629 0.121391 -1.06406e-19)
(1.23274 0.132092 2.3297e-19)
(1.26664 0.137558 -3.43633e-19)
(1.28349 0.138691 0)
(1.2886 0.136606 -6.75854e-20)
(1.2863 0.13236 -1.81005e-19)
(1.27975 0.126805 5.68385e-20)
(1.27103 0.120555 2.28119e-21)
(1.26136 0.114021 -1.25403e-19)
(1.25139 0.107461 7.84399e-21)
(1.24144 0.101035 1.45052e-19)
(1.23165 0.0948431 -6.46712e-20)
(1.22208 0.0889599 -2.44976e-20)
(1.2127 0.0834788 7.58001e-20)
(1.20348 0.0772885 0)
(0.0302688 -0.00517142 0)
(0.134612 -0.0142986 5.19092e-20)
(0.277989 -0.00885515 -2.49129e-19)
(0.447079 0.0078842 9.08305e-20)
(0.626465 0.0328066 -8.54843e-20)
(0.799946 0.0622874 -7.80687e-20)
(0.953463 0.0920833 -1.38417e-19)
(1.07788 0.118437 6.88872e-20)
(1.16999 0.138933 6.02196e-20)
(1.23171 0.152705 0)
(1.26821 0.160142 1.37648e-19)
(1.28588 0.162375 -2.04832e-19)
(1.29082 0.160785 1.52714e-19)
(1.28795 0.156652 6.76216e-20)
(1.28077 0.150986 -5.54652e-20)
(1.27152 0.144494 -4.65805e-20)
(1.26145 0.137634 -4.36142e-20)
(1.25125 0.130683 1.30089e-19)
(1.24121 0.123809 0)
(1.23146 0.117114 6.55108e-20)
(1.22202 0.110668 5.51462e-20)
(1.21286 0.104523 -1.36867e-19)
(1.20394 0.0986556 -9.35797e-20)
(1.1952 0.0926442 8.6545e-20)
(0.0467483 -0.00605988 -5.54562e-20)
(0.182763 -0.0122233 -1.87107e-21)
(0.354648 0.0010065 5.06165e-20)
(0.545219 0.0274502 1.41373e-19)
(0.735369 0.0613694 4.11576e-20)
(0.907386 0.0972048 -7.94637e-20)
(1.04875 0.129844 7.27478e-20)
(1.15417 0.155791 -6.39913e-20)
(1.22496 0.173638 1.14606e-19)
(1.26675 0.18372 4.90523e-20)
(1.28694 0.187406 -1.38884e-19)
(1.29264 0.186415 4.11223e-20)
(1.2896 0.182338 7.03643e-20)
(1.28187 0.176417 -3.45939e-20)
(1.27199 0.169506 0)
(1.26137 0.162142 5.19896e-20)
(1.25074 0.154642 8.81868e-20)
(1.24039 0.147186 1.52494e-20)
(1.23046 0.139881 -7.36595e-20)
(1.22095 0.132795 3.09308e-20)
(1.21183 0.125977 0)
(1.20304 0.119448 -2.43794e-20)
(1.19452 0.113156 -2.30163e-20)
(1.18617 0.107126 0)
(0.0659794 -0.00526457 0)
(0.236072 -0.00513277 2.89999e-20)
(0.435369 0.0184017 5.37211e-20)
(0.642919 0.0556025 -1.43756e-19)
(0.837094 0.0978511 4.62997e-20)
(1.00083 0.138065 0)
(1.12527 0.171105 6.99521e-20)
(1.21003 0.194526 -9.76279e-20)
(1.26075 0.208344 -5.71331e-20)
(1.2858 0.214121 2.59313e-20)
(1.29358 0.213991 -4.14859e-20)
(1.291 0.209977 1.00754e-19)
(1.28292 0.203663 5.07601e-20)
(1.27238 0.196129 -3.51768e-20)
(1.26109 0.188043 -3.18957e-21)
(1.24986 0.179783 -9.72675e-20)
(1.23904 0.171557 4.43552e-20)
(1.22877 0.163481 -1.09189e-21)
(1.21904 0.155622 0)
(1.20982 0.148028 -3.09629e-20)
(1.20104 0.140729 0)
(1.19262 0.133718 7.03851e-20)
(1.18449 0.126984 -8.39085e-20)
(1.17653 0.120778 3.82741e-20)
(0.087516 -0.00229519 -1.49876e-20)
(0.292762 0.00784662 -7.29221e-20)
(0.516831 0.0438606 8.28389e-20)
(0.735787 0.0920229 4.88414e-20)
(0.92743 0.141066 -2.33624e-20)
(1.07767 0.18325 3.92763e-20)
(1.18277 0.214372 -1.90933e-20)
(1.24742 0.233635 3.18793e-20)
(1.28073 0.24261 0)
(1.29261 0.243897 7.2572e-20)
(1.2915 0.240102 -2.86084e-21)
(1.28347 0.233309 -5.88078e-20)
(1.27237 0.224947 2.53049e-20)
(1.26032 0.21589 -2.86931e-20)
(1.24837 0.206622 -1.10394e-20)
(1.23694 0.197397 1.26252e-20)
(1.22618 0.188347 -9.84124e-21)
(1.2161 0.179542 -5.35142e-20)
(1.20665 0.171026 3.28241e-20)
(1.19776 0.162831 6.7718e-21)
(1.18935 0.154963 5.98282e-21)
(1.18132 0.147404 5.28679e-21)
(1.17358 0.140216 0)
(1.16598 0.13365 0)
(0.110734 0.00328034 1.49979e-20)
(0.350726 0.0272984 -1.50457e-20)
(0.595607 0.0773782 -2.75842e-20)
(0.81998 0.13582 0)
(1.00345 0.189515 -1.15818e-20)
(1.13686 0.231209 -1.03989e-20)
(1.22223 0.258488 -1.78747e-20)
(1.26871 0.272506 0)
(1.28777 0.276273 0)
(1.28981 0.273139 0)
(1.28261 0.265904 0)
(1.27121 0.256533 0)
(1.25843 0.246232 -1.59195e-20)
(1.24569 0.235662 7.2592e-21)
(1.23355 0.225157 1.26849e-20)
(1.2222 0.214876 5.93385e-21)
(1.21167 0.204898 1.47806e-20)
(1.2019 0.195263 0)
(1.19283 0.185997 -3.5856e-21)
(1.18435 0.177116 -3.41617e-21)
(1.17638 0.168609 -5.99231e-21)
(1.16881 0.160464 -5.2952e-21)
(1.16152 0.152812 0)
(1.15436 0.145745 3.84508e-21)
(-0.00225923 0.0331306 8.6898e-21)
(-0.00841868 0.0746734 -9.00407e-21)
(-0.0182901 0.0988158 -1.70348e-20)
(-0.0301691 0.110417 0)
(-0.0430579 0.113394 -2.2712e-20)
(-0.0564339 0.110774 7.06584e-21)
(-0.0699205 0.104713 -1.3584e-20)
(-0.0832453 0.0965689 0)
(-0.0962234 0.0870487 0)
(-0.108728 0.076382 0)
(-0.120665 0.0644957 0)
(-0.131959 0.0511574 0)
(-0.142543 0.0360771 -2.13581e-22)
(-0.152349 0.0189733 -8.97278e-21)
(-0.161261 -0.000394014 1.74822e-20)
(-0.169172 -0.0221711 2.45264e-20)
(-0.176005 -0.0463948 8.06045e-21)
(-0.181637 -0.073035 0)
(-0.185935 -0.101913 6.61607e-21)
(-0.188797 -0.132695 -1.91172e-20)
(-0.190154 -0.164894 -1.20457e-20)
(-0.189986 -0.197888 -1.11992e-20)
(-0.188396 -0.230952 0)
(-0.185728 -0.263238 0)
(-0.00437259 0.0362206 -2.63525e-20)
(-0.0125006 0.0824913 4.52495e-20)
(-0.0223769 0.110189 -1.7441e-20)
(-0.0331733 0.124365 -3.26663e-20)
(-0.0443805 0.129097 4.59513e-20)
(-0.0557278 0.127575 -2.92097e-20)
(-0.0669796 0.122107 4.10537e-20)
(-0.0779306 0.114186 2.64975e-20)
(-0.0884163 0.104622 0)
(-0.0983062 0.0937224 -2.32088e-20)
(-0.107495 0.0814604 -4.02687e-22)
(-0.115896 0.0676268 2.04298e-20)
(-0.123436 0.0519375 3.0183e-20)
(-0.130045 0.0341064 3.80721e-20)
(-0.135642 0.0138893 -1.71457e-20)
(-0.140101 -0.00890745 -5.03703e-20)
(-0.143369 -0.034384 1.66838e-20)
(-0.145401 -0.0624875 -6.15934e-20)
(-0.146087 -0.093035 0)
(-0.145367 -0.125663 1.28882e-20)
(-0.143235 -0.159806 1.20287e-20)
(-0.1397 -0.194685 1.11834e-20)
(-0.134729 -0.229283 0)
(-0.128763 -0.262266 0)
(-0.00663688 0.0380052 0)
(-0.0168803 0.0876463 9.40789e-20)
(-0.026604 0.118359 -3.5404e-20)
(-0.035915 0.135022 3.31798e-20)
(-0.0448273 0.141645 -9.52259e-20)
(-0.0533438 0.14144 0)
(-0.0613884 0.136794 -5.69267e-20)
(-0.0688361 0.1293 2.70723e-20)
(-0.0755475 0.119876 -5.17562e-20)
(-0.0813853 0.108917 2.53887e-20)
(-0.086223 0.0964672 1.39531e-19)
(-0.0899487 0.0823634 -6.56349e-20)
(-0.0924644 0.0663458 -1.04362e-19)
(-0.0936823 0.0481345 -4.15024e-20)
(-0.0935257 0.0274777 -9.36491e-22)
(-0.0919347 0.00417455 1.43485e-19)
(-0.0888295 -0.0219087 -6.77451e-20)
(-0.0841424 -0.0507271 -1.75822e-21)
(-0.0778822 -0.0821097 0)
(-0.0700627 -0.115694 -5.8716e-20)
(-0.0607675 -0.150891 0)
(-0.0500875 -0.186821 -4.77862e-20)
(-0.037725 -0.222219 1.83815e-19)
(-0.0238373 -0.255267 -1.96737e-21)
(-0.00883106 0.0383344 0)
(-0.0211694 0.0897065 9.72223e-22)
(-0.0306237 0.122658 3.67643e-20)
(-0.0381731 0.141532 -3.48658e-20)
(-0.0443327 0.150044 3.17368e-20)
(-0.0493782 0.151282 1.84857e-19)
(-0.0534042 0.147623 -5.79522e-20)
(-0.0563809 0.140715 -5.58148e-20)
(-0.0582054 0.131562 1.0477e-19)
(-0.0587391 0.120654 -1.49624e-19)
(-0.0578333 0.10812 4.76319e-20)
(-0.0553447 0.0938597 4.59023e-20)
(-0.0511425 0.0776574 0)
(-0.0451121 0.059257 4.0438e-20)
(-0.0371611 0.0384166 0)
(-0.0272252 0.0149464 7.6076e-20)
(-0.0152575 -0.0112486 -1.43212e-19)
(-0.00121729 -0.0401561 3.18219e-20)
(0.0148524 -0.0716077 1.27329e-19)
(0.0328293 -0.105257 5.8646e-20)
(0.052496 -0.140532 0)
(0.0735309 -0.176562 -1.5462e-19)
(0.096159 -0.211868 4.84629e-20)
(0.122354 -0.244094 0)
(-0.0107462 0.0372294 0)
(-0.0249926 0.0885572 -1.1782e-19)
(-0.0341169 0.122746 -3.75044e-20)
(-0.0397873 0.143326 -7.02583e-20)
(-0.0429361 0.153531 6.6154e-20)
(-0.0440853 0.156196 -6.2021e-20)
(-0.0435022 0.153588 1.1937e-19)
(-0.0412661 0.147353 5.69349e-20)
(-0.0373281 0.13855 -1.59669e-19)
(-0.0315629 0.127753 1.02854e-19)
(-0.023808 0.115178 -1.4568e-19)
(-0.0138924 0.100802 3.27411e-19)
(-0.00165231 0.0844684 -1.76007e-19)
(0.0130594 0.0659638 8.55174e-20)
(0.0303607 0.0450811 2.44749e-19)
(0.0503252 0.0216603 -7.37434e-20)
(0.0729907 -0.00436278 -7.22959e-20)
(0.098344 -0.0329416 -6.83757e-20)
(0.126264 -0.0638866 0)
(0.156529 -0.0968288 -1.23749e-19)
(0.188743 -0.131191 -1.14239e-19)
(0.222489 -0.166157 1.62307e-19)
(0.256868 -0.20031 1.93439e-19)
(0.2988 -0.23028 -1.82602e-19)
(-0.0122264 0.0348848 0)
(-0.0280501 0.0844278 -1.61702e-19)
(-0.0368269 0.118679 -7.64008e-22)
(-0.0406401 0.140216 1.42883e-19)
(-0.04071 0.151683 0)
(-0.0377539 0.155559 0)
(-0.0321981 0.153924 0)
(-0.0242379 0.148353 -5.76301e-20)
(-0.0138939 0.139917 -1.30967e-21)
(-0.00107073 0.129251 1.03117e-19)
(0.0143935 0.116647 -1.49147e-19)
(0.0326891 0.102161 -1.13258e-21)
(0.054005 0.0857066 0)
(0.0785214 0.0671194 -8.54672e-20)
(0.106375 0.0462553 8.43163e-20)
(0.137643 0.0229999 -2.3453e-19)
(0.172327 -0.00266734 2.99098e-19)
(0.210325 -0.0306506 7.2989e-20)
(0.251386 -0.0606943 8.17886e-22)
(0.295116 -0.0923513 -2.51205e-19)
(0.34076 -0.125009 -1.16719e-19)
(0.38831 -0.15767 3.75341e-19)
(0.433039 -0.189924 -2.49661e-19)
(0.492852 -0.216059 0)
(-0.0132064 0.0316386 8.04918e-20)
(-0.0301715 0.0778613 8.1229e-20)
(-0.0385812 0.110911 -7.76272e-20)
(-0.040626 0.132439 -1.45265e-19)
(-0.0376616 0.144484 1.36772e-19)
(-0.030532 0.149129 -1.29607e-19)
(-0.0197905 0.148207 1.83322e-19)
(-0.00573893 0.143165 -5.7854e-20)
(0.0115298 0.13504 1.09555e-19)
(0.032074 0.124491 0)
(0.0560484 0.111866 1.01845e-19)
(0.0836579 0.0972913 -1.89569e-19)
(0.115098 0.0807441 1.83412e-19)
(0.150563 0.062162 -1.72259e-19)
(0.190201 0.0414504 0)
(0.234018 0.0185571 1.57442e-19)
(0.281901 -0.00646802 3.01072e-19)
(0.333552 -0.0334444 -2.82728e-19)
(0.38843 -0.0620336 -1.32832e-19)
(0.445869 -0.0916697 -1.24994e-19)
(0.504259 -0.121839 3.50421e-19)
(0.564887 -0.150812 1.03551e-19)
(0.61683 -0.180428 -9.97919e-20)
(0.691332 -0.201071 8.59989e-20)
(-0.0137235 0.0279088 -8.05028e-20)
(-0.0313342 0.0696203 2.49899e-19)
(-0.0392792 0.100228 -7.89648e-20)
(-0.0395828 0.120642 1.47026e-19)
(-0.0335896 0.132376 -1.38428e-19)
(-0.0221931 0.137137 1.84129e-22)
(-0.00602324 0.136487 6.16249e-20)
(0.0145447 0.131711 2.34973e-19)
(0.0393652 0.123769 2.20318e-21)
(0.0684681 0.11331 -1.04049e-19)
(0.101999 0.100715 0)
(0.14016 0.086171 -9.68788e-20)
(0.183171 0.0697455 1.80561e-19)
(0.231149 0.0514416 1.74686e-19)
(0.284096 0.031234 -8.18317e-20)
(0.341847 0.00918154 -6.87413e-22)
(0.403973 -0.014568 -7.47052e-20)
(0.469754 -0.039733 1.39108e-19)
(0.538086 -0.0659067 1.3279e-19)
(0.60787 -0.0923521 -1.24042e-19)
(0.676311 -0.118926 1.11817e-19)
(0.745939 -0.142778 -1.02157e-19)
(0.800837 -0.168615 0)
(0.880711 -0.182317 -8.59235e-20)
(-0.0139011 0.0241152 8.22467e-20)
(-0.031627 0.0605444 -8.37698e-20)
(-0.0388262 0.0876174 7.95658e-20)
(-0.0371756 0.105801 0)
(-0.0278959 0.116247 0)
(-0.0118549 0.120349 1.32393e-19)
(0.0103071 0.119422 -1.23788e-19)
(0.0381959 0.114577 1.18074e-19)
(0.0716519 0.106681 -5.54459e-19)
(0.110693 0.0963471 -8.71132e-22)
(0.155445 0.0839793 9.96842e-20)
(0.206053 0.0698149 0)
(0.262587 0.0539855 -1.82106e-19)
(0.324953 0.0365638 3.44183e-19)
(0.392791 0.0176527 -2.44803e-19)
(0.46542 -0.00259863 -3.8911e-19)
(0.541775 -0.023955 -1.12812e-21)
(0.620409 -0.0460607 2.7178e-19)
(0.699446 -0.0684994 0)
(0.77713 -0.0904507 0)
(0.849987 -0.112163 -1.11811e-19)
(0.92028 -0.13013 1.02153e-19)
(0.972289 -0.151226 -3.53423e-19)
(1.04343 -0.157788 3.31279e-19)
(-0.0139 0.0205964 0)
(-0.0311526 0.0513886 0)
(-0.0370064 0.0740931 -2.39329e-19)
(-0.0327378 0.0890847 7.60206e-20)
(-0.0193821 0.0973455 4.08283e-22)
(0.00228299 0.100062 1.33099e-19)
(0.0316736 0.0983538 0)
(0.0684309 0.0931838 -1.17353e-19)
(0.112401 0.0853255 1.10863e-19)
(0.163562 0.075358 -2.10425e-19)
(0.221905 0.063688 -8.85002e-22)
(0.287317 0.050588 1.89853e-19)
(0.359453 0.0362524 1.88725e-21)
(0.43762 0.0208361 1.7243e-19)
(0.520698 0.00449961 -2.41039e-19)
(0.607111 -0.0125642 0)
(0.694857 -0.0301055 2.85517e-19)
(0.781602 -0.0478076 -4.03743e-19)
(0.864804 -0.0653172 1.21622e-19)
(0.942109 -0.0820353 0)
(1.01053 -0.098203 1.02141e-19)
(1.07085 -0.110936 3.73943e-19)
(1.11278 -0.12707 -3.50979e-19)
(1.16219 -0.128536 -3.71314e-19)
(-0.0138424 0.0175425 2.51897e-19)
(-0.0298857 0.0426815 -3.45595e-19)
(-0.0333286 0.0605292 9.58929e-22)
(-0.0251294 0.0716872 7.66259e-20)
(-0.00613302 0.0771547 -1.42604e-19)
(0.0230079 0.0780284 -1.32696e-19)
(0.0617989 0.0753089 2.49863e-19)
(0.109912 0.0698559 1.24205e-22)
(0.167123 0.0623686 -2.21221e-19)
(0.233177 0.0533853 4.19235e-19)
(0.307644 0.043302 1.95548e-21)
(0.389753 0.0324027 -1.8662e-19)
(0.478273 0.0208879 0)
(0.571457 0.0089051 0)
(0.667047 -0.00342324 -7.97932e-20)
(0.76238 -0.0159791 -1.46229e-19)
(0.854557 -0.0286246 -2.76096e-19)
(0.940654 -0.0412205 2.59174e-19)
(1.01803 -0.0535305 -1.21689e-19)
(1.08447 -0.0654331 2.15044e-19)
(1.13849 -0.0766619 -1.08914e-19)
(1.18008 -0.0863136 1.68983e-19)
(1.20603 -0.098064 -4.08496e-19)
(1.22937 -0.0984843 7.42943e-20)
(-0.0137274 0.0149595 8.49251e-20)
(-0.027526 0.0346429 0)
(-0.0268973 0.0475328 1.63433e-19)
(-0.0126748 0.0546695 -1.53953e-19)
(0.0144269 0.0572084 1.42737e-19)
(0.0538519 0.0562597 0)
(0.10513 0.052777 0)
(0.167804 0.0475531 -1.18147e-19)
(0.241294 0.0412212 -3.1332e-22)
(0.324711 0.0342616 1.04116e-19)
(0.416684 0.0270066 -9.8691e-20)
(0.515252 0.0196568 1.85501e-19)
(0.617853 0.0123013 0)
(0.721418 0.00494393 3.29284e-19)
(0.822575 -0.00246663 -6.17209e-19)
(0.917909 -0.0100059 4.35541e-19)
(1.00427 -0.0177342 2.65427e-19)
(1.07903 -0.0257091 -2.49177e-19)
(1.14042 -0.0338249 0)
(1.18743 -0.042298 0)
(1.22051 -0.0502819 0)
(1.2402 -0.0592955 0)
(1.24886 -0.0669289 7.80384e-20)
(1.25141 -0.0722482 -2.62555e-19)
(-0.181947 -0.299284 -6.22932e-21)
(-0.180452 -0.341581 6.27029e-21)
(-0.175175 -0.379705 -1.85911e-22)
(-0.166853 -0.410916 0)
(-0.154424 -0.432294 -5.10205e-21)
(-0.136693 -0.440541 9.8469e-21)
(-0.112415 -0.432339 -1.26273e-23)
(-0.080472 -0.40472 -4.60596e-21)
(-0.040084 -0.355637 0)
(0.00782064 -0.284732 0)
(0.062094 -0.193034 -2.57941e-22)
(0.120912 -0.0826512 -2.53412e-22)
(0.181616 0.0395875 -4.34104e-21)
(0.242946 0.166715 3.98388e-21)
(0.30385 0.289289 0)
(0.362282 0.396016 0)
(0.414664 0.476645 2.24552e-21)
(0.457215 0.526264 -3.52027e-22)
(0.486592 0.548116 -1.68034e-21)
(0.498279 0.554312 -8.5269e-23)
(0.488128 0.559752 0)
(0.460615 0.566844 0)
(0.43395 0.554692 0)
(0.43153 0.490013 0)
(0.463737 0.355068 0)
(0.522807 0.163405 0)
(0.593902 -0.0476703 6.19352e-22)
(0.663404 -0.234643 -1.03419e-21)
(0.720815 -0.367442 0)
(0.759153 -0.441962 0)
(0.778251 -0.469971 -3.43492e-22)
(0.785043 -0.466519 3.33839e-22)
(0.779106 -0.456197 1.27686e-22)
(0.750149 -0.462236 0)
(0.698881 -0.474673 0)
(0.650732 -0.439744 3.34288e-22)
(0.633868 -0.316523 -3.24953e-22)
(0.656078 -0.119018 0)
(0.698793 0.0861042 3.36378e-22)
(0.747498 0.246469 -4.69615e-22)
(0.790562 0.337145 1.13119e-22)
(0.8212 0.380306 0)
(0.82132 0.412332 -1.59154e-22)
(0.786002 0.437271 1.54763e-22)
(0.735239 0.426068 0)
(0.708124 0.316414 0)
(0.712104 0.146207 -9.84308e-23)
(0.753636 -0.0606928 2.91477e-22)
(0.79566 -0.193515 0)
(0.827493 -0.295337 0)
(0.815578 -0.350642 -4.43766e-23)
(0.773754 -0.375969 3.39354e-24)
(0.747314 -0.354771 -1.85287e-24)
(0.745803 -0.185403 2.86498e-23)
(0.774411 -0.0726158 0)
(0.793473 0.159374 0)
(0.782805 0.249423 0)
(0.759554 0.335813 0)
(0.756979 0.374381 0)
(0.742416 0.0834239 0)
(-0.123351 -0.297972 -6.69145e-22)
(-0.127738 -0.342633 -2.57847e-20)
(-0.129754 -0.383627 1.44528e-21)
(-0.131193 -0.418163 2.28094e-20)
(-0.131273 -0.443644 3.23348e-22)
(-0.128596 -0.457135 0)
(-0.121399 -0.455329 -1.72344e-20)
(-0.107589 -0.435009 3.36405e-20)
(-0.0852017 -0.393544 -1.63937e-20)
(-0.053066 -0.329928 1.55789e-20)
(-0.0102444 -0.243784 -1.48838e-20)
(0.0403256 -0.138704 1.46186e-20)
(0.095536 -0.0164855 -1.41241e-20)
(0.155405 0.110354 -3.71605e-22)
(0.217892 0.234529 -1.12344e-20)
(0.280561 0.345577 1.09176e-20)
(0.339656 0.433856 -8.0281e-21)
(0.390599 0.494447 7.59206e-21)
(0.42814 0.530317 -5.91586e-21)
(0.446707 0.552164 1.10468e-20)
(0.444784 0.570257 -5.15828e-21)
(0.431776 0.580616 -3.24996e-22)
(0.427825 0.559713 -6.20465e-21)
(0.45139 0.479378 1.31487e-20)
(0.504597 0.330288 -6.91789e-21)
(0.576399 0.130334 5.19568e-22)
(0.652672 -0.08355 7.67573e-21)
(0.720523 -0.267443 -7.58197e-22)
(0.770964 -0.392062 -1.09962e-20)
(0.79992 -0.45607 8.46829e-21)
(0.808492 -0.475456 -3.59595e-21)
(0.805004 -0.465839 3.00725e-22)
(0.792709 -0.447804 -1.27936e-22)
(0.76155 -0.444398 2.1799e-22)
(0.707642 -0.452591 0)
(0.651734 -0.424611 0)
(0.624235 -0.316057 -1.31068e-21)
(0.637645 -0.131754 9.62472e-22)
(0.677077 0.0669154 8.98287e-22)
(0.727777 0.227131 -3.27571e-23)
(0.77679 0.322258 -1.07271e-21)
(0.812544 0.374173 1.75649e-22)
(0.815594 0.417363 0)
(0.783238 0.450061 0)
(0.737169 0.438172 0)
(0.717183 0.320845 0)
(0.723959 0.141024 4.74496e-22)
(0.766132 -0.0716838 -1.95933e-22)
(0.805078 -0.203504 0)
(0.836395 -0.297802 0)
(0.823551 -0.34434 0)
(0.780499 -0.367516 -6.52919e-23)
(0.753624 -0.351505 1.80157e-23)
(0.748195 -0.188494 -6.39723e-23)
(0.775596 -0.0778956 0)
(0.789936 0.158608 0)
(0.779638 0.252334 3.18121e-23)
(0.756347 0.338446 7.15033e-23)
(0.754527 0.375884 0)
(0.742015 0.0847648 0)
(-0.0153923 -0.289746 -2.02138e-21)
(-0.0230224 -0.334737 -5.75312e-20)
(-0.0300712 -0.377029 5.02426e-20)
(-0.0390596 -0.413265 -4.69905e-20)
(-0.050104 -0.441084 -3.2552e-22)
(-0.0619768 -0.458718 0)
(-0.0727087 -0.462923 -3.23349e-20)
(-0.0796985 -0.450531 3.16136e-20)
(-0.0798741 -0.41834 2.33661e-22)
(-0.0698784 -0.364762 3.6101e-22)
(-0.0475751 -0.288303 3.38532e-22)
(-0.0107599 -0.191681 4.20567e-22)
(0.0344862 -0.0759841 -2.2289e-20)
(0.0860326 0.0498956 2.20349e-20)
(0.146192 0.174352 0)
(0.209853 0.289103 4.66761e-22)
(0.272469 0.384937 -1.3747e-20)
(0.328535 0.457116 1.35686e-20)
(0.371869 0.507751 0)
(0.397677 0.544502 0)
(0.407571 0.572372 -1.06634e-20)
(0.41374 0.582756 2.21224e-20)
(0.434898 0.552607 -2.4265e-20)
(0.482978 0.460155 -2.04716e-21)
(0.554141 0.302567 3.12991e-20)
(0.636001 0.0991118 -3.42223e-20)
(0.715557 -0.113788 3.15535e-20)
(0.780391 -0.292762 -3.07473e-21)
(0.822607 -0.409377 -1.2892e-20)
(0.841501 -0.464103 0)
(0.83993 -0.476223 0)
(0.826538 -0.462277 1.59702e-21)
(0.807807 -0.438523 -2.13587e-21)
(0.775052 -0.426389 -1.98441e-23)
(0.720084 -0.429619 1.72587e-21)
(0.657853 -0.40786 -1.67734e-21)
(0.619856 -0.314544 0)
(0.623625 -0.144881 3.12857e-22)
(0.659105 0.045897 2.38338e-21)
(0.711256 0.205148 -4.22541e-21)
(0.765437 0.304952 1.70945e-21)
(0.805645 0.366343 1.52973e-22)
(0.811556 0.421119 -1.63535e-21)
(0.782768 0.461612 1.28188e-21)
(0.742009 0.449303 3.96546e-22)
(0.729274 0.325238 4.78196e-22)
(0.738899 0.1371 -4.75705e-22)
(0.781222 -0.0809736 0)
(0.816551 -0.212316 0)
(0.846854 -0.299684 -1.00168e-21)
(0.833053 -0.337711 4.48755e-22)
(0.788576 -0.358824 -2.86089e-22)
(0.761148 -0.348289 3.36387e-22)
(0.751833 -0.191451 3.57526e-22)
(0.778137 -0.083051 -1.11086e-22)
(0.787796 0.157896 1.45133e-22)
(0.777831 0.255193 -1.19115e-22)
(0.754003 0.340853 3.86942e-23)
(0.753049 0.377248 0)
(0.74269 0.0860689 0)
(0.133332 -0.27804 -1.23765e-19)
(0.125432 -0.320726 8.58996e-21)
(0.11591 -0.361766 1.09228e-19)
(0.103048 -0.396864 -7.32877e-22)
(0.0846241 -0.424652 0)
(0.061294 -0.443624 0)
(0.0352858 -0.451597 -5.90023e-20)
(0.00881409 -0.446055 5.9409e-21)
(-0.0152054 -0.423189 7.16315e-20)
(-0.031624 -0.381964 -1.8976e-21)
(-0.0356177 -0.31891 -1.98201e-20)
(-0.0231787 -0.233708 -1.68906e-20)
(0.00523927 -0.131068 1.68606e-20)
(0.0435228 -0.00961135 0)
(0.0932422 0.111774 -1.39582e-20)
(0.152523 0.228897 1.27539e-20)
(0.214321 0.331653 0)
(0.27239 0.415044 0)
(0.320402 0.479358 9.26967e-21)
(0.355015 0.528533 2.38574e-22)
(0.38005 0.562938 -8.68062e-21)
(0.408038 0.571433 -1.17133e-20)
(0.454047 0.533642 1.18093e-20)
(0.523642 0.434128 -1.64043e-20)
(0.609065 0.273873 -1.71459e-21)
(0.698476 0.0712057 1.72221e-20)
(0.780215 -0.138141 2.17334e-21)
(0.841449 -0.311255 -2.18049e-23)
(0.874953 -0.420347 0)
(0.883383 -0.467041 7.83454e-21)
(0.872136 -0.472937 -8.01718e-21)
(0.849464 -0.456035 3.00969e-22)
(0.824095 -0.428726 0)
(0.789907 -0.408987 -2.00584e-22)
(0.735487 -0.406173 2.92956e-21)
(0.668991 -0.389016 -5.77321e-21)
(0.62119 -0.311038 -9.16649e-22)
(0.614666 -0.157695 -2.44463e-22)
(0.645354 0.0235014 3.30728e-21)
(0.698105 0.180872 4.43118e-22)
(0.756453 0.285433 -2.70934e-21)
(0.800421 0.356744 2.30189e-21)
(0.809139 0.423277 9.79045e-24)
(0.784431 0.471553 1.51744e-21)
(0.749399 0.45934 -1.87323e-21)
(0.743907 0.32971 -3.60897e-21)
(0.756505 0.134777 9.30489e-22)
(0.798635 -0.0883328 1.75771e-21)
(0.829937 -0.219909 -3.03418e-21)
(0.858718 -0.301109 1.83054e-21)
(0.843921 -0.330852 -2.90294e-22)
(0.797812 -0.349834 4.49957e-22)
(0.76962 -0.344982 2.57428e-22)
(0.756492 -0.19424 -4.5347e-22)
(0.781916 -0.088115 -9.3568e-24)
(0.787008 0.1572 -8.91563e-23)
(0.777358 0.258043 0)
(0.752535 0.343073 -5.10503e-23)
(0.752574 0.378456 9.94117e-23)
(0.744467 0.0873322 0)
(0.309293 -0.263995 1.27496e-19)
(0.303879 -0.304747 -2.40828e-19)
(0.293571 -0.342528 1.12134e-19)
(0.279009 -0.373954 9.0245e-20)
(0.257183 -0.398638 -1.65701e-19)
(0.227823 -0.4151 1.08197e-20)
(0.191898 -0.42264 6.3552e-20)
(0.151853 -0.41993 4.34363e-20)
(0.108273 -0.405713 -4.25533e-20)
(0.0663802 -0.37636 0)
(0.0343307 -0.328177 -2.5842e-20)
(0.0167734 -0.258617 4.77709e-20)
(0.020089 -0.16921 -2.21865e-20)
(0.0367384 -0.0636486 0)
(0.067852 0.0513362 0)
(0.116051 0.16802 3.4199e-22)
(0.171526 0.27543 -1.55963e-20)
(0.228143 0.36782 1.51514e-20)
(0.279773 0.443134 0)
(0.324153 0.501711 1.61578e-20)
(0.365708 0.540258 -3.33809e-20)
(0.415366 0.546771 3.94505e-20)
(0.483534 0.50456 -4.90247e-20)
(0.570341 0.403534 -6.11076e-21)
(0.666217 0.245844 6.86415e-20)
(0.761255 0.047638 -3.62814e-20)
(0.844538 -0.156381 -1.11282e-21)
(0.902057 -0.322674 -1.31661e-20)
(0.926791 -0.424479 2.86971e-21)
(0.924624 -0.464615 1.05442e-20)
(0.904269 -0.465699 4.09853e-22)
(0.873379 -0.447082 -4.18132e-21)
(0.841503 -0.418321 7.2573e-21)
(0.805795 -0.392746 -3.43453e-21)
(0.753176 -0.38335 0)
(0.684716 -0.368751 -2.97617e-21)
(0.628498 -0.305272 2.95329e-21)
(0.611338 -0.169421 -2.78571e-21)
(0.636211 0.000410473 3.4672e-21)
(0.688411 0.154674 -3.10566e-22)
(0.749712 0.263811 0)
(0.796711 0.345179 -2.77257e-22)
(0.808194 0.423464 9.0481e-22)
(0.787972 0.47958 0)
(0.758885 0.468206 4.7632e-21)
(0.760523 0.334376 -1.66954e-21)
(0.776272 0.133907 1.12098e-21)
(0.818064 -0.0936744 1.07308e-21)
(0.845062 -0.226143 0)
(0.871802 -0.302033 0)
(0.856008 -0.323755 -1.02781e-21)
(0.808088 -0.340479 1.33156e-21)
(0.778804 -0.341515 -5.88943e-22)
(0.761931 -0.196869 1.33971e-22)
(0.786784 -0.0931371 2.0218e-22)
(0.787502 0.15648 8.92417e-23)
(0.778187 0.26092 -1.10921e-22)
(0.751955 0.345142 0)
(0.753119 0.379485 -1.49323e-22)
(0.747364 0.0885424 -6.60002e-23)
(0.499332 -0.248586 1.29013e-19)
(0.49502 -0.288012 -1.28233e-19)
(0.485745 -0.322338 8.57944e-22)
(0.470916 -0.34944 -7.37835e-22)
(0.448151 -0.369296 6.48243e-22)
(0.416966 -0.38113 -5.43911e-22)
(0.377375 -0.384576 8.37038e-22)
(0.329787 -0.380051 0)
(0.275011 -0.368868 -4.78383e-22)
(0.216676 -0.346894 3.41064e-22)
(0.161443 -0.311996 2.34314e-22)
(0.115877 -0.260079 -2.96568e-22)
(0.0871999 -0.18906 0)
(0.0756754 -0.103316 0)
(0.0839467 0.000883086 6.91406e-23)
(0.112682 0.111284 0)
(0.155162 0.218663 -7.083e-23)
(0.205702 0.315946 0)
(0.258416 0.398638 -9.98119e-21)
(0.311201 0.463695 2.1751e-20)
(0.367629 0.504989 -2.71187e-20)
(0.435859 0.510623 1.51204e-20)
(0.52151 0.467712 2.60863e-20)
(0.620465 0.370125 -2.53271e-20)
(0.723202 0.219425 -3.71512e-20)
(0.822479 0.0284323 3.61816e-20)
(0.907081 -0.168595 0)
(0.960842 -0.327251 9.69415e-22)
(0.97704 -0.422087 0)
(0.964533 -0.457239 0)
(0.935698 -0.455074 1.05759e-20)
(0.897847 -0.435698 -1.10587e-20)
(0.859853 -0.407208 4.09634e-22)
(0.822281 -0.377874 3.34518e-22)
(0.772312 -0.361904 -2.36627e-22)
(0.704227 -0.347667 -2.07531e-21)
(0.641573 -0.297057 2.01525e-21)
(0.613993 -0.179539 -2.84336e-21)
(0.63189 -0.0228656 2.42345e-21)
(0.682101 0.12695 5.62454e-22)
(0.745012 0.240172 -2.1266e-21)
(0.794316 0.331434 -4.07195e-22)
(0.808515 0.421322 1.59226e-21)
(0.793043 0.48545 0)
(0.769941 0.475877 -1.77087e-21)
(0.778416 0.339249 3.64619e-21)
(0.79761 0.134477 -4.5985e-21)
(0.839212 -0.0968771 -1.07989e-21)
(0.861737 -0.230879 0)
(0.885886 -0.302439 3.81745e-22)
(0.869133 -0.316457 -9.43579e-22)
(0.819303 -0.33068 -1.52592e-23)
(0.7885 -0.337772 -1.09107e-22)
(0.7679 -0.199352 7.2182e-23)
(0.792557 -0.0981841 -1.31869e-22)
(0.789187 0.155682 0)