/*--------------------------------*- C++ -*----------------------------------*\
| =========                 |                                                 |
| \\      /  F ield         | OpenFOAM: The Open Source CFD Toolbox           |
|  \\    /   O peration     | Version:  2512                                  |
|   \\  /    A nd           | Website:  www.openfoam.com                      |
|    \\/     M anipulation  |                                                 |
\*---------------------------------------------------------------------------*/
FoamFile
{
    version     2.0;
    format      ascii;
    arch        "LSB;label=32;scalar=64";
    class       volVectorField;
    location    "167.75";
    object      U;
}
// * * * * * * * * * * * * * * * * * * * * * * * * * * * * * * * * * * * * * //

dimensions      [0 1 -1 0 0 0 0];

internalField   nonuniform List<vector> 
13248
(
(-0.0144145 0.0127867 8.59336e-20)
(-0.0265742 0.026804 0)
(-0.0221076 0.0341787 -1.62063e-19)
(-0.00121414 0.0372385 1.52661e-19)
(0.0359941 0.0375938 1.42525e-19)
(0.0893422 0.0363778 0)
(0.158422 0.0343998 0)
(0.242382 0.0322408 3.42285e-19)
(0.339699 0.0302884 -9.70311e-22)
(0.448007 0.0287362 -3.00245e-19)
(0.564044 0.0275794 2.81425e-19)
(0.683775 0.026625 -1.761e-19)
(0.80266 0.0255281 0)
(0.916047 0.0238525 -3.11047e-19)
(1.01961 0.0211478 5.83139e-19)
(1.10976 0.0170299 -1.39342e-19)
(1.184 0.0112506 -2.51698e-19)
(1.24112 0.00372659 2.36308e-19)
(1.28128 -0.00538874 0)
(1.3058 -0.0160591 0)
(1.31712 -0.0271632 0)
(1.31734 -0.0413557 0)
(1.31017 -0.049691 6.97531e-20)
(1.29488 -0.0782449 2.47868e-19)
(-0.0144524 0.0115491 -2.59487e-19)
(-0.0212523 0.0215651 1.76833e-19)
(-0.00680793 0.0250876 -1.73432e-21)
(0.027856 0.024944 -2.3344e-19)
(0.0821055 0.0231073 -1.42369e-19)
(0.155178 0.0209695 -1.34861e-19)
(0.245743 0.0194553 -2.4708e-19)
(0.351565 0.019117 2.34176e-19)
(0.469291 0.0201725 0)
(0.594471 0.0225182 5.62284e-22)
(0.721824 0.0257593 1.43065e-21)
(0.845733 0.0292782 1.76226e-19)
(0.96084 0.0323407 0)
(1.06262 0.034221 0)
(1.14785 0.0343225 2.12019e-19)
(1.21488 0.0322693 -3.98643e-19)
(1.26364 0.0279501 2.39561e-19)
(1.29553 0.0215129 -2.2493e-19)
(1.313 0.0133004 -9.87075e-20)
(1.31907 0.00380277 -1.811e-19)
(1.31673 -0.00646945 -7.40975e-20)
(1.30873 -0.0171311 -1.39488e-19)
(1.2968 -0.0261288 2.05213e-19)
(1.28301 -0.0392962 5.78424e-20)
(-0.0131645 0.00970324 0)
(-0.0115808 0.0155531 0)
(0.0164329 0.0160338 8.26162e-20)
(0.0687653 0.0140792 7.5999e-20)
(0.143831 0.0118198 -1.92669e-21)
(0.23964 0.010764 -1.40026e-19)
(0.353117 0.011786 0)
(0.479795 0.0151946 -1.16463e-19)
(0.613872 0.0207884 1.1005e-19)
(0.74868 0.0279281 1.01235e-21)
(0.877432 0.0356642 -1.88663e-19)
(0.994074 0.0429174 -1.74003e-19)
(1.09401 0.0486746 2.4629e-21)
(1.17455 0.0521581 -1.45774e-19)
(1.23505 0.0529321 3.48841e-19)
(1.27668 0.0509306 0)
(1.30199 0.0464119 -2.2837e-19)
(1.31429 0.0398524 1.1134e-19)
(1.31703 0.0318613 9.8635e-20)
(1.31323 0.0229576 0)
(1.30534 0.0139322 8.07368e-20)
(1.29477 0.00441118 -2.73907e-19)
(1.28281 -0.00270604 2.57134e-19)
(1.26979 -0.0149923 1.58888e-19)
(-0.0100467 0.00719742 -9.19316e-20)
(0.00356149 0.00872232 -9.51244e-20)
(0.0489135 0.00707491 8.59068e-20)
(0.122507 0.00489712 0)
(0.221211 0.00420768 0)
(0.34098 0.00637955 -3.42916e-21)
(0.476114 0.0119331 0)
(0.619298 0.0205981 -3.58292e-19)
(0.762262 0.0314607 3.33102e-19)
(0.896868 0.0431845 -4.11304e-19)
(1.01626 0.0542981 9.44262e-20)
(1.11576 0.0634871 0)
(1.19326 0.0698171 1.58107e-19)
(1.24912 0.0728439 -2.9317e-19)
(1.28566 0.072601 6.98874e-20)
(1.30641 0.0694926 1.80349e-19)
(1.31529 0.064136 -7.53162e-21)
(1.31593 0.0572119 -2.0008e-19)
(1.31126 0.0493366 0)
(1.30338 0.0410378 0)
(1.29361 0.0327083 -7.17589e-20)
(1.28271 0.0244755 6.42919e-20)
(1.27119 0.0176834 2.30366e-19)
(1.25928 0.00748175 -2.16311e-19)
(-0.00466945 0.00418226 -9.70372e-20)
(0.0251088 0.00150616 -9.6772e-20)
(0.0915663 -0.0010823 2.72034e-19)
(0.189386 -0.00163274 -1.65182e-19)
(0.31312 0.00140811 1.55473e-19)
(0.455756 0.00889007 2.82544e-19)
(0.60831 0.0205528 -1.99923e-19)
(0.760633 0.035182 -2.43557e-19)
(0.902894 0.0509766 4.77138e-21)
(1.02715 0.0659937 3.11369e-19)
(1.12842 0.0785687 0)
(1.20505 0.0876036 8.58686e-20)
(1.25833 0.0926686 0)
(1.2916 0.093929 -1.40819e-19)
(1.30924 0.0919598 1.98227e-19)
(1.31565 0.0875258 2.13564e-21)
(1.31465 0.0813962 -5.21458e-20)
(1.30911 0.0742274 9.82943e-20)
(1.30096 0.0665273 8.45053e-20)
(1.29138 0.0586511 -7.58839e-20)
(1.28106 0.0508798 7.17431e-20)
(1.27032 0.0432683 -6.42767e-20)
(1.25939 0.0366127 0)
(1.24835 0.0276251 -4.84506e-20)
(0.0033271 0.000960245 9.70232e-20)
(0.0537414 -0.00525614 1.01978e-19)
(0.1448 -0.007169 -9.12092e-20)
(0.268783 -0.00396658 1.70296e-19)
(0.417039 0.00496002 -1.60278e-19)
(0.578852 0.0194176 1.45146e-19)
(0.741916 0.0379111 -6.97479e-20)
(0.894231 0.0580709 1.82814e-19)
(1.02623 0.0773413 -1.15045e-19)
(1.13223 0.0935944 2.03764e-19)
(1.21074 0.105509 -4.70311e-19)
(1.26379 0.112658 1.72768e-19)
(1.29566 0.115354 -1.51645e-19)
(1.31152 0.114369 1.42447e-19)
(1.31632 0.110639 1.23469e-19)
(1.3141 0.105049 1.08778e-19)
(1.3078 0.098316 -3.02442e-19)
(1.29931 0.0909639 1.87893e-19)
(1.28974 0.0833504 -8.45101e-20)
(1.27969 0.0757199 2.20496e-19)
(1.26945 0.0682319 -7.12065e-20)
(1.25912 0.0609941 -1.7326e-19)
(1.24879 0.054372 1.59949e-19)
(1.23843 0.04631 4.84371e-20)
(0.0142252 -0.00205896 0)
(0.089794 -0.0104501 9.70744e-22)
(0.208304 -0.00959473 1.91303e-19)
(0.358913 -0.000364865 -1.79322e-19)
(0.528974 0.01629 -1.62033e-19)
(0.703882 0.0385759 3.01183e-19)
(0.868936 0.0634831 -1.39889e-19)
(1.01221 0.0876335 1.86327e-19)
(1.12658 0.10822 -4.09003e-21)
(1.21024 0.12355 -1.05569e-19)
(1.26569 0.133135 2.30422e-19)
(1.29808 0.137428 -3.4016e-19)
(1.31341 0.137426 0)
(1.31728 0.134284 -6.6954e-20)
(1.31412 0.129046 -1.79257e-19)
(1.30706 0.122531 5.63049e-20)
(1.29805 0.115311 2.20341e-21)
(1.2882 0.107764 -1.24681e-19)
(1.27807 0.10013 7.56144e-21)
(1.26792 0.0925646 1.44318e-19)
(1.25784 0.0851765 -6.45717e-20)
(1.24785 0.0780547 -2.45058e-20)
(1.23794 0.0712943 7.56466e-20)
(1.22808 0.0638308 0)
(0.0281928 -0.00439608 0)
(0.133137 -0.01283 5.18685e-20)
(0.28088 -0.00672208 -2.49386e-19)
(0.456761 0.0107041 9.0887e-20)
(0.643765 0.0362641 -8.5536e-20)
(0.824115 0.0661617 -7.8201e-20)
(0.982617 0.0959782 -1.38188e-19)
(1.10972 0.121887 6.89983e-20)
(1.20249 0.141542 5.99918e-20)
(1.26349 0.15423 0)
(1.2986 0.160509 1.36695e-19)
(1.31478 0.16163 -2.03586e-19)
(1.31846 0.159028 1.51598e-19)
(1.31468 0.153982 6.69909e-20)
(1.3069 0.147464 -5.50934e-20)
(1.29726 0.140139 -4.62875e-20)
(1.28695 0.132429 -4.33154e-20)
(1.27653 0.124588 1.29168e-19)
(1.26625 0.116773 0)
(1.2562 0.109088 6.52157e-20)
(1.24638 0.101612 5.50216e-20)
(1.23676 0.094408 -1.36439e-19)
(1.22728 0.0874581 -9.35142e-20)
(1.21789 0.0803954 8.64441e-20)
(0.0452347 -0.00552716 -5.58123e-20)
(0.183083 -0.0111438 -2.09256e-21)
(0.36041 0.00288893 5.07811e-20)
(0.558309 0.030256 1.42123e-19)
(0.755799 0.064968 4.13659e-20)
(0.933635 0.101203 -7.98869e-20)
(1.07854 0.133701 7.29718e-20)
(1.18527 0.159001 -6.39593e-20)
(1.25575 0.175861 1.14569e-19)
(1.29637 0.18482 4.88352e-20)
(1.31513 0.187404 -1.38595e-19)
(1.31956 0.185415 4.08934e-20)
(1.31555 0.180457 6.99893e-20)
(1.30714 0.173742 -3.43867e-20)
(1.29679 0.166083 0)
(1.28584 0.157976 5.16208e-20)
(1.27493 0.149712 8.7641e-20)
(1.26431 0.141457 1.51849e-20)
(1.25406 0.133315 -7.32228e-20)
(1.24417 0.125358 3.07682e-20)
(1.23462 0.117642 0)
(1.22532 0.110195 -2.42712e-20)
(1.21622 0.102975 -2.29572e-20)
(1.20722 0.0960535 0)
(0.0651337 -0.00491605 0)
(0.23833 -0.00425936 2.92332e-20)
(0.443961 0.0202867 5.42156e-20)
(0.659003 0.0586307 -1.44875e-19)
(0.85985 0.10174 4.67771e-20)
(1.02818 0.142245 0)
(1.15483 0.174955 7.03093e-20)
(1.23989 0.19757 -9.81465e-20)
(1.28976 0.21034 -5.72053e-20)
(1.31351 0.215031 2.58569e-20)
(1.32002 0.213899 -4.14873e-20)
(1.31639 0.209008 1.00682e-19)
(1.30755 0.201923 5.05817e-20)
(1.29648 0.193687 -3.50699e-20)
(1.28478 0.184924 -3.21051e-21)
(1.27321 0.175984 -9.68179e-20)
(1.26208 0.167058 4.41402e-20)
(1.25147 0.158254 -1.0686e-21)
(1.24136 0.14964 0)
(1.23172 0.141268 -3.08003e-20)
(1.22247 0.133175 0)
(1.21353 0.125359 7.00638e-20)
(1.20483 0.11783 -8.35318e-20)
(1.19623 0.110859 3.81113e-20)
(0.0874151 -0.00205581 -1.52134e-20)
(0.296995 0.00872239 -7.37807e-20)
(0.528042 0.0460052 8.3938e-20)
(0.754305 0.0954817 4.94162e-20)
(0.951716 0.14536 -2.36117e-20)
(1.10533 0.187669 3.96507e-20)
(1.21159 0.218281 -1.92654e-20)
(1.27588 0.236638 3.20622e-20)
(1.30809 0.244565 0)
(1.31872 0.244841 7.27841e-20)
(1.31652 0.240153 -2.93102e-21)
(1.30765 0.232587 -5.88687e-20)
(1.29593 0.22354 2.52863e-20)
(1.28341 0.213843 -2.86411e-20)
(1.27107 0.203949 -1.10022e-20)
(1.25928 0.194091 1.25876e-20)
(1.24816 0.184389 -9.81096e-21)
(1.23769 0.174914 -5.32723e-20)
(1.22782 0.16571 3.26797e-20)
(1.21848 0.156812 6.7408e-21)
(1.20957 0.148234 5.95384e-21)
(1.20101 0.139964 5.26029e-21)
(1.1927 0.132083 0)
(1.1845 0.124839 0)
(0.111421 0.00349751 1.52239e-20)
(0.356864 0.0283904 -1.52658e-20)
(0.609095 0.080015 -2.79778e-20)
(0.840319 0.139873 0)
(1.02857 0.194302 -1.17216e-20)
(1.16429 0.235935 -1.05421e-20)
(1.25003 0.262555 -1.80553e-20)
(1.29576 0.275615 0)
(1.31366 0.278373 0)
(1.31457 0.274314 0)
(1.30645 0.26628 0)
(1.29435 0.256217 0)
(1.28104 0.245289 -1.59357e-20)
(1.26786 0.234122 7.2685e-21)
(1.25532 0.223026 1.26668e-20)
(1.24359 0.212147 5.91801e-21)
(1.23265 0.201557 1.47409e-20)
(1.22246 0.191298 0)
(1.21294 0.181397 -3.57122e-21)
(1.20399 0.171874 -3.39865e-21)
(1.19551 0.162722 -5.96331e-21)
(1.18741 0.153941 -5.26867e-21)
(1.17957 0.145682 0)
(1.17185 0.138004 3.82481e-21)
(-0.00200484 0.0456192 9.52082e-21)
(-0.00682279 0.113424 -9.82963e-21)
(-0.0142831 0.163226 -1.8551e-20)
(-0.0237247 0.198117 0)
(-0.0345041 0.221218 -2.47177e-20)
(-0.0460653 0.235618 7.72379e-21)
(-0.0578678 0.244054 -1.47575e-20)
(-0.0694357 0.248654 0)
(-0.0803893 0.250843 0)
(-0.0904407 0.251384 0)
(-0.0993731 0.250503 0)
(-0.107017 0.248038 0)
(-0.113231 0.243587 -8.40252e-23)
(-0.11788 0.23662 -1.02033e-20)
(-0.120836 0.226557 2.00564e-20)
(-0.12197 0.212823 2.87015e-20)
(-0.121156 0.194884 9.53273e-21)
(-0.118276 0.172281 0)
(-0.113222 0.144664 8.2539e-21)
(-0.105905 0.111849 -2.39148e-20)
(-0.0963095 0.0738647 -1.54049e-20)
(-0.0844483 0.0309146 -1.46216e-20)
(-0.0702421 -0.0164022 0)
(-0.0536162 -0.0667465 0)
(-0.00440915 0.0463836 -2.87453e-20)
(-0.0114629 0.116554 4.93023e-20)
(-0.0182579 0.169118 -1.88393e-20)
(-0.0253353 0.206662 -3.52739e-20)
(-0.0327491 0.231943 4.97098e-20)
(-0.0403188 0.247855 -3.14964e-20)
(-0.0477345 0.257076 4.43751e-20)
(-0.0546365 0.26178 2.83649e-20)
(-0.0606723 0.263493 0)
(-0.0655267 0.263095 -2.56254e-20)
(-0.0689315 0.260911 -7.48856e-22)
(-0.0706649 0.25686 2.25785e-20)
(-0.070544 0.250589 3.33732e-20)
(-0.0684183 0.241598 4.30179e-20)
(-0.0641649 0.229327 -1.91078e-20)
(-0.057687 0.213214 -5.79946e-20)
(-0.0489164 0.19274 1.97795e-20)
(-0.0378144 0.167462 -7.28295e-20)
(-0.024354 0.137043 0)
(-0.00850682 0.101291 1.61388e-20)
(0.00957795 0.0601889 1.5378e-20)
(0.0297452 0.0139972 1.45958e-20)
(0.0523359 -0.0364944 0)
(0.0781276 -0.0896154 0)
(-0.00667377 0.0450727 0)
(-0.0160199 0.115036 1.00742e-19)
(-0.0223247 0.168941 -3.7928e-20)
(-0.0270982 0.208483 3.5555e-20)
(-0.030984 0.23579 -1.01109e-19)
(-0.0341544 0.253341 0)
(-0.0365508 0.263589 -6.04025e-20)
(-0.0379708 0.268638 2.84762e-20)
(-0.0381354 0.270055 -5.4455e-20)
(-0.036744 0.26882 2.62587e-20)
(-0.0335117 0.265381 1.49183e-19)
(-0.0281899 0.259772 -7.01966e-20)
(-0.0205765 0.251739 -1.14098e-19)
(-0.0105182 0.240862 -4.59516e-20)
(0.0020889 0.226643 -2.1548e-21)
(0.0173015 0.208578 1.61799e-19)
(0.0351295 0.186195 -7.6972e-20)
(0.0555378 0.159095 -1.06831e-21)
(0.0784536 0.126972 0)
(0.103777 0.0896363 -7.04649e-20)
(0.13133 0.0470273 0)
(0.160924 -0.000615228 -6.35202e-20)
(0.192533 -0.0525901 2.40774e-19)
(0.229148 -0.107424 -1.87169e-23)
(-0.00854163 0.0419752 0)
(-0.0200212 0.109249 4.76486e-22)
(-0.0261024 0.162856 3.85051e-20)
(-0.0288908 0.20341 -3.62756e-20)
(-0.0294366 0.232253 3.37094e-20)
(-0.0281969 0.251304 1.92569e-19)
(-0.0253566 0.262652 -6.04673e-20)
(-0.0209024 0.268216 -5.75516e-20)
(-0.0146803 0.269524 1.0909e-19)
(-0.00646096 0.267618 -1.56848e-19)
(0.00400627 0.263062 4.91454e-20)
(0.0169548 0.256023 4.77004e-20)
(0.0325767 0.24638 0)
(0.0510098 0.233828 4.3804e-20)
(0.0723341 0.217968 0)
(0.0965736 0.198375 8.21808e-20)
(0.123701 0.174642 -1.60904e-19)
(0.15364 0.146416 3.36783e-20)
(0.186288 0.113403 1.4581e-19)
(0.221529 0.075458 7.03744e-20)
(0.259156 0.0325569 0)
(0.299245 -0.0151399 -1.95009e-19)
(0.340027 -0.0671066 6.10761e-20)
(0.390378 -0.12177 0)
(-0.00985987 0.037586 0)
(-0.0231439 0.100035 -1.23172e-19)
(-0.0293177 0.151621 -3.8566e-20)
(-0.0306438 0.19189 -7.26218e-20)
(-0.0283493 0.221401 6.83748e-20)
(-0.0230724 0.241462 -6.42373e-20)
(-0.0152046 0.253715 1.22049e-19)
(-0.00493076 0.259802 5.84906e-20)
(0.00773806 0.26113 -1.63481e-19)
(0.0229066 0.25874 1.05045e-19)
(0.0407375 0.253278 -1.49609e-19)
(0.0614054 0.245036 3.34614e-19)
(0.0850639 0.234028 -1.8115e-19)
(0.111827 0.220081 8.78077e-20)
(0.141764 0.202907 2.57228e-19)
(0.1749 0.182169 -7.74118e-20)
(0.211229 0.157523 -7.44231e-20)
(0.250681 0.128652 -7.4952e-20)
(0.293224 0.0953448 0)
(0.338867 0.0574557 -1.43817e-19)
(0.38715 0.0149268 -1.39804e-19)
(0.439182 -0.0318844 1.93548e-19)
(0.489103 -0.0830011 2.46187e-19)
(0.55602 -0.135788 -2.30051e-19)
(-0.0106125 0.0325143 0)
(-0.0252868 0.0885657 -1.65828e-19)
(-0.0318567 0.136483 2.48314e-22)
(-0.032329 0.17497 1.46235e-19)
(-0.0278807 0.203935 0)
(-0.0192157 0.224135 0)
(-0.00686908 0.236756 0)
(0.00879652 0.243115 -5.80865e-20)
(0.0275944 0.244431 -1.10095e-21)
(0.0494764 0.241679 1.02968e-19)
(0.0744865 0.23553 -1.5084e-19)
(0.102718 0.226362 -1.48744e-21)
(0.134281 0.214302 0)
(0.169285 0.19929 -8.77599e-20)
(0.207827 0.181142 8.61275e-20)
(0.249986 0.159602 -2.40874e-19)
(0.295844 0.134398 3.15849e-19)
(0.345499 0.10529 8.13704e-20)
(0.398932 0.0720668 7.18254e-21)
(0.456196 0.0346406 -2.77239e-19)
(0.516178 -0.00714723 -1.32185e-19)
(0.581745 -0.0521205 4.45111e-19)
(0.640692 -0.101672 -2.97041e-19)
(0.724481 -0.15065 0)
(-0.0109256 0.0273935 8.15375e-20)
(-0.0265889 0.0761625 8.31086e-20)
(-0.0337731 0.119019 -7.81594e-20)
(-0.0339212 0.154193 -1.46017e-19)
(-0.027986 0.181187 1.37472e-19)
(-0.0166354 0.200346 -1.28727e-19)
(-0.000473573 0.212466 1.81479e-19)
(0.0200115 0.218544 -5.80517e-20)
(0.0444893 0.21958 1.07661e-19)
(0.0727794 0.216429 0)
(0.104826 0.209732 9.86527e-20)
(0.140669 0.199896 -1.83525e-19)
(0.180417 0.187113 1.80852e-19)
(0.224223 0.171404 -1.69848e-19)
(0.272272 0.15267 0)
(0.324763 0.130741 1.59364e-19)
(0.381864 0.105407 3.0996e-19)
(0.443639 0.0764744 -2.92599e-19)
(0.509893 0.0437583 -1.40368e-19)
(0.580621 0.00750933 -1.41028e-19)
(0.653414 -0.0327062 3.90431e-19)
(0.732379 -0.0742552 1.21192e-19)
(0.799259 -0.120925 -1.13299e-19)
(0.894954 -0.162987 1.03563e-19)
(-0.0110372 0.0227832 -8.15489e-20)
(-0.0273713 0.0640855 2.50321e-19)
(-0.0352095 0.100885 -7.88745e-20)
(-0.0352833 0.131391 1.46115e-19)
(-0.0282296 0.154992 -1.37564e-19)
(-0.0146109 0.17181 2.13126e-23)
(0.00497804 0.182367 6.02514e-20)
(0.0300066 0.187397 2.26109e-19)
(0.0600824 0.187688 1.15333e-21)
(0.0949745 0.183951 -1.0107e-19)
(0.134608 0.176751 0)
(0.179044 0.166475 -9.26047e-20)
(0.228448 0.153338 1.73868e-19)
(0.283052 0.13741 1.70368e-19)
(0.343092 0.11865 -7.99214e-20)
(0.40871 0.0969447 -1.88452e-21)
(0.479872 0.0721613 -7.59558e-20)
(0.556267 0.0442535 1.41865e-19)
(0.637009 0.0131879 1.40344e-19)
(0.721298 -0.0203899 -1.3417e-19)
(0.805416 -0.0572461 1.21977e-19)
(0.892724 -0.0931746 -1.14279e-19)
(0.963201 -0.134956 0)
(1.05803 -0.16681 -1.03555e-19)
(-0.0112287 0.0190799 8.18513e-20)
(-0.0279926 0.0533223 -8.37183e-20)
(-0.0362147 0.0835498 7.86509e-20)
(-0.0359508 0.108406 0)
(-0.0275165 0.127453 0)
(-0.0113289 0.140784 1.27647e-19)
(0.0121081 0.148787 -1.20256e-19)
(0.0423295 0.15202 1.12177e-19)
(0.0790014 0.151098 -5.29321e-19)
(0.121955 0.146596 -6.70477e-22)
(0.171183 0.138989 9.42639e-20)
(0.2268 0.128617 0)
(0.28897 0.115685 -1.73997e-19)
(0.3578 0.100281 3.30191e-19)
(0.433225 0.0824059 -2.36677e-19)
(0.514868 0.0620334 -3.84244e-19)
(0.601905 0.0391627 -6.02289e-21)
(0.692986 0.0139007 2.71619e-19)
(0.786049 -0.0136369 0)
(0.878896 -0.0426101 0)
(0.96723 -0.0738228 -1.21983e-19)
(1.05183 -0.102519 1.14289e-19)
(1.11702 -0.137417 -4.05645e-19)
(1.19345 -0.158045 3.79905e-19)
(-0.0117248 0.0164456 0)
(-0.0286391 0.0444203 0)
(-0.0364952 0.0680538 -2.35746e-19)
(-0.0348757 0.0867971 7.51442e-20)
(-0.0238363 0.100619 1.24308e-21)
(-0.00362664 0.109755 1.2892e-19)
(0.0254152 0.114591 0)
(0.06299 0.115601 -1.12004e-19)
(0.108908 0.113292 1.05547e-19)
(0.163096 0.108136 -1.98255e-19)
(0.225543 0.100524 -9.11779e-22)
(0.296199 0.0907385 1.79406e-19)
(0.374841 0.0789585 2.66967e-21)
(0.460923 0.065275 1.66472e-19)
(0.553434 0.0497266 -2.30469e-19)
(0.650801 0.0323381 0)
(0.750855 0.0131698 2.8488e-19)
(0.850867 -0.00764612 -4.04523e-19)
(0.947674 -0.0298865 1.24286e-19)
(1.03801 -0.0529728 0)
(1.11813 -0.0771924 1.08328e-19)
(1.18682 -0.0990591 4.11451e-19)
(1.23587 -0.126286 -3.86191e-19)
(1.28151 -0.138397 -4.21255e-19)
(-0.0125831 0.014772 2.47295e-19)
(-0.029125 0.0373989 -3.39171e-19)
(-0.0352229 0.0548509 1.28424e-21)
(-0.030306 0.0675988 7.5017e-20)
(-0.0142743 0.0761626 -1.38706e-19)
(0.012784 0.0810417 -1.28467e-19)
(0.0507173 0.08272 2.39145e-19)
(0.099385 0.0816782 -1.35022e-21)
(0.158652 0.0783738 -2.1039e-19)
(0.228311 0.0732064 3.95916e-19)
(0.30795 0.0664893 1.55697e-21)
(0.396797 0.0584356 -1.75957e-19)
(0.493573 0.0491596 0)
(0.596396 0.0386924 0)
(0.702756 0.0270108 -7.67854e-20)
(0.809593 0.0140704 -1.42453e-19)
(0.913463 -0.000138667 -2.74494e-19)
(1.01076 -0.0156091 2.57664e-19)
(1.09811 -0.0321071 -1.24362e-19)
(1.17251 -0.0495875 2.2451e-19)
(1.23199 -0.0674215 -1.119e-19)
(1.2758 -0.0848803 1.85861e-19)
(1.30235 -0.105081 -4.41225e-19)
(1.31852 -0.114109 8.32781e-20)
(-0.0136159 0.0137062 8.32008e-20)
(-0.0287924 0.0317868 0)
(-0.0310177 0.0437831 1.59784e-19)
(-0.0199386 0.0511919 -1.50517e-19)
(0.00455434 0.0551188 1.38837e-19)
(0.0424529 0.0563833 0)
(0.0936662 0.0556276 0)
(0.157972 0.0533825 -1.12546e-19)
(0.23489 0.0500821 5.96075e-22)
(0.323515 0.0460534 9.92471e-20)
(0.422347 0.0414999 -9.37412e-20)
(0.529183 0.0364937 1.75702e-19)
(0.64111 0.0309838 0)
(0.754604 0.0248198 3.16429e-19)
(0.865754 0.0177935 -5.9585e-19)
(0.970555 0.00968603 4.23046e-19)
(1.06526 0.000335108 2.63395e-19)
(1.14672 -0.0103758 -2.47268e-19)
(1.21276 -0.0222811 0)
(1.2622 -0.0356153 0)
(1.29556 -0.0490751 0)
(1.3138 -0.0647748 0)
(1.31995 -0.0785065 8.4263e-20)
(1.31779 -0.0919155 -2.86081e-19)
(-0.0331065 -0.126427 -8.56027e-21)
(-0.0123856 -0.202249 8.63081e-21)
(0.00959674 -0.281745 -2.59951e-22)
(0.0324449 -0.359957 0)
(0.0545181 -0.432848 -6.27054e-21)
(0.0736523 -0.496967 1.15959e-20)
(0.0881284 -0.549705 -5.79341e-22)
(0.0968211 -0.589397 -4.63456e-21)
(0.100521 -0.614923 0)
(0.103038 -0.623331 0)
(0.111246 -0.608659 -1.83637e-22)
(0.132837 -0.562813 -1.73259e-22)
(0.172947 -0.479379 -3.24422e-21)
(0.230736 -0.358187 2.98592e-21)
(0.300671 -0.206264 0)
(0.376169 -0.0348468 0)
(0.452204 0.141584 2.78803e-21)
(0.524367 0.302819 -3.21642e-22)
(0.587738 0.428139 -2.19572e-21)
(0.637531 0.506944 -9.99095e-23)
(0.671107 0.542783 0)
(0.69002 0.547079 0)
(0.697398 0.535074 0)
(0.6913 0.526486 0)
(0.66739 0.534215 0)
(0.631203 0.542461 0)
(0.602852 0.506507 5.1516e-22)
(0.603024 0.386903 -8.4358e-22)
(0.634567 0.190111 0)
(0.686217 -0.0348127 0)
(0.741663 -0.228956 -6.27856e-22)
(0.787953 -0.360668 6.10184e-22)
(0.818029 -0.427782 2.1726e-22)
(0.834349 -0.446588 0)
(0.838452 -0.445331 0)
(0.822242 -0.451405 2.43479e-22)
(0.782241 -0.46779 -2.36682e-22)
(0.732899 -0.445883 0)
(0.700205 -0.350158 3.25874e-22)
(0.700372 -0.171101 -4.7503e-22)
(0.725985 0.023785 1.52445e-22)
(0.767531 0.192563 0)
(0.809805 0.297595 -2.04653e-22)
(0.835001 0.356513 1.99001e-22)
(0.827655 0.402745 0)
(0.78867 0.411069 0)
(0.748288 0.385864 -8.39826e-23)
(0.736748 0.239118 2.63297e-22)
(0.755338 0.0818247 0)
(0.798023 -0.0989678 0)
(0.828154 -0.218592 -5.8541e-23)
(0.822101 -0.293461 -1.34563e-24)
(0.800595 -0.381279 -6.22617e-24)
(0.778851 -0.301616 3.28113e-23)
(0.787179 -0.265783 0)
(0.802194 -0.0518074 0)
(0.808987 0.104491 0)
(0.798561 0.207044 0)
(0.800288 0.397968 0)
(0.785106 0.18723 0)
(0.105781 -0.150765 -9.22909e-22)
(0.129169 -0.22739 -3.65831e-20)
(0.152577 -0.307377 2.08419e-21)
(0.175654 -0.384768 3.23185e-20)
(0.196041 -0.455033 4.53242e-22)
(0.211648 -0.514302 0)
(0.220304 -0.560044 -1.9556e-20)
(0.219857 -0.591809 3.61173e-20)
(0.209311 -0.610886 -1.65445e-20)
(0.190476 -0.617904 1.22356e-20)
(0.169643 -0.609704 -1.17098e-20)
(0.156769 -0.577793 1.02555e-20)
(0.162055 -0.511716 -9.91723e-21)
(0.190458 -0.405617 -2.84819e-22)
(0.239775 -0.263063 -1.05973e-20)
(0.303716 -0.0958528 1.02985e-20)
(0.375854 0.0800493 -9.49786e-21)
(0.450103 0.245463 8.97981e-21)
(0.520306 0.379739 -6.94149e-21)
(0.580416 0.471154 1.22421e-20)
(0.62636 0.52007 -5.36197e-21)
(0.658112 0.535442 -2.4398e-22)
(0.676239 0.533317 -3.78561e-21)
(0.677397 0.534905 7.56054e-21)
(0.659624 0.550668 -3.77229e-21)
(0.632861 0.559432 2.85147e-22)
(0.618413 0.514657 6.05155e-21)
(0.632912 0.381479 1.15137e-21)
(0.674747 0.172516 -1.34239e-20)
(0.731034 -0.0591804 1.31445e-20)
(0.785265 -0.253018 -6.23411e-21)
(0.825909 -0.378591 6.00002e-22)
(0.847445 -0.438018 -2.17683e-22)
(0.854044 -0.450294 3.40958e-22)
(0.85036 -0.442039 0)
(0.82976 -0.439439 0)
(0.786846 -0.449478 -9.21484e-22)
(0.731924 -0.429044 6.7516e-22)
(0.692142 -0.343042 8.99336e-22)
(0.685636 -0.17598 2.23591e-22)
(0.709708 0.0100155 -1.3047e-21)
(0.75324 0.176111 2.3387e-22)
(0.800112 0.284829 0)
(0.828613 0.352804 0)
(0.823356 0.409089 0)
(0.788066 0.422343 0)
(0.750947 0.393881 3.56425e-22)
(0.744167 0.239327 -1.81796e-22)
(0.762582 0.0740617 0)
(0.806281 -0.107884 0)
(0.836112 -0.222102 0)
(0.829996 -0.289868 -9.07348e-23)
(0.808058 -0.376266 2.1462e-23)
(0.783046 -0.300142 -7.29973e-23)
(0.791067 -0.268235 0)
(0.800435 -0.0538399 0)
(0.806156 0.104487 4.60504e-23)
(0.794741 0.20797 1.06468e-22)
(0.796382 0.399078 0)
(0.784154 0.188316 0)
(0.259737 -0.169891 -4.36533e-22)
(0.285608 -0.24735 -8.03509e-20)
(0.309398 -0.326891 7.26158e-20)
(0.33172 -0.402849 -6.79104e-20)
(0.349852 -0.470344 -4.56216e-22)
(0.361712 -0.525131 0)
(0.365511 -0.564056 -4.08436e-20)
(0.359233 -0.586587 3.99401e-20)
(0.340868 -0.595491 2.34595e-22)
(0.309431 -0.595161 3.64774e-22)
(0.267855 -0.587393 2.97191e-22)
(0.224985 -0.566749 3.00896e-22)
(0.19415 -0.520865 -1.64631e-20)
(0.187072 -0.437377 1.6287e-20)
(0.207892 -0.31294 0)
(0.252816 -0.156401 4.43255e-22)
(0.315239 0.0151175 -1.53425e-20)
(0.387125 0.181598 1.51599e-20)
(0.460532 0.323138 0)
(0.528352 0.426484 0)
(0.585126 0.48882 -8.31359e-21)
(0.628677 0.516766 1.567e-20)
(0.656785 0.526505 -1.44512e-20)
(0.665386 0.539224 -4.59162e-22)
(0.655152 0.562402 1.61088e-20)
(0.639429 0.57101 -1.93134e-20)
(0.639313 0.518569 2.19828e-20)
(0.667452 0.374902 1.23642e-21)
(0.718921 0.157639 -1.38491e-20)
(0.779128 -0.0782331 0)
(0.831201 -0.270887 0)
(0.865387 -0.390717 3.14451e-21)
(0.878256 -0.443412 -4.24812e-21)
(0.875299 -0.450526 2.7115e-24)
(0.863889 -0.436872 1.98765e-21)
(0.839295 -0.426568 -1.93172e-21)
(0.794524 -0.43042 0)
(0.735114 -0.41147 2.2148e-22)
(0.688668 -0.335777 2.25508e-21)
(0.675165 -0.181752 -4.48854e-21)
(0.697235 -0.00553957 2.0084e-21)
(0.742037 0.157359 1.75998e-22)
(0.792728 0.270199 -1.76596e-21)
(0.824127 0.347713 1.37494e-21)
(0.821187 0.414358 3.02337e-22)
(0.79016 0.432731 3.22353e-22)
(0.756785 0.401657 -3.57345e-22)
(0.754765 0.240222 0)
(0.772759 0.0674237 0)
(0.81667 -0.115925 -1.40526e-21)
(0.845788 -0.225223 6.36807e-22)
(0.839463 -0.285781 -4.53718e-22)
(0.816744 -0.370876 5.08148e-22)
(0.788111 -0.298486 4.97264e-22)
(0.795968 -0.270436 -1.36298e-22)
(0.799985 -0.0557084 1.92882e-22)
(0.804685 0.104592 -1.66517e-22)
(0.792 0.208762 5.05582e-23)
(0.793409 0.399939 0)
(0.784206 0.189281 0)
(0.420747 -0.184027 -1.695e-19)
(0.44834 -0.262284 6.86945e-21)
(0.472985 -0.341106 1.54777e-19)
(0.494284 -0.414733 -1.07051e-21)
(0.509303 -0.479007 0)
(0.516274 -0.529641 0)
(0.514095 -0.562906 -8.18289e-20)
(0.501654 -0.577599 1.27367e-20)
(0.477846 -0.576087 9.02558e-20)
(0.441051 -0.564193 -5.07972e-21)
(0.390274 -0.548628 -2.03482e-20)
(0.329038 -0.53073 -1.34852e-20)
(0.268613 -0.501424 1.35127e-20)
(0.225077 -0.444411 0)
(0.211095 -0.347161 -1.2116e-20)
(0.229299 -0.210615 1.10184e-20)
(0.274678 -0.049635 0)
(0.338493 0.113861 0)
(0.410842 0.260162 9.02065e-21)
(0.482999 0.373952 -1.06544e-21)
(0.548146 0.44947 -7.23627e-21)
(0.601552 0.490995 -6.75952e-21)
(0.638407 0.513889 6.72936e-21)
(0.654511 0.537955 -7.76214e-21)
(0.652936 0.567735 -1.23667e-21)
(0.649271 0.576124 8.55973e-21)
(0.663412 0.518268 1.44071e-21)
(0.70455 0.368077 -1.22442e-23)
(0.764953 0.146086 0)
(0.828658 -0.0919635 1.41805e-20)
(0.878453 -0.283104 -1.45922e-20)
(0.905882 -0.397887 6.29072e-22)
(0.910164 -0.444674 0)
(0.897993 -0.447664 -3.47718e-22)
(0.878905 -0.430207 3.85336e-21)
(0.850433 -0.413441 -6.53282e-21)
(0.804772 -0.411035 -1.92055e-22)
(0.742341 -0.392907 -2.30587e-22)
(0.690021 -0.32764 2.64341e-21)
(0.669323 -0.187817 4.79716e-22)
(0.688699 -0.0225295 -3.31357e-21)
(0.733835 0.136624 2.80733e-21)
(0.787519 0.253819 4.05591e-23)
(0.821466 0.341092 1.22496e-21)
(0.821077 0.418257 -1.49433e-21)
(0.794814 0.441975 -2.44322e-21)
(0.765625 0.40919 6.159e-22)
(0.768359 0.242011 1.82501e-21)
(0.785769 0.0621496 -3.47077e-21)
(0.829073 -0.122962 2.40216e-21)
(0.857036 -0.227998 -4.62743e-22)
(0.850367 -0.281284 6.89877e-22)
(0.826545 -0.36502 4.45443e-22)
(0.793899 -0.296557 -7.06619e-22)
(0.801718 -0.272401 7.57696e-24)
(0.800753 -0.0574546 -1.36342e-22)
(0.804528 0.104819 0)
(0.790305 0.209457 -7.75679e-23)
(0.79138 0.400558 9.78168e-23)
(0.785296 0.190124 0)
(0.584555 -0.19606 1.7054e-19)
(0.612288 -0.272801 -3.28721e-19)
(0.637836 -0.348669 1.55866e-19)
(0.657929 -0.418124 1.3315e-19)
(0.668902 -0.477956 -2.46433e-19)
(0.669653 -0.524015 1.54593e-20)
(0.659813 -0.552606 9.61116e-20)
(0.639195 -0.562436 6.43045e-20)
(0.60831 -0.554802 -6.29502e-20)
(0.567408 -0.533871 0)
(0.515033 -0.507165 -2.88192e-20)
(0.44946 -0.482171 5.01465e-20)
(0.374341 -0.458419 -2.15817e-20)
(0.302818 -0.42291 0)
(0.253068 -0.356992 0)
(0.237653 -0.250351 3.1164e-22)
(0.257839 -0.109422 -1.55779e-20)
(0.30681 0.0455078 1.51345e-20)
(0.373139 0.192764 0)
(0.445662 0.314679 1.18053e-20)
(0.515793 0.402472 -2.19438e-20)
(0.576261 0.457926 2.14468e-20)
(0.620246 0.494592 -2.31632e-20)
(0.643747 0.529824 -2.29814e-21)
(0.651657 0.565637 3.11166e-20)
(0.66064 0.574503 -1.70822e-20)
(0.688585 0.514173 -7.30047e-22)
(0.741624 0.361711 -1.41824e-20)
(0.810424 0.137911 -1.08751e-21)
(0.87811 -0.10031 1.52591e-20)
(0.92598 -0.289393 8.25936e-22)
(0.946593 -0.399763 -9.20524e-21)
(0.942486 -0.441677 1.56867e-20)
(0.921685 -0.441658 -7.24668e-21)
(0.895239 -0.422004 0)
(0.863006 -0.400338 -3.3888e-21)
(0.817223 -0.392003 3.24073e-21)
(0.753302 -0.3739 -2.35242e-21)
(0.69623 -0.318562 2.93777e-21)
(0.668241 -0.193705 -3.34486e-22)
(0.684093 -0.0405788 0)
(0.728518 0.114209 -3.00102e-22)
(0.784274 0.235705 8.63089e-22)
(0.820471 0.332688 0)
(0.822852 0.42045 3.10244e-21)
(0.801775 0.449838 -1.13387e-21)
(0.777163 0.416423 8.08781e-22)
(0.784598 0.24481 9.93239e-22)
(0.801397 0.0584452 0)
(0.843355 -0.128825 0)
(0.869685 -0.230369 -1.71426e-21)
(0.862558 -0.276352 2.35149e-21)
(0.837378 -0.358586 -1.10886e-21)
(0.800288 -0.294296 2.70493e-22)
(0.808147 -0.274171 3.83345e-22)
(0.802623 -0.0591565 1.36471e-22)
(0.805619 0.105175 -1.84388e-22)
(0.789615 0.210088 0)
(0.790298 0.400932 -1.56299e-22)
(0.787448 0.190835 -3.55501e-23)
(0.749266 -0.20754 1.67967e-19)
(0.77474 -0.279838 -1.67361e-19)
(0.799194 -0.349658 1.20193e-21)
(0.81609 -0.412778 -1.04983e-21)
(0.821243 -0.466877 9.66516e-22)
(0.814533 -0.507747 -8.29144e-22)
(0.796326 -0.53183 1.33621e-21)
(0.767006 -0.538211 0)
(0.727993 -0.528039 -8.43799e-22)
(0.681284 -0.50385 6.35551e-22)
(0.6277 -0.470395 4.59882e-22)
(0.565213 -0.435475 -3.60893e-22)
(0.49097 -0.405942 0)
(0.408515 -0.378853 0)
(0.332411 -0.338404 9.60063e-23)
(0.281938 -0.266014 0)
(0.26929 -0.155191 -7.88751e-23)
(0.294809 -0.0175759 0)
(0.348333 0.124157 -7.62502e-21)
(0.416323 0.250437 1.46451e-20)
(0.487445 0.348717 -1.4549e-20)
(0.551902 0.417758 7.32093e-21)
(0.60136 0.468188 1.01205e-20)
(0.632057 0.514165 -9.82806e-21)
(0.650001 0.555709 -1.62378e-20)
(0.6718 0.566166 1.5895e-20)
(0.712767 0.506572 0)
(0.776483 0.355792 8.42797e-22)
(0.853459 0.133393 0)
(0.925945 -0.103333 0)
(0.9727 -0.289921 2.27322e-20)
(0.986805 -0.396578 -2.36909e-20)
(0.974658 -0.434786 9.64179e-22)
(0.945974 -0.432775 7.03169e-22)
(0.912644 -0.412348 -4.9796e-22)
(0.876701 -0.387439 -2.76951e-21)
(0.83134 -0.373771 2.68925e-21)
(0.76741 -0.354802 -2.51907e-21)
(0.706994 -0.308458 2.16241e-21)
(0.671902 -0.198855 6.10154e-22)
(0.683299 -0.0590046 -2.34375e-21)
(0.725853 0.0904395 -7.28429e-23)
(0.78272 0.215837 1.5393e-21)
(0.820917 0.322234 0)
(0.826249 0.420608 -1.11629e-21)
(0.810676 0.456104 2.43337e-21)
(0.790953 0.423263 -3.01381e-21)
(0.80304 0.248646 -9.99578e-22)
(0.819355 0.0563856 0)
(0.859314 -0.133346 6.4844e-22)
(0.883536 -0.232277 -1.497e-21)
(0.875852 -0.271006 2.9844e-24)
(0.849153 -0.351467 -3.07524e-22)
(0.807185 -0.291619 3.14388e-22)
(0.815079 -0.275777 -3.40091e-22)
(0.80546 -0.0608823 0)
(0.807882 0.105657 1.84474e-22)
(0.789888 0.210684 0)
(0.790163 0.40105 0)
(0.790683 0.1914 4.64733e-23)
(0.912413 -0.215633 -1.62615e-19)
(0.931308 -0.281176 1.60953e-19)
(0.950597 -0.342386 -1.10424e-21)
(0.960851 -0.397524 1.07475e-21)