/*--------------------------------*- C++ -*----------------------------------*\
| =========                 |                                                 |
| \\      /  F ield         | OpenFOAM: The Open Source CFD Toolbox           |
|  \\    /   O peration     | Version:  2512                                  |
|   \\  /    A nd           | Website:  www.openfoam.com                      |
|    \\/     M anipulation  |                                                 |
\*---------------------------------------------------------------------------*/
FoamFile
{
    version     2.0;
    format      ascii;
    arch        "LSB;label=32;scalar=64";
    class       surfaceScalarField;
    location    "90";
    object      phi;
}
// * * * * * * * * * * * * * * * * * * * * * * * * * * * * * * * * * * * * * //

dimensions      [0 3 -1 0 0 0 0];

oriented        oriented;

internalField   nonuniform List<scalar> 
26232
(
8.00367e-05
0.000843764
-0.0009238
0.000427549
0.00135239
-0.0016999
0.00117958
0.000873978
-0.00162601
0.00248798
-0.000505275
-0.000803126
0.00451238
-0.00273625
0.000711856
0.00741137
-0.00578995
0.00289096
0.0113307
-0.00964306
0.00572371
0.0163885
-0.0142619
0.0092041
0.0226586
-0.0195875
0.0133174
0.0301563
-0.0255267
0.0180291
0.0388276
-0.0319495
0.0232783
0.0485469
-0.0386947
0.0289754
0.0591237
-0.0455821
0.0350053
0.0703172
-0.0524277
0.0412342
0.0818574
-0.0590603
0.0475201
0.0934693
-0.065336
0.0537242
0.104897
-0.0711485
0.059721
0.115924
-0.0764354
0.0654086
0.126388
-0.0811771
0.0707123
0.136194
-0.0854012
0.0755953
0.145301
-0.0891474
0.0800406
0.153744
-0.0925416
0.0840992
0.161521
-0.0955502
0.0877726
-0.0985431
0.0914841
0.16858
0.00014305
0.000700714
0.000707485
0.000787952
0.00185254
-0.000271072
0.00374713
-0.00239987
0.00656148
-0.00555061
0.0104525
-0.00968096
0.0155436
-0.0147342
0.0219027
-0.0206209
0.0295218
-0.0272067
0.0383057
-0.0343106
0.0480713
-0.0417151
0.0585614
-0.0491849
0.06947
-0.0564907
0.0804739
-0.0634315
0.0912668
-0.0698532
0.10159
-0.075659
0.111254
-0.0808125
0.120152
-0.0853334
0.128262
-0.0892873
0.135634
-0.0927736
0.142387
-0.0959003
0.148659
-0.0988133
0.154632
-0.101523
-0.104423
0.160512
0.000211133
0.000489581
0.00101188
-1.27978e-05
0.00258697
-0.00184616
0.00511944
-0.00493234
0.00877889
-0.00921006
0.0136967
-0.0145988
0.0199371
-0.0209746
0.0274714
-0.0281552
0.0361635
-0.0358987
0.0457731
-0.0439203
0.0559793
-0.0519212
0.0664174
-0.0596231
0.076725
-0.0667983
0.0865844
-0.073291
0.0957573
-0.0790261
0.104104
-0.0840061
0.11159
-0.0882976
0.118269
-0.0920129
0.124269
-0.0952874
0.129757
-0.0982612
0.134915
-0.101059
0.139901
-0.103799
0.144881
-0.106503
-0.109438
0.149896
0.000291962
0.000197619
0.00136189
-0.00108273
0.00341297
-0.00389724
0.00663181
-0.00815118
0.0111633
-0.0137415
0.0170757
-0.0205112
0.0243275
-0.0282264
0.0327485
-0.0365762
0.0420472
-0.0451974
0.0518443
-0.0537173
0.0617251
-0.061802
0.0712988
-0.0691968
0.08025
-0.0757494
0.088373
-0.0814139
0.0955845
-0.0862377
0.101915
-0.0903365
0.107482
-0.0938649
0.112457
-0.096988
0.117028
-0.0998585
0.121371
-0.102604
0.12563
-0.105318
0.129908
-0.108076
0.134286
-0.110881
-0.113916
0.138763
0.000391189
-0.00019357
0.00176767
-0.00245921
0.0043383
-0.00646787
0.00826859
-0.0120815
0.0136423
-0.0191152
0.0204187
-0.0272876
0.0284068
-0.0362145
0.0372734
-0.0454428
0.0465872
-0.0545112
0.0558878
-0.0630179
0.0647598
-0.0706741
0.0728922
-0.0773293
0.0801109
-0.0829681
0.086381
-0.087684
0.0917834
-0.0916401
0.0964759
-0.095029
0.10065
-0.0980388
0.104493
-0.100831
0.108164
-0.103529
0.111781
-0.106222
0.115427
-0.108964
0.119146
-0.111794
0.122975
-0.11471
-0.117829
0.126888
0.0005097
-0.00070327
0.0022268
-0.00417631
0.00534089
-0.00958196
0.00996182
-0.0167024
0.0160675
-0.0252209
0.0234653
-0.0346854
0.031795
-0.0445442
0.0405804
-0.0542282
0.0493158
-0.0632466
0.0575571
-0.0712592
0.06499
-0.078107
0.071461
-0.0838002
0.0769689
-0.0884761
0.0816285
-0.0923436
0.0856203
-0.0956318
0.0891424
-0.0985511
0.0923753
-0.101272
0.0954621
-0.103918
0.098505
-0.106572
0.10157
-0.109286
0.104696
-0.11209
0.107902
-0.115
0.111207
-0.118016
-0.121201
0.114579
0.000644602
-0.00134787
0.00272198
-0.00625368
0.00636915
-0.0132291
0.0115981
-0.0219313
0.0182381
-0.0318609
0.0259226
-0.0423699
0.0341409
-0.0527625
0.0423398
-0.0624272
0.0500353
-0.0709421
0.0568939
-0.0781179
0.0627651
-0.0839781
0.0676643
-0.0886994
0.0717248
-0.0925366
0.0751394
-0.0957582
0.0781083
-0.0986007
0.0808055
-0.101248
0.0833637
-0.10383
0.0858743
-0.106428
0.0883949
-0.109093
0.090959
-0.111851
0.0935848
-0.114716
0.0962799
-0.117695
0.0990512
-0.120787
-0.12402
0.101871
0.000789629
-0.0021375
0.00322459
-0.00868864
0.00735052
-0.0173551
0.0130395
-0.0276203
0.0199452
-0.0387666
0.0275388
-0.0499636
0.0352191
-0.0604428
0.0424469
-0.0696549
0.0488475
-0.0773427
0.0542506
-0.0835209
0.0586694
-0.088397
0.0622438
-0.0922738
0.0651727
-0.0954655
0.0676584
-0.0982439
0.0698724
-0.100815
0.0719425
-0.103318
0.0739544
-0.105842
0.0759609
-0.108435
0.0779926
-0.111124
0.080066
-0.113924
0.082189
-0.116839
0.0843643
-0.11987
0.086594
-0.123017
-0.126283
0.0888567
0.000936133
-0.00307363
0.00369901
-0.0114515
0.00820361
-0.0218597
0.0141502
-0.0335669
0.0210175
-0.0456339
0.0281624
-0.0571085
0.0349763
-0.0672566
0.0410169
-0.0756955
0.0460667
-0.0823925
0.050116
-0.0875703
0.0532989
-0.0915798
0.0558165
-0.0947913
0.057875
-0.097524
0.059648
-0.100017
0.0612631
-0.10243
0.0628043
-0.10486
0.0643227
-0.10736
0.0658472
-0.109959
0.0673936
-0.112671
0.06897
-0.1155
0.0705801
-0.118449
0.0722249
-0.121515
0.0739034
-0.124695
-0.127982
0.0756021
0.00107383
-0.00414747
0.00410711
-0.0144848
0.00885089
-0.0266034
0.0148217
-0.0395377
0.0213546
-0.0521667
0.0277643
-0.0635183
0.0335142
-0.0730065
0.0383078
-0.0804891
0.0420866
-0.0861713
0.0449633
-0.090447
0.0471362
-0.0937528
0.0488169
-0.0964721
0.0501855
-0.0988926
0.0513742
-0.101206
0.0524696
-0.103525
0.0535231
-0.105913
0.0545638
-0.108401
0.0556074
-0.111003
0.0566623
-0.113726
0.0577329
-0.116571
0.0588207
-0.119537
0.0599258
-0.12262
0.0610459
-0.125815
-0.12911
0.062174
0.00119233
-0.0053398
0.00441414
-0.0177066
0.00923141
-0.0314207
0.0149895
-0.0452958
0.0209366
-0.0581138
0.0264209
-0.0690026
0.0310318
-0.0776174
0.0346286
-0.0840859
0.0372813
-0.088824
0.0391757
-0.0923414
0.0405278
-0.0951049
0.041528
-0.0974723
0.0423183
-0.0996828
0.0429916
-0.101879
0.0436029
-0.104137
0.0441827
-0.106493
0.0447471
-0.108965
0.0453051
-0.111561
0.0458616
-0.114282
0.0464193
-0.117129
0.0469787
-0.120096
0.0475389
-0.12318
0.0480965
-0.126373
-0.129662
0.0486488
0.00128495
-0.00662474
0.0045962
-0.0210179
0.00931038
-0.0361349
0.0146398
-0.0506252
0.0198153
-0.0632894
0.0242795
-0.0734667
0.0277689
-0.0811068
0.0302787
-0.0865957
0.0319645
-0.0905098
0.0330413
-0.0934182
0.033712
-0.0957756
0.0341327
-0.097893
0.0344077
-0.0999578
0.0345987
-0.10207
0.0347394
-0.104277
0.0348473
-0.106601
0.0349317
-0.10905
0.0349981
-0.111627
0.03505
-0.114334
0.0350891
-0.117168
0.0351162
-0.120124
0.0351302
-0.123194
0.0351273
-0.12637
0.0351074
-0.129642
-0.000219504
-0.00179238
0.00201188
-0.000788942
-0.00459104
0.00516047
-0.00165447
-0.00680468
0.00767021
-0.00276949
-0.00850881
0.00962384
-0.00409098
-0.00979513
0.0111166
-0.00558005
-0.0107675
0.0122566
-0.00720329
-0.0115265
0.0131498
-0.00893336
-0.0121563
0.0138864
-0.0107488
-0.0127167
0.0145322
-0.0126328
-0.0132413
0.0151253
-0.0145716
-0.0137391
0.0156779
-0.0165522
-0.0141993
0.0161798
-0.0185603
-0.0145956
0.0166037
-0.0205787
-0.0148909
0.0169093
-0.0225857
-0.0150398
0.0170468
-0.0245542
-0.0149902
0.0169587
-0.0264507
-0.0146854
0.0165818
-0.0282354
-0.0140638
0.0158486
-0.0298637
-0.0130611
0.0146894
-0.0312882
-0.0116115
0.013036
-0.0324637
-0.00965095
0.0108264
-0.0333484
-0.00711967
0.00800438
-0.0339478
-0.00392142
0.00452087
-4.69538e-05
-0.0342192
0.000318345
-0.000293075
-0.0014993
-0.00102312
-0.00386099
-0.00209838
-0.00572942
-0.00344708
-0.00716011
-0.00501085
-0.00823135
-0.00674317
-0.00903518
-0.00860833
-0.00966138
-0.01058
-0.0101847
-0.0126391
-0.0106576
-0.0147715
-0.0111089
-0.0169654
-0.0115452
-0.019209
-0.0119558
-0.021488
-0.0123166
-0.0237846
-0.0125943
-0.0260757
-0.0127486
-0.0283322
-0.0127338
-0.0305181
-0.0124994
-0.0325911
-0.0119908
-0.0345034
-0.0111487
-0.0362054
-0.00990956
-0.037651
-0.00820532
-0.0388002
-0.00597053
-0.0396081
-0.00311353
0.000410671
-0.0400657
-0.000346963
-0.00115234
-0.00119077
-0.00301719
-0.00240831
-0.00451188
-0.0039065
-0.00566192
-0.00561355
-0.00652431
-0.00747533
-0.0071734
-0.00945234
-0.00768438
-0.0115163
-0.00812069
-0.0136469
-0.00852706
-0.0158281
-0.00892769
-0.0180453
-0.00932802
-0.0202826
-0.00971842
-0.0225211
-0.0100781
-0.0247374
-0.0103781
-0.0269022
-0.0105839
-0.0289796
-0.0106563
-0.0309268
-0.0105523
-0.032693
-0.0102246
-0.0342205
-0.0096212
-0.0354468
-0.00868327
-0.0363115
-0.0073406
-0.0367586
-0.00552344
-0.0367335
-0.00313867
-9.76666e-05
-0.0362251
-0.000377417
-0.000774923
-0.00128212
-0.00211249
-0.0025689
-0.00322509
-0.00412866
-0.00410216
-0.00587863
-0.00477434
-0.00775738
-0.00529465
-0.0097202
-0.00572156
-0.0117345
-0.00610642
-0.0137752
-0.00648636
-0.0158209
-0.00688197
-0.0178505
-0.00729844
-0.0198405
-0.00772838
-0.0217636
-0.00815495
-0.0235871
-0.00855454
-0.0252724
-0.00889861
-0.0267738
-0.00915492
-0.028038
-0.00928812
-0.0290027
-0.00925993
-0.0295953
-0.00902856
-0.0297326
-0.00854596
-0.0293231
-0.00775013
-0.0282855
-0.00656105
-0.0265315
-0.00489262
-0.00256726
-0.024062
-0.000383235
-0.000391688
-0.00129412
-0.0012016
-0.00257593
-0.00194329
-0.00410946
-0.00256863
-0.0058037
-0.0030801
-0.00759027
-0.00350808
-0.00941808
-0.00389374
-0.011248
-0.0042765
-0.0130478
-0.00468653
-0.0147881
-0.00514173
-0.0164385
-0.00564801
-0.0179659
-0.00620102
-0.0193323
-0.00678854
-0.0204944
-0.00739239
-0.021403
-0.00798998
-0.0220025
-0.00855544
-0.0222302
-0.0090604
-0.0220155
-0.00947465
-0.0212777
-0.00976637
-0.0199225
-0.00990114
-0.0178353
-0.0098374
-0.0148845
-0.00951182
-0.0109641
-0.008813
-0.00748859
-0.00604279
-0.000365116
-2.65721e-05
-0.00122891
-0.000337802
-0.0024333
-0.000738907
-0.0038545
-0.00114743
-0.0053957
-0.00153889
-0.0069816
-0.00192219
-0.0085533
-0.00232204
-0.0100629
-0.00276692
-0.0114683
-0.0032811
-0.0127292
-0.00388079
-0.0138039
-0.00457332
-0.014647
-0.00535794
-0.0152084
-0.00622711
-0.015433
-0.0071678
-0.0152605
-0.00816255
-0.0146255
-0.0091904
-0.0134581
-0.0102279
-0.0116827
-0.01125
-0.00921724
-0.0122318
-0.00596883
-0.0131495
-0.00182564
-0.0139806
0.00335404
-0.0146915
0.00973376
-0.0151927
-0.0154626
0.0177078
-0.000325513
0.00029894
-0.00109304
0.000429723
-0.00215151
0.000319569
-0.00337654
7.76024e-05
-0.0046674
-0.000248036
-0.00594071
-0.000648881
-0.00712773
-0.00113502
-0.0081686
-0.00172605
-0.00900785
-0.00244185
-0.00959064
-0.003298
-0.00986004
-0.00430391
-0.00975554
-0.00546244
-0.0092125
-0.00677015
-0.00816253
-0.00821778
-0.00653423
-0.00979085
-0.00425426
-0.0114704
-0.00124841
-0.0132337
0.00255755
-0.015056
0.00723777
-0.016912
0.0128666
-0.0187784
0.0195205
-0.0206345
0.0273153
-0.0224863
0.0362844
-0.0241618
-0.0263254
0.0471471
-0.000268298
0.000567239
-0.000897118
0.00105854
-0.00174735
0.0011698
-0.00269748
0.00102773
-0.00364073
0.000695211
-0.00448508
0.000195469
-0.00514912
-0.000470975
-0.00555715
-0.00131802
-0.00563612
-0.00236288
-0.0053127
-0.00362142
-0.00451169
-0.00510493
-0.00315537
-0.00681876
-0.00116453
-0.00876099
0.00154008
-0.0109224
0.00503569
-0.0132865
0.0093953
-0.01583
0.0146858
-0.0185242
0.0209664
-0.0213366
0.0282876
-0.0242332
0.036692
-0.0271828
0.0462012
-0.0301437
0.0568901
-0.0331751
0.0685981
-0.0358699
-0.0397677
0.0820405
-0.000199196
0.000766435
-0.000656611
0.00151596
-0.00124633
0.00175952
-0.00184851
0.00162991
-0.00235132
0.00119802
-0.00265135
0.000495493
-0.00265047
-0.000471856
-0.00225475
-0.00171374
-0.00137108
-0.00324655
9.33745e-05
-0.00508587
0.00223116
-0.00724272
0.00513235
-0.00971995
0.00888221
-0.0125109
0.0135576
-0.0155978
0.0192235
-0.0189524
0.02593
-0.0225364
0.03371
-0.0263042
0.0425787
-0.0302054
0.0525333
-0.0341878
0.063556
-0.0382055
0.075604
-0.0421916
0.088665
-0.0462362
0.102536
-0.0497413
-0.0547895
0.117558
-0.000124691
0.000891125
-0.000389509
0.00178078
-0.00067876
0.00204877
-0.000872496
0.00182365
-0.00085143
0.00117696
-0.000498339
0.000142402
0.000301701
-0.0012719
0.00166237
-0.00307441
0.00369458
-0.00527876
0.00650533
-0.00789662
0.010194
-0.0109314
0.0148477
-0.0143737
0.020536
-0.0181992
0.0273058
-0.0223676
0.0351774
-0.0268239
0.0441425
-0.0315015
0.0541644
-0.036326
0.06518
-0.041221
0.0771045
-0.0461123
0.0898342
-0.0509352
0.103262
-0.0556195
0.11725
-0.0602241
0.131748
-0.0642393
-0.069536
0.146494
-5.09621e-05
0.000942088
-0.000113227
0.00184304
-7.49638e-05
0.00201051
0.000187558
0.00156113
0.000803671
0.000560844
0.0019048
-0.00095873
0.00362261
-0.0029897
0.00608502
-0.00553683
0.00941236
-0.0086061
0.0137108
-0.0121951
0.0190651
-0.0162856
0.0255305
-0.0208391
0.0331266
-0.0257952
0.0418325
-0.0310734
0.051586
-0.0365775
0.0622867
-0.0422022
0.0738012
-0.0478406
0.0859726
-0.0533924
0.0986305
-0.0587702
0.111601
-0.0639061
0.124731
-0.0687488
0.137819
-0.0733123
0.150946
-0.0773668
-0.0819192
0.16333
1.8287e-05
0.000161429
0.00054593
0.00130393
0.00257663
0.00450886
0.00724287
0.0109101
0.0156214
0.0214554
0.028448
0.0365843
0.0457943
0.0559551
0.0668977
0.0784197
0.0903001
0.102316
0.114258
0.125948
0.137239
0.148026
0.158432
0.167997
-0.0324451
0.00496749
-0.00674158
-0.0301699
0.0148549
-0.0171301
-0.0273588
0.0264155
-0.0292266
-0.0240533
0.039367
-0.0426725
-0.0203462
0.0533117
-0.0570188
-0.016347
0.0676971
-0.0716963
-0.0121311
0.0818214
-0.0860373
-0.00764644
0.0949212
-0.0994059
-0.00264571
0.10593
-0.110931
0.00339027
0.113666
-0.119702
0.0110254
0.1168
-0.124435
0.0207938
0.113722
-0.123491
0.0327717
0.103004
-0.114982
0.0464137
0.084026
-0.097668
0.0607896
0.0569659
-0.0713419
0.0750734
0.0226586
-0.0369424
0.0887824
-0.0174035
0.00369456
0.101616
-0.0607519
0.0479188
0.112962
-0.102024
0.0906779
0.121915
-0.135013
0.12606
0.127745
-0.156268
0.150438
0.130484
-0.166582
0.163842
0.130759
-0.168908
0.168634
0.128587
-0.167021
0.169193
0.1232
-0.166578
0.171965
0.115007
-0.171754
0.179946
0.107137
-0.177118
0.184988
0.103858
-0.166221
0.1695
0.107216
-0.124394
0.121036
0.116116
-0.0537806
0.0448805
0.127454
0.0278247
-0.0391619
0.13813
0.100603
-0.111279
0.146229
0.153545
-0.161644
0.151456
0.183726
-0.188953
0.1535
0.197882
-0.199926
0.15119
0.208728
-0.206417
0.144478
0.227717
-0.221005
0.136286
0.240708
-0.232515
0.13103
0.220168
-0.214912
0.131094
0.146631
-0.146696
0.135889
0.0373935
-0.0421882
0.142973
-0.0711367
0.0640522
0.149921
-0.155122
0.148174
0.153901
-0.199008
0.195028
0.152282
-0.22979
0.231409
0.14506
-0.243241
0.250463
0.136631
-0.258077
0.266506
0.132267
-0.214003
0.218368
0.134878
-0.128362
0.12575
0.141902
-0.00898098
0.00195756
0.147773
0.111442
-0.117313
0.147942
0.180009
-0.180179
0.143299
0.284636
-0.279993
0.138771
0.273045
-0.268517
0.138708
0.274173
-0.27411
0.141573
0.148492
-0.151358
0.143199
-0.0119874
0.0103616
0.141773
-0.0833422
0.0847675
0.139238
-0.336851
0.339387
-0.237154
0.239064
-0.0382965
0.00319836
-0.0358199
0.0123783
-0.0325852
0.0231809
-0.0285348
0.0353165
-0.0236775
0.0484544
-0.018067
0.0620866
-0.0116087
0.0753631
-0.00443883
0.0877513
0.00394133
0.0975501
0.0135971
0.10401
0.0247745
0.105623
0.0374955
0.101001
0.0513783
0.089121
0.0657081
0.0696963
0.0795819
0.0430921
0.0925399
0.00970058
0.104241
-0.0291051
0.114615
-0.0711252
0.123148
-0.110557
0.129168
-0.141033
0.132254
-0.159353
0.132596
-0.166925
0.13099
-0.167302
0.127732
-0.163763
0.121874
-0.16072
0.112997
-0.162876
0.103623
-0.167744
0.098502
-0.161101
0.100788
-0.12668
0.109794
-0.0627869
0.122231
0.0153876
0.134516
0.0883179
0.144486
0.143575
0.151488
0.176723
0.154836
0.194533
0.153439
0.210125
0.147641
0.233515
0.140417
0.247933
0.135716
0.224869
0.135529
0.146817
0.139358
0.0335652
0.144962
-0.076741
0.150455
-0.160615
0.153482
-0.202035
0.15147
-0.227778
0.144047
-0.235818
0.13544
-0.24947
0.131135
-0.209698
0.134084
-0.131311
0.1416
-0.016497
0.14768
0.105362
0.148054
0.179635
0.143474
0.289217
0.138864
0.277655
0.138872
0.274165
0.141945
0.145419
0.143933
-0.0139753
0.142574
-0.0819832
0.139989
-0.334266
-0.235275
-0.0342571
0.00123029
-0.0315163
0.00963746
-0.02788
0.0195446
-0.0231504
0.0305869
-0.0172105
0.0425145
-0.0103017
0.0551778
-0.00215689
0.0672183
0.00770522
0.0778892
0.018587
0.0866684
0.0306351
0.0919618
0.0438141
0.0924436
0.057828
0.0869875
0.072104
0.074845
0.0859031
0.0558972
0.0985466
0.0304486
0.109532
-0.00128476
0.119041
-0.0386139
0.126863
-0.0789473
0.132563
-0.116257
0.135682
-0.144153
0.136158
-0.159829
0.134374
-0.165141
0.131148
-0.164076
0.126998
-0.159613
0.121019
-0.154741
0.112031
-0.153887
0.101607
-0.15732
0.0945979
-0.154092
0.0953277
-0.12741
0.103924
-0.0713831
0.117053
0.00225879
0.130735
0.0746353
0.142518
0.131793
0.151292
0.167949
0.156029
0.189797
0.155768
0.210385
0.151125
0.238158
0.144951
0.254107
0.140695
0.229126
0.1401
0.147413
0.142853
0.0308115
0.146943
-0.080831
0.150942
-0.164613
0.153029
-0.204122
0.150731
-0.22548
0.143261
-0.228348
0.134563
-0.240771
0.130289
-0.205424
0.133451
-0.134473
0.141371
-0.0244169
0.147658
0.0990748
0.148291
0.179002
0.143796
0.293711
0.13908
0.282372
0.139139
0.274106
0.142444
0.142115
0.144818
-0.0163499
0.143528
-0.0806931
0.140872
-0.33161
-0.233428
-0.0217186
-0.00111311
-0.0185882
0.00650709
-0.0146397
0.0155962
-0.00946185
0.025409
-0.00296324
0.0360159
0.00555146
0.0466631
0.0153582
0.0574115
0.0262335
0.067014
0.0383192
0.0745826
0.0514154
0.0788655
0.0651971
0.078662
0.0791911
0.0729934
0.0927812
0.0612549
0.105309
0.0433694
0.11622
0.0195379
0.125288
-0.0103528
0.132615
-0.0459408
0.138017
-0.08435
0.141025
-0.119265
0.141381
-0.144509
0.139414
-0.157862
0.135768
-0.161495
0.131184
-0.159492
0.126264
-0.154692
0.120373
-0.14885
0.111856
-0.145371
0.101069
-0.146532
0.0923536
-0.145377
0.0910603
-0.126117
0.0985605
-0.0788833
0.111921
-0.0111013
0.126762
0.0597937
0.140259
0.118296
0.150779
0.157428
0.156997
0.183579
0.15809
0.209293
0.154818
0.24143
0.149741
0.259184
0.145821
0.233046
0.14467
0.148564
0.146294
0.0291877
0.148878
-0.0834149
0.151375
-0.167111
0.152522
-0.205269
0.150015
-0.222973
0.142633
-0.220966
0.133926
-0.232064
0.129654
-0.201152
0.132925
-0.137743
0.141172
-0.032664
0.147687
0.0925594
0.148647
0.178043
0.144279
0.298079
0.139448
0.287203
0.13953
0.274024
0.143069
0.138575
0.145848
-0.019129
0.144632
-0.0794772
0.141883
-0.328861
-0.231613
-0.00378385
-0.00337206
-0.000580521
0.00330376
0.00428995
0.0107257
0.0103547
0.0193443
0.0178007
0.02857
0.0264119
0.0380519
0.0363995
0.0474239
0.0476022
0.0558113
0.0598841
0.0623007
0.0729406
0.0658091
0.0863226
0.06528
0.0994775
0.0598385
0.111809
0.0489234
0.122769
0.0324095
0.131962
0.0103453
0.139313
-0.0177047
0.144719
-0.0513464
0.147851
-0.0874819
0.148264
-0.119678
0.146002
-0.142247
0.141816
-0.153675
0.136607
-0.156286
0.130996
-0.153881
0.125474
-0.14917
0.119746
-0.143123
0.112102
-0.137727
0.101722
-0.136152
0.0918077
-0.135463
0.0882314
-0.12254
0.0939935
-0.0846454
0.106886
-0.0239939
0.122595
0.0440849
0.137624
0.103268
0.149821
0.145231
0.157608
0.175791
0.160259
0.206642
0.15855
0.243139
0.154611
0.263123
0.15096
0.236697
0.149145
0.150379
0.149567
0.0287657
0.150713
-0.084561
0.15173
-0.168128
0.151931
-0.20547
0.149279
-0.220321
0.142102
-0.21379
0.133456
-0.223418
0.129158
-0.196854
0.132441
-0.141026
0.140955
-0.041178
0.147737
0.0857769
0.149108
0.176672
0.144933
0.302254
0.139993
0.292143
0.140059
0.273959
0.143819
0.134815
0.147014
-0.0223238
0.145879
-0.0783427
0.143015
-0.325997
-0.22983
0.0197246
-0.00538893
0.0231617
-0.000133299
0.0272837
0.00660374
0.0328434
0.0137845
0.0398798
0.0215336
0.048259
0.0296726
0.0579452
0.0377377
0.0687845
0.044972
0.0805483
0.0505369
0.0928684
0.053489
0.105256
0.0528921
0.117157
0.0479377
0.128034
0.0380468
0.137476
0.0229675
0.145232
0.00258893
0.151171
-0.023644
0.154939
-0.0551138
0.155972
-0.0885153
0.153951
-0.117656
0.149337
-0.137633
0.143248
-0.147587
0.136778
-0.149816
0.130452
-0.147555
0.12452
-0.143237
0.118937
-0.13754
0.112346
-0.131136
0.103086
-0.126891
0.0927753
-0.125152
0.0870074
-0.116773
0.0904031
-0.088041
0.102202
-0.0357932
0.118258
0.0280295
0.134513
0.0870122
0.148259
0.131485
0.157677
0.166373
0.162071
0.202247
0.16209
0.24312
0.15938
0.265833
0.155939
0.240138
0.153396
0.152922
0.152604
0.0295578
0.152391
-0.0843484
0.151975
-0.167711
0.151223
-0.204718
0.14847
-0.217568
0.141602
-0.206923
0.133072
-0.214888
0.128717
-0.192499
0.131926
-0.144235
0.140662
-0.0499141
0.147769
0.0786707
0.149653
0.174787
0.145759
0.306148
0.140734
0.297168
0.14074
0.273952
0.144691
0.130865
0.148306
-0.0259383
0.14726
-0.0772973
0.144259
-0.322995
-0.228079
0.0476114
-0.00585315
0.0491736
-0.00169552
0.0521127
0.00366466
0.0564496
0.00944757
0.0623382
0.015645
0.0696777
0.0223331
0.0783789
0.0290365
0.0882431
0.0351078
0.0989701
0.0398098
0.110155
0.0423042
0.121305
0.0417417
0.131891
0.0373517
0.141434
0.0285044
0.149514
0.0148871
0.156241
-0.00413813
0.160881
-0.0282837
0.163074
-0.057307
0.162089
-0.0875303
0.15784
-0.113407
0.151216
-0.131009
0.14361
-0.139981
0.136192
-0.142399
0.129424
-0.140786
0.123295
-0.137109
0.117815
-0.13206
0.112197
-0.125517
0.104533
-0.119228
0.09479
-0.115409
0.0873996
-0.109382
0.0880863
-0.0887278
0.0980006
-0.0457074
0.113785
0.0122453
0.13084
0.0699571
0.145938
0.116387
0.157
0.155312
0.163289
0.195958
0.16521
0.2412
0.163833
0.26721
0.160629
0.243341
0.157311
0.15624
0.155315
0.0315535
0.153846
-0.0828792
0.152076
-0.165942
0.15036
-0.203002
0.147535
-0.214743
0.141069
-0.200457
0.1327
-0.206518
0.128251
-0.18805
0.131302
-0.147285
0.140231
-0.0588434
0.147731
0.0711703
0.150248
0.17227
0.146746
0.30965
0.141679
0.302235
0.141583
0.274048
0.145682
0.126766
0.149712
-0.0299685
0.148763
-0.0763482
0.145604
-0.319837
-0.226362
0.0802105
-0.00402313
0.0795734
-0.00105845
0.080398
0.00284005
0.0826467
0.00719893
0.0864285
0.0118633
0.091787
0.0169745
0.0986414
0.0221821
0.10678
0.0269695
0.115876
0.0307133
0.125516
0.0326647
0.135208
0.0320498
0.144432
0.0281279
0.152736
0.0201999
0.159678
0.00794509
0.165159
-0.0096194
0.16851
-0.0316338
0.169004
-0.0578014
0.166006
-0.0845323
0.159772
-0.107173
0.151548
-0.122785
0.142861
-0.131294
0.134819
-0.134357
0.127819
-0.133787
0.121688
-0.130977
0.116315
-0.126688
0.111425
-0.120627
0.105462
-0.113264
0.0971558
-0.107103
0.0891031
-0.101329
0.0871401
-0.0867648
0.094503
-0.0530703
0.10924
-0.00249204
0.126551
0.0526461
0.142735
0.100203
0.155397
0.14265
0.16366
0.187695
0.167598
0.237261
0.167684
0.267123
0.164821
0.246205
0.160743
0.160318
0.157643
0.0346535
0.155003
-0.0802389
0.151989
-0.162928
0.149302
-0.200315
0.146416
-0.211856
0.140442
-0.194483
0.132274
-0.19835
0.127687
-0.183463
0.130498
-0.150096
0.13959
-0.0679354
0.147569
0.0631917
0.150848
0.16899
0.147872
0.312627
0.142832
0.307276
0.142593
0.274287
0.146785
0.122574
0.151219
-0.0344025
0.150373
-0.0755014
0.147039
-0.316503
-0.224684
0.11436
-0.000825281
0.111924
0.0013782
0.110872
0.00389124
0.111098
0.00697294
0.112631
0.0103307
0.115664
0.0139415
0.120166
0.0176799
0.125992
0.0211438
0.132885
0.0238202
0.14048
0.0250697
0.148317
0.024213
0.155882
0.0205623
0.162691
0.0133917
0.168255
0.00238043
0.172215
-0.0135796
0.173898
-0.0333163
0.172462
-0.0563656
0.167501
-0.0795712
0.15962
-0.0992925
0.150271
-0.113436
0.140948
-0.121971
0.132592
-0.126001
0.125518
-0.126713
0.119517
-0.124976
0.114322
-0.121493
0.109911
-0.116217
0.105413
-0.108766
0.0990641
-0.100754
0.0914862
-0.0937514
0.0875081
-0.0827868
0.0919488
-0.0575109
0.104676
-0.0152191
0.121634
0.0356879
0.138546
0.0832908
0.152689
0.128507
0.162984
0.177401
0.169094
0.231151
0.170774
0.265444
0.168345
0.248634
0.163662
0.165
0.15945
0.038866
0.155773
-0.0765619
0.151644
-0.1588
0.147996
-0.196667
0.14504
-0.208901
0.139654
-0.189097
0.131744
-0.19044
0.126969
-0.178688
0.129449
-0.152576
0.138674
-0.0771602
0.147218
0.0546473
0.151399
0.164809
0.149104
0.314921
0.14418
0.3122
0.14377
0.274697
0.147994
0.118349
0.152813
-0.0392214
0.152074
-0.0747623
0.14855
-0.312979
-0.223054
0.142732
0.00293681
0.139927
0.00418324
0.138078
0.00574036
0.137219
0.0078322
0.137369
0.010181
0.138704
0.0126062
0.141245
0.0151385
0.144915
0.0174744
0.149558
0.0191773
0.154906
0.0197214
0.160576
0.0185431
0.166103
0.0150345
0.170962
0.00853287
0.174962
-0.00161903
0.176907
-0.0155247
0.176543
-0.0329521
0.173071
-0.0528942
0.166371
-0.0728707
0.1573
-0.090222
0.147321
-0.103457
0.137754
-0.112404
0.12934
-0.117587
0.12231
-0.119682
0.116513
-0.119179
0.1116
-0.116579
0.10754
-0.112157
0.104104
-0.10533
0.0997801
-0.0964301
0.0936662
-0.0876375
0.0887547
-0.0778753
0.0903218
-0.059078
0.100393
-0.0252901
0.116159
0.0199214
0.133328
0.0661218
0.148749
0.113086
0.160996
0.165154
0.169273
0.222874
0.172694
0.262023
0.170938
0.250389
0.16585
0.170088
0.160744
0.0439724
0.156101
-0.0719195
0.150999
-0.153697
0.146416
-0.192084
0.143355
-0.20584
0.138647
-0.18439
0.131085
-0.182878
0.126078
-0.173681
0.128104
-0.154602
0.137418
-0.0864743
0.146618
0.0454477
0.151836
0.159591
0.150392
0.316366
0.1457
0.316891
0.145108
0.275289
0.149301
0.114157
0.154476
-0.0443963
0.153848
-0.0741351
0.150129
-0.30926
-0.221488
0.160319
0.00594764
0.157949
0.00655301
0.156167
0.00752216
0.155167
0.0088321
0.154971
0.010377
0.155576
0.0120016
0.157104
0.0136103
0.159481
0.0150978
0.162573
0.016085
0.166161
0.0161331
0.169956
0.0147488
0.173566
0.0114244
0.176407
0.00569168
0.178244
-0.00345587
0.178362
-0.0156433
0.176049
-0.0306383
0.170853
-0.047698
0.162949
-0.0649672
0.153313
-0.0805857
0.143244
-0.0933881
0.133805
-0.102965
0.125553
-0.109335
0.11865
-0.112779
0.113036
-0.113565
0.108411
-0.111955
0.104617
-0.108362
0.101781
-0.102494
0.099083
-0.0937324
0.0949305
-0.083485
0.0902746
-0.0732194
0.0896002
-0.0584036
0.0966078
-0.0322978
0.110299
0.00623021
0.127081
0.0493396
0.143534
0.0966325
0.157802
0.150887
0.168456
0.21222
0.17371
0.25677
0.172617
0.251481
0.167414
0.175292
0.161542
0.0498444
0.156097
-0.066475
0.150156
-0.147756
0.144694
-0.186621
0.14144
-0.202586
0.137432
-0.180382
0.130325
-0.175771
0.125048
-0.168404
0.126481
-0.156035
0.135772
-0.0957649
0.145691
0.0355283
0.152089
0.153193
0.151688
0.316767
0.147355
0.321224
0.146584
0.276061
0.1507
0.110041
0.156191
-0.0498878
0.155676
-0.0736194
0.151767
-0.305351
-0.220004
0.166407
0.00753771
0.164797
0.00816326
0.163546
0.00877238
0.162862
0.00951628
0.162799
0.0104403
0.16335
0.0114508
0.164494
0.0124655
0.166222
0.01337
0.168424
0.0138833
0.170906
0.0136514
0.173403
0.0122511
0.17561
0.00921742
0.177258
0.00404353
0.177447
-0.00364452
0.175853
-0.0140496
0.172096
-0.0268811
0.165932
-0.0415341
0.157734
-0.0567693
0.148392
-0.0712433
0.138909
-0.0839048
0.130052
-0.0941081
0.122234
-0.101518
0.115583
-0.106128
0.110118
-0.1081
0.105686
-0.107523
0.102051
-0.104727
0.099398
-0.0998412
0.0976319
-0.0919663
0.0952926
-0.0811457
0.0917257
-0.0696524
0.0897937
-0.0564716
0.093734
-0.0362381
0.104581
-0.00461719
0.120027
0.0338945
0.136641
0.0800181
0.152339
0.135189
0.165309
0.199249
0.172716
0.249363
0.172858
0.251339
0.168
0.18015
0.16197
0.0558747
0.155707
-0.0602116
0.149153
-0.141202
0.142955
-0.180423
0.139426
-0.199058
0.136052
-0.177008
0.129495
-0.169214
0.123922
-0.162832
0.124691
-0.156804
0.133821
-0.104895
0.144456
0.0248939
0.152073
0.145575
0.152913
0.315928
0.149108
0.325029
0.148192
0.276976
0.152184
0.106049
0.157931
-0.0556347
0.157545
-0.0732335
0.153468
-0.301273
-0.218592
0.187773
0.00928309
-0.189518
0.186513
0.00942241
0.185454
0.00983214
0.184625
0.0103451
0.184132
0.0109332
0.184032
0.0115507
0.184396
0.0121017
0.185326
0.0124399
0.186877
0.0123324
0.189059
0.0114697
0.191821
0.00948858
0.194999
0.00603975
0.198241
0.000801619
0.20123
-0.00663409
0.203394
-0.016213
0.204193
-0.0276801
0.203152
-0.0404935
0.200141
-0.0537582
0.195375
-0.0664772
0.189256
-0.0777856
0.182223
-0.0870754
0.174687
-0.0939817
0.166969
-0.0984096
0.159325
-0.100456
0.151935
-0.100133
0.144749
-0.0975417
0.137826
-0.0929185
0.131487
-0.0856274
0.125136
-0.074794
0.117485
-0.0620012
0.109302
-0.0482893
0.104088
-0.0310239
0.10488
-0.00540863
0.110217
0.0285566
0.117382
0.0728536
0.124039
0.128531
0.130027
0.193262
0.136506
0.242884
0.145456
0.242389
0.156892
0.168714
0.166502
0.0462642
0.171183
-0.0648923
0.169596
-0.139615
0.163727
-0.174555
0.157375
-0.192705
0.150711
-0.170344
0.141884
-0.160387
0.133563
-0.154511
0.129703
-0.152944
0.131462
-0.106654
0.13462
0.0217365
0.136011
0.144184
0.134941
0.316997
0.133663
0.326307
0.136448
0.274192
0.143354
0.0991422
0.149053
-0.0613331
0.148374
-0.0725547
0.142679
-0.295578
-0.214826
0.199992
0.0100458
-0.200755
0.19941
0.0100042
0.199026
0.0102167
0.198851
0.0105198
0.198947
0.0108367
0.199382
0.0111163
0.200211
0.011272
0.201483
0.0111687
0.203208
0.010607
0.205349
0.00932836
0.207794
0.00704381
0.210356
0.00347793
0.212817
-0.00166012
0.214757
-0.00857382
0.21577
-0.0172261
0.215473
-0.0273825
0.213579
-0.0385995
0.210021
-0.0502
0.204951
-0.0614075
0.198675
-0.0715101
0.19157
-0.07997
0.184022
-0.0864335
0.176349
-0.0907372
0.168766
-0.0928725
0.161444
-0.0928109
0.154396
-0.0904937
0.147544
-0.0860667
0.141199
-0.0792821
0.135318
-0.0689134
0.128707
-0.0553896
0.120955
-0.040537
0.114574
-0.0246432
0.112959
-0.00379354
0.116857
0.0246588
0.123788
0.065922
0.131326
0.120994
0.138679
0.185909
0.146958
0.234605
0.158057
0.231289
0.170869
0.155903
0.180945
0.0361885
0.184941
-0.0688892
0.182365
-0.137038
0.175257
-0.167447
0.167908
-0.185356
0.160834
-0.16327
0.151805
-0.151358
0.142959
-0.145665
0.138346
-0.14833
0.139804
-0.108112
0.143115
0.0184246
0.145113
0.142187
0.144828
0.317282
0.144147
0.326988
0.147252
0.271087
0.154305
0.0920889
0.160263