/*--------------------------------*- C++ -*----------------------------------*\
| =========                 |                                                 |
| \\      /  F ield         | OpenFOAM: The Open Source CFD Toolbox           |
|  \\    /   O peration     | Version:  2512                                  |
|   \\  /    A nd           | Website:  www.openfoam.com                      |
|    \\/     M anipulation  |                                                 |
\*---------------------------------------------------------------------------*/
FoamFile
{
    version     2.0;
    format      ascii;
    arch        "LSB;label=32;scalar=64";
    class       volVectorField;
    location    "169.25";
    object      U;
}
// * * * * * * * * * * * * * * * * * * * * * * * * * * * * * * * * * * * * * //

dimensions      [0 1 -1 0 0 0 0];

internalField   nonuniform List<vector> 
13248
(
(-0.0140359 0.0120945 7.27009e-20)
(-0.0271845 0.0250001 0)
(-0.0261449 0.0312121 -1.37209e-19)
(-0.0107919 0.0335012 1.29252e-19)
(0.0189956 0.0337041 1.20553e-19)
(0.0632968 0.0330513 0)
(0.122033 0.0323882 0)
(0.194781 0.0322981 2.85426e-19)
(0.280569 0.0331473 -2.05655e-21)
(0.377726 0.0351061 -2.4815e-19)
(0.483808 0.0381444 2.29883e-19)
(0.595652 0.0420332 -1.43518e-19)
(0.709548 0.0463644 0)
(0.821509 0.0505931 -2.50776e-19)
(0.927599 0.0541026 4.70516e-19)
(1.02425 0.0562795 -1.11571e-19)
(1.10858 0.056595 -2.05706e-19)
(1.1786 0.0546491 1.93116e-19)
(1.23336 0.0503082 0)
(1.273 0.0433036 0)
(1.29873 0.0347046 0)
(1.31219 0.0216156 0)
(1.3157 0.0130922 6.15522e-20)
(1.31177 -0.0152591 2.26661e-19)
(-0.0146683 0.0115004 -2.1969e-19)
(-0.0236773 0.0217566 1.49891e-19)
(-0.0137236 0.0253785 -1.4963e-21)
(0.0144162 0.025479 -1.97867e-19)
(0.0603426 0.0241986 -1.2042e-19)
(0.123605 0.0230155 -1.13919e-19)
(0.203345 0.0229123 -2.07388e-19)
(0.297991 0.0244808 1.96806e-19)
(0.40503 0.0279729 0)
(0.520955 0.0333183 9.2342e-22)
(0.641424 0.0401446 2.52413e-21)
(0.761601 0.0478257 1.44812e-19)
(0.87662 0.0555654 0)
(0.982066 0.0625069 0)
(1.0744 0.0678501 1.734e-19)
(1.15126 0.0709571 -3.25873e-19)
(1.2116 0.071427 1.98364e-19)
(1.25573 0.0691301 -1.86239e-19)
(1.28506 0.0641843 -8.30755e-20)
(1.30186 0.0569296 -1.54369e-19)
(1.30878 0.0478162 -6.53458e-20)
(1.3086 0.0372228 -1.23704e-19)
(1.30311 0.0271052 1.78835e-19)
(1.29596 0.0127983 5.15134e-20)
(-0.0139508 0.0100838 0)
(-0.0159152 0.0171293 0)
(0.00629636 0.0186064 7.00142e-20)
(0.0508636 0.0176124 6.42771e-20)
(0.116534 0.0163893 -1.85906e-21)
(0.201814 0.0165215 -1.18641e-19)
(0.304371 0.018964 0)
(0.420701 0.0241166 -9.76524e-20)
(0.546076 0.0318758 9.22167e-20)
(0.674818 0.0416889 1.32361e-21)
(0.800864 0.0526532 -1.5652e-19)
(0.918465 0.0636656 -1.43861e-19)
(1.02285 0.0736012 2.13287e-21)
(1.11071 0.0814848 -1.20624e-19)
(1.18047 0.0866234 2.88097e-19)
(1.23222 0.0886754 0)
(1.26753 0.0876537 -1.90959e-19)
(1.28897 0.0838542 9.25694e-20)
(1.29961 0.0777995 8.30124e-20)
(1.30248 0.0699771 0)
(1.30022 0.0612669 6.92993e-20)
(1.29466 0.0512868 -2.38858e-19)
(1.28711 0.0431503 2.24231e-19)
(1.27905 0.0299364 1.42297e-19)
(-0.0114583 0.007881 -7.82831e-20)
(-0.00287269 0.0112307 -8.10742e-20)
(0.0351826 0.0111264 7.29992e-20)
(0.0996483 0.0103108 0)
(0.187947 0.0108897 0)
(0.296833 0.0143235 -3.11539e-21)
(0.421683 0.0212593 0)
(0.556377 0.0315816 -3.01624e-19)
(0.69371 0.0445252 2.79942e-19)
(0.826224 0.0588504 -3.44694e-19)
(0.947202 0.0730906 7.86197e-20)
(1.05153 0.0858255 0)
(1.13625 0.0959189 1.3186e-19)
(1.20063 0.102669 -2.44602e-19)
(1.24594 0.105854 5.80984e-20)
(1.27489 0.10567 1.51196e-19)
(1.29093 0.102612 -5.5975e-21)
(1.29761 0.0973233 -1.68904e-19)
(1.29803 0.0904437 0)
(1.29455 0.0825599 0)
(1.28876 0.0741308 -6.16573e-20)
(1.2816 0.0653185 5.56083e-20)
(1.27357 0.0575275 2.01945e-19)
(1.26548 0.0464242 -1.89594e-19)
(-0.00681704 0.0050963 -8.3035e-20)
(0.0163324 0.00461896 -8.25905e-20)
(0.0739294 0.00381668 2.32073e-19)
(0.161342 0.00475022 -1.40479e-19)
(0.274006 0.00908288 1.32225e-19)
(0.40608 0.0178009 2.39433e-19)
(0.549914 0.0308374 -1.69472e-19)
(0.696541 0.0471827 -2.06042e-19)
(0.836824 0.0651793 4.3423e-21)
(0.962837 0.0829106 2.62139e-19)
(1.06898 0.0986036 0)
(1.15256 0.110946 7.23901e-20)
(1.21368 0.119248 0)
(1.25468 0.123439 -1.18409e-19)
(1.27926 0.123927 1.66506e-19)
(1.29155 0.121405 1.53278e-21)
(1.29542 0.116645 -4.41219e-20)
(1.29397 0.110355 8.312e-20)
(1.28939 0.103105 7.19253e-20)
(1.28308 0.0953001 -6.484e-20)
(1.27584 0.0872655 6.16446e-20)
(1.26807 0.0790523 -5.55961e-20)
(1.25997 0.0715532 0)
(1.25197 0.0617453 -4.22668e-20)
(0.00030887 0.00204941 8.30231e-20)
(0.0423965 -0.00180519 8.74443e-20)
(0.123099 -0.00193523 -7.7848e-20)
(0.235695 0.00265861 1.4519e-19)
(0.372807 0.0127728 -1.36651e-19)
(0.525205 0.0284343 1.23386e-19)
(0.681942 0.0484011 -5.94252e-20)
(0.83182 0.0704979 1.54737e-19)
(0.965277 0.0922186 -9.75674e-20)
(1.07588 0.111321 1.72488e-19)
(1.16094 0.126251 -3.9817e-19)
(1.22125 0.136312 1.46536e-19)
(1.26009 0.141592 -1.28179e-19)
(1.28205 0.142731 1.20401e-19)
(1.29191 0.140629 1.04447e-19)
(1.29381 0.136207 9.21322e-20)
(1.29094 0.130248 -2.56565e-19)
(1.28544 0.123339 1.59416e-19)
(1.27862 0.115887 -7.193e-20)
(1.27118 0.108161 1.8862e-19)
(1.26348 0.100337 -6.09059e-20)
(1.25565 0.0925215 -1.49347e-19)
(1.24774 0.0851375 1.38054e-19)
(1.2399 0.0762755 4.2255e-20)
(0.0102123 -0.000863497 0)
(0.0757337 -0.00692405 9.04219e-22)
(0.1826 -0.00447917 1.63965e-19)
(0.321319 0.00591685 -1.53622e-19)
(0.480878 0.0236259 -1.38407e-19)
(0.648264 0.0471633 2.5714e-19)
(0.809816 0.0737753 -1.19371e-19)
(0.953712 0.100174 1.58659e-19)
(1.07207 0.123437 -3.55087e-21)
(1.16177 0.141616 -8.98838e-20)
(1.22399 0.153931 1.9561e-19)
(1.26283 0.160609 -2.89053e-19)
(1.28375 0.162531 0)
(1.29219 0.160837 -5.68942e-20)
(1.2927 0.156631 -1.52152e-19)
(1.28866 0.150806 4.78365e-20)
(1.28227 0.144008 1.79673e-21)
(1.27481 0.136661 -1.06152e-19)
(1.26697 0.129034 6.18922e-21)
(1.25905 0.121295 1.23018e-19)
(1.25117 0.113555 -5.53124e-20)
(1.24334 0.105905 -2.11321e-20)
(1.23554 0.0984848 6.47993e-20)
(1.2278 0.0902939 0)
(0.0230999 -0.00318648 0)
(0.116345 -0.00951085 4.45339e-20)
(0.251487 -0.00214558 -2.14652e-19)
(0.41555 0.0161729 7.80392e-20)
(0.593363 0.0427118 -7.34453e-20)
(0.768535 0.0740276 -6.72022e-20)
(0.926265 0.105864 -1.18366e-19)
(1.05633 0.134305 5.92744e-20)
(1.15445 0.156722 5.12666e-20)
(1.22173 0.172079 0)
(1.26294 0.180677 1.166e-19)
(1.28441 0.183648 -1.73777e-19)
(1.29239 0.182421 1.29217e-19)
(1.29203 0.17834 5.69253e-20)
(1.28703 0.172471 -4.6868e-20)
(1.27977 0.165558 -3.93044e-20)
(1.27161 0.158076 -3.67961e-20)
(1.26324 0.150312 1.09772e-19)
(1.25496 0.142434 0)
(1.24688 0.134549 5.55627e-20)
(1.23899 0.126735 4.70394e-20)
(1.23127 0.119056 -1.16511e-19)
(1.22365 0.11152 -8.02699e-20)
(1.21609 0.103778 7.40724e-20)
(0.0390283 -0.00441727 -4.84511e-20)
(0.163695 -0.00832991 -2.02736e-21)
(0.32788 0.00654149 4.37967e-20)
(0.514608 0.0345543 1.22695e-19)
(0.704688 0.0702794 3.56791e-20)
(0.879732 0.108197 -6.89711e-20)
(1.02607 0.143026 6.28333e-20)
(1.13717 0.17102 -5.48909e-20)
(1.21337 0.190563 9.8428e-20)
(1.25979 0.201886 4.17747e-20)
(1.28368 0.206359 -1.18841e-19)
(1.29229 0.205766 3.4922e-20)
(1.29159 0.201782 5.96927e-20)
(1.28584 0.19572 -2.93475e-20)
(1.27774 0.188485 0)
(1.2688 0.180639 4.38662e-20)
(1.25977 0.172506 7.43902e-20)
(1.25098 0.16427 1.28345e-20)
(1.24252 0.15604 -6.21268e-20)
(1.23441 0.147886 2.60459e-20)
(1.22659 0.139863 0)
(1.21899 0.132003 -2.05501e-20)
(1.21155 0.124274 -1.95889e-20)
(1.20416 0.116752 0)
(0.0578406 -0.00403219 0)
(0.216635 -0.0022434 2.54317e-20)
(0.409034 0.0226897 4.71199e-20)
(0.614018 0.061515 -1.25464e-19)
(0.809418 0.105784 4.06445e-20)
(0.977032 0.148271 0)
(1.10661 0.183541 6.0763e-20)
(1.19661 0.20887 -8.48502e-20)
(1.25193 0.224121 -4.92404e-20)
(1.2807 0.230834 2.21659e-20)
(1.29138 0.231211 -3.558e-20)
(1.29107 0.227375 8.63288e-20)
(1.28486 0.221002 4.31535e-20)
(1.27597 0.213237 -3.00095e-20)
(1.26619 0.204781 -2.82814e-21)
(1.25641 0.196031 -8.21936e-20)
(1.24698 0.187197 3.74372e-20)
(1.23804 0.178397 -9.60643e-22)
(1.22957 0.169699 0)
(1.22153 0.161154 -2.60733e-20)
(1.21385 0.152797 0)
(1.20645 0.14463 5.91853e-20)
(1.19923 0.136659 -7.04775e-20)
(1.19207 0.129159 3.21502e-20)
(0.0791224 -0.00152443 -1.33642e-20)
(0.273414 0.00968154 -6.43459e-20)
(0.491564 0.0469168 7.33254e-20)
(0.709172 0.096816 4.3027e-20)
(0.903003 0.148076 -2.05236e-20)
(1.05749 0.192635 3.44504e-20)
(1.16749 0.225921 -1.6722e-20)
(1.2367 0.246892 2.77394e-20)
(1.2738 0.257042 0)
(1.28863 0.25902 6.2683e-20)
(1.2898 0.255543 -2.63515e-21)
(1.28361 0.248802 -5.05027e-20)
(1.27407 0.240311 2.15978e-20)
(1.26343 0.230992 -2.43575e-20)
(1.25281 0.221355 -9.26078e-21)
(1.24265 0.211663 1.07071e-20)
(1.2331 0.20205 -8.26496e-21)
(1.22417 0.192587 -4.48892e-20)
(1.21581 0.183322 2.75064e-20)
(1.20794 0.174286 5.63394e-21)
(1.20047 0.165494 4.96535e-21)
(1.1933 0.156937 4.37833e-21)
(1.18634 0.148684 0)
(1.17943 0.140999 0)
(0.102267 0.00356146 1.33734e-20)
(0.331907 0.0280911 -1.33736e-20)
(0.571927 0.0792893 -2.44616e-20)
(0.795996 0.139608 0)
(0.982254 0.19566 -1.02083e-20)
(1.11989 0.239731 -9.20941e-21)
(1.20966 0.269029 -1.57033e-20)
(1.25999 0.284532 0)
(1.2821 0.289249 0)
(1.28648 0.286628 0)
(1.28113 0.279595 0)
(1.27126 0.270216 0)
(1.25983 0.259765 -1.35865e-20)
(1.24833 0.248941 6.18862e-21)
(1.23738 0.238093 1.07385e-20)
(1.22716 0.227386 5.01782e-21)
(1.21769 0.216901 1.24149e-20)
(1.20893 0.20668 0)
(1.2008 0.196751 -2.97648e-21)
(1.19321 0.187134 -2.84844e-21)
(1.18606 0.177825 -4.97327e-21)
(1.17923 0.168818 -4.38533e-21)
(1.17262 0.160249 0)
(1.16606 0.152216 3.14717e-21)
(-0.00182495 0.0179436 8.87013e-21)
(-0.00780368 0.0530563 -9.18318e-21)
(-0.017773 0.0861193 -1.73534e-20)
(-0.0299194 0.1157 0)
(-0.0432124 0.141182 -2.31847e-20)
(-0.0570492 0.1628 7.30147e-21)
(-0.0709089 0.181343 -1.37019e-20)
(-0.0843315 0.197809 0)
(-0.0969318 0.213114 0)
(-0.108396 0.227916 0)
(-0.118468 0.242551 0)
(-0.126938 0.257046 0)
(-0.133618 0.271181 8.00644e-23)
(-0.138331 0.284549 -9.21824e-21)
(-0.140895 0.296603 1.75413e-20)
(-0.141126 0.306691 2.50926e-20)
(-0.138836 0.314081 8.05044e-21)
(-0.13384 0.317982 0)
(-0.125981 0.317585 7.28779e-21)
(-0.115146 0.312108 -2.08533e-20)
(-0.101267 0.300843 -1.34713e-20)
(-0.0842908 0.283262 -1.29613e-20)
(-0.0641871 0.259052 0)
(-0.041325 0.228505 0)
(-0.00274728 0.0208639 -2.659e-20)
(-0.0094136 0.0601108 4.5805e-20)
(-0.0183084 0.0962501 -1.71834e-20)
(-0.0283574 0.128142 -3.25708e-20)
(-0.0389111 0.155273 4.60822e-20)
(-0.0495533 0.177889 -2.89085e-20)
(-0.0598911 0.196779 4.08863e-20)
(-0.0695383 0.212956 2.55085e-20)
(-0.0781289 0.227385 0)
(-0.0853268 0.240792 -2.30944e-20)
(-0.09083 0.253584 -2.7004e-22)
(-0.0943702 0.265852 2.03866e-20)
(-0.0957059 0.277413 2.89834e-20)
(-0.0946131 0.287879 3.70073e-20)
(-0.0908869 0.296723 -1.70033e-20)
(-0.0843367 0.303295 -4.97902e-20)
(-0.0747903 0.306885 1.63678e-20)
(-0.0621006 0.306741 -6.10165e-20)
(-0.0461614 0.302107 0)
(-0.0269664 0.292266 1.39876e-20)
(-0.00457124 0.276595 1.34473e-20)
(0.0209579 0.254657 1.29378e-20)
(0.0497056 0.226334 0)
(0.0818697 0.192325 0)
(-0.00380848 0.0220649 0)
(-0.0113934 0.0632889 9.09964e-20)
(-0.0193445 0.101226 -3.4319e-20)
(-0.0272514 0.134716 3.23883e-20)
(-0.0348103 0.163166 -9.1096e-20)
(-0.0417865 0.1867 0)
(-0.0479316 0.205985 -5.38505e-20)
(-0.0529649 0.221958 2.51672e-20)
(-0.056579 0.235563 -4.7471e-20)
(-0.0584533 0.247561 2.2109e-20)
(-0.0582722 0.258427 1.27873e-19)
(-0.0557388 0.268331 -6.00965e-20)
(-0.0505837 0.277165 -9.63134e-20)
(-0.0425486 0.284612 -3.72564e-20)
(-0.0314269 0.290192 -1.211e-21)
(-0.017059 0.293316 1.33169e-19)
(0.000691975 0.293339 -6.3161e-20)
(0.021901 0.289591 -8.96626e-24)
(0.0465795 0.281405 0)
(0.0746489 0.268154 -5.7483e-20)
(0.105942 0.249316 0)
(0.140219 0.224493 -5.56931e-20)
(0.177373 0.193595 2.09419e-19)
(0.219351 0.157055 3.14297e-21)
(-0.0047953 0.0217029 0)
(-0.0133959 0.0627798 -1.39621e-22)
(-0.0206922 0.10107 3.40265e-20)
(-0.0267201 0.135188 -3.19027e-20)
(-0.031412 0.16435 3.03753e-20)
(-0.0346706 0.188479 1.69634e-19)
(-0.0363838 0.208039 -5.32474e-20)
(-0.0363959 0.223809 -4.97354e-20)
(-0.0344963 0.236644 9.42277e-20)
(-0.0304295 0.24729 -1.33874e-19)
(-0.0239159 0.256262 4.14769e-20)
(-0.0146743 0.263809 3.9426e-20)
(-0.00243994 0.269921 0)
(0.0130217 0.27438 3.61737e-20)
(0.0318982 0.276794 0)
(0.0543199 0.276681 6.52925e-20)
(0.0803602 0.273494 -1.28423e-19)
(0.110022 0.266667 2.70823e-20)
(0.143234 0.25565 1.16512e-19)
(0.179851 0.239929 5.74101e-20)
(0.219636 0.219076 0)
(0.262479 0.192695 -1.64217e-19)
(0.307026 0.160751 5.11717e-20)
(0.360102 0.122975 0)
(-0.0055715 0.0201551 0)
(-0.015181 0.0592501 -1.08262e-19)
(-0.0222215 0.0964055 -3.3735e-20)
(-0.0268745 0.129954 -6.35968e-20)
(-0.0291586 0.158915 5.98792e-20)
(-0.0290459 0.182998 -5.63306e-20)
(-0.0265289 0.202441 1.05116e-19)
(-0.0215763 0.21782 4.9624e-20)
(-0.0140999 0.229848 -1.39639e-19)
(-0.00395287 0.239197 8.76497e-20)
(0.00905582 0.246386 -1.2433e-19)
(0.0251376 0.251716 2.72743e-19)
(0.0445002 0.255269 -1.47488e-19)
(0.0673259 0.256932 6.9784e-20)
(0.093754 0.256438 2.02956e-19)
(0.123868 0.253422 -6.22585e-20)
(0.157693 0.247454 -5.82007e-20)
(0.195187 0.238084 -5.91244e-20)
(0.236251 0.224867 0)
(0.280779 0.207369 -1.14952e-19)
(0.328379 0.18524 -1.15464e-19)
(0.379927 0.15812 1.57014e-19)
(0.430938 0.126059 2.11054e-19)
(0.497259 0.0877445 -1.96705e-19)
(-0.00612008 0.017931 0)
(-0.0166937 0.0536964 -1.43471e-19)
(-0.0239154 0.0883339 6.07091e-22)
(-0.0278134 0.119992 1.26856e-19)
(-0.0283454 0.14758 0)
(-0.025484 0.170658 0)
(-0.0192841 0.18927 0)
(-0.00981869 0.203792 -4.8939e-20)
(0.00287474 0.214768 9.52714e-23)
(0.0188135 0.222766 8.58768e-20)
(0.0380668 0.228257 -1.23082e-19)
(0.0607397 0.231564 -3.77148e-22)
(0.0869521 0.232832 0)
(0.116818 0.232042 -6.97482e-20)
(0.150431 0.229042 6.64164e-20)
(0.187852 0.223581 -1.87176e-19)
(0.229112 0.215342 2.44532e-19)
(0.274218 0.203974 6.31795e-20)
(0.323102 0.189108 7.24249e-21)
(0.375911 0.170425 -2.16621e-19)
(0.431845 0.147544 -1.05236e-19)
(0.493982 0.120288 3.65325e-19)
(0.551951 0.0885786 -2.45584e-19)
(0.634583 0.0501592 0)
(-0.00654923 0.0155781 6.96307e-20)
(-0.0180765 0.0472646 7.17284e-20)
(-0.0258656 0.0782537 -6.70145e-20)
(-0.0295703 0.106737 -1.25387e-19)
(-0.0289867 0.131672 1.18054e-19)
(-0.0240406 0.15258 -1.09553e-19)
(-0.0148094 0.169389 1.54126e-19)
(-0.00143676 0.18232 -4.87708e-20)
(0.0159392 0.191767 9.00377e-20)
(0.0372226 0.198177 0)
(0.0623731 0.201954 7.86368e-20)
(0.0914035 0.203405 -1.47362e-19)
(0.124369 0.202705 1.42189e-19)
(0.161351 0.199901 -1.33538e-19)
(0.202462 0.194915 0)
(0.247815 0.187596 1.22795e-19)
(0.297526 0.177711 2.37642e-19)
(0.351734 0.164995 -2.24645e-19)
(0.410483 0.149135 -1.08528e-19)
(0.47425 0.129949 -1.11913e-19)
(0.541198 0.106788 3.08814e-19)
(0.617142 0.080208 1.01377e-19)
(0.683815 0.0492188 -9.20504e-20)
(0.785531 0.0127422 9.01064e-20)
(-0.00706029 0.0135812 -6.96404e-20)
(-0.0195989 0.0410338 2.13572e-19)
(-0.0281717 0.0676111 -6.71032e-20)
(-0.0319722 0.0918561 1.2468e-19)
(-0.030603 0.112965 -1.17388e-19)
(-0.0239266 0.130552 1.44086e-22)
(-0.0120095 0.14453 5.10015e-20)
(0.00498325 0.15504 1.87608e-19)
(0.0268722 0.16237 -1.06089e-21)
(0.0535163 0.166866 -8.3732e-20)
(0.0848405 0.168862 0)
(0.120848 0.168627 -7.25968e-20)
(0.161614 0.166338 1.37559e-19)
(0.207265 0.162065 1.31894e-19)
(0.25799 0.155794 -6.2141e-20)
(0.314 0.147423 -1.51923e-21)
(0.375463 0.13677 -5.82018e-20)
(0.442485 0.123629 1.09171e-19)
(0.514856 0.107691 1.08518e-19)
(0.592946 0.0890249 -1.05031e-19)
(0.67361 0.0665912 9.80577e-20)
(0.763854 0.0423881 -9.41851e-20)
(0.839263 0.012998 0)
(0.954023 -0.0178142 -9.0091e-20)
(-0.00787478 0.0122653 6.93321e-20)
(-0.021502 0.0358054 -7.12866e-20)
(-0.0307447 0.0576324 6.67921e-20)
(-0.03441 0.0769637 0)
(-0.0319429 0.0934147 0)
(-0.0231456 0.106818 1.07234e-19)
(-0.00803585 0.117176 -1.01357e-19)
(0.013271 0.12463 9.23563e-20)
(0.0406492 0.129422 -4.36351e-19)
(0.0740194 0.131837 3.36436e-22)
(0.113377 0.132151 7.5858e-20)
(0.158798 0.130595 0)
(0.210419 0.127327 -1.35867e-19)
(0.268405 0.122428 2.56673e-19)
(0.332868 0.115884 -1.82922e-19)
(0.403795 0.107596 -2.94996e-19)
(0.480995 0.0974164 -5.2099e-21)
(0.564008 0.0851947 2.10052e-19)
(0.651819 0.0706581 0)
(0.743704 0.0541038 0)
(0.835672 0.0342209 -9.80613e-20)
(0.932412 0.0142405 9.41887e-20)
(1.01101 -0.0121402 -3.52952e-19)
(1.11975 -0.034407 3.3049e-19)
(-0.00913145 0.0117219 0)
(-0.0237975 0.0319403 0)
(-0.033081 0.0490928 -1.99982e-19)
(-0.0356204 0.0633281 6.37744e-20)
(-0.0307851 0.0748139 1.3573e-21)
(-0.0183204 0.0836996 1.08748e-19)
(0.00185084 0.0901599 0)
(0.029739 0.0944122 -9.32033e-20)
(0.0653543 0.0967103 8.69972e-20)
(0.108737 0.0973189 -1.60644e-19)
(0.159954 0.0964817 8.90465e-23)
(0.219057 0.0943922 1.4194e-19)
(0.286015 0.0911726 7.79068e-22)
(0.360631 0.0868643 1.28533e-19)
(0.442446 0.0814142 -1.79091e-19)
(0.530643 0.0747111 0)
(0.623999 0.0665947 2.21752e-19)
(0.720854 0.056885 -3.14607e-19)
(0.819053 0.0453657 9.91194e-20)
(0.916344 0.0321625 0)
(1.00898 0.0163597 8.97386e-20)
(1.09738 0.000751007 3.51758e-19)
(1.16765 -0.0213592 -3.30131e-19)
(1.24807 -0.0358759 -3.8241e-19)
(-0.0107869 0.0117808 2.08764e-19)
(-0.0261048 0.0292861 -2.86711e-19)
(-0.0341397 0.0421746 1.02238e-21)
(-0.0336657 0.0516375 6.34621e-20)
(-0.0240815 0.0584447 -1.17228e-19)
(-0.00508372 0.0631216 -1.08291e-19)
(0.0235147 0.0660711 1.99762e-19)
(0.0618518 0.0676337 -2.71476e-21)
(0.110019 0.0681175 -1.74342e-19)
(0.168022 0.0677917 3.22457e-19)
(0.23571 0.0668698 -6.88759e-22)
(0.312673 0.0654882 -1.41384e-19)
(0.398152 0.0636905 0)
(0.490951 0.0614204 0)
(0.589401 0.0585254 -5.98462e-20)
(0.691362 0.0547747 -1.12491e-19)
(0.794292 0.0498983 -2.16983e-19)
(0.89534 0.0435699 2.03669e-19)
(0.991558 0.0356229 -9.91699e-20)
(1.08001 0.0256758 1.8557e-19)
(1.15801 0.0139106 -8.88916e-20)
(1.22402 0.000667664 1.64909e-19)
(1.27359 -0.0167688 -3.83041e-19)
(1.31642 -0.0281818 7.47314e-20)
(-0.012567 0.0120568 7.0196e-20)
(-0.0276056 0.0272392 0)
(-0.0324193 0.0364843 1.35208e-19)
(-0.0261984 0.0419066 -1.27371e-19)
(-0.00851501 0.044853 1.17338e-19)
(0.0209269 0.0462359 0)
(0.062331 0.0466915 0)
(0.115773 0.0466963 -9.31586e-20)
(0.181113 0.046614 1.96835e-21)
(0.25786 0.0467003 8.22486e-20)
(0.34505 0.0470959 -7.56846e-20)
(0.44116 0.0478125 1.42076e-19)
(0.544072 0.0487257 0)
(0.651121 0.0495816 2.5154e-19)
(0.759218 0.0500202 -4.7369e-19)
(0.865026 0.0496108 3.35557e-19)
(0.965193 0.0479182 2.11785e-19)
(1.05658 0.0444894 -1.98805e-19)
(1.13654 0.0391558 0)
(1.20303 0.0312728 0)
(1.25513 0.0219718 0)
(1.29261 0.00876347 0)
(1.31652 -0.00383086 7.41153e-20)
(1.33036 -0.0191333 -2.61329e-19)
(-0.0132751 0.187259 -8.49136e-21)
(0.0210031 0.12594 8.5532e-21)
(0.0578163 0.0510556 -2.7628e-22)
(0.0972574 -0.0352393 0)
(0.138665 -0.130252 -7.76379e-21)
(0.18106 -0.229882 1.47233e-20)
(0.223525 -0.329335 -5.16436e-22)
(0.264662 -0.42163 -6.2791e-21)
(0.302653 -0.499587 0)
(0.33503 -0.557563 0)
(0.358892 -0.593601 -2.28629e-22)
(0.370884 -0.610879 -1.87014e-22)
(0.367858 -0.616875 -2.54818e-21)
(0.350101 -0.617644 2.32584e-21)
(0.325822 -0.60915 0)
(0.310768 -0.574652 0)
(0.320249 -0.494238 2.28954e-21)
(0.359011 -0.360178 2.10201e-22)
(0.420129 -0.18273 -2.22489e-21)
(0.492222 0.0152698 -1.4062e-22)
(0.56542 0.204485 0)
(0.631698 0.356092 0)
(0.684804 0.454977 0)
(0.721008 0.504378 0)
(0.741533 0.517532 0)
(0.750694 0.509969 0)
(0.74774 0.502679 2.93861e-22)
(0.726504 0.512209 -4.76768e-22)
(0.688952 0.527156 0)
(0.653813 0.500828 0)
(0.643644 0.389147 -6.2858e-22)
(0.665122 0.195776 6.10898e-22)
(0.708708 -0.0279195 3.34907e-22)
(0.757284 -0.219304 0)
(0.798799 -0.347468 0)
(0.826716 -0.406658 3.14397e-22)
(0.843713 -0.425652 -3.05608e-22)
(0.840858 -0.432103 0)
(0.811787 -0.450055 2.1679e-22)
(0.762638 -0.445944 -3.14342e-22)
(0.720152 -0.379757 1.16912e-22)
(0.70625 -0.233827 0)
(0.725525 -0.037636 -2.64631e-22)
(0.76236 0.130139 2.57322e-22)
(0.808268 0.263037 0)
(0.831828 0.324133 0)
(0.823874 0.387745 -6.86872e-23)
(0.784929 0.396302 2.00295e-22)
(0.750968 0.354056 0)
(0.744872 0.230312 0)
(0.777377 0.03511 -6.48567e-23)
(0.808259 -0.0824951 -6.66349e-24)
(0.831141 -0.254938 -7.6816e-24)
(0.807892 -0.29763 3.94144e-23)
(0.796481 -0.363115 0)
(0.788892 -0.310971 0)
(0.802458 -0.118324 0)
(0.797058 -0.0496737 0)
(0.806168 0.258124 0)
(0.785666 0.254971 0)
(0.118375 0.149267 -8.70709e-22)
(0.156922 0.0864628 -3.74901e-20)
(0.196386 0.0100612 -3.18122e-23)
(0.237497 -0.0772006 3.51858e-20)
(0.279108 -0.172566 5.46106e-22)
(0.320168 -0.272326 0)
(0.359753 -0.371009 -2.7318e-20)
(0.396313 -0.461169 5.11891e-20)
(0.427587 -0.534934 -2.38554e-20)
(0.451123 -0.586137 1.68358e-20)
(0.464929 -0.612415 -1.61357e-20)
(0.467318 -0.616641 1.09176e-20)
(0.455794 -0.607423 -1.06382e-20)
(0.427922 -0.595563 -2.50257e-22)
(0.38675 -0.584347 -7.381e-21)
(0.34524 -0.561193 7.17368e-21)
(0.322185 -0.502283 -7.70736e-21)
(0.330654 -0.390128 7.26999e-21)
(0.370331 -0.22781 -8.56411e-21)
(0.431435 -0.0371169 1.64379e-20)
(0.502302 0.15203 -7.88324e-21)
(0.572624 0.310351 -3.80027e-22)
(0.633989 0.420623 -4.91511e-21)
(0.680799 0.482427 8.7718e-21)
(0.712871 0.505832 -3.88273e-21)
(0.732395 0.5068 1.92422e-22)
(0.736633 0.508674 3.2799e-21)
(0.720765 0.526877 4.61196e-22)
(0.69047 0.544803 -7.37602e-21)
(0.666374 0.512607 8.69696e-21)
(0.66805 0.389117 -4.65851e-21)
(0.698228 0.183973 7.34591e-22)
(0.745879 -0.0468516 -3.35574e-22)
(0.79355 -0.238652 6.23012e-22)
(0.829976 -0.362239 0)
(0.849387 -0.415527 0)
(0.858187 -0.427812 -1.02694e-21)
(0.849591 -0.425591 7.73731e-22)
(0.817801 -0.435251 6.12335e-22)
(0.764539 -0.428779 1.68319e-22)
(0.716099 -0.369049 -9.41593e-22)
(0.696213 -0.234485 2.29486e-22)
(0.712723 -0.0482111 0)
(0.751568 0.115127 0)
(0.799725 0.251022 0)
(0.826462 0.320942 0)
(0.819018 0.39382 2.74183e-22)
(0.783492 0.40624 -1.33623e-22)
(0.751935 0.359736 0)
(0.748435 0.227992 0)
(0.782924 0.0271622 0)
(0.814139 -0.0888426 -1.20635e-22)
(0.839904 -0.25483 1.14928e-23)
(0.814066 -0.293914 -8.63968e-23)
(0.802691 -0.360802 0)
(0.792246 -0.311446 0)
(0.802456 -0.119369 4.72066e-23)
(0.795458 -0.0497424 1.20681e-22)
(0.801396 0.259452 0)
(0.783171 0.256153 0)
(0.259148 0.113173 3.39682e-21)
(0.300237 0.0499392 -7.67197e-20)
(0.341246 -0.0258028 7.83204e-20)
(0.383459 -0.111758 -7.32282e-20)
(0.425198 -0.205595 -5.49716e-22)
(0.465144 -0.303722 0)
(0.502067 -0.400302 -5.86484e-20)
(0.533873 -0.487366 5.74029e-20)
(0.557749 -0.55658 3.51646e-22)
(0.571238 -0.601676 5.90637e-22)
(0.5732 -0.620491 4.72841e-22)
(0.563834 -0.615616 3.77291e-22)
(0.543153 -0.594579 -1.75417e-20)
(0.508867 -0.569357 1.73012e-20)
(0.459089 -0.549795 0)
(0.400272 -0.531544 3.43142e-22)
(0.34983 -0.492518 -1.24221e-20)
(0.327143 -0.407114 1.22933e-20)
(0.340734 -0.267354 0)
(0.385452 -0.0898144 0)
(0.449574 0.0952227 -1.25045e-20)
(0.52059 0.258043 2.28839e-20)
(0.587719 0.378857 -1.86575e-20)
(0.643738 0.453212 1.39177e-21)
(0.686637 0.487956 1.30999e-20)
(0.715999 0.499091 -1.24659e-20)
(0.727471 0.511172 1.19523e-20)
(0.717943 0.537882 5.38049e-22)
(0.696202 0.558473 -6.94187e-21)
(0.683511 0.52136 0)
(0.696636 0.388679 0)
(0.735055 0.174522 4.59069e-21)
(0.786152 -0.061386 -5.93186e-21)
(0.832073 -0.252972 2.91913e-23)
(0.862962 -0.372239 3.57011e-21)
(0.873842 -0.420509 -3.46948e-21)
(0.874331 -0.427505 0)
(0.860089 -0.417902 2.2541e-22)
(0.826259 -0.419775 1.68247e-21)
(0.769962 -0.411047 -3.29451e-21)
(0.716282 -0.358033 1.46815e-21)
(0.690383 -0.235798 1.66312e-22)
(0.703686 -0.0602332 -2.0494e-21)
(0.743854 0.0982615 1.60547e-21)
(0.793458 0.237562 3.13448e-22)
(0.823013 0.31672 2.80764e-22)
(0.816287 0.399034 -2.74891e-22)
(0.784606 0.415678 0)
(0.755829 0.365376 0)
(0.754847 0.226283 -1.4044e-21)
(0.7908 0.0197542 6.61637e-22)
(0.821822 -0.0949264 -5.93432e-22)
(0.850234 -0.254335 7.13409e-22)
(0.821579 -0.289777 6.82316e-22)
(0.809731 -0.358058 -1.59344e-22)
(0.796389 -0.311736 2.12825e-22)
(0.803594 -0.120091 -1.70864e-22)
(0.795083 -0.0496053 4.83279e-23)
(0.797727 0.260708 0)
(0.781657 0.257246 0)
(0.399814 0.0796372 -1.59878e-19)
(0.442444 0.0166089 -2.72762e-21)
(0.485281 -0.057262 1.549e-19)
(0.528933 -0.140675 -1.19274e-21)
(0.571326 -0.231775 0)
(0.610768 -0.32714 0)
(0.645432 -0.420486 -1.19935e-19)
(0.672453 -0.503322 1.18589e-20)
(0.68852 -0.567074 1.43804e-19)
(0.691418 -0.605677 -7.55928e-21)
(0.680888 -0.617745 -3.43642e-20)
(0.658561 -0.606531 -2.07167e-20)
(0.627038 -0.578263 2.08494e-20)
(0.586897 -0.542572 0)
(0.534654 -0.511638 -1.1017e-20)
(0.469028 -0.490255 1.00737e-20)
(0.400404 -0.464503 0)
(0.349636 -0.406509 0)
(0.334327 -0.296093 1.04247e-20)
(0.357385 -0.139191 2.72899e-22)
(0.409668 0.0367003 -9.74818e-21)
(0.47723 0.200897 -8.78089e-21)
(0.54706 0.330579 8.64477e-21)
(0.610393 0.417063 -6.38522e-21)
(0.662847 0.463869 4.85508e-22)
(0.701175 0.48635 5.5325e-21)
(0.719819 0.509101 7.19391e-22)
(0.717384 0.543872 1.28758e-23)
(0.704963 0.567138 0)
(0.703758 0.526998 1.06361e-20)
(0.727883 0.388301 -1.10531e-20)
(0.774055 0.168496 7.82139e-22)
(0.828204 -0.0712126 0)
(0.872083 -0.262636 -6.59793e-22)
(0.897328 -0.3781 7.38777e-21)
(0.899895 -0.422047 -1.18503e-20)
(0.892057 -0.425035 6.46928e-22)
(0.872107 -0.409517 7.60827e-22)
(0.836695 -0.404138 2.77137e-21)
(0.778596 -0.392767 3.39687e-22)
(0.720686 -0.346277 -2.85666e-21)
(0.688929 -0.237179 2.37757e-21)
(0.698456 -0.0733594 6.06574e-23)
(0.739069 0.0798313 1.27996e-21)
(0.789341 0.222752 -1.55895e-21)
(0.821408 0.31134 -1.89108e-21)
(0.815676 0.403165 5.37135e-22)
(0.788237 0.424445 1.27494e-21)
(0.762674 0.371021 -2.69127e-21)
(0.76413 0.225402 2.13768e-21)
(0.800994 0.0131051 -6.09881e-22)
(0.831231 -0.100702 7.65854e-22)
(0.861993 -0.253512 6.10003e-22)
(0.830366 -0.285188 -1.04659e-21)
(0.817536 -0.354813 3.60026e-23)
(0.801203 -0.311831 -1.72182e-22)
(0.805785 -0.120533 0)
(0.795868 -0.0492625 -8.3054e-23)
(0.795125 0.261909 1.05307e-22)
(0.781122 0.258264 0)
(0.536094 0.0461624 1.58742e-19)
(0.580203 -0.0143616 -3.15363e-19)
(0.625739 -0.0853273 1.54065e-19)
(0.671317 -0.165102 1.52536e-19)
(0.714612 -0.252054 -2.93878e-19)
(0.75336 -0.342862 8.27132e-21)
(0.785126 -0.430837 1.30465e-19)
(0.806301 -0.507443 1.03086e-19)
(0.813399 -0.564513 -1.00926e-19)
(0.804935 -0.59662 0)
(0.781993 -0.603062 -5.47942e-20)
(0.747454 -0.587778 9.54419e-20)
(0.705107 -0.556727 -4.10182e-20)
(0.658139 -0.516476 0)
(0.60536 -0.476559 0)
(0.541423 -0.446741 2.90017e-22)
(0.466795 -0.424369 -1.43613e-20)
(0.396356 -0.38768 1.39533e-20)
(0.352753 -0.309286 0)
(0.349643 -0.180434 1.5493e-20)
(0.384641 -0.0197423 -2.91246e-20)
(0.444141 0.14091 2.69516e-20)
(0.513147 0.276728 -2.4229e-20)
(0.58122 0.374224 8.49381e-22)
(0.641286 0.433315 1.98464e-20)
(0.687347 0.467876 -9.79149e-21)
(0.712945 0.501442 -3.51613e-22)
(0.7181 0.543909 -6.6357e-21)
(0.715433 0.570355 -1.8859e-21)
(0.725439 0.529627 8.46962e-21)
(0.759929 0.388461 7.28489e-22)
(0.813456 0.165774 -1.31793e-20)
(0.870734 -0.0762994 2.49628e-20)
(0.91274 -0.267409 -1.32065e-20)
(0.932398 -0.379622 0)
(0.927038 -0.42002 -6.30309e-21)
(0.911094 -0.420293 5.93402e-21)
(0.885487 -0.400498 -2.65635e-21)
(0.84882 -0.388756 3.33045e-21)
(0.790077 -0.374462 -2.6943e-22)
(0.729119 -0.333895 0)
(0.691774 -0.238275 -2.84124e-22)
(0.696893 -0.0871942 9.11906e-22)
(0.737052 0.0601316 0)
(0.787193 0.206616 2.56171e-21)
(0.821501 0.304589 -1.01809e-21)
(0.817091 0.405945 5.24711e-22)
(0.79425 0.432364 5.97461e-22)
(0.772352 0.376681 0)
(0.776186 0.22547 0)
(0.813444 0.00745305 -2.14902e-21)
(0.842251 -0.106095 3.2386e-21)
(0.875014 -0.252328 -1.67628e-21)
(0.840363 -0.280071 4.53917e-22)
(0.826057 -0.350983 6.26314e-22)
(0.806573 -0.311743 1.72344e-22)
(0.808928 -0.120751 -2.01275e-22)
(0.797737 -0.0487204 0)
(0.79354 0.263066 -1.68446e-22)
(0.781562 0.259214 -1.98469e-23)
(0.67297 0.0117398 1.56185e-19)
(0.717675 -0.0448309 -1.5568e-19)
(0.764731 -0.111847 1.2273e-21)
(0.811677 -0.186243 -1.14673e-21)
(0.854536 -0.267208 1.15119e-21)
(0.89068 -0.351235 -1.07628e-21)
(0.917296 -0.431424 1.87082e-21)
(0.930416 -0.49984 0)
(0.926963 -0.549321 -1.40878e-21)
(0.90658 -0.575425 1.16336e-21)
(0.87178 -0.577959 9.31478e-22)
(0.826739 -0.56078 -7.41894e-22)
(0.775705 -0.5297 0)
(0.722412 -0.489751 0)
(0.668341 -0.446281 2.98039e-22)
(0.609292 -0.408004 0)
(0.539011 -0.380678 -1.5713e-22)
(0.461427 -0.354429 0)
(0.395898 -0.303844 -9.28329e-21)
(0.364878 -0.207885 1.86118e-20)
(0.37651 -0.0706906 -1.88434e-20)
(0.422346 0.0804218 9.31303e-21)
(0.486823 0.218615 8.04688e-21)
(0.556494 0.325223 -7.81446e-21)
(0.621665 0.396307 -8.17824e-21)
(0.673913 0.443281 7.96365e-21)
(0.706031 0.487586 0)
(0.718992 0.537532 3.40601e-22)
(0.726155 0.567962 0)
(0.74682 0.529282 0)
(0.79071 0.38927 2.38039e-20)
(0.851325 0.166442 -2.44917e-20)
(0.912481 -0.0765544 1.62057e-21)
(0.9532 -0.267333 1.41061e-21)
(0.967542 -0.377012 -1.09546e-21)
(0.954806 -0.41466 -5.55819e-21)
(0.931148 -0.413372 5.39701e-21)
(0.899979 -0.390952 -3.37185e-21)
(0.86222 -0.373909 2.86444e-21)
(0.803863 -0.356469 5.12435e-22)
(0.74111 -0.320891 -2.05881e-21)
(0.698711 -0.23877 -2.97918e-22)
(0.69877 -0.101151 1.47589e-21)
(0.737485 0.0394583 0)
(0.786754 0.189123 -9.0895e-22)
(0.823073 0.296232 1.44648e-21)
(0.820347 0.407094 -1.86983e-21)
(0.8024 0.43925 -6.0129e-22)
(0.784607 0.382303 0)
(0.790799 0.226589 7.9838e-22)
(0.828024 0.00317035 -1.64611e-21)
(0.854756 -0.110993 3.24489e-23)
(0.889095 -0.250775 -5.54579e-22)
(0.851483 -0.274378 6.41326e-22)
(0.835255 -0.346473 -6.21975e-22)
(0.812389 -0.311461 0)
(0.812912 -0.120808 2.01367e-22)
(0.800603 -0.0479918 0)
(0.792916 0.264185 0)
(0.782963 0.260098 3.02152e-23)
(0.820726 -0.0221288 -1.51596e-19)
(0.861758 -0.0750391 1.50054e-19)
(0.906907 -0.135929 -1.1243e-21)
(0.951428 -0.202748 1.17397e-21)
(0.989688 -0.275678 0)
(1.01917 -0.350666 0)