/*--------------------------------*- C++ -*----------------------------------*\
| =========                 |                                                 |
| \\      /  F ield         | OpenFOAM: The Open Source CFD Toolbox           |
|  \\    /   O peration     | Version:  2512                                  |
|   \\  /    A nd           | Website:  www.openfoam.com                      |
|    \\/     M anipulation  |                                                 |
\*---------------------------------------------------------------------------*/
FoamFile
{
    version     2.0;
    format      ascii;
    arch        "LSB;label=32;scalar=64";
    class       volScalarField;
    location    "160";
    object      p;
}
// * * * * * * * * * * * * * * * * * * * * * * * * * * * * * * * * * * * * * //

dimensions      [0 2 -2 0 0 0 0];

internalField   nonuniform List<scalar> 
13248
(
-0.311145
-0.310533
-0.309049
-0.30683
-0.303956
-0.300408
-0.296151
-0.291148
-0.285383
-0.278879
-0.271701
-0.263959
-0.255801
-0.247405
-0.238961
-0.230648
-0.222621
-0.215
-0.207855
-0.201233
-0.195079
-0.18947
-0.183953
-0.178969
-0.318932
-0.317292
-0.314974
-0.312065
-0.308592
-0.304543
-0.299869
-0.294511
-0.288428
-0.281619
-0.274129
-0.266053
-0.257531
-0.248729
-0.239821
-0.230972
-0.222318
-0.213962
-0.205966
-0.198356
-0.191107
-0.184193
-0.177419
-0.171068
-0.328055
-0.325264
-0.321988
-0.318269
-0.314082
-0.309413
-0.304195
-0.298334
-0.291752
-0.284417
-0.276358
-0.267669
-0.258493
-0.249007
-0.239394
-0.229823
-0.220435
-0.211337
-0.202592
-0.194233
-0.186231
-0.178588
-0.171139
-0.164129
-0.338567
-0.334518
-0.330189
-0.325574
-0.320575
-0.315161
-0.309229
-0.302634
-0.295261
-0.287061
-0.278076
-0.268427
-0.258296
-0.247893
-0.237427
-0.22708
-0.216997
-0.207275
-0.197969
-0.189092
-0.180622
-0.172552
-0.164752
-0.157509
-0.350568
-0.345163
-0.339719
-0.334145
-0.328239
-0.321917
-0.315023
-0.307363
-0.298808
-0.289338
-0.279053
-0.268144
-0.256853
-0.245432
-0.234105
-0.223047
-0.212382
-0.20218
-0.192468
-0.183242
-0.174476
-0.166149
-0.158171
-0.150752
-0.364118
-0.357275
-0.350678
-0.344096
-0.337152
-0.329682
-0.321468
-0.312306
-0.302111
-0.290957
-0.279052
-0.26668
-0.254142
-0.241704
-0.229576
-0.217899
-0.206755
-0.196176
-0.186162
-0.176691
-0.167728
-0.15924
-0.15116
-0.143639
-0.379145
-0.370814
-0.363044
-0.355377
-0.347191
-0.338218
-0.328219
-0.317051
-0.304761
-0.291582
-0.277857
-0.263948
-0.250179
-0.236795
-0.223955
-0.21175
-0.20021
-0.189332
-0.17909
-0.169444
-0.160353
-0.151772
-0.143658
-0.136075
-0.395385
-0.385564
-0.376603
-0.367715
-0.357974
-0.347029
-0.334709
-0.32104
-0.306289
-0.29088
-0.275272
-0.259863
-0.244949
-0.230715
-0.217256
-0.204599
-0.192729
-0.18161
-0.171195
-0.161431
-0.152267
-0.143655
-0.13556
-0.127966
-0.412335
-0.401084
-0.390901
-0.380572
-0.368852
-0.355393
-0.340224
-0.323661
-0.30624
-0.288558
-0.271134
-0.254343
-0.238411
-0.22344
-0.209451
-0.196415
-0.184278
-0.172976
-0.162444
-0.152617
-0.143437
-0.134852
-0.126823
-0.119269
-0.429242
-0.41668
-0.405209
-0.393124
-0.378923
-0.362412
-0.343981
-0.324314
-0.304206
-0.284362
-0.265291
-0.247289
-0.230484
-0.214892
-0.200465
-0.187127
-0.17479
-0.163369
-0.152781
-0.142951
-0.133811
-0.125307
-0.117379
-0.109913
-0.445122
-0.431403
-0.418522
-0.404283
-0.387081
-0.367077
-0.345148
-0.322366
-0.299717
-0.277928
-0.25743
-0.238408
-0.220885
-0.204796
-0.190035
-0.176485
-0.164032
-0.152572
-0.142006
-0.132248
-0.123223
-0.114865
-0.107087
-0.0997797
-0.458852
-0.444171
-0.429732
-0.412903
-0.392206
-0.368368
-0.342838
-0.317041
-0.292068
-0.268587
-0.246901
-0.227067
-0.209003
-0.192569
-0.17761
-0.163974
-0.151522
-0.140133
-0.129696
-0.120115
-0.111309
-0.103201
-0.0956787
-0.0886834
-0.349259
-0.351708
-0.3531
-0.353999
-0.35491
-0.355976
-0.357225
-0.358641
-0.360173
-0.361748
-0.36328
-0.364664
-0.365772
-0.366438
-0.366561
-0.365989
-0.364543
-0.362088
-0.358524
-0.353811
-0.347978
-0.341138
-0.333589
-0.325911
-0.33676
-0.339504
-0.340939
-0.341654
-0.342164
-0.342599
-0.342978
-0.343281
-0.343458
-0.343439
-0.343143
-0.34248
-0.341345
-0.339664
-0.337338
-0.3343
-0.330502
-0.325932
-0.320632
-0.314712
-0.308347
-0.301745
-0.295303
-0.290072
-0.325661
-0.328525
-0.329929
-0.330446
-0.330575
-0.330424
-0.330003
-0.329287
-0.328228
-0.326762
-0.324819
-0.322328
-0.319233
-0.315483
-0.311053
-0.305948
-0.300217
-0.293952
-0.287308
-0.28051
-0.273851
-0.267618
-0.262123
-0.258562
-0.3162
-0.319051
-0.320368
-0.320692
-0.320479
-0.319815
-0.318694
-0.317093
-0.314965
-0.312257
-0.308916
-0.304898
-0.300178
-0.294753
-0.288655
-0.281961
-0.274794
-0.267332
-0.259811
-0.252534
-0.245858
-0.240122
-0.235581
-0.233398
-0.308482
-0.311231
-0.312429
-0.312566
-0.312052
-0.310945
-0.309229
-0.306878
-0.303852
-0.300113
-0.295628
-0.290383
-0.284386
-0.27768
-0.270348
-0.262522
-0.254389
-0.246188
-0.238206
-0.230791
-0.224326
-0.219198
-0.21565
-0.214369
-0.302537
-0.305135
-0.30619
-0.306142
-0.305355
-0.303861
-0.301635
-0.29865
-0.294877
-0.290294
-0.284892
-0.278684
-0.271716
-0.26407
-0.255875
-0.247307
-0.238599
-0.230032
-0.22193
-0.214652
-0.208576
-0.204087
-0.201571
-0.200661
-0.298373
-0.300791
-0.30168
-0.30144
-0.300391
-0.298549
-0.295881
-0.292363
-0.287976
-0.282714
-0.276594
-0.269659
-0.261987
-0.253698
-0.244959
-0.235985
-0.227042
-0.218436
-0.210505
-0.203605
-0.1981
-0.194209
-0.192781
-0.191761
-0.296007
-0.29821
-0.298903
-0.298454
-0.29715
-0.294993
-0.291948
-0.287994
-0.283124
-0.277351
-0.270713
-0.263282
-0.255168
-0.246525
-0.237552
-0.228496
-0.219644
-0.211312
-0.203833
-0.19752
-0.192756
-0.189363
-0.188982
-0.187551
-0.295473
-0.297393
-0.297844
-0.297162
-0.295606
-0.29317
-0.28982
-0.285538
-0.280331
-0.274225
-0.26728
-0.259592
-0.251299
-0.242582
-0.233667
-0.224818
-0.216326
-0.2085
-0.201644
-0.195987
-0.191952
-0.188917
-0.189123
-0.187489
-0.296788
-0.298314
-0.298453
-0.297503
-0.295692
-0.293009
-0.289423
-0.284923
-0.279516
-0.273242
-0.266178
-0.258436
-0.250175
-0.241591
-0.232922
-0.224432
-0.216399
-0.209099
-0.202793
-0.197627
-0.193972
-0.191161
-0.19111
-0.189575
-0.299915
-0.300897
-0.300623
-0.299345
-0.297248
-0.294322
-0.290538
-0.285879
-0.280359
-0.27402
-0.266943
-0.25925
-0.251109
-0.24272
-0.234316
-0.226144
-0.218447
-0.211449
-0.20534
-0.20024
-0.196339
-0.193384
-0.192354
-0.190881
-0.304752
-0.305018
-0.304201
-0.302497
-0.300041
-0.29683
-0.292824
-0.288004
-0.282377
-0.275979
-0.26889
-0.261231
-0.253165
-0.244887
-0.236607
-0.228541
-0.220882
-0.213796
-0.207392
-0.201761
-0.196915
-0.192958
-0.190131
-0.188215
-0.317077
-0.307242
-0.299382
-0.294708
-0.294325
-0.298784
-0.307672
-0.319434
-0.331621
-0.340899
-0.343336
-0.33537
-0.314694
-0.281636
-0.240263
-0.197438
-0.159803
-0.131384
-0.113267
-0.104574
-0.104017
-0.111502
-0.127635
-0.149882
-0.16988
-0.176687
-0.166749
-0.14362
-0.116878
-0.094143
-0.0790878
-0.0718432
-0.0709592
-0.0769377
-0.091685
-0.112299
-0.128168
-0.128015
-0.112622
-0.0911694
-0.0727979
-0.0606113
-0.0540723
-0.0549785
-0.0619762
-0.0681973
-0.0669043
-0.0598143
-0.0513792
-0.0447639
-0.0403598
-0.0404411
-0.0410774
-0.0398876
-0.0380902
-0.0330153
-0.0226943
-0.0159655
-0.00932147
-0.00380683
-0.286279
-0.283616
-0.283971
-0.288133
-0.296631
-0.309337
-0.325212
-0.342316
-0.357982
-0.368922
-0.371538
-0.362365
-0.339213
-0.302488
-0.25669
-0.209277
-0.167307
-0.134859
-0.112866
-0.100364
-0.0960043
-0.0993102
-0.110727
-0.128616
-0.146177
-0.153892
-0.146988
-0.128613
-0.106435
-0.0875512
-0.07575
-0.0712867
-0.0729089
-0.0815798
-0.0993126
-0.122532
-0.139755
-0.138899
-0.121401
-0.0969936
-0.0756106
-0.0608255
-0.0519969
-0.0505761
-0.0551579
-0.0600011
-0.0588608
-0.0535469
-0.0473896
-0.0430425
-0.0410197
-0.0431134
-0.045698
-0.0444719
-0.0422069
-0.0359737
-0.0239262
-0.0160007
-0.00792085
-0.00282885
-0.259483
-0.263081
-0.269967
-0.280888
-0.295919
-0.314423
-0.334969
-0.355438
-0.373122
-0.38499
-0.387826
-0.378145
-0.353675
-0.314882
-0.26651
-0.216323
-0.17156
-0.136302
-0.11131
-0.0955283
-0.0875598
-0.0867283
-0.0933559
-0.106634
-0.121427
-0.129568
-0.125679
-0.111998
-0.0943865
-0.0794545
-0.071037
-0.0694422
-0.0736162
-0.084901
-0.105346
-0.130886
-0.149409
-0.148186
-0.128937
-0.101942
-0.077825
-0.0606491
-0.0497399
-0.0462085
-0.0485591
-0.0521141
-0.0509853
-0.0472913
-0.0432046
-0.0410962
-0.0415515
-0.0457865
-0.0503625
-0.0489963
-0.046117
-0.0387405
-0.025068
-0.0160094
-0.00655886
-0.00189376
-0.238282
-0.24566
-0.25701
-0.272411
-0.291493
-0.313366
-0.33647
-0.358658
-0.377313
-0.38974
-0.392793
-0.383065
-0.358252
-0.31889
-0.269809
-0.218769
-0.172902
-0.136104
-0.109041
-0.0906557
-0.079577
-0.0749592
-0.0769799
-0.0855335
-0.0971145
-0.105016
-0.103719
-0.09443
-0.0811653
-0.0701076
-0.0650247
-0.0662091
-0.0727963
-0.0864178
-0.10923
-0.136871
-0.156763
-0.155588
-0.13504
-0.105903
-0.0794258
-0.0601364
-0.0473898
-0.0420136
-0.0423675
-0.0447266
-0.0434573
-0.0411499
-0.038888
-0.0389402
-0.041923
-0.0484055
-0.0550097
-0.0534069
-0.0497751
-0.0412744
-0.026103
-0.0159927
-0.00524697
-0.00100584
-0.221651
-0.231674
-0.245255
-0.262714
-0.283587
-0.306803
-0.330742
-0.353352
-0.372371
-0.384979
-0.388086
-0.378491
-0.354043
-0.315426
-0.267435
-0.217461
-0.172106
-0.134925
-0.106588
-0.0862165
-0.0725508
-0.0647032
-0.0625834
-0.0664968
-0.0745081
-0.0814622
-0.0819976
-0.0764923
-0.0671712
-0.0597399
-0.0577515
-0.0614827
-0.0702213
-0.085816
-0.110625
-0.140114
-0.161466
-0.160853
-0.139574
-0.108826
-0.0804379
-0.0593603
-0.045033
-0.0380808
-0.0366962
-0.0379734
-0.0364321
-0.0352219
-0.0345041
-0.0365848
-0.0420941
-0.0509029
-0.0595507
-0.0576342
-0.053135
-0.0435388
-0.0270156
-0.0159513
-0.00399488
-0.000168323
-0.209552
-0.220939
-0.234906
-0.252483
-0.273398
-0.296399
-0.319804
-0.341703
-0.360388
-0.372762
-0.375537
-0.366106
-0.342606
-0.305882
-0.260545
-0.213272
-0.169819
-0.133288
-0.1044
-0.0825839
-0.0668249
-0.056273
-0.0506698
-0.0503551
-0.0545994
-0.0599815
-0.0627763
-0.0588117
-0.0528453
-0.0486294
-0.0493455
-0.0553028
-0.065873
-0.0830353
-0.109365
-0.140424
-0.163319
-0.163784
-0.142446
-0.110678
-0.0808809
-0.0583752
-0.0427277
-0.0344597
-0.0316031
-0.031936
-0.0300271
-0.0295933
-0.0301177
-0.0340397
-0.0420183
-0.0531927
-0.0638922
-0.0616079
-0.0561509
-0.0455007
-0.0277891
-0.0158817
-0.00281034
0.000617456
-0.201885
-0.213547
-0.226355
-0.242577
-0.262264
-0.283862
-0.305699
-0.326459
-0.343506
-0.354786
-0.356926
-0.347761
-0.325748
-0.291949
-0.250549
-0.207213
-0.166696
-0.13163
-0.102813
-0.0800317
-0.0626187
-0.0498508
-0.0413717
-0.0374186
-0.0379685
-0.0410621
-0.0434073
-0.0418202
-0.0387015
-0.0371542
-0.0400986
-0.0478843
-0.0598976
-0.0781314
-0.105441
-0.13777
-0.162243
-0.164296
-0.143604
-0.111442
-0.080766
-0.0572159
-0.0405087
-0.0311673
-0.0270885
-0.026635
-0.024318
-0.0243309
-0.0257993
-0.0313171
-0.0416445
-0.0551842
-0.0679419
-0.0652487
-0.0587817
-0.0471346
-0.0284094
-0.0157778
-0.00169721
0.00135239
-0.198365
-0.209216
-0.219637
-0.233471
-0.250961
-0.270098
-0.289299
-0.308207
-0.323487
-0.332609
-0.333857
-0.325135
-0.305216
-0.275232
-0.238681
-0.200054
-0.163113
-0.130083
-0.101857
-0.0785653
-0.0599184
-0.0454038
-0.034632
-0.0276997
-0.0248735
-0.025336
-0.0266878
-0.0263674
-0.0252841
-0.025775
-0.0304005
-0.0395245
-0.0525375
-0.0713451
-0.0990624
-0.132227
-0.158328
-0.162464
-0.143046
-0.111116
-0.0801032
-0.0559077
-0.0383986
-0.0282076
-0.0231302
-0.0220413
-0.0193336
-0.0194826
-0.0216237
-0.0284331
-0.0409261
-0.0567869
-0.0715964
-0.0684803
-0.0610061
-0.0484277
-0.0288711
-0.0156428
-0.000657916
0.00204026
-0.197733
-0.206453
-0.213863
-0.224843
-0.23933
-0.25532
-0.271932
-0.287211
-0.300066
-0.307291
-0.307889
-0.299994
-0.282788
-0.257243
-0.225994
-0.192373
-0.159273
-0.128608
-0.101387
-0.0780211
-0.0585556
-0.0427387
-0.0302164
-0.0209563
-0.0152565
-0.0130389
-0.0129487
-0.0131906
-0.0129714
-0.0149243
-0.0206647
-0.0305841
-0.0440889
-0.0629182
-0.0905483
-0.124175
-0.151881
-0.158493
-0.140844
-0.109806
-0.0790094
-0.0545696
-0.0364863
-0.0256154
-0.019722
-0.0181313
-0.0150807
-0.0150655
-0.0176677
-0.025399
-0.0398188
-0.0579165
-0.0747614
-0.071237
-0.0628112
-0.0493785
-0.0291785
-0.0154935
0.000295236
0.00268708
-0.197377
-0.202874
-0.207698
-0.215884
-0.226722
-0.239052
-0.252701
-0.265313
-0.274937
-0.280693
-0.281105
-0.274609
-0.26063
-0.239791
-0.21386
-0.185171
-0.155924
-0.1278
-0.101899
-0.0788435
-0.0589195
-0.0421324
-0.0282507
-0.0171624
-0.00908915
-0.00430737
-0.00233614
-0.0018805
-0.00192534
-0.00495204
-0.0112517
-0.0214159
-0.0349725
-0.0534958
-0.080502
-0.114043
-0.143225
-0.152759
-0.137195
-0.107755
-0.0777447
-0.0534324
-0.0349524
-0.0234698
-0.0168425
-0.0148772
-0.0116108
-0.0110888
-0.0139839
-0.0222465
-0.0383086
-0.0584851
-0.0773523
-0.073447
-0.0641911
-0.04998
-0.0293272
-0.0153301
0.00114289
0.0032979
-0.194937
-0.197462
-0.200803
-0.20636
-0.213663
-0.222846
-0.233179
-0.24223
-0.249856
-0.254781
-0.255492
-0.250862
-0.24035
-0.224179
-0.203368
-0.179434
-0.153998
-0.128513
-0.104119
-0.0816068
-0.0614577
-0.0438991
-0.0288917
-0.016336
-0.0063232
0.000818644
0.00496945
0.00681361
0.00744121
0.00371844
-0.00251139
-0.0123034
-0.0253084
-0.0429753
-0.0692251
-0.102878
-0.132927
-0.146902
-0.131838
-0.104681
-0.07607
-0.0522447
-0.0336291
-0.0216421
-0.0143018
-0.0120404
-0.00885145
-0.00771959
-0.010734
-0.0189272
-0.0363218
-0.0584911
-0.0793121
-0.0751152
-0.0651371
-0.0501744
-0.0292574
-0.0150901
0.0019125
0.00388153
-0.189794
-0.191582
-0.193763
-0.196425
-0.200405
-0.206288
-0.212908
-0.219992
-0.225394
-0.228966
-0.229627
-0.226411
-0.218725
-0.206449
-0.190003
-0.170269
-0.148397
-0.125611
-0.103029
-0.0815449
-0.0617804
-0.0441012
-0.02863
-0.0153911
-0.00434208
0.00443297
0.0105498
0.0136932
0.0140865
0.0109453
0.00507961
-0.00398853
-0.0162546
-0.0328624
-0.0576589
-0.0900831
-0.120243
-0.134291
-0.123014
-0.0990478
-0.0723263
-0.0494451
-0.0313063
-0.0193605
-0.0116434
-0.00916291
-0.0061324
-0.00638321
-0.00794367
-0.0157084
-0.0339935
-0.0577634
-0.0805288
-0.0759887
-0.0655642
-0.0498753
-0.0288472
-0.0146822
0.00271962
0.00447005
-0.182617
-0.187242
-0.188476
-0.189526
-0.192307
-0.196762
-0.201957
-0.206915
-0.211028
-0.213394
-0.213086
-0.209351
-0.201702
-0.190051
-0.17476
-0.156575
-0.136468
-0.115484
-0.0945814
-0.0745345
-0.0558884
-0.0389779
-0.0239315
-0.0108142
0.000393216
0.00967174
0.0167422
0.0210987
0.0247967
0.0194653
0.0142522
0.00648394
-0.0043838
-0.0200433
-0.0451915
-0.0798807
-0.113181
-0.13159
-0.116902
-0.0928944
-0.0669806
-0.0450877
-0.0277852
-0.0164213
-0.00891467
-0.00642366
-0.00300369
-0.002446
-0.00394223
-0.0113494
-0.0307084
-0.0564861
-0.0819088
-0.0803688
-0.0657274
-0.0492864
-0.028177
-0.0141753
0.00356415
0.00503106
-0.173746
-0.180425
-0.181626
-0.181428
-0.182609
-0.185417
-0.188969
-0.192416
-0.194894
-0.195676
-0.194145
-0.189776
-0.182219
-0.171412
-0.157633
-0.141445
-0.123592
-0.104884
-0.0860841
-0.0678385
-0.0506324
-0.0347871
-0.0204689
-0.00780484
0.00323176
0.0126748
0.0201812
0.0246117
0.0230044
0.0241626
0.0204326
0.0141224
0.00471005
-0.00989364
-0.0350136
-0.07059
-0.103731
-0.112808
-0.106643
-0.0844474
-0.060514
-0.0404409
-0.024485
-0.013801
-0.00649906
-0.00404645
-0.000611229
-0.000145328
-0.00115834
-0.00815068
-0.0279279
-0.0550584
-0.0821977
-0.0802214
-0.0648988
-0.0481137
-0.0272203
-0.0135062
0.00426623
0.00537932
-0.163307
-0.17129
-0.172778
-0.17183
-0.171761
-0.17331
-0.175689
-0.177794
-0.178879
-0.178474
-0.176175
-0.171618
-0.164529
-0.154815
-0.142625
-0.128342
-0.112516
-0.0957835
-0.0787785
-0.0620645
-0.0460897
-0.0311819
-0.0175222
-0.00526662
0.00554017
0.0148957
0.022539
0.0274223
0.0281124
0.0284994
0.0255854
0.0203206
0.0117666
-0.00243256
-0.0272434
-0.0613847
-0.0922664
-0.102366
-0.0956009
-0.0755653
-0.0539421
-0.035762
-0.0211549
-0.0112042
-0.00418659
-0.00178024
0.00160676
0.00216306
0.00115241
-0.00581836
-0.0257758
-0.0533812
-0.0812864
-0.0793456
-0.0634152
-0.0464894
-0.0260453
-0.0127166
0.00486686
0.00561848
-0.152301
-0.160685
-0.162516
-0.161366
-0.160617
-0.161235
-0.162559
-0.163621
-0.16377
-0.162624
-0.159892
-0.155312
-0.148664
-0.139847
-0.12894
-0.116221
-0.102111
-0.0871215
-0.0717684
-0.0565267
-0.0417871
-0.0278609
-0.0149338
-0.00317503
0.00731049
0.0164619
0.0241367
0.0295613
0.0316728
0.0322171
0.0303105
0.0261907
0.0184805
0.00469472
-0.0192303
-0.0512739
-0.0802064
-0.0906153
-0.0838276
-0.0661542
-0.0470575
-0.0308975
-0.0177577
-0.00864292
-0.00197917
0.000392006
0.00373728
0.0044049
0.00330847
-0.00366969
-0.0234832
-0.0508781
-0.0792371
-0.077675
-0.0613334
-0.0444026
-0.0246288
-0.0117905
0.00536068
0.00577134
-0.14077
-0.149231
-0.151447
-0.150399
-0.149274
-0.149189
-0.14973
-0.150075
-0.149602
-0.147966
-0.144961
-0.140412
-0.134164
-0.126131
-0.116359
-0.105041
-0.0924913
-0.0790999
-0.0652772
-0.0514191
-0.0378653
-0.0249099
-0.0127457
-0.00154747
0.00855203
0.0174328
0.025015
0.0308364
0.033787
0.0349617
0.0342016
0.0315011
0.0250967
0.0121961
-0.010711
-0.0410055
-0.0677657
-0.0775494
-0.0714157
-0.056421
-0.0400644
-0.0259885
-0.0143532
-0.00613616
0.000117222
0.00246502
0.0057562
0.00648676
0.00535125
-0.00139836
-0.0206199
-0.0473845
-0.0759414
-0.0749824
-0.0585724
-0.041835
-0.0229592
-0.0107323
0.00574254
0.00582779
-0.12897
-0.137429
-0.139951
-0.139082
-0.13779
-0.137272
-0.137292
-0.137139
-0.136242
-0.134301
-0.131171
-0.126744
-0.120918
-0.113624
-0.104879
-0.0948113
-0.0836465
-0.0716852
-0.0592555
-0.0466886
-0.0342776
-0.0222907
-0.0109202
-0.000343343
0.00929798
0.0178432
0.0252324
0.0314063
0.0347204
0.0365577
0.036852
0.0355997
0.0307526
0.018958
-0.00286306
-0.031025
-0.0548849
-0.0636819
-0.0587701
-0.0466771
-0.0331329
-0.0211276
-0.0109802
-0.00369547
0.00209679
0.0044254
0.00765553
0.00842819
0.00727742
0.00100413
-0.017219
-0.042913
-0.0712086
-0.071088
-0.0550916
-0.0388086
-0.0210412
-0.00954459
0.00601142
0.00577937
-0.117405
-0.125591
-0.128273
-0.127618
-0.126326
-0.125586
-0.125274
-0.124792
-0.123639
-0.121556
-0.118437
-0.114217
-0.10883
-0.102224
-0.0943982
-0.0854374
-0.0755067
-0.064837
-0.0536887
-0.042334
-0.031023
-0.0199948
-0.00943501
0.000477531
0.00959728
0.0177435
0.0247823
0.0301614
0.0346022
0.0370442
0.0381205
0.0379449
0.0343683
0.0237853
0.0037833
-0.0212631
-0.0417705
-0.049677
-0.0463858
-0.0372332
-0.0264357
-0.0164213
-0.00769004
-0.00133397
0.00395968
0.00626894
0.00944238
0.0102551
0.00908293
0.00344255
-0.0133958
-0.0374549
-0.0649644
-0.0659097
-0.0508941
-0.0353716
-0.0188957
-0.00823274
0.00617163
0.0056272
-0.106188
-0.113891
-0.116643
-0.116218
-0.115022
-0.114205
-0.11371
-0.113044
-0.111775
-0.109676
-0.106666
-0.10271
-0.0977676
-0.0918025
-0.0848097
-0.0768444
-0.0680259
-0.0585296
-0.04856
-0.0383396
-0.0280803
-0.0179934
-0.00825258
0.000967456
0.00951996
0.0172291
0.023966
0.0294387
0.0338107
0.0365882
0.0381061
0.038461
0.0356895
0.0265789
0.00937935
-0.0117954
-0.028992
-0.0363093
-0.0348014
-0.0284011
-0.0201311
-0.0119626
-0.004534
0.000936253
0.0057126
0.00800005
0.0111289
0.0119908
0.0107819
0.00588306
-0.00917453
-0.0310734
-0.0573054
-0.0594673
-0.0460214
-0.0315982
-0.0165625
-0.0068042
0.00623218
0.00538271
-0.095318
-0.102519
-0.105287
-0.105072
-0.103987
-0.103211
-0.102648
-0.10191
-0.100624
-0.098596
-0.0957626
-0.0921087
-0.0876151
-0.0822575
-0.0760292
-0.0689662
-0.0611539
-0.0527247
-0.0438392
-0.0346789
-0.0254219
-0.0162525
-0.00732989
0.00118069
0.00913623
0.0163747
0.022779
0.0281462
0.0324197
0.0353509
0.0370708
0.0375967
0.0353535
0.02791
0.0139751
-0.00318851
-0.0174397
-0.0243773
-0.024493
-0.0204297
-0.0143412
-0.00782427
-0.00156286
0.00309907
0.00736106
0.00962599
0.0127299
0.0136699
0.012436
0.00838347
-0.00458138
-0.0239774
-0.0484963
-0.0519068
-0.0405631
-0.027586
-0.014099
-0.00526663
0.00621018
0.00506828
-0.0849845
-0.0916567
-0.0943775
-0.0943555
-0.0934551
-0.0927165
-0.0921379
-0.0913926
-0.0901568
-0.0882589
-0.0856496
-0.0823254
-0.0782802
-0.0734993
-0.0679764
-0.0617348
-0.0548359
-0.0473801
-0.0394932
-0.0313223
-0.0230165
-0.0147344
-0.00661981
0.00117486
0.00851485
0.0152516
0.0212715
0.0264094
0.0305392
0.0334993
0.0352944
0.0358615
0.0340475
0.0281892
0.0173273
0.00380801
-0.00790224
-0.0144205
-0.0157266
-0.0134609
-0.0091444
-0.00405493
0.00117869
0.0051329
0.00890323
0.0111479
0.0142543
0.0153426
0.0141547
0.0110218
0.000273437
-0.0165065
-0.0389619
-0.0435259
-0.0346654
-0.0234482
-0.0115757
-0.0036322
0.00613969
0.00471952
-0.0753051
-0.0813757
-0.0839891
-0.084145
-0.0834854
-0.0827616
-0.0821966
-0.0814898
-0.0803495
-0.0786225
-0.0762671
-0.0732864
-0.0696825
-0.0654479
-0.0605775
-0.0550868
-0.0490202
-0.0424541
-0.0354868
-0.0282373
-0.0208292
-0.0133987
-0.00607327
0.00100958
0.0077248
0.0139347
0.0195284
0.0243624
0.0282959
0.031196
0.0329932
0.0335705
0.0321267
0.0275877
0.0192833
0.00883214
-0.000635104
-0.00653384
-0.00852775
-0.00752968
-0.00457802
-0.000682096
0.00365627
0.00701285
0.0103297
0.0125555
0.0156874
0.0170394
0.0160524
0.0138504
0.00520401
-0.00909534
-0.0292648
-0.0347633
-0.0285285
-0.0193028
-0.00906707
-0.00192783
0.00606603
0.00438772
-0.0662226
-0.0716845
-0.0741464
-0.0744112
-0.0738818
-0.0733035
-0.0728181
-0.0721928
-0.0711816
-0.0696506
-0.0675644
-0.0649297
-0.0617539
-0.0580345
-0.0537682
-0.0489655
-0.0436586
-0.0379058
-0.0317841
-0.0253896
-0.0188245
-0.0122043
-0.00564088
0.000743133
0.00683229
0.012502
0.0176441
0.0221283
0.025819
0.0285929
0.030342
0.0309278
0.0298095
0.0263232
0.0200445
0.0120871
0.00460185
-0.000514674
-0.00277463
-0.00259647
-0.000647815
0.00228389
0.00584751
0.00871345
0.0116296
0.013829
0.0169796
0.0187117
0.0181759
0.016863
0.00996375
-0.00223811
-0.0200287
-0.0261287
-0.0223903
-0.0152633
-0.00664283
-0.000201637
0.00603094
0.00413125
-0.0577376
-0.0626334
-0.0649274
-0.0652707
-0.0648691
-0.0644176
-0.0640263
-0.0635037
-0.0626382
-0.0613134
-0.0594992
-0.0572037
-0.0544372
-0.0512009
-0.0474926
-0.0433197
-0.0387058
-0.0336955
-0.0283496
-0.0227451
-0.0169668
-0.0111118
-0.00527681
0.000429294
0.00590268
0.0110312
0.0157094
0.0198177
0.0232338
0.025839
0.027513
0.0281211
0.0273008
0.0246643
0.0199795
0.0140118
0.00821042
0.00393583
0.00171346
0.00141914
0.00266273
0.00484443
0.00774343
0.01021
0.0127884
0.0149456
0.0180645
0.0202156
0.0203764
0.0198518
0.014207
0.00360699
-0.0117895
-0.018092
-0.0165001
-0.0114316
-0.0043658
0.00147325
0.00606291
0.00399212
-0.0499078
-0.0542571
-0.0563637
-0.05676
-0.0564784
-0.056135
-0.0558365
-0.0554212
-0.0547048
-0.053585
-0.0520357
-0.0500651
-0.0476846
-0.0448971
-0.0417019
-0.0381039
-0.0341208
-0.0297868
-0.0251498
-0.020272
-0.0152231
-0.0100843
-0.00493901
0.000118322
0.00499552
0.00959114
0.0138057
0.0175303
0.0206568
0.0230734
0.0246633
0.0253084
0.0247692
0.0228333
0.0193996
0.0150009
0.0105862
0.00713296
0.00513267
0.00461746
0.00538769
0.00700714
0.00934737
0.0114844
0.0137793
0.0158768
0.0188896
0.0213747
0.0222466
0.0223086
0.0175085
0.00815738
-0.00487031
-0.0109969
-0.0110915
-0.00789456
-0.00229453
0.00299358
0.00616663
0.00397293
-0.0427143
-0.0465391
-0.0484515
-0.0488822
-0.0487069
-0.0484623
-0.0482517
-0.0479402
-0.0473671
-0.0464426
-0.0451434
-0.0434773
-0.0414551
-0.0390807
-0.0363539
-0.0332783
-0.0298671
-0.0261466
-0.0221547
-0.0179413
-0.0135636
-0.00908934
-0.00458957
-0.000145499
0.00416143
0.00824046
0.0120026
0.0153478
0.0181872
0.0204105
0.0219163
0.0226079
0.0223309
0.0209783
0.0185236
0.0153466
0.0120656
0.00936594
0.00767419
0.00710348
0.00757351
0.00878609
0.0106676
0.0125266
0.014573
0.0165822
0.0194034
0.0220525
0.0233846
0.0236998
0.019566
0.0113745
0.000611818
-0.00505283
-0.00635651
-0.00471902
-0.000481357
0.00423605
0.00630621
0.00402367
-0.0361104
-0.0394588
-0.0411852
-0.041636
-0.0415521
-0.0413955
-0.0412647
-0.0410475
-0.0406066
-0.0398625
-0.0387939
-0.0374074
-0.0357131
-0.0337148
-0.0314125
-0.0288087
-0.0259133
-0.0227463
-0.0193379
-0.015728
-0.0119633
-0.00810005
-0.00419792
-0.000326651
0.0034434
0.00703188
0.0103599
0.0133305
0.0159011
0.0179356
0.0193603
0.0201011
0.0200592
0.0191876
0.0174993
0.0152659
0.0129106
0.0108628
0.00950473
0.00898011
0.00927478
0.0102021
0.0117146
0.0133321
0.0151489
0.0170291
0.0195708
0.0221054
0.0235614
0.0238634
0.0203907
0.013405
0.00468089
-0.000372225
-0.00242295
-0.00195294
0.00103983
0.00510217
0.00640278
0.004048
-0.0300823
-0.0330018
-0.0345506
-0.035008
-0.0350001
-0.0349243
-0.0348586
-0.0347237
-0.0344011
-0.0338197
-0.0329594
-0.0318257
-0.0304272
-0.0287675
-0.0268465
-0.0246656
-0.0222321
-0.0195616
-0.0166774
-0.0136118
-0.0104025
-0.00709579
-0.00374164
-0.00039876
0.00287344
0.00600566
0.00893395
0.011594
0.013862
0.0157077
0.0170532
0.0178376
0.0179962
0.0175138
0.0164197
0.0149132
0.0133025
0.0117931
0.0107635
0.0103436
0.0105498
0.0112821
0.0125017
0.0139033
0.0154993
0.0172116
0.0194169
0.0216101
0.0229421
0.0230785
0.0202475
0.0144715
0.00747203
0.00305523
0.000666388
0.000369585
0.00225622
0.00557608
0.00635744
0.00394146
-0.0246072
-0.0271365
-0.0285157
-0.0289692
-0.0290211
-0.0290057
-0.0290003
-0.0289396
-0.0287236
-0.0282878
-0.0276132
-0.0267044
-0.0255693
-0.0242109
-0.022629
-0.0208241
-0.0188014
-0.0165727
-0.0141562
-0.0115775
-0.00886715
-0.00606285
-0.00320569
-0.000345016
0.00246917
0.00517845
0.00772775
0.0100519
0.0120795
0.0137569
0.0150263
0.0158412
0.016162
0.0159877
0.015348
0.0143797
0.0132327
0.01228
0.0115692
0.0112825
0.0114568
0.0120577
0.0130472
0.0142521
0.0156339
0.0171447
0.018986
0.0207638
0.021832
0.0217592
0.0194775
0.0148141
0.00920449
0.00503122
0.00295385
0.00223232
0.00317207
0.00571462
0.00610367
0.0036502
-0.0196445
-0.0218252
-0.0230478
-0.0234903
-0.0235895
-0.023629
-0.0236776
-0.0236766
-0.0235492
-0.0232393
-0.0227277
-0.0220168
-0.0211134
-0.0200203
-0.018737
-0.0172633
-0.0156027
-0.013764
-0.0117614
-0.00961489
-0.0073489
-0.00499382
-0.00258316
-0.000157556
0.0022416
0.00456413
0.00676356
0.00878649
0.0105829
0.0121008
0.0132917
0.0141212
0.0145643
0.0146261
0.014334
0.0137897
0.013093
0.0124832
0.0120318
0.0118779
0.0120519
0.0125639
0.013374
0.0143989
0.0155713
0.0168612
0.0183411
0.0197086
0.0204854
0.0202286
0.0183758
0.0146693
0.010213
0.00668016
0.00460571
0.00364843
0.00381731
0.00559309
0.0056369
0.00320406
-0.0151592
-0.0170332
-0.0181136
-0.0185415
-0.0186787
-0.0187636
-0.0188525
-0.0189007
-0.0188482
-0.0186467
-0.0182768
-0.017738
-0.017036
-0.0161736
-0.0151503
-0.0139656
-0.0126214
-0.0111241
-0.00948453
-0.00771827
-0.00584446
-0.00388734
-0.00187386
0.000163076
0.00218964
0.00416417
0.00604766
0.00779575
0.00937594
0.0107367
0.0118467
0.0126731
0.0132005
0.0134368
0.0134018
0.0131738
0.0128101
0.012476
0.0122348
0.012199
0.0123883
0.0128385
0.0135071
0.0143675
0.015341
0.0164039
0.0175533
0.0185503
0.0190656
0.0186792
0.01715
0.0142211
0.0106967
0.00772423
0.00572369
0.00465999
0.00424391
0.00530379
0.00502956
0.00268898
-0.0111208
-0.0127257
-0.0136777
-0.0140882
-0.0142547
-0.014376
-0.0145022
-0.0145966
-0.0146015
-0.0144866
-0.0142347
-0.0138429
-0.0133142
-0.0126504
-0.0118513
-0.0109161
-0.00984575
-0.00864457
-0.00732064
-0.00588583
-0.00435504
-0.00274736
-0.00108387
0.000608813
0.00230339
0.00396727
0.00556912
0.00706958
0.00844085
0.00964856
0.0106739
0.0114822
0.0120597
0.0124152
0.0125617
0.0125512
0.0124381
0.0123194
0.0122442
0.0123061
0.0125152
0.0129187
0.0134739
0.0141857
0.0149763
0.0158212
0.016684
0.0173696
0.0176686
0.0172073
0.0159241
0.0136007
0.0108095
0.00830026
0.00642354
0.00532739
0.00450794
0.00493805
0.00438627
0.00218875
-0.00749566
-0.00886552
-0.00970275
-0.0100942
-0.0102827
-0.0104329
-0.0105872
-0.010716
-0.0107739
-0.0107302
-0.0105759
-0.0103077
-0.00992615
-0.00943177
-0.0088241
-0.00810222
-0.0072665
-0.00631971
-0.00526764
-0.00411922
-0.00288584
-0.00158215
-0.000224565
0.00116605
0.00256852
0.00395643
0.00530486
0.00658451
0.00777023
0.00883671
0.00975572
0.0105277
0.0111251
0.0115535
0.0118227
0.0119698
0.0120261
0.0120643
0.012114
0.0122506
0.0124763
0.0128407
0.0133038
0.0138828
0.0145099
0.0151581
0.0157822
0.0162182
0.0163463
0.0158524
0.0147605
0.0128971
0.0106699
0.00855538
0.00682661
0.00571231
0.00465094
0.00455662
0.00378665
0.00176106
-0.00425092
-0.00541755
-0.00615333
-0.00652527
-0.00673014
-0.00690268
-0.00707888
-0.00723524
-0.00733463
-0.00735149
-0.00727628
-0.00710967
-0.00685119
-0.00649972
-0.00605391
-0.00551275
-0.00487619
-0.00414589
-0.00332588
-0.00242268
-0.00144477
-0.000403199
0.000689459
0.00181721
0.00296362
0.0041082
0.00523179
0.00631135
0.0073275
0.00825899
0.00908924
0.00979556
0.0103801
0.0108436
0.0111859
0.0114342
0.0116046
0.0117504
0.0118877
0.0120759
0.012311
0.0126395
0.0130259
0.0134888
0.0139737
0.0144515
0.0148814
0.0151258
0.0151249
0.0146251
0.0136834
0.012168
0.0103649
0.00858327
0.00698897
0.00587668
0.00470032
0.00419857
0.00327074
0.00142675
-0.00135672
-0.00234867
-0.0029954
-0.003348
-0.00356438
-0.00375388
-0.00394659
-0.00412413
-0.0042566
-0.00432264
-0.00431329
-0.00422829
-0.00407027
-0.00383725
-0.00352682
-0.00313742
-0.0026685
-0.00212086
-0.00149716
-0.000802009
-4.16223e-05
0.000775758
0.00164075
0.00254141
0.00346525
0.00439665
0.00532072
0.00621947
0.00707783
0.00787861
0.00860777
0.0092533
0.00980894
0.0102753
0.0106513
0.0109553
0.0111948
0.0114075
0.0116003
0.0118184
0.0120546
0.0123477
0.0126681
0.0130317
0.0133963
0.0137314
0.0140054
0.014108
0.0140127
0.0135221
0.0126991
0.0114477
0.00995898
0.0084484
0.00698404
0.00588323
0.00467402
0.00388543
0.00286416
0.00117983
0.00121521
0.000372671
-0.000196361
-0.000530236
-0.000754263
-0.000956225
-0.00116093
-0.00135421
-0.00151225
-0.00161772
-0.00166283
-0.00164575
-0.00156712
-0.00142943
-0.00123042
-0.000967274
-0.00063818
-0.000243248
0.000215801
0.000735907
0.00131262
0.00193985
0.00261076
0.00331665
0.0040482
0.00479368
0.00554173
0.00627868
0.00699264
0.00767035
0.00830112
0.00887555
0.0093864
0.00983312
0.0102132
0.0105387
0.0108117
0.0110585
0.0112797
0.0115089
0.0117375