/*--------------------------------*- C++ -*----------------------------------*\
| =========                 |                                                 |
| \\      /  F ield         | OpenFOAM: The Open Source CFD Toolbox           |
|  \\    /   O peration     | Version:  2512                                  |
|   \\  /    A nd           | Website:  www.openfoam.com                      |
|    \\/     M anipulation  |                                                 |
\*---------------------------------------------------------------------------*/
FoamFile
{
    version     2.0;
    format      ascii;
    arch        "LSB;label=32;scalar=64";
    class       volVectorField;
    location    "160";
    object      U;
}
// * * * * * * * * * * * * * * * * * * * * * * * * * * * * * * * * * * * * * //

dimensions      [0 1 -1 0 0 0 0];

internalField   nonuniform List<vector> 
13248
(
(-0.0110981 0.00961661 6.6136e-20)
(-0.0195848 0.0174733 0)
(-0.0162482 0.01844 -1.25622e-19)
(-0.00134404 0.0156249 1.18341e-19)
(0.0251875 0.011099 1.10811e-19)
(0.0634609 0.00627614 0)
(0.113477 0.00215997 0)
(0.174955 -0.000561918 2.61896e-19)
(0.247182 -0.00141826 -3.46925e-21)
(0.328896 -0.000123441 -2.24758e-19)
(0.418257 0.00342666 2.0219e-19)
(0.512904 0.00915214 -1.25833e-19)
(0.6101 0.0167927 0)
(0.706928 0.0259252 -2.01532e-19)
(0.800516 0.0359983 3.71927e-19)
(0.888245 0.0463802 -8.72574e-20)
(0.967932 0.0564169 -1.5006e-19)
(1.03795 0.0654728 1.40869e-19)
(1.09729 0.073046 0)
(1.14561 0.0785436 0)
(1.18316 0.0821853 0)
(1.21063 0.0822046 0)
(1.22947 0.0826039 4.23761e-20)
(1.24093 0.0732166 1.5605e-19)
(-0.0113775 0.00914528 -1.99904e-19)
(-0.0162174 0.0157893 1.36693e-19)
(-0.00485689 0.016201 -1.06206e-21)
(0.0217183 0.0133126 -1.80852e-19)
(0.0630516 0.00923763 -1.10687e-19)
(0.118735 0.00551725 -1.04399e-19)
(0.188094 0.00322135 -1.90181e-19)
(0.269919 0.00305553 1.79904e-19)
(0.36229 0.00541614 0)
(0.462533 0.0104087 1.95218e-21)
(0.567325 0.0178604 4.46355e-21)
(0.672945 0.0273467 1.26694e-19)
(0.775604 0.0382419 0)
(0.871795 0.0497919 0)
(0.958599 0.0612 1.36364e-19)
(1.0339 0.0717131 -2.55855e-19)
(1.09651 0.0806957 1.49392e-19)
(1.14615 0.0876789 -1.40252e-19)
(1.1834 0.0923925 -6.1625e-20)
(1.20953 0.0947288 -1.10341e-19)
(1.22622 0.0948464 -4.63919e-20)
(1.2357 0.0926113 -8.68684e-20)
(1.23917 0.0895646 1.27175e-19)
(1.24029 0.0823822 3.69598e-20)
(-0.0103527 0.00775928 0)
(-0.00888257 0.0120788 0)
(0.0132875 0.0116132 6.39808e-20)
(0.0544301 0.00897786 5.89247e-20)
(0.113406 0.00621115 -1.59693e-21)
(0.188968 0.00485757 -1.07737e-19)
(0.279266 0.00592919 0)
(0.381565 0.00995967 -8.9058e-20)
(0.492183 0.0170425 8.28829e-20)
(0.606653 0.0268645 7.22047e-22)
(0.720125 0.0387694 -1.3772e-19)
(0.827874 0.0518614 -1.23251e-19)
(0.925814 0.0651372 4.10251e-21)
(1.01089 0.0776249 -9.6963e-20)
(1.08131 0.0885039 2.35972e-19)
(1.13659 0.097188 0)
(1.17742 0.103364 -1.47705e-19)
(1.20543 0.106977 7.1484e-20)
(1.22287 0.108207 6.15715e-20)
(1.23218 0.107313 0)
(1.23581 0.104861 5.01201e-20)
(1.23579 0.100717 -1.74512e-19)
(1.23344 0.0967993 1.6382e-19)
(1.23136 0.0893879 1.04633e-19)
(-0.00776667 0.00568555 -7.09578e-20)
(0.00319684 0.00694837 -7.33699e-20)
(0.0393584 0.00564985 6.63486e-20)
(0.0981204 0.00395499 0)
(0.177338 0.00368639 0)
(0.2744 0.0062214 -2.12244e-21)
(0.385633 0.0122747 0)
(0.506174 0.0219151 -2.7106e-19)
(0.630224 0.0346367 2.50249e-19)
(0.751629 0.0494771 -3.06552e-19)
(0.864632 0.0651978 6.90368e-20)
(0.964573 0.0805011 0)
(1.04838 0.0942353 1.11268e-19)
(1.11476 0.105547 -2.04689e-19)
(1.16409 0.113959 4.84033e-20)
(1.1981 0.119369 1.2074e-19)
(1.21939 0.121983 -6.7709e-21)
(1.23094 0.122213 -1.34731e-19)
(1.23566 0.120556 0)
(1.236 0.117504 0)
(1.23386 0.113516 -4.71429e-20)
(1.23046 0.1087 4.22124e-20)
(1.22648 0.104198 1.50883e-19)
(1.22288 0.0971176 -1.41638e-19)
(-0.00332979 0.00318056 -7.48719e-20)
(0.0207924 0.00117409 -7.44924e-20)
(0.0743925 -0.000396227 2.09524e-19)
(0.153709 5.25423e-06 -1.26902e-19)
(0.255064 0.00377448 1.1945e-19)
(0.373778 0.0118434 2.16134e-19)
(0.503693 0.0242777 -1.524e-19)
(0.63747 0.0403263 -1.83325e-19)
(0.767422 0.0586289 5.07573e-21)
(0.886563 0.0775093 2.32196e-19)
(0.98957 0.095306 0)
(1.07336 0.110661 6.25183e-20)
(1.13717 0.122702 0)
(1.18231 0.131096 -9.89594e-20)
(1.21146 0.135981 1.38608e-19)
(1.22808 0.137828 8.3511e-22)
(1.23568 0.13727 -3.57981e-20)
(1.23736 0.134954 6.56735e-20)
(1.23553 0.131438 5.70189e-20)
(1.23187 0.127138 -5.08886e-20)
(1.22739 0.122365 4.71325e-20)
(1.22265 0.117168 -4.22027e-20)
(1.21783 0.112248 0)
(1.21357 0.105399 -3.23017e-20)
(0.00328129 0.000526752 7.48612e-20)
(0.0446 -0.00434047 7.85486e-20)
(0.119085 -0.00502728 -7.01883e-20)
(0.221337 -0.000911698 1.30479e-19)
(0.345428 0.00863863 -1.2281e-19)
(0.48388 0.0237021 1.10439e-19)
(0.627664 0.0432776 -5.31127e-20)
(0.767265 0.065506 1.37857e-19)
(0.894153 0.0881385 -8.65994e-20)
(1.00209 0.109034 1.51008e-19)
(1.08782 0.126557 -3.47009e-19)
(1.15107 0.139795 1.27134e-19)
(1.19398 0.148563 -1.08934e-19)
(1.22016 0.15325 1.02321e-19)
(1.23378 0.15459 8.67276e-20)
(1.23878 0.153429 7.50321e-20)
(1.23841 0.150543 -2.09284e-19)
(1.23506 0.146551 1.29334e-19)
(1.23026 0.141882 -5.70216e-20)
(1.22493 0.136812 1.4834e-19)
(1.21952 0.131499 -4.79371e-20)
(1.21424 0.125999 -1.16152e-19)
(1.20916 0.120672 1.07139e-19)
(1.20447 0.113999 3.2292e-20)
(0.0123853 -0.00195148 0)
(0.0751101 -0.00858923 6.42595e-22)
(0.173546 -0.00666839 1.46671e-19)
(0.300035 0.00309218 -1.37584e-19)
(0.445633 0.0200742 -1.23548e-19)
(0.599586 0.0430102 2.29244e-19)
(0.75027 0.0694903 -1.06281e-19)
(0.887152 0.0965217 1.40402e-19)
(1.00261 0.121292 -3.58531e-21)
(1.09288 0.141747 -7.89922e-20)
(1.15797 0.15685 1.69761e-19)
(1.20073 0.166533 -2.49978e-19)
(1.22563 0.171432 0)
(1.23753 0.17255 -4.82212e-20)
(1.24084 0.170952 -1.27217e-19)
(1.23901 0.167561 4.0242e-20)
(1.23445 0.163071 1.73767e-21)
(1.22868 0.157948 -8.5516e-20)
(1.22256 0.152475 5.9964e-21)
(1.21651 0.146813 9.8647e-20)
(1.21071 0.141047 -4.35605e-20)
(1.20519 0.13523 -1.65132e-20)
(1.1999 0.129488 5.10122e-20)
(1.19492 0.122945 0)
(0.0242302 -0.00387062 0)
(0.112449 -0.0104862 3.98197e-20)
(0.237091 -0.00378438 -1.91723e-19)
(0.387581 0.013602 6.94976e-20)
(0.551389 0.0392085 -6.54085e-20)
(0.714629 0.0699847 -5.95415e-20)
(0.864235 0.102046 -1.04599e-19)
(0.990516 0.131636 5.25768e-20)
(1.08861 0.156022 4.52882e-20)
(1.15839 0.173873 0)
(1.20328 0.185158 1.0106e-19)
(1.22857 0.190746 -1.49568e-19)
(1.23989 0.191931 1.1099e-19)
(1.2422 0.190031 4.82463e-20)
(1.2393 0.186156 -3.90689e-20)
(1.23374 0.181116 -3.20363e-20)
(1.2271 0.175438 -2.96571e-20)
(1.22024 0.169436 8.99097e-20)
(1.21356 0.163284 0)
(1.20722 0.157074 4.44195e-20)
(1.20126 0.150854 3.6974e-20)
(1.19563 0.14466 -9.22754e-20)
(1.19026 0.138491 -6.27223e-20)
(1.18512 0.131995 5.79099e-20)
(0.0389218 -0.00478621 -4.32077e-20)
(0.156245 -0.00891238 -1.67924e-21)
(0.308144 0.00499405 3.9027e-20)
(0.480612 0.0317144 1.08841e-19)
(0.657493 0.0663624 3.14324e-20)
(0.822766 0.103925 -6.08898e-20)
(0.963814 0.139398 5.55008e-20)
(1.07377 0.16898 -4.83413e-20)
(1.15178 0.190741 8.62077e-20)
(1.20152 0.20453 3.62592e-20)
(1.22907 0.211409 -1.03152e-19)
(1.24099 0.212997 3.00859e-20)
(1.24297 0.210934 5.08137e-20)
(1.23931 0.206583 -2.5099e-20)
(1.23289 0.200921 0)
(1.22542 0.194575 3.65343e-20)
(1.21779 0.187911 6.11715e-20)
(1.21045 0.181125 9.99881e-21)
(1.20354 0.17432 -5.06329e-20)
(1.1971 0.167547 2.09294e-20)
(1.19109 0.160838 0)
(1.18542 0.154204 -1.62347e-20)
(1.18002 0.147604 -1.53699e-20)
(1.17479 0.141058 0)
(0.056359 -0.00421587 0)
(0.205533 -0.00280388 2.26577e-20)
(0.384267 0.0207306 4.18271e-20)
(0.574984 0.057916 -1.11068e-19)
(0.758637 0.101084 3.59347e-20)
(0.918867 0.14351 0)
(1.04563 0.179832 5.33642e-20)
(1.13634 0.207041 -7.44432e-20)
(1.1944 0.224564 -4.3065e-20)
(1.22662 0.23356 1.93488e-20)
(1.24058 0.236007 -3.05114e-20)
(1.24302 0.233963 7.43103e-20)
(1.23898 0.22914 3.66344e-20)
(1.23182 0.22276 -2.57643e-20)
(1.22352 0.215602 -2.69864e-21)
(1.21511 0.208111 -6.84067e-20)
(1.20706 0.200522 3.10189e-20)
(1.19954 0.192954 -8.20502e-22)
(1.19259 0.185466 0)
(1.18616 0.17809 -2.09514e-20)
(1.18018 0.170843 0)
(1.17456 0.16371 4.65942e-20)
(1.1692 0.156681 -5.51583e-20)
(1.16396 0.149962 2.50496e-20)
(0.0761914 -0.00167931 -1.18518e-20)
(0.258754 0.00874244 -5.70223e-20)
(0.462338 0.0440613 6.48769e-20)
(0.666268 0.0920475 3.79572e-20)
(0.850159 0.142314 -1.81447e-20)
(0.99951 0.187155 3.02592e-20)
(1.10859 0.221824 -1.47257e-20)
(1.17963 0.244816 2.42864e-20)
(1.21979 0.257154 0)
(1.23785 0.261172 5.42378e-20)
(1.24185 0.259454 -2.46821e-21)
(1.23795 0.254202 -4.33396e-20)
(1.23025 0.247002 1.83546e-20)
(1.22116 0.238859 -2.0452e-20)
(1.21193 0.230343 -7.55855e-21)
(1.20312 0.221752 8.97604e-21)
(1.19494 0.213231 -6.76471e-21)
(1.18743 0.204846 -3.64576e-20)
(1.18055 0.196634 2.22879e-20)
(1.17423 0.188613 4.4779e-21)
(1.16837 0.180782 3.90677e-21)
(1.16286 0.173117 3.40995e-21)
(1.15759 0.165668 0)
(1.15242 0.158639 0)
(0.0978775 0.00326533 1.186e-20)
(0.313953 0.026381 -1.18375e-20)
(0.538998 0.0751153 -2.16122e-20)
(0.750418 0.133353 0)
(0.928618 0.188614 -9.005e-21)
(1.06302 0.233299 -8.08768e-21)
(1.15319 0.264206 -1.37541e-20)
(1.2059 0.281754 0)
(1.23106 0.288509 0)
(1.23834 0.287687 0)
(1.23542 0.282165 0)
(1.22752 0.274062 0)
(1.21774 0.264738 -1.14745e-20)
(1.20768 0.25496 5.20874e-21)
(1.19809 0.245124 8.95011e-21)
(1.18922 0.235416 4.17427e-21)
(1.18112 0.225917 1.01654e-20)
(1.17376 0.216665 0)
(1.16708 0.207679 -2.36646e-21)
(1.16098 0.198966 -2.26327e-21)
(1.15535 0.190509 -3.913e-21)
(1.15007 0.182292 -3.41541e-21)
(1.14502 0.174427 0)
(1.14004 0.166954 2.36905e-21)
(-0.000180654 -0.0425163 9.00118e-21)
(-0.00471766 -0.0947912 -9.34836e-21)
(-0.0153881 -0.124184 -1.7697e-20)
(-0.0294578 -0.137191 0)
(-0.0452803 -0.1391 -2.38122e-20)
(-0.0619716 -0.133964 7.56959e-21)
(-0.0789338 -0.124589 -1.40323e-20)
(-0.0957624 -0.112662 0)
(-0.112194 -0.0989712 0)
(-0.128048 -0.0836869 0)
(-0.143181 -0.0666143 0)
(-0.15746 -0.0474019 0)
(-0.170741 -0.02568 3.46694e-22)
(-0.182829 -0.00113556 -9.51303e-21)
(-0.193592 0.0264398 1.71799e-20)
(-0.202885 0.0570495 2.44238e-20)
(-0.210464 0.0906218 7.09776e-21)
(-0.2161 0.126889 0)
(-0.219573 0.165398 6.75814e-21)
(-0.220681 0.205506 -1.8251e-20)
(-0.219238 0.246392 -1.09728e-20)
(-0.21507 0.287096 -1.00886e-20)
(-0.208166 0.326628 0)
(-0.199158 0.364013 0)
(0.00177925 -0.0371592 -2.67273e-20)
(-0.000962489 -0.0822304 4.63363e-20)
(-0.011435 -0.106984 -1.69862e-20)
(-0.0260678 -0.117127 -3.28251e-20)
(-0.0427448 -0.117401 4.66679e-20)
(-0.0603366 -0.111465 -2.91729e-20)
(-0.0781173 -0.101849 4.14692e-20)
(-0.0956268 -0.0900656 2.53321e-20)
(-0.112587 -0.0768134 0)
(-0.128817 -0.0622277 -2.34072e-20)
(-0.144169 -0.046114 5.94818e-23)
(-0.158492 -0.0281381 2.07763e-20)
(-0.171611 -0.00795969 2.80213e-20)
(-0.183332 0.0146855 3.51457e-20)
(-0.193442 0.0399234 -1.74203e-20)
(-0.201692 0.0677953 -4.67859e-20)
(-0.207791 0.0981787 1.32845e-20)
(-0.211433 0.13079 -5.15217e-20)
(-0.212301 0.165185 0)
(-0.210098 0.200771 1.18905e-20)
(-0.204541 0.23682 1.09574e-20)
(-0.195286 0.272516 1.0074e-20)
(-0.182067 0.307069 0)
(-0.166036 0.339966 0)
(0.00309257 -0.0311591 0)
(0.00162394 -0.068566 8.85785e-20)
(-0.00845307 -0.0887405 -3.35223e-20)
(-0.0230378 -0.0963548 3.21813e-20)
(-0.0396916 -0.0954317 -8.91266e-20)
(-0.057097 -0.0891393 0)
(-0.0744208 -0.0796837 -5.27555e-20)
(-0.0911504 -0.0683938 2.43123e-20)
(-0.106988 -0.0558943 -4.55225e-20)
(-0.121743 -0.0423123 2.02214e-20)
(-0.135262 -0.0274809 1.20575e-19)
(-0.147381 -0.0111088 -5.65284e-20)
(-0.157913 0.00709713 -8.83232e-20)
(-0.166634 0.0273551 -3.0798e-20)
(-0.173286 0.0497787 9.27336e-22)
(-0.177576 0.0743582 1.11904e-19)
(-0.179178 0.100943 -5.20711e-20)
(-0.177744 0.129241 2.36274e-21)
(-0.172916 0.158821 0)
(-0.164352 0.189135 -3.78748e-20)
(-0.151758 0.219546 0)
(-0.134785 0.249407 -3.45497e-20)
(-0.112735 0.278242 1.23437e-19)
(-0.0860345 0.306059 -3.175e-22)
(0.00370689 -0.0249689 0)
(0.00289496 -0.054718 -9.3362e-22)
(-0.00672709 -0.0705814 3.21999e-20)
(-0.0208122 -0.0760876 -3.02604e-20)
(-0.0367453 -0.0744513 2.94696e-20)
(-0.0530831 -0.0682872 1.6229e-19)
(-0.0689117 -0.0594462 -5.10605e-20)
(-0.0836724 -0.0490645 -4.6932e-20)
(-0.0970442 -0.037695 8.92569e-20)
(-0.108828 -0.0254693 -1.25096e-19)
(-0.118867 -0.0122639 3.8039e-20)
(-0.126995 0.00215615 3.49516e-20)
(-0.13302 0.0180322 0)
(-0.136711 0.035545 3.1617e-20)
(-0.137801 0.0547764 0)
(-0.135992 0.0756909 4.9756e-20)
(-0.130963 0.0981272 -9.30554e-20)
(-0.122376 0.121796 2.5019e-20)
(-0.109885 0.146287 7.9742e-20)
(-0.0931702 0.17109 3.78324e-20)
(-0.0719636 0.195617 0)
(-0.0459523 0.219333 -9.12363e-20)
(-0.0141979 0.24203 2.93576e-20)
(0.0234497 0.2642 0)
(0.00362473 -0.0189218 0)
(0.00279708 -0.0413675 -1.01316e-19)
(-0.0064561 -0.0533457 -3.16779e-20)
(-0.0197761 -0.0572339 -5.98661e-20)
(-0.0345051 -0.0554093 5.63735e-20)
(-0.0491426 -0.049906 -5.35827e-20)
(-0.0627284 -0.0421991 9.84974e-20)
(-0.0746717 -0.033218 4.61029e-20)
(-0.084633 -0.0234353 -1.30097e-19)
(-0.0924073 -0.0129844 7.91875e-20)
(-0.0978406 -0.00178664 -1.11375e-19)
(-0.10078 0.0103354 2.35576e-19)
(-0.101047 0.0235699 -1.26762e-19)
(-0.0984327 0.038057 5.60982e-20)
(-0.0926958 0.0538531 1.54844e-19)
(-0.0835713 0.0709123 -5.26312e-20)
(-0.0707818 0.0890799 -4.50643e-20)
(-0.0540476 0.108088 -4.22761e-20)
(-0.0330789 0.127566 0)
(-0.00762068 0.147043 -6.45634e-20)
(0.0225186 0.16597 -5.75018e-20)
(0.05748 0.1838 8.43965e-20)
(0.0979401 0.200289 1.0282e-19)
(0.147004 0.215993 -9.47968e-20)
(0.00287833 -0.0132159 0)
(0.00135269 -0.0289333 -1.31344e-19)
(-0.00771709 -0.0375533 5.34236e-22)
(-0.0201442 -0.0403484 1.17351e-19)
(-0.0333479 -0.0388709 0)
(-0.0458441 -0.0345729 0)
(-0.0566696 -0.0285451 0)
(-0.0652244 -0.0214961 -4.48096e-20)
(-0.0711612 -0.0138024 1.17843e-21)
(-0.0742753 -0.00558441 7.77567e-20)
(-0.0744239 0.0032037 -1.06901e-19)
(-0.0714765 0.0126898 1.17551e-21)
(-0.0652886 0.0230148 0)
(-0.0556927 0.0342842 -5.6072e-20)
(-0.0424998 0.0465375 4.67048e-20)
(-0.0255039 0.0597303 -1.35985e-19)
(-0.00449492 0.0737259 1.62475e-19)
(0.0207312 0.088293 3.17467e-20)
(0.0503699 0.103112 -4.65043e-21)
(0.0845939 0.117765 -1.23794e-19)
(0.123533 0.131773 -5.4093e-20)
(0.167404 0.144571 1.77427e-19)
(0.215165 0.15582 -1.16812e-19)
(0.276681 0.164972 0)
(0.00151667 -0.00794556 6.22619e-20)
(-0.00133321 -0.0176247 6.53816e-20)
(-0.0104002 -0.0234499 -6.10856e-20)
(-0.0218197 -0.0256539 -1.15341e-19)
(-0.033196 -0.0250025 1.08609e-19)
(-0.0431339 -0.0223844 -1.00975e-19)
(-0.050713 -0.0185095 1.41972e-19)
(-0.0553495 -0.0138562 -4.44276e-20)
(-0.0566993 -0.00868652 8.20278e-20)
(-0.0545604 -0.00308561 0)
(-0.0487994 0.00298161 6.63294e-20)
(-0.0393059 0.00961304 -1.26369e-19)
(-0.0259676 0.0169184 1.13673e-19)
(-0.00865922 0.0249824 -1.06762e-19)
(0.0127565 0.0338386 0)
(0.0384231 0.0434536 8.64715e-20)
(0.0684845 0.0537165 1.5107e-19)
(0.103074 0.0644377 -1.43336e-19)
(0.142311 0.0753472 -6.25409e-20)
(0.186302 0.0860987 -5.70254e-20)
(0.234928 0.0962559 1.60921e-19)
(0.289411 0.105364 4.68834e-20)
(0.344094 0.113078 -4.44581e-20)
(0.421969 0.117089 4.16707e-20)
(-0.000386329 -0.00316067 -6.22704e-20)
(-0.00503986 -0.00754584 1.93159e-19)
(-0.0141357 -0.0111168 -6.03868e-20)
(-0.0242701 -0.0131417 1.14168e-19)
(-0.0333254 -0.0136556 -1.07504e-19)
(-0.0400558 -0.0130175 1.9551e-22)
(-0.0436188 -0.0115698 4.6845e-20)
(-0.0434619 -0.00955608 1.7071e-19)
(-0.0392418 -0.00710752 -3.0028e-21)
(-0.030747 -0.00424805 -7.56765e-20)
(-0.0178341 -0.000924887 0)
(-0.000391147 0.00295631 -5.91535e-20)
(0.0216817 0.00749809 1.14283e-19)
(0.0484815 0.0127823 1.00221e-19)
(0.0800998 0.018848 -4.8324e-20)
(0.116616 0.0256775 -1.01882e-21)
(0.158088 0.0331862 -3.8256e-20)
(0.204541 0.0412177 6.75e-20)
(0.255951 0.0495375 6.25298e-20)
(0.312373 0.0578774 -5.68151e-20)
(0.372827 0.0657108 5.11376e-20)
(0.440978 0.0730158 -4.71874e-20)
(0.502465 0.0789935 0)
(0.600566 0.0812948 -4.16342e-20)
(-0.0027062 0.00107011 6.19275e-20)
(-0.00938489 0.0011852 -6.43018e-20)
(-0.0182437 -0.000613682 6.06819e-20)
(-0.0264723 -0.00272978 0)
(-0.032304 -0.00454143 0)
(-0.0346781 -0.00592181 9.87459e-20)
(-0.0328416 -0.00686699 -9.32207e-20)
(-0.026272 -0.00738413 8.3972e-20)
(-0.0146097 -0.00746524 -3.96025e-19)
(0.00238751 -0.00704909 1.37523e-21)
(0.0248856 -0.00603599 6.66141e-20)
(0.0530012 -0.00430692 0)
(0.0868056 -0.00174674 -1.0889e-19)
(0.12632 0.00173278 2.00877e-19)
(0.171507 0.00617562 -1.38389e-19)
(0.222262 0.0115671 -2.02415e-19)
(0.278398 0.017824 5.59553e-21)
(0.33964 0.02479 1.3631e-19)
(0.405554 0.0322104 0)
(0.476025 0.0399137 0)
(0.548601 0.0470671 -5.11326e-20)
(0.629621 0.0544459 4.71823e-20)
(0.695886 0.0597895 -1.76339e-19)
(0.807755 0.0638125 1.65331e-19)
(-0.00524233 0.00462195 0)
(-0.013798 0.00835469 0)
(-0.0217445 0.00790088 -1.82078e-19)
(-0.0269795 0.00557386 5.77767e-20)
(-0.0281333 0.00255627 8.08178e-22)
(-0.0243436 -0.000591321 1.00298e-19)
(-0.0149396 -0.00354339 0)
(0.000582747 -0.00610284 -8.58705e-20)
(0.0225759 -0.00810005 7.91842e-20)
(0.0512952 -0.00936736 -1.43437e-19)
(0.0868737 -0.00974308 1.57195e-21)
(0.129322 -0.00907614 1.19421e-19)
(0.178522 -0.00724177 -3.7123e-21)
(0.234205 -0.00415989 9.47068e-20)
(0.29595 0.000186821 -1.39144e-19)
(0.36317 0.00573895 0)
(0.435125 0.0123526 1.45844e-19)
(0.510944 0.0198024 -2.04043e-19)
(0.589535 0.0277411 6.1596e-20)
(0.670248 0.0359758 0)
(0.74989 0.0434788 5.18823e-20)
(0.834283 0.0513891 1.90743e-19)
(0.900487 0.0562652 -1.78999e-19)
(1.00551 0.0622063 -2.11562e-19)
(-0.00771265 0.00732526 1.88448e-19)
(-0.01754 0.0136532 -2.59928e-19)
(-0.0234459 0.0141332 3.11349e-22)
(-0.0241089 0.0115899 5.78957e-20)
(-0.0185732 0.00764768 -1.07971e-19)
(-0.0061806 0.00323579 -9.99255e-20)
(0.0136204 -0.00106394 1.8456e-19)
(0.0412817 -0.0048351 -3.52283e-21)
(0.0770932 -0.00774701 -1.60306e-19)
(0.121147 -0.00955022 2.89901e-19)
(0.173325 -0.0100332 -4.02763e-21)
(0.233256 -0.00903368 -1.23601e-19)
(0.300298 -0.0064546 0)
(0.373535 -0.00228187 0)
(0.451801 0.00340129 -4.54286e-20)
(0.53372 0.0104067 -8.30053e-20)
(0.617767 0.0184446 -1.47392e-19)
(0.702336 0.0271272 1.38347e-19)
(0.785771 0.036008 -6.1616e-20)
(0.866675 0.0446036 1.12408e-19)
(0.942754 0.0522705 -5.3733e-20)
(1.01597 0.0591547 9.52835e-20)
(1.07394 0.0630915 -2.25536e-19)
(1.15007 0.0677453 4.18863e-20)
(-0.00977874 0.00901762 6.34694e-20)
(-0.0197636 0.0167597 0)
(-0.022061 0.0177347 1.23753e-19)
(-0.0161506 0.0150333 -1.16584e-19)
(-0.00149966 0.0105823 1.08065e-19)
(0.0223242 0.00557827 0)
(0.0556835 0.000843555 0)
(0.098812 -0.00302059 -8.54386e-20)
(0.151696 -0.00559292 3.40129e-21)
(0.213979 -0.00656233 7.54712e-20)
(0.28491 -0.0057175 -6.56279e-20)
(0.363323 -0.00295591 1.246e-19)
(0.447649 0.00170325 0)
(0.535994 0.00810972 1.9963e-19)
(0.626238 0.0159822 -3.68508e-19)
(0.716165 0.0249198 2.53046e-19)
(0.803595 0.0344311 1.49122e-19)
(0.886503 0.0439415 -1.39978e-19)
(0.963143 0.0529371 0)
(1.03206 0.0606579 0)
(1.09231 0.0671054 0)
(1.14356 0.0708193 0)
(1.18384 0.0732382 4.48506e-20)
(1.22356 0.0725111 -1.67044e-19)
(-0.187226 0.403828 -6.10085e-21)
(-0.169536 0.444327 6.12323e-21)
(-0.144501 0.474402 -1.73844e-22)
(-0.112176 0.490325 0)
(-0.071344 0.488335 -5.34804e-21)
(-0.0214708 0.465073 1.0516e-20)
(0.0372154 0.418249 1.75648e-22)
(0.103035 0.34693 -5.19505e-21)
(0.17348 0.25303 0)
(0.245699 0.139612 0)
(0.316672 0.0108955 -3.40024e-22)
(0.385197 -0.128029 -3.22551e-22)
(0.450856 -0.269103 -4.58386e-21)
(0.511563 -0.399105 4.16934e-21)
(0.563622 -0.502086 0)
(0.603063 -0.56719 0)
(0.627665 -0.594324 1.86985e-21)
(0.638415 -0.591611 -2.90954e-22)
(0.63798 -0.57158 -1.39766e-21)
(0.625173 -0.551332 -7.53819e-23)
(0.595924 -0.544659 0)
(0.553937 -0.544099 0)
(0.517215 -0.514665 0)
(0.508261 -0.41745 0)
(0.535136 -0.245389 0)
(0.58791 -0.0322804 0)
(0.650849 0.171167 5.59525e-22)
(0.710374 0.326006 -8.86614e-22)
(0.756672 0.42026 0)
(0.78687 0.463074 0)
(0.804381 0.470153 -3.24508e-22)
(0.808777 0.468602 3.15389e-22)
(0.792554 0.480628 1.45995e-22)
(0.754815 0.500817 0)
(0.714339 0.478652 0)
(0.694035 0.370083 4.47749e-22)
(0.704525 0.179413 -4.35229e-22)
(0.73649 -0.0367117 0)
(0.775731 -0.212177 3.49428e-22)
(0.813222 -0.325784 -4.96282e-22)
(0.839917 -0.373778 1.20068e-22)
(0.84549 -0.405138 0)
(0.818427 -0.418013 -1.66796e-22)
(0.769142 -0.419601 1.62195e-22)
(0.730795 -0.345051 0)
(0.721599 -0.197722 0)
(0.748641 -0.0217814 -8.67635e-23)
(0.791488 0.150979 2.35248e-22)
(0.823623 0.240614 0)
(0.822113 0.347251 0)
(0.794008 0.360312 -4.94966e-23)
(0.763481 0.356701 -2.86241e-24)
(0.770129 0.241691 -3.0552e-25)
(0.792457 0.0593063 4.95181e-23)
(0.816352 -0.0464558 0)
(0.816181 -0.271636 0)
(0.804985 -0.279807 0)
(0.794881 -0.346191 0)
(0.798952 -0.259221 0)
(0.785343 0.0291347 0)
(-0.147871 0.375883 -5.34647e-22)
(-0.119905 0.410162 -2.23266e-20)
(-0.0832872 0.433689 3.7533e-24)
(-0.0384251 0.442988 2.09506e-20)
(0.0149306 0.434669 3.34914e-22)
(0.0763109 0.405943 0)
(0.144418 0.355221 -2.24616e-20)
(0.21708 0.282407 4.54449e-20)
(0.291548 0.189297 -2.29855e-20)
(0.364975 0.078532 2.32498e-20)
(0.435256 -0.0467687 -2.22561e-20)
(0.501666 -0.182112 2.04569e-20)
(0.563412 -0.319455 -1.99394e-20)
(0.617461 -0.444013 -5.40517e-22)
(0.659022 -0.5384 -1.27054e-20)
(0.684608 -0.592025 1.23474e-20)
(0.693845 -0.607004 -7.782e-21)
(0.689271 -0.594129 7.35102e-21)
(0.675481 -0.565685 -5.26847e-21)
(0.653964 -0.535951 9.748e-21)
(0.620061 -0.519478 -4.50516e-21)
(0.572075 -0.515471 -2.59097e-22)
(0.522477 -0.495375 -5.17837e-21)
(0.494646 -0.41813 1.08109e-20)
(0.503967 -0.26667 -5.61551e-21)
(0.546212 -0.0668346 3.52057e-22)
(0.606218 0.132769 5.51815e-21)
(0.668492 0.292473 -6.00464e-22)
(0.721449 0.396005 -7.83692e-21)
(0.760874 0.447995 6.34129e-21)
(0.788072 0.463136 -2.81607e-21)
(0.799614 0.470546 2.94483e-22)
(0.788348 0.491893 -1.46302e-22)
(0.755985 0.517066 3.29103e-22)
(0.723806 0.491991 0)
(0.71239 0.374273 0)
(0.729608 0.173654 -2.02309e-21)
(0.76461 -0.0490788 1.45991e-21)
(0.801886 -0.226093 1.07116e-21)
(0.833664 -0.337133 -1.48779e-22)
(0.853089 -0.379121 -1.2411e-21)
(0.854804 -0.40135 1.91376e-22)
(0.824699 -0.40566 0)
(0.773063 -0.405324 0)
(0.729476 -0.337284 0)
(0.716862 -0.20066 0)
(0.742939 -0.0327622 3.00887e-22)
(0.785612 0.139554 -1.51011e-22)
(0.819087 0.235741 0)
(0.816489 0.350711 0)
(0.791027 0.3673 0)
(0.760454 0.359843 -1.12115e-22)
(0.770095 0.238756 -1.6924e-23)
(0.795604 0.0537791 -9.5262e-23)
(0.821778 -0.0489698 0)
(0.823981 -0.270018 0)
(0.809517 -0.27811 4.168e-23)
(0.799768 -0.34529 8.91625e-23)
(0.80045 -0.258197 0)
(0.78497 0.0306051 0)
(-0.0602952 0.336899 7.20926e-22)
(-0.0260121 0.365293 -4.13897e-20)
(0.0179095 0.383309 4.30573e-20)
(0.0701993 0.387585 -4.02718e-20)
(0.130174 0.375177 -3.37173e-22)
(0.19673 0.343847 0)
(0.268135 0.292462 -4.78587e-20)
(0.34209 0.221222 4.6922e-20)
(0.416031 0.131597 3.71498e-22)
(0.487575 0.0256755 7.65189e-22)
(0.555258 -0.0940986 7.49315e-22)
(0.618586 -0.224261 6.90815e-22)
(0.676021 -0.356262 -3.8821e-20)
(0.722942 -0.47397 3.82691e-20)
(0.753373 -0.55938 0)
(0.764601 -0.602821 7.23918e-22)
(0.758683 -0.608171 -1.59558e-20)
(0.740027 -0.588173 1.57186e-20)
(0.714114 -0.554998 0)
(0.684423 -0.519291 0)
(0.647138 -0.494028 -8.28295e-21)
(0.596359 -0.484417 1.63715e-20)
(0.537977 -0.470707 -1.6546e-20)
(0.493586 -0.413064 -9.33365e-22)
(0.4846 -0.285065 1.9413e-20)
(0.513832 -0.102082 -2.05886e-20)
(0.568309 0.0911184 1.86006e-20)
(0.631185 0.254224 -1.66563e-21)
(0.689379 0.366431 -7.57877e-21)
(0.737223 0.427909 0)
(0.773504 0.452206 0)
(0.792006 0.469561 1.82461e-21)
(0.786288 0.500469 -2.3379e-21)
(0.760269 0.530665 9.60346e-24)
(0.736673 0.503545 3.64166e-21)
(0.733897 0.378502 -3.53892e-21)
(0.757495 0.169927 0)
(0.795225 -0.0581285 5.08543e-22)
(0.830389 -0.236189 3.61602e-21)
(0.856281 -0.345083 -6.20208e-21)
(0.868133 -0.382276 2.34341e-21)
(0.865849 -0.396569 1.89843e-22)
(0.833221 -0.392848 -1.47872e-21)
(0.780023 -0.39067 1.14739e-21)
(0.731742 -0.329576 2.64094e-22)
(0.715661 -0.204225 2.73476e-22)
(0.740208 -0.0448142 -3.0165e-22)
(0.781995 0.127323 0)
(0.81647 0.230227 0)
(0.812743 0.353658 -8.21708e-22)
(0.790058 0.374094 4.05996e-22)
(0.759433 0.362929 -4.50104e-22)
(0.77192 0.235905 7.13035e-22)
(0.800378 0.0480759 8.93237e-22)
(0.828792 -0.0514844 -1.83606e-22)
(0.833071 -0.268003 3.18771e-22)
(0.815036 -0.276081 -2.19079e-22)
(0.805425 -0.344027 8.34682e-23)
(0.802902 -0.256905 0)
(0.785613 0.0321459 0)
(0.0546275 0.290034 -7.93518e-20)
(0.0935076 0.313632 -2.39265e-21)
(0.140725 0.327473 7.76215e-20)
(0.195681 0.328461 -6.54564e-22)
(0.257383 0.314152 0)
(0.324414 0.282711 0)
(0.394908 0.233161 -9.73956e-20)
(0.466731 0.165642 -6.28511e-21)
(0.537625 0.0812516 1.47862e-19)
(0.60599 -0.0185039 2.24562e-22)
(0.670963 -0.131998 -4.93218e-20)
(0.731791 -0.256419 -4.32963e-20)
(0.785578 -0.382348 4.34655e-20)
(0.825541 -0.492321 0)
(0.844755 -0.568327 -2.70761e-20)
(0.841742 -0.602399 2.48458e-20)
(0.821239 -0.600103 0)
(0.789848 -0.575194 0)
(0.753365 -0.539926 9.86422e-21)
(0.716118 -0.501797 -1.41747e-21)
(0.676181 -0.469846 -7.69242e-21)
(0.625572 -0.452595 -7.10228e-21)
(0.563184 -0.440696 7.06181e-21)
(0.505669 -0.400373 -8.051e-21)
(0.478245 -0.298062 -5.27584e-22)
(0.491947 -0.13593 8.14604e-21)
(0.538 0.0477023 1.01585e-21)
(0.599088 0.212191 8.45496e-23)
(0.660874 0.332023 0)
(0.716002 0.403041 4.85768e-21)
(0.76051 0.437243 -4.98708e-21)
(0.785728 0.465055 2.87475e-22)
(0.786053 0.505453 0)
(0.767029 0.540888 -3.42783e-22)
(0.752103 0.513143 7.64163e-21)
(0.757807 0.383127 -1.5242e-20)
(0.78737 0.168528 -1.72664e-21)
(0.827567 -0.0638249 6.11349e-22)
(0.86071 -0.24273 7.11107e-21)
(0.880828 -0.349911 6.99632e-22)
(0.884948 -0.383489 -3.65939e-21)
(0.878392 -0.391154 3.17232e-21)
(0.843616 -0.379919 1.4549e-23)
(0.78964 -0.375645 1.01334e-21)
(0.737369 -0.321606 -1.25024e-21)
(0.717769 -0.208052 -1.74449e-21)
(0.740243 -0.0576566 5.324e-22)
(0.780482 0.114388 8.58512e-22)
(0.815707 0.224016 -1.64578e-21)
(0.810902 0.355996 1.19414e-21)
(0.791187 0.380652 -4.75096e-22)
(0.760621 0.36604 3.25807e-22)
(0.775769 0.233278 4.71528e-22)
(0.806792 0.0421682 -1.43402e-21)
(0.83732 -0.0540113 3.23193e-23)
(0.843388 -0.265586 -3.63221e-22)
(0.821513 -0.273679 0)
(0.811816 -0.342402 -8.63145e-23)
(0.806227 -0.255362 3.06825e-23)
(0.787209 0.0337502 0)
(0.18123 0.238973 7.53524e-20)
(0.222145 0.259249 -1.51213e-19)
(0.269443 0.270104 7.47733e-20)
(0.323739 0.269218 8.39235e-20)
(0.384036 0.25476 -1.70409e-19)
(0.448756 0.225054 -6.1637e-21)
(0.516156 0.178991 9.0697e-20)
(0.584504 0.116398 9.9541e-20)
(0.652117 0.0376148 -9.75148e-20)
(0.71789 -0.0551636 0)
(0.781085 -0.162083 -9.6533e-20)
(0.840169 -0.279836 1.83414e-19)
(0.890216 -0.397864 -8.71059e-20)
(0.922394 -0.49818 0)
(0.929804 -0.564053 0)
(0.913 -0.589953 7.42925e-22)
(0.879294 -0.582795 -3.25742e-20)
(0.83726 -0.555866 3.16481e-20)
(0.792637 -0.520818 0)
(0.74913 -0.48329 1.59507e-20)
(0.706684 -0.44803 -2.79586e-20)
(0.657905 -0.423297 2.42593e-20)
(0.59607 -0.408707 -2.32109e-20)
(0.530291 -0.380686 -1.02603e-21)
(0.485738 -0.303708 2.52709e-20)
(0.481664 -0.166152 -1.30816e-20)
(0.516141 0.00447792 -4.59769e-22)
(0.57284 0.167233 -5.12632e-21)
(0.636283 0.293149 6.27646e-22)
(0.697175 0.373412 4.61462e-21)
(0.74879 0.417879 2.70667e-22)
(0.780384 0.456323 -4.50943e-21)
(0.787123 0.506092 9.56698e-21)
(0.77553 0.547243 -5.72062e-21)
(0.76923 0.520836 0)
(0.783082 0.388349 -1.02464e-20)
(0.81829 0.169661 1.01039e-20)
(0.860909 -0.0660694 -7.4857e-21)
(0.89225 -0.245637 9.36405e-21)
(0.906864 -0.351463 -7.44849e-22)
(0.903281 -0.382599 0)
(0.892229 -0.385107 -3.76986e-22)
(0.855607 -0.367111 8.33444e-22)
(0.801516 -0.360492 0)
(0.746011 -0.313358 2.1547e-21)
(0.722849 -0.211877 -8.33413e-22)
(0.742756 -0.071053 4.42835e-22)
(0.780855 0.100803 3.49089e-22)
(0.816675 0.216998 0)
(0.81094 0.357579 0)
(0.794448 0.386899 -1.33362e-21)
(0.764174 0.369234 2.4526e-21)
(0.78172 0.230963 -1.60661e-21)
(0.814833 0.0361236 5.8024e-22)
(0.847309 -0.056551 9.77588e-22)
(0.854857 -0.262707 3.63561e-22)
(0.828907 -0.270842 -4.56728e-22)
(0.8189 -0.340405 0)
(0.810339 -0.253585 -7.69441e-23)
(0.78969 0.0354125 7.40951e-24)
(0.311489 0.186438 7.2871e-20)
(0.351482 0.204861 -7.2473e-20)
(0.396189 0.213933 6.04412e-22)
(0.44758 0.212355 -6.05819e-22)
(0.504791 0.198954 6.62611e-22)
(0.566076 0.172023 -6.9748e-22)
(0.62991 0.130238 1.40567e-21)
(0.694763 0.0729005 0)
(0.760449 0.000580806 -1.49358e-21)
(0.825148 -0.0857543 1.49989e-21)
(0.887023 -0.186071 1.46698e-21)
(0.94393 -0.295796 -1.44893e-21)
(0.988573 -0.403685 0)
(1.01109 -0.492549 0)
(1.006 -0.548178 9.11587e-22)
(0.976478 -0.56756 0)
(0.931799 -0.558245 -5.66458e-22)
(0.88154 -0.532002 0)
(0.831254 -0.49894 -1.83846e-20)
(0.783279 -0.463794 3.27527e-20)
(0.738326 -0.428241 -2.57862e-20)
(0.691596 -0.39782 1.14815e-20)
(0.633811 -0.377541 9.13994e-21)
(0.565584 -0.35555 -8.87657e-21)
(0.507265 -0.300582 -1.01139e-20)
(0.484336 -0.189937 9.85432e-21)
(0.503803 -0.0370142 0)
(0.552952 0.120379 2.45351e-22)
(0.615912 0.250326 0)
(0.680656 0.339118 0)
(0.738028 0.393879 7.08212e-21)
(0.775565 0.442868 -7.26468e-21)
(0.788868 0.50181 5.30089e-22)
(0.784906 0.549394 6.91248e-22)
(0.787026 0.526417 -8.53784e-22)
(0.808607 0.394273 -9.36746e-21)
(0.849202 0.173834 9.09356e-21)
(0.894348 -0.0646998 -1.01002e-20)
(0.924339 -0.24498 8.65919e-21)
(0.933932 -0.349811 1.51403e-21)
(0.922846 -0.379608 -3.71738e-21)
(0.907095 -0.378502 6.22589e-22)
(0.868864 -0.354614 1.99378e-21)
(0.815159 -0.345345 0)
(0.757191 -0.304738 -7.51452e-22)
(0.73047 -0.21542 1.02381e-21)
(0.747385 -0.0847648 -1.38442e-21)
(0.78284 0.0865772 -3.51311e-22)
(0.819191 0.20903 0)
(0.81277 0.358226 4.42532e-22)
(0.7998 0.392724 -7.54323e-22)
(0.770171 0.37252 2.06526e-23)
(0.789832 0.229066 -6.56929e-22)
(0.824483 0.0302378 1.14147e-21)