/*--------------------------------*- C++ -*----------------------------------*\
| =========                 |                                                 |
| \\      /  F ield         | OpenFOAM: The Open Source CFD Toolbox           |
|  \\    /   O peration     | Version:  2512                                  |
|   \\  /    A nd           | Website:  www.openfoam.com                      |
|    \\/     M anipulation  |                                                 |
\*---------------------------------------------------------------------------*/
FoamFile
{
    version     2.0;
    format      ascii;
    arch        "LSB;label=32;scalar=64";
    class       volVectorField;
    location    "2.25";
    object      U;
}
// * * * * * * * * * * * * * * * * * * * * * * * * * * * * * * * * * * * * * //

dimensions      [0 1 -1 0 0 0 0];

internalField   nonuniform List<vector> 
13248
(
(-0.0303745 0.0318398 1.13924e-19)
(-0.0332366 0.0553481 0)
(0.0217291 0.0505302 -2.08756e-19)
(0.125806 0.0210313 1.96603e-19)
(0.268915 -0.027132 1.87447e-19)
(0.438317 -0.0866261 0)
(0.618323 -0.149837 0)
(0.792128 -0.209742 4.36088e-19)
(0.944992 -0.26085 -1.29447e-20)
(1.06714 -0.299842 -3.60064e-19)
(1.15494 -0.325654 2.98026e-19)
(1.21021 -0.339072 -1.83432e-19)
(1.2383 -0.342058 0)
(1.24601 -0.337058 -2.33809e-19)
(1.24002 -0.32647 4.13809e-19)
(1.22587 -0.312325 -9.52396e-20)
(1.20764 -0.296167 -1.32628e-19)
(1.18806 -0.279079 1.24536e-19)
(1.16875 -0.261768 0)
(1.15056 -0.244683 0)
(1.13388 -0.228009 0)
(1.11853 -0.212189 0)
(1.10545 -0.196315 2.27155e-20)
(1.09037 -0.182556 6.35817e-20)
(-0.023992 0.0231869 -3.47232e-19)
(-0.00897927 0.0328631 2.34871e-19)
(0.068156 0.0194312 -2.64006e-21)
(0.196714 -0.0134827 -3.10902e-19)
(0.363627 -0.0600216 -1.87242e-19)
(0.55234 -0.113211 -1.81954e-19)
(0.7436 -0.166297 -3.25082e-19)
(0.918799 -0.213704 3.09619e-19)
(1.06393 -0.251714 0)
(1.17197 -0.27867 8.67767e-21)
(1.24284 -0.294712 1.89637e-20)
(1.28145 -0.301213 1.86065e-19)
(1.2952 -0.300156 0)
(1.2918 -0.293608 0)
(1.27791 -0.28339 1.47319e-19)
(1.25852 -0.270923 -2.75973e-19)
(1.23699 -0.257224 1.39943e-19)
(1.21537 -0.242969 -1.31404e-19)
(1.19475 -0.22859 -5.27085e-20)
(1.17562 -0.214352 -8.02516e-20)
(1.15816 -0.200379 -2.77161e-20)
(1.14229 -0.186937 -4.74513e-20)
(1.12829 -0.173055 8.0423e-20)
(1.1135 -0.163763 2.09762e-20)
(-0.0154111 0.01489 0)
(0.0219375 0.0118087 0)
(0.125023 -0.00863333 1.11102e-19)
(0.280106 -0.0428864 1.02482e-19)
(0.470041 -0.0854157 -2.52073e-21)
(0.673922 -0.130016 -1.93989e-19)
(0.869577 -0.17138 0)
(1.03835 -0.205827 -1.52272e-19)
(1.16896 -0.231503 1.38564e-19)
(1.25854 -0.248158 1.49187e-21)
(1.31087 -0.256677 -2.09017e-19)
(1.33356 -0.258558 -1.71095e-19)
(1.3352 -0.255454 1.55103e-20)
(1.32351 -0.248868 -1.09026e-19)
(1.30447 -0.240005 2.84341e-19)
(1.28215 -0.229746 0)
(1.2591 -0.218696 -1.45936e-19)
(1.2367 -0.207256 7.12893e-20)
(1.21563 -0.195685 5.26654e-20)
(1.19617 -0.184153 0)
(1.17837 -0.172773 3.65549e-20)
(1.16213 -0.161694 -1.19561e-19)
(1.14752 -0.150666 1.1223e-19)
(1.13279 -0.142793 6.07548e-20)
(-0.00424109 0.00703476 -1.29165e-19)
(0.0599951 -0.00711831 -1.33996e-19)
(0.192255 -0.0322242 1.1822e-19)
(0.374665 -0.0651936 0)
(0.585138 -0.101284 0)
(0.798607 -0.135653 -7.12972e-21)
(0.991545 -0.16491 0)
(1.1474 -0.187359 -4.65409e-19)
(1.25926 -0.202683 4.18951e-19)
(1.32882 -0.211494 -4.97079e-19)
(1.36332 -0.214894 1.04979e-19)
(1.37209 -0.214133 0)
(1.36402 -0.210365 1.46969e-19)
(1.34623 -0.204535 -2.6276e-19)
(1.32374 -0.197346 6.12693e-20)
(1.2997 -0.189291 1.31129e-19)
(1.27589 -0.180704 -1.69262e-20)
(1.25322 -0.171811 -1.43487e-19)
(1.23206 -0.162769 0)
(1.21253 -0.153693 0)
(1.19461 -0.144666 -4.07312e-20)
(1.17821 -0.135818 3.43252e-20)
(1.16331 -0.126871 1.06938e-19)
(1.14862 -0.12089 -1.00478e-19)
(0.00984866 -0.000197813 -1.39475e-19)
(0.105347 -0.0231219 -1.38572e-19)
(0.269038 -0.0499394 3.87248e-19)
(0.477945 -0.0786605 -2.33888e-19)
(0.704671 -0.106029 2.20115e-19)
(0.921045 -0.129165 3.91512e-19)
(1.10434 -0.14681 -2.75162e-19)
(1.24213 -0.158978 -3.13991e-19)
(1.33277 -0.166343 2.02176e-20)
(1.38237 -0.169812 3.78371e-19)
(1.40075 -0.170293 0)
(1.39805 -0.168575 9.10536e-20)
(1.38274 -0.165278 0)
(1.36093 -0.160859 -1.26121e-19)
(1.33656 -0.155638 1.74302e-19)
(1.31186 -0.14984 -6.52474e-22)
(1.28801 -0.143626 -4.07352e-20)
(1.26552 -0.137122 6.77122e-20)
(1.24458 -0.130426 5.86128e-20)
(1.22521 -0.123621 -4.96592e-20)
(1.20735 -0.116784 4.07185e-20)
(1.19094 -0.109977 -3.43142e-20)
(1.17587 -0.10318 0)
(1.16137 -0.0986129 -2.53895e-20)
(0.0270426 -0.00646604 1.39455e-19)
(0.157712 -0.0352091 1.47812e-19)
(0.353821 -0.0603838 -1.30448e-19)
(0.586666 -0.0819314 2.44088e-19)
(0.823975 -0.0988872 -2.29714e-19)
(1.03638 -0.110761 2.01179e-19)
(1.20432 -0.11826 -9.80331e-20)
(1.32096 -0.122535 2.37397e-19)
(1.39008 -0.12459 -1.48143e-19)
(1.42143 -0.125119 2.36997e-19)
(1.42635 -0.124548 -5.32739e-19)
(1.41488 -0.123128 1.91437e-19)
(1.39454 -0.121011 -1.48872e-19)
(1.37027 -0.118297 1.39849e-19)
(1.34496 -0.115068 1.08102e-19)
(1.32013 -0.111399 8.67145e-20)
(1.29649 -0.107364 -2.4313e-19)
(1.27432 -0.103032 1.4684e-19)
(1.25368 -0.09847 -5.86106e-20)
(1.23455 -0.0937408 1.45325e-19)
(1.21687 -0.0889004 -4.69548e-20)
(1.20055 -0.0839905 -1.05017e-19)
(1.18549 -0.0790736 9.52576e-20)
(1.17118 -0.075768 2.5384e-20)
(0.0473282 -0.0113221 0)
(0.216306 -0.042295 2.12067e-21)
(0.444377 -0.0622921 2.7844e-19)
(0.69705 -0.0741309 -2.60635e-19)
(0.938521 -0.0798332 -2.30199e-19)
(1.14068 -0.0813452 4.22588e-19)
(1.2892 -0.080795 -1.9377e-19)
(1.38352 -0.0797401 2.41088e-19)
(1.4323 -0.0789212 -1.17403e-20)
(1.44786 -0.0784753 -1.29501e-19)
(1.44204 -0.0782435 2.56908e-19)
(1.42417 -0.0779925 -3.73393e-19)
(1.40053 -0.0775264 0)
(1.37491 -0.0767229 -6.63578e-20)
(1.34933 -0.0755284 -1.65022e-19)
(1.32473 -0.0739398 5.34945e-20)
(1.30152 -0.0719844 3.59148e-21)
(1.2798 -0.0697044 -9.5124e-20)
(1.25958 -0.0671476 1.18237e-20)
(1.24081 -0.0643618 1.06959e-19)
(1.2234 -0.0613909 -4.28628e-20)
(1.20728 -0.058267 -1.51104e-20)
(1.19235 -0.0551298 5.02754e-20)
(1.17829 -0.0529985 0)
(0.0704996 -0.0142607 0)
(0.27986 -0.0433144 7.59012e-20)
(0.537947 -0.0546796 -3.64719e-19)
(0.805176 -0.0549563 1.31368e-19)
(1.04438 -0.0495191 -1.23639e-19)
(1.23125 -0.0423482 -1.09142e-19)
(1.3581 -0.0362026 -1.84001e-19)
(1.43059 -0.0323279 9.64811e-20)
(1.46126 -0.0307549 7.84515e-20)
(1.46387 -0.0308933 0)
(1.44997 -0.0320163 1.54498e-19)
(1.4277 -0.0335161 -2.22868e-19)
(1.4021 -0.0349812 1.62934e-19)
(1.37589 -0.0361775 6.63897e-20)
(1.35042 -0.0369975 -5.13246e-20)
(1.32623 -0.0374114 -3.8638e-20)
(1.30352 -0.0374305 -3.3211e-20)
(1.28231 -0.0370855 1.08802e-19)
(1.26255 -0.0364138 0)
(1.24419 -0.0354533 4.84802e-20)
(1.22714 -0.0342384 3.69346e-20)
(1.21131 -0.0328068 -9.57355e-20)
(1.19662 -0.0313069 -5.94825e-20)
(1.18282 -0.030282 5.58374e-20)
(0.0961365 -0.0147735 -8.1608e-20)
(0.346655 -0.0373622 -2.94756e-21)
(0.631445 -0.0369833 7.43473e-20)
(0.907336 -0.0247009 2.05093e-19)
(1.13848 -0.00911686 5.61315e-20)
(1.30657 0.00454999 -1.10637e-19)
(1.41118 0.0137862 9.99644e-20)
(1.46347 0.018255 -8.32676e-20)
(1.47876 0.018897 1.43198e-19)
(1.47123 0.0170459 5.64395e-20)
(1.4515 0.0138879 -1.62662e-19)
(1.4264 0.0102644 4.51587e-20)
(1.39976 0.00668428 7.33182e-20)
(1.37348 0.0034125 -3.64164e-20)
(1.34838 0.000563677 0)
(1.32473 -0.00183015 4.79772e-20)
(1.30261 -0.00377774 7.77019e-20)
(1.28196 -0.00530567 1.04342e-20)
(1.26274 -0.00644646 -6.21791e-20)
(1.24487 -0.00723282 2.49012e-20)
(1.22825 -0.00769797 0)
(1.21281 -0.00788848 -1.80117e-20)
(1.19844 -0.00792186 -1.55383e-20)
(1.18496 -0.008008 0)
(0.123606 -0.0124085 0)
(0.414611 -0.0238189 4.27478e-20)
(0.721678 -0.00915465 7.9115e-20)
(1.00029 0.0157826 -2.08048e-19)
(1.21868 0.0398271 6.72744e-20)
(1.36609 0.057567 0)
(1.44922 0.0675507 9.24372e-20)
(1.48373 0.0707627 -1.28196e-19)
(1.48653 0.069201 -7.14398e-20)
(1.4714 0.0648508 3.1053e-20)
(1.44772 0.0592099 -4.68167e-20)
(1.42099 0.0532239 1.14953e-19)
(1.39401 0.0474103 5.34584e-20)
(1.36801 0.0420137 -3.87246e-20)
(1.34345 0.037129 -5.31694e-21)
(1.32044 0.0327758 -9.395e-20)
(1.29896 0.0289394 4.19813e-20)
(1.27894 0.0255912 -4.46009e-22)
(1.26032 0.022699 0)
(1.24299 0.0202302 -2.49258e-20)
(1.22688 0.0181461 0)
(1.2119 0.0163965 5.20336e-20)
(1.19795 0.0149282 -6.07649e-20)
(1.18484 0.0137085 2.71264e-20)
(0.152079 -0.00681582 -2.18561e-20)
(0.481409 -0.00242489 -1.07141e-19)
(0.805559 0.0283292 1.21276e-19)
(1.08138 0.065184 6.9942e-20)
(1.28363 0.0955547 -3.39754e-20)
(1.40985 0.114965 5.33377e-20)
(1.47322 0.123679 -2.64058e-20)
(1.49269 0.124215 4.12997e-20)
(1.48573 0.11957 0)
(1.4652 0.112221 8.70394e-20)
(1.43906 0.103826 -5.03577e-21)
(1.41159 0.0953265 -6.74259e-20)
(1.38475 0.0871919 2.76858e-20)
(1.3593 0.0796198 -2.99285e-20)
(1.33543 0.072674 -1.04541e-20)
(1.31316 0.0663574 1.28147e-20)
(1.29242 0.0606457 -9.46316e-21)
(1.27311 0.0555055 -4.82173e-20)
(1.25516 0.0509013 2.95386e-20)
(1.23847 0.0467958 5.81261e-21)
(1.22295 0.0431405 4.93501e-21)
(1.20852 0.0398923 4.18614e-21)
(1.19505 0.0370729 0)
(1.18237 0.0346581 0)
(0.180661 0.00223253 2.18714e-20)
(0.544795 0.0267164 -2.20232e-20)
(0.88043 0.0745416 -4.02363e-20)
(1.14865 0.121906 0)
(1.33259 0.156283 -1.65936e-20)
(1.43815 0.175174 -1.44057e-20)
(1.484 0.180996 -2.38058e-20)
(1.49117 0.177829 0)
(1.47691 0.169522 0)
(1.45278 0.158866 0)
(1.42535 0.147544 0)
(1.39783 0.136428 0)
(1.37153 0.125905 -1.75067e-20)
(1.34685 0.116116 7.94756e-21)
(1.32385 0.107089 1.3095e-20)
(1.30245 0.0988066 5.94756e-21)
(1.28256 0.0912331 1.43546e-20)
(1.26407 0.0843266 0)
(1.2469 0.0780457 -3.18299e-21)
(1.23095 0.0723441 -2.83333e-21)
(1.21614 0.0671646 -4.94267e-21)
(1.20237 0.062488 -4.19267e-21)
(1.18951 0.0584094 0)
(1.1774 0.0547673 2.77695e-21)
(-0.00880628 0.00326239 6.16747e-21)
(-0.0365992 0.00560904 -6.61229e-21)
(-0.0784505 0.00509093 -1.26717e-20)
(-0.119698 0.00306698 0)
(-0.153054 0.000349355 -1.65725e-20)
(-0.175422 -0.00259973 5.10438e-21)
(-0.185046 -0.00549897 -9.10876e-21)
(-0.181089 -0.00816396 0)
(-0.163554 -0.010465 0)
(-0.133136 -0.0123159 0)
(-0.0911022 -0.0136385 0)
(-0.0391806 -0.0143769 0)
(0.0205705 -0.0145261 -5.53447e-22)
(0.0858584 -0.0140961 -8.10807e-22)
(0.154416 -0.0131293 -5.09686e-22)
(0.224145 -0.0116973 -2.68798e-21)
(0.29317 -0.00988951 -1.30738e-21)
(0.35994 -0.00780358 0)
(0.423254 -0.00553653 -1.5867e-21)
(0.482283 -0.00318241 4.48345e-21)
(0.536492 -0.000805656 2.89571e-21)
(0.585746 0.0014773 2.71937e-21)
(0.629852 0.00380526 0)
(0.669533 0.00553963 0)
(-0.0107958 0.026045 -1.89015e-20)
(-0.0395616 0.049905 3.29176e-20)
(-0.080185 0.0551556 -1.27715e-20)
(-0.119167 0.0490036 -2.40922e-20)
(-0.149746 0.035879 3.38287e-20)
(-0.169052 0.018502 -2.01857e-20)
(-0.175459 -0.00131005 2.80916e-20)
(-0.168253 -0.0221888 1.67441e-20)
(-0.147543 -0.0429899 0)
(-0.114131 -0.0626416 -7.72227e-21)
(-0.0694176 -0.0801816 4.28108e-21)
(-0.0152511 -0.0948218 6.81386e-21)
(0.0461685 -0.105974 5.0377e-21)
(0.112485 -0.113396 8.53227e-22)
(0.181419 -0.11707 -2.12344e-21)
(0.250872 -0.11724 3.31392e-21)
(0.319033 -0.114342 -2.67039e-21)
(0.384449 -0.108934 9.39356e-21)
(0.446042 -0.101623 0)
(0.503117 -0.093023 -2.99041e-21)
(0.555246 -0.0836382 -2.892e-21)
(0.602453 -0.0741202 -2.71588e-21)
(0.644489 -0.0642512 0)
(0.682576 -0.0561846 0)
(-0.0147078 0.0463497 0)
(-0.0450149 0.0900539 7.19217e-20)
(-0.0823551 0.101102 -2.69337e-20)
(-0.115808 0.0915147 2.44146e-20)
(-0.139776 0.0688894 -7.31312e-20)
(-0.151878 0.0380386 0)
(-0.150788 0.00226223 -3.84915e-20)
(-0.136059 -0.0358962 1.94731e-20)
(-0.108052 -0.0742429 -3.15749e-20)
(-0.0678432 -0.110716 1.46539e-20)
(-0.0171491 -0.143467 5.25897e-20)
(0.0419063 -0.170906 -2.44598e-20)
(0.106862 -0.192 -1.6709e-20)
(0.175154 -0.206226 7.92994e-22)
(0.244483 -0.213585 5.47656e-21)
(0.312819 -0.214568 -4.60353e-21)
(0.378524 -0.210019 4.17115e-21)
(0.440403 -0.200996 -1.47712e-21)
(0.497677 -0.188629 0)
(0.549967 -0.174035 8.56891e-21)
(0.597108 -0.158128 0)
(0.639463 -0.142019 1.02282e-20)
(0.676718 -0.125423 -3.47328e-20)
(0.71103 -0.111687 5.89036e-22)
(-0.0199104 0.062433 0)
(-0.0521609 0.122968 2.63839e-21)
(-0.0845627 0.13969 3.06279e-20)
(-0.109735 0.127752 -2.86857e-20)
(-0.123738 0.097149 2.54448e-20)
(-0.124944 0.0544818 1.46842e-19)
(-0.112515 0.00442318 -4.46887e-20)
(-0.0864398 -0.0493341 -4.14917e-20)
(-0.0475062 -0.103532 6.76093e-20)
(0.00272935 -0.15509 -7.74564e-20)
(0.0621202 -0.201222 2.82241e-20)
(0.128002 -0.239651 1.87842e-20)
(0.197501 -0.2689 0)
(0.267949 -0.28824 5.84161e-21)
(0.337014 -0.297807 0)
(0.402859 -0.298443 4.8955e-21)
(0.4642 -0.291485 6.83536e-21)
(0.520285 -0.278531 1.77082e-21)
(0.570816 -0.261236 -1.07028e-20)
(0.615888 -0.241177 -8.56137e-21)
(0.655708 -0.219618 0)
(0.691076 -0.197996 2.35121e-20)
(0.721609 -0.175989 -8.01261e-21)
(0.750573 -0.157669 0)
(-0.0255923 0.0732207 0)
(-0.0599467 0.14645 -9.96775e-20)
(-0.0862943 0.168345 -3.37108e-20)
(-0.101154 0.155228 -6.04412e-20)
(-0.102541 0.118525 5.69141e-20)
(-0.0898087 0.066206 -5.0676e-20)
(-0.0628227 0.00415846 9.55832e-20)
(-0.0221784 -0.0629006 3.65112e-20)
(0.0306825 -0.130562 -1.15883e-19)
(0.0935304 -0.194735 6.11655e-20)
(0.163426 -0.251751 -7.74244e-20)
(0.237091 -0.298723 1.48777e-19)
(0.311272 -0.333729 -7.05797e-20)
(0.383136 -0.356041 2.55124e-20)
(0.450504 -0.366064 3.9549e-20)
(0.51195 -0.365108 -1.47857e-20)
(0.566771 -0.355065 -1.33008e-20)
(0.614872 -0.338089 -5.51379e-22)
(0.656597 -0.316312 0)
(0.692615 -0.29168 9.19177e-21)
(0.723564 -0.265709 1.20116e-20)
(0.750671 -0.239999 -1.55111e-20)
(0.773475 -0.214214 -2.29791e-20)
(0.796284 -0.19265 1.952e-20)
(-0.0309374 0.0784286 0)
(-0.0672239 0.159442 -1.50264e-19)
(-0.0869155 0.185416 -3.26123e-21)
(-0.0901892 0.172036 1.31299e-19)
(-0.0770744 0.131143 0)
(-0.04805 0.0715685 0)
(-0.0039963 0.000140256 0)
(0.0537021 -0.0773353 -4.39615e-20)
(0.122781 -0.15542 6.05106e-21)
(0.199922 -0.229096 7.87031e-20)
(0.281243 -0.293882 -7.87511e-20)
(0.362711 -0.346299 8.72739e-21)
(0.440686 -0.384256 0)
(0.512359 -0.40719 -2.54967e-20)
(0.575968 -0.415931 1.81176e-20)
(0.630789 -0.412348 -4.99185e-20)
(0.676961 -0.398906 2.95807e-20)
(0.715231 -0.378252 -2.39396e-21)
(0.746688 -0.352882 -9.23064e-21)
(0.7726 -0.324965 -1.67916e-21)
(0.794006 -0.296139 4.71708e-22)
(0.812464 -0.267979 -1.7644e-20)
(0.827409 -0.240163 1.0184e-20)
(0.843965 -0.216771 0)
(-0.0352802 0.0785107 8.05762e-20)
(-0.0728972 0.162069 7.66261e-20)
(-0.0856716 0.190382 -7.79479e-20)
(-0.0766979 0.177089 -1.42393e-19)
(-0.0479233 0.133594 1.34066e-19)
(-0.00104606 0.0690943 -1.25835e-19)
(0.0620161 -0.0088558 1.7952e-19)
(0.138673 -0.0934972 -4.47151e-20)
(0.225368 -0.178552 9.93434e-20)
(0.31753 -0.258087 0)
(0.410105 -0.326947 6.80082e-20)
(0.498275 -0.381336 -1.35442e-19)
(0.57817 -0.419238 8.64397e-20)
(0.647322 -0.440482 -8.11726e-20)
(0.704751 -0.446462 0)
(0.750756 -0.439637 3.90498e-20)
(0.786537 -0.422972 5.16518e-20)
(0.813792 -0.399459 -4.36749e-20)
(0.834356 -0.37178 -1.50729e-20)
(0.850004 -0.342138 5.95805e-22)
(0.862077 -0.312148 8.02297e-21)
(0.872285 -0.283188 1.40277e-21)
(0.879927 -0.255003 -2.61174e-21)
(0.890661 -0.23108 -2.08821e-22)
(-0.0382192 0.0744761 -8.05866e-20)
(-0.0760246 0.155553 2.60045e-19)
(-0.0816227 0.183844 -8.35936e-20)
(-0.0600933 0.170273 1.52379e-19)
(-0.014906 0.125257 -1.4346e-19)
(0.0509536 0.0579325 4.41003e-21)
(0.134254 -0.0236953 6.59839e-20)
(0.230926 -0.112192 2.37865e-19)
(0.335738 -0.200435 -1.05195e-20)
(0.442503 -0.281792 -9.59572e-20)
(0.544891 -0.350728 0)
(0.63746 -0.403481 -6.20155e-20)
(0.716488 -0.438428 1.17603e-19)
(0.780305 -0.456001 7.8704e-20)
(0.829124 -0.458228 -3.80133e-20)
(0.864538 -0.448085 5.16833e-21)
(0.888918 -0.428864 -1.60857e-20)
(0.904873 -0.403683 3.09512e-20)
(0.91485 -0.375188 1.50749e-20)
(0.920946 -0.345428 -9.64723e-21)
(0.924641 -0.315865 1.16736e-20)
(0.927582 -0.287554 -8.1268e-21)
(0.928935 -0.260406 0)
(0.934598 -0.236967 2.09086e-22)
(-0.039603 0.0675969 8.96091e-20)
(-0.0759467 0.141809 -8.86691e-20)
(-0.0737301 0.167378 8.81261e-20)
(-0.0391603 0.152579 0)
(0.0231014 0.106547 0)
(0.108777 0.0380643 1.51086e-19)
(0.213051 -0.0446388 -1.34876e-19)
(0.329949 -0.133592 1.24383e-19)
(0.452162 -0.221071 -5.6708e-19)
(0.571663 -0.300077 6.70046e-21)
(0.680973 -0.365126 8.97208e-20)
(0.774471 -0.412906 0)
(0.849171 -0.442494 -1.12516e-19)
(0.904738 -0.455054 1.95565e-19)
(0.942925 -0.453192 -1.20316e-19)
(0.966743 -0.440212 -1.36828e-19)
(0.979654 -0.41948 1.90207e-20)
(0.984972 -0.393984 8.61581e-20)
(0.985504 -0.366124 0)
(0.983419 -0.337653 0)
(0.980163 -0.30979 -1.16794e-20)
(0.977117 -0.283222 8.131e-21)
(0.973404 -0.258155 -2.73436e-20)
(0.974811 -0.235837 2.56491e-20)
(-0.0394677 0.0590965 0)
(-0.0721375 0.123035 0)
(-0.0608061 0.143295 -2.68957e-19)
(-0.0121864 0.125988 8.72834e-20)
(0.0680821 0.0790209 -2.08607e-22)
(0.174315 0.0107211 1.57838e-19)
(0.299747 -0.0706097 0)
(0.436015 -0.156677 -1.33955e-19)
(0.573409 -0.239514 1.16322e-19)
(0.702132 -0.312248 -2.10032e-19)
(0.814065 -0.369951 8.24028e-21)
(0.904163 -0.41017 1.48273e-19)
(0.970885 -0.432878 -1.69736e-20)
(1.0157 -0.439941 8.35954e-20)
(1.04206 -0.434348 -1.41646e-19)
(1.05427 -0.419456 0)
(1.05661 -0.398424 9.91799e-20)
(1.05275 -0.373889 -1.31798e-19)
(1.04555 -0.347846 3.592e-20)
(1.03699 -0.321689 0)
(1.02836 -0.296348 2.22139e-20)
(1.0206 -0.272211 5.58046e-20)
(1.01304 -0.249842 -5.23821e-20)
(1.01084 -0.228858 -4.42368e-20)
(-0.0379099 0.0499501 2.97292e-19)
(-0.0641496 0.101327 -4.0868e-19)
(-0.0415545 0.114195 1.52947e-21)
(0.0228674 0.0932215 9.1743e-20)
(0.122481 0.0453606 -1.71434e-19)
(0.24989 -0.0214845 -1.5443e-19)
(0.39587 -0.0990681 2.93356e-19)
(0.549233 -0.179078 -1.17433e-20)
(0.697848 -0.253798 -2.53159e-19)
(0.830692 -0.317046 4.35209e-19)
(0.939943 -0.364938 -1.99709e-20)
(1.02207 -0.396137 -1.73462e-19)
(1.07763 -0.411517 0)
(1.11012 -0.413454 0)
(1.12454 -0.40503 -4.4774e-20)
(1.12614 -0.389359 -7.81967e-20)
(1.11957 -0.369166 -1.127e-19)
(1.10849 -0.346585 1.0582e-19)
(1.09548 -0.323147 -3.59557e-20)
(1.08221 -0.299885 5.72732e-20)
(1.06966 -0.277432 -3.0585e-20)
(1.05829 -0.256068 2.91796e-20)
(1.04796 -0.236491 -8.43252e-20)
(1.04231 -0.216714 1.0571e-20)
(-0.0349368 0.0407714 1.03076e-19)
(-0.0514486 0.0783854 0)
(-0.0145896 0.0826176 1.99141e-19)
(0.0681175 0.0573791 -1.87555e-19)
(0.188698 0.0089855 1.71579e-19)
(0.337473 -0.0550006 0)
(0.502188 -0.126532 0)
(0.66865 -0.197679 -1.39534e-19)
(0.822823 -0.261537 1.14821e-20)
(0.953561 -0.313151 1.22872e-19)
(1.05455 -0.350004 -9.26083e-20)
(1.12466 -0.371916 1.79329e-19)
(1.1669 -0.380477 0)
(1.18665 -0.37827 2.2535e-19)
(1.19004 -0.368165 -3.97118e-19)
(1.18275 -0.352801 2.52467e-19)
(1.16934 -0.334328 1.23864e-19)
(1.1531 -0.314334 -1.16306e-19)
(1.13617 -0.2939 0)
(1.11978 -0.273741 0)
(1.10462 -0.254218 0)
(1.09068 -0.235713 0)
(1.07848 -0.218397 1.69369e-20)
(1.06841 -0.200396 -5.4886e-20)
(0.710227 0.00909906 1.45317e-21)
(0.749434 0.012511 -1.47542e-21)
(0.781903 0.0152246 3.87905e-23)
(0.808854 0.0173945 0)
(0.831593 0.0190995 9.55589e-22)
(0.851017 0.0205459 -1.77994e-21)
(0.86768 0.0217959 6.80616e-23)
(0.882023 0.0226801 7.38065e-22)
(0.894482 0.0233721 0)
(0.9054 0.024032 0)
(0.915032 0.0247419 3.22278e-23)
(0.923551 0.0254814 2.92356e-23)
(0.931111 0.0262257 4.39965e-22)
(0.937838 0.0269691 -4.01748e-22)
(0.943836 0.0277054 0)
(0.94919 0.0284328 0)
(0.953982 0.0291556 -2.98631e-22)
(0.958281 0.0298802 1.20502e-23)
(0.962146 0.0306118 2.53766e-22)
(0.965628 0.0313558 1.55326e-23)
(0.968773 0.0321179 0)
(0.971616 0.0329032 0)
(0.974192 0.0337161 0)
(0.97653 0.0345613 0)
(0.978656 0.0354434 0)
(0.980591 0.0363672 0)
(0.982355 0.0373373 -6.36946e-23)
(0.983965 0.0383587 1.03338e-22)
(0.985437 0.0394364 0)
(0.986784 0.0405755 0)
(0.988018 0.0417815 7.23881e-23)
(0.989149 0.0430603 -7.03544e-23)
(0.990188 0.0444181 -3.37242e-23)
(0.991142 0.0458612 0)
(0.99202 0.0473968 0)
(0.992828 0.0490319 -5.99478e-23)
(0.993573 0.0507745 5.8273e-23)
(0.994261 0.0526332 0)
(0.994898 0.0546173 -5.33888e-23)
(0.995487 0.0567372 7.77091e-23)
(0.996033 0.0590039 -2.47664e-23)
(0.996541 0.0614292 0)
(0.997013 0.064026 4.50135e-23)
(0.997454 0.0668075 -4.3771e-23)
(0.997866 0.0697885 0)
(0.998252 0.0729843 0)
(0.998616 0.0764115 1.82633e-23)
(0.998959 0.0800875 -5.26969e-23)
(0.999285 0.0840306 0)
(0.999595 0.0882597 0)
(0.999891 0.0927944 1.36517e-23)
(1.00018 0.0976541 1.90736e-26)
(1.00045 0.102857 9.71541e-25)
(1.00071 0.108428 -9.75521e-24)
(1.00097 0.114349 0)
(1.00121 0.120807 0)
(1.00147 0.127078 0)
(1.00167 0.135763 0)
(1.00189 0.139434 0)
(1.0021 0.154417 0)
(0.720698 -0.0424449 1.38102e-22)
(0.757254 -0.0289663 5.27292e-21)
(0.787601 -0.0182193 -4.37358e-22)
(0.812988 -0.00988356 -4.5329e-21)
(0.834623 -0.00340288 -6.05669e-23)
(0.853403 0.00182888 0)
(0.869504 0.00610063 2.9671e-21)
(0.88332 0.00962017 -5.64588e-21)
(0.895451 0.0124525 2.67775e-21)
(0.906183 0.0147901 -2.20849e-21)
(0.915702 0.0168354 2.11448e-21)
(0.924134 0.0186684 -1.79e-21)
(0.93163 0.020348 1.74145e-21)
(0.938316 0.0218955 4.87888e-23)
(0.944286 0.0233155 1.40087e-21)
(0.949624 0.0246221 -1.36147e-21)
(0.954408 0.0258378 1.20137e-21)
(0.958704 0.026984 -1.13185e-21)
(0.96257 0.0280785 1.06327e-21)
(0.966055 0.0291358 -2.01506e-21)
(0.969206 0.0301685 9.54644e-22)
(0.972057 0.031188 5.53952e-23)
(0.974643 0.0322042 8.28425e-22)
(0.976993 0.0332264 -1.59224e-21)
(0.97913 0.0342634 7.64981e-22)
(0.981079 0.035323 -4.5158e-23)
(0.982857 0.0364125 -7.06313e-22)
(0.984483 0.0375392 -1.12692e-23)
(0.985971 0.0387099 1.26718e-21)
(0.987335 0.0399311 -1.2166e-21)
(0.988587 0.0412096 5.87749e-22)
(0.989738 0.0425521 -7.0343e-23)
(0.990796 0.0439657 3.37929e-23)
(0.991771 0.045458 -6.519e-23)
(0.992671 0.0470369 0)
(0.993502 0.0487107 0)
(0.994271 0.0504878 2.31493e-22)
(0.994984 0.0523774 -1.69022e-22)
(0.995646 0.0543889 -1.60189e-22)
(0.996262 0.056533 -2.32833e-23)
(0.996837 0.0588211 2.24591e-22)
(0.997375 0.0612654 -4.75557e-23)
(0.997879 0.063879 0)
(0.998352 0.0666755 0)
(0.998799 0.0696696 0)
(0.999221 0.072877 0)
(0.999622 0.0763144 -7.42211e-23)
(1 0.0799994 3.49681e-23)
(1.00037 0.0839503 0)
(1.00072 0.0881863 0)
(1.00106 0.0927268 0)
(1.00139 0.0975916 2.38219e-23)
(1.0017 0.102799 -1.88197e-24)
(1.00201 0.108374 2.05592e-23)
(1.00231 0.114298 0)
(1.00259 0.120761 0)
(1.00288 0.127032 -1.03984e-23)
(1.00312 0.135726 -2.44489e-23)
(1.00338 0.139394 0)
(1.00359 0.15439 0)
(0.743741 -0.0893154 6.59897e-22)
(0.77472 -0.0672651 1.04618e-20)
(0.800173 -0.0496077 -9.09324e-21)
(0.821842 -0.0359244 8.51712e-21)
(0.841025 -0.0251029 6.09857e-23)
(0.858211 -0.0162912 0)
(0.873376 -0.0091242 6.01349e-21)
(0.886495 -0.00331818 -5.88406e-21)
(0.89787 0.00131098 -3.95445e-23)
(0.908003 0.00527871 -7.00478e-23)
(0.917101 0.00878494 -6.37164e-23)
(0.925253 0.011766 -5.88292e-23)
(0.93257 0.014391 3.32721e-21)
(0.939125 0.016742 -3.28277e-21)
(0.944991 0.0188532 0)
(0.950251 0.0207521 -8.30052e-23)
(0.954981 0.0224709 2.41741e-21)
(0.959241 0.0240431 -2.38503e-21)
(0.963082 0.0255003 0)
(0.966552 0.0268694 0)
(0.969693 0.0281724 1.92345e-21)
(0.97254 0.0294265 -3.68485e-21)
(0.975126 0.0306461 3.38155e-21)
(0.977479 0.0318451 -8.58995e-23)
(0.979624 0.0330362 -3.00528e-21)
(0.981581 0.0342308 2.95662e-21)
(0.98337 0.0354391 -2.69477e-21)
(0.985009 0.0366707 1.02086e-22)
(0.986511 0.0379343 1.28452e-21)
(0.98789 0.0392383 0)
(0.989158 0.0405906 0)
(0.990326 0.0419987 -4.21816e-22)
(0.991403 0.0434705 5.47406e-22)
(0.992398 0.0450138 -1.07981e-25)
(0.993319 0.0466372 -5.02557e-22)
(0.994172 0.0483498 4.88405e-22)
(0.994965 0.0501612 0)
(0.995702 0.0520815 -5.62283e-23)
(0.99639 0.0541206 -4.84201e-22)
(0.997033 0.0562895 9.34913e-22)
(0.997637 0.0585995 -4.0132e-22)
(0.998205 0.0610634 -4.7792e-23)
(0.99874 0.0636944 4.53173e-22)
(0.999247 0.0665065 -3.51768e-22)
(0.999727 0.0695146 -8.29459e-23)
(1.00019 0.0727345 -7.87095e-23)
(1.00062 0.0761832 7.44102e-23)
(1.00104 0.0798783 0)
(1.00145 0.0838384 0)
(1.00184 0.0880827 2.40961e-22)
(1.00222 0.0926308 -1.15674e-22)
(1.00259 0.0975026 1.02823e-22)
(1.00295 0.102717 -1.39056e-22)
(1.0033 0.108298 -1.59771e-22)
(1.00365 0.114227 3.75813e-23)
(1.00397 0.120697 -5.92805e-23)
(1.00429 0.126972 4.71119e-23)
(1.00456 0.135677 -2.0158e-23)
(1.00486 0.139346 0)
(1.00507 0.154361 0)
(0.776109 -0.129002 1.82351e-20)
(0.799572 -0.100781 -8.11712e-22)
(0.818424 -0.0780962 -1.66202e-20)
(0.835097 -0.0601106 1.27654e-22)
(0.850891 -0.0454722 0)
(0.865759 -0.0333428 0)
(0.879081 -0.0234661 1.16238e-20)
(0.890722 -0.0156859 -6.45946e-22)
(0.901225 -0.00938949 -1.50286e-20)
(0.91087 -0.00405306 3.65602e-22)
(0.91941 0.000525106 4.28029e-21)
(0.927006 0.00467658 3.5059e-21)
(0.933961 0.00833787 -3.51885e-21)
(0.940273 0.0115124 0)
(0.945963 0.0143087 2.82369e-21)
(0.951088 0.0167993 -2.57678e-21)
(0.955712 0.0190302 0)
(0.959894 0.021041 0)
(0.963681 0.0228707 -2.12575e-21)
(0.967114 0.0245561 6.85154e-23)
(0.97023 0.0261301 1.88047e-21)
(0.973061 0.027619 1.83508e-21)
(0.975637 0.0290428 -1.83474e-21)
(0.977986 0.0304193 1.65305e-21)
(0.980131 0.0317646 -7.84613e-23)
(0.982092 0.0330934 -1.48307e-21)
(0.983889 0.0344192 -1.7545e-22)
(0.985538 0.0357539 9.47604e-26)
(0.987052 0.0371086 0)
(0.988445 0.0384936 -1.2299e-21)
(0.989728 0.0399182 1.26922e-21)
(0.990912 0.0413915 -7.13563e-23)
(0.992007 0.0429221 0)
(0.99302 0.0445183 6.60818e-23)
(0.993961 0.0461887 -1.0139e-21)
(0.994836 0.0479421 1.83822e-21)
(0.995651 0.0497887 1.08554e-22)
(0.996413 0.0517393 -9.69611e-24)
(0.997127 0.0538055 -7.6773e-22)
(0.997797 0.0559989 -1.04572e-22)
(0.998429 0.058331 7.96917e-22)
(0.999027 0.0608146 -6.78415e-22)
(0.999594 0.0634633 1.0207e-25)
(1.00013 0.0662914 -3.46796e-22)
(1.00065 0.069314 4.20388e-22)
(1.00114 0.0725473 5.49257e-22)
(1.00162 0.0760081 -1.53697e-22)
(1.00208 0.0797145 -2.76133e-22)
(1.00252 0.0836851 5.26056e-22)
(1.00296 0.0879394 -3.72846e-22)
(1.00338 0.092497 1.06043e-22)
(1.00379 0.0973781 -1.17316e-22)
(1.0042 0.102601 -1.00301e-22)
(1.00459 0.108192 2.42233e-22)
(1.00498 0.11413 -4.4625e-24)
(1.00534 0.12061 5.95184e-23)
(1.0057 0.126892 0)
(1.006 0.135612 2.03971e-23)
(1.00635 0.139288 -2.86615e-23)
(1.00656 0.15433 0)
(0.814089 -0.16025 -1.42986e-20)
(0.829303 -0.128503 2.82397e-20)
(0.840802 -0.102874 -1.36729e-20)
(0.851835 -0.0819572 -1.37208e-20)
(0.863613 -0.0643403 2.63439e-20)
(0.875544 -0.0494965 -7.13825e-22)
(0.88662 -0.0373511 -1.16837e-20)
(0.896577 -0.0275733 -1.00982e-20)
(0.905736 -0.0195696 9.89136e-21)
(0.914265 -0.0129775 0)
(0.922235 -0.00738647 7.80186e-21)
(0.929486 -0.00238064 -1.47474e-20)
(0.935919 0.00215301 6.96646e-21)
(0.941794 0.00620281 0)
(0.9472 0.00970936 0)
(0.952129 0.0127868 -8.43429e-23)
(0.956606 0.0155202 4.89952e-21)
(0.960672 0.0179677 -4.75988e-21)
(0.964371 0.0201774 0)
(0.96774 0.0221899 -4.1637e-21)
(0.970813 0.0240425 7.72665e-21)
(0.973615 0.0257688 -7.29654e-21)
(0.976172 0.0273974 7.01738e-21)
(0.978508 0.0289519 -7.08339e-23)
(0.980647 0.0304522 -6.34015e-21)
(0.982608 0.0319161 3.0955e-21)
(0.984409 0.0333595 8.88061e-23)
(0.986064 0.0347969 1.26674e-21)
(0.987588 0.0362415 -1.64136e-23)
(0.988994 0.0377055 -1.25934e-21)
(0.990291 0.0392001 -7.51145e-23)
(0.991491 0.0407359 1.15075e-21)
(0.992603 0.042323 -2.22494e-21)
(0.993635 0.0439708 1.20933e-21)
(0.994595 0.0456887 0)
(0.99549 0.0474853 1.1104e-21)
(0.996327 0.04937 -1.07743e-21)
(0.997113 0.051353 7.97103e-22)
(0.997852 0.0534463 -9.95719e-22)
(0.99855 0.0556635 1.0575e-22)
(0.99921 0.0580173 0)
(0.999838 0.0605206 9.70209e-23)
(1.00044 0.0631871 -2.77955e-22)
(1.00101 0.0660313 0)
(1.00156 0.0690686 -8.32002e-22)
(1.00209 0.0723155 3.26457e-22)
(1.0026 0.0757891 -1.50365e-22)
(1.0031 0.0795076 -1.41617e-22)
(1.00359 0.0834898 0)
(1.00406 0.0877553 0)
(1.00453 0.0923242 3.333e-22)
(1.00499 0.0972165 -5.16726e-22)
(1.00544 0.102451 2.87053e-22)
(1.00587 0.108054 -9.15397e-23)
(1.0063 0.114004 -1.51548e-22)
(1.00671 0.120497 -5.95752e-23)
(1.00711 0.126793 9.48312e-23)
(1.00744 0.135531 0)
(1.00783 0.139218 4.595e-23)
(1.00805 0.154294 1.05882e-23)
(0.85438 -0.183038 -9.70283e-21)
(0.861523 -0.150333 9.68345e-21)
(0.865789 -0.123768 -9.82656e-23)
(0.87123 -0.101234 7.9412e-23)
(0.878766 -0.0814586 -9.76563e-23)
(0.887349 -0.0644719 9.18277e-23)
(0.895802 -0.0504384 -1.52225e-22)
(0.903769 -0.038989 0)
(0.9114 -0.0295444 1.36529e-22)
(0.918731 -0.021658 -1.27767e-22)
(0.925672 -0.0149345 -1.19023e-22)
(0.932235 -0.00915505 1.15197e-22)
(0.938323 -0.00397184 0)
(0.943776 0.00076593 0)
(0.948748 0.00502484 -8.91316e-23)
(0.953382 0.00872147 0)
(0.957655 0.011961 7.79312e-23)
(0.961571 0.0148357 0)
(0.965156 0.0174165 4.2015e-21)
(0.968438 0.0197566 -8.16859e-21)
(0.971445 0.0218969 7.70134e-21)
(0.9742 0.0238711 -3.74479e-21)
(0.976726 0.0257106 -3.46246e-21)
(0.979043 0.0274453 3.36241e-21)
(0.98117 0.0291015 3.23662e-21)
(0.983126 0.0307012 -3.14125e-21)
(0.984926 0.0322633 0)
(0.986585 0.0338042 -8.6296e-23)
(0.988117 0.0353392 0)
(0.989533 0.036882 0)
(0.990844 0.0384456 -2.2758e-21)
(0.992059 0.040042 2.3579e-21)
(0.993188 0.0416827 -1.41069e-22)
(0.994238 0.0433787 -1.35593e-22)
(0.995218 0.0451409 1.30614e-22)
(0.996133 0.0469792 1.00004e-21)
(0.996992 0.048903 -9.71012e-22)
(0.9978 0.0509216 1.03971e-21)
(0.998564 0.0530452 -8.96912e-22)
(0.999288 0.0552869 -2.13906e-22)
(0.999977 0.0576617 8.13775e-22)
(1.00064 0.0601842 8.59868e-23)
(1.00126 0.0628684 -5.68237e-22)
(1.00187 0.0657289 0)
(1.00246 0.0687813 3.39243e-22)
(1.00302 0.0720422 -4.73522e-22)
(1.00357 0.075529 6.15769e-22)
(1.00411 0.0792602 1.42519e-22)
(1.00464 0.0832549 0)
(1.00516 0.0875328 -1.17439e-22)
(1.00567 0.0921143 2.34485e-22)
(1.00617 0.0970197 -2.18127e-25)
(1.00666 0.102268 9.39457e-23)
(1.00715 0.107885 -1.56963e-22)
(1.00762 0.11385 1.521e-22)
(1.00807 0.120361 0)
(1.00851 0.126673 -9.48754e-23)
(1.00887 0.135433 0)
(1.00931 0.139137 0)
(1.00955 0.154255 -1.40099e-23)