/*--------------------------------*- C++ -*----------------------------------*\
| =========                 |                                                 |
| \\      /  F ield         | OpenFOAM: The Open Source CFD Toolbox           |
|  \\    /   O peration     | Version:  2512                                  |
|   \\  /    A nd           | Website:  www.openfoam.com                      |
|    \\/     M anipulation  |                                                 |
\*---------------------------------------------------------------------------*/
FoamFile
{
    version     2.0;
    format      ascii;
    arch        "LSB;label=32;scalar=64";
    class       volVectorField;
    location    "200";
    object      U;
}
// * * * * * * * * * * * * * * * * * * * * * * * * * * * * * * * * * * * * * //

dimensions      [0 1 -1 0 0 0 0];

internalField   nonuniform List<vector> 
13248
(
(-0.0122148 0.012413 9.89382e-20)
(-0.017733 0.0250445 0)
(-0.00411922 0.0304764 -1.87289e-19)
(0.0266862 0.0300504 1.76419e-19)
(0.0733079 0.0253029 1.65713e-19)
(0.134674 0.0177095 0)
(0.209656 0.00848125 0)
(0.296801 -0.00142458 4.07189e-19)
(0.394082 -0.0112729 -8.67165e-22)
(0.498732 -0.0205319 -3.57557e-19)
(0.607253 -0.0288559 3.3171e-19)
(0.715613 -0.036066 -2.07691e-19)
(0.819602 -0.0421225 0)
(0.915259 -0.0470902 -3.45738e-19)
(0.999283 -0.0510952 6.38915e-19)
(1.06936 -0.0542837 -1.52877e-19)
(1.12433 -0.056784 -2.54029e-19)
(1.1642 -0.0586916 2.38503e-19)
(1.19003 -0.060022 0)
(1.20358 -0.0608927 0)
(1.20727 -0.0608575 0)
(1.2028 -0.0614824 0)
(1.19401 -0.0583603 5.85565e-20)
(1.17761 -0.0650232 1.91725e-19)
(-0.0102026 0.00929127 -2.98484e-19)
(-0.00868245 0.0162081 2.03241e-19)
(0.0149568 0.0174719 -1.54072e-21)
(0.0586312 0.0145458 -2.68842e-19)
(0.120771 0.00896236 -1.65535e-19)
(0.199845 0.00214811 -1.56658e-19)
(0.293852 -0.00478398 -2.90399e-19)
(0.40002 -0.0110333 2.7368e-19)
(0.514638 -0.0160992 0)
(0.633127 -0.0197734 1.38556e-21)
(0.75037 -0.0221116 2.02749e-21)
(0.861235 -0.0233732 2.04848e-19)
(0.961154 -0.0239372 0)
(1.04662 -0.0242081 0)
(1.11555 -0.0245316 2.2718e-19)
(1.16731 -0.0251355 -4.26766e-19)
(1.2027 -0.0261041 2.43559e-19)
(1.22359 -0.0273842 -2.28685e-19)
(1.23251 -0.0288156 -9.66511e-20)
(1.23229 -0.0301843 -1.68179e-19)
(1.22561 -0.0311664 -6.41624e-20)
(1.2148 -0.0318807 -1.18065e-19)
(1.20186 -0.0303784 1.82041e-19)
(1.18628 -0.0331556 4.95661e-20)
(-0.00722461 0.00625226 0)
(0.00406009 0.00769135 0)
(0.0410359 0.00536863 9.51317e-20)
(0.101104 0.00081616 8.80624e-20)
(0.18207 -0.00444436 -1.55656e-21)
(0.281358 -0.00906586 -1.60278e-19)
(0.395385 -0.0121456 0)
(0.519359 -0.0132389 -1.36343e-19)
(0.647436 -0.012334 1.27152e-19)
(0.773225 -0.00979662 -5.45571e-22)
(0.890545 -0.00625909 -2.17282e-19)
(0.994201 -0.00246661 -1.96873e-19)
(1.08058 0.00088226 5.60052e-21)
(1.14796 0.00326377 -1.56404e-19)
(1.19647 0.00440108 3.81028e-19)
(1.22777 0.00427374 0)
(1.24459 0.00307547 -2.339e-19)
(1.25012 0.00113782 1.14863e-19)
(1.24754 -0.00114016 9.65725e-20)
(1.23965 -0.00340568 0)
(1.22868 -0.00522468 7.48179e-20)
(1.21609 -0.00676755 -2.48858e-19)
(1.20313 -0.00656045 2.33612e-19)
(1.18945 -0.00994766 1.37944e-19)
(-0.00282185 0.00319844 -1.0438e-19)
(0.0215377 -0.000399139 -1.07655e-19)
(0.075476 -0.00526987 9.80269e-20)
(0.15541 -0.0100313 0)
(0.25788 -0.0133144 0)
(0.378478 -0.0140177 -2.4375e-21)
(0.511269 -0.0116966 0)
(0.64898 -0.00656001 -4.10736e-19)
(0.783737 0.000650791 3.81103e-19)
(0.908121 0.00885573 -4.7067e-19)
(1.0162 0.0168853 1.0796e-19)
(1.10425 0.0237235 0)
(1.17096 0.028682 1.74496e-19)
(1.21726 0.0314726 -3.21195e-19)
(1.2457 0.0321799 7.66825e-20)
(1.25976 0.0311634 1.88904e-19)
(1.26316 0.0289298 -1.21538e-20)
(1.25929 0.0260149 -2.07252e-19)
(1.2509 0.0228942 0)
(1.24 0.0199393 0)
(1.22796 0.0174409 -6.97369e-20)
(1.21556 0.0153459 6.14047e-20)
(1.20345 0.0146342 2.11729e-19)
(1.19103 0.0110288 -1.98831e-19)
(0.00349693 0.000116975 -1.08825e-19)
(0.0447288 -0.00781002 -1.08915e-19)
(0.119261 -0.0137675 3.06688e-19)
(0.221957 -0.0168782 -1.87111e-19)
(0.347282 -0.016215 1.76114e-19)
(0.488152 -0.0112423 3.2164e-19)
(0.635751 -0.00233423 -2.26692e-19)
(0.780457 0.00934621 -2.74579e-19)
(0.913298 0.0221807 6.23302e-21)
(1.02735 0.0344882 3.5252e-19)
(1.11858 0.044879 0)
(1.18607 0.0524828 9.5063e-20)
(1.23147 0.0570101 0)
(1.25821 0.0586693 -1.52403e-19)
(1.27048 0.057997 2.1417e-19)
(1.27244 0.0556709 2.22386e-21)
(1.26767 0.0523558 -5.45914e-20)
(1.25889 0.0486083 1.00741e-19)
(1.24801 0.0448418 8.60227e-20)
(1.23621 0.0413307 -7.61399e-20)
(1.22423 0.0382451 6.97185e-20)
(1.21244 0.0355805 -6.13877e-20)
(1.20107 0.0338249 0)
(1.18987 0.0300228 -4.59436e-20)
(0.0121733 -0.00285884 1.08809e-19)
(0.0743764 -0.0140114 1.13581e-19)
(0.172789 -0.0191893 -1.02614e-19)
(0.300063 -0.0184899 1.91256e-19)
(0.447727 -0.0118751 -1.80007e-19)
(0.605394 0.000170789 1.63158e-19)
(0.761442 0.0160813 -7.80147e-20)
(0.9049 0.0335968 2.06181e-19)
(1.02737 0.050386 -1.28952e-19)
(1.12419 0.0645745 2.26621e-19)
(1.19457 0.0750477 -5.21124e-19)
(1.24083 0.0814957 1.90245e-19)
(1.26722 0.0842563 -1.65096e-19)
(1.27865 0.0840566 1.55082e-19)
(1.2798 0.0817567 1.31773e-19)
(1.27445 0.0781595 1.14075e-19)
(1.26539 0.0739103 -3.1686e-19)
(1.25449 0.0694719 1.95926e-19)
(1.24285 0.0651463 -8.60242e-20)
(1.23113 0.0611153 2.21298e-19)
(1.21965 0.057476 -7.14994e-20)
(1.20857 0.0542501 -1.7029e-19)
(1.19796 0.051665 1.56595e-19)
(1.18763 0.0477498 4.59294e-20)
(0.0235377 -0.00544822 0)
(0.110843 -0.0181904 6.96519e-22)
(0.235708 -0.0203528 2.12278e-19)
(0.387877 -0.0135851 -1.99365e-19)
(0.555243 0.000682193 -1.80347e-19)
(0.724046 0.0204616 3.35142e-19)
(0.880807 0.0427881 -1.55622e-19)
(1.01497 0.0644852 2.07049e-19)
(1.1206 0.0829929 -4.89052e-21)
(1.19666 0.0968161 -1.1672e-19)
(1.24595 0.105562 2.53447e-19)
(1.27349 0.109687 -3.72572e-19)
(1.28504 0.110129 0)
(1.28583 0.10796 -7.21735e-20)
(1.28006 0.10415 -1.91459e-19)
(1.27068 0.0994575 6.03572e-20)
(1.25958 0.0944126 2.76793e-21)
(1.24789 0.0893549 -1.28691e-19)
(1.2362 0.084487 9.47051e-21)
(1.22481 0.0799219 1.48131e-19)
(1.21384 0.0757154 -6.47894e-20)
(1.20335 0.0718989 -2.42306e-20)
(1.19331 0.0684956 7.60053e-20)
(1.1836 0.064387 0)
(0.0377702 -0.00725044 0)
(0.154001 -0.019326 5.73916e-20)
(0.306811 -0.0159633 -2.74687e-19)
(0.482434 -0.00103193 1.00166e-19)
(0.664883 0.0219473 -9.42706e-20)
(0.837788 0.0491532 -8.57149e-20)
(0.987579 0.0763611 -1.51965e-19)
(1.10615 0.100013 7.57334e-20)
(1.1915 0.117976 6.61934e-20)
(1.24657 0.129633 0)
(1.27717 0.135525 1.49126e-19)
(1.28994 0.136823 -2.20651e-19)
(1.29095 0.134866 1.644e-19)
(1.28494 0.130847 7.22113e-20)
(1.2752 0.125681 -5.85235e-20)
(1.26379 0.119996 -4.84481e-20)
(1.25187 0.114187 -4.48971e-20)
(1.24004 0.108484 1.35512e-19)
(1.22859 0.103018 0)
(1.21763 0.0978585 6.69012e-20)
(1.20717 0.0930434 5.54199e-20)
(1.1972 0.0885922 -1.38454e-19)
(1.18767 0.084441 -9.31503e-20)
(1.17848 0.0801215 8.64068e-20)
(0.0548616 -0.00778918 -6.06304e-20)
(0.203161 -0.0163233 -1.70572e-21)
(0.384038 -0.00482646 5.56404e-20)
(0.579912 0.0199132 1.54834e-19)
(0.771404 0.0517851 4.48737e-20)
(0.941158 0.0851516 -8.66974e-20)
(1.07767 0.115073 7.95583e-20)
(1.17696 0.138358 -6.99565e-20)
(1.24148 0.153893 1.24619e-19)
(1.27765 0.1622 5.31067e-20)
(1.29317 0.164707 -1.50162e-19)
(1.29517 0.163092 4.43241e-20)
(1.28921 0.158858 7.52914e-20)
(1.27912 0.153148 -3.70912e-20)
(1.26726 0.146733 0)
(1.25493 0.140088 5.48864e-20)
(1.24278 0.133486 9.2449e-20)
(1.23109 0.127077 1.54861e-20)
(1.21996 0.120941 -7.67648e-20)
(1.20942 0.115123 3.20382e-20)
(1.19942 0.109649 0)
(1.18991 0.104515 -2.49556e-20)
(1.18082 0.0996444 -2.31799e-20)
(1.17205 0.0950036 0)
(0.0745783 -0.00656536 0)
(0.257048 -0.00816619 3.1628e-20)
(0.464588 0.0139407 5.852e-20)
(0.676047 0.0494359 -1.56811e-19)
(0.86998 0.0894424 5.03202e-20)
(1.03023 0.126979 0)
(1.14932 0.15723 7.59177e-20)
(1.22821 0.178105 -1.05841e-19)
(1.27348 0.189873 -6.19717e-20)
(1.29397 0.194193 2.81503e-20)
(1.29815 0.193175 -4.45074e-20)
(1.29276 0.188751 1.08368e-19)
(1.28245 0.182397 5.42691e-20)
(1.27008 0.175104 -3.77888e-20)
(1.2572 0.167468 -3.61913e-21)
(1.24456 0.159826 -1.0306e-19)
(1.23248 0.152356 4.68947e-20)
(1.22106 0.145151 -1.05701e-21)
(1.21031 0.138262 0)
(1.2002 0.131717 -3.20711e-20)
(1.19065 0.125527 0)
(1.18158 0.11967 7.21379e-20)
(1.17293 0.114115 -8.58237e-20)
(1.16456 0.109053 3.90416e-20)
(0.0964407 -0.00310775 -1.61497e-20)
(0.313839 0.00595126 -7.91039e-20)
(0.545162 0.0407636 8.96356e-20)
(0.766619 0.0871179 5.28969e-20)
(0.956732 0.133684 -2.53828e-20)
(1.10277 0.173025 4.2458e-20)
(1.20254 0.201369 -2.06992e-20)
(1.26192 0.218265 3.44842e-20)
(1.29068 0.225457 0)
(1.29895 0.225557 7.81257e-20)
(1.29506 0.221089 -3.15019e-21)
(1.28488 0.214019 -6.31516e-20)
(1.27203 0.20567 2.70989e-20)
(1.2585 0.196838 -3.06093e-20)
(1.24524 0.187957 -1.16898e-20)
(1.23262 0.179249 1.34338e-20)
(1.22078 0.170825 -1.04333e-20)
(1.20972 0.162741 -5.63178e-20)
(1.19939 0.155027 3.45482e-20)
(1.18973 0.147698 7.10436e-21)
(1.18063 0.140747 6.25196e-21)
(1.17202 0.134145 5.50196e-21)
(1.16379 0.127934 0)
(1.15581 0.122317 0)
(0.119801 0.0029913 1.61609e-20)
(0.371417 0.0265409 -1.62398e-20)
(0.622415 0.0755465 -2.97969e-20)
(0.847998 0.132005 0)
(1.02902 0.183 -1.25411e-20)
(1.15796 0.221762 -1.119e-20)
(1.23834 0.24635 -1.92643e-20)
(1.28028 0.258213 0)
(1.29565 0.260445 0)
(1.29485 0.256339 0)
(1.28551 0.248577 0)
(1.27242 0.239001 0)
(1.25825 0.228722 -1.70375e-20)
(1.24427 0.21834 7.7658e-21)
(1.23103 0.208151 1.35231e-20)
(1.21867 0.198292 6.30847e-21)
(1.20721 0.188827 1.56859e-20)
(1.19659 0.179785 0)
(1.18675 0.171179 -3.7803e-21)
(1.1776 0.163011 -3.56644e-21)
(1.16902 0.155262 -6.26183e-21)
(1.16091 0.14791 -5.51068e-21)
(1.15317 0.141067 0)
(1.14567 0.134784 3.9804e-21)
(-0.00228287 0.0111247 9.12044e-21)
(-0.00967225 0.0145434 -9.48104e-21)
(-0.0223616 0.00626132 -1.79713e-20)
(-0.03765 -0.0086064 0)
(-0.0541512 -0.026591 -2.39868e-20)
(-0.0712103 -0.0456951 7.45602e-21)
(-0.0883399 -0.0650657 -1.43405e-20)
(-0.105149 -0.0846082 0)
(-0.121337 -0.104616 0)
(-0.136668 -0.125479 0)
(-0.150953 -0.147503 0)
(-0.16403 -0.170831 0)
(-0.175749 -0.195424 -2.22271e-22)
(-0.185958 -0.221076 -9.28251e-21)
(-0.194497 -0.247428 1.7842e-20)
(-0.20119 -0.273973 2.49019e-20)
(-0.205849 -0.300058 7.97367e-21)
(-0.20828 -0.324883 0)
(-0.208303 -0.347517 6.7161e-21)
(-0.205779 -0.366927 -1.90015e-20)
(-0.200571 -0.382037 -1.18106e-20)
(-0.192453 -0.391754 -1.09755e-20)
(-0.181362 -0.394974 0)
(-0.16839 -0.390901 0)
(-0.00358819 0.0168766 -2.76762e-20)
(-0.0121152 0.0277823 4.76209e-20)
(-0.0252103 0.0242877 -1.8367e-20)
(-0.0405089 0.012438 -3.45388e-20)
(-0.056805 -0.00373788 4.85768e-20)
(-0.0735352 -0.0218911 -3.08952e-20)
(-0.0902533 -0.0409344 4.33981e-20)
(-0.10659 -0.0606142 2.80734e-20)
(-0.122266 -0.0811185 0)
(-0.137073 -0.102768 -2.41928e-20)
(-0.150861 -0.125833 -1.91388e-22)
(-0.163513 -0.150443 2.13257e-20)
(-0.174933 -0.176568 3.12137e-20)
(-0.18503 -0.204025 3.88113e-20)
(-0.193715 -0.232484 -1.78808e-20)
(-0.200895 -0.261469 -5.08865e-20)
(-0.206473 -0.290354 1.61341e-20)
(-0.210352 -0.318357 -6.00901e-20)
(-0.212458 -0.344545 0)
(-0.212763 -0.367859 1.26832e-20)
(-0.211201 -0.387153 1.1798e-20)
(-0.20746 -0.401219 1.09639e-20)
(-0.201453 -0.40881 0)
(-0.195422 -0.409005 0)
(-0.0054152 0.0222991 0)
(-0.0153871 0.0406027 9.94325e-20)
(-0.0284203 0.042073 -3.74251e-20)
(-0.0428278 0.0334802 3.51475e-20)
(-0.0577457 0.0193294 -1.01305e-19)
(-0.0727686 0.00231355 0)
(-0.0875202 -0.016218 -6.05389e-20)
(-0.101663 -0.03582 2.8896e-20)
(-0.114934 -0.0565414 -5.51635e-20)
(-0.127144 -0.0786081 2.71673e-20)
(-0.13816 -0.102251 1.46619e-19)
(-0.147894 -0.127586 -6.89034e-20)
(-0.156286 -0.154591 -1.07505e-19)
(-0.163302 -0.183103 -4.15713e-20)
(-0.168922 -0.212825 1.9062e-22)
(-0.173145 -0.243317 1.42453e-19)
(-0.175982 -0.273992 -6.66776e-20)
(-0.177461 -0.304108 -1.1051e-21)
(-0.177638 -0.332767 0)
(-0.176628 -0.358916 -5.26325e-20)
(-0.174493 -0.381355 0)
(-0.170885 -0.398775 -4.15604e-20)
(-0.165466 -0.409884 1.55399e-19)
(-0.1616 -0.413837 -2.60906e-21)
(-0.00759944 0.0267936 0)
(-0.0192034 0.0517584 1.29822e-21)
(-0.031692 0.0580751 3.93216e-20)
(-0.0443247 0.0528651 -3.74564e-20)
(-0.0567112 0.0409333 3.37259e-20)
(-0.0686614 0.0252552 1.9864e-19)
(-0.0799075 0.00743604 -6.21983e-20)
(-0.0901518 -0.0118658 -6.02537e-20)
(-0.0991251 -0.032536 1.12305e-19)
(-0.106645 -0.0547113 -1.59157e-19)
(-0.112589 -0.0785444 5.10728e-20)
(-0.116861 -0.104123 4.86533e-20)
(-0.119419 -0.131418 0)
(-0.120264 -0.160271 4.14971e-20)
(-0.119438 -0.190391 0)
(-0.117028 -0.221351 7.56774e-20)
(-0.113168 -0.252587 -1.36911e-19)
(-0.108036 -0.283399 3.38912e-20)
(-0.10186 -0.312945 1.18247e-19)
(-0.0949348 -0.340239 5.2578e-20)
(-0.087561 -0.364113 0)
(-0.0795974 -0.383208 -1.2581e-19)
(-0.070156 -0.396161 4.06077e-20)
(-0.0617309 -0.40226 0)
(-0.00989289 0.0298797 0)
(-0.0231564 0.0601835 -1.25985e-19)
(-0.0346717 0.0709122 -4.06739e-20)
(-0.0447711 0.0690611 -7.58353e-20)
(-0.0536136 0.0594891 7.14103e-20)
(-0.0612624 0.0453409 -6.68871e-20)
(-0.0675795 0.0284355 1.29597e-19)
(-0.072325 0.00964124 6.14031e-20)
(-0.0752605 -0.0107642 -1.72881e-19)
(-0.0761637 -0.0327898 1.10872e-19)
(-0.0748757 -0.0565048 -1.56098e-19)
(-0.0713119 -0.0819544 3.49441e-19)
(-0.0654291 -0.109081 -1.86661e-19)
(-0.0572492 -0.137703 8.94402e-20)
(-0.046865 -0.167505 2.48347e-19)
(-0.0344502 -0.198034 -7.71769e-20)
(-0.0202667 -0.228703 -7.46181e-20)
(-0.00466507 -0.258808 -6.63237e-20)
(0.0119253 -0.287542 0)
(0.0289949 -0.314002 -1.05207e-19)
(0.0459376 -0.337175 -8.78137e-20)
(0.0622799 -0.355848 1.32974e-19)
(0.0786646 -0.368435 1.4093e-19)
(0.0985348 -0.372698 -1.32104e-19)
(-0.012014 0.0312883 0)
(-0.0267774 0.0651621 -1.75112e-19)
(-0.0369832 0.0795405 -1.70977e-21)
(-0.0439853 0.0808131 1.55181e-19)
(-0.0484911 0.073622 0)
(-0.0508322 0.0611348 0)
(-0.0510236 0.0453068 0)
(-0.0489001 0.02718 -6.29289e-20)
(-0.0442351 0.00720238 -1.22381e-21)
(-0.0368095 -0.014486 1.13179e-19)
(-0.0264382 -0.0378844 -1.60578e-19)
(-0.0130125 -0.0629644 -3.94399e-22)
(0.00350063 -0.08962 0)
(0.0230455 -0.117626 -8.93832e-20)
(0.045461 -0.146617 8.53963e-20)
(0.0704651 -0.176085 -2.38462e-19)
(0.0976456 -0.205382 2.89847e-19)
(0.126461 -0.233745 6.13213e-20)
(0.15626 -0.260328 -9.7544e-21)
(0.186309 -0.284252 -2.22524e-19)
(0.215753 -0.304653 -9.57133e-20)
(0.243874 -0.320579 2.85576e-19)
(0.270086 -0.330551 -1.85233e-19)
(0.303505 -0.330397 0)
(-0.0137108 0.0310003 8.77876e-20)
(-0.0296213 0.0664231 8.80895e-20)
(-0.0382674 0.0833766 -8.53523e-20)
(-0.0418074 0.0872653 -1.60013e-19)
(-0.0414195 0.0822784 1.50666e-19)
(-0.0376875 0.0714545 -1.43887e-19)
(-0.0307893 0.0567886 2.04008e-19)
(-0.0206514 0.0394452 -6.32816e-20)
(-0.00707883 0.0200205 1.22027e-19)
(0.0101342 -0.00122353 0)
(0.0311671 -0.0241679 1.12425e-19)
(0.0561301 -0.048703 -2.10053e-19)
(0.0850118 -0.0746586 1.97061e-19)
(0.11767 -0.101749 -1.85081e-19)
(0.153808 -0.129548 0)
(0.192951 -0.157487 1.60026e-19)
(0.234452 -0.184859 2.91865e-19)
(0.277499 -0.210852 -2.73539e-19)
(0.321155 -0.234589 -1.21112e-19)
(0.36444 -0.255177 -1.02295e-19)
(0.406202 -0.271847 2.92742e-19)
(0.446338 -0.283611 7.43953e-20)
(0.480223 -0.290805 -7.682e-20)
(0.529149 -0.285746 5.77901e-20)
(-0.0148179 0.0292358 -8.77994e-20)
(-0.0313407 0.0641623 2.75697e-19)
(-0.0382041 0.0823604 -8.72708e-20)
(-0.0380478 0.0880619 1.63483e-19)
(-0.0323763 0.0848505 -1.5393e-19)
(-0.0219802 0.0755067 5.55491e-22)
(-0.00719083 0.0619671 6.93729e-20)
(0.011962 0.0454529 2.66118e-19)
(0.0356113 0.0266688 2.27244e-21)
(0.0639348 0.00599871 -1.16705e-19)
(0.097067 -0.0163166 0)
(0.13504 -0.0400736 -1.06846e-19)
(0.17772 -0.0650132 1.99139e-19)
(0.224769 -0.0907702 1.86182e-19)
(0.275617 -0.11685 -8.78831e-20)
(0.329445 -0.142628 -8.54073e-23)
(0.385207 -0.167364 -7.38696e-20)
(0.441679 -0.190249 1.33299e-19)
(0.497523 -0.210455 1.21058e-19)
(0.551499 -0.227143 -1.07653e-19)
(0.601896 -0.239854 9.26084e-20)
(0.649992 -0.247025 -7.98299e-20)
(0.68616 -0.251793 0)
(0.742908 -0.242468 -5.76978e-20)
(-0.0152862 0.0263886 9.10535e-20)
(-0.0317317 0.0589636 -9.25682e-20)
(-0.0365088 0.076936 8.88739e-20)
(-0.0323951 0.0833995 0)
(-0.0210541 0.0812853 0)
(-0.0034083 0.07304 1.50835e-19)
(0.020088 0.0604634 -1.40048e-19)
(0.0493035 0.0447713 1.34929e-19)
(0.0842866 0.0267414 -6.30861e-19)
(0.125126 0.00686696 -5.53569e-22)
(0.171831 -0.0145002 1.12949e-19)
(0.224234 -0.037041 0)
(0.281912 -0.0603927 -1.99531e-19)
(0.344131 -0.0841041 3.73331e-19)
(0.409826 -0.107619 -2.61542e-19)
(0.477624 -0.130288 -3.96249e-19)
(0.545907 -0.151396 9.26552e-21)
(0.612928 -0.170209 2.67271e-19)
(0.676913 -0.186049 0)
(0.736421 -0.198208 0)
(0.789403 -0.206705 -9.25938e-20)
(0.837954 -0.20951 7.98189e-20)
(0.871034 -0.211809 -2.54449e-19)
(0.922744 -0.199467 2.38711e-19)
(-0.0151728 0.0229235 0)
(-0.030704 0.0516512 0)
(-0.0328656 0.067953 -2.68226e-19)
(-0.0242928 0.0740033 8.49617e-20)
(-0.00665049 0.0721482 -2.99624e-22)
(0.01909 0.064488 1.51494e-19)
(0.0523937 0.0526462 0)
(0.0930281 0.0377936 -1.34438e-19)
(0.140905 0.0207459 1.2651e-19)
(0.195912 0.00208441 -2.40283e-19)
(0.257757 -0.0177295 -1.62293e-22)
(0.325839 -0.0382684 2.12313e-19)
(0.399161 -0.0590803 -1.07206e-21)
(0.476297 -0.07966 1.82106e-19)
(0.555428 -0.0994478 -2.60859e-19)
(0.634434 -0.117851 0)
(0.711062 -0.134281 2.81306e-19)
(0.783104 -0.148193 -3.94888e-19)
(0.848595 -0.159148 1.1344e-19)
(0.906083 -0.166722 0)
(0.954088 -0.171171 8.74058e-20)
(0.994276 -0.170793 2.9392e-19)
(1.01909 -0.170974 -2.75873e-19)
(1.05447 -0.15757 -2.65936e-19)
(-0.0145905 0.0192693 2.82661e-19)
(-0.0281959 0.0431034 -3.8831e-19)
(-0.0268198 0.0564967 5.7959e-22)
(-0.0128051 0.061037 8.64065e-20)
(0.0122934 0.0586315 -1.61876e-19)
(0.0475201 0.0510832 -1.50956e-19)
(0.0922789 0.0398446 2.86257e-19)
(0.146184 0.0260198 3.79078e-22)
(0.208875 0.0104378 -2.53857e-19)
(0.279803 -0.00625688 4.79186e-19)
(0.358055 -0.0235297 4.54285e-22)
(0.442224 -0.0408967 -2.11453e-19)
(0.530372 -0.05789 0)
(0.620091 -0.0740483 0)
(0.708654 -0.0889253 -8.50612e-20)
(0.793239 -0.102111 -1.51848e-19)
(0.871192 -0.113255 -2.73379e-19)
(0.94026 -0.122098 2.56636e-19)
(0.998835 -0.128453 -1.13499e-19)
(1.04599 -0.132288 1.901e-19)
(1.08161 -0.1337 -1.0048e-19)
(1.10683 -0.13212 1.30492e-19)
(1.11965 -0.131058 -3.31227e-19)
(1.13448 -0.119308 5.50077e-20)
(-0.0136172 0.0157238 9.55103e-20)
(-0.0240231 0.0340709 0)
(-0.0176309 0.043696 1.84664e-19)
(0.003501 0.0459398 -1.73951e-19)
(0.0379593 0.0424454 1.62023e-19)
(0.0848062 0.0348028 0)
(0.14331 0.0243206 0)
(0.212752 0.012032 -1.35526e-19)
(0.292192 -0.00124819 2.6947e-24)
(0.380239 -0.0148744 1.19378e-19)
(0.474896 -0.0283272 -1.10955e-19)
(0.573536 -0.0411829 2.09785e-19)
(0.673011 -0.0530987 0)
(0.769891 -0.0638059 3.54786e-19)
(0.860771 -0.0731083 -6.57295e-19)
(0.942616 -0.0808789 4.56318e-19)
(1.01304 -0.0870517 2.64169e-19)
(1.07053 -0.0916302 -2.48007e-19)
(1.11454 -0.0946098 0)
(1.14535 -0.0962101 0)
(1.16434 -0.0961679 0)
(1.17282 -0.0953605 0)
(1.17336 -0.093372 6.30627e-20)
(1.17117 -0.0867171 -2.05051e-19)
(-0.152907 -0.37825 -6.98015e-21)
(-0.125953 -0.349889 7.00544e-21)
(-0.0927753 -0.304186 -2.05976e-22)
(-0.0534995 -0.241368 0)
(-0.00881438 -0.161999 -6.79953e-21)
(0.0400334 -0.068156 1.31761e-20)
(0.0919403 0.0380817 -1.64803e-22)
(0.145526 0.15182 -6.04468e-21)
(0.1997 0.266703 0)
(0.253324 0.374066 0)
(0.304891 0.46564 -2.39785e-22)
(0.351698 0.534352 -2.01967e-22)
(0.390358 0.577292 -2.80496e-21)
(0.417082 0.597915 2.56221e-21)
(0.427744 0.605733 0)
(0.420996 0.610034 0)
(0.403988 0.608755 1.86424e-21)
(0.393366 0.583129 1.85352e-22)
(0.406774 0.507999 -1.80627e-21)
(0.450005 0.371456 -1.49972e-22)
(0.514801 0.184242 0)
(0.588259 -0.0256794 0)
(0.659262 -0.221912 0)
(0.718764 -0.371684 0)
(0.761475 -0.461845 0)
(0.785528 -0.500836 0)
(0.794047 -0.505755 3.01394e-22)
(0.79295 -0.492602 -4.94535e-22)
(0.781753 -0.481502 0)
(0.752717 -0.488233 0)
(0.706915 -0.498178 -3.89828e-22)
(0.663413 -0.46398 3.78887e-22)
(0.646536 -0.343204 2.2726e-22)
(0.662435 -0.14995 0)
(0.702015 0.0637038 0)
(0.747119 0.23588 3.93533e-22)
(0.789787 0.344975 -3.82526e-22)
(0.822523 0.393447 0)
(0.838451 0.418945 2.19575e-22)
(0.824787 0.444504 -3.16785e-22)
(0.785529 0.456936 1.05627e-22)
(0.741951 0.419325 0)
(0.72467 0.285993 -2.76347e-22)
(0.732791 0.106756 2.68714e-22)
(0.770127 -0.093732 0)
(0.807318 -0.220548 0)
(0.83871 -0.310119 -7.55116e-23)
(0.830133 -0.358004 2.07393e-22)
(0.796025 -0.377058 0)
(0.758091 -0.363199 0)
(0.755301 -0.216487 -5.59978e-23)
(0.774845 -0.0980619 5.08495e-24)
(0.813894 0.104351 -4.25977e-24)
(0.81448 0.212628 3.69064e-23)
(0.806709 0.313304 0)
(0.7895 0.383177 0)
(0.798157 0.227929 0)
(0.793585 0.200584 0)
(0.810469 -0.0890768 0)
(0.789634 -0.220064 0)
(-0.192375 -0.401395 -6.17412e-22)
(-0.180305 -0.380964 -2.56312e-20)
(-0.160648 -0.342576 2.70169e-22)
(-0.133979 -0.286729 2.38326e-20)
(-0.099555 -0.213303 3.34472e-22)
(-0.0576514 -0.123798 0)
(-0.00951438 -0.0212853 -2.09155e-20)
(0.0427503 0.0900677 4.03083e-20)
(0.0974464 0.206777 -1.93921e-20)
(0.15365 0.316233 1.56591e-20)
(0.210227 0.412437 -1.49798e-20)
(0.263834 0.489111 1.12504e-20)
(0.310316 0.543624 -1.09084e-20)
(0.3451 0.578813 -2.60246e-22)
(0.364856 0.601434 -7.74401e-21)
(0.371481 0.615406 7.52603e-21)
(0.375405 0.613485 -7.84858e-21)
(0.392771 0.576513 7.37299e-21)
(0.435236 0.485497 -9.79256e-21)
(0.50109 0.336345 2.00755e-20)
(0.579335 0.142745 -1.02421e-20)
(0.658542 -0.0682448 -6.78958e-22)
(0.728759 -0.260608 -8.88306e-21)
(0.781334 -0.40205 1.58032e-20)
(0.813204 -0.481151 -6.96886e-21)
(0.825522 -0.509383 2.98319e-22)
(0.822718 -0.50661 3.45761e-21)
(0.811675 -0.488082 -3.49966e-22)
(0.793996 -0.470219 -5.28133e-21)
(0.761662 -0.468752 5.01805e-21)
(0.71188 -0.475167 -2.46614e-21)
(0.66042 -0.447694 3.38181e-22)
(0.632926 -0.341431 -2.27713e-22)
(0.640387 -0.162302 4.32156e-22)
(0.675821 0.043179 0)
(0.722163 0.214267 0)
(0.770011 0.327003 -1.15916e-21)
(0.809989 0.382316 8.79897e-22)
(0.831331 0.417558 6.55521e-22)
(0.821656 0.453152 1.17471e-22)
(0.78709 0.470677 -9.44905e-22)
(0.749749 0.430348 2.61145e-22)
(0.739193 0.289072 0)
(0.749593 0.10118 0)
(0.786524 -0.104341 0)
(0.819283 -0.230719 0)
(0.848741 -0.313268 3.52309e-22)
(0.838298 -0.352381 -1.34075e-22)
(0.8029 -0.367392 0)
(0.763522 -0.357696 0)
(0.757139 -0.218788 0)
(0.775853 -0.105311 -8.50616e-23)
(0.810218 0.099557 1.54373e-23)
(0.810847 0.212978 -8.28159e-23)
(0.802306 0.315769 0)
(0.785892 0.384214 0)
(0.798161 0.226865 5.68005e-23)
(0.794974 0.199391 1.81354e-22)
(0.816578 -0.0882493 0)
(0.79426 -0.218599 0)
(-0.168374 -0.410727 -1.75908e-21)
(-0.174821 -0.39926 -4.73132e-20)
(-0.172303 -0.369904 4.3438e-20)
(-0.163337 -0.323461 -4.0698e-20)
(-0.145274 -0.258898 -3.36805e-22)
(-0.117666 -0.177112 0)
(-0.0805992 -0.0808805 -3.44295e-20)
(-0.0332011 0.0260321 3.36141e-20)
(0.0178997 0.140315 2.63743e-22)
(0.0708322 0.251957 3.70634e-22)
(0.128434 0.352515 3.27007e-22)
(0.1854 0.43727 3.52447e-22)
(0.237161 0.503534 -1.70331e-20)
(0.279507 0.552489 1.68151e-20)
(0.310854 0.587138 0)
(0.335474 0.606692 4.23754e-22)
(0.364279 0.601207 -1.59705e-20)
(0.410077 0.553828 1.57735e-20)
(0.478047 0.452187 0)
(0.561545 0.297537 0)
(0.649468 0.103931 -2.35875e-20)
(0.732123 -0.103763 4.51616e-20)
(0.800017 -0.289709 -3.95711e-20)
(0.844692 -0.422234 3.6649e-21)
(0.865114 -0.491594 2.55901e-20)
(0.865716 -0.511194 -2.01018e-20)
(0.852343 -0.502706 1.46634e-20)
(0.832032 -0.480752 -1.41317e-21)
(0.808224 -0.457789 -5.30481e-21)
(0.773548 -0.448643 0)
(0.721477 -0.450949 0)
(0.663459 -0.429842 2.12407e-21)
(0.625513 -0.338903 -2.67515e-21)
(0.623622 -0.175548 -6.5149e-23)
(0.653821 0.0205244 3.00035e-21)
(0.7007 0.189545 -2.9159e-21)
(0.752997 0.3057 0)
(0.799487 0.368426 2.47851e-22)
(0.82594 0.414048 1.93959e-21)
(0.820623 0.460007 -3.86028e-21)
(0.791437 0.482852 1.72128e-21)
(0.760609 0.44056 2.92546e-22)
(0.756729 0.292646 -3.28881e-21)
(0.769472 0.0975634 2.56135e-21)
(0.805673 -0.112462 6.16328e-22)
(0.833545 -0.239066 4.85435e-22)
(0.860523 -0.315423 -3.5319e-22)
(0.848196 -0.346328 0)
(0.811624 -0.357415 0)
(0.770854 -0.352228 -7.42298e-22)
(0.760819 -0.22121 3.64154e-22)
(0.77856 -0.112602 -3.11427e-22)
(0.808226 0.0946661 4.57606e-22)
(0.808846 0.213213 5.58778e-22)
(0.799167 0.317946 -1.49333e-22)
(0.783249 0.385044 2.58665e-22)
(0.79924 0.2254 -2.47597e-22)
(0.797598 0.197732 1.42516e-22)
(0.823922 -0.087493 0)
(0.79993 -0.217029 0)
(-0.0749475 -0.401833 -8.92691e-20)
(-0.0999519 -0.398688 7.32793e-21)
(-0.115722 -0.379196 7.74038e-20)
(-0.127056 -0.343724 -5.89123e-22)
(-0.12996 -0.29054 0)
(-0.122621 -0.219718 0)
(-0.104159 -0.13302 -5.2232e-20)
(-0.0719878 -0.0333045 2.5431e-21)
(-0.0301747 0.0734888 6.80949e-20)
(0.015279 0.185193 -1.76429e-21)
(0.0672427 0.28819 -1.9475e-20)
(0.123574 0.379809 -1.50332e-20)
(0.178574 0.45616 1.50193e-20)
(0.228696 0.516083 0)
(0.27368 0.55909 -1.3039e-20)
(0.318432 0.581108 1.1863e-20)
(0.372151 0.571553 0)
(0.443134 0.517187 0)
(0.531118 0.411419 2.08886e-20)
(0.627128 0.258198 2.66909e-21)
(0.721248 0.069324 -2.1579e-20)
(0.805731 -0.132225 -2.289e-20)
(0.870888 -0.310452 2.28332e-20)
(0.90758 -0.434026 -1.58616e-20)
(0.916569 -0.494798 3.61362e-21)
(0.905676 -0.507496 1.13587e-20)
(0.882556 -0.494739 9.2404e-22)
(0.85382 -0.470931 1.02413e-23)
(0.824041 -0.444823 0)
(0.787526 -0.42883 4.09333e-21)
(0.735001 -0.425866 -4.207e-21)
(0.672538 -0.409586 2.91054e-22)
(0.624697 -0.334255 0)
(0.612663 -0.188542 -3.71696e-22)
(0.636523 -0.0034448 5.17928e-21)
(0.682954 0.162183 -8.96499e-21)
(0.73873 0.281378 7.05603e-23)
(0.790864 0.351835 2.78648e-22)
(0.822139 0.408123 2.93964e-21)
(0.821484 0.464567 4.19432e-22)
(0.798166 0.493073 -4.2154e-21)
(0.773937 0.449906 3.53881e-21)
(0.776639 0.296956 -3.41577e-23)
(0.791842 0.0960349 2.73831e-21)
(0.827169 -0.117976 -3.2803e-21)
(0.849926 -0.245583 -3.28178e-21)
(0.873891 -0.316752 9.66549e-22)
(0.859604 -0.340018 9.83182e-22)
(0.821912 -0.347137 -1.74492e-21)
(0.779762 -0.346599 1.13616e-21)
(0.766015 -0.223604 -3.17006e-22)
(0.782752 -0.119913 3.38711e-22)
(0.807839 0.0896285 2.59293e-22)
(0.80845 0.213342 -7.83729e-22)
(0.79732 0.319892 -7.64457e-24)
(0.781649 0.385705 -2.70863e-22)
(0.801436 0.223537 0)
(0.801479 0.195606 -1.29673e-22)
(0.832484 -0.0867934 3.75168e-22)
(0.806626 -0.215333 0)
(0.0822536 -0.375797 8.30881e-20)
(0.0423684 -0.377879 -1.5264e-19)
(0.0102771 -0.367242 6.90881e-20)
(-0.0198228 -0.34242 5.27074e-20)
(-0.0444465 -0.301537 -9.72538e-20)
(-0.0606213 -0.243601 4.5564e-21)
(-0.0655197 -0.170236 3.93688e-20)
(-0.0560536 -0.0809199 3.09239e-20)
(-0.031022 0.0177779 -3.03422e-20)
(0.000822765 0.120399 0)
(0.0410906 0.22229 -2.3707e-20)
(0.0920144 0.31755 4.45745e-20)
(0.147083 0.400488 -2.1086e-20)
(0.203424 0.467717 0)
(0.26114 0.515982 0)
(0.324182 0.539128 3.83374e-22)
(0.398901 0.527097 -2.96808e-20)
(0.489097 0.47039 2.88297e-20)
(0.590542 0.366682 0)
(0.69378 0.220253 4.73444e-20)
(0.791705 0.0395646 -9.2017e-20)
(0.877641 -0.153464 9.06674e-20)
(0.939736 -0.322621 -8.33441e-20)
(0.968335 -0.436939 6.5651e-21)
(0.966198 -0.490279 5.44667e-20)
(0.944378 -0.498186 -2.35166e-20)
(0.912563 -0.482923 -4.6537e-22)
(0.876654 -0.458684 -4.75554e-21)
(0.841372 -0.431434 8.00148e-22)
(0.803241 -0.410171 4.04654e-21)
(0.751682 -0.401319 2.32443e-22)
(0.687209 -0.387747 -3.82769e-21)
(0.630851 -0.327087 8.01666e-21)
(0.608154 -0.200079 -4.67558e-21)
(0.624331 -0.0278834 0)
(0.669006 0.132655 -4.40983e-21)
(0.727112 0.254269 4.21471e-21)
(0.783883 0.33243 -2.7885e-21)
(0.819676 0.399366 3.46477e-21)
(0.823917 0.466356 -4.00195e-22)
(0.806794 0.501058 0)
(0.789112 0.458417 -5.97878e-22)
(0.798163 0.302112 2.13794e-21)
(0.816022 0.0966307 0)
(0.850575 -0.120775 6.24623e-21)
(0.868177 -0.250099 -2.63508e-21)
(0.888632 -0.31717 7.59675e-22)
(0.872327 -0.333463 5.42197e-22)
(0.833531 -0.336565 0)
(0.789942 -0.340724 0)
(0.772392 -0.225896 -8.20216e-22)
(0.788174 -0.127252 1.21743e-21)
(0.808931 0.0843878 -6.74632e-22)
(0.809603 0.213357 2.07023e-22)
(0.796795 0.321661 4.63255e-22)
(0.781174 0.386223 2.71124e-22)
(0.804776 0.22128 -5.5966e-22)
(0.806628 0.192993 0)
(0.842236 -0.0861356 -5.44948e-22)
(0.814317 -0.213488 -1.44402e-22)
(0.283193 -0.336593 7.85613e-20)
(0.238011 -0.339619 -7.78929e-20)
(0.193936 -0.334058 4.85628e-22)
(0.150397 -0.316972 -3.41139e-22)
(0.1088 -0.287612 3.33386e-22)
(0.0705449 -0.24464 -2.84209e-22)
(0.0417264 -0.186329 2.95446e-22)
(0.0272807 -0.112059 0)
(0.026325 -0.0272556 -1.80658e-22)
(0.0379244 0.0630858 1.39004e-22)
(0.0644247 0.160035 1.21489e-22)
(0.104393 0.25392 -2.7017e-22)
(0.154653 0.338777 0)
(0.212868 0.40945 0)
(0.278734 0.460532 1.92795e-22)
(0.354456 0.484588 0)
(0.443303 0.472439 -3.42787e-22)
(0.545217 0.417703 0)
(0.653492 0.320729 -3.92208e-20)
(0.759794 0.184619 8.28509e-20)
(0.85994 0.0148171 -8.89683e-20)
(0.946679 -0.167933 4.52667e-20)
(1.00519 -0.326749 3.83366e-20)
(1.02556 -0.431717 -3.72246e-20)
(1.01295 -0.478885 -2.43729e-20)
(0.981185 -0.484044 2.34813e-20)
(0.941827 -0.467953 0)
(0.900091 -0.444337 3.37846e-22)
(0.859917 -0.417571 0)
(0.820148 -0.392986 0)
(0.770524 -0.378247 5.64422e-21)
(0.706547 -0.365028 -5.81752e-21)
(0.643858 -0.317088 3.52647e-22)
(0.610561 -0.209414 5.06342e-22)
(0.617599 -0.0525701 -4.07855e-22)
(0.658897 0.101441 -3.21948e-21)
(0.717963 0.224605 3.1262e-21)
(0.778253 0.310108 -3.22167e-21)
(0.818253 0.387405 2.76691e-21)
(0.827516 0.464945 7.8728e-22)
(0.81676 0.506573 -4.39747e-21)
(0.805446 0.466048 -1.798e-21)
(0.820518 0.308093 3.84443e-21)
(0.841315 0.099535 0)
(0.875369 -0.120768 -2.81642e-21)
(0.887994 -0.252483 2.74436e-21)
(0.904489 -0.316646 -3.70991e-21)
(0.886139 -0.326719 -5.45626e-22)
(0.84625 -0.325688 0)
(0.801112 -0.334467 2.5939e-22)
(0.779626 -0.228012 -5.29803e-22)
(0.794537 -0.134654 -3.87602e-23)
(0.811332 0.0788572 -1.29386e-22)