/*--------------------------------*- C++ -*----------------------------------*\
| =========                 |                                                 |
| \\      /  F ield         | OpenFOAM: The Open Source CFD Toolbox           |
|  \\    /   O peration     | Version:  2512                                  |
|   \\  /    A nd           | Website:  www.openfoam.com                      |
|    \\/     M anipulation  |                                                 |
\*---------------------------------------------------------------------------*/
FoamFile
{
    version     2.0;
    format      ascii;
    arch        "LSB;label=32;scalar=64";
    class       volScalarField;
    location    "189";
    object      p;
}
// * * * * * * * * * * * * * * * * * * * * * * * * * * * * * * * * * * * * * //

dimensions      [0 2 -2 0 0 0 0];

internalField   nonuniform List<scalar> 
13248
(
-0.475882
-0.472586
-0.469022
-0.465467
-0.462244
-0.459694
-0.457967
-0.456986
-0.456466
-0.455948
-0.454847
-0.452529
-0.448394
-0.441964
-0.432935
-0.421218
-0.406927
-0.390343
-0.371847
-0.351871
-0.330711
-0.308773
-0.285261
-0.260931
-0.484887
-0.481024
-0.476816
-0.472547
-0.468512
-0.465014
-0.462144
-0.459746
-0.457462
-0.454782
-0.451132
-0.445967
-0.438852
-0.429527
-0.417929
-0.404178
-0.388535
-0.37134
-0.352955
-0.333712
-0.313874
-0.293681
-0.273017
-0.252639
-0.495726
-0.491045
-0.486085
-0.481072
-0.476202
-0.471689
-0.46752
-0.463443
-0.459038
-0.453805
-0.44727
-0.439065
-0.428988
-0.417018
-0.403294
-0.388067
-0.371644
-0.354335
-0.336421
-0.31814
-0.299666
-0.281193
-0.262641
-0.244414
-0.508541
-0.502793
-0.496956
-0.491129
-0.485322
-0.47961
-0.47385
-0.467704
-0.460746
-0.452581
-0.442924
-0.431654
-0.418812
-0.404572
-0.389192
-0.372956
-0.356132
-0.338953
-0.321608
-0.304248
-0.286995
-0.269983
-0.253178
-0.236975
-0.523287
-0.51626
-0.509423
-0.502665
-0.49573
-0.488515
-0.480754
-0.472077
-0.462155
-0.450792
-0.437965
-0.423804
-0.408546
-0.392474
-0.375868
-0.358969
-0.341969
-0.325011
-0.308201
-0.291622
-0.275343
-0.259434
-0.243881
-0.228918
-0.539759
-0.531311
-0.523366
-0.515515
-0.507162
-0.498016
-0.487744
-0.47605
-0.462816
-0.448128
-0.432236
-0.415472
-0.398178
-0.380655
-0.363135
-0.34578
-0.328695
-0.311948
-0.295581
-0.279625
-0.264111
-0.249063
-0.234482
-0.220508
-0.557606
-0.547672
-0.538525
-0.529359
-0.519188
-0.50757
-0.494221
-0.479065
-0.462296
-0.444311
-0.425585
-0.406563
-0.387597
-0.368934
-0.350723
-0.33304
-0.315914
-0.299352
-0.283348
-0.267897
-0.252993
-0.238632
-0.224814
-0.211575
-0.576301
-0.564894
-0.55445
-0.543669
-0.531168
-0.516466
-0.499499
-0.48055
-0.460187
-0.439077
-0.417828
-0.396897
-0.376574
-0.357013
-0.338268
-0.320339
-0.303194
-0.286793
-0.271096
-0.256068
-0.241679
-0.227904
-0.214737
-0.202124
-0.595108
-0.582311
-0.570455
-0.557673
-0.542257
-0.52387
-0.50286
-0.479977
-0.45614
-0.432198
-0.408783
-0.386279
-0.364872
-0.344608
-0.325459
-0.307357
-0.290224
-0.273986
-0.258574
-0.243929
-0.23
-0.216752
-0.204157
-0.192096
-0.613065
-0.599014
-0.585591
-0.570348
-0.551427
-0.528873
-0.503608
-0.476871
-0.44985
-0.423454
-0.398243
-0.374479
-0.352225
-0.331431
-0.311993
-0.293794
-0.27672
-0.260666
-0.245543
-0.231269
-0.217781
-0.205029
-0.192955
-0.181416
-0.629014
-0.613861
-0.59866
-0.580462
-0.557521
-0.530504
-0.501001
-0.470677
-0.440863
-0.41242
-0.385769
-0.361031
-0.338149
-0.316986
-0.297383
-0.27918
-0.262233
-0.246414
-0.231614
-0.217736
-0.204702
-0.192446
-0.180872
-0.169857
-0.641706
-0.625632
-0.608426
-0.586788
-0.559398
-0.52776
-0.494154
-0.460572
-0.428368
-0.398265
-0.370511
-0.345075
-0.32179
-0.300447
-0.280833
-0.262754
-0.246042
-0.230548
-0.216146
-0.202728
-0.190205
-0.178496
-0.167474
-0.157083
-0.353369
-0.355964
-0.357611
-0.358859
-0.360163
-0.361632
-0.363281
-0.365097
-0.367037
-0.368955
-0.370821
-0.372508
-0.373879
-0.374783
-0.375064
-0.374569
-0.37316
-0.370731
-0.367233
-0.362691
-0.357206
-0.35093
-0.344138
-0.337451
-0.367005
-0.369258
-0.370879
-0.372369
-0.374142
-0.376296
-0.378835
-0.381726
-0.3849
-0.38825
-0.391653
-0.394949
-0.397968
-0.400473
-0.402215
-0.402926
-0.402332
-0.400175
-0.396247
-0.390418
-0.382644
-0.37292
-0.361412
-0.349082
-0.381225
-0.38293
-0.384391
-0.386028
-0.388179
-0.390928
-0.394267
-0.398142
-0.402467
-0.407122
-0.411951
-0.416755
-0.421275
-0.425239
-0.428292
-0.430053
-0.430115
-0.428073
-0.423557
-0.416284
-0.406076
-0.392809
-0.376474
-0.358217
-0.395414
-0.396408
-0.397575
-0.399226
-0.401605
-0.404782
-0.408734
-0.413389
-0.418637
-0.424335
-0.430297
-0.436282
-0.441982
-0.447035
-0.451008
-0.453419
-0.453745
-0.451453
-0.446042
-0.437105
-0.424377
-0.407734
-0.38697
-0.361636
-0.408943
-0.409142
-0.409881
-0.411389
-0.413794
-0.417159
-0.421453
-0.426586
-0.432426
-0.4388
-0.445487
-0.452205
-0.458597
-0.46422
-0.468576
-0.471088
-0.471143
-0.46812
-0.461436
-0.450615
-0.43536
-0.415538
-0.391137
-0.362282
-0.421271
-0.420666
-0.420912
-0.422094
-0.424288
-0.427555
-0.431865
-0.437117
-0.443155
-0.449779
-0.456729
-0.463678
-0.470219
-0.475858
-0.480021
-0.482067
-0.481318
-0.477105
-0.468827
-0.456016
-0.43843
-0.415977
-0.389269
-0.357311
-0.432062
-0.430743
-0.430428
-0.431125
-0.43287
-0.435744
-0.439731
-0.444727
-0.450563
-0.45701
-0.463774
-0.470473
-0.476665
-0.481799
-0.485247
-0.486322
-0.484315
-0.478559
-0.468494
-0.453734
-0.434207
-0.409834
-0.382
-0.348575
-0.441222
-0.439336
-0.438441
-0.43852
-0.439606
-0.441818
-0.445171
-0.449572
-0.454843
-0.460733
-0.466902
-0.472957
-0.478374
-0.482559
-0.484842
-0.484515
-0.480881
-0.473327
-0.461408
-0.444878
-0.423908
-0.398474
-0.370462
-0.337283
-0.448926
-0.446641
-0.445182
-0.444551
-0.44482
-0.446164
-0.448641
-0.45218
-0.456603
-0.461635
-0.466915
-0.471973
-0.476245
-0.479086
-0.479801
-0.477688
-0.472116
-0.462595
-0.448857
-0.430867
-0.40902
-0.383446
-0.356063
-0.324463
-0.455594
-0.453054
-0.451059
-0.449672
-0.449037
-0.449392
-0.450844
-0.453348
-0.456728
-0.460686
-0.464806
-0.468563
-0.471338
-0.47245
-0.471203
-0.466957
-0.459206
-0.447649
-0.432244
-0.41321
-0.391105
-0.366287
-0.340357
-0.3112
-0.461839
-0.459112
-0.456601
-0.45445
-0.45289
-0.45222
-0.452578
-0.453951
-0.456148
-0.458832
-0.461531
-0.46366
-0.464557
-0.463536
-0.459959
-0.453311
-0.443269
-0.429752
-0.412929
-0.39323
-0.371279
-0.347714
-0.323784
-0.297734
-0.468374
-0.465425
-0.46239
-0.459495
-0.457041
-0.455363
-0.454643
-0.45484
-0.455736
-0.456943
-0.457925
-0.458049
-0.456649
-0.453098
-0.446886
-0.43769
-0.425405
-0.410156
-0.392253
-0.372183
-0.350434
-0.327745
-0.304809
-0.281686
-0.330658
-0.324547
-0.321538
-0.321854
-0.325276
-0.330499
-0.337915
-0.340714
-0.33854
-0.329025
-0.309691
-0.2807
-0.244845
-0.20707
-0.172849
-0.146297
-0.129205
-0.121385
-0.122227
-0.132164
-0.151597
-0.177195
-0.19989
-0.208106
-0.196852
-0.170039
-0.137841
-0.109109
-0.0882229
-0.0758836
-0.0707749
-0.071934
-0.0806448
-0.0974488
-0.116138
-0.125564
-0.118906
-0.10102
-0.0820105
-0.0682472
-0.060327
-0.0584325
-0.0642701
-0.0760211
-0.0841595
-0.0807807
-0.0702002
-0.0577596
-0.0482856
-0.0424735
-0.040327
-0.0409844
-0.0401929
-0.0375174
-0.0341912
-0.028927
-0.0212189
-0.0184687
-0.0154721
-0.00692207
-0.33575
-0.320247
-0.307241
-0.297466
-0.29157
-0.289297
-0.289643
-0.289187
-0.287001
-0.278617
-0.263215
-0.240232
-0.211868
-0.182073
-0.155434
-0.135502
-0.123867
-0.120569
-0.125635
-0.140078
-0.164086
-0.19338
-0.217863
-0.22557
-0.211614
-0.181152
-0.145296
-0.113445
-0.0898919
-0.0750798
-0.0676336
-0.0663535
-0.0720936
-0.0856565
-0.101937
-0.110894
-0.105897
-0.0912583
-0.0757121
-0.0651378
-0.0598642
-0.0605631
-0.0691057
-0.0833127
-0.0929487
-0.0888608
-0.0762931
-0.0610526
-0.0493677
-0.0414769
-0.0373644
-0.0366464
-0.0350281
-0.0332734
-0.0308122
-0.0273925
-0.0215093
-0.0199827
-0.0179439
-0.00813152
-0.339542
-0.314988
-0.29207
-0.271883
-0.255796
-0.2446
-0.237665
-0.232998
-0.227486
-0.223973
-0.210644
-0.19413
-0.173771
-0.152296
-0.13346
-0.120245
-0.114068
-0.115262
-0.12452
-0.143261
-0.17132
-0.203639
-0.229617
-0.23732
-0.221705
-0.188749
-0.150278
-0.116092
-0.0904443
-0.0735431
-0.0639895
-0.0604361
-0.0633195
-0.073609
-0.0873881
-0.0958115
-0.0923278
-0.0809344
-0.0687831
-0.0613575
-0.0587509
-0.0620906
-0.0733159
-0.0898963
-0.101022
-0.0963782
-0.081942
-0.0639935
-0.0501789
-0.040409
-0.0345351
-0.0325526
-0.0300426
-0.0290403
-0.0273334
-0.0257939
-0.0217662
-0.0214483
-0.0203749
-0.00933192
-0.341009
-0.308319
-0.276821
-0.247089
-0.221127
-0.200948
-0.186438
-0.176362
-0.168644
-0.161325
-0.152865
-0.14413
-0.131849
-0.118455
-0.107107
-0.100289
-0.0992553
-0.104701
-0.117941
-0.140629
-0.172265
-0.207246
-0.234706
-0.242902
-0.226775
-0.192606
-0.152671
-0.11706
-0.0899823
-0.0714778
-0.0601362
-0.0545411
-0.0547844
-0.0619134
-0.0731209
-0.0808348
-0.0785762
-0.0703675
-0.0614057
-0.0569766
-0.0569399
-0.0628365
-0.0766212
-0.0954712
-0.108104
-0.103133
-0.0870372
-0.0665466
-0.050717
-0.0392785
-0.0318616
-0.0287461
-0.0252874
-0.0248689
-0.023792
-0.0241482
-0.0219912
-0.0228487
-0.0227396
-0.0105101
-0.336781
-0.299553
-0.261618
-0.224478
-0.190112
-0.162704
-0.140833
-0.124378
-0.113073
-0.103682
-0.105956
-0.0937576
-0.0875812
-0.0811755
-0.0765732
-0.0755866
-0.0792977
-0.0888386
-0.105943
-0.13229
-0.167045
-0.204295
-0.233162
-0.242374
-0.226855
-0.192801
-0.152645
-0.11656
-0.0886985
-0.0690712
-0.0563071
-0.0489834
-0.0468656
-0.0510102
-0.0596533
-0.0664889
-0.064956
-0.0598699
-0.0537447
-0.0520395
-0.0543692
-0.0626417
-0.0788029
-0.099776
-0.113927
-0.108903
-0.0914724
-0.0686931
-0.0509952
-0.0380956
-0.0293517
-0.0252522
-0.0208091
-0.0208096
-0.0202263
-0.0224714
-0.0221852
-0.0241665
-0.0250085
-0.0116507
-0.32902
-0.289491
-0.248135
-0.207156
-0.168061
-0.133352
-0.104303
-0.0814401
-0.0649105
-0.0538998
-0.0505027
-0.0425802
-0.0429961
-0.0421318
-0.0431331
-0.0471651
-0.0552994
-0.0688823
-0.0897498
-0.11937
-0.156577
-0.195487
-0.225709
-0.236289
-0.22222
-0.18952
-0.150403
-0.114793
-0.086779
-0.0664767
-0.0526488
-0.0439196
-0.0398235
-0.0412554
-0.0474042
-0.0532893
-0.051759
-0.0497406
-0.0459631
-0.0466068
-0.051029
-0.0614272
-0.0797123
-0.102602
-0.118271
-0.11351
-0.09516
-0.0704176
-0.0510268
-0.0368627
-0.0269993
-0.022082
-0.0166451
-0.0169055
-0.0166724
-0.0207759
-0.0223465
-0.0253831
-0.027152
-0.0127395
-0.31874
-0.279156
-0.237924
-0.196231
-0.155121
-0.116593
-0.0824753
-0.0540051
-0.0320011
-0.0167257
-0.00925335
-0.00743736
-0.00385476
-0.00513872
-0.00973952
-0.0176556
-0.0296589
-0.0469903
-0.0712537
-0.103499
-0.142317
-0.182172
-0.213387
-0.225407
-0.213451
-0.18319
-0.146237
-0.111976
-0.0843966
-0.0638192
-0.0492489
-0.0394208
-0.0337219
-0.0328183
-0.0366277
-0.0417321
-0.0451474
-0.0403459
-0.0382414
-0.0408004
-0.0469782
-0.0591703
-0.079257
-0.103841
-0.121008
-0.116818
-0.098024
-0.0717022
-0.0508223
-0.0355828
-0.0247889
-0.0192248
-0.012821
-0.0131926
-0.0131639
-0.0190699
-0.0224713
-0.0264796
-0.0291432
-0.0137656
-0.307115
-0.269233
-0.23094
-0.191402
-0.151004
-0.111749
-0.075394
-0.0432545
-0.0165313
0.00387697
0.0171808
0.0242483
0.027482
0.0256125
0.0195515
0.00937423
-0.00538496
-0.0256373
-0.0524773
-0.0863975
-0.125842
-0.165787
-0.19736
-0.210687
-0.201282
-0.174298
-0.140422
-0.108261
-0.0816467
-0.0611626
-0.0461432
-0.0355021
-0.0285549
-0.025723
-0.0273878
-0.0313415
-0.0338608
-0.0313983
-0.0307612
-0.0347715
-0.0423167
-0.0559277
-0.0774299
-0.103474
-0.122088
-0.118719
-0.100012
-0.0725394
-0.0503959
-0.0342671
-0.0227164
-0.0166605
-0.00934364
-0.00969855
-0.00973177
-0.0173583
-0.0225551
-0.027438
-0.0309606
-0.0147199
-0.294924
-0.260047
-0.226343
-0.190748
-0.153111
-0.115472
-0.0793869
-0.0459544
-0.0163546
0.00829313
0.0270081
0.0395075
0.04604
0.0461718
0.0410758
0.0307167
0.0149106
-0.00683726
-0.0349849
-0.0694124
-0.108434
-0.147559
-0.178819
-0.193153
-0.186548
-0.163463
-0.133369
-0.103909
-0.0787222
-0.0586698
-0.0434624
-0.0322584
-0.0243684
-0.0199985
-0.0197445
-0.0223956
-0.0242627
-0.0232601
-0.0237099
-0.0287064
-0.0371797
-0.0517325
-0.0742884
-0.101563
-0.121541
-0.119176
-0.101127
-0.0729842
-0.0498104
-0.0329577
-0.0208011
-0.0144068
-0.00622015
-0.00643687
-0.00640347
-0.0156423
-0.0225928
-0.0282425
-0.0325849
-0.0155931
-0.283066
-0.252215
-0.223573
-0.192264
-0.158274
-0.123714
-0.0896723
-0.0567887
-0.026288
0.000536009
0.0226164
0.0391819
0.0503868
0.0548231
0.0527405
0.0443002
0.0294081
0.00793441
-0.019938
-0.0534898
-0.0909793
-0.128398
-0.158732
-0.173766
-0.170276
-0.151608
-0.125842
-0.0995481
-0.0761624
-0.0568078
-0.0415838
-0.029968
-0.0213324
-0.0157169
-0.0137622
-0.0150799
-0.0163538
-0.0161175
-0.0172476
-0.0227405
-0.0317364
-0.0468428
-0.0699964
-0.0981478
-0.119447
-0.118253
-0.101406
-0.0731255
-0.0491866
-0.0317209
-0.0190446
-0.0124794
-0.0035148
-0.00342773
-0.00319984
-0.0139222
-0.0225793
-0.0288799
-0.0339915
-0.0163717
-0.272506
-0.246843
-0.222853
-0.195104
-0.164705
-0.133742
-0.102477
-0.0711308
-0.0407654
-0.0126101
0.0120915
0.0322216
0.0468864
0.0539064
0.0554969
0.0504989
0.0383808
0.0189001
-0.00734004
-0.0390976
-0.0743801
-0.109298
-0.138147
-0.153417
-0.152742
-0.138755
-0.117808
-0.0951141
-0.0738631
-0.0554445
-0.0403437
-0.0284221
-0.019212
-0.0125889
-0.0091221
-0.00918948
-0.0100319
-0.0101559
-0.011606
-0.0171267
-0.0260626
-0.0410864
-0.0646288
-0.0937054
-0.116
-0.116044
-0.100651
-0.0727264
-0.0484233
-0.030463
-0.0173359
-0.0106916
-0.00122224
-0.000745624
-0.00016657
-0.0121744
-0.0225103
-0.0293447
-0.0351517
-0.0170335
-0.262218
-0.244106
-0.224321
-0.199602
-0.172994
-0.145838
-0.117893
-0.0894217
-0.0612216
-0.0341751
-0.00906691
0.0141005
0.031857
0.0441745
0.0492719
0.048199
0.0402316
0.02484
0.00256284
-0.0252848
-0.0564944
-0.0878513
-0.114455
-0.129831
-0.131449
-0.122301
-0.106343
-0.0874818
-0.0687589
-0.051806
-0.0373741
-0.0256229
-0.0163366
-0.00923718
-0.00468401
-0.00367895
-0.00430422
-0.00506707
-0.00664314
-0.0121036
-0.0208306
-0.0353283
-0.0585733
-0.0878425
-0.111069
-0.110537
-0.0983558
-0.0709558
-0.0467792
-0.028674
-0.0154116
-0.00866245
0.00110164
0.0018046
0.00266351
-0.0104453
-0.0223776
-0.0296097
-0.0360611
-0.0175633
-0.240147
-0.235228
-0.215624
-0.190879
-0.165926
-0.14101
-0.115377
-0.0890331
-0.0626696
-0.0371363
-0.0130309
0.00904695
0.0258673
0.0377188
0.0442896
0.0452322
0.0394362
0.0261919
0.00589412
-0.0199883
-0.0493096
-0.078769
-0.103938
-0.116538
-0.117521
-0.109054
-0.0946821
-0.077815
-0.061005
-0.045621
-0.032306
-0.021235
-0.0123147
-0.00527023
-0.000282646
0.00157024
0.00154148
0.00087024
-0.000467501
-0.00538516
-0.0133117
-0.027363
-0.0513428
-0.0825771
-0.10849
-0.117816
-0.096624
-0.0683843
-0.0441847
-0.0263217
-0.0133711
-0.00654646
0.00373214
0.00481736
0.00590766
-0.0084932
-0.0222641
-0.0297449
-0.0368105
-0.0179793
-0.21958
-0.217976
-0.200041
-0.176655
-0.153758
-0.131606
-0.109038
-0.0857497
-0.062298
-0.0394807
-0.0179782
0.0011618
0.0169455
0.0285055
0.0353663
0.0369183
0.032361
0.0211475
0.00360876
-0.0189047
-0.0442632
-0.0691494
-0.0878543
-0.0995904
-0.100576
-0.0935925
-0.0817225
-0.0675919
-0.053198
-0.0396984
-0.0276869
-0.0174391
-0.00901786
-0.00217828
0.00298385
0.00527382
0.00546405
0.00460446
0.00333127
-0.000769232
-0.00774833
-0.0210356
-0.0450916
-0.0772397
-0.103938
-0.110084
-0.0922839
-0.0646916
-0.0411677
-0.0238455
-0.0112734
-0.00450527
0.0057693
0.00689858
0.00848615
-0.0069248
-0.0222394
-0.0297472
-0.037154
-0.0181806
-0.200868
-0.199731
-0.184501
-0.163706
-0.143164
-0.123567
-0.103798
-0.0833537
-0.0626457
-0.0424271
-0.0233839
-0.00632691
0.00797931
0.0187056
0.0252081
0.0269738
0.0234444
0.014283
-0.000147326
-0.0185896
-0.0390434
-0.0587267
-0.0739925
-0.0832711
-0.0845654
-0.0794665
-0.070119
-0.0584752
-0.0461762
-0.0342945
-0.0234384
-0.0139328
-0.00596052
0.000617799
0.0058071
0.00842383
0.00887096
0.0080396
0.00679589
0.00301608
-0.0035229
-0.0164022
-0.0400819
-0.0713721
-0.0972524
-0.102722
-0.0867794
-0.0604627
-0.037877
-0.0212396
-0.0091214
-0.00246344
0.00766076
0.0087657
0.01065
-0.0056586
-0.0222385
-0.0295519
-0.0370896
-0.0182166
-0.182261
-0.182158
-0.169773
-0.151785
-0.13358
-0.116266
-0.098986
-0.0811545
-0.063014
-0.0452134
-0.0284097
-0.0132826
-0.000498265
0.00926867
0.0154466
0.0175863
0.0152775
0.00833577
-0.00287737
-0.0173036
-0.0333383
-0.0488425
-0.0612448
-0.0688417
-0.0704678
-0.0668621
-0.059526
-0.0499642
-0.0395147
-0.0291262
-0.01939
-0.0106396
-0.00313554
0.00312936
0.00824852
0.0111248
0.0119306
0.0112878
0.010197
0.00675918
0.000529744
-0.0119263
-0.0345861
-0.0642271
-0.0892712
-0.094562
-0.0802097
-0.0555719
-0.0342661
-0.0184957
-0.00691208
-0.000415574
0.00942462
0.0105218
0.0126148
-0.00444763
-0.0221051
-0.0291054
-0.036624
-0.0180707
-0.164782
-0.165847
-0.155839
-0.140415
-0.124464
-0.109283
-0.0942665
-0.0788313
-0.0630788
-0.0475421
-0.0328329
-0.0195277
-0.00816553
0.0007206
0.00664419
0.00920832
0.00810704
0.00324095
-0.0050904
-0.016072
-0.0284415
-0.0404692
-0.0503576
-0.0565677
-0.0582554
-0.0557327
-0.0500198
-0.0422207
-0.0333856
-0.0243303
-0.0156296
-0.00761547
-0.000575572
0.00536228
0.0103394
0.0133898
0.0145623
0.0142247
0.0134435
0.0105319
0.00481583
-0.00676328
-0.0279468
-0.0559989
-0.080176
-0.0853363
-0.0725839
-0.0500545
-0.0303753
-0.0156474
-0.00466688
0.00163243
0.0110435
0.0121193
0.0144268
-0.00316472
-0.0217524
-0.0283794
-0.0356958
-0.0176999
-0.149123
-0.150674
-0.142556
-0.129469
-0.115691
-0.102534
-0.0895951
-0.0763439
-0.0627895
-0.0493515
-0.0365493
-0.0248921
-0.0148133
-0.00674775
-0.00110269
0.00178955
0.00169843
-0.00143087
-0.00736106
-0.0154584
-0.024723
-0.033815
-0.0414535
-0.0463897
-0.0479412
-0.046159
-0.0416804
-0.0352929
-0.0278149
-0.0199284
-0.0121727
-0.0048728
0.00170193
0.0073156
0.0121005
0.015241
0.0167582
0.0168517
0.0165167
0.0142889
0.00933333
-0.000994193
-0.0205478
-0.046928
-0.0699748
-0.0751195
-0.064078
-0.0440004
-0.0262487
-0.0127276
-0.00240873
0.00366832
0.0125151
0.0135309
0.0160464
-0.0017978
-0.0211024
-0.0273102
-0.0342262
-0.017064
-0.134581
-0.136382
-0.129944
-0.119005
-0.107263
-0.0959924
-0.0849412
-0.07365
-0.062075
-0.0505552
-0.0394681
-0.0292928
-0.0203884
-0.0131101
-0.00778436
-0.00467951
-0.00397211
-0.0056892
-0.00963685
-0.0153308
-0.0220136
-0.0287433
-0.0343999
-0.0381582
-0.0394092
-0.0380511
-0.0344567
-0.029173
-0.0228232
-0.0159541
-0.00904907
-0.00242771
0.00368106
0.0089826
0.0135594
0.0167266
0.0185454
0.0191505
0.0195028
0.0179689
0.0139155
0.00499308
-0.0127515
-0.037181
-0.0589141
-0.064166
-0.0549325
-0.0375413
-0.0219489
-0.00977354
-0.000163213
0.0056799
0.0138525
0.0147488
0.0174259
-0.000332583
-0.0200244
-0.0258104
-0.0321565
-0.0161294
-0.120899
-0.12304
-0.118124
-0.10908
-0.0991673
-0.0896049
-0.0802465
-0.0706985
-0.0608775
-0.0510182
-0.0415282
-0.0327091
-0.0248871
-0.0183535
-0.0133684
-0.0101455
-0.00882093
-0.00941023
-0.0117628
-0.0155145
-0.0200963
-0.0248441
-0.028891
-0.0315817
-0.032426
-0.0312604
-0.0282801
-0.0238452
-0.0184174
-0.0124231
-0.00627464
-0.000284656
0.00536079
0.0103578
0.0147359
0.0178944
0.019958
0.0210729
0.022168
0.0214606
0.0184473
0.0110372
-0.004765
-0.0271408
-0.0474329
-0.0528207
-0.0454481
-0.0308551
-0.0175547
-0.00682329
0.00204422
0.00765438
0.0150829
0.0157881
0.0185516
0.0013068
-0.0183468
-0.0237934
-0.0294584
-0.0148742
-0.108523
-0.110994
-0.107134
-0.0996672
-0.0913667
-0.0833302
-0.0754795
-0.0674865
-0.0592199
-0.0508809
-0.0427677
-0.0351612
-0.0283226
-0.0224836
-0.0178512
-0.0145948
-0.0128228
-0.0125472
-0.0136556
-0.0158756
-0.018767
-0.021913
-0.024615
-0.0263613
-0.026762
-0.0256364
-0.0230647
-0.0192699
-0.014585
-0.00933588
-0.00385651
0.00155651
0.00675004
0.0114424
0.0156321
0.0187727
0.0210361
0.0226057
0.0242698
0.0245988
0.0228422
0.0170068
0.00301258
-0.0173801
-0.0360281
-0.041488
-0.0359704
-0.0241548
-0.0131593
-0.00391365
0.00418929
0.00957674
0.0162473
0.0167047
0.0194569
0.0032373
-0.0158941
-0.0211833
-0.0261469
-0.013299
-0.0971971
-0.0996285
-0.0967668
-0.0907152
-0.0838459
-0.0771589
-0.0706297
-0.0639664
-0.0570919
-0.0500942
-0.0432134
-0.0366917
-0.0307419
-0.0255502
-0.021281
-0.0180685
-0.0159988
-0.0150851
-0.0152476
-0.01629
-0.0179403
-0.0197289
-0.0213088
-0.022239
-0.0222028
-0.0210229
-0.0187107
-0.0153933
-0.0113021
-0.00668179
-0.00179164
0.00310038
0.00786315
0.0122485
0.0162465
0.019366
0.0217996
0.0238054
0.0258388
0.0271493
0.0267316
0.0223682
0.0099609
-0.00841311
-0.0251312
-0.0305787
-0.0268571
-0.0176704
-0.00886744
-0.00108122
0.00624977
0.0114285
0.0173949
0.0175963
0.020212
0.00557643
-0.0125303
-0.0179343
-0.0223011
-0.0114387
-0.0867085
-0.0891334
-0.0870932
-0.0822513
-0.0766258
-0.0711181
-0.0657432
-0.0602608
-0.0545631
-0.0487254
-0.0429295
-0.0373707
-0.0322219
-0.0276325
-0.0237321
-0.0206264
-0.0183841
-0.0170201
-0.0164803
-0.0166177
-0.017252
-0.0180538
-0.0187392
-0.0189876
-0.0185512
-0.0172693
-0.0151154
-0.0121522
-0.00853402
-0.00444031
-6.71086e-05
0.00435645
0.00871611
0.012796
0.0165857
0.0196658
0.0222183
0.0247379
0.0268283
0.0288673
0.0294956
0.0263312
0.0155258
-0.000545729
-0.0151034
-0.0204975
-0.0184466
-0.0116246
-0.00478885
0.00163432
0.00820321
0.0131847
0.0185637
0.0185903
0.0209127
0.00840636
-0.00822715
-0.0140731
-0.0180777
-0.00937016
-0.0770675
-0.079496
-0.0781157
-0.0742788
-0.06971
-0.0652147
-0.060831
-0.0563553
-0.0516774
-0.0468441
-0.0419946
-0.0372851
-0.032855
-0.028823
-0.0252908
-0.0223413
-0.0200308
-0.0183755
-0.0173396
-0.016834
-0.0166945
-0.0167317
-0.0167172
-0.0164152
-0.0156344
-0.0142362
-0.0121766
-0.00947775
-0.00623748
-0.0025837
0.00133749
0.00534061
0.00932581
0.0131072
0.0166717
0.0196736
0.0221914
0.0240609
0.0271166
0.0295835
0.030741
0.0284663
0.0194603
0.00600046
-0.00634041
-0.0116273
-0.0110133
-0.00619778
-0.00102432
0.00418904
0.0100217
0.014809
0.0197533
0.019778
0.0216699
0.0117214
-0.00315128
-0.00974122
-0.0137037
-0.00721105
-0.0683208
-0.0706657
-0.0697834
-0.0667746
-0.0630997
-0.0594662
-0.0559257
-0.0523056
-0.0484982
-0.044527
-0.040497
-0.0365319
-0.0327431
-0.0292244
-0.0260554
-0.0233011
-0.0210055
-0.0191825
-0.0178156
-0.016846
-0.0161663
-0.0156357
-0.0150921
-0.0143631
-0.0133028
-0.0117966
-0.00979581
-0.00729839
-0.00436334
-0.00107858
0.00244855
0.00607392
0.00971105
0.0132046
0.0165361
0.0194403
0.0219665
0.0241371
0.0269217
0.0293777
0.0306079
0.0289494
0.0218023
0.010994
0.000780561
-0.00425289
-0.00471376
-0.00149683
0.0023498
0.00653966
0.0116697
0.0162496
0.0209046
0.0211764
0.0225912
0.0153738
0.00228282
-0.00522137
-0.00944836
-0.00510555
-0.0603451
-0.0625512
-0.0620531
-0.0597293
-0.0568052
-0.0538978
-0.0510665
-0.048166
-0.045094
-0.0418565
-0.0385309
-0.035214
-0.031994
-0.028945
-0.0261295
-0.0235984
-0.0213879
-0.0194929
-0.0179292
-0.0166571
-0.015604
-0.0146715
-0.0137455
-0.0127007
-0.0114285
-0.00983682
-0.00787999
-0.00554289
-0.00285929
0.000113065
0.00329631
0.00658163
0.00989459
0.0131128
0.0162082
0.0189879
0.0214841
0.0237309
0.0262404
0.0284521
0.0295221
0.0282594
0.0227759
0.0143819
0.0061318
0.00154892
0.000430603
0.00245154
0.0052885
0.00864916
0.0131124
0.017444
0.021889
0.0226676
0.0237259
0.0190529
0.00746692
-0.00090607
-0.00557147
-0.00319567
-0.0530332
-0.0551039
-0.054907
-0.0531418
-0.0508386
-0.0485345
-0.046293
-0.0439918
-0.0415353
-0.0389168
-0.0361919
-0.0334352
-0.0307157
-0.0280917
-0.0256127
-0.0233249
-0.021286
-0.0193593
-0.0177004
-0.0162536
-0.0149659
-0.0137691
-0.0125843
-0.0113222
-0.00990373
-0.00825724
-0.00634366
-0.00414241
-0.00167196
0.00103233
0.00391301
0.00689152
0.00990417
0.0128563
0.0157136
0.0183376
0.0207459
0.022936
0.0251552
0.0270355
0.0278841
0.026874
0.0227494
0.0163931
0.0098914
0.00590917
0.00450351
0.00568022
0.00777374
0.0104864
0.0143235
0.0183485
0.0225565
0.0239663
0.0249196
0.022272
0.011805
0.00283965
-0.0022592
-0.0015838
-0.0463691
-0.0482962
-0.0483197
-0.0470007
-0.0452049
-0.0433975
-0.0416419
-0.0398351
-0.0378892
-0.0357888
-0.0335723
-0.0312964
-0.029014
-0.0267685
-0.0245924
-0.0225086
-0.0205172
-0.018781
-0.0171499
-0.0156387
-0.0142292
-0.0128795
-0.0115381
-0.0101432
-0.00863922
-0.00697169
-0.0051098
-0.00303215
-0.000748735
0.0017207
0.00433283
0.00703318
0.00976755
0.0124625
0.0150825
0.0175265
0.0197929
0.021846
0.0237783
0.025333
0.0259852
0.0251655
0.0221078
0.0173885
0.0123842
0.00906783
0.00763652
0.00825308
0.00980804
0.0120231
0.0152768
0.0189495
0.0228201
0.024689
0.0257646
0.024451
0.0149359
0.00581418
0.000402314
-0.000315001
-0.0403139
-0.0420778
-0.0422537
-0.0412886
-0.0399057
-0.0385045
-0.0371458
-0.0357436
-0.034218
-0.0325482
-0.0307596
-0.0288948
-0.0269943
-0.0250914
-0.0232131
-0.0213856
-0.0196119
-0.0179406
-0.0163522
-0.0148399
-0.0133888
-0.0119717
-0.0105556
-0.00909845
-0.00756233
-0.00590725
-0.00411053
-0.00215259
-3.9441e-05
0.00221921
0.00459037
0.00703701
0.00951279
0.011962
0.014347
0.0165941
0.0186819
0.0205577
0.0222291
0.0235067
0.0240184
0.0233733
0.0211416
0.0176969
0.013934
0.0112678
0.00996916
0.010243
0.0114072
0.01324
0.0159535
0.01923
0.022653
0.0246935
0.0258357
0.0252038
0.0167954
0.00797603
0.00241432
0.000613072
-0.0347979
-0.0363975
-0.0366778
-0.0359924
-0.0349428
-0.0338707
-0.0328335
-0.0317594
-0.030577
-0.0292627
-0.0278321
-0.0263167
-0.024747
-0.023148
-0.02154
-0.0199389
-0.0183702
-0.0168335
-0.015336
-0.0138762
-0.0124454
-0.0110269
-0.00960037
-0.00813805
-0.00661529
-0.00500351
-0.00328737
-0.00145047
0.000502561
0.00256792
0.00471962
0.00693292
0.00916822
0.0113836
0.0135404
0.0155832
0.0174767
0.0191636
0.0206103
0.0216723
0.0221004
0.0216256
0.0200319
0.0175616
0.0148002
0.0127271
0.011636
0.0117227
0.0125992
0.0141292
0.0163501
0.0191917
0.0220931
0.0240563
0.0250362
0.0245976
0.0175221
0.00936862
0.00382779
0.00123762
-0.0297775
-0.0312193
-0.0315666
-0.0310984
-0.030315
-0.0295073
-0.0287281
-0.0279179
-0.0270138
-0.025991
-0.0248581
-0.0236381
-0.0223539
-0.0210242
-0.0196641
-0.0182858
-0.0169021
-0.0155185
-0.0141414
-0.0127722
-0.011407
-0.0100362
-0.00864831
-0.00722572
-0.00575338
-0.00421164
-0.00259114
-0.000879265
0.000919429
0.00280408
0.00475339
0.00675062
0.00876206
0.0107565
0.0126958
0.0145358
0.016236
0.0177402
0.0190008
0.0199042
0.0202938
0.0199823
0.0188834
0.0171483
0.0151787
0.0136215
0.0127568
0.0127606
0.0134221
0.0146991
0.016482
0.0188662
0.0212234
0.0229373
0.0235996
0.0230514
0.0173458
0.0100826
0.00472458
0.00161444
-0.0252199
-0.0265078
-0.0268911
-0.0265896
-0.0260172
-0.0254204
-0.0248468
-0.0242475
-0.0235673
-0.0227819
-0.021895
-0.020923
-0.0198828
-0.018788
-0.0176493
-0.0164754
-0.0152737
-0.0140497
-0.0128093
-0.0115552
-0.0102867
-0.00899869
-0.00768541
-0.00633634
-0.00494325
-0.00349324
-0.00198167
-0.000399516
0.00124813
0.00296134
0.00472215
0.00651894
0.00832233
0.0101092
0.0118438
0.0134899
0.0150074
0.0163444
0.0174548
0.0182462
0.0186273
0.0184672
0.0177514
0.0165706
0.0152107
0.0140845
0.0134348
0.0134203
0.0139199
0.0149731
0.0163781
0.0183047
0.0201352
0.0215089
0.0218227
0.0210402
0.0165334
0.0102527
0.00520588
0.00180288
-0.0210851
-0.0222262
-0.0226233
-0.0224484
-0.0220425
-0.0216128
-0.021202
-0.0207698
-0.0202685
-0.0196752
-0.0189902
-0.0182249
-0.0173917
-0.0164999
-0.015557
-0.0145694
-0.0135413
-0.0124763
-0.0113794
-0.0102542
-0.00910173
-0.00791961
-0.00670562
-0.00545403
-0.00416123
-0.00281936
-0.00142716
2.12173e-05
0.00152005
0.00306923
0.00465325
0.00626364
0.00787488
0.00946863
0.0110126
0.0124781
0.0138289
0.0150178
0.0160072
0.016721
0.0171115
0.0170846
0.0166629
0.0158999
0.0149993
0.0142203
0.0137595
0.0137598
0.0141384
0.0149885
0.0160704
0.0175647
0.0189139
0.0199173
0.0199273
0.0189115
0.0153406
0.0100232
0.00537167
0.00185941
-0.0173381
-0.0183424
-0.0187378
-0.0186578
-0.0183822
-0.0180841
-0.0178012
-0.0175004
-0.0171411
-0.0167021
-0.0161819
-0.0155879
-0.0149292
-0.0142121
-0.0134409
-0.0126201
-0.0117531
-0.0108414
-0.00988832
-0.0088974
-0.00787096
-0.00680827
-0.005709
-0.00457041
-0.00339193
-0.0021693
-0.000903497
0.000408594
0.00176089
0.00315273
0.00457041
0.00600704
0.00744098
0.00885725
0.0102272
0.0115275
0.0127272
0.0137868
0.0146787
0.0153376
0.0157433
0.015829
0.0156313
0.0151783
0.0146173
0.0141118
0.0138085
0.013834
0.0141209
0.0147875
0.015594
0.0167017
0.0176279
0.0182731
0.0180491
0.0168636
0.0139727
0.00952366
0.00530876
0.0018226
-0.0139497
-0.0148278
-0.0152102
-0.0152002
-0.0150258
-0.0148308
-0.0146476
-0.0144496
-0.0142023
-0.0138867
-0.0135002
-0.0130475
-0.0125348
-0.0119665
-0.0113447
-0.0106718
-0.009951
-0.00918333
-0.0083696
-0.00751234
-0.00661463
-0.00567707
-0.00470023
-0.00368307
-0.00262672
-0.00152943
-0.000393631
0.000781888
0.00199093
0.00323185
0.00449284
0.00576784
0.00703816
0.00829206
0.0095053
0.0106565
0.0117214
0.0126738
0.0134785
0.0140953
0.0145152
0.0146909
0.0146591
0.0144326
0.01412
0.0138241
0.0136444
0.0136928
0.0139086
0.0144125
0.0149858
0.0157605
0.0163291
0.0166563
0.0162626
0.0149871
0.0125715
0.00885964
0.00509007
0.00174141
-0.0108923
-0.011655
-0.0120172
-0.0120581
-0.0119619
-0.0118471
-0.0117413
-0.0116231
-0.0114636
-0.0112463
-0.0109676
-0.0106308
-0.0102397
-0.00979719
-0.00930438
-0.00876181
-0.00817163
-0.00753549
-0.00685277
-0.00612427
-0.00535285
-0.00454012
-0.00368728
-0.00279412
-0.00186247
-0.000892209
0.000113504
0.00115449
0.0022246
0.00332173
0.00443534
0.00555999
0.00668013
0.00778528
0.00885595
0.00987467
0.0108196
0.0116672
0.0124023
0.0129866
0.0134167
0.0136585
0.0137451
0.0136832
0.0135474
0.0134043
0.0133175
0.0133819
0.0135407
0.0139036
0.0142823
0.0147785
0.0150695
0.0151232
0.0146066
0.0133095
0.0112236
0.00811381
0.00477464
0.00162796
-0.00814102
-0.0087996
-0.00913751
-0.00921453
-0.00917848
-0.00912571
-0.00907962
-0.00902298
-0.00893199
-0.00879241
-0.0086005
-0.00835813
-0.00806787
-0.00773122
-0.00734867
-0.00691974
-0.00644509
-0.00592614
-0.00536334
-0.00475574
-0.00410477
-0.00341236
-0.00268032
-0.00190901
-0.00110035
-0.000255027
0.000623543
0.00153423
0.00247135
0.00343233
0.00440801
0.00539335
0.00637536