/*--------------------------------*- C++ -*----------------------------------*\
| =========                 |                                                 |
| \\      /  F ield         | OpenFOAM: The Open Source CFD Toolbox           |
|  \\    /   O peration     | Version:  2512                                  |
|   \\  /    A nd           | Website:  www.openfoam.com                      |
|    \\/     M anipulation  |                                                 |
\*---------------------------------------------------------------------------*/
FoamFile
{
    version     2.0;
    format      ascii;
    arch        "LSB;label=32;scalar=64";
    class       surfaceScalarField;
    location    "189";
    object      phi;
}
// * * * * * * * * * * * * * * * * * * * * * * * * * * * * * * * * * * * * * //

dimensions      [0 3 -1 0 0 0 0];

oriented        oriented;

internalField   nonuniform List<scalar> 
26232
(
0.00017212
0.000947359
-0.00111948
0.000876784
0.00154519
-0.00224985
0.00227163
0.000953708
-0.00234856
0.00450128
-0.000800331
-0.00142932
0.00770983
-0.0036991
0.000490556
0.0120368
-0.00772335
0.00339633
0.0175994
-0.0128385
0.00727592
0.0244696
-0.0189769
0.0121067
0.032645
-0.0260222
0.0178468
0.0420262
-0.0338003
0.0244191
0.0524071
-0.0420813
0.0317004
0.0634826
-0.0505944
0.0395188
0.0748753
-0.0590517
0.047659
0.0861756
-0.0671773
0.055877
0.0969904
-0.0747358
0.0639209
0.106989
-0.081554
0.0715552
0.115941
-0.0875352
0.0785831
0.123736
-0.0926605
0.0848658
0.130385
-0.0969784
0.0903295
0.135998
-0.100592
0.0949788
0.140752
-0.103608
0.0988543
0.144812
-0.106203
0.102142
0.148134
-0.10821
0.104888
-0.110344
0.107737
0.150741
0.000200584
0.000746775
0.00104096
0.00070481
0.00272549
-0.00073082
0.00543716
-0.003512
0.00934239
-0.00760433
0.014575
-0.012956
0.0212077
-0.0194712
0.0292205
-0.0269897
0.0384762
-0.0352779
0.0487143
-0.0440384
0.0595685
-0.0529355
0.0706067
-0.0616326
0.0813851
-0.06983
0.0915056
-0.0772979
0.100665
-0.0838955
0.108689
-0.0895773
0.115536
-0.0943827
0.121291
-0.0984157
0.12613
-0.101817
0.130276
-0.104738
0.133981
-0.107312
0.137444
-0.109666
0.141037
-0.111803
-0.114157
0.144849
0.000263295
0.00048348
0.00131788
-0.000349775
0.00340087
-0.00281381
0.00671668
-0.00682781
0.0114263
-0.0123139
0.0176154
-0.0191452
0.0252576
-0.0271134
0.0341863
-0.0359184
0.0440931
-0.0451846
0.0545555
-0.0545008
0.0650933
-0.0634733
0.0752372
-0.0717765
0.0845955
-0.0791884
0.0929033
-0.0856056
0.100045
-0.091037
0.106048
-0.0955804
0.111054
-0.0993891
0.115275
-0.102637
0.118946
-0.105488
0.122289
-0.108081
0.125492
-0.110515
0.128697
-0.112871
0.132027
-0.115133
-0.117575
0.135445
0.000358588
0.000124893
0.00170021
-0.0016914
0.0042741
-0.0053877
0.00827748
-0.0108312
0.0138238
-0.0178602
0.0208977
-0.0262191
0.0293209
-0.0355366
0.0387503
-0.0453478
0.0487163
-0.0551506
0.0586959
-0.0644804
0.068198
-0.0729754
0.0768382
-0.0804167
0.0843858
-0.086736
0.090775
-0.0919948
0.0960833
-0.0963453
0.100487
-0.099984
0.104209
-0.103111
0.107474
-0.105902
0.110477
-0.108492
0.113372
-0.110976
0.116274
-0.113417
0.119262
-0.115859
0.122422
-0.118293
-0.12091
0.125758
0.000480243
-0.000355351
0.00216436
-0.00337551
0.00528669
-0.00851004
0.00999865
-0.0155431
0.0163157
-0.0241773
0.0240704
-0.0339738
0.0329035
-0.0443697
0.0423084
-0.0547527
0.051721
-0.0645632
0.060623
-0.0733824
0.0686273
-0.0809797
0.0755241
-0.0873135
0.081281
-0.0924928
0.0860069
-0.0967208
0.0898969
-0.100235
0.0931756
-0.103263
0.0960543
-0.10599
0.0987068
-0.108554
0.101264
-0.111048
0.103816
-0.113529
0.106429
-0.11603
0.109142
-0.118572
0.111999
-0.12115
-0.123872
0.114961
0.000620881
-0.000976232
0.00267972
-0.00543436
0.00636304
-0.0121934
0.0117309
-0.020911
0.0186512
-0.0310976
0.0267725
-0.0420951
0.0355648
-0.0531619
0.0444224
-0.0636103
0.0527887
-0.0729295
0.0602568
-0.0808505
0.0666185
-0.0873414
0.0718564
-0.0925514
0.0760967
-0.0967331
0.0795441
-0.100168
0.0824224
-0.103114
0.084933
-0.105773
0.0872354
-0.108292
0.0894449
-0.110764
0.0916399
-0.113243
0.0938725
-0.115762
0.0961782
-0.118336
0.0985804
-0.120974
0.101106
-0.123675
-0.126497
0.103731
0.000773
-0.00174923
0.00321301
-0.00787437
0.00742042
-0.0164008
0.0133176
-0.0268082
0.0205892
-0.0383692
0.0287017
-0.0502076
0.0370103
-0.0614705
0.0449059
-0.0715058
0.0519388
-0.0799624
0.0578781
-0.0867898
0.0627017
-0.092165
0.0665398
-0.0963895
0.0696016
-0.0997949
0.0721109
-0.102677
0.0742644
-0.105267
0.0762137
-0.107723
0.0780651
-0.110144
0.0798887
-0.112587
0.0817296
-0.115084
0.083617
-0.117649
0.085571
-0.12029
0.087605
-0.123008
0.0897336
-0.125804
-0.128699
0.0919355
0.000928717
-0.00267795
0.00372898
-0.0106746
0.00837443
-0.0210462
0.0146115
-0.0330453
0.0219323
-0.04569
0.0296635
-0.0579388
0.0371314
-0.0689384
0.0438169
-0.0781914
0.0494375
-0.085583
0.0539434
-0.0912957
0.0574554
-0.095677
0.0601827
-0.0991168
0.0623514
-0.101964
0.0641589
-0.104485
0.0657551
-0.106863
0.0672431
-0.109211
0.0686888
-0.111589
0.0701331
-0.114032
0.0716021
-0.116553
0.0731136
-0.119161
0.07468
-0.121856
0.0763112
-0.124639
0.0780165
-0.127509
-0.130467
0.0797842
0.00107913
-0.00375708
0.00419082
-0.0137863
0.00914473
-0.0260001
0.0154911
-0.0393916
0.0225536
-0.0527525
0.0295915
-0.0649768
0.0359906
-0.0753375
0.0413828
-0.0835836
0.0456622
-0.0898624
0.048923
-0.0945565
0.0513681
-0.0981222
0.0532275
-0.100976
0.0547044
-0.10344
0.0559528
-0.105733
0.0570773
-0.107988
0.0581432
-0.110277
0.0591899
-0.112636
0.0602415
-0.115083
0.0613137
-0.117625
0.0624181
-0.120265
0.0635631
-0.123001
0.0647559
-0.125832
0.0660017
-0.128755
-0.13176
0.0672947
0.0012141
-0.00497118
0.00456218
-0.0171344
0.00966306
-0.031101
0.0158754
-0.045604
0.0224084
-0.0592855
0.0285352
-0.0711036
0.0337662
-0.0805685
0.0379032
-0.0877206
0.0409891
-0.0929483
0.0432094
-0.0967767
0.0447962
-0.099709
0.0459629
-0.102143
0.0468733
-0.104351
0.0476385
-0.106499
0.0483267
-0.108676
0.0489781
-0.110928
0.0496161
-0.113274
0.0502554
-0.115723
0.0509066
-0.118277
0.0515777
-0.120936
0.0522749
-0.123698
0.0530037
-0.126561
0.0537677
-0.129519
-0.132559
0.0545672
0.00132369
-0.00629486
0.00481224
-0.020623
0.0098826
-0.0361714
0.0157327
-0.0514541
0.0215273
-0.06508
0.0266235
-0.0761998
0.0306877
-0.0846327
0.0336762
-0.0907091
0.0357367
-0.0950088
0.0370971
-0.0981371
0.0379824
-0.100594
0.0385713
-0.102732
0.0389867
-0.104766
0.0393041
-0.106816
0.0395667
-0.108939
0.0397986
-0.11116
0.0400144
-0.11349
0.0402237
-0.115932
0.0404341
-0.118487
0.0406515
-0.121154
0.0408807
-0.123928
0.0411251
-0.126805
0.0413863
-0.12978
-0.13284
0.0416667
0.00140224
-0.0076971
0.00492274
-0.0241435
0.00978489
-0.0410335
0.0150792
-0.0567484
0.019998
-0.0699988
0.0240282
-0.08023
0.0269921
-0.0875966
0.0289661
-0.0926831
0.0301576
-0.0962003
0.0308002
-0.0987797
0.0310915
-0.100886
0.031172
-0.102812
0.031129
-0.104723
0.0310119
-0.106699
0.0308475
-0.108774
0.0306506
-0.110963
0.0304305
-0.11327
0.0301942
-0.115695
0.0299474
-0.11824
0.029695
-0.120901
0.0294412
-0.123674
0.0291887
-0.126553
0.028938
-0.129529
0.0286932
-0.132595
-0.000299212
0.00209707
-0.00179786
-0.00104054
0.00454948
-0.00380815
-0.00212964
0.00581857
-0.00472948
-0.00349666
0.00623716
-0.00487013
-0.00508901
0.00607106
-0.00447871
-0.00686742
0.00551699
-0.00373858
-0.00880206
0.00470072
-0.00276608
-0.0108702
0.00368403
-0.00161592
-0.0130521
0.00247946
-0.00029753
-0.0153239
0.00106646
0.00120533
-0.0176699
-0.00059
0.00293604
-0.020068
-0.00253376
0.00493183
-0.022493
-0.00480385
0.00722889
-0.0249152
-0.00743294
0.0098551
-0.027299
-0.0104431
0.0128269
-0.0296027
-0.0138431
0.0161468
-0.0317781
-0.0176248
0.0198001
-0.0337706
-0.0217593
0.0237518
-0.0355207
-0.0261931
0.0279432
-0.036966
-0.0308452
0.0322905
-0.0380445
-0.0356066
0.0366851
-0.0386976
-0.0403428
0.0409959
-0.0388829
-0.0448885
0.0450738
-0.0490407
-0.0386154
0.0487732
-0.000243324
0.0023404
-0.000875101
0.00518126
-0.00183161
0.00677508
-0.00305748
0.00746302
-0.00450407
0.00751765
-0.00613047
0.00714339
-0.0079034
0.00647365
-0.00979633
0.00557696
-0.0117877
0.00447087
-0.0138599
0.00313862
-0.0159926
0.00154265
-0.0181732
-0.000353108
-0.0203842
-0.00259288
-0.022604
-0.0052131
-0.024809
-0.0082381
-0.0269723
-0.0116799
-0.0290638
-0.0155333
-0.031051
-0.019772
-0.0328994
-0.0243447
-0.0345742
-0.0291704
-0.0360441
-0.0341368
-0.0372835
-0.0391033
-0.0382697
-0.0439023
-0.0482907
-0.0390197
-0.000161785
0.00250218
-0.000623112
0.00564259
-0.00135827
0.00751024
-0.00233026
0.00843501
-0.00349618
0.00868358
-0.0048132
0.00846042
-0.00624239
0.00790283
-0.00775043
0.007085
-0.0093098
0.00603024
-0.0108978
0.00472661
-0.0124963
0.00314117
-0.0140809
0.00123151
-0.0156403
-0.00103355
-0.0171536
-0.00369977
-0.0186015
-0.00679021
-0.0199642
-0.0103171
-0.0212232
-0.0142743
-0.0223619
-0.0186333
-0.0233666
-0.0233399
-0.0242273
-0.0283097
-0.0249403
-0.0334237
-0.0255159
-0.0385277
-0.025964
-0.0434542
-0.0480452
-0.0262096
-6.40923e-05
0.00256627
-0.000311064
0.00588956
-0.000755524
0.0079547
-0.00138157
0.00906105
-0.00215388
0.00945589
-0.00302852
0.00933506
-0.00396027
0.00883458
-0.00490704
0.00803177
-0.00583176
0.00695496
-0.00670235
0.0055972
-0.00749101
0.00392984
-0.00817272
0.00191322
-0.00871767
-0.000488602
-0.00910372
-0.00331372
-0.00930959
-0.00658434
-0.00931111
-0.0103156
-0.00909126
-0.0144942
-0.00863973
-0.0190849
-0.0079553
-0.0240243
-0.00704677
-0.0292183
-0.00593094
-0.0345396
-0.00463494
-0.0398237
-0.00322501
-0.0448642
-0.0494474
-0.00182277
3.69313e-05
0.00252934
2.36321e-05
0.00590286
-9.24784e-05
0.00807081
-0.000314544
0.00928312
-0.000616491
0.00975784
-0.000955068
0.00967363
-0.00127976
0.00915928
-0.00153951
0.00829152
-0.00168629
0.00710173
-0.0016762
0.00558712
-0.00146909
0.00372273
-0.00102769
0.00147181
-0.00031492
-0.00120137
0.000704054
-0.0043327
0.00206805
-0.00794834
0.00380012
-0.0120477
0.00592227
-0.0166163
0.00844576
-0.0216083
0.011367
-0.0269456
0.014665
-0.0325162
0.0183018
-0.0381764
0.0222335
-0.0437554
0.0263823
-0.049013
-0.0537922
0.0307271
0.000127142
0.0024022
0.000336562
0.00569344
0.000551206
0.00785616
0.000750283
0.00908404
0.000951212
0.00955691
0.00119524
0.0094296
0.00153643
0.00881809
0.00203366
0.00779429
0.00274578
0.00638962
0.0037294
0.0046035
0.00503842
0.00241372
0.00672399
-0.000213757
0.00883736
-0.00331474
0.0114252
-0.00692053
0.0145262
-0.0110494
0.0181766
-0.0156981
0.0223972
-0.0208369
0.0271921
-0.0264033
0.0325447
-0.0322982
0.0384154
-0.0383869
0.0447416
-0.0445026
0.0514525
-0.0504663
0.05845
-0.0560105
-0.0611757
0.0658335
0.000195469
0.00220673
0.000592339
0.00529657
0.00110311
0.0073454
0.00169874
0.00848841
0.00239048
0.00886516
0.00321742
0.00860266
0.004236
0.00779951
0.00551183
0.00651846
0.00711418
0.00478727
0.00911275
0.00260492
0.0115752
-4.8773e-05
0.0145694
-0.00320787
0.0181563
-0.00690165
0.0223908
-0.0111551
0.0273158
-0.0159744
0.0329576
-0.0213398
0.0393186
-0.0271979
0.0463729
-0.0334577
0.0540637
-0.0399889
0.0623038
-0.046627
0.0709833
-0.0531821
0.0799746
-0.0594576
0.0891659
-0.0652018
-0.0706003
0.0985904
0.0002347
0.00197203
0.000765047
0.00476622
0.00151177
0.00659868
0.00244776
0.00755242
0.00358388
0.00772905
0.00495977
0.00722677
0.0066355
0.00612378
0.00868413
0.00446982
0.0111861
0.00228532
0.0142244
-0.000433352
0.0178838
-0.00370818
0.0222402
-0.00756429
0.0273627
-0.0120242
0.0333023
-0.0170947
0.0400851
-0.0227571
0.0477036
-0.0289583
0.0561108
-0.0356051
0.0652167
-0.0425636
0.0748915
-0.0496637
0.0849713
-0.0567068
0.0952838
-0.0634946
0.105634
-0.0698082
0.115905
-0.0754726
-0.0806393
0.125944
0.000243858
0.00172817
0.000848718
0.00416136
0.00176151
0.00568589
0.00296897
0.00634496
0.00448998
0.00620804
0.00637084
0.0053459
0.00867977
0.00381485
0.0115006
0.00164897
0.0149269
-0.00114101
0.0190562
-0.00456258
0.0239794
-0.00863145
0.029776
-0.0133609
0.0365008
-0.018749
0.0441733
-0.0247671
0.0527666
-0.0313504
0.0622006
-0.0383923
0.0723398
-0.0457444
0.0829991
-0.0532229
0.0939568
-0.0606215
0.104973
-0.0677226
0.11582
-0.0743416
0.126278
-0.0802669
0.136275
-0.0854694
-0.0898782
0.145514
0.00022877
0.0014994
0.000859545
0.00353059
0.00188047
0.00466496
0.00330403
0.00492141
0.00516743
0.00434463
0.00753208
0.00298125
0.0104818
0.000865159
0.0141152
-0.0019845
0.0185379
-0.0055637
0.0238512
-0.00987588
0.0301392
-0.0149194
0.0374531
-0.0206747
0.0457959
-0.0270918
0.0551099
-0.0340811
0.0652696
-0.0415101
0.0760831
-0.0492058
0.0873032
-0.0569644
0.0986479
-0.0645676
0.109827
-0.0718009
0.120577
-0.0784727
0.130679
-0.0844427
0.139987
-0.0895758
0.148474
-0.0939561
-0.097336
0.155932
0.000201494
0.00129791
0.0008347
0.00289738
0.00193924
0.00356043
0.0035637
0.00329695
0.00577439
0.00213394
0.00865435
0.000101291
0.0123119
-0.00279241
0.016855
-0.00652758
0.0223897
-0.0110984
0.0289979
-0.0164841
0.0367178
-0.0226393
0.0455252
-0.0294821
0.05532
-0.0368866
0.065922
-0.0446831
0.0770771
-0.0526653
0.088477
-0.0606057
0.099787
-0.0682744
0.110682
-0.0754624
0.12088
-0.0819993
0.130185
-0.0877779
0.138486
-0.0927439
0.145835
-0.0969239
0.152265
-0.100387
-0.102935
0.157865
0.000178432
0.000825961
0.00203783
0.00390546
0.00652995
0.0100276
0.0145111
0.0200902
0.0268387
0.0347737
0.0438348
0.0538715
0.0646439
0.0758378
0.0870934
0.098043
0.108352
0.117755
0.126085
0.133286
0.139397
0.144615
0.149116
0.153918
-0.0358707
-0.0733978
0.070653
-0.0317815
-0.0784554
0.0743663
-0.0261809
-0.0810895
0.0754889
-0.018959
-0.0806461
0.0734242
-0.0101505
-0.0763364
0.0675279
0.000101565
-0.0675723
0.0573203
0.0116884
-0.0540934
0.0425065
0.0238847
-0.0355147
0.0233185
0.0363013
-0.0124586
4.20932e-05
0.0486024
0.0143559
-0.026657
0.0607744
0.0434266
-0.0555986
0.0725896
0.0727813
-0.0845965
0.0835081
0.0998616
-0.11078
0.0928006
0.122117
-0.131409
0.0998345
0.137994
-0.145028
0.104112
0.147649
-0.151926
0.105076
0.153346
-0.154311
0.102573
0.158576
-0.156072
0.0979487
0.16463
-0.160006
0.094292
0.166926
-0.16327
0.094818
0.155758
-0.156284
0.100657
0.12293
-0.128769
0.110614
0.0681114
-0.0780683
0.122419
-8.45304e-05
-0.0117202
0.134119
-0.0680669
0.056367
0.143786
-0.122957
0.11329
0.150218
-0.158615
0.152183
0.153349
-0.17717
0.174038
0.154038
-0.183766
0.183077
0.152555
-0.18412
0.185603
0.148018
-0.185902
0.19044
0.140311
-0.195129
0.202836
0.131949
-0.202567
0.210929
0.12688
-0.187115
0.192184
0.127352
-0.13065
0.130178
0.132844
-0.042804
0.0373122
0.140777
0.0520837
-0.0600165
0.148876
0.127953
-0.136053
0.155135
0.176017
-0.182276
0.157461
0.206196
-0.208522
0.154423
0.229131
-0.226093
0.147185
0.254211
-0.246973
0.139643
0.249185
-0.241643
0.136098
0.2046
-0.201055
0.137865
0.0990832
-0.10085
0.143891
-0.017262
0.0112358
0.15034
-0.118429
0.111979
0.152841
-0.189794
0.187293
0.149447
-0.224613
0.228007
0.143158
-0.273997
0.280286
0.139087
-0.240918
0.24499
0.140467
-0.200826
0.199445
0.144619
-0.0664035
0.0622515
0.146961
0.0616189
-0.0639601
0.145841
0.158472
-0.157353
0.143409
0.312207
-0.309775
0.142344
0.254054
-0.252989
0.142214
0.28209
-0.28196
0.1412
0.0983389
-0.0973243
-0.127682
0.129606
-0.0392756
-0.0731419
-0.0385008
-0.0792303
-0.0362926
-0.0832977
-0.0323196
-0.0846191
-0.0262976
-0.0823585
-0.0181255
-0.0757444
-0.00807895
-0.06414
0.00392737
-0.0475211
0.0174994
-0.0260307
0.0315063
0.000349063
0.0456721
0.0292608
0.059701
0.0587523
0.0729922
0.0865704
0.0847564
0.110352
0.0941734
0.128577
0.100472
0.141351
0.103126
0.150692
0.102557
0.159145
0.100742
0.166445
0.100649
0.167019
0.104428
0.15198
0.112033
0.115325
0.121902
0.0582429
0.132299
-0.0104824
0.141718
-0.0774859
0.148843
-0.130081
0.152889
-0.162661
0.153955
-0.178236
0.152976
-0.182786
0.150395
-0.181539
0.14524
-0.180747
0.136945
-0.186834
0.127756
-0.193377
0.121982
-0.181341
0.122414
-0.131082
0.128649
-0.0490396
0.137973
0.0427597
0.147693
0.118233
0.155431
0.168279
0.158841
0.202786
0.156654
0.231317
0.150197
0.260668
0.143212
0.256171
0.139593
0.208219
0.140471
0.0982052
0.145286
-0.0220764
0.150755
-0.123899
0.152798
-0.191837
0.149137
-0.220952
0.142721
-0.267581
0.138696
-0.236893
0.140143
-0.202273
0.144348
-0.0706084
0.146621
0.0593459
0.145668
0.159426
0.143344
0.314531
0.142407
0.254991
0.142583
0.281914
0.141794
0.0991277
-0.12583
-0.0292868
-0.0700647
-0.0319547
-0.0765624
-0.0336685
-0.0815838
-0.0339201
-0.0843676
-0.0321474
-0.0841311
-0.0278054
-0.0800864
-0.0206215
-0.0713238
-0.0108191
-0.0573235
0.00129337
-0.0381432
0.0162183
-0.0145759
0.0317719
0.0137073
0.0476166
0.0429076
0.0629765
0.0712105
0.0769142
0.0964146
0.0884419
0.117049
0.0967061
0.133087
0.101426
0.145972
0.103514
0.157057
0.105135
0.164823
0.10871
0.163443
0.115263
0.145427
0.123892
0.106695
0.133197
0.0489382
0.141814
-0.0190993
0.148807
-0.0844789
0.15333
-0.134605
0.155045
-0.164376
0.154209
-0.1774
0.151738
-0.180316
0.148226
-0.178027
0.142725
-0.175247
0.134189
-0.178298
0.124373
-0.183561
0.117791
-0.174759
0.117918
-0.131209
0.124612
-0.055733
0.135129
0.0322427
0.146352
0.10701
0.155549
0.159082
0.160151
0.198184
0.159024
0.232444
0.153529
0.266163
0.147158
0.262542
0.143431
0.211945
0.14331
0.0983264
0.146801
-0.0255676
0.151208
-0.128306
0.152808
-0.193437
0.148948
-0.217091
0.14241
-0.261043
0.138385
-0.232868
0.139871
-0.203759
0.144161
-0.0748986
0.146408
0.0570985
0.145613
0.16022
0.143365
0.316779
0.142564
0.255791
0.1431
0.281378
0.142577
0.0996512
-0.124061
-0.00671922
-0.0651682
-0.0120631
-0.0712185
-0.0172227
-0.0764242
-0.021656
-0.0799343
-0.0248417
-0.0809454
-0.025626
-0.0793021
-0.0232674
-0.0736824
-0.0173385
-0.0632524
-0.00801183
-0.0474698
0.00456666
-0.0271544
0.0200948
-0.00182093
0.0366436
0.0263588
0.0533159
0.0545382
0.0689286
0.0808019
0.0823352
0.103643
0.0926967
0.122725
0.0999875
0.138681
0.105332
0.151713
0.110696
0.159459
0.117715
0.156424
0.126447
0.136696
0.135576
0.0975672
0.14385
0.0406642
0.150609
-0.0258584
0.155213
-0.0890828
0.157211
-0.136603
0.156688
-0.163853
0.154119
-0.17483
0.150331
-0.176528
0.146
-0.173695
0.140338
-0.169585
0.131924
-0.169884
0.121803
-0.17344
0.114387
-0.167343
0.113885
-0.130707
0.120725
-0.0625732
0.132196
0.0207722
0.144781
0.094425
0.15541
0.148453
0.161319
0.192275
0.161452
0.232311
0.157078
0.270537
0.151369
0.268251
0.147486
0.215828
0.146332
0.0994806
0.148407
-0.0276429
0.151681
-0.13158
0.15284
-0.194595
0.148841
-0.213092
0.142179
-0.254381
0.138106
-0.228795
0.139605
-0.205258
0.144029
-0.0793224
0.14631
0.0548168
0.145673
0.160857
0.143476
0.318977
0.142819
0.256448
0.143768
0.28043
0.143548
0.0998711
-0.122385
0.0247411
-0.0591822
0.0179518
-0.0644292
0.0104163
-0.0688887
0.0024854
-0.0720035
-0.00447943
-0.0739805
-0.0101568
-0.0736247
-0.0133454
-0.0704939
-0.0130021
-0.0635956
-0.00858702
-0.051885
-0.000585042
-0.0351564
0.0125255
-0.0149315
0.0282021
0.0106822
0.0448941
0.0378462
0.0613484
0.0643476
0.0762445
0.0887468
0.0887507
0.110219
0.0989131
0.128519
0.107749
0.142877
0.116754
0.150454
0.12677
0.146408
0.137131
0.126335
0.146375
0.0883235
0.153525
0.0335144
0.158459
-0.0307924
0.16078
-0.0914043
0.16036
-0.136184
0.157723
-0.161215
0.153607
-0.170714
0.148716
-0.171638
0.143696
-0.168675
0.138002
-0.163891
0.130009
-0.161891
0.119964
-0.163395
0.111831
-0.15921
0.110441
-0.129317
0.117009
-0.0691408
0.129141
0.00864033
0.142892
0.0806732
0.154907
0.136439
0.162234
0.184948
0.163815
0.23073
0.160702
0.273649
0.155696
0.273257
0.151653
0.219872
0.149442
0.101691
0.150069
-0.0282699
0.152147
-0.133657
0.15286
-0.195309
0.14878
-0.209012
0.141992
-0.247592
0.137814
-0.224618
0.139299
-0.206743
0.143918
-0.0839415
0.14631
0.0524252
0.14584
0.161327
0.143678
0.321139
0.143174
0.256952
0.144586
0.279018
0.144706
0.0997509
-0.120813
0.0597509
-0.0530996
0.0530375
-0.0577157
0.0454588
-0.0613099
0.0370184
-0.0635631
0.0276517
-0.0646139
0.0182558
-0.0642288
0.00989456
-0.0621326
0.00402627
-0.0577274
0.00226473
-0.0501234
0.00562942
-0.0385211
0.0132182
-0.0225203
0.0254767
-0.00157631
0.0401698
0.0231532
0.0560593
0.048458
0.0716124
0.0731938
0.0858732
0.0959582
0.0986872
0.115705
0.110697
0.130867
0.122792
0.13836
0.135095
0.134104
0.1465
0.11493
0.155627
0.0791969
0.161874
0.0272673
0.165146
-0.0340639
0.165328
-0.0915872
0.162656
-0.133511
0.158085
-0.156644
0.152619
-0.165248
0.146843
-0.165861
0.141264
-0.163096
0.135603
-0.15823
0.128252
-0.15454
0.118685
-0.153828
0.110095
-0.15062
0.107647
-0.12687
0.113552
-0.0750451
0.125941
-0.00374853
0.140597
0.0660166
0.153914
0.123121
0.162753
0.17611
0.16595
0.227534
0.164235
0.275364
0.159976
0.277516
0.155777
0.224071
0.152557
0.104911
0.151736
-0.0274496
0.152569
-0.13449
0.152829
-0.195568
0.148726
-0.20491
0.141817
-0.240683
0.137472
-0.220272
0.138906
-0.208177
0.143789
-0.088824
0.146383
0.0498311
0.146107
0.161603
0.143975
0.32327
0.143631
0.257296
0.145555
0.277094
0.146048
0.0992582
-0.119358
0.0925043
-0.0470134
0.0860104
-0.0512219
0.0789125
-0.0542119
0.0710697
-0.0557204
0.062376
-0.0559202
0.0529497
-0.0548024
0.0432199
-0.0524028
0.0341901
-0.0486976
0.0273056
-0.0432389
0.024041
-0.0352564
0.0252774
-0.0237567
0.0315925
-0.00789145
0.0422161
0.0125296
0.0556959
0.0349783
0.0705133
0.0583764
0.0854823
0.0809891
0.100063
0.101125
0.114354
0.116575
0.128594
0.124121
0.142319
0.120379
0.154212
0.103037
0.163083
0.0703253
0.168529
0.0218211
0.170395
-0.0359298
0.168668
-0.0898596
0.163984
-0.128827
0.157708
-0.150369
0.151098
-0.158637
0.144654
-0.159417
0.138661
-0.157104
0.133049
-0.152618
0.126446
-0.147936
0.117718
-0.1451
0.109057
-0.141958
0.105563
-0.123376
0.110457
-0.0799394
0.122528
-0.0158192
0.137811
0.0507328
0.152305
0.108628
0.162717
0.165697
0.167683
0.222568
0.167491
0.275556
0.164035
0.280972
0.159721
0.228385
0.155561
0.10907
0.153351
-0.0252394
0.152911
-0.13405
0.152703
-0.19536
0.148637
-0.200844
0.141627
-0.233674
0.137055
-0.2157
0.138383
-0.209505
0.143596
-0.0940371
0.146501
0.0469261
0.146462
0.161642
0.144368
0.325364
0.14419
0.257474
0.146672
0.274611
0.14757
0.0983601
-0.118032
0.119666
-0.0407351
0.113125
-0.044681
0.106226
-0.0473129
0.0990255
-0.04852
0.0915506
-0.0484452
0.08369
-0.0469418
0.0753106
-0.0440234
0.0665528
-0.0399399
0.0581159
-0.034802
0.051224
-0.0283645
0.0473253
-0.019858
0.0477365
-0.00830267
0.0528754
0.00739063
0.0622166
0.0256371
0.0745882
0.0460048
0.088717
0.0668603
0.103663
0.0861786
0.118935
0.101303
0.13414
0.108916
0.148369
0.10615
0.160242
0.0911643
0.168767
0.0618008
0.173489
0.0170984
0.174125
-0.0365654
0.170687
-0.0864215
0.164249
-0.122389
0.156539
-0.142659
0.148996
-0.151094
0.142083
-0.152504
0.135833
-0.150854
0.130267
-0.147053
0.124404
-0.142073
0.116772
-0.137468
0.108473
-0.133659
0.104105
-0.119009
0.107679
-0.0835125
0.119021
-0.0271614
0.134494
0.0352598
0.149972
0.0931503
0.161969
0.1537
0.168816
0.215721
0.170258
0.274115
0.167692
0.283538
0.163324
0.232753
0.158351
0.114043
0.154847
-0.0217355
0.153128
-0.13233
0.152435
-0.194668
0.148466
-0.196875
0.141398
-0.226606
0.136547
-0.210848
0.137695
-0.210654
0.143294
-0.099636
0.146632
0.0435879
0.146894
0.161379
0.144858
0.3274
0.144852
0.257481
0.147932
0.271531
0.149267
0.0970247
-0.116846
0.139172
-0.0343934
0.132605
-0.0381133
0.125754
-0.0404622
0.118882
-0.0416481
0.112193
-0.0417564
0.105695
-0.0404437
0.0992682
-0.0375965
0.0927359
-0.0334076
0.0860423
-0.0281084
0.079499
-0.0218212
0.0739926
-0.0143516
0.0709492
-0.00525919
0.0712602
0.00707961
0.0758149
0.0210824
0.0843715
0.0374482
0.0960512
0.0551805
0.109782
0.0724481
0.124593
0.086492
0.139542
0.0939661
0.153394
0.0922978
0.164795
0.0797632
0.172837
0.0537589
0.176854
0.0130813
0.176296
-0.036007
0.171281
-0.0814066
0.163337
-0.114446
0.154482
-0.133803
0.146225
-0.142838
0.139015
-0.145294
0.132667
-0.144506
0.12716
-0.141546
0.121953
-0.136866
0.115541
-0.131057
0.108015
-0.126133
0.103115
-0.114109
0.105264
-0.085661
0.115421
-0.037319
0.13064
0.0200414
0.146831
0.0769591
0.160363
0.140167
0.169199
0.206885
0.172402
0.270911
0.170798
0.285142
0.166459
0.237092
0.160815
0.119688
0.156155
-0.0170757
0.153171
-0.129347
0.151971
-0.193467
0.148161
-0.193065
0.141105
-0.21955
0.135942
-0.205686
0.136814
-0.211526
0.142838
-0.105659
0.14674
0.0396862
0.147389
0.16073
0.145444
0.329345
0.145617
0.257308
0.14933
0.267818
0.151132
0.0952229
-0.115809
0.149927
-0.0283885
0.1436
-0.0317865
0.136995
-0.0338571
0.130537
-0.0351902
0.124477
-0.0356962
0.11892
-0.0348861
0.113933
-0.0326101
0.109429
-0.0289036
0.105195
-0.0238744
0.101071
-0.0176974
0.0971547
-0.0104349
0.0940008
-0.00210529
0.0926231
0.00845727
0.0939829
0.0197226
0.0988316
0.0325996
0.10717
0.0468419
0.118368
0.0612506
0.131384
0.0734757
0.144967
0.0803829
0.157679
0.079586
0.168198
0.0692441
0.175596
0.0463607
0.178742
0.0099353
0.1769
-0.034165
0.170375
-0.0748815
0.161162
-0.105233
0.151454
-0.124095
0.142701
-0.134085
0.135335
-0.137927
0.12904
-0.138211
0.12364
-0.136146
0.118966
-0.132192
0.113772
-0.125863
0.107343
-0.119704
0.102322
-0.109088
0.103128
-0.086467
0.111798
-0.0459895
0.126294
0.00554597
0.142856
0.0603968
0.157787
0.125237
0.168607
0.196065
0.173656
0.265862
0.173143
0.285654
0.168969
0.241266
0.162878
0.125779
0.157222
-0.0114201
0.153016
-0.125141
0.151267
-0.191718
0.147675
-0.189472
0.140733
-0.212608
0.135254
-0.200207
0.135727
-0.211998
0.142181
-0.112114
0.146785
0.0350829
0.147927
0.159588
0.146124
0.331148
0.146487
0.256946
0.150864
0.263441
0.153157
0.0929302
-0.114934
0.152608
-0.0231313
0.146762
-0.025941
0.140627
-0.0277224
0.134758
-0.029321
0.129347
-0.0302848
0.124576
-0.030115
0.120625
-0.0286589
0.11754
-0.0258194
0.115227
-0.0215607
0.113498
-0.0159687
0.112207
-0.00914436
0.111627
-0.00152521
0.111208
0.00887669
0.111918
0.0190122
0.114918
0.0296003
0.120651
0.0411082
0.129046
0.0528561
0.139477
0.0630447
0.150821
0.0690388
0.161719
0.0686879
0.170955
0.0600086
0.177373
0.0399425
0.179287
0.00802085
0.17612
-0.0309979
0.168247
-0.0670089
0.158077
-0.0950621
0.147835
-0.113853
0.138802
-0.125052
0.131364
-0.13049
0.125198
-0.132046
0.119932
-0.13088
0.115615
-0.127875
0.111472
-0.12172
0.106306
-0.114538
0.101548
-0.10433
0.101206
-0.0861245
0.108197
-0.0529811
0.121526
-0.00778289
0.138027
0.043896
0.154194
0.10907
0.167105
0.183154
0.174141
0.258826
0.174721
0.285075
0.170785
0.245202
0.164521
0.132042
0.158078
-0.00497702
0.152725
-0.119787
0.150369
-0.189363
0.147015
-0.186118
0.140298
-0.205891
0.134513
-0.194423
0.134469
-0.211954
0.141297
-0.118942
0.146721
0.0296587
0.148487
0.157822
0.146897
0.332738
0.147462
0.256381
0.152526
0.258377
0.15533
0.0901262
-0.114233
0.149945
-0.0191586
0.144834
-0.0208301
0.13972
-0.022608
0.134771
-0.0243719
0.130107
-0.0256217
0.12597
-0.0259771
0.122572
-0.0252612
0.120119
-0.0233661
0.118719
-0.0201611
0.118329
-0.0155788
0.118794
-0.00960893
0.119603
-0.00233405
0.121665
0.00681466
0.124382
0.0162943
0.127889
0.0260942
0.13284
0.0361571
0.139595
0.046101
0.147936
0.0547032
0.157099
0.0598759
0.166036
0.0597509
0.173628
0.0524168
0.178389
0.0351819
0.179092
0.00731721
0.173943
-0.0258481
0.1649
-0.0579668
0.154258
-0.0844199
0.143975
-0.10357
0.134986
-0.116062
0.127584
-0.123087
0.12156
-0.126022
0.116423
-0.125743
0.112264
-0.123716
0.108864
-0.11832
0.104943
-0.110616
0.100744
-0.100131
0.0995448
-0.0849255
0.104878
-0.0583139
0.116566
-0.0194717
0.132521
0.0279414
0.149296
0.0922958
0.163974
0.168475
0.173161
0.249639
0.175165
0.283071
0.171751
0.248616
0.165577
0.138217
0.158637
0.00196311
0.15227
-0.11342
0.149332
-0.186425
0.146204
-0.18299
0.13981
-0.199497
0.133728
-0.188341
0.133131
-0.211358
0.140231
-0.126042
0.146553
0.0233377
0.149043
0.155331
0.147748
0.334033
0.14854
0.255588
0.154315
0.252603
0.15765
0.086791
-0.113712
0.188614
-0.0146556
-0.193117
0.18492
-0.0171363
0.181103
-0.0187905
0.176955
-0.0202248
0.172544
-0.0212104
0.168017
-0.0214496
0.163507
-0.0207517
0.159129
-0.0189883
0.155004
-0.0160353
0.15123
-0.0118049
0.147926
-0.00630558
0.145093
0.000499601
0.143162
0.00874532
0.141873
0.0175831
0.141401
0.026566
0.142202
0.0353562
0.144894
0.0434095
0.150001
0.0495958
0.157578
0.0522992
0.167273
0.0500555
0.178477
0.0412133
0.189524
0.0241341
0.197605
-0.000763347
0.201079
-0.0293218
0.199647
-0.0565354
0.194563
-0.0793361
0.187317
-0.0963236
0.179074
-0.107819
0.170676
-0.114689
0.162611
-0.117957
0.154785
-0.117917
0.147312
-0.116243
0.140437
-0.111445
0.133225
-0.103404
0.124909
-0.091815
0.117446
-0.0774622
0.114577
-0.0554451
0.117669
-0.0225639
0.124424
0.0211868
0.131738
0.0849817
0.137754
0.162459
0.14228
0.245113
0.146986
0.278365
0.153561
0.242041
0.160443
0.131334
0.16391
-0.00150356
0.163367
-0.112878
0.160578
-0.183636
0.155675
-0.178087
0.147602
-0.191424
0.139436
-0.180175
0.134712
-0.206633
0.135185
-0.126516
0.13604
0.0224829
0.134444
0.156927
0.132974
0.335502
0.135089
0.253474
0.141948
0.245743
0.145928
0.0828112
-0.112016
0.19815
-0.0112988
-0.201507
0.194659
-0.0136458
0.191172
-0.0153033
0.187446
-0.016499
0.183505
-0.0172686
0.179485
-0.01743
0.175522
-0.016789
0.171736
-0.0152023
0.168263
-0.012562
0.165257
-0.00879923
0.162853
-0.00390131
0.161151
0.0022016
0.160441
0.00945485
0.160685
0.0173393
0.161921
0.0253299
0.164342
0.0329356
0.168272
0.0394794
0.173973
0.0438943
0.181396
0.0448765
0.190177
0.0412749
0.199506
0.0318845
0.207812
0.0158281
0.213045
-0.00599681
0.214078
-0.0303547
0.21109
-0.0535477
0.205092
-0.073338
0.197341
-0.0885725
0.188853
-0.0993309
0.180309
-0.106146
0.17217
-0.109818
0.164337
-0.110085
0.156732
-0.108638
0.149738
-0.104451
0.142888
-0.0965542
0.135093
-0.0840195
0.127439
-0.0698081
0.123587
-0.0515932
0.125555
-0.0245323
0.131981
0.0147608
0.139679
0.0772839
0.14664
0.155497
0.152314
0.23944
0.158276
0.272403
0.165982
0.234335
0.173564
0.123752
0.177163
-0.00510236
0.175838
-0.111553
0.17207
-0.179868
0.16643
-0.172446
0.157854
-0.182848
0.148978
-0.171299
0.143464
-0.201118
0.14381
-0.126862
0.144976
0.0213163
0.143643
0.158261
0.14233
0.336814
0.144758
0.251047
0.152503
0.237998
0.156821
0.0784932
-0.110088
0.207856
-0.00860533
-0.21055
0.204718
-0.0105071
0.201455
-0.0120404
0.198072
-0.0131164
0.194551
-0.0137473
0.190976