/*--------------------------------*- C++ -*----------------------------------*\
| =========                 |                                                 |
| \\      /  F ield         | OpenFOAM: The Open Source CFD Toolbox           |
|  \\    /   O peration     | Version:  2512                                  |
|   \\  /    A nd           | Website:  www.openfoam.com                      |
|    \\/     M anipulation  |                                                 |
\*---------------------------------------------------------------------------*/
FoamFile
{
    version     2.0;
    format      ascii;
    arch        "LSB;label=32;scalar=64";
    class       volVectorField;
    location    "189";
    object      U;
}
// * * * * * * * * * * * * * * * * * * * * * * * * * * * * * * * * * * * * * //

dimensions      [0 1 -1 0 0 0 0];

internalField   nonuniform List<vector> 
13248
(
(-0.0128505 0.0126433 1.00846e-19)
(-0.0198386 0.0261838 0)
(-0.0074145 0.032938 -1.90588e-19)
(0.0229666 0.0341727 1.79525e-19)
(0.0702012 0.0312402 1.68324e-19)
(0.13334 0.0254294 0)
(0.211279 0.0178018 0)
(0.302495 0.00921812 4.1296e-19)
(0.404822 0.00034099 -2.9349e-22)
(0.515264 -0.0083666 -3.63698e-19)
(0.630007 -0.016629 3.39853e-19)
(0.744627 -0.0243342 -2.12935e-19)
(0.854478 -0.0314969 0)
(0.955171 -0.0382105 -3.6223e-19)
(1.04304 -0.044594 6.72239e-19)
(1.11553 -0.0507442 -1.61208e-19)
(1.17139 -0.056701 -2.73328e-19)
(1.21071 -0.0624403 2.56627e-19)
(1.23477 -0.0678417 0)
(1.24568 -0.072904 0)
(1.24618 -0.0770011 0)
(1.23818 -0.0819665 0)
(1.22575 -0.0821271 6.55013e-20)
(1.20526 -0.0953782 2.18244e-19)
(-0.0112025 0.00981393 -3.04217e-19)
(-0.0110814 0.0174522 2.07077e-19)
(0.0118224 0.0194126 -1.72691e-21)
(0.0557181 0.0173426 -2.73701e-19)
(0.119226 0.0127623 -1.68144e-19)
(0.200879 0.00701053 -1.59226e-19)
(0.298625 0.00110269 -2.94802e-19)
(0.409506 -0.00425095 2.78146e-19)
(0.52951 -0.00863996 0)
(0.653662 -0.011949 9.72363e-22)
(0.776396 -0.0143244 1.24537e-21)
(0.892141 -0.0161039 2.10238e-19)
(0.995959 -0.0177183 0)
(1.0841 -0.0195861 0)
(1.15438 -0.0220228 2.39548e-19)
(1.20627 -0.0251839 -4.50211e-19)
(1.24074 -0.0290495 2.60211e-19)
(1.25997 -0.0334459 -2.44325e-19)
(1.26681 -0.0380954 -1.04008e-19)
(1.26434 -0.0426702 -1.83582e-19)
(1.2554 -0.0467841 -7.09469e-20)
(1.24235 -0.0504203 -1.31412e-19)
(1.22712 -0.0515335 2.00448e-19)
(1.20935 -0.0569837 5.48368e-20)
(-0.00850011 0.00697824 0)
(0.0015847 0.00908016 0)
(0.0384899 0.0071352 9.68531e-20)
(0.099687 0.00297818 8.95275e-20)
(0.183022 -0.00177905 -1.69522e-21)
(0.285846 -0.00580476 -1.63469e-19)
(0.40436 -0.00825712 0)
(0.533408 -0.00877801 -1.38621e-19)
(0.666681 -0.00745891 1.29806e-19)
(0.797297 -0.00477379 -2.91873e-22)
(0.918646 -0.00145155 -2.22831e-19)
(1.02523 0.00169514 -2.03228e-19)
(1.11332 0.00394277 4.83776e-21)
(1.18124 0.00479021 -1.64139e-19)
(1.22933 0.00402552 3.97867e-19)
(1.25955 0.00172148 0)
(1.27493 -0.0018247 -2.48403e-19)
(1.27892 -0.00618538 1.21932e-19)
(1.27486 -0.0108809 1.03926e-19)
(1.26556 -0.0155077 0)
(1.25323 -0.0195633 8.15282e-20)
(1.2392 -0.0232708 -2.71565e-19)
(1.2247 -0.0248201 2.54931e-19)
(1.20919 -0.0304984 1.51545e-19)
(-0.00422336 0.00399067 -1.06581e-19)
(0.0192882 0.000999459 -1.10001e-19)
(0.0739442 -0.00364034 1.00001e-19)
(0.156009 -0.00823188 0)
(0.261866 -0.0112751 0)
(0.386828 -0.0116481 -2.85522e-21)
(0.524533 -0.00895403 0)
(0.667171 -0.00349325 -4.19608e-19)
(0.806328 0.00388068 3.89785e-19)
(0.934156 0.011982 -4.81844e-19)
(1.04449 0.0195668 1.10811e-19)
(1.13357 0.0255913 0)
(1.20029 0.0293892 1.80955e-19)
(1.24585 0.0307337 -3.33819e-19)
(1.27316 0.0297916 7.97604e-20)
(1.28598 0.0270061 1.98913e-19)
(1.28821 0.022953 -1.16202e-20)
(1.28331 0.018217 -2.18507e-19)
(1.27399 0.0133031 0)
(1.26219 0.00860766 0)
(1.24918 0.00443067 -7.46851e-20)
(1.23567 0.000759092 6.60075e-20)
(1.22227 -0.0013347 2.29634e-19)
(1.20841 -0.00654308 -2.15654e-19)
(0.00213155 0.000853262 -1.11366e-19)
(0.0430208 -0.00657253 -1.11425e-19)
(0.119113 -0.0123659 3.13638e-19)
(0.224906 -0.015386 -1.91242e-19)
(0.354475 -0.014583 1.8e-19)
(0.500217 -0.00940263 3.2858e-19)
(0.65269 -0.000278431 -2.3183e-19)
(0.801654 0.0115232 -2.81448e-19)
(0.937671 0.0242772 5.98978e-21)
(1.0536 0.0362276 3.61466e-19)
(1.14549 0.0459611 0)
(1.21266 0.0526348 9.80999e-20)
(1.25715 0.0560212 0)
(1.28273 0.056403 -1.58568e-19)
(1.29386 0.0543827 2.23044e-19)
(1.29484 0.0506835 2.4725e-21)
(1.28927 0.0459949 -5.7297e-20)
(1.27981 0.0408841 1.06528e-19)
(1.26827 0.0357708 9.09555e-20)
(1.25579 0.0309378 -8.07929e-20)
(1.243 0.0265723 7.46659e-20)
(1.23028 0.02269 -6.59896e-20)
(1.21785 0.0198307 0)
(1.20542 0.0148209 -4.93549e-20)
(0.0109892 -0.00225702 1.1135e-19)
(0.0734929 -0.0130531 1.164e-19)
(0.174315 -0.0180909 -1.04989e-19)
(0.305528 -0.0172867 1.95838e-19)
(0.458019 -0.0105256 -1.84318e-19)
(0.620655 0.00169052 1.67144e-19)
(0.781076 0.0177075 -7.99856e-20)
(0.927754 0.0351593 2.11276e-19)
(1.05205 0.0516405 -1.32297e-19)
(1.14941 0.0652597 2.33186e-19)
(1.21935 0.0749396 -5.36816e-19)
(1.26461 0.0804391 1.96224e-19)
(1.28982 0.0821676 -1.71115e-19)
(1.30016 0.0809069 1.60737e-19)
(1.3004 0.0775464 1.37425e-19)
(1.29435 0.072897 1.19609e-19)
(1.28473 0.0676011 -3.32151e-19)
(1.27332 0.0621178 2.05698e-19)
(1.26116 0.0567509 -9.09578e-20)
(1.24883 0.0516916 2.34696e-19)
(1.23665 0.0470512 -7.58219e-20)
(1.22474 0.0428767 -1.81409e-19)
(1.21319 0.0394143 1.66967e-19)
(1.20179 0.0346016 4.93401e-20)
(0.0226546 -0.00501138 0)
(0.111014 -0.0175413 8.01954e-22)
(0.239104 -0.0195475 2.17809e-19)
(0.395868 -0.0125966 -2.04474e-19)
(0.568313 0.00188077 -1.8504e-19)
(0.741777 0.0218218 3.43921e-19)
(0.90207 0.0441499 -1.59728e-19)
(1.03829 0.0656066 2.12693e-19)
(1.14458 0.0836175 -4.89197e-21)
(1.22025 0.0967363 -1.20082e-19)
(1.26853 0.104651 2.61424e-19)
(1.2949 0.107896 -3.84672e-19)
(1.30534 0.107462 0)
(1.30524 0.104442 -7.48939e-20)
(1.29879 0.0998043 -1.99356e-19)
(1.28888 0.0942956 6.27484e-20)
(1.27733 0.0884344 2.77349e-21)
(1.26519 0.0825551 -1.35383e-19)
(1.25301 0.0768631 9.48376e-21)
(1.24105 0.0714804 1.56068e-19)
(1.22942 0.0664768 -6.86777e-20)
(1.21816 0.0619015 -2.57493e-20)
(1.20727 0.0577807 8.05154e-20)
(1.19661 0.0529821 0)
(0.037282 -0.00697121 0)
(0.155393 -0.0189363 5.8908e-20)
(0.312168 -0.015352 -2.82109e-19)
(0.492813 -0.000118013 1.02919e-19)
(0.680257 0.0231477 -9.68608e-20)
(0.857197 0.0504917 -8.8173e-20)
(1.00953 0.0775824 -1.56306e-19)
(1.12911 0.100836 7.78746e-20)
(1.21427 0.118173 6.80642e-20)
(1.26844 0.129076 0)
(1.29787 0.134176 1.53953e-19)
(1.30953 0.134707 -2.28201e-19)
(1.30962 0.132028 1.70081e-19)
(1.3029 0.127329 7.49338e-20)
(1.29262 0.121506 -6.09862e-20)
(1.28077 0.11517 -5.07642e-20)
(1.26843 0.108703 -4.71984e-20)
(1.25617 0.102334 1.41859e-19)
(1.24423 0.0961983 0)
(1.23271 0.0903741 7.0499e-20)
(1.22163 0.0849127 5.86941e-20)
(1.21096 0.0798461 -1.46324e-19)
(1.20066 0.0751139 -9.8896e-20)
(1.19063 0.0702681 9.16813e-20)
(0.0548397 -0.00763466 -6.23596e-20)
(0.205874 -0.0160869 -1.8413e-21)
(0.391333 -0.004251 5.71967e-20)
(0.592406 0.0209268 1.59366e-19)
(0.788521 0.0531387 4.62413e-20)
(0.961506 0.0865856 -8.93156e-20)
(1.09961 0.116263 8.19127e-20)
(1.1991 0.139027 -7.20231e-20)
(1.26292 0.153874 1.28463e-19)
(1.298 0.161442 5.48254e-20)
(1.3124 0.163237 -1.55073e-19)
(1.31343 0.160972 4.5832e-20)
(1.30671 0.156147 7.80683e-20)
(1.29605 0.149884 -3.84199e-20)
(1.28372 0.142932 0)
(1.27097 0.135749 5.72e-20)
(1.2584 0.128601 9.66255e-20)
(1.24627 0.121638 1.63907e-20)
(1.23465 0.114945 -8.04071e-20)
(1.22356 0.108577 3.36573e-20)
(1.21296 0.102569 0)
(1.20279 0.0969251 -2.63265e-20)
(1.193 0.0915757 -2.45435e-20)
(1.18348 0.0865154 0)
(0.0750717 -0.00648635 0)
(0.261106 -0.00794572 3.25479e-20)
(0.473692 0.0146617 6.02788e-20)
(0.690285 0.0507218 -1.61548e-19)
(0.888274 0.0910807 5.18819e-20)
(1.05093 0.12861 0)
(1.17082 0.158499 7.82891e-20)
(1.24936 0.178776 -1.09175e-19)
(1.29369 0.189846 -6.39216e-20)
(1.31307 0.19348 2.9031e-20)
(1.31625 0.19184 -4.60975e-20)
(1.31004 0.186868 1.12135e-19)
(1.2991 0.180021 5.63069e-20)
(1.28622 0.172262 -3.91169e-20)
(1.2729 0.164171 -3.65847e-21)
(1.25984 0.156068 -1.07374e-19)
(1.24733 0.14813 4.89038e-20)
(1.23545 0.140451 -1.10893e-21)
(1.22421 0.133088 0)
(1.21356 0.126077 -3.36919e-20)
(1.20343 0.119437 0)
(1.19376 0.113151 7.61204e-20)
(1.18446 0.107202 -9.06601e-20)
(1.17542 0.101802 4.1286e-20)
(0.0974742 -0.00304538 -1.666e-20)
(0.319199 0.00630424 -8.15533e-20)
(0.555854 0.0418066 9.24688e-20)
(0.782184 0.0888247 5.45777e-20)
(0.975697 0.135714 -2.61728e-20)
(1.12338 0.174945 4.38217e-20)
(1.22336 0.202835 -2.13508e-20)
(1.28207 0.219095 3.55889e-20)
(1.30981 0.225614 0)
(1.31705 0.225095 8.0791e-20)
(1.31228 0.220086 -3.21008e-21)
(1.3014 0.212546 -6.54e-20)
(1.288 0.203771 2.81127e-20)
(1.274 0.194533 -3.18268e-20)
(1.26029 0.185249 -1.22176e-20)
(1.24724 0.176134 1.39744e-20)
(1.23496 0.167298 -1.08985e-20)
(1.22343 0.158799 -5.89441e-20)
(1.21261 0.150672 3.61714e-20)
(1.20242 0.14294 7.46221e-21)
(1.19277 0.135601 6.57957e-21)
(1.18359 0.128629 5.80165e-21)
(1.17477 0.122087 0)
(1.16618 0.116181 0)
(0.121375 0.00310054 1.66715e-20)
(0.377975 0.0271711 -1.67572e-20)
(0.634417 0.0770657 -3.07536e-20)
(0.864478 0.134251 0)
(1.04824 0.185509 -1.29403e-20)
(1.17821 0.224064 -1.15603e-20)
(1.25839 0.248133 -1.98966e-20)
(1.2995 0.259353 0)
(1.31387 0.260953 0)
(1.31215 0.256289 0)
(1.30203 0.24805 0)
(1.28832 0.238058 0)
(1.27363 0.227397 -1.76968e-20)
(1.25919 0.216645 8.07138e-21)
(1.2455 0.206088 1.40792e-20)
(1.2327 0.195859 6.57123e-21)
(1.22078 0.18602 1.63828e-20)
(1.20969 0.176605 0)
(1.19936 0.167631 -3.96821e-21)
(1.1897 0.159107 -3.74842e-21)
(1.18059 0.151014 -6.58996e-21)
(1.17195 0.143334 -5.81084e-21)
(1.16367 0.136212 0)
(1.1556 0.129674 4.21954e-21)
(-0.00275923 0.0337953 9.45183e-21)
(-0.0104367 0.0702066 -9.80822e-21)
(-0.0228451 0.0856128 -1.85753e-20)
(-0.0376386 0.0869676 0)
(-0.0535438 0.0795014 -2.47777e-20)
(-0.0699556 0.0668611 7.68572e-21)
(-0.0864462 0.0512925 -1.48722e-20)
(-0.102694 0.0339202 0)
(-0.118464 0.0150869 0)
(-0.133551 -0.00531406 0)
(-0.147793 -0.0275599 0)
(-0.161073 -0.051938 0)
(-0.173258 -0.0786559 -3.20797e-22)
(-0.184211 -0.107796 -9.72692e-21)
(-0.193787 -0.13929 1.89706e-20)
(-0.201834 -0.172908 2.63904e-20)
(-0.208187 -0.208251 8.64365e-21)
(-0.21268 -0.244736 0)
(-0.215154 -0.281592 6.92517e-21)
(-0.215484 -0.317869 -1.99141e-20)
(-0.213554 -0.352467 -1.23691e-20)
(-0.209187 -0.384177 -1.13591e-20)
(-0.202308 -0.41171 0)
(-0.193624 -0.433825 0)
(-0.00506481 0.0383077 -2.87511e-20)
(-0.014685 0.0811385 4.93683e-20)
(-0.0269954 0.101032 -1.91492e-20)
(-0.0406148 0.105436 -3.58311e-20)
(-0.0547795 0.0999362 5.03386e-20)
(-0.0691281 0.088453 -3.21282e-20)
(-0.0833521 0.0734472 4.50876e-20)
(-0.0971778 0.0562028 2.93707e-20)
(-0.110382 0.0371788 0)
(-0.12278 0.0163512 -2.54469e-20)
(-0.134214 -0.00653601 -4.1944e-22)
(-0.144567 -0.0317615 2.23892e-20)
(-0.15376 -0.0595251 3.32967e-20)
(-0.161704 -0.0899229 4.16631e-20)
(-0.168313 -0.122907 -1.88262e-20)
(-0.173516 -0.158269 -5.46603e-20)
(-0.177254 -0.195623 1.78336e-20)
(-0.179485 -0.234395 -6.58273e-20)
(-0.180202 -0.273807 0)
(-0.179446 -0.312885 1.33958e-20)
(-0.177279 -0.350474 1.23532e-20)
(-0.173604 -0.385276 1.13446e-20)
(-0.168293 -0.415884 0)
(-0.162724 -0.440883 0)
(-0.00762992 0.0414705 0)
(-0.0193408 0.0895187 1.03843e-19)
(-0.0311586 0.113586 -3.9062e-20)
(-0.0428546 0.121146 3.65983e-20)
(-0.0542712 0.117872 -1.056e-19)
(-0.0653344 0.107833 0)
(-0.0758811 0.0936596 -6.33881e-20)
(-0.0856977 0.0767992 3.02807e-20)
(-0.0945723 0.0578486 -5.81033e-20)
(-0.10232 0.0368836 2.88558e-20)
(-0.10879 0.0137264 1.56273e-19)
(-0.113847 -0.0118718 -7.35182e-20)
(-0.117406 -0.0401087 -1.16049e-19)
(-0.119428 -0.0710662 -4.59555e-20)
(-0.119879 -0.104698 -4.71714e-22)
(-0.118755 -0.140807 1.57172e-19)
(-0.116101 -0.179012 -7.38705e-20)
(-0.112006 -0.218743 -2.06745e-21)
(-0.106622 -0.259228 0)
(-0.10018 -0.299493 -6.06415e-20)
(-0.092975 -0.338358 0)
(-0.0851136 -0.374466 -4.62525e-20)
(-0.0762494 -0.406366 1.76853e-19)
(-0.067742 -0.43273 -3.81304e-21)
(-0.0101927 0.0429283 0)
(-0.0239776 0.0944957 1.41496e-21)
(-0.0349839 0.122108 4.10826e-20)
(-0.0441701 0.132744 -3.91271e-20)
(-0.0520177 0.131856 3.51468e-20)
(-0.058765 0.123498 2.07459e-19)
(-0.0644205 0.110393 -6.50283e-20)
(-0.068851 0.0941307 -6.31607e-20)
(-0.0718659 0.0754547 1.1823e-19)
(-0.0732708 0.0545649 -1.68855e-19)
(-0.0728985 0.0313777 5.41436e-20)
(-0.0706187 0.00571028 5.2151e-20)
(-0.0663251 -0.022607 0)
(-0.0599571 -0.0536338 4.51803e-20)
(-0.0515421 -0.0872894 0)
(-0.0411279 -0.123386 8.4464e-20)
(-0.0288368 -0.161497 -1.55311e-19)
(-0.0148842 -0.201018 3.66473e-20)
(0.000421323 -0.241152 1.35733e-19)
(0.0166605 -0.280909 6.05681e-20)
(0.0332758 -0.319112 0)
(0.049716 -0.354402 -1.49503e-19)
(0.0661442 -0.385168 4.76691e-20)
(0.0844394 -0.409482 0)
(-0.0124752 0.0425451 0)
(-0.028139 0.0955907 -1.31849e-19)
(-0.0381349 0.125804 -4.22646e-20)
(-0.0444583 0.139182 -7.90649e-20)
(-0.0481903 0.140671 7.44477e-20)
(-0.0498774 0.134131 -6.98001e-20)
(-0.0497207 0.122277 1.35496e-19)
(-0.0476931 0.106793 6.47696e-20)
(-0.0436461 0.0885568 -1.81511e-19)
(-0.0373881 0.0679026 1.1745e-19)
(-0.0287349 0.0448553 -1.66114e-19)
(-0.0175371 0.019312 3.74256e-19)
(-0.0036867 -0.00883077 -2.00704e-19)
(0.0129049 -0.0395956 9.73027e-20)
(0.032158 -0.0728993 2.74877e-19)
(0.0539529 -0.108478 -8.39067e-20)
(0.0781319 -0.145855 -8.21232e-20)
(0.10433 -0.184371 -7.51015e-20)
(0.132065 -0.22316 0)
(0.160718 -0.261178 -1.25673e-19)
(0.189484 -0.297249 -1.0865e-19)
(0.217543 -0.330043 1.60758e-19)
(0.244311 -0.357776 1.76679e-19)
(0.275754 -0.377305 -1.66423e-19)
(-0.0142468 0.0404398 0)
(-0.0314123 0.0927996 -1.82663e-19)
(-0.0403074 0.124373 -1.38202e-21)
(-0.0436658 0.139856 1.61509e-19)
(-0.0430279 0.143473 0)
(-0.0392232 0.138724 0)
(-0.0326514 0.128202 0)
(-0.0234137 0.113615 -6.5985e-20)
(-0.0114272 0.0959439 -1.7868e-21)
(0.00347792 0.0756463 1.18541e-19)
(0.0214896 0.0528626 -1.71084e-19)
(0.0427721 0.0275817 -1.1178e-21)
(0.0674391 -0.00022516 0)
(0.0955348 -0.0305292 -9.7239e-20)
(0.126988 -0.0632049 9.47561e-20)
(0.161587 -0.0978959 -2.6382e-19)
(0.198993 -0.13409 3.28415e-19)
(0.238671 -0.171052 7.41364e-20)
(0.279895 -0.207838 -6.33619e-21)
(0.321787 -0.243334 -2.62119e-19)
(0.363197 -0.276358 -1.16033e-19)
(0.403579 -0.305521 3.5608e-19)
(0.439252 -0.330052 -2.33405e-19)
(0.485774 -0.343843 0)
(-0.0153709 0.0369587 9.14754e-20)
(-0.0335221 0.0865781 9.18609e-20)
(-0.0412792 0.118052 -8.83552e-20)
(-0.0417296 0.134696 -1.65518e-19)
(-0.0366962 0.139893 1.55842e-19)
(-0.0272211 0.136672 -1.48609e-19)
(-0.0138839 0.127399 2.10475e-19)
(0.00308116 0.11373 -6.63577e-20)
(0.0236756 0.0966926 1.26416e-19)
(0.0480314 0.0768437 0)
(0.0763244 0.0544305 1.18214e-19)
(0.108717 0.0295502 -2.20031e-19)
(0.145306 0.00225809 2.11003e-19)
(0.18607 -0.0273418 -1.98172e-19)
(0.230829 -0.0590238 0)
(0.279196 -0.0923814 1.76783e-19)
(0.33055 -0.126813 3.29638e-19)
(0.384013 -0.161509 -3.09482e-19)
(0.438449 -0.195478 -1.40259e-19)
(0.492621 -0.227561 -1.2432e-19)
(0.54471 -0.256737 3.52045e-19)
(0.595157 -0.281122 9.46651e-20)
(0.635442 -0.30237 -9.52297e-20)
(0.692461 -0.310189 7.52998e-20)
(-0.0158395 0.0325958 -9.14878e-20)
(-0.0343539 0.0777452 2.85056e-19)
(-0.0408953 0.107587 -9.01857e-20)
(-0.0385145 0.124192 1.68252e-19)
(-0.0291222 0.130126 -1.58412e-19)
(-0.0138786 0.127904 1.8196e-22)
(0.0065062 0.119599 7.09902e-20)
(0.0316867 0.106739 2.72787e-19)
(0.0615879 0.0903455 3.14859e-21)
(0.0962946 0.071037 -1.20592e-19)
(0.135956 0.0491618 0)
(0.180684 0.024918 -1.12375e-19)
(0.230475 -0.0015376 2.09396e-19)
(0.28514 -0.0299887 1.99992e-19)
(0.344223 -0.0600991 -9.41605e-20)
(0.40695 -0.0913658 -7.86934e-22)
(0.472205 -0.123101 -8.25804e-20)
(0.538552 -0.15444 1.50337e-19)
(0.604264 -0.184403 1.40207e-19)
(0.667684 -0.21182 -1.27172e-19)
(0.726232 -0.236106 1.10635e-19)
(0.781341 -0.254659 -9.74778e-20)
(0.821295 -0.27186 0)
(0.878704 -0.273434 -7.52281e-20)
(-0.0157639 0.0278946 9.40872e-20)
(-0.0339492 0.0673225 -9.56412e-20)
(-0.0390207 0.0940849 9.11858e-20)
(-0.0336916 0.109332 0)
(-0.0197842 0.114959 0)
(0.00152756 0.112999 1.53244e-19)
(0.0294791 0.105207 -1.42952e-19)
(0.0636607 0.0929468 1.37569e-19)
(0.103939 0.0771895 -6.45093e-19)
(0.150337 0.0585856 -1.12087e-21)
(0.202902 0.0375587 1.1623e-19)
(0.261574 0.0144081 0)
(0.326067 -0.0105811 -2.10303e-19)
(0.395764 -0.0370698 3.95742e-19)
(0.469635 -0.0646088 -2.7978e-19)
(0.546215 -0.0926096 -4.33961e-19)
(0.623639 -0.120344 5.13547e-21)
(0.699747 -0.146973 2.96204e-19)
(0.772212 -0.171633 0)
(0.839002 -0.193288 0)
(0.897399 -0.211809 -1.10629e-19)
(0.948889 -0.22437 9.74756e-20)
(0.982875 -0.237072 -3.1882e-19)
(1.02886 -0.233218 2.98973e-19)
(-0.0153254 0.0233344 0)
(-0.0324148 0.056322 0)
(-0.035426 0.0788097 -2.74628e-19)
(-0.0265828 0.0914595 8.70877e-20)
(-0.00749601 0.0957155 5.47572e-23)
(0.0207405 0.0932261 1.5369e-19)
(0.0573896 0.0854585 0)
(0.102021 0.0736118 -1.36384e-19)
(0.154427 0.0585876 1.29067e-19)
(0.214472 0.0410428 -2.45437e-19)
(0.281918 0.0214642 -9.06107e-22)
(0.356251 0.00025525 2.20355e-19)
(0.436539 -0.0221942 8.64292e-22)
(0.521342 -0.045453 1.95133e-19)
(0.608692 -0.0690156 -2.76071e-19)
(0.696171 -0.092297 0)
(0.781074 -0.114648 3.10483e-19)
(0.860635 -0.135398 -4.37686e-19)
(0.932296 -0.153908 1.2745e-19)
(0.994033 -0.169513 0)
(1.04404 -0.182237 1.01291e-19)
(1.08334 -0.189957 3.52783e-19)
(1.10589 -0.198598 -3.31134e-19)
(1.13213 -0.191774 -3.28999e-19)
(-0.0146907 0.0192353 2.89414e-19)
(-0.0297722 0.045549 -3.97062e-19)
(-0.0296305 0.0629624 9.51672e-22)
(-0.0160184 0.0720769 8.80997e-20)
(0.00971427 0.0741252 -1.64418e-19)
(0.0466071 0.070503 -1.53314e-19)
(0.0939734 0.0624809 2.90005e-19)
(0.151341 0.0511088 8.43961e-22)
(0.218287 0.0372133 -2.57368e-19)
(0.294251 0.0214487 4.88494e-19)
(0.378327 0.0043401 2.06819e-21)
(0.469083 -0.0136646 -2.1702e-19)
(0.564473 -0.0321493 0)
(0.661861 -0.050699 0)
(0.758159 -0.0688879 -9.04436e-20)
(0.850074 -0.0862832 -1.62503e-19)
(0.934416 -0.102457 -2.99065e-19)
(1.00841 -0.117029 2.8075e-19)
(1.07001 -0.129626 -1.27527e-19)
(1.11804 -0.140067 2.1671e-19)
(1.15239 -0.14815 -1.13462e-19)
(1.17418 -0.153287 1.55897e-19)
(1.18259 -0.1589 -3.88581e-19)
(1.18888 -0.152504 6.70903e-20)
(-0.0139101 0.0157029 9.76393e-20)
(-0.0257843 0.0354719 0)
(-0.0207542 0.0474938 1.88017e-19)
(-0.000277652 0.0526305 -1.77108e-19)
(0.0345113 0.0521092 1.6457e-19)
(0.0827733 0.0472255 0)
(0.143768 0.0391076 0)
(0.216737 0.028683 -1.37348e-19)
(0.300693 0.0167246 -5.93279e-22)
(0.39417 0.00384303 1.20964e-19)
(0.495038 -0.00948607 -1.1402e-19)
(0.600452 -0.0228915 2.15027e-19)
(0.706949 -0.0360814 0)
(0.810685 -0.0488222 3.72732e-19)
(0.907793 -0.0609223 -6.94009e-19)
(0.994763 -0.0722193 4.85643e-19)
(1.06882 -0.0825661 2.86504e-19)
(1.12816 -0.0918511 -2.68979e-19)
(1.17218 -0.0999094 0)
(1.20126 -0.106855 0)
(1.21711 -0.112126 0)
(1.22136 -0.116916 0)
(1.21726 -0.119808 7.37437e-20)
(1.20933 -0.118561 -2.4066e-19)
(-0.182651 -0.452779 -6.39177e-21)
(-0.166802 -0.465449 6.42511e-21)
(-0.142677 -0.461974 -1.8737e-22)
(-0.111073 -0.440257 0)
(-0.0709062 -0.397993 -5.91268e-21)
(-0.0225796 -0.334381 1.16082e-20)
(0.0320509 -0.250106 8.76636e-23)
(0.0910675 -0.146801 -5.62305e-21)
(0.152916 -0.0285233 0)
(0.21552 0.0994815 0)
(0.277679 0.229726 -2.72468e-22)
(0.338764 0.352682 -2.408e-22)
(0.396698 0.457049 -3.45814e-21)
(0.448028 0.533158 3.16149e-21)
(0.489453 0.577052 0)
(0.518853 0.592131 0)
(0.533676 0.589615 1.60791e-21)
(0.530098 0.585252 -4.43061e-23)
(0.508867 0.586677 -1.38176e-21)
(0.482226 0.579729 -1.00171e-22)
(0.471364 0.53154 0)
(0.491736 0.415149 0)
(0.541644 0.233027 0)
(0.607516 0.0168319 0)
(0.675495 -0.18931 0)
(0.734471 -0.346703 0)
(0.777371 -0.441509 4.253e-22)
(0.801561 -0.483394 -7.09201e-22)
(0.810646 -0.489316 0)
(0.81021 -0.477846 0)
(0.797215 -0.471371 -3.06557e-22)
(0.764043 -0.483407 2.97951e-22)
(0.716214 -0.487424 1.54983e-22)
(0.675795 -0.433856 0)
(0.665297 -0.2894 0)
(0.685044 -0.0860604 4.55826e-22)
(0.724576 0.117284 -4.43081e-22)
(0.767694 0.267591 0)
(0.807894 0.3521 2.57588e-22)
(0.834772 0.395147 -3.61416e-22)
(0.835748 0.420668 9.72421e-23)
(0.803997 0.449249 0)
(0.760378 0.426662 -2.14355e-22)
(0.727842 0.341729 2.08439e-22)
(0.732609 0.162844 0)
(0.757625 -0.0235163 0)
(0.802066 -0.178181 -8.76638e-23)
(0.832462 -0.282233 2.4338e-22)
(0.831902 -0.328452 0)
(0.799225 -0.390067 0)
(0.767954 -0.331731 -4.98035e-23)
(0.758153 -0.26513 4.31101e-24)
(0.788097 -0.0828719 -1.99465e-24)
(0.808157 0.0778885 3.60234e-23)
(0.816555 0.190556 0)
(0.800643 0.364242 0)
(0.797902 0.287984 0)
(0.789778 0.310837 0)
(0.804078 0.104404 0)
(0.788718 -0.133828 0)
(-0.16024 -0.462877 -6.3685e-22)
(-0.161551 -0.482694 -2.46898e-20)
(-0.155072 -0.487212 1.0613e-21)
(-0.142406 -0.474182 2.21725e-20)
(-0.120956 -0.440746 3.09333e-22)
(-0.0897824 -0.385277 0)
(-0.0484468 -0.307701 -1.95137e-20)
(0.00141549 -0.209298 3.84009e-20)
(0.0571455 -0.0937677 -1.88818e-20)
(0.117047 0.0348114 1.7028e-20)
(0.179701 0.165876 -1.62775e-20)
(0.244088 0.291408 1.3268e-20)
(0.308084 0.401157 -1.28458e-20)
(0.368238 0.485986 -2.9279e-22)
(0.420638 0.541435 -7.93334e-21)
(0.46128 0.570278 7.70975e-21)
(0.48556 0.583089 -6.28973e-21)
(0.490537 0.592607 5.92819e-21)
(0.481226 0.600696 -6.54466e-21)
(0.473573 0.588801 1.35419e-20)
(0.487122 0.526206 -6.97023e-21)
(0.530247 0.394103 -5.53233e-22)
(0.59558 0.200954 -9.60291e-21)
(0.669192 -0.0202254 1.85364e-20)
(0.737883 -0.224717 -8.94484e-21)
(0.791048 -0.375225 4.59429e-22)
(0.824225 -0.459798 5.17617e-21)
(0.837582 -0.491621 -9.11442e-22)
(0.835792 -0.49045 -6.72656e-21)
(0.826092 -0.473392 5.45847e-21)
(0.807429 -0.459469 -2.4598e-21)
(0.771307 -0.463705 2.65245e-22)
(0.718884 -0.466068 -1.55288e-22)
(0.670368 -0.420852 3.14719e-22)
(0.650269 -0.290359 0)
(0.663536 -0.0992734 0)
(0.701005 0.0980489 -1.43292e-21)
(0.747236 0.248328 1.0891e-21)
(0.793531 0.33738 7.19502e-22)
(0.826087 0.388997 4.97522e-24)
(0.831303 0.425071 -9.08276e-22)
(0.802762 0.461295 1.93272e-22)
(0.765324 0.4391 0)
(0.738124 0.347375 0)
(0.747375 0.16002 0)
(0.771524 -0.0331786 0)
(0.813701 -0.188491 4.33484e-22)
(0.842084 -0.286587 -1.58268e-22)
(0.839936 -0.324098 0)
(0.807209 -0.381717 0)
(0.7726 -0.326677 0)
(0.762497 -0.267466 -7.84448e-23)
(0.787905 -0.0887846 1.53935e-23)
(0.805727 0.0743806 -7.99365e-23)
(0.812683 0.191108 0)
(0.795875 0.366277 0)
(0.796248 0.288425 4.3213e-23)
(0.788235 0.310135 1.25857e-22)
(0.807657 0.104727 0)
(0.792667 -0.132421 0)
(-0.0708498 -0.455949 -3.29988e-21)
(-0.0883019 -0.481451 -5.18723e-20)
(-0.100051 -0.493653 4.4153e-20)
(-0.10874 -0.489938 -4.13325e-20)
(-0.11091 -0.467233 -3.11451e-22)
(-0.103643 -0.42343 0)
(-0.0843661 -0.356725 -3.27009e-20)
(-0.0524369 -0.267901 3.19421e-20)
(-0.00794578 -0.159518 2.61458e-22)
(0.0437948 -0.0352599 3.80443e-22)
(0.101147 0.095456 3.4887e-22)
(0.165225 0.222434 4.05373e-22)
(0.232139 0.336809 -1.89534e-20)
(0.297903 0.430023 1.87137e-20)
(0.35776 0.49757 0)
(0.406357 0.54151 3.67072e-22)
(0.438709 0.570235 -1.18748e-20)
(0.454033 0.592052 1.17245e-20)
(0.460635 0.603779 0)
(0.475291 0.585309 0)
(0.513426 0.510575 -1.77827e-20)
(0.576755 0.368092 3.73419e-20)
(0.654933 0.169961 -3.9202e-20)
(0.734504 -0.0512969 9.55419e-22)
(0.802534 -0.251725 3.5212e-20)
(0.848911 -0.394776 -3.0452e-20)
(0.871643 -0.470289 2.28109e-20)
(0.874144 -0.493835 -2.81171e-21)
(0.862104 -0.487309 -7.58505e-21)
(0.843579 -0.466507 0)
(0.819601 -0.446562 0)
(0.78158 -0.443276 1.5725e-21)
(0.726114 -0.443566 -2.02202e-21)
(0.670451 -0.406699 -4.71763e-23)
(0.640546 -0.291203 2.82616e-21)
(0.646576 -0.113771 -2.74672e-21)
(0.681247 0.0763274 0)
(0.72995 0.226034 3.04999e-22)
(0.781566 0.319852 2.04288e-21)
(0.81923 0.380736 -3.74838e-21)
(0.828785 0.427775 1.56353e-21)
(0.804076 0.471844 2.0114e-22)
(0.773278 0.450529 -2.46502e-21)
(0.751653 0.353099 1.94818e-21)
(0.765267 0.158613 6.07647e-22)
(0.788399 -0.0407756 5.63585e-22)
(0.827651 -0.197085 -4.34572e-22)
(0.853511 -0.290091 0)
(0.849652 -0.319234 0)
(0.816847 -0.373066 -7.81399e-22)
(0.778846 -0.321595 3.68563e-22)
(0.768313 -0.269783 -2.92846e-22)
(0.789237 -0.094703 4.08321e-22)
(0.804908 0.0709689 4.98706e-22)
(0.810334 0.191451 -1.40107e-22)
(0.792199 0.368092 2.15636e-22)
(0.795539 0.288617 -1.89145e-22)
(0.787719 0.308945 9.919e-23)
(0.812472 0.104752 0)
(0.797747 -0.131007 0)
(0.0786414 -0.43343 -1.06674e-19)
(0.0500886 -0.460489 1.10413e-20)
(0.0238318 -0.477446 9.05088e-20)
(-0.00363548 -0.481243 -6.13868e-22)
(-0.0299423 -0.468641 0)
(-0.0503146 -0.438629 0)
(-0.0595818 -0.386837 -5.08823e-20)
(-0.0548001 -0.312355 1.98038e-21)
(-0.0328249 -0.216182 6.7399e-20)
(0.00362131 -0.103478 -1.39212e-21)
(0.0493749 0.0243149 -1.9882e-20)
(0.10564 0.149058 -1.62274e-20)
(0.170097 0.266657 1.62049e-20)
(0.236941 0.367644 0)
(0.300409 0.44721 -1.14964e-20)
(0.35447 0.50594 1.05042e-20)
(0.394869 0.549051 0)
(0.422955 0.580388 0)
(0.448496 0.593286 1.27508e-20)
(0.486683 0.568528 2.59958e-21)
(0.547685 0.485874 -1.4059e-20)
(0.628072 0.339323 -2.05692e-20)
(0.71645 0.14176 2.07008e-20)
(0.800492 -0.0764193 -2.07116e-20)
(0.867444 -0.271244 2.6569e-21)
(0.906938 -0.406768 1.69225e-20)
(0.919078 -0.474328 1.48847e-21)
(0.910863 -0.491076 -1.09325e-24)
(0.889316 -0.480453 0)
(0.862528 -0.457526 4.73177e-21)
(0.833309 -0.433326 -4.85117e-21)
(0.794099 -0.422911 2.43514e-22)
(0.73743 -0.419928 0)
(0.676248 -0.390544 -2.70935e-22)
(0.636616 -0.290863 4.78333e-21)
(0.634597 -0.128648 -8.90925e-21)
(0.665626 0.0526982 -2.21774e-22)
(0.715896 0.201115 4.89521e-22)
(0.771891 0.299711 3.25771e-21)
(0.814063 0.370239 3.98399e-22)
(0.828059 0.428383 -3.13311e-21)
(0.807682 0.48048 2.64757e-21)
(0.783777 0.460751 -1.69537e-23)
(0.767866 0.359033 2.44339e-21)
(0.785721 0.15892 -2.98501e-21)
(0.807916 -0.0460615 -3.92961e-21)
(0.84373 -0.203892 1.11549e-21)
(0.866593 -0.292846 1.25957e-21)
(0.860854 -0.314029 -2.16407e-21)
(0.827902 -0.364099 1.31712e-21)
(0.786421 -0.31632 -2.95999e-22)
(0.775301 -0.271969 3.56424e-22)
(0.79191 -0.100645 2.46076e-22)
(0.805623 0.0676107 -6.71306e-22)
(0.809476 0.19161 -1.07659e-23)
(0.789636 0.369749 -1.99657e-22)
(0.795811 0.288582 0)
(0.788274 0.307248 -8.7126e-23)
(0.818538 0.104487 2.86561e-22)
(0.803958 -0.129573 0)
(0.266925 -0.401231 1.0593e-19)
(0.235532 -0.425709 -1.94823e-19)
(0.201063 -0.442163 8.81571e-20)
(0.162894 -0.448216 6.38025e-20)
(0.11876 -0.443672 -1.15247e-19)
(0.0734423 -0.42544 7.50838e-21)
(0.0353493 -0.389356 4.32857e-20)
(0.00863025 -0.33268 3.26297e-20)
(-0.00149773 -0.253628 -3.20092e-20)
(0.0100993 -0.15525 0)
(0.0344903 -0.0426064 -2.52011e-20)
(0.0725544 0.0760036 4.65216e-20)
(0.127557 0.19432 -2.15977e-20)
(0.18936 0.301056 0)
(0.252099 0.390862 0)
(0.309537 0.462232 2.99688e-22)
(0.358298 0.517069 -1.78175e-20)
(0.400764 0.555347 1.73089e-20)
(0.446307 0.568441 0)
(0.506919 0.539528 2.98135e-20)
(0.587437 0.454126 -6.32229e-20)
(0.681057 0.309557 7.40737e-20)
(0.777251 0.116659 -8.25527e-20)
(0.865222 -0.0955413 5.13187e-22)
(0.931024 -0.283153 7.58906e-20)
(0.963675 -0.410769 -3.52446e-20)
(0.965388 -0.471461 -7.55848e-22)
(0.946841 -0.483258 -7.35148e-21)
(0.916765 -0.470022 1.77936e-21)
(0.882685 -0.446455 5.73791e-21)
(0.848476 -0.419963 2.56569e-22)
(0.80848 -0.403492 -3.28404e-21)
(0.752226 -0.396283 6.44428e-21)
(0.687564 -0.372749 -3.53361e-21)
(0.638943 -0.288858 0)
(0.628067 -0.143359 -4.57087e-21)
(0.654296 0.0276588 4.42634e-21)
(0.705001 0.173916 -2.87846e-21)
(0.764303 0.277018 3.58126e-21)
(0.810354 0.357234 -3.34775e-22)
(0.828873 0.42645 0)
(0.813225 0.486854 -3.9748e-22)
(0.796277 0.469661 1.47056e-21)
(0.786147 0.365188 0)
(0.808128 0.161006 6.6018e-21)
(0.829629 -0.0489315 -2.60865e-21)
(0.861672 -0.20874 9.8976e-22)
(0.88113 -0.294755 7.49378e-22)
(0.873354 -0.308486 0)
(0.840178 -0.354774 0)
(0.795092 -0.310771 -8.42911e-22)
(0.783162 -0.27397 1.19563e-21)
(0.795707 -0.106647 -6.05498e-22)
(0.807756 0.06425 1.76942e-22)
(0.810066 0.191601 3.62042e-22)
(0.788209 0.371298 1.9985e-22)
(0.797099 0.288342 -3.71141e-22)
(0.78993 0.305015 0)
(0.825853 0.10394 -4.12371e-22)
(0.811288 -0.128105 -1.50075e-22)
(0.472921 -0.365719 1.0478e-19)
(0.442586 -0.386904 -1.04053e-19)
(0.406192 -0.399131 6.41336e-22)
(0.363122 -0.402392 -4.93455e-22)
(0.31147 -0.39885 4.25868e-22)
(0.25355 -0.385214 -3.42084e-22)
(0.194668 -0.360279 4.19394e-22)
(0.140931 -0.320706 0)
(0.0991424 -0.262854 -2.04984e-22)
(0.0749791 -0.185912 1.44828e-22)
(0.0684766 -0.0950877 1.1883e-22)
(0.0829242 0.0133073 -2.64756e-22)
(0.11804 0.125957 0)
(0.166532 0.233583 0)
(0.22277 0.329552 9.3772e-23)
(0.280376 0.410007 0)
(0.336179 0.473546 -1.42758e-22)
(0.392188 0.516883 0)
(0.455948 0.53046 -2.07332e-20)
(0.535473 0.500454 4.70792e-20)
(0.630852 0.417212 -5.92806e-20)
(0.733736 0.2794 3.2759e-20)
(0.836031 0.0949523 4.17902e-20)
(0.927621 -0.108808 -4.0571e-20)
(0.992025 -0.28782 -3.63549e-20)
(1.01788 -0.407322 3.51254e-20)
(1.00967 -0.462302 0)
(0.981482 -0.471017 5.53241e-22)
(0.943941 -0.456576 0)
(0.903702 -0.433484 0)
(0.864828 -0.406495 6.45837e-21)
(0.824146 -0.385477 -6.71334e-21)
(0.769638 -0.373447 3.09633e-22)
(0.703799 -0.353638 3.77192e-22)
(0.647548 -0.284614 -3.33478e-22)
(0.627328 -0.156981 -3.24303e-21)
(0.64752 0.00240563 3.14927e-21)
(0.697186 0.144863 -3.18565e-21)
(0.758551 0.251825 2.70634e-21)
(0.807824 0.341457 6.37954e-22)
(0.830902 0.421567 -2.9925e-21)
(0.820244 0.490655 -1.1179e-21)
(0.810169 0.477179 2.54356e-21)
(0.805761 0.371497 0)
(0.8318 0.164751 -2.792e-21)
(0.853084 -0.0493299 3.52622e-21)
(0.881181 -0.211482 -4.66557e-21)
(0.896886 -0.295761 -7.54116e-22)
(0.886934 -0.302656 0)
(0.853476 -0.345048 2.84144e-22)
(0.804663 -0.304829 -6.35642e-22)
(0.791613 -0.275716 -2.90696e-23)
(0.800376 -0.112765 -1.00538e-22)
(0.811154 0.0608061 2.36232e-22)
(0.812042 0.191426 -2.96782e-22)