/*--------------------------------*- C++ -*----------------------------------*\
| =========                 |                                                 |
| \\      /  F ield         | OpenFOAM: The Open Source CFD Toolbox           |
|  \\    /   O peration     | Version:  2512                                  |
|   \\  /    A nd           | Website:  www.openfoam.com                      |
|    \\/     M anipulation  |                                                 |
\*---------------------------------------------------------------------------*/
FoamFile
{
    version     2.0;
    format      ascii;
    arch        "LSB;label=32;scalar=64";
    class       volScalarField;
    location    "11.5";
    object      p;
}
// * * * * * * * * * * * * * * * * * * * * * * * * * * * * * * * * * * * * * //

dimensions      [0 2 -2 0 0 0 0];

internalField   nonuniform List<scalar> 
13248
(
-0.354162
-0.352232
-0.34952
-0.346266
-0.342783
-0.339408
-0.336416
-0.334003
-0.33227
-0.331224
-0.330772
-0.330738
-0.330873
-0.330885
-0.330467
-0.329323
-0.327201
-0.323913
-0.319338
-0.313464
-0.306186
-0.297735
-0.287138
-0.275281
-0.361407
-0.358928
-0.355659
-0.351858
-0.347837
-0.343925
-0.340373
-0.337334
-0.334855
-0.33288
-0.331261
-0.329776
-0.328164
-0.326153
-0.323491
-0.319979
-0.315481
-0.309932
-0.303327
-0.2957
-0.287076
-0.277529
-0.266831
-0.255828
-0.370608
-0.367293
-0.363308
-0.358891
-0.354297
-0.34982
-0.345656
-0.341881
-0.338466
-0.335288
-0.33216
-0.328859
-0.325167
-0.320895
-0.315909
-0.310139
-0.303574
-0.29625
-0.288226
-0.279573
-0.270313
-0.260551
-0.250138
-0.239677
-0.381821
-0.377408
-0.372556
-0.367432
-0.362187
-0.357044
-0.352108
-0.347358
-0.342682
-0.337919
-0.33289
-0.327438
-0.321451
-0.31487
-0.307696
-0.29997
-0.29176
-0.283139
-0.274172
-0.264907
-0.255372
-0.245638
-0.235615
-0.225889
-0.395011
-0.389291
-0.383441
-0.377515
-0.371498
-0.365502
-0.35952
-0.353429
-0.34707
-0.340301
-0.333029
-0.325223
-0.316913
-0.308173
-0.2991
-0.289791
-0.280328
-0.270772
-0.26116
-0.251514
-0.241842
-0.232176
-0.222466
-0.213099
-0.410076
-0.402903
-0.395966
-0.389137
-0.382169
-0.375031
-0.367595
-0.359682
-0.351158
-0.341988
-0.332232
-0.322018
-0.311506
-0.300854
-0.290194
-0.27962
-0.26919
-0.258929
-0.24884
-0.238916
-0.22915
-0.219542
-0.21006
-0.200964
-0.426821
-0.418119
-0.410036
-0.402179
-0.393997
-0.385293
-0.375871
-0.365583
-0.354432
-0.342569
-0.330238
-0.317704
-0.305204
-0.292915
-0.280949
-0.269363
-0.258169
-0.247356
-0.236897
-0.226763
-0.216929
-0.207372
-0.198075
-0.189158
-0.444897
-0.434662
-0.425391
-0.416323
-0.406545
-0.395727
-0.383711
-0.370516
-0.356382
-0.341689
-0.326839
-0.312175
-0.297938
-0.284269
-0.271228
-0.258818
-0.247008
-0.235753
-0.225003
-0.214711
-0.204835
-0.195341
-0.186215
-0.17746
-0.463749
-0.452046
-0.441536
-0.430988
-0.419113
-0.405558
-0.39036
-0.373847
-0.356554
-0.339067
-0.32188
-0.305333
-0.289615
-0.274798
-0.260874
-0.247795
-0.235492
-0.223892
-0.212925
-0.202529
-0.19265
-0.183245
-0.174287
-0.165696
-0.482575
-0.469532
-0.457695
-0.445294
-0.430745
-0.413848
-0.395018
-0.374981
-0.354561
-0.334473
-0.315213
-0.297056
-0.280102
-0.264341
-0.249702
-0.236091
-0.223408
-0.211556
-0.200449
-0.190011
-0.180174
-0.170889
-0.162103
-0.153693
-0.500342
-0.486114
-0.472801
-0.45809
-0.440282
-0.419552
-0.396841
-0.373295
-0.349948
-0.327546
-0.306513
-0.287017
-0.269056
-0.252541
-0.237347
-0.223341
-0.210396
-0.198397
-0.187241
-0.176838
-0.167111
-0.157998
-0.149409
-0.141226
-0.515871
-0.500654
-0.485683
-0.46817
-0.446554
-0.421618
-0.394928
-0.368006
-0.342
-0.317597
-0.295094
-0.274528
-0.255793
-0.238729
-0.22316
-0.20892
-0.195858
-0.183841
-0.172754
-0.162495
-0.152982
-0.144135
-0.135835
-0.128023
-0.295902
-0.300587
-0.303652
-0.306098
-0.308747
-0.311835
-0.31545
-0.319628
-0.324357
-0.329587
-0.335244
-0.341233
-0.347437
-0.353718
-0.359915
-0.365848
-0.371319
-0.376117
-0.380023
-0.38281
-0.384234
-0.384091
-0.382353
-0.379124
-0.298644
-0.302929
-0.305802
-0.308175
-0.310802
-0.313902
-0.317562
-0.321811
-0.326636
-0.331986
-0.337787
-0.343941
-0.350331
-0.356815
-0.363231
-0.369392
-0.375093
-0.380112
-0.384222
-0.38719
-0.388755
-0.388641
-0.386793
-0.383672
-0.303611
-0.307104
-0.309572
-0.311755
-0.314274
-0.317321
-0.320973
-0.325255
-0.330148
-0.335602
-0.341544
-0.347878
-0.354487
-0.361231
-0.367946
-0.374444
-0.380516
-0.385929
-0.390441
-0.393813
-0.395783
-0.395998
-0.394183
-0.39119
-0.310023
-0.31246
-0.314352
-0.316218
-0.318511
-0.32139
-0.324918
-0.329114
-0.333957
-0.339395
-0.345357
-0.35175
-0.35846
-0.365348
-0.372255
-0.378994
-0.385354
-0.391098
-0.395969
-0.399711
-0.402086
-0.402794
-0.401191
-0.396991
-0.316966
-0.318251
-0.319458
-0.320881
-0.3228
-0.325343
-0.328566
-0.332482
-0.337069
-0.342277
-0.348035
-0.354253
-0.360822
-0.367609
-0.374458
-0.38119
-0.387598
-0.393452
-0.39847
-0.402408
-0.404994
-0.405919
-0.404735
-0.401023
-0.323619
-0.323825
-0.324314
-0.32518
-0.326566
-0.328577
-0.331271
-0.334666
-0.338742
-0.343454
-0.348736
-0.354504
-0.360651
-0.367053
-0.37356
-0.380001
-0.386188
-0.391932
-0.396765
-0.400628
-0.403213
-0.404121
-0.40344
-0.399075
-0.329416
-0.328762
-0.328568
-0.328804
-0.329512
-0.330801
-0.332747
-0.335381
-0.338698
-0.342667
-0.34723
-0.352311
-0.35781
-0.363606
-0.369554
-0.375476
-0.381153
-0.386347
-0.391017
-0.394644
-0.397052
-0.397585
-0.397215
-0.39193
-0.334143
-0.332922
-0.33214
-0.33171
-0.331645
-0.332073
-0.333104
-0.334799
-0.33718
-0.340237
-0.343929
-0.34819
-0.352928
-0.358018
-0.363314
-0.368646
-0.373813
-0.378567
-0.382671
-0.385755
-0.387717
-0.387523
-0.386931
-0.380678
-0.33793
-0.336431
-0.335176
-0.334092
-0.33322
-0.33273
-0.332774
-0.333456
-0.334836
-0.336931
-0.339719
-0.34314
-0.347105
-0.351491
-0.356134
-0.360831
-0.365349
-0.369419
-0.372768
-0.375004
-0.376101
-0.374892
-0.373332
-0.366141
-0.341196
-0.339627
-0.337996
-0.336301
-0.334652
-0.333271
-0.332362
-0.332073
-0.332503
-0.333693
-0.335635
-0.338276
-0.341505
-0.345167
-0.349061
-0.352943
-0.356537
-0.359542
-0.361675
-0.362595
-0.362284
-0.359885
-0.35687
-0.34892
-0.344555
-0.342985
-0.341026
-0.338769
-0.336413
-0.334235
-0.332482
-0.331341
-0.330936
-0.331325
-0.332496
-0.334369
-0.336802
-0.33959
-0.34248
-0.345176
-0.347365
-0.348739
-0.349022
-0.348014
-0.345695
-0.341855
-0.337425
-0.329464
-0.348681
-0.347032
-0.344726
-0.341945
-0.338967
-0.33611
-0.333651
-0.331796
-0.330677
-0.330338
-0.33074
-0.331763
-0.33321
-0.334823
-0.336302
-0.337323
-0.33757
-0.336767
-0.334682
-0.331231
-0.326333
-0.320296
-0.313589
-0.305999
-0.373202
-0.361255
-0.344139
-0.321397
-0.293042
-0.259294
-0.220818
-0.179105
-0.135472
-0.0917743
-0.0503205
-0.0128813
0.0189102
0.044116
0.0624722
0.0743829
0.0807461
0.0827101
0.0814393
0.0780116
0.0733118
0.0679646
0.0624208
0.056965
0.0517678
0.0469165
0.0424887
0.0384099
0.0346891
0.0313303
0.0282812
0.0255276
0.0230627
0.0208676
0.0189133
0.0171729
0.0156233
0.0142429
0.0130122
0.0119118
0.0109269
0.0100403
0.00924304
0.00851739
0.00786208
0.00725476
0.00670469
0.00618104
0.00570401
0.00523646
0.00479973
0.00436666
0.00393591
0.00351335
0.00305913
0.0026102
0.00210426
0.00158993
0.000984812
0.00036875
-0.378722
-0.366695
-0.349596
-0.326711
-0.298114
-0.264074
-0.225329
-0.183164
-0.139168
-0.0950571
-0.0531289
-0.0152918
0.0167973
0.0422948
0.0609303
0.0731064
0.0797239
0.0819291
0.0808728
0.0776117
0.0730152
0.0677601
0.0622885
0.0568848
0.0517191
0.0468495
0.0424927
0.0384512
0.03475
0.031422
0.0283685
0.0256017
0.0231298
0.0209317
0.018973
0.0172268
0.0156713
0.0142855
0.0130501
0.0119457
0.0109571
0.0100675
0.00926709
0.00853935
0.00788113
0.00727268
0.00671963
0.00619566
0.00571582
0.00524788
0.00480966
0.00437465
0.00394473
0.00351845
0.00306636
0.00261333
0.00210984
0.00159018
0.000989273
0.000364403
-0.388835
-0.377566
-0.361228
-0.338924
-0.310732
-0.276924
-0.238199
-0.19582
-0.151209
-0.106008
-0.0632617
-0.0244751
0.00870477
0.035269
0.0549159
0.068028
0.075499
0.0784769
0.078108
0.0754285
0.0713332
0.0664895
0.061351
0.0562219
0.0512863
0.0466723
0.0422327
0.0382222
0.0345505
0.0313419
0.0283423
0.0255901
0.0231328
0.0209509
0.0190008
0.0172573
0.0157018
0.0143151
0.0130782
0.0119721
0.0109815
0.0100902
0.00928766
0.0085586
0.00789803
0.00728894
0.00673324
0.00620928
0.00572684
0.00525876
0.00481921
0.00438242
0.00395349
0.00352359
0.00307373
0.00261669
0.00211571
0.00159075
0.000993963
0.000360238
-0.400661
-0.387703
-0.373114
-0.352127
-0.325157
-0.292387
-0.254412
-0.212338
-0.167726
-0.122458
-0.0788609
-0.0389666
-0.00447258
0.0235246
0.0446469
0.0592148
0.0680764
0.0723496
0.0731787
0.071529
0.0682788
0.0641168
0.0595227
0.0548195
0.0502084
0.0458115
0.0416678
0.0378491
0.034362
0.0310875
0.0281841
0.0254894
0.0230749
0.0209297
0.0190003
0.0172673
0.0157175
0.0143339
0.0130985
0.0119929
0.0110018
0.0101099
0.00930605
0.00857626
0.0079138
0.00730441
0.00674635
0.0062226
0.00573777
0.00526967
0.00482893
0.0043905
0.00396259
0.00352925
0.00308156
0.00262068
0.00212207
0.00159199
0.000998944
0.000356493
-0.403315
-0.395205
-0.381262
-0.362153
-0.337272
-0.306446
-0.270186
-0.229474
-0.18574
-0.140921
-0.0972112
-0.0567074
-0.0211805
0.00817732
0.030892
0.0471839
0.057801
0.0637807
0.0662089
0.065994
0.0639346
0.060737
0.0569167
0.0528242
0.0486891
0.04466
0.0408091
0.0372009
0.0338587
0.0307232
0.0278958
0.0252682
0.022948
0.020868
0.0189708
0.0172559
0.0157174
0.0143413
0.0131105
0.0120076
0.0110178
0.0101264
0.00932214
0.00859226
0.00792842
0.00731907
0.00675896
0.00623562
0.00574861
0.00528063
0.00483881
0.00439894
0.00397198
0.0035355
0.0030898
0.00262539
0.00212886
0.00159401
0.00100413
0.000353325
-0.401474
-0.395343
-0.383257
-0.366441
-0.344089
-0.315881
-0.282213
-0.24393
-0.202264
-0.158947
-0.11607
-0.0757314
-0.0397455
-0.00938418
0.0147754
0.0328268
0.0453651
0.0532829
0.0575591
0.0590753
0.0584994
0.0565048
0.0536464
0.0503148
0.0467731
0.0432001
0.0397058
0.0363739
0.0332376
0.0302606
0.0275275
0.0249534
0.0227457
0.0207683
0.018913
0.0172225
0.015701
0.0143367
0.0131137
0.0120159
0.011029
0.0101395
0.00933568
0.00860638
0.00794169
0.00733272
0.00677094
0.00624817
0.00575924
0.00529153
0.00484873
0.00440768
0.00398152
0.00354234
0.0030983
0.00263082
0.00213594
0.00159688
0.00100938
0.000350901
-0.393464
-0.388273
-0.378491
-0.36448
-0.344886
-0.31946
-0.2888
-0.253704
-0.215135
-0.174484
-0.13357
-0.0943511
-0.058637
-0.0277872
-0.00250181
0.0171608
0.0316059
0.0415278
0.0477588
0.0511092
0.0522038
0.0515903
0.0498348
0.0473764
0.0445205
0.0414807
0.0384023
0.0353867
0.0324922
0.0297326
0.0271159
0.0248527
0.0224766
0.0206333
0.0188266
0.017167
0.0156681
0.0143199
0.013108
0.0120175
0.0110353
0.0101489
0.00934655
0.00861849
0.00795354
0.00734527
0.00678221
0.00626015
0.00576961
0.00530228
0.00485858
0.00441667
0.00399109
0.00354974
0.00310695
0.00263698
0.00214319
0.00160068
0.00101459
0.000349432
-0.380382
-0.374969
-0.367353
-0.356229
-0.339433
-0.31705
-0.289806
-0.258221
-0.223182
-0.186088
-0.148262
-0.111216
-0.076609
-0.0458829
-0.0198999
0.00109427
0.0172851
0.0291403
0.0373038
0.0424692
0.0452668
0.0461401
0.0455888
0.0440833
0.0419802
0.0395321
0.0369161
0.0342583
0.0316407
0.0291079
0.026692
0.0244367
0.0220703
0.0204625
0.0187087
0.0170894
0.0156187
0.0142909
0.0130931
0.0120124
0.0110365
0.0101545
0.00935462
0.00862846
0.00796386
0.0073566
0.00679272
0.00627149
0.00577966
0.00531282
0.00486832
0.00442592
0.0040006
0.00355775
0.00311564
0.00264392
0.00215049
0.0016055
0.00101962
0.000349177
-0.363077
-0.356607
-0.350998
-0.342492
-0.32829
-0.309105
-0.285638
-0.258
-0.226849
-0.193486
-0.15932
-0.125309
-0.0926382
-0.0627047
-0.0365335
-0.014589
0.00306635
0.016659
0.0266277
0.0335277
0.0379277
0.0402981
0.0410176
0.0405232
0.0392133
0.0373894
0.0352668
0.0329971
0.0306841
0.0283958
0.0261845
0.0240973
0.0224134
0.0203108
0.018559
0.016989
0.0155525
0.0142492
0.0130689
0.0120002
0.0110326
0.0101563
0.00935987
0.0086363
0.0079727
0.00736672
0.00680253
0.00628215
0.00578943
0.00532317
0.00487791
0.00443545
0.00400997
0.00356641
0.0031243
0.00265169
0.00215777
0.00161145
0.00102438
0.000350465
-0.342474
-0.335193
-0.331533
-0.324903
-0.312937
-0.297068
-0.277533
-0.253999
-0.226985
-0.19759
-0.167034
-0.136327
-0.106162
-0.0776515
-0.051854
-0.0294221
-0.0106733
0.00436777
0.0159326
0.0244182
0.0303017
0.0340753
0.0361035
0.0367077
0.0362653
0.03511
0.0335062
0.031642
0.0296477
0.0276127
0.0256051
0.0236791
0.0218807
0.0200278
0.0183455
0.0168587
0.0154699
0.0141963
0.0130365
0.0119823
0.0110247
0.0101552
0.00936313
0.00864261
0.00798055
0.00737595
0.00681184
0.00629226
0.00579893
0.00533328
0.00488724
0.00444519
0.00401902
0.00357563
0.00313272
0.00266024
0.00216482
0.00161859
0.00102876
0.000353719
-0.320868
-0.314308
-0.312112
-0.306275
-0.296271
-0.283718
-0.268013
-0.24855
-0.225726
-0.200347
-0.173349
-0.145761
-0.118264
-0.0916012
-0.0666699
-0.0441807
-0.0246567
-0.00837347
0.00468069
0.0147258
0.0221083
0.0272341
0.0305067
0.0322853
0.0328618
0.0325187
0.0315413
0.030155
0.0285262
0.0267725
0.024981
0.0232108
0.0215002
0.0197506
0.0181182
0.01671
0.0153761
0.0141349
0.0129974
0.011959
0.0110123
0.0101504
0.00936338
0.00864629
0.00798618
0.0073831
0.00681944
0.00630066
0.00580703
0.00534212
0.00489528
0.00445423
0.0040268
0.00358471
0.00314005
0.00266904
0.002171
0.00162659
0.00103236
0.000359428
-0.300139
-0.29649
-0.293894
-0.287209
-0.278518
-0.268587
-0.256127
-0.240473
-0.221783
-0.200501
-0.177217
-0.152665
-0.127611
-0.102843
-0.079183
-0.0572223
-0.0375002
-0.0204547
-0.00626762
0.0051028
0.0138563
0.0202947
0.0247455
0.0275302
0.0289903
0.0294431
0.0291368
0.0282955
0.027101
0.0256887
0.0241602
0.022587
0.0210143
0.0193482
0.0179365
0.0165013
0.015227
0.0140313
0.0129242
0.0119075
0.0109766
0.0101263
0.00934778
0.00863686
0.00798152
0.00738158
0.00682079
0.00630351
0.00581156
0.00534777
0.00490109
0.00446207
0.00403285
0.00359378
0.00314617
0.0026782
0.00217614
0.0016355
0.00103463
0.000368134
-0.279571
-0.286567
-0.281555
-0.272692
-0.26365
-0.254105
-0.242626
-0.228398
-0.211383
-0.191966
-0.170703
-0.148244
-0.125262
-0.102419
-0.0803938
-0.0597933
-0.0411301
-0.0247927
-0.0109752
0.000314667
0.00921124
0.0159473
0.0208039
0.0240828
0.0260609
0.0269939
0.0271157
0.0266461
0.0257691
0.0246263
0.0233236
0.021934
0.020501
0.019016
0.0176439
0.016322
0.0150619
0.0139051
0.0128304
0.0118393
0.0109289
0.0100935
0.00932754
0.00862451
0.00797794
0.00738105
0.00682748
0.00631013
0.00582378
0.00535969
0.00491474
0.00447811
0.00404606
0.00361083
0.00315907
0.00269352
0.00218601
0.00164864
0.001038
0.000379539
-0.255031
-0.266166
-0.262646
-0.25326
-0.243779
-0.234603
-0.224196
-0.211464
-0.196243
-0.178908
-0.159985
-0.140013
-0.119528
-0.0990691
-0.0792068
-0.0604774
-0.0433254
-0.028094
-0.014988
-0.00406219
0.00475305
0.0116202
0.0167573
0.0204003
0.0227766
0.0241141
0.0246317
0.0245322
0.0239881
0.0231364
0.0220819
0.0208997
0.0196371
0.0183209
0.0170479
0.0158318
0.0146936
0.0136147
0.0126011
0.0116584
0.0107861
0.00998083
0.00923897
0.00855471
0.0079237
0.0073383
0.00679528
0.00628468
0.00580572
0.00534576
0.00490531
0.00447225
0.00404175
0.00360998
0.00315836
0.00269496
0.00218684
0.00165162
0.00103739
0.000385362
-0.233382
-0.245087
-0.242899
-0.234113
-0.224813
-0.216145
-0.206803
-0.195576
-0.182163
-0.166871
-0.15017
-0.132505
-0.114306
-0.0960208
-0.0781252
-0.0610846
-0.0453008
-0.031094
-0.0186773
-0.00814019
0.000537878
0.00746231
0.0127934
0.0167173
0.0194299
0.0211333
0.0220227
0.0222797
0.0220633
0.0215044
0.0207058
0.0197443
0.0186731
0.0175346
0.0164096
0.0153162
0.0142646
0.0132602
0.0123112
0.0114219
0.0105934
0.00982391
0.00911132
0.00845073
0.00783925
0.00726938
0.00673952
0.00623907
0.00576909
0.00531588
0.00488137
0.00445325
0.00402625
0.0035984
0.00314891
0.00268823
0.00218144
0.00164887
0.00103389
0.000388157
-0.213392
-0.224379
-0.223276
-0.215655
-0.207044
-0.198998
-0.190613
-0.180743
-0.168981
-0.155532
-0.140804
-0.125189
-0.109045
-0.0927392
-0.0766653
-0.0612209
-0.0467652
-0.0335921
-0.02191
-0.0118289
-0.00336613
0.00353575
0.00898822
0.0131362
0.0161425
0.0181781
0.0194121
0.0200058
0.0201047
0.0198323
0.0192883
0.0185503
0.0176768
0.0167194
0.015741
0.0147605
0.0138022
0.0128792
0.0119984
0.0111654
0.0103834
0.00965202
0.00897084
0.00833572
0.00774545
0.00719247
0.00667709
0.00618781
0.00572771
0.00528215
0.00485403
0.00443168
0.00400842
0.00358508
0.00313792
0.00268048
0.00217506
0.0016457
0.00103026
0.000390126
-0.194076
-0.204476
-0.204287
-0.197886
-0.190162
-0.182824
-0.175323
-0.166669
-0.156404
-0.144636
-0.131705
-0.117958
-0.103697
-0.0892223
-0.0748549
-0.0609295
-0.0477613
-0.0356167
-0.0246956
-0.0151207
-0.00693818
-0.000128497
0.00537971
0.00969364
0.0129421
0.0152659
0.0168095
0.0177142
0.0181114
0.0181153
0.0178215
0.0173067
0.0166322
0.0158511
0.0150157
0.0141571
0.013303
0.0124671
0.011659
0.0108863
0.0101543
0.009464
0.00881683
0.00820943
0.00764232
0.00710786
0.00660837
0.00613144
0.00568222
0.0052452
0.00482411
0.00440827
0.00398908
0.00357091
0.0031262
0.00267253
0.00216849
0.00164266
0.0010269
0.000391459
-0.175893
-0.185745
-0.186192
-0.18086
-0.174071
-0.167514
-0.160878
-0.153335
-0.144433
-0.134201
-0.122914
-0.11087
-0.0983278
-0.0855333
-0.0727479
-0.0602506
-0.0483141
-0.0371776
-0.0270303
-0.0180004
-0.0101541
-0.00350044
0.00199866
0.0064166
0.00985098
0.0124149
0.0142292
0.0154155
0.0160898
0.0163565
0.0163049
0.0160096
0.0155318
0.0149249
0.0142389
0.0135094
0.0127638
0.012019
0.0112877
0.0105794
0.00990105
0.00925532
0.00864517
0.00806816
0.00752648
0.00701259
0.00653064
0.00606762
0.00563044
0.00520312
0.00478992
0.00438144
0.00396693
0.0035546
0.00311274
0.00266336
0.00216102
0.00163896
0.00102341
0.000391919
-0.159212
-0.168292
-0.169056
-0.164651
-0.158796
-0.153055
-0.147264
-0.140743
-0.133071
-0.124231
-0.114434
-0.103933
-0.0929504
-0.0816887
-0.0703615
-0.0591994
-0.0484352
-0.0382811
-0.0289126
-0.0204582
-0.0129961
-0.00655664
-0.00112884
0.00333212
0.0068963
0.00965136
0.0116954
0.0131307
0.0140578
0.0145699
0.0147494
0.0146669
0.0143826
0.0139499
0.0134159
0.0128176
0.0121835
0.0115337
0.0108832
0.0102431
0.00962215
0.00902429
0.0084542
0.00791032
0.00739643
0.00690525
0.00644259
0.00599515
0.00557128
0.00515495
0.00475055
0.00435039
0.00394128
0.00353545
0.00309702
0.00265242
0.0021523
0.00163416
0.00101961
0.000391537
-0.143621
-0.151835
-0.15291
-0.149354
-0.144386
-0.139442
-0.134455
-0.128866
-0.122299
-0.114708
-0.106253
-0.0971459
-0.0875745
-0.0777083
-0.0677212
-0.0578025
-0.0481484
-0.0389448
-0.0303515
-0.0224928
-0.0154537
-0.0092795
-0.00397989
0.000466461
0.00410569
0.00700236
0.00923334
0.0108824
0.0120347
0.0127717
0.013168
0.0132894
0.0131934
0.0129316
0.012549
0.0120829
0.0115632
0.0110117
0.0104455
0.00987717
0.00931692
0.00877017
0.00824309
0.00773505
0.00725136
0.00678508
0.00634355
0.00591341
0.00550418
0.0051002
0.00470557
0.00431474
0.00391181
0.00351321
0.00307883
0.00263951
0.00214222
0.00162817
0.0010155
0.000390483
-0.129065
-0.136567
-0.137871
-0.135035
-0.130862
-0.126657
-0.122415
-0.117673
-0.112093
-0.105618
-0.0983666
-0.0905138
-0.0822176
-0.0736185
-0.0648583
-0.0560915
-0.0474821
-0.0391905
-0.0313601
-0.0241083
-0.0175218
-0.0116559
-0.00653511
-0.00215696
0.00150449
0.00449344
0.00686747
0.00869291
0.0100401
0.0109788
0.0115747
0.0118877
0.0119718
0.0118755
0.0116422
0.0113085
0.0109048
0.0104539
0.0099748
0.00948125
0.00898484
0.00849223
0.00801103
0.00754152
0.00709042
0.00665127
0.00623274
0.0058217
0.00542852
0.0050383
0.00465451
0.0042741
0.00387818
0.00348758
0.00305799
0.00262443
0.00213073
0.0016209
0.00101107
0.000388904
-0.115705
-0.122499
-0.123923
-0.121687
-0.118215
-0.11468
-0.111117
-0.107135
-0.102436
-0.096953
-0.0907764
-0.0840478
-0.0768991
-0.0694463
-0.0618044
-0.0540993
-0.0464668
-0.0390437
-0.0319566
-0.025314
-0.0192011
-0.0136781
-0.00878005
-0.00451884
-0.000885008
0.00214824
0.00462134
0.00658469
0.00809454
0.00920886
0.00998421
0.0104739
0.0107272
0.0107893
0.0107013
0.0104984
0.0102109
0.00986183
0.00947187
0.00905556
0.00862567
0.00818995
0.00775732
0.00732893
0.00691278
0.00650298
0.00610937
0.00571927
0.00534363
0.00496864
0.00459684
0.00422797
0.00384
0.00345821
0.00303424
0.00260695
0.00211768
0.00161224
0.00100624
0.000386908
-0.103476
-0.109535
-0.111008
-0.109283
-0.106434
-0.1035
-0.100543
-0.0972373
-0.0933172
-0.0887117
-0.0834883
-0.0777616
-0.0716404
-0.0652197
-0.0585926
-0.0518608
-0.0451362
-0.0385339
-0.0321642
-0.0261252
-0.020498
-0.0153441
-0.0107055
-0.00660425
-0.00304383
-1.18532e-05
0.00251726
0.00457964
0.00621846
0.00748034
0.00841259
0.00906148
0.00947097
0.00968224
0.0097333
0.00965778
0.0094851
0.00923797
0.00893823
0.0086009
0.00823966
0.0078632
0.00748155
0.00709668
0.00671774
0.00633948
0.00597271
0.00560539
0.00524884
0.00489058
0.00453199
0.00417583
0.00379686
0.0034247
0.0030073
0.00258679
0.00210289
0.00160209
0.0010009
0.000384581
-0.0922262
-0.0976232
-0.0991053
-0.097805
-0.0954985
-0.0930991
-0.0906778
-0.0879647
-0.084727
-0.0808923
-0.0765094
-0.0716702
-0.0664641
-0.0609682
-0.0552574
-0.0494132
-0.0435268
-0.0376942
-0.0320103
-0.0265618
-0.0214241
-0.0166576
-0.0123076
-0.0084029
-0.0049568
-0.00196834
0.000575553
0.00269855
0.00443207
0.00581205
0.00687676
0.00766516
0.00821551
0.00856444
0.00874643
0.00879282
0.00873118
0.00858568
0.00837623
0.00811874
0.00782762
0.00751228
0.00718365
0.00684447
0.00650483
0.00616018
0.00582212
0.00547942
0.00514351
0.00480354
0.00445944
0.00411719
0.00374832
0.00338666
0.00297685
0.00256369
0.00208617
0.00159033
0.000994889
0.000381988
-0.081931
-0.086732
-0.0881947
-0.0872437
-0.0853959
-0.0834548
-0.0814993
-0.0793016
-0.0766566
-0.0734937
-0.0698467
-0.0657891
-0.0613934
-0.0567218
-0.0518338
-0.0467942
-0.0416767
-0.0365604
-0.0315256
-0.0266483
-0.0219965
-0.0176277
-0.0135876
-0.0099095
-0.0066131
-0.00370631
-0.00118617
0.000960432
0.00275461
0.00422255
0.00539387
0.00630028
0.00697412
0.00744719
0.00775008
0.00791128
0.00795643
0.00790951
0.00778908
0.00761129
0.00739098
0.007138
0.00686398
0.00657229
0.00627381
0.00596469
0.00565711
0.00534082
0.0050271
0.00470693
0.00437867
0.00405156
0.00369397
0.00334369
0.0029426
0.00253738
0.00206729
0.00157689
0.000988086
0.000379174
-0.0725781
-0.076813
-0.0782179
-0.0775444
-0.0760945
-0.0745473
-0.0729896
-0.0712332
-0.0690979
-0.0665156
-0.0635084
-0.0601344
-0.056452
-0.0525106
-0.0483569
-0.0440422
-0.0396249
-0.03517
-0.0307442
-0.026413
-0.0222367
-0.0182684
-0.0145525
-0.0111239
-0.00800664
-0.00521485
-0.00275352
-0.000618125
0.00120369
0.00272948
0.00398083
0.00498249
0.00576084
0.00634269
0.00675459
0.00702186
0.00716806
0.00721494
0.00718087
0.00708156
0.00693183
0.00674173
0.00652335
0.00628052
0.00602475
0.00575282
0.00547737
0.00518915
0.00489915
0.00460029
0.0042892
0.00397846
0.0036334
0.00329543
0.00290422
0.00250763
0.00204602
0.00156168
0.000980355
0.000376154
-0.0640821
-0.0677999
-0.0691399
-0.0687111
-0.0675677
-0.0663475
-0.0651268
-0.0637439
-0.062042
-0.0599568
-0.0575015
-0.0547212
-0.0516622
-0.0483635
-0.0448611
-0.0411949
-0.0374111
-0.0335617
-0.0297021
-0.0258875
-0.0221704
-0.0185986
-0.0152139
-0.0120511
-0.00913616
-0.00648748
-0.00411583
-0.00202349
-0.000205245
0.00134905
0.00265376
0.00372716
0.00458994
0.00526379
0.00577105
0.00613382
0.00637315
0.00650821
0.00655657
0.00653331
0.00645296
0.00632546
0.00616307
0.00596996
0.00575805
0.0055247
0.00528281
0.00502416
0.00475932
0.0044832
0.00419065
0.00389749
0.00356622
0.00324153
0.0028614
0.0024742
0.00202215
0.00154462
0.000971574
0.000372925
-0.0563601
-0.0596128
-0.0608678
-0.060613
-0.0597511
-0.0588128
-0.0578765
-0.0568098
-0.0554754
-0.0538135
-0.0518308
-0.0495623
-0.0470445
-0.0443075
-0.041379
-0.038289
-0.0350738
-0.0317747
-0.0284365
-0.0251054
-0.0218263
-0.0186411
-0.0155882
-0.0127008
-0.0100052
-0.00752221
-0.00526652
-0.00324548
-0.00145949
9.54841e-05
0.0014275
0.00254898
0.00347536
0.00422345
0.00481124
0.00525736
0.00558009
0.00579621
0.00592186
0.00597112
0.0059579
0.00589181
0.00578504
0.00564191
0.00547452
0.00528075
0.00507357
0.00484581
0.00460744
0.00435538
0.00408267
0.00380831
0.0034921
0.00318168
0.00281383
0.0024369
0.00199545
0.00152561
0.000961642
0.000369465
-0.0493715
-0.0522076
-0.053372
-0.0532589
-0.0526263
-0.0519183
-0.0512174
-0.0504125
-0.049385
-0.0480799
-0.0464987
-0.0446681
-0.0426167
-0.0403675
-0.0379409
-0.0353595
-0.0326508
-0.0298475
-0.0269854
-0.0241023
-0.0212358
-0.0184223
-0.0156959
-0.0130873
-0.0106221
-0.00832166
-0.00620327
-0.00427772
-0.00254954
-0.00101955
0.000315033
0.00146148
0.00243045
0.00323432
0.00388688
0.00440303
0.00479814
0.0050868
0.00528329
0.00540031
0.0054509
0.00544408
0.00539175
0.00529817
0.00517543
0.00502179
0.00485015
0.00465429
0.00444352
0.00421672
0.00396508
0.00371066
0.00341073
0.00311562
0.00276124
0.00239553
0.0019657
0.00150457
0.000950481
0.000365747
-0.0430609
-0.0455215
-0.0465912
-0.0465861
-0.0461366
-0.0456207
-0.0451136
-0.0445253
-0.043754
-0.0427482
-0.0415057
-0.0400471
-0.0383946
-0.0365655
-0.0345748
-0.0324388
-0.0301782
-0.0278179
-0.0253864
-0.022914
-0.0204321
-0.0179711
-0.0155608
-0.013229
-0.0109993
-0.00889284
-0.00692799
-0.00511772
-0.00346935
-0.00198734
-0.000673102
0.000476352
0.00146744
0.00230845
0.00300931
0.00358139
0.00403699
0.00438846
0.00464805
0.00482689
0.00493687
0.00498621
0.00498629
0.00494109
0.00486252
0.00474903
0.00461335
0.00445011
0.00426783
0.00406729
0.0038378
0.00360441
0.00332193
0.00304317
0.0027034
0.00234992
0.00193276
0.00148141
0.000938031
0.000361742
-0.0373662
-0.0394943
-0.0404713
-0.040549
-0.0402509
-0.039896
-0.0395432
-0.0391291
-0.0385666
-0.0378085
-0.0368494
-0.0357043
-0.0343904
-0.0329207
-0.0313056
-0.0295568
-0.0276891
-0.0257215
-0.0236759
-0.0215766
-0.0194489
-0.0173179
-0.0152093
-0.0131473
-0.0111533
-0.00924688
-0.0074468
-0.00576703
-0.0042165
-0.00280222
-0.00152892
-0.000396973
0.000596664
0.00145663
0.00218937
0.00280287
0.00330625
0.00370992
0.00402376
0.00425739
0.00442132
0.00452277
0.00457235
0.00457358
0.00453801
0.00446416
0.00436439
0.0042341
0.00408088
0.00390739
0.00370095
0.00348958
0.00322558
0.00296421
0.00264015
0.00229997
0.00189649
0.00145604
0.000924257
0.000357429
-0.0322361
-0.0340719
-0.0349591
-0.0350972
-0.0349184
-0.0346903
-0.0344675
-0.0341941
-0.0338015
-0.0332474
-0.0325241
-0.0316418
-0.0306134
-0.0294487
-0.0281549
-0.0267399
-0.0252142
-0.0235917
-0.0218891
-0.0201252
-0.0183202
-0.0164946
-0.0146698
-0.0128666
-0.0111035
-0.00939865
-0.00776981
-0.00623123
-0.00479252
-0.00346212
-0.00224725
-0.00115098
-0.000173075
0.000688192
0.00143653
0.00207707
0.00261594
0.00305994
0.0034183
0.00369875
0.00391025
0.00405881
0.00415413
0.00419907
0.00420466
0.00416931
0.00410489
0.00400744
0.00388351
0.00373759
0.00355486
0.00336636
0.00312174
0.00287875
0.00257141
0.00224559
0.00185681
0.0014284
0.000909142
0.000352795
-0.027625
-0.029204
-0.0300055
-0.0301872
-0.0301035
-0.0299771
-0.0298544
-0.0296886
-0.0294371
-0.029051
-0.0285226
-0.027859
-0.0270697
-0.0261621
-0.0251411
-0.0240117
-0.0227811
-0.0214592
-0.0200585
-0.0185933
-0.0170793
-0.0155329
-0.0139715
-0.0124128
-0.0108724
-0.00936603
-0.00791061
-0.00651975
-0.00520297
-0.00396935
-0.00282743
-0.00178219
-0.000835458
1.18482e-05
0.000760554
0.00141305
0.00197313
0.00244632
0.0028392
0.0031579
0.00340986
0.00359978
0.0037363
0.00382148
0.00386569
0.00386708
0.00383689
0.00377171
0.00367689
0.00355876
0.00340012
0.00323515
0.00301062
0.00278691
0.00249723
0.00218678
0.00181373
0.00139847
0.000892689
0.000347838
-0.0234867
-0.0248414
-0.0255634
-0.0257762
-0.0257696
-0.0257284
-0.0256936
-0.0256279
-0.0254701
-0.0252109
-0.0248385
-0.0243538
-0.0237627
-0.0230699
-0.0222785
-0.0213915
-0.0204135
-0.0193515
-0.0182142
-0.0170124
-0.015758
-0.0144639
-0.0131441
-0.011813
-0.0104834
-0.00916896
-0.00788496
-0.00664416
-0.00545548
-0.00432812
-0.00327146
-0.0022916
-0.00139113
-0.00057161
0.000165461
0.000819196
0.00138809
0.00187759
0.00229423
0.00264203
0.00292669
0.00315148
0.00332393
0.00344516
0.00352476
0.0035605
0.00356286
0.00352889
0.00346255
0.00337206
0.00323755
0.00309657
0.00289262
0.00268897
0.00241776
0.00212361
0.0017673
0.00136627
0.000874918
0.000342565
-0.0197798
-0.0209397
-0.0215882
-0.021821
-0.0218728
-0.021895
-0.0219222
-0.0219239
-0.0218594
-0.0217046
-0.0214573
-0.0211193
-0.0206927
-0.0201786
-0.0195789
-0.0188958
-0.0181326
-0.0172934
-0.0163841
-0.0154123
-0.0143872
-0.0133184
-0.0122171
-0.011095
-0.00996206
-0.00882958
-0.00771124
-0.00661849
-0.00555923
-0.00454226
-0.00357739
-0.00267184
-0.00183011
-0.00105546
-0.00034863
0.000291694
0.000858395
0.00135602
0.00178742
0.00215608
0.00246605
0.00271919
0.00292197
0.00307459
0.00318581
0.00325296
0.00328563
0.00328134
0.00324238
0.00317902
0.00306831
0.00295153
0.00276837
0.00258536
0.00233331
0.00205625
0.00171765
0.00133185
0.00085587
0.000336995
-0.0164574
-0.0174478
-0.0180287
-0.0182732
-0.0183699
-0.018442
-0.0185183
-0.0185746
-0.0185778
-0.0185079
-0.0183607
-0.0181432
-0.0178513
-0.0174848
-0.0170447
-0.0165327
-0.0159507
-0.0153011
-0.0145874
-0.013815
-0.0129907
-0.0121216
-0.0112166
-0.0102845
-0.00933307
-0.00837133
-0.00741122
-0.00646273
-0.00553226
-0.00462743
-0.00375763
-0.00292941
-0.00214647
-0.00141423
-0.000740499
-0.00012728
0.000409433
0.000898444
0.00133368
0.00171207
0.00203747
0.00231066
0.00253687
0.0027152
0.00285344
0.00294837
0.0030085
0.00303179
0.00301862
0.00298149
0.00289385
0.00280117
0.00263872
0.00247674
0.00224436
0.00198497
0.00166501
0.00129533
0.000835594
0.000331148
-0.0135172
-0.0143623
-0.0148811
-0.0151299
-0.0152593
-0.0153691
-0.0154844
-0.0155873
-0.0156519
-0.0156602
-0.0156029
-0.0154735
-0.0152777
-0.0150238
-0.0147136
-0.0143443
-0.0139135
-0.0134225
-0.012874
-0.012272
-0.0116212
-0.0109267
-0.0101952
-0.00943348
-0.00864728
-0.00784369
-0.00703326
-0.00622483
-0.00542383
-0.00463736
-0.00387452
-0.00314199
-0.00244284
-0.00177417
-0.00113303