/*--------------------------------*- C++ -*----------------------------------*\
| =========                 |                                                 |
| \\      /  F ield         | OpenFOAM: The Open Source CFD Toolbox           |
|  \\    /   O peration     | Version:  2512                                  |
|   \\  /    A nd           | Website:  www.openfoam.com                      |
|    \\/     M anipulation  |                                                 |
\*---------------------------------------------------------------------------*/
FoamFile
{
    version     2.0;
    format      ascii;
    arch        "LSB;label=32;scalar=64";
    class       volVectorField;
    location    "188";
    object      U;
}
// * * * * * * * * * * * * * * * * * * * * * * * * * * * * * * * * * * * * * //

dimensions      [0 1 -1 0 0 0 0];

internalField   nonuniform List<vector> 
13248
(
(-0.0121742 0.0123895 9.86226e-20)
(-0.0176186 0.024938 0)
(-0.00398673 0.0302547 -1.86714e-19)
(0.0267562 0.0297017 1.75878e-19)
(0.0732251 0.0248338 1.65221e-19)
(0.134348 0.0171392 0)
(0.209002 0.00783688 0)
(0.295747 -0.00211177 4.05947e-19)
(0.392572 -0.0119692 -9.22183e-22)
(0.496735 -0.0212013 -3.56361e-19)
(0.604766 -0.0294601 3.30402e-19)
(0.712669 -0.0365646 -2.06858e-19)
(0.816266 -0.0424742 0)
(0.911627 -0.0472541 -3.43807e-19)
(0.995476 -0.0510338 6.35159e-19)
(1.06551 -0.053965 -1.51948e-19)
(1.12056 -0.0561841 -2.52148e-19)
(1.16063 -0.0577961 2.36736e-19)
(1.18673 -0.0588267 0)
(1.20063 -0.0594019 0)
(1.20468 -0.0590873 0)
(1.20058 -0.0594308 0)
(1.19216 -0.0561109 5.79693e-20)
(1.17615 -0.0623554 1.89572e-19)
(-0.0101506 0.00926283 -2.97536e-19)
(-0.00858031 0.0161367 2.02603e-19)
(0.0150378 0.0173504 -1.52608e-21)
(0.0586044 0.0143665 -2.68012e-19)
(0.120543 0.00872389 -1.65044e-19)
(0.199324 0.0018566 -1.56184e-19)
(0.29296 -0.00511626 -2.89518e-19)
(0.398697 -0.011389 2.72835e-19)
(0.512857 -0.0164561 0)
(0.630895 -0.0201046 1.41581e-21)
(0.747734 -0.0223855 2.09393e-21)
(0.858274 -0.0235547 2.0403e-19)
(0.957973 -0.0239898 0)
(1.04334 -0.0240966 0)
(1.11228 -0.0242254 2.25828e-19)
(1.16417 -0.024611 -4.24213e-19)
(1.19976 -0.0253468 2.41894e-19)
(1.22089 -0.0263892 -2.27121e-19)
(1.23008 -0.0275872 -9.59451e-20)
(1.23014 -0.0287346 -1.66781e-19)
(1.22372 -0.029512 -6.35723e-20)
(1.21315 -0.0300468 -1.16922e-19)
(1.20043 -0.0283991 1.80417e-19)
(1.18508 -0.0310236 4.91066e-20)
(-0.00716446 0.00621832 0)
(0.00413846 0.0076361 0)
(0.0410367 0.00530112 9.48377e-20)
(0.10093 0.000733251 8.77962e-20)
(0.181626 -0.00454732 -1.54875e-21)
(0.280561 -0.0091905 -1.59762e-19)
(0.394176 -0.0122887 0)
(0.517716 -0.013391 -1.35914e-19)
(0.645376 -0.0124789 1.26717e-19)
(0.770807 -0.00991115 -5.53817e-22)
(0.887862 -0.00631452 -2.16446e-19)
(0.991364 -0.00243115 -1.96018e-19)
(1.07771 0.00104 5.64258e-21)
(1.14515 0.00357118 -1.55539e-19)
(1.1938 0.00487863 3.79055e-19)
(1.2253 0.00493331 0)
(1.24232 0.0039202 -2.32413e-19)
(1.24806 0.00216328 1.14134e-19)
(1.24568 5.57887e-05 9.58668e-20)
(1.23796 -0.00205288 0)
(1.22715 -0.00373237 7.42059e-20)
(1.21472 -0.00514943 -2.46795e-19)
(1.20191 -0.00485021 2.31675e-19)
(1.1884 -0.00810911 1.36731e-19)
(-0.00276256 0.00316417 -1.04043e-19)
(0.021573 -0.000441017 -1.07303e-19)
(0.0753667 -0.00530448 9.77135e-20)
(0.15505 -0.0100594 0)
(0.257179 -0.0133418 0)
(0.377374 -0.0140494 -2.40874e-21)
(0.509742 -0.0117327 0)
(0.647054 -0.00659288 -4.09332e-19)
(0.781483 0.000636968 3.79762e-19)
(0.905643 0.00888391 -4.68967e-19)
(1.01362 0.0169825 1.07542e-19)
(1.10167 0.0239166 0)
(1.16847 0.028994 1.73693e-19)
(1.21492 0.0319196 -3.19666e-19)
(1.24354 0.0327701 7.63112e-20)
(1.25778 0.0318975 1.87824e-19)
(1.26135 0.0298032 -1.21652e-20)
(1.25762 0.0270194 -2.06051e-19)
(1.24934 0.0240198 0)
(1.23856 0.0211754 0)
(1.22663 0.0187767 -6.92513e-20)
(1.21435 0.0167691 6.09593e-20)
(1.20236 0.0161267 2.10055e-19)
(1.19008 0.0126073 -1.97258e-19)
(0.00354419 8.84293e-05 -1.08462e-19)
(0.0446997 -0.00783479 -1.08551e-19)
(0.119016 -0.0137764 3.05669e-19)
(0.221388 -0.0168728 -1.8649e-19)
(0.346314 -0.0162015 1.7553e-19)
(0.48676 -0.0112254 3.20569e-19)
(0.633961 -0.00231228 -2.25921e-19)
(0.778347 0.00938374 -2.73593e-19)
(0.910981 0.0222524 6.24379e-21)
(1.02494 0.0346171 3.51224e-19)
(1.11621 0.045088 0)
(1.1838 0.0527905 9.46696e-20)
(1.22936 0.0574282 0)
(1.25626 0.059202 -1.51673e-19)
(1.26869 0.0586428 2.13127e-19)
(1.27079 0.0564244 2.20036e-21)
(1.26613 0.0532101 -5.42941e-20)
(1.25745 0.0495565 1.00135e-19)
(1.24665 0.045877 8.55049e-20)
(1.23494 0.0424464 -7.56604e-20)
(1.22304 0.0394341 6.9233e-20)
(1.21135 0.0368348 -6.09425e-20)
(1.20009 0.0351337 0)
(1.189 0.0313939 -4.56072e-20)
(0.0121978 -0.00287759 1.08447e-19)
(0.0742631 -0.0140161 1.13194e-19)
(0.17239 -0.0191766 -1.0227e-19)
(0.299278 -0.0184642 1.90603e-19)
(0.44651 -0.0118421 -1.79393e-19)
(0.603764 0.000209636 1.6259e-19)
(0.759478 0.0161334 -7.77409e-20)
(0.902719 0.0336781 2.05446e-19)
(1.0251 0.0505177 -1.28485e-19)
(1.12195 0.0647771 2.25744e-19)
(1.19245 0.0753366 -5.19062e-19)
(1.23886 0.0818789 1.89477e-19)
(1.2654 0.0847349 -1.6436e-19)
(1.27699 0.0846267 1.54391e-19)
(1.27825 0.0824121 1.31121e-19)
(1.27299 0.0788938 1.13462e-19)
(1.26402 0.074718 -3.15164e-19)
(1.25319 0.0703484 1.94854e-19)
(1.24162 0.0660876 -8.55064e-20)
(1.22997 0.062117 2.19909e-19)
(1.21856 0.0585332 -7.10527e-20)
(1.20756 0.0553565 -1.69152e-19)
(1.19705 0.0528135 1.55536e-19)
(1.18682 0.048942 4.5593e-20)
(0.0235306 -0.00545609 0)
(0.11063 -0.0181767 6.89475e-22)
(0.235145 -0.0203253 2.11537e-19)
(0.386883 -0.0135519 -1.98673e-19)
(0.553814 0.000717709 -1.79711e-19)
(0.722248 0.0205047 3.33953e-19)
(0.878762 0.0428538 -1.55067e-19)
(1.01281 0.0645947 2.0629e-19)
(1.11846 0.0831667 -4.8841e-21)
(1.19463 0.0970684 -1.16278e-19)
(1.24406 0.105899 2.52426e-19)
(1.27176 0.110107 -3.71045e-19)
(1.28344 0.110627 0)
(1.28435 0.108528 -7.18479e-20)
(1.27866 0.104782 -1.90539e-19)
(1.26935 0.100148 6.00749e-20)
(1.25832 0.0951577 2.76336e-21)
(1.24669 0.0901521 -1.27961e-19)
(1.23506 0.0853338 9.45582e-21)
(1.22373 0.0808154 1.47272e-19)
(1.21283 0.0766519 -6.43822e-20)
(1.20241 0.0728737 -2.40689e-20)
(1.19245 0.0695044 7.55226e-20)
(1.18282 0.0654276 0)
(0.0377248 -0.00724903 0)
(0.153679 -0.0193006 5.71911e-20)
(0.306084 -0.0159326 -2.73724e-19)
(0.481254 -0.00100586 9.98087e-20)
(0.663291 0.0219706 -9.39348e-20)
(0.835895 0.0491879 -8.54033e-20)
(0.985531 0.0764297 -1.51405e-19)
(1.10408 0.100139 7.546e-20)
(1.18952 0.118174 6.59492e-20)
(1.24473 0.129911 0)
(1.27547 0.135879 1.48523e-19)
(1.28838 0.137248 -2.19728e-19)
(1.2895 0.135352 1.63705e-19)
(1.28357 0.131386 7.18855e-20)
(1.2739 0.126269 -5.82381e-20)
(1.26255 0.120629 -4.81875e-20)
(1.25068 0.114862 -4.46434e-20)
(1.23891 0.1092 1.34797e-19)
(1.22752 0.103774 0)
(1.21661 0.0986511 6.65068e-20)
(1.20622 0.0938701 5.50665e-20)
(1.19632 0.0894494 -1.37601e-19)
(1.18686 0.0853249 -9.25358e-20)
(1.17774 0.081028 8.58388e-20)
(0.0547733 -0.00778201 -6.04178e-20)
(0.202728 -0.0162964 -1.69729e-21)
(0.383155 -0.00480682 5.54432e-20)
(0.578577 0.0199171 1.54275e-19)
(0.769702 0.0517838 4.47071e-20)
(0.939234 0.0851687 -8.6378e-20)
(1.07568 0.115135 7.92657e-20)
(1.17501 0.138487 -6.96956e-20)
(1.23965 0.154098 1.24143e-19)
(1.27596 0.162479 5.28939e-20)
(1.29162 0.165052 -1.49562e-19)
(1.29373 0.163495 4.41398e-20)
(1.28785 0.159309 7.49594e-20)
(1.27783 0.153641 -3.69311e-20)
(1.26603 0.147264 0)
(1.25375 0.140655 5.46179e-20)
(1.24165 0.134088 9.19702e-20)
(1.23001 0.127712 1.53864e-20)
(1.21894 0.121608 -7.6351e-20)
(1.20845 0.115821 3.1855e-20)
(1.19851 0.110374 0)
(1.18906 0.105265 -2.48018e-20)
(1.18004 0.100416 -2.3031e-20)
(1.17134 0.0957924 0)
(0.0744449 -0.00655707 0)
(0.256505 -0.00814976 3.15168e-20)
(0.463569 0.0139343 5.83101e-20)
(0.674594 0.0494042 -1.5624e-19)
(0.86822 0.0894068 5.01364e-20)
(1.02833 0.126971 0)
(1.14741 0.157277 7.56325e-20)
(1.22638 0.178224 -1.05442e-19)
(1.27179 0.190065 -6.17337e-20)
(1.29241 0.194452 2.80407e-20)
(1.2967 0.193491 -4.43191e-20)
(1.2914 0.189114 1.07917e-19)
(1.28117 0.182799 5.40272e-20)
(1.26886 0.17554 -3.76296e-20)
(1.25602 0.167936 -3.61273e-21)
(1.24343 0.160324 -1.02557e-19)
(1.2314 0.152883 4.66609e-20)
(1.22003 0.145707 -1.05197e-21)
(1.20934 0.138844 0)
(1.19928 0.132325 -3.18877e-20)
(1.18978 0.126159 0)
(1.18077 0.120322 7.16882e-20)
(1.17218 0.114785 -8.5276e-20)
(1.16387 0.109736 3.87875e-20)
(0.0962621 -0.00310357 -1.60922e-20)
(0.313195 0.005945 -7.88188e-20)
(0.544031 0.0407175 8.93106e-20)
(0.765088 0.08704 5.27024e-20)
(0.954957 0.133607 -2.529e-20)
(1.10091 0.172985 4.22991e-20)
(1.20072 0.201391 -2.06225e-20)
(1.2602 0.218359 3.4353e-20)
(1.28909 0.22562 0)
(1.29748 0.22578 7.78104e-20)
(1.29368 0.22136 -3.14321e-21)
(1.28358 0.214329 -6.28859e-20)
(1.2708 0.206013 2.69793e-20)
(1.25732 0.197211 -3.04664e-20)
(1.2441 0.188357 -1.16284e-20)
(1.23154 0.179675 1.33705e-20)
(1.21974 0.171277 -1.03791e-20)
(1.20873 0.163219 -5.60135e-20)
(1.19845 0.155528 3.436e-20)
(1.18884 0.148221 7.06281e-21)
(1.1798 0.141291 6.21395e-21)
(1.17123 0.134706 5.46719e-21)
(1.16306 0.12851 0)
(1.15514 0.122905 0)
(0.119579 0.00298608 1.61033e-20)
(0.370685 0.0265008 -1.61812e-20)
(0.621199 0.0754497 -2.96883e-20)
(0.846426 0.131873 0)
(1.02726 0.182875 -1.2495e-20)
(1.15617 0.221683 -1.11482e-20)
(1.23662 0.246338 -1.91914e-20)
(1.27867 0.258271 0)
(1.29415 0.260566 0)
(1.29346 0.256513 0)
(1.28419 0.248792 0)
(1.27117 0.23925 0)
(1.25705 0.229001 -1.69604e-20)
(1.24313 0.218645 7.73016e-21)
(1.22994 0.208481 1.34581e-20)
(1.21762 0.198647 6.27778e-21)
(1.20621 0.189206 1.56046e-20)
(1.19564 0.180186 0)
(1.18585 0.171602 -3.75837e-21)
(1.17674 0.163454 -3.54541e-21)
(1.16821 0.155723 -6.22376e-21)
(1.16016 0.148387 -5.47585e-21)
(1.15246 0.141557 0)
(1.145 0.135285 3.95229e-21)
(-0.00222529 0.00938614 9.10378e-21)
(-0.00953096 0.0104198 -9.46424e-21)
(-0.022154 0.000536834 -1.79397e-20)
(-0.0373936 -0.0153353 0)
(-0.0538607 -0.0338894 -2.39463e-20)
(-0.070896 -0.0532626 7.44571e-21)
(-0.0880058 -0.0727122 -1.43116e-20)
(-0.104791 -0.0922149 0)
(-0.120945 -0.112106 0)
(-0.136228 -0.132791 0)
(-0.150449 -0.154573 0)
(-0.163446 -0.177584 0)
(-0.175069 -0.201768 -2.10961e-22)
(-0.185168 -0.226904 -9.26761e-21)
(-0.193581 -0.252616 1.77948e-20)
(-0.200134 -0.278383 2.4854e-20)
(-0.204641 -0.303542 7.94461e-21)
(-0.206908 -0.327289 0)
(-0.206756 -0.34869 6.72475e-21)
(-0.204049 -0.36672 -1.90028e-20)
(-0.198651 -0.380316 -1.18146e-20)
(-0.190338 -0.388404 -1.09903e-20)
(-0.179051 -0.389905 0)
(-0.1659 -0.384059 0)
(-0.00344728 0.0151747 -2.76165e-20)
(-0.0118271 0.0237249 4.75256e-20)
(-0.0248934 0.0186373 -1.83168e-20)
(-0.0402315 0.00578334 -3.44603e-20)
(-0.0566028 -0.0109652 4.84735e-20)
(-0.0734306 -0.0294034 -3.08193e-20)
(-0.0902586 -0.0485458 4.32978e-20)
(-0.106705 -0.0682061 2.79854e-20)
(-0.122486 -0.0886196 0)
(-0.137389 -0.110122 -2.41277e-20)
(-0.151263 -0.132978 -1.81242e-22)
(-0.163992 -0.157305 2.12723e-20)
(-0.17548 -0.183058 3.1092e-20)
(-0.185638 -0.210035 3.86616e-20)
(-0.194375 -0.237891 -1.78359e-20)
(-0.201598 -0.266138 -5.0711e-20)
(-0.207209 -0.294139 1.60492e-20)
(-0.211107 -0.321107 -5.98165e-20)
(-0.213217 -0.346107 0)
(-0.213508 -0.368085 1.26765e-20)
(-0.211911 -0.385907 1.18021e-20)
(-0.208108 -0.398383 1.09788e-20)
(-0.20202 -0.404284 0)
(-0.195931 -0.402731 0)
(-0.00520628 0.0207124 0)
(-0.0149795 0.0367685 9.91199e-20)
(-0.0280216 0.0366824 -3.73101e-20)
(-0.0425516 0.0270877 3.50493e-20)
(-0.0576607 0.012349 -1.00985e-19)
(-0.072911 -0.00497335 0)
(-0.0878949 -0.0236251 -6.03294e-20)
(-0.102276 -0.0432417 2.87867e-20)
(-0.115798 -0.0639039 -5.49368e-20)
(-0.128256 -0.0858591 2.70228e-20)
(-0.139518 -0.10933 1.45923e-19)
(-0.149499 -0.134422 -6.85706e-20)
(-0.158143 -0.161098 -1.0694e-19)
(-0.165414 -0.18918 -4.12768e-20)
(-0.171294 -0.218356 2.18042e-22)
(-0.175778 -0.248174 1.41543e-19)
(-0.178874 -0.278039 -6.62404e-20)
(-0.180602 -0.307203 -1.00983e-21)
(-0.181014 -0.334765 0)
(-0.180214 -0.359673 -5.21748e-20)
(-0.178252 -0.380737 0)
(-0.17476 -0.39666 -4.14128e-20)
(-0.169417 -0.406165 1.54501e-19)
(-0.165682 -0.408448 -2.51737e-21)
(-0.00734729 0.0253903 0)
(-0.0187185 0.0482878 1.273e-21)
(-0.031251 0.0531144 3.91727e-20)
(-0.0440794 0.0469088 -3.73102e-20)
(-0.056747 0.0343674 3.36184e-20)
(-0.0690267 0.0183575 1.97883e-19)
(-0.0806333 0.000384171 -6.19597e-20)
(-0.0912459 -0.0189673 -5.99924e-20)
(-0.100597 -0.0396155 1.11813e-19)
(-0.108508 -0.0617021 -1.58381e-19)
(-0.114846 -0.08539 5.08061e-20)
(-0.119526 -0.110758 4.83596e-20)
(-0.12251 -0.137762 0)
(-0.1238 -0.166232 4.12356e-20)
(-0.123438 -0.195861 0)
(-0.121509 -0.226216 7.50224e-20)
(-0.118143 -0.256726 -1.35672e-19)
(-0.113508 -0.28669 3.36826e-20)
(-0.107821 -0.315267 1.17111e-19)
(-0.101361 -0.341473 5.21216e-20)
(-0.0944064 -0.364141 0)
(-0.0867689 -0.381915 -1.24527e-19)
(-0.0775526 -0.393426 4.02378e-20)
(-0.0695883 -0.397977 0)
(-0.00962716 0.0287088 0)
(-0.0226423 0.0571866 -1.2548e-19)
(-0.0342257 0.0665247 -4.05206e-20)
(-0.0445728 0.0637001 -7.55379e-20)
(-0.0537663 0.0535026 7.11304e-20)
(-0.0618286 0.0389878 -6.66263e-20)
(-0.0685973 0.0218905 1.29031e-19)
(-0.0738178 0.00302265 6.10948e-20)
(-0.0772254 -0.0173791 -1.7207e-19)
(-0.0786151 -0.0393374 1.10265e-19)
(-0.0778445 -0.0629314 -1.55204e-19)
(-0.0748164 -0.0881937 3.47207e-19)
(-0.0694932 -0.115056 -1.85435e-19)
(-0.0619012 -0.143324 8.87561e-20)
(-0.0521353 -0.172674 2.46205e-19)
(-0.0403691 -0.202645 -7.66338e-20)
(-0.0268616 -0.232652 -7.39782e-20)
(-0.0119541 -0.261998 -6.56856e-20)
(0.00393789 -0.289882 0)
(0.0203221 -0.315413 -1.03852e-19)
(0.0366149 -0.337584 -8.65271e-20)
(0.0524202 -0.355174 1.31208e-19)
(0.0685866 -0.366558 1.39027e-19)
(0.0876116 -0.36977 -1.30224e-19)
(-0.0117635 0.030373 0)
(-0.0262807 0.0627053 -1.74373e-19)
(-0.0365633 0.0758263 -1.71132e-21)
(-0.0438352 0.0761695 1.54553e-19)
(-0.0487276 0.0683498 0)
(-0.0515287 0.0554723 0)
(-0.0522232 0.0394266 0)
(-0.0506288 0.0212034 -6.26178e-20)
(-0.0465104 0.00121373 -1.17375e-21)
(-0.0396413 -0.0204335 1.1261e-19)
(-0.029844 -0.0437219 -1.59584e-19)
(-0.017017 -0.0686236 -3.47027e-22)
(-0.00113018 -0.0950245 0)
(0.0177576 -0.122688 -8.86998e-20)
(0.0394828 -0.151241 8.45838e-20)
(0.0637633 -0.180169 -2.3629e-19)
(0.0901882 -0.20883 2.86781e-19)
(0.118225 -0.23647 6.03973e-20)
(0.14724 -0.262257 -9.89417e-21)
(0.176515 -0.285335 -2.19633e-19)
(0.205219 -0.304864 -9.42803e-20)
(0.232644 -0.319906 2.80915e-19)
(0.258356 -0.328966 -1.82044e-19)
(0.291124 -0.328079 0)
(-0.0134987 0.0303378 8.73973e-20)
(-0.0291793 0.0645227 8.77142e-20)
(-0.0378948 0.0803815 -8.50137e-20)
(-0.0416956 0.0834125 -1.59385e-19)
(-0.0416917 0.0778142 1.50076e-19)
(-0.0384251 0.0665892 -1.43311e-19)
(-0.0320411 0.051685 2.03199e-19)
(-0.0224455 0.0342227 -6.29619e-20)
(-0.00943733 0.0147649 1.21487e-19)
(0.00720176 -0.0064393 0)
(0.0276516 -0.0292749 1.11762e-19)
(0.0520064 -0.0536338 -2.08882e-19)
(0.0802539 -0.0793355 1.95661e-19)
(0.11225 -0.106084 -1.83767e-19)
(0.147694 -0.133448 0)
(0.186116 -0.160853 1.58545e-19)
(0.226873 -0.187599 2.88707e-19)
(0.269167 -0.212881 -2.70566e-19)
(0.312081 -0.23584 -1.19602e-19)
(0.354658 -0.255611 -1.0073e-19)
(0.395785 -0.271448 2.88453e-19)
(0.435329 -0.282413 7.29955e-20)
(0.468907 -0.288763 -7.55044e-20)
(0.517373 -0.282967 5.66101e-20)
(-0.0146583 0.028797 -8.7409e-20)
(-0.0309787 0.0627835 2.74599e-19)
(-0.0378887 0.0800731 -8.69208e-20)
(-0.037956 0.0850188 1.62874e-19)
(-0.0326318 0.0812393 -1.53357e-19)
(-0.0226684 0.0715035 5.81213e-22)
(-0.00836522 0.0577184 6.9128e-20)
(0.0102706 0.0410733 2.6508e-19)
(0.0333831 0.0222477 2.18269e-21)
(0.0611551 0.00161513 -1.1619e-19)
(0.093724 -0.0205948 0)
(0.131113 -0.044175 -1.06194e-19)
(0.173184 -0.0688594 1.97951e-19)
(0.219596 -0.0942761 1.8478e-19)
(0.269777 -0.119926 -8.72405e-20)
(0.322918 -0.145183 -5.08413e-23)
(0.377987 -0.169315 -7.31181e-20)
(0.43378 -0.191522 1.3185e-19)
(0.488991 -0.210997 1.19548e-19)
(0.542408 -0.226924 -1.06173e-19)
(0.592374 -0.23886 9.12499e-20)
(0.640141 -0.245299 -7.85399e-20)
(0.676226 -0.249298 0)
(0.733098 -0.239315 -5.65172e-20)
(-0.0151786 0.0261268 9.0682e-20)
(-0.0314537 0.058033 -9.22005e-20)
(-0.0362479 0.0752937 8.85564e-20)
(-0.0323036 0.0811274 0)
(-0.0212491 0.0785158 0)
(-0.00397586 0.0699113 1.5036e-19)
(0.0190903 0.0571001 -1.3957e-19)
(0.0478396 0.0412781 1.34439e-19)
(0.0823325 0.023205 -6.28463e-19)
(0.122662 0.00336375 -5.05685e-22)
(0.168836 -0.0178994 1.12449e-19)
(0.220683 -0.0402645 0)
(0.277775 -0.0633647 -1.98284e-19)
(0.33938 -0.0867449 3.70845e-19)
(0.40444 -0.109848 -2.59633e-19)
(0.471596 -0.132027 -3.92713e-19)
(0.539257 -0.152575 9.48722e-21)
(0.605706 -0.170771 2.64668e-19)
(0.669209 -0.185956 0)
(0.728359 -0.197444 0)
(0.781144 -0.205266 -9.12348e-20)
(0.829691 -0.207436 7.85285e-20)
(0.862901 -0.209087 -2.4983e-19)
(0.915243 -0.196222 2.34384e-19)
(-0.015107 0.0227861 0)
(-0.0304982 0.0510705 0)
(-0.0326477 0.0668511 -2.67299e-19)
(-0.0241871 0.072412 8.46647e-20)
(-0.00676342 0.0701518 -3.13055e-22)
(0.0186735 0.0621872 1.51047e-19)
(0.0516111 0.0501401 0)
(0.0918339 0.0351705 -1.34015e-19)
(0.139264 0.018084 1.26049e-19)
(0.193792 -0.000545197 -2.39353e-19)
(0.255126 -0.0202591 -1.04219e-22)
(0.322663 -0.0406303 2.11224e-19)
(0.39541 -0.0612052 -1.20695e-21)
(0.47195 -0.0814775 1.8075e-19)
(0.550483 -0.100889 -2.59148e-19)
(0.628918 -0.118853 0)
(0.705034 -0.134789 2.78655e-19)
(0.776664 -0.148167 -3.91054e-19)
(0.841877 -0.158562 1.12241e-19)
(0.899252 -0.165567 0)
(0.947317 -0.169454 8.62985e-20)
(0.987784 -0.168543 2.8947e-19)
(1.01294 -0.168189 -2.71695e-19)
(1.04921 -0.15438 -2.61323e-19)
(-0.0145495 0.0192058 2.81664e-19)
(-0.0280403 0.0427676 -3.86984e-19)
(-0.026632 0.055809 5.53873e-22)
(-0.0126847 0.0599997 8.61294e-20)
(0.0122501 0.0572917 -1.61393e-19)
(0.0472286 0.049508 -1.50496e-19)
(0.091669 0.0381057 2.85398e-19)
(0.145198 0.0241863 3.1753e-22)
(0.207462 0.0085748 -2.53059e-19)
(0.277918 -0.0080883 4.77424e-19)
(0.355657 -0.0252701 3.21277e-22)
(0.439281 -0.0424866 -2.10556e-19)
(0.526866 -0.0592697 0)
(0.616029 -0.0751589 0)
(0.704072 -0.089711 -8.44787e-20)
(0.788211 -0.102522 -1.50753e-19)
(0.865827 -0.11325 -2.70989e-19)
(0.934698 -0.121647 2.54391e-19)
(0.993236 -0.127539 -1.12298e-19)
(1.04052 -0.130905 1.8791e-19)
(1.07643 -0.13186 -9.93865e-20)
(1.1021 -0.129834 1.28559e-19)
(1.11539 -0.128343 -3.26752e-19)
(1.13103 -0.11627 5.41083e-20)
(-0.0135831 0.0156934 9.5183e-20)
(-0.0238954 0.0338856 0)
(-0.0174673 0.0432958 1.84089e-19)
(0.00361617 0.0453142 -1.7341e-19)
(0.0379357 0.041616 1.61539e-19)
(0.0845569 0.033809 0)
(0.142756 0.0232094 0)
(0.211824 0.0108528 -1.35107e-19)
(0.290829 -0.00244662 6.42214e-23)
(0.378391 -0.0160437 1.19011e-19)
(0.472531 -0.0294185 -1.10483e-19)
(0.570642 -0.042147 2.08929e-19)
(0.669607 -0.053886 0)
(0.766027 -0.0643678 3.52699e-19)
(0.856535 -0.0733992 -6.53202e-19)
(0.938123 -0.080859 4.53218e-19)
(1.00843 -0.0866889 2.62041e-19)
(1.06595 -0.0909022 -2.46009e-19)
(1.11013 -0.0935055 0)
(1.14124 -0.0947262 0)
(1.16064 -0.0943198 0)
(1.16959 -0.0931426 0)
(1.1706 -0.0908411 6.2227e-20)
(1.16897 -0.0838608 -2.02288e-19)
(-0.150268 -0.369351 -7.03602e-21)
(-0.122941 -0.338476 7.0611e-21)
(-0.0895968 -0.290418 -2.07507e-22)
(-0.0502504 -0.225505 0)
(-0.00575506 -0.144476 -6.84093e-21)
(0.0426929 -0.049492 1.32408e-20)
(0.0941731 0.0572259 -1.8336e-22)
(0.147228 0.170521 -6.04975e-21)
(0.200808 0.283815 0)
(0.253724 0.38849 0)
(0.30433 0.476508 -2.37148e-22)
(0.349812 0.541372 -1.99544e-22)
(0.386692 0.581043 -2.77603e-21)
(0.411027 0.599904 2.53582e-21)
(0.418869 0.607674 0)
(0.410104 0.612095 0)
(0.393728 0.608191 1.90157e-21)
(0.387253 0.575438 2.0075e-22)
(0.406809 0.490168 -1.85265e-21)
(0.455292 0.344457 -1.53443e-22)
(0.522861 0.152191 0)
(0.596922 -0.0573467 0)
(0.666981 -0.248071 0)
(0.724404 -0.389344 0)
(0.764553 -0.4713 0)
(0.78614 -0.504406 0)
(0.792987 -0.505786 2.96554e-22)
(0.790738 -0.491483 -4.85773e-22)
(0.777655 -0.481986 0)
(0.746085 -0.490631 0)
(0.699265 -0.498025 -4.0051e-22)
(0.657977 -0.454822 3.89269e-22)
(0.64544 -0.323298 2.3303e-22)
(0.66512 -0.124263 0)
(0.70659 0.0874733 0)
(0.751852 0.252734 3.87522e-22)
(0.793754 0.354211 -3.76684e-22)
(0.825059 0.397663 0)
(0.8384 0.422106 2.19089e-22)
(0.821658 0.447542 -3.16804e-22)
(0.780851 0.456946 1.07501e-22)
(0.738588 0.411642 0)
(0.724237 0.270528 -2.80051e-22)
(0.734927 0.0880702 2.72316e-22)
(0.773569 -0.109573 0)
(0.810541 -0.230571 0)
(0.839767 -0.316499 -7.48609e-23)
(0.828225 -0.361595 2.05609e-22)
(0.792749 -0.378047 0)
(0.755921 -0.357391 0)
(0.755649 -0.205566 -5.64464e-23)
(0.776767 -0.0854902 5.12044e-24)
(0.815293 0.116246 -4.42359e-24)
(0.814175 0.22043 3.69537e-23)
(0.805642 0.319433 0)
(0.788914 0.380938 0)
(0.798351 0.221532 0)
(0.793972 0.190992 0)
(0.81073 -0.101973 0)
(0.789606 -0.224194 0)
(-0.192841 -0.393106 -6.18381e-22)
(-0.180026 -0.37008 -2.57623e-20)
(-0.159837 -0.329207 2.47683e-22)
(-0.13268 -0.271097 2.39784e-20)
(-0.0979353 -0.195854 3.36168e-22)
(-0.055846 -0.105054 0)
(-0.00772635 -0.00198081 -2.09627e-20)
(0.0442048 0.109352 4.03375e-20)
(0.0984972 0.224478 -1.93743e-20)
(0.154211 0.331471 1.55284e-20)
(0.209958 0.42454 -1.48554e-20)
(0.262227 0.497862 1.11414e-20)
(0.306774 0.549596 -1.08036e-20)
(0.339142 0.583216 -2.5961e-22)
(0.356721 0.605133 -7.79646e-21)
(0.362867 0.617486 7.577e-21)
(0.36931 0.610754 -8.04204e-21)
(0.39191 0.565233 7.55324e-21)
(0.44008 0.46427 -1.00476e-20)
(0.509662 0.307195 2.05062e-20)
(0.589334 0.10972 -1.042e-20)
(0.668182 -0.0999814 -6.77637e-22)
(0.736386 -0.286042 -8.71325e-21)
(0.786061 -0.418397 1.5443e-20)
(0.81501 -0.489091 -6.77919e-21)
(0.824823 -0.511696 2.88882e-22)
(0.82041 -0.505817 3.38123e-21)
(0.80853 -0.486178 -3.1288e-22)
(0.789462 -0.469599 -5.24966e-21)
(0.754766 -0.470215 5.05261e-21)
(0.703551 -0.47517 -2.49929e-21)
(0.653744 -0.440012 3.47535e-22)
(0.630519 -0.323511 -2.33495e-22)
(0.642197 -0.138378 4.38132e-22)
(0.680042 0.0662509 0)
(0.727092 0.231208 0)
(0.774552 0.336781 -1.14447e-21)
(0.813122 0.387421 8.67637e-22)
(0.831685 0.421796 6.57359e-22)
(0.818918 0.45702 1.27686e-22)
(0.782991 0.470816 -9.57883e-22)
(0.747116 0.422087 2.67983e-22)
(0.739314 0.272743 0)
(0.751959 0.0817971 0)
(0.789878 -0.120417 0)
(0.822301 -0.240403 0)
(0.849696 -0.318929 3.47181e-22)
(0.836276 -0.355369 -1.32923e-22)
(0.799502 -0.368332 0)
(0.761121 -0.352355 0)
(0.757275 -0.208397 0)
(0.777533 -0.0928804 -8.55081e-23)
(0.811432 0.111703 1.54549e-23)
(0.810523 0.221053 -8.29317e-23)
(0.80123 0.321935 0)
(0.785416 0.381848 0)
(0.798503 0.220374 5.7815e-23)
(0.795573 0.189806 1.84897e-22)
(0.816955 -0.101098 0)
(0.794241 -0.222731 0)
(-0.172511 -0.403493 -1.65359e-21)
(-0.177987 -0.389442 -4.72055e-20)
(-0.174601 -0.357505 4.35208e-20)
(-0.164701 -0.30864 -4.07778e-20)
(-0.145792 -0.241998 -3.38515e-22)
(-0.117469 -0.158697 0)
(-0.0796396 -0.0616516 -3.46185e-20)
(-0.0322628 0.0450314 3.37976e-20)
(0.0183879 0.158791 2.63159e-22)
(0.0712515 0.268057 3.68713e-22)
(0.128247 0.366006 3.24754e-22)
(0.184002 0.447896 3.4916e-22)
(0.23408 0.511665 -1.69779e-20)
(0.274669 0.558761 1.67609e-20)
(0.305124 0.591569 0)
(0.33091 0.607719 4.32363e-22)
(0.363532 0.59581 -1.64407e-20)
(0.41468 0.539395 1.6238e-20)
(0.487236 0.428656 0)
(0.573001 0.267375 0)
(0.661042 0.0706899 -2.37019e-20)
(0.742265 -0.135039 4.50814e-20)
(0.80728 -0.314138 -3.90254e-20)
(0.848348 -0.437273 3.71216e-21)
(0.865572 -0.498223 2.48295e-20)
(0.863754 -0.51249 -1.94711e-20)
(0.848896 -0.501321 1.42483e-20)
(0.828013 -0.478303 -1.32936e-21)
(0.803338 -0.456216 -5.21818e-21)
(0.766589 -0.449142 0)
(0.712731 -0.451016 0)
(0.655697 -0.423657 2.17867e-21)
(0.621741 -0.323074 -2.74438e-21)
(0.624462 -0.153197 -6.56751e-23)
(0.657695 0.0428157 2.98857e-21)
(0.705782 0.206487 -2.90444e-21)
(0.758037 0.316026 0)
(0.803152 0.374478 2.45827e-22)
(0.826705 0.419397 1.95028e-21)
(0.818335 0.464704 -3.9061e-21)
(0.787972 0.483149 1.75038e-21)
(0.75869 0.431825 3.00868e-22)
(0.75738 0.275657 -3.33617e-21)
(0.772044 0.0776849 2.59478e-21)
(0.80889 -0.128752 6.1225e-22)
(0.836305 -0.248466 4.78174e-22)
(0.861356 -0.320412 -3.48048e-22)
(0.846072 -0.348733 0)
(0.808124 -0.35832 0)
(0.768248 -0.347378 -7.44066e-22)
(0.760756 -0.211358 3.65746e-22)
(0.780006 -0.100315 -3.13475e-22)
(0.809261 0.107052 4.61228e-22)
(0.808495 0.221552 5.63396e-22)
(0.798064 0.324149 -1.49977e-22)
(0.782884 0.38255 2.62323e-22)
(0.799745 0.218804 -2.52052e-22)
(0.79842 0.18817 1.45366e-22)
(0.824408 -0.100275 0)
(0.799915 -0.221157 0)
(-0.082913 -0.396015 -8.84825e-20)
(-0.106944 -0.390435 7.07873e-21)
(-0.121644 -0.368375 7.68897e-20)
(-0.131715 -0.330391 -5.89285e-22)
(-0.133274 -0.274862 0)
(-0.124586 -0.202324 0)
(-0.10508 -0.114405 -5.21321e-20)
(-0.0716164 -0.0144391 2.47651e-21)
(-0.0297065 0.0926636 6.80613e-20)
(0.0154531 0.201967 -1.86106e-21)
(0.0675683 0.302941 -1.93702e-20)
(0.123158 0.392025 -1.49676e-20)
(0.177185 0.465868 1.49536e-20)
(0.226617 0.523336 0)
(0.272064 0.563305 -1.32841e-20)
(0.319177 0.580514 1.20813e-20)
(0.377151 0.56366 0)
(0.452806 0.500543 0)
(0.543898 0.386815 2.14719e-20)
(0.640584 0.227928 2.4954e-21)
(0.733995 0.0367117 -2.19525e-20)
(0.816468 -0.162652 -2.26933e-20)
(0.87779 -0.333739 2.26238e-20)
(0.910137 -0.447795 -1.54079e-20)
(0.915658 -0.500292 3.55569e-21)
(0.902501 -0.50796 1.09872e-20)
(0.878093 -0.492925 8.95674e-22)
(0.848982 -0.468178 1.12103e-23)
(0.818818 -0.442511 0)
(0.780671 -0.428329 4.104e-21)
(0.726147 -0.425761 -4.21897e-21)
(0.663931 -0.404787 2.98348e-22)
(0.619691 -0.320692 0)
(0.612447 -0.16786 -3.77217e-22)
(0.639861 0.0178232 5.16644e-21)
(0.688073 0.17904 -8.92091e-21)
(0.74417 0.292251 6.04526e-23)
(0.794997 0.358857 2.5196e-22)
(0.823316 0.414581 2.94297e-21)
(0.819696 0.470099 4.24861e-22)
(0.795349 0.493552 -4.32788e-21)
(0.772736 0.440857 3.63283e-21)
(0.777811 0.279482 -3.50285e-23)
(0.794587 0.0758916 2.7381e-21)
(0.830209 -0.134468 -3.27601e-21)
(0.852384 -0.254772 -3.22729e-21)
(0.874578 -0.321128 9.52158e-22)
(0.857383 -0.341854 9.69585e-22)
(0.818326 -0.348008 -1.7268e-21)
(0.77697 -0.342256 1.13154e-21)
(0.765771 -0.214299 -3.19381e-22)
(0.783982 -0.107785 3.39269e-22)
(0.808705 0.102243 2.61324e-22)
(0.808067 0.22194 -7.92705e-22)
(0.796177 0.326136 -7.51503e-24)
(0.781402 0.383076 -2.76603e-22)
(0.802118 0.216824 0)
(0.802535 0.186081 -1.32695e-22)
(0.833074 -0.09949 3.78623e-22)
(0.806605 -0.219453 0)
(0.0709767 -0.371271 8.17891e-20)
(0.031875 -0.371332 -1.50376e-19)
(0.000769823 -0.358405 6.81306e-20)
(-0.0279097 -0.331176 5.22147e-20)
(-0.0510337 -0.287627 -9.64356e-20)
(-0.0653311 -0.228069 4.44365e-21)
(-0.0681768 -0.152934 3.91566e-20)
(-0.0565355 -0.0621583 3.1319e-20)
(-0.0310953 0.0350282 -3.07299e-20)
(0.00103354 0.137363 0)
(0.0426194 0.23778 -2.3624e-20)
(0.0936158 0.330741 4.44919e-20)
(0.148699 0.411038 -2.10821e-20)
(0.205461 0.475226 0)
(0.264657 0.51951 0)
(0.330604 0.536971 3.94699e-22)
(0.409275 0.51741 -3.09362e-20)
(0.502971 0.452658 3.00488e-20)
(0.605995 0.342125 0)
(0.709003 0.190794 4.81907e-20)
(0.805517 0.00809955 -9.3006e-20)
(0.888531 -0.182768 9.04643e-20)
(0.946103 -0.344587 -8.21452e-20)
(0.969739 -0.449443 6.6896e-21)
(0.963928 -0.494845 5.27915e-20)
(0.940064 -0.498067 -2.2737e-20)
(0.907239 -0.480854 -4.50639e-22)
(0.871111 -0.455841 -4.63908e-21)
(0.835827 -0.428654 7.4467e-22)
(0.796581 -0.408759 3.98171e-21)
(0.743019 -0.40082 2.34053e-22)
(0.678067 -0.384054 -3.91145e-21)
(0.624637 -0.315799 8.18495e-21)
(0.606716 -0.181708 -4.76855e-21)
(0.626966 -0.00798757 0)
(0.674071 0.149286 -4.39101e-21)
(0.732827 0.265643 4.19631e-21)
(0.788408 0.340403 -2.80736e-21)
(0.821265 0.40691 3.48812e-21)
(0.82266 0.472733 -4.08483e-22)
(0.804634 0.501807 0)
(0.788607 0.449176 -6.15629e-22)
(0.799868 0.28425 2.1813e-21)
(0.81896 0.0762969 0)
(0.853401 -0.137466 6.17453e-21)
(0.870295 -0.259151 -2.61352e-21)
(0.889152 -0.321002 7.44731e-22)
(0.870013 -0.334749 5.30748e-22)
(0.829865 -0.3374 0)
(0.786975 -0.336903 0)
(0.771983 -0.217145 -8.23201e-22)
(0.789212 -0.115315 1.22526e-21)
(0.809646 0.0972156 -6.82425e-22)
(0.80919 0.22221 2.0961e-22)
(0.795604 0.327947 4.71799e-22)
(0.781053 0.383455 2.7687e-22)
(0.805647 0.214436 -5.73135e-22)
(0.807924 0.183508 0)
(0.842922 -0.0987281 -5.50616e-22)
(0.814282 -0.217593 -1.42437e-22)
(0.270582 -0.332759 7.69916e-20)
(0.225196 -0.334293 -7.63294e-20)
(0.181696 -0.327037 4.77721e-22)
(0.139608 -0.307962 -3.33012e-22)
(0.0990357 -0.27678 3.30006e-22)
(0.0625299 -0.231717 -2.80253e-22)
(0.0369229 -0.171237 2.87423e-22)
(0.024094 -0.0958694 0)
(0.0252854 -0.0112501 -1.67927e-22)
(0.0394955 0.0800623 1.37242e-22)
(0.0673058 0.175547 1.21797e-22)
(0.108422 0.267401 -2.70211e-22)
(0.159764 0.34958 0)
(0.219356 0.416835 0)
(0.287313 0.463372 2.05281e-22)
(0.365966 0.481355 0)
(0.458046 0.461888 -3.6389e-22)
(0.562172 0.399975 0)
(0.670758 0.297105 -4.04694e-20)
(0.776136 0.156498 8.49459e-20)
(0.874585 -0.0156916 -9.00495e-20)
(0.957847 -0.195911 4.55104e-20)
(1.01095 -0.347259 3.75603e-20)
(1.02579 -0.443014 -3.64714e-20)
(1.00939 -0.482744 -2.35678e-20)
(0.975835 -0.483594 2.27043e-20)
(0.935798 -0.465785 0)
(0.893976 -0.441557 3.27173e-22)
(0.854057 -0.414592 0)
(0.813717 -0.390832 0)
(0.762289 -0.37717 5.67197e-21)
(0.697235 -0.362125 -5.84168e-21)
(0.636557 -0.307944 3.6003e-22)
(0.607809 -0.193454 5.14983e-22)
(0.619448 -0.0337687 -4.11745e-22)
(0.663795 0.117761 -3.22182e-21)
(0.723828 0.236405 3.12845e-21)
(0.783096 0.318981 -3.25582e-21)
(0.820247 0.395996 2.79831e-21)
(0.826804 0.472172 8.05033e-22)
(0.815239 0.507724 -4.53067e-21)
(0.805599 0.456764 -1.82413e-21)
(0.822774 0.289953 3.94673e-21)
(0.844474 0.0786098 0)
(0.878014 -0.137729 -2.7917e-21)
(0.889749 -0.261485 2.68547e-21)
(0.90482 -0.320015 -3.63374e-21)
(0.883736 -0.327476 -5.34104e-22)
(0.842507 -0.326478 0)
(0.797972 -0.33118 2.59477e-22)
(0.77906 -0.219833 -5.2666e-22)
(0.795412 -0.1229 -3.92732e-23)
(0.811924 0.0918913 -1.32977e-22)