/*--------------------------------*- C++ -*----------------------------------*\
| =========                 |                                                 |
| \\      /  F ield         | OpenFOAM: The Open Source CFD Toolbox           |
|  \\    /   O peration     | Version:  2512                                  |
|   \\  /    A nd           | Website:  www.openfoam.com                      |
|    \\/     M anipulation  |                                                 |
\*---------------------------------------------------------------------------*/
FoamFile
{
    version     2.0;
    format      ascii;
    arch        "LSB;label=32;scalar=64";
    class       volScalarField;
    location    "45.25";
    object      p;
}
// * * * * * * * * * * * * * * * * * * * * * * * * * * * * * * * * * * * * * //

dimensions      [0 2 -2 0 0 0 0];

internalField   nonuniform List<scalar> 
13248
(
-0.283506
-0.2821
-0.280072
-0.277593
-0.274866
-0.272091
-0.269424
-0.266972
-0.264803
-0.26294
-0.261372
-0.260058
-0.258931
-0.257905
-0.256882
-0.255762
-0.254448
-0.252856
-0.25091
-0.248588
-0.245766
-0.242636
-0.238475
-0.234353
-0.290127
-0.288127
-0.285515
-0.282473
-0.279202
-0.275913
-0.272759
-0.269832
-0.267171
-0.26477
-0.262584
-0.26054
-0.258548
-0.256508
-0.254326
-0.251917
-0.249215
-0.246173
-0.242761
-0.238967
-0.234768
-0.230187
-0.225051
-0.220061
-0.298217
-0.295429
-0.292112
-0.288436
-0.284574
-0.280733
-0.277045
-0.273568
-0.270298
-0.267188
-0.26416
-0.261121
-0.257981
-0.25466
-0.251099
-0.247262
-0.243136
-0.238728
-0.234056
-0.229149
-0.223999
-0.218669
-0.213047
-0.207608
-0.307904
-0.304133
-0.299993
-0.295613
-0.291104
-0.286643
-0.282322
-0.278142
-0.274047
-0.269955
-0.265773
-0.261426
-0.25686
-0.252049
-0.246997
-0.241733
-0.236296
-0.230732
-0.225081
-0.219371
-0.213608
-0.207837
-0.201961
-0.196474
-0.319253
-0.314321
-0.309254
-0.304101
-0.298866
-0.293671
-0.288539
-0.283408
-0.278178
-0.27276
-0.267092
-0.261157
-0.254973
-0.248593
-0.242086
-0.235525
-0.228974
-0.222485
-0.216085
-0.209788
-0.203591
-0.197507
-0.191478
-0.185847
-0.332253
-0.326016
-0.319941
-0.313948
-0.307877
-0.301758
-0.295538
-0.289101
-0.282343
-0.275224
-0.267764
-0.260041
-0.252165
-0.244251
-0.236409
-0.22872
-0.221241
-0.214
-0.207003
-0.200244
-0.193705
-0.187378
-0.181215
-0.175463
-0.34679
-0.339152
-0.332017
-0.325103
-0.318022
-0.31069
-0.302989
-0.2948
-0.286089
-0.276925
-0.267457
-0.257866
-0.248331
-0.239
-0.229978
-0.221326
-0.213071
-0.20521
-0.197724
-0.190587
-0.183769
-0.177242
-0.170976
-0.165104
-0.362608
-0.353535
-0.345304
-0.33735
-0.328996
-0.320044
-0.310375
-0.299955
-0.288901
-0.277449
-0.26588
-0.254455
-0.243376
-0.23278
-0.222735
-0.213264
-0.204353
-0.195971
-0.188077
-0.180628
-0.173582
-0.166901
-0.160562
-0.154596
-0.379261
-0.368788
-0.359431
-0.350252
-0.340254
-0.329183
-0.317023
-0.303941
-0.290275
-0.276437
-0.262807
-0.249673
-0.237213
-0.225515
-0.214596
-0.204431
-0.19497
-0.186155
-0.177928
-0.170231
-0.163012
-0.156226
-0.149847
-0.143823
-0.39609
-0.384312
-0.373778
-0.363102
-0.351
-0.337278
-0.322168
-0.306134
-0.289758
-0.273592
-0.258053
-0.243397
-0.22974
-0.217104
-0.205448
-0.194704
-0.184792
-0.175631
-0.167146
-0.159268
-0.151935
-0.145098
-0.138709
-0.132667
-0.41221
-0.399264
-0.387455
-0.374924
-0.360214
-0.34336
-0.324981
-0.305888
-0.286873
-0.268556
-0.251325
-0.235359
-0.220695
-0.20728
-0.195024
-0.18382
-0.173562
-0.16415
-0.155496
-0.147517
-0.140144
-0.13332
-0.126967
-0.120973
-0.426595
-0.412665
-0.399457
-0.384666
-0.366842
-0.346449
-0.324603
-0.302462
-0.280965
-0.260724
-0.24204
-0.224989
-0.209515
-0.195499
-0.182801
-0.17128
-0.160807
-0.151267
-0.142557
-0.134584
-0.127275
-0.12056
-0.114332
-0.108523
-0.247692
-0.249437
-0.250562
-0.251326
-0.251967
-0.252547
-0.253096
-0.253634
-0.254169
-0.2547
-0.255225
-0.255736
-0.256228
-0.256692
-0.257123
-0.257514
-0.257861
-0.258159
-0.258409
-0.258614
-0.258783
-0.258933
-0.259098
-0.259317
-0.249265
-0.250785
-0.251773
-0.252453
-0.253035
-0.253581
-0.254121
-0.254677
-0.255263
-0.25588
-0.25653
-0.257211
-0.257924
-0.258665
-0.259435
-0.260234
-0.261059
-0.261911
-0.26279
-0.263699
-0.264643
-0.265633
-0.26669
-0.267889
-0.251374
-0.252606
-0.253413
-0.253973
-0.254464
-0.254943
-0.255442
-0.255987
-0.256592
-0.257264
-0.258008
-0.258826
-0.259723
-0.260703
-0.261769
-0.262923
-0.264168
-0.265501
-0.266919
-0.268418
-0.269997
-0.27164
-0.273329
-0.275298
-0.253848
-0.254756
-0.255349
-0.255757
-0.256119
-0.256491
-0.256908
-0.257398
-0.257977
-0.258657
-0.259445
-0.260349
-0.261375
-0.262531
-0.263824
-0.265258
-0.266835
-0.26855
-0.270393
-0.272346
-0.274398
-0.276509
-0.278578
-0.280802
-0.256519
-0.2571
-0.257458
-0.257681
-0.257873
-0.25809
-0.258372
-0.25875
-0.259244
-0.259869
-0.260635
-0.261553
-0.262633
-0.263884
-0.265314
-0.266929
-0.268728
-0.270704
-0.272837
-0.275097
-0.277448
-0.279811
-0.281983
-0.284242
-0.259251
-0.259529
-0.259645
-0.259651
-0.259629
-0.259636
-0.259719
-0.259915
-0.260251
-0.260746
-0.261412
-0.262262
-0.263307
-0.264559
-0.266024
-0.267707
-0.269607
-0.271709
-0.273986
-0.276394
-0.278873
-0.281324
-0.283531
-0.285187
-0.261964
-0.261985
-0.261859
-0.261616
-0.261331
-0.261068
-0.260884
-0.260825
-0.260926
-0.26121
-0.261694
-0.262391
-0.263315
-0.264474
-0.265875
-0.267519
-0.2694
-0.271495
-0.273769
-0.276163
-0.278598
-0.280907
-0.283204
-0.283748
-0.264661
-0.264471
-0.264103
-0.263584
-0.262986
-0.262392
-0.261875
-0.261492
-0.261285
-0.261286
-0.261515
-0.261989
-0.262719
-0.263711
-0.264968
-0.266485
-0.268245
-0.270222
-0.272363
-0.274587
-0.276846
-0.278732
-0.281181
-0.28048
-0.267421
-0.267065
-0.26645
-0.265619
-0.264663
-0.263686
-0.262779
-0.262015
-0.261446
-0.261111
-0.261036
-0.261238
-0.261724
-0.262498
-0.263555
-0.264876
-0.266434
-0.268183
-0.270062
-0.271953
-0.273913
-0.275175
-0.277597
-0.276
-0.270423
-0.269912
-0.269029
-0.267848
-0.266493
-0.265093
-0.263758
-0.262577
-0.261614
-0.260916
-0.26051
-0.26041
-0.260621
-0.261132
-0.261922
-0.262956
-0.264186
-0.265549
-0.26698
-0.26834
-0.269778
-0.27042
-0.272385
-0.270502
-0.273914
-0.273211
-0.272017
-0.270444
-0.268652
-0.266798
-0.265013
-0.263402
-0.262026
-0.260947
-0.260188
-0.259755
-0.259636
-0.259801
-0.260207
-0.260792
-0.261483
-0.262199
-0.262866
-0.263387
-0.263873
-0.26386
-0.264879
-0.263227
-0.278184
-0.277198
-0.275624
-0.27361
-0.271346
-0.269015
-0.266765
-0.264705
-0.262925
-0.261455
-0.260313
-0.259488
-0.258945
-0.258626
-0.258458
-0.258351
-0.258212
-0.257948
-0.257465
-0.256723
-0.255673
-0.254408
-0.25347
-0.25212
-0.259634
-0.259704
-0.259576
-0.259161
-0.258373
-0.257094
-0.25519
-0.252531
-0.249092
-0.244879
-0.240007
-0.234708
-0.229323
-0.224304
-0.22018
-0.217477
-0.21657
-0.217488
-0.219803
-0.222473
-0.224043
-0.222608
-0.216977
-0.205766
-0.189254
-0.169028
-0.147876
-0.128369
-0.11397
-0.106642
-0.106188
-0.109088
-0.109496
-0.102528
-0.0877558
-0.067728
-0.0465823
-0.0275195
-0.0120973
-0.000687252
0.00672334
0.0104202
0.0113125
0.0109863
0.0107683
0.0112154
0.0121372
0.0130628
0.0135375
0.0134623
0.0126567
0.0114174
0.00980399
0.00828787
0.00683674
0.00569884
0.0045078
0.00356685
0.00211223
0.000995395
-0.269632
-0.270835
-0.2718
-0.272403
-0.272384
-0.27163
-0.269894
-0.266888
-0.262588
-0.256897
-0.249873
-0.241718
-0.23275
-0.223415
-0.214361
-0.206306
-0.199916
-0.195475
-0.192968
-0.191837
-0.191009
-0.188959
-0.1846
-0.176688
-0.1652
-0.151209
-0.137351
-0.125127
-0.118388
-0.118362
-0.123717
-0.129826
-0.13021
-0.120575
-0.101522
-0.077093
-0.0521193
-0.0300737
-0.0124493
0.000610711
0.00939762
0.0142672
0.0158859
0.015578
0.0146932
0.014114
0.0140036
0.0140688
0.0138961
0.0133505
0.0122136
0.0107743
0.0091089
0.00764442
0.00633858
0.00534607
0.00431255
0.00347703
0.00210646
0.00101679
-0.278778
-0.280904
-0.28286
-0.28439
-0.285173
-0.285
-0.283579
-0.280146
-0.275092
-0.268043
-0.259019
-0.248197
-0.235828
-0.222349
-0.208518
-0.195205
-0.183453
-0.173645
-0.166163
-0.160876
-0.157158
-0.153875
-0.150182
-0.145124
-0.138371
-0.130651
-0.12436
-0.119955
-0.121288
-0.128613
-0.139435
-0.148319
-0.14848
-0.136419
-0.113631
-0.0853694
-0.0571481
-0.0326198
-0.0131711
0.00125611
0.0111925
0.0171253
0.0195888
0.0196114
0.0184167
0.0170588
0.015994
0.0151752
0.0142878
0.0132092
0.011711
0.010078
0.00839106
0.00700858
0.00586403
0.00501745
0.00412984
0.00338691
0.00209811
0.00102491
-0.286412
-0.289173
-0.291966
-0.29433
-0.295794
-0.29621
-0.295566
-0.291043
-0.285612
-0.277473
-0.266777
-0.253682
-0.238308
-0.221132
-0.202987
-0.18479
-0.168294
-0.153442
-0.14115
-0.131656
-0.12477
-0.119774
-0.116113
-0.113467
-0.110919
-0.109211
-0.110379
-0.113654
-0.122829
-0.136993
-0.152687
-0.163943
-0.163772
-0.149817
-0.123985
-0.0925898
-0.0617645
-0.0352741
-0.0143745
0.00116441
0.0120523
0.0189129
0.0222419
0.0228182
0.0216589
0.0199429
0.0179639
0.0163057
0.0146816
0.0130395
0.0111749
0.00937061
0.00769403
0.00641602
0.00543333
0.00472702
0.00396597
0.00329937
0.00208664
0.00101897
-0.29121
-0.295232
-0.2984
-0.301342
-0.303461
-0.304245
-0.303314
-0.299757
-0.293792
-0.28488
-0.272889
-0.257863
-0.239956
-0.219743
-0.197991
-0.175394
-0.15556
-0.136174
-0.119573
-0.106165
-0.0961299
-0.0891585
-0.0848776
-0.084291
-0.0851345
-0.0892678
-0.0962453
-0.10691
-0.12303
-0.143063
-0.162903
-0.176203
-0.176078
-0.160609
-0.132487
-0.0987637
-0.0660246
-0.0380853
-0.0160813
0.000342806
0.0120141
0.019662
0.0238019
0.025035
0.0241682
0.0222479
0.0197111
0.017338
0.0150187
0.0128316
0.0106288
0.00869119
0.00705381
0.00589225
0.00506049
0.00447931
0.00382162
0.00321417
0.00207019
0.000999495
-0.293649
-0.298681
-0.301973
-0.305152
-0.307693
-0.308815
-0.308014
-0.304733
-0.298642
-0.289326
-0.276528
-0.260231
-0.24066
-0.218365
-0.194161
-0.169104
-0.145105
-0.122391
-0.102306
-0.085627
-0.0728416
-0.0640251
-0.0588259
-0.0597146
-0.0634013
-0.0712633
-0.0834799
-0.100217
-0.121898
-0.14655
-0.169704
-0.184766
-0.18519
-0.168685
-0.139089
-0.103899
-0.0699525
-0.0410527
-0.0182519
-0.00113541
0.0111799
0.0194886
0.0243436
0.0262414
0.0258123
0.0239119
0.0210671
0.0181496
0.0152393
0.0125779
0.0100965
0.00807303
0.00649381
0.00545815
0.00474893
0.00427155
0.00369347
0.00312913
0.00204639
0.00096822
-0.293331
-0.299194
-0.302464
-0.305578
-0.308298
-0.309685
-0.309055
-0.30595
-0.299918
-0.290523
-0.277471
-0.260681
-0.240344
-0.216977
-0.191398
-0.164718
-0.138352
-0.11326
-0.0906494
-0.071481
-0.0564423
-0.0457969
-0.0386143
-0.040801
-0.0462009
-0.0567446
-0.0727238
-0.0938374
-0.119519
-0.147429
-0.173004
-0.189543
-0.19067
-0.173941
-0.143774
-0.108007
-0.0735432
-0.0441354
-0.0208082
-0.00315944
0.0096881
0.0185536
0.024021
0.0265361
0.0265936
0.0248844
0.0219373
0.0186643
0.0153116
0.0122852
0.00960372
0.00754169
0.00602594
0.00510193
0.00449578
0.00409695
0.00357653
0.00304172
0.00201326
0.000927729
-0.290355
-0.296497
-0.299609
-0.302644
-0.305445
-0.306881
-0.306402
-0.303531
-0.297759
-0.288645
-0.275875
-0.25932
-0.23911
-0.215693
-0.189826
-0.162542
-0.135096
-0.108651
-0.0844219
-0.0634967
-0.0467896
-0.0350175
-0.0288895
-0.0284249
-0.0340526
-0.0459427
-0.0640982
-0.0878777
-0.116014
-0.145888
-0.172999
-0.190689
-0.192581
-0.176351
-0.146549
-0.111076
-0.0767429
-0.0472394
-0.0236288
-0.00558936
0.00769543
0.0170337
0.0230235
0.0260873
0.0266251
0.025202
0.022317
0.0188736
0.0152441
0.0119767
0.00917601
0.0071101
0.00565714
0.00482446
0.004293
0.00394745
0.00346608
0.00295015
0.00196989
0.00088103
-0.284971
-0.290502
-0.29346
-0.296559
-0.299237
-0.300561
-0.300299
-0.297802
-0.29251
-0.284013
-0.272009
-0.256329
-0.23703
-0.214474
-0.189318
-0.16248
-0.135072
-0.108263
-0.0832565
-0.0612093
-0.0432173
-0.030363
-0.0244166
-0.0215338
-0.0264882
-0.0385416
-0.0574557
-0.0823494
-0.111521
-0.142214
-0.170047
-0.188559
-0.191205
-0.17604
-0.14747
-0.113119
-0.0795183
-0.0502949
-0.026619
-0.00831086
0.0053357
0.0150832
0.0215269
0.0250798
0.0260703
0.0249774
0.0222764
0.0188246
0.0150734
0.011682
0.00883175
0.00677556
0.00540291
0.00461774
0.0041304
0.00381569
0.00335867
0.00285396
0.00191672
0.000831188
-0.277383
-0.281412
-0.284389
-0.287599
-0.28992
-0.290786
-0.290811
-0.288882
-0.284369
-0.276857
-0.266069
-0.251811
-0.234066
-0.213101
-0.189461
-0.163924
-0.137457
-0.111147
-0.0861489
-0.0636274
-0.0447491
-0.0307013
-0.0230951
-0.0190765
-0.0228583
-0.0341051
-0.0525712
-0.0772717
-0.106275
-0.136792
-0.164512
-0.183296
-0.187018
-0.173459
-0.146893
-0.114419
-0.0821104
-0.0534962
-0.0299134
-0.0113959
0.00259808
0.012747
0.0196224
0.0236384
0.0250743
0.0243432
0.0219189
0.0185882
0.0148456
0.0114264
0.00857698
0.00652737
0.00521365
0.00446784
0.0039987
0.00369613
0.00325234
0.00275375
0.00185529
0.000781073
-0.267342
-0.270006
-0.273357
-0.276556
-0.279016
-0.280674
-0.280057
-0.278522
-0.274932
-0.268617
-0.259317
-0.246805
-0.230984
-0.212028
-0.190364
-0.166644
-0.141722
-0.116518
-0.0920139
-0.0693426
-0.0497013
-0.0343074
-0.0242519
-0.020143
-0.0222787
-0.0319351
-0.0490061
-0.0725555
-0.100551
-0.130136
-0.157234
-0.175781
-0.180243
-0.168854
-0.145096
-0.11518
-0.0846346
-0.0569091
-0.0335489
-0.0148637
-0.000519639
0.010046
0.0173571
0.0218323
0.0237096
0.0233729
0.0213333
0.0182251
0.0145969
0.011227
0.00840787
0.00636945
0.00509075
0.00436128
0.00389012
0.00358487
0.00314601
0.00265047
0.00178731
0.000733104
-0.255303
-0.258518
-0.261345
-0.263164
-0.264805
-0.266276
-0.266773
-0.265116
-0.262302
-0.257353
-0.249941
-0.239714
-0.226465
-0.210257
-0.191358
-0.170228
-0.147534
-0.124119
-0.100947
-0.0790224
-0.0593774
-0.0430655
-0.0317516
-0.0247299
-0.0250234
-0.032304
-0.0468812
-0.0679815
-0.0936835
-0.121237
-0.147018
-0.165236
-0.170506
-0.161402
-0.140676
-0.113533
-0.0850187
-0.0585605
-0.0358687
-0.0174365
-0.00308114
0.00764389
0.0151946
0.0199724
0.0221916
0.022185
0.0205253
0.0177158
0.0142884
0.0110355
0.0082787
0.00633847
0.00500259
0.00427267
0.00379113
0.00347626
0.00303852
0.00254495
0.00171398
0.00068882
-0.242726
-0.249985
-0.252079
-0.252894
-0.254206
-0.255801
-0.256696
-0.255882
-0.25237
-0.247229
-0.240201
-0.23066
-0.218338
-0.203284
-0.185737
-0.166111
-0.145003
-0.123148
-0.101386
-0.0806419
-0.0618626
-0.0460211
-0.0348485
-0.0282096
-0.0277667
-0.034026
-0.0473633
-0.0671432
-0.0914815
-0.117666
-0.141935
-0.158744
-0.163248
-0.154175
-0.134365
-0.108764
-0.0819719
-0.0570584
-0.0355563
-0.0179318
-0.00406546
0.00640523
0.0138634
0.0186753
0.0210393
0.0212469
0.0198099
0.0171338
0.0138592
0.0107202
0.00804603
0.00616126
0.00487973
0.00416343
0.00368492
0.00336652
0.00293429
0.00244405
0.00164193
0.000650079
-0.229292
-0.239036
-0.241432
-0.241301
-0.241614
-0.242375
-0.242474
-0.241046
-0.238068
-0.233418
-0.226786
-0.21788
-0.206553
-0.192839
-0.17694
-0.159209
-0.140152
-0.1204
-0.100687
-0.0818444
-0.0647251
-0.0500452
-0.0398377
-0.0337255
-0.0331759
-0.0388085
-0.0509028
-0.0688632
-0.090906
-0.114399
-0.135776
-0.149956
-0.153094
-0.144184
-0.125924
-0.102604
-0.0781534
-0.0552221
-0.0351934
-0.0185563
-0.00529093
0.00485872
0.0121907
0.0170114
0.0194918
0.0199153
0.0187081
0.0163321
0.0133155
0.0103743
0.00784175
0.00603474
0.00479252
0.00407672
0.00358957
0.00325851
0.00282729
0.00233778
0.0015662
0.000608584
-0.215694
-0.226495
-0.229249
-0.228612
-0.228137
-0.228308
-0.228172
-0.226903
-0.22416
-0.219752
-0.213501
-0.205289
-0.195026
-0.182715
-0.168501
-0.152677
-0.135668
-0.118018
-0.100375
-0.0834922
-0.0681858
-0.0554959
-0.0455503
-0.0399792
-0.0394408
-0.0444279
-0.0551146
-0.0708973
-0.0901042
-0.110266
-0.12818
-0.139765
-0.141762
-0.133516
-0.117245
-0.0964427
-0.0743982
-0.0534336
-0.0348519
-0.0191938
-0.00654211
0.00325964
0.0104305
0.0152236
0.0177931
0.0184328
0.0174832
0.0154095
0.0126884
0.00998588
0.00762421
0.00590395
0.00470012
0.0039841
0.00348632
0.00314109
0.00271055
0.00222337
0.00148444
0.000565482
-0.202497
-0.213127
-0.21619
-0.215561
-0.214763
-0.214632
-0.214431
-0.213277
-0.21069
-0.206499
-0.200747
-0.19332
-0.184142
-0.173202
-0.160612
-0.146612
-0.131566
-0.115938
-0.100295
-0.0852913
-0.0716293
-0.060114
-0.0512667
-0.0461776
-0.0454871
-0.049611
-0.0586378
-0.0719814
-0.0881569
-0.105002
-0.119705
-0.129031
-0.13027
-0.122908
-0.108646
-0.0902943
-0.0705985
-0.0515813
-0.0344585
-0.0198075
-0.00780092
0.00162566
0.00861587
0.0133716
0.0160328
0.0168802
0.0161925
0.0144211
0.0120084
0.00955815
0.00737606
0.00575082
0.00459032
0.00387782
0.00337229
0.00301503
0.00258691
0.00210498
0.00140005
0.000523222
-0.189183
-0.199473
-0.202875
-0.202516
-0.201682
-0.201392
-0.201111
-0.200005
-0.197589
-0.193712
-0.188575
-0.181948
-0.173813
-0.164167
-0.153098
-0.140807
-0.127601
-0.113875
-0.100114
-0.0868753
-0.0747707
-0.0644828
-0.0566048
-0.0519051
-0.0509601
-0.0541153
-0.061401
-0.07229
-0.085531
-0.0992784
-0.111117
-0.118439
-0.11912
-0.11266
-0.100317
-0.0843021
-0.066857
-0.0497257
-0.0340382
-0.0203995
-0.00905807
-3.01194e-05
0.0067611
0.0114696
0.0142163
0.0152539
0.014829
0.013367
0.0112689
0.00907999
0.00708661
0.00556678
0.00445745
0.00375448
0.00324599
0.00288003
0.00245684
0.00198323
0.00131383
0.000482035
-0.176017
-0.186014
-0.189655
-0.189601
-0.188856
-0.188499
-0.188174
-0.18717
-0.185052
-0.181727
-0.177033
-0.171151
-0.163999
-0.155559
-0.145902
-0.135194
-0.123689
-0.111721
-0.0997009
-0.0881081
-0.0774704
-0.0683551
-0.0613155
-0.0569472
-0.0557327
-0.0579476
-0.0635838
-0.0721842
-0.0827118
-0.0936072
-0.10289
-0.108476
-0.108704
-0.103086
-0.0924934
-0.0786113
-0.0632475
-0.0478956
-0.0335952
-0.0209611
-0.0102976
-0.00168817
0.00488565
0.00953242
0.0123512
0.0135669
0.0134029
0.012248
0.0104652
0.00853535
0.00674784
0.00534452
0.00429574
0.00361021
0.00310503
0.00273484
0.00231983
0.00185801
0.001226
0.000441968
-0.16347
-0.17294
-0.176667
-0.176896
-0.176311
-0.175981
-0.175689
-0.174838
-0.17302
-0.170095
-0.16603
-0.160888
-0.154661
-0.147344
-0.138989
-0.12973
-0.11978
-0.10942
-0.0989928
-0.0889073
-0.0796182
-0.0715767
-0.0652836
-0.0612134
-0.0597535
-0.0611159
-0.0652677
-0.0718172
-0.0799162
-0.0882826
-0.0953434
-0.0994523
-0.0992899
-0.0943837
-0.0853013
-0.0732981
-0.0598143
-0.0461133
-0.0331358
-0.0214864
-0.0115058
-0.00333079
0.003008
0.00757744
0.0104555
0.0118384
0.011927
0.0110715
0.00959944
0.00793911
0.00635528
0.00507843
0.00410043
0.00344157
0.00294721
0.00257839
0.00217554
0.0017294
0.00113691
0.000403157
-0.151474
-0.160285
-0.164021
-0.164514
-0.164134
-0.163905
-0.163707
-0.163039
-0.161529
-0.159039
-0.155564
-0.151129
-0.145766
-0.13948
-0.132315
-0.124375
-0.115835
-0.10693
-0.0979442
-0.0892203
-0.0811533
-0.0740856
-0.0684661
-0.0646687
-0.0629999
-0.0636193
-0.0664804
-0.0712536
-0.0772514
-0.0834735
-0.0886428
-0.0914907
-0.0909591
-0.0866085
-0.0787835
-0.0683998
-0.0565867
-0.0443969
-0.0326657
-0.0219708
-0.0126708
-0.0049418
0.00114621
0.0056235
0.0085471
0.0100837
0.0104128
0.00984574
0.00867603
0.00728264
0.0059068
0.00476533
0.0038684
0.00324614
0.00277089
0.00240984
0.00202372
0.00159749
0.00104676
0.000365613
-0.139957
-0.148152
-0.151855
-0.152578
-0.152412
-0.15232
-0.152249
-0.151778
-0.150577
-0.148517
-0.145597
-0.141847
-0.137281
-0.131935
-0.125844
-0.119094
-0.111825
-0.104227
-0.0965318
-0.0890245
-0.0820135
-0.0758594
-0.0708525
-0.0673106
-0.0654769
-0.0654719
-0.0672485
-0.0705315
-0.0747506
-0.0791824
-0.0827764
-0.0845507
-0.0836669
-0.0797321
-0.0729346
-0.063927
-0.0535805
-0.0427588
-0.0321898
-0.0224108
-0.0137824
-0.00650617
-0.00068225
0.00368825
0.00664211
0.00831698
0.00887172
0.00857917
0.00770065
0.00656892
0.00540285
0.00440414
0.00359799
0.00302236
0.0025748
0.00222849
0.00186404
0.0014622
0.000955567
0.000329203
-0.129079
-0.136652
-0.140259
-0.141162
-0.141199
-0.141256
-0.141326
-0.141056
-0.140156
-0.138507
-0.136107
-0.132987
-0.12917
-0.124675
-0.119546
-0.113861
-0.107728
-0.101305
-0.094754
-0.0883346
-0.0822927
-0.0769214
-0.0724625
-0.0691634
-0.0672134
-0.0667044
-0.0675937
-0.0696538
-0.0724689
-0.0753691
-0.0776549
-0.0785243
-0.0773158
-0.0736866
-0.0677204
-0.0598713
-0.0508012
-0.0412075
-0.0317126
-0.0228041
-0.0148317
-0.0080102
-0.00246123
0.00178817
0.00475594
0.00655239
0.00731547
0.00728126
0.00668021
0.00580244
0.00484555
0.00399529
0.00328856
0.00276924
0.00235797
0.00203368
0.00169614
0.00132334
0.000863201
0.000293713
-0.118895
-0.125805
-0.129263
-0.130306
-0.130528
-0.130733
-0.130946
-0.130872
-0.130257
-0.128992
-0.127073
-0.124529
-0.121387
-0.117666
-0.113402
-0.108655
-0.103529
-0.0981805
-0.0926141
-0.0871419
-0.0819663
-0.077296
-0.0733327
-0.0702689
-0.0682507
-0.0673492
-0.0675248
-0.0685919
-0.0702311
-0.0719428
-0.0731644
-0.0732857
-0.0717908
-0.0683865
-0.0630913
-0.0562135
-0.0482476
-0.0397481
-0.0312378
-0.0231492
-0.0158111
-0.00944178
-0.00417592
-6.11118e-05
0.00290378
0.00480374
0.0057559
0.00596175
0.00562234
0.00498876
0.00423826
0.00354028
0.00294031
0.00248637
0.00211972
0.00182484
0.00151962
0.00118066
0.000769458
0.000258893
-0.109339
-0.115611
-0.118899
-0.120045
-0.120428
-0.12077
-0.121117
-0.121226
-0.120872
-0.119958
-0.118476
-0.116454
-0.113916
-0.110883
-0.107381
-0.103454
-0.0991709
-0.0946023
-0.0900243
-0.0854578
-0.0810621
-0.0770234
-0.0735124
-0.070679
-0.068636
-0.0674415
-0.0670618
-0.067354
-0.0680641
-0.0688236
-0.0691938
-0.0687115
-0.0669762
-0.0637428
-0.0589922
-0.0529278
-0.0459135
-0.0383831
-0.0307684
-0.0234452
-0.0167149
-0.0107905
-0.00581295
-0.00184496
0.00110013
0.00308448
0.00420486
0.00463072
0.00453535
0.0041343
0.00358533
0.00304157
0.0025542
0.00217381
0.00185965
0.00160155
0.00133412
0.00103384
0.0006741
0.000224479
-0.100408
-0.106088
-0.109189
-0.110402
-0.110916
-0.111378
-0.111845
-0.112116
-0.111996
-0.111394
-0.110302
-0.108744
-0.106742
-0.104316
-0.101486
-0.0982888
-0.0947815
-0.0910462
-0.0872114
-0.0833691
-0.0796401
-0.0761598
-0.0730593
-0.070451
-0.0684246
-0.067029
-0.0662355
-0.0659313
-0.0659247
-0.0659403
-0.0656458
-0.0646903
-0.0627651
-0.0596699
-0.0553664
-0.0499847
-0.0437884
-0.0371119
-0.0303063
-0.0236919
-0.0175385
-0.0120476
-0.00736059
-0.0035501
-0.000641436
0.00140751
0.00267411
0.00329854
0.0034281
0.00324618
0.00289191
0.00250237
0.00213186
0.00183212
0.00157774
0.00136352
0.00113934
0.000882595
0.000576889
0.000190212
-0.0921252
-0.0972365
-0.100134
-0.101381
-0.101999
-0.102559
-0.103129
-0.103539
-0.10362
-0.10329
-0.102539
-0.101387
-0.0998555
-0.097959
-0.0957156
-0.0931539
-0.0903195
-0.0872765
-0.0841087
-0.0809027
-0.077754
-0.074766
-0.0720356
-0.0696511
-0.067682
-0.0661673
-0.0650757
-0.0643269
-0.0637823
-0.0632355
-0.0624375
-0.0611246
-0.0590616
-0.0560879
-0.052158
-0.0473521
-0.0418585
-0.0359317
-0.0298525
-0.0238894
-0.0182789
-0.0132065
-0.00880904
-0.00516491
-0.00230854
-0.000214975
0.00117519
0.0019757
0.00230986
0.00233214
0.00216389
0.00192667
0.00167561
0.00146239
0.0012743
0.00111071
0.000935095
0.000726648
0.000477609
0.00015586
-0.0844587
-0.0890323
-0.0917188
-0.092974
-0.0936706
-0.0943101
-0.094961
-0.0954844
-0.0957339
-0.0956353
-0.0951775
-0.0943763
-0.0932493
-0.0918096
-0.090071
-0.0880553
-0.0857966
-0.0833433
-0.0807562
-0.0781037
-0.0754609
-0.0729051
-0.0705075
-0.0683428
-0.0664725
-0.0648995
-0.0636087
-0.0625499
-0.0616191
-0.0606634
-0.0594993
-0.0579309
-0.055781
-0.0529233
-0.0493126
-0.0449964
-0.0401075
-0.034837
-0.0294067
-0.024038
-0.0189342
-0.0142621
-0.0101505
-0.00667958
-0.00389024
-0.00177174
-0.000280874
0.000672643
0.00119018
0.00140039
0.00140782
0.00131913
0.00118846
0.00106626
0.00095009
0.000843322
0.000721368
0.000565801
0.000376088
0.000121221
-0.0773698
-0.0814505
-0.0839284
-0.0851713
-0.0859224
-0.0866196
-0.0873314
-0.0879432
-0.0883288
-0.0884217
-0.0882096
-0.0877045
-0.086921
-0.0858695
-0.0845601
-0.0830083
-0.081239
-0.0792877
-0.0771992
-0.0750251
-0.0728226
-0.0706494
-0.0685669
-0.0666229
-0.0648562
-0.0632746
-0.0618737
-0.0606158
-0.059424
-0.0581877
-0.0567735
-0.0550379
-0.0528491
-0.0501095
-0.0467788
-0.0428836
-0.0385168
-0.0338205
-0.0289677
-0.0241382
-0.0195038
-0.0152114
-0.0113794
-0.00808631
-0.00537722
-0.00325271
-0.0016837
-0.000600445
7.87074e-05
0.000459517
0.000630816
0.000685113
0.000674072
0.000645962
0.000606328
0.000561891
0.000498324
0.000399972
0.000272217
8.61373e-05
-0.0708361
-0.0744662
-0.0767393
-0.0779526
-0.0787366
-0.0794721
-0.080225
-0.0809011
-0.0813922
-0.0816388
-0.0816278
-0.0813681
-0.080871
-0.0801445
-0.0791952
-0.0780335
-0.0766767
-0.0751503
-0.0734865
-0.0717238
-0.0699042
-0.0680709
-0.0662681
-0.0645348
-0.062892
-0.0613516
-0.0599112
-0.0585431
-0.0571927
-0.0557814
-0.0542137
-0.0523859
-0.0502015
-0.0475869
-0.0445083
-0.04098
-0.0370666
-0.032873
-0.0285329
-0.0241902
-0.019988
-0.0160532
-0.012492
-0.00937932
-0.00676196
-0.00464917
-0.00302382
-0.00183382
-0.00101498
-0.000481668
-0.000159551
3.05632e-05
0.000136779
0.000204327
0.000244731
0.000267302
0.000266364
0.000229218
0.000165979
5.05012e-05
-0.0648295
-0.068047
-0.0701215
-0.0712917
-0.0720908
-0.0728471
-0.0736232
-0.0743417
-0.0749102
-0.0752758
-0.0754251
-0.0753642
-0.0751015
-0.0746426
-0.0739914
-0.0731541
-0.072142
-0.0709724
-0.0696682
-0.068257
-0.066769
-0.0652356
-0.0636883
-0.062155
-0.0606511
-0.0591866
-0.0577603
-0.0563527
-0.054926
-0.0534251
-0.0517828
-0.0499254
-0.0477835
-0.0453029
-0.0424571
-0.0392532
-0.0357367
-0.0319845
-0.028099
-0.0241943
-0.0203879
-0.0167874
-0.0134866
-0.0105548
-0.00803876
-0.00595388
-0.00429283
-0.00301839
-0.00208156
-0.00141428
-0.000955368
-0.000638039
-0.000418495
-0.000255225
-0.000132483
-3.91472e-05
2.61763e-05
5.37594e-05
5.74394e-05
1.42602e-05
-0.0593143
-0.0621579
-0.0640433
-0.0651611
-0.06596
-0.0667223
-0.0675057
-0.0682472
-0.0688681
-0.0693217
-0.0695948
-0.0696908
-0.0696159
-0.0693736
-0.0689656
-0.0683947
-0.0676676
-0.0667953
-0.0657932
-0.0646804
-0.063478
-0.0622084
-0.0608934
-0.0595517
-0.0581949
-0.0568311
-0.0554597
-0.0540677
-0.0526292
-0.0511063
-0.0494525
-0.0476163
-0.0455492
-0.0432122
-0.0405855
-0.037673
-0.034507
-0.0311439
-0.0276619
-0.0241506
-0.0207051
-0.0174156
-0.0143633
-0.011611
-0.00920372
-0.00716115
-0.00548351
-0.00414588
-0.00311218
-0.00232955
-0.00174855
-0.00131382
-0.000986286
-0.000728701
-0.000522598
-0.00035577
-0.00022123
-0.00012593
-5.32153e-05
-2.26008e-05
-0.0542577
-0.056765
-0.0584723
-0.0595309
-0.0603173
-0.0610729
-0.0618503
-0.0625983
-0.0632501
-0.0637648
-0.0641295
-0.0643459
-0.064418
-0.0643476
-0.0641347
-0.0637796
-0.0632854
-0.0626585
-0.0619084
-0.0610476
-0.0600901
-0.0590515
-0.0579464
-0.0567864
-0.0555803
-0.0543342
-0.0530479
-0.0517126
-0.0503113
-0.0488182
-0.047202
-0.0454273
-0.0434611
-0.0412762
-0.038859
-0.0362119
-0.0333585
-0.0303405
-0.0272173
-0.0240589
-0.0209417
-0.0179402
-0.0151235
-0.0125476
-0.0102547
-0.00826686
-0.00658995
-0.00520896
-0.00409861
-0.00321898
-0.00253097
-0.00198962
-0.00156073
-0.0012116
-0.000922374
-0.000680452
-0.000474589
-0.000309169
-0.000165609
-6.00198e-05
-0.0496295
-0.0518349
-0.0533754
-0.0543706
-0.055135
-0.0558737
-0.0566342
-0.057375
-0.0580398
-0.0585928
-0.0590219
-0.0593272
-0.0595111
-0.0595742
-0.0595149
-0.059332
-0.0590259
-0.0585994
-0.0580579
-0.0574085
-0.0566602
-0.0558229
-0.0549061
-0.0539168
-0.0528609
-0.0517424
-0.0505615
-0.0493125
-0.0479841
-0.0465593
-0.0450173
-0.0433347
-0.0414895
-0.0394636
-0.0372482
-0.0348458
-0.0322739
-0.0295638
-0.0267609
-0.0239194
-0.0211004
-0.0183645
-0.0157701
-0.0133661
-0.0111913
-0.00926846
-0.00760759
-0.00620143
-0.00503343
-0.00407458
-0.0032947
-0.00265817
-0.00213562
-0.00169903
-0.00132815
-0.0010106
-0.00073222
-0.000495114
-0.000279318
-9.78403e-05
-0.0453996
-0.0473347
-0.0487203
-0.0496501
-0.0503853
-0.0510994
-0.0518346
-0.0525574
-0.0532206
-0.0537933
-0.054264
-0.0546318
-0.0548979
-0.0550618
-0.0551211
-0.0550733
-0.054917
-0.0546524
-0.0542817
-0.0538087
-0.0532381
-0.0525755
-0.0518266
-0.0509954
-0.0500854
-0.0490988
-0.0480357
-0.0468923
-0.0456614
-0.044332
-0.0428906
-0.0413219
-0.039612
-0.0377494
-0.0357292
-0.0335542
-0.0312382
-0.0288048
-0.0262888
-0.0237324
-0.0211839
-0.0186926
-0.0163071
-0.0140694
-0.0120144
-0.0101649
-0.0085333
-0.00711826
-0.00591016
-0.004889
-0.00403217
-0.00331226
-0.00270456
-0.00218572
-0.00173592
-0.00134339
-0.000992077
-0.000682451
-0.00039377
-0.000135948
-0.0415393
-0.0432335
-0.0444764
-0.0453405
-0.0460416
-0.0467254
-0.0474291
-0.0481259
-0.0487763
-0.0493536
-0.0498475
-0.0502562
-0.05058
-0.0508176
-0.0509662
-0.0510224
-0.0509835
-0.0508482
-0.0506163
-0.0502889
-0.0498681
-0.0493561
-0.0487559
-0.0480696
-0.0472984
-0.0464431
-0.0455035
-0.044477
-0.043359
-0.0421424
-0.0408187
-0.0393782
-0.0378126
-0.036115
-0.0342835
-0.0323211
-0.0302391
-0.0280558
-0.0257981
-0.0234987
-0.0211959
-0.0189294
-0.0167393
-0.0146614
-0.0127265
-0.0109566
-0.0093653
-0.00795567
-0.00672336
-0.00565569
-0.0047363
-0.00394497
-0.00326124
-0.00266623
-0.00214122
-0.00167554
-0.00125209
-0.000869804
-0.000507979
-0.000174067
-0.038023
-0.0395032
-0.0406152
-0.0414147
-0.0420786
-0.0427285
-0.0433966
-0.0440616
-0.0446907
-0.0452612
-0.0457637
-0.0461961
-0.0465578
-0.0468472
-0.047061
-0.0471954
-0.0472472
-0.0472136
-0.0470932
-0.0468852
-0.0465895
-0.0462067
-0.0457372
-0.0451817
-0.0445399
-0.0438116
-0.0429959
-0.0420909
-0.0410936
-0.0399995
-0.0388031
-0.0374987
-0.0360814
-0.0345477
-0.0328976
-0.0311344
-0.0292675
-0.0273113
-0.025287
-0.0232199
-0.0211404
-0.0190803
-0.0170725
-0.0151472
-0.0133313
-0.0116453
-0.0101033
-0.00871122
-0.00746877
-0.00636902
-0.00540072
-0.00454968
-0.0037994
-0.00313514
-0.00253961
-0.00200344
-0.00150948
-0.00105577
-0.00062131
-0.000211786
-0.0348275
-0.0361178
-0.0371106
-0.0378476
-0.0384729
-0.0390869
-0.039717
-0.0403467
-0.0409487
-0.041504
-0.0420041
-0.0424466
-0.0428307
-0.0431541
-0.0434138
-0.0436057
-0.0437259
-0.0437714
-0.0437396
-0.0436285
-0.0434369
-0.0431635
-0.0428076
-0.0423687
-0.0418457
-0.041237
-0.0405415
-0.0397574
-0.0388827
-0.0379143
-0.0368489
-0.0356828
-0.0344138
-0.0330402
-0.0315632
-0.0299863
-0.0283176
-0.0265684