/*--------------------------------*- C++ -*----------------------------------*\
| =========                 |                                                 |
| \\      /  F ield         | OpenFOAM: The Open Source CFD Toolbox           |
|  \\    /   O peration     | Version:  2512                                  |
|   \\  /    A nd           | Website:  www.openfoam.com                      |
|    \\/     M anipulation  |                                                 |
\*---------------------------------------------------------------------------*/
FoamFile
{
    version     2.0;
    format      ascii;
    arch        "LSB;label=32;scalar=64";
    class       surfaceScalarField;
    location    "41.5";
    object      phi;
}
// * * * * * * * * * * * * * * * * * * * * * * * * * * * * * * * * * * * * * //

dimensions      [0 3 -1 0 0 0 0];

oriented        oriented;

internalField   nonuniform List<scalar> 
26232
(
5.75166e-05
0.00096699
-0.00102451
0.000380688
0.00192509
-0.00224826
0.00110479
0.00204622
-0.00277032
0.00235888
0.00137997
-0.00263406
0.00427284
-4.19686e-05
-0.00187199
0.00698013
-0.00220291
-0.000504385
0.0106118
-0.00509077
0.00145905
0.0152899
-0.00869435
0.00401628
0.0211143
-0.0129914
0.00716702
0.0281488
-0.0179404
0.0109059
0.0364073
-0.0234748
0.0152163
0.0458434
-0.0295009
0.0200648
0.0563455
-0.0359003
0.0253982
0.0677389
-0.0425362
0.0311427
0.079795
-0.0492622
0.0372062
0.0922458
-0.0559331
0.0434822
0.104805
-0.0624146
0.0498558
0.117187
-0.0685939
0.0562115
0.129133
-0.0743831
0.0624372
0.140427
-0.0797385
0.068444
0.150901
-0.0846125
0.0741388
0.160461
-0.0890978
0.0795376
0.168969
-0.0929968
0.0844892
-0.0968879
0.0897162
0.176141
9.25962e-05
0.000874393
0.0005544
0.00146329
0.00155179
0.00104883
0.00324234
-0.000310585
0.00578143
-0.00258106
0.00931678
-0.00573825
0.01398
-0.00975403
0.0198692
-0.0145835
0.0270309
-0.0201531
0.0354441
-0.0263536
0.0450103
-0.033041
0.0555527
-0.0400433
0.0668259
-0.0471735
0.0785349
-0.0542451
0.0903606
-0.0610879
0.101989
-0.0675611
0.113138
-0.0735638
0.123584
-0.0790397
0.133178
-0.0839777
0.14185
-0.0884103
0.149627
-0.09239
0.15657
-0.0960404
0.162891
-0.0993175
-0.102732
0.168735
0.000146719
0.000727674
0.000797073
0.000812932
0.00214582
-0.00029992
0.00437504
-0.00253981
0.00765427
-0.00586028
0.0121277
-0.0102117
0.0178943
-0.0155207
0.024985
-0.0216741
0.0333433
-0.0285114
0.0428174
-0.0358277
0.0531651
-0.0433887
0.0640743
-0.0509525
0.0751943
-0.0582936
0.0861733
-0.0652241
0.096695
-0.0716096
0.106511
-0.0773768
0.11546
-0.0825133
0.123481
-0.0870608
0.130605
-0.0911012
0.136938
-0.0947432
0.142644
-0.0980965
0.147893
-0.101289
0.152907
-0.104331
-0.107583
0.157758
0.000222271
0.000505403
0.00111475
-7.95447e-05
0.00289306
-0.00207823
0.00575182
-0.00539857
0.00985388
-0.00996234
0.0153059
-0.0156637
0.0221295
-0.0223444
0.0302393
-0.0297839
0.0394346
-0.0377067
0.0494135
-0.0458065
0.059805
-0.0537802
0.0702153
-0.0613628
0.0802766
-0.0683549
0.0896903
-0.0746378
0.098257
-0.0801763
0.105889
-0.0850091
0.112607
-0.0892308
0.118515
-0.0929692
0.123777
-0.0963627
0.128575
-0.0995413
0.133089
-0.10261
0.137462
-0.105663
0.141833
-0.108703
-0.111964
0.146215
0.000319165
0.000186238
0.00150386
-0.00126424
0.00377723
-0.0043516
0.00732539
-0.00894673
0.0122715
-0.0149085
0.0186401
-0.0220323
0.0263279
-0.0300322
0.0350958
-0.0385518
0.0445899
-0.0472008
0.0543878
-0.0556044
0.0640606
-0.0634531
0.0732335
-0.0705357
0.0816324
-0.0767538
0.0891087
-0.0821141
0.0956396
-0.0867072
0.101307
-0.0906766
0.106263
-0.0941871
0.110692
-0.0973975
0.114772
-0.100443
0.118656
-0.103426
0.122462
-0.106416
0.126262
-0.109463
0.130122
-0.112563
-0.115863
0.13402
0.000435413
-0.000249175
0.00195272
-0.00278155
0.0047622
-0.00716108
0.00901067
-0.0131952
0.0147392
-0.020637
0.0218437
-0.0291367
0.0300612
-0.0382497
0.0389958
-0.0474864
0.0481789
-0.0563839
0.0571485
-0.064574
0.0655219
-0.0718264
0.073045
-0.0780588
0.0796103
-0.0833191
0.0852437
-0.0877474
0.0900686
-0.0915321
0.0942614
-0.0948694
0.0980088
-0.0979345
0.101477
-0.100866
0.104798
-0.103763
0.108061
-0.106689
0.111328
-0.109683
0.114631
-0.112766
0.118004
-0.115936
-0.119274
0.121416
0.000567483
-0.000816658
0.00244243
-0.00465649
0.00579432
-0.010513
0.0106919
-0.0180927
0.0170494
-0.0269945
0.0245998
-0.0366872
0.032918
-0.0465679
0.0414929
-0.0560613
0.049825
-0.064716
0.0575137
-0.0722628
0.0643117
-0.0786244
0.0701364
-0.0838835
0.0750441
-0.0882269
0.0791831
-0.0918864
0.0827412
-0.0950902
0.0859028
-0.098031
0.0888224
-0.100854
0.0916147
-0.103658
0.0943572
-0.106506
0.0970985
-0.109431
0.0998676
-0.112452
0.10268
-0.115578
0.105551
-0.118807
-0.122177
0.108454
0.00071023
-0.00152689
0.00294729
-0.00689355
0.00680552
-0.0143712
0.0122337
-0.023521
0.0189841
-0.0337449
0.0266201
-0.0443232
0.0345932
-0.0545409
0.0423576
-0.0638257
0.0494784
-0.0718367
0.0556945
-0.0784789
0.0609283
-0.0838582
0.0652502
-0.0882053
0.0688214
-0.0917981
0.0718359
-0.0949009
0.0744763
-0.0977305
0.0768898
-0.100444
0.0791821
-0.103146
0.0814224
-0.105899
0.0836529
-0.108736
0.0858982
-0.111676
0.088172
-0.114726
0.0904814
-0.117887
0.0928334
-0.121159
-0.124551
0.0952068
0.000856569
-0.00238346
0.00343551
-0.00947249
0.00771852
-0.0186542
0.0134983
-0.0293007
0.0203512
-0.0405978
0.0277012
-0.0516733
0.034949
-0.0617886
0.0416037
-0.0704805
0.0473655
-0.0775985
0.0521386
-0.083252
0.0559914
-0.087711
0.0590896
-0.0913036
0.0616316
-0.0943401
0.0638012
-0.0970705
0.0657435
-0.0996729
0.0675605
-0.102262
0.0693173
-0.104903
0.0710523
-0.107634
0.0727875
-0.110471
0.0745353
-0.113424
0.0763024
-0.116493
0.0780922
-0.119677
0.0799068
-0.122974
-0.126376
0.0817325
0.000997467
-0.00338092
0.00387126
-0.0123463
0.00845544
-0.0232384
0.0143652
-0.0352105
0.0210178
-0.0472504
0.0277586
-0.058414
0.0340201
-0.0680502
0.0394341
-0.0758944
0.0438602
-0.0820246
0.0473462
-0.086738
0.0500537
-0.0904185
0.0521844
-0.0934343
0.0539267
-0.0960824
0.0554289
-0.0985726
0.0567937
-0.101038
0.0580856
-0.103553
0.0593418
-0.106159
0.0605831
-0.108875
0.0618211
-0.111709
0.0630625
-0.114665
0.0643106
-0.117741
0.0655671
-0.120934
0.0668314
-0.124238
-0.127641
0.0680957
0.0011231
-0.00450402
0.00421969
-0.0154429
0.00894969
-0.0279684
0.014752
-0.0410128
0.0209296
-0.053428
0.0268244
-0.0643089
0.0319688
-0.0731946
0.0361458
-0.0800714
0.0393589
-0.0852378
0.0417535
-0.0891326
0.0435316
-0.0921966
0.044889
-0.0947916
0.0459817
-0.0971751
0.0469179
-0.0995089
0.0477649
-0.101885
0.048561
-0.104349
0.0493268
-0.106925
0.0500739
-0.109622
0.0508089
-0.112444
0.0515356
-0.115392
0.052256
-0.118461
0.0529703
-0.121648
0.0536759
-0.124944
-0.128334
0.0543691
0.00122659
-0.00573061
0.0044545
-0.0186708
0.00915728
-0.0326712
0.0146243
-0.0464798
0.0201095
-0.0589132
0.02502
-0.0692194
0.0290254
-0.0771999
0.0320532
-0.0830992
0.0342129
-0.0873974
0.0356994
-0.0906192
0.0367164
-0.0932136
0.0374319
-0.0955071
0.0379644
-0.0977075
0.0383876
-0.0999321
0.0387431
-0.10224
0.0390532
-0.104659
0.0393292
-0.107201
0.0395779
-0.109871
0.0398036
-0.11267
0.0400088
-0.115597
0.0401951
-0.118648
0.0403622
-0.121815
0.0405074
-0.125089
0.0406303
-0.128457
-0.000201401
0.000464205
-0.000262804
-0.000704467
0.0010881
-0.000585035
-0.00144557
0.00150445
-0.000763346
-0.00237583
0.00176262
-0.000832361
-0.00345696
0.00190229
-0.000821166
-0.00465929
0.00195509
-0.000752757
-0.00596019
0.00194451
-0.000643611
-0.00734252
0.00188616
-0.000503838
-0.00879327
0.00178868
-0.000337919
-0.0103025
0.00165496
-0.000145742
-0.0118617
0.00148367
7.5588e-05
-0.0134637
0.00127042
0.000331577
-0.0151012
0.00100913
0.00062833
-0.0167663
0.000692897
0.000972225
-0.0184504
0.000314749
0.0013693
-0.020144
-0.000131188
0.0018248
-0.021837
-0.000649925
0.00234293
-0.0235197
-0.00124377
0.00292642
-0.0251847
-0.0019112
0.00357629
-0.0268294
-0.00264701
0.0042917
-0.0284585
-0.00344092
0.00507
-0.0300878
-0.00427769
0.00590694
-0.0317509
-0.00513461
0.00679779
-0.0059847
-0.0335045
0.00773827
-0.000188109
0.000652314
-0.000661699
0.00156169
-0.00136289
0.00220564
-0.00224608
0.00264582
-0.00327469
0.0029309
-0.00441971
0.00310011
-0.00565855
0.00318335
-0.00697385
0.00320146
-0.00835237
0.0031672
-0.00978392
0.00308651
-0.0112603
0.00296005
-0.0127744
0.00278454
-0.0143194
0.00255414
-0.015888
0.00226143
-0.0174716
0.00189841
-0.0190603
0.00145744
-0.0206423
0.000932157
-0.0222041
0.000318027
-0.0237344
-0.00038094
-0.0252218
-0.00115957
-0.0266623
-0.00200049
-0.0280623
-0.0028777
-0.0294487
-0.00374819
-0.00454546
-0.0308879
-0.000164373
0.000816686
-0.000583503
0.00198082
-0.00120814
0.00283028
-0.0019974
0.00343508
-0.00291693
0.00385043
-0.0039383
0.00412148
-0.00503834
0.00428339
-0.00619846
0.00436158
-0.00740382
0.00437256
-0.00864251
0.00432521
-0.00990466
0.00422219
-0.0111816
0.00406146
-0.0124649
0.00383748
-0.0137459
0.00354237
-0.0150143
0.00316685
-0.016258
0.00270117
-0.0174621
0.00213623
-0.0186091
0.00146504
-0.0196749
0.000684817
-0.0206367
-0.000197708
-0.0214735
-0.00116376
-0.02217
-0.00218114
-0.0227293
-0.00318889
-0.00405972
-0.0232151
-0.000132695
0.000949381
-0.000477293
0.00232542
-0.000994667
0.00334765
-0.00164926
0.00408967
-0.00240906
0.00461023
-0.00324579
0.00495821
-0.00413494
0.00517254
-0.00505545
0.0052821
-0.00598928
0.0053064
-0.0069208
0.00525672
-0.00783608
0.00513748
-0.00872222
0.0049476
-0.00956658
0.00468183
-0.010356
0.00433179
-0.0110761
0.00388692
-0.0117102
0.00333533
-0.0122388
0.0026648
-0.0126377
0.00186396
-0.0128769
0.000923984
-0.0129181
-0.000156444
-0.0127203
-0.00136157
-0.0122415
-0.00265998
-0.0114497
-0.0039807
-0.00517667
-0.0103327
-9.66936e-05
0.00104607
-0.000354048
0.00258277
-0.000742621
0.00373622
-0.00123169
0.00457874
-0.001791
0.00516954
-0.00239175
0.00555896
-0.00300706
0.00578785
-0.00361205
0.00588709
-0.00418364
0.00587798
-0.00470014
0.00577322
-0.00514075
0.00557809
-0.00548494
0.0052918
-0.00571189
0.00490878
-0.00579982
0.00441972
-0.00572553
0.00381262
-0.00546373
0.00307354
-0.00498642
0.0021875
-0.00426213
0.00113967
-0.00325263
-8.55222e-05
-0.00191893
-0.00149014
-0.000200139
-0.00308037
0.00197364
-0.00483375
0.00467435
-0.00668142
-0.00841627
0.00791396
-6.05541e-05
0.00110663
-0.000226595
0.00274882
-0.000475817
0.00398544
-0.000780589
0.00488351
-0.00111114
0.00550009
-0.00143698
0.0058848
-0.00172761
0.00607848
-0.0019528
0.00611228
-0.00208251
0.00600768
-0.00208654
0.00577725
-0.00193417
0.00542571
-0.00159358
0.00495122
-0.00103143
0.00434662
-0.000212392
0.00360068
0.000901059
0.00269917
0.00234871
0.00162588
0.00417307
0.00036313
0.00641694
-0.00110419
0.00912414
-0.00279272
0.0123467
-0.00471271
0.0161365
-0.00687019
0.020559
-0.00925622
0.0256678
-0.0117902
-0.0145165
0.031768
-2.82764e-05
0.00113491
-0.000107297
0.00282784
-0.000217415
0.00409556
-0.000331053
0.00499715
-0.000416954
0.00558599
-0.000441187
0.00590903
-0.00036799
0.00600528
-0.000159959
0.00590425
0.000222081
0.00562564
0.000819375
0.00517996
0.00167562
0.00456947
0.00283732
0.00378951
0.00435405
0.00282989
0.00627861
0.00167612
0.0086666
0.000311183
0.0115758
-0.00128334
0.0150646
-0.00312564
0.019192
-0.00523162
0.024013
-0.00761374
0.0295789
-0.0102785
0.0359296
-0.013221
0.0431298
-0.0164564
0.0511297
-0.01979
-0.023816
0.0604292
-2.94327e-06
0.00113785
-5.19934e-06
0.00283009
1.58467e-05
0.00407452
9.11467e-05
0.00492185
0.000257084
0.00542005
0.000553419
0.00561269
0.00102349
0.00553521
0.00171436
0.00521338
0.00267703
0.00466297
0.00396672
0.00389027
0.00564304
0.00289315
0.00777
0.00166256
0.0104153
0.000184609
0.0136503
-0.00155892
0.0175476
-0.00358611
0.0221795
-0.00591522
0.0276151
-0.00856125
0.0339173
-0.0115339
0.0411386
-0.014835
0.0493193
-0.0184592
0.0584687
-0.0223704
0.0686364
-0.0266241
0.0796275
-0.030781
-0.0362242
0.0920356
1.44136e-05
0.00112343
7.57443e-05
0.00276876
0.000216904
0.00393336
0.000477691
0.00466106
0.000902352
0.00499539
0.00154011
0.00497494
0.00244543
0.00462988
0.00367856
0.00398026
0.00530575
0.00303578
0.00739928
0.00179673
0.0100367
0.000255708
0.0133002
-0.0016009
0.0172739
-0.00378914
0.0220412
-0.0063262
0.0276817
-0.00922663
0.0342665
-0.0125
0.0418535
-0.0161482
0.0504828
-0.0201632
0.0601721
-0.0245243
0.0709151
-0.0292022
0.0826666
-0.0341219
0.0954061
-0.0393636
0.108886
-0.0442608
-0.0508322
0.123494
2.47562e-05
0.00109868
0.000140345
0.00265317
0.000396277
0.00367743
0.000845866
0.00421148
0.00154663
0.00429463
0.00256174
0.00395983
0.00396123
0.0032304
0.00582255
0.00211894
0.00823038
0.000627952
0.0112753
-0.00124823
0.0150516
-0.00352053
0.0196527
-0.00620197
0.0251673
-0.00930382
0.0316732
-0.0128321
0.0392307
-0.0167841
0.0478768
-0.0211461
0.0576197
-0.0258912
0.0684352
-0.0309787
0.0802647
-0.0363538
0.0930141
-0.0419516
0.106563
-0.0476709
0.120753
-0.0535533
0.135424
-0.0589319
-0.06581
0.150402
3.20122e-05
0.00106667
0.000201106
0.00248408
0.000579443
0.00329909
0.00123925
0.00355167
0.00225643
0.00327744
0.00371327
0.00250299
0.0056997
0.00124396
0.00831304
-0.000494398
0.0116563
-0.00271527
0.015833
-0.00542499
0.0209422
-0.00862974
0.0270702
-0.0123299
0.0342823
-0.0165159
0.0426146
-0.0211643
0.0520666
-0.0262361
0.0625965
-0.031676
0.0741185
-0.0374133
0.0865053
-0.0433654
0.099592
-0.0494406
0.113187
-0.0555464
0.127095
-0.0615787
0.141064
-0.0675231
0.155082
-0.0729497
-0.0791191
0.168391
4.21599e-05
0.000277976
0.000806747
0.00172435
0.00312981
0.00512842
0.00783143
0.0113533
0.0158051
0.021286
0.0278726
0.0356074
0.0444897
0.0544681
0.0654381
0.0772444
0.0896869
0.102533
0.11553
0.128427
0.140987
0.153002
0.164541
0.175138
-0.0343682
-0.0110947
0.0119584
-0.0351938
-0.0129205
0.0137461
-0.0359572
-0.0147827
0.0155462
-0.0366692
-0.0165663
0.0172782
-0.0373351
-0.0181839
0.0188498
-0.0379593
-0.0195215
0.0201457
-0.0385441
-0.0204442
0.021029
-0.0390895
-0.0207959
0.0213413
-0.0395911
-0.0204041
0.0209057
-0.0400385
-0.0190839
0.0195313
-0.040415
-0.0166453
0.0170218
-0.040697
-0.0129037
0.0131858
-0.0408485
-0.00770109
0.00785257
-0.0408134
-0.000887026
0.000851918
-0.0406882
0.00742577
-0.00755102
-0.0403809
0.0172894
-0.0175967
-0.039883
0.0284213
-0.0289192
-0.03917
0.0404019
-0.0411148
-0.038195
0.0526341
-0.0536091
-0.0368553
0.0643128
-0.0656526
-0.0349587
0.0744257
-0.0763224
-0.0321957
0.0817129
-0.0844759
-0.0281589
0.0847268
-0.0887635
-0.0224527
0.0820466
-0.0877528
-0.0149372
0.0727
-0.0802156
-0.00552888
0.0559488
-0.065357
0.00532852
0.0325909
-0.0434483
0.0171523
0.00413596
-0.0159598
0.0292497
-0.0264206
0.0143232
0.0406967
-0.0558101
0.044363
0.0506835
-0.0799609
0.0699742
0.0582695
-0.0966973
0.0891113
0.0628155
-0.105684
0.101138
0.0643504
-0.107976
0.106442
0.0640115
-0.105067
0.105406
0.0639829
-0.09721
0.0972386
0.0665013
-0.0836263
0.0811078
0.0725748
-0.0636211
0.0575476
0.081559
-0.0389226
0.0299385
0.0918207
-0.0127219
0.00246022
0.101722
0.010933
-0.020834
0.110155
0.0297205
-0.0381538
0.116654
0.0423005
-0.0488
0.121283
0.0492408
-0.0538692
0.124548
0.050744
-0.0540089
0.127119
0.0479882
-0.0505595
0.129705
0.0410892
-0.0436757
0.132647
0.0315046
-0.0344464
0.136044
0.019904
-0.0233005
0.139564
0.00839803
-0.0119184
0.14297
-0.00212119
-0.00128496
0.145912
-0.0101466
0.00720466
0.148424
-0.0154884
0.0129762
0.150497
-0.0178225
0.0157504
0.152397
-0.0172522
0.0153514
0.15419
-0.0141709
0.0123782
0.156065
-0.00920712
0.00733197
0.157833
-0.00247854
0.000711083
0.159693
0.00279701
-0.00465772
0.0115852
-0.0130475
-0.0319326
-0.0100499
-0.0329633
-0.0118899
-0.0339318
-0.0138142
-0.0348474
-0.0156507
-0.0357136
-0.0173176
-0.0365328
-0.0187023
-0.037303
-0.0196739
-0.0380242
-0.0200747
-0.03869
-0.0197383
-0.0392861
-0.0184879
-0.0397877
-0.0161438
-0.0401568
-0.0125346
-0.0403382
-0.00751966
-0.0402339
-0.000991363
-0.0399409
0.00713278
-0.0393048
0.0166534
-0.0382727
0.0273891
-0.0367612
0.0388904
-0.034676
0.050549
-0.0318695
0.0615063
-0.0281367
0.070693
-0.0232401
0.0768163
-0.0169601
0.0784468
-0.00902422
0.0741108
0.000376814
0.0632989
0.0106974
0.0456282
0.0220207
0.0212676
0.0337409
-0.00758422
0.0454793
-0.038159
0.0564625
-0.0667932
0.0659817
-0.0894801
0.0732665
-0.103982
0.0777102
-0.110128
0.0790261
-0.109292
0.0776425
-0.103683
0.0751169
-0.0946844
0.0737833
-0.0822927
0.0755167
-0.0653545
0.0806882
-0.0440941
0.088243
-0.0202768
0.0965755
0.0026005
0.104377
0.021919
0.110933
0.0357449
0.116145
0.0440281
0.120425
0.046464
0.124325
0.044089
0.128372
0.0370422
0.13268
0.0271967
0.137165
0.0154188
0.141398
0.004165
0.145148
-0.00587087
0.148112
-0.013111
0.150406
-0.0177824
0.152081
-0.0194971
0.153486
-0.0186574
0.154752
-0.015437
0.156144
-0.0105998
0.15754
-0.00387451
0.159131
0.00120643
0.0102042
-0.0243581
-0.00890686
-0.0255352
-0.0107128
-0.0266593
-0.0126901
-0.0277274
-0.0145826
-0.0287378
-0.0163072
-0.0296868
-0.0177533
-0.0305608
-0.0188
-0.0313547
-0.0192807
-0.0320584
-0.0190346
-0.0326548
-0.0178914
-0.033116
-0.0156826
-0.0333978
-0.0122528
-0.0334341
-0.00748333
-0.0330815
-0.00134398
-0.0324586
0.00650987
-0.0313264
0.0155212
-0.0296214
0.0256841
-0.0271993
0.0364683
-0.0239577
0.0473073
-0.0197649
0.0573135
-0.0144707
0.0653988
-0.00787702
0.0702226
5.5796e-05
0.070514
0.0088738
0.0652928
0.0187178
0.0534549
0.0292838
0.0350622
0.0402546
0.0102968
0.0512324
-0.018562
0.0620474
-0.048974
0.0720703
-0.0768161
0.0806665
-0.0980763
0.0872612
-0.110577
0.0914747
-0.114341
0.0930443
-0.110862
0.0919058
-0.102545
0.0887089
-0.0914875
0.0851598
-0.0787437
0.0833899
-0.0635846
0.0847116
-0.0454159
0.0890031
-0.0245683
0.0950817
-0.00347811
0.101702
0.015299
0.107985
0.0294618
0.113646
0.0383671
0.118896
0.0412138
0.124053
0.0389315
0.129388
0.031708
0.134779
0.0218054
0.140007
0.0101909
0.144619
-0.000446778
0.148436
-0.00968852
0.151239
-0.0159141
0.153213
-0.0197561
0.154452
-0.0207364
0.155349
-0.0195537
0.156078
-0.016166
0.156953
-0.0114756
0.15793
-0.00485142
0.159179
-4.26715e-05
0.00896304
-0.0115289
-0.00771069
-0.0128503
-0.0093914
-0.014156
-0.0113845
-0.015411
-0.0133276
-0.0166003
-0.0151179
-0.0177314
-0.0166222
-0.0187508
-0.0177806
-0.0196404
-0.0183912
-0.020377
-0.0182981
-0.0209358
-0.0173326
-0.0212844
-0.0153339
-0.0213778
-0.0121595
-0.0211539
-0.00770722
-0.020511
-0.00198689
-0.0194285
0.00542739
-0.0177157
0.0138083
-0.0153641
0.0233324
-0.0121228
0.0332271
-0.00791415
0.0430987
-0.00264826
0.0520476
0.00375742
0.0589931
0.0112061
0.0627739
0.0196179
0.0621022
0.0289286
0.0559821
0.038734
0.0436495
0.0487877
0.0250085
0.0588106
0.000273868
0.0686996
-0.028451
0.0782741
-0.0585485
0.0869951
-0.0855371
0.0942968
-0.105378
0.0997938
-0.116074
0.103381
-0.117928
0.105041
-0.112522
0.104633
-0.102137
0.102133
-0.0889878
0.0982769
-0.0748875
0.0947038
-0.0600115
0.0931269
-0.043839
0.0943261
-0.0257675
0.097916
-0.00706804
0.102949
0.0102661
0.108601
0.0238099
0.114413
0.032555
0.120341
0.0352859
0.126407
0.0328652
0.1326
0.0255153
0.138604
0.0158013
0.144123
0.00467141
0.14874
-0.00506332
0.152358
-0.013307
0.15485
-0.0184055
0.156449
-0.0213553
0.157274
-0.0215614
0.157716
-0.0199954
0.157969
-0.0164198
0.158364
-0.0118704
0.158933
-0.0054205
0.159818
-0.000927323
0.00789625
0.00670611
-0.00650285
0.00517434
-0.00785962
0.00358944
-0.00979956
0.00202046
-0.0117586
0.000450031
-0.0135475
-0.000998402
-0.0151738
-0.00233065
-0.0164484
-0.00349113
-0.0172307
-0.0044368
-0.0173524
-0.00512073
-0.0166487
-0.00549564
-0.014959
-0.00551029
-0.0121448
-0.00510454
-0.00811297
-0.00422199
-0.00286944
-0.00276984
0.00397523
-0.000723642
0.0117621
0.00252373
0.0200851
0.00660001
0.0291508
0.0115893
0.0381094
0.0174995
0.0461374
0.0243379
0.0521547
0.0321031
0.0550087
0.0406105
0.0535947
0.0496428
0.0469498
0.0588607
0.0344317
0.0680352
0.015834
0.0768743
-0.0085652
0.0855073
-0.037084
0.0936447
-0.0666859
0.100804
-0.092696
0.106525
-0.1111
0.110631
-0.12018
0.113255
-0.120551
0.114628
-0.113896
0.11478
-0.102289
0.113466
-0.0876738
0.110649
-0.0720701
0.107091
-0.0564531
0.104217
-0.0409658
0.103285
-0.0248346
0.104698
-0.00848171
0.108065
0.00689943
0.112803
0.0190714
0.118385
0.0269733
0.124532
0.0291393
0.13098
0.0264171
0.137469
0.0190262
0.143549
0.00972092
0.14891
-0.000689584
0.153195
-0.00934811
0.156403
-0.0165148
0.158487
-0.0204898
0.159707
-0.0225754
0.160185
-0.0220396
0.160277
-0.0200869
0.160173
-0.0163156
0.160184
-0.0118816
0.160412
-0.00564845
0.160963
-0.00147844
0.00700703
0.0301633
-0.0048982
0.028439
-0.00613534
0.0266307
-0.0079912
0.0247761
-0.00990401
0.0229079
-0.0116793
0.0210358
-0.0133017
0.0192399
-0.0146525
0.0175945
-0.0155852
0.0161802
-0.0159381
0.0150814
-0.0155499
0.014384
-0.0142616
0.0141707
-0.0119315
0.014516
-0.00845826
0.0154663
-0.00381975
0.0171905
0.00225099
0.0196968
0.0092559
0.0229705
0.0168114
0.0271921
0.0249292
0.0323593
0.0329422
0.0384582
0.0400385
0.0454153
0.0451975
0.0530933
0.0473308
0.0612787
0.0454093
0.0697059
0.0385226
0.0780861
0.0260515
0.0862001
0.00772
0.0938745
-0.0162396
0.101134
-0.0443435
0.107681
-0.0732333
0.113067
-0.0980815
0.117001
-0.115034
0.119549
-0.122729
0.121044
-0.122045
0.121863
-0.114715
0.122204
-0.10263
0.121902
-0.0873719
0.120589
-0.0707563
0.118264
-0.0541285
0.115676
-0.0383773
0.113981
-0.0231399
0.114048
-0.0085484
0.116057
0.00489044
0.1198
0.0153281
0.124823
0.0219502
0.130709
0.023253
0.136987
0.0201389
0.143221
0.0127925
0.148903
0.00403872
0.153735
-0.00552132
0.15745
-0.013063
0.160119
-0.0191841
0.161763
-0.022134
0.162642
-0.023454
0.162869
-0.0222662
0.16274
-0.0199589
0.162426
-0.0160011
0.162191
-0.0116469
0.162188
-0.00564522
0.162483
-0.00177332
0.00626465
0.0583183
-0.00278724
0.0562062
-0.00402333
0.0540418
-0.00582675
0.0517903
-0.00765246
0.0494767
-0.00936571
0.0471267
-0.0109517
0.044797
-0.0123228
0.0425594
-0.0133477
0.0405042
-0.0138828
0.0387375
-0.0137832
0.0373749
-0.0128991
0.036532
-0.0110886
0.036313
-0.00823929
0.0367942
-0.00430092
0.0381741
0.000871079
0.040397
0.00703306
0.0435508
0.0136575
0.0476928
0.0207872
0.0528055
0.0278295
0.0588252
0.0340187
0.0656171
0.0384056
0.0729728
0.0399751
0.0806378
0.0377444
0.0883352
0.0308252
0.0958069
0.0185798
0.10287
0.000656755
0.109362
-0.0227318
0.11518
-0.0501616
0.119987
-0.0780396
0.123426
-0.101521
0.125454
-0.117061
0.126395
-0.12367
0.126742
-0.122392
0.126925
-0.114898
0.127195
-0.102901
0.127513
-0.0876901
0.127512
-0.0707552
0.126809
-0.0534259
0.125501
-0.0370692
0.124278
-0.021917
0.124032
-0.00830188
0.125291
0.00363148
0.128211
0.0124081
0.132521
0.0176402
0.137793
0.0179805
0.143467
0.0144652
0.149024
0.00723556
0.15398
-0.000917274
0.158052
-0.0095931
0.161078
-0.0160894
0.163173
-0.0212789
0.164403
-0.023364
0.165008
-0.0240592
0.165088
-0.0223463
0.164874
-0.019744
0.1645
-0.0156275
0.164173
-0.0113196
0.164071
-0.00554315
0.164221
-0.00192344
0.00560976
0.0893216
-7.32862e-05
0.0867378
-0.0014395
0.0840974
-0.00318639
0.0813395
-0.00489457
0.0785228
-0.00654892
0.0756741
-0.00810297
0.072821
-0.00946972
0.0700105
-0.0105372
0.0673121
-0.0111844
0.064825
-0.0112961
0.0626691
-0.0107433
0.0609786
-0.00939808
0.0598904
-0.00715102
0.0595136
-0.00392411
0.0600467
0.000337919
0.0615212
0.00555863
0.0640504
0.0111283
0.067663
0.0171746
0.0723172
0.0231754
0.0779008
0.0284352
0.0842285
0.0320778
0.0910495
0.0331541
0.0980739
0.0307199
0.105009
0.0238905
0.111576
0.0120125
0.117701
-0.00546818
0.123035
-0.0280657
0.127348
-0.0544751
0.13026
-0.0809515
0.13163
-0.102891
0.131735
-0.117166
0.131136
-0.123071
0.130419
-0.121675
0.129997
-0.114475
0.130088
-0.102992
0.130709
-0.0883117
0.131608
-0.0716536
0.132331
-0.0541489
0.132588
-0.0373262
0.132554
-0.0218836
0.132841
-0.00858828
0.134028
0.00244425
0.136483
0.00995276
0.140136
0.0139878
0.144647
0.0134688
0.149484
0.00962885
0.154151
0.00256811
0.158217
-0.00498312
0.161461
-0.0128369
0.163798
-0.0184265
0.165364
-0.0228456
0.166253
-0.0242525
0.166672
-0.0244783
0.166707
-0.0223815
0.166525
-0.0195614
0.166226
-0.0153294
0.165953
-0.0110459
0.165886
-0.00547664
0.166019
-0.0020558
0.00496308
0.120076
0.0033449
0.116835
0.00180161
0.113853
-0.000205091
0.110651
-0.00169196
0.107388
-0.00328603
0.104063
-0.00477832
0.100728
-0.00613458
0.0974361
-0.00724525
0.0942376
-0.00798597
0.0912078
-0.00826632
0.0884401
-0.00797553
0.0860516
-0.00700958
0.0841777
-0.00527715
0.0829609
-0.00270723
0.0824709
0.000827847
0.0829487
0.00508084
0.084491
0.00958601
0.0871616
0.014504
0.090937
0.0194
0.095696
0.0236762
0.101232
0.0265416
0.107271
0.0271148
0.113496
0.0244949
0.119592
0.0177948
0.125227
0.00637719
0.130338
-0.0105792
0.134468
-0.0321955
0.1372
-0.0572068
0.138175
-0.0819263
0.137492
-0.102208
0.135784
-0.115458
0.133822
-0.121109
0.132205
-0.120058
0.131276
-0.113546
0.131178
-0.102894
0.131919
-0.0890531
0.133341
-0.0730754
0.135072
-0.0558794
0.136692
-0.0389471
0.138025
-0.0232161
0.139294
-0.00985776
0.140929
0.000810121
0.143318
0.00756375
0.146519
0.0107865
0.150324
0.00966407
0.154297
0.005656
0.158068
-0.00120298
0.161252
-0.0081672
0.16373
-0.0153149
0.165471
-0.0201675
0.166615
-0.0239899
0.167265
-0.0249028
0.167594
-0.024807
0.167675
-0.0224627
0.167622
-0.0195079
0.167506
-0.0152135
0.167409
-0.0109491
0.167498
-0.00556596
0.167738
-0.00229508
0.00423632
0.146836
0.00691093
0.143328
0.00530906
0.139459
0.00366357
0.135751
0.00201623
0.132382
8.29538e-05
0.128894
-0.00128982
0.125385
-0.00262619
0.121869
-0.00372887
0.118407
-0.00452365
0.115097
-0.00495693
0.112022
-0.0049001
0.109268
-0.00425625
0.106932
-0.00294069
0.105188
-0.000962801
0.104
0.00201513
0.1037
0.00538106
0.104318
0.00896817
0.105961
0.0128611
0.108655
0.0167061
0.112324
0.0200066
0.116795
0.0220709
0.121806
0.022104
0.127029
0.0192721
0.132172
0.0126519
0.136822
0.00172711
0.140743
-0.0145006
0.143438
-0.0348899
0.144393
-0.0581624
0.14339
-0.0809228
0.140819
-0.0996369
0.13756
-0.1122
0.134507
-0.118055
0.132207
-0.117758
0.130908
-0.112248
0.13067
-0.102656
0.131462
-0.0898445
0.133169
-0.0747823
0.135521
-0.0582316
0.138122
-0.0415486
0.140636
-0.0257294
0.142989
-0.0122115
0.145318
-0.00151838
0.147941
0.00494092
0.150944
0.00778312
0.154222
0.00638648
0.157481
0.00239675
0.160469
-0.00419081
0.16292
-0.0106185
0.164785
-0.0171798
0.166082
-0.0214644
0.166943
-0.0248505
0.167471
-0.0254316
0.167805
-0.0251404
0.16801
-0.0226674
0.168159
-0.0196571
0.168302
-0.0153567
0.168475
-0.0111225
0.168816
-0.00590702
0.169272
-0.00275093
0.00334298
0.165134
0.0101686
0.161732
0.0087109
0.158084
0.00731111
0.154406
0.00569479
0.150523
0.00396575
0.146851
0.00238177
0.143329
0.000896312
0.140012
-0.00041203
0.136705
-0.00121694
0.133529
-0.00178017
0.130555
-0.00192682
0.127888
-0.00158899
0.125691
-0.000744131
0.12379
0.000938612
0.122489
0.00331573
0.121817
0.00605367
0.121926
0.00885874
0.122891
0.0118959
0.124736
0.0148617
0.127414
0.0173279
0.130804
0.0186814
0.134699
0.0182086
0.138793
0.0151783
0.142682
0.00876344
0.14619
-0.00178139
0.148757
-0.0170674
0.149783
-0.0359162
0.148859
-0.0572382
0.146013
-0.0780766
0.1419
-0.0955244
0.137475
-0.107774
0.133607
-0.114188
0.130806
-0.114957
0.129228
-0.11067
0.128869
-0.102297
0.129662
-0.090637
0.131501
-0.076622
0.13419
-0.0609202
0.137405
-0.0447636
0.140766
-0.0290901
0.144026
-0.0154719
0.147149
-0.00464163
0.150143
0.00194677
0.153161
0.00476546
0.156121
0.00342676
0.158893
-0.000375734
0.161302
-0.00659905
0.163227
-0.0125436
0.164675
-0.0186284
0.165703
-0.0224919
0.166427
-0.0255748
0.16695
-0.0259547
0.167376
-0.0255669
0.167769
-0.0230598
0.168175
-0.0200628
0.168627
-0.0158093
0.169134
-0.0116297
0.169797
-0.00656916
0.170555
-0.00350965
0.00220594
0.17296
0.0123469
0.17019
0.0114809
0.167242
0.0102589
0.164142
0.00879481
0.16093
0.00717774
0.157726
0.00558673
0.154503
0.00411874
0.151245
0.0028465
0.148216
0.0018119
0.145378
0.00105777
0.14276
0.000691193
0.140377
0.000793607
0.138242
0.00139138
0.136622
0.00255788
0.135607
0.00433079
0.135211
0.00645041
0.135329
0.00873985
0.136059
0.0111664
0.13745
0.0134704
0.139479
0.0152992
0.142037
0.0161233
0.144941
0.0153043
0.147947
0.0121721
0.150742
0.00596875
0.15289
-0.00392913
0.153734
-0.0179111
0.153047
-0.0352293
0.150501
-0.0546924
0.146394
-0.0739697
0.141478
-0.0906087
0.136589
-0.102885
0.13235
-0.109949
0.129159
-0.111766
0.127234
-0.108744
0.126624
-0.101687
0.127255
-0.091268
0.129023
-0.0783896
0.131768
-0.0636653
0.13524
-0.048236
0.139085
-0.0329352
0.142971
-0.0193576
0.146686
-0.0083566
0.150114
-0.00148105
0.153258
0.00162097
0.156111
0.000573797
0.158609
-0.00287356
0.160666
-0.00865614
0.162287
-0.0141641
0.163523
-0.0198642
0.164453
-0.0234222
0.165181
-0.0263025
0.165803
-0.0265772
0.166401
-0.0261642
0.167033
-0.0236918
0.167734
-0.0207638
0.168526
-0.0166017
0.169406
-0.0125096
0.170434
-0.00759691
0.171557
-0.00463277
0.000762802
0.191416
0.0142132
-0.193283
0.189976
0.0129212
0.188405
0.0118301
0.186687
0.0105128
0.184806
0.00905883
0.182759
0.00763316
0.180558
0.00632039
0.178244
0.00515995
0.175849
0.00420765
0.173372
0.0035347
0.170857
0.00320571
0.168372
0.00327881
0.165974
0.00378883
0.163756
0.00477671
0.161848
0.00623818
0.160301
0.00799733
0.159163
0.00987792
0.158581
0.0117483
0.15869
0.0133612
0.159616
0.0143742
0.16143
0.0143084
0.164134
0.0126007
0.167634
0.00867247
0.171643
0.00195908
0.175784
-0.00807027
0.179374
-0.0215003
0.181788
-0.0376439
0.182409
-0.0553132
0.181034
-0.0725952
0.177892
-0.087466
0.173473
-0.0984669
0.16835
-0.104826
0.163079
-0.106495
0.158122
-0.103787
0.153824
-0.0973894
0.150419
-0.0878628
0.148052
-0.076023
0.146793
-0.0624067
0.146615
-0.048057
0.14737
-0.033691
0.148845
-0.0208321
0.150794
-0.0103055
0.15298
-0.00366744
0.155194
-0.000592635
0.157253
-0.00148497
0.15897
-0.00459096
0.160205
-0.00989171
0.160919
-0.014878
0.161143
-0.0200875
0.160966
-0.0232454
0.160506
-0.0258423
0.159885
-0.025957
0.159213
-0.0254915
0.158569
-0.0230476
0.158015
-0.0202098
0.157576
-0.0161632
0.157262
-0.0121959
0.157099
-0.00743355
0.157037
-0.00457056
0.00058141
0.203872
0.0149669
-0.204625
0.203023
0.0137695
0.202156
0.0126973
0.201095
0.0115743
0.199796
0.010358
0.198298
0.00913026
0.196643
0.00797625
0.194851
0.00695114