/*--------------------------------*- C++ -*----------------------------------*\
| =========                 |                                                 |
| \\      /  F ield         | OpenFOAM: The Open Source CFD Toolbox           |
|  \\    /   O peration     | Version:  2512                                  |
|   \\  /    A nd           | Website:  www.openfoam.com                      |
|    \\/     M anipulation  |                                                 |
\*---------------------------------------------------------------------------*/
FoamFile
{
    version     2.0;
    format      ascii;
    arch        "LSB;label=32;scalar=64";
    class       surfaceScalarField;
    location    "164";
    object      phi;
}
// * * * * * * * * * * * * * * * * * * * * * * * * * * * * * * * * * * * * * //

dimensions      [0 3 -1 0 0 0 0];

oriented        oriented;

internalField   nonuniform List<scalar> 
26232
(
0.000200055
0.000888269
-0.00108832
0.000908174
0.00137369
-0.00208181
0.00224003
0.000683978
-0.00201583
0.00431909
-0.00113237
-0.000946698
0.00727898
-0.00403567
0.00107578
0.0112543
-0.00798939
0.00401408
0.0163627
-0.0129481
0.00783976
0.0226811
-0.018841
0.0125226
0.0302209
-0.0255557
0.0180159
0.0389086
-0.0329294
0.0242418
0.0485769
-0.0407501
0.0310818
0.0589725
-0.0487701
0.0383746
0.0697771
-0.0567275
0.0459228
0.080642
-0.064372
0.0535072
0.0912267
-0.0714905
0.0609058
0.101238
-0.0779256
0.0679147
0.110458
-0.0835871
0.0743663
0.118769
-0.0884536
0.0801435
0.126148
-0.0925638
0.0851848
0.132662
-0.0960066
0.0894922
0.138439
-0.0988787
0.0931017
0.143633
-0.101343
0.0961489
0.148231
-0.103314
0.0987165
-0.105306
0.101232
0.152305
0.000226688
0.000661581
0.00107601
0.000524369
0.00270998
-0.000949986
0.00528549
-0.00370788
0.00895394
-0.00770412
0.0138436
-0.012879
0.0200318
-0.0191364
0.0275157
-0.0263248
0.0361885
-0.0342286
0.0458334
-0.0425743
0.0561368
-0.0510536
0.0667219
-0.0593552
0.0771947
-0.0672002
0.0871933
-0.0743707
0.0964318
-0.080729
0.104729
-0.0862232
0.112022
-0.0908801
0.118357
-0.0947878
0.123866
-0.0980735
0.128739
-0.10088
0.133201
-0.10334
0.137447
-0.10559
0.141782
-0.107649
-0.109902
0.146378
0.000278335
0.000383246
0.00132559
-0.000522882
0.00334143
-0.00296583
0.00650529
-0.00687174
0.0109652
-0.012164
0.0168076
-0.0187214
0.024022
-0.0263508
0.0324738
-0.0347766
0.0418992
-0.043654
0.0519274
-0.0526025
0.0621276
-0.0612538
0.0720695
-0.0692971
0.0813826
-0.0765133
0.0898029
-0.082791
0.0971968
-0.0881229
0.103561
-0.0925878
0.109003
-0.0963217
0.113702
-0.099487
0.117874
-0.102245
0.121733
-0.104739
0.12547
-0.107077
0.129231
-0.109351
0.133151
-0.111569
-0.113967
0.137216
0.000359476
2.37698e-05
0.00166821
-0.00183162
0.00414614
-0.00544376
0.00797157
-0.0106972
0.013253
-0.0174455
0.0199872
-0.0254556
0.0280255
-0.0343891
0.037068
-0.0438191
0.046694
-0.05328
0.0564243
-0.0623328
0.0657973
-0.0706268
0.0744386
-0.0779384
0.0821083
-0.084183
0.0887165
-0.0893992
0.0943105
-0.0937169
0.0990383
-0.0973157
0.103104
-0.100387
0.106723
-0.103107
0.110094
-0.105616
0.113375
-0.10802
0.116688
-0.11039
0.120115
-0.112778
0.123731
-0.115185
-0.117781
0.127544
0.00046814
-0.00044437
0.00209414
-0.00345761
0.00509238
-0.00844201
0.00960492
-0.0152097
0.0156541
-0.0234946
0.0230976
-0.0328992
0.0316166
-0.042908
0.0407502
-0.0529528
0.0499739
-0.0625036
0.0587925
-0.0711515
0.0668222
-0.0786565
0.0738381
-0.0849544
0.0797822
-0.0901271
0.0847361
-0.0943531
0.0888731
-0.0978539
0.0924063
-0.100849
0.0955449
-0.103526
0.0984673
-0.106029
0.10131
-0.108459
0.104172
-0.110881
0.107117
-0.113335
0.110187
-0.115848
0.113421
-0.118419
-0.121149
0.116789
0.00059877
-0.00104314
0.00257933
-0.00543817
0.00611795
-0.0119806
0.0112769
-0.0203686
0.017944
-0.0301617
0.025804
-0.0407592
0.0343704
-0.0514744
0.0430751
-0.0616574
0.0513818
-0.0708103
0.0588835
-0.0786532
0.0653549
-0.0851279
0.0707531
-0.0903526
0.0751794
-0.0945534
0.0788214
-0.097995
0.0818951
-0.100928
0.0846025
-0.103556
0.0871085
-0.106032
0.0895346
-0.108455
0.0919642
-0.110888
0.0944523
-0.113369
0.0970342
-0.115917
0.0997313
-0.118545
0.102566
-0.121254
-0.124098
0.105515
0.000743707
-0.00178685
0.0030916
-0.00778607
0.00714363
-0.0160327
0.0128365
-0.0260615
0.0198864
-0.0372115
0.0278014
-0.0486742
0.0359743
-0.0596474
0.0438172
-0.0695003
0.0508805
-0.0778736
0.0569161
-0.0846888
0.0618774
-0.0900891
0.0658715
-0.0943467
0.0690924
-0.0977743
0.071758
-0.100661
0.0740661
-0.103236
0.0761735
-0.105664
0.0781927
-0.108051
0.0801984
-0.110461
0.0822384
-0.112929
0.0843429
-0.115473
0.0865308
-0.118105
0.0888131
-0.120827
0.0912011
-0.123642
-0.12657
0.093673
0.000894435
-0.00268128
0.00359477
-0.0104864
0.0080841
-0.020522
0.0141345
-0.0321119
0.0212771
-0.0443541
0.028878
-0.0562751
0.0362883
-0.0670578
0.0429924
-0.0762044
0.0486929
-0.083574
0.0533166
-0.0893125
0.0569622
-0.0937348
0.0598243
-0.0972087
0.0621228
-0.100073
0.0640564
-0.102594
0.0657794
-0.104959
0.0674006
-0.107285
0.0689902
-0.109641
0.0705921
-0.112063
0.0722333
-0.11457
0.0739308
-0.117171
0.0756956
-0.11987
0.0775349
-0.122667
0.0794552
-0.125562
-0.128557
0.0814422
0.00104158
-0.00372287
0.00405097
-0.0134958
0.00885693
-0.0253279
0.0150441
-0.0382991
0.0219771
-0.051287
0.0289456
-0.0632437
0.0353453
-0.0734574
0.0407979
-0.081657
0.0451761
-0.0879522
0.0485524
-0.0926889
0.0511147
-0.096297
0.0530858
-0.0991798
0.054669
-0.101656
0.0560224
-0.103947
0.0572553
-0.106192
0.0584374
-0.108467
0.0596106
-0.110814
0.0608004
-0.113252
0.0620223
-0.115792
0.0632869
-0.118435
0.064601
-0.121184
0.0659696
-0.124035
0.0673956
-0.126988
-0.130033
0.0688711
0.00117486
-0.00489773
0.00442312
-0.0167441
0.00939136
-0.0302962
0.0154777
-0.0443855
0.0219279
-0.0577372
0.0280339
-0.0693496
0.0333028
-0.0787264
0.0375189
-0.0858731
0.0407042
-0.0911375
0.0430277
-0.0950125
0.0447133
-0.0979826
0.0459727
-0.100439
0.0469726
-0.102656
0.0478284
-0.104803
0.0486124
-0.106976
0.0493673
-0.109222
0.0501177
-0.111564
0.0508789
-0.114014
0.0516607
-0.116573
0.05247
-0.119245
0.0533114
-0.122025
0.0541884
-0.124912
0.0551025
-0.127902
-0.130982
0.0560519
0.00128427
-0.006182
0.00467966
-0.0201394
0.00963755
-0.0352541
0.0153959
-0.0501438
0.0211477
-0.0634891
0.0262573
-0.0744592
0.0303793
-0.0828484
0.033451
-0.0889448
0.0356027
-0.0932892
0.0370519
-0.0964616
0.03802
-0.0989508
0.0386875
-0.101107
0.0391807
-0.103149
0.0395787
-0.105201
0.0399273
-0.107324
0.0402522
-0.109547
0.0405682
-0.11188
0.0408851
-0.11433
0.0412095
-0.116898
0.0415463
-0.119582
0.0418988
-0.122378
0.0422688
-0.125282
0.0426561
-0.128289
-0.131388
0.043062
0.00136403
-0.00754603
0.00480123
-0.0235766
0.00957344
-0.0400263
0.0148076
-0.0553779
0.0197148
-0.0683963
0.0237796
-0.078524
0.0268091
-0.0858779
0.0288622
-0.0909979
0.030134
-0.0945609
0.0308522
-0.0971798
0.0312143
-0.0993129
0.0313632
-0.101256
0.0313895
-0.103176
0.0313453
-0.105157
0.0312589
-0.107238
0.0311457
-0.109434
0.0310151
-0.11175
0.0308736
-0.114189
0.0307264
-0.116751
0.0305773
-0.119432
0.0304293
-0.12223
0.0302835
-0.125137
0.0301389
-0.128145
0.0299983
-0.131248
-0.000333353
0.000519261
-0.000185908
-0.00113358
0.000570724
0.000229507
-0.00228841
-9.05543e-06
0.00116388
-0.00372283
-0.000972479
0.0024069
-0.0053834
-0.00214702
0.00380759
-0.00722939
-0.00343465
0.00528064
-0.00922725
-0.00479994
0.00679779
-0.0113472
-0.0062514
0.0083714
-0.0135617
-0.00782103
0.0100355
-0.015844
-0.00954705
0.0118293
-0.0181668
-0.0114623
0.0137851
-0.0205011
-0.0135883
0.0159226
-0.022814
-0.0159335
0.0182464
-0.0250672
-0.0184924
0.0207457
-0.0272159
-0.0212451
0.0233938
-0.0292074
-0.024156
0.0261475
-0.0309815
-0.0271715
0.0289456
-0.0324708
-0.0302177
0.0317071
-0.0336027
-0.0331986
0.0343305
-0.0343023
-0.0359968
0.0366963
-0.034496
-0.0384775
0.0386712
-0.0341172
-0.0404903
0.0401115
-0.0331249
-0.0418601
0.0408678
-0.0424239
-0.0315332
0.0408323
-0.00035128
0.00087054
-0.00120254
0.00142198
-0.00243706
0.00122547
-0.00397327
0.000563731
-0.00575127
-0.000369022
-0.00772586
-0.00146005
-0.00986258
-0.00266322
-0.0121341
-0.00397985
-0.0145183
-0.00543686
-0.0169958
-0.00706955
-0.0195481
-0.00891001
-0.0221554
-0.010981
-0.0247951
-0.0132938
-0.0274401
-0.0158474
-0.0300578
-0.0186275
-0.0326091
-0.0216047
-0.0350484
-0.0247323
-0.0373228
-0.0279433
-0.0393734
-0.031148
-0.0411384
-0.0342318
-0.0425576
-0.0370583
-0.0435746
-0.0394733
-0.0441394
-0.0412953
-0.0423224
-0.044241
-0.00033472
0.00120526
-0.00116055
0.00224781
-0.00236871
0.00243363
-0.00387715
0.00207218
-0.00562139
0.00137521
-0.00755125
0.000469817
-0.0096296
-0.000584875
-0.0118274
-0.00178207
-0.0141235
-0.00314077
-0.0165007
-0.00469235
-0.0189434
-0.00646723
-0.021436
-0.00848848
-0.0239607
-0.0107691
-0.0264972
-0.0133109
-0.0290218
-0.0161029
-0.0315067
-0.0191197
-0.0339195
-0.0223195
-0.0362218
-0.025641
-0.0383688
-0.029001
-0.0403105
-0.0322901
-0.0419981
-0.0353706
-0.0433874
-0.0380841
-0.0444225
-0.0402602
-0.0416613
-0.0450836
-0.000284254
0.00148951
-0.0010083
0.00297185
-0.0020836
0.00350893
-0.00343368
0.00342226
-0.0049923
0.00293383
-0.00670489
0.0021824
-0.0085267
0.00123694
-0.0104228
0.000113987
-0.0123684
-0.00119514
-0.0143421
-0.00271862
-0.0163239
-0.00448549
-0.0182944
-0.00651797
-0.0202338
-0.00882971
-0.0221213
-0.0114234
-0.0239355
-0.0142887
-0.0256545
-0.0174007
-0.0272564
-0.0207176
-0.0287178
-0.0241797
-0.0300113
-0.0277074
-0.0311033
-0.0311982
-0.0319552
-0.0345187
-0.0325339
-0.0375053
-0.0327953
-0.0399988
-0.0418412
-0.0326154
-0.000206744
0.00169626
-0.00076455
0.00352966
-0.00161409
0.00435847
-0.00268981
0.00449797
-0.00392601
0.00417004
-0.00526245
0.00351883
-0.00664706
0.00262155
-0.00803775
0.00150468
-0.00938782
0.000154923
-0.0106796
-0.00142687
-0.0118751
-0.00328994
-0.0129455
-0.00544754
-0.0138615
-0.00791379
-0.014594
-0.0106909
-0.0151162
-0.0137665
-0.0154053
-0.0171117
-0.0154437
-0.0206792
-0.0152204
-0.0244029
-0.0147297
-0.0281982
-0.013965
-0.0319628
-0.012912
-0.0355717
-0.0115463
-0.038871
-0.00987347
-0.0416716
-0.0438283
-0.00788636
-0.000113615
0.00180987
-0.000462068
0.00387811
-0.00101836
0.00491476
-0.00173079
0.0052104
-0.00253622
0.00497548
-0.00336939
0.004352
-0.00416835
0.00342051
-0.0048765
0.00221283
-0.00544791
0.000726328
-0.00582538
-0.0010494
-0.00596944
-0.00314588
-0.00583495
-0.00558203
-0.00537837
-0.00837038
-0.00455814
-0.0115111
-0.00333779
-0.0149868
-0.00168845
-0.018761
0.000408388
-0.022776
0.00295808
-0.0269526
0.00595187
-0.031192
0.00936709
-0.035378
0.0131822
-0.0393868
0.0173958
-0.0430847
0.0219811
-0.0462569
-0.0488656
0.0270184
-1.85853e-05
0.00182846
-0.000141367
0.00400089
-0.000369934
0.00514333
-0.00066611
0.00550657
-0.000970247
0.00527962
-0.00121302
0.00459477
-0.00132292
0.00353042
-0.00123032
0.00212022
-0.000869453
0.00036546
-0.000173528
-0.00174533
0.000918332
-0.00423774
0.00246594
-0.00712964
0.00452574
-0.0104302
0.00714693
-0.0141323
0.0103698
-0.0182097
0.0142216
-0.0226128
0.018713
-0.0272674
0.0238369
-0.0320765
0.0295682
-0.0369233
0.0358681
-0.041678
0.0426841
-0.0462028
0.0499831
-0.0503837
0.0576992
-0.053973
-0.057328
0.0661616
6.53662e-05
0.00176309
0.000157551
0.00390871
0.000256878
0.005044
0.000392001
0.00537145
0.000620087
0.00505153
0.00101438
0.00420048
0.00165571
0.00288909
0.00262724
0.00114869
0.00401045
-0.00101775
0.00588803
-0.00362291
0.00833546
-0.00668517
0.0114231
-0.0102173
0.0152113
-0.0142184
0.0197466
-0.0186676
0.025056
-0.0235191
0.0311433
-0.0287
0.0379867
-0.0341108
0.0455397
-0.0396294
0.0537344
-0.045118
0.0624891
-0.0504327
0.0717168
-0.0554304
0.0813433
-0.0600103
0.0912978
-0.0639275
-0.0678061
0.101776
0.000128632
0.00163446
0.000404062
0.00363328
0.000803576
0.00464449
0.00135374
0.00482129
0.00211272
0.00429255
0.00315913
0.00315407
0.00458349
0.00146473
0.00648186
-0.000749683
0.00895102
-0.00348691
0.0120842
-0.00675612
0.0159657
-0.0105666
0.020665
-0.0149166
0.0262303
-0.0197837
0.0326816
-0.0251189
0.0400052
-0.0308427
0.048151
-0.0368458
0.0570338
-0.0429936
0.0665388
-0.0491344
0.0765317
-0.0551109
0.0868697
-0.0607706
0.0974236
-0.0659844
0.10807
-0.0706566
0.11876
-0.074618
-0.0784619
0.129416
0.000167623
0.00146684
0.00058496
0.00321594
0.00124294
0.0039865
0.00217604
0.0038882
0.0034496
0.00301899
0.00515118
0.0014525
0.00738251
-0.000766602
0.0102519
-0.00361908
0.0138657
-0.00710074
0.0183204
-0.0112108
0.0236923
-0.0159385
0.0300274
-0.0212517
0.0373321
-0.0270883
0.0455657
-0.0333525
0.0546385
-0.0399155
0.0644145
-0.0466219
0.0747213
-0.0533004
0.0853645
-0.0597776
0.096146
-0.0658924
0.106882
-0.0715071
0.117425
-0.0765271
0.127649
-0.0808804
0.137567
-0.0845363
-0.0878146
0.14692
0.000185634
0.0012812
0.000708371
0.0026932
0.00158836
0.00310651
0.00287874
0.00259782
0.00465979
0.00123794
0.00703277
-0.000920485
0.0101117
-0.00384556
0.0140119
-0.00751927
0.0188379
-0.0119267
0.0246687
-0.0170416
0.0315428
-0.0228126
0.0394458
-0.0291547
0.0483017
-0.0359443
0.0579723
-0.0430231
0.0682638
-0.050207
0.0789423
-0.0573004
0.0897547
-0.0641129
0.100454
-0.0704771
0.110823
-0.0762612
0.120699
-0.0813831
0.12998
-0.0858081
0.138648
-0.0895483
0.146762
-0.0926502
-0.0951467
0.154094
0.00019288
0.00080427
0.00189495
0.00354607
0.0058598
0.00895339
0.0129476
0.0179509
0.02404
0.0312402
0.0395094
0.0487293
0.0587078
0.0691919
0.0798907
0.0905051
0.100758
0.110425
0.119348
0.127458
0.134751
0.141352
0.147418
0.153503
-0.0266002
-0.0585543
0.0536212
-0.020435
-0.055144
0.0489787
-0.0131271
-0.0484977
0.0411898
-0.00478203
-0.0384223
0.0300773
0.00450481
-0.0248041
0.0155172
0.0144498
-0.0077626
-0.00218242
0.0246924
0.012582
-0.0228245
0.0350761
0.0352779
-0.0456616
0.0453448
0.0591354
-0.0694042
0.0553043
0.0822894
-0.0922489
0.0644244
0.103122
-0.112242
0.0719904
0.12025
-0.127816
0.0771935
0.133194
-0.138397
0.0793347
0.142767
-0.144908
0.0784584
0.150431
-0.149555
0.0760968
0.156303
-0.153942
0.0751239
0.157135
-0.156162
0.0782281
0.146874
-0.149979
0.0861521
0.12032
-0.128244
0.097581
0.0767134
-0.0881423
0.110582
0.01997
-0.0329712
0.123499
-0.0414535
0.0285371
0.134813
-0.0974722
0.0861583
0.143296
-0.139082
0.130598
0.148324
-0.163863
0.158836
0.150274
-0.17524
0.17329
0.150077
-0.17809
0.178288
0.147824
-0.177147
0.1794
0.142614
-0.179206
0.184417
0.134624
-0.187895
0.195885
0.126677
-0.193737
0.201684
0.122662
-0.176021
0.180036
0.124487
-0.12009
0.118265
0.131171
-0.0354882
0.0288038
0.139854
0.0552011
-0.0638833
0.148204
0.127318
-0.135669
0.154661
0.174007
-0.180463
0.157819
0.198386
-0.201545
0.156196
0.218841
-0.217218
0.149912
0.240977
-0.234692
0.141978
0.250325
-0.242391
0.136638
0.222703
-0.217364
0.136282
0.137728
-0.137372
0.140794
0.0287212
-0.0332326
0.147526
-0.0879464
0.0812139
0.152937
-0.159083
0.153672
0.153207
-0.212933
0.212663
0.147947
-0.243456
0.248716
0.140996
-0.257631
0.264581
0.137738
-0.243184
0.246442
0.140104
-0.135443
0.133077
0.14535
-0.0484038
0.0431568
0.147895
0.107155
-0.109699
0.14636
0.18973
-0.188195
0.143563
0.275013
-0.272216
0.142371
0.321027
-0.319835
0.142838
0.183261
-0.183728
0.143148
0.155778
-0.156088
0.141635
-0.11725
0.118763
-0.221701
0.223621
-0.041534
-0.0612612
-0.0373084
-0.0593696
-0.0315566
-0.0542496
-0.0242224
-0.0457565
-0.0154315
-0.033595
-0.00539011
-0.017804
0.00605487
0.00113703
0.0182614
0.0230713
0.0303223
0.0470746
0.0422071
0.0704046
0.0532196
0.0921095
0.0625903
0.110879
0.0695425
0.126242
0.0737035
0.138606
0.0756972
0.148438
0.0773934
0.154607
0.0811902
0.153338
0.0885499
0.139515
0.0990175
0.109852
0.110928
0.0648025
0.122895
0.00800334
0.133663
-0.0522218
0.142315
-0.106124
0.148058
-0.144825
0.150645
-0.16645
0.150559
-0.175154
0.148783
-0.176315
0.145546
-0.17391
0.139769
-0.173429
0.131122
-0.179248
0.122191
-0.184806
0.117343
-0.171172
0.119056
-0.121803
0.126479
-0.0429114
0.13655
0.0451309
0.146588
0.11728
0.154671
0.165924
0.159098
0.193959
0.158451
0.219488
0.153042
0.246385
0.145883
0.257484
0.140799
0.227788
0.139866
0.13866
0.143156
0.0254313
0.148504
-0.0932944
0.15301
-0.163589
0.152818
-0.212741
0.147362
-0.238
0.140266
-0.250535
0.137141
-0.240059
0.139683
-0.137984
0.145036
-0.0537563
0.147689
0.104501
0.146248
0.191171
0.143637
0.277624
0.142508
0.322155
0.14326
0.182509
0.14388
0.155158
0.142457
-0.115827
-0.219799
-0.0451537
-0.0611911
-0.0437619
-0.0607614
-0.0406491
-0.0573624
-0.0356036
-0.050802
-0.0285386
-0.04066
-0.019504
-0.0268386
-0.00873542
-0.00963159
0.003517
0.0108189
0.0168496
0.0337419
0.0301441
0.0571101
0.0427962
0.0794574
0.0540138
0.0996616
0.0631519
0.117104
0.0701528
0.131605
0.0759103
0.14268
0.0821048
0.148413
0.0903362
0.145107
0.100981
0.12887
0.112869
0.0979641
0.124491
0.0531805
0.134727
-0.00223268
0.143202
-0.0606964
0.149126
-0.112048
0.152157
-0.147856
0.152432
-0.166725
0.150527
-0.173249
0.147377
-0.173164
0.143347
-0.16988
0.137319
-0.167401
0.128402
-0.170331
0.118687
-0.175091
0.112835
-0.16532
0.114108
-0.123076
0.121947
-0.0507505
0.133173
0.0339049
0.14478
0.105672
0.154458
0.156246
0.160233
0.188184
0.160761
0.21896
0.156444
0.250703
0.150149
0.263779
0.145283
0.232654
0.143696
0.140248
0.145659
0.0234674
0.149528
-0.0971628
0.153093
-0.167154
0.152499
-0.212147
0.146929
-0.23243
0.139714
-0.24332
0.136668
-0.237013
0.139331
-0.140648
0.144802
-0.0592271
0.147606
0.101697
0.146253
0.192524
0.14379
0.280087
0.142732
0.323213
0.143809
0.181432
0.144783
0.154183
0.143459
-0.114502
-0.217914
-0.0355179
-0.0582886
-0.0373435
-0.0589359
-0.0375437
-0.0571622
-0.0357548
-0.0525909
-0.0317089
-0.0447059
-0.0251833
-0.0333641
-0.0163654
-0.0184495
-0.00544831
-9.8134e-05
0.00731387
0.0209798
0.0210231
0.0434008
0.0347937
0.0656868
0.0477582
0.0866972
0.0593508
0.105511
0.0696249
0.121331
0.0793604
0.132945
0.089731
0.138042
0.101507
0.133331
0.114271
0.116106
0.126619
0.085616
0.137268
0.042532
0.145732
-0.0106965
0.151851
-0.0668151
0.155145
-0.115343
0.155582
-0.148293
0.153689
-0.164832
0.150179
-0.169739
0.145843
-0.168829
0.141138
-0.165175
0.135087
-0.16135
0.126328
-0.161571
0.116174
-0.164937
0.109267
-0.158414
0.109699
-0.123509
0.117529
-0.0585804
0.129677
0.0217571
0.142707
0.0926427
0.153933
0.14502
0.16114
0.180977
0.163038
0.217062
0.16
0.25374
0.154644
0.269135
0.149961
0.237337
0.147668
0.14254
0.148243
0.0228927
0.150577
-0.0994974
0.153164
-0.169741
0.152213
-0.211196
0.146598
-0.226816
0.139282
-0.236004
0.136251
-0.233981
0.139
-0.143397
0.14462
-0.0648468
0.147632
0.0986848
0.146376
0.19378
0.144031
0.282432
0.14305
0.324195
0.144486
0.179996
0.145855
0.152814
0.144635
-0.113282
-0.216044
-0.0131174
-0.0530575
-0.0178965
-0.0541568
-0.0213754
-0.0536833
-0.0230769
-0.0508894
-0.0228207
-0.0449621
-0.0199069
-0.036278
-0.0141517
-0.0242047
-0.00585883
-0.00839103
0.00505598
0.010065
0.0179406
0.0305162
0.031853
0.0517744
0.0459102
0.07264
0.0595404
0.0918808
0.0726772
0.108194
0.0857382
0.119884
0.0992883
0.124492
0.113407
0.119212
0.127225
0.102288
0.139335
0.0735053
0.148836
0.0330313
0.155544
-0.0174043
0.159417
-0.0706884
0.160197
-0.116123
0.158184
-0.146279
0.154307
-0.160955
0.149422
-0.164855
0.144136
-0.163543
0.138886
-0.159924
0.132953
-0.155417
0.124712
-0.15333
0.114566
-0.15479
0.106705
-0.150553
0.105964
-0.122768
0.113315
-0.0659309
0.126048
0.00902373
0.140285
0.078406
0.152979
0.132325
0.161689
0.172267
0.165139
0.213613
0.163557
0.255322
0.159205
0.273488
0.154667
0.241875
0.151674
0.145533
0.150835
0.0237315
0.151622
-0.100284
0.153196
-0.171314
0.15192
-0.209921
0.146326
-0.221222
0.138919
-0.228596
0.135831
-0.230894
0.138639
-0.146205
0.144452
-0.0706599
0.147746
0.0953908
0.146614
0.194912
0.144368
0.284679
0.143469
0.325094
0.14529
0.178175
0.147092
0.151012
0.145982
-0.112173
-0.214187
0.0200302
-0.0460693
0.0129301
-0.0470567
0.00634846
-0.0471016
0.000730682
-0.0452716
-0.00239067
-0.0418408
-0.00325583
-0.0354128
-0.00146974
-0.0259908
0.00398289
-0.0138437
0.0125635
0.00148433
0.0232991
0.0197807
0.0360253
0.0390481
0.0499771
0.0586882
0.0645307
0.0773273
0.0793745
0.0933505
0.0944773
0.104781
0.109826
0.109143
0.124987
0.104051
0.138881
0.0883943
0.150299
0.0620876
0.15865
0.0246795
0.163823
-0.0225773
0.165644
-0.0725088
0.164081
-0.11456
0.159849
-0.142047
0.154222
-0.155328
0.148196
-0.158829
0.142192
-0.157539
0.136519
-0.154251
0.130763
-0.14966
0.123301
-0.145869
0.113648
-0.145137
0.105138
-0.142044
0.103014
-0.120644
0.109425
-0.072342
0.12229
-0.0038411
0.137432
0.0632645
0.151465
0.118292
0.161724
0.162007
0.166885
0.208452
0.16692
0.255286
0.16364
0.276769
0.159255
0.246259
0.155566
0.149222
0.153369
0.0259282
0.152622
-0.0995366
0.153151
-0.171843
0.151576
-0.208346
0.146067
-0.215713
0.138578
-0.221108
0.135357
-0.227673
0.138192
-0.14904
0.144256
-0.0767232
0.147922
0.0917248
0.14696
0.195873
0.144806
0.286833
0.143994
0.325907
0.146218
0.175951
0.148488
0.148742
0.147491
-0.111176
-0.212341
0.0588322
-0.0387398
0.0514195
-0.0396441
0.0439705
-0.0396526
0.0370331
-0.0383341
0.0308291
-0.0356368
0.0264178
-0.0310015
0.0245573
-0.0241302
0.0255385
-0.0148249
0.030019
-0.00299612
0.0373423
0.0124573
0.0475544
0.0288361
0.0600191
0.0462235
0.07407
0.0632763
0.0891499
0.0782706
0.104808
0.0891227
0.120552
0.0933993
0.135597
0.0890056
0.14883
0.0751612
0.159289
0.0516285
0.16654
0.0174285
0.170347
-0.0263835
0.170311
-0.072473
0.166638
-0.110888
0.160473
-0.135882
0.153373
-0.148227
0.146437
-0.151893
0.139942
-0.151045
0.133984
-0.148293
0.128396
-0.144073
0.121827
-0.139299
0.113104
-0.136414
0.10442
-0.133359
0.10094
-0.117165
0.106034
-0.0774355
0.118364
-0.0161718
0.134081
0.047548
0.149262
0.103111
0.161074
0.150194
0.16808
0.201447
0.169889
0.253477
0.167768
0.27889
0.163545
0.250482
0.159195
0.153572
0.155782
0.0293416
0.153531
-0.0972855
0.15299
-0.171302
0.151133
-0.20649
0.145777
-0.210357
0.138221
-0.213551
0.134785
-0.224237
0.137611
-0.151866
0.143973
-0.0830854
0.148125
0.0875732
0.147406
0.196592
0.145353
0.288886
0.144629
0.32663
0.147266
0.173313
0.150036
0.145972
0.149153
-0.110293
-0.210505
0.0948291
-0.0317931
0.0878829
-0.0326979
0.0808339
-0.0326036
0.0737678
-0.0312681
0.0669171
-0.0287861
0.0608913
-0.0249756
0.0563824
-0.0196213
0.0540407
-0.0124832
0.054477
-0.00343239
0.0581018
0.00883254
0.0649706
0.0219673
0.0747945
0.0363996
0.0870188
0.051052
0.100952
0.0643372
0.115832
0.0742428
0.130811
0.0784206
0.144889
0.074927
0.157
0.0630507
0.166382
0.0422461
0.172595
0.011216
0.175086
-0.0288744
0.173308
-0.0706953
0.167752
-0.105332
0.159977
-0.128107
0.15172
-0.13997
0.144101
-0.144274
0.137312
-0.144256
0.131217
-0.142197
0.125767
-0.138623
0.120054
-0.133586
0.112565
-0.128926
0.104261
-0.125055
0.0996893
-0.112593
0.103114
-0.0808603
0.114447
-0.0275048
0.130216
0.0317792
0.146277
0.0870506
0.159588
0.136883
0.168516
0.192519
0.172219
0.249774
0.17137
0.279739
0.167386
0.254466
0.162469
0.15849
0.157936
0.0338743
0.154295
-0.0936443
0.152668
-0.169675
0.150539
-0.204361
0.145411
-0.205228
0.137813
-0.205953
0.134084
-0.220508
0.13685
-0.154632
0.143551
-0.0897868
0.148316
0.0828082
0.147936
0.196973
0.146009
0.290813
0.145377
0.327262
0.148432
0.170258
0.151727
0.142678
0.150956
-0.109522
-0.208679
0.122985
-0.0253623
0.116661
-0.026373
0.110367
-0.0263098
0.104166
-0.025067
0.0981645
-0.0227849
0.0925657
-0.0193768
0.0877146
-0.0147702
0.0840918
-0.00886044
0.0823915
-0.00173206
0.0829277
0.00829627
0.0864003
0.0184947
0.0929677
0.0298322
0.102382
0.0416378
0.114037
0.0526816
0.12706
0.0612198
0.1404
0.0650809
0.152933
0.0623944
0.163652
0.0523313
0.171858
0.03404
0.17693
0.00614391
0.178006
-0.0299504
0.174518
-0.0672066
0.167305
-0.0981196
0.158263
-0.119065
0.149182
-0.130889
0.141102
-0.136195
0.134175
-0.137329
0.128092
-0.136114
0.122775
-0.133305
0.117785
-0.128597
0.111651
-0.122792
0.104244
-0.117648
0.0990465
-0.107395
0.100751
-0.0825648
0.110578
-0.0373314
0.125869
0.0164879
0.142454
0.0704656
0.157125
0.122212
0.168021
0.181623
0.173768
0.244027
0.174306
0.279201
0.170629
0.258144
0.165267
0.163851
0.159757
0.0393842
0.154853
-0.0887402
0.152132
-0.166954
0.149731
-0.201959
0.144917
-0.200415
0.137328
-0.198364
0.133231
-0.216412
0.13587
-0.157271
0.142937
-0.0968538
0.148451
0.0772935
0.14853
0.196894
0.146776
0.292567
0.146239
0.3278
0.149712
0.166786
0.153549
0.13884
0.152889
-0.108862
-0.206865
0.141217
-0.0196594
0.135616
-0.0207715
0.130091
-0.0207847
0.124919
-0.0198959
0.120236
-0.0181019
0.116037
-0.0151772
0.112396
-0.0111289
0.109499
-0.00596429
0.107388
0.000379795
0.107049
0.00863504
0.108637
0.016906
0.112648
0.0258217
0.119194
0.0350916
0.12801
0.0438655
0.138444
0.0507857
0.149498
0.0540277
0.160032
0.0518601
0.169076
0.0432871
0.175944
0.0271726
0.179592
0.00249544
0.179027
-0.029385
0.173826
-0.0620056
0.165209
-0.089503
0.155254
-0.10911
0.145669
-0.121304
0.137336
-0.127861
0.130389
-0.130382
0.124452
-0.130177
0.119311
-0.128165
0.114885
-0.12417
0.110051
-0.117958
0.10392
-0.111517
0.0986708
-0.102146
0.098838
-0.082732
0.106857
-0.0453509
0.121126
0.00221973
0.137802
0.0537895
0.153605
0.106409
0.166392
0.168836
0.174224
0.236194
0.176302
0.277122
0.1731
0.261345
0.167442
0.16951
0.161199
0.0456277
0.155169
-0.0827105
0.151354
-0.163139
0.148661
-0.199267
0.14425
-0.196004
0.136752
-0.190866
0.132234
-0.211893
0.134656
-0.159692
0.142071
-0.10427
0.148482
0.0708828
0.149163
0.196214
0.147647
0.294083
0.147214
0.328232
0.1511
0.1629
0.15549
0.13445
0.15494
-0.108312
-0.205068
0.149346
-0.0149111
0.144523
-0.0159494
0.139786
-0.0160472
0.135596
-0.0157058
0.132071
-0.0145774
0.129221
-0.0123265
0.127091
-0.0089994
0.125803
-0.00467663
0.12552
0.000663119
0.125914
0.0082408
0.127258
0.0155622
0.130209
0.0228712
0.134987
0.0303134
0.141566
0.0372865
0.149519
0.0428327
0.158112
0.0454344
0.166408
0.043564
0.173523
0.0361719
0.178587
0.0221094
0.180399
0.000682728
0.178167
-0.0271529
0.171449
-0.0552873
0.16183
-0.0798842
0.151378
-0.0986575
0.141611
-0.111537
0.133211
-0.119461
0.126301
-0.123472
0.120559
-0.124434
0.115618
-0.123224
0.111558
-0.12011
0.107782
-0.114182
0.103076
-0.106811
0.0982881
-0.0973584
0.0972795
-0.0817233
0.103336
-0.0514076
0.116099
-0.0105433
0.13235
0.0375385
0.148988
0.089771
0.16368
0.154144
0.173778
0.226096
0.177477
0.273423
0.174743
0.26408
0.169016
0.175237
0.162243
0.0524005
0.155312
-0.07578
0.150412
-0.158239
0.147385
-0.196239
0.143415
-0.192034
0.136107
-0.183559
0.131149
-0.206935
0.133234
-0.161777
0.140913
-0.111949
0.148351
0.0634445
0.149801
0.194764
0.148613
0.295271
0.148297
0.328549
0.152593
0.158604
0.157533
0.12951
0.157095
-0.107874
-0.203296
0.150197
-0.0116047
0.146253
-0.012005
0.142489
-0.0122839
0.139123
-0.0123398
0.136293
-0.0117473
0.13421
-0.0102434
0.132967
-0.00775599
0.132551
-0.00426091
0.132868
0.000345549
0.134668
0.00644114
0.137442
0.0127887
0.140991
0.0193212
0.145499
0.0258061
0.151054
0.0317312
0.157513
0.0363738
0.164335
0.0386119
0.170755
0.037144
0.176008
0.0309197
0.179234
0.0188827
0.179482
0.000434711
0.175201
-0.0228712
0.167328
-0.0474143
0.157343
-0.0698996
0.147012
-0.0883268
0.137509
-0.102034
0.129302
-0.111254
0.122499
-0.11667
0.116928
-0.118863
0.112169
-0.118466
0.108277
-0.116218
0.105182
-0.111087
0.101792
-0.10342
0.0978226
-0.0933891
0.0960943
-0.079995
0.10031
-0.0556237
0.111024
-0.0212572
0.126365
0.0221974
0.143123
0.0730133
0.159143
0.138123
0.171483
0.213757
0.17717
0.267736
0.175316
0.265934
0.169764
0.180788
0.162851
0.0593139
0.155189
-0.0681186
0.149344
-0.152394
0.145976
-0.19287
0.142443
-0.188502
0.135401
-0.176516
0.13003
-0.201563
0.1317
-0.163448
0.139515
-0.119763
0.148033
0.0549266
0.150406
0.192391
0.14965
0.296027
0.149488
0.328711
0.154181
0.15391
0.159663
0.124029
0.159352
-0.107564
-0.201535
0.183972
-0.00761925
-0.187957
0.180644
-0.00867736
0.177354
-0.00899345
0.173952
-0.00893747
0.170525
-0.00832064
0.167216
-0.00693407
0.164137
-0.00467708
0.1614
-0.00152382
0.159185
0.00256009
0.15793
0.00769593
0.157455
0.0132638
0.15785
0.0189269
0.15933
0.0243257
0.162117
0.0289442
0.166406
0.032085
0.172205
0.032813
0.179229
0.0301198
0.186947
0.0232016
0.19435
0.0114794
0.200106
-0.00532091
0.202727
-0.0254926
0.201775
-0.0464614
0.197724
-0.0658488
0.191508
-0.0821108
0.184062
-0.0945882
0.176083
-0.103275
0.168065
-0.108652
0.160345
-0.111143
0.152845
-0.110966
0.145572
-0.108945
0.138794
-0.104309
0.131935
-0.096562
0.123973
-0.0854273
0.116106
-0.0721272
0.111925
-0.0514428
0.11367
-0.0230028
0.1199
0.0159677
0.127493
0.0654198
0.13431
0.131307
0.139838
0.208229
0.144878
0.262696
0.151068
0.259745
0.159123
0.172733
0.165236
0.0532009
0.16676
-0.0696429
0.164161
-0.149795
0.159737
-0.188446
0.153643
-0.182408
0.145035
-0.167909
0.136901
-0.193429
0.133723
-0.160269
0.134669
-0.12071
0.136486
0.0531097
0.135409
0.193469
0.133813
0.297623
0.13617
0.326354
0.142492
0.147588
0.148687
0.117834
0.148047
-0.106924
-0.197872
0.194317
-0.00475172
-0.197184
0.191442
-0.00580231
0.188644
-0.00619605
0.185804
-0.00609746
0.182994
-0.00551042
0.180363
-0.00430334
0.178069
-0.00238278
0.17621
0.000335411
0.17493
0.00383954
0.174505
0.0081216
0.174968
0.0128005
0.176375
0.0175199
0.1788
0.0219003
0.182313
0.0254314
0.186936
0.0274624
0.19254
0.0272091
0.198764
0.023896
0.20502
0.0169452
0.210525
0.00597396
0.214082
-0.00887751
0.214843
-0.0262538
0.212629
-0.0442474
0.207861
-0.0610801
0.20126
-0.0755106
0.193621
-0.0869486
0.185575
-0.0952293
0.177526
-0.100602
0.169784
-0.103401
0.162323
-0.103505
0.155007
-0.101629
0.148116
-0.0974178
0.141561
-0.0900074
0.134264
-0.0781304
0.126513
-0.0643759
0.121412
-0.0463412
0.121783
-0.0233747
0.127307
0.0104437
0.134969
0.0577578
0.142573
0.123703
0.149269
0.201534
0.155674
0.25629
0.1632
0.252219
0.172104
0.163828
0.178749
0.0465559
0.179848
-0.0707413
0.176282
-0.146229
0.170825
-0.182989
0.164176
-0.175759
0.155065
-0.158798
0.146288
-0.184652
0.14239
-0.156371
0.143202
-0.121522
0.145492
0.0508199
0.144826
0.194134
0.14352
0.298929
0.146263
0.32361
0.15314
0.140711
0.159907
0.111067
0.158919
-0.105936
-0.193749
0.204861
-0.00243919
-0.207173
0.202348
-0.00328996
0.19986
-0.00370797
0.197439
-0.00367622