/*--------------------------------*- C++ -*----------------------------------*\
| =========                 |                                                 |
| \\      /  F ield         | OpenFOAM: The Open Source CFD Toolbox           |
|  \\    /   O peration     | Version:  2512                                  |
|   \\  /    A nd           | Website:  www.openfoam.com                      |
|    \\/     M anipulation  |                                                 |
\*---------------------------------------------------------------------------*/
FoamFile
{
    version     2.0;
    format      ascii;
    arch        "LSB;label=32;scalar=64";
    class       volScalarField;
    location    "3.5";
    object      p;
}
// * * * * * * * * * * * * * * * * * * * * * * * * * * * * * * * * * * * * * //

dimensions      [0 2 -2 0 0 0 0];

internalField   nonuniform List<scalar> 
13248
(
-0.485902
-0.480053
-0.473671
-0.467672
-0.463142
-0.46088
-0.460807
-0.461832
-0.462089
-0.459414
-0.451938
-0.438601
-0.419381
-0.395178
-0.367459
-0.337834
-0.307733
-0.278233
-0.250037
-0.223529
-0.198816
-0.175922
-0.154225
-0.134046
-0.499084
-0.49267
-0.485729
-0.479162
-0.4739
-0.470506
-0.468623
-0.466967
-0.46369
-0.456946
-0.445448
-0.428792
-0.407462
-0.382567
-0.355464
-0.327439
-0.299525
-0.272442
-0.24664
-0.222355
-0.199677
-0.178639
-0.159011
-0.141231
-0.51558
-0.508267
-0.500715
-0.493651
-0.487664
-0.482944
-0.478802
-0.473832
-0.466395
-0.455183
-0.439598
-0.419842
-0.396734
-0.371391
-0.344936
-0.318309
-0.292205
-0.267082
-0.243217
-0.220759
-0.199765
-0.180264
-0.162096
-0.145332
-0.535308
-0.526822
-0.518531
-0.510871
-0.503913
-0.497387
-0.490322
-0.481357
-0.469286
-0.453476
-0.434001
-0.411509
-0.386953
-0.361316
-0.335444
-0.309969
-0.285321
-0.26177
-0.239471
-0.218504
-0.198903
-0.180681
-0.163723
-0.14811
-0.557867
-0.548001
-0.538842
-0.53035
-0.521961
-0.512958
-0.502239
-0.488726
-0.471826
-0.451605
-0.428668
-0.403901
-0.378217
-0.352387
-0.326983
-0.302389
-0.278843
-0.256481
-0.235375
-0.215556
-0.197028
-0.179774
-0.163713
-0.148852
-0.582688
-0.571357
-0.561175
-0.551489
-0.541033
-0.528756
-0.513669
-0.495219
-0.473518
-0.449235
-0.423308
-0.396669
-0.370077
-0.344071
-0.318992
-0.295037
-0.272306
-0.250844
-0.230661
-0.211747
-0.194078
-0.177617
-0.162308
-0.148115
-0.609029
-0.596249
-0.584875
-0.57351
-0.560218
-0.543835
-0.523788
-0.500228
-0.473952
-0.446062
-0.41762
-0.389458
-0.362129
-0.335953
-0.311085
-0.287584
-0.265454
-0.244673
-0.225204
-0.207004
-0.190024
-0.17421
-0.159516
-0.145847
-0.635976
-0.621829
-0.609052
-0.595415
-0.578455
-0.557216
-0.53182
-0.503207
-0.472734
-0.441726
-0.411199
-0.381797
-0.353858
-0.327512
-0.302776
-0.279606
-0.257937
-0.237696
-0.218811
-0.201209
-0.184821
-0.169581
-0.155439
-0.142247
-0.662399
-0.647017
-0.632573
-0.615999
-0.594583
-0.567936
-0.537079
-0.503699
-0.469522
-0.4359
-0.403682
-0.373292
-0.344865
-0.318382
-0.293748
-0.270849
-0.249565
-0.229784
-0.211404
-0.194329
-0.178471
-0.163756
-0.150116
-0.137366
-0.686964
-0.670496
-0.654071
-0.633892
-0.60739
-0.575076
-0.538946
-0.501282
-0.463966
-0.428226
-0.394681
-0.363533
-0.334747
-0.308182
-0.283666
-0.261027
-0.240104
-0.220756
-0.202852
-0.186278
-0.170932
-0.156728
-0.143569
-0.131269
-0.708191
-0.690769
-0.672008
-0.647623
-0.615631
-0.577684
-0.536695
-0.495334
-0.455456
-0.418064
-0.383529
-0.351851
-0.322855
-0.296308
-0.271974
-0.249638
-0.229106
-0.21021
-0.192799
-0.176743
-0.161929
-0.148255
-0.13559
-0.123779
-0.724603
-0.706363
-0.684923
-0.655831
-0.618112
-0.57471
-0.529331
-0.484841
-0.442927
-0.404314
-0.369121
-0.337168
-0.308161
-0.281791
-0.25777
-0.235847
-0.2158
-0.197439
-0.180596
-0.165128
-0.150918
-0.137848
-0.125761
-0.114576
-0.313993
-0.325483
-0.332763
-0.338859
-0.345253
-0.351255
-0.355608
-0.356935
-0.353883
-0.34528
-0.330284
-0.30853
-0.280312
-0.246312
-0.207834
-0.166586
-0.124494
-0.0834855
-0.0452941
-0.0112883
0.0176111
0.0409514
0.0586799
0.0712125
-0.320395
-0.331189
-0.338218
-0.344328
-0.350898
-0.357228
-0.362057
-0.363994
-0.361659
-0.353834
-0.339624
-0.318617
-0.291017
-0.257473
-0.219244
-0.178022
-0.135746
-0.0943792
-0.0556951
-0.0211076
0.00842645
0.0324388
0.0508348
0.064152
-0.335423
-0.344561
-0.350953
-0.357036
-0.363949
-0.370985
-0.376886
-0.380229
-0.379578
-0.373615
-0.361314
-0.342149
-0.316055
-0.283625
-0.246023
-0.204899
-0.162234
-0.120074
-0.0802959
-0.0444127
-0.013466
0.0120454
0.0319339
0.0469227
-0.356413
-0.363156
-0.36854
-0.374438
-0.38167
-0.389536
-0.396787
-0.40197
-0.403568
-0.400129
-0.390419
-0.373832
-0.349928
-0.31912
-0.282453
-0.2415
-0.198396
-0.155249
-0.114083
-0.0765517
-0.0438048
-0.0163742
0.00543702
0.0224834
-0.379998
-0.38393
-0.387961
-0.393371
-0.400642
-0.409114
-0.417583
-0.424577
-0.428506
-0.427806
-0.421112
-0.407208
-0.385726
-0.356779
-0.321254
-0.280736
-0.237334
-0.193344
-0.150943
-0.11191
-0.0774933
-0.0482461
-0.0245583
-0.00554137
-0.402965
-0.404051
-0.406442
-0.410931
-0.417711
-0.42623
-0.435377
-0.443699
-0.449587
-0.451276
-0.447205
-0.436037
-0.416999
-0.390001
-0.355801
-0.315971
-0.272686
-0.228372
-0.185334
-0.145431
-0.109959
-0.079459
-0.0543545
-0.0337885
-0.422956
-0.421508
-0.422136
-0.425214
-0.430834
-0.438632
-0.447665
-0.456557
-0.46365
-0.467125
-0.465193
-0.456304
-0.43941
-0.414235
-0.381448
-0.342631
-0.300035
-0.256176
-0.213412
-0.173599
-0.137996
-0.10709
-0.0812865
-0.0597741
-0.438855
-0.435472
-0.434328
-0.435611
-0.439462
-0.445781
-0.453872
-0.462494
-0.469998
-0.474483
-0.473987
-0.46673
-0.451466
-0.427802
-0.396391
-0.358874
-0.317574
-0.275028
-0.233541
-0.194856
-0.160108
-0.129679
-0.103943
-0.0821013
-0.450765
-0.44615
-0.4434
-0.44272
-0.444435
-0.44877
-0.455315
-0.462992
-0.470168
-0.474902
-0.475027
-0.468589
-0.454235
-0.431577
-0.401363
-0.365342
-0.325869
-0.285401
-0.246059
-0.209374
-0.176283
-0.147049
-0.12201
-0.100324
-0.459755
-0.454526
-0.450454
-0.447901
-0.447467
-0.449697
-0.454458
-0.460727
-0.467046
-0.471259
-0.471077
-0.464472
-0.450141
-0.427869
-0.398604
-0.364204
-0.326966
-0.289128
-0.252508
-0.218354
-0.187377
-0.15976
-0.135804
-0.114552
-0.467464
-0.462009
-0.456923
-0.452794
-0.4505
-0.450816
-0.453727
-0.458519
-0.463433
-0.466284
-0.464745
-0.456885
-0.441664
-0.419192
-0.390657
-0.357952
-0.323183
-0.288243
-0.254568
-0.223089
-0.194292
-0.168346
-0.145485
-0.124795
-0.475679
-0.470094
-0.46425
-0.458947
-0.45525
-0.454036
-0.455404
-0.458427
-0.461346
-0.461913
-0.457916
-0.447748
-0.430819
-0.407645
-0.37961
-0.348528
-0.316198
-0.284103
-0.253286
-0.224373
-0.19762
-0.173159
-0.150912
-0.130622
0.0799703
0.0843601
0.0847022
0.0821713
0.0777393
0.0722416
0.0663184
0.060664
0.0553033
0.0503876
0.0459359
0.0419622
0.0384184
0.0353061
0.0325673
0.0301565
0.0280387
0.0261807
0.0245507
0.0231201
0.0218637
0.02076
0.0197903
0.0189382
0.0181895
0.017531
0.0169515
0.0164406
0.0159891
0.0155887
0.0152321
0.0149125
0.0146238
0.0143605
0.0141175
0.0138902
0.0136741
0.013465
0.013259
0.0130522
0.0128408
0.0126211
0.0123891
0.0121408
0.011872
0.011578
0.0112538
0.0108938
0.0104921
0.0100416
0.00953559
0.00896415
0.00832146
0.0075897
0.00677369
0.00583121
0.00479815
0.00360135
0.00226803
0.000829871
0.0733316
0.0788216
0.0806581
0.0793901
0.0758079
0.0708866
0.0655013
0.0599636
0.054782
0.0500172
0.04563
0.0417914
0.0383237
0.035292
0.0325795
0.0301799
0.0280738
0.0262268
0.0246047
0.0231782
0.0219233
0.0208192
0.0198478
0.0189933
0.0182416
0.01758
0.0169972
0.0164831
0.0160286
0.0156253
0.0152658
0.0149435
0.0146522
0.0143864
0.0141411
0.0139115
0.0136932
0.0134821
0.0132743
0.0130657
0.0128527
0.0126313
0.0123979
0.0121483
0.0118782
0.011583
0.0112577
0.0108968
0.0104942
0.010043
0.00953627
0.00896441
0.00832099
0.00758958
0.006772
0.0058316
0.00479585
0.00360009
0.00227003
0.000820832
0.0572228
0.0651881
0.0702773
0.0717644
0.0701285
0.0665768
0.0622044
0.0576157
0.0531345
0.0488498
0.0448688
0.0411077
0.0377013
0.0349242
0.0323337
0.0300101
0.0279555
0.0261516
0.0245637
0.0231618
0.0219238
0.0208309
0.019867
0.0190174
0.0182686
0.0176085
0.0170264
0.0165123
0.0160573
0.0156532
0.0152927
0.0149693
0.0146767
0.0144096
0.0141629
0.0139318
0.0137121
0.0134996
0.0132903
0.0130804
0.0128661
0.0126436
0.0124089
0.0121582
0.0118871
0.011591
0.0112649
0.0109032
0.0104999
0.010048
0.00954065
0.0089684
0.0083242
0.00759306
0.00677374
0.00583519
0.00479634
0.00360113
0.00227361
0.000812471
0.0343036
0.0454937
0.0548202
0.0599531
0.0610703
0.0596353
0.0569455
0.0537026
0.0502271
0.046694
0.0432675
0.0400301
0.0371378
0.0342835
0.0317802
0.0296169
0.0276817
0.025959
0.024431
0.0230739
0.0218681
0.0207982
0.0198506
0.0190127
0.0182723
0.0176183
0.0170405
0.0165293
0.0160762
0.0156733
0.0153135
0.0149903
0.0146978
0.0144305
0.0141834
0.0139518
0.0137314
0.013518
0.0133078
0.013097
0.0128818
0.0126584
0.012423
0.0121715
0.0118997
0.0116029
0.0112761
0.0109138
0.01051
0.0100577
0.00954971
0.00897709
0.00833209
0.00760111
0.00677986
0.0058428
0.00480042
0.00360516
0.00227914
0.000805266
0.0078923
0.0223316
0.035952
0.0449411
0.0491548
0.0503405
0.0498452
0.0483455
0.0461936
0.0436626
0.0409862
0.0383214
0.0357794
0.0333255
0.0311053
0.028945
0.0272046
0.0256369
0.0242033
0.0229109
0.0217531
0.0207187
0.0197972
0.0189783
0.0182521
0.0176087
0.0170389
0.0165337
0.016085
0.0156853
0.0153278
0.0150063
0.0147149
0.0144484
0.0142019
0.0139707
0.0137504
0.013537
0.0133266
0.0131154
0.0128997
0.0126758
0.0124399
0.012188
0.0119158
0.0116186
0.0112915
0.0109288
0.0105246
0.0100719
0.00956355
0.00899063
0.00834483
0.00761389
0.00679057
0.00585462
0.00480834
0.00361243
0.00228667
0.000799531
-0.0189066
-0.00176798
0.015431
0.0278967
0.0352017
0.0391604
0.0411304
0.0416597
0.0410846
0.0397643
0.038022
0.0360782
0.0340703
0.0320627
0.030159
0.0284242
0.0265041
0.0251472
0.0238704
0.0226705
0.0215762
0.0205899
0.0197046
0.0189128
0.0182071
0.0175793
0.0170213
0.0165251
0.0160833
0.0156889
0.0153353
0.0150168
0.0147278
0.014463
0.0142179
0.0139878
0.0137686
0.013556
0.0133461
0.0131351
0.0129194
0.0126954
0.0124593
0.0122073
0.011935
0.0116377
0.0113105
0.0109477
0.0105433
0.0100905
0.00958187
0.00900873
0.00836218
0.00763119
0.00680572
0.00587049
0.00482001
0.00362291
0.00229607
0.000795529
-0.0437998
-0.0248188
-0.00518754
0.00999294
0.0200923
0.026752
0.0311471
0.0337631
0.0349324
0.035022
0.0343898
0.0333023
0.031948
0.0304659
0.028962
0.0275023
0.0261841
0.0245134
0.0234086
0.0223448
0.0213353
0.0204098
0.0195708
0.0188144
0.0181359
0.0175292
0.0169873
0.0165035
0.0160712
0.015684
0.0153362
0.015022
0.0147363
0.0144743
0.0142313
0.0140031
0.0137853
0.0135741
0.0133655
0.0131555
0.0129405
0.0127169
0.012481
0.0122291
0.011957
0.0116599
0.0113328
0.0109702
0.0105659
0.0101132
0.00960438
0.00903112
0.00838388
0.00765276
0.00682515
0.00589021
0.00483536
0.00363659
0.00230721
0.000793593
-0.065485
-0.0455731
-0.0247505
-0.00778372
0.00460168
0.0136812
0.0203305
0.0249324
0.0278414
0.0294497
0.0300684
0.0299679
0.029381
0.0284962
0.0274566
0.0263521
0.0252382
0.0241902
0.0228525
0.0219191
0.021026
0.0201782
0.0193947
0.0186813
0.0180369
0.017457
0.016936
0.0164682
0.0160482
0.0156707
0.0153302
0.0150218
0.0147407
0.0144823
0.0142422
0.0140164
0.0138007
0.0135914
0.0133845
0.0131762
0.0129625
0.0127399
0.0125047
0.0122533
0.0119816
0.011685
0.0113583
0.0109961
0.0105921
0.0101396
0.00963082
0.00905755
0.00840974
0.00767839
0.00684871
0.00591361
0.00485431
0.00365343
0.00231998
0.000794155
-0.0834843
-0.0634472
-0.0425325
-0.024666
-0.0105958
0.000464965
0.00907388
0.0155196
0.0201098
0.0231996
0.0251141
0.0260942
0.0263721
0.0261639
0.0256465
0.0249453
0.0241379
0.0232674
0.0224109
0.0214007
0.0206284
0.0198876
0.0191737
0.018512
0.0179086
0.0173618
0.0168666
0.0164189
0.0160144
0.0156488
0.0153177
0.0150166
0.0147412
0.0144873
0.0142509
0.0140281
0.013815
0.0136079
0.013403
0.0131967
0.012985
0.0127639
0.0125299
0.0122794
0.0120085
0.0117127
0.0113867
0.0110251
0.0106216
0.0101695
0.009661
0.00908782
0.00843956
0.00770791
0.0068763
0.00594054
0.00487686
0.00367345
0.00233431
0.000797719
-0.0978387
-0.0783831
-0.0582451
-0.0401814
-0.0250077
-0.0124745
-0.00227193
0.00580346
0.0119602
0.01647
0.0196334
0.0217247
0.0229484
0.0235051
0.0235872
0.0233469
0.0228936
0.0222953
0.0216037
0.0209177
0.0201338
0.0195213
0.0189013
0.0183061
0.0177529
0.0172455
0.016781
0.0163569
0.0159708
0.0156194
0.0152993
0.0150068
0.0147382
0.0144897
0.0142575
0.0140382
0.013828
0.0136235
0.013421
0.0132168
0.0130072
0.0127881
0.0125559
0.0123068
0.0120372
0.0117424
0.0114174
0.0110567
0.010654
0.0102026
0.00969452
0.00912159
0.00847308
0.00774106
0.00690778
0.00597084
0.00490299
0.00369669
0.00235023
0.000804942
-0.108901
-0.090988
-0.0724738
-0.0548105
-0.0391138
-0.025636
-0.0141928
-0.00467615
0.00296863
0.00889271
0.0133347
0.0165452
0.0187581
0.0201762
0.0209808
0.0213296
0.0213463
0.0211217
0.0207279
0.0202272
0.0197067
0.0191268
0.0185873
0.0180658
0.0175672
0.017103
0.0166727
0.0162759
0.0159112
0.0155767
0.0152699
0.0149878
0.0147274
0.0144855
0.0142587
0.0140437
0.0138372
0.0136357
0.0134359
0.0132342
0.013027
0.0128104
0.0125803
0.0123332
0.0120653
0.011772
0.0114485
0.011089
0.0106875
0.0102371
0.00972974
0.00915734
0.00850889
0.00777659
0.00694207
0.00600359
0.00493203
0.00372266
0.0023676
0.000816749
-0.115591
-0.100371
-0.0840503
-0.0672272
-0.0517014
-0.0379886
-0.0258879
-0.0153669
-0.00651389
0.000688844
0.00638221
0.0107523
0.0139856
0.0162748
0.0178128
0.0187688
0.0192826
0.0194708
0.0194162
0.0191813
0.018853
0.0184739
0.0180599
0.0176705
0.0172713
0.0168788
0.0165021
0.0161466
0.015814
0.0155046
0.0152175
0.014951
0.014703
0.0144709
0.014252
0.0140434
0.0138421
0.013645
0.0134489
0.0132506
0.0130464
0.0128325
0.012605
0.0123602
0.0120942
0.0118027
0.0114807
0.0111227
0.0107224
0.010273
0.00976657
0.0091947
0.00854643
0.0078137
0.00697834
0.00603757
0.00496318
0.00375008
0.00238531
0.000833882
-0.109838
-0.100504
-0.0846376
-0.0679697
-0.0531486
-0.0401786
-0.0286264
-0.0184313
-0.00970824
-0.00247706
0.00337081
0.00798318
0.0115075
0.0141048
0.0159483
0.0171994
0.0179907
0.0184281
0.018594
0.0185612
0.0183931
0.0181107
0.0178073
0.0174397
0.0170919
0.0167418
0.0164002
0.0160739
0.0157651
0.0154751
0.0152037
0.0149499
0.0147121
0.0144884
0.0142762
0.0140731
0.0138764
0.013683
0.0134902
0.0132946
0.0130928
0.012881
0.0126553
0.0124121
0.0121475
0.0118571
0.011536
0.0111787
0.0107789
0.0103296
0.00982297
0.00925033
0.00860122
0.00786566
0.00702942
0.00608126
0.00500551
0.00378294
0.00240529
0.000855301
-0.104505
-0.0966223
-0.0816984
-0.0660537
-0.0524659
-0.0407612
-0.0302755
-0.0208285
-0.0125573
-0.00555784
0.000232874
0.00493315
0.00864625
0.0114913
0.0136139
0.0151517
0.0162168
0.0169044
0.017296
0.01746
0.017453
0.0173136
0.0171323
0.0169275
0.0166816
0.0164133
0.0161385
0.0158662
0.0156014
0.015347
0.0151046
0.0148744
0.0146557
0.0144475
0.0142479
0.014055
0.0138665
0.0136799
0.0134926
0.0133015
0.0131033
0.0128945
0.0126713
0.0124303
0.0121675
0.0118787
0.011559
0.0112029
0.010804
0.0103556
0.00984962
0.00927728
0.00862846
0.00789198
0.00705608
0.00610385
0.00502897
0.0037992
0.00241586
0.000866998
-0.0982213
-0.0912954
-0.0782097
-0.0640754
-0.0516928
-0.0410847
-0.0315493
-0.0228075
-0.0149927
-0.00825851
-0.00257841
0.00214513
0.00597826
0.00900326
0.0113437
0.0131185
0.0144221
0.0153382
0.0159435
0.0163036
0.0164763
0.0165197
0.0164819
0.0163759
0.0162192
0.0160316
0.0158258
0.0156112
0.0153946
0.0151802
0.0149708
0.0147678
0.0145714
0.0143814
0.0141968
0.0140159
0.0138372
0.0136585
0.0134774
0.0132912
0.0130969
0.012891
0.0126704
0.0124315
0.0121704
0.0118829
0.0115643
0.011209
0.010811
0.0103631
0.00985767
0.00928566
0.00863728
0.00790046
0.00706531
0.00611087
0.00503743
0.00380365
0.00241767
0.000872449
-0.0899136
-0.0851912
-0.0742321
-0.061654
-0.0504147
-0.0408086
-0.0321868
-0.0241832
-0.0168867
-0.0104843
-0.00498602
-0.000313263
0.00357026
0.00671255
0.00921658
0.0111858
0.0126962
0.0138179
0.0146214
0.0151707
0.0155212
0.01572
0.0158029
0.0158023
0.0157413
0.0156361
0.0155002
0.0153446
0.0151774
0.0150043
0.0148293
0.0146548
0.0144819
0.0143112
0.0141423
0.0139744
0.0138061
0.0136358
0.0134613
0.0132803
0.01309
0.0128876
0.0126697
0.012433
0.0121736
0.0118875
0.01157
0.0112155
0.0108181
0.0103707
0.00986564
0.00929377
0.00864565
0.0079083
0.00707364
0.0061171
0.00504445
0.0038077
0.00241844
0.000877098
-0.0817294
-0.0788276
-0.0697263
-0.0586705
-0.0485879
-0.0399588
-0.0322287
-0.0249815
-0.018251
-0.0122388
-0.00698844
-0.00243536
0.00143358
0.00463326
0.00724647
0.00936398
0.011045
0.0123442
0.0133242
0.0140436
0.0145509
0.0148891
0.0150976
0.0152087
0.0152442
0.0152221
0.0151575
0.0150625
0.0149467
0.0148168
0.014678
0.0145336
0.0143858
0.0142357
0.0140839
0.0139299
0.013773
0.0136118
0.0134446
0.0132696
0.0130842
0.0128857
0.0126711
0.0124369
0.0121797
0.0118953
0.0115791
0.0112257
0.0108291
0.0103824
0.00987781
0.00930617
0.00865832
0.00792045
0.0070861
0.00612745
0.00505489
0.00381528
0.00242177
0.000882549
-0.0739635
-0.0721148
-0.0646624
-0.0551456
-0.0462541
-0.0385878
-0.0317173
-0.0252222
-0.0190881
-0.0135156
-0.00857027
-0.00419757
-0.000403476
0.00279518
0.00546211
0.00767884
0.00948984
0.0109333
0.0120621
0.0129291
0.0135787
0.0140506
0.0143809
0.0145992
0.0147289
0.0147892
0.0147964
0.0147633
0.0147003
0.0146153
0.0145143
0.0144017
0.0142805
0.0141526
0.014019
0.0138802
0.0137356
0.0135846
0.0134257
0.0132574
0.0130775
0.0128836
0.0126727
0.0124416
0.0121868
0.0119044
0.0115899
0.0112378
0.0108423
0.0103965
0.00989265
0.00932143
0.008674
0.00793577
0.00710165
0.00614111
0.0050681
0.00382574
0.00242729
0.000887923
-0.0660459
-0.0651515
-0.0592427
-0.051207
-0.0434832
-0.0367488
-0.030699
-0.0249373
-0.0194141
-0.0143177
-0.0097239
-0.0055839
-0.00191911
0.00122429
0.00389193
0.00615889
0.00805758
0.00961029
0.0108595
0.0118524
0.0126279
0.0132202
0.0136619
0.0139812
0.0142016
0.0143427
0.0144209
0.0144498
0.0144403
0.0144012
0.0143393
0.0142597
0.0141664
0.0140618
0.0139478
0.0138251
0.0136939
0.0135539
0.0134041
0.0132432
0.0130694
0.0128804
0.0126736
0.0124458
0.0121938
0.0119138
0.0116011
0.0112506
0.0108564
0.0104117
0.00990867
0.00933803
0.00869111
0.00795267
0.00711869
0.00615648
0.00508253
0.00383759
0.00243351
0.000892387
-0.0582837
-0.0582522
-0.0536661
-0.0469641
-0.0403413
-0.034498
-0.0292281
-0.0241714
-0.0192571
-0.014658
-0.0104511
-0.00658718
-0.00309905
-5.95077e-05
0.00255977
0.00482985
0.00677448
0.00840098
0.00974059
0.010834
0.0117144
0.0124109
0.0129523
0.0133647
0.0136705
0.0138888
0.014036
0.0141258
0.0141696
0.0141766
0.0141545
0.0141089
0.0140444
0.0139642
0.0138707
0.0137651
0.0136481
0.0135199
0.0133799
0.013227
0.0130598
0.0128762
0.0126738
0.0124498
0.0122008
0.0119233
0.0116127
0.011264
0.0108713
0.0104277
0.00992574
0.00935578
0.00870942
0.00797085
0.00713689
0.00617314
0.0050978
0.00385033
0.00244009
0.000896194
-0.0510413
-0.0515335
-0.048012
-0.0424957
-0.0368987
-0.0318977
-0.0273626
-0.0229744
-0.0186537
-0.0145594
-0.0107631
-0.00720922
-0.00393711
-0.0010435
0.00148363
0.00371323
0.00566328
0.00732745
0.00872563
0.00989218
0.0108551
0.0116382
0.0122656
0.0127609
0.0131446
0.0134348
0.0136473
0.0137958
0.0138916
0.0139443
0.0139619
0.0139507
0.0139156
0.0138605
0.0137882
0.0137005
0.0135986
0.0134829
0.0133532
0.0132089
0.0130488
0.0128711
0.0126736
0.0124536
0.0122081
0.0119334
0.0116251
0.0112784
0.0108874
0.0104452
0.00994431
0.00937516
0.00872942
0.00799083
0.00715678
0.00619161
0.00511449
0.00386438
0.00244766
0.000899928
-0.0441838
-0.0450017
-0.0423708
-0.0379041
-0.0332416
-0.0290199
-0.0251673
-0.0214046
-0.0176511
-0.014056
-0.010682
-0.00746144
-0.00443581
-0.00172263
0.000674851
0.00282476
0.0047419
0.00640848
0.00783377
0.00904597
0.010068
0.0109179
0.0116157
0.0121814
0.0126336
0.0129887
0.0132615
0.013465
0.0136104
0.0137074
0.013764
0.0137869
0.0137814
0.0137517
0.0137011
0.0136318
0.0135455
0.0134429
0.0133242
0.0131891
0.0130366
0.0128652
0.012673
0.0124575
0.0122157
0.0119441
0.0116385
0.011294
0.0109049
0.0104642
0.0099647
0.00939652
0.00875151
0.00801301
0.00717882
0.00621233
0.00513308
0.00388018
0.00245665
0.00090383
-0.0376442
-0.0387413
-0.0368571
-0.0332919
-0.0294563
-0.0259395
-0.0227106
-0.019524
-0.0163029
-0.0131901
-0.0102381
-0.00736348
-0.00460554
-0.00209944
0.000137615
0.00217401
0.00402381
0.00566004
0.00708219
0.00831258
0.00936937
0.0102656
0.0110164
0.0116386
0.0121481
0.0125594
0.0128858
0.0131395
0.0133311
0.0134699
0.0135639
0.01362
0.0136435
0.0136392
0.0136104
0.0135599
0.0134896
0.0134005
0.0132933
0.0131678
0.0130233
0.0128587
0.0126722
0.0124615
0.0122238
0.0119556
0.0116529
0.0113109
0.0109239
0.0104851
0.00998704
0.00942002
0.00877585
0.00803759
0.00720323
0.00623549
0.00515382
0.00389789
0.00246717
0.00090799
-0.0315619
-0.0328371
-0.0315391
-0.02873
-0.0256146
-0.0227254
-0.0200578
-0.0173946
-0.014665
-0.0120089
-0.00946843
-0.00694224
-0.00446418
-0.00218384
-0.00013077
0.00176461
0.00351756
0.00509394
0.00648462
0.00770665
0.00877415
0.00969551
0.0104813
0.0111449
0.0116991
0.0121564
0.0125285
0.0128261
0.0130592
0.0132363
0.0133654
0.0134529
0.0135045
0.0135248
0.0135176
0.0134858
0.0134316
0.0133563
0.0132608
0.0131453
0.0130093
0.0128518
0.0126713
0.0124657
0.0122324
0.011968
0.0116685
0.0113292
0.0109446
0.0105078
0.0100115
0.00944582
0.00880264
0.00806476
0.00723022
0.00626126
0.00517695
0.00391767
0.0024793
0.000912579
-0.025963
-0.0272959
-0.0264478
-0.0242715
-0.0217792
-0.0194421
-0.0172725
-0.0150775
-0.0127945
-0.010563
-0.00841512
-0.00623092
-0.00403633
-0.00199243
-0.000139535
0.00159391
0.00322584
0.00471693
0.0060508
0.00723998
0.00829517
0.00922073
0.010023
0.0107119
0.0112974
0.0117895
0.0121981
0.0125323
0.0128009
0.013012
0.0131726
0.0132891
0.013367
0.0134108
0.0134245
0.013411
0.0133726
0.0133112
0.0132275
0.0131221
0.0129948
0.0128447
0.0126706
0.0124704
0.0122417
0.0119813
0.0116854
0.0113491
0.0109671
0.0105326
0.0100383
0.00947415
0.00883213
0.00809478
0.00726009
0.00628994
0.00520277
0.00393978
0.00249324
0.000917799
-0.0207696
-0.022112
-0.0216203
-0.0199708
-0.0180091
-0.0161491
-0.014414
-0.0126314
-0.0107477
-0.00890401
-0.00712342
-0.00526725
-0.00335204
-0.00154777
9.59731e-05
0.00165313
0.00314555
0.00453065
0.00578605
0.00692057
0.00794238
0.0088524
0.00965284
0.0103509
0.0109536
0.0114685
0.0119033
0.0122657
0.0125631
0.0128025
0.0129905
0.0131327
0.0132343
0.0132999
0.0133331
0.013337
0.0133141
0.0132661
0.0131942
0.013099
0.0129805
0.012838
0.0126704
0.0124759
0.0122521
0.011996
0.0117038
0.0113708
0.0109917
0.0105598
0.0100676
0.00950528
0.00886461
0.00812795
0.00729318
0.00632183
0.00523164
0.00396452
0.00250923
0.000923825
-0.0159781
-0.0173055
-0.0170884
-0.0158676
-0.0143497
-0.0128958
-0.0115345
-0.01011
-0.00857815
-0.00708288
-0.00563957
-0.00409147
-0.002445
-0.000876948
0.000555204
0.00192817
0.00326839
0.00453156
0.00569081
0.00675228
0.00772227
0.00859853
0.00938094
0.0100719
0.0106774
0.0112025
0.0116527
0.012034
0.0123525
0.012614
0.0128241
0.012988
0.0131103
0.0131951
0.013246
0.013266
0.0132576
0.0132224
0.0131619
0.0130767
0.0129669
0.012832
0.0126711
0.0124824
0.0122637
0.0120121
0.0117239
0.0113945
0.0110186
0.0105895
0.0100998
0.00953949
0.00890038
0.00816459
0.00732985
0.0063573
0.00526394
0.00399225
0.00252748
0.000930823
-0.0115987
-0.0128744
-0.0128585
-0.0119831
-0.010834
-0.0097227
-0.00867903
-0.00756113
-0.0063346
-0.00514771
-0.00400895
-0.00274475
-0.00135126
-1.0384e-05
0.00121366
0.00240051
0.00358163
0.00471189
0.00576107
0.0067341
0.00763704
0.00846328
0.00921212
0.00988212
0.010477
0.0109997
0.0114542
0.0118447
0.012176
0.0124525
0.012679
0.0128597
0.0129987
0.0130998
0.013166
0.0132003
0.013205
0.0131817
0.0131319
0.0130562
0.0129549
0.0128275
0.0126732
0.0124904
0.012277
0.0120301
0.0117461
0.0114206
0.0110481
0.010622
0.0101351
0.00957708
0.00893978
0.00820507
0.00737049
0.00639674
0.0053001
0.00402337
0.00254825
0.000938961
-0.00759643
-0.00879837
-0.00892944
-0.00833179
-0.00748716
-0.00666168
-0.00588457
-0.0050257
-0.0040607
-0.00314277
-0.00227463
-0.0012674
-0.000107376
0.00101979
0.00204422
0.00304818
0.00406832
0.00505958
0.00598903
0.00686009
0.00768563
0.00845316
0.00915287
0.00978794
0.0103589
0.0108672
0.0113148
0.0117047
0.01204
0.0123241
0.0125605
0.0127527
0.012904
0.0130176
0.0130963
0.0131426
0.0131585
0.0131458
0.0131056
0.0130388
0.0129454
0.0128252
0.0126774
0.0125005
0.0122924
0.0120503
0.0117707
0.0114492
0.0110804
0.0106577
0.0101738
0.0096184
0.00898319
0.00824978
0.00741555
0.00644061
0.00534056
0.00405831
0.00257186
0.000948412
-0.00394669
-0.00506625
-0.00530038
-0.00492209
-0.00432529
-0.00373597
-0.00318037
-0.00253788
-0.00179404
-0.0011075
-0.000476202
0.000302227
0.00125062
0.00218071
0.0030179
0.00384702
0.00470961
0.0055609
0.00636375
0.00710865
0.00786674
0.00856254
0.00920399
0.00979236
0.0103276
0.01081
0.0112403
0.0116198
0.0119504
0.0122343
0.0124738
0.0126717
0.0128303
0.0129524
0.0130401
0.0130955
0.0131206
0.0131166
0.0130848
0.0130257
0.0129396
0.0128261
0.0126845
0.0125132
0.0123104
0.0120732
0.0117981
0.0114808
0.011116
0.0106969
0.0102163
0.00966381
0.00903099
0.00829914
0.00746549
0.0064894
0.00538585
0.00409758
0.00259865
0.000959365
-0.000624221
-0.00166057
-0.00196822
-0.0017608
-0.00136185
-0.000963135
-0.000589187
-0.000125296
0.000433831
0.000923944
0.0013508
0.00192837
0.00268787
0.00343956
0.00410488
0.00477091
0.00548503
0.00620688
0.00690374
0.00758794
0.00819933
0.00879822
0.0093661
0.00989578
0.0103847
0.0108312
0.0112345
0.0115945
0.0119119
0.0121879
0.0124237
0.0126211
0.0127819
0.0129078
0.0130007
0.0130621
0.0130936
0.0130964
0.0130712
0.0130186
0.0129387
0.0128312
0.0126952
0.0125294
0.0123316
0.0120992
0.0118288
0.0115158
0.0111551
0.01074
0.010263
0.00971371
0.00908363
0.00835362
0.00752082
0.00654364
0.00543653
0.00414172
0.00262902
0.000972032
0.00239192
0.00144145
0.00108657
0.00115817
0.00139561
0.00163811
0.00186796
0.00218876
0.00259655
0.00292224
0.00317509
0.00357862
0.00417148
0.0047648
0.00527487
0.00579024
0.00636247
0.0069519
0.00752395
0.00807901
0.00861481
0.00913288
0.00962695
0.0100931
0.0105286
0.0109312
0.0112992
0.0116317
0.0119281
0.0121888
0.0124141
0.012605
0.0127623
0.0128874
0.0129814
0.0130453
0.0130803
0.0130872
0.0130667
0.013019
0.0129441
0.0128416
0.0127106
0.0125497
0.0123567
0.0121291
0.0118632
0.0115547
0.0111983
0.0107873
0.0103142
0.00976854
0.00914154
0.00841371
0.00758208
0.00660391
0.00549322
0.00419137
0.00266342
0.000986654
0.00512475
0.004258
0.00387493
0.00384282
0.00395299
0.00407169
0.00418414
0.00438906
0.00467365
0.00486407
0.00497253
0.00523088
0.00568291
0.00613469
0.00650368
0.00688049
0.00732039
0.0077855
0.0082407
0.00868724
0.00912939
0.00956251
0.00998021
0.0103788
0.0107557
0.0111084
0.0114344
0.0117323
0.0120009
0.0122396
0.012448
0.0126264
0.012775
0.0128944
0.0129851
0.0130478
0.013083
0.0130914
0.0130733
0.0130286
0.0129573
0.0128586
0.0127318
0.0125751
0.0123865
0.0121633
0.0119019
0.0115979
0.011246
0.0108394
0.0103705
0.00982873
0.00920521
0.00847991
0.00764984
0.00667085
0.0055566
0.00424721
0.00270238
0.00100351
0.00759567
0.00680829
0.00641103
0.0063001
0.00631001
0.00633024
0.00635032
0.0064634
0.00664851
0.00672771
0.0067152
0.00684845
0.00717665
0.00750827
0.00775671
0.00801268
0.00833466
0.00868701
0.00903481
0.00938002
0.00972883
0.0100766
0.0104168
0.0107456
0.0110606
0.0113588
0.0116379
0.0118956
0.0121305
0.0123414
0.0125273
0.0126877
0.0128223
0.0129312
0.0130143
0.0130719
0.0131041
0.0131111
0.0130928
0.0130491
0.0129796
0.0128835
0.0127596
0.0126064
0.0124217
0.0122026
0.0119455
0.011646
0.0112987
0.0108967
0.0104323
0.00989473
0.00927511
0.00855273
0.00772468
0.00674509
0.00562737
0.00431
0.00274649
0.00102294
0.00982463
0.0091112
0.0087099
0.00853992
0.00847169
0.00841482
0.00836311
0.00840447
0.0085104
0.00849988
0.00838892
0.00841906
0.00864355
0.00887206
0.00901621
0.00916646
0.00938371
0.00963443
0.00988433
0.0101359
0.0103961
0.0106613
0.010925
0.0111838
0.0114353
0.0116766
0.0119052
0.0121188
0.0123155
0.0124937
0.0126521
0.0127897
0.0129057
0.0129996
0.0130711
0.0131197
0.0131454
0.0131479
0.0131269
0.013082
0.0130124
0.0129173
0.0127953
0.0126447
0.0124631
0.0122477
0.0119947
0.0116996
0.0113569
0.0109596
0.0105
0.00996699
0.0093517
0.00863265
0.00780716
0.00682726
0.00570628
0.00438057
0.00279638
0.00104533
0.0118304
0.0111848
0.0107865
0.0105731
0.0104448
0.0103284
0.0102219
0.0102081
0.0102518
0.01017
0.00998029
0.00992634
0.0100644
0.010206
0.0102616
0.010321
0.0104468
0.0106075
0.0107695
0.0109357
0.0111139
0.0113011
0.0114915
0.011682
0.0118703
0.0120539
0.0122304
0.0123972
0.0125525
0.0126945
0.0128214
0.0129321
0.0130254
0.0131004
0.0131562
0.0131924
0.0132083
0.0132033
0.0131769
0.0131284
0.0130569
0.0129611
0.0128397
0.0126906
0.0125115
0.0122992
0.01205
0.0117592
0.0114211
0.0110286
0.010574
0.0100459
0.00943537
0.0087201
0.00789778
0.00691794
0.00579405
0.00445976
0.00285274
0.00107114
0.0136299
0.0130457
0.0126553
0.0124107
0.0122368
0.0120753
0.0119277
0.0118723
0.0118676
0.0117301
0.0114786
0.0113572
0.0114239
0.0114931
0.0114749
0.0114576
0.0115047
0.0115869
0.0116714
0.0117613
0.011865
0.0119802
0.0121019
0.0122272
0.0123544
0.0124813
0.0126053
0.0127244
0.0128366
0.0129399
0.0130326
0.0131132
0.0131804
0.013233
0.0132699
0.0132903
0.0132933
0.013278
0.0132436
0.0131893
0.0131137
0.0130157
0.0128934
0.0127449
0.0125674
0.0123578
0.012112
0.0118252
0.0114917
0.0111042
0.0106548
0.0101318
0.00952646
0.00881538
0.00799689
0.00701756
0.00589128
0.0045484
0.00291625
0.0011009
0.0152445
0.0147154
0.0143354
0.0140684
0.0138597
0.0136638
0.0134857
0.0133987
0.0133561
0.0131752
0.0128762
0.012701
0.0127091
0.0127185
0.0126395
0.0125583
0.0125389
0.0125536
0.0125709
0.0125937
0.0126311
0.0126815
0.0127402
0.0128051
0.0128747
0.0129471
0.0130202
0.013092
0.0131606
0.0132242
0.013281
0.0133295
0.0133682
0.0133957
0.0134109
0.0134127
0.0134
0.0133718
0.0133271
0.0132647
0.0131833
0.0130813
0.012957