/*--------------------------------*- C++ -*----------------------------------*\
| =========                 |                                                 |
| \\      /  F ield         | OpenFOAM: The Open Source CFD Toolbox           |
|  \\    /   O peration     | Version:  2512                                  |
|   \\  /    A nd           | Website:  www.openfoam.com                      |
|    \\/     M anipulation  |                                                 |
\*---------------------------------------------------------------------------*/
FoamFile
{
    version     2.0;
    format      ascii;
    arch        "LSB;label=32;scalar=64";
    class       volScalarField;
    location    "129";
    object      p;
}
// * * * * * * * * * * * * * * * * * * * * * * * * * * * * * * * * * * * * * //

dimensions      [0 2 -2 0 0 0 0];

internalField   nonuniform List<scalar> 
13248
(
-0.471517
-0.468252
-0.464842
-0.461528
-0.458581
-0.456281
-0.45472
-0.453769
-0.453107
-0.452258
-0.450643
-0.447656
-0.442742
-0.435475
-0.425609
-0.413106
-0.398121
-0.380964
-0.362032
-0.341762
-0.320458
-0.298525
-0.275231
-0.251278
-0.480447
-0.476604
-0.472515
-0.468434
-0.464613
-0.461307
-0.458556
-0.456165
-0.453747
-0.450787
-0.446722
-0.441036
-0.433333
-0.423396
-0.411204
-0.39691
-0.380799
-0.36323
-0.344572
-0.325166
-0.305277
-0.285151
-0.264678
-0.244584
-0.491059
-0.486409
-0.481547
-0.476679
-0.471969
-0.467594
-0.463507
-0.459426
-0.454913
-0.44947
-0.442633
-0.43406
-0.423577
-0.411194
-0.397075
-0.381492
-0.364768
-0.347225
-0.32915
-0.310789
-0.292319
-0.273934
-0.255561
-0.237569
-0.503545
-0.497851
-0.492103
-0.486389
-0.480701
-0.475089
-0.46939
-0.463246
-0.456225
-0.447931
-0.438089
-0.426593
-0.413501
-0.399009
-0.383387
-0.366935
-0.349933
-0.332621
-0.315196
-0.297813
-0.280596
-0.263678
-0.247022
-0.230997
-0.517901
-0.510953
-0.504204
-0.497538
-0.490696
-0.483563
-0.475862
-0.467216
-0.457288
-0.445882
-0.432978
-0.418713
-0.403331
-0.387129
-0.370397
-0.353386
-0.336298
-0.319282
-0.30245
-0.285889
-0.269669
-0.25386
-0.238443
-0.223641
-0.53395
-0.525601
-0.517745
-0.509977
-0.501708
-0.492647
-0.482458
-0.470841
-0.457669
-0.443022
-0.427146
-0.410374
-0.393054
-0.375494
-0.357933
-0.340544
-0.32344
-0.306692
-0.290347
-0.274441
-0.259002
-0.244057
-0.229602
-0.215774
-0.551354
-0.541533
-0.532479
-0.523397
-0.513318
-0.50181
-0.488589
-0.47357
-0.456934
-0.439066
-0.420433
-0.401478
-0.38256
-0.363929
-0.345743
-0.328084
-0.31099
-0.294469
-0.278522
-0.263143
-0.248328
-0.234074
-0.220378
-0.207276
-0.569598
-0.558313
-0.547967
-0.537283
-0.524902
-0.510357
-0.493577
-0.474833
-0.454669
-0.433741
-0.412645
-0.39184
-0.37162
-0.352143
-0.333473
-0.315613
-0.298538
-0.282211
-0.266596
-0.251657
-0.237367
-0.223702
-0.210654
-0.198171
-0.587959
-0.575289
-0.56354
-0.550879
-0.535629
-0.517462
-0.496708
-0.474094
-0.450516
-0.426806
-0.403592
-0.381259
-0.359996
-0.339858
-0.32082
-0.302822
-0.285789
-0.269649
-0.254336
-0.239794
-0.225972
-0.212835
-0.200358
-0.188423
-0.605491
-0.591568
-0.578266
-0.563182
-0.544487
-0.522222
-0.497283
-0.470873
-0.444159
-0.418036
-0.393062
-0.369503
-0.347427
-0.326789
-0.307492
-0.289422
-0.272469
-0.256532
-0.241521
-0.22736
-0.213983
-0.201344
-0.189386
-0.177967
-0.62105
-0.606024
-0.590966
-0.572976
-0.55033
-0.523674
-0.494559
-0.464611
-0.435143
-0.407004
-0.380619
-0.356111
-0.333432
-0.31245
-0.293009
-0.274954
-0.258144
-0.242455
-0.227777
-0.214018
-0.201099
-0.188957
-0.177497
-0.166597
-0.633403
-0.617455
-0.600421
-0.579048
-0.552027
-0.520819
-0.487654
-0.454488
-0.422659
-0.392884
-0.365416
-0.340231
-0.317169
-0.296022
-0.276586
-0.258669
-0.242105
-0.22675
-0.212477
-0.199182
-0.186777
-0.175181
-0.164271
-0.15399
-0.347388
-0.350118
-0.351832
-0.353072
-0.354287
-0.355582
-0.35698
-0.358442
-0.359949
-0.361432
-0.362812
-0.363983
-0.364838
-0.365263
-0.365145
-0.364382
-0.362897
-0.360646
-0.357645
-0.353974
-0.349772
-0.345194
-0.340509
-0.336361
-0.359892
-0.362431
-0.3642
-0.36572
-0.367411
-0.369366
-0.371589
-0.374045
-0.376669
-0.37936
-0.382047
-0.384543
-0.386685
-0.388282
-0.389125
-0.388997
-0.387688
-0.385013
-0.380842
-0.375127
-0.367879
-0.359124
-0.349082
-0.338858
-0.373281
-0.375404
-0.377096
-0.378811
-0.380908
-0.383462
-0.386462
-0.389854
-0.393559
-0.397463
-0.401363
-0.405128
-0.40851
-0.411233
-0.41299
-0.413448
-0.412262
-0.409105
-0.403696
-0.395847
-0.385454
-0.372431
-0.356872
-0.340295
-0.387013
-0.388528
-0.390001
-0.391789
-0.394165
-0.397185
-0.400817
-0.404989
-0.409591
-0.414478
-0.419455
-0.424273
-0.428665
-0.432271
-0.434692
-0.435487
-0.434195
-0.430362
-0.423582
-0.413541
-0.400065
-0.383057
-0.36242
-0.339316
-0.400479
-0.401252
-0.402372
-0.404078
-0.406551
-0.40983
-0.413868
-0.418569
-0.423796
-0.429371
-0.435067
-0.440599
-0.445612
-0.449692
-0.452357
-0.453076
-0.451294
-0.446468
-0.438107
-0.425832
-0.409443
-0.388897
-0.364148
-0.335606
-0.413108
-0.413089
-0.413741
-0.415192
-0.417542
-0.42082
-0.424971
-0.429879
-0.435389
-0.441274
-0.447277
-0.453069
-0.458236
-0.462301
-0.464715
-0.464878
-0.462173
-0.456013
-0.445892
-0.431445
-0.41252
-0.389119
-0.361705
-0.329631
-0.424471
-0.423696
-0.4238
-0.424826
-0.426815
-0.429807
-0.43375
-0.438516
-0.44392
-0.449718
-0.455604
-0.461202
-0.466053
-0.469622
-0.471308
-0.470468
-0.466464
-0.458715
-0.446763
-0.430326
-0.409409
-0.384041
-0.35551
-0.32189
-0.434363
-0.432939
-0.432452
-0.4329
-0.434307
-0.436737
-0.440158
-0.444442
-0.449387
-0.45472
-0.460098
-0.465097
-0.469212
-0.471861
-0.472406
-0.470193
-0.464603
-0.455119
-0.441396
-0.423291
-0.401046
-0.374713
-0.346169
-0.312843
-0.442839
-0.44091
-0.439823
-0.439579
-0.440221
-0.44186
-0.444496
-0.448013
-0.452198
-0.456753
-0.461296
-0.465353
-0.46837
-0.469728
-0.468773
-0.464872
-0.45748
-0.446202
-0.430867
-0.411524
-0.388623
-0.362333
-0.334603
-0.30297
-0.450211
-0.447915
-0.44624
-0.445232
-0.44499
-0.445683
-0.44735
-0.449891
-0.453091
-0.456623
-0.460055
-0.462865
-0.46445
-0.464167
-0.46138
-0.455524
-0.446181
-0.433137
-0.416428
-0.396327
-0.373422
-0.348077
-0.321913
-0.292816
-0.457006
-0.454424
-0.452173
-0.450369
-0.449188
-0.448857
-0.449444
-0.450879
-0.452925
-0.455218
-0.457275
-0.458523
-0.458327
-0.456054
-0.451132
-0.443125
-0.431786
-0.417107
-0.399307
-0.378843
-0.356342
-0.332421
-0.308311
-0.282313
-0.463885
-0.461008
-0.458175
-0.455577
-0.453458
-0.452085
-0.451575
-0.451828
-0.452582
-0.453425
-0.45382
-0.453155
-0.450801
-0.44619
-0.43888
-0.428612
-0.415347
-0.399255
-0.380678
-0.360114
-0.33805
-0.315196
-0.292236
-0.269187
-0.332999
-0.33135
-0.332691
-0.336653
-0.342473
-0.34861
-0.353031
-0.352534
-0.345194
-0.329039
-0.303309
-0.269591
-0.231837
-0.195253
-0.164542
-0.142538
-0.129951
-0.12642
-0.132118
-0.147663
-0.171214
-0.195653
-0.210006
-0.206074
-0.184025
-0.152361
-0.121114
-0.0964855
-0.0804907
-0.0724689
-0.0709313
-0.0760866
-0.0895428
-0.108897
-0.124518
-0.125998
-0.112844
-0.0928425
-0.0756091
-0.0646511
-0.0593375
-0.0608779
-0.0702934
-0.0826687
-0.0875799
-0.0801506
-0.0676606
-0.055322
-0.0466697
-0.0422628
-0.0412539
-0.0418086
-0.0404317
-0.0372148
-0.0335724
-0.0284166
-0.021486
-0.0195632
-0.0167763
-0.00714142
-0.328548
-0.317422
-0.309217
-0.304039
-0.301872
-0.301759
-0.301724
-0.299648
-0.293209
-0.280213
-0.259686
-0.232891
-0.203001
-0.17433
-0.150829
-0.134914
-0.127343
-0.128316
-0.138681
-0.15909
-0.186846
-0.213702
-0.227828
-0.22216
-0.196836
-0.161429
-0.126797
-0.0993096
-0.0807384
-0.0702719
-0.0663525
-0.0687666
-0.0789452
-0.0952931
-0.109444
-0.111752
-0.101267
-0.0846525
-0.0707724
-0.0627799
-0.0600067
-0.0642167
-0.0763461
-0.0908891
-0.0966388
-0.087782
-0.0728378
-0.0577187
-0.0469833
-0.0404898
-0.0375753
-0.0369996
-0.03526
-0.0332159
-0.0306284
-0.0274679
-0.0222927
-0.0215193
-0.0194744
-0.00835516
-0.323778
-0.303028
-0.284803
-0.269812
-0.258616
-0.250902
-0.245395
-0.240527
-0.233779
-0.224817
-0.210077
-0.190584
-0.168836
-0.148265
-0.132056
-0.122242
-0.119727
-0.125302
-0.140331
-0.165261
-0.196611
-0.225448
-0.238884
-0.232979
-0.205513
-0.167518
-0.130426
-0.100764
-0.0800984
-0.0674888
-0.0613671
-0.0611888
-0.0681336
-0.0813834
-0.0939873
-0.0975677
-0.0891139
-0.0758155
-0.0652404
-0.0602123
-0.0600252
-0.0669229
-0.0816928
-0.0983221
-0.104971
-0.0948621
-0.0775845
-0.05978
-0.0470779
-0.0387251
-0.0341018
-0.0324537
-0.030223
-0.0291942
-0.0275759
-0.0264688
-0.0230784
-0.0234246
-0.0221236
-0.00955579
-0.318501
-0.288963
-0.261318
-0.237299
-0.217005
-0.201036
-0.188965
-0.180198
-0.172488
-0.164741
-0.156571
-0.143817
-0.129925
-0.117165
-0.107968
-0.104054
-0.106487
-0.116634
-0.136155
-0.165188
-0.199714
-0.230674
-0.247134
-0.238642
-0.209882
-0.170484
-0.131972
-0.100922
-0.0787375
-0.0643857
-0.0563265
-0.0537764
-0.0576663
-0.0678275
-0.0786825
-0.082679
-0.0766547
-0.0665714
-0.0591439
-0.0569666
-0.0592849
-0.0687559
-0.0860322
-0.104678
-0.112299
-0.101205
-0.0818161
-0.0614868
-0.046959
-0.0369839
-0.0308631
-0.0282197
-0.0253781
-0.0251982
-0.0244456
-0.0254307
-0.0238413
-0.0252592
-0.0246967
-0.0107303
-0.311342
-0.275357
-0.239358
-0.209903
-0.181232
-0.15719
-0.137718
-0.123449
-0.113344
-0.105004
-0.101673
-0.0943539
-0.0872826
-0.0815793
-0.0788933
-0.0805491
-0.0878875
-0.10263
-0.126447
-0.159097
-0.196218
-0.228758
-0.245833
-0.238477
-0.209937
-0.170469
-0.131663
-0.100002
-0.0768477
-0.061179
-0.0515105
-0.0468978
-0.0479678
-0.0551099
-0.0640656
-0.0681975
-0.0642859
-0.0571558
-0.0525953
-0.0530376
-0.0576741
-0.0695209
-0.0891296
-0.109684
-0.118351
-0.106629
-0.0854614
-0.0628387
-0.0466447
-0.035275
-0.027869
-0.0243324
-0.0207809
-0.0212761
-0.0212685
-0.0243639
-0.0245786
-0.0269996
-0.0271629
-0.0118666
-0.302605
-0.264051
-0.224639
-0.187674
-0.152911
-0.122321
-0.0960353
-0.0747544
-0.0627675
-0.0551382
-0.0495604
-0.0459697
-0.0438348
-0.0438493
-0.0466969
-0.0534912
-0.0656439
-0.0848783
-0.112578
-0.148095
-0.187014
-0.220713
-0.23875
-0.232991
-0.205888
-0.167698
-0.129717
-0.0982135
-0.0746059
-0.0580164
-0.0470734
-0.0407609
-0.0393696
-0.0436342
-0.0505844
-0.0545906
-0.052374
-0.0477959
-0.0457106
-0.0484517
-0.0551542
-0.0691121
-0.0908075
-0.113109
-0.122926
-0.111018
-0.0884655
-0.0638363
-0.0461499
-0.0335962
-0.0251133
-0.0208127
-0.0164769
-0.0174706
-0.0180744
-0.0232747
-0.0252845
-0.0286207
-0.0294929
-0.0129517
-0.293257
-0.254462
-0.214295
-0.174808
-0.136628
-0.101397
-0.0703153
-0.0448203
-0.0262761
-0.0141253
-0.00698389
-0.00378886
-0.00451452
-0.00811552
-0.0150084
-0.0260529
-0.0424487
-0.0655931
-0.0963614
-0.133739
-0.173517
-0.207848
-0.226832
-0.222988
-0.198284
-0.162541
-0.126393
-0.0957578
-0.0721663
-0.0550032
-0.0430932
-0.0354153
-0.0319898
-0.0336393
-0.0385737
-0.0422057
-0.0412407
-0.0387348
-0.0386513
-0.043309
-0.0517517
-0.0674817
-0.0909564
-0.114825
-0.125908
-0.114276
-0.0907759
-0.0644761
-0.0454871
-0.0319427
-0.0225746
-0.0176584
-0.0124991
-0.0138183
-0.0148907
-0.022166
-0.0259518
-0.0301007
-0.0316567
-0.0139709
-0.283837
-0.24659
-0.20854
-0.170021
-0.131464
-0.094534
-0.0607393
-0.0315128
-0.00794937
0.00932603
0.0205809
0.0260164
0.0254823
0.0209276
0.0120451
-0.00167337
-0.0210384
-0.0469082
-0.0795339
-0.117602
-0.157255
-0.191482
-0.211121
-0.209345
-0.187752
-0.155383
-0.121898
-0.0927516
-0.0696059
-0.0521858
-0.039591
-0.0308626
-0.0258121
-0.025202
-0.0281985
-0.0312714
-0.0311651
-0.0302135
-0.0316153
-0.0377456
-0.0475514
-0.0646696
-0.0895535
-0.114829
-0.127233
-0.116296
-0.092349
-0.0647637
-0.0446708
-0.0303205
-0.0202406
-0.0148513
-0.00886341
-0.0103488
-0.0117428
-0.021038
-0.0265712
-0.0314225
-0.0336264
-0.0149105
-0.274565
-0.240144
-0.206165
-0.170869
-0.134253
-0.0980978
-0.063864
-0.0327282
-0.0058022
0.0158697
0.0316602
0.0408803
0.0430853
0.0400822
0.0315128
0.0171822
-0.0033138
-0.0302707
-0.0633225
-0.100884
-0.139446
-0.172768
-0.192656
-0.193004
-0.175036
-0.146739
-0.116553
-0.089407
-0.0670944
-0.049707
-0.0366759
-0.0271697
-0.0208615
-0.0183701
-0.0195495
-0.0219112
-0.0223994
-0.0224037
-0.0248039
-0.031944
-0.0426465
-0.060704
-0.0866813
-0.113191
-0.126882
-0.117054
-0.093202
-0.0647706
-0.0437588
-0.0287626
-0.0181269
-0.0124051
-0.00557646
-0.00708097
-0.00865341
-0.0198888
-0.0271324
-0.0325687
-0.0353783
-0.0157633
-0.265705
-0.235094
-0.205956
-0.174657
-0.141218
-0.107556
-0.0747053
-0.0435246
-0.0152282
0.00894516
0.0280604
0.0409478
0.0481006
0.0483073
0.0420919
0.0292301
0.00959687
-0.0166428
-0.0485726
-0.084415
-0.120972
-0.152574
-0.172378
-0.175051
-0.161167
-0.137474
-0.11106
-0.0863092
-0.0651424
-0.0480007
-0.034685
-0.0245718
-0.0172585
-0.0132008
-0.012697
-0.0142105
-0.0147623
-0.0154494
-0.0183779
-0.0260475
-0.0372569
-0.0558504
-0.0824417
-0.109945
-0.12491
-0.11661
-0.0933839
-0.0646159
-0.0428657
-0.0273144
-0.0162267
-0.0103581
-0.00268864
-0.00402924
-0.00564142
-0.0187152
-0.0276236
-0.0335188
-0.0368893
-0.0165225
-0.257762
-0.232037
-0.207512
-0.179686
-0.149577
-0.119083
-0.0885135
-0.0582881
-0.0295081
-0.00355669
0.0183512
0.034881
0.0440976
0.0477094
0.0451137
0.0353872
0.0183774
-0.00564835
-0.0354006
-0.0688447
-0.102723
-0.132383
-0.151162
-0.155881
-0.146261
-0.127611
-0.105402
-0.0833961
-0.0636478
-0.0469345
-0.0334419
-0.0228531
-0.0147502
-0.00938068
-0.00733091
-0.00800951
-0.00849293
-0.00964271
-0.0126268
-0.0202598
-0.0313397
-0.0499465
-0.077125
-0.105533
-0.121374
-0.11481
-0.0926526
-0.0640906
-0.0419064
-0.0258756
-0.0144037
-0.0085484
-0.00024528
-0.00125974
-0.00272711
-0.0174951
-0.0280351
-0.0342612
-0.038134
-0.0171661
-0.249931
-0.231496
-0.211386
-0.186625
-0.160099
-0.133245
-0.105922
-0.0784215
-0.0514586
-0.025948
-0.00247371
0.0167061
0.03124
0.0387274
0.0398375
0.0344283
0.0217727
0.0021687
-0.0232348
-0.0523493
-0.0823562
-0.109467
-0.127791
-0.133355
-0.12792
-0.114347
-0.0964512
-0.0774684
-0.0595978
-0.0438615
-0.0307034
-0.0201105
-0.0117494
-0.00559111
-0.00230841
-0.00223972
-0.00286857
-0.00474274
-0.0075832
-0.0149925
-0.0257368
-0.043802
-0.0707583
-0.0994902
-0.116302
-0.111079
-0.0903822
-0.0622824
-0.0401807
-0.0239984
-0.0124016
-0.00652414
0.00214754
0.0013489
2.00049e-05
-0.016256
-0.0283457
-0.034769
-0.0391102
-0.0176706
-0.229646
-0.223882
-0.204168
-0.179581
-0.154851
-0.13026
-0.105146
-0.0796076
-0.0543653
-0.0301593
-0.00751852
0.0102012
0.0238309
0.0321858
0.0351353
0.0317865
0.0213758
0.00396449
-0.0192536
-0.0462111
-0.0741396
-0.0987266
-0.115006
-0.119578
-0.114331
-0.101999
-0.0859682
-0.0689422
-0.0527811
-0.0383493
-0.0260473
-0.0159326
-0.00777664
-0.00145664
0.00250228
0.00340546
0.00318845
0.00338738
-0.00103976
-0.00771335
-0.0177061
-0.0356567
-0.0639008
-0.0948599
-0.113772
-0.109375
-0.0879382
-0.0594806
-0.0375639
-0.0216853
-0.0103641
-0.00434395
0.00491784
0.00434818
0.00317972
-0.0147751
-0.0286971
-0.0351289
-0.0399214
-0.0180493
-0.210846
-0.208224
-0.190142
-0.167007
-0.144425
-0.122632
-0.100585
-0.0780885
-0.0557549
-0.0344256
-0.015316
0.00156484
0.0144248
0.0228176
0.02619
0.0238503
0.0152569
0.00047896
-0.0194258
-0.0425115
-0.0661008
-0.0862304
-0.0992193
-0.102856
-0.0983479
-0.0880972
-0.0746938
-0.0601952
-0.0461169
-0.0332264
-0.021935
-0.0124445
-0.00463632
0.00166023
0.00595202
0.00725719
0.00701865
0.00566057
0.00323522
-0.00253887
-0.0115637
-0.0289585
-0.0577408
-0.0896583
-0.108979
-0.104337
-0.083484
-0.055874
-0.0346894
-0.0192967
-0.00832604
-0.00233242
0.00697453
0.00652198
0.00569723
-0.0135672
-0.0290869
-0.0352843
-0.0402804
-0.0182266
-0.193531
-0.191454
-0.176058
-0.155524
-0.135341
-0.116145
-0.0969166
-0.0772623
-0.057656
-0.0388727
-0.0217574
-0.00680057
0.00493115
0.0127492
0.01613
0.0145863
0.00776633
-0.00417101
-0.020262
-0.0387669
-0.0573979
-0.0733295
-0.0837181
-0.086902
-0.0836708
-0.0756477
-0.0646902
-0.0524044
-0.0401046
-0.0285475
-0.0181643
-0.00922857
-0.00175626
0.00440184
0.00886896
0.0105285
0.0104263
0.00919523
0.0069451
0.00157806
-0.00697507
-0.0239801
-0.0523051
-0.0832007
-0.102089
-0.0978221
-0.0781391
-0.051872
-0.0315985
-0.016822
-0.00625595
-0.0003501
0.00885424
0.00842146
0.00776725
-0.0126067
-0.029443
-0.0351835
-0.0402107
-0.018254
-0.176039
-0.17521
-0.162689
-0.144949
-0.12712
-0.110236
-0.0935058
-0.0764366
-0.059324
-0.0428357
-0.0276861
-0.0144849
-0.00395628
0.00329496
0.00681814
0.00623085
0.00131172
-0.00774262
-0.0201289
-0.0344801
-0.0490243
-0.061566
-0.0699293
-0.0729008
-0.0707109
-0.0644255
-0.0554557
-0.045072
-0.0343796
-0.0240828
-0.0146047
-0.00624611
0.000860992
0.00680036
0.0113434
0.0133552
0.0135698
0.0125579
0.0105951
0.00563014
-0.00259552
-0.0189888
-0.045998
-0.0754219
-0.0940151
-0.0902468
-0.0719103
-0.0473473
-0.0282672
-0.0142561
-0.00414872
0.001607
0.010599
0.0101888
0.00965331
-0.0116433
-0.0296154
-0.0347968
-0.0397162
-0.0181085
-0.159571
-0.16007
-0.149964
-0.134777
-0.119198
-0.104453
-0.0899779
-0.0752636
-0.0604564
-0.0461141
-0.0328627
-0.0212464
-0.0118074
-0.00503455
-0.00132515
-0.000985932
-0.0041571
-0.0106668
-0.0199012
-0.0307902
-0.0419002
-0.0516325
-0.0582793
-0.0608588
-0.0593489
-0.0544252
-0.0471102
-0.038367
-0.0290965
-0.0199424
-0.0113245
-0.00354235
0.00319958
0.00888045
0.0134103
0.0157122
0.016309
0.0156467
0.0141699
0.00980267
0.00218629
-0.0130598
-0.0384919
-0.0666194
-0.0847408
-0.0815359
-0.064815
-0.0423502
-0.0247365
-0.0116287
-0.00202267
0.00353963
0.0121745
0.0117982
0.0114437
-0.0105312
-0.0295141
-0.0340908
-0.0387259
-0.0177467
-0.144796
-0.145891
-0.137712
-0.124861
-0.111449
-0.0987253
-0.086311
-0.0737319
-0.0610382
-0.0486605
-0.0371324
-0.0269211
-0.0184664
-0.0121662
-0.00835218
-0.00726547
-0.00900077
-0.0134155
-0.0200344
-0.0280169
-0.036189
-0.0435533
-0.0486511
-0.050726
-0.0496261
-0.045717
-0.0397049
-0.0323147
-0.0242717
-0.0161422
-0.00833388
-0.00112991
0.00524566
0.0106557
0.0150968
0.0176129
0.0186239
0.018462
0.017617
0.0140535
0.00736697
-0.0064173
-0.030204
-0.0568759
-0.0743134
-0.0718347
-0.0570027
-0.0369532
-0.0210451
-0.00896887
0.00010123
0.00544284
0.0135719
0.0132228
0.0131078
-0.00923534
-0.0290319
-0.032987
-0.0371619
-0.01713
-0.130961
-0.132426
-0.125982
-0.115284
-0.103896
-0.0930413
-0.0824831
-0.0718104
-0.0610086
-0.0503968
-0.0404162
-0.0314766
-0.0239407
-0.0181258
-0.0142977
-0.0126438
-0.0132318
-0.0159405
-0.0204072
-0.0260156
-0.0319914
-0.03716
-0.0408656
-0.0423695
-0.0414351
-0.0382233
-0.0332072
-0.0269204
-0.0199307
-0.0127138
-0.00565367
0.000980098
0.00698449
0.0121338
0.0164453
0.0191082
0.0205142
0.0209483
0.0208698
0.0182745
0.0126767
0.000479751
-0.021422
-0.0463939
-0.0630242
-0.0613977
-0.0486725
-0.0312631
-0.0172447
-0.00630804
0.00220049
0.00731504
0.0148029
0.0144499
0.0145959
-0.00770705
-0.0280024
-0.0313929
-0.0349714
-0.0162257
-0.117895
-0.119873
-0.11493
-0.106107
-0.0965275
-0.087359
-0.0784528
-0.069464
-0.0603326
-0.0512987
-0.0427179
-0.0349371
-0.0282528
-0.0229183
-0.0191438
-0.0170761
-0.0167655
-0.0181177
-0.0208631
-0.0245371
-0.0285619
-0.0321186
-0.0346305
-0.0355375
-0.0345961
-0.031844
-0.0275794
-0.0221805
-0.0160825
-0.00967145
-0.00329343
0.00279041
0.00841538
0.0133161
0.0174902
0.0202491
0.0219907
0.0230291
0.0238077
0.0223254
0.0179541
0.00743631
-0.0124587
-0.0356168
-0.0512806
-0.0505678
-0.0400866
-0.0254214
-0.0133961
-0.00367601
0.00425354
0.00915531
0.0158971
0.0154913
0.015898
-0.0058355
-0.0262247
-0.0292233
-0.0321359
-0.0150131
-0.105958
-0.108234
-0.104505
-0.0972929
-0.0893094
-0.0816274
-0.0741973
-0.066696
-0.0590401
-0.0514045
-0.0440765
-0.0373397
-0.0314369
-0.0265716
-0.0229105
-0.0205691
-0.0195876
-0.0198985
-0.0213027
-0.0234437
-0.0259246
-0.0281514
-0.0296478
-0.0299836
-0.0289359
-0.0264712
-0.0227634
-0.0180707
-0.0127203
-0.00701725
-0.00125691
0.00430874
0.00955006
0.0142035
0.0182446
0.0210747
0.023091
0.0246499
0.0262521
0.0260097
0.0230384
0.0141718
-0.00385287
-0.0250846
-0.0395427
-0.0397412
-0.0315461
-0.0195966
-0.00956791
-0.00109958
0.00624029
0.0109599
0.0169069
0.0164019
0.0170516
-0.00348488
-0.0235021
-0.0264028
-0.0286887
-0.0134988
-0.0950727
-0.0974089
-0.0946534
-0.0888398
-0.0822691
-0.0759145
-0.0697639
-0.0635512
-0.0571807
-0.0507729
-0.0445528
-0.0387509
-0.0335651
-0.0291588
-0.0256637
-0.0231715
-0.0217169
-0.0212529
-0.0216329
-0.0226237
-0.0238724
-0.0250156
-0.0256654
-0.0254868
-0.0242833
-0.0219864
-0.0186874
-0.0145548
-0.0098275
-0.00474244
0.000460243
0.0055452
0.0104074
0.0148065
0.018712
0.0216024
0.0238457
0.0257903
0.0280565
0.0289817
0.0273846
0.0200216
0.0038095
-0.0152235
-0.0282442
-0.0293302
-0.0233637
-0.0139708
-0.00583677
0.00139685
0.00814263
0.0127197
0.017904
0.0172824
0.0181222
-0.000543823
-0.0196946
-0.0228962
-0.0247234
-0.0117174
-0.0849545
-0.0873337
-0.0854022
-0.0807805
-0.0754266
-0.0702176
-0.0651756
-0.0600765
-0.054818
-0.0494785
-0.0442321
-0.0392643
-0.0347349
-0.0307744
-0.0274865
-0.0249443
-0.023178
-0.0221565
-0.021778
-0.0218794
-0.0222135
-0.0225047
-0.0224686
-0.021848
-0.0204763
-0.0182723
-0.0152747
-0.0115866
-0.00737792
-0.00282936
0.00187073
0.00651306
0.0110083
0.0151452
0.0188984
0.0218303
0.0242554
0.026469
0.0291311
0.0308664
0.0302735
0.024274
0.0101456
-0.00632308
-0.0178191
-0.0197479
-0.0158317
-0.00871994
-0.00228474
0.003787
0.00994218
0.0144155
0.0189574
0.0182612
0.0191908
0.00303146
-0.0147969
-0.0187493
-0.0203968
-0.00973332
-0.0756192
-0.0780332
-0.0767634
-0.073128
-0.0688026
-0.0645716
-0.0604782
-0.0563313
-0.0520262
-0.0476094
-0.0432133
-0.0389853
-0.0350536
-0.0315218
-0.0284713
-0.0259597
-0.0240141
-0.0226181
-0.0217091
-0.0211605
-0.020808
-0.020449
-0.0198766
-0.0188954
-0.0173689
-0.0152163
-0.012445
-0.00911304
-0.0053375
-0.00125373
0.00299426
0.00722988
0.011373
0.015243
0.0188212
0.0217589
0.0243048
0.0266766
0.029439
0.0314961
0.0314221
0.0266745
0.014979
0.00128259
-0.00873015
-0.0113559
-0.00917363
-0.00398508
0.00100961
0.00603825
0.0116153
0.0160086
0.0200976
0.0194575
0.0203445
0.00716627
-0.00902034
-0.0141144
-0.0159312
-0.00765418
-0.0671216
-0.0694733
-0.0687001
-0.0658738
-0.0624141
-0.0590117
-0.0557215
-0.0523807
-0.0488862
-0.04526
-0.0416012
-0.0380256
-0.0346351
-0.0315116
-0.0287187
-0.0263017
-0.0242856
-0.0226648
-0.0213966
-0.0203972
-0.0195511
-0.0187158
-0.0177419
-0.0164831
-0.0148311
-0.0127127
-0.0101184
-0.00707687
-0.00366649
1.42292e-05
0.00385585
0.00771636
0.0115233
0.0151269
0.0185078
0.0214036
0.02399
0.0264029
0.029042
0.0310451
0.0311375
0.027458
0.0182389
0.00723351
-0.00134636
-0.00436933
-0.00350233
0.000149776
0.00398365
0.00811492
0.0131283
0.0174375
0.0212785
0.0209198
0.0216596
0.011631
-0.00284552
-0.00927572
-0.0115916
-0.00561673
-0.0593467
-0.0615752
-0.0611817
-0.0590204
-0.0562843
-0.0535764
-0.0509587
-0.0482934
-0.0454817
-0.0425279
-0.039504
-0.0365002
-0.0335968
-0.030858
-0.0283329
-0.0260586
-0.0240558
-0.0223259
-0.0208411
-0.0195475
-0.018368
-0.0172025
-0.0159453
-0.0144884
-0.0127489
-0.010664
-0.00821747
-0.00541939
-0.00232118
0.00100774
0.00448401
0.00799786
0.0114844
0.014823
0.0179878
0.0207891
0.0233323
0.025682
0.0280648
0.0298257
0.0299138
0.0270654
0.0200337
0.0114327
0.00427624
0.00119324
0.00117992
0.00365859
0.00659519
0.00998568
0.0144424
0.0186247
0.0223628
0.0225386
0.0231407
0.0160388
0.00305086
-0.00461593
-0.00761456
-0.00375022
-0.0521979
-0.0543004
-0.0542002
-0.0525774
-0.0504363
-0.0483027
-0.0462419
-0.0441371
-0.0418955
-0.0395087
-0.0370278
-0.0345217
-0.0320534
-0.029673
-0.0274195
-0.0253259
-0.0233925
-0.0216409
-0.0200513
-0.0185901
-0.0172061
-0.0158311
-0.0143915
-0.0128097
-0.0110238
-0.00898277
-0.00666916
-0.00408234
-0.00125614
0.00176242
0.00490944
0.00810324
0.0112843
0.0143567
0.0172917
0.0199504
0.022387
0.0245939
0.0266661
0.0281275
0.0281654
0.0259485
0.020693
0.0141298
0.00833458
0.00545312
0.00493999
0.00656031
0.00881975
0.0116229
0.015526
0.0195041
0.0231669
0.0239841
0.0245754
0.0198587
0.00804574
-0.000482794
-0.00416662
-0.00214962
-0.0456652
-0.0476277
-0.0477384
-0.0465425
-0.0448851
-0.0432221
-0.041618
-0.0399741
-0.0382045
-0.0362923
-0.0342724
-0.032197
-0.0301144
-0.0280624
-0.0260701
-0.0241587
-0.0223577
-0.0206547
-0.0190473
-0.0175168
-0.0160306
-0.0145436
-0.0130064
-0.0113642
-0.00957256
-0.00759155
-0.00540598
-0.00300977
-0.000425885
0.00231539
0.00516408
0.00806081
0.0109515
0.0137611
0.0164563
0.0189365
0.0212153
0.023234
0.0250023
0.0261855
0.0261892
0.0244729
0.020603
0.0156926
0.0111383
0.00861056
0.0078789
0.00889765
0.010649
0.0129941
0.0163538
0.0200512
0.0235523
0.0249082
0.0255296
0.0225162
0.0117896
0.0029219
-0.00133149
-0.000862985
-0.0397127
-0.0415133
-0.0417665
-0.0409069
-0.039641
-0.0383609
-0.0371282
-0.0358601
-0.0344782
-0.0329605
-0.0313296
-0.0296245
-0.0278823
-0.0261322
-0.024396
-0.0226909
-0.0210318
-0.0194211
-0.0178579
-0.0163312
-0.0148213
-0.0132994
-0.0117335
-0.0100858
-0.00832579
-0.00642342
-0.00436726
-0.00214932
0.000213836
0.00270349
0.00527976
0.00790004
0.0105163
0.0130709
0.015525
0.0178021
0.0198822
0.0216999
0.023208
0.0241698
0.0241751
0.022876
0.0200694
0.0164609
0.0129762
0.0108655
0.0101007
0.0107229
0.0120885
0.0140699
0.0169057
0.0202541
0.0234523
0.0250462
0.0256087
0.0236542
0.0142239
0.00552851
0.00087991
0.000106359
-0.0342766
-0.0359125
-0.0362606
-0.0356643
-0.0347125
-0.0337411
-0.0328078
-0.0318433
-0.0307775
-0.0295855
-0.0282808
-0.0268922
-0.0254475
-0.023969
-0.022474
-0.0209732
-0.0194761
-0.0179887
-0.0165133
-0.0150438
-0.0135693
-0.0120716
-0.0105313
-0.008923
-0.00722715
-0.00542185
-0.00349982
-0.0014533
0.00070468
0.0029627
0.00528834
0.00765177
0.0100098
0.0123182
0.0145352
0.0165999
0.0184725
0.0200931
0.0213897
0.0221909
0.0222334
0.0212889
0.0192915
0.0166884
0.0140934
0.0124031
0.0117109
0.0120888
0.0131553
0.014836
0.0171775
0.0201108
0.022899
0.0244395
0.0247874
0.0233621
0.0154718
0.00734549
0.00250237
0.000785704
-0.0293188
-0.0307944
-0.0311998
-0.0308062
-0.0301038
-0.029379
-0.0286849
-0.0279639
-0.0271536
-0.0262285
-0.0251956
-0.0240755
-0.0228891
-0.0216529
-0.0203794
-0.0190762
-0.0177494
-0.0164047
-0.015046
-0.013671
-0.0122739
-0.0108441
-0.00937062
-0.00783719
-0.00623212
-0.00454029
-0.00275817
-0.00087945
0.00108473
0.0031274
0.0052211
0.00734528
0.00946107
0.0115342
0.013523
0.0153795
0.0170563
0.0184933
0.0196223
0.0203166
0.0204187
0.0197734
0.0183928
0.0165532
0.0146823
0.0133837
0.0128097
0.0130486
0.0138781
0.015293
0.0171836
0.019658
0.0220232
0.0232862
0.0233404
0.0220677
0.0157381
0.00844522
0.00360612
0.00122036
-0.0248086
-0.0261272
-0.0265597
-0.0263199
-0.0258141
-0.0252851
-0.0247808
-0.0242534
-0.0236482
-0.0229406
-0.0221326
-0.021239
-0.020275
-0.0192522
-0.0181798
-0.0170635
-0.0159069
-0.014714
-0.013489
-0.0122322
-0.0109411
-0.00960986
-0.00823288
-0.00680049
-0.00530663
-0.0037415
-0.00210456
-0.00039133
0.00138784
0.00322839
0.0051069
0.00700822
0.00889799
0.0107502
0.0125241
0.0141823
0.015678
0.0169538
0.0179541
0.0185823
0.0187523
0.0183571
0.017447
0.0161863
0.0148823
0.0139276
0.0134854
0.0136541
0.0142933
0.015461
0.0169473
0.0189406
0.0209979
0.0217722
0.0215658
0.0202525
0.015283
0.00894994
0.00428228
0.00146724
-0.0207091
-0.0218775
-0.0223159
-0.0221917
-0.0218401
-0.0214656
-0.0211108
-0.0207362
-0.0202946
-0.0197627
-0.0191397
-0.0184357
-0.0176617
-0.0168258
-0.015934
-0.0149906
-0.013998
-0.0129581
-0.0118745
-0.010749
-0.00958131
-0.00836821
-0.00710759
-0.0057942
-0.00442589
-0.00299678
-0.00150861
4.1221e-05
0.00164293
0.00329286
0.00497097
0.00666567
0.00834651
0.00999328
0.0115687
0.0130431
0.0143741
0.0155116
0.0164135
0.0170029
0.0172403
0.0170489
0.0164935
0.0156694
0.0148013
0.0141348
0.0138179
0.0139546
0.0144425
0.0153779
0.0164997
0.0179473
0.0188301
0.0199943
0.0196733
0.0182737
0.0143721
0.00900263
0.00462642
0.00158163
-0.0169885
-0.0180165
-0.0184461
-0.0184075
-0.0181758
-0.0179224
-0.0176844
-0.0174297
-0.0171177
-0.0167272
-0.0162554
-0.0157092
-0.0150963
-0.0144219
-0.0136896
-0.0129032
-0.0120651
-0.0111743
-0.010233
-0.00924379
-0.00820776
-0.00712354
-0.00599082
-0.00480715
-0.00357292
-0.00228516
-0.000947021
0.000442365
0.00187378
0.00334394
0.00483517
0.0063383
0.00782731
0.00928565
0.0106804
0.0119868
0.0131701
0.0141896
0.0150137
0.01558
0.0158768
0.0158477
0.0155582
0.0150602
0.0145166
0.0140826
0.013876
0.0139995
0.0143669
0.0150922
0.0159108
0.0169584
0.0176378
0.0182714
0.0178115
0.0163456
0.0132248
0.00873567
0.00472219
0.00160615
-0.0136194
-0.0145177
-0.0149283
-0.0149518
-0.0148129
-0.0146537
-0.0145066
-0.0143453
-0.0141355
-0.0138581
-0.0135095
-0.013094
-0.0126167
-0.012081
-0.0114876
-0.0108375
-0.0101443
-0.00939555
-0.00859275
-0.00773863
-0.00683566
-0.0058838
-0.0048836
-0.00383423
-0.00273748
-0.0015924
-0.00040301
0.000830408
0.00209911
0.00339964
0.00471697
0.00604325
0.00735632
0.00864306
0.00987478
0.0110295
0.0120813
0.0129995
0.0137586
0.0143088
0.0146527
0.0147484
0.0146538
0.0143947
0.014089
0.0138356
0.0137199
0.013836
0.0141068
0.0146489
0.0152189
0.0159438
0.0163695
0.0166221
0.0160523
0.0145703
0.0119955
0.00825919
0.00463833
0.00156461
-0.0105759
-0.0113557
-0.011741
-0.0118088
-0.0117413
-0.0116553
-0.0115784
-0.0114894
-0.0113598
-0.0111727
-0.0109242
-0.0106169
-0.0102544
-0.00983913
-0.00937194
-0.00885445
-0.00827737
-0.0076539
-0.00697984
-0.0062548
-0.00548098
-0.00465924
-0.00379062
-0.00287502
-0.00191475
-0.000910157
0.000134466
0.00121785
0.00233203
0.00347357
0.00462941
0.00579289
0.00694533
0.00807529
0.00916039
0.0101816
0.0111162
0.0119433
0.0126435
0.0131793
0.013556
0.0137427
0.0137862
0.013699
0.0135653
0.013447
0.0133998
0.013508
0.013701
0.0140864
0.0144542
0.0149098
0.0151048
0.0150769
0.0144277
0.0129795
0.0107825
0.00766185
0.00443401
0.00149124
-0.00783455
-0.00850755
-0.00886418
-0.00896295
-0.00894989
-0.00892031
-0.00889739
-0.00886415
-0.00879692
-0.00868134
-0.00851336
-0.00829437
-0.00802643
-0.00771048
-0.00734599
-0.00693083
-0.00646318
-0.00596346
-0.00541198
-0.00480956
-0.00415867
-0.00346125
-0.00271912
-0.00193273
-0.00110436
-0.000235007
0.000671077
0.0016121
0.00258101
0.00357431
0.00458092
0.00559481