/*--------------------------------*- C++ -*----------------------------------*\
| =========                 |                                                 |
| \\      /  F ield         | OpenFOAM: The Open Source CFD Toolbox           |
|  \\    /   O peration     | Version:  2512                                  |
|   \\  /    A nd           | Website:  www.openfoam.com                      |
|    \\/     M anipulation  |                                                 |
\*---------------------------------------------------------------------------*/
FoamFile
{
    version     2.0;
    format      ascii;
    arch        "LSB;label=32;scalar=64";
    class       volScalarField;
    location    "176";
    object      p;
}
// * * * * * * * * * * * * * * * * * * * * * * * * * * * * * * * * * * * * * //

dimensions      [0 2 -2 0 0 0 0];

internalField   nonuniform List<scalar> 
13248
(
-0.463982
-0.460872
-0.457873
-0.455139
-0.452796
-0.45097
-0.449598
-0.448428
-0.447055
-0.444969
-0.441616
-0.436467
-0.42909
-0.419211
-0.406747
-0.391809
-0.374675
-0.355741
-0.335456
-0.314277
-0.292525
-0.270595
-0.247933
-0.225101
-0.472904
-0.469151
-0.465373
-0.461742
-0.458388
-0.455428
-0.452772
-0.450122
-0.447027
-0.44296
-0.437401
-0.429919
-0.420237
-0.40827
-0.394119
-0.378042
-0.360403
-0.341607
-0.322054
-0.302095
-0.282002
-0.26203
-0.242084
-0.22278
-0.483134
-0.478565
-0.473944
-0.469413
-0.465038
-0.460888
-0.456813
-0.452452
-0.44733
-0.440953
-0.432909
-0.422934
-0.410952
-0.39707
-0.381538
-0.364693
-0.346905
-0.328527
-0.309863
-0.291167
-0.272624
-0.254423
-0.236498
-0.21912
-0.494974
-0.489387
-0.483841
-0.478375
-0.472914
-0.46743
-0.461688
-0.45528
-0.447755
-0.438733
-0.427983
-0.415463
-0.4013
-0.385753
-0.369151
-0.351833
-0.33411
-0.316245
-0.298445
-0.280873
-0.263652
-0.246912
-0.230604
-0.215013
-0.508518
-0.501717
-0.495149
-0.48867
-0.481979
-0.474913
-0.467156
-0.458302
-0.448008
-0.436093
-0.422568
-0.407611
-0.391512
-0.374609
-0.357227
-0.339648
-0.322093
-0.30473
-0.287679
-0.271031
-0.254858
-0.239224
-0.224102
-0.209672
-0.523653
-0.515491
-0.50781
-0.50019
-0.492031
-0.483021
-0.472809
-0.46108
-0.447703
-0.432763
-0.416522
-0.399336
-0.381581
-0.363591
-0.345634
-0.3279
-0.310522
-0.293582
-0.277135
-0.26122
-0.245866
-0.231097
-0.216901
-0.203389
-0.540087
-0.530484
-0.521603
-0.512653
-0.502681
-0.491257
-0.478093
-0.46309
-0.44642
-0.428458
-0.409677
-0.390531
-0.371397
-0.352546
-0.334155
-0.316323
-0.299101
-0.282507
-0.266546
-0.251219
-0.236522
-0.222448
-0.208991
-0.196179
-0.557332
-0.546283
-0.536114
-0.525571
-0.513335
-0.498952
-0.482347
-0.463767
-0.443735
-0.422888
-0.401822
-0.381002
-0.360736
-0.341201
-0.322474
-0.304572
-0.287481
-0.271172
-0.255614
-0.240775
-0.226628
-0.213149
-0.200327
-0.188111
-0.574691
-0.562266
-0.550705
-0.538221
-0.523193
-0.505304
-0.484866
-0.462567
-0.439271
-0.415791
-0.392749
-0.37054
-0.349365
-0.329293
-0.310313
-0.292374
-0.275412
-0.25936
-0.244159
-0.229753
-0.216096
-0.203151
-0.190893
-0.17921
-0.591246
-0.577571
-0.564479
-0.549636
-0.531274
-0.509427
-0.48495
-0.458997
-0.432695
-0.406922
-0.382236
-0.358911
-0.337028
-0.316554
-0.297403
-0.279472
-0.262656
-0.246862
-0.232005
-0.21801
-0.204815
-0.192373
-0.180629
-0.16945
-0.605885
-0.591108
-0.576296
-0.558637
-0.536455
-0.510366
-0.481854
-0.452488
-0.423541
-0.395851
-0.369847
-0.345661
-0.323257
-0.302516
-0.28329
-0.265435
-0.248815
-0.233311
-0.218819
-0.205249
-0.192526
-0.180585
-0.169338
-0.158666
-0.617406
-0.601707
-0.58497
-0.564039
-0.537627
-0.507134
-0.474702
-0.442224
-0.411006
-0.38176
-0.354747
-0.329952
-0.30723
-0.286383
-0.267215
-0.249545
-0.23321
-0.218073
-0.204011
-0.190923
-0.178724
-0.167334
-0.156637
-0.146575
-0.341943
-0.344827
-0.346587
-0.347754
-0.348776
-0.349769
-0.350772
-0.351798
-0.352829
-0.353827
-0.354745
-0.355535
-0.35615
-0.356555
-0.356729
-0.356674
-0.356416
-0.35601
-0.35555
-0.355163
-0.354976
-0.355053
-0.35552
-0.356939
-0.350931
-0.354004
-0.356017
-0.357536
-0.359022
-0.360578
-0.362218
-0.363925
-0.365651
-0.36732
-0.368836
-0.370088
-0.370959
-0.371326
-0.371072
-0.370092
-0.368304
-0.365659
-0.362163
-0.357886
-0.352902
-0.347214
-0.341067
-0.335793
-0.361391
-0.364399
-0.366532
-0.368343
-0.370264
-0.372368
-0.374646
-0.377055
-0.379508
-0.38189
-0.384055
-0.38583
-0.38702
-0.387411
-0.386783
-0.384918
-0.381615
-0.376709
-0.370102
-0.361785
-0.351771
-0.339995
-0.326735
-0.314162
-0.373032
-0.375718
-0.377819
-0.379823
-0.382098
-0.384689
-0.387555
-0.390613
-0.393752
-0.396813
-0.399599
-0.401876
-0.403372
-0.403789
-0.402804
-0.400094
-0.395346
-0.388288
-0.378719
-0.366548
-0.351767
-0.334309
-0.314295
-0.294126
-0.385379
-0.387514
-0.389421
-0.391486
-0.393986
-0.396933
-0.400257
-0.403845
-0.407539
-0.411146
-0.414419
-0.417063
-0.418738
-0.419064
-0.417632
-0.414027
-0.407851
-0.398752
-0.38646
-0.370831
-0.351871
-0.329643
-0.304038
-0.275756
-0.397852
-0.399271
-0.400829
-0.402794
-0.405343
-0.408457
-0.412037
-0.41594
-0.419974
-0.423894
-0.42741
-0.430171
-0.431774
-0.431771
-0.429684
-0.425035
-0.417375
-0.406323
-0.391604
-0.373088
-0.350829
-0.325005
-0.295802
-0.263417
-0.409882
-0.410502
-0.411575
-0.413261
-0.415643
-0.418684
-0.422263
-0.426204
-0.43028
-0.434209
-0.437653
-0.440205
-0.441411
-0.440769
-0.437758
-0.431868
-0.422645
-0.409734
-0.392926
-0.372189
-0.34771
-0.319753
-0.289295
-0.255086
-0.421026
-0.420843
-0.421329
-0.422554
-0.424537
-0.427236
-0.430522
-0.434196
-0.437995
-0.441599
-0.444626
-0.446626
-0.4471
-0.445512
-0.441321
-0.434027
-0.423218
-0.408621
-0.390146
-0.367903
-0.342291
-0.313571
-0.283528
-0.249726
-0.431047
-0.43013
-0.429961
-0.430561
-0.431921
-0.434017
-0.436725
-0.43983
-0.443043
-0.446008
-0.4483
-0.449431
-0.44887
-0.446065
-0.440489
-0.431691
-0.419349
-0.403319
-0.383673
-0.360675
-0.334914
-0.306666
-0.277942
-0.24616
-0.439974
-0.438426
-0.437564
-0.437408
-0.437961
-0.439233
-0.441116
-0.443392
-0.445753
-0.447805
-0.449084
-0.449068
-0.447205
-0.442953
-0.435833
-0.425484
-0.411717
-0.39455
-0.374222
-0.351155
-0.326021
-0.299206
-0.272389
-0.24346
-0.448092
-0.446005
-0.444433
-0.443431
-0.443044
-0.443327
-0.444199
-0.445445
-0.44673
-0.447628
-0.447637
-0.446209
-0.442792
-0.436885
-0.428097
-0.416198
-0.401157
-0.383152
-0.362553
-0.339893
-0.315821
-0.2909
-0.266317
-0.240527
-0.455896
-0.45331
-0.451015
-0.449121
-0.447727
-0.446935
-0.446687
-0.446757
-0.446787
-0.446309
-0.444788
-0.441666
-0.436425
-0.428647
-0.418073
-0.404635
-0.388466
-0.369874
-0.349295
-0.327262
-0.304271
-0.280956
-0.257967
-0.235242
-0.360376
-0.366261
-0.372832
-0.378541
-0.381561
-0.379228
-0.372174
-0.356324
-0.331774
-0.299506
-0.262578
-0.225368
-0.192274
-0.166531
-0.149722
-0.142346
-0.144929
-0.157948
-0.179618
-0.203589
-0.219845
-0.2193
-0.200198
-0.169027
-0.135785
-0.107945
-0.088599
-0.0777796
-0.0741013
-0.0767283
-0.0869507
-0.105202
-0.12543
-0.1366
-0.131095
-0.112709
-0.091479
-0.0751556
-0.0656622
-0.062004
-0.0656212
-0.0774891
-0.0904951
-0.0946619
-0.086251
-0.0715162
-0.0589152
-0.0494392
-0.0454245
-0.045875
-0.0467943
-0.0461466
-0.0433269
-0.0382138
-0.033974
-0.0297014
-0.0254741
-0.0257992
-0.0221748
-0.00757001
-0.33208
-0.329624
-0.328939
-0.328789
-0.327915
-0.32429
-0.316744
-0.303753
-0.284426
-0.258826
-0.229786
-0.200749
-0.175332
-0.156297
-0.145232
-0.143156
-0.151169
-0.169654
-0.1959
-0.222561
-0.239162
-0.236831
-0.21456
-0.179625
-0.142813
-0.111928
-0.0899056
-0.076536
-0.0703909
-0.0703992
-0.0774298
-0.0921854
-0.109812
-0.120477
-0.116845
-0.101806
-0.0841819
-0.0711933
-0.0644837
-0.0633904
-0.0696471
-0.0842567
-0.0992961
-0.103967
-0.0941199
-0.0766373
-0.0613914
-0.0495513
-0.0436468
-0.0419464
-0.0415635
-0.040772
-0.0387399
-0.0354289
-0.0326518
-0.0306865
-0.0277145
-0.0288312
-0.0252464
-0.00863617
-0.303428
-0.29159
-0.282543
-0.275209
-0.269091
-0.26274
-0.254756
-0.242649
-0.229906
-0.211237
-0.190261
-0.169434
-0.151735
-0.139535
-0.134517
-0.13816
-0.151856
-0.17555
-0.205679
-0.234398
-0.251274
-0.248048
-0.223853
-0.186497
-0.147267
-0.114191
-0.0900915
-0.0745642
-0.0661693
-0.0637115
-0.0676473
-0.0788672
-0.093788
-0.103859
-0.101955
-0.0901876
-0.0761166
-0.0664385
-0.0625312
-0.0640533
-0.072931
-0.0901432
-0.107132
-0.112392
-0.101315
-0.0812806
-0.0634905
-0.0494395
-0.0418474
-0.038237
-0.0366314
-0.0355675
-0.0341462
-0.0325289
-0.03122
-0.0316419
-0.0299257
-0.0317649
-0.0282255
-0.00968055
-0.277513
-0.25621
-0.238522
-0.223198
-0.210562
-0.200011
-0.190758
-0.179557
-0.16854
-0.158469
-0.144806
-0.131794
-0.121663
-0.11637
-0.11764
-0.127255
-0.146558
-0.174951
-0.208319
-0.238752
-0.256004
-0.252804
-0.227928
-0.189526
-0.14911
-0.114799
-0.0893098
-0.0721232
-0.0618066
-0.0571084
-0.0581664
-0.0659492
-0.0780632
-0.0873214
-0.0869245
-0.078222
-0.0675104
-0.0610001
-0.0597898
-0.0638403
-0.0751863
-0.0948178
-0.1137
-0.11968
-0.107657
-0.0853637
-0.0651971
-0.049117
-0.0400516
-0.0347911
-0.0320512
-0.0306
-0.0296011
-0.029548
-0.02969
-0.0325612
-0.0320911
-0.0345685
-0.031078
-0.0106914
-0.256647
-0.226876
-0.201417
-0.178215
-0.158396
-0.142742
-0.130306
-0.119081
-0.107497
-0.104133
-0.0962645
-0.0901657
-0.0870701
-0.0884539
-0.0960554
-0.111616
-0.136122
-0.168455
-0.204282
-0.235974
-0.254175
-0.251407
-0.226999
-0.188923
-0.14862
-0.114031
-0.087793
-0.0694304
-0.0575725
-0.0509657
-0.0494419
-0.0539581
-0.0632173
-0.0714131
-0.0722479
-0.0662436
-0.0585657
-0.054959
-0.0562239
-0.062611
-0.0761918
-0.0980451
-0.118722
-0.125561
-0.112972
-0.0888208
-0.0665184
-0.0486098
-0.0382771
-0.0316253
-0.0278546
-0.0259337
-0.0251629
-0.0265194
-0.0280729
-0.033437
-0.034192
-0.0372056
-0.0337684
-0.0116569
-0.2401
-0.20516
-0.173065
-0.14339
-0.116952
-0.0973397
-0.0802216
-0.0666969
-0.056758
-0.0535033
-0.0500952
-0.0492775
-0.0519314
-0.0592168
-0.0726181
-0.0934969
-0.122284
-0.157422
-0.194671
-0.2271
-0.246143
-0.244435
-0.221461
-0.185033
-0.146089
-0.112138
-0.0857634
-0.0666618
-0.0536307
-0.0454603
-0.0417763
-0.0433217
-0.0497487
-0.0566576
-0.0589556
-0.0545501
-0.0494842
-0.0484109
-0.0518501
-0.0603174
-0.0758358
-0.0996592
-0.121993
-0.129822
-0.117108
-0.0915939
-0.0674613
-0.0479391
-0.0365299
-0.0287339
-0.0240544
-0.0216223
-0.0208839
-0.0234733
-0.0263784
-0.0342575
-0.0362063
-0.0396402
-0.0362628
-0.012565
-0.229539
-0.193059
-0.156835
-0.123382
-0.0930169
-0.0673732
-0.0463575
-0.0307321
-0.0219089
-0.0144239
-0.0124804
-0.0145731
-0.0210361
-0.032655
-0.0504651
-0.0752658
-0.106886
-0.143461
-0.181051
-0.213546
-0.233075
-0.232741
-0.212044
-0.178392
-0.141878
-0.109379
-0.0834188
-0.0639607
-0.0500764
-0.0406633
-0.0352257
-0.0342322
-0.0379573
-0.043342
-0.0458253
-0.0433446
-0.0404997
-0.0415178
-0.0467742
-0.0569819
-0.0740759
-0.0995718
-0.123411
-0.13234
-0.119966
-0.0936306
-0.0680278
-0.0471212
-0.0348122
-0.0260907
-0.0206401
-0.0177047
-0.0168073
-0.0204365
-0.0246138
-0.0350085
-0.0381121
-0.0418404
-0.03853
-0.013404
-0.223603
-0.188145
-0.151649
-0.11683
-0.0844118
-0.0553773
-0.0306966
-0.011347
0.00214019
0.0104752
0.0128
0.0100855
0.0020806
-0.011719
-0.0318882
-0.0586797
-0.0914065
-0.128011
-0.164899
-0.196658
-0.216248
-0.217379
-0.199559
-0.169547
-0.136295
-0.105912
-0.0808521
-0.061388
-0.046939
-0.0365795
-0.0297634
-0.0266917
-0.027966
-0.0317229
-0.0340157
-0.0329739
-0.0318721
-0.034488
-0.0411412
-0.0526994
-0.0709719
-0.097778
-0.122937
-0.133087
-0.121519
-0.0949
-0.0682267
-0.0461735
-0.0331315
-0.023679
-0.0175862
-0.0141994
-0.0129641
-0.0174328
-0.0227848
-0.0356749
-0.0398882
-0.0437774
-0.0405424
-0.0141645
-0.220586
-0.187682
-0.153792
-0.120223
-0.0876705
-0.0573712
-0.0304145
-0.00780464
0.00932737
0.0204242
0.0248186
0.0235174
0.0161551
0.00243823
-0.0178616
-0.0445984
-0.0767288
-0.112062
-0.147292
-0.177621
-0.196863
-0.199445
-0.184915
-0.159155
-0.129753
-0.10198
-0.0782329
-0.0590882
-0.0443372
-0.0332921
-0.0254201
-0.0207097
-0.0198466
-0.0219432
-0.0238212
-0.0237191
-0.0238355
-0.0275458
-0.0351484
-0.047563
-0.0665715
-0.0943825
-0.120659
-0.132118
-0.121774
-0.0954266
-0.0681364
-0.0451683
-0.0315193
-0.0215128
-0.0148966
-0.0111165
-0.00937001
-0.0144833
-0.0208941
-0.0362424
-0.0415119
-0.0454236
-0.0422753
-0.0148403
-0.219053
-0.189577
-0.159826
-0.129315
-0.0984702
-0.0687749
-0.0413642
-0.0171105
0.00295699
0.0169919
0.0249915
0.0264164
0.0214608
0.00979147
-0.00865234
-0.0334886
-0.0634586
-0.0963501
-0.129054
-0.157266
-0.175867
-0.180121
-0.169276
-0.148207
-0.123044
-0.0982345
-0.0761226
-0.0575577
-0.0426862
-0.0311158
-0.0223988
-0.0163748
-0.0136705
-0.0141302
-0.0153823
-0.0157209
-0.016565
-0.0208674
-0.028969
-0.0418355
-0.061181
-0.0895082
-0.116689
-0.129495
-0.120757
-0.0952666
-0.0678887
-0.0442411
-0.0300321
-0.019581
-0.0125909
-0.00852988
-0.00604202
-0.0116028
-0.0189478
-0.0366927
-0.0429547
-0.0467572
-0.0436996
-0.0154219
-0.217926
-0.19257
-0.16718
-0.139779
-0.111143
-0.0830162
-0.0560448
-0.0308636
-0.00797471
0.00768092
0.0173879
0.0218998
0.0205125
0.0121962
-0.002931
-0.024525
-0.0513633
-0.0812129
-0.110945
-0.137193
-0.154154
-0.159891
-0.152874
-0.136826
-0.116239
-0.0947001
-0.0744879
-0.0567182
-0.0418694
-0.0298763
-0.020484
-0.0134087
-0.00911768
-0.00803886
-0.00865922
-0.00924578
-0.0102905
-0.0147378
-0.0227968
-0.0354351
-0.0546643
-0.0835696
-0.111484
-0.12522
-0.118321
-0.0941609
-0.0672667
-0.04327
-0.0285971
-0.0177157
-0.0105126
-0.00644525
-0.00306972
-0.00881663
-0.0169196
-0.0370227
-0.0441877
-0.0477598
-0.0447802
-0.0158836
-0.216785
-0.197814
-0.1771
-0.152742
-0.127291
-0.102343
-0.0779486
-0.0543171
-0.0324556
-0.0121615
0.00220478
0.0101339
0.0122165
0.00838567
-0.00196491
-0.0185414
-0.0402664
-0.0651677
-0.0907583
-0.114142
-0.13107
-0.136907
-0.133433
-0.122257
-0.10616
-0.0880102
-0.070026
-0.0535398
-0.0392502
-0.0273137
-0.0177403
-0.0101689
-0.00479804
-0.00241444
-0.00252506
-0.00347311
-0.00478814
-0.00932285
-0.0171675
-0.0293054
-0.0478845
-0.0765206
-0.104503
-0.119306
-0.113893
-0.0913915
-0.0652823
-0.0414057
-0.0267501
-0.015576
-0.00830314
-0.00434642
-0.000256644
-0.00618369
-0.0148812
-0.0371815
-0.0451882
-0.0484117
-0.0455284
-0.0161896
-0.201418
-0.193546
-0.173822
-0.150064
-0.126455
-0.103447
-0.0807346
-0.0583844
-0.0373136
-0.0195456
-0.00622484
0.0022378
0.00590646
0.00396048
-0.0041519
-0.0183053
-0.0375112
-0.0599057
-0.0830897
-0.104307
-0.118143
-0.123119
-0.119718
-0.109524
-0.0950787
-0.0787999
-0.0625542
-0.0474819
-0.0342053
-0.0228722
-0.0135906
-0.00604459
-0.000300293
0.00297384
0.00367746
0.0029777
0.00191284
-0.00243519
-0.00936161
-0.0206604
-0.039117
-0.0692383
-0.0995749
-0.116361
-0.111645
-0.0884009
-0.0622447
-0.038542
-0.0244078
-0.0133134
-0.00610853
-0.00179456
0.00317833
-0.003098
-0.0124413
-0.0371226
-0.0462492
-0.0488209
-0.0460564
-0.0163553
-0.187462
-0.182208
-0.163984
-0.141876
-0.1206
-0.100414
-0.0806363
-0.061171
-0.0430653
-0.0274463
-0.0151785
-0.00685414
-0.00292867
-0.00398967
-0.0103735
-0.0219455
-0.0378333
-0.0563916
-0.075369
-0.0914191
-0.102895
-0.106868
-0.103809
-0.0952211
-0.0830832
-0.0692246
-0.0551201
-0.0417388
-0.0296615
-0.0190913
-0.0102595
-0.00290725
0.00297701
0.00670331
0.0077628
0.00702922
0.00573514
0.00223022
-0.00370545
-0.0139878
-0.031851
-0.0625858
-0.0940091
-0.110883
-0.106052
-0.0834128
-0.058281
-0.0355251
-0.0219719
-0.0110807
-0.00416681
0.000288418
0.00542203
-0.00071896
-0.0104874
-0.0369892
-0.0471311
-0.0488051
-0.0460808
-0.0163815
-0.173978
-0.169501
-0.153914
-0.134427
-0.115649
-0.0980958
-0.081056
-0.0644144
-0.0485745
-0.0347221
-0.0236129
-0.0159148
-0.0120402
-0.0123493
-0.0170445
-0.0259412
-0.0382612
-0.0526059
-0.0671246
-0.0796811
-0.0884503
-0.0916257
-0.0893398
-0.0825266
-0.0725544
-0.0608139
-0.0485289
-0.036575
-0.0255419
-0.0156561
-0.00721722
-8.72555e-05
0.00578189
0.00979293
0.0112145
0.010648
0.00937342
0.00620279
0.000761104
-0.00901538
-0.0264158
-0.0564869
-0.0869685
-0.103281
-0.0989606
-0.0776086
-0.0539298
-0.0323272
-0.0194292
-0.00886424
-0.00223768
0.00223611
0.00731911
0.00123726
-0.008957
-0.0367944
-0.0477465
-0.0483626
-0.0456355
-0.0163096
-0.159537
-0.156916
-0.144296
-0.127513
-0.111038
-0.0957454
-0.0810583
-0.0666907
-0.0530417
-0.040917
-0.0310359
-0.0239481
-0.0199948
-0.0194497
-0.0224408
-0.0287814
-0.0378511
-0.0485816
-0.0594053
-0.0691855
-0.075904
-0.0784821
-0.076752
-0.0712499
-0.062968
-0.0529852
-0.0423012
-0.0316652
-0.021643
-0.0124601
-0.00444592
0.00241496
0.00816995
0.0123637
0.0142023
0.013971
0.0129145
0.0101565
0.00514522
-0.0042523
-0.0208974
-0.0493561
-0.0785776
-0.0945656
-0.090799
-0.0709807
-0.0490538
-0.0289013
-0.0167927
-0.00664979
-0.000312696
0.00404402
0.00908178
0.00304511
-0.0074691
-0.0363247
-0.0480147
-0.0475199
-0.0447047
-0.0161088
-0.145838
-0.144982
-0.134892
-0.12049
-0.10617
-0.0929444
-0.0803743
-0.0681253
-0.0564351
-0.0459026
-0.037125
-0.0305592
-0.026516
-0.0252173
-0.0267462
-0.0309516
-0.0373723
-0.0452203
-0.0535039
-0.0604264
-0.0653757
-0.0672638
-0.0657959
-0.0612704
-0.054368
-0.0458797
-0.0365971
-0.0271431
-0.0180543
-0.00955929
-0.00198168
0.00459785
0.01018
0.014449
0.0166611
0.0168581
0.016214
0.0140722
0.00968662
0.00100671
-0.0143568
-0.0410192
-0.0691619
-0.0846835
-0.081533
-0.0635685
-0.0437278
-0.0252971
-0.0140916
-0.00445552
0.00159964
0.00570841
0.010669
0.00478829
-0.00583325
-0.0354411
-0.0478418
-0.0462255
-0.0432213
-0.0157412
-0.133388
-0.133359
-0.125119
-0.113181
-0.101002
-0.0897297
-0.0790726
-0.0686968
-0.0587263
-0.0496059
-0.0418263
-0.0357817
-0.0317441
-0.0298887
-0.0302709
-0.0327692
-0.0370272
-0.0424272
-0.0481933
-0.0531495
-0.0566056
-0.0578012
-0.0564335
-0.0526175
-0.0467888
-0.0395147
-0.0314211
-0.0230143
-0.0147834
-0.0069577
0.000165581
0.00645356
0.0118345
0.0160865
0.0186016
0.0192946
0.0193478
0.0178667
0.0143312
0.00672089
-0.00713967
-0.0319689
-0.0588159
-0.0737412
-0.0713608
-0.0555407
-0.038044
-0.0215566
-0.0113529
-0.00230232
0.00348611
0.00724495
0.0120432
0.00645276
-0.00404893
-0.0340292
-0.0470667
-0.0443994
-0.0411387
-0.015174
-0.121411
-0.122113
-0.115789
-0.105903
-0.0956431
-0.0861098
-0.0771297
-0.0683911
-0.059932
-0.052079
-0.045231
-0.0397196
-0.0357731
-0.0335297
-0.0330287
-0.034175
-0.0366925
-0.0400722
-0.0438813
-0.0471808
-0.0493857
-0.0499305
-0.0485274
-0.0451817
-0.0401635
-0.0338691
-0.0267824
-0.0193024
-0.0118549
-0.00466747
0.00198996
0.00797273
0.0131514
0.0173335
0.0200803
0.0212554
0.0219707
0.0214055
0.0189165
0.0125455
0.000225568
-0.0225556
-0.0478264
-0.0620784
-0.0605818
-0.0471138
-0.0321279
-0.0177362
-0.00860704
-0.000209692
0.00533506
0.00868439
0.0131927
0.00801036
-0.00212942
-0.0319251
-0.0454927
-0.0419838
-0.0384413
-0.0143802
-0.109935
-0.111399
-0.106681
-0.0986205
-0.0900642
-0.0820772
-0.0745712
-0.0672633
-0.0601342
-0.0534173
-0.0474284
-0.0424409
-0.0386453
-0.0361544
-0.0350001
-0.0351135
-0.0363011
-0.0382633
-0.0403905
-0.0423048
-0.0434588
-0.0434014
-0.0418773
-0.0388344
-0.0344281
-0.0289216
-0.0226798
-0.0160124
-0.00927657
-0.00268975
0.00350099
0.00916037
0.0141398
0.0182325
0.0211515
0.0227649
0.0240538
0.024495
0.0232296
0.0182367
0.00745568
-0.0132048
-0.0367038
-0.0501192
-0.0495616
-0.0385588
-0.0261358
-0.013901
-0.00588308
0.00180766
0.00713535
0.010069
0.0141333
0.00947179
-2.5421e-05
-0.0289482
-0.0429206
-0.0389463
-0.0351523
-0.0133448
-0.0993539
-0.101298
-0.0978425
-0.0913479
-0.0842939
-0.0776741
-0.0714577
-0.0653938
-0.0594267
-0.0537173
-0.0485114
-0.0440321
-0.0404385
-0.0378244
-0.0362188
-0.0355717
-0.0357299
-0.0364872
-0.0374491
-0.0382731
-0.038565
-0.0379812
-0.0363039
-0.0334527
-0.0295059
-0.0246304
-0.0190951
-0.0131369
-0.00704652
-0.00102095
0.00471411
0.0100343
0.0148033
0.0187999
0.0218504
0.0238965
0.0255833
0.0269192
0.026962
0.0234331
0.0140877
-0.00451101
-0.025952
-0.038294
-0.0386924
-0.0301727
-0.0202452
-0.0101237
-0.00320851
0.00374035
0.0088762
0.0114504
0.0149247
0.0109002
0.00233555
-0.024967
-0.0391873
-0.0352834
-0.0313456
-0.012072
-0.0895864
-0.0917333
-0.0892853
-0.0841336
-0.0783918
-0.0729651
-0.0678654
-0.0628749
-0.0579163
-0.0530953
-0.0486005
-0.0446125
-0.0412626
-0.038629
-0.0367384
-0.0355583
-0.03499
-0.0348467
-0.0349034
-0.0348805
-0.0344898
-0.0334696
-0.0316389
-0.0289088
-0.0253102
-0.0209432
-0.0160004
-0.01066
-0.00515296
0.000349759
0.00564687
0.0106206
0.0151565
0.0190398
0.0221686
0.024722
0.0265278
0.0285373
0.0296772
0.0274316
0.0194059
0.00302699
-0.0159073
-0.0270271
-0.0283954
-0.0222555
-0.0146365
-0.00648157
-0.000612571
0.00558341
0.0105473
0.0128833
0.0156691
0.0123874
0.00499741
-0.0199565
-0.034226
-0.03104
-0.0271515
-0.0105917
-0.080396
-0.0826932
-0.0810782
-0.0770563
-0.0724329
-0.0680285
-0.0638848
-0.0598134
-0.0557247
-0.0516829
-0.0478304
-0.0443112
-0.0412329
-0.0386605
-0.0366184
-0.0350875
-0.0340015
-0.0332352
-0.0326232
-0.0319662
-0.0310543
-0.0296895
-0.0277265
-0.0250802
-0.0217537
-0.0178021
-0.0133595
-0.00855722
-0.00357629
0.00144017
0.00631948
0.0109475
0.0152296
0.0189652
0.0220273
0.0240446
0.0268195
0.0292703
0.0310341
0.0296795
0.022957
0.0091479
-0.006894
-0.0168081
-0.019086
-0.0150711
-0.0094707
-0.00305056
0.00186911
0.00733061
0.0121345
0.0144056
0.0164891
0.0140262
0.00794897
-0.0140545
-0.028141
-0.0263267
-0.0227499
-0.0089617
-0.0718369
-0.0742356
-0.0732729
-0.0701727
-0.0664844
-0.0629445
-0.059611
-0.0563202
-0.0529766
-0.0496133
-0.046336
-0.0432585
-0.0404682
-0.0380188
-0.0359333
-0.034202
-0.032783
-0.0315909
-0.0305099
-0.0293995
-0.0281084
-0.0264899
-0.0244302
-0.0218543
-0.0187502
-0.0151448
-0.011129
-0.00679778
-0.00229103
0.00227432
0.0067556
0.0110437
0.0150594
0.0186308
0.0216615
0.0239952
0.0266596
0.0291792
0.0310689
0.0302388
0.0248012
0.0137084
0.000632962
-0.00812276
-0.0110756
-0.00879725
-0.00486192
0.000104228
0.00419524
0.00896591
0.0136115
0.016012
0.017518
0.0158859
0.0111062
-0.00760236
-0.0212744
-0.021326
-0.0183471
-0.00726487
-0.0639764
-0.0663545
-0.0658705
-0.0635155
-0.0606054
-0.0577906
-0.0551372
-0.0525037
-0.0497934
-0.0470169
-0.0442511
-0.0415852
-0.0390888
-0.0368055
-0.0347582
-0.0329466
-0.0313386
-0.0298799
-0.0284928
-0.0270793
-0.0255324
-0.0237453
-0.0216313
-0.0191276
-0.0162165
-0.0129077
-0.0092618
-0.00534605
-0.0012673
0.00288105
0.00698208
0.0109389
0.0146809
0.0180698
0.0210366
0.0234927
0.0260288
0.0283965
0.0301121
0.029566
0.0252718
0.0166666
0.00633027
-0.00121577
-0.00449698
-0.00350099
-0.000865807
0.00293396
0.00632644
0.0104635
0.0149308
0.0176278
0.0192524
0.0179777
0.0143036
-0.00112301
-0.0141991
-0.016292
-0.0141454
-0.00559723
-0.0567165
-0.0590022
-0.058875
-0.0571229
-0.0548551
-0.0526419
-0.0505532
-0.0484678
-0.0462915
-0.044019
-0.0417045
-0.039417
-0.0372124
-0.035127
-0.0331793
-0.0313714
-0.029685
-0.0280863
-0.0265234
-0.0249299
-0.0232316
-0.0213523
-0.0192276
-0.0168079
-0.0140747
-0.0110283
-0.00770886
-0.00416315
-0.000472146
0.00329079
0.00703012
0.0106655
0.0141275
0.0173111
0.0201637
0.022612
0.0249793
0.0270861
0.0285178
0.0281161
0.0247623
0.0182234
0.0102502
0.00395076
0.00068972
0.000841535
0.00251615
0.0054063
0.00822849
0.0117974
0.0160295
0.0190443
0.0209984
0.020122
0.0172767
0.00478827
-0.00757595
-0.011502
-0.0103155
-0.00405081
-0.0499925
-0.0521683
-0.0523058
-0.0510326
-0.0492861
-0.0475653
-0.0459406
-0.0443081
-0.0425784
-0.0407353
-0.0388156
-0.0368718
-0.0349491
-0.0330784
-0.0312709
-0.0295301
-0.0278489
-0.0262072
-0.0245707
-0.0228958
-0.021132
-0.0192265
-0.0171332
-0.0148141
-0.0122532
-0.00944656
-0.00642111
-0.00320871
0.000128808
0.00353554
0.00693304
0.0102549
0.0134353
0.0163942
0.0190848
0.0214342
0.0235992
0.0254193
0.0265689
0.026247
0.0236597
0.018763
0.0127249
0.00764139
0.00464738
0.00430932
0.00531434
0.0075058
0.00987002
0.0129427
0.0168553
0.0200512
0.0220665
0.0219283
0.0196425
0.00961963
-0.00190394
-0.00718293
-0.00697181
-0.00269779
-0.0438105
-0.0458488
-0.0461662
-0.0452656
-0.043938
-0.0426167
-0.0413699
-0.0401086
-0.0387493
-0.0372694
-0.0356923
-0.034058
-0.0324017
-0.0307463
-0.0291038
-0.0274767
-0.0258627
-0.0242502
-0.022618
-0.0209381
-0.0191777
-0.0173012
-0.0152766
-0.0130764
-0.010688
-0.00810665
-0.00535095
-0.00244245
0.000571019
0.00364754
0.00672192
0.00974054
0.0126416
0.0153635
0.0178561
0.0200503
0.0219974
0.0235558
0.0244751
0.0242223
0.0222641
0.0186461
0.0141473
0.0101604
0.00757777
0.00700296
0.00757321
0.00923139
0.0112266
0.0138695
0.0173747
0.0205705
0.022616
0.0229738
0.0210117
0.0130573
0.00259684
-0.00347565
-0.00417012
-0.00158179
-0.0381396
-0.0400151
-0.0404465
-0.0398342
-0.0388416
-0.0378424
-0.0369006
-0.0359408
-0.0348867
-0.0337117
-0.0324298
-0.0310705
-0.0296608
-0.0282184
-0.0267526
-0.0252671
-0.0237615
-0.0222296
-0.0206586
-0.0190316
-0.0173279
-0.0155244
-0.0136001
-0.0115358
-0.00932322
-0.00695781
-0.00445364
-0.00182548
0.000888966
0.00365846
0.00642814
0.00915639
0.0117838
0.0142616
0.0165379
0.0185485
0.020284
0.0216242
0.0223794
0.022207
0.0207671
0.0181346
0.0148386
0.0117957
0.00967507
0.00903009
0.00933949
0.0105939
0.0122809
0.0145476
0.0175743
0.0205746
0.02246
0.0230338
0.0212483
0.015051
0.00590159
-0.000454193
-0.001919
-0.000713575
-0.0329333
-0.0346405
-0.03514
-0.0347485
-0.0340213
-0.0332792
-0.0325815
-0.0318645
-0.0310595
-0.0301385
-0.0291083
-0.0279903
-0.0268053
-0.0255674
-0.0242825
-0.0229537
-0.0215818
-0.0201646
-0.0186946
-0.0171619
-0.0155541
-0.0138572
-0.0120581
-0.0101442
-0.00811101
-0.00595526
-0.00368859
-0.00132145
0.00111557
0.00359924
0.00608309
0.00853417
0.0108979
0.0131347
0.0151888
0.0170052
0.0185493
0.0197189
0.0203701
0.0202909
0.0192778
0.0174035
0.0150373
0.0127706
0.0111069
0.0104936
0.0106616
0.0116147
0.0130292
0.0149597
0.0174732
0.0201148
0.0217151
0.0222557
0.0205686
0.0157893
0.00808419
0.00186569
-0.000187854
-7.42609e-05
-0.0281662
-0.0297056
-0.0302372
-0.0300116
-0.0294926
-0.0289542
-0.0284502
-0.0279271
-0.0273238
-0.0266127
-0.0257956
-0.0248876
-0.0239046
-0.0228573
-0.0217498
-0.0205831
-0.0193588
-0.0180768
-0.0167335
-0.0153229
-0.0138383
-0.0122717
-0.0106158
-0.00886307
-0.00701193
-0.00506083
-0.00302005
-0.000897424
0.00128154
0.00349908
0.00571578
0.00790545
0.0100188
0.0120223
0.013858
0.0154783
0.0168636
0.017905
0.0184978
0.0185178
0.0178538
0.016561
0.0149049
0.0132659
0.0120153
0.0114895
0.01159
0.0123204
0.0134866
0.0151066
0.0171207
0.0193082
0.0205721
0.0209503
0.0193368
0.0155996
0.00930129
0.0035311
0.00108621
0.000373404
-0.0238124
-0.0251865
-0.0257233
-0.0256207
-0.025264
-0.024886
-0.0245346
-0.0241653
-0.0237244
-0.0231856
-0.0225476
-0.0218207
-0.0210161
-0.0201426
-0.0192034
-0.0181976
-0.0171257
-0.0159891
-0.0147864
-0.0135147
-0.0121702
-0.010749
-0.00924785
-0.00766279
-0.00599452
-0.00424294
-0.0024175
-0.000524858
0.00141373
0.00338421
0.00535275
0.00729852
0.00917774
0.0109616
0.0125923
0.0139997
0.0152806
0.0162243
0.016788
0.0169047
0.0165201
0.015671
0.0145575
0.013415
0.0125159
0.0121009
0.0121765
0.0127429
0.013682
0.0150106
0.0165695
0.0182855
0.0192086
0.0193913
0.0178561
0.0148334
0.00977676
0.00463092
0.00197711
0.000671855
-0.0198422
-0.0210584
-0.0215825
-0.0215698
-0.021339
-0.0210865
-0.0208545
-0.0206061
-0.0202951
-0.0198967
-0.0194081
-0.018836
-0.0181879
-0.0174701
-0.0166861
-0.0158341
-0.0149128
-0.0139237
-0.012867
-0.0117417
-0.0105459
-0.00927787
-0.00793698
-0.00652183
-0.00503461
-0.00347646
-0.00185618
-0.000179642
0.00153506
0.00327629
0.00501584
0.00673672
0.00840101
0.00998859
0.011462
0.0128233
0.0138644
0.0147035
0.0152498
0.015451
0.0152851
0.0147748
0.0140723
0.0133195
0.0127002
0.0124
0.0124723
0.0129162
0.0136528
0.0147097
0.0158735
0.0171518
0.0177598
0.0177577
0.0163146
0.0137767
0.00973856
0.0052708
0.00255351
0.000860288
-0.0162307
-0.0172991
-0.0177984
-0.0178499
-0.0177159
-0.0175609
-0.0174218
-0.017268
-0.0170599
-0.0167756
-0.0164105
-0.0159694
-0.0154572
-0.014878
-0.0142336
-0.0135245
-0.0127472
-0.0119019
-0.0109899
-0.0100115
-0.008966
-0.00785274
-0.00667247
-0.00542548
-0.00411485
-0.00274254
-0.00131671
0.000157155
0.0016637
0.00319312
0.00472151
0.006235
0.00770136
0.00910273
0.0104017
0.0115766
0.0125526
0.0133342
0.0138762
0.014149
0.0141508
0.0138922
0.0134943
0.0130653
0.0126432
0.0124482
0.012526
0.0128764
0.0134386
0.0142507
0.0150829
0.0159785
0.0163111
0.0161509
0.0148144
0.0126191
0.00937504
0.00555882
0.00289118
0.000969733
-0.0129541
-0.013886
-0.0143531
-0.0144494
-0.0143895
-0.01431
-0.0142425
-0.0141621
-0.0140353
-0.0138426
-0.0135792
-0.013248
-0.0128523
-0.0123936
-0.0118737
-0.0112942
-0.0106511
-0.0099426
-0.00916966
-0.00833358
-0.00743461
-0.0064727
-0.00544908
-0.00436495
-0.00322379
-0.00202814
-0.000785351
0.000499499
0.00181312
0.00314726
0.00448181
0.00580474
0.0070895
0.00832057
0.00946284
0.010498
0.0113869
0.0121203
0.0126599
0.012988
0.0131128
0.0130349
0.0128398
0.0125465
0.0123819
0.0122959
0.0123843
0.0126617
0.0130778
0.0136763
0.0142358
0.0148134
0.0149195
0.0146289
0.0134054
0.0114712
0.00882524
0.00559486
0.00306386
0.00102047
-0.00998991
-0.0107977
-0.0112288
-0.0113555
-0.0113519
-0.0113304
-0.0113179
-0.0112941
-0.011231
-0.0111119
-0.0109318
-0.0106921
-0.0103953
-0.010042
-0.00963237
-0.00916612
-0.00864424
-0.00806245
-0.00741992
-0.00671806
-0.00595799
-0.00514012
-0.00426571
-0.00333626
-0.00235526
-0.00132548
-0.000253432
0.0008561
0.00199199
0.00314693
0.00430415
0.00545379
0.00657317
0.0076498
0.00865598
0.00957551
0.0103855
0.0110596
0.0115902
0.0119564
0.0121682
0.0122236
0.0121853
0.0120693
0.0120104
0.0119976
0.0120918
0.0123097
0.012605
0.0130222
0.0133609
0.0136906
0.0136201
0.0132231
0.0121079
0.0103896
0.00818468
0.00545365
0.00309202
0.00102641
-0.00731768
-0.00801392
-0.00840776
-0.00855422
-0.00859319
-0.00861616
-0.00864557
-0.00866515
-0.00865187
-0.00859134
-0.008479
-0.00831524
-0.00810134
-0.00783742
-0.00752154
-0.00715248
-0.00674141
-0.00627543
-0.00575314
-0.00517543
-0.00454402
-0.00385999
-0.00312465
-0.0023394
-0.00150741
-0.000631398
0.000282947
0.00123133
0.00220445
0.00319591
0.00419199