/*--------------------------------*- C++ -*----------------------------------*\
| =========                 |                                                 |
| \\      /  F ield         | OpenFOAM: The Open Source CFD Toolbox           |
|  \\    /   O peration     | Version:  2512                                  |
|   \\  /    A nd           | Website:  www.openfoam.com                      |
|    \\/     M anipulation  |                                                 |
\*---------------------------------------------------------------------------*/
FoamFile
{
    version     2.0;
    format      ascii;
    arch        "LSB;label=32;scalar=64";
    class       volVectorField;
    location    "176";
    object      U;
}
// * * * * * * * * * * * * * * * * * * * * * * * * * * * * * * * * * * * * * //

dimensions      [0 1 -1 0 0 0 0];

internalField   nonuniform List<vector> 
13248
(
(-0.0121378 0.0123682 9.83391e-20)
(-0.0175145 0.0248325 0)
(-0.00387605 0.0300324 -1.86204e-19)
(0.0267885 0.0293533 1.75397e-19)
(0.073086 0.0243685 1.64789e-19)
(0.133946 0.0165791 0)
(0.208253 0.00721097 0)
(0.294579 -0.00277073 4.04857e-19)
(0.390933 -0.0126265 -9.74358e-22)
(0.494597 -0.0218203 -3.55306e-19)
(0.602131 -0.0300026 3.29239e-19)
(0.709574 -0.0369904 -2.06116e-19)
(0.812785 -0.0427426 0)
(0.907863 -0.0473255 -3.42076e-19)
(0.991553 -0.050872 6.31797e-19)
(1.06156 -0.0535397 -1.5111e-19)
(1.11672 -0.0554735 -2.50483e-19)
(1.15701 -0.0567877 2.35172e-19)
(1.18342 -0.0575184 0)
(1.19768 -0.0577999 0)
(1.20212 -0.0572098 0)
(1.19842 -0.0572777 0)
(1.19038 -0.0537666 5.74927e-20)
(1.17479 -0.0596029 1.87896e-19)
(-0.010105 0.00923873 -2.96685e-19)
(-0.00849386 0.0160724 2.02034e-19)
(0.0150903 0.0172371 -1.51039e-21)
(0.0585329 0.0141974 -2.67275e-19)
(0.120252 0.00849949 -1.64612e-19)
(0.198722 0.00158454 -1.55766e-19)
(0.291967 -0.00542235 -2.88748e-19)
(0.397259 -0.0117107 2.72094e-19)
(0.510948 -0.0167705 0)
(0.628529 -0.0203842 1.44334e-21)
(0.744961 -0.0225986 2.15679e-21)
(0.85518 -0.0236665 2.03306e-19)
(0.954671 -0.0239643 0)
(1.03996 -0.0238995 0)
(1.10893 -0.0238271 2.24637e-19)
(1.16097 -0.0239895 -4.2196e-19)
(1.19678 -0.0244892 2.40447e-19)
(1.21819 -0.0252926 -2.25762e-19)
(1.22767 -0.0262575 -9.53453e-20)
(1.22801 -0.0271862 -1.65605e-19)
(1.22187 -0.0277631 -6.31022e-20)
(1.21155 -0.0281243 -1.16014e-19)
(1.19907 -0.0263393 1.791e-19)
(1.18396 -0.0288187 4.87506e-20)
(-0.00711253 0.00618978 0)
(0.00419634 0.0075917 0)
(0.0410026 0.00524776 9.45769e-20)
(0.100704 0.000667744 8.75621e-20)
(0.181112 -0.00462897 -1.53986e-21)
(0.279676 -0.00928913 -1.59304e-19)
(0.392865 -0.0124002 0)
(0.515957 -0.0135054 -1.35538e-19)
(0.643191 -0.0125792 1.26334e-19)
(0.768263 -0.00997387 -5.60625e-22)
(0.885056 -0.00631067 -2.1571e-19)
(0.988415 -0.00232899 -1.95268e-19)
(1.07473 0.00127146 5.67761e-21)
(1.14226 0.00395859 -1.54787e-19)
(1.19108 0.00544134 3.77333e-19)
(1.22278 0.0056818 0)
(1.24004 0.00485602 -2.31142e-19)
(1.24601 0.00328027 1.13505e-19)
(1.24383 0.00134201 9.52673e-20)
(1.2363 -0.000612723 0)
(1.22566 -0.00215708 7.37e-20)
(1.21339 -0.00345418 -2.45154e-19)
(1.20074 -0.00306942 2.30134e-19)
(1.18741 -0.0062072 1.35824e-19)
(-0.00271294 0.00313564 -1.03738e-19)
(0.0215835 -0.000470135 -1.06984e-19)
(0.0752161 -0.00532167 9.74327e-20)
(0.15463 -0.0100661 0)
(0.256401 -0.0133439 0)
(0.376178 -0.0140516 -2.38002e-21)
(0.508108 -0.0117347 0)
(0.645014 -0.00658652 -4.08093e-19)
(0.779113 0.000668092 3.78581e-19)
(0.903051 0.00896326 -4.6747e-19)
(1.01093 0.0171373 1.07175e-19)
(1.09899 0.0241738 0)
(1.16591 0.0293761 1.72997e-19)
(1.21253 0.0324418 -3.18344e-19)
(1.24135 0.0334394 7.59885e-20)
(1.25579 0.0327133 1.86907e-19)
(1.25953 0.0307593 -1.21641e-20)
(1.25595 0.0281059 -2.05049e-19)
(1.24781 0.0252256 0)
(1.23715 0.0224884 0)
(1.22534 0.0201853 -6.88639e-20)
(1.21319 0.0182599 6.06102e-20)
(1.20132 0.0176812 2.08773e-19)
(1.18918 0.0142422 -1.96054e-19)
(0.00358045 6.55435e-05 -1.08132e-19)
(0.0446414 -0.00784624 -1.08221e-19)
(0.118723 -0.0137669 3.04746e-19)
(0.220752 -0.0168447 -1.85931e-19)
(0.345264 -0.0161614 1.75005e-19)
(0.48527 -0.0111782 3.19613e-19)
(0.632064 -0.00225597 -2.25233e-19)
(0.776127 0.0094603 -2.72719e-19)
(0.908556 0.0223684 6.24941e-21)
(1.02244 0.0347961 3.50083e-19)
(1.11375 0.0453532 0)
(1.18147 0.05316 9.43286e-20)
(1.2272 0.057913 0)
(1.25428 0.0598053 -1.51049e-19)
(1.26688 0.0593617 2.12237e-19)
(1.26912 0.0572523 2.17746e-21)
(1.26459 0.0541389 -5.40474e-20)
(1.25601 0.0505779 9.9632e-20)
(1.24531 0.0469833 8.50854e-20)
(1.23369 0.0436302 -7.52772e-20)
(1.22189 0.0406876 6.88457e-20)
(1.2103 0.0381491 -6.05935e-20)
(1.19914 0.0364979 0)
(1.18817 0.0328157 -4.53574e-20)
(0.01221 -0.00289099 1.08116e-19)
(0.0741166 -0.0140079 1.1284e-19)
(0.171937 -0.0191457 -1.01958e-19)
(0.29842 -0.0184163 1.90011e-19)
(0.445206 -0.0117835 -1.78836e-19)
(0.602035 0.000277758 1.62079e-19)
(0.757409 0.0162187 -7.74938e-20)
(0.900436 0.0337975 2.04794e-19)
(1.02274 0.0506928 -1.2807e-19)
(1.11964 0.0650287 2.24976e-19)
(1.19025 0.0756798 -5.17265e-19)
(1.23684 0.0823212 1.88811e-19)
(1.26355 0.0852763 -1.63732e-19)
(1.27529 0.0852623 1.538e-19)
(1.27668 0.0831344 1.30575e-19)
(1.27154 0.0796954 1.12956e-19)
(1.26265 0.0755924 -3.1377e-19)
(1.25189 0.0712902 1.93974e-19)
(1.2404 0.0670921 -8.50869e-20)
(1.22882 0.0631792 2.18809e-19)
(1.2175 0.0596477 -7.06966e-20)
(1.20659 0.0565165 -1.68285e-19)
(1.19617 0.0540117 1.54734e-19)
(1.18603 0.05018 4.53433e-20)
(0.0235098 -0.00545907 0)
(0.11038 -0.0181511 6.82332e-22)
(0.234523 -0.0202812 2.10859e-19)
(0.385813 -0.0134983 -1.98041e-19)
(0.552294 0.000776944 -1.79134e-19)
(0.720353 0.0205752 3.32877e-19)
(0.876618 0.0429513 -1.54566e-19)
(1.01057 0.064741 2.05614e-19)
(1.11625 0.0833825 -4.87488e-21)
(1.19253 0.0973681 -1.15888e-19)
(1.24211 0.106288 2.51539e-19)
(1.26998 0.110584 -3.69726e-19)
(1.28181 0.111184 0)
(1.28284 0.109157 -7.15732e-20)
(1.27725 0.105475 -1.89772e-19)
(1.26802 0.100899 5.98395e-20)
(1.25706 0.0959626 2.75665e-21)
(1.24549 0.0910076 -1.27379e-19)
(1.23392 0.086237 9.43375e-21)
(1.22266 0.0817629 1.46592e-19)
(1.21184 0.0776396 -6.40657e-20)
(1.2015 0.0738968 -2.3952e-20)
(1.19162 0.0705581 7.51598e-20)
(1.18208 0.06651 0)
(0.0376643 -0.00724334 0)
(0.153317 -0.0192647 5.70068e-20)
(0.305293 -0.0158873 -2.72837e-19)
(0.479994 -0.000961991 9.94816e-20)
(0.661608 0.0220151 -9.3627e-20)
(0.833909 0.0492478 -8.51193e-20)
(0.983395 0.0765283 -1.50903e-19)
(1.10194 0.100299 7.52109e-20)
(1.18747 0.118413 6.57306e-20)
(1.24282 0.130233 0)
(1.27373 0.136283 1.48001e-19)
(1.28678 0.137725 -2.18936e-19)
(1.28802 0.135892 1.6311e-19)
(1.28219 0.131981 7.16106e-20)
(1.27259 0.126911 -5.80039e-20)
(1.2613 0.121316 -4.79791e-20)
(1.24949 0.115591 -4.44418e-20)
(1.23778 0.109969 1.3422e-19)
(1.22645 0.104579 0)
(1.2156 0.0994921 6.6202e-20)
(1.20528 0.094743 5.48028e-20)
(1.19545 0.0903501 -1.36953e-19)
(1.18606 0.0862498 -9.20853e-20)
(1.17702 0.0819728 8.54231e-20)
(0.0546688 -0.00777129 -6.02203e-20)
(0.20225 -0.0162609 -1.68847e-21)
(0.382207 -0.00477529 5.52612e-20)
(0.577161 0.0199358 1.53758e-19)
(0.767913 0.0518008 4.45555e-20)
(0.937223 0.0852086 -8.60861e-20)
(1.0736 0.115226 7.89996e-20)
(1.17299 0.138649 -6.94618e-20)
(1.23776 0.15434 1.2372e-19)
(1.27423 0.1628 5.27089e-20)
(1.29003 0.165444 -1.49039e-19)
(1.29225 0.163946 4.39812e-20)
(1.28648 0.15981 7.4679e-20)
(1.27653 0.154184 -3.6795e-20)
(1.26479 0.147845 0)
(1.25257 0.141271 5.43975e-20)
(1.24052 0.134738 9.15856e-20)
(1.22894 0.128394 1.53121e-20)
(1.21792 0.122321 -7.60233e-20)
(1.20749 0.116562 3.17135e-20)
(1.19762 0.111141 0)
(1.18823 0.106055 -2.4687e-20)
(1.17928 0.101225 -2.29213e-20)
(1.17064 0.0966163 0)
(0.0742941 -0.00654612 0)
(0.255916 -0.00812698 3.14131e-20)
(0.462484 0.0139367 5.81146e-20)
(0.673062 0.0493842 -1.55712e-19)
(0.866377 0.0893867 4.99657e-20)
(1.02634 0.126983 0)
(1.14543 0.15735 7.53749e-20)
(1.2245 0.178373 -1.05082e-19)
(1.27004 0.190293 -6.15223e-20)
(1.2908 0.194751 2.79445e-20)
(1.29522 0.193849 -4.41575e-20)
(1.29002 0.18952 1.07529e-19)
(1.27986 0.183246 5.38236e-20)
(1.26761 0.176021 -3.74928e-20)
(1.25484 0.168448 -3.60451e-21)
(1.2423 0.160866 -1.02145e-19)
(1.23032 0.153453 4.64712e-20)
(1.219 0.146304 -1.0477e-21)
(1.20836 0.139468 0)
(1.19836 0.132972 -3.17461e-20)
(1.18892 0.126828 0)
(1.17997 0.12101 7.13553e-20)
(1.17143 0.115489 -8.48759e-20)
(1.16319 0.110452 3.86038e-20)
(0.0960654 -0.00309771 -1.60382e-20)
(0.312504 0.00594261 -7.85525e-20)
(0.542834 0.0406772 8.90068e-20)
(0.763481 0.0869708 5.2522e-20)
(0.953105 0.133543 -2.52039e-20)
(1.09899 0.172963 4.21541e-20)
(1.19884 0.201437 -2.05522e-20)
(1.25844 0.218483 3.42351e-20)
(1.28746 0.225817 0)
(1.29597 0.226039 7.75342e-20)
(1.29228 0.221669 -3.13514e-21)
(1.28226 0.214678 -6.26567e-20)
(1.26954 0.206396 2.68779e-20)
(1.25613 0.197623 -3.03475e-20)
(1.24296 0.188797 -1.15792e-20)
(1.23044 0.180142 1.33181e-20)
(1.2187 0.171769 -1.03355e-20)
(1.20774 0.163734 -5.57734e-20)
(1.19751 0.156066 3.42119e-20)
(1.18795 0.14878 7.03094e-21)
(1.17896 0.141869 6.18528e-21)
(1.17046 0.135301 5.44143e-21)
(1.16234 0.129117 0)
(1.15447 0.123522 0)
(0.119339 0.00298147 1.60493e-20)
(0.369906 0.026462 -1.61263e-20)
(0.619919 0.0753557 -2.95867e-20)
(0.844782 0.131747 0)
(1.02543 0.182762 -1.24522e-20)
(1.15431 0.22162 -1.11097e-20)
(1.23484 0.246347 -1.91252e-20)
(1.27701 0.258355 0)
(1.29261 0.260718 0)
(1.29203 0.256719 0)
(1.28286 0.249042 0)
(1.2699 0.239535 0)
(1.25585 0.229315 -1.68952e-20)
(1.24198 0.218986 7.70013e-21)
(1.22883 0.208848 1.34043e-20)
(1.21657 0.199038 6.25258e-21)
(1.2052 0.18962 1.55391e-20)
(1.19468 0.180622 0)
(1.18494 0.172058 -3.74144e-21)
(1.17588 0.16393 -3.52939e-21)
(1.16741 0.156216 -6.19505e-21)
(1.1594 0.148895 -5.45005e-21)
(1.15176 0.142075 0)
(1.14435 0.135813 3.9325e-21)
(-0.0021649 0.00765078 9.09106e-21)
(-0.00937795 0.00631248 -9.4514e-21)
(-0.0219217 -0.00514629 -1.79155e-20)
(-0.0370998 -0.0219908 0)
(-0.0535236 -0.0410798 -2.39157e-20)
(-0.070527 -0.0606932 7.43847e-21)
(-0.0876073 -0.0801921 -1.42889e-20)
(-0.104359 -0.0996267 0)
(-0.12047 -0.119371 0)
(-0.135697 -0.139847 0)
(-0.149847 -0.161355 0)
(-0.162757 -0.184014 0)
(-0.17428 -0.207756 -1.99262e-22)
(-0.184265 -0.232341 -9.26003e-21)
(-0.192552 -0.25738 1.77633e-20)
(-0.198968 -0.282339 2.48305e-20)
(-0.203329 -0.306548 7.924e-21)
(-0.205442 -0.329197 0)
(-0.205129 -0.349353 6.74178e-21)
(-0.202256 -0.365999 -1.90279e-20)
(-0.196689 -0.378087 -1.18339e-20)
(-0.188207 -0.384566 -1.10196e-20)
(-0.176754 -0.384379 0)
(-0.163456 -0.376806 0)
(-0.00330259 0.0134674 -2.75687e-20)
(-0.011525 0.0196674 4.74505e-20)
(-0.0245476 0.0130087 -1.82746e-20)
(-0.0399086 -0.000820729 -3.4396e-20)
(-0.0563475 -0.0181141 4.83901e-20)
(-0.0732672 -0.0368 -3.07566e-20)
(-0.0901941 -0.0560044 4.32162e-20)
(-0.106739 -0.0756202 2.79102e-20)
(-0.122611 -0.0959137 0)
(-0.137598 -0.117236 -2.40775e-20)
(-0.151547 -0.139849 -1.7367e-22)
(-0.164342 -0.163858 2.12322e-20)
(-0.175888 -0.189201 3.09921e-20)
(-0.186097 -0.215661 3.85436e-20)
(-0.194877 -0.24288 -1.78039e-20)
(-0.202136 -0.270354 -5.0582e-20)
(-0.207773 -0.297441 1.59817e-20)
(-0.211688 -0.323347 -5.96064e-20)
(-0.2138 -0.34714 0)
(-0.214079 -0.367771 1.26857e-20)
(-0.212452 -0.38412 1.18216e-20)
(-0.208595 -0.395017 1.10083e-20)
(-0.20244 -0.399252 0)
(-0.196307 -0.395986 0)
(-0.00499244 0.0191122 0)
(-0.0145573 0.0329178 9.88499e-20)
(-0.0275974 0.0312935 -3.72112e-20)
(-0.0422401 0.0207229 3.49665e-20)
(-0.0575206 0.00542427 -1.00709e-19)
(-0.072975 -0.0121703 0)
(-0.0881922 -0.0309196 -6.01465e-20)
(-0.102814 -0.0505171 2.86897e-20)
(-0.116567 -0.0710865 -5.4732e-20)
(-0.129257 -0.0928944 2.68895e-20)
(-0.140753 -0.116159 1.45307e-19)
(-0.150969 -0.140972 -6.82757e-20)
(-0.15985 -0.167282 -1.06447e-19)
(-0.167363 -0.194897 -4.10151e-20)
(-0.173488 -0.22349 2.40214e-22)
(-0.178218 -0.252599 1.40753e-19)
(-0.181558 -0.281619 -6.58625e-20)
(-0.183521 -0.3098 -9.12725e-22)
(-0.184151 -0.336239 0)
(-0.183546 -0.359889 -5.17774e-20)
(-0.181743 -0.379568 0)
(-0.178357 -0.393995 -4.13231e-20)
(-0.173083 -0.401908 1.53816e-19)
(-0.169466 -0.402547 -2.43169e-21)
(-0.00708857 0.0239669 0)
(-0.018217 0.044787 1.2478e-21)
(-0.0307842 0.0481384 3.904e-20)
(-0.043801 0.040965 -3.718e-20)
(-0.0567423 0.0278467 3.35253e-20)
(-0.0693466 0.0115296 1.97211e-19)
(-0.0812959 -0.0065728 -6.17477e-20)
(-0.09226 -0.0259334 -5.97568e-20)
(-0.101979 -0.0465255 1.11367e-19)
(-0.11027 -0.0684982 -1.57679e-19)
(-0.116995 -0.0920131 5.056e-20)
(-0.122073 -0.117139 4.80902e-20)
(-0.125472 -0.14382 0)
(-0.127194 -0.17187 4.10016e-20)
(-0.127282 -0.200974 0)
(-0.125818 -0.230689 7.44202e-20)
(-0.122927 -0.260441 -1.3455e-19)
(-0.118769 -0.289526 3.34952e-20)
(-0.113547 -0.317108 1.16087e-19)
(-0.107526 -0.342202 5.17252e-20)
(-0.100959 -0.363648 0)
(-0.0936187 -0.380092 -1.23415e-19)
(-0.084607 -0.390167 3.99203e-20)
(-0.0770251 -0.393201 0)
(-0.00935328 0.0275134 0)
(-0.0221097 0.0541482 -1.25027e-19)
(-0.033754 0.0621059 -4.03833e-20)
(-0.0443434 0.0583327 -7.52714e-20)
(-0.0538831 0.0475403 7.08797e-20)
(-0.0623534 0.0326903 -6.63939e-20)
(-0.0695632 0.0154362 1.28521e-19)
(-0.0752467 -0.00348117 6.08183e-20)
(-0.0791319 -0.0238582 -1.7134e-19)
(-0.0810101 -0.045727 1.09709e-19)
(-0.0807468 -0.0691713 -1.54382e-19)
(-0.0782466 -0.0942169 3.45135e-19)
(-0.0734767 -0.120784 -1.843e-19)
(-0.0664662 -0.148668 8.81171e-20)
(-0.0573114 -0.177534 2.44212e-19)
(-0.0461847 -0.20692 -7.61342e-20)
(-0.03334 -0.23624 -7.33787e-20)
(-0.0191104 -0.264801 -6.50976e-20)
(-0.003897 -0.291815 0)
(0.0118268 -0.316403 -1.0261e-19)
(0.027504 -0.337561 -8.53609e-20)
(0.0428052 -0.354061 1.296e-19)
(0.0587249 -0.364258 1.37289e-19)
(0.0770642 -0.366371 -1.28499e-19)
(-0.0115043 0.0294317 0)
(-0.025765 0.0601996 -1.737e-19)
(-0.03612 0.072068 -1.71268e-21)
(-0.0436605 0.071502 1.53985e-19)
(-0.0489393 0.0630799 0)
(-0.0521998 0.0498393 0)
(-0.0533966 0.0336016 0)
(-0.0523295 0.0153018 -6.23338e-20)
(-0.0487562 -0.00467963 -1.12441e-21)
(-0.0424457 -0.0262534 1.12087e-19)
(-0.0332272 -0.0494047 -1.5866e-19)
(-0.0210025 -0.0741024 -3.01775e-22)
(-0.00574495 -0.100221 0)
(0.0124826 -0.127515 -8.80616e-20)
(0.0335147 -0.155604 8.38179e-20)
(0.0570703 -0.183971 -2.34249e-19)
(0.0827447 -0.211976 2.83911e-19)
(0.110013 -0.238876 5.95354e-20)
(0.138253 -0.26386 -1.00148e-20)
(0.166769 -0.286092 -2.16942e-19)
(0.194755 -0.304753 -9.29551e-20)
(0.221516 -0.318916 2.76641e-19)
(0.246754 -0.327075 -1.79119e-19)
(0.278921 -0.3254 0)
(-0.0132781 0.029649 8.70373e-20)
(-0.0287203 0.062571 8.73725e-20)
(-0.0375029 0.0773356 -8.47058e-20)
(-0.041568 0.0795242 -1.58816e-19)
(-0.0419536 0.0733364 1.49541e-19)
(-0.0391579 0.0617344 -1.42787e-19)
(-0.0332939 0.0466155 2.02462e-19)
(-0.024247 0.0290569 -6.26684e-20)
(-0.0118063 0.00959065 1.20992e-19)
(0.00425292 -0.0115499 0)
(0.024106 -0.0342554 1.1114e-19)
(0.0478413 -0.0584143 -2.07785e-19)
(0.0754451 -0.0838372 1.94343e-19)
(0.106769 -0.11022 -1.8253e-19)
(0.141511 -0.137125 0)
(0.179205 -0.163978 1.57152e-19)
(0.219216 -0.190081 2.85741e-19)
(0.26076 -0.214643 -2.67773e-19)
(0.30294 -0.236824 -1.18193e-19)
(0.344823 -0.255782 -9.92801e-20)
(0.385331 -0.270797 2.84478e-19)
(0.424307 -0.28098 7.17169e-20)
(0.457602 -0.286507 -7.42955e-20)
(0.505636 -0.279989 5.55469e-20)
(-0.0144895 0.028335 -8.70489e-20)
(-0.0306005 0.0613577 2.73596e-19)
(-0.0375595 0.0777349 -8.66009e-20)
(-0.0378586 0.0819344 1.62322e-19)
(-0.0328921 0.0776043 -1.52838e-19)
(-0.0233723 0.0674972 6.06744e-22)
(-0.00956671 0.0534881 6.89064e-20)
(0.00854007 0.036734 2.64132e-19)
(0.0311043 0.0178894 2.09337e-21)
(0.0583136 -0.00268591 -1.15715e-19)
(0.0903041 -0.0247693 0)
(0.127094 -0.0481501 -1.05582e-19)
(0.168541 -0.0725566 1.96837e-19)
(0.214302 -0.0976112 1.8346e-19)
(0.263809 -0.122811 -8.66342e-20)
(0.316257 -0.147531 -1.62016e-23)
(0.370632 -0.171046 -7.24119e-20)
(0.425753 -0.19257 1.30498e-19)
(0.480343 -0.211312 1.18138e-19)
(0.533219 -0.226484 -1.048e-19)
(0.582775 -0.237654 9.00033e-20)
(0.630239 -0.243377 -7.73656e-20)
(0.66627 -0.246624 0)
(0.723289 -0.236007 -5.54533e-20)
(-0.0150635 0.0258478 9.03407e-20)
(-0.0311625 0.0570632 -9.18648e-20)
(-0.0359794 0.0736053 8.82693e-20)
(-0.0322165 0.0788146 0)
(-0.0214629 0.0757184 0)
(-0.00457785 0.0667717 1.49936e-19)
(0.0180422 0.0537446 -1.39139e-19)
(0.0463092 0.0378122 1.33994e-19)
(0.0802954 0.0197159 -6.26276e-19)
(0.120098 -7.25521e-05 -4.58998e-22)
(0.165725 -0.0212116 1.11987e-19)
(0.216999 -0.0433804 0)
(0.273492 -0.0662088 -1.97117e-19)
(0.334472 -0.0892387 3.68517e-19)
(0.398889 -0.111913 -2.57843e-19)
(0.465403 -0.133587 -3.89404e-19)
(0.532447 -0.153565 9.68638e-21)
(0.598338 -0.171139 2.62251e-19)
(0.661379 -0.185669 0)
(0.720196 -0.196491 0)
(0.772812 -0.203646 -8.99877e-20)
(0.821386 -0.205193 7.73537e-20)
(0.854755 -0.206211 -2.4571e-19)
(0.907763 -0.192838 2.30525e-19)
(-0.0150362 0.0226375 0)
(-0.030284 0.0504609 0)
(-0.0324293 0.0657126 -2.66464e-19)
(-0.0240953 0.070786 8.43967e-20)
(-0.00690761 0.0681297 -3.26372e-22)
(0.018207 0.059874 1.50652e-19)
(0.0507594 0.0476369 0)
(0.0905515 0.0325675 -1.33637e-19)
(0.137516 0.01546 1.2563e-19)
(0.191547 -0.00311868 -2.38508e-19)
(0.252353 -0.022714 -4.8001e-23)
(0.31933 -0.042899 2.10217e-19)
(0.39149 -0.0632187 -1.33519e-21)
(0.467428 -0.083167 1.79489e-19)
(0.545362 -0.102188 -2.57557e-19)
(0.623232 -0.119701 0)
(0.69885 -0.135135 2.76207e-19)
(0.770088 -0.147974 -3.87509e-19)
(0.835048 -0.157808 1.11148e-19)
(0.892341 -0.164248 0)
(0.940498 -0.167581 8.53057e-20)
(0.981276 -0.166144 2.85512e-19)
(1.0068 -0.165268 -2.67979e-19)
(1.044 -0.151066 -2.57347e-19)
(-0.0145066 0.0191365 2.80761e-19)
(-0.0278826 0.0424139 -3.85788e-19)
(-0.0264514 0.0550968 5.27399e-22)
(-0.012587 0.0589381 8.58819e-20)
(0.0121654 0.0559336 -1.60966e-19)
(0.0468754 0.0479244 -1.50088e-19)
(0.0909769 0.0363711 2.84639e-19)
(0.144109 0.0223717 2.54999e-22)
(0.205927 0.00674619 -2.5235e-19)
(0.275894 -0.00986912 4.75835e-19)
(0.353105 -0.0269434 1.90191e-22)
(0.436171 -0.0439931 -2.0974e-19)
(0.523187 -0.0605505 0)
(0.611793 -0.0761564 0)
(0.699323 -0.0903713 -8.39401e-20)
(0.783029 -0.102798 -1.49755e-19)
(0.860327 -0.113103 -2.68807e-19)
(0.929027 -0.12105 2.52343e-19)
(0.987559 -0.126479 -1.11204e-19)
(1.03501 -0.129378 1.85953e-19)
(1.07124 -0.129882 -9.83863e-20)
(1.09738 -0.127418 1.26892e-19)
(1.11118 -0.125506 -3.22857e-19)
(1.12767 -0.113118 5.33321e-20)
(-0.0135502 0.0156619 9.48866e-20)
(-0.0237719 0.0336928 0)
(-0.0173185 0.0428836 1.83578e-19)
(0.00370078 0.0446767 -1.72928e-19)
(0.0378626 0.040779 1.61111e-19)
(0.0842378 0.0328153 0)
(0.142112 0.0221086 0)
(0.210785 0.00969587 -1.34738e-19)
(0.289337 -0.00360957 1.2352e-22)
(0.3764 -0.0171635 1.18689e-19)
(0.47001 -0.0304464 -1.1006e-19)
(0.567586 -0.043034 2.0816e-19)
(0.66604 -0.0545831 0)
(0.762006 -0.0648279 3.50805e-19)
(0.852153 -0.0735784 -6.49488e-19)
(0.933503 -0.0807196 4.50401e-19)
(1.00372 -0.0862014 2.60127e-19)
(1.0613 -0.0900466 -2.44211e-19)
(1.10569 -0.0922733 0)
(1.13713 -0.0931164 0)
(1.15695 -0.0923496 0)
(1.1664 -0.0908086 0)
(1.1679 -0.0882004 6.15106e-20)
(1.16686 -0.0809042 -2.00031e-19)
(-0.147714 -0.360108 -7.09812e-21)
(-0.120082 -0.326821 7.12305e-21)
(-0.0866601 -0.276534 -2.09085e-22)
(-0.0473948 -0.209661 0)
(-0.00313033 -0.127106 -6.8599e-21)
(0.0450122 -0.031218 1.3258e-20)
(0.0960679 0.0758765 -1.94082e-22)
(0.148543 0.188551 -6.03817e-21)
(0.201514 0.30014 0)
(0.253689 0.402055 0)
(0.303283 0.486537 -2.34164e-22)
(0.347376 0.547709 -1.96979e-22)
(0.382384 0.584416 -2.74753e-21)
(0.404232 0.60188 2.50985e-21)
(0.409337 0.609753 0)
(0.398981 0.613941 0)
(0.383946 0.606675 1.94163e-21)
(0.38216 0.566101 2.1545e-22)
(0.407828 0.470757 -1.90086e-21)
(0.46106 0.316673 -1.56805e-22)
(0.530979 0.120262 0)
(0.60548 -0.088133 0)
(0.674315 -0.27283 0)
(0.729558 -0.405576 0)
(0.76715 -0.479687 0)
(0.786373 -0.507334 0)
(0.791683 -0.505507 2.93606e-22)
(0.788273 -0.490437 -4.80076e-22)
(0.773191 -0.482768 0)
(0.739163 -0.493045 0)
(0.69166 -0.497122 -4.12269e-22)
(0.652954 -0.444391 4.00697e-22)
(0.644759 -0.302397 2.38713e-22)
(0.668077 -0.0985934 0)
(0.711258 0.110448 0)
(0.7565 0.26857 3.8114e-22)
(0.797543 0.362633 -3.7048e-22)
(0.827334 0.401512 0)
(0.838005 0.425217 2.18652e-22)
(0.818265 0.450446 -3.16926e-22)
(0.776136 0.456387 1.09448e-22)
(0.735434 0.403214 0)
(0.724019 0.254625 -2.83166e-22)
(0.73715 0.0695747 2.75344e-22)
(0.77697 -0.124862 0)
(0.813596 -0.240085 0)
(0.840552 -0.32257 -7.422e-23)
(0.826117 -0.364969 2.03925e-22)
(0.789456 -0.378642 0)
(0.75389 -0.351128 0)
(0.756106 -0.194471 -5.69398e-23)
(0.778686 -0.0730411 5.14542e-24)
(0.816559 0.127826 -4.58122e-24)
(0.813764 0.227942 3.70611e-23)
(0.804536 0.325144 0)
(0.788346 0.378282 0)
(0.798539 0.21498 0)
(0.794337 0.181328 0)
(0.810923 -0.114553 0)
(0.789537 -0.228002 0)
(-0.193197 -0.384396 -6.20064e-22)
(-0.179708 -0.358867 -2.5906e-20)
(-0.159074 -0.315631 2.41979e-22)
(-0.131521 -0.255394 2.41198e-20)
(-0.0965519 -0.178442 3.37341e-22)
(-0.0543072 -0.0865302 0)
(-0.0062612 0.0169071 -2.09212e-20)
(0.0453061 0.127952 4.01991e-20)
(0.0991994 0.241454 -1.92774e-20)
(0.154345 0.345936 1.53628e-20)
(0.209168 0.435896 -1.46974e-20)
(0.26 0.506027 1.10265e-20)
(0.302533 0.55525 -1.06927e-20)
(0.332518 0.587523 -2.59097e-22)
(0.348218 0.608664 -7.85763e-21)
(0.354468 0.618896 7.63642e-21)
(0.364049 0.606661 -8.24776e-21)
(0.392181 0.552248 7.74507e-21)
(0.445769 0.441694 -1.02999e-20)
(0.518617 0.277423 2.09209e-20)
(0.599268 0.0769403 -1.05853e-20)
(0.677403 -0.130707 -6.75471e-22)
(0.743439 -0.309993 -8.54767e-21)
(0.790219 -0.433281 1.51021e-20)
(0.816326 -0.495987 -6.60431e-21)
(0.823758 -0.513438 2.80819e-22)
(0.817895 -0.504762 3.32544e-21)
(0.805203 -0.484317 -2.77728e-22)
(0.784619 -0.469269 -5.24849e-21)
(0.747557 -0.47178 5.11322e-21)
(0.695212 -0.474599 -2.54441e-21)
(0.647462 -0.4312 3.57848e-22)
(0.628585 -0.304611 -2.3919e-22)
(0.64432 -0.11404 4.43341e-22)
(0.684426 0.0887326 0)
(0.731999 0.247217 0)
(0.778936 0.345788 -1.12941e-21)
(0.815977 0.392182 8.55024e-22)
(0.831681 0.425983 6.59478e-22)
(0.815921 0.460706 1.38231e-22)
(0.778875 0.470293 -9.71516e-22)
(0.744697 0.413038 2.7483e-22)
(0.739635 0.25601 0)
(0.754371 0.0627478 0)
(0.793138 -0.13589 0)
(0.825149 -0.24954 0)
(0.850381 -0.324277 3.42091e-22)
(0.834054 -0.358171 -1.31861e-22)
(0.79608 -0.36892 0)
(0.758857 -0.346579 0)
(0.757523 -0.197822 0)
(0.779216 -0.0805389 -8.60788e-23)
(0.812527 0.123547 1.54579e-23)
(0.810099 0.22883 -8.31581e-23)
(0.800118 0.327669 0)
(0.784959 0.379063 0)
(0.798841 0.213727 5.88425e-23)
(0.796146 0.180151 1.8832e-22)
(0.817254 -0.11363 0)
(0.794178 -0.226542 0)
(-0.176353 -0.395761 -1.55928e-21)
(-0.180899 -0.3792 -4.71531e-20)
(-0.176726 -0.344786 4.36106e-20)
(-0.165989 -0.293619 -4.0864e-20)
(-0.146305 -0.225052 -3.39698e-22)
(-0.117332 -0.140383 0)
(-0.0788923 -0.0427756 -3.45773e-20)
(-0.0315518 0.0637559 3.37561e-20)
(0.0187093 0.176619 2.61408e-22)
(0.0713206 0.283499 3.65116e-22)
(0.127592 0.378843 3.21637e-22)
(0.182065 0.457989 3.45527e-22)
(0.230468 0.519426 -1.6926e-20)
(0.269481 0.564716 1.67099e-20)
(0.299457 0.595456 0)
(0.326985 0.607682 4.41955e-22)
(0.363809 0.588832 -1.69376e-20)
(0.42032 0.523336 1.67288e-20)
(0.496982 0.403993 0)
(0.584442 0.236721 0)
(0.672387 0.0381801 -2.37758e-20)
(0.752018 -0.165158 4.49419e-20)
(0.813912 -0.33702 -3.84685e-20)
(0.851389 -0.450839 3.73722e-21)
(0.865553 -0.503845 2.4139e-20)
(0.861457 -0.513278 -1.89252e-20)
(0.845275 -0.499721 1.39115e-20)
(0.823878 -0.475865 -1.25237e-21)
(0.79821 -0.454894 -5.16384e-21)
(0.759314 -0.449818 0)
(0.703889 -0.45066 0)
(0.648274 -0.416476 2.23648e-21)
(0.618558 -0.306354 -2.81869e-21)
(0.625673 -0.130593 -6.58903e-23)
(0.661662 0.0646002 2.96921e-21)
(0.710852 0.222585 -2.88562e-21)
(0.762932 0.325634 0)
(0.806531 0.380208 2.43797e-22)
(0.827102 0.424688 1.962e-21)
(0.815801 0.469178 -3.9548e-21)
(0.784497 0.4827 1.781e-21)
(0.757008 0.422257 3.09204e-22)
(0.758242 0.258204 -3.37739e-21)
(0.774633 0.0580426 2.62312e-21)
(0.811979 -0.144426 6.07127e-22)
(0.838901 -0.257284 4.70691e-22)
(0.861927 -0.325085 -3.42945e-22)
(0.843749 -0.350984 0)
(0.804596 -0.358919 0)
(0.765775 -0.34211 -7.47062e-22)
(0.760809 -0.201304 3.67893e-22)
(0.781461 -0.0880903 -3.16107e-22)
(0.810191 0.119147 4.65616e-22)
(0.808051 0.229585 5.68971e-22)
(0.796928 0.32991 -1.50823e-22)
(0.782543 0.379631 2.66309e-22)
(0.800248 0.212057 -2.56645e-22)
(0.799211 0.17853 1.48199e-22)
(0.824809 -0.112743 0)
(0.79985 -0.224965 0)
(-0.0904299 -0.389643 -8.7836e-20)
(-0.113485 -0.381689 6.85869e-21)
(-0.127124 -0.357139 7.64813e-20)
(-0.13598 -0.316723 -5.89521e-22)
(-0.13625 -0.258986 0)
(-0.126375 -0.184839 0)
(-0.105768 -0.0959221 -5.19355e-20)
(-0.0712894 0.00407535 2.56175e-21)
(-0.0294643 0.1111 6.76255e-20)
(0.0155148 0.218172 -1.88305e-21)
(0.0676316 0.317089 -1.91835e-20)
(0.122465 0.403692 -1.48971e-20)
(0.175605 0.475064 1.4883e-20)
(0.224602 0.530006 0)
(0.270906 0.566652 -1.35617e-20)
(0.320812 0.578599 1.23288e-20)
(0.383183 0.554157 0)
(0.463271 0.482436 0)
(0.556933 0.361309 2.20467e-20)
(0.654223 0.197527 2.2961e-21)
(0.746423 0.0045352 -2.22946e-20)
(0.82626 -0.191979 -2.24759e-20)
(0.883855 -0.355456 2.23949e-20)
(0.912006 -0.460103 -1.49863e-20)
(0.914282 -0.504824 3.48766e-21)
(0.899036 -0.507976 1.06562e-20)
(0.873489 -0.490949 8.7237e-22)
(0.844086 -0.465412 1.22202e-23)
(0.813434 -0.440387 0)
(0.773519 -0.428047 4.13884e-21)
(0.717132 -0.425388 -4.2558e-21)
(0.655562 -0.399121 3.06697e-22)
(0.615162 -0.306234 0)
(0.612647 -0.147281 -3.82275e-22)
(0.643391 0.038664 5.1398e-21)
(0.693226 0.195116 -8.85717e-21)
(0.749479 0.30245 4.4957e-23)
(0.798836 0.365576 2.22519e-22)
(0.824128 0.420973 2.94704e-21)
(0.817666 0.475347 4.30658e-22)
(0.79255 0.49328 -4.44278e-21)
(0.771749 0.430853 3.72918e-21)
(0.779179 0.261485 -3.58179e-23)
(0.797349 0.0556504 2.73287e-21)
(0.833132 -0.150358 -3.26578e-21)
(0.854691 -0.263345 -3.17247e-21)
(0.875014 -0.325179 9.37365e-22)
(0.854966 -0.343565 9.5731e-22)
(0.814708 -0.34862 -1.7114e-21)
(0.77431 -0.337515 1.12895e-21)
(0.765644 -0.204775 -3.22358e-22)
(0.785225 -0.0956835 3.40357e-22)
(0.809482 0.114578 2.6399e-22)
(0.807598 0.230223 -8.03184e-22)
(0.795004 0.331926 -7.36544e-24)
(0.781181 0.380019 -2.82667e-22)
(0.802797 0.209971 0)
(0.803549 0.176466 -1.35678e-22)
(0.83357 -0.111875 3.81719e-22)
(0.806531 -0.223254 0)
(0.060205 -0.366256 8.06818e-20)
(0.0218629 -0.364324 -1.48456e-19)
(-0.00816602 -0.349122 6.73241e-20)
(-0.0354329 -0.319547 5.18064e-20)
(-0.0569949 -0.273441 -9.57536e-20)
(-0.0695254 -0.212289 4.36238e-21)
(-0.0706051 -0.135615 3.8965e-20)
(-0.0569177 -0.043818 3.1147e-20)
(-0.0308605 0.052491 -3.05609e-20)
(0.00158929 0.153957 0)
(0.0442151 0.252732 -2.35192e-20)
(0.0952821 0.343334 4.44179e-20)
(0.150483 0.420928 -2.11063e-20)
(0.207906 0.481931 0)
(0.268871 0.52196 0)
(0.337958 0.533397 4.07268e-22)
(0.420521 0.506217 -3.22486e-20)
(0.517331 0.433717 3.13232e-20)
(0.621447 0.316894 0)
(0.723828 0.161145 4.90033e-20)
(0.818752 -0.0235238 -9.39363e-20)
(0.898766 -0.210991 9.02105e-20)
(0.951605 -0.364986 -8.09456e-20)
(0.97042 -0.460536 6.77249e-21)
(0.961219 -0.498512 5.12633e-20)
(0.935518 -0.497551 -2.20407e-20)
(0.901814 -0.478668 -4.38439e-22)
(0.865552 -0.452974 -4.55328e-21)
(0.830199 -0.425997 6.93087e-22)
(0.789676 -0.407553 3.94411e-21)
(0.734139 -0.400194 2.37057e-22)
(0.66904 -0.37969 -4.00915e-21)
(0.618833 -0.303631 8.37036e-21)
(0.605792 -0.162954 -4.86502e-21)
(0.629984 0.0117215 0)
(0.679219 0.165239 -4.36123e-21)
(0.738445 0.2764 4.16835e-21)
(0.792642 0.348099 -2.8278e-21)
(0.822498 0.41438 3.51344e-21)
(0.821166 0.478755 -4.17303e-22)
(0.802505 0.501803 0)
(0.788283 0.438929 -6.3344e-22)
(0.801703 0.26586 2.22176e-21)
(0.82188 0.0555741 0)
(0.856174 -0.153572 6.10061e-21)
(0.87228 -0.267557 -2.59041e-21)
(0.889433 -0.324495 7.30222e-22)
(0.867508 -0.335938 5.20054e-22)
(0.826165 -0.338024 0)
(0.784139 -0.332704 0)
(0.771695 -0.208165 -8.28084e-22)
(0.790267 -0.103339 1.23645e-21)
(0.810284 0.109786 -6.92154e-22)
(0.808696 0.230743 2.12798e-22)
(0.794388 0.333769 4.81355e-22)
(0.780961 0.380253 2.8294e-22)
(0.806511 0.207472 -5.8673e-22)
(0.80917 0.173941 0)
(0.843504 -0.111008 -5.55796e-22)
(0.814187 -0.221381 -1.40353e-22)
(0.258255 -0.328605 7.56152e-20)
(0.212769 -0.328618 -7.49582e-20)
(0.169992 -0.31962 4.71149e-22)
(0.129436 -0.298556 -3.26306e-22)
(0.0900611 -0.265481 3.27249e-22)
(0.0553261 -0.218451 -2.77277e-22)
(0.0326774 -0.155973 2.83786e-22)
(0.021869 -0.0794343 0)
(0.0248582 0.0048734 -1.66226e-22)
(0.0411407 0.0965251 1.39247e-22)
(0.0705024 0.190532 1.24611e-22)
(0.112792 0.280238 -2.71068e-22)
(0.165303 0.359622 0)
(0.226432 0.423285 0)
(0.296638 0.465041 2.19523e-22)
(0.378284 0.476738 0)
(0.473399 0.449998 -3.86089e-22)
(0.57929 0.381252 0)
(0.687765 0.272962 -4.16726e-20)
(0.791993 0.128152 8.69198e-20)
(0.888618 -0.0455894 -9.09937e-20)
(0.968185 -0.22265 4.56925e-20)
(1.01575 -0.366198 3.6809e-20)
(1.02528 -0.452966 -3.57424e-20)
(1.00542 -0.485778 -2.2848e-20)
(0.970319 -0.482789 2.20104e-20)
(0.92971 -0.463531 0)
(0.887872 -0.438752 3.18686e-22)
(0.848184 -0.411675 0)
(0.807104 -0.388837 0)
(0.753819 -0.376095 5.73932e-21)
(0.687916 -0.358707 -5.90704e-21)
(0.629692 -0.298002 3.69139e-22)
(0.605649 -0.176751 5.23653e-22)
(0.621729 -0.0153742 -4.15939e-22)
(0.668813 0.133453 -3.21409e-21)
(0.729624 0.247647 3.12093e-21)
(0.787653 0.327608 -3.29279e-21)
(0.8219 0.404503 2.83229e-21)
(0.82586 0.47899 8.23994e-22)
(0.813763 0.508069 -4.66726e-21)
(0.805889 0.446494 -1.84421e-21)
(0.824999 0.271288 4.04792e-21)
(0.847567 0.0580295 0)
(0.880634 -0.153966 -2.76577e-21)
(0.891385 -0.2698 2.62835e-21)
(0.904928 -0.323026 -3.5594e-21)
(0.881147 -0.32816 -5.23343e-22)
(0.838728 -0.327103 0)
(0.794964 -0.327534 2.60245e-22)
(0.778623 -0.211407 -5.24931e-22)
(0.796309 -0.111109 -3.96909e-23)
(0.812442 0.10468 -1.37346e-22)
(0.811278 0.231114 3.97853e-22)