/*--------------------------------*- C++ -*----------------------------------*\
| =========                 |                                                 |
| \\      /  F ield         | OpenFOAM: The Open Source CFD Toolbox           |
|  \\    /   O peration     | Version:  2512                                  |
|   \\  /    A nd           | Website:  www.openfoam.com                      |
|    \\/     M anipulation  |                                                 |
\*---------------------------------------------------------------------------*/
FoamFile
{
    version     2.0;
    format      ascii;
    arch        "LSB;label=32;scalar=64";
    class       volVectorField;
    location    "134";
    object      U;
}
// * * * * * * * * * * * * * * * * * * * * * * * * * * * * * * * * * * * * * //

dimensions      [0 1 -1 0 0 0 0];

internalField   nonuniform List<vector> 
13248
(
(-0.0134962 0.0115522 6.85981e-20)
(-0.0262346 0.0235816 0)
(-0.0256708 0.0289488 -1.29579e-19)
(-0.011669 0.030521 1.22066e-19)
(0.0159515 0.0301833 1.13859e-19)
(0.057313 0.0291975 0)
(0.112406 0.0284352 0)
(0.180911 0.0284993 2.68519e-19)
(0.262013 0.0297714 -2.44629e-21)
(0.354257 0.0324378 -2.32524e-19)
(0.455475 0.036487 2.13939e-19)
(0.562829 0.0417096 -1.33434e-19)
(0.672955 0.0477113 0)
(0.782197 0.0539491 -2.30021e-19)
(0.88689 0.0597867 4.30856e-19)
(0.983649 0.0645634 -1.01817e-19)
(1.06963 0.0676728 -1.87441e-19)
(1.14274 0.0686066 1.75965e-19)
(1.20181 0.0671056 0)
(1.24658 0.0627655 0)
(1.27776 0.0565136 0)
(1.29676 0.0455261 0)
(1.30523 0.038187 5.7116e-20)
(1.3063 0.0124807 2.12701e-19)
(-0.0142094 0.0111126 -2.07328e-19)
(-0.0231521 0.0209392 1.41527e-19)
(-0.0140764 0.0242184 -1.38991e-21)
(0.0122823 0.0240661 -1.86858e-19)
(0.055576 0.0226314 -1.13733e-19)
(0.115423 0.0214061 -1.07501e-19)
(0.191089 0.0213932 -1.95392e-19)
(0.281197 0.0232091 1.85395e-19)
(0.38351 0.0271356 0)
(0.494866 0.0331382 1.13093e-21)
(0.611297 0.0408827 2.97265e-21)
(0.728332 0.0497758 1.34868e-19)
(0.841401 0.0590385 0)
(0.946274 0.0678053 0)
(1.03946 0.0752348 1.59296e-19)
(1.11847 0.0806141 -2.99271e-19)
(1.18204 0.0834389 1.82065e-19)
(1.2301 0.0834583 -1.70933e-19)
(1.26366 0.0806723 -7.65127e-20)
(1.28463 0.0753098 -1.42218e-19)
(1.29536 0.067762 -6.07937e-20)
(1.29853 0.0583213 -1.1518e-19)
(1.29587 0.0488952 1.6582e-19)
(1.29145 0.035213 4.81262e-20)
(-0.0135888 0.00980687 0)
(-0.0158998 0.0167392 0)
(0.00490851 0.0182124 6.61103e-20)
(0.0471132 0.0172739 6.06764e-20)
(0.109558 0.0161467 -1.80715e-21)
(0.190895 0.0164153 -1.11916e-19)
(0.289024 0.0190553 0)
(0.400776 0.024504 -9.19094e-20)
(0.521826 0.0327083 8.66107e-20)
(0.646919 0.0431722 1.29148e-21)
(0.770364 0.0550432 -1.46233e-19)
(0.886659 0.0672476 -1.33847e-19)
(0.99112 0.0786569 2.29974e-21)
(1.08035 0.0882536 -1.11448e-19)
(1.15252 0.0952658 2.66588e-19)
(1.20737 0.0992483 0)
(1.24609 0.100102 -1.76272e-19)
(1.27088 0.0980225 8.5288e-20)
(1.28457 0.0934567 7.64528e-20)
(1.29008 0.0868493 0)
(1.29006 0.079061 6.40543e-20)
(1.2865 0.0697461 -2.22085e-19)
(1.28072 0.0619145 2.08484e-19)
(1.27469 0.0492343 1.33476e-19)
(-0.0112414 0.0077055 -7.39502e-20)
(-0.00349969 0.0111725 -7.65893e-20)
(0.0325333 0.0112732 6.89376e-20)
(0.0939759 0.0106858 0)
(0.178441 0.0114872 0)
(0.282958 0.0151383 -2.90032e-21)
(0.403288 0.0223196 0)
(0.533779 0.0329755 -2.8363e-19)
(0.667701 0.0464127 2.62942e-19)
(0.797973 0.0614567 -3.23315e-19)
(0.91808 0.0766783 7.35016e-20)
(1.0229 0.0906534 0)
(1.10926 0.102197 1.22757e-19)
(1.1761 0.110522 -2.27531e-19)
(1.22427 0.115302 5.39609e-20)
(1.2561 0.116638 1.40136e-19)
(1.27479 0.114946 -5.26805e-21)
(1.28375 0.110824 -1.5685e-19)
(1.28608 0.1049 0)
(1.28424 0.097766 0)
(1.27995 0.089904 -5.73158e-20)
(1.27422 0.081478 5.17602e-20)
(1.2676 0.0738839 1.88462e-19)
(1.26105 0.0630905 -1.76926e-19)
(-0.00681295 0.00502569 -7.84968e-20)
(0.0149099 0.00483605 -7.80166e-20)
(0.0698116 0.00434683 2.19224e-19)
(0.153544 0.00557069 -1.32581e-19)
(0.261874 0.0101542 1.24792e-19)
(0.389398 0.0191027 2.25699e-19)
(0.529004 0.0324102 -1.59686e-19)
(0.672261 0.0491517 -1.93763e-19)
(0.810438 0.0677485 4.32212e-21)
(0.935785 0.0863274 2.46056e-19)
(1.04263 0.103108 0)
(1.12795 0.116718 6.77709e-20)
(1.19147 0.126377 0)
(1.23507 0.131911 -1.10371e-19)
(1.26214 0.133644 1.5509e-19)
(1.2766 0.132215 1.30571e-21)
(1.28228 0.128378 -4.10699e-20)
(1.28232 0.122845 7.71499e-20)
(1.27903 0.116208 6.69063e-20)
(1.27391 0.108887 -6.03244e-20)
(1.26781 0.10122 5.7304e-20)
(1.26118 0.0932601 -5.1749e-20)
(1.25421 0.0858986 0)
(1.24747 0.0762807 -3.94664e-20)
(2.66765e-05 0.00208312 7.84855e-20)
(0.0400308 -0.00136594 8.26744e-20)
(0.117359 -0.00115591 -7.3535e-20)
(0.225703 0.00370529 1.37036e-19)
(0.358193 0.0140332 -1.28979e-19)
(0.506202 0.0299118 1.16286e-19)
(0.659405 0.0501938 -5.60326e-20)
(0.807074 0.0727978 1.45561e-19)
(0.939833 0.0952701 -9.1789e-20)
(1.05112 0.115357 1.61919e-19)
(1.1379 0.131433 -3.73588e-19)
(1.20048 0.142702 1.37487e-19)
(1.24172 0.149149 -1.19871e-19)
(1.26589 0.151339 1.12596e-19)
(1.27761 0.150137 9.74522e-20)
(1.28104 0.146463 8.5814e-20)
(1.27941 0.141116 -2.3912e-19)
(1.27497 0.134711 1.485e-19)
(1.26912 0.12767 -6.69107e-20)
(1.26262 0.120274 1.75574e-19)
(1.25586 0.112702 -5.66989e-20)
(1.24899 0.105053 -1.39172e-19)
(1.24205 0.0977586 1.28673e-19)
(1.23526 0.088993 3.94552e-20)
(0.00957549 -0.000738784 0)
(0.0723057 -0.00633421 8.51038e-22)
(0.175161 -0.00359098 1.54911e-19)
(0.309219 0.00699065 -1.45142e-19)
(0.46415 0.0248492 -1.30586e-19)
(0.627661 0.048606 2.42529e-19)
(0.786666 0.0756217 -1.12549e-19)
(0.929596 0.102677 1.49377e-19)
(1.04845 0.12684 -3.41948e-21)
(1.13971 0.146082 -8.45508e-20)
(1.20405 0.159509 1.83582e-19)
(1.24512 0.167242 -2.71244e-19)
(1.26807 0.17009 0)
(1.27819 0.169171 -5.32653e-20)
(1.28007 0.165593 -1.42191e-19)
(1.27712 0.160279 4.47454e-20)
(1.27165 0.1539 1.68743e-21)
(1.26503 0.146902 -9.88944e-20)
(1.258 0.139565 5.82053e-21)
(1.25089 0.13206 1.14595e-19)
(1.24384 0.124498 -5.15094e-20)
(1.23686 0.116965 -1.96988e-20)
(1.22992 0.109609 6.03291e-20)
(1.22308 0.101461 0)
(0.0220533 -0.00299883 0)
(0.111783 -0.00886685 4.20948e-20)
(0.242372 -0.00130305 -2.03014e-19)
(0.401579 0.0170887 7.37225e-20)
(0.575058 0.0437238 -6.93832e-20)
(0.747137 0.0753046 -6.34523e-20)
(0.903402 0.107674 -1.11612e-19)
(1.03358 0.13692 5.59666e-20)
(1.13298 0.160332 4.83062e-20)
(1.2022 0.176742 0)
(1.24549 0.186336 1.09558e-19)
(1.26888 0.190169 -1.63179e-19)
(1.27845 0.189646 1.2126e-19)
(1.27936 0.186125 5.32941e-20)
(1.27537 0.1807 -4.38055e-20)
(1.26896 0.174149 -3.66246e-20)
(1.26156 0.16697 -3.42565e-20)
(1.25391 0.159462 1.0238e-19)
(1.24635 0.151802 0)
(1.239 0.144093 5.17234e-20)
(1.23186 0.136411 4.37561e-20)
(1.22489 0.128816 -1.0843e-19)
(1.21803 0.121321 -7.47168e-20)
(1.21125 0.113583 6.89113e-20)
(0.0375351 -0.00420736 -4.59298e-20)
(0.157987 -0.00774794 -1.96149e-21)
(0.317215 0.0071773 4.14337e-20)
(0.499128 0.0351491 1.16032e-19)
(0.685416 0.0709556 3.3697e-20)
(0.858273 0.10923 -6.51805e-20)
(1.00413 0.144733 5.93367e-20)
(1.11609 0.173642 -5.17649e-20)
(1.19397 0.194199 9.27862e-20)
(1.24233 0.206495 3.92891e-20)
(1.26806 0.211812 -1.11845e-19)
(1.27822 0.211899 3.27997e-20)
(1.27876 0.208444 5.59636e-20)
(1.27399 0.202794 -2.75361e-20)
(1.2667 0.195887 0)
(1.25847 0.188313 4.09822e-20)
(1.25011 0.180414 6.93699e-20)
(1.24197 0.172381 1.18809e-20)
(1.23418 0.164322 -5.78694e-20)
(1.22674 0.156307 2.42032e-20)
(1.2196 0.148387 0)
(1.21269 0.140593 -1.90616e-20)
(1.20593 0.132893 -1.8205e-20)
(1.19924 0.125358 0)
(0.0558857 -0.00384928 0)
(0.209833 -0.00184834 2.41204e-20)
(0.397041 0.0229663 4.46547e-20)
(0.597467 0.0616593 -1.18726e-19)
(0.789767 0.106042 3.84925e-20)
(0.956069 0.149007 0)
(1.08592 0.185071 5.73984e-20)
(1.17722 0.211366 -8.01494e-20)
(1.2343 0.227588 -4.64352e-20)
(1.26484 0.235159 2.08742e-20)
(1.27705 0.236231 -3.34357e-20)
(1.27798 0.23293 8.11599e-20)
(1.27275 0.226963 4.04441e-20)
(1.26466 0.219515 -2.81889e-20)
(1.25558 0.21132 -2.71401e-21)
(1.24643 0.202792 -7.67404e-20)
(1.23762 0.194153 3.49253e-20)
(1.22929 0.185523 -9.18141e-22)
(1.22144 0.176971 0)
(1.21402 0.168542 -2.42287e-20)
(1.20697 0.160272 0)
(1.20018 0.15216 5.48329e-20)
(1.19359 0.14421 -6.52246e-20)
(1.18705 0.136689 2.9738e-20)
(0.0767145 -0.00142162 -1.27024e-20)
(0.26563 0.00976872 -6.10264e-20)
(0.478529 0.0467053 6.95603e-20)
(0.692003 0.0964187 4.07603e-20)
(0.883463 0.147866 -1.94389e-20)
(1.03737 0.193022 3.25942e-20)
(1.14814 0.227184 -1.5822e-20)
(1.21883 0.249117 2.62011e-20)
(1.25759 0.260159 0)
(1.27395 0.262876 5.90402e-20)
(1.27638 0.259969 -2.53786e-21)
(1.27119 0.253658 -4.74658e-20)
(1.26246 0.245495 2.02488e-20)
(1.25252 0.23644 -2.27731e-20)
(1.24252 0.227025 -8.60179e-21)
(1.23296 0.217529 1.00102e-20)
(1.22399 0.20809 -7.68121e-21)
(1.21564 0.19878 -4.16908e-20)
(1.20786 0.189644 2.55299e-20)
(1.20057 0.180714 5.20542e-21)
(1.19368 0.172002 4.57921e-21)
(1.18709 0.163495 4.03067e-21)
(1.18069 0.15526 0)
(1.17433 0.147558 0)
(0.0994373 0.00353174 1.27112e-20)
(0.323302 0.0277644 -1.26981e-20)
(0.558172 0.0784933 -2.32067e-20)
(0.778626 0.138613 0)
(0.963189 0.194946 -9.671e-21)
(1.1008 0.239714 -8.72694e-21)
(1.19161 0.269924 -1.48559e-20)
(1.24342 0.286349 0)
(1.26703 0.291867 0)
(1.27271 0.28988 0)
(1.2684 0.283324 0)
(1.25936 0.274306 0)
(1.24864 0.264139 -1.272e-20)
(1.23777 0.25355 5.78895e-21)
(1.22739 0.242907 1.00208e-20)
(1.21774 0.232384 4.68205e-21)
(1.20883 0.222063 1.15372e-20)
(1.20062 0.211986 0)
(1.19303 0.202182 -2.74739e-21)
(1.18599 0.192667 -2.63432e-21)
(1.17937 0.183436 -4.58652e-21)
(1.17308 0.17448 -4.03712e-21)
(1.16698 0.165931 0)
(1.16093 0.157888 2.87517e-21)
(-0.0016835 0.00333521 8.69334e-21)
(-0.00813643 0.0189873 -9.01474e-21)
(-0.0193796 0.039568 -1.70501e-20)
(-0.033015 0.0619376 0)
(-0.0477732 0.0840327 -2.28241e-20)
(-0.0630097 0.104881 7.21122e-21)
(-0.0782281 0.124356 -1.34462e-20)
(-0.0930126 0.142842 0)
(-0.107019 0.160912 0)
(-0.11996 0.179093 0)
(-0.131587 0.197725 0)
(-0.141683 0.216919 0)
(-0.150045 0.236566 1.39004e-22)
(-0.156474 0.25637 -8.92467e-21)
(-0.160762 0.275883 1.66592e-20)
(-0.162696 0.29452 2.37204e-20)
(-0.162053 0.311583 7.41747e-21)
(-0.158617 0.326269 0)
(-0.152187 0.337699 6.77793e-21)
(-0.142607 0.344962 -1.91934e-20)
(-0.129767 0.347185 -1.22704e-20)
(-0.113573 0.343603 -1.17645e-20)
(-0.0939746 0.333545 0)
(-0.0714394 0.316916 0)
(-0.00189388 0.00741504 -2.5983e-20)
(-0.00834391 0.0283434 4.4861e-20)
(-0.0185161 0.0523859 -1.66977e-20)
(-0.030455 0.0770503 -3.18521e-20)
(-0.04309 0.100615 4.51418e-20)
(-0.0558549 0.12227 -2.82308e-20)
(-0.0683127 0.141961 3.9994e-20)
(-0.0800851 0.160105 2.47187e-20)
(-0.0908343 0.17731 0)
(-0.100249 0.19414 -2.23864e-20)
(-0.108041 0.210978 -6.29374e-23)
(-0.113938 0.227972 1.97819e-20)
(-0.117687 0.245035 2.75712e-20)
(-0.11904 0.26188 3.49022e-20)
(-0.117756 0.278058 -1.64069e-20)
(-0.113597 0.292985 -4.6715e-20)
(-0.106337 0.305974 1.48402e-20)
(-0.0957719 0.316253 -5.58277e-20)
(-0.081733 0.322993 0)
(-0.0641026 0.325356 1.28088e-20)
(-0.042813 0.322562 1.22489e-20)
(-0.0179457 0.313958 1.17434e-20)
(0.0106403 0.299183 0)
(0.0429297 0.278661 0)
(-0.00239429 0.0101265 0)
(-0.00913769 0.0346011 8.80568e-20)
(-0.0182578 0.0610449 -3.32412e-20)
(-0.0282886 0.0873592 3.15054e-20)
(-0.0383777 0.11203 -8.81987e-20)
(-0.0480494 0.134314 0)
(-0.0569438 0.154146 -5.1987e-20)
(-0.0647449 0.171908 2.42034e-20)
(-0.0711511 0.188183 -4.54136e-20)
(-0.0758602 0.203544 2.08231e-20)
(-0.0785698 0.218407 1.21216e-19)
(-0.0789829 0.232967 -5.69292e-20)
(-0.0768134 0.247186 -9.02806e-20)
(-0.0717908 0.260822 -3.39559e-20)
(-0.0636635 0.273466 -5.72595e-22)
(-0.0521972 0.284577 1.21965e-19)
(-0.0371901 0.293518 -5.76015e-20)
(-0.018493 0.299584 4.12745e-22)
(0.00399238 0.302033 0)
(0.0302974 0.300128 -5.08672e-20)
(0.0603545 0.293177 0)
(0.0939832 0.28059 -4.95829e-20)
(0.131269 0.26214 1.85816e-19)
(0.173376 0.238201 3.33449e-21)
(-0.00300534 0.0114739 0)
(-0.0102582 0.0376841 -3.66383e-22)
(-0.0185357 0.0653056 3.26423e-20)
(-0.0267626 0.092419 -3.05834e-20)
(-0.0342581 0.117617 2.93764e-20)
(-0.0406196 0.140164 1.62867e-19)
(-0.0455645 0.159927 -5.1129e-20)
(-0.0488553 0.177197 -4.74232e-20)
(-0.0502577 0.192484 8.98138e-20)
(-0.049517 0.206325 -1.26831e-19)
(-0.0463595 0.219146 3.91189e-20)
(-0.0405046 0.231184 3.675e-20)
(-0.0316732 0.242465 0)
(-0.0196026 0.252819 3.34982e-20)
(-0.00405833 0.261913 0)
(0.0151581 0.269287 5.88034e-20)
(0.0381964 0.274391 -1.14715e-19)
(0.065143 0.276618 2.50315e-20)
(0.0960156 0.275341 1.03346e-19)
(0.130753 0.269946 5.08033e-20)
(0.169204 0.259858 0)
(0.211172 0.244567 -1.44487e-19)
(0.255889 0.223884 4.49974e-20)
(0.308372 0.197489 0)
(-0.00359895 0.0116916 0)
(-0.0115127 0.0379896 -1.03562e-19)
(-0.0193067 0.0655019 -3.22618e-20)
(-0.0261009 0.0923762 -6.08503e-20)
(-0.0312951 0.117278 5.72946e-20)
(-0.0345234 0.139466 -5.39877e-20)
(-0.0355646 0.158725 1.00088e-19)
(-0.0342626 0.175232 4.69699e-20)
(-0.0304697 0.189388 -1.32515e-19)
(-0.0240163 0.201657 8.2268e-20)
(-0.0147033 0.212441 -1.16373e-19)
(-0.00231104 0.221997 2.5267e-19)
(0.013386 0.23041 -1.36418e-19)
(0.0326012 0.237589 6.35608e-20)
(0.0555194 0.243295 1.8296e-19)
(0.082283 0.247173 -5.70825e-20)
(0.112981 0.24878 -5.25042e-20)
(0.147641 0.247627 -5.27009e-20)
(0.186223 0.243209 0)
(0.228633 0.235023 -1.0045e-19)
(0.274617 0.222603 -1.00833e-19)
(0.324621 0.205473 1.37171e-19)
(0.375313 0.1836 1.85811e-19)
(0.439298 0.155441 -1.73162e-19)
(-0.00414096 0.0111729 0)
(-0.0128472 0.0362713 -1.3636e-19)
(-0.0205986 0.0624473 6.48647e-22)
(-0.0264842 0.0879343 1.20825e-19)
(-0.0298884 0.111507 0)
(-0.0304456 0.132456 0)
(-0.0279737 0.150514 0)
(-0.0223885 0.165751 -4.61978e-20)
(-0.0136344 0.178454 5.10557e-22)
(-0.00164389 0.188996 8.0736e-20)
(0.0136796 0.197723 -1.14253e-19)
(0.0324602 0.204889 1.17099e-22)
(0.0548377 0.210614 0)
(0.0809513 0.214877 -6.35285e-20)
(0.110924 0.217529 5.91286e-20)
(0.14485 0.218319 -1.67484e-19)
(0.182785 0.216919 2.16188e-19)
(0.224753 0.212948 5.45398e-20)
(0.270727 0.206004 5.50057e-21)
(0.320736 0.195686 -1.89165e-19)
(0.374181 0.181588 -9.16883e-20)
(0.433314 0.163309 3.19284e-19)
(0.489966 0.141078 -2.14958e-19)
(0.568739 0.111632 0)
(-0.00470677 0.0103803 6.57771e-20)
(-0.0143641 0.0334734 6.80949e-20)
(-0.022494 0.0572776 -6.35237e-20)
(-0.0279773 0.0802534 -1.19062e-19)
(-0.0301169 0.101382 1.12101e-19)
(-0.0285267 0.120056 -1.03843e-19)
(-0.0230462 0.136016 1.46007e-19)
(-0.0136447 0.149271 -4.59948e-20)
(-0.000343477 0.160015 8.48385e-20)
(0.0168345 0.16853 0)
(0.0378922 0.175103 7.24118e-20)
(0.0628672 0.17996 -1.36275e-19)
(0.0918283 0.183235 1.29433e-19)
(0.124867 0.184955 -1.21558e-19)
(0.162088 0.185043 0)
(0.203597 0.183334 1.09392e-19)
(0.249492 0.179592 2.09227e-19)
(0.299876 0.173531 -1.97836e-19)
(0.354782 0.164822 -9.48943e-20)
(0.414588 0.153199 -9.74156e-20)
(0.477857 0.138136 2.69103e-19)
(0.549658 0.119627 8.91606e-20)
(0.613895 0.0976024 -8.05401e-20)
(0.711788 0.068441 8.01425e-20)
(-0.00545298 0.0097449 -6.57862e-20)
(-0.0162543 0.0305212 2.01992e-19)
(-0.0250305 0.0512184 -6.33796e-20)
(-0.030379 0.0707475 1.18123e-19)
(-0.0315094 0.0884235 -1.11218e-19)
(-0.0280172 0.103834 1.54967e-22)
(-0.0197488 0.116797 4.82495e-20)
(-0.00669565 0.127322 1.76401e-19)
(0.0110874 0.135556 -1.76475e-21)
(0.0335409 0.141718 -7.8637e-20)
(0.0606363 0.146041 0)
(0.092394 0.148724 -6.62809e-20)
(0.128886 0.1499 1.26182e-19)
(0.170231 0.149621 1.18909e-19)
(0.21658 0.147853 -5.62396e-20)
(0.268103 0.14449 -1.31426e-21)
(0.32495 0.139357 -5.14247e-20)
(0.387249 0.132233 9.6073e-20)
(0.454871 0.122806 9.48864e-20)
(0.528274 0.111013 -9.16471e-20)
(0.604666 0.0959788 8.60516e-20)
(0.691434 0.07878 -8.29784e-20)
(0.764456 0.0576346 0)
(0.879525 0.0321801 -8.01215e-20)
(-0.00655297 0.00955278 6.53524e-20)
(-0.0186632 0.0281115 -6.73626e-20)
(-0.0280191 0.045331 6.3116e-20)
(-0.0330091 0.0608159 0)
(-0.0327854 0.0743507 0)
(-0.0269365 0.0857997 1.01235e-19)
(-0.0152922 0.0951336 -9.57817e-20)
(0.00218656 0.102425 8.66358e-20)
(0.0254879 0.107826 -4.0939e-19)
(0.0546052 0.111534 6.86574e-22)
(0.0895708 0.113753 7.04092e-20)
(0.130467 0.11466 0)
(0.177417 0.11438 -1.23636e-19)
(0.23056 0.112969 2.32588e-19)
(0.290007 0.110406 -1.64799e-19)
(0.355785 0.1066 -2.62322e-19)
(0.427778 0.101396 -3.48384e-21)
(0.505687 0.0946052 1.86109e-19)
(0.588752 0.0859169 0)
(0.67669 0.0754671 0)
(0.765625 0.0620386 -8.60538e-20)
(0.861981 0.0479603 8.29799e-20)
(0.940269 0.02866 -3.15885e-19)
(1.05633 0.00998781 2.95825e-19)
(-0.00808655 0.0098807 0)
(-0.0214968 0.0265515 0)
(-0.0308583 0.0402778 -1.88958e-19)
(-0.0345407 0.0515581 6.02156e-20)
(-0.0317126 0.0607408 1.29239e-21)
(-0.0219651 0.0680293 1.02736e-19)
(-0.00507393 0.0736066 0)
(0.0190929 0.0776626 -8.77678e-20)
(0.0506343 0.0804036 8.16368e-20)
(0.0896465 0.0820422 -1.49638e-19)
(0.136226 0.082777 4.94664e-22)
(0.190441 0.0827687 1.30394e-19)
(0.252285 0.0821188 -2.29821e-22)
(0.32161 0.0808561 1.15397e-19)
(0.398057 0.0789289 -1.62102e-19)
(0.480988 0.0762102 0)
(0.569432 0.0725098 1.9709e-19)
(0.66207 0.0675988 -2.79145e-19)
(0.757127 0.0611755 8.82253e-20)
(0.852909 0.053243 0)
(0.945696 0.0427915 8.02547e-20)
(1.03761 0.0320737 3.15708e-19)
(1.1114 0.0154773 -2.96287e-19)
(1.20414 0.00329562 -3.5024e-19)
(-0.00997142 0.0105669 1.96786e-19)
(-0.0243001 0.0256771 -2.7047e-19)
(-0.0324463 0.0361832 8.78857e-22)
(-0.0330271 0.0435457 5.99131e-20)
(-0.0253084 0.0486944 -1.10767e-19)
(-0.00889547 0.0522088 -1.02316e-19)
(0.0165023 0.0545197 1.88312e-19)
(0.0511102 0.0559659 -3.02537e-21)
(0.0950882 0.0568369 -1.63921e-19)
(0.1485 0.057379 3.00959e-19)
(0.211254 0.0577854 -1.55156e-21)
(0.283026 0.0581796 -1.31009e-19)
(0.363181 0.0585979 0)
(0.450712 0.0589788 0)
(0.544199 0.0591614 -5.40514e-20)
(0.641822 0.0588928 -1.01617e-19)
(0.7414 0.0578592 -1.94346e-19)
(0.840467 0.0556725 1.82419e-19)
(0.936416 0.0520497 -8.82664e-20)
(1.02663 0.0465111 1.66589e-19)
(1.10842 0.0390193 -7.8752e-20)
(1.18072 0.0297307 1.50646e-19)
(1.23714 0.0162255 -3.4824e-19)
(1.29206 0.00641505 6.83002e-20)
(-0.0119195 0.0112582 6.61634e-20)
(-0.0262417 0.0249306 0)
(-0.0312818 0.0326564 1.27693e-19)
(-0.0261774 0.0367344 -1.20293e-19)
(-0.0103974 0.0386275 1.10869e-19)
(0.0164004 0.0392896 0)
(0.0544867 0.0393866 0)
(0.10401 0.039408 -8.74805e-20)
(0.164914 0.0397192 2.41578e-21)
(0.236816 0.0405751 7.72631e-20)
(0.318905 0.0421171 -7.00988e-20)
(0.40986 0.0443609 1.31866e-19)
(0.507826 0.0471869 0)
(0.610452 0.0503411 2.29528e-19)
(0.714989 0.0534518 -4.31239e-19)
(0.818441 0.0560576 3.04219e-19)
(0.917752 0.0576658 1.91342e-19)
(1.00999 0.0577388 -1.79612e-19)
(1.09261 0.0559846 0)
(1.1635 0.0516388 0)
(1.22144 0.0456181 0)
(1.26586 0.0354471 0)
(1.29691 0.0253109 6.78344e-20)
(1.3188 0.011475 -2.43315e-19)
(-0.0433923 0.290949 -7.83952e-21)
(-0.00733364 0.246537 7.89115e-21)
(0.0325252 0.186617 -2.58991e-22)
(0.0759649 0.112165 0)
(0.121809 0.0244538 -7.75194e-21)
(0.169117 -0.0739894 1.49282e-20)
(0.217255 -0.179827 -3.04568e-22)
(0.265167 -0.287803 -6.6896e-21)
(0.311763 -0.390761 0)
(0.355339 -0.480043 0)
(0.393459 -0.547888 -2.68787e-22)
(0.423411 -0.589991 -2.18921e-22)
(0.442571 -0.607609 -2.7752e-21)
(0.447738 -0.608561 2.5255e-21)
(0.435665 -0.604375 0)
(0.408193 -0.600421 0)
(0.377424 -0.585744 1.86961e-21)
(0.362653 -0.535554 1.87195e-22)
(0.378326 -0.428851 -1.82901e-21)
(0.42423 -0.265734 -1.28139e-22)
(0.489408 -0.0675834 0)
(0.561252 0.13324 0)
(0.629529 0.30269 0)
(0.686489 0.419467 0)
(0.727162 0.48307 0)
(0.751248 0.505534 0)
(0.763257 0.502572 2.86417e-22)
(0.763633 0.494711 -4.62465e-22)
(0.745979 0.502379 0)
(0.709544 0.520005 0)
(0.671006 0.504078 -4.96058e-22)
(0.653983 0.406512 4.82121e-22)
(0.669511 0.221593 3.13126e-22)
(0.707995 0.000488474 0)
(0.755612 -0.19775 0)
(0.795718 -0.329473 3.82464e-22)
(0.826358 -0.396272 -3.71767e-22)
(0.843331 -0.41603 0)
(0.840693 -0.429006 2.10452e-22)
(0.808707 -0.444812 -3.00789e-22)
(0.75916 -0.436026 9.74778e-23)
(0.717982 -0.364249 0)
(0.710078 -0.204082 -2.55796e-22)
(0.729665 -0.0224537 2.48734e-22)
(0.773895 0.156786 0)
(0.812838 0.258676 0)
(0.832994 0.339786 -6.99722e-23)
(0.812056 0.382617 1.9611e-22)
(0.774228 0.386672 0)
(0.745322 0.332039 0)
(0.758285 0.154197 -6.37408e-23)
(0.785317 0.0270105 -7.5987e-24)
(0.824847 -0.164674 -6.56594e-24)
(0.816423 -0.247954 4.30744e-23)
(0.805293 -0.336309 0)
(0.789353 -0.36753 0)
(0.798135 -0.195565 0)
(0.793045 -0.152834 0)
(0.804485 0.149763 0)
(0.784483 0.238473 0)
(0.080354 0.250422 -7.88471e-22)
(0.122029 0.20379 -3.47155e-20)
(0.165871 0.141979 -7.28697e-22)
(0.21203 0.0662121 3.32476e-20)
(0.259232 -0.0219749 5.35507e-22)
(0.30648 -0.120237 0)
(0.353117 -0.225578 -2.92105e-20)
(0.398276 -0.332626 5.56957e-20)
(0.440476 -0.433496 -2.64729e-20)
(0.4773 -0.51876 1.98085e-20)
(0.50586 -0.580068 -1.89845e-20)
(0.523872 -0.613223 1.2846e-20)
(0.530411 -0.619632 -1.25346e-20)
(0.52485 -0.60671 -2.85568e-22)
(0.504648 -0.587332 -7.31145e-21)
(0.467729 -0.572855 7.10612e-21)
(0.420186 -0.560033 -6.50374e-21)
(0.37932 -0.526081 6.13627e-21)
(0.365058 -0.442819 -7.46321e-21)
(0.386042 -0.299881 1.50164e-20)
(0.43621 -0.113595 -7.53197e-21)
(0.502629 0.0833295 -4.23007e-22)
(0.572698 0.256879 -6.03124e-21)
(0.636352 0.38354 1.07662e-20)
(0.686566 0.459162 -4.76686e-21)
(0.721685 0.492039 2.08224e-22)
(0.74417 0.497528 3.1029e-21)
(0.752177 0.498595 1.28461e-22)
(0.73975 0.515432 -6.03154e-21)
(0.709647 0.537643 6.69228e-21)
(0.68103 0.517632 -3.52336e-21)
(0.675232 0.409296 6.01692e-22)
(0.699595 0.2126 -3.13763e-22)
(0.742469 -0.016552 6.7417e-22)
(0.790056 -0.215892 0)
(0.825249 -0.344038 0)
(0.848036 -0.405358 -1.2348e-21)
(0.856837 -0.418266 9.34542e-22)
(0.849392 -0.422243 6.02356e-22)
(0.814477 -0.429954 6.14136e-23)
(0.761047 -0.419625 -8.33212e-22)
(0.714085 -0.355063 1.93579e-22)
(0.700342 -0.206119 0)
(0.719036 -0.0338545 0)
(0.764075 0.142401 0)
(0.806406 0.248709 0)
(0.827168 0.339221 2.7386e-22)
(0.808315 0.390229 -1.28184e-22)
(0.772554 0.395452 0)
(0.745934 0.33501 0)
(0.762029 0.149472 0)
(0.789245 0.0191371 -1.27906e-22)
(0.832691 -0.168178 3.87683e-24)
(0.823226 -0.246046 -9.20342e-23)
(0.811926 -0.33306 0)
(0.794177 -0.366633 0)
(0.799603 -0.19622 4.26915e-23)
(0.793197 -0.153126 1.07168e-22)
(0.800384 0.150951 0)
(0.78189 0.239744 0)
(0.215056 0.208639 3.89394e-21)
(0.259981 0.161364 -6.94e-20)
(0.305706 0.0999523 7.37387e-20)
(0.353037 0.025141 -6.89441e-20)
(0.40076 -0.0609386 -5.39062e-22)
(0.447745 -0.157094 0)
(0.493068 -0.260352 -6.27564e-20)
(0.535711 -0.365017 6.14511e-20)
(0.573427 -0.462629 3.99041e-22)
(0.602977 -0.543111 6.98555e-22)
(0.621228 -0.597843 5.75237e-22)
(0.62649 -0.623171 4.54976e-22)
(0.619179 -0.621411 -2.0958e-20)
(0.601182 -0.599356 2.06566e-20)
(0.572756 -0.56817 0)
(0.530558 -0.541638 3.64811e-22)
(0.474134 -0.524885 -1.10288e-20)
(0.414765 -0.50232 1.09036e-20)
(0.373568 -0.443343 0)
(0.36752 -0.326384 0)
(0.398032 -0.15816 -1.30506e-20)
(0.454682 0.0305831 2.49773e-20)
(0.523248 0.205512 -2.18542e-20)
(0.591027 0.340886 1.73308e-21)
(0.649232 0.428398 1.51755e-20)
(0.694609 0.472479 -1.32172e-20)
(0.727006 0.487913 1.13915e-20)
(0.74252 0.499092 -4.893e-23)
(0.736092 0.525144 -5.73799e-21)
(0.713575 0.551661 0)
(0.695433 0.528288 0)
(0.700554 0.41141 4.13588e-21)
(0.733308 0.205547 -5.22398e-21)
(0.780006 -0.0294284 3.48429e-23)
(0.826773 -0.229378 4.41623e-21)
(0.856741 -0.354091 -4.29157e-21)
(0.871561 -0.410756 0)
(0.872062 -0.41823 2.66795e-22)
(0.859859 -0.41441 1.78108e-21)
(0.822737 -0.414522 -3.26003e-21)
(0.76645 -0.402684 1.35587e-21)
(0.71433 -0.345728 1.43016e-22)
(0.694714 -0.208882 -1.93897e-21)
(0.712017 -0.0468759 1.53151e-21)
(0.757037 0.126403 3.20272e-22)
(0.802091 0.237573 2.81828e-22)
(0.82326 0.337765 -2.74566e-22)
(0.80674 0.397216 0)
(0.773471 0.40385 0)
(0.749309 0.338207 -1.27031e-21)
(0.7683 0.145276 6.16135e-22)
(0.795189 0.0116572 -6.09698e-22)
(0.842155 -0.171452 7.70713e-22)
(0.831544 -0.243802 7.60404e-22)
(0.819622 -0.329276 -1.69331e-22)
(0.799697 -0.365503 2.25166e-22)
(0.802023 -0.196574 -1.65368e-22)
(0.794497 -0.153096 4.51605e-23)
(0.797445 0.152189 0)
(0.780304 0.240959 0)
(0.350452 0.167815 -1.43804e-19)
(0.396556 0.120825 -4.89322e-21)
(0.44295 0.0609001 1.41632e-19)
(0.491383 -0.0110408 -1.13232e-21)
(0.540035 -0.0937263 0)
(0.586986 -0.186821 0)
(0.631715 -0.287007 -1.28326e-19)
(0.672422 -0.388206 7.98016e-21)
(0.705732 -0.481425 1.62426e-19)
(0.727578 -0.556158 -7.35438e-21)
(0.734906 -0.603878 -4.13361e-20)
(0.727087 -0.621715 -2.58752e-20)
(0.705941 -0.613313 2.60434e-20)
(0.675009 -0.585764 0)
(0.637545 -0.547574 -1.27485e-20)
(0.592135 -0.510521 1.16858e-20)
(0.533887 -0.485106 0)
(0.465343 -0.466295 0)
(0.403356 -0.428122 9.201e-21)
(0.370434 -0.340818 8.1804e-22)
(0.377589 -0.197743 -9.12697e-21)
(0.419728 -0.0222153 -9.89592e-21)
(0.482684 0.150391 9.76817e-21)
(0.551529 0.292502 -7.44686e-21)
(0.615778 0.391196 1.09414e-21)
(0.670148 0.446931 5.92781e-21)
(0.711537 0.473398 6.52015e-22)
(0.734321 0.49531 2.34398e-23)
(0.734529 0.530289 0)
(0.720386 0.560988 7.87224e-21)
(0.712914 0.535795 -8.18308e-21)
(0.728653 0.413265 6.40758e-22)
(0.769369 0.201264 0)
(0.819445 -0.0381008 -7.17301e-22)
(0.865029 -0.238511 9.23894e-21)
(0.889771 -0.360186 -1.50189e-20)
(0.896751 -0.412857 9.17418e-22)
(0.888921 -0.416216 1.17851e-21)
(0.87182 -0.405978 3.35307e-21)
(0.833046 -0.398965 3.42713e-22)
(0.775054 -0.385187 -2.49252e-21)
(0.7187 -0.335815 2.08329e-21)
(0.693194 -0.211863 5.58018e-23)
(0.70854 -0.0610108 1.2751e-21)
(0.752706 0.109059 -1.5611e-21)
(0.799782 0.225303 -1.835e-21)
(0.821244 0.335268 5.39441e-22)
(0.807329 0.403385 1.08093e-21)
(0.777016 0.411776 -2.29039e-21)
(0.755536 0.341734 1.84378e-21)
(0.77721 0.141816 -6.2541e-22)
(0.803136 0.00446189 7.28085e-22)
(0.853073 -0.174526 6.34111e-22)
(0.841288 -0.24124 -1.18719e-21)
(0.828345 -0.324916 4.39925e-23)
(0.805831 -0.364083 -2.00958e-22)
(0.805301 -0.196657 0)
(0.796871 -0.152772 -7.47202e-23)
(0.795614 0.153477 8.69497e-23)
(0.779708 0.242133 0)
(0.480645 0.127149 1.432e-19)
(0.527089 0.0818646 -2.86971e-19)
(0.574906 0.0241048 1.41414e-19)
(0.624787 -0.043252 1.46475e-19)
(0.67443 -0.121922 -2.8667e-19)
(0.722038 -0.210841 3.35253e-21)
(0.766511 -0.306301 1.34082e-19)
(0.804953 -0.401905 1.14976e-19)
(0.832908 -0.488505 -1.12579e-19)
(0.845883 -0.555857 0)
(0.84141 -0.596285 -6.8061e-20)
(0.820387 -0.607874 1.19674e-19)
(0.786423 -0.59492 -5.2038e-20)
(0.744038 -0.564959 0)
(0.697684 -0.524881 0)
(0.648907 -0.482281 3.39138e-22)
(0.592847 -0.447675 -1.55346e-20)
(0.524458 -0.425205 1.50932e-20)
(0.451336 -0.399523 0)
(0.395316 -0.340314 1.45642e-20)
(0.376872 -0.22777 -2.85328e-20)
(0.399666 -0.0722517 2.86866e-20)
(0.452318 0.0933825 -2.75494e-20)
(0.518897 0.239385 1.30558e-21)
(0.586722 0.34788 2.13825e-20)
(0.648224 0.415247 -9.99582e-21)
(0.697323 0.453416 -3.10816e-22)
(0.726987 0.486323 -5.11703e-21)
(0.734262 0.529927 -1.1181e-21)
(0.728959 0.565077 6.22246e-21)
(0.732078 0.54013 5.40825e-22)
(0.757848 0.415231 -1.15766e-20)
(0.806102 0.200055 2.35392e-20)
(0.859602 -0.0423302 -1.34581e-20)
(0.904035 -0.243064 0)
(0.923695 -0.362149 -8.27432e-21)
(0.92313 -0.411527 7.79562e-21)
(0.907168 -0.41211 -3.29885e-21)
(0.885097 -0.397016 4.13909e-21)
(0.845109 -0.383676 -2.99346e-22)
(0.786485 -0.36759 0)
(0.726979 -0.325347 -2.48273e-22)
(0.695726 -0.214724 8.32774e-22)
(0.708428 -0.0758595 0)
(0.750812 0.090579 2.4689e-21)
(0.799283 0.211848 -9.94675e-22)
(0.821021 0.331514 4.82854e-22)
(0.809986 0.408498 4.89532e-22)
(0.783133 0.419132 0)
(0.764575 0.345643 0)
(0.788662 0.139186 -2.18601e-21)
(0.813059 -0.00243343 3.4097e-21)
(0.865357 -0.17736 -1.83228e-21)
(0.852353 -0.238319 5.22102e-22)
(0.838061 -0.319884 7.3102e-22)
(0.812504 -0.362328 2.01146e-22)
(0.809339 -0.196519 -2.11207e-22)
(0.800231 -0.152184 0)
(0.794826 0.154819 -1.42276e-22)
(0.780076 0.243275 -1.79592e-23)
(0.609033 0.08575 1.40852e-19)
(0.654752 0.0430359 -1.40374e-19)
(0.704699 -0.0102947 1.13683e-21)
(0.756648 -0.0729448 -1.09065e-21)
(0.80652 -0.146901 1.12293e-21)
(0.853903 -0.23021 -1.08582e-21)
(0.896672 -0.318881 1.95946e-21)
(0.930759 -0.406472 0)
(0.951075 -0.484238 -1.59749e-21)
(0.953444 -0.542901 1.37016e-21)
(0.936582 -0.57616 1.13505e-21)
(0.902971 -0.583153 -9.35023e-22)
(0.85781 -0.568152 0)
(0.806484 -0.538221 0)
(0.753229 -0.499566 4.07083e-22)
(0.700836 -0.456526 0)
(0.647253 -0.415863 -2.21518e-22)
(0.584895 -0.385735 0)
(0.511323 -0.362792 -9.39523e-21)
(0.440562 -0.324525 1.85946e-20)
(0.397177 -0.243774 -1.89576e-20)
(0.396286 -0.115384 9.60798e-21)
(0.433773 0.0372536 9.26145e-21)
(0.494149 0.182958 -8.99441e-21)
(0.562475 0.29903 -7.94667e-21)
(0.628673 0.377492 7.70225e-21)
(0.683879 0.427643 0)
(0.719861 0.471565 2.5466e-22)
(0.73436 0.523491 0)
(0.738046 0.563717 0)
(0.75134 0.541244 1.84549e-20)
(0.786447 0.417505 -1.89202e-20)
(0.841825 0.201795 1.51342e-21)
(0.899174 -0.0421444 1.53573e-21)
(0.942928 -0.243088 -1.34895e-21)
(0.957885 -0.360168 -7.39663e-21)
(0.950249 -0.406952 7.18175e-21)
(0.926524 -0.405977 -4.35205e-21)
(0.899425 -0.387637 3.6944e-21)
(0.858516 -0.36893 5.83457e-22)
(0.800194 -0.350169 -1.90118e-21)
(0.738723 -0.314281 -2.22252e-22)
(0.701976 -0.217093 1.31779e-21)
(0.711376 -0.0911277 0)
(0.75111 0.0711307 -8.63393e-22)
(0.800349 0.197123 1.25721e-21)
(0.822423 0.326253 -1.65386e-21)
(0.814532 0.412309 -4.92668e-22)
(0.791642 0.425783 0)
(0.776245 0.349967 8.13334e-22)
(0.802543 0.137544 -1.53364e-21)
(0.824902 -0.00856781 4.04521e-23)
(0.878817 -0.179885 -6.39977e-22)
(0.864604 -0.235028 7.81864e-22)
(0.848723 -0.314101 -7.42708e-22)
(0.819642 -0.36017 0)
(0.814035 -0.19621 2.11304e-22)
(0.804484 -0.151361 0)
(0.795007 0.156213 0)
(0.781379 0.244392 2.66733e-23)
(0.748787 0.0450614 -1.37753e-19)
(0.792265 0.0060401 1.3631e-19)
(0.841226 -0.0419696 -1.0514e-21)
(0.891347 -0.0999988 1.11659e-21)
(0.939045 -0.167874 0)
(0.982926 -0.243711 0)