/*--------------------------------*- C++ -*----------------------------------*\
| =========                 |                                                 |
| \\      /  F ield         | OpenFOAM: The Open Source CFD Toolbox           |
|  \\    /   O peration     | Version:  2512                                  |
|   \\  /    A nd           | Website:  www.openfoam.com                      |
|    \\/     M anipulation  |                                                 |
\*---------------------------------------------------------------------------*/
FoamFile
{
    version     2.0;
    format      ascii;
    arch        "LSB;label=32;scalar=64";
    class       surfaceScalarField;
    location    "55";
    object      phi;
}
// * * * * * * * * * * * * * * * * * * * * * * * * * * * * * * * * * * * * * //

dimensions      [0 3 -1 0 0 0 0];

oriented        oriented;

internalField   nonuniform List<scalar> 
26232
(
8.83709e-05
0.000952126
-0.0010405
0.000491882
0.00181371
-0.00221723
0.00134094
0.00177041
-0.00261947
0.00276371
0.000873322
-0.00229608
0.00489209
-0.000844381
-0.001284
0.00786106
-0.003362
0.000393023
0.0118023
-0.00666419
0.00272291
0.0168329
-0.0107314
0.00570084
0.0230405
-0.0155288
0.00932127
0.0304668
-0.0209965
0.0135702
0.0390939
-0.0270443
0.0184172
0.0488349
-0.0335508
0.0238099
0.0595325
-0.0403689
0.0296712
0.0709666
-0.0473345
0.0359004
0.0828687
-0.0542791
0.042377
0.0949433
-0.0610427
0.0489681
0.106893
-0.0674861
0.0555365
0.118442
-0.073501
0.0619515
0.129363
-0.0790145
0.068094
0.139488
-0.0840035
0.0738784
0.148713
-0.0884493
0.0792243
0.157006
-0.0924661
0.0841728
0.164248
-0.0958666
0.0886247
-0.0992814
0.0932689
0.170261
0.000122822
0.000829304
0.000668268
0.00126827
0.00180036
0.000638312
0.00367652
-0.00100283
0.00645194
-0.0036198
0.0102733
-0.00718331
0.0152647
-0.0116556
0.0215088
-0.0169756
0.0290267
-0.0230467
0.0377616
-0.0297314
0.0475717
-0.0368543
0.0582341
-0.0442133
0.0694618
-0.0515965
0.0809285
-0.0588012
0.0923009
-0.0656514
0.103271
-0.0720125
0.113584
-0.0777995
0.123063
-0.0829802
0.13162
-0.0875717
0.13925
-0.0916331
0.146044
-0.095243
0.152111
-0.0985329
0.157728
-0.101484
-0.104586
0.163033
0.000176339
0.000652965
0.00091269
0.000531917
0.00240345
-0.000852444
0.00483015
-0.00342953
0.00835947
-0.00714912
0.0131272
-0.011951
0.0192147
-0.0177431
0.026624
-0.024385
0.0352601
-0.0316827
0.0449255
-0.0393968
0.0553332
-0.047262
0.0661345
-0.0550146
0.0769577
-0.0624198
0.0874504
-0.0692938
0.0973178
-0.0755189
0.106352
-0.0810471
0.114449
-0.085896
0.121605
-0.0901361
0.127906
-0.0938733
0.133504
-0.0972309
0.138587
-0.100325
0.143334
-0.10328
0.147954
-0.106104
-0.10913
0.152498
0.000252339
0.000400626
0.00123399
-0.000449735
0.00316068
-0.00277913
0.00622439
-0.00649324
0.0105793
-0.0115041
0.0163138
-0.0176855
0.0234192
-0.0248485
0.0317689
-0.0327347
0.041116
-0.0410299
0.0511152
-0.049396
0.0613644
-0.0575113
0.0714583
-0.0651085
0.0810403
-0.0720017
0.0898444
-0.078098
0.0977195
-0.083394
0.104633
-0.0879603
0.110655
-0.0919179
0.11593
-0.0954117
0.120644
-0.0985868
0.124984
-0.101571
0.129123
-0.104464
0.13319
-0.107347
0.137309
-0.110223
-0.113309
0.141487
0.000350954
4.9672e-05
0.00162903
-0.00172781
0.00405573
-0.00520584
0.00780976
-0.0102473
0.0129969
-0.0166912
0.0196115
-0.0243001
0.0275086
-0.0327456
0.0364021
-0.0416282
0.0458959
-0.0505237
0.055541
-0.0590411
0.0649042
-0.0668745
0.0736301
-0.0738344
0.0814835
-0.0798551
0.0883649
-0.0849794
0.0943007
-0.0893298
0.0994124
-0.093072
0.103876
-0.0963818
0.107883
-0.0994189
0.111609
-0.102312
0.115194
-0.105156
0.118742
-0.108013
0.122318
-0.110923
0.125979
-0.113884
-0.117032
0.129702
0.000469687
-0.000420015
0.00208453
-0.00334266
0.00504874
-0.00817004
0.0094942
-0.0146927
0.0154339
-0.022631
0.0227229
-0.0315891
0.0310511
-0.0410738
0.0399807
-0.0505577
0.0490187
-0.0595617
0.0577028
-0.0677252
0.0656741
-0.0748458
0.0727197
-0.0808799
0.0787789
-0.0859143
0.0839198
-0.0901203
0.0882952
-0.0937052
0.0920953
-0.0968721
0.0955073
-0.0997937
0.0986894
-0.102601
0.101761
-0.105384
0.104805
-0.1082
0.107874
-0.111082
0.110999
-0.114048
0.114212
-0.117097
-0.120303
0.117484
0.000604355
-0.00102437
0.00257906
-0.00531736
0.00608089
-0.0116719
0.0111541
-0.019766
0.0176748
-0.0291516
0.0253292
-0.0392434
0.0336494
-0.049394
0.0420996
-0.0590079
0.0501805
-0.0676426
0.0575164
-0.0750612
0.0639004
-0.0812298
0.0692936
-0.0862731
0.0737884
-0.0904092
0.0775557
-0.0938876
0.0807911
-0.0969406
0.0836763
-0.0997572
0.086357
-0.102474
0.0889387
-0.105183
0.0914912
-0.107937
0.0940586
-0.110768
0.0966675
-0.113691
0.0993327
-0.116713
0.102069
-0.119834
-0.123085
0.104852
0.000748919
-0.00177329
0.00308437
-0.00765281
0.00707967
-0.0156672
0.0126495
-0.0253358
0.0195011
-0.0360032
0.0271537
-0.046896
0.0350304
-0.0572707
0.0425833
-0.0665609
0.0494003
-0.0744596
0.0552586
-0.0809194
0.060121
-0.0860922
0.0640901
-0.0902422
0.0673458
-0.0936649
0.0700874
-0.0966291
0.0724933
-0.0993466
0.0747028
-0.101967
0.0768132
-0.104585
0.0788874
-0.107257
0.0809637
-0.110013
0.0830648
-0.112869
0.0852042
-0.11583
0.0873892
-0.118898
0.0896272
-0.122072
-0.125358
0.0918994
0.000895684
-0.00266897
0.00356694
-0.0103241
0.00796569
-0.0200659
0.0138429
-0.031213
0.0207294
-0.0428897
0.0280159
-0.0541825
0.0350946
-0.0643495
0.041493
-0.0729592
0.0469458
-0.0799124
0.0513957
-0.0853693
0.0549409
-0.0896374
0.0577644
-0.0930657
0.060069
-0.0959695
0.0620346
-0.0985946
0.0637989
-0.101111
0.0654562
-0.103624
0.0670659
-0.106195
0.0686631
-0.108854
0.0702682
-0.111618
0.0718934
-0.114494
0.0735456
-0.117482
0.0752291
-0.120582
0.0769466
-0.123789
-0.127097
0.0786861
0.00103525
-0.00370422
0.0039903
-0.0132791
0.0086617
-0.0247373
0.0146195
-0.0371708
0.0212419
-0.049512
0.0278571
-0.0607977
0.0339083
-0.0704006
0.0390572
-0.0781081
0.0431994
-0.0840547
0.0464123
-0.0885822
0.0488748
-0.0920999
0.0507936
-0.0949845
0.052354
-0.0975299
0.0536974
-0.0999381
0.0549197
-0.102333
0.0560797
-0.104784
0.0572116
-0.107327
0.0583349
-0.109977
0.0594608
-0.112744
0.0605962
-0.115629
0.0617452
-0.118631
0.0629101
-0.121746
0.064091
-0.12497
-0.128288
0.0652818
0.00115768
-0.0048619
0.00432001
-0.0164415
0.00910418
-0.0295215
0.0149057
-0.0429724
0.0210006
-0.0556069
0.0267305
-0.0665276
0.0316509
-0.0753211
0.0355782
-0.0820354
0.0385454
-0.087022
0.0407168
-0.0907535
0.0423011
-0.0936842
0.0434923
-0.0961757
0.0444405
-0.0984781
0.0452471
-0.100745
0.0459744
-0.10306
0.0466573
-0.105467
0.0473154
-0.107985
0.0479595
-0.110621
0.0485965
-0.113381
0.0492308
-0.116264
0.0498649
-0.119265
0.0504996
-0.122381
0.0511331
-0.125603
-0.128917
0.0517627
0.00125631
-0.00611821
0.00453112
-0.0197163
0.00925366
-0.034244
0.014677
-0.0483957
0.020042
-0.0609719
0.0247693
-0.0712549
0.0285569
-0.0791087
0.0313621
-0.0848406
0.0333152
-0.0889751
0.0346207
-0.092059
0.0354824
-0.0945459
0.0360634
-0.0967567
0.036476
-0.0988907
0.0367888
-0.101058
0.0370403
-0.103312
0.0372509
-0.105678
0.0374316
-0.108165
0.0375892
-0.110779
0.0377284
-0.11352
0.0378523
-0.116387
0.037963
-0.119376
0.0380608
-0.122479
0.0381434
-0.125686
0.0382113
-0.128985
-0.000211041
0.000456252
-0.000245211
-0.00073471
0.000953114
-0.000429445
-0.00150285
0.0011668
-0.000398663
-0.00246407
0.00117741
-0.00021619
-0.00357874
0.00104731
6.73648e-05
-0.00481655
0.000821618
0.00041619
-0.00615437
0.000528984
0.000808837
-0.00757445
0.000183697
0.00123638
-0.00906293
-0.00021109
0.00169958
-0.0106084
-0.000660225
0.00220571
-0.0122008
-0.00117306
0.00276549
-0.0138307
-0.00176084
0.00339067
-0.0154878
-0.00243519
0.00409229
-0.0171609
-0.00320655
0.00487963
-0.0188371
-0.00408331
0.00575951
-0.0205018
-0.00507105
0.0067358
-0.0221391
-0.00617162
0.0078089
-0.0237326
-0.00738171
0.0089752
-0.0252677
-0.00869145
0.0102266
-0.0267346
-0.0100831
0.01155
-0.028132
-0.011531
0.0129284
-0.0294711
-0.0130011
0.0143402
-0.0307839
-0.0144475
0.0157602
-0.0158183
-0.0321299
0.0171643
-0.000206126
0.000662378
-0.000721061
0.00146805
-0.00147995
0.00192569
-0.00243286
0.00213032
-0.00354054
0.00215499
-0.00477247
0.00205355
-0.00610528
0.0018618
-0.0075213
0.00159971
-0.00900704
0.00127465
-0.0105521
0.000884851
-0.0121476
0.000422388
-0.013786
-0.00012243
-0.0154588
-0.000762383
-0.0171564
-0.00150891
-0.0188676
-0.00237211
-0.0205784
-0.00336023
-0.0222722
-0.00447784
-0.02393
-0.00572391
-0.0255321
-0.00708934
-0.0270611
-0.00855412
-0.0285068
-0.0100853
-0.0298716
-0.0116363
-0.0311784
-0.0131407
-0.0145014
-0.0324953
-0.000188057
0.000850435
-0.000663383
0.00194337
-0.00136839
0.0026307
-0.00225661
0.00301854
-0.00328986
0.00318823
-0.00443727
0.00320096
-0.00567441
0.00309894
-0.00698223
0.00290753
-0.00834598
0.0026384
-0.0097541
0.00229297
-0.0111974
0.00186573
-0.012667
0.00134709
-0.0141538
0.000724487
-0.0156481
-1.46453e-05
-0.0171387
-0.000881516
-0.0186111
-0.00188787
-0.0200464
-0.00304249
-0.0214218
-0.00434849
-0.0227101
-0.00580108
-0.0238813
-0.00738296
-0.0249081
-0.00905838
-0.0257736
-0.0107708
-0.0264714
-0.0124429
-0.0138993
-0.0270735
-0.000158301
0.00100874
-0.00056572
0.00235079
-0.00117496
0.00323994
-0.0019444
0.00378798
-0.00283735
0.00408118
-0.00382219
0.0041858
-0.00487228
0.00414902
-0.00596545
0.00400071
-0.00708333
0.00375628
-0.00821047
0.0034201
-0.00933332
0.00298859
-0.0104391
0.00245291
-0.0115157
0.00180101
-0.0125494
0.00101906
-0.0135193
8.84417e-05
-0.0144167
-0.000990525
-0.0152153
-0.00224386
-0.0158893
-0.00367451
-0.0164066
-0.00528378
-0.0167278
-0.00706176
-0.0168082
-0.00897797
-0.0166133
-0.0109657
-0.0161314
-0.0129248
-0.014832
-0.0151988
-0.000120103
0.00112884
-0.000437538
0.00266823
-0.000916437
0.00371884
-0.00152044
0.00439198
-0.00221418
0.00477493
-0.00296459
0.00493621
-0.00374144
0.00492588
-0.00451748
0.00477675
-0.00526803
0.00450683
-0.00597031
0.00412239
-0.00660269
0.00362097
-0.00714375
0.00299397
-0.00757156
0.00222882
-0.00786311
0.00131062
-0.00799357
0.000218902
-0.00793626
-0.00104784
-0.0076629
-0.00251722
-0.00714226
-0.00419515
-0.0063398
-0.00608624
-0.00521552
-0.00818604
-0.00371754
-0.0104759
-0.00176731
-0.012916
0.000717326
-0.0154094
-0.0175572
0.00344258
-7.79317e-05
0.00120677
-0.000292176
0.00288247
-0.000617029
0.00404369
-0.00102044
0.00479539
-0.00146752
0.00522201
-0.00192264
0.00539133
-0.00235055
0.00535379
-0.00271684
0.00514303
-0.00298783
0.00477782
-0.00313016
0.00426472
-0.00311009
0.0036009
-0.00289284
0.00277671
-0.00244201
0.00177799
-0.00171892
0.00058753
-0.000688793
-0.000811228
0.000697917
-0.00243455
0.00247866
-0.00429796
0.0046941
-0.00641059
0.00738316
-0.0087753
0.0105832
-0.0113861
0.0143324
-0.0142252
0.0186708
-0.0172543
0.0236035
-0.0203422
-0.0235079
0.0295542
-3.6699e-05
0.00124347
-0.000144545
0.00299032
-0.000304162
0.00420331
-0.000485405
0.00497663
-0.000652131
0.00538874
-0.000764653
0.00550385
-0.000780993
0.00537013
-0.000657563
0.0050196
-0.000349261
0.00446952
0.000190777
0.00372468
0.00101159
0.00278009
0.00216461
0.00162369
0.0037042
0.000238406
0.00568536
-0.00139363
0.00816615
-0.00329202
0.0112045
-0.00547286
0.0148546
-0.00794804
0.0191662
-0.0107222
0.0241814
-0.0137905
0.0299318
-0.0171365
0.036433
-0.0207263
0.0437195
-0.0245409
0.0517282
-0.0283509
-0.0326789
0.0608993
-9.23367e-07
0.00124439
-7.89968e-06
0.0029973
-2.4037e-06
0.00419781
4.75442e-05
0.00492669
0.000182124
0.00525416
0.000447511
0.00523846
0.000894509
0.00492313
0.00157809
0.00433602
0.00255718
0.00349044
0.00389449
0.00238737
0.00565652
0.00101805
0.00791285
-0.000632638
0.0107348
-0.00258355
0.014195
-0.00485384
0.0183634
-0.0074604
0.023305
-0.0104144
0.0290757
-0.0137188
0.0357189
-0.0173654
0.043261
-0.0213326
0.0517106
-0.0255861
0.061045
-0.0300607
0.0712683
-0.0347642
0.0822017
-0.0392843
-0.0447778
0.0943006
2.67937e-05
0.0012176
0.000108653
0.00291544
0.00027157
0.0040349
0.000554392
0.00464386
0.00100495
0.0048036
0.00167877
0.00456465
0.00263845
0.00396345
0.00395316
0.00302131
0.00569807
0.00174553
0.0079531
0.000132347
0.0108026
-0.0018315
0.0143317
-0.00416171
0.0186239
-0.00687578
0.0237573
-0.00998723
0.0297992
-0.0135023
0.0368014
-0.0174166
0.0447947
-0.0217121
0.0537849
-0.0263556
0.0637492
-0.0312969
0.074636
-0.0364729
0.0863603
-0.0417849
0.0988408
-0.0472447
0.111869
-0.0523121
-0.0585809
0.125672
4.58434e-05
0.00117176
0.000204861
0.00275642
0.000517964
0.00372179
0.00103654
0.00412529
0.00182092
0.00401922
0.00294037
0.0034452
0.00447292
0.0024309
0.00650481
0.000989411
0.00912864
-0.000878299
0.0124412
-0.0031802
0.0165382
-0.00592851
0.0215109
-0.00913439
0.0274383
-0.0128032
0.0343808
-0.0169298
0.0423731
-0.0214946
0.0514181
-0.0264616
0.061483
-0.031777
0.0724974
-0.03737
0.0843557
-0.0431552
0.0969189
-0.049036
0.110029
-0.0548956
0.123489
-0.060704
0.137137
-0.0659605
-0.0720943
0.15065
5.9069e-05
0.00111269
0.000289442
0.00252605
0.000754534
0.0032567
0.00152426
0.00335556
0.00267683
0.00286665
0.00429996
0.00182207
0.0064902
0.000240659
0.00935227
-0.00187266
0.0129931
-0.00451912
0.0175169
-0.00770399
0.0230167
-0.0114283
0.0295652
-0.0156829
0.0372053
-0.0204433
0.0459414
-0.0256659
0.0557335
-0.0312867
0.0664943
-0.0372223
0.0780904
-0.0433731
0.0903492
-0.0496288
0.103068
-0.0558739
0.116031
-0.0619988
0.12903
-0.0678951
0.141847
-0.0735209
0.154467
-0.0785801
-0.0838945
0.166267
7.21904e-05
0.000381013
0.00101825
0.00207772
0.00366037
0.00587547
0.00883904
0.0126672
0.0174694
0.0233356
0.0303244
0.0384514
0.0476793
0.0579139
0.0690042
0.08075
0.0929134
0.105236
0.117456
0.129336
0.140665
0.151317
0.161362
0.170736
-0.0324186
-0.0249619
0.0252507
-0.0325706
-0.0272282
0.0273802
-0.0325785
-0.0291078
0.0291157
-0.0324455
-0.030416
0.030283
-0.0321636
-0.0309385
0.0306566
-0.0317153
-0.0304255
0.0299772
-0.0310701
-0.0286039
0.0279587
-0.0301834
-0.0251813
0.0242947
-0.0289982
-0.0198612
0.0186759
-0.0274369
-0.0123646
0.0108033
-0.02541
-0.00247827
0.000451351
-0.0230346
0.00977689
-0.0121522
-0.0202681
0.0244434
-0.0272099
-0.0171847
0.0410972
-0.0441806
-0.0138996
0.0591472
-0.0624324
-0.0105672
0.0777906
-0.081123
-0.00726626
0.0959463
-0.0992472
-0.00382274
0.112366
-0.115809
0.000114686
0.125528
-0.129466
0.00523342
0.133459
-0.138577
0.0122504
0.13377
-0.140787
0.0215078
0.124089
-0.133346
0.0326391
0.102806
-0.113938
0.0447537
0.0700626
-0.0821772
0.0571042
0.0270363
-0.0393867
0.0692844
-0.0234273
0.011247
0.0808995
-0.0764992
0.0648841
0.0909926
-0.12438
0.114287
0.0984836
-0.160622
0.153131
0.102773
-0.182892
0.178603
0.102905
-0.193012
0.192879
0.0972394
-0.198255
0.20392
0.08654
-0.20755
0.218249
0.0764548
-0.216998
0.227083
0.0734002
-0.204859
0.207914
0.0785066
-0.153187
0.148081
0.089014
-0.0685279
0.0580206
0.101256
0.0265612
-0.0388032
0.112084
0.111182
-0.12201
0.120065
0.172323
-0.180304
0.124554
0.205834
-0.210323
0.122834
0.221473
-0.219753
0.1136
0.236343
-0.227109
0.102465
0.245928
-0.234793
0.0981629
0.219109
-0.214807
0.103326
0.141676
-0.146838
0.113947
0.0368693
-0.047491
0.124809
-0.057097
0.0462355
0.133261
-0.123655
0.115203
0.138611
-0.155005
0.149655
0.140159
-0.162144
0.160596
0.137062
-0.152968
0.156064
0.131439
-0.141132
0.146755
0.127839
-0.120259
0.123859
0.129347
-0.081941
0.080433
0.134817
-0.0397348
0.0342648
0.141004
0.0148148
-0.0210023
0.145997
0.0367638
-0.0417566
0.148139
0.0709213
-0.0730638
0.0640232
-0.0646101
-0.0332042
-0.0242531
-0.0337736
-0.0266588
-0.0341872
-0.0286942
-0.0344459
-0.0301573
-0.0345391
-0.0308454
-0.0344479
-0.0305167
-0.0341392
-0.0289126
-0.0335597
-0.0257608
-0.0326348
-0.0207861
-0.031254
-0.0137454
-0.0292895
-0.00444274
-0.0268215
0.00730888
-0.0237674
0.0213893
-0.0201155
0.0374453
-0.0158764
0.0549082
-0.0111797
0.0730938
-0.00597635
0.090743
-0.000192942
0.106582
0.00662972
0.118706
0.0147113
0.125377
0.0243543
0.124127
0.0354407
0.113002
0.0473066
0.0909406
0.0591238
0.0582454
0.0704242
0.0157358
0.0811105
-0.0341135
0.0909588
-0.0863475
0.0991141
-0.132536
0.10458
-0.166088
0.107056
-0.185369
0.106291
-0.192247
0.100633
-0.192597
0.0893335
-0.19625
0.0768191
-0.204484
0.0707153
-0.198755
0.0741268
-0.156599
0.0842578
-0.0786589
0.0969055
0.0139135
0.108751
0.0993363
0.118066
0.163009
0.123165
0.200735
0.120986
0.223653
0.111627
0.245702
0.101839
0.255715
0.0995386
0.22141
0.106065
0.135149
0.117201
0.0257332
0.127963
-0.0678592
0.135883
-0.131575
0.140759
-0.159882
0.142558
-0.163942
0.140271
-0.150681
0.134803
-0.135664
0.129882
-0.115338
0.129351
-0.0814093
0.132965
-0.0433487
0.138243
0.00953609
0.142775
0.0322321
0.144986
0.0687102
0.0629073
-0.0281882
-0.0231383
-0.0292038
-0.0256432
-0.0300423
-0.0278557
-0.0306946
-0.029505
-0.0311401
-0.0303998
-0.0313523
-0.0303046
-0.0312958
-0.0289691
-0.0309185
-0.0261381
-0.0301423
-0.0215622
-0.0288658
-0.0150219
-0.0269084
-0.00640017
-0.0242752
0.00467576
-0.0209157
0.0180297
-0.0167472
0.0332768
-0.0115865
0.0497474
-0.00569167
0.0671991
0.00125973
0.0837916
0.0093423
0.0984998
0.0183182
0.10973
0.0284502
0.115245
0.0396634
0.112914
0.0515405
0.101125
0.0633359
0.0791452
0.0743272
0.0472541
0.0842274
0.00583566
0.093217
-0.0431031
0.101115
-0.0942453
0.107213
-0.138634
0.110657
-0.169532
0.11128
-0.185991
0.109468
-0.190436
0.104047
-0.187176
0.0930416
-0.185245
0.0789365
-0.190379
0.069658
-0.189477
0.0707117
-0.157653
0.0801218
-0.088069
0.0930602
0.000975081
0.105875
0.0865219
0.116316
0.152567
0.121744
0.195306
0.119222
0.226175
0.110222
0.254702
0.102066
0.263871
0.101604
0.221872
0.10919
0.127563
0.120577
0.0143461
0.131132
-0.0784143
0.138486
-0.138929
0.142747
-0.164143
0.144527
-0.165723
0.143028
-0.149182
0.138156
-0.130791
0.132519
-0.109701
0.130228
-0.079118
0.131871
-0.0449919
0.136003
0.00540405
0.139898
0.0283367
0.142233
0.0663753
0.0611323
-0.0168479
-0.0214891
-0.0183951
-0.024096
-0.0198197
-0.0264312
-0.0210283
-0.0282964
-0.0219792
-0.0294489
-0.0226185
-0.0296653
-0.0228929
-0.0286948
-0.0227452
-0.0262858
-0.0221027
-0.0222047
-0.0208741
-0.0162506
-0.0189597
-0.00831457
-0.0160982
0.00181428
-0.012401
0.0143325
-0.00788075
0.0287566
-0.00219035
0.044057
0.00525199
0.0597567
0.0136991
0.0753445
0.0230711
0.0891278
0.0334369
0.0993639
0.0447001
0.103982
0.0565561
0.101058
0.0684507
0.0892307
0.0796324
0.0679635
0.089492
0.0373945
0.097877
-0.0025494
0.105116
-0.0503423
0.111023
-0.100152
0.115006
-0.142617
0.116459
-0.170984
0.11531
-0.184842
0.112315
-0.187441
0.107105
-0.181965
0.0971399
-0.175279
0.0825978
-0.175837
0.0704561
-0.177335
0.0684786
-0.155675
0.076652
-0.0962425
0.0897478
-0.0121207
0.103436
0.0728337
0.114725
0.141279
0.120288
0.189742
0.11768
0.228783
0.109498
0.262884
0.103117
0.270253
0.104273
0.220715
0.112625
0.119211
0.124027
0.00294478
0.134216
-0.0886042
0.140988
-0.1457
0.144583
-0.167738
0.146117
-0.167257
0.145262
-0.148326
0.141275
-0.126804
0.135532
-0.103958
0.131923
-0.0755088
0.131667
-0.0447366
0.134507
0.00256411
0.137641
0.0252029
0.140154
0.0638621
0.0586166
0.00146692
-0.0195135
-0.000974195
-0.0216549
-0.00318041
-0.0242249
-0.00519161
-0.0262852
-0.00694949
-0.027691
-0.00834819
-0.0282666
-0.00928553
-0.0277574
-0.0096691
-0.0259022
-0.00941407
-0.0224597
-0.00843425
-0.0172304
-0.00667946
-0.0100694
-0.00378742
-0.00107775
-0.00015706
0.0107021
0.00544632
0.0231532
0.0122047
0.0372986
0.0200356
0.0519259
0.0290706
0.0663095
0.0391861
0.0790123
0.0502272
0.0883229
0.0618853
0.0923237
0.0737086
0.0892345
0.085106
0.0778333
0.0953576
0.0577119
0.103932
0.0288204
0.110855
-0.00947277
0.116408
-0.0558952
0.120368
-0.104112
0.12221
-0.144459
0.121688
-0.170463
0.118954
-0.182108
0.114802
-0.183289
0.109615
-0.176779
0.101085
-0.166749
0.0873162
-0.162068
0.0731475
-0.163166
0.0676904
-0.150218
0.0738866
-0.102439
0.0868565
-0.0250906
0.101258
0.058432
0.11314
0.129397
0.118796
0.184087
0.116455
0.231124
0.109483
0.269855
0.104913
0.274823
0.107452
0.218176
0.116359
0.110304
0.127469
-0.0081649
0.137152
-0.0982867
0.143304
-0.151852
0.146251
-0.170685
0.147385
-0.168391
0.146962
-0.147904
0.143983
-0.123825
0.138673
-0.0986477
0.134299
-0.0711342
0.132419
-0.042857
0.133953
0.00103038
0.136273
0.022883
0.139004
0.0611312
0.0553464
0.0266956
-0.0166549
0.0238052
-0.0187645
0.0207815
-0.0212012
0.0178072
-0.0233109
0.0149764
-0.0248602
0.0124285
-0.0257187
0.0103391
-0.025668
0.00889108
-0.0244542
0.00826309
-0.0218317
0.00861718
-0.0175845
0.010098
-0.0115502
0.0127196
-0.00369931
0.0167937
0.00662802
0.0219107
0.0180361
0.0285283
0.0306811
0.0364551
0.043999
0.0456535
0.0571111
0.0559578
0.068708
0.0670953
0.0771854
0.078633
0.080786
0.0900184
0.077849
0.100643
0.0672089
0.109857
0.0484981
0.117209
0.0214678
0.122822
-0.0150851
0.126813
-0.0598868
0.128872
-0.106171
0.128572
-0.144159
0.126112
-0.168003
0.121991
-0.177987
0.116853
-0.178151
0.111483
-0.171409
0.1044
-0.159666
0.0924276
-0.150096
0.0775159
-0.148255
0.0685973
-0.141299
0.071879
-0.10572
0.0841665
-0.0373782
0.0990209
0.0435777
0.111363
0.117055
0.11726
0.17819
0.1156
0.232784
0.11015
0.275305
0.107346
0.277627
0.111046
0.214476
0.120233
0.101116
0.130937
-0.0188685
0.139893
-0.107243
0.145364
-0.157324
0.147707
-0.173028
0.148375
-0.169059
0.148166
-0.147695
0.146164
-0.121823
0.141696
-0.0941799
0.137147
-0.0665844
0.134093
-0.039803
0.134459
0.000664059
0.136003
0.021339
0.138969
0.0581652
0.0513829
0.0574424
-0.013198
0.0539425
-0.0152647
0.0503026
-0.0175613
0.0465568
-0.0195651
0.0428108
-0.0211142
0.0391981
-0.022106
0.0358918
-0.0223617
0.0331061
-0.0216685
0.0310825
-0.0198082
0.0300605
-0.0165625
0.0302428
-0.0117325
0.0317381
-0.00519453
0.0348485
0.00351763
0.0393763
0.0135083
0.0454919
0.0245655
0.0530715
0.0364194
0.0619926
0.04819
0.0720229
0.0586777
0.0828013
0.066407
0.0938195
0.0697678
0.104484
0.067185
0.114198
0.057494
0.122402
0.040295
0.128727
0.015142
0.133317
-0.0196749
0.135963
-0.0625323
0.136194
-0.106402
0.13384
-0.141805
0.12956
-0.163723
0.124236
-0.172662
0.11837
-0.172286
0.11271
-0.165749
0.106776
-0.153732
0.0971889
-0.140509
0.0830287
-0.134094
0.0713533
-0.129624
0.0708844
-0.105252
0.0815043
-0.047998
0.0963922
0.0286897
0.109195
0.104252
0.115666
0.171719
0.115129
0.233321
0.111426
0.279009
0.110293
0.27876
0.11493
0.209839
0.124204
0.0918427
0.134325
-0.0289898
0.142401
-0.115318
0.147116
-0.16204
0.148904
-0.174815
0.149117
-0.169273
0.148938
-0.147517
0.14777
-0.120655
0.144387
-0.090797
0.140208
-0.0624052
0.136544
-0.0361396
0.136026
0.00118199
0.13693
0.020435
0.14013
0.054965
0.0468529
0.0903423
-0.0092397
0.0863825
-0.0113049
0.0822801
-0.0134589
0.0780044
-0.0152894
0.0736347
-0.0167445
0.0692684
-0.0177397
0.0650193
-0.0181126
0.06106
-0.0177092
0.057629
-0.0163772
0.055004
-0.0139375
0.0534686
-0.0101971
0.0532575
-0.00498348
0.0546924
0.00208277
0.0578083
0.0103924
0.0627136
0.0196602
0.0693132
0.0298197
0.0774169
0.0400864
0.086713
0.0493817
0.0967608
0.0563591
0.106995
0.0595335
0.116798
0.0573822
0.125589
0.0487033
0.132885
0.0329981
0.138386
0.0096418
0.142134
-0.0234233
0.143548
-0.063946
0.142048
-0.104902
0.137812
-0.13757
0.131919
-0.15783
0.12557
-0.166313
0.119238
-0.165955
0.113337
-0.159847
0.108119
-0.148514
0.100966
-0.133356
0.0888808
-0.122009
0.0758232
-0.116566
0.0713102
-0.100739
0.0790294
-0.0557172
0.0932494
0.0144697
0.106517
0.090984
0.113972
0.164264
0.115004
0.232289
0.113202
0.280811
0.113613
0.278349
0.118984
0.204468
0.128162
0.0826641
0.137554
-0.0383816
0.14463
-0.122395
0.148523
-0.165932
0.149793
-0.176085
0.149613
-0.169092
0.14935
-0.147253
0.148813
-0.120118
0.14659
-0.0885742
0.143213
-0.0590278
0.139535
-0.0324622
0.138524
0.00219335
0.139013
0.0199462
0.142438
0.051539
0.0419238
0.121425
-0.00499305
0.11714
-0.00701932
0.112682
-0.0090011
0.108067
-0.0106747
0.103388
-0.0120655
0.098702
-0.0130536
0.0940544
-0.013465
0.0895436
-0.0131984
0.0853327
-0.0121663
0.0816451
-0.0102499
0.0787405
-0.00729248
0.0769685
-0.00321147
0.0764737
0.00257759
0.0776578
0.00920824
0.0807061
0.0166119
0.0856273
0.0248985
0.092259
0.0334547
0.100268
0.0413728
0.109168
0.0474594
0.118352
0.0503493
0.127178
0.0485555
0.135057
0.040825
0.141534
0.0265207
0.146358
0.00481759
0.149292
-0.0263572
0.149431
-0.0640844
0.146224
-0.101695
0.140291
-0.131637
0.133058
-0.150597
0.125882
-0.159136
0.11929
-0.159363
0.113318
-0.153875
0.10846
-0.143656
0.103347
-0.128243
0.0941548
-0.112817
0.0814447
-0.103856
0.0734869
-0.0927808
0.0772613
-0.0594916
0.0898115
0.00191952
0.103367
0.0774281
0.112167
0.155465
0.115173
0.229283
0.115356
0.280628
0.117147
0.276558
0.123069
0.198546
0.132009
0.0737238
0.140536
-0.046908
0.146525
-0.128384
0.149549
-0.168957
0.150333
-0.176868
0.149848
-0.168607
0.149458
-0.146864
0.149349
-0.120009
0.148223
-0.0874484
0.145923
-0.056727
0.14277
-0.0293094
0.141705
0.00325817
0.142065
0.0195867
0.145713
0.0478901
0.0367721
0.146547
-0.000889488
0.142291
-0.00276309
0.137757
-0.00446695
0.133039
-0.00595746
0.128311
-0.00733735
0.123619
-0.00836191
0.11899
-0.00883582
0.114495
-0.00870297
0.110233
-0.00790502
0.106331
-0.00634785
0.102917
-0.00387802
0.100311
-0.000605729
0.098601
0.00428783
0.0982907
0.00951861
0.0995481
0.0153544
0.102542
0.0219046
0.107256
0.0287406
0.113473
0.035156
0.120769
0.0401637
0.128565
0.0425526
0.136209
0.0409119
0.143076
0.0339575
0.148738
0.0208591
0.152945
0.000610214
0.154812
-0.0282238
0.153451
-0.0627231
0.148515
-0.0967588
0.141077
-0.1242
0.132798
-0.142318
0.12501
-0.151348
0.118295
-0.152647
0.112465
-0.148045
0.107815
-0.139007
0.104137
-0.124565
0.0980242
-0.106705
0.0872623
-0.0930942
0.0773166
-0.0828351
0.0768109
-0.0589858
0.0866206
-0.00789021
0.0999707
0.064078
0.110233
0.145203
0.115438
0.224077
0.117697
0.278369
0.120762
0.273493
0.127097
0.192211
0.13565
0.0651716
0.143192
-0.0544506
0.148026
-0.133218
0.150169
-0.1711
0.150497
-0.177197
0.149801
-0.167911
0.149305
-0.146368
0.149456
-0.12016
0.149274
-0.0872664
0.148159
-0.0556127
0.145945
-0.0270949
0.145249
0.00395403
0.145786
0.0190498
0.149669
0.0440071
0.0315515
0.162186
0.00319171
0.158076
0.0013469
0.153963
-0.000353909
0.149673
-0.00166835
0.145386
-0.00304991
0.141064
-0.00403961
0.136797
-0.00456883
0.132718
-0.00462408
0.128921
-0.00410782
0.125522
-0.00294944
0.122732
-0.00108798
0.120113
0.00201305
0.118374
0.00602761
0.117426
0.0104658
0.117659
0.0151219
0.119268
0.0202955
0.122334
0.0256746
0.126762
0.0307284
0.132278
0.034647
0.138441
0.0363903
0.144679
0.0346732
0.150366
0.0282708
0.154928
0.0162969
0.158073
-0.0025345
0.158688
-0.0288392
0.155643
-0.0596781
0.149105
-0.0902202
0.14051
-0.115605
0.131568
-0.133376
0.123429
-0.143209
0.116652
-0.14587
0.111046
-0.142438
0.106539
-0.1345
0.103613
-0.121639
0.10012
-0.103212
0.0923032
-0.0852774
0.082206
-0.0727379
0.0780171
-0.054797
0.0843496
-0.0142226
0.0966954
0.0517321
0.108328
0.13357
0.115919
0.216486
0.120202
0.274087
0.124313
0.269382
0.131015
0.185509
0.139109
0.0570775
0.145531
-0.0608731
0.149161
-0.136847
0.150432
-0.172371
0.150327
-0.177092
0.149487
-0.16707
0.148929
-0.145809
0.149224
-0.120455
0.149788
-0.0878309
0.149825
-0.0556494
0.148799
-0.026069
0.148816
0.00393715
0.149811
0.0180549
0.153954
0.0398639
0.0263698
0.16813
0.00579767
0.164782
0.00469514
0.160999
0.00342912
0.157324
0.00200612
0.153751
0.000522873
0.150244
-0.000532229
0.146775
-0.00109959
0.143478
-0.00132736
0.140436
-0.0010655
0.137751
-0.000264806
0.13519
0.00147348
0.133332
0.00387027
0.132258
0.00710168
0.13194
0.0107839
0.132274
0.0147879
0.133459
0.0191103
0.135649
0.0234853
0.138881
0.027496
0.143007
0.0305216
0.147705
0.0316921
0.1525
0.0298783
0.156842
0.0239288
0.160232
0.0129071
0.161839
-0.00414222
0.160527
-0.0275271
0.155803
-0.0549543
0.14819
-0.0826064
0.139169
-0.106585
0.130193
-0.1244
0.122112
-0.135128
0.115385
-0.139143
0.109978
-0.137032
0.105573
-0.130095
0.102797
-0.118863
0.100979
-0.101394
0.096203
-0.0805011
0.0874465
-0.0639815
0.0809655
-0.048316
0.0834361
-0.0166932
0.0939133
0.0412549
0.106271
0.121213
0.115967
0.20679
0.122156
0.267898
0.127582
0.263955
0.134869
0.178222
0.142442
0.0495045
0.147573
-0.0660041
0.149993
-0.139267
0.150435
-0.172813
0.149908
-0.176565
0.148956
-0.166118
0.148377
-0.14523
0.148747
-0.120825
0.149858
-0.0889418
0.150906
-0.0566973
0.151148
-0.0263112
0.152102
0.00298292
0.153769
0.0163884
0.158206
0.0354265
0.0212799
0.190097
0.00822605
-0.192525
0.18808
0.00671252
0.185932
0.00557684
0.183601
0.00433715
0.180962
0.00316202
0.178114
0.002316
0.175203
0.00181109
0.172193
0.00168285
0.169112
0.0020152
0.165965
0.0028826
0.16298
0.00445778
0.160171
0.00667938
0.157713
0.00956
0.155639
0.0128576
0.154038
0.0163895
0.153131
0.0200172
0.153153
0.0234628
0.154338
0.026311
0.156863
0.0279967
0.160791
0.0277639
0.166009
0.0246605
0.172176
0.0177624
0.178682
0.00640089
0.184783
-0.0102437
0.189026
-0.0317698
0.190286
-0.0562146
0.188187
-0.0805072
0.183146
-0.101544
0.175983
-0.117237
0.16753
-0.126675
0.158578
-0.130191
0.14975
-0.128204
0.141055
-0.1214
0.132951
-0.110759
0.126011
-0.0944536
0.117926
-0.072416
0.105991
-0.0520466
0.0928669
-0.0351917
0.0848141
-0.0086404
0.0831082
0.0429609
0.0851965
0.119125
0.0889458
0.203041
0.0962888
0.260554
0.110773
0.249471
0.130322
0.158672
0.147343
0.0324843
0.157597
-0.0762583
0.160993
-0.142662
0.159778
-0.171599
0.156415
-0.173202
0.152366
-0.162069
0.148703
-0.141567
0.146083
-0.118205
0.144676
-0.0875347
0.143984
-0.0560056
0.143249
-0.025576
0.143452
0.00278018
0.144329
0.0155111
0.147494
0.0322619
0.0179679
0.201566
0.00960404
-0.202944
0.200063
0.00821525
0.198536
0.00710336
0.196776
0.00609753
0.194755
0.00518343
0.192594
0.00447631
0.190345
0.0040603
0.188023
0.00400501
0.185667
0.00437095
0.183327
0.00522219
0.181145
0.00664036
0.179196
0.00862869
0.177606
0.0111494
0.17644
0.0140235
0.175771
0.0170589
0.175724
0.0200643
0.176448
0.0227385
0.178092
0.0246672
0.180766
0.0253225
0.18449
0.0240402
0.189102
0.0200478
0.194227
0.0126377
0.199334
0.00129385
0.203576
-0.0144857
0.205826
-0.0340198
0.205289
-0.0556772
0.201738
-0.076957
0.195539
-0.0953447
0.187473
-0.10917
0.178402
-0.117605
0.169046
-0.120834
0.160015
-0.119173
0.151346
-0.112731
0.143122
-0.102535
0.136201