/*--------------------------------*- C++ -*----------------------------------*\
| =========                 |                                                 |
| \\      /  F ield         | OpenFOAM: The Open Source CFD Toolbox           |
|  \\    /   O peration     | Version:  2512                                  |
|   \\  /    A nd           | Website:  www.openfoam.com                      |
|    \\/     M anipulation  |                                                 |
\*---------------------------------------------------------------------------*/
FoamFile
{
    version     2.0;
    format      ascii;
    arch        "LSB;label=32;scalar=64";
    class       volVectorField;
    location    "55";
    object      U;
}
// * * * * * * * * * * * * * * * * * * * * * * * * * * * * * * * * * * * * * //

dimensions      [0 1 -1 0 0 0 0];

internalField   nonuniform List<vector> 
13248
(
(-0.0126101 0.0120203 7.06251e-20)
(-0.0231085 0.0256923 0)
(-0.0194279 0.0331262 -1.33581e-19)
(-0.0027275 0.0360585 1.25834e-19)
(0.0261915 0.036021 1.17991e-19)
(0.0667515 0.0343013 0)
(0.118441 0.0319059 0)
(0.180678 0.0295999 2.87126e-19)
(0.252657 0.0279443 -8.18939e-22)
(0.333197 0.0273128 -2.51895e-19)
(0.420657 0.0279026 2.34682e-19)
(0.512919 0.0297444 -1.46859e-19)
(0.607465 0.0327196 0)
(0.701531 0.0365846 -2.52745e-19)
(0.792306 0.0410062 4.71441e-19)
(0.877147 0.0456024 -1.12065e-19)
(0.953783 0.0499908 -1.9868e-19)
(1.02048 0.0538126 1.86515e-19)
(1.07614 0.0568443 0)
(1.12031 0.0586977 0)
(1.15348 0.0599318 0)
(1.17553 0.0584245 0)
(1.19011 0.0596437 5.49325e-20)
(1.19312 0.0491435 1.95834e-19)
(-0.0119344 0.0101014 -2.13252e-19)
(-0.0179944 0.0199786 1.45328e-19)
(-0.00686568 0.0245639 -1.21336e-21)
(0.0200035 0.0257084 -1.92122e-19)
(0.0616178 0.0250048 -1.17865e-19)
(0.117144 0.0237727 -1.11516e-19)
(0.185627 0.0230001 -2.05749e-19)
(0.265779 0.0233817 1.94317e-19)
(0.355796 0.0253435 0)
(0.453263 0.02905 6.90155e-22)
(0.555186 0.034416 1.27765e-21)
(0.658149 0.0411352 1.46231e-19)
(0.758586 0.0487309 0)
(0.853085 0.0566239 0)
(0.938691 0.0642108 1.71647e-19)
(1.01315 0.0709394 -3.22414e-19)
(1.07504 0.0763722 1.92225e-19)
(1.12388 0.0802269 -1.80467e-19)
(1.16003 0.0823965 -7.93627e-20)
(1.18459 0.0829151 -1.44076e-19)
(1.19909 0.082074 -5.96171e-20)
(1.2057 0.0797227 -1.11684e-19)
(1.20599 0.0780346 1.64521e-19)
(1.20162 0.0716063 4.70993e-20)
(-0.0104044 0.00798116 0)
(-0.00972524 0.0138985 0)
(0.0116445 0.0159125 6.79676e-20)
(0.0517695 0.0159091 6.2723e-20)
(0.109232 0.0155034 -1.3599e-21)
(0.182605 0.0160063 -1.14692e-19)
(0.270017 0.0183036 0)
(0.368906 0.0228773 -9.67274e-20)
(0.475919 0.029826 9.08217e-20)
(0.587004 0.0388876 3.09732e-22)
(0.697703 0.0494938 -1.56058e-19)
(0.803568 0.0608634 -1.43417e-19)
(0.900617 0.0721234 2.38762e-21)
(0.985717 0.0824362 -1.19105e-19)
(1.05684 0.0911109 2.85605e-19)
(1.11317 0.0976809 0)
(1.15504 0.10194 -1.85623e-19)
(1.18372 0.103927 9.01502e-20)
(1.2012 0.103908 7.92913e-20)
(1.20974 0.10222 0)
(1.21178 0.0994947 6.48277e-20)
(1.20932 0.0956663 -2.23356e-19)
(1.20411 0.0927599 2.09672e-19)
(1.19797 0.0862618 1.32269e-19)
(-0.00764939 0.00563512 -7.5169e-20)
(0.00263267 0.0076167 -7.76501e-20)
(0.0374398 0.00769664 7.03593e-20)
(0.0940842 0.00761953 0)
(0.170345 0.00890383 0)
(0.263671 0.0127227 -2.18061e-21)
(0.370636 0.0196698 0)
(0.486799 0.0297676 -2.9425e-19)
(0.606878 0.042526 2.73682e-19)
(0.725208 0.0570427 -3.38596e-19)
(0.83637 0.0721625 7.79163e-20)
(0.935814 0.086674 0)
(1.02034 0.0995004 1.30136e-19)
(1.08831 0.109847 -2.41213e-19)
(1.13967 0.11728 5.74016e-20)
(1.17568 0.121734 1.4795e-19)
(1.19852 0.123454 -6.28803e-21)
(1.21089 0.122902 -1.64914e-19)
(1.21556 0.120644 0)
(1.21501 0.117239 0)
(1.21125 0.113253 -5.9344e-20)
(1.20569 0.108805 5.33675e-20)
(1.19942 0.105274 1.91796e-19)
(1.19278 0.0990603 -1.80055e-19)
(-0.0032542 0.00309923 -7.89893e-20)
(0.0200196 0.00143732 -7.87536e-20)
(0.0716734 0.00060762 2.21602e-19)
(0.147915 0.00194226 -1.34634e-19)
(0.24517 0.00664237 1.26729e-19)
(0.359071 0.0154955 2.30773e-19)
(0.483975 0.0284962 -1.63032e-19)
(0.613185 0.0448935 -1.98765e-19)
(0.739619 0.063376 3.59868e-21)
(0.856712 0.0823322 2.55347e-19)
(0.959269 0.100151 0)
(1.04402 0.115496 7.06494e-20)
(1.10982 0.127484 0)
(1.1574 0.135757 -1.16148e-19)
(1.18895 0.14043 1.63406e-19)
(1.20749 0.141974 1.56351e-21)
(1.21628 0.141053 -4.31439e-20)
(1.21833 0.138375 8.09193e-20)
(1.21612 0.134583 7.0103e-20)
(1.21147 0.130185 -6.30924e-20)
(1.2056 0.125573 5.93295e-20)
(1.19922 0.120853 -5.3354e-20)
(1.1927 0.116811 0)
(1.18644 0.110854 -4.10467e-20)
(0.00319178 0.000506783 7.8978e-20)
(0.043253 -0.0041196 8.27745e-20)
(0.115109 -0.00441962 -7.42175e-20)
(0.213405 0.000158289 1.38269e-19)
(0.332523 0.0101506 -1.30144e-19)
(0.465562 0.0255793 1.17924e-19)
(0.604255 0.0454574 -5.65319e-20)
(0.739832 0.0679906 1.49211e-19)
(0.864294 0.0909999 -9.37858e-20)
(0.971571 0.112376 1.66978e-19)
(1.05821 0.130462 -3.85888e-19)
(1.12348 0.144275 1.41939e-19)
(1.16891 0.15354 -1.25118e-19)
(1.19757 0.158576 1.17522e-19)
(1.21321 0.160084 1.02164e-19)
(1.21956 0.158926 9.01469e-20)
(1.21983 0.155938 -2.5093e-19)
(1.21647 0.151821 1.5588e-19)
(1.21117 0.147097 -7.0105e-20)
(1.20497 0.142118 1.83909e-19)
(1.19849 0.137111 -5.92856e-20)
(1.19201 0.132154 -1.45983e-19)
(1.18572 0.127671 1.34998e-19)
(1.1797 0.121909 4.10324e-20)
(0.012044 -0.00189479 0)
(0.0728937 -0.00829718 6.51988e-22)
(0.16792 -0.00621849 1.54783e-19)
(0.289656 0.00364306 -1.45218e-19)
(0.429715 0.0206773 -1.31142e-19)
(0.578183 0.0436724 2.43882e-19)
(0.724332 0.0703267 -1.13328e-19)
(0.858299 0.0977526 1.51611e-19)
(0.97272 0.123179 -3.03881e-21)
(1.06365 0.144503 -8.6178e-20)
(1.13058 0.16057 1.89241e-19)
(1.17575 0.171172 -2.79623e-19)
(1.20306 0.176829 0)
(1.21697 0.178484 -5.53329e-20)
(1.22169 0.177202 -1.48498e-19)
(1.22065 0.173958 4.66521e-20)
(1.21634 0.169526 1.71744e-21)
(1.21039 0.164453 -1.04079e-19)
(1.20379 0.159098 5.94733e-21)
(1.19707 0.153677 1.20633e-19)
(1.19048 0.148316 -5.41492e-20)
(1.18414 0.143088 -2.10103e-20)
(1.17804 0.138152 6.40699e-20)
(1.17224 0.132483 0)
(0.0235537 -0.00375489 0)
(0.109115 -0.010147 4.19489e-20)
(0.229524 -0.00349292 -2.01649e-19)
(0.37462 0.0136867 7.33815e-20)
(0.532709 0.0390578 -6.90646e-20)
(0.690925 0.0697421 -6.31726e-20)
(0.837047 0.102025 -1.1205e-19)
(0.961779 0.132232 5.57109e-20)
(1.06013 0.157585 4.87034e-20)
(1.13148 0.176606 0)
(1.17858 0.18908 1.12232e-19)
(1.20615 0.195717 -1.67519e-19)
(1.21942 0.197721 1.24852e-19)
(1.22316 0.196396 5.53609e-20)
(1.22113 0.192891 -4.57145e-20)
(1.21597 0.188085 -3.85658e-20)
(1.20937 0.182584 -3.61766e-20)
(1.20229 0.176768 1.07543e-19)
(1.19523 0.170863 0)
(1.18841 0.165 5.47861e-20)
(1.18192 0.159253 4.66351e-20)
(1.17575 0.15367 -1.15137e-19)
(1.16987 0.148267 -7.97281e-20)
(1.16425 0.142613 7.36805e-20)
(0.0378243 -0.00464388 -4.51555e-20)
(0.151601 -0.00861836 -1.64147e-21)
(0.298491 0.00501468 4.10043e-20)
(0.465182 0.0312668 1.14571e-19)
(0.63659 0.0655181 3.34093e-20)
(0.797733 0.103014 -6.45228e-20)
(0.93659 0.138912 5.90009e-20)
(1.04629 0.169401 -5.19439e-20)
(1.1255 0.192397 9.33827e-20)
(1.17722 0.207529 4.00515e-20)
(1.20692 0.215659 -1.13536e-19)
(1.22072 0.218283 3.36307e-20)
(1.22411 0.217005 5.77275e-20)
(1.22138 0.213211 -2.83574e-20)
(1.21546 0.207943 0)
(1.20816 0.201897 4.28099e-20)
(1.20049 0.195501 7.28977e-20)
(1.19296 0.189003 1.28077e-20)
(1.18578 0.182538 -6.10679e-20)
(1.17902 0.176183 2.57534e-20)
(1.17268 0.169986 0)
(1.16669 0.163967 -2.04823e-20)
(1.16099 0.158086 -1.95095e-20)
(1.15552 0.152332 0)
(0.054762 -0.00409037 0)
(0.199466 -0.00268022 2.36488e-20)
(0.37256 0.0203335 4.37361e-20)
(0.557441 0.0568578 -1.16757e-19)
(0.736253 0.0996144 3.76838e-20)
(0.893497 0.142157 0)
(1.01933 0.179198 5.70514e-20)
(1.11077 0.207594 -7.969e-20)
(1.17056 0.226527 -4.66329e-20)
(1.20479 0.236915 2.11494e-20)
(1.22058 0.240571 -3.40591e-20)
(1.22444 0.239485 8.25963e-20)
(1.22135 0.235379 4.16774e-20)
(1.21476 0.229531 -2.88375e-20)
(1.20673 0.222783 -2.56795e-21)
(1.19838 0.215643 -8.00815e-20)
(1.19027 0.208393 3.65473e-20)
(1.18262 0.201184 -9.37519e-22)
(1.17549 0.194098 0)
(1.16887 0.187182 -2.57802e-20)
(1.16271 0.180463 0)
(1.15692 0.173934 5.9158e-20)
(1.15142 0.167575 -7.07326e-20)
(1.1461 0.161604 3.23444e-20)
(0.0740384 -0.00162456 -1.23144e-20)
(0.25125 0.00855733 -5.95168e-20)
(0.448789 0.0431095 6.76932e-20)
(0.647157 0.0903398 3.98427e-20)
(0.827106 0.140325 -1.90138e-20)
(0.974652 0.185574 3.2108e-20)
(1.08385 0.221274 -1.55699e-20)
(1.15625 0.245668 2.60678e-20)
(1.19829 0.259493 0)
(1.21816 0.264864 5.95103e-20)
(1.22361 0.26426 -2.34205e-21)
(1.22071 0.25987 -4.82431e-20)
(1.21362 0.253323 2.07592e-20)
(1.20485 0.245691 -2.3553e-20)
(1.19576 0.237603 -9.06338e-21)
(1.18697 0.229404 1.03816e-20)
(1.17874 0.221269 -8.08003e-21)
(1.17115 0.21329 -4.41516e-20)
(1.16417 0.205515 2.70761e-20)
(1.15776 0.197973 5.59044e-21)
(1.15182 0.190671 4.95368e-21)
(1.14627 0.183584 4.39312e-21)
(1.14098 0.176759 0)
(1.13581 0.170438 0)
(0.0951458 0.00318761 1.23229e-20)
(0.305108 0.0257525 -1.23251e-20)
(0.523965 0.0735081 -2.25549e-20)
(0.730378 0.131012 0)
(0.905653 0.18624 -9.44631e-21)
(1.03931 0.23167 -8.52544e-21)
(1.13034 0.263883 -1.46497e-20)
(1.18472 0.282967 0)
(1.21167 0.291206 0)
(1.22046 0.291653 0)
(1.21861 0.287136 0)
(1.21138 0.279807 0)
(1.20197 0.271087 -1.30475e-20)
(1.1921 0.261808 5.9467e-21)
(1.18257 0.252415 1.0401e-20)
(1.1737 0.243127 4.87445e-21)
(1.16557 0.234047 1.21257e-20)
(1.15818 0.225228 0)
(1.15146 0.216696 -2.94738e-21)
(1.14533 0.208465 -2.83216e-21)
(1.1397 0.200524 -4.96155e-21)
(1.13445 0.192852 -4.40013e-21)
(1.12944 0.185571 0)
(1.12453 0.178773 3.21675e-21)
(-0.00137133 0.00602771 7.18215e-21)
(-0.00620081 0.0113999 -7.45485e-21)
(-0.0147069 0.0122491 -1.41178e-20)
(-0.0250745 0.0101493 0)
(-0.0363045 0.00625655 -1.88645e-20)
(-0.0478875 0.00135302 5.89907e-21)
(-0.0594668 -0.00408978 -1.12108e-20)
(-0.07079 -0.00984198 0)
(-0.0816918 -0.0158426 0)
(-0.0920653 -0.0221312 0)
(-0.10184 -0.0287928 0)
(-0.110967 -0.0359186 0)
(-0.119408 -0.0435834 -6.68117e-23)
(-0.127128 -0.0518322 -7.28497e-21)
(-0.134091 -0.0606741 1.38173e-20)
(-0.14026 -0.0700811 1.93911e-20)
(-0.145596 -0.079984 6.13745e-21)
(-0.150065 -0.0902702 0)
(-0.153648 -0.100781 5.2802e-21)
(-0.156357 -0.111313 -1.49348e-20)
(-0.158241 -0.121631 -9.31948e-21)
(-0.159372 -0.13147 -8.69437e-21)
(-0.159931 -0.140531 0)
(-0.16042 -0.148542 0)
(-0.00208475 0.00955901 -2.16674e-20)
(-0.00766032 0.0197575 3.73249e-20)
(-0.016439 0.0238042 -1.42082e-20)
(-0.0267942 0.0237493 -2.68558e-20)
(-0.0378406 0.0210693 3.7875e-20)
(-0.0491365 0.0167765 -2.39306e-20)
(-0.0603661 0.0115165 3.37166e-20)
(-0.0713008 0.00564766 2.14231e-20)
(-0.0817883 -0.000677567 0)
(-0.0917297 -0.00743659 -1.87712e-20)
(-0.10106 -0.0146759 -7.48619e-23)
(-0.109736 -0.0224676 1.65648e-20)
(-0.117727 -0.030878 2.3726e-20)
(-0.125001 -0.0399533 2.96563e-20)
(-0.131528 -0.0497091 -1.37969e-20)
(-0.137271 -0.0601253 -3.91178e-20)
(-0.142187 -0.0711368 1.23569e-20)
(-0.146233 -0.082622 -4.62319e-20)
(-0.149375 -0.0943931 0)
(-0.151607 -0.106191 9.96574e-21)
(-0.152953 -0.117688 9.30799e-21)
(-0.153419 -0.128496 8.68355e-21)
(-0.153121 -0.138156 0)
(-0.152931 -0.14625 0)
(-0.00315655 0.0128158 0)
(-0.00982048 0.0275768 7.61313e-20)
(-0.0188287 0.034741 -2.86896e-20)
(-0.0288848 0.0367461 2.70425e-20)
(-0.039292 0.0353401 -7.70991e-20)
(-0.0497138 0.031741 0)
(-0.059899 0.0267583 -4.57865e-20)
(-0.069657 0.0208776 2.16621e-20)
(-0.0788557 0.014346 -4.10217e-20)
(-0.0874066 0.00725272 1.96688e-20)
(-0.0952511 -0.000405975 1.08923e-19)
(-0.102348 -0.00867801 -5.11757e-20)
(-0.108663 -0.017622 -8.0145e-20)
(-0.114169 -0.0272904 -3.05973e-20)
(-0.118838 -0.037714 -3.7741e-23)
(-0.122642 -0.0488804 1.06666e-19)
(-0.125537 -0.0607528 -5.00681e-20)
(-0.12747 -0.0732235 -4.82038e-22)
(-0.128394 -0.0861052 0)
(-0.128283 -0.0991095 -4.12437e-20)
(-0.127133 -0.111828 0)
(-0.124862 -0.123721 -3.45492e-20)
(-0.121375 -0.134129 1.30516e-19)
(-0.117925 -0.142399 -8.88017e-22)
(-0.00450164 0.0155613 0)
(-0.0125167 0.0343344 5.00505e-22)
(-0.0216892 0.0443772 2.94115e-20)
(-0.0311579 0.0483728 -2.78494e-20)
(-0.0404705 0.048261 2.56852e-20)
(-0.0494241 0.0454232 1.47846e-19)
(-0.0578515 0.0408104 -4.63223e-20)
(-0.0656113 0.0350256 -4.41406e-20)
(-0.0725955 0.0284089 8.26571e-20)
(-0.0787238 0.021119 -1.168e-19)
(-0.0839362 0.0132009 3.69694e-20)
(-0.0881869 0.00463706 3.4995e-20)
(-0.0914398 -0.00461908 0)
(-0.0936626 -0.0146196 3.04821e-20)
(-0.0948046 -0.0254011 0)
(-0.0948456 -0.0369846 5.49674e-20)
(-0.0937663 -0.0493518 -1.01984e-19)
(-0.0915099 -0.0624282 2.403e-20)
(-0.0880331 -0.0760626 8.95406e-20)
(-0.0833099 -0.0899894 4.12051e-20)
(-0.077353 -0.103774 0)
(-0.0701061 -0.116756 -1.06181e-19)
(-0.0611553 -0.128063 3.33857e-20)
(-0.051041 -0.136694 0)
(-0.00600149 0.0176131 0)
(-0.0155234 0.0396018 -9.38724e-20)
(-0.02478 0.0521242 -2.99759e-20)
(-0.0333921 0.0579371 -5.60523e-20)
(-0.0411792 0.0590752 5.27802e-20)
(-0.0480885 0.0570276 -4.95133e-20)
(-0.0540482 0.0528533 9.43736e-20)
(-0.0589735 0.0472551 4.44598e-20)
(-0.0627822 0.0406588 -1.25427e-19)
(-0.065398 0.033292 7.94135e-20)
(-0.0667511 0.0252516 -1.11892e-19)
(-0.0667782 0.016556 2.47956e-19)
(-0.0654215 0.00718254 -1.32828e-19)
(-0.0626272 -0.00290509 6.32098e-20)
(-0.0583471 -0.0137439 1.77585e-19)
(-0.0525347 -0.0253742 -5.49185e-20)
(-0.0451592 -0.0377736 -5.26618e-20)
(-0.0362019 -0.0508985 -4.8472e-20)
(-0.0256485 -0.0646421 0)
(-0.0135014 -0.0788012 -8.40364e-20)
(0.00017606 -0.0930243 -7.6441e-20)
(0.01516 -0.106741 1.0951e-19)
(0.0314673 -0.118875 1.30109e-19)
(0.0520625 -0.126571 -1.22868e-19)
(-0.00752441 0.0188703 0)
(-0.0185839 0.0430985 -1.28133e-19)
(-0.0278275 0.0575477 -6.65622e-22)
(-0.0353378 0.0648818 1.13585e-19)
(-0.0412021 0.0671323 0)
(-0.045518 0.0658352 0)
(-0.0483136 0.0621173 0)
(-0.049563 0.0567558 -4.49972e-20)
(-0.0492088 0.0502484 -3.58993e-22)
(-0.0471745 0.0428861 8.02473e-20)
(-0.043372 0.034818 -1.13436e-19)
(-0.0377089 0.026103 -2.16325e-22)
(-0.0300919 0.0167503 0)
(-0.020436 0.0067459 -6.31801e-20)
(-0.00867644 -0.00393386 6.05061e-20)
(0.00525343 -0.0152903 -1.69352e-19)
(0.021399 -0.0272995 2.11167e-19)
(0.0397427 -0.0399111 4.9054e-20)
(0.06024 -0.0530227 -1.56069e-21)
(0.0827947 -0.0664719 -1.72333e-19)
(0.107201 -0.0800253 -7.94403e-20)
(0.133186 -0.0932805 2.52833e-19)
(0.160917 -0.104943 -1.68155e-19)
(0.195144 -0.111211 0)
(-0.00894965 0.0193252 6.34207e-20)
(-0.0214458 0.0447198 6.4304e-20)
(-0.0305457 0.060408 -6.16634e-20)
(-0.0367143 0.0688324 -1.15517e-19)
(-0.0402725 0.0719407 1.0877e-19)
(-0.0414556 0.0712602 -1.02814e-19)
(-0.0403861 0.0679435 1.45449e-19)
(-0.0370942 0.0628132 -4.50756e-20)
(-0.0315443 0.0564198 8.611e-20)
(-0.0236551 0.0491073 0)
(-0.0133164 0.0410728 7.76782e-20)
(-0.000402903 0.0324178 -1.45531e-19)
(0.0152132 0.0231878 1.37039e-19)
(0.033646 0.0133991 -1.28713e-19)
(0.0549845 0.00306636 0)
(0.0792841 -0.00777257 1.13839e-19)
(0.10655 -0.0190693 2.13712e-19)
(0.136709 -0.0307331 -2.00235e-19)
(0.169609 -0.0426254 -9.31135e-20)
(0.205012 -0.0545559 -8.48777e-20)
(0.242498 -0.0662999 2.40023e-19)
(0.281964 -0.0774821 7.09391e-20)
(0.320808 -0.0877286 -6.85522e-20)
(0.374251 -0.0918202 5.94582e-20)
(-0.0101885 0.019058 -6.34293e-20)
(-0.0238886 0.0445358 1.9831e-19)
(-0.0326448 0.0606754 -6.26109e-20)
(-0.037187 0.0696334 1.17143e-19)
(-0.0380149 0.0732241 -1.10299e-19)
(-0.0354768 0.0729234 4.72075e-22)
(-0.0297747 0.0698751 4.91931e-20)
(-0.0209852 0.0649186 1.86054e-19)
(-0.00908865 0.0586374 5.99276e-22)
(0.00600319 0.0514156 -8.16623e-20)
(0.0244217 0.043493 0)
(0.0463145 0.0350141 -7.37405e-20)
(0.0718214 0.0260648 1.37707e-19)
(0.101051 0.0167039 1.29989e-19)
(0.134059 0.00698871 -6.09456e-20)
(0.170819 -0.00301019 1.66181e-22)
(0.211207 -0.0131989 -5.35482e-20)
(0.254975 -0.0234451 9.99921e-20)
(0.301741 -0.0335751 9.30854e-20)
(0.351048 -0.0433491 -8.62308e-20)
(0.401885 -0.0526245 7.89071e-20)
(0.455443 -0.060522 -7.20224e-20)
(0.50264 -0.0688632 0)
(0.575372 -0.0687842 -5.93633e-20)
(-0.0111966 0.0182112 6.50981e-20)
(-0.0257362 0.0427628 -6.64734e-20)
(-0.0338159 0.0585202 6.35227e-20)
(-0.0363162 0.0673629 0)
(-0.0338524 0.0709629 0)
(-0.0268493 0.0707254 1.06277e-19)
(-0.0155652 0.0677609 -9.89672e-20)
(-0.000107586 0.0629035 9.38686e-20)
(0.0195343 0.0567525 -4.39666e-19)
(0.0434511 0.0497217 -1.19741e-22)
(0.0717747 0.0420909 7.81687e-20)
(0.104637 0.0340467 0)
(0.142124 0.0257194 -1.38604e-19)
(0.184244 0.0172129 2.6045e-19)
(0.230887 0.00862416 -1.83459e-19)
(0.281796 5.87749e-05 -2.86107e-19)
(0.336543 -0.00835836 1.3193e-21)
(0.394526 -0.0164757 1.99643e-19)
(0.454939 -0.0241288 0)
(0.517041 -0.0310148 0)
(0.578762 -0.0373611 -7.88952e-20)
(0.643283 -0.041248 7.20106e-20)
(0.694448 -0.0473352 -2.54018e-19)
(0.778406 -0.0426212 2.38338e-19)
(-0.0119611 0.016957 0)
(-0.0268307 0.0397049 0)
(-0.0336938 0.0542642 -1.91415e-19)
(-0.0334893 0.0623172 6.07921e-20)
(-0.0268941 0.0654226 1.99523e-22)
(-0.0143748 0.0649164 1.07296e-19)
(0.00378189 0.0618666 0)
(0.0274525 0.0570903 -9.4197e-20)
(0.0566345 0.0511944 8.81567e-20)
(0.0913915 0.0446178 -1.66789e-19)
(0.13179 0.0376742 -3.96569e-23)
(0.177834 0.0305885 1.47425e-19)
(0.229412 0.0235306 5.73789e-23)
(0.286236 0.0166358 1.29853e-19)
(0.347807 0.0100204 -1.8337e-19)
(0.413398 0.00379253 0)
(0.482049 -0.00194167 2.11491e-19)
(0.552607 -0.00707174 -2.97787e-19)
(0.623711 -0.0115181 9.03731e-20)
(0.694226 -0.0149908 0)
(0.761446 -0.0180876 7.59935e-20)
(0.828944 -0.0183458 2.75971e-19)
(0.879144 -0.0219786 -2.59e-19)
(0.958773 -0.0140093 -2.81442e-19)
(-0.012483 0.0154502 2.012e-19)
(-0.0269836 0.0356766 -2.7663e-19)
(-0.0317802 0.0483219 4.9432e-22)
(-0.027832 0.0549885 6.15659e-20)
(-0.0158413 0.057173 -1.14967e-19)
(0.00371171 0.0561636 -1.06781e-19)
(0.0305267 0.0529927 2.01169e-19)
(0.0644539 0.0484636 -7.31361e-22)
(0.10543 0.0431858 -1.77648e-19)
(0.153388 0.0376138 3.33668e-19)
(0.208168 0.0320819 -1.49106e-23)
(0.269432 0.0268337 -1.47258e-19)
(0.336592 0.0220424 0)
(0.40877 0.0178245 0)
(0.484788 0.0142509 -6.07479e-20)
(0.563199 0.0113531 -1.11956e-19)
(0.642345 0.00913226 -2.08275e-19)
(0.720449 0.00755936 1.95505e-19)
(0.795722 0.00659006 -9.04091e-20)
(0.866578 0.00624 1.62058e-19)
(0.930996 0.00609962 -8.04217e-20)
(0.990516 0.00764625 1.29879e-19)
(1.03423 0.0061147 -3.12715e-19)
(1.09439 0.0144055 5.63865e-20)
(-0.0127306 0.0137914 6.79638e-20)
(-0.0258983 0.0309442 0)
(-0.027362 0.0411419 1.31568e-19)
(-0.0181308 0.0460203 -1.2394e-19)
(0.00107141 0.0470709 1.15071e-19)
(0.0297522 0.0455652 0)
(0.0675733 0.0425163 0)
(0.114278 0.0387118 -9.50846e-20)
(0.169589 0.0347518 4.42574e-22)
(0.233081 0.0310827 8.38489e-20)
(0.304064 0.0280174 -7.81615e-20)
(0.381505 0.0257526 1.47089e-19)
(0.463986 0.024381 0)
(0.549731 0.0239026 2.55884e-19)
(0.636675 0.0242374 -4.78357e-19)
(0.722592 0.0252403 3.35566e-19)
(0.805235 0.0267248 2.03986e-19)
(0.882486 0.0284608 -1.91486e-19)
(0.952555 0.0302906 0)
(1.01391 0.031843 0)
(1.06592 0.0333622 0)
(1.10804 0.0340527 0)
(1.13916 0.0341375 6.07627e-20)
(1.17103 0.0372297 -2.13413e-19)
(-0.16156 -0.156763 -5.29093e-21)
(-0.163024 -0.165269 5.31767e-21)
(-0.16351 -0.170825 -1.58337e-22)
(-0.163433 -0.172647 0)
(-0.162723 -0.169834 -4.84198e-21)
(-0.161326 -0.161436 9.42389e-21)
(-0.159131 -0.14651 1.35135e-23)
(-0.155938 -0.124165 -4.47083e-21)
(-0.151456 -0.093656 0)
(-0.145293 -0.0544863 0)
(-0.137034 -0.00651797 -2.40182e-22)
(-0.126653 0.0500892 -2.31051e-22)
(-0.114254 0.11323 -3.95485e-21)
(-0.099871 0.180697 3.62956e-21)
(-0.0839977 0.249476 0)
(-0.06744 0.316056 0)
(-0.0509831 0.376444 2.68593e-21)
(-0.0345802 0.426866 -1.54716e-22)
(-0.016988 0.462768 -2.24392e-21)
(0.00495742 0.478808 -1.36986e-22)
(0.0353862 0.468492 0)
(0.0778427 0.425409 0)
(0.132905 0.346586 0)
(0.196916 0.235375 0)
(0.264613 0.0988951 0)
(0.332565 -0.0521478 0)
(0.39886 -0.201735 7.46046e-22)
(0.458925 -0.329177 -1.24573e-21)
(0.506203 -0.419108 0)
(0.537043 -0.467694 0)
(0.550687 -0.483297 -4.63269e-22)
(0.538875 -0.487984 4.50255e-22)
(0.491676 -0.501698 1.79628e-22)
(0.425336 -0.508656 0)
(0.384168 -0.458969 0)
(0.393479 -0.324686 4.9391e-22)
(0.440967 -0.132351 -4.80095e-22)
(0.506379 0.0661289 0)
(0.57033 0.229042 3.85799e-22)
(0.619548 0.336039 -5.38599e-22)
(0.65439 0.384358 1.32143e-22)
(0.669146 0.394826 0)
(0.638571 0.402479 -1.7702e-22)
(0.571154 0.405716 1.72139e-22)
(0.521302 0.355661 0)
(0.531485 0.229374 0)
(0.585567 0.0649318 -8.57246e-23)
(0.652715 -0.0775628 2.50975e-22)
(0.707783 -0.173651 0)
(0.748121 -0.214675 0)
(0.769277 -0.22032 -2.35072e-23)
(0.76939 -0.204523 2.4272e-24)
(0.738106 -0.185085 -5.26812e-24)
(0.712018 -0.15274 2.48586e-24)
(0.702679 -0.0989582 0)
(0.73381 -0.044136 0)
(0.769273 0.0198559 0)
(0.80834 0.0428879 0)
(0.830021 0.076723 0)
(0.840468 0.0665676 0)
(-0.154584 -0.154164 -5.11421e-22)
(-0.158461 -0.163681 -2.07725e-20)
(-0.160932 -0.170156 4.70137e-22)
(-0.163104 -0.172815 1.90518e-20)
(-0.164889 -0.170828 2.79524e-22)
(-0.166253 -0.163297 0)
(-0.167121 -0.149354 -1.65632e-20)
(-0.16731 -0.128184 3.25116e-20)
(-0.16649 -0.0990934 -1.59423e-20)
(-0.164119 -0.0616082 1.48999e-20)
(-0.159551 -0.0156181 -1.42424e-20)
(-0.152633 0.0385843 1.34504e-20)
(-0.143135 0.0997302 -1.3012e-20)
(-0.130538 0.165571 -3.56449e-22)
(-0.114663 0.233213 -1.1345e-20)
(-0.0957097 0.299432 1.10254e-20)
(-0.0737453 0.359696 -9.83326e-21)
(-0.0480358 0.409652 9.27464e-21)
(-0.0173128 0.44367 -9.15975e-21)
(0.0208306 0.456339 1.79511e-20)
(0.0687874 0.440933 -8.79544e-21)
(0.127557 0.392793 -6.10808e-22)
(0.195218 0.310707 -1.05242e-20)
(0.266819 0.198645 2.11129e-20)
(0.338034 0.0628775 -1.05785e-20)
(0.407155 -0.0874737 6.77427e-22)
(0.472419 -0.235263 9.22098e-21)
(0.528343 -0.357937 -1.02967e-21)
(0.568234 -0.439941 -1.30737e-20)
(0.589044 -0.479532 1.02833e-20)
(0.593558 -0.484836 -4.44558e-21)
(0.578989 -0.475336 3.86506e-22)
(0.532313 -0.475591 -1.79976e-22)
(0.457912 -0.48198 2.99855e-22)
(0.39618 -0.448177 0)
(0.385103 -0.333697 0)
(0.419825 -0.15413 -1.71945e-21)
(0.478319 0.040083 1.28386e-21)
(0.540284 0.205725 1.04687e-21)
(0.593423 0.318465 -3.14803e-23)
(0.634421 0.374476 -1.26347e-21)
(0.648724 0.39765 2.20588e-22)
(0.613442 0.418377 0)
(0.549592 0.423207 0)
(0.514372 0.36072 0)
(0.539594 0.219522 0)
(0.603666 0.0475863 4.34139e-22)
(0.674948 -0.0946535 -1.67762e-22)
(0.73027 -0.186455 0)
(0.766579 -0.222775 0)
(0.786323 -0.223441 0)
(0.789068 -0.201601 -1.76402e-23)
(0.762309 -0.178373 1.78547e-23)
(0.731485 -0.147756 -1.0448e-23)
(0.710019 -0.099962 0)
(0.728951 -0.0500091 0)
(0.754259 0.0127204 5.12226e-24)
(0.792667 0.0370024 7.57028e-24)
(0.809273 0.0737993 0)
(0.825653 0.0650962 0)
(-0.118435 -0.149601 -6.00116e-22)
(-0.125025 -0.16042 -4.2102e-20)
(-0.129389 -0.16808 3.93823e-20)
(-0.133581 -0.171863 -3.68415e-20)
(-0.137543 -0.170987 -2.8144e-22)
(-0.141187 -0.164575 0)
(-0.144459 -0.151819 -3.09379e-20)
(-0.147204 -0.131984 3.02648e-20)
(-0.149118 -0.104466 2.31201e-22)
(-0.14969 -0.068865 3.81165e-22)
(-0.148029 -0.0251683 3.57247e-22)
(-0.143715 0.0261911 3.99029e-22)
(-0.136433 0.0848052 -2.18998e-20)
(-0.125242 0.148289 2.16422e-20)
(-0.109042 0.213563 0)
(-0.0876551 0.278414 5.40331e-22)
(-0.0606357 0.336766 -1.78056e-20)
(-0.0271228 0.384519 1.75845e-20)
(0.0142718 0.416091 0)
(0.0650514 0.425645 0)
(0.125548 0.406907 -2.03314e-20)
(0.195027 0.356391 4.17091e-20)
(0.270172 0.273982 -4.3334e-20)
(0.345866 0.163683 -7.1858e-22)
(0.418562 0.0304895 4.53138e-20)
(0.487651 -0.117645 -4.50059e-20)
(0.55087 -0.262639 3.88189e-20)
(0.601405 -0.380187 -3.96832e-21)
(0.633057 -0.45446 -1.51402e-20)
(0.643727 -0.486006 0)
(0.637899 -0.483873 0)
(0.618813 -0.463472 2.02164e-21)
(0.574422 -0.449802 -2.6982e-21)
(0.497623 -0.451339 -4.95181e-23)
(0.418943 -0.431038 2.45636e-21)
(0.385904 -0.338617 -2.38729e-21)
(0.406023 -0.174684 0)
(0.456503 0.0137756 3.8908e-22)
(0.516003 0.180769 2.8437e-21)
(0.572456 0.298718 -5.12858e-21)
(0.617024 0.363893 2.10597e-21)
(0.628668 0.401367 2.21275e-22)
(0.59007 0.434172 -2.1172e-21)
(0.532803 0.438155 1.64634e-21)
(0.513019 0.362478 4.91461e-22)
(0.552352 0.207582 5.22949e-22)
(0.625252 0.029542 -4.35238e-22)
(0.699517 -0.111512 0)
(0.754586 -0.198354 0)
(0.786511 -0.229954 -7.26482e-22)
(0.803114 -0.226604 3.14572e-22)
(0.806702 -0.199698 -1.32874e-22)
(0.785453 -0.172135 9.10011e-23)
(0.753401 -0.141452 2.9166e-23)
(0.722871 -0.0985708 -1.78135e-23)
(0.729617 -0.0535337 1.08853e-23)
(0.743287 0.00682931 -1.09468e-23)
(0.779711 0.0317828 -2.89506e-24)
(0.790288 0.0708094 0)
(0.813868 0.0630201 0)
(-0.049329 -0.142346 -8.68607e-20)
(-0.0593437 -0.154567 3.71347e-21)
(-0.0661307 -0.163496 7.87462e-20)
(-0.0728276 -0.168731 -5.76568e-22)
(-0.0794645 -0.169352 0)
(-0.0857874 -0.164498 0)
(-0.0916533 -0.153355 -5.66827e-20)
(-0.0968667 -0.135232 2.23663e-21)
(-0.101138 -0.109609 7.49824e-20)
(-0.104038 -0.0761824 -1.45694e-21)
(-0.104823 -0.0350301 -2.20574e-20)
(-0.10238 0.0130291 -1.87771e-20)
(-0.0963513 0.0687311 1.87929e-20)
(-0.0863897 0.129565 0)
(-0.0698274 0.191489 -1.66198e-20)
(-0.0467661 0.252475 1.51403e-20)
(-0.0167871 0.307756 0)
(0.0224969 0.352862 0)
(0.071474 0.38225 1.72339e-20)
(0.1304 0.389377 1.87562e-21)
(0.198537 0.368947 -1.74924e-20)
(0.273933 0.3183 -2.29127e-20)
(0.352665 0.238042 2.30698e-20)
(0.429792 0.131606 -2.54891e-20)
(0.502601 0.00225519 2.86728e-22)
(0.57116 -0.142644 2.38049e-20)
(0.631976 -0.284287 2.65616e-21)
(0.676435 -0.396646 -2.88168e-23)
(0.699068 -0.463591 0)
(0.699793 -0.487635 9.27837e-21)
(0.683462 -0.480025 -9.49438e-21)
(0.657773 -0.452499 3.69299e-22)
(0.615745 -0.426175 0)
(0.541909 -0.41857 -2.53519e-22)
(0.452136 -0.406986 3.84555e-21)
(0.396606 -0.3377 -7.61323e-21)
(0.399669 -0.193092 -9.68093e-22)
(0.441401 -0.0125873 -1.28338e-22)
(0.498065 0.154378 4.01713e-21)
(0.556365 0.277457 5.43681e-22)
(0.601559 0.353254 -3.71103e-21)
(0.609259 0.405756 3.16134e-21)
(0.569365 0.449051 -1.80039e-23)
(0.521145 0.450174 2.00281e-21)
(0.517054 0.361321 -2.44022e-21)
(0.569614 0.194105 -3.84727e-21)
(0.650179 0.0114889 1.00667e-21)
(0.726122 -0.12789 1.49598e-21)
(0.780108 -0.209311 -2.50629e-21)
(0.807649 -0.236065 1.42703e-21)
(0.820053 -0.229422 -1.3482e-22)
(0.822546 -0.198648 3.21145e-22)
(0.806688 -0.166812 1.27021e-22)
(0.7763 -0.134587 -2.06398e-23)
(0.740347 -0.0952263 -2.40598e-26)
(0.736029 -0.0546754 1.19935e-23)
(0.737549 0.00241995 0)
(0.770734 0.027416 -3.92333e-24)
(0.774867 0.0677071 -9.08873e-25)
(0.806394 0.060244 0)
(0.0567256 -0.132342 8.78715e-20)
(0.0427348 -0.144239 -1.67575e-19)
(0.0328222 -0.154767 7.89746e-20)
(0.0226015 -0.161774 6.94731e-20)
(0.0121431 -0.164241 -1.31487e-19)
(0.00178864 -0.161474 4.4818e-21)
(-0.00806006 -0.152588 5.64767e-20)
(-0.017017 -0.136837 4.7201e-20)
(-0.0246418 -0.113693 -4.62451e-20)
(-0.0304928 -0.0828997 0)
(-0.0341295 -0.0445878 -3.51585e-20)
(-0.0334333 0.000873397 6.61363e-20)
(-0.0279289 0.052278 -3.11534e-20)
(-0.0194459 0.107808 0)
(-0.00436036 0.16572 0)
(0.0194067 0.222197 4.69345e-22)
(0.0515686 0.274526 -2.8885e-20)
(0.0939031 0.31719 2.80601e-20)
(0.146698 0.34434 0)
(0.209605 0.349971 3.82307e-20)
(0.281191 0.329379 -7.75644e-20)
(0.358778 0.280431 8.60112e-20)
(0.43818 0.204106 -9.51473e-20)
(0.514755 0.10302 -3.36889e-21)
(0.586958 -0.0214057 1.02083e-19)
(0.655109 -0.162425 -5.08257e-20)
(0.713557 -0.299964 -1.36415e-21)
(0.751595 -0.406683 -1.54807e-20)
(0.764551 -0.466839 3.44832e-21)
(0.75549 -0.484333 1.23298e-20)
(0.729695 -0.472659 4.85031e-22)
(0.696214 -0.441563 -4.79188e-21)
(0.65502 -0.405806 8.20477e-21)
(0.587763 -0.38677 -3.7923e-21)
(0.494196 -0.377629 0)
(0.418122 -0.3297 -3.65186e-21)
(0.400929 -0.208168 3.6196e-21)
(0.432558 -0.0388934 -3.36701e-21)
(0.485874 0.126828 4.17535e-21)
(0.544101 0.255278 -4.16644e-22)
(0.587349 0.34279 0)
(0.590893 0.410186 -4.32538e-22)
(0.55205 0.462178 1.36746e-21)
(0.514748 0.459098 0)
(0.526228 0.357633 6.08069e-21)
(0.591327 0.179648 -2.25895e-21)
(0.678325 -0.00674242 1.09037e-21)
(0.754481 -0.143508 9.50073e-22)
(0.806351 -0.219243 0)
(0.829553 -0.241052 0)
(0.83734 -0.231582 -6.53364e-22)
(0.837059 -0.198154 7.07809e-22)
(0.825566 -0.162624 -2.32064e-22)
(0.79881 -0.127869 1.66134e-23)
(0.761171 -0.0905357 -1.74326e-23)
(0.747949 -0.0536263 -1.20048e-23)
(0.738004 -0.000402803 3.61786e-23)
(0.766944 0.0240132 0)
(0.764828 0.0644497 1.3008e-24)
(0.804278 0.0567358 1.07488e-23)
(0.199331 -0.118311 8.93079e-20)
(0.18433 -0.129499 -8.85919e-20)
(0.169433 -0.141013 6.14628e-22)
(0.155544 -0.149235 -5.53381e-22)
(0.140565 -0.153437 5.12947e-22)
(0.124869 -0.152976 -4.63689e-22)
(0.109272 -0.146953 7.90138e-22)
(0.094467 -0.134525 0)
(0.0812114 -0.115048 -6.08423e-22)
(0.0702731 -0.0881644 5.32542e-22)
(0.0623133 -0.0538342 4.69167e-22)
(0.0586028 -0.0122082 -4.87595e-22)
(0.0602913 0.0340422 0)
(0.0674003 0.0841979 0)
(0.0815513 0.138046 3.44356e-22)
(0.10442 0.190905 0)
(0.136679 0.239727 -3.65844e-22)
(0.179401 0.279454 0)
(0.232843 0.304576 -3.14606e-20)
(0.296311 0.309601 6.71165e-20)
(0.367996 0.290142 -7.61059e-20)
(0.444982 0.244253 4.03846e-20)
(0.523015 0.173001 5.00176e-20)
(0.597913 0.0781638 -4.85634e-20)
(0.669434 -0.0405827 -5.3362e-20)
(0.737599 -0.177142 5.17965e-20)
(0.793731 -0.309726 0)
(0.825122 -0.410254 1.16762e-21)
(0.82816 -0.464315 0)
(0.809355 -0.476721 0)
(0.775518 -0.462098 1.21824e-20)
(0.734415 -0.429997 -1.27505e-20)
(0.691748 -0.388752 4.31415e-22)
(0.632353 -0.358235 3.48211e-22)
(0.542298 -0.345434 -2.04589e-22)
(0.450922 -0.31406 -2.21205e-21)
(0.410501 -0.218142 2.14807e-21)
(0.42895 -0.0643805 -3.29902e-21)
(0.477776 0.0984902 2.81053e-21)
(0.534049 0.232457 7.71336e-22)
(0.573785 0.332252 -3.39017e-21)
(0.574007 0.413849 -7.5595e-22)
(0.538639 0.472914 2.61404e-21)
(0.513547 0.464959 0)
(0.540253 0.351835 -2.54532e-21)
(0.617017 0.164608 3.99599e-21)
(0.709417 -0.0247342 -5.14321e-21)
(0.784626 -0.158009 -9.56082e-22)