/*--------------------------------*- C++ -*----------------------------------*\
| =========                 |                                                 |
| \\      /  F ield         | OpenFOAM: The Open Source CFD Toolbox           |
|  \\    /   O peration     | Version:  2512                                  |
|   \\  /    A nd           | Website:  www.openfoam.com                      |
|    \\/     M anipulation  |                                                 |
\*---------------------------------------------------------------------------*/
FoamFile
{
    version     2.0;
    format      ascii;
    arch        "LSB;label=32;scalar=64";
    class       volScalarField;
    location    "175.5";
    object      p;
}
// * * * * * * * * * * * * * * * * * * * * * * * * * * * * * * * * * * * * * //

dimensions      [0 2 -2 0 0 0 0];

internalField   nonuniform List<scalar> 
13248
(
-0.449618
-0.44678
-0.444137
-0.441784
-0.439757
-0.438083
-0.436624
-0.43508
-0.433035
-0.430005
-0.425496
-0.419062
-0.410372
-0.399256
-0.385722
-0.369954
-0.352278
-0.33311
-0.312899
-0.292091
-0.271
-0.250008
-0.22868
-0.207504
-0.458528
-0.454974
-0.451483
-0.448172
-0.445085
-0.442255
-0.439526
-0.436565
-0.43292
-0.4281
-0.421646
-0.413207
-0.402591
-0.38979
-0.374968
-0.358427
-0.34055
-0.32175
-0.302421
-0.282907
-0.26347
-0.244358
-0.225483
-0.207378
-0.468508
-0.464104
-0.459718
-0.455446
-0.451285
-0.44724
-0.443112
-0.43852
-0.432998
-0.426089
-0.417434
-0.406834
-0.394273
-0.379908
-0.364025
-0.346984
-0.329164
-0.310918
-0.29255
-0.274307
-0.256367
-0.238908
-0.221866
-0.205449
-0.479913
-0.474488
-0.469143
-0.463885
-0.458598
-0.45321
-0.447457
-0.440923
-0.433171
-0.42385
-0.41277
-0.399926
-0.385484
-0.369731
-0.353015
-0.335688
-0.318068
-0.300419
-0.282949
-0.265814
-0.249134
-0.233025
-0.217433
-0.202591
-0.492903
-0.486279
-0.479894
-0.473591
-0.467055
-0.460103
-0.452405
-0.443554
-0.433218
-0.421231
-0.407623
-0.392593
-0.376449
-0.359544
-0.342217
-0.324758
-0.307397
-0.290302
-0.273597
-0.257369
-0.241686
-0.226604
-0.212088
-0.198294
-0.507424
-0.499456
-0.491952
-0.484497
-0.476503
-0.467656
-0.457601
-0.446023
-0.432787
-0.417979
-0.40186
-0.384795
-0.367168
-0.349325
-0.331542
-0.314021
-0.296899
-0.280264
-0.264173
-0.248662
-0.233759
-0.219482
-0.205809
-0.192845
-0.523223
-0.513829
-0.505127
-0.496354
-0.486587
-0.475407
-0.462524
-0.447828
-0.431468
-0.413809
-0.39531
-0.376429
-0.357548
-0.338949
-0.320818
-0.303264
-0.286343
-0.27008
-0.254481
-0.239546
-0.225269
-0.211643
-0.198653
-0.186328
-0.539846
-0.529015
-0.519035
-0.508701
-0.496742
-0.482715
-0.466531
-0.448407
-0.428833
-0.408421
-0.387758
-0.367306
-0.347383
-0.328174
-0.309769
-0.292192
-0.275436
-0.259476
-0.244282
-0.229824
-0.216075
-0.203007
-0.190609
-0.178832
-0.556622
-0.544418
-0.533066
-0.520848
-0.506196
-0.488793
-0.468918
-0.447209
-0.424488
-0.401544
-0.378989
-0.357222
-0.336453
-0.316763
-0.298149
-0.280568
-0.263963
-0.248271
-0.233434
-0.2194
-0.206121
-0.193561
-0.181692
-0.17041
-0.572662
-0.559206
-0.546354
-0.531854
-0.513986
-0.492762
-0.468978
-0.443725
-0.418087
-0.392922
-0.368783
-0.345952
-0.32452
-0.304466
-0.285712
-0.268162
-0.251719
-0.23629
-0.221795
-0.208162
-0.195328
-0.183247
-0.171867
-0.161055
-0.586879
-0.572318
-0.557788
-0.540567
-0.519007
-0.493671
-0.465962
-0.43738
-0.409161
-0.382128
-0.356712
-0.333056
-0.311135
-0.29084
-0.272033
-0.254573
-0.238333
-0.223197
-0.209064
-0.195846
-0.183468
-0.171869
-0.160962
-0.15063
-0.598091
-0.582606
-0.566205
-0.54582
-0.52016
-0.490536
-0.458996
-0.427364
-0.396917
-0.36836
-0.341961
-0.31772
-0.2955
-0.275116
-0.256378
-0.239111
-0.22316
-0.20839
-0.194681
-0.181935
-0.170069
-0.159005
-0.148628
-0.138877
-0.340267
-0.343022
-0.344673
-0.345723
-0.346621
-0.347502
-0.348427
-0.349424
-0.350495
-0.351622
-0.352784
-0.353962
-0.355147
-0.356338
-0.357552
-0.358814
-0.360168
-0.361663
-0.363363
-0.365336
-0.367614
-0.370135
-0.372879
-0.376264
-0.345813
-0.34899
-0.350991
-0.352394
-0.353685
-0.354985
-0.356327
-0.357711
-0.359103
-0.360442
-0.361657
-0.362668
-0.363395
-0.363761
-0.363697
-0.363146
-0.362069
-0.360449
-0.358305
-0.355695
-0.352641
-0.349063
-0.345131
-0.342142
-0.35299
-0.356342
-0.35857
-0.360276
-0.361942
-0.363662
-0.365441
-0.367244
-0.369001
-0.370607
-0.371933
-0.372837
-0.373163
-0.372748
-0.371433
-0.369068
-0.365522
-0.360694
-0.354543
-0.347093
-0.338348
-0.328184
-0.316898
-0.306799
-0.361745
-0.364998
-0.367307
-0.369237
-0.371228
-0.373341
-0.375542
-0.377771
-0.379913
-0.381817
-0.383301
-0.384157
-0.384154
-0.383049
-0.380593
-0.376543
-0.370681
-0.362827
-0.35287
-0.340795
-0.326612
-0.310215
-0.291818
-0.27429
-0.371794
-0.374683
-0.376908
-0.378958
-0.38119
-0.38362
-0.386172
-0.388782
-0.391283
-0.393465
-0.395098
-0.395912
-0.395611
-0.393873
-0.390372
-0.384788
-0.376832
-0.366266
-0.352931
-0.336779
-0.317871
-0.296236
-0.271851
-0.24683
-0.38267
-0.384972
-0.386951
-0.388984
-0.391328
-0.393964
-0.396785
-0.399575
-0.402359
-0.404719
-0.406401
-0.40709
-0.406428
-0.404031
-0.39951
-0.392494
-0.382656
-0.36974
-0.353587
-0.334163
-0.311581
-0.28609
-0.257701
-0.226647
-0.393818
-0.395376
-0.396954
-0.398809
-0.401093
-0.403754
-0.406668
-0.409678
-0.412386
-0.414685
-0.416217
-0.416597
-0.415412
-0.412232
-0.406628
-0.398209
-0.386652
-0.371737
-0.353371
-0.331614
-0.306699
-0.278933
-0.248971
-0.215935
-0.404707
-0.405443
-0.406486
-0.407984
-0.409995
-0.412442
-0.415169
-0.41796
-0.420525
-0.422564
-0.423711
-0.423547
-0.421624
-0.417485
-0.410696
-0.40088
-0.387765
-0.37121
-0.351243
-0.328058
-0.302075
-0.273591
-0.244216
-0.211532
-0.414944
-0.414856
-0.41526
-0.416221
-0.417737
-0.419723
-0.422011
-0.424358
-0.426459
-0.427961
-0.428456
-0.427498
-0.424616
-0.41935
-0.41129
-0.400118
-0.385649
-0.367868
-0.346945
-0.323209
-0.297262
-0.269361
-0.241529
-0.210944
-0.424355
-0.423499
-0.42319
-0.423456
-0.424268
-0.425559
-0.427158
-0.428809
-0.43018
-0.430883
-0.430478
-0.428493
-0.424454
-0.417923
-0.408548
-0.396101
-0.380524
-0.361943
-0.340667
-0.317149
-0.292058
-0.265722
-0.239871
-0.212242
-0.433027
-0.431475
-0.430405
-0.429847
-0.429784
-0.430177
-0.430872
-0.431602
-0.432013
-0.431683
-0.430147
-0.426921
-0.421546
-0.413636
-0.402928
-0.389316
-0.372878
-0.353873
-0.33271
-0.309924
-0.286135
-0.261829
-0.238169
-0.213633
-0.441286
-0.439087
-0.437224
-0.435759
-0.434707
-0.434069
-0.433707
-0.433345
-0.432603
-0.431029
-0.428136
-0.423444
-0.416537
-0.407113
-0.395031
-0.380325
-0.363206
-0.344032
-0.323255
-0.301396
-0.278929
-0.256419
-0.2345
-0.213068
-0.381416
-0.38802
-0.393086
-0.394851
-0.391993
-0.382109
-0.364744
-0.339442
-0.307608
-0.271661
-0.235564
-0.203316
-0.177922
-0.16118
-0.154159
-0.157741
-0.171884
-0.193553
-0.215498
-0.227898
-0.224178
-0.202659
-0.170186
-0.136547
-0.108819
-0.089779
-0.079315
-0.0760275
-0.0790866
-0.0897196
-0.108384
-0.129373
-0.141562
-0.137066
-0.118878
-0.0966147
-0.0788895
-0.0682119
-0.0636408
-0.0658686
-0.0765633
-0.091401
-0.0990617
-0.0934881
-0.0793323
-0.0645297
-0.0538857
-0.0474447
-0.0470442
-0.0493013
-0.0492942
-0.0470229
-0.043057
-0.0374637
-0.0338121
-0.0309116
-0.0281513
-0.0286822
-0.023508
-0.00684229
-0.340822
-0.340765
-0.340607
-0.338913
-0.334297
-0.324899
-0.310953
-0.290709
-0.26618
-0.237993
-0.210002
-0.185495
-0.167077
-0.15669
-0.155874
-0.165747
-0.185739
-0.21179
-0.235813
-0.24717
-0.242127
-0.217262
-0.18093
-0.143685
-0.112871
-0.0910885
-0.0779913
-0.0721385
-0.0724814
-0.0798011
-0.0948381
-0.113061
-0.124662
-0.122061
-0.107296
-0.0887129
-0.0743988
-0.0666255
-0.0645762
-0.0694614
-0.0828701
-0.100047
-0.108636
-0.102093
-0.0855343
-0.0678093
-0.0547864
-0.0461358
-0.0438314
-0.0441035
-0.0435659
-0.0418819
-0.0392632
-0.0356747
-0.0336463
-0.033031
-0.0311067
-0.0321032
-0.0265264
-0.0077276
-0.298967
-0.290918
-0.284319
-0.277888
-0.270694
-0.261135
-0.248782
-0.233213
-0.217235
-0.196356
-0.176591
-0.160037
-0.14902
-0.145611
-0.151612
-0.167963
-0.193343
-0.222979
-0.248899
-0.262431
-0.253978
-0.226679
-0.18783
-0.148169
-0.115158
-0.0912575
-0.0759335
-0.067731
-0.0655028
-0.0696075
-0.0809672
-0.0963066
-0.107208
-0.106392
-0.0949281
-0.0799662
-0.0690505
-0.0642057
-0.0647277
-0.0722642
-0.0882605
-0.107619
-0.117183
-0.109882
-0.0911666
-0.0706667
-0.0553868
-0.0447303
-0.0407474
-0.0392185
-0.0381156
-0.0367983
-0.0353796
-0.0337543
-0.0334011
-0.0351269
-0.034015
-0.0353991
-0.029437
-0.00859233
-0.260561
-0.243903
-0.230126
-0.217822
-0.206697
-0.196155
-0.184598
-0.170404
-0.163299
-0.148601
-0.1369
-0.128294
-0.124925
-0.128858
-0.141798
-0.164217
-0.194148
-0.226534
-0.253683
-0.267021
-0.258803
-0.230672
-0.190764
-0.149983
-0.115771
-0.0904596
-0.0734231
-0.0632126
-0.0586395
-0.0597541
-0.0675364
-0.0798812
-0.0898303
-0.0906225
-0.0821645
-0.0706292
-0.062977
-0.0609589
-0.0639609
-0.0740001
-0.0923839
-0.113799
-0.124429
-0.116645
-0.0961078
-0.0730705
-0.0556978
-0.0432565
-0.0378354
-0.0347119
-0.0330078
-0.0318421
-0.0314542
-0.0317229
-0.0330754
-0.0371843
-0.0368503
-0.038533
-0.0322046
-0.00942652
-0.229447
-0.204696
-0.183749
-0.165502
-0.149366
-0.1357
-0.124036
-0.111089
-0.108479
-0.0998582
-0.0949928
-0.0936569
-0.0976018
-0.108601
-0.127933
-0.155483
-0.188845
-0.223071
-0.25103
-0.264601
-0.257099
-0.229478
-0.190005
-0.149453
-0.115017
-0.0889483
-0.0706919
-0.0588684
-0.0522976
-0.0507302
-0.0551211
-0.0644139
-0.0731202
-0.0752429
-0.0693125
-0.0609257
-0.0562846
-0.0568676
-0.062146
-0.0744585
-0.0949856
-0.11833
-0.130104
-0.122184
-0.100258
-0.0750119
-0.0557495
-0.041743
-0.0351136
-0.0306175
-0.0282915
-0.0270846
-0.0275373
-0.0295993
-0.0326678
-0.0391856
-0.0395828
-0.0414627
-0.0347938
-0.0102203
-0.206952
-0.175598
-0.147672
-0.126436
-0.104926
-0.0846583
-0.0776598
-0.0637291
-0.0595975
-0.0562049
-0.0564
-0.0608744
-0.0709112
-0.0877815
-0.112168
-0.14338
-0.178795
-0.213857
-0.242201
-0.256106
-0.249674
-0.223618
-0.18596
-0.146903
-0.113172
-0.0869648
-0.0679299
-0.0548699
-0.0466609
-0.0428538
-0.0441799
-0.0504387
-0.0576022
-0.0603796
-0.0566526
-0.0510907
-0.0490942
-0.0519629
-0.0592504
-0.0735467
-0.0959135
-0.121019
-0.134002
-0.126354
-0.103535
-0.0764826
-0.0555664
-0.0402073
-0.0325803
-0.0269436
-0.0239964
-0.0225803
-0.0236772
-0.0273996
-0.0321746
-0.0411073
-0.0421811
-0.0441485
-0.0371711
-0.0109632
-0.193903
-0.160712
-0.128821
-0.101292
-0.0765628
-0.0552618
-0.0402276
-0.0279572
-0.0240368
-0.0228857
-0.0260018
-0.0341677
-0.048237
-0.0689523
-0.0964232
-0.129507
-0.165529
-0.20043
-0.228794
-0.24273
-0.237592
-0.213937
-0.179234
-0.142735
-0.110514
-0.0847205
-0.0652927
-0.0513195
-0.0418029
-0.0361728
-0.0349043
-0.0382785
-0.0436787
-0.0465075
-0.0446013
-0.0414163
-0.0415894
-0.04637
-0.0553287
-0.0712347
-0.0951043
-0.121773
-0.136019
-0.129057
-0.10587
-0.0774692
-0.0551665
-0.0386615
-0.0302207
-0.0236663
-0.0201337
-0.0184135
-0.0199155
-0.0251372
-0.0315889
-0.0429244
-0.0446154
-0.0465549
-0.0393055
-0.011645
-0.188784
-0.156312
-0.12301
-0.0927533
-0.0656364
-0.0421741
-0.0236632
-0.00996072
-0.00386073
-0.00241658
-0.00618459
-0.0156758
-0.0313713
-0.0535704
-0.0819637
-0.115122
-0.150372
-0.184125
-0.212398
-0.225597
-0.221901
-0.201292
-0.170415
-0.137279
-0.107207
-0.0823061
-0.062838
-0.0482442
-0.0377226
-0.030654
-0.0272724
-0.0280596
-0.0316103
-0.0341815
-0.0335498
-0.0321968
-0.0340044
-0.0402582
-0.0504988
-0.0676024
-0.0925875
-0.120596
-0.136128
-0.13025
-0.107216
-0.0779665
-0.0545695
-0.037118
-0.0280289
-0.020755
-0.0166902
-0.0146194
-0.0162802
-0.0228238
-0.0309026
-0.0446114
-0.0468588
-0.0486503
-0.0411714
-0.0122576
-0.188619
-0.158508
-0.126735
-0.0963042
-0.0682274
-0.0433537
-0.0227882
-0.00754365
0.00227994
0.00569592
0.00322118
-0.00544124
-0.0205189
-0.0420078
-0.0693625
-0.101014
-0.134294
-0.165757
-0.190151
-0.205445
-0.203662
-0.186643
-0.160189
-0.130949
-0.103485
-0.0798763
-0.0606971
-0.0457525
-0.0344941
-0.0263197
-0.0212757
-0.0198454
-0.0215474
-0.0235914
-0.0237454
-0.0236741
-0.0265809
-0.0338505
-0.0448982
-0.0627032
-0.0884707
-0.117603
-0.134397
-0.129954
-0.107594
-0.0780409
-0.0538627
-0.0356274
-0.0260195
-0.0182173
-0.0136572
-0.0112198
-0.0127924
-0.0204695
-0.0301059
-0.0461439
-0.0488813
-0.0504054
-0.0427484
-0.012797
-0.190905
-0.163945
-0.135662
-0.10737
-0.080086
-0.0551141
-0.0334584
-0.016445
-0.00303131
0.00340066
0.00362785
-0.00254097
-0.015219
-0.0342335
-0.0589448
-0.0877647
-0.118176
-0.146942
-0.170401
-0.18424
-0.1843
-0.171255
-0.149589
-0.124561
-0.100015
-0.0780083
-0.0593847
-0.0442831
-0.0324546
-0.0233923
-0.0170158
-0.0137094
-0.0136165
-0.0148783
-0.0154178
-0.016032
-0.0195133
-0.0273313
-0.0387781
-0.0568916
-0.0829457
-0.112898
-0.13093
-0.128264
-0.107059
-0.0778117
-0.0532027
-0.0342903
-0.0242011
-0.0160452
-0.011078
-0.0082652
-0.0094567
-0.0180888
-0.0291877
-0.0474936
-0.0506476
-0.0517984
-0.0440089
-0.0132559
-0.193473
-0.169958
-0.145584
-0.119764
-0.0937505
-0.0692284
-0.0469586
-0.0278638
-0.0138113
-0.00546141
-0.00191861
-0.00447017
-0.0135867
-0.0289229
-0.049938
-0.0752332
-0.10232
-0.128272
-0.149622
-0.162194
-0.164237
-0.155429
-0.138819
-0.11826
-0.0968898
-0.0767233
-0.0588657
-0.0437546
-0.0314609
-0.0216734
-0.0142338
-0.00933678
-0.00755938
-0.0079858
-0.00851361
-0.00948837
-0.0130929
-0.0209419
-0.0321393
-0.0499775
-0.0762751
-0.107092
-0.125845
-0.125182
-0.105355
-0.0770255
-0.0524246
-0.0330132
-0.0224682
-0.0140302
-0.00886864
-0.00588546
-0.00631395
-0.015669
-0.0281211
-0.0486558
-0.0521155
-0.0528088
-0.0449161
-0.0136064
-0.196235
-0.17812
-0.15823
-0.135504
-0.112289
-0.0899546
-0.0685225
-0.0491145
-0.031932
-0.0199663
-0.0136156
-0.0124871
-0.0169948
-0.0274059
-0.0431588
-0.0631193
-0.0853798
-0.107805
-0.126305
-0.138422
-0.141847
-0.136896
-0.124997
-0.108719
-0.0905903
-0.0725598
-0.0559372
-0.0413517
-0.0290849
-0.0190627
-0.0111324
-0.00518741
-0.00202319
-0.00169406
-0.00240385
-0.00380033
-0.0074651
-0.0151403
-0.0258931
-0.0429939
-0.0687326
-0.0996029
-0.119008
-0.119601
-0.101822
-0.0746734
-0.0505198
-0.0311091
-0.0204877
-0.0117798
-0.00657483
-0.00368611
-0.00335282
-0.0133147
-0.0269202
-0.0495503
-0.0532755
-0.0534238
-0.045478
-0.013804
-0.18429
-0.17597
-0.157312
-0.135227
-0.113594
-0.0928637
-0.0729308
-0.0549841
-0.0395698
-0.0282418
-0.0211271
-0.0185185
-0.0211718
-0.0293406
-0.0426469
-0.0600359
-0.0797227
-0.0992114
-0.115376
-0.12553
-0.128149
-0.123303
-0.112447
-0.0977932
-0.0814713
-0.0651173
-0.0498668
-0.036271
-0.0246027
-0.014853
-0.00694938
-0.000667417
0.00332811
0.00463304
0.00430429
0.00334173
-0.000468505
-0.00730934
-0.017065
-0.0337095
-0.0603935
-0.0937273
-0.115491
-0.118004
-0.0987088
-0.0713631
-0.0474652
-0.028432
-0.0182973
-0.00946264
-0.00415275
-0.000818542
0.000167071
-0.0104787
-0.0253484
-0.0503078
-0.0544575
-0.0537488
-0.0458039
-0.0138691
-0.173409
-0.167263
-0.149919
-0.129525
-0.110288
-0.0924302
-0.0754692
-0.0600105
-0.0465573
-0.0360804
-0.0291249
-0.0262363
-0.0278891
-0.0342112
-0.044869
-0.0589217
-0.0747984
-0.0902992
-0.102847
-0.110605
-0.112176
-0.107742
-0.0984773
-0.0860287
-0.072015
-0.0577213
-0.0441174
-0.0317088
-0.0208031
-0.0115042
-0.00380227
0.00258531
0.00700867
0.00877519
0.00845405
0.00698829
0.00417948
-0.00167779
-0.0103417
-0.0261621
-0.0530865
-0.0875623
-0.109898
-0.111439
-0.0931101
-0.0667789
-0.044018
-0.0257823
-0.0160476
-0.00728733
-0.0022257
0.00135526
0.00259163
-0.0082199
-0.0240866
-0.0507966
-0.0553073
-0.053549
-0.0456528
-0.0138475
-0.162391
-0.157199
-0.142366
-0.124581
-0.107748
-0.0924308
-0.0779254
-0.0644778
-0.0526072
-0.0431652
-0.0367581
-0.0337818
-0.0345151
-0.0390117
-0.0469468
-0.0575137
-0.0694364
-0.0810493
-0.0906053
-0.0963471
-0.0973859
-0.0937661
-0.086186
-0.0757701
-0.0637579
-0.051206
-0.0389851
-0.0275998
-0.0173775
-0.00846993
-0.000979465
0.00536486
0.0100273
0.0122075
0.0121017
0.0106832
0.00819298
0.00287153
-0.00525687
-0.0205821
-0.0469329
-0.0803346
-0.102054
-0.103455
-0.0864878
-0.0617289
-0.0403461
-0.0230228
-0.0137534
-0.00516571
-0.000362453
0.00332273
0.00453932
-0.00641692
-0.0231063
-0.0509959
-0.0557754
-0.0528716
-0.0450615
-0.0137679
-0.149694
-0.146654
-0.134925
-0.119675
-0.104967
-0.0916659
-0.0793025
-0.0677649
-0.0574687
-0.0490933
-0.0431507
-0.0399602
-0.039729
-0.0424794
-0.0479383
-0.055489
-0.0641642
-0.072739
-0.0797658
-0.0840023
-0.0846625
-0.0816057
-0.075257
-0.0664245
-0.0560723
-0.0450528
-0.0341111
-0.0237169
-0.0141982
-0.00572045
0.00151297
0.00771847
0.0125077
0.0151046
0.0153879
0.0141495
0.0121787
0.00738196
-0.000361407
-0.0150714
-0.0399852
-0.0716807
-0.0929826
-0.0944982
-0.0789423
-0.0560699
-0.0363531
-0.02015
-0.0114228
-0.00308485
0.00147106
0.00512181
0.0063262
-0.00471953
-0.0219984
-0.0507577
-0.0558296
-0.0517527
-0.0439958
-0.0135974
-0.137847
-0.136705
-0.127263
-0.114289
-0.101599
-0.0901841
-0.0796904
-0.069881
-0.0610046
-0.053569
-0.0480169
-0.0446424
-0.043612
-0.0449356
-0.0484047
-0.0535424
-0.0595284
-0.0656545
-0.0706233
-0.0735331
-0.0737088
-0.0709643
-0.0655545
-0.0580277
-0.0490952
-0.0394222
-0.029632
-0.0201544
-0.0113223
-0.00329373
0.00366721
0.00968548
0.0144945
0.017422
0.0181742
0.0173846
0.0160836
0.0120078
0.00493534
-0.00865051
-0.0318097
-0.0619909
-0.0827824
-0.0844599
-0.0705095
-0.0498849
-0.0321067
-0.017202
-0.00907754
-0.0010527
0.00326486
0.00671176
0.00798032
-0.00295255
-0.0205568
-0.0499585
-0.0553602
-0.0501297
-0.0423992
-0.0133042
-0.126822
-0.126726
-0.119268
-0.108456
-0.097686
-0.0879884
-0.0791257
-0.0708212
-0.0631925
-0.0566191
-0.0514818
-0.0480426
-0.0464363
-0.0466647
-0.0485662
-0.0517922
-0.0558307
-0.0597236
-0.0629405
-0.0646715
-0.0643606
-0.0617973
-0.0570947
-0.0506009
-0.0428336
-0.03431
-0.0255452
-0.0169152
-0.00875
-0.00119407
0.00547437
0.0112841
0.0160304
0.0191893
0.0204539
0.0206033
0.0198011
0.016661
0.0105901
-0.00160093
-0.023012
-0.0515193
-0.0715344
-0.0735213
-0.0614133
-0.0433031
-0.0276653
-0.0142095
-0.00673878
0.000913971
0.00501269
0.00810156
0.00947009
-0.0011087
-0.0187486
-0.0484254
-0.0541979
-0.047941
-0.0402422
-0.0128588
-0.116001
-0.116753
-0.111106
-0.102273
-0.0932537
-0.0850907
-0.0776502
-0.0706585
-0.0641452
-0.0583848
-0.053689
-0.0502819
-0.048276
-0.0476735
-0.0483506
-0.050033
-0.0523437
-0.0546616
-0.056482
-0.0572294
-0.0564633
-0.0539657
-0.0497638
-0.044072
-0.0372606
-0.0297211
-0.0218696
-0.0140213
-0.00649282
0.000577441
0.00692872
0.0125248
0.0171715
0.0204754
0.0221835
0.0229299
0.0231259
0.0211478
0.0162827
0.0055175
-0.0140789
-0.0406053
-0.0596105
-0.0620061
-0.0519231
-0.0364913
-0.0231087
-0.0112097
-0.00442798
0.00280112
0.00671619
0.00932442
0.0107691
0.000783689
-0.0165193
-0.0459476
-0.052168
-0.0451563
-0.0375229
-0.0122361
-0.105465
-0.107047
-0.10295
-0.0958313
-0.0883607
-0.0815563
-0.0753597
-0.0695153
-0.0639943
-0.0589852
-0.0547345
-0.0514315
-0.0491746
-0.0479719
-0.0477322
-0.0482615
-0.0492522
-0.0503168
-0.0510316
-0.0509699
-0.0497871
-0.0472836
-0.0434399
-0.0383776
-0.0323516
-0.0256506
-0.0186065
-0.0114763
-0.00455053
0.00203325
0.00804335
0.0134167
0.0179535
0.0213411
0.0234219
0.0247048
0.0258521
0.0251767
0.0216893
0.0123493
-0.00545193
-0.0297904
-0.0474678
-0.0502981
-0.042357
-0.0296534
-0.0185317
-0.00824071
-0.00216247
0.00459929
0.00837775
0.0104335
0.0118856
0.00274917
-0.013763
-0.0423385
-0.0491122
-0.0417758
-0.0342754
-0.0114204
-0.0956401
-0.0977441
-0.0948605
-0.0891973
-0.0830842
-0.0774748
-0.0723617
-0.0675143
-0.062867
-0.0585431
-0.0547337
-0.0515973
-0.0492208
-0.0476153
-0.0467122
-0.046392
-0.0464186
-0.0465168
-0.0463696
-0.0456608
-0.0441249
-0.0415894
-0.0380091
-0.0334435
-0.0280635
-0.0220772
-0.0157454
-0.00927398
-0.00291693
0.00318986
0.00884286
0.013973
0.0183892
0.0218269
0.0242362
0.0259295
0.0278189
0.0283817
0.0263137
0.0183512
0.00228566
-0.0195572
-0.0355271
-0.0388219
-0.0330587
-0.0230096
-0.0140411
-0.00534164
4.39826e-05
0.00630411
0.00999915
0.0115093
0.0128831
0.00485608
-0.0103987
-0.0374926
-0.0449228
-0.037833
-0.0305803
-0.0104112
-0.0864733
-0.0888116
-0.0868843
-0.0824574
-0.077522
-0.0729504
-0.0687727
-0.0647862
-0.0609047
-0.057203
-0.0538264
-0.0509048
-0.0485143
-0.0466717
-0.0453388
-0.0444046
-0.0437299
-0.0431102
-0.0423156
-0.0411132
-0.0392998
-0.0367313
-0.033353
-0.0291868
-0.0243441
-0.0189708
-0.013268
-0.00739911
-0.00157767
0.00406684
0.0093558
0.0142193
0.0184908
0.0219461
0.0246138
0.0266018
0.0289561
0.0304243
0.0294834
0.022817
0.00867976
-0.0102105
-0.0242206
-0.0280335
-0.0243674
-0.0167718
-0.00974844
-0.00255344
0.00217758
0.00791576
0.0115812
0.0126562
0.0138729
0.00716573
-0.00642523
-0.0314443
-0.0395963
-0.0334074
-0.0265648
-0.00922816
-0.0777681
-0.0802705
-0.0791201
-0.075722
-0.0717831
-0.0680967
-0.0647181
-0.0614705
-0.0582564
-0.0551149
-0.052154
-0.0494788
-0.0471546
-0.0452015
-0.0435948
-0.0422656
-0.0411089
-0.039984
-0.038727
-0.0371678
-0.0351538
-0.032569
-0.0293595
-0.0255255
-0.0211369
-0.0162938
-0.0111484
-0.00582925
-0.000511641
0.00468725
0.00961201
0.0141899
0.0182855
0.0217026
0.0244059
0.0267228
0.0292723
0.0311567
0.0308687
0.0254471
0.0135714
-0.00207089
-0.0140882
-0.0183873
-0.0165734
-0.0111121
-0.00575681
8.16422e-05
0.0042178
0.00943254
0.013115
0.0139699
0.0149859
0.00970109
-0.00195332
-0.024424
-0.0332859
-0.0286313
-0.0223946
-0.00791267
-0.0696048
-0.0722016
-0.0716446
-0.069076
-0.0659646
-0.0630235
-0.0603209
-0.0577023
-0.0550655
-0.0524234
-0.0498552
-0.0474446
-0.0452472
-0.0432824
-0.0415397
-0.0399734
-0.0385105
-0.0370539
-0.0354883
-0.0336921
-0.0315527
-0.0289801
-0.0259257
-0.0223789
-0.0183822
-0.0140029
-0.00935442
-0.00453678
0.000307944
0.00507843
0.00964185
0.0139215
0.0178139
0.0211532
0.0239159
0.0263376
0.028855
0.0307534
0.0307383
0.0264644
0.0169403
0.00445109
-0.00565911
-0.0102267
-0.00985917
-0.00613667
-0.00214664
0.00252503
0.00613475
0.0108393
0.0145698
0.0154878
0.0163309
0.0124312
0.00277884
-0.0168881
-0.0263367
-0.0236797
-0.0182529
-0.00652732
-0.0620532
-0.0646163
-0.0644841
-0.0625793
-0.0601517
-0.0578329
-0.0556968
-0.0536088
-0.0514673
-0.0492669
-0.0470636
-0.0449242
-0.0428963
-0.0409941
-0.0392178
-0.0375387
-0.0359076
-0.0342583
-0.032511
-0.0305804
-0.0283855
-0.0258581
-0.0229578
-0.0196699
-0.0160196
-0.0120517
-0.0078495
-0.00349051
0.000911917
0.00527176
0.00947647
0.0134527
0.0171159
0.0203319
0.0230781
0.0254901
0.0278327
0.0295319
0.0295848
0.0262657
0.0188586
0.00913884
0.00082396
-0.00366626
-0.00427194
-0.00188041
0.0010325
0.00474464
0.00789576
0.0121054
0.0158807
0.0171359
0.0179284
0.0152518
0.00742059
-0.00946248
-0.0192681
-0.0187632
-0.0143171
-0.00514716
-0.0550317
-0.0574907
-0.0576663
-0.0562917
-0.0544242
-0.0526189
-0.0509519
-0.0493074
-0.0475872
-0.0457736
-0.0439043
-0.0420311
-0.0401918
-0.0384097
-0.0366777
-0.0349812
-0.0332886
-0.0315558
-0.0297289
-0.0277496
-0.0255604
-0.0231118
-0.020372
-0.0173266
-0.0139902
-0.0103925
-0.00659484
-0.00265648
0.00133263
0.00530042
0.0091526
0.0128227
0.0162323
0.019282
0.0219375
0.0242547
0.026352
0.0277832
0.0278188
0.0252474
0.0195963
0.01217
0.00550727
0.00139377
0.000245251
0.00167418
0.00376308
0.00671198
0.00947037
0.0131999
0.016959
0.0187104
0.0196216
0.0179284
0.0115505
-0.00278538
-0.0126356
-0.0140961
-0.0107344
-0.00384781
-0.0485021
-0.0508329
-0.0512259
-0.0502658
-0.048849
-0.047462
-0.0461796
-0.0449023
-0.0435373
-0.0420592
-0.0404925
-0.038877
-0.0372435
-0.0356084
-0.0339728
-0.0323279
-0.0306535
-0.0289208
-0.0270942
-0.0251347
-0.0230032
-0.0206646
-0.0180954
-0.0152835
-0.0122379
-0.00897843
-0.00555066
-0.00199958
0.00160321
0.00519917
0.00870763
0.0120693
0.0152126
0.0180606
0.0205643
0.0227265
0.0245655
0.0257435
0.0257491
0.0237702
0.0195268
0.013941
0.00871717
0.0051594
0.00380063
0.00457338
0.00605417
0.00840317
0.0108259
0.0141008
0.0177296
0.0199451
0.0210551
0.0200563
0.0147447
0.00268927
-0.00683416
-0.00985184
-0.00760444
-0.00269273
-0.042475
-0.0446468
-0.0451774
-0.0445351
-0.0434778
-0.0424286
-0.0414587
-0.0404826
-0.0394147
-0.0382248
-0.0369274
-0.0355531
-0.0341262
-0.032659
-0.0311548
-0.0296095
-0.0280106
-0.0263396
-0.0245735
-0.0226873
-0.020655
-0.0184532
-0.0160652
-0.0134824
-0.0107108
-0.00776447
-0.00467766
-0.00148454
0.00175729
0.00500095
0.00817673
0.0112334
0.0141043
0.0167264
0.0190392
0.0210174
0.022618
0.0235947
0.0235948
0.0221026
0.0189647
0.014825
0.0108115
0.00787194
0.00652471
0.00687594
0.00792649
0.00980204
0.0119318
0.0147805
0.018144
0.0206309
0.0218469
0.02122
0.0167097
0.00676849
-0.00205405
-0.00614875
-0.00497457
-0.00172464
-0.0369234
-0.0389142
-0.0395232
-0.039123
-0.0383509
-0.0375724
-0.036854
-0.0361227
-0.0353008
-0.0343563
-0.0332961
-0.0321426
-0.0309152
-0.0296244
-0.0282726
-0.026858
-0.0253733
-0.0238073
-0.0221453
-0.0203719
-0.0184706
-0.0164266
-0.0142292
-0.0118727
-0.00936252
-0.00670882
-0.00393838
-0.00107747
0.00182714
0.00473792
0.00759466
0.0103544
0.0129524
0.0153386
0.0174462
0.019233
0.0206298
0.0214631
0.0214913
0.0204053
0.0181285
0.0151089
0.0120945
0.00975524
0.00854726
0.00864713
0.0094052
0.0109027
0.012763
0.0152122
0.0181839
0.0206781
0.0217992
0.021303
0.0174462
0.00947972
0.00163331
-0.00305794
-0.00284453
-0.000957554
-0.0318138
-0.0336193
-0.034265
-0.0340464
-0.0334982
-0.0329347
-0.0324167
-0.0318826
-0.0312626
-0.0305248
-0.0296704
-0.0287158
-0.0276773
-0.0265625
-0.0253721
-0.0241055
-0.022759
-0.021326
-0.0197974
-0.0181641
-0.0164161
-0.014545
-0.0125445
-0.0104119
-0.00815226
-0.00577395
-0.00329859
-0.000746623
0.00184329
0.00444128
0.00699489
0.00946839
0.0118018
0.0139532
0.0158544
0.0174583
0.0186895
0.0194286
0.0195122
0.0187661
0.017161
0.0150013
0.0127917
0.0109903
0.00998573
0.00995397
0.0105181
0.0117124
0.0133098
0.015385
0.0178797
0.0201591
0.0210448
0.0205411
0.017231
0.0109947
0.00425127
-0.000598608
-0.00117652
-0.000377976
-0.0271264
-0.0287476
-0.0293984
-0.0293131
-0.0289392
-0.0285451
-0.0281856
-0.0278088
-0.0273531
-0.0267879
-0.0261109
-0.0253334
-0.024468
-0.023522
-0.0224938
-0.0213825
-0.0201865
-0.0189025
-0.0175248
-0.0160482
-0.0144674
-0.0127781
-0.0109774
-0.00906487
-0.00704582
-0.00492747
-0.00272782
-0.000463185
0.00183383
0.0041393
0.00640788
0.00860979
0.0106907
0.0126153
0.0143179
0.0157569
0.0168567
0.0175392
0.017693
0.0172293
0.0161453
0.0146432
0.0130711
0.0117289
0.0109458
0.0108621
0.011298
0.0122477
0.0135849
0.015307
0.0173012
0.0192501
0.0198319
0.0192798
0.0164263
0.0115744
0.0059299
0.00126374
8.99904e-05
4.43078e-05
-0.0228375
-0.0242793
-0.0249132
-0.0249242
-0.0246851
-0.0244236
-0.0241885
-0.0239364
-0.0236135
-0.0231913
-0.0226654
-0.0220428
-0.0213329
-0.0205453
-0.0196738
-0.0187171
-0.0176749
-0.0165461
-0.0153272
-0.0140155
-0.0126083
-0.011104
-0.00950236
-0.00780427
-0.00601539
-0.00414219
-0.00220015
-0.000202724
0.00182298
0.00385695
0.00586004
0.00780788
0.00965186
0.0113634
0.0128855
0.0141742
0.015169
0.0158189
0.0160475
0.0158142
0.0151288
0.0141265
0.0130613
0.0120935
0.011519
0.0114327
0.0117817
0.0125335
0.0136183
0.0150072
0.0165089
0.0178448
0.018365
0.0177935
0.0153281
0.0115107
0.00686785
0.00259461
0.00101993
0.000344231
-0.0189221
-0.0201941
-0.0207969
-0.0208761
-0.0207404
-0.0205821
-0.0204439
-0.0202899
-0.0200737
-0.0197694
-0.019372
-0.0188858
-0.0183182
-0.0176691
-0.0169426
-0.0161342
-0.0152426
-0.0142678
-0.0132082
-0.0120623
-0.0108289
-0.00950805
-0.00810086
-0.00660937
-0.00503925
-0.00339655
-0.00169455
5.54042e-05
0.00183034
0.00361372
0.00537258
0.00708584
0.00871058
0.0102238
0.0115764
0.0127351
0.0136468
0.0142774
0.0145748
0.0145233
0.0141404
0.013514
0.012835
0.0121698
0.011782
0.0117217
0.0120087
0.0125994
0.0134509
0.0145366
0.0156319
0.0166098
0.0168521
0.0162585
0.0141269
0.0110577
0.0072697
0.00347932
0.00167212
0.000551392
-0.0153581
-0.0164721
-0.017035
-0.0171608
-0.0171039
-0.0170253
-0.0169621
-0.0168845
-0.016753
-0.0165445
-0.0162535
-0.0158823
-0.0154346
-0.0149141
-0.014322
-0.0136533
-0.0129054
-0.0120788
-0.0111735
-0.0101889
-0.00912457
-0.00798115
-0.00676064
-0.00546566
-0.00410166
-0.00267424
-0.00119492
0.000326623
0.00187117
0.00342471
0.0049595
0.00645813
0.00788371
0.00921574
0.0104131
0.011456
0.0122977
0.0129132
0.0132673
0.0133558
0.013198
0.0128432
0.01241
0.0120259
0.0118013
0.0117801
0.0120197
0.0124788
0.0131256
0.0139443
0.0147053
0.0153632
0.0153803
0.0147696
0.0129285
0.0103979
0.00730784
0.00401077
0.00209889
0.000687162
-0.0121233
-0.0130924
-0.0136109
-0.0137674
-0.0137702
-0.0137529
-0.0137471
-0.0137285
-0.013664
-0.0135332
-0.0133304
-0.0130571
-0.0127152
-0.0123073
-0.0118333
-0.0112915
-0.0106772
-0.00998983
-0.00923004
-0.00839817
-0.00749419
-0.00651895
-0.00547461
-0.00436401
-0.0031922
-0.00196438
-0.000690278
0.0006217
0.00195539
0.00329931
0.00462995
0.00593285
0.00717828
0.00834807
0.00940676
0.0103445
0.0111193
0.0117187
0.0121143
0.0123066
0.0123137
0.0121643
0.0119508
0.0117417
0.0116377
0.0116546
0.0118554
0.012207
0.0126803
0.0132698
0.0137584
0.0141523
0.014
0.013375
0.0117867
0.00965212
0.00711092
0.00427324
0.00234619
0.000766856
-0.00919676
-0.0100348
-0.0105076
-0.0106833
-0.0107308
-0.0107603
-0.0107982
-0.010825
-0.0108129
-0.0107447
-0.0106148
-0.0104238
-0.010173
-0.00986186
-0.00949116
-0.00906202
-0.0085696
-0.0080106
-0.00738524
-0.00669469
-0.00593954
-0.00512062
-0.00423984
-0.00329989
-0.00230537
-0.00126084
-0.000174567
0.000946247
0.00208833
0.00324181
0.00438761
0.00551377
0.00659533
0.00761916
0.00855552
0.00939205
0.0101017
0.0106809
0.0111031
0.0113675
0.0114916
0.0114915
0.0114351
0.0113558
0.0113389
0.011387
0.0115545
0.0118182
0.0121475
0.0125463
0.0128231
0.013006
0.0127335
0.0120964
0.010724
0.00889303
0.00677112
0.00433733
0.00245318
0.000803636
-0.00655893
-0.00728001
-0.00770781
-0.00789429
-0.00797526
-0.00804015
-0.00811117
-0.00817246
-0.00820125
-0.00818304
-0.00811272
-0.00799007
-0.00781605
-0.00759021
-0.00731173
-0.00697939
-0.00659322
-0.0061493
-0.00564596
-0.00508395
-0.00446434
-0.00378807
-0.00305677
-0.00227268