/*--------------------------------*- C++ -*----------------------------------*\
| =========                 |                                                 |
| \\      /  F ield         | OpenFOAM: The Open Source CFD Toolbox           |
|  \\    /   O peration     | Version:  2512                                  |
|   \\  /    A nd           | Website:  www.openfoam.com                      |
|    \\/     M anipulation  |                                                 |
\*---------------------------------------------------------------------------*/
FoamFile
{
    version     2.0;
    format      ascii;
    arch        "LSB;label=32;scalar=64";
    class       surfaceScalarField;
    location    "89";
    object      phi;
}
// * * * * * * * * * * * * * * * * * * * * * * * * * * * * * * * * * * * * * //

dimensions      [0 3 -1 0 0 0 0];

oriented        oriented;

internalField   nonuniform List<scalar> 
26232
(
1.69208e-05
0.000836418
-0.000853339
0.000221578
0.00139692
-0.00160157
0.000779979
0.00104638
-0.00160478
0.00186326
-0.000133217
-0.000950067
0.00364438
-0.0021027
0.000321587
0.00629261
-0.00484404
0.00219581
0.00996454
-0.00834613
0.00467421
0.0147919
-0.0125891
0.00776166
0.020867
-0.0175305
0.0114554
0.0282281
-0.0230966
0.0157355
0.0368484
-0.0291793
0.020559
0.0466312
-0.03564
0.0258572
0.0574123
-0.0423196
0.0315385
0.0689711
-0.0490516
0.0374928
0.0810472
-0.0556762
0.0436001
0.0933616
-0.0620536
0.0497392
0.105639
-0.068074
0.0557969
0.117627
-0.0736647
0.0616761
0.129119
-0.0787903
0.0672989
0.139959
-0.0834615
0.0726213
0.150052
-0.0876958
0.077603
0.159364
-0.0916171
0.0823045
0.167886
-0.095147
0.0866254
-0.0987459
0.0912195
0.175412
9.26347e-05
0.000743783
0.000535526
0.000954026
0.00150972
7.21874e-05
0.00320141
-0.00182491
0.00579473
-0.00469602
0.00945999
-0.0085093
0.0143361
-0.0132222
0.0205102
-0.0187632
0.0279988
-0.0250191
0.0367339
-0.0318317
0.0465603
-0.0390056
0.0572445
-0.0463242
0.0684954
-0.0535705
0.0799923
-0.0605484
0.0914164
-0.0671004
0.102482
-0.0731187
0.112959
-0.0785512
0.122693
-0.083399
0.131612
-0.0877095
0.139718
-0.0915674
0.147091
-0.0950691
0.153834
-0.0983602
0.160119
-0.101431
-0.104723
0.166096
0.000172491
0.000571293
0.000873835
0.000252682
0.00230349
-0.00135747
0.00465962
-0.00418105
0.00812641
-0.0081628
0.012852
-0.0132349
0.0189216
-0.0192918
0.026332
-0.0261736
0.0349754
-0.0336625
0.044639
-0.0414953
0.0550229
-0.0493895
0.0657728
-0.0570741
0.076522
-0.0643197
0.0869338
-0.0709602
0.0967375
-0.076904
0.105753
-0.0821343
0.113901
-0.0866992
0.121198
-0.090696
0.127739
-0.0942508
0.133672
-0.0975005
0.139172
-0.100569
0.144394
-0.103582
0.149513
-0.10655
-0.109785
0.154575
0.000261726
0.000309567
0.0012489
-0.000734495
0.00317636
-0.00328493
0.00624379
-0.00724847
0.0106128
-0.0125318
0.0163732
-0.0189953
0.0235099
-0.0264285
0.0318822
-0.0345459
0.0412258
-0.043006
0.0511804
-0.05145
0.0613378
-0.0595469
0.071298
-0.0670343
0.0807219
-0.0737436
0.08937
-0.0796083
0.0971209
-0.084655
0.103969
-0.0889827
0.110006
-0.0927355
0.115384
-0.096074
0.120285
-0.0991524
0.124887
-0.102102
0.129339
-0.105021
0.133746
-0.107989
0.138199
-0.111003
-0.11427
0.142684
0.000365161
-5.55938e-05
0.0016701
-0.00203943
0.00413353
-0.00574836
0.00793543
-0.0110504
0.01318
-0.0177763
0.0198528
-0.0256682
0.027793
-0.0343687
0.0366946
-0.0434475
0.0461443
-0.0524558
0.0556856
-0.0609913
0.0648908
-0.0687521
0.0734231
-0.0755667
0.0810755
-0.0813959
0.0877792
-0.086312
0.0935877
-0.0904635
0.0986409
-0.0940358
0.103122
-0.0972166
0.107219
-0.100171
0.111095
-0.103028
0.114873
-0.105881
0.11864
-0.108788
0.122438
-0.111787
0.126308
-0.114874
-0.118178
0.130217
0.000485157
-0.000540751
0.00213765
-0.00369193
0.00515847
-0.00876917
0.00967524
-0.0155671
0.0156907
-0.0237918
0.0230418
-0.0330193
0.0313959
-0.0427228
0.0402951
-0.0523466
0.0492363
-0.061397
0.057762
-0.069517
0.0655321
-0.0765222
0.0723619
-0.0823965
0.0782214
-0.0872553
0.0832039
-0.0912946
0.0874786
-0.0947383
0.0912412
-0.0977984
0.0946747
-0.10065
0.0979274
-0.103424
0.101105
-0.106206
0.104276
-0.109052
0.10748
-0.111991
0.110735
-0.115041
0.11406
-0.1182
-0.121535
0.117416
0.000620526
-0.00116128
0.00263899
-0.00571039
0.0062076
-0.0123378
0.0113604
-0.02072
0.0179549
-0.0303862
0.0256524
-0.0407169
0.0339615
-0.0510319
0.0423329
-0.0607179
0.0502694
-0.0693335
0.0574129
-0.0766606
0.063584
-0.0826933
0.0687728
-0.0875853
0.0730959
-0.0915784
0.0767384
-0.0949371
0.0799005
-0.0979004
0.08276
-0.100658
0.0854546
-0.103345
0.0880789
-0.106048
0.0906924
-0.10882
0.093329
-0.111688
0.096006
-0.114668
0.09873
-0.117765
0.101508
-0.120977
-0.124334
0.104307
0.000766262
-0.00192754
0.00314918
-0.0080933
0.00721415
-0.0164028
0.0128591
-0.0263649
0.0197658
-0.037293
0.0274269
-0.0483779
0.0352473
-0.0588524
0.0426775
-0.0681481
0.0493199
-0.0759759
0.0549772
-0.0823179
0.05964
-0.0873561
0.0634337
-0.0913789
0.0665515
-0.0946962
0.0691967
-0.0975824
0.0715453
-0.100249
0.0737292
-0.102842
0.0758377
-0.105453
0.0779253
-0.108135
0.0800228
-0.110917
0.0821462
-0.113812
0.0843024
-0.116825
0.0864931
-0.119956
0.0887198
-0.123204
-0.126573
0.0909586
0.0009144
-0.00284194
0.00363437
-0.0108133
0.00809877
-0.0208672
0.0140354
-0.0323016
0.0209467
-0.0442043
0.0282005
-0.0556316
0.0351815
-0.0658334
0.0414274
-0.074394
0.0466958
-0.0812443
0.0509555
-0.0865776
0.0543267
-0.0907274
0.0570058
-0.0940579
0.0591999
-0.0968904
0.0610869
-0.0994694
0.0627988
-0.101961
0.0644232
-0.104466
0.0660126
-0.107043
0.0675965
-0.109719
0.0691902
-0.112511
0.0708011
-0.115423
0.0724319
-0.118455
0.0740827
-0.121607
0.0757522
-0.124873
-0.128246
0.0774255
0.00105486
-0.0038968
0.00405666
-0.0138151
0.00878296
-0.0255935
0.0147762
-0.0382948
0.0213876
-0.0508156
0.0279312
-0.0621752
0.0338543
-0.0717565
0.0388375
-0.0793772
0.0428012
-0.085208
0.0458442
-0.0896206
0.0481595
-0.0930426
0.049959
-0.0958575
0.051427
-0.0983583
0.0527
-0.100742
0.0538679
-0.103129
0.0549843
-0.105583
0.0560787
-0.108137
0.0571665
-0.110807
0.0582556
-0.1136
0.0593496
-0.116517
0.0604494
-0.119555
0.0615544
-0.122712
0.0626618
-0.125981
-0.129348
0.0637638
0.00117713
-0.00507392
0.00438052
-0.0170185
0.00920301
-0.030416
0.0150112
-0.044103
0.02106
-0.0568644
0.0266875
-0.0678027
0.0314627
-0.0765318
0.0352244
-0.0831389
0.0380274
-0.088011
0.0400508
-0.091644
0.0415103
-0.0945021
0.0425997
-0.0969469
0.0434651
-0.0992237
0.0442031
-0.10148
0.0448707
-0.103796
0.0454993
-0.106211
0.046105
-0.108743
0.0466963
-0.111398
0.0472776
-0.114181
0.0478509
-0.11709
0.0484163
-0.120121
0.0489725
-0.123268
0.0495156
-0.126524
-0.129875
0.0500424
0.00127426
-0.00634818
0.00458079
-0.020325
0.00932094
-0.0351561
0.0147213
-0.0495034
0.0200103
-0.0621535
0.0246148
-0.0724072
0.0282515
-0.0801684
0.0308992
-0.0857866
0.0327048
-0.0898167
0.0338815
-0.0928208
0.0346346
-0.0952551
0.0351243
-0.0974365
0.0354582
-0.0995576
0.0357005
-0.101723
0.0358861
-0.103982
0.0360327
-0.106358
0.0361494
-0.108859
0.0362412
-0.11149
0.0363109
-0.114251
0.0363601
-0.117139
0.036389
-0.12015
0.0363963
-0.123275
0.036378
-0.126506
0.0363339
-0.129831
-0.000227954
-0.00203343
0.00226138
-0.000817707
-0.00491118
0.00550094
-0.00170964
-0.00693213
0.00782406
-0.00285259
-0.00826763
0.00941058
-0.00420179
-0.00908077
0.01043
-0.0057201
-0.00951996
0.0110383
-0.00737841
-0.00970698
0.0113653
-0.00915497
-0.00972959
0.0115061
-0.0110338
-0.00964013
0.0115189
-0.0130024
-0.00945885
0.0114275
-0.01505
-0.00918017
0.0112277
-0.0171649
-0.00877988
0.0108948
-0.0193334
-0.0082217
0.0103901
-0.0215375
-0.00746242
0.00966656
-0.0237545
-0.00645554
0.00867256
-0.0259566
-0.00515275
0.00735483
-0.0281081
-0.00350838
0.00565992
-0.0301674
-0.00147698
0.00353624
-0.0320557
0.000963365
0.000924911
-0.0337831
0.00384745
-0.00212001
-0.035275
0.00719682
-0.00570497
-0.0364927
0.0110143
-0.00979659
-0.0374243
0.015307
-0.0143754
0.0200844
-0.0381245
-0.0193841
-0.000286846
-0.00174658
-0.00100016
-0.00419787
-0.00204602
-0.00588627
-0.00335088
-0.00696277
-0.00485692
-0.00757473
-0.00652057
-0.00785632
-0.00831046
-0.00791708
-0.0102046
-0.00783542
-0.0121872
-0.00765754
-0.0142453
-0.00740077
-0.016366
-0.00705947
-0.0185342
-0.00661167
-0.0207307
-0.0060252
-0.0229308
-0.00526232
-0.0251036
-0.00428276
-0.0272104
-0.00304595
-0.0292104
-0.00150833
-0.0310298
0.000342401
-0.0326233
0.0025568
-0.0339301
0.00515428
-0.0348874
0.00815415
-0.0354403
0.0115672
-0.0355386
0.0154053
0.0197271
-0.0351813
-0.000326822
-0.00141976
-0.00111953
-0.00340516
-0.00225646
-0.00474934
-0.00364506
-0.00557417
-0.00521538
-0.00600441
-0.00691638
-0.00615531
-0.00871198
-0.00612149
-0.0105765
-0.00597088
-0.0124904
-0.00574366
-0.0144361
-0.00545511
-0.0163947
-0.00510082
-0.0183439
-0.00466249
-0.0202557
-0.00411334
-0.0220959
-0.0034222
-0.0238219
-0.0025567
-0.025383
-0.00148489
-0.0267133
-0.000178019
-0.027756
0.00138513
-0.0284297
0.00323043
-0.0286501
0.00537474
-0.028332
0.00783603
-0.0273986
0.0106338
-0.0257768
0.0137835
0.0173178
-0.0233674
-0.000348217
-0.00107154
-0.00117852
-0.00257487
-0.00234891
-0.00357895
-0.00375177
-0.00417131
-0.00530634
-0.00444984
-0.00695357
-0.00450808
-0.00865069
-0.00442436
-0.0103658
-0.00425581
-0.0120725
-0.00403696
-0.0137457
-0.0037819
-0.0153581
-0.00348844
-0.0168776
-0.00314299
-0.0182659
-0.00272505
-0.0194772
-0.00221084
-0.0204579
-0.00157603
-0.0211451
-0.000797717
-0.0214667
0.000143612
-0.0213454
0.00126381
-0.0206898
0.00257492
-0.0194
0.0040849
-0.0173654
0.00580141
-0.0144713
0.00773964
-0.0106281
0.00994027
0.0125801
-0.00589038
-0.000353211
-0.000718334
-0.00118443
-0.00174365
-0.00233873
-0.00242465
-0.00369763
-0.00281241
-0.00517136
-0.0029761
-0.00669291
-0.00298653
-0.00821185
-0.00290543
-0.00968833
-0.00277933
-0.0110876
-0.00263766
-0.0123756
-0.00249392
-0.0135153
-0.00234878
-0.0144644
-0.00219384
-0.0151742
-0.00201524
-0.0155884
-0.00179664
-0.0156429
-0.00152153
-0.0152656
-0.00117506
-0.0143765
-0.000745453
-0.0128875
-0.000225241
-0.0107006
0.000388026
-0.0077064
0.00109074
-0.00378041
0.00187543
0.00121834
0.00274088
0.00744912
0.0037095
0.00487591
0.0151533
-0.000344255
-0.000374078
-0.00114488
-0.000943021
-0.00224062
-0.00132891
-0.00350612
-0.00154692
-0.00484452
-0.00163769
-0.00618129
-0.00164977
-0.00745785
-0.00162886
-0.00862558
-0.0016116
-0.00964029
-0.00162295
-0.0104579
-0.00167632
-0.0110312
-0.0017755
-0.0113076
-0.00191739
-0.0112283
-0.00209459
-0.0107271
-0.00229775
-0.00973134
-0.00251734
-0.00816114
-0.00274526
-0.00593046
-0.00297613
-0.00294718
-0.00320852
0.000887222
-0.00344638
0.00567858
-0.00370062
0.0115447
-0.00399069
0.018628
-0.00434242
0.0270656
-0.00472814
-0.00541988
0.0373614
-0.000323015
-5.10637e-05
-0.00106451
-0.000201522
-0.00206221
-0.000331209
-0.00318708
-0.000422055
-0.00433653
-0.000488238
-0.00542851
-0.000557789
-0.00639531
-0.000662063
-0.00717816
-0.000828753
-0.00772146
-0.00107965
-0.00796909
-0.00142868
-0.00786156
-0.00188304
-0.00733414
-0.0024448
-0.00631613
-0.0031126
-0.00473075
-0.00388313
-0.00249561
-0.00475247
0.00047639
-0.00571727
0.00427615
-0.00677588
0.00899727
-0.00792964
0.0147352
-0.00918431
0.0215861
-0.0105515
0.029642
-0.0120466
0.0390378
-0.0137382
0.0497375
-0.0154279
-0.0182138
0.0625315
-0.000290051
0.000238987
-0.000944
0.000452427
-0.00180229
0.000527078
-0.00273393
0.000509589
-0.00363071
0.000408536
-0.00440181
0.000213312
-0.00496713
-9.67431e-05
-0.00525587
-0.00054001
-0.00519637
-0.00113915
-0.00471638
-0.00190868
-0.00373993
-0.00285948
-0.00218638
-0.00399836
2.95621e-05
-0.00532854
0.00299684
-0.00685041
0.00680654
-0.00856217
0.01155
-0.0104607
0.0173165
-0.0125424
0.0241915
-0.0148046
0.0322537
-0.0172465
0.0415756
-0.0198735
0.0522002
-0.0226712
0.0642438
-0.0257818
0.0774675
-0.0286515
-0.0334306
0.0926843
-0.000245387
0.000484374
-0.000781909
0.000988949
-0.00145454
0.00119971
-0.0021303
0.00118534
-0.00269364
0.000971879
-0.00304208
0.000561752
-0.00308028
-5.85437e-05
-0.002719
-0.000901288
-0.00186677
-0.00199138
-0.000431233
-0.00334422
0.00168264
-0.00497336
0.00457164
-0.00688736
0.00833232
-0.00908922
0.0130581
-0.0115762
0.018836
-0.01434
0.0257428
-0.0173676
0.0338425
-0.0206421
0.0431827
-0.0241449
0.0537922
-0.027856
0.0656825
-0.0317638
0.0788238
-0.0358125
0.0932355
-0.0401935
0.108654
-0.0440701
-0.0502413
0.125465
-0.000189686
0.00067406
-0.000578292
0.00137756
-0.00101502
0.00163644
-0.00136314
0.00153346
-0.00149694
0.00110568
-0.00129834
0.000363146
-0.0006556
-0.00070128
0.000546321
-0.00210321
0.00241749
-0.00386255
0.00506908
-0.0059958
0.00860909
-0.00851337
0.0131386
-0.0114169
0.018747
-0.0146976
0.0255064
-0.0183356
0.0334672
-0.0223009
0.0426542
-0.0265545
0.0530637
-0.0310516
0.0646632
-0.0357444
0.0773916
-0.0405843
0.0911591
-0.0455313
0.105856
-0.0505095
0.121322
-0.0556594
0.137468
-0.0602163
-0.0666835
0.15391
-0.000125016
0.000799075
-0.000337334
0.00158987
-0.00048791
0.00178702
-0.000433504
0.00147905
-3.54443e-05
0.000707623
0.000841751
-0.000514049
0.00233143
-0.00219096
0.0045653
-0.00433707
0.00766942
-0.00696668
0.0117605
-0.0100869
0.0169392
-0.0136921
0.0232825
-0.0177603
0.0308369
-0.0222519
0.0396121
-0.0271108
0.0495779
-0.0322667
0.0606638
-0.0376404
0.0727611
-0.0431489
0.0857282
-0.0487115
0.099397
-0.0542532
0.113581
-0.0597154
0.128103
-0.0650309
0.142698
-0.070255
0.157458
-0.074976
-0.0806301
0.171405
-5.42634e-05
-6.59631e-05
0.000116275
0.000645261
0.00167447
0.00335623
0.00583948
0.00926407
0.0137528
0.0194014
0.0262683
0.0343653
0.0436519
0.0540339
0.0653673
0.0774661
0.0901141
0.103079
0.116124
0.12903
0.141602
0.153652
0.165301
0.175891
-0.0369072
0.0332528
-0.0344702
-0.035136
0.0433493
-0.0451204
-0.0327085
0.054022
-0.0564495
-0.0295309
0.0647851
-0.0679628
-0.0254884
0.0750418
-0.0790843
-0.0203562
0.0839629
-0.089095
-0.0138945
0.0906692
-0.0971308
-0.00585956
0.0941208
-0.102156
0.0039258
0.0932062
-0.102992
0.0153819
0.0869292
-0.0983853
0.028101
0.0745789
-0.087298
0.041558
0.055974
-0.069431
0.0550895
0.0312947
-0.0448262
0.0682252
0.00127658
-0.0144122
0.0808685
-0.0331048
0.0204614
0.0927743
-0.0699433
0.0580375
0.103461
-0.10506
0.0943736
0.1121
-0.133554
0.124915
0.117967
-0.152385
0.146518
0.120971
-0.161702
0.158698
0.121395
-0.16367
0.163247
0.118946
-0.161912
0.164361
0.113063
-0.161777
0.16766
0.104823
-0.166343
0.174583
0.0978102
-0.169694
0.176707
0.0960446
-0.157052
0.158818
0.100925
-0.116368
0.111488
0.110958
-0.0500821
0.0400491
0.123148
0.0262033
-0.0383936
0.134598
0.0951399
-0.10659
0.143287
0.146212
-0.154901
0.148857
0.177136
-0.182706
0.15152
0.191513
-0.194177
0.150482
0.19939
-0.198351
0.144998
0.213669
-0.208185
0.136853
0.230622
-0.222477
0.130299
0.227533
-0.220978
0.128694
0.176669
-0.175065
0.132411
0.0824773
-0.0861942
0.139185
-0.0290003
0.0222259
0.146594
-0.121774
0.114366
0.152543
-0.182165
0.176216
0.154585
-0.213413
0.211371
0.150816
-0.230439
0.234208
0.142464
-0.25027
0.258623
0.134225
-0.24127
0.249509
0.131386
-0.200257
0.203095
0.135081
-0.0881848
0.0844901
0.142781
0.0195347
-0.0272349
0.148675
0.129178
-0.135072
0.148661
0.207527
-0.207512
0.143416
0.259324
-0.254079
0.138172
0.309545
-0.304301
0.137504
0.221249
-0.22058
0.141291
0.166339
-0.170126
0.143982
-0.0157416
0.0130503
0.14307
-0.131904
0.132817
0.140423
-0.220575
0.223221
0.138351
-0.380817
0.382889
-0.165409
0.167259
-0.0328442
0.0309157
-0.0297001
0.0402052
-0.0255952
0.0499171
-0.020406
0.0595959
-0.0141356
0.0687713
-0.00653123
0.0763585
0.00245292
0.081685
0.0128185
0.0837552
0.0244492
0.0815755
0.0370564
0.074322
0.0501409
0.0614944
0.0631305
0.0429844
0.0754837
0.0189415
0.0869096
-0.0101493
0.0974419
-0.043637
0.106896
-0.079397
0.114826
-0.11299
0.120573
-0.139301
0.123646
-0.155459
0.124128
-0.162184
0.122601
-0.162143
0.119092
-0.158403
0.112695
-0.15538
0.103487
-0.157135
0.0944618
-0.16067
0.0903392
-0.152929
0.0938012
-0.11983
0.103793
-0.0600739
0.117106
0.0128901
0.130226
0.08202
0.140856
0.135582
0.148358
0.169634
0.152539
0.187332
0.152521
0.199408
0.147941
0.218249
0.140862
0.237701
0.135183
0.233212
0.133713
0.178139
0.136751
0.0794389
0.142242
-0.0344914
0.148068
-0.1276
0.1526
-0.186697
0.153824
-0.214636
0.149702
-0.226318
0.141124
-0.241692
0.132643
-0.232788
0.129891
-0.197505
0.134094
-0.0923878
0.142386
0.011243
0.148697
0.122866
0.148855
0.207369
0.143789
0.26439
0.138456
0.314879
0.137717
0.221988
0.141692
0.162363
0.144608
-0.0186573
0.143823
-0.131119
0.141051
-0.217803
0.13895
-0.378716
-0.163582
-0.0199228
0.0274711
-0.0156131
0.0358955
-0.0101569
0.0444609
-0.0034924
0.0529314
0.00468489
0.060594
0.0139995
0.0670439
0.0244329
0.0712515
0.0358887
0.0722995
0.0481099
0.0693543
0.0606875
0.0617444
0.073118
0.0490639
0.0848911
0.0312113
0.0955836
0.00824894
0.105061
-0.0196263
0.113345
-0.0519219
0.120285
-0.0863362
0.125425
-0.118131
0.128281
-0.142157
0.12868
-0.155858
0.126899
-0.160403
0.123655
-0.1589
0.119283
-0.15403
0.112816
-0.148913
0.103373
-0.147692
0.0929246
-0.150221
0.0864016
-0.146406
0.0878874
-0.121316
0.0972322
-0.0694187
0.111182
-0.00106022
0.125697
0.0675056
0.138193
0.123087
0.147624
0.160203
0.153378
0.181578
0.154576
0.19821
0.151181
0.221644
0.145336
0.243546
0.140465
0.238083
0.138953
0.179651
0.141109
0.0772834
0.145258
-0.0386407
0.149478
-0.131819
0.152579
-0.189799
0.153036
-0.215093
0.148716
-0.221998
0.140082
-0.233058
0.131443
-0.224149
0.128709
-0.194772
0.133279
-0.0969577
0.142047
0.00247558
0.148778
0.116135
0.14917
0.206978
0.144333
0.269226
0.138913
0.320298
0.138056
0.222845
0.142212
0.158206
0.145377
-0.0218223
0.144719
-0.13046
0.141798
-0.214882
0.13966
-0.376578
-0.161797
-0.00156211
0.0231428
0.00411032
0.030223
0.0108834
0.0376879
0.0187849
0.0450299
0.0277021
0.0516768
0.0376964
0.0570496
0.0486103
0.0603377
0.06019
0.0607198
0.0720875
0.0574568
0.0838713
0.0499605
0.0950758
0.0378594
0.105275
0.0210117
0.114237
-0.000712486
0.121806
-0.0271956
0.128
-0.0581161
0.132576
-0.0909114
0.135046
-0.120601
0.135113
-0.142224
0.132986
-0.153731
0.129211
-0.156627
0.1245
-0.154189
0.119378
-0.148908
0.113122
-0.142657
0.10419
-0.13876
0.0931791
-0.139211
0.084515
-0.137742
0.0834789
-0.12028
0.0914199
-0.0773597
0.105384
-0.015024
0.121002
0.051887
0.135245
0.108844
0.146565
0.148882
0.153949
0.174195
0.156559
0.1956
0.154608
0.223595
0.15012
0.248035
0.145997
0.242206
0.144267
0.181381
0.145397
0.0761531
0.148164
-0.0414083
0.150807
-0.134462
0.152479
-0.191471
0.152192
-0.214807
0.147793
-0.217599
0.139264
-0.224529
0.13056
-0.215445
0.12778
-0.191992
0.132576
-0.101754
0.141726
-0.00667433
0.148894
0.108966
0.149598
0.206274
0.145063
0.273762
0.139573
0.325788
0.138548
0.22387
0.142854
0.153901
0.146281
-0.0252498
0.145751
-0.12993
0.142663
-0.211794
0.140474
-0.37439
-0.16007
0.0205653
0.0177308
0.026625
0.0241633
0.0337181
0.0305948
0.0419139
0.0368341
0.0511099
0.0424809
0.0611807
0.0469788
0.0719184
0.0496
0.0830262
0.0496121
0.0941248
0.0463582
0.104797
0.0392884
0.11466
0.0279968
0.123342
0.0123289
0.130795
-0.00816521
0.136774
-0.033174
0.141136
-0.0624783
0.143466
-0.0932413
0.143326
-0.120461
0.140729
-0.139628
0.136309
-0.14931
0.130875
-0.151193
0.125055
-0.14837
0.119337
-0.143191
0.113369
-0.136689
0.10546
-0.13085
0.0948539
-0.128605
0.0847194
-0.127608
0.0809128
-0.116473
0.0866362
-0.0830832
0.0998707
-0.0282585
0.116176
0.0355821
0.13194
0.0930798
0.145044
0.135778
0.154099
0.16514
0.158314
0.191384
0.158033
0.223876
0.155015
0.251053
0.151604
0.245616
0.149495
0.183491
0.149529
0.0761191
0.150888
-0.0427673
0.152014
-0.135587
0.152275
-0.191732
0.151263
-0.213795
0.146883
-0.213218
0.138601
-0.216247
0.129917
-0.206762
0.127033
-0.189107
0.131928
-0.106649
0.141375
-0.0161209
0.149012
0.10133
0.150126
0.205159
0.145983
0.277905
0.140457
0.331314
0.139213
0.225114
0.143616
0.149498
0.147307
-0.028941
0.146911
-0.129533
0.143641
-0.208525
0.141385
-0.372134
-0.158419
0.0427075
0.0123848
0.0487348
0.018136
0.0557019
0.0236277
0.0637182
0.0288178
0.0726513
0.0335478
0.0823093
0.0373207
0.0924539
0.0394554
0.102775
0.0392909
0.112898
0.0362347
0.12244
0.0297465
0.131095
0.0193426
0.138592
0.00483156
0.144828
-0.014401
0.149509
-0.037855
0.152239
-0.065209
0.152449
-0.0934514
0.149857
-0.117868
0.144874
-0.134646
0.138504
-0.14294
0.131759
-0.144448
0.125192
-0.141802
0.119081
-0.13708
0.113354
-0.130962
0.106665
-0.124161
0.097335
-0.119275
0.0867636
-0.117036
0.0804036
-0.110113
0.0832276
-0.0859071
0.0948557
-0.0398866
0.111268
0.0191701
0.128191
0.076156
0.142891
0.121078
0.153622
0.154409
0.159603
0.185404
0.161186
0.222293
0.159774
0.252464
0.157071
0.24832
0.154546
0.186015
0.153371
0.0772934
0.153351
-0.042747
0.153047
-0.135284
0.15194
-0.190625
0.150208
-0.212062
0.145922
-0.208932
0.138011
-0.208336
0.129425
-0.198176
0.126384
-0.186066
0.131264
-0.111529
0.140937
-0.025794
0.149084
0.0931823
0.150726
0.203517
0.147087
0.281543
0.141574
0.336827
0.140065
0.226623
0.144499
0.145064
0.148443
-0.0328851
0.148188
-0.129278
0.144726
-0.205063
0.142383
-0.36979
-0.156857
0.0665196
0.00839665
0.0713816
0.013274
0.0773194
0.01769
0.0843804
0.0217567
0.0923787
0.0255495
0.101094
0.0286052
0.110277
0.0302731
0.119605
0.0299627
0.128708
0.0271314
0.137217
0.0212375
0.14477
0.0117899
0.151517
-0.00191539
0.156624
-0.0195087
0.160037
-0.0412673
0.161095
-0.0662677
0.159209
-0.091565
0.154359
-0.113018
0.147356
-0.127643
0.139463
-0.135046
0.131773
-0.136759
0.124775
-0.134804
0.118507
-0.130812
0.112954
-0.125408
0.107354
-0.118562
0.099829
-0.11175
0.0900179
-0.107225
0.0819142
-0.10201
0.08147
-0.0854629
0.0906365
-0.0490531
0.106356
0.00345051
0.123929
0.058583
0.139949
0.105058
0.152303
0.142055
0.160165
0.177542
0.163789
0.21867
0.164115
0.252138
0.162191
0.250243
0.159244
0.188963
0.156846
0.0796914
0.155472
-0.0413733
0.153851
-0.133663
0.151442
-0.188216
0.148987
-0.209607
0.144848
-0.204794
0.137416
-0.200903
0.128991
-0.189752
0.125743
-0.182818
0.130504
-0.116291
0.140344
-0.0356341
0.149057
0.0844695
0.151356
0.201219
0.148353
0.284547
0.142921
0.342258
0.141111
0.228434
0.145498
0.140677
0.149671
-0.0370584
0.149568
-0.129175
0.145908
-0.201403
0.143457
-0.367339
-0.155403
0.0942627
0.00681824
0.0969895
0.0105472
0.100997
0.0136826
0.106222
0.0165318
0.112467
0.0193038
0.119555
0.0215175
0.127239
0.0225897
0.135185
0.022016
0.143025
0.0192921
0.150416
0.0138463
0.156898
0.0053076
0.162462
-0.00747935
0.166382
-0.0234286
0.168281
-0.0431659
0.167464
-0.0654507
0.163482
-0.0875839
0.15665
-0.106186
0.148085
-0.119077
0.139156
-0.126118
0.130894
-0.128497
0.123711
-0.127621
0.117495
-0.124595
0.112113
-0.120026
0.107294
-0.113743
0.101613
-0.106069
0.0935545
-0.0991666
0.0849922
-0.0934473
0.0815883
-0.082059
0.0874974
-0.0549622
0.101554
-0.0106062
0.119108
0.0410296
0.136088
0.0880774
0.149958
0.128186
0.159742
0.167757
0.165493
0.212919
0.16767
0.249961
0.16667
0.251243
0.163401
0.192232
0.159858
0.0832342
0.157171
-0.0386861
0.154353
-0.130845
0.150741
-0.184604
0.147556
-0.206421
0.143595
-0.200833
0.136741
-0.194049
0.128531
-0.181542
0.12502
-0.179307
0.129571
-0.120841
0.139526
-0.0455893
0.148865
0.0751306
0.151962
0.198122
0.149741
0.286768
0.144477
0.347521
0.142354
0.230557
0.146606
0.136426
0.150977
-0.0414289
0.151036
-0.129235
0.147174
-0.19754
0.144595
-0.364761
-0.154074
0.124825
0.00745763
0.12541
0.00996252
0.127243
0.0118494
0.130217
0.0135582
0.134223
0.0152978
0.139163
0.0165778
0.144807
0.0169448
0.150847
0.0159765
0.156928
0.0132107
0.162673
0.00810162
0.16775
0.000231071
0.171611
-0.0113406
0.173851
-0.0256684
0.173837
-0.0431518
0.17096
-0.0625739
0.165018
-0.0816421
0.156621
-0.0977888
0.147034
-0.10949
0.137567
-0.116651
0.12908
-0.12001
0.121888
-0.120429
0.115851
-0.118558
0.110708
-0.114883
0.106389
-0.109425
0.102194
-0.101874
0.0963652
-0.0933376
0.0887495
-0.0858316
0.083415
-0.0767244
0.0857818
-0.057329
0.0970708
-0.0218952
0.113751
0.0243491
0.131203
0.0706253
0.146399
0.11299
0.15811
0.156046
0.166114
0.204915
0.170268
0.245807
0.170258
0.251254
0.166842
0.195648
0.162276
0.0877998
0.158364
-0.0347741
0.154458
-0.126939
0.149772
-0.179918
0.145857
-0.202506
0.142079
-0.197056
0.135913
-0.187883
0.127977
-0.173606
0.124137
-0.175467
0.128389
-0.125093
0.138417
-0.0556179
0.14844
0.0651079
0.152482
0.194081
0.1512
0.288049
0.146209
0.352512
0.143782
0.232984
0.147815
0.132393
0.15234
-0.045954
0.152573
-0.129468
0.148509
-0.193476
0.145786
-0.362037
-0.152892
0.152144
0.00922362
0.151492
0.0106143
0.15178
0.0115618
0.152923
0.0124156
0.154977
0.0132435
0.15787
0.0136849
0.161398
0.0134169
0.165306
0.0120686
0.169305
0.0092114
0.172998
0.0044091
0.176276
-0.0030471
0.178001
-0.0130661
0.178134
-0.0258006
0.176005
-0.0410237
0.171152
-0.0577205
0.163628
-0.0741178
0.154223
-0.0883842
0.144166
-0.0994338
0.134582
-0.107066
0.126137
-0.111565
0.119058
-0.11335
0.113253
-0.112753
0.108434
-0.110064
0.104496
-0.105486
0.101304
-0.0986819
0.0975961
-0.0896302
0.0919764
-0.0802119
0.0862535
-0.0710015
0.0855551
-0.0566306
0.0933384
-0.0296785
0.108064
0.00962394
0.125285
0.0534037
0.141508
0.0967674
0.155038
0.142516
0.165231
0.194722
0.171414
0.239625
0.172615
0.250053
0.169304
0.198959
0.164018
0.0930864
0.158999
-0.0297558
0.154104
-0.122043
0.14849
-0.174304
0.143859
-0.197874
0.14024
-0.193438
0.134869
-0.182512
0.127289
-0.166027
0.12305
-0.171228
0.126902
-0.128946
0.136941
-0.0656561
0.147711
0.0543372
0.152838
0.188954
0.152657
0.288229
0.148068
0.357102
0.145374
0.235678
0.149109
0.128658
0.153743
-0.0505876
0.154158
-0.129883
0.1499
-0.189218
0.147018
-0.359156
-0.151885
0.169667
0.0109615
0.16878
0.0115015
0.168392
0.0119492
0.168602
0.0122061
0.169525
0.0123199
0.171058
0.0121519
0.173029
0.0114461
0.175247
0.00985034
0.177449
0.00700972
0.179179
0.00267909
0.180312
-0.00418023
0.180225
-0.0129784
0.17844
-0.0240161
0.174513
-0.0370963
0.168196
-0.0514043
0.159761
-0.0656826
0.150034
-0.0786568
0.140068
-0.0894678
0.130741
-0.0977397
0.122553
-0.103377
0.115666
-0.106463
0.110059
-0.107146
0.105532
-0.105536
0.101891
-0.101846
0.0992283
-0.0960188
0.0970446
-0.0874465
0.0937269
-0.0768943
0.0890596
-0.0663342
0.0865502
-0.0541212
0.0907178
-0.033846
0.102471
-0.00212972
0.118485
0.03739
0.135259
0.0799932
0.150575
0.1272
0.163164
0.182133
0.171549
0.23124
0.173894
0.247708
0.170804
0.202048
0.165151
0.0987399
0.159238
-0.0238434
0.153426
-0.116231
0.147036
-0.167914
0.141707
-0.192546
0.138148
-0.189878
0.133621
-0.177984
0.126487
-0.158893
0.121794
-0.166534
0.1251
-0.132252
0.135045
-0.075601
0.146596
0.0427863
0.152963
0.182586
0.154051
0.287142
0.14999
0.361162
0.147106
0.238562
0.150471
0.125293
0.15517
-0.0552862
0.155772
-0.130485
0.151328
-0.184774
0.148288
-0.356117
-0.151083
0.175135
0.0117168
0.174512
0.0121243
0.174237
0.012225
0.174294
0.0121491
0.174728
0.0118856
0.175527
0.0113531
0.176576
0.0103968
0.17769
0.00873651
0.178675
0.00602451
0.179444
0.00190999
0.179085
-0.00382136
0.177548
-0.0114408
0.174461
-0.0209295
0.169516
-0.0321511
0.162667
-0.0445556
0.15428
-0.0572955
0.145074
-0.0694507
0.135842
-0.0802359
0.127209
-0.089107
0.119546
-0.0957132
0.112988
-0.0999055
0.107565
-0.101723
0.103211
-0.101182
0.099737
-0.0983721
0.0972093
-0.0934911
0.0957229
-0.0859601
0.0941992
-0.0753706
0.0912868
-0.0634218
0.0883977
-0.0512321
0.089688
-0.0351364
0.0975766
-0.0100183
0.111336
0.0236307
0.127525
0.0638044
0.143775
0.11095
0.158441
0.167467
0.169183
0.220497
0.173157
0.243735
0.171022
0.204183
0.165672
0.10409
0.159062
-0.0172339
0.152431
-0.1096
0.145509
-0.160993
0.139574
-0.18661
0.135935
-0.18624
0.132215
-0.174265
0.125593
-0.15227
0.120439
-0.161381
0.123102
-0.134915
0.132822
-0.0853205
0.145077
0.0305312
0.152749
0.174915
0.155262
0.284629
0.15192
0.364504
0.148952
0.24153
0.151891
0.122354
0.156602
-0.059998
0.157386
-0.131269
0.152792
-0.180179
0.149595
-0.35292
-0.1505
0.19306
0.0125273
-0.193871
0.192811
0.0123742
0.192762
0.0122738
0.192956
0.0119554
0.19348
0.0113612
0.194386
0.0104467
0.195709
0.00907417
0.197442
0.00700394
0.199466
0.00400052
0.201559
-0.000183607
0.203545
-0.00580762
0.205075
-0.0129699
0.205775
-0.0216301
0.205244
-0.0316203
0.203203
-0.0425139
0.199592
-0.0536855
0.194581
-0.0644396
0.188463
-0.0741179
0.181564
-0.0822079
0.174199
-0.0883481
0.166636
-0.0923429
0.159092
-0.0941788
0.151747
-0.0938369
0.144632
-0.0912571
0.137755
-0.086614
0.131393
-0.0795977
0.125366
-0.0693436
0.118454
-0.0565098
0.110277
-0.0430552
0.103287
-0.0281464
0.101028
-0.00775963
0.103963
0.020696
0.11026
0.0575076
0.117293
0.103916
0.124065
0.160695
0.131121
0.213441
0.14019
0.234666
0.152805
0.191568
0.165209
0.0916856
0.172709
-0.0247335
0.173881
-0.110772
0.16944
-0.156552
0.162194
-0.179363
0.15525
-0.179296
0.148186
-0.1672
0.139227
-0.143311
0.130986
-0.15314
0.128215
-0.132144
0.130533
-0.087638
0.134382
0.0266816
0.135952
0.173345
0.135879
0.284703
0.135563
0.36482
0.137622
0.239471
0.14387
0.116106
0.149793
-0.0659209
0.149745
-0.131222
0.144417
-0.174852
0.138756
-0.347258
-0.147691
0.205492
0.0125584
-0.205523
0.205704
0.0121621
0.206171
0.0118062
0.206841
0.0112857
0.207723
0.0104793
0.208853
0.00931599
0.210239
0.00768832
0.211814
0.00542882
0.21347
0.00234521
0.215064
-0.00177741
0.216353
-0.00709721
0.217061
-0.0136777
0.216908
-0.0214766
0.215622
-0.0303346
0.213027
-0.0399188
0.209089
-0.0497479
0.20392
-0.0592706
0.197741
-0.0679388
0.190833
-0.0752998
0.183496
-0.0810115
0.176006
-0.084852
0.168561
-0.0867341
0.161322
-0.0865979
0.15437
-0.0843056
0.147664
-0.0799072
0.141362
-0.0732961
0.135661
-0.0636425
0.129785
-0.0506344
0.122639
-0.0359085
0.115251
-0.020759
0.110657
-0.00316525
0.111379
0.0199737
0.116541
0.0523458
0.123967
0.0964898
0.132007
0.152655
0.140773
0.204675
0.152178
0.223261
0.166861
0.176885
0.180181
0.0783658
0.187179
-0.031732
0.187252
-0.110844
0.181613
-0.150913
0.173224
-0.170975
0.165428
-0.1715
0.158173
-0.159946
0.149062
-0.1342
0.140271
-0.144349
0.136777
-0.128649
0.138749
-0.0896102
0.142868
0.0225625
0.144987
0.171225
0.145824
0.283866
0.146407
0.364237
0.148805
0.237073
0.155134