/*--------------------------------*- C++ -*----------------------------------*\
| =========                 |                                                 |
| \\      /  F ield         | OpenFOAM: The Open Source CFD Toolbox           |
|  \\    /   O peration     | Version:  2512                                  |
|   \\  /    A nd           | Website:  www.openfoam.com                      |
|    \\/     M anipulation  |                                                 |
\*---------------------------------------------------------------------------*/
FoamFile
{
    version     2.0;
    format      ascii;
    arch        "LSB;label=32;scalar=64";
    class       volScalarField;
    location    "169";
    object      p;
}
// * * * * * * * * * * * * * * * * * * * * * * * * * * * * * * * * * * * * * //

dimensions      [0 2 -2 0 0 0 0];

internalField   nonuniform List<scalar> 
13248
(
-0.351749
-0.350275
-0.347499
-0.343732
-0.339323
-0.334623
-0.329964
-0.325662
-0.32197
-0.319058
-0.316992
-0.315723
-0.315091
-0.314844
-0.31466
-0.31419
-0.313098
-0.311099
-0.30797
-0.303604
-0.297798
-0.290699
-0.281136
-0.269953
-0.360157
-0.357877
-0.354502
-0.350299
-0.345576
-0.34065
-0.335804
-0.331268
-0.327201
-0.32367
-0.320649
-0.318015
-0.315572
-0.31308
-0.310285
-0.306955
-0.302908
-0.29802
-0.292221
-0.285476
-0.277736
-0.268992
-0.258943
-0.248417
-0.370815
-0.367461
-0.363293
-0.358528
-0.353386
-0.34813
-0.342958
-0.337984
-0.333248
-0.328716
-0.324294
-0.319843
-0.315208
-0.310242
-0.304826
-0.298885
-0.292381
-0.285311
-0.277679
-0.269494
-0.260717
-0.251397
-0.241322
-0.231116
-0.383601
-0.378955
-0.373837
-0.368385
-0.362692
-0.35693
-0.351179
-0.345417
-0.33957
-0.333541
-0.327237
-0.320586
-0.313548
-0.306119
-0.298325
-0.290207
-0.281813
-0.273175
-0.264312
-0.255224
-0.245896
-0.236356
-0.226491
-0.21689
-0.398405
-0.392311
-0.38613
-0.37988
-0.373469
-0.366943
-0.360235
-0.3532
-0.345702
-0.337663
-0.329083
-0.320024
-0.310597
-0.300927
-0.291131
-0.281301
-0.271496
-0.26174
-0.252034
-0.242363
-0.232705
-0.223062
-0.213368
-0.203992
-0.415108
-0.407471
-0.400161
-0.393004
-0.385656
-0.37799
-0.369809
-0.360904
-0.351179
-0.340679
-0.329569
-0.318074
-0.306422
-0.294811
-0.283381
-0.272212
-0.261338
-0.250752
-0.240432
-0.230345
-0.220458
-0.210753
-0.201189
-0.192001
-0.433509
-0.424295
-0.415818
-0.407616
-0.399008
-0.389692
-0.379402
-0.367989
-0.355522
-0.342256
-0.328541
-0.314728
-0.301102
-0.287858
-0.275105
-0.262882
-0.251178
-0.239959
-0.229178
-0.218786
-0.208741
-0.199005
-0.189555
-0.18048
-0.453233
-0.442469
-0.432792
-0.423333
-0.41302
-0.401421
-0.388341
-0.373845
-0.358274
-0.342122
-0.325886
-0.309969
-0.294637
-0.280033
-0.266204
-0.253135
-0.240776
-0.229064
-0.217933
-0.207322
-0.197176
-0.18745
-0.178122
-0.169169
-0.473675
-0.461451
-0.450518
-0.439491
-0.426909
-0.412343
-0.395853
-0.377864
-0.359039
-0.340069
-0.321518
-0.303759
-0.286985
-0.271257
-0.256553
-0.242807
-0.229935
-0.217849
-0.206468
-0.195718
-0.185533
-0.175863
-0.166672
-0.157858
-0.493967
-0.480427
-0.468133
-0.455121
-0.439643
-0.421479
-0.401139
-0.37949
-0.357483
-0.335919
-0.315334
-0.296009
-0.278038
-0.261392
-0.245987
-0.231712
-0.218453
-0.206104
-0.194567
-0.183756
-0.173595
-0.164028
-0.154993
-0.146351
-0.513004
-0.498315
-0.484487
-0.468992
-0.450006
-0.427765
-0.403369
-0.378122
-0.353173
-0.329324
-0.307012
-0.286395
-0.267455
-0.250085
-0.234144
-0.219486
-0.205971
-0.193474
-0.181885
-0.171102
-0.161045
-0.151641
-0.142795
-0.134382
-0.529547
-0.513907
-0.498339
-0.479838
-0.456794
-0.430137
-0.401635
-0.372973
-0.345383
-0.319579
-0.295851
-0.274213
-0.254543
-0.236659
-0.22037
-0.205498
-0.191881
-0.179378
-0.167862
-0.157226
-0.14738
-0.13824
-0.129681
-0.121635
-0.34139
-0.343084
-0.344033
-0.344585
-0.345098
-0.345734
-0.346592
-0.347735
-0.349205
-0.351034
-0.353259
-0.355927
-0.359098
-0.362837
-0.367212
-0.372282
-0.378089
-0.384644
-0.391915
-0.399819
-0.408186
-0.416746
-0.425132
-0.433066
-0.341841
-0.342673
-0.343071
-0.343232
-0.343412
-0.343771
-0.344427
-0.345469
-0.346963
-0.348971
-0.351564
-0.354824
-0.358845
-0.363732
-0.369582
-0.376483
-0.384486
-0.393593
-0.403735
-0.414794
-0.42649
-0.438468
-0.450174
-0.461138
-0.342545
-0.342529
-0.342367
-0.342114
-0.34192
-0.341943
-0.342321
-0.343163
-0.344561
-0.346601
-0.349376
-0.352992
-0.35756
-0.363212
-0.370055
-0.37818
-0.387637
-0.398412
-0.410405
-0.42342
-0.437147
-0.451136
-0.464739
-0.477173
-0.343065
-0.342315
-0.341627
-0.340942
-0.340322
-0.339922
-0.339901
-0.340393
-0.341515
-0.343373
-0.346079
-0.34975
-0.354511
-0.360487
-0.367788
-0.376497
-0.386645
-0.398196
-0.411022
-0.424887
-0.439436
-0.454157
-0.468537
-0.481074
-0.343133
-0.341844
-0.340707
-0.339587
-0.338485
-0.337562
-0.337001
-0.336966
-0.337601
-0.339039
-0.341406
-0.344825
-0.349422
-0.355315
-0.3626
-0.371341
-0.381547
-0.393155
-0.406008
-0.419833
-0.434269
-0.448636
-0.462839
-0.474424
-0.342667
-0.341081
-0.339602
-0.33806
-0.336434
-0.334898
-0.333665
-0.332934
-0.332888
-0.333686
-0.335473
-0.338383
-0.342536
-0.34804
-0.354975
-0.36338
-0.373238
-0.384459
-0.396856
-0.410063
-0.423792
-0.437088
-0.450302
-0.459543
-0.341774
-0.340141
-0.338435
-0.3365
-0.334332
-0.332129
-0.330137
-0.328599
-0.327737
-0.327749
-0.328803
-0.331046
-0.3346
-0.33956
-0.345986
-0.353892
-0.363218
-0.373828
-0.385492
-0.397829
-0.410495
-0.422166
-0.433824
-0.440392
-0.340751
-0.339276
-0.33744
-0.335147
-0.33245
-0.329579
-0.326817
-0.324451
-0.322749
-0.321946
-0.322242
-0.323798
-0.32674
-0.331154
-0.337054
-0.344431
-0.353176
-0.363068
-0.373796
-0.384818
-0.395834
-0.405266
-0.414375
-0.417568
-0.340057
-0.33885
-0.33694
-0.334325
-0.331143
-0.327663
-0.324206
-0.3211
-0.318655
-0.317143
-0.316787
-0.317761
-0.320182
-0.324102
-0.329521
-0.336316
-0.344287
-0.353117
-0.362398
-0.371504
-0.380076
-0.386628
-0.392206
-0.391803
-0.340267
-0.339314
-0.337327
-0.334418
-0.330822
-0.326846
-0.322845
-0.319178
-0.316184
-0.314157
-0.313331
-0.313868
-0.315853
-0.319279
-0.324046
-0.32994
-0.336649
-0.343759
-0.350792
-0.357172
-0.36253
-0.365838
-0.367706
-0.364192
-0.341984
-0.341138
-0.339006
-0.335822
-0.331892
-0.327558
-0.323192
-0.31917
-0.315834
-0.313473
-0.312299
-0.312433
-0.31389
-0.316576
-0.320283
-0.324694
-0.329405
-0.33396
-0.337882
-0.340766
-0.342348
-0.342314
-0.341155
-0.336036
-0.345714
-0.344713
-0.342326
-0.338855
-0.334652
-0.330075
-0.325498
-0.321278
-0.317735
-0.315117
-0.31358
-0.313169
-0.313811
-0.315313
-0.317379
-0.319634
-0.321653
-0.32302
-0.323344
-0.322391
-0.319934
-0.316211
-0.311533
-0.305729
-0.441985
-0.449088
-0.451164
-0.446552
-0.433912
-0.412262
-0.381974
-0.344555
-0.303024
-0.261375
-0.223627
-0.192891
-0.171149
-0.159594
-0.158913
-0.16857
-0.18519
-0.201925
-0.210201
-0.203911
-0.183404
-0.154532
-0.125582
-0.102533
-0.0878226
-0.0812901
-0.0816288
-0.0885405
-0.103743
-0.127092
-0.151261
-0.163824
-0.156666
-0.13435
-0.107558
-0.0853847
-0.0711457
-0.0636106
-0.0625652
-0.0697304
-0.0826908
-0.0921493
-0.0897312
-0.0784156
-0.0656323
-0.0558186
-0.0504825
-0.0507219
-0.0554809
-0.0591248
-0.0562118
-0.0510854
-0.0443965
-0.036942
-0.0327436
-0.0292534
-0.026722
-0.025769
-0.0197941
-0.00484887
-0.47387
-0.483269
-0.486457
-0.482047
-0.468312
-0.444176
-0.409912
-0.367335
-0.319855
-0.271903
-0.227858
-0.191084
-0.163569
-0.14619
-0.139397
-0.142978
-0.154618
-0.168743
-0.177457
-0.174089
-0.159181
-0.136331
-0.112828
-0.094288
-0.0833382
-0.0800309
-0.0832446
-0.0931262
-0.111721
-0.138459
-0.165053
-0.177981
-0.168855
-0.143457
-0.113408
-0.0882408
-0.0713739
-0.0615505
-0.058162
-0.0626304
-0.0731808
-0.0812929
-0.079581
-0.0704787
-0.0606641
-0.0535544
-0.0506383
-0.0535096
-0.0604675
-0.0656417
-0.0619444
-0.0552345
-0.0467189
-0.0372798
-0.0315762
-0.0261492
-0.0232224
-0.0221539
-0.0169586
-0.00419226
-0.49251
-0.503571
-0.507535
-0.503362
-0.489111
-0.463498
-0.426728
-0.380727
-0.329104
-0.276548
-0.227702
-0.18613
-0.153777
-0.131324
-0.118919
-0.116503
-0.122773
-0.133598
-0.142154
-0.141017
-0.132212
-0.11546
-0.0975735
-0.0837754
-0.0768056
-0.0768352
-0.0829401
-0.0956663
-0.11727
-0.146856
-0.175535
-0.189071
-0.1786
-0.150726
-0.117949
-0.0902084
-0.0710139
-0.0591253
-0.053588
-0.0554886
-0.0636883
-0.0704827
-0.0694156
-0.062391
-0.0553956
-0.0509064
-0.0504696
-0.0560948
-0.0653507
-0.072078
-0.0675514
-0.0591257
-0.0487908
-0.0374812
-0.0304006
-0.023116
-0.01977
-0.0185072
-0.0141182
-0.00353681
-0.497483
-0.509294
-0.513926
-0.510213
-0.496004
-0.469888
-0.432087
-0.384562
-0.330962
-0.276055
-0.224535
-0.179904
-0.144016
-0.117435
-0.100171
-0.0921379
-0.0927452
-0.0994753
-0.107283
-0.111295
-0.104164
-0.0928604
-0.0804103
-0.0713072
-0.0682705
-0.0715007
-0.0802623
-0.0954293
-0.119469
-0.151426
-0.18204
-0.196567
-0.185496
-0.155929
-0.121068
-0.0912809
-0.0701529
-0.0564779
-0.0490494
-0.048599
-0.0545724
-0.0600613
-0.0596809
-0.0543329
-0.0499227
-0.0479017
-0.049921
-0.0583443
-0.0699674
-0.0782811
-0.0729384
-0.0627079
-0.05058
-0.0375344
-0.029222
-0.0201799
-0.0163937
-0.0148722
-0.0112963
-0.00288831
-0.490489
-0.501614
-0.506611
-0.503654
-0.489982
-0.464221
-0.426844
-0.379796
-0.326576
-0.271763
-0.219804
-0.173964
-0.135969
-0.106318
-0.0849782
-0.071906
-0.0669464
-0.068829
-0.0741428
-0.0780588
-0.0753194
-0.0694062
-0.06195
-0.0572154
-0.0577761
-0.06387
-0.074908
-0.0920167
-0.117888
-0.151728
-0.184122
-0.199984
-0.189271
-0.158979
-0.122784
-0.0915271
-0.0688966
-0.0537488
-0.0447187
-0.0421743
-0.0460869
-0.0503083
-0.0502798
-0.0464582
-0.0443362
-0.044556
-0.0489278
-0.0601241
-0.0741388
-0.0840637
-0.0779878
-0.0659284
-0.0520636
-0.0374315
-0.0280428
-0.0173629
-0.0131211
-0.0112903
-0.00851498
-0.00225231
-0.472365
-0.482681
-0.48785
-0.485794
-0.472922
-0.448253
-0.412656
-0.367938
-0.317257
-0.26477
-0.214446
-0.169164
-0.130491
-0.0989266
-0.0744484
-0.0570584
-0.0468865
-0.0435902
-0.0452793
-0.0482712
-0.0474618
-0.0462613
-0.0429569
-0.0419586
-0.0455778
-0.0540803
-0.0669592
-0.0854881
-0.11253
-0.147664
-0.181646
-0.199183
-0.189825
-0.159847
-0.123135
-0.0910186
-0.0673304
-0.0510328
-0.0406957
-0.0363566
-0.0384065
-0.0414393
-0.0415273
-0.038935
-0.0387217
-0.0408947
-0.0474412
-0.0613079
-0.0776751
-0.0892363
-0.082583
-0.0687439
-0.053225
-0.0371642
-0.0268566
-0.0146824
-0.00997528
-0.00779735
-0.00579308
-0.00163388
-0.449984
-0.456148
-0.460656
-0.459202
-0.447185
-0.424308
-0.391747
-0.350959
-0.304587
-0.256189
-0.209116
-0.16581
-0.127678
-0.0952798
-0.0686875
-0.0479299
-0.0332547
-0.0249058
-0.0223014
-0.0234679
-0.0262091
-0.0247566
-0.0243241
-0.0262173
-0.0322066
-0.0425474
-0.0567613
-0.0761466
-0.103702
-0.139491
-0.174817
-0.194377
-0.187227
-0.158551
-0.122192
-0.0898267
-0.065517
-0.0483908
-0.0370316
-0.0311969
-0.0316073
-0.0335667
-0.0336447
-0.0319287
-0.0331744
-0.0369691
-0.0454318
-0.0617819
-0.0804046
-0.0936278
-0.0866077
-0.0711156
-0.0540525
-0.0367283
-0.025654
-0.0121463
-0.00697303
-0.00442462
-0.00314506
-0.00103832
-0.422176
-0.423893
-0.427518
-0.426373
-0.415343
-0.395025
-0.366596
-0.330936
-0.290092
-0.246932
-0.204154
-0.163791
-0.12712
-0.0947884
-0.0670317
-0.0439492
-0.0257828
-0.0129899
-0.00583116
-0.00360275
-0.00441836
-0.0049409
-0.00672256
-0.0106541
-0.0182584
-0.0297859
-0.0447939
-0.0645294
-0.0920313
-0.127855
-0.164199
-0.186011
-0.181666
-0.155186
-0.120019
-0.0880042
-0.0634958
-0.0458573
-0.0337506
-0.0267091
-0.0257082
-0.0267198
-0.0267088
-0.0255604
-0.0277957
-0.0328481
-0.042903
-0.0614604
-0.0821881
-0.0970902
-0.0899554
-0.0730127
-0.0545458
-0.036129
-0.024442
-0.00976231
-0.00412328
-0.00119838
-0.00058111
-0.000471343
-0.390579
-0.388231
-0.391312
-0.390298
-0.380488
-0.363432
-0.339837
-0.309903
-0.275114
-0.237654
-0.199606
-0.162665
-0.128032
-0.0964438
-0.0683148
-0.043874
-0.0233438
-0.00712994
0.00418554
0.0103953
0.0123447
0.012002
0.00931862
0.00425627
-0.00422702
-0.0162872
-0.0315563
-0.0512131
-0.0782907
-0.113793
-0.150773
-0.174677
-0.173503
-0.149982
-0.116813
-0.0857323
-0.0614173
-0.0435517
-0.0309352
-0.0229298
-0.0207226
-0.0208999
-0.0207294
-0.0199014
-0.0226858
-0.0286194
-0.0398545
-0.0602923
-0.082937
-0.0995167
-0.0925435
-0.0744278
-0.0547338
-0.0353864
-0.0232476
-0.00756761
-0.00143381
0.00186101
0.0018932
6.08594e-05
-0.357601
-0.352995
-0.355988
-0.354726
-0.346327
-0.332889
-0.314214
-0.289941
-0.261085
-0.229201
-0.195838
-0.162416
-0.130085
-0.0996767
-0.0717586
-0.0466942
-0.0247285
-0.0061606
0.00844993
0.0184721
0.0237886
0.0251352
0.0232902
0.0181569
0.00950539
-0.00254081
-0.0176576
-0.0370102
-0.0634309
-0.0981432
-0.135325
-0.161084
-0.16322
-0.143388
-0.113011
-0.0834411
-0.0596354
-0.0417341
-0.0287594
-0.0199301
-0.0166398
-0.0160954
-0.0157412
-0.0149934
-0.0179131
-0.0243623
-0.0363848
-0.0582782
-0.0825781
-0.100828
-0.0943207
-0.0753745
-0.0546626
-0.0345276
-0.0220608
-0.0056127
0.00107049
0.00472834
0.00427635
0.000551213
-0.327062
-0.322839
-0.325352
-0.323167
-0.316221
-0.306245
-0.292073
-0.273046
-0.249747
-0.22315
-0.194344
-0.164466
-0.13458
-0.105584
-0.0781819
-0.0528492
-0.0299543
-0.00979568
0.00727701
0.0206211
0.0296021
0.0341938
0.0343322
0.0303843
0.0225175
0.0111423
-0.0033579
-0.0221388
-0.0479123
-0.0822325
-0.119291
-0.145678
-0.151319
-0.135245
-0.108376
-0.0809425
-0.0579487
-0.0401808
-0.0270169
-0.0175089
-0.013212
-0.0120368
-0.0116516
-0.0108256
-0.0136654
-0.0201628
-0.03238
-0.0554152
-0.0812449
-0.100999
-0.0951031
-0.0757548
-0.054248
-0.0335003
-0.0207617
-0.00380856
0.00338421
0.00736064
0.00656938
0.000993241
-0.300501
-0.299634
-0.299833
-0.295322
-0.288891
-0.281016
-0.270027
-0.255154
-0.236524
-0.214619
-0.190138
-0.163914
-0.13684
-0.109783
-0.0835111
-0.0586432
-0.0356669
-0.0149585
0.00316426
0.0183237
0.0300893
0.0380458
0.0414575
0.0398081
0.0334895
0.0233648
0.00984981
-0.00811732
-0.0328326
-0.0657454
-0.101562
-0.12792
-0.13516
-0.123434
-0.100545
-0.0758214
-0.0542361
-0.0371662
-0.0243593
-0.0147101
-0.00978821
-0.00807727
-0.0077827
-0.00738894
-0.00984951
-0.0163472
-0.028323
-0.051845
-0.0786722
-0.0999865
-0.0945231
-0.0752749
-0.0531506
-0.0320653
-0.0191869
-0.00184051
0.00565425
0.00979758
0.00875857
0.00137247
-0.276608
-0.286688
-0.28401
-0.276735
-0.269068
-0.260763
-0.250154
-0.236225
-0.218885
-0.19858
-0.175965
-0.151762
-0.12672
-0.101576
-0.076996
-0.0535217
-0.0315895
-0.0115563
0.00629592
0.0216884
0.0342626
0.0436554
0.0489332
0.0492641
0.0449202
0.0365268
0.0245028
0.00743899
-0.0177683
-0.0532864
-0.0923198
-0.120515
-0.12738
-0.114033
-0.0917042
-0.0684907
-0.0484574
-0.0325847
-0.020588
-0.0113257
-0.00636853
-0.00431878
-0.00383104
-0.00303481
-0.00472175
-0.0109184
-0.0226956
-0.0472061
-0.0759452
-0.0996153
-0.0948786
-0.0744473
-0.0515392
-0.0302718
-0.017536
0.000257095
0.00787035
0.0123689
0.0108325
0.00167948
-0.250997
-0.26443
-0.262399
-0.253895
-0.245123
-0.236623
-0.226684
-0.213993
-0.198302
-0.180037
-0.159802
-0.138182
-0.115747
-0.0930671
-0.0706955
-0.0491201
-0.0287526
-0.00992838
0.00709091
0.0220809
0.0347566
0.0446129
0.0509397
0.0529499
0.0504169
0.0438925
0.0335868
0.0176478
-0.00767972
-0.0441512
-0.0830919
-0.109064
-0.113526
-0.100794
-0.0808014
-0.0603699
-0.0425751
-0.0282227
-0.0172367
-0.00850282
-0.00357319
-0.00134503
-0.000914747
-8.09649e-05
-0.00143623
-0.00699583
-0.0182903
-0.0430705
-0.0728841
-0.0975918
-0.0930944
-0.0723266
-0.0493111
-0.0281543
-0.0156546
0.0021465
0.00964829
0.0145325
0.0125283
0.00195398
-0.22731
-0.241036
-0.24003
-0.231795
-0.22287
-0.214577
-0.205481
-0.194161
-0.180219
-0.163979
-0.145966
-0.126663
-0.106516
-0.0859865
-0.0655515
-0.0456593
-0.0267007
-0.00900024
0.00717066
0.0215803
0.0339852
0.0440325
0.0508822
0.0537967
0.0524835
0.0472667
0.0380998
0.0227452
-0.00237246
-0.0372469
-0.0724153
-0.0948036
-0.0981295
-0.0871203
-0.0700983
-0.0525432
-0.0369155
-0.0239953
-0.0139746
-0.00580902
-0.000995527
0.00136893
0.00175962
0.00264186
0.00137559
-0.00397967
-0.0150705
-0.0396469
-0.0691747
-0.0938333
-0.0899895
-0.069421
-0.046652
-0.0258054
-0.0136184
0.00396377
0.0113403
0.0165278
0.0140285
0.00224057
-0.205955
-0.218462
-0.218258
-0.210971
-0.202484
-0.194535
-0.186146
-0.176
-0.163595
-0.149134
-0.133072
-0.11583
-0.0977753
-0.0792769
-0.0607302
-0.0425252
-0.0250209
-0.00852482
0.00669222
0.0203885
0.0323225
0.0420985
0.0491182
0.0526977
0.0523595
0.0481954
0.039973
0.025395
0.00167369
-0.0298342
-0.0604399
-0.0792628
-0.0822078
-0.0733513
-0.0593944
-0.0447161
-0.0312794
-0.0198146
-0.0107803
-0.00324469
0.00138043
0.00385728
0.0043088
0.00525219
0.00411907
-0.00114447
-0.0120115
-0.0358241
-0.0643114
-0.0887593
-0.085766
-0.065772
-0.0435424
-0.0232301
-0.0114023
0.00570463
0.0129563
0.0183509
0.0154046
0.00254052
-0.185621
-0.197092
-0.1975
-0.191231
-0.18343
-0.175964
-0.168253
-0.159176
-0.148191
-0.135389
-0.121142
-0.105815
-0.0897123
-0.0731279
-0.0563843
-0.0398187
-0.0237602
-0.00850295
0.00568711
0.0185601
0.0298519
0.0391881
0.0461389
0.0500751
0.0504488
0.0471699
0.0399236
0.0266942
0.00553201
-0.0217551
-0.0476202
-0.0633469
-0.0663294
-0.0599115
-0.0490518
-0.0371543
-0.0258308
-0.0157772
-0.00769755
-0.000817804
0.00356329
0.00611734
0.00669632
0.00767947
0.00677661
0.00173613
-0.00854526
-0.0311016
-0.0583502
-0.0823733
-0.0802887
-0.0613015
-0.0399835
-0.0204454
-0.00903224
0.00736166
0.01446
0.0199649
0.0166498
0.00284586
-0.166613
-0.177206
-0.177965
-0.172586
-0.165573
-0.158735
-0.151744
-0.143677
-0.134004
-0.122735
-0.110157
-0.096585
-0.0822766
-0.067472
-0.0524358
-0.0374568
-0.0228309
-0.00883525
0.00427207
0.0162482
0.0268166
0.0356312
0.0423352
0.0463876
0.0472635
0.0447499
0.0385136
0.0270181
0.009071
-0.0135194
-0.0346906
-0.0479502
-0.0514168
-0.047418
-0.0393996
-0.0300093
-0.0206392
-0.0119284
-0.00475597
0.00146575
0.00556165
0.00814546
0.00890328
0.00994415
0.00934238
0.00467825
-0.00467652
-0.0256542
-0.0513981
-0.0746136
-0.0735386
-0.0560136
-0.0360076
-0.0174845
-0.00653945
0.00892834
0.0158274
0.0213312
0.0177166
0.0031529
-0.149275
-0.158764
-0.159683
-0.155104
-0.148917
-0.142789
-0.136543
-0.129424
-0.120947
-0.111073
-0.100022
-0.0880581
-0.0754025
-0.0622549
-0.0488324
-0.0353796
-0.0221575
-0.00942251
0.00257994
0.0136118
0.0234022
0.031637
0.0379973
0.0420307
0.0432751
0.0414491
0.036251
0.0266778
0.0121422
-0.00585901
-0.0228794
-0.0342079
-0.0382273
-0.0362717
-0.0306461
-0.0234055
-0.0157784
-0.008318
-0.00199092
0.00359743
0.00738734
0.00995672
0.0109342
0.0120785
0.0118147
0.00762992
-0.000613055
-0.0196809
-0.0435291
-0.065609
-0.0656285
-0.0499697
-0.031665
-0.014391
-0.00396576
0.0104032
0.0170448
0.022415
0.0185599
0.00346589
-0.133217
-0.141643
-0.14269
-0.138847
-0.133463
-0.128054
-0.122544
-0.11631
-0.108922
-0.100317
-0.0906612
-0.0801722
-0.0690397
-0.0574303
-0.0455232
-0.033524
-0.0216606
-0.0101659
0.000729225
0.0107934
0.0197743
0.0273953
0.033361
0.0372951
0.0388109
0.0376175
0.0334834
0.0258362
0.0144383
0.000390282
-0.0131654
-0.0228237
-0.0271179
-0.0266567
-0.0229079
-0.0174292
-0.0113029
-0.00498076
0.000567908
0.00556894
0.00905168
0.011574
0.0127948
0.0141096
0.0141936
0.010567
0.00356662
-0.0132591
-0.0349361
-0.0556375
-0.0567668
-0.0432917
-0.0270276
-0.0112175
-0.00136194
0.0117938
0.0181091
0.0231943
0.0191552
0.00379567
-0.118313
-0.125872
-0.127023
-0.123823
-0.119177
-0.114458
-0.109651
-0.104241
-0.0978473
-0.0903947
-0.0820088
-0.0728689
-0.0631349
-0.052947
-0.0424534
-0.0318269
-0.0212648
-0.0109756
-0.00117245
0.0079278
0.0160926
0.0230848
0.0286287
0.0324124
0.0341249
0.0335063
0.0303874
0.0244628
0.0156833
0.00485444
-0.00580484
-0.013882
-0.0180904
-0.0185789
-0.0162118
-0.0121243
-0.0072504
-0.00194126
0.00289633
0.00736868
0.0105617
0.0130166
0.0144844
0.0160537
0.0165084
0.0135496
0.00789133
-0.00652683
-0.0259519
-0.0450887
-0.0472604
-0.0361675
-0.0221883
-0.0080211
0.00121459
0.0131178
0.0190334
0.0236697
0.0195055
0.00415871
-0.104718
-0.111445
-0.112626
-0.109978
-0.106005
-0.101933
-0.0977861
-0.0931358
-0.0876464
-0.0812372
-0.074003
-0.066091
-0.0576358
-0.0487548
-0.0395716
-0.0302308
-0.0209015
-0.0117676
-0.00302169
0.0051371
0.0124952
0.0188634
0.0239772
0.0275806
0.029428
0.0293005
0.027076
0.0226053
0.0159536
0.0077297
-0.000508196
-0.00710073
-0.0109452
-0.0119346
-0.0105253
-0.00750219
-0.00364491
0.000785031
0.00497872
0.00898034
0.0119201
0.0142983
0.0159955
0.0178912
0.0188148
0.0166756
0.0123559
0.000245213
-0.017012
-0.0344454
-0.0375148
-0.0288488
-0.0172594
-0.00485957
0.00370374
0.0144001
0.0198507
0.0238716
0.0196465
0.00457744
-0.0923462
-0.0982483
-0.0994184
-0.0972577
-0.0938984
-0.0904222
-0.0868835
-0.0829251
-0.0782524
-0.072783
-0.0665877
-0.0597874
-0.0524949
-0.0448086
-0.0368312
-0.028683
-0.0205083
-0.0124661
-0.00472721
0.00252664
0.00909694
0.0148661
0.0195536
0.0229575
0.0248849
0.0251615
0.0237025
0.0204461
0.0155196
0.00939971
0.00315783
-0.00209056
-0.00540894
-0.00657183
-0.00578245
-0.00354896
-0.000496338
0.00318932
0.00680941
0.0103865
0.0131207
0.0154299
0.0173231
0.0195545
0.0211264
0.0199551
0.0168475
0.00667942
-0.0086206
-0.0242382
-0.0279745
-0.0216234
-0.0123698
-0.00179018
0.00604866
0.0156598
0.02061
0.0238621
0.0196516
0.00507813
-0.081011
-0.0861988
-0.0873593
-0.0856245
-0.0828107
-0.0798725
-0.0768835
-0.0735472
-0.0696054
-0.0649767
-0.0597127
-0.0539124
-0.0476703
-0.0410682
-0.0341909
-0.0271383
-0.0200311
-0.0130068
-0.00621378
0.000190862
0.00602982
0.011208
0.0154731
0.0186644
0.0206298
0.0212345
0.0204201
0.0181714
0.014639
0.0101989
0.00561171
0.00152172
-0.00120362
-0.00232531
-0.00189993
-0.000231646
0.00219911
0.00526811
0.00838981
0.0115771
0.0141454
0.0164084
0.0184618
0.0209542
0.0232029
0.0231218
0.0210104
0.0123147
-0.00124013
-0.0149259
-0.0190368
-0.014775
-0.00766022
0.00112835
0.00820017
0.0168891
0.0213546
0.0237265
0.0196226
0.00567955
-0.0707105
-0.0752656
-0.0763939
-0.0750182
-0.0726826
-0.0702237
-0.0677259
-0.064943
-0.0616498
-0.0577674
-0.0533326
-0.0484257
-0.0431252
-0.0374993
-0.0316173
-0.0255613
-0.0194312
-0.0133423
-0.00742179
-0.00180109
0.00337542
0.00796938
0.0118196
0.014791
0.0167615
0.0176243
0.0173399
0.015918
0.0134945
0.0103765
0.00721729
0.00404572
0.0019181
0.000968205
0.00121491
0.00249555
0.0044576
0.00702417
0.00972279
0.0125536
0.0149761
0.0172066
0.0193774
0.0220231
0.0247661
0.0256312
0.0242367
0.0167093
0.0048626
-0.00680774
-0.0110246
-0.00855597
-0.0032765
0.00383476
0.0101172
0.0180373
0.0220971
0.0235544
0.0196489
0.00636841
-0.0614064
-0.0653705
-0.0664373
-0.0653622
-0.0634482
-0.0614167
-0.0593542
-0.0570587
-0.0543358
-0.0511107
-0.0474082
-0.043293
-0.0388302
-0.0340757
-0.029086
-0.0239278
-0.018683
-0.0134458
-0.00832119
-0.00341559
0.00118053
0.00518914
0.00864117
0.0113925
0.0133387
0.0143963
0.0145358
0.0137741
0.0122206
0.0100739
0.00760065
0.00566077
0.00416383
0.00346299
0.00365852
0.00468696
0.00630484
0.00846729
0.0108121
0.0133225
0.0156021
0.0177891
0.020011
0.0226892
0.0256004
0.0270035
0.0260446
0.0196413
0.00960576
-7.69545e-05
-0.00418667
-0.00314938
0.000649013
0.00627086
0.0117641
0.0190044
0.0227883
0.0234151
0.0197489
0.00706923
-0.052988
-0.0564256
-0.0574254
-0.056604
-0.0550545
-0.053397
-0.0517159
-0.0498453
-0.0476186
-0.0449668
-0.0419055
-0.0384859
-0.0347616
-0.0307782
-0.0265814
-0.0222245
-0.017774
-0.0133075
-0.00891293
-0.00468333
-0.000720408
0.00284824
0.00595152
0.00849287
0.010391
0.0115847
0.0120535
0.0118123
0.0109524
0.0096254
0.00807115
0.00673539
0.00574314
0.00530528
0.00552707
0.00640174
0.00777276
0.00961406
0.011664
0.0138909
0.0160183
0.0181301
0.0203234
0.0228994
0.0256372
0.0271529
0.0264374
0.0211941
0.013008
0.00516501
0.00133538
0.00135474
0.00402043
0.00839245
0.0131128
0.0196525
0.0232896
0.0233309
0.0198395
0.00763839
-0.0453766
-0.0483569
-0.0492939
-0.0486849
-0.0474457
-0.0461095
-0.044758
-0.0432544
-0.0414558
-0.0392995
-0.0367944
-0.0339806
-0.0309016
-0.0275944
-0.0240953
-0.0204467
-0.0167018
-0.0129238
-0.00918571
-0.00556471
-0.00214393
0.000990087
0.00376329
0.00609653
0.00792521
0.00920269
0.00991443
0.0100752
0.00975405
0.00906891
0.00818911
0.0073819
0.00681057
0.00662188
0.00691202
0.00770078
0.00889752
0.0104862
0.0122883
0.0142664
0.0162276
0.0182241
0.0203051
0.0226684
0.0250296
0.0263863
0.0257962
0.0216581
0.0151963
0.00897473
0.00556028
0.00496356
0.00679218
0.0101668
0.0141495
0.0198753
0.0234135
0.0231994
0.0197307
0.00791836
-0.0385335
-0.0411103
-0.0419809
-0.0415381
-0.0405607
-0.039499
-0.0384295
-0.0372401
-0.0358079
-0.0340763
-0.0320493
-0.0297581
-0.0272376
-0.0245176
-0.0216269
-0.0185981
-0.0154736
-0.0123038
-0.00914712
-0.00606703
-0.0031288
-0.000398107
0.00206398
0.00419047
0.00592934
0.00724445
0.0081236
0.00857789
0.00865839
0.00844999
0.0080831
0.00771262
0.00748815
0.00752139
0.00789719
0.00864381
0.00971799
0.011109
0.0127002
0.0144568
0.0162413
0.0180862
0.0199864
0.0220583
0.0239845
0.0250848
0.0245628
0.0213863
0.0164087
0.0115671
0.00864478
0.00775149
0.00896903
0.0115628
0.0148626
0.0196527
0.0230146
0.0227852
0.0191681
0.00781878
-0.032387
-0.0346038
-0.0354068
-0.03511
-0.0343475
-0.0335164
-0.0326845
-0.03176
-0.0306378
-0.0292666
-0.0276468
-0.0258024
-0.0237612
-0.0215467
-0.0191811
-0.0166897
-0.0141051
-0.0114664
-0.00882044
-0.00621812
-0.0037106
-0.0013478
0.000824575
0.00274595
0.00437649
0.00568837
0.00666853
0.00732535
0.00769995
0.00784127
0.00784851
0.00782025
0.0078754
0.0080964
0.00855794
0.00928786
0.0102743
0.0115092
0.0129192
0.0144765
0.0160789
0.0177448
0.0194213
0.0211215
0.0226869
0.0235398
0.0230726
0.0206855
0.0169188
0.0132127
0.0107955
0.00981836
0.0105903
0.0125616
0.0152345
0.019017
0.0220438
0.0218335
0.0179866
0.00735431
-0.0268664
-0.02877
-0.0295079
-0.0293286
-0.0287568
-0.0281159
-0.0274796
-0.0267738
-0.0259104
-0.0248426
-0.023567
-0.0221013
-0.0204676
-0.018684
-0.0167676
-0.0147376
-0.0126185
-0.01044
-0.00823855
-0.00605342
-0.003925
-0.00188562
2.74129e-06
0.00172119
0.00322919
0.00450201
0.0055308
0.00631708
0.00688572
0.00727629
0.0075522
0.007782
0.00805292
0.00842451
0.00896099
0.00968607
0.0106063
0.0117152
0.0129688
0.0143464
0.015766
0.0172398
0.0186896
0.020099
0.0213018
0.0219411
0.0215308
0.0197673
0.0169575
0.0141544
0.012208
0.0112652
0.0117155
0.013166
0.0152689
0.0180619
0.0205742
0.0202488
0.0162455
0.00662172
-0.0219203
-0.0235524
-0.0242274
-0.0241413
-0.0237258
-0.0232525
-0.0227773
-0.0222475
-0.0215963
-0.0207802
-0.0197919
-0.0186443
-0.0173542
-0.015935
-0.0143996
-0.0127619
-0.0110407
-0.00925839
-0.00744204
-0.00562122
-0.00382896
-0.0020968
-0.000455535
0.00106445
0.00244218
0.00364282
0.0046817
0.00553785
0.00622999
0.00678397
0.00724517
0.00765798
0.00808592
0.00857049
0.00916487
0.00988711
0.0107528
0.0117572
0.0128744
0.0140888
0.0153344
0.0166165
0.0178481
0.0190063
0.0199195
0.0203926
0.0200439
0.0187589
0.0166887
0.0145856
0.013046
0.0121903
0.0124101
0.0134105
0.0149984
0.0168973
0.0185307
0.0181808
0.0141909
0.00575018
-0.0174994
-0.0188946
-0.0195088
-0.0194952
-0.019207
-0.0188702
-0.018536
-0.0181591
-0.0176774
-0.0170613
-0.0163078
-0.0154242
-0.0144204
-0.0133066
-0.0120918
-0.0107859
-0.00940224
-0.00795746
-0.0064722
-0.00496799
-0.00346919
-0.00200052
-0.000586234
0.000750392
0.00198535
0.00311583
0.0041076
0.00497833
0.00573212
0.00638243
0.00695996
0.00749275
0.00802618
0.00858783
0.00921992
0.0099351
0.0107515
0.0116656
0.0126619
0.0137293
0.0148142
0.0159165
0.0169487
0.0178945
0.0185897
0.0189428
0.0186592
0.0177317
0.016221
0.0146494
0.0134403
0.0126824
0.0127406
0.0133549
0.0144762
0.0156433
0.0165433
0.0159361
0.0121019
0.00485903
-0.0135524
-0.0147426
-0.0152996
-0.0153424
-0.0151575
-0.0149319
-0.0147099
-0.0144557
-0.0141199
-0.0136741
-0.0131109
-0.0124384
-0.0116671
-0.0108072
-0.00985999
-0.00883215
-0.00773305
-0.0065745
-0.00537147
-0.00414025
-0.00289943
-0.00166728
-0.000462964
0.000696054
0.00179325
0.00281791
0.00375789
0.00461137
0.00538182
0.00607698
0.00671685
0.00731852
0.00791375
0.00851986
0.00916894
0.00986918
0.0106374
0.0114703
0.0123586
0.0132944
0.0142332
0.0151734
0.0160331
0.0168036
0.0173393
0.0176091
0.0173902
0.0167249
0.0156266
0.0144464
0.0134502
0.0128108
0.0127742
0.013067
0.0137683
0.0143576
0.0146155
0.0137401
0.0101684
0.00403207
-0.0100347
-0.0110486
-0.0115528
-0.0116384
-0.0115364
-0.0114003
-0.0112682
-0.0111119
-0.0108914
-0.0105821
-0.0101781
-0.00968431
-0.00910788
-0.00845093
-0.00772151
-0.00692326
-0.00606137
-0.00514364
-0.00418018
-0.00318312
-0.00216647
-0.0011432
-0.00012749
0.000867293
0.00182777
0.00274398
0.00360796
0.0044157
0.005168
0.00586807
0.00652817
0.00715795
0.00777883
0.00840099
0.0090477
0.00972344
0.010442
0.0112001
0.0119912
0.0128095
0.0136184
0.0144162
0.0151308
0.0157599
0.0161803
0.0163925
0.0162321
0.0157567
0.01496
0.014073
0.0133069
0.0127311
0.0125839
0.0126109
0.0129385
0.0130842
0.0128299
0.0117274
0.00847879
0.0033127
-0.00690704
-0.00776931
-0.00822453
-0.00834168
-0.00830562
-0.00824095
-0.00818007
-0.00810115
-0.00797168
-0.00777111
-0.00749372
-0.00714229
-0.00672159
-0.00623513
-0.00568596
-0.00507687
-0.00441239
-0.00369744
-0.00293557
-0.00213799
-0.00131463
-0.000474795
0.000371169
0.00121329
0.00204113
0.00284661
0.00362319
0.00436662
0.00507587
0.00575129
0.00639977
0.00702595
0.00764365
0.0082581
0.00888528
0.00952698
0.010193
0.0108806
0.0115837
0.0122976
0.0129926
0.0136681
0.014262
0.0147775
0.015114
0.0152864
0.0151748
0.0148338
0.0142537
0.0135801
0.0129752
0.0124558
0.0122187
0.0120369
0.0120442
0.0118553
0.0112312
0.00996311
0.00705322
0.00271341
-0.00413264
-0.0048649
-0.00527517
-0.00541491
-0.00543053
-0.00542233
-0.0054174
-0.00539897
-0.0053409
-0.00522615
-0.00504939
-0.00481216
-0.0045178
-0.00416872
-0.00376642
-0.00331217
-0.00280815
-0.00225766
-0.00166834
-0.00104154
-0.000384922
0.000294558
0.000989062
0.00169143
0.00239372
0.00308933
0.00377272
0.00443994
0.00508908
0.0057188
0.00633237
0.00693121
0.00752358
0.00811144
0.00870482
0.00930392
0.00991458
0.010534
0.0111566
0.0117784
0.0123744
0.0129452
0.01344