/*--------------------------------*- C++ -*----------------------------------*\
| =========                 |                                                 |
| \\      /  F ield         | OpenFOAM: The Open Source CFD Toolbox           |
|  \\    /   O peration     | Version:  2512                                  |
|   \\  /    A nd           | Website:  www.openfoam.com                      |
|    \\/     M anipulation  |                                                 |
\*---------------------------------------------------------------------------*/
FoamFile
{
    version     2.0;
    format      ascii;
    arch        "LSB;label=32;scalar=64";
    class       volVectorField;
    location    "169";
    object      U;
}
// * * * * * * * * * * * * * * * * * * * * * * * * * * * * * * * * * * * * * //

dimensions      [0 1 -1 0 0 0 0];

internalField   nonuniform List<vector> 
13248
(
(-0.0141974 0.0122822 7.47251e-20)
(-0.0273698 0.0254882 0)
(-0.0259508 0.0319839 -1.40994e-19)
(-0.00985889 0.0345057 1.32818e-19)
(0.0210107 0.0348577 1.23887e-19)
(0.0667059 0.0342519 0)
(0.127106 0.0335234 0)
(0.201729 0.0332493 2.93951e-19)
(0.289527 0.0337936 -1.87448e-21)
(0.388724 0.0353236 -2.56e-19)
(0.496749 0.0378061 2.37783e-19)
(0.610293 0.0410092 -1.48514e-19)
(0.725499 0.0445254 0)
(0.838248 0.0478169 -2.60593e-19)
(0.944505 0.0502838 4.89101e-19)
(1.04066 0.0513413 -1.16147e-19)
(1.12383 0.0505013 -2.1386e-19)
(1.19211 0.0474156 2.00773e-19)
(1.24472 0.0420045 0)
(1.28195 0.0340581 0)
(1.30524 0.0246851 0)
(1.31634 0.0109928 0)
(1.31786 0.00219106 6.33329e-20)
(1.31184 -0.0268274 2.3198e-19)
(-0.0147659 0.0116011 -2.25783e-19)
(-0.0236238 0.0219434 1.54017e-19)
(-0.013117 0.0256376 -1.54016e-21)
(0.0159448 0.0257812 -2.03307e-19)
(0.0631357 0.0244994 -1.2375e-19)
(0.127965 0.0232599 -1.17107e-19)
(0.209511 0.0230349 -2.13389e-19)
(0.306103 0.0244066 2.02486e-19)
(0.415101 0.0276167 0)
(0.532842 0.0325828 8.41335e-22)
(0.654822 0.0389207 2.32441e-21)
(0.776057 0.0459963 1.49687e-19)
(0.89157 0.0530132 0)
(0.996891 0.0591261 0)
(1.08849 0.0635602 1.7991e-19)
(1.16408 0.0657162 -3.38146e-19)
(1.22277 0.0652412 2.05651e-19)
(1.26501 0.0620569 -1.93083e-19)
(1.2924 0.0563285 -8.59452e-20)
(1.30739 0.048435 -1.59531e-19)
(1.31268 0.0388459 -6.71973e-20)
(1.31109 0.0279607 -1.27131e-19)
(1.30444 0.0177551 1.84219e-19)
(1.29612 0.00337485 5.28811e-20)
(-0.013982 0.0101243 0)
(-0.0155951 0.0171069 0)
(0.0073948 0.0185082 7.19426e-20)
(0.0531206 0.0174277 6.60637e-20)
(0.120282 0.0161045 -1.87668e-21)
(0.207314 0.0161171 -1.21939e-19)
(0.311771 0.0184089 0)
(0.429998 0.0233634 -1.00511e-19)
(0.557087 0.0308568 9.49697e-20)
(0.687181 0.0403153 1.30923e-21)
(0.814073 0.0508199 -1.61535e-19)
(0.931928 0.0612612 -1.48666e-19)
(1.03596 0.0705233 2.10905e-21)
(1.12295 0.0776561 -1.24861e-19)
(1.19142 0.0820055 2.98148e-19)
(1.24165 0.0832766 0)
(1.27537 0.0815287 -1.97547e-19)
(1.29531 0.0770967 9.58499e-20)
(1.30462 0.0705283 8.58804e-20)
(1.30634 0.0623238 0)
(1.30312 0.0533607 7.15222e-20)
(1.2967 0.0432487 -2.45873e-19)
(1.28838 0.0351107 2.30817e-19)
(1.27944 0.0218308 1.45871e-19)
(-0.0114074 0.00787384 -8.03961e-20)
(-0.00223938 0.0110577 -8.32556e-20)
(0.0368575 0.0107861 7.49894e-20)
(0.102746 0.00981154 0)
(0.192761 0.0102412 0)
(0.303533 0.013529 -3.19271e-21)
(0.430261 0.020304 0)
(0.566621 0.0304243 -3.10415e-19)
(0.705215 0.0430953 2.88222e-19)
(0.838439 0.0570535 -3.55094e-19)
(0.959514 0.0708223 8.11015e-20)
(1.06336 0.0829899 0)
(1.14713 0.092447 1.36148e-19)
(1.21027 0.0985325 -2.526e-19)
(1.25423 0.101068 6.00382e-20)
(1.28186 0.100292 1.56223e-19)
(1.29672 0.0967259 -5.81829e-21)
(1.3024 0.0910267 -1.74343e-19)
(1.30197 0.0838361 0)
(1.29776 0.0757348 0)
(1.29131 0.0671712 -6.35422e-20)
(1.28352 0.0583043 5.72615e-20)
(1.27488 0.0505372 2.07607e-19)
(1.26612 0.0394228 -1.94914e-19)
(-0.00665924 0.00504621 -8.52251e-20)
(0.0173349 0.00433375 -8.4804e-20)
(0.0762553 0.00332006 2.383e-19)
(0.165349 0.00407055 -1.44319e-19)
(0.279904 0.00824507 1.35839e-19)
(0.413884 0.0168152 2.46126e-19)
(0.55941 0.0296846 -1.74222e-19)
(0.707292 0.0458072 -2.11955e-19)
(0.848242 0.063495 4.37557e-21)
(0.974287 0.0808184 2.69898e-19)
(1.0799 0.0960139 0)
(1.16253 0.1078 7.4574e-20)
(1.22248 0.115529 0)
(1.26226 0.119171 -1.22143e-19)
(1.28571 0.119171 1.71801e-19)
(1.29704 0.116238 1.63671e-21)
(1.3001 0.11115 -4.55073e-20)
(1.29798 0.104607 8.57959e-20)
(1.29282 0.0971723 7.41633e-20)
(1.28598 0.0892411 -6.68358e-20)
(1.27823 0.0811335 6.3529e-20)
(1.26995 0.0729013 -5.72488e-20)
(1.26135 0.0654301 0)
(1.25282 0.0556354 -4.34619e-20)
(0.000601763 0.00196067 8.52128e-20)
(0.0438217 -0.00216976 8.97322e-20)
(0.126127 -0.00251712 -7.99343e-20)
(0.240617 0.00190653 1.49123e-19)
(0.379699 0.0118796 -1.40353e-19)
(0.533879 0.0273987 1.26806e-19)
(0.69196 0.0471797 -6.10534e-20)
(0.842565 0.0690093 1.59158e-19)
(0.976085 0.0903648 -1.00337e-19)
(1.08617 0.109015 1.7751e-19)
(1.17032 0.12344 -4.09811e-19)
(1.22953 0.132989 1.50799e-19)
(1.26727 0.137792 -1.32055e-19)
(1.28823 0.138516 1.24043e-19)
(1.29725 0.136074 1.07663e-19)
(1.29848 0.131382 9.5002e-20)
(1.29505 0.125214 -2.64483e-19)
(1.28907 0.118149 1.64356e-19)
(1.2818 0.110582 -7.41681e-20)
(1.27394 0.102781 1.94385e-19)
(1.26582 0.0949183 -6.27663e-20)
(1.25756 0.0871042 -1.53781e-19)
(1.24923 0.0797543 1.42134e-19)
(1.24094 0.0709276 4.34498e-20)
(0.0106664 -0.000982573 0)
(0.0776222 -0.00733103 9.22419e-22)
(0.186344 -0.00507842 1.6829e-19)
(0.327097 0.00518469 -1.5768e-19)
(0.488579 0.0227785 -1.42146e-19)
(0.657483 0.0461695 2.6412e-19)
(0.819925 0.0725565 -1.22627e-19)
(0.964013 0.0986275 1.63076e-19)
(1.08195 0.121472 -3.62232e-21)
(1.17082 0.139179 -9.24083e-20)
(1.23201 0.151019 2.01271e-19)
(1.26982 0.157263 -2.97405e-19)
(1.28983 0.158816 0)
(1.29751 0.156827 -5.85731e-20)
(1.29742 0.15239 -1.5673e-19)
(1.29289 0.146389 4.92604e-20)
(1.28607 0.139457 1.8539e-21)
(1.27823 0.132009 -1.09409e-19)
(1.27002 0.124309 6.38236e-21)
(1.26173 0.116524 1.26785e-19)
(1.25348 0.108767 -5.69905e-20)
(1.24529 0.101127 -2.17572e-20)
(1.23711 0.0937397 6.67692e-20)
(1.22899 0.0855921 0)
(0.0237352 -0.00332219 0)
(0.118716 -0.00991571 4.56963e-20)
(0.255918 -0.00269306 -2.20178e-19)
(0.422059 0.015541 8.00873e-20)
(0.601628 0.0419838 -7.53726e-20)
(0.777949 0.0731297 -6.89703e-20)
(0.9361 0.104686 -1.21554e-19)
(1.06592 0.132741 6.08355e-20)
(1.16332 0.15471 5.26676e-20)
(1.22966 0.169611 0)
(1.2699 0.177794 1.19892e-19)
(1.29051 0.180418 -1.78702e-19)
(1.29778 0.178918 1.32916e-19)
(1.29685 0.17463 5.86052e-20)
(1.29139 0.168604 -4.8267e-20)
(1.28375 0.161572 -4.0515e-20)
(1.27524 0.153999 -3.7938e-20)
(1.26654 0.146165 1.13121e-19)
(1.25794 0.138238 0)
(1.24952 0.130325 5.72754e-20)
(1.24131 0.122503 4.84867e-20)
(1.23326 0.114839 -1.20091e-19)
(1.22531 0.107336 -8.27019e-20)
(1.21742 0.099644 7.63364e-20)
(0.0398567 -0.00455113 -4.96352e-20)
(0.166541 -0.00868194 -2.04845e-21)
(0.332927 0.00611395 4.49135e-20)
(0.521676 0.0340892 1.25825e-19)
(0.713245 0.0697199 3.66045e-20)
(0.889039 0.107425 -7.07429e-20)
(1.03539 0.141916 6.44735e-20)
(1.14595 0.169487 -5.63592e-20)
(1.22131 0.188582 1.01063e-19)
(1.26682 0.199492 4.29337e-20)
(1.28988 0.20362 -1.22093e-19)
(1.2978 0.202758 3.59083e-20)
(1.29655 0.198573 6.14129e-20)
(1.29037 0.192364 -3.01858e-20)
(1.2819 0.185017 0)
(1.27263 0.177085 4.51842e-20)
(1.26329 0.168885 7.66679e-20)
(1.2542 0.160598 1.32563e-20)
(1.24545 0.152332 -6.40495e-20)
(1.23704 0.144158 2.68725e-20)
(1.22892 0.136132 0)
(1.22103 0.128287 -2.12119e-20)
(1.21329 0.120589 -2.0199e-20)
(1.20561 0.113114 0)
(0.0588637 -0.00414268 0)
(0.219924 -0.00249007 2.60454e-20)
(0.414589 0.0224439 4.82701e-20)
(0.621447 0.061267 -1.28611e-19)
(0.818021 0.105423 4.16443e-20)
(0.986015 0.147647 0)
(1.11532 0.182532 6.23264e-20)
(1.20462 0.207424 -8.70317e-20)
(1.25911 0.222254 -5.05459e-20)
(1.28707 0.228607 2.27694e-20)
(1.29706 0.228703 -3.65664e-20)
(1.2962 0.22466 8.87145e-20)
(1.28956 0.218135 4.4399e-20)
(1.28031 0.210258 -3.08508e-20)
(1.27021 0.201717 -2.88486e-21)
(1.26014 0.192898 -8.46799e-20)
(1.25043 0.18401 3.85803e-20)
(1.24121 0.175167 -9.80183e-22)
(1.23247 0.16644 0)
(1.22416 0.157879 -2.69007e-20)
(1.2162 0.149519 0)
(1.20853 0.141365 6.11197e-20)
(1.20105 0.133422 -7.2807e-20)
(1.19363 0.125965 3.32178e-20)
(0.0803317 -0.00158904 -1.36686e-20)
(0.277086 0.00958937 -6.58855e-20)
(0.497492 0.0469027 7.50649e-20)
(0.716767 0.0968179 4.40751e-20)
(0.911454 0.147931 -2.10273e-20)
(1.06602 0.192177 3.53073e-20)
(1.17556 0.225051 -1.7139e-20)
(1.24404 0.245594 2.84513e-20)
(1.28036 0.255361 0)
(1.29451 0.257033 6.43614e-20)
(1.29512 0.253327 -2.68126e-21)
(1.28848 0.246421 -5.18991e-20)
(1.27857 0.23781 2.22166e-20)
(1.26763 0.228399 -2.50811e-20)
(1.25672 0.218688 -9.55913e-21)
(1.24629 0.208936 1.10253e-20)
(1.23648 0.199274 -8.52941e-21)
(1.2273 0.189773 -4.63338e-20)
(1.21868 0.18048 2.83985e-20)
(1.21055 0.171428 5.82622e-21)
(1.20283 0.162632 5.13802e-21)
(1.19542 0.154083 4.53328e-21)
(1.18822 0.145853 0)
(1.18107 0.138203 0)
(0.103645 0.00356425 1.36781e-20)
(0.335885 0.0281947 -1.36847e-20)
(0.578086 0.0795418 -2.50399e-20)
(0.803584 0.139877 0)
(0.990413 0.195742 -1.04567e-20)
(1.12792 0.239463 -9.43056e-21)
(1.21714 0.26834 -1.6093e-20)
(1.26675 0.283437 0)
(1.28819 0.287814 0)
(1.29199 0.284933 0)
(1.28618 0.277709 0)
(1.27593 0.268192 0)
(1.26419 0.257637 -1.39824e-20)
(1.25241 0.24673 6.37091e-21)
(1.24119 0.235813 1.10654e-20)
(1.23072 0.225049 5.17073e-21)
(1.22101 0.214516 1.28125e-20)
(1.212 0.204256 0)
(1.20363 0.194299 -3.07939e-21)
(1.19581 0.184663 -2.9444e-21)
(1.18842 0.175346 -5.14622e-21)
(1.18137 0.166342 -4.54052e-21)
(1.17453 0.157791 0)
(1.16777 0.149782 3.26764e-21)
(-0.00185289 0.023849 8.9645e-21)
(-0.00754658 0.0665073 -9.27433e-21)
(-0.0168838 0.104086 -1.75193e-20)
(-0.028323 0.135935 0)
(-0.0409365 0.162094 -2.33893e-20)
(-0.0541371 0.183327 7.35527e-21)
(-0.0673956 0.200809 -1.38461e-20)
(-0.0802387 0.215785 0)
(-0.0922718 0.229301 0)
(-0.103178 0.242063 0)
(-0.112706 0.254399 0)
(-0.120652 0.26631 0)
(-0.126839 0.27754 5.40411e-23)
(-0.131102 0.287646 -9.3755e-21)
(-0.133271 0.296059 1.79757e-20)
(-0.133174 0.302117 2.57495e-20)
(-0.130636 0.305099 8.33528e-21)
(-0.125487 0.304243 0)
(-0.117581 0.298795 7.5048e-21)
(-0.106832 0.28808 -2.15449e-20)
(-0.093178 0.271432 -1.39458e-20)
(-0.0765642 0.248475 -1.34116e-20)
(-0.0569629 0.219036 0)
(-0.034686 0.183577 0)
(-0.00307284 0.0262479 -2.69078e-20)
(-0.00975942 0.0725542 4.63079e-20)
(-0.0180675 0.113066 -1.74323e-20)
(-0.0273005 0.147253 -3.29553e-20)
(-0.0369816 0.175154 4.65912e-20)
(-0.0467541 0.197483 -2.92755e-20)
(-0.0562434 0.215389 4.13755e-20)
(-0.0650638 0.230131 2.59266e-20)
(-0.0728445 0.242811 0)
(-0.0792462 0.254215 -2.34759e-20)
(-0.083968 0.264757 -3.65202e-22)
(-0.086747 0.274504 2.07156e-20)
(-0.0873514 0.283245 2.96941e-20)
(-0.0855736 0.290564 3.80331e-20)
(-0.0812229 0.295903 -1.73277e-20)
(-0.0741269 0.298615 -5.12524e-20)
(-0.0641378 0.297998 1.70358e-20)
(-0.0511335 0.293333 -6.3311e-20)
(-0.0349832 0.283921 0)
(-0.0158023 0.269108 1.44746e-20)
(0.00633661 0.248353 1.39209e-20)
(0.0314461 0.221325 1.33874e-20)
(0.0595532 0.188006 0)
(0.0909875 0.149208 0)
(-0.00436767 0.0268234 0)
(-0.0122476 0.0744885 9.24779e-20)
(-0.0196951 0.116585 -3.48647e-20)
(-0.0267365 0.152385 3.28504e-20)
(-0.0332881 0.181718 -9.25829e-20)
(-0.0392119 0.205103 0)
(-0.0443044 0.223529 -5.48205e-20)
(-0.0483011 0.238166 2.56618e-20)
(-0.050897 0.250104 -4.85258e-20)
(-0.0517704 0.260175 2.27514e-20)
(-0.0506064 0.268873 1.31222e-19)
(-0.0471098 0.276357 -6.16868e-20)
(-0.0410152 0.282497 -9.92528e-20)
(-0.032097 0.286949 -3.87843e-20)
(-0.0201654 0.289217 -1.45382e-21)
(-0.00506903 0.288715 1.38305e-19)
(0.0132928 0.28481 -6.56805e-20)
(0.0349649 0.276864 -1.85469e-22)
(0.0599326 0.264261 0)
(0.0880796 0.246404 -6.02015e-20)
(0.119214 0.222902 0)
(0.153109 0.193396 -5.78826e-20)
(0.189601 0.157883 2.17941e-19)
(0.230941 0.116832 2.82077e-21)
(-0.00551335 0.0257852 0)
(-0.014632 0.0725896 -3.69597e-23)
(-0.0215288 0.114757 3.47136e-20)
(-0.0266902 0.151162 -3.25652e-20)
(-0.0302951 0.181319 3.08787e-20)
(-0.0323692 0.205459 1.73072e-19)
(-0.0328689 0.224321 -5.43276e-20)
(-0.031672 0.238897 -5.09107e-20)
(-0.0285805 0.250186 9.64763e-20)
(-0.0233421 0.259014 -1.37423e-19)
(-0.0156791 0.265933 4.26576e-20)
(-0.00531376 0.271191 4.07396e-20)
(0.00800867 0.274766 0)
(0.0245033 0.276418 3.7452e-20)
(0.0443365 0.275756 0)
(0.067617 0.272295 6.82525e-20)
(0.0943892 0.265502 -1.34458e-19)
(0.124628 0.254841 2.81226e-20)
(0.158238 0.239802 1.22166e-19)
(0.195054 0.219918 6.0125e-20)
(0.234829 0.194822 0)
(0.277522 0.164142 -1.717e-19)
(0.321573 0.127908 5.35208e-20)
(0.374522 0.0860094 0)
(-0.00637404 0.0235565 0)
(-0.0166578 0.0676089 -1.10574e-19)
(-0.0234049 0.108293 -3.4469e-20)
(-0.0272259 0.144054 -6.49682e-20)
(-0.0283896 0.174098 6.11699e-20)
(-0.0270068 0.198357 -5.75171e-20)
(-0.0231569 0.217287 1.07661e-19)
(-0.0168588 0.231647 5.09689e-20)
(-0.00804927 0.242287 -1.43242e-19)
(0.00340784 0.249965 9.03336e-20)
(0.0176978 0.255245 -1.28272e-19)
(0.0350261 0.258445 2.82545e-19)
(0.0555906 0.259643 -1.52868e-19)
(0.0795588 0.258722 7.27396e-20)
(0.107051 0.255412 2.12205e-19)
(0.138133 0.249349 -6.47434e-20)
(0.172808 0.240116 -6.08875e-20)
(0.211024 0.227284 -6.19852e-20)
(0.252675 0.210433 0)
(0.297662 0.189173 -1.2091e-19)
(0.34553 0.163166 -1.2114e-19)
(0.397347 0.132155 1.64954e-19)
(0.448323 0.0961428 2.20465e-19)
(0.515142 0.0541171 -2.05535e-19)
(-0.00693813 0.0206802 0)
(-0.0182679 0.0606153 -1.46944e-19)
(-0.0252873 0.0983784 5.72462e-22)
(-0.0284075 0.132117 1.29832e-19)
(-0.0278224 0.160835 0)
(-0.0236463 0.184237 0)
(-0.0160323 0.202527 0)
(-0.00511755 0.21623 -5.032e-20)
(0.00902318 0.226011 -1.03381e-22)
(0.0263875 0.232519 8.84615e-20)
(0.0470339 0.236283 -1.27423e-19)
(0.0710604 0.237648 -5.92581e-22)
(0.0985798 0.23677 0)
(0.129698 0.233633 -7.27021e-20)
(0.164501 0.228087 6.97656e-20)
(0.203041 0.219883 -1.9627e-19)
(0.245353 0.208704 2.57206e-19)
(0.291444 0.194218 6.67973e-20)
(0.34127 0.176074 7.71628e-21)
(0.39501 0.153982 -2.28317e-19)
(0.451847 0.12756 -1.10817e-19)
(0.515031 0.0968083 3.83494e-19)
(0.573464 0.0613736 -2.57585e-19)
(0.657434 0.0198544 0)
(-0.00732419 0.0177284 7.14938e-20)
(-0.0196158 0.0528137 7.34992e-20)
(-0.0272669 0.0864869 -6.87292e-20)
(-0.0302539 0.116862 -1.28525e-19)
(-0.0285815 0.142919 1.21007e-19)
(-0.0223099 0.164263 -1.12425e-19)
(-0.0116177 0.180928 1.58216e-19)
(0.00327939 0.193247 -5.01687e-20)
(0.0221965 0.201713 9.26672e-20)
(0.0450109 0.206847 0)
(0.0716679 0.209108 8.17146e-20)
(0.102175 0.208834 -1.52879e-19)
(0.136587 0.206216 1.48342e-19)
(0.174993 0.201307 -1.39316e-19)
(0.21751 0.194039 0)
(0.264252 0.184251 1.28978e-19)
(0.315365 0.17172 2.5038e-19)
(0.371007 0.15619 -2.36646e-19)
(0.431224 0.137344 -1.1445e-19)
(0.496478 0.115043 -1.17912e-19)
(0.56485 0.0885972 3.25354e-19)
(0.642213 0.0588622 1.06194e-19)
(0.709736 0.0243217 -9.67494e-20)
(0.812356 -0.0144746 9.38622e-20)
(-0.00774759 0.0152009 -7.15037e-20)
(-0.0209947 0.0453273 2.19242e-19)
(-0.0294626 0.0741296 -6.89229e-20)
(-0.0326011 0.100027 1.27934e-19)
(-0.0301863 0.122191 -1.20451e-19)
(-0.0221998 0.140272 1.32605e-22)
(-0.00880366 0.154248 5.23849e-20)
(0.00976386 0.164337 1.93306e-19)
(0.0332736 0.170899 -7.13338e-22)
(0.0615546 0.174343 -8.63125e-20)
(0.0945185 0.17505 0)
(0.132166 0.173321 -7.56979e-20)
(0.174581 0.169349 1.43166e-19)
(0.221911 0.163214 1.38091e-19)
(0.274358 0.154901 -6.4979e-20)
(0.332142 0.144307 -1.60145e-21)
(0.395433 0.131256 -6.12758e-20)
(0.464307 0.115545 1.15003e-19)
(0.538506 0.0968683 1.14439e-19)
(0.618285 0.0753753 -1.1071e-19)
(0.700399 0.0499784 1.03005e-19)
(0.791411 0.0230952 -9.86579e-20)
(0.867248 -0.00946162 0)
(0.980489 -0.0417992 -9.38493e-20)
(-0.00844673 0.0134328 7.12709e-20)
(-0.0226792 0.0389901 -7.32063e-20)
(-0.0318212 0.0625844 6.8606e-20)
(-0.0348699 0.0832893 0)
(-0.0314062 0.10067 0)
(-0.0213309 0.114564 1.10271e-19)
(-0.00474529 0.125006 -1.04172e-19)
(0.0181688 0.132186 9.52781e-20)
(0.0472397 0.136394 -4.50091e-19)
(0.0823613 0.137962 1.69649e-22)
(0.123519 0.137203 7.86113e-20)
(0.17079 0.134373 0)
(0.224319 0.129644 -1.41828e-19)
(0.284273 0.123098 2.68306e-19)
(0.350756 0.114726 -1.91569e-19)
(0.423742 0.104437 -3.10065e-19)
(0.502976 0.0920872 -5.74274e-21)
(0.58789 0.0775467 2.20835e-19)
(0.677333 0.060575 0)
(0.770351 0.0415486 0)
(0.862912 0.0191562 -1.0301e-19)
(0.958899 -0.00300222 9.86624e-20)
(1.03667 -0.0319064 -3.66682e-19)
(1.14107 -0.0549611 3.4334e-19)
(-0.00957889 0.0125216 0)
(-0.0247182 0.0341848 0)
(-0.033881 0.0526672 -2.05436e-19)
(-0.0358335 0.0679734 6.55229e-20)
(-0.0300442 0.0802134 1.36594e-21)
(-0.0163351 0.0895244 1.11773e-19)
(0.00530378 0.0960912 0)
(0.0348284 0.100156 -9.59785e-20)
(0.0722105 0.102004 8.9734e-20)
(0.117468 0.101928 -1.66236e-19)
(0.170653 0.100196 -9.14098e-23)
(0.231808 0.0970181 1.4767e-19)
(0.300886 0.0925257 1.18478e-21)
(0.377653 0.0867644 1.34731e-19)
(0.461589 0.0796935 -1.87265e-19)
(0.551785 0.0712114 0)
(0.646886 0.0611745 2.32837e-19)
(0.745068 0.0494348 -3.30489e-19)
(0.843998 0.0358278 1.03829e-19)
(0.9412 0.0205423 0)
(1.03291 0.00273265 9.36073e-20)
(1.11896 -0.0146051 3.65684e-19)
(1.18672 -0.0385349 -3.43206e-19)
(1.26135 -0.0534393 -3.93757e-19)
(-0.011118 0.0122981 2.14665e-19)
(-0.0267627 0.0307702 -2.9473e-19)
(-0.0346343 0.0445912 1.07809e-21)
(-0.0335753 0.0548158 6.52223e-20)
(-0.0230532 0.062171 -1.20465e-19)
(-0.00282086 0.0671605 -1.11306e-19)
(0.0272589 0.070183 2.05593e-19)
(0.0672814 0.0715893 -2.53564e-21)
(0.117304 0.0717024 -1.79666e-19)
(0.177302 0.0708073 3.33382e-19)
(0.24709 0.0691303 -2.98464e-22)
(0.326215 0.0668169 -1.46597e-19)
(0.413848 0.0639176 0)
(0.508701 0.0603828 0)
(0.608981 0.0560713 -6.25947e-20)
(0.7124 0.0507693 -1.17525e-19)
(0.81626 0.0442347 -2.27127e-19)
(0.917552 0.0361801 2.13191e-19)
(1.0132 0.0264974 -1.03884e-19)
(1.10018 0.0148637 1.93428e-19)
(1.17583 0.00155201 -9.32509e-20)
(1.2386 -0.0130138 1.70218e-19)
(1.28465 -0.0316542 -3.96506e-19)
(1.32245 -0.0432646 7.70585e-20)
(-0.0128043 0.0123739 7.21846e-20)
(-0.0280172 0.0281498 0)
(-0.0325821 0.0379713 1.38947e-19)
(-0.0257385 0.043864 -1.30892e-19)
(-0.00708063 0.0471504 1.20578e-19)
(0.0236401 0.0487115 0)
(0.0665882 0.0491749 0)
(0.121801 0.0490178 -9.60433e-20)
(0.189093 0.0486076 1.75057e-21)
(0.267915 0.0482053 8.47798e-20)
(0.357229 0.0479559 -7.84535e-20)
(0.455412 0.0478741 1.47179e-19)
(0.560222 0.0478392 0)
(0.668855 0.0476042 2.62021e-19)
(0.778075 0.0468221 -4.93696e-19)
(0.884409 0.045085 3.50141e-19)
(0.984399 0.0419918 2.20921e-19)
(1.07484 0.0371358 -2.07383e-19)
(1.1531 0.0304055 0)
(1.21722 0.0212198 0)
(1.26645 0.0107789 0)
(1.30074 -0.00337696 0)
(1.32151 -0.0166658 7.65214e-20)
(1.33219 -0.0321802 -2.67946e-19)
(-0.00742369 0.137197 -8.66739e-21)
(0.0251803 0.0706699 8.73258e-21)
(0.0598723 -0.00819436 -2.79323e-22)
(0.0971946 -0.096797 0)
(0.136436 -0.191707 -7.63034e-21)
(0.176282 -0.288291 1.4384e-20)
(0.215731 -0.381228 -5.76021e-22)
(0.253058 -0.463755 -6.0232e-21)
(0.286066 -0.529842 0)
(0.311976 -0.576147 0)
(0.327599 -0.603585 -2.14725e-22)
(0.329826 -0.617228 -1.77505e-22)
(0.318057 -0.622672 -2.52951e-21)
(0.298099 -0.618876 2.31243e-21)
(0.283207 -0.59365 0)
(0.288475 -0.528907 0)
(0.321539 -0.413542 2.48164e-21)
(0.378351 -0.252209 1.567e-22)
(0.449005 -0.0623337 -2.349e-21)
(0.523675 0.131679 -1.39051e-22)
(0.594226 0.300744 0)
(0.654101 0.422704 0)
(0.698429 0.492632 0)
(0.725829 0.520105 0)
(0.739901 0.519569 0)
(0.743239 0.50867 0)
(0.731403 0.50864 3.10347e-22)
(0.700694 0.524193 -5.04415e-22)
(0.661665 0.524889 0)
(0.637838 0.458886 0)
(0.645029 0.302266 -6.76642e-22)
(0.680532 0.0856862 6.57599e-22)
(0.730189 -0.129486 3.30346e-22)
(0.777123 -0.291976 0)
(0.81288 -0.387315 0)
(0.83509 -0.421973 2.92096e-22)
(0.844885 -0.43144 -2.83933e-22)
(0.831447 -0.440025 0)
(0.792368 -0.456527 2.26298e-22)
(0.742378 -0.432233 -3.30152e-22)
(0.709379 -0.334215 1.26107e-22)
(0.708591 -0.163089 0)
(0.73676 0.0337382 -2.5749e-22)
(0.777503 0.185286 2.50377e-22)
(0.820012 0.297075 0)
(0.833535 0.346135 0)
(0.813951 0.402612 -6.92337e-23)
(0.77213 0.391696 2.0606e-22)
(0.744208 0.325416 0)
(0.748998 0.177548 0)
(0.786921 -0.0147373 -6.57741e-23)
(0.815646 -0.125118 -5.77601e-24)
(0.82977 -0.287042 -8.19592e-24)
(0.802612 -0.311802 3.78104e-23)
(0.792704 -0.363215 0)
(0.789452 -0.277317 0)
(0.803919 -0.0822196 0)
(0.798001 -0.00459304 0)
(0.805644 0.295783 0)
(0.785562 0.254189 0)
(0.126369 0.101025 -8.95867e-22)
(0.162846 0.0329508 -3.8119e-20)
(0.199983 -0.0474178 3.22427e-22)
(0.238641 -0.136894 3.54378e-20)
(0.277588 -0.232214 5.40863e-22)
(0.315638 -0.328755 0)
(0.351625 -0.420404 -2.61363e-20)
(0.383725 -0.49984 4.86967e-20)
(0.409617 -0.560438 -2.25439e-20)
(0.427021 -0.598268 1.57102e-20)
(0.433883 -0.613806 -1.50558e-20)
(0.427722 -0.612915 1.03605e-20)
(0.405941 -0.605015 -1.00864e-20)
(0.369814 -0.59575 -2.42985e-22)
(0.329345 -0.578134 -7.68972e-21)
(0.301713 -0.532504 7.4736e-21)
(0.30194 -0.439403 -8.31356e-21)
(0.333507 -0.295023 7.84297e-21)
(0.389301 -0.114292 -8.6892e-21)
(0.458528 0.0768769 1.63133e-20)
(0.530876 0.250163 -7.65061e-21)
(0.597601 0.38192 -3.50709e-22)
(0.651875 0.464476 -4.49243e-21)
(0.690814 0.503622 8.10769e-21)
(0.71631 0.512316 -3.63652e-21)
(0.728581 0.51021 1.94857e-22)
(0.722654 0.519607 3.50333e-21)
(0.697955 0.541553 6.38644e-22)
(0.668458 0.540515 -8.28812e-21)
(0.657015 0.464688 9.80134e-21)
(0.675186 0.295397 -5.22176e-21)
(0.717357 0.0688219 7.68157e-22)
(0.768655 -0.15021 -3.30999e-22)
(0.81242 -0.310068 5.81432e-22)
(0.841314 -0.399518 0)
(0.854366 -0.427993 0)
(0.856829 -0.430086 -9.65887e-22)
(0.838838 -0.429647 7.26044e-22)
(0.797127 -0.439569 6.36437e-22)
(0.741923 -0.416378 2.09855e-22)
(0.702482 -0.32758 -1.00568e-21)
(0.696463 -0.168011 2.39109e-22)
(0.723516 0.0206055 0)
(0.767244 0.170207 0)
(0.812141 0.287323 0)
(0.828647 0.346213 0)
(0.809773 0.410823 2.76991e-22)
(0.771968 0.401442 -1.38862e-22)
(0.746428 0.328996 0)
(0.753679 0.173089 0)
(0.793083 -0.0232575 0)
(0.82215 -0.130151 -1.16692e-22)
(0.838601 -0.285477 1.52409e-23)
(0.808441 -0.307779 -8.38099e-23)
(0.79872 -0.361569 0)
(0.792097 -0.278321 0)
(0.803316 -0.0832983 4.72487e-23)
(0.795817 -0.0044904 1.18802e-22)
(0.800804 0.297138 0)
(0.783199 0.255332 0)
(0.269278 0.0679029 2.93283e-21)
(0.308381 -0.000612289 -7.8827e-20)
(0.347142 -0.0804078 7.9047e-20)
(0.386668 -0.168925 -7.39101e-20)
(0.425396 -0.262893 -5.44433e-22)
(0.461764 -0.35781 0)
(0.494229 -0.447121 -5.6044e-20)
(0.520522 -0.523006 5.48443e-20)
(0.538084 -0.578537 3.29606e-22)
(0.54515 -0.609701 5.45609e-22)
(0.541129 -0.616663 4.34002e-22)
(0.52569 -0.604451 3.5186e-22)
(0.496995 -0.583056 -1.65633e-20)
(0.452687 -0.563286 1.63431e-20)
(0.3964 -0.546306 0)
(0.342414 -0.516457 3.47114e-22)
(0.310251 -0.448996 -1.32644e-20)
(0.312242 -0.32922 1.31277e-20)
(0.347268 -0.164784 0)
(0.40602 0.0193791 0)
(0.476287 0.193632 -1.1785e-20)
(0.546824 0.333734 2.13314e-20)
(0.609089 0.428634 -1.72078e-20)
(0.65859 0.480124 1.08886e-21)
(0.694879 0.499582 1.27458e-20)
(0.715756 0.507802 -1.27216e-20)
(0.716283 0.527017 1.27372e-20)
(0.698912 0.554833 8.39992e-22)
(0.679928 0.552255 -7.79812e-21)
(0.680714 0.468427 0)
(0.709369 0.289579 0)
(0.757664 0.0555599 4.60477e-21)
(0.809858 -0.165905 -6.01216e-21)
(0.849666 -0.323015 2.47666e-23)
(0.87146 -0.407157 3.21908e-21)
(0.875366 -0.430617 -3.12839e-21)
(0.870411 -0.42683 0)
(0.848193 -0.418378 2.13706e-22)
(0.804775 -0.421957 1.69402e-21)
(0.745382 -0.399989 -3.40148e-21)
(0.699948 -0.32089 1.54908e-21)
(0.688459 -0.17398 1.72757e-22)
(0.713838 0.00572484 -2.01874e-21)
(0.759784 0.153264 1.57684e-21)
(0.806368 0.27623 3.05946e-22)
(0.825685 0.345295 2.79091e-22)
(0.807878 0.418192 -2.77707e-22)
(0.774526 0.410791 0)
(0.75168 0.332726 0)
(0.761166 0.169384 -1.46519e-21)
(0.801455 -0.0312592 6.8624e-22)
(0.830399 -0.134894 -5.8213e-22)
(0.848977 -0.283472 6.83766e-22)
(0.815507 -0.303347 6.4651e-22)
(0.805511 -0.359549 -1.54719e-22)
(0.795606 -0.279144 2.06615e-22)
(0.803924 -0.0840623 -1.69136e-22)
(0.794865 -0.00424436 4.80856e-23)
(0.797035 0.29838 0)
(0.781808 0.256379 0)
(0.412858 0.0375209 -1.64445e-19)
(0.453724 -0.0303231 -1.38481e-21)
(0.494476 -0.10874 1.57967e-19)
(0.53547 -0.195004 -1.19817e-21)
(0.574592 -0.286368 0)
(0.609755 -0.378492 0)
(0.638878 -0.464319 -1.14571e-19)
(0.65914 -0.535618 1.28462e-20)
(0.667845 -0.585441 1.34701e-19)
(0.663738 -0.610224 -7.34911e-21)
(0.647397 -0.610732 -3.15496e-20)
(0.620685 -0.591332 -1.89016e-20)
(0.584701 -0.559888 1.90185e-20)
(0.537134 -0.527949 0)
(0.47541 -0.504105 -1.06533e-20)
(0.40584 -0.482003 9.72678e-21)
(0.346543 -0.438326 0)
(0.317458 -0.348835 0)
(0.326772 -0.208817 1.07867e-20)
(0.369169 -0.0379664 -1.41528e-22)
(0.432357 0.133259 -9.70136e-21)
(0.503167 0.279458 -8.14775e-21)
(0.570947 0.385687 8.02055e-21)
(0.62944 0.449742 -6.17335e-21)
(0.675373 0.481102 1.84027e-22)
(0.704319 0.500609 5.63513e-21)
(0.711732 0.529543 7.79547e-22)
(0.702605 0.562735 8.73426e-24)
(0.69458 0.559449 0)
(0.707372 0.470515 1.19645e-20)
(0.745963 0.285422 -1.24212e-20)
(0.799913 0.046888 8.17211e-22)
(0.852657 -0.176622 0)
(0.888259 -0.331417 -6.13252e-22)
(0.902993 -0.410846 6.61466e-21)
(0.897975 -0.430207 -1.06221e-20)
(0.885507 -0.422023 5.14575e-22)
(0.859156 -0.406784 6.04464e-22)
(0.814845 -0.404073 2.6026e-21)
(0.752592 -0.382849 3.50289e-22)
(0.701869 -0.31361 -2.99786e-21)
(0.684719 -0.180424 2.49861e-21)
(0.707737 -0.0104422 5.91589e-23)
(0.755004 0.134711 1.25316e-21)
(0.802592 0.263818 -1.52537e-21)
(0.824593 0.343194 -1.91464e-21)
(0.808256 0.424489 5.33572e-22)
(0.779747 0.419612 1.37402e-21)
(0.759972 0.336725 -2.87966e-21)
(0.771461 0.166662 2.26278e-21)
(0.811993 -0.0385389 -5.94276e-22)
(0.84028 -0.139349 7.9732e-22)
(0.860765 -0.281082 5.93943e-22)
(0.823752 -0.298452 -9.81897e-22)
(0.81299 -0.357084 3.19575e-23)
(0.799855 -0.279793 -1.60763e-22)
(0.805659 -0.0845527 0)
(0.795086 -0.00384013 -8.21197e-23)
(0.794306 0.29953 1.04496e-22)
(0.781395 0.257343 0)
(0.553325 0.00786551 1.64303e-19)
(0.595879 -0.0578052 -3.24887e-19)
(0.63904 -0.133599 1.57994e-19)
(0.682062 -0.216054 1.5261e-19)
(0.721556 -0.303139 -2.91994e-19)
(0.755003 -0.390535 1.01714e-20)
(0.77992 -0.47084 1.26721e-19)
(0.793056 -0.535952 9.69603e-20)
(0.791936 -0.579428 -9.49243e-20)
(0.776277 -0.598314 0)
(0.747861 -0.594049 -4.9653e-20)
(0.709736 -0.571203 8.62187e-20)
(0.665223 -0.535582 -3.69133e-20)
(0.614931 -0.495451 0)
(0.554693 -0.461549 0)
(0.482076 -0.437521 2.79312e-22)
(0.406779 -0.409099 -1.43866e-20)
(0.350025 -0.349521 1.39778e-20)
(0.330089 -0.241031 0)
(0.350338 -0.0914117 1.52936e-20)
(0.401251 0.0715818 -2.8158e-20)
(0.468144 0.220516 2.53397e-20)
(0.538312 0.336208 -2.27313e-20)
(0.603447 0.41245 3.68088e-22)
(0.657314 0.456375 2.01527e-20)
(0.693556 0.487703 -1.02245e-20)
(0.708101 0.526114 -3.84439e-22)
(0.707808 0.564539 -7.61787e-21)
(0.710868 0.561985 -2.22916e-21)
(0.735022 0.471229 9.77665e-21)
(0.78298 0.283389 8.07436e-22)
(0.842496 0.0423603 -1.33417e-20)
(0.895905 -0.182267 2.45584e-20)
(0.927437 -0.335014 -1.25556e-20)
(0.935281 -0.410428 0)
(0.921777 -0.426652 -5.59763e-21)
(0.901918 -0.415599 5.27543e-21)
(0.871549 -0.395068 -2.45977e-21)
(0.826985 -0.386461 3.08291e-21)
(0.763237 -0.365393 -2.66367e-22)
(0.708168 -0.305656 0)
(0.685274 -0.186884 -2.93694e-22)
(0.705052 -0.0275371 9.13116e-22)
(0.752674 0.114761 0)
(0.800632 0.250018 2.57654e-21)
(0.825232 0.339649 -1.01414e-21)
(0.810797 0.42945 5.48185e-22)
(0.787466 0.427775 6.54372e-22)
(0.771153 0.341043 0)
(0.78444 0.165068 0)
(0.824624 -0.0449162 -2.17066e-21)
(0.851664 -0.143466 3.16681e-21)
(0.873806 -0.278269 -1.59505e-21)
(0.833124 -0.293003 4.21621e-22)
(0.821089 -0.354106 5.78693e-22)
(0.804715 -0.280301 1.60914e-22)
(0.808425 -0.0848213 -1.92455e-22)
(0.796409 -0.00327582 0)
(0.792574 0.300601 -1.6673e-22)
(0.78196 0.258228 -1.91902e-23)
(0.694873 -0.0229067 1.61104e-19)
(0.73743 -0.0854036 -1.60592e-19)
(0.78232 -0.156493 1.25047e-21)
(0.826264 -0.232999 -1.15501e-21)
(0.864309 -0.313708 1.14425e-21)
(0.89387 -0.394052 -1.05396e-21)
(0.912321 -0.466639 1.80582e-21)
(0.916393 -0.524152 0)
(0.904305 -0.561105 -1.31862e-21)
(0.877011 -0.575182 1.07359e-21)
(0.837613 -0.567962 8.48263e-22)
(0.789962 -0.544019 -6.6775e-22)
(0.737827 -0.508456 0)
(0.683908 -0.466149 0)
(0.626522 -0.424742 2.554e-22)
(0.55952 -0.392798 0)
(0.481917 -0.36802 -1.34745e-22)
(0.407468 -0.330583 0)
(0.359202 -0.255481 -9.29976e-21)
(0.352066 -0.135014 1.83141e-20)
(0.3846 0.0127535 -1.79685e-20)
(0.442901 0.158918 8.73923e-21)
(0.511752 0.281128 7.68946e-21)
(0.580539 0.368535 -7.46723e-21)
(0.640184 0.425208 -8.77305e-21)
(0.682715 0.468549 8.55694e-21)
(0.704378 0.516138 0)
(0.713188 0.559966 3.94633e-22)
(0.727103 0.559864 0)
(0.761749 0.470663 0)
(0.818235 0.283616 2.56328e-20)
(0.883636 0.0420974 -2.64291e-20)
(0.938641 -0.182828 1.5886e-21)
(0.966473 -0.333937 1.3042e-21)
(0.967752 -0.406166 -9.74309e-22)
(0.94638 -0.42015 -4.89622e-21)
(0.91939 -0.407629 4.75428e-21)
(0.885077 -0.383407 -3.05372e-21)
(0.840695 -0.369468 2.59536e-21)
(0.776781 -0.347897 5.00598e-22)
(0.718474 -0.296857 -2.12546e-21)
(0.689917 -0.193 -2.70054e-22)
(0.705539 -0.0452811 1.50771e-21)
(0.752519 0.0935833 0)
(0.800253 0.234716 -9.17236e-22)
(0.827386 0.334383 1.53838e-21)
(0.815295 0.432808 -1.97107e-21)
(0.797402 0.435132 -6.58565e-22)
(0.78493 0.345662 0)
(0.799884 0.164746 8.2307e-22)
(0.839217 -0.0501839 -1.70738e-21)
(0.864398 -0.147165 2.50153e-23)
(0.887904 -0.275029 -5.11746e-22)
(0.843558 -0.286932 5.7744e-22)
(0.829756 -0.350525 -5.67079e-22)
(0.810062 -0.280684 0)
(0.812112 -0.0849293 1.92543e-22)
(0.798751 -0.00255366 0)
(0.791794 0.301599 0)
(0.783499 0.259034 2.9436e-23)
(0.845579 -0.0540813 -1.56439e-19)
(0.884148 -0.111979 1.54857e-19)
(0.926976 -0.175851 -1.14302e-21)