/*--------------------------------*- C++ -*----------------------------------*\
| =========                 |                                                 |
| \\      /  F ield         | OpenFOAM: The Open Source CFD Toolbox           |
|  \\    /   O peration     | Version:  2512                                  |
|   \\  /    A nd           | Website:  www.openfoam.com                      |
|    \\/     M anipulation  |                                                 |
\*---------------------------------------------------------------------------*/
FoamFile
{
    version     2.0;
    format      ascii;
    arch        "LSB;label=32;scalar=64";
    class       volScalarField;
    location    "98.75";
    object      p;
}
// * * * * * * * * * * * * * * * * * * * * * * * * * * * * * * * * * * * * * //

dimensions      [0 2 -2 0 0 0 0];

internalField   nonuniform List<scalar> 
13248
(
-0.3064
-0.305507
-0.303496
-0.300588
-0.296996
-0.292874
-0.288364
-0.28361
-0.278755
-0.273936
-0.269276
-0.264877
-0.260809
-0.257106
-0.253758
-0.250717
-0.247896
-0.245186
-0.242456
-0.239605
-0.236421
-0.23295
-0.228365
-0.223285
-0.314021
-0.312251
-0.309552
-0.306104
-0.302079
-0.297626
-0.292866
-0.287904
-0.282833
-0.277735
-0.272677
-0.26771
-0.262861
-0.258135
-0.253511
-0.248947
-0.24439
-0.239776
-0.235043
-0.230125
-0.224927
-0.219389
-0.213236
-0.207039
-0.323455
-0.320604
-0.317054
-0.312942
-0.308378
-0.303493
-0.298371
-0.293053
-0.287562
-0.281917
-0.276132
-0.270229
-0.264226
-0.258143
-0.251997
-0.245802
-0.239569
-0.233302
-0.226993
-0.220628
-0.214138
-0.207527
-0.200596
-0.193813
-0.334657
-0.330555
-0.326023
-0.321139
-0.315928
-0.310479
-0.304811
-0.298883
-0.292642
-0.286056
-0.279125
-0.271884
-0.264399
-0.256749
-0.249022
-0.241294
-0.233629
-0.226064
-0.218611
-0.211257
-0.203961
-0.196719
-0.189396
-0.18246
-0.347615
-0.342129
-0.336522
-0.330784
-0.324807
-0.318608
-0.312117
-0.305208
-0.297776
-0.28979
-0.281294
-0.272399
-0.263251
-0.254009
-0.244814
-0.235778
-0.226971
-0.218427
-0.210147
-0.20211
-0.194278
-0.186632
-0.179087
-0.171958
-0.362307
-0.355343
-0.348608
-0.341942
-0.335046
-0.327823
-0.320111
-0.31173
-0.302593
-0.292746
-0.282344
-0.271605
-0.260763
-0.250024
-0.239544
-0.229424
-0.219711
-0.210416
-0.201517
-0.19298
-0.184765
-0.176838
-0.169138
-0.161878
-0.378615
-0.370124
-0.362233
-0.354548
-0.3465
-0.337859
-0.328403
-0.317985
-0.306636
-0.294556
-0.282046
-0.269425
-0.256973
-0.244896
-0.233322
-0.222312
-0.211875
-0.201989
-0.192615
-0.183705
-0.175212
-0.167089
-0.159299
-0.151935
-0.39625
-0.386238
-0.377172
-0.368318
-0.358772
-0.348192
-0.336394
-0.323388
-0.309418
-0.294885
-0.280221
-0.265799
-0.251887
-0.238646
-0.226148
-0.214401
-0.203375
-0.19302
-0.183277
-0.174088
-0.165398
-0.157155
-0.14933
-0.141915
-0.414694
-0.403231
-0.392958
-0.382695
-0.371188
-0.35807
-0.343345
-0.32731
-0.310486
-0.293459
-0.276735
-0.260674
-0.245483
-0.231249
-0.217978
-0.205625
-0.194124
-0.183402
-0.173384
-0.164002
-0.155191
-0.146899
-0.139088
-0.131675
-0.433176
-0.420389
-0.408837
-0.396825
-0.382809
-0.366564
-0.348451
-0.329147
-0.309444
-0.290048
-0.27146
-0.253968
-0.237688
-0.222624
-0.208716
-0.195876
-0.184008
-0.173017
-0.162815
-0.15332
-0.144462
-0.136184
-0.128427
-0.121068
-0.450687
-0.436733
-0.423772
-0.40958
-0.392493
-0.372633
-0.350865
-0.328268
-0.305836
-0.284304
-0.264099
-0.2454
-0.228221
-0.212486
-0.19808
-0.184877
-0.172754
-0.1616
-0.151313
-0.141799
-0.132981
-0.124792
-0.117139
-0.109908
-0.466072
-0.451151
-0.436615
-0.419777
-0.399083
-0.375233
-0.349689
-0.323897
-0.298964
-0.275568
-0.254009
-0.234338
-0.216465
-0.200241
-0.1855
-0.172084
-0.159849
-0.148664
-0.138415
-0.129001
-0.12034
-0.112349
-0.104911
-0.0979651
-0.326168
-0.328663
-0.330088
-0.330898
-0.33149
-0.33197
-0.33237
-0.332708
-0.332978
-0.333163
-0.333238
-0.333179
-0.332968
-0.332599
-0.332085
-0.331461
-0.33079
-0.330164
-0.329713
-0.329599
-0.330008
-0.331115
-0.33312
-0.336377
-0.318822
-0.320981
-0.322112
-0.322595
-0.322774
-0.322745
-0.322554
-0.322229
-0.321784
-0.321224
-0.320553
-0.319785
-0.318949
-0.318095
-0.317298
-0.316663
-0.316325
-0.316446
-0.317215
-0.31884
-0.321531
-0.325463
-0.330773
-0.337827
-0.312759
-0.314487
-0.315281
-0.315431
-0.315214
-0.314714
-0.31398
-0.313056
-0.311972
-0.310756
-0.309441
-0.308074
-0.306722
-0.305481
-0.304473
-0.303851
-0.303802
-0.304531
-0.306255
-0.309193
-0.31356
-0.3195
-0.327054
-0.336611
-0.307778
-0.309056
-0.309506
-0.309332
-0.308736
-0.307791
-0.306551
-0.30507
-0.3034
-0.301589
-0.299697
-0.297799
-0.295995
-0.294413
-0.293208
-0.292552
-0.29268
-0.293803
-0.296148
-0.299929
-0.305331
-0.31248
-0.321342
-0.331965
-0.303669
-0.304551
-0.304686
-0.304201
-0.30324
-0.301865
-0.300135
-0.298118
-0.295884
-0.293507
-0.291069
-0.288671
-0.286436
-0.284514
-0.283081
-0.282335
-0.282497
-0.283791
-0.286434
-0.29062
-0.296496
-0.304147
-0.313638
-0.324269
-0.300279
-0.300873
-0.30074
-0.29996
-0.298641
-0.296838
-0.294618
-0.292064
-0.289269
-0.28633
-0.283355
-0.280466
-0.277805
-0.275539
-0.273853
-0.272953
-0.273052
-0.274366
-0.27709
-0.281388
-0.287381
-0.295009
-0.304674
-0.314533
-0.297564
-0.297997
-0.29765
-0.296589
-0.294912
-0.292677
-0.289964
-0.286875
-0.283525
-0.280034
-0.276537
-0.273178
-0.270116
-0.26753
-0.265613
-0.264567
-0.264599
-0.265904
-0.268642
-0.272929
-0.278896
-0.286171
-0.29577
-0.304239
-0.295613
-0.295991
-0.295471
-0.294137
-0.292105
-0.289445
-0.286256
-0.282659
-0.27879
-0.274799
-0.270841
-0.267084
-0.263704
-0.26089
-0.258836
-0.257739
-0.257786
-0.25914
-0.261932
-0.266164
-0.272012
-0.27864
-0.287781
-0.294449
-0.294647
-0.295016
-0.294334
-0.292729
-0.290354
-0.287301
-0.283686
-0.279652
-0.275358
-0.270976
-0.266685
-0.262668
-0.259117
-0.256221
-0.25417
-0.253137
-0.25327
-0.254677
-0.257422
-0.261396
-0.266781
-0.272434
-0.280341
-0.285097
-0.294972
-0.29529
-0.29442
-0.29254
-0.289844
-0.286453
-0.282499
-0.278144
-0.273563
-0.268947
-0.264486
-0.260371
-0.256791
-0.253924
-0.251928
-0.250931
-0.25102
-0.252226
-0.254536
-0.257784
-0.262051
-0.266374
-0.272189
-0.27509
-0.296905
-0.297038
-0.295908
-0.293731
-0.290738
-0.287068
-0.28287
-0.278313
-0.273583
-0.268864
-0.264351
-0.260223
-0.256648
-0.253767
-0.251686
-0.250468
-0.250121
-0.250599
-0.251805
-0.253596
-0.25591
-0.25836
-0.261611
-0.262914
-0.300683
-0.300424
-0.298919
-0.296397
-0.293104
-0.28919
-0.284808
-0.280126
-0.275316
-0.270554
-0.266008
-0.261828
-0.258139
-0.25503
-0.252543
-0.250671
-0.249354
-0.248486
-0.247916
-0.247522
-0.247117
-0.246772
-0.246644
-0.246504
-0.342142
-0.350882
-0.361633
-0.373562
-0.385313
-0.394896
-0.39997
-0.398329
-0.387906
-0.367108
-0.335977
-0.296632
-0.253416
-0.211699
-0.176148
-0.149567
-0.132802
-0.125722
-0.128476
-0.140995
-0.160349
-0.179047
-0.187363
-0.179707
-0.158043
-0.130496
-0.105161
-0.0867683
-0.0766154
-0.0736857
-0.0769976
-0.0880173
-0.107639
-0.130134
-0.143415
-0.138411
-0.118755
-0.0947858
-0.0755427
-0.0633321
-0.0570239
-0.0577701
-0.0660825
-0.0762804
-0.0788293
-0.0712408
-0.0605351
-0.0511953
-0.0450163
-0.0436402
-0.0453952
-0.0469799
-0.0453027
-0.0398736
-0.0349245
-0.0283033
-0.0195074
-0.0157052
-0.0117984
-0.00509135
-0.349418
-0.363741
-0.379763
-0.396436
-0.412094
-0.424535
-0.431157
-0.429888
-0.418509
-0.395443
-0.360689
-0.316625
-0.268031
-0.220773
-0.17986
-0.148263
-0.126795
-0.115078
-0.112883
-0.120134
-0.134826
-0.15098
-0.159929
-0.155563
-0.139028
-0.116807
-0.0961024
-0.0815907
-0.0747433
-0.0746598
-0.080724
-0.0948791
-0.117779
-0.14274
-0.156622
-0.14995
-0.127466
-0.100296
-0.0780186
-0.0631785
-0.05461
-0.0529096
-0.0586823
-0.0669999
-0.0691037
-0.0632501
-0.0550956
-0.0485614
-0.0446438
-0.0457864
-0.0499198
-0.0525869
-0.0509272
-0.0437571
-0.0374984
-0.029196
-0.0187591
-0.0139202
-0.00932512
-0.00393487
-0.352158
-0.370508
-0.389898
-0.409597
-0.427881
-0.442461
-0.449854
-0.448842
-0.437044
-0.412699
-0.375738
-0.328653
-0.276508
-0.225469
-0.180747
-0.14533
-0.119914
-0.103967
-0.0969518
-0.0988629
-0.10858
-0.121635
-0.130666
-0.129476
-0.117958
-0.101068
-0.0851345
-0.0747022
-0.071305
-0.0741351
-0.0829478
-0.100046
-0.125856
-0.153011
-0.167574
-0.159604
-0.134744
-0.104801
-0.0798279
-0.0626023
-0.0519862
-0.0480429
-0.0514216
-0.0579452
-0.0595743
-0.0552987
-0.0494898
-0.0456593
-0.0440257
-0.0478312
-0.0544915
-0.0582574
-0.0565075
-0.0474799
-0.0398666
-0.0300023
-0.01803
-0.0121831
-0.00691565
-0.0028144
-0.34993
-0.370462
-0.391512
-0.412699
-0.432499
-0.449704
-0.456034
-0.455223
-0.443474
-0.418775
-0.381003
-0.332698
-0.279015
-0.226208
-0.179465
-0.141623
-0.113268
-0.0937929
-0.0825207
-0.079296
-0.0837891
-0.0930838
-0.101344
-0.102734
-0.0956481
-0.0838537
-0.0726189
-0.0662527
-0.0662258
-0.0718287
-0.0831565
-0.102804
-0.131138
-0.160346
-0.175817
-0.167115
-0.140413
-0.108203
-0.0809702
-0.0616795
-0.0492684
-0.0433468
-0.0445481
-0.0493882
-0.0504765
-0.0475609
-0.0438172
-0.0425284
-0.0431383
-0.0496925
-0.0589967
-0.063895
-0.0619607
-0.0509972
-0.0419992
-0.0306976
-0.0173171
-0.0105114
-0.00458759
-0.00173742
-0.343058
-0.364239
-0.38558
-0.406882
-0.426106
-0.438745
-0.449746
-0.450165
-0.438944
-0.414677
-0.377374
-0.329638
-0.276525
-0.224015
-0.176968
-0.138005
-0.107683
-0.0854219
-0.0705203
-0.0627429
-0.0620881
-0.067105
-0.0735682
-0.0764628
-0.0728872
-0.06578
-0.0589348
-0.0563592
-0.0594156
-0.0675052
-0.0809849
-0.102723
-0.133191
-0.164277
-0.180944
-0.172224
-0.144382
-0.110491
-0.0814927
-0.0605005
-0.0465677
-0.0389505
-0.0382186
-0.0415282
-0.0420203
-0.0401887
-0.0381757
-0.0391999
-0.0419481
-0.0512796
-0.0633013
-0.0693717
-0.0672034
-0.054264
-0.0438698
-0.0312599
-0.0166175
-0.0089203
-0.0023562
-0.000710605
-0.333018
-0.353613
-0.374157
-0.394998
-0.416006
-0.427701
-0.436228
-0.436257
-0.425401
-0.402045
-0.366313
-0.320768
-0.270114
-0.219738
-0.173933
-0.135034
-0.103644
-0.0793419
-0.0614903
-0.0498142
-0.0444515
-0.0449659
-0.0487604
-0.0517568
-0.0507137
-0.0476021
-0.0445442
-0.0452409
-0.0509563
-0.0611663
-0.0763863
-0.0996931
-0.131796
-0.164574
-0.182711
-0.174757
-0.146593
-0.111678
-0.0814392
-0.0591333
-0.0439569
-0.0349272
-0.0325254
-0.0344894
-0.0343643
-0.0333115
-0.0326569
-0.0357048
-0.0404272
-0.0524952
-0.067252
-0.0745435
-0.0721484
-0.0572411
-0.0454574
-0.031666
-0.0159256
-0.00742156
-0.000233279
0.000261784
-0.321728
-0.340463
-0.358724
-0.376795
-0.391707
-0.407727
-0.4156
-0.415229
-0.404774
-0.382827
-0.349696
-0.307753
-0.261095
-0.214286
-0.170932
-0.133062
-0.101365
-0.075689
-0.0555662
-0.0407198
-0.0312918
-0.0274291
-0.0279592
-0.0300048
-0.0300991
-0.0301119
-0.0300165
-0.0333172
-0.0411513
-0.0530267
-0.0694997
-0.0937917
-0.126959
-0.161209
-0.18104
-0.174652
-0.147031
-0.111787
-0.0808441
-0.0576211
-0.0414792
-0.0313068
-0.0274918
-0.0283093
-0.0275953
-0.027042
-0.0273531
-0.0320842
-0.038556
-0.0532426
-0.0706957
-0.079272
-0.0767022
-0.0598906
-0.0467457
-0.0318992
-0.0152351
-0.00602059
0.00177355
0.0011781
-0.310106
-0.32573
-0.341331
-0.358006
-0.372208
-0.383893
-0.389867
-0.388936
-0.379007
-0.359052
-0.32946
-0.292215
-0.250621
-0.208312
-0.168213
-0.132092
-0.100728
-0.0742714
-0.0525175
-0.0352444
-0.0225334
-0.014751
-0.0117478
-0.0120652
-0.0139254
-0.0140515
-0.0159396
-0.0210939
-0.0304015
-0.0434052
-0.0606385
-0.0853419
-0.118978
-0.154393
-0.176146
-0.17194
-0.145696
-0.110855
-0.0797346
-0.0559904
-0.0391598
-0.0280981
-0.0231071
-0.0229687
-0.0217289
-0.0214429
-0.0223557
-0.0283853
-0.0363334
-0.0534391
-0.0734909
-0.0834188
-0.080771
-0.0621805
-0.0477244
-0.0319584
-0.0145493
-0.00472199
0.00366158
0.00203918
-0.2974
-0.308814
-0.322771
-0.335335
-0.34743
-0.355872
-0.360458
-0.359149
-0.350172
-0.332869
-0.307532
-0.275625
-0.2396
-0.202193
-0.165735
-0.131806
-0.10129
-0.0745917
-0.0517907
-0.0327937
-0.0176237
-0.0066289
-0.000173317
0.00212898
0.00166706
0.000489792
-0.00273272
-0.00900611
-0.0191149
-0.032672
-0.0501462
-0.0747734
-0.108469
-0.144691
-0.168396
-0.166839
-0.142736
-0.109034
-0.078258
-0.0543682
-0.0370973
-0.0253524
-0.0193716
-0.0184439
-0.0167478
-0.0165312
-0.0177461
-0.0246606
-0.0337572
-0.0530259
-0.0755176
-0.0868559
-0.0842759
-0.0641004
-0.0483984
-0.0318562
-0.0138875
-0.00354832
0.00542892
0.00284841
-0.282408
-0.288452
-0.297811
-0.310262
-0.319304
-0.32593
-0.32969
-0.328451
-0.321023
-0.306898
-0.286152
-0.259711
-0.22924
-0.196709
-0.163963
-0.132452
-0.103157
-0.07667
-0.0532954
-0.0331116
-0.0161422
-0.00264404
0.0068922
0.0121945
0.0138536
0.0129873
0.00934293
0.00267276
-0.007649
-0.0212601
-0.0386289
-0.0628724
-0.0960585
-0.132687
-0.158273
-0.159687
-0.138458
-0.10668
-0.076763
-0.0530285
-0.0354981
-0.0231852
-0.0162894
-0.014686
-0.0126592
-0.0123968
-0.0135764
-0.0209439
-0.0308938
-0.0519689
-0.0766644
-0.0894709
-0.087155
-0.0656501
-0.0487895
-0.031589
-0.0132546
-0.00252883
0.00706339
0.0036106
-0.265489
-0.269311
-0.277914
-0.285241
-0.291475
-0.296985
-0.300236
-0.299579
-0.294154
-0.283429
-0.267264
-0.246117
-0.220987
-0.193203
-0.16418
-0.135214
-0.107353
-0.0813482
-0.0576918
-0.0366425
-0.0182976
-0.00283327
0.00933922
0.0176951
0.0220957
0.0229282
0.0199234
0.0136366
0.00372668
-0.00935607
-0.0261395
-0.0497621
-0.0827545
-0.119704
-0.146137
-0.150669
-0.132595
-0.103544
-0.0750503
-0.0517319
-0.0341602
-0.0214339
-0.0136826
-0.0114326
-0.0092845
-0.00906927
-0.0100301
-0.017287
-0.0276695
-0.0502124
-0.0769737
-0.0911821
-0.0892459
-0.0667216
-0.0488694
-0.0310752
-0.0125806
-0.00161604
0.00856067
0.00432856
-0.248132
-0.252055
-0.256504
-0.260935
-0.264898
-0.268825
-0.271214
-0.270823
-0.266931
-0.258979
-0.24667
-0.230084
-0.209695
-0.186316
-0.160983
-0.134806
-0.108822
-0.0838817
-0.060618
-0.0394487
-0.0206106
-0.00428072
0.00935704
0.0199865
0.0271415
0.0301801
0.0288115
0.0232341
0.0141468
0.00190187
-0.0141453
-0.0367717
-0.0685752
-0.104673
-0.131571
-0.137577
-0.123429
-0.0975883
-0.0710651
-0.0486856
-0.0316645
-0.0190777
-0.0109458
-0.00819201
-0.00599195
-0.00598261
-0.00688165
-0.0138769
-0.0244516
-0.0478272
-0.0761873
-0.0919011
-0.090311
-0.0670456
-0.0484576
-0.0301666
-0.0117337
-0.000654851
0.0100028
0.00501364
-0.233293
-0.24339
-0.24624
-0.247361
-0.249003
-0.251415
-0.252776
-0.25171
-0.247452
-0.239548
-0.227799
-0.212294
-0.193433
-0.171899
-0.148571
-0.124399
-0.10028
-0.0769585
-0.054986
-0.0347435
-0.0164669
-0.000338454
0.013487
0.0248016
0.0332662
0.0385992
0.0384877
0.03412
0.0264178
0.0156408
0.000648872
-0.0220687
-0.0561022
-0.0956278
-0.125117
-0.131928
-0.11591
-0.0902982
-0.0649866
-0.0438595
-0.0278367
-0.0158588
-0.00798102
-0.00511205
-0.00269335
-0.00234165
-0.00231139
-0.00915487
-0.019866
-0.044316
-0.0751619
-0.0928412
-0.0919057
-0.0669612
-0.0475612
-0.0290179
-0.0108088
0.000347419
0.0113956
0.00565672
-0.216459
-0.228931
-0.231853
-0.231079
-0.230882
-0.231636
-0.231804
-0.229907
-0.225165
-0.217278
-0.206191
-0.192022
-0.17508
-0.155875
-0.135077
-0.113429
-0.0916523
-0.0703755
-0.0500927
-0.0311702
-0.0138631
0.00163701
0.0152347
0.0267803
0.0358702
0.0412252
0.0431251
0.0404996
0.0345201
0.0254596
0.0117143
-0.0109395
-0.0462946
-0.0868499
-0.115398
-0.120111
-0.104664
-0.0810616
-0.0581261
-0.0389133
-0.0242503
-0.0130838
-0.00547138
-0.00249856
-0.000128351
0.000220373
0.000493983
-0.00585618
-0.0162687
-0.0411614
-0.0737317
-0.09246
-0.0915923
-0.0660543
-0.0460579
-0.02757
-0.00983965
0.00129758
0.0124553
0.00612177
-0.199396
-0.21264
-0.215906
-0.21444
-0.212898
-0.212318
-0.211553
-0.209155
-0.20433
-0.196852
-0.186731
-0.174064
-0.159049
-0.142033
-0.123511
-0.104073
-0.0843241
-0.0648178
-0.0460132
-0.0282722
-0.0118537
0.00303413
0.0162639
0.0276953
0.0370564
0.0433457
0.0461241
0.0447531
0.0401629
0.0323595
0.0192347
-0.00369691
-0.038822
-0.0771468
-0.102897
-0.106488
-0.0925723
-0.0716826
-0.05134
-0.0340471
-0.0206912
-0.010359
-0.00308141
-6.58038e-05
0.00225547
0.00259968
0.00294118
-0.00331766
-0.0136589
-0.0385919
-0.0716569
-0.0906666
-0.0901153
-0.0645558
-0.0441452
-0.0258958
-0.00879348
0.00222036
0.0133424
0.00649572
-0.183431
-0.195997
-0.199331
-0.197703
-0.195478
-0.194074
-0.192694
-0.190039
-0.185327
-0.178336
-0.169095
-0.157701
-0.1443
-0.129144
-0.11261
-0.0951697
-0.0773219
-0.0595384
-0.0422233
-0.0257157
-0.0102689
0.00390162
0.0166335
0.027786
0.0372547
0.0438948
0.0474362
0.0473117
0.0440784
0.037477
0.0249874
0.00234928
-0.0312031
-0.0663816
-0.0892466
-0.0919448
-0.0798851
-0.0619698
-0.044387
-0.0291083
-0.0171093
-0.00768844
-0.000814785
0.00219868
0.00452531
0.00490317
0.00535052
-0.000899019
-0.0112046
-0.0356728
-0.0684999
-0.0876799
-0.0875789
-0.0624326
-0.0418486
-0.0239652
-0.00765115
0.00309271
0.0140682
0.00679755
-0.167554
-0.179299
-0.182722
-0.18121
-0.178756
-0.176881
-0.17509
-0.172297
-0.167771
-0.161282
-0.152865
-0.142623
-0.130678
-0.117215
-0.10251
-0.0869259
-0.0708628
-0.0547186
-0.0388496
-0.0235727
-0.00913738
0.00423644
0.0163655
0.0270893
0.0365811
0.043075
0.0471653
0.0480305
0.0459828
0.0405875
0.0291173
0.00771081
-0.0233538
-0.0548136
-0.0743892
-0.0766794
-0.0669199
-0.0522307
-0.0374912
-0.0242407
-0.013576
-0.00509279
0.00132786
0.00429448
0.00666898
0.00709141
0.00766938
0.00157726
-0.00842156
-0.0319255
-0.0642108
-0.0834279
-0.0838067
-0.0595904
-0.039156
-0.0217942
-0.00641243
0.00389566
0.0146059
0.00701142
-0.151953
-0.163066
-0.166516
-0.165191
-0.16272
-0.160616
-0.158599
-0.155786
-0.151519
-0.145569
-0.137962
-0.128798
-0.118182
-0.106247
-0.0931948
-0.0793015
-0.0648897
-0.0502951
-0.0358294
-0.0217827
-0.00839444
0.00411266
0.0155382
0.0256247
0.0339371
0.0411518
0.0455995
0.0471145
0.0459133
0.0414859
0.0312007
0.0118588
-0.0155686
-0.0424753
-0.058838
-0.0614137
-0.0542668
-0.04279
-0.0307972
-0.0195186
-0.0101361
-0.00258495
0.00334749
0.00621869
0.0086706
0.00917299
0.00988715
0.00412436
-0.00527729
-0.0274391
-0.0587881
-0.0777848
-0.0787121
-0.0559786
-0.0360848
-0.0194129
-0.00507989
0.00461354
0.0149285
0.00711779
-0.137307
-0.147546
-0.150873
-0.149742
-0.147388
-0.145247
-0.143176
-0.140453
-0.136505
-0.131112
-0.124289
-0.116126
-0.106713
-0.0961537
-0.0845951
-0.0722488
-0.0593719
-0.0462444
-0.0331354
-0.020306
-0.00798244
0.0036146
0.0142842
0.0237734
0.0318416
0.038589
0.0430904
0.0449819
0.0443105
0.0405531
0.0315316
0.0150019
-0.00784659
-0.0299968
-0.0438566
-0.0470378
-0.0424583
-0.0339281
-0.024446
-0.015022
-0.00684409
-0.000181941
0.00524591
0.00798255
0.010528
0.0111662
0.0120099
0.00671112
-0.0019098
-0.0223557
-0.0522286
-0.0707733
-0.0723205
-0.0515828
-0.0326687
-0.0168662
-0.00366428
0.00523571
0.0150168
0.00710394
-0.123476
-0.132714
-0.135882
-0.134989
-0.132848
-0.130797
-0.12879
-0.126236
-0.122641
-0.117802
-0.111725
-0.10449
-0.0961753
-0.0868626
-0.0766618
-0.0657336
-0.054281
-0.0425354
-0.0307277
-0.0190904
-0.00783351
0.00283027
0.0127073
0.0215672
0.0292107
0.0355152
0.0399138
0.0420073
0.041695
0.038515
0.0309175
0.0175159
-0.000708945
-0.0185608
-0.0304356
-0.034284
-0.0318979
-0.0258629
-0.0185515
-0.0108111
-0.0037464
0.00209827
0.00702398
0.00960696
0.0122467
0.0130866
0.0140286
0.00932335
0.00163688
-0.0167171
-0.0446402
-0.062546
-0.0647518
-0.0464358
-0.0289581
-0.0142131
-0.00218374
0.00576107
0.0148634
0.0069656
-0.110314
-0.118696
-0.121721
-0.121059
-0.11916
-0.117266
-0.115395
-0.113061
-0.109836
-0.105539
-0.100169
-0.0937955
-0.0864873
-0.0783091
-0.0693436
-0.0597135
-0.0495786
-0.039129
-0.0285614
-0.018081
-0.00787891
0.00184495
0.0109075
0.0190957
0.0262173
0.0320808
0.0362901
0.0384829
0.0384756
0.0359101
0.0297741
0.0192447
0.00503809
-0.00915628
-0.019303
-0.0235358
-0.0227837
-0.0187155
-0.013192
-0.00692989
-0.000880417
0.00423375
0.00867679
0.0111092
0.0138333
0.0149538
0.0160128
0.0120138
0.0054119
-0.0106029
-0.0362597
-0.0533639
-0.0562296
-0.0406313
-0.0250191
-0.0115221
-0.000663158
0.00620691
0.01448
0.0067098
-0.098059
-0.105636
-0.108502
-0.107996
-0.106334
-0.104633
-0.102943
-0.100859
-0.0980124
-0.0942386
-0.0895347
-0.0839598
-0.0775732
-0.0704276
-0.0625863
-0.0541431
-0.045224
-0.0359847
-0.0265911
-0.0172222
-0.00804936
0.000743237
0.00898252
0.0164729
0.0230279
0.0284424
0.0324153
0.0346412
0.0349089
0.0329493
0.0281225
0.0199723
0.0090419
-0.0020795
-0.0105878
-0.0148144
-0.0151288
-0.0125218
-0.00841345
-0.00340841
0.00172719
0.00619911
0.0101959
0.0124954
0.0152856
0.0167711
0.0180216
0.0148762
0.00943633
-0.00419842
-0.0274338
-0.0435971
-0.0470837
-0.0343325
-0.0209304
-0.00886308
0.000865692
0.0066174
0.0139045
0.0063616
-0.0867541
-0.0934766
-0.0961041
-0.095771
-0.0943647
-0.0928823
-0.0913984
-0.0895786
-0.0871043
-0.083829
-0.0797468
-0.0749077
-0.0693634
-0.0631573
-0.0563381
-0.0489783
-0.0411772
-0.0330617
-0.0247711
-0.0164594
-0.00827907
-0.000396228
0.00702946
0.0138162
0.0197885
0.0247502
0.0284614
0.0306699
0.0311686
0.0297562
0.0260461
0.0198262
0.0115271
0.0029351
-0.00403363
-0.00793791
-0.00883783
-0.00725886
-0.00423455
-0.000265007
0.00406031
0.00796731
0.0115706
0.0137652
0.0165921
0.0184972
0.0201202
0.0179718
0.0136592
0.0022164
-0.0186163
-0.033712
-0.0377267
-0.0277695
-0.0167828
-0.00629752
0.00236603
0.00706497
0.0132056
0.0059686
-0.0762638
-0.0822002
-0.0846138
-0.0844296
-0.0832651
-0.0820028
-0.0807305
-0.0791728
-0.0770553
-0.074247
-0.0707391
-0.0665741
-0.0617967
-0.056443
-0.0505511
-0.0441769
-0.037399
-0.0303204
-0.0230571
-0.0157412
-0.00850632
-0.00149987
0.00513435
0.0112299
0.0166238
0.0211382
0.0245764
0.0267323
0.0274211
0.0264977
0.023739
0.0190809
0.0128689
0.00632774
0.000764901
-0.00262854
-0.00376482
-0.00286834
-0.00065097
0.00249036
0.0061122
0.00951737
0.0127826
0.0149113
0.017738
0.0200397
0.022271
0.0212054
0.0178791
0.00825509
-0.0103197
-0.0242
-0.0285943
-0.0212209
-0.0126793
-0.00387347
0.00380035
0.00763928
0.0124786
0.00560085
-0.0665873
-0.07183
-0.0740385
-0.0739705
-0.0730236
-0.0719706
-0.070905
-0.0695981
-0.0678137
-0.0654356
-0.0624529
-0.0589011
-0.0548184
-0.050235
-0.0451809
-0.0396995
-0.0338528
-0.0277241
-0.0214098
-0.0150219
-0.00867596
-0.0025018
0.00337266
0.00880106
0.0136356
0.0177188
0.0208853
0.022969
0.0238165
0.0233255
0.0213704
0.017968
0.0133998
0.00852404
0.00421367
0.00139836
0.000249856
0.000726304
0.00236064
0.00485543
0.00788091
0.010842
0.0138081
0.0159076
0.0187003
0.0212893
0.0242472
0.02417
0.0215977
0.0134115
-0.00297297
-0.0154638
-0.0200869
-0.0149876
-0.00873484
-0.00162729
0.00513403
0.00841767
0.0118227
0.00534487
-0.0577604
-0.0623512
-0.0643402
-0.0643375
-0.0636124
-0.0627581
-0.061886
-0.0608117
-0.0593323
-0.0573448
-0.054837
-0.0518381
-0.0483804
-0.0444891
-0.040188
-0.0355106
-0.0305059
-0.025241
-0.0197955
-0.0142631
-0.00874255
-0.00334761
0.00180981
0.00660444
0.0109055
0.0145806
0.0174849
0.0194856
0.0204629
0.0203422
0.0190568
0.0166681
0.0134005
0.00985796
0.00661443
0.00438208
0.00336119
0.00360965
0.00483718
0.0068375
0.0093669
0.0119417
0.0146315
0.0167114
0.019428
0.0221479
0.0253226
0.0262606
0.0241801
0.0172109
0.00315257
-0.00779862
-0.0125224
-0.00935259
-0.0050663
0.000414212
0.00632951
0.00942875
0.0112999
0.00526791
-0.0497298
-0.0537375
-0.0555553
-0.0556918
-0.0550585
-0.05435
-0.0536438
-0.0527746
-0.0515668
-0.0499282
-0.0478447
-0.0453395
-0.0424398
-0.0391663
-0.0355375
-0.0315795
-0.0273307
-0.0228448
-0.0181871
-0.0134353
-0.00867321
-0.00399734
0.000496295
0.00469736
0.00849436
0.0117875
0.0144429
0.0163535
0.0174288
0.017615
0.0168833
0.0153073
0.0130599
0.0105784
0.00821781
0.00653379
0.00571467
0.00586831
0.00682394
0.0084525
0.0105754
0.0128181
0.0152443
0.0172872
0.0198705
0.0225837
0.0257625
0.0271183
0.0253133
0.0194615
0.00789162
-0.00144767
-0.00611764
-0.00453083
-0.00177723
0.0022387
0.0073377
0.0105818
0.0109533
0.00539321
-0.0424007
-0.0458752
-0.0474948
-0.0476591
-0.0472034
-0.0466598
-0.0461121
-0.0454315
-0.044468
-0.0431397
-0.0414323
-0.0393644
-0.0369588
-0.0342322
-0.0311994
-0.0278803
-0.0243048
-0.0205156
-0.0165655
-0.0125186
-0.00844467
-0.0044235
-0.000538004
0.00311616
0.00643908
0.00938477
0.0118013
0.013613
0.0147547
0.0151872
0.0149004
0.0139621
0.0125092
0.0108596
0.00922186
0.00802914
0.00744296
0.00758816
0.008371
0.00972353
0.011516
0.0134745
0.0156438
0.0176109
0.0199977
0.0225604
0.0254124
0.0268027
0.0251901
0.0203422
0.0111955
0.00343307
-0.000967239
-0.000627769
0.00105503
0.00385012
0.00811104
0.0116362
0.0113328
0.00569765
-0.0357544
-0.0387585
-0.0402032
-0.040413
-0.0400937
-0.0396765
-0.0392634
-0.0387465
-0.0379954
-0.0369382
-0.0355602
-0.0338758
-0.0319036
-0.0296575
-0.0271487
-0.0243923
-0.0214115
-0.0182399
-0.0149196
-0.0115026
-0.00804538
-0.00461426
-0.00127754
0.00189233
0.00483953
0.00740145
0.00957705
0.01128
0.0124571
0.0130761
0.013136
0.0126922
0.0118439
0.0107898
0.00977295
0.0090138
0.00866317
0.00885062
0.00953007
0.0106797
0.0122033
0.0139171
0.0158356
0.0176791
0.0198133
0.0221075
0.0244687
0.0256685
0.0242412
0.0202498
0.0132013
0.00685232
0.0022196
0.00236352
0.00338607
0.0052464
0.00862071
0.0122581
0.0114251
0.00598239
-0.0297515
-0.0323355
-0.0336169
-0.0338558
-0.0336411
-0.0333457
-0.0330508
-0.032674
-0.0321061
-0.0312835
-0.0301913
-0.0288399
-0.0272446
-0.0254166
-0.0233646
-0.0210998
-0.0186396
-0.0160104
-0.0132453
-0.0103857
-0.00747759
-0.004575
-0.00173332
0.000984242
0.00351925
0.00579114
0.0077559
0.00934982
0.010534
0.0112841
0.0116031
0.0115343
0.0111506
0.0105925
0.0100219
0.00961497
0.00947851
0.0097314
0.0103529
0.0113532
0.0126572
0.0141572
0.0158299
0.0175132
0.0193679
0.0212911
0.0231581
0.0240819
0.0228545
0.0195884
0.0142194
0.00915234
0.00522943
0.00465843
0.00520912
0.00639925
0.00885563
0.012283
0.0110518
0.00599615
-0.0243382
-0.0265535
-0.0276879
-0.0279485
-0.0278244
-0.0276294
-0.0274332
-0.0271737
-0.0267606
-0.0261379
-0.0252906
-0.0242257
-0.0229551
-0.0214878
-0.0198305
-0.0179911
-0.0159829
-0.0138257
-0.0115456
-0.00917524
-0.00675095
-0.00431628
-0.00191581
0.000396898
0.00257393
0.0045637
0.00632682
0.00780531
0.0089698
0.00980111
0.0103029
0.0105076
0.0104723
0.0102867
0.0100595
0.00993091
0.00997665
0.0102995
0.0108899
0.0117785
0.0129023
0.0142118
0.0156514
0.0171465
0.0187178
0.0202821
0.0216796
0.0223207
0.0212927
0.0186456
0.0145687
0.0105769
0.00733011
0.00633758
0.00653759
0.00726513
0.00882115
0.0117232
0.0102809
0.00561696
-0.019469
-0.0213639
-0.0223668
-0.0226416
-0.0225923
-0.0224823
-0.0223722
-0.0222081
-0.021922
-0.0214663
-0.020826
-0.0200047
-0.019011
-0.017852
-0.0165326
-0.0150583
-0.0134389
-0.0116892
-0.00982909
-0.00788376
-0.00588186
-0.00385771
-0.0018462
0.00010963
0.00197142
0.00370467
0.00526323
0.00661774
0.00773889
0.00860792
0.00922864
0.00962496
0.00983014
0.00991841
0.00995157
0.0100387
0.0102311
0.0106167
0.0111894
0.011991
0.0129649
0.0141036
0.0153284
0.0166215
0.0179179
0.0191616
0.0201696
0.0205622
0.0197138
0.0175868
0.0144895
0.0113497
0.00871317
0.0075115
0.00741799
0.00781423
0.00856671
0.0107115
0.00916975
0.00492159
-0.0151031
-0.0167193
-0.0176043
-0.0178867
-0.0178982
-0.0178583
-0.0178199
-0.0177398
-0.0175566
-0.0172367
-0.0167671
-0.0161497
-0.0153898
-0.0144922
-0.0134599
-0.0122965
-0.0110086
-0.00960725
-0.00810754
-0.00652866
-0.00489243
-0.00322541
-0.00155469
8.72512e-05
0.00166989
0.00315768
0.00452725
0.00574917
0.00680776
0.00767886
0.00836788
0.0088858
0.00925715
0.00953289
0.00975422
0.00999993
0.0103033
0.0107378
0.0112964
0.0120259
0.0128736
0.0138583
0.01489
0.0159817
0.0170288
0.017994
0.0187017
0.0189004
0.0182005
0.0165023
0.0141453
0.01166
0.00953608
0.00827671
0.00792209
0.00805757
0.00816685
0.00946966
0.00792079
0.00409659
-0.0111976
-0.0125727
-0.0133527
-0.013638
-0.0136986
-0.0137159
-0.0137358
-0.0137239
-0.01363
-0.0134202
-0.0130865
-0.0126363
-0.0120705
-0.0113932
-0.0106033
-0.00970254
-0.00869534
-0.00758953
-0.00639634
-0.0051303
-0.00380793
-0.00244916
-0.00107471
0.000290242
0.0016231
0.00289684
0.00409214
0.00518269
0.0061536
0.00699651
0.00770578
0.00829105
0.00876486
0.00916246
0.00950982
0.00986362
0.0102439
0.0107099
0.0112524
0.0119183
0.012658
0.0135035
0.0143651
0.0152683
0.0160988
0.016831
0.0173153
0.0173751
0.0167942
0.015441
0.0136393
0.0116534
0.00993068
0.00870953
0.00813191
0.008041
0.00768783
0.00820527
0.00669052
0.00330132
-0.0077125
-0.00888054
-0.00956829
-0.00985282
-0.00995255
-0.0100162
-0.0100829
-0.0101257
-0.010104
-0.00999001
-0.00977334
-0.00945086
-0.00902921
-0.00854264
-0.00795671
-0.007276
-0.00650417
-0.00564683
-0.00471231
-0.00371132
-0.00265618
-0.00156188
-0.00044391
0.000679037
0.0017899
0.00286772
0.00389603
0.00485545
0.00573565
0.00652616
0.00722436
0.00783291
0.00835899
0.0088259
0.00924892
0.00966829
0.0100945
0.010574
0.0110955
0.0117015
0.0123472
0.0130681
0.0137822
0.0145163
0.0151652
0.0157086
0.0160292
0.0159963
0.0155097
0.0144265
0.0130345
0.0114341
0.0100113
0.00887387
0.00812633
0.00782914
0.00717817
0.00705302
0.00557376
0.00261821
-0.00461168
-0.00560263
-0.00620936
-0.00649042
-0.00662086
-0.00672159
-0.00682557
-0.00691226
-0.00694907
-0.00691393
-0.00679912
-0.00660558
-0.00633792
-0.00596722
-0.00552733
-0.00502312
-0.00444361
-0.00379172
-0.00307278
-0.00229429
-0.00146507
-0.000596029
0.000301515
0.00121383
0.00212803
0.00302826
0.00390206
0.00473479
0.00551771
0.00624127
0.00690214
0.00750054
0.00803999
0.00853497
0.00899345
0.00944352
0.00988873
0.0103647
0.0108587
0.0114067
0.0119692
0.0125794
0.0131671
0.0137548
0.0142545
0.0146481
0.0148507
0.0147599
0.0143456
0.0134707
0.0123755
0.0110735
0.00986839
0.00882581
0.00796674
0.00748968
0.00666403
0.00607845
0.00462071
0.00207073
-0.00186113
-0.00270102
-0.00323678
-0.00351212
-0.00366589
-0.00379526
-0.00392763
-0.00404718
-0.00412783
-0.0041513
-0.00411039
-0.00400451
-0.00383486
-0.0036012
-0.00330576
-0.00294072
-0.00251603
-0.00203305
-0.00149298
-0.000900279
-0.000260944
0.000417475
0.00112665
0.00185648
0.00259775
0.00333899
0.00407054
0.00478099
0.00546305
0.00610891
0.0067149
0.00727969
0.00780376
0.00829578
0.00875869
0.00921155
0.00965365
0.0101111
0.0105708
0.0110616
0.0115494
0.0120619
0.0125424
0.0130066