/*--------------------------------*- C++ -*----------------------------------*\
| =========                 |                                                 |
| \\      /  F ield         | OpenFOAM: The Open Source CFD Toolbox           |
|  \\    /   O peration     | Version:  2512                                  |
|   \\  /    A nd           | Website:  www.openfoam.com                      |
|    \\/     M anipulation  |                                                 |
\*---------------------------------------------------------------------------*/
FoamFile
{
    version     2.0;
    format      ascii;
    arch        "LSB;label=32;scalar=64";
    class       volScalarField;
    location    "81";
    object      p;
}
// * * * * * * * * * * * * * * * * * * * * * * * * * * * * * * * * * * * * * //

dimensions      [0 2 -2 0 0 0 0];

internalField   nonuniform List<scalar> 
13248
(
-0.417287
-0.414517
-0.411496
-0.408441
-0.405587
-0.403216
-0.40146
-0.400292
-0.399544
-0.398922
-0.398039
-0.396455
-0.393726
-0.389462
-0.383365
-0.375269
-0.365147
-0.353105
-0.339344
-0.324148
-0.307694
-0.290346
-0.271324
-0.251399
-0.425596
-0.422236
-0.418548
-0.414759
-0.411126
-0.407899
-0.405184
-0.402902
-0.400824
-0.398605
-0.395833
-0.392091
-0.387018
-0.380351
-0.371958
-0.361843
-0.350122
-0.337
-0.32272
-0.30753
-0.291629
-0.275225
-0.258177
-0.241252
-0.43549
-0.431329
-0.426878
-0.42234
-0.417901
-0.413772
-0.409989
-0.406398
-0.402707
-0.398545
-0.393537
-0.38736
-0.379801
-0.370771
-0.360308
-0.34855
-0.335701
-0.321988
-0.30763
-0.292823
-0.277706
-0.262455
-0.246974
-0.231703
-0.447179
-0.441993
-0.436671
-0.431329
-0.426019
-0.420861
-0.415793
-0.410577
-0.404889
-0.398399
-0.390841
-0.382059
-0.372023
-0.360819
-0.348609
-0.335602
-0.322007
-0.308016
-0.293789
-0.279453
-0.26511
-0.250877
-0.236701
-0.223014
-0.460702
-0.454289
-0.447988
-0.441756
-0.435441
-0.429025
-0.422339
-0.415093
-0.406997
-0.397844
-0.387554
-0.376171
-0.363842
-0.35077
-0.337174
-0.323257
-0.309185
-0.295086
-0.281052
-0.267154
-0.253449
-0.239996
-0.226767
-0.214033
-0.475944
-0.468154
-0.460779
-0.453539
-0.445998
-0.43798
-0.429234
-0.41949
-0.408591
-0.396538
-0.383473
-0.369628
-0.355268
-0.340643
-0.325958
-0.311363
-0.296959
-0.282808
-0.268949
-0.255406
-0.2422
-0.229351
-0.216847
-0.204864
-0.492633
-0.483384
-0.474858
-0.46644
-0.457351
-0.447268
-0.435936
-0.423225
-0.409212
-0.394157
-0.378412
-0.362338
-0.346241
-0.330347
-0.314803
-0.299687
-0.285035
-0.270855
-0.257141
-0.243885
-0.231077
-0.21871
-0.206779
-0.195349
-0.510324
-0.499611
-0.48986
-0.480024
-0.468955
-0.456249
-0.441787
-0.42571
-0.408408
-0.390396
-0.372176
-0.354152
-0.336599
-0.319672
-0.30344
-0.287911
-0.273065
-0.258866
-0.245276
-0.232261
-0.219789
-0.207835
-0.196392
-0.185432
-0.528365
-0.516257
-0.505193
-0.493617
-0.480041
-0.464126
-0.44606
-0.426373
-0.405783
-0.385001
-0.364587
-0.344908
-0.326156
-0.308396
-0.291617
-0.275768
-0.26078
-0.246586
-0.233122
-0.220331
-0.208167
-0.196592
-0.185582
-0.175039
-0.545883
-0.532504
-0.520006
-0.506284
-0.489637
-0.469995
-0.448023
-0.424691
-0.400995
-0.377741
-0.355458
-0.334415
-0.314698
-0.296281
-0.279082
-0.262999
-0.247931
-0.23378
-0.220464
-0.207906
-0.196044
-0.184833
-0.17422
-0.164075
-0.561795
-0.547295
-0.533186
-0.516856
-0.496612
-0.472877
-0.446906
-0.420088
-0.393595
-0.368225
-0.344401
-0.322269
-0.301802
-0.282894
-0.265403
-0.249188
-0.234118
-0.220074
-0.206953
-0.194664
-0.183134
-0.172299
-0.162074
-0.15234
-0.574911
-0.559476
-0.543558
-0.524149
-0.499841
-0.471771
-0.441837
-0.411776
-0.382828
-0.355693
-0.330645
-0.30769
-0.286696
-0.267481
-0.249855
-0.233641
-0.218682
-0.204843
-0.192003
-0.180061
-0.168933
-0.158541
-0.148771
-0.139552
-0.318164
-0.3205
-0.32197
-0.322997
-0.323943
-0.3249
-0.325896
-0.326944
-0.327974
-0.329002
-0.329991
-0.330865
-0.331566
-0.332027
-0.332177
-0.331942
-0.331257
-0.330066
-0.328338
-0.326076
-0.323311
-0.320098
-0.316574
-0.313077
-0.327209
-0.329383
-0.330857
-0.332036
-0.333265
-0.334633
-0.336159
-0.337841
-0.339646
-0.34154
-0.34344
-0.345289
-0.346998
-0.348455
-0.349532
-0.35009
-0.34998
-0.349054
-0.347176
-0.344242
-0.340173
-0.33489
-0.328429
-0.321361
-0.337022
-0.338867
-0.340244
-0.341511
-0.342973
-0.344708
-0.346731
-0.349027
-0.351561
-0.354277
-0.357097
-0.359921
-0.362613
-0.365069
-0.367072
-0.368419
-0.368878
-0.3682
-0.366138
-0.362468
-0.356999
-0.349515
-0.339902
-0.329032
-0.347232
-0.348603
-0.349781
-0.351053
-0.352662
-0.354679
-0.35711
-0.359932
-0.363096
-0.366532
-0.370152
-0.373835
-0.377431
-0.380713
-0.383488
-0.385473
-0.386353
-0.385785
-0.383415
-0.378905
-0.371969
-0.362314
-0.34961
-0.334576
-0.357417
-0.358212
-0.359093
-0.360264
-0.361902
-0.364067
-0.366761
-0.369948
-0.373569
-0.377539
-0.381747
-0.386048
-0.390257
-0.394137
-0.397406
-0.399733
-0.400733
-0.399989
-0.397067
-0.391539
-0.383056
-0.371313
-0.355917
-0.336943
-0.367166
-0.367346
-0.367838
-0.368794
-0.370312
-0.372451
-0.375211
-0.37855
-0.382394
-0.38664
-0.391157
-0.395769
-0.400261
-0.404358
-0.40773
-0.40999
-0.4107
-0.409389
-0.40558
-0.398822
-0.388748
-0.375048
-0.35769
-0.335705
-0.376151
-0.375726
-0.375791
-0.376403
-0.377632
-0.379543
-0.382142
-0.385383
-0.38918
-0.393412
-0.397922
-0.402508
-0.406917
-0.410836
-0.413891
-0.415652
-0.415644
-0.413374
-0.408363
-0.400185
-0.388558
-0.373129
-0.354687
-0.330733
-0.384203
-0.383246
-0.382837
-0.382994
-0.383768
-0.385248
-0.387453
-0.390342
-0.393821
-0.397752
-0.401952
-0.406187
-0.410167
-0.41354
-0.415892
-0.416764
-0.415667
-0.412117
-0.405683
-0.396004
-0.382989
-0.366214
-0.347259
-0.322658
-0.391338
-0.389944
-0.389042
-0.388646
-0.388821
-0.389687
-0.391292
-0.393604
-0.396527
-0.399904
-0.403528
-0.40713
-0.410377
-0.412877
-0.414184
-0.413823
-0.41132
-0.406244
-0.398262
-0.387134
-0.372976
-0.355429
-0.336345
-0.312286
-0.397767
-0.396029
-0.394626
-0.393604
-0.393068
-0.393184
-0.394032
-0.395595
-0.397773
-0.400398
-0.403227
-0.405946
-0.40818
-0.409497
-0.40943
-0.407516
-0.40333
-0.396544
-0.386967
-0.374553
-0.35957
-0.341928
-0.323212
-0.300559
-0.403884
-0.40185
-0.399932
-0.398235
-0.39692
-0.396202
-0.396191
-0.396885
-0.398184
-0.399887
-0.401711
-0.403298
-0.404225
-0.404034
-0.402265
-0.398501
-0.392414
-0.383812
-0.372659
-0.359113
-0.34353
-0.326227
-0.308391
-0.287902
-0.410209
-0.407854
-0.405394
-0.402995
-0.400877
-0.399294
-0.398384
-0.398147
-0.398458
-0.399082
-0.399685
-0.399859
-0.39915
-0.397105
-0.393314
-0.387458
-0.379346
-0.368935
-0.356322
-0.341772
-0.325573
-0.308298
-0.290609
-0.272405
-0.309477
-0.306072
-0.304305
-0.304495
-0.306867
-0.311193
-0.316668
-0.321842
-0.324912
-0.323334
-0.315431
-0.299547
-0.275893
-0.245774
-0.212827
-0.18147
-0.15546
-0.137083
-0.127422
-0.127383
-0.137784
-0.157225
-0.179746
-0.195538
-0.195695
-0.178243
-0.149453
-0.11885
-0.0934708
-0.0763399
-0.067381
-0.0650417
-0.0691549
-0.0813892
-0.0996295
-0.114522
-0.115703
-0.103963
-0.0850136
-0.0686887
-0.0586479
-0.0539315
-0.0554155
-0.0650569
-0.0776905
-0.0819739
-0.0745043
-0.0612683
-0.049173
-0.0405367
-0.0355815
-0.0356188
-0.0353937
-0.0332425
-0.0301239
-0.0251357
-0.0181105
-0.01409
-0.00933783
-0.00379337
-0.313497
-0.303608
-0.294614
-0.287034
-0.281497
-0.27827
-0.277093
-0.277073
-0.276799
-0.273961
-0.26737
-0.254707
-0.236883
-0.213629
-0.188229
-0.164304
-0.14498
-0.132416
-0.128145
-0.133663
-0.14974
-0.174062
-0.199546
-0.215734
-0.214134
-0.193241
-0.160284
-0.125756
-0.0970322
-0.0769351
-0.0652284
-0.0603322
-0.0616335
-0.0705287
-0.0857557
-0.0993079
-0.100869
-0.0925611
-0.077047
-0.0642093
-0.0571714
-0.0549817
-0.059087
-0.0713726
-0.086153
-0.0909319
-0.0819912
-0.0659776
-0.0511349
-0.040338
-0.0333119
-0.0316323
-0.0298615
-0.0279829
-0.0255509
-0.0221468
-0.0171687
-0.0145537
-0.0112648
-0.00505056
-0.317568
-0.301288
-0.284974
-0.269393
-0.255602
-0.244262
-0.235603
-0.229338
-0.224527
-0.219716
-0.213047
-0.203268
-0.192226
-0.175475
-0.157583
-0.141106
-0.128599
-0.122205
-0.123852
-0.135346
-0.15704
-0.1857
-0.213538
-0.229832
-0.227419
-0.204104
-0.168085
-0.130574
-0.0992357
-0.0767291
-0.0626342
-0.0553845
-0.0540531
-0.0596984
-0.0718551
-0.0841208
-0.0893623
-0.0807663
-0.0684682
-0.0590938
-0.0550651
-0.0554638
-0.062227
-0.0770802
-0.0939239
-0.0992351
-0.0889635
-0.0703128
-0.0527928
-0.0399694
-0.0310838
-0.0278987
-0.0246452
-0.0229022
-0.0209642
-0.0190958
-0.0162023
-0.01504
-0.0132264
-0.00633309
-0.320902
-0.298903
-0.275839
-0.252831
-0.231428
-0.212243
-0.195942
-0.182861
-0.172578
-0.164426
-0.157332
-0.146894
-0.144062
-0.132226
-0.121428
-0.112171
-0.106554
-0.106617
-0.114513
-0.131996
-0.158863
-0.191256
-0.221154
-0.237131
-0.235259
-0.210596
-0.17271
-0.133274
-0.100145
-0.0758562
-0.0598296
-0.0505201
-0.0468064
-0.0494071
-0.0584792
-0.069048
-0.0741119
-0.0685434
-0.0594799
-0.0534482
-0.0523315
-0.0552697
-0.0646045
-0.0818945
-0.100728
-0.106654
-0.0952764
-0.0742059
-0.054135
-0.0394381
-0.0289122
-0.024446
-0.019788
-0.0180497
-0.016413
-0.0160122
-0.015223
-0.0155447
-0.0152112
-0.00763292
-0.321706
-0.295538
-0.266981
-0.237819
-0.210994
-0.185014
-0.16169
-0.141964
-0.125784
-0.113061
-0.104233
-0.0930811
-0.0941928
-0.0867384
-0.0820874
-0.0794257
-0.0803925
-0.0869066
-0.101011
-0.124087
-0.155385
-0.190796
-0.222737
-0.242271
-0.237958
-0.212767
-0.174274
-0.134057
-0.0999804
-0.074499
-0.0570001
-0.0459725
-0.0402053
-0.0400328
-0.0460753
-0.0546976
-0.0595173
-0.0563484
-0.0502957
-0.047363
-0.0489517
-0.0542803
-0.0660289
-0.0855968
-0.106314
-0.112963
-0.100776
-0.0776002
-0.055167
-0.0387632
-0.026806
-0.021282
-0.0153198
-0.0134714
-0.0119477
-0.0129254
-0.0142406
-0.016064
-0.0172036
-0.00894116
-0.318924
-0.290746
-0.259256
-0.226968
-0.194783
-0.163518
-0.134592
-0.109227
-0.0876861
-0.0701646
-0.0592549
-0.0501679
-0.0462667
-0.0438931
-0.0437385
-0.0463733
-0.0530685
-0.0654343
-0.0850996
-0.112857
-0.14748
-0.184895
-0.218016
-0.23782
-0.235047
-0.210697
-0.172921
-0.133126
-0.0989474
-0.072832
-0.05428
-0.0418781
-0.0343967
-0.0318407
-0.0350128
-0.0415597
-0.0459594
-0.044585
-0.0411426
-0.0409301
-0.0449341
-0.0524377
-0.0663863
-0.0880305
-0.110483
-0.117969
-0.105331
-0.0804444
-0.0558949
-0.0379604
-0.0247648
-0.0183974
-0.0112591
-0.00920318
-0.00761696
-0.0098604
-0.0132621
-0.0165915
-0.0191865
-0.0102493
-0.312541
-0.284047
-0.252138
-0.218865
-0.184611
-0.150517
-0.118079
-0.0886036
-0.0629122
-0.0416527
-0.0260205
-0.0150814
-0.00926795
-0.0086606
-0.0109419
-0.0170666
-0.0279723
-0.0448468
-0.0687415
-0.0997884
-0.136385
-0.174692
-0.208279
-0.228566
-0.227403
-0.204842
-0.168995
-0.130724
-0.0972375
-0.0710021
-0.0517633
-0.0383015
-0.0294213
-0.0248867
-0.0254778
-0.0299454
-0.033739
-0.0336002
-0.0322549
-0.0342869
-0.0403509
-0.0497371
-0.0656117
-0.0890939
-0.113126
-0.121536
-0.10883
-0.0826861
-0.0563203
-0.0370426
-0.022787
-0.0157649
-0.00760492
-0.0052696
-0.00346588
-0.00683633
-0.0122924
-0.0171192
-0.0211449
-0.011549
-0.303317
-0.275617
-0.24558
-0.213629
-0.179788
-0.145325
-0.111674
-0.0800735
-0.051628
-0.0273505
-0.00817116
0.00572041
0.0139208
0.0156487
0.0130517
0.00549873
-0.00764771
-0.0271471
-0.0534817
-0.0861835
-0.123382
-0.16153
-0.194914
-0.215492
-0.215907
-0.195822
-0.162881
-0.12705
-0.0949514
-0.0690688
-0.0494754
-0.0352441
-0.0252622
-0.0191349
-0.0174974
-0.0199923
-0.0230501
-0.0236547
-0.0238493
-0.0276062
-0.0353067
-0.046232
-0.063705
-0.0887405
-0.114229
-0.123601
-0.111215
-0.084292
-0.0564538
-0.0360272
-0.0208801
-0.0133657
-0.00433811
-0.00167906
0.000464576
-0.00386631
-0.0113341
-0.0176399
-0.0230625
-0.0128321
-0.292186
-0.266078
-0.239498
-0.210623
-0.179011
-0.146164
-0.113375
-0.0816202
-0.0519918
-0.0256501
-0.00368585
0.013113
0.0238134
0.0283896
0.0272532
0.0201904
0.00682247
-0.0132738
-0.0401596
-0.0729223
-0.109479
-0.146569
-0.179059
-0.199544
-0.201481
-0.184373
-0.155093
-0.122415
-0.0922796
-0.0671811
-0.0475379
-0.0327904
-0.0219682
-0.014585
-0.0110824
-0.0117363
-0.0139582
-0.0149252
-0.0160966
-0.0210715
-0.0299479
-0.0419557
-0.0606572
-0.0870389
-0.113845
-0.124158
-0.112491
-0.085293
-0.0563699
-0.0349789
-0.0190712
-0.0112102
-0.00146492
0.00157228
0.00414091
-0.000954744
-0.010388
-0.0181466
-0.0249212
-0.0140914
-0.280182
-0.256545
-0.234127
-0.208888
-0.180419
-0.15049
-0.120068
-0.0897615
-0.060494
-0.0335302
-0.0100481
0.00893043
0.0220221
0.0307044
0.03216
0.0271537
0.0153197
-0.00355141
-0.0292657
-0.0606113
-0.0954053
-0.130634
-0.161466
-0.181543
-0.185151
-0.171505
-0.146504
-0.117538
-0.089825
-0.0658669
-0.0464031
-0.0312857
-0.0197842
-0.0113688
-0.00628467
-0.00520253
-0.00650103
-0.00747525
-0.0091029
-0.014814
-0.024393
-0.0370936
-0.0566575
-0.0840176
-0.11202
-0.123236
-0.112681
-0.0857373
-0.0561936
-0.0340111
-0.0173986
-0.00927991
0.000973632
0.00445907
0.00753187
0.00189826
-0.0094569
-0.0186261
-0.0267034
-0.0153173
-0.268554
-0.248592
-0.230117
-0.207927
-0.182641
-0.156107
-0.128742
-0.100607
-0.0725033
-0.045587
-0.0210421
-1.86822e-05
0.0162021
0.0259475
0.030053
0.0281398
0.0191273
0.00290037
-0.0203688
-0.0493498
-0.0817718
-0.114573
-0.143852
-0.162242
-0.16729
-0.157408
-0.137244
-0.112506
-0.0876035
-0.0650768
-0.0459852
-0.0305906
-0.0185286
-0.00929246
-0.00286356
-0.000113401
-0.000462741
-0.00135387
-0.00306437
-0.00908376
-0.0187833
-0.0315041
-0.0515302
-0.0800146
-0.109077
-0.120766
-0.111639
-0.0853567
-0.0557398
-0.0330159
-0.0157862
-0.00742128
0.00310508
0.00695914
0.0105406
0.00472055
-0.00853199
-0.019073
-0.0283936
-0.0164929
-0.257486
-0.243453
-0.22828
-0.208504
-0.186654
-0.16392
-0.139937
-0.114831
-0.089368
-0.0643427
-0.0405514
-0.0186294
-0.000589135
0.0137088
0.0211991
0.022418
0.0173107
0.00516014
-0.0138441
-0.0385505
-0.0668283
-0.0960929
-0.123558
-0.140974
-0.146178
-0.139934
-0.12458
-0.104108
-0.0822495
-0.0616043
-0.0434707
-0.0283418
-0.0162051
-0.00670996
0.000488797
0.004574
0.00513834
0.00416893
0.0023876
-0.0039968
-0.0135492
-0.0259814
-0.0458973
-0.0747675
-0.104474
-0.116819
-0.108945
-0.0834289
-0.0541082
-0.0312834
-0.0138564
-0.00539393
0.00537495
0.00937801
0.0132836
0.00745227
-0.00763062
-0.0194573
-0.0299577
-0.0176076
-0.237403
-0.235405
-0.220081
-0.199988
-0.179474
-0.158665
-0.136787
-0.11376
-0.0901453
-0.0667422
-0.044262
-0.0232772
-0.00633519
0.00686583
0.0148719
0.0176016
0.0142488
0.00413892
-0.0127329
-0.0352522
-0.061292
-0.0883751
-0.114418
-0.128412
-0.132703
-0.126499
-0.112245
-0.0936032
-0.0737483
-0.0548835
-0.0381182
-0.0238781
-0.0122122
-0.00291205
0.00440538
0.00909585
0.0105143
0.00995698
0.0110671
0.00270231
-0.00607543
-0.0178642
-0.038176
-0.0691106
-0.101515
-0.115436
-0.107421
-0.0809807
-0.0514153
-0.0287081
-0.0115838
-0.00337459
0.00779877
0.0119941
0.0164975
0.0104303
-0.00663581
-0.0197684
-0.0314174
-0.0186655
-0.217859
-0.218862
-0.204934
-0.185797
-0.166867
-0.148363
-0.129162
-0.10889
-0.0880017
-0.0672601
-0.0474032
-0.0293853
-0.0136448
-0.00148416
0.00639695
0.00940379
0.00689267
-0.00159807
-0.0160275
-0.0353834
-0.0576576
-0.0801464
-0.0976819
-0.112646
-0.11613
-0.110457
-0.098163
-0.0821732
-0.0649522
-0.0482909
-0.0331559
-0.0199678
-0.00893119
1.06405e-05
0.00732305
0.0124123
0.0143237
0.0135895
0.00940231
0.00708384
-0.000471081
-0.0113539
-0.0316004
-0.0638759
-0.0976636
-0.111654
-0.103013
-0.0769261
-0.0480583
-0.026006
-0.00930722
-0.00132273
0.00991843
0.0139539
0.0190211
0.012748
-0.00586985
-0.0201462
-0.032613
-0.0194987
-0.199764
-0.201276
-0.189614
-0.172557
-0.155525
-0.139178
-0.12244
-0.104766
-0.0864731
-0.0682556
-0.0507931
-0.0348031
-0.0208467
-0.00984974
-0.00258321
0.000384456
-0.00140983
-0.00826903
-0.0200474
-0.035803
-0.0537424
-0.0715076
-0.0861723
-0.0971516
-0.0999257
-0.095385
-0.0853337
-0.0719184
-0.0570723
-0.0423261
-0.0286121
-0.0163826
-0.00590275
0.00271918
0.0099152
0.0152128
0.017566
0.0170465
0.0140021
0.0112126
0.00425277
-0.00624465
-0.0265908
-0.0590792
-0.0923611
-0.105947
-0.0972024
-0.072091
-0.044344
-0.0231282
-0.00695949
0.000750247
0.0119607
0.0157931
0.0212315
0.01461
-0.00534386
-0.0205644
-0.0335603
-0.0201839
-0.181988
-0.184237
-0.174962
-0.160253
-0.145153
-0.130736
-0.116181
-0.100877
-0.084984
-0.0690821
-0.0537873
-0.039701
-0.0274063
-0.0175997
-0.0109202
-0.00784735
-0.00875417
-0.0138345
-0.022892
-0.0351218
-0.0490885
-0.0628966
-0.0748052
-0.0830673
-0.0853878
-0.0818465
-0.0736268
-0.0623629
-0.0495964
-0.0366064
-0.0242495
-0.0129845
-0.00308887
0.00519157
0.0121899
0.0175877
0.0203863
0.0203942
0.018335
0.0156109
0.00916342
-0.00114694
-0.0214054
-0.0532693
-0.0857499
-0.0990427
-0.0902536
-0.0663765
-0.0401521
-0.020046
-0.0045512
0.00284613
0.0139281
0.0175489
0.0232346
0.0162865
-0.00486742
-0.0208729
-0.034248
-0.020714
-0.165122
-0.16822
-0.160954
-0.148404
-0.135193
-0.122589
-0.110016
-0.0968708
-0.0831839
-0.0694218
-0.0561348
-0.0438547
-0.0330766
-0.0243358
-0.0181398
-0.0149037
-0.0149321
-0.0183474
-0.0249647
-0.0341534
-0.0447742
-0.055028
-0.0646232
-0.0708702
-0.0726495
-0.0698014
-0.0630715
-0.053646
-0.0427066
-0.031294
-0.0201801
-0.00983921
-0.000536789
0.0074021
0.0141687
0.0195759
0.0227534
0.0233974
0.0223158
0.0201882
0.0144821
0.00465116
-0.0150637
-0.0461443
-0.0779409
-0.0907532
-0.0820871
-0.0598063
-0.0355248
-0.0167993
-0.0021072
0.00494293
0.0158165
0.0191767
0.0250081
0.0178867
-0.00431863
-0.0209971
-0.034616
-0.0210343
-0.149844
-0.153264
-0.147503
-0.136922
-0.125558
-0.114687
-0.103928
-0.0927322
-0.081053
-0.0692478
-0.0577908
-0.0471367
-0.0377023
-0.0299114
-0.0241737
-0.0208335
-0.0201313
-0.0221478
-0.0267252
-0.0333842
-0.0413219
-0.0497459
-0.0560746
-0.0605292
-0.0617258
-0.0593392
-0.053771
-0.0458364
-0.0364333
-0.026404
-0.016419
-0.00695552
0.0017416
0.00933015
0.0158603
0.0212028
0.024665
0.0259621
0.0259184
0.0247642
0.0201146
0.0111429
-0.00777536
-0.0380001
-0.0688511
-0.0810455
-0.0728164
-0.0524981
-0.0305157
-0.0134213
0.000348442
0.00701658
0.0176151
0.0206612
0.026506
0.0193932
-0.00366373
-0.0208702
-0.0345418
-0.0210745
-0.135553
-0.139029
-0.134652
-0.125896
-0.116269
-0.107013
-0.0978922
-0.0884366
-0.078551
-0.0685008
-0.0586852
-0.0494874
-0.0412599
-0.0343428
-0.0290612
-0.02569
-0.0244165
-0.0252966
-0.0281963
-0.0327337
-0.0382809
-0.0441537
-0.0488296
-0.0518972
-0.0525259
-0.050388
-0.0456669
-0.0389098
-0.0307858
-0.0219634
-0.0129996
-0.00435537
0.00373562
0.0109562
0.0172587
0.0224998
0.0261639
0.0280486
0.0290335
0.0291076
0.0258039
0.0179371
-4.561e-05
-0.0290784
-0.0585938
-0.0700104
-0.062652
-0.0446249
-0.0252136
-0.00995514
0.00278903
0.00904492
0.019314
0.0220003
0.0276824
0.0207511
-0.00285822
-0.0203705
-0.0338839
-0.0207607
-0.122086
-0.125716
-0.122539
-0.115386
-0.107322
-0.0995277
-0.091871
-0.0839523
-0.075656
-0.06717
-0.0588175
-0.0509243
-0.0437832
-0.037666
-0.0328273
-0.0294832
-0.0277803
-0.0277598
-0.0293136
-0.0321359
-0.0356307
-0.0396499
-0.0428366
-0.0447544
-0.0448322
-0.0427836
-0.0386671
-0.0328338
-0.025765
-0.0179834
-0.00993743
-0.00205083
0.00544589
0.0122763
0.0183525
0.0234848
0.0272877
0.0296567
0.0315213
0.032905
0.0311645
0.0246055
0.00774995
-0.019747
-0.0475169
-0.0581857
-0.0519051
-0.0364244
-0.0197409
-0.00644887
0.00518963
0.0110114
0.0209046
0.0232011
0.0285024
0.021932
-0.001797
-0.0193384
-0.0325032
-0.0200193
-0.109697
-0.113385
-0.111159
-0.105375
-0.0986955
-0.0922094
-0.0858536
-0.0792883
-0.0723853
-0.0652766
-0.0582208
-0.0514871
-0.0453162
-0.0399252
-0.0355131
-0.0322492
-0.0302491
-0.0295451
-0.0300618
-0.0315988
-0.0339103
-0.0360512
-0.0379011
-0.0388444
-0.0384137
-0.0363609
-0.0326703
-0.0275553
-0.0213513
-0.0144607
-0.00723663
-4.90534e-05
0.00687716
0.0133
0.0191322
0.0241525
0.0280503
0.0308286
0.0333182
0.0358238
0.035678
0.030563
0.0150593
-0.0105394
-0.0359912
-0.0458359
-0.0409633
-0.0281839
-0.0142476
-0.00295534
0.00752833
0.0129069
0.0223806
0.0242888
0.0289618
0.0229604
-0.00033089
-0.0176058
-0.0302785
-0.0187887
-0.0983754
-0.101941
-0.100461
-0.0958538
-0.0903923
-0.0850603
-0.0798445
-0.0744574
-0.0687675
-0.0628621
-0.0569444
-0.0512336
-0.045926
-0.0411948
-0.0371956
-0.0340599
-0.0318784
-0.0306776
-0.0303991
-0.0308682
-0.031919
-0.0329834
-0.0337922
-0.0339374
-0.0330632
-0.0309566
-0.0275644
-0.0230079
-0.0175132
-0.0113831
-0.00489156
0.00165099
0.00803622
0.0140455
0.0196023
0.0244926
0.0284437
0.031431
0.0343931
0.0376559
0.0387853
0.0349947
0.0211606
-0.0018858
-0.0243782
-0.0334461
-0.0302747
-0.0202135
-0.00889985
0.000468557
0.00978649
0.0147299
0.0237423
0.0253153
0.0291086
0.0239104
0.00170241
-0.015019
-0.0271335
-0.0170389
-0.0878892
-0.0913066
-0.0904439
-0.0868385
-0.0824272
-0.0780951
-0.0738641
-0.0694917
-0.0648475
-0.0599835
-0.0550566
-0.0502433
-0.0457022
-0.0415706
-0.0379695
-0.0350004
-0.0327341
-0.0311958
-0.0303485
-0.0300941
-0.0301583
-0.0303345
-0.0303281
-0.0298381
-0.0285931
-0.0264158
-0.0232375
-0.0191204
-0.0142102
-0.00872978
-0.00288871
0.00305962
0.00893236
0.0145315
0.0197848
0.0245104
0.0284715
0.0316317
0.0347981
0.0383569
0.0401733
0.0374045
0.025629
0.00591416
-0.0132207
-0.021665
-0.0203076
-0.012805
-0.00385898
0.00376224
0.0119462
0.0164817
0.0249994
0.0263569
0.0290606
0.0249029
0.00444966
-0.0114812
-0.023078
-0.0147916
-0.0782006
-0.0814828
-0.081111
-0.0783346
-0.0748112
-0.071332
-0.0679411
-0.064433
-0.0606808
-0.0567101
-0.0526393
-0.0486087
-0.0447451
-0.0411565
-0.0379364
-0.0351625
-0.0328902
-0.0311407
-0.0298872
-0.0290512
-0.0284746
-0.027982
-0.0273572
-0.0263786
-0.0248403
-0.022599
-0.0195833
-0.0158187
-0.0113949
-0.0064722
-0.00120823
0.00419396
0.00958057
0.0147758
0.0197073
0.0242251
0.0281334
0.0313927
0.0345885
0.0380649
0.0400183
0.0379852
0.0284641
0.0124598
-0.00331253
-0.011185
-0.0114607
-0.0061791
0.000744112
0.00686357
0.0139844
0.0181577
0.026164
0.0274928
0.0290209
0.0261139
0.00800031
-0.00701142
-0.0182446
-0.0121327
-0.0693439
-0.0724384
-0.0724271
-0.0703274
-0.0675488
-0.0647898
-0.0621073
-0.0593271
-0.0563286
-0.0531171
-0.0497801
-0.0464277
-0.0431602
-0.0400617
-0.0372039
-0.034646
-0.0324302
-0.030575
-0.0290645
-0.0278438
-0.0268106
-0.025834
-0.0247583
-0.0234207
-0.0216666
-0.0193824
-0.0165018
-0.013029
-0.00901604
-0.00457607
0.000174934
0.00507587
0.0100015
0.0147992
0.0193965
0.0236665
0.027456
0.0307177
0.0338198
0.0369872
0.0387668
0.0372539
0.0298234
0.0173363
0.00465999
-0.00251234
-0.00395839
-0.000449341
0.00482673
0.00971529
0.015869
0.0197354
0.0272386
0.0287665
0.0292689
0.0277603
0.0123275
-0.00180003
-0.0129055
-0.00922207
-0.0612342
-0.0641022
-0.0643542
-0.0628062
-0.0606474
-0.0584898
-0.0563973
-0.0542233
-0.0518549
-0.0492829
-0.0465702
-0.0438016
-0.0410557
-0.0383977
-0.0358819
-0.0335525
-0.0314412
-0.0295654
-0.0279184
-0.0264611
-0.0251256
-0.0238208
-0.0224354
-0.0208516
-0.0189548
-0.0166571
-0.0139008
-0.0106794
-0.00702054
-0.00300289
0.00128963
0.00573083
0.0102202
0.0146281
0.0188827
0.0228751
0.0264863
0.0296541
0.0325694
0.0353284
0.0368211
0.0356615
0.0299572
0.0204683
0.0105128
0.00423444
0.00216919
0.00437033
0.00835284
0.0122699
0.0175671
0.0211716
0.0281958
0.0301533
0.0302521
0.0300262
0.0172289
0.00374576
-0.0074687
-0.00628325
-0.05378
-0.0564266
-0.0568717
-0.0557669
-0.054116
-0.0524532
-0.0508459
-0.0491709
-0.0473239
-0.0452857
-0.0430996
-0.0408304
-0.0385386
-0.0362741
-0.0340778
-0.031983
-0.0300135
-0.0281832
-0.02649
-0.0249096
-0.0233977
-0.0218917
-0.0203136
-0.0185799
-0.016607
-0.0143286
-0.0116971
-0.00870168
-0.00535513
-0.00171193
0.00216808
0.00618711
0.0102652
0.0142929
0.0182013
0.0218961
0.0252799
0.0282744
0.0309443
0.0332846
0.0344867
0.0335766
0.0292484
0.0221761
0.0145209
0.00925454
0.00702542
0.00832829
0.0113216
0.01449
0.019049
0.0224197
0.0289632
0.0314975
0.0318385
0.03287
0.0222755
0.0090546
-0.00238298
-0.00354632
-0.0469552
-0.0493819
-0.0499553
-0.0491985
-0.0479578
-0.0466974
-0.0454845
-0.0442157
-0.0427958
-0.0411991
-0.039454
-0.037609
-0.0357104
-0.0337957
-0.0318947
-0.0300328
-0.0282301
-0.0264937
-0.0248232
-0.0232068
-0.021617
-0.0200113
-0.0183358
-0.0165328
-0.0145425
-0.0123163
-0.00981653
-0.00703228
-0.00396796
-0.000661484
0.00284475
0.00647504
0.0101661
0.0138261
0.0173915
0.0207769
0.0238988
0.0266684
0.0290702
0.0310372
0.0319994
0.0312979
0.0280685
0.0228775
0.0171072
0.0128666
0.0107728
0.0114991
0.0137547
0.0163554
0.0202784
0.0234459
0.029459
0.0325567
0.0339837
0.0357528
0.0267818
0.0135897
0.00201036
-0.00118491
-0.0407231
-0.0429236
-0.0435714
-0.0430843
-0.0421723
-0.0412361
-0.0403404
-0.0393986
-0.038325
-0.0370904
-0.0357119
-0.034225
-0.0326647
-0.0310591
-0.0294296
-0.0277947
-0.026168
-0.0245572
-0.0229618
-0.0213765
-0.0197841
-0.0181574
-0.0164602
-0.0146534
-0.0126955
-0.0105519
-0.00819421
-0.00561332
-0.00280972
0.000189695
0.00335451
0.00662626
0.00995423
0.0132617
0.0164926
0.0195666
0.0224093
0.0249302
0.0270692
0.0287316
0.0295254
0.0290215
0.0266703
0.0229226
0.0186606
0.0153708
0.0135751
0.0139659
0.015683
0.0178588
0.0212222
0.0242098
0.0296207
0.0330949
0.0354564
0.0376299
0.0299703
0.0170157
0.00552053
0.000698319
-0.0350252
-0.0370055
-0.0376899
-0.0374095
-0.0367583
-0.0360803
-0.0354366
-0.0347551
-0.0339596
-0.0330194
-0.0319433
-0.0307569
-0.0294863
-0.0281518
-0.0267686
-0.0253497
-0.0239046
-0.0224386
-0.0209531
-0.0194455
-0.0179063
-0.0163181
-0.0146575
-0.0128987
-0.0110137
-0.00897911
-0.00677447
-0.00439325
-0.00183475
0.000881065
0.00373192
0.00667217
0.00966106
0.0126342
0.0155426
0.0183118
0.0208761
0.0231453
0.0250446
0.0264732
0.0271663
0.0268543
0.0252023
0.0225558
0.0194811
0.017021
0.0155887
0.0158126
0.0171421
0.0189964
0.0218598
0.0246619
0.0293884
0.032897
0.035655
0.037728
0.0313609
0.0191942
0.00805751
0.00205055
-0.0298205
-0.0315924
-0.0322845
-0.0321589
-0.0317117
-0.031237
-0.0307913
-0.0303147
-0.0297402
-0.0290372
-0.0282088
-0.0272729
-0.0262485
-0.0251501
-0.0239882
-0.0227712
-0.0215058
-0.0201955
-0.0188416
-0.0174435
-0.0159962
-0.0144896
-0.0129087
-0.0112371
-0.00945673
-0.00755247
-0.00551055
-0.00332718
-0.001002
0.00144941
0.00401012
0.00664335
0.00931686
0.0119764
0.0145784
0.0170564
0.0193541
0.0213842
0.0230747
0.0243303
0.0249753
0.0248446
0.0237479
0.0219389
0.0197863
0.0180222
0.0169547
0.0171189
0.0181709
0.0197735
0.0221828
0.0247683
0.0287579
0.0320373
0.0345947
0.0361092
0.0309897
0.0201291
0.0096298
0.00290167
-0.0250757
-0.0266497
-0.0273271
-0.0273148
-0.0270254
-0.0267092
-0.0264173
-0.0261003
-0.0256997
-0.0251863
-0.0245592
-0.0238307
-0.0230144
-0.0221203
-0.0211549
-0.0201235
-0.0190308
-0.0178794
-0.016669
-0.0153998
-0.0140698
-0.0126739
-0.0112029
-0.00964674
-0.00799406
-0.00623608
-0.00436418
-0.0023771
-0.000275448
0.00192788
0.00421934
0.00656883
0.00895046
0.011318
0.0136342
0.0158403
0.0178889
0.0197006
0.0212137
0.0223429
0.0229749
0.0230105
0.0223495
0.0211748
0.0197308
0.0185309
0.0177941
0.0179599
0.018812
0.0202032
0.0222018
0.0245247
0.0277717
0.0306106
0.0326498
0.0334214
0.0292901
0.0199808
0.010365
0.00333207
-0.0207543
-0.0221428
-0.0227904
-0.0228592
-0.0226907
-0.0224968
-0.022323
-0.0221288
-0.0218637
-0.0215006
-0.0210361
-0.0204783
-0.0198366
-0.0191178
-0.0183258
-0.0174628
-0.0165319
-0.0155358
-0.0144729
-0.0133428
-0.012145
-0.0108778
-0.00953592
-0.00811356
-0.00660398
-0.00500272
-0.00330502
-0.00151181
0.000375493
0.00234532
0.00438658
0.00647446
0.00858709
0.0106852
0.012739
0.0146959
0.0165161
0.0181321
0.0194952
0.0205317
0.0211697
0.0213505
0.0210263
0.0203286
0.0194219
0.0186685
0.0182108
0.0184056
0.0191107
0.0203113
0.0219437
0.0239518
0.0264987
0.0287796
0.0302083
0.0302815
0.0268204
0.0190364
0.0104609
0.00346057
-0.0168239
-0.0180414
-0.0186494
-0.0187741
-0.0186972
-0.0185966
-0.0185125
-0.0184118
-0.0182512
-0.0180064
-0.0176723
-0.0172542
-0.0167583
-0.0161889
-0.0155481
-0.0148362
-0.0140547
-0.0132053
-0.0122874
-0.0112991
-0.0102402
-0.0091107
-0.0079083
-0.00663
-0.00527199
-0.00383267
-0.00230998
-0.000706431
0.000975685
0.00272601
0.00453496
0.00638146
0.00824769
0.0101004
0.0119143
0.0136446
0.0152596
0.0167033
0.0179386
0.0189036
0.0195527
0.0198522
0.0197842
0.0194434
0.0189366
0.0185232
0.018289
0.0185202
0.0191132
0.0201335
0.0214425
0.0231034
0.0250205
0.0267104
0.027563
0.0270857
0.0240548
0.0176037
0.0101107
0.00339407
-0.0132566
-0.0143176
-0.01488
-0.0150417
-0.0150332
-0.015003
-0.0149862
-0.0149558
-0.0148752
-0.0147226
-0.0144926
-0.014188
-0.0138132
-0.0133703
-0.0128603
-0.0122824
-0.0116357
-0.0109218
-0.0101417
-0.00929286
-0.00837342
-0.007384
-0.00632432
-0.00519351
-0.00398963
-0.00271271
-0.0013625
5.75878e-05
0.00154457
0.00308899
0.00468262
0.00630726
0.00794847
0.00957853
0.0111755
0.0127016
0.0141337
0.0154266
0.0165498
0.0174538
0.0181111
0.0185028
0.0186233
0.018543
0.0183284
0.0181685
0.0180998
0.0183616
0.0188652
0.0197144
0.0207376
0.0220416
0.0234075
0.0245452
0.0249093
0.0240438
0.0213019
0.0159363
0.00947069
0.00320972
-0.0100263
-0.0109454
-0.0114596
-0.011644
-0.0116861
-0.0117086
-0.0117415
-0.0117633
-0.0117431
-0.0116622
-0.0115147
-0.0113021
-0.0110271
-0.0106907
-0.0102926
-0.00983172
-0.0093064
-0.00871678
-0.00806346
-0.00734585
-0.00656131
-0.00570948
-0.00479065
-0.00380545
-0.00275331
-0.00163518
-0.000451751
0.000793008
0.0020959
0.00344828
0.00484289
0.0062645
0.00770076
0.0091287
0.0105313
0.0118764
0.0131448
0.0143065
0.0153245
0.0161729
0.0168305
0.0172871
0.0175404
0.0176428
0.0176336
0.0176585
0.0176977
0.0179845
0.0184126
0.0190983
0.0198715
0.0208277
0.0217397
0.022394
0.0223681
0.0212516
0.0187277
0.0142142
0.00866216
0.00295838
-0.0071097
-0.00790136
-0.00836718
-0.00856395
-0.00864282
-0.0087042
-0.00877354
-0.00883346
-0.0088586
-0.00883272
-0.00875033
-0.00861185
-0.00841875
-0.00817139
-0.00786869
-0.00750921
-0.00709123
-0.00661293
-0.00607461
-0.00547773
-0.00481984
-0.00409905
-0.00331536
-0.00246999
-0.00156336
-0.000596984
0.000427967
0.00150748
0.0026383
0.00381278
0.00502453
0.00626068
0.0075111
0.00875644
0.00998348
0.0111667
0.0122878
0.0133222
0.0142497
0.0150464
0.0156951