/*--------------------------------*- C++ -*----------------------------------*\
| =========                 |                                                 |
| \\      /  F ield         | OpenFOAM: The Open Source CFD Toolbox           |
|  \\    /   O peration     | Version:  2512                                  |
|   \\  /    A nd           | Website:  www.openfoam.com                      |
|    \\/     M anipulation  |                                                 |
\*---------------------------------------------------------------------------*/
FoamFile
{
    version     2.0;
    format      ascii;
    arch        "LSB;label=32;scalar=64";
    class       surfaceScalarField;
    location    "156";
    object      phi;
}
// * * * * * * * * * * * * * * * * * * * * * * * * * * * * * * * * * * * * * //

dimensions      [0 3 -1 0 0 0 0];

oriented        oriented;

internalField   nonuniform List<scalar> 
26232
(
1.05759e-05
0.00109419
-0.00110476
0.000357546
0.0020399
-0.00238687
0.00128926
0.00191499
-0.0028467
0.00301981
0.000756576
-0.00248712
0.00574826
-0.00143506
-0.00129339
0.00966055
-0.00467353
0.000761234
0.0149203
-0.00896673
0.00370702
0.0216491
-0.0142973
0.00756854
0.0299018
-0.0206051
0.0123524
0.0396412
-0.0277756
0.0180362
0.0507201
-0.0356381
0.0245593
0.0628767
-0.0439735
0.0318169
0.0757471
-0.0525305
0.0396601
0.0888935
-0.0610479
0.0479016
0.101845
-0.0692787
0.0563268
0.114149
-0.0770132
0.0647094
0.125418
-0.0840976
0.0728286
0.135374
-0.0904473
0.0804914
0.143879
-0.0960481
0.0875431
0.150926
-0.100959
0.0939122
0.156643
-0.105248
0.0995313
0.161141
-0.109133
0.104636
0.164378
-0.112262
0.109025
-0.115878
0.113942
0.166314
7.42039e-05
0.00101998
0.000620767
0.00149334
0.00191448
0.000621275
0.00420113
-0.00153007
0.00770376
-0.0049377
0.0126108
-0.00958056
0.0190519
-0.0154078
0.0270674
-0.0223129
0.0365809
-0.0301187
0.0473846
-0.0385793
0.0591445
-0.0473981
0.0714286
-0.0562576
0.0837526
-0.0648545
0.0956367
-0.0729319
0.106662
-0.0803045
0.116522
-0.0868724
0.125047
-0.0926227
0.132218
-0.0976185
0.138147
-0.101977
0.143026
-0.105839
0.14712
-0.109342
0.150605
-0.112618
0.153975
-0.115633
-0.118972
0.15707
0.000170538
0.000849445
0.000998535
0.00066534
0.00277476
-0.00115495
0.00575924
-0.00451456
0.0101701
-0.00934855
0.0161539
-0.0155643
0.023748
-0.0230019
0.0328487
-0.0314135
0.0431981
-0.0404681
0.0544008
-0.049782
0.0659685
-0.0589658
0.0773851
-0.0676742
0.088177
-0.0756464
0.0979747
-0.0827297
0.106554
-0.0888838
0.113849
-0.0941673
0.119936
-0.0987098
0.124995
-0.102677
0.129256
-0.106238
0.132955
-0.109538
0.136289
-0.112676
0.139416
-0.115744
0.142456
-0.118674
-0.121868
0.145353
0.000290052
0.000559393
0.00146036
-0.000504965
0.00380318
-0.00349776
0.00756736
-0.00827874
0.0129255
-0.0147066
0.0199272
-0.0225661
0.0284589
-0.0315336
0.0382289
-0.0411835
0.0487927
-0.0510319
0.0596161
-0.0606054
0.0701592
-0.0695088
0.0799593
-0.0774743
0.0886943
-0.0843814
0.0962118
-0.0902471
0.102523
-0.0951946
0.107764
-0.0994087
0.112146
-0.103092
0.115898
-0.106429
0.119224
-0.109565
0.122286
-0.1126
0.125205
-0.115595
0.128051
-0.11859
0.130934
-0.121556
-0.124753
0.133818
0.00042607
0.000133323
0.00197904
-0.00205793
0.0049335
-0.00645222
0.00949285
-0.0128381
0.0157345
-0.0209483
0.0235555
-0.0303871
0.0326497
-0.0406279
0.0425369
-0.0510707
0.0526418
-0.0611368
0.0623985
-0.0703621
0.0713477
-0.0784579
0.0791996
-0.0853263
0.0858525
-0.0910343
0.0913679
-0.0957625
0.0959178
-0.0997445
0.0997236
-0.103215
0.103004
-0.106372
0.10594
-0.109366
0.10867
-0.112294
0.111285
-0.115215
0.11385
-0.11816
0.116403
-0.121143
0.118996
-0.124149
-0.127314
0.121557
0.000574676
-0.000441353
0.00253267
-0.00401592
0.00610388
-0.0100234
0.0114037
-0.0181379
0.018362
-0.0279066
0.026682
-0.0387071
0.035863
-0.0498089
0.0452915
-0.0604991
0.0543666
-0.070212
0.0626152
-0.0786107
0.0697584
-0.0856012
0.0757219
-0.0912897
0.0805963
-0.0959087
0.084573
-0.0997392
0.0878777
-0.103049
0.0907202
-0.106057
0.0932685
-0.10892
0.0956423
-0.111739
0.0979211
-0.114573
0.100156
-0.11745
0.102379
-0.120384
0.104614
-0.123378
0.106889
-0.126425
-0.129595
0.10917
0.000732774
-0.00117413
0.00309908
-0.00638223
0.00724882
-0.0141732
0.0131622
-0.0240513
0.0205793
-0.0353237
0.0290009
-0.0471287
0.0377802
-0.0585883
0.0462697
-0.0689886
0.0539585
-0.0779008
0.060552
-0.0852042
0.0659782
-0.0910275
0.0703392
-0.0956506
0.0738356
-0.0994051
0.076696
-0.1026
0.0791264
-0.10548
0.081287
-0.108218
0.0832887
-0.110922
0.0852027
-0.113653
0.0870724
-0.116442
0.088925
-0.119302
0.0907785
-0.122237
0.0926455
-0.125245
0.0945427
-0.128322
-0.131492
0.09644
0.000895322
-0.00206945
0.00365038
-0.00913729
0.0082938
-0.0188166
0.0146278
-0.0303853
0.0221851
-0.0428809
0.0302996
-0.0552432
0.038267
-0.0665556
0.0455127
-0.0762343
0.0516945
-0.0840826
0.0567161
-0.0902258
0.0606728
-0.0949842
0.0637677
-0.0987455
0.0662324
-0.10187
0.0682747
-0.104642
0.0700533
-0.107258
0.0716764
-0.109841
0.0732115
-0.112457
0.0746986
-0.11514
0.0761616
-0.117905
0.0776161
-0.120757
0.0790735
-0.123695
0.0805435
-0.126715
0.0820365
-0.129815
-0.132994
0.0835383
0.00105452
-0.00312397
0.00415218
-0.0122349
0.0091594
-0.0238238
0.0156737
-0.0368996
0.0230381
-0.0502453
0.0304925
-0.0626977
0.037374
-0.0734372
0.0432577
-0.0821179
0.0479915
-0.0888164
0.0516436
-0.0938779
0.0544104
-0.097751
0.0565271
-0.100862
0.0582077
-0.10355
0.0596157
-0.10605
0.0608615
-0.108504
0.0620131
-0.110992
0.0631092
-0.113553
0.0641726
-0.116204
0.065217
-0.11895
0.0662524
-0.121792
0.0672867
-0.124729
0.0683271
-0.127755
0.0693795
-0.130867
-0.134052
0.0704377
0.00120018
-0.00432415
0.00456696
-0.0156017
0.0097725
-0.0290294
0.0162081
-0.0433353
0.0230789
-0.0571161
0.0296194
-0.0692381
0.035286
-0.0791038
0.0398331
-0.086665
0.0432745
-0.0922578
0.0457864
-0.0963897
0.0476051
-0.0995697
0.0489541
-0.102211
0.0500074
-0.104604
0.050883
-0.106925
0.0516524
-0.109274
0.0523564
-0.111696
0.0530173
-0.114214
0.0536484
-0.116835
0.0542587
-0.11956
0.0548554
-0.122389
0.0554445
-0.125318
0.0560318
-0.128343
0.0566215
-0.131457
-0.134645
0.057215
0.0013217
-0.00564585
0.0048611
-0.0191411
0.0100796
-0.0342478
0.0161891
-0.0494448
0.0223302
-0.0632572
0.027812
-0.0747199
0.0322515
-0.0835434
0.0355714
-0.0899849
0.0379053
-0.0945916
0.0394824
-0.0979668
0.0405367
-0.100624
0.0412575
-0.102932
0.0417754
-0.105122
0.0421704
-0.10732
0.042487
-0.10959
0.0427493
-0.111959
0.0429704
-0.114435
0.0431591
-0.117023
0.0433218
-0.119723
0.0434641
-0.122531
0.0435907
-0.125445
0.0437054
-0.128457
0.0438101
-0.131562
-0.134745
0.0439092
0.00141259
-0.00705845
0.0050133
-0.0227418
0.0100564
-0.0392909
0.0156271
-0.0550155
0.0208802
-0.0685103
0.0252538
-0.0790935
0.028531
-0.0868206
0.0307679
-0.0922218
0.0321687
-0.0959925
0.0329739
-0.098772
0.0333911
-0.101041
0.0335694
-0.10311
0.0336016
-0.105154
0.0335396
-0.107258
0.0334108
-0.109461
0.0332292
-0.111777
0.0330032
-0.114209
0.032739
-0.116759
0.0324418
-0.119426
0.0321164
-0.122206
0.0317672
-0.125095
0.0313974
-0.128088
0.0310079
-0.131172
0.0306054
-0.134342
-0.000119476
0.00253372
-0.00241424
-0.000477273
0.00659361
-0.00623581
-0.00107518
0.00991199
-0.00931408
-0.00190044
0.0125579
-0.0117327
-0.00292576
0.014623
-0.0135977
-0.0041138
0.0162252
-0.0150372
-0.00542264
0.0174888
-0.0161799
-0.00681028
0.018523
-0.0171354
-0.00823725
0.0194085
-0.0179815
-0.0096673
0.0201905
-0.0187604
-0.0110665
0.0208801
-0.0194809
-0.0124012
0.0214586
-0.0201238
-0.0136366
0.0218838
-0.0206485
-0.0147343
0.0220965
-0.0209987
-0.0156521
0.0220244
-0.0211066
-0.0163432
0.0215868
-0.0208957
-0.0167568
0.020697
-0.0202834
-0.0168386
0.0192652
-0.0191834
-0.0165313
0.0172023
-0.0175096
-0.0157819
0.0144313
-0.0151807
-0.0145292
0.0108717
-0.0121244
-0.012714
0.00646716
-0.00828231
-0.010335
0.00122644
-0.00360552
-0.00473053
-0.00734473
0.0017403
-4.69562e-06
0.00253841
-9.37594e-05
0.00668267
-0.000315179
0.0101334
-0.00068786
0.0129306
-0.001205
0.0151401
-0.00183932
0.0168595
-0.00254985
0.0181993
-0.00328849
0.0192617
-0.00400522
0.0201252
-0.00465121
0.0208365
-0.00518002
0.0214089
-0.00554737
0.0218259
-0.00571027
0.0220467
-0.00562625
0.0220124
-0.00525289
0.0216511
-0.00454803
0.020882
-0.00347035
0.0196193
-0.00198058
0.0177754
-4.19643e-05
0.0152637
0.00239421
0.0119951
0.00536144
0.00790445
0.00889316
0.00293544
0.0130248
-0.00290521
-0.00956232
0.0178566
0.00010159
0.00243682
0.000271696
0.00651256
0.00042892
0.00997619
0.000529241
0.0128303
0.000561174
0.0151082
0.000541116
0.0168796
0.000506557
0.0182339
0.000508528
0.0192597
0.000604758
0.020029
0.000854447
0.0205868
0.00131496
0.0209484
0.00204021
0.0211007
0.00308014
0.0210068
0.0044807
0.0206119
0.00628381
0.0198479
0.00852717
0.0186386
0.0112438
0.0169027
0.0144621
0.0145571
0.0182057
0.0115201
0.0224872
0.00771363
0.0273273
0.00306435
0.0327451
-0.00248234
0.0387613
-0.00892146
-0.0163193
0.0455183
0.000186448
0.00225037
0.000578715
0.0061203
0.00107802
0.00947688
0.0016257
0.0122826
0.00219697
0.0145369
0.00279777
0.0162788
0.0034593
0.0175723
0.00423095
0.0184881
0.00517294
0.019087
0.0063498
0.0194099
0.00782545
0.0194727
0.00966002
0.0192661
0.011908
0.0187588
0.0146175
0.0179024
0.01783
0.0166355
0.0215803
0.0148883
0.0258973
0.0125856
0.0308046
0.00964986
0.0363224
0.00600229
0.0424494
0.00158659
0.0492287
-0.00371494
0.0566666
-0.00992028
0.0647294
-0.0169842
-0.0252207
0.0736308
0.000241088
0.00200929
0.000794352
0.00556703
0.00156272
0.00870852
0.00248547
0.0113599
0.00353193
0.0134905
0.00470014
0.0151106
0.0060137
0.0162588
0.00751622
0.0169855
0.00926468
0.0173385
0.0113229
0.0173518
0.0137557
0.0170398
0.0166255
0.0163964
0.0199888
0.0153955
0.023896
0.0139952
0.028391
0.0121406
0.0335117
0.0097675
0.0392925
0.00680485
0.0457618
0.00318055
0.0529543
-0.00119018
0.0609183
-0.00637741
0.0696426
-0.0124392
0.0791792
-0.0194569
0.0894357
-0.0272407
-0.0364751
0.10069
0.000260584
0.0017487
0.000898265
0.00492935
0.00183577
0.00777101
0.00302328
0.0101723
0.00443299
0.0120807
0.00605992
0.0134837
0.00792125
0.0143975
0.0100531
0.0148536
0.0125059
0.0148858
0.0153383
0.0145193
0.018613
0.0137651
0.0223925
0.0126169
0.0267367
0.0110513
0.0317024
0.00902941
0.0373441
0.00649881
0.0437146
0.00339708
0.0508649
-0.00034547
0.0588598
-0.00481441
0.0677424
-0.0100728
0.0775555
-0.0161904
0.0883166
-0.0232003
0.100024
-0.0311645
0.112517
-0.0397333
-0.0499173
0.125959
0.000244796
0.00150391
0.000886467
0.00428768
0.00188248
0.006775
0.00320503
0.0088498
0.00483793
0.0104478
0.00677967
0.0115419
0.00904532
0.0121318
0.0116661
0.0122329
0.014687
0.0118649
0.0181636
0.0110427
0.0221586
0.00977014
0.0267394
0.00803607
0.0319771
0.00581365
0.0379455
0.00306105
0.0447183
-0.00027403
0.0523823
-0.00426695
0.061013
-0.00897614
0.0706724
-0.0144738
0.0814125
-0.0208129
0.093238
-0.0280159
0.106112
-0.0360742
0.119885
-0.0449375
0.134342
-0.0541904
-0.0648151
0.14924
0.000198789
0.00130512
0.000773987
0.00371248
0.0017284
0.00582058
0.00306448
0.00751373
0.00478551
0.00872681
0.00690127
0.00942617
0.00943259
0.00960049
0.0124138
0.00925165
0.0158933
0.0083854
0.0199327
0.0070033
0.0246059
0.00509695
0.0299971
0.00264483
0.0361979
-0.000387137
0.0433103
-0.00405134
0.0514341
-0.00839779
0.0606532
-0.0134861
0.0710396
-0.0193626
0.0826208
-0.0260549
0.0953683
-0.0335604
0.109164
-0.0418118
0.123824
-0.0507337
0.138974
-0.0600881
0.154376
-0.0695925
-0.0796652
0.169226
0.000133239
0.00117188
0.00059632
0.0032494
0.00144341
0.00497349
0.00271283
0.0062443
0.00443479
0.00700486
0.00663993
0.00722102
0.00936667
0.00687376
0.0126661
0.00595218
0.016605
0.00444651
0.0212662
0.00234214
0.0267466
-0.000383436
0.0331551
-0.00376369
0.0406037
-0.00783573
0.0491929
-0.0126406
0.0590053
-0.0182102
0.0700798
-0.0245605
0.0823959
-0.0316787
0.0958528
-0.0395118
0.110254
-0.0479618
0.125302
-0.0568592
0.14061
-0.0660417
0.155659
-0.0751372
0.170164
-0.0840977
-0.092552
0.183051
6.42528e-05
0.00110763
0.000407742
0.00290591
0.00113768
0.00424356
0.00233248
0.00504949
0.00405703
0.00528031
0.00637425
0.00490381
0.00935412
0.00389389
0.0130796
0.00222671
0.0176484
-0.000122339
0.0231716
-0.00318102
0.0297656
-0.00697743
0.0375395
-0.0115376
0.046581
-0.0168772
0.056934
-0.0229936
0.0685805
-0.0298567
0.0814209
-0.0374009
0.0952615
-0.0455193
0.109813
-0.0540631
0.124692
-0.0628411
0.139465
-0.071632
0.15363
-0.0802068
0.16675
-0.0882574
0.178464
-0.0958118
-0.102153
0.188065
1.13555e-05
0.00109627
0.000272687
0.00264458
0.00094254
0.0035737
0.00214261
0.00384942
0.00397982
0.0034431
0.00655919
0.00232443
0.00999176
0.000461328
0.0143972
-0.00217878
0.0199
-0.00562509
0.0266179
-0.00989889
0.0346464
-0.0150059
0.0440373
-0.0209285
0.0547775
-0.0276174
0.0667703
-0.0349864
0.0798236
-0.04291
0.0936476
-0.051225
0.107865
-0.0597372
0.122038
-0.0682351
0.135694
-0.0764977
0.148405
-0.0843429
0.159775
-0.0915765
0.169681
-0.0981637
0.177847
-0.103978
-0.10869
0.184384
-8.49209e-06
0.000249219
0.000976222
0.00233853
0.00448824
0.0075739
0.0117423
0.017132
0.0238593
0.0319966
0.0415499
0.0524383
0.064481
0.0773961
0.090813
0.104297
0.117389
0.129645
0.140691
0.15026
0.158215
0.164687
0.169735
0.174986
-0.0031983
-0.0158075
0.0116611
0.0012648
-0.0288984
0.0244353
0.00587337
-0.0435889
0.0389803
0.0105423
-0.0591817
0.0545128
0.0150008
-0.0748373
0.0703788
0.0188887
-0.0897343
0.0858463
0.0218242
-0.103107
0.100171
0.0235093
-0.114471
0.112786
0.0241072
-0.123706
0.123108
0.0243046
-0.130686
0.130489
0.0254836
-0.134765
0.133586
0.0292694
-0.134056
0.130271
0.0367234
-0.125671
0.118217
0.047721
-0.107038
0.0960401
0.0611211
-0.0773985
0.0639985
0.075698
-0.0382089
0.023632
0.0904313
0.00730686
-0.0220401
0.104506
0.0546965
-0.0687709
0.1169
0.0975713
-0.109965
0.126536
0.130683
-0.14032
0.132876
0.152173
-0.158513
0.136239
0.163355
-0.166718
0.137122
0.167512
-0.168395
0.135308
0.170214
-0.168401
0.130492
0.17741
-0.172594
0.123994
0.187987
-0.181488
0.119041
0.188938
-0.183984
0.118623
0.162201
-0.161783
0.12339
0.10099
-0.105757
0.131941
0.0166104
-0.0251619
0.141467
-0.0674151
0.057889
0.149555
-0.133444
0.125356
0.154933
-0.174507
0.169128
0.157652
-0.193534
0.190816
0.15747
-0.199647
0.199829
0.153367
-0.204964
0.209067
0.145576
-0.217723
0.225515
0.137037
-0.221334
0.229874
0.131885
-0.194913
0.200064
0.132221
-0.12039
0.120054
0.137572
-0.0217137
0.0163628
0.145283
0.0779931
-0.0857036
0.152332
0.151876
-0.158924
0.155224
0.199718
-0.202611
0.15212
0.240723
-0.237619
0.144857
0.260593
-0.253331
0.138442
0.264312
-0.257896
0.136775
0.186035
-0.184368
0.141022
0.0844559
-0.0887038
0.147185
-0.0454847
0.0393225
0.150303
-0.143228
0.14011
0.148043
-0.204753
0.207013
0.143705
-0.289925
0.294263
0.14154
-0.249772
0.251937
0.142782
-0.240523
0.239281
0.14418
-0.0771872
0.075789
0.143908
0.0681687
-0.0678966
0.142489
0.162408
-0.160989
0.140648
0.368195
-0.366354
0.197384
-0.195705
0.0215973
-0.0195482
0.0253387
-0.0326399
0.0291227
-0.0473729
0.0327607
-0.0628198
0.0360113
-0.0780878
0.0385668
-0.0922898
0.0400223
-0.104562
0.0399199
-0.114369
0.0379111
-0.121698
0.0342621
-0.127037
0.0301985
-0.130701
0.0278767
-0.131735
0.0295121
-0.127307
0.0362211
-0.113747
0.0474909
-0.0886682
0.0618326
-0.0525506
0.0778457
-0.00870629
0.0939549
0.0385873
0.108875
0.0826508
0.121208
0.118351
0.130187
0.143194
0.135889
0.157653
0.138556
0.164845
0.138043
0.170727
0.134548
0.180906
0.129778
0.192756
0.126619
0.192096
0.127163
0.161657
0.131579
0.0965739
0.138792
0.00939788
0.146367
-0.0749905
0.152428
-0.139504
0.155865
-0.177944
0.156927
-0.194596
0.155637
-0.198358
0.150895
-0.200223
0.142559
-0.209386
0.133415
-0.212191
0.127927
-0.189425
0.1286
-0.121063
0.13499
-0.0281033
0.144113
0.0688699
0.152366
0.143622
0.156107
0.195978
0.153594
0.243236
0.146858
0.267329
0.140649
0.27052
0.1386
0.188084
0.142185
0.0808712
0.147776
-0.0510759
0.150695
-0.146147
0.148196
-0.202254
0.14369
-0.285419
0.141462
-0.247544
0.142577
-0.241638
0.14385
-0.0784601
0.143445
0.0685734
0.142084
0.163769
0.140311
0.369967
0.199032
0.0484542
-0.0224841
0.0514174
-0.0356031
0.0542198
-0.0501753
0.0566675
-0.0652674
0.0585991
-0.0800195
0.0598209
-0.0935116
0.0600208
-0.104762
0.0587287
-0.113077
0.0554182
-0.118387
0.0497439
-0.121363
0.0421611
-0.123118
0.034502
-0.124076
0.029714
-0.122519
0.0304521
-0.114485
0.037627
-0.095843
0.0501942
-0.0651179
0.0662167
-0.0247288
0.0837381
0.0210659
0.100751
0.0656376
0.115589
0.103514
0.127205
0.131578
0.135322
0.149536
0.139921
0.160247
0.141001
0.169647
0.139209
0.182698
0.136411
0.195555
0.134973
0.193534
0.136238
0.160392
0.140013
0.0927981
0.145465
0.00394591
0.150979
-0.080504
0.154962
-0.143488
0.156523
-0.179505
0.156025
-0.194097
0.153755
-0.196088
0.148606
-0.195074
0.140001
-0.200781
0.1304
-0.202589
0.124507
-0.183532
0.125334
-0.121891
0.13253
-0.0352995
0.142914
0.058486
0.15232
0.134217
0.156996
0.191302
0.155247
0.244986
0.149184
0.273391
0.143232
0.276473
0.14075
0.190566
0.143531
0.0780909
0.148461
-0.0560068
0.151174
-0.148859
0.14846
-0.19954
0.143728
-0.280688
0.141403
-0.245218
0.142437
-0.242672
0.143652
-0.0796754
0.143129
0.0690966
0.141813
0.165085
0.140121
0.371659
0.200626
0.0759316
-0.0247849
0.0781511
-0.0378225
0.0800379
-0.0520622
0.0812833
-0.0665127
0.0817654
-0.0805016
0.0813819
-0.0931281
0.0799863
-0.103366
0.0774039
-0.110494
0.0733218
-0.114305
0.067186
-0.115227
0.0585342
-0.114466
0.0479623
-0.113504
0.0379177
-0.112474
0.0320579
-0.108625
0.0332636
-0.0970488
0.0420002
-0.0738544
0.0564462
-0.0391748
0.0742782
0.0032338
0.0926938
0.047222
0.10967
0.086538
0.123772
0.117476
0.134284
0.139023
0.140935
0.153596
0.143879
0.166703
0.144097
0.182479
0.143428
0.196224
0.143615
0.193347
0.145295
0.158712
0.148281
0.0898121
0.151825
0.000401688
0.155227
-0.0839058
0.157146
-0.145407
0.15692
-0.179279
0.154964
-0.192141
0.151797
-0.192921
0.146414
-0.189691
0.137828
-0.192195
0.127984
-0.192745
0.121636
-0.177184
0.122392
-0.122647
0.130168
-0.0430749
0.141627
0.047027
0.152138
0.123706
0.157848
0.185591
0.157038
0.245796
0.151794
0.278635
0.146159
0.282108
0.143194
0.193531
0.145062
0.0762228
0.149224
-0.0601691
0.151714
-0.15135
0.148814
-0.19664
0.143804
-0.275678
0.141341
-0.242756
0.142337
-0.243667
0.143569
-0.0809081
0.14295
0.0697164
0.141671
0.166364
0.14008
0.37325
0.202133
0.102764
-0.0268586
0.104408
-0.0394663
0.105325
-0.0529794
0.105253
-0.066441
0.10414
-0.0793885
0.101975
-0.0909633
0.0987576
-0.100149
0.0945467
-0.106283
0.089394
-0.109152
0.0831028
-0.108936
0.0750141
-0.106378
0.0644809
-0.102971
0.052234
-0.100227
0.0412922
-0.0976835
0.0358451
-0.0916016
0.0386812
-0.0766906
0.0495119
-0.0500054
0.0660634
-0.0133177
0.0849272
0.0283582
0.10345
0.0680151
0.119671
0.101255
0.132403
0.126291
0.141141
0.144858
0.146155
0.161689
0.148619
0.180015
0.150182
0.194661
0.151938
0.19159
0.153927
0.156723
0.155925
0.0878148
0.157737
-0.00141082
0.15901
-0.0851784
0.158904
-0.145301
0.156999
-0.177374
0.153718
-0.18886
0.149744
-0.188946
0.144263
-0.18421
0.135951
-0.183884
0.126119
-0.182912
0.119341
-0.170407
0.119805
-0.12311
0.127842
-0.0511123
0.140179
0.0346898
0.151744
0.112141
0.158591
0.178744
0.158894
0.245494
0.154612
0.282917
0.149351
0.287369
0.145899
0.196983
0.146747
0.0753753
0.150044
-0.0634661
0.152288
-0.153593
0.149237
-0.193589
0.143904
-0.270345
0.141257
-0.240109
0.142251
-0.244661
0.143582
-0.082239
0.142896
0.070402
0.14165
0.16761
0.14019
0.37471
0.203519
0.127665
-0.0285646
0.128631
-0.0404323
0.128475
-0.0528241
0.126981
-0.0649465
0.124203
-0.0766108
0.120239
-0.0869993
0.115225
-0.095134
0.109378
-0.100437
0.102954
-0.102728
0.0961281
-0.10211
0.0886937
-0.0989431
0.0797994
-0.0940762
0.0686154
-0.0890432
0.0560457
-0.0851138
0.0455936
-0.0811495
0.0417
-0.0727971
0.0467529
-0.0550583
0.0597497
-0.0263145
0.0776421
0.0104657
0.0968105
0.0488466
0.114595
0.083471
0.129268
0.111617
0.140062
0.134064
0.147273
0.154478
0.152124
0.175165
0.155969
0.190816
0.159264
0.188295
0.16159
0.154397
0.162734
0.0866709
0.162944
-0.00162102
0.162216
-0.0844501
0.160164
-0.143248
0.156706
-0.173917
0.152252
-0.184406
0.147556
-0.18425
0.142064
-0.178718
0.134244
-0.176064
0.124697
-0.173366
0.117584
-0.163294
0.117539
-0.123065
0.125533
-0.0591069
0.138492
0.0217314
0.151048
0.099585
0.159127
0.170664
0.160708
0.243913
0.15753
0.286094
0.152713
0.292186
0.148775
0.200921
0.148567
0.0755835
0.150893
-0.0657921
0.152859
-0.15556
0.149703
-0.190433
0.14402
-0.264662
0.141137
-0.237226
0.142154
-0.245678
0.143668
-0.0837534
0.142957
0.0711133
0.141743
0.168824
0.140449
0.376004
0.204745
0.15005
-0.0293743
0.149891
-0.040274
0.148295
-0.0512283
0.145134
-0.0617853
0.140577
-0.0720531
0.134806
-0.0812287
0.128087
-0.0884152
0.12079
-0.09314
0.113282
-0.0952196
0.105853
-0.0946812
0.0986389
-0.0917293
0.0912922
-0.0867296
0.0827344
-0.0804854
0.072039
-0.0744184
0.0603235
-0.069434
0.0513985
-0.0638721
0.0496399
-0.0532996
0.0568288
-0.0335034
0.0714892
-0.00419462
0.0897825
0.0305534
0.108274
0.064979
0.1245
0.0953914
0.137272
0.121292
0.146757
0.144994
0.154069
0.167852
0.160191
0.184694
0.165014
0.183472
0.167747
0.151664
0.168294
0.0861239
0.167233
-0.000559928
0.164708
-0.0819248
0.160849
-0.139389
0.155983
-0.169051
0.150525
-0.178947
0.145199
-0.178925
0.139736
-0.173255
0.132558
-0.168885
0.123561
-0.164369
0.116272
-0.156005
0.115582
-0.122375
0.123193
-0.0667175
0.136489
0.00843516
0.149949
0.0861251
0.159342
0.161271
0.162354
0.240902
0.16042
0.288028
0.15612
0.296486
0.151756
0.205284
0.150453
0.0768864
0.151742
-0.0670808
0.153391
-0.157209
0.150182
-0.187223
0.144144
-0.258624
0.140971
-0.234053
0.142019
-0.246726
0.143804
-0.0855384
0.143117
0.0718008
0.141942
0.169998
0.140859
0.377087
0.20577
0.168527
-0.0286745
0.166724
-0.0384714
0.163329
-0.0478333
0.158375
-0.0568315
0.152108
-0.0657859
0.144744
-0.0738643
0.136624
-0.0802955
0.128205
-0.084721
0.119927
-0.0869413
0.112125
-0.0868798
0.10501
-0.084614
0.0985866
-0.0803063
0.0923191
-0.0742179
0.0849659
-0.0670652
0.0756301
-0.0600981
0.0656191
-0.0538611
0.0588008
-0.0464813
0.0592342
-0.0339368
0.0681156
-0.0130761
0.0832867
0.0153823
0.100996
0.04727
0.118028
0.078359
0.13253
0.10679
0.144268
0.133256
0.154057
0.158063
0.16245
0.176301
0.168809
0.177112
0.172099
0.148374
0.172342
0.0858801
0.170369
0.00141376
0.16636
-0.0779165
0.160889
-0.133918
0.154767
-0.16293
0.14848
-0.172661
0.142629
-0.173073
0.137202
-0.167828
0.130742
-0.162426
0.122519
-0.156146
0.115268
-0.148754
0.113885
-0.120992
0.120788
-0.0736207
0.134109
-0.00488559
0.148353
0.071881
0.159114
0.15051
0.163686
0.236329
0.16312
0.288594
0.159428
0.300179
0.154729
0.209983
0.152357
0.0792582
0.152555
-0.0672785
0.153844
-0.158498
0.150636
-0.184015
0.144266
-0.252254
0.140754
-0.230541
0.141824
-0.247796
0.143966
-0.0876803
0.143361
0.0724051
0.142239
0.17112
0.141418
0.377908
0.206548
0.180707
-0.0263306
0.177154
-0.0349182
0.172028
-0.0427075
0.165577
-0.0503807
0.158044
-0.058253
0.149628
-0.0654483
0.140697
-0.0713648
0.131708
-0.0757322
0.123093
-0.078326
0.115206
-0.0789931
0.108284
-0.0776919
0.102435
-0.0744569
0.0975415
-0.0693244
0.0929228
-0.0624465
0.0872938
-0.0544692
0.0798763
-0.0464436
0.0720648
-0.0386698
0.0675462
-0.0294181
0.0698289
-0.0153588
0.0795129
0.00569838
0.0942277
0.0325552
0.110622
0.0619646
0.126125
0.0912869
0.139819
0.119562
0.151965
0.145917
0.162564
0.165703
0.170459
0.169216
0.174478
0.144356
0.174804
0.0855541
0.172261
0.00395657
0.16707
-0.0727247
0.160185
-0.127033
0.152955
-0.1557
0.146018
-0.165724
0.139764
-0.166819
0.134365
-0.162429
0.128645
-0.156706
0.121369
-0.14887
0.114381
-0.141765
0.112343
-0.118955
0.118304
-0.0795813
0.131314
-0.0178957
0.146176
0.0570193
0.15832
0.138366
0.164574
0.230075
0.16549
0.287678
0.1625
0.303169
0.157559
0.214923
0.154222
0.0825952
0.153292
-0.0663479
0.154173
-0.159379
0.151024
-0.180866
0.144377
-0.245607
0.140489
-0.226654
0.141545
-0.248851
0.144128
-0.0902637
0.143676
0.0728573
0.142626
0.17217
0.142126
0.378408
0.207033
0.184664
-0.0229296
0.179891
-0.0301457
0.173683
-0.0364994
0.166482
-0.0431794
0.158436
-0.0502068
0.14971
-0.0567228
0.140667
-0.0623216
0.131716
-0.0667812
0.12324
-0.0698497
0.11557
-0.0713228
0.108956
-0.0710779
0.103555
-0.0690565
0.0994228
-0.065192
0.0963707
-0.0593945
0.0936639
-0.0517624
0.0900512
-0.0428309
0.0848785
-0.033497
0.0795186
-0.0240583
0.0772119
-0.0130521
0.0807946
0.00211569
0.0904455
0.0229043
0.104136
0.0482744
0.119193
0.0762298
0.134008
0.104747
0.148054
0.131871
0.16064
0.153117
0.170081
0.159775
0.175048
0.139388
0.175797
0.0848052
0.172917
0.00683615
0.166794
-0.0666009
0.158669
-0.118908
0.150467
-0.147498
0.143047
-0.158303
0.136537
-0.160309
0.131158
-0.15705
0.126146
-0.151694
0.119937
-0.142661
0.113424
-0.135252
0.110841
-0.116371
0.1157
-0.0844406
0.128094
-0.0302894
0.143364
0.0417496
0.156854
0.124876
0.164844
0.222085
0.167335
0.285186
0.165175
0.30533
0.160163
0.219935
0.155966
0.0867924
0.153924
-0.0643054
0.15434
-0.159796
0.151309
-0.177835
0.144472
-0.23877
0.140186
-0.222367
0.14116
-0.249825
0.144266
-0.0933692
0.144045
0.0730778
0.143094
0.173122
0.142979
0.378523
0.207176
0.180839
-0.0193845
0.175695
-0.0250021
0.169333
-0.0301367
0.162229
-0.0360754
0.154406
-0.0423846
0.146049
-0.0483657
0.137484
-0.0537565
0.129048
-0.0583449
0.121072
-0.0618739
0.113862
-0.064113
0.107672
-0.0648877
0.10269
-0.0640743
0.0990034
-0.0615053
0.0966056
-0.0569968
0.0952835
-0.0504402
0.0943897
-0.0419371
0.0929119
-0.0320192
0.0902743
-0.0214207
0.0876548
-0.0104327
0.0874293
0.00234121
0.0917418
0.0185918
0.101011
0.0390053
0.11365
0.0635904
0.128051
0.0903463
0.143073
0.11685
0.157134
0.139055
0.167837
0.149072
0.173883
0.133342
0.175632
0.0830562
0.17259
0.0098787
0.165817
-0.0598278
0.156632
-0.109723
0.147592
-0.138458
0.139811
-0.150523
0.133163
-0.153661
0.127757
-0.151644
0.123317
-0.147255
0.118203
-0.137546
0.112332
-0.129382
0.109307
-0.113346
0.112957
-0.0880911
0.124446
-0.0417783
0.13985
0.0263454
0.154641
0.110085
0.164488
0.212239
0.16863
0.281043
0.167347
0.306614
0.162454
0.224827
0.157577
0.0916703
0.154466
-0.0611948
0.154351
-0.159682
0.151479
-0.174963
0.144563
-0.231854
0.139861
-0.217665
0.140674
-0.250638
0.144357
-0.0970526
0.144453
0.0729825
0.143636
0.173939
0.143979
0.37818
0.206927
0.171866
-0.0162644
0.166915
-0.020051
0.161316
-0.0245373
0.155042
-0.0298012
0.148103
-0.0354459
0.140769
-0.0410314
0.133296
-0.0462835
0.125939
-0.0509882
0.118975
-0.0549094
0.112657
-0.0577957
0.107182
-0.059412
0.102672
-0.0595647
0.0992371
-0.0580703
0.0969876
-0.0547472
0.0959877
-0.0494403
0.0961057
-0.0420551
0.0967642
-0.0326778
0.0970367
-0.0216931
0.0963756
-0.0097716
0.0959219
0.00279489
0.0976801
0.0168336
0.10291
0.0337749
0.111869
0.0546321
0.123893
0.0783217
0.137961
0.102782
0.152157
0.124859
0.16392
0.137309
0.171745
0.125517
0.17471
0.0800916
0.172209
0.0123794
0.164273
-0.0518918
0.154202
-0.099652
0.144607
-0.128863
0.136631
-0.142546
0.129943
-0.146973
0.12444
-0.14614
0.120344
-0.143159
0.116227
-0.133429
0.111117
-0.124272
0.107745
-0.109974
0.11021
-0.0905568
0.120551
-0.0521188
0.135784
0.0111121
0.151476
0.0943932
0.16308
0.200634
0.168999
0.275125
0.168804
0.306809
0.16428
0.229351
0.15897
0.0969802
0.154879
-0.0571045
0.15421
-0.159012
0.151526
-0.172279
0.144645
-0.224973
0.139503
-0.212523
0.140126
-0.251261
0.144411
-0.101337
0.144894
0.0724991
0.144245
0.174588
0.145119
0.377305
0.20623
0.206192
-0.0134293
-0.209027
0.204164
-0.018023
0.201811
-0.022185
0.19885
-0.0268398
0.1952
-0.0317964
0.190908
-0.0367386
0.186042
-0.0414176
0.180662
-0.0456082
0.174849
-0.0490963
0.168716
-0.0516635
0.162396
-0.0530913
0.156014
-0.0531826
0.1497
-0.0517572
0.143596
-0.0486427
0.137848
-0.0436924
0.132584
-0.0367913
0.127758
-0.0278512
0.122998
-0.0169337
0.117895
-0.00466815
0.112083
0.00860697
0.106601
0.022315
0.102813
0.0375632
0.102116
0.0553294
0.105363
0.0750746
0.112634
0.0955115
0.123554
0.113938
0.138583
0.12228
0.157725
0.106375
0.176549
0.0612672
0.188472
0.000456892
0.192303
-0.055723
0.189102
-0.096451
0.181999
-0.121761
0.17351
-0.134057
0.164741
-0.138204
0.156263
-0.137662
0.148762
-0.135658
0.141456
-0.126123
0.132996
-0.115812
0.124948
-0.101925
0.1209
-0.0865094
0.123073
-0.0542914
0.12909
0.00509562
0.135212
0.0882708
0.139462
0.196384
0.142883
0.271704
0.146989
0.302703
0.152007
0.224333
0.156114
0.0928734
0.158061
-0.059052
0.158141
-0.159092
0.154899
-0.169036
0.146879
-0.216953
0.139573
-0.205217
0.136168
-0.247856
0.135316
-0.100485
0.132863
0.0749524
0.130466
0.176985
0.131992
0.375779
0.204891
0.215017
-0.011285
-0.217161
0.212662
-0.0156682
0.21028
-0.019803
0.207405
-0.0239648
0.203898
-0.0282898
0.199793
-0.0326334
0.195143
-0.0367675
0.190007
-0.0404727
0.184465
-0.0435536
0.178622
-0.0458205
0.172609
-0.0470787
0.166565
-0.047139
0.160633
-0.0458245
0.154956
-0.042966
0.14967
-0.0384069
0.144913
-0.032034
0.140795
-0.0237331
0.137243
-0.0133816
0.133757
-0.00118181
0.130074
0.0122892
0.126156
0.0262332
0.122919
0.0408007
0.121905
0.0563428
0.12454
0.07244
0.131473
0.0885787
0.142945
0.102465
0.159305
0.10592
0.178716
0.0869647
0.195687
0.0442958
0.205189
-0.00904435
0.206461
-0.056995
0.201481
-0.091471
0.193161
-0.113441
0.183946
-0.124842
0.174825
-0.129083
0.166027
-0.128864
0.158231
-0.127862
0.15102
-0.118912
0.14289
-0.107682
0.134636
-0.0936713
0.129754
-0.0816276
0.13116
-0.0556973
0.137077
-0.000821582
0.143759
0.0815885
0.148846
0.191297
0.153354
0.267197
0.158696
0.29736
0.16458
0.218449
0.169034
0.08842
0.170431
-0.0604491
0.169754
-0.158415
0.16587
-0.165153
0.157168
-0.208251
0.148885
-0.196934
0.144934
-0.243905
0.144176
-0.0997275
0.141576
0.0775526
0.139009
0.179553
0.141033
0.373755
0.203237
0.223534
-0.00968039
-0.225139
0.221412
-0.0135459
0.219008
-0.0173991
0.216216
-0.0211724
0.212895
-0.0249686
0.209019
-0.0287575
0.204629
-0.0323776
0.199787
-0.0356305
0.194566
-0.0383328
0.18906
-0.0403151
0.183389
-0.0414069
0.177685
-0.0414351
0.172092
-0.0402322
0.166764
-0.0376371
0.161851
-0.0334938
0.157504
-0.0276872