/*--------------------------------*- C++ -*----------------------------------*\
| =========                 |                                                 |
| \\      /  F ield         | OpenFOAM: The Open Source CFD Toolbox           |
|  \\    /   O peration     | Version:  2512                                  |
|   \\  /    A nd           | Website:  www.openfoam.com                      |
|    \\/     M anipulation  |                                                 |
\*---------------------------------------------------------------------------*/
FoamFile
{
    version     2.0;
    format      ascii;
    arch        "LSB;label=32;scalar=64";
    class       volVectorField;
    location    "75.75";
    object      U;
}
// * * * * * * * * * * * * * * * * * * * * * * * * * * * * * * * * * * * * * //

dimensions      [0 1 -1 0 0 0 0];

internalField   nonuniform List<vector> 
13248
(
(-0.0115615 0.0102769 6.27845e-20)
(-0.0210566 0.0199303 0)
(-0.018465 0.0229515 -1.18989e-19)
(-0.00428284 0.0220592 1.12091e-19)
(0.0212969 0.0191708 1.0497e-19)
(0.0581776 0.0156579 0)
(0.106234 0.0125099 0)
(0.165158 0.010438 2.49523e-19)
(0.234306 0.00994068 -2.65182e-21)
(0.312582 0.0113329 -2.15344e-19)
(0.398381 0.0147552 1.95608e-19)
(0.489617 0.0201748 -1.21908e-19)
(0.583827 0.0273899 0)
(0.678329 0.0360459 -1.99708e-19)
(0.770424 0.0456655 3.69964e-19)
(0.857586 0.05569 -8.70578e-20)
(0.93764 0.0655311 -1.51959e-19)
(1.00889 0.0746033 1.4265e-19)
(1.0702 0.0824436 0)
(1.12102 0.0884552 0)
(1.16151 0.0928875 0)
(1.19176 0.0938895 0)
(1.21405 0.0954841 4.37892e-20)
(1.22723 0.0875871 1.62405e-19)
(-0.0117025 0.00948967 -1.89793e-19)
(-0.0175988 0.0173175 1.29651e-19)
(-0.00747883 0.0191959 -1.07489e-21)
(0.017558 0.0177775 -1.71451e-19)
(0.0569091 0.0150372 -1.04855e-19)
(0.110074 0.0124468 -9.90232e-20)
(0.176365 0.0110533 -1.80756e-19)
(0.254674 0.0115623 1.71002e-19)
(0.343294 0.0143855 0)
(0.439846 0.0196582 1.52787e-21)
(0.541341 0.0272514 3.46517e-21)
(0.644374 0.0367949 1.22492e-19)
(0.745405 0.0477227 0)
(0.84107 0.0593387 0)
(0.928469 0.0708947 1.35668e-19)
(1.00539 0.0816707 -2.54632e-19)
(1.07043 0.0910455 1.50245e-19)
(1.12307 0.0985458 -1.41052e-19)
(1.16355 0.103882 -6.23038e-20)
(1.19289 0.106914 -1.12648e-19)
(1.21244 0.107785 -4.77393e-20)
(1.22434 0.106265 -8.97468e-20)
(1.22966 0.104067 1.30668e-19)
(1.23167 0.09742 3.81686e-20)
(-0.0106956 0.00799226 0)
(-0.0104876 0.0131681 0)
(0.00991486 0.0137676 6.06595e-20)
(0.0487475 0.0122446 5.58383e-20)
(0.104827 0.0105348 -1.50017e-21)
(0.176935 0.0101198 -1.02301e-19)
(0.263357 0.0119837 0)
(0.361624 0.0166594 -8.47605e-20)
(0.468407 0.0242635 7.9145e-20)
(0.579635 0.0345245 6.72458e-22)
(0.690813 0.0468379 -1.32636e-19)
(0.797463 0.060359 -1.19658e-19)
(0.895594 0.0741242 3.33498e-21)
(0.982081 0.0871816 -9.59067e-20)
(1.05491 0.0987075 2.32113e-19)
(1.11328 0.108092 0)
(1.1575 0.114984 -1.47705e-19)
(1.18885 0.119287 7.14558e-20)
(1.20925 0.121147 6.22478e-20)
(1.22096 0.1208 0)
(1.22636 0.118806 5.11301e-20)
(1.2275 0.115062 -1.78603e-19)
(1.22584 0.111478 1.67661e-19)
(1.22418 0.104462 1.08074e-19)
(-0.0082479 0.00592599 -6.74602e-20)
(0.0011049 0.00791946 -6.97682e-20)
(0.0349396 0.00744238 6.29977e-20)
(0.0906741 0.00659775 0)
(0.166226 0.00714877 0)
(0.259156 0.0104304 -2.13031e-21)
(0.366104 0.0171464 0)
(0.482627 0.0273869 -2.58465e-19)
(0.603385 0.0406901 2.39069e-19)
(0.722622 0.056147 -2.93554e-19)
(0.834824 0.0725638 6.64607e-20)
(0.935377 0.0886632 0)
(1.02104 0.103283 1.08434e-19)
(1.09021 0.115529 -2.00003e-19)
(1.14282 0.124866 4.73548e-20)
(1.1802 0.131128 1.1973e-19)
(1.20458 0.13447 -5.97196e-21)
(1.2187 0.135275 -1.33794e-19)
(1.22536 0.134044 0)
(1.22706 0.131287 0)
(1.22579 0.127523 -4.75838e-20)
(1.22295 0.122869 4.27921e-20)
(1.21941 0.118581 1.5432e-19)
(1.21608 0.11174 -1.44859e-19)
(-0.0040354 0.00347784 -7.13022e-20)
(0.0180001 0.00218616 -7.08866e-20)
(0.0686774 0.001293 1.99341e-19)
(0.144309 0.00234546 -1.20651e-19)
(0.241404 0.00672542 1.13567e-19)
(0.355631 0.0153592 2.05537e-19)
(0.481312 0.0283407 -1.45059e-19)
(0.611642 0.0449754 -1.75102e-19)
(0.739382 0.0639666 4.4084e-21)
(0.857804 0.0836816 2.22374e-19)
(0.961585 0.102464 0)
(1.0474 0.118914 6.04152e-20)
(1.11408 0.132087 0)
(1.16244 0.141558 -9.67436e-20)
(1.19476 0.147386 1.35672e-19)
(1.21416 0.14999 9.39461e-22)
(1.22398 0.149987 -3.53568e-20)
(1.2273 0.148045 6.53997e-20)
(1.22662 0.144765 5.6804e-20)
(1.22375 0.140618 -5.0913e-20)
(1.21983 0.135962 4.7573e-20)
(1.21555 0.130876 -4.27821e-20)
(1.21112 0.126115 0)
(1.20726 0.119451 -3.28784e-20)
(0.00228626 0.000885796 7.12921e-20)
(0.0409353 -0.0032517 7.48737e-20)
(0.111875 -0.00336917 -6.67963e-20)
(0.209869 0.00122376 1.2421e-19)
(0.329336 0.0111973 -1.16911e-19)
(0.463323 0.0266783 1.05215e-19)
(0.603407 0.0467448 -5.06088e-20)
(0.740596 0.0696234 1.31617e-19)
(0.866649 0.0931194 -8.27621e-20)
(0.975307 0.115087 1.45125e-19)
(1.06302 0.133828 -3.34076e-19)
(1.12905 0.148322 1.22598e-19)
(1.17501 0.158269 -1.05873e-19)
(1.2041 0.163965 9.94448e-20)
(1.22021 0.166095 8.49833e-20)
(1.22717 0.165499 7.40136e-20)
(1.22826 0.162987 -2.06376e-19)
(1.22594 0.159227 1.27783e-19)
(1.2219 0.154706 -5.68065e-20)
(1.21713 0.14974 1.48395e-19)
(1.2122 0.144522 -4.79445e-20)
(1.20733 0.139117 -1.17004e-19)
(1.20265 0.133923 1.08075e-19)
(1.19838 0.127402 3.2868e-20)
(0.0110455 -0.00155019 0)
(0.0704394 -0.00746764 6.46288e-22)
(0.164718 -0.00509437 1.39861e-19)
(0.286517 0.00497499 -1.31165e-19)
(0.427416 0.0222246 -1.17791e-19)
(0.577331 0.0454997 2.18636e-19)
(0.725251 0.0725107 -1.01398e-19)
(0.861001 0.100345 1.34279e-19)
(0.976955 0.12619 -3.24605e-21)
(1.06903 0.147912 -7.57618e-20)
(1.1367 0.16434 1.63677e-19)
(1.18231 0.175269 -2.41325e-19)
(1.20989 0.181232 0)
(1.22407 0.18318 -4.68813e-20)
(1.22915 0.182179 -1.24294e-19)
(1.22864 0.179189 3.92329e-20)
(1.22506 0.174958 1.60004e-21)
(1.22002 0.170003 -8.46873e-20)
(1.21447 0.164649 5.53241e-21)
(1.20891 0.159083 9.79067e-20)
(1.20354 0.153408 -4.35815e-20)
(1.19845 0.147685 -1.6648e-20)
(1.1936 0.142062 5.10802e-20)
(1.18908 0.135644 0)
(0.0224971 -0.00345946 0)
(0.106686 -0.00941991 3.79875e-20)
(0.226626 -0.00241271 -1.83037e-19)
(0.372196 0.015121 6.63375e-20)
(0.531558 0.0408954 -6.24347e-20)
(0.691536 0.0720282 -5.69105e-20)
(0.839533 0.104759 -1.00065e-19)
(0.965918 0.135354 5.02175e-20)
(1.06551 0.160996 4.33297e-20)
(1.13764 0.180204 0)
(1.18517 0.192786 9.74576e-20)
(1.21296 0.199491 -1.44575e-19)
(1.22639 0.201555 1.07377e-19)
(1.23036 0.200298 4.69053e-20)
(1.2287 0.196867 -3.81582e-20)
(1.22406 0.192125 -3.15135e-20)
(1.21813 0.186649 -2.93412e-20)
(1.21184 0.180794 8.84137e-20)
(1.20565 0.174758 0)
(1.19977 0.168649 4.40906e-20)
(1.19425 0.162527 3.6989e-20)
(1.18906 0.156431 -9.20064e-20)
(1.18413 0.15037 -6.30433e-20)
(1.17945 0.143985 5.8138e-20)
(0.0367581 -0.00440593 -4.13483e-20)
(0.14936 -0.00801144 -1.66486e-21)
(0.296142 0.00602435 3.72859e-20)
(0.463713 0.0327566 1.04069e-19)
(0.636702 0.0675518 3.00981e-20)
(0.799701 0.105585 -5.82986e-20)
(0.940281 0.141927 5.31145e-20)
(1.05131 0.172704 -4.63149e-20)
(1.13137 0.195825 8.27872e-20)
(1.18355 0.210951 3.49403e-20)
(1.21347 0.219004 -9.93756e-20)
(1.22739 0.221531 2.90669e-20)
(1.23095 0.220168 4.92567e-20)
(1.22848 0.216312 -2.4315e-20)
(1.22295 0.210994 0)
(1.21617 0.204891 3.568e-20)
(1.20911 0.198407 5.99281e-20)
(1.20226 0.191766 9.95555e-21)
(1.19581 0.185083 -4.97523e-20)
(1.18982 0.178422 2.06281e-20)
(1.18424 0.171818 0)
(1.17901 0.165285 -1.61051e-20)
(1.17406 0.158785 -1.53691e-20)
(1.16929 0.152341 0)
(0.0537465 -0.00391342 0)
(0.197573 -0.00218499 2.16974e-20)
(0.37095 0.0212897 4.00546e-20)
(0.557047 0.0584014 -1.06307e-19)
(0.737576 0.101783 3.44256e-20)
(0.896557 0.144866 0)
(1.0238 0.182262 5.1206e-20)
(1.11617 0.210799 -7.1461e-20)
(1.17646 0.229692 -4.13804e-20)
(1.21092 0.239928 1.86112e-20)
(1.22684 0.24339 -2.94741e-20)
(1.23082 0.242116 7.17215e-20)
(1.22795 0.237849 3.54945e-20)
(1.22166 0.231866 -2.49046e-20)
(1.21404 0.224995 -2.54091e-21)
(1.20619 0.217722 -6.65938e-20)
(1.19862 0.210309 3.02324e-20)
(1.19156 0.202891 -8.41076e-22)
(1.18504 0.195535 0)
(1.17905 0.18828 -2.06497e-20)
(1.1735 0.181144 0)
(1.16831 0.174115 4.6202e-20)
(1.16338 0.16718 -5.47707e-20)
(1.15859 0.160564 2.49144e-20)
(0.073137 -0.00150487 -1.13856e-20)
(0.249836 0.00896893 -5.46646e-20)
(0.448028 0.0440489 6.22324e-20)
(0.647828 0.0919432 3.63989e-20)
(0.829452 0.142566 -1.73831e-20)
(0.978463 0.188276 2.90506e-20)
(1.08868 0.224189 -1.41224e-20)
(1.16165 0.248567 2.33331e-20)
(1.20394 0.262218 0)
(1.22393 0.267342 5.22605e-20)
(1.22948 0.266482 -2.34482e-21)
(1.22675 0.261862 -4.18295e-20)
(1.21992 0.255119 1.77467e-20)
(1.2115 0.247311 -1.98155e-20)
(1.20282 0.239054 -7.3511e-21)
(1.19449 0.230673 8.71324e-21)
(1.18675 0.22233 -6.57456e-21)
(1.17967 0.214103 -3.56022e-20)
(1.1732 0.206031 2.17609e-20)
(1.1673 0.198138 4.37882e-21)
(1.16186 0.190424 3.82949e-21)
(1.15677 0.182863 3.35116e-21)
(1.15193 0.175507 0)
(1.14718 0.168591 0)
(0.0944156 0.00326255 1.13934e-20)
(0.304261 0.0261233 -1.13638e-20)
(0.524076 0.0744721 -2.07391e-20)
(0.731994 0.132671 0)
(0.90876 0.188477 -8.63492e-21)
(1.04353 0.234232 -7.77165e-21)
(1.13521 0.266495 -1.32195e-20)
(1.18988 0.285421 0)
(1.21694 0.293391 0)
(1.2258 0.293539 0)
(1.22409 0.288743 0)
(1.21708 0.281172 0)
(1.20797 0.272239 -1.10867e-20)
(1.19846 0.262765 5.03244e-21)
(1.18933 0.253175 8.67042e-21)
(1.18089 0.243677 4.05216e-21)
(1.1732 0.234362 9.87204e-21)
(1.16624 0.225275 0)
(1.15996 0.216436 -2.3064e-21)
(1.15426 0.207856 -2.22042e-21)
(1.14903 0.199519 -3.83561e-21)
(1.14415 0.191405 -3.35653e-21)
(1.1395 0.183637 0)
(1.13491 0.17629 2.33688e-21)
(-0.000601713 -0.0243375 7.86109e-21)
(-0.00512051 -0.054028 -8.16386e-21)
(-0.0145928 -0.0704698 -1.54579e-20)
(-0.0266693 -0.077408 0)
(-0.0400091 -0.0778927 -2.07516e-20)
(-0.0539182 -0.0742718 6.56818e-21)
(-0.067933 -0.0681923 -1.22332e-20)
(-0.0817455 -0.0606704 0)
(-0.0951656 -0.0522121 0)
(-0.108074 -0.042955 0)
(-0.120387 -0.0328061 0)
(-0.132035 -0.0215563 0)
(-0.142948 -0.00896303 1.84973e-22)
(-0.153001 0.00519966 -8.09869e-21)
(-0.162138 0.0211351 1.47995e-20)
(-0.170287 0.0389071 2.09443e-20)
(-0.17728 0.0585631 6.24217e-21)
(-0.182983 0.0800589 0)
(-0.187267 0.103252 5.78578e-21)
(-0.190018 0.127906 -1.5852e-20)
(-0.191148 0.153691 -9.67635e-21)
(-0.190593 0.180215 -8.97733e-21)
(-0.188429 0.207091 0)
(-0.185218 0.233966 0)
(0.000449374 -0.0198771 -2.34384e-20)
(-0.0030158 -0.0436414 4.05687e-20)
(-0.0121561 -0.0563159 -1.50159e-20)
(-0.0242393 -0.0609667 -2.88477e-20)
(-0.0376885 -0.0601825 4.09265e-20)
(-0.0516711 -0.0559856 -2.56198e-20)
(-0.0656428 -0.049791 3.63277e-20)
(-0.0792539 -0.0424614 2.23871e-20)
(-0.0922965 -0.0344111 0)
(-0.104644 -0.0257305 -2.02907e-20)
(-0.116206 -0.0163098 8.3505e-23)
(-0.126904 -0.00594242 1.79753e-20)
(-0.136653 0.00560165 2.45679e-20)
(-0.14535 0.0185261 3.07231e-20)
(-0.152886 0.0329543 -1.49649e-20)
(-0.159138 0.0489987 -4.07444e-20)
(-0.16395 0.0666742 1.19651e-20)
(-0.167159 0.0859235 -4.58569e-20)
(-0.168603 0.106619 0)
(-0.168139 0.128567 1.0406e-20)
(-0.16564 0.151518 9.6626e-21)
(-0.160936 0.175194 8.96426e-21)
(-0.153906 0.199361 0)
(-0.145503 0.22392 0)
(0.000983854 -0.0152659 0)
(-0.00190843 -0.0330688 7.88839e-20)
(-0.0106908 -0.0421218 -2.98186e-20)
(-0.0224506 -0.0447376 2.84751e-20)
(-0.0354798 -0.0429804 -7.94739e-20)
(-0.0488552 -0.0385064 0)
(-0.0619767 -0.0324798 -4.69814e-20)
(-0.0744646 -0.0256065 2.1823e-20)
(-0.0860958 -0.0182165 -4.08845e-20)
(-0.0967373 -0.010365 1.85486e-20)
(-0.106296 -0.001938 1.08021e-19)
(-0.114687 0.00725901 -5.06838e-20)
(-0.121817 0.0174344 -7.90144e-20)
(-0.127577 0.0287677 -2.82523e-20)
(-0.131841 0.0413832 5.97057e-22)
(-0.134464 0.0553514 1.01468e-19)
(-0.135282 0.0706741 -4.73438e-20)
(-0.134115 0.0872895 1.32778e-21)
(-0.130779 0.105079 0)
(-0.1251 0.123878 -3.60402e-20)
(-0.116933 0.143501 0)
(-0.106044 0.163784 -3.24478e-20)
(-0.0919598 0.18471 1.18002e-19)
(-0.0754804 0.206477 -1.00387e-22)
(0.00100456 -0.0107775 0)
(-0.00182827 -0.0228865 -4.71027e-22)
(-0.0103169 -0.0286148 2.91513e-20)
(-0.0215364 -0.0295195 -2.74391e-20)
(-0.0337425 -0.0271199 2.63524e-20)
(-0.0459698 -0.0226901 1.4664e-19)
(-0.0575903 -0.0171347 -4.60677e-20)
(-0.0682084 -0.0110015 -4.27042e-20)
(-0.0775937 -0.0045395 8.07722e-20)
(-0.0856101 0.00222419 -1.13298e-19)
(-0.0921636 0.00940179 3.4878e-20)
(-0.0971691 0.0171711 3.22429e-20)
(-0.100533 0.0257188 0)
(-0.102144 0.0352035 2.87867e-20)
(-0.101872 0.0457345 0)
(-0.0995719 0.0573637 4.72416e-20)
(-0.0950788 0.0700808 -8.82857e-20)
(-0.0882143 0.0838159 2.26589e-20)
(-0.07879 0.0984482 7.6379e-20)
(-0.0666238 0.113817 3.60025e-20)
(-0.0515652 0.129747 0)
(-0.0333594 0.146148 -8.96446e-20)
(-0.0112349 0.163226 2.86251e-20)
(0.0145431 0.181661 0)
(0.000545184 -0.00659356 0)
(-0.00274118 -0.01349 -9.21019e-20)
(-0.0110748 -0.0163073 -2.89525e-20)
(-0.0216433 -0.0158867 -5.45473e-20)
(-0.0327451 -0.0132123 5.13639e-20)
(-0.0434209 -0.00917533 -4.86049e-20)
(-0.0530439 -0.00442019 9.01341e-20)
(-0.0612195 0.000664237 4.21629e-20)
(-0.0677186 0.00591004 -1.1912e-19)
(-0.0724082 0.0113178 7.31943e-20)
(-0.0751985 0.0169961 -1.02961e-19)
(-0.0760102 0.0231042 2.2056e-19)
(-0.0747565 0.0298072 -1.18499e-19)
(-0.0713343 0.0372446 5.35642e-20)
(-0.0656231 0.0455121 1.48721e-19)
(-0.0574877 0.0546516 -4.90607e-20)
(-0.0467815 0.0646487 -4.3469e-20)
(-0.0333428 0.0754327 -4.06945e-20)
(-0.016997 0.0868807 0)
(0.00241987 0.0988177 -6.52364e-20)
(0.0250477 0.11104 -5.89853e-20)
(0.0510629 0.123402 8.55042e-20)
(0.0813102 0.136127 1.04523e-19)
(0.117365 0.150345 -9.70684e-20)
(-0.000348396 -0.00280406 0)
(-0.00456784 -0.00509491 -1.21143e-19)
(-0.0129153 -0.0054929 1.97792e-22)
(-0.0227774 -0.00417645 1.07957e-19)
(-0.0325605 -0.00161765 0)
(-0.0413566 0.00166468 0)
(-0.0485698 0.00528212 0)
(-0.0538242 0.00900449 -4.14912e-20)
(-0.0569011 0.0127473 7.59301e-22)
(-0.0576749 0.0165421 7.25237e-20)
(-0.0560632 0.0204971 -1.00354e-19)
(-0.0519952 0.0247564 7.75754e-22)
(-0.0453943 0.0294664 0)
(-0.0361702 0.0347512 -5.35414e-20)
(-0.0242175 0.0406974 4.66399e-20)
(-0.00941727 0.0473452 -1.34018e-19)
(0.00835729 0.0546842 1.62607e-19)
(0.0292405 0.0626531 3.39508e-20)
(0.0533731 0.0711347 -3.23802e-21)
(0.0808962 0.079956 -1.27318e-19)
(0.111936 0.0888972 -5.68618e-20)
(0.14664 0.0976972 1.85757e-19)
(0.184938 0.106363 -1.22843e-19)
(0.233591 0.11589 0)
(-0.00162754 0.00056654 5.81602e-20)
(-0.00718508 0.0022193 6.0447e-20)
(-0.0156695 0.00371329 -5.68825e-20)
(-0.024731 0.0054874 -1.07092e-19)
(-0.0329383 0.00755301 1.0084e-19)
(-0.0394752 0.00974674 -9.40616e-20)
(-0.0438022 0.0119278 1.32464e-19)
(-0.0455746 0.0140236 -4.12542e-20)
(-0.0445882 0.016037 7.69457e-20)
(-0.0407216 0.018038 0)
(-0.0338928 0.0201429 6.41121e-20)
(-0.024031 0.022489 -1.21553e-19)
(-0.0110616 0.0252123 1.10813e-19)
(0.00510074 0.0284287 -1.04077e-19)
(0.0245526 0.032223 0)
(0.047398 0.0366403 8.67518e-20)
(0.0737446 0.0416808 1.55428e-19)
(0.103698 0.0472971 -1.46864e-19)
(0.13736 0.0533898 -6.56241e-20)
(0.174826 0.0598071 -6.01861e-20)
(0.216077 0.0663305 1.69795e-19)
(0.261833 0.0727225 5.01303e-20)
(0.308515 0.0785983 -4.762e-20)
(0.374407 0.0844046 4.39846e-20)
(-0.00323589 0.00351936 -5.81681e-20)
(-0.0104062 0.0084372 1.80784e-19)
(-0.0190049 0.0113006 -5.6686e-20)
(-0.0270076 0.013129 1.06744e-19)
(-0.0331904 0.0143861 -1.00511e-19)
(-0.0368586 0.0152437 2.98958e-22)
(-0.0375433 0.0157972 4.40474e-20)
(-0.0349322 0.0161298 1.6191e-19)
(-0.0288262 0.0163376 -1.98612e-21)
(-0.019092 0.0165392 -7.15243e-20)
(-0.00562881 0.0168725 0)
(0.0116535 0.017482 -5.82855e-20)
(0.0328428 0.0185047 1.11425e-19)
(0.0580261 0.0200597 9.99945e-20)
(0.087287 0.0222373 -4.77785e-20)
(0.120697 0.0250917 -6.51188e-22)
(0.158306 0.0286351 -3.91943e-20)
(0.200134 0.0328331 7.05742e-20)
(0.246156 0.0375988 6.56126e-20)
(0.296387 0.0428174 -6.01542e-20)
(0.350128 0.0481758 5.46084e-20)
(0.410038 0.0538588 -5.0402e-20)
(0.464731 0.0585922 0)
(0.55196 0.0634989 -4.39384e-20)
(-0.00509151 0.00603996 5.83732e-20)
(-0.0139469 0.0135301 -6.03089e-20)
(-0.0223849 0.0172727 5.71182e-20)
(-0.0287741 0.0188265 0)
(-0.0321333 0.0190717 0)
(-0.031903 0.0184908 9.35095e-20)
(-0.0276834 0.0174028 -8.79058e-20)
(-0.0191814 0.0160437 8.02295e-20)
(-0.00618392 0.0146094 -3.77576e-19)
(0.011473 0.0132786 9.44569e-22)
(0.0339214 0.0122252 6.44945e-20)
(0.0612667 0.0116152 0)
(0.0935859 0.0115998 -1.08019e-19)
(0.130916 0.0123066 2.00451e-19)
(0.173241 0.01383 -1.39092e-19)
(0.220476 0.016224 -2.07961e-19)
(0.272458 0.0194955 4.00453e-21)
(0.328937 0.0236003 1.41913e-19)
(0.389525 0.0284213 0)
(0.454072 0.0339145 0)
(0.520494 0.0394285 -5.46029e-20)
(0.594299 0.0460224 5.03961e-20)
(0.65456 0.0507032 -1.86355e-19)
(0.758418 0.0575551 1.74782e-19)
(-0.00706561 0.00807283 0)
(-0.0173933 0.0174018 0)
(-0.0250513 0.0215735 -1.7159e-19)
(-0.0288697 0.022621 5.45123e-20)
(-0.0281338 0.0217939 6.58384e-22)
(-0.0224186 0.0198569 9.4924e-20)
(-0.011383 0.0173369 0)
(0.00525933 0.0146184 -8.16922e-20)
(0.0277371 0.0119977 7.55682e-20)
(0.0562237 0.00972474 -1.38591e-19)
(0.0908313 0.00802066 1.08669e-21)
(0.131589 0.00707895 1.17397e-19)
(0.178421 0.00706134 -2.51836e-21)
(0.231121 0.00808923 9.6291e-20)
(0.289341 0.0102348 -1.3962e-19)
(0.352575 0.0135119 0)
(0.42017 0.0178704 1.51381e-19)
(0.491342 0.0231974 -2.12278e-19)
(0.565099 0.0292719 6.44137e-20)
(0.640884 0.0360502 0)
(0.715626 0.0425658 5.46112e-20)
(0.795435 0.0504026 2.01254e-19)
(0.856901 0.0552335 -1.88865e-19)
(0.959569 0.0640648 -2.20911e-19)
(-0.00897012 0.00952269 1.78498e-19)
(-0.0201936 0.0198818 -2.45995e-19)
(-0.0260484 0.0240638 3.68882e-22)
(-0.0258854 0.024475 5.47842e-20)
(-0.0192699 0.0226708 -1.02119e-19)
(-0.00590831 0.019663 -9.44943e-20)
(0.0144765 0.0161651 1.75367e-19)
(0.0421325 0.012698 -2.73203e-21)
(0.07724 0.00965963 -1.52942e-19)
(0.119867 0.00736975 2.79372e-19)
(0.169923 0.0060847 -2.8275e-21)
(0.227116 0.00600364 -1.20284e-19)
(0.290921 0.00726332 0)
(0.360564 0.009928 0)
(0.435033 0.0139805 -4.58254e-20)
(0.513108 0.0193163 -8.40985e-20)
(0.593407 0.0257454 -1.51831e-19)
(0.67446 0.032995 1.42516e-19)
(0.754729 0.0407226 -6.44352e-20)
(0.832967 0.048614 1.17593e-19)
(0.906794 0.0559706 -5.64434e-20)
(0.979034 0.0634588 9.96271e-20)
(1.03507 0.0679749 -2.35841e-19)
(1.11461 0.0755695 4.37267e-20)
(-0.0105595 0.0102809 6.01927e-20)
(-0.0216698 0.0207715 0)
(-0.0242675 0.0245682 1.17117e-19)
(-0.0182633 0.0243139 -1.10331e-19)
(-0.00351578 0.0217877 1.0221e-19)
(0.0201161 0.0182049 0)
(0.0527892 0.0144363 0)
(0.0946006 0.0111192 -8.16617e-20)
(0.145491 0.00872975 2.51592e-21)
(0.205156 0.00762134 7.21005e-20)
(0.272968 0.00804114 -6.39142e-20)
(0.347937 0.0101309 1.21002e-19)
(0.428709 0.0139202 0)
(0.51361 0.019321 1.9888e-19)
(0.600728 0.0261286 -3.68721e-19)
(0.688023 0.0340304 2.55002e-19)
(0.77345 0.0426297 1.52248e-19)
(0.855072 0.0514482 -1.42914e-19)
(0.931196 0.0600529 0)
(1.00035 0.0677825 0)
(1.0616 0.0746077 0)
(1.11462 0.0793461 0)
(1.15661 0.0828308 4.67757e-20)
(1.20145 0.0846848 -1.73972e-19)
(-0.18115 0.264663 -5.57581e-21)
(-0.174431 0.29901 5.59798e-21)
(-0.163446 0.329695 -1.63321e-22)
(-0.148308 0.354432 0)
(-0.128299 0.370619 -5.04424e-21)
(-0.102735 0.375331 9.88309e-21)
(-0.0710755 0.365947 1.20546e-22)
(-0.0330395 0.33985 -4.8227e-21)
(0.0112805 0.295324 0)
(0.061269 0.231728 0)
(0.115297 0.149411 -3.23054e-22)
(0.171748 0.0514695 -3.18244e-22)
(0.229274 -0.05891 -4.90398e-21)
(0.286431 -0.175959 4.46834e-21)
(0.342045 -0.291061 0)
(0.394255 -0.393513 0)
(0.439728 -0.472637 2.56299e-21)
(0.474878 -0.522089 -4.40768e-22)
(0.497163 -0.542816 -1.8788e-21)
(0.503662 -0.544242 -9.03567e-23)
(0.489689 -0.541662 0)
(0.454961 -0.543983 0)
(0.412577 -0.53898 0)
(0.386961 -0.495402 0)
(0.396841 -0.387495 0)
(0.441379 -0.218536 0)
(0.507117 -0.0190007 5.61486e-22)
(0.579486 0.170716 -8.77225e-22)
(0.645995 0.31792 0)
(0.696936 0.411367 0)
(0.729947 0.455903 -3.24296e-22)
(0.74954 0.46431 3.15178e-22)
(0.752628 0.462933 1.28537e-22)
(0.728793 0.477422 0)
(0.681762 0.496559 0)
(0.640072 0.464696 3.62051e-22)
(0.632277 0.337222 -3.51932e-22)
(0.662725 0.131506 0)
(0.711766 -0.0858751 3.76242e-22)
(0.759807 -0.255681 -5.40733e-22)
(0.797776 -0.353332 1.32457e-22)
(0.823938 -0.390598 0)
(0.824212 -0.411896 -1.49773e-22)
(0.7894 -0.431586 1.45642e-22)
(0.732195 -0.428676 0)
(0.693277 -0.337721 0)
(0.688596 -0.174012 -8.5894e-23)
(0.725805 0.0285389 2.36725e-22)
(0.770978 0.183253 0)
(0.804374 0.294116 0)
(0.796292 0.373219 -4.39984e-23)
(0.758298 0.397544 7.13511e-25)
(0.720595 0.375129 9.51939e-25)
(0.727272 0.204901 4.73925e-23)
(0.741838 0.0678592 0)
(0.77622 -0.148703 0)
(0.769649 -0.254427 0)
(0.742859 -0.327183 0)
(0.740633 -0.377062 0)
(0.72276 -0.108922 0)
(-0.13718 0.252493 -5.01494e-22)
(-0.124657 0.28325 -2.10338e-20)
(-0.107 0.309968 -8.17059e-24)
(-0.0842914 0.330514 1.975e-20)
(-0.0561453 0.342367 3.12431e-22)
(-0.0219645 0.3428 0)
(0.0183422 0.329183 -2.05601e-20)
(0.0643065 0.299278 4.15852e-20)
(0.115372 0.251697 -2.10284e-20)
(0.170362 0.186055 2.18638e-20)
(0.227674 0.103163 -2.09265e-20)
(0.285529 0.0053571 2.08268e-20)
(0.342722 -0.104129 -2.02883e-20)
(0.398328 -0.219854 -6.12428e-22)
(0.450887 -0.332963 -1.607e-20)
(0.497672 -0.431479 1.56165e-20)
(0.534736 -0.503843 -1.08674e-20)
(0.558769 -0.54413 1.02609e-20)
(0.568862 -0.554123 -6.77241e-21)
(0.565353 -0.54273 1.18737e-20)
(0.545491 -0.525431 -5.16229e-21)
(0.505195 -0.516462 -2.42027e-22)
(0.450248 -0.512001 -4.06282e-21)
(0.402066 -0.4836 8.35454e-21)
(0.385711 -0.397872 -4.28195e-21)
(0.409707 -0.247469 2.82616e-22)
(0.464143 -0.0581867 5.21793e-21)
(0.533224 0.129766 -2.50886e-22)
(0.602084 0.282934 -8.07359e-21)
(0.659537 0.386215 6.58229e-21)
(0.702194 0.440181 -2.89019e-21)
(0.731259 0.4576 2.68624e-22)
(0.739929 0.467184 -1.28808e-22)
(0.719217 0.492186 2.67572e-22)
(0.677755 0.514442 0)
(0.646408 0.475168 0)
(0.649692 0.334704 -1.83786e-21)
(0.688261 0.11852 1.29468e-21)
(0.740964 -0.102971 1.17866e-21)
(0.78712 -0.271023 -1.24564e-22)
(0.818407 -0.364335 -1.38966e-21)
(0.837341 -0.394748 2.04418e-22)
(0.833896 -0.406164 0)
(0.796944 -0.417238 0)
(0.737377 -0.413456 0)
(0.692484 -0.330766 0)
(0.684222 -0.178778 2.77356e-22)
(0.719171 0.0160816 -1.53334e-22)
(0.765743 0.171703 0)
(0.798995 0.290316 0)
(0.791279 0.378437 0)
(0.754891 0.406435 -9.64643e-23)
(0.71717 0.379372 -1.91949e-23)
(0.728093 0.202456 -8.74977e-23)
(0.743734 0.0626547 0)
(0.78226 -0.151485 0)
(0.77577 -0.251597 4.40671e-23)
(0.748142 -0.323869 1.05313e-22)
(0.748013 -0.375408 0)
(0.728024 -0.107803 0)
(-0.0610953 0.232401 6.34666e-22)
(-0.0437048 0.259575 -3.97962e-20)
(-0.0207207 0.282571 4.0827e-20)
(0.00791346 0.299418 -3.81854e-20)
(0.0421979 0.307717 -3.14548e-22)
(0.0821955 0.305021 0)
(0.12772 0.288683 -4.36425e-20)
(0.178152 0.256864 4.27906e-20)
(0.232561 0.208393 3.40826e-22)
(0.289614 0.143012 7.1884e-22)
(0.347684 0.0614868 7.24977e-22)
(0.405248 -0.0343731 6.8838e-22)
(0.461346 -0.141409 -4.25945e-20)
(0.514902 -0.254576 4.20076e-20)
(0.563863 -0.364583 0)
(0.604399 -0.458427 9.72457e-22)
(0.632058 -0.523928 -2.26164e-20)
(0.644215 -0.55582 2.22785e-20)
(0.641335 -0.5574 0)
(0.626374 -0.537293 0)
(0.600104 -0.508621 -8.51523e-21)
(0.557472 -0.487399 1.55501e-20)
(0.496735 -0.478587 -1.35932e-20)
(0.432252 -0.46142 -3.41986e-22)
(0.391269 -0.399095 1.44254e-20)
(0.39232 -0.271885 -1.61821e-20)
(0.43189 -0.0970388 1.59475e-20)
(0.494471 0.0863608 -9.63421e-22)
(0.563366 0.243785 -7.33361e-21)
(0.626031 0.356007 0)
(0.677444 0.419725 0)
(0.714898 0.447619 1.58262e-21)
(0.728698 0.469324 -2.04399e-21)
(0.711962 0.504674 4.96993e-24)
(0.677448 0.529506 2.86818e-21)
(0.656827 0.483418 -2.78736e-21)
(0.670776 0.331763 0)
(0.716743 0.106863 4.93675e-22)
(0.772427 -0.117307 3.9789e-21)
(0.816533 -0.282859 -6.96114e-21)
(0.840996 -0.372166 2.66894e-21)
(0.852325 -0.397016 2.12319e-22)
(0.845077 -0.399673 -1.41651e-21)
(0.806446 -0.40253 1.08212e-21)
(0.745336 -0.397909 2.06884e-22)
(0.695184 -0.323755 2.17924e-22)
(0.683351 -0.184103 -2.78055e-22)
(0.715386 0.00272371 0)
(0.762637 0.159369 0)
(0.79546 0.28597 -7.41145e-22)
(0.787982 0.383235 3.64669e-22)
(0.753307 0.415147 -3.65822e-22)
(0.715712 0.38369 6.24987e-22)
(0.730575 0.199975 8.90125e-22)
(0.747262 0.0573563 -1.7076e-22)
(0.789732 -0.15431 3.39227e-22)
(0.783312 -0.248614 -2.44754e-22)
(0.754476 -0.320474 1.13331e-22)
(0.755941 -0.373862 0)
(0.73381 -0.106611 0)
(0.0342697 0.20477 -7.81269e-20)
(0.0560034 0.228895 -1.28243e-21)
(0.0830579 0.248886 7.53765e-20)
(0.115725 0.262807 -6.18592e-22)
(0.153828 0.268512 0)
(0.197176 0.263754 0)
(0.245365 0.246259 -8.91355e-20)
(0.297694 0.214289 -6.30619e-21)
(0.353135 0.166755 1.36867e-19)
(0.410362 0.103328 1.3892e-21)
(0.468002 0.0243564 -4.72831e-20)
(0.524872 -0.0679802 -4.5178e-20)
(0.579976 -0.171692 4.53228e-20)
(0.631772 -0.281611 0)
(0.677193 -0.387759 -3.50738e-20)
(0.711054 -0.476248 3.21029e-20)
(0.728555 -0.534676 0)
(0.728332 -0.558629 0)
(0.712557 -0.553155 1.33368e-20)
(0.685761 -0.52752 -2.96894e-21)
(0.652029 -0.491836 -9.4336e-21)
(0.608519 -0.459754 -6.37168e-21)
(0.548144 -0.442236 6.29361e-21)
(0.475329 -0.429764 -5.5971e-21)
(0.413776 -0.388834 -4.12507e-22)
(0.390429 -0.288801 5.70379e-21)
(0.411632 -0.133596 8.14017e-22)
(0.46442 0.0418335 1.05749e-22)
(0.530867 0.201254 0)
(0.597111 0.321186 4.5055e-21)
(0.655828 0.394838 -4.61234e-21)
(0.70029 0.434298 2.52782e-22)
(0.718833 0.468671 0)
(0.706901 0.513914 -2.75838e-22)
(0.680359 0.541135 6.06115e-21)
(0.670614 0.489531 -1.2522e-20)
(0.694807 0.329078 -2.31413e-21)
(0.747542 0.097144 -2.62704e-22)
(0.805681 -0.128823 7.28698e-21)
(0.847624 -0.291531 8.0165e-22)
(0.865352 -0.377076 -4.15137e-21)
(0.868767 -0.397607 3.61461e-21)
(0.85751 -0.392778 7.87091e-24)
(0.817549 -0.387778 8.49517e-22)
(0.755684 -0.382007 -1.03352e-21)
(0.701124 -0.316405 -1.41645e-21)
(0.685821 -0.189636 4.28059e-22)
(0.714354 -0.0112416 7.85826e-22)
(0.761573 0.146335 -1.49396e-21)
(0.793722 0.281036 1.07704e-21)
(0.786426 0.38754 -3.90438e-22)
(0.753638 0.423629 2.38053e-22)
(0.716398 0.388164 3.8305e-22)
(0.734852 0.197587 -1.46238e-21)
(0.752453 0.052022 2.89856e-23)
(0.798578 -0.157197 -4.16561e-22)
(0.792193 -0.245488 0)
(0.761866 -0.316935 -1.0948e-22)
(0.764347 -0.372361 4.0374e-23)
(0.740041 -0.105333 0)
(0.140794 0.171418 7.56589e-20)
(0.16557 0.193336 -1.50281e-19)
(0.194572 0.210859 7.36355e-20)
(0.229136 0.222447 7.94616e-20)
(0.269018 0.226472 -1.60101e-19)
(0.313735 0.220872 -4.97978e-21)
(0.362747 0.203536 8.38389e-20)
(0.415361 0.172789 9.25758e-20)
(0.470615 0.12753 -9.06948e-20)
(0.527189 0.0671924 0)
(0.584584 -0.00775007 -9.69478e-20)
(0.641295 -0.0959056 1.88895e-19)
(0.695738 -0.195536 -9.20191e-20)
(0.74605 -0.301003 0)
(0.787638 -0.40176 0)
(0.814074 -0.48357 1.00683e-21)
(0.820675 -0.534657 -4.69393e-20)
(0.807797 -0.551814 4.56015e-20)
(0.7799 -0.541158 0)
(0.742533 -0.512644 2.02099e-20)
(0.701081 -0.47439 -3.32946e-20)
(0.656174 -0.435499 2.47107e-20)
(0.599838 -0.40807 -1.95023e-20)
(0.527014 -0.393304 5.00259e-22)
(0.452102 -0.367583 1.62111e-20)
(0.405095 -0.295496 -8.26435e-21)
(0.404541 -0.165226 -3.50674e-22)
(0.444098 -0.00202257 -4.23694e-21)
(0.505543 0.156129 3.29059e-22)
(0.57327 0.282168 4.005e-21)
(0.637237 0.365639 2.37697e-22)
(0.687092 0.417288 -3.68024e-21)
(0.710048 0.464419 7.72275e-21)
(0.703674 0.519063 -4.56425e-21)
(0.685841 0.548956 0)
(0.686983 0.4938 -8.68467e-21)
(0.72103 0.327093 8.64722e-21)
(0.779999 0.0901552 -7.83585e-21)
(0.840062 -0.137313 9.78888e-21)
(0.879822 -0.296979 -8.66676e-22)
(0.891086 -0.378925 0)
(0.886427 -0.396378 -4.28459e-22)
(0.871002 -0.385525 8.80121e-22)
(0.830051 -0.373217 0)
(0.768055 -0.366005 1.66608e-21)
(0.709921 -0.308734 -6.5042e-22)
(0.691343 -0.195126 3.84416e-22)
(0.715876 -0.0256592 2.92362e-22)
(0.762382 0.132647 0)
(0.793677 0.275422 0)
(0.786595 0.391223 -1.07173e-21)
(0.755931 0.43181 1.99946e-21)
(0.719362 0.392829 -1.38367e-21)
(0.741039 0.195422 5.78372e-22)
(0.759339 0.0466946 1.05164e-21)
(0.808729 -0.160123 4.16953e-22)
(0.802325 -0.242191 -5.9456e-22)
(0.770315 -0.313165 0)
(0.773171 -0.370836 -9.72288e-23)
(0.746644 -0.103955 5.14489e-23)
(0.258278 0.135631 7.42968e-20)
(0.283271 0.155643 -7.38367e-20)
(0.311363 0.170878 5.928e-22)
(0.34529 0.180525 -5.88997e-22)
(0.384831 0.183507 6.25406e-22)
(0.429113 0.177857 -6.5022e-22)
(0.477503 0.161504 1.32118e-21)
(0.529419 0.132842 0)
(0.584012 0.0906372 -1.42468e-21)
(0.640321 0.033766 1.46213e-21)
(0.697548 -0.036099 1.4753e-21)
(0.754075 -0.11965 -1.49923e-21)
(0.808071 -0.214072 0)
(0.856291 -0.313443 0)
(0.892724 -0.406948 1.16496e-21)
(0.910364 -0.48074 0)
(0.905438 -0.524454 -8.0702e-22)
(0.88026 -0.536335 0)
(0.841471 -0.522769 -2.57535e-20)
(0.795616 -0.493502 4.45351e-20)
(0.747686 -0.455752 -3.19715e-20)
(0.700359 -0.414521 1.33189e-20)
(0.648546 -0.378925 7.00632e-21)
(0.581976 -0.356931 -6.80444e-21)
(0.503018 -0.33791 -5.50979e-21)
(0.436778 -0.290122 5.37209e-21)
(0.412127 -0.188641 0)
(0.434307 -0.043596 1.4937e-22)
(0.487635 0.109403 0)
(0.554466 0.239509 0)
(0.621265 0.332297 5.49181e-21)
(0.674858 0.39628 -5.61368e-21)
(0.701943 0.45589 4.05197e-22)
(0.701725 0.519539 5.4194e-22)
(0.693086 0.552823 -6.60946e-22)
(0.704926 0.496387 -8.04449e-21)
(0.748461 0.326177 7.80953e-21)
(0.813324 0.0856224 -1.05148e-20)
(0.874976 -0.142774 9.06192e-21)
(0.912574 -0.299332 1.7662e-21)
(0.917818 -0.377795 -4.34208e-21)
(0.905064 -0.393312 8.59366e-22)
(0.885282 -0.378025 2.25599e-21)
(0.84367 -0.359039 0)
(0.782035 -0.350003 -5.83054e-22)
(0.721055 -0.300677 8.00243e-22)
(0.699428 -0.200384 -1.06968e-21)
(0.719649 -0.0403591 -2.94218e-22)
(0.764857 0.118316 0)
(0.795178 0.269 3.48235e-22)
(0.788422 0.394127 -5.85476e-22)
(0.760179 0.439583 9.19772e-24)
(0.724674 0.397706 -5.92543e-22)
(0.749222 0.193588 1.29646e-21)
(0.767952 0.0414527 -1.15617e-21)
(0.820109 -0.163049 0)