/*--------------------------------*- C++ -*----------------------------------*\
| =========                 |                                                 |
| \\      /  F ield         | OpenFOAM: The Open Source CFD Toolbox           |
|  \\    /   O peration     | Version:  2512                                  |
|   \\  /    A nd           | Website:  www.openfoam.com                      |
|    \\/     M anipulation  |                                                 |
\*---------------------------------------------------------------------------*/
FoamFile
{
    version     2.0;
    format      ascii;
    arch        "LSB;label=32;scalar=64";
    class       volVectorField;
    location    "39";
    object      U;
}
// * * * * * * * * * * * * * * * * * * * * * * * * * * * * * * * * * * * * * //

dimensions      [0 1 -1 0 0 0 0];

internalField   nonuniform List<vector> 
13248
(
(-0.0125991 0.0117882 6.05779e-20)
(-0.0241286 0.0253029 0)
(-0.0228471 0.0326605 -1.14474e-19)
(-0.00973111 0.0357709 1.07836e-19)
(0.0145509 0.0362152 1.01072e-19)
(0.0495248 0.0352697 0)
(0.0947975 0.0339171 0)
(0.149944 0.0329002 2.44354e-19)
(0.214377 0.0327643 -1.08515e-21)
(0.287215 0.033878 -2.13679e-19)
(0.367197 0.0364444 1.98262e-19)
(0.452654 0.0405082 -1.23958e-19)
(0.541539 0.0459661 0)
(0.63154 0.0525844 -2.12458e-19)
(0.720218 0.0600249 3.96381e-19)
(0.805177 0.0678796 -9.38442e-20)
(0.884239 0.0757139 -1.67861e-19)
(0.95558 0.0830884 1.57579e-19)
(1.01786 0.0896779 0)
(1.07019 0.0949791 0)
(1.11264 0.0993994 0)
(1.14432 0.100983 0)
(1.16917 0.10424 4.87101e-20)
(1.18123 0.0982989 1.78242e-19)
(-0.0123053 0.0102399 -1.83054e-19)
(-0.0201503 0.0206207 1.24797e-19)
(-0.0121482 0.0256653 -1.09563e-21)
(0.0103879 0.0273686 -1.64937e-19)
(0.0465772 0.0273768 -1.00964e-19)
(0.0957143 0.027013 -9.5534e-20)
(0.157037 0.0272621 -1.75654e-19)
(0.229543 0.0288211 1.66041e-19)
(0.311816 0.0321294 0)
(0.401924 0.0373786 7.33842e-22)
(0.497405 0.0445217 1.53395e-21)
(0.595372 0.0532938 1.23863e-19)
(0.692709 0.0632498 0)
(0.786309 0.0738196 0)
(0.873336 0.0843752 1.45285e-19)
(0.951443 0.0943014 -2.72845e-19)
(1.01894 0.10306 1.63823e-19)
(1.07488 0.110236 -1.53797e-19)
(1.11906 0.11558 -6.83921e-20)
(1.15204 0.118974 -1.25024e-19)
(1.17473 0.120597 -5.31109e-20)
(1.18906 0.120158 -9.98687e-20)
(1.19605 0.119709 1.45356e-19)
(1.19767 0.114383 4.24726e-20)
(-0.0111725 0.00839016 0)
(-0.0131421 0.0153191 0)
(0.00421255 0.0181999 5.83524e-20)
(0.0390918 0.0190318 5.37513e-20)
(0.0902225 0.0194789 -1.30245e-21)
(0.156394 0.0208674 -9.85611e-20)
(0.236073 0.0241064 0)
(0.327174 0.0297171 -8.25735e-20)
(0.426927 0.0378561 7.75793e-20)
(0.531906 0.0483332 4.88581e-22)
(0.638225 0.0606517 -1.32776e-19)
(0.741864 0.0740831 -1.21924e-19)
(0.839049 0.0877695 1.99004e-21)
(0.926606 0.100838 -1.01524e-19)
(1.00222 0.112512 2.43023e-19)
(1.0646 0.122191 0)
(1.11347 0.129511 -1.59382e-19)
(1.1495 0.134348 7.70402e-20)
(1.1741 0.136823 6.83269e-20)
(1.18913 0.13717 0)
(1.19679 0.135939 5.66472e-20)
(1.1991 0.133125 -1.98288e-19)
(1.19771 0.130518 1.86138e-19)
(1.19545 0.124707 1.20598e-19)
(-0.00886244 0.00624497 -6.49064e-20)
(-0.00221933 0.00959991 -6.7106e-20)
(0.0275378 0.0108046 6.05977e-20)
(0.0779104 0.0117037 0)
(0.146921 0.0138693 0)
(0.232397 0.018513 -2.07148e-21)
(0.331462 0.026292 0)
(0.440359 0.0373217 -2.52017e-19)
(0.554523 0.0512226 2.34234e-19)
(0.668906 0.0671977 -2.89444e-19)
(0.778483 0.0841641 6.64176e-20)
(0.878803 0.100925 0)
(0.966451 0.116349 1.11291e-19)
(1.03933 0.129523 -2.06432e-19)
(1.09674 0.13985 4.89975e-20)
(1.13927 0.147086 1.27302e-19)
(1.1685 0.151316 -4.87056e-21)
(1.18669 0.15288 -1.42783e-19)
(1.19637 0.152279 0)
(1.19999 0.150058 0)
(1.19968 0.146825 -5.22537e-20)
(1.19705 0.142737 4.73093e-20)
(1.19339 0.139191 1.72103e-19)
(1.18939 0.133224 -1.61548e-19)
(-0.00499045 0.00386183 -6.85487e-20)
(0.013526 0.00380112 -6.8171e-20)
(0.0589977 0.00420223 1.91727e-19)
(0.12793 0.00651462 -1.16139e-19)
(0.217168 0.01202 1.09322e-19)
(0.322949 0.0215883 1.98478e-19)
(0.440408 0.0353376 -1.40294e-19)
(0.563664 0.052669 -1.70908e-19)
(0.686311 0.0724141 3.17654e-21)
(0.802159 0.0930544 2.1894e-19)
(0.906005 0.112991 0)
(0.994219 0.130807 6.07735e-20)
(1.06502 0.14547 0)
(1.11841 0.15643 -9.99906e-20)
(1.15588 0.163618 1.40592e-19)
(1.17993 0.167356 1.16934e-21)
(1.1935 0.168222 -3.74225e-20)
(1.19952 0.166905 7.01695e-20)
(1.20057 0.164074 6.12256e-20)
(1.19865 0.160294 -5.53467e-20)
(1.19516 0.15602 5.22411e-20)
(1.19099 0.151406 -4.72975e-20)
(1.18656 0.14727 0)
(1.18254 0.141373 -3.69243e-20)
(0.000835577 0.00138115 6.8539e-20)
(0.0349129 -0.00154356 7.19944e-20)
(0.0994341 -0.00064875 -6.42486e-20)
(0.189507 0.00478767 1.196e-19)
(0.300169 0.0154405 -1.12573e-19)
(0.425375 0.0314836 1.01742e-19)
(0.557783 0.0521216 -4.88707e-20)
(0.689391 0.0757472 1.28332e-19)
(0.812589 0.100301 -8.08045e-20)
(0.921231 0.123686 1.43859e-19)
(1.01138 0.144143 -3.3266e-19)
(1.08153 0.160504 1.22595e-19)
(1.13243 0.172285 -1.08022e-19)
(1.16645 0.179614 1.01461e-19)
(1.1869 0.183066 8.84662e-20)
(1.19729 0.18345 7.8279e-20)
(1.20086 0.181615 -2.18207e-19)
(1.20019 0.178314 1.35612e-19)
(1.19716 0.174135 -6.12273e-20)
(1.19299 0.169486 1.6165e-19)
(1.1884 0.164637 -5.20576e-20)
(1.18375 0.159684 -1.297e-19)
(1.17925 0.155075 1.20168e-19)
(1.17512 0.149259 3.6911e-20)
(0.00897072 -0.000958639 0)
(0.0625433 -0.00568846 6.33606e-22)
(0.149157 -0.00257456 1.34595e-19)
(0.262016 0.007942 -1.26213e-19)
(0.393652 0.0254799 -1.13655e-19)
(0.535192 0.049063 2.11263e-19)
(0.676805 0.0766273 -9.81226e-20)
(0.809098 0.105446 1.31069e-19)
(0.924617 0.132769 -2.6299e-21)
(1.01884 0.156376 -7.45454e-20)
(1.09042 0.174898 1.63569e-19)
(1.14071 0.187892 -2.41997e-19)
(1.17294 0.195688 0)
(1.19116 0.199115 -4.80169e-20)
(1.19943 0.199213 -1.28944e-19)
(1.20126 0.19699 4.05259e-20)
(1.19928 0.193284 1.39542e-21)
(1.19532 0.188712 -9.10627e-20)
(1.1905 0.183684 4.8421e-21)
(1.18545 0.178453 1.05728e-19)
(1.18049 0.173163 -4.77508e-20)
(1.17574 0.167891 -1.88173e-20)
(1.17124 0.162827 5.67704e-20)
(1.16709 0.15703 0)
(0.0196846 -0.00282238 0)
(0.096671 -0.0077062 3.65403e-20)
(0.207761 -0.000277314 -1.76066e-19)
(0.343697 0.0173176 6.39176e-20)
(0.493924 0.0430853 -6.01581e-20)
(0.646642 0.0744523 -5.50553e-20)
(0.790262 0.107925 -9.73633e-20)
(0.915467 0.139886 4.8519e-20)
(1.01666 0.167431 4.22296e-20)
(1.0923 0.188842 0)
(1.1442 0.203642 9.74134e-20)
(1.17636 0.212339 -1.45637e-19)
(1.19361 0.216028 1.08439e-19)
(1.20061 0.215997 4.80407e-20)
(1.20118 0.213444 -3.98144e-20)
(1.19814 0.209319 -3.36392e-20)
(1.19333 0.204298 -3.16042e-20)
(1.18785 0.198814 9.37904e-20)
(1.18229 0.193126 0)
(1.17694 0.187383 4.81326e-20)
(1.1719 0.181666 4.12892e-20)
(1.16717 0.176027 -1.01595e-19)
(1.16273 0.170498 -7.1023e-20)
(1.15858 0.164679 6.5564e-20)
(0.0331112 -0.00379662 -3.97507e-20)
(0.137085 -0.00656486 -1.61184e-21)
(0.274009 0.0075121 3.58728e-20)
(0.431686 0.0339569 1.00309e-19)
(0.596266 0.0685964 2.92102e-20)
(0.753639 0.106995 -5.6482e-20)
(0.891943 0.144432 5.15158e-20)
(1.00376 0.176992 -4.52246e-20)
(1.08677 0.202329 8.14334e-20)
(1.14296 0.219772 3.48411e-20)
(1.17701 0.229955 -9.8972e-20)
(1.19459 0.234252 2.92455e-20)
(1.20107 0.234252 5.02337e-20)
(1.20079 0.231394 -2.46753e-20)
(1.19684 0.226797 0)
(1.19121 0.221232 3.72506e-20)
(1.18503 0.215183 6.3517e-20)
(1.17889 0.20893 1.12305e-20)
(1.17306 0.202629 -5.32826e-20)
(1.16763 0.196363 2.2498e-20)
(1.16261 0.190182 0)
(1.15794 0.184108 -1.79878e-20)
(1.15355 0.178111 -1.72821e-20)
(1.14939 0.172182 0)
(0.0491975 -0.00342165 0)
(0.183021 -0.00123772 2.08628e-20)
(0.345822 0.021856 3.85458e-20)
(0.522248 0.0584148 -1.02524e-19)
(0.695583 0.101669 3.31961e-20)
(0.850793 0.145421 0)
(0.977652 0.184335 5.00003e-20)
(1.0722 0.215003 -6.98718e-20)
(1.13606 0.236264 -4.07427e-20)
(1.17444 0.248758 1.84169e-20)
(1.19392 0.254145 -2.97458e-20)
(1.20078 0.254385 7.20836e-20)
(1.20008 0.251249 3.62879e-20)
(1.19539 0.246099 -2.51321e-20)
(1.18895 0.239858 -2.25478e-21)
(1.18201 0.233092 -6.96347e-20)
(1.17521 0.226122 3.17767e-20)
(1.16881 0.21912 -8.55792e-22)
(1.16292 0.212175 0)
(1.15753 0.205338 -2.25216e-20)
(1.15258 0.198636 0)
(1.148 0.192064 5.1914e-20)
(1.1437 0.185601 -6.21497e-20)
(1.13957 0.179464 2.84643e-20)
(0.0676617 -0.00123154 -1.09645e-20)
(0.233136 0.00918172 -5.2626e-20)
(0.420395 0.0434574 5.99482e-20)
(0.611194 0.0906593 3.51639e-20)
(0.787126 0.141353 -1.67544e-20)
(0.934147 0.188139 2.828e-20)
(1.04544 0.225967 -1.36973e-20)
(1.12138 0.252699 2.28774e-20)
(1.16732 0.268722 0)
(1.1908 0.275942 5.20953e-20)
(1.19925 0.276771 -2.10869e-21)
(1.19874 0.273435 -4.21331e-20)
(1.19354 0.26765 1.80822e-20)
(1.18633 0.260573 -2.04715e-20)
(1.17859 0.252903 -7.83481e-21)
(1.17105 0.245027 9.03114e-21)
(1.16401 0.237146 -6.9888e-21)
(1.15758 0.22936 -3.82914e-20)
(1.15175 0.221721 2.34672e-20)
(1.14647 0.214261 4.83153e-21)
(1.14165 0.206986 4.28435e-21)
(1.13721 0.199873 3.80445e-21)
(1.13303 0.192959 0)
(1.12895 0.186498 0)
(0.08804 0.00321251 1.09721e-20)
(0.285679 0.0253885 -1.09453e-20)
(0.494588 0.0725556 -1.999e-20)
(0.694516 0.130069 0)
(0.86716 0.186275 -8.3378e-21)
(1.00145 0.23353 -7.54828e-21)
(1.09517 0.268016 -1.29189e-20)
(1.15311 0.289392 0)
(1.18357 0.299639 0)
(1.19539 0.301682 0)
(1.19597 0.298357 0)
(1.19066 0.291893 0)
(1.1828 0.283806 -1.13501e-20)
(1.17426 0.275007 5.16818e-21)
(1.16594 0.265992 9.02044e-21)
(1.15821 0.25701 4.23123e-21)
(1.15119 0.248178 1.04825e-20)
(1.14487 0.239552 0)
(1.13921 0.231164 -2.53774e-21)
(1.13414 0.223026 -2.45665e-21)
(1.12954 0.215129 -4.29118e-21)
(1.12532 0.207449 -3.81053e-21)
(1.12132 0.200098 0)
(1.1174 0.193192 2.78465e-21)
(-0.00114 -0.000307121 6.37045e-21)
(-0.00567034 -0.001916 -6.61793e-21)
(-0.0139634 -0.00416127 -1.25395e-20)
(-0.0241881 -0.00668137 0)
(-0.0353218 -0.00925343 -1.67886e-20)
(-0.0468334 -0.0117699 5.26561e-21)
(-0.0583513 -0.0142015 -9.96305e-21)
(-0.0696162 -0.0165696 0)
(-0.0804631 -0.0189205 0)
(-0.0907915 -0.0213043 0)
(-0.100542 -0.0237619 0)
(-0.109679 -0.0263175 0)
(-0.118181 -0.0289764 -7.92617e-24)
(-0.126032 -0.0317258 -6.51618e-21)
(-0.133218 -0.034536 1.2265e-20)
(-0.139725 -0.0373621 1.72662e-20)
(-0.145544 -0.0401438 5.40087e-21)
(-0.150674 -0.0428052 0)
(-0.155128 -0.0452544 4.74311e-21)
(-0.158951 -0.047386 -1.3329e-20)
(-0.162213 -0.0490855 -8.30058e-21)
(-0.165008 -0.0502282 -7.75582e-21)
(-0.167517 -0.0506613 0)
(-0.170207 -0.0502445 0)
(-0.00145961 0.003207 -1.91707e-20)
(-0.00633795 0.00639746 3.30778e-20)
(-0.0147628 0.00731598 -1.25095e-20)
(-0.0249703 0.00679987 -2.37617e-20)
(-0.0359786 0.00539457 3.35598e-20)
(-0.0472793 0.00344057 -2.11697e-20)
(-0.0585155 0.00114409 2.98722e-20)
(-0.0694385 -0.00138459 1.88519e-20)
(-0.07989 -0.00409715 0)
(-0.089774 -0.00697905 -1.66622e-20)
(-0.0990341 -0.0100293 -4.5446e-23)
(-0.107637 -0.0132478 1.4718e-20)
(-0.115563 -0.0166279 2.08663e-20)
(-0.122795 -0.0201525 2.61161e-20)
(-0.129316 -0.0237917 -1.22602e-20)
(-0.135111 -0.0274987 -3.45268e-20)
(-0.14016 -0.0312064 1.07697e-20)
(-0.144446 -0.0348218 -4.04719e-20)
(-0.147965 -0.0382193 0)
(-0.150743 -0.0412415 8.86508e-21)
(-0.152823 -0.0436993 8.28997e-21)
(-0.154234 -0.0453727 7.74578e-21)
(-0.155097 -0.0459929 0)
(-0.156217 -0.0453268 0)
(-0.00215763 0.00654308 0)
(-0.00776741 0.0143329 6.67545e-20)
(-0.0163402 0.0183173 -2.51758e-20)
(-0.026315 0.0197604 2.38201e-20)
(-0.036823 0.0195063 -6.75893e-20)
(-0.0474189 0.0181175 0)
(-0.0577869 0.0159712 -4.01206e-20)
(-0.0677048 0.0133072 1.89016e-20)
(-0.07703 0.0102677 -3.57191e-20)
(-0.0856759 0.0069321 1.69221e-20)
(-0.093591 0.00334298 9.47896e-20)
(-0.100745 -0.000475833 -4.45227e-20)
(-0.107117 -0.0045075 -6.97221e-20)
(-0.112691 -0.00873429 -2.62791e-20)
(-0.117448 -0.0131313 4.88555e-23)
(-0.121364 -0.0176594 9.22684e-20)
(-0.124411 -0.022258 -4.32784e-20)
(-0.126552 -0.0268344 -4.41804e-23)
(-0.127756 -0.0312513 0)
(-0.128013 -0.0353127 -3.5254e-20)
(-0.127325 -0.0387541 0)
(-0.125624 -0.0412303 -3.03038e-20)
(-0.122844 -0.0423129 1.13455e-19)
(-0.120162 -0.0416039 -4.53056e-22)
(-0.00317282 0.00949313 0)
(-0.00984286 0.0214306 2.62734e-22)
(-0.0185745 0.0282442 2.556e-20)
(-0.0281143 0.0315302 -2.41811e-20)
(-0.0377653 0.0323806 2.24885e-20)
(-0.0471776 0.031552 1.28565e-19)
(-0.056099 0.0295773 -4.03054e-20)
(-0.0643478 0.026817 -3.81831e-20)
(-0.0718056 0.0235032 7.16599e-20)
(-0.0783978 0.0197787 -1.01112e-19)
(-0.0840781 0.0157282 3.18061e-20)
(-0.0888161 0.0114003 2.99655e-20)
(-0.09259 0.00682312 0)
(-0.0953797 0.00201542 2.62706e-20)
(-0.0971628 -0.00300505 0)
(-0.0979119 -0.00821386 4.64795e-20)
(-0.0975919 -0.01357 -8.65504e-20)
(-0.0961571 -0.0190024 2.06706e-20)
(-0.0935544 -0.0243915 7.58776e-20)
(-0.0897388 -0.0295499 3.52215e-20)
(-0.0846881 -0.0341719 0)
(-0.0782934 -0.0377903 -9.06686e-20)
(-0.070182 -0.0397699 2.85749e-20)
(-0.0611628 -0.0394292 0)
(-0.00441472 0.0118995 0)
(-0.012391 0.0273234 -8.13917e-20)
(-0.0212843 0.0365966 -2.59333e-20)
(-0.0302071 0.0415265 -4.85462e-20)
(-0.038671 0.043386 4.57124e-20)
(-0.0464436 0.0430876 -4.29636e-20)
(-0.0533524 0.0412953 8.14162e-20)
(-0.0592675 0.0384759 3.82923e-20)
(-0.0640992 0.0349434 -1.08072e-19)
(-0.0677862 0.0309014 6.79904e-20)
(-0.0702838 0.0264769 -9.57652e-20)
(-0.0715569 0.0217458 2.10746e-19)
(-0.0715744 0.0167521 -1.1297e-19)
(-0.0703058 0.0115205 5.3217e-20)
(-0.0677188 0.00606664 1.49254e-19)
(-0.0637784 0.000405484 -4.67435e-20)
(-0.0584442 -0.00543962 -4.41002e-20)
(-0.0516653 -0.011428 -4.08196e-20)
(-0.0433959 -0.0174948 0)
(-0.0335808 -0.0235006 -7.00863e-20)
(-0.0221851 -0.0291946 -6.40287e-20)
(-0.00924471 -0.0341429 9.16397e-20)
(0.00547688 -0.0374641 1.10288e-19)
(0.0235591 -0.0369451 -1.03825e-19)
(-0.00577995 0.0136715 0)
(-0.0152051 0.0317698 -1.10334e-19)
(-0.0242423 0.0430113 -4.49123e-22)
(-0.0323774 0.0492927 9.79257e-20)
(-0.0393417 0.0519981 0)
(-0.0450306 0.0521525 0)
(-0.0493599 0.0505222 0)
(-0.0522566 0.0476608 -3.85273e-20)
(-0.0536617 0.0439532 -8.64425e-23)
(-0.0535236 0.0396578 6.84396e-20)
(-0.0517933 0.0349428 -9.62907e-20)
(-0.0484214 0.029914 -6.20506e-24)
(-0.0433566 0.0246362 0)
(-0.0365455 0.0191483 -5.31942e-20)
(-0.0279338 0.0134755 5.00558e-20)
(-0.0174675 0.00763777 -1.40801e-19)
(-0.0050986 0.00165487 1.74879e-19)
(0.0092045 -0.00444992 4.00316e-20)
(0.025479 -0.010634 -1.45924e-21)
(0.043758 -0.0168133 -1.42062e-19)
(0.0639935 -0.02287 -6.53959e-20)
(0.0861213 -0.0285221 2.09798e-19)
(0.110743 -0.0326595 -1.39531e-19)
(0.140743 -0.032194 0)
(-0.00716988 0.0147897 5.43054e-20)
(-0.0180703 0.0346656 5.53132e-20)
(-0.0271882 0.0472813 -5.28982e-20)
(-0.0343459 0.0545248 -9.91591e-20)
(-0.0394826 0.0578314 9.3368e-20)
(-0.0426195 0.0582982 -8.79965e-20)
(-0.0437605 0.0567634 1.24384e-19)
(-0.0428884 0.0538463 -3.85237e-20)
(-0.0399703 0.0499883 7.33194e-20)
(-0.0349582 0.0454947 0)
(-0.0277898 0.0405717 6.50925e-20)
(-0.0183908 0.0353556 -1.22249e-19)
(-0.00667971 0.0299359 1.14371e-19)
(0.00742776 0.0243732 -1.07423e-19)
(0.0240124 0.0187119 0)
(0.043143 0.0129894 9.40746e-20)
(0.0648691 0.00724283 1.75398e-19)
(0.0892101 0.00151613 -1.64534e-19)
(0.116148 -0.00412817 -7.62478e-20)
(0.145627 -0.00962311 -6.97067e-20)
(0.177484 -0.0148938 1.9713e-19)
(0.211658 -0.0197927 5.87708e-20)
(0.246984 -0.0238178 -5.64383e-20)
(0.294655 -0.0229553 4.99958e-20)
(-0.00850469 0.0152979 -5.43128e-20)
(-0.0207814 0.0360351 1.69802e-19)
(-0.0298312 0.0493566 -5.35468e-20)
(-0.0357487 0.0570857 1.0029e-19)
(-0.0386523 0.0606688 -9.44315e-20)
(-0.0386761 0.0612435 4.30134e-22)
(-0.035903 0.0596931 4.19747e-20)
(-0.0303619 0.0566817 1.57765e-19)
(-0.0220365 0.0526928 -8.24142e-24)
(-0.0108723 0.04807 -6.92679e-20)
(0.00321442 0.0430533 0)
(0.0203266 0.0378096 -6.13599e-20)
(0.0405738 0.0324562 1.1504e-19)
(0.0640586 0.0270802 1.07632e-19)
(0.0908628 0.0217516 -5.05875e-20)
(0.121032 0.0165339 6.42912e-23)
(0.15456 0.011492 -4.39993e-20)
(0.191373 0.00669679 8.19582e-20)
(0.231318 0.00223034 7.62293e-20)
(0.274184 -0.00180564 -7.06598e-20)
(0.319409 -0.00536864 6.50407e-20)
(0.367883 -0.00801981 -5.9745e-20)
(0.412799 -0.0109031 0)
(0.481676 -0.00728888 -4.99188e-20)
(-0.00972884 0.0152837 5.55865e-20)
(-0.0231448 0.0360009 -5.688e-20)
(-0.0318353 0.049324 5.43258e-20)
(-0.0360979 0.0570046 0)
(-0.0361937 0.0604849 0)
(-0.0323484 0.0609224 9.04879e-20)
(-0.0247061 0.0592262 -8.43449e-20)
(-0.0133253 0.0560892 7.93791e-20)
(0.00180662 0.0520256 -3.72021e-19)
(0.0207571 0.0474098 1.13935e-22)
(0.0436281 0.0425134 6.56406e-20)
(0.0705326 0.0375338 0)
(0.10157 0.0326184 -1.1515e-19)
(0.1368 0.0278824 2.15945e-19)
(0.176215 0.0234213 -1.51718e-19)
(0.219723 0.0193201 -2.35305e-19)
(0.267122 0.0156599 1.38336e-21)
(0.31809 0.0125213 1.64163e-19)
(0.372161 0.00997915 0)
(0.428909 0.0081868 0)
(0.486792 0.00689907 -6.50321e-20)
(0.548937 0.00753418 5.97358e-20)
(0.600113 0.00627703 -2.14843e-19)
(0.686706 0.013915 2.01637e-19)
(-0.0108054 0.0148512 0)
(-0.0249612 0.0347411 0)
(-0.0327854 0.0473742 -1.63657e-19)
(-0.0347254 0.0544649 5.20281e-20)
(-0.0311539 0.0574572 2.8403e-22)
(-0.0223614 0.0575237 9.15647e-20)
(-0.00852963 0.0555906 0)
(0.0102689 0.0523698 -7.99726e-20)
(0.034047 0.048399 7.45931e-20)
(0.0628697 0.0440804 -1.40379e-19)
(0.0968154 0.0397146 1.88387e-22)
(0.135933 0.0355276 1.23075e-19)
(0.180198 0.0316918 -3.94915e-22)
(0.229475 0.0283399 1.07251e-19)
(0.283484 0.0255741 -1.51965e-19)
(0.341782 0.0234726 0)
(0.403751 0.0220928 1.74379e-19)
(0.468611 0.0214758 -2.45332e-19)
(0.535393 0.021617 7.49813e-20)
(0.603344 0.0226953 0)
(0.669945 0.0240135 6.37465e-20)
(0.739724 0.0278782 2.33478e-19)
(0.79278 0.0282763 -2.19114e-19)
(0.88335 0.0390949 -2.45757e-19)
(-0.0116965 0.0140928 1.71848e-19)
(-0.0259849 0.0324418 -2.36453e-19)
(-0.0321362 0.0437603 4.19546e-22)
(-0.0307308 0.0497833 5.26602e-20)
(-0.0222276 0.0519799 -9.82548e-20)
(-0.00696209 0.0515451 -9.10766e-20)
(0.0148612 0.0494208 1.71062e-19)
(0.0431523 0.0463357 -1.13464e-21)
(0.0778906 0.0428483 -1.50651e-19)
(0.119064 0.0393828 2.81365e-19)
(0.166604 0.0362589 -5.97601e-22)
(0.220314 0.0337136 -1.23617e-19)
(0.279824 0.0319152 0)
(0.34454 0.0309723 0)
(0.413636 0.0309387 -5.03648e-20)
(0.486055 0.0318176 -9.31789e-20)
(0.560549 0.0335664 -1.72892e-19)
(0.635729 0.0361013 1.62291e-19)
(0.710117 0.0392897 -7.50086e-20)
(0.782431 0.0431137 1.36199e-19)
(0.850421 0.0469006 -6.64786e-20)
(0.916768 0.0523695 1.12402e-19)
(0.966708 0.0541793 -2.68311e-19)
(1.04238 0.0652038 4.88859e-20)
(-0.0123328 0.0130641 5.80805e-20)
(-0.0258688 0.0292569 0)
(-0.0291515 0.0387638 1.12602e-19)
(-0.0229214 0.043397 -1.06076e-19)
(-0.00772167 0.044674 9.83443e-20)
(0.0160711 0.0438234 0)
(0.0482104 0.0418065 0)
(0.0885285 0.0393656 -8.06721e-20)
(0.136853 0.0370681 8.151e-22)
(0.192908 0.0353382 7.11607e-20)
(0.25622 0.0344785 -6.57397e-20)
(0.326049 0.0346828 1.23769e-19)
(0.40134 0.0360434 0)
(0.480732 0.0385576 2.13826e-19)
(0.562596 0.0421357 -3.99592e-19)
(0.645113 0.0466106 2.799e-19)
(0.72638 0.0517575 1.70751e-19)
(0.804515 0.0572941 -1.60285e-19)
(0.877819 0.0629746 0)
(0.944717 0.0683904 0)
(1.00425 0.0735218 0)
(1.05588 0.0779095 0)
(1.09633 0.0808083 5.2658e-20)
(1.1424 0.0868621 -1.89904e-19)
(-0.174162 -0.0489333 -4.79193e-21)
(-0.179266 -0.0466871 4.81457e-21)
(-0.184038 -0.0427109 -1.43261e-22)
(-0.188782 -0.0367435 0)
(-0.193513 -0.0285952 -4.34965e-21)
(-0.198211 -0.0180803 8.43707e-21)
(-0.202834 -0.00505827 -2.20235e-23)
(-0.207435 0.0105423 -3.95603e-21)
(-0.211998 0.0285023 0)
(-0.216349 0.0486065 0)
(-0.220351 0.0704707 -2.16025e-22)
(-0.223855 0.0935087 -2.0842e-22)
(-0.226689 0.116902 -3.47529e-21)
(-0.228629 0.139607 3.18227e-21)
(-0.22937 0.160351 0)
(-0.228483 0.177633 0)
(-0.225387 0.189714 2.81193e-21)
(-0.219336 0.194747 -1.198e-23)
(-0.209462 0.190949 -2.47523e-21)
(-0.19488 0.176799 -1.65248e-22)
(-0.174838 0.151284 0)
(-0.148942 0.114601 0)
(-0.117454 0.0676887 0)
(-0.0807093 0.0125822 0)
(-0.0402312 -0.0459069 0)
(0.00182098 -0.103604 0)
(0.0431159 -0.154811 4.59076e-22)
(0.0803979 -0.195035 -7.71511e-22)
(0.110751 -0.221373 0)
(0.132925 -0.233094 0)
(0.148619 -0.230243 -1.40608e-22)
(0.163039 -0.212763 1.36653e-22)
(0.183903 -0.181088 1.02669e-23)
(0.217429 -0.13706 0)
(0.265052 -0.0858052 0)
(0.323081 -0.0339642 -7.02536e-23)
(0.384658 0.0118822 6.82869e-23)
(0.443758 0.0476272 0)
(0.495476 0.0712636 -1.00182e-22)
(0.538224 0.0840329 1.48643e-22)
(0.571846 0.0870842 -4.98693e-23)
(0.598914 0.0830898 0)
(0.622018 0.0729661 8.4636e-23)
(0.644664 0.0591595 -8.22981e-23)
(0.668159 0.0423201 0)
(0.693546 0.0253829 0)
(0.718905 0.00896917 2.57998e-23)
(0.744065 -0.00417974 -7.17597e-23)
(0.76586 -0.0144502 0)
(0.786401 -0.020172 0)
(0.802113 -0.0227944 1.47688e-23)
(0.818998 -0.0214825 2.26571e-26)
(0.830988 -0.0178988 1.73285e-24)
(0.84813 -0.0119121 -8.7108e-24)
(0.858731 -0.0051216 0)
(0.877531 0.0018976 0)
(0.886063 0.00821172 0)
(0.905254 0.0132047 0)
(0.910101 0.0168447 0)
(0.929067 0.0194739 0)
(-0.159457 -0.043434 -4.55544e-22)
(-0.16481 -0.0415456 -1.87155e-20)
(-0.16939 -0.0379372 3.15022e-22)
(-0.17393 -0.0322465 1.72684e-20)
(-0.17845 -0.0243485 2.57614e-22)
(-0.182876 -0.0140718 0)
(-0.187163 -0.00130826 -1.52611e-20)
(-0.191363 0.0139427 3.00144e-20)
(-0.195385 0.0314883 -1.47503e-20)
(-0.198931 0.0510853 1.39176e-20)
(-0.201748 0.0723381 -1.33119e-20)
(-0.203552 0.094654 1.28143e-20)
(-0.204014 0.117193 -1.24361e-20)
(-0.202735 0.138868 -3.75619e-22)
(-0.199242 0.158343 -1.19203e-20)
(-0.192998 0.174047 1.15845e-20)
(-0.183383 0.184167 -1.14533e-20)
(-0.169702 0.186807 1.07761e-20)
(-0.151312 0.18021 -1.13209e-20)
(-0.127731 0.163017 2.19904e-20)
(-0.098561 0.134123 -1.06774e-20)
(-0.0639653 0.0945863 -6.77975e-22)
(-0.0251494 0.0450558 -9.8933e-21)
(0.0176668 -0.0115131 1.87429e-20)
(0.0633634 -0.0711002 -8.87126e-21)
(0.109107 -0.128527 4.83332e-22)
(0.152777 -0.177888 5.77655e-21)
(0.191113 -0.214617 -1.0432e-21)
(0.220926 -0.236164 -7.10679e-21)
(0.239979 -0.24276 4.78568e-21)
(0.248343 -0.236206 -1.83389e-21)
(0.249257 -0.2181 6.78263e-23)
(0.250073 -0.189324 -1.02869e-23)
(0.259109 -0.150454 -5.30302e-23)
(0.282112 -0.104311 0)
(0.319093 -0.0555809 0)
(0.365503 -0.010332 4.12239e-22)
(0.415193 0.027218 -2.89417e-22)
(0.462787 0.0539292 -3.17916e-22)
(0.505447 0.070036 -5.141e-23)
(0.542518 0.075875 4.54948e-22)
(0.575572 0.073702 -9.2944e-23)
(0.606719 0.0643865 0)
(0.638014 0.0507345 0)
(0.669859 0.0338376 0)
(0.701913 0.0170964 0)
(0.732004 0.00125861 -1.01626e-22)
(0.759595 -0.0108881 4.67119e-23)
(0.782035 -0.0200778 0)
(0.801603 -0.0246864 0)
(0.815247 -0.0265486 0)
(0.829273 -0.0246334 2.34948e-23)
(0.837897 -0.0209049 -3.36726e-24)
(0.851826 -0.0147462 1.89056e-23)
(0.859259 -0.00803495 0)
(0.875971 -0.000865897 0)
(0.882574 0.00553106 -7.89686e-24)
(0.901314 0.0108068 -1.88254e-23)
(0.905441 0.0146311 0)
(0.925026 0.0176048 0)
(-0.121086 -0.0390202 -1.35781e-22)
(-0.126551 -0.0376069 -3.7284e-20)
(-0.13049 -0.0345497 3.57754e-20)
(-0.134221 -0.0292851 -3.3465e-20)
(-0.137884 -0.0217931 -2.59378e-22)
(-0.141338 -0.0119267 0)
(-0.144508 0.000346842 -2.99391e-20)
(-0.147449 0.0151158 2.93118e-20)
(-0.150059 0.0320795 2.21654e-22)
(-0.151921 0.0509785 4.05879e-22)
(-0.152676 0.0714066 3.92514e-22)
(-0.151954 0.0927609 3.9984e-22)
(-0.149325 0.114177 -2.43791e-20)
(-0.144284 0.134529 2.40708e-20)
(-0.136265 0.152433 0)
(-0.124723 0.166267 7.19799e-22)
(-0.109112 0.174214 -2.33631e-20)
(-0.0888845 0.174418 2.30579e-20)
(-0.0636525 0.165187 0)
(-0.0335612 0.145304 0)
(0.00199296 0.114377 -2.37929e-20)
(0.042479 0.0726916 4.62842e-20)
(0.0860804 0.0215335 -4.32434e-20)
(0.132023 -0.0358946 1.67786e-21)
(0.17964 -0.0960498 3.61925e-20)
(0.226697 -0.153013 -3.24548e-20)
(0.270829 -0.200645 2.55658e-20)
(0.308921 -0.233991 -3.30165e-21)
(0.338092 -0.250665 -8.70509e-21)
(0.356151 -0.251471 0)
(0.362353 -0.239537 0)
(0.357659 -0.218207 5.87922e-23)
(0.346931 -0.189715 -1.7866e-22)
(0.337756 -0.154545 -2.04666e-23)
(0.338425 -0.113774 -8.42842e-22)
(0.35296 -0.0698005 8.19097e-22)
(0.380751 -0.0273474 0)
(0.417151 0.00974584 -1.11733e-22)
(0.457329 0.0376628 -1.0222e-21)
(0.497576 0.055631 1.96321e-21)
(0.536634 0.0631707 -8.31876e-22)
(0.574592 0.0621268 -8.95617e-23)
(0.612543 0.0533512 7.94093e-22)
(0.650742 0.0399962 -6.143e-22)
(0.688637 0.0234901 -1.2474e-22)
(0.724791 0.00753853 -1.09797e-22)
(0.757099 -0.00706919 1.01883e-22)
(0.784979 -0.0177156 0)
(0.806458 -0.0254581 0)
(0.823985 -0.0286935 2.73059e-22)
(0.835 -0.0296283 -1.30202e-22)
(0.845818 -0.0270091 1.07664e-22)
(0.850951 -0.0231177 -1.37653e-22)
(0.861316 -0.0168319 -1.484e-22)
(0.865321 -0.0103212 3.45816e-23)
(0.879267 -0.00314813 -4.97181e-23)
(0.883532 0.00315982 3.75862e-23)
(0.900971 0.00857942 -1.63035e-23)
(0.90408 0.0124846 0)
(0.923444 0.0157154 0)
(-0.0587861 -0.0356677 -7.6091e-20)
(-0.0648221 -0.0348169 1.997e-21)
(-0.068404 -0.0325656 7.02013e-20)
(-0.0713515 -0.0279615 -5.29424e-22)
(-0.0741542 -0.0210986 0)
(-0.0766063 -0.0118415 0)
(-0.0784759 -0.000190104 -5.78473e-20)
(-0.0798449 0.013764 3.24542e-22)
(-0.0807066 0.0298673 8.03634e-20)
(-0.0805158 0.0478233 -5.83641e-22)
(-0.0788643 0.0671981 -2.52253e-20)
(-0.0753496 0.087361 -2.34497e-20)
(-0.0695226 0.107419 2.35063e-20)
(-0.0608499 0.126235 0)
(-0.0487607 0.142427 -2.3474e-20)
(-0.0327404 0.154386 2.13621e-20)
(-0.0123392 0.160348 0)
(0.0128278 0.158517 0)
(0.0429038 0.147241 2.44119e-20)
(0.0775933 0.125511 8.30224e-22)
(0.116963 0.0935616 -2.31074e-20)
(0.160434 0.0507061 -2.46008e-20)
(0.206106 -0.00126832 2.46627e-20)
(0.253153 -0.059443 -2.17345e-20)
(0.30119 -0.119613 2.36294e-21)
(0.347866 -0.175972 1.81734e-20)
(0.390687 -0.221959 1.75299e-21)
(0.426627 -0.252282 -2.70953e-23)
(0.453375 -0.264679 0)
(0.469596 -0.260303 3.85384e-21)
(0.475086 -0.24294 -3.9127e-21)
(0.46988 -0.21704 5.73416e-23)
(0.456168 -0.186307 0)
(0.438565 -0.152236 7.42704e-23)
(0.424767 -0.115426 -1.98122e-21)
(0.421055 -0.0764912 3.79366e-21)
(0.430897 -0.0382745 3.42556e-22)
(0.452569 -0.00379636 -2.75392e-23)
(0.483016 0.0233868 -1.74737e-21)
(0.518416 0.0415568 -2.2305e-22)
(0.557043 0.0496047 1.56573e-21)
(0.597387 0.0490215 -1.33771e-21)
(0.639254 0.0406268 -6.78748e-24)
(0.681145 0.0278109 -5.30296e-22)
(0.721681 0.0121545 6.40701e-22)
(0.758768 -0.0023728 7.31442e-22)
(0.790558 -0.0153259 -2.13067e-22)
(0.816651 -0.024171 -3.30145e-22)
(0.835781 -0.0302802 6.17418e-22)
(0.850509 -0.0320416 -4.27828e-22)
(0.858681 -0.0319868 1.11735e-22)
(0.866355 -0.0286214 -1.3225e-22)
(0.86832 -0.0245512 -1.04979e-22)
(0.875252 -0.0181631 2.27476e-22)
(0.876031 -0.0119331 -6.81212e-24)
(0.886915 -0.00487034 5.106e-23)
(0.888745 0.00119661 0)
(0.904222 0.0066198 1.62102e-23)
(0.906147 0.0105025 -2.07634e-23)
(0.924491 0.013883 0)
(0.0297883 -0.0329048 7.63171e-20)
(0.0220876 -0.0320725 -1.47117e-19)
(0.0176943 -0.0307362 7.0101e-20)
(0.0146585 -0.0273297 6.54727e-20)
(0.0118896 -0.0215146 -1.26326e-19)
(0.00965852 -0.0132994 1.73329e-21)
(0.00816538 -0.00269953 5.79807e-20)
(0.00755952 0.00999444 5.36957e-20)
(0.00796076 0.0249021 -5.26019e-20)
(0.00972985 0.041624 0)
(0.0133269 0.0596976 -4.83138e-20)
(0.0191413 0.0784826 9.42404e-20)
(0.0275949 0.0970847 -4.59779e-20)
(0.0392016 0.114374 0)
(0.0544962 0.128983 0)
(0.0739079 0.139318 7.29712e-22)
(0.0977276 0.143685 -4.84668e-20)
(0.126169 0.140412 4.70822e-20)
(0.159258 0.12792 0)
(0.196557 0.105334 5.26373e-20)
(0.237879 0.0724849 -1.00613e-19)
(0.282525 0.0292488 9.95982e-20)
(0.329017 -0.0230357 -9.79651e-20)
(0.37641 -0.0809645 2.18985e-21)
(0.423878 -0.140797 8.36807e-20)
(0.469107 -0.196354 -3.93493e-20)
(0.509204 -0.240634 -9.05914e-22)
(0.541151 -0.268146 -9.16669e-21)
(0.563294 -0.276916 2.84943e-21)
(0.575461 -0.268501 6.53786e-21)
(0.578715 -0.246936 1.70339e-22)
(0.573676 -0.216954 -2.05832e-22)
(0.56136 -0.183026 -7.6808e-22)
(0.54342 -0.147828 1.11422e-21)
(0.52471 -0.112633 0)
(0.510918 -0.0774697 2.57732e-21)
(0.507736 -0.0436438 -2.51849e-21)
(0.516557 -0.0129492 1.88241e-21)
(0.536876 0.0118347 -2.351e-21)
(0.565652 0.0287231 2.29477e-22)
(0.601201 0.0361948 0)
(0.640746 0.0354995 1.74358e-22)
(0.682872 0.0273802 -4.57783e-22)
(0.724706 0.0153156 0)
(0.764312 0.000979753 -1.11406e-21)
(0.799291 -0.011762 4.50939e-22)
(0.828141 -0.0228808 -1.88063e-22)
(0.850824 -0.0298357 -1.63838e-22)
(0.866629 -0.0343163 0)
(0.878162 -0.0346575 0)
(0.883567 -0.0336554 3.53977e-22)
(0.888461 -0.0295653 -5.34103e-22)
(0.887884 -0.0253099 2.88391e-22)
(0.891885 -0.0188282 -9.07239e-23)
(0.890017 -0.0129103 -1.40168e-22)
(0.897931 -0.0060406 -5.11083e-23)
(0.897546 -0.000313792 7.64208e-23)
(0.910666 0.00498921 0)
(0.9114 0.00875951 3.41365e-23)
(0.928076 0.0121766 1.01077e-23)
(0.147714 -0.0289978 7.71955e-20)
(0.139164 -0.0281386 -7.6577e-20)
(0.131473 -0.0279046 5.52317e-22)
(0.126431 -0.0260275 -5.16874e-22)
(0.122158 -0.0216935 4.95817e-22)
(0.118428 -0.0150007 -4.70085e-22)
(0.115582 -0.00599271 8.72352e-22)
(0.114029 0.00521453 0)
(0.114076 0.0185113 -7.89205e-22)
(0.115869 0.0336003 7.58089e-22)
(0.119924 0.050046 7.3371e-22)
(0.126657 0.0672335 -7.36637e-22)
(0.136432 0.0842887 0)
(0.14967 0.100088 0)
(0.166801 0.11326 7.12376e-22)
(0.188165 0.122225 0)
(0.213954 0.125351 -7.43957e-22)
(0.244226 0.121108 0)
(0.27889 0.108015 -5.0195e-20)
(0.317456 0.0851563 1.01262e-19)
(0.359587 0.0521945 -1.02157e-19)
(0.404612 0.00917594 5.11918e-20)
(0.451307 -0.0424573 4.96711e-20)
(0.498524 -0.0998987 -4.82301e-20)
(0.544944 -0.159038 -4.2276e-20)
(0.587874 -0.213426 4.09096e-20)
(0.623925 -0.255751 0)
(0.650177 -0.280515 7.52595e-22)
(0.665811 -0.2862 0)
(0.671923 -0.274853 0)
(0.670866 -0.250624 3.7547e-21)
(0.664347 -0.218073 -4.03202e-21)
(0.653573 -0.181658 -3.25445e-23)
(0.63875 -0.144635 -1.76149e-22)
(0.621875 -0.109218 2.40473e-22)
(0.60621 -0.075884 2.36336e-21)
(0.597114 -0.0453453 -2.29482e-21)
(0.597662 -0.0183384 2.48864e-21)
(0.609666 0.00312386 -2.14273e-21)
(0.631531 0.0178295 -4.59979e-22)
(0.662085 0.0239656 1.51672e-21)
(0.698007 0.0227402 -8.17105e-24)