/*--------------------------------*- C++ -*----------------------------------*\
| =========                 |                                                 |
| \\      /  F ield         | OpenFOAM: The Open Source CFD Toolbox           |
|  \\    /   O peration     | Version:  2512                                  |
|   \\  /    A nd           | Website:  www.openfoam.com                      |
|    \\/     M anipulation  |                                                 |
\*---------------------------------------------------------------------------*/
FoamFile
{
    version     2.0;
    format      ascii;
    arch        "LSB;label=32;scalar=64";
    class       volScalarField;
    location    "31";
    object      p;
}
// * * * * * * * * * * * * * * * * * * * * * * * * * * * * * * * * * * * * * //

dimensions      [0 2 -2 0 0 0 0];

internalField   nonuniform List<scalar> 
13248
(
-0.282762
-0.281372
-0.279391
-0.276984
-0.274345
-0.271655
-0.269051
-0.26662
-0.264407
-0.262418
-0.260628
-0.258987
-0.257427
-0.255868
-0.254229
-0.252432
-0.250408
-0.24811
-0.245499
-0.24259
-0.239305
-0.235866
-0.231666
-0.227764
-0.28952
-0.287513
-0.284925
-0.28193
-0.27872
-0.275493
-0.272382
-0.26946
-0.266747
-0.264219
-0.261821
-0.259476
-0.257095
-0.254593
-0.251893
-0.248938
-0.245687
-0.242127
-0.238258
-0.234096
-0.229648
-0.22496
-0.219897
-0.215114
-0.2977
-0.294891
-0.291577
-0.287924
-0.284098
-0.280294
-0.276628
-0.27314
-0.269809
-0.266573
-0.263346
-0.260037
-0.256562
-0.252855
-0.248879
-0.244619
-0.240088
-0.235317
-0.230342
-0.225212
-0.219934
-0.214582
-0.209057
-0.203808
-0.307447
-0.303647
-0.299495
-0.295117
-0.290621
-0.286174
-0.281855
-0.277648
-0.273484
-0.269268
-0.264905
-0.260321
-0.255473
-0.250351
-0.244977
-0.239397
-0.23367
-0.227856
-0.222009
-0.216167
-0.210342
-0.204584
-0.198801
-0.193464
-0.318845
-0.313879
-0.308788
-0.303622
-0.298381
-0.29318
-0.288032
-0.282859
-0.277552
-0.272012
-0.266179
-0.26004
-0.253626
-0.247001
-0.240249
-0.233458
-0.226704
-0.220045
-0.213519
-0.207144
-0.200922
-0.194866
-0.188922
-0.183419
-0.331897
-0.325622
-0.319514
-0.313496
-0.307404
-0.301262
-0.295008
-0.288515
-0.281671
-0.274432
-0.266823
-0.258928
-0.250864
-0.242761
-0.234736
-0.226881
-0.219259
-0.211903
-0.204827
-0.198023
-0.19148
-0.185188
-0.179101
-0.173459
-0.346499
-0.338817
-0.331641
-0.324692
-0.317577
-0.310206
-0.302454
-0.294194
-0.285388
-0.276107
-0.266503
-0.256766
-0.247081
-0.237604
-0.228446
-0.219674
-0.211318
-0.203379
-0.195843
-0.188683
-0.181873
-0.175383
-0.169186
-0.16341
-0.362393
-0.35327
-0.344993
-0.336994
-0.328592
-0.319585
-0.309846
-0.299339
-0.288184
-0.276618
-0.264926
-0.253376
-0.242176
-0.231466
-0.221319
-0.211759
-0.202777
-0.194343
-0.186417
-0.178959
-0.171927
-0.165283
-0.159005
-0.153123
-0.379134
-0.368603
-0.359194
-0.34996
-0.3399
-0.328754
-0.316506
-0.303323
-0.289548
-0.275598
-0.261857
-0.248616
-0.236058
-0.22427
-0.213272
-0.20304
-0.193527
-0.184677
-0.176431
-0.168733
-0.161531
-0.154781
-0.148456
-0.142504
-0.396053
-0.384212
-0.373619
-0.362877
-0.350695
-0.336877
-0.32166
-0.305512
-0.289023
-0.272749
-0.257108
-0.242359
-0.228619
-0.21591
-0.204192
-0.193397
-0.183447
-0.174261
-0.165766
-0.157891
-0.150576
-0.143772
-0.137432
-0.131452
-0.41226
-0.399247
-0.387371
-0.374759
-0.359948
-0.342977
-0.324473
-0.305256
-0.286126
-0.267704
-0.250379
-0.234331
-0.219595
-0.20612
-0.193813
-0.182569
-0.172282
-0.162854
-0.154194
-0.146222
-0.138869
-0.132076
-0.125766
-0.119826
-0.42672
-0.412719
-0.399435
-0.384546
-0.366598
-0.346065
-0.324078
-0.301806
-0.280193
-0.259851
-0.24108
-0.223956
-0.20842
-0.194353
-0.181613
-0.17006
-0.159566
-0.150015
-0.141304
-0.133341
-0.126052
-0.119367
-0.113179
-0.107418
-0.247174
-0.249075
-0.2503
-0.251133
-0.251834
-0.252467
-0.253062
-0.25364
-0.254209
-0.254768
-0.255311
-0.255831
-0.25632
-0.256768
-0.25717
-0.257516
-0.257804
-0.258031
-0.258199
-0.258319
-0.258403
-0.258474
-0.25859
-0.258846
-0.248099
-0.249838
-0.250962
-0.25173
-0.252379
-0.252973
-0.25354
-0.254103
-0.254669
-0.255241
-0.255814
-0.256383
-0.256943
-0.257488
-0.258013
-0.258512
-0.258984
-0.259426
-0.259842
-0.26024
-0.260632
-0.261028
-0.261481
-0.262189
-0.249694
-0.251191
-0.252162
-0.252827
-0.253391
-0.253914
-0.254426
-0.254947
-0.255488
-0.25605
-0.256632
-0.257229
-0.257838
-0.258456
-0.259078
-0.2597
-0.260319
-0.26093
-0.26153
-0.262125
-0.26272
-0.263301
-0.263872
-0.264824
-0.25181
-0.253011
-0.253787
-0.254312
-0.254755
-0.255172
-0.255592
-0.256037
-0.256517
-0.257035
-0.257591
-0.258183
-0.258807
-0.259461
-0.260142
-0.260845
-0.261564
-0.262291
-0.263014
-0.263727
-0.264431
-0.265093
-0.265597
-0.266229
-0.254284
-0.255168
-0.25572
-0.25607
-0.256352
-0.256618
-0.2569
-0.257222
-0.257594
-0.258022
-0.258506
-0.259046
-0.259639
-0.260282
-0.260973
-0.261706
-0.262473
-0.263261
-0.26405
-0.26482
-0.265553
-0.266193
-0.266561
-0.26708
-0.256972
-0.257544
-0.257856
-0.257996
-0.258072
-0.258137
-0.258226
-0.258368
-0.258575
-0.258856
-0.259212
-0.259644
-0.26015
-0.260727
-0.261373
-0.26208
-0.262838
-0.263629
-0.264429
-0.265202
-0.265911
-0.26649
-0.266737
-0.26655
-0.259772
-0.260062
-0.260124
-0.260021
-0.259844
-0.259651
-0.259487
-0.259385
-0.259365
-0.259436
-0.259605
-0.25987
-0.260233
-0.260689
-0.261233
-0.261857
-0.262548
-0.263284
-0.264033
-0.26475
-0.26538
-0.265806
-0.266123
-0.264803
-0.262653
-0.262701
-0.262507
-0.262125
-0.261645
-0.261138
-0.260659
-0.260252
-0.259942
-0.259747
-0.259672
-0.259721
-0.259892
-0.260181
-0.260577
-0.26107
-0.261642
-0.262265
-0.262898
-0.263483
-0.263996
-0.264094
-0.264701
-0.262231
-0.265669
-0.265505
-0.265042
-0.264346
-0.263515
-0.262638
-0.26179
-0.261024
-0.260376
-0.259868
-0.25951
-0.259305
-0.259249
-0.259334
-0.259549
-0.25987
-0.26027
-0.260714
-0.261157
-0.26151
-0.26186
-0.261505
-0.262348
-0.259247
-0.268956
-0.268586
-0.267832
-0.266778
-0.26555
-0.26426
-0.262999
-0.261836
-0.260817
-0.259967
-0.2593
-0.258816
-0.258507
-0.258354
-0.258333
-0.25841
-0.258545
-0.258692
-0.258809
-0.258792
-0.25883
-0.258095
-0.25879
-0.255777
-0.272729
-0.272117
-0.271025
-0.269567
-0.267896
-0.266152
-0.264447
-0.262862
-0.261447
-0.260234
-0.259232
-0.258435
-0.25782
-0.257355
-0.256996
-0.256691
-0.256385
-0.256021
-0.255556
-0.254931
-0.254298
-0.253221
-0.253292
-0.2509
-0.277245
-0.276309
-0.274809
-0.27289
-0.270733
-0.268505
-0.266333
-0.264306
-0.262483
-0.260885
-0.259512
-0.258341
-0.257331
-0.256424
-0.255556
-0.254656
-0.253652
-0.252485
-0.251099
-0.249495
-0.247666
-0.245727
-0.244255
-0.242525
-0.259346
-0.259824
-0.260395
-0.261033
-0.261729
-0.262525
-0.262686
-0.263091
-0.263121
-0.262684
-0.261633
-0.259793
-0.256983
-0.253015
-0.247701
-0.240847
-0.232267
-0.221782
-0.209216
-0.194407
-0.177219
-0.157585
-0.135674
-0.111978
-0.0871548
-0.0620496
-0.0380899
-0.0161973
0.00265422
0.0178789
0.029366
0.0373735
0.0424103
0.044971
0.0456584
0.04496
0.0432935
0.0409648
0.0382372
0.0352925
0.0322721
0.0292594
0.0263491
0.0236003
0.0210409
0.0187027
0.0165791
0.0146491
0.0129071
0.0113446
0.00990652
0.0085952
0.00737001
0.00625842
0.00519953
0.00425068
0.0032878
0.0024265
0.00143858
0.000590293
-0.263573
-0.264652
-0.265835
-0.267081
-0.268331
-0.269528
-0.270535
-0.270902
-0.270899
-0.270247
-0.268723
-0.266111
-0.262202
-0.256801
-0.249731
-0.240837
-0.23002
-0.217228
-0.202454
-0.185731
-0.167134
-0.146811
-0.124994
-0.102105
-0.0787419
-0.0554241
-0.033882
-0.0141576
0.00287528
0.0167258
0.027341
0.0349439
0.039955
0.0427032
0.0437432
0.043449
0.0421717
0.0401997
0.037772
0.0350726
0.0322348
0.0293631
0.0265387
0.0238375
0.0212855
0.0189426
0.0167831
0.0148173
0.0130364
0.0114457
0.00997873
0.00864868
0.00740619
0.00628692
0.00522064
0.00427115
0.00330468
0.00244306
0.0014494
0.000597944
-0.267448
-0.268914
-0.27064
-0.272421
-0.274154
-0.275739
-0.277017
-0.277761
-0.277847
-0.277074
-0.275203
-0.271994
-0.267221
-0.260686
-0.252221
-0.241694
-0.229072
-0.214411
-0.197838
-0.179544
-0.159771
-0.138842
-0.117086
-0.0949409
-0.0729975
-0.0520854
-0.0317888
-0.013701
0.00183613
0.0144967
0.0243912
0.0317656
0.0368462
0.0400008
0.0414875
0.0416598
0.0408154
0.0392259
0.0371151
0.0346721
0.0320322
0.0293137
0.0265947
0.0239615
0.0214418
0.0190999
0.0169317
0.0149372
0.0131314
0.0115205
0.0100293
0.00868392
0.0074266
0.00630176
0.00522984
0.0042816
0.00331354
0.00245344
0.00145666
0.000602466
-0.271095
-0.272121
-0.274434
-0.276623
-0.278758
-0.280687
-0.282237
-0.283204
-0.283384
-0.282548
-0.280439
-0.276803
-0.271406
-0.264058
-0.254599
-0.242905
-0.229005
-0.21304
-0.19523
-0.175879
-0.155341
-0.134175
-0.112621
-0.0910841
-0.0701786
-0.0504679
-0.0321938
-0.0158473
-0.00159448
0.0105329
0.0203751
0.0279338
0.033353
0.0369479
0.0389472
0.0396288
0.0392434
0.0380468
0.036261
0.0340823
0.0316527
0.0290995
0.0265045
0.0239579
0.0214933
0.0191745
0.0170051
0.0150003
0.0131853
0.0115652
0.0100565
0.00870016
0.00743148
0.00630321
0.00522756
0.00428206
0.00331441
0.00245738
0.00146021
0.000603632
-0.272435
-0.274783
-0.276944
-0.279389
-0.281847
-0.284061
-0.285838
-0.286975
-0.287243
-0.286391
-0.284151
-0.280256
-0.274467
-0.266585
-0.256465
-0.244049
-0.229401
-0.212697
-0.194223
-0.174355
-0.153541
-0.132282
-0.110995
-0.0901546
-0.0702143
-0.0515501
-0.0343767
-0.0189803
-0.00546288
0.00616179
0.0158609
0.0236166
0.0294726
0.0335899
0.0361394
0.037346
0.0374327
0.0366385
0.0351888
0.0332869
0.031083
0.028711
0.0262586
0.0238177
0.0214292
0.0191576
0.017001
0.0150093
0.0131924
0.0115763
0.0100587
0.00869663
0.00742111
0.00629174
0.0052146
0.00427292
0.00330762
0.00245478
0.00145999
0.000601362
-0.273195
-0.276307
-0.278268
-0.28069
-0.283339
-0.285758
-0.287685
-0.288929
-0.289262
-0.288418
-0.286117
-0.28209
-0.276098
-0.26795
-0.257523
-0.244788
-0.229834
-0.212866
-0.194206
-0.174269
-0.153544
-0.132555
-0.111762
-0.0915895
-0.0724324
-0.0546036
-0.0382529
-0.0235158
-0.0104116
0.001064
0.0108747
0.0189615
0.0253047
0.0299681
0.0330717
0.0348048
0.0353712
0.0349923
0.033894
0.0322857
0.0303255
0.0281523
0.025861
0.0235446
0.0212512
0.0190467
0.0169354
0.0150446
0.0131498
0.0115531
0.0100356
0.00867348
0.00739627
0.00626835
0.00519214
0.00425503
0.00329385
0.00244591
0.00145615
0.000595792
-0.272699
-0.276609
-0.278342
-0.280513
-0.283199
-0.285715
-0.287699
-0.288985
-0.289365
-0.288549
-0.286255
-0.282224
-0.276219
-0.268057
-0.257628
-0.244919
-0.230037
-0.213203
-0.194752
-0.175115
-0.154791
-0.134304
-0.114103
-0.0945859
-0.0760985
-0.0588972
-0.0430977
-0.028756
-0.0158506
-0.00436657
0.00565003
0.0141072
0.0209335
0.0261306
0.0297752
0.0320295
0.0330784
0.0331272
0.0323959
0.031098
0.0293988
0.0274415
0.0253276
0.0231521
0.02097
0.0188493
0.0168039
0.0149147
0.0130545
0.0114974
0.00998828
0.0086318
0.00735825
0.00623442
0.00516164
0.00422958
0.00327404
0.00243132
0.00144902
0.000587287
-0.27077
-0.275276
-0.276813
-0.278739
-0.281369
-0.283845
-0.285789
-0.287045
-0.287471
-0.286717
-0.284509
-0.280596
-0.274755
-0.266809
-0.256652
-0.244278
-0.229797
-0.213431
-0.195511
-0.17646
-0.156767
-0.136941
-0.117404
-0.0985206
-0.0806041
-0.0638784
-0.0484426
-0.0343198
-0.0214772
-0.00990221
0.000349869
0.00916761
0.016446
0.0221461
0.0263086
0.0290712
0.0306013
0.0310873
0.0307343
0.029759
0.0283336
0.0266053
0.0246815
0.02266
0.0206018
0.0185776
0.0166088
0.0147461
0.0129104
0.0114119
0.00991857
0.00857325
0.00730842
0.00619137
0.00512443
0.00419783
0.00324919
0.00241174
0.00143897
0.000576396
-0.267378
-0.271741
-0.273168
-0.27514
-0.277705
-0.280023
-0.28184
-0.282969
-0.283479
-0.28285
-0.280835
-0.277175
-0.271665
-0.264142
-0.254499
-0.242729
-0.228932
-0.213317
-0.19619
-0.177949
-0.159057
-0.139994
-0.121164
-0.102894
-0.0854759
-0.0691203
-0.0539271
-0.0399165
-0.0270646
-0.0153686
-0.00489046
0.00425131
0.0119343
0.0180944
0.0227423
0.0259901
0.0279916
0.0289218
0.0289576
0.028313
0.0271682
0.0256763
0.02395
0.0220908
0.0201648
0.0182455
0.0163607
0.0145647
0.0129732
0.0113037
0.0098289
0.00849975
0.0072481
0.00614045
0.00508159
0.00416094
0.0032202
0.00238801
0.00142644
0.000563818
-0.26229
-0.265603
-0.267193
-0.269494
-0.271936
-0.274084
-0.275917
-0.277191
-0.277349
-0.276827
-0.275117
-0.271861
-0.26687
-0.259983
-0.251085
-0.240159
-0.227291
-0.212657
-0.196532
-0.179276
-0.16131
-0.143081
-0.124985
-0.107321
-0.0903641
-0.0743272
-0.0593207
-0.0453795
-0.0325007
-0.0206952
-0.0100275
-0.000613305
0.00742002
0.0139932
0.0190933
0.0228037
0.0252612
0.0266383
0.027082
0.0267851
0.0259318
0.0246837
0.0231602
0.0214684
0.0196794
0.01787
0.0160739
0.0143505
0.0127413
0.0111707
0.00972171
0.00841338
0.00717882
0.00608308
0.00503421
0.00412007
0.00318799
0.00236108
0.00141193
0.000550411
-0.254988
-0.257155
-0.259275
-0.261654
-0.263885
-0.266138
-0.268245
-0.269713
-0.270152
-0.269603
-0.268193
-0.265426
-0.261074
-0.254965
-0.246963
-0.237044
-0.225272
-0.211785
-0.196813
-0.180667
-0.163719
-0.146375
-0.129023
-0.111956
-0.0954404
-0.0796936
-0.0648417
-0.0509426
-0.0380205
-0.0261026
-0.0152538
-0.00558266
0.00278568
0.00976145
0.0153113
0.019488
0.022404
0.0242151
0.0250761
0.02515
0.0246098
0.0236222
0.0223137
0.0207988
0.0191541
0.0174612
0.0157588
0.0141086
0.012525
0.0110027
0.0095939
0.00831529
0.00710221
0.00602046
0.00498319
0.00407608
0.00315314
0.00233162
0.00139569
0.000537128
-0.245604
-0.248161
-0.250245
-0.251837
-0.253634
-0.255774
-0.257737
-0.259168
-0.259815
-0.259373
-0.258439
-0.25632
-0.252851
-0.247791
-0.240967
-0.232339
-0.221938
-0.209857
-0.19627
-0.181432
-0.165662
-0.149316
-0.132752
-0.11629
-0.100207
-0.084737
-0.070027
-0.0561561
-0.0431777
-0.0311413
-0.0201176
-0.0102132
-0.00154913
0.0057775
0.0117207
0.0163087
0.0196331
0.0218312
0.0230487
0.0234562
0.0232138
0.022483
0.0213918
0.0200591
0.0185652
0.0169965
0.015395
0.0138252
0.012305
0.0108308
0.00945471
0.00819977
0.00701318
0.00594729
0.0049241
0.00402552
0.00311307
0.00229831
0.00137648
0.000524418
-0.235099
-0.241174
-0.24287
-0.243683
-0.245173
-0.24723
-0.249261
-0.250922
-0.252006
-0.252168
-0.250581
-0.248249
-0.244945
-0.240188
-0.233773
-0.225667
-0.215896
-0.204547
-0.191776
-0.177814
-0.162945
-0.147489
-0.131773
-0.116095
-0.100712
-0.0858337
-0.0716067
-0.0581243
-0.0454483
-0.0336381
-0.0227695
-0.0129513
-0.00430154
0.00308022
0.00914403
0.0139042
0.0174386
0.019871
0.0213385
0.0219897
0.0219738
0.0214459
0.0205327
0.0193531
0.0179883
0.0165274
0.0150144
0.0135161
0.012049
0.0106128
0.00928441
0.00806357
0.00690402
0.00585766
0.00485145
0.00396548
0.00306641
0.00226145
0.00135454
0.000512158
-0.223646
-0.232127
-0.234272
-0.234442
-0.235338
-0.237105
-0.238996
-0.240412
-0.241041
-0.240717
-0.239555
-0.237518
-0.234361
-0.22985
-0.223844
-0.216298
-0.207232
-0.196722
-0.184901
-0.171965
-0.158159
-0.14376
-0.129052
-0.114305
-0.0997525
-0.0855919
-0.0719712
-0.0589961
-0.0467434
-0.0352853
-0.0247059
-0.015112
-0.00661572
0.000690371
0.00675649
0.0115902
0.0152549
0.0178575
0.019518
0.0203719
0.0205585
0.0202247
0.0194909
0.0184736
0.0172523
0.0159166
0.0145108
0.0131027
0.0117058
0.0103393
0.00905982
0.00788656
0.0067636
0.00574572
0.0047632
0.00389333
0.00301157
0.00221694
0.00132874
0.000496789
-0.211797
-0.221547
-0.224236
-0.22417
-0.224608
-0.226063
-0.227775
-0.229032
-0.229535
-0.229271
-0.22825
-0.226291
-0.223243
-0.218987
-0.213413
-0.20646
-0.198132
-0.188488
-0.177636
-0.165738
-0.152999
-0.139657
-0.125959
-0.112146
-0.0984345
-0.0850111
-0.0720252
-0.0595919
-0.0478008
-0.0367348
-0.0264838
-0.0171512
-0.00884295
-0.00164557
0.00439109
0.00926802
0.0130343
0.0157809
0.0176136
0.0186577
0.0190405
0.0188995
0.0183477
0.0174981
0.016428
0.0152264
0.0139376
0.0126301
0.0113158
0.0100305
0.00880972
0.00768399
0.00660053
0.00561441
0.00465984
0.00380883
0.0029475
0.00216505
0.00129879
0.000479492
-0.2001
-0.210011
-0.21319
-0.213283
-0.21354
-0.214763
-0.216338
-0.217542
-0.218054
-0.217827
-0.216817
-0.214927
-0.212059
-0.208116
-0.202999
-0.196644
-0.189044
-0.180242
-0.170327
-0.15943
-0.147724
-0.135408
-0.122699
-0.10981
-0.0969393
-0.084264
-0.0719316
-0.0600625
-0.0487562
-0.0381037
-0.028199
-0.019143
-0.0110366
-0.00396179
0.00203116
0.00693681
0.0107913
0.0136712
0.0156695
0.0168995
0.0174764
0.0175276
0.0171586
0.0164788
0.0155628
0.0144987
0.0133305
0.0121271
0.0109008
0.00969826
0.00854028
0.00746325
0.00642249
0.0054707
0.00454651
0.00371649
0.00287753
0.00210914
0.00126663
0.000461846
-0.188122
-0.197972
-0.201633
-0.202071
-0.20234
-0.203419
-0.204885
-0.20606
-0.20658
-0.206355
-0.205374
-0.203604
-0.200962
-0.197352
-0.192685
-0.186905
-0.179998
-0.171997
-0.162971
-0.153029
-0.14231
-0.130986
-0.11924
-0.107261
-0.0952292
-0.0833099
-0.0716468
-0.0603627
-0.0495634
-0.0393461
-0.0298076
-0.0210469
-0.0131603
-0.00622626
-0.000295666
0.00462029
0.0085465
0.0115462
0.0136992
0.0151066
0.0158716
0.0161115
0.0159245
0.0154151
0.0146552
0.0137312
0.012687
0.0115911
0.0104577
0.00933894
0.00824661
0.00722272
0.00622849
0.00531398
0.00442268
0.00361613
0.00280154
0.00204934
0.00123217
0.000444004
-0.176098
-0.185877
-0.189899
-0.190687
-0.191062
-0.192073
-0.193454
-0.194599
-0.195131
-0.194947
-0.194052
-0.192435
-0.190032
-0.186754
-0.182522
-0.177288
-0.171037
-0.163792
-0.155606
-0.146566
-0.136788
-0.126412
-0.115597
-0.104508
-0.0933068
-0.0821454
-0.0711623
-0.0604799
-0.0502074
-0.0404456
-0.0312927
-0.0228457
-0.0151971
-0.00842246
-0.00257348
0.00233344
0.00631316
0.00941635
0.0117101
0.0132836
0.0142284
0.0146517
0.014644
0.0143046
0.0137019
0.0129204
0.0120033
0.0110187
0.00998258
0.00894978
0.00792751
0.0069613
0.00601703
0.00514277
0.00428709
0.0035067
0.00271876
0.00198512
0.00119502
0.000425967
-0.164483
-0.173934
-0.178143
-0.179239
-0.179765
-0.180769
-0.182095
-0.183223
-0.183792
-0.183688
-0.182914
-0.18147
-0.179308
-0.176356
-0.172544
-0.16783
-0.162199
-0.155664
-0.148267
-0.140077
-0.131188
-0.121717
-0.111797
-0.101572
-0.0911864
-0.0807792
-0.0704816
-0.060413
-0.0506831
-0.0413938
-0.0326436
-0.0245271
-0.0171336
-0.0105366
-0.0047885
8.96065e-05
0.0041036
0.0072926
0.00971169
0.0114385
0.0125533
0.0131532
0.0133208
0.0131496
0.0127045
0.012067
0.0112798
0.0104098
0.00947479
0.00853073
0.00758286
0.00667819
0.00578711
0.00495618
0.00413895
0.00338758
0.00262866
0.00191622
0.00115497
0.000407819
-0.153247
-0.1622
-0.166488
-0.167851
-0.168544
-0.169577
-0.170879
-0.172009
-0.172633
-0.172629
-0.171993
-0.170731
-0.168813
-0.16618
-0.162773
-0.158553
-0.153505
-0.147637
-0.14098
-0.133588
-0.125537
-0.116923
-0.10786
-0.0984698
-0.0888807
-0.0792193
-0.0696074
-0.0601596
-0.0509837
-0.0421807
-0.0338479
-0.0260775
-0.0189559
-0.0125545
-0.00692667
-0.00209763
0.0019306
0.00518668
0.00771447
0.00958049
0.010854
0.0116223
0.0119599
0.0119539
0.0116655
0.0111727
0.0105173
0.00976468
0.00893413
0.00808169
0.00721199
0.00637244
0.00553795
0.00475352
0.00397763
0.00325824
0.00253086
0.00184245
0.00111192
0.000389573
-0.142334
-0.150789
-0.155084
-0.156653
-0.157499
-0.158577
-0.159874
-0.161017
-0.161701
-0.161803
-0.161313
-0.160239
-0.158566
-0.156244
-0.153225
-0.149474
-0.144974
-0.139729
-0.133763
-0.127118
-0.119855
-0.112052
-0.103805
-0.0952178
-0.0864029
-0.0774739
-0.068543
-0.0597184
-0.0511037
-0.0427974
-0.0348946
-0.0274846
-0.0206508
-0.0144627
-0.00897442
-0.00421487
-0.000192929
0.0031107
0.00572943
0.00771918
0.00913882
0.0100657
0.0105664
0.0107214
0.0105876
0.0102393
0.00971676
0.00908366
0.0083604
0.00760226
0.00681417
0.00604329
0.0052688
0.00453408
0.0038025
0.00311818
0.00242496
0.00176358
0.00106569
0.000371133
-0.131903
-0.13982
-0.144035
-0.145742
-0.146715
-0.147836
-0.149135
-0.150295
-0.151038
-0.151246
-0.150902
-0.150018
-0.148583
-0.146563
-0.143914
-0.140604
-0.136618
-0.131956
-0.126634
-0.120687
-0.114162
-0.107124
-0.0996515
-0.0918334
-0.0837669
-0.0755529
-0.0672938
-0.0590899
-0.0510396
-0.0432372
-0.0357745
-0.0287373
-0.0222061
-0.0162483
-0.0109186
-0.00624885
-0.00225399
0.00107697
0.00376793
0.00586474
0.00741642
0.0084907
0.00914619
0.00945661
0.00947423
0.00926897
0.00887958
0.00836743
0.00775365
0.00709224
0.00638891
0.00569011
0.00497895
0.00429716
0.00361292
0.00296684
0.00231053
0.00167931
0.0010161
0.000352338
-0.122021
-0.129334
-0.133395
-0.135185
-0.136254
-0.137412
-0.13871
-0.139883
-0.140681
-0.140989
-0.14079
-0.140091
-0.138885
-0.137151
-0.134852
-0.131958
-0.128451
-0.124331
-0.11961
-0.114313
-0.108479
-0.10216
-0.0954199
-0.0883346
-0.0809876
-0.0734677
-0.0658668
-0.0582771
-0.0507903
-0.0434956
-0.0364803
-0.0298263
-0.0236108
-0.0178994
-0.0127464
-0.00818659
-0.00423964
-0.000901942
0.00184174
0.00402793
0.00569637
0.00690548
0.00770611
0.00816489
0.00832933
0.0082647
0.00800773
0.00761714
0.00711438
0.00655178
0.00593602
0.00531244
0.00466781
0.00404215
0.00340832
0.00280373
0.00218715
0.00158932
0.00096295
0.000332994
-0.112639
-0.119347
-0.123214
-0.125041
-0.126176
-0.127354
-0.128645
-0.129824
-0.130667
-0.131067
-0.131002
-0.130477
-0.129492
-0.128029
-0.126058
-0.12355
-0.120489
-0.116872
-0.112708
-0.108016
-0.102826
-0.0971796
-0.0911301
-0.0847402
-0.0780816
-0.0712314
-0.0642714
-0.0572851
-0.0503569
-0.0435699
-0.0370063
-0.0307437
-0.0248555
-0.019405
-0.0144462
-0.0100155
-0.00613704
-0.00281337
-3.69631e-05
0.00222011
0.00398891
0.00531904
0.00625372
0.00685248
0.00715786
0.0072302
0.00710385
0.00683454
0.00644362
0.00598141
0.00545558
0.00491007
0.004335
0.00376861
0.00318822
0.00262838
0.00205444
0.00149328
0.000906062
0.000312902
-0.103765
-0.109893
-0.113539
-0.115358
-0.116528
-0.117709
-0.118982
-0.120156
-0.121034
-0.121512
-0.121567
-0.121203
-0.120423
-0.119216
-0.117548
-0.115397
-0.112748
-0.109596
-0.105947
-0.101815
-0.0972232
-0.0922049
-0.0868031
-0.0810702
-0.0750665
-0.0688588
-0.0625188
-0.0561212
-0.0497429
-0.0434602
-0.0373497
-0.0314838
-0.0259323
-0.0207556
-0.0160069
-0.0117238
-0.00793375
-0.00464467
-0.00185579
0.000453048
0.00230493
0.00374111
0.00479745
0.00552647
0.00596557
0.00616997
0.00617132
0.00602201
0.00574294
0.00538212
0.00494808
0.0044831
0.00398035
0.00347622
0.00295226
0.00244042
0.00191206
0.00139089
0.000845264
0.000291871
-0.0954368
-0.100993
-0.10439
-0.106166
-0.107343
-0.108511
-0.109756
-0.110914
-0.111813
-0.112355
-0.112516
-0.112295
-0.111689
-0.110726
-0.10934
-0.107517
-0.105245
-0.102521
-0.0993458
-0.0957303
-0.0916921
-0.0872573
-0.0824607
-0.0773451
-0.0719613
-0.0663661
-0.0606222
-0.0547952
-0.0489543
-0.0431689
-0.0375094
-0.032043
-0.0268351
-0.021943
-0.0174188
-0.0133004
-0.00961789
-0.00638354
-0.00360239
-0.00126123
0.000655752
0.00218203
0.00334649
0.00419474
0.00475904
0.00508932
0.00521427
0.00518267
0.00501457
0.0047554
0.00441441
0.00403198
0.00360396
0.00316491
0.00270023
0.0022396
0.00175977
0.00128188
0.000780414
0.000269739
-0.087638
-0.0926389
-0.0957745
-0.0974828
-0.0986453
-0.0997861
-0.100991
-0.102123
-0.10303
-0.103623
-0.103878
-0.103799
-0.103389
-0.102597
-0.101452
-0.0999262
-0.0979992
-0.0956645
-0.0929232
-0.089782
-0.0862538
-0.0823588
-0.0781247
-0.0735864
-0.0687859
-0.0637713
-0.0585964
-0.0533187
-0.0479995
-0.042701
-0.0374873
-0.03242
-0.02756
-0.0229613
-0.0186738
-0.0147357
-0.0111785
-0.00801825
-0.00526468
-0.00291072
-0.000947072
0.000652601
0.00191062
0.00286591
0.00354563
0.00399435
0.0042376
0.00432029
0.00426134
0.00410333
0.00385598
0.00355757
0.0032063
0.00283469
0.00243213
0.00202581
0.00159741
0.00116606
0.000711409
0.000246375
-0.0803433
-0.0848235
-0.0876967
-0.0893185
-0.0904487
-0.0915497
-0.0927049
-0.0938009
-0.094702
-0.0953289
-0.0956561
-0.0956826
-0.0954062
-0.0948137
-0.0938972
-0.0926393
-0.0910248
-0.089045
-0.0866986
-0.0839902
-0.0809293
-0.0775311
-0.0738172
-0.0698155
-0.0655608
-0.061093
-0.0564581
-0.0517055
-0.046889
-0.0420638
-0.0372876
-0.0326161
-0.0281055
-0.0238061
-0.0197656
-0.0160214
-0.012606
-0.00953796
-0.00683118
-0.00448371
-0.00249197
-0.000836135
0.000500056
0.00154917
0.00233338
0.00289191
0.00324696
0.00343941
0.00348675
0.00342856
0.00327471
0.00306121
0.00278819
0.00248638
0.00214813
0.00179915
0.00142496
0.0010433
0.000638194
0.00022169
-0.0735461
-0.0775406
-0.0801543
-0.0816766
-0.0827603
-0.0838116
-0.0849098
-0.08596
-0.0868437
-0.087489
-0.0878709
-0.0879867
-0.0878352
-0.087408
-0.0866937
-0.0856755
-0.0843402
-0.0826794
-0.0806901
-0.0783745
-0.0757393
-0.0727956
-0.0695599
-0.0660544
-0.0623071
-0.0583512
-0.054225
-0.049971
-0.0456356
-0.0412671
-0.0369168
-0.0326349
-0.0284724
-0.0244757
-0.0206899
-0.017151
-0.013892
-0.0109331
-0.00829128
-0.00596901
-0.00396765
-0.00227313
-0.000874725
0.000254164
0.0011309
0.00178948
0.00224872
0.00254533
0.00269506
0.00273438
0.00267304
0.00254468
0.0023509
0.00212078
0.00184909
0.00155999
0.00124258
0.000913609
0.000560774
0.000195635
-0.0672321
-0.0707744
-0.0731357
-0.0745509
-0.0755784
-0.076573
-0.0776087
-0.0786062
-0.0794629
-0.0801141
-0.080536
-0.080725
-0.0806789
-0.0803905
-0.0798542
-0.0790478
-0.0779601
-0.0765837
-0.0749149
-0.0729534
-0.0707035
-0.068173
-0.0653744
-0.0623247
-0.0590463
-0.0555662
-0.0519164
-0.0481323
-0.0442539
-0.0403229
-0.0363844
-0.0324827
-0.0286641
-0.0249708
-0.0214447
-0.0181204
-0.0150301
-0.0121955
-0.00963554
-0.00735632
-0.00536335
-0.00364758
-0.00220325
-0.00100925
-5.27726e-05
0.000695098
0.00124979
0.00164389
0.00189118
0.00202482
0.00205412
0.00201031
0.00189623
0.00173904
0.00153568
0.00130875
0.00105059
0.000777116
0.000479229
0.000168204
-0.0613785
-0.0645047
-0.0666257
-0.0679308
-0.0688963
-0.0698298
-0.0707996
-0.0717398
-0.0725619
-0.0732085
-0.0736576
-0.0739054
-0.0739497
-0.0737842
-0.073391
-0.072767
-0.0718973
-0.0707725
-0.0693886
-0.067744
-0.0658405
-0.0636832
-0.0612813
-0.0586476
-0.0557998
-0.0527592
-0.0495521
-0.0462079
-0.0427604
-0.0392453
-0.0357016
-0.0321684
-0.0286866
-0.0252945
-0.0220306
-0.0189273
-0.0160161
-0.0133188
-0.010856
-0.00863649
-0.00666913
-0.0049492
-0.00347525
-0.00223118
-0.00120837
-0.000382733
0.000257758
0.000741556
0.00108046
0.00130434
0.00142171
0.00146118
0.00142639
0.00134276
0.00120899
0.00104621
0.000849515
0.000634103
0.000393714
0.000139434
-0.0559645
-0.0587119
-0.0606071
-0.0618027
-0.0627028
-0.0635732
-0.0644756
-0.0653556
-0.0661373
-0.0667702
-0.0672341
-0.0675242
-0.0676382
-0.0675685
-0.0673048
-0.066839
-0.0661599
-0.065257
-0.0641249
-0.0627616
-0.0611673
-0.0593449
-0.0573007
-0.0550441
-0.0525886
-0.0499511
-0.0471526
-0.0442172
-0.0411731
-0.0380503
-0.0348824
-0.031703
-0.0285484
-0.0254525
-0.0224505
-0.0195722
-0.0168477
-0.0142986
-0.0119465
-0.00980181
-0.0078762
-0.0061685
-0.00468096
-0.00340191
-0.00232659
-0.00143539
-0.000719463
-0.000154466
0.00026913
0.000577943
0.000779726
0.000900535
0.000944166
0.000934161
0.000870729
0.000773573
0.000640133
0.000485032
0.000304482
0.000109386
-0.050971
-0.0533748
-0.0550603
-0.0561493
-0.0569833
-0.0577902
-0.0586255
-0.0594443
-0.0601817
-0.0607939
-0.0612623
-0.061582
-0.0617503
-0.0617612
-0.0616055
-0.0612748
-0.0607586
-0.0600478
-0.0591359
-0.05802
-0.0566995
-0.0551753
-0.0534513
-0.0515341
-0.0494338
-0.0471631
-0.044739
-0.0421806
-0.0395112
-0.0367556
-0.0339423
-0.0311001
-0.0282605
-0.0254532
-0.02271
-0.0200579
-0.0175253
-0.015133
-0.0129027
-0.0108463
-0.00897718
-0.00729712
-0.00581142
-0.00451228
-0.00339832
-0.00245411
-0.00167388
-0.00103701
-0.00053612
-0.000148101
0.000133401
0.000332134
0.000452396
0.000515577
0.000522755
0.00049227
0.000423521
0.000330594
0.000211938
7.82007e-05
-0.0463771
-0.0484715
-0.0499639
-0.0509513
-0.0517205
-0.0524654
-0.0532352
-0.053993
-0.0546841
-0.0552705
-0.0557356
-0.0560745
-0.0562844
-0.05636
-0.0562933
-0.0560765
-0.0556987
-0.0551523
-0.0544311
-0.0535312
-0.0524509
-0.0511899
-0.0497504
-0.0481364
-0.0463551
-0.044416
-0.0423322
-0.0401188
-0.0377947
-0.0353801
-0.0328988
-0.030375
-0.027836
-0.0253073
-0.0228171
-0.0203899
-0.0180516
-0.0158222
-0.0137227
-0.0117659
-0.00996632
-0.008328
-0.00685868
-0.00555382
-0.00441498
-0.00343038
-0.00259716
-0.00189847
-0.00132898
-0.000868405
-0.000511717
-0.000238315
-4.44031e-05
8.98536e-05
0.00016704
0.000203868
0.000200843
0.000171565
0.000116524
4.60597e-05
-0.0421625
-0.0439799
-0.0452965
-0.0461887
-0.0468956
-0.0475811
-0.0482882
-0.0489869
-0.0496311
-0.0501885
-0.0506443
-0.0509938
-0.0512345
-0.0513616
-0.0513689
-0.0512438
-0.0509819
-0.0505749
-0.0500173
-0.0493042
-0.0484331
-0.0474027
-0.0462138
-0.0448685
-0.0433715
-0.0417297
-0.039953
-0.0380529
-0.0360445
-0.0339439
-0.0317708
-0.0295452
-0.0272903
-0.0250279
-0.0227827
-0.0205761
-0.0184321
-0.0163688
-0.0144068
-0.0125586
-0.0108398
-0.00925573
-0.0078161
-0.00651903
-0.00536854
-0.00435622
-0.00348154
-0.00273093
-0.00210158
-0.00157654
-0.00115152
-0.000807733
-0.000542204
-0.000337888
-0.000192092
-8.90078e-05
-2.62335e-05
9.01614e-06
1.87917e-05
1.29674e-05
-0.038308
-0.0398789
-0.0410367
-0.0418408
-0.042489
-0.0431186
-0.0437665
-0.0444087
-0.0450067
-0.0455331
-0.045975
-0.046328
-0.0465896
-0.0467551
-0.0468171
-0.0467688
-0.0466046
-0.0463167
-0.0458987
-0.0453461
-0.0446558
-0.0438259
-0.0428559
-0.0417467
-0.0405011
-0.0391237
-0.0376218
-0.0360037
-0.0342815
-0.0324676
-0.0305782
-0.0286293
-0.0266405
-0.02463
-0.0226194
-0.0206271
-0.0186746
-0.0167783
-0.0149578
-0.0132251
-0.011596
-0.0100769
-0.0086787
-0.0074018
-0.0062521
-0.00522401
-0.00431934
-0.00352757
-0.00284727
-0.00226441
-0.00177742
-0.00137021
-0.00103888
-0.000767386
-0.000553474
-0.000383943
-0.000255404
-0.000155331
-8.00986e-05
-2.0115e-05
-0.0347956
-0.0361483
-0.0371637
-0.0378873
-0.0384811
-0.0390587
-0.0396518
-0.0402408
-0.0407942
-0.0412888
-0.0417135
-0.0420643
-0.0423386
-0.0425322
-0.042639
-0.0426528
-0.0425685
-0.0423791
-0.0420785
-0.041662
-0.0411264
-0.0404692
-0.039689
-0.0387855
-0.0377605
-0.0366163
-0.0353582
-0.033992
-0.0325269
-0.0309725
-0.0293417
-0.0276471
-0.0259051
-0.0241307
-0.0223422
-0.0205554
-0.0187892
-0.0170583
-0.0153808
-0.0137679
-0.0122353
-0.0107899
-0.00944334
-0.00819757
-0.00706004
-0.00602762
-0.00510372
-0.00428066
-0.00355951
-0.00292822
-0.00238496
-0.00191677