/*--------------------------------*- C++ -*----------------------------------*\
| =========                 |                                                 |
| \\      /  F ield         | OpenFOAM: The Open Source CFD Toolbox           |
|  \\    /   O peration     | Version:  2512                                  |
|   \\  /    A nd           | Website:  www.openfoam.com                      |
|    \\/     M anipulation  |                                                 |
\*---------------------------------------------------------------------------*/
FoamFile
{
    version     2.0;
    format      ascii;
    arch        "LSB;label=32;scalar=64";
    class       surfaceScalarField;
    location    "31";
    object      phi;
}
// * * * * * * * * * * * * * * * * * * * * * * * * * * * * * * * * * * * * * //

dimensions      [0 3 -1 0 0 0 0];

oriented        oriented;

internalField   nonuniform List<scalar> 
26232
(
3.13692e-05
0.000971027
-0.0010024
0.000294776
0.00194765
-0.00221106
0.000938089
0.00210583
-0.00274914
0.00209993
0.00149704
-0.00265888
0.00391805
0.000151139
-0.00196926
0.00653164
-0.001917
-0.000696588
0.0100779
-0.00469983
0.0011536
0.0146847
-0.00818958
0.00358277
0.0204588
-0.0123681
0.00659393
0.0274724
-0.0171984
0.0101848
0.0357488
-0.0226189
0.0143425
0.0452523
-0.0285418
0.0190382
0.0558827
-0.034855
0.0242247
0.0674757
-0.0414284
0.0298354
0.0798114
-0.0481224
0.0357867
0.0926274
-0.0547976
0.0419816
0.105637
-0.0613247
0.0483149
0.118551
-0.0675941
0.0546804
0.131096
-0.0735186
0.0609734
0.143039
-0.0790552
0.0671121
0.154189
-0.0841519
0.0730018
0.164422
-0.0889057
0.0786728
0.173616
-0.0931142
0.0839206
-0.0973703
0.0896145
0.181372
7.18438e-05
0.000899184
0.000484241
0.00153526
0.00141376
0.00117631
0.00302687
-0.000116075
0.00548649
-0.00230848
0.00894812
-0.00537863
0.0135503
-0.00930205
0.0193989
-0.0140381
0.0265489
-0.0195181
0.0349884
-0.0256379
0.0446283
-0.0322588
0.0553004
-0.0392139
0.0667662
-0.0463208
0.0787347
-0.0533969
0.0908865
-0.0602742
0.102902
-0.0668134
0.11449
-0.0729127
0.125411
-0.0785143
0.135496
-0.0836041
0.144653
-0.0882121
0.152888
-0.0923866
0.160238
-0.0962556
0.166884
-0.0997606
-0.103436
0.17295
0.000131452
0.000767732
0.000743957
0.00092275
0.00204022
-0.000119951
0.00421034
-0.00228619
0.00743163
-0.00552977
0.0118564
-0.00980343
0.0175921
-0.0150377
0.0246781
-0.0211242
0.0330671
-0.027907
0.0426152
-0.035186
0.0530868
-0.0427304
0.0641734
-0.0503006
0.0755246
-0.057672
0.0867839
-0.0646562
0.0976267
-0.071117
0.107792
-0.0769783
0.117104
-0.0822247
0.125484
-0.0868951
0.13295
-0.0910697
0.139595
-0.0948569
0.145575
-0.0983667
0.151051
-0.101732
0.156245
-0.104954
-0.108422
0.161231
0.000211366
0.000556366
0.00107626
5.786e-05
0.00281673
-0.00186042
0.0056348
-0.00510426
0.00970133
-0.0095963
0.0151316
-0.0152337
0.0219563
-0.0218624
0.0300984
-0.0292663
0.0393647
-0.0371733
0.0494578
-0.0452791
0.0600078
-0.0532805
0.0706182
-0.0609109
0.0809139
-0.0679677
0.0905864
-0.0743286
0.099424
-0.0799546
0.107327
-0.0848815
0.114305
-0.0892023
0.120455
-0.0930449
0.125934
-0.0965489
0.130924
-0.0998469
0.135603
-0.103046
0.140113
-0.106242
0.144594
-0.109435
-0.112873
0.149045
0.000311172
0.000245194
0.00147635
-0.00110732
0.00372461
-0.00410868
0.00724936
-0.00862901
0.0121821
-0.014529
0.0185562
-0.0216077
0.0262767
-0.0295829
0.035111
-0.0381006
0.0447083
-0.0467707
0.0546456
-0.0552164
0.064489
-0.0631239
0.0738552
-0.0702771
0.08246
-0.0765725
0.0901443
-0.082013
0.0968766
-0.0866869
0.102733
-0.0907376
0.107862
-0.0943312
0.112446
-0.0976289
0.116665
-0.100768
0.120673
-0.103854
0.124584
-0.106958
0.128471
-0.110128
0.132395
-0.113359
-0.116807
0.136329
0.000429266
-0.000184072
0.00193343
-0.00261148
0.00472906
-0.00690431
0.00897059
-0.0128705
0.0147075
-0.020266
0.0218437
-0.0287439
0.0301222
-0.0378614
0.0391491
-0.0471275
0.0484539
-0.0560755
0.0575683
-0.0643308
0.0661007
-0.0716563
0.0737876
-0.077964
0.0805132
-0.0832981
0.0862973
-0.0877971
0.0912606
-0.0916502
0.0955789
-0.095056
0.09944
-0.0981923
0.103011
-0.1012
0.106423
-0.104181
0.109767
-0.107198
0.1131
-0.110291
0.116452
-0.11348
0.119856
-0.116763
-0.120225
0.123273
0.000562742
-0.000746814
0.00243023
-0.00447897
0.00577903
-0.0102531
0.0106857
-0.0177772
0.0170723
-0.0266525
0.0246773
-0.0363489
0.0330771
-0.0462612
0.041758
-0.0558084
0.0502134
-0.0645309
0.058034
-0.0721514
0.0649638
-0.0785861
0.0709134
-0.0839137
0.0759358
-0.0883204
0.080178
-0.0920393
0.0838289
-0.0953011
0.0870743
-0.0983014
0.0900698
-0.101188
0.0929303
-0.104061
0.0957323
-0.106983
0.0985227
-0.109988
0.101328
-0.113097
0.104163
-0.116315
0.10704
-0.119641
-0.123113
0.109929
0.000707011
-0.00145382
0.00294241
-0.00671437
0.0068083
-0.014119
0.012261
-0.0232299
0.0190582
-0.0334498
0.0267652
-0.0440559
0.0348302
-0.0543261
0.0427004
-0.0636786
0.0499321
-0.0717626
0.0562564
-0.0784756
0.0615899
-0.0839196
0.0660009
-0.0883247
0.0696506
-0.0919702
0.0727347
-0.0951234
0.0754373
-0.0980037
0.0779069
-0.100771
0.0802494
-0.10353
0.0825333
-0.106345
0.0847993
-0.109249
0.0870706
-0.11226
0.0893593
-0.115385
0.0916706
-0.118626
0.0940101
-0.12198
-0.125457
0.0963538
0.000855215
-0.00230904
0.00343868
-0.00929783
0.00773987
-0.0184202
0.0135575
-0.0290475
0.0204702
-0.0403625
0.0278993
-0.051485
0.0352384
-0.0616652
0.041988
-0.0704283
0.0478407
-0.0776152
0.0526957
-0.0833307
0.0566197
-0.0878436
0.0597791
-0.0914841
0.062374
-0.0945651
0.0645901
-0.0973395
0.0665739
-0.0999875
0.0684276
-0.102625
0.0702156
-0.105318
0.0719756
-0.108105
0.0737283
-0.111001
0.0754846
-0.114016
0.0772499
-0.11715
0.0790264
-0.120403
0.0808153
-0.123769
-0.127242
0.0826009
0.000998315
-0.00330735
0.00388297
-0.0121825
0.00849484
-0.0230321
0.0144526
-0.0350053
0.0211718
-0.0470817
0.0279913
-0.0583046
0.0343353
-0.0680092
0.0398277
-0.0759206
0.0443232
-0.0821107
0.047868
-0.0868754
0.0506245
-0.0906001
0.0527963
-0.0936559
0.0545739
-0.0963426
0.0561067
-0.0988723
0.057498
-0.101379
0.0588119
-0.103939
0.060085
-0.106591
0.0613371
-0.109357
0.0625787
-0.112243
0.0638154
-0.115253
0.0650495
-0.118385
0.0662818
-0.121635
0.0675109
-0.124998
-0.12846
0.068728
0.00112633
-0.00443368
0.00423978
-0.0152959
0.00900513
-0.0277974
0.0148613
-0.0408615
0.0211062
-0.0533265
0.0270732
-0.0642716
0.0322866
-0.0732227
0.0365243
-0.0801582
0.0397877
-0.0853742
0.0422229
-0.0893106
0.0440338
-0.0924111
0.0454183
-0.0950404
0.0465337
-0.097458
0.0474889
-0.0998275
0.0483511
-0.102241
0.0491579
-0.104745
0.0499296
-0.107363
0.0506766
-0.110104
0.0514047
-0.112971
0.0521169
-0.115965
0.0528146
-0.119082
0.0534972
-0.122318
0.0541616
-0.125662
-0.129101
0.0548033
0.0012322
-0.00566588
0.0044821
-0.0185458
0.00922532
-0.0325406
0.0147478
-0.046384
0.0202958
-0.0588745
0.0252682
-0.0692439
0.029328
-0.0772825
0.0324004
-0.0832307
0.0345951
-0.0875688
0.0361087
-0.0908243
0.037147
-0.0934493
0.0378795
-0.0957728
0.0384254
-0.098004
0.0388587
-0.100261
0.0392207
-0.102603
0.0395328
-0.105058
0.039806
-0.107636
0.0400463
-0.110344
0.0402574
-0.113182
0.0404411
-0.116149
0.0405986
-0.11924
0.0407292
-0.122448
0.0408296
-0.125763
0.0408991
-0.129171
-0.000206303
0.00034092
-0.000134617
-0.000720941
0.000888573
-0.000373935
-0.00147883
0.00135014
-0.000592249
-0.00243033
0.00173969
-0.000788187
-0.00353671
0.0020684
-0.000962015
-0.00476808
0.00234784
-0.00111647
-0.00610168
0.00258975
-0.00125615
-0.00752038
0.00280527
-0.00138657
-0.00901133
0.00300422
-0.00151327
-0.0105649
0.0031945
-0.00164091
-0.0121735
0.00338174
-0.00177313
-0.0138308
0.00356928
-0.00191203
-0.0155309
0.00375832
-0.00205823
-0.0172681
0.00394825
-0.00221107
-0.0190364
0.00413712
-0.00236874
-0.0208301
0.00432203
-0.0025284
-0.0226434
0.00449964
-0.00268629
-0.0244724
0.0046667
-0.00283776
-0.0263158
0.00482077
-0.00297734
-0.0281779
0.00496093
-0.00309882
-0.0300706
0.00508814
-0.00319548
-0.0320161
0.00520546
-0.00325989
-0.0340553
0.00532187
-0.00328274
0.00545563
-0.0362557
-0.00325513
-0.000187306
0.000528226
-0.000657772
0.00135904
-0.00135289
0.00204526
-0.00222672
0.00261352
-0.00324248
0.00308415
-0.00437086
0.00347623
-0.00558873
0.00380762
-0.00687781
0.00409436
-0.00822361
0.00435002
-0.00961437
0.00458526
-0.0110402
0.00480756
-0.0124922
0.00502131
-0.013962
0.00522809
-0.0154409
0.00542714
-0.0169197
0.00561593
-0.0183885
0.00579082
-0.0198366
0.00594779
-0.0212533
0.00608335
-0.0226284
0.00619584
-0.0239546
0.00628717
-0.0252307
0.00636424
-0.0264651
0.00643982
-0.0276834
0.00654021
0.00672997
-0.0289577
-0.000158919
0.000687145
-0.000562503
0.00176262
-0.0011612
0.00264396
-0.00191388
0.00336619
-0.00278601
0.00395628
-0.00374873
0.00443895
-0.00477792
0.00483681
-0.0058533
0.00516973
-0.00695753
0.00545425
-0.00807546
0.00570318
-0.00919335
0.00592545
-0.0102982
0.00612616
-0.0113771
0.00630701
-0.0124167
0.00646676
-0.0134026
0.00660182
-0.0143188
0.00670696
-0.015147
0.00677607
-0.0158669
0.00680316
-0.0164549
0.00678388
-0.0168857
0.006718
-0.0171348
0.00661334
-0.0171849
0.00648992
-0.0170305
0.00638577
0.00637837
-0.0166789
-0.000124924
0.000812069
-0.000446743
0.00208444
-0.000925414
0.00312263
-0.00152469
0.00396547
-0.00221215
0.00464374
-0.002959
0.0051858
-0.0037396
0.00561742
-0.00453091
0.00596105
-0.00531186
0.0062352
-0.00606277
0.00645409
-0.00676476
0.00662743
-0.00739923
0.00676064
-0.00794735
0.00685513
-0.00838947
0.00690887
-0.00870457
0.00691692
-0.0088696
0.00687199
-0.00885864
0.00676511
-0.00864185
0.00658637
-0.00818412
0.00632615
-0.00744345
0.00597733
-0.0063699
0.00553979
-0.00490837
0.00502839
-0.00301568
0.00449307
0.00410524
-0.000742544
-8.97392e-05
0.000901808
-0.000324269
0.00231897
-0.000671526
0.00346989
-0.00109906
0.004393
-0.00157575
0.00512044
-0.00207223
0.00568227
-0.00256071
0.0061059
-0.00301472
0.00641505
-0.00340862
0.0066291
-0.00371715
0.00676263
-0.00391503
0.00682531
-0.00397648
0.00682208
-0.00387482
0.00675347
-0.00358206
0.00661612
-0.00306843
0.00640329
-0.00230184
0.0061054
-0.00124723
0.0057105
0.000134362
0.00520478
0.00188731
0.0045732
0.00406394
0.00380071
0.00672811
0.00287562
0.00995648
0.00180002
0.0138417
0.00060786
-0.000589699
0.0185366
-5.77224e-05
0.000959531
-0.000208739
0.00246999
-0.000425482
0.00368663
-0.000677065
0.00464458
-0.000932176
0.00537555
-0.00115976
0.00590986
-0.00132902
0.00627516
-0.00140914
0.00649517
-0.00136888
0.00658884
-0.00117616
0.0065699
-0.00079758
0.00644674
-0.000198105
0.00622261
0.00065936
0.00589601
0.00181431
0.00546117
0.00330895
0.00490865
0.00518845
0.00422591
0.00750116
0.00339779
0.0102989
0.00240704
0.0136372
0.00123492
0.017576
-0.000138169
0.022183
-0.00173136
0.0275446
-0.00356159
0.0337291
-0.00557664
-0.00794602
0.0410855
-3.23427e-05
0.000991873
-0.000111019
0.00254866
-0.000207963
0.00378357
-0.000290624
0.00472724
-0.000325283
0.00541021
-0.000277501
0.00586208
-0.000111934
0.0061096
0.000208096
0.00617514
0.000721179
0.00607576
0.00146835
0.00582273
0.00249358
0.00542151
0.0038442
0.00487199
0.0055712
0.00416901
0.00772938
0.00330299
0.0103777
0.00226034
0.0135785
0.00102509
0.0173974
-0.000421091
0.0219024
-0.00209798
0.0271623
-0.00402501
0.0332456
-0.00622145
0.0402126
-0.00869837
0.048159
-0.0115079
0.0570275
-0.0144451
-0.0183398
0.0674212
-1.54024e-05
0.00100728
-3.65623e-05
0.00256982
-2.89727e-05
0.00377598
4.52744e-05
0.004653
0.000225466
0.00523002
0.000552102
0.00553544
0.00106762
0.00559407
0.00181735
0.00542542
0.0028503
0.00504281
0.0042199
0.00445312
0.00598451
0.0036569
0.00820765
0.00264886
0.010958
0.00141869
0.014308
-4.70748e-05
0.0183361
-0.00176771
0.0231208
-0.00375959
0.0287418
-0.00604214
0.0352763
-0.00863244
0.0427954
-0.0115441
0.0513634
-0.0147895
0.0610129
-0.0183479
0.0718392
-0.0223342
0.0836195
-0.0262255
-0.0317998
0.0970795
-6.45303e-06
0.00101373
1.65051e-05
0.00254687
0.000115752
0.00367674
0.000339412
0.00442934
0.000736003
0.00483343
0.00135583
0.00491561
0.00225251
0.00469739
0.00348436
0.00419357
0.00511544
0.00341173
0.00721617
0.0023524
0.00986327
0.00100979
0.0131392
-0.000627054
0.0171306
-0.00257276
0.0219271
-0.00484355
0.0276153
-0.00745588
0.034279
-0.0104233
0.0419924
-0.0137555
0.0508157
-0.0174558
0.0607901
-0.0215185
0.0719366
-0.0259361
0.0842303
-0.0306415
0.0976945
-0.0357984
0.112044
-0.0405746
-0.0475152
0.127759
-2.52971e-06
0.00101626
5.83158e-05
0.00248602
0.000247674
0.00348738
0.000628289
0.00404872
0.00126282
0.0041989
0.00221649
0.00396194
0.00355942
0.00335446
0.00536819
0.0023848
0.00772669
0.00105323
0.0107254
-0.000646268
0.0144597
-0.00272454
0.0190271
-0.00519445
0.0245226
-0.00806825
0.0310337
-0.0113546
0.0386339
-0.0150561
0.0473773
-0.0191668
0.0572924
-0.0236706
0.0683775
-0.0285409
0.0805975
-0.0337384
0.0938809
-0.0392195
0.108124
-0.0448844
0.123182
-0.0508565
0.138885
-0.0562773
-0.0636905
0.15506
1.58525e-06
0.00101467
0.000106356
0.00238125
0.000402401
0.00319133
0.000971994
0.00347913
0.00189719
0.0032737
0.0032637
0.00259543
0.00516334
0.00145482
0.00769447
-0.000146325
0.010962
-0.0022143
0.0150723
-0.0047566
0.0201292
-0.00778139
0.0262263
-0.0112915
0.0334392
-0.0152812
0.0418173
-0.0197327
0.0513762
-0.0246149
0.0620918
-0.0298825
0.0738979
-0.0354767
0.0866851
-0.0413281
0.100305
-0.0473582
0.114575
-0.0534896
0.129309
-0.059618
0.14423
-0.0657776
0.159351
-0.0713983
-0.0781304
0.173791
1.22768e-05
0.000182468
0.000624657
0.0014449
0.00274935
0.00464819
0.00725661
0.0106931
0.0150727
0.0205009
0.0270621
0.0348088
0.0437522
0.0538549
0.0650266
0.0771258
0.089964
0.103316
0.116931
0.130554
0.143938
0.156833
0.169355
0.180839
-0.0377116
0.00570962
-0.00425379
-0.0392203
0.00541712
-0.00390842
-0.0407687
0.00490088
-0.00335246
-0.0423638
0.00414628
-0.00255117
-0.044007
0.00311458
-0.00147139
-0.0457049
0.00176834
-7.04061e-05
-0.0473972
8.31046e-05
0.00160919
-0.0491207
-0.00192807
0.00365153
-0.0508311
-0.00431918
0.00602956
-0.0524966
-0.00704968
0.00871525
-0.0540745
-0.0100761
0.011654
-0.0555092
-0.0133228
0.0147575
-0.0567302
-0.016677
0.0178981
-0.0576496
-0.019985
0.0209044
-0.0581579
-0.0230503
0.0235585
-0.0581234
-0.0256344
0.0256
-0.0573976
-0.0274666
0.0267409
-0.0558177
-0.0282644
0.0266845
-0.0532204
-0.0277645
0.0251671
-0.0494616
-0.0257611
0.0220023
-0.0444196
-0.0221493
0.0171073
-0.0380476
-0.0169946
0.0106225
-0.0303767
-0.0105699
0.00289896
-0.0214961
-0.00332519
-0.00555545
-0.0116479
0.00421208
-0.0140603
-0.000975774
0.0113112
-0.0219833
0.0100788
0.0171621
-0.0282166
0.0213558
0.0210595
-0.0323365
0.0326442
0.0226712
-0.0339595
0.0438057
0.021969
-0.0331305
0.0547605
0.0191047
-0.0300596
0.0654399
0.0146183
-0.0252976
0.0757265
0.00907111
-0.0193577
0.085507
0.00319964
-0.0129802
0.094635
-0.00253379
-0.00659419
0.102994
-0.00746783
-0.000890847
0.110515
-0.0115075
0.00398566
0.11719
-0.0141802
0.00750584
0.123073
-0.0158032
0.0099198
0.12827
-0.0159737
0.0107764
0.132916
-0.0152984
0.0106527
0.137142
-0.013279
0.00905327
0.141053
-0.0108213
0.00691066
0.144715
-0.00724775
0.00358565
0.148152
-0.00381517
0.000377574
0.151356
0.000402297
-0.00360572
0.154302
0.0037907
-0.00673696
0.156964
0.0076466
-0.010309
0.159341
0.01004
-0.0124166
0.161432
0.0128809
-0.0149722
0.163268
0.0139363
-0.0157722
0.164861
0.0157977
-0.0173902
0.166275
0.0157423
-0.0171571
0.16753
0.0170184
-0.0182735
0.168733
0.0163888
-0.0175908
0.169824
0.0177473
-0.018839
0.170923
0.0172389
-0.0183372
0.171797
0.0191326
-0.0200072
0.172663
0.0191049
-0.0199702
0.0215341
-0.0219836
-0.0300823
0.00683415
-0.0312662
0.00660104
-0.0324926
0.00612731
-0.0337661
0.0054197
-0.0350891
0.00443764
-0.0364657
0.00314498
-0.0378933
0.00151071
-0.0393419
-0.000479529
-0.040819
-0.00284208
-0.0423024
-0.0055663
-0.0437642
-0.0086143
-0.0451668
-0.0119201
-0.0464604
-0.0153835
-0.0475786
-0.0188668
-0.0484345
-0.0221944
-0.0489151
-0.0251539
-0.0488827
-0.027499
-0.0481754
-0.0289717
-0.0466142
-0.0293256
-0.0440185
-0.0283568
-0.0402222
-0.0259456
-0.0351112
-0.0221056
-0.0286219
-0.0170592
-0.0207899
-0.0111571
-0.011646
-0.00493186
-0.00143246
0.00109763
0.00959155
0.00613808
0.0212038
0.00944719
0.0331655
0.0107094
0.0452424
0.00989213
0.057225
0.00712217
0.0689145
0.00292874
0.0800408
-0.00205522
0.0904172
-0.00717671
0.0998732
-0.0119898
0.10828
-0.0158746
0.1156
-0.0188278
0.12187
-0.0204495
0.12719
-0.0211239
0.131714
-0.0204977
0.135619
-0.0192028
0.139082
-0.0167419
0.142254
-0.0139933
0.145245
-0.0102393
0.148118
-0.0066882
0.15088
-0.00235939
0.153518
0.00115299
0.155996
0.00516874
0.158293
0.00774266
0.160386
0.0107876
0.16228
0.0120427
0.163962
0.0141154
0.165483
0.0142218
0.166847
0.0156539
0.16816
0.0150756
0.169358
0.0165491
0.170564
0.0160331
0.171534
0.0181632
0.172494
0.0181441
0.0210139
-0.0173301
0.00748537
-0.0179704
0.00724131
-0.0186978
0.00685474
-0.0194608
0.00618267
-0.0202684
0.00524522
-0.0211277
0.00400436
-0.0220384
0.00242134
-0.0229919
0.000473961
-0.0239854
-0.00184858
-0.0250118
-0.00453987
-0.0260558
-0.0075703
-0.0270942
-0.0108817
-0.0280944
-0.0143833
-0.0290116
-0.0179496
-0.0297839
-0.0214221
-0.0303263
-0.0246115
-0.0305273
-0.027298
-0.0302445
-0.0292546
-0.0293068
-0.0302632
-0.0275241
-0.0301395
-0.0247035
-0.0287662
-0.0206885
-0.0261205
-0.0153419
-0.0224058
-0.00858954
-0.0179094
-0.000511338
-0.0130101
0.0089282
-0.00834191
0.0194877
-0.00442144
0.0308852
-0.00195029
0.0428367
-0.00124206
0.0550227
-0.00229388
0.0671368
-0.00499186
0.0788558
-0.00879029
0.0899236
-0.0131231
0.100056
-0.0173087
0.109083
-0.021017
0.116915
-0.0237064
0.12355
-0.0254628
0.129063
-0.0259624
0.133581
-0.0256425
0.137275
-0.0241914
0.140332
-0.0222595
0.142944
-0.0193542
0.145283
-0.0163324
0.147488
-0.0124445
0.149651
-0.00885152
0.151815
-0.00452245
0.153968
-0.00100021
0.156088
0.00304805
0.158143
0.00568787
0.160091
0.00883946
0.161914
0.0102197
0.163578
0.0124518
0.165112
0.0126874
0.166509
0.0142577
0.167865
0.0137196
0.169111
0.0153024
0.170373
0.0147712
0.171401
0.0171353
0.172427
0.0171179
0.0204292
-0.000448854
0.00719168
-0.000642849
0.00743531
-0.000816723
0.00702861
-0.00100943
0.00637538
-0.00124352
0.00547931
-0.00152848
0.00428931
-0.00186295
0.00275581
-0.00224368
0.000854693
-0.00267048
-0.00142178
-0.00314125
-0.0040691
-0.00364785
-0.0070637
-0.00417492
-0.0103547
-0.00469792
-0.0138603
-0.00518189
-0.0174656
-0.00558512
-0.0210189
-0.00585736
-0.0243392
-0.005915
-0.0272404
-0.00564263
-0.0295269
-0.00489592
-0.0310099
-0.0035045
-0.031531
-0.00129296
-0.0309777
0.00200697
-0.0294205
0.00652581
-0.0269247
0.0122932
-0.0236768
0.0193875
-0.0201044
0.0277559
-0.0167103
0.0373207
-0.0139862
0.0478119
-0.0124414
0.05894
-0.0123702
0.0703817
-0.0137356
0.0817496
-0.0163598
0.0926636
-0.0197042
0.102821
-0.0232802
0.111973
-0.0264608
0.119975
-0.0290196
0.126786
-0.0305166
0.132436
-0.0311133
0.137025
-0.0305512
0.140684
-0.0293018
0.143574
-0.0270809
0.145863
-0.0245484
0.147726
-0.0212179
0.149328
-0.0179345
0.150814
-0.0139297
0.152292
-0.0103302
0.153829
-0.00605905
0.155448
-0.00261896
0.157119
0.00137628
0.158828
0.00397886
0.160523
0.00714518
0.16217
0.00857203
0.163719
0.0109033
0.165181
0.0112249
0.166534
0.0129053
0.167864
0.012389
0.1691
0.0140664
0.170365
0.0135068
0.171413
0.0160871
0.172471
0.0160595
0.0197889
0.0189332
0.0067951
0.0192703
0.00709819
0.0195287
0.00677025
0.0197972
0.00610684
0.0200465
0.00523001
0.0202572
0.00407867
0.0204328
0.00258023
0.0205783
0.000709138
0.0206921
-0.00153561
0.0207725
-0.00414946
0.0208233
-0.00711449
0.020853
-0.0103844
0.0208737
-0.013881
0.0209016
-0.0174935
0.0209646
-0.0210819
0.0211115
-0.0244861
0.0214075
-0.0275364
0.0219394
-0.0300588
0.0228195
-0.0318901
0.0241847
-0.0328961
0.0261941
-0.0329872
0.0289819
-0.0322082
0.0327068
-0.0306496
0.0375426
-0.0285126
0.0435784
-0.0261402
0.0507945
-0.0239264
0.0591046
-0.0222963
0.0682926
-0.0216294
0.0780728
-0.0221504
0.0881104
-0.0237732
0.0980295
-0.0262788
0.107469
-0.0291435
0.116139
-0.031951
0.12384
-0.0341616
0.130472
-0.0356516
0.136036
-0.0360803
0.140591
-0.0356681
0.144242
-0.0342024
0.147111
-0.0321711
0.149332
-0.0293016
0.151037
-0.0262535
0.152363
-0.0225443
0.153444
-0.0190153
0.154406
-0.0148914
0.155359
-0.0112831
0.156381
-0.00708084
0.15752
-0.00375779
0.15876
0.000136334
0.160102
0.00263643
0.161498
0.0057494
0.162913
0.00715688
0.164286
0.00953029
0.165617
0.00989404
0.16687
0.0116524
0.168122
0.0111365
0.169301
0.0128876
0.170524
0.012284
0.171561
0.0150503
0.172623
0.0149974
0.0190995
0.041503
0.0063776
0.0419342
0.00666697
0.0423823
0.00632214
0.0428812
0.00560796
0.0433887
0.00472248
0.043883
0.00358436
0.0443664
0.00209686
0.0448415
0.000234015
0.0453011
-0.00199518
0.0457384
-0.00458684
0.0461513
-0.00752739
0.0465414
-0.0107745
0.0469153
-0.0142548
0.0472866
-0.0178648
0.0476804
-0.0214757
0.0481337
-0.0249394
0.0486948
-0.0280975
0.0494277
-0.0307917
0.0504165
-0.0328788
0.0517656
-0.0342453
0.0536024
-0.034824
0.0560457
-0.0346515
0.0592415
-0.0338455
0.0633249
-0.0325961
0.0683739
-0.0311891
0.0743939
-0.0299465
0.0813146
-0.029217
0.0889586
-0.0292734
0.0970711
-0.0302629
0.105344
-0.0320463
0.113444
-0.0343784
0.121064
-0.0367635
0.127973
-0.0388598
0.13403
-0.0402187
0.139186
-0.0408079
0.143475
-0.0403688
0.14697
-0.0391635
0.149772
-0.0370041
0.151982
-0.0343812
0.153701
-0.0310204
0.155021
-0.0275741
0.156036
-0.0235589
0.156836
-0.0198154
0.157514
-0.0155698
0.158164
-0.0119325
0.15886
-0.00777734
0.159661
-0.00455834
0.160573
-0.0007757
0.161605
0.0016038
0.162727
0.00462738
0.163911
0.00597311
0.165095
0.00834598
0.166274
0.0087154
0.167404
0.0105224
0.168553
0.00998779
0.16965
0.0117904
0.170806
0.011128
0.171814
0.0140422
0.172863
0.0139482
0.0183616
0.0673803
0.00641858
0.0674888
0.00655845
0.0677336
0.00607736
0.0680969
0.00524467
0.0685143
0.00430502
0.0689703
0.00312842
0.0694565
0.00161063
0.0699668
-0.000276327
0.0704814
-0.00250978
0.0709893
-0.00509474
0.0714817
-0.00801978
0.0719565
-0.0112493
0.0724172
-0.0147155
0.0728732
-0.0183208
0.0733437
-0.0219462
0.0738577
-0.0254533
0.0744536
-0.0286934
0.0751819
-0.0315201
0.0761084
-0.0338053
0.0773158
-0.0354527
0.078906
-0.0364141
0.0809813
-0.0367268
0.0836447
-0.0365089
0.0869907
-0.035942
0.0910778
-0.0352762
0.0959078
-0.0347765
0.101415
-0.0347237
0.107447
-0.0353063
0.11379
-0.0366052
0.120183
-0.0384399
0.126361
-0.0405561
0.132093
-0.0424961
0.137223
-0.0439898
0.141674
-0.0446693
0.145439
-0.0445733
0.148571
-0.0435006
0.151145
-0.0417377
0.153244
-0.039103
0.154946
-0.0360826
0.156318
-0.0323932
0.15742
-0.0286758
0.158303
-0.0244418
0.15902
-0.0205323
0.159625
-0.0161752
0.160184
-0.0124912
0.160757
-0.00835001
0.161395
-0.00519706
0.16213
-0.00151002
0.162963
0.000770843
0.163891
0.00369944
0.164896
0.00496809
0.165925
0.00731686
0.166971
0.00766884
0.167991
0.00950309
0.169041
0.00893719
0.17006
0.0107716
0.171148
0.0100399
0.172129
0.013061
0.173165
0.0129126
0.0175665
0.0962274
0.00727071
0.095635
0.00715086
0.0952731
0.00643926
0.0950781
0.00543971
0.0950017
0.00438138
0.0950365
0.00309358
0.0951581
0.00148909
0.0953557
-0.000473943
0.0955847
-0.0027388
0.0958364
-0.00534638
0.0960916
-0.00827499
0.0963416
-0.0114994
0.0965843
-0.0149582
0.0968238
-0.0185603
0.0970743
-0.0221967
0.0973596
-0.0257386
0.0977123
-0.0290461
0.0981751
-0.0319829
0.0988025
-0.0344327
0.0996619
-0.036312
0.100834
-0.037586
0.1024
-0.0382933
0.104433
-0.0385417
0.106991
-0.0384999
0.110104
-0.0383897
0.113759
-0.038431
0.117885
-0.0388499
0.122351
-0.0397725
0.126979
-0.0412329
0.131568
-0.0430292
0.135929
-0.0449165
0.139914
-0.0464816
0.143442
-0.0475174
0.146489
-0.0477169
0.149079
-0.047163
0.151267
-0.0456882
0.153116
-0.0435872
0.154687
-0.0406735
0.15603
-0.0374263
0.157189
-0.0335514
0.158193
-0.0296798
0.159065
-0.0253145
0.15983
-0.0212968
0.160508
-0.0168534
0.161135
-0.0131187
0.161751
-0.00896504
0.162395
-0.00584108
0.163096
-0.00221164
0.163863
3.6395e-06
0.164705
0.0028575
0.165618
0.00405576
0.166559
0.00637535
0.167527
0.0067011
0.168479
0.00855145
0.169466
0.00794997
0.170435
0.00980193
0.171479
0.00899665
0.172454
0.0120857
0.173493
0.0118735
0.0166951
0.125974
0.00905569
0.124527
0.00859753
0.123332
0.00763431
0.122289
0.00648292
0.121425
0.00524539
0.120742
0.00377696
0.120199
0.00203176
0.119792
-6.71083e-05
0.119428
-0.00237515
0.119117
-0.00503494
0.118835
-0.00799326
0.118571
-0.0112348
0.118314
-0.0147014
0.118063
-0.0183091
0.117827
-0.0219607
0.117626
-0.0255377
0.117489
-0.028909
0.117454
-0.0319479
0.117569
-0.0345479
0.117891
-0.0366341
0.118483
-0.0381781
0.119407
-0.0392171
0.120714
-0.0398489
0.122436
-0.0402222
0.124578
-0.040531
0.127105
-0.0409585
0.129944
-0.0416893
0.13298
-0.0428076
0.13607
-0.0443231
0.139073
-0.0460326
0.141874
-0.0477171
0.1444
-0.0490078
0.146629
-0.0497465
0.148576
-0.0496635
0.150274
-0.0488613
0.15177
-0.0471837
0.153109
-0.044927
0.154329
-0.0418932
0.155455
-0.0385526
0.156508
-0.0346039
0.157501
-0.0306724
0.158437
-0.0262512
0.159323
-0.0221825
0.160157
-0.0176869
0.16095
-0.0139127
0.16172
-0.00973443
0.162492
-0.00661358
0.163282
-0.00300089
0.164111
-0.000825964
0.164974
0.00199476
0.165891
0.00313841
0.166829
0.00543722
0.167791
0.00573942
0.168739
0.0076038
0.169718
0.00697038
0.170689
0.00883178
0.17173
0.00795536
0.172737
0.0110783
0.173813
0.0107981
0.0157184
0.152601
0.0115142
0.150489
0.0107096
0.148517
0.00960683
0.146643
0.00835732
0.144989
0.00689937
0.14353
0.00523563
0.142208
0.00335347
0.141041
0.00110041
0.140011
-0.00134588
0.139001
-0.00402487
0.138024
-0.00701637
0.137076
-0.0102866
0.136147
-0.0137721
0.135232
-0.0173943
0.13434
-0.0210688
0.133489
-0.0246865
0.132706
-0.0281258
0.132028
-0.0312701
0.131501
-0.034021
0.131176
-0.0363089
0.131106
-0.0381079
0.131335
-0.0394462
0.131899
-0.0404133
0.13281
-0.041133
0.134051
-0.0417717
0.135574
-0.042482
0.137304
-0.0434187
0.139139
-0.0446428
0.140974
-0.0461585
0.14272
-0.0477785
0.144322
-0.0493186
0.145762
-0.0504484
0.147058
-0.0510424
0.148241
-0.0508466
0.149345
-0.0499651
0.150399
-0.0482375
0.15143
-0.0459581
0.152459
-0.0429221
0.153492
-0.0395855
0.15453
-0.0356421
0.155576
-0.0317188
0.156624
-0.0272991
0.15767
-0.023228
0.158698
-0.0187153
0.159707
-0.0149214
0.160693
-0.0107204
0.16167
-0.00759044
0.162637
-0.00396806
0.163618
-0.00180721
0.164597
0.00101582
0.165611
0.00212429
0.166631
0.00441787
0.167664
0.00470579
0.16868
0.00658806
0.169718
0.00593184
0.170751
0.00779977
0.171846
0.00685986
0.172935
0.00998921
0.174092
0.00964137
0.0145996
0.171352
0.013953
0.169068
0.0129932
0.166728
0.0119473
0.16448
0.010605
0.162399
0.00897976
0.160461
0.00717453
0.158616
0.00519829
0.156768
0.00294859
0.15513
0.000291688
0.153498
-0.00239334
0.151872
-0.00539005
0.150266
-0.00868064
0.14867
-0.012176
0.147082
-0.0158056
0.145511
-0.0194988
0.143981
-0.0231557
0.142521
-0.0266661
0.141174
-0.029923
0.139988
-0.0328354
0.139015
-0.0353354
0.138302
-0.0373951
0.137885
-0.0390291
0.137788
-0.0403163
0.138009
-0.0413537
0.138515
-0.0422784
0.139249
-0.0432161
0.140134
-0.0443039
0.141086
-0.0455941
0.142027
-0.0471001
0.142908
-0.0486591
0.143714
-0.0501243
0.14446
-0.0511948
0.145182
-0.0517644
0.145915
-0.0515794
0.146686
-0.0507367
0.147512
-0.0490629
0.148403
-0.0468491
0.149364
-0.0438838
0.150399
-0.0406196
0.151493
-0.0367363
0.152643
-0.0328688
0.153835
-0.0284914
0.155062
-0.0244551
0.156303
-0.0199562
0.157547
-0.0161652
0.158778
-0.0119518
0.159999
-0.00881161
0.161201
-0.00516979
0.162396
-0.00300192
0.163561
-0.000149069
0.164746
0.00093954
0.165921
0.00324279
0.167099
0.00352769
0.168253
0.00543397
0.169418
0.00476617
0.170577
0.00664092
0.171789
0.00564813
0.173015
0.0087629
0.174306
0.00835099
0.0132964
0.179268
0.0155248
0.177349
0.0149113
0.17542
0.0138764
0.173467
0.0125587
0.171479
0.0109673
0.169482
0.00917132
0.167496
0.00718513
0.165502
0.0049417
0.163421
0.00237361
0.161528
-0.000500864
0.159506
-0.00336804
0.157442
-0.00661679
0.15534
-0.010074
0.153221
-0.0136868
0.15111
-0.017387
0.149037
-0.0210829
0.147046
-0.0246751
0.145186
-0.0280632
0.14351
-0.0311593
0.142067
-0.0338928
0.140901
-0.0362286
0.140036
-0.0381641
0.139472
-0.039753
0.139191
-0.0410721
0.139155
-0.0422424
0.139313
-0.0433741
0.139607
-0.044598
0.139967
-0.0459543
0.140338
-0.0474703
0.140687
-0.0490088
0.141022
-0.0504594
0.14137
-0.0515423
0.141771
-0.0521652
0.142258
-0.0520666
0.142857
-0.0513358
0.143576
-0.0497817
0.14442
-0.0476932
0.145384
-0.0448478
0.146465
-0.0417002
0.147647
-0.0379193
0.148924
-0.0341454
0.150275
-0.0298426
0.151692
-0.0258716
0.153148
-0.0214128
0.154631
-0.0176475
0.156116
-0.0134368
0.157598
-0.0102939
0.159061
-0.00663238
0.1605
-0.00444148
0.161918
-0.0015666
0.163319
-0.000461404
0.164708
0.00185385
0.166091
0.00214415
0.167445
0.00407973
0.168801
0.00341013
0.170149
0.00529309
0.171539
0.00425822
0.172959
0.00734302
0.174438
0.00687205
0.0117649
0.195447
0.0167445
-0.196667
0.194706
0.0156527
0.193922
0.0146601
0.193142
0.0133388
0.192376
0.0117327
0.191632
0.00991598
0.190925
0.00789146
0.190242
0.00562541
0.189506
0.00310883
0.188555
0.000450978
0.187757
-0.00257
0.186857
-0.00571771
0.185859
-0.0090757
0.184754
-0.012582
0.183527
-0.0161596
0.182174
-0.0197295
0.180707
-0.0232082
0.179152
-0.0265084
0.177546
-0.0295537
0.175936
-0.0322822
0.174371
-0.0346635
0.172899
-0.0366928
0.17156
-0.0384139
0.170377
-0.0398886
0.169354
-0.0412199
0.168474
-0.0424941
0.167696
-0.04382
0.166963
-0.0452215
0.166215
-0.0467217
0.165397
-0.0481909
0.16448
-0.0495425
0.163461
-0.0505234
0.162364
-0.051068
0.161227
-0.0509302
0.160098
-0.0502068
0.15902
-0.0487036
0.158031
-0.0467039
0.157162
-0.0439788
0.156437
-0.0409755
0.15587
-0.0373519
0.155463
-0.0337389
0.155213
-0.0295926
0.155111
-0.0257695
0.15514
-0.0214418
0.155281
-0.017788
0.155508
-0.0136646
0.155803
-0.0105883
0.156138
-0.00696761
0.156492
-0.00479545
0.156848
-0.00192272
0.157197
-0.000810246
0.157522
0.00152897
0.157827
0.0018386
0.158088
0.00381904
0.158314
0.00318408
0.158497
0.00511008
0.158667
0.00408847
0.158835
0.00717523
0.159019
0.00668803
0.0115357
0.20836
0.0169402
-0.208556
0.208185
0.015828
0.208101
0.0147445
0.207945