/*--------------------------------*- C++ -*----------------------------------*\
| =========                 |                                                 |
| \\      /  F ield         | OpenFOAM: The Open Source CFD Toolbox           |
|  \\    /   O peration     | Version:  2512                                  |
|   \\  /    A nd           | Website:  www.openfoam.com                      |
|    \\/     M anipulation  |                                                 |
\*---------------------------------------------------------------------------*/
FoamFile
{
    version     2.0;
    format      ascii;
    arch        "LSB;label=32;scalar=64";
    class       surfaceScalarField;
    location    "179";
    object      phi;
}
// * * * * * * * * * * * * * * * * * * * * * * * * * * * * * * * * * * * * * //

dimensions      [0 3 -1 0 0 0 0];

oriented        oriented;

internalField   nonuniform List<scalar> 
26232
(
5.78003e-05
0.00106514
-0.00112294
0.00053053
0.00191832
-0.00239105
0.00165126
0.00164664
-0.00276737
0.00362018
0.000278038
-0.00224695
0.00662334
-0.00218869
-0.000814471
0.0108336
-0.0057625
0.00155227
0.0163989
-0.0104409
0.00487558
0.0234207
-0.0161902
0.00916845
0.0319261
-0.0229279
0.0144225
0.0418424
-0.0305124
0.020596
0.0529813
-0.0387425
0.0276036
0.0650393
-0.0473687
0.0353108
0.0776167
-0.0561131
0.0435357
0.0902547
-0.0646957
0.0520577
0.102484
-0.0728614
0.0606324
0.113877
-0.0804055
0.0690121
0.124101
-0.0871919
0.0769677
0.132951
-0.0931627
0.0843126
0.14037
-0.0983348
0.0909157
0.146429
-0.102794
0.0967358
0.151303
-0.106631
0.101757
0.155141
-0.110054
0.106216
0.157885
-0.112757
0.110013
-0.11584
0.114233
0.159492
0.000111516
0.00095362
0.000763305
0.00126653
0.00222173
0.000188217
0.0047217
-0.00222193
0.00847341
-0.0059404
0.0136488
-0.0109379
0.0203551
-0.0171472
0.0286027
-0.0244378
0.0382781
-0.0326034
0.0491329
-0.0413671
0.0607951
-0.0504047
0.0728051
-0.0593787
0.0846688
-0.0679768
0.0959188
-0.0759457
0.106173
-0.0831154
0.115177
-0.0894099
0.122829
-0.094844
0.129172
-0.0995057
0.134367
-0.103529
0.138638
-0.107065
0.142256
-0.110249
0.145407
-0.113205
0.148558
-0.115908
-0.118897
0.151616
0.000200709
0.00075291
0.00111861
0.000348627
0.00303955
-0.00173272
0.00621403
-0.00539641
0.0108453
-0.0105717
0.0170577
-0.0171503
0.0248578
-0.0249474
0.0341039
-0.0336839
0.0444979
-0.0429973
0.0556094
-0.0524786
0.066929
-0.0617243
0.0779392
-0.070389
0.0881874
-0.078225
0.0973445
-0.0851027
0.105238
-0.091009
0.111856
-0.0960279
0.117319
-0.100307
0.121836
-0.104023
0.125649
-0.107342
0.128989
-0.110405
0.132047
-0.113307
0.134971
-0.116129
0.137878
-0.118815
-0.121728
0.140708
0.000317092
0.000435819
0.0015683
-0.00090258
0.00404158
-0.004206
0.00797465
-0.00932949
0.0135204
-0.0161174
0.0206991
-0.024329
0.0293593
-0.0336075
0.0391695
-0.0434941
0.0496528
-0.0534806
0.0602582
-0.063084
0.07045
-0.0719161
0.0797912
-0.0797302
0.0880002
-0.086434
0.0949709
-0.0920734
0.100756
-0.0967941
0.105522
-0.100794
0.109494
-0.104279
0.112902
-0.10743
0.115945
-0.110385
0.118778
-0.113238
0.121516
-0.116046
0.124233
-0.118845
0.127032
-0.121614
-0.124591
0.129896
0.000452931
-1.71125e-05
0.00208236
-0.00253201
0.00515612
-0.00727976
0.00986198
-0.0140354
0.016251
-0.0225064
0.0241844
-0.0322624
0.0333172
-0.0427403
0.0431375
-0.0533144
0.0530555
-0.0633986
0.0625124
-0.0725409
0.0710759
-0.0804796
0.0784949
-0.0871493
0.084708
-0.0926471
0.0898087
-0.0971742
0.0939889
-0.100974
0.0974763
-0.104282
0.100487
-0.10729
0.103197
-0.11014
0.105737
-0.112925
0.108197
-0.115699
0.11064
-0.118489
0.113105
-0.121311
0.115643
-0.124152
-0.127138
0.118189
0.000602204
-0.000619317
0.00263387
-0.00456368
0.00631243
-0.0109583
0.0117313
-0.0194542
0.0187878
-0.0295629
0.0271475
-0.040622
0.0362779
-0.0518708
0.0455508
-0.0625873
0.0543728
-0.0722206
0.0622968
-0.080465
0.0690803
-0.087263
0.0746838
-0.0927528
0.079224
-0.0971873
0.0829058
-0.100856
0.0859575
-0.104026
0.088585
-0.106909
0.0909499
-0.109655
0.0931672
-0.112358
0.0953135
-0.115072
0.097439
-0.117824
0.0995777
-0.120627
0.101753
-0.123486
0.103995
-0.126394
-0.129417
0.106275
0.000761103
-0.00138042
0.00319662
-0.00699919
0.00743776
-0.0151995
0.0134362
-0.0254526
0.0208962
-0.037023
0.029286
-0.0490118
0.0379416
-0.0605264
0.0462204
-0.0708661
0.0536357
-0.0796359
0.0599262
-0.0867554
0.0650515
-0.0923883
0.0691357
-0.096837
0.0723902
-0.100442
0.0750441
-0.10351
0.077299
-0.106281
0.079309
-0.108919
0.0811803
-0.111526
0.0829814
-0.114159
0.0847551
-0.116845
0.0865291
-0.119598
0.0883227
-0.122421
0.0901499
-0.125313
0.0920278
-0.128272
-0.13132
0.0939303
0.000923267
-0.00230369
0.00374012
-0.00981604
0.00845404
-0.0199134
0.0148342
-0.0318328
0.0223795
-0.0445683
0.0304026
-0.0570349
0.0381992
-0.068323
0.045215
-0.0778819
0.0511384
-0.0855593
0.0559026
-0.0915196
0.0596236
-0.0961093
0.0625135
-0.099727
0.0648048
-0.102733
0.0667002
-0.105405
0.0683528
-0.107933
0.069866
-0.110432
0.0713046
-0.112965
0.0727077
-0.115562
0.0740998
-0.118237
0.0754975
-0.120996
0.0769133
-0.123837
0.0783581
-0.126758
0.0798431
-0.129757
-0.132833
0.0813564
0.00108061
-0.0033843
0.00422924
-0.0129647
0.00928207
-0.0249662
0.0158026
-0.0383534
0.0231074
-0.051873
0.0304294
-0.0643569
0.0371203
-0.0750139
0.0427824
-0.0835441
0.0472919
-0.0900688
0.0507375
-0.0949652
0.0533253
-0.098697
0.0552915
-0.101693
0.0568457
-0.104287
0.0581458
-0.106706
0.0592975
-0.109085
0.0603658
-0.1115
0.0613885
-0.113987
0.0623883
-0.116562
0.0633797
-0.119229
0.0643739
-0.12199
0.0653796
-0.124842
0.0664049
-0.127783
0.0674564
-0.130809
-0.133906
0.0685291
0.00122299
-0.00460728
0.00462711
-0.0163688
0.00985151
-0.0301906
0.0162568
-0.0447586
0.0230325
-0.0586487
0.0294196
-0.070744
0.0348972
-0.0804915
0.0392467
-0.0878935
0.0425031
-0.0933252
0.0448539
-0.097316
0.0465377
-0.100381
0.0477746
-0.10293
0.048733
-0.105246
0.0495261
-0.107499
0.0502227
-0.109782
0.0508617
-0.11214
0.0514655
-0.114591
0.0520478
-0.117144
0.0526183
-0.119799
0.0531852
-0.122557
0.0537552
-0.125412
0.0543348
-0.128363
0.0549289
-0.131403
-0.134516
0.0555392
0.00134003
-0.00594732
0.00490142
-0.0199302
0.0101128
-0.0354019
0.0161622
-0.0508081
0.0221865
-0.0646731
0.0275105
-0.076068
0.031776
-0.0847571
0.0349279
-0.0910454
0.0371133
-0.0955107
0.0385658
-0.0987685
0.0395173
-0.101332
0.0401521
-0.103565
0.0405962
-0.10569
0.040926
-0.107829
0.0411845
-0.11004
0.041395
-0.11235
0.0415711
-0.114767
0.0417218
-0.117295
0.0418545
-0.119932
0.0419752
-0.122677
0.0420894
-0.125527
0.0422013
-0.128475
0.0423134
-0.131515
-0.134632
0.0424297
0.00142565
-0.00737297
0.00503254
-0.0235371
0.0100455
-0.0404149
0.015535
-0.0562977
0.020662
-0.0698001
0.0248849
-0.0802909
0.0280094
-0.0878815
0.0301074
-0.0931434
0.0313902
-0.0967935
0.0320982
-0.0994765
0.0324351
-0.101669
0.0325453
-0.103675
0.032518
-0.105662
0.0324031
-0.107714
0.0322268
-0.109864
0.0320033
-0.112126
0.0317412
-0.114505
0.0314473
-0.117001
0.0311272
-0.119612
0.0307863
-0.122336
0.0304293
-0.12517
0.03006
-0.128105
0.0296794
-0.131134
0.0292938
-0.134247
-0.00012632
0.00297057
-0.00284425
-0.000512284
0.00738126
-0.0069953
-0.0011589
0.0106843
-0.0100377
-0.00204827
0.0130621
-0.0121727
-0.00314847
0.0146994
-0.0135992
-0.00442086
0.0157804
-0.014508
-0.00582607
0.0164669
-0.0150617
-0.00732753
0.0168819
-0.0153804
-0.00889267
0.0171022
-0.0155371
-0.0104924
0.0171601
-0.0155603
-0.0120999
0.0170499
-0.0154425
-0.0136883
0.0167376
-0.0151492
-0.0152297
0.0161701
-0.0146287
-0.0166935
0.0152828
-0.013819
-0.0180457
0.0140049
-0.0126528
-0.0192484
0.012264
-0.0110612
-0.0202606
0.00998936
-0.00897719
-0.0210383
0.00711431
-0.00633662
-0.0215513
0.00358055
-0.00306751
-0.0217177
-0.00061566
0.000782019
-0.0214918
-0.00550413
0.00527822
-0.0208398
-0.0110699
0.010418
-0.0197518
-0.0172333
0.0161452
-0.0238347
-0.0182603
0.0223433
-1.27445e-05
0.00298332
-0.000139875
0.00750839
-0.000432245
0.0109767
-0.000904463
0.0135343
-0.00154332
0.0153382
-0.00231724
0.0165543
-0.00318501
0.0173346
-0.00410242
0.0177993
-0.00502656
0.0180264
-0.00591771
0.0180513
-0.00673967
0.0178719
-0.0074589
0.0174569
-0.00804335
0.0167546
-0.00846212
0.0157016
-0.00868376
0.0142266
-0.00867521
0.0122555
-0.00840335
0.0097175
-0.00783532
0.00654628
-0.00692835
0.00267359
-0.00565508
-0.00188893
-0.00395627
-0.00720294
-0.00179234
-0.0132339
0.00087318
-0.0198988
-0.0269757
0.00401419
9.79011e-05
0.00288542
0.000233675
0.00737262
0.000316218
0.0108942
0.000302619
0.0135479
0.000187945
0.0154529
-4.72674e-06
0.016747
-0.000234536
0.0175645
-0.000451729
0.0180165
-0.000604328
0.018179
-0.000642412
0.0180894
-0.000520221
0.0177497
-0.000196734
0.0171334
0.000364753
0.0161931
0.00119917
0.0148672
0.00233815
0.0130876
0.00380954
0.0107841
0.00564117
0.00788588
0.00785925
0.0043282
0.0104758
5.70049e-05
0.0135466
-0.00495972
0.0170856
-0.0107419
0.0211187
-0.017267
0.0256582
-0.0244384
-0.0321306
0.0308131
0.000192406
0.00269301
0.000567682
0.00699734
0.00100889
0.0104529
0.00145291
0.0131039
0.00187931
0.0150265
0.00230141
0.0163249
0.00275634
0.0171095
0.00329544
0.0174774
0.00397597
0.0174984
0.00485518
0.0172101
0.00598658
0.0166183
0.00741822
0.0157017
0.00919251
0.0144188
0.0113459
0.0127137
0.013911
0.0105225
0.0169178
0.00777729
0.0203937
0.00440995
0.0243604
0.000361489
0.0288486
-0.00443119
0.0338813
-0.00999238
0.0394731
-0.0163338
0.0456379
-0.0234318
0.052346
-0.0311464
-0.0394908
0.0597063
0.000260205
0.00243281
0.000825149
0.0064324
0.0015708
0.0097073
0.00242495
0.0122497
0.0033568
0.0140947
0.00437034
0.0153113
0.00549624
0.0159836
0.00678289
0.0161907
0.00828798
0.0159933
0.0100718
0.0154263
0.0121925
0.0144976
0.0147036
0.0131905
0.0176535
0.011469
0.0210849
0.00928229
0.0250369
0.00657055
0.0295471
0.00326707
0.0346514
-0.000694285
0.0403891
-0.00537623
0.0467837
-0.0108258
0.053862
-0.0170707
0.0616272
-0.0240989
0.0700648
-0.0318694
0.0790838
-0.0401655
-0.0491958
0.0887888
0.000294333
0.00213847
0.000979444
0.00574729
0.00194376
0.00874298
0.00311886
0.0110746
0.00447111
0.0127424
0.00599812
0.0137843
0.00772356
0.0142582
0.00969016
0.0142241
0.0119525
0.013731
0.0145709
0.0128079
0.0176067
0.0114618
0.0211198
0.00967748
0.0251677
0.00742111
0.0298064
0.00464354
0.0350831
0.00129385
0.0410652
-0.00271505
0.0477967
-0.00742579
0.0553217
-0.0129012
0.0636712
-0.0191754
0.0728493
-0.0262488
0.0828242
-0.0340738
0.093503
-0.0425482
0.104715
-0.0513779
-0.0609125
0.116432
0.000292677
0.0018458
0.00101952
0.00502045
0.002099
0.00766349
0.00347911
0.00969451
0.00513229
0.0110892
0.00705547
0.0118611
0.00926827
0.0120454
0.011809
0.0116834
0.0147301
0.01081
0.0180929
0.00944509
0.021965
0.00758972
0.0264171
0.00522535
0.0315222
0.00231601
0.0373557
-0.00118995
0.0440005
-0.00535093
0.0515132
-0.0102277
0.0599575
-0.0158701
0.0693651
-0.0223088
0.07973
-0.0295402
0.0909846
-0.0375034
0.10301
-0.0460991
0.115567
-0.0551057
0.128425
-0.0642351
-0.0737207
0.141233
0.000258548
0.00158725
0.00095336
0.00432563
0.00204673
0.00657012
0.00351375
0.00822749
0.00534234
0.00926065
0.00753695
0.00966652
0.0101205
0.00946181
0.013134
0.00866988
0.0166344
0.00730954
0.0206923
0.00538725
0.0253897
0.00289229
0.0308139
-0.000198827
0.0370648
-0.00393495
0.0442321
-0.00835719
0.0523982
-0.013517
0.0616214
-0.019451
0.0719224
-0.0261711
0.0832633
-0.0336497
0.0955338
-0.0418107
0.108532
-0.0505013
0.121993
-0.0595606
0.135518
-0.0686304
0.14885
-0.077567
-0.0861558
0.161285
0.000201016
0.00138623
0.000809835
0.00371682
0.00184159
0.00553836
0.0033069
0.00676219
0.00521858
0.00734897
0.00759937
0.00728573
0.0104873
0.0065739
0.0139383
0.00521887
0.0180267
0.00322114
0.022841
0.000572894
0.0284866
-0.00275327
0.0350712
-0.0067834
0.0426915
-0.0115553
0.0514305
-0.0170962
0.06133
-0.0234165
0.0723745
-0.0304955
0.0844731
-0.0382697
0.0974464
-0.046623
0.111023
-0.055387
0.124848
-0.064327
0.138512
-0.073224
0.151554
-0.0816729
0.163711
-0.0897233
-0.0966617
0.174217
0.000134761
0.00125147
0.000637627
0.00321395
0.00158086
0.00459513
0.003017
0.00532605
0.00499343
0.00537255
0.00756345
0.00471571
0.010794
0.00334338
0.014769
0.0012438
0.0195891
-0.0015989
0.025367
-0.00520498
0.0322107
-0.00959702
0.0402172
-0.0147899
0.0494449
-0.0207829
0.0598964
-0.0275477
0.0714976
-0.0350177
0.0840837
-0.0430816
0.0973941
-0.0515801
0.111082
-0.0603113
0.124735
-0.0690392
0.137921
-0.077513
0.150197
-0.0855006
0.161245
-0.0927211
0.170799
-0.0992769
-0.104369
0.178506
7.83495e-05
0.00117312
0.000498418
0.00279388
0.00138934
0.0037042
0.00285029
0.0038651
0.00497173
0.00325111
0.00784794
0.00183949
0.0115836
-0.00039224
0.0162941
-0.00346671
0.0220978
-0.00740259
0.029102
-0.0122093
0.0373821
-0.0178771
0.0469592
-0.024367
0.0577776
-0.0316014
0.0696889
-0.039459
0.0824453
-0.0477741
0.0957063
-0.0563427
0.10906
-0.0649341
0.12206
-0.0733112
0.134267
-0.0812457
0.145318
-0.0885643
0.154934
-0.0951166
0.163111
-0.100898
0.16971
-0.105876
-0.109697
0.175038
5.01853e-05
0.000453016
0.00138985
0.00300799
0.00544463
0.00883639
0.0133197
0.0190215
0.0260414
0.0344282
0.0441547
0.0550985
0.0670329
0.0796316
0.0924899
0.105159
0.117193
0.128194
0.137864
0.146036
0.152676
0.157994
0.162131
0.166667
-0.0161645
-0.0423318
0.0402359
-0.0139145
-0.05517
0.05292
-0.0116506
-0.0684386
0.0661747
-0.00949807
-0.0814758
0.0793233
-0.00751025
-0.0936969
0.091709
-0.00554091
-0.104553
0.102584
-0.00315606
-0.113459
0.111075
0.000318044
-0.119507
0.116033
0.00595349
-0.121578
0.115943
0.0141539
-0.117705
0.109505
0.0250861
-0.106457
0.0955244
0.0381597
-0.0868071
0.0737335
0.0524223
-0.0588721
0.0446095
0.0670965
-0.0239738
0.00929968
0.0815675
0.0157988
-0.0302698
0.0954149
0.0572834
-0.0711308
0.107836
0.0956756
-0.108097
0.117838
0.126396
-0.136398
0.124776
0.147184
-0.154121
0.128746
0.158523
-0.162493
0.130079
0.163005
-0.164338
0.128574
0.165515
-0.16401
0.124057
0.171419
-0.166902
0.117909
0.18037
-0.174223
0.113345
0.1816
-0.177036
0.113342
0.159159
-0.159156
0.118561
0.10523
-0.110449
0.12764
0.0277123
-0.0367914
0.137931
-0.0532669
0.0429756
0.147015
-0.120053
0.11097
0.153257
-0.16375
0.157508
0.156551
-0.186567
0.183274
0.157338
-0.194012
0.193224
0.155025
-0.196462
0.198775
0.148858
-0.204241
0.210408
0.140247
-0.215543
0.224154
0.132959
-0.210382
0.21767
0.130349
-0.163561
0.166171
0.133284
-0.0792785
0.0763432
0.139965
0.0239268
-0.0306078
0.147955
0.10904
-0.11703
0.154242
0.172322
-0.17861
0.155887
0.209893
-0.211538
0.151713
0.242731
-0.238557
0.144063
0.265115
-0.257464
0.137752
0.246115
-0.239805
0.136704
0.182692
-0.181643
0.141005
0.0523092
-0.0566104
0.14759
-0.0500349
0.0434498
0.151031
-0.156638
0.153197
0.148995
-0.212813
0.21485
0.14396
-0.26126
0.266295
0.141042
-0.286833
0.289751
0.141973
-0.187957
0.187026
0.144642
-0.131238
0.128569
0.14502
0.0730193
-0.0733973
0.143635
0.170864
-0.169479
0.142062
0.265973
-0.2644
0.140571
0.358875
-0.357384
0.110777
-0.109044
0.00584778
-0.0441654
0.00720322
-0.0565255
0.00826327
-0.0694987
0.00876512
-0.0819777
0.00846845
-0.0934002
0.00732854
-0.103413
0.00555949
-0.11169
0.00397989
-0.117927
0.00374235
-0.121341
0.006477
-0.12044
0.0129381
-0.112918
0.0232098
-0.0970788
0.0364928
-0.0721552
0.0516704
-0.0391514
0.0677391
-0.000269936
0.0837491
0.0412734
0.0987226
0.0807021
0.111471
0.113647
0.121168
0.137487
0.127638
0.152052
0.130902
0.159742
0.130803
0.165614
0.127713
0.174509
0.123504
0.184579
0.121084
0.18402
0.122503
0.157739
0.127768
0.0999655
0.13565
0.0198303
0.143967
-0.0615833
0.150876
-0.126963
0.155038
-0.167911
0.156471
-0.188001
0.155848
-0.193389
0.152695
-0.193309
0.145978
-0.197524
0.13673
-0.206295
0.128825
-0.202476
0.126079
-0.160816
0.129626
-0.082825
0.137579
0.0159736
0.147049
0.0995699
0.154579
0.164793
0.157062
0.20741
0.153572
0.246221
0.146479
0.272209
0.140403
0.252191
0.138904
0.18419
0.142349
0.0488644
0.148236
-0.0559217
0.151294
-0.159696
0.149084
-0.210604
0.143826
-0.256002
0.140917
-0.283924
0.141774
-0.188814
0.144302
-0.133766
0.144647
0.0726743
0.143265
0.172245
0.141829
0.26741
0.140465
0.360238
0.112435
0.0317175
-0.0450698
0.0324661
-0.057274
0.0327304
-0.069763
0.0322749
-0.0815221
0.0307939
-0.0919192
0.0279599
-0.100579
0.0236238
-0.107354
0.0180957
-0.112399
0.0125107
-0.115755
0.00869522
-0.116624
0.0088141
-0.113037
0.0140451
-0.10231
0.0243148
-0.0824249
0.0384219
-0.0532585
0.0550516
-0.0168997
0.0725947
0.0237304
0.0896849
0.0636119
0.104945
0.0983869
0.117327
0.125105
0.126301
0.143078
0.131599
0.154444
0.133211
0.164002
0.131992
0.175728
0.130019
0.186552
0.129705
0.184334
0.132212
0.155232
0.137144
0.095033
0.143544
0.0134308
0.14969
-0.0677299
0.154334
-0.131607
0.156455
-0.170032
0.156146
-0.187691
0.154235
-0.191477
0.150427
-0.189501
0.143448
-0.190545
0.133815
-0.196663
0.125326
-0.193987
0.122282
-0.157772
0.126218
-0.0867606
0.135242
0.00694884
0.146058
0.0887539
0.154815
0.156036
0.158253
0.203971
0.155639
0.248836
0.14925
0.278597
0.143437
0.258004
0.141428
0.186199
0.143881
0.0464118
0.148966
-0.0610071
0.151631
-0.16236
0.149275
-0.208248
0.143773
-0.2505
0.140812
-0.280963
0.14162
-0.189622
0.144074
-0.136219
0.144417
0.0723306
0.143019
0.173644
0.141712
0.268716
0.140513
0.361437
0.113984
0.0598658
-0.0452293
0.0598994
-0.0573076
0.0594415
-0.0693052
0.0581502
-0.0802308
0.0558294
-0.0895983
0.0522037
-0.0969538
0.046909
-0.10206
0.0396812
-0.105172
0.030848
-0.106922
0.0218264
-0.107603
0.0151258
-0.106336
0.0133887
-0.100573
0.0181387
-0.0871749
0.0290337
-0.0641535
0.0443855
-0.0322514
0.0624495
0.00566627
0.0809631
0.0450984
0.0983066
0.0810434
0.113113
0.110299
0.124458
0.131733
0.131853
0.147048
0.135457
0.160399
0.136461
0.174724
0.136921
0.186091
0.138605
0.18265
0.141943
0.151894
0.146279
0.090697
0.150969
0.00874073
0.154964
-0.071725
0.157358
-0.134
0.157514
-0.170189
0.155595
-0.185772
0.152499
-0.188381
0.148153
-0.185154
0.141163
-0.183556
0.131455
-0.186954
0.122494
-0.185027
0.118986
-0.154263
0.123035
-0.0908096
0.132902
-0.00291891
0.144915
0.0767411
0.154888
0.146064
0.15941
0.19945
0.157857
0.250388
0.15231
0.284144
0.146805
0.263509
0.144235
0.18877
0.145583
0.0450636
0.149765
-0.0651884
0.152016
-0.164612
0.149545
-0.205777
0.143777
-0.244731
0.140695
-0.277881
0.141483
-0.19041
0.143938
-0.138674
0.144321
0.0719468
0.142891
0.175075
0.141712
0.269895
0.140723
0.362426
0.11539
0.0884224
-0.0448629
0.0876024
-0.0564876
0.0860474
-0.0677502
0.0835675
-0.0777509
0.0801523
-0.0861832
0.0757591
-0.0925606
0.0701817
-0.0964822
0.0630029
-0.0979928
0.0537793
-0.0976986
0.0427209
-0.0965443
0.0314307
-0.0950457
0.0229109
-0.092053
0.020303
-0.084567
0.0252557
-0.0691062
0.0370711
-0.0440668
0.0538752
-0.0111378
0.0727299
0.0262436
0.091467
0.0623062
0.10822
0.0935463
0.121666
0.118287
0.131157
0.137557
0.136973
0.154582
0.14047
0.171228
0.143482
0.183078
0.147106
0.179027
0.151066
0.147934
0.154735
0.0870279
0.157751
0.00572442
0.159665
-0.0736384
0.159867
-0.134203
0.158144
-0.168466
0.154773
-0.182401
0.150624
-0.184232
0.145839
-0.18037
0.139041
-0.176758
0.129566
-0.177479
0.120324
-0.175785
0.116243
-0.150182
0.120113
-0.09468
0.1305
-0.0133055
0.143542
0.0636987
0.154714
0.134892
0.160449
0.193715
0.160135
0.250702
0.155561
0.288718
0.150404
0.268665
0.14727
0.191904
0.147419
0.0449149
0.150608
-0.0683777
0.15242
-0.166424
0.149867
-0.203223
0.143821
-0.238686
0.140541
-0.274602
0.141333
-0.191201
0.14387
-0.141211
0.144345
0.0714715
0.142874
0.176545
0.141826
0.270943
0.141096
0.363157
0.116617
0.115408
-0.043839
0.11364
-0.0547195
0.110865
-0.0649756
0.107025
-0.0739107
0.102275
-0.0814332
0.0967609
-0.0870464
0.0905595
-0.0902808
0.0835847
-0.091018
0.0753973
-0.0895111
0.0653478
-0.0864948
0.0533942
-0.0830922
0.041182
-0.0798408
0.0320323
-0.0754173
0.0294392
-0.0665131
0.0350471
-0.0496747
0.0477947
-0.0238855
0.0652554
0.00878295
0.084243
0.0433186
0.102238
0.0755515
0.117449
0.103075
0.12901
0.125996
0.137205
0.146387
0.143358
0.165074
0.148959
0.177478
0.154432
0.173554
0.159039
0.143327
0.162078
0.0839885
0.163729
0.00407342
0.163652
-0.0735615
0.161768
-0.132319
0.158286
-0.164984
0.153633
-0.177748
0.148577
-0.179175
0.143424
-0.175217
0.136957
-0.170291
0.128006
-0.168528
0.118743
-0.166521
0.11406
-0.1455
0.117464
-0.0980838
0.127987
-0.0238285
0.141851
0.0498344
0.154189
0.122554
0.161259
0.186645
0.162348
0.249613
0.158865
0.292201
0.154122
0.273409
0.150439
0.195587
0.149347
0.0460065
0.151467
-0.0704977
0.152806
-0.167763
0.15021
-0.200627
0.14389
-0.232366
0.140332
-0.271044
0.14114
-0.19201
0.143842
-0.143913
0.144471
0.0708423
0.142962
0.178054
0.142053
0.271853
0.141636
0.363573
0.117625
0.13922
-0.0418258
0.136271
-0.0517706
0.132116
-0.060821
0.126841
-0.0686352
0.120739
-0.0753314
0.114051
-0.0803587
0.106993
-0.0832221
0.0997497
-0.0837751
0.0922973
-0.0820588
0.0841538
-0.0783513
0.07447
-0.0734083
0.0629566
-0.0683274
0.0511323
-0.0635929
0.0424258
-0.0578066
0.0404311
-0.04768
0.0466285
-0.0300828
0.0599287
-0.00451728
0.0771766
0.0260707
0.0952267
0.0575014
0.111649
0.0866536
0.125149
0.112496
0.13579
0.135747
0.14466
0.156204
0.152794
0.169344
0.160018
0.16633
0.165271
0.138074
0.16804
0.0812201
0.168497
0.00361589
0.166754
-0.0718188
0.162975
-0.128539
0.15788
-0.15989
0.152124
-0.171992
0.146321
-0.173373
0.140856
-0.169751
0.134787
-0.164223
0.126595
-0.160336
0.117608
-0.157534
0.112394
-0.140285
0.115038
-0.100728
0.125365
-0.034155
0.139757
0.0354423
0.153202
0.109109
0.16171
0.178137
0.164354
0.246969
0.162073
0.294482
0.157817
0.277665
0.153631
0.199773
0.151315
0.0483226
0.152305
-0.0714881
0.153133
-0.16859
0.15054
-0.198034
0.143969
-0.225795
0.140055
-0.267129
0.140879
-0.192834
0.143823
-0.146857
0.144681
0.0699843
0.143147
0.179589
0.142388
0.272611
0.142344
0.363617
0.118377
0.157993
-0.0385342
0.153676
-0.0474535
0.148082
-0.0552265
0.141452
-0.0620055
0.134162
-0.0680409
0.126493
-0.0726897
0.118732
-0.0754614
0.111161
-0.0762046
0.103965
-0.0748626
0.0970851
-0.0714712
0.0899812
-0.0663044
0.081686
-0.0600323
0.0717101
-0.053617
0.0613626
-0.0474591
0.0539086
-0.0402261
0.0527907
-0.0289649
0.0594153
-0.0111418
0.0722974
0.0131886
0.0884664
0.0413324
0.104969
0.0701507
0.119882
0.097583
0.132751
0.122878
0.144202
0.144753
0.154723
0.158823
0.163603
0.15745
0.169592
0.132084
0.172322
0.0784903
0.171955
0.00398291
0.168839
-0.0687023
0.1634
-0.123101
0.156867
-0.153356
0.150182
-0.165307
0.143807
-0.166997
0.138083
-0.164027
0.132415
-0.158555
0.125135
-0.153055
0.11672
-0.149119
0.111135
-0.134701
0.112845
-0.102438
0.122593
-0.0439029
0.137193
0.0208416
0.151645
0.0946573
0.161662
0.168119
0.165982
0.242649
0.165019
0.295445
0.161338
0.281346
0.156708
0.204403
0.15327
0.051761
0.153082
-0.0713006
0.15336
-0.168867
0.150818
-0.195492
0.144042
-0.21902
0.139703
-0.26279
0.140524
-0.193655
0.143781
-0.150114
0.144956
0.0688093
0.143419
0.181126
0.142829
0.273202
0.14322
0.363226
0.118831
0.169775
-0.0340924
0.164253
-0.0419318
0.157508
-0.0484818
0.14994
-0.0544377
0.141903
-0.0600037
0.133654
-0.0644408
0.125519
-0.0673257
0.117826
-0.0685116
0.110822
-0.0678593
0.10464
-0.0652886
0.099174
-0.0608387
0.0938408
-0.0546991
0.0876274
-0.0474037
0.0799429
-0.0397745
0.0718337
-0.0321169
0.0661646
-0.0232958
0.0660617
-0.0110389
0.0725879
0.00666242
0.08452
0.0294003
0.0992441
0.0554266
0.114368
0.0824592
0.128736
0.10851
0.142283
0.131206
0.154837
0.146269
0.165188
0.147099
0.171997
0.125276
0.174942
0.0755448
0.174055
0.00487011
0.169815
-0.0644623
0.162941
-0.116227
0.15515
-0.145565
0.147706
-0.157863
0.140936
-0.160227
0.13502
-0.158111
0.129716
-0.153251
0.123421
-0.14676
0.115833
-0.141532
0.110117
-0.128984
0.110837
-0.103158
0.119665
-0.0527305
0.134122
0.00638411
0.149423
0.0793565
0.160984
0.156559
0.167099
0.236534
0.167554
0.294991
0.164529
0.28437
0.15959
0.209342
0.15511
0.0562416
0.153755
-0.0699457
0.153439
-0.168551
0.150998
-0.193051
0.144088
-0.212111
0.139276
-0.257978
0.140059
-0.194439
0.143683
-0.153738
0.145275
0.0672169
0.143772
0.182629
0.143372
0.273601
0.144264
0.362334
0.118944
0.173558
-0.0291444
0.167413
-0.035786
0.16016
-0.0412288
0.15233
-0.0466085
0.144171
-0.0518442
0.135893
-0.0561631
0.127825
-0.0592575
0.120294
-0.060981
0.113576
-0.0611413
0.107888
-0.0596002
0.103331
-0.0562821
0.0997455
-0.0511131
0.0965537
-0.0442119
0.0928078
-0.0360287
0.087838
-0.027147
0.0823782
-0.0178361
0.0787983
-0.00745897
0.0796121
0.00584863
0.0859468
0.0230657
0.0968746
0.0444987
0.110402
0.0689317
0.12493
0.0939814
0.139634
0.116502
0.153599
0.132304
0.165115
0.135584
0.172717
0.117673
0.176038
0.072224
0.174943
0.00596469
0.169665
-0.0591841
0.161523
-0.108085
0.152656
-0.136698
0.144602
-0.149809
0.137613
-0.153238
0.1316
-0.152098
0.126601
-0.148253
0.12129
-0.141449
0.11473
-0.134972
0.109133
-0.123387
0.108918
-0.102943
0.116589
-0.0604009
0.130541
-0.00756786
0.146477
0.06342
0.159549
0.143487
0.167504
0.228578
0.169468
0.293027
0.167228
0.28661
0.16213
0.21444
0.1568
0.0615715
0.154288
-0.0674342
0.153338
-0.167601
0.151036
-0.190749
0.144094
-0.205169
0.138789
-0.252673
0.139481
-0.19513
0.143493
-0.15775
0.145619
0.0650912
0.144196
0.184052
0.144015
0.273782
0.145476
0.360873
0.118675
0.170367
-0.0244732
0.164278
-0.029697
0.15723
-0.034181
0.149772
-0.0391503
0.14201
-0.0440827
0.13416
-0.0483131
0.126534
-0.0516316
0.119431
-0.0538779
0.113142
-0.0548524
0.107938
-0.0543958
0.10397
-0.0523141
0.101258
-0.0484015
0.0996052
-0.0425588
0.0984804
-0.0349039
0.0971176
-0.0257843
0.0950194
-0.0157378
0.0928081
-0.00524773
0.0914352
0.00722155
0.0933356
0.0211653
0.0996905
0.0381438
0.109903
0.0587193
0.122795
0.0810887
0.137195
0.102102
0.151525
0.117974
0.16362
0.123488
0.172018
0.109275
0.176129
0.0681129
0.174745
0.00734876
0.168667
-0.0531056
0.159438
-0.0988558
0.149701
-0.126961
0.14117
-0.141278
0.134078
-0.146147
0.128036
-0.146056
0.123224
-0.143441
0.118777
-0.137002
0.113346
-0.12954
0.108083
-0.118124
0.10703
-0.101891
0.113358
-0.0667282
0.126467
-0.0206767
0.142743
0.0471435
0.157301
0.128929
0.167224
0.218655
0.170758
0.289493
0.169327
0.288041
0.164296
0.219472
0.158305
0.0675625
0.154703
-0.0638329
0.153082
-0.165979
0.150925
-0.188591
0.144062
-0.198307
0.138284
-0.246895
0.138811
-0.195657
0.143185
-0.162124
0.145963
0.0623128
0.144682
0.185334
0.144756
0.273707
0.146855
0.358774
0.11798
0.16281
-0.0206165
0.157193
-0.02408
0.151107
-0.0280944
0.1446
-0.0326432
0.137768
-0.0372507
0.130913
-0.0414584
0.124289
-0.0450079
0.118121
-0.0477093
0.112625
-0.0493567
0.107976
-0.0497469
0.104332
-0.0486706
0.101855
-0.0459237
0.100641
-0.0413446
0.100595
-0.0348586
0.10131
-0.026499
0.102083
-0.0165105
0.102157
-0.00532225
0.102436
0.00694291
0.103715
0.0198857
0.107354
0.034505
0.114218
0.0518556
0.124223
0.0710841
0.136643
0.0896823
0.14996
0.104657
0.162095
0.111353
0.17132
0.100051
0.175826
0.063606
0.174455
0.00871979
0.166955
-0.045605
0.156794
-0.0886949
0.146553
-0.11672
0.137773
-0.132498
0.130674
-0.139048
0.124644
-0.140025
0.119862
-0.138659
0.116039
-0.133179
0.111721
-0.125222
0.106953
-0.113356
0.105198
-0.100135
0.110195
-0.0717256
0.122081
-0.0325622
0.138301
0.0309233
0.153941
0.11329
0.165742
0.206853
0.171007
0.284228
0.170633
0.288415
0.165866
0.224239
0.159584
0.0738446
0.154949
-0.0591976
0.152686
-0.163717
0.150669
-0.186574
0.143986
-0.191624
0.137783
-0.240692
0.138077
-0.19595
0.142775
-0.166822
0.146298
0.0587895
0.145219
0.186413
0.145589
0.273337
0.148396
0.355967
0.116808
0.201181
-0.0168644
-0.204933
0.1983
-0.0211982
0.195112
-0.0249066
0.191341
-0.0288727
0.186961
-0.0328709
0.182069
-0.0365659
0.176769
-0.0397075
0.171145
-0.042086
0.165298
-0.0435099
0.159344
-0.0437928
0.153417
-0.0427433
0.147667
-0.0401743
0.142244
-0.0359211
0.137265
-0.0298795
0.132755
-0.0219893
0.128533
-0.0122887
0.124371
-0.0011601
0.11984
0.0114743
0.115391
0.0243341
0.111943
0.0379537
0.110885
0.0529132
0.113451
0.0685178
0.120172
0.0829618
0.130899
0.0939299
0.145675
0.0965768
0.163815
0.0819113
0.181163
0.0462581
0.192171
-0.00228788
0.195624
-0.049058
0.192607
-0.085678
0.185704
-0.109817
0.177197
-0.123992
0.168537
-0.130388
0.159998
-0.131487
0.152011
-0.130672
0.144844
-0.126012
0.13735
-0.117728
0.1288
-0.104806
0.121458
-0.0927928
0.119094
-0.0693622
0.122575
-0.0360423
0.129269
0.0242287
0.135543
0.107016
0.140086
0.20231
0.143647
0.280667
0.148459
0.283602
0.15416
0.218537
0.158261
0.0697437
0.159928
-0.0608644
0.159133
-0.162921
0.155763
-0.183204
0.148339
-0.1842
0.139834
-0.232187
0.136225
-0.192342
0.135556
-0.166153
0.134487
0.0598591
0.131696
0.189204
0.131576
0.273457
0.135649
0.351894
0.115363
0.209986
-0.0140288
-0.212821
0.206919
-0.0181312
0.203808
-0.0217956
0.200231
-0.0252961
0.196102
-0.0287421
0.191499
-0.0319625
0.186512
-0.0347201
0.181228
-0.0368023
0.175748
-0.0380299
0.170191
-0.0382355
0.164694
-0.0372461
0.159408
-0.034889
0.154491
-0.0310041
0.15009
-0.0254779
0.146331
-0.0182311
0.143242
-0.00919883
0.140532
0.00154911
0.138229
0.0137775
0.136031
0.0265325
0.134381
0.0396031
0.134385
0.0529092
0.137336
0.0655675
0.144036
0.0762618
0.154796
0.0831698
0.169562
0.0818104
0.186396
0.0650778
0.200848
0.0318056
0.20876
-0.0101997
0.209506
-0.0498034
0.204709
-0.0808814
0.196702
-0.101809
0.187524
-0.114815
0.178515
-0.121379
0.16981
-0.122781
0.161563
-0.122425
0.154218
-0.118667
0.147004
-0.110515
0.138763
-0.0965647
0.131081
-0.0851112
0.127785
-0.0660661
0.130489
-0.0387468
0.13721
0.0175075
0.144088
0.100138
0.149564
0.196834
0.154218
0.276014
0.160254
0.277567
0.166863
0.211928
0.17129
0.0653164
0.172478
-0.062053
0.170783
-0.161226
0.166765
-0.179187
0.158681
-0.176115
0.149321
-0.222827
0.144989
-0.18801
0.144316
-0.16548
0.14341
0.0607644
0.140422
0.192192
0.140471
0.273408
0.145335
0.347031
0.113662
0.218645
-0.0118335
-0.22084
0.215876
-0.0153626
0.212829
-0.0187483
0.209433
-0.0219
0.205581
-0.024891
0.201288
-0.027669
0.196628
-0.0300598
0.191692
-0.0318662
0.186578
-0.0329167
0.181402
-0.0330594
0.176298
-0.0321423
0.171421
-0.0300118
0.166936
-0.0265192
0.163003
-0.0215443
0.159774
-0.0150018
0.157412
-0.00683686
0.155933
0.00302737