/*--------------------------------*- C++ -*----------------------------------*\
| =========                 |                                                 |
| \\      /  F ield         | OpenFOAM: The Open Source CFD Toolbox           |
|  \\    /   O peration     | Version:  2512                                  |
|   \\  /    A nd           | Website:  www.openfoam.com                      |
|    \\/     M anipulation  |                                                 |
\*---------------------------------------------------------------------------*/
FoamFile
{
    version     2.0;
    format      ascii;
    arch        "LSB;label=32;scalar=64";
    class       volScalarField;
    location    "196";
    object      p;
}
// * * * * * * * * * * * * * * * * * * * * * * * * * * * * * * * * * * * * * //

dimensions      [0 2 -2 0 0 0 0];

internalField   nonuniform List<scalar> 
13248
(
-0.315071
-0.314443
-0.313006
-0.310882
-0.308128
-0.304709
-0.300563
-0.295626
-0.289856
-0.283252
-0.275857
-0.267769
-0.259133
-0.250134
-0.240977
-0.231866
-0.222988
-0.214493
-0.206486
-0.19904
-0.192131
-0.18585
-0.179796
-0.174395
-0.322926
-0.321257
-0.318967
-0.316126
-0.312742
-0.308783
-0.304177
-0.298841
-0.292709
-0.285759
-0.278022
-0.269587
-0.260596
-0.25123
-0.241682
-0.232144
-0.222779
-0.213715
-0.205041
-0.196802
-0.188989
-0.181592
-0.17443
-0.167758
-0.332038
-0.329218
-0.325956
-0.322282
-0.318152
-0.313534
-0.308342
-0.302458
-0.295785
-0.288275
-0.279948
-0.2709
-0.261283
-0.251289
-0.241122
-0.230974
-0.221007
-0.211345
-0.202068
-0.19322
-0.184784
-0.176768
-0.169015
-0.161741
-0.342484
-0.338412
-0.33409
-0.3295
-0.32453
-0.319131
-0.313183
-0.306523
-0.29902
-0.290619
-0.281356
-0.271362
-0.260829
-0.249983
-0.239049
-0.228227
-0.217675
-0.207502
-0.197773
-0.188509
-0.179694
-0.171325
-0.163274
-0.155805
-0.354382
-0.348963
-0.343523
-0.33796
-0.332056
-0.325716
-0.318767
-0.311003
-0.302288
-0.292599
-0.282039
-0.270809
-0.259161
-0.247361
-0.235643
-0.224196
-0.213151
-0.202585
-0.192532
-0.182993
-0.173946
-0.165372
-0.157181
-0.149571
-0.367805
-0.360956
-0.354361
-0.347776
-0.340811
-0.333291
-0.324988
-0.315691
-0.305315
-0.293936
-0.28177
-0.269108
-0.256259
-0.2435
-0.231047
-0.21905
-0.207595
-0.19672
-0.186427
-0.176698
-0.167502
-0.158806
-0.150545
-0.14286
-0.382681
-0.374351
-0.366581
-0.358898
-0.350669
-0.341618
-0.331503
-0.320179
-0.307699
-0.294301
-0.280334
-0.266169
-0.252133
-0.238478
-0.225369
-0.212898
-0.201102
-0.18998
-0.179506
-0.169646
-0.160359
-0.151602
-0.143332
-0.135608
-0.398746
-0.388932
-0.379967
-0.371051
-0.361247
-0.350202
-0.337746
-0.323913
-0.308974
-0.29336
-0.277535
-0.261902
-0.246761
-0.2323
-0.218615
-0.205737
-0.193654
-0.182332
-0.171724
-0.16178
-0.15245
-0.143688
-0.135457
-0.127741
-0.415497
-0.404257
-0.394066
-0.383696
-0.371896
-0.358322
-0.343009
-0.326283
-0.308685
-0.290817
-0.273203
-0.256221
-0.240096
-0.224933
-0.210756
-0.197535
-0.18522
-0.173748
-0.163053
-0.153075
-0.143753
-0.135038
-0.126892
-0.119231
-0.43218
-0.419632
-0.408148
-0.396011
-0.381718
-0.365086
-0.346513
-0.326693
-0.306425
-0.286419
-0.267184
-0.249019
-0.232051
-0.216298
-0.201713
-0.188221
-0.175735
-0.16417
-0.153445
-0.143486
-0.134225
-0.125609
-0.117578
-0.110019
-0.447813
-0.43411
-0.421211
-0.406911
-0.389613
-0.369491
-0.34743
-0.32451
-0.301722
-0.279795
-0.259159
-0.24
-0.222341
-0.206118
-0.191224
-0.177545
-0.164967
-0.153385
-0.142703
-0.132835
-0.123706
-0.115251
-0.107383
-0.099994
-0.461276
-0.446613
-0.432152
-0.415257
-0.394467
-0.370519
-0.344873
-0.31896
-0.293871
-0.270275
-0.248475
-0.228527
-0.21035
-0.193805
-0.178735
-0.164991
-0.152434
-0.140942
-0.130406
-0.120731
-0.111836
-0.103644
-0.0960431
-0.088975
-0.351195
-0.353558
-0.3549
-0.355781
-0.356709
-0.357835
-0.359194
-0.36077
-0.362513
-0.364352
-0.366201
-0.367957
-0.369499
-0.370671
-0.371294
-0.371212
-0.370293
-0.368331
-0.365187
-0.360769
-0.355048
-0.348084
-0.340129
-0.331722
-0.338704
-0.34144
-0.342876
-0.34361
-0.344169
-0.344691
-0.345198
-0.345668
-0.346047
-0.346263
-0.346233
-0.345863
-0.345053
-0.343672
-0.341632
-0.338834
-0.33521
-0.330716
-0.325352
-0.319185
-0.312338
-0.304976
-0.297489
-0.290953
-0.327552
-0.330487
-0.33194
-0.332509
-0.332714
-0.33267
-0.332384
-0.33183
-0.330952
-0.329677
-0.327928
-0.325624
-0.322681
-0.319054
-0.314677
-0.309528
-0.303627
-0.297035
-0.28987
-0.282325
-0.274659
-0.267121
-0.260051
-0.254835
-0.318037
-0.321026
-0.322435
-0.322839
-0.322724
-0.32218
-0.3212
-0.319751
-0.317776
-0.315211
-0.311989
-0.308048
-0.303346
-0.297857
-0.291588
-0.284585
-0.276942
-0.268809
-0.26039
-0.251961
-0.243882
-0.236491
-0.229917
-0.225591
-0.310315
-0.313252
-0.314575
-0.314816
-0.314419
-0.313444
-0.311871
-0.309661
-0.306763
-0.303122
-0.298689
-0.293426
-0.287323
-0.280397
-0.272706
-0.264356
-0.255507
-0.246374
-0.237231
-0.228381
-0.220256
-0.213223
-0.207524
-0.204069
-0.304456
-0.307269
-0.30847
-0.308545
-0.30789
-0.306539
-0.30446
-0.301611
-0.297948
-0.293427
-0.288021
-0.28172
-0.274546
-0.266557
-0.257859
-0.248606
-0.239008
-0.229332
-0.219893
-0.211046
-0.203189
-0.196729
-0.192034
-0.188982
-0.300484
-0.303119
-0.304163
-0.304059
-0.303158
-0.301472
-0.298958
-0.295576
-0.291288
-0.286067
-0.279904
-0.272819
-0.264867
-0.256146
-0.246799
-0.237026
-0.227079
-0.217256
-0.207896
-0.199367
-0.19205
-0.186227
-0.182697
-0.179628
-0.29841
-0.300807
-0.301654
-0.30135
-0.300206
-0.298219
-0.29534
-0.291529
-0.286755
-0.28101
-0.274305
-0.266686
-0.258241
-0.2491
-0.239448
-0.229518
-0.219589
-0.209982
-0.201037
-0.193094
-0.186553
-0.181323
-0.179002
-0.175677
-0.298237
-0.30031
-0.300903
-0.300371
-0.298985
-0.296731
-0.293558
-0.289428
-0.28432
-0.278232
-0.271199
-0.263294
-0.254629
-0.245368
-0.235723
-0.22595
-0.216345
-0.207226
-0.198917
-0.191683
-0.185969
-0.181241
-0.179741
-0.176458
-0.299932
-0.301561
-0.301821
-0.30102
-0.299382
-0.296888
-0.293484
-0.289134
-0.283819
-0.277551
-0.270377
-0.262387
-0.253717
-0.244551
-0.235117
-0.225682
-0.216535
-0.207972
-0.200281
-0.193653
-0.188487
-0.184179
-0.182698
-0.179837
-0.303405
-0.30444
-0.304262
-0.303121
-0.301192
-0.298449
-0.294838
-0.290316
-0.284867
-0.278507
-0.271288
-0.263313
-0.254729
-0.245731
-0.236552
-0.227447
-0.218681
-0.210507
-0.203148
-0.196765
-0.191584
-0.187384
-0.185197
-0.182704
-0.30851
-0.308787
-0.30804
-0.306454
-0.304149
-0.301098
-0.29724
-0.292528
-0.286939
-0.280483
-0.273215
-0.265239
-0.256707
-0.247811
-0.238773
-0.229824
-0.221189
-0.213063
-0.205595
-0.19891
-0.193054
-0.188146
-0.18445
-0.181736
-0.321598
-0.309553
-0.298715
-0.290406
-0.286103
-0.286822
-0.292889
-0.303293
-0.315958
-0.327698
-0.334274
-0.331994
-0.317591
-0.290096
-0.25194
-0.209292
-0.169422
-0.137578
-0.115885
-0.104008
-0.100562
-0.104808
-0.117408
-0.137775
-0.159998
-0.173631
-0.170531
-0.151918
-0.125856
-0.101182
-0.083186
-0.0732418
-0.0700599
-0.0732153
-0.0846368
-0.103747
-0.122112
-0.127355
-0.116628
-0.0963
-0.0767303
-0.0630235
-0.0548771
-0.0537174
-0.0594647
-0.0667774
-0.0680151
-0.0617906
-0.0531572
-0.0460768
-0.0407863
-0.0400811
-0.0404955
-0.0397209
-0.0383731
-0.0338364
-0.0236682
-0.0165261
-0.00912244
-0.00341961
-0.285177
-0.279802
-0.277004
-0.27762
-0.282725
-0.292478
-0.306519
-0.323317
-0.340441
-0.354642
-0.361996
-0.359258
-0.343012
-0.312319
-0.269998
-0.222807
-0.178545
-0.14265
-0.117128
-0.101501
-0.0943607
-0.0947346
-0.102898
-0.118686
-0.137575
-0.150526
-0.149577
-0.135379
-0.113959
-0.0933469
-0.0787765
-0.0717577
-0.0711195
-0.0768471
-0.0911854
-0.113104
-0.133301
-0.138126
-0.126081
-0.103036
-0.0804142
-0.0639734
-0.0534904
-0.0500635
-0.053343
-0.0589503
-0.0597127
-0.0550706
-0.0486907
-0.0438564
-0.04093
-0.0422491
-0.0448028
-0.0443091
-0.0426444
-0.0370973
-0.0252309
-0.0169105
-0.00798852
-0.00252148
-0.253347
-0.253637
-0.257752
-0.265542
-0.277736
-0.294146
-0.313776
-0.3348
-0.35467
-0.370324
-0.378438
-0.375262
-0.358002
-0.325531
-0.280821
-0.230941
-0.183933
-0.145303
-0.116934
-0.0982034
-0.0876777
-0.0842623
-0.0879804
-0.0990118
-0.114246
-0.126209
-0.127166
-0.117331
-0.100499
-0.0840165
-0.072991
-0.0689959
-0.0709629
-0.0792437
-0.0963013
-0.120738
-0.142645
-0.146894
-0.134244
-0.108822
-0.0834428
-0.064484
-0.0518629
-0.0463881
-0.0474001
-0.0514269
-0.0516788
-0.048423
-0.0440606
-0.0414062
-0.0409171
-0.0443911
-0.0491532
-0.0488734
-0.0467308
-0.0401611
-0.02669
-0.0172547
-0.00688753
-0.00166501
-0.228201
-0.232596
-0.241096
-0.253851
-0.270739
-0.291221
-0.314069
-0.337354
-0.358587
-0.375029
-0.383349
-0.380289
-0.362799
-0.329837
-0.284475
-0.233827
-0.185852
-0.145898
-0.115698
-0.0946114
-0.0812345
-0.0744232
-0.0739501
-0.0802448
-0.0915283
-0.102084
-0.105809
-0.0985189
-0.0859606
-0.0735066
-0.0659744
-0.0649213
-0.0693795
-0.0799982
-0.099442
-0.12614
-0.149862
-0.15442
-0.141031
-0.113526
-0.0857711
-0.0645921
-0.0500713
-0.0428081
-0.0418085
-0.0443936
-0.0440815
-0.0419646
-0.0393415
-0.0387535
-0.0407267
-0.046458
-0.0534913
-0.0533629
-0.0505851
-0.0429834
-0.028025
-0.0175557
-0.00582867
-0.000853618
-0.20906
-0.216307
-0.227353
-0.242581
-0.261736
-0.284045
-0.308148
-0.332144
-0.353636
-0.37
-0.378685
-0.375799
-0.358572
-0.326187
-0.281798
-0.232279
-0.185085
-0.145109
-0.11397
-0.0911798
-0.075492
-0.0657945
-0.0616539
-0.0634587
-0.070592
-0.0789992
-0.0831952
-0.0792949
-0.070795
-0.0621059
-0.0578296
-0.0594755
-0.0661865
-0.0788248
-0.10027
-0.128977
-0.154688
-0.163188
-0.146278
-0.117059
-0.0874007
-0.0643586
-0.0481977
-0.0394074
-0.0366657
-0.0379747
-0.037059
-0.0358043
-0.0346101
-0.0359214
-0.0403305
-0.0483914
-0.0577441
-0.0577107
-0.0541489
-0.0455229
-0.0292166
-0.0178102
-0.00481963
-8.99022e-05
-0.195751
-0.204638
-0.216361
-0.232027
-0.251554
-0.273949
-0.297777
-0.321307
-0.342535
-0.358421
-0.36656
-0.363593
-0.346948
-0.316027
-0.274014
-0.227254
-0.182326
-0.143477
-0.11221
-0.0882932
-0.0707812
-0.0586856
-0.0514723
-0.0493536
-0.0523658
-0.0580783
-0.0619987
-0.0604503
-0.0555248
-0.0501435
-0.0487194
-0.0527183
-0.0613824
-0.0756687
-0.0986695
-0.129003
-0.156469
-0.167218
-0.149495
-0.11934
-0.0883324
-0.0638303
-0.0462995
-0.0362363
-0.0320204
-0.0322401
-0.0307125
-0.0300335
-0.0299393
-0.0329324
-0.0396958
-0.0501185
-0.061818
-0.0618452
-0.0573774
-0.0477441
-0.0302449
-0.0180113
-0.00386593
0.000625274
-0.187891
-0.197361
-0.208169
-0.222694
-0.241216
-0.262404
-0.284719
-0.306638
-0.327078
-0.341724
-0.348696
-0.345453
-0.329687
-0.301062
-0.262626
-0.219889
-0.17833
-0.14149
-0.110772
-0.0862401
-0.0673331
-0.0532841
-0.0435376
-0.0381267
-0.0373526
-0.0400958
-0.0430969
-0.0428218
-0.0407382
-0.0380466
-0.0389541
-0.0448813
-0.0551276
-0.0706072
-0.0946309
-0.126104
-0.155066
-0.166659
-0.150543
-0.120326
-0.088569
-0.0630357
-0.044414
-0.0333158
-0.0278747
-0.0271935
-0.0250991
-0.0247229
-0.0254042
-0.0298108
-0.0387874
-0.0515568
-0.0656097
-0.0656918
-0.0602363
-0.0496196
-0.0310929
-0.0181511
-0.00296947
0.00129333
-0.184938
-0.193989
-0.202619
-0.214866
-0.231327
-0.250256
-0.270124
-0.289786
-0.306738
-0.320463
-0.32636
-0.322974
-0.308501
-0.282947
-0.249002
-0.211112
-0.173598
-0.139351
-0.109714
-0.0850351
-0.0651445
-0.049569
-0.0378034
-0.0297431
-0.025705
-0.0254562
-0.0270994
-0.0286083
-0.0270086
-0.0262851
-0.0289377
-0.0362799
-0.0476575
-0.063876
-0.0883457
-0.120447
-0.150699
-0.163478
-0.149515
-0.120021
-0.0881188
-0.0619971
-0.0425676
-0.0306549
-0.024215
-0.0227991
-0.0202184
-0.0199234
-0.0210801
-0.0265838
-0.0375735
-0.0526226
-0.0690241
-0.0691744
-0.0626831
-0.0511305
-0.0317522
-0.0182307
-0.00213207
0.00191854
-0.185527
-0.192894
-0.198681
-0.208138
-0.221699
-0.237399
-0.254101
-0.271559
-0.285959
-0.296541
-0.301085
-0.297788
-0.285134
-0.263294
-0.234367
-0.201672
-0.168467
-0.137111
-0.108937
-0.0845404
-0.0640767
-0.0473833
-0.0340797
-0.0239714
-0.0172764
-0.0142143
-0.013955
-0.0147725
-0.0145271
-0.0152861
-0.0190774
-0.0272735
-0.0392849
-0.0557083
-0.0800874
-0.112426
-0.143657
-0.158005
-0.146594
-0.118546
-0.0870996
-0.0608335
-0.0408604
-0.0283024
-0.0210432
-0.0190387
-0.0160505
-0.0156512
-0.0170377
-0.0232763
-0.0360195
-0.0532463
-0.071972
-0.0722083
-0.0646831
-0.0522698
-0.0322236
-0.0182637
-0.00136618
0.00250705
-0.186873
-0.191402
-0.194741
-0.201552
-0.211636
-0.223667
-0.236929
-0.250141
-0.262693
-0.271102
-0.274815
-0.272079
-0.261786
-0.244042
-0.220251
-0.1927
-0.163779
-0.135433
-0.108992
-0.0852401
-0.0645676
-0.0470754
-0.0325766
-0.0208611
-0.012026
-0.00643209
-0.00396185
-0.00354353
-0.00375943
-0.0053673
-0.00969106
-0.0181985
-0.0303786
-0.0466562
-0.0705192
-0.10242
-0.134373
-0.150378
-0.141989
-0.116138
-0.0857684
-0.0597785
-0.0394899
-0.0263656
-0.0183559
-0.0158783
-0.0126239
-0.0115566
-0.0133241
-0.019917
-0.0341303
-0.0533526
-0.0743534
-0.0747135
-0.0662337
-0.053029
-0.0325017
-0.0182465
-0.000688781
0.0030639
-0.186287
-0.188018
-0.190061
-0.194488
-0.201064
-0.20964
-0.219833
-0.230118
-0.239136
-0.246052
-0.249373
-0.24768
-0.240112
-0.226555
-0.207764
-0.185167
-0.160439
-0.135157
-0.110608
-0.0877173
-0.0670681
-0.0489764
-0.0334774
-0.0204526
-0.00989132
-0.00208234
0.00270597
0.00472771
0.00498429
0.00322369
-0.00110202
-0.00936706
-0.0211264
-0.0366678
-0.0596637
-0.0913436
-0.123816
-0.14075
-0.135697
-0.112549
-0.0838923
-0.0585719
-0.0382697
-0.0247184
-0.0159885
-0.0130803
-0.00982786
-0.00852858
-0.0101149
-0.0164897
-0.03183
-0.0529232
-0.0761227
-0.0765638
-0.0673152
-0.0533531
-0.0325295
-0.0181194
-6.67586e-05
0.00359973
-0.182755
-0.18374
-0.18497
-0.18689
-0.190275
-0.195633
-0.202823
-0.210142
-0.2165
-0.221294
-0.223791
-0.222758
-0.217364
-0.20727
-0.192699
-0.174404
-0.153494
-0.13122
-0.108781
-0.0871705
-0.0671104
-0.0490562
-0.0331913
-0.0195634
-0.00812556
0.00109555
0.0078037
0.0114072
0.0120797
0.0106743
0.00632026
-0.00142072
-0.0125116
-0.0271714
-0.0488019
-0.079112
-0.111091
-0.128705
-0.126263
-0.106408
-0.079869
-0.0556254
-0.0359023
-0.0224948
-0.0134437
-0.0102354
-0.00700065
-0.0057116
-0.00727237
-0.0132262
-0.0293024
-0.0518387
-0.0771235
-0.0777255
-0.067816
-0.053168
-0.0321887
-0.0178021
0.000616973
0.0041498
-0.17654
-0.180174
-0.180676
-0.181114
-0.183345
-0.187626
-0.193187
-0.198367
-0.203151
-0.206722
-0.20806
-0.206235
-0.200586
-0.190839
-0.177194
-0.160291
-0.141067
-0.120583
-0.0998648
-0.0797693
-0.0609247
-0.0437417
-0.028397
-0.0149707
-0.00345302
0.00616312
0.0137179
0.0186015
0.0205265
0.019382
0.0151718
0.00843092
-0.00127414
-0.0147887
-0.0362052
-0.0681337
-0.103175
-0.123611
-0.121372
-0.100539
-0.074425
-0.0510894
-0.032234
-0.0194634
-0.010706
-0.00754348
-0.00394139
-0.00217605
-0.00324966
-0.00885821
-0.0257944
-0.0500958
-0.0781167
-0.0792147
-0.0680775
-0.0526972
-0.0315598
-0.0173662
0.00136167
0.00468006
-0.168676
-0.174279
-0.174788
-0.17415
-0.175029
-0.177707
-0.181127
-0.185079
-0.188317
-0.190199
-0.190051
-0.187257
-0.181339
-0.172098
-0.15969
-0.144601
-0.12754
-0.109328
-0.0907679
-0.0725635
-0.0552603
-0.0392412
-0.0247027
-0.0117898
-0.000517535
0.00918163
0.0171771
0.022709
0.0250937
0.0242297
0.0209854
0.0154839
0.00722543
-0.00507002
-0.0260254
-0.0586437
-0.0945336
-0.114831
-0.111884
-0.0919395
-0.0675354
-0.0460529
-0.0286773
-0.0167329
-0.00827175
-0.00514958
-0.00151629
0.000152976
-0.00053619
-0.00572458
-0.022898
-0.0483662
-0.0782163
-0.0797016
-0.0673519
-0.0516006
-0.0306063
-0.0167237
0.0020048
0.00499663
-0.159073
-0.16605
-0.166934
-0.165682
-0.165427
-0.166847
-0.169225
-0.171737
-0.173479
-0.173965
-0.172773
-0.169474
-0.163708
-0.155286
-0.144266
-0.130961
-0.115881
-0.0996578
-0.0829455
-0.0663471
-0.0503546
-0.0353453
-0.0215317
-0.00907726
0.00194192
0.0115372
0.0196424
0.0256063
0.0287392
0.0284828
0.0258818
0.0212963
0.0139485
0.00220066
-0.0185016
-0.0501553
-0.0841447
-0.103526
-0.10086
-0.0826444
-0.0604524
-0.0409629
-0.0250789
-0.0140018
-0.00592041
-0.00285978
0.000740945
0.00232107
0.00175022
-0.00341208
-0.0207012
-0.0466178
-0.0772757
-0.0792882
-0.0659783
-0.0500157
-0.0294064
-0.0159276
0.00256507
0.00520648
-0.148689
-0.156267
-0.157593
-0.156189
-0.155298
-0.155859
-0.157279
-0.158653
-0.159314
-0.158882
-0.157046
-0.15349
-0.147932
-0.140196
-0.13029
-0.118429
-0.104999
-0.0904995
-0.0754579
-0.0603771
-0.0456786
-0.0317095
-0.0186843
-0.00677269
0.00390707
0.0132863
0.0213462
0.0275878
0.0311322
0.0319308
0.0303069
0.0268139
0.0203939
0.00914176
-0.0109669
-0.0408482
-0.072816
-0.0912937
-0.0888724
-0.0726761
-0.0529793
-0.0356365
-0.0213739
-0.0112775
-0.00365811
-0.00066631
0.00289349
0.00443588
0.00389089
-0.00129175
-0.0184754
-0.0441944
-0.0752594
-0.077991
-0.0640028
-0.047937
-0.0279398
-0.0149576
0.00304005
0.00533221
-0.137716
-0.145534
-0.147327
-0.146069
-0.14486
-0.144776
-0.145417
-0.146004
-0.145942
-0.144889
-0.142614
-0.138901
-0.133544
-0.126405
-0.117474
-0.106896
-0.0949554
-0.0820271
-0.0685244
-0.054859
-0.0413908
-0.028437
-0.0162155
-0.00490168
0.00537185
0.0144721
0.0223679
0.0286955
0.0327799
0.0343909
0.0338903
0.0317496
0.0266797
0.0164223
-0.00281134
-0.0312005
-0.0611387
-0.0780349
-0.0760247
-0.0622182
-0.045319
-0.0302348
-0.0176379
-0.0085866
-0.0014931
0.00142506
0.00492999
0.00642568
0.00588943
0.000878178
-0.0157984
-0.0408648
-0.0720536
-0.0755937
-0.0613235
-0.0453382
-0.0261918
-0.0138159
0.0034282
0.00536537
-0.126412
-0.134343
-0.136526
-0.135501
-0.134162
-0.133661
-0.133774
-0.133825
-0.133267
-0.131798
-0.129256
-0.125504
-0.120402
-0.113843
-0.105803
-0.0963716
-0.0857481
-0.0742165
-0.0621015
-0.0497419
-0.037444
-0.0254906
-0.014092
-0.00342747
0.00636701
0.0151265
0.0227858
0.0290756
0.0334958
0.0357924
0.0363115
0.0355431
0.0320805
0.0231084
0.00478721
-0.0220124
-0.0491915
-0.0640219
-0.0627322
-0.0516212
-0.0376734
-0.0248686
-0.0139205
-0.00594552
0.000567661
0.00340187
0.00684461
0.00829868
0.00774523
0.003102
-0.012685
-0.0366588
-0.0674691
-0.0718643
-0.0578732
-0.0422349
-0.024167
-0.0125053
0.0037313
0.00530015
-0.115252
-0.123022
-0.125446
-0.124679
-0.123362
-0.122649
-0.122424
-0.122115
-0.121236
-0.119532
-0.116886
-0.11321
-0.108411
-0.102409
-0.0951714
-0.0867539
-0.0772976
-0.0670175
-0.0561678
-0.0450233
-0.0338406
-0.0228676
-0.0123009
-0.00232056
0.00693578
0.0152966
0.0226725
0.0288421
0.0334252
0.0362095
0.037495
0.0377821
0.0356499
0.0279111
0.0109499
-0.0133922
-0.0370834
-0.0498747
-0.0495466
-0.0412554
-0.0302474
-0.0196618
-0.010287
-0.00337418
0.00252163
0.00526038
0.00864359
0.0100741
0.00946444
0.00530797
-0.00925174
-0.0315894
-0.0614153
-0.0667252
-0.0536339
-0.0386709
-0.021887
-0.0110328
0.00395461
0.00513969
-0.104376
-0.111762
-0.114322
-0.113825
-0.112628
-0.111836
-0.111416
-0.110892
-0.109844
-0.10805
-0.10542
-0.101902
-0.0974373
-0.0919667
-0.085462
-0.0779559
-0.0695479
-0.0603989
-0.0507057
-0.0406893
-0.0305636
-0.0205444
-0.0108112
-0.00153837
0.00713569
0.0150452
0.022088
0.0280709
0.0326901
0.0357777
0.0375348
0.0383846
0.0370307
0.0304621
0.015667
-0.00526227
-0.0251809
-0.0362542
-0.0370989
-0.0315101
-0.0232391
-0.0147246
-0.00680194
-0.00089203
0.00437217
0.00700539
0.0103353
0.0117704
0.0110687
0.00747288
-0.0055205
-0.0257049
-0.0539695
-0.0602427
-0.0486348
-0.0347187
-0.0193943
-0.00940989
0.00410962
0.00489668
-0.0938025
-0.100758
-0.103386
-0.103137
-0.1021
-0.101314
-0.100807
-0.100184
-0.0990792
-0.0972974
-0.0947699
-0.0914692
-0.0873618
-0.0824072
-0.0765818
-0.0699039
-0.062443
-0.0543187
-0.0456832
-0.0367139
-0.0275883
-0.0184919
-0.00958611
-0.00103424
0.00702719
0.0144407
0.0211006
0.0268359
0.0313904
0.0346248
0.0366286
0.0376782
0.0366967
0.0312942
0.019181
0.00208268
-0.0142589
-0.0239791
-0.0259752
-0.0227139
-0.0168072
-0.0101427
-0.00352582
0.00147721
0.00612098
0.00864654
0.0119287
0.0134121
0.012618
0.00965947
-0.00148708
-0.0191786
-0.0453779
-0.0525538
-0.0429644
-0.0304776
-0.0167503
-0.0076546
0.00421648
0.00459504
-0.0837132
-0.09019
-0.0928035
-0.0927583
-0.0918941
-0.0911691
-0.0906494
-0.0900072
-0.0889228
-0.0872261
-0.0848637
-0.081824
-0.0780906
-0.0736373
-0.0684451
-0.0625242
-0.0559227
-0.0487304
-0.0410648
-0.0330679
-0.0248859
-0.0166767
-0.00858395
-0.000757253
0.00667248
0.0135585
0.0197924
0.025222
0.0296277
0.0328859
0.0349973
0.0360849
0.0353146
0.0310077
0.0215114
0.00803612
-0.00515434
-0.013704
-0.0165387
-0.0150617
-0.0110542
-0.00597347
-0.000508629
0.00370555
0.00776166
0.010189
0.0134315
0.0150345
0.0142141
0.011963
0.00278547
-0.0123069
-0.0360562
-0.0439697
-0.0367779
-0.0260668
-0.0140296
-0.0057946
0.00430553
0.00427167
-0.0742309
-0.0801467
-0.0826688
-0.082785
-0.0820948
-0.0814654
-0.0809829
-0.0803746
-0.0793641
-0.0778028
-0.0756476
-0.0728962
-0.0695438
-0.0655745
-0.0609742
-0.0557482
-0.0499308
-0.0435892
-0.0368141
-0.0297191
-0.0224241
-0.0150624
-0.00776039
-0.000653283
0.0061363
0.0124753
0.018252
0.0233275
0.0275174
0.0307063
0.0328318
0.0339005
0.0332946
0.0299123
0.0226142
0.0122286
0.00174952
-0.00563488
-0.00886106
-0.00860417
-0.00602721
-0.00224818
0.00221375
0.0057636
0.00928237
0.011623
0.0148329
0.0166572
0.0159695
0.0144627
0.00716791
-0.00548207
-0.0265669
-0.0349499
-0.0302945
-0.0216145
-0.011312
-0.00387273
0.00441546
0.00397494
-0.0653205
-0.0706636
-0.0730592
-0.0733037
-0.0727775
-0.0722568
-0.07184
-0.0712999
-0.0703974
-0.0690022
-0.067078
-0.0646278
-0.0616542
-0.0581489
-0.0541017
-0.0495158
-0.0444154
-0.0388511
-0.0328935
-0.0266331
-0.0201681
-0.0136107
-0.00707071
-0.000667963
0.00548489
0.0112646
0.0165638
0.021256
0.0251823
0.0282281
0.0302976
0.0313286
0.0308733
0.0282374
0.0226875
0.0148085
0.00662044
0.000415723
-0.00280733
-0.00328836
-0.00172978
0.00102111
0.00462099
0.00762226
0.0106711
0.0129283
0.0160903
0.0182307
0.0179695
0.0171814
0.0114753
0.000844332
-0.017538
-0.0260647
-0.0237873
-0.0172482
-0.0086736
-0.00195418
0.00458184
0.00375638
-0.0569861
-0.0617921
-0.0640412
-0.064381
-0.0639988
-0.0635846
-0.0632454
-0.0627928
-0.0620169
-0.0608022
-0.0591182
-0.0569707
-0.0543662
-0.0513015
-0.04777
-0.0437731
-0.0393284
-0.0344745
-0.0292661
-0.0237758
-0.0180838
-0.0122839
-0.00647078
-0.000749243
0.00477887
0.0100003
0.014813
0.019107
0.0227365
0.0255898
0.0275597
0.0285548
0.028254
0.0262366
0.0220643
0.016164
0.00987234
0.0048094
0.00185102
0.000994133
0.00186484
0.00383566
0.0067077
0.0092561
0.0119095
0.0140831
0.0171552
0.0196264
0.020092
0.0199434
0.0154074
0.00623589
-0.00952684
-0.0178569
-0.0175449
-0.013085
-0.00618185
-0.000126494
0.0048182
0.00365043
-0.0492826
-0.0535657
-0.055643
-0.0560434
-0.055785
-0.0554745
-0.055219
-0.0548598
-0.0542149
-0.0531831
-0.0517376
-0.0498849
-0.0476333
-0.0449828
-0.041929
-0.0384727
-0.0346268
-0.0304207
-0.0258973
-0.0211146
-0.0161384
-0.0110465
-0.00591965
-0.000849462
0.00407376
0.00874966
0.0130819
0.0169669
0.0202822
0.0229201
0.0247728
0.0257433
0.0256061
0.0241156
0.0210328
0.016673
0.0119265
0.00791647
0.00535751
0.00437146
0.00480376
0.00620657
0.00847787
0.0106484
0.0129736
0.0150588
0.0179917
0.0206931
0.0218405
0.0222643
0.0185278
0.0103854
-0.00287888
-0.0106941
-0.0118273
-0.00922621
-0.00389842
0.00150933
0.0051117
0.00365024
-0.0421951
-0.0459718
-0.0478657
-0.0483045
-0.0481532
-0.0479389
-0.0477648
-0.0474975
-0.0469811
-0.0461263
-0.0449095
-0.0433366
-0.0414165
-0.0391506
-0.0365362
-0.0335736
-0.0302724
-0.026655
-0.0227554
-0.0186198
-0.014302
-0.00986647
-0.00538155
-0.000926472
0.00342021
0.00756972
0.0114342
0.0149173
0.0179157
0.0203312
0.0220623
0.0230204
0.0230493
0.0220122
0.019796
0.0166364
0.0131255
0.0100358
0.00792637
0.00697236
0.00714774
0.00815347
0.00994036
0.0117928
0.0138413
0.0158187
0.0185533
0.0213251
0.0229207
0.0236167
0.020465
0.0132195
0.00229524
-0.00476769
-0.00683356
-0.00575415
-0.00187863
0.00284928
0.00541629
0.00369983
-0.0356803
-0.0389939
-0.0407096
-0.0411706
-0.04111
-0.0409853
-0.0408796
-0.0406964
-0.0403002
-0.0396116
-0.0386082
-0.0372953
-0.0356814
-0.0337685
-0.0315548
-0.0290402
-0.026232
-0.0231472
-0.0198126
-0.0162652
-0.0125489
-0.00871674
-0.0048264
-0.000945013
0.002859
0.00650714
0.00992372
0.0130226
0.0157136
0.0179096
0.0195224
0.0204755
0.0206628
0.0200136
0.0184849
0.0162602
0.0137233
0.0114117
0.00974703
0.00891916
0.00896404
0.00970275
0.0111085
0.0126916
0.0144936
0.0163312
0.0187975
0.0214551
0.0231204
0.0237992
0.0211692
0.0148847
0.00605443
-0.000121266
-0.00268194
-0.002731
-0.000158728
0.00381791
0.00564369
0.00371062
-0.0297247
-0.032619
-0.0341616
-0.0346295
-0.0346401
-0.0345814
-0.0345403
-0.0344368
-0.0341536
-0.033618
-0.0328097
-0.0317338
-0.0303982
-0.0288053
-0.0269534
-0.0248423
-0.0224772
-0.0198712
-0.0170454
-0.0140291
-0.010858
-0.00757588
-0.00423042
-0.00087854
0.002421
0.0056007
0.00859589
0.0113313
0.0137299
0.0157164
0.0172157
0.0181656
0.0184953
0.0181699
0.0171817
0.0156761
0.0139081
0.0122406
0.0109835
0.0103236
0.0103215
0.010887
0.0119996
0.0133508
0.0149202
0.0165863
0.0187323
0.0210651
0.0225764
0.0230484
0.0208947
0.0156271
0.00857213
0.00329694
0.000600915
-0.000199349
0.00124256
0.00441466
0.00569906
0.00359477
-0.0243091
-0.0268204
-0.0281965
-0.0286589
-0.0287261
-0.0287286
-0.0287426
-0.0287077
-0.0285225
-0.0281231
-0.0274897
-0.0266262
-0.02554
-0.0242334
-0.0227051
-0.0209543
-0.0189846
-0.0168059
-0.0144348
-0.0118945
-0.00921376
-0.00642825
-0.00357741
-0.000708983
0.00212864
0.00487686
0.00747961
0.00987486
0.012
0.0137898
0.0151798
0.0161223
0.0165693
0.0165054
0.0159388
0.0149848
0.0138142
0.0126651
0.0117647
0.011285
0.0112869
0.0117444
0.012634
0.0137804
0.0151274
0.016598
0.018399
0.0202596
0.0215372
0.0217559
0.0199945
0.0157021
0.0100991
0.00565463
0.00308538
0.00181992
0.00232764
0.00469612
0.00552684
0.00331222
-0.0193953
-0.0215634
-0.022785
-0.0232366
-0.0233503
-0.0234075
-0.0234752
-0.0234913
-0.0233867
-0.0231045
-0.0226244
-0.0219482
-0.0210822
-0.0200288
-0.0187866
-0.0173544
-0.0157344
-0.0139341
-0.0119662
-0.00984918
-0.00760571
-0.00526476
-0.00285838
-0.000425764
0.00199258
0.00434723
0.00659168
0.00867307
0.0105451
0.0121479
0.0134319
0.0143565
0.0148913
0.0150324
0.0147882
0.0142495
0.013532
0.0127932
0.012196
0.011889
0.0119233
0.0123151
0.0130351
0.0139998
0.0151366
0.0163934
0.0178572
0.0192927
0.0202539
0.020241
0.0187743
0.0153347
0.0108956
0.0071607
0.00491386
0.00332984
0.0031256
0.00473326
0.00513299
0.00289372
-0.0149499
-0.0168152
-0.0178959
-0.0183318
-0.0184807
-0.0185787
-0.0186823
-0.0187472
-0.0187135
-0.018533
-0.018187
-0.017675
-0.0170017
-0.0161695
-0.0151775
-0.0140243
-0.012711
-0.0112428
-0.00962945
-0.0078854
-0.00602852
-0.00408186
-0.00207113
-2.83641e-05
0.0020136
0.00401419
0.00593477
0.00773004
0.00936656
0.0107912
0.0119706
0.0128671
0.0134595
0.0137491
0.0137443
0.0135147
0.013119
0.0127104
0.0123636
0.0122107
0.0122888
0.0126398
0.0132303
0.014034
0.0149758
0.0160133
0.017164
0.018221
0.0188859
0.0186967
0.0174446
0.0147035
0.0111841
0.00798256
0.00536577
0.00433695
0.00368165
0.00460081
0.00459776
0.00242212
-0.0109438
-0.0125429
-0.0134959
-0.0139133
-0.0140899
-0.0142228
-0.0143613
-0.0144678
-0.0144852
-0.0143868
-0.0141542
-0.0137832
-0.0132764
-0.0126355
-0.01186
-0.0109485
-0.00990128
-0.00872196
-0.0074177
-0.00599953
-0.00448133
-0.00288129
-0.00121965
0.000477872
0.00218469
0.00386851
0.00549866
0.00703568
0.00844836
0.00970778
0.0107813
0.0116394
0.0122617
0.0126522
0.0128192
0.0128136
0.012667
0.012492
0.0123398
0.0123138
0.0124357
0.0127591
0.0132495
0.0139115
0.0146754
0.0155025
0.0163757
0.0171121
0.0175279
0.017221
0.0161311
0.0139385
0.0111428
0.00844809
0.00622934
0.00504251
0.00405615
0.00437197
0.00402543
0.00197765
-0.00734484
-0.00871085
-0.00954938
-0.00994655
-0.0101433
-0.0103024
-0.010466
-0.0106046
-0.0106737
-0.0106421
-0.0105021
-0.0102497
-0.00988486
-0.0094078
-0.00881777
-0.00811358
-0.00729514
-0.00636466
-0.00532725
-0.00419116
-0.00296706
-0.00166899
-0.000312664
0.00108164
0.00249318
0.00389599
0.00526504
0.00657096
0.00778729
0.00888549
0.00984685
0.0106506
0.0112793
0.0117321
0.0120144
0.0121572
0.012191
0.012188
0.0121814
0.0122523
0.012411
0.0127122
0.0131232
0.0136607
0.0142657
0.0149018
0.0155397
0.016018
0.0162354
0.0158572
0.0148974
0.0131244
0.0108857
0.00863886
0.00669332
0.00547051
0.00429288
0.00411175
0.00349424
0.00160213
-0.00412113
-0.00528526
-0.00602234
-0.00639893
-0.00661027
-0.00678991
-0.00697348
-0.00713775
-0.00724598
-0.00727275
-0.00720799
-0.00705307
-0.00680704
-0.00646851
-0.00603589
-0.00550784
-0.00488406
-0.00416586
-0.00335671
-0.00246261
-0.00149159
-0.00045426
0.000637355
0.00176768
0.00292053
0.00407566
0.00521373
0.00631147
0.00734831
0.00830126
0.00915224
0.00988778
0.0104946
0.0109742
0.0113222
0.0115674
0.0117209
0.0118365
0.0119325
0.0120719
0.0122565
0.0125359
0.0128813
0.0133107
0.013778
0.0142476
0.0146916
0.0149703
0.0150352
0.0146196
0.0137668
0.0123125
0.0104956
0.00862375
0.00688565
0.00567556
0.00441939
0.00385914
0.00304035
0.00130811
-0.00124389
-0.00223424
-0.00288219
-0.00323854
-0.00346007
-0.00365521
-0.00385373
-0.0040374
-0.00417661
-0.00425018
-0.00424917
-0.00417271
-0.00402398
-0.00380071
-0.0035001
-0.00312034
-0.00266079
-0.00212206
-0.00150638
-0.00081802
-6.28334e-05
0.000751276
0.00161528
0.0025175
0.00344561
0.00438411
0.00531802
0.00622913
0.00710155
0.00791781
0.00866295
0.00932564
0.00989566
0.0103711
0.0107499
0.0110495
0.0112754
0.0114655
0.0116279
0.0118099
0.0120084
0.0122639
0.0125528
0.01289
0.013241
0.0135706
0.0138573
0.0139856
0.0139373
0.0135073
0.0127426
0.0115318
0.01003
0.00845899
0.00689804
0.00571843
0.00445669
0.00363226
0.0026807
0.00109125
0.00131434
0.000472778
-9.73477e-05
-0.000434205
-0.0006623
-0.00086871
-0.00107796
-0.00127596
-0.00143912
-0.00155023
-0.00160152
-0.00159123
-0.0015197
-0.00138927
-0.00119734
-0.000941238
-0.000619143
-0.000230808
0.000222315
0.000737302
0.00130999
0.00193459
0.00260449
0.0033111
0.00404521
0.00479521
0.00554961
0.00629464
0.00701792
0.00770596
0.00834723
0.00893193
0.00945102
0.00990282
0.0102834
0.0106043
0.0108664
0.011096
0.0112948
0.0114973
0.0116978
0.0119267
0.0121653
0.0124239