/*--------------------------------*- C++ -*----------------------------------*\
| =========                 |                                                 |
| \\      /  F ield         | OpenFOAM: The Open Source CFD Toolbox           |
|  \\    /   O peration     | Version:  2512                                  |
|   \\  /    A nd           | Website:  www.openfoam.com                      |
|    \\/     M anipulation  |                                                 |
\*---------------------------------------------------------------------------*/
FoamFile
{
    version     2.0;
    format      ascii;
    arch        "LSB;label=32;scalar=64";
    class       volScalarField;
    location    "152";
    object      p;
}
// * * * * * * * * * * * * * * * * * * * * * * * * * * * * * * * * * * * * * //

dimensions      [0 2 -2 0 0 0 0];

internalField   nonuniform List<scalar> 
13248
(
-0.460248
-0.457202
-0.454293
-0.451659
-0.449405
-0.447629
-0.44625
-0.445003
-0.443478
-0.441173
-0.437548
-0.432095
-0.424407
-0.414235
-0.401519
-0.386387
-0.369129
-0.350147
-0.329887
-0.308805
-0.287219
-0.265523
-0.243191
-0.220768
-0.469164
-0.465458
-0.461752
-0.458206
-0.454926
-0.452008
-0.449348
-0.446635
-0.443419
-0.439181
-0.433416
-0.425714
-0.415817
-0.403659
-0.389356
-0.373178
-0.35549
-0.336703
-0.317212
-0.297368
-0.277442
-0.257686
-0.238008
-0.219003
-0.479324
-0.474795
-0.470235
-0.465772
-0.461457
-0.457342
-0.453266
-0.448862
-0.443656
-0.437165
-0.428987
-0.418875
-0.406768
-0.392783
-0.377179
-0.360299
-0.342514
-0.324177
-0.305594
-0.287017
-0.268628
-0.250615
-0.232914
-0.215778
-0.491046
-0.485501
-0.480007
-0.474597
-0.469185
-0.463734
-0.458001
-0.451576
-0.444011
-0.434933
-0.424121
-0.411539
-0.397325
-0.381745
-0.365129
-0.347821
-0.330135
-0.312333
-0.294623
-0.277166
-0.260085
-0.243507
-0.227382
-0.211982
-0.504443
-0.497688
-0.491169
-0.484738
-0.478091
-0.471063
-0.463333
-0.454494
-0.444208
-0.432294
-0.418768
-0.403812
-0.38772
-0.370833
-0.353479
-0.335942
-0.318446
-0.301159
-0.284202
-0.267666
-0.251621
-0.23613
-0.221165
-0.206898
-0.519415
-0.511306
-0.503672
-0.496097
-0.487986
-0.479027
-0.468867
-0.457192
-0.443869
-0.428981
-0.41279
-0.395653
-0.377947
-0.360009
-0.342109
-0.32444
-0.307136
-0.290281
-0.273932
-0.258125
-0.24289
-0.22825
-0.214189
-0.200819
-0.535682
-0.526135
-0.517302
-0.508402
-0.498489
-0.487137
-0.474057
-0.459149
-0.442575
-0.424709
-0.406017
-0.386955
-0.3679
-0.349127
-0.330813
-0.313062
-0.295925
-0.279423
-0.263562
-0.248339
-0.233754
-0.219798
-0.206463
-0.193778
-0.552762
-0.541772
-0.531655
-0.52117
-0.509013
-0.494732
-0.478248
-0.459801
-0.439903
-0.419184
-0.398237
-0.377526
-0.357361
-0.33792
-0.319286
-0.301476
-0.284479
-0.268266
-0.252807
-0.238071
-0.22403
-0.210659
-0.197948
-0.185848
-0.569967
-0.557602
-0.546098
-0.533688
-0.518766
-0.501013
-0.480734
-0.458602
-0.43547
-0.412143
-0.38924
-0.367157
-0.346098
-0.326134
-0.307257
-0.289418
-0.272555
-0.256602
-0.241499
-0.227193
-0.213637
-0.200795
-0.188639
-0.177062
-0.586386
-0.57277
-0.559744
-0.544996
-0.526771
-0.505097
-0.480813
-0.455056
-0.428939
-0.403337
-0.378804
-0.355617
-0.33386
-0.313503
-0.294463
-0.276637
-0.259923
-0.244229
-0.22947
-0.215572
-0.202473
-0.190127
-0.17848
-0.167398
-0.600913
-0.586195
-0.57146
-0.553922
-0.531911
-0.50603
-0.47774
-0.44859
-0.419845
-0.392337
-0.366495
-0.342456
-0.320185
-0.299567
-0.280456
-0.262709
-0.246193
-0.230789
-0.216394
-0.202918
-0.190287
-0.178438
-0.167281
-0.156699
-0.612353
-0.596712
-0.580067
-0.559286
-0.533081
-0.502826
-0.470639
-0.438393
-0.407386
-0.378329
-0.351484
-0.326842
-0.304256
-0.283536
-0.264486
-0.246925
-0.230694
-0.215655
-0.201689
-0.188692
-0.176582
-0.165279
-0.154668
-0.14469
-0.340917
-0.343777
-0.345514
-0.34665
-0.347635
-0.348586
-0.349549
-0.350538
-0.351543
-0.352532
-0.353465
-0.3543
-0.355004
-0.355552
-0.355935
-0.356164
-0.356273
-0.356321
-0.356398
-0.356621
-0.357098
-0.357863
-0.359009
-0.361064
-0.349066
-0.352175
-0.354188
-0.355673
-0.357112
-0.358592
-0.360136
-0.361734
-0.363341
-0.364885
-0.366278
-0.367418
-0.368197
-0.368507
-0.368245
-0.367321
-0.365668
-0.363249
-0.36008
-0.35623
-0.351764
-0.346668
-0.341171
-0.336602
-0.358741
-0.361848
-0.364014
-0.365806
-0.367652
-0.369647
-0.371785
-0.374016
-0.376262
-0.378411
-0.380322
-0.38183
-0.382751
-0.382886
-0.382032
-0.37999
-0.37658
-0.371659
-0.365147
-0.357046
-0.347372
-0.336045
-0.323353
-0.31151
-0.369709
-0.372551
-0.374713
-0.376705
-0.378909
-0.381376
-0.384059
-0.386888
-0.389752
-0.392492
-0.394916
-0.396797
-0.397875
-0.397865
-0.396466
-0.393376
-0.388309
-0.381019
-0.371332
-0.359178
-0.344558
-0.327391
-0.307825
-0.288413
-0.38154
-0.383877
-0.385874
-0.387943
-0.39038
-0.393199
-0.396328
-0.399658
-0.403032
-0.406261
-0.409099
-0.411258
-0.412409
-0.412187
-0.410205
-0.406074
-0.399424
-0.389934
-0.377365
-0.361598
-0.342655
-0.320581
-0.295285
-0.268046
-0.393678
-0.395329
-0.397002
-0.398994
-0.401499
-0.404498
-0.407891
-0.411534
-0.415234
-0.418749
-0.421793
-0.424024
-0.425044
-0.424425
-0.421712
-0.416454
-0.408234
-0.396703
-0.381615
-0.362868
-0.340532
-0.314789
-0.285783
-0.25378
-0.405551
-0.406412
-0.407622
-0.409361
-0.41173
-0.414683
-0.418097
-0.421795
-0.425548
-0.429075
-0.432036
-0.434056
-0.434657
-0.433374
-0.429707
-0.423177
-0.413363
-0.399945
-0.382743
-0.361749
-0.337161
-0.30925
-0.278913
-0.244986
-0.416688
-0.416737
-0.417372
-0.418677
-0.420681
-0.42333
-0.426487
-0.429948
-0.433452
-0.436674
-0.439238
-0.440705
-0.440583
-0.438358
-0.433516
-0.42559
-0.414202
-0.399113
-0.380263
-0.357783
-0.332077
-0.303413
-0.273535
-0.240004
-0.42681
-0.426099
-0.42608
-0.426783
-0.428197
-0.430282
-0.432901
-0.435831
-0.43878
-0.441392
-0.443247
-0.443866
-0.442732
-0.439317
-0.433124
-0.423734
-0.410862
-0.394395
-0.374431
-0.351248
-0.32544
-0.297276
-0.268772
-0.237285
-0.435892
-0.434514
-0.433795
-0.433755
-0.434388
-0.435681
-0.437512
-0.439649
-0.441779
-0.443509
-0.44438
-0.443884
-0.441487
-0.436674
-0.428997
-0.418129
-0.403915
-0.386399
-0.365838
-0.342661
-0.317538
-0.290841
-0.26426
-0.235651
-0.444171
-0.442212
-0.440768
-0.439886
-0.439594
-0.439921
-0.440767
-0.441902
-0.442985
-0.443593
-0.44323
-0.441366
-0.437471
-0.431075
-0.421817
-0.4095
-0.394118
-0.375871
-0.355137
-0.332449
-0.308449
-0.28368
-0.259322
-0.233839
-0.452099
-0.449604
-0.447419
-0.44564
-0.444343
-0.443603
-0.443343
-0.443323
-0.443177
-0.442442
-0.440593
-0.437094
-0.43145
-0.423275
-0.412337
-0.398595
-0.382199
-0.363471
-0.34285
-0.320864
-0.298006
-0.27489
-0.252165
-0.229754
-0.365142
-0.371522
-0.37809
-0.383254
-0.385302
-0.382087
-0.371711
-0.35314
-0.326358
-0.292681
-0.255504
-0.219189
-0.187799
-0.164131
-0.1495
-0.144481
-0.14976
-0.165372
-0.188241
-0.210702
-0.222505
-0.21656
-0.193206
-0.160426
-0.127969
-0.102124
-0.0850092
-0.0761395
-0.0740408
-0.0783247
-0.0905293
-0.109899
-0.128628
-0.135624
-0.127447
-0.107942
-0.0874511
-0.0726557
-0.0644944
-0.0621842
-0.0675672
-0.0806642
-0.0930176
-0.0949838
-0.0848573
-0.0697249
-0.0574212
-0.0485095
-0.0452591
-0.0461605
-0.0468061
-0.0455965
-0.0426908
-0.0376123
-0.0336016
-0.0297121
-0.0259136
-0.0264063
-0.0225231
-0.00741549
-0.333682
-0.332118
-0.331923
-0.331806
-0.330448
-0.325753
-0.316442
-0.301329
-0.280208
-0.253495
-0.224375
-0.196208
-0.172326
-0.155189
-0.146294
-0.146796
-0.157772
-0.178832
-0.205864
-0.230339
-0.241503
-0.233545
-0.206799
-0.170214
-0.134266
-0.105451
-0.085666
-0.0742299
-0.0696321
-0.0711583
-0.08
-0.0959652
-0.11261
-0.120093
-0.11388
-0.097723
-0.080802
-0.0692518
-0.0637959
-0.0640593
-0.0721273
-0.0879182
-0.102095
-0.104225
-0.0923921
-0.0743924
-0.0594852
-0.0482613
-0.0431229
-0.041901
-0.0414295
-0.040308
-0.0382916
-0.0350498
-0.0325403
-0.0309711
-0.0283372
-0.0295508
-0.0256036
-0.00844562
-0.301661
-0.291015
-0.282891
-0.276143
-0.270141
-0.263278
-0.253897
-0.241023
-0.226615
-0.207037
-0.186193
-0.166214
-0.149923
-0.139565
-0.136835
-0.143333
-0.160158
-0.186244
-0.216694
-0.242751
-0.25437
-0.244634
-0.215641
-0.176548
-0.138201
-0.107217
-0.0853187
-0.071669
-0.0647619
-0.0636815
-0.0692414
-0.0817333
-0.0961657
-0.10382
-0.0996066
-0.0867708
-0.0733788
-0.0650523
-0.0623267
-0.0652075
-0.0759128
-0.0942483
-0.110187
-0.112618
-0.099265
-0.0785902
-0.0611861
-0.047818
-0.0410044
-0.0378925
-0.0363531
-0.0351503
-0.0338636
-0.0323685
-0.0313781
-0.032206
-0.0307301
-0.0325918
-0.0285879
-0.00945428
-0.272597
-0.252636
-0.236164
-0.221876
-0.2101
-0.199648
-0.189904
-0.177776
-0.166484
-0.155008
-0.141873
-0.129731
-0.121002
-0.117603
-0.121368
-0.134056
-0.156477
-0.186934
-0.220123
-0.247475
-0.259509
-0.249464
-0.219554
-0.179321
-0.139769
-0.107514
-0.0841473
-0.068745
-0.0598304
-0.0563653
-0.0588565
-0.0679245
-0.0799574
-0.087446
-0.0851131
-0.0754229
-0.0653812
-0.0601412
-0.0600451
-0.0654443
-0.0786154
-0.0993213
-0.116994
-0.119908
-0.105307
-0.0822472
-0.0625162
-0.0471965
-0.0389318
-0.0341835
-0.0316329
-0.0301958
-0.0294604
-0.0295985
-0.030123
-0.0334074
-0.0330746
-0.0354966
-0.0314415
-0.01043
-0.249134
-0.220784
-0.196594
-0.174562
-0.15685
-0.141579
-0.129292
-0.117013
-0.106607
-0.101293
-0.0945474
-0.0894524
-0.0878164
-0.0912326
-0.101496
-0.12016
-0.147544
-0.181474
-0.21665
-0.245007
-0.25764
-0.248187
-0.218713
-0.178774
-0.139268
-0.106616
-0.0823781
-0.0656868
-0.0551301
-0.0496125
-0.0493155
-0.0550777
-0.0645821
-0.0715513
-0.0708431
-0.0639858
-0.0569858
-0.0545721
-0.0568916
-0.0646088
-0.0800078
-0.102885
-0.122235
-0.125879
-0.11037
-0.0853139
-0.0634895
-0.0464239
-0.0369222
-0.0307924
-0.0273058
-0.0255134
-0.0251385
-0.0267692
-0.0287828
-0.0345651
-0.0353502
-0.0382272
-0.0341286
-0.0113614
-0.231292
-0.197244
-0.166295
-0.136787
-0.116325
-0.0955092
-0.0783554
-0.0655566
-0.055144
-0.052128
-0.0498998
-0.0502605
-0.0545061
-0.0639302
-0.0799963
-0.103765
-0.134976
-0.17118
-0.20741
-0.236381
-0.249703
-0.241434
-0.213525
-0.175252
-0.136979
-0.104774
-0.0802263
-0.0626635
-0.0508264
-0.0436207
-0.0409566
-0.0436464
-0.0505549
-0.0566659
-0.057222
-0.0527458
-0.048375
-0.048422
-0.052868
-0.0626421
-0.0799664
-0.104767
-0.125711
-0.130207
-0.114303
-0.0877457
-0.0641202
-0.0455217
-0.034979
-0.0277151
-0.0233885
-0.0211646
-0.0209492
-0.0239071
-0.0273635
-0.0356651
-0.0375321
-0.0407466
-0.0366157
-0.0122367
-0.220301
-0.184594
-0.149397
-0.117204
-0.0892162
-0.064498
-0.0439051
-0.0280646
-0.0159452
-0.0139933
-0.0138344
-0.0174116
-0.0256244
-0.0393943
-0.0596956
-0.0869894
-0.120482
-0.157615
-0.19392
-0.222972
-0.23684
-0.230142
-0.20472
-0.16926
-0.133242
-0.102232
-0.0778791
-0.0598068
-0.047007
-0.0384482
-0.0338546
-0.0338601
-0.0382077
-0.0432116
-0.0447563
-0.041962
-0.0397579
-0.0418424
-0.0480682
-0.0595529
-0.0784368
-0.104895
-0.127298
-0.132742
-0.117009
-0.0895018
-0.0644161
-0.0445062
-0.0330999
-0.0249248
-0.0198712
-0.0171963
-0.0169365
-0.0210357
-0.0258691
-0.0366906
-0.0395957
-0.0430218
-0.0388722
-0.0130449
-0.214729
-0.179982
-0.144214
-0.110471
-0.079561
-0.0518136
-0.0282513
-0.0102332
0.000479272
0.00872226
0.00988124
0.00557935
-0.00426359
-0.0201406
-0.0425319
-0.0713686
-0.105446
-0.142189
-0.177624
-0.206177
-0.220259
-0.215311
-0.193058
-0.161293
-0.128325
-0.0991289
-0.0754194
-0.0571682
-0.0436924
-0.0340894
-0.0279718
-0.0257411
-0.0277051
-0.0314172
-0.0331625
-0.0318607
-0.0313839
-0.0350337
-0.0426275
-0.0554314
-0.0754696
-0.103261
-0.126948
-0.133543
-0.118473
-0.09056
-0.0643911
-0.0433943
-0.0312898
-0.0224002
-0.016729
-0.0136323
-0.0131335
-0.0181766
-0.0243014
-0.0376245
-0.0415172
-0.0450225
-0.0408703
-0.0137768
-0.212527
-0.180292
-0.146874
-0.114036
-0.0825961
-0.0535489
-0.0279079
-0.00652289
0.0113678
0.0187003
0.0211212
0.0179483
0.00868464
-0.00700788
-0.0292662
-0.0576656
-0.0907392
-0.125894
-0.159593
-0.186744
-0.201003
-0.197957
-0.179397
-0.151951
-0.122591
-0.0956781
-0.0730045
-0.0548831
-0.0409897
-0.0306128
-0.0233245
-0.0193008
-0.0191299
-0.0214269
-0.0229881
-0.0227497
-0.0234994
-0.0282198
-0.0367321
-0.0503516
-0.071128
-0.0999618
-0.124764
-0.132654
-0.118707
-0.0909578
-0.064129
-0.0422539
-0.0295761
-0.0201516
-0.0139663
-0.0104863
-0.00955768
-0.0153486
-0.0226593
-0.0384505
-0.0432726
-0.0467219
-0.0425838
-0.0144262
-0.212007
-0.183125
-0.153695
-0.123721
-0.0937212
-0.0651352
-0.0391122
-0.0166378
0.00020863
0.0145581
0.0207703
0.0204525
0.0136306
8.02594e-05
-0.0201159
-0.0463366
-0.0769736
-0.109532
-0.140674
-0.166198
-0.180145
-0.1793
-0.164895
-0.142187
-0.1168
-0.0925105
-0.0711837
-0.0534355
-0.0392965
-0.0283128
-0.0200878
-0.0146155
-0.0125583
-0.013375
-0.0144952
-0.0148137
-0.0162898
-0.0215738
-0.0305645
-0.0446057
-0.0657
-0.0950975
-0.12088
-0.130093
-0.117731
-0.0907682
-0.0637726
-0.0412147
-0.0280038
-0.0181648
-0.01161
-0.00782888
-0.0062201
-0.0125668
-0.0209451
-0.0391473
-0.0448335
-0.0480959
-0.0439836
-0.0149843
-0.211839
-0.186913
-0.161759
-0.134756
-0.106748
-0.0794668
-0.0536523
-0.0299873
-0.00974401
0.0046561
0.0129616
0.0162064
0.0130047
0.0028944
-0.0138475
-0.0366871
-0.0640905
-0.0934885
-0.121773
-0.145541
-0.158219
-0.159709
-0.149769
-0.132131
-0.111033
-0.0896541
-0.0699239
-0.0527486
-0.038491
-0.0270093
-0.0180378
-0.0113955
-0.00767438
-0.0070666
-0.00772625
-0.00823875
-0.00996947
-0.0153724
-0.02428
-0.0380657
-0.0591061
-0.0891849
-0.115669
-0.125838
-0.115401
-0.0897375
-0.0631171
-0.0401642
-0.0264952
-0.0162606
-0.00951364
-0.00569287
-0.0032013
-0.00984642
-0.0191306
-0.0397113
-0.0461678
-0.0491227
-0.0450358
-0.015425
-0.211689
-0.192913
-0.1724
-0.148448
-0.123552
-0.0992934
-0.0756788
-0.0529168
-0.0328395
-0.014111
-0.0014183
0.00490654
0.0055944
0.000167093
-0.0116772
-0.0293384
-0.0515471
-0.0761519
-0.100645
-0.120248
-0.134066
-0.137429
-0.131684
-0.118892
-0.10201
-0.0836985
-0.0659295
-0.0498357
-0.0359883
-0.0244808
-0.0152724
-0.00802446
-0.00310449
-0.00126122
-0.00162114
-0.00271104
-0.00442382
-0.00986669
-0.0185111
-0.0317291
-0.0521129
-0.0819927
-0.108638
-0.119894
-0.111166
-0.0870643
-0.0611488
-0.0382849
-0.0246206
-0.0140948
-0.00729392
-0.00358296
-0.000350686
-0.00726263
-0.0172769
-0.0400803
-0.0472536
-0.0497871
-0.0457531
-0.0157101
-0.197183
-0.189193
-0.169744
-0.146419
-0.123316
-0.100945
-0.0790215
-0.0577845
-0.0387504
-0.0219724
-0.00994947
-0.00265559
-0.000337743
-0.00379229
-0.0133127
-0.0285068
-0.0481497
-0.0702157
-0.0919116
-0.109866
-0.121058
-0.123636
-0.118153
-0.10656
-0.0914167
-0.074955
-0.0588457
-0.0440659
-0.0311289
-0.0201392
-0.0111618
-0.00386951
0.0015303
0.00432658
0.00470698
0.00389324
0.00221185
-0.00277821
-0.0104419
-0.0228709
-0.0433371
-0.0749899
-0.10406
-0.117173
-0.108619
-0.083943
-0.0580732
-0.0354479
-0.0223212
-0.0118306
-0.00506608
-0.000973219
0.00308872
-0.00421638
-0.015025
-0.0402471
-0.0483941
-0.0501972
-0.0462453
-0.0158558
-0.184012
-0.178534
-0.160548
-0.138888
-0.118128
-0.0985661
-0.0795869
-0.0612331
-0.0444646
-0.0298803
-0.0187021
-0.0115004
-0.00881688
-0.0111616
-0.0187059
-0.0310999
-0.0472535
-0.0653632
-0.0829468
-0.0971078
-0.105788
-0.107459
-0.102632
-0.0928605
-0.0800724
-0.0659644
-0.0518799
-0.0386662
-0.0268149
-0.0165043
-0.0079203
-0.000758639
0.00485546
0.00813574
0.00880756
0.00787843
0.00626172
0.00210787
-0.0045209
-0.0159415
-0.0359722
-0.0684315
-0.0985029
-0.111596
-0.103066
-0.0790181
-0.0542162
-0.0325191
-0.0199385
-0.00961815
-0.00314234
0.00111776
0.00537681
-0.00185083
-0.0132224
-0.0402938
-0.049318
-0.050157
-0.0462375
-0.0158737
-0.171146
-0.166479
-0.151103
-0.132058
-0.113792
-0.0968117
-0.0804655
-0.0646372
-0.0499061
-0.0370328
-0.0269454
-0.020287
-0.0174664
-0.0188044
-0.0243857
-0.0338556
-0.0462751
-0.0601571
-0.0736232
-0.0845546
-0.0911587
-0.0924443
-0.0886656
-0.0807793
-0.070142
-0.0580696
-0.0456969
-0.0338079
-0.0229103
-0.0132073
-0.00496797
0.00200682
0.00766206
0.0112752
0.0122836
0.0115043
0.00998237
0.00621136
0.000103032
-0.0108032
-0.0303684
-0.0620616
-0.0912042
-0.103994
-0.0961229
-0.0733794
-0.0500221
-0.0294291
-0.017465
-0.00743294
-0.00123925
0.00305539
0.00727998
7.70731e-05
-0.0118213
-0.0402289
-0.0499462
-0.049677
-0.0457642
-0.0158029
-0.157207
-0.154477
-0.142047
-0.125669
-0.109658
-0.094882
-0.080782
-0.0671516
-0.0543633
-0.0431154
-0.0341364
-0.0279386
-0.0248515
-0.0251181
-0.0287766
-0.0355198
-0.0446256
-0.0549815
-0.0651167
-0.0734016
-0.0784746
-0.0795011
-0.0764706
-0.0699871
-0.061051
-0.0506917
-0.0398444
-0.0291918
-0.0192298
-0.0101602
-0.00229845
0.00443285
0.0100214
0.0138804
0.0153212
0.0148615
0.0136035
0.0102966
0.00462149
-0.00587284
-0.0245372
-0.0545052
-0.0826095
-0.0953356
-0.0880947
-0.0669621
-0.0453565
-0.0261436
-0.0149141
-0.00526045
0.000652617
0.00484408
0.0090413
0.00186091
-0.0104292
-0.0398488
-0.0502116
-0.0487864
-0.0448049
-0.0156119
-0.143976
-0.143032
-0.133032
-0.119054
-0.105164
-0.0924022
-0.0803667
-0.0687369
-0.0577486
-0.0479582
-0.0399382
-0.0341165
-0.0307846
-0.0301305
-0.0321703
-0.0366712
-0.0430869
-0.0505457
-0.0579533
-0.0640389
-0.0677551
-0.0683779
-0.0658022
-0.0604008
-0.0528721
-0.0439818
-0.034479
-0.0249424
-0.0158537
-0.00741357
5.72958e-05
0.00652815
0.0119779
0.0159731
0.0178207
0.0177897
0.0170138
0.0143753
0.00934755
-0.000353184
-0.0175927
-0.0457732
-0.0729807
-0.0854994
-0.0789879
-0.0598215
-0.0402946
-0.0227101
-0.0123134
-0.00311666
0.00252577
0.0064732
0.0106352
0.00360625
-0.00884635
-0.0390173
-0.0500163
-0.047429
-0.0432946
-0.0152638
-0.131896
-0.13187
-0.123885
-0.112169
-0.100332
-0.0894516
-0.0792458
-0.0693879
-0.0599952
-0.0514897
-0.0443394
-0.0389124
-0.0354557
-0.0341113
-0.0348825
-0.0375886
-0.0418083
-0.046875
-0.0520406
-0.0562687
-0.0587636
-0.0589411
-0.0566414
-0.0520503
-0.0456327
-0.0379501
-0.029602
-0.0210648
-0.0127876
-0.00497058
0.00208874
0.0082901
0.0135605
0.0175907
0.0197847
0.020267
0.0201502
0.0183549
0.0142339
0.0056829
-0.00996626
-0.03632
-0.0623597
-0.0746696
-0.0690045
-0.0521153
-0.0349188
-0.019168
-0.00968798
-0.00102166
0.00436864
0.00795718
0.0120244
0.00530411
-0.00706527
-0.0376064
-0.0491928
-0.0455278
-0.04119
-0.0147265
-0.120206
-0.12093
-0.114787
-0.105155
-0.0952009
-0.0860085
-0.0774123
-0.069107
-0.0611257
-0.0537803
-0.0474504
-0.0424443
-0.038966
-0.0371236
-0.0369154
-0.0381956
-0.040645
-0.0439287
-0.0471907
-0.0498702
-0.051313
-0.0510379
-0.0488551
-0.0448332
-0.0392754
-0.0325833
-0.0252258
-0.0175826
-0.0100535
-0.00283982
0.00379057
0.00971202
0.014797
0.0187978
0.0212665
0.022264
0.0228928
0.0220988
0.0190886
0.0118339
-0.00219759
-0.0264726
-0.0510243
-0.0632181
-0.0584157
-0.0440465
-0.0293425
-0.0155686
-0.00706625
0.00100624
0.00617236
0.00932791
0.0131949
0.00692485
-0.00508648
-0.0354369
-0.0475442
-0.043031
-0.038479
-0.0139732
-0.108956
-0.110453
-0.105894
-0.0980693
-0.0897841
-0.0820919
-0.0749111
-0.0679648
-0.0612304
-0.0549298
-0.0493628
-0.0447838
-0.0413625
-0.0391871
-0.0382563
-0.0384444
-0.0394092
-0.0413249
-0.0431714
-0.0446025
-0.0451509
-0.0444332
-0.0422625
-0.0386386
-0.0337479
-0.0278655
-0.0213504
-0.0145005
-0.0076578
-0.00101892
0.00517433
0.0107989
0.0157024
0.0196441
0.0223212
0.0237832
0.0250989
0.0253901
0.0236746
0.0178249
0.00539368
-0.0167008
-0.0394164
-0.0494662
-0.0475237
-0.0358719
-0.0237065
-0.0119693
-0.00447426
0.00295308
0.0079288
0.0106318
0.0141622
0.00848006
-0.00284781
-0.0323226
-0.0448762
-0.0399114
-0.0351883
-0.0129883
-0.0985527
-0.100537
-0.097227
-0.0909424
-0.0841251
-0.0777578
-0.0718153
-0.0660518
-0.0604092
-0.0550389
-0.050174
-0.046023
-0.0427288
-0.0403683
-0.0389538
-0.0384317
-0.0387423
-0.0391414
-0.0397958
-0.0402203
-0.0400275
-0.0389122
-0.0367024
-0.0333574
-0.028983
-0.0237607
-0.0179602
-0.0118118
-0.00559798
0.000498487
0.00625861
0.0115683
0.0162826
0.0201559
0.0229903
0.0247973
0.026701
0.0279809
0.0276402
0.0232409
0.0122896
-0.00761542
-0.0282264
-0.0378534
-0.0368964
-0.0278836
-0.0181723
-0.00843303
-0.00193529
0.00481031
0.00962796
0.0119286
0.0149894
0.010033
-0.000272682
-0.0281346
-0.0410335
-0.0361751
-0.0313946
-0.0117753
-0.0889236
-0.0911184
-0.0888016
-0.0838332
-0.0782948
-0.0730821
-0.0682115
-0.0634692
-0.0587758
-0.0542296
-0.0500093
-0.0462836
-0.0431718
-0.0407392
-0.0389991
-0.0379068
-0.0373506
-0.0370405
-0.0368531
-0.0365102
-0.0357337
-0.0342864
-0.0320193
-0.0288735
-0.0249033
-0.0202233
-0.0150306
-0.00950101
-0.00386176
0.0017248
0.00706383
0.0120476
0.0165526
0.0203476
0.0233022
0.0253966
0.0276825
0.0296929
0.0304813
0.0273444
0.0178084
0.00034588
-0.0177442
-0.0267186
-0.0268999
-0.0203659
-0.012905
-0.00502703
0.000526327
0.00657572
0.0112593
0.0132825
0.0157874
0.0116687
0.00267494
-0.0228578
-0.0359613
-0.0318775
-0.0272288
-0.0103612
-0.0798426
-0.0821903
-0.080692
-0.0768278
-0.0723771
-0.0681526
-0.0641992
-0.0603315
-0.0564586
-0.0526383
-0.0490051
-0.0456942
-0.0428033
-0.0403874
-0.0384602
-0.0369901
-0.035892
-0.0350164
-0.0342186
-0.0333105
-0.0320932
-0.0303866
-0.0280681
-0.0250754
-0.0214302
-0.017201
-0.0125285
-0.00754465
-0.00242937
0.00267882
0.00761235
0.012266
0.0165408
0.0202349
0.0232593
0.0255736
0.0280561
0.0304312
0.031836
0.0296259
0.0215874
0.00695044
-0.00832067
-0.0165629
-0.0179087
-0.0135618
-0.0080519
-0.00181853
0.00287816
0.00824545
0.012811
0.0147415
0.0166908
0.0134643
0.00596428
-0.0166526
-0.0297792
-0.0271336
-0.0228673
-0.00880021
-0.0713696
-0.0738169
-0.0729559
-0.0699899
-0.0664471
-0.0630572
-0.0598805
-0.056756
-0.0535868
-0.050401
-0.0472981
-0.0443848
-0.0417408
-0.0394119
-0.0374121
-0.0357238
-0.0342899
-0.0330177
-0.0317957
-0.0304901
-0.0289588
-0.0270682
-0.0247209
-0.0218586
-0.0184845
-0.0146369
-0.010414
-0.00591324
-0.00127534
0.00338516
0.00792861
0.0122534
0.0162802
0.019841
0.0228696
0.0253205
0.0278501
0.0302604
0.0317907
0.0302107
0.0237067
0.0119977
-0.000450986
-0.00786899
-0.0102019
-0.00763146
-0.00371844
0.00113424
0.00508085
0.00980192
0.0142554
0.0163014
0.0178159
0.0154666
0.00947724
-0.00989364
-0.0228348
-0.022124
-0.0185102
-0.00716985
-0.0635734
-0.0659967
-0.0656006
-0.0633591
-0.0605705
-0.0578796
-0.0553546
-0.0528558
-0.0502855
-0.0476505
-0.0450226
-0.0424853
-0.0401029
-0.037914
-0.0359313
-0.0341474
-0.0325257
-0.0310066
-0.029512
-0.0279475
-0.0262127
-0.0242102
-0.0218649
-0.0191266
-0.0159891
-0.0124721
-0.00864309
-0.00457274
-0.000369975
0.0038728
0.00803994
0.0120402
0.0158044
0.0191976
0.0221651
0.024657
0.0271148
0.0293516
0.0307305
0.0295645
0.024444
0.0153763
0.00551146
-0.000895489
-0.00390072
-0.00263414
4.27883e-05
0.00378676
0.00709753
0.0112174
0.0155385
0.017869
0.0191976
0.0176559
0.0130039
-0.00313325
-0.0156927
-0.0170944
-0.0143547
-0.00556133
-0.0563601
-0.0586879
-0.0586362
-0.0569789
-0.0548115
-0.0526999
-0.0507155
-0.0487386
-0.046674
-0.0445135
-0.0423073
-0.0401199
-0.0380031
-0.0359892
-0.0340907
-0.0323029
-0.0306053
-0.0289605
-0.0273154
-0.0256056
-0.023761
-0.021712
-0.0194025
-0.0167922
-0.0138713
-0.0106484
-0.00716976
-0.00348599
0.000319202
0.00417234
0.00797806
0.0116592
0.0151482
0.0183419
0.021192
0.0236373
0.0259358
0.0279023
0.029035
0.0281332
0.0241546
0.0172555
0.00957867
0.00440827
0.0010271
0.0014543
0.00322645
0.00610783
0.0088961
0.0124683
0.016596
0.0192662
0.020685
0.019868
0.0162434
0.00301548
-0.00899423
-0.0123053
-0.0105653
-0.00406323
-0.0496714
-0.0518849
-0.0520858
-0.0508909
-0.0492266
-0.0475885
-0.046048
-0.0445023
-0.0428613
-0.0411065
-0.0392715
-0.0374057
-0.0355507
-0.0337317
-0.031961
-0.0302365
-0.0285474
-0.0268705
-0.0251712
-0.0234067
-0.0215295
-0.0194911
-0.0172511
-0.0147784
-0.0120635
-0.00910918
-0.00594756
-0.00261429
0.000825864
0.00431582
0.00777658
0.0111436
0.0143516
0.0173212
0.0200052
0.0223321
0.0244243
0.0261043
0.026997
0.0262781
0.0232221
0.018021
0.0119898
0.00650271
0.00464802
0.00470932
0.00585983
0.00808013
0.0104462
0.0135359
0.0173767
0.0202987
0.0219159
0.0217327
0.0187984
0.0080446
-0.00322
-0.00797101
-0.00725188
-0.00274592
-0.0435151
-0.0455857
-0.0459557
-0.0451192
-0.0438585
-0.0426041
-0.0414248
-0.0402325
-0.0389434
-0.0375327
-0.0360219
-0.0344481
-0.0328436
-0.0312288
-0.029613
-0.0279978
-0.0263775
-0.0247382
-0.023058
-0.0213096
-0.0194616
-0.0174815
-0.0153413
-0.0130183
-0.0105051
-0.00780166
-0.00493129
-0.00191902
0.00118444
0.00433543
0.00746794
0.0105287
0.0134555
0.016186
0.0186679
0.0208297
0.0227011
0.0241274
0.0248307
0.0242676
0.02196
0.0180923
0.013526
0.00944007
0.00747897
0.00725907
0.00798874
0.00970065
0.0117214
0.0143881
0.0178469
0.0208452
0.0225928
0.022808
0.0202922
0.0116666
0.00141407
-0.0042297
-0.00446844
-0.0016538
-0.0378614
-0.0397644
-0.0402393
-0.0396792
-0.0387406
-0.0377951
-0.0369071
-0.0360019
-0.0350028
-0.033882
-0.0326512
-0.0313382
-0.0299686
-0.028558
-0.027113
-0.0256362
-0.0241254
-0.0225731
-0.0209656
-0.0192862
-0.0175152
-0.0156315
-0.0136168
-0.0114553
-0.0091424
-0.00667752
-0.00407834
-0.00136283
0.0014287
0.00426323
0.00708456
0.00985025
0.0124996
0.0149834
0.0172467
0.0192212
0.0208818
0.0221026
0.0226797
0.0222681
0.020569
0.0177423
0.0143811
0.0113605
0.00957706
0.00920045
0.00965765
0.0109774
0.0127027
0.0149927
0.0179911
0.0208549
0.0225121
0.0228755
0.0206205
0.0138526
0.00486848
-0.00115628
-0.00222413
-0.000799876
-0.0326668
-0.0343973
-0.0349321
-0.0345827
-0.0338988
-0.0331995
-0.0325444
-0.0318703
-0.0311082
-0.0302292
-0.0292387
-0.0281568
-0.0270028
-0.025789
-0.0245199
-0.0231977
-0.0218221
-0.0203896
-0.0188921
-0.0173196
-0.0156605
-0.0139018
-0.0120325
-0.0100424
-0.00792964
-0.00569394
-0.00334986
-0.000910545
0.00159115
0.00413008
0.00665796
0.00914077
0.0115225
0.0137632
0.0158037
0.0175854
0.019058
0.0201228
0.0206294
0.0203681
0.0191638
0.0171459
0.0147344
0.0125203
0.0110441
0.0106174
0.0109094
0.0119282
0.0133849
0.0153359
0.017831
0.020372
0.0217857
0.0220965
0.0200214
0.014788
0.00720071
0.00123068
-0.000486706
-0.000166132
-0.0279078
-0.0294663
-0.0300262
-0.0298343
-0.0293497
-0.0288452
-0.0283747
-0.0278852
-0.0273155
-0.026637
-0.0258507
-0.0249703
-0.0240109
-0.0229821
-0.0218867
-0.0207254
-0.0194986
-0.0182054
-0.0168414
-0.0154009
-0.0138775
-0.0122638
-0.010554
-0.00874212
-0.00682864
-0.00481422
-0.00271139
-0.000530191
0.00170172
0.00396471
0.00621759
0.008433
0.0105603
0.0125658
0.0143902
0.0159857
0.0172985
0.0182495
0.0187272
0.0186097
0.0178055
0.0164091
0.0147274
0.0131615
0.0119952
0.011589
0.0117867
0.0125773
0.0137836
0.0154194
0.0174176
0.0195235
0.0206314
0.0207922
0.0188648
0.0147862
0.00855928
0.00297286
0.000808095
0.000283837
-0.0235589
-0.0249484
-0.025508
-0.0254321
-0.0251027
-0.0247515
-0.0244264
-0.0240832
-0.0236684
-0.0231547
-0.0225404
-0.0218348
-0.0210484
-0.0201892
-0.0192595
-0.018258
-0.0171845
-0.0160398
-0.014822
-0.013528
-0.0121544
-0.0106977
-0.00915555
-0.00752521
-0.00580876
-0.00400778
-0.00213348
-0.000194368
0.00178643
0.00379324
0.00579048
0.0077559
0.00964424
0.0114267
0.013048
0.0144682
0.0156518
0.0165201
0.0169946
0.0170084
0.0165207
0.0155945
0.0144651
0.0134466
0.0125248
0.0121849
0.0123358
0.012953
0.0139266
0.0152664
0.0168091
0.0184532
0.0192458
0.0192396
0.0174544
0.0141867
0.0091638
0.00415284
0.00173129
0.000589962
-0.0195918
-0.0208204
-0.0213625
-0.0213708
-0.0211615
-0.02093
-0.0207186
-0.0204906
-0.0201996
-0.0198207
-0.0193502
-0.0187942
-0.0181599
-0.0174536
-0.016678
-0.0158296
-0.0149073
-0.0139123
-0.0128447
-0.011703
-0.0104856
-0.00919116
-0.00781956
-0.00637023
-0.00484636
-0.00325036
-0.0015924
0.000120172
0.00186772
0.00363721
0.0053987
0.0071337
0.00880182
0.0103785
0.0118126
0.0130529
0.0141497
0.0149558
0.0154383
0.0155637
0.0153201
0.0147438
0.0139912
0.013153
0.0126838
0.012467
0.0126026
0.013088
0.0138527
0.0149156
0.0160617
0.0172765
0.0177738
0.0176168
0.0159781
0.0132687
0.00924073
0.00487173
0.00234828
0.000786812
-0.0159822
-0.0170604
-0.0175739
-0.0176418
-0.0175248
-0.0173862
-0.0172631
-0.017125
-0.0169326
-0.0166632
-0.0163122
-0.0158839
-0.0153827
-0.0148128
-0.0141748
-0.0134685
-0.0126906
-0.0118413
-0.0109216
-0.0099315
-0.00887027
-0.00773767
-0.00653476
-0.00526241
-0.00392443
-0.00252371
-0.00106947
0.000431716
0.00196323
0.00351403
0.00505884
0.00658273
0.00805158
0.00944704
0.0107342
0.0119144
0.0128313
0.0135662
0.0140551
0.0142701
0.0142128
0.0139011
0.0134544
0.0129421
0.0126364
0.0125086
0.0126363
0.0130185
0.0136014
0.0144138
0.015226
0.0160632
0.0163069
0.0160247
0.0145373
0.0122231
0.00897671
0.00523211
0.0027107
0.000902931
-0.0127069
-0.0136465
-0.0141246
-0.0142337
-0.0141871
-0.0141204
-0.0140654
-0.0139972
-0.0138825
-0.0137015
-0.0134491
-0.0131279
-0.0127409
-0.012289
-0.0117745
-0.0111979
-0.010555
-0.0098438
-0.00906547
-0.00822115
-0.00731102
-0.00633522
-0.00529526
-0.00419274
-0.00303164
-0.00181516
-0.000551439
0.000753574
0.0020856
0.00343549
0.00478195
0.00611218
0.00739864
0.00862569
0.00975871
0.0107814
0.0116405
0.0123349
0.0128323
0.0131165
0.0131979
0.0130839
0.0128678
0.0125891
0.0124196
0.0123623
0.0124827
0.0127811
0.0132096
0.0138047
0.0143444
0.0148741
0.0149042
0.0145191
0.0131813
0.0111642
0.00851016
0.00532862
0.00290168
0.000962278
-0.00974378
-0.0105574
-0.010997
-0.0111337
-0.0111405
-0.011129
-0.0111262
-0.0111119
-0.0110582
-0.0109481
-0.0107766
-0.0105448
-0.0102548
-0.00990707
-0.00950198
-0.0090393
-0.00851787
-0.00793417
-0.00728792
-0.00658047
-0.00581274
-0.00498521
-0.00409935
-0.00315693
-0.00216181
-0.00111721
-3.02301e-05
0.00109369
0.00224269
0.00340872
0.00457418
0.00572862
0.00684852
0.00792132
0.00891808
0.00982198
0.0106066
0.0112572
0.0117569
0.0120905
0.012271
0.0123008
0.0122496
0.0121348
0.0120725
0.0120709
0.0121829
0.0124121
0.0127129
0.0131236
0.0134447
0.013731
0.0135987
0.0131296
0.0119297
0.0101528
0.00793797
0.00524048
0.00295907
0.000978652
-0.00707255
-0.00777327
-0.00817362
-0.00832785
-0.00837483
-0.0084056
-0.00844254
-0.00846947
-0.00846341
-0.00840993
-0.00830434
-0.00814689
-0.00793889
-0.00768043
-0.00736969
-0.00700647
-0.00659276
-0.00612473
-0.00559981
-0.00501841
-0.00438202
-0.00369164
-0.00294865
-0.00215466
-0.00131308
-0.000426973