/*--------------------------------*- C++ -*----------------------------------*\
| =========                 |                                                 |
| \\      /  F ield         | OpenFOAM: The Open Source CFD Toolbox           |
|  \\    /   O peration     | Version:  2512                                  |
|   \\  /    A nd           | Website:  www.openfoam.com                      |
|    \\/     M anipulation  |                                                 |
\*---------------------------------------------------------------------------*/
FoamFile
{
    version     2.0;
    format      ascii;
    arch        "LSB;label=32;scalar=64";
    class       volScalarField;
    location    "125.5";
    object      p;
}
// * * * * * * * * * * * * * * * * * * * * * * * * * * * * * * * * * * * * * //

dimensions      [0 2 -2 0 0 0 0];

internalField   nonuniform List<scalar> 
13248
(
-0.351559
-0.350485
-0.349062
-0.347329
-0.345241
-0.342684
-0.339484
-0.335436
-0.330338
-0.324016
-0.316355
-0.307317
-0.296956
-0.285418
-0.272929
-0.259769
-0.246247
-0.232668
-0.219305
-0.206396
-0.194081
-0.182569
-0.171668
-0.161761
-0.359933
-0.357823
-0.355461
-0.352856
-0.349927
-0.346571
-0.342611
-0.337826
-0.331997
-0.324948
-0.316575
-0.306872
-0.295937
-0.283959
-0.271197
-0.257944
-0.244495
-0.231122
-0.218052
-0.205461
-0.193461
-0.182151
-0.171431
-0.161521
-0.36916
-0.365953
-0.362575
-0.359014
-0.355153
-0.350893
-0.346047
-0.34037
-0.333627
-0.325644
-0.316349
-0.305786
-0.294109
-0.281557
-0.268416
-0.254983
-0.241532
-0.228297
-0.215458
-0.203144
-0.191422
-0.180359
-0.169853
-0.160012
-0.379486
-0.375097
-0.37065
-0.366083
-0.361218
-0.355943
-0.35004
-0.34324
-0.335301
-0.326084
-0.315579
-0.303908
-0.291299
-0.278041
-0.264438
-0.250775
-0.237291
-0.22417
-0.211539
-0.199478
-0.188021
-0.177207
-0.166931
-0.157365
-0.391128
-0.385462
-0.379899
-0.374287
-0.368338
-0.361889
-0.354687
-0.346446
-0.336961
-0.326172
-0.314177
-0.301201
-0.287546
-0.273535
-0.259465
-0.245584
-0.232073
-0.219058
-0.206613
-0.194776
-0.183558
-0.172963
-0.162918
-0.153557
-0.404187
-0.397148
-0.390434
-0.38373
-0.376568
-0.368706
-0.359864
-0.349785
-0.338362
-0.325679
-0.311974
-0.297578
-0.282845
-0.268094
-0.253584
-0.239499
-0.225957
-0.213024
-0.20073
-0.189079
-0.178063
-0.167666
-0.157831
-0.148661
-0.418585
-0.410107
-0.40221
-0.394328
-0.38574
-0.376121
-0.365205
-0.352848
-0.339123
-0.324304
-0.308776
-0.292946
-0.277176
-0.261742
-0.246833
-0.232561
-0.21898
-0.206107
-0.193935
-0.182445
-0.171608
-0.161395
-0.151768
-0.142768
-0.434024
-0.424094
-0.414981
-0.405769
-0.39544
-0.383615
-0.370141
-0.355093
-0.338794
-0.321721
-0.304374
-0.287182
-0.270462
-0.254416
-0.239151
-0.224706
-0.211082
-0.198254
-0.186186
-0.174841
-0.164176
-0.154153
-0.14474
-0.135913
-0.449971
-0.438643
-0.428267
-0.417493
-0.405004
-0.390467
-0.373978
-0.355931
-0.336934
-0.317632
-0.298576
-0.280156
-0.262604
-0.246029
-0.230457
-0.215865
-0.202207
-0.189427
-0.177466
-0.16627
-0.155786
-0.145969
-0.136783
-0.128145
-0.465655
-0.453042
-0.441324
-0.428668
-0.413538
-0.395807
-0.375963
-0.354788
-0.333144
-0.311773
-0.291199
-0.271722
-0.25347
-0.236458
-0.220639
-0.205939
-0.192274
-0.179565
-0.167732
-0.156707
-0.146425
-0.136837
-0.127888
-0.119462
-0.480086
-0.466334
-0.453146
-0.438217
-0.419964
-0.398658
-0.375297
-0.351048
-0.32695
-0.303753
-0.281892
-0.261546
-0.242734
-0.225388
-0.209399
-0.194653
-0.181037
-0.168446
-0.156789
-0.145981
-0.135949
-0.126633
-0.117946
-0.109783
-0.492148
-0.477448
-0.462638
-0.445018
-0.423192
-0.398028
-0.371105
-0.343928
-0.317623
-0.292867
-0.269957
-0.248943
-0.229736
-0.212191
-0.19615
-0.18146
-0.167985
-0.155602
-0.144203
-0.133694
-0.123997
-0.115036
-0.106701
-0.0989362
-0.351625
-0.35361
-0.354744
-0.35551
-0.356388
-0.357562
-0.359103
-0.361025
-0.363308
-0.365918
-0.368811
-0.371932
-0.375215
-0.378573
-0.381891
-0.385026
-0.3878
-0.390002
-0.391393
-0.391706
-0.390642
-0.38824
-0.384147
-0.378669
-0.342426
-0.345089
-0.346551
-0.347397
-0.348169
-0.349034
-0.350038
-0.351174
-0.352403
-0.353666
-0.354892
-0.356005
-0.356918
-0.357532
-0.357736
-0.357403
-0.356397
-0.354572
-0.351785
-0.347903
-0.342778
-0.336382
-0.328815
-0.321227
-0.334346
-0.337522
-0.339229
-0.340119
-0.340768
-0.341318
-0.34179
-0.342155
-0.342352
-0.342297
-0.341897
-0.341055
-0.339667
-0.337625
-0.334823
-0.331155
-0.326526
-0.320852
-0.314071
-0.30618
-0.297086
-0.286885
-0.275795
-0.265754
-0.327874
-0.331376
-0.333237
-0.334141
-0.334665
-0.334923
-0.334907
-0.334569
-0.333824
-0.332571
-0.330697
-0.328087
-0.32463
-0.320216
-0.314749
-0.308149
-0.300358
-0.291347
-0.281122
-0.269748
-0.257456
-0.24424
-0.230294
-0.217764
-0.323342
-0.326978
-0.328901
-0.329787
-0.330189
-0.330186
-0.329745
-0.328795
-0.327234
-0.324943
-0.321798
-0.317677
-0.312463
-0.306057
-0.29838
-0.289387
-0.279066
-0.26745
-0.254623
-0.240736
-0.226037
-0.210766
-0.194901
-0.179452
-0.320925
-0.324506
-0.326394
-0.327227
-0.327505
-0.327274
-0.326472
-0.32501
-0.322769
-0.319619
-0.315429
-0.310073
-0.303441
-0.29545
-0.286047
-0.275227
-0.263032
-0.249565
-0.234989
-0.219538
-0.203531
-0.187314
-0.171056
-0.155695
-0.320642
-0.323986
-0.325741
-0.326475
-0.326621
-0.326187
-0.325087
-0.323211
-0.32043
-0.316604
-0.311598
-0.305289
-0.297579
-0.288405
-0.277749
-0.265648
-0.252205
-0.237587
-0.222032
-0.205844
-0.189389
-0.173062
-0.157323
-0.141532
-0.322371
-0.325303
-0.32682
-0.327402
-0.327395
-0.326772
-0.325424
-0.323224
-0.320031
-0.315699
-0.310092
-0.303095
-0.294624
-0.284642
-0.273168
-0.26029
-0.246164
-0.231021
-0.21516
-0.198934
-0.182761
-0.166871
-0.152523
-0.136659
-0.325873
-0.328234
-0.329406
-0.32976
-0.329555
-0.328731
-0.327159
-0.324693
-0.321181
-0.316472
-0.310431
-0.302952
-0.293972
-0.283484
-0.271547
-0.258299
-0.24395
-0.228785
-0.213149
-0.197404
-0.182059
-0.166995
-0.154311
-0.139558
-0.330832
-0.33248
-0.333186
-0.333217
-0.332738
-0.33166
-0.329836
-0.327105
-0.323304
-0.318275
-0.311886
-0.304044
-0.294709
-0.283909
-0.271748
-0.258413
-0.244162
-0.229319
-0.214253
-0.199312
-0.185022
-0.171147
-0.159741
-0.147016
-0.336922
-0.337742
-0.337854
-0.337431
-0.336553
-0.335113
-0.33295
-0.329888
-0.325751
-0.320378
-0.313642
-0.305465
-0.295836
-0.284822
-0.272572
-0.259315
-0.245343
-0.230996
-0.216633
-0.202589
-0.189262
-0.176654
-0.16599
-0.155238
-0.34388
-0.343783
-0.343169
-0.342143
-0.340713
-0.338765
-0.336132
-0.332623
-0.328052
-0.322254
-0.315107
-0.306554
-0.296614
-0.285392
-0.273079
-0.259933
-0.246262
-0.232395
-0.218648
-0.205323
-0.192653
-0.180865
-0.170375
-0.160838
-0.370535
-0.357685
-0.341057
-0.321158
-0.299242
-0.277291
-0.257583
-0.242321
-0.234443
-0.234784
-0.243012
-0.256816
-0.271915
-0.282815
-0.283974
-0.271036
-0.243885
-0.20692
-0.16807
-0.134537
-0.110095
-0.0953456
-0.0891375
-0.0901257
-0.0984274
-0.115093
-0.13764
-0.157124
-0.162639
-0.151172
-0.128239
-0.103477
-0.0839708
-0.0723566
-0.0675795
-0.0689732
-0.0785545
-0.0955534
-0.111338
-0.113633
-0.103621
-0.0856661
-0.0687062
-0.0571392
-0.0507784
-0.051419
-0.0570335
-0.0605315
-0.0575888
-0.0519292
-0.0448047
-0.040071
-0.0370421
-0.0359227
-0.036205
-0.0352598
-0.0294342
-0.023285
-0.0124945
-0.00209412
-0.312668
-0.301652
-0.288688
-0.274454
-0.259707
-0.246538
-0.236576
-0.232007
-0.234413
-0.244227
-0.260167
-0.27927
-0.297152
-0.308696
-0.308804
-0.293572
-0.262816
-0.221592
-0.178494
-0.141102
-0.113165
-0.0950648
-0.0855651
-0.083262
-0.0878521
-0.100205
-0.118749
-0.136102
-0.142628
-0.134304
-0.115699
-0.0950347
-0.0790857
-0.0704882
-0.0683027
-0.0722466
-0.0846908
-0.104421
-0.121915
-0.123
-0.112477
-0.0918485
-0.071795
-0.0576695
-0.048991
-0.0474368
-0.0508426
-0.053123
-0.0508581
-0.0467714
-0.041961
-0.0390944
-0.0384976
-0.0392084
-0.0404167
-0.0397047
-0.0327165
-0.0256794
-0.0132463
-0.00184824
-0.257135
-0.247556
-0.237673
-0.229237
-0.220889
-0.21579
-0.214958
-0.21984
-0.231203
-0.248641
-0.270258
-0.292877
-0.312391
-0.324209
-0.323861
-0.307324
-0.274478
-0.230723
-0.185008
-0.145064
-0.114599
-0.0938187
-0.0814141
-0.0759652
-0.0769264
-0.0849541
-0.0993246
-0.114309
-0.121505
-0.116234
-0.101895
-0.0853354
-0.0730133
-0.067508
-0.0679806
-0.0744877
-0.0896495
-0.111916
-0.131181
-0.132809
-0.120489
-0.0973194
-0.0743837
-0.057859
-0.0470731
-0.043551
-0.0449529
-0.0460708
-0.0443188
-0.0415769
-0.0389459
-0.0379483
-0.0399222
-0.0425371
-0.044576
-0.044008
-0.0358513
-0.0279532
-0.0139762
-0.00162523
-0.210095
-0.201513
-0.192899
-0.190655
-0.187448
-0.188843
-0.195199
-0.207361
-0.225202
-0.24776
-0.27291
-0.297538
-0.31791
-0.330013
-0.329458
-0.31247
-0.278923
-0.234349
-0.187713
-0.146637
-0.114672
-0.0919518
-0.077173
-0.0689462
-0.0665407
-0.0704361
-0.0805869
-0.0928719
-0.100202
-0.0976028
-0.0873113
-0.0747037
-0.0659212
-0.0634238
-0.0664631
-0.0753667
-0.0929825
-0.117611
-0.138762
-0.142101
-0.127435
-0.101954
-0.0764462
-0.057743
-0.0450876
-0.0398566
-0.0394952
-0.0395046
-0.0380731
-0.0364219
-0.0358006
-0.0366348
-0.0412926
-0.0458751
-0.0486456
-0.0481239
-0.0388003
-0.0300797
-0.0146744
-0.00142347
-0.175371
-0.167022
-0.161414
-0.159613
-0.160967
-0.167094
-0.178408
-0.1951
-0.216737
-0.24207
-0.268904
-0.294293
-0.314989
-0.327107
-0.326589
-0.309795
-0.276797
-0.233072
-0.187215
-0.146376
-0.113846
-0.089832
-0.0731975
-0.0626372
-0.0573262
-0.0574444
-0.0634389
-0.0727432
-0.0795929
-0.0790667
-0.0724244
-0.0634311
-0.0579418
-0.0582131
-0.0636054
-0.0746363
-0.0944003
-0.121171
-0.144203
-0.148258
-0.133026
-0.105658
-0.0779858
-0.0573759
-0.0430954
-0.0364089
-0.0345388
-0.0335178
-0.0322263
-0.0313867
-0.0325639
-0.0351522
-0.0425787
-0.0491777
-0.0525766
-0.0520001
-0.0415242
-0.0320325
-0.0153311
-0.00124137
-0.151036
-0.143615
-0.139159
-0.138676
-0.142506
-0.151187
-0.164907
-0.183609
-0.206691
-0.232809
-0.259785
-0.284837
-0.305223
-0.317175
-0.316702
-0.30058
-0.269161
-0.227728
-0.184138
-0.144745
-0.11251
-0.0877898
-0.0697543
-0.0572875
-0.0495494
-0.046479
-0.0485947
-0.054704
-0.0605117
-0.0612957
-0.0576769
-0.0518196
-0.0492349
-0.0519316
-0.0593936
-0.0722312
-0.0937611
-0.122377
-0.14739
-0.153678
-0.137157
-0.108353
-0.0790013
-0.0567991
-0.0411371
-0.0332319
-0.0301115
-0.028163
-0.0268622
-0.0265449
-0.029272
-0.0334974
-0.0437402
-0.0523835
-0.0563168
-0.0555883
-0.0439868
-0.0337861
-0.0159337
-0.00107601
-0.138017
-0.131399
-0.126783
-0.126476
-0.131044
-0.14048
-0.154665
-0.173416
-0.196114
-0.221452
-0.247372
-0.271228
-0.290264
-0.30188
-0.301385
-0.286338
-0.257384
-0.219414
-0.179234
-0.142223
-0.110991
-0.086083
-0.0670447
-0.0530491
-0.0433128
-0.0376089
-0.0363554
-0.0392773
-0.0436334
-0.0463072
-0.0435605
-0.040251
-0.040069
-0.0447709
-0.0539507
-0.0681848
-0.0910141
-0.121124
-0.148183
-0.16141
-0.139662
-0.109967
-0.079483
-0.0560382
-0.0392367
-0.0303247
-0.026195
-0.0234481
-0.0220387
-0.0219625
-0.0259608
-0.0316657
-0.0447284
-0.055423
-0.0598161
-0.0588451
-0.0461552
-0.0353191
-0.0164692
-0.000922342
-0.134547
-0.128748
-0.123073
-0.121604
-0.125506
-0.134281
-0.147453
-0.164807
-0.185773
-0.209115
-0.232978
-0.255393
-0.272931
-0.282913
-0.282143
-0.268515
-0.242763
-0.209104
-0.173088
-0.139085
-0.109393
-0.0847499
-0.0650835
-0.0499129
-0.038585
-0.0307721
-0.0267265
-0.0266616
-0.0290955
-0.0312293
-0.0303632
-0.0291415
-0.0307829
-0.0369936
-0.0474606
-0.06266
-0.0862705
-0.117414
-0.145942
-0.158838
-0.139996
-0.110453
-0.0794261
-0.0551147
-0.0374118
-0.0276824
-0.0227566
-0.0193436
-0.0177818
-0.0176951
-0.0226655
-0.0296549
-0.0454909
-0.0582236
-0.0630257
-0.0617302
-0.048002
-0.0366172
-0.0169334
-0.000773967
-0.138409
-0.133061
-0.12587
-0.12278
-0.12499
-0.131814
-0.14275
-0.157627
-0.175862
-0.196216
-0.21712
-0.237186
-0.25288
-0.261183
-0.260296
-0.248541
-0.226568
-0.197708
-0.166217
-0.135551
-0.107763
-0.0837785
-0.0638528
-0.0478451
-0.0352999
-0.0258502
-0.019585
-0.0168758
-0.0171915
-0.018463
-0.0186209
-0.0188591
-0.0217196
-0.0289095
-0.0401755
-0.0558067
-0.0796864
-0.11147
-0.141058
-0.154196
-0.138451
-0.10989
-0.078927
-0.054135
-0.0357372
-0.0253247
-0.0197866
-0.0158304
-0.0140936
-0.0137804
-0.019421
-0.0274576
-0.0459802
-0.0607071
-0.0658956
-0.0642107
-0.0495091
-0.0376717
-0.0173329
-0.000626666
-0.145661
-0.140153
-0.13226
-0.127893
-0.127875
-0.131839
-0.139704
-0.151352
-0.166148
-0.183012
-0.20059
-0.217056
-0.230706
-0.238
-0.237609
-0.228234
-0.210404
-0.186496
-0.159592
-0.132389
-0.106747
-0.0837426
-0.0638773
-0.0472942
-0.033785
-0.0230262
-0.0149809
-0.00999534
-0.00814023
-0.00821367
-0.00867996
-0.00965938
-0.013153
-0.0207962
-0.0323907
-0.0480819
-0.0717636
-0.103543
-0.133961
-0.14788
-0.135291
-0.108472
-0.0781816
-0.0533015
-0.0343661
-0.0232975
-0.0172525
-0.01291
-0.0110241
-0.0102488
-0.0162485
-0.0250941
-0.0461405
-0.062784
-0.0683726
-0.0662579
-0.0506629
-0.0384691
-0.0176621
-0.000476623
-0.152297
-0.146314
-0.138965
-0.134019
-0.131966
-0.132955
-0.137509
-0.145557
-0.156608
-0.169827
-0.184305
-0.197691
-0.208231
-0.214772
-0.215303
-0.208701
-0.195187
-0.176223
-0.153877
-0.130199
-0.106852
-0.0850223
-0.0654241
-0.0484355
-0.0341023
-0.0222527
-0.012773
-0.00585713
-0.00187699
-0.000524299
-0.000666174
-0.00179371
-0.00541112
-0.0129582
-0.0242645
-0.039383
-0.0624784
-0.0944112
-0.125442
-0.139866
-0.130545
-0.105993
-0.0769204
-0.0523953
-0.0331584
-0.0214981
-0.0149458
-0.0103924
-0.00856438
-0.00724631
-0.0131926
-0.0225058
-0.0459317
-0.0644013
-0.0703996
-0.0678024
-0.0514141
-0.0389785
-0.0178607
-0.000300181
-0.156061
-0.150555
-0.144434
-0.139008
-0.135576
-0.134633
-0.136359
-0.140783
-0.147665
-0.156709
-0.167487
-0.178001
-0.186125
-0.191106
-0.192034
-0.187672
-0.1778
-0.163096
-0.144813
-0.12447
-0.103531
-0.0832187
-0.0643956
-0.0475932
-0.0330058
-0.0206605
-0.0104628
-0.00233686
0.00336302
0.00610649
0.00633384
0.00496949
0.00128711
-0.00591033
-0.0166783
-0.0310273
-0.0529365
-0.0838726
-0.11478
-0.129682
-0.123126
-0.101323
-0.0737391
-0.0500631
-0.0310884
-0.0193711
-0.0124719
-0.00780687
-0.00614232
-0.00448898
-0.0103534
-0.0198913
-0.045281
-0.0654205
-0.0719415
-0.0688117
-0.0516742
-0.0391659
-0.017834
-4.57742e-05
-0.153242
-0.150924
-0.145293
-0.139635
-0.135878
-0.13443
-0.135247
-0.138366
-0.143697
-0.150912
-0.1593
-0.167203
-0.173618
-0.177382
-0.17732
-0.172586
-0.163078
-0.149394
-0.132592
-0.113951
-0.0947151
-0.0759266
-0.0583337
-0.0424155
-0.0283555
-0.0162163
-0.0059617
0.00251456
0.00901273
0.012948
0.0140882
0.0133344
0.00936309
0.00301866
-0.00647918
-0.0197917
-0.041538
-0.0741676
-0.108095
-0.125485
-0.118878
-0.0964544
-0.0692258
-0.0463014
-0.0279411
-0.016785
-0.00997868
-0.00525086
-0.00323687
-0.000551933
-0.00662276
-0.0163621
-0.0439453
-0.0664599
-0.0734806
-0.0697525
-0.0515639
-0.0390744
-0.0176225
0.000239032
-0.14955
-0.148834
-0.143629
-0.137933
-0.134077
-0.132472
-0.132876
-0.135105
-0.138987
-0.144164
-0.149801
-0.155381
-0.159692
-0.161617
-0.16031
-0.155237
-0.146342
-0.134074
-0.119226
-0.10277
-0.08567
-0.0687666
-0.0527027
-0.0379193
-0.0246191
-0.0129422
-0.0029031
0.00565973
0.0125891
0.0171426
0.018645
0.0175905
0.0146367
0.00940937
0.00123831
-0.0109036
-0.0321409
-0.0654805
-0.100326
-0.117711
-0.110759
-0.0891389
-0.0634977
-0.0421895
-0.0249789
-0.0143764
-0.00766892
-0.00311461
-0.00102144
0.00176377
-0.00397825
-0.013586
-0.0426221
-0.0671329
-0.0742163
-0.0698372
-0.0509414
-0.0385138
-0.0172663
0.000385383
-0.143375
-0.144123
-0.139926
-0.134639
-0.13089
-0.129228
-0.129284
-0.13067
-0.133146
-0.136465
-0.140136
-0.143589
-0.145945
-0.146419
-0.144389
-0.139434
-0.131443
-0.120674
-0.107665
-0.0931411
-0.0778675
-0.0625565
-0.0477812
-0.0339729
-0.0213538
-0.0100835
-0.000249435
0.00824886
0.015324
0.020319
0.0223957
0.0217972
0.0192367
0.0147594
0.0073794
-0.00423396
-0.0250664
-0.0573665
-0.0905835
-0.107564
-0.101183
-0.0811164
-0.0575022
-0.0379501
-0.0219541
-0.0119621
-0.0054459
-0.00106182
0.00104576
0.00376468
-0.00193825
-0.0115433
-0.0414063
-0.067198
-0.0741912
-0.0692551
-0.0499042
-0.0375977
-0.0168307
0.000463863
-0.135252
-0.137714
-0.134802
-0.130149
-0.126581
-0.124825
-0.124517
-0.125192
-0.126588
-0.128498
-0.130572
-0.132366
-0.133304
-0.132794
-0.13031
-0.125486
-0.118191
-0.108578
-0.0970389
-0.0841301
-0.0704604
-0.0566172
-0.0430869
-0.0302635
-0.0183734
-0.0075794
0.00197864
0.0103145
0.0173885
0.0227275
0.0254488
0.0255043
0.0236333
0.0200447
0.0134058
0.00219996
-0.0178129
-0.0481525
-0.079664
-0.0963465
-0.0905792
-0.0723802
-0.0510443
-0.033445
-0.0188433
-0.00956084
-0.00330332
0.000931168
0.00300378
0.0056954
-6.19874e-05
-0.00960309
-0.0397297
-0.0664262
-0.0734584
-0.0680248
-0.0484508
-0.0363161
-0.0162752
0.000495972
-0.126495
-0.130211
-0.128468
-0.124534
-0.121229
-0.119428
-0.118851
-0.119016
-0.119613
-0.120452
-0.121321
-0.121917
-0.121811
-0.120536
-0.117675
-0.112936
-0.106205
-0.0975758
-0.0873229
-0.0758549
-0.0636356
-0.0511382
-0.0387725
-0.0268941
-0.0157361
-0.00546235
0.00376702
0.0118912
0.0188564
0.0243575
0.0276443
0.0284518
0.027553
0.0251369
0.019615
0.0092625
-0.00958885
-0.0382117
-0.0680982
-0.083946
-0.0790192
-0.0630704
-0.0442957
-0.0287853
-0.0156946
-0.00719096
-0.00124949
0.00285853
0.00484014
0.00749073
0.00177626
-0.0074215
-0.0372946
-0.0646741
-0.071854
-0.0660285
-0.0465304
-0.0346508
-0.0155827
0.000486886
-0.117403
-0.121857
-0.121119
-0.117943
-0.114996
-0.11324
-0.112495
-0.112295
-0.112318
-0.112404
-0.112412
-0.112124
-0.111227
-0.109377
-0.106261
-0.101648
-0.0954347
-0.0876664
-0.0785243
-0.0683054
-0.057364
-0.046082
-0.0348039
-0.0238415
-0.0134223
-0.00371193
0.00512742
0.0129931
0.0197825
0.0253015
0.0288424
0.0305243
0.0306627
0.0296277
0.025645
0.0165021
-0.0013001
-0.0283757
-0.0561169
-0.0706364
-0.0668141
-0.0534625
-0.0374279
-0.0240531
-0.0125393
-0.00486575
0.000703283
0.0047073
0.00656339
0.0091316
0.00358103
-0.0050021
-0.0340638
-0.0617409
-0.0691688
-0.063176
-0.0441207
-0.0326058
-0.0147336
0.000446606
-0.108022
-0.112953
-0.113054
-0.110608
-0.108068
-0.106429
-0.105601
-0.105168
-0.104817
-0.104393
-0.103795
-0.102878
-0.10143
-0.099203
-0.0959566
-0.0915085
-0.0857629
-0.0787364
-0.0705504
-0.0614222
-0.0516208
-0.0414484
-0.03119
-0.0211132
-0.0114316
-0.00231228
0.00608315
0.0136432
0.0202234
0.025696
0.0295149
0.0317584
0.0327841
0.0330434
0.0306857
0.0228323
0.00610575
-0.0190599
-0.0440066
-0.0569586
-0.0543879
-0.0438536
-0.0306287
-0.0193542
-0.00941822
-0.00259872
0.00254881
0.00646995
0.00819316
0.0106246
0.00532952
-0.00244268
-0.0300037
-0.0574423
-0.0652575
-0.0594259
-0.0412261
-0.0302028
-0.0137129
0.000389153
-0.0986462
-0.103819
-0.104559
-0.10276
-0.100635
-0.0991658
-0.0983335
-0.0977764
-0.0971973
-0.0964479
-0.0954563
-0.0941345
-0.0923403
-0.0898938
-0.0866139
-0.0823572
-0.0770427
-0.0706729
-0.0633285
-0.0551661
-0.0463868
-0.037227
-0.0279207
-0.0186957
-0.00974645
-0.00123534
0.0066754
0.0138829
0.0202263
0.0255968
0.0295734
0.0322176
0.0338727
0.0350489
0.0339662
0.027359
0.012161
-0.0104046
-0.0320365
-0.0434019
-0.0422521
-0.0345731
-0.0240899
-0.014798
-0.00637321
-0.000400133
0.00428951
0.00814272
0.00975528
0.0119842
0.00703165
0.000237788
-0.0250798
-0.0517066
-0.0600545
-0.0547864
-0.0378812
-0.0274854
-0.0125116
0.000331848
-0.0894788
-0.0946661
-0.0958619
-0.0946157
-0.092892
-0.0916231
-0.0908415
-0.0902371
-0.0895426
-0.0886145
-0.0874005
-0.0858487
-0.0838654
-0.0813242
-0.0780914
-0.0740576
-0.0691567
-0.0633832
-0.0567894
-0.0494874
-0.0416276
-0.033394
-0.024977
-0.0165686
-0.00834236
-0.000449234
0.00695086
0.0137623
0.0198298
0.0250451
0.0290803
0.0319823
0.0340051
0.0356115
0.0352562
0.0298295
0.0167694
-0.00249715
-0.0206408
-0.0306512
-0.0309652
-0.0259399
-0.0179798
-0.0104868
-0.0034494
0.00171755
0.00593299
0.00972464
0.0112824
0.013266
0.00876202
0.00307206
-0.0193609
-0.0446287
-0.0536084
-0.0493251
-0.0341529
-0.0245197
-0.0111296
0.000293373
-0.0806026
-0.0856589
-0.0871614
-0.0863702
-0.0850116
-0.0839521
-0.0832557
-0.0826514
-0.0819365
-0.0809403
-0.0796301
-0.0779791
-0.0759296
-0.0733952
-0.070279
-0.0664984
-0.0620004
-0.0567761
-0.0508594
-0.0443311
-0.0373042
-0.0299209
-0.0223348
-0.0147062
-0.00718799
8.34447e-05
0.00695687
0.0133367
0.0190815
0.024092
0.0281027
0.0311311
0.0333291
0.0350129
0.0349496
0.0306089
0.0200111
0.00433487
-0.0105333
-0.0194278
-0.0210151
-0.0182054
-0.012423
-0.00650315
-0.000692712
0.00373442
0.00748483
0.0112158
0.0128099
0.0145482
0.0106305
0.00606864
-0.0130582
-0.0364942
-0.0461113
-0.0431861
-0.0301406
-0.0213919
-0.00957745
0.000291734
-0.0721113
-0.0769284
-0.078609
-0.0781778
-0.0771404
-0.0762886
-0.0757103
-0.0751903
-0.0744697
-0.0734707
-0.0721529
-0.0705005
-0.0684792
-0.0660309
-0.0630859
-0.0595825
-0.0554793
-0.0507674
-0.0454694
-0.039644
-0.0333758
-0.026775
-0.0199649
-0.0130779
-0.00624742
0.000405022
0.0067416
0.0126671
0.0180509
0.0228045
0.0267098
0.0297559
0.0319983
0.0335883
0.0336047
0.0302006
0.0219308
0.00960951
-0.00237573
-0.0102313
-0.0126685
-0.0115064
-0.0074905
-0.00290335
0.00185451
0.00562346
0.00893962
0.012609
0.0143563
0.0159267
0.0127347
0.00919493
-0.00650848
-0.0277754
-0.037918
-0.036595
-0.0259684
-0.0182036
-0.00788182
0.000342594
-0.0640543
-0.0685567
-0.0703172
-0.0701638
-0.0693998
-0.0687373
-0.0682723
-0.0678186
-0.0671736
-0.066237
-0.0649803
-0.0633988
-0.0614749
-0.0591706
-0.0564366
-0.0532278
-0.0495127
-0.0452837
-0.0405564
-0.035374
-0.0298003
-0.0239209
-0.0178344
-0.0116501
-0.00548241
0.0005611
0.00635607
0.0118126
0.0168121
0.0212636
0.0249905
0.0279632
0.0301585
0.0315962
0.0316211
0.0289636
0.0226258
0.0131447
0.00364824
-0.00312752
-0.00593884
-0.00586712
-0.00320623
0.000282729
0.0041568
0.00735757
0.0102824
0.0138784
0.0158855
0.0174639
0.0151164
0.0123852
-0.000136144
-0.0191025
-0.0295244
-0.0298346
-0.0217699
-0.0150599
-0.00609393
0.000453247
-0.0564517
-0.0606069
-0.0623779
-0.0624327
-0.0618951
-0.0614006
-0.0610472
-0.0606781
-0.0601226
-0.0592819
-0.0581299
-0.0566672
-0.0548875
-0.052767
-0.0502713
-0.0473677
-0.0440328
-0.0402608
-0.0360628
-0.0314715
-0.0265356
-0.021322
-0.0159093
-0.0103876
-0.00485409
0.000596646
0.00585479
0.0108341
0.0154279
0.0195507
0.0230493
0.0258761
0.0279587
0.0292412
0.0292668
0.0271934
0.0223819
0.0152071
0.00781234
0.00212999
-0.00068004
-0.00123623
0.000438635
0.00304708
0.00618718
0.00891253
0.0114984
0.0149806
0.017283
0.0191164
0.0176752
0.015488
0.00558386
-0.0111394
-0.0214624
-0.023211
-0.017676
-0.0120564
-0.00429253
0.000615332
-0.0493419
-0.0531302
-0.0548556
-0.0550588
-0.0547051
-0.0543556
-0.0541064
-0.0538259
-0.0533698
-0.0526421
-0.0516187
-0.0503036
-0.048697
-0.0467849
-0.0445431
-0.041948
-0.0389825
-0.0356426
-0.031937
-0.0278908
-0.0235415
-0.0189421
-0.0141555
-0.0092557
-0.00432449
0.000555144
0.00528837
0.00979278
0.0139709
0.0177459
0.0209831
0.0236168
0.0255538
0.0267047
0.0267526
0.0251598
0.0215466
0.0161971
0.0105374
0.00590839
0.00333072
0.00247961
0.00347248
0.00539658
0.00793075
0.010265
0.0125689
0.0158751
0.0184038
0.0206714
0.0200542
0.0181622
0.0101951
-0.00438477
-0.0141751
-0.0170064
-0.0138049
-0.00927079
-0.00257604
0.000803229
-0.0427368
-0.0461464
-0.0477859
-0.048091
-0.0478853
-0.0476599
-0.0475077
-0.0473219
-0.046957
-0.046345
-0.0454605
-0.0443074
-0.0428889
-0.0411968
-0.0392143
-0.0369242
-0.0343142
-0.0313816
-0.0281337
-0.0245903
-0.0207807
-0.0167473
-0.0125403
-0.00822108
-0.00385766
0.000477768
0.00470374
0.00874407
0.0125105
0.015928
0.0188815
0.0213015
0.0230854
0.0241377
0.0242386
0.0230597
0.0203944
0.0164626
0.0122094
0.00854873
0.0063189
0.0053905
0.00593691
0.00734655
0.00938543
0.0113946
0.0134619
0.0165202
0.0191288
0.0218569
0.0217335
0.0199574
0.0133875
0.000939261
-0.0079494
-0.0114588
-0.0102559
-0.00676389
-0.00105358
0.000980074
-0.0366168
-0.0396584
-0.0411905
-0.0415623
-0.0414732
-0.0413503
-0.0412787
-0.0411672
-0.0408974
-0.0404046
-0.039664
-0.0386778
-0.0374516
-0.0359813
-0.0342552
-0.0322606
-0.0299886
-0.0274377
-0.024614
-0.0215336
-0.0182196
-0.0147061
-0.0110337
-0.00725307
-0.00342054
0.00040125
0.0041427
0.00773524
0.0111001
0.0141654
0.0168325
0.0190337
0.0206694
0.0216536
0.0218327
0.0210168
0.019104
0.0162683
0.0131312
0.0103169
0.00847873
0.00760833
0.00788291
0.0089181
0.0105564
0.0122875
0.0141429
0.0168687
0.0193331
0.0213259
0.0223002
0.0206396
0.0151508
0.00483919
-0.00293798
-0.00674738
-0.00709799
-0.00458047
0.000172116
0.0011081
-0.0309736
-0.0336685
-0.035081
-0.0354916
-0.0354923
-0.0354518
-0.0354476
-0.0354014
-0.0352172
-0.0348372
-0.0342365
-0.0334141
-0.0323759
-0.0311212
-0.0296418
-0.0279283
-0.0259738
-0.0237778
-0.0213453
-0.0186895
-0.0158289
-0.0127914
-0.00960934
-0.006325
-0.00298483
0.000357079
0.00364145
0.00680805
0.0097872
0.012514
0.0149031
0.016893
0.0183919
0.0193309
0.0196002
0.0190993
0.0177834
0.0157941
0.0135306
0.0114308
0.00998013
0.00924084
0.00936702
0.0101368
0.011454
0.0129379
0.0145891
0.0169275
0.0191697
0.0209662
0.0219187
0.0203585
0.015758
0.00745626
0.000831221
-0.00296247
-0.00437211
-0.00273646
0.0010469
0.00116182
-0.0257994
-0.0281682
-0.0294542
-0.0298824
-0.0299512
-0.0299763
-0.030028
-0.030041
-0.0299325
-0.0296539
-0.029182
-0.0285135
-0.0276533
-0.0266023
-0.0253551
-0.0239041
-0.0222441
-0.0203749
-0.0183006
-0.0160322
-0.0135844
-0.0109801
-0.00824523
-0.00541499
-0.00252779
0.000370533
0.00323012
0.00599772
0.00861265
0.0110192
0.0131436
0.0149355
0.0163106
0.0172177
0.0175768
0.0173424
0.0164956
0.0151541
0.0135783
0.0120658
0.010968
0.0103874
0.0104471
0.0110326
0.0120941
0.0133495
0.0147977
0.0167342
0.0186768
0.0201502
0.0208712
0.0194383
0.015587
0.00902481
0.00347073
-8.36366e-05
-0.00209887
-0.00123615
0.00158955
0.00114486
-0.0210702
-0.0231379
-0.0242978
-0.0247291
-0.0248495
-0.0249269
-0.0250241
-0.0250879
-0.0250477
-0.0248562
-0.0244989
-0.0239709
-0.0232749
-0.022412
-0.0213786
-0.020169
-0.0187786
-0.0172073
-0.0154584
-0.0135408
-0.0114665
-0.00925405
-0.00692442
-0.00450657
-0.00203198
0.000460791
0.00292943
0.00532801
0.00760517
0.00971446
0.0115986
0.0131966
0.0144585
0.0153391
0.0157785
0.0157606
0.0152767
0.0144327
0.0133988
0.0123495
0.0115556
0.0111362
0.0111805
0.0116398
0.0124967
0.0135405
0.0147817
0.0163299
0.0179317
0.0190418
0.0194741
0.0181781
0.0149697
0.00982155
0.00518996
0.00199444
-0.000275455
-7.04119e-05
0.00186079
0.0010904
-0.0167608
-0.0185565
-0.0195957
-0.0200205
-0.0201788
-0.0202971
-0.0204304
-0.0205352
-0.0205488
-0.0204331
-0.0201778
-0.0197774
-0.0192306
-0.0185383
-0.0176987
-0.0167073
-0.0155605
-0.0142578
-0.0128017
-0.0111995
-0.00946064
-0.00760009
-0.00563481
-0.00358847
-0.00148672
0.000638274
0.0027514
0.00481406
0.00678206
0.00861503
0.0102622
0.0116827
0.0128497
0.0137058
0.0142064
0.0143554
0.0141496
0.0136813
0.0130889
0.0123686
0.0118326
0.0115639
0.011622
0.0119944
0.0126872
0.013537
0.0145693
0.0157639
0.0170282
0.0177909
0.0179588
0.0167895
0.0141302
0.0100946
0.00622297
0.00341454
0.00112771
0.000798075
0.00194284
0.00104972
-0.0128502
-0.0144021
-0.0153276
-0.0157391
-0.0159247
-0.0160742
-0.0162346
-0.0163709
-0.0164314
-0.0163833
-0.0162136
-0.0159231
-0.0155086
-0.0149689
-0.0143022
-0.0135057
-0.0125761
-0.011513
-0.0103179
-0.00899654
-0.00755637
-0.00600943
-0.00436927
-0.00265496
-0.000887192
0.000907545
0.00270081
0.00446115
0.00615087
0.00773281
0.00915999
0.01038
0.0114891
0.0123168
0.0128562
0.0131261
0.0131206
0.0129009
0.0124936
0.0121708
0.0118718
0.0117374
0.0118226
0.0121344
0.012693
0.0133692
0.0142012
0.0150843
0.0159746
0.0164939
0.016461
0.0154045
0.0132013
0.0100284
0.00677475
0.00432481
0.0021682
0.00143249
0.00190416
0.00072228
-0.00931395
-0.0106489
-0.0114694
-0.0118637
-0.0120683
-0.0122412
-0.0124226
-0.012584
-0.0126828
-0.0126885
-0.0125909
-0.0123948
-0.0120965
-0.0116917
-0.0111778
-0.0105527
-0.00981447
-0.00896243
-0.0079975
-0.00692391
-0.00574744
-0.00447762
-0.0031251
-0.00170497
-0.000233901
0.00126713
0.00277516
0.00426414
0.00570591
0.00707493
0.00834174
0.00951232
0.0104109
0.0111675
0.0117188
0.0120683
0.0122074
0.0121871
0.0120337
0.0118827
0.0117474
0.0117175
0.0118303
0.012097
0.0125447
0.0130707
0.0137181
0.0143471
0.0149643
0.0152381
0.0150542
0.0140979
0.0122605
0.00975009
0.00700632
0.00489298
0.00291242
0.00189314
0.0018472
0.000707356
-0.00612687
-0.0072711
-0.00799642
-0.00837147
-0.00858908
-0.00877932
-0.00897616
-0.00915679
-0.00928621
-0.00934024
-0.009309
-0.009188
-0.00898454
-0.00869467
-0.00831338
-0.00783772
-0.00726604
-0.00659789
-0.00583376
-0.00497661
-0.00403079
-0.00300362
-0.00190339
-0.000741937
0.000467695
0.00170884
0.00296314
0.00421042
0.0054275
0.00659308
0.00768023
0.00866795
0.00950918
0.0102163
0.0107679
0.0111671
0.0114049
0.0115237
0.011536
0.0115231
0.0115072
0.0115535
0.0116876
0.0119183
0.0122746
0.0126725
0.0131548
0.0135797
0.0139706
0.0140596
0.0137701
0.0129032
0.0113533
0.00934647
0.00703357
0.0051927
0.00340808
0.00222155
0.00178999
0.000674677
-0.00326532
-0.00424323
-0.00488333
-0.00523841
-0.00546417
-0.00566668
-0.00587428
-0.00606887
-0.00622192
-0.00631337
-0.00633444
-0.00628326
-0.00615944
-0.00596542
-0.00569701
-0.00535009
-0.00492222
-0.00441271
-0.0038219
-0.00315195
-0.00240597
-0.00158944
-0.000708695
0.000227158
0.00120805
0.00222102
0.00325171
0.00428403
0.00529932
0.00628037
0.00720526
0.00805745
0.00881055
0.00946109
0.00999065
0.0104108
0.0107092
0.0109152
0.0110342
0.01112
0.0111885
0.0112863
0.011433
0.0116326
0.0119125
0.0122041
0.0125447
0.0128072
0.0130177
0.0129741
0.0126152
0.0118285
0.0105057
0.00887472
0.00692912
0.00529644
0.0037026
0.0024511
0.00174256
0.000641513
-0.000706547
-0.00154048
-0.00210505
-0.00244033
-0.00267064
-0.0028815
-0.00309625
-0.00330064
-0.00347171
-0.00359303
-0.00365717
-0.0036621
-0.00360766
-0.00349312
-0.00331878
-0.00308064
-0.00277531
-0.00240134
-0.00195877
-0.00144917
-0.000874703
-0.000239306
0.000452202
0.00119297
0.00197537
0.00278952
0.00362427
0.00446708
0.00530337
0.00611968
0.00689852
0.00762776
0.00828843
0.00887564
0.00937447