/*--------------------------------*- C++ -*----------------------------------*\
| =========                 |                                                 |
| \\      /  F ield         | OpenFOAM: The Open Source CFD Toolbox           |
|  \\    /   O peration     | Version:  2512                                  |
|   \\  /    A nd           | Website:  www.openfoam.com                      |
|    \\/     M anipulation  |                                                 |
\*---------------------------------------------------------------------------*/
FoamFile
{
    version     2.0;
    format      ascii;
    arch        "LSB;label=32;scalar=64";
    class       volScalarField;
    location    "58";
    object      p;
}
// * * * * * * * * * * * * * * * * * * * * * * * * * * * * * * * * * * * * * //

dimensions      [0 2 -2 0 0 0 0];

internalField   nonuniform List<scalar> 
13248
(
-0.332253
-0.330449
-0.328006
-0.325124
-0.322053
-0.319061
-0.316357
-0.314082
-0.312308
-0.311037
-0.310207
-0.309698
-0.309345
-0.308948
-0.308295
-0.307178
-0.305407
-0.302833
-0.299344
-0.294908
-0.289389
-0.282981
-0.27474
-0.265612
-0.339344
-0.336955
-0.333929
-0.330478
-0.32685
-0.323314
-0.320066
-0.317218
-0.314796
-0.312756
-0.310985
-0.309325
-0.307588
-0.305578
-0.303116
-0.300052
-0.296277
-0.291729
-0.286385
-0.280249
-0.273315
-0.265629
-0.256955
-0.248119
-0.348087
-0.344893
-0.341156
-0.337072
-0.332847
-0.328731
-0.324881
-0.321351
-0.318109
-0.315054
-0.312038
-0.308893
-0.305454
-0.301581
-0.297174
-0.292177
-0.286577
-0.280395
-0.273669
-0.26645
-0.258741
-0.250632
-0.24197
-0.233324
-0.358599
-0.354384
-0.349811
-0.345022
-0.340137
-0.335353
-0.330761
-0.326339
-0.321988
-0.317572
-0.312946
-0.307984
-0.302599
-0.296748
-0.290432
-0.283688
-0.27657
-0.269142
-0.261454
-0.253547
-0.245438
-0.237185
-0.228689
-0.220503
-0.370907
-0.36548
-0.35996
-0.354388
-0.348742
-0.343134
-0.337564
-0.331929
-0.326091
-0.319924
-0.313349
-0.306337
-0.298913
-0.291141
-0.283106
-0.274896
-0.266584
-0.258228
-0.249861
-0.2415
-0.233148
-0.224829
-0.216485
-0.208484
-0.384949
-0.378164
-0.371613
-0.365171
-0.358615
-0.351934
-0.345035
-0.337762
-0.329997
-0.321701
-0.312915
-0.303744
-0.294325
-0.284797
-0.275281
-0.265868
-0.256612
-0.247542
-0.23866
-0.229961
-0.221431
-0.213065
-0.204825
-0.196962
-0.400554
-0.392324
-0.384681
-0.37726
-0.369566
-0.36145
-0.352754
-0.343348
-0.333222
-0.322494
-0.311363
-0.300058
-0.288789
-0.277719
-0.266956
-0.256559
-0.246545
-0.236906
-0.227619
-0.218655
-0.209985
-0.201585
-0.19343
-0.185645
-0.4174
-0.407704
-0.398926
-0.390367
-0.381204
-0.371172
-0.360136
-0.348101
-0.335259
-0.321928
-0.308457
-0.295149
-0.28223
-0.269836
-0.258029
-0.24682
-0.236185
-0.226084
-0.216469
-0.207296
-0.198521
-0.190109
-0.18204
-0.17433
-0.43497
-0.42386
-0.4139
-0.403967
-0.392898
-0.380389
-0.366468
-0.3514
-0.33564
-0.319697
-0.304014
-0.288907
-0.274559
-0.261046
-0.248371
-0.236494
-0.225353
-0.214881
-0.205013
-0.195688
-0.186851
-0.178459
-0.170486
-0.162861
-0.452524
-0.44011
-0.428896
-0.417263
-0.403768
-0.388224
-0.370978
-0.35265
-0.333958
-0.315547
-0.297876
-0.28121
-0.265656
-0.251214
-0.237827
-0.225409
-0.213869
-0.203117
-0.193071
-0.183655
-0.174805
-0.166473
-0.158607
-0.151092
-0.469101
-0.455528
-0.442931
-0.429191
-0.412732
-0.393681
-0.372847
-0.351231
-0.329761
-0.309128
-0.289738
-0.271762
-0.255215
-0.240022
-0.226072
-0.213243
-0.201416
-0.190483
-0.180346
-0.170917
-0.162124
-0.153906
-0.146179
-0.138825
-0.4836
-0.469057
-0.454923
-0.438632
-0.418694
-0.395762
-0.371207
-0.346392
-0.322369
-0.299793
-0.278961
-0.259926
-0.242606
-0.226855
-0.212512
-0.199424
-0.187448
-0.176458
-0.166343
-0.157007
-0.148371
-0.140359
-0.132858
-0.125803
-0.282472
-0.284138
-0.285204
-0.28594
-0.286593
-0.287238
-0.287909
-0.288626
-0.289395
-0.290213
-0.291072
-0.291961
-0.292869
-0.29378
-0.294675
-0.295533
-0.296328
-0.29703
-0.29761
-0.298037
-0.298287
-0.298347
-0.298107
-0.297644
-0.286642
-0.287978
-0.288866
-0.289523
-0.290162
-0.290858
-0.291652
-0.292566
-0.293612
-0.294792
-0.296105
-0.297546
-0.299109
-0.300785
-0.302559
-0.304408
-0.306304
-0.308205
-0.310064
-0.311825
-0.313428
-0.314804
-0.315866
-0.316562
-0.291167
-0.292112
-0.292773
-0.29331
-0.293893
-0.294597
-0.295467
-0.29653
-0.297802
-0.29929
-0.300998
-0.302927
-0.305077
-0.307442
-0.310009
-0.312757
-0.315649
-0.318631
-0.321632
-0.324563
-0.327319
-0.329765
-0.331728
-0.333345
-0.295797
-0.296321
-0.296719
-0.297093
-0.297568
-0.29822
-0.299098
-0.300235
-0.301651
-0.303358
-0.305363
-0.307672
-0.310288
-0.313207
-0.316417
-0.319893
-0.32359
-0.327441
-0.331348
-0.335184
-0.338804
-0.342001
-0.344476
-0.346291
-0.300305
-0.300418
-0.300531
-0.300697
-0.301002
-0.301523
-0.302319
-0.303429
-0.304878
-0.306681
-0.308849
-0.311389
-0.314305
-0.317593
-0.321238
-0.325208
-0.329449
-0.333879
-0.338376
-0.342779
-0.346891
-0.350454
-0.353039
-0.354435
-0.304527
-0.304264
-0.304087
-0.304001
-0.304066
-0.304366
-0.304973
-0.305935
-0.307283
-0.309038
-0.311212
-0.313812
-0.316839
-0.320285
-0.324128
-0.328328
-0.332817
-0.337496
-0.342218
-0.346793
-0.350982
-0.354466
-0.356984
-0.357252
-0.308369
-0.307805
-0.307341
-0.306961
-0.306713
-0.306697
-0.307001
-0.307688
-0.308797
-0.310355
-0.312376
-0.314864
-0.317817
-0.321219
-0.325037
-0.329216
-0.333669
-0.338277
-0.342871
-0.347225
-0.351101
-0.354014
-0.356326
-0.355041
-0.311855
-0.311073
-0.310332
-0.309616
-0.308987
-0.308567
-0.308463
-0.308758
-0.309503
-0.310732
-0.312463
-0.314696
-0.317422
-0.320611
-0.324215
-0.32816
-0.332338
-0.336596
-0.340741
-0.344505
-0.347723
-0.349601
-0.351413
-0.348544
-0.315126
-0.314196
-0.313182
-0.312096
-0.311028
-0.310131
-0.309538
-0.309352
-0.309641
-0.310447
-0.311789
-0.313662
-0.316046
-0.318895
-0.322136
-0.325664
-0.329337
-0.332972
-0.336357
-0.339181
-0.341387
-0.341935
-0.342673
-0.338378
-0.318438
-0.317393
-0.316096
-0.314606
-0.313058
-0.311638
-0.310508
-0.309793
-0.309575
-0.309904
-0.310796
-0.31224
-0.314191
-0.316575
-0.319283
-0.32217
-0.325057
-0.327735
-0.329991
-0.331536
-0.332377
-0.331604
-0.330867
-0.325471
-0.322137
-0.320953
-0.319339
-0.31741
-0.315353
-0.313389
-0.311706
-0.310445
-0.309701
-0.309524
-0.309919
-0.310852
-0.312246
-0.313986
-0.315918
-0.317854
-0.319582
-0.320883
-0.321551
-0.321408
-0.320461
-0.31839
-0.316354
-0.311132
-0.326619
-0.325202
-0.323209
-0.320804
-0.318222
-0.315712
-0.313483
-0.311685
-0.310412
-0.309702
-0.309534
-0.309837
-0.310492
-0.311336
-0.312172
-0.312782
-0.312943
-0.31245
-0.311119
-0.308867
-0.305605
-0.301548
-0.297176
-0.292063
-0.296756
-0.294655
-0.291621
-0.287527
-0.282318
-0.276062
-0.268985
-0.261509
-0.254236
-0.24788
-0.24325
-0.2411
-0.241945
-0.245776
-0.251786
-0.258394
-0.263485
-0.263899
-0.257747
-0.243881
-0.222845
-0.197685
-0.172612
-0.151466
-0.136987
-0.131302
-0.136395
-0.152343
-0.174474
-0.193125
-0.198182
-0.185516
-0.160336
-0.131475
-0.106717
-0.0899974
-0.0811973
-0.079829
-0.0879587
-0.103678
-0.117844
-0.120444
-0.109918
-0.0926415
-0.0764014
-0.0642628
-0.056143
-0.054054
-0.0573029
-0.0600987
-0.0572916
-0.0483579
-0.0372017
-0.0260866
-0.0167266
-0.00999513
-0.00564616
-0.00450658
-0.00400381
-0.00123041
-0.3172
-0.315648
-0.312728
-0.308159
-0.301753
-0.293483
-0.283506
-0.272201
-0.260163
-0.24814
-0.237124
-0.228126
-0.222026
-0.219323
-0.219661
-0.221984
-0.224459
-0.224939
-0.220654
-0.211061
-0.195738
-0.177193
-0.158798
-0.14384
-0.135149
-0.135378
-0.146667
-0.168325
-0.194458
-0.214496
-0.217939
-0.201598
-0.171586
-0.137952
-0.10883
-0.0881945
-0.0760816
-0.071486
-0.0760038
-0.0885429
-0.101365
-0.105352
-0.0983008
-0.0855145
-0.0736541
-0.0649564
-0.059635
-0.0602708
-0.0653824
-0.0683519
-0.0639931
-0.0528016
-0.0395683
-0.0269258
-0.0167094
-0.00923996
-0.00444206
-0.00308906
-0.00277962
-0.000735795
-0.335917
-0.33468
-0.331883
-0.326929
-0.319456
-0.309351
-0.296691
-0.281781
-0.265188
-0.247682
-0.23045
-0.214654
-0.201482
-0.192091
-0.186309
-0.183645
-0.182923
-0.182143
-0.179149
-0.173926
-0.163916
-0.151831
-0.140113
-0.131592
-0.129187
-0.135903
-0.15364
-0.180763
-0.210424
-0.231658
-0.233998
-0.214581
-0.180484
-0.1428
-0.110009
-0.0860003
-0.0708713
-0.0633323
-0.0644426
-0.0738699
-0.0851634
-0.0901995
-0.0863756
-0.0780365
-0.0705486
-0.06533
-0.063015
-0.0665511
-0.0735516
-0.0765528
-0.0705125
-0.0570544
-0.0418377
-0.0277529
-0.016736
-0.00860545
-0.00340395
-0.00176443
-0.00154147
-0.000209953
-0.35074
-0.350072
-0.347251
-0.34202
-0.333715
-0.322098
-0.307171
-0.289049
-0.268452
-0.246157
-0.223427
-0.201403
-0.181444
-0.165957
-0.153988
-0.145937
-0.141248
-0.138572
-0.135088
-0.133876
-0.128295
-0.122232
-0.117045
-0.115122
-0.119347
-0.132714
-0.156645
-0.1887
-0.221489
-0.243955
-0.245766
-0.224153
-0.186908
-0.146005
-0.110304
-0.0835643
-0.0658058
-0.0556631
-0.0536315
-0.0600586
-0.0696362
-0.0752945
-0.0744354
-0.0703597
-0.0670933
-0.0653317
-0.0661891
-0.072775
-0.0817004
-0.0846216
-0.0767918
-0.0610751
-0.0439832
-0.028563
-0.0168148
-0.00810037
-0.00254931
-0.000565256
-0.000323984
0.000328012
-0.36023
-0.360487
-0.357434
-0.351904
-0.34307
-0.330394
-0.313773
-0.293308
-0.269554
-0.243429
-0.216169
-0.188908
-0.162517
-0.142996
-0.124946
-0.111483
-0.102331
-0.0969234
-0.09296
-0.0929168
-0.0910995
-0.0902028
-0.0909861
-0.0954677
-0.106291
-0.126051
-0.15554
-0.191786
-0.227275
-0.251057
-0.252964
-0.230177
-0.190895
-0.147715
-0.109876
-0.0810413
-0.0610938
-0.0486891
-0.0438267
-0.0473734
-0.0551447
-0.0610497
-0.0627687
-0.0626031
-0.0632678
-0.0648758
-0.0690385
-0.0788141
-0.0897015
-0.0924529
-0.0827657
-0.0648279
-0.0459819
-0.0293485
-0.0169489
-0.00772613
-0.0018847
0.000479629
0.000828494
0.000851765
-0.363913
-0.364894
-0.361719
-0.355918
-0.346772
-0.333471
-0.315809
-0.29392
-0.268265
-0.23969
-0.209374
-0.178623
-0.14898
-0.12307
-0.100411
-0.0822132
-0.0688353
-0.0605341
-0.0556673
-0.0544628
-0.0554517
-0.0583997
-0.0641468
-0.0743445
-0.0911878
-0.116602
-0.150695
-0.190217
-0.22787
-0.253021
-0.255601
-0.232655
-0.1925
-0.148085
-0.10889
-0.0785528
-0.0568727
-0.0425402
-0.0352025
-0.0359977
-0.0419594
-0.0477895
-0.0516162
-0.0548444
-0.0590246
-0.0638638
-0.0714367
-0.0845274
-0.0974044
-0.0999234
-0.0883688
-0.0682834
-0.0478153
-0.0300995
-0.017135
-0.00747749
-0.00140538
0.0013484
0.00186678
0.00133182
-0.36162
-0.362602
-0.359477
-0.353859
-0.344771
-0.331389
-0.313546
-0.291309
-0.265034
-0.235475
-0.203721
-0.171072
-0.139082
-0.109489
-0.0831407
-0.0610529
-0.0438891
-0.0320134
-0.0249227
-0.0221589
-0.0244265
-0.0296968
-0.0390173
-0.0537265
-0.0754549
-0.105324
-0.142778
-0.184525
-0.223784
-0.250279
-0.253859
-0.231659
-0.191815
-0.147273
-0.107491
-0.076182
-0.0532071
-0.0372686
-0.0278177
-0.0260132
-0.0301934
-0.035696
-0.0411013
-0.0471019
-0.0543147
-0.0622054
-0.0732617
-0.0897712
-0.104646
-0.1069
-0.0935195
-0.0714086
-0.0494653
-0.0308039
-0.0173627
-0.00734286
-0.0010966
0.00202893
0.00274503
0.00174107
-0.353778
-0.353946
-0.351253
-0.346299
-0.337656
-0.324767
-0.307596
-0.286083
-0.260454
-0.231358
-0.199747
-0.166781
-0.133832
-0.102366
-0.0735716
-0.0485523
-0.0281945
-0.013073
-0.00325828
0.0017157
-0.000279355
-0.00630524
-0.0175949
-0.0352518
-0.0603498
-0.0932044
-0.132666
-0.175549
-0.215736
-0.2434
-0.248203
-0.227467
-0.189013
-0.145374
-0.105744
-0.0739489
-0.0500816
-0.0328622
-0.0216598
-0.0174494
-0.0198274
-0.024807
-0.0312116
-0.0393625
-0.0491007
-0.0598326
-0.0743891
-0.0943936
-0.111254
-0.113236
-0.0981321
-0.0741702
-0.050918
-0.031452
-0.0176185
-0.00730677
-0.000936088
0.00252034
0.00342965
0.00206037
-0.340928
-0.339952
-0.338042
-0.334069
-0.326211
-0.314403
-0.298697
-0.278838
-0.254927
-0.227515
-0.197391
-0.165529
-0.13308
-0.101294
-0.0713662
-0.0444367
-0.0215369
-0.00354106
0.00898344
0.0157281
0.0160216
0.0107237
-0.000957863
-0.0198844
-0.0467046
-0.0810517
-0.121258
-0.164275
-0.204662
-0.233239
-0.239248
-0.220554
-0.184415
-0.142601
-0.103829
-0.0720001
-0.0475793
-0.0293766
-0.0167279
-0.010363
-0.010846
-0.0150746
-0.0218615
-0.0315986
-0.0433437
-0.0566528
-0.0747186
-0.0982797
-0.117083
-0.118787
-0.102134
-0.0765618
-0.0521891
-0.032057
-0.0179007
-0.00735986
-0.000901145
0.00283125
0.00390582
0.00228209
-0.32428
-0.322174
-0.32133
-0.318371
-0.311509
-0.301305
-0.287684
-0.270138
-0.2487
-0.223822
-0.196122
-0.166384
-0.13555
-0.104675
-0.0748524
-0.0471886
-0.022744
-0.0025617
0.0123201
0.0206648
0.024731
0.0213303
0.0106068
-0.00805489
-0.0350237
-0.0694277
-0.109183
-0.151439
-0.191275
-0.220598
-0.227682
-0.211623
-0.178699
-0.139585
-0.10234
-0.0708586
-0.0460828
-0.027092
-0.0131678
-0.00484984
-0.00328167
-0.00649305
-0.0130192
-0.0237773
-0.0370077
-0.0526513
-0.0741459
-0.101249
-0.121987
-0.123428
-0.105484
-0.0786151
-0.0533301
-0.0326578
-0.0182266
-0.00750602
-0.000977379
0.00297399
0.00417783
0.00240994
-0.307915
-0.304043
-0.303859
-0.301432
-0.295636
-0.287425
-0.276261
-0.261409
-0.242861
-0.220948
-0.196115
-0.168987
-0.140363
-0.11116
-0.0821878
-0.0544521
-0.0290264
-0.00706
0.0102816
0.0218735
0.0270689
0.026203
0.0176256
0.000567052
-0.0253
-0.0587697
-0.0973701
-0.13822
-0.176804
-0.206583
-0.213653
-0.200741
-0.171959
-0.136376
-0.101237
-0.0704381
-0.0454337
-0.0258407
-0.010857
-0.000757921
0.00305342
0.00106016
-0.00494943
-0.0159739
-0.0300006
-0.0475826
-0.0725819
-0.103415
-0.125881
-0.126964
-0.108078
-0.0802358
-0.0542635
-0.0331963
-0.018557
-0.00771807
-0.00114105
0.0029683
0.0042663
0.00245567
-0.289778
-0.288339
-0.286958
-0.283319
-0.278032
-0.271603
-0.262858
-0.250953
-0.235778
-0.217474
-0.196287
-0.172614
-0.147025
-0.120267
-0.0931779
-0.0666941
-0.0417216
-0.0192109
6.76064e-05
0.0141248
0.0236737
0.0251319
0.0193704
0.00526539
-0.0177628
-0.0485554
-0.084499
-0.122672
-0.158874
-0.183179
-0.195562
-0.186068
-0.161526
-0.129594
-0.096953
-0.0675261
-0.0429562
-0.0234102
-0.00811928
0.00307188
0.0088606
0.00825154
0.00250777
-0.0082217
-0.0226459
-0.0417958
-0.0699123
-0.104178
-0.128503
-0.129287
-0.109509
-0.0809149
-0.0545221
-0.0333264
-0.0186708
-0.00785003
-0.0013028
0.00287108
0.0042167
0.00243753
-0.271078
-0.279197
-0.277073
-0.270572
-0.264209
-0.257765
-0.249539
-0.238509
-0.224457
-0.207511
-0.18792
-0.166034
-0.142345
-0.117481
-0.0921582
-0.0671731
-0.0433725
-0.0215865
-0.00260411
0.0114678
0.0206718
0.0234815
0.0193051
0.00687175
-0.0146493
-0.0441378
-0.078742
-0.11557
-0.15032
-0.175386
-0.183765
-0.173432
-0.149534
-0.119308
-0.0887142
-0.0611091
-0.0377909
-0.0189562
-0.00394249
0.00741443
0.0141904
0.0151942
0.0110011
0.00174981
-0.0127301
-0.0334545
-0.065462
-0.104558
-0.131712
-0.132513
-0.110376
-0.0806671
-0.0540039
-0.0329421
-0.0184765
-0.00781288
-0.00137902
0.00275747
0.00409803
0.00237993
-0.250948
-0.261232
-0.259209
-0.252539
-0.246016
-0.239686
-0.231988
-0.22183
-0.20895
-0.193518
-0.175798
-0.156091
-0.134783
-0.112384
-0.0894964
-0.0668141
-0.0451014
-0.0251368
-0.00801322
0.00550399
0.0143228
0.01732
0.0136611
0.0023214
-0.0174234
-0.0445543
-0.0763604
-0.109902
-0.140886
-0.161813
-0.167676
-0.157191
-0.135192
-0.107895
-0.0802374
-0.0549761
-0.0331766
-0.0152607
-0.000729034
0.0108065
0.0184689
0.0207765
0.0177567
0.00974636
-0.00411632
-0.0260266
-0.061552
-0.104634
-0.13339
-0.131881
-0.109498
-0.0794363
-0.0530357
-0.0324203
-0.0182683
-0.00783377
-0.001529
0.00255542
0.0038848
0.0022723
-0.231662
-0.242593
-0.241635
-0.235337
-0.228688
-0.222416
-0.215228
-0.205992
-0.194368
-0.180501
-0.16465
-0.14707
-0.128066
-0.108051
-0.0875466
-0.0671695
-0.0476102
-0.0295584
-0.0139553
-0.0015993
0.00645698
0.0091726
0.00576155
-0.00458423
-0.0223378
-0.046496
-0.0745298
-0.103524
-0.129621
-0.146297
-0.150174
-0.140502
-0.121175
-0.0971113
-0.0723366
-0.0492787
-0.0289312
-0.0118361
0.00225467
0.0138163
0.0220991
0.0257045
0.0242472
0.0175006
0.00390091
-0.0197831
-0.0588553
-0.104546
-0.133511
-0.131007
-0.10757
-0.0776066
-0.0517725
-0.0317756
-0.0180102
-0.00786701
-0.00170644
0.00229196
0.00359872
0.00212994
-0.213814
-0.224286
-0.22417
-0.218553
-0.212146
-0.20611
-0.199492
-0.191208
-0.180845
-0.168496
-0.154408
-0.138815
-0.121972
-0.104221
-0.0860058
-0.067865
-0.0503934
-0.0342294
-0.0201748
-0.00905937
-0.00177428
0.000777495
-0.00212549
-0.01111
-0.0264291
-0.0471329
-0.0709543
-0.0952229
-0.117021
-0.130028
-0.132675
-0.124193
-0.107532
-0.0865741
-0.0645968
-0.0437293
-0.0248898
-0.00865677
0.00495784
0.0164059
0.0251177
0.0299898
0.0303768
0.025268
0.0120491
-0.0136851
-0.0560524
-0.103458
-0.132184
-0.128659
-0.104542
-0.0751327
-0.0501818
-0.0309923
-0.0177017
-0.00790923
-0.00190477
0.00198106
0.0032624
0.00196503
-0.196545
-0.20649
-0.207012
-0.202185
-0.196287
-0.190661
-0.184652
-0.177293
-0.168141
-0.157238
-0.144804
-0.131064
-0.116239
-0.100612
-0.0845547
-0.0685288
-0.0530566
-0.0387309
-0.0262432
-0.0163174
-0.00971262
-0.00719594
-0.00939253
-0.0167647
-0.0294156
-0.0465202
-0.0661723
-0.0859499
-0.102487
-0.113908
-0.115869
-0.108683
-0.0946021
-0.0766032
-0.057281
-0.038495
-0.0211441
-0.00579606
0.00733605
0.0185657
0.0275218
0.0334258
0.035697
0.0326232
0.0202437
-0.00722022
-0.0523814
-0.101013
-0.129096
-0.12447
-0.100273
-0.0719799
-0.0482618
-0.0300668
-0.0173419
-0.0079556
-0.00212315
0.00163157
0.00288928
0.0017832
-0.180053
-0.189504
-0.190475
-0.186417
-0.181156
-0.176047
-0.170672
-0.164198
-0.156191
-0.146652
-0.135769
-0.12375
-0.110793
-0.0971336
-0.0830834
-0.0690366
-0.0554573
-0.0428635
-0.0318403
-0.0230036
-0.0170011
-0.0144672
-0.0159142
-0.0216701
-0.0317425
-0.0454422
-0.0612227
-0.0770251
-0.0902972
-0.0989974
-0.100437
-0.0944982
-0.082737
-0.0673784
-0.0504674
-0.0336153
-0.0177133
-0.00328911
0.00934465
0.0202803
0.0292982
0.0359178
0.039867
0.0389847
0.0279221
-0.000674256
-0.0479195
-0.096996
-0.12383
-0.118262
-0.0947423
-0.0681688
-0.0460268
-0.0289991
-0.0169293
-0.00799915
-0.0023588
0.0012533
0.0024914
0.00158937
-0.164682
-0.173433
-0.174693
-0.171355
-0.166778
-0.162249
-0.157506
-0.151877
-0.14495
-0.136685
-0.127244
-0.116815
-0.105573
-0.0937217
-0.08152
-0.0693019
-0.0574683
-0.0464599
-0.0367731
-0.0289323
-0.0234765
-0.0209168
-0.0216577
-0.0259262
-0.0336685
-0.0443066
-0.0566158
-0.0689234
-0.0792556
-0.0858268
-0.0868221
-0.0819044
-0.0720796
-0.0589881
-0.0442263
-0.0291517
-0.0146319
-0.00116363
0.0109307
0.0215281
0.0304451
0.037469
0.0426456
0.0437708
0.0342957
0.00528972
-0.0428586
-0.0911401
-0.116142
-0.110022
-0.088025
-0.0637612
-0.0435062
-0.0277942
-0.0164626
-0.00803204
-0.0026074
0.000856196
0.00207995
0.00138807
-0.150259
-0.158263
-0.159746
-0.157069
-0.153165
-0.149244
-0.145138
-0.140295
-0.134363
-0.12728
-0.119169
-0.110197
-0.100521
-0.0903151
-0.079796
-0.0692443
-0.0589931
-0.049428
-0.040957
-0.0340208
-0.0290592
-0.026478
-0.0265904
-0.029548
-0.035263
-0.0432587
-0.0525821
-0.0619042
-0.0697415
-0.0745741
-0.075107
-0.0709351
-0.0626653
-0.051476
-0.0385961
-0.0251404
-0.011923
0.000573665
0.0120595
0.0222771
0.0309662
0.0381255
0.0439174
0.0465405
0.0386265
0.0101284
-0.0371878
-0.0831939
-0.105981
-0.0999238
-0.08031
-0.0588666
-0.0407461
-0.0264633
-0.0159413
-0.00804604
-0.00286288
0.000449695
0.00166511
0.0011833
-0.136708
-0.144056
-0.145706
-0.143612
-0.140338
-0.137009
-0.133534
-0.129437
-0.124401
-0.118389
-0.111491
-0.103843
-0.0955846
-0.086864
-0.0778624
-0.0688158
-0.0599984
-0.0517282
-0.04435
-0.038226
-0.0337099
-0.0311208
-0.0306972
-0.0325388
-0.0365493
-0.0423457
-0.0491863
-0.0559829
-0.0617331
-0.065112
-0.0651725
-0.0615094
-0.0544578
-0.0448399
-0.0335886
-0.0216004
-0.00960565
0.00192417
0.0127263
0.0224965
0.0308652
0.0377074
0.0437408
0.0471292
0.0405159
0.0136632
-0.0307598
-0.0729922
-0.0935775
-0.0883768
-0.0719051
-0.0536388
-0.0378068
-0.0250227
-0.0153655
-0.00803315
-0.00311738
4.28585e-05
0.00125614
0.000978771
-0.12415
-0.130849
-0.132587
-0.130994
-0.128299
-0.125523
-0.122633
-0.119231
-0.115037
-0.109987
-0.10417
-0.0977095
-0.0907234
-0.0833342
-0.0756937
-0.0679903
-0.0604516
-0.0533387
-0.0469372
-0.0415395
-0.0374283
-0.0348527
-0.0339934
-0.0349161
-0.037529
-0.0415317
-0.0463481
-0.0511762
-0.0550758
-0.057225
-0.0568226
-0.053487
-0.0473773
-0.0390493
-0.0291994
-0.0185357
-0.00768886
0.00289164
0.0129515
0.0221884
0.0301656
0.0366803
0.0423805
0.0458064
0.0401593
0.0161245
-0.023485
-0.060768
-0.0781425
-0.0760051
-0.0632102
-0.0482605
-0.0347577
-0.0234935
-0.0147366
-0.00798622
-0.00336158
-0.000355292
0.000861506
0.000778324
-0.112561
-0.118599
-0.120369
-0.119209
-0.117036
-0.11477
-0.112414
-0.109639
-0.106195
-0.102018
-0.0971759
-0.0917753
-0.0859185
-0.0797093
-0.073272
-0.0667574
-0.0603509
-0.054266
-0.0487322
-0.0439838
-0.0402449
-0.0377087
-0.036512
-0.0366983
-0.0381848
-0.0407319
-0.0438958
-0.0470787
-0.0495479
-0.0506748
-0.0498395
-0.0467071
-0.0413256
-0.0340571
-0.0254108
-0.0159382
-0.00616816
0.00348499
0.0127656
0.021384
0.0288834
0.0349918
0.0401324
0.0431257
0.0382315
0.0178442
-0.0157857
-0.0477475
-0.0636012
-0.0637653
-0.0546622
-0.0429177
-0.0316699
-0.0218993
-0.0140572
-0.00789929
-0.00358552
-0.00073569
0.000488842
0.000585816
-0.101837
-0.107266
-0.10904
-0.10825
-0.106539
-0.10473
-0.102854
-0.100635
-0.097855
-0.094451
-0.0904739
-0.0860114
-0.0811512
-0.0759803
-0.0705981
-0.0651275
-0.0597176
-0.0545379
-0.0497711
-0.045603
-0.0422091
-0.0397388
-0.0382944
-0.0379047
-0.0385022
-0.0398914
-0.0417347
-0.0436036
-0.0449377
-0.0452316
-0.044017
-0.0410119
-0.0361995
-0.0298053
-0.0221946
-0.0137905
-0.00502723
0.00372305
0.0122057
0.020139
0.0270841
0.0327232
0.0372395
0.0396262
0.0354011
0.0188122
-0.00870505
-0.0355322
-0.0502151
-0.0524453
-0.0466292
-0.0377667
-0.0286077
-0.0202647
-0.0133314
-0.00776795
-0.00377943
-0.00108954
0.000144755
0.000404995
-0.0919574
-0.0968334
-0.098582
-0.098096
-0.0967856
-0.0953788
-0.0939239
-0.0921932
-0.0899936
-0.0872646
-0.0840429
-0.0804007
-0.0764114
-0.0721462
-0.0676851
-0.0631256
-0.0585851
-0.0541973
-0.050106
-0.0464561
-0.043384
-0.0410041
-0.0393929
-0.0385702
-0.0384829
-0.0389776
-0.0397918
-0.0406275
-0.0410642
-0.0406986
-0.0391717
-0.0362537
-0.0318954
-0.0262297
-0.0195133
-0.0120666
-0.0042411
0.00363669
0.0113185
0.0185285
0.0248653
0.0299866
0.0338778
0.0356522
0.0320091
0.0187946
-0.00320015
-0.025326
-0.0386995
-0.0425194
-0.0393381
-0.0329185
-0.0256257
-0.0186143
-0.0125649
-0.00758951
-0.00393459
-0.00140872
-0.000165438
0.00023926
-0.0829093
-0.0872614
-0.0889535
-0.0887149
-0.0877466
-0.0866882
-0.0855979
-0.0842871
-0.0825873
-0.08044
-0.0778708
-0.074938
-0.071702
-0.0682203
-0.0645558
-0.0607846
-0.0569979
-0.0532995
-0.049801
-0.0466142
-0.043844
-0.0415771
-0.0398708
-0.0387404
-0.0381418
-0.0379572
-0.0380082
-0.0380499
-0.0377888
-0.0369112
-0.035143
-0.0322977
-0.0283132
-0.0232623
-0.0173222
-0.0107336
-0.00377709
0.00326703
0.0101583
0.0166342
0.022334
0.0269056
0.03019
0.031412
0.0282342
0.0177499
0.000413021
-0.0175522
-0.0294594
-0.0341324
-0.0328841
-0.0284429
-0.0227685
-0.0169721
-0.0117654
-0.00736318
-0.00404403
-0.00168619
-0.000437831
9.13696e-05
-0.0746253
-0.0784918
-0.0801104
-0.0800711
-0.0793914
-0.0786295
-0.0778485
-0.0768932
-0.0756172
-0.0739645
-0.071952
-0.0696257
-0.0670343
-0.0642235
-0.0612419
-0.0581477
-0.0550103
-0.0519094
-0.0489301
-0.0461578
-0.0436718
-0.0415376
-0.0397981
-0.0384636
-0.0375008
-0.0368232
-0.0363126
-0.0357732
-0.0349899
-0.0337322
-0.0317928
-0.0290221
-0.0253571
-0.0208335
-0.0155717
-0.00975168
-0.00359578
0.00265854
0.00878553
0.0145395
0.0195951
0.0236076
0.0263281
0.027097
0.0243028
0.0159801
0.00244342
-0.011964
-0.0223751
-0.0272201
-0.0272778
-0.024379
-0.0200721
-0.0153613
-0.010942
-0.00709013
-0.00410303
-0.00191645
-0.000669862
-3.67958e-05
-0.067047
-0.0704761
-0.0720109
-0.0721277
-0.0716865
-0.0711719
-0.0706487
-0.0699891
-0.0690667
-0.0678288
-0.066285
-0.064471
-0.0624253
-0.0601834
-0.0577822
-0.055265
-0.0526839
-0.0500986
-0.0475731
-0.0451718
-0.0429539
-0.0409683
-0.0392469
-0.0377967
-0.0365937
-0.0355897
-0.0346738
-0.0337195
-0.0325663
-0.0310453
-0.0290015
-0.0263178
-0.0229371
-0.0188736
-0.0142087
-0.00907679
-0.00365383
0.0018601
0.00726195
0.0123231
0.0167508
0.0202223
0.0224477
0.0228852
0.0204445
0.0138483
0.00335173
-0.00809316
-0.0170639
-0.0216167
-0.0224819
-0.0207441
-0.0175643
-0.0138034
-0.0101054
-0.00677354
-0.0041094
-0.0020958
-0.000860305
-0.000144331
-0.0601354
-0.0631674
-0.0646089
-0.0648436
-0.0645958
-0.0642838
-0.0639711
-0.0635532
-0.062921
-0.0620258
-0.0608715
-0.059485
-0.0578962
-0.0561321
-0.0542199
-0.0521911
-0.0500837
-0.0479417
-0.0458124
-0.0437433
-0.0417783
-0.0399534
-0.038292
-0.0367975
-0.0354431
-0.0342395
-0.0330641
-0.0318343
-0.0304381
-0.0287535
-0.0266664
-0.0240877
-0.0209692
-0.0173141
-0.0131784
-0.00866229
-0.00390558
0.00092391
0.00564707
0.0100571
0.0138958
0.0168676
0.0186819
0.0189064
0.0168144
0.0116128
0.00352353
-0.00547433
-0.0129568
-0.0171154
-0.0184344
-0.0175392
-0.0152652
-0.012318
-0.00926755
-0.0064186
-0.00406357
-0.00222269
-0.00100924
-0.000231234
-0.0538416
-0.0565127
-0.0578551
-0.0581759
-0.0580824
-0.0579332
-0.0577892
-0.0575649
-0.0571668
-0.0565504
-0.0557152
-0.0546811
-0.0534708
-0.0521041
-0.0506004
-0.0489821
-0.047276
-0.0455138
-0.0437295
-0.0419578
-0.0402308
-0.0385751
-0.0370096
-0.0355413
-0.0341673
-0.0328106
-0.0314726
-0.0300772
-0.0285411
-0.0267763
-0.0246999
-0.0222458
-0.0193761
-0.0160896
-0.0124258
-0.00846077
-0.00430504
-9.93528e-05
0.00399896
0.00780968
0.0111103
0.0136372
0.0151264
0.015238
0.0134957
0.00942909
0.0032362
-0.00375478
-0.00981722
-0.0135369
-0.0150633
-0.0147534
-0.0131877
-0.0109219
-0.00844079
-0.00603233
-0.00396848
-0.00229772
-0.00111797
-0.00029827
-0.0481135
-0.0504608
-0.0517025
-0.0520832
-0.0521099
-0.0520889
-0.0520769
-0.0520043
-0.0517917
-0.0513984
-0.050821
-0.0500737
-0.0491733
-0.048134
-0.046969
-0.0456934
-0.0443256
-0.0428875
-0.0414031
-0.0398971
-0.0383925
-0.0369083
-0.0354577
-0.0340457
-0.0326643
-0.0312853
-0.0298839
-0.0284154
-0.0268237
-0.0250472
-0.0230273
-0.0207167
-0.0180875
-0.0151381
-0.0118973
-0.00842487
-0.00480808
-0.00116338
0.00237166
0.00564202
0.00846111
0.0106044
0.0118459
0.0119203
0.0105203
0.007381
0.00267983
-0.00268588
-0.00750637
-0.0107336
-0.0122943
-0.0123665
-0.0113374
-0.0096288
-0.00763753
-0.00562328
-0.00382929
-0.00232366
-0.0011889
-0.000346822
-0.0429075
-0.0449651
-0.0461064
-0.0465251
-0.0466431
-0.0467204
-0.046809
-0.0468526
-0.0467838
-0.0465659
-0.0461938
-0.0456769
-0.0450275
-0.0442553
-0.0433688
-0.0423776
-0.0412935
-0.0401311
-0.0389068
-0.0376375
-0.0363391
-0.0350252
-0.0337046
-0.0323814
-0.0310509
-0.0296974
-0.0282993
-0.0268277
-0.025246
-0.0235122
-0.0215861
-0.0194351
-0.0170405
-0.0144022
-0.0115425
-0.00850906
-0.00537271
-0.00222726
0.000809766
0.00360177
0.00599885
0.00782015
0.00887862
0.00896687
0.00788948
0.0055088
0.00198224
-0.00208575
-0.00586001
-0.00857673
-0.0100538
-0.0103516
-0.00971386
-0.00844892
-0.00686961
-0.00520113
-0.00365305
-0.0023052
-0.00122541
-0.000378732
-0.0381823
-0.0399808
-0.0410234
-0.0414627
-0.0416478
-0.0417985
-0.0419615
-0.0420916
-0.0421316
-0.0420492
-0.0418379
-0.0415038
-0.0410553
-0.040499
-0.0398398
-0.039083
-0.0382357
-0.0373071
-0.0363078
-0.0352487
-0.0341408
-0.0329931
-0.0318115
-0.0305994
-0.0293549
-0.0280678
-0.0267224
-0.0253001
-0.0237776
-0.0221278
-0.020324
-0.0183452
-0.0161796
-0.0138298
-0.0113146
-0.0086719
-0.00595999
-0.0032556
-0.000653883
0.00172615
0.00376038
0.00531133
0.00623877
0.00637214
0.00558883
0.00382686
0.00122098
-0.00181508
-0.00472706
-0.00694953
-0.00827012
-0.00867701
-0.00831106
-0.00738889
-0.00614768
-0.00477611
-0.00344816
-0.0022486
-0.00123175
-0.000396148
-0.0338982
-0.0354657
-0.0364132
-0.0368595
-0.0370921
-0.0372956
-0.0375116
-0.0377036
-0.0378239
-0.037844
-0.0377566
-0.0375655
-0.0372762
-0.0368927
-0.0364174
-0.0358528
-0.0352024
-0.0344713
-0.0336659
-0.0327931
-0.0318595
-0.0308714
-0.0298324
-0.0287444
-0.0276078
-0.0264166
-0.0251593
-0.0238237
-0.022396
-0.0208599
-0.0191988
-0.0173998
-0.0154573
-0.0133756
-0.0111714
-0.00887639
-0.00653707
-0.00421753
-0.00199427
3.73355e-05
0.00176914
0.00308791
0.00392485
0.00411812
0.00359476
0.0023336
0.000446083
-0.00177073
-0.00398403
-0.00575098
-0.00687575
-0.00730815
-0.00711832
-0.00645178
-0.00548074
-0.00435842
-0.00322383
-0.00216125
-0.0012128
-0.0004014
-0.0300195
-0.031382
-0.0322388
-0.0326818
-0.0329463
-0.033186
-0.0334377
-0.0336723
-0.0338497
-0.0339454
-0.0339519
-0.0338711
-0.0337064
-0.03346
-0.0331326
-0.0327245
-0.0322369
-0.0316721
-0.0310334
-0.0303247
-0.0295496
-0.028712
-0.027814
-0.0268563
-0.0258404
-0.0247638
-0.0236178
-0.0223942
-0.0210853
-0.0196826
-0.0181766
-0.0165607
-0.0148334
-0.0130005
-0.0110773
-0.00909034
-0.00707756
-0.00509055
-0.00319138
-0.00145405
3.8044e-05
0.00121178
0.00193404
0.00218058
0.00187825
0.00101783
-0.000313693
-0.00193678
-0.00354068
-0.0048955
-0.00580786
-0.006209
-0.00612126
-0.00563725
-0.00487573
-0.00395765
-0.00298951
-0.00205114
-0.00117385
-0.000396889
-0.0265143
-0.0276953
-0.0284667
-0.0288988
-0.0291829
-0.029446
-0.0297199
-0.0299816
-0.030198
-0.0303479
-0.0304242
-0.0304272
-0.0303591
-0.0302206
-0.0300112
-0.0297299
-0.0293763
-0.0289509
-0.0284547
-0.0278896
-0.0272571
-0.0265592
-0.0257973
-0.0249712
-0.0240817
-0.0231283
-0.0221067
-0.0210101
-0.0198346
-0.0185763
-0.0172314
-0.0157974
-0.0142756
-0.0126728
-0.0110029
-0.00928843
-0.00756036
-0.00585992
-0.00423664
-0.00274965
-0.00146251
-0.00044639
0.000231262
0.000528889
0.000409579
-0.000130444
-0.00102257
-0.00215026
-0.00330293
-0.00430582
-0.00500884
-0.00534348
-0.00530276
-0.00494184
-0.0043373
-0.00358223
-0.00275433
-0.00192643
-0.00112034
-0.00038499
-0.0233541
-0.0243747
-0.0250667
-0.0254827
-0.0257769
-0.0260535
-0.0263394
-0.0266166
-0.0268579
-0.0270454
-0.0271722
-0.0272381
-0.0272439
-0.0271895
-0.0270737
-0.0268947
-0.026651
-0.0263419
-0.025967
-0.0255267
-0.0250213
-0.0244513
-0.0238175
-0.0231191
-0.0223553