/*--------------------------------*- C++ -*----------------------------------*\
| =========                 |                                                 |
| \\      /  F ield         | OpenFOAM: The Open Source CFD Toolbox           |
|  \\    /   O peration     | Version:  2512                                  |
|   \\  /    A nd           | Website:  www.openfoam.com                      |
|    \\/     M anipulation  |                                                 |
\*---------------------------------------------------------------------------*/
FoamFile
{
    version     2.0;
    format      ascii;
    arch        "LSB;label=32;scalar=64";
    class       surfaceScalarField;
    location    "75";
    object      phi;
}
// * * * * * * * * * * * * * * * * * * * * * * * * * * * * * * * * * * * * * //

dimensions      [0 3 -1 0 0 0 0];

oriented        oriented;

internalField   nonuniform List<scalar> 
26232
(
-2.25515e-05
0.000911995
-0.000889443
0.000123983
0.00170208
-0.00184862
0.000628878
0.00164058
-0.00214548
0.00167056
0.000789996
-0.00183168
0.00342296
-0.000823821
-0.000928579
0.00605587
-0.00319431
0.000561401
0.00973012
-0.00632179
0.00264753
0.0145873
-0.0102007
0.00534349
0.020736
-0.014807
0.00865828
0.0282365
-0.0200891
0.0125887
0.0370867
-0.0259634
0.0171132
0.0472135
-0.0323154
0.0221886
0.0584708
-0.0390063
0.027749
0.0706451
-0.045883
0.0337088
0.0834683
-0.0527901
0.0399668
0.0966371
-0.0595819
0.0464132
0.109834
-0.0661332
0.052936
0.122752
-0.0723477
0.0594297
0.135117
-0.0781604
0.0657955
0.146702
-0.0835549
0.0719702
0.157349
-0.0885086
0.0778612
0.16694
-0.0931583
0.0835679
0.175402
-0.0972764
0.0888138
-0.101631
0.0946771
0.182356
4.69272e-05
0.000865068
0.000407642
0.00134137
0.00128995
0.000758272
0.00289334
-0.000813398
0.00541068
-0.00334115
0.009021
-0.00680464
0.0138756
-0.0111764
0.0200791
-0.0164042
0.0276696
-0.0223975
0.0366025
-0.029022
0.0467434
-0.0361043
0.0578722
-0.0434442
0.0696987
-0.0508329
0.0818881
-0.0580723
0.0940911
-0.0649931
0.105976
-0.0714673
0.11726
-0.0774169
0.127728
-0.0828157
0.137253
-0.0876856
0.145789
-0.092091
0.153393
-0.0961123
0.160128
-0.0998928
0.166241
-0.10339
-0.107153
0.171764
0.000130111
0.000734957
0.000747731
0.00072375
0.00207756
-0.000571559
0.00433467
-0.0030705
0.00771743
-0.00672392
0.0123896
-0.0114768
0.0184552
-0.017242
0.0259334
-0.0238824
0.0347392
-0.0312033
0.0446788
-0.0389617
0.0554623
-0.0468878
0.0667319
-0.0547138
0.0781018
-0.0622027
0.0892011
-0.0691717
0.099714
-0.075506
0.10941
-0.0811633
0.118161
-0.0861683
0.125945
-0.0905996
0.132831
-0.0945711
0.138955
-0.098215
0.144494
-0.101651
0.149616
-0.105014
0.154513
-0.108287
-0.11187
0.15923
0.00022674
0.000508217
0.00114011
-0.000189624
0.00297708
-0.00240852
0.00595583
-0.00604926
0.0102564
-0.0110245
0.0159897
-0.01721
0.0231639
-0.0244163
0.0316618
-0.0323803
0.0412375
-0.040779
0.051539
-0.0492632
0.0621515
-0.0575003
0.072653
-0.0652153
0.0826692
-0.0722189
0.0919176
-0.0784201
0.100233
-0.0838216
0.107573
-0.0885033
0.114002
-0.092597
0.119661
-0.0962583
0.124731
-0.0996411
0.129395
-0.102879
0.133815
-0.106072
0.138102
-0.109301
0.142367
-0.112553
-0.116079
0.146577
0.000337362
0.000170855
0.00158156
-0.00143382
0.00397081
-0.00479778
0.00770491
-0.00978336
0.0129101
-0.0162298
0.019597
-0.0238968
0.027629
-0.0324483
0.0367195
-0.0414707
0.0464628
-0.0505224
0.0563948
-0.0591952
0.0660647
-0.0671701
0.0751011
-0.0742517
0.0832574
-0.0803752
0.0904282
-0.0855909
0.0966388
-0.0900322
0.102013
-0.0938773
0.106729
-0.0973129
0.110977
-0.100507
0.114929
-0.103593
0.118715
-0.106665
0.122426
-0.109784
0.126111
-0.112986
0.129819
-0.11626
-0.11976
0.1335
0.000462647
-0.000291792
0.00206662
-0.00303779
0.00503173
-0.00776289
0.00950734
-0.014259
0.0155212
-0.0222437
0.0229361
-0.0313117
0.0314399
-0.0409521
0.0405832
-0.0506141
0.049856
-0.0597951
0.0587778
-0.0681169
0.0669755
-0.0753679
0.074229
-0.0815052
0.0804772
-0.0866234
0.0857926
-0.0909063
0.0903342
-0.0945738
0.0942968
-0.0978398
0.097868
-0.100884
0.101202
-0.103841
0.104411
-0.106802
0.107567
-0.10982
0.110711
-0.112928
0.113863
-0.116139
0.11705
-0.119447
-0.122933
0.120223
0.000601592
-0.000893385
0.00258266
-0.00501886
0.00611547
-0.0112957
0.0112581
-0.0194016
0.0178939
-0.0288795
0.0257066
-0.0391245
0.0342156
-0.0494611
0.0428659
-0.0592644
0.0511395
-0.0680687
0.0586474
-0.0756248
0.0651779
-0.0818984
0.0706948
-0.0870221
0.0752983
-0.0912269
0.0791672
-0.0947751
0.0825027
-0.0979094
0.0854877
-0.100825
0.0882651
-0.103662
0.0909339
-0.10651
0.0935564
-0.109424
0.0961679
-0.112432
0.0987873
-0.115547
0.101422
-0.118773
0.104082
-0.122107
-0.125582
0.106731
0.000750321
-0.00164371
0.0031071
-0.00737563
0.00715815
-0.0153468
0.0128267
-0.0250701
0.0198183
-0.0358711
0.0276392
-0.0469454
0.0356923
-0.0575142
0.0434095
-0.0669816
0.0503649
-0.075024
0.0563315
-0.0815915
0.0612766
-0.0868435
0.0653117
-0.0910572
0.0686257
-0.0945409
0.071424
-0.0975734
0.0738871
-0.100372
0.0761523
-0.10309
0.0783124
-0.105822
0.0804241
-0.108622
0.0825194
-0.111519
0.0846148
-0.114527
0.086718
-0.11765
0.0888317
-0.120887
0.0909591
-0.124234
-0.127698
0.0930751
0.000901795
-0.0025455
0.00360815
-0.010082
0.0080824
-0.019821
0.0140769
-0.0310646
0.0211113
-0.0429055
0.0285558
-0.0543899
0.0357806
-0.0647389
0.0422976
-0.0734986
0.0478367
-0.0805631
0.0523446
-0.0860994
0.0559289
-0.0904278
0.058782
-0.0939103
0.0611135
-0.0968725
0.063106
-0.0995659
0.0648964
-0.102163
0.0665757
-0.104769
0.0681985
-0.107444
0.0697951
-0.110218
0.0713811
-0.113105
0.0729643
-0.116111
0.0745477
-0.119234
0.0761326
-0.122472
0.0777188
-0.125821
-0.12927
0.079291
0.00104639
-0.00359189
0.00404859
-0.0130842
0.0088092
-0.0245816
0.0148914
-0.0371468
0.0216542
-0.0496684
0.0284026
-0.0611382
0.0345615
-0.0708978
0.039785
-0.0787221
0.0439716
-0.0847498
0.0472074
-0.0893352
0.049681
-0.0929014
0.0516066
-0.0958359
0.053173
-0.0984388
0.0545216
-0.100915
0.0557458
-0.103387
0.0569011
-0.105925
0.058018
-0.108561
0.059112
-0.111312
0.0601912
-0.114185
0.0612594
-0.117179
0.0623179
-0.120292
0.0633669
-0.123521
0.0644045
-0.126858
-0.130289
0.0654234
0.00117364
-0.00476553
0.0043924
-0.016303
0.00927248
-0.0294617
0.0151945
-0.0430688
0.021411
-0.0558848
0.0272421
-0.0669694
0.0322324
-0.075888
0.0361978
-0.0826876
0.0391793
-0.0877313
0.0413506
-0.0915064
0.0429285
-0.0944793
0.0441113
-0.0970186
0.0450499
-0.0993774
0.0458445
-0.101709
0.0465544
-0.104097
0.0472119
-0.106582
0.0478335
-0.109183
0.0484275
-0.111906
0.0489985
-0.114756
0.0495488
-0.117729
0.0500788
-0.120822
0.0505881
-0.12403
0.0510734
-0.127344
-0.130747
0.0515318
0.00127635
-0.00604187
0.00461327
-0.0196399
0.00943123
-0.0342797
0.0149623
-0.0485999
0.0204235
-0.0613461
0.0252196
-0.0717655
0.0290443
-0.0797127
0.0318605
-0.0855037
0.0338074
-0.0896783
0.0350982
-0.0927972
0.0359417
-0.0953228
0.036503
-0.0975799
0.0368936
-0.0997681
0.0371804
-0.101996
0.0373993
-0.104316
0.0375684
-0.106751
0.0376969
-0.109311
0.0377898
-0.111999
0.0378499
-0.114816
0.0378792
-0.117758
0.0378783
-0.120822
0.0378466
-0.123999
0.037781
-0.127278
0.0376817
-0.130648
-0.000252554
-0.000803433
0.00105599
-0.000870665
-0.00163468
0.0022528
-0.00176969
-0.00191509
0.00281412
-0.00288857
-0.00179454
0.00291342
-0.00418243
-0.00139921
0.00269307
-0.00561856
-0.000824736
0.00226086
-0.00717281
-0.000134342
0.00168859
-0.00882637
0.000638983
0.00101458
-0.0105627
0.00148714
0.00024915
-0.012368
0.00241951
-0.000614226
-0.0142258
0.00345648
-0.00159862
-0.0161192
0.00462231
-0.00272895
-0.018028
0.00594106
-0.00403224
-0.0199287
0.0074336
-0.00553286
-0.0217935
0.00911583
-0.0072511
-0.0235893
0.0109975
-0.00920163
-0.0252785
0.0130808
-0.0113916
-0.0268194
0.0153596
-0.0138187
-0.028168
0.0178182
-0.0164695
-0.0292815
0.0204313
-0.0193178
-0.0301216
0.0231642
-0.0223241
-0.0306584
0.0259734
-0.0254366
-0.0308796
0.0288153
-0.0285941
0.0316688
-0.0308135
-0.0317349
-0.00024483
-0.000558603
-0.000837706
-0.00104181
-0.00168974
-0.00106306
-0.00273631
-0.000747972
-0.00393026
-0.000205265
-0.0052371
0.000482106
-0.00663063
0.00125919
-0.0080891
0.00209745
-0.00959222
0.00299026
-0.0111193
0.00394664
-0.0126476
0.00498473
-0.0141512
0.00612592
-0.0156008
0.00739062
-0.0169626
0.00879544
-0.0181982
0.0103515
-0.0192641
0.0120633
-0.0201113
0.013928
-0.0206864
0.0159347
-0.0209325
0.0180643
-0.020791
0.0202898
-0.0202056
0.0225788
-0.019128
0.0248957
-0.0175219
0.0272092
0.0294981
-0.0153512
-0.000224346
-0.000334257
-0.000762782
-0.000503373
-0.00152626
-0.000299579
-0.00244811
0.000173875
-0.00347876
0.000825392
-0.00458101
0.00158435
-0.00572534
0.00240352
-0.00688586
0.00325797
-0.00803707
0.00414148
-0.00915167
0.00506124
-0.0101991
0.00603217
-0.0111449
0.00707171
-0.0119502
0.00819587
-0.0125713
0.00941657
-0.0129597
0.0107399
-0.0130618
0.0121654
-0.0128187
0.0136849
-0.0121667
0.0152826
-0.0110359
0.0169335
-0.00935364
0.0186075
-0.00704185
0.020267
-0.00401888
0.0218728
-0.000209663
0.0234
0.0249429
0.00434559
-0.000197587
-0.000136669
-0.000666515
-3.44455e-05
-0.00131921
0.000353112
-0.00208709
0.000941756
-0.00291764
0.00165595
-0.00376997
0.00243668
-0.00461032
0.00324387
-0.00540792
0.00405558
-0.00613173
0.00486529
-0.00674806
0.00567757
-0.00721917
0.00650329
-0.00750269
0.00735523
-0.00755135
0.00824452
-0.00731302
0.00917824
-0.00673077
0.0101577
-0.00574248
0.0111771
-0.00428226
0.0122247
-0.00227935
0.0132797
0.000339543
0.0143146
0.00365542
0.0152917
0.00775373
0.0161687
0.0127229
0.0169036
0.018661
0.0174619
0.0178682
0.0257357
-0.000171087
3.44175e-05
-0.000569964
0.000364432
-0.00110912
0.000892271
-0.0017176
0.00155023
-0.00233898
0.00227733
-0.00292783
0.00302553
-0.00344543
0.00376146
-0.00385582
0.00446597
-0.0041225
0.00513197
-0.00420602
0.00576108
-0.00406255
0.00635982
-0.00364323
0.00693591
-0.00289408
0.00749537
-0.00175617
0.00804032
-0.000166067
0.00856759
0.00194281
0.00906819
0.00464275
0.00952477
0.0080081
0.00991437
0.0121172
0.0102056
0.01705
0.0103589
0.0228921
0.0103265
0.0297409
0.0100548
0.0376859
0.00951693
0.00851826
0.0470358
-0.000150325
0.000184743
-0.0004897
0.000703807
-0.000928402
0.00133097
-0.00139129
0.00201312
-0.0018171
0.00270314
-0.00215507
0.0033635
-0.00236098
0.00396738
-0.00239337
0.00449836
-0.00221026
0.00494885
-0.00176673
0.00531756
-0.00101351
0.0056066
0.000103799
0.0058186
0.00164489
0.00595428
0.00367445
0.00601076
0.00626175
0.00598028
0.00948054
0.0058494
0.013407
0.00559826
0.0181211
0.00520031
0.0237049
0.00462176
0.0302424
0.00382134
0.0378168
0.00275218
0.0465386
0.00133295
0.056411
-0.000355481
-0.00307893
0.0680082
-0.000137891
0.000322634
-0.000434024
0.00099994
-0.000792615
0.00168956
-0.0011326
0.0023531
-0.00138662
0.00295716
-0.00149762
0.0034745
-0.0014149
0.00388466
-0.00109038
0.00417384
-0.000475367
0.00433383
0.000481855
0.00436034
0.00183768
0.00425077
0.00365403
0.00400226
0.00599855
0.00360977
0.00894448
0.00306483
0.0125703
0.0023545
0.0169588
0.00146089
0.0221962
0.00036088
0.0283715
-0.000975043
0.0355753
-0.00258208
0.0438989
-0.00450221
0.0534162
-0.00676517
0.0642726
-0.00952341
0.0763063
-0.0123892
-0.0171056
0.090333
-0.000132897
0.000455531
-0.000399504
0.00126655
-0.000694189
0.00198425
-0.000927842
0.00258676
-0.00102523
0.00305455
-0.000921026
0.00337029
-0.00055556
0.0035192
0.000128981
0.0034893
0.00119192
0.0032709
0.00269652
0.00285574
0.00471164
0.00223565
0.00731255
0.00140135
0.010581
0.000341325
0.0146046
-0.00095876
0.0194759
-0.00251683
0.0252904
-0.00435361
0.0321447
-0.00649343
0.0401331
-0.00896342
0.0493432
-0.0117922
0.059859
-0.015018
0.0717195
-0.0186256
0.0850644
-0.0228683
0.0995891
-0.0269139
-0.0335815
0.116065
-0.000130796
0.000586327
-0.000370864
0.00150661
-0.000601602
0.00221499
-0.000723256
0.00270841
-0.000649708
0.002981
-0.000303491
0.00302407
0.000388787
0.00282692
0.00150065
0.00237743
0.00310885
0.0016627
0.00529549
0.000669091
0.00814909
-0.000617943
0.0117641
-0.00221371
0.0162399
-0.00413448
0.021678
-0.00639678
0.0281782
-0.00901705
0.0358353
-0.0120107
0.0447332
-0.0153914
0.0549403
-0.0191705
0.066502
-0.0233539
0.0794405
-0.0279566
0.0937223
-0.0329075
0.10935
-0.0384957
0.126051
-0.0436148
-0.0515864
0.144056
-0.000124514
0.000710842
-0.000324515
0.00170661
-0.000466278
0.00235675
-0.000436182
0.00267831
-0.000132739
0.00267756
0.000539087
0.00235224
0.00167316
0.00169285
0.00336549
0.000685098
0.00571667
-0.00068848
0.008832
-0.00244623
0.0128202
-0.00460612
0.01779
-0.0071835
0.0238452
-0.0101897
0.0310786
-0.0136302
0.0395654
-0.0175039
0.0493565
-0.0218017
0.0604721
-0.026507
0.072897
-0.0315954
0.0865764
-0.0370333
0.101412
-0.0427922
0.117271
-0.0487665
0.133924
-0.0551482
0.151275
-0.0609666
-0.0690207
0.16871
-0.000106676
0.000817518
-0.000235558
0.0018355
-0.000236566
0.00235776
2.12608e-05
0.00242049
0.000659493
0.00203933
0.00179667
0.00121506
0.003552
-6.2473e-05
0.00604677
-0.00180968
0.00940422
-0.00404593
0.0137454
-0.00678736
0.0191827
-0.0100435
0.0258126
-0.0138134
0.033706
-0.0180831
0.0429
-0.0228242
0.0533906
-0.0279945
0.0651275
-0.0335387
0.0780122
-0.0393916
0.091899
-0.0454822
0.106598
-0.0517325
0.121885
-0.0580794
0.13753
-0.0644112
0.153193
-0.0708115
0.168905
-0.0766782
-0.0836117
0.183496
-7.19256e-05
-8.50467e-05
0.000127236
0.000716048
0.0018268
0.00360326
0.00618832
0.00972213
0.0143345
0.0201358
0.0272055
0.0355807
0.0452466
0.0561311
0.0681035
0.080978
0.0945223
0.10847
0.122533
0.136424
0.149874
0.16263
0.174766
0.185831
-0.0289252
0.0456381
-0.0475264
-0.0263629
0.0498808
-0.0524432
-0.0230409
0.0531601
-0.0564821
-0.018849
0.0550041
-0.059196
-0.0137444
0.0549433
-0.0600479
-0.00768847
0.0523878
-0.0584437
-0.000697905
0.0467952
-0.0537857
0.00710648
0.0377353
-0.0455397
0.0156138
0.0248758
-0.0333831
0.0245733
0.00812696
-0.0170865
0.033841
-0.0121215
0.00285381
0.0431673
-0.0354694
0.0261431
0.0523115
-0.0607087
0.0515645
0.0610094
-0.0859576
0.0772596
0.0688092
-0.10885
0.10105
0.0750494
-0.127185
0.120945
0.0789306
-0.139776
0.135895
0.0795752
-0.147147
0.146503
0.0765167
-0.151722
0.154781
0.0707562
-0.156265
0.162025
0.0652851
-0.160251
0.165722
0.0638189
-0.157483
0.158949
0.068325
-0.138977
0.134471
0.0780428
-0.0999063
0.0901884
0.0910789
-0.0434627
0.0304266
0.105196
0.0209953
-0.0351128
0.118415
0.0820629
-0.0952815
0.128887
0.130532
-0.141005
0.135877
0.163077
-0.170067
0.139773
0.180526
-0.184422
0.140396
0.18808
-0.188702
0.136619
0.196379
-0.192603
0.128911
0.212044
-0.204336
0.121038
0.223031
-0.215158
0.117795
0.202778
-0.199535
0.121065
0.135201
-0.138471
0.129111
0.0340567
-0.0421024
0.138253
-0.0696106
0.0604681
0.146004
-0.15065
0.142899
0.151383
-0.198648
0.193269
0.153101
-0.219075
0.217356
0.149343
-0.231198
0.234956
0.140656
-0.248824
0.257511
0.131315
-0.252109
0.26145
0.126715
-0.212459
0.217059
0.128996
-0.111727
0.109446
0.136376
0.008152
-0.0155321
0.144285
0.122511
-0.13042
0.147439
0.199219
-0.202374
0.144013
0.265235
-0.261808
0.136579
0.30503
-0.297595
0.130907
0.28872
-0.283048
0.131428
0.210734
-0.211255
0.135676
0.0482367
-0.0524846
0.138779
-0.061812
0.0587087
0.137825
-0.227424
0.228378
0.133241
-0.275395
0.279979
0.130205
-0.322013
0.325049
0.128426
-0.281738
0.283517
-0.0203948
0.0218745
-0.0120426
0.0423295
-0.00807162
0.0459098
-0.00335861
0.0484471
0.00205209
0.0495934
0.00818807
0.0488074
0.0150048
0.0455711
0.0223992
0.0394007
0.0302372
0.0298973
0.0383253
0.0167877
0.0464443
7.98121e-06
0.0544906
-0.0201678
0.0622998
-0.0432786
0.0697291
-0.0681381
0.0765439
-0.0927724
0.0823372
-0.114643
0.0865838
-0.131432
0.0887429
-0.141935
0.0881542
-0.146559
0.084044
-0.147612
0.076433
-0.148654
0.0674992
-0.151317
0.0614147
-0.151399
0.0618492
-0.139411
0.0693986
-0.107456
0.0821124
-0.0561764
0.0972605
0.00584723
0.112178
0.0671453
0.124698
0.118012
0.133852
0.153924
0.139603
0.174775
0.14141
0.186272
0.13846
0.19933
0.131882
0.218622
0.125497
0.229416
0.12333
0.204945
0.12664
0.131891
0.13391
0.0267862
0.141684
-0.0773843
0.147742
-0.156708
0.151519
-0.202424
0.152233
-0.219789
0.148022
-0.226987
0.139005
-0.239807
0.129263
-0.242367
0.124491
-0.207688
0.127205
-0.114441
0.135439
-8.2144e-05
0.144108
0.113842
0.147754
0.195573
0.144625
0.268364
0.137341
0.312314
0.131571
0.294489
0.131885
0.21042
0.136147
0.0439748
0.13927
-0.0649353
0.13833
-0.226484
0.133746
-0.270811
0.130973
-0.31924
0.129371
-0.280136
-0.0187355
0.00885624
0.0378188
0.0139
0.040866
0.0195167
0.0428303
0.025735
0.0433752
0.0324685
0.0420738
0.0395916
0.038448
0.0469591
0.0320333
0.0544058
0.0224505
0.0617253
0.00946826
0.0687999
-0.0070667
0.0755003
-0.0268681
0.0817345
-0.0495128
0.0873922
-0.0737958
0.092247
-0.0976271
0.095923
-0.118319
0.0979961
-0.133505
0.0981757
-0.142115
0.0962553
-0.144638
0.0916116
-0.142969
0.0834575
-0.1405
0.0725919
-0.140451
0.0626438
-0.14145
0.0585135
-0.135281
0.0627881
-0.11173
0.0742085
-0.0675968
0.0897614
-0.00970565
0.105978
0.0509284
0.120402
0.103588
0.131688
0.142638
0.139278
0.167185
0.142383
0.183167
0.140583
0.20113
0.13547
0.223735
0.130657
0.234228
0.129375
0.206227
0.132438
0.128828
0.13863
0.0205941
0.144954
-0.0837086
0.149331
-0.161085
0.151524
-0.204616
0.151294
-0.21956
0.146802
-0.222495
0.137666
-0.230671
0.127658
-0.232359
0.122687
-0.202716
0.125681
-0.117436
0.134598
-0.00899926
0.143961
0.104479
0.148149
0.191386
0.145405
0.271108
0.138334
0.319385
0.132469
0.300354
0.132518
0.21037
0.136745
0.0397486
0.139917
-0.068108
0.138999
-0.225565
0.134371
-0.266184
0.131808
-0.316676
0.130396
-0.278725
-0.016918
0.0310954
0.0324591
0.0369113
0.0350502
0.0431674
0.0365742
0.0498345
0.0367081
0.0567966
0.0351117
0.0638964
0.0313481
0.070969
0.0249607
0.077857
0.0155625
0.0843382
0.00298714
0.0904192
-0.0131477
0.0958722
-0.0323211
0.100645
-0.0542852
0.104598
-0.0777496
0.107484
-0.100513
0.108971
-0.119806
0.108782
-0.133316
0.10688
-0.140212
0.103449
-0.141208
0.0983603
-0.13788
0.0906293
-0.132769
0.0795958
-0.129418
0.0673258
-0.12918
0.0588604
-0.126816
0.05884
-0.11171
0.0678478
-0.0766046
0.0828154
-0.0246732
0.0999087
0.0338351
0.116013
0.0874845
0.129312
0.129339
0.138695
0.157801
0.143236
0.178626
0.142896
0.201471
0.139521
0.22711
0.136303
0.237446
0.135714
0.206817
0.138288
0.126254
0.143208
0.0156743
0.148001
-0.0885024
0.150755
-0.163839
0.151402
-0.205263
0.150258
-0.218416
0.145614
-0.21785
0.136563
-0.22162
0.126444
-0.222241
0.121257
-0.197528
0.124378
-0.120557
0.133814
-0.0184351
0.143813
0.0944801
0.148604
0.186595
0.146349
0.273363
0.139573
0.326161
0.133631
0.306297
0.133342
0.210659
0.137479
0.0356113
0.140709
-0.0713377
0.139818
-0.224674
0.135112
-0.261478
0.132698
-0.314262
0.131483
-0.27751
-0.0149694
0.0528613
0.0266336
0.0590567
0.0288548
0.065621
0.0300099
0.072479
0.0298501
0.0794698
0.0281209
0.0864182
0.0243997
0.093147
0.0182318
0.0994249
0.0092846
0.105466
-0.00305393
0.110613
-0.0182944
0.114988
-0.0366969
0.11841
-0.0577072
0.120665
-0.0800038
0.121488
-0.101337
0.120679
-0.118997
0.118234
-0.130871
0.114366
-0.136343
0.109456
-0.136298
0.103796
-0.13222
0.0967885
-0.125761
0.086992
-0.119621
0.0744499
-0.116638
0.0629093
-0.115275
0.0581977
-0.106998
0.0634344
-0.0818412
0.0767735
-0.0380123
0.0940727
0.0165359
0.111489
0.0700683
0.126561
0.114266
0.137658
0.146704
0.143785
0.172499
0.145189
0.200066
0.143771
0.228528
0.142157
0.23906
0.142122
0.206852
0.144043
0.124333
0.147529
0.0121883
0.150752
-0.0917252
0.15196
-0.165047
0.151128
-0.204431
0.149097
-0.216386
0.144412
-0.213165
0.135633
-0.212841
0.125552
-0.212159
0.120147
-0.192123
0.123249
-0.12366
0.133039
-0.0282247
0.143623
0.083896
0.149087
0.181131
0.147441
0.275009
0.141059
0.332542
0.135069
0.312288
0.134378
0.21135
0.138346
0.0316429
0.14163
-0.0746217
0.140775
-0.223819
0.135964
-0.256667
0.133635
-0.311933
0.132612
-0.276487
-0.0129201
0.0737776
0.0208642
0.0798788
0.0227535
0.0863466
0.0235421
0.0930732
0.0231235
0.0998665
0.0213276
0.106538
0.0177279
0.112936
0.0118347
0.118799
0.00342062
0.124181
-0.00843533
0.128631
-0.0227447
0.132048
-0.0401134
0.134175
-0.0598349
0.134732
-0.0805602
0.133486
-0.10009
0.130417
-0.115928
0.125821
-0.126275
0.120202
-0.130724
0.114067
-0.130163
0.10784
-0.125992
0.101411
-0.119333
0.0934399
-0.11165
0.0824675
-0.105666
0.0699431
-0.102751
0.0611978
-0.098253
0.0616402
-0.0822837
0.0719496
-0.0483217
0.0884983
-1.28354e-05
0.106673
0.0518935
0.123182
0.097757
0.135884
0.134003
0.14373
0.164654
0.147132
0.196664
0.147855
0.227805
0.147886
0.239029
0.148325
0.206413
0.149499
0.123159
0.151517
0.0101702
0.153135
-0.0933424
0.152887
-0.164799
0.150674
-0.202218
0.147777
-0.213489
0.143129
-0.208517
0.134792
-0.204505
0.124887
-0.202254
0.119271
-0.186507
0.122221
-0.12661
0.132217
-0.038221
0.143335
0.0727779
0.14955
0.174916
0.148646
0.275914
0.142771
0.338417
0.136783
0.318276
0.135635
0.212498
0.139346
0.0279314
0.142664
-0.0779398
0.141851
-0.223005
0.13692
-0.251736
0.134611
-0.309624
0.133769
-0.275645
-0.0108041
0.0952786
0.0159186
0.100667
0.0173655
0.106516
0.0176931
0.112659
0.0169807
0.11889
0.0150958
0.125017
0.0116017
0.130769
0.00608267
0.136363
-0.00217395
0.140904
-0.012976
0.14451
-0.026351
0.14682
-0.0424231
0.147505
-0.06052
0.146257
-0.079312
0.142937
-0.0967704
0.137741
-0.110732
0.13123
-0.119765
0.12415
-0.123644
0.117116
-0.12313
0.110504
-0.11938
0.104429
-0.113257
0.0981211
-0.105342
0.0897127
-0.0972576
0.0784478
-0.0914858
0.0675446
-0.0873498
0.0631286
-0.0778677
0.0689457
-0.0541388
0.0832815
-0.0143486
0.101359
0.0338162
0.118877
0.0802388
0.13307
0.119809
0.142755
0.154969
0.148363
0.191056
0.151367
0.224801
0.153082
0.237314
0.154035
0.20546
0.154498
0.122696
0.155014
0.00965388
0.155074
-0.0934028
0.153469
-0.163194
0.150007
-0.198756
0.146266
-0.209749
0.141699
-0.203949
0.133954
-0.196759
0.12435
-0.19265
0.118529
-0.180686
0.121206
-0.129286
0.131272
-0.0482871
0.142882
0.0611676
0.149933
0.167865
0.149916
0.275931
0.144672
0.343661
0.138755
0.324193
0.137108
0.214145
0.140476
0.0245639
0.143792
-0.0812566
0.143027
-0.22224
0.137974
-0.246683
0.135621
-0.307271
0.13494
-0.274964
-0.00865774
0.119369
0.0126149
0.123348
0.0133858
0.127916
0.0131259
0.132833
0.012063
0.137926
0.0100031
0.143052
0.00647581
0.147822
0.00131278
0.152329
-0.00668126
0.155782
-0.0164285
0.158131
-0.0287003
0.158965
-0.043257
0.157921
-0.0594766
0.154733
-0.0761237
0.149407
-0.0914447
0.142356
-0.103681
0.134336
-0.111745
0.126206
-0.115514
0.118623
-0.115547
0.111887
-0.112644
0.106075
-0.107446
0.100909
-0.100176
0.0950188
-0.0913673
0.0865252
-0.0829922
0.075968
-0.0767925
0.0680859
-0.0699856
0.0686228
-0.0546757
0.0790032
-0.0247289
0.0956009
0.0172184
0.113449
0.0623909
0.128954
0.104304
0.140565
0.143359
0.148524
0.183097
0.1539
0.219426
0.157334
0.23388
0.158853
0.203941
0.158809
0.12274
0.157962
0.0105007
0.156504
-0.0919448
0.153632
-0.160322
0.149082
-0.194205
0.144531
-0.205198
0.140051
-0.199469
0.133026
-0.189735
0.123845
-0.183469
0.117818
-0.174659
0.120111
-0.131579
0.130122
-0.0582987
0.142191
0.0490987
0.150161
0.159895
0.15118
0.274911
0.146706
0.348136
0.14094
0.329958
0.138785
0.216301
0.141722
0.0216266
0.144993
-0.0845275
0.14428
-0.221527
0.139117
-0.24152
0.13666
-0.304814
0.136113
-0.274417
-0.00652009
0.14542
0.0112504
0.147616
0.0111904
0.150388
0.0103535
0.153512
0.00893869
0.156886
0.00662911
0.160254
0.00310827
0.163777
-0.00221008
0.166397
-0.00930197
0.168202
-0.0182327
0.168786
-0.0292848
0.167759
-0.0422295
0.164778
-0.0564956
0.159673
-0.0710194
0.152611
-0.0843825
0.144163
-0.0952322
0.135174
-0.102756
0.126488
-0.106828
0.118704
-0.107763
0.112065
-0.106005
0.106559
-0.10194
0.102087
-0.0957037
0.0980135
-0.0872939
0.0925945
-0.0775732
0.0844633
-0.0686613
0.0756531
-0.0611755
0.07166
-0.0506826
0.0767819
-0.0298508
0.0900923
0.00390803
0.107094
0.0453891
0.123447
0.0879505
0.136944
0.129862
0.14738
0.17266
0.155225
0.211581
0.160357
0.228748
0.162463
0.201835
0.162136
0.123068
0.16022
0.0124165
0.157331
-0.0890556
0.153278
-0.156269
0.147818
-0.188746
0.142519
-0.1999
0.1381
-0.195049
0.131909
-0.183544
0.123282
-0.174842
0.117042
-0.16842
0.118842
-0.133378
0.128684
-0.0681406
0.141181
0.0366008
0.150153
0.150924
0.152367
0.272696
0.148801
0.351702
0.143282
0.335477
0.140638
0.218945
0.143063
0.0192012
0.146243
-0.0877075
0.145586
-0.22087
0.140336
-0.23627
0.137721
-0.3022
0.137278
-0.273974
-0.0044329
0.168629
0.0113312
0.169269
0.0105503
0.170258
0.00936408
0.171532
0.00766503
0.17307
0.0050911
0.17468
0.00149826
0.176058
-0.00358769
0.176723
-0.00996754
0.176563
-0.018072
0.175173
-0.0278956
0.172208
-0.0392638
0.167401
-0.051689
0.160705
-0.0643231
0.15241
-0.0760877
0.143158
-0.0859802
0.133768
-0.0933656
0.124979
-0.0980393
0.117281
-0.100064
0.110875
-0.0995992
0.105734
-0.0967991
0.101761
-0.0917309
0.0987747
-0.0843078
0.0958036
-0.074602
0.0909797
-0.0638375
0.0838285
-0.0540242
0.0776488
-0.0445029
0.0776949
-0.0298969
0.0861818
-0.00457883
0.100669
0.0309014
0.116889
0.0717306
0.131894
0.114858
0.144683
0.159872
0.154962
0.201302
0.161867
0.221842
0.164716
0.198986
0.16434
0.123443
0.161751
0.0150056
0.157525
-0.084829
0.152338
-0.151082
0.14615
-0.182558
0.140205
-0.193954
0.135791
-0.190635
0.130512
-0.178264
0.122598
-0.166929
0.116151
-0.161972
0.117318
-0.134546
0.126873
-0.0776959
0.139777
0.0236972
0.149823
0.140878
0.153371
0.269149
0.150861
0.354212
0.145706
0.340633
0.142606
0.222045
0.144496
0.0173108
0.147519
-0.0907304
0.146925
-0.220276
0.141617
-0.230962
0.138799
-0.299382
0.138429
-0.273604
-0.00244058
0.182943
0.0118839
0.182691
0.0108026
0.182514
0.00954093
0.182533
0.0076463
0.182672
0.00495177
0.182609
0.00156169
0.182248
-0.00322664
0.181303
-0.00902304
0.179464
-0.0162331
0.17643
-0.0248617
0.171939
-0.0347724
0.16584
-0.0455898
0.158196
-0.0566794
0.149369
-0.0672604
0.139978
-0.0765898
0.13073
-0.0841168
0.122215
-0.0895242
0.114806
-0.0926563
0.10867
-0.0934626
0.10382
-0.0919489
0.100183
-0.0880947
0.0977329
-0.0818572
0.0961945
-0.0730637
0.0942556
-0.0618985
0.0902209
-0.0499895
0.0846941
-0.0389762
0.0816291
-0.0268319
0.0852037
-0.00815337
0.0955789
0.0205262
0.110145
0.0571642
0.125813
0.0991898
0.140767
0.144918
0.153573
0.188496
0.162129
0.213286
0.165624
0.195491
0.165694
0.123373
0.162576
0.0181241
0.157295
-0.079548
0.151008
-0.144796
0.144247
-0.175797
0.137774
-0.187481
0.133246
-0.186107
0.128849
-0.173868
0.121798
-0.159878
0.115166
-0.15534
0.115534
-0.134913
0.124629
-0.0867908
0.137882
0.0104437
0.149091
0.12967
0.154139
0.264101
0.152814
0.355537
0.148119
0.345327
0.144667
0.225497
0.145985
0.0159934
0.148805
-0.0935503
0.148287
-0.219758
0.142943
-0.225618
0.139889
-0.296328
0.139565
-0.273279
-0.000588348
0.185552
0.0121634
0.184988
0.0113664
0.184499
0.0100297
0.183972
0.00817349
0.18333
0.00559328
0.182658
0.00223382
0.181362
-0.0019298
0.179442
-0.00710346
0.176637
-0.0134285
0.172731
-0.0209556
0.167558
-0.029599
0.161066
-0.0390982
0.153403
-0.0490165
0.144937
-0.0587943
0.136191
-0.0678438
0.127706
-0.0756315
0.119918
-0.0817357
0.113105
-0.0858434
0.107396
-0.0877539
0.102832
-0.0873847
0.0993871
-0.0846503
0.0970422
-0.0795122
0.0958704
-0.0718919
0.0954246
-0.0614528
0.0941439
-0.0487087
0.0908985
-0.0357308
0.087362
-0.0232955
0.0872003
-0.00799158
0.093162
0.0145645
0.104498
0.0458279
0.119077
0.0846108
0.134904
0.129091
0.149589
0.173811
0.159904
0.202971
0.164934
0.19046
0.166009
0.122299
0.163151
0.0209819
0.156645
-0.073042
0.14941
-0.137561
0.14229
-0.168676
0.135438
-0.180629
0.130653
-0.181323
0.12699
-0.170204
0.120896
-0.153784
0.114137
-0.148582
0.113589
-0.134365
0.122064
-0.0952659
0.135543
-0.00303462
0.147828
0.117384
0.154487
0.257442
0.154528
0.355496
0.150451
0.349404
0.146737
0.229211
0.147554
0.0151763
0.150081
-0.0960772
0.149659
-0.219337
0.144283
-0.220242
0.141
-0.293045
0.140688
-0.272967
0.00107706
0.201555
0.0123628
-0.201755
0.201967
0.0109548
0.202474
0.00952193
0.203167
0.00748048
0.203987
0.00477357
0.204753
0.001468
0.205531
-0.00270809
0.206116
-0.00768821
0.206314
-0.0136265
0.205892
-0.0205334
0.20461
-0.0283171
0.202274
-0.0367618
0.198784
-0.0455274
0.194169
-0.0541784
0.188565
-0.06224
0.18218
-0.0692469
0.175247
-0.0748022
0.167995
-0.078592
0.160633
-0.0803921
0.153344
-0.0800955
0.146273
-0.0775794
0.139498
-0.0727368
0.133166
-0.0655603
0.127409
-0.0556957
0.121625
-0.042924
0.114522
-0.0286284
0.105889
-0.0146623
0.0978616
3.58505e-05
0.0929622
0.0194639
0.092762
0.0460281
0.0968661
0.0805067
0.104278
0.121679
0.114099
0.16399
0.126724
0.190346
0.14372
0.173464
0.162305
0.103714
0.174977
0.00830948
0.179564
-0.0776296
0.177245
-0.135242
0.170797
-0.162228
0.162088
-0.17192
0.153848
-0.173083
0.146681
-0.163038
0.138004
-0.145106
0.128146
-0.138724
0.122381
-0.1286
0.123248
-0.0961331
0.127996
-0.00778289
0.13175
0.11363
0.132873
0.256319
0.132949
0.355421
0.134167
0.348186
0.137951
0.225427
0.143089
0.0100383
0.146853
-0.0998419
0.145712
-0.218195
0.138851
-0.213381
0.133439
-0.287633
0.129875
-0.269402
0.00421312
0.213446
0.0120365
-0.21312
0.213955
0.0104456
0.21474
0.008737
0.215576
0.00664433
0.216338
0.00401188
0.217041
0.000765433
0.217544
-0.00321173
0.217749
-0.00789311
0.21748
-0.0133576
0.21656
-0.019613
0.214816
-0.0265734
0.212116
-0.0340621
0.208397
-0.0418078
0.203678
-0.0494595
0.198063
-0.056625
0.191722
-0.0629054
0.184864
-0.0679449
0.177719
-0.071447
0.170502
-0.0731743
0.163393
-0.0729865
0.156548
-0.0707351
0.150059
-0.0662479
0.144001
-0.0595025
0.13856
-0.0502539
0.13361
-0.0379744
0.128157
-0.0231754
0.121118
-0.00762282
0.113049
0.00810481
0.106592
0.0259201
0.1042
0.0484202
0.106982
0.0777248
0.114452
0.114209
0.125606
0.152837
0.140819
0.175133
0.160226
0.154056
0.179254
0.0846867
0.191383
-0.00381902
0.194175
-0.0804222
0.19011
-0.131177
0.182371
-0.154489
0.172763
-0.162312
0.163726
-0.164046
0.156289
-0.155602
0.147754
-0.136571
0.137571
-0.128541
0.130889
-0.121918
0.13115
-0.0963936
0.135867
-0.0124997
0.140126
0.109371
0.142022
0.254422
0.143108
0.354335
0.145305
0.345989
0.149554
0.221178
0.154738
0.00485424
0.158179
-0.103283
0.156532