/*--------------------------------*- C++ -*----------------------------------*\
| =========                 |                                                 |
| \\      /  F ield         | OpenFOAM: The Open Source CFD Toolbox           |
|  \\    /   O peration     | Version:  2512                                  |
|   \\  /    A nd           | Website:  www.openfoam.com                      |
|    \\/     M anipulation  |                                                 |
\*---------------------------------------------------------------------------*/
FoamFile
{
    version     2.0;
    format      ascii;
    arch        "LSB;label=32;scalar=64";
    class       volVectorField;
    location    "77.25";
    object      U;
}
// * * * * * * * * * * * * * * * * * * * * * * * * * * * * * * * * * * * * * //

dimensions      [0 1 -1 0 0 0 0];

internalField   nonuniform List<vector> 
13248
(
(-0.0113763 0.0106142 6.94474e-20)
(-0.0190814 0.0201224 0)
(-0.0134454 0.0225539 -1.31792e-19)
(0.00442787 0.0205166 1.24151e-19)
(0.0339802 0.0159927 1.16593e-19)
(0.0748905 0.0104696 0)
(0.126845 0.00503236 0)
(0.189351 0.000467752 2.80461e-19)
(0.261563 -0.00266312 -2.48097e-21)
(0.342153 -0.00398642 -2.4292e-19)
(0.429277 -0.00330028 2.21037e-19)
(0.520619 -0.000569345 -1.37881e-19)
(0.613531 0.00408229 0)
(0.705231 0.0103874 -2.2313e-19)
(0.793021 0.0179642 4.11424e-19)
(0.874503 0.0263547 -9.71717e-20)
(0.947744 0.0350714 -1.63521e-19)
(1.01139 0.0436294 1.53507e-19)
(1.06472 0.0516388 0)
(1.10761 0.05862 0)
(1.14065 0.0647311 0)
(1.16416 0.0685951 0)
(1.18116 0.073059 4.20356e-20)
(1.18915 0.0712414 1.47956e-19)
(-0.0108414 0.00919627 -2.09863e-19)
(-0.0142568 0.0163211 1.43314e-19)
(-0.000759268 0.017505 -1.0435e-21)
(0.0281268 0.0151246 -1.89707e-19)
(0.0714932 0.0110939 -1.16465e-19)
(0.128608 0.00691604 -1.10061e-19)
(0.198561 0.00368842 -2.02091e-19)
(0.280006 0.00216544 1.90836e-19)
(0.370983 0.00280698 0)
(0.468863 0.00579892 1.65774e-21)
(0.570438 0.0110684 3.50864e-21)
(0.67215 0.0183112 1.37683e-19)
(0.77041 0.0270397 0)
(0.861929 0.0366481 0)
(0.944005 0.0464885 1.49052e-19)
(1.01473 0.0559452 -2.79719e-19)
(1.07309 0.0644974 1.61152e-19)
(1.11895 0.0717595 -1.51294e-19)
(1.15297 0.0775089 -6.53538e-20)
(1.17646 0.0816409 -1.14906e-19)
(1.19101 0.08432 -4.65082e-20)
(1.1988 0.0852602 -8.62725e-20)
(1.20115 0.0861346 1.29241e-19)
(1.2002 0.0827741 3.68037e-20)
(-0.00921561 0.00723487 0)
(-0.00585732 0.011207 0)
(0.0181993 0.0109081 6.71337e-20)
(0.0609254 0.00844914 6.19925e-20)
(0.120897 0.00563291 -1.40749e-21)
(0.196658 0.00391688 -1.13075e-19)
(0.28624 0.00429074 0)
(0.386892 0.00730423 -9.4713e-20)
(0.49502 0.0130989 8.81665e-20)
(0.606333 0.0214383 2.71794e-22)
(0.716213 0.0317677 -1.48205e-19)
(0.820185 0.0433104 -1.33223e-19)
(0.914395 0.0551903 4.25003e-21)
(0.995985 0.0665583 -1.04954e-19)
(1.0633 0.0766999 2.55687e-19)
(1.11591 0.0851091 0)
(1.15452 0.0915206 -1.58145e-19)
(1.18069 0.0958956 7.69265e-20)
(1.19656 0.0983975 6.52947e-20)
(1.20448 0.0992681 0)
(1.2068 0.0989688 5.19236e-20)
(1.20548 0.0974618 -1.78413e-19)
(1.20201 0.0961811 1.67481e-19)
(1.19843 0.0919772 1.04547e-19)
(-0.00623326 0.00488718 -7.41661e-20)
(0.00690067 0.00532741 -7.65996e-20)
(0.0446532 0.0037648 6.9436e-20)
(0.104288 0.00196077 0)
(0.183517 0.00151441 0)
(0.279653 0.0036939 -1.95822e-21)
(0.389045 0.00916866 0)
(0.50697 0.0180123 -2.86739e-19)
(0.627863 0.0297659 2.65298e-19)
(0.745867 0.0435476 -3.26172e-19)
(0.85552 0.0582198 7.40201e-20)
(0.952409 0.0725908 0)
(1.03362 0.0856053 1.19416e-19)
(1.09791 0.0964844 -2.19678e-19)
(1.14563 0.104797 5.21205e-20)
(1.17839 0.110459 1.29135e-19)
(1.19864 0.11367 -7.82759e-21)
(1.20922 0.114822 -1.43243e-19)
(1.21291 0.114391 0)
(1.21216 0.11284 0)
(1.20886 0.110626 -4.92419e-20)
(1.20434 0.107808 4.38221e-20)
(1.19947 0.105478 1.54482e-19)
(1.19473 0.100769 -1.45022e-19)
(-0.00156097 0.00231233 -7.79308e-20)
(0.024839 -0.000701868 -7.76568e-20)
(0.0796872 -0.00277963 2.18525e-19)
(0.159192 -0.00268865 -1.32673e-19)
(0.259661 0.0007747 1.24883e-19)
(0.376488 0.00843734 2.26811e-19)
(0.503708 0.0203255 -1.59888e-19)
(0.634288 0.0357058 -1.92957e-19)
(0.760907 0.0532795 4.87419e-21)
(0.87693 0.0714562 2.45893e-19)
(0.977294 0.0886622 0)
(1.05904 0.103611 6.6331e-20)
(1.12141 0.115474 0)
(1.16557 0.123931 -1.05495e-19)
(1.19405 0.129115 1.47915e-19)
(1.2101 0.131475 1.09784e-21)
(1.21708 0.131626 -3.79812e-20)
(1.21802 0.130204 6.96824e-20)
(1.21533 0.127764 6.01835e-20)
(1.21073 0.124729 -5.35277e-20)
(1.20534 0.121405 4.923e-20)
(1.1998 0.117849 -4.38112e-20)
(1.19435 0.114685 0)
(1.18944 0.10973 -3.34192e-20)
(0.00516926 -0.000293581 7.79197e-20)
(0.0487056 -0.00615877 8.15894e-20)
(0.124025 -0.00745494 -7.31643e-20)
(0.225789 -0.0037846 1.36084e-19)
(0.348194 0.00533294 -1.28086e-19)
(0.484007 0.0199007 1.1553e-19)
(0.62458 0.0389122 -5.54262e-20)
(0.760845 0.0605584 1.45017e-19)
(0.884693 0.0826694 -9.09538e-20)
(0.990174 0.10318 1.59299e-19)
(1.07416 0.120506 -3.66272e-19)
(1.13632 0.13375 1.34057e-19)
(1.17861 0.142712 -1.15472e-19)
(1.20443 0.147752 1.08462e-19)
(1.21775 0.149573 9.19855e-20)
(1.22238 0.149001 7.95379e-20)
(1.2215 0.146812 -2.21534e-19)
(1.21749 0.143631 1.36901e-19)
(1.21197 0.139906 -6.01853e-20)
(1.20591 0.135921 1.55949e-19)
(1.19983 0.13184 -5.03947e-20)
(1.19398 0.127704 -1.21447e-19)
(1.18847 0.123844 1.11922e-19)
(1.18341 0.118726 3.34083e-20)
(0.0143032 -0.00266484 0)
(0.0790265 -0.0101874 5.94734e-22)
(0.177799 -0.00890298 1.52297e-19)
(0.303134 0.000307661 -1.42936e-19)
(0.446373 0.0167271 -1.28647e-19)
(0.597206 0.0390672 2.38867e-19)
(0.744545 0.064966 -1.1082e-19)
(0.878366 0.0915143 1.46939e-19)
(0.991401 0.115977 -3.57932e-21)
(1.08003 0.136337 -8.28055e-20)
(1.14417 0.151553 1.78847e-19)
(1.18648 0.161516 -2.63234e-19)
(1.2112 0.166814 0)
(1.22297 0.168408 -5.08628e-20)
(1.22607 0.167339 -1.34437e-19)
(1.22389 0.164532 4.24793e-20)
(1.21886 0.160693 1.87493e-21)
(1.21255 0.156307 -9.02545e-20)
(1.20585 0.151673 6.46762e-21)
(1.19925 0.14696 1.04039e-19)
(1.19297 0.142251 -4.57689e-20)
(1.18707 0.137589 -1.7318e-20)
(1.18154 0.133087 5.36772e-20)
(1.1764 0.127823 0)
(0.0260977 -0.00445208 0)
(0.115952 -0.0118055 4.12937e-20)
(0.240363 -0.00574911 -1.98482e-19)
(0.389073 0.0109851 7.2054e-20)
(0.550037 0.0359046 -6.7815e-20)
(0.709987 0.0660105 -6.17322e-20)
(0.856475 0.0975188 -1.08861e-19)
(0.980258 0.126766 5.45126e-20)
(1.07666 0.15106 4.72408e-20)
(1.14551 0.169055 0)
(1.19001 0.180661 1.06014e-19)
(1.21519 0.186676 -1.56898e-19)
(1.22647 0.188338 1.16613e-19)
(1.22869 0.186939 5.08887e-20)
(1.22557 0.183584 -4.11732e-20)
(1.21968 0.179096 -3.38399e-20)
(1.21263 0.174023 -3.13599e-20)
(1.20532 0.168695 9.49478e-20)
(1.1982 0.163296 0)
(1.19148 0.157923 4.68672e-20)
(1.1852 0.152622 3.89531e-20)
(1.17934 0.147419 -9.72474e-20)
(1.17384 0.142303 -6.59412e-20)
(1.16867 0.136882 6.09505e-20)
(0.0406593 -0.00523065 -4.44832e-20)
(0.159134 -0.00995944 -1.58692e-21)
(0.310205 0.00327602 4.03356e-20)
(0.48037 0.0292366 1.12391e-19)
(0.654154 0.0630983 3.25129e-20)
(0.816271 0.0999723 -6.29287e-20)
(0.954685 0.134983 5.74873e-20)
(1.06282 0.164393 -5.02726e-20)
(1.1398 0.186259 8.9694e-20)
(1.18912 0.200358 3.79277e-20)
(1.21658 0.207667 -1.07646e-19)
(1.22851 0.209732 3.15416e-20)
(1.23047 0.208154 5.33519e-20)
(1.22669 0.204286 -2.6347e-20)
(1.22004 0.199115 0)
(1.21226 0.193287 3.85325e-20)
(1.2043 0.187184 6.45742e-20)
(1.19661 0.181016 1.06079e-20)
(1.18939 0.174891 -5.34888e-20)
(1.18269 0.168863 2.2148e-20)
(1.17648 0.162957 0)
(1.17069 0.157179 -1.71993e-20)
(1.16525 0.151477 -1.62186e-20)
(1.16006 0.145842 0)
(0.0578883 -0.00453228 0)
(0.207645 -0.00362671 2.32916e-20)
(0.384978 0.0191819 4.29967e-20)
(0.573022 0.0555039 -1.1444e-19)
(0.753572 0.0978331 3.69371e-20)
(0.911014 0.139621 0)
(1.03574 0.17562 5.51974e-20)
(1.12526 0.20283 -7.69951e-20)
(1.1828 0.220607 -4.47421e-20)
(1.2149 0.230009 2.01892e-20)
(1.2289 0.232924 -3.18375e-20)
(1.23136 0.231353 7.75516e-20)
(1.22727 0.226989 3.84216e-20)
(1.21996 0.221061 -2.69579e-20)
(1.21144 0.214362 -2.7588e-21)
(1.20277 0.207354 -7.20518e-20)
(1.19445 0.200287 3.27011e-20)
(1.18668 0.193287 -8.55046e-22)
(1.17951 0.186415 0)
(1.17292 0.179702 -2.21711e-20)
(1.16683 0.173161 0)
(1.16116 0.166772 4.94358e-20)
(1.15582 0.160512 -5.85934e-20)
(1.15067 0.154577 2.66207e-20)
(0.0774422 -0.00188892 -1.21064e-20)
(0.259973 0.00806882 -5.84795e-20)
(0.461661 0.0425809 6.64566e-20)
(0.662735 0.0896217 3.8972e-20)
(0.843726 0.139056 -1.86445e-20)
(0.990788 0.183368 3.11584e-20)
(1.09843 0.217874 -1.51656e-20)
(1.16878 0.241018 2.51151e-20)
(1.20875 0.253708 0)
(1.22685 0.258171 5.63567e-20)
(1.23091 0.256915 -2.48171e-21)
(1.22702 0.252107 -4.51837e-20)
(1.21923 0.245332 1.92037e-20)
(1.20998 0.237607 -2.14686e-20)
(1.20055 0.22952 -7.99192e-21)
(1.19153 0.221381 9.43106e-21)
(1.18315 0.213344 -7.14684e-21)
(1.17546 0.20548 -3.85854e-20)
(1.16844 0.197825 2.36013e-20)
(1.16203 0.190396 4.76325e-21)
(1.15612 0.183187 4.16453e-21)
(1.15062 0.176169 3.64249e-21)
(1.14542 0.169383 0)
(1.14035 0.163041 0)
(0.098794 0.00313057 1.21147e-20)
(0.314223 0.0257655 -1.21058e-20)
(0.536994 0.0735987 -2.21234e-20)
(0.745553 0.130847 0)
(0.921204 0.185342 -9.2434e-21)
(1.05385 0.229644 -8.29255e-21)
(1.14308 0.260546 -1.41605e-20)
(1.19548 0.278359 0)
(1.22064 0.285521 0)
(1.22801 0.285147 0)
(1.22514 0.28006 0)
(1.21721 0.272367 0)
(1.20732 0.263433 -1.20046e-20)
(1.19712 0.254044 5.45247e-21)
(1.18736 0.244609 9.40845e-21)
(1.17832 0.235322 4.3926e-21)
(1.17008 0.226273 1.0737e-20)
(1.1626 0.217498 0)
(1.15584 0.209016 -2.51835e-21)
(1.1497 0.200832 -2.40646e-21)
(1.14407 0.192925 -4.17116e-21)
(1.13883 0.18527 -3.6483e-21)
(1.13386 0.177983 0)
(1.12899 0.171121 2.55282e-21)
(-0.000275873 -0.0292489 8.10189e-21)
(-0.00392857 -0.0707208 -8.41158e-21)
(-0.0123814 -0.0996409 -1.59258e-20)
(-0.0235669 -0.118682 0)
(-0.0362209 -0.130291 -2.13627e-20)
(-0.0496144 -0.136652 6.74441e-21)
(-0.063217 -0.139552 -1.26304e-20)
(-0.0766568 -0.140311 0)
(-0.0897007 -0.139786 0)
(-0.102214 -0.138427 0)
(-0.114123 -0.136368 0)
(-0.125385 -0.133522 0)
(-0.13597 -0.129667 1.68549e-22)
(-0.145844 -0.124511 -8.45268e-21)
(-0.15496 -0.117738 1.56062e-20)
(-0.163257 -0.109033 2.21761e-20)
(-0.170655 -0.0981003 6.6719e-21)
(-0.177062 -0.0846805 0)
(-0.182382 -0.0685601 6.24259e-21)
(-0.186529 -0.0495913 -1.70862e-20)
(-0.189416 -0.0277038 -1.04543e-20)
(-0.190783 -0.00287078 -9.7055e-21)
(-0.190887 0.0250051 0)
(-0.190775 0.0557697 0)
(0.000909085 -0.024918 -2.4203e-20)
(-0.00166196 -0.0604148 4.18596e-20)
(-0.0102606 -0.0853784 -1.55791e-20)
(-0.022188 -0.101915 -2.9849e-20)
(-0.0358253 -0.112087 4.22936e-20)
(-0.0502572 -0.117786 -2.65594e-20)
(-0.0648428 -0.120565 3.76095e-20)
(-0.0791528 -0.121563 2.33696e-20)
(-0.092933 -0.121504 0)
(-0.106048 -0.120757 -2.1119e-20)
(-0.118432 -0.119408 -1.66767e-23)
(-0.130054 -0.117355 1.87136e-20)
(-0.140892 -0.114382 2.58801e-20)
(-0.150916 -0.110215 3.24807e-20)
(-0.160084 -0.104564 -1.56851e-20)
(-0.168333 -0.097144 -4.31933e-20)
(-0.175583 -0.0876854 1.28106e-20)
(-0.181736 -0.0759431 -4.89321e-20)
(-0.1867 -0.061699 0)
(-0.190396 -0.0447684 1.12122e-20)
(-0.192716 -0.0250078 1.04414e-20)
(-0.193422 -0.00229152 9.69334e-21)
(-0.192508 0.0234261 0)
(-0.191803 0.0523254 0)
(0.0015046 -0.0198391 0)
(-0.00054922 -0.0486218 8.21326e-20)
(-0.00927918 -0.0694 -3.10341e-20)
(-0.0215836 -0.0835039 2.9598e-20)
(-0.0356133 -0.092465 -8.29997e-20)
(-0.0503295 -0.0977898 0)
(-0.0650167 -0.100739 -4.92286e-20)
(-0.0792043 -0.102242 2.29545e-20)
(-0.0926194 -0.102888 -4.31955e-20)
(-0.105121 -0.102966 1.9857e-20)
(-0.116642 -0.10253 1.14427e-19)
(-0.127151 -0.10147 -5.36914e-20)
(-0.136626 -0.0995855 -8.39033e-20)
(-0.145035 -0.0966283 -3.03131e-20)
(-0.152332 -0.0923371 5.5877e-22)
(-0.158449 -0.086456 1.08257e-19)
(-0.163301 -0.0787428 -5.05239e-20)
(-0.166781 -0.0689706 1.49139e-21)
(-0.168774 -0.0569242 0)
(-0.169188 -0.0423913 -3.77423e-20)
(-0.167911 -0.0251571 0)
(-0.164651 -0.00501685 -3.34522e-20)
(-0.159036 0.0182645 1.19549e-19)
(-0.15334 0.0447822 -1.35413e-21)
(0.0014465 -0.0143716 0)
(-0.000705414 -0.036101 -2.67909e-22)
(-0.00956118 -0.0526493 3.06874e-20)
(-0.0218726 -0.0644552 -2.89745e-20)
(-0.0357022 -0.0724319 2.75094e-20)
(-0.0499602 -0.0776419 1.5479e-19)
(-0.0638977 -0.0810207 -4.86094e-20)
(-0.0770228 -0.0832742 -4.54489e-20)
(-0.0890494 -0.0848525 8.57707e-20)
(-0.0998273 -0.085969 -1.20525e-19)
(-0.109283 -0.0866485 3.7328e-20)
(-0.117379 -0.0867846 3.46772e-20)
(-0.124086 -0.0861932 0)
(-0.129367 -0.0846531 3.07635e-20)
(-0.133172 -0.081933 0)
(-0.135431 -0.0778075 5.07509e-20)
(-0.136054 -0.0720641 -9.40227e-20)
(-0.134933 -0.0645029 2.47485e-20)
(-0.131934 -0.0549287 8.0743e-20)
(-0.126938 -0.0431348 3.7707e-20)
(-0.119867 -0.028869 0)
(-0.110443 -0.0117679 -8.89851e-20)
(-0.0978489 0.00867792 2.89874e-20)
(-0.0833069 0.0324324 0)
(0.000739523 -0.0088648 0)
(-0.00211354 -0.0235793 -9.70914e-20)
(-0.0110843 -0.0360114 -3.07788e-20)
(-0.0230319 -0.0456913 -5.78038e-20)
(-0.0360728 -0.0528872 5.44319e-20)
(-0.0491411 -0.0581955 -5.14584e-20)
(-0.0614976 -0.0622139 9.6261e-20)
(-0.0726513 -0.0654188 4.51417e-20)
(-0.082311 -0.0681207 -1.27451e-19)
(-0.0903174 -0.0704598 7.88642e-20)
(-0.0965872 -0.0724339 -1.10858e-19)
(-0.101073 -0.0739388 2.39056e-19)
(-0.103739 -0.0748077 -1.28208e-19)
(-0.104543 -0.0748439 5.82913e-20)
(-0.103433 -0.0738424 1.60827e-19)
(-0.100344 -0.0716052 -5.32148e-20)
(-0.0951952 -0.0679491 -4.73622e-20)
(-0.0878879 -0.0627084 -4.35336e-20)
(-0.0783002 -0.0557328 0)
(-0.0662948 -0.0468728 -6.59753e-20)
(-0.0517568 -0.0359309 -5.61586e-20)
(-0.034543 -0.0225492 8.47681e-20)
(-0.0145155 -0.00609845 9.49621e-20)
(0.0108558 0.0156353 -8.74298e-20)
(-0.000546192 -0.00363085 0)
(-0.00462291 -0.0117074 -1.29127e-19)
(-0.0136614 -0.0202756 -2.24834e-22)
(-0.0248517 -0.0280256 1.1513e-19)
(-0.0364911 -0.0346081 0)
(-0.0476062 -0.0401632 0)
(-0.0575067 -0.0449561 0)
(-0.0657242 -0.0492357 -4.47583e-20)
(-0.0719694 -0.0531746 5.38047e-22)
(-0.0760734 -0.0568388 7.8788e-20)
(-0.0779394 -0.0601959 -1.09023e-19)
(-0.0775072 -0.0631391 6.92567e-22)
(-0.0747308 -0.0655135 0)
(-0.0695664 -0.0671394 -5.82674e-20)
(-0.0619666 -0.0678303 5.08414e-20)
(-0.0518795 -0.0674062 -1.45884e-19)
(-0.0392487 -0.0657037 1.74286e-19)
(-0.0240131 -0.0625838 3.40354e-20)
(-0.00610149 -0.0579375 -6.51633e-21)
(0.0145739 -0.0516864 -1.30885e-19)
(0.0380654 -0.0437793 -5.55919e-20)
(0.0644538 -0.0340773 1.72377e-19)
(0.0945999 -0.0217033 -1.11303e-19)
(0.132084 -0.00345448 0)
(-0.00228375 0.00106588 6.24971e-20)
(-0.00795654 -0.00104419 6.45338e-20)
(-0.0169316 -0.00612386 -6.13623e-20)
(-0.0269026 -0.0121593 -1.15485e-19)
(-0.0364477 -0.0182535 1.08746e-19)
(-0.0447392 -0.0241256 -1.02126e-19)
(-0.0511645 -0.029728 1.44151e-19)
(-0.0552886 -0.0350985 -4.45383e-20)
(-0.0568313 -0.0402673 8.42161e-20)
(-0.0556072 -0.045222 0)
(-0.0514972 -0.0498924 7.13977e-20)
(-0.0444215 -0.0541587 -1.35192e-19)
(-0.0343217 -0.057866 1.22682e-19)
(-0.0211531 -0.0608395 -1.15228e-19)
(-0.00488256 -0.0628986 0)
(0.0145102 -0.0638684 9.49632e-20)
(0.037031 -0.0635907 1.67258e-19)
(0.0626704 -0.0619343 -1.57751e-19)
(0.0914057 -0.0588041 -6.84702e-20)
(0.123208 -0.0541518 -5.86384e-20)
(0.157997 -0.0480016 1.67733e-19)
(0.195896 -0.040392 4.36206e-20)
(0.235609 -0.0311788 -4.39305e-20)
(0.29027 -0.0171609 3.60191e-20)
(-0.00430077 0.00501551 -6.25056e-20)
(-0.0117261 0.00795233 1.95825e-19)
(-0.020367 0.00587132 -6.15354e-20)
(-0.02853 0.00131089 1.16103e-19)
(-0.0351361 -0.00438487 -1.09326e-19)
(-0.0395354 -0.0105698 5.3138e-22)
(-0.0412172 -0.0169186 4.84056e-20)
(-0.0397775 -0.0232648 1.79934e-19)
(-0.0349285 -0.0295043 -1.46487e-21)
(-0.0264724 -0.0355403 -7.89114e-20)
(-0.0142631 -0.0412515 0)
(0.00179883 -0.0464906 -6.57125e-20)
(0.0217718 -0.0510874 1.24823e-19)
(0.045675 -0.0548583 1.11646e-19)
(0.0734843 -0.0576167 -5.3257e-20)
(0.105129 -0.0591843 -3.32336e-22)
(0.140488 -0.059403 -4.25897e-20)
(0.179392 -0.0581461 7.57615e-20)
(0.221625 -0.0553295 6.84507e-20)
(0.266963 -0.0509132 -6.08533e-20)
(0.31486 -0.0450024 5.31354e-20)
(0.366569 -0.0373612 -4.67492e-20)
(0.414398 -0.0293853 0)
(0.489573 -0.0162447 -3.59629e-20)
(-0.00639477 0.00806737 6.35437e-20)
(-0.0154582 0.0149308 -6.54553e-20)
(-0.0233011 0.0152489 6.25361e-20)
(-0.028885 0.0118854 0)
(-0.0314983 0.00651457 0)
(-0.0306769 8.03555e-05 1.04092e-19)
(-0.0260066 -0.0068509 -9.71505e-20)
(-0.0171296 -0.01393 9.01582e-20)
(-0.00375415 -0.020926 -4.22671e-19)
(0.0143373 -0.0276464 8.11701e-22)
(0.0372887 -0.0339106 7.29862e-20)
(0.0651717 -0.0395309 0)
(0.0979751 -0.04431 -1.22068e-19)
(0.135594 -0.0480485 2.26119e-19)
(0.177824 -0.0505544 -1.56264e-19)
(0.224356 -0.0516556 -2.29963e-19)
(0.274781 -0.0512121 7.20857e-21)
(0.328605 -0.0491289 1.54421e-19)
(0.385245 -0.0453735 0)
(0.444243 -0.0399 0)
(0.50401 -0.0331392 -5.31246e-20)
(0.568203 -0.0239849 4.67391e-20)
(0.620451 -0.0160399 -1.59065e-19)
(0.710791 -0.00124046 1.49267e-19)
(-0.00835084 0.0101359 0)
(-0.0186243 0.0196583 0)
(-0.0249629 0.0216739 -1.88407e-19)
(-0.0269643 0.0191796 5.97935e-20)
(-0.0242735 0.0140617 2.97519e-22)
(-0.0166066 0.00749103 1.05636e-19)
(-0.00364767 0.000229408 0)
(0.0149116 -0.00721691 -9.17146e-20)
(0.0393275 -0.0144891 8.48262e-20)
(0.0697722 -0.0213058 -1.57424e-19)
(0.1063 -0.0274204 1.11699e-21)
(0.148825 -0.0326009 1.33523e-19)
(0.197094 -0.036628 -3.04136e-21)
(0.250678 -0.0393018 1.08357e-19)
(0.308968 -0.0404532 -1.58057e-19)
(0.371193 -0.0399573 0)
(0.436448 -0.0377455 1.647e-19)
(0.50374 -0.0338134 -2.3012e-19)
(0.571987 -0.0282549 6.75071e-20)
(0.640435 -0.0210562 0)
(0.706687 -0.0130306 5.34714e-20)
(0.775413 -0.00248637 1.83741e-19)
(0.827377 0.0055553 -1.72434e-19)
(0.916051 0.021316 -1.84033e-19)
(-0.00996032 0.0112059 1.96646e-19)
(-0.0206712 0.0220386 -2.71174e-19)
(-0.0245112 0.0249736 1.92402e-22)
(-0.0216504 0.0229802 6.05587e-20)
(-0.0120586 0.0180498 -1.13399e-19)
(0.00437604 0.0115127 -1.05057e-19)
(0.027852 0.00428163 1.96734e-19)
(0.0585768 -0.00300492 -2.38957e-21)
(0.09668 -0.0098801 -1.72398e-19)
(0.14214 -0.0159811 3.17035e-19)
(0.194724 -0.0210081 -2.93998e-21)
(0.253942 -0.0247088 -1.36947e-19)
(0.319025 -0.0268794 0)
(0.388938 -0.0273726 0)
(0.46241 -0.0261095 -5.16166e-20)
(0.538003 -0.0230891 -9.33972e-20)
(0.61419 -0.0183927 -1.64827e-19)
(0.689444 -0.0121846 1.54719e-19)
(0.762305 -0.00471093 -6.75279e-20)
(0.831626 0.00381345 1.17534e-19)
(0.895607 0.0126911 -5.92308e-20)
(0.956641 0.0228885 8.82482e-20)
(1.00265 0.0304821 -2.17675e-19)
(1.07022 0.0441115 3.73689e-20)
(-0.0110281 0.0113284 6.64577e-20)
(-0.0210264 0.0221262 0)
(-0.021028 0.0251867 1.29648e-19)
(-0.0116964 0.0233335 -1.22135e-19)
(0.00670769 0.0185786 1.13498e-19)
(0.0341142 0.0123529 0)
(0.0705421 0.00567617 0)
(0.115973 -0.000715856 -9.22978e-20)
(0.170214 -0.00628007 2.19667e-21)
(0.232789 -0.0106079 8.14442e-20)
(0.302858 -0.0133963 -7.25964e-20)
(0.379185 -0.0144399 1.37512e-19)
(0.460168 -0.0136339 0)
(0.543908 -0.0109794 2.23744e-19)
(0.62833 -0.00658461 -4.12878e-19)
(0.711322 -0.000659094 2.83845e-19)
(0.790879 0.00650406 1.646e-19)
(0.865221 0.0145349 -1.54512e-19)
(0.932933 0.0230736 0)
(0.992909 0.0316119 0)
(1.04469 0.0399817 0)
(1.0882 0.0475805 0)
(1.12168 0.0539134 4.27843e-20)
(1.15802 0.0617829 -1.52393e-19)
(-0.191588 0.0941486 -6.17274e-21)
(-0.189599 0.143633 6.19107e-21)
(-0.184856 0.197174 -1.70037e-22)
(-0.177523 0.252924 0)
(-0.167241 0.308636 -5.02719e-21)
(-0.153709 0.361653 9.55698e-21)
(-0.136551 0.40886 -2.03393e-22)
(-0.115004 0.446573 -4.21535e-21)
(-0.087834 0.470939 0)
(-0.0535057 0.477751 0)
(-0.0104897 0.462762 -2.30994e-22)
(0.0419204 0.422404 -2.34467e-22)
(0.103019 0.354966 -4.02076e-21)
(0.170502 0.261528 3.67375e-21)
(0.240896 0.146272 0)
(0.311067 0.0150032 0)
(0.380017 -0.126106 3.38401e-21)
(0.446523 -0.265338 -3.20918e-22)
(0.507079 -0.386333 -2.70871e-21)
(0.556907 -0.474139 -1.40849e-22)
(0.591957 -0.523103 0)
(0.611656 -0.537485 0)
(0.617795 -0.528596 0)
(0.607663 -0.515097 0)
(0.575466 -0.513799 0)
(0.526543 -0.518091 0)
(0.484448 -0.490846 4.36692e-22)
(0.47594 -0.392433 -6.72782e-22)
(0.507748 -0.219921 0)
(0.566525 -0.0121199 0)
(0.634291 0.180166 -5.45163e-22)
(0.695188 0.322746 5.2982e-22)
(0.739588 0.407762 1.80967e-22)
(0.768694 0.441701 0)
(0.784283 0.446194 0)
(0.776694 0.454713 2.33501e-22)
(0.739276 0.478575 -2.26983e-22)
(0.690163 0.47719 0)
(0.66217 0.390724 3.41846e-22)
(0.672175 0.211373 -5.21366e-22)
(0.709486 -0.00840911 1.87268e-22)
(0.753882 -0.193292 0)
(0.796139 -0.312211 -2.15816e-22)
(0.826032 -0.363701 2.09855e-22)
(0.827679 -0.397152 0)
(0.791825 -0.417188 0)
(0.736559 -0.40874 -6.80985e-23)
(0.702122 -0.313646 1.98122e-22)
(0.706839 -0.141428 0)
(0.744994 0.0391971 0)
(0.789437 0.203831 -5.37076e-23)
(0.803394 0.291003 4.09847e-24)
(0.778967 0.393447 -4.42018e-24)
(0.747609 0.370741 3.83529e-23)
(0.728683 0.319323 0)
(0.742091 0.143369 0)
(0.771392 -0.0538578 0)
(0.756474 -0.147842 0)
(0.758208 -0.377774 0)
(0.736315 -0.238348 0)
(-0.195033 0.0886745 -5.15831e-22)
(-0.192636 0.135002 -2.11264e-20)
(-0.186648 0.185206 7.12905e-22)
(-0.177008 0.237509 1.91764e-20)
(-0.162826 0.289596 2.64681e-22)
(-0.143342 0.338891 0)
(-0.11804 0.382453 -1.57991e-20)
(-0.0860415 0.415713 3.10626e-20)
(-0.0463202 0.435203 -1.52682e-20)
(0.00176142 0.436782 1.52255e-20)
(0.0584352 0.416541 -1.45668e-20)
(0.123056 0.371753 1.57618e-20)
(0.193777 0.301784 -1.53297e-20)
(0.267628 0.208251 -5.31142e-22)
(0.341239 0.0945033 -1.67604e-20)
(0.412285 -0.0349059 1.62867e-20)
(0.480183 -0.173528 -1.48069e-20)
(0.543313 -0.309538 1.39451e-20)
(0.59723 -0.42481 -1.08239e-20)
(0.636809 -0.503459 1.88867e-20)
(0.659164 -0.54129 -8.16076e-21)
(0.665087 -0.545338 -3.48207e-22)
(0.658846 -0.52704 -4.01803e-21)
(0.641487 -0.502273 7.3592e-21)
(0.6065 -0.489261 -3.35712e-21)
(0.552284 -0.489433 1.8401e-22)
(0.496238 -0.472279 3.86577e-21)
(0.467667 -0.394349 7.28102e-22)
(0.481971 -0.241451 -8.63505e-21)
(0.530823 -0.0451274 8.77223e-21)
(0.595714 0.145455 -4.25763e-21)
(0.659036 0.294028 4.0408e-22)
(0.710282 0.387618 -1.81349e-22)
(0.748761 0.429726 2.69146e-22)
(0.771784 0.443679 0)
(0.767992 0.463377 0)
(0.733954 0.494854 -1.07985e-21)
(0.691953 0.491754 7.52963e-22)
(0.673893 0.395363 1.14926e-21)
(0.692244 0.204939 3.2047e-22)
(0.734286 -0.021376 -1.74382e-21)
(0.77754 -0.207569 3.4649e-22)
(0.814486 -0.323793 0)
(0.838068 -0.368541 0)
(0.837088 -0.391913 0)
(0.799075 -0.403967 0)
(0.742004 -0.395533 2.18499e-22)
(0.70301 -0.30917 -1.32012e-22)
(0.704697 -0.147594 0)
(0.741921 0.0278745 0)
(0.784716 0.195884 0)
(0.79977 0.291709 -8.15227e-23)
(0.773583 0.39987 6.52463e-24)
(0.744997 0.376254 -7.69754e-23)
(0.726399 0.320033 0)
(0.743163 0.139362 0)
(0.776242 -0.0561712 6.68283e-23)
(0.761447 -0.146018 1.95525e-22)
(0.765119 -0.375799 0)
(0.741924 -0.237274 0)
(-0.15476 0.0785069 -7.30704e-22)
(-0.151111 0.121184 -3.76858e-20)
(-0.142778 0.167498 3.52716e-20)
(-0.130226 0.215975 -3.30347e-20)
(-0.112162 0.263685 -2.66497e-22)
(-0.0871796 0.308426 0)
(-0.0555152 0.347012 -3.00124e-20)
(-0.0162769 0.375733 2.93807e-20)
(0.0320334 0.39094 2.32444e-22)
(0.088778 0.388549 4.63983e-22)
(0.153237 0.365224 4.8657e-22)
(0.224027 0.318913 4.9858e-22)
(0.298758 0.249401 -3.50963e-20)
(0.374404 0.158284 3.46385e-20)
(0.448049 0.0483921 0)
(0.517972 -0.0768841 1.1056e-21)
(0.583642 -0.211625 -3.14837e-20)
(0.642553 -0.343056 3.10359e-20)
(0.688813 -0.45176 0)
(0.717047 -0.521614 0)
(0.726231 -0.549715 -1.38179e-20)
(0.71897 -0.545536 2.37767e-20)
(0.700737 -0.521171 -1.76732e-20)
(0.675774 -0.488824 1.39281e-21)
(0.639077 -0.465051 1.18306e-20)
(0.5834 -0.458374 -1.14212e-20)
(0.517974 -0.447981 1.13275e-20)
(0.471237 -0.390397 5.92766e-22)
(0.466755 -0.260116 -6.72798e-21)
(0.503112 -0.0783522 0)
(0.562741 0.108347 0)
(0.626944 0.261455 2.02812e-21)
(0.6842 0.363055 -2.70157e-21)
(0.731181 0.414077 -2.437e-23)
(0.760835 0.438797 1.93064e-21)
(0.760946 0.47022 -1.87628e-21)
(0.731279 0.508999 0)
(0.697075 0.504271 2.97949e-22)
(0.688619 0.399096 3.65015e-21)
(0.714831 0.199243 -7.5528e-21)
(0.761375 -0.0321127 3.37185e-21)
(0.803526 -0.218782 3.91189e-22)
(0.83487 -0.332598 -2.47254e-21)
(0.851753 -0.371771 1.86076e-21)
(0.848027 -0.386017 2.92389e-22)
(0.808232 -0.390457 2.22357e-22)
(0.749936 -0.382167 -2.19045e-22)
(0.706929 -0.3048 0)
(0.705375 -0.154247 0)
(0.741166 0.0160165 -7.65074e-22)
(0.781828 0.187537 3.81733e-22)
(0.797835 0.292054 -3.23381e-22)
(0.769844 0.406102 4.89316e-22)
(0.743821 0.381676 7.12977e-22)
(0.725546 0.320649 -1.53245e-22)
(0.745604 0.135131 3.68201e-22)
(0.782408 -0.0587557 -3.28107e-22)
(0.767859 -0.144165 1.80193e-22)
(0.773077 -0.373749 0)
(0.748134 -0.236213 0)
(-0.0797506 0.0641546 -6.80212e-20)
(-0.0745442 0.102986 2.51045e-21)
(-0.0631786 0.145002 6.19986e-20)
(-0.0476811 0.188312 -4.91867e-22)
(-0.0270053 0.231035 0)
(0.00123358 0.271067 0)
(0.0371285 0.304852 -5.61306e-20)
(0.081117 0.329788 -3.13959e-21)
(0.133734 0.341686 8.52327e-20)
(0.194275 0.336826 1.92412e-21)
(0.261603 0.312428 -3.07123e-20)
(0.333893 0.266855 -3.37581e-20)
(0.408652 0.200013 3.3814e-20)
(0.483112 0.113279 0)
(0.554883 0.00862276 -3.71042e-20)
(0.622918 -0.111434 3.37983e-20)
(0.686411 -0.241471 0)
(0.741203 -0.367557 0)
(0.77959 -0.4691 2.32025e-20)
(0.796092 -0.530411 -4.46538e-21)
(0.79192 -0.550042 -1.70857e-20)
(0.772195 -0.539231 -1.05144e-20)
(0.742949 -0.51114 1.03988e-20)
(0.710122 -0.474956 -6.24006e-21)
(0.671851 -0.442757 9.69795e-22)
(0.618007 -0.42692 4.91949e-21)
(0.548606 -0.418332 5.78177e-22)
(0.486953 -0.37894 8.54382e-23)
(0.462943 -0.273732 0)
(0.484267 -0.11016 6.00465e-21)
(0.536203 0.0698009 -6.15575e-21)
(0.599607 0.225551 3.48617e-22)
(0.661683 0.33443 0)
(0.715917 0.394931 -2.47865e-22)
(0.751326 0.431292 3.76312e-21)
(0.755497 0.474556 -7.28393e-21)
(0.731022 0.520364 -1.37678e-21)
(0.704986 0.514576 -1.24975e-21)
(0.705777 0.402308 4.93787e-21)
(0.739341 0.194895 8.95267e-22)
(0.790103 -0.0405005 -6.76346e-21)
(0.831389 -0.227106 5.8292e-21)
(0.857096 -0.338791 -2.20626e-23)
(0.866956 -0.373591 1.41988e-21)
(0.860264 -0.379769 -1.67375e-21)
(0.818978 -0.376867 -1.45649e-21)
(0.759965 -0.368575 4.42896e-22)
(0.713552 -0.300278 7.35308e-22)
(0.70864 -0.161136 -1.42774e-21)
(0.742579 0.00375055 1.06678e-21)
(0.780709 0.178797 -3.42546e-22)
(0.797556 0.291982 3.04725e-22)
(0.767813 0.412136 3.00038e-22)
(0.744209 0.387049 -1.11866e-21)
(0.726249 0.321235 -9.56623e-24)
(0.749471 0.13074 -4.62226e-22)
(0.789838 -0.0616151 0)
(0.775682 -0.142293 -1.66143e-22)
(0.782054 -0.371563 2.77038e-22)
(0.754918 -0.235111 0)
(0.0205929 0.0449648 6.12073e-20)
(0.0261654 0.0799672 -1.17488e-19)
(0.0384686 0.117317 5.57053e-20)
(0.0558892 0.155332 5.27843e-20)
(0.0790901 0.193505 -1.03439e-19)
(0.109322 0.229316 -1.01002e-21)
(0.147002 0.259501 5.06575e-20)
(0.192528 0.281102 5.4872e-20)
(0.24598 0.290542 -5.37699e-20)
(0.306686 0.284627 0)
(0.373358 0.260858 -6.62158e-20)
(0.444097 0.217748 1.34682e-19)
(0.516599 0.155063 -6.8359e-20)
(0.588444 0.0737219 0)
(0.657975 -0.0248433 0)
(0.724489 -0.138949 1.14929e-21)
(0.786202 -0.263303 -6.64711e-20)
(0.836777 -0.382684 6.45668e-20)
(0.866789 -0.47598 0)
(0.871376 -0.528925 3.80411e-20)
(0.854198 -0.541892 -6.33294e-20)
(0.823155 -0.526732 4.7216e-20)
(0.784804 -0.496947 -3.54043e-20)
(0.744771 -0.460099 3.26704e-21)
(0.70429 -0.423155 2.03148e-20)
(0.653951 -0.398148 -8.9554e-21)
(0.585873 -0.386383 -2.58379e-22)
(0.514318 -0.360332 -3.80594e-21)
(0.47137 -0.280546 -5.34702e-22)
(0.475237 -0.138957 4.37266e-21)
(0.516936 0.0307865 3.25154e-22)
(0.577693 0.186833 -3.90005e-21)
(0.642934 0.302019 7.28192e-21)
(0.702793 0.372245 -3.77318e-21)
(0.743027 0.420703 0)
(0.751432 0.475688 -4.55317e-21)
(0.732833 0.528463 4.50615e-21)
(0.715116 0.522683 -5.52256e-21)
(0.724826 0.405465 6.85898e-21)
(0.765201 0.191943 -9.8655e-22)
(0.819901 -0.0466006 0)
(0.860641 -0.232548 -8.12687e-22)
(0.880841 -0.342219 1.7963e-21)
(0.883447 -0.373874 0)
(0.87361 -0.373207 2.57069e-21)
(0.831116 -0.36335 -1.12549e-21)
(0.771729 -0.354883 3.50013e-22)
(0.722463 -0.295558 2.81254e-22)
(0.714168 -0.168084 0)
(0.745936 -0.00882431 0)
(0.781238 0.169646 -8.69577e-22)
(0.798866 0.291402 1.43379e-21)
(0.767534 0.417933 -9.12772e-22)
(0.746273 0.392403 3.17474e-22)
(0.728625 0.321849 8.23458e-22)
(0.754822 0.126225 4.62667e-22)
(0.798486 -0.0647548 -8.38616e-22)
(0.78487 -0.140396 0)
(0.792011 -0.369152 -4.29797e-22)
(0.762248 -0.233917 -3.07692e-23)
(0.142844 0.022728 5.69357e-20)
(0.147428 0.0544773 -5.64851e-20)
(0.157457 0.0873719 4.19911e-22)
(0.173989 0.121023 -3.71345e-22)
(0.196956 0.154768 3.9107e-22)
(0.226718 0.186427 -3.8853e-22)
(0.263657 0.213157 7.44164e-22)
(0.308074 0.23201 0)
(0.359899 0.239937 -8.2802e-22)
(0.41844 0.234095 8.8994e-22)
(0.482436 0.212156 9.59125e-22)
(0.550155 0.172587 -1.0603e-21)
(0.619629 0.114787 0)
(0.688996 0.0389031 0)
(0.756903 -0.0530046 1.15097e-21)
(0.822368 -0.160715 0)
(0.882131 -0.278074 -1.06272e-21)
(0.927483 -0.389005 0)
(0.948113 -0.47304 -4.57982e-20)
(0.940801 -0.518121 8.17718e-20)
(0.911684 -0.526403 -6.28733e-20)
(0.87083 -0.509351 2.70777e-20)
(0.825446 -0.479593 1.49035e-20)
(0.77972 -0.444074 -1.44741e-20)
(0.736322 -0.405875 -8.37837e-21)
(0.689375 -0.373541 8.08275e-21)
(0.626747 -0.355027 0)
(0.551643 -0.335913 1.41228e-22)
(0.492383 -0.279168 0)
(0.476958 -0.162889 0)
(0.505768 -0.00719682 6.24432e-21)
(0.561675 0.146027 -6.40051e-21)
(0.627954 0.266153 3.07892e-22)
(0.691537 0.345992 3.84608e-22)
(0.735661 0.4066 -3.56718e-22)
(0.748426 0.473021 -3.98468e-21)
(0.736172 0.532961 3.86919e-21)
(0.726838 0.528687 -7.06521e-21)
(0.745035 0.408705 6.19052e-21)
(0.791798 0.190727 2.01433e-21)
(0.850276 -0.0502897 -7.40231e-21)
(0.890785 -0.235189 4.44658e-22)
(0.905782 -0.342881 4.49206e-21)
(0.900981 -0.372589 0)
(0.887802 -0.366439 -1.13923e-21)
(0.844405 -0.350029 9.75398e-22)
(0.78485 -0.341106 -1.334e-21)